/*--------------------------------*- C++ -*----------------------------------*\
| =========                 |                                                 |
| \\      /  F ield         | OpenFOAM: The Open Source CFD Toolbox           |
|  \\    /   O peration     | Version:  v2012                                 |
|   \\  /    A nd           | Website:  www.openfoam.com                      |
|    \\/     M anipulation  |                                                 |
\*---------------------------------------------------------------------------*/
FoamFile
{
    version     2.0;
    format      ascii;
    class       volScalarField;
    location    "800";
    object      p;
}
// * * * * * * * * * * * * * * * * * * * * * * * * * * * * * * * * * * * * * //

dimensions      [0 2 -2 0 0 0 0];


internalField   nonuniform List<scalar> 
10042
(
-0.00225766
-0.0356772
-0.000624509
-0.00190118
5.90047e-05
-0.000107636
0.0146485
-0.00111741
-0.000380653
0.00640354
0.00411032
-0.0631226
0.000149712
0.000194247
-0.00746271
0.000150232
-0.00775035
0.0047315
-0.00944998
0.00310701
0.00150535
-0.00105689
-0.0018208
-0.017592
0.000227367
-7.94486e-05
0.00606118
-0.000347368
-0.00447667
-0.0123011
0.000388554
-0.0100371
-0.000360257
-0.000336884
-0.00206738
-0.0023464
-0.00350365
7.90092e-05
0.000342481
6.1223e-05
-0.0133634
-0.000360847
0.0237602
-0.226732
-0.000853803
0.000302593
-0.000305781
-0.00720113
0.0100903
0.0307333
0.0251657
-0.000621614
-0.00105354
-0.00923045
-0.169902
-0.184482
0.000633645
0.00276443
-0.0038613
-1.69671e-05
0.00946169
-0.0780731
0.0180186
-0.0017532
-0.00145004
0.0014495
0.0027577
-0.0115117
-0.000249416
-0.00982854
0.0260393
0.000724124
0.000259935
-0.00400806
0.00132414
0.0256728
0.000779287
-0.000305162
0.00103956
-0.0103132
-0.209196
-0.0136074
7.11752e-05
-9.99608e-05
0.00475533
0.0107093
0.00255886
-0.00482459
0.000792847
-0.000128768
-0.00436205
-0.00783304
0.0192099
0.00970358
-0.00232497
-0.000723821
-0.500626
0.00282426
-0.0214135
-0.00447612
-0.00461887
0.00715464
-0.000800424
-0.0130126
-0.00554321
-0.00153928
-0.237225
0.00126533
0.0140346
-0.00153183
-0.00348926
0.0139694
0.00651088
-0.00159642
-0.00111376
-0.000236108
0.00254253
6.50888e-05
0.00258542
-0.000192615
-1.76382e-05
-0.0996644
-0.128736
-0.0008342
0.000151132
0.000870769
0.000926863
-0.178485
0.00187553
0.00247234
-1.66577e-05
0.00114287
0.000978514
0.00100165
0.0114539
0.0305498
0.00253045
-0.230596
-0.00574008
-0.0127232
0.0130766
-0.000240164
-0.191988
-0.000344524
0.00152682
7.72795e-05
0.00454253
-0.000235489
0.00104985
-0.037783
0.00118735
-0.000212303
-0.00550074
0.00184097
-0.00184915
0.00194143
0.00465455
-0.211238
0.00103452
-0.000178392
-0.000189765
3.27823e-05
0.0326803
0.000849503
-0.0057877
-0.03953
0.00028079
-0.0110492
-0.00125879
-0.000355004
-0.00255271
-0.00446449
-0.121982
-0.000385138
-0.00837907
-0.13236
-1.94452e-05
6.22212e-05
0.00103123
-0.000281231
-0.00557237
-0.00310321
-0.00434325
-0.000193866
0.000648585
-0.00883467
0.00062824
-2.1217e-05
0.0249337
0.000156261
-0.0256525
0.00149036
1.12082e-05
-0.003613
-0.182754
-0.00798132
-0.0517159
-0.00228707
-0.440567
-0.00014848
-0.000141868
0.0162223
0.00899427
-0.00027883
-0.0234447
0.000906136
-0.0259539
0.00212702
-0.00335051
0.00101266
-0.0116814
-0.000314556
0.00415912
0.00983453
-0.00280935
-0.0104314
-0.000287939
-0.0505651
-0.00151255
0.00493074
-0.0829605
-0.00205348
-0.0879769
-0.012473
-0.00187947
0.0164891
0.000639167
0.00251108
0.00546088
-0.000955468
5.92956e-05
0.00097995
-0.00796475
0.000213759
6.36141e-05
-0.00220975
0.00222396
-0.506602
0.000822479
-0.0167736
-0.021025
-0.0108492
-1.08222e-05
6.04021e-05
-0.15414
-6.757e-06
-0.0107459
0.000616946
-0.00521689
4.57745e-06
-0.00631231
4.9272e-08
-0.00673738
-0.0779554
0.000866226
0.00218498
0.000236356
0.00127949
-0.505625
-0.00118529
-0.00025945
0.000151052
-0.000555079
-0.000324487
0.00032673
-0.0755662
-0.000681985
-0.00649157
0.000208185
0.000974981
-0.00465719
0.0314142
0.000271499
0.0267003
0.00115502
0.00109809
-0.0105345
-0.000392873
0.000631922
-0.185496
-0.00033508
-0.0154556
-0.0467708
-0.0101914
-0.00413568
-0.219035
0.00123973
-0.000392016
-0.00171193
-0.000103091
0.00188272
0.00200337
-0.00322878
-0.0260919
-0.000994976
0.000206759
-0.0027497
0.00230703
-0.0048252
-0.000337393
-0.00517335
0.00839369
-1.77727e-05
-0.0269228
0.00154213
-0.0685756
0.000245629
3.11648e-05
-0.0113857
-0.0265685
-0.00350214
0.000839288
-0.000914372
0.000240747
0.001789
-0.000202515
-0.000334415
0.000322734
-0.0128191
-0.000223793
-0.000227088
0.0269667
0.000925693
-0.0327187
0.000589976
-0.00288869
-0.000599143
0.00101601
0.00237311
0.00126458
0.000879082
-0.00252481
-0.00344261
9.49662e-05
-0.0218047
-0.00129189
-0.113072
-0.028755
2.4212e-05
-0.0326115
0.0155287
0.00375464
-1.27591e-05
-0.000878545
-0.00033594
3.58323e-05
0.000329121
-0.0002236
0.00166463
-0.473513
-0.00869908
-0.00193398
0.00161293
-0.00107675
-0.112529
-0.000839209
0.000547717
3.71142e-05
-0.010633
-0.00031864
-0.00175585
-0.00377645
-0.00520708
-0.00554588
-0.0275656
-0.00598626
-0.000279862
0.00151734
0.00155061
-0.133106
-2.24313e-05
-0.000353681
0.000263959
-0.000154685
0.0101518
0.000266086
0.00175236
-0.0112414
-0.0704433
0.0105931
-0.0019422
-0.0135434
0.00514687
0.00095388
0.00208455
-0.000216269
-0.0001864
-0.00019179
0.00128708
-0.000397128
0.00117459
-0.11755
-0.00822126
-0.000265277
-0.0186886
-0.0643862
-0.00247289
-0.00104845
-0.00416303
-0.0083684
-0.00068614
-0.149907
0.000248063
-0.136055
-0.486222
-0.0011153
0.0133163
-0.00171944
-0.0115841
0.00109105
0.00477926
0.00155399
-0.0175006
-0.00788511
-0.00966541
0.00197988
0.00286798
-0.143951
-0.000356767
0.00194363
2.36185e-05
-0.0136409
2.68089e-05
-0.000177838
0.0132551
0.00262321
0.00500983
0.00966999
-0.00109755
0.00277106
0.00253963
-0.000297403
0.00212044
-0.00229328
-0.00162092
-0.0051287
-0.00607382
0.00208884
-0.000214334
-0.156382
-0.00029982
0.00182573
0.00188591
0.0248841
0.0331225
0.000904133
-0.0114947
0.0288181
-0.00229847
-0.000153331
0.000316046
-0.0392708
-0.0430261
0.00174881
-0.00186476
0.000333458
-0.00160025
-0.152025
-0.000201347
3.52873e-05
9.18118e-05
-0.00216302
0.000226033
0.000352873
0.00122157
-0.00321033
-0.00366874
-0.0115822
0.00171995
-0.00238419
0.0285082
-0.000661692
-0.0825365
0.000708403
-0.0259961
0.000111845
-0.0156619
-0.000170371
-0.0492333
-0.0045328
-0.00186172
-0.00744358
-0.0104069
-0.000172278
-0.00724208
2.1105e-05
0.0001777
-0.000572426
-0.000409666
0.000270828
0.000857112
-0.208834
0.000143156
-0.00127726
-0.00397024
0.014224
-0.00112035
-0.00167567
-0.0289837
0.0122208
-0.00343056
-0.00022458
-0.0142723
-0.232329
0.00715469
-0.01769
0.000214491
-1.68628e-05
0.00432972
0.0036685
-0.000126333
-0.0337089
-0.00112573
-0.00168452
-0.00179818
-0.0332395
-0.00103207
-0.00757143
-0.00217776
-0.00401128
-0.000640335
0.002838
-0.0218381
-0.00113175
-0.00465714
-0.0381534
-0.0023128
0.0045948
-0.00134252
0.00120378
0.000217668
0.0172448
-0.00196166
-0.000539197
-0.000569703
-0.000621438
-0.00224836
0.00616985
1.09143e-06
-0.140864
-0.000322441
0.00549545
-0.00183347
-0.141228
-0.0011108
-0.0134545
-0.00153085
0.000226776
-0.0403446
-6.58577e-06
-0.0559815
0.00750362
-0.000249354
7.28237e-05
-0.072704
-0.0345429
-0.00208107
9.82276e-06
-0.000540874
-0.000233389
-4.58981e-05
-0.000460137
-0.0017985
-0.149046
-0.00122538
-1.33789e-05
-0.0536137
-0.00474224
-0.000373656
-0.0003103
0.00020263
-0.0511326
-0.00796004
-0.00176801
-0.037831
-0.00477966
-0.0110843
-0.000618189
-0.000263507
0.00106359
0.000909201
-0.00222938
0.00022105
-0.215535
-0.00671493
0.00620823
-0.00034263
-0.00202654
-0.000334897
0.00519697
-0.0341493
-0.000270417
-0.000398654
0.000226642
-0.00213643
-0.000350795
-0.0955157
-0.000209544
-0.00261509
9.24591e-05
-0.00103942
0.00020039
-0.0176571
-0.000338588
0.000600742
0.000235497
-0.130341
-0.000124816
0.00105828
0.000200998
-0.0110815
-0.00240647
-0.000305896
-0.000214835
-0.000335052
6.71516e-05
-1.10218e-05
-0.00199494
-0.000637306
-0.496943
-0.228038
-0.00729336
0.00110887
-0.0149965
-0.00141649
0.00577291
-0.00438216
-0.0116748
-0.00591294
-0.010198
-0.0010225
-0.00737656
-0.00470196
-0.00235306
-0.0106966
-0.00700424
-0.000450211
0.00237286
-0.00550068
-0.00701131
0.000600162
-0.00296177
-0.000688273
0.000121513
-0.000272196
-0.0163299
-0.00957239
-0.000214868
-0.106032
-0.00110791
0.00417447
4.57821e-05
-0.0109712
-0.0012229
0.000204343
-0.0157472
0.00110612
0.000745611
0.00559476
-0.00386957
-3.45976e-05
0.000277028
0.000725178
0.000354408
0.00545871
0.00590314
-0.216318
-0.00721351
0.000774162
0.00068671
-0.00564506
0.00104515
0.00132397
-0.000318287
0.000369997
-0.00886521
0.029077
8.51926e-05
0.000866048
-0.0039697
-0.438758
-0.0125497
0.00175052
0.00471678
-0.000249531
-0.0837622
-0.00585896
0.00059805
0.000134701
0.00117632
-0.00448823
0.00056072
-0.0150928
0.00115751
-7.38656e-06
-0.000881428
0.00124269
-0.015469
-0.0643795
-0.000369261
-0.000761172
-0.000163512
0.00127342
0.000112461
0.00221358
0.00142477
0.0278936
0.000767756
0.000256678
-0.000259666
-0.00164202
-0.00248512
1.28055e-06
-0.00472013
-0.00684217
-0.000479956
-0.00793138
0.00107993
-0.00471488
-0.00561961
-0.000210868
-0.00389361
-0.233572
-0.000144632
0.000403571
0.000331764
-2.03236e-05
-0.0451566
0.00117881
0.00103706
-0.000672261
-0.19825
0.000271834
-0.0049235
0.00646675
0.000793498
0.00578933
-0.00211473
9.7654e-06
0.000266713
0.00332637
-0.000378575
-0.0375122
-7.71551e-05
0.00155475
-0.000953964
-0.00692472
-0.00353827
0.0013806
0.00357343
0.000379191
-0.0310304
0.0174283
-3.90581e-06
6.69719e-05
-0.00394669
0.00108055
-0.000480297
0.00244605
-0.00812622
-0.00175062
-0.00430573
0.000751366
0.00229236
0.00404704
-0.00324
-0.0167964
-0.000463676
0.000674258
0.00115507
0.00495639
0.000237736
-0.0913543
-0.00657357
0.00473374
-0.0157729
-0.200282
0.00106279
0.00322731
0.000319868
-0.00666018
0.00570711
-0.000317743
0.00458267
0.000546501
-0.00839332
0.000315069
-0.00109192
-0.0066236
0.00852555
0.000251507
-0.00642283
0.00116686
-0.000296977
0.000782633
-0.000507208
-0.000172644
0.000216783
-0.00208915
0.00156189
-0.000454307
0.000419721
-0.00227373
0.00204296
-0.0280237
0.00036162
0.000777955
-0.000155183
-0.0408978
5.03016e-06
-0.00457368
0.000269467
0.00753971
0.0167904
-0.0784092
0.00133048
-0.036602
0.0257292
-0.00359243
-0.00035003
1.08261e-05
6.53229e-05
0.00343263
0.00587206
-0.00715044
-0.0966483
0.00205623
-0.0179315
-0.0446919
0.00037375
0.000723435
-0.0550138
0.000912504
-0.100253
0.00360178
-0.169615
0.00143698
-0.00793449
-0.00358532
-0.000654721
-9.16259e-06
0.00342249
-3.70547e-05
-0.00301634
-0.000565178
-0.0351675
0.00100236
-5.22004e-06
-0.0599192
-0.00353982
-0.00390567
0.00141738
-0.0278155
-0.00013474
-0.00431137
0.000784775
0.000878412
-0.00125138
-0.0150368
0.000380269
-0.0232786
0.00207627
-0.0021889
0.00105023
-0.171776
0.000384519
0.00405025
0.000676272
0.0004117
-0.0010964
-0.000245163
0.000832451
-0.00296242
-0.0511302
0.00516183
0.000727746
-0.158694
-0.000204926
-0.00103353
-0.0239431
-0.000187273
-0.00279175
-0.125433
-5.05118e-05
-0.0199347
-0.00641594
0.00579469
-0.00558756
0.00435667
-8.71663e-05
-0.00104781
-0.330363
-0.366815
-0.000328685
0.00423146
-0.00417761
-0.0219702
0.012322
-0.000150858
0.000311019
0.00030848
-0.00201592
-0.000342947
-0.0043246
-0.0138647
-0.000226462
-0.00773101
-0.0204919
9.57572e-05
-0.00024805
-0.000156482
-0.000208458
-0.00538438
-0.0143006
0.0049161
-0.000798897
-0.011941
0.000235923
0.00138806
-0.00128851
-0.0264858
0.00142638
-0.00339967
-0.000142451
0.000155765
-0.006846
-0.00192866
0.0062571
0.00165509
0.00125023
0.00194083
-0.0708563
-0.165377
-0.00491346
0.00123418
-0.0450979
-0.00640776
-0.0448862
-0.0135078
-0.00212215
0.00102533
-0.202797
-0.022516
0.00194063
-0.0115146
-0.0046084
0.000530456
-0.000735276
0.00201762
0.000721338
-0.000115404
-0.00796351
0.000641918
-0.000462076
-0.300383
0.000290377
0.000292362
0.00479858
-0.00772906
0.00213584
0.000224265
0.00106246
-0.206138
0.00750068
-0.00109814
0.0053769
-0.00571764
0.000432863
-0.000438688
-0.011184
0.00362532
0.000641103
0.00120036
0.00101823
4.36166e-05
0.000331941
-0.199968
0.00145839
-0.00289929
-0.00314431
0.00447692
-0.000669564
-0.00849283
0.00351024
-0.00291106
0.0184148
-0.00122969
0.00233944
0.00260708
-0.00084487
0.000391014
-0.0103309
-0.00576401
0.000481499
-0.00148916
-0.000778338
-1.78328e-05
-0.00828958
-0.000596599
0.00177456
-0.129984
-0.00273258
-0.00084207
0.000254291
-0.00793951
-0.000490462
0.00033685
0.000261799
0.00355067
-4.13581e-05
0.000334093
-0.00344306
0.00101961
-0.0478093
-0.00017562
0.000282195
-0.000726105
0.0039088
0.00119972
-0.000244063
0.00587656
0.000338706
0.000957349
-0.027256
0.000816793
0.00254866
-0.000643121
-0.0150443
0.00355313
0.00245628
-0.0453312
0.00294886
-0.00220179
-0.0283414
-0.00992288
0.000722064
-0.000318284
-0.000126429
-0.00045726
-0.224625
0.00480663
-0.00797668
-0.0485283
-0.000389089
0.00441526
0.00392448
-0.00778249
-0.00252338
-0.000419927
-0.0104592
-0.00618511
0.000136202
-0.000154067
-0.231993
-0.00743795
-0.000934274
0.0043292
0.000299189
0.0130417
0.000204478
-0.00064783
-0.000181749
-0.000696084
0.003378
-0.00106366
-0.000419894
0.0291491
0.00504325
-0.00100613
-0.00144281
0.00550961
0.000953273
-0.0043602
-0.0061942
0.00022489
0.000313486
0.000759683
0.00114303
-0.000185412
-0.00384146
-0.00116474
-0.00138996
0.00100808
0.000986442
-0.00117567
-0.00257478
-0.00498503
-0.000199575
0.0057707
-0.00755609
-0.00331978
0.00526235
0.00238713
0.000407634
-0.0108096
0.00543702
-0.000279213
0.0091311
0.00517106
-0.008184
0.000317292
-0.000192975
-0.00691955
-0.0337481
-0.00073878
-0.0133417
0.000156982
-0.00334748
0.029245
0.000196554
-0.000964244
0.000318492
-0.00112894
-0.000235175
0.000500168
-0.00129721
0.000410427
-0.00413269
0.000351647
-0.000916479
-0.00929034
-0.000379452
0.00349104
-0.0368207
0.00418354
0.000302299
-0.00733334
-0.00022656
0.0055298
0.00200855
-0.00124489
-0.000320414
0.00168025
0.00308975
-0.112797
-0.00363109
0.00226777
0.000698285
-0.00717817
0.00132621
0.000253582
0.000590694
-0.0120149
-0.00980632
0.00170443
-0.0006327
-0.0173991
-0.00828914
-0.116163
0.0228712
-0.0119605
0.000284734
-9.37791e-05
0.000106584
0.0170212
-0.00400707
-0.0314246
-0.00918009
0.000556777
-0.000951359
0.00159861
0.0158122
0.0040135
-0.0240417
0.0035799
-0.00509051
-0.0111721
0.000169471
0.000355992
-0.0112664
-0.0293145
0.00357498
-0.00352593
-0.000538212
0.00122779
0.00416976
-0.00517518
0.00676522
0.000585674
0.00590533
-0.0919523
0.00182263
-0.0002416
-0.000168442
-0.00618748
0.000115681
0.000221367
0.00326815
-0.00186642
-0.00327974
-0.0086788
1.24882e-05
-0.0162656
-2.9509e-05
0.0266473
-0.00112283
0.000463213
0.000552922
-0.000354256
0.0052974
-0.000313341
-0.00101313
-0.000202016
0.000395449
-0.00405556
-1.26594e-05
-0.00369474
-0.0161236
0.00171538
0.00243982
-0.00059215
-0.00389121
-0.0364265
-0.00476076
0.000669755
0.00384038
6.53214e-05
-0.0284167
0.0003197
-0.00118443
0.00166804
-0.00318113
0.00477904
-0.00327393
0.000865232
-8.34701e-05
-0.000491338
0.00275176
4.14668e-05
-0.00664485
0.0254299
0.000420356
3.23569e-05
-0.000311445
-0.00404299
-0.000208595
-0.0230957
-0.000732745
0.00593528
-0.0210548
-0.000403246
-0.000897329
0.03127
-0.00144927
0.000639294
0.0290253
-1.90587e-05
0.000273494
0.00609219
-0.00933909
0.000746726
0.00562468
0.000304245
-0.00127491
-0.00812673
-0.000591852
-0.00272645
-0.00593526
-0.0118159
-0.0206413
-0.002053
-0.0069525
0.000639285
-0.00336954
-0.0030757
-0.00601486
0.000755626
0.00374053
-0.00266483
-0.0440528
-0.0136222
-0.000618934
-0.000175666
0.00118507
0.00332191
0.00596224
-0.000808258
-0.000287146
0.000363251
-0.0422845
0.000329543
-0.0033641
-0.00958077
1.21838e-05
-0.00557175
-0.000131429
-0.399367
-0.000661423
-0.029605
0.000771486
0.000282108
-0.000414692
0.000868258
0.000323815
-0.000927675
-0.000316394
0.000641416
-0.00475485
-0.00235015
-0.00763176
-0.000548119
-0.00667459
-0.00879282
-0.000588655
0.000396526
-0.000214895
-0.134915
-0.013139
-0.000701485
0.000417427
-0.000689812
0.000813854
-0.0103921
-0.000429899
-0.00364982
-0.149515
-0.00169139
-0.000488573
0.000678657
-0.00412141
-0.00859262
0.000295658
-0.00267238
-0.00432692
0.000550906
0.000205541
0.00200067
-0.000571098
-0.131753
-0.479187
0.000233797
-0.000366237
0.000480841
-0.057205
0.000664035
0.000485958
-0.00148949
0.000257682
-0.000479765
-0.000650293
-0.0730781
0.00130412
-0.037853
0.000424986
-0.0074692
-0.00202957
-0.00855237
-0.00418289
-0.0040282
0.00630737
-0.000942406
-0.00932091
0.000235033
-0.00995061
-0.0123884
-0.0216638
0.000240824
-0.00571679
-0.0449704
-0.0121908
-0.00914777
-0.000945787
-0.000295349
-0.00214826
-0.00964854
-0.000252498
-0.0285472
0.0127996
-0.000774552
0.000273487
-0.000121568
-0.00678001
0.00274285
-0.028887
0.00139698
0.000299703
-0.0200152
-0.00206738
-0.0257023
-0.0160489
9.60458e-05
-0.102619
0.0025577
0.000421601
0.00553977
0.00460117
0.000765412
-0.00505592
0.000305428
-0.136275
-8.54815e-05
-0.124926
0.0261147
0.00523945
-0.000424624
-0.013687
-0.00232724
0.000595487
-0.000152509
-0.00072276
0.00911185
-0.0100214
0.0058454
-0.00772986
-0.414141
0.00602584
-0.000589366
-0.000864984
-0.0594993
-4.23913e-05
-0.00485388
0.00207385
-0.455953
0.00608306
-0.00103147
-0.0584625
-0.000313812
0.000580823
-0.000355897
0.00879628
0.000226106
-0.0815349
-0.0133305
-0.0734483
-0.00481766
-0.000923247
-0.000439824
-0.00625462
-0.000394061
-2.42229e-06
-0.0537901
-0.449089
0.00023976
-0.000643241
-0.0034336
0.00215032
0.0192661
-0.00584632
-0.0236732
-0.00866117
-0.00234399
0.000159478
-0.00545734
-0.0058063
0.000150357
-0.0185787
0.000239409
-0.0321842
-7.70251e-05
-0.348952
-0.000440266
0.000418916
-0.000285133
-0.00190709
0.000127467
-0.0764631
-0.00278076
-0.036661
0.00903044
-0.000925862
0.000145519
-0.00134728
-0.0269298
-0.000270116
0.0214542
-0.0104248
-0.145503
-0.00178443
-0.0042971
-0.00324677
-0.159668
0.00206319
0.00302787
-0.0270608
0.000931379
0.00222014
-1.76404e-05
-3.76403e-05
0.000246123
0.000424765
0.00106394
0.0114009
-0.0110721
-0.000121956
0.0204913
0.0235576
0.000919008
-0.0134668
-0.000402393
-0.0073083
-0.00656489
-0.00187563
0.00339349
0.000800224
-0.0733265
-0.0158506
0.000584274
0.000961185
0.000760784
0.0184505
0.00511391
-0.00708584
-0.00295556
-0.00410753
0.000335376
-0.00192901
0.00251577
-0.00238656
0.00198269
-0.00233473
-0.000372071
-0.00153514
-0.00979453
-0.0306264
-0.00731618
-5.87183e-05
3.82768e-05
-0.0086793
-0.00584698
0.00104459
-0.00794471
0.0150748
0.000653979
0.00205445
-0.00470276
-0.00139302
0.00383946
-0.00205054
0.00469197
0.0274308
-0.0014704
0.000231691
-5.59598e-05
0.0163877
0.0199211
0.00489217
-0.00777684
-0.00447031
-0.00724141
-0.00471052
0.00536241
-0.00610636
-0.00656596
0.00423268
-0.000775066
-0.00507163
-0.00306946
0.00267473
0.000381968
0.0256862
-0.00125641
-0.00591457
-0.0630193
-0.000945815
-0.00290387
-0.0191571
-0.000150969
-0.00414678
0.0292403
-0.00596861
-0.011663
0.0244567
-0.00403683
-0.00376271
-0.00482603
-0.0574269
-0.00546985
-0.000956391
-0.00409898
-0.000275204
-0.00210038
-0.00217929
-0.00262931
-0.000182957
0.000525221
-0.000445643
0.000404948
-0.00293383
-0.000719662
-6.30766e-05
-0.0014284
0.0346593
-0.00691488
-0.12186
-0.0105601
-0.00713312
0.0104199
-0.00136938
-0.266628
0.00392336
0.000268613
-0.00339482
-0.00165596
-0.000851143
-0.000168123
-0.0148554
0.00145034
0.000750171
-0.0483024
0.000251997
-0.241744
-0.00540068
0.00430252
-6.64657e-05
-0.194807
-0.0684669
0.00450179
-0.00877526
-0.00154993
0.000365928
-0.00962363
0.00491013
0.000600896
-0.00415698
0.000514488
-0.00219981
-0.237741
-0.000968983
-0.00935042
0.00633257
-0.00606518
-0.00917161
-0.00777932
-0.00444036
-0.00695452
0.021838
-0.102988
0.00161529
-0.00249416
-0.005441
-0.00769832
0.0118498
-0.13614
0.00882036
-0.0150775
-0.00181343
-0.00942318
-0.00682904
0.010236
0.000522385
-0.00347289
4.12467e-05
-0.00838601
0.00160844
-0.0109305
-0.00854985
0.000199658
-0.00298608
0.00787078
-0.0106042
-0.0110554
-0.00150231
0.00193615
-0.00198953
0.000835019
0.000313694
0.000329249
-0.433777
-0.00566469
-0.00287859
0.000535226
0.000377556
-0.000437239
0.00134224
0.00024372
5.70571e-05
0.000204632
-0.00661624
-8.62959e-05
-0.0147719
0.000518253
-0.0393086
-0.01059
-0.00380499
-0.0392508
-0.00300979
-0.00231495
0.00324069
-0.00263426
-0.0362461
0.000575828
0.000396372
-0.00749705
-8.82144e-05
0.000234535
0.00119601
-0.00595179
0.000418209
-0.0142041
-0.00423736
-0.16372
-0.000850473
-0.00655373
0.00164194
0.000285946
-0.00257284
-0.0030364
5.9982e-05
-0.0629766
-0.00305281
-0.0091405
0.000218638
-0.00270822
0.000345702
-0.0498519
0.00103201
-0.000223986
0.00182196
-0.00234086
-0.01165
-0.00516213
0.00198644
-0.00563486
0.000538785
-0.00038647
0.000996828
-0.00762294
-0.00511422
-0.00338459
-0.00694701
-0.000379426
0.000500237
-0.135986
-0.00295266
6.34923e-05
-0.0151049
-0.0205243
-0.00336825
-0.0100753
-0.00632109
0.000282897
0.000362114
-0.0025169
-0.000353662
0.0014517
-0.00206448
-0.0026331
-0.00229849
0.00605512
-0.0021232
0.00473611
0.00294168
-0.00198181
-0.0101821
-0.000332092
0.000157807
0.00857655
-0.00017896
0.00208335
-0.000961295
0.0188041
-0.112096
0.000338472
0.00600045
-0.00350269
-0.00269548
-0.00234017
0.00114484
-0.0576267
-0.00574412
-0.00526671
-0.00284485
-0.000305982
-0.00145668
0.00719458
0.00603391
5.61489e-05
0.000293766
-0.0064587
-0.00286391
0.0121337
0.00303738
-0.00655616
0.000263036
0.0214228
-0.00610678
0.0253423
-0.00532296
-0.00252571
-0.00302947
0.000509626
0.000241884
-0.00182602
-0.0912759
-0.00314869
0.0011103
-0.00292295
-0.000540296
0.000876795
0.000307507
-0.00123587
-0.00658163
-0.00489391
0.0130295
0.000651349
-0.0585449
-0.00471276
-0.00655263
-0.187973
-0.00109629
-0.000513061
-9.63772e-05
-0.00204174
0.00197289
-0.00837985
-8.53236e-05
-0.0532554
-0.0128953
0.000184231
-0.000330146
-0.00398654
-0.00339239
0.00622181
0.00022608
0.0120296
0.00187265
-0.0215881
5.82852e-05
-0.00115807
1.10725e-05
0.00835423
2.81613e-05
0.00966063
-0.0658756
0.00216347
0.00150333
-0.00857714
-0.00500812
-0.000186876
0.000566016
0.00464818
-5.13629e-05
-0.00297552
-0.0234223
-0.00281833
-0.00347525
0.0039647
-0.022312
-0.207102
0.00022296
-0.129257
-0.0254527
-0.00049789
0.000241218
0.0035343
-0.00570696
0.0293279
0.00453552
0.0250376
-0.000358829
0.000466588
0.000596416
0.0028854
-0.00263964
0.00182312
-0.00234829
-0.00937573
-0.00183931
-0.0302271
0.000325454
-0.00908033
0.00213716
0.00382962
-0.0713324
-0.00521037
-0.000134898
-0.00547119
0.00073235
7.26593e-06
-0.0100924
-0.082265
-0.00557946
0.00025383
0.000601011
1.36874e-05
-0.00278353
-4.44328e-05
0.004602
0.00284357
-0.00751372
0.0263729
-0.000670372
-0.0758351
-0.00181615
0.00034413
-0.0015247
-0.00249484
0.000508316
-0.000272441
-0.00130401
-0.0430296
-0.0619057
-0.000722405
0.000316537
-4.97639e-05
0.000596372
-0.0328044
0.00449839
-0.129692
-0.00326001
-0.0014097
0.0155933
-0.00379129
0.000984968
-0.00289475
0.000238635
-0.0481835
-0.000399625
-0.0117426
-0.00125963
0.00320403
-0.00574908
0.00421388
0.0252638
-0.00144643
-0.00444826
0.00413257
-0.0435094
-0.0574242
-0.00135013
0.000109904
0.000238802
-0.00100132
-0.00113655
-0.0135104
0.000771418
0.00102542
-0.0661959
-0.0133242
-0.206428
-0.00312331
0.000349977
0.00417021
-0.00394606
-0.000201994
-0.0214925
0.00218804
-0.0180913
0.00301256
-0.000284946
-0.000620262
-0.00105362
-0.0147982
-0.00281938
0.000257188
-0.196213
-0.0106752
-0.00749086
0.0225525
-0.00351907
0.000826212
-0.0609653
0.000598257
-1.69442e-05
-0.0259541
-0.00428657
-0.00258589
-0.000423171
-0.00119709
-0.0167512
-0.00494502
0.000964588
-0.00294473
-0.00041516
-0.092344
0.000876434
-0.00199008
-0.0041109
-0.00373743
-0.00307318
-0.00229716
-0.00172221
-0.00115881
1.35562e-05
-0.00334582
0.000200862
-0.00795055
-0.00611349
-0.000140691
0.000923905
-0.00133426
-0.0155785
-0.000574664
-0.00120234
-0.00087822
-0.000643131
-0.00138067
0.00104746
-0.00326886
0.0211333
-0.000594552
-0.00744264
-0.00477662
0.00393831
0.00109863
4.34143e-05
0.00130056
-0.0123039
-0.00584636
0.00386898
-0.0867105
-0.0691437
0.00573948
-0.000185763
0.000393808
0.00401048
0.00394225
-0.15446
0.000821949
-0.0233011
0.00430085
-0.0646334
-0.00597964
-0.0314237
-0.00619458
-0.103353
-0.00340582
-0.0506464
-0.00414816
-0.00486404
5.75737e-05
-0.00806447
-0.00731893
-0.00305605
-0.000239033
0.00184763
-0.00258768
-0.000848077
6.07767e-05
-0.0017006
-4.72848e-05
-0.0219196
0.00035497
0.000411887
-0.0015423
0.00170662
0.00081669
-0.00813038
-0.0976552
0.00047701
0.00102902
-3.49385e-05
0.0233227
-0.00286807
-0.00292154
0.00622546
0.00103666
-0.00239292
-0.000284153
0.00490049
0.0136467
-0.00369913
-5.55558e-05
-0.00577221
-0.0232368
-0.0105467
-0.00429745
-0.0668398
-0.027962
-0.0875614
-0.000766212
-0.00249288
0.0176545
-0.00306917
0.000802831
0.000960917
-0.000175765
0.00339308
0.000280426
-0.000673241
0.00332234
-0.000172954
-0.001612
0.000933955
-0.0623825
0.00241363
-3.23563e-05
0.00889094
-0.245969
0.00163225
-0.0403834
-0.126615
-0.00207245
-0.00528331
0.0013755
0.00353057
-0.0188693
-0.000434226
0.00173142
-0.0209154
-0.00424287
0.000493145
0.000866048
0.000118788
0.0150947
-0.00229864
0.00363326
-0.00206221
-0.0961931
-0.0031088
-0.195447
-0.0196615
-0.00779855
-0.198463
-0.000325202
-6.23569e-05
-0.00015197
-0.000623276
-0.0560117
0.000207304
-0.0036765
-0.0146668
-0.000225103
0.00112846
0.00100701
-0.00264444
-0.0243643
0.000353806
0.00201775
-0.098538
-0.0116941
0.00216102
-0.00304107
0.000314876
-0.220087
0.00167962
-0.000896108
0.00234187
-0.0370112
-0.192291
-0.00030814
0.000398957
0.000318345
0.000607824
0.000928732
-0.00171539
-0.00618036
-0.00565813
-0.000109235
0.00687885
0.000120223
0.00480737
-0.00279958
-7.05793e-05
-0.000295796
0.00495617
0.000334394
2.16139e-05
-0.261773
-0.00116401
-0.00132272
-0.000175311
-0.108341
-0.00170654
-6.25787e-05
0.000251873
0.00253032
-0.00781414
0.00933474
9.08961e-05
0.000356757
0.00161803
-2.83279e-05
0.00179374
-0.0378385
0.0023457
-0.07163
-0.00168476
0.00137229
0.000203695
0.0054379
-0.00153548
0.00570749
-0.000725254
-0.00102718
-0.0620487
-0.0040845
-0.0332288
-0.00196538
0.000234418
-0.00157763
0.000579894
-5.63006e-05
0.000253745
-0.000321235
5.06596e-05
-0.16389
0.000341222
0.000311188
0.00726433
-0.000264476
0.000814523
-0.00691951
-0.00230818
-0.00276121
-0.0440159
0.0014099
-0.000295614
-0.0104894
-0.00396322
-0.00121105
-0.072068
-0.0613442
-0.00136571
0.000560026
0.00169174
-0.00336309
-0.000848915
0.000184233
-0.0026736
0.00871846
-0.000276771
-0.000112288
-0.00177764
0.000568298
-0.0211927
-0.00325769
-0.00441755
-0.000680921
-0.00211845
0.000355583
-0.00138222
-0.188642
0.00158054
0.000352377
-0.000161093
0.00203804
0.0010647
0.00216218
0.00787102
-0.00080614
-0.00456663
0.00211685
0.00153036
-0.00579748
0.000140056
-0.000959556
0.000423819
-0.275104
-0.00825735
-0.253548
0.00644286
-0.00104003
-0.0413161
-0.126244
-0.00245299
-0.0130188
-0.00133728
0.00199947
-0.000432008
-0.028233
-4.93677e-06
0.00204565
0.00328489
-0.000393788
-0.00437257
-0.0608788
0.000336715
0.0245739
-0.039998
-0.00671391
-0.000868408
-0.259077
-0.00319521
-0.00454384
0.000221407
-0.0209014
0.00614255
-0.00545972
-0.00330334
0.000550887
-0.00613593
-0.0668204
-0.0472301
-0.0144779
-0.0533671
-0.000269212
-0.0017045
-0.00791967
-0.0156023
-0.00442666
0.000101446
-0.000129494
-0.000852145
-0.0257953
0.00203952
0.000233846
-0.00465874
0.000512876
0.00054609
0.000207232
-0.000550271
-0.0041464
-0.0371966
-0.000902756
-0.0464607
0.000239857
-0.00530644
0.000202754
0.000786078
-0.00224905
-0.00153639
-0.00144789
0.000357398
-0.0032289
0.0112036
0.000287815
-0.00217304
-0.00119536
0.0025897
0.00105455
-0.000295567
-0.00358527
-0.000204995
-0.0524673
-0.000117876
-7.66263e-05
-0.00221617
-0.0122136
0.00055858
-0.0133076
0.00065965
-0.000934669
0.0005133
0.00461009
0.00377041
-0.0176175
-0.201493
-0.000779359
0.00270184
0.00481555
0.00118116
-0.00114729
0.000389789
0.0029624
0.00414354
-0.0947196
-0.215012
0.00473155
-7.0648e-05
0.000834424
-0.00243138
0.00646112
0.000458569
-0.00680278
-0.00835261
0.000186196
-0.0108919
-0.00895818
-0.001007
0.00704385
0.00317831
-0.12809
-0.00110876
0.000458008
-0.00154633
-0.000647605
-0.00545324
0.000258259
0.00022315
0.00321328
-0.000241972
-0.041944
-0.0174833
-0.000686534
0.00104687
0.000253238
-0.00194384
0.000211848
-0.000948408
-0.00369621
-0.0110602
-0.0038369
-0.00171094
0.00516022
-0.00161361
-0.00501418
-0.00205811
-0.0146816
0.00526166
0.000768542
0.00102577
0.00193146
-0.00102388
0.000646288
-0.0433434
-0.0148616
0.000221975
0.000990767
-0.000252931
-0.00436089
-0.366336
0.000853673
-0.00659651
-9.62237e-05
0.000221535
-0.000103122
0.00819487
-3.08633e-05
0.000536515
0.000132601
-0.00958586
0.000324037
0.00302301
-0.0111878
-0.000208361
0.000258684
0.000972854
0.000892479
0.000805835
0.00629378
-0.00486736
-0.009596
0.000533072
-0.00128525
0.000388511
-0.0288358
0.000345724
0.00053889
-9.21238e-05
0.000989281
2.14874e-05
0.000146105
0.000354237
-0.00027979
-0.00172435
-0.0153484
0.000634619
-0.00086303
0.00655945
0.00175324
0.00286701
-0.000443214
0.000752294
-3.44065e-06
0.000842749
-0.000236861
-0.000430459
0.000403896
-0.00817307
0.000809407
-0.0189353
0.0118685
-0.00157138
-0.000721017
0.00338713
-0.144402
-0.000917353
-0.0529711
0.00119673
0.000682045
-0.00386637
0.000397569
-0.0118406
-0.002825
-0.0520192
-0.00234961
0.000398335
0.000261367
0.0228918
-0.00622543
-0.0138295
-0.041431
-0.42356
0.00607919
-0.00397116
-0.00105458
0.00491711
0.00050274
-0.000504762
0.0023629
-0.00476133
-0.00461469
-0.0271224
0.000601338
-0.200127
-0.00163145
-0.00530449
0.000347492
0.000249667
0.00318029
0.00246337
-0.0275361
-0.0921106
0.00154255
-0.000107791
0.00110398
0.000441915
0.0163121
-0.0021065
0.000137284
0.00200682
0.000374372
-0.000740609
-0.000999584
-0.000128139
0.0065533
0.00356946
0.00386279
-0.000381656
-0.0164856
0.000435579
-0.00430878
-0.00132958
0.000256064
0.0030505
-0.000630825
0.00128547
-0.000117147
-0.000201903
0.00276796
-0.0114146
0.00278022
0.000603296
-0.000141527
-0.0202323