/*--------------------------------*- C++ -*----------------------------------*\
| =========                 |                                                 |
| \\      /  F ield         | OpenFOAM: The Open Source CFD Toolbox           |
|  \\    /   O peration     | Version:  v2012                                 |
|   \\  /    A nd           | Website:  www.openfoam.com                      |
|    \\/     M anipulation  |                                                 |
\*---------------------------------------------------------------------------*/
FoamFile
{
    version     2.0;
    format      ascii;
    class       volScalarField;
    location    "50";
    object      k_0;
}
// * * * * * * * * * * * * * * * * * * * * * * * * * * * * * * * * * * * * * //

dimensions      [0 2 -2 0 0 0 0];


internalField   nonuniform List<scalar> 
9793
(
0.000223751
0.000138064
0.000230758
0.000140989
0.00141115
0.000152613
0.000150301
0.000139381
0.000146219
0.00291614
0.000183814
0.000797535
0.000141485
0.000142069
0.000166751
0.000141396
0.000184888
0.00019631
0.0249147
0.000141991
0.0146659
0.000151418
0.00662434
0.00013815
0.000155557
0.000142453
0.000141738
0.000156256
0.000177323
0.000146083
0.000179001
0.00678323
0.000462368
0.000154036
0.000182027
0.0336034
0.000158023
0.000151229
0.000140587
0.000148944
0.000178789
0.000167501
0.000151948
0.000152514
0.000152008
0.000144348
0.000179922
0.000414037
0.000239736
0.000140725
0.000183366
0.00018812
0.000152356
0.000146289
0.000236774
0.023238
0.000144187
0.000199319
0.00110107
0.000140383
0.000153328
0.000151217
0.000310159
0.000148773
0.000409344
0.000533211
0.000305271
0.000282074
0.000490925
0.000183862
0.000236039
0.000141283
0.000142301
0.00013779
0.000187981
0.000661974
0.000144171
0.000138078
0.00017968
0.000160468
0.000676802
0.000177908
0.00013806
0.000517662
0.000171776
0.000445339
0.000167257
0.000144171
0.000149668
0.000183009
0.000138045
0.000304941
0.00014345
0.00551063
0.000150218
0.00063047
0.0236999
0.000138056
0.000142707
0.000140984
0.000140736
0.000169951
0.000143184
0.000142686
0.000138182
0.000171725
0.000148969
0.000158928
0.000151135
0.000358043
0.000141668
0.00600735
0.000143936
0.0239658
0.000187937
0.000144254
0.000376958
0.000187249
0.000184503
0.00471581
0.000399492
0.000145119
0.000143411
0.000153986
0.000148278
0.011785
0.000170796
0.000525364
0.000187286
0.000142114
0.000141898
0.000144259
0.000142162
0.000167826
0.000145726
0.000144186
0.000151785
0.000150193
0.000143863
0.000141392
0.000143306
0.000154668
0.000143262
0.000140669
0.000142884
0.000144912
0.000137666
0.000140795
0.000142512
0.000300066
0.0388653
0.000142139
0.0403077
0.00200704
0.000141813
0.000143455
0.000143191
0.000153524
0.000140663
0.000142769
0.000139481
0.000156226
0.00014025
0.0247665
0.000137749
0.024245
0.000475239
0.000158355
0.000141249
0.000153358
0.000144773
0.0118507
0.000137787
0.0117185
0.000148028
0.0286553
0.000144265
0.000137951
0.00014246
0.000160556
0.00708793
0.000150078
0.000140896
0.000154695
0.000624155
0.000142136
0.000205418
0.00014241
0.000143217
0.000140296
0.000148088
0.000143141
0.000243993
0.00845189
0.000287909
0.00016007
0.000736356
0.00015338
0.00584617
0.000141742
0.000145623
0.0295327
0.0249597
0.00014211
0.000144301
0.000138201
0.0286081
0.000140495
0.000166307
0.000150409
0.000165466
0.000237099
0.00024428
0.000146578
0.00209827
0.000142741
0.000155559
0.00044557
0.000138306
0.000553325
0.00020031
0.000143704
0.000148346
0.000143154
0.000576955
0.0278737
0.000152383
0.000141427
0.000200706
0.000178366
0.00013819
0.000138005
0.000150355
0.000142516
0.000175332
0.000394989
0.000143704
0.000143225
0.0171748
0.000165005
0.000166272
0.000142301
0.000142554
0.000540624
0.000142486
0.000142406
0.000139268
0.000153389
0.000143105
0.00015285
0.000146426
0.000154731
0.000186024
0.000173169
0.000141707
0.000152626
0.000144177
0.000155381
0.000155553
0.00014002
0.00135202
0.000142791
0.000185889
0.000148687
0.000159377
0.00013832
0.00013839
0.0001654
0.0269051
0.000148374
0.000140257
0.000139013
0.000159084
0.000143881
0.000138029
0.000138016
0.000142169
0.0155201
0.000143734
0.000173059
0.000152279
0.000138322
0.000161524
0.000147241
0.000170708
0.000143661
0.000146382
0.000157422
0.000142315
0.000144228
0.000143777
0.000381449
0.000149533
0.000159009
0.000141885
0.000167512
0.000148816
0.000158519
0.000142544
0.00209968
0.000141849
0.00645349
0.00046756
0.000163007
0.000153596
0.000140395
0.000160338
0.000155201
0.000150952
0.00564234
0.000147477
0.000140297
0.000155363
0.000146819
0.000145469
0.00017535
0.00047831
0.000143096
0.000157467
0.000150692
0.000141519
0.000137786
0.0286187
0.000137708
0.000138406
0.00170489
0.000149151
0.0015271
0.000193301
0.000139388
0.000152581
0.000192657
0.000161413
0.000162075
0.000189504
0.000139068
0.000150984
0.000145342
0.000147054
0.000158385
0.000246072
0.000142495
0.000141269
0.0014486
0.000165313
0.000141314
0.000138318
0.000149423
0.000139199
0.000146536
0.000148544
0.000143908
0.000146093
0.000169455
0.0130158
0.00014607
0.000170598
0.000138028
0.000170538
0.00024914
0.000206125
0.000172218
0.000149018
0.00018333
0.00940557
0.000155004
0.00141042
0.000168546
0.000142796
0.000401958
0.000162034
0.0372151
0.000143943
0.000177326
0.0337914
0.000160757
0.000141846
0.000408311
0.000157681
0.00013768
0.000152733
0.000145851
0.00241115
0.000142899
0.000149514
0.000147447
0.000151558
0.000141897
0.000146118
0.000151839
0.0131118
0.000147496
0.00502784
0.00280788
0.0131113
0.000178576
0.00013762
0.000146315
0.000145321
0.000248252
0.00235363
0.000142638
0.000148106
0.00909255
0.000139042
0.0230691
0.000143604
0.000152005
0.00013906
0.00016762
0.00014244
0.000158592
0.0198035
0.000140703
0.00686756
0.000189739
0.00014888
0.000184209
0.000161714
0.00014835
0.000145406
0.0339877
0.000143492
0.000145626
0.00018926
0.000145665
0.000155606
0.000149201
0.000139926
0.000161834
0.000142914
0.000145655
0.000139202
0.00651699
0.000143788
0.00661279
0.000153586
0.000260626
0.000159474
0.000158211
0.000156702
0.000147465
0.000566092
0.000153107
0.000249288
0.000140733
0.000145049
0.000149551
0.0107872
0.000184104
0.000240459
0.000236584
0.000152954
0.000142674
0.000188153
0.000161587
0.000166246
0.000138072
0.00874299
0.000146553
0.000176914
0.000177752
0.000143489
0.000184008
0.000143301
0.000142982
0.000158094
0.0218945
0.000158758
0.000629215
0.000143475
0.000161124
0.000137888
0.00015274
0.000142865
0.000177147
0.000189165
0.000155485
0.000171994
0.000139106
0.000144355
0.000157933
0.00040302
0.000143453
0.000142653
0.00044944
0.000158615
0.000148607
0.00034412
0.000248256
0.000146629
0.000150207
0.000149915
0.000157864
0.000145798
0.000153873
0.000150767
0.000155236
0.000144635
0.000141947
0.000137665
0.000190848
0.000143629
0.000663105
0.000169847
0.000141484
0.000149431
0.000178733
0.00314477
0.00015213
0.0117011
0.000139572
0.000142701
0.000182333
0.000143115
0.00016715
0.000794506
0.000158797
0.000141465
0.00793627
0.000158629
0.000140697
0.000145337
0.000180592
0.000140693
0.000140995
0.000142688
0.000140599
0.000437827
0.000175087
0.000168347
0.000150698
0.00014462
0.000142172
0.000145155
0.000141391
0.000142885
0.000749503
0.000211599
0.000139033
0.000189403
0.000291521
0.000144467
0.000189685
0.00017207
0.000141186
0.000185586
0.000524143
0.000143824
0.000219553
0.00013835
0.0266215
0.000156948
0.00578922
0.000141989
0.000142243
0.000180311
0.000138023
0.000187691
0.000375959
0.000957694
0.000367533
0.000168146
0.00863549
0.000166182
0.000166849
0.000163763
0.00018245
0.000892646
0.000145873
0.000293134
0.000138848
0.000195229
0.000160076
0.000148764
0.000141822
0.000230272
0.000138967
0.000144954
0.000150153
0.000151351
0.000159656
0.000142402
0.000142781
0.00014415
0.000143896
0.0311675
0.000140681
0.00852273
0.0190275
0.000140774
0.000159312
0.000162389
0.000148112
0.000143226
0.000146568
0.000160251
0.000156914
0.000149866
0.000151366
0.000142751
0.000185614
0.000148497
0.000155663
0.000146573
0.000149834
0.0148382
0.000143919
0.0354349
0.000156741
0.000152185
0.000142875
0.000139197
0.000191305
0.000195231
0.000142349
0.000163895
0.000137776
0.00014259
0.000162436
0.000141951
0.000151747
0.000140968
0.000148777
0.000156538
0.000145901
0.000151123
0.000150093
0.000165044
0.000158577
0.00014143
0.000142956
0.000141052
0.000138949
0.000144281
0.000138959
0.000141051
0.000143953
0.000138904
0.00016907
0.000147302
0.00015985
0.000143553
0.00029197
0.000141064
0.000139081
0.000182687
0.000138364
0.000148933
0.000233935
0.000155615
0.000155528
0.00014264
0.000199215
0.000139226
0.000180019
0.000366176
0.00221627
0.000528896
0.000148315
0.000143646
0.00995543
0.000201331
0.000139118
0.000137613
0.000286418
0.000286178
0.000143049
0.000182799
0.000143665
0.000143484
0.0213812
0.000142055
0.0132431
0.000192807
0.000190813
0.000141256
0.000152949
0.000148081
0.00022528
0.016839
0.000144268
0.000186836
0.000159252
0.000140903
0.000155988
0.000180565
0.000320944
0.000141756
0.000181176
0.000200254
0.00399023
0.00017172
0.000393103
0.000165463
0.000163075
0.000165191
0.00746756
0.000141076
0.000141859
0.000162886
0.000181108
0.000139007
0.0227784
0.000139146
0.00827184
0.000152263
0.000844931
0.000183844
0.000145365
0.000233639
0.0109474
0.000147974
0.00510733
0.000163432
0.000189852
0.000139079
0.000138267
0.0012022
0.000144958
0.0164437
0.000140992
0.00018424
0.000143184
0.000424302
0.00106955
0.000162833
0.0373459
0.000144265
0.000150478
0.000169642
0.0127211
0.0104883
0.000139004
0.000144065
0.000139108
0.000967077
0.00140894
0.000156598
0.000157214
0.000205129
0.000139118
0.000140883
0.000169719
0.0128374
0.000170185
0.000145694
0.000145925
0.000139907
0.000747072
0.000292046
0.000150473
0.000140815
0.000140406
0.000230064
0.000141951
0.00322951
0.000176632
0.00800854
0.000330057
0.000182575
0.000140077
0.000145434
0.000153217
0.000149519
0.000156248
0.000142289
0.000183151
0.00955867
0.000142419
0.0110796
0.000139838
0.0123349
0.000146954
0.000342876
0.000153952
0.000214369
0.00014213
0.000138964
0.000154317
0.00641267
0.00859024
0.00014495
0.000168654
0.000168984
0.000150162
0.000153614
0.00121485
0.000167206
0.000190077
0.000139932
0.000159818
0.000143659
0.00014114
0.000154802
0.000140649
0.000316794
0.000141778
0.000150886
0.000157312
0.000143018
0.000138896
0.000189549
0.000149574
0.000149274
0.000140243
0.000140981
0.000213639
0.000141136
0.00613112
0.000143017
0.000166623
0.000145905
0.0119554
0.000145962
0.00110388
0.000145862
0.000145297
0.000140022
0.000159445
0.000231845
0.0116961
0.000257947
0.000511795
0.00014498
0.000152804
0.000138035
0.000138851
0.000972355
0.00101334
0.000190501
0.00022022
0.000150342
0.000199213
0.00016041
0.0080831
0.000138031
0.000150417
0.000146098
0.000211704
0.00244462
0.000164817
0.000151816
0.000142175
0.000167514
0.000167228
0.000143904
0.000138972
0.000149794
0.00016423
0.000169495
0.000151536
0.00267115
0.000140184
0.000138937
0.000211985
0.0331567
0.000168022
0.000149881
0.000151529
0.000143405
0.000138825
0.00037335
0.000138826
0.000149922
0.000193198
0.000181297
0.000167417
0.0110216
0.000244477
0.00141847
0.0106151
0.000633119
0.000153391
0.000261633
0.000146323
0.000139828
0.000143762
0.000149962
0.000172615
0.00892899
0.000180847
0.000399486
0.000138973
0.000181416
0.000146827
0.000167943
0.000204536
0.000157564
0.000176486
0.000138982
0.00013888
0.000202149
0.000247318
0.000163193
0.000170732
0.000139109
0.000174805
0.0222278
0.000138825
0.000137831
0.00013778
0.000141093
0.000188009
0.0387515
0.000201767
0.00980568
0.00016765
0.00123427
0.000149025
0.000160886
0.000158893
0.000153945
0.000221502
0.00014222
0.000141485
0.0251555
0.000169642
0.00453429
0.000141652
0.00335969
0.000653418
0.000165226
0.000171944
0.000153213
0.0391272
0.000146282
0.00015621
0.000232978
0.000190743
0.000141787
0.000153218
0.000146121
0.000142198
0.000141115
0.000258488
0.000146436
0.000157208
0.013689
0.000170994
0.00015471
0.000168656
0.00117334
0.00131361
0.000929207
0.000138872
0.000145401
0.000149209
0.000202528
0.000149187
0.000137452
0.000172099
0.000153248
0.0122285
0.000168871
0.000362658
0.000145612
0.000169137
0.000142696
0.000171588
0.000188546
0.000139166
0.00857861
0.00908282
0.000139773
0.00014496
0.000145149
0.000292512
0.0114099
0.000159196
0.000183948
0.000157753
0.000137708
0.0026656
0.000205784
0.000162
0.000143698
0.00544123
0.00971166
0.000141728
0.000144605
0.000138995
0.000146598
0.000145641
0.000155896
0.0350699
0.000143639
0.000160436
0.00884625
0.000147248
0.000142761
0.000153547
0.000341636
0.000145602
0.000197083
0.000803669
0.000147913
0.00013917
0.000148156
0.000140395
0.000149369
0.00106442
0.000812277
0.000152722
0.000694358
0.000168362
0.00015198
0.000143437
0.000191517
0.000148909
0.000146386
0.000174897
0.000175536
0.000154345
0.000159264
0.000155023
0.000138967
0.000156812
0.000142436
0.000204892
0.000145164
0.000141143
0.00871774
0.000141885
0.0113821
0.000168006
0.000140993
0.0128117
0.000194725
0.000165349
0.0136725
0.000140457
0.01348
0.000140974
0.000143626
0.00435648
0.000641026
0.000140724
0.000145085
0.000139474
0.000147019
0.000190853
0.000148401
0.000149001
0.000153396
0.000164917
0.000148942
0.00014387
0.000142427
0.000140649
0.00014206
0.000402376
0.000152733
0.000141922
0.000171981
0.000180906
0.0101904
0.000159184
0.00016565
0.00014489
0.000142602
0.000189074
0.000151076
0.000145218
0.000146207
0.000766091
0.000224047
0.000143529
0.000138922
0.000185392
0.000188
0.000138201
0.00770646
0.000172921
0.000145306
0.00014782
0.000145505
0.000146384
0.000161975
0.000438245
0.000161897
0.000446122
9.22352e-05
0.000174089
0.000138803
0.000143576
0.000139545
0.000139157
0.000224363
0.000141953
0.000222848
0.000185788
0.000139463
0.000148224
0.000185714
0.000143084
0.000147063
0.000143566
0.000149706
0.0132021
0.000139245
0.000145164
0.00119298
0.000154273
0.000146534
0.000211603
0.000142032
0.000146794
0.000142298
0.000144998
0.000138886
0.000142791
0.000219008
0.00022303
0.000138834
0.000144082
0.000138985
0.000209805
0.000141024
0.000153634
0.00014335
0.000139598
0.00021623
0.000141827
0.000162331
0.000143998
0.000141928
0.000151038
0.00565241
0.000147202
0.000145886
0.000140614
0.00959894
0.000218051
0.000143564
0.00651355
0.0107897
0.000150374
0.000152368
0.000772378
0.000153549
0.000886267
0.000176716
0.0114564
0.000142317
0.000169323
0.000204797
0.000142098
0.000152748
0.00690842
0.000143624
0.0279652
0.063741
0.000169439
0.000770355
0.000138794
0.000159522
0.000180123
0.000142518
0.00018935
0.000138899
0.000173234
0.000198141
0.000138764
0.000218828
0.000146793
0.000148921
0.000166356
0.000153869
0.000337695
0.00983606
0.000139316
0.00015467
0.00150431
0.000139054
0.000155546
0.000139626
0.00092111
0.000249291
0.000141847
0.000155145
0.000155935
0.000968431
0.0019
0.000161602
0.000138779
0.000140265
0.00211236
0.012796
0.0101746
0.000150523
0.000150281
0.000157636
0.000139029
0.000153879
0.000167952
0.000150508
0.000140842
0.000168097
0.00825263
0.0152592
0.000140753
0.000244076
0.000152796
0.0141452
0.0188319
0.000180723
0.0135451
0.0101673
0.000138789
0.000205103
0.000206935
0.00403353
0.000150934
0.000143421
0.000210827
0.000310852
0.000178489
0.000156262
0.000149638
0.000200477
0.000141619
0.000156706
0.000155128
0.000142408
0.000187029
0.000143049
0.000143946
0.000138709
0.000138961
0.000146567
0.000143734
0.000149704
0.000156802
0.010299
0.000166208
0.000272048
0.00013974
0.000158205
0.000145975
0.000289422
0.0101904
0.000142232
0.000181126
0.000164905
0.000139816
0.000142984
0.000139376
0.000141856
0.000211689
0.000146499
0.000139406
0.000168947
0.00014051
0.0079665
0.000153033
0.000148031
0.000141706
0.000143624
0.013701
0.000186564
0.00107766
0.00024675
0.00252506
0.000145506
0.000147627
0.000156648
0.000154624
0.000182451
0.00019092
0.00180718
0.000141015
0.00017914
0.000149527
0.000139674
0.00416114
0.000155549
0.0184059
0.0408287
0.000157322
0.000176779
0.000140831
0.000176805
0.000157096
0.000198401
0.00017569
0.000138876
0.055854
0.00184395
0.000147006
0.000151714
0.000148386
0.000255109
0.000181602
0.000147473
0.0132652
0.000139558
0.0105475
0.000167212
0.000162908
0.000149476
0.000147914
0.000225974
0.000141952
0.000356479
0.000155094
0.0001433
0.000139106
0.000214112
0.000149159
0.00673022
0.000154996
0.000166654
0.000155398
0.000196014
0.000152252
0.000143742
0.000149654
0.00014724
0.000141225
0.000142394
0.000148603
0.000166553
0.000141045
0.00015438
0.000916968
0.000194968
0.00014186
0.000183977
0.0001414
0.000219064
0.000142962
0.000148641
0.00014182
0.000200933
0.000140766
0.000139046
0.000143573
0.000193794
0.0276336
0.000144103
0.000164662
0.000147845
0.000149128
0.000635055
0.00018512
0.00014731
0.000147433
0.00014143
0.0041729
0.0311544
0.0206648
0.00014252
0.000218117
0.0001402
0.000139057
0.000188306
0.000148888
0.00017591
0.000143409
0.000143463
0.00355747
0.0450756
0.000154629
0.000145291
0.00014573
0.000174338
0.000138501
0.000144184
0.000171146
0.000145239
0.000142937
0.000148278
0.000165156
0.000138954
0.0122715
0.000174188
0.000167897
0.000153435
0.000143297
0.000152816
0.00889094
0.000143638
0.000142733
0.000145093
0.000141554
0.000144848
0.000140858
0.000230282
0.000211123
0.000146224
0.000150135
0.00014386
0.000169304
0.000150335
0.00020017
0.000149253
0.000641393
0.000143055
0.000147722
0.000168833
0.000196553
0.000145069
0.000962453
0.000144923
0.000145538
0.000137856
0.00121296
0.000152802
0.000142666
0.00142294
0.000147684
0.000144985
0.000141931
0.000143984
0.000143596
0.000149601
0.000156241
0.000375898
0.000146281
0.000191826
0.000243573
0.000153474
0.000210564
0.000145438
0.000153451
0.00014114
0.000141953
0.000140162
0.000143492
0.000137663
0.00020176
0.000139755
0.0123499
0.000244761
0.000142607
0.00414666
0.000141537
0.000170701
0.000150766
0.000141104
0.000188093
0.000145113
0.000156514
0.00015437
0.00020622
0.000192336
0.000148404
0.000140882
0.00014923
0.0231968
0.0130052
0.000169888
0.000158747
0.000144778
0.000144068
0.00297599
0.000146655
0.000163302
0.000143817
0.0133011
0.000144955
0.000169003
0.000145172
0.000147271
0.000169133
0.000164744
0.000167732
0.000149462
0.000148399
0.000158229
0.00033448
0.000178337
0.000141488
0.000156353
0.000195905
0.000153496
0.000175694
0.000146727
0.000147321
0.000143359
0.000105258
8.59756e-05
0.000196915
0.000145008
0.000180262
0.000168774
0.000159549
0.000145358
0.000143392
0.000143473
0.000138975
0.000208329
0.000188904
0.000150402
0.000149257
0.000143696
0.000144818
0.000243624
0.00014386
0.000143884
0.000147686
0.000257815
0.000238593
0.000144615
0.000143712
0.000144859
0.00014682
0.000147943
0.000243196
0.00014502
0.000201942
0.000144707
0.000146267
0.000186518
0.000147137
0.00016662
0.000147469
0.000144526
0.000141782
0.000149941
0.000236144
0.000146709
0.00014894
0.000160197
0.00014566
0.000148627
0.000149202
0.000145905
0.000144637
0.000148478
0.000240506
0.000139158
0.000139636
0.000140487
0.00955233
0.000155165
0.00303345
0.000145451
0.000146324
0.000231346
0.000310577
0.000139248
0.000157737
0.000165422
0.000139871
0.000145319
0.00813211
0.000148439
0.000204692
0.000140987
0.000142847
0.0136461
0.000137898
0.000153536
0.000244586
0.000148746
0.000139
0.000552281
0.000140211
0.000139659
0.000147217
0.000143832
0.000147516
0.000139006
0.000147385
0.000220365
0.000143617
0.000141777
0.000141866
0.000145936
0.000143664
0.0138291
0.0112717
0.00254944
0.000145288
0.000141066
0.000154146
0.000144921
0.000143414
0.000200515
0.000173168
0.000150878
0.000143083
0.0134528
0.000151359
0.0131166
0.000353161
0.000150372
0.000140944
0.000142785
0.000189273
0.0103871
0.000146905
0.000142491
0.000213594
0.000210413
0.000176538
0.00956974
0.000143221
0.000163501
0.000162115
0.000138793
0.000147682
0.00987273
0.00539204
0.0343904
0.000142813
0.000162969
0.000147399
0.000145173
0.000167479
0.000148647
0.00016828
0.00018178
0.000142664
0.000144799
0.000143675
0.000140102
0.000139122
0.000143317
0.000157027
0.000147586
0.000239224
0.000137935
0.000139022
0.000142685
0.000148164
0.000143533
0.000143136
0.000148893
0.000149128
0.000148665
0.000139457
0.000142648
0.000152617
0.00025813
0.00014303
0.000143032
0.0165722
0.000144213
0.000143488
0.000142399
0.000272045
0.000259914
0.00017667
0.000147607
0.0327824
0.000140634
0.00013893
0.000141456
0.000142854
0.000187183
0.000142784
0.000147043
0.000175702
0.00014375
0.00689347
0.000194176
0.000163957
0.000147695
0.013451
0.00016418
0.000145047
0.000141704
0.000149347
0.000146034
0.000143468
0.00780116
0.00014061
0.000171663
0.000142122
0.000148027
0.000284678
0.00014163
0.0174801
0.000193728
0.000143255
0.000278975
0.000142012
0.000148387
0.000142628
0.000147728
0.000138971
0.000143578
0.000143689
0.000144718
0.000228507
0.000145304
0.00014058
0.000148146
0.00013944
0.000142356
0.000142399
0.000144022
0.000141997
0.000142953
0.000143304
0.000143545
0.000142847
0.000148052
0.00571007
0.000149557
0.000148856
0.000209924
0.000147481
0.000138934
0.000137676
0.0001408
0.000167019
0.000143133
0.000146013
0.0106752
0.00014844
0.000141569
0.000149706
0.000234108
0.000145642
0.000138607
0.000346655
0.000138847
0.0191925
0.000145031
0.000304949
0.000154313
0.000150624
0.0350001
0.0131895
0.00014085
0.000141739
0.000139004
0.000155373
0.000197788
0.000149071
0.000360543
0.0135507
0.000143813
0.000547255
0.000207509
0.000138941
0.00014114
0.000169073
0.000167581
0.000143449
0.000141332
0.000138993
0.000164719
0.000164213
0.00016745
0.000163482
0.000165749
8.37449e-05
0.000142042
0.000143849
0.000141991
0.000290656
0.000167219
0.000168502
0.000251834
0.000237649
0.000160857
0.000141593
0.000167719
0.000142559
0.000167251
0.000143396
0.000148767
0.000207656
0.000156357
0.000227982
0.000138953
0.000139196
0.000180208
0.000198267
0.000164994
0.000196323
0.000141905
0.000143326
0.000143269
0.000254343
0.000144
0.000139979
0.000143352
0.000163781
0.0168594
0.000137864
0.000168082
0.000164648
0.00023609
0.000174067
0.000139002
0.000202482
0.000202467
0.000170967
0.000239664
0.000138382
0.000141565
0.000141652
0.000142168
0.000227263
0.00017117
0.000201953
0.000141705
0.000142746
0.000144193
0.000262938
0.000142151
0.000143781
0.000141539
0.000171147
0.000140668
0.000142037
0.000141168
0.000156167
0.0254142
0.000160831
0.000162824
0.000145247
0.000268485
0.000175437
0.000138995
0.000143104
0.00013871
0.0001936
0.000145644
0.000145898
0.000263033
0.000143362
0.000141116
0.000140868
0.000146385
0.000202361
0.000140903
0.000145717
0.00014176
0.000146102
0.000143375
0.000142116
0.000141219
0.000143083
0.000144867
0.00346698
0.000142513
0.000138452
0.000207918
0.000207198
0.000195641
0.000184235
0.000140909
0.0136016
0.000142794
0.000191561
0.000141565
0.000223488
0.000142955
0.00014247
0.000138639
0.000220003
0.000166741
0.000142379
0.00445908
0.000143532
0.000138706
0.00014383
0.000149873
0.000160801
0.00014087
0.000313026
0.00014469
0.00014114
0.000189843
0.000145454
0.000165579
0.000140863
0.000140215
0.000142196
0.0146554
0.000154675
0.00013876
0.00019031
0.000126606
0.000158233
0.000200209
0.000167846
0.000143499
0.000138769
0.000271525
0.000222889
0.000140726
0.00017949
0.000140795
0.000141348
0.00109652
0.000142515
0.0001435
0.0122232
0.000197607
0.000238066
0.000144542
0.000141333
0.000279076
0.000140637
0.000139002
0.00590561
0.000143826
0.000138704
0.0188938
0.00123254
0.000143322
0.000148198
0.000141789
0.000138948
0.000140556
0.000146316
0.000143774
0.000169896
0.000138987
0.000155218
0.000144832
0.000148623
0.000169039
0.0083727
0.000165153
0.000146865
0.000241163
0.000170126
0.000144215
0.000218948
0.000146404
0.000143454
0.00014549
0.000141178
0.00016859
0.000832261
0.000218591
0.000143435
0.000168238
0.0001475
0.000138728
0.000141651
0.00014508
0.000168034
0.000139428
0.000144221
0.000148321
0.000146255
0.000345448
0.000143476
0.000149299
0.000187747
0.0001505
0.000139416
0.000147075
0.00820381
0.000418322
0.000574445
0.000185999
0.0001424
0.000147865
0.000243891
0.0176881
0.000199554
0.00105736
0.00014919
0.00014492
0.000137652
0.000290156
0.000145408
0.00021507
0.000147944
6.24936e-07
0.000233718
0.0182134
0.000147585
0.000141579
0.000188857
0.00014459
0.00014606
0.000141927
0.0128639
0.000143498
0.000144063
0.000143546
0.0191426
0.00014256
0.000142046
0.000142487
0.000140928
0.000141212
0.000214325
0.000148152
0.000140708
0.000146008
0.000164314
0.000115067
0.0021922
0.000143674
0.000143039
0.000149796
0.00014336
0.000141003
0.000141648
0.039371
0.00014357
0.000171413
0.000141831
0.000147077
0.000141118
0.000143919
0.000313337
0.000256869
0.000140752
0.000148806
0.000138322
0.000539202
0.000122251
0.000257413
0.000144545
0.00016438
0.000141807
0.00013873
0.00014248
0.000138908
0.000141532
0.000142676
0.000145854
0.000233205
0.0001388
0.000311161
0.00136367
0.000138949
5.51045e-05
0.00018049
0.000147342
0.000141837
0.000142234
0.000149475
0.000142099
0.000171816
0.00013884
0.000142915
0.0002873
0.000141816
0.000143118
0.00014075
0.000226193
0.000143709
0.000143564
0.00499912
0.000138816
0.000138486
0.000142383
0.000254519
0.000142744
0.000138424
0.000141724
0.000138848
0.000326237
0.00861576
0.000141451
0.000142148
0.000138748
0.000143145
0.00016948
0.000931227
0.00779182
0.000138838
0.000163312
0.000143306
0.000142211
0.000142657
0.000141644
0.00013832
0.000161047
0.00014417
0.000147464
0.000140988
0.00014056
0.000141941
0.000165782
0.000160047
0.00562866
0.000144187
0.000152058
0.0128721
0.000142014
0.000169119
0.00024956
0.0351514
0.000143746
0.000140723
0.000160029
0.000143248
0.000140802
0.000138932
0.000141756
0.0133116
0.000286708
0.000148298
0.000167889
0.000138457
0.000138904
7.40724e-05
0.00929963
0.000156384
0.000156039
0.000142204
0.000153914
0.000139153
0.000139455
0.000138764
0.000140741
0.000138863
0.000138339
0.000138504
0.000141999
0.0130907
0.000146024
0.000753216
0.000552108
0.000192817
0.000309863
0.000138729
0.000143549
0.000151425
0.00030801
0.000142069
0.00025737
0.000149636
0.000138852
0.000140462
0.000138744
0.000140482
0.000311691
0.000149309
0.000141424
0.000140212
0.000147141
0.000197668
0.000141315
0.000143737
0.000138656
0.000189193
0.00022555
0.000144184
0.000151614
0.00013855
0.00014221
0.000139973
0.00725658
0.000141303
0.000138933
0.000205169
0.000138595
0.000139996
0.000143906
0.000141988
0.000143648
0.000278436
0.000141014
0.000140176
0.0184327
0.000776307
0.00109215
0.000148726
0.000138674
0.000181418
0.000265513
0.000672326
0.000235512
0.00016224
0.000164669
0.0001457
0.000142931
0.000168164
0.000146951
0.000143056
0.000141176
0.000114195
0.000168753
0.00014042
0.000139017
0.000145425
0.000138438
0.000150656
0.00022573
0.00024858
0.000363829
0.000253902
0.00024542
0.00305327
0.000139438
0.000140558
0.000148305
0.000171311
0.00014229
0.000149907
0.000140259
0.000141385
0.000142011
0.00018222
0.000144202
0.00924671
0.000142705
0.000140339
0.00827338
0.00017772
0.000150444
0.000140375
0.000139839
0.00286054
0.00013936
0.000145164
0.000139723
0.000161774
0.000140519
0.000142573
0.000141212
0.000213934
0.000140806
0.000139775
0.000205051
0.000141937
0.000196227
0.000169116
0.000141487
0.00014337
0.000139386
0.00529841
0.0109483
0.00511943
0.000169572
0.00015317
0.000147232
0.000142577
0.000537217
0.000139905
0.000254749
0.00901328
0.000149233
0.000197633
0.000138284
0.000140126
0.000311858
0.000191905
0.00135902
0.000167412
0.000139352
0.000139593
0.000147197
0.000141543
0.000658529
0.00731481
0.000602163
0.000143775
0.000140593
0.000139811
0.000218755
0.000184206
0.00811697
0.000140009
0.000147285
0.00124577
0.000141868
0.000205579
0.00354945
0.000140049
0.000145247
0.000138761
0.000144812
0.00015087
0.0335972
0.000139863
0.000141838
0.000139768
0.000138567
0.000141906
0.000153891
0.000226082
0.000210397
0.031237
0.000257054
0.00206827
0.000142545
0.000160729
0.000145791
0.000142296
0.000151913
0.000141654
0.000141934
0.000142897
0.00386621
0.000144653
0.000139227
0.000174536
0.000138946
0.00014255
0.00558824
0.00384381
0.000138905
0.000139507
0.000182251
0.00970713
0.000186537
0.00041602
0.000140107
0.00513248
0.000140651
0.000158991
0.000222582
0.0238737
0.0126342
0.000136178
0.00772736
0.000141834
0.000276512
0.000138672
0.000140892
0.000140208
0.000143583
0.00593767
0.000139173
0.000185069
0.000138968
0.000163199
0.000145639
0.0089688
0.000143034
0.000137591
0.000169113
0.000194949
0.000170245
0.000153073
0.000328756
0.000138888
0.000177207
0.000143206
0.000375992
0.000146653
0.000207067
0.0121814
0.000235225
0.00837371
0.000139365
0.00031695
0.000169682
0.000230493
0.000144042
0.000265909
0.000147665
0.000140059
0.000142274
0.000142357
0.000144919
0.00102873
0.0119235
0.000173107
0.00599477
0.000139568
0.000138884
0.000286033
0.000187564
0.000171691
0.0116702
0.000140339
0.000139349
0.00815882
0.00018236
0.000139181
0.00937456
0.000149483
0.00013924
0.000156756
0.000138956
0.000243131
0.00841796
0.000141234
0.00813052
0.000139387
0.000138758
0.000147013
0.000139161
0.000215073
0.00016849
0.00014896
0.000142431
0.012143
0.000171911
0.00014716
0.000140459
0.0112895
0.000142592
0.000138727
0.000220368
0.000170543
0.000524295
0.000139433
0.00152953
0.000142894
0.000170344
0.0122975
0.000161435
0.00998081
0.000141073
0.00013897
0.000139706
0.000139614
0.000139471
0.000140127
0.000138904
0.0044242
0.00016944
0.000141109
0.0128133
0.000140127
0.00014978
0.00013874
0.0120299
0.000155096
0.000149739
0.0109825
0.0110675
0.000140089
0.000138876
0.00704261
0.000143511
0.000388812
0.0201786
0.00014968
0.00014683
0.000179326
0.00809077
0.0135881
0.000139372
0.000138543
0.000156978
0.000192948
0.000152441
0.013474
0.0101711
0.000208416
0.000147443
0.000211259
0.0001482
0.00771833
0.0119904
0.00014017
0.0029899
0.00696496
0.000142747
0.000140352
0.000140412
0.000140172
0.000138439
0.000141227
0.00013897
0.000181158
0.0107676
0.000161862
0.000163246
0.000152825
0.000155882
0.000138883
0.000138787
0.000231998
0.000151964
0.000187058
0.000138614
0.000160959
0.000140146
0.000139021
0.0136089
0.000143319
0.000141205
0.0133058
0.0110506
0.0127698
0.000140064
0.0163486
0.000144957
0.0189405
0.0125175
0.000153066
0.0115683
0.000138733
0.00014094
0.000311884
0.000139588
0.000185304
0.00770658
0.0135372