/*--------------------------------*- C++ -*----------------------------------*\
| =========                 |                                                 |
| \\      /  F ield         | OpenFOAM: The Open Source CFD Toolbox           |
|  \\    /   O peration     | Version:  v2012                                 |
|   \\  /    A nd           | Website:  www.openfoam.com                      |
|    \\/     M anipulation  |                                                 |
\*---------------------------------------------------------------------------*/
FoamFile
{
    version     2.0;
    format      ascii;
    class       volVectorField;
    location    "50";
    object      U_0;
}
// * * * * * * * * * * * * * * * * * * * * * * * * * * * * * * * * * * * * * //

dimensions      [0 1 -1 0 0 0 0];


internalField   nonuniform List<vector> 
9793
(
(0.890777 -0.0475605 -5.64813e-21)
(0.998283 -0.000224473 2.23058e-25)
(0.882505 -0.0348483 1.30378e-20)
(1.01409 -0.000359925 0)
(0.769267 -0.288232 -9.04911e-21)
(1.02325 -0.00805793 -1.37363e-21)
(1.01326 -0.000134436 1.18617e-22)
(1.01632 0.00181081 -9.5947e-22)
(1.0284 -0.00430291 -2.08247e-21)
(0.771325 -0.272869 7.09884e-21)
(1.05945 -0.121122 4.13054e-21)
(1.0751 -0.0866656 1.92012e-21)
(1.01408 -0.000334137 -2.85984e-22)
(1.00725 -0.0118154 5.9513e-22)
(1.00447 -6.02955e-05 5.95285e-22)
(1.00641 -0.0108096 -4.83942e-22)
(0.995711 -0.0028859 -1.0248e-21)
(0.991898 -0.00291589 0)
(0.614199 0.120628 0)
(1.00654 -0.0115173 0)
(1.08313 0.0625138 6.00061e-21)
(1.01129 -0.0111196 3.60856e-22)
(1.00156 -0.046346 -2.3534e-20)
(1.00014 -0.00116129 -7.93739e-25)
(1.00089 0.00190629 0)
(1.01403 -0.000323669 0)
(1.00472 -0.0104527 4.41692e-22)
(1.00629 -0.00800875 4.68411e-23)
(1.00052 -0.0920404 0)
(1.02777 -0.00436773 1.89814e-21)
(1.04088 -0.0289869 1.88998e-21)
(1.04071 -0.0638194 -7.58142e-21)
(0.953154 -0.153774 -1.96095e-21)
(1.00858 -0.000192129 0)
(0.987442 -0.0952365 0)
(0.899824 0.147127 1.80059e-21)
(1.0111 0.000128268 9.41365e-22)
(1.01142 -0.00974929 -1.31774e-21)
(1.0176 0.00386522 1.27178e-21)
(1.01318 2.45104e-05 0)
(1.03742 -0.029492 -1.60156e-21)
(1.00714 -0.000137711 0)
(1.01274 -0.000278699 -4.6138e-22)
(1.01301 -0.000125106 7.52684e-22)
(1.01203 -0.000272152 0)
(1.01367 -0.000211753 -1.64258e-22)
(0.996821 -0.0971075 0)
(0.986282 -0.0479046 -1.63852e-21)
(1.00592 -0.0772469 2.18363e-22)
(1.01402 -0.000386739 -1.16928e-21)
(0.982814 -0.0997252 0)
(1.04338 -0.129092 -4.33829e-22)
(1.0243 -0.00523241 1.39153e-21)
(1.02354 -0.00876454 -1.06112e-21)
(0.948478 -0.202569 0)
(0.895074 0.0474782 9.83176e-21)
(1.02186 -0.000312368 0)
(1.10956 -0.156203 0)
(1.05493 -0.187604 2.18009e-22)
(1.01759 0.00343054 7.4015e-22)
(1.01176 -0.00017298 -1.38659e-23)
(1.02284 -0.00281215 0)
(1.01889 -0.12008 2.85105e-23)
(1.01466 -0.000439766 2.15171e-21)
(0.813631 -0.337137 1.39947e-20)
(0.964041 -0.153512 0)
(1.01109 -0.117994 -9.63294e-23)
(1.00177 -0.103064 -2.00424e-22)
(1.06814 -0.0781313 1.49347e-21)
(1.0533 -0.117316 0)
(0.937383 -0.196079 -3.331e-21)
(1.00034 -7.42231e-05 0)
(1.01496 -0.00278116 -1.63404e-21)
(0.998434 -0.00116119 -1.1113e-23)
(0.972628 -0.102455 0)
(1.03648 -0.180748 -2.27274e-21)
(1.02208 -0.000950878 0)
(0.999635 -0.00158191 2.4027e-23)
(1.0243 -0.0236464 -1.15215e-22)
(1.00846 -0.0133543 -5.6104e-22)
(0.968155 -0.160447 0)
(1.03264 -0.018139 3.27987e-23)
(0.998303 4.5282e-05 -1.56784e-24)
(1.02232 -0.0571142 0)
(1.03523 -0.0250412 1.90802e-22)
(0.995997 -0.0541437 -2.13754e-21)
(1.00667 -0.0148735 2.84762e-23)
(1.02225 -0.00162366 -1.37385e-24)
(1.02141 -0.00395505 1.27206e-21)
(1.04017 -0.0125378 9.95118e-23)
(0.998181 -0.000202085 -1.0111e-24)
(0.896652 -0.296359 1.03584e-20)
(1.01952 -0.000142209 5.08921e-23)
(1.03884 -0.104415 -5.69413e-21)
(1.02185 -0.00322719 0)
(1.03001 -0.0610615 -1.83953e-22)
(0.941775 0.0381011 0)
(0.998243 -9.14075e-06 -1.40851e-25)
(1.01859 -0.000209345 -2.52063e-22)
(1.01632 -0.0043092 3.59891e-22)
(1.01598 -0.0046593 2.22822e-22)
(1.03842 0.00255176 0)
(1.01276 0.00191217 1.87007e-22)
(1.01278 0.00153483 -3.7232e-22)
(0.999678 -0.00161593 -2.20414e-23)
(1.03213 -0.025017 0)
(1.02069 -0.0041122 -9.59119e-22)
(1.01163 -3.7487e-05 -1.44769e-23)
(1.02308 -0.00521343 -1.28753e-21)
(0.974989 -0.0302228 1.01962e-21)
(1.00024 -9.22457e-05 0)
(1.12276 -0.0355443 -6.28719e-21)
(1.02033 2.63718e-05 -1.50515e-21)
(0.743306 0.16329 6.3853e-22)
(1.03528 -0.12988 -6.3323e-21)
(1.02222 -0.000626546 3.94786e-22)
(0.953989 -0.15388 1.15599e-21)
(0.966613 -0.0966104 0)
(1.03398 -0.0217535 0)
(1.0564 -0.110276 1.30143e-20)
(0.972245 -0.0340123 2.07086e-21)
(0.999805 -2.50824e-05 -2.43223e-23)
(1.01954 -0.00343936 -4.85566e-22)
(1.0242 -0.00890899 1.18488e-21)
(1.02428 -0.0136692 1.37936e-21)
(1.10192 0.0371015 -6.79585e-22)
(1.08741 -0.0724372 1.2661e-20)
(0.999366 -0.0603086 -2.68966e-21)
(1.02422 -0.0274981 -5.49177e-24)
(1.01572 -0.00284292 0)
(1.00033 -0.000179932 -2.732e-23)
(1.02245 -0.001318 1.44904e-24)
(1.01576 -0.00293087 -1.84315e-21)
(1.03293 0.0147703 0)
(1.02728 -0.00359372 -1.05217e-22)
(1.02232 -0.00230517 3.14866e-22)
(1.01398 -0.000333693 -1.10082e-21)
(1.0133 -0.000122507 0)
(1.01998 -3.71067e-05 6.44214e-22)
(1.00473 -0.00150805 -6.21436e-24)
(1.01921 -0.00329944 -3.69139e-23)
(1.00208 0.00499879 0)
(1.01406 -4.22853e-05 -1.155e-21)
(1.01544 -0.00726682 5.77772e-22)
(1.00741 -0.0126292 -5.71194e-22)
(1.00675 -0.0140985 -2.42036e-23)
(0.998672 -0.000936929 0)
(1.01591 -0.00691789 0)
(1.01673 0.00085923 4.15732e-23)
(0.91489 -0.30787 -2.36939e-21)
(0.560767 -0.247274 0)
(1.00042 -0.00020444 -4.72293e-23)
(0.580566 -0.251859 0)
(0.76294 -0.247248 -3.34501e-21)
(1.01608 0.000585173 0)
(0.999966 -4.47073e-05 -4.36356e-24)
(1.00312 -0.000492378 0)
(1.00358 0.00561761 0)
(1.01586 -0.00592506 0)
(1.01417 -2.10199e-05 0)
(1.01665 0.00202639 1.35126e-21)
(1.00538 -0.00638754 7.7031e-22)
(1.0047 -0.00864218 -1.98442e-22)
(0.65842 0.15612 -4.42851e-21)
(0.998533 -0.000979941 -1.18352e-23)
(1.02943 0.0964121 -4.52353e-21)
(0.987633 -0.0541649 0)
(1.00413 -0.03334 -2.91331e-22)
(1.00472 -0.00979734 -3.91911e-22)
(1.03115 0.00180289 -6.19616e-22)
(1.01223 -0.0033404 9.41183e-22)
(0.699186 0.174439 0)
(0.998529 -0.000883073 0)
(0.711743 0.220994 -1.76262e-20)
(1.0256 -0.0127228 1.4345e-21)
(0.641303 0.123709 4.14324e-21)
(1.02256 -0.00199136 2.3423e-22)
(1.00039 -0.0011334 0)
(1.01583 -0.0032558 0)
(1.03055 -0.0539777 3.00508e-21)
(1.20203 -0.228073 2.06252e-20)
(1.03822 -0.0159534 3.3817e-21)
(1.0163 -0.0055211 -3.82614e-22)
(1.00223 0.00286812 1.5255e-21)
(1.01453 -0.220059 -2.42222e-22)
(1.0148 -0.00254519 1.47208e-21)
(1.11128 -0.165415 0)
(1.01566 -0.003144 8.86877e-22)
(1.01878 -0.00377725 2.62586e-23)
(1.00519 -0.00891736 0)
(1.02645 -0.0127872 -1.75829e-21)
(1.01756 -0.000550997 -1.77275e-21)
(0.997991 -0.0799833 8.9421e-22)
(1.11596 -0.0110136 4.30552e-22)
(1.00909 -0.106611 2.11609e-22)
(1.03163 -0.0516096 2.26587e-21)
(0.825698 -0.0335631 0)
(1.02942 -0.00524222 0)
(0.736882 -0.25111 0)
(1.00454 -0.00129519 1.15551e-22)
(1.02675 -0.00364014 1.99777e-22)
(0.700126 0.168978 -8.64693e-22)
(0.826088 0.0937923 -1.04329e-20)
(1.01586 -0.00279744 -4.09779e-22)
(1.0226 -0.00270789 0)
(0.999754 -0.00154495 0)
(0.978536 0.109583 -4.27479e-22)
(1.01006 -0.010344 3.69372e-23)
(1.03038 -0.0214009 0)
(1.02512 -0.0203301 -1.42939e-21)
(1.01277 -0.0620618 1.81111e-21)
(0.992737 -0.0742031 -1.04739e-21)
(1.01134 -0.0816819 0)
(1.02397 -0.00929756 6.54307e-22)
(0.806857 -0.0334302 -6.27379e-21)
(1.00302 -0.000457436 4.02323e-25)
(1.03059 0.00717956 9.47222e-22)
(0.998124 -0.212565 3.72892e-21)
(0.999812 -0.00157885 0)
(1.05575 -0.105882 0)
(0.931666 -0.0923768 0)
(1.02058 -0.00269661 -5.2146e-23)
(1.0252 -0.0138419 -1.04665e-21)
(1.01749 -0.000439103 7.15158e-22)
(1.01412 -0.0632128 3.28492e-21)
(0.679418 0.154735 3.89329e-21)
(1.0235 -0.00702442 2.54063e-22)
(1.01514 0.000830794 -5.22449e-23)
(0.939359 -0.0998223 0)
(1.044 -0.106482 0)
(1.00016 -0.00125481 1.61802e-23)
(1.00024 -0.00116372 -7.69756e-24)
(1.0395 -0.016648 -1.75873e-21)
(1.00412 -0.000965533 0)
(1.07975 -0.0905286 -1.18785e-20)
(1.04767 -0.103944 0)
(1.0196 -0.000395826 -7.59758e-22)
(1.01245 -0.00213641 -1.9601e-21)
(1.01358 -0.00602542 0)
(1.03602 -0.0049779 2.2439e-22)
(1.02779 -0.021323 -5.36403e-22)
(1.00872 -0.0123212 -1.22218e-21)
(1.01196 -0.000967105 1.03483e-21)
(0.955443 -0.158053 -4.45942e-21)
(1.01277 -0.00164459 9.54293e-22)
(1.01731 0.000256996 -4.68373e-23)
(1.01631 0.00155677 1.53673e-21)
(1.00401 0.00767691 1.47389e-21)
(1.01811 0.000503081 9.94252e-23)
(1.00965 -0.000261867 0)
(1.01841 -0.00809872 5.92668e-22)
(1.02557 -0.0339564 2.93004e-21)
(1.0306 -0.122425 0)
(1.08445 -0.0815479 1.83097e-20)
(1.01253 -0.000365011 1.02797e-21)
(1.00991 -0.00427459 -1.0936e-21)
(1.01308 -0.00331854 -4.87268e-22)
(1.02425 -0.0357811 -6.58226e-21)
(1.01945 -0.0129697 0)
(1.01116 -0.00952334 -5.25181e-22)
(0.895474 -0.0105019 0)
(1.01278 -0.0020073 -1.23334e-22)
(1.02226 -0.122446 4.93803e-21)
(1.00624 -0.000403142 -2.64664e-23)
(1.0033 -0.0362704 3.24409e-22)
(0.999996 -0.00142991 2.53323e-24)
(1.00005 -0.00145268 0)
(1.00844 -0.0605733 2.81012e-21)
(0.706443 0.185885 0)
(1.02007 -0.00473664 0)
(1.0118 -0.00947468 3.43386e-22)
(1.00606 -0.00664378 5.38927e-22)
(0.995414 -0.00885343 1.57957e-21)
(1.02117 -0.00247878 0)
(0.998199 -0.000426926 1.0122e-23)
(0.998291 -0.000479341 -1.01148e-23)
(1.01589 -0.00290224 9.49622e-22)
(1.0817 0.015594 -9.16692e-21)
(1.0169 -0.000500975 0)
(1.08894 -0.0777829 -6.10382e-21)
(1.00554 0.00803267 0)
(1.00017 -0.00136886 1.29632e-23)
(1.00995 -0.000179622 0)
(1.01326 -6.19643e-05 0)
(1.09032 -0.0685739 -4.23828e-21)
(1.02045 -0.00287302 2.59388e-22)
(1.01825 -0.0077313 -6.96244e-22)
(1.01127 -0.0370216 0)
(1.01458 -2.63389e-05 0)
(1.02234 -0.00299763 4.7389e-22)
(1.01992 -0.00032146 -7.12603e-22)
(0.955363 -0.151933 -4.46971e-21)
(1.02133 -0.00561268 -1.25362e-21)
(1.01119 -8.86537e-05 -8.38082e-22)
(1.00072 -0.000255725 -4.57273e-23)
(1.03546 0.0128449 -3.92241e-22)
(1.02108 -0.0147 -1.45423e-22)
(1.00966 -0.0383903 2.78674e-21)
(1.01634 -0.000800271 -8.24556e-23)
(0.744494 0.262217 -9.59581e-21)
(1.01553 0.00109489 4.40196e-23)
(0.8577 -0.20461 0)
(0.98032 -0.143195 -2.29686e-21)
(1.00995 9.86414e-05 2.11397e-22)
(1.01237 -0.000314723 -4.43178e-23)
(1.0139 -0.00862198 -6.74717e-22)
(0.992566 -0.00764401 -4.30341e-21)
(1.00688 -0.0231979 3.65296e-22)
(1.00781 0.00971259 0)
(0.866857 -0.199311 0)
(1.01656 -0.000398395 -4.5391e-23)
(1.01335 -0.00860362 -1.64132e-22)
(1.00527 -0.0224553 -3.78917e-22)
(1.01758 -0.00650907 -1.00336e-21)
(1.01983 -0.0075156 -3.42599e-22)
(1.03761 -0.0100491 -1.74472e-23)
(1.00845 -0.0577173 5.46355e-21)
(1.01059 0.00152426 1.11539e-21)
(0.998452 -0.0136935 -5.78486e-22)
(1.02601 -0.0214397 0)
(1.01218 0.00141587 -2.53354e-22)
(0.998429 -0.00105399 1.67591e-23)
(0.716785 -0.00037204 2.97078e-23)
(0.998528 -0.00119005 0)
(0.999913 -0.00154674 1.60776e-23)
(1.22556 -0.237261 2.49881e-20)
(1.01929 -0.0147395 3.18107e-22)
(1.06609 -0.17452 5.38091e-22)
(0.957745 -0.101812 2.01631e-22)
(1.00498 -0.00746045 4.88623e-22)
(1.04962 -0.0209298 0)
(0.951389 -0.0957432 -1.69854e-22)
(1.03537 0.0030052 5.48731e-22)
(1.02646 -0.0183478 5.38408e-22)
(1.05514 -0.134775 -5.37453e-21)
(1.01644 0.00114561 1.0885e-21)
(1.0127 -0.000280711 1.44876e-21)
(1.02621 -0.00324045 2.79614e-22)
(1.00981 -0.000581933 2.90628e-22)
(1.00618 -0.00973341 -9.16664e-23)
(0.855603 -0.0532025 0)
(1.01566 -0.00323508 1.81228e-21)
(1.01244 0.00116019 0)
(0.760635 0.248285 1.67316e-20)
(1.0362 -0.00218766 -3.79384e-22)
(1.00584 -0.0104685 4.82223e-22)
(0.999913 -0.00147577 -1.61586e-23)
(1.01543 -0.0115737 -5.11516e-22)
(1.01658 0.0014004 -9.19805e-22)
(0.838054 -0.0568257 0)
(1.02276 -0.0143414 1.31286e-21)
(1.02028 -0.00484437 4.41014e-22)
(1.01799 -0.00635618 -1.39818e-23)
(1.03885 -0.000415581 0)
(0.835525 0.0408426 -2.61288e-20)
(1.02373 -0.00818787 8.17857e-22)
(1.02637 0.0264155 0)
(1.0003 -0.00118638 1.7071e-23)
(1.02822 -0.0842875 4.78341e-21)
(0.923536 -0.210031 -1.14305e-21)
(1.1017 -0.171002 1.71297e-20)
(1.02755 -0.0874514 0)
(1.01577 -0.010772 6.26641e-22)
(1.03654 0.0202917 1.50114e-21)
(0.769406 -0.0290835 -5.56026e-21)
(1.01151 -0.000141197 1.68033e-23)
(0.899219 -0.021258 0)
(1.03431 -0.0106193 3.47308e-23)
(1.00391 -0.000849884 -1.05113e-22)
(0.978267 -0.153833 0)
(1.02436 -0.0181122 0)
(0.673142 -0.0115171 -3.03945e-21)
(1.02041 -0.00471958 -5.32555e-22)
(1.08031 -0.0961919 -6.13479e-22)
(0.874407 0.164905 -8.41242e-21)
(1.00237 -0.0121247 1.76829e-21)
(1.01468 -0.00221625 -1.03378e-22)
(0.954655 -0.152435 5.27994e-21)
(1.0405 -0.0438254 -3.62667e-21)
(0.998616 -0.00100327 1.76669e-23)
(1.00915 -0.00583388 1.09885e-21)
(1.02437 -0.00735233 2.59909e-22)
(0.976967 -0.269211 1.29186e-20)
(1.01623 -0.000701039 0)
(1.01743 -0.0144131 1.19146e-22)
(1.0039 -0.000301539 -1.65311e-22)
(1.01252 6.81406e-05 1.79988e-22)
(1.00526 -0.0108276 0)
(1.02438 -0.00803974 -8.75677e-22)
(1.01046 -0.0072613 0)
(0.787223 0.0623359 2.46721e-20)
(1.02643 -0.0110003 -1.67156e-21)
(1.07611 -0.476774 0)
(0.97607 -0.143963 -1.04281e-20)
(0.764326 -0.00811442 0)
(1.05043 -0.10493 -8.66221e-21)
(0.998664 -0.00121677 -1.00065e-23)
(1.01241 -0.000362897 0)
(1.02619 -0.00282659 -6.40455e-22)
(0.828257 -0.152975 0)
(0.968435 -0.133306 -3.51525e-21)
(1.00948 -0.0125438 -8.62059e-23)
(1.03403 -0.00866061 -5.03631e-22)
(0.742762 0.209379 -3.01524e-21)
(1.00564 -0.00651758 3.34869e-22)
(0.727551 0.188572 -3.5741e-21)
(1.01248 -0.00255295 3.34945e-21)
(1.01008 -0.00872695 1.34028e-21)
(1.00559 -0.00613133 -1.08948e-23)
(0.999999 -0.0621518 0)
(1.0155 -0.00311052 -1.6013e-21)
(1.04003 -0.0466342 4.01655e-21)
(1.06344 0.046113 4.95476e-22)
(1.01072 -0.0103589 5.64451e-22)
(0.98774 0.00793081 1.45256e-20)
(0.992784 0.0292844 0)
(1.02203 -0.0151671 -1.93899e-21)
(0.989871 0.0250017 0)
(1.03266 -0.00845654 2.39734e-22)
(1.02014 -0.00443952 -1.83102e-22)
(1.00762 -0.0145171 -7.37445e-22)
(0.813216 0.132726 -4.74716e-21)
(1.01689 -0.000526422 0)
(1.01967 -0.00771333 -2.10569e-22)
(1.04782 -0.135913 4.21416e-21)
(1.02492 -0.00645923 0)
(1.01813 -0.0137179 1.19608e-21)
(1.02021 -0.0153823 5.43571e-22)
(1.00466 -0.00814763 4.65717e-23)
(1.02693 -0.0566157 0)
(1.01421 7.20683e-05 -1.22042e-21)
(1.01931 -0.00755784 1.7079e-22)
(1.00483 -0.00513453 5.55341e-22)
(0.842445 0.29313 3.39277e-20)
(1.00671 -0.0131701 -6.35928e-22)
(0.825456 0.321025 -2.43126e-20)
(1.0306 0.00371194 0)
(0.970538 -0.0850221 0)
(1.01052 -3.65843e-06 0)
(1.0334 0.00120792 -5.44974e-22)
(1.01112 -0.00011434 -4.51971e-23)
(1.02577 -0.0107662 7.12781e-22)
(1.02346 -0.190632 -3.31812e-21)
(1.02871 -0.00709253 0)
(0.9096 -0.202669 2.00428e-21)
(1.00526 -0.009489 0)
(1.01191 -0.00356384 0)
(1.01829 -0.0152745 -3.28178e-22)
(0.742548 0.208892 0)
(1.04329 -0.0317244 1.31645e-22)
(0.966766 -0.223988 0)
(0.984355 -0.0748992 1.38717e-22)
(1.02458 -0.00644436 1.15866e-21)
(1.01742 -0.0017418 7.78875e-22)
(1.03401 0.0390738 -1.81695e-21)
(1.02326 -0.0555877 0)
(1.00012 -0.0569572 0)
(0.998322 -0.000134395 1.23973e-25)
(0.8988 0.00062918 -1.46463e-20)
(1.01676 -0.000399734 4.99495e-23)
(0.997164 0.0215496 0)
(1.07424 -0.0995247 -1.14313e-20)
(1.01959 -0.00379096 0)
(1.03834 -0.0157828 -1.07314e-22)
(1.01902 -0.00370674 0)
(1.01318 0.00203219 -3.08011e-23)
(1.01006 -1.08608e-06 7.44308e-23)
(0.745737 0.139231 7.9176e-21)
(1.03661 -0.0474903 3.02263e-21)
(0.983687 -0.227005 -9.56541e-21)
(1.01323 0.00246919 3.18088e-22)
(0.992876 -0.00284912 2.01884e-21)
(1.00041 -0.00107576 -5.3458e-25)
(1.00944 -0.000318847 0)
(1.00175 -8.12695e-05 -2.98236e-23)
(1.03467 -0.0157139 -1.27263e-23)
(1.03884 0.0350904 1.50691e-21)
(1.03178 0.00545792 -3.94649e-22)
(0.999228 0.0184463 0)
(1.00453 -0.00607814 -2.60684e-22)
(1.0152 -0.000581402 0)
(1.01659 -0.0161291 -3.40583e-22)
(0.97473 -0.0390274 -1.85605e-21)
(1.01441 -1.69731e-05 -9.69246e-22)
(1.0173 -0.00165763 -8.24727e-22)
(0.971709 -0.136759 0)
(1.02337 -0.015701 -2.93914e-22)
(1.02368 -0.0146419 -8.98465e-23)
(1.02531 -0.126811 -3.34363e-23)
(0.980591 -0.084478 1.28267e-21)
(1.00424 -0.000416479 5.15271e-23)
(1.00508 -0.000184106 2.69316e-24)
(1.01635 -0.0147348 -1.22222e-22)
(1.01833 -0.0155553 2.93516e-22)
(1.01918 -0.00772539 0)
(1.01203 -0.00022752 -1.22554e-21)
(1.01502 -0.000511361 -3.65608e-22)
(1.03125 -0.00462988 0)
(1.01283 -0.00359793 -2.39145e-23)
(1.01242 -0.000646647 -1.80534e-21)
(0.998748 -0.000923204 0)
(1.01816 -0.130685 -9.63602e-21)
(1.00348 -0.000539896 -1.01146e-22)
(1.02806 -0.209256 7.73036e-21)
(0.970766 -0.0156512 0)
(1.01762 -0.0020783 -1.79562e-22)
(1.02117 -0.00502447 0)
(1.02731 -0.0223213 3.54205e-23)
(1.12487 -0.0439171 3.84164e-21)
(1.00638 0.00977362 0)
(0.975829 -0.0492362 0)
(1.00506 -0.00789099 -3.88955e-22)
(1.01219 -0.00136699 -1.6081e-23)
(1.04159 -0.114324 1.56696e-21)
(1.0185 -0.00359638 6.43188e-23)
(1.04327 -0.0737593 -2.77916e-21)
(0.986313 -0.166778 0)
(0.995396 -0.0129214 -3.4898e-21)
(1.01757 -0.00265776 -6.29707e-24)
(1.09123 -0.452236 4.11045e-20)
(1.02164 -0.0153915 1.52273e-22)
(1.01465 -0.00408009 3.27604e-22)
(1.00963 -0.00138437 -1.36459e-21)
(1.10887 -0.0959909 1.88597e-20)
(1.01425 0.00339681 1.67607e-21)
(1.01438 -0.00364116 -1.62333e-22)
(1.01664 -0.000785073 4.03207e-22)
(1.01424 0.00309842 1.44371e-21)
(0.959127 -0.153238 0)
(1.08536 -0.0870116 0)
(0.975457 -0.0149124 -3.18352e-21)
(1.02231 -0.00577802 1.24131e-21)
(1.00994 -0.000807539 1.32149e-21)
(1.01149 0.00150853 -2.18644e-21)
(1.02331 -0.00617902 1.31948e-23)
(1.00082 -0.000406509 5.46236e-23)
(1.01667 -0.000687839 4.04841e-22)
(1.10753 -0.0309075 3.39523e-21)
(1.10206 -0.181535 2.90383e-20)
(1.00614 -0.00705978 -5.67093e-22)
(1.02461 0.0301354 8.50759e-23)
(0.825645 -0.172658 -1.02866e-22)
(1.01718 -0.00473896 0)
(0.998544 -0.0275458 -2.83037e-22)
(1.02326 0.0308686 0)
(1.00072 -0.000366013 6.71018e-24)
(1.0596 -0.127421 0)
(0.989178 -0.247749 -8.64542e-23)
(1.021 -0.00272146 -4.7501e-22)
(1.16957 -0.160995 3.44251e-20)
(1.00021 -0.00142055 2.0262e-23)
(0.80083 0.128706 -1.57597e-20)
(1.01473 -0.0368159 0)
(0.92563 -0.236954 -3.94251e-21)
(1.01483 -0.00245625 3.72379e-22)
(1.0121 -0.000617201 0)
(0.997381 -0.00623864 -1.16004e-21)
(0.997988 -9.00568e-05 -1.80544e-24)
(1.03545 0.0233631 -1.33797e-21)
(1.02556 -0.136768 0)
(0.961289 -0.168833 8.14874e-22)
(0.852402 -0.345575 9.5865e-21)
(1.04235 -0.0771865 3.40853e-21)
(0.998948 -0.0712353 0)
(0.995925 -0.0541853 7.86484e-22)
(1.00692 -8.56107e-05 -1.12384e-21)
(1.05372 -0.0613346 0)
(1.0265 0.0272388 0)
(0.937474 0.000625646 2.16241e-22)
(1.02189 -0.00835633 -2.97435e-22)
(0.953377 -0.0957737 2.76384e-21)
(1.00312 -0.00453747 0)
(0.988541 -0.0211348 1.91814e-22)
(1.01091 -0.000152885 -1.40294e-22)
(1.03766 -0.00927154 2.90072e-21)
(1.01182 0.00121675 2.08505e-21)
(1.16374 -0.177204 3.55258e-20)
(1.0036 -0.00519444 2.78692e-22)
(1.00618 -0.000773868 0)
(1.03411 -0.0183246 0)
(1.02235 -0.0226821 0)
(1.03589 -0.0504771 3.55169e-21)
(1.01515 -0.00292421 -1.05241e-21)
(1.01774 -0.00308816 0)
(1.01711 -0.0046611 -9.20414e-22)
(1.01691 -0.00448575 1.0147e-21)
(0.600851 0.0733978 1.95413e-21)
(1.01399 -0.000482525 0)
(0.942194 -0.0612228 2.78182e-20)
(0.710691 0.212295 4.18345e-21)
(1.01403 -0.000459123 -4.2779e-22)
(1.01131 -0.000118044 2.92788e-22)
(0.989581 -0.0017612 -2.91372e-21)
(1.03337 -0.00938656 6.6676e-22)
(1.01898 -0.00340819 0)
(1.01783 -0.00720575 7.62569e-22)
(1.00421 -0.0133396 1.7011e-21)
(1.01677 -0.0384106 0)
(1.04048 -0.0134697 9.41847e-22)
(1.02359 -0.0233689 0)
(1.01371 -0.00223147 0)
(1.03082 -0.0239285 0)
(1.01674 -0.0107624 -2.31122e-22)
(1.02116 -0.0357038 0)
(1.01776 -0.00634204 9.57654e-22)
(1.01444 -0.0117012 0)
(0.764121 0.135193 2.14241e-20)
(1.01762 -0.00497195 -1.08068e-21)
(0.772264 0.125387 0)
(1.04415 -0.0397854 3.83681e-21)
(1.01298 -9.00013e-05 -7.04476e-22)
(1.01798 -0.00324066 9.68424e-24)
(1.01775 0.000591147 -5.36279e-22)
(1.04591 0.0119926 -2.38624e-22)
(1.04804 0.0159984 1.49824e-22)
(1.01253 -0.0013216 0)
(1.02452 0.00833959 0)
(1.00034 -0.000969052 0)
(1.01105 0.00121298 0)
(1.02596 0.00704729 -2.87555e-22)
(1.01573 -0.00128794 0)
(1.01239 -0.00285529 0)
(1.00434 -0.00176569 0)
(1.03697 -0.0102711 0)
(1.00903 -0.000171353 0)
(1.02498 -0.00707843 -1.61875e-22)
(1.01372 -0.00297418 0)
(1.04122 -0.0144079 -6.52769e-21)
(1.05333 -0.065494 0)
(1.01046 -3.40544e-05 0)
(1.0131 -0.000716197 -2.36002e-22)
(1.0182 -0.00318642 -6.25384e-22)
(1.01488 -0.00317712 0)
(1.00147 -0.0044099 3.50432e-22)
(1.00312 -0.000381264 0)
(1.00141 -0.004672 -2.53462e-22)
(1.01273 0.0012803 0)
(1.01774 -0.00506148 -2.49597e-22)
(1.00333 -0.00502128 2.61477e-22)
(1.00922 -0.0713694 4.47492e-21)
(1.01239 -0.000343551 1.27738e-22)
(1.01054 -0.000200259 -5.81714e-22)
(1.02 -0.00339115 1.27264e-21)
(0.948521 -0.0839048 7.09704e-22)
(1.01427 -0.0010299 -1.63249e-21)
(1.00522 -0.00599522 0)
(1.06748 -0.114932 -4.99767e-21)
(1.0003 -0.0014148 -7.00246e-23)
(1.01419 -0.00752227 7.82701e-22)
(1.16603 -0.183618 -6.16863e-20)
(1.0013 7.17655e-05 0)
(1.01138 -8.51554e-05 0)
(1.00175 -9.93199e-05 2.93136e-23)
(1.11631 -0.150028 0)
(1.01759 0.000863474 1.16718e-21)
(1.07434 -0.105876 -6.91202e-21)
(0.835007 -0.332775 -9.10422e-21)
(1.01393 -0.17858 8.6038e-22)
(0.981305 -0.147608 1.16771e-21)
(1.01435 -0.00695246 3.52137e-22)
(1.02016 -0.00387802 1.25294e-22)
(0.823346 -0.0478181 0)
(0.999333 0.0157368 -7.46422e-22)
(1.00484 -0.00548471 -2.88439e-22)
(0.998664 -0.00112199 0)
(0.965644 -0.0961194 0)
(0.842535 -0.203441 -1.84969e-22)
(1.01846 -0.00333782 7.95923e-24)
(1.11043 -0.103131 -1.71495e-20)
(1.02023 -0.00371114 0)
(1.0197 -0.00329035 -1.28226e-21)
(0.734228 0.16142 1.40218e-20)
(1.01587 -0.0013031 0)
(1.01871 0.200002 -4.20087e-21)
(1.03439 -0.0149051 0)
(1.00959 -0.129702 -1.18994e-21)
(1.01314 -0.000496751 0)
(1.01402 -0.0229402 5.14099e-22)
(1.01705 -0.0100577 -2.03885e-22)
(1.17113 -0.168731 -4.0251e-20)
(0.953717 -0.014805 0)
(1.01206 -0.0028166 -1.05681e-21)
(1.03374 -0.0122101 0)
(1.06051 -0.0428638 7.80537e-22)
(1.01289 0.00104968 0)
(1.02096 -0.0135193 0)
(1.06767 -0.108763 -6.10632e-21)
(1.17746 -0.264905 -7.05675e-20)
(1.01452 -0.00207249 1.03897e-22)
(0.99753 -0.0252901 7.8977e-22)
(0.997307 0.0132872 0)
(0.975029 -0.208608 1.41539e-20)
(0.998694 -0.0234908 0)
(0.9594 -0.151876 -8.34863e-21)
(0.991109 -0.0120283 5.52138e-22)
(1.01327 -0.0169418 0)
(1.03889 -0.00860718 0)
(0.819605 -0.182892 0)
(1.01427 -0.00107994 1.60636e-21)
(1.01559 -0.00140852 -6.68221e-22)
(1.0099 8.05012e-05 4.15934e-22)
(1.01506 -0.0252712 0)
(1.0039 -0.0050216 -2.66347e-22)
(0.790529 0.102407 -8.53834e-21)
(1.00451 -0.0049841 2.71575e-22)
(0.967424 0.0367245 -1.87668e-20)
(1.04755 -0.0201588 0)
(1.00127 -0.0785263 2.45978e-22)
(1.04618 -0.120241 0)
(1.02381 -0.00646404 0)
(0.977612 -0.212827 8.90896e-23)
(0.756041 0.365233 -2.08494e-21)
(1.02382 -0.0127114 -1.41896e-21)
(0.955845 -0.26903 -1.26852e-20)
(1.03716 -0.00714314 0)
(1.11323 -0.125321 -1.3545e-21)
(1.00418 -0.0051904 2.77821e-22)
(1.00033 -0.00136186 -3.82423e-23)
(0.885837 0.0341521 1.98646e-22)
(1.01672 -0.00472116 -1.05563e-21)
(0.950831 -0.0214651 7.8995e-22)
(1.01436 8.21363e-05 -1.35888e-21)
(0.995466 -0.0119892 2.80425e-22)
(1.01158 -0.00112199 2.29477e-23)
(0.980123 -0.0457295 2.17919e-21)
(0.896824 0.0410477 6.07472e-24)
(1.01132 -0.0166659 3.31226e-22)
(1.02734 -0.282261 4.71801e-20)
(1.01684 -0.000424602 2.9901e-23)
(1.03531 -0.0191541 0)
(1.03343 -0.0803445 5.02264e-21)
(0.746982 0.193999 0)
(0.757405 0.197947 0)
(1.00092 -0.00409196 1.2689e-22)
(1.01112 -0.000974129 3.46534e-22)
(1.00488 -0.00623967 -3.90601e-23)
(1.00093 -0.164356 -8.62361e-22)
(0.763855 0.218665 0)
(1.01389 -0.000352532 1.55445e-21)
(1.02961 -0.00683615 0)
(0.997197 -0.029939 -3.37532e-22)
(1.00451 -0.00570843 3.80684e-22)
(1.01387 -0.000744634 8.0731e-22)
(1.03301 0.0174836 0)
(0.996827 0.19849 2.24103e-21)
(0.995339 -0.0163519 0)
(1.0172 -0.00506559 0)
(1.00997 -0.00071044 -1.4974e-22)
(1.01733 0.00263758 -1.70041e-21)
(0.983988 -0.15852 -2.31334e-21)
(0.843272 -0.183926 1.01769e-22)
(0.996428 -0.0141729 0)
(1.01487 -0.00348149 0)
(1.01412 -5.11642e-05 -1.28708e-21)
(0.934961 -0.0813003 -1.79756e-22)
(1.01572 -0.00142924 0)
(0.947146 -0.243306 6.26128e-21)
(1.00723 -0.0922727 0)
(1.00209 0.0544431 -1.44668e-20)
(0.974516 -0.0247082 -1.10237e-21)
(0.993787 -0.0113552 -5.71573e-22)
(1.01467 0.00238828 1.81286e-21)
(1.02431 -0.00620966 0)
(1.03262 -0.0296762 0)
(1.03322 -0.0161212 0)
(1.01992 -0.037401 0)
(1.01613 -0.000983722 6.49059e-22)
(1.10491 -0.107132 3.46614e-20)
(0.853183 -0.0994152 0)
(1.012 0.00063554 9.9462e-22)
(0.745877 0.349833 -1.64396e-20)
(1.01737 0.00235122 1.93278e-21)
(1.02591 0.245931 0)
(1.02931 -0.00671011 0)
(0.976825 -0.0146938 5.67914e-22)
(1.01311 0.00226174 -1.28845e-21)
(1.00041 -0.0377021 3.20671e-23)
(1.01436 -0.00234005 9.27302e-22)
(0.999678 -0.00400649 3.69353e-23)
(0.99921 -0.017848 -4.4716e-22)
(1.00949 -0.205976 0)
(0.81164 -0.17934 0)
(1.01761 -0.00509035 8.32665e-22)
(0.990753 -0.0567849 7.2752e-22)
(1.00512 0.010693 -1.27708e-21)
(1.01365 -0.0111272 0)
(1.013 -0.023597 -7.27068e-22)
(1.21706 -0.242266 -2.49733e-20)
(1.00932 -0.000177729 0)
(1.10689 -0.129877 2.16743e-20)
(1.01457 0.00205226 -1.58918e-21)
(1.06349 -0.0441801 -8.6046e-21)
(1.01292 -0.00286463 0)
(1.0044 -0.00160338 1.83665e-22)
(1.0098 -0.000215634 -1.33323e-23)
(1.01408 -8.85995e-05 -1.39689e-21)
(0.877265 -0.308785 -8.87921e-21)
(1.01545 -0.0015235 -1.41413e-21)
(1.01474 -0.0164085 1.15867e-22)
(1.01144 1.15447e-05 0)
(1.0004 -0.000127996 9.60744e-23)
(1.00336 -0.00469854 -2.55816e-22)
(0.947779 -0.0702071 2.48629e-21)
(1.0081 -0.000512417 8.70706e-23)
(1.03936 -0.0106251 0)
(1.01448 0.00257647 -1.28895e-21)
(1.0139 -0.000874896 -8.30704e-22)
(0.991027 -0.0144717 4.10734e-23)
(1.01437 -0.00105904 1.33932e-21)
(1.12373 0.0146388 6.13528e-22)
(1.01188 0.000932454 -5.30483e-22)
(0.998023 -0.0217223 -8.59483e-22)
(1.01037 -0.00067955 -1.64326e-22)
(0.99995 0.169799 -1.99813e-21)
(1.00558 -0.000567214 1.43876e-22)
(1.08504 -0.0868104 2.11315e-21)
(1.01813 -0.0064589 4.59151e-23)
(1.01702 -0.00489141 1.23853e-21)
(1.01409 2.54578e-05 1.20195e-21)
(0.981604 -0.0175748 4.83647e-23)
(0.989642 -0.0105315 1.58416e-22)
(0.973472 0.285243 -1.61089e-20)
(1.02635 -0.275985 1.21231e-20)
(0.906741 -0.0934198 -1.69586e-21)
(1.01649 -0.00472183 1.07466e-21)
(1.03117 -0.0281551 -8.55746e-22)
(0.997948 -0.000199155 4.65585e-24)
(1.00253 -0.00509322 -4.73977e-22)
(0.922903 0.0133085 0)
(0.927742 -0.00649767 -7.22617e-22)
(0.941357 -0.0626055 -6.91962e-21)
(0.962669 -0.172632 0)
(1.01439 -0.013795 -1.17807e-23)
(0.987204 -0.0174879 -3.58775e-23)
(1.01443 -0.0185468 -1.52216e-21)
(0.789763 0.344028 0)
(0.9981 -8.20872e-05 -2.99933e-24)
(1.01607 -0.0160542 0)
(1.02169 -0.00880294 1.25963e-22)
(0.986502 -0.0147179 -1.39387e-22)
(0.724997 0.299978 -8.48696e-21)
(1.01265 -0.000207129 -1.1672e-21)
(1.01151 -0.00424181 0)
(1.01611 -0.00108136 -6.01395e-24)
(1.0096 0.0218372 2.91152e-23)
(1.07691 -0.0643295 1.12826e-20)
(1.00294 -0.000375817 -9.79715e-23)
(1.0013 -0.0042238 2.3275e-22)
(1.03433 -0.0168359 0)
(0.996013 -0.0195714 0)
(1.03778 -0.0813589 -1.00368e-20)
(1.0234 -0.00358071 0)
(0.987299 -0.196938 -1.39817e-20)
(1.01406 -9.11407e-06 -1.26743e-21)
(1.00159 -0.00487187 -1.66748e-22)
(0.986175 -0.0218848 0)
(0.768615 0.192794 -3.2916e-22)
(1.08486 -0.0626325 -1.14797e-20)
(1.01522 -0.00033574 -1.18873e-21)
(0.997489 -0.0154281 -1.52607e-22)
(1.01198 -0.00305764 7.12406e-22)
(1.00231 -0.00489401 0)
(0.957497 -0.154326 8.22845e-21)
(1.00284 -0.00466361 0)
(1.01561 -0.0135997 -1.02739e-22)
(0.983125 -0.0176484 -4.09559e-23)
(0.983556 -0.0188311 -8.32433e-26)
(1.01697 -0.0195004 3.2183e-22)
(0.880218 0.330256 0)
(0.950291 -0.221303 -3.7902e-21)
(1.12374 -0.0307696 -1.06514e-21)
(0.812056 -0.0686673 0)
(1.21465 -0.258263 3.87318e-20)
(1.01252 -0.000329459 2.61532e-21)
(1.00245 -0.0938402 1.16312e-22)
(1.01791 -0.00656332 9.99363e-23)
(1.01472 0.00190241 1.7102e-21)
(1.01867 -0.00515315 -3.4817e-22)
(1.00811 -0.00049361 0)
(1.00331 0.0114893 0)
(1.16528 -0.342583 4.4515e-20)
(1.00502 -0.0196318 -1.54325e-22)
(0.964735 -0.148853 5.37345e-21)
(0.999948 -0.00430252 -2.01444e-22)
(0.960852 0.00670656 0)
(1.01755 -0.00695929 9.22275e-22)
(1.08126 -0.0659216 -1.16355e-20)
(1.00875 -0.0354867 -9.30273e-23)
(1.03146 0.00926089 -9.64375e-22)
(1.01155 -0.094947 3.99157e-21)
(1.00002 -0.00453453 4.18915e-23)
(1.00185 -0.00479594 2.13363e-22)
(0.977271 -0.14199 2.29414e-21)
(0.995139 0.0297436 0)
(1.01681 -0.0583148 -5.76962e-21)
(1.00748 -0.0179372 9.80057e-22)
(1.00669 -0.00766004 0)
(0.994934 -0.0138785 1.98946e-22)
(0.7158 0.208991 0)
(0.99904 -0.00372958 1.26795e-22)
(1.00035 -0.00105662 5.47061e-25)
(1.00049 -0.000945326 5.89175e-25)
(1.0032 -0.00932976 1.1001e-22)
(1.0207 -0.0281891 1.0066e-22)
(0.631163 0.0427883 5.07625e-21)
(0.987896 -0.144567 7.10734e-21)
(0.825418 -0.105423 -1.93445e-21)
(1.00423 -0.0644195 0)
(0.908923 -0.00252739 8.9312e-22)
(1.01156 -0.00662252 -1.58934e-21)
(1.0184 0.0140402 2.12306e-21)
(1.03194 -0.00652808 0)
(1.02956 -0.0319621 0)
(0.949422 -0.169331 -2.85093e-21)
(1.01456 -0.00249365 8.833e-22)
(1.01278 -0.000408686 2.62574e-21)
(1.01015 0.115393 0)
(1.01098 -0.0758969 -6.21744e-21)
(1.20819 -0.267651 -9.39203e-21)
(1.0142 -0.00178211 7.54299e-22)
(1.00733 -0.196824 4.56196e-21)
(0.934036 0.0403061 2.25367e-23)
(1.0111 -0.000155452 0)
(1.07398 -0.0825062 1.09013e-20)
(1.04845 -0.0246058 3.69142e-22)
(0.634381 0.00647739 9.02611e-22)
(1.01392 2.63336e-05 -2.54096e-22)
(1.0417 -0.0382575 3.48771e-21)
(0.993656 -0.00897395 0)
(1.05385 0.00209803 4.54941e-23)
(1.01429 -0.00200082 -5.45861e-23)
(0.997682 -0.0164316 -5.01904e-22)
(1.01797 -0.0060582 9.72444e-22)
(1.01412 -0.00266747 0)
(1.0133 -0.000512404 0)
(1.04458 -0.273423 -1.13048e-21)
(1.018 -0.00560914 0)
(1.0619 -0.0341716 0)
(1.13833 0.114894 2.85655e-21)
(1.06923 -0.079946 1.01376e-20)
(1.01123 0.00306577 1.53102e-21)