/*--------------------------------*- C++ -*----------------------------------*\
| =========                 |                                                 |
| \\      /  F ield         | OpenFOAM: The Open Source CFD Toolbox           |
|  \\    /   O peration     | Version:  v2012                                 |
|   \\  /    A nd           | Website:  www.openfoam.com                      |
|    \\/     M anipulation  |                                                 |
\*---------------------------------------------------------------------------*/
FoamFile
{
    version     2.0;
    format      ascii;
    class       volVectorField;
    location    "250";
    object      ddt0(U);
}
// * * * * * * * * * * * * * * * * * * * * * * * * * * * * * * * * * * * * * //

dimensions      [0 1 -2 0 0 0 0];


internalField   nonuniform List<vector> 
9793
(
(0.000327783 -0.000464151 -6.2825e-18)
(-0.109588 0.00508214 -4.78495e-17)
(-0.00269032 -0.000426376 5.30618e-18)
(0.0461431 -0.14265 -8.17619e-18)
(-0.00558467 -0.000512191 8.86408e-19)
(0.0776471 0.0070279 9.49309e-18)
(-0.0224522 0.0173856 5.36744e-17)
(0.0855023 -0.193752 6.04459e-17)
(-0.00123471 -0.000734215 2.27477e-19)
(-0.163344 0.00992768 -9.30994e-20)
(-0.00132968 0.000195801 -3.27743e-18)
(-0.00142372 0.000309964 3.66873e-18)
(0.00159952 -0.000442798 4.50947e-19)
(0.255965 0.488386 4.54077e-17)
(-0.00853499 -0.00053109 -1.98807e-20)
(-0.0028141 -0.00451465 6.87385e-18)
(-0.00526162 -0.00560538 1.8736e-17)
(0.00530414 -0.000560283 -9.68557e-19)
(-0.300758 0.13571 1.57582e-17)
(-0.00820487 0.000153551 -8.96702e-20)
(-0.00191549 4.88824e-05 -5.06901e-20)
(-4.90573e-06 -0.000145072 -2.27573e-18)
(0.0332499 -0.192336 -8.29795e-19)
(0.099675 -0.177713 1.43178e-16)
(0.228314 0.486525 2.75099e-17)
(0.00059999 -0.000487054 -1.50836e-17)
(-0.000183463 3.28077e-05 3.51091e-18)
(0.00158369 -0.000151117 -2.07258e-18)
(-0.00777786 0.000189265 -2.19545e-19)
(-0.019869 -0.0116094 -4.37323e-17)
(0.195894 -0.0320853 -8.79497e-18)
(0.129564 -0.0993493 2.33223e-18)
(-0.00691111 0.000479618 2.18833e-18)
(-0.00195154 -0.00067404 -1.68917e-18)
(-0.00754354 -1.45361e-06 -9.7241e-19)
(-0.00608411 -0.00509548 -1.22634e-18)
(0.00291084 -0.00300479 -7.19683e-19)
(-0.00108864 -0.00109326 7.3861e-18)
(0.163643 0.440638 -5.67814e-18)
(-0.00632856 -0.00212661 9.18762e-19)
(-0.017054 -0.00959119 5.34059e-17)
(0.148329 -0.0511732 4.3218e-17)
(-0.207739 -0.186756 1.23502e-16)
(-0.00140352 -0.000124154 2.27265e-18)
(0.000826347 -0.000691796 -8.43576e-18)
(0.00215332 0.000771484 -2.82321e-18)
(-0.0159508 -0.112175 -2.16676e-17)
(-0.00157198 -0.000237882 -4.7073e-18)
(0.00362792 -3.26694e-05 -3.4681e-18)
(0.00333217 -0.000569595 7.61322e-19)
(-0.00636635 -0.00537759 -1.55812e-17)
(-0.00598512 -6.64622e-07 1.63387e-18)
(-0.00630869 -0.00408992 1.01311e-17)
(-0.00152381 -0.000357568 -1.20213e-18)
(0.00241497 0.00100287 2.22234e-18)
(0.0544384 -0.116909 -1.5615e-17)
(0.00240877 -0.000468313 5.89938e-19)
(-0.035079 0.0107705 8.81787e-18)
(0.00323344 -0.000152438 1.41548e-18)
(7.71721e-06 -0.000121365 -4.56957e-18)
(-0.000208317 -0.00149577 -8.28622e-18)
(0.0234738 0.00534147 8.22704e-18)
(-0.00200187 -0.000660038 -5.38704e-18)
(-0.00332786 -0.0114884 1.472e-17)
(0.0033802 -6.80259e-05 5.72825e-19)
(-0.00105985 -0.000768041 -2.27201e-19)
(-0.000890148 -0.033433 2.09107e-16)
(-0.00600314 -0.00148415 4.8051e-18)
(0.00291819 -0.00305855 -4.12121e-18)
(-0.0236975 0.665791 3.49823e-18)
(-0.000782769 -0.000491898 2.19742e-18)
(-0.00114427 -0.0163343 3.59348e-17)
(0.0356599 -0.210825 5.03211e-17)
(0.298985 -0.153764 3.71147e-18)
(0.066176 0.571111 4.5262e-19)
(-0.000695616 -0.000313919 -1.29645e-18)
(0.00652904 -0.00347762 -2.87822e-18)
(-0.139748 -0.347745 7.65839e-17)
(-0.00107438 -0.000397605 -3.89549e-18)
(-0.00120834 -0.00041118 1.95373e-18)
(0.0067406 -0.00393807 1.58473e-17)
(-0.310463 0.185647 -1.77485e-17)
(-0.00483963 -0.00481276 1.22834e-17)
(-0.00304861 0.000404021 -2.06327e-17)
(0.00236003 -0.00342431 -5.72998e-18)
(-0.0613353 -0.0569522 1.34596e-17)
(-0.00483159 -0.000480604 2.35436e-18)
(-0.0275595 -0.0339081 1.56245e-18)
(0.164122 0.467988 1.15408e-17)
(0.0215939 0.00295337 -2.60666e-17)
(0.0526264 -0.100876 6.5891e-17)
(-0.121435 -0.0884797 5.89e-17)
(-0.113828 -0.0692514 -2.70718e-17)
(-0.01024 -2.75404e-05 1.59988e-17)
(-0.211199 -0.114137 -5.39551e-17)
(0.000598715 2.00859e-05 5.57868e-18)
(-0.00606495 0.538185 -1.05941e-18)
(-0.00801805 -0.00610205 1.32104e-19)
(-0.00646598 -1.36046e-05 -1.13844e-17)
(-0.00319146 -0.000445423 -1.05154e-18)
(0.147724 0.371733 -5.20228e-17)
(-0.00751001 -0.00416407 -1.4002e-17)
(-0.286408 -0.595246 8.15433e-18)
(0.000542487 -0.000676319 3.68497e-18)
(0.00531071 0.378993 -1.25677e-18)
(-0.0729524 -0.33992 2.43342e-16)
(0.302497 -0.0793504 -1.95036e-18)
(-0.00336728 -4.148e-05 -5.22663e-18)
(-0.000596477 -0.000306915 1.30668e-18)
(-0.00273439 -0.000300866 -1.4865e-18)
(-0.00167267 -0.000125858 4.28834e-18)
(0.0440302 -0.159924 2.25181e-17)
(0.000304698 -0.0422802 -7.12401e-17)
(0.316071 0.00544358 -1.82837e-17)
(-0.000422534 -0.000507293 8.27586e-18)
(-0.00496486 0.000141881 -3.45175e-18)
(0.000664575 0.000113633 3.44392e-18)
(0.00501321 0.00069001 -1.85778e-18)
(0.072418 -0.0578942 8.05259e-17)
(0.00088865 0.000764026 -3.32434e-18)
(-0.0229703 0.378203 -2.10446e-18)
(-0.033357 -0.0338591 1.60197e-17)
(-0.102476 0.706506 2.04077e-18)
(-0.0080618 -0.00515987 -1.38114e-17)
(0.00232259 -0.0032403 8.17726e-19)
(0.00162408 0.000756168 1.3906e-18)
(-0.00564245 -0.00841306 -1.96958e-17)
(0.16335 -0.0309836 -1.25149e-16)
(-0.0770234 -0.13969 -1.56829e-17)
(-0.0622956 -0.15594 -4.98826e-18)
(0.00170233 -0.00324575 -6.29099e-18)
(-0.00314117 -0.000553199 -6.0277e-19)
(0.000770827 -0.000464859 1.28387e-17)
(-0.00566096 -0.00127977 -8.75207e-19)
(-0.00433469 -0.00446297 6.65686e-18)
(-0.0513266 0.0159736 1.6733e-17)
(0.104615 0.186805 -7.27625e-19)
(0.000721293 -0.000367336 6.23351e-18)
(-0.000133197 -0.000258235 1.65316e-18)
(-0.00134021 -0.00421169 -4.74004e-17)
(-0.282772 0.202395 2.5803e-17)
(-0.00613604 -0.00469032 -2.49709e-19)
(0.00476522 -0.000780898 -9.18061e-19)
(-0.0182073 -0.0236643 -1.09013e-17)
(-0.0695423 -0.127175 1.07348e-16)
(0.0225322 0.0772637 -2.61398e-17)
(0.00128526 0.000794179 -7.2274e-18)
(-0.0449025 0.667334 -2.31749e-18)
(-0.00212222 -0.000590195 2.09586e-18)
(0.00195667 0.000732587 6.06573e-18)
(-0.00224538 0.000290593 -3.35013e-18)
(0.19876 0.0978592 -1.31258e-16)
(-0.0049813 -0.000135579 9.13075e-18)
(-0.000586062 5.89641e-05 4.46849e-19)
(-0.000878029 0.000361634 1.13891e-19)
(-0.113979 -0.0175668 -8.6986e-17)
(-0.00384747 -0.00592849 -2.25417e-17)
(0.00083157 -0.000655441 2.51456e-19)
(0.166169 -0.113107 2.50849e-18)
(-0.000611227 -1.88697e-05 1.632e-18)
(-0.0251933 -0.0274577 -1.14157e-17)
(-0.00133768 -0.00334372 6.15441e-18)
(-0.00143583 8.14827e-05 1.86352e-19)
(0.0312582 -0.0232478 -1.50807e-17)
(0.00144351 -0.00107471 1.23758e-19)
(-0.200177 -0.346951 1.95839e-17)
(-0.406676 -0.640455 2.2572e-17)
(0.00127045 -0.00132245 -3.06974e-18)
(0.000261185 -7.10833e-05 -1.38903e-19)
(0.00173628 -4.22281e-05 -1.92887e-19)
(0.0022049 -0.000661705 9.33707e-19)
(0.141626 0.063621 1.63855e-17)
(0.518537 -0.181753 -2.67877e-17)
(0.158588 0.357374 4.10868e-18)
(0.00162183 -0.000323088 -3.42723e-18)
(0.0643699 0.0149898 -1.10695e-17)
(0.012547 0.0344829 1.0277e-17)
(0.0405918 -0.0310155 4.19232e-17)
(-0.000904207 -0.000664466 3.43649e-18)
(-0.00506591 -0.00185098 -4.33041e-18)
(-0.0302799 0.323924 -1.86335e-19)
(-0.065134 -0.103367 -6.06441e-17)
(-0.0373504 -0.0397537 -8.89544e-18)
(0.00262302 0.000796881 -3.90611e-18)
(0.00302071 0.000371337 -3.01819e-19)
(-0.00140714 -3.59475e-05 1.87271e-18)
(-0.122406 0.657952 9.16075e-19)
(0.0558227 -0.17999 -1.12582e-16)
(0.361041 -0.0541131 -5.88822e-17)
(-0.24135 -0.651762 -2.38158e-17)
(-0.00162908 -0.000780575 -8.81701e-21)
(-0.0712801 -0.322296 -2.46346e-17)
(0.00781097 -0.0294175 1.47478e-17)
(0.000212304 -0.0011272 -1.00277e-17)
(0.000141077 0.000472501 2.63116e-18)
(-0.00147659 0.000121113 1.85526e-17)
(-0.00531748 -0.0372677 2.8506e-17)
(-0.00104517 0.000104563 2.62454e-20)
(0.00496488 -0.00041566 -3.14498e-18)
(0.00115663 0.000183484 3.29018e-18)
(0.000875225 -0.000646268 -9.32247e-18)
(-0.00271487 -0.000121965 -6.3602e-19)
(-0.00684503 -0.00623545 4.33541e-18)
(-0.00150418 -0.00467843 1.64052e-17)
(0.086831 0.0956002 -1.30893e-17)
(0.00213922 9.7848e-05 7.85934e-18)
(-0.00650908 -0.00161078 8.33814e-18)
(0.00101859 -0.00143093 -1.58228e-21)
(-0.000834192 -0.000222158 -5.34143e-18)
(0.0563775 0.00222722 4.44843e-18)
(-0.00356414 -0.00423379 -1.63011e-17)
(-0.224715 0.18516 -1.84611e-17)
(-0.00388551 -4.82052e-05 -9.76768e-19)
(-0.00727205 0.612392 -1.45798e-18)
(-0.00352142 0.000491612 1.14115e-17)
(0.0217215 -0.0111716 1.57797e-18)
(-0.00706973 -0.00057007 5.26209e-19)
(-0.0525613 0.00840427 7.81946e-19)
(-0.00346894 0.000188565 -9.19607e-18)
(0.00296375 -0.00771948 2.24229e-17)
(-0.00838559 -0.00717697 2.32554e-17)
(-0.00269431 -9.73805e-05 2.58337e-19)
(-0.0225002 -0.0421162 -1.15642e-17)
(0.239258 0.018799 8.74636e-18)
(-0.00960277 0.000626268 -3.37994e-18)
(0.00103701 0.000167668 -3.73515e-18)
(-0.0106965 -0.00295082 -4.67344e-18)
(0.253947 -0.269433 3.0221e-17)
(0.0047203 -0.00597073 4.631e-18)
(0.00610965 -0.00636416 -1.07321e-18)
(0.116411 0.0857883 -9.30247e-18)
(-0.0674674 -0.090139 -7.41929e-18)
(0.0173969 -0.0110839 -5.96472e-18)
(-0.00426925 -0.0123676 -1.97042e-17)
(0.00709325 -0.0282398 8.55755e-17)
(0.00134104 0.00065083 3.5141e-19)
(-0.0680151 -0.331457 1.32061e-17)
(0.260936 0.00865062 -8.88849e-17)
(0.000264451 9.81256e-05 -7.51449e-19)
(-0.00354311 -0.000148973 2.14028e-18)
(0.285633 0.108211 5.94614e-19)
(0.000452587 1.81084e-05 7.11018e-18)
(-0.00153332 -0.00014972 3.29472e-19)
(-0.0591525 0.00617817 -5.57966e-18)
(-0.0576224 0.0275696 1.08561e-17)
(-0.00110057 -0.000805269 3.2599e-19)
(-0.00504932 -0.00216696 -7.14976e-19)
(-0.00601524 -0.0018919 -9.77829e-18)
(0.000780906 0.00628014 1.87503e-17)
(-0.00297685 -0.00278797 7.26857e-18)
(-0.000878708 -0.000606711 1.42577e-18)
(-0.010263 0.00624362 9.80597e-18)
(0.0313955 -0.0143035 6.40569e-17)
(-0.00165316 -7.5148e-05 1.58188e-19)
(0.143505 0.234175 -4.87188e-17)
(-0.00194856 -0.000412568 7.92519e-20)
(0.00624805 0.000366726 -1.64561e-19)
(-0.00824812 -3.19048e-05 5.43561e-19)
(0.0612721 -0.0978474 -6.73112e-17)
(0.0013394 -0.000456604 -2.53222e-18)
(-0.046564 -0.0448129 7.13605e-17)
(0.116057 0.586671 6.18006e-19)
(-0.00308661 2.6472e-05 7.86306e-19)
(-0.000297767 0.000270966 2.09543e-18)
(-0.152529 -0.186304 8.89929e-17)
(-0.00259102 -2.32413e-05 -3.59118e-19)
(-0.0016293 -0.000366276 3.13592e-18)
(-0.00102699 -1.38371e-05 -3.09189e-21)
(0.0641061 0.582845 -3.85327e-19)
(0.0281946 -0.0209571 8.34245e-18)
(0.00195959 -0.000479843 1.21377e-19)
(0.0497186 0.0206361 4.65001e-18)
(-0.0239195 0.0132675 -6.10946e-18)
(-0.347801 -0.68416 -3.17277e-17)
(0.0143056 -0.26264 4.4645e-17)
(-0.000485305 -0.00138475 1.5825e-18)
(-0.302811 -0.646706 -1.84046e-17)
(0.006247 -0.000386608 3.76861e-20)
(0.255782 -0.273797 -2.50331e-17)
(0.0429628 -0.122525 -1.01361e-17)
(0.186967 0.54447 1.10902e-16)
(-0.0191301 0.381506 9.40604e-18)
(-0.070293 -0.0760411 -4.18529e-18)
(0.00199853 -0.00336946 1.78371e-18)
(-0.00589989 -0.00479517 -9.89764e-18)
(-0.000266268 -0.00418993 -1.31556e-17)
(-0.00266771 0.000706737 4.74993e-19)
(0.00153326 -0.00157514 -1.32111e-18)
(0.0520416 0.0076023 -1.14398e-17)
(0.000996282 -0.00027724 2.74849e-17)
(0.000586061 0.000358048 7.1824e-19)
(0.00057238 -4.54555e-05 2.3254e-18)
(-0.00157391 -4.41052e-05 1.34515e-19)
(-0.00901834 5.30092e-05 9.68888e-20)
(-0.00213192 -1.52235e-05 -4.03522e-19)
(0.0246886 -0.223025 7.24526e-19)
(0.00015082 -2.14914e-05 -1.62849e-18)
(-0.00906528 -0.000564593 3.01917e-19)
(-0.0115519 6.69846e-05 3.85341e-20)
(0.000745463 -0.000427578 -4.21877e-19)
(0.00789123 -0.0338965 1.95275e-17)
(0.0154096 0.0814915 -2.42977e-17)
(-0.00376786 -0.0106245 6.21536e-17)
(-0.00145871 -0.000293753 -1.31497e-17)
(-0.0203874 -0.0206597 9.48564e-18)
(-0.0156827 5.85034e-05 -3.60926e-20)
(0.227184 -0.100883 -7.5413e-18)
(0.110484 0.134326 1.41327e-16)
(0.000896559 -0.000595578 4.39747e-18)
(0.116867 0.585946 -4.10546e-18)
(-0.00374209 -0.00961227 9.77423e-18)
(-0.000607788 -0.000711887 4.49727e-18)
(-0.0830658 0.0201024 2.02197e-17)
(0.269695 -0.128328 8.28129e-18)
(-0.00732915 0.000576285 -7.59709e-19)
(-0.0108799 0.0074254 -8.41678e-18)
(-0.0827747 -0.128966 -2.26806e-17)
(-0.00134861 -0.000422299 1.96312e-18)
(0.00110415 -0.00352192 1.15327e-17)
(-0.00911434 -0.000566789 -1.34342e-19)
(-0.0005784 -0.000410264 -3.7561e-18)
(0.255904 -0.2588 2.89846e-19)
(0.00547487 0.00412509 -1.56244e-18)
(-0.00176699 -0.000713522 1.56367e-18)
(0.0019939 0.000658538 -3.96299e-18)
(-0.00158866 -0.000304174 5.16015e-18)
(0.00310371 0.0471642 5.85425e-18)
(0.00241607 -0.0390409 5.8431e-17)
(-0.00206677 -0.000488662 -9.42208e-18)
(-0.00510019 5.48814e-06 4.73374e-18)
(0.00153517 -0.000196642 8.27947e-19)
(0.118461 0.0524107 3.28177e-17)
(-0.370862 -0.261345 9.30887e-19)
(0.170723 0.0425578 5.16494e-17)
(0.00139687 0.000442788 1.50364e-18)
(0.00632566 0.00467767 -2.01067e-17)
(0.000846057 -0.00349601 -5.64088e-18)
(0.0906996 0.00509386 -2.30124e-18)
(-0.011885 0.00611857 5.89179e-18)
(0.00285427 0.000995454 1.50295e-19)
(0.00408048 0.000765398 -5.78603e-19)
(0.00145071 -0.000142196 -7.08481e-19)
(-0.00489954 -0.00445637 -2.98898e-17)
(0.000596401 -0.000310494 1.5957e-18)
(0.230036 -0.0353512 2.08194e-16)
(-0.00408372 0.000204343 -3.63507e-18)
(-0.00105878 -0.000543484 9.66226e-19)
(-0.48311 -0.802057 3.99826e-17)
(0.0236741 -0.230887 2.07744e-17)
(-0.0245277 0.559521 -2.10655e-18)
(-0.00957673 4.3793e-05 -3.30107e-19)
(0.135028 0.339298 5.56215e-17)
(-0.00134379 0.000747603 1.02889e-17)
(0.025386 -0.0686858 -2.23887e-17)
(0.219409 -0.0589087 -1.04352e-16)
(0.110786 0.0491548 -1.96846e-17)
(-0.00525842 0.000400725 1.4993e-18)
(-0.00648664 -0.0016438 -3.82343e-18)
(0.134974 0.170844 4.69568e-17)
(0.0580555 -0.0769768 -1.65627e-17)
(0.0470161 -0.13977 -8.64054e-17)
(-0.00104885 -0.00150517 -1.70601e-18)
(0.00362994 -0.00018595 -2.98269e-18)
(0.00160172 -0.000418257 -1.13689e-18)
(0.00305657 0.000215903 -3.169e-19)
(-0.0070743 2.46801e-05 7.41485e-19)
(0.000356729 -0.000386379 3.20621e-18)
(0.00362853 8.59101e-05 7.40219e-18)
(2.40326e-07 -1.70286e-05 2.34773e-18)
(0.24296 -0.028612 -1.56479e-16)
(0.00158917 0.000122452 2.15241e-18)
(-0.00761031 -0.00980851 3.46221e-18)
(-0.00611035 -0.00244187 -7.82127e-18)
(-0.381353 0.283912 1.11161e-17)
(0.00285943 0.00102783 -2.09227e-19)
(-0.00319038 0.000534392 5.39497e-18)
(0.0273551 -0.126229 -2.63766e-17)
(0.00202907 -0.0323158 -3.10691e-17)
(0.276896 0.625784 2.41326e-17)
(-0.0113674 0.00421795 2.23133e-18)
(0.00197775 -0.000575475 6.22151e-19)
(-0.00529552 0.000660594 3.54257e-19)
(-0.00174475 -0.000490316 -3.66226e-19)
(-0.0515434 0.0751975 -4.49639e-17)
(-0.0019461 5.04605e-05 -4.16059e-20)
(-0.0408394 0.561129 -7.42402e-18)
(0.0270011 0.0294298 -1.64386e-18)
(-0.0193437 0.0200091 -4.95516e-17)
(0.181534 0.0267026 5.75468e-18)
(0.281543 -0.269723 3.42932e-19)
(-0.00890299 0.000144408 -5.2412e-18)
(-0.00121578 0.000161545 -1.44239e-18)
(0.100065 0.225893 -8.03547e-18)
(-0.0585734 0.066145 8.57861e-17)
(0.00477961 0.000157515 -5.69342e-18)
(0.225926 -0.0428826 3.62185e-17)
(-0.0104025 0.000122879 1.57751e-18)
(0.00774038 0.000444787 -1.35415e-18)
(0.0914203 -0.066597 1.23167e-17)
(-0.000414524 -4.34464e-05 9.17878e-19)
(-0.0293987 0.0170334 3.29735e-18)
(0.00133088 0.000518358 -1.30152e-18)
(-0.441309 -0.706674 -1.25031e-18)
(-0.001056 0.000114381 3.72805e-18)
(0.00149991 -0.00113443 -3.00483e-18)
(-0.413952 -0.543286 2.31616e-17)
(-0.000854267 -0.0155863 -3.59258e-17)
(0.0269815 -0.0244644 -7.42512e-18)
(0.00018567 -0.00113238 -6.61988e-19)
(0.00170711 1.35263e-05 -2.28228e-18)
(0.00261311 -0.000713621 5.23438e-18)
(-0.0794168 0.692649 -5.01214e-18)
(-0.00907359 -0.00588408 3.60082e-18)
(0.00443743 4.46856e-05 -1.11187e-20)
(-0.00483544 0.000341496 -1.08932e-18)
(0.00199821 0.000889609 3.45207e-18)
(-0.000467045 -0.00297718 -1.06543e-17)
(0.0293852 -0.0212963 4.13138e-18)
(-0.130486 -0.099278 -3.57848e-17)
(0.00213718 0.000315136 -1.3771e-18)
(-0.00384582 -0.000580777 4.37961e-18)
(0.0378199 -0.01554 6.36849e-17)
(0.000842393 5.50842e-06 -8.85572e-20)
(0.0392322 -0.00778205 -9.46954e-17)
(0.0433407 -0.0250451 1.16321e-17)
(0.00303028 0.000516963 -4.23936e-18)
(-0.00579539 0.000509019 -5.4549e-18)
(0.00133772 -0.00148412 1.0352e-18)
(-0.0102972 6.20909e-05 4.71145e-19)
(0.00320437 -0.000198649 -5.19708e-19)
(0.154827 0.415199 2.69766e-17)
(0.00468242 -0.00767955 -5.08231e-17)
(-0.134309 -0.167199 1.79288e-16)
(0.000273484 -0.00194321 2.76036e-18)
(-0.00140149 -0.00119298 -2.62319e-18)
(-0.00755049 -0.00447758 -9.0835e-20)
(-0.000990824 -0.00103108 3.05798e-18)
(0.0745276 -0.0300182 -5.78641e-17)
(-0.00080749 -0.00138773 5.72415e-18)
(-0.00460803 -0.000484204 1.16846e-18)
(-0.0059734 -0.00176896 5.36033e-18)
(0.00386727 0.0760671 -6.05101e-18)
(0.00115584 -0.00054207 -3.09723e-18)
(-8.18534e-05 -6.8059e-05 -2.84352e-18)
(0.000605996 -0.00057873 -7.97441e-20)
(-0.00142868 5.19993e-05 -5.46073e-19)
(0.00171581 -5.85442e-05 4.48682e-18)
(-0.00321133 -0.000616531 1.25921e-18)
(0.00408051 0.000750712 1.45026e-18)
(-0.00495582 0.000195381 1.54843e-18)
(-0.00104185 1.19438e-05 -7.0518e-18)
(-0.000574516 -0.00399562 -1.15359e-17)
(-0.0637765 -0.00135362 -1.35271e-17)
(0.00392508 1.41429e-05 -1.97751e-19)
(-0.00716252 -0.0372282 4.79139e-17)
(0.00121242 -0.000649996 -5.17394e-18)
(0.0318155 0.032923 9.81129e-19)
(-0.00247988 -0.300256 -4.11349e-17)
(-0.00266245 0.000539191 -2.90473e-18)
(-0.494573 -0.791249 7.28983e-17)
(-0.0221092 0.014372 7.33718e-18)
(0.000474293 0.000305819 4.11742e-19)
(-0.00786973 9.17694e-05 -1.06142e-18)
(0.00619216 -0.000835444 2.77407e-18)
(-0.229883 0.133601 9.78607e-18)
(-0.0194433 0.0165961 2.58684e-17)
(-0.00740053 8.33766e-05 9.87446e-19)
(-0.00624706 0.000218467 3.80823e-20)
(0.00684421 0.000286689 -1.28953e-18)
(-0.00671983 -0.00953882 -2.90817e-17)
(0.0180274 0.034966 -3.67599e-18)
(-0.126068 -0.361925 -1.22535e-17)
(0.00366271 -4.13168e-05 4.95452e-19)
(0.000810025 0.000372919 -8.06013e-18)
(0.000978752 -0.00223724 1.20918e-17)
(-0.00256901 -0.0860086 -1.28817e-16)
(0.180353 0.523602 -1.13412e-16)
(0.00133506 -0.000635106 -1.63072e-17)
(-0.00559811 -0.00272379 7.2126e-18)
(0.179305 0.139381 7.15219e-17)
(-0.189761 -0.361414 -4.79153e-17)
(-0.155053 0.0569172 -2.70305e-18)
(0.00148222 -0.000379465 -7.44729e-18)
(-0.00373364 -0.000560616 2.31918e-18)
(0.0983396 0.12435 1.52903e-17)
(0.00456289 -5.37887e-05 -4.29064e-19)
(0.00803762 0.0375774 -7.96068e-18)
(-0.306666 0.3681 1.70289e-19)
(0.0016045 8.38342e-05 1.18231e-19)
(0.0270975 -0.0177278 -1.34608e-17)
(-0.00668142 -0.00157402 7.94415e-18)
(0.107687 0.204553 -4.80295e-17)
(0.00237683 -0.000659399 -2.16896e-18)
(-0.17298 0.163895 5.2803e-18)
(0.0202979 -0.107876 -1.31787e-17)
(-0.00330227 -0.00420654 -4.25161e-18)
(-0.145109 -0.211638 -5.87762e-17)
(0.00274032 -4.04917e-05 -1.64084e-18)
(0.0832111 0.0128643 1.10009e-18)
(-0.000294466 0.000156097 2.06436e-18)
(0.000557902 0.000144357 -3.0931e-18)
(-0.00349366 -0.000117527 5.8378e-18)
(0.00351976 -0.000696079 1.10709e-18)
(0.109973 0.585952 1.0762e-17)
(0.00128342 0.000107238 -3.86458e-18)
(0.00192097 -0.000256325 -2.92874e-19)
(-0.000867344 -0.000415345 8.04834e-19)
(0.00136693 0.000297869 -1.23361e-18)
(-0.0047189 -0.000558955 -5.11887e-19)
(-0.00932611 0.00953367 2.0036e-18)
(-0.00383793 -6.06519e-05 3.0536e-21)
(-0.00406135 -0.010364 -1.48108e-17)
(-0.00536298 0.000206416 1.53441e-18)
(-0.00349976 0.00016088 -5.79287e-19)
(0.0330124 -0.10108 -2.6241e-17)
(-0.0013728 -0.0126961 -5.98622e-17)
(0.00109751 -0.000556481 -7.1973e-18)
(0.18089 0.289318 1.30506e-17)
(-0.000530639 -0.00379532 3.98968e-18)
(-0.000916155 -0.000129302 -1.07533e-18)
(-0.000807209 -0.000350756 -1.28854e-18)
(0.00232187 -0.000270154 -2.18499e-19)
(0.165374 0.0489446 -3.4617e-18)
(0.0025478 -0.000167753 1.05228e-18)
(0.00488367 5.81885e-06 -1.62947e-18)
(0.13308 -0.0255111 -4.85215e-17)
(0.134847 -0.12144 1.54039e-17)
(0.000772422 0.00646296 -1.01739e-17)
(0.00684725 -0.0005416 -2.18456e-18)
(-0.00289586 -0.000289246 2.26546e-18)
(-0.000383236 -0.000566497 -4.04197e-18)
(0.0018662 -0.000315639 9.79398e-19)
(0.0320367 0.210245 -5.52658e-17)
(0.000358169 -0.000360145 -4.77217e-18)
(-0.149382 -0.556407 -3.44344e-17)
(0.00231188 -0.00318648 2.53817e-18)
(-0.0171688 -0.0438027 -7.29849e-19)
(-0.00121039 -0.000464217 -5.4039e-18)
(0.0339378 -0.0405168 -1.11759e-16)
(-0.000489664 -9.53819e-06 -1.05931e-19)
(0.00292792 0.0545217 -3.55668e-18)
(0.00352815 3.67587e-06 -2.75366e-18)
(0.0111677 -0.0693986 -3.92827e-18)
(0.0260426 -0.0426763 -1.73496e-17)
(-0.00124579 0.000135749 -3.09209e-18)
(0.204453 0.400127 -2.30033e-18)
(-0.00519692 0.00028284 2.15362e-19)
(0.000466217 -8.88155e-06 -2.99928e-19)
(-0.00130755 5.03154e-05 -1.19074e-19)
(-0.068503 0.280876 1.0372e-18)
(0.0896929 0.0603875 3.01891e-17)
(0.00422567 -0.000782064 3.49945e-18)
(-0.00667496 -0.0017586 -4.58056e-18)
(0.0025687 6.61955e-05 3.16101e-19)
(0.171821 0.0681452 -6.02255e-17)
(0.00712392 1.12665e-05 1.70808e-19)
(-0.0102461 0.00504625 4.87752e-18)
(-0.169569 0.234181 -5.13731e-18)
(-0.00123136 -0.00118419 -8.51401e-18)
(0.00881625 2.16703e-05 1.7273e-19)
(0.00696437 -0.00243614 9.19454e-18)
(0.000314792 -0.000110707 -2.21817e-18)
(0.000105959 -0.000688319 -7.69509e-19)
(0.00140477 -0.000123113 -2.89859e-19)
(-0.0570961 -0.011589 3.07299e-17)
(0.00613427 -0.00025953 -1.11211e-18)
(0.199221 0.0221247 -1.06309e-17)
(0.000511107 0.000111091 1.78653e-18)
(-0.000876262 -0.000213577 1.99336e-18)
(-0.00393526 -0.0160798 1.65326e-17)
(0.0183602 -0.00323872 1.3743e-17)
(-0.188817 0.210175 1.23027e-17)
(-0.00949875 -0.000539589 -2.21747e-19)
(-0.0363366 -0.0526289 -1.68827e-16)
(-0.000732352 0.000159427 7.65594e-20)
(0.0207537 0.0422306 5.66225e-18)
(-0.00201182 0.000370697 1.77478e-18)
(0.00227696 -0.00135462 4.9472e-18)
(0.0017854 4.19259e-05 -4.87674e-18)
(0.00278686 0.000151654 3.21079e-19)
(-0.00254603 -0.000436729 -2.79407e-18)
(0.02717 0.0430017 -8.02322e-18)
(0.0157066 -0.0131887 -1.86362e-18)
(0.152482 0.274885 2.38711e-17)
(-0.00263592 -0.031784 5.73934e-18)
(0.00152033 -0.00278108 -3.03231e-17)
(0.00186751 0.00249019 1.69057e-18)
(0.0964056 -0.0589078 9.04187e-19)
(-0.00537399 -0.00144626 -1.86649e-19)
(0.068248 0.329945 6.23817e-17)
(-0.248441 -0.13159 4.8088e-17)
(0.0093562 0.058261 3.19017e-18)
(0.0647281 -0.0342594 7.68304e-17)
(-0.251203 0.307815 -4.2191e-18)
(0.00840378 0.0448476 -3.08937e-18)
(-0.000917129 -0.000714189 9.8968e-19)
(-0.00093486 -0.0396069 -1.27685e-16)
(-0.00298624 -0.0165375 3.14609e-18)
(0.00315749 -0.00117861 -4.52945e-18)
(0.00956203 0.0658374 -2.9191e-17)
(-0.000889409 -0.000128236 1.46093e-18)
(0.0549847 0.0160979 5.16993e-18)
(-0.000102611 0.00599029 9.1824e-19)
(-0.0243425 0.117145 -3.4999e-17)
(0.000507793 -0.0013773 1.65368e-17)
(0.0497234 -0.204755 2.71881e-17)
(-0.333814 -0.201482 2.35721e-17)
(-0.00313238 -0.0140596 -1.40044e-17)
(-0.0342458 0.0988922 5.12583e-17)
(-0.0023483 -2.17665e-05 -4.90749e-18)
(0.0505029 0.0586454 -9.87657e-18)
(0.00250236 -0.000283993 -2.83939e-18)
(0.00435915 -0.000132532 6.95965e-18)
(0.00213477 -0.000430665 -2.28214e-18)
(-0.000558933 0.000652699 8.34153e-18)
(-0.00829305 -0.0048882 -8.32546e-18)
(0.127483 0.139034 -5.17125e-18)
(0.0430633 0.0188165 -4.26109e-18)
(-0.165184 -0.20282 2.95605e-17)
(-0.00581098 -0.00107492 5.27452e-18)
(-0.00120437 0.000188094 -8.63328e-18)
(0.11535 0.23615 6.3058e-17)
(-0.00655467 -0.0268696 -1.132e-16)
(-0.00923346 -0.00243907 1.67365e-18)
(-0.00830067 0.0019272 2.44315e-17)
(-0.00109406 -7.50833e-05 -5.59562e-18)
(0.0353111 -0.0778753 3.99124e-17)
(-0.505387 -0.65894 -5.54095e-17)
(0.00504059 0.000585886 1.81888e-18)
(-0.00477788 -0.0110143 3.9481e-17)
(0.0352284 -0.0122533 -1.26101e-17)
(-0.365641 -0.145835 4.05192e-18)
(0.000816721 -7.20011e-05 2.93537e-19)
(0.00175453 -0.00051883 4.00664e-18)
(-0.0175271 0.339974 1.7176e-17)
(-0.00629795 -0.0061519 -2.96377e-18)
(-0.0787474 0.621748 -4.14189e-18)
(0.00172382 -0.0726534 6.64493e-18)
(-0.430113 0.2301 -2.96762e-18)
(-0.00140768 0.000978003 -3.86207e-18)
(-0.00538735 -0.00135185 -4.66145e-18)
(-0.00143505 -0.000763886 3.80011e-19)
(-0.00188664 0.000372422 2.89397e-18)
(-0.0368824 -0.208198 -1.33215e-17)
(0.00118037 -0.000249184 6.88542e-18)
(-0.0305113 -0.234134 3.39571e-18)
(0.0225165 -0.0338639 2.69862e-18)
(-0.0117353 0.0227097 -1.42741e-17)
(0.000250007 -7.60008e-05 -2.17044e-19)
(0.00352269 -4.22828e-05 -1.20552e-18)
(-0.000272761 -0.000914772 -2.44783e-18)
(-0.00152143 0.00102636 -2.21515e-18)
(-0.0074931 -8.82353e-07 1.54779e-18)
(0.00182692 6.20648e-05 -3.70525e-18)
(-0.00579196 -0.0263459 8.53109e-18)
(-0.290032 0.0299326 1.15962e-17)
(0.221681 0.453541 4.90095e-17)
(0.00235193 -0.000139503 1.01025e-18)
(-0.0366 0.0673552 2.28788e-17)
(0.00741341 -0.000593909 -1.61477e-18)
(-0.341616 -0.264131 3.34562e-17)
(-0.0147076 -0.0134235 6.5389e-18)
(0.00510452 -0.00520097 -1.43792e-17)
(1.49858e-05 -0.00316167 6.27396e-18)
(0.0343901 -0.099844 7.96446e-18)
(-0.00433715 -0.000183137 1.2924e-18)
(-0.00236791 0.000405446 -1.27574e-18)
(0.00595484 -0.00154512 -1.80077e-17)
(0.00267381 7.59193e-05 1.55932e-18)
(0.00064253 -0.000447846 1.15978e-19)
(-0.0024581 -0.00136698 -1.20661e-17)
(0.158043 0.375254 6.58148e-17)
(-0.00335911 -0.0001503 5.61252e-19)
(-0.0715489 -0.185731 1.19323e-17)
(0.187789 0.53926 4.79176e-17)
(-0.00449058 -0.00280344 4.51203e-18)
(0.294315 -0.216382 2.19758e-17)
(0.1838 0.542929 -1.39355e-17)
(-0.00142925 -0.000687575 -1.12191e-18)
(-0.00711578 -0.00693791 5.47604e-18)
(-0.00243074 -0.00521705 -2.18273e-18)
(-0.00176194 -0.000861322 3.66496e-19)
(-0.00134511 8.88745e-05 1.1553e-19)
(0.00698099 -0.0140304 -6.64871e-18)
(0.189481 0.543501 -5.10527e-17)
(-0.067198 -0.262455 1.6589e-18)
(0.000853199 -0.000621942 2.31323e-18)
(0.00189079 0.000573608 3.00337e-18)
(-0.00712501 1.28047e-05 -1.38448e-19)
(0.00089468 0.000715943 6.20096e-18)
(-0.00346605 1.41683e-05 2.51973e-18)
(-0.00332499 0.000342351 -1.036e-17)
(-0.0272122 -0.0301144 -5.81136e-17)
(-0.0139173 -0.0154382 -1.92061e-18)
(-0.00905846 0.000200937 4.35807e-20)
(-0.138316 -0.34494 7.27678e-17)
(-0.00697693 -0.00581032 9.72996e-18)
(0.00156054 -0.00261034 3.68028e-17)
(-0.0011163 -0.000463224 2.59624e-18)
(0.347915 -0.0250046 -5.05182e-17)
(0.00206023 -0.0031938 1.90319e-19)
(0.00866027 -0.000170465 5.181e-19)
(-0.0145067 0.0220205 -2.58623e-18)
(-0.00489446 -0.0362069 -9.80117e-17)
(0.00248794 4.32164e-05 2.55451e-19)
(0.00456223 0.00071357 -2.08046e-18)
(-0.00139664 -0.000660828 5.86e-18)
(0.00122304 -0.00332564 -2.71525e-19)
(-0.0053093 -0.000164936 -2.36164e-19)
(-0.00442062 -0.0138627 -2.98709e-18)
(0.203354 0.0960955 3.0512e-17)
(-0.00261141 -0.000168457 -4.24256e-18)
(-0.0606523 -0.0190028 -1.41884e-17)
(-0.00977627 -0.00222542 -4.14596e-18)
(0.000381036 -0.000408542 1.51392e-18)
(-0.164548 0.246682 6.21128e-18)
(-0.290886 -0.0485266 5.35225e-17)
(-0.227134 -0.0529989 2.11015e-17)
(-0.00343284 0.000218982 2.78497e-18)
(0.000159037 0.000156829 -2.74192e-19)
(-0.256586 -0.431038 7.0764e-18)
(-0.000953305 -0.00108791 1.73368e-17)
(-0.0923002 -0.359204 -3.10017e-18)
(-0.00156213 0.000249362 7.56444e-19)
(-0.00136606 0.000198711 8.67754e-19)
(0.266749 -0.00969263 9.15658e-19)
(-0.156391 -0.518631 3.59857e-17)
(-0.0059821 -0.00173096 -4.33754e-18)
(-0.0432097 0.0125365 1.23606e-17)
(-0.00108544 -0.0109528 7.30293e-17)
(-0.000994256 0.000160755 2.98523e-19)
(0.000707446 -7.22433e-05 2.19218e-18)
(-0.00126467 -0.000742657 7.39297e-19)
(-0.201273 -0.0450807 8.20498e-17)
(0.00552847 1.6429e-05 6.0885e-19)
(-1.52856e-06 -2.08128e-05 1.43083e-19)
(0.0674374 -0.0267282 3.73478e-17)
(0.00024453 -0.00163221 -1.69551e-17)
(-0.0683414 -0.0704654 -4.29368e-17)
(0.00122976 -0.00313969 4.57298e-19)
(0.00245805 -0.000544375 -1.24269e-18)
(-0.352807 0.0278713 -3.81772e-17)
(0.010296 -0.000342647 -3.69932e-18)
(0.000301065 0.000288852 6.99821e-19)
(-0.00126658 -0.000684875 2.63121e-18)
(0.000470611 0.00178368 -2.16417e-17)
(0.0414797 -0.158037 1.43707e-17)
(0.00618837 0.000352319 -3.58815e-18)
(0.00143086 -0.000601332 2.1644e-18)
(0.00196848 0.000213336 -2.49742e-18)
(0.000832176 0.000183874 3.33102e-19)
(0.00744896 -0.000598959 9.55297e-19)
(-0.0032616 -0.00074566 -3.59434e-19)
(0.0961447 -0.0198279 -8.49023e-17)
(0.000707061 0.00157757 2.14247e-17)
(-0.00056423 -4.12977e-05 -8.24435e-19)
(0.00367147 4.24957e-05 -2.88455e-18)
(0.0017905 0.00127674 -7.21908e-18)
(-0.00424398 -0.0086002 1.24387e-17)
(-0.00192135 -0.00400223 -5.26754e-18)
(0.000450327 -0.00179483 -3.59542e-17)
(-0.00110715 -3.98302e-05 -9.40907e-19)
(-0.0056489 5.71599e-05 3.57579e-19)
(-0.00632248 0.00018465 -5.75144e-19)
(0.0485219 0.0275523 2.18409e-17)
(-0.0599805 -0.188531 -8.35776e-17)
(-0.00051113 -0.000802515 -1.95507e-18)
(-0.108993 -0.238373 1.73962e-18)
(-0.00304563 -1.89565e-05 2.45361e-18)
(-0.000615492 0.000513999 -3.28604e-17)
(-0.135243 0.0902638 3.42323e-17)
(0.00331698 -0.0366168 6.64492e-17)
(-0.00333709 -0.000506152 -1.00095e-20)
(0.00580617 0.000346154 -1.02376e-18)
(-0.0113287 -0.0272786 1.40576e-17)
(-0.0121692 -0.00359944 1.13298e-17)
(0.00865409 -0.000140222 2.16229e-19)
(-0.00113393 -0.000421365 -4.6094e-18)
(0.168262 0.0799097 2.67262e-18)
(-0.000662935 -4.97407e-05 -3.73394e-20)
(-0.0181737 -0.00667162 5.97689e-17)
(-0.00574861 0.000463307 3.11381e-18)
(-0.00128888 -0.0343399 -2.2913e-17)
(0.000432631 -0.000398357 -1.6163e-18)
(0.00472412 -9.98936e-06 3.80834e-19)
(-0.00332003 0.00027671 2.81055e-18)
(-0.00497729 0.000766985 -1.17668e-18)
(0.000573639 0.00113675 6.43543e-19)
(0.00197007 -0.000424204 7.82287e-18)
(-0.00107797 -0.00155718 -8.94228e-18)
(-0.00601247 -0.0201155 -1.05336e-18)
(0.00331057 -4.66815e-05 1.53687e-18)