/*--------------------------------*- C++ -*----------------------------------*\
| =========                 |                                                 |
| \\      /  F ield         | OpenFOAM: The Open Source CFD Toolbox           |
|  \\    /   O peration     | Version:  v2012                                 |
|   \\  /    A nd           | Website:  www.openfoam.com                      |
|    \\/     M anipulation  |                                                 |
\*---------------------------------------------------------------------------*/
FoamFile
{
    version     2.0;
    format      ascii;
    class       volScalarField;
    location    "250";
    object      k_0;
}
// * * * * * * * * * * * * * * * * * * * * * * * * * * * * * * * * * * * * * //

dimensions      [0 2 -2 0 0 0 0];


internalField   nonuniform List<scalar> 
9793
(
0.000148509
0.0163045
0.000147332
0.0648289
0.000149704
0.000209798
0.000168545
0.0953983
0.000147712
0.0107181
0.000149253
0.000149189
0.000147184
0.037606
0.000146222
0.000155689
0.00016747
0.000147276
0.0406839
0.000144505
0.000144918
0.000149939
0.0555307
0.0987823
0.0393847
0.000153063
0.000148547
0.000149722
0.000144579
0.000170893
0.0348648
0.000218632
0.000147919
0.000147338
0.000146894
0.000157176
0.000152618
0.000151713
0.0713984
0.000158528
0.000168779
0.00823445
0.0375961
0.000149792
0.00014756
0.00014816
0.0477737
0.000149884
0.000145352
0.000147316
0.000156961
0.000146749
0.000163237
0.000149769
0.000156582
0.0672509
0.000147246
0.000177558
0.000145431
0.000149937
0.000153284
0.000165943
0.000147404
0.000164013
0.000147551
0.000147451
0.0241633
0.000151937
0.000153454
0.0230473
0.0001475
0.000165415
0.0790558
0.00347141
0.0487907
0.000149725
0.000159508
0.0759372
0.000147666
0.000149784
0.000160137
0.0412577
0.000167197
0.000150794
0.000153467
0.000205749
0.000149714
0.000176387
0.0688186
0.000165484
0.0621104
0.00503424
0.0057871
0.000161929
0.0320417
0.000147177
0.0275088
0.000165836
0.000152645
0.000149769
0.0526487
0.000162174
0.0184014
0.000147597
0.109023
0.0870191
0.00126371
0.000146927
0.0001477
0.000149879
0.000149514
0.0585337
0.000352703
0.0179051
0.000147429
0.00014864
0.000152193
0.000148225
0.0697088
0.000148045
0.106985
0.00017675
0.00552292
0.000166142
0.000152646
0.000148089
0.000168751
0.0440842
0.000197929
0.000200757
0.000151114
0.00014635
0.000148314
0.000150655
0.000155966
0.000179862
0.000301302
0.00015225
0.000149805
0.000169764
0.0366923
0.000156255
0.00014725
0.00017289
0.0462952
0.000200971
0.000148092
0.0215937
0.000146321
0.000148045
0.000148356
0.0404604
0.000152
0.000148495
0.000147353
0.00226996
0.000168316
0.000147365
0.000419655
0.000147297
0.000175367
0.000151368
0.000144991
0.000179255
0.000147198
0.0605708
0.0174959
0.000147835
0.000146933
0.000149397
0.000147313
0.0119438
0.0256687
0.0496699
0.000147147
0.000204582
0.000170815
0.000189134
0.00014755
0.00015179
0.105218
0.0436095
0.000178237
0.000148107
0.000148364
0.00014689
0.00357895
0.0739194
0.0144674
0.0225485
0.000147178
0.0101696
0.000182479
0.000152114
0.000145497
0.000149989
0.000293763
0.000144788
0.000147266
0.000149304
0.000147579
0.00014486
0.000158164
0.000153352
0.0750997
0.000147399
0.000156608
0.000147828
0.000148403
0.000181897
0.00016912
0.0322765
0.000145071
0.0348361
0.000150808
0.000173752
0.000146316
0.000179293
0.000148704
0.000160019
0.000166712
0.000144908
0.000244662
0.0521962
0.000161284
0.000147121
0.0001693
0.0589768
0.000160174
0.000160316
0.0727436
0.000187405
0.000171676
0.00016464
0.000182333
0.000144463
0.020714
0.0195663
0.000144834
0.000149431
0.00470865
0.000147208
0.000149499
0.000178883
0.000182251
0.000147403
0.000151837
0.000157307
0.00015873
0.000151885
0.000147594
0.000161813
0.0595703
0.000144894
0.0417888
0.00014972
0.000149068
0.000145314
0.0691623
0.000147691
0.0146252
0.0780397
0.000148572
0.000148779
0.0266748
0.000146808
0.000149557
0.000146426
0.0790635
0.000175761
0.000151729
0.00018436
0.000177212
0.0210397
0.0420099
0.000147971
0.0359588
0.000149737
0.0552856
0.000627428
0.0559097
0.109274
0.000185134
0.000151215
0.000165783
0.000152732
0.000145642
0.000148028
0.00018362
0.000153198
0.000148844
0.000149881
0.000145051
0.000145348
0.00014494
0.0504971
0.000146872
0.000146158
0.000146706
0.000147199
0.0340585
0.000204284
0.000162046
0.000149376
0.000172858
0.000147503
0.000410904
0.0360029
0.00014764
0.0619799
0.000162376
0.000147512
0.00829956
0.000964079
0.00014799
0.000162285
0.000753181
0.000147913
0.000156417
0.00014616
0.000148173
0.0339731
0.000159179
0.000147406
0.000148003
0.000149183
0.00017444
0.000402336
0.000147359
0.000146883
0.000145851
0.00991881
0.0359584
0.0574617
0.000144477
0.000159826
0.00015657
0.000247574
0.000173779
0.000144339
0.000144748
0.000145862
0.000165693
0.000147681
0.0944665
0.000148465
0.000146179
0.0646954
0.0506689
0.0473208
0.00014584
0.0552256
0.000151768
0.00039565
0.10293
0.0743432
0.000150406
0.000159056
0.000298464
0.0610065
0.0609686
0.000152922
0.000149731
0.000152084
0.000145088
0.000146751
0.000147608
0.000148423
0.000149941
0.0955737
0.000149322
0.000168423
0.000158323
0.00126824
0.000144299
0.000150945
0.0541183
0.000187596
0.0363281
0.000173239
0.0001462
0.000150547
0.000147342
0.000202582
0.000144602
0.0564854
0.000171216
0.000168302
0.0559754
0.0463185
0.00014882
0.00014711
0.000311583
0.000209776
0.000147386
0.0977737
0.000148775
0.000149111
0.000490653
0.000145056
0.000178034
0.000144547
0.0202794
0.000148501
0.000147215
0.0722499
0.00016491
0.00017963
0.000152197
0.000148365
0.000146579
0.00584719
0.000165418
0.00014446
0.00014924
0.000157164
0.000156629
0.000179532
0.0431199
0.000149248
0.000147313
0.000181952
0.000148413
0.0648105
0.000189522
0.000148313
0.000147967
0.000147941
0.000148666
0.000145697
0.051562
0.000160291
0.0525383
0.000154487
0.000150398
0.000165966
0.000151453
0.0678471
0.000152786
0.000149763
0.000151955
0.00020099
0.000147361
0.000147311
0.000147523
0.000144624
0.000147709
0.00014631
0.000148182
0.000148968
0.000149338
0.000152652
0.000178549
0.000147266
0.000257668
0.00015238
0.000174945
0.032873
0.000145727
0.0636332
0.00016855
0.000145603
0.00014462
0.00014724
0.11227
0.000177401
0.000144595
0.000148698
0.000149259
0.000162076
0.000171609
0.077946
0.000147647
0.000147356
0.000155621
0.0463782
0.0564127
0.000150433
0.000150172
0.0503148
0.0471674
0.000214392
0.000148023
0.000146264
0.0766062
0.000147205
0.000170876
0.000562812
0.000144379
0.000173864
0.000155374
0.057304
0.000146595
0.0505121
0.00022558
0.00015499
0.021427
0.000147188
0.00023936
0.000148507
0.000147076
0.00014944
0.000147353
0.066809
0.000147155
0.000145365
0.00014934
0.000144553
0.000146264
0.000161931
0.000149172
0.000163248
0.000148079
0.000148107
0.0592415
0.000163147
0.000150359
0.0507447
0.000151997
0.00014805
0.000147719
0.000145685
0.0612183
0.000145268
0.000148316
0.0423166
0.0107086
0.000159023
0.000147235
0.000149882
0.000147734
0.000149565
0.0248009
0.000148051
0.0203423
0.000151954
0.0002662
0.000149721
0.0239335
0.000150271
0.00017915
0.00014724
0.000187522
0.0514395
0.00014857
0.004562
0.000147226
0.000149404
0.000144851
0.0797571
0.0750631
0.000147283
0.000156106
0.000145181
0.0414516
0.000146491
0.000162151
0.053742
0.000151988
0.000148012
0.000159526
0.000149598
0.000147853
0.000146031
0.000177586
0.000147492
0.0599726
0.000148205
0.000147726
0.000167325
0.00016365
0.000398086
0.000146077
0.025369
0.000147075
0.000175531
0.000147341
0.000147634
0.000147192
0.00014819
0.000149766
0.000175761
0.000171679
0.00707182
0.000179043
0.000156893
0.000157072
0.000392303
0.000151099
0.0213329
0.0286263
0.000180959
0.071663
0.000536247
0.000174614
0.000147842
0.000521712
0.000167451
0.00014739
0.00018782
0.000149641
0.000183839
0.000158181
0.000213332
0.000153678
0.0530814
0.0339487
0.00016575
0.00020578
0.000149388
0.000198397
0.000149363
0.000147241
0.000147638
0.000150606
0.000164489
0.0722295
0.000177246
0.0446651
0.00015064
0.000150123
0.0555457
0.000178299
0.000149672
0.000171763
0.000148465
0.000452496
0.0716283
0.000148279
0.000162073
0.00017651
0.0308885
0.000147512
0.000152464
0.0124644
0.000157598
0.0016585
0.000187384
0.000267701
0.000152487
0.000151359
0.000146882
0.00014735
0.000193099
0.000149884
0.000151755
0.000185551
0.000167381
0.000149706
0.000149443
0.000150914
0.000147074
0.000146605
0.000147239
0.000176993
0.112282
0.0401704
0.000149849
0.000197737
0.000147419
0.0338803
0.000169517
0.000159516
0.000156473
0.000219925
0.000145949
0.000148296
0.000158981
0.000147214
0.000147577
0.000170651
0.0473059
0.000144851
0.000187596
0.0646793
0.000152241
0.0432196
0.0696036
0.000146398
0.000167255
0.000156605
0.000147146
0.000144847
0.000165477
0.0599458
0.0618353
0.000147403
0.000147949
0.000145253
0.000152815
0.000149186
0.00015055
0.000189078
0.000169523
0.000148923
0.0226454
0.000158238
0.000156357
0.0001474
0.0119706
0.000150896
0.000147212
0.000167799
0.000299059
0.000144473
0.000148217
0.000147381
0.000154152
0.000145915
0.000165873
0.000317951
0.000147906
0.000177793
0.000149259
0.00014721
0.000379139
0.0353081
0.000232967
0.000148386
0.000144542
0.0360541
0.000152449
0.004171
0.00014431
0.000147228
0.0213596
0.0164088
0.000157912
0.000178396
0.000161893
0.000147103
0.000149793
0.000147035
0.0255399
0.000148232
0.000149947
0.0607254
0.000153543
0.000204015
0.000155924
0.000147313
0.0374552
0.000149765
0.000147297
0.000147009
0.000155596
0.0621661
0.00014901
0.000147647
0.000147214
0.000147144
0.000147355
0.000146967
0.0766738
0.000156021
0.000149179
0.000148623
0.000156044
0.000169074
0.000155628
0.000154083
0.000149883
0.000145205
0.000150033
0.0692631
0.0114078
0.000150066
0.052025
0.000149383
0.000152086
9.84702e-05
0.000309038
0.000146158
0.000149142
0.000180743
0.000169383
0.000147131
0.000149621
0.0628505
0.000149767
0.00016844
0.000147917
0.000188935
0.000149614
0.000150248
0.000148745
0.000157613
0.000146837
0.000151317
0.000152696
0.000169382
0.00014683
0.000147796
0.000149633
0.000147039
0.000147686
0.000146638
0.000158742
0.000148625
0.000170663
0.0392341
0.000164473
0.000170926
0.00014929
0.000146013
0.0166854
0.0391725
0.000144774
0.0241356
0.0365098
0.000144585
0.000147615
0.000146974
0.000171157
0.000171463
0.000300659
0.000146784
0.000152702
0.00014679
0.000148278
0.00015015
0.000167607
0.000147558
0.00020133
0.000148502
0.000162365
0.000147037
0.000149654
0.000147313
0.000169276
0.000161573
0.0468408
0.000700872
0.0388126
0.00016804
0.000147211
0.00028507
0.000379439
0.000173339
0.000147292
0.000148446
0.000287074
0.000146921
0.0629007
0.000144534
0.000159065
0.00014775
0.000149779
0.000146214
0.00230203
0.0256471
0.0620331
0.000162969
0.0281351
0.000147396
0.101086
0.0949148
0.000149785
0.000147672
0.000145793
0.000439189
0.000144371
0.070646
0.000155921
0.000191775
0.000147972
0.000207422
0.0400874
0.00026763
0.000155113
0.000159777
0.000148113
0.0460953
0.000144178
0.000195401
0.000217008
0.000162939
0.0549582
0.0265479
0.000151302
0.000150198
0.00014744
0.000192955
0.0901266
0.0187147
0.000145905
0.000398872
0.000154939
0.00018103
0.000168622
0.045498
0.0437107
0.000144677
0.000152662
0.000159459
0.000151932
0.000151429
0.00902619
0.000149257
0.0971129
0.000146113
0.000144549
0.000168802
0.000180504
0.000117327
0.000149032
0.0144797
0.0617865
3.53038e-05
0.000153164
0.000149509
0.000149044
0.000149466
0.000147297
0.000134648
0.00290876
0.000147792
0.000147345
0.000160848
0.000258222
0.000153456
0.000147341
0.000183337
0.000147326
0.000149816
0.000144239
0.000174783
0.000148067
0.000153176
0.0451073
0.00016866
0.000150712
0.000458874
0.000167259
0.000147302
0.000149593
0.000160953
0.000149724
0.000147535
0.000145929
0.0898865
0.000340454
0.000147964
0.000161876
0.000157105
0.000199004
0.000147408
0.110233
0.00014681
0.000145966
0.000194278
0.000228024
0.000172741
0.000147543
0.000147067
0.0437073
0.0516215
0.00019016
0.000309026
0.000148564
0.000151044
0.000147957
0.0173399
0.00015103
0.00422819
0.000149103
0.000146914
0.000150841
0.000145376
0.000146908
0.000163229
0.000146164
0.108093
0.000146382
0.000148033
0.000144362
0.000153145
0.0362454
0.0616096
0.000172536
0.0459161
0.000147662
0.000158222
0.000150165
0.00109287
0.000145803
0.000144652
0.0341201
0.000157172
0.000156135
0.000148632
0.000205101
0.00389304
0.0938688
0.000147869
0.000156627
0.000209594
0.000161125
0.00141644
0.000184506
0.000168909
0.000146072
0.000148888
0.000173901
0.000163915
0.000147723
0.000192521
0.000145854
0.000149162
0.000148177
0.000146072
0.000147255
0.000147765
0.000201091
0.000153397
0.000149766
0.00016191
0.000145952
0.000147339
0.000160383
0.0939896
0.000164169
0.000166895
0.041566
0.000149516
0.0914076
0.000155464
0.017114
0.000163264
0.000149288
0.000147404
0.000150597
0.0730407
0.000272518
0.000162978
0.000171631
0.000145181
0.000147
0.000149617
0.000149284
0.0394968
0.000153855
0.000147062
0.000194527
0.000178224
0.0419444
0.000149359
0.0309971
0.000160879
0.00016473
0.000161575
0.00018469
0.000183309
0.000147964
0.0411533
0.000231524
0.000157819
0.0985859
0.000167189
0.0001478
0.000149735
0.000147311
0.000149645
0.000153378
0.0220511
0.000169424
0.00014689
0.000228517
0.000147858
0.0361078
0.000438328
0.000147467
0.0217266
0.000146396
0.000145967
0.000146843
0.0461116
0.0669921
0.000169687
0.000155454
0.000145248
0.000140441
0.000149497
0.000157513
0.000148481
0.000147977
0.000146892
0.0791104
0.000149178
0.000158546
0.000155272
0.000149355
0.000180084
0.000177875
0.000163378
0.000152291
0.00015108
0.0616597
0.0653596
0.000146165
0.000146042
0.00014615
0.000148809
0.0365555
0.0890892
0.00019966
0.000152569
0.000146193
0.0539585
0.0319277
0.000147942
0.0360595
0.000145631
0.000173165
0.0137518
0.00014588
0.0409388
0.0915714
0.000177579
0.0454571
0.064195
0.000146647
0.000149009
0.000284456
0.069364
0.000148778
0.0586225
0.000152861
0.00014726
0.000149809
0.000149887
0.000164837
0.000153295
0.000177354
0.045983
0.00017431
0.000156548
0.000148388
0.00016489
0.000310175
0.000146019
0.000418435
0.000163507
0.000149414
0.000151512
0.000149571
0.000148031
0.000155665
0.00030642
0.000148278
0.000146252
0.0455062
0.0433152
0.000174816
0.000149716
0.000167163
0.000147346
0.000147312
0.107994
0.0564179
0.000147233
0.000143996
0.0910787
0.0403262
0.000163826
0.000148183
0.0778917
0.000148903
0.000147265
0.000151083
0.000147314
0.000145135
0.000144966
0.0520244
0.000203526
0.000152826
0.000248801
0.000167995
0.0530751
0.0099252
0.095304
0.000194151
0.000147366
0.000149548
0.000148008
0.000147766
0.000163761
0.000146956
0.00016604
0.000157566
0.000404056
0.000148209
0.0592647
0.000157086
0.0911393
0.000147268
0.000261726
0.000159493
0.000199068
0.000224961
0.000157679
0.000144943
0.0394807
0.000169003
0.000686741
0.000144771
0.0765921
0.000148054
0.068882
0.000201498
0.000158906
0.000147313
0.00014846
0.0390747
0.0415671
0.000160693
0.000144166
0.000957325
0.000167707
0.000166456
0.00230227
0.000164226
0.000147082
0.0420935
0.000147329
0.000161971
0.000144661
0.0672011
0.000144731
0.000150575
0.000228201
0.000420973
0.000149428
0.000168808
0.000152121
0.000164132
0.000146939
0.000187004
0.000150132
0.000163399
0.000147183
0.000147713
0.0723521
0.000157533
0.0717326
0.0331262
0.0474552
0.000149152
0.000144907
0.000145999
0.000153836
0.000163066
0.000159322
0.0410942
0.000150868
0.000389095
0.00015953
0.000149861
0.000147051
0.000175086
0.000261263
0.0227951
0.000147283
0.0669201
0.000146812
0.0627073
0.000253604
0.000168139
0.000147794
0.000145792
0.000163202
0.00475575
0.000151823
0.000149769
0.000151066
0.000166691
0.000149295
0.000224535
0.0443517
0.000465321
0.000148964
0.000154593
0.100416
0.000149187
0.000161738
0.00014633
0.000111173
0.000158188
0.000147454
0.000159832
0.000171142
0.000146424
0.0510908
0.000147301
0.000190799
0.0001762
0.000272461
0.00017973
0.000149044
0.000148108
0.0211255
0.000147913
0.000159214
0.000175962
0.000150872
0.000144113
0.0865888
0.000151634
0.000183609
0.000150139
0.000162751
0.000148737
0.000181886
0.000151988
0.000152573
0.0532086
0.000208506
0.000148473
0.000149803
0.000171191
0.0958008
0.000279663
0.00019845
0.000159023
0.000147338
0.000146338
0.0695426
0.00014883
0.0642421
0.000171126
0.0357814
0.000148595
0.000145683
0.000146278
0.000164354
0.000175896
0.000391878
0.0406945
0.000288781
0.000218003
0.000144851
0.000313205
0.000149496
0.00017713
0.000149268
0.000163271
0.000161231
0.000147341
0.000144602
0.000174665
0.000145049
0.000160889
0.000162191
0.0307402
0.0929786
0.000168076
0.0751399
0.000145877
0.000144858
0.000148362
0.000171679
0.000162062
0.00016416
0.00017429
0.0292457
0.000158754
0.000170374
0.000146343
0.000148364
0.0385818
0.000146887
0.000177662
0.000143817
0.000146773
0.0422825
0.000178429
0.000146741
0.000171185
0.0001907
0.047231
0.0174942
0.00015255
0.000179608
0.000170922
0.0290265
0.000147517
0.082656
0.0574485
0.000150444
0.000154928
0.000144838
0.0001833
0.000145307
0.000147715
0.0442327
0.000147997
0.000144438
0.000197675
0.000176661
0.0481363
0.0467419
0.000398324
0.0559947
0.000144484
0.000147279
0.000146749
0.000149312
0.00162331
0.000147498
0.0664781
0.000149464
0.0612393
0.000151261
0.000147913
0.000145421
0.00014819
0.00015557
0.00014728
0.000144051
0.000245739
0.000146456
0.000172623
0.000148643
0.0362374
0.000151295
0.000148391
0.000146425
0.000168621
0.000147122
0.000146041
0.000148468
0.000149377
0.000152237
0.000146679
0.000150196
0.00015562
0.0486767
0.0906158
0.0515051
0.0509267
0.000146074
0.000147858
0.000147349
0.000143586
0.00014735
0.00014582
0.000211945
0.000146775
0.000149645
0.000148324
0.000148181
0.000146956
0.095638
0.000151674
0.000147585
0.0429268
0.000167936
0.000145658
0.0675122
0.0449364
0.000147982
0.00019207
0.000197216
0.000147528
0.000159411
0.000150731
0.000144503
0.000154191
0.000147934
0.000169878
0.000147912
0.000149612
0.000145909
0.0235045
0.000158377
0.000159618
0.000148057
0.000149743
0.0521295
0.000152444
0.000148106
0.000151147
0.000151819
0.000149649
0.000173195
0.0271217
0.000893062
0.0489234
0.000173197
0.000158164
0.000149708
0.0755478
0.000183165
0.000149034
0.000170671
0.000149949
0.000147197
0.000149606
0.0063948
0.000160439
0.000147812
0.000148177
0.000204045
0.00014578
0.000184627
0.000147245
0.000251108
0.000216691
0.00249533
0.000148399
0.000149847
0.000155747
0.000157677
0.00014801
0.000158482
0.000164076
0.000389992
0.000147682
0.000184947
0.0774307
0.000144439
0.081166
0.000159357
0.000179564
0.00017431
0.000147315
0.000154719
0.000165819
0.000145452
0.000153145
0.000144394
0.0154563
0.00160642
0.000156552
0.000146546
0.000182844
0.000163038
0.000326522
0.000178334
0.000150115
0.000157176
0.000147446
0.000147143
0.000165525
0.000160815
0.0381266
0.000146422
0.000184928
0.000151724
0.0322141
0.000191334
0.0675906
0.000144821
0.000149482
0.000281456
0.000268631
0.000158963
0.0487703
0.000149289
0.000174041
0.000147167
0.000146698
0.069177
0.000314215
0.000152891
0.000148502
0.000163657
0.000291045
0.000171088
0.000162798
0.000146111
0.000147943
0.000145698
0.000309909
0.04
0.000145966
0.000168167
0.0294307
0.00017089
0.000183532
0.0644414
0.0179456
0.0567489
0.000146095
0.00014898
0.0772096
0.000147053
0.000160299
0.000243538
0.0660291
0.000150094
0.000155137
0.0556287
0.000197215
0.000272287
0.055055
0.0752458
0.0484895
0.000148625
0.000144963
0.000147761
0.000148518
0.00724888
0.000160686
0.00018176
0.00018175
0.00016141
0.000147054
0.000270156
0.000145509
0.00015945
0.000147221
0.000158694
0.017063
0.0128818
0.000148334
0.000144786
0.000169176
0.0197687
0.000185982
0.0737829
0.000159336
0.000147548
0.000163633
0.000143787
0.000164867
0.000155757
0.000147297
0.0173074
0.000170133
0.000169375
0.000164599
0.000148002
0.000144458
0.024775
0.000151928
0.000144941
0.000148882
0.000149678
0.000145443
0.00943878
0.037571
0.0619298
0.000252312
0.0630834
0.000151483
0.000147437
0.0136553
0.000151973
0.000192599
0.0205218
0.000146838
0.0672686
0.0405091
0.000167082
0.000156462
0.000200335
0.000149664
0.000268646
0.000159844
0.0569946
0.000146463
0.00014924
0.000159292
0.000431959
0.000180737
0.000162854
0.0520997
0.0575024
0.00016269
0.00019732
0.000394298
0.000151899
0.000181085
0.0251523
0.000158515
0.000162024
0.104173
0.000161522
0.000158175
0.000148574
0.000163538
0.000165148
0.000164699
0.000148469
0.00290124
0.000170347
0.0573161
0.0398437
0.0552794
0.000158834
0.000254326
0.00408328
0.000146691
0.000271849
0.0158583
0.00255499
0.000154651
0.000151007
0.047672
0.0563381
0.000144842
0.000173803
0.000145974
0.000147135
0.000446777
0.000152113
0.0707633
0.0404942
0.0503998
0.0015336
0.00014496
0.00016252
0.00014766
0.000146668
0.000166563
0.000170136
0.000154964
0.000352629
0.0711699
0.000149802
0.000154557
0.000235846
0.000150383
0.000182934
0.00015953
0.0655047
0.0616769
0.000243491
0.0205754
0.0267999
0.0637213
0.0578202
0.0709673
0.000161902
0.000151925
0.000168627
0.000168179
0.0320136
0.00109515
0.00014878
0.000152115
0.0729496
0.0628888
0.000152699
0.062188
0.000147341
0.000204701
0.0956494
0.0385983
0.000147233
0.0583037
0.000251128
0.000153972
0.000157599
0.0796437
0.0585107
0.0442684
0.0289717
0.000147359
0.0522132
0.0683096
0.000158358
0.000179223
0.000165913
0.000145835
0.000154922
0.0629068
0.101715
0.0001524
0.000149068
0.0500117
0.000164333
0.0651716
0.000168585
0.000249909
0.0538499
0.00014776
0.086608
0.000149891
0.000160325
0.00014764
0.000146559
0.000145606
0.000159929
0.000176972
0.000144026
0.00569773
0.000183239
0.0112352
0.0789576
0.0649222
0.00014714
0.0959011
0.000257341
0.0720898
0.000157646
0.000147332
0.0129141
0.000200398
0.0898196
0.000160685
0.000150175
0.000145477
0.0352092
0.020133
0.000157079
0.003813
0.000155327
0.000147964
0.0494806
0.000160496
0.0247714
0.000146853
0.000159724
0.063336
0.0492119
0.0685174
0.000206972
0.0646935
0.0706994
0.0167313
0.000148217
0.0225265
0.000160889
0.000146571
0.000144381
0.000147192
0.0243576
0.000159887
0.0607855
0.0742401
0.000167092
0.000169556
0.000191329
0.0542732
0.000176338
0.0988999
0.0594319
0.000241359
0.000165014
0.000145121
0.000356643
0.000161232
0.000200075
0.0517309
0.101123
0.000261376
0.0001485
0.000151798
0.000159988
0.000148268
0.000147099
0.000155842
0.0569583
0.000158636
0.000153513
0.0533719
0.000183091
0.000242694
0.00227362
0.0488866
0.00018808
0.0751229
0.0633289
0.0613837
0.000162136
0.000159494
0.000147845
0.000238928
0.000174075
0.000218656
0.00016172
0.000161275
0.00014377
0.000199738
0.040459
0.000155761
0.00014473
0.000149652
0.0227146
0.000146927
0.000148042
0.000166582
0.0670803
0.000158408
0.000160939
0.000171512
0.000155139
0.000172831
0.00014677
0.000147645
0.000161714
0.000218718
0.000148142
0.000157609
0.000174834
0.00586204
0.000147896
0.102429
0.000147094
0.0529226
0.000149877
0.000150072
0.000144458
0.000191863
0.000164322
0.0148933
0.0593213
0.000162151
0.000149009
0.000146618
0.0106062
0.0221318
0.000145849
0.000183675
0.075933
0.000165401
0.000163166
0.000143563
0.000148898
0.000147304
0.0477705
0.000163072
0.000148214
0.108693
0.000148359
0.000161092
0.000228079
0.000145846
0.000165729
0.000166917
0.0494794
0.000148555
0.000152791
0.000150074
0.00016555
0.00014343
0.000147163
0.0565841
0.000203649
0.000170768
0.000146927
0.0880365
0.000148433
0.000148377
0.000147507
0.000139598
0.109333
0.000151199
0.0869119
0.0109172
0.000166634
0.0654702
0.0209509
0.0708475
0.0163533
0.000171347
0.000176964
0.000204447
0.000164224
0.000147454
0.000154947
0.000158695
0.100988
0.000148407
0.0828699
0.000147682
0.000183919
0.000171481
0.000149166
0.00015379
0.0616417
0.0261599
0.036251
0.0615468
0.000146424
0.000182674
0.0748334
0.000154269
0.050612
0.00015839
0.000165823
0.0706962
0.000164895
0.000147774
0.000177744
0.000182464
0.000147328
0.0644503
0.000426326
0.000145632
0.000149554
0.0001487
0.000147902
0.0790117
0.000146648
0.000164176
0.000148024
0.000147877
0.00015581
0.000147418
0.0452593
0.000173249
0.000147752
0.000144978
0.000180309
0.000150379
0.000160891
0.0141491
0.0647423
0.000163387
0.00017568
0.000158425
0.000144747
0.000188808
0.0858447
0.000159449
0.0643976
0.0194221
0.000163282
0.000160249
0.000157669
0.000168922
0.000158273
0.0899841
0.000148644
0.000147699
0.000145784
0.102624
0.0664332
0.000157688
0.000199015
0.000146714
0.000155787
0.000179774
0.00022101
0.000147096
0.000164582
0.094562
0.000164301
0.000147752
0.000147267
0.0437472
0.0401447
0.000147348
6.53061e-05
0.000160368
0.000207912
0.000220153
0.00014683
0.051955
0.000158276
0.000148004
0.00280267
0.000207618
0.000147289
0.000149011
0.000223671
0.000146162
0.000148173
0.000195531
0.00015863
0.000159438
0.0498761
0.000153292
0.000170824
0.0905401
0.000146806
0.0086762
0.0829962
0.000153115
0.000176828
0.000201587
0.000147581
0.000195358
0.000143855
0.0556605
0.00025228
0.000147856
0.000515612
0.00479705
0.000147318
0.000147426
0.000190435
0.000167833
0.0577346
0.0588085
0.000148506
0.000162997
0.0589557
0.000148649
0.000169308
0.000177447
0.000157077
0.00127975
0.000204093
0.000150128
0.000212641
0.0270083
0.000159133
0.00100866
0.000147155
0.00014445
0.000149761
0.000158655
0.0885088
0.000148296
0.000163424
0.0077617
0.0359259
0.0001494
0.000156459
0.00027143
0.0418096
0.000149447
0.0136234
0.000160617
0.000171087
0.000161722
0.000149589
0.000154078
0.000147429
0.000147532
0.0396248
0.000147327
0.000160091
0.000147661
0.0330956
0.000150116
0.000151123
0.000144716
0.000151129
0.000147659
0.000163085
0.0226387
0.00110221
0.000160428
0.000158654
0.000147579
0.0001556
0.000167322
0.0477846
0.0673201
0.000146572
0.00163704
0.000148025
0.000310915
0.0523141
0.0388113
0.000146551
0.000168115
0.000174267
0.107278
0.000173548
0.000146646
0.0528622
0.00017677
0.000157437
0.00345071
0.000147566
0.000147685
0.000158464
0.110062
0.000147363
0.00124726
0.00015651
0.00351471
0.000164389
0.00015102
0.0520809
0.00015498
0.000147765
0.00023037
0.00014691
0.000317211
0.0657925
0.00019179
0.000153599
0.000169397
0.000147392
0.000174018
0.000163209
0.0238561
0.000147682
0.000144766
0.000153905
0.000156492
0.000166994
0.0185698
0.000661389
0.000156989
0.000173516
0.000146367
0.000460121
0.000642523
0.000177005
0.000147351
0.000149707
0.000149683
0.034484
0.000147807
0.000154599
0.0532431
0.000175824
0.000147571
0.000175021
0.000175426
0.000147708
0.00015256
0.000177536
0.000239748
0.000166319
0.000162286
0.081683
0.0430406
0.00019658
0.000153634
0.000147953
0.000151721
0.000151399
0.000181892
0.000168952
0.00015615
0.000175133
0.0446905
0.000150816
0.000147789
0.0566014
0.000178209
0.0561125
0.000196031
0.000152846
0.000150408
0.000150339
0.000146063
0.000146938
0.000166767
0.000144309
0.00014941
0.000148657
0.00014929
0.000150218
0.000147429
0.000157891
0.000166132
0.000147479
0.000147362
0.000148686
0.000149123
0.000148448
0.00017619
0.000148256
0.000150044
0.000240359
0.000145411
0.000149748
0.000148266
0.000155655
0.060091
0.0814751
0.0695685
0.0971598
0.0504935
0.000209865
0.000146962
0.000166903
0.000147311
0.000314557
0.000149702
0.000155091
0.000148099
0.000168792
0.000147448
0.000158908
0.000146197
0.00368193
0.000188102
0.000148396
0.0250622
0.0559006
0.000147395
0.00019257
0.000147389
0.000144709
0.0102679
0.000147568
0.000168641
0.000196641
0.000148578
0.000144384
0.000170584
0.0764492
0.000151754
0.000150351
0.0576085
0.00014732
0.0317154
0.000167272
0.066723
0.000145306
0.0644676
0.00014719
0.000147886
0.000219933
0.000170342
0.0382641
0.0755383
0.0236765
0.00103083
0.000207062
0.00017778
0.000148161
0.000193614
0.00014681
0.000146498
0.00016506
0.000147164
0.000147702
0.000144786
0.000144906
0.000174549
0.0189234
0.0612886
0.000196018
0.0902451
0.000150605
0.000155047
0.000149034
0.000149066
0.000174692
0.000147513
0.000145202
0.000146413
0.000150893
0.00014971
0.0001706
0.000187041
0.000164276
0.000148614
0.000160574
0.000161007
0.0448247
0.0593666
0.000152577
0.000164665
0.000148462
0.0924389
0.0462899
0.000147294
0.000147319
0.000151948
0.000149366
0.000282135
0.000230436
0.073581
0.000147906
0.00206975
0.000147692
0.0656818
0.000167139
0.000146421
0.000155485
0.0089099
0.000153194
0.000155515
0.000158772
0.000172924
0.102725
0.000145389
0.000147185
0.000154188
0.00022129
0.000146751
0.0647119
0.000496134
0.000147475
0.000143543
0.0131699
0.000179438
0.000147354
0.00121625
0.00502188
0.0559101
0.000346811
0.000156475
0.000264929
0.00014835
0.0569836
0.000381612
0.000198271
0.00017956
0.00015103
0.0477288
0.00015213
0.000146877
0.000143751
0.000244272
0.000145039
0.000978371
0.000148634
0.000147882
0.000151761
0.0674482
0.000151113
0.000149067
0.000148352
0.0288537
0.056839
0.0845916
0.0472977
0.000169374
0.000147372
0.000150845
0.000206483
0.00016606
0.000147709
0.000170922
0.000232478
0.00643415
0.000147006
0.0336719
0.0652746
0.000166861
0.000148278
0.000151142
0.000147454
0.00014584
0.000147377
0.000148098
0.00014709
0.000165365
0.000148517
0.000187124
0.000148875
0.000148853
0.0349845
0.000182707
0.000150071
0.000149015
0.0726498
0.000144317
0.000152754
0.00015344
0.000146454
0.00232053
0.000160025
0.000148955
0.000158903
0.000147072
0.000155517
0.000145506
0.000189181
0.000146493
0.000147088
0.0187069
0.000150541
0.000197627
0.000160619
0.000150435
0.00017879
0.000143459
0.000148468
0.000148808
0.0813187
0.000150982
0.000147345
0.000291041
0.000147339
0.000144949
0.000146965
0.000246336
0.000155965
0.000187529
0.000156259
0.000155217
0.000159994
0.000151065
0.000154266
0.000159609
0.0636572
0.000148133
0.000155262
0.000146329
0.000176751
0.000210866
0.000147118
0.000158553
0.00272991
0.000154796
0.000144308
0.103262
0.000153117
0.000164497
0.0611426
0.000157154
0.00014698
0.000156604
0.000147348
0.000151655
0.000147111
0.000149902
0.000153199
0.000147601
0.000148312
0.000155624
0.000147883
0.000175692
0.00014682
0.000150408
0.000147255
0.000159422
0.0634084
0.000147524
0.00014719
0.000164981
0.000149712
0.000147108
0.00019968
0.0584029
0.0571365
0.000147774
0.000151852
0.000164244
0.000149594
0.000148734
0.000161388
0.000171357
0.000144335
0.000160791
0.000147571
0.00014704
0.000145972
0.000144243
0.00014905
0.000163212
0.000161228
0.000155202
0.0739922
0.000151769
0.000154628
0.000145719
0.0376967
0.000350583
0.0454899
0.000147656
0.000165793
0.000155803