/*--------------------------------*- C++ -*----------------------------------*\
| =========                 |                                                 |
| \\      /  F ield         | OpenFOAM: The Open Source CFD Toolbox           |
|  \\    /   O peration     | Version:  v2012                                 |
|   \\  /    A nd           | Website:  www.openfoam.com                      |
|    \\/     M anipulation  |                                                 |
\*---------------------------------------------------------------------------*/
FoamFile
{
    version     2.0;
    format      ascii;
    class       volScalarField;
    location    "250";
    object      omega_0;
}
// * * * * * * * * * * * * * * * * * * * * * * * * * * * * * * * * * * * * * //

dimensions      [0 0 -1 0 0 0 0];


internalField   nonuniform List<scalar> 
9793
(
0.0222011
11.2549
0.021923
5.41155
0.0222596
0.30535
0.0852632
10.9148
0.0219707
22.5333
0.0221971
0.0221879
0.0219108
4.06018
0.0217093
0.0256392
0.0550715
0.021918
6.37988
0.0215289
0.0215601
0.0222916
5.89014
10.9738
4.04899
0.0258075
0.0221001
0.022262
0.0215396
0.0889218
17.5223
0.56908
0.0220099
0.0219329
0.0218632
0.0282567
0.0237831
0.0243185
4.32683
0.0308417
0.074813
5.73456
9.1684
0.0222716
0.0219543
0.022043
11.6105
0.0222842
0.0215591
0.021925
0.0279274
0.0218464
0.0376925
0.0222684
0.0318373
4.88149
0.0219204
0.0821699
0.0215681
0.0222914
0.0261438
0.0895436
0.0219383
0.0355478
0.0219625
0.021916
39.811
0.0238017
0.0241677
8.02555
0.021909
0.0945242
10.6643
1.82668
7.52406
0.0222624
0.0436374
8.98715
0.0219751
0.0222704
0.0465531
7.02476
0.0525073
0.0235226
0.0242446
0.351694
0.022261
0.0656362
4.23563
0.0854225
4.34678
5.56243
4.92053
0.0412431
9.01323
0.0218953
7.54166
0.0515179
0.0244256
0.0222684
3.7847
0.0359224
3.92072
0.0219604
6.39352
9.09348
0.899853
0.021874
0.0219798
0.0222835
0.0222334
4.97535
2.93214
17.3296
0.0218959
0.0221127
0.0233093
0.0220517
4.55396
0.0220274
5.9134
0.0680745
3.77041
0.0425188
0.023836
0.0220336
0.0640829
14.5111
0.165976
0.1746
0.0233024
0.0217865
0.0221268
0.0230285
0.0270635
0.181917
0.618946
0.023367
0.0222734
0.0637909
8.98413
0.0273195
0.0218744
0.0542124
10.7755
0.506629
0.022034
7.23439
0.0217808
0.0220277
0.0220714
11.5884
0.0239462
0.0220923
0.0218978
4.40859
0.059242
0.0219329
0.890828
0.0218825
0.0619372
0.0234096
0.0215694
0.315127
0.0218208
8.90522
3.87995
0.0219712
0.0218752
0.0222172
0.0218848
9.82662
25.0737
4.52099
0.0219045
0.267963
0.128942
0.580138
0.0219587
0.023723
6.37108
11.9928
0.0732524
0.0220354
0.0220733
0.0218687
3.17524
10.7987
17.3479
3.94739
0.0218647
34.0521
0.404195
0.0246963
0.0215581
0.0229709
1.95511
0.0215718
0.0219161
0.0222042
0.0219219
0.0215431
0.0291094
0.0245359
4.95197
0.0218945
0.02801
0.021965
0.0221738
0.35443
0.0612791
9.20088
0.0216151
8.60702
0.023529
0.0469953
0.0217188
0.176226
0.0221217
0.0479473
0.0559558
0.0215488
1.54107
4.74374
0.0392644
0.0218796
0.0508324
4.75504
0.0469567
0.0478474
4.46841
0.114135
0.043289
0.0362748
0.3457
0.0214792
25.3368
15.3586
0.0215802
0.0222222
3.95549
0.0218747
0.0222311
0.0932848
0.109408
0.0219111
0.0237454
0.029193
0.0369159
0.0237709
0.0219649
0.0441322
5.76469
0.0215514
4.60504
0.0222618
0.022171
0.021636
4.88821
0.0219745
7.36666
6.97244
0.0221035
0.0221317
8.31617
0.021756
0.0222394
0.0217135
6.61436
0.243931
0.0243412
0.363155
0.0802629
3.92389
10.3768
0.0220049
10.8316
0.0222641
4.75098
9.78306
4.10498
6.1282
0.108238
0.0233101
0.047775
0.0241931
0.0215627
0.0220108
0.372668
0.0259677
0.0221404
0.0222838
0.0216119
0.0215359
0.0215585
6.70188
0.0218649
0.0217094
0.0216415
0.0219131
8.18152
0.492702
0.0607148
0.0225927
0.0547761
0.0217031
0.402205
9.20392
0.0219668
7.59135
0.0335002
0.0219471
24.723
0.704159
0.0220189
0.0466476
15.2161
0.0220146
0.0324015
0.0217058
0.0220833
4.41723
0.0396034
0.0219433
0.0220207
0.0224908
0.164415
3.25651
0.0219271
0.0218673
0.0216313
9.979
9.8732
9.98301
0.0214861
0.0419672
0.0329479
1.74875
0.0682345
0.0214534
0.0214952
0.0216365
0.0462095
0.0219606
11.1806
0.0220883
0.0217608
5.20544
6.59005
8.33992
0.0215819
3.79608
0.0242108
4.26325
11.3771
4.64026
0.0232327
0.0315773
0.632096
4.16479
4.7526
0.0256447
0.0222633
0.0247253
0.0215342
0.021848
0.0219453
0.0220821
0.022292
10.893
0.0222066
0.064804
0.0304793
1.8659
0.0214487
0.0236066
9.60938
0.442954
4.53122
0.0663664
0.0217657
0.0233117
0.0219261
0.444143
0.0215505
7.47148
0.143093
0.0852829
10.4806
4.58675
0.0221377
0.021881
0.670434
0.423823
0.0218942
11.5834
0.0221315
0.0221769
6.75939
0.021613
0.0866014
0.0214886
4.13862
0.0220933
0.0218224
5.23522
0.0884039
0.0602519
0.0247228
0.0220747
0.0218084
4.17288
0.0515152
0.0214994
0.0221953
0.0332812
0.0329213
0.0600599
11.1806
0.0221963
0.0219291
0.359638
0.0220814
5.49516
0.570346
0.0220654
0.0220159
0.0219907
0.0221166
0.0216175
3.81778
0.0482633
9.66576
0.0278338
0.0226482
0.0427533
0.0240536
4.33627
0.0254599
0.0222677
0.023809
0.446052
0.0218882
0.0218831
0.0219112
0.0215537
0.0219827
0.0217319
0.0220455
0.022158
0.0225937
0.0241504
0.0914102
0.021722
1.55128
0.0249486
0.186379
15.9353
0.021573
5.09557
0.0845959
0.0215707
0.0215533
0.0218731
5.9463
0.0843036
0.0215493
0.0221208
0.0221978
0.062278
0.142138
8.95451
0.0219759
0.0218981
0.0302864
11.438
4.05797
0.0232625
0.0227696
4.67415
8.50551
0.252717
0.0220503
0.0217737
4.93217
0.021898
0.127642
1.21407
0.0214921
0.215485
0.0267672
3.76883
0.0218114
5.13739
0.471469
0.0251614
8.12146
0.0218973
1.50773
0.0220944
0.0218783
0.022223
0.021933
7.24194
0.0218899
0.0215686
0.0225708
0.0214951
0.0217735
0.0462071
0.0225254
0.0347638
0.0220346
0.0220386
7.61101
0.069636
0.0232152
4.58968
0.0237621
0.0220572
0.0219789
0.0216146
9.64041
0.0215582
0.0220691
16.0514
5.6345
0.0381403
0.0219186
0.022284
0.0219298
0.0222406
4.49789
0.0220574
3.90689
0.023526
1.92599
0.0222619
34.2918
0.022046
0.209956
0.0219044
0.0914603
7.36333
0.0221032
3.94253
0.0218838
0.0222182
0.0215544
6.42876
4.95925
0.0218784
0.0276486
0.0215445
4.69015
0.0216612
0.0449514
5.23559
0.0245454
0.0220264
0.04327
0.022245
0.0219551
0.021656
0.0847239
0.0219545
4.72222
0.0220524
0.0219717
0.0400816
0.0710529
0.673555
0.0217043
34.7664
0.0218755
0.184378
0.0218979
0.0219214
0.0218947
0.0220503
0.022268
0.193261
0.0437486
5.07714
0.136284
0.0336503
0.0329425
5.11244
0.0233034
4.40002
9.85806
0.238966
10.8743
1.05401
0.167533
0.021956
3.33834
0.0397707
0.0218615
0.319751
0.0222509
0.367598
0.0348808
0.274638
0.0266678
5.66557
9.8199
0.0374905
0.232289
0.0222161
0.546263
0.022569
0.0219072
0.0219509
0.0226359
0.0469632
4.40592
0.237547
10.3571
0.0230415
0.0230607
3.73323
0.296749
0.0225784
0.0618064
0.0221948
4.88883
5.26039
0.0220601
0.0606453
0.255061
9.81501
0.0219573
0.0251
6.06077
0.0283903
2.46687
0.0929256
1.71894
0.0250445
0.0234215
0.0217977
0.0219008
0.228714
0.0222841
0.264978
0.173825
0.0812207
0.0222595
0.0222237
0.0228172
0.0217051
0.0218275
0.0218783
0.121611
5.89574
3.86515
0.0222796
0.33641
0.0219449
10.1433
0.0465036
0.0439089
0.0326526
0.428542
0.0217388
0.0220625
0.0410384
0.021897
0.0218869
0.0623096
3.64935
0.02154
0.217371
4.19366
0.0240099
4.6192
4.32809
0.0217384
0.0565333
0.0263679
0.0218611
0.0215565
0.0927407
4.15824
10.2244
0.0218952
0.0220141
0.021614
0.0235831
0.0225492
0.0233839
0.56955
0.0464703
0.0221518
7.88188
0.0292577
0.032064
0.0218524
35.7034
0.0231405
0.0219159
0.0844854
2.05973
0.0214973
0.022051
0.0219338
0.024607
0.0217341
0.0382646
0.714172
0.0220315
0.0843799
0.0224245
0.0218158
0.742471
9.61314
0.337386
0.0220762
0.0214995
4.86979
0.0251417
2.13004
0.0214798
0.0218817
16.8875
3.92892
0.0298067
0.0890091
0.058856
0.0218761
0.0222717
0.0218358
9.01809
0.0220571
0.0222928
3.97663
0.0265209
0.445616
0.0312234
0.0219299
8.95553
0.0222678
0.0218953
0.0218315
0.0295641
6.92903
0.022163
0.021967
0.0218954
0.0218853
0.0219359
0.0218094
10.8945
0.030479
0.0225353
0.0221104
0.0305185
0.0645027
0.0255173
0.0273998
0.0222839
0.0216087
0.0229684
5.13322
3.86311
0.0225047
10.0852
0.0222154
0.0246791
1.63569
2.13051
0.0216962
0.0221812
0.332265
0.0507173
0.0219047
0.0222483
4.67564
0.0222681
0.0742984
0.0220096
0.480815
0.0222472
0.0220503
0.0221272
0.0304864
0.0216738
0.0239726
0.0252702
0.141397
0.0218586
0.0219947
0.0222497
0.0218725
0.0219179
0.0216995
0.0308028
0.022111
0.0503965
4.62602
0.0428974
0.0664354
0.0222022
0.0216496
14.7995
4.55635
0.0215494
4.30499
16.6927
0.0215052
0.021962
0.0218717
0.103786
0.0522645
2.18248
0.0218523
0.0247154
0.0218551
0.0221215
0.0220733
0.0853218
0.0218877
0.355799
0.0220935
0.055458
0.0218895
0.0227847
0.021891
0.040199
0.0565907
14.5455
0.698318
4.67657
0.0477277
0.0218771
2.69097
3.13166
0.0587463
0.0218309
0.0220855
2.12371
0.0218635
6.25107
0.021481
0.0291694
0.0219372
0.0222698
0.0217032
2.92913
8.58348
5.98708
0.0674818
12.6498
0.0219384
5.51722
9.2637
0.0222705
0.0219618
0.0217153
1.19281
0.0214936
9.97001
0.0310052
0.18761
0.0220743
0.948234
10.9457
1.70507
0.0286109
0.032084
0.0220407
15.4245
0.0214638
0.620301
0.337518
0.0644749
8.51332
8.13544
0.0234088
0.0230489
0.0219473
0.105552
10.5258
8.86504
0.0217315
3.79726
0.0250097
0.10418
0.129379
3.69327
3.68221
0.0214869
0.025291
0.0302998
0.0234961
0.0230075
3.67889
0.0221974
9.4097
0.0216373
0.0214751
0.083081
0.0985637
0.96906
0.022308
18.6414
12.6053
0.77278
0.025905
0.0222329
0.0223148
0.0222269
0.0218837
1.04336
1.60243
0.021987
0.021895
0.0317686
1.65183
0.0254759
0.021906
0.401412
0.0219249
0.0222748
0.0214683
0.0587896
0.0220296
0.0242623
9.76654
0.0647304
0.0221809
4.25369
0.115731
0.0219206
0.0223645
0.0339324
0.0222624
0.0219607
0.0216932
9.7199
0.339331
0.0220503
0.0355192
0.0344817
0.537478
0.021895
5.99669
0.0218567
0.02174
0.611693
0.350511
0.065711
0.021928
0.021888
10.64
3.9086
0.298335
2.75795
0.0221025
0.0227956
0.0220145
19.2717
0.0237161
2.23656
0.022454
0.0218104
0.0228156
0.0216092
0.0218718
0.0608246
0.0217607
5.7901
0.021704
0.0220459
0.0214827
0.0242027
4.42062
5.70682
0.0519913
14.5537
0.0219776
0.0348883
0.0227615
1.86017
0.0215725
0.0214924
4.24046
0.0332362
0.0314374
0.0221118
0.217878
3.88011
6.39492
0.0220067
0.0328571
0.955451
0.0314039
2.60549
0.160083
0.0852039
0.0216833
0.0223416
0.0588176
0.0732821
0.0219856
0.106048
0.0217239
0.0221839
0.022103
0.0217147
0.0218835
0.0219866
0.771944
0.0253569
0.0226223
0.0461131
0.0217257
0.021912
0.0377449
6.5593
0.0785063
0.0647461
4.83762
0.0222338
10.4329
0.0285604
8.05712
0.0595025
0.0222021
0.0218564
0.0230253
10.0997
1.73776
0.050652
0.144146
0.0216087
0.0218388
0.0222477
0.0222015
16.3281
0.0252427
0.0217906
0.211299
0.293423
6.42487
0.0224445
4.2394
0.0523985
0.0405203
0.0321081
0.422601
0.241455
0.0220676
3.75543
0.345748
0.0368563
6.3433
0.0450815
0.0219497
0.0222638
0.0218942
0.0228028
0.0262659
21.5592
0.049465
0.0218668
0.48645
0.0220037
6.88612
3.45887
0.0219515
25.8195
0.0217126
0.0216757
0.0217294
3.56232
11.5664
0.0479537
0.0299648
0.0215438
0.670946
0.0222313
0.0304576
0.0220908
0.0220172
0.0217633
5.9291
0.0225202
0.0395376
0.0282475
0.0222114
0.32372
0.15545
0.0344615
0.0247947
0.0232899
5.09325
5.17483
0.0216139
0.0217077
0.0216094
0.0223442
10.2094
9.80636
0.292302
0.0250212
0.0217622
8.48748
4.78819
0.0220422
19.9425
0.0216852
0.0967281
13.5378
0.0217197
10.8989
10.7551
0.148488
14.5714
6.02925
0.0218057
0.0224226
2.35849
4.23124
0.0223289
12.4513
0.0245927
0.0218862
0.0222738
0.0226779
0.0402275
0.0248481
0.277901
14.5953
0.224281
0.0326512
0.0220789
0.0602871
2.30154
0.0217136
3.57774
0.048364
0.0222196
0.0240987
0.0222414
0.0220515
0.0302678
2.3305
0.0220833
0.0217779
10.4457
3.88031
0.0645648
0.0222611
0.0582626
0.021913
0.0219299
5.84212
9.15456
0.0219187
0.0214615
5.22204
7.28518
0.0492867
0.0220957
8.93329
0.0222947
0.0219232
0.0227822
0.0219299
0.0216042
0.0215992
8.38288
0.199375
0.0252748
1.74765
0.0449919
3.86513
5.62386
5.64022
0.171637
0.021887
0.0222381
0.0220122
0.0219921
0.0706634
0.0218772
0.10127
0.0291648
0.826146
0.0220489
3.87922
0.0343762
11.5389
0.021923
1.7212
0.0298197
0.198236
0.40442
0.0306095
0.021596
8.11646
0.058014
2.39997
0.0215511
5.70581
0.0220275
10.5623
0.443587
0.0407581
0.0219076
0.0220879
4.50148
10.8399
0.0318194
0.0214346
1.13918
0.0852335
0.045128
1.4768
0.0745581
0.0218503
4.43608
0.0218984
0.0332811
0.0215065
9.33674
0.0215138
0.0226042
0.4931
3.91137
0.0222217
0.0731196
0.0236963
0.0726902
0.0218751
0.308534
0.02302
0.0608651
0.0218661
0.0219848
5.07162
0.0283061
10.4237
4.48734
9.04993
0.0224743
0.0215394
0.0216964
0.0252676
0.0371346
0.0314641
12.233
0.0231406
0.412857
0.0403214
0.022281
0.0218395
0.0639498
0.530605
20.8616
0.0218883
4.17742
0.021858
6.6484
1.54744
0.0463036
0.0219917
0.0216641
0.0431459
4.7351
0.0239593
0.0222685
0.0228256
0.0450669
0.0222546
1.17725
5.56239
3.90078
0.022157
0.025936
9.45754
0.0221875
0.0584967
0.0217262
0.73448
0.0352949
0.0219384
0.0418699
0.164868
0.0216527
5.08402
0.0219005
0.177215
0.219396
0.562837
0.301061
0.0221675
0.0220588
16.477
0.0220216
0.0382769
0.0751459
0.0231546
0.0214529
9.09877
0.0241918
0.366982
0.0224565
0.0633471
0.0223221
0.388931
0.0245896
0.0242884
5.01213
0.96987
0.0220893
0.022273
0.148804
5.61128
1.90603
0.647569
0.0291105
0.0219026
0.0217732
4.36755
0.0221388
6.23429
0.104836
4.42129
0.022107
0.0216923
0.0217811
0.0430427
0.0515677
3.59805
3.95261
1.93177
0.297881
0.0215855
2.40244
0.0227088
0.0634848
0.0224292
0.0402497
0.0563931
0.0219095
0.0215429
0.0615081
0.0215995
0.0389969
0.0644014
6.86423
6.42739
0.0391999
4.52815
0.0216685
0.0215339
0.0220745
0.174628
0.057436
0.0470595
0.126963
8.52593
0.0377962
0.137441
0.0217267
0.0217851
13.2178
0.021765
0.261113
0.0214313
0.0218284
4.62049
0.297385
0.021802
0.0898155
0.492086
8.08145
4.00057
0.0246735
0.0696764
0.0488779
8.49013
0.0219321
6.20853
10.7348
0.0232592
0.0249486
0.0215632
0.391314
0.0215421
0.0219789
3.61519
0.0220633
0.0215061
0.272707
0.0607872
3.92031
3.86933
3.4695
4.88641
0.0214679
0.0218873
0.0218075
0.0222053
2.28798
0.0219353
4.29509
0.0226879
10.3518
0.0239035
0.0220006
0.0216647
0.0220863
0.0293797
0.0218296
0.021448
0.44757
0.0217982
0.0516274
0.0222637
16.5641
0.0239107
0.0220779
0.0216445
0.0540392
0.0219024
0.0217512
0.0220888
0.0222147
0.0233021
0.0218054
0.0230453
0.0304045
4.52674
11.3899
10.5637
5.34468
0.0217474
0.0220047
0.0219017
0.0214002
0.0219169
0.0217104
0.184888
0.0218309
0.0222515
0.0220691
0.0220448
0.0218183
11.2274
0.0230649
0.0219674
17.6344
0.0436933
0.0216978
10.1056
13.6909
0.0220202
0.397547
0.582108
0.0219314
0.0436588
0.0234651
0.0215328
0.0268079
0.0217866
0.0424052
0.0220123
0.022247
0.0217209
42.5493
0.0277294
0.0433364
0.0220324
0.0222649
9.90243
0.0250231
0.022037
0.0235088
0.0238738
0.0222518
0.199028
11.9007
2.57982
3.51274
0.20723
0.0360664
0.0222597
10.7109
0.198533
0.0224741
0.061894
0.0222931
0.0218792
0.0222461
2.65106
0.0445485
0.0219972
0.022044
0.260184
0.0217058
0.36044
0.0218742
1.73545
0.356718
2.03789
0.0220789
0.0228584
0.0305329
0.034346
0.0220816
0.037519
0.0802981
0.916349
0.0218078
0.486918
8.92691
0.0215044
4.80186
0.0417916
0.335267
0.121189
0.0219033
0.0272693
0.04087
0.021669
0.0246796
0.0215162
3.88942
4.15119
0.031554
0.0218212
0.189001
0.0694846
2.80984
0.272047
0.0230024
0.0277875
0.0219361
0.0218606
0.0409288
0.0497666
18.1256
0.0217938
0.446218
0.0221917
7.60417
0.241911
4.72427
0.0215812
0.0226482
1.9102
1.74983
0.0407427
7.32994
0.0222335
0.208385
0.0219091
0.0218172
5.52998
0.452609
0.0236568
0.0220936
0.0699269
2.16563
0.170469
0.0621185
0.0217522
0.0220143
0.0217033
2.32617
10.2628
0.0217004
0.0449723
4.53433
0.0830102
0.261858
4.11709
7.81776
4.91418
0.0217104
0.0221411
4.82702
0.0218844
0.0468338
1.49202
9.61043
0.0230064
0.0291449
9.24066
0.601346
1.96918
9.44334
4.49453
3.81856
0.0221109
0.0215769
0.0219865
0.0221443
17.9061
0.0511612
0.349858
0.357053
0.0536238
0.0218046
0.290399
0.0216119
0.0304177
0.0219166
0.0389857
8.56658
8.48113
0.0220711
0.0215583
0.0403307
4.20403
0.227048
10.4561
0.0426098
0.0219374
0.075538
0.0214245
0.0875539
0.0306761
0.021888
4.13922
0.151924
0.544725
0.0583069
0.0220711
0.0214944
11.7259
0.024582
0.021585
0.0221457
0.0222559
0.0216694
7.59961
7.95382
4.97301
1.37443
10.6091
0.0229908
0.0219326
3.73577
0.0237723
0.0998824
5.32297
0.0218622
9.72989
5.85432
0.0634906
0.0323441
0.801718
0.022788
1.72122
0.0371692
4.90279
0.0217969
0.0225848
0.0393294
3.51239
0.1453
0.0646291
12.4027
4.95635
0.0665929
0.216184
3.28018
0.0238652
0.331119
33.7947
0.0351106
0.0582095
5.61713
0.0322301
0.0354908
0.0221037
0.0372008
0.0394884
0.0576995
0.0220888
3.12163
0.146879
4.58782
13.8762
5.05461
0.0381434
1.54025
3.9571
0.0218411
0.277384
3.95139
2.98259
0.0272644
0.0236604
3.4735
8.88755
0.0215617
0.213744
0.0217414
0.0219031
4.34051
0.024686
5.12673
3.83084
5.75625
2.28496
0.0215998
0.0355671
0.0219261
0.0218382
0.104477
0.058165
0.0261371
2.62934
4.58973
0.0222729
0.025699
1.30342
0.022899
0.333219
0.0447876
4.05896
3.96153
0.630078
6.90046
17.8796
4.31073
3.93196
5.00505
0.0305049
0.0245809
0.110475
0.109522
4.51639
1.81567
0.0221322
0.0222168
11.1379
5.05047
0.0240082
11.9939
0.0218873
0.787207
5.98632
4.60327
0.0219184
4.19064
1.4844
0.0262514
0.0336337
10.0137
9.66139
10.4702
8.99365
0.0218918
9.69367
4.23991
0.038553
0.213988
0.0985252
0.0217228
0.0262741
6.90473
5.95217
0.0241726
0.0221716
3.51033
0.0807171
4.95235
0.0796123
1.8136
3.95796
0.0219866
9.17462
0.0222852
0.0302341
0.0219509
0.0216772
0.0216927
0.036771
0.239983
0.0214653
12.1314
0.0774882
6.02165
10.4507
4.54204
0.0219051
6.17058
1.51249
4.82489
0.0335615
0.0219091
8.02033
0.445309
5.24706
0.0516825
0.0230332
0.0216746
10.1592
8.35686
0.0324797
10.2681
0.0296781
0.0220408
3.72667
0.050714
17.4428
0.0217774
0.0285691
4.10304
10.636
4.1872
0.224971
4.04482
4.42345
6.69778
0.0220498
8.36002
0.0459877
0.0218021
0.0215007
0.0218657
9.96704
0.0463963
3.96473
4.52755
0.0375713
0.148378
0.0926357
5.30472
0.263259
10.7844
11.9513
1.31234
0.0786982
0.0215884
0.531706
0.0530059
0.12177
3.74017
6.40312
1.61603
0.0220936
0.0237235
0.0454464
0.0220602
0.0218188
0.0275583
3.9583
0.0275624
0.0239563
3.66945
0.0779372
0.434769
4.32895
4.02767
0.475296
4.55027
12.1598
5.10797
0.0588051
0.0314106
0.0219868
1.2672
0.121465
0.354153
0.0586385
0.0562237
0.0214325
0.256158
5.79681
0.0254298
0.0215627
0.0225696
7.81843
0.0218698
0.022026
0.0657367
4.13219
0.0277072
0.051356
0.156083
0.0292425
0.0568568
0.0218064
0.0219754
0.0411004
0.315359
0.0220875
0.0306899
0.246446
4.5361
0.0219981
9.59941
0.021807
4.00839
0.0228616
0.0230211
0.021525
0.241683
0.0346974
7.7241
9.33884
0.0620078
0.0221629
0.0217103
5.52926
8.00921
0.0215972
0.242976
4.69609
0.0543661
0.0715199
0.0213951
0.0224015
0.0219087
3.7654
0.0423419
0.0220519
11.1217
0.0221762
0.0537211
0.382475
0.0217243
0.089942
0.0636793
14.8966
0.0222159
0.0254552
0.0230022
0.0563595
0.0213785
0.0218963
5.70334
0.371952
0.08358
0.0216659
5.21759
0.0221881
0.0221773
0.0219565
0.55449
11.2235
0.0233951
9.08699
7.24331
0.0670841
6.01474
7.38424
11.3971
7.21262
0.0514028
0.0635883
0.316252
0.0489952
0.0219493
0.028942
0.029362
11.3326
0.0220795
6.84066
0.0219736
0.376606
0.100117
0.0225141
0.0223523
10.5887
12.9728
13.8947
3.97126
0.0218024
0.0739934
11.0645
0.0254211
8.61391
0.0388538
0.0990315
4.33092
0.0338425
0.0219924
0.147882
0.186513
0.0218915
4.00611
1.9746
0.0216922
0.022239
0.0221212
0.0220095
10.7567
0.0216908
0.0484112
0.0220258
0.0219504
0.0309083
0.0219288
3.76156
0.0958913
0.0219991
0.0215887
0.138502
0.0229067
0.0524058
8.29964
11.9059
0.0527671
0.234733
0.0384691
0.0215635
0.182458
10.0559
0.0371947
4.00461
4.76283
0.0703725
0.0382881
0.0267847
0.072629
0.0364537
10.2646
0.0221134
0.0219895
0.0215846
6.21461
9.14655
0.0344202
0.113326
0.0217426
0.0255098
0.0879733
0.421613
0.0218552
0.0600024
5.79428
0.0812885
0.0219859
0.0218778
17.2741
14.8067
0.0219195
0.868247
0.0303318
0.298156
0.272282
0.0218536
6.69735
0.0287448
0.022025
1.76702
0.305452
0.0219069
0.0221633
0.408247
0.021734
0.0220435
0.133167
0.0397672
0.0433161
12.4552
0.0248358
0.0441894
5.48618
0.0217867
5.08136
11.0575
0.0246947
0.0604938
0.225716
0.021913
0.218634
0.0214424
4.75489
1.49343
0.0220029
1.21165
4.07594
0.021883
0.0218963
0.510289
0.0393515
4.0559
3.90356
0.0220945
0.0432001
12.534
0.0221718
0.0474221
0.0667806
0.0325414
1.16902
0.222881
0.0224866
0.350938
8.27242
0.0430186
0.819299
0.0219073
0.0215259
0.0222674
0.0400963
5.69833
0.0220657
0.0333704
11.5904
6.25219
0.0222178
0.0291943
1.90482
4.00684
0.0222244
6.49108
0.0336158
0.0960068
0.0347219
0.0227386
0.0255049
0.0218954
0.0219527
5.74792
0.0219318
0.048589
0.021975
8.35541
0.0224623
0.0228212
0.0215585
0.0232997
0.0219776
0.0410719
9.15143
0.976663
0.0374916
0.0400743
0.0219664
0.030218
0.0521363
5.02063
11.2742
0.0218248
3.74017
0.0220227
2.33072
3.67937
11.0866
0.0218205
0.101188
0.0682096
11.315
0.213834
0.0218079
4.85484
0.29179
0.0355779
1.81808
0.0218998
0.0219295
0.0377309
5.77005
0.0218926
2.30305
0.0324802
4.82412
0.0829548
0.0221585
5.01139
0.0274615
0.0219797
0.366838
0.0218145
2.77369
8.76768
0.158805
0.0265741
0.143652
0.0218927
0.116585
0.0442323
7.41309
0.0219351
0.0215292
0.0262423
0.0290165
0.0429375
4.30223
0.606005
0.034006
0.215768
0.0217762
0.486228
1.36499
0.179743
0.0218953
0.0222599
0.0223038
4.31428
0.0219618
0.0257592
4.71325
0.0732714
0.0219158
0.236927
0.0729296
0.0219816
0.0246634
0.142064
1.34455
0.0701861
0.0430261
4.85247
3.82146
0.359675
0.0260103
0.0219987
0.0239526
0.0239977
0.1751
0.0577907
0.0269095
0.0705126
8.74551
0.0235122
0.0219913
12.4557
0.262066
4.61965
0.178478
0.0251657
0.0232211
0.023195
0.0217205
0.0218376
0.0429659
0.0214878
0.0226038
0.0219927
0.0225995
0.0231187
0.0219357
0.0366589
0.0367415
0.0218671
0.0219206
0.0221193
0.0224513
0.0221558
0.249542
0.0220577
0.022986
1.33985
0.0216024
0.022839
0.0220924
0.0266539
12.3012
10.0546
5.57356
5.43
4.63878
0.26737
0.0218639
0.060924
0.0218873
0.717545
0.0223398
0.028453
0.0220395
0.0538743
0.0219487
0.0307096
0.0217665
2.1383
0.219619
0.0220789
8.00546
4.83705
0.0218628
0.0999049
0.021938
0.0215471
11.0933
0.0218887
0.0689286
0.272558
0.0221046
0.021503
0.0786371
5.01077
0.0243218
0.0229088
3.82163
0.02193
8.51721
0.0495498
10.4159
0.0216415
4.03158
0.0218666
0.022023
0.331912
0.0580117
8.7674
4.88426
16.9798
1.4141
0.156486
0.157044
0.0220465
0.12219
0.0217433
0.0218127
0.088234
0.0218991
0.0219782
0.0215605
0.0215923
0.0554466
4.1744
3.89064
0.369786
6.57456
0.0230343
0.029018
0.0223385
0.0224576
0.0711695
0.0219232
0.0215302
0.0217949
0.0231637
0.0227792
0.167275
0.0871424
0.0459131
0.0221091
0.0505256
0.0521986
6.6425
12.1023
0.0242995
0.0390002
0.022088
9.5879
3.49455
0.0219062
0.0219306
0.0240122
0.0222131
0.469559
0.40057
11.2785
0.0219957
1.28612
0.0219687
5.53197
0.0498775
0.021804
0.0276277
3.45953
0.0260079
0.0274803
0.0294633
0.0905524
5.83334
0.0215417
0.0219116
0.0270743
0.170272
0.0218123
4.98555
0.498847
0.0219008
0.0213941
10.7257
0.0668862
0.0218936
3.21889
11.144
4.82153
0.358827
0.0273395
1.85716
0.022072
10.8759
1.10563
0.660031
0.066594
0.0234673
10.9116
0.0244689
0.0218618
0.0214295
0.203927
0.0216037
1.72223
0.0220463
0.0220154
0.0243459
4.13596
0.0234421
0.0224799
0.0220736
7.60364
7.77701
9.35738
4.095
0.0426013
0.0218923
0.0235451
0.209635
0.102362
0.0219813
0.0485924
0.190389
2.52515
0.0217852
14.568
11.4151
0.038309
0.0220632
0.0233886
0.0219405
0.021646
0.0219254
0.0220333
0.0217034
0.0914674
0.0220957
0.104608
0.0223346
0.0223999
12.4638
0.0737438
0.0224187
0.0224631
5.09851
0.0214821
0.0222752
0.0255346
0.0218085
1.86878
0.0306049
0.022444
0.0415712
0.0218427
0.026674
0.0215327
0.146149
0.0218085
0.0218548
5.59168
0.0226367
0.185814
0.0329646
0.023241
0.0738705
0.0213841
0.0220885
0.0223661
10.1778
0.0231522
0.0218975
2.0077
0.0218869
0.0215886
0.0218805
1.14068
0.0307575
0.109899
0.0319227
0.029403
0.0466441
0.0234496
0.0264698
0.0443788
5.13839
0.0220855
0.0277192
0.0217359
0.21779
0.28295
0.0219023
0.0276167
1.86156
0.0285787
0.0214899
11.2042
0.0253022
0.0762906
5.08833
0.0277434
0.0218413
0.028836
0.0219006
0.0230336
0.0219004
0.0229218
0.0253452
0.0219695
0.0220682
0.0303628
0.0220062
0.104472
0.0217769
0.0232276
0.0218748
0.0284083
3.99329
0.0219361
0.0218155
0.0905393
0.0223643
0.0218489
0.241224
9.16729
6.35553
0.0219571
0.0240052
0.0347855
0.0222445
0.0221257
0.0334504
0.155262
0.0215104
0.0498812
0.0219121
0.0218835
0.0216554
0.0214937
0.0223402
0.0422844
0.0336217
0.0261617
5.07873
0.023733
0.027224
0.0216571
4.7699
0.354385
4.5015
0.0219387
0.0459558
0.0277008
0.0219092
0.0221203
0.039339
4.47635
5.22675
0.0216711
0.0269369
8.11358
0.0224694
0.257688
10.4739
5.04568
0.0286915
0.0219191
0.0379062
0.0434695
0.169645
9.1748
1.55619
4.81329
0.022389
0.022174
0.0218817
0.123566
0.0217893
0.0216565
0.0374833
0.0218595
0.0217438
0.0218737
0.0483407
0.0218031
0.021766
0.0219635
5.32337
0.0214756
0.0219405
0.0221068
0.022071
0.0219373
0.0667544
0.0696042
1.11313
0.0214684
0.0275199
0.0930064
9.40496
5.41289
0.022065
0.022275
0.0487769
0.0889298
0.0251923
0.363024
0.0219166
0.392099
0.022278
3.87162
0.0224903
0.0218764
0.0459396
0.0218965
0.0216807
0.022441
0.569295
0.0239799
0.0222378
0.0221784
0.0219039
0.0394737
0.0216098
0.0219092
0.0254701
0.0941609
0.0238692
0.0215636
3.97257
6.13549
0.021889
0.817576
0.0221442
0.0286939
0.0794525
0.299572
0.0230578
0.0226253
0.0219682
0.242922
0.0278772
0.0218955
0.0218888
0.0228486
0.18657
0.0216652
0.03453
0.0234856
0.0330765
0.0469921
0.0375099
0.0829774
3.75684
0.0244432
0.0220405
8.46675
0.46243
0.0219292
0.0214641
0.0220632
0.0219119
0.0218717
0.0234941
0.0216469
0.0220779
9.63333
3.98072
0.0316309
0.0218943
5.73077
0.0234648
0.0216878
8.71765
0.0229979
0.0215908
0.0220934
0.0220383
0.0368652
0.0219356
0.0524096
0.0219052
0.0217692
0.021902
0.0320977
0.035502
0.0218873
0.0558533
3.95073
0.0227833
0.0218842
0.0569206
0.0216547
0.0218919
0.0218506
0.0298662
0.0220535
10.95
0.0221426
0.224554
3.16155
0.0571281
0.0226544
0.0219981
0.021927
0.0219245
0.028833
0.202314
0.141963
0.021794
0.023294
11.4929
0.0214922
0.151332
0.0219592
0.0223331
0.030333
0.0576613
0.0219519
0.0332888
0.027218
0.0543568
3.68975
6.96111
0.021644
0.0219236
0.0310332
0.0221186
0.0223784
0.0499435
0.0222508
0.0834576
0.0217718
0.0643808
0.022106
0.0738415
0.0578361
3.9474
10.2067
0.0219129
0.0385019
0.711363
0.308262
0.0215452
0.0215303
0.162027
0.02193
0.0217863
0.0217233
0.0214711
0.067617
0.0818255
17.6985
0.0220206
0.0459588
0.0222548
0.0215427
0.022722
4.22837
0.144156
0.0218708
0.0220024
0.0218217
8.21593
0.0219969
0.0218961
0.022245
0.0219024
0.0407576
0.0218286
4.98612
0.0219799
0.0220849
0.0220702
0.021837
0.021686
0.0220064
7.88256
0.021771
0.0218975
0.364671
0.0217619
0.0220431
0.0221119
0.0221569
0.0547032
0.0218648
0.0219664
2.42316
0.0228274
0.0220386
0.0220983
0.021423
4.27392
0.0226277
0.0220564
0.0218599
0.0253602
0.0219591
2.30264
0.021787
0.0220094
9.44547
0.0219766
0.0645346
0.0220452
0.0213848
0.0214374
0.0292594
0.036433
0.0218036
0.022286
0.0232357
0.0218903
0.02211
0.0219762
0.0216554
0.02153
0.0215457
4.91523
0.0219473
0.0218178
5.97442
0.0218968
0.0263296
0.157169
4.08667
0.0217938
0.0219555
0.0219472
0.0216023
0.0226119
0.0383447
0.0234132
0.0374148
0.0217275
0.0245088
0.0218882
0.0214455
0.0266299
0.0585885
0.0231197
0.0276154
0.022027
0.021946
0.0221201
5.28544
0.0226537
0.0220118
9.61278
0.0222031
2.18128
0.0220634
0.0219198
0.0216856
3.92319
0.0218552
0.0245193
0.0223747
0.0220721
0.0219592
0.0220874
0.0218395
0.0236141
0.0218669
0.0365121
0.0222475
0.0390227
0.0214157
0.021599
0.0232121
3.28505
0.0221495
0.022049
0.0223428
0.0218939
0.0234339
4.50371
0.0224596
0.0262084
4.61451
0.573218
0.0224279
0.0221455
0.144148
0.0767754
0.022515
0.0221151
0.0216362
0.666508
0.0220647
11.2669
0.0215895
0.0215153
0.0221038
0.0215856
0.0228037
0.0215576
0.0219877
0.0222649
0.0633905
0.0232448
0.0221379
0.0215777
0.343534
0.0695822
0.0214674
0.0221033
0.0229928
0.0222389
0.0220589
0.0215328
3.62693
0.0215373
0.021881
0.0629072
0.0215294
6.1725
0.0218149
0.0463739
0.0259955
0.0219608
0.0214771
0.0219059
0.0216944
0.0220432
0.0215158
0.0215742
0.681158
4.07648
4.98902
0.0215716
3.1117
0.0218849
0.0580406
0.0219037
0.0219095
0.0221089
5.53404
0.0219352
0.0218926
0.0221267
0.0218821
0.826819
0.0218936
5.01158
0.0214179
0.0219825
5.9898
11.5596
0.0219827
0.0219471
0.0264161
0.0220163
0.155548
0.0217394
0.857236
0.021734
0.0349235
0.0221396
0.021804
0.0219292
0.021879
0.0227879
0.0218279
0.0307189
0.035279
0.111076
0.0215025
10.4587
0.021887
9.69112
0.0218938
9.03273
5.83978
0.0217364
0.0218968
0.021539
0.021807
0.0220437
0.0216383
0.0215344
0.0219992
0.0214125
0.0958908
0.0221098
3.86877
0.0215321
0.0214649
0.0219113
0.0219035
0.0221626
3.67805
0.0223774
2.43873
0.0214407
0.0221192
0.0351713
0.0215587
0.175234
0.0227865
0.0219155
0.0391909
0.0214811
0.0219715
0.0221956
0.021532
0.0278401
0.039794
0.0215841
0.0221124
0.0220458
9.68817
0.0230052
0.0214603
10.8097
0.0536371
0.0215794
0.0219062
0.212613
0.0222553
0.0214097
0.35175
0.197578
0.0222686
0.0214114
0.0222396
0.0348257
0.0215406
0.154179
0.0215757
0.0215786
0.0414373
0.0543048
0.0215743
0.0215344
0.0214157
0.02167
0.0216826
0.0387891
0.02196
0.0216816
0.0221105
0.0218368
6.40695
0.0222722
4.15436
0.0257209
0.0274285
0.0221421
4.2235
0.0217898
4.60169
0.0214236
0.0219471
0.458103
0.0219657
0.0225223
0.0216278
0.0242935
0.0216204
0.0264228
0.0214591
3.11545
0.0220432
0.0214763
0.0214848
0.0215468
0.116191
0.0217461
6.07181
0.0219053
0.0243346
0.0214757
0.0220165
0.195217
0.0219952
0.10199
0.0218026
0.0227379
0.0220122
0.0221335
0.0222036
0.0218803
0.021975
0.215902
0.0215472
0.0219322
0.0223173
0.0220583
0.0220555
0.033009
0.0215771
0.0219048
0.0218242
0.0215663
0.021751
0.0219918
9.90544
0.185239
1.62044
0.0214099
0.0229998
0.0221263
0.0259982
0.141038
0.226393
0.0321293
0.0215271
0.0219722
0.0216203
0.0221449
0.022115
0.0219007
4.55867
0.0514854
0.0219254
0.201587
0.0221379
7.77771
0.0219509
0.0218844
0.0217932
0.0214677
0.0214596
0.0216256
0.0216307
0.021749
0.0398011
0.0223453
0.0218931
5.26807
0.021542
0.022162
0.0219807
0.021472
0.0218932
0.282592