/*--------------------------------*- C++ -*----------------------------------*\
| =========                 |                                                 |
| \\      /  F ield         | OpenFOAM: The Open Source CFD Toolbox           |
|  \\    /   O peration     | Version:  v2012                                 |
|   \\  /    A nd           | Website:  www.openfoam.com                      |
|    \\/     M anipulation  |                                                 |
\*---------------------------------------------------------------------------*/
FoamFile
{
    version     2.0;
    format      ascii;
    class       volVectorField;
    location    "250";
    object      U;
}
// * * * * * * * * * * * * * * * * * * * * * * * * * * * * * * * * * * * * * //

dimensions      [0 1 -1 0 0 0 0];


internalField   nonuniform List<vector> 
9793
(
(0.967308 -0.0129249 1.05157e-20)
(0.00526732 -0.0594304 0)
(0.993746 -0.00636584 8.22579e-21)
(-0.0578476 0.567015 -7.39483e-20)
(0.999952 -4.20944e-05 -3.78859e-22)
(1.28053 0.102073 0)
(1.12922 -0.260168 6.89153e-20)
(-0.243875 0.0697452 1.79693e-19)
(1.02231 -0.0292868 0)
(0.0548149 -0.0625757 0)
(0.999947 -0.00115216 0)
(0.999929 -0.00137749 0)
(1.00226 -0.00776347 3.02218e-21)
(0.248248 -0.0700596 2.63789e-19)
(1.01832 -0.015477 1.77818e-22)
(1.05285 0.0299685 -9.74711e-21)
(1.16871 -0.0431639 2.71622e-20)
(0.99571 -0.00819492 0)
(-0.0958094 0.194367 -2.11972e-20)
(1.01298 -0.00264087 -1.89911e-22)
(1.01773 -0.00468099 9.91921e-22)
(0.999997 -5.88619e-05 6.16634e-21)
(0.0511079 0.585205 -4.75208e-20)
(-0.211643 0.0396127 -2.1927e-19)
(0.332916 -0.0879067 0)
(0.927836 -0.0501513 -1.31409e-20)
(0.99992 -0.00353274 -3.45789e-21)
(1.00001 -0.000297318 -7.40281e-21)
(1.01294 -0.00280106 -5.19172e-23)
(1.21249 -0.147428 -1.05411e-19)
(-0.764203 -0.138206 0)
(1.43051 0.110911 0)
(0.997098 -0.00507231 -6.22009e-21)
(0.99807 -0.00854241 0)
(1.00459 -0.000422363 -2.79236e-21)
(1.08707 -0.00668132 1.83416e-20)
(1.04936 0.018303 -1.15181e-20)
(0.925306 0.00740742 5.15905e-20)
(-0.372189 0.27195 0)
(1.09222 -0.058165 0)
(1.19717 -0.142118 5.69987e-20)
(1.26122 0.524238 0)
(-0.0753953 0.340946 1.08369e-19)
(1.00001 -0.00022543 9.14338e-21)
(0.993639 -0.00183991 1.35642e-20)
(0.997165 -0.00164432 0)
(-0.862592 0.023599 1.19082e-20)
(1 -0.000168654 -6.06735e-21)
(1.02249 -0.000391386 3.15318e-21)
(0.995486 -0.00785759 0)
(1.08611 -0.00304935 -1.40658e-20)
(1.00489 -0.000516583 3.07822e-21)
(1.1206 -0.0212759 -1.69011e-20)
(0.999987 -0.000271384 -5.95594e-21)
(0.906611 -0.109262 -1.9956e-20)
(-0.0717878 0.560006 4.77152e-20)
(1.00248 -0.0070775 0)
(1.15187 0.0489512 -3.22343e-20)
(1.02272 -0.000928673 0)
(1.00001 -9.2477e-05 0)
(0.910086 -0.00934683 -9.13764e-21)
(0.822812 -0.312656 -3.74668e-20)
(0.995152 -0.00663223 0)
(1.09336 0.0343503 8.18937e-21)
(1.00258 -0.00115967 -1.79771e-21)
(1.02129 -0.0279309 4.01074e-22)
(-0.756005 -0.0334256 2.45337e-19)
(1.05724 -0.0314225 4.46323e-22)
(1.0487 0.0227351 6.97197e-21)
(0.352732 0.327103 -6.9715e-21)
(0.98218 -0.00953727 0)
(0.602107 0.0614398 1.23678e-19)
(-0.383255 0.102277 5.54594e-19)
(1.24534 0.45647 4.88702e-21)
(0.529121 0.0575783 0)
(0.999979 -0.000393773 -1.15918e-20)
(0.805997 -0.114411 2.96997e-21)
(1.02078 0.167063 -3.75032e-19)
(0.995643 -0.00497492 -7.99618e-21)
(0.999977 -0.000173538 -4.83957e-22)
(0.790654 -0.116292 -7.34401e-20)
(-0.0949896 0.211105 7.03034e-20)
(1.16055 -0.0369197 -3.10858e-20)
(0.985393 -0.0635009 0)
(1.05067 0.0211024 1.05675e-20)
(1.37568 -0.20851 -1.68431e-20)
(0.999957 -0.000152336 5.15498e-21)
(1.13606 0.0666716 0)
(-0.383866 0.251889 -7.3886e-21)
(0.810228 -0.293469 -3.26427e-21)
(0.00998077 0.573772 -5.26977e-20)
(1.48516 -0.352751 2.09925e-19)
(1.46626 -0.375156 -7.97446e-20)
(1.10956 -0.117127 0)
(-0.0691026 0.360788 0)
(0.997208 -0.0107699 3.25593e-21)
(0.600351 0.105231 0)
(1.16166 -0.0728176 7.1212e-20)
(1.04825 -0.0553839 5.75063e-21)
(0.999974 -9.08143e-05 1.49419e-21)
(-0.142327 0.35232 5.37188e-20)
(1.11577 -0.0228615 0)
(0.687966 0.469511 -3.52593e-20)
(0.994095 -0.00204525 1.65027e-20)
(0.203835 -0.167121 1.03797e-21)
(0.754448 0.201331 0)
(1.20528 0.425783 0)
(1.00422 -0.00565245 7.17405e-21)
(0.995633 -0.004679 7.89785e-21)
(0.999995 -9.03857e-05 -7.7699e-21)
(1.00005 -0.000567541 -4.86469e-23)
(0.0492326 0.581863 -5.00591e-20)
(0.100755 -0.0688104 -2.388e-19)
(-0.39551 -0.114965 1.36118e-19)
(0.982925 -0.0100148 0)
(0.999136 -0.0027434 1.68414e-23)
(1.0329 0.0251158 -6.31909e-21)
(0.997426 -0.00222362 0)
(-0.117279 0.533731 -5.17532e-20)
(0.996707 -0.00157487 2.01108e-21)
(-0.0199759 -0.198663 -1.95147e-21)
(1.14163 0.064897 3.41424e-20)
(0.766398 0.199206 6.09156e-21)
(1.12756 0.00610351 0)
(1.05123 0.0162655 -1.03623e-20)
(0.996894 -0.00132058 -1.76411e-21)
(1.18498 -0.0600766 0)
(-0.763581 -0.153016 -2.05745e-19)
(1.21815 0.0724603 1.60286e-20)
(1.22842 0.0842015 0)
(1.05482 -0.00320866 0)
(1.00665 -0.0116248 1.44355e-21)
(0.968878 -0.0139546 0)
(1.05018 -0.0273455 0)
(1.08183 -0.0108675 0)
(1.22223 -0.296123 0)
(1.13226 0.216807 3.21121e-21)
(1.03501 0.0246229 3.51837e-21)
(0.999997 -0.00031697 1.0521e-20)
(1.18317 -0.0226397 2.91708e-20)
(-0.0739677 0.265574 0)
(1.08532 -0.00979287 -3.9487e-20)
(0.987423 -0.0171647 -3.79586e-21)
(1.12362 0.0581834 3.75537e-20)
(-0.801519 0.0414511 1.88714e-19)
(1.06938 -0.472006 6.49218e-20)
(0.996927 -0.000816996 3.00417e-21)
(0.577161 0.170846 4.63197e-21)
(1.00646 -0.0119686 -1.73101e-21)
(0.996764 -0.0010823 1.98636e-21)
(0.999253 -0.00414117 3.75646e-21)
(0.178994 -0.113435 -1.17641e-19)
(1.04542 -0.0527072 0)
(0.999863 -0.00355026 8.5194e-21)
(0.987894 -0.00313874 -1.4334e-20)
(1.42335 -0.432225 9.10117e-20)
(1.17695 -0.0377513 0)
(0.995206 -0.00698786 0)
(1.45568 0.143101 0)
(0.987191 -0.0103172 7.67792e-21)
(1.13229 0.0617624 1.58102e-20)
(1.05695 -0.0046726 -3.63163e-21)
(1.01768 -0.00502882 -6.99795e-22)
(0.576423 -0.387662 9.23703e-20)
(1.0326 -0.00537669 3.79777e-21)
(1.20534 0.170352 3.05515e-19)
(0.514636 0.353186 -2.00868e-20)
(1.03631 -0.00801603 -1.93687e-20)
(1.00423 -0.00515605 -4.36104e-21)
(0.99994 -0.000774516 0)
(0.986555 -0.0167492 4.61511e-21)
(-0.140625 -0.0668796 0)
(0.475341 -0.258378 -1.44747e-19)
(-0.42996 -0.39309 9.25145e-20)
(1.00249 -0.00799536 -3.25562e-21)
(1.25853 0.0934445 0)
(0.993803 -0.368 1.35688e-20)
(0.543322 -0.482052 5.05506e-20)
(0.995296 -0.00543319 0)
(1.05771 -0.0259558 1.40943e-20)
(0.348978 -0.180338 2.48632e-21)
(-0.898642 0.0158164 -1.94797e-19)
(1.14616 0.067372 -4.57263e-20)
(0.996899 -0.00190112 -6.60411e-21)
(0.997939 -0.00147258 0)
(1.00439 -0.00546815 2.54225e-21)
(0.814958 0.177937 -6.15611e-21)
(-0.502828 0.0715282 -1.87685e-19)
(0.852974 -0.43649 1.01937e-19)
(0.735571 0.453728 5.61488e-20)
(1.01902 -0.0266044 3.36294e-22)
(0.108153 0.264576 2.33999e-20)
(0.40156 -0.109364 1.64598e-19)
(0.922141 -0.0139625 2.95324e-20)
(1.02263 0.00196386 4.19156e-21)
(0.966445 -0.0449343 0)
(0.184878 0.147853 0)
(1.01156 -0.00287632 0)
(0.995527 -0.0084414 -9.94176e-21)
(0.999744 -0.000521908 0)
(0.97999 -0.00971302 1.09512e-20)
(1.01888 -0.00346612 1.12325e-21)
(1.08883 0.00387613 7.84086e-21)
(1.06293 0.00600834 -8.68989e-21)
(-0.195262 0.342737 3.61132e-20)
(0.985082 -0.00228714 0)
(1.08008 -0.0526812 0)
(1.03679 -0.00655464 -5.60877e-21)
(0.974006 -0.0245974 -7.58323e-21)
(0.775357 -0.522196 0)
(1.17587 -0.0257111 -3.85959e-20)
(-0.0656725 0.290645 4.38204e-20)
(1.01044 -0.00286809 8.46855e-23)
(0.255146 0.309613 0)
(0.981039 -0.0637432 0)
(1.04788 0.0904339 -8.99203e-21)
(1.01852 -0.0163017 7.38412e-23)
(1.23603 -0.281952 2.8799e-20)
(0.99922 -0.00251863 -4.17474e-21)
(0.752393 -0.0310357 -4.1767e-20)
(1.1709 -0.0721359 -1.27608e-19)
(1.01898 -0.00382545 -1.8603e-21)
(0.397177 0.524574 -5.07731e-20)
(-0.27491 -0.647736 3.60731e-20)
(1.10083 -0.116046 1.99895e-20)
(0.996653 -0.0124926 0)
(1.14109 0.0151346 1.06398e-20)
(-0.094222 -0.621375 -8.02619e-20)
(0.765432 -0.0599029 0)
(0.761669 -0.0702165 -6.78528e-21)
(-0.22633 0.445883 1.55606e-19)
(1.18437 0.0697847 -2.64878e-20)
(1.05023 0.0839632 0)
(1.09614 0.0370844 2.06107e-20)
(0.410657 -0.0859856 -2.207e-19)
(1.01845 0.000376161 7.8356e-22)
(0.170233 0.380557 -1.7847e-20)
(-0.383372 -0.128737 -4.35546e-21)
(1.01132 -0.00281729 0)
(0.999816 -0.000118851 -2.27975e-22)
(1.24435 0.503971 1.20637e-19)
(0.990349 -0.0127993 5.18331e-21)
(1.00004 -0.000525419 7.11845e-21)
(1.14973 0.0500183 -1.40991e-20)
(1.1481 0.0525072 0)
(1.01964 -0.0281627 -1.13175e-22)
(1.05954 -0.024396 8.75634e-21)
(1.08469 -0.053033 0)
(0.948979 -0.166543 2.25957e-20)
(1.0603 -0.0161184 9.24373e-21)
(0.995268 -0.00511886 0)
(1.07876 -0.16917 -2.49673e-21)
(-0.0897713 0.314779 -9.49984e-20)
(1.01841 -0.00412367 1.31828e-21)
(-0.365457 -0.527737 -1.4277e-19)
(0.999989 -0.000313399 9.08045e-21)
(0.999891 -0.00184992 6.93193e-21)
(1.00906 -0.000544317 0)
(-0.0942776 0.542667 -4.51675e-20)
(0.99475 -0.00116103 8.93607e-21)
(1.36306 -0.419903 5.85119e-20)
(0.224917 0.129188 -2.56698e-21)
(1.00047 -0.00262548 2.52548e-21)
(0.999329 -0.00242333 -8.80726e-21)
(1.4866 -0.167392 1.29154e-19)
(1.00904 -0.000318937 1.1435e-21)
(0.999915 -0.000274922 0)
(1.00935 -0.000295693 9.72874e-22)
(0.150054 0.147072 3.9487e-21)
(0.580284 -0.353179 -1.5099e-19)
(0.940507 -0.0464384 0)
(0.866345 -0.489116 0)
(1.15566 0.045427 -9.18655e-21)
(0.551231 0.363432 4.00399e-20)
(0.122953 0.544689 0)
(1.03763 -0.00915548 1.23504e-20)
(-0.225587 -0.017351 -1.45468e-19)
(0.999991 -0.000319921 -5.73256e-21)
(-0.0303367 -0.59932 1.14237e-19)
(0.377013 -1.10153 -7.48477e-20)
(-0.397901 0.10061 -2.61154e-20)
(0.0427829 -0.170401 0)
(1.17747 0.065229 5.48609e-20)
(1.05471 -0.000449029 1.3426e-20)
(1.15301 -0.0413715 2.84974e-20)
(1.06091 0.00445934 2.53905e-20)
(1.02246 0.00308632 0)
(1.03714 -0.000630115 0)
(0.802584 -0.496142 6.26126e-21)
(0.924141 -0.0529419 3.69075e-22)
(0.999392 -0.00216403 -4.55574e-23)
(1 -8.04197e-05 -3.87124e-21)
(1.01068 -0.002939 0)
(1.01171 -5.81208e-06 0)
(1.0184 -0.00450409 -1.41526e-21)
(0.153783 0.546202 0)
(1.00437 -0.00655432 0)
(1.01661 -0.0156189 2.25856e-23)
(1.01151 -9.6505e-05 6.64055e-23)
(1.00249 -0.00734209 -2.07981e-22)
(-0.038724 0.20558 -6.38744e-22)
(1.08486 -0.46924 -8.59103e-20)
(0.707752 0.0959047 0)
(0.953838 -0.0103217 0)
(1.12623 0.053643 -8.24372e-21)
(1.01096 -5.973e-05 0)
(1.19335 0.341998 -2.47528e-20)
(0.100038 -0.106099 1.34493e-19)
(0.99432 -0.00168779 -7.75445e-23)
(0.350848 0.124905 -1.84339e-20)
(1.09317 0.0257667 0)
(0.993357 -0.00205228 -1.71571e-20)
(-0.0022464 -0.0520691 -2.3998e-20)
(1.23011 0.364752 -1.0432e-21)
(0.997338 -0.00504627 7.80119e-22)
(1.0783 -0.17819 1.57672e-20)
(0.388036 1.14275 0)
(0.978775 -0.0226446 3.08558e-21)
(0.849093 0.0316761 4.80774e-20)
(1.01747 -0.0150987 -2.19361e-22)
(0.974208 -0.0207447 1.34384e-20)
(0.132359 -0.569666 0)
(0.898308 -0.164005 1.95485e-20)
(0.998109 -0.00827919 0)
(0.996565 -0.0026023 1.15675e-22)
(0.956253 -0.00985759 0)
(1.05183 -0.386462 -6.12807e-20)
(0.0968316 -0.153937 0)
(0.993677 -0.005904 -1.95649e-20)
(1.00436 -0.00596881 -5.03153e-21)
(1.02323 -0.00726626 2.64435e-21)
(-0.123792 -0.0635842 -5.35118e-20)
(-0.207914 0.0932223 1.21541e-19)
(0.0403339 -0.230306 -8.55878e-20)
(1.01837 -0.000251494 -2.03099e-21)
(0.898642 -0.176909 3.38339e-20)
(0.84545 0.0408129 -7.19375e-20)
(0.810368 -0.675069 -1.50225e-20)
(1.15932 0.0327156 -4.12975e-20)
(1.01775 0.0013621 2.74363e-22)
(1.01959 0.00130033 -1.75493e-22)
(1.02286 -0.00774632 7.11514e-22)
(1.14659 -0.0362092 -2.79302e-20)
(0.992971 -0.0305918 6.90268e-21)
(0.0521986 -0.29525 -9.188e-20)
(0.998505 -0.00261939 -1.26411e-20)
(1.0082 -0.0109136 -2.1911e-21)
(0.209013 -0.273404 5.44315e-20)
(0.189479 0.533401 0)
(0.164755 0.266189 -6.70922e-21)
(1.01153 1.52749e-05 -3.92012e-23)
(-0.169448 0.388458 -2.74852e-20)
(0.987176 -0.0736931 -3.78987e-21)
(0.233563 -0.614393 -4.84347e-20)
(-0.0160536 -0.209655 3.60151e-19)
(-0.209303 0.437154 -2.19836e-19)
(0.997447 -0.0613531 0)
(1.09557 -0.0615076 1.36362e-21)
(1.16176 0.2357 -3.31467e-21)
(0.0378945 0.563313 1.61813e-19)
(0.0160619 0.580754 -5.77694e-22)
(0.914566 0.0245933 2.80092e-20)
(1.00001 -0.000333 -1.05164e-21)
(0.935947 -0.0460022 -9.66893e-21)
(1.02135 0.000142238 0)
(1.00488 -0.00649692 0)
(0.992428 -0.0289585 -6.70306e-21)
(1.00005 -0.00391452 1.739e-21)
(1 -3.2496e-05 0)
(0.154195 -0.315457 -1.29696e-19)
(0.999931 -0.00100535 0)
(1.18852 -0.0811664 0)
(1.09225 -0.0482359 0)
(0.979802 -0.0769729 -9.03513e-21)
(1.01748 0.00146973 2.14734e-21)
(0.987281 -0.0665563 7.9549e-21)
(-0.0534729 0.464448 -3.30976e-20)
(0.369846 0.0190817 1.32999e-19)
(0.179281 -0.369644 -2.21091e-19)
(1.15682 0.0289703 3.04467e-20)
(1.00789 -0.0104159 4.81428e-21)
(0.999704 -0.0635908 -4.46611e-21)
(0.994221 -0.00658479 -1.94704e-21)
(1.18425 -0.420735 0)
(1.01045 -0.000836846 -6.03207e-22)
(0.141701 0.236575 -1.37938e-20)
(0.935854 -0.399254 -2.21094e-21)
(1.11419 -0.266173 -5.10978e-20)
(-0.0356652 -0.223054 0)
(0.0942368 -0.533042 0)
(1.00033 -0.00206626 1.42169e-21)
(0.997688 -0.0124471 -6.7719e-21)
(1.10297 0.224381 0)
(1.20185 -0.412689 2.63981e-20)
(0.985415 -0.00156298 1.73122e-20)
(-0.188464 -0.201483 1.92365e-19)
(1.00035 -0.00222346 0)
(0.999638 -0.00120226 -7.89322e-21)
(0.520784 -0.800389 3.35288e-20)
(1.01042 -0.0027189 -1.05344e-21)
(1.1545 0.0487166 1.8523e-20)
(1.01872 0.000102967 4.82732e-21)
(0.391928 0.217986 2.41903e-20)
(0.998644 -0.00255074 1.13699e-20)
(1.0326 -0.00422077 -4.24504e-21)
(0.0261178 -0.448062 6.06987e-20)
(0.62643 0.0600344 5.95563e-20)
(1.07002 0.107487 0)
(0.921358 -0.0180748 1.54254e-20)
(1.00067 -0.00296283 -1.43506e-21)
(1.0023 -0.0165268 -7.29105e-21)
(0.731808 0.16459 -1.39794e-20)
(1.15779 -0.0832291 -3.44635e-20)
(1.01704 -0.00192253 0)
(0.999623 -0.000312946 8.38776e-21)
(0.897571 -0.10756 0)
(0.851939 0.0582121 0)
(1.06273 0.109678 0)
(-0.834658 0.0293766 0)
(0.999681 -0.000592313 4.94612e-22)
(0.997767 -0.00868696 0)
(0.645954 -0.433178 -5.16985e-20)
(1.0007 -0.00290331 6.84769e-21)
(-0.109129 0.338829 6.32847e-20)
(0.587764 -0.478313 0)
(0.99773 -0.00165085 1.9598e-23)
(0.997579 -0.00541148 6.63452e-21)
(1.03652 -0.001792 0)
(1.00045 -0.00246093 0)
(1.02264 -0.00644885 6.6164e-21)
(-0.168786 0.314028 -9.6342e-20)
(0.748701 -0.04518 0)
(1.32787 -0.179675 -7.19364e-20)
(0.899873 0.0395349 -1.39612e-20)
(1.03915 0.0143558 7.92621e-21)
(1.12909 0.00145735 0)
(0.929081 0.00773484 7.44529e-21)
(-0.113811 0.538079 0)
(0.913468 -0.0132163 0)
(0.999971 -3.39399e-05 0)
(1.05898 -0.0294267 -1.70921e-20)
(1.09832 -0.445999 3.80039e-20)
(0.984099 -0.0122771 1.17697e-20)
(0.986319 -0.0103553 0)
(0.98088 -0.0090792 0)
(1.01029 -0.000817883 5.97641e-22)
(0.999346 -0.00727913 4.6364e-21)
(1.01501 -0.0177921 0)
(0.997268 -0.00214319 0)
(1.00023 -0.00166884 5.17778e-21)
(0.975683 -0.0436389 0)
(1.06139 0.00117072 9.67015e-21)
(1.15061 0.0497556 4.71309e-20)
(1.01069 -0.000147457 0)
(0.224329 0.173682 0)
(0.929312 -0.0399513 0)
(0.941803 -0.424155 -5.70375e-21)
(0.123426 0.500474 -5.19934e-21)
(1.02302 0.0027078 -4.11129e-21)
(0.366575 -0.173448 -2.96876e-20)
(1.13047 -0.244236 0)
(1.02309 0.00150044 -2.23029e-21)
(1.01044 -0.00116517 -6.97116e-22)
(0.988074 -0.0189878 1.66184e-20)
(0.172994 -0.297016 -1.59219e-20)
(1.15952 0.0446295 -1.03696e-20)
(1.01053 -0.00111483 6.20583e-22)
(0.998879 -0.00165186 -4.46725e-21)
(0.999728 -0.000675129 3.93048e-21)
(0.736698 0.151343 -4.664e-20)
(0.981203 -0.389444 1.22366e-20)
(0.937194 0.211413 0)
(1.00238 -0.00115641 1.80454e-21)
(0.988017 -0.00247279 -1.01647e-20)
(0.870251 -0.0288291 1.82146e-20)
(-0.937343 0.00324634 -5.2562e-20)
(-0.377571 0.156242 1.3016e-19)
(0.943861 -0.0212772 -3.50468e-22)
(1.0483 0.000104808 1.05938e-22)
(-0.35319 -0.570834 0)
(1.29169 0.240141 1.60145e-19)
(1.12325 0.022314 -3.28984e-20)
(0.981027 -0.0269873 -1.17983e-20)
(1.00742 -0.0113114 -2.7252e-21)
(-0.216853 0.340631 3.27901e-20)
(0.995881 -0.0103185 0)
(1.01649 -0.368558 -1.42134e-20)
(0.914165 0.00318807 -4.29097e-22)
(1.01662 -0.00176574 0)
(0.613279 -0.342623 5.39709e-20)
(1.07426 -0.047569 0)
(-0.0924208 0.47062 2.11356e-21)
(1.0025 -0.0160292 6.32015e-21)
(-0.0938333 0.206831 0)
(1.43407 -0.0340115 0)
(1.05262 0.0269181 1.46997e-20)
(1.54238 -0.118682 0)
(0.996795 -0.0104932 -7.27526e-21)
(0.836861 -0.634587 0)
(0.998527 -0.00219811 0)
(0.998613 -0.0123244 -2.53828e-21)
(0.999958 -0.000723403 6.13574e-21)
(0.995786 -0.00747761 -7.45598e-21)
(0.40561 0.0688138 1.01623e-20)
(0.997155 -0.0113855 -1.09608e-20)
(1.02234 -0.00202306 9.51961e-23)
(0.956092 -0.0160277 1.34371e-20)
(1.01857 -0.000583173 -2.0484e-21)
(1.00722 -0.0116927 2.95185e-21)
(1.06134 -0.19286 -1.28304e-20)
(0.988076 -0.048512 1.53974e-20)
(1.09585 0.0288527 1.03419e-20)
(1.00138 -0.00347496 0)
(1.00126 -0.00330733 -5.66882e-21)
(-0.0670924 0.443662 2.95121e-20)
(0.665134 0.0628029 -1.05087e-19)
(0.946406 -0.0207399 -1.05489e-20)
(-0.409422 -0.460199 8.03046e-20)
(1.05906 -0.000312647 5.05265e-22)
(0.988136 -0.0328458 8.79951e-21)
(0.994962 -0.000893977 -9.75994e-21)
(1.023 -0.00600586 -5.39447e-23)
(0.133865 -0.248067 1.63775e-19)
(1.02207 -0.00149133 -6.23305e-21)
(1.00114 -0.000470797 0)
(-1.03484 -0.0538512 0)
(1.30411 0.492183 0)
(0.961333 -0.169141 -2.47799e-20)
(1.00225 -0.00750267 0)
(0.99999 -0.000108854 -5.68125e-21)
(1.03217 -0.0172865 -2.12309e-21)
(0.999946 -0.000432146 0)
(-0.328202 -0.564258 2.01022e-19)
(0.977018 -0.0227015 0)
(0.935774 0.509787 -2.96454e-20)
(1.05101 0.0117708 0)
(0.332453 0.510862 -8.03813e-20)
(0.999966 -0.000199018 -7.07029e-21)
(-1.10526 -0.0289984 4.0468e-21)
(1.00663 -0.000214603 0)
(1.06486 -0.403646 3.78616e-20)
(0.995021 -0.00963692 -5.11355e-21)
(1.13685 0.119684 -2.40532e-20)
(-0.065418 0.307793 -1.22196e-20)
(0.998675 -0.00204455 -1.80871e-20)
(1.02283 0.525642 5.88408e-20)
(0.992304 -0.0117715 0)
(1.0001 -7.64504e-05 -4.38134e-21)
(1.01722 -0.00432774 5.29291e-22)
(0.618638 -0.166705 0)
(-0.187148 0.366335 -1.16289e-19)
(0.987155 -0.0183595 -9.43099e-21)
(1.07847 -0.0482209 -4.14111e-21)
(1.02161 -0.000343084 -3.43055e-21)
(-0.285032 -0.6359 -7.11594e-20)
(1.0111 -0.000177676 0)
(1.08684 -0.16604 9.87118e-21)
(-0.088783 0.219606 -5.44086e-20)
(0.923321 0.0108661 -8.81944e-20)
(1.00157 -0.000845317 -2.24273e-21)
(0.815537 -0.128646 -2.5828e-20)
(1.00006 -0.000342933 -5.84144e-21)
(1.03347 -0.01681 2.35701e-21)
(1.02309 -0.00906767 2.58107e-21)
(1.15089 0.0519371 0)
(1.00272 -0.00313329 3.03859e-22)
(-0.301098 -0.616654 8.56331e-20)
(1.00111 -0.00324702 1.10396e-20)
(0.995625 -0.0323376 -1.80753e-20)
(1.09458 0.0501565 3.67694e-22)
(0.769264 -0.228252 -4.93449e-20)
(1.02891 0.0242311 2.38658e-20)
(1.01588 -0.0148825 0)
(-1.06383 -0.0263069 6.03928e-20)
(0.998094 -0.0127717 1.06993e-20)
(0.993889 -0.410809 -1.71385e-20)
(0.989248 -0.0069081 -6.53239e-21)
(1.03549 -0.0055161 0)
(0.996212 -0.0107022 6.80469e-21)
(1.00106 -0.00330675 -3.39646e-22)
(0.99997 -0.00013725 5.73696e-21)
(0.985129 -0.427978 -9.4959e-21)
(1.05646 0.0821547 -2.64289e-20)
(1.02854 0.567115 1.28793e-20)
(1.27749 -0.0783488 0)
(0.846108 -0.0475699 0)
(0.917131 -0.125165 0)
(0.578412 -0.774524 0)
(1.05287 -0.0277928 0)
(-0.329406 -0.516435 -1.18238e-19)
(-0.248901 0.209835 0)
(1.05642 -0.422599 -2.06199e-20)
(0.942617 -0.339868 -8.71775e-20)
(0.952933 0.00800318 0)
(1.02851 -0.38917 2.45432e-20)
(1.03385 -0.0159389 5.01312e-21)
(0.061621 -0.126961 -3.39367e-20)
(1.09155 0.053527 8.66639e-21)
(1.03394 -0.00612851 -5.46949e-21)
(1.06912 -0.436196 -1.68053e-20)
(1.00004 -0.000313955 5.67015e-21)
(0.840685 -0.509709 1.23079e-20)
(0.967819 -0.156132 1.24577e-20)
(1.13039 0.0995616 6.14282e-20)
(0.902763 0.0298526 3.12033e-20)
(0.228702 0.530557 0)
(-0.344399 0.217982 0)
(1.09226 0.044839 3.50077e-20)
(1.13563 0.0864299 -5.4894e-20)
(0.999788 -0.000214331 8.49102e-21)
(0.993366 -0.510519 3.64908e-21)
(0.955294 0.0119041 1.76413e-20)
(0.995264 -0.00925619 0)
(0.990729 -0.0285899 -7.91678e-21)
(1.03048 0.0198971 2.22434e-22)
(1.14815 -0.0828608 3.57212e-21)
(-0.251379 0.430971 -1.98676e-20)
(0.86182 -0.452397 0)
(-0.533378 0.14633 0)
(1.04864 -0.0296938 -1.50953e-20)
(0.965515 -0.0473405 0)
(-0.0655876 0.451191 6.63046e-20)
(0.437352 0.153562 -2.36498e-20)
(1.04668 -0.00315735 -9.5558e-21)
(1.15752 0.0188063 -6.77686e-20)
(0.972732 -0.0257121 -3.14535e-22)
(0.252575 -0.721149 5.27453e-20)
(0.151835 -0.358839 1.92664e-21)
(0.997653 -0.00195851 6.63858e-21)
(0.714147 0.109815 0)
(0.66977 -0.395432 1.09647e-21)
(-0.351622 0.214762 0)
(1.00268 -0.00101363 0)
(0.933472 -0.0514689 -2.99221e-21)
(0.74219 0.574464 -1.77106e-20)
(1.08454 0.00481777 -1.65315e-20)
(0.852561 0.226645 1.76125e-20)
(1.14411 0.11265 0)
(1.0223 -0.0978355 1.77492e-21)
(0.957627 -0.0712109 -1.83203e-20)
(1.05419 -0.0307948 0)
(1.02013 -0.0219896 9.47802e-23)
(0.988434 -0.00355737 1.32217e-20)
(1.25787 0.11065 1.68163e-20)
(1 -0.000160146 0)
(1.28608 0.114243 0)
(1.29537 -0.0190426 2.46096e-21)
(1.07708 -0.277409 -4.24581e-20)
(1.00002 -0.000160557 0)
(1.00008 -0.000636855 0)
(1.03805 0.0176248 0)
(1.02461 0.00759354 4.9077e-22)
(1.00494 -0.000776349 0)
(0.989907 -0.0120347 1.259e-20)
(1.26157 -0.082668 0)
(0.246499 -0.312936 0)
(0.400803 -0.0412562 -3.88426e-20)
(1.00001 -0.000219501 0)
(1.16637 -0.412074 -9.28964e-20)
(1.00185 -0.00694047 0)
(-0.291041 0.160388 -4.69635e-20)
(1.11834 0.0401056 2.73252e-20)
(0.792723 -0.0803147 6.3605e-20)
(0.853577 0.0490067 2.22814e-20)
(1.41907 -0.00802416 -2.22189e-19)
(1.0075 -0.00365863 -8.67988e-22)
(0.999212 -0.00447401 0)
(0.830727 -0.126985 8.08618e-20)
(0.995289 -0.0103066 -8.98853e-21)
(1.03077 -0.0169701 0)
(1.1713 -0.00687059 0)
(0.111587 0.294852 -1.34387e-19)
(1.01916 -0.00319263 1.65007e-21)
(1.24709 0.0799503 -8.14899e-20)
(-0.422743 0.12486 1.52942e-19)
(1.06241 -0.0180354 -2.13337e-20)
(0.055554 -0.612726 -2.54589e-20)
(-0.428172 0.0986788 -5.05776e-20)
(1.01559 -0.0186537 5.57037e-23)
(1.17378 -0.0600809 0)
(1.05578 0.0317175 1.66771e-20)
(1.01772 -0.0265909 6.10343e-22)
(1.01669 -0.00445757 -1.03176e-22)
(0.630701 -0.104107 -9.91606e-20)
(-0.42448 0.0841747 -1.34742e-19)
(-0.326692 0.194773 0)
(0.98324 -0.0130682 -2.47995e-21)
(0.996386 -0.00246909 -5.25905e-22)
(1.01588 -0.0068307 0)
(1.0303 0.0284136 3.64292e-21)
(0.990927 -0.048207 -1.3505e-20)
(0.97963 -0.0600509 -7.99412e-21)
(0.552371 0.48647 8.84607e-21)
(1.1158 0.0441582 -2.36663e-21)
(1.00025 -0.00183022 -1.00476e-20)
(1.45496 0.252998 4.15929e-19)
(1.08979 0.000147348 -9.92226e-21)
(0.855878 -0.0503452 -8.98839e-21)
(1.03039 -0.0156747 -6.43532e-22)
(-0.599773 -0.0939923 2.20003e-19)
(1.0524 0.000600197 -1.24449e-20)
(1.00343 -0.00216369 0)
(1.09104 -0.277088 1.47522e-20)
(0.156284 0.159859 0)
(1.01753 -0.00174714 7.36172e-22)
(0.997351 -0.00177013 0)
(0.994682 -0.0063484 1.95171e-21)
(1.04937 0.0256477 0)
(1.00752 -0.00344025 -4.08571e-21)
(1.09576 0.0420005 1.03244e-20)
(1.24114 0.250378 -7.31581e-20)
(0.99803 -0.0353336 6.44156e-21)
(1.15236 0.0525303 1.53221e-20)
(1.04493 -0.00414824 9.2091e-21)
(1.02881 -0.0151167 2.78189e-21)
(1.0098 0.0458976 0)
(-0.189481 0.207184 -1.14794e-19)
(1.178 -0.0181462 -7.16028e-21)
(0.999371 -0.00409335 -4.26979e-21)
(1.01812 -0.00127306 -2.15982e-21)
(1.24678 -0.0620785 -3.00558e-20)
(0.918601 -0.0111933 -3.6505e-20)
(1.36067 0.0721119 5.47412e-20)
(1.0169 -0.00113339 6.83059e-22)
(0.991562 -0.0117958 0)
(-0.446643 -0.134841 0)
(0.886177 0.544522 -6.27288e-20)
(1.08688 -0.0589536 -4.54342e-21)
(1.1509 0.0501462 3.52548e-20)
(0.710758 0.0479202 0)
(0.997116 -0.0129008 0)
(1.00002 -0.000142873 -6.09511e-22)
(1.01456 -0.0265969 1.51195e-21)
(-0.0932283 0.336756 2.19155e-19)
(1.00125 -0.000584418 -4.00016e-21)
(0.999997 -3.92035e-05 8.92547e-21)
(0.025414 0.553008 -1.42479e-19)
(0.90747 0.0299281 0)
(1.40532 -0.205433 -1.80716e-19)
(0.858372 0.0309684 4.25727e-20)
(1.00228 -0.0069393 0)
(-0.163335 0.188273 7.67059e-20)
(1 -0.000304345 8.16802e-21)
(0.990639 -0.00840345 0)
(1.01346 -0.0262586 0)
(0.9297 -0.103782 -7.49529e-21)
(-0.0574604 0.552308 -7.32573e-20)
(0.999923 -0.0020561 -6.94433e-21)
(0.994338 -0.000966262 1.01479e-20)
(0.995009 -0.0107063 4.87559e-21)
(0.996651 -0.0117352 0)
(1.00204 -0.00707182 0)
(1.02015 -0.0229839 -1.28843e-22)
(0.834243 -0.337688 -2.44235e-20)
(0.92262 -0.108342 -9.55134e-21)
(0.975531 -0.0406803 0)
(1.00005 -0.00326252 0)
(0.914138 -0.103022 8.88767e-21)
(1.189 -0.052706 2.83424e-20)
(1.04985 0.0315953 -1.05631e-20)
(0.899143 0.0351059 -2.93772e-20)
(1 -7.00019e-05 -4.70151e-21)
(1.01572 -0.00642165 -2.98743e-22)
(1.00971 -0.057313 0)
(-0.136081 0.338655 0)
(0.312469 -0.937389 7.56023e-20)
(1.03701 0.0140196 1.82415e-21)
(-0.38903 0.19448 -1.64888e-19)
(0.999762 -9.96983e-05 0)
(0.957369 -0.0661519 -1.94718e-20)
(1.29936 -0.481777 -7.20807e-20)
(0.158765 -0.119698 5.90737e-20)
(1.01916 -0.0139299 2.11137e-22)
(0.999904 -0.00152792 -7.99824e-21)
(0.453697 0.254679 -7.71501e-20)
(1.13899 0.0187742 1.27742e-20)
(1.00363 -0.00217932 0)
(0.999934 -0.000228588 7.03501e-21)
(-0.345136 -0.57267 0)
(1.00002 -0.000103409 -4.48976e-21)
(1.18574 -0.155185 0)
(0.997346 -0.00544808 -3.85e-22)
(0.359022 0.0580835 -1.24399e-19)
(0.999943 -0.00029322 -1.8164e-21)
(1.00714 -0.000107137 -1.16316e-21)
(0.998975 -0.00169402 5.08091e-21)
(1.06761 -0.0901819 0)
(1.02371 0.00721373 -3.60818e-21)
(0.942611 -0.0414764 0)
(0.917858 0.0220966 0)
(0.559782 0.136607 -3.49331e-20)
(1.00428 -0.00674917 -7.76147e-21)
(0.99951 -0.0071309 -1.35968e-20)
(1.00004 -0.00021439 0)
(0.998962 -0.0126494 0)
(1.03378 -0.0136332 -1.4866e-21)
(1.0284 0.000395402 3.80768e-24)
(1.09481 -0.0528992 0)
(0.998731 -0.00178903 1.03131e-20)
(1.12706 0.041946 0)
(0.267536 -0.438316 1.90872e-19)
(1.1398 -0.0393776 3.11272e-20)
(1.1797 -0.00772858 0)
(0.999709 -0.000418539 -8.98606e-21)
(1.02345 -0.00851398 -1.77776e-21)
(-0.320825 -0.111254 8.89914e-21)
(1.13145 0.122765 0)
(1.01632 -0.00409722 0)
(0.0509348 -0.691938 0)
(-0.838498 -0.127587 -7.89929e-21)
(1.01842 -0.00140002 2.63169e-21)
(0.994116 -0.00122881 -1.96938e-20)
(1.00192 -0.0108693 -9.79048e-21)
(1.16294 -0.251538 -3.52794e-20)
(1.12724 0.0454621 0)
(0.138934 -0.0776911 0)
(1.00472 -0.00671579 -2.60149e-21)
(1.02879 -0.0730677 1.69166e-21)
(1.00476 -0.0048782 0)
(0.973179 -0.0220989 1.87167e-20)
(1.00656 -0.000181547 -4.12868e-22)
(1.05384 -0.297161 1.68233e-20)
(1.03368 -0.0125453 -5.36852e-21)
(1.36097 -0.23174 2.6833e-20)
(0.99951 -0.0036246 3.95401e-21)
(0.918057 -0.246648 -2.75745e-21)
(1.00371 -0.00621919 2.47905e-21)
(0.969681 -0.043938 1.81717e-20)
(0.989263 -0.00860032 1.37033e-20)
(1.05703 0.0751353 1.13949e-20)
(0.752278 0.149566 0)
(-0.990852 -0.0690989 0)
(0.990914 0.513233 0)
(-0.0196601 -0.688595 -9.615e-21)
(1.13755 0.0106278 0)
(0.99123 -0.0127104 -1.12712e-20)
(0.580507 -0.72416 5.38891e-20)
(0.0761524 -0.0848325 3.13155e-19)
(1.13479 0.049498 0)
(1.03121 -0.0119195 -3.2675e-21)
(0.999973 -0.00384656 -1.2271e-23)
(0.180551 0.284816 1.19711e-19)
(1.00218 -0.0113094 0)
(-0.0543087 0.563754 4.52127e-20)
(1.01871 0.00076219 0)
(1.07607 0.0269925 9.69682e-21)
(1.03567 -0.0111269 1.87074e-20)
(0.999954 6.74124e-05 9.98105e-21)
(1.01925 -0.0148935 0)
(1.08445 0.477287 0)
(0.00457549 0.369547 -1.32182e-19)
(-0.0449852 0.579703 3.82128e-20)
(0.682907 0.0694674 8.48376e-20)
(-0.272289 -0.147678 -7.98749e-21)
(0.995661 -0.00718308 7.40853e-21)
(-0.116857 -0.345781 6.81622e-20)
(0.668324 0.150129 0)
(1.00002 -7.37039e-05 9.58389e-21)
(0.994847 -0.0308143 -5.84428e-21)
(1.00862 -0.00470333 -1.25997e-21)
(1.05085 -0.0679805 -6.40004e-21)
(1.01622 -0.00199898 -1.06818e-21)
(-0.158494 0.233325 -1.54254e-19)
(0.862486 -0.0339823 -1.84416e-20)
(1.24275 0.0599705 -6.40593e-20)
(1.00935 -0.0374859 3.27254e-21)
(1.21334 -0.470475 -1.75406e-19)
(-0.687834 0.050428 -1.39579e-19)
(0.170111 0.0682089 3.40479e-19)
(0.944341 -0.102274 2.55138e-20)
(1.10267 -0.0370402 1.45963e-21)
(1.00143 -0.000874266 2.52198e-21)
(0.418224 -0.194625 0)
(1.01633 -0.000802467 0)
(0.42567 0.35651 0)
(1.28576 0.119717 -9.36171e-20)
(0.809339 -0.232602 -4.05921e-20)
(0.911852 0.396798 0)
(0.394581 0.275983 -1.10706e-20)
(1.05753 -0.0170309 -7.35851e-21)
(1.01551 -0.0563363 -1.30376e-21)
(1.00283 -0.00334838 -2.40573e-21)
(1.13393 0.141663 -2.39559e-20)
(-0.188752 0.119761 -1.07484e-20)
(-0.1045 -0.0781578 0)
(1.00806 -0.0045287 -1.50116e-21)
(0.226884 0.690023 7.07182e-20)
(1.04693 0.0301533 -5.8618e-21)
(1.14821 0.0501511 0)
(0.586544 0.139223 1.41162e-19)
(0.0988068 0.250421 6.13768e-20)
(0.165108 0.204024 1.20635e-19)
(1.01924 0.00157111 3.108e-21)
(0.92617 -0.0432269 0)
(1.09076 0.0108628 -3.89148e-21)
(1.04994 0.0137476 5.23461e-21)
(1.03851 0.0194911 -2.26205e-22)
(0.374188 -0.926164 -1.4852e-19)
(0.999749 -0.000762849 -9.16282e-22)
(0.823526 -0.0199798 1.33896e-19)
(1.01111 -0.000105581 1.45559e-22)
(1.01864 0.00139093 -2.61642e-21)
(1.1489 -0.225244 -7.74394e-20)
(1.15096 0.0525592 1.08686e-21)
(1.08521 -0.0730209 9.91493e-21)
(1.03987 -0.0229853 1.44137e-23)
(0.880358 -0.433046 -1.08985e-19)
(0.819333 -0.348451 0)
(1.30966 -0.436907 1.98587e-19)
(0.910441 0.0235739 -4.28019e-20)
(1.00007 -0.000320438 -3.15232e-21)
(1.03878 -0.0243121 -1.34292e-23)
(1.00009 -0.000331618 0)
(0.987836 -0.00964189 6.76884e-21)
(1.28214 -0.450527 -7.08204e-20)
(1.34783 0.0932175 -2.89496e-20)
(1.02389 -0.0292753 0)
(0.98854 -0.00738713 0)
(1.09218 0.0181738 -1.93777e-20)
(0.197901 -0.125598 -6.0809e-20)
(1.02129 -0.0806531 -1.40366e-22)
(0.989289 -0.000920818 2.0696e-21)
(0.39994 0.146425 6.68728e-20)
(0.994786 -0.00726802 0)
(0.999979 1.47852e-06 -9.57935e-21)
(1.01672 -0.000841121 0)
(1.12687 0.0625195 -1.60627e-20)
(0.996835 -0.00234274 7.01455e-21)
(1.05623 0.0145076 1.05778e-20)
(0.0589136 0.585522 -1.30014e-19)
(1.19161 -0.0722688 0)
(1.00425 -0.000124481 0)
(0.147514 0.666149 -1.1929e-19)
(0.590539 0.085917 -6.74642e-20)
(0.994923 -0.00772733 0)
(1.03656 0.0120276 6.246e-21)
(1.10951 -0.0304072 1.43325e-20)
(1.00003 -0.000107696 1.40609e-23)
(1.00146 -0.00689536 3.30916e-21)
(1.01532 -0.0134475 0)
(0.863407 -0.276378 0)
(1.2039 0.300536 2.49275e-20)