/*--------------------------------*- C++ -*----------------------------------*\
| =========                 |                                                 |
| \\      /  F ield         | OpenFOAM: The Open Source CFD Toolbox           |
|  \\    /   O peration     | Version:  v2012                                 |
|   \\  /    A nd           | Website:  www.openfoam.com                      |
|    \\/     M anipulation  |                                                 |
\*---------------------------------------------------------------------------*/
FoamFile
{
    version     2.0;
    format      ascii;
    class       surfaceScalarField;
    location    "800";
    object      phi;
}
// * * * * * * * * * * * * * * * * * * * * * * * * * * * * * * * * * * * * * //

dimensions      [0 3 -1 0 0 0 0];
oriented        oriented;


internalField   nonuniform List<scalar> 
14885
(
0.751917
-0.502976
-0.248966
0.197962
-0.381572
0.183704
0.513777
-0.328564
-0.185132
0.422945
0.0480625
-0.471545
-0.676968
0.377564
0.299292
0.129614
-0.486308
0.356665
0.471312
-0.254432
-0.216738
-0.172118
-0.359547
0.531672
0.261334
0.344755
-0.606103
0.135665
-0.311341
0.175711
-0.576885
0.388624
0.188195
0.373419
-0.175383
0.379377
-0.202534
-0.176759
0.72771
-0.256698
-0.471037
0.172385
-0.43167
0.25906
0.22776
0.499912
-0.138998
-0.361101
0.500053
-0.383993
-0.192962
0.202102
-0.442595
0.240557
0.212558
-0.450762
0.238112
0.164668
0.214785
0.444459
0.30744
-0.0653573
0.487952
-0.528007
0.382716
0.145275
0.220157
-0.583239
0.362843
0.308899
-0.647417
0.338511
-0.21614
0.351937
-0.447072
-0.178393
0.62542
0.487461
-0.357886
0.551863
-0.357251
-0.194589
-0.106114
0.52296
-0.417132
-0.180315
0.302389
-0.122031
0.257417
-0.555997
0.298636
0.542119
-0.284599
0.352796
-0.524922
0.442145
0.0561697
-0.498342
0.372553
-0.675039
0.302024
0.303151
-0.612057
0.308761
0.376621
-0.482923
0.438882
0.176448
-0.615337
0.175806
0.376088
-0.294618
0.316124
-0.00545649
-0.310634
-0.436442
-0.0386738
0.475259
-0.27678
0.566562
-0.290091
0.462171
-0.242309
0.565397
-0.639263
0.0738182
-0.308536
0.480572
0.391497
-0.173147
-0.218244
0.231988
0.0450367
-0.276936
-0.0484682
0.364635
0.659705
-0.414227
-0.245892
0.348438
0.390179
-0.188041
-0.00795056
-0.273333
0.28139
-0.200799
0.0150667
0.185832
0.362638
-0.197933
0.182959
-0.57226
0.389425
-0.210734
-0.205811
0.416437
-0.334649
-0.358319
0.692966
0.181475
0.210145
-0.0268497
0.314287
-0.287276
0.299195
-0.304602
-0.218565
-0.332441
0.550998
0.264244
-0.590114
0.325835
0.285587
-0.567821
0.282142
0.180574
-0.424071
0.243404
0.480199
0.0497162
-0.529902
0.611539
-0.54612
-0.0654452
-0.056392
0.536608
-0.245447
-0.0695774
0.315079
-0.538769
0.315928
0.22258
0.695567
-0.410412
-0.285194
-0.437936
0.227073
-0.26145
0.546993
-0.293874
-0.581565
0.0985455
0.483014
-0.0611647
0.626522
-0.510159
-0.0714138
-0.291241
-0.151287
-0.0146206
-0.421748
-0.352213
0.571684
-0.0531633
-0.518922
-0.365105
0.641066
-0.276452
-0.0954633
0.337604
-0.242049
0.342791
-0.0209713
-0.321739
-0.25129
0.431814
0.266667
0.247192
-0.294697
-0.24201
0.536404
-0.58965
0.394517
0.195052
0.11066
0.188959
-0.299555
-0.412158
-0.019693
-0.031499
0.330753
0.346864
-0.00396963
0.253982
-0.566686
0.312592
-0.365476
-0.128109
0.493273
0.0102502
-0.00510257
-0.211605
-0.402875
-0.0714939
0.474423
0.23233
-0.446918
0.214371
-0.209118
0.319863
0.253688
0.0608948
-0.31445
-0.460184
0.334509
0.125737
0.241866
0.02913
-0.234673
0.395999
-0.161262
-0.240768
-0.227472
0.468077
0.20473
-0.125698
-0.0789316
0.331401
-0.592914
0.2044
0.267039
-0.457139
0.216302
0.323258
0.140419
-0.463954
0.43347
-0.228945
-0.129967
0.383751
0.316455
-0.535028
0.586051
-0.321883
0.664888
-0.409292
-0.255655
0.619003
-0.239287
-0.379679
-0.320215
0.649953
-0.329957
0.539917
-0.356776
-0.668492
0.324632
0.343799
0.264798
-0.59945
0.118083
-0.335379
0.217393
-0.191658
0.309814
-0.584829
0.307633
-0.472175
-0.11754
-0.378042
-0.249629
0.627467
0.0788143
-0.456829
-0.280692
0.27285
0.193565
0.0446473
-0.238175
0.202845
0.416191
-0.312837
-0.271888
0.584676
0.187858
0.292378
-0.480414
-0.668677
0.338523
0.329974
-0.445908
0.0177697
0.427922
0.219371
0.2142
0.408711
-0.216479
-0.192141
0.188137
-0.432876
0.244687
-0.0903692
0.14092
0.270479
0.128123
-0.398535
0.106327
-0.509175
0.37177
-0.224138
-0.147588
-0.361315
0.6586
-0.29732
0.156469
0.0483827
-0.653342
0.206211
0.373777
-0.0634965
-0.310279
0.601232
-0.298228
-0.33931
0.243949
0.200758
0.410748
0.288564
-0.432888
0.144358
0.428996
-0.0810305
-0.347913
-0.232136
0.563354
-0.310867
-0.310185
0.620944
0.0802041
0.262979
-0.343296
0.240562
0.0269284
-0.267453
0.580684
-0.326824
0.368518
0.00525136
-0.0890224
0.282622
0.0186654
-0.219378
-0.213973
-0.454866
0.48624
-0.177349
0.0191282
-0.532265
0.512728
-0.1633
0.602171
0.165807
0.242998
-0.544441
0.448235
-0.252361
-0.195765
0.358604
0.0704656
0.40421
0.291318
-0.104428
0.346355
0.574521
-0.13237
-0.165369
0.479244
-0.313789
0.276657
-0.580148
0.303373
-0.335928
-0.0213074
-0.372635
0.409591
-0.0368621
0.376863
0.216474
0.173732
-0.0138056
-0.358738
0.567202
-0.483873
-0.0834997
0.318792
0.282263
0.5299
-0.3422
-0.342642
-0.20349
-0.146461
0.41706
-0.0831668
0.289604
-0.206383
-0.205734
0.669427
-0.326564
-0.342964
0.150381
-0.53387
0.383516
0.359456
-0.289743
-0.0696408
-0.348622
-0.190387
0.588647
-0.168878
-0.419772
-0.0981775
0.231693
-0.13344
-0.303548
-0.288791
0.592135
-0.330178
0.185283
0.177392
0.269843
-0.582665
-0.313012
0.229856
0.27554
0.00750398
-0.282922
-0.0730728
-0.339254
-0.138712
0.0187049
0.12004
0.320774
-0.590445
0.269664
0.00742477
-0.0105325
0.00312506
0.141939
-0.50746
0.246145
-0.0294469
-0.216643
-0.271923
-0.0705036
0.342488
0.224133
-0.422699
0.19855
0.324471
0.191033
-0.515619
0.414872
-0.486303
0.584205
-0.245896
-0.544486
0.198442
0.345984
-0.0967513
0.337381
-0.200023
0.522871
-0.0190137
-0.427043
-0.284686
-0.189958
0.514333
-0.164407
0.388513
0.264708
0.165497
-0.430181
-0.567764
0.0570672
0.510345
0.547649
-0.572424
0.0247897
-0.648299
0.413704
0.234531
0.566541
-0.292098
-0.274306
-0.40918
0.621531
-0.212974
0.290843
0.064247
-0.0769587
0.0127364
0.579938
-0.303351
-0.0329825
0.0972686
0.49126
-0.35263
0.400284
-0.303361
-0.493203
0.266909
0.226212
0.421343
-0.233198
0.423491
-0.203986
-0.219296
-0.37078
-0.0893823
0.589933
-0.271268
0.501052
-0.42228
0.0851387
0.274402
-0.483489
0.163039
0.453349
0.113708
0.214984
0.152689
-0.399947
0.24729
-0.00333987
0.0136152
0.270617
-0.334121
-0.159337
0.542012
-0.525859
0.173317
0.352638
0.251928
-0.457988
0.206182
-0.349796
0.614592
0.394364
-0.55767
-0.281115
0.306276
-0.0250374
-0.471673
-0.205408
0.496315
-0.244287
-0.183777
0.454368
-0.211183
0.291291
-0.150775
0.528215
-0.381627
0.147014
-0.305397
0.575266
0.0509799
0.316339
-0.367256
0.260617
-0.28198
0.0214951
-0.250118
0.538779
0.409014
-0.256346
-0.478596
0.174828
0.209966
0.258773
-0.468691
0.0134158
-0.018497
0.630665
-0.245737
-0.385536
0.6135
-0.21905
0.636253
-0.331792
-0.304524
0.274079
0.385238
-0.51784
-0.121471
-0.299193
0.25358
0.00722947
0.381186
0.232244
-0.318785
0.369798
0.741174
-0.443704
-0.297998
0.497821
0.0031168
-0.511399
0.184871
0.326029
-0.104716
0.336825
-0.311503
-0.25274
0.564218
0.176877
-0.246383
0.491999
-0.282056
0.239613
-0.557431
0.317971
0.14427
-0.397947
0.253547
0.269623
-0.553146
0.283358
0.291114
0.44956
0.307452
0.339261
-0.51765
0.488095
-0.241105
-0.246853
-0.026921
-0.111765
0.407751
-0.263501
-0.0742035
0.563195
-0.488683
0.0103984
0.0440213
-0.0543996
-0.541929
0.342522
0.199444
-0.366515
0.539096
-0.172596
0.634095
-0.256923
-0.377167
-0.488393
0.177408
0.162724
0.1916
-0.354285
0.57843
-0.25649
-0.321837
-0.572908
0.0410208
0.531493
-0.499417
0.0917338
0.407795
-0.208963
-0.581763
0.155998
0.425658
0.120407
-0.322922
0.202691
0.150638
0.270725
-0.300419
-0.211437
-0.423601
-0.224763
0.391064
-0.158013
0.0931763
0.495467
-0.191623
-0.334146
-0.398961
-0.14294
0.206832
-0.233557
-0.227983
-0.353493
0.581443
0.60459
-0.210231
-0.203375
0.323895
-0.131655
-0.367692
-0.138535
0.510469
-0.457767
0.500811
-0.0433094
-0.566736
0.201002
-0.460687
-0.121167
0.310939
0.267595
0.302379
0.331719
-0.483319
-0.0345513
-0.323697
0.474088
-0.414866
0.546887
-0.131998
0.393216
0.271611
-0.543423
0.572551
-0.0292045
-0.0944798
0.271433
0.543182
-0.30342
0.17106
-0.530504
0.359435
0.217192
0.317562
-0.534742
-0.554035
-0.0140701
-0.278721
0.581722
-0.302944
0.245838
0.283896
-0.249287
0.343568
-0.180789
0.288075
0.29591
0.251322
0.242557
-0.494294
-0.527122
0.0241321
-0.563176
0.00076011
0.562313
-0.154133
-0.390417
-0.630106
0.373207
0.107465
0.0564295
-0.163721
-0.351508
0.522559
0.290818
-0.596096
0.489334
-0.130626
0.165671
0.206138
-0.359192
0.164583
0.194638
0.260983
-0.610786
-0.310066
0.596652
-0.286579
-0.0104488
0.545903
-0.536022
0.291758
0.298043
-0.297157
-0.25704
0.554057
0.478508
0.0377302
-0.516632
0.54225
-0.279946
-0.262275
0.432821
-0.249966
-0.183036
-0.307159
-0.259639
0.273644
0.268639
-0.529485
-0.0276191
0.557111
0.338912
-0.0244769
-0.600624
0.321923
-0.225395
-0.267875
0.571295
-0.184108
0.0820235
0.102155
0.0148909
-0.488117
0.473149
0.257193
-0.484927
-0.265335
-0.410117
0.200788
0.247543
0.382013
-0.520097
0.138133
0.376866
0.11256
-0.398759
-0.516484
-0.0130144
0.529023
-0.558208
0.284549
0.273589
-0.284635
0.0154735
0.267256
-0.282627
-0.5272
-0.542316
0.531196
-0.539506
-0.379117
-0.225122
-0.362687
0.341853
0.245553
0.269701
-0.515343
-0.2195
-0.337775
-0.461484
0.111388
0.350235
-0.283533
0.106635
0.177114
-0.07915
-0.283441
-0.26987
-0.239902
0.509444
-0.3571
-0.104257
0.176142
0.247558
-0.287258
0.532951
0.0579214
-0.225804
0.167928
-0.275328
0.497274
-0.313065
0.637599
0.224896
0.25939
-0.484393
0.174849
-0.541397
0.234491
0.257493
-0.186237
0.0473105
0.138965
0.185878
0.246761
-0.599135
0.299633
0.299534
0.495374
-0.118493
-0.155693
-0.126169
0.307855
-0.52959
0.221339
0.536685
-0.183889
-0.423964
0.350133
0.200735
0.101687
0.103673
-0.518331
-0.0154133
-0.0395288
0.0549801
-0.260375
-0.312094
0.572466
0.0657252
-0.0732915
0.0012368
0.0721004
-0.529373
-0.000101918
0.345255
-0.179531
-0.424697
0.582661
-0.158029
0.528533
-0.355138
0.497465
-0.263065
-0.0551834
-0.364777
0.419962
0.409834
-0.0868951
-0.322879
-0.277956
-0.179911
0.448443
-0.262834
0.264798
-0.552276
0.287477
-0.135615
0.399377
-0.263788
0.470369
-0.145014
-0.325297
-0.265107
0.596751
-0.363689
-0.233094
-0.393782
0.25812
0.321232
0.274991
-0.596268
0.382979
0.112417
0.570537
-0.278824
0.345878
0.323452
-0.294607
0.48435
-0.426629
-0.0577078
-0.27949
0.450369
-0.17075
0.357909
-0.413066
0.353644
0.276502
-0.173885
0.452611
0.0317426
0.512175
-0.573358
0.289238
0.120644
0.375141
-0.318973
-0.551985
0.12724
0.435965
-0.235155
-0.304334
0.330972
-0.0265799
0.320585
0.555776
-0.611462
0.0556585
0.189459
-0.174306
0.306898
0.291541
-0.598504
0.527921
-0.21683
0.50083
-0.245743
-0.255009
-0.192571
-0.321099
-0.321989
0.56368
-0.241688
0.554661
-0.289838
0.377428
-0.211551
0.204247
-0.65107
0.311901
0.339087
0.228809
0.314506
0.416084
-0.0996717
-0.316311
0.360938
0.0552184
-0.19781
0.255792
-0.389847
0.324301
0.26046
-0.557777
0.278813
-0.0556354
-0.130557
-0.63974
0.597536
-0.312681
-0.284836
-0.453925
0.40064
-0.0695322
0.420347
-0.351113
-0.322196
-0.25652
0.578624
-0.59358
0.271304
0.451649
-0.226833
-0.573575
-0.185622
0.253088
0.12675
0.402297
0.12574
-0.30849
-0.271779
0.149805
0.227695
0.290323
0.252953
-0.543304
-0.0270271
-0.0654524
0.0925083
0.0221622
-0.326421
0.0962762
-0.450086
0.353881
-0.450792
-0.112477
0.145274
0.17435
-0.438641
-0.104847
-0.251453
0.0958947
-0.507428
0.204451
0.302543
-0.224579
0.545396
0.221396
0.226776
-0.381902
0.488275
0.156758
-0.518121
-0.258577
-0.122996
0.311115
0.286437
0.539771
-0.310842
0.606912
-0.191886
-0.415008
0.511484
0.0442775
-0.310623
-0.240442
0.550751
-0.440213
0.529158
-0.304254
-0.224865
0.364712
0.271484
-0.350155
-0.222806
0.572972
0.227869
-0.514164
0.286384
0.193509
0.151797
-0.537142
0.509547
-0.574734
-0.294375
0.386156
-0.351953
0.38257
-0.0305211
-0.262373
-0.234851
0.496907
-0.530819
-0.00197522
0.210267
0.317694
0.211524
-0.351276
0.284317
0.0670782
-0.506883
0.200428
0.30642
0.535736
-0.589136
0.0531289
-0.357238
0.594629
-0.237387
-0.169685
0.395254
-0.225432
-0.167275
-0.230486
0.39782
-0.229469
-0.194634
0.424094
0.55744
-0.359117
0.0710384
-0.60816
0.144072
0.335021
-0.479378
0.233075
-0.469336
0.236161
-0.466397
0.172047
-0.591068
0.344541
0.245954
0.171512
0.366874
-0.437005
0.250771
0.229899
-0.480973
0.306314
0.243144
-0.549497
0.286629
0.1838
-0.312104
-0.19481
-0.150917
-0.219838
0.237642
0.198342
0.0770152
0.228453
-0.305285
-0.305716
-0.284737
-0.188279
0.434554
-0.246054
-0.455066
0.304125
-0.247063
0.528205
-0.281156
0.115526
-0.472763
-0.0682437
-0.283623
0.224523
-0.494733
0.632027
-0.44055
-0.191445
0.517427
-0.28955
-0.423194
0.294834
-0.249052
0.504352
-0.255424
-0.208917
0.37545
-0.166353
0.298601
0.0147748
-0.295767
-0.414495
-0.10239
-0.41994
0.223081
-0.542239
0.319223
-0.04836
-0.328595
-0.263087
0.171511
0.135786
-0.307224
0.136088
-0.546057
0.347303
0.204333
-0.551702
0.332848
-0.255736
-0.363592
0.624573
-0.406694
0.350519
0.0563232
-0.0481663
-0.302998
0.0555657
-0.459847
0.404275
-0.278384
-0.275136
0.553554
0.160419
-0.0528671
-0.202995
0.536534
-0.333416
0.272068
-0.565491
0.562815
0.0026216
0.45053
0.181522
0.361659
-0.642875
0.28116
0.360901
-0.604993
0.244075
-0.236107
0.561585
-0.325343
-0.224127
-0.295372
0.471966
-0.17646
0.280585
0.229039
-0.509775
-0.00551699
0.541478
-0.535964
0.0600379
0.195667
-0.25561
0.224551
0.17151
0.303781
0.427052
-0.412214
0.293667
0.284234
-0.578076
0.282849
-0.222698
-0.127916
0.509964
0.549991
-0.326907
0.209683
0.347643
-0.103666
0.40926
-0.306045
-0.308139
0.119099
0.189094
-0.0668679
0.452876
-0.385993
0.450473
-0.394928
0.503078
-0.0753457
-0.00769792
0.508274
0.229363
0.251838
-0.481506
0.553063
0.00578247
-0.559016
-0.0291022
0.25424
-0.460035
0.205453
-0.223677
-0.130437
0.354264
-0.278483
0.55313
-0.274979
0.226551
-0.536745
0.310186
-0.34246
-0.14089
0.227479
-0.415558
0.375054
-0.601543
0.141663
0.552086
-0.282668
-0.316656
0.274154
0.259209
0.337513
-0.0703533
-0.212973
0.385732
-0.348419
0.655352
-0.347927
-0.317036
-0.295165
0.0152728
-0.530344
0.514661
0.586201
-0.238906
-0.0979332
-0.0861149
-0.549974
0.207477
0.29553
-0.573709
0.278032
-0.240771
0.486219
0.236047
0.161395
-0.540514
0.495184
-0.554213
0.0182584
0.535781
0.342185
0.0713098
-0.413404
0.556947
-0.249359
-0.473655
0.0879061
0.385632
0.412431
0.246128
-0.0763479
-0.397449
-0.413261
-0.353921
-0.130076
0.531219
-0.30467
0.354825
-0.421714
-0.0598466
0.314968
-0.353443
0.517455
-0.424971
-0.0924623
0.224073
0.273299
0.343594
0.387092
0.233897
-0.423001
0.237508
0.185681
0.172896
-0.574177
-0.426155
0.0713554
0.354817
0.109624
0.407854
0.278167
0.245367
0.251046
-0.392066
0.287917
0.495676
-0.24469
-0.426102
0.0917805
0.334285
-0.181779
0.524025
0.298492
0.283289
0.313994
-0.0769492
-0.237031
0.231534
0.222735
-0.454548
-0.360397
-0.153913
0.514331
0.570039
-0.291598
-0.278703
-0.232462
-0.255354
0.48745
0.532927
-0.242628
0.629761
-0.265146
0.0145381
-0.0948075
-0.331316
0.180455
0.227267
-0.212457
-0.434969
0.15429
-0.10697
-0.328083
-0.188354
0.51644
-0.184727
-0.238086
0.504984
-0.328534
0.454775
-0.201654
-0.53288
0.0867017
0.448806
0.392772
-0.258322
0.508239
-0.250061
-0.347907
0.304504
-0.34789
0.124338
0.485207
-0.234753
-0.524844
0.519321
0.558236
-0.0355101
-0.545296
0.248832
0.296204
-0.280462
0.578525
-0.298376
0.298765
0.248828
-0.547544
-0.355452
0.146734
-0.114444
0.429625
0.212098
-0.520976
-0.517747
0.275585
0.265453
0.282685
-0.548435
-0.488268
-0.130102
0.445802
0.299906
-0.116057
0.529707
0.324416
0.247452
-0.572162
0.51518
-0.26975
0.210454
-0.165343
-0.303644
0.598197
-0.294557
0.490303
-0.223402
0.698455
-0.436153
-0.263173
0.0273927
0.065696
-0.0930441
-0.136579
0.295546
-0.575332
0.399591
-0.0619002
-0.524552
0.261151
0.263399
0.323636
-0.116687
0.206168
0.30908
0.306452
0.263312
0.558045
6.9016e-05
-0.558219
-0.498388
0.239922
0.296223
-0.543154
0.246918
0.582335
-0.275983
-0.162974
0.337373
-0.542311
0.409756
0.132402
0.239002
-0.602606
0.32084
0.275811
0.55501
-0.270917
-0.284209
0.176449
-0.0943415
-0.0589277
0.0776541
-0.392221
-0.175217
0.567429
0.297949
0.268331
0.283213
0.318259
-0.601538
-0.526326
0.204357
0.312625
-0.530607
0.165824
-0.24584
0.530316
0.174718
0.05705
0.234909
-0.510897
0.275903
0.0436587
-0.438136
0.394364
-0.470936
-0.130643
0.385909
-0.242121
0.500928
-0.25865
-0.325145
0.609665
-0.284517
-0.211529
-0.296315
0.1905
0.23631
-0.42701
-0.300613
0.151523
-0.410023
0.158389
-0.534895
0.376562
0.215319
0.291154
-0.507118
-0.510275
-0.0747216
-0.334362
0.409078
-0.487082
0.550975
-0.0637208
0.183529
-0.266106
-0.295619
0.561464
0.270345
-0.531588
0.261177
0.324805
-0.585182
-0.170258
0.491422
0.546274
-0.336698
-0.126453
-0.415968
0.488899
-0.264946
0.532245
-0.22597
0.0614632
-0.366952
0.410549
-0.256056
0.21478
-0.343472
0.128816
-0.283
0.272973
-0.211934
-0.226715
0.146171
0.358824
0.00362057
-0.414112
0.144244
0.169768
-0.542996
-0.352654
0.43126
-0.0783451
-0.273756
0.573432
-0.286012
-0.224126
-0.279759
-0.258108
0.469894
-0.462726
-0.553185
0.180066
0.373074
-0.39174
0.0597723
0.33203
0.32273
0.245074
-0.567788
0.141102
0.36668
-0.507774
-0.150201
0.376427
-0.226183
-0.345132
0.584126
0.33072
-0.589168
0.258429
-0.446876
-0.0398291
0.242662
0.258246
0.544426
-0.545139
-0.215737
-0.314873
-0.0612756
-0.369769
0.430851
0.481339
-0.375364
-0.0507692
0.232979
-0.533267
0.300125
0.297882
-0.15364
-0.401111
0.233924
0.4395
0.25808
0.209517
0.345165
0.654149
-0.333729
-0.320401
0.568914
-0.295826
-0.273324
0.260699
-0.558155
0.297389
0.419997
-0.243666
-0.505761
0.15218
0.197596
0.44449
0.140729
0.164178
0.257808
-0.509454
0.251824
0.571792
-0.311161
0.173835
-0.40431
0.318651
0.20411
-0.522722
0.433403
-0.197212
0.388763
-0.173849
-0.346497
-0.413188
0.286101
-0.554317
0.268117
-0.310085
0.47551
-0.165685
-0.596596
0.158366
0.483265
0.0984613
-0.582409
0.195144
-0.369409
0.1742
0.0587221
0.225731
0.215265
0.43446
0.228105
-0.478502
0.250143
0.264829
0.298851
-0.299986
0.591424
-0.278017
-0.275723
-0.282807
0.558104
-0.305275
0.248823
-0.552472
0.208119
0.305931
-0.514088
0.223129
-0.481426
0.258289
0.297398
0.304399
-0.601835
-0.297626
0.251595
-0.290251
0.593023
-0.302679
0.0896322
-0.442052
0.590005
-0.26583
0.310774
-0.571639
0.260641
0.595052
-0.432579
0.120535
-0.276133
-0.24842
-0.0884363
-0.540506
0.229606
0.368018
-0.205345
-0.162539
-0.322586
0.108765
0.0455442
-0.281726
-0.268341
0.549985
-0.0996758
-0.211961
0.361807
0.181957
0.326128
0.328039
0.27003
-0.595157
0.581922
-0.251224
-0.259083
-0.308788
0.567971
0.41774
-0.221663
-0.195899
-0.238972
-0.106703
0.0796902
0.551416
-0.234329
-0.317045
0.563027
-0.353478
0.255202
0.290964
-0.250769
0.521045
-0.152627
-0.319602
-0.360705
-0.0458424
0.215989
-0.505907
0.289914
0.268547
-0.340019
-0.051669
0.0705061
-0.0264652
0.481895
-0.313883
0.250035
-0.283869
0.581228
0.6355
-0.270379
-0.365408
-0.00797063
-0.341085
0.349131
-0.579704
0.168663
0.411037
0.28998
0.294613
-0.563389
0.268559
-0.274517
0.162669
0.112034
-0.101391
-0.320918
0.278808
-0.623966
-0.103837
0.299591
-0.235479
-0.25369
0.488894
-0.13362
-0.202764
0.336475
-0.527653
0.508621
-0.367515
0.565928
-0.519878
-0.0460769
0.428833
-0.191201
0.281363
-0.500684
0.219134
0.589779
-0.301883
-0.525645
0.197559
0.309485
-0.571357
0.290705
-0.302099
0.0100067
0.292186
0.265436
-0.268048
-0.246039
0.308278
-0.409651
-0.281134
-0.294102
0.574972
0.152508
0.145371
-0.208743
0.560467
-0.237722
-0.504137
0.315665
-0.613215
0.203881
0.290222
0.299373
-0.438593
-0.115809
-0.494933
0.206197
-0.426405
0.220485
-0.280098
0.510323
-0.252357
-0.61838
0.275905
0.342428
0.498053
0.151551
0.304624
-0.577267
0.272609
0.399078
-0.342509
0.232776
0.277706
0.270175
0.370466
-0.416024
0.0969916
0.319131
-0.203333
-0.26375
0.387037
-0.123163
-0.370365
0.161298
-0.228602
0.435063
-0.552054
-0.286414
-0.0580059
0.174118
0.0712356
-0.12921
0.273398
0.139573
0.25581
0.12376
0.0527761
-0.28885
-0.013154
-0.0175581
0.237014
0.371014
-0.424177
0.05316
0.150891
0.271987
-0.422758
0.530732
-0.212052
-0.255831
0.649991
-0.323855
-0.302651
-0.222204
0.524861
0.197264
0.146358
0.607834
-0.246255
-0.137896
0.311157
-0.173188
0.434708
-0.338322
-0.387772
0.313064
-0.44218
-0.297743
0.61595
0.566842
-0.19583
0.445541
-0.214221
0.0991703
-0.460271
-0.304576
0.544679
-0.240019
-0.323661
0.549748
-0.226107
0.146354
0.185964
-0.33226
-0.566988
0.239295
0.327754
-0.333927
-0.219301
0.531267
-0.00653266
-0.525452
-0.107715
-0.0211799
0.128936
-0.249564
0.39591
-0.146487
-0.27529
0.534763
-0.259464
-0.631984
0.284801
0.347179
0.442717
0.110234
0.269388
0.210895
0.51811
-0.310062
0.23319
-0.271462
0.487414
-0.412914
-0.324636
0.441178
-0.116554
0.100546
-0.374734
0.207752
0.264355
-0.24514
0.156683
-0.379883
0.0175751
-0.125249
-0.146769
0.309477
-0.162661
-0.506705
0.223783
0.282833
0.302594
-0.149379
-0.153151
0.255437
0.512671
-0.256556
-0.25623
-0.505113
0.235488
0.269804
0.202504
-0.47019
0.0763754
0.344265
-0.197834
0.299076
-0.0692631
-0.229788
0.543419
-0.257398
0.516588
-0.249824
-0.0900546
-0.38016
-0.26702
0.577618
-0.184442
-0.284609
0.280788
0.287892
-0.258715
0.0224519
-0.00453117
-0.55706
0.304239
0.448484
-0.297485
0.208424
-0.15154
0.348082
-0.196482
-0.343405
0.492835
-0.149478
0.283459
0.351749
0.213496
0.275295
-0.297189
0.156918
0.21122
-0.530114
-0.000778149
0.355511
-0.151483
-0.203938
-0.316965
-0.193513
0.510492
-0.271683
0.5571
-0.285541
-0.603479
0.283577
0.319884
0.34205
-0.156009
-0.209428
0.447115
-0.551945
0.259897
0.293653
0.261244
0.258665
0.253893
0.474883
-0.328712
-0.158029
-0.438658
0.28046
-0.194821
0.501497
-0.260255
-0.241263
0.24123
0.208323
-0.436765
-0.266925
0.595838
-0.328938
-0.371552
0.299779
-0.307676
-0.394192
0.0582525
-0.366889
-0.275204
0.192714
0.261026
-0.453742
-0.232071
0.553615
-0.321504
-0.275377
0.577739
0.319397
0.21863
-0.537994
0.191305
-0.470831
0.284337
-0.556075
0.22791
-0.549601
0.321818
0.300741
0.216692
-0.228287
0.372125
-0.16796
-0.204307
0.284018
-0.560067
0.214686
-0.486173
0.213053
0.182723
-0.611307
0.279308
0.331962
-0.339842
0.404137
-0.0644294
0.182462
-0.333953
0.304547
-0.579951
-0.540304
0.283026
-0.293112
-0.277573
0.570537
0.26073
-0.23376
-0.0677306
-0.511976
-0.300161
0.580951
-0.280962
0.295504
-0.543057
0.247551
0.313192
0.258523
-0.167699
-0.311164
0.557311
-0.246166
-0.576908
0.283713
-0.25613
-0.226938
0.483047
0.440047
-0.231608
-0.264568
-0.30369
-0.328299
-0.320453
0.342651
0.289624
-0.218622
0.499938
0.278474
-0.115692
-0.275959
-0.272811
0.487441
0.506757
0.0137535
-0.520845
-0.330682
-0.0852551
-0.347966
-0.0960022
0.443891
-0.233895
-0.0486945
-0.401093
0.449825
-0.188636
-0.262191
-0.243226
0.0561647
-0.154056
-0.215825
0.407186
-0.563118
0.169524
-0.55427
0.287999
0.000739621
-0.273797
0.145906
0.25379
0.370214
-0.510451
0.140231
-0.251588
-0.564264
0.252344
0.31199
-0.232042
0.446119
-0.213855
-0.490013
0.141957
0.368011
0.558164
-0.262666
-0.246154
0.582363
-0.336115
-0.170569
-0.242094
0.469955
0.593653
-0.307627
-0.286181
-0.119555
-0.348204
0.467738
-0.201022
0.17094
0.526334
-0.156104
0.51649
0.372045
-0.631002
-0.151886
0.438683
-0.286753
-0.268489
0.250997
-0.114905
-0.439457
0.208655
-0.4033
0.281076
0.264932
-0.546086
0.608913
0.530518
0.451518
0.228006
-0.57351
0.345453
0.337725
-0.194481
-0.143137
-0.155702
0.27436
-0.118616
0.236815
0.324896
-0.314267
0.550206
-0.251399
-0.558363
0.311235
0.247059
-0.210537
0.5181
-0.103356
0.573869
-0.280371
-0.295322
0.587765
-0.292618
-0.284593
0.199186
0.255153
0.129377
0.436528
0.18842
0.240408
0.000506283
0.2465
-0.587119
0.340578
-0.245234
-0.279305
0.492697
0.60085
-0.354369
0.295631
0.262528
0.530801
-0.298102
-0.232756
0.317054
-0.602862
0.285794
0.341834
-0.112211
-0.229491
0.160422
0.211561
0.256978
0.0421182
0.287225
-0.349051
0.239374
-0.464993
0.225843
-0.571374
0.289975
0.264636
-0.126343
-0.0942558
0.381616
0.0669197
0.3775
-0.444475
-0.208787
0.267657
0.245672
-0.389593
0.285456
0.515474
0.0137704
-0.529264
0.200624
0.33012
0.516845
-0.293151
-0.55171
0.228015
-0.262951
0.442517
-0.179429
0.323111
0.375598
-0.235341
0.129346
0.208483
0.281426
-0.589119
0.307659
-0.253881
0.596616
-0.342754
0.296701
0.346949
0.346307
0.587896
-0.529232
0.522058
0.317643
0.253752
-0.571461
0.298443
0.248363
-0.547065
0.290267
-0.559428
0.269064
-0.240707
-0.111264
-0.39919
0.146864
-0.212153
0.449353
-0.237159
-0.0890814
-0.162254
-0.296166
0.544977
-0.590931
0.282999
0.308009
-0.0368277
-0.357384
-0.384992
0.451859
0.135324
0.206642
0.0740707
0.325274
0.510693
-0.209931
0.238744
0.291979
-0.530802
-0.444237
-0.0906117
0.132101
0.116681
-0.248686
0.142376
0.0708251
-0.479477
0.243684
-0.64686
-0.602041
0.327486
0.274568
-0.535575
0.353766
0.181843
-0.539358
-0.595065
0.316811
0.278283
-0.258885
-0.368411
0.561994
-0.193527
0.559531
-0.35895
-0.124979
0.420646
0.263722
-0.161487
-0.554677
0.140492
0.414149
-0.191675
-0.277688
0.469467
0.0050802
-0.144588
0.34728
-0.202673
0.157804
0.401681
-0.592289
0.307048
0.284982
0.287263
-0.474186
0.186904
-0.324835
-0.270197
-0.352805
0.199929
0.152941
-0.540262
0.284587
0.255434
0.463011
-0.0480734
-0.222311
0.402853
0.303415
0.278822
-0.323296
0.550692
-0.227417
0.255339
-0.159233
0.228011
-0.399207
0.470576
0.424424
-0.137736
0.56566
-0.339222
-0.226416
-0.302893
-0.0951349
-0.195354
-0.388051
0.542456
-0.252303
-0.454499
0.168908
0.373366
-0.542259
0.185756
0.238732
-0.506384
0.271538
0.234816
-0.129494
0.464061
-0.315457
-0.153166
0.360226
-0.168451
-0.191668
-0.496138
-0.223036
0.380122
0.283043
-0.571844
0.28876
0.137555
-0.28035
0.513245
0.257455
0.196297
-0.453725
0.30312
0.207588
0.311532
0.261409
-0.57294
0.176767
0.134467
-0.374772
0.569694
0.558789
-0.277521
0.322077
-0.55414
0.563361
-0.212693
-0.350578
-0.253841
0.530582
-0.277078
-0.399991
0.181632
0.218305
-0.271045
0.559703
-0.28885
0.308746
-0.561115
0.252351
0.000613845
0.604846
-0.605636
0.151653
0.163476
-0.291155
0.581079
-0.289976
0.274986
0.281983
0.305138
0.260279
-0.565476
0.239155
0.299278
-0.538484
0.200859
0.154736
0.138985
-0.562667
-0.312662
0.549225
-0.268201
-0.219148
0.538582
-0.515927
0.240655
-0.459472
0.186315
-0.396907
0.261258
0.192004
-0.453295
0.214047
-0.486875
-0.0173007
0.523656
-0.249899
-0.143422
0.1223
0.215742
-0.517186
0.301452
-0.475482
0.0926841
0.171128
-0.59147
0.363497
0.22798
-0.361608
-0.296679
-0.295214
-0.309725
0.604925
0.277449
-0.397862
0.223901
0.21088
0.250054
0.284719
-0.562414
0.307569
0.254745
-0.00256494
0.548129
-0.545685
-0.393632
0.558599
-0.164992
-0.271393
0.485475
-0.204537
0.416013
-0.211478
0.350328
0.176021
-0.356515
-0.285218
0.285848
-0.557063
-0.441713
-0.131663
0.505751
-0.218658
-0.287004
0.541302
-0.229769
0.20413
0.0744565
-0.328411
-0.235784
0.171911
-0.301822
-0.548182
0.125989
0.422168
-0.477758
-0.354192
-0.257151
0.385561
-0.142458
-0.331865
0.550228
-0.218298
-0.293063
-0.169357
-0.518937
0.519234
0.297213
-0.563565
0.266128
-0.147029
0.299545
-0.172778
-0.218095
-0.282794
-0.342046
0.15272
0.189388
0.219546
0.261899
-0.209307
0.382945
-0.280853
0.5642
-0.0517776
0.561864
0.17193
0.34242
0.168784
0.133874
-0.19203
0.537979
0.247841
0.256379
-0.187845
0.277037
0.27388
-0.551136
-0.521526
0.267245
0.532787
-0.268216
-0.264547
0.468573
-0.218295
-0.250484
0.242298
0.26164
-0.503975
0.533496
-0.144925
0.201357
-0.429193
0.227775
0.39968
-0.448353
0.223476
0.28405
-0.583985
0.299889
-0.278151
0.520505
-0.278207
-0.244695
-0.441284
0.413636
-0.204982
0.536831
-0.249589
-0.293083
0.0532365
0.235673
-0.288791
0.217098
0.198915
-0.293005
-0.138395
-0.146147
-0.278424
0.56936
-0.207144
-0.285575
0.492832
-0.606935
0.27452
0.332376
-0.0111274
0.574938
-0.274887
-0.30065
-0.376266
0.311527
0.550733
-0.295014
0.579022
-0.284171
-0.258744
-0.536309
0.298589
0.237705
-0.570906
0.276956
0.29364
0.40002
-0.578914
0.17888
-0.28616
-0.259813
0.545893
-0.269703
0.405108
-0.190332
0.248642
-0.48473
0.258094
-0.594548
0.336412
0.19405
0.154091
0.321836
0.111501
0.299042
0.275301
-0.28321
0.573919
-0.290776
-0.280671
0.555004
-0.274332
-0.0392569
-0.0674367
-0.143805
-0.188401
-0.505308
0.0818652
0.288443
-0.571791
0.276768
0.418696
0.190571
0.153773
0.582256
-0.311811
0.595376
-0.283545
-0.277068
0.572674
0.596079
-0.337992
0.555673
-0.242057
-0.377356
-0.301943
-0.290602
0.431834
-0.230581
0.5213
-0.280886
-0.240971
0.572707
-0.289622
-0.250242
-0.31986
0.570002
0.226695
-0.456684
0.229997
0.298977
-0.582845
0.331429
-0.221988
-0.10932
-0.0324286
-0.586737
0.274619
0.273643
0.296096
-0.570308
0.277115
0.266221
0.0907061
0.0018404
0.306654
0.261367
-0.56804
0.155228
0.19047
-0.345616
-0.529983
0.529932
-0.000749444
0.301671
-0.579374
-0.218283
0.508412
-0.290467
-0.265664
0.0179756
0.355505
0.150361
-0.484334
0.0619917
-0.413725
0.57913
-0.165402
-0.137852
0.269851
-0.131966
-0.26979
0.517482
-0.344007
0.147606
0.296878
0.235936
0.376518
-0.200301
-0.176281
0.237405
-0.00328738
0.517705
0.208019
0.608598
0.153354
0.188773
0.0651582
0.25917
-0.324242
-0.407716
0.274856
0.295338
-0.570346
0.248267
0.220099
0.321359
-0.225312
-0.346293
0.148495
0.126812
0.515838
-0.519653
0.582389
-0.329984
-0.246187
0.51663
-0.270667
0.585945
-0.301933
0.123764
-0.212738
0.339791
-0.187933
0.312396
-0.579355
-0.236138
0.603721
-0.356076
-0.247672
-0.209387
-0.221585
0.461154
0.410686
-0.55925
0.148583
-0.351456
-0.215472
0.285646
-0.108321
0.121652
-0.0132684
0.461866
0.017615
-0.480036
-0.0732643
-0.560399
0.113606
0.339647
0.149629
0.181926
-0.222181
-0.24259
0.287133
0.280706
-0.568068
-0.357858
0.156395
-0.269818
0.497592
-0.227973
-0.580018
0.321051
0.259003
-0.291593
-0.279616
-0.146218
-0.226849
-0.364614
0.0333238
0.156202
-0.239337
0.368789
-0.0812562
0.288487
-0.507103
0.165714
0.207225
0.224505
-0.275363
0.552046
-0.542078
0.230877
-0.472048
0.533349
-0.0613185
0.295174
0.0874961
-0.398711
0.18289
0.365893