/*--------------------------------*- C++ -*----------------------------------*\
| =========                 |                                                 |
| \\      /  F ield         | OpenFOAM: The Open Source CFD Toolbox           |
|  \\    /   O peration     | Version:  v2012                                 |
|   \\  /    A nd           | Website:  www.openfoam.com                      |
|    \\/     M anipulation  |                                                 |
\*---------------------------------------------------------------------------*/
FoamFile
{
    version     2.0;
    format      ascii;
    class       volVectorField;
    location    "800";
    object      U_0;
}
// * * * * * * * * * * * * * * * * * * * * * * * * * * * * * * * * * * * * * //

dimensions      [0 1 -1 0 0 0 0];


internalField   nonuniform List<vector> 
10042
(
(0.990467 0.0113285 -3.94294e-21)
(0.830982 -0.218351 0)
(1.06331 -0.0201999 4.66653e-22)
(1.01534 0.00140885 -2.36396e-22)
(1.01223 0.00040704 -1.1495e-21)
(0.961847 -0.260729 -8.25532e-21)
(1.09308 0.230737 -1.65579e-20)
(0.911802 -0.270257 5.82776e-21)
(1.01296 -0.000751437 -4.18347e-24)
(0.968659 0.0616828 -4.52727e-22)
(0.942563 0.0145432 0)
(0.869074 -0.217959 -8.07921e-20)
(1.06808 0.029525 0)
(1.01317 -0.000855747 -2.11586e-21)
(1.02715 0.00228168 -3.83877e-21)
(1.01332 -0.00110742 2.09626e-21)
(0.975742 -0.265793 1.35213e-20)
(0.945508 0.0257456 1.57259e-21)
(1.04616 0.0119821 -9.57291e-21)
(1.00864 -0.00596527 2.27075e-21)
(1.067 0.0326579 -5.0082e-21)
(0.989939 0.00493826 0)
(1.0152 0.00134819 0)
(0.90346 -0.315207 3.13151e-20)
(1.01378 0.00232272 0)
(1.0105 -0.000115145 0)
(0.97087 0.0557262 0)
(1.01256 -0.000459014 0)
(0.962149 -0.280354 1.88998e-20)
(0.896446 -0.285825 6.36371e-21)
(1.00895 0.000118372 -2.51313e-21)
(1.07282 0.0102215 2.37912e-20)
(1.01289 -0.000698641 0)
(1.01279 -0.000661082 1.59013e-21)
(0.911485 -0.26871 1.03316e-20)
(0.909887 -0.270029 -1.33537e-20)
(1.01641 0.000449917 0)
(1.01198 -4.53787e-05 -1.85209e-21)
(1.01037 0.000240639 8.8725e-22)
(1.01646 -0.00621413 -1.00223e-22)
(0.895514 -0.303244 3.41161e-20)
(1.01284 -0.000708975 -1.52042e-21)
(1.19579 -0.0086134 -1.3355e-22)
(0.974707 -0.262047 2.74731e-21)
(1.01469 0.00204297 3.62442e-22)
(1.0138 0.00236881 0)
(1.01332 -0.000719683 -1.46368e-22)
(1.02643 0.00219922 0)
(1.02682 0.10131 4.01043e-23)
(0.992975 -0.0624678 -2.31716e-20)
(1.20394 -0.00545875 0)
(1.01361 0.0010057 2.63951e-22)
(0.98871 -0.258136 -5.63454e-21)
(1.04457 0.0118443 -1.21176e-21)
(0.814879 0.34228 -1.30142e-20)
(0.696961 -0.413838 0)
(1.06366 0.0326696 6.42102e-21)
(0.986473 0.00450682 2.51378e-21)
(1.02358 0.00793462 5.45149e-22)
(1.01646 -0.00116653 -9.67969e-23)
(1.0174 0.100892 -3.56583e-23)
(0.84453 0.303548 1.85372e-21)
(1.16358 0.000508807 1.33235e-22)
(0.954737 -0.220558 2.8363e-21)
(0.995184 0.0302696 7.07916e-22)
(1.01361 0.00369522 0)
(1.01302 -0.00547675 -2.51552e-21)
(0.998667 0.0431686 1.25277e-22)
(1.0136 -0.00100566 -7.21432e-22)
(0.994095 0.0362207 0)
(1.1383 -0.0450497 -5.53509e-21)
(1.01392 0.00874963 -4.40743e-22)
(1.01323 -3.19346e-05 -4.62053e-22)
(1.02357 0.00734818 0)
(1.01359 0.00335672 1.89901e-21)
(1.16863 -0.0359802 5.8548e-21)
(1.03274 0.0236046 0)
(1.01338 -0.000786852 -7.4685e-23)
(1.03686 0.0226966 -1.48583e-21)
(1.04719 0.0107561 0)
(0.953331 -0.28151 -2.62734e-21)
(0.905138 -0.313286 -2.4176e-20)
(1.00567 8.98605e-05 1.36397e-21)
(1.01267 0.000731365 0)
(0.976014 0.0135543 -2.19585e-21)
(1.01004 0.154925 0)
(1.01417 -0.0041194 0)
(1.06653 -0.011956 -4.64016e-22)
(1.01395 0.00048567 0)
(1.01683 0.0277838 1.25965e-21)
(1.0573 0.0232746 0)
(1.02762 0.00176492 -2.80544e-22)
(1.16133 0.0119415 -6.65618e-22)
(0.998403 0.164075 0)
(0.983412 0.0117127 0)
(1.01658 0.0039802 -1.56355e-22)
(0.0554575 0.00302896 -2.03933e-19)
(1.01064 -0.00473357 -2.52942e-21)
(0.957655 0.273219 0)
(1.02404 0.00664307 0)
(1.05559 0.022879 -6.04094e-21)
(0.948 0.0905607 5.7205e-22)
(1.01762 0.00793433 0)
(1.07048 0.0102729 -1.61509e-20)
(1.04615 0.0197203 1.04356e-21)
(1.01856 0.00680751 0)
(0.562878 -0.347976 5.7473e-20)
(1.01382 0.00338942 -1.79162e-21)
(1.07238 0.237311 0)
(1.01878 0.00729239 0)
(1.0223 0.00718378 -2.76608e-21)
(1.05496 0.2138 0)
(0.945471 0.0796528 2.12774e-21)
(0.955336 -0.22102 0)
(0.99678 0.0235745 -2.85954e-21)
(1.01399 -0.00134051 -1.38343e-21)
(0.987216 -0.00409555 2.45483e-21)
(1.00957 0.000179935 1.31497e-21)
(0.990642 0.00189953 2.5487e-21)
(1.01435 -0.00154747 -2.54125e-22)
(1.0164 -0.00128448 1.11528e-22)
(0.952675 -0.0882605 0)
(0.986351 -0.0768422 -4.62987e-20)
(1.0148 0.00218422 -2.0371e-22)
(1.02143 0.0293397 0)
(1.01435 0.000341671 -1.90911e-21)
(1.01443 0.000216471 6.46147e-22)
(0.825656 0.348187 -1.21785e-20)
(1.09496 -0.0591239 8.79845e-21)
(0.988087 -0.00865848 0)
(1.01241 -0.000242199 1.67631e-21)
(1.01339 0.00225885 0)
(1.01567 0.000114765 2.07666e-21)
(1.01438 0.00347193 8.78833e-22)
(1.03923 0.215714 0)
(1.22998 0.0742311 0)
(1.01965 -0.00542259 1.16448e-21)
(0.537767 -0.249562 -2.74308e-20)
(1.03431 0.0136111 -1.17794e-21)
(0.982121 0.25481 5.67974e-21)
(1.11656 0.0284025 -4.14762e-21)
(1.01169 -0.000121909 3.89241e-22)
(0.563038 -0.315781 -1.37121e-20)
(1.01248 -0.000424646 0)
(1.02593 0.0335718 0)
(1.01209 -4.89875e-05 3.93567e-21)
(0.980926 0.0133115 2.2329e-21)
(1.01366 -0.00102694 1.1748e-23)
(1.01475 0.00459557 0)
(0.844088 -0.303502 9.24171e-21)
(1.01373 0.00309947 0)
(1.01046 -4.62819e-05 -1.61489e-21)
(1.036 0.0153628 2.89869e-21)
(1.07618 0.0289948 0)
(0.987963 0.00735639 8.6857e-22)
(1.02378 0.034589 -3.47683e-22)
(1.09874 -0.0494546 -7.51313e-21)
(0.722473 -0.420084 0)
(1.01558 -0.000171514 0)
(1.00855 -0.000251947 4.26068e-22)
(1.01123 0.000304231 9.36491e-22)
(1.01648 -0.00724937 0)
(1.24682 0.116474 0)
(1.01407 0.000398953 2.14428e-21)
(1.03182 0.0113974 0)
(0.856841 -0.325299 4.59012e-21)
(1.01323 2.3513e-05 3.9571e-22)
(1.07119 0.0108808 1.33496e-20)
(0.905946 -0.27664 5.04979e-22)
(1.01272 -0.000602163 0)
(0.983064 -0.0101428 0)
(0.885975 -0.261761 -1.28586e-20)
(1.04365 0.070801 1.2492e-20)
(1.01283 -0.000641154 -1.61632e-21)
(1.04369 0.01305 -3.62266e-21)
(1.02395 0.014304 -8.27933e-21)
(1.01428 0.00254281 6.4879e-22)
(1.01209 -7.58892e-05 0)
(1.01336 0.00211756 0)
(1.01351 -0.000931334 0)
(1.03317 0.0132392 0)
(1.0421 0.0241837 7.90042e-21)
(1.02416 0.00718731 0)
(1.01408 -0.00123508 0)
(0.951443 -0.0239763 -5.77965e-22)
(1.061 0.0158121 0)
(1.01408 0.00982802 1.37616e-22)
(1.01635 -0.000940467 -7.61537e-23)
(0.76504 -0.198657 6.47548e-21)
(1.01042 9.41713e-05 8.99777e-22)
(0.821934 -0.26642 1.49679e-20)
(1.062 0.0356202 -1.20423e-21)
(1.01249 -0.000216439 -3.48672e-21)
(1.04139 0.022917 -3.54692e-21)
(0.842726 0.354667 0)
(1.02747 0.00121763 0)
(0.666092 -0.0277832 0)
(0.994417 -0.0292707 3.09627e-21)
(0.000954292 0.0467575 3.70311e-20)
(1.01276 0.000681059 0)
(1.07082 -0.091347 -1.16967e-20)
(1.13498 0.0219568 1.28428e-22)
(0.938738 0.0485986 -1.52317e-21)
(1.01236 -0.000203643 8.55866e-22)
(0.950562 0.292856 -2.38084e-20)
(1.01537 0.00033968 1.44711e-21)
(0.936386 -0.259356 -7.2351e-21)
(1.07429 0.0308601 -6.92598e-22)
(1.0217 0.006824 2.77387e-21)
(1.01459 0.00365023 5.25047e-22)
(1.07215 0.0104126 -1.49567e-20)
(1.01263 -0.000227649 1.02678e-21)
(0.921322 0.0525883 -7.54922e-22)
(0.960739 0.0566813 -2.72993e-21)
(1.01554 0.000383263 -7.80875e-22)
(1.00386 0.0282869 2.59358e-22)
(1.01264 -0.000258626 0)
(1.09782 0.217743 -6.64451e-21)
(1.01477 0.000733185 3.07621e-23)
(1.09597 -0.0823493 9.85487e-21)
(0.3955 -0.0536535 -8.33621e-22)
(0.989481 -0.0114299 0)
(0.346516 -0.0780631 -2.75493e-21)
(0.998201 0.0290881 0)
(1.01541 0.00149159 0)
(1.13741 0.0128558 5.3551e-22)
(1.01591 0.00443103 0)
(1.01985 -0.00391688 -1.15216e-21)
(0.982303 0.0470953 0)
(1.01795 0.0084611 1.23833e-22)
(1.01219 -8.50628e-05 2.56911e-21)
(1.01472 5.9056e-05 -6.38412e-22)
(1.06008 0.0172107 0)
(1.00785 0.000172121 -1.94081e-21)
(1.01419 0.00254605 -3.15724e-22)
(0.906258 -0.275324 0)
(1.02223 -0.00022339 2.03558e-21)
(0.0344646 -0.00614093 1.41915e-19)
(1.02631 0.030943 1.86627e-21)
(0.906348 -0.31194 -2.5909e-20)
(1.03588 0.210249 1.27868e-21)
(0.808649 -0.0472763 0)
(1.01653 -0.00142875 0)
(1.01534 -0.00735092 2.86584e-22)
(0.772363 0.297552 -3.84822e-20)
(1.01222 0.000426586 1.08642e-21)
(0.817403 -0.0602001 0)
(1.02454 0.0292221 -1.53608e-21)
(1.03648 0.0163023 4.30683e-21)
(1.01159 0.000261631 0)
(1.04545 0.0180992 -2.93816e-21)
(1.0126 -0.000260708 -7.65359e-24)
(0.952438 -0.0997114 0)
(0.764505 0.288625 1.10944e-20)
(1.01522 0.0044846 0)
(1.02172 0.000685513 -9.20408e-22)
(1.00954 8.588e-05 0)
(1.01597 0.00301863 0)
(0.149659 -0.0472213 1.81751e-20)
(1.01448 0.000885288 -6.98997e-23)
(1.01225 0.0331527 -1.24066e-21)
(1.0122 -3.50748e-05 -2.1488e-21)
(1.0135 0.000984561 0)
(1.01325 -0.000704913 1.42755e-22)
(1.07083 0.0287254 -8.7621e-22)
(0.735775 0.271718 -8.53239e-21)
(1.00736 0.0304074 1.31536e-21)
(0.966012 -0.0915443 0)
(1.00486 -0.000116145 0)
(1.01493 0.000100881 -4.46108e-23)
(1.01971 0.00144721 1.56419e-21)
(1.10614 0.00771135 2.41844e-20)
(1.01296 0.00044507 -2.0304e-23)
(1.00297 -0.0913021 0)
(1.01622 0.00322206 0)
(0.99824 -0.0108821 -2.55511e-21)
(1.03758 0.0047359 8.35683e-21)
(1.01426 0.00216178 -1.52258e-22)
(1.00484 -3.78162e-05 9.00248e-22)
(0.85615 0.356075 -1.37196e-20)
(1.01261 -0.000505334 -1.29431e-23)
(0.819237 0.0797772 1.23042e-21)
(0.710051 -0.0145215 -1.96758e-20)
(1.03645 0.0046364 1.05723e-20)
(1.01354 0.000108401 -1.69098e-21)
(0.159928 -0.185554 -6.62477e-21)
(0.999792 -0.0219936 0)
(1.0134 -0.00081411 5.37516e-22)
(0.98975 -0.00748343 0)
(1.00956 -1.25348e-05 -1.11512e-21)
(1.05673 0.0379048 5.12658e-21)
(1.00776 -0.0138321 1.92125e-21)
(1.01219 0.000211888 -1.22836e-22)
(0.807286 0.0821474 0)
(1.00049 0.0348468 -7.54196e-22)
(1.01412 -0.00155873 2.63443e-21)
(0.90243 -0.130205 -8.95875e-22)
(1.02146 -0.00275058 9.74611e-22)
(1.0199 0.00127766 -1.78889e-21)
(1.01255 -0.000241003 -1.34842e-21)
(1.03464 0.0152059 -2.20821e-21)
(0.948556 0.0606157 4.45297e-21)
(1.01643 -0.000938244 -3.62136e-23)
(1.0616 0.215511 -1.35147e-21)
(0.996639 -0.0181817 1.28566e-21)
(0.840323 0.289031 0)
(1.01296 0.000512062 2.84214e-21)
(1.0152 -0.00878717 -2.82901e-22)
(0.897685 -0.148008 3.23244e-21)
(0.807669 0.115188 -2.23734e-21)
(1.01503 0.000191984 8.16e-23)
(1.01405 0.00303088 -2.08689e-21)
(1.01664 0.00396959 1.15213e-22)
(1.01389 -0.00142527 -2.82211e-21)
(1.01043 -0.0149353 3.34422e-23)
(0.991766 -0.0132259 0)
(1.01319 -0.000637996 4.12236e-24)
(0.961597 -0.0262175 -2.64975e-21)
(0.914062 -0.294137 -1.49559e-20)
(1.01408 -0.00137649 2.81034e-22)
(1.00759 -9.83019e-05 0)
(0.957422 -0.110514 0)
(1.00153 -0.0107246 -2.48722e-21)
(1.05848 0.0664219 0)
(0.938292 0.00021465 -1.69041e-21)
(1.01467 0.000272753 -4.4086e-23)
(1.01735 -0.0148227 3.20336e-22)
(1.01329 0.00185019 0)
(1.02117 -0.0015151 0)
(1.05367 0.0370936 -4.15975e-21)
(1.01545 0.000589031 -2.59249e-21)
(1.01915 0.00508948 -1.11796e-22)
(0.996387 0.0128408 1.25931e-21)
(1.00992 -9.96766e-06 1.807e-21)
(0.924923 -0.286678 -2.27964e-21)
(0.982994 -0.00484477 -6.17827e-22)
(0.59647 -0.31381 0)
(1.05365 0.0647563 -2.3625e-22)
(1.0127 -0.000228051 1.85576e-21)
(0.863502 -0.309141 -1.11726e-20)
(1.11858 0.0380317 9.77778e-22)
(1.06187 0.0424123 -1.01338e-21)
(1.0165 -0.0015328 0)
(1.00847 -0.0125279 0)
(1.01045 0.00027099 0)
(1.01219 -0.00013097 -2.48837e-21)
(1.01286 0.000582629 2.14578e-21)
(1.01269 0.000493542 -4.57413e-23)
(1.01623 -0.00753613 0)
(-0.0112111 0.0544953 0)
(1.03153 0.00373474 0)
(0.985576 0.0186447 0)
(1.01786 -0.00711504 0)
(1.01552 0.000227043 0)
(0.835527 0.316175 0)
(1.01651 -0.0177667 0)
(1.01579 0.00483924 0)
(1.00335 6.47004e-05 -6.08923e-22)
(0.751563 -0.104349 0)
(1.00448 2.19603e-05 -8.48208e-23)
(1.01882 0.00657152 6.05062e-22)
(1.01635 0.00042859 1.31712e-21)
(1.03087 0.0119575 4.18848e-21)
(0.878923 -0.239678 -7.59802e-21)
(0.881009 -0.313228 1.00606e-20)
(1.03295 0.0117454 0)
(1.013 0.000658324 0)
(1.01916 -0.00499468 1.33372e-21)
(1.01796 -0.00571103 0)
(0.840785 0.337572 -2.06931e-20)
(1.01635 -0.00105113 0)
(1.00661 0.000150279 0)
(1.01302 0.000602734 1.12706e-21)
(1.01219 -0.000308615 0)
(1.00538 0.138841 -2.6679e-22)
(1.01318 0.0012649 2.485e-21)
(0.995686 -0.00582946 0)
(0.963129 0.172981 -2.65469e-21)
(0.725611 0.09011 2.1213e-20)
(1.01456 0.132369 2.85348e-22)
(1.01856 0.00550902 6.04332e-22)
(0.983792 0.185921 6.29395e-22)
(0.978215 0.0408272 3.32765e-21)
(1.01327 0.00171985 0)
(1.08484 0.0183085 -3.30392e-22)
(1.01424 -0.00151141 2.63715e-22)
(1.01226 0.000426105 1.00571e-21)
(1.01429 -0.00145527 0)
(1.01365 -0.000239708 0)
(1.0133 -0.0007429 0)
(1.0166 0.00307843 2.00047e-21)
(0.555405 -0.465966 1.23976e-20)
(1.03104 0.00438899 0)
(1.02695 -0.014553 -1.53431e-21)
(0.897077 -0.28829 -1.80603e-20)
(0.783447 0.275438 1.3276e-20)
(1.01636 0.00178722 -1.15906e-22)
(0.9228 -0.259186 -7.81582e-21)
(1.01602 0.000123348 -4.69756e-22)
(1.07318 0.0106021 8.75274e-21)
(1.01374 0.000919512 -6.83399e-22)
(0.211164 -0.119721 4.18926e-22)
(1.02092 -0.00372763 -8.16158e-23)
(0.816788 0.323391 3.71724e-20)
(0.294195 -0.205905 7.10087e-20)
(1.01581 0.00027333 -1.94066e-24)
(1.11039 0.0428174 5.39556e-22)
(1.01731 0.00114193 9.14248e-22)
(1.0244 0.178527 -2.23339e-21)
(1.0167 0.00328052 -1.81903e-21)
(1.06453 -0.0539535 -3.02937e-20)
(1.03465 0.0365888 0)
(0.80527 0.00833053 -1.41987e-21)
(1.03007 0.0043273 0)
(1.03247 -0.104006 -8.07304e-21)
(1.01082 0.00289322 1.80119e-21)
(1.02261 0.0404872 1.38516e-21)
(0.837655 0.336973 6.34064e-22)
(1.01301 -0.000539286 2.27091e-21)
(1.0114 0.00296631 -3.95087e-21)
(1.01048 1.12252e-05 2.26743e-21)
(0.914682 -0.290154 1.12287e-20)
(1.01229 -0.000149349 0)
(1.01418 -0.00126015 -1.8953e-21)
(1.12119 0.0224633 3.83046e-21)
(1.01242 0.00904045 0)
(0.97207 0.0265567 -3.92101e-21)
(1.08045 -0.047601 -3.94391e-20)
(1.01438 0.000880409 -3.20079e-22)
(1.06413 0.0391772 1.03408e-21)
(1.01181 0.00815817 -9.62488e-22)
(1.01341 -0.000892246 0)
(1.03263 0.0379034 3.20955e-21)
(0.914208 -0.272148 -9.23768e-21)
(1.01718 0.000571055 -1.963e-21)
(1.02983 0.0113598 0)
(1.06102 0.434511 6.99218e-20)
(0.991713 -0.00465548 0)
(1.00776 -5.10724e-05 -1.77869e-22)
(0.678453 -0.446387 1.17498e-20)
(1.01239 -0.000388871 -1.57795e-21)
(1.01274 -0.0130344 9.36835e-22)
(1.03804 -0.00840509 2.4022e-21)
(0.807874 -0.169051 -8.62285e-21)
(1.1813 0.0323281 0)
(0.927333 -0.0459284 -1.67425e-21)
(1.04693 -0.079513 0)
(1.22932 0.125419 0)
(0.936376 -0.240367 -2.74783e-21)
(1.01445 -0.00140359 -6.61875e-22)
(1.00489 -0.0140725 -5.00305e-21)
(0.94993 -0.150665 0)
(0.968744 -0.141953 5.33704e-24)
(1.08271 0.0200454 4.65471e-21)
(1.01517 0.00121778 0)
(1.01298 0.000704887 -2.205e-21)
(0.993055 0.0186434 0)
(0.609235 -0.491279 -1.00846e-20)
(1.01411 -0.00132323 0)
(1.01753 -0.00437615 5.64518e-23)
(1.00941 0.000250858 -3.43408e-22)
(1.01604 0.00179599 4.00994e-22)
(1.01252 -0.00103464 1.83302e-23)
(1.01219 -0.000706116 -1.99525e-21)
(1.01375 -0.000134935 0)
(1.00784 0.00011398 0)
(0.982433 0.00227482 6.30758e-22)
(1.03735 0.00257173 0)
(1.01487 -0.0138378 1.07973e-21)
(0.981235 -0.00285378 3.50511e-21)
(1.21496 0.150243 1.3266e-20)
(1.01399 -0.000650984 0)
(0.280784 -0.263393 0)
(1.09824 0.401384 -4.03813e-20)
(0.906772 0.224383 -9.76214e-21)
(1.01044 -1.32273e-05 -3.33686e-21)
(1.05838 0.00739673 0)
(1.00866 -0.00011086 0)
(0.790901 0.255962 -4.23316e-21)
(1.02027 0.00226443 -1.60308e-21)
(1.00118 -0.0271754 -1.40249e-21)
(1.02959 0.00492284 -4.46424e-21)
(0.983915 0.232929 1.41324e-21)
(1.01129 -8.05736e-05 2.93746e-23)
(1.04692 0.0166221 3.97793e-21)
(1.01784 -0.00466982 3.78865e-23)
(1.00724 -0.0129627 -1.12326e-21)
(1.04658 0.159623 -6.01169e-21)
(1.00906 -5.03056e-05 -1.49756e-21)
(1.01196 0.000321316 0)
(1.01428 0.00328057 5.41232e-23)
(0.968521 -0.29895 -4.7981e-20)
(1.0122 -2.83224e-05 -1.7254e-21)
(1.00616 -0.0186273 -2.91324e-21)
(1.06672 0.0140365 0)
(1.109 0.0517822 -4.65631e-22)
(1.01521 -4.25458e-05 -1.92239e-21)
(1.00235 -0.020096 4.3857e-21)
(0.813949 0.08085 1.82589e-20)
(1.10986 0.306471 -3.5484e-21)
(1.02122 0.005886 1.49762e-21)
(1.01014 0.00024927 -9.88277e-22)
(0.810803 0.0363574 6.06092e-21)
(0.991887 -0.271002 3.18986e-20)
(1.03938 0.0696448 -9.90998e-22)
(0.89731 -0.142936 -9.14037e-22)
(1.01011 0.000163766 0)
(0.984738 -0.0280482 -1.0711e-21)
(0.990648 0.0300957 0)
(1.00594 0.0360351 3.38677e-22)
(1.02454 0.0249835 1.79084e-21)
(0.92574 -0.249088 -2.67057e-21)
(1.01522 -0.000195212 3.14088e-21)
(1.01497 0.00115755 3.60879e-23)
(1.0196 0.00819733 0)
(0.827734 0.11998 -2.24289e-20)
(1.01495 0.00210118 0)
(1.00197 0.169605 -1.10635e-21)
(1.01593 0.0017194 0)
(1.0216 0.00490253 0)
(1.014 -0.000833104 0)
(1.01958 0.0393177 8.72534e-24)
(0.878346 -0.133858 4.97583e-22)
(1.01848 0.00854671 7.21201e-22)
(1.02886 0.011735 0)
(0.786032 -0.116818 4.54637e-21)
(0.988728 -0.0239635 3.41256e-21)
(0.980417 -0.0105631 -3.44602e-21)
(1.01876 0.00827702 -8.52964e-22)
(1.01334 0.00269212 0)
(0.976757 -0.0271858 1.29582e-21)
(1.13089 0.28043 2.68635e-22)
(1.01881 0.00589096 -7.15952e-22)
(1.01353 -0.0006821 8.18716e-22)
(1.0574 0.0157539 0)
(1.01666 0.00414767 0)
(1.01827 0.00440592 0)
(0.930315 -0.0696412 0)
(1.01231 -0.000204884 -1.84289e-21)
(0.755103 0.309094 3.61806e-21)
(1.01311 0.000710481 -2.74739e-22)
(0.97996 0.0545536 0)
(1.01993 -0.00881709 -1.08934e-21)
(0.238372 -0.0764167 4.89153e-21)
(1.01509 0.00212433 5.43124e-23)
(1.05894 0.0102999 0)
(1.01465 0.000642194 -5.75187e-25)
(1.01287 -1.61693e-05 -9.77437e-22)
(0.805678 -0.109796 9.80319e-22)
(1.01668 -0.00169351 0)
(0.879765 0.268863 -1.05746e-20)
(1.04411 0.0699136 0)
(1.01265 -0.000659362 2.74165e-21)
(1.02217 -0.00824552 0)
(0.62527 -0.292228 -2.91448e-20)
(1.10249 0.174614 0)
(0.987846 0.00125333 -4.36285e-21)
(1.00994 1.03791e-05 0)
(1.01356 -0.000721054 0)
(1.01375 -0.00097787 1.21032e-21)
(1.01666 -0.0045855 0)
(1.01208 -0.0131061 0)
(1.01931 0.0076152 0)
(1.00585 -0.171181 5.4745e-21)
(1.01693 0.00400053 1.92879e-22)
(1.01552 -0.000577351 0)
(0.852704 0.366233 -1.26306e-20)
(1.04488 0.0211217 -1.07493e-21)
(1.01058 -0.0147431 -1.21119e-21)
(1.00711 -8.20948e-05 1.67969e-21)
(1.01212 0.000429968 1.66464e-21)
(0.864153 0.35319 2.80914e-21)
(0.895471 -0.228093 7.76396e-21)
(1.01975 -0.00728741 -1.08282e-21)
(0.934626 -0.203969 2.66163e-21)
(1.0193 0.000775775 1.68781e-21)
(1.05958 0.0130983 0)
(1.01396 -0.000575436 0)
(1.01278 -0.000699093 1.88953e-21)
(1.01419 0.00341119 -8.87419e-22)
(1.01393 0.00298599 2.0868e-21)
(1.01952 0.00646811 -8.0739e-22)
(1.00995 4.26255e-05 0)
(0.152453 -0.127273 7.20255e-21)
(1.0282 0.00532437 3.74187e-21)
(0.904826 0.0266192 -3.96225e-21)
(1.01387 0.00188063 8.25152e-22)
(1.02094 -0.0037794 0)
(1.01315 -0.000630301 6.53223e-22)
(0.972816 -0.0109377 0)
(1.07429 0.238764 -4.7415e-21)
(1.01253 -0.000595679 -1.35337e-24)
(1.01413 0.00203947 3.46003e-23)
(0.947892 -0.0075162 1.8363e-21)
(0.992941 -0.0167944 -3.48709e-21)
(1.01304 -0.000564632 8.01964e-22)
(0.728708 0.191278 0)
(1.01283 0.000564371 -6.52673e-22)
(0.994303 0.00164239 0)
(1.01198 -3.16854e-05 0)
(1.01296 0.000410976 0)
(1.01274 -1.22593e-05 -1.04504e-21)
(0.731826 -0.090904 3.02552e-20)
(1.01311 -0.000567363 0)
(1.0143 0.0012727 7.03509e-23)
(1.01303 0.00128075 0)
(0.765109 0.229403 0)
(1.01043 -0.000163708 0)
(1.01401 0.00322792 0)
(1.00995 2.77037e-06 0)
(1.0897 -0.0383022 -1.40527e-21)
(1.01639 0.00190952 4.64067e-22)
(1.01486 0.00271078 0)
(1.01179 -0.000140334 -3.89363e-22)
(1.01497 0.00274482 -2.22849e-23)
(1.02564 0.0268119 -1.96482e-21)
(1.01443 0.00264851 -3.43028e-22)
(1.02024 -0.00295714 5.00858e-22)
(1.01409 -0.00055001 9.73934e-22)
(0.261079 -0.141567 6.12642e-20)
(0.969595 -0.238028 0)
(1.00881 0.235364 5.98389e-21)
(1.01696 0.00328376 0)
(1.05177 0.00570365 1.16722e-20)
(1.01472 0.000731264 -2.42763e-23)
(0.976915 -0.0840161 0)
(1.01642 -7.1175e-05 1.92236e-21)
(0.903413 -0.306069 1.03099e-20)
(0.912569 -0.0044825 -3.49335e-21)
(0.995025 0.260088 -1.5477e-20)
(0.995038 -0.00370156 0)
(0.829118 -0.101834 5.22176e-21)
(1.01905 0.000749166 -1.74803e-21)
(1.01906 0.00537172 -8.19599e-22)
(0.883361 -0.0522042 -5.61946e-20)
(1.0862 -0.028101 1.57117e-21)
(1.02017 -0.0140916 -3.15767e-22)
(1.08082 -0.00905729 3.79188e-21)
(1.02566 0.0057494 3.07033e-21)
(0.910219 -0.182882 9.46936e-22)
(1.01285 0.000742395 -1.68032e-21)
(1.02068 0.00633177 0)
(1.01414 -0.000614496 0)
(1.01209 -2.68625e-05 1.99214e-21)
(1.0115 0.000324191 -5.55004e-23)
(0.868872 0.00640223 5.50687e-20)
(1.03586 0.00553963 0)
(1.01046 -0.000144028 0)
(0.443099 -0.433869 -1.16065e-21)
(1.01642 0.00346749 0)
(0.962211 -0.0771936 -5.69713e-21)
(1.01715 -0.00613776 4.20363e-23)
(1.03621 0.00278229 0)
(1.00588 -0.0136066 1.9439e-22)
(1.01062 0.000146997 -1.08194e-21)
(0.928679 -0.283798 0)
(1.0134 0.000617512 0)
(1.01399 0.00287529 3.26038e-22)
(0.919131 0.0316062 0)
(1.02166 0.00534644 0)
(1.01597 -0.000682991 0)
(1.00772 -6.42761e-06 1.90272e-21)
(1.01313 0.000737492 2.0313e-21)
(1.01234 0.000727281 0)
(1.0901 0.00620389 2.43752e-22)
(0.906947 -0.0695898 0)
(0.991035 -0.215722 0)
(1.026 0.00163049 0)
(1.01375 0.000520002 -5.63867e-22)
(1.01301 0.00087613 1.9714e-21)
(0.889382 -0.194801 2.50438e-22)
(1.01303 0.00834189 2.76453e-23)
(1.01335 0.00299998 0)
(1.01226 -0.000258978 -6.41758e-22)
(1.01277 0.000681641 -1.96878e-21)
(0.83317 -0.14294 -5.14903e-21)
(0.932825 -0.0893821 -3.49231e-21)
(1.00648 -0.010808 1.58346e-22)
(1.01584 0.0039879 8.48671e-22)
(1.01214 -8.54789e-06 -1.12865e-21)
(0.443692 -0.204423 0)
(1.05999 0.0112486 0)
(1.01564 -0.0091765 -2.45175e-21)
(0.972455 0.0079062 -5.15326e-21)
(0.879224 -0.0831667 2.56712e-23)
(0.829448 0.279686 8.82972e-21)
(0.8499 -0.177343 -1.08388e-20)
(1.01286 0.000701096 -2.32333e-22)
(1.00994 1.83903e-05 -1.73819e-24)
(1.01336 0.000616099 0)
(0.994481 -0.171198 -2.19072e-21)
(1.01277 0.000682778 0)
(1.05436 0.00675869 -2.46178e-21)
(1.01465 -0.000468971 1.38414e-21)
(1.01668 -0.00179617 0)
(1.01123 -0.0137153 0)
(1.01645 -0.0014991 2.59808e-21)
(0.65534 -0.129238 0)
(0.549865 -0.0164203 9.15185e-21)
(1.01354 -0.000965944 2.00962e-21)
(1.01454 0.00201808 -9.81317e-22)
(1.01429 -0.00119218 0)
(0.932359 -0.0312281 2.72021e-21)
(1.01209 -3.02305e-05 1.8841e-21)
(1.04092 -0.119305 0)
(1.01896 -0.0037959 -2.59308e-21)
(0.824633 -0.171586 2.24664e-20)
(1.01351 0.000543155 5.52411e-22)
(1.01494 -0.00110145 2.9646e-22)
(1.01252 -0.000584292 0)
(1.01492 0.00123175 -1.39358e-22)
(1.01885 0.00478143 6.43623e-22)
(1.0178 -0.0033655 -5.87809e-24)
(1.02051 0.00210479 0)
(1.02942 0.00627937 0)
(1.02391 -0.0166128 -5.6539e-22)
(1.04616 0.0149483 -1.23787e-21)
(1.06748 0.149513 6.67692e-22)
(1.01849 0.000198196 0)
(1.0698 -0.0280475 0)
(0.894959 -0.0164856 -9.71753e-22)
(1.0154 -1.96507e-05 -1.71016e-21)
(0.732061 -0.382627 0)
(1.0135 0.00174539 1.07654e-21)
(1.0139 0.00185146 -3.74497e-21)
(1.02167 -0.00439649 0)
(1.00951 -8.79986e-05 -2.22721e-21)
(0.917108 -0.179875 -2.25184e-20)
(1.01442 -0.000406343 -1.57121e-21)
(1.01693 0.003455 -9.03561e-22)
(1.01419 -0.000818782 9.08703e-22)
(0.867623 0.343998 0)
(1.01475 -0.00097559 -3.16935e-22)
(1.01425 -0.145831 4.93448e-21)
(1.04852 0.0597444 2.42456e-22)
(1.01368 0.000489651 -1.65601e-21)
(0.938699 0.09869 -4.11122e-21)
(0.974392 -0.200484 9.37127e-21)
(1.01784 -0.00660322 1.47662e-22)
(1.01339 -5.44825e-05 0)
(1.08642 -0.00714227 -6.29454e-22)
(1.00393 8.5374e-05 -7.81738e-22)
(0.920529 0.231306 5.1585e-21)
(1.02591 -0.0114689 0)
(1.03819 0.0169631 1.33854e-21)
(1.01288 -0.0177063 0)
(1.02527 0.00168225 0)
(1.02171 0.00621932 -1.54347e-21)
(1.0141 0.00397726 1.32958e-21)
(0.993545 0.00883039 -8.25624e-22)
(1.02269 -0.00257495 1.39013e-21)
(1.01884 0.0866257 -1.11506e-22)
(1.08178 0.184945 -6.17237e-21)
(1.01689 -0.00196102 0)
(1.01773 -0.00476862 0)
(1.0165 3.34564e-05 2.17629e-21)
(1.03984 -0.00442871 0)
(1.00412 7.18427e-05 6.89886e-22)
(1.03016 -0.173834 0)
(1.02877 0.00233755 -1.22331e-21)
(1.01861 0.00613789 -5.39854e-22)
(0.909909 0.00904301 1.51318e-21)
(1.0133 0.000620887 0)
(1.08752 -0.0020642 1.32612e-21)
(1.00569 0.040241 1.43378e-21)
(1.01268 0.000190589 -8.44914e-22)
(1.05827 -0.0404581 -4.00949e-21)
(1.01142 -0.00389076 1.78088e-21)
(1.01427 0.000931039 0)
(1.01794 -0.000562325 0)
(0.981617 0.0349524 -5.50181e-21)
(1.013 0.000702843 -2.2909e-21)
(0.810908 0.28942 -2.75422e-20)
(1.02851 0.00608837 0)
(0.979395 0.0277727 7.79336e-22)
(1.05584 0.00647194 0)
(1.09182 -0.0709832 1.34046e-20)
(1.01739 -9.61126e-05 2.52166e-21)
(1.00954 0.0344306 0)
(1.01592 0.00118626 0)
(1.02974 0.00709115 0)
(1.04426 0.0573009 1.60171e-21)
(1.01244 -0.000437173 1.44317e-21)
(0.988356 0.0348459 3.0952e-21)
(1.01428 0.0015144 4.74068e-21)
(1.03005 0.00295155 2.49576e-21)
(1.01495 -0.00140644 -2.3695e-21)
(1.01421 0.00066816 3.22004e-22)
(1.03669 0.0130025 -6.6197e-21)
(1.03345 0.0749473 1.01778e-21)
(1.00983 0.000175943 1.46142e-21)
(1.02602 0.00374749 0)
(0.936849 -0.0701201 -9.78347e-22)
(1.01242 -0.000346629 1.41222e-21)
(1.01344 0.000556189 -5.61254e-22)
(1.01401 0.00181718 0)
(1.01435 -0.00138768 7.20517e-22)
(1.00345 -0.0100917 6.72392e-23)
(1.01961 0.000905158 0)
(1.01578 0.00195319 -1.37922e-21)
(1.00489 -0.00651132 -5.35202e-22)
(0.941484 -0.0989571 0)
(1.01852 0.00470278 1.89342e-22)
(0.997944 0.00235001 -2.49877e-21)
(0.94275 0.214873 0)
(1.01264 0.000600929 2.45857e-22)
(1.0151 0.000950402 1.16605e-21)
(1.01442 -0.00130669 -1.1348e-22)
(0.849862 -0.146075 0)
(0.878164 -0.0428209 1.42742e-21)
(1.04285 0.0210346 -4.38543e-21)
(1.01195 0.000289835 0)
(1.01656 0.0775423 0)
(1.1192 0.250195 2.39477e-20)
(0.41193 -0.405608 1.83565e-21)
(1.01755 -0.00247846 1.65572e-21)
(0.831925 -0.121138 -1.0822e-21)
(1.18054 0.145983 -2.3792e-20)
(1.03437 0.195864 6.35709e-21)
(1.012 -0.00490485 7.60392e-23)
(1.01776 -0.00351011 6.40072e-24)
(1.01844 -0.00507867 -4.34057e-23)
(1.07798 0.119942 0)
(0.956704 -0.0521397 1.52492e-21)
(1.02872 0.00481273 4.29875e-21)
(0.302785 -0.322352 1.74658e-21)
(1.04877 0.0118767 0)
(1.06759 -0.0227677 3.8713e-21)
(0.924037 -0.117853 -3.64634e-20)
(1.01382 0.00204935 2.61339e-21)
(1.02471 0.0253758 -1.30335e-21)
(0.903879 0.274846 0)
(1.04448 0.0509403 -1.53912e-21)
(0.7295 0.276237 0)
(0.99278 0.0114318 0)
(0.203541 -0.240458 4.11078e-22)
(1.0162 0.00235188 0)
(0.859606 -0.216091 9.12051e-21)
(1.02121 0.00543437 0)
(1.0069 -0.00678081 -2.10361e-21)
(1.00975 0.000154438 0)
(0.997609 0.00403175 0)
(1.01616 -0.000905739 1.31853e-22)
(1.02112 0.0068032 0)
(1.01439 0.00209591 0)
(0.697191 -0.0697139 4.67014e-20)
(1.01466 -0.000123362 0)
(1.01691 -0.00207015 -1.37205e-22)
(0.838947 0.353791 1.29352e-20)
(1.02033 0.00447965 -3.13354e-21)
(1.05227 0.0244484 -5.37083e-21)
(1.01772 -0.00330211 0)
(1.01515 0.0759863 0)
(1.01262 -0.000277798 7.5346e-23)
(1.02881 0.0128563 -4.48385e-22)
(1.01661 0.00382866 0)
(1.01589 0.000717382 0)
(1.01645 0.00337317 -7.71438e-23)
(1.0569 0.00775019 -1.46788e-21)
(1.01242 0.00078086 2.11602e-22)
(0.977026 0.46977 -2.37579e-21)
(1.04622 0.0166845 0)
(1.06908 0.00559548 0)
(1.01477 -0.00026596 -1.43281e-21)
(0.984315 -0.196153 -5.81431e-21)
(1.01225 0.000613604 1.10688e-22)
(1.09269 0.000649834 -1.41271e-21)
(0.9277 -0.00885942 0)
(1.02376 -0.00150203 -1.31165e-21)
(1.01657 0.00366906 0)
(1.01384 -0.00121925 1.21435e-21)
(1.01584 0.00102909 0)
(1.01573 0.000358192 1.39153e-21)
(1.11269 0.179201 0)
(0.988054 -0.0283453 -4.6497e-21)
(1.0131 0.000813747 -2.02833e-21)
(1.108 -0.0316163 -1.04694e-20)
(1.01092 -8.91993e-05 -3.67372e-21)
(1.01381 0.000582294 -6.38562e-22)
(0.91059 -0.300773 1.8103e-20)
(1.01406 -0.000868786 0)
(1.01618 0.00051303 0)
(1.12101 0.0248966 -3.07657e-21)
(1.01258 0.000693502 0)
(1.04644 -0.0899494 0)
(1.03534 0.0126203 -1.37217e-21)
(0.94133 0.00367882 0)
(1.05483 0.0207387 7.45456e-21)
(0.994479 -0.0253587 -7.77795e-22)
(1.0225 -0.0103355 0)
(1.01686 0.00411398 -1.73145e-22)
(0.802881 -0.428715 0)
(0.68809 -0.350427 0)
(1.01399 0.00200518 -9.03811e-22)
(0.988973 0.0255378 -1.97833e-21)
(0.685863 -0.146239 -5.48019e-22)
(0.978036 0.444036 4.49946e-20)
(1.02158 0.201519 0)
(1.00851 -1.70162e-05 0)
(1.01406 -0.000363473 1.37785e-21)
(1.01484 0.00170337 -3.46951e-23)
(1.0193 0.00679335 1.36376e-23)
(1.01291 -0.00479873 1.76887e-21)
(0.947912 -0.101366 2.15059e-21)
(1.05121 0.00706098 -2.32328e-21)
(1.01385 -0.0010876 -2.28255e-21)
(1.06927 0.0153059 0)
(0.904909 0.198 -1.03252e-21)
(0.887151 -0.0105383 -3.63662e-21)
(1.01366 -0.000948314 1.35462e-21)
(1.01432 -0.00110865 1.03998e-21)
(1.00976 -0.00011461 1.54156e-22)
(1.02587 0.00638976 0)
(0.945532 -0.293166 -2.97988e-20)
(1.09493 0.0642009 2.11422e-22)
(1.01484 -0.00106316 -2.12858e-21)
(1.05413 0.0109273 -1.60002e-22)
(1.03289 0.0956081 -2.4648e-22)
(1.01435 0.00420143 0)
(1.01231 0.000357341 0)
(0.417666 -0.343618 -1.02343e-21)
(1.01127 0.00878344 -5.03119e-22)
(0.967124 -0.0529079 -5.18175e-21)
(1.01494 -0.00546098 2.6342e-23)
(1.0104 3.9978e-05 -1.10068e-21)
(1.02604 0.00267877 6.52335e-21)
(1.01872 0.000923718 2.11676e-21)
(0.968819 -0.0614215 -7.23619e-21)
(1.0369 0.0459116 1.56941e-21)
(1.01403 0.00364612 2.20219e-21)
(0.847655 0.0876517 0)
(1.09927 0.206404 1.67206e-20)
(1.03249 -0.151532 6.05254e-21)
(1.04194 0.0200345 1.18381e-20)
(1.01223 0.00918618 1.14785e-21)
(0.376016 -0.327094 0)
(1.07239 0.0150797 0)
(0.911928 -0.0134684 2.56833e-20)
(1.06693 0.0107755 1.61948e-20)
(1.01868 0.00524624 -6.54598e-22)
(1.01324 0.00136813 -3.29197e-22)
(1.06457 -0.126987 -9.19758e-21)
(1.07783 0.183757 -3.87465e-21)
(1.01178 0.00372195 -8.39938e-22)
(1.05248 0.0111061 -8.66874e-21)
(1.07495 0.0136936 -1.51636e-20)
(1.01439 0.00172051 -2.45354e-21)
(1.05876 -0.00629061 4.72667e-22)
(1.0119 0.00429148 -2.97763e-23)
(1.01479 0.00101318 0)
(1.00857 -7.77456e-05 -1.54157e-21)
(1.07066 0.0143987 -3.56118e-21)
(1.01421 0.00103969 -2.30452e-21)
(1.01439 0.00219308 1.92383e-22)
(0.0948686 0.115915 -1.28788e-20)
(1.01295 0.000508732 -4.39195e-21)
(1.01389 -0.000294788 -1.87013e-21)
(0.970695 0.0200188 0)
(1.0527 0.0170947 -7.90252e-21)
(0.84996 0.0138539 0)