/*--------------------------------*- C++ -*----------------------------------*\
| =========                 |                                                 |
| \\      /  F ield         | OpenFOAM: The Open Source CFD Toolbox           |
|  \\    /   O peration     | Version:  v2012                                 |
|   \\  /    A nd           | Website:  www.openfoam.com                      |
|    \\/     M anipulation  |                                                 |
\*---------------------------------------------------------------------------*/
FoamFile
{
    version     2.0;
    format      ascii;
    class       surfaceVectorField;
    location    "450";
    object      Uf;
}
// * * * * * * * * * * * * * * * * * * * * * * * * * * * * * * * * * * * * * //

dimensions      [0 1 -1 0 0 0 0];


internalField   nonuniform List<vector> 
14470
(
(0.968305 -0.0129159 -5.63898e-21)
(0.966651 -0.0126964 -4.58593e-21)
(0.967798 -0.011157 3.95901e-21)
(-0.00476372 -0.0562809 0)
(-0.0196476 -0.0557453 0)
(0.993761 -0.00573901 5.54991e-21)
(0.994046 -0.00607143 -2.97963e-21)
(0.993556 -0.00617082 -1.12564e-22)
(-0.0690882 0.549994 2.03141e-20)
(-0.0631916 0.548826 2.98015e-20)
(-0.0583831 0.560717 3.37327e-20)
(0.999964 -8.0117e-05 2.48115e-21)
(0.999961 -4.86993e-05 -3.23874e-21)
(0.999929 -4.52068e-05 2.92987e-21)
(1.27137 0.101785 -2.42676e-20)
(1.28462 0.117071 5.16093e-20)
(1.29149 0.096229 -3.70368e-20)
(1.12309 -0.261271 1.81996e-20)
(1.13304 -0.250449 1.25806e-21)
(1.14173 -0.265585 1.93974e-21)
(-0.205727 0.0604015 -2.02462e-19)
(-0.156777 0.0919568 -9.52644e-20)
(-0.341872 0.0664369 -8.00082e-20)
(1.02167 -0.0279285 -1.67313e-22)
(1.0231 -0.028561 -2.54485e-22)
(1.02164 -0.0296014 -1.4427e-22)
(0.999949 -0.00127147 0)
(0.999945 -0.00107929 -4.34793e-22)
(0.999957 -0.00109754 0)
(0.999919 -0.00145181 -3.37724e-21)
(0.999946 -0.00150143 0)
(1.00233 -0.00753587 -1.02351e-23)
(1.00222 -0.00727159 5.53713e-22)
(1.00205 -0.00752692 4.19428e-23)
(0.271762 -0.063547 1.25265e-19)
(0.196851 -0.0151784 -2.13858e-20)
(0.201699 -0.0915661 8.88606e-20)
(1.01804 -0.0155106 -1.37515e-22)
(1.01744 -0.0148428 -2.84374e-23)
(1.01845 -0.0146711 2.74575e-22)
(1.05065 0.0296921 2.88508e-21)
(1.05235 0.0319549 1.00728e-20)
(1.04904 0.0320679 1.33502e-20)
(1.16466 -0.0359693 -8.94607e-21)
(1.17356 -0.0371441 2.07455e-20)
(1.16895 -0.0452305 -4.24164e-21)
(0.995646 -0.00764647 -4.33494e-21)
(0.995635 -0.00792975 -3.69242e-21)
(0.996013 -0.00782266 -3.61214e-21)
(-0.0821276 0.19091 1.1316e-20)
(-0.0800832 0.18029 1.00948e-20)
(-0.0969247 0.165648 -3.3913e-21)
(1.01245 -0.00270168 -1.64282e-22)
(1.01234 -0.0024922 3.66331e-22)
(1.01261 -0.00256841 8.28871e-23)
(1.01707 -0.00473027 0)
(1.01744 -0.0044237 -2.72992e-23)
(1.01682 -0.00436491 2.81137e-22)
(0.999995 -8.09519e-05 4.18806e-21)
(0.999992 -8.69844e-05 0)
(0.0404203 0.578335 -4.81336e-20)
(0.0538957 0.576615 -9.86463e-21)
(0.0245411 0.58319 -3.81479e-21)
(-0.113222 0.0391021 1.74927e-19)
(-0.282305 0.0296442 -1.0979e-19)
(0.347812 -0.046235 -6.70696e-20)
(0.350512 -0.11136 -7.25612e-20)
(0.926403 -0.0517478 6.42613e-21)
(0.931267 -0.0507421 8.4387e-21)
(0.927441 -0.0462727 -1.62785e-22)
(0.999897 -0.00344922 2.98721e-21)
(0.999969 -0.00362929 -8.6952e-22)
(0.999953 -0.00334417 -1.89559e-21)
(1.00001 -0.00025472 -3.80501e-22)
(1.00002 -0.000286136 1.02395e-20)
(1.00003 -0.000346138 1.63729e-21)
(1.01231 -0.00278363 3.78441e-22)
(1.01257 -0.00287354 -1.77502e-22)
(1.20759 -0.142007 -3.75098e-21)
(1.2204 -0.139806 -1.45808e-20)
(1.21593 -0.154427 1.71668e-20)
(-0.777511 -0.143705 -8.66461e-20)
(-0.753081 -0.142541 0)
(-0.796225 -0.113858 0)
(1.44198 0.132793 5.74703e-20)
(1.40616 0.116031 -1.43658e-20)
(1.44336 0.0957148 -8.17341e-20)
(0.997253 -0.00487154 -3.70505e-21)
(0.997121 -0.00466598 1.86753e-21)
(0.996991 -0.00506998 -3.12841e-21)
(0.998108 -0.00806849 3.13588e-21)
(0.997936 -0.00824406 4.96243e-21)
(0.998265 -0.00829179 -4.79178e-21)
(1.00455 -0.000455495 -1.85111e-21)
(1.00435 -0.000453578 9.04519e-22)
(1.00423 -0.00026273 0)
(1.08591 -0.00302578 -1.03914e-20)
(1.08507 -0.00623844 -1.00578e-20)
(1.08841 -0.00445288 -4.70763e-21)
(1.04821 0.020877 -5.62625e-21)
(1.04847 0.0185381 0)
(1.04622 0.0191279 0)
(0.927624 0.00753715 7.51889e-21)
(0.924561 0.00942965 -2.04405e-20)
(0.924531 0.00484408 -2.76656e-20)
(-0.387641 0.25648 0)
(-0.375642 0.287895 0)
(-0.370676 0.256686 2.56181e-20)
(1.09447 -0.0587338 -1.16092e-21)
(1.08957 -0.0568378 -9.8778e-22)
(1.09372 -0.0531903 -2.66734e-20)
(1.19347 -0.145765 -2.61853e-20)
(1.19694 -0.132663 3.8793e-20)
(1.26808 0.51153 0)
(1.29795 0.508245 -6.7249e-20)
(1.20422 0.549138 0)
(-0.0427514 0.35479 -8.98456e-20)
(0.00433952 0.36286 -4.85818e-20)
(-0.133312 0.303618 6.60302e-20)
(1.00001 -0.000175376 -7.99942e-21)
(1.00001 -0.000243527 -4.98136e-21)
(0.993909 -0.00165446 1.58563e-21)
(0.99355 -0.00166115 4.75184e-21)
(0.993579 -0.00122149 -6.3047e-21)
(0.997047 -0.00166279 -4.5075e-22)
(0.997282 -0.00161249 1.4095e-21)
(0.997253 -0.00135057 -1.92547e-21)
(-0.878156 0.0215752 -1.64747e-20)
(-0.901003 0.0154575 8.75498e-20)
(-0.788001 0.0450573 9.0845e-20)
(0.999992 -0.000225031 -6.66657e-21)
(1 -0.000131043 -3.67645e-21)
(1.00001 -0.000134774 -2.94368e-21)
(1.0217 -0.000459165 1.37148e-21)
(1.0211 -0.000174742 1.3973e-21)
(1.02184 0.000188087 -1.50753e-21)
(0.995686 -0.00728833 0)
(0.995259 -0.0074119 0)
(1.08719 0.00106336 1.05976e-20)
(1.08325 -0.000684325 -2.93132e-21)
(1.00472 -0.000627566 -1.73094e-21)
(1.00477 -0.000420169 7.56513e-22)
(1.11775 -0.0197359 -7.10877e-21)
(1.12241 -0.0220018 0)
(1.12045 -0.0164406 -9.39721e-21)
(0.999985 -0.000294459 -1.07922e-21)
(0.999979 -0.000290698 -1.191e-22)
(0.902452 -0.107436 0)
(0.911705 -0.106158 -4.43729e-21)
(0.908715 -0.116101 9.9655e-22)
(-0.0909853 0.537235 -2.29351e-20)
(-0.0787227 0.548565 -3.54068e-20)
(1.00243 -0.00690109 0)
(1.00231 -0.00670028 0)
(1.00256 -0.00670117 4.47967e-21)
(1.15225 0.0549626 -1.23987e-20)
(1.15059 0.0562523 -1.3056e-20)
(1.14995 0.0540542 -3.37189e-20)
(1.02152 -0.000972003 5.79537e-23)
(1.02226 -0.000668371 -8.56902e-22)
(1 -0.000133748 3.02958e-21)
(0.912234 -0.0113541 -4.97751e-21)
(0.907321 -0.00979722 5.53963e-21)
(0.911801 -0.00602323 -1.04113e-20)
(0.818027 -0.304351 0)
(0.834749 -0.31476 -1.01444e-23)
(0.809599 -0.333486 -9.0769e-21)
(0.995214 -0.00644017 -3.69626e-22)
(0.994955 -0.00615945 -4.8853e-21)
(0.99539 -0.0062012 9.73574e-22)
(1.09268 0.0386546 -1.08514e-20)
(1.09244 0.033991 -2.03348e-20)
(1.08862 0.0373737 -1.09004e-21)
(1.00241 -0.00111139 2.07277e-21)
(1.00256 -0.00101849 1.0391e-21)
(1.00258 -0.0012254 0)
(1.02029 -0.0273481 3.2087e-22)
(1.02146 -0.0265048 0)
(-0.940038 -0.0292651 -1.34184e-19)
(-0.922304 -0.0277261 0)
(1.05777 -0.0290044 -1.21688e-20)
(1.05537 -0.0298278 -3.54756e-21)
(1.05766 -0.0318698 9.42684e-22)
(1.0479 0.023045 -3.62379e-21)
(1.0471 0.0253907 -1.44214e-21)
(1.04526 0.0234035 -7.84197e-21)
(0.327641 0.312619 6.05543e-21)
(0.402047 0.299676 7.0855e-21)
(0.42221 0.356959 -4.47473e-21)
(0.982685 -0.009185 -1.43492e-22)
(0.981638 -0.00885573 8.19473e-21)
(0.982578 -0.00827784 -7.78063e-21)
(0.616817 0.0585741 0)
(0.597993 0.0736171 -1.68901e-20)
(0.594361 0.0455192 9.43085e-21)
(-0.428924 0.0907417 -1.30389e-20)
(-0.275629 0.116341 2.00165e-19)
(-0.410834 0.114757 2.80721e-19)
(1.20896 0.428654 -1.05072e-20)
(1.21282 0.467615 -5.65991e-21)
(1.25221 0.427471 2.47559e-20)
(0.602711 0.0835312 -1.10062e-21)
(0.502406 0.0639086 5.24866e-21)
(0.588625 0.0268545 -1.98846e-21)
(0.999991 -0.000358178 4.71899e-22)
(0.999988 -0.000378528 2.61551e-22)
(0.999996 -0.000464225 -1.7776e-22)
(0.798583 -0.115792 4.29319e-20)
(0.812311 -0.123408 -3.01758e-20)
(0.810961 -0.107644 -4.07903e-20)
(1.13017 0.179749 1.02595e-19)
(0.997427 0.202486 1.88834e-19)
(0.978067 0.144696 -2.0275e-19)
(0.995674 -0.00457555 -2.15337e-21)
(0.995509 -0.00478031 -4.14294e-21)
(0.995849 -0.00482513 1.23583e-21)
(0.999967 -0.000176608 -1.34249e-22)
(0.999971 -0.000195413 -7.56154e-21)
(0.999988 -0.000158664 -2.54971e-22)
(0.787948 -0.121649 3.70384e-20)
(0.786998 -0.104937 3.15105e-20)
(-0.0953666 0.21323 6.37579e-21)
(-0.0667017 0.209129 0)
(1.15698 -0.0360585 -1.92496e-20)
(1.16097 -0.0290268 5.47656e-22)
(0.983729 -0.063196 4.08587e-21)
(0.986894 -0.0645709 -7.40111e-22)
(0.987129 -0.0610685 -1.63064e-21)
(1.0504 0.0226767 1.08248e-21)
(1.39344 -0.202705 -9.047e-20)
(1.37152 -0.215451 -4.22341e-20)
(1.37108 -0.187003 -6.35361e-21)
(0.999963 -0.000155031 4.10272e-22)
(0.999942 -0.000176316 7.59949e-21)
(1.13491 0.0710269 -2.78706e-20)
(1.13031 0.0688714 1.27309e-20)
(1.13086 0.074352 -1.53524e-20)
(-0.399804 0.225306 1.42509e-20)
(-0.394618 0.253556 0)
(0.815336 -0.284158 0)
(0.792001 -0.301713 -4.27287e-20)
(0.0114266 0.562643 -1.06614e-20)
(0.00338642 0.570787 8.16002e-21)
(-0.0204462 0.564744 3.60138e-20)
(1.48455 -0.35637 1.27736e-19)
(1.52386 -0.327293 -3.85273e-20)
(1.44601 -0.337869 1.09409e-19)
(1.43969 -0.38715 0)
(1.47918 -0.364991 3.6069e-20)
(1.10536 -0.114861 -1.28757e-22)
(1.11317 -0.122009 1.15755e-22)
(1.11369 -0.111411 9.66256e-21)
(-0.090845 0.3373 1.83174e-19)
(0.0467923 0.391399 -2.99517e-20)
(0.997022 -0.0101721 -3.45227e-21)
(0.997198 -0.0106326 -3.2692e-21)
(0.997473 -0.0101522 -3.34994e-21)
(0.611422 0.150873 1.26289e-20)
(0.685701 0.105963 -1.374e-21)
(1.16749 -0.0694963 -3.23409e-20)
(1.1609 -0.075014 7.78275e-22)
(1.15929 -0.0657218 3.5436e-20)
(1.04713 -0.0530484 -5.49674e-21)
(1.05033 -0.0539578 3.23773e-22)
(1.04782 -0.0565127 -1.21021e-21)
(0.999989 -9.96298e-05 3.47255e-21)
(0.999962 -0.000106836 3.18377e-21)
(-0.180731 0.373799 0)
(-0.177431 0.339157 4.25993e-20)
(-0.128677 0.363851 0)
(1.11501 -0.0240443 -1.52202e-20)
(1.11291 -0.0179458 -3.13697e-21)
(0.729894 0.467143 3.16954e-21)
(0.640363 0.427572 2.01951e-21)
(0.743905 0.51223 1.25663e-20)
(0.99425 -0.00157581 -6.21592e-21)
(0.994272 -0.00198899 5.18314e-21)
(0.315959 -0.166269 -9.16978e-24)
(0.16758 -0.166707 1.43737e-22)
(0.267293 -0.135662 -1.57105e-21)
(0.863053 0.215513 1.03918e-19)
(0.728283 0.184739 1.8056e-19)
(0.729658 0.229583 1.29966e-19)
(1.1986 0.378274 -5.04187e-23)
(1.15987 0.41074 -2.90983e-20)
(1.00418 -0.00529196 -1.57306e-22)
(1.00417 -0.0055306 -1.46701e-21)
(1.00396 -0.00530603 1.43507e-21)
(0.995486 -0.00432635 -4.16769e-21)
(0.995848 -0.00435256 5.48586e-21)
(0.999996 -7.0737e-05 -8.43065e-23)
(1.00004 -0.000530047 8.50483e-23)
(1.00005 -0.000521345 9.78978e-23)
(1.00005 -0.000642061 -1.73124e-21)
(0.0213025 0.575715 2.92553e-20)
(0.0570022 0.569834 -1.27796e-20)
(0.120549 -0.0762974 -8.95875e-20)
(0.0872559 -0.0817587 -3.14346e-20)
(0.0891527 -0.0443054 2.37461e-20)
(-0.399816 -0.125361 -9.43032e-20)
(-0.424079 -0.12732 -3.63944e-20)
(-0.346845 -0.0991937 1.09458e-19)
(0.983665 -0.00932314 -5.86651e-21)
(0.982918 -0.00989901 -1.69043e-21)
(0.999196 -0.00259416 8.55199e-21)
(0.99918 -0.0028198 -5.57903e-21)
(0.999075 -0.00275488 0)
(1.03217 0.025484 -2.67581e-21)
(1.03013 0.024703 2.16037e-21)
(1.03069 0.0275573 5.62366e-21)
(0.997368 -0.00207212 -3.0055e-21)
(0.997568 -0.00198815 -3.08873e-21)
(0.997408 -0.00230904 -6.49401e-21)
(-0.11481 0.523466 1.10909e-20)
(-0.125865 0.522718 1.2273e-20)
(-0.136897 0.50911 -4.9746e-20)
(0.996838 -0.00134515 -2.86126e-21)
(0.996741 -0.00161889 -5.47012e-21)
(0.996575 -0.00150088 -1.69868e-21)
(0.0599822 -0.173782 -3.38003e-22)
(0.0565086 -0.208983 -3.79166e-21)
(-0.0835069 -0.181614 -3.2402e-21)
(1.14001 0.0718635 -2.06796e-22)
(1.13865 0.0670868 -1.46802e-20)
(0.805447 0.191328 -3.60599e-22)
(0.767868 0.181442 -2.73115e-21)
(0.777159 0.24647 1.06704e-21)
(1.12785 0.00706745 -2.72165e-20)
(1.1283 0.0122387 -6.57079e-21)
(1.12393 0.0102667 -1.7985e-20)
(1.04881 0.0160118 2.7051e-21)
(1.0512 0.0176123 -9.86789e-21)
(0.996844 -0.00107853 1.58331e-20)
(0.997049 -0.00114259 1.12425e-20)
(1.18024 -0.0569001 1.36622e-20)
(1.18871 -0.0519947 -1.77387e-20)
(1.1896 -0.0632271 -2.87211e-20)
(-0.815152 -0.138969 -9.40203e-20)
(-0.709484 -0.168997 -1.80754e-20)
(1.21212 0.0869751 1.35966e-20)
(1.2013 0.0864751 -1.555e-20)
(1.20899 0.0729385 -2.17475e-20)
(1.22622 0.0908202 2.88023e-20)
(1.21435 0.105815 3.07216e-20)
(1.05482 -0.00261744 -1.81864e-21)
(1.05371 -0.000547014 -6.96612e-21)
(1.05267 -0.00261819 5.64532e-21)
(1.00637 -0.0112914 0)
(1.00678 -0.0111542 -1.76691e-21)
(1.00636 -0.0108881 2.0733e-21)
(0.970078 -0.0127949 0)
(0.969041 -0.0142679 -1.09735e-21)
(1.05112 -0.0264347 0)
(1.04905 -0.0274139 -2.35066e-21)
(1.04907 -0.0249726 0)
(1.08301 -0.00828103 -1.18739e-22)
(1.07937 -0.00768713 -7.08981e-22)
(1.0806 -0.0114457 9.14489e-21)
(1.23193 -0.285787 -1.6252e-20)
(1.21479 -0.28981 0)
(1.22851 -0.306901 -4.14413e-20)
(1.15158 0.228761 8.66413e-21)
(1.12387 0.22611 -1.904e-20)
(1.14114 0.197494 3.89542e-21)
(1.03407 0.0267973 0)
(1.03336 0.0239814 2.20811e-21)
(0.999997 -0.000354165 -2.76122e-22)
(0.999997 -0.000251937 -7.80017e-23)
(1.18049 -0.0202935 -3.1464e-20)
(1.18383 -0.0152171 -1.45023e-20)
(1.18773 -0.0229396 8.53603e-21)
(-0.0518192 0.275395 2.68644e-22)
(-0.0850052 0.250027 -1.08816e-20)
(-0.0405632 0.260517 -1.77766e-20)
(1.08593 -0.00989301 1.35294e-20)
(0.987055 -0.0162081 -5.34626e-21)
(0.987411 -0.0172656 1.77531e-22)
(0.988125 -0.0163412 0)
(1.12198 0.0600411 -1.79607e-20)
(1.12183 0.0645281 -4.32658e-21)
(1.11779 0.0620609 4.03498e-21)
(-0.846338 0.0304331 -1.03872e-19)
(-0.813382 0.037729 3.41792e-21)
(-0.736499 0.0672001 -9.06921e-20)
(1.08295 -0.470858 -5.41153e-20)
(1.0701 -0.467416 1.79632e-20)
(1.06942 -0.484411 -6.28205e-21)
(0.996866 -0.000844389 2.71511e-22)
(0.997087 -0.000643336 -8.8188e-21)
(0.633571 0.187993 4.86509e-21)
(0.57327 0.167151 1.99829e-21)
(1.00603 -0.0114433 1.15039e-21)
(1.00646 -0.0116944 -1.30787e-21)
(0.996621 -0.00100733 1.33254e-20)
(0.999247 -0.00422147 -2.83356e-21)
(0.999338 -0.00401191 7.43289e-21)
(0.999241 -0.00388148 -3.20819e-21)
(0.13573 -0.113358 0)
(0.30436 -0.150491 5.77323e-20)
(0.195111 -0.111748 0)
(1.04365 -0.0521764 8.41925e-21)
(1.04589 -0.0498806 4.84725e-21)
(0.99985 -0.00333857 -4.83459e-22)
(0.999851 -0.00356654 3.09572e-21)
(0.988037 -0.00232 -2.4537e-21)
(0.988242 -0.00290452 5.08019e-21)
(0.987575 -0.0028706 8.59664e-21)
(1.40705 -0.4185 9.33156e-20)
(1.43568 -0.417425 -1.6962e-19)
(1.40652 -0.435128 -9.51474e-20)
(1.17653 -0.0279695 -9.7101e-21)
(1.1827 -0.0382704 -4.75449e-20)
(0.995483 -0.00673939 3.65374e-21)
(0.99505 -0.00675866 3.78575e-21)
(1.43533 0.169186 5.99081e-20)
(1.48642 0.149571 1.47528e-19)
(0.986853 -0.00981901 5.86489e-21)
(0.987597 -0.00952864 -1.04325e-21)
(0.987522 -0.0103958 -2.03435e-21)
(1.12598 0.0667135 1.57272e-20)
(1.13019 0.0641735 2.3361e-20)
(1.0571 -0.00252403 -6.65923e-21)
(1.05589 -0.00466841 -7.30373e-21)
(1.01734 -0.00499254 0)
(1.0168 -0.00494923 -3.53244e-22)
(0.580355 -0.37633 -4.67294e-20)
(0.590096 -0.405963 -5.09866e-20)
(0.552837 -0.396367 6.15447e-20)
(1.03169 -0.00414852 -4.07498e-21)
(1.03234 -0.00506964 3.6651e-21)
(1.03104 -0.00523569 3.22153e-21)
(1.2743 0.217216 -1.24102e-19)
(1.26702 0.156766 7.3466e-20)
(0.554113 0.364448 2.01903e-21)
(0.470363 0.287543 -5.6103e-21)
(0.579018 0.3956 9.0877e-21)
(1.03575 -0.00653157 -4.47286e-21)
(1.03613 -0.0078315 -6.02345e-21)
(1.03463 -0.00761225 -2.63208e-21)
(1.00419 -0.0050472 -7.74794e-22)
(1.00416 -0.0048121 -5.89733e-22)
(1.00395 -0.00484544 9.47132e-23)
(0.999941 -0.000898903 -7.53088e-23)
(0.999954 -0.000750877 3.7324e-22)
(0.999948 -0.00072468 3.66671e-22)
(0.986683 -0.0155457 2.01629e-21)
(0.985994 -0.0162742 -4.19556e-21)
(-0.134557 -0.0644329 3.30832e-20)
(-0.124394 -0.0731693 -4.35278e-20)
(-0.145723 -0.0665869 -8.35526e-20)
(0.650146 -0.345247 -4.45354e-20)
(0.478837 -0.264065 -7.21064e-21)
(0.357161 -0.202195 0)
(-0.444775 -0.398574 0)
(-0.440983 -0.369137 -4.71228e-20)
(-0.467131 -0.331801 0)
(1.00236 -0.0078959 5.75976e-22)
(1.0026 -0.00762298 -3.39271e-23)
(1.25962 0.0833629 3.58232e-20)
(1.251 0.100082 -2.59851e-20)
(0.991431 -0.377957 -3.35256e-21)
(1.00972 -0.368768 0)
(0.99257 -0.358202 -1.8574e-21)
(0.566522 -0.48299 1.95962e-20)
(0.528417 -0.518219 1.12726e-19)
(0.528199 -0.455153 -4.46224e-20)
(0.995322 -0.0049859 -2.08293e-21)
(0.995552 -0.00527536 0)
(0.995141 -0.00518156 3.06013e-21)
(1.05825 -0.023739 1.74261e-20)
(1.05798 -0.0265038 -5.92882e-21)
(1.05566 -0.0242614 3.56502e-21)
(0.479599 -0.156656 6.50621e-21)
(0.401482 -0.187993 2.368e-21)
(-0.965242 -0.00141224 -9.65836e-20)
(1.14149 0.075801 3.12818e-20)
(1.14464 0.0713791 9.17598e-21)
(0.996895 -0.00200728 -1.754e-21)
(0.996839 -0.00176085 1.87316e-21)
(0.997854 -0.00148595 -3.61924e-21)
(0.997996 -0.00126326 -5.09868e-23)
(0.998023 -0.00146615 -5.16118e-23)
(1.00441 -0.00525747 -1.27529e-21)
(0.849747 0.206173 2.28228e-21)
(0.834138 0.149113 0)
(-0.458019 0.0685603 -1.88959e-19)
(-0.584588 0.0646349 -1.79312e-19)
(0.865955 -0.431782 -5.45813e-20)
(0.979362 -0.501713 4.50107e-20)
(0.823238 0.510422 3.24197e-21)
(0.714293 0.40454 8.52127e-20)
(1.01911 -0.0267211 -3.58469e-22)
(1.01793 -0.0259461 2.07982e-22)
(1.01913 -0.0252089 -6.14601e-22)
(0.136953 0.331713 5.10772e-20)
(0.0793377 0.268982 -7.83189e-21)
(0.105627 0.175604 -6.4647e-21)
(0.406727 -0.101568 1.59702e-20)
(0.383491 -0.115691 -6.709e-20)
(0.412844 -0.12801 -1.7178e-19)
(0.922111 -0.0160751 -8.00335e-21)
(0.920627 -0.0124976 2.80862e-21)
(0.924911 -0.0127845 1.69637e-21)
(1.02173 0.00248521 0)
(1.02183 0.00190626 1.83566e-21)
(1.02116 0.00202872 0)
(0.966441 -0.0458996 4.89596e-21)
(0.968417 -0.0439871 6.15453e-21)
(0.965588 -0.0429075 -1.62132e-21)
(0.204248 0.15773 1.4867e-20)
(0.168494 0.151554 -1.84524e-20)
(0.194374 0.117422 -9.60078e-20)
(1.01098 -0.00281556 0)
(1.01124 -0.00285294 0)
(1.01114 -0.00298229 4.70439e-22)
(0.995403 -0.00817655 3.07742e-21)
(0.99577 -0.00825952 4.52737e-21)
(0.999717 -0.000575842 8.26808e-22)
(0.999742 -0.000617722 -1.20954e-21)
(0.999783 -0.000428771 -1.63745e-20)
(0.980648 -0.00892806 1.4386e-20)
(0.979531 -0.00905948 4.42541e-21)
(0.980413 -0.00995426 -1.00045e-21)
(1.01817 -0.00345835 0)
(1.01833 -0.0031532 7.17598e-22)
(1.01787 -0.00314995 -1.2581e-22)
(1.08542 0.00660247 -8.58851e-21)
(1.08821 0.00421622 1.74619e-21)
(1.08936 0.00791866 5.67774e-21)
(1.06056 0.00665838 -1.04664e-21)
(1.06314 0.00667885 -7.88226e-21)
(1.06116 0.00881993 5.79846e-21)
(-0.201823 0.321128 1.69176e-21)
(-0.188886 0.334909 3.79922e-20)
(-0.173858 0.305568 3.61517e-20)
(0.985349 -0.00155664 5.59934e-21)
(0.984686 -0.00202889 -6.10152e-21)
(0.985509 -0.00226553 1.29322e-20)
(1.08252 -0.0511733 -2.2488e-21)
(1.07935 -0.0486134 1.77963e-21)
(1.07868 -0.0530137 1.81815e-20)
(1.03527 -0.0053333 -3.43298e-21)
(1.03665 -0.00545701 3.11966e-21)
(0.973559 -0.0246983 8.96275e-21)
(0.973789 -0.0226879 -1.25609e-20)
(0.975329 -0.0241765 3.28098e-21)
(0.791158 -0.510838 -1.19873e-20)
(0.755097 -0.513663 -1.07108e-20)
(0.781439 -0.552539 6.19656e-21)
(1.17248 -0.0205221 -1.63735e-20)
(-0.00148311 0.310866 -2.5829e-20)
(-0.064368 0.293687 8.00367e-21)
(1.01014 -0.00284218 -1.05389e-21)
(1.01 -0.0027072 8.99698e-22)
(1.0099 -0.0028461 -4.89832e-22)
(0.237948 0.278471 -7.43978e-21)
(0.26545 0.324871 -1.47361e-20)
(0.980808 -0.0614022 -5.00889e-23)
(0.980244 -0.0649997 2.24872e-21)
(1.04551 0.0884542 -1.50108e-22)
(1.0463 0.0945668 1.94587e-22)
(1.03997 0.0915998 3.83808e-21)
(1.01777 -0.0161962 9.31659e-22)
(1.01877 -0.0159573 -1.38786e-22)
(1.25138 -0.283727 -7.0506e-21)
(1.23768 -0.268198 -4.3589e-20)
(0.999283 -0.00244393 5.77524e-21)
(0.999224 -0.002407 4.37081e-21)
(0.751167 -0.0403937 2.0053e-20)
(0.761973 -0.0305836 -2.41487e-20)
(0.743955 -0.0249961 -1.53164e-20)
(1.17299 -0.0633759 -5.19877e-20)
(1.17518 -0.0737424 -8.47097e-20)
(1.01802 -0.00380853 -4.3746e-22)
(1.01862 -0.00373265 0)
(0.35839 0.517512 0)
(0.411636 0.496262 -6.13604e-20)
(0.407354 0.554634 0)
(-0.310237 -0.616434 4.3583e-20)
(-0.31467 -0.603308 8.50841e-20)
(-0.269306 -0.645025 -3.33581e-20)
(1.10042 -0.119211 -1.76289e-20)
(1.09983 -0.110857 -1.08185e-20)
(0.996916 -0.0121916 -2.15072e-21)
(0.996691 -0.011618 -1.04336e-22)
(0.996321 -0.0122682 4.64215e-21)
(1.13889 0.021194 0)
(1.13858 0.0168092 0)
(1.14386 0.0183193 0)
(-0.0716578 -0.591 1.84135e-21)
(-0.0988275 -0.621067 6.9464e-20)
(-0.113372 -0.571232 -1.46015e-20)
(0.764392 -0.067396 -5.20828e-22)
(0.75694 -0.0535401 0)
(0.774088 -0.0586643 0)
(0.751727 -0.0756994 1.45567e-22)
(0.768423 -0.0794299 -2.34987e-20)
(-0.224431 0.423773 -4.46516e-20)
(-0.245522 0.422738 3.55049e-20)
(-0.224022 0.445242 -4.62249e-20)
(1.17368 0.0754918 0)
(1.17627 0.0846513 -1.233e-20)
(1.18337 0.0748922 1.10422e-20)
(1.04987 0.0841232 -7.8089e-21)
(1.04423 0.0824235 -7.88433e-21)
(1.09323 0.0421405 7.08875e-21)
(1.09678 0.0387635 -8.39956e-21)
(0.42662 -0.0835392 7.66008e-20)
(0.396089 -0.073604 5.11343e-20)
(1.01772 0.000253662 -3.87837e-22)
(1.01769 0.000568847 1.73536e-22)
(1.01731 0.000339599 -6.9527e-22)
(0.165818 0.441111 1.76052e-21)
(-0.365895 -0.149819 4.13807e-21)
(-0.363459 -0.118635 -5.95021e-20)
(1.01075 -0.0027857 9.79892e-23)
(1.01087 -0.00267352 4.02121e-23)
(0.999805 -0.000187816 -6.42476e-22)
(0.99979 -0.00013373 4.31316e-22)
(0.999852 -9.95221e-05 -8.29461e-21)
(1.21851 0.5118 -4.10092e-21)
(1.26058 0.471092 -8.17609e-20)
(0.990189 -0.0118512 1.32257e-21)
(0.990909 -0.0122261 1.37495e-21)
(0.990131 -0.0128325 7.23173e-21)
(1.00003 -0.00047478 -5.09627e-21)
(1.00004 -0.000564455 2.2635e-21)
(1.14839 0.0573154 -3.18509e-21)
(1.14792 0.0574706 1.37094e-20)
(1.14866 0.057595 -2.07867e-20)
(1.1472 0.0587984 -1.56784e-20)
(1.14931 0.0599172 -1.64159e-20)
(1.14662 0.0615292 8.81279e-21)
(1.01903 -0.028075 6.25933e-24)
(1.05862 -0.0213403 1.3838e-21)
(1.06059 -0.0235108 1.08322e-20)
(1.08585 -0.0536622 -1.28258e-20)
(1.08611 -0.0488717 3.60198e-22)
(0.956909 -0.167787 6.01268e-21)
(0.948323 -0.159691 3.29536e-20)
(0.946424 -0.171569 1.01962e-20)
(1.06071 -0.0156623 -9.20365e-21)
(1.05829 -0.0151564 -3.79565e-21)
(1.05984 -0.0133187 -8.82627e-21)
(0.995075 -0.00471327 2.95149e-21)
(1.08052 -0.172137 1.113e-22)
(1.08524 -0.165912 -9.01949e-21)
(1.07586 -0.164376 -1.60551e-21)
(-0.0979865 0.303518 4.76571e-21)
(-0.0750434 0.286658 2.25298e-20)
(-0.0906462 0.278002 4.38003e-21)
(1.01772 -0.00415961 -5.2524e-22)
(1.01743 -0.00378559 1.94482e-22)
(-0.387974 -0.522631 -5.26639e-20)
(-0.421549 -0.464835 6.2925e-20)
(-0.37799 -0.517563 6.49971e-20)
(0.99996 -0.000356613 -1.4241e-23)
(0.999989 -0.000307438 -4.79596e-21)
(0.999911 -0.00193713 -3.95219e-22)
(0.999904 -0.00166881 -4.00285e-21)
(0.999873 -0.00195367 -3.87711e-22)
(1.00865 -0.000451205 1.17287e-21)
(1.00857 -0.000569678 1.60486e-21)
(1.00877 -0.000567563 -7.01809e-22)
(-0.100024 0.520263 -8.35337e-21)
(0.994891 -0.000792337 -1.50989e-22)
(0.994577 -0.000815823 1.07109e-20)
(0.994878 -0.00113738 -5.27143e-21)
(1.39104 -0.405652 1.43847e-19)
(1.31384 -0.418814 1.7112e-19)
(0.218541 0.133859 -2.69444e-21)
(0.313769 0.119332 -3.5525e-22)
(0.225007 0.0996769 1.70878e-21)
(1.00046 -0.00248843 1.06841e-21)
(1.00043 -0.00254563 -5.71352e-21)
(1.00053 -0.00266305 3.31575e-21)
(0.999384 -0.00226237 -2.22241e-21)
(0.999346 -0.00248782 3.8781e-23)
(1.42455 -0.167503 -6.85377e-20)
(1.52892 -0.133955 3.10387e-19)
(1.54845 -0.173263 3.08363e-20)
(1.00832 -0.000256864 -2.49117e-21)
(1.00859 -0.000253037 1.01812e-21)
(0.999926 -0.000264998 -3.72678e-21)
(0.999931 -0.0002998 4.47512e-22)
(0.999894 -0.000347161 -7.82198e-21)
(1.00913 -0.000304734 -1.38247e-21)
(1.009 -0.000322122 -6.57032e-22)
(1.00824 -0.000184699 -2.27195e-21)
(0.193965 0.156913 3.4543e-21)
(0.136197 0.128142 7.01881e-22)
(0.596858 -0.351082 1.00814e-20)
(0.562538 -0.340046 -2.49905e-21)
(0.938622 -0.0460904 4.00306e-21)
(0.942108 -0.0437595 8.41947e-23)
(0.942482 -0.0482086 1.22006e-20)
(0.856459 -0.502868 9.20693e-21)
(0.867701 -0.473313 6.23878e-21)
(0.8891 -0.496251 3.9495e-21)
(1.1547 0.0532315 -4.70412e-21)
(1.1572 0.0506128 -4.72919e-21)
(1.15348 0.0496495 -2.3972e-20)
(0.516238 0.297356 -4.53022e-22)
(0.113695 0.52702 2.42353e-20)
(0.0836222 0.554556 2.76345e-20)
(0.124224 0.551061 1.84726e-20)
(1.03664 -0.00917992 3.44015e-22)
(1.03785 -0.00793484 8.60738e-22)
(-0.218745 0.0273354 6.19115e-20)
(-0.117658 -0.0409702 -6.83712e-20)
(-0.326106 -0.0101153 3.94279e-20)
(1 -0.000309064 5.49102e-21)
(0.999979 -0.000376761 -6.54247e-22)
(0.999989 -0.000289819 -1.14035e-21)
(0.00663084 -0.594936 -1.88796e-20)
(-0.0475798 -0.551214 -5.21667e-20)
(0.467123 -0.970571 -2.25184e-20)
(0.204805 -0.968449 -3.82379e-20)
(0.477071 -1.10966 -5.18241e-20)
(-0.407465 0.138346 -3.78341e-20)
(-0.430463 0.100649 -1.0187e-19)
(-0.41305 0.0824604 4.24097e-20)
(0.0312522 -0.130089 -2.56944e-21)
(1.16711 0.075969 -4.22771e-21)
(1.17206 0.068636 1.95083e-20)
(1.0524 0.00136042 -7.2219e-21)
(1.05456 0.00157398 1.03172e-21)
(1.15006 -0.0353882 -2.81488e-20)
(1.15301 -0.0424739 -1.52809e-20)
(1.05981 0.00418854 1.30975e-20)
(1.05812 0.00666778 8.29424e-21)
(1.02165 0.00303911 1.63695e-21)
(1.02141 0.00361792 -8.53832e-22)
(1.02088 0.00304969 3.34422e-21)
(1.03568 -0.000534127 6.55689e-23)
(1.03676 5.1389e-05 3.6434e-21)
(1.03547 0.000990931 -1.0993e-21)
(0.827457 -0.506525 -4.96648e-21)
(0.802848 -0.480603 -5.7915e-21)
(0.925037 -0.0566342 6.58809e-21)
(0.922 -0.0515623 -7.65436e-21)
(0.999395 -0.00207081 0)
(0.999444 -0.00207143 0)
(1.00001 -0.000112859 0)
(1 -5.78747e-05 2.47729e-21)
(1 -6.28881e-05 -2.77465e-21)
(1.01037 -0.00287383 -4.55281e-22)
(1.01025 -0.00301671 -5.58214e-22)
(1.01119 -9.03835e-06 2.63868e-22)
(1.011 -8.59168e-05 0)
(1.01146 -9.12871e-05 4.67952e-23)
(1.01804 -0.00444463 -3.56623e-22)
(0.159274 0.542474 0)
(0.136755 0.549877 0)
(0.134084 0.549515 -3.50003e-20)
(1.00419 -0.00635131 2.16497e-21)
(1.00443 -0.00632368 1.07101e-21)
(1.00417 -0.00606723 1.50112e-21)
(1.01665 -0.0148607 3.23181e-24)
(1.01587 -0.01473 -1.8329e-22)
(1.01611 -0.0155605 4.18114e-22)
(1.01093 -0.000110854 -2.65086e-23)
(1.01086 -0.00011239 -9.29154e-23)
(1.01137 -8.65935e-05 2.63925e-24)
(1.00231 -0.00709134 4.64183e-22)
(1.00259 -0.00713064 0)
(-0.0371834 0.179629 2.47136e-20)
(-0.040783 0.195675 2.36238e-20)
(-0.0211481 0.175496 2.3618e-20)
(1.09642 -0.458711 -7.84228e-21)
(1.09619 -0.478054 2.54583e-20)
(0.711221 0.101945 -2.47334e-20)
(0.713479 0.0861517 -4.68383e-20)
(0.693783 0.0910007 9.251e-20)
(0.955321 -0.00976013 -9.29676e-21)
(0.953842 -0.0113349 1.62662e-20)
(0.95316 -0.0085392 -1.29701e-20)
(1.1261 0.0580591 -2.0332e-20)
(1.1223 0.0559231 -7.68583e-21)
(1.00944 -1.64579e-05 1.08829e-22)
(1.19359 0.344853 3.44717e-21)
(1.18179 0.314075 -5.22583e-22)
(1.16004 0.33604 -1.15938e-20)
(0.0499159 -0.095652 9.84553e-20)
(0.109285 -0.117147 -5.74101e-20)
(0.994254 -0.00119692 -1.04546e-20)
(0.99457 -0.00151904 -1.05069e-20)
(0.418602 0.0928303 9.36723e-21)
(0.413531 0.14249 -1.92065e-21)
(1.09266 0.0300352 -4.43263e-21)
(1.09258 0.0257412 1.47157e-20)
(1.0886 0.0287301 1.34428e-20)
(0.993462 -0.00199405 6.85101e-21)
(0.993152 -0.00163457 3.17576e-21)
(0.00437335 -0.0559797 0)
(1.23167 0.349297 1.31648e-20)
(0.997368 -0.00505127 5.8185e-21)
(0.997464 -0.00465138 -3.62973e-21)
(1.07374 -0.179397 7.34693e-21)
(1.08541 -0.181371 3.05919e-20)
(0.28811 0.421661 6.09563e-20)
(0.378185 1.23375 6.23251e-20)
(0.978088 -0.0220911 -6.90776e-21)
(0.979595 -0.0226605 2.42243e-23)
(0.979321 -0.0210694 -6.63356e-21)
(0.847366 0.0353712 -3.66838e-20)
(0.853933 0.030604 5.48814e-20)
(0.846577 0.0270469 9.3197e-20)
(1.01706 -0.0140166 -4.07962e-23)
(0.973969 -0.0209477 -1.2836e-20)
(0.975365 -0.0203011 -5.82509e-22)
(0.973928 -0.0192049 -1.68607e-21)
(0.110779 -0.541483 4.02426e-21)
(0.0847963 -0.582676 4.3917e-20)
(0.178252 -0.573441 -3.01556e-21)
(0.899698 -0.171269 -1.32087e-21)
(0.906234 -0.161625 -1.57099e-20)
(0.892424 -0.161199 1.54782e-20)
(0.998299 -0.00790462 -4.38887e-22)
(0.998001 -0.00786199 2.96184e-21)
(0.996496 -0.00237721 -5.39201e-22)
(0.996722 -0.0023303 4.06417e-21)
(0.996534 -0.00264149 3.93956e-21)
(0.956912 -0.00792785 7.91464e-21)
(0.957552 -0.0106934 -1.10235e-21)
(1.06284 -0.395383 -6.65119e-22)
(1.04531 -0.388187 -1.56014e-21)
(1.05992 -0.376661 0)
(0.079898 -0.1401 -2.6918e-20)
(0.113675 -0.156698 -3.70938e-20)
(0.0858137 -0.186468 1.00777e-20)
(0.99347 -0.00541246 4.17179e-21)
(0.993971 -0.00543742 2.16698e-21)
(1.00439 -0.0057482 -1.46625e-21)
(1.00417 -0.00576968 -2.73578e-21)
(1.02237 -0.00716087 1.89031e-22)
(1.02225 -0.00656534 2.63527e-21)
(1.02298 -0.00697242 -3.3993e-21)
(-0.0907414 -0.0540158 9.58734e-20)
(-0.125512 -0.0627707 4.03075e-20)
(-0.173473 0.0955219 -3.24322e-21)
(-0.22407 0.111227 2.6259e-20)
(-0.00306824 -0.232924 0)
(0.0896219 -0.243767 4.08958e-20)
(0.0480576 -0.220477 -5.63603e-20)
(1.01769 -5.31326e-05 0)
(1.01765 -0.000373231 0)
(1.01728 -0.000229878 -7.10931e-22)
(0.908338 -0.181033 0)
(0.892222 -0.1825 -1.12604e-20)
(0.849442 0.0442364 -6.10274e-20)
(0.840701 0.0418532 -7.67001e-20)
(0.827382 -0.655732 -6.60376e-21)
(0.78549 -0.67556 -6.17187e-21)
(0.836291 -0.706217 3.37271e-21)
(1.15773 0.0360608 0)
(1.15703 0.0394472 0)
(1.1618 0.037748 9.86046e-22)
(1.01666 0.00132291 -2.43499e-21)
(1.01709 0.00140749 -8.48889e-22)
(1.01673 0.00108822 -9.90756e-22)
(1.01844 0.00145187 5.56595e-22)
(1.0185 0.001104 1.4351e-22)
(1.01896 0.00141491 1.41742e-21)
(1.02252 -0.00782034 -1.12699e-21)
(1.02171 -0.00734902 3.91489e-22)
(1.14337 -0.0347908 9.72142e-21)
(1.14705 -0.0291226 -5.49094e-20)
(0.992813 -0.0290806 -6.95841e-21)
(0.994064 -0.0300495 -4.83618e-21)
(0.992513 -0.03076 -4.91061e-21)
(0.101048 -0.305466 1.38723e-19)
(0.0575898 -0.291725 4.22983e-20)
(-0.0319894 -0.29014 1.87015e-19)
(0.998612 -0.00251171 1.55018e-21)
(0.998506 -0.00243698 -4.68955e-22)
(0.998505 -0.00270378 3.25337e-21)
(1.00781 -0.0101846 1.16406e-21)
(1.00786 -0.0106309 -1.34348e-21)
(1.00829 -0.01042 3.62201e-21)
(0.304968 -0.185746 -5.56192e-20)
(0.181834 -0.280612 4.54923e-21)
(0.180361 -0.258072 -2.35187e-20)
(0.196932 0.53215 0)
(0.193227 0.522458 0)
(0.191167 0.248912 -9.96649e-21)
(0.153539 0.272382 3.67009e-21)
(1.01091 4.90914e-05 5.17535e-22)
(1.01131 -0.000126554 1.70516e-22)