/*--------------------------------*- C++ -*----------------------------------*\
| =========                 |                                                 |
| \\      /  F ield         | OpenFOAM: The Open Source CFD Toolbox           |
|  \\    /   O peration     | Version:  v2012                                 |
|   \\  /    A nd           | Website:  www.openfoam.com                      |
|    \\/     M anipulation  |                                                 |
\*---------------------------------------------------------------------------*/
FoamFile
{
    version     2.0;
    format      ascii;
    class       volScalarField;
    location    "50";
    object      ddt0(omega);
}
// * * * * * * * * * * * * * * * * * * * * * * * * * * * * * * * * * * * * * //

dimensions      [0 0 -2 0 0 0 0];


internalField   nonuniform List<scalar> 
10042
(
0.000546399
-0.321283
-0.0034826
-1.81872e-05
4.16921e-05
0.331184
1.7362
0.0388941
-0.00011899
0.0068981
-0.11946
-0.356493
-0.00184766
-0.000320212
-3.08207e-05
-0.000203
0.293557
-0.150613
-0.000318331
0.000193377
-0.00198279
0.000465142
1.22347e-05
-0.036081
1.60282e-05
2.19883e-05
0.00644496
-0.000148566
0.337803
0.080057
-3.36833e-05
-0.0020455
-0.00011925
-0.000111859
0.0155433
0.00217358
5.54725e-05
-5.14994e-05
2.32972e-06
-2.68725e-05
0.0461959
-0.000118704
-0.199965
0.323158
9.87669e-06
-9.69625e-06
0.000195125
-4.17944e-05
0.00836677
-0.404469
-0.229356
2.29822e-06
0.299571
-0.000253598
-0.125847
0.146016
-0.0012839
0.00557014
1.65921e-05
-0.000207412
0.00909386
-0.664681
-0.120319
0.043842
-0.223483
1.56675e-05
0.000120807
0.00221626
0.000187935
0.00185644
-0.298177
7.57324e-05
-1.35769e-05
1.50075e-05
2.42405e-05
-0.239408
-0.00569082
0.000196002
-0.0100135
-0.000314772
0.527953
0.00362201
3.88996e-05
-1.42315e-05
0.00255327
0.0536169
0.000132766
-0.00398487
-4.37688e-05
-0.00123555
-0.00117944
-2.34528e-05
-0.0487059
0.0424217
-0.0749376
-1.33892e-05
-0.459161
0.000182174
-0.457258
-7.53025e-06
-0.000869444
0.00836154
8.03264e-05
-0.00227199
-0.000355479
1.91705e-06
-0.271158
2.23377e-05
2.08197
3.02164e-05
-1.04397e-05
1.68108
0.00883504
0.0271845
-0.225089
0.000156492
-0.000752693
-7.43201e-06
0.00501263
0.00011586
-0.000227147
-0.363225
-0.414694
-1.22171e-05
0.00912417
-4.42122e-05
-1.27904e-05
-0.142331
-0.191571
-0.00117876
1.83467e-05
-9.53165e-06
-0.000105134
3.66828e-06
1.5286
-0.380229
6.61191e-05
-0.0152912
-8.79694e-06
-0.301943
0.502047
0.000195338
-0.16227
-0.000144661
0.000498128
-5.53241e-05
0.0022236
0.000172344
0.000108954
-0.159631
-3.84135e-06
7.32614e-06
-8.88284e-05
-0.0021435
-0.075603
0.000584749
-0.213105
0.259995
-0.000107413
2.92703e-05
2.98344e-05
-1.74011e-05
-0.370369
-1.83159e-05
3.25831e-05
-0.143829
-1.10531e-05
-0.00230165
-0.00257635
-0.000124837
-0.012533
0.0528535
-0.290788
-9.65799e-05
-0.000258071
-0.371383
1.75129e-05
-5.33381e-05
3.92705e-07
0.000187863
2.86584e-05
-0.000216524
1.07474e-05
8.97831e-05
-6.61435e-05
-0.00140218
8.00123e-05
-0.000188086
-0.368291
-0.00026136
-0.105163
-0.00135598
5.17372e-05
-0.000197182
-0.029876
-2.57149e-05
0.152686
0.0185746
-0.612815
-1.18955e-05
-0.0488743
0.687044
-0.0322359
-0.000185072
-0.308685
-0.000105816
0.0144187
-0.00188982
-3.54602e-05
8.42179e-06
-0.00230995
-0.000180731
-0.0268068
-0.0756489
5.86897e-05
0.00117465
-3.88979e-05
-0.164271
-2.1057e-05
-0.0840758
0.261223
-0.0118453
0.391558
0.00114855
-2.43748e-05
0.403845
5.82878e-05
9.04896e-05
0.00469368
8.14226e-05
-1.835e-05
-4.17122e-05
-0.00133763
1.2109e-06
2.37108e-05
0.0212223
0.000108316
-0.423333
0.000365739
-0.0323402
-0.0402044
-0.0565567
-0.000173589
-9.42274e-06
0.225376
4.22241e-05
-0.0332845
0.000326131
-0.00011725
3.77851e-05
-0.000332226
7.43872e-05
0.243425
-0.159539
0.000112488
9.84562e-05
-0.000365803
0.0001028
-0.393295
-2.3714e-05
-0.383249
5.9221e-06
1.4732e-06
0.000187848
-0.00215645
-0.07979
-0.45636
0.177
-8.42895e-05
-6.38654e-05
-5.24631e-05
-0.446189
-0.00025337
-0.298146
8.28056e-05
0.0028406
-0.000110168
2.72793e-05
-8.55742e-05
-0.00266824
-0.000149613
-0.0815327
0.119025
-4.45762e-05
0.000172633
0.95464
-0.000113791
-4.57189e-05
0.000156078
1.0287e-05
-0.000832466
-0.000369362
9.94723e-05
-0.0949241
-0.3096
0.000534021
0.0392833
8.46828e-05
-4.80762e-05
-6.41998e-05
-4.68439e-05
-0.0504594
-0.000179535
-0.0898448
7.79945e-05
-0.863905
-0.000283284
-3.06548e-05
0.122193
-0.0912381
3.60201e-05
-1.05089e-05
5.15385e-06
0.000499428
-0.000373827
8.42386e-05
0.000176182
-0.000112716
-0.0198143
0.000146701
0.00011953
-0.358651
0.00261416
0.0342238
-1.68508e-05
6.91449e-05
0.0287827
-7.32721e-06
0.000101293
-0.000396732
-0.000104964
-3.82836e-05
0.000443579
6.86401e-05
-0.00934914
0.000329239
-0.14732
0.0236704
0.000119563
-0.0935924
0.451298
-0.000801407
-0.000181589
-0.0140405
1.38596e-05
-2.47417e-05
-0.000476825
1.0327e-05
-0.000340906
-0.621991
-5.39235e-05
-0.105346
-0.000370387
1.44471e-05
-0.412749
0.00226531
6.21766e-05
2.93317e-05
0.26601
0.000163795
-1.22126e-05
6.49273e-05
3.3525e-05
0.0157888
-0.0723019
-1.98539e-06
-1.15107e-05
-0.000373265
-0.000388007
-0.20631
-0.000211318
5.70512e-05
-0.000339893
-2.98965e-05
0.0168505
-0.000482819
0.00304842
0.026014
0.169031
0.0195512
-1.90119e-05
0.0295335
0.00424065
-2.47958e-06
-0.00173383
0.000138698
1.62513e-05
0.000110572
-6.53368e-05
-7.31521e-05
8.32588e-05
0.639077
-4.90645e-05
0.0178625
-0.00451413
-0.285269
-3.66215e-06
0.0244242
0.000183347
-0.00294749
-3.84937e-06
0.994352
0.000142935
-0.245853
-0.326126
9.82607e-06
0.201616
3.21437e-05
-0.0517912
6.45891e-05
0.066218
0.000353144
-0.0747462
-6.68444e-05
0.104509
-2.7332e-05
0.000954445
-0.237434
-8.80886e-05
-1.49071e-05
-0.000107691
0.141575
9.17647e-06
6.56243e-05
0.780964
5.9267e-05
0.00398072
0.0528118
-2.49418e-05
-0.000701962
5.34588e-05
0.000181782
0.000418746
0.0141633
3.62802e-05
1.92781e-05
-0.137981
0.00251869
7.07559e-05
0.201591
-0.000149049
-0.000376362
-0.000364079
-0.370571
-0.419622
0.000233929
0.11415
-0.280913
0.0370587
5.03535e-05
0.00219379
0.0358398
0.0280554
-0.00203474
2.98308e-05
-0.000455747
-0.158731
1.13989
0.000117984
-3.37517e-05
4.82584e-05
1.21236e-05
-0.000173402
-9.45703e-05
-5.59453e-05
5.46902e-05
0.000494807
-5.5582e-05
-0.000367249
-0.0254651
-0.20324
-4.26086e-05
1.7109
-0.129334
-0.133462
5.0132e-05
-0.00083904
0.000110588
-0.424193
-4.32417e-05
0.00810553
-6.25926e-05
-0.376308
0.000101226
-0.00035835
-1.22095e-05
0.00151557
0.000337932
5.05765e-05
-1.66315e-05
4.91579e-06
0.474612
-8.43734e-06
-0.00613215
0.0022864
0.110576
5.54809e-06
-0.00539913
-0.0889113
-0.0516504
-2.40606e-05
1.24738e-05
-0.071936
0.29274
0.00368122
0.255206
-0.000214681
-0.000287617
0.00230694
0.00149639
0.00021375
0.03678
-3.62566e-06
2.08626e-05
3.06869e-05
-0.0799404
-5.29059e-05
-0.0273892
-5.08872e-05
-2.10838e-05
-9.05437e-05
0.00102401
0.156157
7.4428e-05
2.71182e-05
-0.0875399
0.0208562
0.00165301
5.96135e-05
1.54605e-05
-0.00025511
0.0265812
-2.5089e-05
-0.000244404
8.97663e-06
-1.74092e-05
2.25177e-05
0.00371884
1.41482e-06
0.0430481
-1.1413e-05
0.0056104
0.000381947
0.595049
-5.74301e-05
-0.000985559
-4.07346e-05
-3.13179e-05
-0.0632051
-0.000138483
0.16898
0.00363966
-0.000128507
0.123975
-0.0497984
-0.312029
-0.052117
-4.97332e-05
-0.000231809
0.000127707
0.000134732
0.000847301
3.10557e-05
0.0469649
2.06466e-05
-0.000118842
-0.274644
-0.000314646
0.00129005
0.000131028
1.59387e-05
-0.156302
0.00939873
0.00035493
0.0645143
-4.49387e-05
-0.00122316
-7.45617e-05
-0.000112026
7.30658e-06
-1.03753e-05
-2.09186e-05
-0.000148015
0.707149
-6.85828e-05
0.0121815
-3.62511e-06
0.000314569
0.000145444
0.00224897
-0.0693398
-0.000109329
2.03433e-05
-5.74324e-05
-0.0048268
-4.777e-05
0.181325
-1.71275e-05
0.000282796
-4.2596e-05
3.30264e-05
-9.49502e-06
0.261948
7.64646e-05
-7.0455e-05
-0.000566132
0.222762
-2.45399e-05
-3.6876e-06
0.00014453
-0.00702524
1.08187e-05
2.54555e-05
0.000199816
1.58426e-05
0.000218514
2.04709e-05
0.000301727
-3.07104e-05
-0.376095
0.33136
0.00263405
6.32589e-05
-0.000474763
-2.29334e-05
0.0012283
0.000128032
-0.0214941
0.0309843
-0.0276183
0.000189189
-0.021146
-5.74144e-05
-2.46154e-05
-0.124542
-0.00524653
0.0306365
0.00190143
-3.97717e-05
0.00782237
-1.30862e-05
-3.02363e-05
-3.77337e-05
-2.10438e-05
8.47685e-06
-0.111427
-4.81913e-05
1.3947e-05
1.22295
5.02959e-05
0.00162983
-2.52507e-05
-2.55441e-05
-0.015349
-0.000185604
-0.00897939
-3.15519e-05
1.77941e-05
0.00881837
-2.52419e-05
-0.000143553
-3.65392e-05
-1.65032e-05
-1.4489e-05
-0.00177825
0.00338508
0.117841
-3.52092e-05
-1.58081e-05
-2.01555e-05
0.0144755
8.75546e-05
1.96106e-05
4.02825e-05
-0.000291669
-0.0151384
-0.340519
-2.95033e-05
8.2033e-05
-1.29902e-05
-0.547262
-0.00114967
-0.000299945
0.00268749
0.000340015
-0.687258
0.00193443
-1.32567e-05
-2.79716e-05
-3.72005e-05
0.068261
1.52107e-05
-0.000627521
-8.46404e-05
-7.54351e-05
-0.00767521
-0.000164121
0.44706
0.189508
0.000117901
1.32663e-05
8.80598e-06
4.71582e-05
-3.44969e-05
0.135793
-0.000385379
-0.327229
-9.95079e-07
0.000704995
-9.81268e-05
1.24444e-05
-1.12559e-05
-8.68619e-05
-4.42589e-05
-4.1283e-05
0.0286238
-0.000337174
-0.0100417
-4.50485e-05
-0.00464376
0.000146353
0.00015895
0.328786
2.91345e-06
-0.000418225
0.000135047
-0.000110233
0.0817443
-7.54514e-05
5.4573e-05
-9.28366e-05
-0.0360788
0.000414493
0.0992058
0.00260355
-1.82057e-05
0.00988761
0.0303846
-2.49422e-05
-1.10288e-05
0.0413156
5.55824e-05
0.106286
0.0338433
-0.00329945
-0.000338642
-3.53461e-05
-3.32934e-05
2.65853e-05
0.0010785
0.000126689
0.0120088
2.07592
-7.00622e-05
0.000149993
0.000190686
-0.000380201
5.44678e-05
0.171323
-2.89798e-05
-3.38066e-05
0.00547326
-5.36898e-06
0.0268655
0.00177912
-3.58934e-06
0.107283
-0.000210554
-6.58143e-05
-0.000382333
0.00359333
-0.000327018
-0.426448
-4.70925e-05
0.00322162
-0.000694765
-0.0892995
-0.000281284
0.00114915
6.75926e-05
-2.08056e-05
0.00203108
-0.000136887
0.0026517
-9.81871e-05
-6.01485e-05
0.000620155
-2.12303e-05
-9.69942e-05
0.00510942
3.60823e-06
-2.6438e-05
0.000295226
-0.000117375
-2.19987e-06
-1.77298e-05
6.91956e-05
-1.60295e-05
0.00011854
0.000101092
-6.3583e-05
0.000318246
-1.20012e-05
0.00523319
0.0806905
-0.000368809
-9.7355e-05
1.03549e-05
-0.0334834
0.000110185
-0.000224897
-1.03801e-05
0.00593845
0.0907742
0.342523
-0.000198242
-0.0483947
-0.0561228
-0.00436512
-0.000193567
-5.54945e-05
0.000169557
0.0128884
0.0037233
-7.20896e-05
1.90829
-0.00306244
0.104124
0.0992147
-0.000527954
0.0274993
0.22606
0.00508655
0.0111865
0.00118559
1.17066
9.62678e-05
0.0226216
-2.47121e-05
-9.47408e-05
8.79489e-06
0.000633068
-0.000202319
-3.44694e-05
1.89504e-05
0.0738701
-4.32693e-05
-2.33402e-05
-0.634228
-1.3901e-05
-0.000633151
-0.000244416
0.00816369
-3.75615e-05
1.84092e-05
2.50141e-05
-0.000148221
4.66335e-05
-0.000812537
3.12553e-06
0.239231
-0.002398
-0.000263448
-6.18836e-05
0.144578
-8.49264e-06
-0.00416522
-2.60343e-05
9.3566e-05
2.7578e-05
0.000172423
-0.000148899
4.37057e-05
-0.292038
0.000951084
-1.71898e-05
-0.0352425
3.30296e-05
3.83548e-06
-0.0211313
3.16043e-05
-2.24397e-06
-0.523321
-1.30471e-05
-0.00401274
-1.62502e-05
0.00613792
-0.00095951
0.000681242
0.0923264
6.985e-06
0.612454
-0.234273
1.98652e-05
0.00208026
0.331637
-0.102343
0.770682
1.62653e-05
0.00022289
0.000107994
-1.19022e-05
-0.000183642
0.0125056
-0.000475178
0.000122739
-0.00248333
-0.101911
8.2079e-05
0.000158275
-3.94495e-06
2.75244e-06
-2.10591e-05
0.293859
0.00595882
-1.33703e-05
-0.000652661
-0.506881
3.02265e-05
-1.09741e-06
-1.06808
0.00015059
0.0224461
-8.60785e-05
-0.000155322
-3.67213e-05
8.11413e-05
0.00271403
0.000700934
2.16893e-05
0.0257564
-0.209248
-0.00286411
-0.000196402
0.000106198
-0.112118
-0.0027283
0.105444
-0.00192931
-2.44433e-05
-9.10665e-06
0.0405184
-0.20238
-5.00654e-06
-0.000553026
-0.00305863
-0.000144427
-0.00239464
1.09161e-05
-8.40793e-05
7.39263e-05
-0.00272672
-6.44264e-05
2.3341e-05
0.00652922
-0.000398137
0.0001974
0.00371587
-0.00069087
0.0389956
5.26675e-06
5.48713e-05
0.0042078
0.00583482
2.01748e-05
0.00175882
0.0114863
1.60675e-05
-0.000110394
-0.00078056
0.00114487
-4.49151e-05
-0.000154977
-8.43453e-06
-2.6443e-05
0.000675694
-0.0557824
1.93251e-05
0.211068
-2.40507e-05
0.000749655
-0.000385452
-4.31089e-05
0.00139661
-0.00763819
2.27124
2.87397e-05
8.41121e-05
0.0382155
3.94197e-06
3.35927e-05
-2.56131e-05
0.0132717
2.82353e-05
0.000475506
-0.000731589
0.000133355
-0.000177783
3.67875e-06
-0.0044315
-0.114123
0.19045
-0.000409891
6.47036e-05
-0.000945717
1.82773e-05
-0.0004484
2.4415e-07
-0.00322077
-0.000195649
-0.000483461
-0.00492558
-0.000368505
0.112283
-7.74186e-05
2.20528e-05
-2.95068e-05
0.000489108
-0.000239839
-0.000112762
-0.164924
-0.000432362
6.03577e-05
0.0283199
-9.74184e-05
-0.0040934
5.03559e-05
-0.00237993
0.0256802
5.39018e-05
-0.219312
0.000270372
-2.40792e-05
0.341507
3.95632e-06
-7.49047e-05
0.000195647
2.13417e-05
5.72655e-05
0.09204
0.00218913
0.0145348
0.10461
0.000234544
0.000832336
0.00551138
-0.000256447
-0.00850783
-0.000129961
-0.00136214
-2.07908e-05
3.02279e-05
7.53103e-05
1.09249
0.0128973
1.68685e-05
-0.00185605
8.40311e-05
0.24256
0.000116239
0.000166058
-0.0119612
-3.34199e-05
0.00715691
-3.5453e-05
-0.000123685
-0.435443
-0.226945
0.000723213
0.00038257
0.000761547
-0.000143237
0.0572904
0.332811
1.55448e-05
-0.000467651
-5.06243e-06
0.000385363
-4.25278e-05
3.20612e-05
-3.60496e-06
-2.54317e-05
-0.0002328
5.04867e-05
-1.99837e-05
-0.00982132
0.0298045
5.27508e-05
0.0197765
-0.000168247
-0.00307175
0.00373803
-0.00265541
-8.09232e-06
-0.00107018
0.00419231
0.000141003
0.00552582
0.00402639
-1.98497e-05
-0.00047893
2.79577e-05
0.012261
0.115856
-3.11331e-05
-0.0809194
2.91256e-05
-2.30389e-06
-0.396974
-0.000130766
-1.89136e-05
0.000149708
-4.91864e-05
-0.000152231
-2.75957e-05
9.21002e-05
1.86367e-05
3.07147e-05
-0.000315234
-2.34397e-05
0.0123513
6.5333e-07
0.000202278
-0.840603
-0.00535177
2.24536e-05
-0.0541599
0.000131198
0.0220012
-4.58876e-05
-0.00626628
-0.000204658
0.00119473
-0.25676
-0.0295552
-2.43329e-05
0.00898681
0.000242893
0.0271139
-0.000159846
0.00014072
-9.80836e-05
0.0641976
0.0272335
-0.000397447
0.12135
0.00250758
-0.0761483
1.59509
0.823851
0.00688731
-0.000361132
-9.05159e-06
0.000181045
0.547101
2.96699e-05
-0.358462
1.30528e-05
1.33918e-05
0.000129096
0.00506473
0.813423
0.000295209
-0.00414046
0.00136691
0.0278165
-0.000109264
1.26722e-05
-0.000266868
-0.0794679
0.0600295
0.00133314
0.0264295
8.82689e-05
0.000110531
0.000901615
0.0200288
0.00523228
1.43379e-05
0.000644232
-0.371318
8.58765e-05
-0.0071639
5.67139e-05
-0.00247348
0.0208343
-4.58608e-05
0.0154847
0.000522639
-5.98933e-06
-6.59248e-05
1.27711e-05
0.0527927
5.08439e-05
-0.339723
-0.0180999
1.54777e-05
0.000571817
-0.00027797
0.00208309
-7.25699e-05
0.000506966
0.00456332
0.000100869
0.0358297
7.43876e-05
-0.000880475
0.0262132
8.16411e-05
-0.000790373
2.80322e-05
-2.46843e-05
-1.73254
0.0415329
9.23367e-05
0.080241
-5.69496e-05
0.0444792
-0.000460377
8.38103e-06
-0.000415417
7.859e-05
0.00135242
0.0112789
-0.00100732
-5.25594e-06
-5.48031e-05
-0.00061145
0.000222827
0.0174635
-0.0101654
0.000281565
1.76662e-05
0.00018508
-0.0627168
3.16708e-05
-0.00252881
0.000364775
0.00963402
-0.00160883
7.41832e-05
-0.000142062
-0.398309
0.000820245
-7.12316e-05
-0.385533
6.09575e-05
2.64897e-06
0.00605066
-6.5125e-05
2.29318e-05
-0.00231745
0.000250161
9.04912e-06
-0.000229083
-5.69701e-05
7.4076e-05
0.00716577
-0.00192187
0.0435787
2.02068e-05
-0.000902097
-6.53019e-06
-3.3322e-05
0.0390102
-8.28683e-06
0.0209173
-0.0689584
3.983e-05
-0.270959
-0.00221929
-0.0123634
3.84596e-05
0.0198255
-0.561976
0.00114772
0.000152118
-1.94293e-05
-0.000379926
-0.33108
0.000245273
0.00471342
-0.00257671
0.000118246
-0.0685678
-3.22325e-05
-0.545329
-4.23969e-05
0.637482
-0.000127529
-0.00028648
-0.000123272
0.0164974
-1.51415e-05
-2.43074e-05
-0.000224203
-4.54847e-05
-6.27238e-05
-0.00193071
-0.0771771
-0.000389272
-0.00070029
-4.00801e-05
-4.0872e-05
2.27273e-05
0.0279719
1.82162
-0.000667481
-1.46664e-05
8.95204e-06
-3.03969e-05
0.000314845
-0.000556247
-0.000108356
0.0121634
-0.131849
-0.0197425
-0.000359252
-4.55808e-05
2.98891e-05
-0.00021365
-0.000422562
2.57449e-05
-5.72928e-05
2.75051e-05
0.0259416
7.87754e-05
-0.000113219
0.215713
-0.484119
0.000151682
-4.63448e-05
-0.0001851
1.16925
0.000556992
-0.000368498
6.21899e-05
1.63816e-06
-1.91426e-05
1.72806e-05
-0.4544
3.10494e-05
-0.272764
0.000620476
-0.00105321
1.83882e-05
-0.000613512
0.0359484
-0.00010958
0.00246516
6.44913e-05
-0.00238586
1.75026e-05
-0.000743758
0.331171
0.0224167
7.64912e-06
-7.82453e-06
-0.524273
-0.000526967
-0.00127822
0.000104264
0.000116312
3.0306e-06
-0.000606881
-0.00772941
-1.25265
0.0429164
-0.000330819
-0.000462069
2.73706e-05
-3.42161e-05
-0.00181598
0.0208659
-0.147691
-0.000419188
-0.571135
2.13294e-05
0.616654
0.0381206
2.50853e-05
0.289954
-0.00156076
-4.33287e-05
0.00535653
0.00104365
2.47403e-05
0.0392951
-1.4721e-05
1.62145
-6.39672e-05
-1.42275
-0.349266
-0.00145028
-2.1645e-05
-0.000783623
3.08248e-05
-2.99605e-05
-6.79057e-05
3.84819e-06
0.764765
-5.993e-06
0.00271071
-0.000426185
-0.541655
0.0030044
-0.000151922
0.00012368
-0.876872
-0.000176893
0.0257464
0.163268
-0.426931
-0.0172258
0.0010229
-0.652542
-0.000202781
2.35868e-05
-0.000109162
0.00887762
3.58344e-05
0.0598084
-0.000526218
1.14659
-0.000698019
-1.04553e-05
-0.000299277
-3.07343e-05
-0.000123709
6.33983e-05
0.0380629
-0.200813
-1.97567e-05
7.95397e-05
-0.00010623
8.91018e-05
0.979987
-3.10694e-05
0.00803994
0.033516
1.56979e-05
0.000161276
0.0263973
-0.000670329
-0.00023669
-0.0845957
6.79734e-06
0.0252215
4.21911e-05
-0.327513
-2.89906e-05
0.00014427
6.30432e-05
0.000312021
0.0309709
0.105447
0.0280697
-0.115229
-0.143981
-2.05901e-05
0.000171518
7.83588e-06
0.0869395
0.000408464
0.443302
-0.00108926
0.15741
-0.0227151
0.0639649
-0.00286337
-0.538987
0.000101889
-0.000252351
0.0048507
-0.000398042
0.00011232
6.8352e-05
-0.000161586
0.00024725
1.50181e-05
1.96824e-05
-0.318743
7.40899e-06
0.000270531
2.03384
-0.130837
0.000788118
0.0541371
-0.000211943
-4.57216e-05
0.0466559
-0.14739
0.000662583
0.105894
-1.78379
0.0506777
1.33953e-05
-0.000799492
0.000304291
1.44127
0.000302703
0.0475727
0.0299057
-0.000637241
1.74494e-05
1.09207e-05
0.201086
-0.106665
-0.00247459
0.00873688
-5.0023e-05
3.73572e-05
-0.000188947
-0.215318
-0.000217555
-9.97377e-05
1.10702e-05
-0.000174082
-0.348187
0.000347803
-5.61834e-05
0.209403
0.0199861
-4.44122e-05
-0.0460574
7.72444e-05
0.000932118
1.37259e-05
0.00167518
-0.259693
5.06641e-05
-4.92585e-05
1.1551e-05
1.56041
1.41695
0.00105074
7.82186e-06
-1.83222e-05
-6.39121e-05
0.0613745
0.00255428
-0.00020548
-6.26034e-05
-0.0913449
7.58785e-05
0.0213926
1.77783e-05
0.00044587
2.07138e-06
-0.315954
-0.00113694
-0.0011795
-0.0731935
-4.33256e-05
0.00014772
0.00159262
4.62257e-05
0.024517
-0.355971
-3.99163e-05
-0.000166555
-0.362823
-3.67565e-05
-0.22351
-7.92825e-06
0.0524823
0.022692
-0.0180296
-1.56507e-05
-5.0945e-06
-3.82518e-05
2.03551e-05
-0.000120568
1.80363e-05
3.28968e-05
-6.22122e-05
-3.99175e-05
-2.99509e-05
4.83905e-05
-0.0024588
-2.38585e-05
-0.438222
-5.39568e-06
0.0741
-8.41431e-06
2.2795e-06
-0.135084
5.11854e-05
-0.217881
0.0532887
3.22082e-05
2.73765e-05
-0.0026344
0.000330306
6.42984e-05
-0.21101
4.30487e-05
-0.000727168
-0.314333
6.23564e-05
0.0433693
-2.67742e-05
-0.0127455
-0.000143805
0.523109
0.695542
0.0443195
-5.27898e-05
8.8131e-05
-1.21361e-05
-0.000209578
-0.000581057
-5.02058e-05
-5.30701e-05
-0.00226897
6.85889e-05
0.0788474
-0.0178578
6.18098e-06
0.00452319
6.28459e-06
-0.0011587
-7.52488e-05
-1.67436e-05
3.17699e-05
-0.38163
-0.590102
-8.88509e-05
4.25748e-05
5.55021e-06
-0.000121062
-0.168668
-0.627463
0.00698241
0.012709
0.000801443
-0.000182672
-0.000216911
0.330048
2.17103e-05
-4.3901e-05
0.15179
-0.000130383
0.000685157
-0.000165995
0.0271444
0.000122471
1.63155e-05
-0.251286
-0.000185687
-0.000306874
-1.91457e-05
0.000626601
0.00568786
-0.00113498
0.000133489
9.02167e-06
-0.318984
-0.0213028
-5.14612e-05
4.03387e-05
3.32455e-05
0.000104248
6.96084e-06
0.000128563
1.19256e-05
0.000118161
-3.14757e-05
0.091928
-0.00170659
2.36183e-05
-0.183974
-2.3149e-05
1.55079e-05
-2.45652e-05
1.28858e-05
-2.95359e-05
0.00384804
7.58625e-06
-0.255398
1.20832e-05
2.12382e-05
3.0451e-05
0.0947355
0.000185899
0.000627157
-1.29991e-06
2.75378e-05
0.0288757
0.0382014
0.316005
0.000583023
0.0210088
0.000515584
-0.000345192
4.76873e-05
0.028462
-6.67491e-05
0.242753
2.79629e-05
-0.00212344
2.49368e-05
-0.0461135
1.33607e-05
0.800147
0.00019903
-2.24618e-05
0.000543522
8.7104e-07
-0.000100223
-0.074063
-0.00066901
3.37771e-06
3.03586e-05
-0.000165548
0.0214247
-6.74151e-05
-0.0375789
-0.00260362
-6.66123e-05
-3.03651e-05
3.63155e-05
0.345677
-0.0261957
1.52402e-05
0.379095
0.0250951
1.08234e-05
0.0119821
-4.11236e-05
-0.000325527
3.90031e-05
-2.11741e-05
-0.000145418
9.88646e-06
8.92365e-06
3.54933e-05
5.69275e-06
0.01124
7.34371e-05
0.00394412
0.000492891
3.28869e-06
0.0839426
-0.000220721
0.000149611
0.00840548
-3.21821e-05
0.30603
-2.11944e-05
1.05667
0.156776
2.25924e-06
0.96759
0.0315416
-2.84321e-05
4.62711e-05
2.24913e-05
-1.225
-2.758e-05
0.0444835
-0.00528318
1.5047e-05
-0.000254405
0.00468704
0.00602024
3.88943e-06
-0.00864337
-5.92139e-05
0.0265295
2.17174
-0.000912168
0.0166629
-0.000273466
0.493482
0.00253335
-0.179679
3.58178e-06
-0.000136057
3.88236e-05
-0.00245422
-1.35283e-05
2.57699e-07
0.202061
-0.000376217
0.000115615
0.0316168
6.33848e-05
0.000374326
-0.000217686
-0.115914
-3.4689e-05
-0.000506026
-0.153045
0.0151441
0.600921
-0.00255266
-0.000482988
0.209043
0.000104843
-6.24302e-05
-1.1226e-05
1.9223e-05
8.5514e-05
-0.000476207
1.07818e-05
-0.133106
-0.000895643
-0.00107808
-0.000100397
3.54101e-05
-2.5243e-05
0.0437448
-1.20314e-05
-0.0747431
8.71698e-05
-0.113435
-0.0021734
-3.88444e-05
2.02326e-05
0.0336505
-0.000821485
0.0414803
-0.0423968
0.000730232
0.000469014
1.49635e-05
5.17124e-05
-2.68725e-05
-2.87958e-05
-0.0188174
7.59742e-05
4.86561e-06
-0.0178099
-2.38194e-05
1.42486e-05
-0.0455384
0.281607
0.164452
0.000143689
0.223655
-0.0188376
1.62131e-05
-1.12562e-05
0.000106174
-0.107126
-0.329003
0.103254
-0.103901
-1.81691e-05
2.20616e-05
0.000103125
0.000991505
-8.10924e-08
-0.000731019
7.48308e-06
-0.000208455
0.0133779
0.471969
-0.00257416
-0.000921761
0.000133297
-0.000869062
0.0427391
-2.982e-06
-2.64252e-05
-3.99728e-05
8.77759e-05
1.10148e-05
-0.000444103
0.00492283
0.180879
5.90612e-05
-4.88765e-05
1.0293e-05
-2.33987e-05
-6.51929e-05
0.00139833
-0.169803
-2.04805e-05
-0.224498
-0.00360056
-0.379539
2.28442e-06
6.03343e-05
-3.38362e-05
-6.45611e-05
3.16978e-05
-1.241e-06
1.44916e-06
0.47101
0.194689
-0.000446552
-0.00021424
8.39244e-05
3.19598e-05
-1.02647
0.00172087
-0.0129163
0.0275305
-0.00210933
0.0908403
8.60125e-05
-1.30587e-05
3.20096e-05
1.11873e-05
0.0284342
-6.27599e-06
-0.000418139
0.114863
0.00466026
0.0066436
0.0565405
-0.292747
0.0218396
-5.7968e-05
0.00087511
-0.0612258
-0.219462
-2.18122e-05
-0.00186152
8.81909e-05
-9.35383e-06
-2.35477e-05
-1.10962
1.56954e-05
-9.22935e-06
0.281467
-0.000385697
0.0791153
-5.83945e-06
6.83234e-06
0.00106641
0.189797
-0.236744
0.0164022
-0.000111834
-0.411704
-0.00120784
-2.13696e-05
0.00299812
-1.20481e-05
-0.000331468
-6.94537e-06
0.000255671
0.165339
-0.0207802
-0.664908
1.75072
0.0161989
-0.0055318
0.170577
1.4435e-05
5.1742e-05
0.503751
-1.50234e-05
-6.19419e-07
0.000178336
-4.67626e-06
-0.0587047
-2.36937e-05
0.000455801
0.00110594
-0.000155359
-0.23086
-0.000248197
-3.9512e-05
0.000161231
-0.000114597
0.000143889
0.000111409
2.38386e-06
0.309902
-6.71317e-06
-1.94184e-05
3.75343e-05
-0.0028695
0.0159947
-7.1054e-06
8.03725e-05
-0.00288128
0.00467055
1.2053e-05
0.00010102
9.94085e-05
-0.00043232
1.59847e-05
-1.56452e-05
-0.064012
-0.309688
6.90555e-05
-4.84746e-05
-1.2977e-05
0.000477605
-0.00268878
-1.60501e-05
-0.00267412
-0.012792
-2.02722e-05
0.000605439
0.446458
0.0871031
0.00369637
-4.56825e-05
-4.32445e-05
0.000751066
-0.000934563
0.203718
0.000257595
-0.0132492
-0.00214995
0.00165827
-0.0158218
0.152515
0.00871671
0.0275509
0.0385779
-0.082187
0.000173956
0.0356953
-0.000431069
0.0623435
-9.82624e-05
3.25579e-05
5.66168e-05
-0.42008
0.0249452
6.25688e-05
-1.16767e-05
-0.00180568
-0.08185
-0.0217404
-2.16625e-05
-0.000285806
2.08511e-05
0.00046936
-0.000214321
-0.00245456
0.00528271
0.00126329
0.000352266
2.48267e-05
-0.090752
-7.38765e-07
-1.88708e-05
0.190086
1.33581e-05
-9.12213e-06
-7.74971e-05
0.245149
-0.00123286
0.039217
-0.00189912
-0.000582322
-0.0404481
-0.00215001
0.0181894
-1.67597
0.114207
0.125834
1.62954e-05
-2.05656e-05
1.25501
-2.54818e-05
2.63996e-05
-5.18057e-06
8.17096e-05
0.000339926
-0.00180805
-3.44965e-05
-0.00392927
-5.85128e-05
0.000556982
0.000106793
0.382948
-0.509194
0.0441048
-0.276182
-0.119947
-0.000179546
0.531075
-2.47054
8.05546e-06
-2.45996e-05
-1.96991e-05
0.000202359
-0.176656
-4.63982e-05
-3.98826e-05
-0.200686
3.08904e-05
2.29021e-05
6.12325e-05
9.44582e-06
-0.110345
4.51084e-06
0.000328109
3.01591e-05
-0.459788
2.15143e-05
-2.56894
0.00584165
0.352432
-0.666693
-0.000211915
7.03633e-05
5.27857e-05
-8.80049e-06
-0.0931449
-0.000480037
-0.208057
0.00391162
0.000108576
7.53713e-05
0.000320716
-2.44614e-05
0.013772
2.55839e-06
1.74999e-05
0.154368
-0.00374213
-0.0897275
2.56357e-05
4.37369e-05
-0.733728
-0.000428937
0.00381532
0.0897296
-0.0445067
0.211299
1.22232e-05
-0.000336535
9.10128e-06
3.85371e-05
0.000157137
-1.995e-05
0.00324012
-2.75351e-05
-6.31969e-06
0.203052
-1.8184e-05
0.157126
0.000158126
-1.53869e-05
5.36777e-05
-0.265212
-1.37944e-05
0.00211781
0.292606
-8.23452e-06
-2.30464e-05
-0.0034871
1.18121
4.01448e-05
0.0548408
0.000122858
-0.303362
0.0193301
0.0138827
4.60091e-06
2.51858e-06
-0.00023302
-1.01227e-05
0.0129703
-0.0142423
-0.0133229
-0.15656
6.57913e-06
0.000347277
1.27373e-05
0.0118186
-2.24538e-05
0.0230678
0.0269161
-1.01587e-07
-0.254858
-7.75231e-06
-0.368634
-0.00236955
0.000149529
-0.115247
1.38809e-06
-2.66933e-06
3.70595e-05
0.00014948
-5.64983e-05
-0.572695
3.09325e-05
2.63166e-05
-0.190376
-0.000110635
6.00328e-05
-1.89166e-05
-8.386e-05
-3.84897e-05
0.00865805
-0.000587575
1.74423e-05
-0.000167617
4.68402e-06
1.61047e-06
-0.230271
-0.00712553
-3.93052e-06
1.69461e-05
-4.292e-05
0.000955496
4.42004e-05
7.36278e-05
3.71104e-05
0.00792455
-5.45725e-06
0.000112324
0.032161
2.71434e-05
-0.0159628
2.2617e-05
-6.9706e-06
1.80434e-06
-4.16758e-05
-0.000326275
2.22235e-05
-0.0554638
0.000739147
-2.18226e-06
-0.00451016
-0.000122184
0.156672
-9.54982e-05
0.00733668
2.1466e-05
-2.38588e-06
-0.00051246
0.000107368
0.00174718
5.34116e-05
-9.58784e-06
-1.54346e-05
3.19872
2.84797e-05
0.198754
0.0153467
2.92648e-05
-0.0189554
-0.548745
0.0368749
0.00845583
-0.00165061
-0.000107974
-1.66342e-05
0.55687
7.93008e-06
0.000105817
-1.96594e-05
-0.000157429
-4.90559e-05
0.221582
-2.55987e-05
-0.244152
-0.0281748
3.2527e-06
-3.00325e-08
-0.784491
-4.58595e-05
0.00455966
0.000121208
-0.0129158
0.0156915
0.00284963
-4.64142e-05
-9.48626e-06
1.30339e-05
-0.602273
0.0568147
0.00508789
0.680756
0.00541827
2.14981e-05
0.0127071
-0.199336
-3.18027e-05
4.97051e-05
6.94857e-05
1.63431e-05
-1.20925
-0.00112443
0.000199239
-0.357941
2.62463e-06
1.42162e-05
9.33927e-05
2.69569e-06
8.4587e-05
0.708716
-1.36684e-05
-0.555634
-0.000174582
-2.29347e-05
4.62148e-05
4.05672e-05
-4.3121e-05
2.23493e-05
-0.0842372
-0.000102158
-0.0019119
0.211932
0.00166587
2.84802e-05
0.00326689
0.000212486
-9.51772e-06
-0.000135906
3.58376e-05
-3.93242e-05
-0.109081
-2.44295e-05
4.29737e-05
5.76028e-05
-0.0188716
7.3186e-05
-0.0134288
-0.000739093
2.8848e-05
2.6713e-05
-0.0450689
0.0439878
-0.253708
0.0201794
9.70735e-05
0.00622871
-0.094186
2.67947e-05
-1.25648e-05
-9.77964e-06
0.000626169
0.00115716
-0.00411725
1.30101
0.00186894
7.75768e-07
-0.000582066
-8.45293e-05
-0.0404158
-0.000339367
0.00624636
5.86836e-06
-0.0130704
-0.00224735
-1.03894e-06
0.00010382
-0.0566695
7.8505e-05
-0.030828
4.5822e-05
2.53524e-05
5.78148e-06
1.82399e-06
-0.405427
0.000291265
1.00305e-05
0.000175119
9.44565e-05
-0.189155
0.204814
-0.000353467
1.61533e-05
1.93138e-05
0.165197
-0.000121742
2.46769e-05
3.58068e-05
-0.406252
8.14341e-05
2.53018e-05
0.182193
2.51063e-05
0.0340762
0.0341152
-0.00528181
0.00271009
-7.23223e-06
1.7742e-05
0.000234775
2.88158e-05
6.06743e-06
-0.0115489
-0.794291
0.000153
-5.86397e-06
-3.57368e-05
4.20839e-05
2.42631
4.8918e-07
9.91035e-07
5.29085e-05
0.00011557
4.79217e-06
-0.0448136
0.00430551
2.93817e-05
-2.56086e-05
-3.44021e-05
-1.0033e-05
-2.96601e-05
0.00516443
-0.117338
-0.000132766
-1.45916e-05
1.73293e-05
2.41661e-06
0.103426
-1.26269e-05
0.00399838
0.0397563
4.48182e-05
-4.63512e-05
0.0475555
1.17876e-05
-2.83979e-05
1.45916e-06
0.000129948
5.16043e-05
-7.14715e-05
3.0047e-06
6.23741e-05
5.46836e-06
-0.00599861
3.4332e-05
7.68495e-05
0.00391894
-0.000165566
0.000161043
-0.000248679
0.000557513
-2.62057e-05
0.0396646
-3.18388e-05
-0.000236511
-5.88789e-05
-2.5086e-05
5.23198e-06
0.512435
0.130291
0.000461993
-0.0119167
0.000122096
0.132466
1.11439e-05
-0.140502
0.000192645
-0.000831283
0.0194375
-0.000569242
-0.0153984
-3.12085e-06
-0.00029955
3.30576e-05
-3.03966e-05
5.05261e-05
0.184516
0.006846
-0.000613131
-0.0800479
0.386684
-0.00770833
9.38645e-05
0.000113779
-0.00111736
0.000143911
0.141549
-0.000119394
-1.50322e-05
-0.00274627
0.0263489
-2.98428e-05
-0.584247
7.3787e-05
0.00363865
-0.000245415
0.000214687
0.00112463
0.00081946
-0.226522
-0.434066
0.0733893
-3.82396e-06
-3.90048e-05
0.0791925
-0.104334
-0.0493184
-5.85487e-05
-8.96551e-05
-3.73212e-06
-1.75629e-05
2.43728e-05
-0.00354222
0.00857068
0.0951082
0.0665661
0.219916
-0.146853
2.55168e-05
-2.19668e-05
8.84108e-06
0.000186435
6.44707e-05
-6.79774e-07
3.05358e-05
3.12255e-05
-8.04135e-06
0.000701135
0.366014
-0.000121713
1.71003e-06
2.56545e-06
0.417038
-0.000310482
-0.000185364
6.99422e-05
0.00791659
0.0790304
5.68066e-06
0.000887684
0.0351797
-5.91561e-06
-0.475949
-6.99254e-05
-4.26488e-05
-4.74634e-05
-0.156654
-8.00199e-06
-2.72334e-05
0.00245104