/*--------------------------------*- C++ -*----------------------------------*\
| =========                 |                                                 |
| \\      /  F ield         | OpenFOAM: The Open Source CFD Toolbox           |
|  \\    /   O peration     | Version:  v2012                                 |
|   \\  /    A nd           | Website:  www.openfoam.com                      |
|    \\/     M anipulation  |                                                 |
\*---------------------------------------------------------------------------*/
FoamFile
{
    version     2.0;
    format      ascii;
    class       volScalarField;
    location    "50";
    object      nut;
}
// * * * * * * * * * * * * * * * * * * * * * * * * * * * * * * * * * * * * * //

dimensions      [0 2 -1 0 0 0 0];


internalField   nonuniform List<scalar> 
10042
(
0.0067377
0.0085757
0.0040452
0.0067096
0.00673936
0.00878049
0.013159
0.00810371
0.00671631
0.00207797
0.0084102
0.00746045
0.000784515
0.00774618
0.00679236
0.0077633
0.00724689
0.00826967
0.00303985
0.0053539
0.00077033
0.00670425
0.00670887
0.0179948
0.00672367
0.00672713
0.00227733
0.0067107
0.00827706
0.0167001
0.00692688
0.000630013
0.00670258
0.00670036
0.00816119
0.00911955
0.00679991
0.0067227
0.00685354
0.00659367
0.0167728
0.00671433
0.0392534
0.00621738
0.00671582
0.00672504
0.00656537
0.00678439
0.00142376
0.0322615
0.0405286
0.00670679
0.00749571
0.00319225
0.0299406
0.00138465
0.000862145
0.00822868
0.00682182
0.00669773
0.00150126
0.0186561
0.0315745
0.00660088
0.0142459
0.00679664
0.00559113
0.00703074
0.00656192
0.00698953
0.0400451
0.00557095
0.00683
0.00681903
0.00678876
0.0414928
0.0066788
0.00656671
0.00688655
0.00330094
0.00765053
0.0162091
0.00698657
0.0067044
0.00335397
0.00214794
0.00590431
0.00395051
0.00677975
0.000828786
0.00123272
0.00678873
0.02846
0.00188594
0.0254246
0.00677986
0.0187109
0.005555
0.00361643
0.00681222
0.00151424
0.00246928
0.00685175
0.000854925
0.00216036
0.00683231
0.0308327
0.00678286
0.0108807
0.00683983
0.00681784
0.00740841
0.0025877
0.00662167
0.0132494
0.00656078
0.00628064
0.00689291
0.00843359
0.0065925
0.00670213
0.0109635
0.0112587
0.00671847
0.00409071
0.00681285
0.0068165
0.0294564
0.0266816
0.00591832
0.00674345
0.00677205
0.00692059
0.00676807
0.00672232
0.0410893
0.00601528
0.023221
0.00367258
0.00564915
0.00160612
0.00673854
0.0262235
0.00670499
0.00195025
0.00671945
0.00342079
0.0065731
0.00683747
0.0106382
0.00677553
0.0068424
0.00345262
0.000630483
0.0249639
0.00180199
0.0216236
0.00126793
0.00691735
0.00673216
0.00687132
0.00659975
0.0410836
0.00678716
0.00451669
0.0115974
0.00681524
0.000779048
0.00909901
0.00669302
0.0278901
0.0179412
0.0135892
0.00669651
0.00303858
0.0122214
0.00672668
0.00672051
0.00676053
0.00656205
0.00404015
0.00194129
0.00681612
0.00661238
0.00636523
0.00149691
0.00521954
0.0067011
0.0263475
0.00690507
0.0054228
0.000868236
0.00674292
0.00214176
0.0247147
0.00678895
0.038317
0.0263618
0.0166233
0.00670628
0.0367176
0.0106633
0.0105559
0.00668503
0.00498199
0.0069095
0.0200552
0.000683121
0.00681114
0.00677301
0.000668174
0.0066621
0.0129324
0.00582768
0.00682672
0.0068731
0.00663575
0.0130677
0.00674843
0.036147
0.0245824
0.02785
0.0133314
0.00686991
0.00671062
0.0130731
0.00686424
0.00630699
0.00204488
0.00684707
0.00672271
0.00684089
0.00156594
0.00695619
0.0067267
0.0085923
0.00676732
0.0175183
0.00192427
0.0204126
0.0127336
0.0259521
0.00669647
0.00659978
0.0205522
0.00674777
0.0259749
0.0021438
0.00312627
0.00679348
0.00231763
0.00674966
0.0074599
0.0299554
0.00684675
0.00678818
0.00695765
0.0068548
0.0193295
0.006717
0.00207154
0.00673774
0.0067055
0.00654751
0.000690657
0.0311752
0.00161698
0.00641014
0.00694504
0.00685156
0.00672595
0.0354414
0.00708749
0.0349516
0.00685937
0.00831714
0.00506294
0.0067173
0.00695134
0.0218203
0.00670166
0.0262247
0.0376131
0.00550535
0.00685877
0.00587172
0.00654355
0.00650762
0.00660951
0.00690171
0.000939939
0.00690448
0.00687801
0.0239814
0.0087689
0.00787519
0.00390694
0.00636193
0.00672703
0.00664388
0.00347956
0.0101379
0.00669928
0.0127816
0.00649209
0.0157239
0.00730141
0.00660486
0.00488274
0.0230088
0.00684589
0.00675605
0.00677251
0.00785576
0.00694509
0.0065609
0.00655149
0.00639628
0.0222522
0.00656974
0.00692857
0.0325705
0.00795179
0.00681862
0.00633284
0.00685224
0.0237891
0.00676007
0.00673787
0.00101671
0.00690986
0.00677525
0.0067103
0.0069216
0.0213993
0.00666597
0.0256968
0.00694333
0.00675196
0.0129495
0.0012407
0.000820344
0.00670003
0.0240856
0.00693018
0.0067275
0.00689746
0.00675269
0.00698106
0.017617
0.00670532
0.0230123
0.00703484
0.00673117
0.0256623
0.0274224
0.00685979
0.00697721
0.0341175
0.00694955
0.00682405
0.00680851
0.00444592
0.0222569
0.0128619
0.00420668
0.00671858
0.00706328
0.0070166
0.0285475
0.00670149
0.00705913
0.00714136
0.0067121
0.00179515
0.007341
0.00846771
0.0117612
0.0197084
0.00186691
0.00679467
0.0115518
0.00222302
0.00675296
0.000492283
0.006585
0.00678051
0.00659273
0.00682556
0.00651092
0.00686363
0.00162397
0.00656212
0.0258183
0.0124409
0.0259975
0.00671417
0.00736563
0.00682285
0.000552925
0.00670779
0.00552516
0.00653036
0.0296461
0.016329
0.00673338
0.00167865
0.00677674
0.0122979
0.00686404
0.0053387
0.00160587
0.0264256
0.00679866
0.00609812
0.00678724
0.00157104
0.0291104
0.0065215
0.00679345
0.00683765
0.0113451
0.00673397
0.00661601
0.00227833
0.00680419
0.00270988
0.00528803
0.00671505
0.000820201
0.00679172
0.00653501
0.00147128
0.00858984
0.00675618
0.00477287
0.0229169
0.0084931
0.00687598
0.00150615
0.00671028
0.00694148
0.00472663
0.0263525
0.0391751
0.00633465
0.0061327
0.0397377
0.00720355
0.00661626
0.00779034
0.00443342
0.00445618
0.000540581
0.00670855
0.0069159
0.0183658
0.00169399
0.00658905
0.00660399
0.00695652
0.0067143
0.00689673
0.00700198
0.0068234
0.00379671
0.00670854
0.00548638
0.0069981
0.027618
0.0386763
0.00670023
0.00317038
0.0263932
0.0138582
0.00688787
0.00298127
0.00691989
0.0207104
0.0067338
0.027221
0.00680131
0.00342336
0.00675482
0.00239212
0.00660573
0.00747446
0.005601
0.00684382
0.00671148
0.00676015
0.00725188
0.00673363
0.0282622
0.00407955
0.000780254
0.0067174
0.0283678
0.0218728
0.0219786
0.00679333
0.00693483
0.026792
0.00578999
0.00114958
0.01123
0.00686146
0.00645338
0.00239067
0.00199377
0.00259639
0.0189759
0.00671624
0.00670813
0.00684112
0.0194241
0.00671722
0.0123385
0.00671337
0.00677485
0.00671859
0.00170205
0.0127587
0.00684623
0.00481929
0.0160571
0.0267772
0.00568424
0.00684617
0.00678109
0.00643257
0.0248685
0.0068038
0.00657804
0.00426511
0.0067883
0.00676115
0.00406297
0.00673757
0.0278429
0.00671443
0.00197489
0.00670573
0.00739073
0.00671801
0.00234575
0.00676685
0.0067612
0.0167826
0.00669753
0.00668918
0.00099004
0.00672733
0.0125683
0.0233186
0.00955972
0.0266583
0.00689953
0.00656573
0.00661244
0.00649416
0.00710693
0.00683649
0.0045871
0.00676525
0.00670049
0.00221062
0.00203164
0.0073094
0.00693373
0.00670052
0.00195182
0.0230537
0.0066778
0.0175798
0.00672165
0.00191349
0.00668373
0.00672343
0.00677144
0.00675729
0.00681335
0.00694534
0.00622903
0.00680535
0.00374563
0.00671159
0.0066876
0.00652314
0.005512
0.0132152
0.00673674
0.00671486
0.00636004
0.0281758
0.00651742
0.0216158
0.00672447
0.00666367
0.00672316
0.00685406
0.00674886
0.0351905
0.00653496
0.00687471
0.00743955
0.0165465
0.00671379
0.00676764
0.0069644
0.00375533
0.00671541
0.00673134
0.00673674
0.00673173
0.00228862
0.00672919
0.00669441
0.00668347
0.018672
0.00639532
0.00556041
0.00686525
0.00401934
0.00674266
0.00474028
0.00680875
0.0209197
0.0111613
0.00612124
0.00662192
0.0248731
0.0067202
0.00678453
0.0176196
0.00409399
0.0235818
0.000424844
0.00680771
0.0232267
0.00671991
0.00680306
0.00669956
0.00672846
0.00686783
0.0172639
0.0052468
0.00673004
0.00201874
0.00675261
0.00458828
0.0065952
0.00598045
0.0271318
0.00684012
0.0221519
0.00678471
0.00674962
0.00345794
0.00678355
0.00670121
0.00693859
0.00673337
0.00670097
0.0062987
0.00365496
0.00509628
0.00677867
0.00676212
0.006727
0.0229883
0.00543102
0.00678944
0.00664807
0.00677099
0.0237358
0.0303613
0.00660701
0.00685886
0.00684287
0.0187158
0.00199977
0.00699882
0.00398221
0.00634867
0.0165929
0.0229596
0.00671906
0.00690754
0.0067889
0.00624418
0.00671685
0.00371179
0.0068567
0.00669786
0.0251165
0.00698463
0.0237094
0.036744
0.00650828
0.00671537
0.00663558
0.00632968
0.00672563
0.00558699
0.00704048
0.028046
0.00675092
0.00774867
0.0067373
0.00670805
0.00676792
0.0066738
0.00673516
0.00652143
0.0260861
0.00266444
0.00608387
0.0067165
0.00375344
0.00631758
0.00683037
0.00179098
0.00670935
0.0071801
0.0065241
0.00693222
0.0165882
0.0068453
0.00686177
0.00671978
0.0190326
0.00750719
0.00629247
0.00101349
0.00676095
0.00240478
0.00668616
0.00660133
0.00686622
0.000255892
0.00706174
0.0076182
0.0207924
0.00712705
0.0271176
0.00677176
0.00680167
0.0067941
0.00381364
0.0065308
0.00734296
0.00730228
0.00669641
0.00650188
0.00679702
0.00458359
0.00706988
0.00591068
0.00679373
0.0068145
0.0117692
0.00674146
0.000397203
0.00183456
0.00686011
0.00612816
0.00662789
0.00682893
0.00706373
0.0023636
0.00736957
0.0230006
0.00680463
0.00257971
0.00361872
0.00217754
0.00705223
0.00199089
0.00657075
0.00621979
0.00105524
0.00670714
0.00224549
0.00693556
0.00679622
0.00788404
0.00675239
0.00359061
0.00125191
0.00689733
0.00679404
0.00636371
0.00671641
0.00674915
0.00671058
0.00661065
0.00660098
0.00677747
0.00683284
0.00659807
0.00641292
0.00676709
0.00890328
0.0079808
0.00676724
0.00689672
0.00662992
0.0155987
0.00632705
0.00205847
0.00672206
0.0014679
0.0198516
0.00147628
0.00700166
0.0162978
0.0321592
0.00567984
0.00660646
0.00666549
0.00650439
0.00662136
0.00483955
0.00680203
0.00261899
0.00695737
0.00614684
0.0153115
0.00732406
0.00713994
0.00830392
0.00525809
0.0297938
0.00369947
0.00416635
0.00684423
0.0218418
0.0067838
0.00659683
0.00689735
0.00681419
0.00670481
0.00681335
0.00671623
0.025595
0.00684338
0.00669004
0.00827367
0.00676133
0.00151063
0.007013
0.0073085
0.00671031
0.00454533
0.00683395
0.00697989
0.00674694
0.00314974
0.00670299
0.0143314
0.00693326
0.00420135
0.00685223
0.00520007
0.0067001
0.000287705
0.00632143
0.00652378
0.00675732
0.00655335
0.00698295
0.00682091
0.0110543
0.00569858
0.00673249
0.00206365
0.00683906
0.00678086
0.0207581
0.00665565
0.00676752
0.0060386
0.00670276
0.00369548
0.00377104
0.00440326
0.00163997
0.00584111
0.0166378
0.00677588
0.00939854
0.0137893
0.00671413
0.00264284
0.0231971
0.018836
0.00481889
0.00675823
0.00708973
0.00656641
0.00682251
0.00658259
0.0222702
0.00376006
0.00660608
0.000910668
0.0159495
0.00632378
0.00660189
0.00664676
0.00674787
0.00680982
0.0085429
0.00654264
0.00674393
0.00267316
0.00254777
0.0067946
0.00690768
0.00180984
0.00490328
0.0228024
0.00653245
0.00694315
0.0067862
0.00677492
0.00495273
0.00536234
0.0067827
0.00898831
0.0131397
0.00430627
0.00232136
0.00501994
0.000856394
0.00070161
0.0132854
0.00136432
0.00678426
0.00676178
0.00423619
0.0112687
0.00679221
0.00283297
0.000648859
0.00701835
0.00431991
0.00679384
0.00688681
0.00687378
0.000789567
0.00682733
0.00671825
0.0299669
0.00699229
0.00704221
0.00320049
0.00200628
0.00977797
0.00691408
0.00686066
0.0040644
0.00145466
0.00691137
0.00108989
0.0228008
0.00672277
0.00670787
0.00242621
0.00503269
0.00672287
0.00699424
0.00676294
0.00660253
0.0078713
0.0258638
0.00679531
0.00684815
0.0067937
0.00596801
0.00669317
0.00679708
0.00690308
0.0182155
0.0109331
0.00676018
0.00681433
0.00526648
0.00652979
0.00654593
0.00574365
0.0228094
0.00672604
0.00679914
0.00413073
0.00649453
0.00372742
0.00671
0.00522387
0.0218719
0.00669612
0.00669496
0.00604272
0.00176047
0.00656243
0.00682796
0.0068401
0.000595815
0.00670543
0.00673997
0.0227694
0.00707875
0.0256896
0.00674613
0.00687879
0.00669174
0.00592347
0.00702838
0.00654525
0.024718
0.0067537
0.00683878
0.0289082
0.00689596
0.00509522
0.00693045
0.00354874
0.0117184
0.00680914
0.00614684
0.0053425
0.00680341
0.0305424
0.00591866
0.00683836
0.00653698
0.0067119
0.00706819
0.00386747
0.004695
0.00102341
0.0144582
0.0064246
0.00545357
0.012617
0.00284357
0.0232303
0.0066998
0.00161468
0.00678743
0.00681407
0.00672233
0.00157683
0.00102374
0.00676505
0.00622535
0.00696658
0.00273705
0.00693441
0.00268271
0.00363352
0.0065558
0.00646015
0.00672666
0.00651964
0.0332931
0.00783495
0.00698964
0.00672723
0.00627848
0.00720228
0.00773212
0.00968763
0.00669915
0.00672263
0.00673977
0.00224667
0.00670982
0.00456317
0.00684926
0.00677544
0.00719119
0.00685227
0.00675527
0.0238902
0.00521861
0.00666615
0.00305458
0.00356299
0.000540403
0.00390319
0.00426331
0.00670194
0.000450752
0.00431149
0.00665603
0.001166
0.00641366
0.00679328
0.0067364
0.00676189
0.00445887
0.0125113
0.00674456
0.0246468
0.00680235
0.00682161
0.0342552
0.00732691
0.00673071
0.0070037
0.00674351
0.00656676
0.00634955
0.00702508
0.00708901
0.00671119
0.00700052
0.00671931
0.00107832
0.00649889
0.00557033
0.00942959
0.00634824
0.00669491
0.0190598
0.00666827
0.00331762
0.00678884
0.00437774
0.00670066
0.00580372
0.0221674
0.0175631
0.00676752
0.00897236
0.00616659
0.0237493
0.00699149
0.00624605
0.00693471
0.0213991
0.00519327
0.00701446
0.0379833
0.0046706
0.0257195
0.00386647
0.0169834
0.00446712
0.00678663
0.0067268
0.00627722
0.00265121
0.00671144
0.0031867
0.00537427
0.00671567
0.00673107
0.00871559
0.00405282
0.00586639
0.00419958
0.00166796
0.0243622
0.00546265
0.00672292
0.00699439
0.0239947
0.00647396
0.00174061
0.00208072
0.00684846
0.00684652
0.00109852
0.0222819
0.00151857
0.00672469
0.00423604
0.00100244
0.00684071
0.00488531
0.00668191
0.000853697
0.00141947
0.00720519
0.00687512
0.00663284
0.00672075
0.0048823
0.00670725
0.0167323
0.00692194
0.0415691
0.0272498
0.0067213
0.00725596
0.00665747
0.00118498
0.0066653
0.00686142
0.00435787
0.0065238
0.0227064
0.00629122
0.00139493
0.00530627
0.00685733
0.00470555
0.00685877
0.0067679
0.00273611
0.00110085
0.00685682
0.0382938
0.00650988
0.00663929
0.00700504
0.00675109
0.00704293
0.00686589
0.00577971
0.0226418
0.00737933
0.00712373
0.00634205
0.00518492
0.00284517
0.000993878
0.0274362
0.00617997
0.00670985
0.00652469
0.0262188
0.00670137
0.0295164
0.00647008
0.00220233
0.00494064
0.00684318
0.00672625
0.0394315
0.00652094
0.00687492
0.0388254
0.00700006
0.00675256
0.000530982
0.00507358
0.0068362
0.000612686
0.00258951
0.00673187
0.00323011
0.00670764
0.00686429
0.023515
0.00123857
0.0197169
0.00676034
0.00160227
0.00672257
0.00672234
0.0014442
0.00677363
0.0112057
0.0105787
0.00474318
0.00488389
0.0010126
0.027295
0.00663538
0.0111776
0.00812699
0.00524973
0.00292951
0.00672223
0.00682903
0.0032838
0.00292162
0.0224634
0.0008273
0.00676413
0.026159
0.00665687
0.0204896
0.00670627
0.00865574
0.00697058
0.006744
0.00671699
0.00997912
0.00670244
0.00670507
0.00670232
0.00672355
0.00671853
0.00422097
0.0248192
0.00659194
0.00182664
0.006784
0.0067056
0.00669901
0.00852397
0.00254274
0.00291628
0.00679333
0.00670071
0.00669435
0.00240312
0.0026232
0.0067033
0.019316
0.0281055
0.0253806
0.00658742
0.00672888
0.00671157
0.00349205
0.0067691
0.00514218
0.00672595
0.00671997
0.00742763
0.00683283
0.00663635
0.0127152
0.0190384
0.00652756
0.00670794
0.00703543
0.0025006
0.0079543
0.00122451
0.00700369
0.00680493
0.00678497
0.00671702
0.00881582
0.00679184
0.00558135
0.00624661
0.000423279
0.00675517
0.00224275
0.00165338
0.00270256
0.00111767
0.00692391
0.000792783
0.00678652
0.0022207
0.00313317
0.00540625
0.00698292
0.00677397
0.0168136
0.00314147
0.000433002
0.00705948
0.00639492
0.00674476
0.0023779
0.0278344
0.00628969
0.000770872
0.00670027
0.00725437
0.00670721
0.00679167
0.00457912
0.00707949
0.00371264
0.00673028
0.00182329
0.00689665
0.0103214
0.0210574
0.00672447
0.0106283
0.00491149
0.00673221
0.00397127
0.00109248
0.00684978
0.0241633
0.00670254
0.00192883
0.00652568
0.00319937
0.03702
0.000619907
0.00679341
0.00282379
0.00521516
0.00671992
0.00675044
0.00669123
0.0160143
0.00612453
0.00124118
0.0236885
0.0156762
0.00127207
0.0066233
0.00673205
0.00113212
0.00670341
0.0249483
0.0307124
0.0130133
0.0396258
0.00612354
0.00798827
0.00670448
0.00684433
0.00672627
0.00184776
0.00689454
0.00234665
0.00340732
0.00432066
0.00162298
0.0067066
0.00655875
0.00678044
0.00669688
0.00634711
0.00363585
0.0139725
0.00711231
0.00707296
0.0025493
0.00683433
0.0108638
0.006736
0.00587105
0.0167861
0.00567106
0.00651776
0.0239595
0.0016357
0.00658639
0.0245455
0.00682082
0.00695873
0.00688409
0.0220532
0.0067049
0.00643312
0.0068516
0.00663758
0.00737768
0.0137883
0.00190916
0.00114619
0.0207145
0.00539536
0.00651341
0.00678474
0.0114999
0.00629831
0.0156934
0.00196735
0.0373122
0.0255467
0.00651464
0.000611803
0.00789127
0.00677878
0.000908874
0.00467071
0.00728706
0.00680684
0.00700309
0.00670458
0.00680958
0.00671904
0.00678051
0.0254583
0.00606399
0.0062745
0.00726992
0.0354701
0.0059941
0.0201846
0.00656554
0.00653507
0.0241958
0.0196575
0.00473915
0.0140333
0.000577063
0.0182252
0.0067207
0.000944846
0.0027872
0.00530286
0.00540727
0.00625538
0.00190636
0.000412361
0.00683976
0.00684647
0.00270661
0.0230588
0.000450521
0.025791
0.00670594
0.00590815
0.00394537
0.0129531
0.00318874
0.00669848
0.00670453
0.00393999
0.0156442
0.00638769
0.00679926
0.00172581
0.0102414
0.00678703
0.0269499
0.00640648
0.00121087
0.00695378
0.00127648
0.0388405
0.00670977
0.0071988
0.00672636
0.00583469
0.00804788
0.00100188
0.00502391
0.00340373
0.00680162
0.00396799
0.00135174
0.00312206
0.00680269
0.00536825
0.00692917
0.00103492
0.00370554
0.00123714
0.00672598
0.0418347
0.0281419
0.000401423
0.0173832
0.0067229
0.0068955
0.0058339
0.00694168
0.0024059
0.0393255
0.00680126
0.00456394
0.0314746
0.0067235
0.0186514
0.0068086
0.0136996
0.00814285
0.0276779
0.00330761
0.00671108
0.00671172
0.00674889
0.00218733
0.00666282
0.00685725
0.00670551
0.00672743
0.0027648
0.00685895
0.0072825
0.00684239
0.0363986
0.00676521
0.0150522
0.00622764
0.0067586
0.0276164
0.00670971
0.0289504
0.010723
0.0068285
0.00497
0.000629145
0.00657615
0.00703083
0.020808
0.00127477
0.00760522
0.0225169
0.00694986
0.0319933
0.00679764
0.00712211
0.00670481
0.00145329
0.00206176
0.00977541
0.00679465
0.0028015
0.0067011
0.00353022
0.00480717
0.00681625
0.00672484
0.00053117
0.00693882
0.00448312
0.0271661
0.00573253
0.00140536
0.00673814
0.00186842
0.00447271
0.00672005
0.00522516
0.0275989
0.00116417
0.00722739
0.00293696
0.00510844
0.00398263
0.0239684
0.0245338
0.00154188
0.0214723
0.0066847
0.00403314
0.00287079
0.00449596
0.00671322
0.00270739
0.00924675
0.00403062
0.00602164
0.00429343
0.019044
0.00656739
0.00543752
0.00646878
0.00416892
0.00345233
0.0068877
0.00187379
0.0254883
0.00751113
0.00654242
0.00685212
0.0138342
0.0274836
0.00236685
0.00686199
0.00669711
0.00690706
0.00678572
0.00642486
0.00670687
0.00657024
0.0067724
0.00665152
0.0015187
0.00684628
0.0191661
0.00648784
0.00491583
0.00140634
0.00294114
0.00238308
0.00780727
0.00595054
0.0122233
0.00671938
0.00669852
0.00527107
0.0109916
0.00679297
0.00624626
0.00520381
0.00673051
0.0184939
0.0014781
0.00170001
0.00648556
0.0231808
0.00212227
0.0067448
0.00320618
0.00209259
0.00136246
0.0072454
0.00432601
0.000992951
0.00660173
0.0270345
0.00669544
0.00288797
0.00625864
0.00670835
0.00221411
0.00662876
0.0054718
0.0251001
0.00714701
0.00678174
0.00671942
0.0067014
0.0107569
0.00679888
0.0274859
0.000735517
0.00679957
0.00670415
0.00673261
0.0115469
0.0275882
0.00670281
0.0134952
0.00482165
0.00537064
0.00122434
0.00679828
0.00678094
0.00669603
0.00682163
0.00655466
0.00679219
0.00683889
0.00372163
0.00683535
0.00152603
0.00323793
0.00653787
0.00107594
0.00674368
0.00262361
0.00664624
0.00655817
0.00164536
0.00670596
0.00731836
0.00670994
0.00408097
0.0359696
0.00669614
0.0131534
0.00192487
0.00680386
0.00679627
0.00678018
0.00598413
0.00679519
0.0247965
0.0174906
0.00672753
0.00144776
0.00130998
0.00466033
0.00688113
0.0265011
0.00680437
0.0269546
0.00969527
0.0047718
0.0227206
0.0069004
0.0194059
0.0266552
0.0358965
0.00678231
0.000396761
0.00340973
0.000518634
0.0067969
0.00690174
0.00968853
0.00156142
0.0063017
0.0258653
0.00707253
0.00611369
0.00673118
0.0195349
0.00677936
0.00176425
0.037882
0.00991818
0.00893508
0.000768889
0.00209943
0.0147507
0.00704422
0.00670599
0.00670766
0.00573472
0.00684277
0.00234976
0.00672684
0.029093
0.00248332
0.00760748
0.00657293
0.00671203
0.00670969
0.00243509
0.00704479
0.0405817
0.00685742
0.0283379
0.00677984
0.00677024
0.00667289
0.00132401
0.00793095
0.0310815
0.0115071
0.00620584
0.00244395
0.00535343
0.00671736
0.00670429
0.00677442
0.0155527
0.00684467
0.00587189
0.0289288
0.00678431
0.00428902
0.0141464
0.00257777
0.0218221
0.00654959
0.0126044
0.0227771
0.00671338
0.00699428
0.00540931
0.0260835
0.0415809
0.0140071
0.0268952
0.00678091
0.00670734
0.00635283
0.00219094
0.00645546
0.0071615
0.00683356
0.00381277
0.00375813
0.0133507
0.00686267
0.00195578
0.00682411
0.00649084
0.00455956
0.00679001
0.00670394
0.00673811
0.00634537
0.00670251
0.00279013
0.00431606
0.0121775
0.00682702
0.00678343
0.0066732
0.00681971
0.00687349
0.00524012
0.008724
0.00471983
0.0365454
0.0258487
0.0221356
0.00697025
0.00627761
0.00681468
0.00671125
0.00671548
0.00657844
0.00683325
0.00809392
0.00558636
0.00667667
0.00673425
0.00685705
0.00685634
0.00466333
0.00483233
0.00427863
0.0248108
0.0281064
0.00104378
0.00671039
0.00675919
0.0067146
0.00685324
0.0201683
0.00677393
0.00318775
0.00247891
0.00400672
0.00104446
0.00233997
0.0366377
0.0153701
0.00671944
0.00569265
0.0305008
0.0165546
0.00680383
0.00718489
0.00657787
0.00681282
0.00682401
0.0055065
0.00674285
0.00678111
0.00736004
0.00375399
0.0156137
0.00672001
0.00669643
0.00488381
0.00262369
0.00288961
0.0105603
0.00679113
0.0165248
0.000750662
0.00670846
0.00449676
0.00671459
0.00459712
0.00682756
0.00690135
0.03676
0.0299408
0.00498501
0.0120828
0.0255182
0.0224073
0.00545372
0.00672539
0.00685962
0.00276817
0.0067201
0.00683519
0.00297254
0.00679285
0.0298109
0.00680533
0.00388878
0.00627069
0.00669247
0.0136737
0.00718553
0.0067119
0.0029504
0.00334525
0.00378042
0.0041203
0.00540719
0.00757374
0.00685579
0.00671837
0.00659264
0.000567894
0.00616296
0.00670312
0.0068629
0.0283068
0.0308362
0.00671384
0.00694957
0.00706533
0.0066554
0.00677427
0.00681785
0.0276706
0.032315
0.00707435
0.00419134
0.00671569
0.00557056
0.00422011
0.00684699
0.00409251
0.0270563
0.00678909
0.00528768
0.0114311
0.00877524
0.00146339
0.00673525
0.00676824
0.0029179
0.00472323
0.0122958
0.00177417
0.0301278
0.00628102
0.00385906
0.0276276
0.00422378
0.00653447
0.00446243
0.00134227
0.0186893
0.00678296
0.00104068
0.00809466
0.0105559
0.00371005
0.00470449
0.00704575
0.00635215
0.00241239
0.00685699
0.00683461
0.00404442
0.0220186
0.0300618
0.00669962
0.00705508
0.00675939
0.00254581
0.00719474
0.000671385
0.00379644
0.0060768
0.00251531
0.0067149
0.0286387
0.00682925
0.00676767
0.0107296
0.00678732
0.00260463
0.00656814
0.00674428
0.000601629
0.00107811
0.00758836
0.00399095
0.0287091
0.00104007
0.0222239
0.00753138
0.0192147
0.00519157
0.00670932
0.00681199
0.00519298
0.00678481
0.00684708
0.00675479
0.00685055
0.00540355
0.00696722
0.00670708
0.00640572
0.00651489
0.00670965
0.00685292
0.00707338
0.00407144
0.0022779
0.0269535
0.00227341
0.00725069
0.0112507
0.00389741
0.00626336
0.0068018
0.0073155
0.00538244
0.0148637
0.00670795
0.0068051
0.0136434
0.00671101
0.00671067
0.00686443
0.00662446
0.0126284
0.00682827
0.00100262
0.00683727
0.0272173
0.00671651
0.00128696
0.00608587
0.00819802
0.00204963
0.00665454
0.0070151
0.0068565
0.00677579
0.0136522
0.00370889
0.00912397
0.00613771
0.0065876
0.00565613
0.00288158
0.00679384
0.00554652
0.006716
0.00115264
0.0106587
0.00336086
0.00224328
0.00671852
0.00686257
0.00154384
0.00723679
0.0277831
0.00612191
0.0259624
0.0175677
0.00675927
0.00704379
0.00671406
0.0068638
0.0062812
0.00684933
0.00692217
0.00673503
0.00685504
0.0113643
0.00661693
0.0100529
0.00391908
0.00684808
0.00704954
0.00419225
0.00669652
0.00819694
0.00612957
0.00681272
0.00682435
0.000598248
0.00426597
0.00218107
0.00155796
0.00681731
0.0139137
0.0228119
0.00184085
0.00681999
0.00669724
0.00535268
0.00683641
0.00331201
0.00397639
0.0156976
0.0137307
0.00674826
0.00663981
0.00671962
0.0026351
0.00680443
0.00543417
0.00243532
0.00680106
0.0130101
0.0067212
0.0275553
0.000673306
0.00678557
0.0210889
0.00674216
0.00670643
0.00690847
0.00652324
0.00649139
0.00613146
0.0068259
0.00669369
0.00755266
0.00672105
0.00686258
0.00463472
0.00671023
0.00677585
0.00456322
0.00474159
0.00659852
0.0043898
0.00394359
0.00678373
0.0131545
0.00375718
0.00679379
0.00672401
0.00680702
0.00652146
0.00678164
0.00683692
0.00405718
0.00167707
0.0065923
0.00423404
0.00208884
0.0068307
0.00446251
0.0067168
0.0067673
0.0067098
0.00670927
0.00672434
0.00676762
0.0284586
0.00621151
0.0066982
0.00653945
0.00680932
0.00574328
0.00584083
0.00154105
0.00676209
0.00519256
0.00698495
0.00682009
0.00593068
0.00646352
0.0067145
0.00709088
0.00344966
0.00558674
0.00609214
0.00229488
0.00671107
0.00451723
0.00562063
0.00166447
0.00491938
0.00668258
0.00587034
0.00671048
0.0136842
0.00682323
0.00683251
0.00515576
0.00660055
0.00672292
0.009583
0.00669863
0.0407472
0.0209765
0.00551826
0.00680241
0.00118884
0.00670986
0.00494166
0.00676505
0.00475309
0.00365474
0.00641262
0.00671111
0.00671573
0.0048683
0.0027194
0.00585553
0.00625486
0.00767761
0.000844448
0.00676093
0.00419385
0.022311
0.00671244
0.00662065
0.0070186
0.00670927
0.0105025
0.00416951
0.00681683
0.00430868
0.00671377
0.00673613
0.00676085
0.00676616
0.00671085
0.00311078
0.0067261
0.00313977
0.0070728
0.00548631
0.00685892
0.00685965
0.00670948
0.0067546
0.0228193
0.00671685
0.00366051
0.0126783
0.00477569
0.00458577
0.00393943
0.00530241
0.00676811
0.00671177
0.00670981
0.00672974
0.0177327
0.00634164
0.00688012
0.00351176
0.0273572
0.00612802
0.00198809
0.00734817
0.00670865
0.00683297
0.0020567
0.00638222
0.0216809
0.00132393
0.00706768
0.00331551
0.000992663
0.00678452
0.00671353
0.00670009
0.00123622
0.00128565
0.0137003
0.00164899
0.00130905
0.00670432
0.00470613
0.0067103
0.00139755
0.00715047
0.00670502
0.00510127
0.026226
0.000956813
0.00600928
0.0070553
0.002641
0.00537917
0.00409556
0.00670817
0.00670576
0.00678404
0.0067693
0.00469239
0.00691667
0.00685909
0.00531368
0.00659301
0.0134736
0.0126032
0.00438225
0.00679703
0.00684179
0.00621802
0.00657045
0.00671206
0.0067101
0.00171373
0.00671025
0.00676675
0.0107337
0.00698566
0.0253454
0.00198688
0.00322976
0.00139186
0.00673537
0.00679857
0.00131296
0.00670877
0.00672718
0.00413124
0.00530707
0.00654543
0.0067528
0.00670394
0.00420774
0.0059352
0.00674687
0.00438332
0.00677993
0.00677516
0.00671886
0.00209369
0.00815928
0.00672006
0.00661661
0.00638327
0.00669618
0.00519192
0.00182389
0.00128608
0.00702495
0.00676126
0.00679402
0.00674056
0.0138381
0.00671576
0.00632267
0.00595148
0.00670793
0.00672152
0.0109797
0.00669643
0.00677121
0.00670891
0.00630195
0.00698863
0.00649111
0.00671919
0.00659121
0.00678548
0.00358186
0.00674105
0.00684875
0.00133704
0.0194498
0.00579956
0.00656325
0.00606198
0.00668954
0.00603133
0.00670603
0.00660103
0.00672544
0.00677864
0.00676948
0.00975155
0.0163632
0.00627421
0.000469266
0.00674861
0.0120799
0.00675617
0.013749
0.00626265
0.00757186
0.0252295
0.00398208
0.00491735
0.00671285
0.00415362
0.00677074
0.0067318
0.00658504
0.0261514
0.0236179
0.00332907
0.0150136
0.00934846
0.00393604
0.00671125
0.00266069
0.00069575
0.00631571
0.0055299
0.00679241
0.00679803
0.000690464
0.0130044
0.0067188
0.00458621
0.0042798
0.0120618
0.00671548
0.00683249
0.00186251
0.00189136
0.0283607
0.00928969
0.00498555
0.00670632
0.00680373
0.00544441
0.0123149
0.0224505
0.0067003
0.00679871
0.00669804
0.00670585
0.00670702
0.0243727
0.00344282
0.00565734
0.0050524
0.00685679
0.00206051
0.00671448
0.00680545
0.0067652
0.00695127
0.00532274
0.00672047
0.00679509
0.00676059
0.00670275
0.00313499
0.0094685
0.00678147
0.00673175
0.00671724
0.0073003
0.00666225
0.00266604
0.00676763
0.00982588
0.0179914
0.00675572
0.00191317
0.00583033
0.00671544
0.0035501
0.00685247
0.0068112
0.00681416
0.0114332
0.00670353
0.00669805
0.0058569
0.00686012
0.00678035
0.00675671
0.0262531
0.0138314
0.0142942
0.006858
0.00677202
0.00472754
0.00672192
0.00694098
0.00670062
0.00640333
0.00671028
0.00654189
0.0067155
0.00674079
0.00560831
0.00270747
0.00673151
0.00431303
0.00344305
0.0146203
0.00671334
0.00665615
0.0066994
0.0110642
0.00546793
0.00499117
0.0271989
0.00674741
0.00675821
0.0068454
0.00747135
0.0129778
0.00672434
0.00676063
0.00671903
0.00549267
0.00601789
0.00675612
0.0067249
0.00673814
0.00630873
0.004355
0.00630667
0.00680945
0.00622978
0.00688709
0.00673191
0.00583119
0.013927
0.00671005
0.00678263
0.00610514
0.00590893
0.00670255
0.00676363
0.0066993
0.00676793
0.00672544
0.0131637
0.00738918
0.00703455
0.00219934
0.00365963
0.00677856
0.00801965
0.00683072
0.00550051
0.00695448
0.00655626
0.00671769
0.0119027
0.00671259
0.00679953
0.00550927
0.00680026
0.00681205
0.00638805
0.00682055
0.00680815
0.00618428
0.00623558
0.00461601
0.00671492
0.00675203
0.00590448
0.00671772
0.00669806
0.00731655
0.00279225
0.00670447
0.00787569
0.0183029
0.00672072
0.00682664
0.00681169
0.00680325
0.00690574
0.0067033
0.00685705
0.00917954
0.00454164
0.00681531
0.00669666
0.00662215
0.00672731
0.00672739
0.00679159
0.00623459
0.0068444
0.00609659
0.00679982
0.00671289
0.00210215
0.00669974
0.00658786
0.00681392
0.00845441
0.00671279
0.00595275
0.00744583
0.00632977
0.00670092
0.00625001
0.00736865
0.00730572
0.00658965
0.00673675
0.00655072
0.00676613
0.00265636
0.0067112
0.00741136
0.00760397
0.00674246
0.00628427
0.00603265
0.00614361
0.00278123
0.0071569
0.00669844
0.00670007
0.00379474
0.0232814
0.00670464
0.00672701
0.00667679
0.00675982
0.00679062
0.0126453
0.0067117
0.00669457
0.00681385
0.00730395
0.00285382
0.00131578
0.00703108
0.0066972
0.00672052
0.00430158
0.00706992
0.00665559
0.0203926
0.00713838
0.00735046
0.00742298
0.00669611
0.00684808
0.0065026
0.00701565
0.00662327
0.00505332
0.00672082
0.00671236
0.00603848
0.00607024
0.00756539
0.0073768