/*--------------------------------*- C++ -*----------------------------------*\
| =========                 |                                                 |
| \\      /  F ield         | OpenFOAM: The Open Source CFD Toolbox           |
|  \\    /   O peration     | Version:  v2012                                 |
|   \\  /    A nd           | Website:  www.openfoam.com                      |
|    \\/     M anipulation  |                                                 |
\*---------------------------------------------------------------------------*/
FoamFile
{
    version     2.0;
    format      ascii;
    class       volScalarField;
    location    "350";
    object      ddt0(omega);
}
// * * * * * * * * * * * * * * * * * * * * * * * * * * * * * * * * * * * * * //

dimensions      [0 0 -2 0 0 0 0];


internalField   nonuniform List<scalar> 
9793
(
3.95431e-06
-1.02971
-1.72633e-05
-0.0293144
-2.51402e-05
0.0146952
0.00448727
0.523968
2.01245e-07
3.15355
-8.73966e-06
-9.09861e-06
-3.7578e-07
0.0134579
-3.58738e-05
-0.000257164
0.00124839
1.60328e-05
-0.0619828
-3.47429e-05
-1.82282e-05
5.83193e-09
-0.0511854
0.43632
0.0124515
6.00229e-05
-3.54933e-06
5.95572e-06
-3.53216e-05
0.00241183
0.6779
0.0795462
-3.13332e-05
-1.43362e-05
-3.89993e-05
0.000176532
-0.000165465
-4.14581e-06
-0.0565622
0.000410799
0.00201979
0.618892
0.806308
-7.0784e-06
-5.05998e-08
1.01598e-06
0.502214
-7.70442e-06
-1.57077e-05
7.35043e-06
0.000130808
-3.3394e-05
0.000809567
-7.58407e-06
0.000206202
-0.0255673
3.86369e-06
0.000978381
-1.59308e-05
8.71318e-09
2.48573e-05
-0.000471563
-1.31754e-05
0.000346421
9.63092e-06
2.70033e-07
2.17625
5.71087e-06
-0.000213459
0.55904
-6.21219e-06
0.00351883
0.658792
-1.96113
0.743014
-5.65106e-06
-0.00116866
0.33242
-8.88704e-06
-6.05761e-06
0.00739786
-0.07638
0.00119507
6.18319e-05
-0.000174715
-0.0186659
-2.13682e-05
0.00218648
-0.0541197
0.0110146
-0.0061665
-3.00043
-0.836018
0.000555641
0.562484
-5.01528e-06
0.797238
0.000879969
5.73033e-05
-1.49359e-05
-0.00168137
0.000725475
0.516182
-1.24348e-06
0.345591
0.109409
-1.48611
-1.69683e-05
-7.72479e-06
-1.29551e-05
-9.74441e-06
-0.0252887
-0.00665285
0.517951
-5.67201e-06
-3.10969e-05
-0.000284248
1.5285e-05
-0.0195302
-2.29716e-06
0.163299
0.00260013
0.587519
0.00115287
-0.000161265
6.11853e-07
0.00138688
0.608504
-0.000362831
-0.0057557
-5.65889e-05
-1.82196e-05
6.83159e-06
-2.67124e-05
0.000129912
0.00695138
-0.0215582
-0.000292151
-2.37368e-06
0.00158476
-0.102215
0.000131888
1.52322e-05
0.00151019
0.500584
0.0896125
-4.63147e-07
0.822325
-1.26905e-05
2.42907e-06
-1.75114e-05
-1.49689
5.37603e-05
-4.20836e-06
-8.92545e-06
-4.24507
0.00132349
-9.40008e-07
0.101403
-8.02752e-06
0.00214232
-6.34211e-05
-1.72178e-05
0.0227252
-3.42972e-05
0.649057
0.372454
-4.0582e-05
-1.25561e-06
5.27193e-06
4.313e-06
0.306268
-0.145135
0.00801132
-5.22339e-07
0.0134286
0.00581626
0.0112158
-7.83763e-06
2.20841e-06
0.495862
0.398076
0.0021954
2.77103e-06
6.08643e-06
-9.25118e-06
0.468404
0.620594
0.284685
0.555096
-3.11172e-06
-4.59428
0.0422718
4.04851e-05
-3.6226e-05
2.08656e-05
0.0280583
-5.41912e-06
1.43026e-05
3.46407e-06
3.38865e-07
-2.19897e-05
0.000178432
-8.26445e-05
-0.0267447
4.94857e-06
0.0002424
-4.34968e-05
5.46745e-06
-0.0444222
0.00149366
-0.0856156
-1.66462e-05
0.412215
6.85087e-05
-0.000152779
-2.72724e-05
0.0258684
-2.43818e-05
0.000119431
0.000978312
-2.16166e-05
-0.0208392
0.0688874
0.000316144
-1.96494e-06
0.00155338
0.134999
-8.11254e-06
0.000289318
-0.0231432
0.00129021
-6.68728e-05
0.00038813
0.0863866
-1.34558e-05
0.299658
0.452159
4.71966e-06
-1.47472e-05
0.0891174
-3.5007e-06
-8.14635e-06
0.0020372
0.00755559
1.40452e-06
-1.21511e-05
0.000308193
0.000272853
-1.96878e-05
-8.09901e-06
0.00060485
0.0495917
-1.81052e-05
0.0291074
-9.70805e-06
2.61031e-05
-4.10987e-05
-0.0258232
-6.9277e-07
-3.62871
0.297684
-2.13963e-05
-8.68354e-06
1.31882
-2.20143e-05
-1.04774e-05
-1.45626e-05
0.212556
-0.030239
6.1237e-05
-0.0473101
0.00409822
0.432764
-0.137489
-4.09716e-05
1.19499
2.65451e-05
0.120812
-0.219583
-0.029494
0.20647
0.000642182
-7.27297e-05
0.000672725
-6.92219e-05
-5.30956e-05
-6.46485e-05
-0.111775
6.0566e-05
-4.19079e-06
2.15959e-06
-3.86235e-06
-3.43603e-05
-1.98224e-05
-0.0475632
-1.37598e-06
-3.65678e-05
-3.98537e-05
-3.04016e-06
0.0116673
-0.0125487
-0.000154559
9.42807e-06
0.0016152
-5.82625e-05
-0.43406
-1.34426
-1.44259e-06
0.466571
0.000309632
-7.49666e-06
-2.08912
-0.741826
-3.22913e-05
0.00073033
-0.179823
4.07108e-06
-2.89435e-05
-3.78959e-05
3.80577e-06
0.042768
-3.62454e-05
-1.32317e-05
2.49969e-07
1.24664e-06
0.00753419
0.0126399
-1.39754e-05
-2.47868e-05
-7.79278e-06
0.374161
-0.0651684
-0.176945
-1.23915e-05
0.000218623
0.000132323
0.0576966
0.00258503
-7.11318e-06
-8.98702e-06
-7.92782e-06
0.000918417
1.2926e-05
-0.130624
-2.23837e-05
-8.49673e-06
0.289319
-0.0427899
0.209151
-3.69331e-05
-0.00723158
8.39013e-05
-0.0311215
0.0266435
-0.0214032
3.83398e-05
0.00053723
0.0775324
0.00140225
-0.0285746
-1.72566e-05
1.5272e-05
4.36345e-05
-1.27965e-05
-3.34174e-05
8.37794e-06
1.48134e-05
2.18034e-09
-0.157334
4.62884e-06
0.00148676
0.000377744
-0.783242
-6.69882e-06
6.2278e-05
0.364373
-0.0215394
0.00299813
0.00240925
3.84902e-06
3.47681e-05
-1.26535e-05
0.229534
-6.70447e-06
0.158537
0.0116502
0.00609143
-0.0261517
0.0586529
-4.8036e-05
-1.04036e-05
0.134039
-0.320399
1.40297e-05
0.188655
-5.67064e-05
3.11284e-05
-0.0420738
-2.60357e-06
0.00479785
-1.33224e-05
0.282107
-9.27016e-06
-3.68633e-05
0.232473
0.00303619
0.000547466
1.97983e-05
1.63454e-06
3.96971e-06
0.70549
0.000878598
3.31153e-06
-2.21176e-05
0.000132763
-0.0007756
0.000343553
0.403833
6.96352e-06
-2.24204e-05
-0.148044
-1.15977e-06
0.0301761
0.0504793
6.13945e-06
-2.9592e-05
-5.75236e-05
-5.61077e-05
-3.07899e-06
-0.00423615
9.61201e-05
3.28795
-1.61293e-05
-0.000174827
0.00114656
-4.41171e-06
-0.0125949
3.48428e-05
-2.14527e-05
1.5894e-06
-0.0308146
6.17051e-07
-6.28244e-06
-1.80147e-06
-4.70975e-06
2.08576e-06
-1.35124e-05
9.5074e-06
-2.74382e-05
2.23891e-05
-6.38355e-05
0.00230771
1.53378e-05
0.0384318
5.5052e-05
-0.0152566
-0.217952
-5.25919e-05
0.329292
0.00207511
-3.37783e-05
-3.34903e-05
2.20779e-05
0.368221
0.00317162
-2.91109e-05
-3.24198e-05
2.75319e-05
0.000254718
0.0045178
0.281157
1.1248e-05
-2.26136e-06
1.91843e-05
0.433387
-0.0286393
2.82253e-05
-0.000112277
0.0428556
0.992793
0.00915905
1.44747e-05
-1.96541e-05
-0.0344313
1.07737e-05
0.00537516
-1.13805
-7.82511e-06
-0.011593
0.000176032
2.39398e-05
5.10739e-06
-0.049583
0.0124899
-0.000212315
-1.80471
3.73376e-06
0.170853
-5.89895e-06
-5.60805e-06
-1.76291e-05
8.1819e-06
0.540705
-2.31257e-06
-1.41133e-05
2.15244e-05
-1.19681e-05
-2.46268e-05
0.000743579
1.7128e-05
0.000362066
-2.58129e-05
-1.79192e-05
0.277817
-0.000568708
2.82638e-05
0.0194624
-6.79649e-05
4.30703e-06
-8.11028e-06
-6.62414e-06
-0.386714
-1.35572e-05
1.72047e-05
0.859158
0.464817
0.000272168
2.13417e-05
-1.19844e-05
-1.71459e-05
5.39438e-06
0.026353
7.88441e-06
0.673595
-0.000128317
-0.0243093
-7.31108e-06
2.21087
-7.24606e-06
0.0133965
8.52133e-06
0.001027
0.140887
-1.00391e-05
0.166724
-2.67997e-05
-1.00809e-07
-1.66667e-05
0.657584
-0.0209969
1.38327e-05
0.000214755
-1.34324e-05
0.0523127
2.74423e-05
0.000647444
-0.0561957
-1.59837e-06
3.36397e-05
0.00145475
3.47968e-07
-1.98333e-05
-9.61229e-06
0.00336516
2.36893e-05
0.0822747
-3.25988e-07
6.36803e-06
0.000496681
1.99348e-05
-0.0143793
-3.93435e-05
1.98253
-9.39426e-06
0.00644013
-1.36935e-05
-4.19452e-05
7.05148e-07
8.19958e-06
-1.03698e-05
0.00979186
-7.58324e-05
0.251122
0.00496305
0.000100568
-4.04825e-05
-0.0154952
-9.95074e-06
0.0185679
-0.119963
0.0213082
3.71855
-0.517986
0.0070113
-2.3733e-05
0.0275516
0.00043709
-2.98016e-05
0.0244349
-5.28238e-06
-0.149953
3.37418e-05
0.0373621
-2.08272e-05
-0.0212916
1.585
0.000376506
0.0261146
-9.98062e-06
0.196776
3.26588e-06
1.18694e-05
1.25091e-05
-0.000261532
0.000734847
-0.0271799
-0.0433741
1.04116
-2.04644e-05
3.41889e-05
0.00238025
-0.00813336
-0.000109063
0.00195052
4.49151e-06
-0.00614335
0.268342
1.52628e-05
-8.57568e-05
0.408511
1.90959
-9.75361e-07
5.73025e-05
0.543644
0.000113421
0.372268
0.000630598
-0.660339
4.5136e-05
-4.20719e-06
-9.08663e-06
-1.37457e-05
-0.00858257
3.68921e-06
-0.00618393
0.00618136
-0.00727586
3.60828e-07
1.49224e-05
-0.00019925
-9.50966e-05
-4.15655e-05
3.09919e-06
0.00373921
0.398319
0.0143318
9.99251e-06
0.0194161
2.53781e-05
-0.332331
0.00114925
0.000359926
0.000844466
-0.00557903
-2.33366e-05
-1.801e-05
-0.00044455
4.08962e-06
-1.40604e-05
0.00179213
0.0184673
-2.50675e-05
-0.0177734
-0.0493869
-3.47063e-06
0.0718878
-0.0601416
-6.68513e-06
0.00124019
-0.000234097
-2.73095e-06
-1.4692e-05
-0.00239499
-0.0396933
0.912375
-5.38898e-07
1.34698e-06
-3.66156e-05
-0.000348985
1.89836e-05
2.68527e-05
-0.0143977
0.00110897
-4.91206e-05
-0.547782
0.000195324
0.000113418
-2.16252e-05
1.19308
-8.11335e-05
2.88305e-05
-0.0079105
0.0188723
-4.28809e-06
1.14788e-05
-1.15084e-05
-0.000219339
-2.73886e-05
0.000472172
0.03044
3.60171e-06
0.00375643
-9.99283e-05
-1.54022e-05
-0.105098
-0.0804674
-0.026845
-2.10322e-05
-1.53125e-05
-1.65742
1.39992e-05
-0.355578
-1.84113e-05
-1.02553e-05
0.523116
0.670206
0.000352367
0.00440772
-0.000112535
-8.80639e-06
2.72836e-06
-7.63691e-07
0.192676
1.96885e-05
7.49071e-10
0.00671097
-1.33108e-05
-0.0272031
-0.000240741
4.3168e-06
-0.0874263
4.51214e-05
-4.55542e-06
9.05652e-08
9.83762e-05
0.0679044
2.54211e-05
-2.56093e-07
8.84564e-07
-2.59226e-06
2.52516e-05
-1.33897e-05
-0.585872
0.000123788
2.81163e-05
1.36858e-05
-4.47692e-05
0.00141922
-0.000285702
-1.30239e-05
-5.36831e-06
-3.16776e-05
2.15431e-05
-0.000424906
-0.0590322
-0.0001751
1.005
-1.43423e-05
4.65169e-05
-6.18003
-0.0341333
-1.85305e-05
2.44427e-05
-0.00902467
0.00156511
2.87091e-05
-6.9736e-06
0.073976
-3.36031e-06
0.00189469
-2.64323e-05
-0.0259062
-1.44408e-06
6.07779e-06
-1.81054e-05
0.000241299
-8.21667e-05
5.63088e-05
-1.77691e-05
-0.00109054
1.2436e-05
7.24669e-06
1.30232e-06
-6.81733e-07
-2.84056e-05
-4.47041e-05
0.000404138
-3.25549e-05
0.00146818
-0.00481472
0.000680446
0.00176551
-9.80842e-06
-9.7656e-06
0.430338
0.0894054
-1.19327e-06
0.0588667
0.710386
-2.00016e-05
5.04214e-06
-1.87926e-05
0.00249794
0.00157239
-0.0620296
1.94316e-06
8.30906e-05
1.45385e-07
4.55874e-06
9.34076e-06
0.000295065
-2.25923e-05
0.00535486
4.86282e-07
-0.00147862
-1.11547e-06
3.02846e-05
-8.81769e-06
-0.000185439
0.000520923
0.793338
0.402409
0.079851
0.00141947
-1.01923e-05
-0.000156663
-0.0119577
0.0020018
-2.78325e-05
5.24973e-06
0.0230983
-1.8717e-05
0.0147857
-1.29307e-05
2.94577e-05
-2.8467e-05
1.58071e-05
-3.24652e-05
0.258089
0.253089
-0.0667841
7.81482e-05
0.346377
-6.65915e-06
0.158897
0.090293
-3.47759e-06
5.13704e-06
-3.71718e-05
-0.428694
-7.30434e-06
0.907788
7.94093e-05
0.00903689
9.37238e-06
0.747853
1.23256
-0.00419836
7.38419e-05
0.000512105
3.30886e-05
-0.331197
-2.97069e-05
-0.00732522
-0.000734776
0.000304478
0.22128
0.605288
-2.88874e-05
3.0711e-05
2.58864e-05
-3.32074e-06
0.61675
0.178355
-3.43014e-05
0.0498994
-0.000291001
0.00720963
0.00111596
0.017144
0.0207606
-9.78061e-06
5.3554e-05
0.000224366
-0.000125781
-0.00024279
-0.0820782
2.51867e-05
0.116188
3.5856e-05
-7.08371e-06
0.00230434
0.000876936
-0.290777
-3.50559e-05
3.37622
1.2385
2.25444
2.01291e-06
7.57144e-06
-3.26046e-05
4.61121e-06
-9.75714e-06
-2.29135
-0.257882
2.65529e-06
-1.30314e-05
0.000248838
-0.0118949
0.000130706
5.63281e-06
-0.0124328
-1.07401e-06
8.27657e-07
-1.98778e-05
0.00170435
3.37546e-07
-0.000127658
-0.233367
0.00145854
-2.30308e-05
0.0387084
-0.00113854
3.10223e-06
-0.000150265
0.00065185
-3.69678e-06
2.44841e-05
-2.21002e-05
0.56347
-0.151138
3.06638e-06
0.000668863
0.000131996
0.0648078
-8.24642e-06
0.246603
-2.47742e-05
-4.285e-05
-0.00636435
-0.015275
0.00226791
1.23473e-05
-1.47448e-05
0.698701
-0.012475
-0.0352427
0.0241258
1.9579e-05
-0.00027531
-3.16791e-05
0.61071
4.66776e-05
-0.307972
-3.62578e-07
-3.80171e-07
-0.000194654
-5.08924e-06
1.2774e-05
0.000858692
-5.47701e-06
0.223953
-1.26356e-05
-1.0909e-06
-8.34749e-06
-0.000147213
0.00567441
-0.0668475
0.00131467
0.513137
8.67659e-06
-3.63704e-05
-0.000112391
-0.199811
-6.3623e-05
-1.8876e-05
0.535937
0.000241664
8.4966e-05
6.94805e-07
0.0102745
0.30023
0.0877026
7.12639e-06
0.000106861
-0.0253741
0.000108616
-0.719181
0.00636325
0.0018267
-3.71456e-06
3.9817e-06
0.00208123
-0.00649705
2.37574e-05
0.000101481
-4.27567e-05
2.97973e-05
6.31414e-06
-2.87718e-05
4.21829e-06
-8.17897e-06
-0.338781
0.000107577
-2.5962e-05
0.000713918
-2.70858e-05
-1.69443e-05
0.000120837
0.249139
-5.58198e-06
0.00153006
-0.0410037
1.49853e-05
-0.181804
0.000108943
0.0642179
0.00146588
-1.39527e-05
-1.91069e-05
-3.23604e-05
-0.193862
0.00877585
0.000930568
0.00547835
-2.33118e-05
-1.17665e-05
-6.66019e-06
-1.44613e-05
0.785274
6.92631e-05
-2.58552e-05
0.0106724
-0.00903357
0.602871
-1.8715e-05
0.52194
7.96882e-05
0.00101007
0.000188599
-0.00374259
0.0216489
5.65457e-06
0.0175789
0.0381819
7.48824e-05
0.020221
0.00127898
-2.96668e-05
-4.98137e-06
-9.48499e-06
3.48756e-05
1.87026e-05
-1.9367
0.00140474
-3.58465e-05
-0.00104456
-2.31285e-05
0.0487717
0.0265002
2.4185e-05
-0.200343
-2.73082e-05
6.69861e-06
-5.54105e-05
0.0303864
0.680254
0.00135342
-4.42338e-05
-1.24771e-05
0.309315
1.78709e-06
0.000218655
1.92109e-05
4.70334e-06
-2.05065e-05
0.715008
1.84685e-05
-0.00010661
9.2493e-05
-5.81484e-07
-0.0233065
0.00479183
0.0002372
0.000129083
-3.69088e-05
-0.0598859
0.265668
-7.62623e-05
-2.95148e-05
-7.73526e-05
5.65816e-06
1.79881
0.48697
-0.0142145
0.000106113
-1.63693e-05
0.284311
-1.65002
-7.37553e-08
-0.348481
-2.53738e-06
0.00280942
-0.800811
-1.40815e-05
1.07863
-0.152969
0.00383748
0.656163
0.342729
-1.45282e-05
1.64758e-05
0.0167744
-0.0267735
1.62696e-05
0.374101
6.33539e-05
-9.00804e-06
-1.53006e-05
-7.99215e-05
0.00103162
6.88356e-05
0.0176772
0.705486
-0.0451833
9.86222e-05
1.43764e-05
0.00130079
0.00105069
-2.63682e-05
0.0295574
0.000737388
-1.19917e-05
8.20601e-05
6.94783e-06
1.31137e-05
-8.08472e-06
-0.0172366
-8.08822e-05
-3.7216e-06
0.123898
0.00391821
0.00263039
5.76551e-07
0.00117378
-1.85644e-05
-9.75733e-07
0.550988
1.05635
1.26707e-05
-2.27539e-05
0.0901895
0.0845813
0.000769979
1.1008e-05
0.142832
-8.59884e-05
-1.36173e-05
-0.000313507
1.3338e-05
-1.97035e-05
6.36972e-07
0.215101
-0.000651384
0.000101967
0.0166002
0.00120754
-0.0112428
0.377621
-0.0738818
0.0170481
-6.2794e-06
-1.77394e-05
-3.7614e-05
1.44831e-05
0.000725283
8.02073e-06
0.0138853
0.000302928
-0.181958
-1.94739e-05
0.00901905
-0.00103669
0.263329
-1.83089e-05
-0.0312621
0.000122954
0.0186919
0.0506276
0.000239583
2.66522e-06
0.403204
0.00154841
0.723334
4.44982e-06
0.589477
-2.90418e-05
0.705436
-0.041733
0.0024817
-5.19945e-06
2.85003e-05
0.00681818
0.645322
0.000267667
-3.41069e-06
-0.0797636
-0.000548495
0.00123448
0.749796
0.00622815
-5.01669e-06
0.353252
-3.93365e-06
0.000334951
-2.29373e-05
0.690127
-2.33741e-05
-0.000262409
0.0796715
-0.034759
4.36476e-06
0.00199304
-0.00010237
0.0072535
1.87891e-07
0.0165008
-1.05463e-07
0.00117805
1.55383e-05
1.37135e-05
-0.00730556
0.000115236
0.77273
0.0583788
0.183946
1.21438e-05
-2.79782e-05
-1.76966e-05
7.53932e-05
0.000783093
0.000424985
-0.399181
-7.65952e-06
-0.0109136
0.000204912
-1.4622e-05
5.17017e-06
0.00285619
-0.0501685
0.735228
5.60703e-07
-0.0088154
4.23544e-06
0.684932
0.0396334
0.00132098
-6.18497e-06
1.31389e-06
0.000680062
3.31349
6.86919e-05
3.61996e-06
-0.000268695
0.00124696
-0.000142832
0.204709
-0.051306
0.0419357
-4.06203e-05
0.000111903
0.0890362
2.57337e-05
-0.000111304
-2.80041e-05
1.64595
0.000229899
-6.96685e-06
-0.000240277
0.00067589
-7.37461e-05
0.235848
-5.51848e-06
0.00956498
-0.0128636
-0.10356
-0.24133
3.25794e-05
-1.48999e-06
3.96445
1.53435e-05
0.000152241
0.00340784
-3.5823e-06
-2.89433e-05
0.290589
-1.39861e-06
-0.0136217
-0.000251013
-0.00138095
7.96085e-06
-0.00622465
5.91258e-05
4.25163e-05
0.32702
0.241827
-1.63203e-05
-3.05399e-06
0.0177338
-0.05303
-0.0281675
0.247303
2.93914e-05
6.12464e-06
-1.63201e-05
-0.0593622
-1.76011e-05
0.537982
0.000514665
-0.00168729
2.30414e-05
-1.28641e-06
-1.02376e-05
0.000675827
0.000182722
0.0322303
0.00284037
0.111163
-0.0203095
-3.50849e-05
-0.0243301
1.84985e-05
0.00164551
-9.90767e-05
0.000675162
1.53867e-05
-1.13557e-05
-3.67207e-05
0.00209622
-7.20791e-06
0.000372329
0.000120004
-0.0351706
0.605697
9.14829e-05
-0.0713945
-4.51759e-06
-3.56442e-05
9.21763e-06
-0.00830145
-0.0013966
0.000774413
0.00684808
1.01484
0.000419181
0.014394
-2.85445e-05
-1.83823e-05
-1.50128
-2.00391e-05
0.0574844
-1.53416e-05
-1.66448e-05
-0.0144206
0.0223275
-1.97338e-05
0.00245547
-0.00508805
0.552651
0.204185
7.333e-05
0.00168025
0.00125002
-1.41485
-3.03623e-06
0.668059
0.0352064
-2.03018e-06
-0.000290121
3.65817e-06
-0.0497144
-1.30293e-05
-1.22517e-05
0.0263918
1.81774e-06
-1.84063e-07
0.0105562
0.0014263
-0.00716025
-0.000825108
0.0263505
-0.00165265
-7.24481e-06
-1.26462e-06
-2.99702e-05
1.22657e-05
-0.224062
2.21493e-06
-0.0102999
2.01256e-05
0.834257
4.61378e-06
4.90212e-06
-3.86858e-05
4.5968e-06
-3.07168e-05
-2.78779e-05
-3.13273e-05
0.00263064
-2.29138e-05
0.00119305
1.56443e-05
0.658821
-4.33549e-06
2.81719e-05
-7.35398e-05
0.00147819
-1.51331e-05
-2.45745e-05
-2.42389e-05
-1.57741e-05
-0.000352753
-3.29705e-05
2.2058e-05
5.23259e-05
0.348527
0.153192
0.796874
-0.0120611
-1.17142e-05
1.33889e-05
-4.26658e-06
-5.64015e-05
-1.83795e-05
-1.29253e-05
-0.0029019
-7.92056e-06
2.2803e-07
1.02766e-05
-2.94203e-05
-3.42255e-07
-0.0584671
-0.000309362
8.23733e-06
-0.664258
0.00103519
-5.66502e-05
-0.212324
0.633116
-1.49377e-05
0.104823
0.206829
-3.89747e-06
-0.000114485
7.4857e-06
-1.69896e-05
8.33836e-05
2.54863e-05
0.000109368
1.23341e-05
2.67698e-05
-2.77884e-05
2.09968
-0.000238214
0.000813774
1.64669e-05
2.41992e-06
1.06427
2.60709e-05
3.04121e-06
5.09065e-05
4.52058e-05
-3.17041e-07
-0.1778
-2.05939
0.279617
0.038484
-0.0265942
0.000319634
1.76892e-05
8.30127
0.00589506
1.63942e-05
0.00173003
5.4052e-09
-2.10792e-05
3.96716e-05
-0.125762
0.00171025
2.4245e-05
-2.03303e-05
0.0106544
-5.9779e-06
-0.0186179
2.72969e-05
0.00991493
0.0173089
-0.617961
4.72364e-06
1.20415e-05
3.15938e-05
0.000347024
5.16841e-06
5.50288e-05
0.00201329
-0.468764
-1.51399e-05
0.0193891
0.174044
-6.78412e-06
-0.0780041
0.000421861
-0.00306566
0.00437138
-4.87395e-06
0.000155102
0.00101293
-4.355e-05
4.73599e-05
1.64707e-06
-1.41438
4.33463
0.000529459
-9.6974e-06
0.00656725
-0.00141888
0.0521937
0.095491
2.13719e-05
5.16116e-05
-7.19203e-06
1.57058e-05
0.00100975
0.000667841
-0.910738
-8.98892e-06
-0.00335926
2.60377e-05
0.296476
0.00864431
0.0913899
-2.31598e-05
1.01202e-05
-0.0385721
-0.0232258
-0.000485661
-0.0238019
-0.000144863
0.210101
-2.74203e-05
-1.89577e-05
0.0583791
-0.0135463
-0.000349784
-1.18528e-05
-0.000521028
-0.018246
-0.0118352
0.00480594
-3.4597e-06
6.00428e-06
-4.90118e-05
-0.0287792
1.36644
-2.31659e-05
0.00121854
0.00539052
0.00237812
0.0191965
-0.00570604
-0.308027
0.20881
-3.93403e-05
-0.000139757
-0.0363186
-1.05889e-05
-0.000216769
-0.00348958
-0.324783
6.30907e-06
-2.99398e-05
0.564714
-0.00826166
-0.00393389
1.05163
-0.0704628
0.000680943
1.32677e-05
1.83209e-07
-1.22763e-05
-9.11476e-05
1.58028
0.00023534
0.0183832
-1.10733
0.00268385
-9.56737e-06
-0.00843889
-1.04871e-05
0.000231492
-6.12676e-06
1.97443e-05
-1.18334
9.95617
1.00039e-05
-1.36712e-06
-0.000120974
-1.47766
-0.0178097
-0.130537
0.00133386
-3.53617e-06
6.0903e-05
1.79426e-05
-0.0171925
-3.55275e-05
-5.23779e-06
-1.69404
0.0189554
-0.642745
0.00133728
1.68317e-06
-5.52592e-06
8.39431
-1.87566e-05
-6.66911e-06
-4.11197e-05
-1.82996e-05
-3.01992e-06
0.144892
1.0738
-0.0296313
-0.0760059
-0.115164
-0.000282655
-8.96372e-06
-0.134706
-6.28562e-05
0.00113089
-0.193962
-1.37694e-06
0.96081
-0.0149618
0.00151183
0.000165187
0.0178024
3.29308e-05
-0.0166129
0.000371724
-0.00752694
-2.10885e-05
2.06873e-05
0.000337713
0.0591551
0.00512664
-0.00242262
0.302249
0.20367
0.000611745
0.00864022
0.0135196
4.08499e-05
-0.0180506
1.31917
0.000207966
-0.00326908
0.205847
0.000202901
-0.000280931
2.07187e-05
0.000805508
0.000846329
0.00108171
-4.74704e-06
0.214339
0.000482011
-0.00216821
0.423868
-0.0227024
0.000443012
-0.0347393
0.243684
1.8441e-06
-0.0835933
0.652829
-0.0650677
0.000153902
-4.09288e-06
0.0415605
1.06808
5.55692e-06
-0.0286473
-3.91186e-05
-2.98176e-06
0.0131628
9.01306e-07
0.0040356
0.0128868
-0.0625494
0.0658047
-1.15149e-05
0.000652733
-3.65704e-07
-8.24221e-06
0.0063679
0.00172782
9.54515e-05
-0.0405992
-0.0198644
3.11809e-07
3.90951e-05
-0.0332732
-7.7875e-05
0.000556975
9.03184e-05
-0.0283229
-0.0271355
0.0242525
0.274867
0.6467
-0.00887757
-0.0246366
-0.045017
-0.000481737
2.95039e-05
0.00469208
0.00542015
0.00505906
-0.425916
-2.06584e-05
2.63582e-05
0.101445
-0.0498994
-0.000126018
0.322901
-7.92503e-06
-0.0102543
0.668541
0.00269668
-1.59981e-05
0.00841126
0.0216803
0.000139496
0.000376408
0.795377
1.0286
0.86232
0.302911
-6.40783e-06
3.61328
-0.0115035
0.00046943
0.0212155
0.000480989
-2.32571e-05
0.000144855
0.154051
0.0277981
3.32775e-05
1.74645e-05
0.0416745
-0.00348138
-0.0395198
0.00245995
0.112419
-0.0194658
-3.44404e-06
0.374161
-3.29062e-06
3.45398e-05
1.57171e-05
3.13788e-05
4.19115e-05
0.000256934
-0.018049
-8.59949e-06
-4.39704
0.0017371
-0.0113967
-0.17497
-0.0190222
-1.85352e-05
0.619513
0.0161664
-0.0086083
9.51961e-05
-1.9378e-05
1.34221
0.606354
-0.0646986
-0.000283344
7.01014e-06
2.05357e-05
-1.18283
0.0743369
0.000795245
1.36979
0.000124702
1.20898e-05
0.00824226
-3.6191e-05
-2.35989
-1.22408e-05
-0.000445256
-0.000761169
0.661678
-0.030162
0.00796023
-0.0312655
-0.0172351
1.56397
-4.37538e-06
-0.823239
0.000559402
4.22706e-06
-7.25356e-06
4.62966e-06
0.203073
0.000223967
-0.0291046
-0.0322255
-0.000106164
0.0356408
0.00116706
0.0190952
-0.00543773
0.4838
0.282486
0.0274057
-7.60014e-05
-9.89987e-06
-0.0245917
0.000992814
-0.00246314
0.00418212
0.166612
0.00215175
2.63739e-05
2.23199e-05
-0.0105951
5.48958e-06
-1.34674e-05
0.000223782
-0.0261479
-0.000387069
-0.00042202
0.0119259
0.0016109
0.0448472
-12.425
-0.0158456
-0.74247
-0.0657727
0.435853
-0.00975713
0.000118219
0.000417234
9.80718e-06
0.00318351
0.00490895
0.0194554
-0.000147005
0.000215421
-3.34808e-05
0.0117451
-0.236516
-0.000350742
1.40362e-05
-0.000108493
0.439497
-2.02387e-05
-3.43222e-05
0.00141372
-0.010994
-0.000253717
-0.00977022
0.0332099
2.07642e-05
0.00195239
-3.36979e-05
1.36643e-05
0.00049433
0.0353455
1.7278e-05
0.000220197
-0.00222845
-0.465159
8.19661e-06
0.110326
9.55059e-06
-0.0197205
1.25664e-05
1.36632e-05
-4.34813e-07
0.00743413
6.92509e-05
-0.046195
-0.553946
0.000362092
-1.58522e-05
-3.20398e-05
0.723231
-0.129729
-4.60844e-05
-0.0260369
-0.0301309
0.00105833
0.00353402
-3.05426e-05
1.72416e-05
-1.40961e-05
0.00676593
0.000501027
1.44441e-05
0.0913979
9.41353e-06
0.0010747
-0.0126858
-2.03007e-05
0.0235713
0.00150356
-0.421346
1.81999e-06
1.0876e-06
4.83661e-06
0.00112725
-3.22249e-05
-4.69584e-06
0.187196
-0.211749
0.00242556
-5.19278e-05
-0.0829496
2.04075e-05
9.37782e-06
3.27027e-05
0.0429091
0.19236
3.07027e-05
0.12464
2.63101
0.00146067
0.046548
-0.0338465
0.205995
1.12915
0.00142693
0.00166781
0.0165971
0.000835554
2.46906e-05
-0.000109817
0.00016824
-0.109296
-2.5249e-05
0.396883
-1.24534e-06
-0.0128032
0.00408076
1.70821e-05
-3.93398e-05
-10.7179
-2.24667
-0.299473
0.00306987
-1.53064e-05
0.00145579
0.550162
-4.26297e-07
0.595342
0.000137497
-0.000417494
-0.0623251
-0.000555829
-2.24886e-05
0.00349088
0.00721696
-1.63399e-05
-0.00894691
3.40362
-2.31841e-05
2.84469e-05
2.33311e-05
-1.44015e-05
-0.0868574
-6.43473e-05
0.000785036
3.42025e-06
-7.144e-05
-0.000672839
8.78963e-07
0.0109954
0.0025865
-8.57914e-08
-3.94433e-06
0.00499223
-3.31751e-05
-5.12319e-06
-0.714473
0.367977
0.000853849
-0.0306904
0.000399915
-7.38827e-06
0.00628544
-0.219562
0.000310051
-0.0190257
-0.850666
-0.00299853
0.000317909
-0.000470032
0.00199148
0.000272328
0.627468
-4.30415e-05
1.13561e-05
-4.72221e-05
0.0766036
0.899589
0.000171348
-0.000955732
-2.21178e-05
-0.000346709
0.00284502
-0.00256559
6.99686e-06
0.00136618
-0.0875081
-0.000302882
-1.36604e-06
-3.57926e-06
0.202523
0.51757
-2.2768e-05
-1.79827
2.67026e-05
0.0254745
-0.0177735
1.13162e-05
-0.0736021
9.05061e-05
1.11507e-05
-0.096194
0.0059898
-2.24538e-05
-3.06123e-05
0.0488275
-1.32302e-05
-9.42709e-06
-0.0035249
-0.000586775
0.000915613
0.594841
6.3031e-05
0.000307695
-0.0863764
2.22041e-05
0.192864
0.57656
5.10771e-05
0.00127855
0.023969
-2.59154e-07
0.0107441
-3.73674e-05
0.117769
-0.0523429
5.44934e-06
-0.402942
0.41689
-2.16266e-06
6.80344e-06
0.00563201
9.12595e-05
0.0138752
0.0113198
3.06017e-06
0.000718568
0.50296
-0.000102292
0.00130748
0.00233976
0.000134094
-0.158647
0.000660398
-0.000210147
0.00392041
2.03925
-0.000116116
0.147304
-1.5405e-05
-3.67863e-06
-4.10247e-06
5.43295e-05
0.791279
2.42975e-05
-3.01322e-05
3.30834
-0.0380706
3.39203e-06
0.000176489
0.0589069
-0.00255637
-1.43937e-05
0.282511
0.000575575
0.00325123
0.000625932
2.39125e-05
0.000101814
2.81824e-06
-2.52076e-05
-0.0501348
2.50108e-05
0.000280697
-2.0214e-05
0.876974
-0.00020948
-0.000310877
-7.10073e-06
-1.75423e-05
-4.49188e-06
0.000415155
0.13852
-0.0512024
0.000249507
-0.000110819
2.45452e-05
8.34933e-05
0.00118955
0.295417
0.161441
-4.26908e-06
-1.57714
-2.14682e-05
-0.0497236
0.0108582
0.216645
-4.09856e-05
0.00451108
0.00276879
0.222623
0.0309868
-1.53956e-05
0.389538
-0.0234216
0.000256083
-0.472987
-2.08537e-05
6.43599e-06
0.000200836
0.316941
-1.13849e-05
-1.44316
-0.000199974
0.764209
0.00237103
1.4336e-05
0.202021
0.000201561
7.5849e-06
0.102149
3.38266e-06
-0.0254312
0.288165
0.00245531
3.73945e-05
-0.000330914
-7.71998e-06
0.00318048
0.000720415
0.510616
3.87843e-06
-2.71979e-05
0.000108819
0.000207003
0.00110719
0.0335983
-1.90007
0.000254961
-0.00180726
-1.70788e-05
-1.19554
0.119377
0.0155238
-9.54304e-06
4.13896e-05
-0.000201162
-0.0597892
-4.36228e-06
4.15996e-05
0.0832393
0.00396267
3.55825e-06
-0.00424521
0.00361256
-2.64336e-05
8.00926e-05
0.00417268
0.00311344
0.00212394
0.000548088
-0.0741567
0.00940629
-0.00338813
0.000167058
-1.02686e-05
6.35039e-05
-9.64683e-06
0.0062341
0.00153476
2.3367e-05
0.00216493
1.03843
-4.8939e-06
3.68243e-06
0.332594
0.0396471
0.00848164
0.00439847
0.000115406
7.74757e-07
2.2112e-05
-2.42755e-05
-2.05728e-05
0.00110743
-1.26031e-05
1.2673e-06
1.6526e-05
2.02556e-05
4.00586e-05
-1.54153e-05
-0.000453354
6.27008e-05
-2.64066e-05
-2.06076e-05
-2.18987e-05
6.95013e-06
-3.29919e-06
-0.0106198
4.81104e-06
-1.73956e-06
0.0487707
-1.25739e-05
2.69869e-05
-7.63198e-06
7.06396e-05
0.418313
-0.255917
0.0395507
0.169761
0.436417
0.0347816
7.51424e-06
0.0013816
3.46377e-06
0.0351
-0.000174676
-5.65772e-05
-8.26183e-06
0.00145928
6.85715e-06
0.000346045
6.03725e-06
-0.0537482
0.00710488
1.89938e-06
0.736806
0.404841
-2.7151e-05
0.000506362
2.02245e-06
-3.50262e-06
0.407797
-2.47576e-05
0.00177959
0.0307194
3.11892e-06
-5.74011e-08
0.0020933
-0.0385364
-1.08666e-05
-4.95166e-05
0.014905
-1.48834e-05
0.165699
0.00121785
1.85959
-1.02562e-05
-0.0061958
5.48415e-06
9.45552e-06
-0.011225
0.00166172
-0.107717
-0.0220876
0.556826
-0.103015
-0.00401646
0.00663643
-5.10217e-05
-0.00227331
-3.81558e-05
-1.49392e-05
-0.000927491
-7.15546e-06
-1.33709e-06
-1.11196e-05
-2.27919e-05
0.00121229
-1.25656
-0.000129856
0.0787455
0.192498
-3.47471e-05
1.61392e-05
-0.000107354
1.42806e-05
0.00270661
-1.73156e-06
-1.42573e-05
-1.10662e-06
-3.77757e-05
1.80534e-06
-0.0135307
0.00131169
0.00058972
3.54178e-06
0.000266173
-6.58817e-05
-0.0652541
0.620815
4.66539e-05
0.000916117
4.861e-06
0.834059
0.0363313
-1.54586e-05
-2.42092e-05
6.7466e-05
9.29199e-06
-0.0352709
-0.0304145
0.528986
4.48886e-06
-0.585112
-1.4277e-06
0.0758851
0.00122192
-3.84973e-06
0.00017617
-0.74877
3.78594e-05
0.000209613
0.00015734
0.00247667
0.646245
-2.91801e-05
-2.63792e-05
0.000270554
-0.00640317
-3.53537e-05
-0.0208862
-1.88081
-4.00352e-06
-3.82803e-05
0.3223
0.00146684
-1.13747e-05
-0.894006
2.72293
0.137675
-2.81179
7.42892e-05
-0.0367746
4.14828e-06
0.529944
-0.17585
0.17274
0.00125701
5.10297e-05
0.143813
0.000115404
-1.30795e-05
-1.21049e-05
-0.0158791
1.24232e-05
-0.183913
-0.000113487
1.25854e-05
6.74675e-05
-0.0217553
4.02453e-05
1.77155e-05
2.26212e-05
0.265808
0.0193433
0.652951
-0.0153654
0.000501253
-8.48865e-06
-2.41072e-06
-0.0036382
0.00587942
-1.78821e-05
0.00112063
-0.0116199
-0.796161
-1.18965e-05
-0.153698
0.557889
0.000240821
-1.08412e-05
3.52008e-05
-2.51275e-05
-1.28135e-05
-2.0385e-05
-2.99409e-05
-9.64846e-05
-0.00119412
-1.99617e-05
0.00116128
7.73473e-07
1.53296e-05
0.335037
0.00140302
-0.000248429
1.72853e-05
0.00993386
-8.06996e-06
1.6005e-05
0.000163671
-8.58317e-06
-0.119478
0.000189353
1.44521e-05
-9.13607e-05
3.424e-06
0.000134201
-6.61021e-05
0.00924464
-9.1435e-06
7.43931e-06
-0.374787
-0.000213012
0.00251132
0.00052768
9.70437e-06
0.00212104
-4.13812e-05
-2.64058e-05
1.5187e-05
0.757106
-8.61895e-05
-9.61599e-06
0.0274456
-7.24592e-06
2.0347e-06
-1.68813e-05
0.520862
5.77245e-05
8.11578e-05
-6.98662e-05
-3.06074e-05
0.000130113
4.77187e-05
8.45823e-05
1.71547e-05
-8.84225e-05
1.07492e-05
0.000168757
-1.34116e-05
-0.0131939
-0.00213034
-2.47303e-05
-0.000369717
-0.131715
8.3493e-05
-7.56396e-06
-0.0848963
0.000106207
0.000755733
-0.0478019
4.91784e-05
-1.21711e-05
0.00028656
-4.4656e-06
-0.00030872
-7.48724e-07
3.18562e-05
0.000145653
3.46825e-05
4.05649e-05
0.00019809
8.66142e-06
0.00338073
-1.53107e-05
-7.26762e-07
1.1678e-06
-0.00034582
-0.00313923
-2.44176e-06
-1.31815e-05
-0.000784844
-0.000172856
1.02323e-05
-0.00121609
0.993783
-0.110678
3.92813e-06
6.49927e-05
8.02926e-05
-2.31451e-05
1.56133e-05
0.000515807
0.0071884
-1.76566e-05
-0.000127498
6.03819e-06
-2.23025e-05
-4.58597e-06
3.49825e-05
-0.000106559
0.000450275
0.000518683
1.22814e-05
-0.0515151
2.63532e-05
2.94466e-05
-1.44406e-05
-0.0228215
-0.370539
0.0117336
4.65904e-06
0.000939163
0.000199524
2.25111e-05
2.23482e-06
0.000124942
-0.037039
-0.00434742
-5.28843e-05
2.50194e-05