/*--------------------------------*- C++ -*----------------------------------*\
| =========                 |                                                 |
| \\      /  F ield         | OpenFOAM: The Open Source CFD Toolbox           |
|  \\    /   O peration     | Version:  v2012                                 |
|   \\  /    A nd           | Website:  www.openfoam.com                      |
|    \\/     M anipulation  |                                                 |
\*---------------------------------------------------------------------------*/
FoamFile
{
    version     2.0;
    format      ascii;
    class       volScalarField;
    location    "350";
    object      omega_0;
}
// * * * * * * * * * * * * * * * * * * * * * * * * * * * * * * * * * * * * * //

dimensions      [0 0 -1 0 0 0 0];


internalField   nonuniform List<scalar> 
9793
(
0.0224451
10.6507
0.0219379
2.51322
0.0222599
0.196174
0.08299
6.68169
0.0221337
15.0842
0.022197
0.0221878
0.021916
1.47641
0.0217939
0.0256822
0.0524647
0.0219318
2.24641
0.0215676
0.021637
0.0222917
2.53104
6.8845
1.51689
0.0267609
0.0220992
0.0222621
0.0215782
0.0784514
8.19873
0.343052
0.0220103
0.0219432
0.0218675
0.027936
0.0241137
0.0251569
1.47854
0.0303882
0.0680146
6.57605
5.8012
0.0222717
0.0219633
0.0220432
6.34482
0.0222844
0.0217277
0.0219387
0.0276321
0.0218507
0.0367542
0.0222688
0.033348
2.11739
0.0219246
0.0868444
0.0217324
0.0222915
0.0273129
0.0981739
0.021951
0.033724
0.0219628
0.0220654
26.8403
0.0240268
0.0244762
4.50239
0.0220063
0.104212
6.00297
2.70471
5.77202
0.0222627
0.0468662
10.7884
0.0219813
0.0222707
0.0497013
2.22281
0.0507361
0.0240108
0.0245115
0.23772
0.0222614
0.0664982
1.49126
0.0943719
1.76076
1.04386
1.10232
0.0407469
5.45523
0.0219087
6.60002
0.0494627
0.0246019
0.0222687
1.32047
0.0350231
2.73335
0.0219683
4.01383
11.4085
1.81642
0.0218778
0.0219854
0.0222836
0.0222337
2.08037
3.33989
7.73049
0.0219807
0.0221125
0.0239082
0.0220507
1.78503
0.0220293
3.24327
0.0710278
8.44006
0.0414509
0.0241423
0.0220352
0.0597641
6.54684
0.160106
0.164265
0.0235782
0.0218117
0.0223398
0.0232819
0.0269204
0.158824
0.422282
0.0239404
0.0222738
0.0601147
2.50291
0.0271517
0.0219671
0.0541891
6.06388
0.609681
0.0220362
6.43371
0.0218096
0.0220301
0.022069
17.1229
0.0241575
0.0220919
0.0219292
1.01246
0.0559473
0.0219462
0.4452
0.0219339
0.0628117
0.0236784
0.0216431
0.371593
0.0220526
8.14489
2.30375
0.0222268
0.0218788
0.0222177
0.0219824
6.3586
28.013
1.90626
0.0219098
0.17763
0.138017
0.754444
0.0219661
0.0239633
4.63327
7.45188
0.0764653
0.0220359
0.0220733
0.0218724
8.43329
5.65258
21.2157
2.97567
0.0220003
19.0385
0.421999
0.0256142
0.0217759
0.0233959
1.9984
0.0216047
0.0219297
0.0222044
0.0220293
0.021638
0.0286281
0.0247178
1.65619
0.0219385
0.0278122
0.0222253
0.0224011
0.506192
0.0576683
2.77091
0.0216422
3.75113
0.0240509
0.0404653
0.0218062
0.153
0.0221215
0.0514659
0.053
0.0216406
1.40755
2.06685
0.0390725
0.0218987
0.0503147
2.05089
0.0504718
0.0513853
1.50584
0.123072
0.0381937
0.0343872
0.377531
0.0216151
4.17897
6.63564
0.0216105
0.0222227
4.91986
0.0219207
0.0222314
0.102638
0.114176
0.0220608
0.0239817
0.0288462
0.038325
0.0240149
0.0219724
0.0439308
2.92147
0.0216382
1.93584
0.0222623
0.0221705
0.0216693
2.02711
0.02198
2.20684
3.39567
0.0221035
0.0221312
2.05133
0.0218513
0.02224
0.0218295
2.95229
0.277619
0.0251055
0.457559
0.0819153
2.50529
3.70033
0.0222449
21.5713
0.0222645
1.96114
8.0723
1.52821
3.42838
0.119484
0.0235908
0.0468339
0.0243889
0.0218113
0.022315
0.47675
0.0269337
0.0221398
0.0222838
0.0216399
0.021705
0.0216405
2.31148
0.0218689
0.0217868
0.021925
0.0219178
5.45128
0.583763
0.0654931
0.0229737
0.0547812
0.0220497
0.572943
12.9721
0.0219736
4.13002
0.0320574
0.0219573
16.5935
0.854666
0.022018
0.0462218
13.1613
0.0221926
0.0345071
0.0217863
0.0222821
1.82759
0.0413366
0.0219519
0.0220223
0.0228394
0.174678
3.38017
0.0219417
0.0218719
0.0217494
6.98823
5.13453
8.67261
0.0216066
0.0437831
0.0353972
2.18189
0.0673908
0.0216186
0.0216687
0.02175
0.0453948
0.0221084
8.82416
0.0220879
0.0217886
2.94551
2.19445
2.98051
0.0217876
1.32171
0.024745
4.18378
8.16071
1.57796
0.0236466
0.0316216
0.466291
1.61095
2.00531
0.0267789
0.0222635
0.0255001
0.0216992
0.0218537
0.0220898
0.0220812
0.022292
10.2587
0.0222069
0.060074
0.0299708
3.11103
0.021616
0.0240894
5.24686
0.507176
1.54834
0.0656536
0.0217909
0.0237209
0.021941
0.453933
0.0215737
2.77481
0.159935
0.0834991
6.80961
1.85982
0.0221376
0.0218969
0.539932
0.412284
0.0219372
6.92492
0.0221316
0.022176
6.91551
0.0216406
0.0885539
0.0216231
2.13974
0.0220934
0.0220628
2.93888
0.0982892
0.0508794
0.0256132
0.0220746
0.021852
8.07188
0.0493405
0.0215844
0.0221949
0.0345646
0.035341
0.0502836
7.08418
0.022196
0.0219401
0.327739
0.0220812
2.47262
0.740825
0.0220652
0.022015
0.0222859
0.0221166
0.0217364
1.33614
0.0518649
3.54878
0.0293634
0.0231327
0.0416769
0.0248649
1.65109
0.0265181
0.0222679
0.0240351
0.50525
0.0219678
0.0219383
0.0220034
0.0215767
0.021984
0.0218096
0.0220445
0.0221579
0.0229419
0.0243593
0.102025
0.0220192
1.48055
0.0258279
0.217536
4.64767
0.021815
3.19645
0.080989
0.0217813
0.021577
0.0219769
3.98658
0.0834975
0.0215735
0.0221205
0.0221976
0.0691032
0.154477
10.8376
0.0219762
0.0219303
0.0320203
6.88826
1.48097
0.023832
0.0231116
2.03881
6.85026
0.210377
0.0222403
0.0218002
1.56276
0.0219133
0.135722
3.82298
0.0215737
0.240853
0.0267479
1.31885
0.0218518
1.91017
0.275351
0.0252941
1.61335
0.0219111
1.94917
0.0220946
0.0218928
0.0222235
0.0219454
4.62257
0.0219044
0.0217144
0.0229293
0.0216146
0.0218009
0.0461128
0.0228429
0.0331744
0.0220336
0.022038
4.14781
0.0764805
0.0237786
1.98906
0.0240014
0.0222325
0.0219847
0.0217352
11.0536
0.0217064
0.0220694
8.7524
5.60688
0.0391463
0.0219234
0.0222842
0.0221023
0.0222413
1.8109
0.0222392
3.58104
0.0238518
1.83406
0.0222623
20.3136
0.022227
0.22566
0.0219191
0.0826655
4.36726
0.0221032
8.77276
0.0219127
0.0222182
0.0216271
6.0246
1.6974
0.0219838
0.027489
0.0217043
1.97569
0.0218873
0.0445708
1.82739
0.0254814
0.0220266
0.0464839
0.0222452
0.022143
0.0217656
0.09537
0.0219553
2.23409
0.0220517
0.0221222
0.0374519
0.0778269
0.547062
0.021777
19.4904
0.0218929
0.202534
0.0219261
0.0221857
0.0219093
0.0220496
0.0222684
0.218472
0.0384995
9.03099
0.108532
0.0356753
0.0344408
5.48677
0.0235524
1.73671
4.48434
0.260995
9.73495
2.0331
0.179401
0.0221488
3.47243
0.0370359
0.0221001
0.351815
0.022251
0.474863
0.0359304
0.200556
0.0279855
1.87556
6.24897
0.035251
0.180894
0.0222164
0.648138
0.0229667
0.0219214
0.0220969
0.0233033
0.0456308
1.45175
0.281867
5.57026
0.0232884
0.0235195
1.30475
0.360826
0.0229085
0.0605452
0.022427
4.99291
3.09852
0.022059
0.065808
0.294349
6.73893
0.0219576
0.0259809
9.96536
0.0279581
8.48685
0.0851635
2.33445
0.0258139
0.0236608
0.0219175
0.0219284
0.197326
0.0222843
0.203219
0.128564
0.0810515
0.0222596
0.022224
0.023349
0.0221051
0.021833
0.0219218
0.0989389
4.1439
1.53242
0.0222797
0.329747
0.0219481
4.76661
0.0450588
0.0469564
0.0347108
0.25722
0.0217521
0.0220597
0.0438021
0.0219131
0.0220532
0.0592814
1.31552
0.0216373
0.186572
1.59226
0.0242261
1.8575
1.67177
0.0218237
0.0536118
0.0262715
0.0219956
0.0216239
0.1042
1.58646
6.00167
0.0219886
0.0220169
0.0216707
0.0242099
0.0228751
0.0238774
0.591972
0.0447208
0.0221517
3.89684
0.0287417
0.033954
0.0220141
19.6051
0.0234468
0.0219175
0.0838504
2.11108
0.0215918
0.0220506
0.021947
0.0248423
0.0217479
0.0360749
0.447408
0.022206
0.0948614
0.0227423
0.0219698
0.692261
3.20753
0.251807
0.0220745
0.0216044
3.901
0.0261264
0.550735
0.0215703
0.021916
6.9452
3.28907
0.0294671
0.0946951
0.0642745
0.0218956
0.0222717
0.0219571
4.34481
0.0220573
0.0222928
1.48676
0.0277769
0.28875
0.0333543
0.0219338
2.81053
0.0222682
0.0219202
0.0219483
0.0306949
3.20019
0.0221623
0.0219734
0.0219117
0.0219015
0.0219399
0.0219323
12.3838
0.0318081
0.0228717
0.02211
0.0318969
0.0600665
0.0256224
0.0288473
0.0222839
0.021664
0.023311
2.05682
1.82844
0.0230016
5.74171
0.0222157
0.0253496
1.00342
2.21537
0.0217819
0.0221808
0.353457
0.0502254
0.0219066
0.0222489
2.31132
0.0222682
0.0679336
0.0220097
0.644176
0.0222478
0.022277
0.0221269
0.030606
0.0220637
0.0246519
0.0263991
0.167772
0.0218636
0.0219949
0.0222498
0.0218883
0.0221129
0.0219455
0.0302929
0.0221112
0.0503644
1.60006
0.0422466
0.0622664
0.0222023
0.0217649
6.91697
4.72605
0.0216144
1.82119
7.86438
0.02161
0.0219689
0.0218807
0.0956366
0.0523386
2.44473
0.0218577
0.0250114
0.0218595
0.0223309
0.0222647
0.0861289
0.0220915
0.242124
0.022093
0.0586039
0.0218931
0.0231949
0.0219233
0.0360974
0.0617809
7.52037
3.51903
1.8879
0.046917
0.021918
3.02799
3.80397
0.0600134
0.0220123
0.0220848
1.98455
0.0218739
2.98379
0.0216313
0.0284138
0.0221547
0.0222699
0.0217895
6.39585
4.40336
2.7449
0.074025
5.55818
0.0219503
3.22179
11.5984
0.0222705
0.0221082
0.0217337
0.998645
0.0215673
6.81338
0.032792
0.136828
0.0222732
0.919998
7.93882
1.70106
0.0295829
0.0313707
0.0220409
19.967
0.0215512
0.617701
0.21003
0.0699378
10.5698
4.70077
0.0236719
0.0233716
0.0219483
0.0889934
6.92741
5.51365
0.0217476
3.88622
0.0252121
0.112036
0.126008
1.33335
1.35645
0.0216655
0.0261942
0.0295902
0.0238306
0.0235735
1.90286
0.0221973
12.217
0.0218128
0.0216451
0.077873
0.103617
0.76365
0.0225344
22.577
12.9106
0.67306
0.0271824
0.022233
0.0225388
0.022227
0.0219286
0.806381
0.464554
0.0221552
0.021928
0.0307036
1.72489
0.0258063
0.0219288
0.44786
0.0219397
0.022275
0.0215608
0.0581262
0.0220301
0.0244804
4.09619
0.0600191
0.0222842
4.1635
0.132967
0.0219357
0.0228074
0.0331676
0.0222624
0.021963
0.0217574
12.746
0.292385
0.022234
0.0346967
0.0368024
0.6441
0.0219666
3.5819
0.0218619
0.0217552
0.693794
0.227688
0.0640232
0.022066
0.0218955
6.09944
1.38057
0.284073
2.87796
0.0221028
0.0234609
0.0220145
8.60177
0.0243499
0.611886
0.0227796
0.0219319
0.0233226
0.0216932
0.0218753
0.0646669
0.0217859
3.47356
0.0218304
0.0222317
0.0215808
0.0244297
1.52292
2.65708
0.0505336
5.90799
0.0219786
0.0360748
0.0231078
7.10225
0.0218427
0.0216508
3.22357
0.0348675
0.0331406
0.0221117
0.193287
6.26423
2.52557
0.0221727
0.0348611
0.925484
0.0301647
0.848084
0.120185
0.080803
0.0217679
0.0226402
0.0598541
0.0781372
0.0219859
0.0912232
0.0217412
0.0221833
0.0222966
0.0217753
0.0219188
0.021992
0.8085
0.025612
0.0228473
0.045861
0.0217568
0.0219312
0.0378547
3.30793
0.087052
0.060579
1.77413
0.0222341
11.3189
0.0292906
5.67419
0.0619175
0.0222021
0.0220566
0.0232916
10.3723
1.73597
0.0504776
0.157443
0.0216614
0.0219295
0.0222483
0.0222014
8.21909
0.0253456
0.0219457
0.150253
0.296617
7.16022
0.0226621
2.97569
0.0568908
0.0394868
0.0308246
0.438799
0.244965
0.0222578
1.37815
0.241017
0.0392965
2.27458
0.0441265
0.0221625
0.0222638
0.0219221
0.0232143
0.0274406
20.8694
0.0491344
0.0218701
0.282772
0.0220028
4.37784
3.32184
0.0219546
29.0137
0.0218194
0.0217552
0.0220003
1.35639
14.2345
0.0472125
0.0316338
0.0217254
0.508692
0.0222313
0.030652
0.0220905
0.0221778
0.0218976
6.32588
0.0228571
0.0427895
0.028947
0.0222117
0.368659
0.131496
0.032683
0.0253764
0.0235525
1.71575
2.89418
0.0218926
0.0217711
0.0218914
0.0226044
6.45175
12.6535
0.203081
0.025668
0.0217914
10.7738
3.43438
0.0222236
23.5347
0.0217175
0.082714
12.8812
0.021748
6.74069
9.77267
0.124267
6.76024
6.63883
0.0218654
0.0227294
2.51636
1.41339
0.0226021
5.37927
0.0247759
0.0219189
0.022274
0.022991
0.0391604
0.0250042
0.329936
6.97978
0.242814
0.0346606
0.0220791
0.059956
2.17506
0.0217681
3.66832
0.0471934
0.0222201
0.0246448
0.0222417
0.0222396
0.0318034
2.31636
0.0223855
0.0217939
5.7309
1.36938
0.0682778
0.0222616
0.0550123
0.021932
0.0219309
4.76725
5.54822
0.0219204
0.0214946
2.89681
4.53285
0.0478838
0.022303
11.1357
0.0225906
0.0219263
0.0235687
0.0219314
0.0216551
0.0216286
10.4879
0.18021
0.0259457
1.59386
0.043927
1.35624
9.77729
1.94009
0.147868
0.0219553
0.0222389
0.0222472
0.0219922
0.0761249
0.0218811
0.114228
0.0288028
0.836094
0.0220459
1.41407
0.0369511
6.2437
0.0219244
1.76368
0.0289753
0.164543
0.243978
0.0307584
0.0216254
10.6597
0.0552472
1.20339
0.0216113
6.28973
0.022025
5.68862
0.492321
0.0439289
0.021926
0.022089
1.80338
7.14591
0.0307773
0.0215956
0.406817
0.0857584
0.0440875
3.39162
0.0801029
0.0219504
4.32835
0.0219244
0.0319809
0.0216316
6.98453
0.0216365
0.0232929
0.297501
3.59154
0.0222221
0.0663641
0.0239673
0.0802547
0.0218793
0.33166
0.0235543
0.0642765
0.0219662
0.0219848
1.89826
0.0278882
6.0227
4.6315
5.64223
0.0227989
0.0216513
0.0217669
0.0253699
0.0359538
0.0307162
5.27165
0.023376
0.228447
0.0421975
0.0222811
0.0219535
0.0673779
0.337841
9.35451
0.0219187
1.53357
0.0218626
6.59835
1.47687
0.0456556
0.0219971
0.0217357
0.0423175
1.31506
0.0242257
0.0222689
0.0234623
0.0439829
0.0227201
1.53672
2.09279
3.83565
0.0221562
0.0259848
12.0817
0.0221871
0.063315
0.0218123
0.797706
0.0366069
0.0219511
0.0437538
0.189383
0.0219262
2.24463
0.0219214
0.133104
0.255307
0.364057
0.339067
0.0221666
0.0222445
18.9518
0.0221909
0.0400118
0.0798267
0.0233886
0.0215423
11.2357
0.0251093
0.410622
0.0231453
0.0672786
0.022573
0.416333
0.0254093
0.0244658
2.66251
1.22339
0.0220886
0.0222731
0.166574
2.0878
1.94696
0.817352
0.0283675
0.021927
0.0218149
1.75064
0.0221383
6.73398
0.0984844
1.8557
0.0221071
0.0217238
0.0217973
0.0423827
0.0435015
3.66509
1.39451
0.85302
0.207254
0.0216107
2.54619
0.0230309
0.061354
0.0227419
0.0397119
0.0623144
0.0219299
0.0215804
0.0627773
0.0216426
0.0389103
0.0723859
3.39495
5.30568
0.0356587
1.68136
0.0217449
0.0216456
0.0220739
0.203807
0.0624387
0.0456863
0.112082
2.38704
0.0397319
0.156665
0.0218164
0.0221996
17.6666
0.0218998
0.290268
0.0214742
0.0218768
1.6614
0.348222
0.0218757
0.0786239
0.508605
4.64766
2.01807
0.0250168
0.0650098
0.0477668
2.79647
0.0220777
6.10047
6.50569
0.0238558
0.0251859
0.0216176
0.52654
0.0217474
0.0219848
1.37141
0.0222525
0.0215726
0.197644
0.0572383
1.3827
1.36178
3.29749
1.67179
0.0216415
0.0219192
0.0218827
0.0222055
5.58794
0.0220897
1.6749
0.0230131
5.69183
0.0246641
0.0221609
0.0216866
0.0222789
0.0304976
0.0220042
0.0215321
0.291762
0.0218297
0.0498331
0.0225226
7.49071
0.0247258
0.022079
0.0219256
0.0524163
0.0219054
0.0217637
0.0220881
0.0222149
0.0240379
0.0218707
0.0233762
0.031995
4.32747
6.45408
5.38756
2.45744
0.0217735
0.0220045
0.0219296
0.0214366
0.0219347
0.0217404
0.16047
0.0218738
0.0222519
0.0220684
0.0220415
0.0219427
8.53808
0.0237567
0.0219693
21.3939
0.0421322
0.0217157
9.44511
8.1338
0.0220185
0.452516
0.729867
0.0220684
0.0468118
0.0241261
0.0215638
0.0274568
0.0221171
0.0378523
0.0220121
0.0222476
0.0217518
29.5113
0.0273099
0.0462368
0.0220322
0.0222654
5.99882
0.026004
0.0220349
0.0237807
0.0240941
0.022252
0.24756
13.9873
1.02365
1.33872
0.234231
0.0377455
0.0222598
10.4073
0.159311
0.0227692
0.0590447
0.0222932
0.0219102
0.0222466
1.97571
0.0467159
0.0219965
0.0220403
0.176225
0.0217355
0.454854
0.0219842
1.9144
0.22035
1.1304
0.0220797
0.0233147
0.0322485
0.0357143
0.0222786
0.0391825
0.0899844
1.38943
0.0220379
0.507211
11.0259
0.0215763
1.78002
0.0439185
0.343864
0.105348
0.0219244
0.0278208
0.0396485
0.0216897
0.0248279
0.0215497
1.75734
1.54952
0.0327944
0.0218278
0.149131
0.0765943
2.79555
0.280591
0.0233486
0.0274187
0.0219493
0.0219518
0.0396934
0.0529138
21.7003
0.0218252
0.463354
0.0226836
9.63677
0.175133
2.49198
0.0216068
0.0230335
1.99922
1.81095
0.043243
1.86985
0.022711
0.245059
0.0219122
0.0218711
2.53749
0.271974
0.024245
0.0220935
0.0764268
2.18292
0.197285
0.0672243
0.0217785
0.0220123
0.0217202
2.36086
5.90298
0.021763
0.0438357
1.56233
0.0733792
0.277229
1.55755
6.18499
2.32692
0.0217792
0.0226353
1.50166
0.0218922
0.0498217
1.59299
11.4247
0.0235163
0.0306352
4.76277
0.636142
2.04785
7.09973
1.60622
1.33979
0.0221109
0.0216294
0.0219918
0.0224589
24.4537
0.0559145
0.386104
0.455541
0.057724
0.021932
0.20748
0.021707
0.0296818
0.0219201
0.0411598
8.55541
1.76379
0.0220712
0.0216099
0.0361924
2.80181
0.184359
8.61032
0.0454955
0.0220802
0.0843453
0.0214725
0.0981026
0.0324748
0.0219216
2.86001
0.176078
0.487122
0.0574246
0.0222624
0.0215912
4.76494
0.0254333
0.0216284
0.0221451
0.0222561
0.0216878
5.72683
7.28438
1.88392
1.41216
7.31889
0.0236186
0.0219455
1.99224
0.0240126
0.0807956
6.69516
0.0218659
7.29835
2.8407
0.059386
0.0340593
0.812745
0.0231521
1.77148
0.0373682
1.86946
0.0218319
0.0229028
0.0411107
3.24529
0.113328
0.0692528
5.39185
2.19119
0.0731561
0.153702
3.31354
0.0240763
0.36459
19.4625
0.0358816
0.0637074
3.37275
0.0309233
0.0370876
0.0221034
0.035992
0.0380448
0.0559461
0.0220879
8.75581
0.166538
1.67221
5.55146
2.09181
0.0399333
1.59929
8.9246
0.0218464
0.2421
3.8404
5.19914
0.0278494
0.024419
1.37855
6.69874
0.0216192
0.24955
0.021755
0.0219078
4.13122
0.0256476
2.18253
1.37532
1.91248
6.66694
0.0216273
0.034335
0.0220054
0.0218435
0.113175
0.0562988
0.0261127
2.76734
1.75035
0.0222732
0.0257294
1.36357
0.0232134
0.408534
0.0487742
1.37544
1.36978
0.360049
10.0049
7.52473
1.72861
1.38213
1.63687
0.0293202
0.0253626
0.118707
0.121706
1.53778
6.08759
0.0221321
0.0227501
6.40597
2.22632
0.0242563
5.41966
0.0219437
0.825708
5.62176
4.79825
0.0219214
1.52132
1.57571
0.0267936
0.0347642
7.44308
6.67893
5.46189
4.84334
0.0220132
4.57665
1.52365
0.0413216
0.223943
0.110281
0.0217377
0.0263181
3.3027
2.35296
0.0243559
0.0221717
1.33336
0.0849282
1.73857
0.0734636
2.24409
1.40865
0.0219921
11.1989
0.0222852
0.0291616
0.0220979
0.0218822
0.0217079
0.0368727
0.283773
0.0214989
14.3306
0.0693002
3.37186
9.41149
1.91984
0.0219078
5.50785
1.53776
1.91215
0.0344619
0.0219294
2.77752
0.396761
2.03605
0.0565156
0.0235842
0.0216916
3.24037
5.71281
0.0335621
14.5585
0.0314923
0.022218
1.31056
0.0553004
19.6702
0.021897
0.0279843
1.57312
5.35182
1.39377
0.194909
1.37721
1.61136
2.9197
0.0220466
8.92922
0.0480239
0.021852
0.0215636
0.0219488
5.46509
0.0502961
1.38429
1.45363
0.0343547
0.159926
0.0748623
2.56288
0.271506
7.60727
5.45502
1.30511
0.0898334
0.0216562
0.311686
0.0568172
0.0974586
1.30751
2.98346
1.68747
0.0220948
0.0239442
0.0488102
0.0220588
0.0219481
0.0275633
1.40687
0.0272934
0.0245846
1.28943
0.0701009
0.274588
3.37526
1.44355
0.431337
1.86016
5.35135
2.15708
0.0632824
0.0306321
0.0221429
1.31312
0.10613
0.217266
0.0642694
0.0619353
0.0214549
0.17249
6.46482
0.0256211
0.0215924
0.0229035
2.11653
0.0218755
0.0220246
0.0619868
1.45276
0.027287
0.0549941
0.181669
0.0308064
0.0579372
0.021882
0.021979
0.0407278
0.209713
0.0222812
0.0310056
0.27841
6.53353
0.022159
12.4202
0.0218821
1.44238
0.0233508
0.023515
0.0215587
0.176302
0.0325758
5.95052
13.8667
0.0696105
0.0221621
0.0219234
7.51447
1.74176
0.0218113
0.242683
1.50186
0.0519234
0.079323
0.0214355
0.0226867
0.021927
1.32704
0.0416013
0.0220495
8.39506
0.0223927
0.0590697
0.239402
0.0217391
0.0972787
0.0594273
19.5449
0.0224627
0.0264282
0.0235167
0.0538261
0.0214108
0.0219075
6.29349
0.317095
0.0738066
0.0219626
1.79618
0.0224125
0.0223945
0.0219571
0.45326
8.23759
0.0236261
11.2851
1.20065
0.0635162
2.81754
2.44073
5.8221
4.17569
0.0513135
0.0613245
0.213041
0.0474369
0.02195
0.0304502
0.0287348
9.87996
0.0220785
4.05226
0.0219795
0.416687
0.0902738
0.0227805
0.0231905
5.93281
14.2718
5.16004
1.47719
0.0218136
0.0648986
5.49623
0.025481
8.61337
0.0411745
0.110114
1.54629
0.0316332
0.0219918
0.123041
0.146526
0.0219264
1.40499
0.652405
0.0217138
0.0222397
0.0221213
0.0220083
7.89829
0.021963
0.0468683
0.022024
0.0222744
0.0327993
0.0219423
1.33764
0.0822326
0.0221651
0.0216337
0.108564
0.0231648
0.0564363
7.05248
5.35705
0.0530621
0.255673
0.0410255
0.0216
0.132651
12.3901
0.0377678
1.37596
3.75094
0.0765325
0.0383899
0.0267351
0.0659523
0.0380653
7.55449
0.0221133
0.0221634
0.0218092
2.48681
7.68505
0.0360918
0.0894648
0.0218595
0.0256539
0.0991813
0.25463
0.0219387
0.0598188
1.76371
0.0896981
0.0219913
0.0219477
20.7515
5.96696
0.0219363
0.535451
0.0292519
0.191556
0.219841
0.0218641
2.8081
0.0281659
0.0220246
1.92277
0.196476
0.0219249
0.0221625
0.247151
0.0217846
0.0220397
0.130902
0.042492
0.0463614
6.94804
0.0249879
0.0395338
1.69321
0.0218444
8.87779
5.81801
0.0248404
0.0567432
0.167356
0.0219822
0.152677
0.0214731
1.93074
1.50975
0.0220018
2.93697
9.19636
0.0219601
0.0219478
0.585079
0.0357991
1.43327
1.4202
0.0220953
0.0423651
5.49135
0.0225065
0.046775
0.0667868
0.0339039
2.0806
0.18209
0.0230642
0.217733
3.32284
0.0462026
3.63195
0.0219105
0.0215563
0.0222676
0.0428185
5.87949
0.0220657
0.0314343
14.0911
2.72864
0.0222181
0.0295485
1.97777
1.4157
0.0222251
9.25823
0.0329322
0.0856135
0.0336597
0.0230691
0.0256212
0.02198
0.0219625
6.31438
0.0219329
0.0529748
0.0219812
7.19258
0.023049
0.0235737
0.0215967
0.023553
0.0219801
0.0405999
5.55112
0.330979
0.0374058
0.0430008
0.0219668
0.031864
0.0504723
2.44703
5.994
0.0218312
0.804913
0.0220223
2.2733
1.2918
5.50292
0.0218288
0.107273
0.0688976
7.62018
0.239376
0.0218652
2.92709
0.330741
0.0382887
0.629054
0.0221282
0.0220079
0.0395441
3.80957
0.0219343
5.11422
0.0343749
2.08182
0.0924839
0.0224384
2.09163
0.0279658
0.0221445
0.238371
0.0219329
2.73323
10.6342
0.145073
0.0277708
0.157032
0.0219437
0.100143
0.043333
8.65154
0.0220361
0.0216275
0.0267425
0.0292355
0.0417177
1.77977
2.68713
0.0362823
0.232176
0.0218197
3.23721
2.63138
0.180155
0.0219291
0.0222605
0.022928
1.91044
0.0220814
0.0257801
1.90037
0.0789263
0.0219989
0.276431
0.0748891
0.0219866
0.0249739
0.116801
1.56403
0.0687238
0.0425102
1.88154
1.35823
0.250882
0.0265726
0.0221384
0.0242643
0.0248323
0.135993
0.0552339
0.0267158
0.0735056
7.82162
0.0242159
0.0219965
5.37623
0.287669
1.53661
0.165296
0.0256414
0.0238306
0.0236249
0.0217731
0.0219079
0.0417591
0.0215577
0.0229915
0.0220288
0.0229254
0.0235344
0.0219487
0.0388441
0.0340422
0.0220417
0.0219374
0.0221193
0.0227877
0.0223673
0.252346
0.0220584
0.0235155
1.45147
0.0216959
0.0232009
0.0222755
0.0265382
5.35187
11.8889
2.45435
3.17718
3.47502
0.186425
0.0218794
0.057141
0.0220149
0.471631
0.0228766
0.0293894
0.022199
0.0523311
0.0219566
0.0300237
0.0217898
1.83272
0.159102
0.0220785
6.58386
3.19704
0.0220932
0.081863
0.0219491
0.021602
7.37402
0.0220719
0.0631456
0.186528
0.0221051
0.0215624
0.0701455
1.55902
0.0251755
0.0231896
1.3641
0.0219414
4.08196
0.0485
7.47266
0.0216771
1.45903
0.021941
0.0221909
0.215133
0.0563984
2.4848
1.64387
7.02038
1.94512
0.139584
0.133754
0.0220461
0.116443
0.02198
0.0218227
0.0949577
0.0219105
0.0219842
0.02161
0.0216188
0.0530739
3.39592
1.4026
0.382295
3.03517
0.0233013
0.0305519
0.0226501
0.0227548
0.0712288
0.0220574
0.0217425
0.0218207
0.0234299
0.0232346
0.198699
0.0755588
0.0447438
0.0221088
0.0551911
0.0564647
2.07953
5.85314
0.0244796
0.0377586
0.0220887
11.2811
1.38938
0.0219237
0.0219326
0.0242625
0.0222132
0.245338
0.250294
5.38694
0.0221476
3.72923
0.0221189
2.65265
0.0486985
0.0218119
0.0277895
0.853912
0.0270849
0.0275214
0.0288126
0.0784988
5.22218
0.0217741
0.0219144
0.027942
0.137249
0.0218837
1.90725
2.84467
0.0219727
0.0214293
6.35509
0.061002
0.0219296
4.7358
14.9092
1.96584
1.71977
0.0270912
1.91247
0.022071
5.36356
2.09898
0.846841
0.0605579
0.0237521
5.73505
0.0248806
0.0218689
0.0214534
0.169323
0.0216412
2.35549
0.0225092
0.0221848
0.0251027
1.40947
0.0236849
0.0227485
0.0220737
9.87123
3.76326
10.4834
1.48177
0.039162
0.0219356
0.0242511
0.183196
0.110882
0.0219864
0.0468999
0.152221
1.4027
0.0219215
3.53507
5.44995
0.0354665
0.0220631
0.0236226
0.0219527
0.0217362
0.0219412
0.0220308
0.0221489
0.0983501
0.0220953
0.106675
0.0226239
0.0226837
5.40728
0.0643158
0.0231272
0.0227552
2.07988
0.0215653
0.0229264
0.0259085
0.0218162
0.442894
0.029694
0.0227331
0.0447778
0.0219609
0.0266575
0.0218421
0.130641
0.021826
0.0219298
6.3769
0.023193
0.16376
0.0320439
0.0238544
0.0762592
0.0214139
0.0220878
0.0226414
6.89218
0.0234592
0.0219268
1.91806
0.0220036
0.0216295
0.0218835
0.597305
0.032225
0.115448
0.0337583
0.0308837
0.0503752
0.0237096
0.0269357
0.0480478
2.20907
0.0222841
0.0281618
0.02181
0.252748
0.189831
0.0219042
0.0272921
2.03418
0.0300525
0.0215552
9.22578
0.025713
0.0826134
2.27235
0.0273859
0.0219207
0.028843
0.0219273
0.023754
0.021904
0.0232986
0.0257912
0.0219698
0.0220682
0.0320971
0.0221854
0.0877788
0.0218948
0.0237981
0.0219534
0.0278328
1.46348
0.0220863
0.0219595
0.103048
0.022884
0.0219605
0.208805
8.25612
2.78372
0.0220845
0.0242969
0.0326449
0.0222449
0.0221253
0.0323493
0.192524
0.0215397
0.0534486
0.0219794
0.0218908
0.0217519
0.0215316
0.0226462
0.0415565
0.0325416
0.0261122
1.57896
0.0239493
0.0279114
0.0217272
1.68685
0.460046
1.87521
0.0220637
0.0453201
0.027817
0.02204
0.0221201
0.0414506
1.42669
2.27972
0.0219113
0.0267366
10.529
0.0228114
0.172085
4.13678
1.51323
0.0281206
0.0220062
0.0375219
0.0418403
0.137069
10.7072
6.5089
1.46534
0.0226055
0.022174
0.0219467
0.0995836
0.0219079
0.0216931
0.0361018
0.0219348
0.0218616
0.0218771
0.0528405
0.0219374
0.0217803
0.0219693
2.31436
0.0215537
0.0220442
0.0221066
0.0224677
0.0219385
0.0727833
0.0648385
3.31646
0.0215991
0.0280815
0.0997586
5.89524
2.36718
0.0222486
0.0222753
0.0520619
0.0971557
0.0257371
0.372276
0.0219339
1.0518
0.0222782
1.35856
0.0227764
0.0219379
0.0414589
0.0219582
0.0219621
0.0227297
0.703607
0.0243001
0.0224871
0.0221785
0.0219771
0.038021
0.0219665
0.0219161
0.0255831
0.102793
0.0240764
0.0218807
1.36357
7.5161
0.022009
0.296752
0.0221433
0.0280767
0.0730407
0.194365
0.0233532
0.0229672
0.0220886
0.277045
0.0281123
0.0221264
0.0219136
0.0232214
0.151412
0.0220723
0.0327185
0.0237351
0.0353233
0.0513275
0.0361469
0.0890284
3.52607
0.0248771
0.022038
6.84308
0.287811
0.0219305
0.0214943
0.0220645
0.0219812
0.0219313
0.0238029
0.02168
0.0220794
3.1911
1.41163
0.0301757
0.0219544
3.30403
0.0237017
0.0217046
6.62201
0.023405
0.0216551
0.0220947
0.0220368
0.0341208
0.0220758
0.054622
0.0219282
0.0217847
0.0219605
0.0311991
0.0342499
0.0218939
0.0537503
1.40304
0.0232293
0.0218967
0.0614867
0.02172
0.0220198
0.0218697
0.0290164
0.0220516
5.34722
0.0223607
0.242814
3.1219
0.0545369
0.023065
0.0221981
0.0220641
0.0219403
0.0291705
0.150604
0.110326
0.0218156
0.0239406
5.65336
0.0215987
0.170308
0.0219624
0.0229402
0.0303639
0.062056
0.0219547
0.0313702
0.0280996
0.0585
1.304
10.0569
0.0218639
0.0219258
0.0328604
0.0226286
0.0226628
0.0481643
0.022574
0.0915914
0.0217848
0.07005
0.0221063
0.0820739
0.0555643
1.36981
5.57257
0.02192
0.0374245
0.93876
0.196575
0.0216027
0.0218022
0.121764
0.021944
0.0219179
0.0217496
0.0215214
0.0711349
0.0685609
20.7963
0.0220193
0.0415767
0.0222551
0.0215947
0.0230088
1.63053
0.144354
0.0219418
0.0221411
0.0218504
7.65423
0.0220149
0.0219451
0.0224971
0.0219605
0.0434918
0.0218343
1.75157
0.0219829
0.0224707
0.022278
0.0219284
0.0217499
0.0220051
11.5436
0.0217851
0.0219597
0.224088
0.0218803
0.0220438
0.0221117
0.0221561
0.0521504
0.0219317
0.0219737
2.48198
0.0232679
0.022038
0.0222819
0.0215459
1.43853
0.0230377
0.0222427
0.0219265
0.0254348
0.0219657
2.17989
0.0217963
0.0220087
8.49724
0.0219767
0.060593
0.0222045
0.0214188
0.021523
0.0308969
0.037098
0.0218698
0.0222862
0.0236367
0.0219168
0.0221108
0.0221213
0.0218673
0.0217708
0.0218442
3.09249
0.0219561
0.0218501
1.91518
0.0219582
0.0263152
0.118611
1.44728
0.0218287
0.0220938
0.0219575
0.0216434
0.0230085
0.0380399
0.0239827
0.034263
0.0217804
0.0247868
0.0220118
0.0214805
0.0266905
0.0573801
0.0235863
0.0274183
0.0220255
0.0219564
0.0221203
2.19195
0.0232087
0.0220097
4.90134
0.0227703
2.61133
0.0220642
0.021932
0.021744
1.39792
0.0219669
0.0248988
0.0227552
0.0220734
0.0219666
0.0220887
0.0219885
0.0238846
0.0219236
0.039162
0.0222481
0.0377916
0.0215219
0.021639
0.0235674
8.83247
0.0221487
0.0220494
0.0226362
0.0219383
0.0237302
1.65538
0.0227945
0.027233
1.836
0.312174
0.0227558
0.0225791
0.126837
0.0851911
0.0229343
0.0221148
0.0218788
1.83058
0.0225121
7.98872
0.0216972
0.0215455
0.0221048
0.0219278
0.0232674
0.0215915
0.0219877
0.0222653
0.056513
0.0238915
0.0224336
0.0216351
0.352785
0.0600685
0.0215213
0.0221046
0.0235425
0.0222393
0.0220586
0.0215974
1.31396
0.0216105
0.0219587
0.0670487
0.0215871
2.12775
0.0218238
0.0401289
0.0261208
0.0219692
0.0215494
0.0219276
0.0221591
0.0220446
0.0218064
0.0216256
0.624843
1.51203
1.77676
0.0216189
2.14988
0.022004
0.0530088
0.0219272
0.0219287
0.0221091
6.13238
0.0219488
0.0219161
0.0221261
0.0219991
0.397056
0.021945
1.67328
0.0214556
0.0224008
2.58711
5.54184
0.0219827
0.0219579
0.0263907
0.0220145
0.138451
0.0217561
0.442652
0.0217799
0.0350698
0.0221394
0.0218222
0.0219444
0.0219942
0.0232515
0.0219063
0.0297767
0.0327893
0.1198
0.0217683
2.91472
0.0219004
12.8729
0.0219192
5.92249
0.86295
0.0217531
0.0219169
0.0216065
0.0218905
0.0220439
0.0220301
0.0215949
0.0224036
0.0214484
0.0851249
0.0221108
1.40469
0.0215866
0.021545
0.0219297
0.0219282
0.0225327
1.85584
0.0228177
3.80615
0.0215685
0.0221189
0.032735
0.021591
0.135252
0.0230537
0.0219327
0.0387982
0.0215124
0.0219717
0.0224002
0.02172
0.0287921
0.0393441
0.0216433
0.0221126
0.022046
8.67263
0.0235188
0.0216067
5.37203
0.0498264
0.0216332
0.0219183
0.148806
0.022656
0.0214477
0.841652
0.217936
0.0226654
0.0214548
0.0222401
0.0348779
0.0215755
0.187072
0.0216251
0.0216863
0.0399243
0.0518357
0.0216192
0.0216215
0.0215329
0.0217402
0.0217529
0.0414436
0.0219673
0.0217586
0.0221112
0.0218476
3.31046
0.0222722
1.65136
0.0257302
0.0271685
0.0221422
1.65429
0.0219078
1.5918
0.0215583
0.0219582
0.473559
0.0219731
0.0227701
0.0216642
0.0247587
0.0217106
0.0263057
0.0215907
3.24602
0.0222073
0.0215936
0.0215465
0.0215819
0.0998645
0.0217954
4.4209
0.0219178
0.0248321
0.0215063
0.0220151
0.182667
0.0219987
0.108854
0.0218227
0.0230469
0.0221811
0.0221333
0.0224144
0.0219411
0.0219797
0.263475
0.0215797
0.0219449
0.0226008
0.0220566
0.0220537
0.0321099
0.0218808
0.0219184
0.0218676
0.0216308
0.0217666
0.0219936
8.38933
0.188419
0.823361
0.0214434
0.0233446
0.0221259
0.0260158
0.116186
0.228916
0.0312388
0.0215788
0.0219788
0.0219656
0.022144
0.0221147
0.0219128
1.40706
0.0504273
0.0219275
0.164792
0.0221371
5.87287
0.02196
0.0218953
0.0218077
0.0215854
0.0214889
0.0218396
0.0216677
0.0218103
0.0422264
0.0230871
0.021929
1.70641
0.0215734
0.0225845
0.0219838