/*--------------------------------*- C++ -*----------------------------------*\
| =========                 |                                                 |
| \\      /  F ield         | OpenFOAM: The Open Source CFD Toolbox           |
|  \\    /   O peration     | Version:  v2012                                 |
|   \\  /    A nd           | Website:  www.openfoam.com                      |
|    \\/     M anipulation  |                                                 |
\*---------------------------------------------------------------------------*/
FoamFile
{
    version     2.0;
    format      ascii;
    class       surfaceVectorField;
    location    "350";
    object      Uf;
}
// * * * * * * * * * * * * * * * * * * * * * * * * * * * * * * * * * * * * * //

dimensions      [0 1 -1 0 0 0 0];


internalField   nonuniform List<vector> 
14470
(
(0.961816 -0.0200918 -2.52836e-22)
(0.959878 -0.0200784 -4.85607e-21)
(0.961064 -0.0180267 -3.03209e-21)
(-0.0439241 -0.020909 -7.45036e-20)
(-0.0470411 -0.0216613 1.80057e-19)
(0.992033 -0.00630525 -6.34161e-21)
(0.992431 -0.00674293 -9.29482e-23)
(0.991774 -0.00700838 2.06691e-21)
(-0.0423842 -0.0323179 -1.99682e-20)
(-0.0365784 -0.0360327 1.78523e-20)
(-0.0385407 -0.0270965 -2.40071e-20)
(0.999963 -0.000805195 -8.17935e-21)
(0.999958 -0.000786154 6.61349e-21)
(0.999929 -0.00107701 -1.69923e-20)
(1.24221 -0.0103289 6.72949e-20)
(1.25012 -0.00779554 3.64863e-20)
(1.24766 -0.0162928 7.57986e-20)
(1.133 -0.23976 0)
(1.13826 -0.228622 -2.12181e-20)
(1.14906 -0.238155 -3.61124e-20)
(-0.0673064 0.0192804 -7.05391e-20)
(-0.0509708 0.0252528 9.0226e-20)
(-0.12181 0.020046 -6.92366e-20)
(1.023 -0.0391791 0)
(1.02448 -0.0400106 0)
(1.0228 -0.0409542 -1.46186e-20)
(1.00013 -0.00270727 0)
(1.0001 -0.00252111 1.03116e-20)
(1.00012 -0.0025051 0)
(1.0001 -0.0029062 1.13631e-20)
(1.00017 -0.00291203 1.10805e-21)
(1.00278 -0.00944068 -1.86155e-20)
(1.00267 -0.00901882 4.82392e-21)
(1.00246 -0.009304 -1.04633e-20)
(-0.168319 0.0418579 2.93906e-20)
(-0.172269 0.0364515 -6.23328e-21)
(-0.177735 0.0401489 -4.99033e-21)
(1.02121 -0.0249167 2.40616e-20)
(1.02065 -0.0239955 -8.04742e-21)
(1.02192 -0.0240493 2.25742e-20)
(1.05886 0.00158112 -3.82954e-21)
(1.05996 0.00286505 7.489e-20)
(1.05798 0.00299346 2.33022e-20)
(1.14751 -0.0582607 -1.53668e-20)
(1.15439 -0.0601775 2.15344e-21)
(1.14988 -0.0658707 -5.61825e-21)
(0.994454 -0.00877555 -8.23586e-21)
(0.994432 -0.00923532 -6.7544e-21)
(0.994929 -0.00897068 4.10038e-21)
(-0.0339718 -0.137247 3.33006e-20)
(-0.0346861 -0.14097 0)
(-0.0403041 -0.150138 0)
(1.01909 -0.00585573 0)
(1.01904 -0.00542112 -2.06162e-20)
(1.01945 -0.00565288 8.09093e-21)
(1.02447 -0.0110271 -1.3692e-20)
(1.02517 -0.0107931 2.16108e-20)
(1.02441 -0.0103938 2.21243e-20)
(0.999988 -0.000292492 0)
(0.99999 -0.0003036 0)
(-0.0538382 0.024759 -3.5509e-20)
(-0.0485174 0.0330905 -8.88111e-20)
(-0.0433026 0.0194765 1.32967e-20)
(-0.0240111 0.0141691 2.07349e-20)
(-0.10015 0.0151936 1.16027e-19)
(-0.158201 0.0434158 -1.22077e-21)
(-0.162699 0.0457038 2.97018e-20)
(0.919881 -0.0680229 -2.96288e-21)
(0.924922 -0.066548 -3.92723e-21)
(0.92046 -0.0621399 -1.40972e-21)
(1.00021 -0.00466426 2.70373e-24)
(1.00031 -0.00484382 0)
(1.0003 -0.00456529 0)
(1.00003 -0.000523524 -4.23827e-21)
(1.00004 -0.000601644 -1.39979e-20)
(1.00007 -0.000744812 1.62547e-20)
(1.0188 -0.0059898 -1.25252e-20)
(1.01917 -0.00624349 -3.32525e-20)
(1.17658 -0.135542 0)
(1.185 -0.133176 0)
(1.18322 -0.143273 0)
(-0.318799 -0.0127435 -8.72133e-20)
(-0.320615 -0.0124928 -4.36211e-20)
(-0.358648 -0.0114541 -2.61709e-19)
(1.29232 -0.024244 -7.91247e-20)
(1.28334 -0.0265141 9.40462e-20)
(1.29099 -0.0344537 5.64204e-20)
(0.996665 -0.00449141 8.60207e-22)
(0.996472 -0.00421686 0)
(0.996306 -0.00456312 0)
(0.997578 -0.00903193 1.72043e-21)
(0.997336 -0.00941586 3.7666e-21)
(0.997759 -0.00947324 -8.00803e-21)
(1.00608 -0.000638849 2.70546e-21)
(1.0058 -0.000630072 -5.40011e-21)
(1.00568 -0.000360974 -1.08567e-20)
(1.0842 -0.023895 -2.92728e-20)
(1.08335 -0.0264209 -2.5591e-20)
(1.08611 -0.0252191 -2.30643e-20)
(1.05701 -0.00363944 -1.67231e-20)
(1.05696 -0.00511439 -2.3124e-20)
(1.05561 -0.00454877 8.0101e-21)
(0.913115 -0.00368792 -5.35577e-21)
(0.909485 -0.0022491 1.04419e-21)
(0.910311 -0.00721385 -1.30809e-20)
(-0.0963455 -0.050216 3.84238e-20)
(-0.0960206 -0.0539453 0)
(-0.0857263 -0.0566774 -3.67857e-20)
(1.0882 -0.0723984 3.6441e-20)
(1.08398 -0.0706397 1.13882e-20)
(1.08769 -0.0675463 1.52488e-20)
(1.16718 -0.139274 4.54221e-20)
(1.16866 -0.129759 3.519e-20)
(1.26701 0.0552376 7.39898e-20)
(1.26333 0.0510995 -1.22877e-19)
(1.14682 0.0630675 5.99781e-20)
(-0.0908623 -0.000853576 1.72613e-20)
(-0.073427 0.0184655 -4.81264e-20)
(-0.124762 0.00605954 -5.18476e-20)
(1.00001 -0.000337602 -2.35836e-20)
(1.00003 -0.000494257 -1.87093e-20)
(0.992026 -0.000308954 -6.45373e-21)
(0.99157 -0.000501698 -1.96103e-21)
(0.991581 9.15521e-05 8.37256e-21)
(0.996226 -0.00104098 -1.60239e-21)
(0.996534 -0.00126892 5.16172e-21)
(0.996462 -0.000900384 -1.21366e-21)
(-0.284095 0.0162145 2.2478e-21)
(-0.289276 0.0139596 -8.16673e-20)
(-0.259453 0.021266 7.15238e-20)
(0.999998 -0.000645507 -8.97034e-21)
(1.00002 -0.000328406 -1.50553e-20)
(1.00002 -0.000320388 2.85404e-21)
(1.03247 -0.00925021 0)
(1.03212 -0.00860928 0)
(1.03306 -0.0087734 0)
(0.994518 -0.00815954 -7.69586e-21)
(0.993963 -0.00847349 5.84619e-21)
(1.08547 -0.0205542 -2.88218e-20)
(1.08206 -0.0218207 2.55696e-20)
(1.00632 -0.000884788 1.24604e-20)
(1.0064 -0.000591659 1.16739e-20)
(1.11015 -0.0398868 3.89851e-20)
(1.11414 -0.042421 -5.2629e-20)
(1.11305 -0.0371616 6.43286e-21)
(1.00002 -0.000943433 -1.39141e-20)
(1 -0.000989806 8.22125e-21)
(0.901418 -0.128703 0)
(0.910943 -0.12657 4.87668e-22)
(0.908719 -0.137161 -2.44838e-21)
(-0.049399 -0.0386394 9.46073e-20)
(-0.0527005 -0.0283037 -1.21508e-20)
(1.00296 -0.00859845 -5.03192e-22)
(1.00284 -0.00820589 0)
(1.00314 -0.00837652 -2.12169e-21)
(1.16613 0.033636 0)
(1.16501 0.0396672 2.85136e-21)
(1.16025 0.0359796 0)
(1.03195 -0.00957554 -3.32023e-20)
(1.03279 -0.00977496 0)
(1.00001 -0.000342028 1.05406e-20)
(0.899384 -0.0268661 -5.94671e-21)
(0.893822 -0.0256993 -3.04448e-21)
(0.898289 -0.0210323 1.33582e-21)
(0.839889 -0.343031 -1.47479e-21)
(0.858815 -0.351677 -1.06728e-21)
(0.833912 -0.374308 -7.59187e-22)
(0.99392 -0.00689108 6.53259e-21)
(0.993601 -0.00653195 -1.0808e-22)
(0.994149 -0.00640023 8.55817e-21)
(1.08896 0.0110003 0)
(1.08909 0.0070827 8.6523e-20)
(1.08547 0.00954418 -2.60106e-20)
(1.00323 -0.00131302 1.09833e-20)
(1.00341 -0.00122179 1.24138e-20)
(1.00345 -0.00147317 -8.84434e-21)
(1.02163 -0.0383614 9.92604e-21)
(1.02302 -0.0376674 1.86176e-20)
(-0.305358 -0.000268776 9.9082e-20)
(-0.296822 -0.000638837 0)
(1.05779 -0.0439293 4.69072e-20)
(1.05556 -0.0444635 1.37636e-20)
(1.0574 -0.0465105 3.01935e-20)
(1.05704 -0.00234669 0)
(1.05674 -0.000884765 0)
(1.0555 -0.0019161 0)
(0.106456 -0.0390428 -2.61364e-20)
(0.14582 -0.0241847 5.32079e-20)
(0.152971 -0.0222306 4.38971e-20)
(0.978397 -0.0122206 0)
(0.977084 -0.0120066 0)
(0.978204 -0.010983 0)
(0.592831 0.00299952 -5.26005e-20)
(0.572833 0.0154277 -1.46912e-20)
(0.572409 -0.0124653 -5.31539e-20)
(-0.158765 0.0271055 5.84813e-20)
(-0.105431 0.0304345 -1.40656e-21)
(-0.157017 0.0317142 -6.11382e-20)
(0.999701 0.266588 -1.56221e-21)
(0.942904 0.282282 -7.56798e-20)
(1.00434 0.272639 5.01631e-20)
(0.366582 0.0262819 3.67766e-20)
(0.280015 0.0139621 -2.05838e-21)
(0.369544 0.0292168 -4.09948e-20)
(1 -0.000874965 0)
(0.999995 -0.000951684 -1.95186e-20)
(1.00004 -0.00120127 0)
(0.794971 -0.150207 1.48761e-20)
(0.810464 -0.1567 -2.3555e-20)
(0.807022 -0.140424 -3.2701e-20)
(1.15202 0.013818 1.23262e-19)
(0.998954 0.0237025 1.05739e-19)
(1.0022 0.0164435 -7.56998e-20)
(0.994518 -0.0037075 -3.73616e-21)
(0.994302 -0.00405338 -6.88499e-22)
(0.994763 -0.00401692 4.40322e-21)
(0.999978 -0.000877107 -1.11324e-20)
(0.99998 -0.000874561 8.63692e-21)
(0.999987 -0.000590559 5.10506e-22)
(0.784833 -0.157029 2.25664e-20)
(0.782506 -0.139902 -1.11014e-20)
(-0.0366727 -0.131016 3.35655e-20)
(-0.0278183 -0.125518 -7.05429e-20)
(1.1415 -0.0575239 -3.12496e-20)
(1.14541 -0.0523343 8.93658e-22)
(0.981836 -0.075667 2.56209e-21)
(0.985206 -0.0770049 -4.11813e-22)
(0.985306 -0.0732914 0)
(1.05851 -0.00273625 0)
(1.28552 -0.143874 -8.19444e-20)
(1.27882 -0.1536 -6.78658e-21)
(1.27436 -0.141391 4.0909e-20)
(0.999971 -0.000883266 -4.7771e-21)
(0.999947 -0.00115986 -7.96399e-21)
(1.11954 0.0577277 8.6332e-20)
(1.11563 0.0523015 -2.56302e-20)
(1.11262 0.0579556 1.07033e-19)
(-0.096397 -0.0460433 1.27506e-20)
(-0.106831 -0.0441423 -2.92974e-20)
(0.834696 -0.321753 0)
(0.811174 -0.343646 1.66592e-20)
(-0.0721868 0.0122774 -1.43124e-20)
(-0.0625809 0.00949372 -2.67657e-20)
(-0.0674055 0.00161642 7.94389e-21)
(1.37282 -0.178249 1.18504e-19)
(1.36379 -0.165144 -2.83996e-20)
(1.39298 -0.169519 7.47863e-20)
(1.39028 -0.194458 2.94341e-20)
(1.35646 -0.187392 -5.64104e-21)
(1.09714 -0.120355 9.41321e-21)
(1.10397 -0.126121 -1.77129e-20)
(1.10402 -0.117168 2.24293e-20)
(-0.09777 -0.0292383 -3.68296e-20)
(-0.054307 -0.00827724 7.43389e-20)
(0.996072 -0.0123584 3.67591e-21)
(0.996267 -0.0129651 -1.94967e-20)
(0.996636 -0.0123614 3.66003e-21)
(0.367294 0.0331433 1.18962e-20)
(0.479292 0.0419957 -3.42643e-21)
(1.14703 -0.0840811 -7.63448e-20)
(1.14179 -0.088069 6.26289e-20)
(1.14094 -0.0809022 9.5042e-20)
(1.04585 -0.0658119 2.78908e-20)
(1.04882 -0.0667169 4.80777e-20)
(1.04635 -0.0691022 7.13403e-21)
(0.999989 -0.000551008 0)
(0.999964 -0.000864515 -9.4828e-21)
(-0.136227 -0.013149 -2.64422e-20)
(-0.142638 -0.00947615 1.86331e-20)
(-0.140531 -0.00468765 3.68883e-20)
(1.10779 -0.0434168 0)
(1.10621 -0.0382996 0)
(0.0890893 0.321712 0)
(0.0217415 0.318219 -5.47025e-20)
(0.0696824 0.330796 2.98637e-20)
(0.992459 -3.30924e-05 2.24614e-21)
(0.992516 -0.000597101 1.61962e-22)
(0.281624 0.0368369 -8.22559e-20)
(0.204574 0.0209182 2.53461e-21)
(0.232089 0.0228756 -2.82828e-20)
(0.837142 0.0331432 8.00144e-20)
(0.688089 0.0342432 -5.0159e-21)
(0.675499 0.0403242 6.12486e-20)
(1.03097 0.245335 -4.8517e-20)
(0.991309 0.256843 -5.78296e-20)
(1.00528 -0.00712488 -1.86023e-21)
(1.00524 -0.00742626 -1.79658e-21)
(1.00498 -0.00709225 3.94054e-23)
(0.99426 -0.00338969 0)
(0.994736 -0.00339223 9.82932e-21)
(0.999983 -0.000265401 0)
(1.00011 -0.00120738 -2.94657e-21)
(1.00013 -0.00117648 4.26376e-22)
(1.00016 -0.00140853 -4.95741e-21)
(-0.0579817 0.016115 1.38638e-20)
(-0.0636212 0.0275623 1.42247e-20)
(0.114072 -0.15465 -7.44244e-20)
(0.0788071 -0.162207 6.06805e-20)
(0.0826104 -0.122441 -1.88462e-20)
(-0.301111 -0.0197557 -1.50156e-20)
(-0.305867 -0.0195 -1.04482e-19)
(-0.332881 -0.0167111 -1.99647e-19)
(0.979579 -0.0122491 5.24319e-21)
(0.978716 -0.0130995 2.81863e-21)
(0.999257 -0.00384462 6.1134e-22)
(0.999257 -0.00405546 -8.53726e-21)
(0.999097 -0.00394118 4.27581e-21)
(1.04893 0.00020859 2.87712e-20)
(1.04793 8.91265e-05 -1.52648e-20)
(1.0485 0.00131216 -1.43321e-20)
(0.996692 -0.00187619 6.63965e-21)
(0.996965 -0.00201761 6.38745e-21)
(0.996768 -0.00218379 -4.44508e-22)
(-0.0561979 -0.0442015 1.09483e-19)
(-0.0649156 -0.0402901 -5.56667e-20)
(-0.0612586 -0.0496723 6.50023e-20)
(0.99584 -0.000290328 -2.00075e-21)
(0.995758 -0.000562286 -6.22798e-21)
(0.995546 -0.00024959 1.18171e-20)
(0.16265 0.0203843 3.62841e-20)
(0.175405 0.0293159 0)
(0.110245 0.0141909 0)
(1.12371 0.0624191 -2.80474e-20)
(1.12676 0.056121 -1.70611e-20)
(0.740367 0.0634244 1.26709e-20)
(0.623544 0.0500349 6.89888e-20)
(0.655533 0.0600099 -2.74355e-20)
(1.12174 -0.0172318 1.92219e-20)
(1.1226 -0.0124409 3.95416e-20)
(1.11827 -0.0138756 2.89141e-20)
(1.05685 -0.00681339 -4.72291e-21)
(1.05871 -0.00601399 -4.66109e-21)
(0.995845 2.66862e-05 1.59561e-20)
(0.996127 -0.000352887 0)
(1.15714 -0.0754797 9.60916e-21)
(1.1638 -0.0723883 2.74903e-20)
(1.16369 -0.0807588 -1.63951e-20)
(-0.320854 -0.0126365 1.68806e-19)
(-0.284769 -0.0129504 1.73281e-20)
(1.13647 0.127928 -1.2433e-20)
(1.13648 0.121497 -3.27369e-20)
(1.14382 0.124487 -3.86401e-20)
(1.13596 0.135931 4.48442e-20)
(1.12803 0.13353 -3.40168e-20)
(1.0587 -0.0209138 0)
(1.05812 -0.0191278 2.73511e-20)
(1.05697 -0.0205977 -2.38262e-20)
(1.00744 -0.0157577 1.79719e-21)
(1.00797 -0.0157832 -1.56954e-20)
(1.00748 -0.015183 -8.69824e-22)
(0.963905 -0.0196114 2.70657e-21)
(0.962864 -0.0216314 3.21791e-21)
(1.05211 -0.0409203 0)
(1.05009 -0.0416112 -2.43444e-20)
(1.05045 -0.039349 3.03887e-20)
(1.08137 -0.028039 1.57858e-20)
(1.07822 -0.0273262 3.45312e-20)
(1.07906 -0.0305522 4.39378e-20)
(1.22051 -0.2268 -2.56645e-20)
(1.21036 -0.234873 -5.1238e-21)
(1.22512 -0.241695 1.25478e-19)
(1.25382 0.0407718 0)
(1.2522 0.04617 0)
(1.24665 0.0418178 4.7833e-20)
(1.04982 0.000717362 3.86413e-20)
(1.04939 -0.000501373 -1.6963e-20)
(1.00001 -0.000838965 2.98068e-21)
(0.999998 -0.000558859 0)
(1.16163 -0.048173 1.16204e-19)
(1.16533 -0.044962 7.93004e-21)
(1.16689 -0.0513836 2.86081e-20)
(-0.0257832 -0.107916 -3.77989e-20)
(-0.0333731 -0.119462 0)
(-0.018219 -0.108696 -8.19169e-20)
(1.08381 -0.0296199 -1.94445e-21)
(0.983917 -0.0208314 -1.43075e-20)
(0.984343 -0.0222941 -8.2235e-21)
(0.985211 -0.0209176 -1.56079e-21)
(1.11178 0.0381687 -1.42707e-21)
(1.10943 0.0429522 3.24433e-20)
(1.10657 0.0386312 1.07585e-20)
(-0.27553 0.0194381 8.32767e-22)
(-0.268313 0.0223363 8.87247e-20)
(-0.249558 0.0283048 6.40417e-20)
(1.17897 -0.458938 1.09457e-19)
(1.1612 -0.463082 -4.56719e-21)
(1.16975 -0.482605 1.13213e-19)
(0.995845 0.000333824 7.04984e-21)
(0.996126 0.00029694 -2.40328e-20)
(0.382169 0.0382034 0)
(0.314973 0.0177534 -4.25349e-22)
(1.007 -0.0157952 5.35377e-21)
(1.0075 -0.0163668 1.24242e-20)
(0.995536 0.000362249 1.39293e-20)
(0.999372 -0.00522298 -1.76961e-21)
(0.999484 -0.00510358 -2.77644e-21)
(0.999362 -0.00498744 -8.25715e-21)
(0.104599 -0.0785443 3.13732e-20)
(0.358866 -0.13672 1.08711e-19)
(0.190271 -0.0992966 -2.86864e-20)
(1.04266 -0.0649033 -6.07402e-20)
(1.04492 -0.0627902 -4.05191e-20)
(1.00014 -0.00456691 1.1043e-20)
(1.00016 -0.00478971 -9.78939e-23)
(0.984539 -0.00252376 -4.28265e-21)
(0.984867 -0.00326131 -5.32805e-21)
(0.983998 -0.00328648 -3.88193e-21)
(1.38896 -0.218971 4.82676e-20)
(1.35945 -0.21576 5.45086e-20)
(1.37473 -0.23201 1.0176e-19)
(1.15775 -0.0535511 1.86554e-20)
(1.16111 -0.0620479 1.57587e-20)
(0.994264 -0.00728262 6.68382e-21)
(0.993698 -0.00747567 -6.4703e-21)
(1.29286 -0.0151046 -1.40038e-19)
(1.30249 -0.0228294 -9.51412e-20)
(0.983515 -0.0121983 -1.92416e-21)
(0.98442 -0.0117364 -4.58125e-22)
(0.984372 -0.0128626 -9.80049e-21)
(1.11259 0.047227 -4.29531e-20)
(1.11865 0.0466911 -3.82417e-20)
(1.06055 -0.0211573 0)
(1.05928 -0.0227026 -4.5164e-20)
(1.02461 -0.0115557 -4.64337e-20)
(1.02398 -0.011224 4.68176e-22)
(0.594598 -0.4414 7.0439e-21)
(0.606672 -0.472164 -1.17972e-20)
(0.566368 -0.464445 -2.83645e-21)
(1.03953 -0.0168647 -1.1222e-20)
(1.03976 -0.017838 -1.83217e-20)
(1.03856 -0.0175496 1.27341e-20)
(1.27946 0.00983445 0)
(1.28953 -0.00306627 0)
(-0.035369 0.307145 4.05505e-20)
(-0.0790887 0.297601 4.78603e-20)
(-0.0460821 0.311682 4.26797e-20)
(1.04234 -0.0201148 -2.83547e-20)
(1.04225 -0.0213951 -1.50025e-20)
(1.04097 -0.0207551 -1.48052e-20)
(1.0053 -0.00681111 -3.35193e-21)
(1.00529 -0.00650769 5.03732e-21)
(1.00501 -0.00650309 4.92211e-22)
(1.00006 -0.0022999 1.06019e-20)
(1.00005 -0.00204922 -1.05297e-20)
(1.00004 -0.00205037 1.10248e-20)
(0.983462 -0.0199306 -5.06666e-21)
(0.982669 -0.0210764 3.73442e-21)
(-0.236508 -0.0282646 0)
(-0.211178 -0.0328933 -2.64496e-23)
(-0.246454 -0.0253232 -7.83295e-21)
(0.618281 -0.327954 1.62312e-19)
(0.395422 -0.237494 5.77424e-20)
(0.273178 -0.189923 -3.52933e-20)
(-0.137773 0.0310977 5.11206e-20)
(-0.151441 0.0264915 -4.05472e-20)
(-0.126258 0.021618 1.08144e-19)
(1.00279 -0.00998815 3.99217e-21)
(1.00311 -0.00967388 -4.24412e-21)
(1.23405 -0.013684 -7.36815e-20)
(1.23594 -0.00560524 -7.49392e-20)
(1.0393 -0.388931 -2.06962e-20)
(1.0565 -0.374095 -2.9782e-20)
(1.03526 -0.367465 4.01709e-21)
(0.583711 -0.555323 -6.02172e-22)
(0.544452 -0.593143 1.23748e-20)
(0.542197 -0.527284 8.57033e-21)
(0.994053 -0.00443513 6.58002e-21)
(0.994367 -0.004773 3.44854e-21)
(0.993821 -0.00482388 -7.87004e-21)
(1.05882 -0.0391665 1.21256e-20)
(1.05826 -0.0416202 9.65716e-21)
(1.05642 -0.0393618 -2.78225e-20)
(0.37696 0.0516438 6.97377e-20)
(0.347142 0.0546239 -5.24191e-20)
(-0.304878 0.0102577 9.55636e-20)
(1.12084 0.0673149 -7.35444e-20)
(1.12816 0.0668578 -2.20869e-20)
(0.996039 -0.00124524 7.92337e-22)
(0.995927 -0.000852847 -1.03201e-20)
(0.997316 -0.00177166 -6.28928e-21)
(0.997486 -0.00165853 4.5177e-22)
(0.997543 -0.0019181 -1.30983e-20)
(1.00558 -0.0071196 0)
(0.89095 0.0705333 6.11968e-20)
(0.852861 0.0722593 -1.46413e-20)
(-0.164506 0.0228476 -7.35572e-21)
(-0.202146 0.022972 -1.73405e-20)
(0.913311 -0.432736 -2.12464e-20)
(1.04731 -0.515727 -8.00428e-20)
(0.172327 0.3297 1.2959e-20)
(0.108547 0.312692 7.42326e-20)
(1.02047 -0.0375134 9.98076e-21)
(1.01927 -0.0365086 5.58273e-24)
(1.02069 -0.0358857 -1.55546e-20)
(-0.0939779 0.119539 -5.05399e-20)
(-0.048784 0.137925 -6.94881e-20)
(-0.119481 0.136013 -1.15809e-20)
(0.399802 -0.17157 -5.89444e-20)
(0.378162 -0.187756 0)
(0.409839 -0.197232 3.94823e-20)
(0.910859 -0.0302822 -8.20563e-21)
(0.908741 -0.0266684 4.20544e-21)
(0.9133 -0.0264451 -5.07858e-21)
(1.0348 -0.00691684 2.50449e-21)
(1.03438 -0.00739338 9.87634e-21)
(1.034 -0.00684552 -1.34602e-20)
(0.962346 -0.0578523 2.27072e-21)
(0.964321 -0.0556448 0)
(0.961242 -0.0546647 -2.30043e-21)
(0.192731 0.0697298 6.9857e-21)
(0.15935 0.0624066 1.48663e-19)
(0.185464 0.0313395 8.72257e-20)
(1.01643 -0.00586375 0)
(1.01685 -0.00597326 1.29588e-20)
(1.01658 -0.0062079 0)
(0.994133 -0.00964529 5.47098e-21)
(0.994608 -0.00971281 1.4235e-20)
(0.999759 -0.0023325 1.07655e-20)
(0.999801 -0.00236098 -1.49005e-20)
(0.999825 -0.00212428 -1.99201e-20)
(0.975923 -0.0123703 3.74722e-21)
(0.97458 -0.0128465 -2.93911e-21)
(0.975728 -0.0137642 5.921e-21)
(1.0267 -0.0100573 2.97491e-20)
(1.02708 -0.00975687 -1.44833e-20)
(1.02651 -0.00945354 2.02183e-20)
(1.08408 -0.0158903 -2.38359e-20)
(1.08636 -0.0180081 -5.01567e-20)
(1.08746 -0.0149093 8.04674e-21)
(1.06429 -0.0144483 1.23503e-20)
(1.0663 -0.0146335 -2.90521e-20)
(1.06499 -0.0129788 2.08561e-20)
(-0.0563258 -0.102152 8.55627e-20)
(-0.0539067 -0.102371 -7.55252e-20)
(-0.0498564 -0.110481 2.58352e-20)
(0.981097 -0.00188481 1.04298e-21)
(0.980322 -0.00257447 8.49242e-21)
(0.981374 -0.00273068 6.87505e-21)
(1.07805 -0.0653536 6.0366e-21)
(1.07541 -0.0629501 6.46103e-21)
(1.07458 -0.0668426 -8.10148e-22)
(1.04232 -0.0189729 1.51612e-21)
(1.04342 -0.0195051 1.76423e-20)
(0.968803 -0.0333443 7.43167e-21)
(0.96897 -0.0309807 8.05224e-21)
(0.970781 -0.0326196 4.57378e-21)
(0.834211 -0.573952 -1.23162e-20)
(0.79365 -0.579979 -1.12146e-22)
(0.826663 -0.621839 2.01036e-20)
(1.15557 -0.0475438 1.1665e-20)
(-0.0161676 -0.0936901 5.37144e-20)
(-0.0377995 -0.0999058 -8.91498e-20)
(1.0149 -0.00574154 -1.8695e-20)
(1.01472 -0.00546497 1.13829e-21)
(1.01447 -0.0056596 -2.76364e-20)
(0.0716263 -0.0526749 4.28901e-22)
(0.0773044 -0.0506449 -3.50156e-20)
(0.978691 -0.073873 2.5125e-22)
(0.978264 -0.0777235 7.09181e-21)
(1.04492 0.0330303 7.69918e-21)
(1.04299 0.03654 -3.5441e-20)
(1.04082 0.0328577 3.40433e-20)
(1.02072 -0.0256107 -8.15974e-21)
(1.02192 -0.0255843 9.11685e-22)
(1.23159 -0.218872 -1.87921e-20)
(1.21894 -0.214045 -3.62348e-21)
(0.999355 -0.00374881 -1.6724e-20)
(0.999275 -0.00369212 1.75635e-20)
(0.738126 -0.0796851 -2.50738e-20)
(0.747676 -0.0680561 6.4367e-20)
(0.728362 -0.06508 2.72259e-21)
(1.15145 -0.0798093 -1.54568e-19)
(1.15261 -0.0876247 -1.61514e-19)
(1.02629 -0.0103479 3.71103e-21)
(1.02699 -0.010577 -7.43192e-21)
(0.319864 0.405393 9.21833e-20)
(0.366966 0.388131 2.67447e-20)
(0.360829 0.439647 -5.47013e-20)
(-0.159344 0.0758879 8.13292e-20)
(-0.133906 0.0841378 1.23761e-19)
(-0.164236 0.0885771 -3.66779e-21)
(1.09316 -0.124448 1.19693e-20)
(1.09236 -0.117249 2.64265e-20)
(0.995868 -0.0148998 -5.94732e-21)
(0.995615 -0.0141788 1.80881e-21)
(0.995127 -0.0149561 2.71181e-21)
(1.1341 -0.00482292 -4.01028e-20)
(1.13299 -0.00913404 -1.09841e-20)
(1.13853 -0.00848567 -4.27957e-20)
(-0.187778 0.161168 -5.46665e-20)
(-0.186051 0.14868 -6.62708e-20)
(-0.160567 0.164898 -2.32459e-20)
(0.754674 -0.105331 2.04213e-20)
(0.745473 -0.0923675 -8.01925e-20)
(0.763283 -0.0954025 -2.87223e-20)
(0.742722 -0.115152 3.51818e-20)
(0.760338 -0.116563 1.76057e-20)
(-0.0709875 -0.0747229 -3.14959e-20)
(-0.0777347 -0.0697552 -1.01797e-19)
(-0.0761855 -0.0659184 -1.24612e-19)
(1.13686 0.0997327 1.97133e-20)
(1.13098 0.104021 0)
(1.13856 0.106536 -6.37341e-20)
(1.04855 0.0322018 -6.39179e-20)
(1.04616 0.0292391 4.74841e-21)
(1.089 0.0141233 1.48918e-20)
(1.09246 0.0115206 -5.56156e-21)
(0.417792 -0.152449 -3.42778e-20)
(0.38642 -0.144948 2.4051e-20)
(1.0295 -0.00566168 8.21209e-21)
(1.02987 -0.00530535 7.3232e-24)
(1.02923 -0.00517509 -1.50854e-21)
(-0.08434 0.0813814 -1.71702e-20)
(-0.269679 -0.0224061 -9.3536e-20)
(-0.298109 -0.019751 -1.14047e-19)
(1.01604 -0.0057636 -1.82053e-20)
(1.01632 -0.0055712 0)
(0.999824 -0.00182551 1.09406e-20)
(0.999806 -0.00178054 -2.81304e-22)
(0.999864 -0.00157553 9.85236e-21)
(1.26222 0.0594171 -9.31307e-20)
(1.30405 0.052338 7.62659e-20)
(0.987626 -0.0144303 -1.7851e-21)
(0.988551 -0.0149152 -6.24092e-21)
(0.987539 -0.0157518 6.11296e-21)
(1.00009 -0.00108389 2.15858e-21)
(1.00011 -0.00129557 6.7371e-21)
(1.16291 0.0566127 8.59312e-20)
(1.16891 0.0547017 2.36732e-20)
(1.16275 0.0510048 1.45933e-20)
(1.17475 0.0526262 1.16658e-21)
(1.17558 0.0464774 -6.49392e-21)
(1.18188 0.0503068 -4.6682e-21)
(1.02021 -0.0389326 2.51776e-20)
(1.0594 -0.037089 -1.5533e-20)
(1.06094 -0.0392842 3.02074e-20)
(1.08087 -0.067677 -2.41385e-20)
(1.08131 -0.0634362 4.17519e-20)
(0.963322 -0.183198 1.41563e-21)
(0.954109 -0.176165 -1.76947e-20)
(0.953354 -0.187907 -1.09823e-20)
(1.06186 -0.0324019 1.38696e-20)
(1.05986 -0.0316635 1.3126e-20)
(1.06143 -0.0302863 -1.37647e-20)
(0.993729 -0.00410701 3.12395e-21)
(1.08038 -0.171621 5.78319e-22)
(1.08357 -0.16578 2.62554e-21)
(1.07542 -0.165597 7.33965e-21)
(-0.0304872 -0.12509 1.29448e-20)
(-0.0236323 -0.134098 -6.11368e-20)
(-0.0288104 -0.133193 -7.26326e-20)
(1.0257 -0.0106222 1.27741e-20)
(1.02555 -0.00996043 1.55577e-20)
(-0.1486 0.0520483 -8.31284e-20)
(-0.143515 0.0407592 0)
(-0.168538 0.0473851 8.36504e-20)
(0.99998 -0.00122337 -1.05802e-20)
(1.00003 -0.000924166 -1.07372e-20)
(1.00015 -0.00332907 0)
(1.00011 -0.00311821 1.21553e-20)
(1.0001 -0.00337721 -1.94888e-22)
(1.01289 -0.000930387 -1.16487e-20)
(1.01273 -0.00115767 -4.47703e-21)
(1.01313 -0.0011687 -5.2697e-21)
(-0.0466601 -0.0484165 -1.48916e-21)
(0.993229 0.00123651 3.9681e-21)
(0.99283 0.00109617 -7.525e-21)
(0.993246 0.000782362 4.59848e-22)
(1.40169 -0.208612 3.08209e-20)
(1.41616 -0.224709 -3.32242e-20)
(0.100529 -0.0282161 0)
(0.143605 -0.0195163 -6.04198e-20)
(0.115483 -0.0229655 5.4472e-20)
(1.00089 -0.00341988 0)
(1.00085 -0.00350499 0)
(1.00098 -0.00359991 -1.55044e-20)
(0.999466 -0.00362171 -1.06593e-20)
(0.999448 -0.00380836 -1.15733e-20)
(1.41072 -0.102272 0)
(1.39786 -0.0939589 -8.34466e-20)
(1.39185 -0.106059 2.46452e-20)
(1.01232 -0.000558872 -9.18629e-21)
(1.01283 -0.000566943 3.77321e-21)
(0.999952 -0.00144097 -8.92603e-21)
(0.999961 -0.00146489 0)
(0.999934 -0.00172815 -1.0758e-20)
(1.01393 -0.000688605 -9.27088e-21)
(1.01364 -0.000710141 0)
(1.01257 -0.000419931 0)
(0.0828071 -0.0391476 -1.12948e-19)
(0.0706351 -0.0408532 1.686e-20)
(0.609959 -0.413625 1.74198e-20)
(0.573445 -0.404663 1.06196e-19)
(0.932377 -0.060679 -1.86621e-22)
(0.935909 -0.0578171 -1.16857e-21)
(0.936751 -0.0626355 -1.15476e-21)
(0.909055 -0.557649 -1.53502e-20)
(0.918235 -0.521975 -1.5422e-20)
(0.94639 -0.545555 4.74916e-22)
(1.16685 0.0280134 -1.97513e-20)
(1.16765 0.0221701 2.9695e-20)
(1.16184 0.0245862 -7.0971e-20)
(-0.0266844 0.299698 1.58028e-20)
(-0.053119 0.0680229 4.69456e-20)
(-0.0418156 0.0571782 -2.43719e-20)
(-0.0573749 0.0593742 6.66881e-20)
(1.04236 -0.022762 1.36309e-20)
(1.04375 -0.0219234 -5.76106e-21)
(-0.115125 -0.255884 -9.40959e-20)
(-0.0445071 -0.286228 -1.70891e-19)
(-0.171928 -0.282291 2.49444e-21)
(1.00004 -0.000868515 7.37366e-21)
(1.00001 -0.00118989 1.00526e-20)
(1.00001 -0.000829956 0)
(-0.203391 0.157918 -2.67404e-20)
(-0.187589 0.174448 7.59794e-21)
(0.473337 -1.08572 6.57155e-20)
(0.213671 -1.05033 9.63857e-20)
(0.466363 -1.19755 -3.97971e-20)
(-0.136084 -0.0227518 7.32596e-20)
(-0.129312 -0.023279 -2.84454e-20)
(-0.142706 -0.0169802 -5.41447e-20)
(0.139511 0.0129536 -1.84806e-20)
(1.13656 0.0938744 6.13191e-21)
(1.14269 0.0968851 7.41098e-20)
(1.05739 -0.017519 2.83554e-20)
(1.05905 -0.0176394 -2.4542e-21)
(1.13597 -0.0562692 6.80322e-21)
(1.13766 -0.0621677 -9.94223e-23)
(1.06343 -0.0162785 6.11806e-20)
(1.06237 -0.0141997 1.31495e-21)
(1.03522 -0.00646025 -3.4697e-22)
(1.03554 -0.0059321 -8.60451e-22)
(1.03472 -0.0059033 2.25948e-20)
(1.0441 -0.0153078 4.51309e-21)
(1.04522 -0.0152735 1.69466e-21)
(1.04445 -0.0140771 -4.71019e-21)
(0.875803 -0.564857 -5.9111e-21)
(0.844418 -0.537805 -4.57178e-21)
(0.91895 -0.0733251 1.63192e-21)
(0.915338 -0.0684837 -1.64686e-21)
(0.999479 -0.00348212 -3.05914e-23)
(0.999521 -0.00350133 0)
(1.00002 -0.000212264 2.58942e-22)
(1 -0.000102533 -1.2642e-21)
(1 -0.000111162 -1.25861e-20)
(1.01529 -0.00585817 2.10606e-20)
(1.01501 -0.00606466 1.83795e-20)
(1.01845 -0.000204589 -1.61558e-20)
(1.01828 -0.000280991 4.78026e-21)
(1.01875 -0.000324678 -1.62817e-20)
(1.02585 -0.0111558 -3.48819e-20)
(-0.071193 0.059465 -2.87776e-20)
(-0.0625896 0.0574086 4.72279e-21)
(-0.0666969 0.0536136 -4.06726e-21)
(1.0052 -0.00846009 9.7715e-21)
(1.00551 -0.00847421 2.07376e-20)
(1.0052 -0.00810585 4.07886e-22)
(1.0197 -0.0237633 -3.35864e-20)
(1.01881 -0.0233863 0)
(1.01892 -0.0244335 0)
(1.01824 -0.000276607 -1.45854e-21)
(1.01814 -0.000299528 1.82884e-20)
(1.01872 -0.000275812 -1.5839e-20)
(1.0028 -0.00881726 1.3842e-20)
(1.00313 -0.00900819 8.03439e-21)
(-0.0176385 -0.172716 -1.01252e-19)
(-0.0169986 -0.16706 0)
(-0.01064 -0.185182 8.53273e-20)
(1.18907 -0.437683 1.32966e-20)
(1.20008 -0.460019 9.56228e-20)
(0.678792 0.0559028 0)
(0.683411 0.0411892 -1.48021e-20)
(0.664304 0.0432671 0)
(0.946695 -0.0183705 -1.54542e-23)
(0.945306 -0.020481 -7.57602e-23)
(0.944001 -0.0173946 2.32753e-22)
(1.11712 0.0378025 -1.07181e-20)
(1.11374 0.0339182 -1.17946e-20)
(1.0161 -0.000100303 8.98436e-21)
(1.04522 0.226534 -3.33564e-21)
(1.04255 0.21041 5.58289e-20)
(1.02881 0.216978 2.60743e-20)
(-0.0240487 -0.0417264 1.49899e-20)
(0.0574081 -0.0582109 -1.19881e-19)
(0.992444 0.000472004 7.47402e-21)
(0.992877 0.000174394 7.94764e-21)
(0.203906 -0.0041005 -9.40461e-20)
(0.186292 -0.00876535 -4.12251e-21)
(1.08963 0.0036289 4.22838e-20)
(1.08983 4.91836e-05 -4.05065e-20)
(1.08644 0.00234376 -3.74682e-20)
(0.991492 -0.000981882 -4.37544e-21)
(0.991066 -0.000687464 -1.66759e-21)
(-0.0329713 -0.0184299 -1.13136e-19)
(1.0594 0.234952 -2.33863e-20)
(0.996828 -0.00473945 1.27203e-21)
(0.996972 -0.00444473 -1.3e-22)
(1.07535 -0.17902 -1.58854e-20)
(1.08587 -0.179228 6.39792e-20)
(0.259412 0.3851 0)
(0.325198 1.01716 0)
(0.973825 -0.0297821 -3.99278e-21)
(0.975586 -0.0303567 -4.61308e-21)
(0.975195 -0.0283883 -6.73669e-21)
(0.823566 0.0113057 -1.62241e-20)
(0.831223 0.00749437 -5.19972e-21)
(0.824367 0.00250649 -1.86759e-20)
(1.0204 -0.0229405 -2.22092e-20)
(0.969058 -0.0288828 3.55377e-21)
(0.970594 -0.0279259 2.22955e-21)
(0.968877 -0.0267894 5.18808e-21)
(-0.20662 0.165354 -7.17294e-20)
(-0.210734 0.155207 -3.72795e-20)
(-0.208318 0.152379 -7.92361e-21)
(0.906332 -0.193757 6.70554e-22)
(0.911701 -0.183361 -1.07086e-22)
(0.8978 -0.184806 6.68862e-21)
(0.997849 -0.00865692 -1.8621e-20)
(0.997465 -0.00860266 -3.2012e-21)
(0.995495 -0.00126414 2.21055e-21)
(0.995812 -0.00143588 -3.84588e-22)
(0.99558 -0.00161923 -1.45593e-20)
(0.948292 -0.0160803 -2.90566e-23)
(0.949294 -0.0191328 9.94136e-22)
(1.12142 -0.384417 3.85478e-20)
(1.1005 -0.3836 2.99951e-20)
(1.11155 -0.365745 7.44277e-20)
(0.0777137 -0.219997 -2.04033e-20)
(0.111339 -0.237096 -3.04167e-20)
(0.0823277 -0.266756 1.02878e-20)
(0.991661 -0.00594021 8.40944e-21)
(0.992295 -0.00578871 3.40114e-21)
(1.00551 -0.00773827 0)
(1.00522 -0.00772676 -3.26327e-21)
(1.02927 -0.0162063 1.06251e-20)
(1.02941 -0.0154273 1.07757e-20)
(1.03006 -0.0162402 -1.39476e-20)
(-0.260373 -0.0217561 0)
(-0.23045 -0.0296401 -1.6445e-19)
(-0.0808129 -0.182179 -1.21758e-19)
(-0.112185 -0.174268 5.61335e-20)
(-0.0663261 -0.044755 6.65106e-20)
(0.026111 -0.0476827 -1.38738e-19)
(-0.02867 -0.0460533 -2.15076e-19)
(1.02907 -0.00598718 2.55612e-21)
(1.02865 -0.00626829 -1.4111e-21)
(1.02844 -0.00580817 1.08784e-21)
(0.916205 -0.202651 0)
(0.900135 -0.206249 1.64447e-22)
(0.824185 0.0206933 -3.02876e-21)
(0.815752 0.0166728 -2.40772e-20)
(0.884697 -0.742544 -6.62528e-20)
(0.834933 -0.76771 0)
(0.896564 -0.802339 0)
(1.15785 0.00601072 4.65845e-20)
(1.15918 0.00981267 4.17403e-20)
(1.1634 0.00559794 3.61805e-20)
(1.0304 -0.00348993 -1.38085e-20)
(1.0307 -0.00387414 1.17453e-21)
(1.03002 -0.00375756 1.61521e-20)
(1.03156 -0.00518003 8.04472e-21)
(1.03118 -0.00554164 -2.38491e-23)
(1.03187 -0.00566521 1.75784e-20)
(1.0291 -0.0169814 0)
(1.02845 -0.0161598 7.3357e-22)
(1.13063 -0.0551255 3.35432e-21)
(1.13419 -0.0507984 -2.62028e-20)
(0.990811 -0.037673 0)
(0.992225 -0.0388501 0)
(0.990489 -0.0396811 0)
(0.080372 -0.0289631 -4.5162e-20)
(0.0512595 -0.020916 -3.58764e-20)
(-0.00999664 -0.0189173 1.25356e-19)
(0.998466 -0.00349473 8.34307e-22)
(0.998312 -0.00333419 8.25974e-21)
(0.998307 -0.00359922 1.19751e-20)
(1.00941 -0.015046 3.9047e-22)
(1.00942 -0.0156628 -6.01011e-21)
(1.01002 -0.0155866 -3.99285e-20)
(0.0852067 0.212861 1.61524e-20)
(0.0445245 0.196196 -1.07639e-19)
(0.00759511 0.207095 -3.38334e-20)
(-0.0796614 0.0601587 -3.53603e-20)
(-0.0778736 0.0664264 1.06449e-19)
(0.0571651 -0.0562693 -2.24589e-20)
(0.042891 -0.0641808 5.4442e-20)
(1.01804 -0.000103558 0)