/*--------------------------------*- C++ -*----------------------------------*\
| =========                 |                                                 |
| \\      /  F ield         | OpenFOAM: The Open Source CFD Toolbox           |
|  \\    /   O peration     | Version:  v2012                                 |
|   \\  /    A nd           | Website:  www.openfoam.com                      |
|    \\/     M anipulation  |                                                 |
\*---------------------------------------------------------------------------*/
FoamFile
{
    version     2.0;
    format      ascii;
    class       volScalarField;
    location    "800";
    object      ddt0(k);
}
// * * * * * * * * * * * * * * * * * * * * * * * * * * * * * * * * * * * * * //

dimensions      [0 2 -3 0 0 0 0];


internalField   nonuniform List<scalar> 
9793
(
-1.82488e-06
0.00117338
-2.66788e-06
-3.58818e-07
0.0197844
-3.0575e-07
-5.82415e-07
4.83708e-08
-1.2831e-07
0.0165753
-1.18104e-06
0.000205698
-1.7569e-07
5.29247e-07
-1.08561e-06
1.70959e-07
-3.89215e-07
-1.35443e-06
-0.0282668
2.70067e-07
0.000528511
1.00802e-06
0.00351232
2.0963e-07
-8.09746e-07
-2.23264e-08
-3.51285e-07
1.87882e-07
-2.76423e-06
1.13109e-07
-5.14491e-06
0.00252405
0.00526965
1.14642e-08
-3.04967e-06
0.00836343
-3.09773e-07
1.01768e-06
-4.26291e-07
1.30396e-07
-5.08359e-06
-1.03108e-06
-1.83237e-07
-3.85449e-07
-5.37827e-08
-1.60382e-07
-3.4381e-06
0.000200009
-8.54133e-05
-4.58132e-07
-3.03889e-06
6.4045e-06
3.53133e-07
-1.90746e-07
0.0422302
0.0103019
-6.07393e-07
-4.32558e-06
-0.00137588
4.23909e-08
-6.72899e-08
7.0923e-07
0.000147626
-9.26367e-07
0.0444473
0.00377023
6.7507e-06
-0.000194015
0.000138627
-1.64868e-06
0.0315659
4.63018e-07
4.25352e-07
0.00251825
1.26578e-06
-0.00345613
-2.07202e-07
2.58862e-06
9.89443e-07
1.89999e-07
0.00320248
7.96849e-07
0.000989216
7.40463e-05
-2.20661e-06
0.000134424
5.65033e-07
-9.84846e-08
3.16287e-07
7.17534e-07
0.00128629
0.0290885
5.5087e-08
0.00172668
6.18702e-07
7.41388e-05
0.00928777
0.00141402
-3.20193e-08
1.32387e-07
9.94655e-08
2.79043e-08
-2.85551e-07
-2.6313e-07
2.97168e-06
-1.58592e-06
7.27409e-07
-2.30834e-07
7.91041e-08
-0.00150266
4.74777e-07
0.000689228
-2.08969e-06
0.0204264
7.16183e-06
-2.89481e-07
0.00355321
-4.36895e-08
1.00296e-06
0.0010842
-0.00129731
5.6532e-07
-9.21957e-07
-3.86563e-07
-2.10408e-07
0.000476936
-2.04519e-06
9.51582e-05
1.15814e-06
-2.37509e-07
4.33025e-07
-1.05161e-07
4.45324e-08
-1.10601e-06
-3.50635e-07
-1.58167e-07
-7.92311e-07
-4.12284e-07
-1.65756e-06
-8.1906e-08
-6.64612e-07
-7.90677e-07
-3.60347e-07
2.70798e-07
7.80484e-07
1.04064e-06
0.000990361
2.88796e-07
-1.83838e-07
-0.00676511
0.000146982
4.15725e-07
-0.00045604
0.00508723
-1.82995e-07
5.2225e-07
-2.7054e-07
-7.74868e-07
1.70917e-07
-3.5113e-07
1.90417e-07
1.82343e-07
-2.68345e-07
-0.0168083
0.00192426
0.00108136
0.000273247
-2.47483e-07
-3.60974e-07
-1.68993e-08
-8.20252e-07
0.00568296
0.00101121
0.00433481
1.37135e-08
-0.0249373
-1.66655e-07
1.154e-07
-1.41267e-07
-1.48742e-06
0.0266464
-2.94411e-07
1.82679e-07
-7.56864e-07
-0.00491714
1.06769e-07
-0.00133763
-1.48378e-07
-9.75922e-07
-2.62356e-07
-4.5697e-08
-1.21672e-07
-8.42222e-05
0.00100486
-0.000126975
-1.21137e-06
-1.33437e-05
2.90509e-07
0.00242841
-1.28735e-07
-3.12382e-07
-0.012368
0.015328
-3.35227e-07
-2.74633e-07
1.80583e-06
0.0059453
2.09617e-07
-1.32348e-06
7.65007e-07
-2.03674e-06
-3.872e-05
-0.000178475
1.52356e-07
5.28774e-06
-2.24568e-07
-2.02399e-07
-0.00369858
1.76032e-06
0.00122329
-5.31071e-06
-9.98842e-08
-2.40354e-07
-9.55086e-08
6.99478e-05
-0.016187
-2.09639e-07
-1.29203e-07
-5.04481e-06
-3.43851e-06
1.87429e-07
2.17877e-07
2.08036e-07
-2.04368e-07
-1.9894e-06
0.000864648
-1.18303e-06
-7.95543e-07
0.00485142
2.22649e-07
-1.04946e-06
1.65555e-09
-7.41962e-07
0.00451247
-3.534e-07
-1.51309e-07
9.2927e-08
-8.31909e-07
-1.0984e-07
5.79563e-08
-3.47131e-08
-7.548e-07
9.23038e-07
-1.1626e-06
-9.03418e-07
8.86339e-07
-5.52587e-07
-6.843e-07
-7.38369e-07
1.92799e-07
-0.00124896
-3.0949e-07
1.06918e-05
-3.85638e-07
-6.30298e-07
2.97982e-07
-7.07417e-08
-2.05166e-06
-0.00806355
-9.90225e-08
2.06438e-07
-1.69274e-07
2.65036e-07
1.64522e-09
0.000820644
0.00066554
6.97029e-08
0.00213447
2.30286e-09
-1.331e-06
-8.52246e-07
1.37946e-07
-4.15957e-07
1.11153e-07
-1.45771e-06
-5.92617e-08
-2.78297e-08
-6.36828e-07
-5.24564e-07
-2.49568e-07
-1.5795e-06
0.00428908
-4.4972e-07
-2.67754e-07
3.5673e-07
-1.16042e-06
1.01343e-07
-4.98855e-07
1.65476e-08
0.00740146
-1.95707e-07
-0.000477833
0.00392882
-2.26164e-07
-5.41265e-07
2.13779e-07
4.98795e-07
1.05591e-08
-8.50783e-07
0.00147873
2.20471e-07
2.08492e-07
1.32506e-07
2.09771e-07
-1.18215e-07
3.13293e-07
9.72789e-06
-3.22972e-07
3.47882e-07
6.33957e-07
-1.31923e-07
0.002738
-0.00018852
0.00205899
5.96019e-07
0.0357862
3.14425e-07
0.00104277
-3.2366e-06
-2.84209e-07
-4.34475e-08
-2.98718e-06
-4.5852e-08
-6.65098e-07
4.6209e-06
1.28938e-07
-9.74922e-08
-1.13519e-06
-1.26839e-07
1.91227e-07
-1.07818e-05
1.19419e-07
-3.19426e-07
0.00746461
1.72419e-07
-1.37586e-07
7.83236e-07
8.61748e-07
7.20031e-08
-1.47619e-05
-2.37654e-07
-4.39589e-07
4.19173e-08
6.05424e-08
0.00864264
-2.8637e-08
4.50544e-06
1.98135e-07
-4.31285e-06
0.03894
-0.00447329
-4.60507e-06
5.46818e-07
-1.79228e-06
-4.28905e-05
-8.31315e-08
-0.00187077
3.9821e-07
-2.17136e-07
0.00116113
-5.45832e-07
-7.90354e-05
-2.93498e-07
-1.945e-06
0.00675539
7.90671e-08
1.26949e-07
0.00461406
-1.47656e-06
0.00144311
8.83517e-07
3.33692e-07
-0.00316274
3.58461e-07
6.46383e-07
-3.93932e-07
1.39005e-07
-3.27643e-07
1.0113e-07
9.59422e-07
0.00678175
4.2711e-07
-0.0216478
0.000556977
3.43109e-05
-3.36582e-06
0.001247
-9.41672e-08
-1.03776e-06
0.000212699
0.000488364
1.45114e-07
-3.11559e-07
-0.0153128
-1.95187e-07
0.0175382
-1.05314e-06
1.00869e-06
-2.15867e-07
-2.11248e-06
2.20597e-07
-1.17734e-06
0.00305366
2.4638e-07
0.00386918
-3.65802e-06
9.02295e-08
-5.48565e-06
2.96644e-07
3.19553e-07
1.31146e-06
-0.00414906
5.96886e-08
8.63705e-08
8.8593e-06
4.1706e-07
-6.84609e-07
3.32447e-07
-3.1492e-07
-1.76299e-06
-4.77366e-07
1.21394e-07
-1.60803e-07
0.00216209
6.95253e-07
0.00205127
-6.44505e-08
4.88284e-05
-2.66874e-07
-8.21013e-08
-6.12944e-07
5.62635e-07
-0.00462934
3.70602e-07
0.0300794
-2.04372e-07
-3.9329e-07
6.37121e-07
-0.0170674
-6.60673e-06
0.0665766
-4.2639e-05
2.81964e-07
-1.12735e-06
6.26357e-06
-1.69577e-06
-2.16303e-06
0.00115321
-0.000183338
2.14085e-07
-2.95287e-06
-3.651e-06
-8.36799e-07
7.86851e-07
-9.87572e-07
-2.82354e-07
-1.22597e-07
0.0197958
-1.07546e-06
-0.0034813
-3.31956e-07
5.36654e-07
1.22603e-07
1.94121e-08
1.11504e-07
7.74435e-07
6.57985e-06
-1.67854e-07
-2.20129e-06
-2.80295e-07
-6.39115e-07
-3.96872e-07
-0.000492614
-5.09052e-07
-1.4627e-06
0.00455053
-8.82603e-07
-2.62637e-07
0.000214194
4.61643e-05
-4.89692e-07
-2.47112e-07
9.23865e-07
-4.88452e-07
-3.33921e-08
-5.49684e-07
-3.13761e-08
1.57816e-07
-7.80368e-07
-7.64346e-07
0.000495094
-1.85006e-05
-3.22315e-07
-0.00589973
9.52964e-07
1.99938e-07
-3.25159e-07
1.00323e-06
0.000329585
-8.46568e-07
0.00184256
-2.45397e-07
-7.37691e-07
-2.85891e-06
-8.06038e-07
-3.51754e-06
-0.000537592
2.46771e-07
2.11582e-07
-0.0361333
-9.0155e-07
-6.93615e-08
-2.77172e-07
6.16224e-07
-3.37791e-07
-1.43371e-07
-4.26193e-07
-5.86797e-07
0.00414038
-1.9657e-06
7.04296e-07
-4.19398e-07
-2.23887e-07
-3.29719e-07
2.17935e-07
2.47591e-07
2.28692e-08
-8.41404e-06
-0.0117914
-1.64753e-07
-2.09194e-06
0.0010379
4.02745e-07
5.53298e-05
3.42254e-06
2.47307e-07
-5.94139e-07
-0.00372251
5.40355e-08
2.82663e-05
1.55202e-07
0.0182473
-6.21881e-07
1.64042e-05
2.44561e-07
-9.1122e-07
5.08313e-08
0.00156419
-1.92852e-06
0.000358113
0.00403397
0.0415656
-3.43412e-06
-0.00140008
-2.24731e-06
-1.00925e-06
-2.92666e-06
-1.65907e-06
0.000166202
-2.76304e-07
0.000425461
-1.86728e-07
-0.000236521
-3.60263e-07
7.32625e-08
-4.97308e-07
-0.0129656
-2.33599e-07
-2.50652e-07
-1.53797e-07
6.03323e-07
-9.66625e-07
4.07832e-07
-6.09038e-08
5.48496e-07
6.4744e-07
-0.0313231
-5.58614e-07
-0.00104686
-0.0012806
-4.60722e-07
-2.34035e-07
7.69923e-07
-3.48881e-07
-6.68391e-07
5.3938e-08
2.34054e-07
-7.98438e-07
4.7406e-07
5.53026e-07
-3.42232e-07
9.28801e-07
2.26012e-07
-7.49356e-07
2.32871e-07
9.38283e-07
0.0172382
-9.3175e-08
-0.00247659
-1.35075e-06
-5.58183e-07
-1.80319e-07
1.36466e-07
-1.15507e-06
-2.0491e-06
-3.5967e-07
5.7909e-07
1.03143e-07
-3.41828e-07
5.66156e-07
-7.12927e-07
7.71089e-07
-2.36694e-08
9.38361e-08
-2.11611e-07
2.22479e-07
5.7132e-07
5.42525e-07
-3.31233e-06
-4.06642e-07
-9.37851e-08
-1.77637e-07
-2.29821e-07
-5.23222e-07
-3.34918e-07
-5.7137e-07
-1.14375e-08
-2.53275e-08
-2.39001e-07
-2.50484e-06
-9.47463e-08
-4.51178e-07
-5.29605e-07
0.000217038
-4.52565e-07
-2.3296e-07
-6.2e-07
7.68293e-08
-3.22474e-07
-0.0646161
-7.8287e-07
-6.6186e-07
7.42482e-08
0.000159324
1.21693e-07
-4.47693e-07
0.05122
-0.000527251
0.000617656
-3.47503e-07
-5.08372e-07
-0.000989661
-2.58894e-07
-2.3436e-07
0.00125703
0.000351898
0.00965282
-3.2312e-07
6.94814e-07
-3.75461e-07
-9.00556e-07
0.0225031
-6.80056e-07
0.00169404
4.89302e-06
-1.37047e-05
-1.93266e-07
1.91087e-07
2.82267e-08
-0.0168906
0.00318595
-1.24749e-06
4.59089e-06
-2.13513e-06
-1.09443e-07
-1.22279e-06
-2.57499e-06
0.00935267
1.29275e-07
2.85207e-05
-6.76751e-07
-0.00450744
3.07363e-05
0.0033992
0.000597382
4.04744e-07
-6.88077e-07
-0.00166176
-1.37997e-06
-3.6154e-07
-2.51947e-07
7.96372e-07
-1.76955e-07
0.0157143
-1.60851e-07
-0.00140467
9.30815e-08
6.82268e-05
-2.55266e-06
2.10121e-07
0.0744107
-0.000909701
-2.03264e-07
-0.000848564
-4.80705e-07
1.42002e-06
-1.77217e-07
8.27324e-08
0.000406973
-9.88989e-08
0.00288674
-1.38952e-07
-0.000237671
-1.23273e-07
3.94063e-05
0.000239108
3.79263e-07
0.0193194
-3.49282e-07
2.11058e-08
-3.92322e-06
0.00709264
-0.00303724
-6.10731e-07
-1.24315e-07
-2.60895e-07
0.00073652
0.00190485
-3.98299e-07
6.00366e-07
6.65748e-05
-2.50848e-07
-8.5108e-07
-1.52452e-06
5.95233e-05
4.76632e-07
-2.71054e-07
-1.31982e-07
2.45053e-07
0.00102272
0.00246283
-1.79269e-05
-1.64234e-07
-3.79251e-08
0.000202066
-1.83033e-07
-0.00188687
-3.49853e-06
-0.00235817
-0.000730504
-0.000245252
-8.59192e-08
1.8361e-07
-5.37008e-07
-3.52349e-07
-9.16732e-07
-2.83312e-08
7.10935e-07
-0.00144028
-2.64226e-07
-0.00155762
2.74813e-07
0.00562901
5.88927e-08
0.00058461
7.55778e-07
-1.53721e-06
-5.08934e-08
-9.44222e-06
6.94777e-06
-0.00210441
-0.00386527
3.81481e-07
-1.42749e-06
-3.98493e-07
1.00883e-06
3.42301e-08
0.0290729
-4.34767e-07
1.32821e-06
4.69151e-08
-2.26674e-06
-1.04029e-06
-3.73921e-08
-1.33063e-07
-3.04401e-08
0.0464034
-6.31081e-07
7.62549e-07
-3.34888e-07
4.58555e-07
-1.83637e-07
-7.98358e-07
-1.53258e-07
-1.47273e-07
-4.07649e-07
-3.77978e-07
0.00117965
-6.53086e-07
0.000269795
-2.09754e-07
1.30325e-05
-1.20034e-07
-0.000439018
-3.25641e-07
0.000251848
-1.7609e-07
-3.39751e-07
4.10383e-08
0.000338868
0.000974204
0.000935929
-0.0558651
0.000359642
-1.32455e-07
-3.14519e-07
0.00100292
-3.33942e-07
0.000652629
-0.000466927
-3.74204e-06
0.00702772
8.84243e-07
0.0013254
3.42062e-08
0.00155037
0.00162801
9.59938e-07
-1.34336e-07
0.00130517
0.00491411
-8.47301e-07
7.54551e-07
-3.87662e-07
-1.81587e-06
-3.10505e-06
-3.13712e-07
-5.5224e-07
-4.78263e-07
-1.60616e-05
-3.75545e-06
6.78964e-07
-0.00369601
4.61792e-08
-5.65984e-07
-0.000452848
-0.00168854
-2.56326e-06
3.31983e-07
-1.35657e-05
-1.34738e-07
-3.28811e-07
0.00250725
-2.26214e-07
9.24355e-07
0.00132636
0.00112577
7.44978e-07
-0.00108707
0.0716043
3.60205e-06
-0.00493494
0.0196231
-4.83515e-07
-0.000169805
8.60433e-09
1.7512e-07
2.625e-07
-1.08083e-07
-2.73522e-07
0.00452114
6.91645e-07
0.00287897
-3.05003e-06
1.25287e-06
1.68923e-07
-3.05566e-06
2.13867e-06
-4.27608e-07
-3.55633e-06
-4.29681e-07
-4.08333e-07
-2.60595e-05
-1.17191e-05
-1.91529e-06
4.50138e-07
-6.19488e-08
0.000585013
0.00223935
2.23811e-05
1.60806e-07
5.83606e-08
-5.38338e-07
9.71828e-07
-0.00579878
-4.30472e-06
-0.00514487
-2.15695e-06
-0.000482393
-6.09436e-08
1.77396e-06
4.75774e-07
-7.0325e-07
0.00324123
-6.31646e-08
-6.2161e-07
0.00124599
-3.03527e-06
0.0153301
2.27411e-07
-0.00221071
-0.000681324
-1.25516e-06
-2.58641e-06
1.47203e-07
0.00106443
-6.07426e-07
-1.18667e-06
0.000555739
-6.39467e-07
7.76226e-08
-1.31831e-05
3.92258e-08
-3.41618e-07
-1.1125e-07
-0.0406527
2.91769e-07
-1.76423e-06
0.0040955
-2.7212e-06
8.75225e-07
-1.43934e-06
5.7007e-05
0.00290825
8.63654e-05
-4.13487e-07
-2.20828e-07
-1.42524e-07
3.3598e-06
-1.97311e-07
0.000452515
0.000628763
1.28142e-07
0.00756862
-1.45578e-05
0.000962499
-2.45612e-07
7.08523e-05
-7.07081e-08
0.000762273
2.35891e-06
-1.6899e-07
0.0187273
-6.87014e-05
1.39369e-07
2.7913e-09
-5.57316e-07
0.00147359
0.000123874
-4.67209e-07
6.50492e-07
3.72918e-06
0.000211038
0.0110047
0.000436728
2.68399e-07
-1.43486e-06
-0.0170078
-0.000993102
6.46111e-08
1.91902e-07
-6.10947e-07
-2.00285e-08
1.07304e-07
-1.3811e-06
-0.000759927
4.12265e-07
-5.95159e-08
0.00519944
-4.71048e-07
4.99941e-07
7.6985e-07
0.000163404
9.24069e-08
-2.88907e-06
0.000104691
-1.95649e-07
-2.42694e-07
-1.61827e-07
-1.4082e-07
6.20034e-07
2.40953e-05
0.00168631
-4.71584e-07
0.000114176
5.29732e-07
-1.91103e-05
-8.95187e-07
-1.31319e-06
5.36083e-07
2.64173e-07
2.74756e-05
2.02257e-07
-5.12005e-07
-4.10141e-07
-5.8926e-08
-1.16975e-05
-1.9474e-06
-1.59699e-07
-0.00261345
-1.67229e-07
-5.97339e-07
0.00286659
6.55004e-08
0.00665339
1.93284e-07
-2.14849e-07
0.00173357
-1.96794e-06
-3.44238e-06
0.00476209
8.66137e-08
0.00618661
-2.55608e-07
-1.17373e-06
-0.00885866
0.000814877
1.23402e-07
1.8462e-07
7.01586e-09
9.92706e-08
8.76454e-07
3.34226e-08
-9.87734e-09
-4.83685e-07
-1.49059e-06
-2.67078e-08
6.26659e-07
-2.27407e-07
-3.70417e-07
-4.33338e-07
-0.000412106
6.02803e-07
-1.16488e-07
-2.26161e-06
9.41672e-07
-0.00457888
-1.58555e-05
-2.68628e-06
7.92303e-08
-3.60751e-07
4.18347e-06
5.75938e-07
-4.57325e-07
2.79867e-07
-0.000766299
-0.00978694
-6.29373e-07
-1.43284e-07
4.64374e-07
-2.15882e-06
2.71615e-07
0.0016329
-2.86225e-06
2.83155e-07
3.33133e-07
3.64233e-06
3.47094e-07
1.9165e-06
0.00149627
-7.5906e-07
-1.07418e-05
6.15064e-06
2.832e-05
-1.76338e-07
-4.73191e-07
-7.27512e-08
-9.34007e-08
-0.0104829
-1.96945e-07
-4.61452e-05
2.33348e-06
-6.7007e-08
-1.80324e-07
9.00395e-07
2.18959e-08
-3.26184e-07
1.34762e-06
3.45243e-07
0.00414636
-9.81713e-08
-3.8866e-07
0.000447996
-1.33625e-07
4.79095e-07
-1.29584e-06
9.84237e-08
4.20318e-07
-4.48771e-08
-1.11902e-06
1.35195e-05
3.3053e-07
0.000808328
-1.71278e-06
-1.75464e-07
-4.79801e-07
-1.34529e-07
0.000278335
-8.69035e-07
7.28161e-07
-5.08663e-08
1.44212e-07
-7.77239e-06
-2.17377e-07
-2.0757e-06
-9.48897e-08
-2.80486e-07
9.11335e-05
-0.00249182
-8.93142e-07
-5.29799e-07
-7.47767e-07
-0.00516427
-5.31789e-06
3.64979e-07
0.004008
-9.8857e-05
-2.16401e-07
6.38783e-07
-0.00031368
4.58654e-07
0.000240899
6.5539e-06
-0.00096842
-2.18943e-07
-1.12153e-06
-0.00207123
-1.99477e-07
7.30608e-05
0.0126652
-1.64945e-06
0.0229844
0.0167341
-1.21107e-06
-4.17384e-05
-2.29843e-07
-1.38911e-06
-1.62135e-06
-8.68465e-07
0.000645997
-3.10116e-07
-2.90725e-06
-4.36657e-06
-1.9031e-07
5.31638e-06
3.01471e-07
-7.89552e-07
-3.12287e-06
-1.01556e-07
0.0323275
-0.0172286
2.09242e-09
-7.78509e-07
-0.00534445
1.64767e-07
-7.4378e-07
1.90831e-07
-0.000604825
2.09455e-05
4.77565e-09
-6.42751e-07
-1.14168e-06
0.00556938
-0.0218182
-1.53816e-06
-1.98815e-07
-2.52842e-07
-0.0222354
0.00692268
-0.00432243
1.07919e-06
8.43758e-07
-1.54771e-06
-1.4767e-07
-5.95573e-07
-6.16267e-07
4.07171e-07
-4.82106e-07
-5.89178e-07
0.00315869
-0.000199212
-5.82823e-07
-0.0121679
5.55541e-07
-0.000286134
0.0194725
1.26988e-06
0.0037648
0.00348147
-2.3498e-07
-4.56444e-05
-8.27531e-05
0.00232727
0.000178613
6.81244e-07
-0.00158086
0.000159624
-8.5936e-07
2.02909e-07
0.000151355
0.000157047
-2.24258e-07
-1.40156e-06
-7.80097e-07
1.257e-07
-3.2967e-07
-8.86703e-07
2.8674e-07
3.77319e-08
-3.46912e-07
2.89379e-08
-3.5209e-07
8.26575e-07
-1.94862e-06
-0.0024385
-1.29391e-06
0.000814315
1.91378e-07
-2.17953e-06
4.7188e-07
-0.00745482
0.00461063
-3.3406e-07
-2.32011e-06
-4.90846e-07
7.06103e-08
3.17812e-07
-2.20793e-08
-1.77698e-07
0.000956161
5.06878e-07
-0.00232078
4.40804e-07
-5.56184e-07
0.00139306
-1.08413e-06
-6.42495e-08
-6.51726e-07
7.68506e-07
0.00324329
-9.61802e-09
-0.00329511
-0.0070678
-7.9829e-05
1.73863e-07
-4.18889e-07
-7.46442e-07
-6.36947e-07
2.66909e-06
-4.26167e-06
-0.0240659
-4.50168e-08
-4.16974e-07
-3.25178e-07
-0.00268968
0.00510428
-7.5088e-07
0.021925
0.000603968
-7.20061e-07
2.67124e-07
-3.59923e-07
-3.47457e-06
-3.3529e-07
-6.24771e-05
-3.26935e-06
-3.02376e-07
0.0231224
0.00299606
1.27108e-07
-7.30216e-08
1.40739e-07
0.00582749
1.79328e-07
-4.07887e-07
0.00710147
-5.5506e-08
0.0266137
7.18745e-08
5.64867e-07
-2.1242e-07
-3.44803e-07
-5.49205e-06
-6.16965e-07
-0.000487996
-8.21216e-07
-1.89077e-07
1.63726e-07
-5.35072e-05
4.61312e-07
-0.0303886
-3.78706e-07
-1.29495e-06
8.50325e-07
-6.42068e-05
1.08757e-07
2.34421e-07
0.00017819
-4.65089e-07
-4.15466e-07
5.59177e-06
0.00013692
-1.93854e-07
-1.80593e-07
-8.71506e-08
-7.40374e-06
-1.38948e-06
-6.25752e-07
4.18503e-05
-4.03724e-07
0.000233396
-6.23532e-06
3.46426e-07
-3.42906e-07
0.000442533
-3.89986e-07
1.04885e-07
-7.02485e-07
6.00892e-06
0.00344816
-1.9171e-06
-1.13039e-06
-3.42715e-07
2.98656e-08
-0.000349039
7.17938e-07
-4.38297e-07
-4.94351e-07
3.5514e-07
0.000148354
-0.0102407
-0.0318646
-3.61343e-07
-0.0183707
7.79014e-08
-9.98268e-09
-1.92448e-06
2.41928e-07
-2.10613e-06
-1.16081e-06
-4.39357e-06
0.00100549
0.0162969
-6.71121e-07
4.15967e-08
3.3921e-07
-1.505e-06
-1.75107e-07
-1.62716e-07
6.72647e-07
5.50028e-08
-6.31076e-07
5.41484e-08
-6.72115e-07
-2.28436e-07
0.0196156
-2.81558e-06
-1.19638e-06
9.30851e-08
-2.62406e-06
3.98352e-07
-4.67518e-06
1.10149e-07
6.13167e-07
-3.45101e-07
2.36281e-07
-4.73755e-07
-5.05796e-07
0.0115442
0.00245954
3.01556e-07
-1.30973e-06
2.66731e-07
-1.45097e-06
8.34458e-07
-2.31123e-06
-1.22468e-07
-0.00935273
6.83527e-07
3.56083e-07
3.57456e-07
-8.07665e-05
-7.72298e-07
-0.0224476
-6.76118e-07
5.24646e-08
4.51574e-08
-0.0204354
-3.1788e-07
-3.75708e-06
-0.0252191
1.81349e-07
-7.4562e-07
-2.70282e-07
-2.19923e-07
-1.73304e-06
-1.91362e-07
-1.06153e-06
-0.000106665
5.98273e-07
1.22281e-05
0.00668568
-4.86629e-07
0.00592367
-3.10265e-08
6.49551e-08
-2.44917e-07
-1.57112e-07
8.6813e-08
-2.69491e-07
0.00172394
0.000435377
-1.40646e-07
0.00516661
2.26597e-05
-6.01693e-07
3.80102e-05
-1.27027e-07
4.65695e-07
-4.51075e-07
-8.70035e-07
-3.5328e-07
-1.64691e-07
-5.29231e-07
6.07299e-07
-5.66562e-06
-5.01188e-06
7.39523e-08
-5.15813e-07
6.37698e-07
0.0147946
0.00626255
-2.39721e-06
-1.95022e-06
2.79871e-08
-1.13023e-07
0.000747375
7.99922e-08
-1.97484e-06
-2.78271e-06
0.00434005
-1.87909e-08
-3.3095e-06
-9.25565e-08
4.47635e-07
6.88139e-07
-2.85619e-06
7.10043e-07
-2.16452e-07
1.34214e-07
-1.23651e-06
0.000492719
-1.13057e-06
-3.13279e-07
-1.72336e-06
-2.89862e-05
-5.05399e-07
-1.78779e-06
4.71213e-07
3.71598e-07
-8.67112e-07
5.60227e-06
0.000181798
5.37095e-06
-4.57127e-07
-4.52772e-07
-9.5057e-07
-1.40191e-06
-4.32577e-07
-1.8412e-07
-1.32217e-06
-4.66918e-07
-3.55205e-06
-2.98691e-07
7.86732e-07
-1.59247e-07
-3.88346e-07
2.60965e-08
-0.0115666
-1.72399e-06
-3.17833e-08
2.0323e-07
1.87244e-05
0.00158517
-4.40333e-07
-3.24475e-07
-6.92381e-07
8.66609e-05
4.09752e-08
0.0116265
8.78995e-09
-1.6515e-06
-1.30318e-08
3.3506e-07
-3.33524e-06
5.1679e-07
-3.09408e-06
-4.46728e-07
3.48809e-07
-1.66159e-07
9.9137e-07
-0.0352121
2.55614e-07
-2.12753e-08
0.00032354
1.09807e-07
1.92877e-07
-1.35017e-07
-7.51133e-08
3.04227e-07
8.976e-08
5.4847e-05
9.1927e-08
-7.61617e-08
-9.4143e-07
0.000338824
-4.49774e-07
0.00250088
-1.98582e-07
-1.37613e-08
-1.82007e-05
0.000927839
-0.000730903
-2.31428e-06
2.231e-06
-3.4813e-05
-1.99987e-07
0.00273172
-1.78659e-07
0.000261444
-2.04662e-07
4.15849e-06
0.00185339
4.02119e-08
4.81975e-07
-9.23105e-06
1.77741e-07
-2.04747e-07
-0.000945461
-1.95807e-07
-0.000241655
3.6778e-07
-5.82885e-07
2.93916e-07
-2.63572e-07
4.40545e-07
0.0120932
-4.73648e-07
-6.08581e-07
-6.18813e-07
3.24749e-07
-3.29315e-07
0.00248574
-0.0116714
0.000945461
-1.6676e-07
-3.87726e-07
-6.42814e-07
-1.11991e-06
-8.64658e-07
-7.48562e-06
-3.02303e-06
-5.53629e-07
-1.10922e-06
0.00662148
6.3984e-07
0.00221638
0.00104339
1.04272e-06
-3.68593e-08
-8.99465e-07
4.90489e-07
0.000207674
-4.35182e-07
-3.99197e-07
-2.00088e-05
-0.00145398
-3.52427e-06
0.00283809
-1.13156e-06
-3.4592e-07
-1.61358e-06
-2.70614e-07
-1.3564e-07
0.00101283
-0.00361325
0.00588067
6.14151e-07
0.00011669
3.62524e-07
-4.94885e-08
-3.25343e-07
3.39671e-07
-8.33375e-07
3.51055e-07
-3.46431e-07
1.66481e-07
3.05276e-07
-2.137e-07
-2.25993e-07
-4.62722e-07
-8.54334e-08
0.000106609
6.41155e-06
2.69002e-08
-1.9423e-07
-8.93551e-07
-1.6497e-07
-7.07881e-07
-4.53888e-06
2.40132e-07
3.11839e-08
-1.15257e-07
-0.000380059
1.16329e-07
3.05801e-07
-0.000501438
-2.52713e-07
-9.57241e-07
-0.0289622
8.36726e-08
-1.16776e-06
1.49607e-07
-0.0447337
7.31848e-06
1.87021e-07
2.66831e-07
0.00206976
-3.80058e-07
-9.90842e-08
-3.04045e-07
-6.46527e-07
-4.34941e-07
5.47622e-07
-3.29601e-07
-3.3378e-06
1.72026e-07
0.00227101
-3.37156e-06
-1.94339e-06
-7.49936e-07
0.00129432
-2.44419e-06
-4.59673e-07
-7.26367e-07
-9.70512e-07
4.34588e-07
-7.16115e-07
0.00160112
-5.45643e-07
2.57621e-06
-3.79811e-07
-1.03469e-06
0.0358002
3.8289e-08
-0.001344
6.24277e-06
-9.27508e-07
4.51111e-05
-4.53586e-07
1.2066e-07
-8.81681e-09
2.02369e-07
9.14827e-08
1.04069e-07
1.30375e-07
4.04319e-07
0.00164371
1.06189e-07
-3.64196e-07
-1.00723e-07
2.4951e-08
-1.73957e-07
-2.27027e-07
-7.79006e-07
-3.29255e-07
-1.72684e-07
-5.18812e-08
-1.6533e-06
-6.55525e-07
2.53053e-07
-0.0269705
-2.19029e-07
-6.12104e-07
9.99118e-06
0.000134966
-2.02231e-06
-1.77997e-05
-8.41453e-07
5.4677e-07
-9.32772e-07
-2.86709e-07
0.00312913
0.000253824
-3.04324e-07
5.63832e-07
0.000281279
-6.28673e-09
-0.000379767
-0.000636963
-2.8824e-07
-0.00626941
-2.53942e-08
1.67729e-05
6.0795e-07
-9.89592e-06
-0.0170853
0.00533981
-1.2497e-06
-3.32175e-07
-4.30229e-07
8.56444e-07
-3.3795e-06
4.60815e-07
-0.000112816
0.00186232
4.29086e-07
-0.0219792
-2.24167e-06
-4.10579e-06
-2.96501e-07
8.31426e-07
6.7998e-07
2.64599e-07
3.44041e-07
-5.60028e-07
-1.12524e-06
-1.11106e-07
-1.15897e-06
-9.28482e-07
-1.28392e-06
1.35471e-05
-2.98738e-07
2.0818e-07
-3.77448e-07
0.0298637
-1.72623e-07
-9.23194e-07
-0.0358613
2.46609e-06
1.59212e-05
3.67127e-09
-3.60294e-07
-1.05739e-07
-3.10177e-06
-1.60058e-06
2.01794e-07
-2.27094e-05
7.93204e-07
-7.73975e-06
-3.34884e-07
-0.000831855
-8.58537e-07
-5.94972e-05
0.000107592
0.000123542
2.17995e-07
-1.38204e-06
-6.84353e-07
-4.02587e-05
-4.65146e-07
-2.12613e-07
1.77621e-07
7.78265e-07
0.0185686
-3.73477e-05
-1.53221e-06
5.01458e-07
3.233e-06
-1.2023e-06
-0.00105843
-1.48628e-05
-9.88824e-06
-3.10712e-06
-5.47766e-06
-0.000200824
-5.81884e-07
-5.53842e-07
4.21608e-08
2.12939e-05
-2.73442e-06
4.11205e-06
7.28708e-08
-3.75017e-07
4.8164e-07
0.0139944
-2.82588e-07
4.23275e-07
4.86322e-08
-3.86574e-07
-4.34889e-07
-5.9902e-07
-1.20511e-07
1.0984e-06
0.000244343
1.80667e-06
1.18214e-06
-9.9498e-07
0.0221436
3.34301e-07
-5.52918e-07
-4.6459e-07
-0.000384109
-0.000121765
-3.91e-08
2.9449e-07
-0.0301316
6.43765e-08
1.3961e-07
-3.15607e-07
-4.25802e-07
9.76959e-06
-1.48217e-06
-2.17027e-07
-6.42078e-07
-1.42832e-07
6.6349e-07
-2.73635e-07
-6.44089e-07
-1.32242e-07
-1.34602e-07
0.000125319
-1.18979e-06
-3.02769e-07
9.01249e-06
3.11664e-06
3.04171e-06
6.7213e-07
-3.23621e-07
0.00092309
7.55744e-08
7.61482e-07
-4.8571e-07
5.01129e-07
-1.52459e-07
-1.08548e-07
-1.16256e-07
3.81095e-06
-1.39369e-06
-7.93477e-08
7.35351e-05
4.54173e-07
-5.15251e-08
2.09036e-07
6.40152e-07
-1.69171e-06
-2.33447e-07
-0.000894544
-4.48431e-07
-1.68582e-06
-2.50539e-06
7.35375e-08
-2.64235e-06
-1.16766e-06
2.1282e-08
3.16991e-08
0.0280508
-7.01638e-06
8.34682e-05
-1.27381e-05
8.30041e-06
-2.23221e-06
4.82174e-06
-1.80432e-07
2.76929e-07
-2.26782e-07
-0.0486812
3.93191e-06
-1.22609e-06
-4.50957e-06
-2.94369e-07
7.68584e-08
-0.00574741
-1.79568e-07
1.79379e-07
0.000465587
-4.73137e-06
-5.46058e-05
-1.76252e-07
1.24866e-07
1.68769e-05
-2.95558e-07
-4.74043e-07
0.000115031
4.14491e-07
4.80408e-05
9.71997e-05
-0.0187337
-2.05693e-07
1.94749e-07
-6.68897e-07
-2.57998e-07
-1.37969e-06
5.51527e-07
-1.44726e-06
4.26583e-06
-5.08343e-08
1.46572e-05
-9.72833e-08
4.51653e-07
-3.53366e-07
0.00235668
-1.06658e-06
-3.73133e-07
-0.0508583
0.00111815
5.21056e-07
5.27138e-06
-4.29705e-07
1.98656e-07
-2.07706e-08
-5.51406e-07
-8.73894e-07
-3.61576e-06
5.67707e-06
3.45185e-08
-1.68654e-06
-6.63281e-08
-9.28799e-08
-1.46311e-07
2.61429e-07
7.47713e-08
1.36913e-07
-1.27165e-06
-1.61675e-07
-2.90765e-07
-0.00205876
-1.73122e-06
-4.18011e-07
-8.36559e-07
-6.00893e-07
7.57251e-08
0.000109726
0.00116213
-0.00192554
-4.22201e-05
3.76046e-07
-7.77573e-08
-7.95189e-08
1.74137e-05
-0.000229697
3.7946e-06
-0.00247462
0.000425846
-5.17909e-07
0.00124689
-0.000755495
7.11794e-09
9.49058e-06
2.6206e-07
0.000276467
5.12349e-06
0.0214332
-1.07835e-07
-8.77183e-07
3.30516e-06
1.21687e-07
-6.41234e-08
-2.13957e-05
0.00362999
-8.40053e-07
-2.1722e-07
-9.42613e-07
0.010963
-1.813e-07
-2.74478e-07
1.30404e-07
-1.25928e-06
1.3905e-07
1.09319e-05
-1.1765e-07
-4.66253e-07
6.28785e-08
2.6451e-06
9.55276e-07
0.000136873
4.16109e-07
-1.5038e-07
8.04246e-07
-7.6467e-08
-3.35466e-07
-7.65452e-07
0.000815296
5.0061e-07
-2.28017e-06
-4.66443e-07
-5.8766e-07
-1.35029e-07
2.61947e-07
4.95917e-05
1.37906e-06
-1.84763e-07
-7.9787e-07
-0.000580276
-0.00136437
-1.15457e-05
3.7373e-06
-1.46536e-07
2.8173e-06
1.02257e-07
-6.01206e-08
-1.83271e-07
-1.60145e-08
-2.34763e-07
-4.35631e-07
-1.58021e-07
0.00661511
-2.76029e-07
-0.000241255
0.000275932
-2.35676e-07
-2.5183e-05
4.05891e-07
1.88363e-07
-6.11651e-07
5.60228e-08
-2.11485e-07
-8.83701e-07
0.00104814
-2.61229e-07
-6.95484e-07
-1.52759e-05
6.46901e-08
-9.89565e-07
-1.08312e-06
3.77765e-05
4.84155e-08
-3.21888e-07
-0.000221781
1.53914e-07
-2.04903e-07
-2.00092e-07
2.55691e-05
-3.40137e-07
-6.73181e-08
1.14771e-07
-3.63776e-07
5.36529e-06
-3.7904e-05
8.41973e-08
1.14927e-05
-1.70805e-07
-1.40103e-07
-1.1044e-06
-0.00162518
0.00211786
-1.61839e-07
9.88032e-08
-1.12627e-06
4.8311e-08
-1.80901e-07
-5.10731e-07
-0.000505029
0.000615034
2.7938e-07
3.73807e-07
-2.38195e-06
-9.8502e-07
-3.18747e-07
-1.33069e-06
1.24866e-06
0.000232829
3.09936e-07
3.71867e-07
-0.0153345
3.21068e-07
-1.30354e-06
-3.16456e-05
-0.00644268
-3.22389e-07
-1.72512e-07
3.07105e-07
-4.46139e-07
-4.44553e-07
-0.00101388
-1.42558e-07
-0.00357129
-0.000129233
-8.87618e-09
-9.84584e-07
-0.000238957
-3.08415e-06
-2.28133e-05
0.00177907
-1.69119e-05
9.67978e-07
-4.36469e-07
-6.44428e-07
-0.00107853
-6.28455e-08
8.88785e-05
-2.62145e-07
-2.12917e-07
-1.25305e-07
-1.15464e-07
2.10176e-07
0.0012248
-7.84192e-08
-0.00405369
-0.00010169
1.54856e-05
0.000134433
-1.29116e-07
-1.32329e-06
3.3375e-07
-0.000213106
-4.0422e-07
-0.000818443
1.0268e-05
-1.96704e-07
-4.47187e-08
-0.00102747
-2.00396e-07
1.77118e-06
0.000302325
1.12927e-07
0.000247007
4.4056e-07
-7.96597e-06
-3.03914e-05
-3.5753e-07
-2.56845e-07
-3.60633e-06
-1.26938e-05
1.19938e-07
5.19145e-07
-9.462e-08
-1.59785e-07
-1.52687e-07
0.0018341
-5.48795e-07
-1.27014e-06
6.70876e-06
-1.04925e-07
0.000100405
-5.62837e-07
-3.82601e-07
-9.44253e-07
6.48048e-06
-2.05588e-07
-2.53044e-07
-0.00458794
-2.71423e-05
5.2917e-05
-3.48935e-07
-5.27156e-08
-1.52733e-07
-0.000823655
0.000306038
-0.0167016
-2.37599e-06
-6.26216e-07
2.10903e-07
-6.78706e-07
-4.53061e-07
5.11387e-07
-7.32218e-07
-1.17411e-07
-3.28721e-05
-7.57238e-07
-1.59649e-07
-2.15316e-08
2.5207e-07
-1.93417e-07
-3.08642e-07
-3.38165e-06
-3.41725e-05
-0.00131803
3.54714e-06
0.000694773
0.00207109
-2.21811e-07
-3.44094e-08
1.27036e-07
-3.25939e-07
-2.1775e-07
-3.22562e-07
-5.89926e-08
-5.583e-07
-1.66864e-07
-3.52746e-06
-1.18778e-07
-0.000236646
3.68779e-10
-4.57336e-07
-0.00165672
1.49794e-06
-5.53395e-07
-4.6065e-07
-1.40047e-07
-4.10535e-05
-0.00259192
1.6162e-07
7.74214e-08
1.84095e-06
-1.91835e-07
-3.87987e-07
-2.19446e-07
0.00600564
-1.26301e-06
-1.44627e-07
1.43839e-05
-2.40415e-07
-3.43206e-05
-1.24388e-06
3.76686e-09
-1.93131e-07
-0.00152778
3.63994e-05
-0.00368769
-0.00293601
-4.00396e-07
-5.33459e-07
-4.33647e-07
4.13996e-07
-9.37181e-06
-7.02079e-08
2.80847e-05
0.00418276
5.27772e-07
-5.10489e-07
5.09402e-06
-2.51912e-07
0.00240757
-3.27226e-06
-0.034893
2.57975e-06
1.28791e-07
7.52121e-08
3.90535e-07
-2.86427e-07
-5.23242e-05
-0.00189711
1.12863e-05
-3.30471e-07
-5.93872e-07
-1.78962e-07
-3.90416e-05
-3.50048e-06
-0.00200429
-2.27046e-07
-5.63854e-07
8.39904e-05
-7.98258e-07
-0.000119895
0.000168808
-9.975e-08
-3.09563e-07
-5.31111e-08
-6.81686e-07
0.000257542
-0.000162003
-1.41281e-07
-1.18789e-07
-1.50223e-07
-0.000178228
-4.48973e-07
-1.05479e-07
-0.032883
1.04968e-05
-6.90146e-05
8.45709e-07
-6.86675e-05
-1.18339e-07
-1.64027e-06
9.99452e-08
-1.76875e-07
3.71507e-07
-1.87008e-06
-2.66797e-07
-3.00959e-07
-3.7236e-05
3.19948e-07
-4.32897e-07
0.00116843
-3.38655e-07
-7.37513e-07
-6.31388e-05
5.525e-06
-2.09924e-07
4.94345e-08
1.14088e-06
0.00142929
-3.03172e-06
-0.00352886
-1.62084e-06
-9.87043e-05
-1.00994e-06
1.93685e-05
-2.28784e-07
3.95144e-06
-0.0138185
-9.44304e-07
0.000262482
3.37673e-06
-0.00557002
-2.56818e-07
-3.62434e-07
1.41408e-07
7.5302e-07
-1.78658e-05
3.12889e-07
-1.66388e-06
-1.96644e-06
-9.09155e-07
1.52397e-07
0.000309874
-1.69283e-07
0.000869678
-1.72674e-07
7.17125e-06
4.85205e-06
1.29174e-05
1.12426e-05
-2.20614e-08
1.208e-06
2.48023e-07
1.1097e-05
-1.73698e-07
1.0117e-05
0.000324507
2.46315e-06
0.00950624
4.89384e-08
-0.00022654
-7.33652e-07
-9.45009e-08
-5.32048e-07
-0.000555544
-5.78197e-07
-3.61758e-07
1.04103e-08
-5.87562e-06
7.07218e-08
-4.8884e-06
-7.6625e-05
1.14006e-07
-0.000118827
3.35229e-07
-2.46374e-07
0.000156667
-2.63279e-06
0.00109567
0.00320908
-4.43036e-07
-0.00204722
-0.00168454
-1.75181e-06
5.07074e-08
-6.61008e-05
0.00029948
1.10765e-07
3.23465e-06
-9.41467e-08
-0.00012125