/*--------------------------------*- C++ -*----------------------------------*\
| =========                 |                                                 |
| \\      /  F ield         | OpenFOAM: The Open Source CFD Toolbox           |
|  \\    /   O peration     | Version:  v2012                                 |
|   \\  /    A nd           | Website:  www.openfoam.com                      |
|    \\/     M anipulation  |                                                 |
\*---------------------------------------------------------------------------*/
FoamFile
{
    version     2.0;
    format      ascii;
    class       volVectorField;
    location    "800";
    object      ddtCorrDdt0(U);
}
// * * * * * * * * * * * * * * * * * * * * * * * * * * * * * * * * * * * * * //

dimensions      [0 1 -2 0 0 0 0];


internalField   nonuniform List<vector> 
9793
(
(0.0776341 -0.0191388 -6.00232e-19)
(-0.0116307 -0.018753 -1.02323e-20)
(0.0756559 -0.0265301 2.05412e-19)
(0.000131735 -0.000134483 3.21206e-19)
(-0.0262699 -0.29965 -1.18222e-18)
(0.000262758 -0.00345261 2.27832e-18)
(0.000178319 1.95966e-05 9.27842e-20)
(0.000136978 0.000375059 1.1102e-19)
(0.000501367 0.00184742 1.03184e-18)
(0.0613982 -0.312832 -2.87929e-18)
(-0.0606902 0.0418133 -2.98985e-18)
(0.0137389 -0.0341971 -9.54865e-19)
(0.000101544 -0.000125469 1.76121e-19)
(0.000458498 -0.0010646 1.99392e-21)
(5.86265e-05 -9.4257e-06 1.58462e-19)
(0.000228149 -0.000887287 -6.65763e-21)
(-0.00233753 -0.00420883 -9.79387e-19)
(-0.00277075 -0.0048089 -5.9234e-19)
(0.160021 -0.152401 4.74434e-18)
(0.00030489 -0.00103022 7.32445e-21)
(-0.0165814 0.0357539 4.90629e-19)
(0.00789729 -0.000742695 7.30673e-19)
(0.0230303 0.0597574 1.01657e-18)
(0.000554166 -0.00042111 -3.82159e-22)
(-0.00293477 -0.000207948 5.40726e-19)
(0.000105629 -8.27524e-05 -1.64372e-19)
(-0.000109454 -0.000914696 7.87086e-20)
(-0.000279205 -0.00289427 5.93251e-19)
(0.0161305 0.0522796 -1.0673e-18)
(0.000562519 0.00181764 -1.15345e-18)
(5.9107e-05 -0.00744592 -3.45785e-18)
(0.0257083 0.0485345 -1.3626e-18)
(-0.0248181 0.0489164 -9.43184e-19)
(4.58235e-05 9.10728e-06 -4.37461e-19)
(0.0303893 0.0551062 -3.3777e-21)
(-0.0786618 0.104034 2.29785e-19)
(0.000170389 8.38978e-06 -1.52441e-18)
(0.00761514 -0.00130279 -3.02625e-18)
(4.20023e-05 0.000786242 -4.21255e-19)
(-5.7015e-05 -1.42198e-05 1.61448e-20)
(-0.000524812 -0.00744994 4.23648e-18)
(8.09705e-05 -9.49652e-06 9.7445e-20)
(9.36279e-05 -2.91161e-05 5.53631e-20)
(0.00020707 2.416e-05 -6.70128e-19)
(0.000126029 -4.36995e-05 5.0184e-19)
(9.70079e-05 -8.71809e-05 -3.49432e-19)
(0.0198765 0.0586241 1.00278e-18)
(0.00458834 -0.0153105 8.33878e-20)
(-0.0187637 -0.00368012 2.6377e-19)
(0.00012555 -0.000129851 -1.74844e-18)
(0.0360482 0.0608464 1.50552e-19)
(-0.058362 0.0711422 -6.74684e-18)
(0.000840543 -0.0037164 -8.33191e-20)
(0.00209376 0.00150556 1.2807e-18)
(0.189874 0.299425 2.90379e-18)
(0.097654 0.0357229 -5.14553e-19)
(0.000397806 0.000694431 -1.86293e-18)
(-0.1362 -0.0580515 -2.30643e-18)
(-0.114279 -0.0295898 -1.04253e-18)
(0.000117282 0.000702846 1.55941e-18)
(-6.92907e-05 -3.61682e-06 -9.71589e-20)
(0.00159685 -0.0041935 -5.03337e-19)
(-0.031104 -0.0144343 -1.11806e-20)
(0.00040298 -3.68993e-05 6.28694e-19)
(-0.152787 0.284925 -3.99543e-19)
(-0.00611466 0.0333759 -1.20639e-18)
(-0.0291841 -0.00824148 -3.26897e-19)
(-0.0192267 0.000777801 -5.94699e-19)
(0.00919951 -0.0298607 1.13836e-18)
(-0.0532058 0.0458469 1.65358e-18)
(0.241334 0.202789 -1.18921e-17)
(0.000187937 -3.97623e-05 -8.19206e-21)
(0.000240871 -0.000730349 1.81312e-18)
(0.0244377 -0.00800097 -1.11574e-19)
(0.0492311 0.060512 -3.18416e-20)
(-0.107719 -0.0234522 -3.80135e-19)
(0.000491386 0.000784397 -1.59556e-18)
(0.00170805 -0.000362595 -1.0762e-19)
(0.0039342 -0.00273306 -4.39059e-21)
(0.000857314 -0.00326385 -5.46528e-20)
(-0.0106517 0.019978 4.96322e-19)
(0.00444994 -0.0013143 -3.26411e-19)
(-0.00606752 0.00864031 1.17845e-19)
(0.0134659 -0.00357644 1.2909e-19)
(-0.00056202 -0.00649357 -3.70411e-21)
(0.00886536 -0.0122938 -1.33323e-20)
(0.000870134 -0.00369365 -1.30517e-18)
(0.000599146 0.000875096 2.78445e-19)
(0.00156847 -0.00360925 3.55445e-19)
(0.00498759 0.000342098 -2.45735e-19)
(-0.0167646 -0.0249723 -1.21399e-19)
(-0.0418882 0.736839 -3.27779e-17)
(-0.000327763 0.00159193 1.93861e-19)
(0.0335984 0.0318319 -1.02835e-19)
(0.00174318 -0.00399636 -6.69727e-19)
(0.0152877 -0.00199556 -1.30822e-19)
(0.0778139 0.0521129 1.53209e-20)
(-0.0127664 -0.00348154 -1.95006e-19)
(-0.000358298 0.00138342 2.72894e-20)
(0.000466722 0.000594954 -5.80692e-19)
(0.0005104 0.000491688 5.71979e-20)
(0.0032799 0.00272054 4.02052e-20)
(-0.00102336 -8.8548e-05 -2.72841e-19)
(-0.000896961 -0.000100643 -1.6516e-19)
(0.0015941 -0.000243914 1.1415e-19)
(-0.000984851 -0.00637221 -3.42471e-19)
(0.00172734 -0.00347192 4.86963e-19)
(-9.99433e-06 -2.96923e-05 4.81184e-20)
(0.000959358 -0.00354912 9.92397e-19)
(-0.00195387 -0.0152189 -3.49301e-20)
(0.000181152 -3.14067e-05 1.6215e-20)
(0.0332357 0.0136688 6.22717e-19)
(0.00036417 0.000517227 1.45988e-18)
(-0.0053227 0.259399 -5.57428e-18)
(-0.047863 0.0818385 1.59834e-20)
(0.00043302 0.00077155 1.26726e-18)
(0.00100099 0.0547699 2.7056e-19)
(0.0528954 0.0519654 1.94639e-19)
(0.00493602 -0.00167922 4.59914e-19)
(0.0326068 0.0229204 3.33816e-19)
(-0.000226557 -0.0174286 1.39188e-20)
(9.99987e-05 -6.66364e-06 5.36488e-20)
(0.00101748 0.000154387 -5.43165e-19)
(0.000137517 -0.00363845 -1.31703e-18)
(0.00295581 0.00280313 3.17615e-18)
(-0.000152477 0.0342536 -1.75115e-18)
(-0.0244733 0.000734112 -1.86427e-18)
(0.011833 -0.0115345 6.67452e-20)
(0.00429573 -0.00315289 -5.38456e-19)
(0.000568178 -0.000554219 7.96308e-19)
(0.000197889 -1.97319e-05 -2.69181e-21)
(0.000534833 0.000875638 -1.14535e-19)
(0.000588502 -0.000571849 -1.17162e-18)
(0.00119265 0.00379648 -3.9799e-19)
(0.000541217 0.00166414 -7.7481e-19)
(0.000715643 0.000929128 -2.15779e-18)
(0.000446484 -2.77251e-05 -4.8047e-19)
(0.000208259 2.02149e-05 8.48704e-19)
(0.000390405 0.000489157 -1.66465e-18)
(8.85788e-06 1.89048e-05 -1.1933e-20)
(0.00098891 0.000103569 8.4903e-19)
(-0.00287055 0.000189595 -3.11839e-20)
(6.67026e-05 2.25102e-05 4.16022e-20)
(0.000878046 0.000245274 -1.96954e-19)
(0.000567558 -0.00122934 -1.33152e-21)
(0.000627844 -0.00159977 -4.47841e-22)
(0.0145627 -0.0133902 1.75604e-20)
(0.000863323 0.00035847 -1.85832e-20)
(-0.000719362 0.00101684 -1.71121e-19)
(-0.122054 0.897056 4.68864e-17)
(0.0375851 0.010607 -3.14229e-18)
(0.000199763 -1.62697e-05 1.80278e-20)
(0.038514 -0.0203508 3.42899e-18)
(0.0622758 -0.233217 -4.31432e-18)
(-0.000675961 0.000859983 2.74017e-19)
(0.000140659 -1.06299e-05 4.02301e-21)
(8.59371e-05 3.08596e-05 -3.14904e-20)
(-0.00269026 0.000321532 -9.98485e-19)
(0.000697234 0.000388854 2.5398e-20)
(5.80575e-05 2.60212e-05 -1.54234e-19)
(0.000156932 0.000426149 6.07847e-20)
(-0.00064368 -0.00285583 -4.66374e-19)
(-0.000179496 -0.000605031 1.03378e-19)
(0.0938521 -0.233901 -9.01762e-19)
(0.0201987 -0.0159413 -1.82263e-20)
(-0.0369893 0.0485248 4.19948e-20)
(0.00712767 -0.0159197 1.59042e-20)
(0.0140348 0.00870937 6.05403e-20)
(-0.000139382 -0.000795366 -5.86823e-20)
(0.00226013 0.00189974 -2.97026e-19)
(-0.000925619 -0.00123268 1.69197e-18)
(-0.0247983 0.0368829 -1.1119e-21)
(0.0169826 -0.0201868 -2.65297e-20)
(-0.0153219 0.0937848 2.47528e-18)
(0.00243248 0.00287633 9.80496e-19)
(0.127063 -0.164306 -4.50905e-18)
(0.000654401 0.000947929 -1.33407e-18)
(0.000520062 -0.000185658 6.86429e-21)
(0.000593984 -0.000692654 9.98706e-19)
(-0.000162546 0.0190422 -1.873e-18)
(0.0461072 -0.735014 -4.31582e-18)
(-0.000325625 0.0046534 5.86559e-19)
(0.000654716 0.000501104 4.71209e-19)
(-0.00276166 -5.69357e-05 1.72332e-18)
(-0.0957474 0.0808255 2.89508e-18)
(0.000223341 -0.000683354 -4.38248e-19)
(-0.162665 -0.0795328 7.72952e-19)
(0.000533637 -0.000659567 -8.35981e-19)
(0.00108889 -2.6133e-05 -1.87115e-19)
(-8.074e-05 -0.000608005 4.16945e-20)
(0.00221566 0.00309243 -8.47153e-19)
(0.000475755 0.000218075 6.45052e-19)
(-0.0186124 0.000670303 2.0834e-20)
(0.026439 0.0238645 -7.48507e-19)
(-0.0186805 -0.00358954 6.03319e-19)
(-0.000296112 0.0177754 -2.99449e-18)
(0.0903429 -0.047077 -1.72591e-18)
(0.00276348 0.000497277 -1.73005e-19)
(0.043087 -0.169895 5.11584e-18)
(1.41312e-05 2.00571e-05 1.93311e-20)
(0.00059153 0.0016284 4.96601e-19)
(0.00336746 -0.222583 -7.85347e-19)
(0.0841531 0.100442 -2.44342e-19)
(0.000598078 -0.000530729 -1.20472e-19)
(0.000782242 0.000990076 8.35869e-19)
(0.00137159 -0.000360246 -1.52368e-20)
(-0.0418323 0.0806609 -7.60622e-19)
(0.000731569 -0.000652742 -5.22875e-20)
(-0.000858849 -0.00570647 -2.88793e-18)
(0.00356524 0.0050593 -2.83865e-18)
(0.00913704 0.0259515 2.75986e-19)
(-0.0157576 0.00154206 2.24592e-20)
(-0.0199725 -0.00595269 -5.61682e-20)
(0.00208365 0.00171115 -1.17223e-18)
(0.0922011 -0.0526286 -1.47038e-19)
(9.62987e-05 3.3675e-05 -2.1382e-20)
(0.00160577 0.0025363 -4.13003e-20)
(-0.0846242 0.093332 -5.94928e-20)
(0.00126892 -0.000258322 1.8169e-20)
(-0.0154021 -0.044079 -1.37203e-18)
(0.0824575 0.0273286 2.31796e-18)
(0.000863706 0.00056072 -2.29865e-19)
(0.00272746 0.0030626 3.05079e-19)
(0.000445403 0.0002029 -8.17442e-19)
(0.0147726 -0.00656668 1.80381e-19)
(0.0511626 -0.222339 9.29875e-19)
(0.00049475 -0.00344348 2.20812e-18)
(-0.000745034 0.000590752 -3.7188e-19)
(0.081798 0.0383121 -1.73274e-18)
(-0.0338343 0.0471277 -1.502e-18)
(0.000636142 -0.000348518 9.67185e-21)
(0.000554291 -0.000307327 -3.02526e-21)
(-0.000602637 0.00478682 -1.29026e-18)
(2.92948e-05 2.69315e-05 -5.10462e-21)
(-0.0367622 0.00789099 -1.2002e-18)
(-0.0113853 -0.0333993 3.27529e-19)
(0.000446902 0.00048057 -1.31586e-18)
(-0.000776789 -0.000899556 4.13954e-19)
(0.0785789 0.0172685 -5.30544e-19)
(0.00368507 0.00127454 -1.65764e-19)
(-0.00115087 -0.00555865 3.19046e-18)
(0.000770524 -0.00107458 -2.93251e-20)
(-0.000879048 -0.000480252 -3.51593e-19)
(-0.0158326 0.0408586 2.11484e-18)
(-0.00063556 -0.000765089 -9.0155e-19)
(-0.000546931 0.00113493 -3.2199e-19)
(0.000172634 0.000313747 -2.99873e-19)
(-0.0027422 0.000620618 -2.96443e-19)
(-0.000555777 0.00131818 3.81447e-19)
(4.68877e-05 1.44105e-05 6.01051e-20)
(0.00333348 -0.000429745 3.20548e-19)
(0.00396231 0.0102579 -8.28045e-19)
(-0.0334992 0.0767901 -2.32347e-19)
(-0.0301404 0.00327143 -4.99828e-18)
(-0.000680025 -0.000285597 1.76757e-18)
(0.00777496 -0.00393913 -8.98997e-19)
(-0.000667394 -0.00133408 -1.22624e-18)
(0.00443468 0.0110939 5.98411e-19)
(-0.000997378 -0.00378733 -2.5211e-18)
(0.000756867 -0.000462107 4.98263e-20)
(-0.00312912 -0.0365702 -1.08902e-19)
(-0.000657373 -0.000892714 1.71343e-18)
(-0.0214102 0.082052 1.40367e-18)
(7.77096e-05 3.89027e-06 -9.60621e-20)
(0.0146456 0.010132 -1.19984e-18)
(0.000932261 -0.000376831 4.66821e-21)
(0.00089124 -0.000288295 -4.85944e-21)
(0.0121035 0.0250551 -3.01681e-18)
(-0.0401581 -0.251519 8.91431e-19)
(0.00148704 -0.00309337 -3.01743e-18)
(0.000833372 -0.000384974 -6.27933e-21)
(-1.19708e-05 -0.00025533 4.83028e-21)
(0.0151498 -0.00406172 1.07827e-18)
(0.000793349 0.000715392 1.32414e-18)
(-0.00604452 -0.0294249 9.31381e-20)
(-0.00454236 -0.0298783 -6.57434e-20)
(0.000612729 -0.000563928 -4.72793e-19)
(0.0286528 0.0400881 1.43574e-19)
(0.000478806 6.91689e-05 -8.50903e-19)
(-0.0279466 -0.000458848 5.75592e-20)
(-0.00253361 0.00077134 1.18863e-19)
(0.000741786 -0.000249606 8.56679e-21)
(4.56698e-05 -2.49642e-05 -7.01651e-19)
(-6.15921e-05 -1.24438e-05 1.55379e-19)
(-0.0224013 -0.00133637 -9.53374e-19)
(0.000889729 0.000504331 6.25324e-19)
(0.00327265 -0.000637974 1.33889e-18)
(0.0105893 0.0109916 8.99068e-19)
(0.000185343 2.94656e-05 -3.39552e-19)
(0.000853531 0.000940046 1.00827e-18)
(0.000437076 0.000504674 5.8062e-19)
(-0.0080269 0.0600714 3.37197e-19)
(0.000935626 -0.00311348 8.14185e-19)
(0.000186802 1.41738e-05 4.37505e-19)
(0.000209379 -1.26157e-05 -1.29525e-20)
(0.00176257 0.00380056 -1.96148e-19)
(0.00417859 0.00237667 6.29143e-20)
(0.0115816 0.0118897 -1.91701e-18)
(0.000461181 -1.66755e-05 -4.11399e-19)
(-0.0759641 -0.633252 3.95564e-18)
(-0.000809355 0.000708984 -4.15244e-21)
(0.052937 -0.104457 -4.10427e-19)
(-0.059837 0.0970745 6.37309e-21)
(2.46727e-06 -2.31156e-05 -3.64511e-19)
(0.000156003 -2.36574e-05 4.17501e-19)
(0.000935903 -3.22251e-05 7.64056e-20)
(0.0162478 -0.00510748 9.31252e-19)
(0.0115842 0.00394395 -9.28833e-19)
(-0.00230975 0.00118195 9.04715e-19)
(0.0465691 -0.11299 -1.14962e-19)
(0.000459593 6.80195e-05 -4.94598e-20)
(0.000881641 -0.000121595 -1.19396e-19)
(0.0122291 0.00346972 1.2269e-18)
(0.00341196 -0.00165278 3.20104e-19)
(0.00246918 6.14764e-05 9.58516e-19)
(0.00438706 0.000521353 2.09852e-19)
(0.0125271 -0.00762778 -9.64958e-20)
(-0.00126921 4.683e-05 -6.30666e-19)
(0.0144458 -0.00155039 -1.10472e-18)
(0.00337356 0.00553445 1.90072e-18)
(-0.000852119 9.75758e-05 2.09294e-19)
(0.0239586 -0.0124636 2.12464e-19)
(0.0923152 -0.0750085 1.29248e-18)
(0.0210193 -0.0082504 6.82097e-20)
(0.00109188 -0.000278854 4.17716e-20)
(0.0152583 -0.653739 -4.85463e-18)
(0.00486251 0.00203123 1.56481e-20)
(-0.114212 -0.0407839 -1.1427e-18)
(0.065427 0.0519749 1.08181e-19)
(-0.00014376 -0.000415099 4.19023e-20)
(-0.00277288 0.00507363 -1.82768e-19)
(0.0682582 0.0425844 -7.04496e-19)
(0.00277087 0.00248451 -5.37216e-19)
(-0.00095548 -0.00504451 -9.20519e-19)
(-0.0804975 0.0593397 -1.97238e-18)
(0.000243977 0.000253358 1.29416e-19)
(8.08429e-05 -2.62698e-05 1.53362e-18)
(0.000615935 0.0015312 -1.76253e-18)
(7.70325e-05 9.53696e-06 -1.90011e-20)
(1.72526e-06 -0.00320529 -6.0773e-19)
(0.0916882 -0.0326695 -4.54619e-19)
(0.000527315 -0.000704449 5.49125e-19)
(-0.000763779 6.61409e-05 3.70332e-19)
(-0.0887365 -0.567793 2.56406e-17)
(0.00344041 0.00175927 1.30539e-19)
(0.000102754 -0.000846505 -2.1002e-20)
(0.00105341 -0.000386453 -4.42507e-20)
(0.00593727 5.84915e-05 6.01179e-20)
(0.000226591 0.000302509 -7.71172e-19)
(0.0956348 -0.0394122 1.58795e-18)
(0.00353653 0.00264322 1.15433e-18)
(0.00137371 0.000251735 -1.81942e-18)
(0.00279578 -0.00141094 2.46829e-18)
(0.00365628 0.00232258 -4.63948e-21)
(0.0604855 -0.0697577 2.90607e-19)
(0.00190851 0.00148211 -1.7113e-18)
(-0.000956442 -0.0121397 4.56416e-19)
(0.000565299 -0.000220002 -3.41204e-20)
(-0.00660264 0.0384604 -9.76196e-19)
(0.264555 0.193561 -1.92919e-18)
(-0.194982 -0.051759 1.06584e-17)
(-0.00811094 0.0413672 -6.4165e-19)
(0.00557372 -0.000162322 -6.27179e-19)
(0.00115303 0.00500219 1.40313e-19)
(0.091784 -0.0571026 -2.3704e-18)
(-5.81795e-05 -3.2525e-06 2.13255e-19)
(-0.00500947 -0.0428001 9.97815e-20)
(0.00397038 6.96999e-05 -3.41969e-19)
(3.59328e-05 2.79859e-05 1.1287e-21)
(-0.0390772 0.0810754 -7.1728e-19)
(-0.00114593 -0.00484768 1.02376e-18)
(0.0943153 -0.0762403 -9.55368e-19)
(0.00133934 0.000265813 1.68255e-18)
(-0.0420439 0.0076126 3.98902e-18)
(-0.111611 0.0855109 -7.36372e-19)
(-0.00301393 -0.00171984 1.67659e-18)
(0.000220374 -0.000572316 6.91025e-19)
(-0.0208273 0.0626404 -5.34571e-19)
(-0.00282041 0.0129626 -4.33331e-19)
(0.0170886 -0.0140619 -5.45022e-21)
(0.00827931 -0.0033406 -2.13467e-18)
(0.00162649 0.00157019 -1.00919e-19)
(-0.014473 0.213981 1.82076e-18)
(0.000462958 -1.58162e-05 1.57069e-19)
(0.00556004 0.00156242 1.47483e-18)
(9.05958e-05 1.18358e-06 -9.34525e-21)
(-4.65192e-05 -1.61317e-05 2.20072e-19)
(1.83771e-05 -0.000949106 -4.71471e-20)
(0.00175229 0.00164691 7.46396e-20)
(0.00780155 -0.00253732 1.73323e-18)
(0.0418626 -0.0625658 -7.2624e-19)
(0.00190384 0.00268438 -2.50505e-18)
(0.130821 0.0545927 3.50918e-17)
(0.0374404 -0.0121343 -7.88969e-20)
(0.0886954 -0.0634263 -8.66653e-19)
(-0.0378717 0.0401243 -2.19652e-18)
(0.0140484 -0.00496915 2.00768e-20)
(-6.02281e-05 1.9062e-05 4.07693e-22)
(0.00053951 0.00142824 5.59283e-19)
(0.144945 -0.0675445 -1.17691e-18)
(0.0334207 -0.021337 1.79533e-19)
(0.000923936 -0.00105368 1.07555e-20)
(0.000125599 0.0029923 -9.33888e-19)
(-0.250426 -0.0773436 -2.25247e-18)
(-6.32154e-05 -0.00026436 1.50938e-20)
(-0.061928 0.308986 3.41895e-18)
(-0.000794238 -0.00104603 -2.10706e-18)
(0.0081683 -0.00195925 2.21305e-18)
(-7.41134e-05 -0.000235389 1.62747e-20)
(0.0179294 0.0261516 -6.0297e-20)
(0.000462239 -0.000680916 3.43511e-19)
(-0.00320856 0.0141447 -8.52915e-20)
(0.00981717 0.0528327 -1.00934e-19)
(0.00082008 -0.000599027 -2.44966e-20)
(0.0117504 0.0790348 1.62234e-18)
(-0.00593097 0.0020971 1.3894e-19)
(0.00393 0.00274619 -1.27833e-18)
(-0.00572608 0.00132691 -5.52919e-19)
(0.00354166 0.000265376 1.38305e-19)
(0.00170146 -0.00329367 1.97681e-18)
(0.000849613 -0.00163047 1.89623e-21)
(0.00507271 -0.115592 -4.37619e-20)
(0.000469703 5.81659e-05 -9.97915e-19)
(0.00261532 4.4525e-05 -2.3709e-18)
(-0.0734148 0.0727677 6.36398e-18)
(0.00133093 0.0016347 -2.35011e-19)
(-0.00127978 -0.00377101 5.23637e-19)
(0.00462798 0.00244874 9.96172e-19)
(-0.000196243 -0.000537091 -7.62237e-20)
(0.00122182 0.0210143 1.46962e-18)
(0.000107879 3.10603e-05 1.01264e-18)
(0.00265858 -0.000145394 1.58103e-18)
(-0.000144637 -0.000162229 -8.26562e-20)
(-0.0815345 0.122353 1.91112e-18)
(0.000499816 -0.001393 -1.0146e-20)
(-0.0921673 0.108651 2.63439e-18)
(0.00197725 0.00210367 -1.16747e-19)
(-0.0124122 0.0113349 -4.17273e-19)
(0.000137161 -3.33964e-05 -2.44624e-18)
(0.00267052 0.00204676 9.40344e-19)
(0.00018525 -5.24546e-06 8.083e-19)
(0.00197867 0.00248895 1.05773e-18)
(-0.105578 0.00617546 -8.67305e-19)
(0.00284981 6.71999e-05 -1.74637e-19)
(0.304057 0.0831905 -1.41216e-17)
(-5.08294e-05 -0.000699414 -3.56027e-20)
(-0.00102467 -0.00126072 2.11853e-18)
(0.00536635 0.00204413 -1.02754e-18)
(-0.236906 0.0860172 4.84839e-18)
(0.000325453 -0.00794891 -6.94012e-19)
(-0.0225257 0.538834 1.80707e-18)
(-0.0139809 0.00442861 3.74948e-19)
(0.00062103 -0.00366236 -1.47496e-18)
(0.000652154 6.01944e-06 -2.88472e-18)
(-0.00508701 -0.0131771 -1.06446e-18)
(0.00325528 0.0208686 2.41332e-18)
(0.0178026 0.0225534 3.75633e-19)
(-0.00803266 -0.00642611 3.12262e-20)
(0.00334917 -0.195702 6.17075e-19)
(0.00047374 5.88812e-05 2.25611e-19)
(-0.00469801 0.00173592 -7.71968e-20)
(-0.0442042 0.0146584 1.18707e-18)
(0.00109641 0.000133686 4.17732e-19)
(0.00501887 -0.000355303 1.02288e-19)
(0.00107671 2.48743e-05 2.6643e-18)
(-0.00105045 3.89438e-05 -2.30052e-19)
(-5.38176e-05 -4.82715e-06 1.16741e-19)
(0.0714641 0.178337 -1.27423e-18)
(-0.00185676 0.015093 -1.2552e-19)
(-0.0605911 0.13484 4.14483e-18)
(-0.00119967 8.73081e-05 -6.58682e-20)
(0.0153231 -0.00717381 1.52563e-18)
(0.000480946 -0.000214594 4.9077e-21)
(5.76632e-05 1.38148e-05 6.85263e-20)
(0.000191527 9.66663e-06 -3.85497e-20)
(0.0045097 -0.000748053 -9.15178e-20)
(-0.00544763 -0.0110417 2.54699e-18)
(0.00197022 0.00245525 1.90612e-19)
(-0.0041835 0.00160008 8.44498e-21)
(-0.00020507 -0.000261186 3.5375e-20)
(0.000386843 -6.66477e-05 1.2104e-18)
(-0.00177757 -0.00390414 1.93499e-19)
(0.00215907 -0.0164995 1.82482e-20)
(0.00018282 3.47993e-05 -6.72922e-19)
(0.000620528 -3.89847e-06 2.40824e-18)
(-0.0664911 0.0961557 1.42631e-18)
(-0.000937405 -0.00445383 -8.41942e-19)
(0.00329797 0.002952 -1.65065e-18)
(-0.0475819 -0.0212188 6.02256e-19)
(-0.0154244 0.00841926 1.43149e-18)
(8.48827e-05 2.26887e-06 -6.53173e-21)
(8.77816e-05 3.88335e-06 8.83598e-20)
(0.00609614 0.00150571 -3.81147e-19)
(-0.00150266 -0.00402361 -1.74866e-19)
(0.00282188 -0.000163515 -3.45062e-18)
(0.000202832 -6.21343e-05 -1.42962e-19)
(0.000495173 -2.97267e-06 -3.8139e-19)
(0.00295767 0.000821902 2.70656e-20)
(-0.000777729 -0.00138852 -1.86568e-18)
(-0.000722098 -0.000384747 -1.32944e-18)
(0.0113294 -0.00854638 -8.11982e-21)
(-0.0224545 0.0993919 -3.46138e-19)
(6.45066e-05 2.3943e-05 -6.23911e-21)
(-0.10645 0.0299842 3.64543e-18)
(0.0284049 -0.00552574 7.59035e-19)
(4.84318e-05 0.00105703 -8.06355e-20)
(0.00116961 -0.00319207 7.13805e-19)
(0.00415348 -0.00233692 4.65986e-19)
(0.0260696 0.00652899 -2.70878e-18)
(-0.00254101 0.00108142 -1.06932e-18)
(0.0817326 -0.084362 9.75596e-19)
(-0.000126222 -0.000464074 -4.44772e-20)
(-0.000818434 -0.000615692 -1.0534e-19)
(-0.0390358 0.0568236 -8.1201e-19)
(0.00102689 -5.36129e-05 1.70046e-18)
(-0.0125299 0.025555 2.53902e-19)
(-0.0243432 0.0605732 -3.52018e-19)
(0.015753 -0.00228363 -9.7771e-19)
(0.000174651 0.000987987 -3.09768e-19)
(0.105301 -0.0198151 -4.89519e-17)
(-0.00109063 -0.00430029 4.21063e-20)
(0.000321253 -0.000820346 1.73253e-19)
(-0.0014705 -0.000516449 -2.21272e-19)
(-0.0379522 -0.0190143 -7.22353e-20)
(-0.000534222 0.000642412 4.99563e-19)
(0.000229549 -0.000754779 -4.5119e-20)
(0.000483948 3.48e-06 -5.77276e-20)
(-0.000486617 0.000580226 -1.52108e-18)
(-0.00868749 0.0462258 7.38115e-19)
(-0.0346634 0.00244566 2.28757e-18)
(0.0257833 -0.00524355 7.38594e-19)
(0.000829852 -0.00328993 -7.6936e-19)
(-0.0013926 -0.00039487 -6.23478e-19)
(-0.00104425 7.84324e-05 2.82588e-19)
(0.0014853 0.00116601 -3.51833e-19)
(0.000226452 -1.73079e-05 2.24151e-20)
(0.000477752 2.12729e-05 -1.042e-18)
(0.0127608 0.00272526 -8.39902e-19)
(-0.223925 -0.069484 -1.13127e-17)
(8.17382e-06 -0.000294876 -3.81026e-21)
(-0.00186423 0.00534659 3.18049e-20)
(0.161448 -0.0983936 1.00751e-17)
(0.00110726 -0.00145838 1.35681e-18)
(0.00109713 -0.0067925 2.87213e-22)
(-0.000847689 -0.0138836 -2.71275e-18)
(0.000226656 -2.03423e-05 5.02115e-21)
(-0.0708998 0.0463515 -2.47013e-19)
(-0.0495137 0.186164 -1.24659e-18)
(0.000856118 0.000660625 1.05274e-18)
(-0.0128281 -0.183962 1.33021e-17)
(0.000764771 -0.000162842 2.6971e-21)
(0.0357594 0.188305 -3.04742e-18)
(0.00860997 0.0111781 -1.86621e-18)
(0.00884022 0.134661 6.51872e-19)
(0.000251697 -0.000605431 -9.38069e-19)
(-0.000823708 -0.000365411 5.50427e-19)
(-0.00159049 -0.00425626 1.11284e-18)
(-0.0266371 -0.0265727 1.02862e-19)
(0.000674628 0.00538327 -4.88831e-19)
(-0.0631812 -0.0252794 -6.01619e-20)
(-0.0120956 0.0120048 1.62928e-18)
(-0.150874 0.75627 2.84581e-17)
(-0.0138542 0.0277242 -1.27093e-18)
(0.0693384 -0.0831172 -8.6358e-19)
(0.0203552 0.0203389 -1.17976e-19)
(0.000102924 -1.58158e-05 -7.87767e-19)
(-0.0123625 0.0157395 -3.73573e-18)
(-0.00123856 0.00508282 -1.11802e-20)
(0.00100068 -0.0205738 3.82824e-20)
(0.00230858 0.000877248 5.19827e-19)
(-0.0121577 0.0178627 1.55972e-20)
(-0.000256978 0.000149527 4.30573e-20)
(-0.00244504 -0.00625635 5.32575e-21)
(3.48194e-05 -2.58085e-05 5.69506e-19)
(-0.000424039 0.00316824 2.75208e-18)
(-0.000944301 4.7072e-05 -9.80039e-19)
(-0.0344379 -0.232926 1.48571e-17)
(-0.000282081 -5.55565e-05 1.22055e-19)
(5.71893e-05 4.96394e-06 -2.8845e-21)
(0.000725759 0.00527298 1.12285e-18)
(0.00466217 0.00550111 3.03027e-18)
(-0.00219694 0.0165465 -7.18955e-19)
(0.000313744 -0.000693788 3.47368e-19)
(0.000871885 -0.000109027 -2.76586e-19)
(0.00111315 -0.00134811 -1.24261e-19)
(0.00100102 -0.00125677 -5.79465e-20)
(0.161363 -0.0929783 -4.49463e-18)
(0.000162423 -0.000186312 -1.22752e-18)
(0.0196198 -0.203799 2.0305e-19)
(-0.157551 0.302477 4.27746e-19)
(0.00014652 -0.000172857 1.24073e-18)
(1.2488e-05 -2.8533e-05 -7.98044e-19)
(0.0165408 -0.00809917 1.66881e-18)
(0.000317393 0.00312062 5.60158e-19)
(0.00100016 4.23221e-05 -2.11105e-18)
(0.00337949 -0.00110535 -1.51778e-18)
(-0.00291397 -0.00198886 5.37273e-19)
(0.0079184 0.0121171 2.16457e-18)
(-0.000800584 0.00400561 -1.06124e-19)
(0.00438314 0.00595929 -4.25327e-18)
(0.00012475 -0.000483906 -2.011e-19)
(0.00474324 -0.00222992 1.43357e-19)
(0.00509704 5.00967e-05 -1.89772e-18)
(0.00583811 0.0109713 -2.56299e-19)
(0.00315247 -0.001655 1.21027e-18)
(0.00645782 4.41067e-05 2.12886e-18)
(0.0249122 -0.256567 5.79638e-19)
(0.00144003 -0.00103125 1.37238e-18)
(0.0281416 -0.128189 -3.14607e-19)
(-0.00347056 0.0109638 -3.80827e-18)
(0.000174888 1.85358e-05 -5.71198e-19)
(0.000916508 -9.20614e-05 -2.40186e-19)
(0.000493543 0.00037016 -4.70526e-19)
(0.00352418 0.00484492 -2.02223e-20)
(0.00346815 0.00565799 3.98647e-20)
(-0.000707975 -0.000632615 1.65888e-18)
(-0.00186634 0.00323102 2.64258e-19)
(0.000405599 -0.000332109 2.88973e-21)
(-0.00114684 1.15219e-05 -1.63014e-20)
(-0.00143313 0.00349923 1.73358e-19)
(0.000469173 -0.00012156 6.27559e-19)
(0.00650598 -0.0043165 -1.14681e-18)
(1.37067e-05 6.06785e-05 -1.25684e-20)
(-0.000241674 0.00337936 5.77773e-19)
(-2.04637e-05 1.15994e-05 -3.28793e-19)
(0.00145815 0.00171736 1.42465e-19)
(0.00585728 -0.00416152 -6.83495e-19)
(-0.000875181 0.00419087 2.00378e-18)
(-0.013989 0.0173511 -1.41021e-18)
(0.000152301 -2.16558e-05 -5.33817e-19)
(-0.000467023 -0.000424745 4.69962e-19)
(0.000916752 -5.5359e-05 6.37522e-19)
(0.000314073 -0.000572136 -3.96938e-19)
(-0.00035394 0.000616827 -1.22154e-21)
(8.71882e-05 1.72138e-05 3.41924e-20)
(-0.00044392 0.000615989 2.89387e-20)
(-0.000682931 0.00010328 -2.41667e-19)
(0.00148165 -0.000950641 -3.31337e-19)
(-0.000293634 2.27002e-05 -8.51816e-20)
(0.0107278 0.0329985 -6.90443e-19)
(-6.53161e-05 1.355e-05 -9.22335e-21)
(9.60144e-05 -2.63824e-05 -3.75684e-19)
(0.000998706 0.000273761 -6.45766e-19)
(-0.00536981 0.0145034 6.56371e-19)
(0.000220928 -0.00020206 -2.15871e-18)
(-0.000116805 -0.000237595 -2.97916e-20)
(-0.0594769 0.027179 2.3524e-18)
(0.000716919 -0.000105314 -9.63172e-20)
(-0.000931004 -0.00242413 5.89279e-19)
(-0.0321525 -0.257639 -2.68303e-17)
(-0.00284084 -0.0003816 -1.15206e-18)
(1.1445e-06 -2.61893e-05 -1.34807e-19)
(0.000202644 8.09326e-06 -1.89495e-21)
(-0.1128 -0.0720837 -6.52117e-19)
(0.000435383 0.000368403 5.88336e-19)
(-0.0510752 0.0157315 1.25497e-18)
(-0.107554 0.502451 2.80607e-17)
(-0.0225143 0.0357332 -9.76224e-19)
(-0.00487945 0.0144623 -8.70107e-19)
(-0.000794658 -0.00231889 -3.23124e-19)
(0.00111842 0.000291304 -3.93611e-19)
(0.00540683 -0.138102 -5.83947e-20)
(-0.00574962 -0.00163086 -2.15618e-19)
(-0.000150991 -0.000194539 5.10446e-20)
(0.0145549 -0.00804463 -1.48253e-20)
(-0.0159764 0.0154412 6.01149e-19)
(0.241796 -0.165206 -1.24282e-17)
(0.000959204 -3.56636e-05 -1.1098e-18)
(-0.0438017 -0.0241635 -3.9523e-18)
(0.00107446 0.00031567 -7.30686e-19)
(0.000976709 0.000217669 4.1566e-19)
(0.0260387 0.278059 5.30077e-18)
(0.000482973 -9.87885e-05 1.14489e-18)
(-0.0298457 0.0705806 1.73498e-18)
(0.0039914 0.00353956 4.13166e-20)
(-0.00698703 0.101459 2.53241e-19)
(-0.000441566 -0.000331409 9.84661e-20)
(0.00827314 0.00455151 -1.2036e-18)
(0.00475282 -0.000151948 2.91968e-18)
(-0.00792547 -0.208987 -1.65102e-17)
(-0.011638 -0.190466 2.96007e-19)
(-0.000943294 -0.00107472 2.47996e-19)
(0.00330597 0.00360678 -1.8382e-20)
(-0.00856128 0.0080885 1.01671e-18)
(-0.000610304 7.40053e-05 -1.94062e-19)
(-0.00088761 -0.00397296 2.85849e-18)
(-0.0516315 0.024718 -1.15984e-18)
(-0.23902 -0.427228 -7.63981e-18)
(0.000156194 -0.00061482 -7.89105e-19)
(0.000391842 -0.00633148 1.63303e-20)
(-0.00547861 -0.0022313 4.15287e-19)
(0.031632 -0.0211019 -1.87135e-18)
(0.000303055 -0.00555658 -4.80355e-21)
(-0.0272573 0.0747894 1.45391e-18)
(-0.0101989 -0.00609125 -8.56622e-20)
(0.00189579 -0.00297613 -3.18274e-20)
(0.000382788 -0.00443573 6.30536e-19)
(0.0569883 -0.0966429 2.96782e-18)
(0.000215293 -0.00023971 3.1562e-18)
(0.00046033 -0.000174531 2.56116e-19)
(-3.47023e-05 -1.94531e-05 4.94043e-20)
(0.0031097 -0.00374336 6.75476e-19)
(-0.000232628 -6.94534e-05 2.17497e-20)
(0.100918 0.0777436 -1.05719e-18)
(-0.000168899 -0.000127648 -3.35647e-20)
(0.0172868 -0.208441 7.27135e-18)
(-0.00234163 0.00510369 -5.65951e-19)
(0.0183935 -0.0127477 1.3731e-19)
(-0.0498286 0.0570257 3.61745e-18)
(0.0014888 0.00132782 -1.08084e-18)
(-0.0328488 0.444927 -8.82739e-18)
(0.00102724 0.31617 -1.50096e-17)
(0.00292557 0.00243059 -2.07767e-18)
(0.00830983 0.195426 5.04579e-18)
(0.000324276 -0.00440357 -5.57312e-19)
(-0.0694603 -0.0416327 -1.17905e-17)
(-0.000213408 -0.000129499 1.09552e-19)
(0.000671036 -0.000112006 1.13683e-19)
(0.0177114 -0.00704293 1.67051e-19)
(0.000581796 -0.00145913 -2.99483e-19)
(0.0134059 -0.172658 3.6331e-19)
(9.71294e-05 3.96767e-05 -5.29684e-19)
(-0.0233359 -0.0103826 9.38699e-20)
(-0.000598793 -0.000790615 3.00667e-19)
(0.00429354 -0.0164914 -3.36202e-20)
(0.018638 -0.00912706 -3.17908e-20)
(0.0016249 -0.00320106 -4.95401e-20)
(-0.0497279 -0.241578 -3.26534e-17)
(0.000484229 6.62618e-05 1.40202e-18)
(0.000452595 0.00551099 -2.90426e-19)
(-0.00987172 0.033307 -1.82872e-18)
(-0.0651658 0.445026 -5.5577e-18)
(-0.110591 0.432418 -9.67314e-18)
(-0.000265551 0.000847643 -1.32521e-19)
(-0.000720226 -0.000871141 3.72322e-20)
(-0.000161452 -0.000278068 1.56245e-20)
(-0.0362506 0.0658484 -1.28288e-18)
(-0.143296 -0.323845 -2.37853e-17)
(0.000552294 -7.78465e-07 -3.22326e-18)
(0.00040514 -0.00418832 -4.16117e-19)
(0.00121647 -0.00772237 -3.04037e-21)
(-0.000197984 -0.000218323 2.1339e-20)
(-2.40495e-05 -0.000405214 -2.98561e-19)
(0.00092085 0.00421446 3.20584e-19)
(-0.0435547 0.061279 -2.04246e-18)
(-0.00374028 -0.00159981 1.24434e-18)
(0.000631015 -0.00169104 5.62129e-19)
(7.89207e-05 1.10836e-05 -1.03705e-19)
(0.000161023 0.000555283 -1.56659e-19)
(-0.00757064 0.0092475 1.33825e-19)
(0.201422 -0.114449 7.28351e-18)
(-0.00154234 -0.00254514 -5.49169e-20)
(0.000319595 -0.000644158 -1.31565e-19)
(5.52119e-05 -9.66545e-06 8.9514e-20)
(0.000514333 0.0133404 -9.55947e-19)
(0.000477747 -0.000150388 -7.17054e-20)
(-0.00872804 0.152296 -2.99017e-18)
(0.00905916 0.0518273 8.86044e-20)
(0.0273401 -0.205347 -8.15566e-18)
(-0.00441839 -0.0149734 2.65737e-20)
(-0.0184396 -0.00984433 -4.56675e-19)
(-0.000290419 0.000501202 -7.96882e-19)
(0.00135146 0.00146527 -8.97847e-19)
(0.00132886 0.00867375 -3.11053e-18)
(0.000843144 0.00467568 -1.47327e-18)
(0.00641019 0.0117859 2.6924e-18)
(0.000475378 -4.20271e-05 -7.03186e-19)
(-0.0506571 -0.0193165 -5.11918e-18)
(0.0220615 -0.142921 -5.45306e-19)
(-0.000750029 -0.000339849 3.74334e-19)
(0.00460019 0.289458 4.39156e-18)
(0.000209884 0.000497699 9.3623e-20)
(0.0585717 0.139398 -7.04568e-18)
(0.000732172 0.00233835 6.32186e-19)
(-0.00644877 -0.00985542 -3.12689e-20)
(0.00585842 -0.0065034 -2.33835e-18)
(0.00355392 -0.00651048 4.74427e-20)
(1.98277e-05 -0.000861542 2.30677e-19)
(-0.000459634 0.00168636 -6.59351e-20)
(-0.000632376 -0.00338847 -1.97839e-20)
(0.0327324 -0.105288 -3.17962e-18)
(0.0594174 -0.0835938 -3.61853e-19)
(0.00147509 -0.00162336 -9.38616e-19)
(0.0241853 0.0217106 -8.58801e-20)