/*--------------------------------*- C++ -*----------------------------------*\
| =========                 |                                                 |
| \\      /  F ield         | OpenFOAM: The Open Source CFD Toolbox           |
|  \\    /   O peration     | Version:  v2012                                 |
|   \\  /    A nd           | Website:  www.openfoam.com                      |
|    \\/     M anipulation  |                                                 |
\*---------------------------------------------------------------------------*/
FoamFile
{
    version     2.0;
    format      ascii;
    class       surfaceVectorField;
    location    "800";
    object      Uf;
}
// * * * * * * * * * * * * * * * * * * * * * * * * * * * * * * * * * * * * * //

dimensions      [0 1 -1 0 0 0 0];


internalField   nonuniform List<vector> 
14516
(
(1.0088 -0.145345 1.19615e-21)
(1.01908 -0.152243 2.1906e-22)
(1.01823 -0.137201 4.69897e-22)
(0.944405 -0.0619123 2.40631e-22)
(0.941537 -0.0542703 7.20292e-23)
(0.954156 -0.0588128 -6.46631e-24)
(0.997967 -0.137912 -1.68895e-21)
(0.995887 -0.153497 1.88187e-21)
(1.0131 0.000200596 0)
(1.01306 0.000228989 0)
(1.01305 0.000162294 0)
(0.915028 -0.501442 1.47789e-20)
(0.87354 -0.4837 -3.39426e-20)
(0.889908 -0.545611 9.53439e-21)
(1.00215 0.000679597 -3.16506e-22)
(1.00252 -9.31269e-05 5.05347e-23)
(1.00305 0.000698639 -1.71114e-21)
(1.01202 1.17212e-05 6.1728e-22)
(1.0128 -0.000145757 1.04019e-21)
(1.01349 -0.000218687 -1.50131e-21)
(1.01679 0.000355282 -1.95493e-22)
(1.01653 0.000319195 1.84802e-22)
(1.01657 0.000475244 -6.44469e-22)
(1.0227 -0.00132586 0)
(1.02282 -0.00090554 2.91551e-21)
(1.02324 -0.00141881 -2.99987e-21)
(0.936349 -0.463107 0)
(0.965034 -0.514586 1.95341e-21)
(1.08685 0.0409907 1.20897e-21)
(1.08739 0.0498479 9.87884e-22)
(1.07714 0.0437732 -9.94672e-22)
(0.957335 -0.00181412 -3.02642e-22)
(0.956294 -0.00909843 -1.4753e-21)
(0.949389 -0.00438484 2.54443e-22)
(1.01306 0.000110258 0)
(1.01318 0.000215677 0)
(1.01862 6.40853e-05 1.64878e-23)
(1.01865 -0.000213816 -1.57936e-24)
(1.01874 -0.000117743 -1.71109e-24)
(1.00621 -6.21863e-05 9.437e-22)
(1.00624 4.09159e-06 4.35439e-22)
(1.01863 0.000315726 1.67305e-24)
(1.01865 0.000515679 3.79553e-23)
(1.01871 0.000334754 -9.78118e-24)
(1.00588 0.00748468 5.98761e-22)
(1.00634 0.00608358 1.70632e-21)
(1.0074 0.0074927 -2.19134e-21)
(1.0054 0.00921778 6.15004e-22)
(1.00411 0.00752883 4.01546e-22)
(0.746112 -0.16238 0)
(0.759778 -0.197201 3.46785e-21)
(0.714445 -0.189468 0)
(1.01851 0.00027279 1.66812e-24)
(1.00964 0.00966909 -3.26548e-22)
(1.00851 0.0194688 1.00213e-21)
(1.0007 0.0137945 -4.89878e-21)
(1.01599 -0.0208406 2.03685e-21)
(1.01709 -0.0218604 9.06122e-22)
(1.01713 -0.0203369 -9.88471e-23)
(1.09427 -0.0410814 -3.75014e-21)
(1.09806 -0.0304097 -1.65038e-22)
(1.09132 -0.0532578 -5.55951e-21)
(1.01625 -0.00273154 5.8704e-24)
(1.0162 -0.00255875 -6.98374e-24)
(1.01742 0.0114176 8.50672e-23)
(1.01668 0.011823 3.67495e-22)
(1.0176 0.0124056 2.14571e-22)
(1.01281 9.99734e-05 -1.63663e-22)
(1.01286 6.17949e-05 1.00362e-24)
(1.01872 0.00109739 6.25457e-24)
(1.0186 0.000933314 -3.9152e-23)
(1.01861 0.00119401 8.72857e-24)
(1.00949 0.00217893 -1.15329e-21)
(1.0092 0.00136902 3.5702e-22)
(1.01002 0.00139108 -5.09401e-22)
(1.09833 -0.0373875 -4.91411e-22)
(1.09379 -0.0318543 1.20616e-21)
(1.09072 -0.0393604 0)
(1.02215 -0.00123355 -1.67195e-21)
(1.02254 -0.00171838 0)
(0.991149 0.00731979 2.21321e-22)
(0.989964 0.00707451 -1.25869e-23)
(0.991179 0.00576884 1.92659e-21)
(1.08715 -0.0490739 4.04802e-21)
(1.09385 -0.0307674 1.09033e-20)
(0.859271 -0.0250697 2.23339e-21)
(0.849619 -0.0339691 1.90776e-21)
(0.824502 -0.0109253 -4.02139e-21)
(1.01264 8.03922e-05 2.72287e-23)
(1.01263 3.77483e-05 -2.67631e-22)
(1.00966 3.87773e-05 4.19745e-22)
(1.10222 -0.0454133 -1.81809e-21)
(1.10405 -0.0545266 -3.40829e-22)
(1.09529 -0.0543624 -4.70127e-22)
(1.02524 0.0437559 2.47501e-23)
(1.01131 0.0714082 -3.18884e-21)
(1.0288 0.0596837 5.02496e-23)
(1.01105 -6.20524e-06 9.92775e-22)
(1.00922 9.61346e-05 -7.82833e-22)
(1.01467 -0.021293 4.24729e-22)
(1.01505 -0.0197674 0)
(1.0184 0.000611592 -4.53924e-22)
(1.01886 0.000603893 0)
(1.0186 0.000910116 0)
(1.01439 0.000154725 0)
(1.0139 8.50041e-05 0)
(1.01471 0.000218674 -1.19865e-22)
(0.992631 0.0075784 5.54802e-22)
(0.991562 0.00936723 1.45455e-21)
(1.00944 2.59491e-06 -1.27526e-22)
(1.00581 -7.90089e-05 3.02606e-22)
(1.01147 -9.4904e-05 -1.4917e-22)
(1.01222 0.000108167 -3.6586e-22)
(1.01164 -8.26918e-05 -1.2416e-22)
(1.01276 -0.000143369 -1.50386e-21)
(1.01194 -0.000199361 -4.82853e-22)
(1.01352 -6.49207e-05 -1.47296e-21)
(1.00927 -6.29674e-05 1.02216e-21)
(1.01135 -2.93253e-05 0)
(1.01277 0.000162623 8.52025e-22)
(1.10721 -0.0359357 2.5357e-21)
(1.00554 -0.026729 -3.98966e-23)
(1.00231 -0.0237846 -1.6349e-21)
(1.00637 -0.0218649 2.94209e-23)
(1.00119 0.0439088 4.43978e-22)
(0.99628 0.0451168 -2.53829e-22)
(0.997452 0.0402905 5.11602e-22)
(1.01299 0.000246246 2.05245e-22)
(1.01305 0.000267348 0)
(1.10762 -0.0633551 -1.61663e-22)
(1.1153 -0.0528521 -8.15175e-23)
(1.11774 0.0347538 -3.33121e-21)
(1.11297 0.0461256 -8.8722e-22)
(1.10561 0.0367195 1.14666e-22)
(1.00246 -0.00246589 2.76196e-21)
(1.00191 -0.00185981 3.79315e-21)
(1.00158 -0.00274866 5.17536e-22)
(1.0214 -0.00648418 1.52414e-22)
(1.02097 -0.00610062 -1.33156e-21)
(1.02076 -0.00656717 -2.93338e-21)
(1.32941 -0.183288 -1.18259e-20)
(1.3584 -0.170213 -2.09377e-20)
(1.33297 -0.134215 -1.46838e-20)
(1.01355 -0.0899265 1.0042e-21)
(1.00798 -0.112389 1.05692e-20)
(0.990226 -0.108624 7.94658e-22)
(1.01702 0.00026201 -2.6847e-22)
(1.01667 0.000295297 0)
(0.998272 0.129046 3.79292e-21)
(0.993089 0.109849 -5.57704e-21)
(1.01427 0.118902 4.34016e-21)
(0.920853 0.192544 0)
(0.89184 0.19787 -1.38455e-21)
(0.910425 0.221202 1.49173e-22)
(1.01803 0.000646758 2.40555e-22)
(1.01822 0.000458152 -7.74048e-22)
(1.01286 2.32376e-05 -4.94431e-22)
(1.01228 0.000132307 -1.70747e-22)
(1.01385 6.14623e-05 4.0023e-22)
(1.00309 -0.00560669 0)
(1.00248 -0.0049789 0)
(1.0022 -0.0060128 0)
(0.933207 0.0717992 0)
(0.917214 0.0785855 -1.06768e-21)
(0.926309 0.0685896 1.39033e-21)
(1.01151 -0.000189605 3.08203e-22)
(1.01213 -0.000229313 6.44831e-22)
(1.01134 -0.000201934 1.78252e-21)
(0.828434 -0.531165 -1.30695e-20)
(0.823773 -0.567576 0)
(0.928761 -0.0278717 1.14027e-21)
(0.918389 -0.037153 2.67724e-22)
(0.94369 -0.03858 -5.57387e-22)
(0.953534 0.0640586 1.36276e-21)
(0.943695 0.0716739 0)
(0.970304 0.0598755 -4.38976e-21)
(0.98556 0.0555223 -2.20186e-21)
(0.978842 0.0578752 -1.37602e-21)
(0.958014 0.00401649 -2.94415e-21)
(0.963179 -0.000214968 -4.5327e-22)
(1.09445 0.0346038 0)
(1.08428 0.0309329 0)
(1.31339 -0.242491 -1.48749e-20)
(1.28783 -0.18992 8.77183e-21)
(1.01227 -0.000312223 0)
(1.01259 -0.000275934 6.65601e-24)
(1.01379 -0.000269572 0)
(1.01179 0.000514489 -8.14717e-22)
(1.0117 0.000357586 9.32904e-22)
(1.01165 0.000580412 2.09715e-21)
(1.03781 -0.0533092 8.09248e-23)
(1.03881 -0.0455031 9.2974e-23)
(1.04621 -0.0505724 3.06382e-22)
(1.10562 -0.0744379 -1.58531e-22)
(1.1184 -0.0749174 -2.87759e-21)
(0.948591 0.180468 -1.58876e-21)
(0.929973 0.162278 -6.81025e-24)
(1.01718 4.37072e-05 -1.11025e-21)
(1.01734 -0.000201004 2.01191e-21)
(1.01694 -0.000123426 -8.12245e-22)
(1.01768 -0.00677368 4.80516e-22)
(1.01709 -0.00683841 -7.95469e-23)
(1.01771 -0.00739224 -5.364e-24)
(1.01098 -0.0103879 5.25288e-22)
(1.01215 -0.0100857 -4.76263e-22)
(1.01138 -0.00902671 0)
(1.00818 -0.00107924 4.84675e-22)
(1.00902 -0.00168966 0)
(1.00906 -0.000459808 -8.71748e-23)
(0.911487 -0.019013 1.56735e-21)
(0.939335 -0.0229655 -1.84844e-22)
(1.01547 -0.0118394 0)
(1.01654 -0.0111604 0)
(1.01537 -0.0104042 2.54099e-22)
(0.918491 -0.0469619 -5.87794e-23)
(0.91802 -0.0497965 2.80796e-22)
(0.907876 -0.0450872 -1.09649e-22)
(1.03039 -0.0269738 -7.22116e-23)
(1.02639 -0.029194 3.38131e-21)
(1.02757 -0.0240136 1.26943e-22)
(0.994137 0.00748786 2.82296e-22)
(0.99373 0.00598851 2.33789e-22)
(1.01321 -0.0300836 6.5363e-23)
(1.00943 -0.02893 3.26746e-21)
(1.01273 -0.0255979 7.74057e-23)
(1.00735 -0.00187071 -1.20815e-22)
(1.00727 -0.000354778 -2.81586e-22)
(1.01746 -0.000430753 3.84165e-21)
(1.01756 -0.000685119 7.8294e-23)
(1.01718 -0.000590458 1.27513e-21)
(1.0039 -0.00525299 0)
(1.00476 -0.0049543 -4.04907e-22)
(1.00427 -0.00430743 -9.74496e-24)
(1.01992 -0.0114614 2.42274e-22)
(1.01906 -0.0124172 0)
(1.02066 -0.0130009 -3.22111e-22)
(0.931187 -0.0635975 -2.40054e-21)
(0.946814 -0.0714347 -6.48087e-21)
(1.11925 -0.258213 -5.3798e-20)
(1.08408 -0.375234 1.76173e-20)
(1.17176 -0.368409 -3.99267e-20)
(1.02136 0.00289258 -4.5694e-22)
(1.02182 0.00316874 4.88797e-22)
(1.02184 0.00266397 -4.17582e-22)
(1.07844 -0.054807 -1.2318e-21)
(1.07675 -0.0670155 0)
(1.00366 -0.00622477 0)
(1.0346 -0.0306486 3.89078e-22)
(1.03396 -0.0247268 -1.73229e-22)
(1.01588 -0.0695802 -3.54855e-21)
(1.03357 -0.0641493 -5.99494e-23)
(0.930175 -0.0509445 4.04763e-21)
(0.918434 -0.0492271 -2.30796e-22)
(1.02091 0.00302036 4.61078e-23)
(1.02093 0.00260276 -2.00988e-22)
(1.0202 0.000457301 3.52627e-22)
(1.02047 0.000525898 -3.01426e-23)
(1.02007 0.00062419 1.00362e-22)
(1.02032 0.000265102 1.05473e-22)
(1.01994 0.000375232 1.23805e-22)
(1.02445 -0.00706002 5.56782e-22)
(1.02432 -0.00824083 2.46956e-22)
(1.02568 -0.00791009 -1.13514e-22)
(1.01615 0.00329221 -5.08657e-22)
(1.01644 0.00354077 -3.19989e-22)
(1.0161 0.00360556 -7.81192e-22)
(1.01616 0.0030151 -2.59033e-22)
(1.01587 0.00305394 4.33326e-23)
(1.01756 -0.00616517 6.55388e-23)
(1.01819 -0.00663528 -5.33e-23)
(0.995464 0.00727889 0)
(0.994668 0.00901488 -1.36857e-21)
(1.0055 -0.00481757 -3.76209e-22)
(1.00511 -0.00566413 3.98817e-22)
(1.01182 7.95631e-05 6.48467e-22)
(1.01237 -5.35957e-05 -4.20094e-22)
(1.01325 -2.41833e-05 -4.17649e-22)
(1.0033 -0.00221098 -1.26399e-21)
(1.00304 -0.00307394 1.26104e-21)
(0.988726 -0.0134897 -2.67103e-22)
(0.987666 -0.0083652 -1.11656e-23)
(0.993276 -0.0103041 -1.47338e-22)
(1.01213 -0.000280266 -1.9954e-23)
(1.01053 -0.000311487 -2.61705e-24)
(1.00526 -0.015583 1.35627e-22)
(0.996702 -0.0169466 4.1569e-22)
(1.00118 -0.02511 9.82103e-22)
(1.01548 0.000397663 2.25213e-22)
(1.01575 0.000349297 0)
(1.01534 -0.00712785 2.3118e-21)
(1.02615 -0.0600585 -8.63995e-22)
(1.00547 -0.0732901 -2.77996e-21)
(1.12002 0.023946 -2.09087e-21)
(1.13022 0.0329099 -3.93431e-21)
(1.01742 0.000194729 -2.69892e-22)
(0.881596 -0.0711684 -4.49793e-22)
(0.871702 -0.0837186 1.1342e-20)
(0.891245 -0.0865121 -6.23856e-22)
(1.10419 -0.0864092 -2.7194e-22)
(1.09603 -0.0753025 2.30309e-24)
(1.0143 -0.0123189 0)
(1.01565 -0.0134009 2.2598e-22)
(1.07821 -0.0436819 -2.61182e-21)
(1.06857 -0.0561854 -2.27057e-22)
(0.990844 -0.0177839 -3.62112e-21)
(0.982443 -0.0166882 -2.1839e-21)
(1.0066 -1.15659e-05 2.80574e-24)
(1.00363 -5.20445e-05 -1.1726e-23)
(1.00384 -5.16927e-05 0)
(1.01525 -0.0020774 1.291e-21)
(1.01545 -0.0022723 -1.15798e-21)
(1.0155 -0.00209035 -1.0028e-21)
(1.00187 0.00147543 -1.24338e-21)
(1.00124 0.000725832 -6.23306e-23)
(1.02524 -0.00955589 1.53771e-21)
(1.02508 -0.0103261 -5.68348e-22)
(1.02439 -0.00959337 1.45467e-21)
(1.01635 0.00324189 -2.14518e-22)
(1.00569 0.0022761 -8.71957e-22)
(1.04438 0.0137911 -1.0862e-21)
(1.0436 0.0115473 -6.78277e-22)
(1.04592 0.0123067 0)
(1.01782 -0.0306018 0)
(1.01453 -0.0350816 1.0996e-22)
(1.00972 -0.0104875 -6.62129e-23)
(1.01064 -0.0118197 1.75892e-22)
(1.01231 -0.000555248 0)
(1.0124 -0.000631553 1.28361e-21)
(1.01234 -0.00046237 0)
(1.01107 -0.00022152 4.02308e-23)
(1.01028 -0.000159622 2.45427e-22)
(1.01246 -0.00030963 -2.13164e-22)
(1.01773 -0.00027801 6.87672e-22)
(1.01223 -0.000527892 0)
(1.0123 -0.00067985 -1.42946e-21)
(1.02845 -0.00335924 0)
(1.02907 -0.00239443 0)
(1.02765 -0.00224025 0)
(1.02164 -0.00117022 2.28156e-22)
(1.02183 -0.000808103 -1.56326e-21)
(1.01766 -0.000943559 -1.2686e-21)
(1.01776 -0.00123288 -1.4275e-22)
(1.01738 -0.00110046 -1.54225e-22)
(1.00994 -0.000127116 3.57312e-24)
(1.01157 -0.000179965 4.41152e-24)
(1.0122 -3.60146e-05 8.08441e-22)
(1.01352 -0.000175279 -4.0518e-22)
(1.01533 0.00024899 -9.99927e-23)
(1.01521 0.000419141 1.90513e-22)
(1.01771 -8.45501e-05 5.10545e-23)
(1.01787 -8.0233e-05 -6.29469e-24)
(1.01777 -6.2861e-05 -2.94911e-24)
(1.01501 -0.00203072 1.203e-21)
(1.01504 -0.00189455 -1.25032e-22)
(1.01892 0.0106197 -3.69771e-22)
(1.01819 0.0110165 1.07473e-21)
(1.01917 0.0114868 1.04332e-21)
(1.01386 0.000100645 8.16865e-22)
(1.01397 0.000211799 7.42736e-22)
(1.01358 5.32718e-05 -1.33898e-21)
(1.02054 -0.000333575 1.54322e-22)
(1.0203 -0.000294235 2.29659e-22)
(1.02052 -0.000517111 -3.65255e-22)
(1.01851 -0.000340551 -1.68204e-23)
(1.01868 -0.000545706 1.03317e-23)
(1.01833 -0.000888358 2.56333e-23)
(1.01832 -0.000457004 1.92069e-22)
(1.01807 -0.000607703 -7.74173e-25)
(1.02046 -0.0402872 -1.69304e-23)
(1.01783 -0.0334983 -2.64761e-23)
(1.01462 -0.038735 -8.17818e-21)
(1.02051 -0.000139789 0)
(1.0209 -0.000367548 0)
(1.01953 0.003284 -1.68705e-22)
(1.02 0.00321259 -1.2598e-22)
(1.01977 0.003644 3.76785e-23)
(1.14234 -0.137918 -6.50992e-21)
(1.04466 -0.140898 -1.39588e-20)
(0.871409 -0.335344 3.60674e-21)
(0.864632 -0.340068 1.21556e-20)
(0.870397 -0.343219 -3.20632e-21)
(1.01241 -0.000211955 3.3105e-23)
(1.00972 -0.000213345 -3.24229e-22)
(0.877551 -0.330475 0)
(0.87795 -0.340511 0)
(0.927603 -0.415317 0)
(0.96211 -0.421333 -2.87978e-21)
(1.01906 0.00330693 0)
(1.01925 0.00297847 -9.06351e-23)
(1.00907 -6.45935e-05 1.41044e-23)
(1.00875 -4.72039e-05 -2.83329e-22)
(1.01582 -0.000230887 -1.58388e-22)
(1.0151 -0.000229543 3.61312e-23)
(1.01639 -0.000172767 -6.10081e-22)
(1.01959 0.0101348 -1.00147e-21)
(1.01869 0.00983954 -1.91594e-21)
(1.02044 7.92361e-05 -1.82474e-22)
(1.02017 4.01487e-05 0)
(1.01406 0.000154952 6.448e-22)
(1.01376 0.000112474 1.25583e-22)
(1.01706 0.000437483 6.0863e-22)
(1.01702 0.000261755 -3.08311e-22)
(1.01005 0.00287634 3.84585e-23)
(1.00927 0.00305261 -2.76891e-22)
(1.01892 0.00104496 -4.16641e-23)
(1.01902 0.00113906 7.13973e-24)
(1.01901 0.00123877 0)
(0.734748 -0.123489 0)
(0.731721 -0.0753225 0)
(0.693078 -0.0871017 7.50175e-21)
(1.02105 -0.0538504 -2.39224e-21)
(1.03004 -0.0539525 1.26159e-21)
(1.02449 -0.0464877 5.92144e-24)
(1.01853 0.0308801 -3.77352e-23)
(1.00547 0.0332172 -2.28058e-21)
(1.00524 -0.031979 -7.64245e-23)
(1.03739 -0.0334028 -1.09289e-21)
(1.03587 -0.031272 1.59736e-21)
(1.03467 -0.0334584 -2.68755e-21)
(1.01879 0.00100587 4.39744e-23)
(1.01883 0.00123238 -1.28922e-23)
(1.02269 -0.00485528 0)
(1.02256 -0.00574388 -4.93954e-22)
(1.02176 -0.00516094 0)
(1.01172 0.00514415 1.59771e-21)
(1.01151 0.00459354 8.86001e-22)
(1.012 0.00490925 6.92876e-22)
(0.836974 -0.305977 -8.76788e-21)
(0.817424 -0.306754 -2.03228e-21)
(0.848824 -0.314343 0)
(1.0163 -0.0619472 -5.27533e-21)
(1.01231 -0.0531524 6.36327e-23)
(0.827509 -0.281955 -2.61112e-20)
(0.868499 -0.298656 -7.6814e-21)
(1.02536 -0.00815108 0)
(1.02531 -0.00887531 1.16058e-22)
(1.02462 -0.0082052 -1.16289e-22)
(0.776451 -0.143562 -4.49601e-22)
(1.01796 -0.000785403 -1.01143e-21)
(1.01654 -0.0024609 1.86328e-23)
(1.01644 -0.00226624 0)
(1.01668 -0.00238781 -2.85424e-23)
(1.01198 -0.00048189 0)
(1.01196 -0.000646185 1.05626e-21)
(1.01209 -0.000594812 -3.70378e-22)
(1.0533 -0.0139755 4.78586e-22)
(1.05508 -0.015105 1.4005e-21)
(1.0552 -0.0126178 1.88389e-21)
(0.391725 0.142726 0)
(0.352928 0.170015 0)
(0.364515 0.0595384 0)
(1.03352 -0.00378804 -5.68488e-22)
(1.03274 -0.00361612 0)
(1.03303 -0.00439718 -4.60145e-24)
(1.02075 9.94215e-05 -1.57439e-22)
(1.01734 0.0105525 -7.88522e-23)
(1.00847 0.176246 3.159e-21)
(0.984231 0.202931 7.1195e-21)
(0.996829 0.200862 -8.96791e-22)
(1.01191 0.000490881 4.61131e-22)
(1.01187 0.000688277 -2.09974e-21)
(1.00619 0.154269 0)
(0.977729 0.146131 0)
(1.0119 -0.000360622 9.68595e-22)
(1.012 -0.000332207 2.43287e-22)
(1.01485 -0.00229703 1.09554e-21)
(1.01461 -0.00221613 0)
(1.01475 -0.00242313 0)
(1.01885 0.000945636 1.0452e-22)
(1.01887 0.000876932 -4.06159e-23)
(1.02615 -0.00806186 0)
(1.02538 -0.00740511 3.2386e-22)
(1.01348 -0.000183171 7.60244e-22)
(1.01347 -0.00025636 7.33981e-24)
(1.0136 -0.000203391 -3.0507e-23)
(1.00573 0.0427001 2.70718e-22)
(1.00353 0.0466573 -2.40024e-21)
(1.01366 -0.0137125 -4.2616e-22)
(1.00392 -0.0081667 1.39248e-21)
(0.961848 0.0599585 -4.35162e-22)
(1.05197 -0.0121203 -3.2556e-22)
(1.05154 -0.0145366 -1.05387e-22)
(0.957364 -0.195064 2.08671e-21)
(0.977204 -0.191392 -6.77325e-22)
(0.960475 -0.179279 -8.3019e-22)
(1.01857 -0.0067116 3.29777e-23)
(1.01942 -0.00687651 4.25543e-24)
(1.01898 -0.0061364 -7.02479e-23)
(0.907674 -0.400798 -1.39049e-20)
(0.93018 -0.378829 0)
(1.01766 -0.000111661 8.30585e-24)
(1.01744 -0.000101683 8.34597e-24)
(1.02123 -0.00112797 2.70833e-21)
(1.02154 -0.0014881 2.78659e-21)
(0.738811 -0.0407146 -3.99101e-22)
(0.74232 0.013098 -4.04774e-22)
(0.778727 -0.00466001 6.0285e-21)
(1.02445 -0.0950508 -8.81872e-22)
(0.996464 -0.133422 -4.24681e-21)
(1.01247 -0.000695274 3.18318e-22)
(1.01249 -0.000600776 -6.69731e-23)
(1.01254 -0.000757802 -2.00441e-21)
(1.01784 -0.00150437 -1.37602e-21)
(1.01814 -0.00135009 -1.49484e-21)
(1.01743 -0.00567882 1.11015e-24)
(1.01701 -0.00572875 -1.60964e-23)
(1.03245 0.0193452 7.04431e-22)
(1.01932 -0.000561156 -5.58482e-23)
(1.01917 -0.000358511 3.59689e-23)
(1.01921 -0.000532531 -4.21761e-23)
(0.996762 0.00710047 5.40199e-22)
(0.996233 0.00579567 -1.1817e-23)
(1.03069 -0.0126579 -9.22697e-22)
(1.02982 -0.0131523 -9.82381e-22)
(1.02977 -0.0120064 -7.27617e-22)
(1.06171 -0.0295019 3.00787e-21)
(1.06003 -0.0259069 -1.99895e-22)
(1.06405 -0.0271043 -1.21181e-21)
(1.00906 0.0401149 -2.01382e-22)
(1.0048 0.0380688 -3.28764e-22)
(0.990829 0.0450521 0)
(0.991695 0.0492697 -1.16203e-21)
(1.02182 -0.00703802 1.39659e-21)
(1.02202 -0.00644585 1.24503e-21)
(0.937816 -0.202004 3.04453e-21)
(0.957364 -0.214045 -4.33794e-21)
(1.01536 -0.000180546 -5.04022e-23)
(1.01646 -0.000264482 -2.51275e-22)
(1.0243 -0.00403906 -2.67677e-22)
(1.02505 -0.00350881 0)
(1.02401 -0.00317336 0)
(1.03008 0.141513 -2.02965e-21)
(1.01369 0.151592 -1.10274e-22)
(1.01742 -0.00529832 -1.51182e-23)
(1.01783 -0.00562539 0)
(0.868767 0.0525889 1.33989e-21)
(0.841847 0.0575727 -8.80013e-21)
(0.853901 0.0443818 2.73525e-22)
(1.0925 -0.122313 -6.46827e-23)
(1.07944 -0.121215 4.2893e-22)
(1.08394 -0.136167 1.31668e-22)
(1.01615 -0.0016889 2.48879e-21)
(1.01641 -0.00158966 -1.45644e-21)
(1.01608 -0.00148071 1.03779e-21)
(1.02606 -0.0095365 1.00094e-22)
(1.01346 -0.000100231 -9.64929e-22)
(1.01337 -0.000169251 -3.08686e-21)
(1.02214 -0.0300072 7.61649e-23)
(1.02509 -0.0344003 -2.48491e-21)
(0.771395 -0.0769893 3.45835e-23)
(1.00217 -0.000939816 1.28558e-21)
(1.00309 -0.000804783 -1.98273e-21)
(1.01867 0.00329798 -1.90525e-22)
(1.01846 0.00298788 -1.96339e-22)
(1.01826 0.00323872 -4.17174e-22)
(1.09781 -0.110821 -9.15085e-22)
(1.10592 -0.124668 -2.14698e-23)
(1.08543 0.0194389 -2.35411e-21)
(1.09324 0.0197614 1.73051e-22)
(1.08833 0.0137518 5.34602e-22)
(1.01657 -0.00302867 2.30744e-23)
(1.01629 -0.00300868 3.13598e-22)
(1.01642 -0.00254415 1.36573e-23)
(1.01615 -0.00229036 -2.92137e-22)
(1.03399 -0.00327973 -1.23316e-21)
(1.03431 -0.004094 8.23872e-22)
(1.01712 -0.000123792 1.19686e-24)
(1.01745 -0.000145418 5.05653e-24)
(1.01704 -0.000106532 5.38989e-23)
(1.05202 0.0255603 8.83818e-22)
(1.04907 0.0223845 -2.42182e-21)
(1.05355 0.021995 9.47509e-22)
(0.894811 0.0494835 -1.16079e-22)
(0.881232 0.057182 -1.64596e-21)
(1.0152 0.000112974 -3.36382e-22)
(1.01496 0.000137721 -5.26203e-25)
(1.01507 -1.67943e-05 -1.20786e-21)
(1.01249 0.00395042 -1.38701e-21)
(1.01234 0.00426823 -7.95363e-22)
(1.01269 0.00433625 0)
(0.998294 -0.0641202 -4.15772e-22)
(1.01173 -0.0518804 3.53116e-21)
(1.02184 -0.00855723 -1.28842e-21)
(1.0206 -0.00860776 -3.85587e-22)
(1.02137 -0.00973742 -1.67241e-22)
(0.997921 0.00683446 1.28288e-22)
(0.997331 0.00836106 5.20418e-22)
(1.01905 -0.000846973 -2.44865e-23)
(1.01887 -0.000719816 1.18896e-23)
(1.01895 -0.000536256 -1.2565e-22)
(1.01336 0.00434394 6.68833e-22)
(1.01368 0.00430594 0)
(1.01363 0.00466451 -7.07275e-22)
(0.890138 -0.0331242 2.11465e-22)
(0.866199 -0.0169943 -1.355e-21)
(1.01262 0.00368048 7.41293e-22)
(1.01292 0.00372082 1.26551e-21)
(1.01274 0.00339668 2.71954e-21)
(1.02044 0.00315447 2.79956e-22)
(1.0201 0.00283748 1.89792e-22)
(1.01645 0.00018974 4.34956e-22)
(1.01626 0.000296764 5.25677e-22)
(1.02025 0.00960705 -3.52042e-22)
(1.02064 0.0104177 -2.32248e-22)
(1.02078 0.00350008 5.33036e-22)
(1.01396 -3.48799e-05 -1.12233e-22)
(1.01236 0.000109605 3.32885e-23)
(1.01518 -0.00933054 -1.73467e-21)
(1.01566 -0.00913911 -4.47458e-22)
(1.01562 -0.00977411 5.23714e-22)
(1.04063 -0.01709 -3.11922e-22)
(1.04031 -0.0154971 -1.39843e-21)
(1.03912 -0.016721 -3.24844e-22)
(1.121 0.0118667 2.07719e-22)
(1.11089 0.0161906 2.14108e-21)
(1.04542 0.0166716 -2.36492e-22)
(1.04713 0.0194367 1.13952e-21)
(1.04871 0.016834 1.16429e-21)
(1.01376 0.00369441 -2.10525e-23)
(1.0138 0.00342488 -2.56606e-21)
(1.01404 0.00363144 -1.93349e-21)
(1.01033 -0.0223114 2.03996e-21)
(1.00953 -0.0208677 8.80657e-22)
(1.00862 -0.0224672 0)
(1.01136 0.00414975 -8.04613e-22)
(1.01165 0.00394631 1.22552e-23)
(1.01124 0.00366403 9.13682e-22)
(1.04091 -0.0186792 -1.1952e-21)
(1.0422 -0.0172506 0)
(1.00349 0.00618613 1.88949e-21)
(1.00287 0.00549233 -1.61329e-22)
(1.00375 0.00516626 2.89469e-21)
(1.01951 -0.000575809 1.07781e-22)
(1.01941 -0.000584653 2.09606e-23)
(1.01932 -0.00040396 -6.16901e-23)
(0.922819 -0.0325735 -1.58622e-23)
(0.923949 -0.0235074 3.16401e-21)
(0.914573 -0.0291363 -1.01855e-22)
(1.01231 0.00356239 -2.06877e-21)
(1.13154 0.00712002 -1.57819e-21)
(1.12025 0.00100207 -2.43889e-21)
(1.01246 5.53694e-05 9.55705e-22)
(1.01431 -0.000120179 -4.26166e-22)
(1.01315 -8.40625e-05 -3.55007e-23)
(1.04027 -0.0330763 0)
(1.03894 -0.0362605 1.65987e-21)
(1.01691 -0.00416749 0)
(1.01685 -0.00441429 1.01104e-23)
(1.01663 -0.00410098 0)
(1.01715 -0.0041106 0)
(1.01687 -0.00381654 1.99257e-23)
(1.06293 -0.0332424 1.44108e-21)
(1.05879 -0.0315855 9.32485e-22)
(0.762867 0.0590098 6.36903e-22)
(0.708336 0.0394219 0)
(1.00595 -0.00445351 4.59952e-22)
(1.00583 -0.00356203 5.27864e-22)
(1.00655 -0.00403367 -2.58547e-22)
(1.01969 -0.000748356 0)
(1.01958 -0.000571758 0)
(1.01875 0.000670387 -4.67236e-23)
(1.01873 0.000649678 4.07236e-23)
(1.01866 0.000602692 -3.10686e-23)
(1.01253 -0.0378763 0)
(1.01523 -0.0368909 0)
(1.01259 -0.035278 -1.18435e-21)
(1.01662 -0.00148385 -1.38728e-21)
(1.01687 -0.00137221 0)
(1.01654 -0.00125013 0)
(0.971288 -0.0757452 -4.8931e-21)
(0.971138 -0.0848134 -6.66125e-22)
(0.958962 -0.0764607 -5.30961e-22)
(0.970418 -0.0677585 4.71794e-22)
(0.98151 -0.0735728 4.15078e-22)
(1.01246 -0.000798986 -5.83643e-22)
(1.02365 -0.00697933 4.7889e-23)
(1.02403 -0.02063 -9.53692e-21)
(1.01304 -0.000304825 2.07184e-21)
(1.013 -0.000274773 3.77285e-23)
(1.01308 -0.000265086 0)
(1.04233 0.0160614 -1.13378e-21)
(1.0209 0.00899486 5.51303e-23)
(1.01991 0.00886543 8.50248e-22)
(1.01707 -0.0034675 -3.18938e-23)
(1.01679 -0.00326259 -1.50824e-23)
(1.01683 -0.0035342 -1.50535e-22)
(1.01143 -5.39733e-05 -6.76661e-22)
(1.00895 -4.31952e-05 -7.68775e-23)
(1.01137 -9.24637e-06 4.33812e-22)
(1.01488 0.000162067 -1.0669e-22)
(1.01412 0.00017119 1.23926e-22)
(1.01597 -0.00178281 1.56311e-22)
(1.01623 -0.00187533 1.33357e-21)
(1.01462 -0.00950332 -4.82195e-22)
(1.01475 -0.00887336 -2.69373e-21)
(1.04073 -0.0285926 -2.18506e-23)
(1.04039 -0.0264431 1.20114e-21)
(1.03859 -0.0282043 -1.41049e-22)
(1.01414 -8.937e-05 -4.01587e-22)
(1.01393 -4.41162e-05 -6.16963e-22)
(1.01438 -9.76269e-05 -1.5136e-22)
(1.01755 -0.00164485 -1.39495e-21)
(1.0179 -0.00179059 -1.38836e-21)
(1.01546 8.05267e-05 -2.80597e-22)
(0.867573 -0.0534845 1.20502e-21)
(0.896579 -0.060714 4.66087e-22)
(1.00463 -0.0025503 -1.09723e-21)
(1.0041 -0.00199918 -8.71871e-22)
(1.00487 -0.00179001 2.90345e-22)
(1.0093 -0.000147462 1.79886e-21)
(1.01231 -0.000393427 0)
(1.00998 -0.000107363 0)
(1.01126 -0.000245063 0)
(1.02751 -0.00423249 1.20187e-22)
(1.02904 -0.00457914 0)
(1.02432 -0.0124904 1.87136e-21)
(1.02393 -0.0132461 -4.24228e-22)
(1.02335 -0.0124424 7.03511e-22)
(1.04132 -0.0308108 1.48919e-22)
(1.04332 -0.0288772 9.81542e-22)
(1.01288 -0.000354287 -3.87938e-23)
(1.01291 -0.000391995 -1.7619e-21)
(1.01292 -0.000382933 1.91701e-21)
(0.6934 0.254321 -5.81746e-20)
(0.676263 0.112895 -5.63464e-20)
(0.647838 0.181614 -4.90406e-20)
(1.01883 0.00363541 2.53225e-22)
(0.767031 -0.0987815 -6.36871e-21)
(0.774274 -0.134654 -8.00233e-21)
(0.782791 -0.107532 -4.47017e-23)
(0.858414 -0.078598 -1.72809e-20)
(0.848156 -0.0443499 1.53043e-21)
(0.870314 -0.0587015 1.63159e-21)
(1.00928 5.19059e-05 3.80772e-22)
(1.01137 0.000103294 4.65453e-22)
(1.01147 -3.54919e-05 0)
(1.01221 -0.000167025 3.75238e-22)
(1.01294 -0.000234446 0)
(1.02002 -0.000647648 -3.49955e-23)
(1.02012 -0.000586187 -1.31284e-22)
(1.02035 -0.000808607 1.27983e-22)
(1.00983 -0.0387045 -2.05523e-21)
(1.01275 -0.0406677 0)
(1.02726 -0.0289623 4.25626e-23)
(1.02886 -0.0284725 -1.92746e-21)
(1.02749 -0.0270003 2.44584e-22)
(1.02135 0.00842549 1.35624e-22)
(1.02091 0.00774392 1.50766e-23)
(1.02178 0.00777812 -4.90041e-22)
(0.762399 -0.068418 -4.52374e-21)
(0.75537 -0.0930413 -6.90617e-21)
(1.01273 -0.000258691 -9.61249e-22)
(1.01244 -0.000284564 -5.03757e-23)
(1.01288 -0.000144783 -4.85522e-23)
(1.01991 -0.000660983 -3.72587e-23)
(1.01977 -0.000470668 0)
(1.02568 -0.0295984 1.10099e-22)
(1.0271 -0.031206 -5.62731e-22)
(1.01216 -0.00927282 4.58129e-23)
(1.0126 -0.00985729 0)
(1.01186 -0.00990033 -1.54264e-21)
(1.01662 -0.007096 -1.03033e-21)
(1.0164 -0.00666962 1.21459e-21)
(1.01693 -0.00685097 2.43775e-21)
(1.01938 -0.0103049 7.47927e-22)
(1.02078 -0.010639 7.01983e-22)
(1.02035 -0.0262397 0)
(1.01572 0.00526474 0)
(1.01578 0.00571562 2.0202e-23)
(1.01616 0.00542943 0)
(1.01736 -0.0358954 9.97609e-22)
(1.01722 -0.0335227 1.23236e-21)
(1.01968 -0.0347847 2.224e-21)
(1.03154 -0.0131297 -7.85147e-22)
(1.03145 -0.0119736 0)
(1.01543 0.00380333 0)
(1.01551 0.00413959 -1.4391e-22)
(1.01576 0.00390662 0)
(1.03523 -0.0611607 -5.07822e-21)
(0.8777 -0.196058 1.54638e-21)
(0.899165 -0.190832 -7.92608e-22)
(0.879777 -0.178604 6.51844e-21)
(1.03217 -0.039958 9.0775e-23)
(1.03776 -0.038743 -2.31845e-21)
(1.0171 -0.00487713 -2.14103e-23)
(1.01747 -0.00491227 3.69828e-23)
(0.427057 0.185534 0)
(0.449645 0.117215 -5.41517e-21)
(1.02354 -0.0139962 -4.38229e-23)
(1.02302 -0.0147736 -7.24482e-22)
(1.02248 -0.0138653 2.80887e-22)
(0.861131 0.203822 1.68644e-21)
(0.875509 0.174672 -1.18382e-21)
(1.10219 -0.0972289 -1.01033e-21)
(1.11482 -0.0988445 -4.15072e-21)
(1.019 0.00096585 0)
(1.01897 0.000889914 -6.83074e-24)
(1.01907 0.00101425 0)
(1.03827 -0.00185211 2.37103e-22)
(1.03916 -0.00183402 2.23211e-22)
(1.09082 -0.0976266 -1.55781e-21)
(1.02345 -0.00642047 5.48971e-22)
(1.0246 -0.00600059 1.35943e-21)
(0.999061 0.00658844 -3.21371e-23)
(0.998521 0.00548019 -4.96838e-22)
(1.10677 0.0567761 -3.70753e-21)
(1.0966 0.0560617 -1.56552e-21)
(1.1031 0.0685808 -1.31297e-21)
(1.01631 6.20727e-05 -1.30979e-21)
(1.01607 8.53747e-05 1.87524e-22)
(1.01619 -1.89159e-05 -2.01248e-21)
(1.01082 9.20648e-05 0)
(1.01215 -6.28781e-05 -7.11877e-22)
(1.02085 -0.000896053 1.04471e-21)
(1.02073 -0.00126449 3.75975e-23)
(1.01513 3.17401e-05 1.15454e-23)
(1.01519 4.7621e-05 1.00803e-23)
(1.01386 3.36298e-05 -1.31517e-22)
(1.00834 0.00121687 1.04075e-21)
(1.00911 0.000520962 7.4554e-22)
(0.994746 -0.185458 -1.16043e-21)
(0.995456 -0.169499 2.62667e-21)
(1.01102 -0.177452 -9.71022e-22)
(1.0118 -0.00022558 -9.04311e-22)
(1.01175 -0.000379853 1.95039e-21)
(1.01534 0.00350148 0)
(1.01512 0.00368781 -1.81809e-21)
(0.717026 0.358398 3.08102e-20)
(1.02305 -0.00849161 -1.59851e-22)
(1.02205 -0.00752457 5.82056e-23)
(1.01863 0.000706622 1.34872e-22)
(1.01871 0.000680666 1.49266e-23)
(1.01674 -0.00471949 3.39871e-23)
(1.01764 -0.0160035 1.01497e-21)
(1.01805 -0.0170613 2.98853e-21)
(1.01873 -0.0162635 1.87478e-21)
(1.01659 6.37499e-05 -6.19307e-22)
(0.994772 -0.20314 0)
(1.02462 -0.0117876 1.34719e-21)
(1.0249 -0.0110238 -1.88687e-21)
(1.02399 -0.0110207 1.05683e-22)
(1.01633 -0.0033327 4.93384e-22)
(1.01638 -0.00354821 0)
(1.0161 -0.00343285 0)
(1.01277 -0.0075402 2.57034e-22)
(1.01264 -0.00807114 1.60133e-21)
(1.0122 -0.00753288 -5.60517e-23)
(1.02406 -0.0095328 3.43658e-22)
(0.921394 -0.291535 3.32976e-21)
(0.92839 -0.268374 3.15701e-21)
(0.956193 -0.282289 -2.06653e-21)
(1.02113 -0.00562603 0)
(1.02053 -0.00575854 -2.04797e-21)
(0.985605 -0.0148426 1.37823e-21)
(0.988028 -0.0149096 2.53181e-22)
(0.986614 -0.0125596 8.92564e-22)
(1.01669 -0.00269766 9.43157e-23)
(1.07937 -0.00881321 0)
(1.07499 -0.00759123 3.85982e-21)
(1.07663 -0.0114292 5.6833e-23)
(1.29122 -0.288959 -3.70725e-20)
(1.32827 -0.290212 -8.86973e-21)
(1.01811 0.17917 -3.52435e-21)
(1.03615 0.158851 -8.40765e-22)
(1.08464 -0.0100657 1.39698e-21)
(1.08223 -0.00512138 9.44476e-22)
(1.01739 -0.0147564 -1.44499e-21)
(1.01659 -0.0153916 -1.60014e-21)
(1.03225 -0.00231759 1.82875e-22)
(1.0306 -0.00247441 1.97939e-22)
(1.03178 -0.00381335 -7.62067e-22)
(0.918729 -0.197028 0)
(0.922857 -0.219135 -3.35922e-21)
(1.01205 -9.21206e-05 -6.5581e-22)
(1.0135 0.000164478 -5.60116e-22)
(0.921361 -0.043694 6.09412e-24)
(0.931645 -0.0370964 -6.28532e-22)
(1.01887 -0.00922063 -9.66782e-23)
(1.01809 -0.0098176 2.0126e-22)
(1.01647 -0.000100957 1.02477e-22)
(1.01719 -0.000126185 -6.34734e-23)
(0.867541 -0.106635 -3.15939e-21)
(0.854505 -0.0934413 -2.09338e-20)
(1.00011 0.00628466 -1.9752e-22)
(0.999637 0.00764256 1.7117e-21)
(0.854324 -0.202683 2.88073e-22)
(0.878802 -0.217311 -5.91524e-21)
(1.01625 -0.0031045 -1.26644e-21)
(1.01654 -0.00325439 1.17192e-22)
(1.05522 0.0288445 1.39497e-22)
(1.04968 0.0297059 -4.76348e-21)
(0.996843 0.0777851 -1.17978e-20)
(0.989332 0.101596 -1.0012e-21)
(1.00992 0.0137274 -7.73194e-22)
(1.01049 0.0145365 -7.07169e-22)
(1.01089 0.0136073 -9.75108e-22)
(1.01202 0.000479603 -2.68753e-24)
(1.01209 0.00060641 -7.83011e-22)
(1.01212 0.000455181 -1.53008e-21)
(0.840702 -0.0399224 0)