/*--------------------------------*- C++ -*----------------------------------*\
| =========                 |                                                 |
| \\      /  F ield         | OpenFOAM: The Open Source CFD Toolbox           |
|  \\    /   O peration     | Version:  v2012                                 |
|   \\  /    A nd           | Website:  www.openfoam.com                      |
|    \\/     M anipulation  |                                                 |
\*---------------------------------------------------------------------------*/
FoamFile
{
    version     2.0;
    format      ascii;
    class       volVectorField;
    location    "800";
    object      ddtCorrDdt0(U);
}
// * * * * * * * * * * * * * * * * * * * * * * * * * * * * * * * * * * * * * //

dimensions      [0 1 -2 0 0 0 0];


internalField   nonuniform List<vector> 
9793
(
(0.000586858 -0.00200023 -2.45629e-17)
(0.00789918 0.00616254 -4.9475e-17)
(0.000247646 -0.000255813 4.11461e-18)
(-0.0019474 -0.0646254 1.73104e-17)
(2.07675e-06 -0.000147411 3.03191e-18)
(0.0213354 0.0209586 2.39454e-17)
(0.0151822 -0.00295979 1.1795e-17)
(-0.0202913 0.00169171 -1.55931e-16)
(0.00127428 0.00132271 -9.06576e-19)
(-0.0136749 0.0158443 -2.48459e-17)
(4.1723e-05 -0.000285338 -1.89495e-18)
(4.93969e-05 -0.00031145 7.9242e-19)
(0.000267834 0.000105234 1.54079e-18)
(-0.0475692 -0.0391526 3.30174e-17)
(0.000400491 0.000889219 1.13778e-18)
(-0.00799421 0.00353151 8.34438e-18)
(0.0103812 0.0117499 1.45145e-17)
(0.000324589 -0.000169716 -3.70793e-18)
(0.00372877 -0.0494351 -8.83881e-18)
(-0.000206315 0.000229527 -2.64953e-19)
(-0.000361214 0.000543793 3.85563e-19)
(-7.279e-07 -2.54374e-05 4.65038e-18)
(-0.00221043 -0.06029 -1.0992e-17)
(-0.020118 0.000807717 4.25025e-17)
(-0.0537754 -0.0359376 -5.72302e-18)
(0.00186056 -0.00324828 -2.10967e-17)
(0.000152368 -0.000380249 1.01618e-18)
(2.5087e-06 -3.96981e-05 1.88003e-18)
(-0.000188944 0.000249186 4.4411e-19)
(0.0168434 0.00556849 -4.55244e-17)
(-0.0321849 -0.00162794 -2.95872e-17)
(0.024906 0.0188472 2.55455e-17)
(0.000174402 -0.000286753 -2.06183e-18)
(0.000331696 -4.49369e-05 -5.60263e-18)
(4.22607e-05 9.48463e-06 -8.6865e-19)
(-0.000134659 0.00864307 -3.63831e-18)
(-0.00539832 0.00299091 -4.30695e-18)
(-0.000151153 -0.00332514 -2.27167e-17)
(0.0114411 -0.0594011 -5.56997e-18)
(0.00522901 0.00608398 -4.79038e-18)
(0.015768 0.00549773 1.40592e-17)
(0.0655053 0.0119938 -5.55614e-17)
(-0.0276085 -0.00866124 2.00833e-17)
(1.46973e-06 -2.63466e-05 -2.80022e-18)
(1.97226e-05 -0.000250527 -1.05981e-17)
(3.36581e-05 -0.000475955 1.70212e-18)
(-0.0319894 0.00393537 -9.87453e-17)
(4.28076e-06 -3.99113e-05 3.66888e-18)
(-0.000982574 0.000335769 -4.12734e-18)
(0.000308924 -0.00017316 8.73564e-19)
(-0.000723127 0.00869894 6.97829e-18)
(3.20496e-05 1.07112e-05 -1.20975e-18)
(0.00431558 0.0109534 5.81761e-18)
(7.45161e-06 -9.31637e-05 1.85919e-18)
(0.00351 -0.00429887 -2.15863e-18)
(-0.00240018 -0.0641804 -1.63911e-17)
(0.000240412 0.000113839 3.6975e-18)
(0.00613405 0.0280387 -1.85559e-17)
(-0.000958151 0.000427436 2.60871e-18)
(1.62004e-06 -2.24083e-05 -7.41429e-19)
(0.000408371 -0.00374852 -1.91024e-17)
(0.0053527 -0.00939286 2.39466e-17)
(0.000249843 -0.000183918 4.21086e-18)
(-0.00664099 0.0129869 1.25683e-17)
(9.29659e-05 2.0086e-05 1.51992e-18)
(0.00118706 0.00124238 8.05665e-19)
(-0.0216382 0.00183605 5.17907e-17)
(0.00153175 0.00431932 -3.88478e-19)
(-0.00633715 0.00268106 -7.21738e-18)
(0.0233922 -0.0270819 -3.22407e-18)
(0.000402937 -0.00125346 9.12786e-19)
(-0.000524145 -0.0088496 5.67018e-17)
(-0.0262362 0.00299508 7.56242e-17)
(0.213435 0.115973 5.49858e-18)
(0.061813 -0.0146375 -1.85003e-17)
(2.02127e-06 -8.41609e-05 -1.2773e-18)
(0.00241114 -0.00668679 -6.78392e-17)
(0.0419117 0.0110354 7.15089e-17)
(0.000155332 -0.000212533 7.7505e-19)
(2.67182e-06 -0.000100239 3.53804e-18)
(0.00221113 -0.0069136 1.023e-16)
(0.00449415 -0.0470278 -9.16114e-19)
(0.00936458 0.011983 -1.91827e-18)
(0.00292271 -0.00105713 -2.65097e-18)
(-0.00600416 0.00320333 1.44656e-17)
(0.0279514 0.00659452 -1.49685e-17)
(6.82765e-06 -0.000135421 -2.94467e-18)
(-0.00750951 0.0294142 -1.56099e-17)
(0.0100715 -0.0609795 2.29137e-17)
(0.00501322 -0.00909927 -2.96093e-17)
(-0.00486164 -0.0597326 1.43894e-18)
(0.0458431 0.00464304 4.15278e-17)
(0.0452955 0.00106041 -5.24972e-17)
(0.00963671 0.00379226 6.46047e-18)
(-0.0238261 -0.0142791 6.04726e-17)
(0.000414388 -0.000160811 -3.23116e-19)
(0.0633899 -0.009026 -7.93197e-18)
(0.0109739 0.00900921 9.90224e-18)
(0.00336426 0.00299982 1.21667e-17)
(2.68322e-07 -0.00011062 -2.50921e-19)
(-0.012818 -0.0581397 6.84655e-18)
(0.0040316 0.0103993 -1.24832e-17)
(0.034445 0.208621 1.30019e-17)
(2.24537e-05 -0.000246524 4.89925e-18)
(0.0877799 -0.031149 1.90094e-17)
(0.0372922 0.00434849 -7.48439e-17)
(0.206346 0.0979186 -2.67112e-18)
(0.000152047 9.85223e-05 -2.13363e-18)
(0.000140681 -0.000227561 -2.06935e-18)
(-9.87718e-07 -4.88037e-05 1.11197e-18)
(1.27124e-05 -9.70638e-05 -1.01331e-19)
(-0.00311613 -0.0591888 -7.32495e-18)
(0.000465533 -0.0105335 -4.22719e-17)
(-0.0185873 -0.00337905 2.91543e-18)
(0.000425642 -0.00126452 6.02148e-18)
(0.000115093 -0.000573012 -3.34863e-18)
(-0.00623374 -0.00103292 -6.20303e-18)
(6.61066e-05 -0.000502007 4.34053e-18)
(-0.00218272 -0.0641563 -4.32212e-17)
(1.2938e-05 -0.000399285 -5.47062e-18)
(0.0814397 -0.039578 5.14024e-17)
(-0.00535926 0.0309523 -1.82536e-17)
(0.0843885 0.00358658 -3.10356e-17)
(0.00255867 0.0148596 -2.61484e-17)
(-0.00501356 0.00341489 -6.71152e-18)
(1.15382e-07 -0.000431474 4.52149e-18)
(0.0123622 0.0107593 5.83155e-18)
(-0.031594 -0.00190839 8.05405e-17)
(0.0012051 0.0512442 -1.40781e-17)
(0.000778011 0.0541659 3.3268e-17)
(-0.00180307 0.00432286 2.12135e-18)
(0.000360382 1.68668e-06 1.98272e-19)
(0.000644828 -0.00191083 4.71477e-18)
(0.00102749 0.00375057 1.3282e-18)
(9.31626e-05 0.00771522 7.85796e-18)
(0.0213016 -0.00305845 2.01781e-17)
(0.0220866 0.0299929 -2.35041e-17)
(-0.00628091 -0.000422395 1.64135e-17)
(2.05879e-06 -5.83008e-05 1.99607e-18)
(0.0110453 0.0141323 -1.22661e-17)
(0.00330656 -0.0408655 4.90493e-17)
(0.000157091 0.00813909 -1.59943e-17)
(0.000727111 -0.000994602 -6.2859e-18)
(-0.00721563 0.023885 -6.50142e-19)
(-0.0316094 0.00520904 3.65608e-17)
(0.0130865 -0.0138278 1.09411e-16)
(-2.26491e-05 -0.000431966 -2.35415e-18)
(0.0558808 -0.0114585 -3.49538e-17)
(0.000384648 -4.58412e-06 1.31867e-19)
(-1.07166e-05 -0.000409675 2.57082e-18)
(0.00017822 -0.000416279 -9.36223e-18)
(-0.0233438 0.00254297 -1.13078e-16)
(0.00311254 0.0028763 -3.18063e-18)
(0.00015098 -0.000397508 -5.81876e-19)
(9.41473e-05 -0.000712305 5.09514e-18)
(0.045577 -0.00742652 2.28356e-17)
(0.0109457 0.0124372 5.35777e-18)
(0.000266978 -0.000176556 1.30897e-18)
(0.0240881 0.0194712 2.05856e-17)
(0.000421924 -0.000900438 -6.72567e-18)
(-0.00666937 0.0271144 1.67003e-17)
(-0.00160586 0.00460779 -7.91603e-18)
(-0.000326572 0.000577585 1.71396e-18)
(0.00239226 -0.0113515 4.79554e-17)
(-0.0011014 0.00171377 2.79242e-18)
(0.043411 0.0149446 3.57621e-17)
(-0.00888889 0.219269 -7.16264e-17)
(-0.00092073 0.00222645 -1.03584e-18)
(0.000135841 9.61341e-05 6.90058e-20)
(2.30937e-05 -0.000234673 -5.45658e-18)
(0.000712246 -0.00108089 -4.43879e-18)
(-0.00268971 -0.00109363 8.14776e-17)
(-0.0528364 0.0233856 -6.86904e-17)
(0.00894812 -0.0432371 1.67809e-17)
(0.0002735 0.000103956 -2.72844e-18)
(0.0202568 0.0212568 -1.18547e-17)
(0.0105695 -0.00973536 -3.11862e-18)
(0.0017275 -0.0122295 1.35853e-17)
(0.000183545 -0.000198433 6.21075e-18)
(0.000989471 0.00449302 9.4304e-18)
(0.100725 -0.025287 6.56744e-18)
(-0.0312339 0.0040376 7.39768e-17)
(-0.00558829 0.0328533 2.8591e-17)
(4.07717e-05 -0.000431499 -2.24861e-18)
(4.29153e-05 -0.000590361 -3.97949e-18)
(0.000142088 9.24949e-05 1.22363e-18)
(0.0993439 0.00843495 5.7611e-18)
(-0.0279142 0.00301156 -5.71932e-17)
(-0.0166672 0.00633079 -6.23454e-18)
(0.0502294 0.195378 -1.40049e-17)
(0.00112193 0.0010124 5.54464e-19)
(0.00604244 -0.0702947 1.95327e-17)
(0.00021531 -0.0104307 3.40241e-17)
(0.000610795 -0.00337336 -1.34983e-17)
(-0.00120159 2.31803e-05 2.19928e-18)
(0.00193424 -0.00188259 7.15638e-18)
(-0.000523329 -0.0114875 -9.52222e-17)
(-9.16403e-05 0.000218476 1.81146e-19)
(0.000340217 -0.000176522 5.80706e-18)
(2.80409e-05 -0.000401057 1.12377e-18)
(0.00041421 -0.00138987 -8.28268e-18)
(-0.000504077 0.000472733 9.69332e-19)
(-0.00149095 0.00950972 -6.46715e-18)
(-0.00316977 0.00547902 -3.95514e-18)
(0.00557036 -0.062069 -1.00755e-16)
(7.70257e-05 -0.000973476 6.62348e-18)
(0.00422255 0.00549123 -1.62506e-18)
(-0.00110551 0.00218243 -2.54165e-18)
(0.0011142 -0.00169866 -1.22462e-17)
(0.00474178 -0.013624 -1.09981e-18)
(0.0104716 0.0136109 3.76031e-18)
(0.00126902 -0.0383626 -5.25472e-17)
(-3.65119e-05 0.000164842 6.47307e-20)
(0.0196141 -0.0303289 5.97205e-17)
(0.0028878 -0.00125666 5.11179e-18)
(-0.0283728 0.00389348 -7.85564e-19)
(0.000452132 0.000924478 2.79268e-19)
(0.0217709 -0.00183596 -1.93232e-17)
(0.000102403 -0.000581847 7.90507e-18)
(0.000707432 -0.0071147 1.55948e-17)
(0.0116423 0.00936918 -6.28214e-18)
(-0.000489031 0.000520797 2.77554e-18)
(-0.00198509 -0.011792 -6.6942e-17)
(0.00230471 -0.0099997 4.15719e-17)
(0.00916308 0.00345517 -1.27696e-17)
(0.000494758 -0.000272695 3.54157e-18)
(0.00385383 0.0175434 2.16748e-17)
(-0.0214411 0.0549201 3.25597e-17)
(0.0011771 -0.00700415 3.24407e-17)
(0.00135928 -0.00708367 -4.22159e-17)
(0.00105925 -0.0644959 -3.41126e-17)
(-0.00249709 0.0443507 3.77735e-17)
(-0.0256246 0.00424752 3.05489e-18)
(-0.00692242 0.0137752 1.65508e-17)
(7.42633e-05 -0.0100491 -9.96057e-17)
(-0.000700687 -8.5496e-05 2.3566e-18)
(0.0172017 -0.058025 5.22674e-18)
(-0.0169363 -0.00475055 -8.55167e-17)
(-8.70462e-05 0.000211841 -5.9884e-20)
(1.367e-05 -0.0003283 1.66553e-18)
(0.0669715 0.0159571 5.90386e-17)
(0.00052393 -0.000726993 -7.43813e-18)
(1.02623e-05 -9.00279e-05 -4.29152e-18)
(0.00550387 0.0319883 -8.94413e-18)
(0.00841618 0.0314269 6.17711e-17)
(0.00121731 0.0010775 7.58403e-19)
(0.000873749 0.00466406 -1.1775e-17)
(0.0044898 0.00581784 3.12965e-18)
(0.00582666 -0.00405218 1.30946e-17)
(-7.72508e-05 0.00492384 3.64982e-18)
(0.00016544 -0.000209982 7.58643e-18)
(0.0101371 0.000101496 -7.20998e-18)
(0.000596963 -0.0644076 1.95804e-17)
(-0.000444516 0.000515824 -2.81173e-18)
(0.00298909 -0.0330317 1.02803e-16)
(1.14632e-05 -0.000111137 -3.13495e-18)
(6.21925e-05 -0.000368122 7.35178e-19)
(-2.55542e-05 2.9318e-05 -2.30191e-19)
(-0.00187874 -0.0646374 1.19596e-17)
(-2.25892e-05 -0.000244255 -7.41216e-18)
(0.0421679 -0.00621287 -4.43098e-18)
(0.0440833 -0.0319163 -4.02301e-17)
(0.000113108 -0.00022464 -2.10331e-18)
(9.87855e-05 -0.000564559 -8.98235e-19)
(0.037234 0.0207328 -2.75958e-17)
(-3.62057e-05 2.41795e-05 -1.97578e-19)
(1.05963e-05 -0.000216548 -1.47617e-18)
(-6.91081e-05 2.26228e-05 -6.96337e-20)
(0.0386714 -0.0357505 -4.4201e-17)
(0.00234952 -0.0110282 -5.94803e-17)
(0.00182077 -0.00285041 -1.34925e-18)
(0.00664172 -0.0133091 7.46573e-18)
(0.00706224 0.0257821 -1.96848e-18)
(0.0144043 0.204149 4.36951e-17)
(0.00182701 -0.0615358 4.28818e-17)
(-0.000837479 0.00239332 5.78841e-18)
(-0.00775802 -0.0769383 2.50932e-18)
(6.79956e-06 -9.59635e-05 -4.22237e-18)
(-0.0350894 0.0662871 -4.06885e-17)
(-0.00050851 -0.0155425 2.23516e-17)
(0.00285224 -0.0597133 -4.00615e-17)
(0.0810731 -0.0370452 -9.81485e-17)
(-0.00200212 0.0422905 -3.39369e-17)
(-0.00220013 0.00427223 -2.70836e-18)
(0.00878563 0.0112229 -1.49321e-17)
(-0.00281657 0.00520765 -5.94726e-18)
(-0.00130117 -0.000174374 1.41621e-18)
(-0.00181568 0.00188225 -1.83668e-19)
(0.00533204 -0.0131864 -7.22903e-19)
(0.00194181 -0.00333357 4.89987e-18)
(8.43202e-05 -0.000561312 2.32172e-18)
(2.06502e-07 -6.96785e-06 -1.26965e-19)
(-4.11683e-05 0.000176875 6.39613e-20)
(-0.000176441 -1.16519e-06 5.72764e-19)
(-0.000415908 0.000559143 6.0626e-19)
(-0.000192246 -0.054971 -3.77927e-17)
(0.000176297 9.31154e-05 -6.81401e-19)
(0.000448333 0.000732857 6.39283e-19)
(-0.000170973 -1.28846e-06 5.29023e-19)
(0.000245681 0.000112877 -2.93959e-18)
(0.00127311 -0.0642832 5.91104e-17)
(0.0137937 -0.0137576 4.73073e-17)
(-0.00118036 -0.00791136 -6.79122e-17)
(0.000478909 -0.00244223 4.89775e-19)
(-0.00548706 0.0237062 -3.55923e-17)
(-0.00017093 8.03748e-07 -5.18564e-19)
(0.130004 0.0831593 2.19895e-18)
(-0.0156961 -0.00145606 1.56008e-16)
(7.8884e-06 -0.000242525 -9.12034e-18)
(0.0462203 -0.0262922 -7.28226e-17)
(-0.00486807 0.0119844 1.08333e-17)
(3.76975e-05 -0.000259539 7.04346e-18)
(-0.00334856 0.00651874 6.22206e-18)
(0.206227 0.0780282 -5.14319e-18)
(0.000179193 -0.00030174 -6.2883e-19)
(0.0104886 -0.000343327 9.16907e-18)
(0.00406302 -0.00967475 -6.68085e-17)
(0.00102656 -0.00150107 -1.29622e-18)
(-0.000631539 -0.00528502 2.60443e-17)
(0.000406601 0.000810632 -9.91103e-19)
(0.000945255 -0.00169465 -7.47556e-18)
(-0.0817966 0.080477 -5.99221e-19)
(0.00475646 -0.00534934 7.55718e-18)
(0.000311728 -4.83584e-05 3.69021e-19)
(5.82922e-05 -0.000376343 -2.73097e-18)
(0.000476749 -0.00238373 -1.75317e-17)
(0.0130226 -0.0102156 -4.70011e-17)
(-0.000412074 -0.0109958 8.53632e-17)
(0.000227738 -0.000260732 -2.39774e-18)
(0.000157667 9.47969e-05 2.12544e-18)
(-0.000458314 0.00102949 4.01165e-19)
(-0.00199865 -0.000956815 -1.0927e-16)
(-0.0230213 -0.051354 1.57053e-17)
(-0.0104025 -0.0133156 -4.82307e-18)
(-0.00065656 2.40482e-05 1.64442e-18)
(0.0050367 -0.00553083 -2.54771e-18)
(-0.000845909 -0.00538791 -1.23416e-17)
(0.00444854 -0.0170925 8.89298e-18)
(0.00680537 0.022018 -7.61562e-18)
(-0.000669832 -0.000340615 -3.96752e-18)
(-0.000855339 -0.00015848 -8.73703e-19)
(-0.000393523 0.00104335 7.90955e-19)
(0.00793592 0.0113736 -1.77431e-17)
(0.00141261 -0.000763319 4.14488e-19)
(-0.0280297 -0.00579365 2.73856e-17)
(0.000109507 -0.000583278 1.17002e-19)
(0.000321604 6.12699e-05 -1.22277e-18)
(0.0527816 0.0791494 1.39177e-17)
(-0.000482176 -0.0537442 2.74003e-17)
(0.0217133 -0.0338303 3.07662e-18)
(-0.000177787 5.824e-07 -5.3275e-19)
(-0.0102538 -0.05945 6.35639e-18)
(0.00340807 -0.00102862 -2.39509e-18)
(-0.000250265 -0.0112095 2.35068e-17)
(-0.017853 0.00137118 1.43034e-16)
(0.00135821 -0.0651869 7.12116e-17)
(0.002948 -0.000432801 1.28963e-19)
(0.00569956 0.0061419 1.87133e-17)
(0.0235012 0.0285932 -4.41638e-17)
(-0.00621401 -0.0579055 1.70658e-17)
(-0.00370367 -0.0604247 -1.7387e-17)
(-0.000701425 -0.00362484 -4.84487e-18)
(3.79581e-06 -4.68075e-05 2.71587e-18)
(0.00178309 -0.00297143 -7.16899e-18)
(-0.000927416 0.000172747 -2.84878e-18)
(0.000161482 7.88697e-05 -1.11319e-18)
(0.00132809 -0.00080843 -9.6085e-19)
(0.000175108 -0.000327764 3.71363e-18)
(5.12691e-08 -2.7492e-06 -1.66712e-18)
(-0.0192502 -0.00370961 -5.8503e-17)
(3.46408e-05 -0.000275808 7.5636e-19)
(0.0132552 0.00928302 3.75154e-17)
(0.00448448 0.00668995 3.93025e-18)
(0.14314 0.0298794 -1.31612e-17)
(-0.000640185 -0.000396551 -1.06434e-18)
(0.00308602 -0.000976519 7.69198e-19)
(0.000546836 -0.0670945 9.54028e-18)
(-9.55365e-06 -0.0103308 1.34234e-17)
(-0.0560248 -0.030582 -1.7801e-17)
(0.00635231 0.0211568 -1.12233e-17)
(0.000301776 5.10781e-05 7.83711e-19)
(0.00309014 -0.000323967 6.57673e-19)
(0.000259792 -0.000229564 -9.69391e-19)
(0.0210499 -0.0117316 1.89807e-17)
(-0.000112345 6.85187e-05 -1.94594e-19)
(0.0249814 -0.0360215 2.63043e-17)
(0.00872551 -0.0110073 -1.18121e-18)
(0.0145477 -0.00365284 -1.4186e-18)
(-0.0110194 -0.0117064 1.32696e-16)
(-0.0814184 0.0962511 3.07687e-17)
(8.39632e-05 -0.000213601 2.11297e-18)
(0.000469577 -0.000226651 -6.57005e-18)
(0.0228895 0.0319493 -1.53582e-17)
(0.0218144 -0.0108985 -2.34696e-17)
(3.12102e-05 -0.000951135 -7.75107e-18)
(-0.0218812 0.000633466 7.96842e-17)
(9.15905e-05 -0.000225319 -3.13904e-18)
(5.14484e-05 -0.000484225 -8.31903e-22)
(-0.00395188 -0.0150078 2.8862e-18)
(-4.45969e-05 0.000159926 -2.58538e-20)
(0.00735522 0.0271235 1.51027e-18)
(-0.000699312 -7.40081e-07 6.49112e-20)
(-0.0361529 0.211134 6.68299e-17)
(0.000106832 -0.00060209 -1.07451e-18)
(-0.00123498 0.00162055 -2.34798e-18)
(0.0589442 0.0383986 6.39086e-17)
(-0.000501152 -0.00864365 1.92665e-17)
(-0.032137 0.0151227 -1.14084e-17)
(0.000730864 -0.00337005 1.41054e-17)
(0.000129863 -0.000189744 1.49751e-18)
(0.000637865 -0.000225105 -6.22991e-20)
(0.0775126 6.26013e-05 -1.92254e-17)
(0.0110986 0.0080782 1.24778e-17)
(-0.000479757 0.000223287 -5.58495e-19)
(2.43092e-05 -0.000470892 3.07976e-18)
(0.00330703 -0.00449781 1.17178e-17)
(-0.00126362 -0.0053048 7.65354e-18)
(-0.0341281 0.0123418 -9.91474e-18)
(-0.0302541 0.00519603 -2.51807e-17)
(3.03116e-05 -0.00044321 2.15068e-18)
(0.000330011 -5.72205e-05 6.57353e-18)
(0.00314266 -0.0118416 -5.87938e-17)
(0.000131687 -0.00017996 -9.60817e-19)
(0.000989044 -0.0648762 -9.70878e-18)
(0.00223237 -0.0122658 2.28579e-17)
(5.20809e-05 -0.000568223 7.0757e-18)
(0.000196569 -0.000282046 1.4041e-18)
(-0.00167954 0.00190097 -2.67833e-18)
(0.000105846 -0.000217945 9.54003e-19)
(-0.000494562 0.000946406 -5.27103e-18)
(-0.0129608 -0.0584054 7.31551e-18)
(0.000953501 -0.00726251 -3.64553e-17)
(0.035313 0.0235953 -1.68241e-17)
(-0.00110528 -0.00412555 7.69795e-18)
(-0.00426693 0.001149 -6.31087e-18)
(0.00330319 0.0143995 1.22006e-17)
(-0.000168759 -0.00322259 5.08087e-18)
(-0.00338664 -0.0631898 2.61262e-17)
(0.000511661 -0.00367812 1.87908e-17)
(4.86955e-06 -0.000123239 -9.47841e-19)
(0.00134626 0.00453672 -6.89933e-18)
(0.0146097 -0.0127579 -1.49852e-17)
(0.000522442 -0.00115348 -6.25293e-19)
(0.000421493 -0.000966335 5.31512e-18)
(0.000379258 -0.0013372 4.80978e-18)
(-0.000101384 6.49161e-05 3.71535e-19)
(0.000272672 -9.59038e-05 -3.4603e-18)
(0.000609768 0.000595582 -6.19375e-20)
(5.4788e-05 -0.00047542 -5.49138e-18)
(6.28712e-05 -0.000198397 -1.49726e-18)
(0.00195113 -0.00150742 3.84368e-18)
(-0.00237294 0.00525485 -4.90769e-18)
(0.00459122 0.0330496 8.6428e-18)
(-0.00017771 1.30517e-05 -1.66348e-19)
(-0.000627519 -0.0114246 4.44507e-18)
(0.00153892 -0.00318093 1.37197e-18)
(0.00891048 -0.0117929 3.49178e-18)
(0.00194907 -0.0637357 -4.8086e-18)
(-0.00131437 -3.38205e-05 -2.49526e-18)
(0.0693341 0.0825856 -5.08023e-17)
(0.0148883 -0.00213047 2.11327e-18)
(-0.00119855 0.000141072 -2.09071e-18)
(-0.000106701 9.69298e-05 2.38137e-19)
(0.000842496 -0.00105975 4.32567e-18)
(0.114479 -0.0269825 -1.78776e-18)
(0.00816426 0.0249643 -2.30623e-17)
(-0.000114676 9.23135e-05 -2.04198e-19)
(6.14272e-05 -0.000657759 -3.82627e-18)
(3.58549e-05 -0.000421936 2.05631e-18)
(-0.00220235 -0.00779245 -5.75322e-18)
(0.0101838 -0.0105308 -1.21228e-17)
(0.0424772 0.00771626 -6.03551e-18)
(9.70265e-05 1.615e-05 -2.84245e-18)
(7.72622e-05 -0.000699916 -1.53622e-18)
(0.000955582 -0.00484242 -2.10431e-17)
(-0.0324252 0.00309044 2.44213e-18)
(0.00122911 -0.0600918 5.71948e-17)
(0.000893778 -0.00270801 8.66904e-19)
(-0.00223067 0.00335952 -1.01839e-17)
(0.00761333 -0.0262947 -1.10975e-16)
(0.0466348 0.0141634 -8.38371e-17)
(0.012301 0.0389187 -3.66429e-17)
(0.00122715 -0.00136452 -6.19682e-18)
(0.000341222 2.79793e-05 -1.81329e-18)
(0.00707386 -0.0614585 5.35055e-18)
(0.000415458 -0.000234972 -1.89146e-19)
(0.0114717 -0.00963027 1.74786e-17)
(0.145371 0.0281487 4.58675e-17)
(-0.000461667 0.000186927 -5.52958e-19)
(0.00260686 -0.0108784 3.71664e-17)
(0.00356024 0.00525702 1.40277e-17)
(-0.0103532 -0.0589105 1.75055e-17)
(0.000607806 -0.000203028 2.38613e-18)
(0.00747305 -0.0524286 -8.24772e-18)
(0.0260817 0.015229 1.27697e-18)
(-0.00728931 0.00350258 -1.11705e-17)
(0.0350064 0.0225615 8.46746e-18)
(0.000427327 -0.000188556 1.21434e-18)
(0.00558821 -0.0165705 5.37385e-18)
(8.63031e-05 -0.000614633 6.88704e-20)
(0.00047192 -0.000184356 7.16627e-19)
(1.87767e-05 -0.000207472 4.9529e-18)
(0.000289421 -0.000149175 1.57715e-18)
(0.0554978 -0.0220899 5.73262e-17)
(0.000428937 -0.000190037 -2.49453e-18)
(-0.000837149 0.000525261 1.47708e-18)
(0.000721414 -0.00236644 -2.44307e-17)
(-0.000661943 9.99341e-05 1.23336e-19)
(0.00035925 2.07376e-05 1.90938e-18)
(0.010243 -0.00151699 -3.97515e-18)
(0.0022396 -0.000910013 1.4481e-19)
(-0.00524639 0.0127871 -1.86063e-17)
(0.00015692 -5.2075e-05 9.22971e-19)
(0.000151688 -7.26327e-05 -2.03486e-18)
(0.000890384 -0.0666743 1.07405e-17)
(-0.000619169 -0.00825665 8.31538e-18)
(0.000875381 -0.0026629 6.47324e-18)
(0.0110584 -0.0384459 -7.24406e-17)
(-0.00219472 0.00492147 4.76747e-18)
(0.00151118 -0.000991248 2.42828e-18)
(-3.8974e-05 -0.000251365 1.81666e-18)
(-0.000541981 0.000922074 8.42958e-19)
(-0.0142016 -0.014421 -2.09103e-17)
(-0.000866208 0.000441563 1.25194e-18)
(9.03645e-05 -1.88541e-05 -1.66187e-18)
(-0.035286 0.00111445 -9.48868e-17)
(0.0615102 0.0121409 -1.18323e-17)
(0.00611744 -0.0037948 -5.65279e-18)
(0.000255655 0.000106364 -1.99496e-18)
(1.69413e-06 -4.89891e-05 -2.97114e-18)
(0.000187476 0.00209182 -1.75483e-18)
(1.24924e-05 -0.000183977 2.11888e-18)
(-0.00918938 -0.0324749 5.12588e-17)
(0.00102911 -0.0015674 3.78775e-18)
(0.0818571 0.184369 4.48446e-17)
(-0.00415839 0.0035381 -5.2264e-18)
(-0.00147139 -0.0112153 1.21976e-16)
(3.9463e-06 -0.000125507 1.32928e-18)
(-0.0339259 0.00184609 -1.60769e-17)
(6.33656e-06 8.93433e-06 -1.32302e-19)
(0.0135817 -0.011001 2.06919e-17)
(0.000390225 -0.000254048 -2.04777e-18)
(-0.0232776 0.039628 3.44128e-18)
(9.196e-05 -0.0642362 6.62165e-18)
(7.99037e-05 -0.000636663 7.77163e-19)
(0.0806175 0.0115279 -2.97901e-17)
(0.000467234 -0.000544534 2.08364e-18)
(1.14961e-05 -9.93527e-06 -5.64083e-19)
(-0.000356323 0.000496628 -9.93878e-19)
(0.113048 -0.00859937 1.66348e-17)
(0.00327972 -0.0645109 6.25302e-17)
(0.000792425 -0.00104908 3.16269e-18)
(0.00378799 0.00558877 -1.33406e-17)
(-0.000916913 0.000272735 2.76916e-18)
(-0.00199858 -0.0182563 3.93028e-18)
(-0.000174078 1.63771e-05 1.49615e-19)
(0.0103713 0.000517744 1.88671e-18)
(0.00953124 -0.0509701 -3.0464e-17)
(-0.000276438 -0.00340523 2.14535e-17)
(9.96116e-05 -1.18921e-05 7.49693e-19)
(0.00283866 -0.00665375 -1.28342e-18)
(8.59586e-06 -4.8436e-05 2.43584e-19)
(0.000100182 0.00220705 -1.72261e-18)
(-0.000278535 0.00112961 1.78398e-18)
(0.00266942 0.0327522 -7.88867e-19)
(0.000121199 6.38221e-05 -1.05822e-18)
(0.0167709 -0.00862692 5.67e-17)
(0.000147933 -9.86781e-05 4.42362e-18)
(0.00150352 -0.000598861 -1.33579e-18)
(-0.0101112 0.0151037 3.97967e-18)
(0.00366452 -0.00848154 7.82611e-19)
(0.018808 0.0414012 -6.16331e-17)
(0.000424883 0.000665244 -6.45341e-19)
(-0.031281 0.00236149 -1.07416e-17)
(0.000510922 -0.000236506 5.68459e-18)
(0.0106548 -0.0113415 -2.48091e-18)
(0.000269841 -0.000644694 -2.42492e-18)
(-0.00118292 0.0020034 -1.85705e-19)
(0.00042367 -0.000240352 3.6158e-18)
(0.000148364 -0.000105086 -1.95609e-18)
(4.417e-06 -0.000111118 1.84239e-18)
(0.0103106 -0.0119239 1.09133e-17)
(-0.0243955 0.00654644 7.09632e-18)
(0.0739985 0.00876718 4.11608e-17)
(0.0193546 0.0113184 1.8152e-17)
(0.00120738 -0.00536083 -2.20785e-17)
(0.00406464 -0.00422391 -4.20469e-19)
(-0.00202445 -0.0159086 1.20286e-19)
(0.00110864 0.00398639 1.84502e-18)
(-0.0127325 -0.0364908 -7.0254e-17)
(-0.0165793 -0.0347263 -5.07727e-17)
(0.013156 -0.0118172 3.81664e-17)
(0.00043615 0.00488481 -2.92877e-17)
(0.106954 0.0339537 2.9042e-17)
(0.0120374 -0.0104299 7.9922e-18)
(-2.05911e-05 0.00218268 -1.61263e-18)
(0.000204619 -0.0112779 -8.93784e-17)
(-0.0113419 0.0146799 3.67673e-18)
(-0.00106015 0.00187297 -1.72554e-18)
(0.0136745 -0.012627 -7.83031e-17)
(5.91464e-06 -4.17519e-05 -1.23606e-18)
(0.00606602 -0.013696 -1.80812e-18)
(0.00601194 -0.00328268 -1.10359e-18)
(0.0184273 0.0316223 -1.88345e-17)
(-0.000746051 -0.00392973 -3.92909e-17)
(-0.00210022 -0.0505024 -1.81306e-18)
(-0.0367618 -0.0101162 1.65985e-18)
(-0.00916991 0.0139535 -4.69353e-18)
(0.0167233 0.0314506 3.41198e-17)
(1.78958e-05 -0.000356454 -2.45104e-18)
(0.0103319 -0.0146158 -8.33878e-17)
(-0.000412869 -0.00245378 -3.08126e-18)
(0.000371711 -0.000225163 -7.22517e-19)
(0.00130774 -0.000895926 -2.54254e-19)
(-0.00483527 -0.00110585 1.89691e-18)
(0.0103912 0.00771057 -2.12221e-17)
(0.00199274 -0.0636422 -4.59921e-17)
(0.0066696 -0.0124821 6.11535e-19)
(-0.0339865 0.00478835 -5.45663e-17)
(0.00124167 0.00357231 7.57873e-18)
(0.00205154 -0.00191445 -4.39471e-18)
(-0.0122106 -0.0578417 -2.88407e-17)
(-0.000296879 -0.0105131 -2.02874e-17)
(-0.00175955 0.00322297 1.19688e-17)
(0.0067158 0.0191189 -5.79084e-18)
(0.00115984 -0.00171539 1.29826e-17)
(-0.000684597 -0.0118205 1.523e-17)
(0.0665712 0.0494757 -6.10503e-17)
(7.5227e-05 -0.000544132 -3.49692e-18)
(-0.00157132 -0.00797991 -2.89068e-17)
(0.0033293 -0.0114822 9.01186e-18)
(-0.0336535 -0.0213654 -6.82964e-18)
(8.85065e-05 1.73157e-05 -4.61874e-19)
(0.00193938 -0.00309408 1.67824e-17)
(0.0403497 -0.000936398 3.23547e-17)
(-0.0019532 0.00891857 -8.84231e-18)
(0.102675 0.0109841 5.00689e-17)
(-0.0198232 0.0403653 -9.07591e-18)
(0.144984 0.0323379 -9.59786e-18)
(0.00291338 -0.0023045 -1.03821e-17)
(0.00141849 0.0040591 -2.45722e-18)
(0.000793358 0.00109381 -1.31428e-18)
(0.000112986 -0.000662944 -1.19074e-17)
(-0.00590123 0.063057 -1.08482e-17)
(2.05568e-06 -4.25797e-05 1.63678e-18)
(-0.0138494 0.0644311 1.1323e-17)
(0.0199825 0.0149383 -3.4823e-17)
(0.0130052 -0.00494149 -2.02814e-17)
(2.41275e-06 -1.80456e-05 -4.67164e-19)
(1.82756e-05 -0.000103237 2.6315e-19)
(-0.00487992 0.000658585 5.41556e-18)
(-0.00205463 -0.000600063 -3.16323e-18)
(3.15148e-05 1.31614e-05 -3.25021e-19)
(0.000495298 -0.000744411 -3.21831e-18)
(0.0184667 0.0107847 -2.04203e-17)
(0.124336 -0.0224433 3.90505e-17)
(-0.0546974 -0.0325492 -2.61122e-18)
(1.48435e-06 -2.56815e-05 -3.1301e-18)
(0.0192197 -0.0113165 1.02023e-17)
(0.000246318 8.96525e-05 4.23162e-18)
(-0.0159341 -0.0417927 -1.25511e-17)
(-0.00408651 0.019089 1.16428e-18)
(0.00166056 -0.00656733 -4.32474e-17)
(-0.0010363 -0.00526431 -1.36297e-17)
(0.02549 0.0160773 -1.68133e-17)
(5.25655e-05 4.46937e-05 1.70837e-19)
(0.000193699 -0.000373815 4.1348e-18)
(0.00294247 -0.00628127 1.51352e-17)
(0.000412918 -0.000265697 -1.37041e-18)
(0.000175518 0.00199086 -8.56401e-18)
(0.00946741 0.015583 -4.77694e-18)
(-0.0260522 -0.0498029 6.8149e-17)
(-0.00054461 0.000448121 -9.76099e-19)
(-0.000453834 0.0553043 -3.06051e-17)
(0.0125188 -0.059826 -1.66427e-17)
(0.000206349 0.00511949 -3.46701e-19)
(-0.0583023 0.0633329 -2.17457e-18)
(0.0192832 -0.0587994 -1.30148e-18)
(0.000650332 0.000655623 -1.33187e-19)
(0.0114945 0.0104181 5.09223e-18)
(-0.008323 0.00419711 -5.45423e-18)
(0.00111302 0.000887112 1.37098e-19)
(-0.000317263 0.00048499 -1.13291e-19)
(0.00103263 -0.00888303 4.65418e-17)
(0.00881779 -0.0596044 -2.4563e-17)
(-0.0305837 0.00326818 9.12095e-18)
(0.000551273 -0.00121895 -7.15885e-18)
(4.3051e-05 -0.000353424 4.31969e-18)
(-9.01564e-05 0.000586663 4.30828e-19)
(-0.0068344 -0.00209536 5.01526e-19)
(0.00225082 -0.000761111 -7.47468e-19)
(0.00271036 -0.00132195 3.86151e-18)
(-0.00253063 -0.0116352 -3.34326e-17)
(-0.00546675 0.019281 -1.52724e-17)
(7.0795e-05 -0.000212696 1.15748e-18)
(0.0410021 0.0167807 6.27899e-17)
(-0.000882003 0.00940779 -6.64895e-18)
(0.00134708 -0.00508547 2.33156e-17)
(3.83753e-05 0.00192201 8.90721e-18)
(-0.0298613 -0.0011712 -3.76322e-17)
(-0.00234386 0.00394899 1.4193e-18)
(8.5644e-05 5.49302e-05 -1.56248e-20)
(0.013615 -0.0046709 -7.98266e-18)
(-0.000752829 -0.011647 -7.27585e-17)
(-0.000522688 0.000219024 -9.46263e-19)
(4.28551e-05 -0.00049272 5.88179e-20)
(0.000244327 -0.000203219 1.10529e-19)
(-0.00695331 0.00275168 6.64181e-18)
(5.01517e-05 4.27759e-05 -5.3905e-19)
(-0.00803286 0.0144659 -7.02441e-19)
(0.0243289 0.0247034 -5.61313e-17)
(0.00165282 -0.000442604 -3.37915e-18)
(0.00196652 0.0338506 -3.43964e-17)
(-0.0016108 0.0030252 -1.29116e-18)
(4.53591e-05 0.00176252 -8.07439e-19)
(0.0324979 0.0402325 4.55587e-17)
(-0.0061853 -0.0423382 -4.94239e-17)
(0.00459389 0.0449549 3.83782e-18)
(0.000173928 -0.000419517 1.00754e-17)
(-0.000595886 0.000176253 1.23055e-18)
(0.243119 0.0372642 -2.12479e-17)
(0.000493214 -0.00354542 -4.18828e-18)
(0.0792358 0.0633192 -4.00018e-17)
(-0.000502049 9.54719e-05 2.7673e-19)
(0.000468895 -0.000613796 -3.19413e-19)
(-0.0205031 -0.00430319 6.69698e-17)
(0.0667998 0.198929 -4.40597e-17)
(0.00499793 0.00566652 1.05644e-17)
(0.0063873 0.0294673 -1.06527e-17)
(-0.000569613 -0.00774553 1.38901e-17)
(0.000520592 -0.000263503 1.8495e-20)
(1.58643e-06 -1.4896e-05 -7.47548e-19)
(0.00115633 0.00063947 1.70691e-20)
(-0.0147233 -0.0266247 -7.90498e-17)
(9.31691e-05 -1.72819e-05 -1.96268e-18)
(-1.90043e-07 -3.37013e-06 -6.6104e-19)
(-0.00753972 -0.0575845 1.85823e-17)
(-0.000749091 -0.00386639 1.58504e-17)
(0.0292372 0.00789856 2.74241e-17)
(-0.000638025 -0.00505756 -1.40891e-17)
(0.000240277 0.000106769 9.7905e-19)
(-0.00287417 -0.0455259 6.49056e-17)
(6.18159e-06 -7.85774e-05 5.7546e-18)
(0.000331097 -0.000562696 5.96255e-18)
(0.00113988 0.000552702 3.35594e-19)
(0.00367181 -0.0035472 4.79936e-19)
(-0.00150094 -0.0663315 -3.40437e-17)
(7.59304e-05 -0.00037333 -2.13762e-18)
(-2.44569e-05 -0.000242682 -2.04642e-18)
(0.000422263 -0.000295498 7.05304e-18)
(0.0004531 -0.000242147 -4.042e-18)
(0.000247678 0.000103165 -5.05763e-19)
(0.000874225 0.0011157 -4.3745e-19)
(-0.015307 0.00277583 6.31511e-17)
(0.00370225 -0.00380922 2.02094e-18)
(0.00182476 -0.00153639 1.21413e-17)
(0.000139493 -0.000354997 -6.7291e-18)
(0.00344935 -0.00403214 -7.55399e-18)
(0.0124245 0.0114888 3.12094e-17)
(-0.00839195 0.00280604 1.50179e-17)
(-0.000884531 -0.00412708 -9.42539e-19)
(2.52043e-07 -5.99137e-06 8.62496e-19)
(-0.000110326 0.000567248 -3.5048e-19)
(0.00288816 0.000315264 1.68541e-19)
(0.00196348 -0.0636132 -2.21009e-17)
(-0.108846 0.0295107 -1.15337e-17)
(-0.0040787 0.000822317 2.56244e-18)
(-0.0331451 0.00327893 -3.25877e-17)
(1.48388e-05 -0.000368064 1.64209e-18)
(0.00269977 -0.00228246 5.12608e-18)
(0.0350279 -0.0141727 6.53548e-17)
(2.55036e-05 -0.0104058 -4.6604e-17)
(0.00026832 0.000965403 -1.12096e-18)
(5.17171e-05 -0.000342423 2.1052e-18)
(-0.00134447 -0.0105708 -4.40413e-17)
(0.00320663 0.0181594 -2.66698e-17)
(8.01171e-05 5.54472e-05 7.44543e-19)
(8.35525e-06 -0.000188053 -1.41704e-18)
(0.0255618 -0.0169576 -1.13231e-16)
(1.82529e-06 -1.06981e-05 7.22504e-19)
(0.0154203 0.00438942 2.60719e-17)