/*--------------------------------*- C++ -*----------------------------------*\
| =========                 |                                                 |
| \\      /  F ield         | OpenFOAM: The Open Source CFD Toolbox           |
|  \\    /   O peration     | Version:  v2012                                 |
|   \\  /    A nd           | Website:  www.openfoam.com                      |
|    \\/     M anipulation  |                                                 |
\*---------------------------------------------------------------------------*/
FoamFile
{
    version     2.0;
    format      ascii;
    class       volVectorField;
    location    "750";
    object      ddt0(U);
}
// * * * * * * * * * * * * * * * * * * * * * * * * * * * * * * * * * * * * * //

dimensions      [0 1 -2 0 0 0 0];


internalField   nonuniform List<vector> 
9793
(
(0.109092 0.10161 8.59915e-19)
(0.020692 -0.0227711 -1.19137e-19)
(0.122564 0.0813661 3.41622e-18)
(-7.15297e-06 -1.61581e-05 6.33094e-20)
(-0.115668 0.719271 -2.50183e-17)
(0.000101067 -0.00212238 1.62186e-19)
(-0.00231441 -6.09254e-05 1.66149e-18)
(0.00245586 -0.0005059 7.06234e-20)
(0.00700856 0.00123808 -4.88064e-19)
(-0.187272 0.822303 -5.71958e-17)
(-0.0226184 -0.0389199 -3.57153e-18)
(0.0122037 0.158074 -1.02993e-19)
(0.00344386 -2.26082e-05 1.38853e-19)
(0.00198172 -0.00108445 -1.15844e-19)
(-0.00714942 -7.6913e-06 5.06181e-19)
(0.00139368 -0.000968383 4.62311e-19)
(-0.00104164 -0.00149904 7.95925e-20)
(-0.00373483 -0.0017683 -3.27334e-19)
(0.0637596 -0.0750147 1.32777e-17)
(0.00179879 -0.00110825 -5.83763e-19)
(-0.0411494 -0.135009 -1.22378e-18)
(0.0158641 0.00443446 1.85735e-18)
(0.0501397 0.120289 -1.27823e-17)
(-0.00064976 -0.00123106 9.67865e-21)
(0.000176912 -0.000185156 3.04439e-19)
(0.00392266 -3.81619e-05 6.94032e-20)
(0.000868288 -0.00102897 -4.65446e-19)
(-5.1811e-05 -0.0013441 5.13221e-19)
(-0.0491107 0.0233416 3.39388e-18)
(0.00935691 0.00119229 6.53802e-19)
(-0.00469142 0.00815927 3.96901e-18)
(0.0490559 0.106818 4.19318e-18)
(-0.0277026 -0.0397001 -3.38774e-19)
(0.000385105 4.14162e-05 3.40536e-20)
(-0.0525073 0.0390453 5.40595e-19)
(-0.00332733 -0.277867 1.68821e-18)
(0.000138031 -3.84715e-05 -1.36401e-18)
(0.0160194 0.0036021 -5.59171e-21)
(-0.00175987 -0.000553973 1.15161e-18)
(0.00171507 5.22395e-05 -1.92407e-19)
(-0.00124961 0.0068639 -2.49942e-18)
(-0.00713398 -1.70421e-05 -3.34381e-19)
(0.00286851 -4.8278e-05 6.62848e-19)
(-0.000604606 -7.13164e-05 -7.69278e-19)
(0.00380187 -2.83692e-05 -1.04854e-18)
(0.00447749 -2.863e-05 -9.87656e-20)
(-0.0534618 0.0241745 -2.02081e-18)
(0.00259527 -0.0224934 2.80985e-19)
(0.0151336 -0.0234847 1.44875e-19)
(-0.00188753 -3.15881e-05 -1.68554e-20)
(-0.0620667 0.0416246 -6.19841e-18)
(-0.039453 -0.0438082 -4.78541e-18)
(0.0031521 -0.00330687 -7.61372e-20)
(0.00341656 0.00210932 3.92603e-19)
(-0.323437 -0.0820746 1.56718e-18)
(-0.236519 0.0708139 -1.7735e-18)
(0.000855087 0.000623226 -8.43087e-19)
(0.0458233 -0.0580401 1.26288e-18)
(-0.0718552 -0.132075 -9.27975e-20)
(0.00217264 -0.000564601 -3.05386e-19)
(0.000417083 5.30997e-05 -2.46227e-20)
(0.00516745 -0.00372652 2.67407e-19)
(0.000755149 -0.0714536 -1.33361e-18)
(-0.00202014 1.8784e-05 -1.43472e-18)
(0.0844809 0.0762037 1.716e-17)
(-0.0120915 -0.0179381 4.11882e-19)
(-0.00463968 -0.0588451 1.89807e-18)
(0.00123641 -0.0423424 -4.89528e-19)
(0.0324923 0.115163 -8.18506e-19)
(-0.0243084 -0.0343543 2.74237e-18)
(-0.351852 0.00412691 -9.83353e-20)
(-0.000313611 -9.94336e-05 -2.28652e-21)
(0.0107382 -0.000260156 -2.50984e-19)
(0.00382251 -0.0202411 -6.48172e-20)
(-0.0677429 0.0599031 4.4432e-19)
(-0.0664994 -0.103355 -1.41155e-19)
(0.00433551 0.000604629 5.89578e-19)
(-3.17576e-05 -0.00304823 6.31379e-20)
(0.00173332 -0.00294322 -3.65182e-19)
(6.92853e-05 -0.00194146 1.83844e-19)
(-0.00498113 -0.0228175 9.62863e-19)
(0.000708757 -0.00277864 -3.97386e-19)
(0.0332268 -0.0225586 -6.96893e-19)
(0.024243 -0.0118555 5.2817e-19)
(-0.000977463 0.00411642 -2.39673e-18)
(0.00903567 -0.022494 9.02688e-19)
(0.000339749 -0.00205513 6.31201e-22)
(0.00514165 0.000610536 1.12832e-18)
(0.00234295 -0.00275539 -1.15559e-19)
(0.000507258 -0.00287679 -2.06959e-19)
(0.0197837 -0.0265407 -7.07923e-19)
(-0.142184 -0.161179 1.51611e-17)
(1.07864e-05 0.00244721 4.87399e-19)
(0.0585109 0.0733022 5.50572e-19)
(0.00570417 -0.0032204 -5.19366e-19)
(0.0306038 -0.0105754 -5.38989e-20)
(-0.24183 -0.0182635 -2.13455e-19)
(0.0308199 -0.0218526 3.94277e-19)
(-0.000462964 0.00218497 3.18818e-19)
(0.0010579 0.00144727 -7.46382e-20)
(0.00107916 0.00132482 -4.50837e-19)
(0.00202055 -0.00208178 -3.87444e-19)
(-0.00185005 0.000842751 8.50558e-20)
(-0.00143691 0.000754795 2.12444e-19)
(-2.39895e-05 -0.002847 -6.14128e-20)
(0.00155788 0.00345903 2.51551e-18)
(0.00580887 -0.00244663 -6.14795e-19)
(-0.000703428 -1.90227e-05 3.47254e-19)
(0.000608966 -0.00292275 1.51489e-18)
(-0.0142367 -0.014104 -3.66886e-21)
(-0.000234321 -7.49076e-05 2.18146e-21)
(-0.168823 -0.0017691 -6.91395e-19)
(-0.0111984 0.000486473 8.79768e-19)
(-0.128295 -0.365745 1.76257e-17)
(-0.050292 -0.0401663 2.9154e-19)
(0.0037097 0.000640896 5.21727e-19)
(-0.0342236 0.0048232 6.61006e-19)
(-0.0577591 0.0683352 3.49436e-19)
(0.00035946 -0.00307654 6.63338e-19)
(0.0583992 0.0549276 -4.01694e-18)
(-0.0149237 -0.0217197 4.69849e-20)
(1.32623e-05 -1.40098e-05 2.61692e-20)
(-0.0014951 0.000751036 7.53224e-19)
(0.000304979 -0.00203919 -1.19065e-18)
(0.00390493 0.00338136 -4.01448e-19)
(-0.0845825 -0.126058 -9.44297e-20)
(-0.00530026 -0.00954043 -1.49531e-20)
(0.0138766 -0.0256332 -5.40709e-19)
(0.000987746 -0.00320568 2.51945e-20)
(0.00731145 -5.99488e-05 -7.38125e-19)
(-0.000115777 -6.54304e-05 -3.18838e-20)
(0.00510966 0.000630406 -1.3618e-18)
(0.00813975 -8.55697e-05 -5.93785e-19)
(0.00421182 -0.000810748 -4.17451e-19)
(0.00565988 0.00111657 -1.88549e-18)
(0.00395211 0.000658964 1.05179e-18)
(0.000173673 2.46542e-05 6.34093e-19)
(-0.000512382 -7.2482e-05 1.28791e-18)
(-0.00760438 0.000441719 -1.7942e-18)
(0.000792705 -3.6679e-05 -4.41327e-19)
(0.000893782 0.000685855 -9.70978e-19)
(0.00134744 0.000113611 -1.22616e-18)
(-0.000152732 -6.31123e-05 6.13638e-19)
(0.00257736 0.000950569 5.15251e-19)
(0.00219646 -0.00123202 2.73888e-20)
(0.00196258 -0.00161839 -8.53031e-19)
(-0.00690889 -0.0188208 -2.64195e-20)
(0.00248713 0.00115151 2.59319e-19)
(-0.00102742 0.00185391 2.92244e-19)
(-0.152066 -0.222515 3.2748e-18)
(-0.195314 0.135946 7.84586e-18)
(-6.55263e-05 -5.90469e-05 -3.35838e-21)
(-0.154691 0.286983 4.99822e-18)
(-0.197036 0.889464 -2.29483e-17)
(-0.000956865 0.00167418 -4.43516e-19)
(-8.48875e-05 -3.18974e-05 -2.71279e-21)
(0.000523235 -3.29305e-05 1.9885e-19)
(0.00167242 0.000159157 7.77232e-19)
(0.00167616 0.00119499 -1.12373e-19)
(-4.45243e-05 -6.04224e-05 -3.7316e-20)
(0.00312176 -0.000530644 -1.14527e-18)
(-0.000207971 -0.00118704 -5.13444e-19)
(0.00102531 -0.000549877 -4.17585e-19)
(0.078741 -0.0539293 -9.44698e-18)
(-0.00358392 -0.0250389 -1.21246e-19)
(-0.0195949 -0.169274 5.78365e-19)
(0.00702548 -0.0257202 -1.23038e-18)
(0.00325673 0.0163915 -8.70142e-19)
(0.000916879 -0.00085684 -4.72185e-20)
(0.00280857 -0.00168056 3.72448e-19)
(-0.00335017 -0.000545837 4.88194e-21)
(-0.0384811 -0.141971 -6.16329e-20)
(-0.00426308 -0.0265805 1.28436e-19)
(-0.0237838 -0.116388 7.02196e-19)
(0.00565676 0.00290947 -3.94183e-19)
(0.0789038 -0.0649014 -1.50599e-17)
(0.00388778 0.000647721 -7.0063e-19)
(-0.000411995 -0.00105418 1.83991e-21)
(0.00547911 -0.000153729 3.45208e-19)
(-0.00875564 0.00582525 3.55751e-18)
(0.377982 -0.0273302 -3.80613e-18)
(0.00330575 0.0020772 -2.21487e-19)
(0.00161272 0.00136938 6.76323e-19)
(0.00148297 -8.71437e-05 -1.01447e-20)
(-0.0997529 -0.0480903 1.50752e-19)
(0.00825265 -0.000211286 -6.20531e-19)
(0.0557754 -0.0653933 -4.30484e-19)
(0.00548478 -0.000173953 -1.8651e-19)
(-0.00152409 0.000555703 5.96424e-19)
(0.00113905 -0.000621867 1.67554e-19)
(0.00517215 0.00278923 1.19592e-18)
(0.00436899 0.000179673 1.09186e-19)
(0.00957491 -0.02455 -1.47472e-18)
(-0.155752 -0.0652662 -7.7997e-19)
(0.00581139 -0.0498222 2.63136e-20)
(-0.00511916 0.00570775 2.10505e-18)
(0.231624 0.0358239 1.26114e-17)
(0.00143133 -0.00184484 8.77796e-20)
(-0.19048 0.891082 5.82735e-17)
(0.000651373 -3.86844e-05 5.6523e-19)
(0.00526817 0.0010663 2.28338e-18)
(0.087076 -0.0487801 -3.62408e-18)
(-0.219705 -0.0219455 4.99563e-18)
(0.00622428 -1.99084e-05 1.23345e-18)
(0.00208613 0.000717445 -4.35891e-19)
(-0.000122393 -0.00261175 -1.56207e-20)
(-0.0381931 -0.230233 -9.90371e-20)
(0.0025155 -0.000465717 -1.55592e-19)
(0.00286452 0.00188465 3.22394e-19)
(0.0109751 0.00481726 -2.55186e-19)
(-0.0177457 0.0155035 -8.36444e-19)
(0.00725222 -0.020913 1.00944e-18)
(0.019011 -0.0271823 3.2578e-19)
(0.00725932 0.00220555 1.05542e-19)
(0.245602 0.021036 6.1627e-18)
(0.000520573 -3.61776e-05 -1.61618e-19)
(0.00441216 -0.00127172 -1.29564e-18)
(-0.0858129 -0.038822 -8.21587e-19)
(-3.27276e-07 -0.00245039 1.19342e-20)
(0.070139 -0.130876 -3.48743e-19)
(-0.016961 0.133 8.21166e-19)
(0.00472112 0.000672095 -8.67291e-19)
(0.00359912 0.00326334 5.73297e-19)
(0.00437698 0.000164097 -1.6651e-19)
(0.0232184 -0.0205509 1.73281e-19)
(0.0867866 -0.0507685 8.25682e-18)
(0.000232223 -0.00246208 -4.50179e-19)
(-0.000613059 0.00146531 -3.38135e-19)
(-0.0448499 0.131305 -9.45619e-20)
(-0.0288431 -0.0208089 -8.59948e-19)
(-0.000420866 -0.00136777 -1.39516e-21)
(-0.000551981 -0.00114743 4.02907e-21)
(0.00660012 0.00205873 -3.59469e-19)
(0.000501459 -3.94319e-05 2.32385e-19)
(-0.00390374 -0.0173822 1.21077e-19)
(0.0657278 -0.118979 -3.02938e-19)
(-0.00271728 0.000368521 8.79985e-19)
(-0.00236421 -0.000486123 -1.95333e-18)
(-0.243638 0.0491747 -1.38765e-18)
(0.000677934 -0.00229447 -7.47887e-19)
(0.00479747 0.00154602 -6.8824e-19)
(0.00233308 -0.000983447 1.14837e-19)
(-0.00168995 -0.000524522 2.49909e-20)
(-0.0178753 -0.0338322 -6.83195e-19)
(0.00129537 -0.000435885 -1.41384e-20)
(-0.00091751 0.00191497 2.52919e-19)
(0.0025434 -0.000492981 4.20705e-19)
(0.001333 0.000288254 -5.20843e-19)
(-0.000658238 0.00213391 1.90366e-19)
(0.000500312 5.55386e-05 -1.54356e-19)
(0.00655419 0.00118094 -6.23447e-19)
(-0.000684032 0.00726583 -1.20586e-18)
(-0.0507586 -0.0293226 2.13225e-18)
(-0.00209953 -0.0129738 1.53797e-18)
(-0.00298121 -0.000451087 9.56696e-19)
(0.0162083 0.00112977 1.61139e-19)
(-0.000362874 -0.000419913 1.18104e-18)
(-0.0014317 0.00792869 1.41079e-18)
(-0.000370007 -0.000579224 -1.10939e-18)
(0.00271701 -0.00022271 2.88665e-19)
(-0.0186782 -0.0316026 3.49825e-20)
(0.00189115 -0.000435975 -1.16716e-19)
(-0.0597851 -0.0221637 1.25045e-18)
(0.00103861 5.3603e-06 3.62672e-19)
(0.00169051 0.0176491 -1.03524e-18)
(-0.000274144 -0.00193498 5.0714e-23)
(-9.29058e-05 -0.00182848 -3.36861e-21)
(-0.0167163 0.0185828 1.77399e-18)
(0.092859 -0.0398371 3.71076e-18)
(-0.000215728 -0.00192502 3.13803e-18)
(0.00278627 -0.000115513 -2.08056e-19)
(0.000394694 -0.000192208 -2.48954e-19)
(0.0150233 0.00957271 -6.42859e-19)
(0.00582479 0.000634092 5.19605e-19)
(0.00897817 -0.0320818 -1.55005e-19)
(0.00805557 -0.0298478 2.73278e-19)
(0.0098545 -3.97817e-05 -1.1692e-19)
(-0.166739 -0.114313 1.36926e-19)
(0.006757 0.000108963 9.10021e-19)
(-0.000618057 -0.0111956 -1.63837e-19)
(0.000849874 0.000265783 5.52301e-19)
(-0.00017586 -0.0015335 7.83234e-21)
(-0.00209479 -2.87969e-05 8.20623e-20)
(0.0016721 6.58029e-05 3.84453e-19)
(-0.00437833 -0.00800976 -2.4521e-19)
(0.00513867 0.000703989 -3.20774e-19)
(0.0063927 0.000909087 -1.02054e-18)
(-0.0002641 0.0141335 -5.52048e-19)
(-0.00148234 -0.000105217 2.57461e-19)
(0.00232497 0.000755651 5.28991e-19)
(-0.00699997 0.00040744 9.03807e-19)
(-0.0334463 -0.00993532 -2.196e-19)
(-0.00339892 -0.00222591 4.07937e-19)
(0.00010858 -3.93439e-05 5.11533e-19)
(-4.88832e-05 -5.43351e-05 4.374e-20)
(0.00415718 -0.00113058 1.41578e-19)
(0.0070137 0.00425536 -7.86264e-19)
(0.00139049 0.0150381 1.05192e-18)
(0.00750011 9.18436e-05 8.1301e-19)
(0.00887373 0.0848721 2.81551e-18)
(-0.00110349 0.00160537 -1.23407e-19)
(0.0780999 0.0836235 6.26437e-19)
(-0.0297774 0.0478622 -1.62729e-18)
(-0.000488016 -1.47125e-05 -5.90749e-19)
(-0.00141561 -4.57412e-05 -2.57639e-19)
(0.00298045 0.00043708 -1.09539e-19)
(0.0178304 0.0102355 -6.62274e-19)
(0.00749472 0.0115481 -5.99496e-19)
(0.000549781 0.000245584 1.0864e-18)
(0.0796352 0.0560366 -1.38518e-18)
(0.00743228 5.98914e-05 -8.10314e-19)
(0.00288347 0.000279069 3.12207e-19)
(0.00849827 0.011989 2.92974e-19)
(0.00857173 1.69786e-05 6.12483e-19)
(0.00592225 0.0013226 -2.82065e-18)
(0.000321985 -0.00260502 5.05432e-20)
(0.0165781 -0.0195807 5.94982e-19)
(0.0020548 -0.000267033 -7.71374e-19)
(0.0133235 0.0108815 -7.5904e-19)
(0.00936396 0.00488311 1.78839e-19)
(0.00277278 -0.00024973 -2.12731e-19)
(0.000244839 -0.0252918 1.33693e-19)
(0.187154 -0.113616 -1.94763e-18)
(0.00219376 -0.0185578 -1.82268e-19)
(-1.9653e-05 -0.00224321 2.54056e-20)
(0.331163 -0.0276163 2.49842e-19)
(0.00880647 0.0045591 -8.93469e-19)
(-0.0477559 -0.155254 -3.58128e-19)
(-0.0645405 0.0912415 -1.20889e-18)
(0.000666223 -0.000289245 -2.86332e-19)
(0.00349753 0.00137471 -7.88561e-20)
(-0.0485303 0.0989729 -2.41482e-18)
(0.00346367 -0.00186694 4.58464e-19)
(0.00473853 0.000537551 2.06735e-18)
(-0.0296213 -0.0545421 4.1838e-18)
(0.00314688 -0.000506722 -1.17481e-19)
(0.00390483 -3.8816e-05 -6.23186e-19)
(-0.002141 0.000985728 -1.07199e-18)
(0.000505416 6.04135e-05 -7.54115e-19)
(0.000117127 -0.00155802 -4.66325e-19)
(0.191592 0.105472 3.29394e-19)
(0.00811065 -0.000231821 -2.5651e-18)
(0.00158964 -0.000272786 4.78331e-20)
(0.00530294 0.0784097 -3.43339e-18)
(0.000858207 -0.00218277 1.01319e-18)
(0.00124759 -0.000944745 5.0682e-19)
(-0.000217974 -0.00215984 -2.45037e-20)
(0.0138062 0.00360633 -7.90587e-21)
(0.00250867 -0.000521909 -3.02063e-19)
(0.219021 0.112249 -2.46394e-18)
(0.00400273 0.00386728 8.07398e-19)
(0.00281132 0.00100597 1.75073e-18)
(0.00664866 -2.62883e-05 5.105e-20)
(0.00162124 -0.00227291 -1.03547e-18)
(-0.0144299 -0.137235 -7.73988e-19)
(0.00472655 0.00193306 -4.90288e-19)
(0.013944 -0.0204817 1.37016e-19)
(-0.000440483 -0.00115464 -3.17734e-21)
(-0.0340438 0.000906082 6.65246e-19)
(-0.370243 0.0297908 9.03228e-19)
(0.0490239 -0.0829478 2.61524e-19)
(-0.0385903 -0.000421182 1.67139e-18)
(0.0114912 0.00306766 7.82158e-19)
(0.00274744 -0.000600496 -5.80976e-19)
(0.234143 -0.0588358 -7.46321e-18)
(0.000428221 4.46093e-05 3.77605e-19)
(-0.0261729 -0.0508039 2.5134e-20)
(0.000799925 -0.00241496 -4.44031e-19)
(0.000467603 -3.88562e-05 -2.18952e-19)
(-0.0274016 0.0596296 1.26314e-18)
(0.00439825 0.000407228 -2.17912e-18)
(0.171892 -0.145771 4.6673e-18)
(0.00365016 0.00102131 -1.16096e-18)
(-0.00501091 -0.0203493 -2.69163e-18)
(0.0491461 -0.240766 -1.12753e-18)
(0.00328897 -0.00173475 -8.50924e-19)
(0.00843127 -0.000158193 2.11349e-18)
(-0.0343597 -0.0233928 -2.48336e-19)
(-0.00657875 0.00280219 -8.59399e-19)
(-0.00499309 -0.0218008 1.03075e-20)
(0.0162104 0.00225978 1.74853e-18)
(0.00871123 0.00166896 5.71344e-19)
(-0.0809214 -0.0357412 -3.03803e-19)
(0.0114197 6.78155e-05 -9.7755e-20)
(0.0115573 0.00470076 5.37443e-19)
(0.000613198 2.9982e-06 -1.54091e-19)
(0.00243547 3.18739e-05 -1.98925e-19)
(0.00103006 -0.00108858 -4.93265e-19)
(0.00559 0.00184573 -7.34834e-19)
(0.016186 0.00255187 -1.59615e-18)
(-0.020574 -0.140138 1.8179e-18)
(0.00935246 0.00235593 1.5817e-19)
(0.120514 -1.03484 8.02329e-18)
(0.0434835 -0.0480441 6.05989e-19)
(0.212749 -0.0804335 4.01583e-18)
(-0.0226123 -0.0225235 1.68581e-18)
(0.00106946 -0.0132643 1.9641e-19)
(-0.0001034 0.000110097 -3.39607e-19)
(-0.00156832 0.000988292 1.87554e-19)
(-0.16673 0.658568 -1.233e-17)
(0.0358747 -0.0634139 8.43955e-21)
(0.00250118 -0.000922305 3.16689e-19)
(0.00257 0.00167811 -1.73375e-19)
(0.10663 -0.120917 2.14714e-18)
(0.000360779 -0.000155341 1.4842e-19)
(-0.0792961 -0.548175 6.46279e-18)
(-0.00337849 -0.000478826 1.93675e-18)
(0.0164476 0.00352757 -5.67656e-19)
(0.000290746 -0.000102244 -3.60321e-20)
(-0.0196569 0.0253352 1.02923e-18)
(0.00905681 -0.000237844 7.04406e-19)
(-0.00429667 0.00277441 2.89312e-19)
(-0.122866 -0.166583 1.32403e-20)
(0.00261714 -0.000383972 -1.47458e-19)
(0.0406932 0.145956 9.32473e-18)
(-0.00035395 0.00235516 -5.68359e-19)
(0.0065584 0.00423702 -3.61495e-19)
(-0.0008803 0.0021285 -1.42424e-19)
(0.000340964 -0.00220659 5.16245e-19)
(0.0031063 -0.0020956 -2.26214e-18)
(0.00220803 -0.00158514 -2.30438e-19)
(0.0860436 -0.0464509 3.16489e-18)
(0.00717252 0.000108937 1.60564e-19)
(0.00687212 0.00133911 3.4987e-18)
(-0.0388769 -0.053511 3.70216e-18)
(0.0103543 0.00142791 8.50957e-19)
(-0.000123421 -0.000516543 -2.98359e-19)
(0.00861479 0.00464132 1.7016e-18)
(0.000729911 -0.000428346 4.59628e-19)
(-0.0119651 0.00716467 -2.51228e-18)
(-0.000765188 -7.04559e-05 5.11277e-19)
(0.00708899 0.00113267 -5.86706e-19)
(0.000770769 -1.82893e-05 3.63657e-19)
(-0.00917781 0.132841 4.5646e-18)
(0.00195898 -0.00143838 3.7914e-19)
(-0.0148383 0.0995917 4.78903e-18)
(0.00296629 -0.00152912 1.03008e-19)
(-0.00573628 -0.0223257 6.63824e-19)
(0.00136072 -1.68495e-05 -1.04615e-18)
(0.00230245 -0.00185992 -9.76265e-19)
(-0.00145176 -3.55178e-05 5.72415e-20)
(0.010261 0.00236774 1.4391e-18)
(-0.0777675 -0.0799958 -7.22008e-20)
(0.00122158 -0.00187739 1.89261e-19)
(-0.392832 0.15943 -2.64906e-19)
(0.00107919 -0.000752575 -2.38342e-19)
(0.0023709 -0.000608626 -2.38078e-19)
(0.0112845 0.00493204 1.15509e-18)
(0.0935423 -0.246756 9.68605e-18)
(-0.00374149 0.0108242 -2.59329e-19)
(-0.258792 -0.223733 3.34374e-18)
(0.00312759 -0.0204618 1.84919e-18)
(0.00301023 -0.0029529 2.11413e-19)
(-0.0031625 0.000329437 7.5029e-19)
(0.0140365 -0.0308442 -4.33256e-19)
(-0.0114684 0.00918717 -1.35881e-18)
(-0.0177017 0.0246179 1.63637e-18)
(0.0254934 -0.0207698 2.66006e-19)
(0.0320884 -0.129975 5.69966e-19)
(0.0073466 6.44876e-05 -1.14293e-18)
(-0.00291541 0.00148869 1.91421e-19)
(-0.00834412 -0.0225859 1.2182e-18)
(-0.000734519 0.000796945 -2.03896e-19)
(0.000551181 -0.00294647 1.02901e-20)
(-0.00170393 0.000648579 -4.07427e-19)
(-0.00180216 0.00102506 5.02813e-19)
(3.8063e-05 3.02451e-05 -5.59479e-19)
(-0.123582 -0.0316717 1.84294e-18)
(-0.00380756 0.00389961 4.25303e-19)
(-0.0836693 -0.0323348 -2.60669e-19)
(-0.00233611 0.00114198 -5.0698e-19)
(0.0187874 0.00757363 -2.9494e-19)
(-0.000451125 -0.000967034 1.11178e-20)
(0.000482061 5.19975e-05 -1.45775e-19)
(0.000543367 -2.98626e-05 -2.13049e-19)
(0.000996554 -0.00271609 -7.8545e-19)
(0.011876 -0.0303867 -3.8862e-19)
(0.00448182 -0.00148356 -1.2223e-21)
(-0.00297693 0.00115633 9.83627e-19)
(0.000265786 -6.63425e-05 1.46781e-19)
(0.000182511 2.12511e-05 2.96137e-19)
(0.00117723 -0.000438934 -4.6146e-19)
(-0.0114116 -0.0257719 -3.10394e-19)
(-0.00150585 -0.000103541 -8.62344e-19)
(-0.00628401 0.00032313 1.38091e-18)
(-0.0317856 0.0170255 1.21868e-19)
(0.000707134 -0.000196297 6.33535e-19)
(0.00362996 0.00377842 -1.14938e-19)
(-0.00764337 -0.0816781 -9.20293e-19)
(-0.00202681 -0.0242946 -9.32415e-19)
(0.000930783 1.19396e-06 5.1443e-19)
(0.000923474 6.73703e-06 -5.65262e-20)
(0.0136742 0.00505348 -5.90113e-19)
(0.000817428 -0.000340587 9.22045e-19)
(0.0055658 0.0011716 -8.84323e-19)
(-0.00345293 8.26201e-06 -9.78785e-19)
(0.00825527 1.762e-05 3.08788e-18)
(0.00116304 -0.00195636 -3.53803e-19)
(-0.0027774 -0.000462504 -4.21712e-19)
(-0.00143083 -0.000476117 -1.56155e-18)
(-0.00723823 -0.0136956 8.10151e-20)
(-0.0766209 -0.0295061 -2.21812e-18)
(0.000569662 -2.88872e-05 -2.71895e-19)
(-0.0990928 -0.0728791 5.59849e-19)
(0.0287955 0.0254214 -8.5889e-19)
(0.000497333 0.00181827 -1.51907e-20)
(-0.00288113 -0.00230322 -5.28344e-19)
(0.00174815 -0.00289713 4.72952e-21)
(-0.143676 0.0244994 1.57193e-18)
(0.00096038 0.000318056 -3.97937e-19)
(-0.125393 0.415803 2.98876e-17)
(0.000957244 -0.000381938 1.45846e-19)
(-0.00165387 -0.000518651 -5.57274e-19)
(-0.0341095 -0.0273611 -1.29301e-18)
(0.000445604 0.000467039 -5.57968e-19)
(-0.0196089 -0.00304583 -2.72637e-18)
(-0.0208374 0.0811774 1.73322e-18)
(0.013644 0.011797 2.41405e-18)
(0.000621021 0.00179575 1.12432e-19)
(0.191833 -0.85549 -1.81499e-17)
(0.000200602 -0.000262247 2.38467e-19)
(-4.33324e-06 -0.000816118 -9.02862e-19)
(0.00269429 -0.00064695 -1.20619e-18)
(0.0106957 -0.0144341 6.32303e-19)
(0.000914675 -0.000314014 9.39464e-19)
(-0.000430293 -0.000715719 5.05536e-19)
(0.00380986 0.000155866 1.00074e-18)
(-0.00108555 -0.000298725 -4.80876e-19)
(-0.0198428 -0.0206053 -1.35269e-19)
(-0.0017896 -0.0154057 -8.88763e-19)
(0.0240707 0.0231619 1.18272e-19)
(-0.00278493 -0.00249137 -1.09475e-18)
(0.0034294 -0.000583075 -1.26648e-18)
(0.00193666 -0.000255494 -1.31674e-18)
(0.00811523 0.0014408 8.97467e-19)
(-9.21096e-05 -9.5312e-05 -3.06858e-20)
(0.00634529 0.000127561 -3.39785e-19)
(-0.0896441 0.0171228 2.41624e-18)
(0.0596195 -0.0964839 3.72395e-18)
(0.000364688 -0.000254771 4.70898e-19)
(0.00314194 0.000854401 -4.60318e-19)
(-0.239286 0.705336 3.20373e-18)
(0.00966408 -0.000456589 8.23147e-19)
(-4.81357e-05 -0.00452985 3.02013e-19)
(0.0147816 -0.0219077 -8.79649e-19)
(-0.000139322 -0.000101303 -3.67651e-20)
(-0.0238155 -0.045896 -1.18539e-19)
(-0.0866823 -0.0242463 -5.92496e-20)
(0.00618827 0.000681889 1.80319e-18)
(0.0954169 0.0196101 -4.71373e-18)
(-2.22512e-05 -0.00155518 -2.86599e-20)
(-0.193073 -0.270451 -1.93362e-17)
(-0.000372962 0.0120101 -1.2202e-18)
(-0.0685884 -0.0387994 -5.2706e-19)
(0.00976478 -0.000200662 -2.47831e-19)
(-0.00269089 -0.000498139 2.50132e-19)
(-0.00127975 -0.00157108 -4.04019e-20)
(0.0209804 -0.0279059 1.59867e-19)
(0.00334858 -0.000300962 -5.3717e-19)
(-0.0179019 -0.0828226 -9.8479e-20)
(0.00114206 -0.0318814 -1.20719e-18)
(0.0156627 -0.074124 -3.65321e-17)
(-0.0214786 -0.00411437 2.18292e-18)
(-0.0771637 0.425751 -3.91996e-18)
(-0.0148154 0.0272402 1.49512e-18)
(-0.0062966 -1.49911e-05 -7.57874e-19)
(-0.0114576 -0.00297085 -8.32349e-19)
(0.00381031 0.000523457 1.36883e-18)
(-0.00147067 0.0146068 -2.92066e-19)
(0.00321793 0.00203724 2.84582e-18)
(-0.0133447 -0.0213212 1.28276e-18)
(0.000905273 -7.73657e-05 -9.86863e-19)
(-0.00358844 0.00482615 -1.75929e-19)
(-0.00184773 -3.72395e-05 2.15759e-19)
(0.00562994 0.00170777 -4.60408e-19)
(-9.47485e-06 -0.000287227 8.43215e-19)
(0.122589 -0.00126543 -5.17329e-18)
(0.000595148 -5.96393e-05 -1.04136e-20)
(0.0010903 7.722e-06 -3.29147e-19)
(0.00364973 0.00270562 -1.99084e-18)
(0.0105358 0.00608395 3.21266e-18)
(-0.00379398 0.00387479 6.91581e-19)
(0.010607 -0.000293266 3.54579e-19)
(0.00659436 0.00023846 -1.10515e-18)
(0.0117097 -0.000379673 8.8469e-19)
(0.0122384 -0.000359802 -3.42925e-19)
(0.0712813 -0.103741 1.14539e-17)
(-0.000999737 2.89433e-06 2.52835e-20)
(0.0399334 -0.114465 -2.73904e-19)
(0.0223345 -0.58641 -3.21347e-18)
(-0.0016823 2.99349e-07 -2.23287e-19)
(-0.000706683 -2.94588e-05 7.18183e-19)
(0.0227527 0.00805369 1.10094e-18)
(0.00229326 0.00174116 4.01927e-19)
(0.000957852 0.000628208 9.97321e-20)
(0.00695425 0.000498845 -7.96851e-19)
(0.0034383 -0.00172336 1.947e-19)
(-0.00245302 0.0115426 -1.85274e-19)
(0.00761964 0.00182731 -1.1172e-18)
(0.00924828 0.00595365 -8.67922e-19)
(-0.00114697 -0.00048514 2.17324e-23)
(0.000156704 -0.0031198 -1.14001e-19)
(0.00905288 0.00291536 -6.36397e-19)
(-0.00135711 0.00922807 1.59175e-18)
(0.00815454 -8.6157e-05 6.56255e-20)
(0.0142191 0.00386577 -6.52953e-19)
(-0.0715408 0.18704 3.53318e-20)
(0.00639072 -9.9277e-05 -8.04709e-19)
(0.0909303 -0.0474733 -2.54353e-18)
(-0.00542543 0.00198982 1.51647e-18)
(-0.00236745 -6.41017e-05 6.19761e-19)
(0.00585644 0.000303096 2.28256e-19)
(0.0029463 -0.000720204 1.52415e-19)
(0.000885237 -0.00189291 3.36965e-19)
(1.64902e-05 -0.00169802 -4.08511e-19)
(0.00125886 -0.000475314 -6.39716e-19)
(-0.00180548 0.00457615 -3.26113e-19)
(-0.000615212 -0.00085688 -3.71391e-21)
(0.0020276 -0.000306223 8.9941e-19)
(-0.00182893 0.00491116 4.42754e-19)
(-0.000535553 1.53524e-05 1.72802e-19)
(0.0145887 -0.000512778 1.46035e-18)
(0.000886662 -7.27165e-05 -4.05681e-19)
(0.00581784 0.00177692 1.87069e-19)
(-0.00147928 3.58895e-05 -3.10727e-19)
(0.00782426 0.00156283 1.356e-19)
(0.0124486 -0.000860178 -1.39639e-18)
(0.0086202 0.00183763 -9.70167e-19)
(-0.0148713 -0.00401578 -1.70731e-18)
(-0.00194309 -3.12009e-05 2.93499e-19)
(0.0040049 -0.000393391 9.16684e-19)
(0.00583346 0.000394345 -6.54746e-19)
(-0.00110036 -0.000682537 2.82257e-19)
(0.000767107 0.000200882 3.20302e-19)
(0.000806085 -2.02454e-05 1.19911e-19)
(0.000615783 0.000250694 -2.37231e-19)
(0.00390907 -0.00024303 -2.99304e-19)
(0.00681309 -7.03063e-05 1.22291e-18)
(0.000567974 -6.58193e-05 -2.3915e-20)
(-0.0265848 0.0173355 -5.48699e-18)
(-0.000153696 0.000104814 5.74991e-20)
(-0.00281657 -3.91023e-05 5.83306e-19)
(0.000878806 0.000800059 8.60502e-19)
(-0.0129256 -0.0173397 -6.74018e-19)
(0.00463046 -2.42751e-05 9.30483e-19)
(0.000297551 -7.33004e-05 -1.92138e-19)
(-0.0133484 -0.0341181 -1.38469e-18)
(-2.24106e-05 -0.00146085 6.37693e-20)
(0.000624199 -0.000607767 -3.46534e-19)
(0.142394 -0.00248174 -6.11736e-19)
(0.000248849 -0.000400042 -5.9452e-19)
(-0.00235182 -1.83196e-05 -1.27064e-18)
(0.000506548 -3.58522e-05 1.53627e-19)
(0.0480445 -0.0442903 2.81898e-18)
(0.00297306 -0.00067922 -1.38852e-19)
(-0.00879115 -0.0269053 -2.99606e-18)
(0.0280863 -0.0140979 -9.92673e-18)
(-0.0146912 0.110509 -8.50307e-19)
(-0.00701169 -0.0110668 -1.96673e-18)
(0.00168756 -0.000595374 1.61165e-18)
(0.00255911 0.000873886 5.0864e-19)
(0.0206349 -0.0798158 9.0954e-19)
(-0.00588422 -0.000181456 -4.52181e-19)
(0.000310718 -2.98412e-05 -3.75516e-19)
(-0.00247482 -0.0163348 -2.26869e-19)
(-0.0105002 -0.0245216 7.89513e-19)
(-0.340705 0.638973 2.59255e-17)
(0.0042879 0.000471004 -1.26328e-20)
(0.0131678 -0.0167294 -1.39038e-18)
(0.00331255 0.000860422 -1.93578e-18)
(-0.00142028 0.000770515 -1.01166e-18)
(-0.112462 -0.275993 -2.64521e-18)
(-0.000458211 1.40399e-05 -1.3991e-18)
(0.0213263 0.0116231 3.47975e-19)
(0.00595515 0.00595936 8.42977e-20)
(-0.0863857 -0.017167 -8.67331e-19)
(0.00309859 -0.000389426 8.75606e-20)
(0.00805286 0.00897322 -1.45903e-18)
(0.00708551 0.00246503 4.14981e-19)
(0.113318 0.0208322 1.69522e-18)
(0.037553 0.00242043 -3.71867e-18)
(-0.00505097 -0.000545004 1.71063e-19)
(0.00519581 0.00591293 -1.08967e-19)
(-0.00657109 -0.00111802 3.51073e-19)
(0.00345769 -0.000262255 3.17439e-19)
(-0.00284177 -0.000595073 8.42092e-20)
(-0.0142748 -0.0287699 2.4718e-18)
(0.302312 -0.0717547 -5.52961e-19)
(0.00852337 -0.000135574 -2.18016e-20)
(6.8053e-05 -0.00339624 -2.8343e-19)
(-0.00569355 -0.000562086 -2.22965e-19)
(0.00875672 0.0833395 -4.51716e-19)
(0.000908878 -0.00310537 1.60975e-19)
(-0.0383718 0.00298028 4.61648e-19)
(0.0112266 -0.0151421 -1.03273e-18)
(2.36696e-05 -0.00233305 3.84609e-19)
(-0.00473149 -0.0037715 -8.57869e-19)
(0.0869572 0.0993738 -5.86718e-19)
(-0.00220457 -9.18504e-06 3.50867e-19)
(0.00303023 1.33102e-05 8.50712e-19)
(0.00115249 6.73633e-06 4.48235e-19)
(0.000925355 -0.00295875 3.03978e-20)
(0.000709038 -5.28372e-05 3.61189e-19)
(-0.165905 0.0912338 -2.31251e-18)
(0.000762287 -2.75569e-05 -1.53187e-19)
(0.0437365 -0.14304 -2.60755e-20)
(0.00531875 0.00155441 -2.66228e-19)
(0.0260335 -0.0380458 -2.31723e-19)
(-0.0329018 -0.0348712 6.61657e-19)
(0.00802408 0.00148595 -2.7628e-20)
(-0.229992 -0.194772 -1.21111e-18)
(0.0723113 -3.92979e-05 -1.28968e-18)
(0.00479298 0.00318313 8.76491e-19)
(-0.0783036 -0.0453799 -2.03061e-19)
(-0.00428956 -0.00452677 2.08087e-19)
(0.0228263 -0.0275989 2.55914e-18)
(0.000726948 -4.01704e-05 1.96066e-19)
(-6.70581e-05 -0.00138634 8.18009e-20)
(0.020432 0.0534978 -1.43735e-18)
(0.00402057 -0.000745367 1.41055e-18)
(0.0548602 0.0977331 -6.45526e-18)
(0.001776 -7.81394e-05 -2.04597e-20)
(0.00216281 -0.0396434 3.97929e-19)
(-0.000810976 -0.000113102 -2.06223e-19)
(-0.00231746 -0.0258483 -7.17147e-19)
(0.0295656 0.0670076 4.19751e-19)
(-1.15692e-05 -0.00228691 -1.8101e-19)
(0.372807 -0.182522 3.04614e-17)
(0.00413526 8.89586e-05 -4.06446e-19)
(0.00534999 0.00266906 -5.25487e-20)
(-0.0286024 -0.00131835 -8.13773e-18)
(0.0138021 -0.64646 2.70338e-18)
(0.00870128 -0.68262 -1.94989e-18)
(0.000937985 0.000267341 5.13363e-20)
(-0.001009 -0.000112555 -4.20283e-19)
(0.000287291 -8.83814e-05 9.49126e-20)
(-0.0215877 0.0972453 1.23748e-18)
(0.0406104 0.00704557 4.9468e-18)
(0.00405859 2.5205e-05 -3.24675e-18)
(0.00590974 -0.00385857 1.49635e-18)
(-0.00102504 -0.00575467 -2.33541e-19)
(0.000294751 -4.22122e-05 -3.59644e-19)
(0.00243316 -8.05404e-05 1.11435e-18)
(0.00394685 -0.000603373 3.3127e-19)
(0.0195592 0.0141387 -1.99214e-19)
(0.00231441 -0.00257584 4.82841e-19)
(0.0020196 -0.000905055 6.63065e-19)
(0.000528455 5.73558e-05 3.04609e-19)
(0.00320579 -0.000572697 9.3454e-19)
(-0.00477947 -0.0133456 2.00789e-18)
(-0.307238 0.662325 -1.39815e-18)
(0.00282441 -0.00570872 -1.04823e-18)
(-0.000476699 -0.000728152 -5.28621e-19)
(0.003277 -9.24488e-05 -6.4326e-20)
(-0.0152394 -0.0145525 -6.51699e-20)
(0.00450124 3.84508e-06 -1.13162e-18)
(-0.074781 -0.0381965 5.01639e-20)
(-0.046977 0.0143529 4.07444e-19)
(0.0477044 -0.145303 1.64759e-19)
(-0.0119082 -0.00403782 -1.16352e-20)
(0.0101624 -0.0248484 9.53178e-19)
(0.00236003 -0.000356849 4.4609e-19)
(0.00787702 0.00139993 -8.75729e-19)
(0.00132792 0.00443281 3.30901e-18)
(0.00271188 0.00252404 -5.51971e-20)
(-0.00284812 0.00986322 -3.09044e-19)
(0.00774843 6.5094e-05 3.06021e-20)
(0.0117451 -0.0211691 5.27755e-18)
(0.0308896 -0.0625961 -7.22696e-19)
(-0.00131708 0.000325904 8.76369e-20)
(0.0583841 -0.00126577 1.61918e-18)
(0.00348361 -0.000575673 -4.40626e-19)
(0.0455178 0.00778868 3.5687e-19)
(0.00712829 0.00146627 -1.32675e-18)
(9.06332e-05 0.0195285 4.8367e-20)
(0.013503 -0.00329601 6.58208e-19)
(-0.00223754 -0.00333003 -2.85257e-19)
(0.00592516 -0.000163551 3.11364e-19)
(0.00192747 0.000866411 2.0948e-19)
(0.00217803 -0.00310498 4.31644e-19)
(0.0283726 0.0353657 -6.94615e-20)
(0.0693888 0.0922662 9.03036e-20)
(0.00975655 -0.000431462 -4.99317e-19)
(-0.0135082 0.0321501 -1.89199e-19)
(-0.00373509 0.00042365 1.4596e-19)
(0.0152946 0.00373493 8.02895e-19)
(0.00636131 0.00951548 -1.16497e-18)
(0.308316 -0.0534331 -3.01931e-19)
(-0.000685513 -1.38992e-06 2.83816e-19)