/*--------------------------------*- C++ -*----------------------------------*\
| =========                 |                                                 |
| \\      /  F ield         | OpenFOAM: The Open Source CFD Toolbox           |
|  \\    /   O peration     | Version:  v2012                                 |
|   \\  /    A nd           | Website:  www.openfoam.com                      |
|    \\/     M anipulation  |                                                 |
\*---------------------------------------------------------------------------*/
FoamFile
{
    version     2.0;
    format      ascii;
    class       surfaceScalarField;
    location    "750";
    object      meshPhi;
}
// * * * * * * * * * * * * * * * * * * * * * * * * * * * * * * * * * * * * * //

dimensions      [0 3 -1 0 0 0 0];
oriented        oriented;


internalField   nonuniform List<scalar> 
14516
(
0.00360708
0.0107814
-0.0143934
4.30962e-06
0.000167109
-0.000165681
-0.012167
0.0157685
-0.00598335
0.00815178
-0.00137681
-0.0204963
0.0142945
0.00615992
0.0206483
-0.00257208
-0.0179139
-0.00178468
0.000152896
0.00232886
0.013089
-0.0115286
-0.00115666
-0.016717
-0.00165359
0.0184961
-0.00854061
-0.0119968
-0.0117049
0.0145758
-0.00289476
-0.0174552
0.00129444
0.0161811
-0.00603566
0.000993638
0.000172712
0.00266642
-0.00278272
0.00048775
0.000340254
0.0025798
5.53869e-05
-0.00257004
0.0118599
-0.00402629
-0.00769988
0.00410787
0.00790348
-0.0189216
0.00188973
0.017028
0.00281065
0.00155169
0.0176193
-0.0191502
-0.00192565
0.0160469
-0.0140803
-0.0073043
0.00248639
0.00485262
5.49767e-05
-5.49767e-05
-0.0184991
0.00250394
0.0161939
-0.00386593
-0.00117434
-0.00238027
-2.05248e-05
0.002461
0.000267805
0.00853117
-0.00865083
0.0176572
-0.00590121
-0.0117654
-0.0179173
0.00133638
-0.0177031
0.0211259
-0.00334829
-0.00141602
-0.00581841
-0.0128999
0.00271757
0.0102134
0.000290435
0.000279021
-0.000376573
-0.00652108
0.020075
-0.0135615
-0.0201796
0.00223885
0.0179418
-2.53202e-05
-0.00117636
0.0145048
-0.0163873
-0.0152255
0.011675
0.00391269
0.000300327
-0.00150684
0.0015149
-0.0226906
0.00507794
0.00165249
-0.00034463
-0.00240178
0.00412018
-0.000765031
0.000210003
-0.00180288
0.00227087
-0.00243255
0.00121582
0.00103259
0.0111286
-0.000418881
0.0044742
-0.00401742
0.00267603
0.0176302
-0.0202846
0.00220971
0.00665562
0.00923454
0.0108368
-0.000226511
0.0118774
-0.0116722
-0.0206478
0.00496086
0.0158044
0.0203448
-0.0209936
0.000813528
-0.00174299
0.0108925
-0.00915158
-0.0193619
0.0199554
-0.000592999
0.0138765
-0.0146442
0.0129141
-0.00329767
-0.00963325
-0.0177667
-0.000627533
0.0184125
-0.010056
-0.0048845
-2.69855e-05
-0.000771553
0.0010908
-0.0194882
0.00311225
0.0164835
-0.0167421
0.0191042
-0.00234142
-0.00235242
0.00582027
-0.00209165
-0.0111557
-0.00595789
0.0015871
0.0117119
-0.0132602
-0.0209348
0.00422443
0.0181892
-0.0202552
0.00209321
-0.00235467
-0.0150735
0.000939521
-0.0126691
0.0109669
-0.0127118
-1.69029e-05
-9.30774e-14
1.88416e-05
-0.0189276
0.00346128
0.0157889
0.000302859
-0.000258733
-4.12396e-05
-0.00423526
0.01347
0.000385792
-0.0181314
0.00195987
0.0147256
-0.0163668
-0.000139585
8.25875e-09
0.000141292
0.0111385
-0.00271533
-0.00830209
0.0131874
-0.00410074
-0.00890981
0.0109448
-0.00932082
0.0127014
-0.00293573
-0.00960372
-0.000188452
-1.65225e-06
0.000191507
5.62738e-05
0.00459003
-0.00458438
-0.0208838
-0.00170932
-0.000330384
0.00440459
-0.0040298
0.0092944
0.00405503
-3.60474e-05
0.0158048
-0.015482
0.0176211
-0.0182768
0.00080542
-0.0139284
0.00317671
0.0109307
0.000243911
-0.000234471
0.00148824
0.0127605
-0.0142638
-0.00474023
0.00386352
0.000976409
-0.00724645
0.00589402
-0.00175906
0.00479126
-0.00467326
-0.0197896
0.000423177
-0.000171889
-1.13234e-05
-0.00135645
-0.0032804
-0.000677576
0.00302066
-0.00224374
0.00253862
-0.0031062
-0.0139508
0.0025397
0.0116153
-0.00591512
0.00125166
0.00481703
-0.00449702
-0.00126121
-0.000125262
-7.04959e-06
-0.0223178
0.00152842
-0.021071
0.00291412
-0.00119043
2.08003e-05
0.00161654
-0.0171343
-0.00336574
0.000745989
0.00340332
-0.00412804
-7.09848e-08
-1.18102e-05
-0.000717278
-0.0182414
0.018972
-0.0186994
0.0155399
0.00456587
-0.0227295
0.0181501
-0.0115575
0.0113104
0.0161463
-0.00181874
0.0112829
-0.00942081
0.00911232
-0.013348
0.0022337
0.0106332
-0.0060021
-0.00116143
-0.00296472
0.00372948
9.20291e-06
-1.95583e-06
-2.35786e-06
-0.0159303
0.0168863
-0.000529867
0.00071667
0.0200644
0.000816676
0.0151781
-0.0159154
0.0191007
-0.0175287
0.0121394
-0.00287932
-0.00927559
-0.00446433
0.0041779
0.0017918
0.00947567
0.0196826
-0.00484735
-0.0144214
-4.4016e-06
-2.06742e-05
3.79335e-05
0.0149607
0.00978246
0.0102009
0.00141602
0.0124832
-0.0137271
-0.0140375
-0.00373088
-0.000667102
0.0163622
-0.0154204
-0.00274355
0.0017166
-0.0016068
0.0024778
-0.00190914
-0.0161552
-0.000540456
0.000593972
8.58284e-06
-9.48063e-05
-0.01544
-0.0189169
0.00185542
0.0172593
-0.000194525
0.00424763
-0.00328682
0.000629308
-0.00278062
0.00222854
0.0028313
-0.000110841
-0.00021233
-0.00275901
0.00302648
-2.83519e-06
-4.60676e-05
5.40167e-05
-0.00270053
0.00342069
-0.00584324
0.001668
0.00430098
-0.0112221
0.0126961
-0.0128212
-0.00295442
0.0157524
4.54141e-05
-3.60952e-05
-0.0166214
0.00377315
0.00632063
-0.0148977
-0.0015662
-0.00414239
7.45569e-06
5.18574e-06
2.37049e-05
-0.000218732
0.000256364
-0.0025649
-0.0161585
0.000723972
-0.00330792
0.00343086
-0.00297485
0.00969433
0.00373961
-0.00728531
0.00768613
-0.000164522
-0.0021538
0.0023757
0.00362473
-0.0222067
0.0185758
0.000227567
-7.2157e-05
-0.00015349
0.0209871
-0.00334228
0.00402165
0.0176981
-0.0162449
-0.00142766
-0.00249233
0.000166151
-0.00217939
0.0136756
-0.0113027
0.0243968
-0.00699993
-0.0171208
-0.00815773
0.0161409
-0.0079895
0.00016468
7.10523e-05
0.00636891
-0.0145074
0.00168752
0.0135252
-0.0151333
-0.0153024
0.0154066
0.000116366
-9.19668e-05
-1.71149e-05
-0.00320657
0.0153747
-0.0118485
-0.0187722
0.00861411
0.0101699
-0.0114243
0.00860546
0.00281651
0.0163499
-0.0151912
-0.00113153
0.00337323
-0.0164569
-0.0176899
-0.000374534
0.0180784
-0.0185348
-1.1688e-05
0.00284416
0.0100508
0.0113409
-0.0142404
0.000387543
-0.0163993
0.0164225
0.00222905
-0.00233792
0.0157369
-0.0139655
-0.0108288
0.000163867
0.0112777
-0.0178733
0.0205709
0.0179201
-0.0186239
-0.00273191
-0.00456548
-0.0141949
0.0219167
-0.00548993
-0.0164271
0.00121586
0.0109332
-0.0119699
0.0163436
-0.0100601
-3.82799e-05
-0.000450017
-0.0165795
0.00266655
0.00688901
0.0127999
-0.0196912
3.36461e-05
0.0199191
0.0167633
-0.0127191
-0.00367321
0.00114165
0.0154715
-0.000120173
-2.23225e-06
0.00081603
-9.32475e-05
-0.00244062
0.00259606
-0.0200963
-0.0021342
0.0157902
0.00037746
-0.0161232
-0.000807921
-0.0125194
0.013334
0.001292
-0.0191397
-0.00199931
0.0196576
0.0151387
0.00530561
0.00981937
0.0120997
-0.000186039
0.00027267
0.0017177
0.0115982
-0.0131411
0.00103828
-0.0187156
-0.000124435
7.85459e-06
-0.0191017
0.018086
0.0010289
0.000906804
-0.0142874
0.0133848
0.00656718
0.012834
-0.0190382
0.0144135
-3.8228e-05
-0.00997103
0.000180938
0.00445691
-0.0153244
0.0185816
-0.0209859
0.00547127
-0.00396438
-0.00137597
-0.0117209
0.012631
-0.0012515
0.012038
-0.0108051
2.76223e-05
3.20313e-05
-1.96344e-05
-3.29294e-05
0.00422721
0.0121466
-0.000220099
0.000467306
-0.000189491
0.0129144
-0.00248751
-0.0104414
-0.017461
-0.0016294
0.0153521
-0.0146549
-0.00015561
-0.0177566
0.017621
0.000425066
-0.00061522
-0.0191708
-0.0030821
-0.0104189
0.0137128
-0.0216205
0.0016084
-0.000165142
0.00279375
-0.00256997
-0.000106665
-0.0160707
0.0164621
-0.0118604
-0.00101135
0.0167535
3.43752e-05
-0.0164947
0.00524183
-0.00346084
-2.63401e-05
-0.0110887
-0.0191462
0.0167897
0.00400012
0.000694416
-0.000242703
-0.00214424
-0.0132751
0.0155297
0.0172728
-0.00200532
-0.015245
0.0010159
-0.0125894
-0.00190379
0.0119256
-0.0100371
0.015021
-0.0162166
0.00153175
0.000760796
-0.0169941
0.0162863
0.0223671
-0.0185291
-0.00355651
0.00477925
0.0125183
0.00135045
0.0180328
-0.0192138
0.000452956
0.00246768
-0.0028543
-0.00307287
-0.00099389
0.00407523
-0.00072043
0.012119
-0.0111188
-0.000283775
0.000367393
1.90548e-05
0.00396817
0.0137544
-7.71995e-05
8.80642e-05
-9.37378e-06
1.11597e-05
-8.74475e-05
0.0117662
-0.0125677
-0.00653822
0.0193324
0.0175021
0.00376661
-0.021067
0.00240998
-0.00190358
0.000235973
0.00181397
-0.00198218
0.0208963
-0.00571387
-0.0151513
0.00227073
0.0146681
-0.0166234
-0.000156825
-0.000105521
0.000264171
6.55565e-05
-0.000220759
0.0122316
-0.000820889
0.0187495
0.000324816
-0.00487059
0.00552664
0.0102187
-0.00146468
-0.017471
3.69633e-05
-0.000115057
8.12237e-05
0.000955798
-0.00110494
0.000668972
0.0017038
-0.00111086
-0.00806255
0.0149151
0.0143069
-0.0163317
0.0209829
-0.00885376
-0.012104
-0.000138078
-0.00280485
0.00362675
-0.0151455
0.0165372
0.0139704
0.00810232
-0.0098882
-0.00267839
0.0204144
-0.0175466
-0.00123247
5.86183e-05
-4.21945e-05
3.77858e-06
-0.0119198
0.0135062
-0.00111617
0.0169773
-0.0157878
0.00984642
0.0111584
-0.00642278
0.00753265
-0.000256452
0.01261
0.00631304
-0.0189351
0.00402215
0.0063056
0.00777248
-0.01411
-0.00999431
-0.000730069
0.0107014
-0.000955285
0.000172389
-0.00160727
7.21148e-05
0.00212138
-0.000866209
-0.00175415
0.00267535
0.00678606
0.014138
0.00942785
0.00527878
-0.0146865
0.0155859
-0.0151829
-0.000226281
-0.00509535
0.0113811
7.82321e-05
-0.00310156
0.00421779
0.00175833
-0.00256998
-0.00473243
0.0141806
-0.0178803
0.000860664
0.0171385
0.0198878
-0.0159202
-0.00383436
-0.0116503
-0.00206334
-0.00423556
-0.0171672
0.0159163
0.00151527
0.0189097
-0.016139
-0.00274288
0.0175108
-0.00168148
-0.0151696
0.014316
0.00112965
0.00023145
0.0229355
-0.0103062
-0.0126343
6.99014e-06
-0.000262074
-7.07412e-05
-4.99697e-05
-0.00446551
-0.00696008
-0.00170546
0.0175294
-0.0157594
0.0175478
-0.0181576
-0.00302611
0.0121415
0.00192174
-0.00213831
0.00027654
-0.0133432
0.0116102
-0.0147419
-0.0123633
-0.00138415
-0.0198128
-0.00171396
-0.00196187
-0.00705773
0.00900401
0.0116723
-0.00963537
-0.00166668
-0.00262839
0.00265409
-0.0114515
-0.00496582
0.000284975
0.000368325
-0.000510602
0.00970685
-0.00100731
0.0195326
-0.0120053
-0.00753068
-0.0047954
0.0164327
-0.0139658
-0.000908193
-0.00742665
0.0104838
-0.013361
0.00239819
-0.00228131
2.00103e-05
-0.0157804
0.0182235
-0.0023875
0.0120863
0.0140441
0.0162743
-0.000535807
-0.0156551
-0.0133832
0.0171586
-0.00354686
-0.0182673
0.0182422
0.000173798
0.0132187
0.0176631
-0.0036574
-0.0139967
-0.00464879
-0.0161792
0.0182322
-0.0192051
0.00101594
9.93846e-05
0.0163503
-0.00706656
-0.00928832
-0.00133712
0.0122969
0.0120103
-0.00918292
0.00764208
0.00870153
-0.018685
0.00298328
0.0105317
-0.0141094
0.00376232
-0.00677282
0.016591
-0.000654874
0.000866521
0.0012686
-0.00433025
-0.0133731
0.00192019
-0.000308431
0.000142472
0.000768709
-0.0107917
-0.0211085
0.00139842
0.0107311
0.012199
-0.0160267
0.0028677
0.0032618
0.00964033
-0.0128653
0.0151055
-0.000829096
0.0175471
-0.0165722
0.0155188
0.00100708
-0.0161689
0.0108469
0.0146734
-0.00193823
-0.012723
-0.000151036
-0.0145731
0.0153813
0.0203373
-0.00374398
-0.0164539
-0.000958288
-0.0174529
0.00088549
-0.00644191
-0.00197263
0.0179813
-0.015955
0.000145719
0.000118801
-0.000168944
-0.00115984
-8.62618e-05
0.00243539
0.0158525
0.00200489
-0.0165305
0.00742752
0.0102547
-0.0096893
0.0156089
-0.00585441
-0.0007735
-0.0108915
-0.000166287
-0.00478173
0.0049818
-0.0170798
-0.0116342
0.0103649
0.000140659
-0.000129717
-1.19159e-05
-5.92333e-05
-0.00112528
0.00143318
-0.014622
0.00330199
0.0136445
-0.0143083
0.000665042
0.00455753
-0.00469066
-0.00275585
0.00264753
0.00200481
-0.0145929
0.0126274
0.00955199
0.00771517
-0.0172919
-0.00168701
0.00199094
0.0200359
-0.015485
0.0178082
0.000103897
0.0165553
0.000178466
-0.0017974
-0.0130151
-0.000672426
0.0136917
0.00888353
-0.0134305
0.00392133
0.0107657
0.0182891
0.00243245
0.00533422
-0.0028109
-0.00127382
-0.0148681
0.0162903
0.0152288
0.0158117
-0.0169328
-0.00231743
-0.010846
-0.00343215
0.00280221
-0.00296202
0.0158397
-0.0184094
0.00257394
-0.00393002
0.00512094
0.00653568
0.0134758
0.00989515
0.0193688
-0.0176088
-0.0016218
0.019143
-0.0176255
0.0153338
-0.0022845
0.000189293
-0.00371902
0.0123444
-0.00227605
0.00496213
-0.00193056
0.0220048
-0.0153241
0.00140123
0.000122813
-0.00146944
0.00333077
-0.00681397
0.00352705
0.000124345
-0.0031764
0.00654397
0.0109035
-0.0129025
-0.00106496
0.018568
-0.0174695
-0.000164995
-0.00167251
0.0015263
0.00106657
-0.00124464
0.000819048
0.00502717
-0.0146493
0.0178212
-0.0174144
-0.0106575
0.0120549
-0.0132271
0.0118828
-0.000202065
0.0142756
0.0103211
0.0156087
0.0219218
-0.0124042
0.0148727
0.0063041
-0.0133969
0.00140096
0.0119947
0.0188045
-0.0174869
0.0236814
-0.0163662
0.00881473
0.00814029
-0.0110758
0.0192678
-0.00815658
0.0110367
-0.014743
0.000526576
-0.0135299
-4.55253e-07
0.00807338
-0.00937739
0.00133983
-0.00272171
0.00388406
-0.0162234
0.0147674
0.00161745
0.0129767
-0.00972801
0.0182399
-0.000939504
-0.00921272
0.0125455
-0.0159903
0.0167894
0.00644382
-0.00501938
-0.000678532
0.000187444
-4.32344e-05
-0.0187038
0.0187403
0.0158895
-0.0119555
0.0185006
-0.0174502
0.00489728
0.00170082
0.0208561
-0.0140412
1.65024e-06
-8.91937e-05
0.000773972
-0.000303455
1.5969e-05
-9.60355e-05
0.000117299
-0.0120017
-0.0195392
0.00849573
0.0127893
-0.00149357
-0.0145608
-0.000162025
-0.00151631
0.00174251
0.00475166
0.0021782
-0.00197385
0.0187087
-0.0165911
-0.00451547
0.00156689
0.00324481
-0.00274926
-0.00699417
-0.00870233
0.0101582
-0.0109109
-0.019053
-0.0019228
0.0147207
0.0157145
0.00340925
0.0177726
-0.000116509
0.000351012
4.55274e-05
-0.000230696
0.0156086
0.00241593
0.017318
0.0109648
0.0111669
-0.00223429
0.00172185
0.00164493
-0.0032242
0.00360306
0.000667799
0.0125387
-0.00140621
0.0155938
0.0164508
-0.00111307
-4.60676e-05
0.00101307
0.0110902
-0.00023824
5.76656e-05
0.000234437
0.0174603
-0.0208508
0.0109614
0.00990859
0.0010199
-0.00380203
0.00287699
0.0190062
-0.0214853
0.00975678
-0.0123361
-0.0191212
0.000896267
0.0142988
-3.17256e-05
-0.0167314
0.0167561
-0.00030336
-0.0158755
0.016045
0.0107551
0.00126587
-0.0156833
-0.000309079
0.014721
-0.0122723
-0.00244814
0.0103972
-0.00965646
0.0132244
-0.00271096
0.00382959
-0.0110877
-0.0204569
0.00155049
-0.00672088
-0.00142417
0.00833519
-0.0164106
-0.000480649
0.017081
0.00983741
-0.00912152
-0.0160949
0.00665694
0.00969806
-0.00786677
0.00133035
-0.00839971
0.00265223
0.00647251
-0.00340457
-0.0123488
-0.000103439
0.00942441
-0.00864398
-0.0121859
0.00345194
-0.0162249
2.05373e-06
-0.0163262
0.0155193
0.00109286
0.0171645
-0.0177648
0.000758083
3.99473e-06
6.95423e-05
-0.00459728
-0.00300258
0.0182938
0.00158349
-0.0198456
0.0100925
0.00189684
-0.000174169
0.00205725
-0.0136682
0.0141689
-0.000369777
-0.000676952
0.0143207
-0.0186038
0.0182548
0.000550366
0.000549743
0.00354116
-0.00404632
-0.00304226
0.0213189
6.58414e-05
0.00750238
0.0175394
0.0153896
0.0107988
-0.00985729
-9.65601e-05
0.000135955
-0.0226989
0.00733657
-0.0161642
0.0172687
0.00133586
-0.0186075
-0.0026336
0.000690215
0.00481671
-0.00873686
-0.000367527
3.42442e-05
0.000338383
0.014838
-0.00416826
-0.00213147
0.0178758
-0.000968204
0.0119179
-0.00212418
-0.0123144
0.0144105
0.00625296
0.00846697
-0.0165097
0.016471
0.0142524
-0.0137133
0.00126988
-0.000283021
0.0123736
-0.0111209
-0.00125067
-0.0146863
0.00114512
0.00417821
-0.000206907
-0.00396481
0.0176727
-0.0158168
-0.00171573
-0.0171165
-0.00138741
0.0185372
-0.000162426
0.00130303
-0.00110154
0.00347614
-0.00409074
0.000642668
-0.000523573
0.0019079
0.00124634
-0.00171939
0.0108541
-0.00194805
-0.00890904
0.000136288
-0.00136099
0.00126977
-0.000388498
0.000466106
1.22752e-05
0.0138691
-0.0135561
-0.000273773
0.010061
0.00734607
-0.017369
0.0113352
0.0144745
-0.0107677
0.0156649
-0.000229115
-0.0150334
-0.0172617
-0.00114874
-0.0179887
0.000929997
-0.0143196
0.0162065
-0.00914228
0.0053544
0.00434327
0.00946572
-0.00136718
-0.0210487
0.0129055
0.00811876
-0.00629783
-0.00104973
0.0014484
0.0118716
0.00900761
-0.012679
0.0147244
-0.0156854
0.0166924
0.00242166
-0.0189738
0.0165716
-0.0172578
-0.00782937
0.015189
0.0176268
-0.013038
0.0162318
-0.00613868
0.00650011
-0.0068984
0.000626851
0.0121503
-0.0169493
-0.00164654
0.0184732
-0.0136696
-0.0173312
-0.000422232
0.0109257
0.0073222
-0.0181701
0.00250518
0.0156807
0.00159575
-0.0154883
0.0140873
0.0181879
-0.0023481
-0.0123078
0.0145945
-0.0022738
-0.00129261
0.0019846
-0.000123263
0.0161927
5.11466e-05
0.00937825
-0.00915176
0.0123185
0.00114386
-0.0132696
-0.00158598
0.0141085
-0.0155601
0.00313858
0.00225257
-0.00531486
2.70052e-05
-2.70052e-05
-0.00138621
0.00595493
-0.00273502
0.00173465
0.00778706
-0.00879016
-0.0178433
-0.000197794
0.0181039
-0.000638366
9.81512e-05
0.000587915
0.0136898
-0.0124315
0.000451871
-0.000459978
0.000226621
0.0157626
0.00071487
-0.0184854
0.00829666
0.00934484
0.00207447
0.0103048
-0.00116592
9.53752e-05
-0.0139986
-0.00184193
0.01614
0.0155175
-0.0152487
0.00795696
-0.00684307
-0.000877327
0.00108567
0.0001281
-0.00118505
-9.10948e-07
-0.000190186
-0.000130264
0.00124662
-0.0146791
0.000999789
-0.0107086
0.0124561
-0.00116954
0.00135169
0.0119886
-0.0128658
0.000876241
0.00122998
-0.00106611
0.00159517
0.000652151
0.0154064
-0.0145357
-0.000599961
0.00152422
-0.0185972
0.0119331
-0.0028651
-0.0085344
0.00175191
-0.00150763
-0.0130341
0.010122
-0.000212284
0.000120668
-0.0199891
0.0164169
0.00372482
0.00294184
0.00790644
-0.0117524
0.0144103
-0.00210875
0.00161809
0.00147715
0.000135679
-8.28932e-05
0.00525319
-0.00856206
-0.00889708
0.00921478
0.00299107
0.00997049
-0.0133053
-0.000864595
-0.00921695
0.00980003
0.00265142
-0.0123995
-0.0166999
-0.00312708
-0.0108997
-0.00373453
0.0149103
0.00839986
-0.00942511
0.00106711
-0.00166114
0.00675551
-0.00501409
0.0016286
-0.000163608
0.00014057
1.26695e-06
0.0172136
-0.0137984
0.0131025
0.0006905
0.000224114
0.000635594
0.0091855
0.00479033
-0.014686
0.0181004
-0.00762629
0.0101541
0.000829866
-0.0134872
0.0127167
-0.00431712
0.0003467
0.00402131
0.0125435
-0.0115467
-0.0153584
0.00168706
0.0204076
-0.00888282
-0.0114886
-0.0182404
0.00139139
-0.0124925
-0.00412987
0.000996666
-0.00449457
0.000229817
0.010719
-0.0111049
0.000390658
-0.00115301
-0.0132353
-0.00226098
-0.010061
-0.0084844
0.0092362
-0.000752443
0.0163593
-0.0149979
-0.00342121
0.00401598
0.00385458
-0.00545116
0.00943234
0.000701119
-0.0101376
0.000416807
-0.00379293
-0.00984481
0.0107328
-0.000861276
-0.000254501
0.00319928
-0.00292617
0.00331034
0.00689052
-0.0100727
-0.0157902
0.016784
-0.000938444
-0.00722491
0.0149738
0.010914
0.00161617
0.00127637
0.00905262
-0.00961087
0.000535479
-0.00067991
0.00048502
-0.0021129
0.00984417
-0.00761808
-0.000113134
-0.00119849
0.00121313
0.00140372
-0.00122845
0.00898408
-0.00100898
-0.0079473
-0.0133679
4.73116e-05
-0.00499236
0.000531732
0.0045024
-0.000154409
0.0174666
8.778e-05
-0.0134895
-0.000529923
0.0134828
-0.0129291
0.000331486
-0.0161584
-0.0187709
0.00131237
0.00125857
-0.0169742
0.000345631
0.0093455
-0.00970324
0.00134075
-6.76781e-05
-0.000137964
0.000492195
-0.00427775
0.00378898
0.017093
0.00123105
-0.0181089
0.00377046
-0.0162745
0.00153117
0.002982
-0.00393291
-0.00329916
0.000419658
0.00288938
0.00706142
-0.00530942
-0.0016124
0.00363505
0.000858752
0.00434519
-0.00384821
-0.00538426
0.00879799
0.000255936
-0.0108299
4.52913e-05
-0.00403302
0.013574
0.000337235
0.00650099
-0.0135701
-0.00143315
0.0185329
-0.0171177
0.0170492
-0.0184999
-0.000143361
0.00112485
-0.000954586
0.00105654
0.00615255
0.00165382
-0.0233528
0.0159074
-4.21227e-05
-0.00219989
0.0224514
-0.0103856
-0.0119878
-0.00052518
0.00411783
0.000172539
0.0128864
0.000456638
-0.012861
-0.00146222
-0.0106678
0.0115478
-0.00126436
-0.016889
0.0182732
-0.0182565
0.0166543
0.00179579
0.000827222
-0.00039489
-0.00689194
-0.0025586
0.00964554
0.0131761
-0.00332475
-0.0144759
-0.000373652
0.00307086
-0.0026626
0.000882401
0.00728401
0.00018054
0.00542039
-0.00496949
0.0187764
-0.0172078
0.00971661
-0.0014976
0.00572763
-0.0116357
0.00777837
0.00123307
0.00469538
-0.00127077
-0.00274253
-0.000542139
-0.0115196
0.0112099
0.000630535
-0.0176133
-0.0130979
-0.00155501
0.0146756
0.0142694
-0.0155443
0.0013182
0.010665
0.0103647
-0.00760322
-0.00187585
0.00999299
-0.00937357
0.00996757
-0.00153332
0.00620735
-0.00109206
-0.00494868
0.0126649
-0.0131714
-0.00880272
0.00208564
0.0139838
0.00156174
-0.015516
0.0193081
-0.0111157
-0.00811824
0.00218022
0.00195347
-0.0041171
0.0167143
-0.0177762
0.00111904
-0.000929478
-0.0092301
0.0102678
-0.000736689
-0.0153336
0.0163692
-0.000139562
0.00114779
-0.000988851
0.00311088
0.000263133
-0.00333001
-0.000796322
-0.00856809
0.00937458
0.00398859
-0.0112327
0.00103286
0.0169419
-0.0177993
0.00095925
0.013304
0.00848292
-0.00295982
-0.00543015
-0.00431208
0.0152753
0.0105012
0.00993038
0.00369547
-0.0081603
0.00214076
-0.000469897
-0.000601735
-0.00950109
0.00983462
-0.0113816
0.000181608
0.0111878
-0.000469046
-0.0181285
-6.11078e-05
-0.000525148
-0.000196539
0.000827374
0.00591488
-0.00506676
-0.000102977
0.0128412
0.000168568
-0.00978461
0.0103277
-0.0182422
0.0156433
0.00263952
-0.0015004
0.00051555
7.37198e-07
-2.97206e-05
-0.00129378
0.00127841
-0.0152441
0.0139765
-3.91129e-05
-0.000295851
0.00046219
0.000830314
0.0131238
-0.0015824
-0.000621329
0.0139378
-0.000354442
0.00332648
-0.00296649
0.0129796
-0.0104616
-0.00182664
0.00111613
-0.0186192
0.00493205
0.00141881
0.00367211
-0.00321066
-0.000269996
0.000756976
0.00550565
-0.0161021
1.10271e-05
-0.000326299
0.017755
-0.0164406
-0.017498
-0.000609599
-0.000951894
0.000319969
-0.00591845
0.00624678
-0.000370457
-0.00262378
0.00304744
-0.00339688
0.0147338
-0.000711637
-0.00061847
-0.0111001
0.0117092
-0.00169563
-0.0169465
0.0186885
-0.0168481
0.0182956
0.00174767
-0.0148236
-4.57993e-05
-0.000318315
0.000108908
-0.00136162
0.00128897
0.00365874
0.000523734
0.00436538
-0.00456601
-0.0139752
0.0152641
0.00157314
-0.0131878
0.0116069
-0.019006
0.0136513
0.00538851
-0.000395132
0.00322177
-0.0028218
-0.00166167
0.0184403
-0.0166551
-0.00744137
0.0012112
0.00627484
0.00028356
-0.00259535
0.0155238
0.00227903
0.0029354
-0.0138821
0.00315945
-0.000711751
-0.000871856
-0.0171325
0.00516229
0.00587667
-0.0142667
0.0143225
9.24924e-05
0.0102899
-0.0114609
0.00115936
-0.000171462
0.00113941
-0.000982468
0.000741718
-0.000429993
-0.00310299
0.00357697
0.0127499
0.0199774
-0.0167526
0.0104256
-0.00101557
0.00636024
-0.00127693
0.00117677
-0.000466132
0.0039693
-0.0204044
0.0196597
0.000735167
0.000507618
0.00170822
0.00268499
-0.000350228
0.00311607
-0.00272627
-0.00759138
0.0063005
0.0014364
0.00129028
-0.00114585
0.00146088
0.00119922
0.000139155
-0.0165433
0.000390994
0.00283456
0.0031082
-0.00271363
0.00234224
-0.0102951
0.00808378
-0.0131939
0.0148501
-0.00162535
0.0122924
-0.000798357
0.0084733
-0.00950502
0.00107652
0.0105563
-0.00685918
0.00185637
0.00137982
-0.0184941
-0.00173601
0.00105522
0.00100479
-0.0120665
0.0101579
-0.018435
0.00847239
-0.000297741
0.00037093
0.00543008
0.00314342
0.000528054
-0.0104189
0.00988636
-0.0104572
0.0086313
0.00196491
0.000825672
0.00989798
-0.000132708
0.00119047
-0.00103358
0.0168872
-0.0150277
-0.0018388
0.0176695
0.0107808
-0.00091378
0.0102959
-0.0092672
0.0134104
-0.0016499
0.0143081
-0.00858765
0.00112675
-0.00123515
-0.000112619
-0.00113122
-0.00148801
0.0135212
-0.0120387
-0.000842666
-0.00644187
0.00738102
0.000796233
-0.0133039
-0.000977052
0.00225269
-0.00192109
-0.000269089
-0.00336803
0.00298052
0.000394782
-0.00529802
-0.0157677
-0.00014251
0.00114797
-0.000987481
3.29294e-05
-2.06826e-06
-2.27891e-05
-0.000260794
-0.00202848
0.00233457
-0.00890129
0.0108229
0.00418991
-0.0185153
-0.0129566
0.0114637
0.00983877
-0.00132092
0.0110972
0.00337678
0.0102129
0.00685464
-0.016913
0.0165608
0.00215267
-0.0186664
0.0152127
0.007318
0.0164695
-0.0137282
-0.00271731
-0.0124819
0.0140468
-0.0164922
0.0160602
-0.014773
-0.00110012
-0.0192782
0.0159586
0.0130109
-0.00102668
0.00113467
0.0094232
0.0152112
0.000613287
-0.0155114
0.00119874
-0.000579322
0.00412345
-0.00353096
-0.000681382
-0.000690364
-0.0104037
-0.00143159
0.0118208
5.93891e-06
0.0120896
-0.0120831
0.0149165
-0.00257598
0.000344497
0.00166007
-0.0139539
0.00174197
0.0013522
-0.00308871
-0.00127176
-0.0121957
0.0136542
-0.000527352
0.0160646
-0.00312128
0.00280918
0.0179319
-0.0176127
-0.000384086
0.00712653
-0.0136358
-0.00139923
-0.0111284
0.0105011
-0.000599951
-0.0170602
0.01779
-0.0110848
0.0107359
0.0141006
0.00153015
-0.015598
-0.0114444
0.0010314
0.0177904
-0.00102619
0.014846
-0.0138751
0.000320696
0.00473746
-0.00501294
0.00808064
-0.00904519
0.00516004
0.00121003
0.0180988
-0.016819
-0.0011263
-0.0144424
-0.0010737
0.00971929
-0.0105176
-0.00117812
0.000313725
0.0171256
-0.00314639
0.00290948
0.0116282
-0.0140749
0.015667
0.00328502
0.0109986
-0.0121488
0.00118997
0.00242515
0.000473009
-0.0153439
0.0155187
0.00073733
-0.0102565
0.00878285
-0.00920511
0.00065746
0.00115877
-0.00779217
-0.00154959
-0.00654454
-4.35302e-05
0.0072264
-0.0165394
-0.00104934
0.00142921
-0.00295814
-0.00878863
0.000300406
0.00157664
0.00810379
0.0059024
-0.0139819
-0.0016894
-0.0155824
0.0172852
0.00357453
-0.000418047
-1.48265e-06
-3.87168e-05
4.02232e-05
0.0100275
-0.00889135
-0.00435139
0.00191266
0.00244789
-0.0142697
0.000200168
0.0106918
-0.0101681
-0.0167982
0.0158299
0.00101469
-0.0146252
-0.00117782
-0.0178069
0.00116275
0.00102207
0.0168533
0.00139666
-0.0187353
0.0131771
-0.00139319
-0.0117707
-0.00624484
-0.0141653
-0.016637
-0.00113318
0.0171723
-0.017741
0.00321013
0.0145478
-0.017365
0.0157769
0.00167329
-1.9346e-05
6.9152e-06
-8.86486e-05
-0.0172599
0.0174046
0.00180876
-0.0186998
0.00116153
-0.0148632
0.000531955
0.0145598
-0.000494045
0.0164653
-0.0160443
-0.00183721
-0.00023567
-0.0161958
-0.000898019
0.0171847
-0.0119717
-0.00166195
0.0139503
-0.0206546
0.000883767
0.0198464
0.000506692
0.00384227
0.00391704
0.00629843
-0.0178894
0.00475042
0.017002
-0.0181487
0.00277638
0.0146338
-0.0150746
0.000890704
0.0135786
-0.0122376
-0.0175856
0.0174633
-0.00293811
0.0118631
-0.000629052
0.00221024
0.0174435
-0.00931244
0.018591
-0.00370351
-0.0147538
0.00107014
-0.0118623
0.000788665
-0.014791
0.0145481
0.000676657
-0.000157412
-0.00922843
0.00936527
0.00108421
-0.017739
0.0107322
-0.0169863
0.0183189
0.0161687
-0.0178782
0.0162922
0.00160986
-0.00156211
-0.0171861
0.0188385
0.00184212
0.00368412
0.000311801
0.0129476
-0.0132233
-0.0162124
0.0132364
-0.0111562
-0.00058479
-0.0171335
0.0177188
0.0029548
-0.00336187
0.000505097
0.0155536
-0.00142691
-0.0145838
0.00129753
-0.0141621
0.0145206
-0.0156617
0.000771276
-0.0176739
0.0169212
-0.000489252
0.00354426
-0.0167317
0.0176468
-0.00940781
0.00941931
0.000205306
-0.0180591
0.000786336
0.00987974
-0.000543684
0.00110672
-0.0185949
0.0160993
-0.0057446
-0.00124808
0.00181408
-0.0147438
0.000612879
-0.015279
0.000872263
-0.0167496
0.0178824
8.69204e-05
-0.000374071
0.000346606
-0.0127614
0.0123386
0.00083788
0.00241261
-0.00922538
0.0017429
0.0104952
-0.0121818
-0.000909038
-0.0168033
0.000483701
-0.011483
-0.01089
-0.000752115
-0.0159856
0.000511936
-0.00151052
-0.00996125
0.000953925
-0.0175099
0.000304426
-0.0152123
0.0104447
-0.0097255
-0.0172049
0.0179906
-0.00328171
0.00204423
0.0014668
-0.0183833
-0.00419719
0.00363144
-0.000448403
-0.0104436
0.0108738
0.0158204
-0.000765477
0.000971701
-8.17517e-05
-0.000852991
0.0092489
0.000728729
0.00137617
-0.0153377
-8.28145e-05
-0.000842498
-0.0065469
0.00356607
0.00943987
-0.0172951
0.000507271
0.01696
0.000932832
-0.0170435
0.00662326
0.000819765
-0.00737113
-0.00273762
0.0186965
0.0187363
-0.00213156
0.0137114
-0.0150103
0.0014696
0.0136867
0.00204322
-0.0168444
0.0148284
-0.000805519
0.00750309
0.00349411
-0.00389665
0.000447371
-8.69731e-05
0.000953751
-0.000831662
0.0148014
8.66438e-05
0.000961714
-0.00100817
-8.12176e-05
0.00098201
-0.000862385
0.0102509
-0.0107172
0.001043
-0.0168907
0.0182004
-0.00126629
0.015211
0.0009935
-0.000866739
-0.00128596
-0.0172236
0.0186056
-9.19464e-05
0.000124438
3.48717e-06
0.00916196
0.0102201
-0.0112949
0.0114084
0.000404776
0.0199771
0.0148033
-0.0139573
-0.000850514
0.00095053
0.000803212
-0.0172836
0.0166485
-0.000617831
0.0169152
0.00216334
-0.0189095
0.0152249
0.000891362
-0.0160288
0.0094741
-0.00274031
-0.00179033
-0.0136358
0.0157832
-0.0170806
0.00196264
0.0153396
-0.00119744
0.00107272
-5.69332e-05
4.7241e-05
3.89191e-05
0.00139002
-0.0138737
-0.0180006
-0.00224468
0.000919804
-0.0158104
-0.000198688
0.000937007
0.0120676
0.00145048
-9.0621e-05
-0.0128167
0.0133828
0.0162502
-0.00507081
0.00529009
0.000725219
-0.00309629
0.000342383
0.00284016
-0.0172904
0.00216146
0.0152374
0.00501591
-0.00585824
0.00100935
-0.0109736
0.0122213
-0.00124856
-0.00127406
0.0162343
-0.000886818
0.00607851
-0.00036437
0.0030591
-0.00266906
-0.00932812
0.00853987
-0.00257665
0.0062399
-0.00478256
0.00560942
0.000154072
-0.0116057
-0.000658403
-0.00821731
-0.00122958
0.00300789
-0.0151751
-0.0105455
0.00368099
0.00169581
-0.00205311
-0.0158029
-0.000245354
0.000205518
0.00015816
-0.00281536
-0.00363336
-0.000445128
0.00139638
-0.0175444
0.0161894
0.000553105
-0.00439029
0.00272174
0.0155698
-0.0182447
-0.00727136
0.0128337
-0.0140854
-0.000964362
0.0154505
0.00870769
0.00814462
0.0106672
-0.0108482
-0.00451527
0.00557262
-0.000891633
0.0028222
-0.00316082
0.000519202
0.00950719
0.000191219
-0.013847
0.000549203
0.00913269
-0.00968644
-7.75231e-05
-0.00772287
0.00779245
0.00172405
-0.000462712
-0.000400311
-0.00363396
-8.78759e-05
0.000912732
-0.000792088
-0.0152175
0.00103509
0.00154324
-0.0151111
0.0141102
-0.0139327
0.000580053
-0.000332551
0.00331547
-9.21785e-05
0.000904631
-0.000781572
0.000999703
-0.0114571
0.0104478
-5.15738e-05
-0.0142346
-8.76489e-05
0.000931015
-0.00080945
0.00135243
-0.0193123
-0.0171103
-0.0011149
0.0183486
-0.0021169
-0.00157359
-0.0133731
0.00110448
0.0128454
-0.0125343
-0.000298249
-0.00149772
-0.00636972
0.00786178
0.000539626
0.0101449
0.0019671
0.000343896
0.0144863
0.00990062
-0.0103145