/*--------------------------------*- C++ -*----------------------------------*\
| =========                 |                                                 |
| \\      /  F ield         | OpenFOAM: The Open Source CFD Toolbox           |
|  \\    /   O peration     | Version:  v2012                                 |
|   \\  /    A nd           | Website:  www.openfoam.com                      |
|    \\/     M anipulation  |                                                 |
\*---------------------------------------------------------------------------*/
FoamFile
{
    version     2.0;
    format      ascii;
    class       surfaceVectorField;
    location    "750";
    object      Uf_0;
}
// * * * * * * * * * * * * * * * * * * * * * * * * * * * * * * * * * * * * * //

dimensions      [0 1 -1 0 0 0 0];


internalField   nonuniform List<vector> 
14516
(
(1.18316 -0.103266 -8.45252e-21)
(1.20103 -0.0898991 -4.15765e-21)
(1.17165 -0.0795842 -3.60684e-21)
(0.973845 -0.0103143 1.11087e-21)
(0.965511 -0.00726477 -4.80963e-21)
(0.971512 0.000787076 2.04342e-22)
(1.15945 -0.114544 4.18629e-21)
(1.18374 -0.131097 1.64287e-21)
(1.01225 -0.000713058 0)
(1.01228 -0.000790103 0)
(1.01235 -0.000730151 0)
(0.702201 0.429633 0)
(0.635864 0.404064 0)
(0.638414 0.540124 0)
(1.01057 -0.00646354 3.07367e-22)
(1.01075 -0.00697565 -4.23416e-23)
(1.01101 -0.00643803 5.20328e-22)
(1.00866 6.68984e-05 -4.4303e-22)
(1.0093 -4.96815e-05 1.01329e-22)
(1.00999 -5.76315e-05 7.7471e-22)
(1.0109 -0.000193373 1.3184e-21)
(1.01089 -0.000146421 8.93702e-23)
(1.01092 -0.000288966 7.93739e-22)
(1.02421 0.00106639 1.50007e-22)
(1.02421 0.00141437 0)
(1.02469 0.00110102 0)
(0.794826 0.31459 -2.4092e-20)
(0.776886 0.455456 0)
(0.997773 0.024033 0)
(0.99045 0.0236293 5.87948e-21)
(0.996788 0.016728 0)
(1.10952 -0.0128067 3.23914e-22)
(1.11785 0.0139048 -5.24321e-21)
(1.1177 -0.0209226 3.45843e-22)
(1.01214 -0.000645671 0)
(1.01216 -0.000680119 0)
(1.01803 -0.00593845 -7.81176e-22)
(1.01832 -0.0064102 -1.78907e-22)
(1.01843 -0.00598971 -8.57185e-23)
(1.00498 2.80093e-05 6.22476e-23)
(1.00494 7.70985e-05 1.09303e-21)
(1.01779 -0.00550587 -9.07396e-23)
(1.01757 -0.00509366 3.68128e-22)
(1.01791 -0.00516537 8.28898e-22)
(1.01569 0.0172584 4.43482e-22)
(1.01501 0.0162286 -1.35225e-21)
(1.01636 0.0165057 5.21385e-22)
(1.01631 0.0183995 1.60091e-22)
(1.01484 0.018116 1.19864e-22)
(0.958883 -0.291809 2.98034e-21)
(0.965537 -0.31034 9.10156e-21)
(0.94603 -0.303603 0)
(1.01762 -0.0058654 -3.75041e-22)
(0.870384 0.0432731 7.79387e-22)
(0.853818 0.0182367 -2.35539e-20)
(0.884703 0.0150076 -1.88583e-21)
(1.03033 -0.0171305 9.58025e-22)
(1.03172 -0.0171946 9.31776e-22)
(1.03068 -0.0159198 -8.41808e-22)
(1.10839 -0.0946082 -6.36529e-21)
(1.10471 -0.0768967 -1.18052e-20)
(1.07932 -0.117409 3.7398e-21)
(1.01377 0.00438426 3.90199e-22)
(1.014 0.00419261 3.74508e-23)
(1.01268 -0.00105442 7.31649e-22)
(1.01252 -0.00100526 1.09857e-21)
(1.01278 -0.000805942 -1.5588e-22)
(1.01187 -0.000500797 1.70943e-22)
(1.01206 -0.000570279 -1.12605e-21)
(1.01689 -0.00447348 -1.64326e-22)
(1.01696 -0.00485577 -3.38686e-22)
(1.01667 -0.00467927 -1.18295e-22)
(1.01407 0.0120097 4.65921e-22)
(1.01331 0.0119864 1.46544e-24)
(1.01369 0.0111815 4.82829e-22)
(1.06123 0.0443381 -3.26556e-21)
(1.05504 0.0407913 2.16269e-21)
(1.06241 0.0390144 2.56783e-21)
(1.02372 0.00102495 -3.98633e-22)
(1.02419 0.000732014 1.48972e-22)
(1.01449 -0.000954522 4.50925e-23)
(1.01552 0.00016403 -1.86471e-21)
(1.01341 0.000628538 3.68604e-23)
(1.10607 -0.109976 3.61064e-21)
(1.13127 -0.0727532 8.88039e-21)
(0.961436 0.0568799 -2.42006e-22)
(0.960576 0.0706735 1.58312e-21)
(0.945596 0.0639665 -3.80074e-22)
(1.01371 5.40448e-06 2.50624e-22)
(1.01365 -5.58224e-05 3.92435e-22)
(1.01028 1.34977e-06 3.66674e-22)
(1.06853 0.0488467 -5.21109e-21)
(1.07816 0.0526251 -3.11644e-21)
(1.07881 0.044302 -6.8676e-22)
(0.779024 0.0154966 1.80886e-20)
(0.764686 -0.0345359 2.47159e-21)
(0.747746 0.0219452 6.03944e-21)
(1.00791 4.84816e-05 -8.4148e-22)
(1.00639 0.000104234 1.54762e-22)
(1.02968 -0.0183411 0)
(1.02894 -0.0169866 0)
(1.01099 -0.000499586 5.66903e-24)
(1.01101 -0.000551493 -6.27963e-23)
(1.0111 -0.000671248 0)
(1.01544 0.00056876 8.1158e-22)
(1.01478 0.000445161 2.04501e-22)
(1.01569 0.000732683 5.76543e-23)
(1.01343 -0.0019454 1.98472e-21)
(1.01494 -0.00300173 9.66747e-24)
(1.00798 0.000165325 4.82875e-22)
(1.00471 9.21724e-06 -1.15303e-22)
(1.01063 -0.000426773 -5.55198e-22)
(1.01126 -0.000377879 5.10578e-22)
(1.01064 -0.000414548 5.56094e-22)
(1.00951 5.04425e-05 2.42817e-23)
(1.00871 -5.38728e-05 -6.94725e-22)
(1.01015 0.000126347 1.62683e-22)
(1.00873 -0.000248294 -3.92261e-21)
(1.0107 -0.000357393 -1.52149e-22)
(1.01169 -0.000441001 -5.8534e-22)
(1.05857 0.0530068 -4.14377e-21)
(0.995707 -0.0355855 -1.23678e-21)
(0.991645 -0.0295779 1.70169e-21)
(0.999527 -0.0290042 5.27417e-23)
(0.984038 -0.0153108 0)
(0.985471 -0.0220322 0)
(0.98983 -0.0180862 9.89786e-22)
(1.01231 -0.000857252 0)
(1.01221 -0.000853936 4.97735e-22)
(1.08915 0.0588083 -2.29787e-21)
(1.07475 0.0644086 6.51162e-21)
(0.99432 0.0484558 4.22777e-21)
(0.986917 0.0428653 0)
(0.996852 0.0385196 0)
(1.01088 -0.00884792 6.78842e-22)
(1.01039 -0.00835434 -2.29393e-21)
(1.01021 -0.00916299 -1.20593e-21)
(1.02514 -0.00292955 -6.86188e-23)
(1.02463 -0.00281218 -1.16547e-22)
(1.02475 -0.00329608 1.17311e-21)
(0.971255 0.344745 1.99941e-21)
(0.914649 0.367294 -2.04254e-20)
(0.961207 0.302473 1.74053e-20)
(0.913637 0.373687 3.61293e-21)
(0.905033 0.426206 0)
(0.955813 0.385712 0)
(1.01856 0.00123981 -2.50133e-22)
(1.0182 0.00119962 0)
(0.947571 -0.0445183 0)
(0.961489 -0.0448853 -9.04858e-21)
(0.95493 -0.0335048 4.83861e-21)
(0.779605 0.0468327 8.11201e-22)
(0.74971 0.0242185 1.10392e-21)
(0.748268 0.0644856 0)
(1.01098 -0.00047036 -1.12199e-21)
(1.01091 -0.000365957 -5.76718e-23)
(1.01393 0.00019212 3.96404e-22)
(1.01331 0.000268606 -2.67332e-22)
(1.01514 0.000258433 -2.75089e-23)
(1.01205 -0.0115122 -1.99598e-22)
(1.01134 -0.0111013 3.72216e-21)
(1.01139 -0.0121596 9.40239e-22)
(0.927928 -0.0240188 0)
(0.911948 -0.0280533 -2.54052e-21)
(0.930366 -0.0393394 0)
(1.01271 -0.000312277 -1.09304e-21)
(1.01322 -0.000415052 -7.0223e-22)
(1.01247 -0.000323591 1.52244e-21)
(0.618935 0.708645 -8.91605e-21)
(0.603524 0.685809 -3.73295e-20)
(0.978679 0.0369582 -8.77776e-23)
(0.97971 0.0462754 7.40468e-21)
(0.984844 0.0411621 -6.6431e-21)
(0.942781 -0.0215072 1.52953e-21)
(0.9312 -0.00820856 0)
(0.953899 -0.0186611 -5.45303e-21)
(0.96294 -0.016529 -3.63268e-21)
(0.955444 -0.00829917 9.15778e-23)
(1.10051 -0.0283498 0)
(1.09536 -0.00655707 1.34879e-23)
(0.999897 0.0306961 0)
(1.00456 0.023179 2.50569e-21)
(0.989681 0.391297 0)
(1.03564 0.32159 0)
(1.01249 0.000281431 0)
(1.013 0.000388186 -8.30699e-24)
(1.01376 0.00055788 0)
(1.01354 -0.0029659 6.84467e-22)
(1.0137 -0.00310411 1.10877e-21)
(1.01355 -0.00312102 9.42835e-22)
(0.975785 -0.00850713 1.89638e-22)
(0.97695 -0.0070442 -1.36139e-22)
(0.97726 -0.0135087 1.47009e-23)
(1.10142 0.0573364 4.97619e-21)
(1.09723 0.0728325 0)
(0.809774 0.0597902 5.05843e-22)
(0.81717 0.0322564 4.78303e-21)
(1.01878 0.0010613 -1.72709e-23)
(1.01901 0.000872553 2.41415e-22)
(1.01859 0.00085554 2.55499e-22)
(1.00851 0.00489888 2.09757e-23)
(1.00846 0.00569815 -9.95592e-23)
(1.00774 0.00496638 -4.85827e-23)
(1.00588 0.0078867 -2.04728e-21)
(1.00613 0.00715519 -7.89592e-22)
(1.00666 0.00777534 1.51905e-22)
(1.01118 0.0117759 0)
(1.0109 0.0109109 -4.47868e-22)
(1.01185 0.0113721 4.40951e-22)
(0.974574 0.0331296 -2.17267e-21)
(0.98039 0.0304968 0)
(1.00557 0.00494288 3.89136e-22)
(1.00598 0.00436237 -2.00964e-22)
(1.00633 0.00507551 -7.84666e-22)
(0.95209 -0.0244087 -2.25072e-21)
(0.941395 -0.0206572 -5.61188e-22)
(0.943596 -0.0330169 -4.16709e-22)
(1.03465 -0.0487019 5.8552e-23)
(1.02745 -0.0504219 -3.61197e-22)
(1.03049 -0.0418537 -1.65657e-22)
(1.01222 -0.00265805 1.67044e-21)
(1.01168 -0.00161833 1.81268e-21)
(1.00716 -0.0439338 0)
(1.0016 -0.0400931 -8.03903e-23)
(1.00865 -0.0366468 0)
(1.01049 0.0122047 -3.62532e-22)
(1.01148 0.0127086 -3.36625e-22)
(1.0192 0.00070101 0)
(1.01939 0.000514667 1.3249e-21)
(1.01898 0.00050984 0)
(1.01262 -0.0109226 -1.44916e-21)
(1.0132 -0.0103788 0)
(1.01262 -0.0100248 0)
(1.00611 0.00236572 1.49763e-22)
(1.00557 0.00286477 -4.15788e-22)
(1.00545 0.00194942 5.91592e-22)
(0.976788 -0.0217126 -2.32747e-22)
(0.979778 -0.0143797 2.66327e-21)
(0.697601 0.635053 -1.65898e-20)
(0.703167 0.675765 -1.67572e-20)
(0.745512 0.642933 7.83691e-21)
(1.02688 0.00175724 -1.29656e-22)
(1.02767 0.0019809 -8.99147e-23)
(1.02746 0.00124515 -7.14991e-22)
(1.09862 -0.121107 7.66383e-22)
(1.07551 -0.143392 -1.649e-21)
(1.01275 -0.0118397 -1.3254e-21)
(1.04231 -0.0579177 1.82774e-22)
(1.04238 -0.0461687 -7.16974e-22)
(0.923574 0.319548 -5.75416e-21)
(0.869526 0.326557 3.5499e-21)
(0.959837 -0.0147361 3.73488e-21)
(0.962613 -0.0280932 -8.40122e-22)
(1.02631 0.00212826 6.10108e-22)
(1.02613 0.00149253 2.29201e-22)
(1.02371 -0.00206892 -4.16589e-22)
(1.02424 -0.00201304 -4.36231e-23)
(1.02365 -0.0016202 1.94858e-22)
(1.02376 -0.002587 1.89923e-22)
(1.02321 -0.00218856 -4.61013e-22)
(1.00833 -0.000427814 0)
(1.00784 -0.000233867 0)
(1.00809 -0.000984293 2.29182e-22)
(1.02025 0.00600212 5.1505e-22)
(1.02081 0.0060609 5.12724e-22)
(1.02044 0.00650677 2.57176e-22)
(1.02003 0.00553601 -2.93898e-22)
(1.0197 0.00591123 -1.20638e-23)
(1.00925 0.00489991 8.89785e-23)
(1.00864 0.0040779 9.17027e-23)
(1.01166 -0.00313882 2.44075e-22)
(1.01256 -0.00358469 -1.9795e-21)
(1.01376 -0.0100402 -3.01728e-21)
(1.01374 -0.0108096 2.20093e-21)
(1.01152 0.000356237 2.84956e-22)
(1.01198 0.000284718 1.01846e-21)
(1.01309 0.000413529 -3.36936e-22)
(1.01145 -0.00850735 2.11922e-21)
(1.0114 -0.00927856 1.00108e-21)
(0.986258 -0.00681655 2.55604e-23)
(0.988394 -0.00180291 9.38494e-21)
(0.99284 -0.00746833 -4.60636e-22)
(1.01218 0.00025799 4.09407e-23)
(1.01099 0.00010783 1.78269e-23)
(0.94207 0.134675 -2.17849e-21)
(0.97854 0.129613 -3.2567e-22)
(0.968514 0.168841 1.75214e-21)
(1.01694 0.00107546 0)
(1.01722 0.00106741 0)
(0.794074 0.340859 0)
(0.81626 0.399548 -6.9431e-21)
(0.832085 0.451148 0)
(1.00325 0.0533683 -1.05807e-21)
(0.993435 0.0589375 2.78963e-21)
(1.01897 0.00126315 -1.5922e-21)
(0.985269 0.0699865 -8.7991e-23)
(0.989281 0.0759868 -1.35575e-21)
(0.997273 0.0654126 3.44172e-21)
(1.11486 0.0575641 8.54645e-21)
(1.10365 0.044304 1.00994e-20)
(1.00517 0.00565976 0)
(1.00479 0.00483644 4.34283e-22)
(1.11354 -0.0999679 -1.58599e-21)
(1.08646 -0.125128 2.22622e-21)
(0.98467 -0.0132374 2.85584e-22)
(0.977506 -0.00652713 -7.07254e-22)
(1.00733 0.000124863 9.85436e-24)
(1.00438 3.35271e-05 5.55835e-23)
(1.00452 2.97251e-05 1.03484e-23)
(1.01785 -0.00170531 -1.25236e-21)
(1.01814 -0.00182367 1.03979e-21)
(1.01808 -0.00156547 1.57358e-21)
(1.01047 -0.00601135 -1.09839e-23)
(1.01006 -0.00638162 5.33912e-23)
(1.02919 -0.0036013 2.26505e-21)
(1.02946 -0.00415945 2.4177e-21)
(1.02868 -0.00398026 -2.05512e-22)
(0.866706 0.0778828 3.38151e-22)
(0.896367 0.0630115 4.5726e-23)
(1.02338 -0.00658242 0)
(1.0259 -0.00689927 0)
(1.02496 -0.00463195 0)
(1.01382 -0.047307 2.33994e-23)
(1.00726 -0.0525636 0)
(1.00562 0.00875029 8.60047e-24)
(1.00504 0.0080434 -2.21748e-22)
(1.0145 -0.00269154 -2.23875e-22)
(1.01458 -0.00259191 1.10848e-21)
(1.01438 -0.0025504 -1.3256e-21)
(1.01072 0.000112307 3.19532e-22)
(1.01023 0.000144333 2.03497e-23)
(1.01196 0.000201736 -2.3671e-22)
(1.01942 0.000889383 0)
(1.01446 -0.00277789 5.05698e-22)
(1.01466 -0.0028164 4.75141e-22)
(1.01014 -0.00258254 0)
(1.01057 -0.00296015 0)
(1.0105 -0.00241496 -1.24593e-22)
(1.02327 0.000984627 -5.60765e-23)
(1.02334 0.00129464 -1.25939e-22)
(1.01956 0.000331714 4.93237e-23)
(1.01977 0.000128427 -1.19497e-21)
(1.01935 0.000149383 -1.89421e-22)
(1.01123 -0.000183033 1.68739e-21)
(1.01284 -0.000283255 -2.36441e-22)
(1.00908 0.00012228 -1.85113e-22)
(1.01031 0.000105769 6.54894e-22)
(1.01683 0.000880072 -1.23368e-21)
(1.01664 0.00104077 0)
(1.01536 -0.000671478 -9.39185e-23)
(1.01547 -0.000785243 5.47129e-22)
(1.0155 -0.000723268 -8.18219e-23)
(1.01762 -0.00181176 -2.23044e-21)
(1.01756 -0.00157337 -1.07468e-21)
(1.01295 -0.00122446 -7.65456e-22)
(1.01284 -0.00113861 -1.29291e-21)
(1.01311 -0.00103876 -1.12682e-22)
(1.01089 -0.000360057 0)
(1.01111 -0.000355401 0)
(1.01071 -0.000362007 -5.50459e-22)
(1.02368 -0.00416966 3.56568e-23)
(1.0232 -0.00407643 5.78376e-22)
(1.0235 -0.00465171 -9.70045e-22)
(1.01815 -0.00689806 4.97923e-23)
(1.01862 -0.00694987 -1.18786e-23)
(1.01825 -0.00802192 -4.19961e-22)
(1.01795 -0.00738217 -4.10576e-22)
(1.01763 -0.0079119 3.40872e-22)
(0.978693 0.011292 2.62543e-24)
(0.981279 0.0162742 0)
(0.981077 0.0191233 0)
(1.02377 -0.00366093 -5.61161e-22)
(1.02432 -0.00421897 -1.99633e-22)
(1.02456 0.00316054 -1.92397e-22)
(1.02516 0.00281805 1.28452e-22)
(1.02509 0.00356789 2.28032e-23)
(0.679123 0.58537 0)
(0.653092 0.625821 0)
(0.813448 -0.484096 -9.53794e-21)
(0.819291 -0.485342 -3.28365e-20)
(0.76545 -0.47501 2.91152e-20)
(1.01162 0.000206792 9.50243e-22)
(1.00948 4.15502e-08 4.00634e-23)
(0.867465 -0.486264 1.79392e-22)
(0.798275 -0.439385 2.88369e-20)
(0.840261 0.152502 -2.49017e-20)
(0.898366 0.220114 4.34888e-20)
(1.02395 0.00345048 0)
(1.02399 0.0028158 0)
(1.00951 0.000187554 -4.39298e-24)
(1.00939 0.000202823 2.97312e-22)
(1.01333 -0.000294694 -1.33848e-22)
(1.01282 -0.000280583 1.17405e-22)
(1.01383 -0.000306127 -4.49364e-23)
(1.01304 -0.00133769 1.17365e-21)
(1.01284 -0.00135808 -2.25947e-23)
(1.02381 -0.00310173 7.34308e-22)
(1.0233 -0.00315216 0)
(1.01103 -0.000357341 -5.79999e-22)
(1.01071 -0.000276903 6.16378e-22)
(1.01092 -0.00026015 2.19274e-22)
(1.01088 -0.000121063 -3.91449e-22)
(1.01476 0.0118996 -3.17343e-23)
(1.01456 0.0127348 -2.81436e-23)
(1.01705 -0.00383173 4.81375e-23)
(1.01697 -0.00359837 7.94513e-23)
(1.01688 -0.0037394 -7.99136e-22)
(0.950346 -0.278414 -7.25409e-21)
(0.937235 -0.263049 -1.10788e-20)
(0.929818 -0.276664 -1.0107e-20)
(0.977422 0.00509528 -9.68689e-22)
(0.97578 -0.00241931 2.26189e-22)
(0.977401 0.00581715 2.96327e-21)
(0.816229 0.0142162 -2.09263e-20)
(0.83543 -0.0153373 2.91023e-21)
(0.9925 -0.0428359 -7.67545e-23)
(1.05073 -0.00813584 -1.27536e-21)
(1.04836 -0.00817384 -6.54337e-22)
(1.04988 -0.0102401 1.3531e-21)
(1.01705 -0.00428731 3.15561e-23)
(1.0168 -0.00414852 7.74768e-22)
(1.00918 0.000126351 -7.89859e-22)
(1.00884 0.000321545 -7.90956e-22)
(1.00908 0.000655373 2.60307e-22)
(1.01228 -0.00319765 1.57321e-21)
(1.01236 -0.00328505 -2.57275e-22)
(1.01231 -0.00310112 -1.54843e-22)
(1.03113 -0.116866 -9.49584e-22)
(1.04786 -0.0931326 -8.92464e-21)
(1.03548 -0.0862986 -2.73908e-23)
(0.978032 0.00292548 -2.92643e-23)
(0.97925 0.0116501 -7.0898e-23)
(1.02797 -0.144361 1.55438e-21)
(1.02167 -0.134028 -4.8207e-22)
(1.02863 -0.00266546 0)
(1.02892 -0.00312347 8.5127e-22)
(1.02818 -0.00296805 -1.07114e-22)
(0.973772 -0.277608 2.71511e-21)
(1.0198 0.000518384 -5.02881e-22)
(1.01383 0.00324443 -9.04165e-24)
(1.01406 0.00313465 9.76663e-25)
(1.01382 0.00287865 0)
(1.01445 -0.00316627 1.8736e-21)
(1.01463 -0.00331417 2.80493e-22)
(1.01456 -0.00310055 1.18482e-21)
(1.04077 0.00710495 2.1761e-21)
(1.04184 0.00820209 1.18645e-21)
(1.04003 0.00815544 9.92321e-22)
(0.937551 -0.360776 -3.07302e-21)
(0.930766 -0.413572 -4.4781e-21)
(0.987555 -0.400924 2.9824e-21)
(1.03244 0.00133201 -5.22173e-22)
(1.03196 0.00129474 -9.71157e-24)
(1.03228 0.000986136 9.77534e-22)
(1.02441 -0.00307504 3.75328e-22)
(1.01263 -0.00124751 -1.28477e-21)
(0.84249 0.118326 3.80052e-22)
(0.814369 0.116923 2.74225e-22)
(0.824224 0.143583 -3.35989e-21)
(1.0135 -0.00282098 -2.84758e-21)
(1.01338 -0.00284473 1.18149e-21)
(0.933362 -0.0414654 0)
(0.941104 -0.0572877 -5.60904e-21)
(1.01434 -0.00321413 -4.88719e-22)
(1.0143 -0.00301837 -8.12439e-22)
(1.01767 -0.00229775 0)
(1.01742 -0.00236604 -9.82219e-22)
(1.01768 -0.00253577 0)
(1.01717 -0.00408576 1.68518e-22)
(1.01725 -0.00390314 4.24297e-22)
(1.02911 -0.00233267 -9.32917e-22)
(1.02836 -0.00218275 -2.83114e-22)
(1.01495 8.09476e-05 -1.2343e-23)
(1.01498 8.10327e-06 -1.29376e-21)
(1.0151 9.59227e-05 -2.84895e-21)
(0.984593 -0.00928166 0)
(0.978473 -0.0116764 2.08921e-21)
(0.905668 0.137095 -1.98939e-21)
(0.929435 0.103829 -4.76363e-21)
(0.952817 -0.0307995 2.53125e-21)
(1.03956 0.00625867 8.35193e-22)
(1.04102 0.00607763 -1.52073e-21)
(1.21336 -0.247342 1.32844e-20)
(1.23813 -0.20657 -4.07161e-21)
(1.1878 -0.217927 -4.30604e-21)
(1.00843 0.00281234 -8.73647e-22)
(1.00837 0.00229941 6.26807e-23)
(1.0087 0.00243756 -8.81833e-22)
(0.777582 0.0682521 1.24001e-20)
(0.898696 -0.00724354 -3.88158e-20)
(1.01521 -0.000625433 -4.14277e-23)
(1.01514 -0.000588501 -3.08888e-22)
(1.02291 0.000931834 -3.03181e-22)
(1.02328 0.000713825 -1.08733e-21)
(0.92705 -0.247839 2.44271e-21)
(0.911273 -0.238625 1.59735e-21)
(0.928151 -0.224961 -5.75496e-21)
(0.85778 0.424699 -6.62904e-21)
(0.896719 0.471814 1.40552e-20)
(1.01464 -0.00251511 1.83193e-21)
(1.01451 -0.00237221 -9.22394e-22)
(1.0147 -0.00243114 1.00833e-21)
(1.01994 -7.01263e-05 -1.27365e-21)
(1.02017 0.000117575 -1.725e-22)
(1.00992 0.00478638 0)
(1.00985 0.00556914 0)
(0.799928 0.0632777 -2.3959e-21)
(1.02025 -0.00565672 0)
(1.01985 -0.00530495 9.90946e-23)
(1.01992 -0.00579708 -5.12273e-23)
(1.01109 -0.00361757 7.61996e-22)
(1.01072 -0.00315038 4.53961e-22)
(1.03382 -0.00314439 5.63678e-23)
(1.03362 -0.00381428 9.79647e-22)
(1.03306 -0.00321309 1.21521e-21)
(1.05311 0.0115924 0)
(1.05 0.0110005 2.66093e-21)
(1.05138 0.0140358 -2.02078e-22)
(0.98568 -0.00410498 -2.13151e-21)
(0.989606 -0.00773146 1.2426e-22)
(0.987257 -0.02911 0)
(0.979227 -0.0271335 -1.09e-21)
(1.02565 -0.00322436 -2.20984e-21)
(1.02555 -0.00266395 -1.74288e-21)
(1.18732 -0.283516 1.81747e-20)
(1.24187 -0.277634 -1.04042e-20)
(1.01293 -0.000212207 -5.35238e-23)
(1.01377 -0.000337048 4.3565e-23)
(1.00957 -0.000809245 -1.37164e-21)
(1.00983 -0.00125062 -3.51441e-22)
(1.00988 -0.000862386 2.24916e-22)
(0.869507 0.117013 0)
(0.864874 0.0976167 0)
(1.01046 0.00465533 -9.48389e-24)
(1.00988 0.00409429 0)
(0.935002 -0.149447 1.37652e-20)
(0.906457 -0.16694 -1.05017e-20)
(0.940307 -0.182739 -3.2552e-21)
(1.17058 0.0405491 7.30874e-22)
(1.16482 0.0197053 7.68833e-22)
(1.19532 0.0276563 -6.55078e-21)
(1.01843 -0.000701866 -1.78889e-21)
(1.01862 -0.000515882 -5.18261e-22)
(1.01826 -0.000516818 -9.51525e-22)
(1.02968 -0.0032483 -1.60323e-22)
(1.0149 0.000150354 -1.4052e-25)
(1.01482 6.63133e-05 6.72147e-23)
(1.01999 -0.0493384 -7.87765e-22)
(1.02379 -0.0587555 -7.71379e-21)
(0.951234 -0.249604 7.74327e-21)
(1.01057 -0.00757792 -1.1569e-21)
(1.01114 -0.00744628 -4.3187e-22)
(1.02342 0.00368478 4.17162e-22)
(1.02294 0.00330887 -9.99026e-23)
(1.02287 0.00387041 -3.66375e-22)
(1.14986 0.0496133 0)
(1.1748 0.0615622 -2.13886e-22)
(1.01281 0.0267077 -3.58683e-21)
(1.01195 0.0324409 0)
(1.01745 0.0302111 0)
(1.01336 0.00406727 3.06432e-23)
(1.01346 0.0048124 4.19985e-22)
(1.0138 0.0036364 -1.08003e-22)
(1.01422 0.00400028 1.84808e-23)
(1.03261 0.00160462 1.81103e-22)
(1.03288 0.00127875 -1.42041e-21)
(1.01466 -0.000461371 -7.19597e-23)
(1.01497 -0.000568467 2.71655e-22)
(1.01469 -0.000450183 0)
(1.01287 -0.000890962 5.27409e-21)
(1.01572 -0.00273395 4.55211e-21)
(1.01586 0.000784241 6.31925e-22)
(0.957973 -0.133863 -7.39884e-22)
(0.928179 -0.121094 3.86411e-22)
(1.01673 0.000717495 -1.42641e-22)
(1.01647 0.000693768 3.20365e-21)
(1.01664 0.000567928 -9.26998e-23)
(1.01238 -0.00290316 -1.16453e-22)
(1.01236 -0.00297174 4.76573e-22)
(1.01231 -0.00281968 1.34232e-21)
(0.978361 0.284424 -5.13481e-21)
(0.939765 0.266545 2.63296e-22)
(1.00759 0.00115261 6.7882e-23)
(1.00758 0.00182791 1.48945e-22)
(1.00708 0.00143594 -4.58411e-22)
(1.01091 -0.00391431 -1.91651e-21)
(1.01133 -0.0040414 -1.91835e-21)
(1.01954 -0.00694548 8.16702e-22)
(1.0191 -0.00696785 4.54303e-22)
(1.01918 -0.00644372 -7.71414e-23)
(1.01222 -0.00253206 6.6571e-22)
(1.01218 -0.00238914 6.8204e-22)
(1.01219 -0.00243706 6.32007e-23)
(0.972303 0.0522634 1.41357e-21)
(0.961258 0.0444591 4.26189e-21)
(1.01239 -0.00282759 -1.56761e-23)
(1.01232 -0.00268993 -9.26623e-23)
(1.01239 -0.00275197 -2.22804e-22)
(1.02572 0.00252714 6.1574e-22)
(1.02508 0.00219623 4.50129e-22)
(1.01085 1.39923e-06 -1.52879e-21)
(1.01088 -0.000108625 2.38111e-22)
(1.01309 -0.00146378 2.81971e-22)
(1.0133 -0.00133664 2.47386e-21)
(1.02638 0.00287188 -2.63991e-22)
(1.01526 -0.000156723 1.69146e-23)
(1.01343 5.80925e-05 -4.67292e-22)
(1.02241 -0.00871674 8.51205e-22)
(1.02262 -0.00830831 -6.06911e-22)
(1.02298 -0.00884981 1.34736e-21)
(1.04017 -0.000390188 -8.43666e-22)
(1.03917 -0.000106894 1.52986e-21)
(1.03944 -0.000958483 1.13073e-21)
(1.01275 0.0564558 2.0603e-22)
(1.01182 0.0472713 -3.68922e-21)
(1.02098 -0.00544345 -1.13882e-22)
(1.01841 -0.00443056 2.32079e-21)
(1.02077 -0.00273842 -1.61655e-21)
(1.01215 -0.00227995 8.86361e-22)
(1.01213 -0.00221685 -1.47135e-21)
(1.01209 -0.00215058 2.09995e-21)
(1.02742 -0.0221875 -2.76916e-21)
(1.02575 -0.0216099 0)
(1.02619 -0.0235751 -8.84036e-22)
(1.01244 -0.00334705 4.39115e-22)
(1.01248 -0.00324748 -4.10235e-22)
(1.01255 -0.0034082 1.23658e-21)
(1.04116 -0.00059504 -3.61877e-22)
(1.04074 0.00043513 -1.57436e-21)
(1.01104 -0.00459393 -1.84126e-21)
(1.01094 -0.00471621 2.8409e-22)
(1.01113 -0.00474692 2.73492e-22)
(1.02088 -0.00529717 8.86064e-23)
(1.02054 -0.00551517 4.30138e-22)
(1.02042 -0.00498847 -4.14777e-22)
(0.904505 0.0187379 1.20819e-22)
(0.909994 0.0255933 3.55083e-21)
(0.897533 0.0271193 5.52644e-23)
(1.01245 -0.00296249 -1.42037e-21)
(1.01486 0.0667777 -2.11841e-21)
(1.02245 0.0588271 7.22843e-21)
(1.01205 -6.15416e-05 1.61225e-22)
(1.01386 -0.000342086 4.39482e-22)
(1.01282 -0.000234607 0)
(1.0514 -0.00587641 -3.10002e-23)
(1.05346 -0.00800493 -4.82779e-22)
(1.01187 0.00467809 1.22711e-23)
(1.01153 0.00491789 -7.82386e-25)
(1.01202 0.00516592 0)
(1.01188 0.00409299 5.81307e-23)
(1.0123 0.00444236 -9.86977e-23)
(1.05659 0.01246 -3.20293e-21)
(1.05436 0.00924298 0)
(0.893589 -0.232382 1.08902e-21)
(0.90073 -0.254114 2.7178e-21)
(1.01391 -0.00957265 -1.7424e-21)
(1.01353 -0.0089324 2.55181e-21)
(1.01415 -0.0089974 1.87558e-21)
(1.02127 -0.00564761 1.28566e-22)
(1.02114 -0.00513721 -3.03196e-22)
(1.01711 -0.00286844 -1.75167e-22)
(1.01726 -0.0029986 6.2387e-23)
(1.01721 -0.00283511 -1.04082e-22)
(1.04207 -0.0320958 1.69468e-21)
(1.04295 -0.0291349 1.10064e-21)
(1.03958 -0.0304835 1.44197e-21)
(1.01877 -0.00035426 1.30713e-21)
(1.01896 -0.000191914 -1.15617e-21)
(1.0186 -0.000169733 -1.48803e-22)
(0.981498 -0.00545646 7.49093e-23)
(0.984112 -0.014631 2.4726e-22)
(0.982352 -0.0115726 6.22279e-22)
(0.978535 0.00328994 -1.25672e-22)
(0.979963 0.00100551 0)
(1.01478 -0.00264607 1.14668e-21)
(0.86453 0.122814 1.39415e-21)
(0.881633 0.175924 1.90124e-20)
(1.01453 -0.000221404 2.07891e-22)
(1.01449 -0.000185498 -7.82514e-22)
(1.01455 -0.000162565 -8.47145e-22)
(1.02166 -0.00828054 0)
(1.01312 -0.0015888 -1.89852e-21)
(1.01293 -0.00154879 -1.03088e-21)
(1.01263 0.0036825 0)
(1.01301 0.00392894 2.29645e-23)
(1.01268 0.00421236 -1.26984e-23)
(1.01057 0.000214963 0)
(1.00801 9.50002e-05 0)
(1.01038 0.000251929 4.41659e-22)
(1.01608 0.00062226 2.27222e-22)
(1.0152 0.000516788 -7.33423e-22)
(1.0183 -0.000893995 8.87304e-22)
(1.01859 -0.000862787 -1.86386e-22)
(1.02213 -0.00913309 4.15682e-22)
(1.02186 -0.00856891 1.88073e-21)
(1.04784 -0.00377611 -1.82699e-21)
(1.04589 -0.00331215 -1.40004e-21)
(1.0467 -0.00486181 6.03077e-22)
(1.01053 -6.47373e-05 -4.08055e-22)
(1.01034 7.2275e-07 -3.0873e-22)
(1.01081 -3.15635e-05 2.95197e-22)
(1.01972 -0.000247991 -4.61329e-23)
(1.02012 -0.000281944 4.56518e-23)
(1.01702 0.000737827 -1.07244e-21)
(0.974863 0.0727991 2.15645e-21)
(0.984062 0.0626668 4.74109e-21)
(1.01241 -0.00851157 -2.29853e-21)
(1.01194 -0.00820646 -2.41519e-21)
(1.01238 -0.00788674 -9.27577e-22)
(1.00652 -7.66742e-05 4.31252e-22)
(1.01131 4.2024e-06 -3.91352e-24)
(1.00948 0.000117867 -1.72906e-22)
(1.0104 3.00315e-05 -5.05996e-23)
(1.00972 -0.00219536 0)
(1.00969 -0.00278118 1.16617e-22)
(1.03013 -0.00600895 -1.79033e-21)
(1.03033 -0.00671859 8.7792e-22)
(1.02952 -0.00649354 -2.53605e-21)
(1.05004 -0.00419634 -1.84224e-21)
(1.04883 -0.00222916 7.11798e-22)
(1.01427 -0.000481125 -4.67196e-22)
(1.01432 -0.000551388 4.5517e-22)
(1.01436 -0.000487162 -5.94298e-22)
(0.915432 -0.33479 -1.03559e-20)
(0.919108 -0.318457 -3.19048e-21)
(0.903663 -0.328465 2.5092e-20)
(1.02384 0.00410995 0)
(0.970849 -0.0395482 -2.19216e-21)
(0.987518 -0.029033 7.66761e-22)
(0.989464 -0.0158526 -8.28963e-22)
(0.932827 0.10504 -2.742e-21)
(0.91393 0.120482 1.24807e-21)
(0.907473 0.114487 8.50393e-22)
(1.00884 0.000207665 -5.13699e-22)
(1.01117 0.000333307 -5.09986e-22)
(1.00938 0.000200907 0)
(1.00997 0.000142355 0)
(1.01084 0.000175503 0)
(1.02228 -0.00508111 0)
(1.02256 -0.00486888 0)
(1.02289 -0.00541851 0)
(1.04104 -0.0352042 0)
(1.04493 -0.0336949 0)
(1.04287 -0.0140917 1.37019e-21)
(1.04343 -0.0125148 1.77714e-21)
(1.04156 -0.013139 2.56899e-22)
(1.01308 -0.00169028 -2.90324e-22)
(1.0129 -0.00172195 1.88128e-21)
(1.01303 -0.0017801 -3.14218e-23)
(0.95471 -0.0438347 -3.73089e-21)
(0.945335 -0.0645099 -2.99522e-21)
(1.0142 -0.000187379 -1.85737e-21)
(1.01388 -0.000230777 9.28324e-22)
(1.01431 -4.89499e-05 0)
(1.02198 -0.00521431 -1.59355e-22)
(1.02178 -0.00470356 1.38095e-22)
(1.04231 -0.0157839 -9.43397e-22)
(1.04449 -0.0153142 2.2412e-22)
(1.02035 -0.0101513 1.42995e-21)
(1.02098 -0.0104021 0)
(1.02048 -0.0108081 1.54921e-21)
(1.02212 -0.00611103 2.99529e-21)
(1.02169 -0.00585892 -1.33666e-21)
(1.02218 -0.00571496 8.13402e-22)
(1.00671 0.00267299 -2.08408e-22)
(1.00659 0.00189413 7.07785e-23)
(1.01873 -0.0419129 4.28908e-22)
(1.01211 -0.00186926 5.14848e-22)
(1.01215 -0.00187395 0)
(1.01213 -0.00182072 -1.34137e-21)
(1.04325 -0.0265087 -1.05971e-21)
(1.04088 -0.025274 -9.80925e-22)
(1.04347 -0.0239393 0)
(1.03446 -0.00303376 -7.82074e-22)
(1.03387 -0.00254896 1.25917e-21)
(1.01193 -0.00176622 -6.48687e-22)
(1.01198 -0.00180262 -1.31254e-21)
(1.01192 -0.00173493 -6.57132e-22)
(0.975671 -0.0108355 1.07523e-21)
(1.08108 -0.320546 2.41264e-21)
(1.11384 -0.300587 2.73206e-20)
(1.07368 -0.291843 -7.00935e-21)
(0.97729 -0.00124233 5.99314e-23)
(0.979251 -0.00614701 -2.92564e-21)
(1.01102 0.00480592 -1.71822e-22)
(1.01101 0.00413048 -9.22016e-24)
(0.90787 -0.335444 -9.2988e-21)
(0.95092 -0.330308 7.17115e-22)
(1.03054 -0.00748549 9.64562e-22)
(1.0307 -0.00829606 -4.92167e-23)
(1.02982 -0.00800595 -1.1134e-21)
(0.724057 -0.00301335 -9.29382e-21)
(0.76367 -0.0109333 1.29332e-20)
(1.12913 0.0547565 -2.87985e-21)
(1.12898 0.0707448 -5.37708e-21)
(1.01705 -0.00332248 0)
(1.01705 -0.00318862 0)
(1.01693 -0.00317639 -1.87064e-22)
(1.03462 0.00234502 -1.33515e-22)
(1.03493 0.0022892 -1.31393e-22)
(1.12883 0.0376393 4.42425e-23)
(1.0086 -1.34122e-05 0)
(1.00879 -0.000625415 -9.82076e-22)
(1.01071 -0.00419349 1.31728e-22)
(1.01047 -0.00405635 -2.19561e-23)
(0.980132 0.036209 0)
(0.983244 0.0281452 4.87738e-21)
(0.974088 0.0310727 0)
(1.01084 0.00015308 -1.85784e-21)
(1.01085 0.000144693 -1.2763e-22)
(1.01083 0.00027905 -1.2708e-21)
(1.00979 -0.000188823 8.34765e-24)
(1.01097 -0.000445153 1.42656e-21)
(1.0225 0.00101113 -6.80524e-22)
(1.0225 0.000723652 -6.24819e-23)
(1.01607 -0.000235036 2.53308e-23)
(1.01621 -0.000210764 2.21161e-23)
(1.01472 -0.000135746 -2.59563e-22)
(1.01286 0.0125704 -3.24771e-22)
(1.01258 0.0117135 -2.20975e-22)
(1.24707 -0.166376 0)
(1.21236 -0.153539 0)
(1.24825 -0.131713 4.66782e-21)
(1.01421 -0.00323665 -2.90228e-22)
(1.01437 -0.00339735 -8.05465e-23)
(1.01188 -0.00172617 0)
(1.01194 -0.00181 -6.78824e-22)
(0.907613 -0.345577 -1.80742e-20)
(1.00769 0.000433341 7.46517e-22)
(1.00805 0.000898241 -1.14621e-21)
(1.01727 -0.00499715 3.79757e-22)
(1.01743 -0.00471373 -4.15287e-22)
(1.01107 0.00545583 -4.74795e-22)
(1.02813 -0.012489 1.09805e-21)
(1.0291 -0.013082 1.55881e-21)
(1.02899 -0.012065 2.66858e-21)
(1.01082 0.000135072 1.52991e-22)
(1.28232 -0.18956 -3.19921e-21)
(1.02992 -0.00535443 -1.04858e-21)
(1.0297 -0.00472253 8.90223e-22)
(1.02914 -0.00515785 -9.94534e-23)
(1.01957 -0.00255334 4.46532e-22)
(1.01974 -0.00273063 7.33272e-22)
(1.01941 -0.00280358 1.34668e-21)
(1.01978 -0.00840452 5.99777e-23)
(1.02 -0.00893176 -1.223e-21)
(1.01942 -0.00869243 6.96671e-22)
(1.00727 -7.463e-05 -9.14336e-22)
(1.00281 -0.0555965 -1.43238e-21)
(0.99823 -0.0322076 -7.29697e-22)
(0.988201 -0.0666737 5.44047e-22)
(1.02451 -0.00239727 -1.30294e-21)
(1.02412 -0.00273371 1.60923e-22)
(0.994441 -0.0377166 1.77748e-23)
(0.997536 -0.0342137 -1.74481e-22)
(0.992625 -0.0326089 -7.5835e-22)
(1.01357 0.00330687 -8.17022e-24)
(1.03689 0.0260429 4.95352e-22)
(1.03613 0.0227846 -9.86519e-22)
(1.03969 0.0245467 -1.04402e-21)
(1.01004 0.423162 0)
(0.936017 0.458811 0)
(0.918589 -0.0389012 3.50354e-21)
(0.929862 -0.0269768 9.44427e-22)
(1.0375 0.0300486 -1.59851e-21)
(1.03301 0.0277162 2.54392e-21)
(1.02724 -0.0116925 -1.04059e-21)
(1.02712 -0.0126804 -2.77436e-22)
(1.01095 -0.00414864 5.80388e-22)
(1.01071 -0.00347639 -1.39002e-21)
(1.0104 -0.00389508 -1.15611e-21)
(1.1466 -0.296607 7.67734e-21)
(1.17224 -0.336472 -1.90571e-20)
(1.01294 3.71048e-05 3.24024e-22)
(1.01464 0.000410895 5.35995e-22)
(0.897758 0.00580942 -3.50185e-21)
(0.911582 0.00742516 -4.43423e-22)
(1.00722 0.0028819 1.8236e-22)
(1.00687 0.00340048 0)
(1.01412 -0.000349163 -2.40535e-22)
(1.01464 -0.000436432 1.52472e-22)
(0.95186 0.0834601 -8.71446e-22)
(0.957509 0.0948854 -8.64506e-22)
(1.01072 -0.00438502 0)
(1.01089 -0.0043233 1.15029e-21)
(1.04525 -0.330963 -2.18681e-20)
(1.08782 -0.358502 1.29651e-20)
(1.01936 -0.0023658 -3.05103e-21)
(1.01973 -0.00232244 -1.98149e-23)
(1.00991 0.00171381 2.88743e-21)
(1.00987 -0.00322386 -4.42233e-21)
(0.783281 -0.0708783 -8.28777e-22)
(0.755424 -0.0811319 6.70359e-21)
(1.01075 -0.00215485 -1.221e-24)
(1.01069 -0.00176495 9.65786e-22)
(1.01097 -0.00184894 -1.11096e-21)
(1.01346 -0.00266325 3.39777e-22)
(1.01331 -0.00256854 -7.78819e-22)
(1.0134 -0.00252157 1.55649e-21)
(0.960689 0.0836991 -6.23562e-21)