/*--------------------------------*- C++ -*----------------------------------*\
| =========                 |                                                 |
| \\      /  F ield         | OpenFOAM: The Open Source CFD Toolbox           |
|  \\    /   O peration     | Version:  v2012                                 |
|   \\  /    A nd           | Website:  www.openfoam.com                      |
|    \\/     M anipulation  |                                                 |
\*---------------------------------------------------------------------------*/
FoamFile
{
    version     2.0;
    format      ascii;
    class       surfaceScalarField;
    location    "150";
    object      meshPhiCN_0;
}
// * * * * * * * * * * * * * * * * * * * * * * * * * * * * * * * * * * * * * //

dimensions      [0 3 -1 0 0 0 0];
oriented        oriented;


internalField   nonuniform List<scalar> 
14516
(
0.00032415
0.000984995
-0.0012539
1.12303e-07
1.54136e-05
-1.00768e-05
-0.00107969
0.00146626
-0.000331485
0.000553972
-0.000104918
-0.00232155
0.00165615
0.000704812
0.00212679
-0.00026655
-0.00183175
-0.000211082
2.88642e-05
0.000406367
0.00289219
-0.00262819
-0.00023762
-0.00248216
-0.000252564
0.00270316
-0.000953482
-0.00132211
-0.00118299
0.00150923
-0.000303851
-0.00192838
0.000144683
0.00179884
-0.000361924
5.13135e-05
2.6032e-05
0.000390102
-0.0004277
0.000202483
0.000141252
0.000409476
8.97784e-06
-0.0004158
0.00168729
-0.000598161
-0.00113541
0.000588765
0.00114238
-0.0018302
0.000183032
0.00167701
0.000424255
0.000156886
0.00172016
-0.00186715
-0.000143284
0.00112512
-0.001039
-0.00134386
0.000454513
0.000901787
3.26265e-05
-3.26265e-05
-0.00292561
0.000392061
0.00258726
-0.000271847
-8.66663e-05
-0.000380105
-3.32082e-06
0.000394122
4.67023e-05
0.0014843
-0.00156351
0.00139066
-0.000463714
-0.000890617
-0.00273907
0.000195422
-0.00180342
0.00217715
-0.000336996
-0.000260599
-0.00105293
-0.00219852
0.000471325
0.00179967
7.68628e-05
6.67821e-05
-0.000106866
-0.000505409
0.00154756
-0.0010234
-0.00200486
0.000221174
0.0018043
-2.48482e-06
-0.000114619
0.0010808
-0.00128159
-0.00278352
0.00217676
0.00072002
-3.23189e-06
-3.48523e-05
-2.07864e-05
-0.00229774
0.000526575
0.000675417
-0.000138184
-0.00022782
0.000350239
-6.83521e-05
3.17993e-05
-0.000208667
0.000329793
-0.000339316
0.000142747
6.82239e-05
0.000894617
-9.49623e-05
0.00103395
-0.000932802
0.000319198
0.00207402
-0.0024174
0.000206928
0.000511161
0.00071144
0.000857016
-2.22554e-05
0.00118158
-0.00114878
-0.00210405
0.000513372
0.00158396
0.00215324
-0.00219876
8.34042e-05
-0.000176576
0.00111555
-0.00092338
-0.00207673
0.00218387
-6.48021e-05
0.00242319
-0.0025579
0.00182072
-0.000470819
-0.0013332
-0.00234105
-8.35693e-05
0.00248845
-0.00188157
-0.000926405
-9.23287e-07
-7.97724e-05
9.72223e-05
-0.00169002
0.000277304
0.00139818
-0.00191944
0.00218343
-0.000264102
-0.000424896
0.00115291
-0.00046382
-0.00125587
-0.000677314
0.000273757
0.00197005
-0.00224389
-0.00238739
0.000488153
0.00210049
-0.00235269
0.000242014
-0.000255852
-0.00164716
9.23909e-05
-0.00126378
0.00112913
-0.00128958
1.3146e-05
1.17777e-13
-1.55113e-05
-0.00264931
0.000450067
0.00207955
-4.13377e-05
2.90022e-05
4.79015e-06
-0.000325222
0.00106117
5.02769e-05
-0.00232723
0.000316169
0.00225441
-0.0025545
-5.4948e-05
2.87151e-09
6.29849e-05
0.00190011
-0.000477237
-0.0014691
0.0022472
-0.00072603
-0.00155536
0.00194664
-0.00166694
0.00220005
-0.000510169
-0.00167272
-2.49034e-05
-3.40724e-07
2.59915e-05
1.07695e-05
0.000895405
-0.000892296
-0.00210159
-0.000168909
-7.0154e-05
0.000973408
-0.000881665
0.0015292
0.000655669
-5.22004e-06
0.00224547
-0.00224462
0.00155538
-0.00160225
7.28594e-05
-0.00243257
0.000559028
0.00192725
-2.52657e-06
7.45031e-06
0.000163445
0.0014051
-0.00155812
-0.000663158
0.000539772
0.000139099
-0.00134809
0.00111484
-0.00014771
0.000911947
-0.000887225
-0.00211257
4.5246e-05
-1.77804e-05
-8.4429e-07
-0.000181363
-0.000447176
-0.000146237
0.000634176
-0.000466558
0.00056106
-0.000681167
-0.00220678
0.000404582
0.00184463
-0.000639804
0.00014212
0.000557703
-0.000451232
-0.000130042
-3.4448e-05
-2.62137e-06
-0.00226369
0.000158815
-0.00186674
0.000251802
-0.000198062
3.06086e-06
0.000241432
-0.00173678
-0.000330149
0.000172549
0.000783524
-0.000971534
5.04952e-08
1.16974e-05
-7.84433e-05
-0.00198633
0.00204899
-0.0027064
0.00246612
0.000495718
-0.00248209
0.00204456
-0.00112352
0.00111143
0.00276569
-0.000311423
0.00198121
-0.00160646
0.000692053
-0.000990565
0.000386127
0.00183429
-0.00107372
-0.000213794
-0.000682376
0.00084006
-7.91545e-06
1.85926e-06
1.91245e-06
-0.00141651
0.00159897
-5.14511e-05
7.29535e-05
0.0020701
7.57604e-05
0.00141418
-0.0014842
0.00199631
-0.0018299
0.00165749
-0.000397025
-0.00123774
-0.000911603
0.000862735
0.000299056
0.00157246
0.00238482
-0.000593649
-0.00182959
4.84801e-07
9.08686e-06
-5.90139e-06
0.00224485
0.00116055
0.00116781
0.000216789
0.00193746
-0.00215621
-0.00216495
-0.00058389
-9.36093e-05
0.00226272
-0.00216093
-0.000540114
0.000299572
-0.000203609
0.000377701
-0.000253096
-0.00212899
3.41097e-05
-2.4224e-05
-8.48556e-07
-7.92507e-06
-0.00132737
-0.00306857
0.000298576
0.00280762
-4.52227e-05
0.000888698
-0.000685094
0.000133246
-0.000606128
0.000458781
0.000391017
-1.56314e-05
-2.79216e-05
-0.000368227
0.000398878
1.74839e-07
8.59176e-06
2.5852e-06
-0.000596046
0.000715202
-0.000694798
0.000203429
0.000539923
-0.00122915
0.00140179
-0.00145885
-0.000333228
0.00181613
3.65808e-06
7.23754e-07
-0.00185251
0.000429953
0.000699553
-0.00160346
-0.000180754
-0.000461163
-6.21169e-06
-4.55781e-06
-1.19184e-05
0.000122749
-9.30274e-05
-0.000419613
-0.00261445
0.000160085
-0.000741969
0.000893915
-0.000807369
0.00200379
0.000853428
-0.00127287
0.00129008
-2.74644e-05
-0.000364888
0.000387041
0.00035415
-0.00219432
0.00184765
-3.24165e-06
6.22713e-06
1.11404e-05
0.00208611
-0.000320222
0.000885001
0.00100204
-0.000919304
-8.17372e-05
-0.000401391
2.64677e-05
-0.00035513
0.00219657
-0.00183278
0.00372862
-0.00100386
-0.002568
-0.00149587
0.00298762
-0.0014706
1.24909e-05
1.1762e-05
0.00114992
-0.0026042
0.000162218
0.00126764
-0.00144151
-0.00147019
0.00215999
6.02533e-05
-4.32825e-05
-8.59576e-06
-0.000382861
0.00177036
-0.00138767
-0.00145849
0.000646441
0.000805709
-0.00176542
0.00132815
0.00044168
0.00218404
-0.00204531
-0.000147441
0.000734276
-0.00259446
-0.00234902
-5.03618e-05
0.00246389
-0.00271867
-1.73352e-06
0.000397868
0.00145009
0.00137249
-0.00175367
3.24904e-05
-0.00142857
0.00152978
0.000367805
-0.000400542
0.00154498
-0.00139279
-0.000602398
7.30792e-06
0.000639269
-0.00214295
0.00243435
0.00193798
-0.00203055
-0.000313014
-0.000373772
-0.00110264
0.00218783
-0.000544171
-0.00162061
0.000210791
0.00184236
-0.00203278
0.0018534
-0.00110045
1.38365e-06
4.70917e-05
-0.00257477
0.000404376
0.000686038
0.00127662
-0.00194438
3.71308e-06
0.00223854
0.0022178
-0.00172154
-0.000511546
0.000157104
0.00213223
-2.89382e-05
-4.71409e-07
8.25665e-05
-1.57438e-05
-0.000423413
0.000426224
-0.00208469
-0.000214383
0.00123797
2.9375e-05
-0.00133444
-5.18147e-05
-0.000812142
0.0008799
0.000157096
-0.00234503
-0.000234299
0.00230552
0.0015718
0.000562484
0.000982314
0.00121608
0.000127158
-0.000121177
0.000282906
0.00188895
-0.00219194
0.000137038
-0.00243631
-2.82238e-05
2.13108e-06
-0.00223858
0.00214875
0.000121986
7.44397e-05
-0.00114238
0.00114571
0.000870392
0.00177415
-0.00264305
0.00134966
-2.48336e-06
-0.00052367
3.59229e-05
0.00086992
-0.00149908
0.00194699
-0.00218375
0.000627
-0.000435222
-0.000160308
-0.000922073
0.00106504
-0.000120301
0.00115907
-0.00103061
1.49512e-05
1.52663e-05
-1.0715e-05
-1.5881e-05
0.000570606
0.00158703
2.45542e-05
-2.76539e-05
2.50265e-05
0.00158361
-0.000315959
-0.00125919
-0.00203071
-0.000189884
0.00194873
-0.00173741
-1.97212e-05
-0.00228613
0.00236953
5.80437e-05
-6.55003e-05
-0.0020346
-0.000509532
-0.00175366
0.00231854
-0.00231737
0.000174004
-2.49208e-05
0.000411793
-0.000392744
-1.5492e-05
-0.00241377
0.00256265
-0.00201084
-0.000174316
0.00215703
4.42715e-06
-0.00209035
0.00067727
-0.000423653
-6.64807e-06
-0.00262298
-0.00305476
0.00268625
0.000531496
0.000166218
-6.55203e-05
-0.000208089
-0.0013025
0.00151988
0.00114583
-0.000139262
-0.00101087
9.78434e-05
-0.00121233
-0.000254922
0.00155413
-0.00129007
0.00207156
-0.00211293
0.000214412
5.40107e-05
-0.00121017
0.00111778
0.00305084
-0.00248991
-0.000463921
0.000303484
0.000834067
0.000156894
0.00201316
-0.00211765
8.4585e-05
0.000433241
-0.000541509
-0.000665872
-0.000208392
0.000872475
-9.13181e-05
0.00116007
-0.00105422
-5.97235e-06
1.07403e-05
1.40708e-06
0.000223019
0.000782115
-2.19193e-05
2.19555e-05
-1.8429e-06
4.26885e-06
-3.47458e-05
0.00074988
-0.000786903
-0.000651184
0.00194171
0.00154293
0.000325113
-0.00178163
0.000440768
-0.000374252
3.5331e-05
0.00028991
-0.000285442
0.00117861
-0.000317214
-0.000842713
0.000319233
0.002063
-0.00240238
-1.04914e-06
2.71233e-06
-9.05943e-06
2.56364e-06
-8.96008e-06
0.00154745
-8.77183e-05
0.00200963
1.69781e-05
-0.000206387
0.000250239
0.00141379
-0.000226061
-0.00276194
1.91714e-05
-6.20042e-05
3.80273e-05
0.000234165
-0.000316556
0.000187622
-2.44479e-05
-2.50827e-05
-0.00102672
0.00189453
0.00135743
-0.00155325
0.00119338
-0.000507693
-0.000682949
-3.69443e-05
-0.000804839
0.00104754
-0.00204877
0.00222999
0.00195674
0.00139219
-0.00165001
-0.000248102
0.00198563
-0.00162004
-0.000115818
1.91954e-05
-1.00484e-05
1.52222e-06
-0.00183922
0.0020588
-0.00010287
0.00153102
-0.00144118
0.000547008
0.000630123
-0.000138984
0.000151885
-7.2414e-06
0.00136284
0.000687571
-0.00199837
0.000489655
0.00099922
0.00122563
-0.00225679
-0.00172626
-0.000125542
0.00179524
-0.000190589
3.28373e-05
-0.000290956
8.66596e-06
0.000404452
-0.000177319
-0.000362394
0.000520133
0.000386543
0.000803834
0.000538597
0.000305156
-0.00085496
0.00233322
-0.00224555
-3.27466e-05
-0.000814162
0.00179226
-5.57776e-06
0.000270482
-0.000253386
0.000352048
-0.000547674
-0.000266538
0.000792969
-0.0016343
7.80778e-05
0.00154633
0.00209961
-0.00169399
-0.000410952
-0.00201792
-0.000358229
-0.000864861
-0.00262997
0.00242812
0.00022233
0.0010335
-0.000881606
-0.000149621
0.00132875
-0.000135873
-0.00231778
0.00217156
0.000168667
-2.22937e-05
0.00224959
-0.00102001
-0.00122852
-9.05804e-07
2.76024e-05
-1.72488e-05
-1.38659e-05
-0.000680752
-0.00107825
-0.00014917
0.00151037
-0.0013866
0.00236029
-0.0023816
-0.000233427
0.000967847
0.000333998
-0.000365917
4.53539e-05
-0.00169564
0.00144978
-0.00110432
-0.00197887
-0.000220833
-0.00219519
-0.000182223
-0.000198927
-0.000723506
0.000938829
0.00305602
-0.00261718
-0.000452151
-0.000345389
0.000293437
-0.00175069
-0.000746136
8.00304e-06
3.19772e-05
-6.22626e-06
0.00162779
-0.000175079
0.00192978
-0.00115289
-0.000729558
-0.000569997
0.00189427
-0.00212558
-0.000140348
-0.000790612
0.00170252
-0.00215799
0.000384082
-0.00037272
2.92241e-06
-0.00138303
0.00152518
-0.000200972
0.00304836
0.00140396
0.00152155
-5.01967e-05
-0.00146327
-0.00129355
0.00165473
-0.000333531
-0.00171187
0.00169684
1.64411e-05
0.00215409
0.00318297
-0.000664714
-0.00256017
-0.000498459
-0.00168068
0.001369
-0.00144919
7.88001e-05
5.53648e-05
0.00133533
-0.000572495
-0.000727934
-0.000140026
0.0012861
0.00165641
-0.00123657
0.000632753
0.000743536
-0.00170032
0.000269987
0.00166598
-0.00219232
0.000580144
-0.00067448
0.00166353
-1.27139e-05
2.41914e-05
0.0002814
-0.000942529
-0.00233097
0.000336771
6.1207e-05
-1.49837e-05
0.000133154
-0.00191431
-0.00240394
0.000160498
0.0010463
0.00121057
-0.00156798
0.00028736
0.000388151
0.001209
-0.00127438
0.00151455
-0.000113731
0.00241427
-0.0023134
0.0024294
0.000163796
-0.00265143
0.00192821
0.00137914
-0.000187456
-0.00118541
2.31304e-05
-0.00105172
0.00107048
0.00228433
-0.000449026
-0.00187618
-0.000127508
-0.00229025
2.59809e-05
-0.000256725
-0.000165054
0.00147875
-0.00135992
-4.22387e-07
8.61379e-06
1.46599e-05
-8.56062e-05
-4.99317e-06
0.00039108
0.00179289
0.000149422
-0.00125539
0.00134859
0.00184982
-0.000994954
0.0015763
-0.000620669
-0.000108438
-0.00147618
-3.38281e-05
-0.000981788
0.00103047
-0.00168649
-0.00113263
0.00101848
-1.95244e-05
5.21136e-06
5.78035e-07
-2.08256e-05
-0.000451634
0.000528266
-0.00220775
0.00051534
0.00136332
-0.00142784
6.63077e-05
0.000919963
-0.000939275
-0.000425143
0.000394483
0.000286674
-0.0021339
0.00185938
0.0010001
0.000802365
-0.00178502
-0.000230129
0.000304877
0.00217252
-0.00162604
0.00251573
1.38924e-05
0.00117131
2.15347e-05
-0.000210249
-0.000829947
-4.36132e-05
0.000909309
0.00106324
-0.00168696
0.000355824
0.00101489
0.00189403
0.000405136
0.000978137
-0.000510424
-0.000235796
-0.00280729
0.00306994
0.00140684
0.00285364
-0.00306061
-0.000398778
-0.00189002
-0.000298189
0.000375748
-0.000402073
0.00151765
-0.00174271
0.000246477
-9.95556e-05
0.000159968
0.000676094
0.00140454
0.00100165
0.0024176
-0.00226415
-0.000213557
0.00229201
-0.00208637
0.00135474
-0.000389103
3.14368e-05
-0.000269629
0.000913822
-0.000668267
0.00145099
-0.000594807
0.00221587
-0.00156337
3.52633e-05
6.46805e-07
-2.56268e-05
0.000596876
-0.00123009
0.000649976
1.72174e-05
-0.000542709
0.00114188
0.00180015
-0.00215047
-0.000129763
0.00229577
-0.00218535
-2.64458e-05
-0.000230816
0.000243001
0.000146613
-0.000135123
0.000126195
0.000503179
-0.00154015
0.00235915
-0.00224511
-0.00192004
0.00215344
-0.00137111
0.00125107
-3.33853e-05
0.00213798
0.00161335
0.00129809
0.00231616
-0.00130097
0.00154647
0.000647768
-0.00140366
0.000145326
0.0012775
0.00227727
-0.00216432
0.00244074
-0.00176131
0.00101919
0.000938179
-0.000871295
0.0014974
-0.000621845
0.000766763
-0.00103914
3.28103e-05
-0.000821964
-8.58566e-08
0.00147202
-0.00170659
0.000248249
0.000115559
-0.000108248
-0.00286357
0.00266262
0.000293866
0.00149418
-0.00109341
0.00179464
-8.50355e-05
-0.00159896
0.00219921
-0.00131242
0.00148167
0.000776685
-0.000566168
-8.29226e-05
3.35736e-05
-5.09611e-06
-0.00217894
0.00226939
0.00137338
-0.00102996
0.00246304
-0.0022769
0.000631813
0.000219107
0.00121713
-0.000813089
7.33419e-07
-3.95676e-05
0.000164348
-6.24968e-05
-1.63451e-06
2.44614e-05
-2.56771e-05
-0.00209427
-0.00158044
0.000699737
0.00206044
-0.000255855
-0.00251252
-1.68902e-05
-0.00010867
0.000160965
0.000875867
0.000458973
-0.000241391
0.00229931
-0.00203352
-0.00104635
0.000353797
0.000781146
-0.000625339
-0.000675074
-0.000836016
0.00173638
-0.00191733
-0.00217897
-0.000212219
0.00137195
0.0018337
0.000391473
0.00212698
3.20902e-05
-2.85022e-05
-2.28385e-06
2.77225e-07
0.00122057
0.000192658
0.00207964
0.00109085
0.00112684
-0.000440013
0.000324045
0.000343746
-0.000434704
0.000332298
6.1157e-05
0.00210845
-0.000231688
0.00217383
0.00235894
-0.000149248
8.59176e-06
9.76741e-05
0.00108591
9.73761e-05
-1.62261e-05
-6.63056e-05
0.00237165
-0.00139885
0.000729713
0.000671265
0.000163995
-0.000585433
0.000437486
0.00178084
-0.00190717
0.00167418
-0.00219307
-0.00209776
9.7102e-05
0.00216323
-3.5974e-06
-0.00187003
0.00188276
-5.36847e-05
-0.00214482
0.00225873
0.00104448
0.000121989
-0.00130328
-2.86714e-05
0.00128943
-0.0010526
-0.000221653
0.00176953
-0.00169014
0.000733143
-0.000464861
0.000646759
-0.00157197
-0.00233537
0.000182531
-0.0014623
-0.000319964
0.00181905
-0.00267754
-7.86762e-05
0.00275094
0.00142126
-0.00130486
-0.00269055
0.00111367
0.00162669
-0.00168961
0.000276586
2.23217e-05
9.33835e-06
4.30497e-05
-0.000559599
-0.00202336
-1.71881e-05
0.00124762
-0.000568464
-0.000815744
0.00034915
-0.00268737
3.34619e-07
-0.00252244
0.00238832
0.000161486
0.00201661
-0.00213042
8.38855e-05
1.10209e-06
2.7073e-05
3.50059e-05
3.50266e-05
0.00199953
0.000171826
-0.00215627
0.00142587
0.000258047
-3.00007e-05
0.000365262
-0.00238742
0.00247098
-6.63764e-05
-6.80026e-05
0.00143733
-0.00143665
0.00134023
3.79343e-05
0.000126689
0.000803063
-0.000904026
-0.000224979
0.00162119
1.46474e-05
0.000798418
0.00235997
0.0020697
0.0016245
-0.00148449
-5.10707e-05
6.5866e-05
-0.00241243
0.000428913
-0.000937736
0.00225066
0.000176088
-0.0024483
-0.000389346
0.000106418
0.000713955
-0.00134014
8.81217e-06
-7.07072e-07
1.24684e-06
0.00236222
-0.000668421
-0.000255181
0.00214912
-0.000176622
0.00210073
-0.000238922
-0.00138456
0.00163319
0.000535509
0.00076546
-0.00189007
0.00189554
0.000913883
-0.000837966
0.000464097
-8.28701e-05
0.00120748
-0.00107208
-0.000125535
-0.0025752
0.000194748
0.00086231
-4.31506e-05
-0.000838188
0.00185289
-0.00163986
-0.000176824
-0.00220077
-0.000174387
0.00236047
5.33704e-06
-3.12795e-05
2.41225e-05
0.00082444
-0.000972359
0.000147146
-0.000103119
0.00041406
0.000186908
-0.000271306
0.00163954
-0.00029378
-0.00132963
-4.81914e-06
4.08778e-05
-2.38772e-05
5.20558e-05
-5.35905e-05
-2.8091e-06
0.00162565
-0.00160908
-3.09458e-05
0.000699228
0.000498951
-0.00124875
0.000979876
0.0017556
-0.00139212
0.00157289
-2.52657e-05
-0.00155589
-0.00142197
-9.96534e-05
-0.00159962
7.36241e-05
-0.00137814
0.00158822
-0.00102659
0.000600337
0.000536997
0.00172103
-0.000244256
-0.0021926
0.0013573
0.000848132
-0.000673494
-0.000181719
0.000224639
0.000700929
0.000523317
-0.00177242
0.00207367
-0.00123833
0.00153979
0.00022462
-0.00175339
0.00220608
-0.0023309
-0.000474335
0.000909952
0.00249957
-0.00186344
0.00109727
-0.000439357
0.00129275
-0.0013142
0.000119985
0.00207638
-0.001562
-0.000146995
0.00113545
-0.000836144
-0.00160993
-3.90105e-05
0.000891858
0.000572496
-0.00297978
0.000411968
0.00258108
0.00017817
-0.00175415
0.00157593
0.00175879
-0.000224496
-0.00120859
0.00144227
-0.000229962
-0.000283435
0.000487122
-1.12349e-05
0.00158463
1.0042e-05
0.00171009
-0.00174347
0.001971
0.000183815
-0.00206021
-0.000257298
0.00236318
-0.00207207
0.000504675
0.000366932
-0.000856848
1.07897e-05
-1.07897e-05
-0.000221251
0.000982218
-0.000446569
0.000186966
0.00114716
-0.00117028
-0.00127718
-1.40486e-05
0.00125613
-1.79289e-06
4.52658e-07
1.4529e-06
0.0019974
-0.00182038
0.000232707
-0.00024027
0.000116348
0.00193932
5.10159e-05
-0.00134978
0.00114204
0.00132258
0.000198315
0.00102592
-0.000201343
2.49072e-05
-0.00169999
-0.000227938
0.00194436
0.00129281
-0.00130368
0.00182093
-0.00152543
-0.000205177
2.18464e-05
3.21609e-06
-1.75302e-05
4.51245e-07
9.8229e-05
-2.80011e-06
3.8852e-05
-0.00228991
0.000154143
-0.00115314
0.001325
4.81839e-05
-3.91027e-05
0.000834996
-0.000865077
5.92874e-05
0.000366362
-0.000336336
0.00058239
0.000232459
0.00167062
-0.00154797
-6.74356e-05
0.000199315
-0.0024006
0.00194033
-0.000539661
-0.00139233
0.000198559
-0.000138634
-0.00141343
0.00112296
-0.000111282
5.99464e-05
-0.00215168
0.00177312
0.000413979
0.000445582
0.00120991
-0.00181117
0.00224431
-0.000699548
0.000456959
0.000442053
7.32163e-06
-1.06602e-05
0.000766422
-0.00122681
-0.00193321
0.00192126
0.000333505
0.00117748
-0.00148593
-0.000145461
-0.00158044
0.00170204
0.000455526
-0.00213293
-0.00179409
-0.000326195
-0.0011661
-0.000380209
0.00158272
0.0014774
-0.0016616
0.000191071
-0.00024894
0.00105326
-0.000764148
8.2344e-05
-1.00585e-05
-2.01029e-05
-2.29331e-07
0.00210747
-0.00139801
0.00133598
7.06918e-05
1.73776e-05
9.07344e-05
0.00134102
0.000539814
-0.00148392
0.0021217
-0.000447373
0.000807412
0.000148233
-0.00245455
0.00228734
-0.000772377
6.22622e-05
0.000714528
0.00120177
-0.00108103
-0.00186202
0.000198753
0.00126465
-0.000562751
-0.000718462
-0.00168706
0.0001311
-0.00156372
-0.000522973
0.000150478
-0.000806923
4.08244e-05
0.00123715
-0.00127392
4.43781e-05
-0.000180463
-0.00209972
-0.000244847
-0.0010617
-0.00125336
0.00137206
-0.000111681
0.00261104
-0.00250715
-0.000781038
0.000930585
0.000564771
-0.000779132
0.00163975
0.000120082
-0.00177004
9.37558e-05
-0.000848515
-0.00176108
0.00194632
-0.000153867
-5.07961e-05
0.000655143
-0.000597591
0.000597664
0.00125634
-0.00187122
-0.00136599
0.00145168
-8.17688e-05
-0.00116712
0.00239755
0.00191254
0.000244631
0.000211464
0.00139404
-0.00153726
0.000118945
-0.00017075
9.38217e-05
-0.000358431
0.0016289
-0.00130975
2.48486e-06
4.69941e-05
0.000140235
-1.06273e-05
2.1049e-05
0.0016521
-0.000186615
-0.00146667
-0.00173227
5.91616e-06
-0.000969043
0.000106092
0.000878182
-1.91748e-05
0.0020095
9.43002e-06
-0.00141164
-8.87911e-05
0.00227442
-0.00216555
3.12867e-05
-0.00151854
-0.00246085
0.000171512
0.000107876
-0.00146569
4.92311e-05
0.00136177
-0.0013984
-9.89503e-08
-3.83297e-05
-7.23486e-05
9.753e-05
-0.000850916
0.000738829
0.00116519
8.49013e-05
-0.0012294
0.000469461
-0.00202017
0.000421556
0.000830615
-0.00118342
-0.000674136
8.76067e-05
0.000580856
0.00128898
-0.000948636
-0.000305423
0.000823346
0.000199238
0.000875462
-0.000791095
-0.000961232
0.0015408
3.83323e-05
-0.00162376
9.68474e-07
-0.000108512
0.001559
4.06395e-05
0.000543345
-0.00108931
-0.000163003
0.0022039
-0.00197879
0.00192041
-0.00202266
-8.37484e-06
9.18834e-05
-7.37901e-05
0.000184769
0.00114155
0.000217294
-0.00245398
0.0016997
-6.43077e-06
-0.000373223
0.00204373
-0.000974802
-0.0011485
-0.000118649
0.000958164
6.42285e-06
0.0022457
7.23553e-05
-0.00217427
-0.000232843
-0.00187905
0.00201018
-0.000170427
-0.00232467
0.00248211
-0.00128162
0.00120459
0.000128205
1.69839e-05
2.55352e-05
-0.00143542
-0.000521482
0.00191373
0.00233421
-0.000589493
-0.00146013
-7.09319e-05
0.000595822
-0.000505468
0.000195037
0.00168815
3.33672e-05
0.00101289
-0.000993742
0.00247383
-0.0022762
0.00138266
-0.000195985
0.000458938
-0.000896684
0.0014371
0.00022731
0.00106
-0.000291986
-0.00056521
-0.000107606
-0.0018636
0.00177497
0.000103091
-0.00230957
-0.00107633
-0.000135452
0.00120506
0.00169695
-0.00185516
0.000151484
0.000670942
-1.5287e-05
2.60794e-05
-2.62589e-05
0.00140918
-0.00130777
0.00174463
-0.000264348
0.000802108
-0.000146639
-0.000591903
0.00213492
-0.00220422
-0.00192414
0.000443859
0.00231252
0.000262685
-0.0025983
0.00246851
-0.00140872
-0.00107611
0.000466843
0.00042995
-0.000903284
0.00116112
-0.00124851
7.9264e-05
-0.000150002
-0.00144723
0.00162549
-0.000108128
-0.00225979
0.00234096
-2.25314e-05
0.000197494
-0.000172251
0.000591527
4.74769e-05
-0.000613037
-0.000133744
-0.00143431
0.00159405
0.000656382
-0.00182227
9.47889e-05
0.00137428
-0.001516
6.25723e-05
0.000883787
0.00123138
-0.000439389
-0.000773338
-0.000356243
0.00117798
0.000649424
0.000606038
0.000556122
-0.00123115
0.000328871
-5.48553e-05
-0.00011418
-0.00131628
0.00137803
-0.00190739
2.94498e-05
0.00130728
-5.5336e-05
-0.00231266
6.25878e-08
-5.76843e-07
-9.86491e-05
0.000413755
0.000925384
-0.000839382
-1.13843e-05
0.00142722
2.54133e-05
-0.00131194
0.00142326
-0.00134728
0.00109769
0.000190096
-0.000172907
6.49924e-05
6.64654e-08
-6.23171e-06
5.14893e-05
8.81839e-05
-0.00102241
0.00098399
8.29653e-06
5.86768e-05
-6.76537e-05
0.000123454
0.00210641
-0.000251371
-0.000112702
0.00238803
-6.41013e-05
0.00060362
-0.000558209
0.0026313
-0.00213322
-0.000394604
0.000119922
-0.0019367
0.000674433
0.000173898
0.000805977
-0.000688845
-4.01413e-05
0.000105689
0.000950541
-0.0028528
-3.16416e-07
5.49282e-05
0.00198432
-0.00182614
-0.00163149
-5.58694e-05
-6.58239e-05
6.13829e-05
-0.00119601
0.0012057
-7.857e-05
-0.00056823
0.000531018
-0.000613703
0.00242403
-0.000116583
-7.25708e-05
-0.00126423
0.0013519
-0.000226302
-0.00232269
0.0025646
-0.00116935
0.00127461
0.000136837
-0.00123457
4.18145e-07
1.05258e-05
-1.81938e-06
2.64659e-05
-2.18163e-05
0.000742424
0.000107729
0.000908369
-0.000972102
-0.000942496
0.00108021
0.000156024
-0.00132895
0.00117678
-0.00148201
0.00100639
0.000409406
-7.22363e-05
0.000608044
-0.000550175
-0.000203249
0.00225925
-0.00205496
-0.00127204
0.000210412
0.00109346
7.54981e-06
-0.000198112
0.00162508
0.000239982
0.000515191
-0.00150395
0.000389876
-4.9727e-05
-0.000150661
-0.00125756
-6.8696e-06
8.09014e-05
-0.00252987
0.00259719
1.62621e-05
0.00131411
-0.00143403
0.00014398
0.000124572
4.70617e-05
-3.56607e-05
9.13262e-05
-9.2475e-05
-0.000635557
0.000755739
0.00110137
0.00185557
-0.00158894
0.00178546
-0.000177246
0.00114099
-1.20254e-05
2.36574e-05
-0.000112358
0.000923737
-0.0020248
0.00196052
7.25757e-05
6.68598e-05
8.12834e-05
0.000231674
-6.41487e-05
0.000582839
-0.000495288
-0.00154798
0.00130303
0.000291707
-1.19847e-05
1.34162e-05
0.000260481
-3.23852e-05
-2.23296e-06
-0.00135685
7.70691e-05
0.000523677
0.000631273
-0.000562581
0.000425508
-0.00193557
0.00147443
-0.00219175
0.0024974
-0.000268246
0.00128007
-8.76958e-05
0.0014959
-0.00168528
0.000191873
0.00159036
-0.0010226
0.000253997
0.000222138
-0.0021642
-0.000202892
9.70968e-05
0.000176397
-0.00212385
0.00120199
-0.00222011
0.000977893
7.78441e-05
-7.0734e-05
0.000807384
0.000448906
7.796e-05
-0.00154764
0.00147389
-0.001685
0.00136531
0.000300656
0.000147983
0.00177159
-1.78575e-05
0.000179242
-0.000151266
0.00126077
-0.00108783
-0.000130749
0.00160914
0.00140971
-0.000147404
0.00165464
-0.00148778
0.0021166
-0.000263788
0.00119187
-0.000702298
0.00013695
-0.00014436
-2.84615e-07
-3.5223e-06
-0.000141679
0.00128645
-0.00110181
-0.000144429
-0.00111119
0.00129808
5.34233e-05
-0.000867888
-0.000165529
0.000444047
-0.00037655
-5.48742e-05
-0.000699397
0.000608586
8.15171e-05
-0.000548395
-0.00162105
-2.52675e-05
0.000216789
-0.000188873
1.5881e-05
-8.46236e-07
-9.57322e-06
-4.29136e-05
-0.000339834
0.000393734
-0.00149132
0.001762
0.000405856
-0.00177235
-0.00123335
0.00113292
0.00173108
-0.000231254
0.000736617
0.000693403
0.00130551
0.000911631
-0.00222828
0.00117911
0.000156046
-0.00133018
0.00135742
0.000639087
0.00120895
-0.0010063
-0.000210039
-0.0012415
0.00140573
-0.0024136
0.00228144
-0.00184983
-0.000135704
-0.00180238
0.00152027
0.000933317
-7.32139e-05
0.000170449
0.00142876
0.00236813
9.51368e-05
-0.00253825
0.000204651
-0.000120788
0.000845213
-0.000710019
-0.000140264
-0.000129676
-0.00121743
-0.000176164
0.00140574
7.12416e-07
0.00139583
-0.00142634
0.00146211
-0.00068785
0.000101557
0.000159367
-0.00137171
0.000298293
0.000236863
-0.000552197
-0.000213899
-0.00203076
0.00234325
-8.30587e-05
0.00239894
-0.000569119
0.000526681
0.00168318
-0.00166564
-7.99666e-05
0.00148941
-0.00167906
-0.000177321
-0.00133606
0.00127732
-5.51379e-05
-0.00155056
0.00158302
-0.00128006
0.00124814
0.00253285
0.000277445
-0.00286803
-0.00132956
0.000115603
0.00122225
-6.9894e-05
0.000993443
-0.000896464
5.97815e-05
0.00087548
-0.000938304
0.00148635
-0.00167786
0.000969303
-3.62616e-06
0.00187395
-0.00173884
-0.000114551
-0.0017314
-0.000133037
0.00156403
-0.00169082
-0.000473331
0.00013085
0.00225947
-0.000609123
0.000565041
0.00142177
-0.00241978
0.00265989
0.000740562
0.00186233
-0.00208908
0.000203719
0.000255477
9.97584e-05
-0.00175019
0.00171811
9.91178e-05
-0.00140227
0.00194769
-0.00203405
0.000152588
0.00014342
-0.00141617
-0.000277195
-0.00133027
-8.38928e-06
0.00139823
-0.00200435
-0.000134344
0.000377727
-0.000823785
-0.00129101
4.41675e-05
0.000264404
0.000465811
0.000340859
-0.000782934
-0.000130955
-0.00122128
0.00138186
0.000707851
-8.41463e-05
-3.83273e-07
-1.11777e-05
9.20651e-06
0.00150785
-0.00132844
-0.000917727
0.000382914
0.00050998
-0.00150275
2.11903e-05
0.00155758
-0.00147581
-0.00286991
0.00268411
0.000170049
-0.00249903
-0.000193696
-0.00128446
8.46982e-05
4.74656e-05
0.00159593
0.000135003
-0.00177187
0.00135783
-0.000145899
-0.00120271
-0.000620709
-0.00139376
-0.00156315
-0.000109931
0.00209584
-0.00297464
0.000530074
0.0024223
-0.00207366
0.00189557
0.000205414
1.06269e-05
-3.89272e-06
-6.01287e-06
-0.0011885
0.00118079
0.000254199
-0.00255642
0.000124678
-0.00242693
8.76203e-05
0.00248819
-9.42706e-05
0.00154862
-0.00152068
-0.000299674
-4.08289e-05
-0.00150617
-8.42883e-05
0.0015882
-0.00201663
-0.000282143
0.002314
-0.00188267
8.10535e-05
0.00174082
0.000104166
0.000760994
0.000714231
0.000966406
-0.00275928
0.000984939
0.0022573
-0.00244151
0.000530557
0.00224484
-0.00224411
0.000134464
0.00223
-0.00195144
-0.00166235
0.00160574
-0.000620344
0.00202334
-6.34991e-05
0.000308258
0.00101588
-0.000526036
0.0025818
-0.000505318
-0.00208762
0.000159516
-0.00135682
8.87511e-05
-0.00175401
0.0016884
8.10057e-05
-1.79868e-05
-0.00106039
0.00112016
0.000114354
-0.00183813
0.00214767
-0.00226527
0.0024198
0.00247784
-0.00296377
0.00268567
0.000265255
-0.000183876
-0.00208293
0.00223991
0.000525293
0.00100895
5.37478e-05
0.00217707
-0.00227772
-0.00252685
0.00123269
-0.00101706
-6.42533e-05
-0.00185114
0.00192981
0.000562736
-0.000661357
0.000102998
0.00270069
-0.000251459
-0.00179092
0.000151853
-0.0018208
0.00198262
-0.00162275
9.75994e-05
-0.00219029
0.00215197
-8.60868e-05
0.000647211
-0.00180361
0.00186105
-0.00164888
0.00163272
3.63432e-05
-0.00218573
9.3104e-05
0.00145483
-8.09805e-05
0.000105989
-0.00176871
0.00200424
-0.000707793
-0.000119995
0.000234834
-0.00258651
0.000110978
-0.00184788
0.000101512
-0.00131431
0.0012868
-1.70037e-05
8.7543e-05
-5.47599e-05
-0.00154587
0.001515
9.50418e-05
2.09963e-05
-0.000354088
0.00029602
0.00177628
-0.00205862
-6.30869e-05
-0.00118913
-9.89067e-06
-0.00145373
-0.00189324
-0.000129848
-0.00272906
9.92196e-05
-0.000191522
-0.00122796
9.94253e-05
-0.00191735
3.49086e-05
-0.00173831
0.00136768
-0.00125608
-0.00123924
0.00126986
-0.00104651
0.000639675
0.000132067
-0.00170972
-0.000868636
0.000764926
-5.68606e-05
-0.00128333
0.00135587
0.00244726
-0.000116915
4.20339e-05
-3.14089e-06
-3.09857e-05
0.00131849
0.000101525
9.24649e-05
-0.00100303
-4.78553e-05
-0.000141964
-0.00109885
0.000259586
0.000702873
-0.00119727
3.66964e-05
0.00114032
8.77076e-05
-0.00162731
0.0012058
0.000148763
-0.00133509
-0.000319818
0.00208963
0.00134279
-0.000150161
0.00234549
-0.00273758
0.000266845
0.002502
0.000224139
-0.00183003
0.00163279
-0.000147742
0.00137886
0.000777034
-0.000860972
0.000100959
-4.36216e-06
4.52634e-05
-3.20008e-05
0.00144606
2.37582e-06
3.278e-05
-3.89081e-05
-1.92107e-06
2.74993e-05
-2.30621e-05
0.0013468
-0.00138843
0.000151672
-0.00171509
0.00186742
-0.000131041
0.00115952
2.26646e-05
-2.34518e-05
-0.000166808
-0.00226116
0.00243069
3.66228e-05
-5.29708e-05
-1.62873e-06
0.00114166
0.0013326
-0.0017527
0.00146852
5.0674e-05
0.0018829
0.00268744
-0.00257232
-0.000154211
2.29707e-05
0.000117385
-0.00256606
0.0024574
-0.000123385