/*--------------------------------*- C++ -*----------------------------------*\
| =========                 |                                                 |
| \\      /  F ield         | OpenFOAM: The Open Source CFD Toolbox           |
|  \\    /   O peration     | Version:  v2012                                 |
|   \\  /    A nd           | Website:  www.openfoam.com                      |
|    \\/     M anipulation  |                                                 |
\*---------------------------------------------------------------------------*/
FoamFile
{
    version     2.0;
    format      ascii;
    class       surfaceScalarField;
    location    "150";
    object      phi;
}
// * * * * * * * * * * * * * * * * * * * * * * * * * * * * * * * * * * * * * //

dimensions      [0 3 -1 0 0 0 0];
oriented        oriented;


internalField   nonuniform List<scalar> 
14516
(
0.373666
-0.300836
-0.0727784
-0.777767
0.33407
0.443701
0.278751
0.0949734
0.43393
0.00905351
-0.443176
0.149304
0.0245396
-0.1738
0.273531
-0.52521
0.251648
0.388887
-0.644768
0.255818
0.147461
0.41323
-0.560835
0.388691
-0.379134
-0.00963374
0.194538
-0.0451858
0.238702
-0.000982937
-0.237692
0.179262
-0.382802
0.203546
-0.163769
0.597346
0.618289
-0.382338
-0.235995
0.61345
-0.613363
-0.411502
0.660813
-0.249343
0.136179
-0.530192
0.393891
0.559311
-0.423161
0.253202
-0.341163
0.0879916
0.206742
0.444031
-0.232063
-0.211965
0.412187
-0.205327
-0.20693
0.201491
-0.504155
0.302658
-0.307237
-0.299809
0.338076
-0.550179
0.212075
0.459346
-0.623503
0.415515
-0.668454
0.252916
0.675845
-0.446277
-0.229678
0.0575876
-0.219913
0.162363
-0.0323705
0.420952
0.343982
0.00717822
-0.35115
0.569526
-0.368037
-0.221284
0.50864
-0.287294
-0.592464
0.599538
-0.00712875
-0.249664
0.0554557
0.19423
0.188173
-0.445246
0.25709
0.567827
-0.17908
0.240355
0.171761
0.217563
0.330949
-0.548543
0.684551
-0.358354
-0.326388
-0.0656775
0.409657
0.0811219
0.53241
-0.560716
0.0362005
0.524195
0.674724
-0.366379
-0.308467
0.0342419
-0.595391
0.495224
-0.192065
-0.601886
0.276875
0.324999
0.393751
-0.259975
-0.133813
-0.406268
0.415208
0.247823
-0.192345
0.268873
-0.157317
-0.11154
-0.210156
0.460358
-0.25025
-0.209615
-0.185254
0.394844
0.341874
-0.16657
-0.175286
-0.222719
-0.183727
0.406484
0.308752
0.199648
0.106323
-0.216653
0.110352
0.220069
-0.373097
0.153086
-0.277478
0.494899
-0.667452
0.442859
0.224485
-0.261567
0.469065
-0.20755
0.304304
0.0139307
-0.318243
-0.574049
0.0940453
0.479748
-0.0557208
0.15103
-0.51363
0.223125
0.290488
-0.0743877
0.378701
-0.247342
-0.0966804
0.344002
0.372541
-0.193264
0.284903
-0.0461828
0.158807
0.183086
-0.49476
0.604511
-0.109755
0.292809
-0.535344
0.242285
0.187159
0.381171
-0.568339
0.378118
-0.13027
0.393177
-0.173052
-0.583082
0.295508
0.287459
-0.507469
0.608615
-0.101138
0.231785
-0.588996
0.357109
0.218164
-0.571043
0.352768
-0.259249
-0.25439
0.252905
-0.600436
0.347477
-0.325067
0.549372
-0.224304
-0.711802
0.348136
0.363651
0.359272
-0.42496
-0.627573
0.313164
0.314408
-0.364032
0.582064
-0.532896
0.291194
0.241581
-0.17379
-0.331863
0.505628
-0.286795
0.613964
-0.32719
-0.435434
-0.342328
-0.141561
0.0746748
0.0669002
-0.191319
-0.344938
0.536221
0.283895
0.285626
-0.435409
-0.320408
-0.39141
0.177657
-0.400369
0.268656
-0.593716
-0.531753
0.340414
0.722319
-0.288416
-0.43393
0.400855
0.321435
-0.290293
0.614235
-0.323982
-0.195853
0.535483
-0.339646
0.34247
-0.538343
0.14363
-0.651085
-0.0781114
0.437345
0.0268169
-0.358732
0.434629
-0.641103
0.206356
0.268956
-0.479126
-0.59986
0.365121
0.234712
-0.539036
0.0442706
-0.439045
0.231787
0.207237
0.244605
0.215184
-0.401931
0.114152
0.287834
0.14049
0.128399
-0.27443
-0.480539
0.159798
0.320794
0.208575
0.16957
0.574065
-0.32121
-0.277383
0.561302
-0.41536
-0.184526
0.0425016
0.440821
-0.48333
0.291215
0.223628
-0.514872
0.434657
-0.161164
-0.454447
0.233258
0.22117
0.219282
0.224753
0.0878961
-0.230793
0.142924
-0.310597
-0.316977
0.570293
-0.338596
0.091096
-0.426335
0.335033
-0.701744
0.484004
0.217734
-0.237502
0.387148
-0.296227
0.601521
-0.425966
-0.175633
0.354465
-0.386903
-0.524067
0.236606
0.287359
-0.00111338
-0.573257
0.441308
0.233292
0.523458
-0.278781
0.389853
0.227693
-0.617572
0.48546
-0.194315
0.307476
-0.510372
0.202849
0.681559
-0.302281
-0.379427
-0.698064
0.290462
0.407548
0.271685
-0.654071
-0.608358
0.369971
0.238357
-0.657004
0.362186
0.294827
-0.383714
-0.314411
-0.171307
0.518016
-0.346727
-0.115116
-0.0264321
-0.127159
0.231995
-0.104808
-0.352783
-0.348966
0.0896954
-0.216816
0.188506
0.00608227
-0.505664
0.334339
-0.374235
0.416731
0.67819
-0.322027
-0.356178
0.506127
-0.1987
-0.751305
0.367548
0.287359
0.39407
-0.353737
0.50102
0.315366
0.360381
-0.617701
0.40955
0.208114
-0.362549
0.211999
0.15056
0.142654
-0.569979
0.42734
0.284133
-0.516159
-0.288732
-0.187768
-0.141036
0.328797
-0.22276
0.638249
-0.607736
0.288918
0.318737
0.091021
-0.466437
0.375452
-0.597548
0.279756
0.317814
-0.446878
0.589556
-0.394287
-0.203224
-0.488334
0.253822
0.234474
-0.109339
-0.232973
0.212273
0.364163
-0.576432
0.583953
-0.262593
-0.321482
-0.0522803
0.23439
-0.182116
-0.00356654
0.179865
-0.176291
-0.169661
-0.142214
0.311859
-0.350491
-0.172343
0.33674
-0.414679
0.0779969
-0.244745
0.537327
0.227009
-0.120656
0.344538
0.2393
-0.501336
0.286992
0.214322
-0.394039
-0.223698
-0.22518
-0.263192
-0.417841
0.483256
-0.0656227
0.270325
0.123385
-0.226309
-0.212755
-0.321763
-0.251746
0.199448
0.0139105
-0.294483
0.280596
0.55492
-0.326057
-0.228924
0.00346292
0.185097
0.53665
-0.146812
0.00130277
0.35311
-0.394495
0.472903
-0.0783893
-0.386652
0.20298
0.198508
0.273021
-0.471696
0.465676
-0.229143
-0.471002
0.614635
0.472305
-0.640828
0.334947
0.305832
0.352167
-0.430347
-0.252021
0.365796
-0.113853
0.332814
-0.128359
-0.204442
0.442276
-0.172012
-0.401567
0.141576
0.199556
-0.409229
0.248263
-0.234341
0.435229
0.242945
0.582587
-0.35564
-0.22705
0.393477
-0.0566922
0.0748441
-0.545845
0.158949
0.199348
-0.358273
-0.337068
0.217831
0.119312
0.510347
-0.331184
-0.179302
-0.200641
-0.588264
0.17015
0.630121
-0.281999
-0.182485
-0.308712
-0.216529
0.218568
0.322965
-0.541571
-0.160259
-0.176744
-0.24915
0.104326
0.144837
-0.677701
0.370458
-0.618936
0.319131
-0.315213
0.145522
0.608629
-0.160422
-0.448216
0.10172
-0.230603
0.128897
-0.176575
0.335535
-0.287014
-0.222092
0.509081
-0.202533
-0.332546
0.535091
0.405302
-0.227637
-0.646345
0.404909
0.241407
-0.0823636
0.43444
-0.622587
0.30732
0.315227
-0.551787
0.328429
0.223358
0.235071
-0.456351
-0.314163
0.540279
-0.226176
0.189509
0.328495
0.642135
-0.229083
0.296226
0.209866
-0.342269
-0.148209
-0.444306
0.420134
-0.228215
-0.191945
0.10782
-0.28587
0.17804
0.283656
-0.143152
-0.240219
0.111154
0.129079
-0.30657
-0.20445
0.511053
-0.437958
0.234729
0.203175
0.210254
0.284368
-0.494644
0.279118
-0.171312
0.518491
-0.325909
-0.19259
-0.66652
0.321952
0.344504
-0.465861
0.475596
-0.00974232
-0.516776
0.119923
0.163746
0.426043
0.176641
-0.602728
-0.342561
0.154791
-0.477484
-0.0393473
0.516828
-0.697654
0.22016
0.147955
0.184872
0.357845
0.115073
-0.385746
0.488221
-0.102458
-0.255864
-0.410707
0.60053
-0.383355
-0.217174
0.119322
-0.331254
0.211939
0.506945
-0.301039
-0.206049
0.684155
-0.500704
-0.183458
0.54175
0.142399
-0.228036
-0.464267
0.237939
0.622818
-0.352027
-0.271126
-0.152306
0.499124
-0.202922
-0.595292
0.197133
0.398152
0.554388
0.0114363
-0.565902
0.244779
0.4396
0.349306
0.160928
0.216161
0.203949
-0.0218609
-0.233718
0.255578
-0.674345
0.435261
0.238997
0.256254
0.209345
0.236496
-0.339927
-0.140566
-0.468423
0.210391
0.258085
0.201306
0.27419
0.343638
-0.61783
0.36828
0.233169
-0.388932
0.18326
0.205636
0.2183
-0.240179
0.337333
0.240567
-0.578265
0.365989
-0.301687
-0.0642491
-0.287114
0.491344
-0.215356
-0.276016
0.363427
-0.456306
0.0928264
-0.102987
0.537506
0.381673
-0.626794
0.245024
0.608665
-0.486783
-0.121934
0.311212
-0.191888
0.360069
-0.315285
-0.044801
-0.288411
-0.210977
0.49936
0.299416
0.191908
0.638623
-0.360604
-0.278475
0.479604
0.129009
0.354306
0.00574474
0.240678
-0.410923
0.170195
0.156094
0.219397
-0.375544
0.259837
-0.546662
0.31951
-0.270926
-0.252259
0.523105
0.141704
0.194833
-0.336546
0.0490163
-0.30109
-0.274091
-0.260839
0.534832
-0.382807
-0.070329
-0.228742
0.299075
0.614821
-0.233655
0.64996
-0.575122
0.133963
-0.137521
-0.386799
0.178655
0.208097
-0.17633
-0.19671
0.362063
-0.153447
-0.386807
-0.190425
0.577213
0.174895
0.169347
0.201853
0.274279
-0.564653
0.354334
-0.436792
0.276919
-0.16575
-0.11115
-0.316234
-0.266517
0.582581
0.272375
0.251521
-0.382902
0.384219
0.595879
-0.570033
-0.0258814
0.0911234
-0.537505
0.0427263
0.257449
-0.30013
0.534753
-0.19038
0.246826
-0.520996
0.27764
-0.380772
-0.265601
0.287785
0.372998
0.610609
0.288164
0.0814803
-0.369721
0.325713
-0.251738
0.207565
-0.420512
0.21293
-0.388589
0.0400835
0.348448
-0.168803
-0.250327
0.419076
0.233431
-0.0261889
0.389481
-0.363353
-0.409979
0.224681
-0.271009
-0.158616
0.429608
-0.406659
-0.0086518
-0.190425
0.199112
0.286108
-0.127282
0.119607
0.107426
0.182155
-0.190766
-0.158985
0.447075
-0.477183
-0.0900585
0.567224
0.415388
-0.167117
-0.370109
-0.297432
-0.454567
-0.0112961
-0.281483
0.541263
0.0749016
0.53372
0.483156
-0.119782
-0.0955616
0.449809
0.190388
-0.260708
-0.00966557
-0.378994
0.2197
-0.117962
-0.359727
-0.0855022
-0.497368
0.247781
0.24952
-0.308738
0.531884
-0.223352
0.168771
0.107409
-0.268762
0.161357
-0.229655
-0.238765
-0.199243
0.154602
-0.396781
0.242085
-0.437883
0.394176
0.527868
-0.191006
-0.378334
0.172352
0.205918
0.571856
-0.59637
0.0244905
0.162984
-0.521504
-0.38069
-0.255432
-0.455819
0.216986
-0.348747
0.322564
0.403992
-0.0677766
-0.336277
-0.0785907
-0.0156035
0.545938
-0.239018
-0.306921
0.186656
-0.0973338
-0.151806
0.22169
0.361816
-0.583518
-0.685558
0.455783
0.229713
-0.0363606
-0.346536
-0.163781
-0.0575768
0.221363
0.259607
0.286329
-0.278551
-0.344075
0.353123
-0.139438
-0.213692
0.473541
-0.277422
-0.196099
0.385355
0.215174
-0.0336299
-0.368253
0.149203
-0.48171
-0.215536
0.616269
-0.230911
0.188131
-0.331593
0.143494
0.387973
0.146629
0.257011
-0.149612
-0.245002
-0.318922
0.0462437
-0.550402
-0.539358
0.270641
0.268688
-0.181401
-0.289374
-0.250013
-0.603433
0.321907
-0.358949
-0.361178
-0.24721
-0.249298
-0.159481
0.408799
0.378181
0.24433
0.337486
-0.181461
0.119625
0.171426
0.231909
-0.403446
0.232173
0.286308
-0.203586
-0.197663
0.607189
0.350287
-0.115901
0.548914
-0.0382615
-0.510775
0.0455266
0.291878
-0.395989
0.634554
-0.238588
-0.601375
0.129687
0.471687
0.641619
-0.469253
-0.132136
-0.364911
-0.242903
-0.448691
0.168492
0.280163
0.472539
-0.200383
0.563132
0.553608
0.0204933
-0.574203
0.348871
0.0550563
0.117049
0.276183
0.325798
0.229061
0.176858
0.109272
-0.616832
-0.277318
0.368278
-0.199742
0.278306
0.195255
0.273082
-0.265905
-0.130193
0.255317
-0.125103
0.170325
0.271891
0.151577
0.0360912
-0.375605
0.339478
0.447466
-0.105131
-0.342343
0.171055
0.179229
0.325698
-0.137531
0.602727
-0.40687
-0.109549
0.51642
0.401495
0.236719
-0.241168
-0.282007
0.523196
0.0841517
0.135565
-0.289526
0.513113
0.384187
0.22975
-0.207845
-0.29351
0.168807
0.36666
-0.109699
0.552469
-0.434219
0.183899
0.250402
0.0893944
0.167604
0.0604584
0.333062
-0.347691
0.516496
0.0431261
0.268092
0.622924
-0.25876
0.0867668
0.512715
0.640725
-0.315779
-0.32497
-0.216299
0.115979
0.331466
0.217573
-0.503934
0.262784
-0.628168
0.390256
0.237912
-0.409014
0.5028
-0.479432
0.217433
0.261974
-0.0673945
-0.347986
-0.316846
-0.357577
-0.334066
0.370153
-0.347552
-0.108806
0.34682
-0.442414
-0.187269
0.269231
-0.255267
-0.278403
0.495133
0.0766832
0.521786
-0.095787
-0.201439
0.373711
-0.247282
0.299195
-0.253717
-0.0021671
-0.534992
0.536973
-0.291961
-0.288728
0.580232
0.19856
-0.524667
-0.256158
0.202658
-0.50922
-0.245068
0.263403
-0.143454
0.322331
-0.593827
0.271482
-0.297572
0.0299849
0.240332
-0.27032
0.608693
-0.318812
-0.289913
-0.266443
-0.201927
-0.331172
-0.257928
-0.177997
0.409764
0.210692
0.380685
-0.214895
-0.165782
-0.584501
-0.246505
-0.305283
-0.173381
0.277719
-0.212347
0.499281
0.0479085
0.18356
-0.231452
0.0890156
0.394088
-0.189544
0.340917
0.267744
-0.105733
-0.106039
0.452834
0.357053
-0.558343
0.201232
0.253876
-0.47877
0.224799
0.118101
0.122557
-0.0929315
0.395787
-0.302907
-0.207311
0.564316
-0.0645002
0.424792
-0.36052
-0.423826
0.330867
0.458204
-0.119434
0.255876
-0.225883
0.479386
-0.227111
0.480885
-0.2697
-0.228044
0.497656
-0.237571
-0.182778
0.420259
0.620605
-0.346415
-0.454323
0.389535
-0.216643
0.393347
-0.1767
-0.0875815
0.207218
-0.596791
0.213441
0.283945
0.184007
-0.467991
-0.194552
0.0307797
-0.187277
-0.275886
0.463024
0.562215
-0.375133
-0.18708
-0.378328
0.10733
0.267822
-0.166717
-0.377402
0.175626
0.115544
0.0751237
-0.412043
-0.183255
-0.272439
-0.358057
0.124332
-0.354555
0.403029
-0.0484965
-0.553737
0.531114
-0.532737
0.00246163
-0.173396
0.599984
-0.426579
-0.0670024
-0.410208
0.365064
-0.0957834
-0.48632
0.227047
0.125415
-0.0574959
-0.0679042
0.200465
-0.152543
0.168751
0.211942
0.137264
0.188472
-0.182393
-0.430932
0.0922971
0.148333
-0.240619
-0.145422
0.42932
0.149311
-0.501712
0.352376
0.169049
0.226863
-0.39593
0.274217
-0.416449
0.142203
-0.627737
0.274758
0.352953
-0.378329
-0.143976
0.522289
0.470598
0.0837149
0.326687
-0.53058
0.0970434
-0.181562
0.0845362
0.625271
-0.280323
-0.344962
0.37602
0.240959
-0.617031
-0.158986
-0.142812
0.301775
-0.372628
0.246102
0.126467
-0.162371
-0.193304
-0.342224
-0.283898
0.499009
-0.215284
0.269261
-0.456701
-0.20091
0.469984
-0.115809
-0.225326
0.0443779
0.27328
-0.317764
0.0990175
-0.505893
-0.0325262
0.302492
-0.26995
-0.361996
-0.382197
-0.259006
0.269466
-0.226341
0.205018
0.148099
0.277545
0.185119
-0.430672
0.24552
-0.229914
-0.267519
-0.24192
-0.116136
0.0230425
0.247777
-0.116249
-0.256428
-0.365902
-0.199604
0.565486
0.242842
0.229407
-0.388431
0.0497761
0.229332
-0.1833
0.423917
0.327526
-0.246115
-0.120267
0.480055
-0.359778
-0.499796
0.289254
0.210464
0.155385
-0.404668
0.157336
0.115403
-0.272738
-0.374913
-0.269902
-0.485564
0.201506
-0.595514
0.218749
0.376626
-0.318642
0.566117
-0.247454
-0.567613
0.249033
0.293717
0.569952
-0.408905
-0.161076
-0.335213
-0.271493
-0.499059
0.229284
0.340655
-0.604747
0.327466
0.277155
0.244133
-0.421137
0.176948
-0.275546
0.611461
-0.335944
0.104538
0.222129
0.508212
0.00730599
-0.515506
-0.225436
0.417729
-0.173642
0.210489
-0.187483
0.239921
-0.147607
-0.152757
0.534353
0.304758
-0.519762
0.214888
-0.279507
-0.206211
0.217543
0.335787
-0.553355
-0.374193
0.624694
-0.250513
0.492135
-0.169828
-0.623808
0.249608
-0.292552
0.53924
-0.256669
-0.243193
0.368799
0.256458
-0.224688
-0.0957298
0.320445
-0.331135
-0.354479
-0.453744
0.5348
0.0166896
0.399922
-0.416659
0.424358
-0.150159
0.209006
-0.521706
0.312483
0.246038
0.370232
-0.0965179
-0.141156
0.0398452
-0.451891
-0.181593
-0.209581
0.391149
0.173022
-0.075961
-0.286779
-0.26342
0.00543265
0.549884
-0.555481
0.211086
0.429617
-0.170022
-0.0466175
-0.266289
-0.329359
0.210891
-0.126719
0.0697079
-0.497119
0.410272
-0.349183
0.489089
-0.139908
0.230033
-0.411662
-0.446182
0.395387
0.0507302
-0.416047
-0.130441
0.546478
-0.554607
0.275973
0.278633
0.215229
-0.611219
-0.385161
0.60685
-0.247984
0.142969
0.0385771
-0.181534
-0.491979
0.229036
-0.11092
-0.429563
-0.114977
-0.146307
-0.313211
-0.291679
-0.620887
0.328868
0.291977
-0.40539
0.575766
-0.170403
0.115641
0.147788
-0.221704
0.52636
-0.0577749
-0.207268
0.265016
-0.166056
0.395435
-0.373578
0.34798
0.524725
0.0680544
-0.473468
-0.13816
-0.115302
0.25347
-0.525418
0.232734
-0.431927
0.114395
0.0756079
0.131386
-0.206984
0.231572
0.300104
0.381967
0.180246
-0.355648
-0.198958
-0.407593
0.512231
-0.104655
0.595836
-0.213868
0.30554
0.137732
-0.443257
-0.608297
0.198688
0.409604
0.614177
-0.386337
-0.22791
-0.352312
-0.0249351
0.377227
-0.485127
0.269777
-0.29904
0.508022
-0.615136
0.308543
0.306378
-0.546327
0.0156072
0.530622
-0.579118
0.244001
0.335027
-0.647914
0.36757
0.386954
0.274972
0.35956
0.117334
-0.503158
0.385814
-0.129717
0.30458
-0.274747
0.577687
-0.302945
-0.409764
0.17211
-0.223437
0.0932494
0.572722
-0.28699
-0.28572
0.408289
-0.18715
-0.0152483
0.409426
-0.447609
0.0952774
0.212508
-0.109185
-0.103306
-0.372964
0.420141
-0.380299
0.525119
-0.155977
-0.369159
-0.266774
0.471423
-0.204711
-0.28499
-0.0885728
-0.572779
0.510245
0.0623637
-0.189877
0.601875
-0.41201
0.198444
0.32899
-0.527474
-0.20149
0.478342
0.12298
0.402123
0.404909
0.209208
0.0944647
-0.110487
-0.487056
0.134779
0.140589
-0.299606
-0.290114
0.0997163
-0.389778
0.286914
0.102926
-0.0968747
-0.292843
-0.615262
0.272761
0.342493
0.533066
-0.334662
-0.382131
-0.029963
0.307642
-0.474295
0.182016
-0.00211342
-0.3778
0.379807
-0.559182
0.18406
0.605484
-0.29711
0.549913
-0.252865
-0.516076
-0.336646
-0.284276
-0.47148
0.253591
0.217831
-0.188752
-0.264235
0.452962
0.150066
0.445776
0.480169
-0.532017
0.0517202
-0.0233468
-0.325813
-0.0515753
-0.611515
0.239812
0.371702
0.547537
-0.330039
-0.624673
0.329555
0.294903
0.122567
0.301773
-0.287907
-0.369791
-0.244886
0.0249999
-0.380652
0.497991
-0.138726
0.503819
0.409156
-0.599041
-0.24998
-0.313031
0.562902
-0.177938
0.177711
-0.302715
0.124992
-0.173613
-0.14069
0.314287
-0.19214
0.105108
0.372332
-0.477829
0.117081
0.111971
0.0942689
-0.510325
0.234415
-0.551873
0.317437
0.337729
0.235006
-0.00473833
0.484786
-0.290468
0.566072
-0.275642
-0.0250583
0.279092
-0.254075
0.442938
-0.531935
0.0889815
-0.217982
-0.185931
0.403886
-0.565092
0.333338
0.231727
-0.528855
0.29952
0.229183
-0.601786
0.256538
0.345238
-0.399647
0.623765
-0.224119
-0.508799
0.410197
0.0986189
-0.338235
-0.146887
-0.467807
0.208246
0.259446
0.321713
-0.184421
-0.0596292
0.407898
-0.348302
0.442592
-0.115149
-0.258911
0.201119
0.2139
-0.0799292
-0.0263165
0.487041
-0.460968
0.113164
0.099361
0.316613
-0.566745
0.11243
-0.250573
-0.197302
-0.565418
0.289843
0.436093
0.0721203
-0.326543
-0.298361
0.123849
-0.0491594
-0.59364
0.345409
0.248088
-0.173096
-0.199974
0.372999
-0.109129
0.550286
0.518061
-0.174428
-0.258965
0.316851
-0.11264
-0.204166
-0.617963
0.414021
0.20388
0.300045
0.21888
-0.531962
-0.540219
0.242953
-0.576859
0.158055
0.418782
0.243767
0.297522
-0.541471
0.438877
-0.21412
-0.309194
0.54358
0.2186
0.377235
-0.434041
-0.136017
-0.562279
0.225584
0.504827
-0.128844
-0.179572
-0.203224
0.264717
-0.433555
-0.455557
-0.634667
0.327829
0.306641
-0.545777
0.313836
-0.438267
-0.138613
0.289467
-0.579957
-0.201837
0.119635
0.0822201
-0.427223
0.306582
0.120641
0.276287
0.195072
0.304628
-0.126945
-0.537881
0.364487
0.649881
-0.295361
-0.354541
-0.350579
0.499874
-0.282218
-0.21952
0.211348
0.105549
0.265826
-0.0650911
-0.200727
-0.161498
-0.214237
0.375657
-0.585256
0.176207
0.409032
-0.461218
0.215175
0.245999
-0.312266
0.579872
-0.267588
0.16456
-0.374618
-0.215789
0.384802
-0.427219
-0.119062
-0.0146176
-0.520697
0.534946
-0.18646
0.4167
-0.311778
0.267226
0.19085
-0.458058
-0.134905
-0.10483
0.239762
0.170084
0.263296
0.361387
-0.316431
-0.597855
0.395839
0.202021
-0.0896252
0.229034
0.23998
0.0706085
-0.478236
-0.305303
-0.272995
-0.350819
-0.499492
0.121136
0.0724331
0.312171
-0.384595
0.240727
-0.514047
0.498866
-0.633308
0.251023
0.382285
-0.20722
-0.324986
0.532175
0.289299
0.360562
0.465364
-0.318549
0.59328
0.21213
0.562308
-0.386109
0.203297
0.359001
0.63522
-0.287676
-0.347638
0.27335
0.305114
-0.578441
0.0887675
-0.39464
-0.392353
-0.154429
0.546761
0.128686
0.0852271
0.494348
-0.520934
0.272866
-0.369572
-0.43367
0.55849
-0.24206
-0.426025
0.122199
0.303705
-0.375369
-0.24265
0.325229
-0.38488
0.133925
-0.121718
-0.0121992
-0.187367
-0.336447
0.523739
0.46443
-0.326732
-0.608295
0.264224
0.344066
0.170109
0.218718
-0.388792
-0.225852
0.105853
-0.555353
0.251809
0.303508
0.220316
-0.576072
-0.104624
-0.140231
-0.350816
-0.257485
-0.637911
0.364903
-0.263964
0.0986708
0.165336
-0.564465
0.311114
0.253345
-0.311622
0.183259
-0.551482
0.229183
0.35914
-0.588348
-0.186268
-0.411517
0.59777
0.277768
-0.310271
-0.590953
0.256248
0.334696
0.287713
-0.599347
0.327852
-0.614
0.365572
0.248411
0.321576
0.248631
-0.352369
0.236574
-0.100595
-0.163327
0.126843
-0.519213
-0.183611
0.193368
-0.456807
0.409135
0.0475998
-0.224098
0.394577
-0.170492
0.375252
-0.377443
0.114494
0.182222
-0.296728
0.176022
0.0898152
-0.239744
-0.289262
0.316425
-0.520891
-0.211171
-0.304957
0.0326524
-0.257316
0.199472
-0.0707738
-0.296801
0.531878
-0.235291
0.480877
-0.521564
0.0902112
0.431362
0.520882
-0.522217
0.136641
-0.2399
0.103276
-0.313407
0.153315
0.160063
-0.161969
-0.0895596
0.524793
0.277163
-0.119833
-0.549942
0.507306
0.0426142
-0.558256
0.308257
0.250026
-0.528764
0.231773
-0.254045
-0.379263
0.164738
0.254286
-0.592759
0.226853
0.307922
-0.529763
-0.105044
-0.0967769
-0.428961
0.251534
0.177356
0.154682
0.114944
-0.289999
0.546115
-0.256192
-0.104146
0.240794
0.182994
-0.401002
0.140019
0.181724
0.580052
-0.314987
-0.26509
-0.178083
-0.308253
0.259617
-0.348626
0.171972
0.235356
-0.407366
0.191861
-0.332572
-0.311333
-0.244055
-0.100303
0.556076
-0.304661
-0.188055
-0.420245
-0.144088
0.281048
0.284985
-0.379251
-0.311829
-0.163455
0.475237
0.398802
0.607844
0.272812
0.226025
0.228844
-0.115662
-0.324521
-0.229877
0.554352
0.390843
0.400417
-0.509963
0.335207
-0.614325
0.278917
0.234411
-0.417264
0.591023
-0.0421921
-0.125841
0.201458
0.562833
0.3336
-0.302087
-0.0314979
-0.385592
0.220322
0.165293
0.186012
-0.585652
-0.610006
0.344076
0.265927
0.13325
0.0662338
0.00119784
0.416915
-0.418145
0.294952
-0.517027
0.112973
0.020959
-0.258291
-0.251948
0.510207
0.294682
-0.51823
-0.211629
0.487803
-0.351974
-0.214536
0.443787
-0.179136
0.120256
-0.273574
0.153324
0.308674
-0.236231
0.274028
-0.475101
-0.24383
-0.204859
0.514067
-0.309236
0.228278
0.169764
-0.398049
-0.0645987
0.548595
-0.410139
0.228605
0.181503
0.433307
-0.126724
0.41413
0.351542
-0.621456
0.269979
-0.556764
0.192351
0.215906
0.405576
-0.596013
0.210958
-0.405253
0.194265
0.28864
-0.530247
0.241484
-0.213478
0.407581
-0.19419
0.533315
-0.410348
-0.277712
-0.492125
0.205287
0.260706
-0.248318
-0.22322
-0.360493
-0.271249
-0.225391
0.496587
0.246516
0.319621
0.233519
-0.264295
0.415591
-0.305277
0.456164
0.0973506
0.117151
0.216463
0.242792
-0.46019
0.217336
-0.337572
-0.110262
0.264955
-0.232683
-0.276258
0.508774
0.255131
-0.174948
-0.0801401
0.417876
-0.182568
-0.278143
0.341979
0.0610278
-0.297384
-0.148163
-0.32943
0.477573
-0.442695
0.228567
0.214066
-0.443298
0.404885
0.586177
-0.291969
-0.29427
-0.215998
0.0856587
0.154281
0.404065
-0.231085
-0.172968
-0.326863
-0.236502
0.563315
0.265633
-0.55573
-0.22655
0.534364
0.282986
0.22607
-0.307353
0.352989
-0.210217
-0.14272
-0.583255
0.256336
0.240331
0.17984
-0.240454
-0.313913
0.554281
-0.149731
0.377956
0.105587
-0.214755
0.401953
-0.168468
-0.0981939
-0.358678
-0.391383
-0.23549
-0.184596
0.451817
-0.149512
0.341343
0.271687
0.198113
0.610829
-0.257795
-0.35305
-0.24284
-0.305255
0.54797
-0.564916
0.251484
0.475442
-0.30319
-0.172267
-0.405527
0.219571
0.376214
-0.110804
-0.257642
-0.508
0.249702
0.581855
-0.240976
0.136165
0.426661
-0.186412
0.507094
-0.234416
0.112744
0.116117
0.229688
0.187997
-0.00347151
-0.507397
0.442647
-0.191192
-0.0938464
-0.427706
-0.207472
0.0899064
0.117585
0.219824
-0.491162
0.281031
-0.637467
0.35642
-0.112875
0.229972
0.332596
-0.12122
-0.480572
-0.541952
0.2297
0.289207
-0.256527
0.294017
-0.475754
0.181647
0.387239
-0.176342
-0.334921
0.587425
-0.252526
-0.386089
0.130592
0.165518
-0.389618
0.177257
-0.1717
0.481724
-0.310062
0.398064
-0.195898
-0.202151
-0.578283
0.243346
-0.373493
-0.210281
0.583765
-0.635859
0.276663
0.359182
0.105784
0.633811
-0.355008
-0.278833
-0.639339
0.283276
0.35604
-0.0859278
-0.121526
0.531172
0.213172
0.202915
-0.416082
-0.21546
0.284921
0.34886
-0.4673
0.268953
0.198313
0.32803
0.241372
-0.56944
0.218244
-0.243323
-0.245586
-0.283221
0.528329
0.239158
-0.148786
-0.262237
0.410971
-0.35444
0.416986
-0.190049
-0.226995
-0.506573
-0.280661
0.479648
-0.199025
-0.229083
0.383565
-0.154565
-0.313305
-0.3789
-0.499827
0.277599
0.222045
-0.193697
0.472065
-0.278338
-0.255376
-0.335586
0.0293694
0.554924
-0.584297
0.275875
-0.0998146
0.270765
-0.404592
-0.354842
-0.238339
0.525705
-0.354207
-0.173231
0.271944
-0.550356
0.298791
0.251491
-0.206994
0.285279
0.274074
-0.559693
-0.234898
0.593077
-0.358235
-0.237946
0.526286
-0.288388
-0.325546
-0.233193
0.558706
0.143866
0.101414
-0.245282
-0.519947
0.218782
-0.57891
0.253345
-0.611708
0.245837
0.365863
-0.129003
-0.379781
0.497787
-0.0296229
-0.185903
-0.253501
0.439215
0.309184
-0.552102
0.376184
-0.530606
0.381464
-0.102661
0.291643
-0.457407
0.503652
-0.440022
0.291839
0.0288395
0.536156
-0.565062
0.369722
0.427154
-0.515982
0.386627
-0.128462
-0.258215
0.519756
-0.117632
0.39081
-0.203294
-0.187488
-0.416227
-0.146094
0.276786
-0.505799
0.228858
-0.419787
0.394868
0.142221
0.11296
0.332567
0.206123
-0.538717
-0.380899
-0.230817
0.170268
-0.0370132
0.518216
-0.223217
0.159406
-0.0208091
-0.138587
0.139027
-0.127965
-0.0110515
0.00452078
-0.516593
0.51203
0.425908
-0.629316
0.27014
0.359175
-0.0992609
0.298709
0.307954
-0.113708
-0.298924
-0.222849
0.521669
-0.575555
0.164008
-0.621392
0.256201
0.36519
0.240961
-0.101222
-0.139735
0.322718
-0.104813
-0.630853
0.274421
0.356425
0.442986
-0.172255
0.247542
-0.411128
0.163527
-0.544856
0.358777
-0.0883208
0.271889
0.133786
0.162138
-0.295953
0.19848
-0.12905
-0.0694266
0.102525
0.0104611
-0.351582
0.580738
-0.171387
-0.0485551
-0.126843
0.175407
-0.609602
0.343174
-0.274968
0.151602
0.123356
-0.322366
-0.239373
0.561564
0.105595
-0.156711
0.436841
-0.598329
0.341419
0.256884
-0.329119
-0.211448
0.540537
0.150313
0.19763
-0.121469
0.14244
0.242702
-0.0988505
-0.354198
-0.237519
0.52606
0.00319513
-0.114319
0.111139
0.546647
-0.172306
0.548512
-0.248296
0.419965
-0.403719
0.229994
-0.153353
-0.237647
0.513984
-0.51755
0.50795
-0.510304
-0.181738
0.41139
0.527699
-0.156217
-0.371486
0.547052
-0.513089
-0.271949
-0.288298
0.560233
0.440402
-0.200996
-0.239377
0.239461
-0.544802
-0.0787449
0.204373
-0.125627
0.229265
-0.0294757
0.20935
0.389136
-0.168791
-0.449716
0.189181
-0.354897
-0.0836682
0.192995
-0.109329
0.0945741
-0.0257261
0.325107
0.639287
-0.393455
0.482211
-0.208382
-0.116255
0.206693
-0.0904376
0.544109
-0.101938
-0.442169
-0.180835
0.303845
-0.123002
0.212927
0.146597
-0.359538
0.25378
0.385503
0.486377
-0.485216
0.523479
-0.228947
-0.152479
-0.281638
0.158903
0.122727
-0.511066
0.278164
-0.216165
0.252162
-0.473434
0.221253
-0.495144
0.179337
0.329553
-0.5752
0.245527
-0.605736
0.35689
0.248839
0.438367
-0.190858
0.46893
-0.204802
-0.264205
0.224859
0.173627
-0.398575
0.149339
0.115628
0.391518
-0.521987
0.520672
0.105845
0.235939
0.146994
-0.262278
0.222849
0.174112
-0.397064
-0.0995191
-0.0155908
-0.0758758
0.417809
0.508869
-0.232237
0.127133
0.588504
0.23762
-0.58557
0.347881
0.00932955
-0.463958
0.350055
-0.584968
0.237658
0.293391
-0.238296
0.215982
0.167498
-0.567634
0.252099
0.315522
0.442008
0.139956
-0.242492
0.551574
-0.230586
0.543885
-0.313302
-0.0346418
-0.499557
0.534052
0.197767
0.149869
-0.282983
-0.254183
0.537044
-0.210959
0.482443
0.280272
0.265767
-0.108496
-0.107653
-0.0841819
0.125974
-0.204717
0.118443
0.314868
0.229086
0.180695
-0.40989
0.161504
0.196946
-0.500846
-0.292675
0.161475
0.131186
0.175259
0.215583
0.0277361
0.142178
-0.104251
0.0886711
-0.285618
0.183874
0.11998
0.194345
0.119925
-0.311727
-0.255922
-0.124665
0.122402
0.229917
0.013862
-0.243733
0.518436
0.314035
-0.13017
0.556205
-0.160468
0.144495
-0.228046
0.0835674
-0.21696
0.478923
-0.112625
0.223005
-0.101877
0.246379
-0.351254
0.11823
-0.373193
0.19506
0.213556
0.164352
0.169743
-0.354389
0.197529
0.156821
-0.124728
-0.0768722
0.201608
0.027846
-0.412373
0.384489
-0.370652
0.207435
0.16321
0.484362
-0.274615
-0.209754
-0.562655
0.323157
0.12617
-0.22675
-0.216009
0.509448
-0.582158
0.0720753
-0.323665
0.185264
0.138389
0.202484
0.161617
-0.364111
-0.285787
0.441789
-0.156048
0.27976
0.231217
-0.51105
0.311975
-0.130044
-0.444848
0.209292
0.235466
-0.314164
-0.295565
0.413799
-0.200652
-0.179769
0.404568
-0.497636
0.477957
-0.512718
-0.158272
0.371158
0.256589
-0.140914
0.165697
0.138852
-0.44997
0.193183
0.632484
-0.378708
0.159372
0.206175
0.236749
0.344332
-0.581074
-0.618499
0.351863
0.266643
0.370153
0.262328
0.558148
-0.486751
-0.0717368
0.340182
0.274025
0.205587
-0.090208
0.370837
0.323324
-0.217699
-0.285231
-0.560584
-0.244812
-0.369204
0.0927284
0.183186
-0.630824
0.273153
0.357668
0.196024
-0.345585
-0.28712
0.516928
-0.229937
0.0117171
-0.186641
-0.308827
0.542484
-0.233747
-0.33821
0.583086
-0.245016
0.271886
-0.512962
0.240986
0.225847
-0.126468
0.624111
-0.365164
-0.25896
0.522453
-0.528571
0.00582133
0.359268
0.132522
0.18635
-0.3189
0.517381
-0.259025
-0.208308
-0.196528
-0.399877
0.356308
-0.297253
0.529625
-0.232609
0.226125
0.231413
-0.00911004
-0.222269
0.00319307
0.228252
0.230705
-0.122749
0.200863
-0.0781074
-0.585129
0.348564
-0.236959
0.586993
0.35122
0.147329
0.189295
-0.336663
0.286486
-0.124105
-0.506059
0.280635
-0.275075
-0.355752
0.584885
-0.269984
-0.314875
-0.157436
-0.183648
0.412647
-0.172796
0.298649
-0.125835
0.568013
-0.238531
0.276897
-0.488597
0.373757
-0.154287
-0.219426
0.234969
0.181737
-0.416774
0.472638
-0.220546
0.176741
0.225177
-0.521103
0.37016
-0.587318
0.232188
0.581273
-0.514513
-0.066885
-0.296464
0.131718
0.164708
-0.629337
0.354253
0.134364
0.164466
-0.298873
-0.0213479
0.193025
-0.171663
-0.495261
0.315766
-0.491958
0.276403
0.233281
0.234411
0.18272
0.240762
-0.423508
0.17083
0.35687
0.272922
-0.164996
-0.0732769
0.390015
-0.0471564
-0.212203
0.48897
-0.516596
-0.230175
-0.225533
0.385277
-0.159726
-0.341059
0.186023
0.155007
0.0707986
-0.210562
-0.287201
0.497498
0.217063
0.170113
-0.381085
-0.19137
-0.0686003
0.259995
0.421533
-0.238309
-0.183232
0.0539471
0.428875
-0.232064
-0.196828
0.237005
0.177061
-0.34835
-0.250998
0.0281323
0.11628
0.18832
0.273564
-0.626246
0.352682