/*--------------------------------*- C++ -*----------------------------------*\
| =========                 |                                                 |
| \\      /  F ield         | OpenFOAM: The Open Source CFD Toolbox           |
|  \\    /   O peration     | Version:  v2012                                 |
|   \\  /    A nd           | Website:  www.openfoam.com                      |
|    \\/     M anipulation  |                                                 |
\*---------------------------------------------------------------------------*/
FoamFile
{
    version     2.0;
    format      ascii;
    class       surfaceVectorField;
    location    "150";
    object      Uf;
}
// * * * * * * * * * * * * * * * * * * * * * * * * * * * * * * * * * * * * * //

dimensions      [0 1 -1 0 0 0 0];


internalField   nonuniform List<vector> 
14516
(
(1.08899 0.0794228 0)
(1.08111 0.0867408 0)
(1.07525 0.0724826 -1.64411e-21)
(0.979257 0.161352 -2.21192e-22)
(0.985175 0.156888 -1.15545e-23)
(0.990483 0.144696 -9.87277e-24)
(1.09762 0.071593 0)
(1.10424 0.0863788 0)
(1.01448 -0.00103954 -5.89226e-23)
(1.01449 -0.00113512 1.15811e-22)
(1.01461 -0.00105946 3.27849e-22)
(0.544287 0.236306 2.94901e-22)
(0.608863 0.290358 5.97855e-22)
(0.530827 0.240805 0)
(1.01172 -0.024817 -1.05744e-22)
(1.01358 -0.024178 4.59538e-23)
(1.01224 -0.0227006 3.39515e-23)
(1.00944 -7.41486e-05 -3.29756e-23)
(1.01033 -0.000246244 3.99403e-22)
(1.01107 -0.000365315 -5.69574e-22)
(1.01421 -0.000919579 1.68592e-22)
(1.01399 -0.000893717 1.85342e-22)
(1.01408 -0.000848468 -1.18074e-22)
(1.03024 -0.000301884 -1.59034e-22)
(1.03032 5.92948e-05 2.50139e-21)
(1.03078 -0.000362124 -2.9435e-22)
(0.551299 0.232187 3.27671e-20)
(0.504539 0.19753 -3.1992e-20)
(0.99811 -0.0359419 4.12776e-22)
(0.994556 -0.0394747 5.41569e-21)
(1.00123 -0.0407607 3.65344e-22)
(0.941731 -0.114052 0)
(0.94658 -0.121042 1.75168e-22)
(0.936708 -0.12249 0)
(1.0144 -0.000910047 -6.70753e-23)
(1.01433 -0.000990014 2.14853e-22)
(1.01652 0.00497805 -6.87742e-22)
(1.01589 0.00548667 -4.42418e-23)
(1.01559 0.00460238 0)
(1.00385 -6.4805e-05 -4.96201e-22)
(1.00388 1.25675e-06 3.60187e-22)
(1.01705 0.00451365 -2.37812e-23)
(1.01745 0.00390349 6.51642e-22)
(1.01651 0.0037492 6.48254e-22)
(1.0197 0.0105659 -7.57066e-22)
(1.01785 0.00972031 -6.56989e-22)
(1.01949 0.00912859 5.62499e-22)
(1.0216 0.0113566 0)
(1.0196 0.0124591 0)
(0.982972 0.114614 9.08627e-21)
(0.924787 0.160226 1.15324e-21)
(0.928046 0.150198 -9.7595e-21)
(1.01766 0.00537199 -6.2551e-22)
(1.0442 -0.130658 -1.02179e-21)
(1.05515 -0.1345 2.17918e-21)
(1.05186 -0.122896 2.13093e-22)
(1.03996 -0.00967801 -2.8104e-21)
(1.0404 -0.00890027 -1.05689e-21)
(1.0393 -0.00896428 5.23415e-22)
(1.00558 -0.106616 4.43368e-22)
(1.01466 -0.115529 3.48069e-22)
(1.00107 -0.11681 -3.58877e-21)
(1.01661 0.00529417 -4.3626e-22)
(1.01644 0.00505705 4.39223e-22)
(1.0129 0.00864379 -4.02642e-22)
(1.01152 0.00879305 -7.9409e-22)
(1.01288 0.0103942 -7.96254e-23)
(1.01416 -0.000698157 4.75521e-23)
(1.01441 -0.000791055 2.63318e-24)
(1.01956 0.00315595 6.87108e-23)
(1.01946 0.00395171 6.90454e-22)
(1.02063 0.00380931 7.65268e-23)
(1.01427 0.00523575 -8.74806e-22)
(1.01348 0.00539367 -2.44493e-22)
(1.01365 0.0044468 0)
(1.00849 0.0105175 -1.60286e-21)
(1.01004 0.00700366 -1.60749e-22)
(1.01255 0.0109734 -2.53953e-21)
(1.02968 -0.000250384 8.8593e-22)
(1.03012 -0.000643572 4.02704e-22)
(0.982862 -0.0483661 -3.26057e-22)
(0.981715 -0.0523634 -4.22922e-22)
(0.987218 -0.0510015 0)
(0.99655 -0.0968838 -1.72212e-21)
(1.01013 -0.0950867 7.5137e-21)
(0.801535 0.0694013 -1.73248e-21)
(0.804328 0.100369 1.84915e-21)
(0.795384 0.0700502 -5.69092e-21)
(1.00782 5.6726e-06 5.28588e-22)
(1.00778 -2.17953e-05 -2.67931e-22)
(1.00556 1.04027e-05 5.81544e-22)
(1.00744 0.0157666 2.23483e-22)
(1.00762 0.0211952 -1.08395e-21)
(1.01236 0.0201665 3.39405e-22)
(1.0598 -0.16319 -1.97137e-21)
(1.0737 -0.170997 0)
(1.05849 -0.180297 0)
(1.00841 -5.86556e-05 2.40346e-22)
(1.00655 4.67133e-05 1.32769e-23)
(1.04056 -0.0103967 -1.32222e-21)
(1.03928 -0.0104063 -1.80037e-21)
(1.01553 -0.00103733 -3.54973e-22)
(1.01587 -0.00110757 4.32648e-23)
(1.01575 -0.00089041 0)
(1.01066 -5.55914e-05 0)
(1.01021 -8.17848e-05 0)
(1.01108 -3.4281e-05 1.84403e-22)
(0.98487 -0.0435911 -3.73158e-22)
(0.978959 -0.0437127 -1.57156e-22)
(1.0065 -5.78874e-06 -1.37816e-21)
(1.00352 -6.79714e-05 -2.54187e-22)
(1.01285 -0.000595835 -3.0099e-22)
(1.01351 -0.00054468 8.33756e-23)
(1.01285 -0.000561351 -3.59711e-22)
(1.01014 -0.000186214 -2.2393e-22)
(1.0093 -0.000223335 2.33184e-22)
(1.01105 -0.000167464 3.09333e-23)
(1.01044 -0.000341437 -2.48535e-22)
(1.01296 -0.000512622 6.71306e-22)
(1.01395 -0.000639189 4.10368e-23)
(1.00331 0.0108284 1.89234e-22)
(0.922072 0.00832394 -8.63854e-22)
(0.914452 0.0188368 1.31296e-21)
(0.930002 0.0192689 -5.82745e-22)
(0.882184 0.00757952 -1.26023e-21)
(0.881457 -0.00724698 -1.43071e-21)
(0.897182 -0.000372456 -1.61732e-21)
(1.0145 -0.00125893 9.28886e-23)
(1.01438 -0.00120232 1.8313e-22)
(1.00607 0.0266256 1.99932e-21)
(1.00072 0.020969 -9.90689e-22)
(0.984997 -0.0240371 8.29449e-21)
(0.983892 -0.0297146 -2.18659e-21)
(0.990081 -0.0280979 3.08275e-21)
(1.01884 -0.0253535 -2.24525e-22)
(1.01749 -0.0264684 -1.35933e-22)
(1.01945 -0.0273691 -2.49879e-22)
(1.03057 -0.00394799 0)
(1.03006 -0.00386907 -2.75913e-21)
(1.03022 -0.00422717 -5.36555e-23)
(0.90361 0.0650266 -8.59496e-21)
(0.886359 0.0558009 -8.87624e-21)
(0.916171 0.0516918 -7.13678e-21)
(0.98467 -0.18139 -7.89356e-23)
(0.978776 -0.192204 1.54889e-21)
(0.971285 -0.183241 3.40223e-21)
(1.02375 0.000742639 0)
(1.02331 0.000731213 0)
(0.982539 -0.0988084 -2.92372e-21)
(0.992847 -0.0980241 -6.31388e-21)
(0.986489 -0.0900036 -1.5536e-20)
(0.795357 0.0363531 -8.58132e-21)
(0.806833 -0.0271913 -1.00787e-20)
(0.830035 0.0391408 -6.94663e-22)
(1.01524 -0.000970797 1.53377e-22)
(1.01533 -0.00108844 -4.07392e-22)
(1.00887 -7.97304e-05 8.45548e-22)
(1.00828 1.56947e-05 3.20232e-22)
(1.00977 -0.000109093 0)
(1.02483 -0.0243138 0)
(1.02383 -0.0255135 0)
(1.02578 -0.0260588 9.94722e-23)
(0.760488 -0.0427022 -5.55765e-22)
(0.753373 -0.0610898 -4.44454e-21)
(0.776068 -0.0666765 1.75665e-21)
(1.01599 -0.000458365 9.01142e-22)
(1.0166 -0.000598694 1.4292e-21)
(1.01567 -0.000449433 -1.51338e-21)
(0.425158 0.127292 -2.69026e-20)
(0.486303 0.195013 -6.93867e-22)
(0.830393 0.0285854 0)
(0.826626 0.0586734 -2.07321e-23)
(0.842686 0.0503898 0)
(0.777583 -0.0236163 1.98826e-22)
(0.753861 -0.00229082 -3.32133e-22)
(0.796601 -0.0112803 -4.19523e-21)
(0.817315 -0.00124712 1.55409e-21)
(0.795282 0.015332 -3.2388e-21)
(0.937044 -0.107258 0)
(0.946267 -0.10615 -2.89997e-22)
(0.995796 -0.0305617 -2.43084e-21)
(1.00238 -0.0320097 0)
(0.870418 0.0665943 2.25789e-21)
(0.926125 0.0781731 -9.46625e-22)
(1.01202 0.000472339 0)
(1.01256 0.000573288 -1.68879e-23)
(1.01324 0.000788697 -3.49234e-23)
(1.01588 -0.00537199 -1.15182e-22)
(1.01619 -0.00564875 -2.34089e-22)
(1.01581 -0.00573683 -5.00057e-22)
(0.981786 0.0728612 5.01027e-22)
(0.986033 0.0645493 -3.90564e-22)
(0.975906 0.0691713 7.07601e-22)
(1.00782 0.0325887 -1.38296e-21)
(1.0006 0.0336944 2.46437e-22)
(0.782801 0.0978268 1.25387e-21)
(0.764646 0.0341529 3.73727e-21)
(1.024 0.00050378 0)
(1.02425 0.000248641 0)
(1.02373 0.000278625 5.49248e-23)
(1.01883 0.00993948 3.04295e-23)
(1.01959 0.00981289 -1.25494e-23)
(1.0194 0.010631 2.5487e-22)
(1.00421 -0.00200189 -1.53787e-22)
(1.00521 -0.00284678 -5.91182e-22)
(1.00562 -0.00149568 6.46321e-22)
(1.01098 0.00538122 7.82014e-22)
(1.01055 0.00430034 0)
(1.01172 0.00485933 0)
(0.820477 0.00928387 -1.76884e-21)
(0.838464 0.00443951 0)
(1.00645 -0.00680059 -1.27242e-21)
(1.00776 -0.00704237 1.2652e-21)
(1.00747 -0.0056801 5.34489e-22)
(0.976144 0.173226 8.98562e-23)
(0.980182 0.160958 1.21432e-22)
(0.971218 0.178161 -7.05536e-21)
(0.974732 -0.0198832 -2.14031e-24)
(0.967512 -0.0173363 -3.34105e-21)
(0.97599 -0.0130573 1.31416e-22)
(0.987422 -0.0397724 0)
(0.990976 -0.0429891 5.60693e-22)
(0.9408 -0.0053937 1.10026e-21)
(0.9315 0.000374903 0)
(0.946239 0.00388786 3.21725e-22)
(1.01008 0.00607434 -5.16195e-22)
(1.01151 0.00664826 -3.43073e-22)
(1.02445 1.98667e-05 0)
(1.02464 -0.000229422 2.55337e-22)
(1.02415 -0.000192123 0)
(1.02412 -0.0227866 -3.17575e-23)
(1.02356 -0.0210841 -1.67565e-22)
(1.02249 -0.0220008 1.48286e-22)
(1.01037 -0.00962273 5.44269e-23)
(1.00898 -0.00975728 1.05911e-23)
(1.01002 -0.0113144 1.12701e-22)
(0.969951 0.174875 2.49625e-21)
(0.972611 0.162138 -5.033e-21)
(0.466307 -0.051818 -1.57455e-23)
(0.43583 -0.0232423 5.72593e-22)
(0.49191 -0.0204663 2.41232e-21)
(1.01467 -0.00279297 -4.59038e-22)
(1.01501 -0.00319228 4.39889e-22)
(1.0145 -0.00309189 0)
(0.988307 -0.0881488 -1.73938e-22)
(0.983379 -0.0979424 2.32457e-21)
(1.02592 -0.023227 0)
(0.974345 -0.0274339 -1.97198e-21)
(0.97999 -0.0234788 -3.17508e-21)
(0.989457 -0.170787 1.46629e-21)
(0.99744 -0.178787 -2.81774e-21)
(0.980858 0.165547 0)
(0.971269 0.18172 0)
(1.01482 -0.00249539 -1.67347e-22)
(1.0144 -0.00247233 -8.73657e-22)
(1.01229 -0.00130951 -6.98133e-22)
(1.01237 -0.00155053 -6.23997e-22)
(1.01244 -0.00135672 0)
(1.01213 -0.00124491 -1.4517e-21)
(1.01221 -0.00107868 4.19792e-22)
(1.01685 -0.00899159 1.64376e-21)
(1.01609 -0.0098368 -9.53027e-22)
(1.01749 -0.0103762 -1.14912e-22)
(1.01511 0.000341483 4.08917e-22)
(1.01538 0.000207815 7.08438e-22)
(1.01546 0.000433775 0)
(1.01477 0.000258619 -7.24609e-22)
(1.01485 0.000425082 1.64872e-21)
(1.01843 0.00922295 -1.75661e-22)
(1.01812 0.00993546 1.64273e-22)
(0.989568 -0.0362303 -1.18981e-21)
(0.984374 -0.0357127 3.27989e-23)
(1.02357 -0.0199823 -1.26956e-22)
(1.02483 -0.0205587 -2.99246e-22)
(1.00849 2.12345e-06 -1.80755e-22)
(1.00908 -0.000117097 8.12758e-22)
(1.00992 -0.00014843 -1.77041e-23)
(1.01845 -0.0234807 -1.24446e-22)
(1.02019 -0.0242205 2.34595e-22)
(0.897505 0.0668754 -9.05827e-22)
(0.903703 0.0874477 1.29344e-20)
(0.911984 0.0719564 -1.20449e-21)
(1.01167 0.000448494 0)
(1.01063 0.000256613 -3.97808e-23)
(1.00824 -0.133808 -4.84071e-22)
(1.0005 -0.128551 -1.21459e-22)
(0.998537 -0.138867 -6.7377e-22)
(1.02176 0.000738097 -7.08302e-22)
(1.02209 0.000686275 -1.44352e-21)
(1.00315 -0.22677 -3.5464e-21)
(0.994689 -0.212406 -3.7894e-21)
(0.986631 -0.224147 -6.66071e-21)
(0.98682 -0.0181614 1.06254e-21)
(0.97989 -0.0199478 1.72814e-21)
(1.02427 0.000718183 2.28093e-24)
(0.829722 0.129397 -2.97128e-21)
(0.838375 0.151896 -5.2404e-21)
(0.847513 0.13695 -4.3061e-21)
(1.00924 0.0394678 4.77243e-23)
(1.01367 0.0323491 -8.29599e-22)
(1.00507 -0.00615631 -1.06587e-21)
(1.00541 -0.00798226 -1.66328e-21)
(0.993463 -0.0787636 -5.21733e-23)
(0.980405 -0.0791962 -4.54921e-22)
(0.896438 0.0497986 1.27355e-20)
(0.882663 0.0606147 2.45532e-22)
(1.00722 0.000185125 2.82724e-23)
(1.00445 7.30795e-05 5.2368e-23)
(1.00455 6.97081e-05 5.841e-24)
(1.02253 -0.00247078 -2.77089e-21)
(1.0229 -0.00261208 -9.44377e-23)
(1.02282 -0.00236886 -5.35625e-21)
(1.00962 -0.0248993 -1.18504e-22)
(1.01114 -0.0267584 1.09523e-21)
(1.03381 -0.00460399 -4.29113e-21)
(1.03399 -0.00487058 2.56531e-22)
(1.03346 -0.00475347 2.02073e-21)
(1.03519 -0.138207 -4.15372e-22)
(1.03463 -0.126992 -1.22556e-21)
(1.03758 -0.0411133 0)
(1.04092 -0.0396847 0)
(1.03796 -0.0377341 -2.03066e-21)
(0.950761 -0.01049 4.30699e-21)
(0.937274 -0.0154773 1.06635e-21)
(1.00315 -0.000745626 2.74349e-21)
(1.00267 -0.00245852 9.27227e-22)
(1.01798 -0.00451759 -2.99773e-22)
(1.0181 -0.00431292 -5.11215e-22)
(1.01777 -0.00430101 -1.46929e-23)
(1.01008 0.00028583 -1.39031e-22)
(1.00971 0.000284141 2.31464e-22)
(1.01129 0.000436362 -3.13929e-22)
(1.02474 0.000224375 0)
(1.01789 -0.00467504 -3.22653e-22)
(1.0182 -0.0047107 6.12799e-22)
(1.02256 -0.00787388 0)
(1.02368 -0.00739274 0)
(1.0224 -0.00651638 0)
(1.02921 -0.000178138 4.28233e-22)
(1.02939 0.0001214 3.49724e-21)
(1.02482 -0.00047295 8.25662e-24)
(1.02504 -0.000743895 -2.28368e-22)
(1.02454 -0.000672987 -2.46722e-22)
(1.014 -0.000263729 -3.4591e-25)
(1.01619 -0.000420645 3.36044e-24)
(1.00949 -7.76231e-05 -2.17834e-22)
(1.01097 -0.00026186 3.97548e-22)
(1.02158 0.000501536 -4.70771e-22)
(1.02137 0.000726973 1.27261e-21)
(1.01167 0.000149656 -1.30768e-22)
(1.01183 0.000154497 4.62733e-22)
(1.01172 0.000141848 7.39624e-22)
(1.02226 -0.00255143 -9.5232e-23)
(1.0222 -0.00231615 1.48254e-21)
(1.01551 0.00809116 3.85825e-22)
(1.01425 0.00836807 -9.53297e-24)
(1.01577 0.00955733 -1.47006e-22)
(1.01282 -0.00051212 0)
(1.01301 -0.00051439 -5.77716e-24)
(1.01267 -0.000516399 -7.83226e-23)
(1.01156 -0.000751006 -1.37631e-21)
(1.01166 -0.000495386 -4.01729e-22)
(1.01148 -0.000422076 -3.63103e-22)
(1.01627 0.00656858 -8.46889e-22)
(1.0152 0.00593184 -7.53288e-22)
(1.01544 0.00835315 -1.81834e-22)
(1.01652 0.00782618 5.2802e-22)
(1.01682 0.00921288 4.89714e-22)
(1.00597 0.0592851 0)
(1.01212 0.0477078 1.49061e-22)
(1.01259 0.0557039 0)
(1.01175 -0.000964907 -6.55673e-22)
(1.01151 -0.00103685 -1.31196e-21)
(1.01502 -0.0016147 6.56557e-22)
(1.015 -0.00191391 1.65708e-22)
(1.01542 -0.00180778 3.31152e-22)
(0.500478 -0.070646 -7.27231e-22)
(0.434439 -0.0848942 2.1772e-21)
(0.707348 0.296101 -4.87268e-22)
(0.706558 0.302601 3.08966e-21)
(0.72931 0.295009 -1.5681e-22)
(1.01081 0.000430774 4.8942e-23)
(1.00887 0.000135621 -3.31171e-22)
(0.68864 0.29397 -3.04986e-22)
(0.705907 0.294452 7.47477e-22)
(0.57372 0.244988 5.08499e-21)
(0.549061 0.205671 1.73671e-21)
(1.01504 -0.00134737 -1.73718e-21)
(1.01468 -0.00146122 -9.47961e-25)
(1.00919 0.00028907 3.13337e-23)
(1.00914 0.000293873 1.89975e-22)
(1.0103 0.000139219 4.88455e-22)
(1.00972 8.85205e-05 -2.19633e-22)
(1.01069 0.000180116 9.06118e-23)
(1.01662 0.00759495 0)
(1.01538 0.00686509 0)
(1.01193 -0.00114078 -7.54639e-23)
(1.01194 -0.000870137 1.36373e-21)
(1.01292 -0.000520974 1.715e-22)
(1.01262 -0.0004032 0)
(1.01441 -0.000923621 3.66864e-22)
(1.01433 -0.000981994 -7.39206e-22)
(1.01484 0.00496214 -1.02612e-21)
(1.015 0.00591329 -6.88267e-22)
(1.01785 0.00166433 8.58836e-23)
(1.01776 0.00114506 -2.62001e-22)
(1.01862 0.00140107 -4.54891e-22)
(1.03907 0.067229 6.69358e-21)
(1.10172 0.0114239 0)
(1.04811 0.0380553 1.35277e-20)
(0.994798 0.0775476 9.41087e-22)
(0.987324 0.0754699 2.35003e-22)
(0.997966 0.0677799 -3.00857e-22)
(1.05765 -0.148691 3.34329e-21)
(1.06752 -0.138596 4.70314e-21)
(0.915947 -0.00337111 9.49595e-22)
(1.03946 0.00119099 -1.71437e-21)
(1.03951 3.91525e-06 2.38692e-21)
(1.04067 0.000663674 -8.52962e-23)
(1.01866 0.00264955 -5.9449e-22)
(1.01964 0.0023679 -5.68255e-23)
(1.01661 -0.00634195 0)
(1.01603 -0.00698989 -1.1683e-21)
(1.01572 -0.00611335 0)
(1.01089 -0.00418566 0)
(1.01126 -0.00469023 0)
(1.01131 -0.0039427 1.41916e-22)
(0.993344 -0.276379 5.10952e-21)
(0.976082 -0.282088 0)
(0.98527 -0.264578 0)
(0.990603 0.0891606 1.45382e-23)
(1.00131 0.0795729 -2.61999e-21)
(1.00116 -0.278381 1.40712e-20)
(1.00959 -0.265924 5.96124e-21)
(1.03349 -0.00409115 3.7614e-21)
(1.03366 -0.00440393 -8.45166e-23)
(1.03309 -0.00421659 3.4966e-21)
(1.04121 0.0849 8.20263e-21)
(1.02514 -0.000270581 2.29347e-22)
(1.01569 0.00453539 1.93827e-22)
(1.01561 0.00427179 -6.13081e-23)
(1.01535 0.00428693 -5.70803e-23)
(1.0178 -0.00548748 5.19739e-22)
(1.01812 -0.00570515 2.46646e-22)
(1.01801 -0.00530139 -1.10847e-23)
(1.03164 -0.0072385 4.39682e-22)
(1.03046 -0.00654299 4.68553e-21)
(1.0305 -0.00819464 -8.81747e-21)
(0.93913 -0.281791 8.00938e-21)
(0.905647 -0.305213 -7.57005e-21)
(0.942096 -0.307587 1.06184e-20)
(1.03813 -0.00351231 2.65494e-21)
(1.03775 -0.00320633 0)
(1.03766 -0.00361739 0)
(1.01197 -0.00140217 -8.59486e-22)
(1.01313 0.00722127 1.87565e-22)
(0.828243 0.255096 -7.36138e-21)
(0.831977 0.216262 1.28647e-21)
(0.858311 0.26623 -5.27232e-22)
(1.01588 -0.00507955 -2.12046e-22)
(1.0156 -0.0050985 1.85712e-22)
(0.972502 -0.0977948 1.30655e-20)
(0.9785 -0.107887 -1.25081e-21)
(1.01756 -0.00564738 2.32726e-22)
(1.01753 -0.00523401 3.57494e-22)
(1.02237 -0.00307324 -1.25503e-21)
(1.02206 -0.00314393 -1.25447e-21)
(1.02241 -0.00333787 2.60606e-22)
(1.01783 0.00220286 -2.55571e-22)
(1.01713 0.00185588 4.03761e-22)
(1.03387 -0.00399235 -2.58805e-21)
(1.03335 -0.00381441 -1.56106e-21)
(1.01902 -0.00022109 7.8322e-22)
(1.01904 -0.000304953 0)
(1.01919 -0.00022323 -2.98208e-21)
(0.885887 0.0211414 -4.26787e-21)
(0.863554 0.0151884 3.34732e-21)
(1.01661 -0.139376 -7.19651e-23)
(1.01728 -0.128602 7.15487e-23)
(0.802779 -0.0344174 2.13563e-22)
(1.03238 -0.00817523 3.32308e-21)
(1.03243 -0.0068232 0)
(1.02634 0.129483 3.5439e-21)
(1.05142 0.123728 4.44454e-21)
(1.08292 0.113968 -1.73881e-20)
(1.0124 -0.00545623 9.77254e-22)
(1.01297 -0.00606021 -3.19221e-22)
(1.01305 -0.00533998 9.86414e-22)
(0.624687 0.282666 6.32829e-22)
(0.587063 0.248588 -2.14167e-21)
(1.01161 0.000152667 -3.29623e-22)
(1.01141 0.000130986 -5.94481e-22)
(1.02878 -0.00016058 1.71252e-21)
(1.02914 -0.000487497 -4.69532e-21)
(1.15931 -0.0385978 1.01215e-20)
(1.18033 -0.0863245 -2.56269e-20)
(1.19483 -0.0876861 2.28917e-20)
(0.986068 -0.201471 1.60239e-21)
(0.972816 -0.201795 1.71074e-22)
(1.01822 -0.00415408 -7.40431e-22)
(1.01802 -0.00392708 3.26447e-22)
(1.01833 -0.00398261 8.41212e-23)
(1.02521 -0.00099212 2.24011e-21)
(1.02551 -0.000790983 0)
(1.01806 0.00865168 5.18149e-22)
(1.01867 0.00863164 -1.65226e-22)
(1.04624 -0.156606 -2.03798e-21)
(1.01276 0.0023743 1.1467e-22)
(1.01313 0.00233631 -7.73468e-22)
(1.01314 0.00282682 -6.59668e-22)
(0.991787 -0.033084 -3.00766e-22)
(0.994492 -0.0359446 -1.51884e-21)
(1.0361 -0.00479161 2.2045e-21)
(1.03599 -0.00488137 1.79654e-22)
(1.03581 -0.00476895 -3.98357e-21)
(1.02771 0.00174164 -4.54584e-21)
(1.0281 -0.000274482 4.80374e-22)
(1.02631 0.000745066 1.27069e-21)
(0.892657 0.0342038 -6.02936e-22)
(0.905695 0.0237999 -3.1449e-21)
(0.882233 -0.0205963 0)
(0.862538 -0.0168261 0)
(1.031 -0.00423625 -2.04031e-21)
(1.03097 -0.00381748 0)
(0.987528 0.138253 -1.51344e-20)
(0.951211 0.144239 -5.57249e-21)
(1.01002 0.000169426 4.72057e-22)
(1.01084 0.00018379 -3.32983e-22)
(1.01841 -0.00649924 -9.3061e-22)
(1.01936 -0.00643995 7.89826e-22)
(1.01858 -0.00568011 -2.00905e-23)
(0.82903 0.275719 -1.81906e-20)
(0.803405 0.243168 -3.0476e-21)
(1.0176 0.00817953 1.10804e-22)
(1.0175 0.00866194 3.69589e-22)
(0.83291 -0.14613 0)
(0.82815 -0.165067 0)
(0.847851 -0.153424 0)
(1.01735 0.061416 5.7503e-21)
(1.02616 0.0607668 1.17781e-21)
(1.0228 0.0706768 7.65355e-21)
(1.02332 -0.00153159 -1.33229e-21)
(1.02355 -0.00137434 5.76003e-22)
(1.02312 -0.00134609 -1.95351e-21)
(1.03412 -0.00449484 -3.69862e-21)
(1.01898 -0.000129795 8.66889e-22)
(1.01884 -0.000215286 -4.53106e-22)
(0.959833 -0.0137899 -1.90249e-21)
(0.958163 -0.0223115 1.61304e-22)
(1.14827 -0.00943088 6.84794e-21)
(1.01537 -0.0255394 -3.00592e-22)
(1.01524 -0.0233072 -2.76064e-23)
(1.015 -0.00110778 -9.34005e-22)
(1.01464 -0.00100206 5.58347e-22)
(1.01494 -0.000885635 -1.65638e-22)
(1.01406 0.0541161 -1.47672e-21)
(1.00901 0.0627287 2.81885e-21)
(1.00502 -0.0250292 1.17173e-23)
(1.0009 -0.0229271 3.93909e-22)
(1.00516 -0.0206917 8.64507e-22)
(1.01634 0.00546051 -2.93245e-23)
(1.0168 0.00571647 4.81991e-22)
(1.016 0.00478645 1.35196e-22)
(1.01631 0.00472077 -3.1211e-22)
(1.03864 -0.00354062 -1.22256e-20)
(1.03836 -0.00402524 2.362e-21)
(1.01116 0.000156038 -1.22316e-22)
(1.01144 0.000140805 3.47636e-23)
(1.01107 0.0001413 -3.03903e-22)
(1.0234 -0.043576 -1.4913e-21)
(1.02741 -0.0432903 -2.32454e-21)
(1.0248 -0.0400591 1.03748e-21)
(0.840987 -0.127078 0)
(0.818684 -0.135104 0)
(1.02143 0.000319832 -1.46729e-21)
(1.02109 0.000327357 2.63841e-21)
(1.02128 0.000145254 -3.55332e-24)
(1.01246 -0.0037083 -5.69016e-23)
(1.01212 -0.00377687 -2.8353e-22)
(1.0122 -0.00328219 -2.09789e-22)
(0.981447 -0.162923 2.66476e-21)
(0.993113 -0.160245 -1.96476e-21)
(1.01382 -0.00861236 1.78791e-21)
(1.01285 -0.00794402 4.85587e-23)
(1.01276 -0.00928847 1.19665e-21)
(0.993635 -0.0302266 1.97024e-21)
(0.989439 -0.0296836 -1.56058e-22)
(1.01359 0.00469592 -2.18243e-23)
(1.01435 0.00531746 -2.12252e-22)
(1.01421 0.00445566 1.46218e-21)
(1.01253 -0.00248893 -1.66522e-22)
(1.01272 -0.00213062 -3.19677e-22)
(1.01244 -0.00204953 1.67362e-22)
(0.813049 0.065015 -2.93813e-22)
(0.800388 0.0368396 -1.55718e-21)
(1.01277 -0.00361089 -2.09128e-22)
(1.01282 -0.00322621 -3.53533e-22)
(1.01302 -0.00354305 -5.95953e-23)
(1.01492 -0.00218699 -3.96734e-23)
(1.0146 -0.00195925 -8.66802e-22)
(1.01388 -0.000919104 -4.45403e-22)
(1.01378 -0.000846745 -4.02309e-22)
(1.01764 0.00704326 0)
(1.0182 0.0083126 4.23577e-24)
(1.0153 -0.00248395 4.01147e-22)
(1.00897 -0.000113628 -5.03175e-23)
(1.00761 3.80197e-05 9.57301e-23)
(1.02985 -0.00891309 0)
(1.02976 -0.00842259 3.12448e-22)
(1.0304 -0.00875383 0)
(1.03598 -0.004654 0)
(1.03609 -0.00511124 0)
(1.03629 -0.00466858 -4.06008e-22)
(0.988931 -0.0123371 5.911e-22)
(0.992921 -0.0165322 -9.16089e-22)
(1.03447 -0.0420623 8.0848e-21)
(1.03103 -0.0429137 -1.15133e-21)
(1.03202 -0.0396068 7.84573e-21)
(1.01311 -0.00222813 6.3875e-23)
(1.01326 -0.00224854 -6.55522e-23)
(1.01322 -0.00195735 1.81268e-22)
(1.04302 -0.013383 -8.12949e-22)
(1.04205 -0.0144638 1.82511e-23)
(1.04388 -0.0146854 0)
(1.01165 -0.00513358 0)
(1.01208 -0.00484922 0)
(1.0121 -0.00553553 4.03741e-23)
(1.03593 -0.00407053 -4.09553e-21)
(1.0356 -0.00466952 4.25585e-21)
(1.00127 -0.0174568 3.65868e-22)
(1.00202 -0.0196416 -8.47128e-22)
(1.00341 -0.0179152 4.08061e-22)
(1.01227 0.00152838 -6.25382e-22)
(1.01253 0.00198969 2.41024e-22)
(1.01257 0.00157973 -8.00344e-22)
(0.852909 0.0261392 -1.18816e-21)
(0.859397 0.0618049 -3.40982e-21)
(0.864236 0.0434429 1.48914e-21)
(1.01272 -0.00405624 1.49628e-22)
(0.984765 -0.00786647 2.59774e-21)
(0.991322 -0.00685716 1.95227e-21)
(1.00738 6.3974e-05 8.22675e-23)
(1.00877 -5.04834e-05 5.15489e-23)
(1.00788 -2.50603e-05 -1.08037e-22)
(1.0382 0.00146459 -2.28107e-23)
(1.03945 0.00272654 4.87351e-23)
(1.01703 0.00687682 4.08424e-23)
(1.01747 0.00721011 7.6925e-23)
(1.01742 0.00690067 -4.38202e-23)
(1.01662 0.00672436 2.90209e-23)
(1.01674 0.00642477 2.29005e-22)
(1.02749 0.00401552 -1.18009e-22)
(1.02941 0.00271975 -1.79211e-21)
(1.19201 -0.127873 -2.34666e-20)
(1.15979 -0.09453 -1.63142e-20)
(1.02276 -0.0190676 -1.49561e-22)
(1.02139 -0.0189545 -1.71641e-22)
(1.02208 -0.017724 -3.85959e-22)
(1.01199 0.00155387 2.60035e-22)
(1.01213 0.00118522 -1.60998e-22)
(1.01472 0.000567158 0)
(1.01476 0.000753387 3.37979e-22)
(1.01441 0.000636205 0)
(1.05305 -0.00522551 3.15659e-23)
(1.05095 -0.0044737 5.27807e-22)
(1.05133 -0.00664855 -9.07968e-23)
(1.02376 -0.00120846 1.95252e-21)
(1.02401 -0.0010437 1.89249e-21)
(1.02357 -0.0009854 0)
(0.97975 0.140786 2.99762e-23)
(0.969897 0.143916 0)
(0.972764 0.153282 -2.56997e-22)
(0.989434 0.132656 2.80405e-23)
(0.986672 0.126382 2.47783e-21)
(1.01842 -0.00436269 3.98031e-22)
(1.02528 -0.145277 7.95799e-22)
(1.01491 -0.151496 -2.115e-21)
(1.01837 -0.000396328 -9.63655e-22)
(1.01837 -0.000354288 0)
(1.0184 -0.000362771 0)
(1.03732 -0.0443817 0)
(1.01858 0.0063588 -6.01812e-22)
(1.01725 0.00599652 8.15699e-22)
(1.01606 0.00585655 -2.92013e-23)
(1.01624 0.00567671 -1.093e-22)
(1.01648 0.00606616 -2.22591e-22)
(1.00829 -0.000100572 7.71449e-22)
(1.00602 -5.37272e-05 9.21669e-23)
(1.00827 -5.48092e-05 -5.49402e-22)
(1.01113 -0.000103462 0)
(1.0103 -2.13682e-05 0)
(1.02314 -0.0017275 0)
(1.02349 -0.00172809 0)
(1.02989 -0.00943806 0)
(1.02928 -0.00905765 -1.48524e-21)
(1.03723 -0.000402323 -2.01911e-21)
(1.03678 -0.00140644 -2.23712e-21)
(1.03785 -0.000779268 -3.17845e-22)
(1.01205 -0.000330939 -6.87918e-24)
(1.01176 -0.000243905 6.33977e-22)
(1.01228 -0.000374092 -7.38214e-22)
(1.02493 -0.00117851 -2.1331e-23)
(1.02539 -0.00125043 -1.35027e-22)
(1.02179 0.000312863 3.14638e-22)
(0.817211 0.118573 -8.17407e-22)
(0.827096 0.108396 2.97384e-21)
(1.0193 -0.0207848 -4.56323e-23)
(1.01808 -0.0216689 4.00548e-23)
(1.01788 -0.0201501 -1.21139e-22)
(1.00664 -0.000167282 4.11544e-22)
(1.01037 0.0002642 -1.78977e-23)
(1.00871 0.00025656 -7.82655e-23)
(1.00944 0.000229343 1.54152e-22)
(1.02121 -0.00826286 0)
(1.02239 -0.00934472 9.42722e-22)
(1.03457 -0.00556001 -1.91929e-21)
(1.03484 -0.00578314 -2.22929e-21)
(1.03431 -0.00579043 -7.12556e-23)
(1.03742 0.000680258 -1.407e-21)
(1.03616 1.54196e-05 -2.80588e-21)
(1.01792 -0.000670649 0)
(1.01797 -0.000780933 0)
(1.01804 -0.000685982 -1.11982e-21)
(0.920275 0.00247678 1.34556e-20)
(0.886896 0.0853114 -2.25519e-20)
(0.947647 0.0050361 -5.08963e-20)
(1.01537 -0.00120916 -1.58756e-21)
(0.856196 -0.20669 -2.5914e-21)
(0.871098 -0.222196 4.07983e-21)
(0.862168 -0.203481 -4.19521e-21)
(0.865545 0.232586 -2.51046e-21)
(0.859199 0.225799 -7.1145e-21)
(0.874536 0.243848 5.83041e-21)
(1.00616 1.55476e-05 -5.33139e-22)
(1.00803 2.30621e-05 1.01741e-21)
(1.00856 -5.72004e-05 -3.3474e-23)
(1.00936 -0.000175242 -2.94286e-22)
(1.01013 -0.000278226 -3.31363e-23)
(1.01164 0.000411099 -7.00872e-22)
(1.01162 0.000101514 0)
(1.01136 0.000309958 0)
(1.05512 -0.00601023 -6.77249e-22)
(1.0544 -0.00343021 -3.74474e-22)
(1.04162 -0.00288634 -4.2168e-22)
(1.04104 -0.00260311 -3.60418e-21)
(1.04072 -0.00357051 -9.60281e-22)
(1.01916 0.00571385 -5.49852e-22)
(1.01859 0.00484866 1.61173e-23)
(1.01971 0.00497953 -3.81107e-24)
(0.843063 -0.185812 2.46215e-21)
(0.854668 -0.210212 0)
(1.01812 -0.000336064 1.48123e-21)
(1.01775 -0.000383218 1.5174e-21)
(1.01825 -0.000180528 -2.98705e-21)
(1.01172 0.000751518 2.13972e-22)
(1.01182 0.000505247 2.24921e-22)
(1.04228 -0.00315563 6.60098e-23)
(1.04248 -0.00209285 -3.73251e-22)
(1.02933 -0.0116979 9.16855e-23)
(1.03006 -0.0114363 -1.02158e-23)
(1.03004 -0.0122068 1.69099e-22)
(1.02827 -0.00657623 4.03646e-21)
(1.02773 -0.00643105 -8.2566e-23)
(1.02817 -0.00620192 3.65377e-21)
(1.01078 -0.00836577 -1.33108e-21)
(1.01167 -0.009495 5.06726e-22)
(0.962809 -0.00608955 -1.13574e-21)
(1.01347 0.000249818 7.41074e-23)
(1.01332 0.000613473 -4.5011e-22)
(1.01375 0.000681445 -1.96022e-22)
(1.04923 -0.00397909 0)
(1.04779 -0.00519136 0)
(1.04735 -0.00354545 0)
(1.0363 -0.00477437 0)
(1.03612 -0.00474944 0)
(1.01377 -0.000700245 -2.02974e-22)
(1.01372 -0.000504905 -5.49017e-23)
(1.01393 -0.000434607 2.3249e-22)
(0.977432 0.082411 -4.37344e-22)
(0.950873 0.152814 1.4404e-21)
(0.992468 0.140008 1.47468e-21)
(1.0247 0.127431 1.57458e-20)
(0.995118 0.0581815 -3.81326e-22)
(0.990876 0.0569098 4.29407e-23)
(1.01755 0.0076977 -1.34169e-22)
(1.01707 0.00772676 -4.27482e-23)
(0.929427 -0.26517 0)
(0.951669 -0.270808 -1.1331e-20)
(1.03512 -0.00602085 -1.79207e-21)
(1.03546 -0.00626325 1.1997e-23)
(1.03488 -0.00632775 2.98798e-21)
(0.821558 -0.0889851 2.86935e-21)
(0.789823 -0.0867362 8.22111e-21)
(1.0113 0.0459848 -2.02226e-21)
(1.00415 0.0474918 1.95251e-21)
(1.01645 0.000795321 -1.95906e-22)
(1.01595 0.000678726 6.79839e-22)
(1.01636 0.000461375 6.65418e-22)
(1.04164 -0.0056084 1.67864e-21)
(1.04195 -0.0064449 1.53112e-21)
(1.01851 0.0458615 -2.69101e-21)
(1.01643 -0.00794592 9.91556e-22)
(1.0176 -0.00820756 2.27345e-21)
(0.995656 -0.0276808 2.82268e-22)
(0.997722 -0.0301429 1.11562e-21)
(0.983414 -0.0361218 -3.96938e-21)
(0.988091 -0.0392299 4.13973e-21)
(0.981885 -0.0420165 0)
(1.01372 -0.000936523 0)
(1.01354 -0.000873208 -5.33848e-22)
(1.01359 -0.000939646 0)
(1.0118 -0.000280342 -9.05318e-22)
(1.01322 -0.00061957 -2.80342e-22)
(1.02836 -8.24969e-06 1.62135e-21)
(1.02831 -0.000333901 -4.90664e-22)
(1.00977 -4.72285e-05 0)
(1.00986 -4.18254e-05 0)
(1.00867 -1.00338e-05 0)
(1.01318 0.00615701 1.68051e-21)
(1.01259 0.00516675 -2.23289e-22)
(1.07136 0.114823 2.55036e-21)
(1.10288 0.104214 0)
(1.0839 0.110551 -2.16203e-21)
(1.01732 -0.00577299 2.76162e-22)
(1.01762 -0.00600645 -4.78392e-22)
(1.01378 -0.000853997 1.69889e-23)
(1.01363 -0.000974105 -3.92112e-22)
(0.953703 -0.0935145 2.40184e-20)
(1.01489 -0.00933259 1.58543e-22)
(1.01459 -0.007999 -7.21534e-22)
(1.01842 0.00401527 6.83435e-22)
(1.01761 0.00331711 -7.12443e-22)
(1.01796 0.00755789 6.17961e-23)
(1.036 -0.00883511 4.01046e-22)
(1.0368 -0.00870175 3.12102e-21)
(1.03612 -0.00830563 0)
(1.01393 -0.000994169 0)
(1.018 0.132103 6.99633e-21)
(1.03436 -0.00532998 1.62336e-21)
(1.03415 -0.00509923 3.4126e-21)
(1.03385 -0.00527607 3.2352e-21)
(1.02472 -0.00339466 -5.57522e-22)
(1.02493 -0.0035744 -2.32982e-21)
(1.02454 -0.00360543 0)
(1.02739 -0.010225 1.38256e-21)
(1.028 -0.0106925 2.07691e-22)
(1.02731 -0.0108795 1.86025e-21)
(1.01512 -0.0107934 -5.00113e-22)
(0.983703 -0.218313 -3.36586e-21)
(0.975862 -0.205464 2.66312e-21)
(0.994517 -0.207244 0)
(1.02993 -0.00357168 -2.6805e-21)
(1.02954 -0.00377902 5.54491e-22)
(1.05797 -0.0460521 6.85634e-22)
(1.05422 -0.043163 -2.2257e-22)
(1.05398 -0.0480628 7.3323e-22)
(1.01572 0.00481968 8.39361e-23)
(1.01526 -0.00873268 0)
(1.01758 -0.0103737 2.62437e-21)
(1.01748 -0.00745584 0)
(0.827271 0.0685467 2.05133e-21)
(0.790922 0.0512402 2.30212e-21)
(0.963047 -0.0972924 3.29049e-21)
(0.968534 -0.0888049 5.7331e-21)
(1.01229 -0.00703136 2.19714e-21)
(1.01258 -0.0104426 -1.51614e-21)
(1.03509 -0.00883779 4.17863e-22)
(1.03559 -0.00946042 -1.32714e-21)
(1.02683 -0.00895827 -8.10231e-22)
(1.02513 -0.00816234 5.09188e-22)
(1.02563 -0.0100401 8.52628e-22)
(0.98801 0.140334 6.1255e-24)
(0.917005 0.167825 1.25276e-24)
(1.00817 -0.000136473 1.84988e-23)
(1.00957 -3.37029e-06 7.29462e-22)
(0.846983 -0.00956049 -2.76818e-21)
(0.845638 0.00862532 1.86951e-21)
(1.01107 -0.00732424 -2.01575e-21)
(1.01005 -0.00719417 -2.61513e-21)
(1.01065 0.000163152 3.5477e-22)
(1.01124 0.000186622 -1.69879e-22)
(0.873827 0.231401 -6.51123e-21)
(0.8591 0.21928 -1.95017e-21)
(0.997416 -0.0253202 -9.9361e-22)
(0.993886 -0.0247596 -9.61267e-22)
(0.913271 0.167896 -9.32897e-22)
(0.876133 0.180356 6.60603e-22)
(1.02445 -0.00324004 -3.32727e-21)
(1.02486 -0.00324127 -2.21557e-21)
(1.01945 -0.0433402 -1.56375e-21)
(1.02221 -0.0474533 -7.46945e-21)
(1.08429 -0.164349 0)
(1.08599 -0.181816 0)
(0.997703 0.00400649 -7.03208e-22)
(0.997567 0.00640188 -1.86877e-22)
(0.999714 0.00535964 -8.77286e-22)
(1.01588 -0.00473821 -5.11979e-22)
(1.01562 -0.00451532 7.58987e-22)
(1.01585 -0.00445095 6.06196e-22)
(0.811962 0.129045 3.10059e-22)
(1.03502 -0.00973664 -5.24137e-21)