/*--------------------------------*- C++ -*----------------------------------*\
| =========                 |                                                 |
| \\      /  F ield         | OpenFOAM: The Open Source CFD Toolbox           |
|  \\    /   O peration     | Version:  v2012                                 |
|   \\  /    A nd           | Website:  www.openfoam.com                      |
|    \\/     M anipulation  |                                                 |
\*---------------------------------------------------------------------------*/
FoamFile
{
    version     2.0;
    format      ascii;
    class       volScalarField;
    location    "900";
    object      k_0;
}
// * * * * * * * * * * * * * * * * * * * * * * * * * * * * * * * * * * * * * //

dimensions      [0 2 -2 0 0 0 0];


internalField   nonuniform List<scalar> 
10042
(
0.00226815
0.0168627
0.000228566
0.000141776
0.000142264
0.00150112
0.000269538
0.00445287
0.000134975
0.000196084
0.00636862
0.0189639
0.000168519
0.000143654
0.000146063
0.000143571
0.000789023
0.00617148
0.000153297
0.00016025
0.000168439
0.00239278
0.000141668
0.00719482
0.000141488
0.000151479
0.000189318
0.000134063
0.00115618
0.00611658
0.000156891
0.000174666
0.000134628
0.000134537
0.00605795
0.0075548
0.000150229
0.000135604
0.000149672
0.000150454
0.00668262
0.000134797
0.000228797
0.0303585
0.000141532
0.000141541
0.000132684
0.000145767
0.000194389
0.000302711
0.000233822
0.000140841
0.00089835
0.000152715
0.0346893
0.0616084
0.00016686
0.00305579
0.000146238
0.000130724
0.000194252
0.0354486
0.00021878
0.00251868
0.000395503
0.000146778
0.000159195
0.00306475
0.000132518
0.00305462
0.000253014
0.000149159
0.000137204
0.000146055
0.000146075
0.000247168
0.000448431
0.000132658
0.000469254
0.00015339
0.0263808
0.00688702
0.000168731
0.000140204
0.000175201
0.000231871
0.000158333
0.00021616
0.000141093
0.000321902
0.000160829
0.000146161
0.000219254
0.000242969
0.000282767
0.000144085
0.0768947
0.000159383
0.0116058
0.000145889
0.000160103
0.000210834
0.000146586
0.000169447
0.000155342
0.000145633
0.00966615
0.000145328
0.000269115
0.00014588
0.000145707
0.000264287
0.00021863
0.00352619
0.000301187
0.000132548
0.00020915
0.000154939
0.00193018
0.00013246
0.000130706
0.0211776
0.0212385
0.000141638
0.000388603
0.000141798
0.000142099
0.0386498
0.000222492
0.000211001
0.000135714
0.000143714
0.000143692
0.000144308
0.000263792
0.000256494
0.000160738
0.015418
0.000150276
0.0103644
0.00019765
0.00013834
0.00614492
0.000134105
0.000157595
0.000135647
0.000171322
0.000132426
0.000148853
0.00901577
0.000144469
0.000145251
0.000151172
0.000172984
0.000253883
0.000157984
0.000219575
0.0632976
0.000143909
0.000153593
0.000153398
0.000156272
0.000255288
0.000141404
0.000149204
0.00746557
0.000137122
0.000170874
0.00709107
0.000134233
0.000254642
0.00547718
0.0122719
0.000134356
0.000152667
0.018188
0.000141791
0.000135556
0.000143079
0.000132519
0.000149979
0.000155477
0.000146078
0.000132247
0.00262041
0.000161094
0.000149255
0.000131264
0.000489074
0.000146346
0.0174068
0.000166813
0.000135883
0.000154978
0.0420696
0.000146116
0.00117453
0.000267656
0.0934056
0.000140355
0.000243779
0.000207902
0.000283201
0.000137037
0.0105382
0.000143132
0.00739141
0.000172478
0.000145434
0.000144636
0.000173111
0.000135833
0.000286997
0.000240592
0.000151276
0.00180158
0.000136519
0.00105253
0.000143941
0.000238361
0.0184445
0.000242636
0.0282263
0.0021844
0.000141766
0.000208341
0.000147621
0.000159796
0.000178249
0.000146735
0.000135633
0.000142565
0.00016125
0.000161525
0.000141773
0.00546534
0.000158519
0.0805773
0.000156249
0.0073892
0.000377551
0.000684294
0.000130619
0.000167704
0.0126528
0.000143022
0.000343054
0.00015553
0.000151411
0.000146772
0.000154617
0.000136077
0.00777509
0.0242112
0.000148645
0.000157762
0.000150147
0.000149382
0.0743669
0.000141802
0.000451381
0.000136046
0.000140728
0.00013278
0.000169735
0.0184147
0.000370877
0.00732638
0.000162175
0.000142658
0.000143621
0.000287704
0.00014133
0.000278308
0.000149103
0.000722187
0.000149284
0.000141395
0.000162848
0.0359514
0.00013405
0.0026506
0.00172517
0.000149009
0.000161681
0.0940118
0.000212893
0.000133093
0.00225562
0.000148952
0.000165351
0.000199526
0.000164626
0.00348355
0.000479527
0.000143141
0.0309623
0.00015966
0.000143706
0.000137086
0.000150877
0.000273164
0.000131301
0.000429713
0.000210236
0.0354655
0.000142667
0.000173688
0.03122
0.00433702
0.000155526
0.000143379
0.000143864
0.000143152
0.000201877
0.00226989
0.00013281
0.00234455
0.00720771
0.000132459
0.000154761
0.000288548
0.000524768
0.00306614
0.00289216
0.000154327
0.000220743
0.00014275
0.000158716
0.00016397
0.00014308
0.000144232
0.00172437
0.000146872
0.00743282
0.00281337
0.00301816
0.00272915
0.000136268
0.00552705
0.000197262
0.000168836
0.000130657
0.000201955
0.000158149
0.000135531
0.000140014
0.000143657
0.00016624
0.0871765
0.000147677
0.000307932
0.000165329
0.000140711
0.035778
0.000236735
0.000147645
0.000167853
0.00038849
0.000158286
0.000145383
0.000151269
0.000149139
0.00595739
0.00444612
0.000149505
0.000141294
0.000159602
0.000160779
0.0440146
0.000130873
0.000171246
0.000141841
0.000149451
0.000221359
0.000143883
0.000949681
0.000317414
0.00394362
0.000217151
0.000144637
0.000317974
0.000177223
0.000142381
0.000180373
0.000132551
0.000145619
0.000132342
0.000144539
0.000133083
0.000149083
0.075173
0.00014764
0.000227841
0.00332962
0.0272649
0.000142247
0.0048273
0.000150973
0.00017502
0.000140938
0.0762035
0.00016504
0.0333456
0.0738286
0.000141278
0.000194415
0.000149408
0.000324606
0.000148812
0.0019749
0.000159527
0.00119124
0.000147361
0.000707246
0.000153462
0.000160902
0.040865
0.000133114
0.000151943
0.000144562
0.00272529
0.00013565
0.00013216
0.000199159
0.000159569
0.000180958
0.00163883
0.00014165
0.000168896
0.00015962
0.000132663
0.000159754
0.00662308
0.000147291
0.000148808
0.000406518
0.00141719
0.000154807
0.065143
0.000134267
0.000194392
0.000181027
0.000395065
0.000263381
0.00365724
0.000463555
0.00024857
0.00337907
0.000132101
0.000423014
0.0314612
0.0295285
0.000178751
0.000141651
0.000140376
0.000274346
0.0739358
0.000132291
0.000136735
0.000159721
0.000142063
0.000150226
0.000152929
0.000143987
0.000164738
0.00279205
0.000149007
0.000195518
0.000265104
0.000248435
0.000135205
0.0688578
0.000396638
0.01305
0.000145075
0.00015747
0.000154274
0.0295294
0.000143738
0.000266701
0.000147327
0.0118871
0.000140031
0.000154693
0.000136373
0.000337736
0.00508097
0.000152946
0.000139704
0.000143829
0.0263713
0.00013596
0.000230215
0.000209309
0.00019431
0.000138723
0.000232983
0.00303344
0.000297955
0.000144926
0.000158475
0.00184812
0.0284683
0.000175652
0.00665782
0.000147667
0.00147212
0.000167434
0.000162356
0.000153647
0.00807501
0.00013835
0.000141548
0.000146188
0.00488447
0.000141664
0.000308672
0.00014205
0.00014458
0.000135681
0.000160611
0.00767903
0.000146547
0.000148735
0.00830773
0.000253727
0.000186314
0.000146436
0.000144765
0.0016556
0.00028449
0.000144882
0.000133742
0.00020176
0.000144385
0.000143765
0.0118052
0.000135564
0.0171962
0.000141063
0.000181104
0.00018763
0.06669
0.00014175
0.000158472
0.000145114
0.000136729
0.00850374
0.000130612
0.000210824
0.000175418
0.000134906
0.000206299
0.00165007
0.000551756
0.000250066
0.000146628
0.00013371
0.000132343
0.000144786
0.000254751
0.000145924
0.0324991
0.000143667
0.000135502
0.0324442
0.000155415
0.000294252
0.000157192
0.000139357
0.0324153
0.0062098
0.00017745
0.0080539
0.000143563
0.000159618
0.000134747
0.000135022
0.000144433
0.000143464
0.000145182
0.000146778
0.0941533
0.000146937
0.00225793
0.000141061
0.000167519
0.000132884
0.000193174
0.000708984
0.000134934
0.000141276
0.00257311
0.000236546
0.000133026
0.0061466
0.000141621
0.00170922
0.000135687
0.000152015
0.000136589
0.000568382
0.000132939
0.000141692
0.000144816
0.00829657
0.000152749
0.000144155
0.000146985
0.000529865
0.000142243
0.000142101
0.000137714
0.000142164
0.00015434
0.000141951
0.000161691
0.00013497
0.0737303
0.0316309
0.0067259
0.000148794
0.000154184
0.000143499
0.00536903
0.0001504
0.00717998
0.000268807
0.00791941
0.00176309
0.000321039
0.000143557
0.000144447
0.00174025
0.000377459
0.000226744
0.000195512
0.000146114
0.00508709
0.00013994
0.000145072
0.000135363
0.000135861
0.000153
0.00214817
0.000148954
0.000150289
0.0781872
0.000143159
0.00664572
0.000145699
0.000148766
0.000209925
0.000146043
0.00713128
0.00014279
0.000142912
0.000439702
0.00014478
0.000133208
0.000158024
0.00014044
0.000139371
0.00805579
0.0191337
0.0334257
0.000145532
0.000140806
0.000140411
0.00492612
0.00014979
0.000145667
0.000138713
0.000139404
0.00150449
0.000344155
0.000237316
0.000148324
0.000161445
0.07783
0.000159338
0.000171451
0.00018296
0.00494638
0.0348175
0.00312863
0.000139823
0.000146501
0.000143248
0.00170948
0.000139692
0.000155543
0.000143789
0.000130692
0.000201435
0.000147395
0.000905227
0.00647561
0.000133016
0.000141437
0.00013205
0.00339936
0.000135773
0.000910019
0.000156469
0.000406984
0.000140635
0.000141572
0.000134992
0.000141474
0.000144027
0.000132565
0.00014383
0.000147531
0.000239854
0.000154035
0.00573206
0.000143565
0.000262315
0.0056004
0.000153711
0.0646106
0.000140797
0.000143623
0.000174653
0.000148914
0.0088437
0.000143791
0.00014847
0.00013596
0.0232111
0.000140839
0.00113953
0.000171655
0.00014089
0.000177707
0.00264744
0.000143695
0.000137391
0.000195281
0.000171186
0.000433683
0.000220947
0.00037113
0.000227717
0.000145312
0.000145164
0.000146562
0.000163358
0.0001838
0.00441782
0.000243343
0.000130689
0.000147108
0.000149449
0.000180986
0.000171307
0.000786948
0.000146628
0.000145134
0.000285925
0.00014051
0.00019248
0.000164098
0.000162894
0.000599857
0.000170312
0.000141292
0.000148117
0.00017431
0.000143281
0.0325615
0.000147214
0.000172793
0.000156077
0.0174452
0.000146813
0.000160519
0.000172146
0.000147775
0.000170406
0.000134222
0.000170073
0.000142211
0.000147162
0.000142665
0.000144002
0.000150702
0.000176896
0.000154339
0.000145782
0.00370924
0.000134354
0.000140741
0.000141095
0.000132175
0.000251243
0.00015796
0.000150924
0.0004256
0.00385758
0.000143945
0.000898249
0.000366009
0.000139165
0.000142536
0.00013206
0.00735383
0.00525173
0.000154696
0.000140397
0.000180963
0.000272062
0.0696233
0.000150872
0.00866221
0.00024204
0.00587258
0.00016824
0.000133077
0.000151358
0.00956034
0.00163536
0.000147027
0.073629
0.000730541
0.00051299
0.00837163
0.000144586
0.000303634
0.000401168
0.000215264
0.0139998
0.000163149
0.0912411
0.000150546
0.00489797
0.000144697
0.000335763
0.000155496
0.000185748
0.000131396
0.000145396
0.000141408
0.00231432
0.000142916
0.000130815
0.0369455
0.00014412
0.000159144
0.000152707
0.00403866
0.000144637
0.000149078
0.000146994
0.000143847
0.000143002
0.000156911
0.000139492
0.000436292
0.000621903
0.000213232
0.000143249
0.0338373
0.000139095
0.000192408
0.00332742
0.000201692
0.000143351
0.000132505
0.000143787
0.000151085
0.00105909
0.000180203
0.000140579
0.0099878
0.000143713
0.000145895
0.00755178
0.000132253
0.00014622
0.00660806
0.000140057
0.00612009
0.000150281
0.000129219
0.000159383
0.000180881
0.000216785
0.000143954
0.0880184
0.0852503
0.000141176
0.00016726
0.000590289
0.000378217
0.000256697
0.000155358
0.000138623
0.000182414
0.000145414
0.000162486
0.00112823
0.000154159
0.000132334
0.000167782
0.0125094
0.0056197
0.000132442
0.000132056
0.000151899
0.000146369
0.000929122
0.00853623
0.000137674
0.000156281
0.00836471
0.00014694
0.000156718
0.0288732
0.000151107
0.000314415
0.000153866
0.000146408
0.000145644
0.000154742
0.00115649
0.000209256
0.000145507
0.00483896
0.00200343
0.0291243
0.000153895
0.000150498
0.0398044
0.000171074
0.00774532
0.00016475
0.000144393
0.00014249
0.0243126
0.000422427
0.000151944
0.000155591
0.000174715
0.000142877
0.000203007
0.000152053
0.000142142
0.000153504
0.000169367
0.000141268
0.000141492
0.102505
0.000140763
0.000138355
0.000180564
0.000157188
0.00642015
0.000155939
0.000148456
0.030133
0.000180275
0.000156973
0.000168388
0.00330504
0.000141226
0.000135027
0.000157115
0.00284487
0.000140098
0.000146931
0.000142305
0.000141269
0.000142554
0.0381003
0.000147232
0.00591423
0.000144856
0.000181994
0.000137643
0.000146995
0.00018874
0.00415408
0.00025123
0.000143468
0.000157269
0.00838264
0.00178677
0.000186673
0.000148761
0.00334079
0.000141448
0.000204964
0.000200972
0.000148082
0.000151177
0.000141045
0.000201664
0.00251872
0.00650561
0.000142463
0.000148188
0.000158012
0.00121947
0.00013966
0.000137376
0.000175655
0.000131555
0.000138836
0.000258798
0.000146541
0.00328581
0.00013605
0.000137629
0.000135349
0.000176369
0.000148572
0.000155517
0.00037082
0.000139052
0.000147598
0.00226076
0.000142574
0.000196787
0.000158174
0.00759461
0.00684538
0.000158874
0.0128858
0.000160411
0.000144918
0.00135875
0.000148457
0.000141624
0.000132627
0.000140929
0.00017129
0.0238648
0.000184688
0.0050432
0.00878365
0.00421012
0.000280157
0.00639634
0.000153321
0.000177333
0.000134156
0.000160418
0.000145537
0.000147632
0.000147484
0.0853681
0.00469541
0.000143588
0.00800846
0.000137968
0.00025176
0.000145614
0.000152854
0.000158858
0.000852955
0.00789426
0.000142329
0.000133172
0.000307603
0.000208028
0.000235073
0.000191733
0.00774651
0.000147997
0.00841974
0.00205274
0.000139224
0.000138526
0.000140639
0.000155475
0.000144141
0.00014899
0.000151685
0.000145112
0.000148228
0.000148063
0.000143205
0.000649975
0.004457
0.00013347
0.0128159
0.000151144
0.000174949
0.000195186
0.000586172
0.000139212
0.000180596
0.000192397
0.000136081
0.000179553
0.00879842
0.000146506
0.000138716
0.000154092
0.00519015
0.00644214
0.00013706
0.00408877
0.000146389
0.000145851
0.000300919
0.000141525
0.000140845
0.000138157
0.000142303
0.000160519
0.00296875
0.000170342
0.000142667
0.000143156
0.00014455
0.00014173
0.00575383
0.000132987
0.000171793
0.0354794
0.00798118
0.000137866
0.00325756
0.000138704
0.0169283
0.000153909
0.000209052
0.000134029
0.00429018
0.000491564
0.00167099
0.00014429
0.00142627
0.00453215
0.00653453
0.000148936
0.00419989
0.000142239
0.00603477
0.00557994
0.00018134
0.000285583
0.00682369
0.00272435
0.0753235
0.000225616
0.00617951
0.000138463
0.000154913
0.00414896
0.00019991
0.000143057
0.011669
0.000148695
0.000139577
0.00014064
0.000752657
0.000200028
0.000178126
0.00168028
0.00016227
0.00561931
0.000149398
0.000141525
0.000147243
0.00435262
0.00235795
0.000162004
0.00424027
0.000146861
0.000149412
0.000166104
0.0012412
0.000177974
0.000139603
0.0116583
0.00312385
0.000152712
0.000207854
0.000136572
0.000167745
0.000257352
0.000140798
0.00952163
0.00394963
0.00014286
0.000149231
0.000140521
0.00534713
0.000156861
0.000250638
0.000150587
0.00014108
0.000142419
0.000133767
0.00016834
0.000138683
0.000214483
0.000164397
0.000199795
0.000310311
0.000147936
0.000160005
0.00641423
0.000152514
0.000190363
0.000152501
0.000144385
0.0351075
0.00407025
0.000147909
0.000262569
0.000178144
0.00220229
0.000140845
0.00014215
0.0001974
0.000155961
0.00018677
0.000229697
0.000150012
0.000156478
0.00111093
0.000186141
0.000152851
0.00431093
0.000231044
0.0044403
0.000140658
0.000132738
0.000878887
0.000139938
0.00130676
0.00422844
0.000211847
0.00697451
0.000147247
0.000143166
0.000271052
0.0045914
0.00014172
0.00026456
0.000169719
0.000142554
0.00019672
0.000149275
0.000146997
0.000176936
0.000153566
0.000140478
0.000152167
0.000140943
0.000155052
0.00585415
0.000164704
0.00686339
0.000143684
0.000159188
0.000140411
0.000142953
0.00475062
0.000145105
0.00758763
0.00665083
0.000148762
0.0124298
0.000167677
0.00116593
0.000132145
0.00678234
0.00021094
0.000388585
0.000152195
0.000152692
0.000139741
0.0312152
0.000152747
0.000128123
0.000169197
0.00013653
0.00161795
0.000131905
0.0989905
0.000140882
0.0170706
0.000143274
0.000137928
0.000135182
0.00469409
0.000139552
0.000136868
0.000134293
0.000140229
0.000143518
0.000200561
0.00276332
0.000138279
0.000157101
0.000146239
0.000140771
0.000138837
0.00235586
0.0856517
0.000156288
0.000144523
0.000138945
0.000135247
0.000154493
0.000155591
0.000134783
0.00405157
0.0477223
0.000395989
0.000137339
0.000140247
0.000143161
0.000151597
0.000138598
0.000148351
0.00014347
0.00013946
0.000203605
0.000153924
0.00021872
0.00301955
0.0752367
0.000155252
0.000140792
0.000142857
0.0386356
0.000145494
0.000161211
0.000169749
0.000137236
0.000144282
0.000141505
0.0204912
0.000146165
0.012556
0.00359085
0.000182953
0.000143513
0.000156329
0.00519874
0.000153132
0.000170367
0.000157825
0.000171144
0.000136934
0.000157071
0.010596
0.00683465
0.000139482
0.000145
0.0302729
0.000154865
0.000180583
0.000171181
0.00384868
0.000143213
0.000156374
0.000757059
0.0348129
0.00019101
0.000138495
0.00014311
0.000139273
0.000145887
0.000341121
0.00621252
0.00919363
0.0001384
0.00908309
0.000156562
0.0160693
0.00647067
0.000141646
0.00200485
0.00091595
0.000139094
0.000190012
0.00016601
0.000147397
0.00494319
0.000139654
0.0831441
0.000184385
0.0660849
0.000287228
0.000177262
0.000144584
0.0001569
0.000148171
0.000140237
0.000135823
0.00013584
0.000314622
0.000148175
0.000171033
0.00652117
0.0798575
0.00017096
0.000203123
0.000139504
0.0588361
0.000132814
0.00562065
0.000352207
0.0744872
0.000251393
0.00462428
0.0373439
0.000134174
0.000146828
0.00013515
0.000203837
0.000153689
0.00315507
0.000154871
0.032777
0.000158271
0.000137414
0.000137008
0.00014531
0.000134202
0.00386471
0.00132174
0.0875941
0.000140032
0.000171218
0.000153113
0.00015548
0.000210309
0.000144262
0.00630588
0.00465117
0.000147764
0.000156503
0.00597825
0.000158233
0.000384443
0.00363859
0.000147676
0.00625866
0.000154816
0.101831
0.000140646
0.000595731
0.000144295
0.00317353
0.000220363
0.0025678
0.00400086
0.0261237
0.000215348
0.000215973
0.000150122
0.000146331
0.0053596
0.00447335
0.000214566
0.000158883
0.0583062
6.8252e-05
0.00302436
0.000172931
0.0253535
0.00016225
0.000167263
0.000512535
0.000150292
0.000160859
0.000169827
0.000133362
0.000137201
0.000140909
0.000145177
0.000398554
0.000148434
0.00445913
0.000210178
0.000227433
0.00514931
0.00553323
0.00013632
0.000147586
0.00631893
0.000494359
0.000163527
0.00304521
0.0601877
0.00581905
0.000139683
0.000165409
0.000153581
0.000206308
0.000202433
0.00390615
0.00455217
0.000185585
0.000146357
0.000152051
0.000201937
0.000403584
0.000181801
0.0048021
0.000140696
0.000170019
0.000151141
0.0110296
0.000152091
0.000136339
0.000140286
0.000150742
0.0247662
0.00410959
0.000147136
0.00019627
0.0058259
0.00015438
0.000657973
0.000170463
0.000164325
0.000168247
0.0001663
0.000261239
0.000141536
0.0001406
0.000152279
0.000242886
0.000208367
0.000167656
0.000148904
0.00015086
0.000146723
0.0300992
0.000168695
0.000152003
0.000146334
0.00540467
0.000158087
0.00411131
0.000150178
0.000162488
0.000141587
0.000242962
0.000269634
0.000182917
0.000978428
0.00014013
0.000165647
0.00592436
0.000159018
0.00576867
0.000269945
0.000145941
0.000150751
0.000323367
0.000143274
0.0197609
0.000145948
0.0017782
0.00840985
0.000132905
0.000151293
0.000140962
0.000141927
0.000143355
0.000154409
0.00013248
0.000147115
0.000140681
0.000138915
0.000152343
0.000152626
0.000152312
0.000151129
0.000286572
0.000145134
0.00205034
0.000148205
0.000145049
0.000317061
0.000141466
0.0159682
0.00602801
0.000146003
0.000148529
0.000172746
0.0039212
0.000170699
0.000581977
0.000161418
0.000152863
0.0239163
0.0001391
0.0944503
0.000145571
0.00492862
0.000134286
0.067332
0.0661118
0.00413555
0.000147466
0.000152229
0.000139272
0.000152051
0.0018869
0.000140927
0.00014338
0.00017707
0.000167805
0.0333172
0.000630337
0.000148437
0.00017394
0.000144363
0.000158941
0.00014954
0.000143396
0.000148584
0.000350356
0.0687129
0.000240234
0.000151662
0.000148489
0.000150312
0.000214972
0.0269439
0.00019053
0.0110626
0.00437763
0.000150762
0.000152634
0.000205171
0.000139448
0.000152435
0.00018756
0.000150334
0.00524955
0.000150733
0.00452772
0.000145141
0.000147975
0.000204749
0.000151156
0.000152855
0.000155048
0.000157659
0.0045003
0.000153249
0.000162524
0.000146632
0.0941085
0.000513741
0.000153746
0.000147384
0.000138662
0.000154658
0.000145073
0.000708114
0.000140413
0.000149136
0.00014521
0.000167656
0.000163467
0.000146819
0.000926754
0.000147973
0.000148639
0.0305909
0.00015176
0.000153729
0.00359411
0.000147419
0.014355
0.000139576
0.000138745
0.000148625
0.000180161
0.000137029
0.00350741
0.000148548
0.000141864
0.0128782
0.00437816
0.0682886
0.00461069
0.00161875
0.000156537
0.000138098
0.000151145
0.00537866
0.000160154
2.53622e-05
0.000149261
0.000166031
0.000220221
0.000313947
0.000138512
0.0211451
0.00263137
0.000140738
0.000156338
0.000146943
0.00014914
0.00153556
0.00028196
0.000145207
0.000139357
0.000134055
0.00582229
0.000146817
0.000678591
0.000169428
0.000146428
0.000140527
0.000141968
0.0116053
0.000291506
0.000140083
0.000324979
0.000389714
0.000148146
0.00631425
0.000146038
0.000138268
0.000138517
0.000145498
0.000136065
0.000146032
0.000146548
0.000150086
0.000146016
0.00019945
0.000151046
0.00975267
0.000164124
0.000143124
0.0069723
0.000134005
0.000146706
0.000192588
0.000140528
0.00113073
0.000141245
0.000206156
0.0360163
0.000138164
0.00033421
0.00598598
0.000145023
0.000148274
0.000145122
0.0349303
0.000145671
0.00566922
0.00350441
0.000151548
0.000159117
0.000176011
0.00299322
0.000145256
0.00118476
0.000146605
0.000263044
0.000293008
0.000184825
0.00180453
0.00014717
0.000214774
0.00048785
0.000227025
0.000145102
0.000185462
0.000150635
0.000181212
0.000137057
0.000156787
0.001698
0.000158179
0.00138411
0.000260203
0.000171215
0.00477138
0.000137684
0.000222956
0.000145413
0.000157194
0.000229232
0.00340529
0.0179286
0.000169409
0.000156311
0.0103852
0.0001708
0.000140785
0.000139301
0.000147598
0.000153927
0.000155627
0.000141834
0.0172043
0.000157785
0.000144406
0.000135536
0.000143058
0.00014268
0.000260074
0.000140183
0.000246283
0.00015374
0.0127354
0.000152721
0.000145217
0.000132486
0.000197105
0.000149953
0.000305063
0.00104227
0.00365587
0.000155392
0.00014866
0.000143805
0.000140442
0.000140276
0.00243838
0.000147425
0.000147588
0.00216304
0.000144538
0.000149353
0.000881254
0.021401
0.0237857
0.000156048
0.005045
0.00961672
0.000141207
0.000139721
0.000170643
0.0112871
0.000242108
0.00257033
0.000243274
0.000144209
0.000138991
0.00160985
0.000159126
0.000147073
0.000184238
0.000146616
0.000151642
0.00446395
0.0186559
0.000188517
0.000158044
0.00016081
0.000183431
0.0317929
0.000145321
0.000140338
0.000144158
0.00134491
0.000140069
0.000154843
0.0215207
0.00135561
0.000137349
0.000140577
0.000132818
0.000145558
0.00014536
0.000175468
0.00026361
0.000149212
0.000261228
0.00429253
0.0448879
0.000168805
0.000148081
0.000145106
0.000142156
0.000139227
0.000134931
0.000145594
0.0276195
0.0326135
0.000140615
0.000137784
0.000146991
0.000147112
0.0346151
0.000176525
0.0187995
0.00480486
0.000268645
0.000196628
0.000142897
0.000143401
0.000142484
0.000146635
0.0015471
0.000143913
0.000154161
0.000142746
0.0215977
0.00410173
0.000214876
0.00028567
0.00352755
0.000143398
0.000170572
0.0119012
0.000549797
0.000144811
0.000152419
0.000148156
0.000145041
0.000145326
0.0343718
0.000142433
0.000142257
0.00279938
0.000153591
0.0126813
0.000142776
0.000138187
0.000171164
0.00125706
0.000237958
0.00397933
0.000162484
0.0269724
0.000170526
0.000140839
0.0137073
0.00014156
0.000152987
0.000145852
0.000138459
0.0857112
0.00406105
0.00549205
0.000227718
0.00507144
0.00304949
0.00130427
0.000139713
0.000146712
0.0231045
0.000143308
0.000146399
0.000152121
0.000144506
0.00870859
0.000145732
0.0114149
0.000331315
0.000134098
0.0126396
0.00014682
0.000141908
0.000164272
0.000163607
0.000165899
0.000168572
0.000169646
0.00377991
0.000146484
0.000142827
0.000144941
0.000173623
0.00035411
0.000140289
0.000148318
0.000243673
0.00349384
0.000141301
0.000170901
0.000171388
0.000137283
0.000143986
0.000142706
0.00756625
0.000320875
0.000171386
0.00014991
0.000143645
0.000167333
0.00578394
0.000146238
0.00395083
0.00487134
0.000145433
0.000168136
0.00125527
0.00116939
0.000171583
0.00013492
0.000139488
0.0277246
0.000179177
0.00652836
0.00015714
0.00122024
0.000187602
0.00761239
0.000531843
0.00710669
0.000329466
0.0309596
0.00403444
0.00091786
0.000148127
0.00407327
0.000149771
0.0242281
0.000150688
0.000148885
0.000170999
0.0323484
0.00614083
0.000152442
0.000145965
0.00177761
0.0121619
0.000435736
0.000139075
0.000142336
0.00014353
0.000155243
0.000146658
0.000171918
0.0158782
0.00537257
0.000154398
0.00014252
0.000219039
0.000146472
0.000144116
0.00356156
0.000145686
0.000153045
0.000135375
0.000897176
0.000190906
0.00410679
0.000152091
0.00126641
0.00354537
0.000166145
3.89704e-05
0.0487851
0.0122124
0.0335261
0.000141106
0.000145213
0.00020335
0.000144614
0.000147404
0.000142949
0.000147055
0.000165401
0.000180855
0.000140927
0.00724595
0.000149961
0.0036285
0.000148635
0.0303392
0.0320302
0.000191357
0.000380142
0.0293127
0.000191703
0.0220416
0.0583389
0.000147235
0.000145805
0.000189966
0.000164933
0.00570496
0.000140884
0.000149507
0.00803552
0.000143269
0.00013912
0.000148001
0.000138454
0.00127448
0.000145719
0.000165741
0.000146249
0.0130797
0.000142656
0.0573722
0.00561856
0.00472088
0.0162139
0.000134569
0.000170239
0.000146738
0.000143992
0.000847658
0.000573476
0.000277168
0.00527199
0.000134435
0.000149682
0.000153463
0.000144746
0.0067726
0.000140803
0.000162498
0.0033001
0.00531113
0.000231536
0.000142681
0.000147103
0.0232218
0.000185333
0.000256632
0.00715246
0.000935603
0.0165917
0.000152783
0.000141838
0.000140655
0.000147372
0.00230888
0.000152039
0.000313625
0.000144173
0.000146495
0.00313246
0.000140315
0.00384406
0.000166666
0.000146242
0.000171042
0.0317697
0.000138755
0.000154847
0.0315037
0.000145039
0.000145356
0.000174821
0.0661966
0.000154419
0.000201788
0.000137211
0.024561
0.00351541
0.000214134
0.000145597
0.000138761
0.000174418
0.000145953
0.00783009
0.00207824
0.00261779
0.00861747
0.000143184
0.000127308
0.000141252
0.000355308
0.000144831
0.00183273
0.00633664
0.000144734
0.00051844
0.00014324
0.00425461
0.000171022
0.000136917
0.000235347
0.000139807
0.000140464
0.000138753
0.000132783
0.000208452
0.0114485
0.000145999
0.000137961
0.00020776
0.000134608
0.000147999
0.000149175
0.000142008
0.000144311
0.00115386
0.000183309
0.000133803
0.000150389
0.000149845
0.000144222
0.0143504
0.0049874
0.000144528
0.000141094
0.000148837
0.000285552
0.00014592
0.00014772
0.000149663
0.000199779
0.000134135
0.00014991
0.00630867
0.000146468
0.0005629
0.00014274
0.000144495
0.000141136
0.000141864
0.000138737
0.000143758
0.0284514
0.00414118
0.000138112
0.00015465
0.000159333
0.000168474
0.000171431
0.000188269
0.000143481
0.000148418
0.000151336
0.00015094
0.00487889
0.00033799
0.00014148
0.000144696
0.0908013
0.000148398
0.0328015
0.00025109
0.000141353
0.00131812
0.00609766
0.0055909
0.000277868
0.000362241
0.000171241
0.000141001
0.00288445
0.000145606
0.000158629
0.000180034
0.000135131
0.000143422
0.00584582
0.000139016
0.000232555
0.00122092
0.00014831
0.000144781
0.0596312
0.000142576
0.000236954
0.000136657
0.000414522
0.00945983
0.00478765
0.000142733
0.00014014
0.000148823
0.00197988
0.000240237
0.00508932
0.017918
0.000191112
0.000143615
0.000257668
0.000503963
0.000143687
0.00013866
0.000170326
0.000141187
0.0245291
0.000259381
0.000137307
0.012232
0.000139995
0.0001396
0.000136523
0.000143631
0.000143264
0.0260707
0.000142206
0.000852393
0.000141206
0.0001482
0.000147127
0.000147714
0.000141952
0.000143351
0.000222839
0.000138567
0.00044318
0.00155116
0.000224622
0.000168751
0.000233998
0.000180826
0.000144113
0.000134464
0.000142769
0.000134841
0.000813856
0.000644409
0.000154294
0.000150558
0.00410408
0.000148606
0.00783756
0.000147192
0.000141166
0.000146466
0.000223539
0.000273835
0.0205246
0.0672172
0.000171333
0.000223562
0.000230939
0.000145614
0.000141526
0.000139
0.0001623
0.000164109
0.00144511
0.0687074
0.000166115
0.000140355
0.000183167
0.000142083
0.000225814
0.000143654
0.000337187
0.000148945
0.00251656
0.000167276
0.000148168
0.000171186
0.000228372
0.000167916
0.0137838
0.000141234
0.000138901
0.000144297
0.000143722
0.011117
0.000138273
0.000146884
0.000163716
0.000134034
0.010392
0.0199449
0.000194073
0.000146226
0.000146351
0.00304169
0.000375835
0.000141379
0.000142885
0.0334353
0.000143017
0.000143811
0.00384316
0.000169224
0.000405672
0.00611201
0.00731786
0.000168588
0.000141556
0.000146314
0.00016104
0.000141253
0.000141112
0.000269912
0.0335909
0.000150195
0.000142732
0.000140427
0.000149429
0.0810398
0.000142531
0.000149505
0.000145517
0.000136752
0.00014116
0.000223208
0.000157554
0.000140754
0.000139405
0.000147953
0.000138747
0.000173816
0.00786634
0.000217545
0.000140709
0.000143587
0.000145766
0.000142017
0.0019953
0.000143732
0.00488639
0.00415313
0.000141309
0.00013861
0.00510501
0.000138627
0.000140223
0.000140698
0.00164518
0.000169264
0.000240361
0.000141075
0.000133547
0.000144342
0.00580733
0.000142468
0.000146343
0.000174113
0.0032181
0.000192346
0.000133473
0.00492805
0.000130893
0.00636177
0.000140621
0.000135603
0.000138753
0.000145815
0.000144343
0.0230417
0.000210364
0.00284535
0.000188698
0.000175032
0.00441257
0.000144202
0.00804983
0.00230228
0.000150808
0.00526986
0.000201399
0.000278389
0.000142393
0.00159333
0.000146162
0.000139231
0.00015291
0.000222481
0.00569572
0.000155542
0.00600385
0.0737206
0.000239135
0.000143191
0.000152895
0.000175072
0.00248154
0.000176256
0.00016977
0.000145446
0.000171012
0.0042848
0.00014011
0.026023
0.000149459
0.000296899
0.000138412
0.00013733
0.00016063
0.000159147
0.00292071
0.00388348
0.000176375
0.000140566
0.00014286
0.000268114
0.00131738
0.0104015
0.000139642
0.000156033
0.000138817
0.000140873
0.000141099
0.00412131
0.000248161
0.000234439
0.000239447
0.00491523
0.000343058
0.000140493
0.000145575
0.000143854
0.000138872
0.000167419
0.000141683
0.000146622
0.000144195
0.00014028
0.000157372
0.0031886
0.000188482
0.000139775
0.000141081
0.0280496
0.000179537
0.000152721
0.000174949
0.00337633
0.00222278
0.000141756
0.000159129