/*--------------------------------*- C++ -*----------------------------------*\
| =========                 |                                                 |
| \\      /  F ield         | OpenFOAM: The Open Source CFD Toolbox           |
|  \\    /   O peration     | Version:  v2012                                 |
|   \\  /    A nd           | Website:  www.openfoam.com                      |
|    \\/     M anipulation  |                                                 |
\*---------------------------------------------------------------------------*/
FoamFile
{
    version     2.0;
    format      ascii;
    class       volScalarField;
    location    "900";
    object      p;
}
// * * * * * * * * * * * * * * * * * * * * * * * * * * * * * * * * * * * * * //

dimensions      [0 2 -2 0 0 0 0];


internalField   nonuniform List<scalar> 
10042
(
0.00506493
-0.0623213
0.00327653
0.00218579
0.00450738
-0.0137171
-0.00424093
-0.0255511
0.00456928
0.0130733
-0.00289595
-0.0783706
-0.0329445
0.00598107
-0.0053659
0.00593849
-0.0170032
-0.00203126
-0.0217055
0.0080561
-0.0304354
0.00486844
0.00227649
-0.0397589
0.004285
0.00193255
0.0134169
0.00424687
-0.0152937
-0.0266097
0.00513888
-0.0657093
0.00448093
0.00445647
-0.0253252
-0.033777
0.00177856
0.00501309
0.00509295
0.000778555
-0.0299468
0.00453264
-0.0622843
-0.0508847
0.00303145
0.00432943
0.00319389
-0.00490195
0.00145034
-0.0554114
-0.0598638
0.00352418
-0.0158872
-0.0203315
-0.0824986
-0.102047
-0.0285093
0.00112269
-0.00345357
0.000253559
0.00377953
-0.0456673
-0.0582727
-0.0155367
0.003207
0.00546022
0.00724684
0.00410803
0.00302111
0.00474313
-0.0673056
0.0029349
0.00528874
-0.00336443
0.00535677
-0.0683246
0.00398371
0.00317381
0.00433125
-0.0228324
-0.047342
-0.0353078
0.00455692
0.00421802
0.0140499
0.00693048
0.00692508
0.00121524
0.00559338
0.00443477
-0.0287432
-0.00571229
-0.0531152
0.00729183
0.00432905
0.00236873
-0.145897
0.0076042
-0.039488
-0.0036536
-0.027443
0.0154895
0.000881803
-0.0589418
-0.0202695
0.000345668
-0.0348035
0.0052884
-0.00148427
0.000137717
-0.00244433
-0.00072886
0.0171707
-0.0147737
0.00402351
0.00293659
0.00905221
0.00468195
0.00225004
0.00271293
0.000332598
-0.0734275
-0.0848704
0.00301148
0.00413488
0.00566423
0.00573382
-0.0856305
-0.0948336
0.00911205
0.00490819
0.00533186
0.00585283
0.00492189
0.00127214
-0.0432323
0.00659074
0.00824179
-0.0114968
-0.0327351
-0.0457696
0.00445735
-0.0333104
0.00425902
-0.00455149
0.00501537
0.0134549
0.0029394
0.00406236
-0.0438514
0.0052508
0.00452892
-0.0127285
-0.0382884
0.00498714
-0.00325914
-0.0892
-0.0856934
0.00586793
0.0018387
0.00412597
0.000597832
-0.0363662
0.00563186
-0.00958478
-0.0378395
0.00528806
-0.0591546
-0.032818
0.00438178
0.00577851
-0.0258036
-0.0597031
0.00440145
-0.0194431
-0.0636131
0.00392443
0.00498222
0.00526068
0.00308179
-0.0106634
-0.0163947
-0.00377214
0.00262833
0.00376796
-0.0361
0.00257067
0.000288899
-0.0846016
0.00510721
-0.0508876
-0.0260807
0.00493006
-0.0160256
-0.0975419
-0.00548653
-0.133643
0.00695706
-0.142493
0.00415375
-0.102035
-0.0500001
0.0049845
0.00370164
-0.0458546
0.00583686
-0.0380287
-0.0350629
-0.00199086
0.0048729
-0.0643761
0.00364126
0.00400099
0.00441462
0.0018245
0.00828436
0.00336217
-0.0197384
0.00266651
-0.0957355
-0.135542
0.00593023
-0.139639
0.00813316
0.00215836
-0.0541025
0.00362353
0.00651059
0.0110665
0.000535256
0.00498184
0.00576949
-0.0342705
0.00480063
0.0040123
-0.0292372
0.00585916
-0.141503
-0.00545746
-0.0371348
-0.0114196
-0.00918251
0.000262637
0.000795813
-0.0669677
0.0044069
-0.00549855
-0.00433642
-0.0132181
0.00443855
-0.0201493
0.0049258
0.00520915
-0.0531201
0.00386349
0.00576265
0.00519768
0.00458062
-0.138318
0.00295129
0.00389439
0.00514299
0.00359582
0.00329652
-0.0357659
-0.0430075
0.00324434
0.00747477
0.00504553
0.00576066
-0.000197966
-0.0474405
0.00568136
-0.0758663
0.0044272
0.00256042
-0.0141273
0.00353717
0.00532798
-0.096792
0.00428372
-0.0103494
-0.137794
-0.0132664
0.00258328
-0.145778
0.00919009
0.00360739
0.00441745
0.00462522
-0.0217964
0.0075931
0.00156567
-0.0200577
0.00303056
0.00597431
0.00301403
0.00612304
-0.000259789
0.00338614
-0.0115302
0.00428022
0.000189285
-0.0137549
0.0087725
-0.037567
0.00575252
0.000613805
-0.00107036
-0.0197217
0.00166842
0.00485529
0.00220942
0.00600099
0.00774283
0.00354529
0.00332509
0.00289564
-0.0246824
0.00283923
0.00394633
-0.0744952
0.00327282
0.00427938
0.00501884
0.00188277
0.00691016
0.00532443
0.00612841
-0.0203282
0.00579203
-0.000108622
0.00643954
0.00501687
-0.0358091
0.004431
-0.0488178
0.00478146
0.00494185
-0.0328553
-0.0416635
-0.0229316
0.000328965
0.00668952
0.00393042
0.00494484
0.00559181
0.00406725
0.00690674
-0.145775
-0.00906129
0.0039492
0.00679337
0.00468339
-0.0606412
0.00722898
0.00341564
0.00457727
-0.118951
0.00376655
0.000168603
0.00165645
-0.00889699
-0.0108268
-0.0294041
-0.0105026
0.00398714
0.0065286
0.00661279
-0.0798818
0.00033906
0.00390624
0.00568866
-6.14877e-05
0.00793541
0.00571816
0.00283078
-0.00662063
-0.0358024
0.00673931
0.000378739
-0.00853214
0.0125943
0.00526578
-0.0522373
0.00281279
0.0041282
0.00265751
0.0059788
0.00362949
0.00449292
-0.148971
-0.00874159
0.00737442
-0.0207328
-0.0412374
0.00158771
-0.0217544
0.00257848
-0.0630558
0.00346016
-0.145091
0.00260309
-0.0655104
-0.12949
0.00471415
-0.0387645
0.00512418
-0.00854906
0.00439601
-0.0134598
-0.00853709
-0.0131885
-0.00795815
-0.00473861
0.00622915
-0.0026973
-0.0784161
0.00362281
0.00623124
0.00486343
-0.0200416
0.00494382
0.00252214
-0.0501631
0.00616105
0.0139188
-0.0114055
0.00303604
-0.0256262
0.00620299
0.00322063
-0.00743566
-0.0345036
0.00509902
-0.00815518
-0.00839667
0.00200873
0.00373222
-0.12305
0.00432068
0.00747722
0.00550944
-0.0856433
-0.049771
0.00311261
-0.00225843
-0.0332482
-0.0186999
0.00238647
0.00309118
-0.0139574
-0.0158354
-0.0494815
0.00225789
0.0056036
0.00408579
-0.137295
0.00268657
0.000536764
0.00457472
0.00178555
0.00483706
0.00473208
0.00590109
0.00178454
0.00512427
-0.0139123
0.00733687
0.00525218
-0.0274204
0.00438877
-0.162354
-0.00953147
-0.0337605
0.00504118
-0.0369096
0.00402761
-0.0268543
-0.000708706
0.00681372
-0.00765039
-0.0274127
0.00451594
-0.0217507
0.000418365
0.00358238
-0.0240338
0.00354064
0.00496897
0.00480921
-0.0647274
0.00512369
0.00675723
0.000974515
-0.0347241
0.00472969
0.00677781
-0.0247246
-0.00626855
-0.00163766
0.00407921
-0.00904793
-0.0717785
-0.00584452
0.000650121
0.00512416
0.00117883
0.00909982
0.00401589
-0.00463143
-0.0458124
0.00471508
0.00244475
-0.000577137
-0.0288748
0.00282019
-0.0063739
0.00183504
-0.00184705
0.00450825
-0.00151604
7.16852e-05
0.000154901
-0.00743323
-0.012828
0.00641781
0.0134937
3.52757e-05
0.00542099
0.00194061
-0.00832686
0.000196555
0.0039134
0.00246
0.0023656
0.000537601
0.0133001
0.00490513
-0.0640358
0.00391864
0.0122813
0.00473938
-0.142004
0.00271422
-0.0368507
0.00268236
0.0052584
-0.00569035
0.000255492
-0.0152546
-0.00792122
0.00459178
0.00675482
-0.0467514
-0.0147166
0.00535336
0.00489379
0.00387224
0.00279247
0.00304625
0.00391322
-0.000315394
-0.0320274
0.00182193
0.000296568
-0.0299252
-0.018923
0.0036371
0.00377615
0.00475149
-0.030197
-0.00727053
0.0048451
-0.0455463
0.000240726
-0.0362625
0.00421699
0.00460499
0.00503744
0.00496501
-0.000384534
0.00520346
-0.14216
-0.00660743
0.0218341
0.00367183
0.00509765
0.0034139
0.0148763
-0.0152614
0.00464534
0.00355981
0.00360219
0.00641285
0.00355169
-0.0414757
0.00407576
0.00514717
0.00504196
0.00311653
0.00521426
-0.121722
0.00342754
0.00564072
0.00576214
-0.0560145
3.53679e-06
0.00508232
0.00518644
-0.00150302
0.00159118
0.0034494
0.00446131
0.00339611
-0.00517023
0.00386223
0.00507202
0.00425488
-0.136504
-0.0426255
-0.0307341
0.00445411
-0.0285435
0.00275364
0.0104146
0.00248872
-0.0294597
0.00696855
-0.0344312
0.00486269
-0.00331417
0.000394627
-3.63525e-05
-0.0243475
-4.64741e-05
0.007176
-0.077813
-0.00473336
-0.000716093
0.00519269
-0.00128161
0.00439451
0.00509622
0.00400836
-0.0257541
-0.0128158
0.00194531
-0.157945
0.00217905
0.010342
0.000534679
-0.0128162
0.00663581
0.00512385
-0.0272429
0.00566471
0.00475398
0.0222298
-0.00191299
0.000275935
0.00503998
0.0053242
0.0048763
-0.0012352
0.0149309
-0.0419245
-0.00450812
0.00555522
0.0052245
-0.00366511
0.00348253
0.00549184
0.00328932
0.0055254
-0.00571297
-0.0557179
0.00146979
0.00396087
0.00178749
-0.130222
-0.0378052
0.00708464
0.0135699
-0.00559833
-0.0313629
-0.00598827
0.00522979
0.00510016
0.00574252
-0.00915918
0.00519776
-0.031553
0.00599334
0.000326678
0.00703852
0.00615342
-0.12397
-0.140909
0.00347706
0.00314791
0.00236603
0.00458395
0.00506654
-0.0166902
0.00641791
-0.0722551
0.00549415
0.00576692
0.00467857
0.00244493
9.78849e-05
0.00026702
-0.000809584
-0.00762932
0.00711049
-0.0213283
-0.0158758
0.000991885
0.00131795
-0.0153176
0.00221575
-0.0689288
0.00394899
0.00568282
0.00252251
0.00479701
-0.0509327
0.00593371
0.00437931
0.00451288
-0.0919029
0.00573702
-0.00673249
-0.0117593
0.00553237
0.0187626
-0.0114683
0.000368002
0.00535093
-0.0740229
0.00387359
-0.0118371
0.00697476
0.00443169
0.00701753
-0.00396767
-0.00198652
0.00535017
0.00905015
0.00246101
0.00500743
-0.00548459
0.00025919
0.00286663
0.00224318
0.00477123
0.00374048
-0.0152092
-0.00674901
0.00033965
0.0058873
0.00541344
-0.0711227
0.00443989
0.00281799
-0.00114925
0.00413245
0.00564144
0.00605794
0.011384
0.00574653
-0.0377821
-0.00691111
0.0125395
-0.0336513
-0.0543779
0.00600539
0.00280512
0.00232358
-0.00790915
-0.0102389
0.00431596
0.0100029
0.00565762
-0.0077876
0.00592902
0.00303829
-0.0134351
-0.00368152
0.0049336
-0.00477923
0.00235662
0.00428561
0.00546503
0.00349279
0.00249179
0.00219154
0.00535728
0.00505145
0.00439375
0.00153479
0.00037513
0.00304211
-0.0104953
0.0055139
0.00572898
0.00233426
0.00276707
-0.00765014
-0.0176617
0.0049614
0.00237295
-0.00920312
-0.164302
0.00627026
4.19081e-05
-0.0242057
-0.0263405
0.00386922
0.00036716
0.00289142
-0.00886713
0.0146799
-0.00694787
-0.155983
0.00360266
0.000621283
-0.0490816
0.00572276
0.00351427
-0.016164
0.00169992
-0.0485293
0.00897916
-0.156157
0.00488392
-0.00969075
-0.00159923
0.00431536
0.00451043
0.00724247
0.000473751
-0.00155905
0.00334858
-0.0202058
0.00588387
0.000325661
-0.0388934
-0.000967033
-0.0241942
0.00643812
0.00514881
0.00121559
-0.00743398
0.00420113
0.0058379
0.00206789
-0.0347385
0.00489364
-0.00759217
0.0039584
0.00157273
0.00592511
-0.0352079
0.00499323
-0.0675503
0.00464668
0.00250072
0.00210739
0.00296311
0.00577812
0.00185672
-0.0201952
0.0124785
0.00528314
-0.0397796
0.004239
0.00310708
-0.0407403
0.00248949
0.00177857
-0.0374873
0.0042825
-0.00643899
-0.0123356
0.0191584
-0.0273059
0.0116878
0.00707566
0.00197644
-0.109758
-0.119421
0.00365869
0.0100697
-0.116562
-0.00803305
0.000970873
0.00249149
0.00554954
0.00234146
-0.000247929
0.00386656
0.00598043
-0.027845
0.00276145
-0.047728
-0.0268985
-0.0106033
0.00288979
0.00230607
0.00238878
-0.00495714
-0.0206024
-0.00519329
0.00465969
-0.0305104
-0.00553809
0.00529054
0.00288932
-0.15427
0.00413205
0.00644937
0.00339528
0.00512912
-0.0046605
0.00519617
0.014237
0.00254843
0.00525721
-0.0205426
-0.0277403
-0.0366398
-0.0174119
0.0036913
-0.1597
-0.0515399
-0.0460123
-0.0493681
0.000284532
0.00542463
-0.046263
-0.0112272
0.00606915
-0.0284708
-0.0556015
0.00569689
0.0030534
0.00603027
0.00570055
0.00386505
-0.0510683
0.00562466
0.00343608
-0.151505
0.00564454
0.00550455
0.0142684
-0.0269654
-0.014774
0.00483308
0.00443724
-0.0430115
0.00447488
0.00307019
-0.00695213
0.00328114
0.00460178
0.0045053
-0.0313189
0.00880744
0.00522902
0.00609897
0.00547075
0.000216208
0.0059328
-0.0955945
0.00541944
0.00605774
-0.00129531
0.0113449
0.00416605
-0.00745088
0.00685048
-0.0249958
-0.00715658
0.0019054
0.00586076
-0.00234879
0.00366249
0.00249422
-0.0126278
0.00147453
0.00462875
0.00446397
0.00237807
0.0030424
-0.0162676
0.00341491
0.00303348
-0.0297053
0.00708141
0.00441492
0.00206297
-0.028951
0.00420191
0.00555683
0.00539299
-0.0396228
0.000564076
0.00549531
0.00755988
0.005924
-0.022402
0.00479312
0.00544683
0.00436984
0.0105058
0.00613397
0.00362933
-0.00825003
0.00551092
0.00439564
-0.0110973
0.00574793
0.00387581
0.00354009
-0.00431296
-0.00906896
0.00593171
-0.0572443
0.008093
-0.000164352
-0.129763
-0.0116691
0.00566354
0.00316719
0.00394162
0.00376999
-0.0524404
0.013372
-0.0256343
-0.0512719
-0.00162379
0.0111126
-0.00850398
-0.0197934
0.00775477
0.00430368
-0.0376386
-0.00426149
0.00465573
0.0015919
-0.0709945
-0.0247979
0.00225309
-0.0123312
0.00542915
0.00294373
0.0051955
-0.00514658
0.00634316
0.00400251
-0.0135918
0.00304362
0.00371963
-0.0361709
-0.0824127
0.00407705
0.00456904
-0.00294897
0.0058513
-0.0384202
-0.0133997
0.00478505
0.00547818
0.00537556
-0.00270517
0.0010885
-0.00664915
0.00302072
0.00497733
0.00594887
0.00437274
0.0047783
0.00809777
-0.0219994
0.00262554
0.0220546
-0.0154538
-0.0550567
0.0163582
0.00560473
0.00500969
-0.0788718
0.0167331
0.00313063
-0.00328911
-0.0038172
-0.00646891
0.0054968
0.00260125
-0.023731
-0.0399149
0.00464735
-0.011501
0.00469895
-0.00255188
-0.0295519
0.00575254
0.00456971
0.00545698
0.00472379
0.0036153
0.00297869
0.0028686
0.00499466
0.0014048
0.00489714
0.00290446
-0.027794
0.00350444
0.00925537
-0.0223231
-0.000461677
0.00521323
-0.0237486
0.00314854
0.0224621
0.00639673
0.001608
0.00417028
-0.0154931
-0.0289383
-0.0197153
-0.00124652
0.00191596
-0.00725811
-0.00506722
0.00626833
-0.00454178
0.00568361
-0.0173546
-0.0223965
0.00727274
-0.107851
-0.0232599
-0.00602521
-0.159074
-0.0231457
-0.0241923
0.00550857
0.00142925
-0.00310474
-0.0292913
0.00125758
-0.0511252
-0.0117935
0.00522918
0.00478106
0.00268645
-0.0337217
0.00984817
-0.00526071
-0.000216376
0.00268898
-0.0146675
0.00419772
0.00487733
-0.0110627
0.00281406
0.00132012
-0.0190052
0.00124707
0.00448738
-0.0105901
0.00490866
0.00428921
0.00536515
0.0124953
-0.0254261
0.00532969
0.00195056
0.00264942
-0.0455809
0.00428719
0.00573038
-0.00378217
0.00232038
0.000768642
-0.012756
0.00418811
-0.0231826
0.00439964
-0.0581608
0.00776754
0.00466843
0.00518143
0.00400109
-0.00470249
0.00344983
0.00431419
0.00639425
0.00252959
0.00622895
0.00167271
-0.0257454
-0.0220551
0.0051848
0.00414321
0.00360226
-0.00151453
-0.154333
-0.0214399
0.00351691
-0.102477
0.00305084
0.00375393
0.00564338
0.00479056
0.00723335
0.00163405
0.0128711
0.0072142
0.00575398
0.00470936
0.00445474
0.00461123
-0.00292427
-0.0231938
-0.0259002
-0.00604461
0.00418688
0.00330593
0.00101229
0.00256643
-0.0123534
-0.000202176
0.0176122
-0.0210669
0.0012738
0.00450561
-0.0352472
4.46623e-05
0.005665
-0.0567869
0.00439477
0.00493774
-0.0679055
-0.0133318
0.0041187
-0.0346239
-0.00323188
0.00485825
-0.017936
0.00344428
0.00188821
-0.000823745
-0.0479993
-0.0311104
0.000792895
-0.029078
0.0051182
0.000603127
-0.0223896
-0.00350488
-0.00952121
-0.00320075
-0.00441617
-0.0618506
-0.0560674
0.00802672
0.00247284
-0.00641308
-0.0880494
0.0115136
-0.00459279
0.00122294
0.00556067
-0.0247225
-0.0018106
0.00720916
-0.05371
0.0049428
-0.00173685
0.00204377
-0.147933
0.00341253
-0.0412755
0.0057732
0.00543504
0.00454839
-0.00771065
0.00479175
0.00458097
0.00404889
0.0051869
0.000806881
0.00233696
-0.00563026
0.00394073
-0.0255538
-0.00578692
0.00350309
0.0050876
-0.00147729
-0.153225
-0.0316363
0.00225348
0.00510383
0.00435518
-0.0025266
-0.027314
0.00446447
-0.00732249
-0.0913994
0.00788472
0.0038531
0.00528304
0.00128379
-0.0175422
0.00550662
-0.0039472
-5.62476e-05
0.00533672
0.00483433
0.00551111
0.00441168
-0.0482776
-0.135406
0.00258746
0.00370791
0.00566498
-0.156855
0.00568325
-0.0174119
0.00270225
0.00539091
0.00270582
0.00323936
-0.0854086
0.00520119
-0.0525123
-0.00884019
-0.078373
0.000940979
-0.0265185
-0.0241709
-0.0134422
-0.0071391
0.00321969
-0.0561872
0.00525336
-0.0300297
-0.0029017
-0.0206221
0.00565988
-0.00332516
-0.0145181
-0.0277734
-0.0766361
0.00321453
-0.000370149
0.00101885
-0.0278913
0.007464
-0.0130543
-0.0316074
0.00429128
0.00573631
0.00149597
-0.00500891
0.00688473
-0.00902571
-0.00435041
0.00547838
-0.142504
0.00225937
-0.0345471
-0.0231229
0.00403305
-0.0404545
0.00775842
0.0054561
0.0185494
-0.00831149
0.00406972
0.000650116
0.00474068
-0.150302
0.0033678
-0.137834
-0.0264201
-0.037558
0.00270205
-0.0337775
-0.00325828
0.00508421
0.00478902
0.00435305
-0.00511778
-0.0110918
-0.00342233
-0.00464526
-0.124018
-0.000760071
0.00435221
0.00476663
-0.158844
0.000376039
0.00332527
-0.105507
-0.118464
-0.0953593
-0.0174065
-0.0353662
0.0041417
0.00384358
0.00460127
0.00889441
0.00479016
-0.0232046
-0.0287751
-0.153485
-0.0241428
0.00457572
0.00372334
-0.00397528
0.00434403
-0.00180793
-0.0154733
-0.134495
0.00568808
0.00353577
-0.0123471
0.00562461
-0.035669
-0.00111509
-0.0135898
-0.0169311
-0.00287134
0.00273766
0.00129189
-0.0258945
0.00202331
-0.0161545
0.00490139
-0.0096919
0.00434845
-0.146836
0.00368047
0.00198854
0.00420511
0.00363007
0.00414443
-0.0319023
-0.0177821
-0.152678
-0.079259
0.0011099
0.00271438
0.004928
-0.0349893
-0.00347291
-0.0392122
-0.0337035
-0.14928
0.00821882
-0.0188815
-0.0497711
-0.0841382
0.00535908
-0.0211254
-0.00836487
0.00587819
0.0054878
0.00437816
0.000490705
0.00539953
0.00465002
0.00493536
-0.0270443
-0.0121805
-0.00518846
-0.031001
-0.0481944
-0.0142621
-0.0172497
0.00365207
-0.0080169
-0.00234215
0.00303547
0.00904666
-0.0093016
-0.156012
-0.0243932
0.00527848
-0.0241194
-0.00116525
-0.0281001
0.00908103
-0.0197045
-0.0212139
-0.0764819
0.00349508
0.00238104
0.00799368
0.00312665
-0.0559738
0.00476132
0.00372458
0.0026822
-0.017847
-0.0640805
-0.0168946
0.00475845
0.00426336
-0.01586
0.00591838
0.00170501
-0.00742692
-0.0265882
-0.00776202
0.00648607
0.00174291
0.00279332
-0.0075999
0.00226088
-0.0040617
-0.0256312
0.00254062
0.00575674
0.00160269
-0.00252711
-0.0454771
-0.0116866
-0.0112393
-0.010605
-0.00658515
0.00598892
-0.000583059
-0.0151147
-0.00565878
-0.000187332
0.00339612
-0.0207726
-0.007045
-0.0104035
0.00443468
-0.0517445
0.00754653
-0.0753017
-0.0190998
0.00451029
0.00182633
-0.012553
0.00418914
-0.0278333
-0.0286457
-0.00481164
-0.0183224
-0.0269224
0.000223205
0.00762942
-0.00404689
-0.0266893
-0.0386377
0.00823626
-0.0106301
0.00376741
0.00199409
0.000876129
-0.0128937
0.00243457
0.0036314
0.00365627
0.00544179
-0.0101884
0.00345575
0.00612326
0.00273668
-0.0383297
-0.00357756
-0.00947865
-0.0112831
-0.00318842
-0.00860164
0.00264062
-0.0114555
-0.0118694
0.00346716
-0.00530949
-0.0468178
0.00124645
0.00416508
-0.0251594
-0.0135864
0.00565937
-0.00856317
0.00561525
-0.148577
-0.00399218
0.000205204
0.000712934
-0.109499
-0.165493
-0.0175724
-0.00861635
-0.00678148
0.00492035
-0.0196653
0.00787178
0.00560536
1.47878e-05
-0.049308
0.00221722
-0.0490204
0.0077735
-0.0112996
0.00279933
-0.00142079
-0.0326376
-0.0125687
0.000410435
-0.00978799
-0.029694
-0.147944
0.00494961
-0.00820917
-0.00802513
-0.0139736
-0.074616
-0.109626
0.0039249
0.000711069
0.0017856
-0.0165509
-0.0172513
-0.0688512
0.00520223
-0.011297
0.00678378
-0.0147048
-0.014353
-0.0178684
-0.0112445
0.00238072
-0.0041035
-0.0733544
-0.018457
-0.022745
0.0027016
-0.00264654
0.00521563
0.00578714
0.00249138
0.00337626
-0.138385
0.00231683
-0.012219
0.00353197
0.00510382
0.00373363
0.00559188
0.00235869
0.00426344
0.00238567
-0.00381269
0.00666077
-0.0483411
0.00372171
-0.0205502
-0.0106486
-0.0060397
-0.02097
-0.0093651
-0.010925
0.000964771
-0.00304118
-0.0691195
0.00530179
0.00511635
-0.0103382
0.00664112
0.00536047
-0.00626718
-0.00863724
0.0044689
-0.00374773
-0.0216176
-0.124622
-0.0013218
-0.000726121
-0.00224039
0.00545799
-0.00746273
-0.025255
-0.0161125
-0.0163488
-0.00572583
-0.0469504
0.00200125
0.00420045
0.00508777
-0.146915
-0.00111369
0.0038722
-0.000685839
-0.00211757
-0.0148116
-0.00133277
0.00497918
-0.00356075
0.0053525
0.00426386
-0.00677751
-0.00673638
0.00113543
-0.0435879
-0.00594593
0.00376336
0.00455953
0.0109198
0.00479789
0.0043375
-0.00735329
-0.00702587
-0.0047872
-0.0287526
-0.00508799
0.00548299
0.00512065
-0.00105729
0.00352067
0.00568921
-0.00131748
-0.00612162
-0.00119104
-0.0726812
-0.00644406
-0.00633947
-0.0136581
0.00122296
0.00259191
0.003807
0.00248004
0.00640528
0.00396589
-0.00906943
0.00316972
-0.0237287
-0.152632
0.00519335
-0.00485937
-0.0268533
-0.000882225
0.00211617
0.0051253
-0.0352385
-0.00427827
1.8889e-05
-0.00637642
0.00154475
-0.0184143
0.0012726
0.0169274
0.00495227
0.0076965
-0.0059496
0.00565528
-0.00412867
0.00788041
0.00161472
0.00479443
-0.0447871
0.00273522
-0.0421088
-0.00332303
-0.0732286
-0.00769775
-0.0576076
0.00534748
0.00244545
-0.0356253
-0.020603
0.000544616
0.00626252
0.00366075
-0.00866847
0.00532362
0.00536115
-0.00414072
-0.0222758
-0.0812559
-0.00437514
-0.153131
-0.0461388
-0.0235183
-0.0712312
0.00306848
0.00356797
0.00139363
-0.00226333
0.00545724
-0.0248191
0.00377872
-0.0227823
-0.0345604
0.0058887
0.00345968
0.001143
0.00152687
0.00967055
0.0056992
-0.0900053
0.00530735
-0.00778374
0.0061893
0.00301025
0.00113232
-0.0634946
0.00609594
-0.100322
-0.0257193
-0.00602133
-0.000576106
-0.0113327
0.00126027
0.00397867
0.00554467
-0.00119707
0.00192682
-0.00366847
-0.00622684
-0.000663664
-0.00655569
-0.11397
-0.00842245
-0.0865409
0.00251472
-0.0499699
-0.00764088
0.00347405
0.00565243
0.00858654
0.00381012
-0.0450871
-0.00590001
-0.0191859
0.00288644
0.00526869
0.000958021
0.00263343
-0.00267693
0.00649557
-0.00181495
-0.0183667
-0.024506
-0.00978072
0.00480504
-0.0305988
0.00538503
0.00586718
-0.0176646
-0.00350997
0.00405657
-0.00135124
0.000654543
0.0042763
-0.0254819
-0.0227683
-0.121133
0.00540596
0.00556548
0.0010711
-0.00149566
0.00481299
0.012974
-0.00112294
-0.0115942
-0.0197596
0.0051872
-0.0564432
0.00244932
0.00239346
0.000698584
0.00169604
0.00532909
0.00327386
0.000737937
-0.0130611
-0.0168925
0.00428037
0.00533881
0.00224186
0.00377229
-0.0037274
0.0126732
-0.0303182
0.00185535
0.00723035
-0.0227444
0.00134352
0.00512139
0.00128606
0.00319476
-0.019831
0.00290924
-0.0258838
0.00733791
0.00638331
-0.021681
0.00983599
-0.0203582
-0.0105207
0.000573401
0.0111698
-0.0170532
-0.0192996
0.0011381
0.00626449
0.00230896
0.00157659
0.00119268
0.00215909
0.00488776
0.00562589
-0.0221768
-0.026019
-0.0818016
0.000873226
0.00520141
0.0117259
0.00402694
0.00404409
-0.0307099
0.00695281
-0.00390169
-0.0300985
0.00378315
0.00546762
0.00284139
-0.0258061
-0.00177222
0.00555068
-0.152047
-0.000527274
-0.13323
-0.0186363
0.00458712
0.00688469
-0.0171907
0.00534715
0.00252187
-0.0130244
0.00042808
-0.00193642
-0.00345482
0.0015177
-0.00418246
-0.00386583
0.00403471
0.00423011
0.00430048
-0.0752342
0.00586451
0.00209062
0.00203461
0.00160946
0.00168427
0.00217241
0.00253206
4.69046e-05
0.0027496
0.000827056
0.00215494
-0.0602119
0.00507957
0.00407047
0.00408719
0.00728703
-0.0092126
0.00337257
0.00296994
0.00329366
0.0040664
0.00148391
0.00576782
0.00262147
-0.0203788
0.0035963
-0.0128871
0.00128232
0.0100827
0.00437428
0.00293771
0.00351639
0.00188154
-0.00403823
0.0106388
-0.0356786
-0.0286786
0.00287525
0.00468653
0.00552439
0.00892252
0.00733171
-0.0607662
-0.00709062
-0.00703196
0.00569606
-0.0167124
0.00140989
-0.138744
0.00521087
-0.025521
-0.0206218
-0.0199195
0.00218529
-0.0218633
0.00614824
0.00561765
-0.0143028
-0.00518007
0.00405704
0.0138828
-0.0290537
0.00332314
0.00310612
0.00282229
0.00819141
-0.00904701
0.00494859
0.00565565
0.00147713
0.000717031
0.00577804
-0.0576518
-0.0253038
-0.01841
-0.00134713
0.00162715
-0.0491982
-0.00244244
-0.00044388
0.00200699
0.00484805
-0.00995262
0.00332887
-0.00987522
-0.0277992
-0.0209784
0.00619622
-7.52365e-06
-0.00921992
-0.0491075
0.00660273
-0.153259
-0.010552
-0.0211042
0.00324111
-0.000794649
-0.0367792
-0.000993395
0.00415429
0.00512791
0.00190357
0.00926427
0.00531869
0.00337677
-0.000175297
0.00342522
0.00325234
0.00405052
-0.0168157
0.014241
0.00529378
-0.0199771
-0.0645706
0.00505922
-0.0129689
-0.136266
-0.00195247
-0.00418873
0.00539906
0.00895224
-0.0446029
0.00361543
0.00614242
-0.0529479
0.0015851
0.00528928
0.00409285
0.00187706
-0.00971527
-0.000936036
-0.0149734
-0.00104879
-0.101218
0.00106752
-0.104271
-0.00905406
0.00152016
-0.0583841
0.0037633
0.00431412
0.00221562
0.00254746
-0.0216297
0.00335617
-0.00408131
-0.00789413
0.00309305
0.00381486
-3.35145e-05
-0.00061544
-0.0177807
0.00457108
-0.0145264
-0.0418242
-0.0150124
0.000978296
0.00102697
0.00308574
-0.0668621
0.0063485
0.00716947
0.00635144
-0.0145863
-0.0789577
0.00246459
0.00566475
0.00455536
0.00369158
-0.000795588
0.00252816
0.00563519
-0.00111901
0.00249418
0.00163745
0.00184301
0.00304415
0.00185785
0.00272008
0.00398935
0.0158608
0.00500208
0.0057969
-0.0626776
0.00129732
0.000865027
-0.0469328
-0.158272
-0.0105611
0.00488085
0.00539939
0.0107693
-0.00330064
0.0095716
0.0032584
0.00503882
0.00483184
0.00291637
-0.00286766
-0.0113532
-0.00302315
-0.0603419
0.00149645
0.00829698
0.0042875
0.0201175
0.000833047
-0.0138815
-0.0217516
0.00166918
-0.018686
0.000344357
-0.0928735
-0.043847
0.0053482
0.00510745
0.00546695
0.00411767
0.0055945
0.00334786
0.00307373
-0.057728
0.00360229
0.00520832
-0.0787237
0.00455312
0.00397957
-0.0109499
0.0018705
-0.000417666
-0.0127636
0.00453639
0.0032391
-0.0166525
-0.00807815
0.00160971
-0.0762213
-0.0166671
0.00124554
0.00481302
0.00621758
0.00446722
0.00331177
0.00230498
-0.00555026
0.00804667
0.00322512
-8.53849e-05
-0.0266657
0.00391493
-0.00620782
0.000978994
-0.00202808
0.00330759
0.00205949
0.00546317
0.00158889
-0.0806012
-0.00883675
0.00524345
0.00620417
0.00672675
0.00795666
0.00519469
0.00634455
0.00244649
-0.00675279
0.00648957
0.00501504
-0.0227978
0.00282277
0.00295403
0.0049782
-0.0863422
-0.0104577
-0.054934
0.0107618
0.00292992
-0.0113252
-0.0377669
-0.0246049
-0.00442156
0.00362531
0.00499853
0.00359262
-0.133425
0.00309158
0.00541495
0.00790678
0.00358551
9.04427e-05
-0.00346586
0.00493835
-0.0526094
-0.0184362
-0.00897297
0.00192427
-0.0694438
0.00162389
-0.00129981
0.00530658
-0.00607983
0.0210321
-0.00188048
0.00161414
0.0050261
-0.00943214
-0.0222362
-0.0119508
-0.00499714
-0.0497228
0.00515945
0.00125047
-0.00317144
-0.0189727
0.0023332
0.00197209
0.00423463
0.00313755
-0.150096
0.00462702
0.00517621
-0.0186377
0.0049989
0.00544286
0.00527445
0.00276181
0.00166836
-0.019404
0.00324195
-0.0157617
0.00567799
-0.0073137
0.00283093
0.00402303
0.00195976
0.0015849
0.005606
0.00543266
0.00218016
-0.00342245
0.000889721
0.00219071
-0.000409433
0.00477762
0.00513974
0.00447329
0.00143722
0.00465626
-0.0155085
0.00448064
0.00428703
-0.0058766
-0.00252593
0.00278448
-0.0325432
0.00576309
0.00307457
0.00380727
0.00283219
0.00734118
-0.000270932
-0.0853471
0.00338947
0.00168151
0.00193069
0.00509578
0.00277487
0.0050297
-0.00837739
-0.00521533
-0.00657794
-0.106923
-0.00190678
0.00412287
0.00411063
0.00178243
0.00357481
0.00570917
0.00571695
-0.0117605
0.006819
-0.0528487
-0.0103916
0.00316575
0.00494152
0.00822947
-0.0316445
0.00291122
0.00528637
0.00111714
0.00258998
-0.0233171
0.00555168
0.00302969
0.00846872
0.00310697
-0.0640273
-0.0016567
0.00303435
0.00477691
0.00333921
0.00726422
0.00272755
0.00299761
0.00144224
0.00941893
0.00154604
0.00112839
0.00286847
0.0026113
0.00359252
-0.0231315
-0.0281854
0.00135114
0.00507076
0.00470828
-0.0114797
0.00297345
0.00495356
-0.0116979
0.00483295
0.00248856
0.00523302
0.00391266
-0.0081349
-0.10279
0.00500508
-0.0112101
0.0042581
0.00531323
0.0042412
0.00574079
0.00569385
0.00485039
0.00175274
-0.0101854
0.00499899
0.0077474
-0.0346382
0.00489274
0.00567049
0.00506628
0.00457451
0.00504292
-0.00124955
0.00138459
-0.00422155
0.00674362
0.00276276
0.00539411
-0.0355696
0.00506166
0.00554026
0.00403027
0.000329435
0.00445996
0.00285262
0.00450794
0.00317799
0.000844699
-0.0164252
0.00466232
0.00097975
0.000860145
0.00352726
0.00780091
0.00390971
-0.0120054
0.000257549
0.00602677
0.00388075
0.00365858
0.00540913
-0.00504945
0.00465626
-0.00529913
-0.0689973
-0.00868674
-0.0740357
0.00601554
0.004683
0.00324097
-0.0260196
-0.00101416
0.00574997
0.00403277
0.00428006
-0.00345898
0.00140608
-0.0137374
0.0020682
0.00549041
0.00226789
-0.0379064
0.00117626
-0.0307189
-0.0186615
-0.116097
0.00650034
0.00167416
-0.00637668
-0.0326261
0.000356699
0.00907374
0.00727117
-0.00336248
-0.0492089
-0.00826123
0.00513078
-0.0776
-0.00321354
-0.00417322
0.005417
0.00541057
0.0011613
-0.00146854
-0.0756507
-0.0322144
0.00815919
0.00403654
0.00578423
0.00876851
-0.0118389
0.00376089
0.00453015
0.0065747
0.0050495
0.00334341
0.00305584
0.00523684
0.0073938
0.00864977
0.0078741
0.00162421
-0.00706529
0.00475618
-0.00315777
0.00489587
0.00562036
0.00758145
0.00354665
0.00512484
0.00422189
0.00400679
0.00587381
-0.00432684
0.00776817
0.0054082
0.00417365
-0.00429975
0.00630027
-0.0135793
0.00630489
-0.00460821
0.00643645
0.00545545
0.000187264
0.00804747
0.00514002
-0.0117008
0.0058075
0.00569775
0.00559226
-0.0352391
0.0039321
0.00497605
0.006342
0.00324356
0.00561219
0.00550654
-0.0674965
-0.0554951
-0.0254193
0.00290246
0.00556422
-0.0567905
0.00228934
0.00557084
0.00482646
0.00318181
0.0016035
-0.0080419
0.00450216
0.00544762
0.0133948
0.00437976
0.00542037
0.00263645
-0.0153981
-0.0144965
0.00491393
0.00214746
0.0045881
-0.00767683
0.00626552
0.00237776
-0.0145387
0.00513275
0.00532073
0.00266059
0.00579847
0.00937554
0.00492152
4.79815e-05
0.00436537
0.00737101
-0.0151066
0.00338374
0.00539039
-0.00131458
-0.000187583
-0.063756
-0.006856
0.00699615
0.00540625
0.00495788
0.00502729
-0.019584
-0.0535159
0.00152741
0.00566427
0.00264516
0.0118236
0.00414304
0.00553441
0.00486182
0.00555878
0.00474529
-0.0103954
0.0057096
0.00414219
-0.0180053
-0.00935622
0.00552829
0.00577443
0.00753192
0.00942546
0.00481824
0.00527107
0.00168979
-0.00383857
0.00149597
0.00799182
-0.00458138
0.00511954
-0.0221967
-0.00200174
0.00580389
0.00646958
0.00349828
0.000875521
-3.28606e-06
0.00529362
0.00540977
-0.00821086
0.00482485
0.00489611
0.00603256
0.000704313
0.0036123
-0.00138575
-0.0307747
0.0054444
0.00716814
0.00661182
0.00557878
0.00495779
0.00386625
0.00496838
-0.027836
-0.0034497
0.006906
0.00492983
0.0035949
0.00540352
0.00517829
0.00517144
0.00515234