/*--------------------------------*- C++ -*----------------------------------*\
| =========                 |                                                 |
| \\      /  F ield         | OpenFOAM: The Open Source CFD Toolbox           |
|  \\    /   O peration     | Version:  v2012                                 |
|   \\  /    A nd           | Website:  www.openfoam.com                      |
|    \\/     M anipulation  |                                                 |
\*---------------------------------------------------------------------------*/
FoamFile
{
    version     2.0;
    format      ascii;
    class       surfaceScalarField;
    location    "900";
    object      phi;
}
// * * * * * * * * * * * * * * * * * * * * * * * * * * * * * * * * * * * * * //

dimensions      [0 3 -1 0 0 0 0];
oriented        oriented;


internalField   nonuniform List<scalar> 
14885
(
0.761856
-0.480267
-0.281609
0.104841
-0.320264
0.215483
0.523677
-0.318925
-0.204698
0.420902
0.0520863
-0.473306
-0.677222
0.377014
0.300199
0.153935
-0.460387
0.306435
0.386608
-0.205742
-0.180764
-0.441752
-0.0801993
0.521963
0.260819
0.345563
-0.606395
0.150355
-0.308536
0.158225
-0.637625
0.409052
0.228523
0.312222
-0.207329
0.369508
-0.18099
-0.188474
0.727984
-0.259006
-0.468988
0.167336
-0.431047
0.263587
0.230387
0.497578
-0.15438
-0.320269
0.474618
-0.383329
-0.254348
0.193454
-0.441634
0.248236
0.213005
-0.459121
0.246073
0.145881
0.223667
0.424277
0.337566
-0.0691417
0.489856
-0.490927
0.116639
0.374275
0.225596
-0.585081
0.359378
0.30861
-0.646948
0.338335
-0.197393
0.347845
-0.447712
-0.177977
0.625654
0.460021
-0.306111
0.482744
-0.509567
0.0268408
-0.105574
0.522582
-0.417171
-0.205034
0.315167
-0.110103
0.256918
-0.556198
0.299319
0.542202
-0.285209
0.101051
-0.542806
0.212849
0.291798
-0.504664
0.372051
-0.676188
0.303903
0.303471
-0.612421
0.30885
0.376958
-0.482621
0.437668
0.173925
-0.611597
0.405389
0.0773765
-0.295348
0.337137
-0.0674753
-0.269636
-0.396125
-0.072136
0.468368
-0.273269
0.566927
-0.293827
0.464221
-0.238798
0.565846
-0.639417
0.0735393
-0.313957
0.481088
0.362505
-0.161414
-0.201027
0.126308
0.173463
-0.299702
0.0255269
0.311647
0.660564
-0.416421
-0.244365
0.305625
0.389402
-0.195916
-0.105208
-0.159555
0.264831
-0.0505381
-0.0293313
0.0799267
0.352502
-0.206593
0.206426
-0.615319
0.408983
-0.216399
-0.201034
0.417392
-0.33368
-0.357983
0.691661
0.174169
0.18841
-0.0147133
0.229324
-0.214514
0.222268
-0.28971
-0.438677
-0.0935661
0.532241
0.27506
-0.625446
0.350363
0.27793
-0.565522
0.28754
0.178916
-0.430714
0.251765
0.48836
0.00467474
-0.493024
0.611625
-0.546499
-0.0651476
-0.0210366
0.509411
-0.303669
0.0221562
0.281562
-0.540546
0.319896
0.22051
0.695422
-0.410427
-0.285019
-0.439288
0.222832
-0.267162
0.545074
-0.278108
-0.599831
0.112409
0.487421
-0.0608665
0.626681
-0.510504
-0.0893293
-0.298312
-0.143268
0.0157314
-0.411799
-0.0855483
0.571582
-0.0527283
-0.519059
-0.367178
0.64175
-0.274868
-0.083968
0.33759
-0.253561
0.292335
-0.00750719
-0.284766
-0.258992
0.437898
0.255047
0.268684
-0.291965
-0.244165
0.53593
-0.613872
0.404674
0.209137
0.0950536
0.198034
-0.293044
-0.416167
-0.014977
-0.0763551
0.298664
0.310945
-0.0185457
0.248561
-0.595559
0.346916
-0.370916
-0.123435
0.494169
0.0456386
-0.045368
-0.217739
-0.306046
-0.255822
0.561896
0.237759
-0.447963
0.2101
-0.218377
0.313482
0.267176
0.0294258
-0.29651
-0.459824
0.338636
0.121247
0.261127
0.0142105
-0.243037
0.394562
-0.151478
-0.236502
-0.232696
0.469096
0.19276
0.0373737
-0.230078
0.324487
-0.591681
0.174348
0.21235
-0.458346
0.221814
0.318376
0.146896
-0.465429
0.363869
-0.189429
-0.101514
0.368767
0.0989112
-0.537593
0.613966
-0.338958
0.665172
-0.409935
-0.255286
0.613863
-0.245546
-0.368284
-0.32055
0.649949
-0.329505
0.578078
-0.371534
-0.668754
0.324039
0.344667
0.264695
-0.598377
0.0190444
-0.271693
0.252716
-0.250592
0.269679
-0.584882
0.311369
-0.481057
-0.132864
-0.375258
-0.251692
0.626814
0.0810534
-0.456281
-0.24968
0.144536
0.143996
0.103421
-0.247395
0.210456
0.403436
-0.313217
-0.272349
0.585531
0.181578
0.296606
-0.478304
-0.667129
0.336459
0.330546
-0.442305
0.0110619
0.431113
0.193037
0.170909
0.326732
-0.123558
-0.203106
0.184124
-0.439419
0.255276
-0.191175
0.0572899
0.262518
0.134498
-0.396973
0.280784
-0.586813
0.344574
-0.173963
-0.170579
-0.361652
0.659049
-0.297423
-0.031821
0.224652
-0.653671
0.205915
0.369575
-0.0664813
-0.303084
0.601705
-0.298339
-0.337059
0.25315
0.200352
0.411245
0.286036
-0.435655
0.149647
0.438249
-0.144574
-0.293643
-0.237047
0.561413
-0.311136
-0.310268
0.621324
0.087683
0.255839
-0.343579
0.217261
0.0479816
-0.265208
0.600552
-0.352079
0.361571
0.0080088
-0.139905
0.283923
0.00455603
-0.0550441
-0.211892
-0.455347
0.485879
-0.177273
0.020168
-0.533131
0.51275
-0.160723
0.598382
0.0952612
0.23154
-0.543725
0.446956
-0.245512
-0.201392
0.301001
0.137293
0.404519
0.290878
-0.0894167
0.350584
0.59451
-0.381651
-0.164873
0.479213
-0.314277
0.255464
-0.596563
0.341013
-0.210566
-0.298991
-0.289186
0.410413
-0.121176
0.377411
0.223697
0.165732
0.0728374
-0.361967
0.569477
-0.482433
-0.0871425
0.319183
0.282396
0.527838
-0.34636
-0.342592
-0.203917
-0.152676
0.415265
-0.0925635
0.290499
-0.197892
-0.201587
0.669452
-0.326047
-0.343482
0.143754
-0.525071
0.381336
0.352501
-0.295665
-0.0567911
-0.352052
-0.188625
0.587493
-0.168303
-0.419192
-0.278503
0.315374
-0.0368214
-0.303952
-0.288349
0.592169
-0.316558
0.192852
0.159678
0.270309
-0.58351
-0.312758
0.220218
0.130212
0.151206
-0.281352
-0.0780554
-0.338199
-0.276488
0.0948964
0.181612
0.28472
-0.588347
0.303619
-0.0462386
0.00569243
0.0405571
0.140448
-0.50787
0.203083
0.039986
-0.243037
-0.208669
-0.106025
0.314734
0.240618
-0.427765
0.187149
0.324682
0.190985
-0.515756
0.308965
-0.56475
0.583385
-0.247074
-0.46856
0.304562
0.163951
-0.113405
0.330711
-0.20532
0.523464
-0.0137218
-0.428672
-0.294413
-0.189842
0.514449
-0.156087
0.396692
0.278191
0.153873
-0.432041
-0.569094
0.0579387
0.511025
0.506248
-0.555225
0.0489876
-0.64841
0.413732
0.234626
0.538165
-0.291727
-0.246354
-0.411411
0.622563
-0.211517
0.306537
0.2619
-0.21723
-0.0446577
0.586073
-0.330659
-0.0172568
0.279178
0.485214
-0.351267
0.403109
-0.284986
-0.495641
0.273182
0.222421
0.425999
-0.241862
0.418742
-0.212728
-0.205878
-0.373554
-0.0862423
0.59053
-0.271438
0.501505
-0.420471
0.0729787
0.279573
-0.483472
0.162794
0.45188
0.117521
0.514323
0.145349
-0.402257
0.256943
0.0330669
0.012585
0.263166
-0.329642
-0.371914
0.488521
-0.507067
0.173962
0.33317
0.175241
-0.543591
0.368433
-0.348681
0.613374
0.39289
-0.553618
-0.115509
0.34462
-0.229033
-0.472576
-0.204656
0.559482
-0.384162
-0.185423
0.448581
-0.205857
0.293484
-0.151444
0.528432
-0.379567
0.136579
-0.305952
0.576283
0.0291952
0.301604
-0.330742
0.254063
-0.190466
-0.0635147
-0.25595
0.542065
0.411082
-0.265733
-0.478561
0.174463
0.205871
0.265582
-0.471412
-0.0287408
-0.0166154
0.6315
-0.24403
-0.387823
0.644058
-0.239431
0.63646
-0.331725
-0.304771
0.276203
0.384153
-0.518237
-0.121213
-0.294346
0.115188
0.138994
0.398929
0.245079
-0.307844
0.337067
0.740895
-0.443651
-0.2976
0.496601
0.00483005
-0.511907
0.182472
0.329138
-0.163513
0.289908
-0.309822
-0.254712
0.564526
0.297101
-0.274888
0.494458
-0.288591
0.239345
-0.589381
0.350129
0.137755
-0.397067
0.259246
0.266298
-0.553592
0.287218
0.291274
0.449284
0.315678
0.339702
-0.517678
0.604405
-0.261041
-0.34326
-0.094104
-0.182368
0.407981
-0.270233
-0.0743841
0.564242
-0.489569
-0.0809506
0.131972
-0.051006
-0.532955
0.330001
0.202974
-0.366851
0.539321
-0.172484
0.654533
-0.287589
-0.366941
-0.488633
0.177409
0.147226
0.19674
-0.343932
0.568301
-0.257067
-0.311157
-0.573989
0.0416293
0.532214
-0.663783
0.185801
0.478049
-0.226539
-0.581131
0.157752
0.423304
0.120265
-0.338636
0.218475
0.143852
0.28217
-0.303223
-0.208957
-0.423724
-0.224737
0.390321
-0.149571
0.0928213
0.494669
-0.188686
-0.318319
-0.385895
-0.147049
0.158152
-0.172789
-0.230311
-0.351498
0.581796
0.600102
-0.207217
-0.216932
0.337262
-0.206449
-0.457298
-0.139743
0.511449
-0.455862
0.504521
-0.048835
-0.567602
0.19655
-0.458464
-0.122732
0.302359
0.26602
0.326807
0.327728
-0.48347
-0.0347865
-0.321389
0.465151
-0.152277
0.474947
-0.322653
0.393958
0.271165
-0.543473
0.572647
-0.0292354
0.00754195
0.289622
0.564563
-0.325121
0.151501
-0.460681
0.309172
0.21181
0.314124
-0.525925
-0.554843
-0.0143771
-0.257992
0.566304
-0.308266
0.240232
0.287498
-0.258377
0.333449
-0.186191
0.28891
0.294322
0.256387
0.238341
-0.494973
-0.532391
0.0521121
-0.563241
0.000677294
0.562492
-0.313779
-0.15483
-0.646345
0.358773
-0.123482
0.258188
-0.13461
-0.309369
0.460864
0.291316
-0.597175
0.476587
-0.175518
0.124987
0.219616
-0.346311
0.14648
0.199856
0.260909
-0.609595
-0.290175
0.589314
-0.299131
-0.0110661
0.546899
-0.536155
0.292185
0.29825
-0.295851
-0.258635
0.554393
0.478269
0.0393236
-0.517803
0.536021
-0.274207
-0.261795
0.433338
-0.25546
-0.177984
-0.332453
-0.263187
0.26971
0.266333
-0.527596
-0.0274236
0.555021
0.266719
-0.0373049
-0.58623
0.328253
-0.221884
-0.273786
0.571371
-0.285807
0.225964
0.0598783
0.0149212
-0.488111
0.473126
0.252661
-0.485518
-0.264415
-0.41198
0.194538
0.252462
0.1688
-0.505221
0.336462
0.335038
0.141609
-0.398152
-0.515886
-0.0145489
0.530159
-0.553155
0.281995
0.271109
-0.283497
0.0617712
0.182645
-0.244359
-0.526288
-0.54275
0.531296
-0.540137
-0.378559
-0.224666
-0.320704
0.313291
0.248371
0.268231
-0.516658
-0.230296
-0.358989
-0.461314
0.114059
0.347347
-0.338526
0.269593
0.0690611
-0.0640506
-0.256585
-0.265466
-0.245058
0.510336
-0.349762
-0.111466
0.18653
0.23235
-0.291447
0.531595
0.0286883
-0.213831
0.185174
-0.274838
0.498246
-0.313751
0.637713
0.220492
0.261556
-0.482117
0.174696
-0.541574
0.229826
0.264633
-0.0631022
-0.0616569
0.124789
0.180871
0.252359
-0.576639
0.28238
0.294286
0.473078
-0.138029
-0.0650946
-0.125296
0.312703
-0.530851
0.21792
0.533299
-0.432244
-0.424894
0.350808
0.194392
0.1208
0.102146
-0.518801
-0.153502
-0.0319134
0.185441
-0.256159
-0.317943
0.574096
0.107253
-0.0147444
-0.0452583
0.060029
-0.527376
-0.000215095
0.319833
-0.194809
-0.422073
0.578416
-0.156394
0.52004
-0.346023
0.499597
-0.269826
0.027559
-0.363807
0.336247
0.403446
-0.0905061
-0.312903
-0.419521
-0.12399
0.448965
-0.268257
0.109475
-0.509561
0.400085
-0.142432
0.398562
-0.256143
0.459749
-0.139433
-0.320273
-0.187843
0.596899
-0.363972
-0.232953
-0.395233
0.252772
0.321331
0.275186
-0.596548
0.343671
0.129421
0.571253
-0.279098
0.346444
0.322934
-0.279962
0.47787
-0.428524
-0.0493376
-0.267105
0.451931
-0.184731
0.362067
-0.334487
0.35274
0.278459
-0.153437
0.453482
0.0243879
0.512541
-0.573426
0.280829
0.12265
0.484218
-0.192414
-0.54812
0.126009
0.434852
-0.24031
-0.220275
0.259865
-0.0395572
0.347891
0.555836
-0.611505
0.0556458
0.0514077
-0.0806862
0.307415
0.291378
-0.598842
0.519824
-0.217358
0.510016
-0.260727
-0.249238
-0.270904
-0.286996
-0.322022
0.547773
-0.225749
0.483168
-0.373674
0.300211
-0.204897
0.439739
-0.651023
0.311236
0.339723
0.220111
0.344537
0.437541
-0.0985892
-0.338894
0.395508
0.0420757
-0.216544
0.245274
-0.392232
0.323011
0.26222
-0.558178
0.281458
0.0124514
-0.0755217
-0.639884
0.594866
-0.310268
-0.284585
-0.453844
0.401094
-0.0744456
0.423724
-0.349423
-0.326103
-0.258969
0.585004
-0.600992
0.274832
0.449773
-0.229331
-0.574318
-0.222051
0.248073
0.133366
0.394524
0.125383
-0.340006
-0.256646
0.0959291
0.204336
0.290582
0.252487
-0.54309
0.126889
-0.202584
0.0757155
0.0320888
-0.252322
0.201233
-0.547124
0.345935
-0.450907
-0.112398
0.13785
0.185224
-0.438728
-0.104797
-0.178802
0.11379
-0.508075
0.201496
0.306325
-0.250925
0.535675
0.216484
0.232316
-0.28452
0.56534
0.156768
-0.518456
-0.266359
-0.113163
0.309042
0.285837
0.552464
-0.332267
0.630482
-0.339124
-0.291348
0.511511
0.0443108
-0.311362
-0.239556
0.550717
-0.444944
0.474692
-0.304757
-0.169908
0.364708
0.271718
-0.32169
-0.241969
0.563666
0.212884
-0.516813
0.303988
0.203143
0.116727
-0.535735
0.508328
-0.572613
-0.294106
0.479932
-0.273423
0.305155
-0.0316687
-0.258
-0.239881
0.497704
-0.530904
-0.00253018
0.18498
0.331232
0.143501
-0.328814
0.269826
0.0590714
-0.479332
0.213392
0.265924
0.536052
-0.588789
0.0525639
-0.350588
0.58733
-0.236739
-0.176544
0.394664
-0.218031
-0.16763
-0.225094
0.392758
-0.222719
-0.197063
0.419778
0.488781
-0.184309
0.0707341
-0.606457
0.14782
0.332883
-0.480849
0.228989
-0.470018
0.240983
-0.56234
0.268247
-0.591228
0.347856
0.243021
0.170335
0.365668
-0.440479
0.255791
0.225614
-0.48158
0.306944
0.242486
-0.549459
0.28078
0.179014
-0.266801
-0.212547
-0.156434
-0.217089
0.242383
0.192473
-0.00967916
0.276667
-0.266854
-0.335992
-0.252362
-0.202318
0.450402
-0.247963
-0.456797
0.300374
-0.240776
0.527258
-0.286489
0.116931
-0.467518
-0.0531906
-0.220178
0.229726
-0.495396
0.632205
-0.440541
-0.19164
0.518085
-0.305189
-0.42181
0.298224
-0.244938
0.505078
-0.260202
-0.23748
0.404373
-0.166785
0.29887
0.182626
-0.298054
-0.415536
-0.100582
-0.409995
0.210965
-0.54264
0.331721
-0.170738
-0.331952
-0.259651
0.184147
0.126066
-0.310169
0.13473
-0.546606
0.347443
0.204233
-0.551717
0.291526
-0.301139
-0.362347
0.623255
-0.423896
0.335599
0.0883867
-0.0395718
-0.289162
0.0562612
-0.46055
0.404282
-0.266417
-0.273287
0.539733
0.0939208
-0.217365
-0.181574
0.51134
-0.329675
0.260456
-0.565653
0.563053
0.00256364
0.450612
0.181613
0.362114
-0.642951
0.280794
0.365096
-0.60881
0.243696
-0.223668
0.569637
-0.345864
-0.229383
-0.271981
0.497712
-0.225658
0.286092
0.224675
-0.510834
-0.00531254
0.540454
-0.535143
0.0410357
0.163369
-0.204346
0.215451
0.179157
0.328879
0.427107
-0.412229
0.29486
0.283299
-0.578239
0.219918
-0.178813
-0.302492
0.471323
0.547431
-0.336469
0.259767
0.228926
-0.106673
0.411519
-0.305117
-0.312456
0.133053
0.17944
-0.0668082
0.452733
-0.385915
0.451194
-0.394951
0.499331
-0.0683264
-0.00283505
0.507207
0.234595
0.24728
-0.482062
0.553231
0.00546478
-0.558807
-0.112845
0.259817
-0.460574
0.200557
-0.200224
-0.166715
0.36703
-0.275198
0.553533
-0.278534
0.217277
-0.532877
0.315587
-0.342782
-0.140707
0.228165
-0.430353
0.349565
-0.601963
0.141388
0.552471
-0.286282
-0.313244
0.250032
0.259085
0.337789
-0.26734
-0.0710642
0.386813
-0.347735
0.668178
-0.330625
-0.31706
-0.295462
0.0163273
-0.531527
0.515002
0.586396
-0.23895
-0.0988096
-0.186966
-0.550143
0.207338
0.296831
-0.573988
0.277065
-0.239391
0.487691
0.0773591
0.161166
-0.539726
0.496374
-0.554085
0.018101
0.535863
0.326767
0.102244
-0.428952
0.559082
-0.246514
-0.471799
0.0840978
0.387647
0.412616
0.246402
-0.0724867
-0.39939
-0.408142
-0.356518
-0.125986
0.526111
-0.308841
0.35457
-0.421394
-0.0434685
0.286785
-0.358793
0.585595
-0.303319
-0.282263
0.219226
0.280313
0.345469
0.386526
0.235719
-0.460371
0.255973
0.204509
0.173364
-0.524171
-0.417952
0.0521226
0.365834
0.31475
0.270857
0.301223
0.402102
0.157458
-0.394182
0.287217
0.496637
-0.240445
-0.540241
0.256789
0.283422
-0.206418
0.533225
0.299739
0.266612
0.310748
-0.0462636
-0.264472
0.236644
0.218564
-0.455358
-0.19248
-0.28894
0.481445
0.569536
-0.288497
-0.281213
-0.227616
-0.260473
0.487875
0.53259
-0.242026
0.630056
-0.265411
0.0156848
-0.226454
-0.313806
0.174845
0.233124
-0.212214
-0.434738
0.0679247
-0.129568
-0.333303
-0.183894
0.517237
-0.196338
-0.263922
0.50173
-0.327803
0.456053
-0.207955
-0.532149
0.0873615
0.44854
0.161182
-0.254022
0.506796
-0.252873
-0.351041
0.302158
-0.353974
0.153832
0.485986
-0.230374
-0.523855
0.518539
0.558143
-0.0356969
-0.545024
0.252021
0.292836
-0.27789
0.578298
-0.30062
0.22626
0.272708
-0.498931
-0.376396
0.139035
-0.153319
0.440234
0.207997
-0.52215
-0.517489
0.273226
0.268744
0.279178
-0.548112
-0.494928
-0.128488
0.448258
0.304295
-0.116087
0.529773
0.323252
0.248923
-0.572377
0.541293
-0.139135
0.273589
-0.100075
-0.298995
0.592363
-0.293371
0.49287
-0.21968
0.69967
-0.437035
-0.263148
0.0614741
-0.0297846
-0.031664
-0.128276
0.29345
-0.567551
0.412433
-0.0747852
-0.517033
0.267905
0.249127
0.231464
-0.0732398
0.379821
0.161529
0.303611
0.265744
0.558153
-3.82985e-05
-0.558184
-0.496849
0.242734
0.103953
-0.510219
0.406257
0.581867
-0.278309
-0.155759
0.3393
-0.541924
0.40738
0.134446
0.239001
-0.601356
0.330995
0.258321
0.552708
-0.268131
-0.284657
0.300296
-0.0742883
-0.097652
0.192561
-0.392621
-0.175123
0.567733
0.30159
0.265186
0.283728
0.317706
-0.601485
-0.515598
0.193589
0.312931
-0.481664
0.117853
-0.244872
0.526815
0.0949001
0.220524
0.237567
-0.51078
0.273167
0.0428206
-0.435879
0.392972
-0.471604
-0.130387
0.387798
-0.240116
0.501351
-0.263171
-0.323376
0.607691
-0.284313
-0.208543
-0.299776
0.185166
0.241997
-0.427286
-0.276875
0.142599
-0.408899
0.298806
-0.561654
0.262892
0.217928
0.290155
-0.508473
-0.525295
-0.0753276
-0.339371
0.414694
-0.487934
0.552208
-0.0640937
0.0526235
-0.262922
-0.299056
0.561819
0.272479
-0.532872
0.260356
0.332136
-0.5883
-0.170349
0.49163
0.504943
-0.245257
-0.128552
-0.413444
0.49083
-0.27168
0.531997
-0.225083
0.276405
-0.366206
0.408984
-0.40561
0.196574
-0.327135
0.130643
-0.280027
0.240742
-0.211227
-0.411318
0.144256
0.357482
0.00335758
-0.413842
0.110676
0.200086
-0.543143
-0.343794
0.444992
-0.101039
-0.271209
0.553625
-0.299289
-0.211196
-0.255216
-0.262792
0.470605
-0.463507
-0.551288
0.174685
0.376579
-0.398762
0.0638803
0.334924
0.330113
0.239056
-0.569161
0.162599
0.288665
-0.451258
-0.123684
0.319435
-0.195697
-0.343837
0.582832
0.335549
-0.592989
0.257422
-0.447832
-0.0397965
0.258169
0.251899
0.544904
-0.545321
-0.187148
-0.294517
-0.0565036
-0.375135
0.43153
0.482161
-0.384906
-0.0330318
0.236008
-0.532955
0.296846
0.297473
-0.186791
-0.393326
0.225757
0.439791
0.259364
0.102783
0.3804
0.660831
-0.332734
-0.328089
0.568903
-0.294457
-0.274606
0.259645
-0.556275
0.296585
0.41938
-0.232728
-0.506594
0.155042
0.106246
0.444839
0.152419
0.174058
0.184147
-0.516294
0.332253
0.570756
-0.311156
0.172864
-0.397952
0.320583
0.199014
-0.51957
0.433723
-0.191788
0.370606
-0.173947
-0.346296
-0.409157
0.287527
-0.554913
0.267329
-0.315341
0.476164
-0.160979
-0.594698
0.15875
0.483229
0.100337
-0.583959
0.187989
-0.368784
0.180765
0.0571672
0.212751
0.215696
0.434137
0.223656
-0.47875
0.254953
0.270131
0.277642
-0.300401
0.591702
-0.274829
-0.279153
-0.279725
0.558617
-0.304642
0.248082
-0.547079
0.204259
0.304042
-0.508335
0.219845
-0.485289
0.265443
0.312416
0.302451
-0.614897
-0.271724
0.25625
-0.314663
0.626892
-0.312168
0.101147
-0.444795
0.590062
-0.266977
0.309542
-0.571355
0.26166
0.594918
-0.431573
0.164813
-0.276102
-0.240932
-0.0972798
-0.540546
0.229017
0.349445
-0.192633
-0.156712
-0.258872
0.175018
-0.107075
-0.279045
-0.268158
0.547146
-0.140005
-0.199492
0.295458
0.327172
0.331912
0.328927
0.269828
-0.593191
0.585282
-0.249753
-0.353926
-0.204491
0.558481
0.451952
-0.251069
-0.200772
-0.244286
-0.0555243
0.182427
0.548512
-0.220916
-0.327568
0.487918
-0.385113
0.239217
0.265645
-0.250265
0.522702
-0.146574
-0.334522
-0.343657
-0.0801516
0.201659
-0.501526
0.299867
0.297933
-0.34141
-0.0573195
0.0644893
0.0674976
0.485431
-0.125361
0.245924
-0.281698
0.594084
0.635525
-0.269799
-0.365876
0.00394647
-0.34439
0.340496
-0.578911
0.168678
0.410231
0.295605
0.298341
-0.563784
0.265332
-0.338521
0.269731
0.0689024
-0.0982587
-0.322222
0.278716
-0.622573
-0.0764018
0.239817
-0.23157
-0.258041
0.489454
-0.120045
-0.210988
0.331087
-0.523979
0.466786
-0.304182
0.565332
-0.519249
-0.0461035
0.427498
-0.185123
0.287728
-0.502512
0.214661
0.589418
-0.300631
-0.526632
0.19336
0.311933
-0.571155
0.293138
-0.248993
0.041387
0.207656
0.249247
-0.286274
-0.230488
0.309069
-0.425204
-0.278911
-0.296003
0.574741
0.183797
0.113683
-0.201459
0.560754
-0.230632
-0.504831
0.32088
-0.613474
0.203503
0.289273
0.300017
-0.439657
-0.115353
-0.473186
0.216535
-0.445869
0.229504
-0.276444
0.51567
-0.331423
-0.618668
0.276142
0.342488
0.499298
0.333657
0.304218
-0.577178
0.272936
0.400312
-0.342639
0.171296
0.344475
0.271884
0.369612
-0.435132
0.0766255
0.358563
-0.208947
-0.252678
0.402063
-0.149296
-0.367544
0.149199
-0.236621
0.453314
-0.537557
-0.281647
0.0322639
0.0276789
0.0560984
-0.0238176
0.277165
0.145889
0.248858
0.082227
0.218113
-0.219591
-0.02935
-0.00180761
0.194913
0.3709
-0.424005
0.0531061
0.150748
0.27128
-0.421934
0.527171
-0.206568
-0.251086
0.656433
-0.324523
-0.209962
-0.294558
0.50452
0.205957
0.13954
0.607891
-0.245839
-0.123647
0.312379
-0.188688
0.53825
-0.336943
-0.386503
0.311185
-0.442646
-0.298096
0.615762
0.566592
-0.19569
0.446199
-0.209665
0.130625
-0.450898
-0.212765
0.5083
-0.295482
-0.324645
0.549257
-0.224629
0.137856
0.195926
-0.333744
-0.585771
0.295849
0.289963
-0.338309
-0.213004
0.532555
-0.00718234
-0.525781
-0.25955
0.198512
0.0610629
-0.252901
0.398519
-0.145692
-0.223673
0.531491
-0.307814
-0.63767
0.28705
0.35061
0.442582
0.110578
0.274078
0.206843
0.513094
-0.308892
0.255724
-0.283085
0.484722
-0.41703
-0.268045
0.539414
-0.271374
0.123378
-0.369656
0.271253
0.226534
-0.247386
0.150108
-0.38152
-0.184159
-0.0753654
-0.163647
0.310678
-0.146996
-0.495579
0.294524
0.200988
0.306743
-0.162563
-0.144142
0.251383
0.511518
-0.259815
-0.251769
-0.522117
0.310587
0.211633
0.193106
-0.464906
0.0696546
0.344637
-0.206735
0.311791
-0.0862555
-0.225517
0.544386
-0.256904
0.523293
-0.268184
-0.0839781
-0.380957
-0.268217
0.577644
-0.184424
-0.287257
0.28203
0.286715
-0.255342
0.0271121
0.0524982
-0.557455
0.302694
0.447895
-0.297061
0.198446
-0.141055
0.346683
-0.20559
-0.367171
0.607951
-0.240816
0.284052
0.351319
0.208788
0.281975
-0.250764
0.155152
0.194384
-0.530491
-0.00133167
0.34112
-0.140163
-0.200897
-0.191081
-0.294536
0.485623
-0.268077
0.557155
-0.289143
-0.603778
0.283133
0.32063
0.342468
-0.146496
-0.229086
0.485168
-0.551534
0.262729
0.293426
0.259206
0.254527
0.256926
0.471855
-0.327599
-0.158625
-0.43614
0.295803
-0.188983
0.468651
-0.260497
-0.208166
0.237051
0.21568
-0.452207
-0.26873
0.596748
-0.328036
-0.37196
0.302919
-0.298915
-0.498196
0.287621
-0.304394
-0.280207
0.200749
0.253424
-0.454161
-0.283585
0.553631
-0.270017
-0.270976
0.597769
0.323102
0.212786
-0.535865
0.185843
-0.479987
0.288193
-0.556284
0.214407
-0.55294
0.33863
0.314877
0.203219
-0.227912
0.371543
-0.160722
-0.210894
0.281319
-0.560648
0.201889
-0.484988
0.22645
0.160818
-0.611882
0.281961
0.329894
-0.343633
0.40527
-0.0617053
0.192687
-0.333711
0.323879
-0.594877
-0.540719
0.281918
-0.292708
-0.277518
0.570119
0.26948
-0.22146
-0.06784
-0.511073
-0.29911
0.580967
-0.281976
0.230213
-0.523825
0.293614
0.312871
0.257833
-0.0688175
-0.312106
0.558332
-0.246241
-0.576256
0.28349
-0.256208
-0.22651
0.482701
0.454499
-0.238739
-0.262893
-0.307562
-0.330119
-0.235584
0.267699
0.290798
-0.214035
0.501736
0.342612
-0.0728099
-0.277189
-0.284204
0.486058
0.507737
0.0132323
-0.521128
-0.367782
-0.0672991
-0.37498
-0.165165
0.540084
-0.227761
-0.198233
-0.329103
0.527359
-0.191178
-0.267974
-0.248313
0.216554
-0.31534
-0.221784
0.407664
-0.562859
0.169938
-0.554695
0.291693
0.00135922
-0.205605
0.159356
0.253149
0.209732
-0.543843
0.334108
-0.256427
-0.616112
0.287701
0.328463
-0.245973
0.474603
-0.228487
-0.583359
0.208307
0.366318
0.522208
-0.291998
-0.246736
0.582511
-0.335707
-0.162565
-0.246928
0.470445
0.593742
-0.30827
-0.285528
-0.116625
-0.352172
0.468798
-0.0349311
0.0650145
0.560617
-0.350872
0.51734
0.238278
-0.59212
-0.151965
0.438379
-0.286378
-0.22506
0.223299
-0.114669
-0.439519
0.202708
-0.399771
0.285881
0.257444
-0.543377
0.626303
0.537149
0.45273
0.227865
-0.573654
0.34575
0.277576
-0.222386
-0.0551222
-0.116835
0.278058
-0.161198
0.224208
0.345524
-0.328188
0.500041
-0.273752
-0.558131
0.310773
0.24731
-0.31973
0.515703
-0.116733
0.573935
-0.279153
-0.294304
0.587695
-0.293514
-0.281032
0.193997
0.254574
0.129369
0.435946
0.182722
0.244771
0.00170136
0.247845
-0.58447
0.336594
-0.245303
-0.286014
0.494737
0.599533
-0.351702
0.239995
0.28221
0.516517
-0.414286
-0.102266
0.31677
-0.602767
0.28599
0.344362
-0.148057
-0.19622
0.153661
0.217808
0.251451
0.0603564
0.281209
-0.355926
0.240727
-0.496921
0.256331
-0.57114
0.292052
0.276841
-0.116447
-0.11265
0.393961
0.0668686
0.377602
-0.444513
-0.19402
0.251288
0.287305
-0.390186
0.286543
0.515339
0.0137361
-0.529087
0.118127
0.398355
0.483703
-0.189246
-0.551575
0.226904
-0.328904
0.547861
-0.218857
0.323884
0.378452
-0.231637
0.0687722
0.208869
0.279014
-0.588457
0.309427
-0.255613
0.596265
-0.340667
0.296012
0.343905
0.348869
0.574942
-0.529934
0.52241
0.317789
0.256949
-0.574788
0.300073
0.248012
-0.54822
0.291488
-0.56364
0.272079
-0.237276
-0.313697
-0.230148
0.146687
-0.216236
0.462507
-0.246232
-0.0437523
-0.134974
-0.241822
0.514519
-0.590792
0.282286
0.308588
-0.22431
-0.273902
-0.38502
0.451848
0.170442
0.174006
0.080733
0.317812
0.508374
-0.193478
0.238506
0.29238
-0.530945
-0.36392
-0.197696
0.0537723
0.211709
-0.265426
0.000420487
0.22611
-0.480013
0.248263
-0.686083
-0.64479
0.387224
0.257574
-0.462461
0.17929
0.283201
-0.536358
-0.643957
0.363161
0.280817
-0.258138
-0.183232
0.439362
-0.256085
0.527612
-0.409502
-0.121098
0.41463
0.314354
-0.254431
-0.50857
0.152286
0.356281
-0.219654
-0.342201
0.561918
-0.138076
-0.098732
0.295273
-0.196515
0.124373
0.403221
-0.592169
0.306054
0.285929
0.287029
-0.473775
0.186732
-0.354651
-0.289284
-0.320217
0.203493
0.116769
-0.541403
0.286719
0.254558
0.549491
-0.240483
-0.228116
0.403018
0.30539
0.276422
-0.32513
0.550048
-0.224938
0.267963
-0.11703
0.238343
-0.392841
0.495118
0.415282
-0.134458
0.477797
-0.199202
-0.278579
-0.306591
-0.0905153
-0.198788
-0.386377
0.547508
-0.256106
-0.548485
0.125849
0.340123
-0.465964
0.183124
0.232207
-0.548749
0.208162
0.340566
-0.126247
0.464927
-0.322455
-0.148903
0.346866
-0.15505
-0.19175
-0.504486
-0.209587
0.364851
0.281143
-0.571458
0.2903
0.140565
-0.330201
0.501583
0.265437
0.189731
-0.455139
0.314842
0.193548
0.311306
0.261536
-0.572836
0.19261
0.119817
-0.379989
0.589032
0.557827
-0.278924
0.24634
-0.529918
0.602612
-0.272059
-0.330486
-0.250823
0.531723
-0.28108
-0.400078
0.17602
0.224031
-0.267993
0.559955
-0.292071
0.241487
-0.438875
0.197376
0.000243407
0.605327
-0.605614
0.201995
0.0796126
-0.249957
0.543826
-0.293908
0.271372
0.285714
0.303508
0.263786
-0.567339
0.23892
0.29966
-0.538619
0.194818
0.146357
0.138973
-0.562761
-0.328637
0.544359
-0.25851
-0.212563
0.53569
-0.532265
0.308602
-0.460297
0.193482
-0.384198
0.26914
0.186445
-0.455595
0.202776
-0.486993
-0.0163392
0.52387
-0.254584
-0.0454635
0.244009
0.351294
-0.547057
0.195771
-0.477797
0.208505
0.1059
-0.599487
0.370537
0.228952
-0.334843
-0.295282
-0.293373
-0.309573
0.602934
0.273516
-0.398144
0.228492
0.222039
0.299981
0.231515
-0.563217
0.307202
0.255942
-0.00260238
0.548314
-0.545803
-0.381911
0.543808
-0.161915
-0.282371
0.485168
-0.199405
0.41277
-0.213364
0.216341
0.344286
-0.298193
-0.281622
0.289351
-0.55744
-0.442079
-0.13137
0.559146
-0.226785
-0.332297
0.541135
-0.229826
0.254383
0.0882995
-0.324562
-0.2915
0.182115
-0.28358
-0.495702
0.177072
0.318629
-0.478433
-0.352009
-0.259899
0.299214
-0.0676028
-0.305466
0.601334
-0.295819
-0.292047
-0.0849329
-0.51912
0.519212
0.296747
-0.563646
0.266774
-0.111569
0.295376
-0.166979
-0.213576
-0.289072
-0.325031
0.124
0.201081
0.220369
0.261647
-0.216276
0.381961
-0.283944
0.564829
-0.0521078
0.563054
0.298036
0.183431
0.183426
0.123355
-0.274456
0.43838
0.243833
0.261177
-0.174823
0.273548
0.27723
-0.550914
-0.522354
0.271274
0.549683
-0.201952
-0.347712
0.469191
-0.214276
-0.255037
0.254533
0.345321
-0.599884
0.605782
-0.196767
0.196143
-0.428081
0.231911
0.315717
-0.513939
0.219172
0.256701
-0.53527
0.278538
-0.2786
0.601347
-0.346815
-0.25672
-0.474934
0.410497
-0.207783
0.53628
-0.249267
-0.291958
0.0395587
0.187673
-0.227158
0.218008
0.194765
-0.223843
-0.122598
-0.164615
-0.279192
0.570599
-0.223923
-0.342008
0.56601
-0.606645
0.273987
0.332629
0.0478855
0.57561
-0.272729
-0.303258
-0.34562
0.265354
0.550849
-0.29421
0.578863
-0.284766
-0.258232
-0.607319
0.234022
0.373284
-0.570744
0.274362
0.296176
0.399467
-0.57789
0.17841
-0.285971
-0.260156
0.546067
-0.27266
0.406661
-0.189067
0.237084
-0.566053
0.259919
-0.596192
0.336242
0.203094
0.143627
0.320591
0.115702
0.301797
0.27344
-0.28127
0.573655
-0.292411
-0.232172
0.595983
-0.363813
0.0690362
-0.12455
-0.135833
-0.197875
-0.508086
0.086128
0.290197
-0.571547
0.276359
0.414345
0.199636
0.145048
0.582482
-0.23838
0.455283
-0.216886
-0.286902
0.52688
0.597891
-0.337978
0.555267
-0.241458
-0.377041
-0.30285
-0.289504
0.431112
-0.235015
0.522088
-0.28404
-0.238377
0.572394
-0.291205
-0.260568
-0.323327
0.583826
0.234424
-0.458125
0.22371
0.30994
-0.591641
0.36352
-0.0648261
-0.298631
0.0180211
-0.589378
0.271415
0.271012
0.299468
-0.570856
0.278841
0.265496
0.254994
-0.179254
0.301984
0.26365
-0.565649
0.142973
0.194429
-0.337356
-0.530756
0.530315
-9.2154e-06
0.301318
-0.578929
-0.213891
0.509364
-0.29568
-0.262312
-0.0457538
0.35802
0.144085
-0.482417
0.220436
-0.439773
0.558332
-0.118557
-0.162993
0.281153
-0.11814
-0.274527
0.518286
-0.34343
0.137891
0.339786
0.209918
0.373248
-0.204963
-0.168316
0.230521
-0.0038241
0.51874
0.228026
0.6088
0.143744
0.19877
0.0725004
0.196559
-0.268998
-0.343416
0.275787
0.293733
-0.569626
0.252968
0.2161
0.253068
-0.139187
-0.347433
0.140727
0.113867
0.516124
-0.520229
0.629647
-0.341902
-0.242218
0.517448
-0.275357
0.540567
-0.283893
0.111203
-0.154886
0.314156
-0.197387
0.31097
-0.579725
-0.238411
0.603091
-0.355883
-0.247227
-0.204827
-0.24352
0.48437
0.288008
-0.490899
0.20291
-0.303731
-0.282
0.284721
-0.0708611
0.285884
-0.214988
0.463201
0.0168184
-0.480316
-0.0808595
-0.457656
0.110167
0.341666
0.283101
0.0804864
-0.244454
-0.252332
0.286059
0.281898
-0.568113
-0.365218
0.146036
-0.276205
0.499714
-0.223638
-0.462997
0.222498
0.240527
-0.294162
-0.276784
-0.0605178
-0.22997
-0.369516
-0.0725774
0.124027
-0.212354
0.281192
-0.0555014
0.293618
-0.507716
0.176125
0.202457
0.22861
-0.278442
0.551754
-0.543054
0.23092
-0.471499
0.532779
-0.0612949
0.225281
0.0799414
-0.399626
0.177854
0.350489
-0.155613
-0.164394
0.0263438