/*--------------------------------*- C++ -*----------------------------------*\
| =========                 |                                                 |
| \\      /  F ield         | OpenFOAM: The Open Source CFD Toolbox           |
|  \\    /   O peration     | Version:  v2012                                 |
|   \\  /    A nd           | Website:  www.openfoam.com                      |
|    \\/     M anipulation  |                                                 |
\*---------------------------------------------------------------------------*/
FoamFile
{
    version     2.0;
    format      ascii;
    class       surfaceVectorField;
    location    "900";
    object      Uf;
}
// * * * * * * * * * * * * * * * * * * * * * * * * * * * * * * * * * * * * * //

dimensions      [0 1 -1 0 0 0 0];


internalField   nonuniform List<vector> 
14885
(
(0.992861 -0.0455141 9.2965e-22)
(0.990897 -0.0397186 3.91582e-21)
(0.982244 -0.0480157 -3.06932e-22)
(0.810617 -0.0494729 -1.03489e-20)
(0.780587 -0.089121 4.23058e-21)
(0.782912 -0.0193433 2.19381e-21)
(1.08985 0.0184383 0)
(1.0949 0.0124468 0)
(1.08447 0.0104278 0)
(1.01691 0.00170557 0)
(1.01706 0.00183225 3.25473e-22)
(1.01709 0.00172173 -6.02858e-22)
(1.01258 0.000684194 1.17331e-21)
(1.01223 0.000527826 7.20899e-22)
(1.01262 0.000749798 -6.14312e-22)
(0.896559 -0.202664 -2.22169e-21)
(0.881281 -0.200449 9.82186e-21)
(0.897997 -0.184531 -1.23727e-22)
(0.891908 0.174979 2.44198e-21)
(0.898938 0.189029 7.88007e-21)
(0.906997 0.172246 5.53081e-21)
(0.991486 0.201368 5.6652e-21)
(0.97995 0.211123 1.20451e-21)
(0.9799 0.222049 -4.79715e-21)
(1.01364 -5.09905e-05 0)
(1.01379 3.18506e-05 0)
(1.0138 -4.19082e-05 0)
(0.945125 -9.532e-05 4.3707e-21)
(0.940798 0.00523673 1.60931e-21)
(0.936919 -0.00349492 2.51904e-21)
(1.03249 -0.0484785 -8.3036e-22)
(1.03832 -0.0422725 5.04367e-21)
(1.0416 -0.034849 1.30542e-21)
(0.840029 -0.00228114 2.43735e-21)
(0.836583 -0.0795281 1.57623e-20)
(1.04735 0.074787 1.22473e-22)
(1.05193 0.0769226 9.09415e-22)
(1.05134 0.0713128 0)
(1.01196 0.002239 -1.19245e-21)
(1.0122 0.002007 -4.06285e-22)
(1.01233 0.00262702 1.27383e-21)
(1.02934 0.00373789 -1.54724e-22)
(1.03002 0.00367841 -1.10026e-21)
(1.02979 0.00429952 -9.07312e-22)
(1.01155 0.00245132 2.60373e-21)
(1.01171 0.00185532 -8.9565e-22)
(0.921818 -0.201677 5.28343e-22)
(0.92307 -0.212745 2.38133e-21)
(0.93177 -0.203136 -7.96751e-21)
(1.02659 -0.0525222 -9.18443e-23)
(1.02378 -0.0608762 0)
(1.04669 0.0242687 -4.72891e-21)
(1.04902 0.0245834 -7.73513e-21)
(1.04776 0.0268764 -1.64681e-21)
(1.02936 -0.0118257 0)
(1.02741 -0.0139249 0)
(1.03126 -0.0146399 0)
(1.04318 0.072295 4.46342e-21)
(1.04299 0.0780017 -9.49784e-21)
(0.995929 -0.0522881 1.52754e-21)
(1.00195 -0.0434147 1.87832e-22)
(1.01677 0.00156355 0)
(1.01672 0.00167403 0)
(0.886517 0.236116 -9.03776e-21)
(0.870063 0.210829 -1.12009e-21)
(0.889981 0.21492 -5.24688e-21)
(1.01486 0.00382252 2.86708e-22)
(1.01503 0.00368674 3.34243e-22)
(1.01474 0.00357185 4.65903e-22)
(1.00862 -9.88366e-05 2.65066e-22)
(1.00968 -1.15335e-05 -4.09838e-23)
(1.01048 -3.17818e-06 5.46088e-22)
(0.953354 0.00165744 2.08733e-21)
(0.950605 -0.00670946 1.79124e-21)
(1.0129 -0.000144859 -2.89875e-22)
(1.01295 -0.000144056 -8.06778e-22)
(1.01291 -0.000149307 -1.99281e-21)
(0.912371 -0.201432 -1.97181e-21)
(0.897982 -0.218383 -7.48899e-22)
(0.894279 0.255032 0)
(0.900463 0.257465 3.61919e-21)
(0.905727 0.266684 -1.14846e-20)
(1.00932 0.000251611 1.5093e-21)
(1.00789 8.0871e-05 9.321e-22)
(1.00777 0.000121338 -5.09076e-22)
(1.10861 0.0670812 8.04041e-21)
(1.10666 0.071943 2.08616e-20)
(1.11297 0.070683 1.35641e-20)
(1.0134 -6.4868e-05 8.03525e-22)
(1.01351 -6.50047e-05 6.81233e-25)
(1.01352 -1.76961e-05 -1.28906e-23)
(1.01331 -8.41406e-05 7.98252e-22)
(1.01329 -9.59105e-05 7.61418e-22)
(1.0016 0.190871 -1.03383e-21)
(1.00245 0.17254 4.41465e-21)
(0.97341 0.164771 -6.76266e-21)
(0.958798 0.168843 1.33206e-21)
(0.968005 0.134287 -1.87308e-20)
(1.01771 0.000327374 -4.35482e-22)
(1.01839 0.000540411 -1.80868e-22)
(1.01871 0.000601127 8.48615e-22)
(1.01263 -0.000778836 -1.68482e-22)
(1.01248 -0.000732424 3.54502e-23)
(1.01248 -0.000690612 -1.91745e-21)
(1.01043 0.000352263 5.39808e-22)
(1.01029 0.000274033 -1.42125e-21)
(1.01011 -0.00435026 -6.47222e-24)
(1.01098 -0.00393219 -3.27316e-22)
(1.00993 -0.00301223 4.09765e-23)
(0.888394 0.248935 -2.32836e-21)
(0.878095 0.239658 6.00241e-22)
(1.01349 -9.52445e-05 -8.36372e-22)
(1.06497 0.208544 1.2274e-21)
(1.06787 0.197223 0)
(1.07725 0.205762 0)
(0.95116 -0.206617 -1.86514e-21)
(0.974254 -0.183372 -1.03333e-20)
(0.987471 -0.151533 -2.17484e-21)
(1.01641 0.0026673 8.04868e-22)
(1.01622 0.0025815 1.34467e-21)
(1.01631 0.00250784 1.67896e-22)
(1.01473 0.00391129 -1.67834e-22)
(1.015 0.00399358 3.69308e-22)
(1.01358 -0.000452938 5.8241e-23)
(1.01353 -0.000440256 -8.58245e-22)
(1.01351 -0.000407131 -8.82545e-22)
(1.0287 0.00329211 -1.73939e-22)
(1.02854 0.00389484 -6.94839e-22)
(0.946481 0.0706257 0)
(0.947039 0.0787486 0)
(0.954396 0.0731855 0)
(1.00263 0.282766 -4.47894e-21)
(1.00092 0.301673 -4.5909e-21)
(1.02198 0.291468 -4.01411e-21)
(1.06649 0.223085 6.63903e-22)
(1.05234 0.212574 5.14297e-23)
(1.01467 0.00131014 -9.22538e-22)
(1.01482 0.00124984 -1.59886e-22)
(1.01476 0.00141535 4.22981e-22)
(0.922228 -0.188668 -6.86692e-23)
(1.04455 0.0241276 0)
(1.04558 0.0223546 0)
(0.73281 0.0339959 1.71533e-20)
(0.690923 0.0662243 -1.52851e-20)
(0.73537 -0.0328887 -5.24574e-20)
(0.235189 -0.0784661 -2.44717e-20)
(0.298936 -0.0444456 -1.12879e-20)
(0.30912 -0.0130877 -1.04732e-20)
(1.03921 0.0698094 4.63115e-21)
(1.04317 0.0673223 4.46484e-21)
(1.05515 -0.0146488 -1.27929e-22)
(1.04845 -0.0243739 -3.72559e-22)
(1.05355 -0.0175867 -1.52611e-21)
(1.02429 0.00829323 -3.15761e-22)
(1.02444 0.0088046 5.65386e-22)
(1.02386 0.00845507 1.22431e-21)
(1.01458 -0.000652482 5.59759e-23)
(1.01459 -0.000577317 2.59862e-24)
(1.01464 -0.000646388 3.34128e-23)
(0.946029 0.0622389 -3.95884e-22)
(0.937233 0.0675772 -1.04435e-22)
(0.62977 0.20045 1.10529e-20)
(0.638696 0.201084 -5.99729e-21)
(0.639355 0.230411 0)
(1.06187 0.187298 2.58115e-21)
(1.07343 0.18585 1.90984e-20)
(1.00271 0.193012 0)
(0.99473 0.204988 -2.84537e-21)
(0.988624 0.20169 0)
(1.0503 0.0305531 -3.86744e-22)
(1.05769 0.0293558 3.23705e-22)
(1.0555 0.0371045 -1.64974e-22)
(1.01314 0.00789943 -1.6369e-21)
(1.01353 0.00852162 -1.34157e-21)
(1.01267 0.00843939 9.58219e-22)
(1.03198 -0.00789379 -5.48541e-22)
(1.03098 -0.00990139 -5.28309e-23)
(1.03406 -0.00974977 6.416e-22)
(0.949156 -0.032495 0)
(0.937368 -0.0320576 8.55463e-22)
(0.94707 -0.0227423 2.52731e-21)
(1.01391 -0.000548076 1.30286e-22)
(1.01384 -0.000548366 -8.58166e-23)
(1.01399 -0.000612152 1.57233e-22)
(0.959467 -0.0316865 0)
(0.951944 -0.0403694 -1.66651e-21)
(1.06752 0.236076 -4.77685e-22)
(1.06949 0.250892 0)
(1.05294 0.241682 0)
(1.01775 0.00346371 0)
(1.01805 0.0023952 0)
(1.01857 0.00313669 4.4496e-22)
(1.01301 -0.00186941 -6.65404e-22)
(1.01287 -0.00188871 1.99796e-22)
(1.01282 -0.00166158 -8.64655e-22)
(1.02469 0.0080472 -1.12313e-21)
(1.02414 0.00777937 -3.19196e-22)
(1.01344 0.00744971 -4.80582e-22)
(1.01273 0.00732076 -1.35035e-21)
(1.08089 0.231038 1.04998e-20)
(1.05573 -0.0145409 -7.33836e-22)
(1.05132 -0.0102254 -9.41157e-22)
(1.05792 -0.00900952 3.61681e-22)
(1.01368 -0.00053049 1.08203e-21)
(1.01365 -0.00047007 1.29343e-21)
(1.05289 -0.0186414 1.5378e-21)
(1.05951 -0.0193092 -2.45732e-22)
(1.05014 0.0226965 -2.44536e-21)
(1.05136 0.0252331 6.13904e-22)
(0.930173 -0.224056 5.49144e-21)
(0.922299 -0.244145 -7.67735e-21)
(0.90063 0.255801 -2.21501e-21)
(1.00437 0.00012986 1.75265e-22)
(1.00784 0.000229017 -2.09195e-21)
(1.00417 9.79814e-05 1.66479e-22)
(1.01338 0.00109865 -4.79847e-22)
(1.01323 0.00114715 1.68941e-21)
(1.01332 0.00125708 5.23605e-22)
(0.990289 -0.0261037 2.56165e-21)
(0.989923 -0.031777 0)
(0.983459 -0.027809 0)
(0.893308 0.0927023 -3.9059e-21)
(0.902686 0.086709 2.18748e-21)
(0.900025 0.0996308 2.46228e-21)
(1.03025 -0.00646522 -1.10157e-21)
(1.03276 -0.0058708 -2.3221e-21)
(1.08314 0.0242597 5.44656e-22)
(1.09272 0.0276304 1.88391e-24)
(1.01267 0.000300921 -1.1207e-21)
(1.01264 0.000476917 7.20208e-23)
(1.01284 0.000246273 -1.25873e-21)
(1.05607 0.00415853 4.39161e-22)
(1.05695 0.0103603 -2.17964e-22)
(1.05072 0.00710292 9.94308e-22)
(1.04954 0.0507693 0)
(1.04936 0.0545161 -1.2502e-21)
(1.05325 0.0520911 4.36777e-21)
(1.03031 0.0031073 -5.98992e-22)
(1.03084 0.00365185 -2.61994e-21)
(1.05946 0.175783 2.15885e-21)
(1.0507 0.185822 2.4975e-21)
(0.883866 0.0840657 -2.4699e-22)
(0.881741 0.0998822 -3.43324e-21)
(1.03109 0.0409483 2.06981e-21)
(1.03726 0.0424401 1.89173e-22)
(1.03247 0.047978 -2.88083e-24)
(1.0195 0.00429596 -1.44828e-22)
(1.01967 0.00435047 1.95853e-23)
(1.01949 0.00428487 -5.95938e-22)
(0.0271054 -0.216778 1.27982e-21)
(-0.00248439 -0.242106 2.73831e-20)
(1.02792 -0.00987436 -7.31113e-22)
(1.07796 -0.0607397 5.25015e-21)
(1.0696 -0.0588785 0)
(1.07796 -0.0226992 0)
(1.02503 0.00782157 2.28745e-22)
(1.02538 0.00752914 5.87106e-22)
(1.02481 0.00732668 2.72298e-23)
(1.04921 0.0476919 -9.94532e-22)
(1.04624 0.0496313 0)
(0.906995 0.00010687 0)
(0.896604 0.00170098 3.46761e-21)
(0.906657 0.0111732 0)
(1.01997 0.00617799 3.39812e-23)
(1.01987 0.00572193 0)
(1.02008 0.00580996 2.38818e-22)
(1.10099 0.0578621 -3.16848e-21)
(1.09887 0.0537261 7.56305e-21)
(1.04098 0.0336856 -1.04029e-21)
(1.03912 0.0351131 9.68937e-21)
(1.04176 0.0362584 4.6524e-21)
(1.02064 0.00615124 -3.92428e-23)
(1.0207 0.00600876 -3.2452e-23)
(1.02054 0.00583805 -3.83966e-23)
(0.735927 0.404368 -6.75602e-21)
(0.634599 0.361542 1.36648e-21)
(0.72475 0.403586 1.43233e-21)
(1.01369 0.00694297 -4.68258e-22)
(1.0141 0.00742016 2.61903e-22)
(0.887743 0.161413 2.66615e-22)
(0.878667 0.176398 -1.47098e-23)
(1.02075 0.00653475 -7.15964e-23)
(1.02053 0.00634008 -2.14823e-23)
(1.0231 0.00728107 4.60898e-22)
(1.02325 0.00772647 4.86385e-22)
(1.02362 0.00751062 1.07747e-21)
(0.88379 0.147744 2.4439e-21)
(0.896979 0.147665 1.18529e-21)
(0.91961 -0.00151977 -2.77774e-21)
(0.910251 -0.0125677 -4.26552e-21)
(1.00984 0.181007 -1.84249e-21)
(1.01551 0.177117 5.56547e-21)
(1.04364 0.0308123 2.8709e-22)
(1.04509 0.0252393 1.19921e-23)
(1.01452 -0.000679539 1.05945e-21)
(1.01437 -0.000682163 -1.28768e-22)
(1.0146 -0.000750537 5.17995e-22)
(0.973062 0.0120803 1.83317e-21)
(0.976878 0.0137566 -4.4163e-21)
(0.972319 0.017445 -7.80564e-23)
(1.00835 0.000273345 -5.92827e-23)
(1.00936 0.000250888 8.00966e-22)
(1.0103 0.000247465 7.66609e-22)
(1.05938 -0.00684867 0)
(1.05611 -0.0132216 0)
(1.01481 -0.000654093 -5.2152e-22)
(1.01471 -0.000587791 2.38014e-22)
(1.01496 -0.000622383 1.15568e-22)
(1.01456 -0.000713601 -5.29495e-23)
(1.01451 -0.000641311 -5.02844e-23)
(0.928938 0.109164 -1.70261e-20)
(0.893046 0.064452 -2.55194e-20)
(0.903809 0.134664 -2.1811e-20)
(0.953932 0.0913242 -8.49262e-21)
(0.952623 0.162153 0)
(1.01661 0.00275621 0)
(1.01652 0.00282872 -3.72506e-22)
(1.05481 -0.000547989 2.07145e-21)
(1.06258 0.00188276 -2.32323e-22)
(1.01267 -0.000188638 5.09016e-22)
(1.0127 9.35562e-05 -1.62595e-22)
(1.01293 -0.000217176 2.08185e-21)
(1.01264 -0.000413068 -2.11327e-21)
(1.01238 -3.40138e-05 -3.29791e-22)
(0.726674 0.0958826 1.9744e-20)
(0.781822 -0.00382085 5.9619e-21)
(1.13459 0.174913 7.80176e-21)
(1.1392 0.182438 4.77371e-20)
(1.14306 0.172808 1.07074e-20)
(0.968596 0.00927597 -3.42162e-21)
(0.974729 0.00659121 2.63035e-21)
(1.01386 -0.00092129 -9.15756e-22)
(1.01363 -0.000846836 0)
(1.01382 -0.000815321 -1.95318e-21)
(1.01261 0.00523912 -1.1695e-22)
(1.01232 0.00542458 1.10886e-22)
(1.01277 0.00569433 -1.80512e-22)
(1.01348 -0.00199647 -1.11121e-21)
(1.01381 -0.00175638 -1.74913e-21)
(1.01409 -0.00243449 -1.43812e-21)
(1.01566 0.0066743 -1.20827e-21)
(1.01533 0.00628823 4.58109e-23)
(1.01513 0.00661878 2.47223e-21)
(0.879217 0.134254 -5.04728e-23)
(0.872625 0.149073 -6.90617e-23)
(0.99791 0.237385 5.47564e-21)
(1.0102 0.248122 7.07198e-21)
(1.01275 0.231079 -1.70715e-20)
(1.03742 -0.00146494 2.53117e-21)
(1.03763 -0.00390716 2.29676e-21)
(1.04007 -0.00231225 -5.35941e-23)
(0.595045 0.336043 -2.57471e-20)
(0.651178 0.349137 -3.59494e-23)
(1.03158 0.0184426 -2.70609e-21)
(1.0316 0.019854 -3.86584e-21)
(1.033 0.0187759 -3.10845e-21)
(1.08217 -0.0625573 -9.15263e-21)
(1.07507 -0.0951683 5.49178e-21)
(1.04856 0.144083 7.96621e-21)
(1.0568 0.147826 -2.35797e-21)
(1.05584 0.137663 7.35369e-21)
(1.01207 -7.79758e-05 -2.19932e-22)
(1.01232 -0.000101633 2.40352e-21)
(1.0125 -0.000146127 8.76666e-22)
(0.787883 0.420609 4.04078e-21)
(0.734821 0.400282 -2.93471e-20)
(1.01289 -0.000142897 -8.85792e-24)
(1.01289 -0.000138322 3.43183e-23)
(1.00698 0.0296189 -8.73305e-22)
(1.00957 0.0286889 -2.10342e-21)
(1.0087 0.0320972 -1.6827e-21)
(1.01278 -0.000809335 1.04494e-21)
(1.01279 -0.000868893 7.68942e-22)
(0.989977 -0.0213289 2.18555e-22)
(0.995292 -0.0247789 -5.21531e-21)
(1.01387 -0.000499036 8.29543e-23)
(1.01401 -0.000560223 2.53069e-22)
(1.02196 0.00182166 -6.2004e-22)
(1.02138 0.00173618 -6.07874e-22)
(1.02209 0.00120466 -5.16218e-22)
(0.834915 -0.14335 -2.26301e-21)
(0.8208 -0.10552 6.54585e-21)
(0.83976 -0.097898 1.04312e-20)
(1.01387 0.00648963 9.04128e-22)
(1.01329 0.00658436 8.0238e-22)
(1.01044 -3.34828e-05 -7.57582e-22)
(1.01145 -0.000135634 6.28584e-22)
(1.01103 -7.82392e-05 -1.31201e-21)
(1.03263 0.0227742 -2.47608e-21)
(1.03205 0.0214386 3.40369e-21)
(1.03378 0.0215547 3.95343e-21)
(1.05399 0.0871143 0)
(1.05625 0.0914384 1.38846e-20)
(1.05929 0.0865704 -5.26928e-21)
(1.02545 0.0386697 -4.67864e-24)
(1.02917 0.0349472 1.99332e-22)
(1.00532 0.0273451 -8.7311e-22)
(1.00435 0.0308566 -1.14119e-21)
(1.12979 0.16617 -5.48791e-21)
(1.12553 0.175731 -2.32344e-20)
(0.195446 -0.105244 -4.24707e-21)
(0.178713 -0.134393 -6.51822e-22)
(1.01307 -0.00231758 -1.64922e-21)
(1.01299 -0.0016117 -3.26594e-23)
(1.00769 -0.000119546 -2.36571e-22)
(1.00632 -0.000177641 -8.62132e-22)
(1.01246 0.000535354 7.28475e-22)
(1.01134 0.000393771 7.33707e-22)
(1.01111 0.000373582 -7.18552e-23)
(1.00905 -0.00482105 3.55528e-23)
(1.01042 -0.00555722 -8.23158e-23)
(0.987886 0.225809 2.17278e-21)
(0.982253 0.242398 1.24712e-20)
(1.01247 0.00039971 -2.47481e-21)
(1.03003 0.0153178 1.85267e-22)
(1.03121 0.0158023 -9.912e-22)
(1.03092 0.0145511 2.11524e-21)
(0.837195 -0.186077 -3.02229e-20)
(0.857061 -0.191449 -3.41532e-20)
(1.01317 -0.00183117 -2.38197e-22)
(1.01333 -0.00209924 -2.08675e-22)
(1.10475 0.0631992 -1.28467e-20)
(1.0986 0.0631284 3.8773e-21)
(0.977273 0.189983 1.21501e-20)
(0.98878 0.15793 4.03724e-21)
(1.01321 -9.59571e-05 1.0474e-21)
(1.01313 -0.00011107 2.23403e-22)
(1.01313 -0.000117896 1.56939e-21)
(1.01078 0.0418181 0)
(1.01527 0.0456161 1.14403e-21)
(1.00904 0.048631 3.30072e-22)
(0.910705 0.260427 -1.25437e-21)
(0.904045 0.251885 4.99797e-21)
(1.00161 0.229767 -1.25298e-21)
(1.0135 0.276724 -2.53289e-21)
(1.03202 0.247667 -6.65658e-21)
(1.01331 -6.75272e-05 -8.30848e-22)
(1.04328 0.0259159 0)
(1.04254 0.0238987 -5.50966e-22)
(0.975372 0.207506 0)
(0.98998 0.162198 8.87733e-21)
(1.01576 0.00373435 -2.46833e-22)
(1.01594 0.0037515 -2.38545e-22)
(1.01577 0.00354303 -1.29429e-21)
(1.01295 -0.000837761 2.13992e-22)
(1.01277 -0.000749939 2.0965e-22)
(1.01249 0.00482868 1.18407e-21)
(1.01287 0.00505288 5.45433e-22)
(1.01382 -0.000579558 4.42645e-22)
(1.01374 -0.000509139 0)
(1.03136 0.017042 -2.14336e-22)
(1.03014 0.0179365 -3.3123e-21)
(1.03184 0.0352453 0)
(1.03002 0.0366172 2.31531e-21)
(1.03287 0.0372246 -4.30883e-22)
(1.02528 0.00833799 -3.21592e-22)
(1.01422 -0.000480145 -2.28507e-24)
(1.01428 -0.000517774 5.30369e-22)
(1.01411 -0.000482138 -6.51064e-22)
(0.942852 -0.0181282 -1.31989e-21)
(0.934626 -0.00937238 -1.78852e-23)
(0.931245 -0.0202517 -3.74804e-21)
(1.06453 0.0475804 9.95267e-22)
(1.06697 0.0451282 -1.13577e-20)
(1.06768 0.0497701 -3.56129e-21)
(1.01764 0.00438043 0)
(1.01685 0.00374437 0)
(1.0146 -0.000514955 6.54893e-23)
(1.01458 -0.000534601 7.19857e-23)
(1.01454 -0.000464024 4.48388e-23)
(1.07773 0.304273 3.62371e-21)
(1.05864 0.314846 1.71014e-20)
(1.08464 0.330559 -1.07269e-20)
(1.00972 8.89228e-05 4.54156e-22)
(1.0107 2.4529e-05 4.78948e-22)
(1.01026 4.36834e-05 7.37376e-22)
(0.770294 -0.150273 3.69568e-21)
(1.03496 0.0724806 -5.0732e-21)
(1.0355 0.0675803 0)
(1.01411 -0.00100565 -9.88552e-22)
(1.01389 -0.00103599 -8.50094e-22)
(1.03378 0.0337019 -1.09655e-22)
(1.03115 0.0333759 0)
(0.881888 -0.0836226 1.2744e-20)
(0.830915 -0.0447151 1.81077e-20)
(0.821918 0.0196158 3.28741e-20)
(1.02996 0.00264263 1.21691e-21)
(1.03071 0.00260316 -5.84709e-22)
(1.21403 0.187651 3.32103e-23)
(1.19855 0.193678 1.96641e-20)
(1.21539 0.196815 -7.08471e-21)
(0.991708 0.0346652 -3.34375e-22)
(0.994633 0.039956 5.51881e-22)
(0.987716 0.0402601 -1.29428e-22)
(0.135982 -0.156497 1.49087e-20)
(0.205983 -0.125016 0)
(0.198757 -0.136873 2.63069e-20)
(1.01345 0.000986662 -8.46207e-22)
(1.01353 0.00107585 -8.75899e-22)
(1.14585 0.191322 -2.11636e-20)
(1.15275 0.197472 1.2632e-20)
(1.15338 0.186297 -3.63432e-20)
(1.05893 0.166375 -1.85171e-21)
(1.05734 0.155885 -1.00699e-20)
(1.04906 0.163971 -9.23091e-21)
(0.941249 0.0751757 -3.65335e-22)
(0.950278 0.0772147 -4.73694e-22)
(0.946944 0.0675464 -2.31106e-22)
(1.01272 -0.000102185 -3.91711e-23)
(1.01231 -0.000108879 6.46734e-22)
(1.01258 -0.000114368 8.84595e-23)
(1.05493 -0.0551229 0)
(1.05874 -0.0963363 5.71595e-21)
(1.01414 -0.00154305 6.32604e-22)
(1.01363 -0.00126636 1.25521e-22)
(0.82217 0.102361 0)
(0.825846 0.0639991 1.22814e-21)
(0.80963 0.0632937 -9.30353e-22)
(1.05243 0.0815561 8.62998e-22)
(1.04855 0.0859705 4.7292e-21)
(1.02296 0.00681066 -7.66389e-22)
(1.02264 0.00699121 4.41314e-23)
(1.01587 0.00706018 -1.32655e-21)
(1.01607 0.00669208 1.25705e-22)
(1.11115 0.061626 1.11768e-20)
(1.01294 -0.000142831 1.14966e-23)
(1.01284 -0.00012614 -8.26013e-22)
(0.936174 0.0829146 -2.38667e-23)
(0.93159 0.0715361 0)
(0.959181 0.0788748 2.93453e-22)
(0.964471 0.071463 5.74091e-22)
(0.968591 0.080077 1.19712e-21)
(1.01698 0.000399814 1.86615e-22)
(1.0178 0.000589494 6.78304e-22)
(1.01664 0.000400043 2.23971e-22)
(0.967187 -0.027444 -1.84261e-22)
(0.966522 -0.0201336 -8.5162e-22)
(0.975566 -0.0245681 -4.74251e-23)
(1.0127 -0.00012986 6.7355e-22)
(1.01257 -0.000149984 0)
(1.01294 -0.000151322 8.49374e-22)
(1.03384 0.21445 -4.57401e-22)
(1.05356 0.209505 -2.36665e-21)
(1.05242 0.236032 -5.18218e-22)
(1.01625 0.000865269 -6.92707e-22)
(1.01622 0.000903632 -5.99922e-22)
(1.01637 0.000957347 6.78064e-22)
(1.13703 0.194415 3.49614e-20)
(1.07831 0.174457 7.91569e-21)
(1.05948 0.164954 6.75997e-20)
(1.15086 0.190237 6.78579e-20)
(1.00657 0.0377422 0)
(1.01162 0.0361692 0)
(0.935533 0.134059 2.01048e-20)
(1.08621 0.182523 -4.39648e-20)
(0.97103 -0.0329137 1.71736e-21)
(1.01722 0.00192425 3.02705e-22)
(1.01706 0.0019133 8.54797e-23)
(1.06844 0.166528 -2.66339e-21)
(1.02173 0.00322694 -1.08345e-21)
(1.02224 0.00303479 -7.10591e-22)
(1.02186 0.00343077 -6.47196e-22)
(1.03709 0.000527598 -2.9834e-22)
(1.03522 -0.00111549 -2.0247e-21)
(0.96536 -0.0022911 -2.84941e-21)
(0.961133 0.00284504 -4.10687e-21)
(0.968246 0.00451033 -2.7508e-21)
(1.02006 0.00654981 3.05646e-23)
(1.01977 0.00644865 3.09326e-23)
(1.01311 -0.000850406 -8.49101e-22)
(1.01312 -0.000931624 0)
(1.01287 -0.000793737 1.08494e-22)
(1.01251 -0.000610245 6.672e-22)
(1.06168 0.0454416 1.37605e-20)
(1.06201 0.04981 8.65745e-21)
(1.00762 0.000165812 -4.5601e-23)
(1.00589 0.00019748 -2.12997e-21)
(1.01556 0.00371811 0)
(1.01572 0.00393901 -1.42731e-21)
(0.968683 0.218303 5.94473e-21)
(1.03463 0.00624196 5.53529e-22)
(1.03554 0.00456244 9.6578e-22)
(1.03669 0.00665908 2.93353e-22)
(0.0778955 -0.187681 -1.80533e-20)
(0.0694654 -0.203208 -3.75337e-20)
(1.01082 0.0269375 -9.58029e-23)
(1.01237 0.0288872 -2.06948e-21)
(0.855587 0.202237 1.22339e-20)
(0.85278 0.177877 1.83098e-20)
(1.01209 0.180705 -2.82828e-21)
(1.0046 0.168274 -1.68718e-21)
(0.99769 0.182695 -1.71075e-21)
(0.969825 0.184562 2.47502e-21)
(0.980931 0.200759 1.5251e-21)
(0.962477 0.201525 -2.76868e-21)
(1.01455 -0.000779862 0)
(1.01462 -0.000793357 -1.77847e-23)
(1.00802 -0.00545119 -2.96784e-22)
(1.00782 -0.00383721 1.85359e-22)
(0.78954 -0.246913 -2.24899e-20)
(0.834606 -0.318015 1.44662e-21)
(0.839222 -0.282406 -1.42197e-20)
(1.01258 0.000671574 3.91202e-22)
(1.01277 0.000752406 1.01499e-21)
(0.958927 0.16859 -8.0674e-22)
(0.977966 0.165964 5.08397e-22)
(1.01245 0.0249271 7.68463e-22)
(1.01 0.0241823 4.05491e-23)
(1.03343 0.0239141 -2.60977e-21)
(1.0317 0.0237482 -3.3327e-21)
(1.01135 0.000389568 8.91826e-22)
(1.01183 0.000452228 0)
(1.04311 0.0320573 -6.34869e-21)
(1.04038 0.0312074 -4.15776e-21)
(1.01439 -0.00108278 8.64233e-22)
(1.01433 -0.000950581 8.36136e-24)
(0.893663 -0.0620495 -1.20356e-21)
(0.885071 -0.0742997 -5.26717e-23)
(0.875843 -0.0610774 -5.20998e-23)
(0.652631 -0.0559892 -4.33411e-21)
(0.635404 0.018323 -9.34826e-21)
(0.659046 -0.0218594 9.07492e-21)
(1.02176 0.00250527 6.05512e-22)
(1.02241 0.00217537 3.99547e-23)
(1.03354 0.00761127 1.39995e-21)
(1.03296 0.00572716 5.44695e-22)
(1.00926 2.16517e-05 0)
(1.00841 8.32811e-05 0)
(1.02404 0.00259208 1.80737e-22)
(1.02481 0.00210264 -9.04379e-22)
(1.02395 0.00201828 -7.18781e-22)
(-0.00597327 -0.252349 -1.15107e-20)
(-0.0240565 -0.252305 -2.92707e-20)
(1.01577 0.00111031 1.04855e-21)
(1.01583 0.00120121 -1.26069e-22)
(1.01592 0.00105087 3.22551e-22)
(1.05836 0.0161131 1.86432e-22)
(1.06517 0.01369 -1.92207e-22)
(1.01244 -0.000883914 9.86985e-22)
(1.01241 -0.000916622 4.00509e-23)
(1.01229 -0.00080991 1.06765e-21)
(1.01453 0.00138995 -4.13278e-23)
(1.01458 0.00123305 -3.82461e-23)
(1.01345 -0.000425856 9.43754e-23)
(1.01354 -0.000500185 6.27997e-22)
(1.05687 0.0775035 -8.50771e-21)
(0.697437 -0.159444 6.82252e-21)
(0.660114 -0.104756 -9.35678e-22)
(1.05819 0.0228271 -2.18562e-21)
(1.05198 0.0182684 -1.60866e-21)
(0.904481 -0.0526421 -1.10327e-21)
(0.910489 -0.0632316 7.18213e-21)
(1.00431 -6.54747e-05 5.42962e-23)
(1.00302 -8.96378e-05 -4.88224e-22)
(1.00632 -4.03317e-05 1.22743e-21)
(1.01318 -0.000976751 2.36436e-21)
(1.01293 -0.001176 1.49726e-21)
(1.022 0.0017848 -6.36162e-23)
(1.02171 0.00182031 1.28481e-23)
(1.02197 0.00201251 -5.0127e-24)
(1.0059 0.264228 9.36529e-21)
(0.985829 0.271557 -7.16841e-21)
(1.01377 0.00154854 3.35616e-22)
(1.01354 0.00130879 1.06729e-21)
(1.01344 0.00145795 2.28732e-21)
(1.0705 0.266349 -4.0468e-21)
(1.08654 0.259821 1.23206e-20)
(1.0241 0.00315842 5.21145e-22)
(1.0234 0.00298819 3.88423e-23)
(1.05425 0.00827861 -7.47745e-22)
(1.05784 0.00418245 1.11032e-22)
(1.05861 0.0109555 -1.61152e-21)
(1.04036 0.00995363 -1.35421e-21)
(1.04186 0.00987238 2.0919e-22)
(1.04124 0.0113056 7.92461e-22)
(1.01566 0.00281889 -2.98751e-23)
(1.01587 0.00289679 -8.06945e-22)
(1.01577 0.00299211 -8.077e-22)
(1.00596 8.33727e-05 -7.42047e-22)
(1.00313 -4.53285e-05 4.93879e-22)
(0.938633 -0.176839 -3.37076e-20)
(1.01301 -0.000139468 -4.31015e-22)
(1.013 -0.000136705 8.42603e-22)
(1.0195 0.192715 5.04875e-22)
(1.0322 0.201455 -7.81957e-22)
(1.03791 0.182391 1.17122e-21)
(1.21271 0.184023 -3.99537e-20)
(1.21713 0.183663 2.94298e-20)
(1.03893 0.0101852 -5.04925e-24)
(1.03939 0.00903307 1.02411e-21)
(1.01708 0.000102681 -6.47692e-22)
(1.01296 3.09597e-05 0)
(1.01237 0.000115975 0)
(0.565074 0.00222675 -1.90422e-20)
(0.565254 0.0010093 2.56007e-21)
(0.452376 -0.0480258 2.82406e-20)
(0.975273 -0.00666922 3.03746e-21)
(0.979158 -0.010525 -3.15102e-23)
(0.973575 -0.0111381 -4.98034e-21)
(1.0137 -0.000716325 0)
(1.01383 -0.000768885 0)
(1.01382 -0.000806344 0)
(1.01829 -0.046927 -3.61199e-22)
(1.00954 -0.0519735 -5.58291e-22)
(1.01383 -0.0443723 -3.94767e-23)
(1.00995 -8.19511e-05 4.95735e-22)
(1.00917 -4.67518e-06 -1.0014e-21)
(1.02882 0.0625106 3.29936e-21)
(1.02767 0.0669259 -3.34549e-21)
(1.03195 0.0650806 0)
(0.99075 -0.00935256 -2.03915e-21)
(0.991412 -0.00595867 -7.65708e-22)
(0.987844 -0.00768033 -9.05577e-22)
(1.0115 0.000203474 0)
(1.01563 0.000278765 -4.32337e-22)
(1.0111 0.000227402 0)
(1.01487 0.230892 -8.73273e-22)
(0.997819 0.248242 9.38928e-21)
(1.00002 0.230478 7.30693e-21)
(1.0659 0.0281502 8.08149e-22)
(1.01081 0.000906559 7.03661e-22)
(1.01041 0.000877017 -3.63186e-22)
(1.01074 0.00044417 -6.49024e-22)
(0.938439 -0.171039 4.78284e-23)
(0.934104 -0.163982 0)
(0.969103 -0.154569 0)
(1.03633 0.00288108 -4.46039e-22)
(1.03884 0.0027269 -4.61939e-22)
(1.02201 0.00154583 -7.69864e-23)
(1.0223 0.00174287 6.85084e-23)
(1.01251 -9.4312e-05 2.35164e-22)
(1.01291 -0.000172734 1.45375e-21)
(1.03038 0.0208783 -1.38059e-21)
(0.955084 0.087522 -6.75111e-22)
(1.01454 -0.000484901 1.22473e-23)
(1.01466 -0.000552427 -1.0899e-23)
(1.02185 0.194606 3.00914e-21)
(1.02674 0.177946 2.12599e-21)
(0.973145 -0.00226747 1.87943e-21)
(0.978225 -0.00315648 7.74014e-22)
(0.620659 0.175084 -5.20563e-21)
(0.638865 0.196966 -6.03933e-21)
(1.01397 0.0018131 -4.45364e-22)
(1.01423 0.00217243 1.60917e-22)
(1.01379 0.00207359 2.70303e-22)
(1.00828 -0.00703826 -8.31332e-23)
(1.00668 -0.00626972 -1.1496e-22)
(0.911948 -0.187976 4.55394e-23)
(0.943809 -0.176024 1.15866e-21)
(1.02877 0.214696 -3.00383e-21)
(1.02667 0.224801 -8.99549e-22)
(1.0154 0.000180466 -2.25825e-23)
(1.0169 0.000326775 -2.73807e-22)
(1.01501 0.00591505 -1.00036e-21)
(1.01462 0.00579708 -1.19838e-21)
(1.01473 0.00551838 5.00619e-22)
(1.01952 0.00431325 1.35851e-22)
(1.01932 0.0042076 5.00111e-22)
(1.01095 0.0013183 1.48808e-21)
(1.01108 0.000870404 1.52924e-21)
(0.993822 -0.0110277 3.24135e-22)
(0.990194 -0.0128683 -6.70155e-22)
(1.02506 -0.0421728 5.0555e-22)
(1.02361 -0.0494871 -1.92539e-21)
(1.01341 -0.000413214 -4.36553e-22)
(1.01341 -0.000385839 -1.08905e-22)
(0.952928 -0.0140203 7.38897e-22)
(0.950884 -0.0217705 1.24092e-21)
(0.844598 0.19097 -5.30378e-22)
(0.829621 0.159983 -5.86831e-21)
(0.841424 0.176703 -9.31661e-21)
(1.01466 -0.000671499 -5.81916e-23)
(1.01442 -0.00061543 5.15282e-22)
(1.00828 -0.000101046 0)
(1.00818 -6.45418e-05 1.21139e-21)
(1.00588 -6.14096e-05 -9.33703e-22)
(1.07466 0.284986 -1.82863e-20)
(1.05379 0.273336 -3.96096e-21)
(1.05018 0.0107834 -1.5882e-21)
(1.04991 0.00556852 2.70381e-21)
(0.923403 0.053241 -8.01476e-22)
(0.925549 0.0655858 -4.84646e-22)
(0.91285 0.0607563 6.04782e-21)
(0.928936 -0.000735434 -6.06985e-22)
(0.915603 0.0010071 1.94425e-22)
(0.924013 0.0115814 8.42108e-22)
(1.01718 0.000360163 -2.87758e-22)
(1.0148 0.000247089 -3.20173e-22)
(0.993737 0.0106916 -3.77239e-21)
(0.993891 0.00746352 -4.61476e-21)
(0.996622 0.00929797 -4.62952e-21)
(1.01239 0.00445748 6.4926e-22)
(1.01214 0.00460119 -1.24155e-22)
(1.03435 0.00256519 0)
(1.02585 0.0598938 7.83048e-22)
(1.02976 0.0585907 2.05137e-21)
(1.01469 -0.0018204 1.26926e-21)
(1.01436 -0.00134073 1.44164e-22)
(1.02104 0.005329 -5.52736e-25)
(1.02096 0.00509777 -5.26807e-23)
(1.02122 0.00529814 -8.00971e-23)
(0.986767 -0.03484 3.29549e-21)
(0.995366 -0.0342739 -1.46748e-21)
(1.01035 -0.000124277 4.21171e-22)
(1.00907 -8.20623e-05 1.55848e-21)
(1.01039 -0.000100388 -3.51702e-22)
(0.824529 0.135112 0)
(0.836884 0.14215 1.08141e-20)
(1.00036 -0.0564068 -1.67306e-21)
(1.00606 -0.0610517 -1.26646e-21)
(0.87277 0.431983 5.83193e-21)
(0.837278 0.426698 0)
(0.83686 0.437972 -1.71874e-20)
(0.933971 0.0466552 6.54592e-22)
(0.921943 0.040734 -1.7229e-21)
(1.01471 -0.00118003 8.0104e-22)
(1.01445 -0.00122581 9.36034e-22)
(0.839973 -0.209531 6.52341e-22)
(0.822551 -0.174997 1.09498e-20)
(1.04135 0.139553 8.50959e-22)
(1.04072 0.149735 9.61216e-22)
(1.03039 0.074624 -7.7409e-22)
(1.02672 0.0716143 9.41829e-22)
(1.02545 0.0767441 4.12789e-21)
(1.01457 -0.000851756 0)
(1.0145 -0.00076115 0)
(1.00188 0.0195066 -1.67496e-21)
(1.00029 0.0163907 -1.84313e-22)
(1.00356 0.016791 -9.80872e-22)
(1.00912 0.000268141 -7.28721e-22)
(1.01175 0.00040893 -6.59591e-23)
(1.01198 0.00042744 -7.41067e-22)
(1.01329 -0.000861054 -8.37715e-22)
(1.01309 -0.000778938 1.49697e-22)
(1.01341 0.000864043 2.35883e-21)
(1.01317 0.00073867 -1.1578e-21)
(1.01318 0.000831625 -1.17578e-21)
(1.01323 0.000667516 0)
(1.01354 0.000800265 0)
(1.01341 0.000685244 -7.30953e-22)
(1.00566 -0.00976724 -7.86752e-22)
(1.00352 -0.00950375 1.29074e-21)
(1.00479 -0.0076696 -2.48344e-21)
(1.03368 0.00709702 1.79038e-21)
(1.03391 0.00628591 -8.87587e-22)
(1.03466 0.00698679 -1.93628e-21)
(1.04078 0.0370539 -5.82569e-22)
(1.04473 0.0438955 4.58672e-22)
(1.00755 -0.00987775 1.32551e-22)
(1.00712 -0.0119959 6.25047e-22)
(1.01182 -0.000279562 2.90819e-22)
(1.01214 -0.000444954 -4.19655e-22)
(1.0118 -0.000886697 -9.70163e-22)
(0.651341 0.145734 -6.37237e-21)
(0.655863 0.193521 1.07686e-20)
(0.993581 0.0143386 1.91858e-21)
(0.990206 0.0126104 1.12572e-21)
(1.0215 0.00301987 5.66391e-22)
(1.02131 0.00341464 -4.53135e-22)
(1.00423 0.000138344 0)
(1.18447 0.215372 -2.09957e-20)
(1.18033 0.228492 -3.85409e-21)
(1.16758 0.217184 -2.48194e-20)
(1.00584 -2.11206e-05 -1.88787e-22)
(1.00333 3.82746e-05 3.74404e-23)
(1.00329 -3.03228e-05 2.09812e-22)
(1.02075 0.00584103 -9.37708e-23)
(1.0209 0.0061496 1.11848e-22)
(1.01886 0.000427479 1.33356e-22)
(1.01793 0.00055611 3.9445e-22)
(1.02902 0.0147593 1.61972e-21)
(1.02904 0.0160094 5.46113e-22)
(0.876042 0.170374 3.00597e-21)
(0.889598 0.185851 2.7135e-21)
(0.871732 0.188283 -3.70138e-21)
(0.847445 -0.218463 -3.9871e-21)
(0.858868 -0.236209 3.42299e-21)
(1.03247 0.0160415 1.86399e-21)
(1.01393 0.000968806 0)
(1.01382 0.000835961 8.58744e-22)
(1.0138 0.000948605 0)
(1.0094 -0.00964485 -1.54423e-21)
(1.01104 -0.00942741 -1.52007e-22)
(1.01097 -0.0113902 5.30771e-22)
(1.00833 -0.00809094 2.06434e-22)
(0.722002 0.148916 -2.29621e-21)
(0.768949 0.111901 -2.21846e-21)
(0.718774 0.189067 -1.05821e-20)
(1.01454 -0.000542949 -8.03908e-23)
(1.00564 0.000165169 7.38343e-22)
(1.00544 0.000155979 2.23382e-23)
(1.01412 0.00157156 -1.80928e-21)
(1.0096 -0.000137743 0)
(1.01141 -0.000274094 7.86932e-24)
(0.913492 0.0824023 -3.65255e-22)
(0.906836 0.0735985 0)
(1.01553 0.00241953 8.07779e-23)
(1.01514 0.00211205 -1.98218e-21)
(1.01565 0.0020218 -1.27613e-21)
(1.05943 -0.000478872 5.2377e-22)
(1.05608 -0.00166525 -3.07617e-21)
(0.972625 0.159524 1.94576e-21)