/*--------------------------------*- C++ -*----------------------------------*\
| =========                 |                                                 |
| \\      /  F ield         | OpenFOAM: The Open Source CFD Toolbox           |
|  \\    /   O peration     | Version:  v2012                                 |
|   \\  /    A nd           | Website:  www.openfoam.com                      |
|    \\/     M anipulation  |                                                 |
\*---------------------------------------------------------------------------*/
FoamFile
{
    version     2.0;
    format      ascii;
    class       surfaceScalarField;
    location    "400";
    object      meshPhiCN_0;
}
// * * * * * * * * * * * * * * * * * * * * * * * * * * * * * * * * * * * * * //

dimensions      [0 3 -1 0 0 0 0];
oriented        oriented;


internalField   nonuniform List<scalar> 
14885
(
-0.000301745
-0.000897658
0.00119411
-0.00503766
0.00276742
0.00236846
-0.000164873
0.0015332
-0.00123696
0.00163993
-0.00224899
0.000475439
8.30318e-05
-0.000613131
0.000791584
0.00302638
-0.00063937
-0.00241488
0.000670792
0.00262683
-0.00312637
-0.0021369
0.00254538
-0.000396775
-0.000998847
0.000729835
0.000336911
-0.00133091
0.000536971
0.000862116
0.000493986
0.00206615
-0.00260448
-0.00239531
-0.0025617
-0.000344749
0.00235922
-0.0018869
0.000508042
-0.00117933
0.000737172
-0.00159203
0.000451711
0.00105846
0.00127826
-0.000716215
-0.00245723
0.00222205
0.000195541
-0.00202189
0.00246626
-0.000796187
0.00020269
0.000728341
0.0014144
-0.000409192
-0.00101805
-0.00204341
0.0018175
0.000818995
-0.00111582
0.00248908
-0.000798825
0.000269298
-0.00270785
0.0024195
-0.00116208
0.0002533
0.000959268
-4.58169e-05
1.39268e-05
5.34529e-05
-0.000990977
-0.000156898
9.45379e-05
-6.92018e-05
9.98709e-07
0.000430572
0.00256123
-0.000708589
-0.00158673
0.00232025
3.95148e-05
3.95087e-05
-0.000100293
-0.00315313
0.000505824
0.00271398
-0.000853062
0.000259677
0.000733845
-0.000236569
-0.000431121
-0.00246951
0.000330829
-0.0023459
0.00208548
0.00023548
0.00162285
-0.00033981
-0.00107365
9.66249e-05
-7.02094e-06
-0.000138805
-4.76418e-06
0.00010642
0.00022718
-0.00024102
8.69053e-06
0.00236672
-0.00304321
-0.000608345
0.00292688
-0.00347459
0.000593448
0.00449391
-0.00386524
-0.000457169
-0.000845353
0.000120778
0.00073803
-0.000392313
-0.000873979
0.000106337
7.05985e-06
-0.000124351
-0.00156538
-0.000203929
-0.000223025
0.00199758
-0.00163401
-0.00396472
0.00427382
-0.000200481
0.00326582
-0.000282302
-5.44761e-07
-0.00014154
0.00010853
-0.0020512
-7.02426e-05
-0.000619503
0.00470535
-0.00427686
-0.000315299
0.0048635
-0.0044096
-0.000347589
-0.000284232
-0.00168218
-0.00307621
0.00102777
0.0022127
0.000234082
-0.000159958
-3.84318e-05
-6.67398e-06
7.13527e-06
6.53781e-07
-0.00189929
0.00183758
-0.00438876
0.00423597
0.000330579
-0.00303819
-0.000369914
-0.00201623
0.00234655
-0.000331678
-0.0010053
0.000140748
0.000879123
0.000127597
-3.43039e-05
-2.61355e-05
0.00112833
-0.000423561
-0.000728106
-0.00113961
0.00145231
-0.000280838
-3.58678e-05
-7.87878e-05
0.000117851
-0.00131675
0.000212739
-0.00324044
0.00342941
-0.00011934
-3.67692e-05
-0.00059244
0.000450006
0.000111486
0.000593616
-0.00065085
2.96283e-05
0.000231037
0.000225701
4.34069e-05
7.88514e-05
0.000442188
-0.000923691
0.000515394
0.0001069
-2.8003e-06
-0.000494047
0.000969687
-0.000721265
0.0010567
0.00409464
0.000497575
0.00262133
1.86023e-05
1.61446e-05
-2.10061e-05
0.00051664
-1.92137e-05
-0.000653879
-6.22684e-05
3.24833e-05
0.000174217
0.00258828
-0.00258355
0.000100922
0.000877904
0.000273092
-0.00157056
0.00153687
0.000410432
-0.000607021
3.25874e-05
0.000313682
0.000707032
-0.0010549
-0.00195547
0.00140688
0.000657999
-0.000742543
0.00114003
-0.00301149
5.12572e-05
-0.000286393
0.00300337
-0.0011979
0.000121483
0.00100254
0.000454454
-0.000649585
5.76549e-05
-0.00330102
0.00325264
0.000969707
-0.00207984
0.00252053
-0.000376215
-5.54992e-05
-1.60859e-05
1.55916e-06
-0.00132771
-0.000489313
-0.00153123
0.00183161
-0.000129346
-0.000112715
-0.000340651
0.000658031
0.00230608
-0.003072
-0.000898678
9.70743e-05
0.000926852
-0.000855362
0.000817363
5.03871e-08
-0.00159708
0.00441866
-0.00271898
0.000407594
-6.44666e-05
-0.00239003
0.00321213
6.40191e-05
-0.000859623
0.000234069
-0.000382484
5.07174e-05
0.000819033
-0.00305796
-0.00155122
0.000160886
-0.00238148
0.000366206
-0.000142535
-0.000889371
2.27996e-06
-5.34305e-05
2.23825e-05
0.000733369
-0.00184679
0.00121164
-0.000104669
6.00258e-05
0.000132497
-0.00073817
-0.00210522
-1.80203e-05
0.000111819
-0.000125019
-5.54048e-06
-1.5604e-08
-0.00422573
0.00229096
0.00204475
-0.00293927
-0.00120093
-0.000244648
-0.000726725
-0.000470893
0.000754891
0.000332986
-0.000446353
5.23253e-05
0.000524156
-4.5518e-05
0.000328336
0.00448975
-0.00307164
0.00290273
0.000218494
0.0020259
-0.00119742
0.00044534
-0.000430426
2.70177e-05
0.000629529
-0.000494743
-0.000160669
2.96642e-05
-0.000282324
0.000180424
-0.000419034
0.000639018
-0.000272727
-0.00183245
0.00277444
-0.00023883
0.00335343
-0.00300303
0.00041628
-0.000140666
-0.000258895
-0.00268159
-0.00313306
-0.000901595
0.000955231
0.000115577
-0.0025231
0.000489353
-0.00033761
0.002891
-0.00248244
-0.00015013
2.62258e-05
0.000176713
-0.0050775
0.00360281
2.78995e-06
0.000114936
6.3144e-05
-6.88068e-05
6.38519e-05
1.96305e-05
1.15969e-05
-1.09647e-05
0.000102818
-0.000135062
0.000103469
0.00161661
-4.74249e-05
-0.00143367
0.000660333
-0.00249308
0.00188901
0.0002827
8.79223e-05
8.36251e-05
-9.44593e-05
-8.207e-06
0.0010339
-0.00090942
-0.000174195
-0.00229472
0.00257938
-0.000219367
-0.000171
-0.00110701
-4.24077e-06
0.000119829
-0.00280432
-0.000220212
0.00394578
0.00100948
0.000296648
-0.000326357
-4.81789e-06
-2.85245e-05
-0.000410475
0.000304599
0.000103294
0.000200022
1.19507e-05
-0.00317723
0.00305388
-6.07482e-06
-2.07604e-05
0.000449148
-0.000206777
-0.0024662
0.00320577
-0.000711651
0.000892459
0.00321418
-0.000817119
-0.000212772
-0.00212605
0.000457045
-0.000132242
-0.000177352
-0.00156263
0.000183671
0.00130054
0.00151042
-0.00308107
0.00290215
0.000631693
-0.00342452
0.000414084
0.000585671
-0.000563679
0.00364374
-0.000628259
-0.000275403
-0.000422512
0.000731213
0.000144072
-0.000203091
0.000211158
0.000444586
6.2753e-05
-0.000126236
-0.000591919
-7.56814e-05
-0.000979264
0.000414307
0.000671525
-8.20629e-06
-9.80937e-06
4.85641e-05
-0.000113163
-0.000287571
8.84701e-05
0.000233869
-0.00127178
-0.000674331
0.00205768
0.000238819
-0.000440437
4.85647e-06
-8.71722e-06
3.74658e-06
-0.00335894
0.000135594
0.00331089
0.000636788
-0.000561597
-0.000103554
-0.000795221
0.00176648
-0.00197265
0.000549794
5.20669e-06
-0.000219241
-0.000694026
0.00481593
-0.00494429
0.000256637
-0.00132469
0.000519229
-0.0020889
0.0036858
-0.00155677
-0.00186264
0.000219196
0.00168225
0.00339355
-0.00314688
-0.000227361
0.000407634
-3.5591e-06
-0.00272111
0.00323946
-0.000453609
0.00302936
-0.00288038
-6.60002e-05
0.00244532
-0.000423639
-0.00201738
-4.36117e-05
-2.53523e-05
-5.08768e-06
0.00222727
0.00036455
-2.73442e-05
-0.000360969
0.00021582
0.002551
-0.00282611
-0.00236241
0.000174641
-4.90761e-06
3.32672e-07
-0.00054701
0.000101901
0.000143372
-9.65832e-05
-3.0341e-06
0.002209
0.000234337
0.00248298
-0.00227188
-0.00015527
-0.000713367
0.00194636
-0.000903562
0.00101713
0.000277298
-0.00125964
1.84953e-05
-0.000284519
0.000246899
0.000428732
-0.00258477
0.00230983
0.00154876
-4.69886e-05
-0.00169569
0.000244781
0.00328261
0.000254769
-0.00350602
-0.000187006
-0.0014014
0.00357591
-0.000246726
-0.000282846
-0.00108363
-0.00132228
0.000100792
-0.000192445
-0.00185156
0.002084
9.13503e-05
0.000409325
-9.03044e-05
0.000841521
-0.000477733
0.000181396
-0.000167784
3.57236e-05
7.42026e-05
0.000356318
0.000233845
-0.00183787
0.000691897
4.53049e-06
-9.5187e-05
0.000405643
-0.000620697
0.00234374
0.00013195
-5.95993e-05
5.36969e-05
-0.00347744
0.000203957
-1.30892e-05
-1.2135e-05
-0.0025061
-0.000243088
0.000227526
-0.00238346
0.00227799
-0.00252134
0.000312657
0.00234934
-6.14732e-06
4.07789e-07
0.000168912
3.00235e-05
-0.00386499
-0.000251059
0.00424627
-0.000648817
0.00099149
-0.000364818
-0.00203649
2.77425e-05
-4.16785e-06
0.000558688
0.000425604
-0.000444386
1.37406e-05
8.73724e-05
-0.00085794
0.00063266
2.86964e-05
-0.00278877
0.00135242
0.00153121
-0.00111409
-0.00218674
0.00344776
0.0016518
0.000197963
4.61082e-06
0.000196399
7.42019e-05
0.000490464
0.00169875
-0.00118212
-0.000343787
0.00194163
0.00133468
4.40444e-05
-0.00148333
0.00123643
-0.000179598
0.000868089
6.75459e-06
0.000181506
-0.000151816
-0.000301069
0.00026368
-0.000130128
0.000126705
0.000129962
0.00341249
-0.00431377
0.000749711
-0.000949186
-0.00119252
-0.00153551
3.10381e-05
9.28314e-05
-0.000423829
-8.54413e-05
0.000426396
0.000508687
-0.00261587
0.00184322
-0.00356328
-0.000258956
0.00124371
-0.00115473
-6.86941e-06
0.00333818
0.000178693
0.000355715
0.00144884
-0.00252399
0.000690613
0.00203235
-0.00125978
0.000410723
0.000796242
0.00122281
-0.000107495
-0.000998674
-0.000543506
0.000290333
0.000496418
-9.92284e-06
1.64337e-07
-0.000247501
0.00238496
-0.00196959
-0.00337995
0.00132308
-0.000141327
-0.00103667
0.0023269
-0.000736542
-0.000421777
-0.0033368
-9.17234e-05
0.00344917
-0.000633174
-0.00106026
0.0017727
-0.000121419
-1.49628e-05
0.000162547
-0.000107482
0.000882453
-0.000750252
5.10411e-06
3.83321e-05
-0.00181868
0.00164608
0.000253545
5.92694e-05
-0.00106208
0.00117244
-1.55635e-05
0.000617616
-0.000282078
-0.00176548
0.00267936
-0.000790982
0.00090188
-0.000629352
0.00117984
-0.000589347
0.00254067
0.000137038
-0.00245574
0.000250543
-5.06417e-05
-0.00202867
0.00230706
-0.000198585
0.000197543
8.83323e-05
0.00205941
6.58958e-06
-3.43286e-06
0.0023792
-0.00203767
0.000905021
-0.00147609
-0.00169708
-0.00255069
-0.00134483
0.00153413
-0.000109601
-3.71525e-06
0.00016859
0.00256608
0.000112626
-0.00243987
0.000748817
0.00150431
3.90742e-05
-0.000204987
-0.000184342
0.000279259
-9.4231e-05
0.000512996
0.000471494
-0.00113225
-0.000955334
0.00118409
-0.000796243
0.000710536
-1.15126e-05
-0.000121055
-0.000170488
-0.000105642
0.00275117
-0.000235833
-0.0024841
-6.92045e-05
4.10981e-05
-3.9949e-05
-2.25436e-05
4.26731e-05
0.00340166
2.98417e-05
-0.000647196
-0.00167917
-0.00169267
0.000205276
0.00148989
-0.000428045
0.000396994
4.52189e-05
0.000763372
-0.00115956
0.00181498
-0.000200474
-0.00150043
0.000696673
-0.000496888
0.000308027
-0.00022447
-0.00149823
0.000348984
-0.000491259
0.000106819
-0.000355426
2.12403e-05
0.000491862
-0.00138346
3.53367e-05
-3.55313e-05
1.53476e-05
-0.00262802
0.00278035
0.00014939
0.00077678
-0.00523841
0.0035554
0.00185907
-0.00143909
-0.000248423
0.000798433
4.47131e-05
0.000333575
-0.00268794
-0.00263441
0.00236215
0.000261696
-0.0019766
0.00178267
-8.3015e-06
-3.11616e-07
0.0015872
-0.000171468
-0.00135124
0.000494085
-0.000377061
-0.000274271
0.000250171
-0.000253259
0.00105904
-0.00116952
8.0456e-05
0.000290931
-0.000788845
0.000479803
-4.28258e-05
0.000417467
-0.000264153
-4.36994e-05
-0.000540895
0.000505536
-0.0009807
0.00103115
-0.000248061
0.000317959
0.000746783
-0.000888463
0.000186973
-1.80106e-05
0.00441358
0.000207149
0.00168155
-0.00196279
0.00182652
-9.51219e-06
0.000399938
0.00297708
-0.00329326
-2.47025e-05
1.3844e-05
-2.52296e-06
0.000752059
-4.22e-05
-0.00163293
0.0014976
-2.53666e-05
0.000207264
-0.00269104
0.000351373
0.00240467
-0.00183064
0.00226354
2.25622e-05
-0.000737838
0.00104161
-0.000436944
2.52671e-05
-0.000235232
0.000221861
-0.000212595
-0.00487753
0.00441526
0.000571159
-1.43459e-07
0.000142217
0.000105904
-1.46366e-05
4.94978e-06
-4.94978e-06
-0.0017291
-0.000678928
0.00129423
-0.00124355
-4.70979e-05
0.002658
-0.00176447
0.000306189
-0.00237894
0.00223454
0.000344645
-0.00373567
0.00362484
-0.0022847
0.000679424
-0.000369901
0.000211252
1.55418e-05
-0.00207555
0.00253245
-0.000511657
0.000696442
0.000593654
0.000123335
-0.00322952
0.00125922
0.0020345
-0.000111026
-0.00011123
3.36313e-05
4.88138e-06
0.000147087
-0.00010795
-5.36213e-05
-0.000114038
1.31277e-06
0.00163744
-0.00116282
0.00364788
-0.00360935
6.99718e-07
-0.000452564
0.000330658
0.000243856
-0.00227922
0.00212129
0.000331227
-0.00214286
-0.00430714
0.00225443
-0.00245578
0.000151141
0.00228381
-0.000384571
-0.00207851
0.00125613
0.00206819
-0.00182143
0.00237924
-0.000258529
4.19417e-05
-0.0033574
0.00362276
-0.000223414
0.000421253
-0.000386986
-2.24202e-05
-0.00413576
0.000931567
0.00313899
-0.00402037
-0.000171945
0.000967135
-0.000178016
-0.00237784
-0.000902965
-0.000124675
0.000993098
-0.000247847
-0.00203314
0.000312698
0.00136913
-0.00306593
0.00148384
0.00159324
0.000254461
-0.000427825
0.000287302
-0.00212092
0.00257465
-3.28411e-05
-0.000586326
-0.00234292
0.000313656
0.00203854
-0.000455406
5.3421e-05
0.000464552
-3.95296e-05
0.000326412
-0.000164001
-0.00443484
-3.24757e-06
-4.00744e-05
5.2867e-05
-0.000176047
-0.000248128
-0.000118942
0.000150281
2.81199e-05
-0.00147969
0.00183549
7.4079e-05
0.000222117
7.17687e-05
-0.00015281
6.78025e-05
-0.000582486
-0.000241546
0.000923286
-0.000429483
3.31681e-05
0.000587298
-0.00130052
-0.0017231
0.000776477
-0.000908895
0.00209069
0.000170367
-0.000661366
6.82221e-05
5.82045e-05
-0.000186155
0.000542505
0.000841071
0.00123906
0.00010038
-0.00101992
5.35801e-06
9.55364e-05
-0.00328502
-0.000173923
0.00352298
0.00213264
4.5706e-05
1.98349e-05
-3.67456e-05
-0.00388126
-0.00043656
-1.57818e-05
2.22877e-05
-5.32265e-07
0.000262219
-0.000986932
-6.55053e-05
-0.000684908
0.000886113
0.000143115
-9.45989e-05
-0.000313853
1.20597e-05
0.000303347
-0.000498147
-0.00180282
-0.000140731
-0.00294589
0.00197206
1.07094e-05
-0.000128335
5.90363e-05
-0.00234959
0.00188283
-0.0017559
0.00239339
-0.000513089
0.000542752
-0.00220514
-0.00230622
-0.000836975
0.00114316
0.00146909
0.00101182
-5.11557e-06
-0.00115353
0.00394956
-0.000257177
-1.67876e-06
-1.38723e-05
0.000156019
-0.000120135
0.000116953
0.000107694
0.00267029
-0.00138109
-0.00125402
0.00170086
-0.0017393
-2.6936e-06
8.97315e-05
0.00158457
-4.14849e-06
0.000161891
1.25096e-05
0.00101309
-0.00124878
0.00128481
-0.000529466
0.000971309
-0.00122369
0.00132569
-0.00300982
0.00296327
0.000740568
-0.000650975
-7.58456e-05
0.00356659
-2.80181e-05
-0.0035075
-0.0034688
0.000268488
-0.00282881
0.00046235
0.00245098
-1.68896e-05
5.49021e-05
-0.00182952
0.00174337
1.91436e-05
-7.33149e-05
-0.00121128
-0.00294624
0.000189003
-0.00164736
0.00124124
-0.0016791
-9.27265e-05
-0.000486876
0.000287699
-0.0021109
-0.000346961
-0.00012465
8.33083e-07
-0.000785523
0.000987223
-7.79596e-05
8.43489e-05
-0.000600509
-0.00157388
-0.000383574
0.00214822
-0.00173529
-6.81551e-05
0.000156176
-0.000281269
0.000166755
9.18226e-06
0.000389339
-0.00272803
-0.00117575
0.00394705
-1.95011e-05
6.28695e-05
0.00178804
-0.00157767
-0.000145373
-0.0017577
0.0001668
0.00173097
0.00243951
-0.00253928
-0.000610756
-0.000216327
0.000162786
0.00235626
0.000379297
-0.00279835
-0.000403945
0.00331275
0.000191969
-0.000351814
4.05332e-06
-0.00025205
0.000410472
-0.0022112
0.00130729
-0.00396777
0.001213
0.000653442
-0.00170581
-0.000133111
0.0020548
-0.00193267
-0.000735868
-0.000439489
0.00110549
0.000151848
-1.57804e-05
-0.000127996
-2.31399e-06
1.39128e-05
0.000188481
-0.000168333
0.00025721
3.27855e-05
-8.06649e-05
0.000136255
7.49368e-06
-0.000253302
0.0026826
-0.000721696
0.000173269
-0.00288466
0.00236013
0.000612318
0.000549473
1.46492e-05
-0.000534755
-4.21093e-05
0.00243346
-0.000301445
-0.000866444
0.000834103
-0.002219
0.000965973
0.00138495
0.000386084
-0.000526168
1.56077e-05
0.000809499
-0.000757713
-4.77177e-05
8.12259e-05
2.58476e-06
0.0017119
-0.00185539
0.000537411
-0.000214062
2.83035e-05
9.97599e-05
-0.00357765
0.00194483
0.00184325
-0.00143418
0.0016903
-0.00019287
7.3854e-05
0.000399242
0.000120327
0.000549865
-0.000297506
3.05155e-05
0.00040102
0.000136511
1.82073e-05
-0.00333861
0.000641427
-0.000507697
-2.46008e-05
8.25738e-05
8.57286e-05
-9.45795e-05
-0.000235525
-0.00146505
-0.000408604
-0.000359876
3.94743e-05
2.22972e-05
3.23607e-05
0.00150483
-4.58841e-05
-0.00123636
-0.000319582
-0.00408352
0.000349053
0.00040511
-0.00124884
0.000101124
-0.00159997
0.000180525
0.00153105
0.000259443
0.00104093
-0.00170729
0.00199551
-0.00201466
0.000138024
0.00157423
-0.000367809
-0.000531249
0.000532328
1.97928e-05
-0.00153435
-0.00192722
-9.44859e-06
5.23646e-07
0.000375538
0.00330536
-0.00351756
0.00196102
-0.000595679
0.000751546
-0.000238297
-0.000449392
0.00195955
-0.00180331
-6.60478e-05
-0.00253716
-0.00260473
0.00250456
-0.000322889
-0.00202192
-0.00147819
5.97327e-05
8.58911e-05
-8.28765e-05
-7.84374e-05
0.000226269
0.000130097
1.02861e-05
-0.000163672
0.00039298
2.37744e-06
-0.000391102
0.00219226
-0.000381831
-0.00161367
0.000672026
0.00284987
-0.000308313
-0.00238115
-0.000694682
0.000800793
-4.28768e-05
-7.06878e-06
4.94383e-06
3.8303e-06
-0.004112
0.0039051
0.000308889
-0.000712082
0.000930887
0.00176067
-2.99607e-06
-2.12448e-05
0.000446374
-0.000331281
-3.97393e-05
-0.000425649
-0.00356393
-0.00246016
-0.000181932
-0.000228938
-0.00132841
0.00236594
-0.00273786
-0.00412667
0.00180109
0.00211556
-0.00026307
0.00218039
-0.00182268
0.000638836
-0.000221796
-0.000361264
0.000327124
0.000467162
0.000319427
-0.000604459
-0.000314248
3.46534e-05
-0.000504983
0.000379239
-1.42283e-05
-0.00023329
0.000441604
-0.000209337
0.000316471
0.000297232
2.24884e-05
-0.000557252
-0.00130251
0.00161643
-0.000126309
-0.00180401
0.000186143
0.00155473
-0.00147715
0.00016177
0.00134603
-0.000135052
0.000122146
5.97499e-05
2.57703e-06
0.00296357
0.000277622
-0.000480654
0.000173921
0.00112264
-0.000310778
-0.00164584
-8.75642e-05
9.36459e-05
0.00402612
-0.00345764
-0.000319717
-0.000604039
-0.000103285
-0.00100647
1.50015e-06
-6.00419e-05
4.70985e-07
0.000115058
-4.86474e-05
-1.43586e-05
-0.000436379
0.00306572
-0.00259493
-1.8533e-05
-0.000117089
0.00115749
-2.59406e-05
-0.00116046
0.00111662
0.000146317
0.00390477
2.71216e-06
1.71496e-06
-5.34471e-05
-8.62415e-06
-2.00461e-05
-4.5383e-06
-0.00183413
0.00184277
0.000126954
-0.000568843
-0.00181875
6.59061e-06
7.62345e-05
-6.5709e-06
-0.000184757
0.000257211
3.84542e-05
4.21646e-06
-1.41387e-08
0.000355223
-0.000733857
-0.0002304
-0.00121109
0.000348282
0.000307664
0.00290496
-0.00328908
-0.000354998
-0.000529685
-0.00164724
0.00221499
0.00129161
-0.000941948
-0.000189809
0.000950647
-0.00116871
0.000143025
-0.00145034
0.00154306
0.0025053
0.000276436
0.00130971
-0.00212686
0.000863518
-0.00251073
0.00202044
-0.00085253
0.0020705
-0.00231745
-0.00207314
-0.00230316
6.17139e-07
-4.68438e-05
-0.001554
0.00268138
-0.00116303
-0.00152847
-0.000191936
0.00184573
-0.0019305
-0.00112981
0.00277555
-0.00161912
0.000339513
-0.000479706
-2.01035e-05
0.00252943
-0.00232447
-0.000167148
6.88065e-06
-0.000264461
0.000163736
6.76419e-05
-0.000256525
-8.62516e-06
6.11968e-05
0.000696138
-3.12031e-07
-2.39407e-05
-0.000773896
-0.00261742
0.00104118
-0.000968198
0.000886291
8.96537e-05
-5.56657e-05
-0.00374937
0.000147398
0.00085543
-0.000694065
7.24947e-05
-0.00115787
0.00153811
-5.95588e-05
-0.000172787
-5.97412e-05
-0.00104553
5.25191e-05
-0.00118907
0.000378465
-0.0028376
-0.000387683
3.44715e-05
0.000314908
0.000215408
0.000104176
0.000142147
-0.00128155
1.97883e-06
0.000234908
-4.01939e-06
-4.48841e-06
-5.74891e-05
7.74549e-05
5.83992e-05
-0.000971741
0.000817019
-0.000636899
2.50388e-05
0.000504184
0.00150859
-0.00147648
5.13987e-05
7.8576e-05
0.0016694
-0.00290926
-0.000139811
-0.00177135
5.37005e-05
-3.54093e-05
-0.000590312
-0.00101618
0.000882919
1.07158e-05
0.000128634
-0.000731728
-1.64467e-05
-0.000120143
-0.000370127
7.38522e-05
-0.00140943
0.00126225
-2.70506e-05
-0.000381574
0.00253264
0.00175938
0.00260023
0.000239774
-2.3636e-05
-0.000216548
0.000285413
-0.00201391
4.04477e-05
-9.13182e-05
-0.000270211
-0.00387513
0.00204455
0.00187746
0.00181757
0.000607589
5.67727e-05
-1.48567e-07
0.000166112
-1.14409e-06
0.000102104
-0.000101907
0.00178046
-0.00334611
0.00218035
-0.0024753
-7.94895e-05
-1.31512e-05
8.54074e-05
-0.000109476
5.76714e-05
-4.67674e-05
-0.000382349
-0.00234934
0.000480585
0.00186621
-5.60101e-06
1.32018e-05
0.00183047
-0.000231785
-0.000283397
-0.000352579
0.000580917
-1.64949e-05
-9.38545e-07
0.00141315
-0.00152994
-1.90112e-05
0.000235932
-0.000238448
-0.000306234
0.00338091
0.00264836
0.00106422
-0.000190753
0.000239753
-1.79995e-05
-0.000686722
0.00083952
0.000156384
-0.000202792
4.39869e-06
-3.68112e-05
-0.000260319
-1.43749e-06
-0.000601772
0.00208876
-0.00021522
-1.34251e-05
-0.00310072
0.0033239
-1.74522e-05
5.81179e-05
2.03793e-05
-0.00192473
0.000699492
0.00117681
-0.000162023
0.000464194
-0.000987083
-0.00187187
-2.32042e-05
-0.000410715
1.0527e-07
5.71518e-08
4.4632e-06
0.00137789
-0.00139888
-0.000160225
5.70466e-05
1.08138e-05
0.0021721
-0.000739953
9.7332e-05
-0.0023828
0.000814016
0.00164838
0.004791
-0.00462801
-0.00044505
0.00012605
-0.000242606
0.000170677
6.63144e-05
0.00128367
0.000206726
-0.000735819
-0.000149697
-0.00204799
0.00186343
0.000158374
0.00112742
-1.54308e-05
-0.00107898
0.000412325
2.2716e-05
-0.000100579
-2.60632e-06
-0.000226508
0.00248173
-0.000495844
0.000188871
0.000197158
0.00110612
2.92241e-05
0.000782233
-0.0046228
-0.00112551
-0.000790845
-0.0020287
-0.00192348
0.000131528
0.00196823
-7.6776e-05
0.00119514
0.000811904
-0.00190504
-0.000102486
6.17123e-05
0.000737316
-0.000155325
-0.00312456
0.00202851
-0.000109933
-0.00270575
-0.000304835
0.00329715
-0.00201631
-0.000165554
0.000680733
-0.00111037
0.00169936
-0.00173554
-0.00017763
-5.13865e-07
-9.71692e-05
0.000250642
-9.51164e-05
-0.00039036
0.000738992
-0.000233166
0.000515057
-0.000533008
5.03498e-05
-0.00159504
0.00132634
0.000291015
0.00296555
-0.00010663
-0.00279463
-2.2382e-05
-2.61603e-08
0.000355192
-1.27355e-05
-0.0003441
-0.000547254
0.00272857
0.00097271
-0.000902895
-0.000155183
-0.000122139
-0.00278281
0.00219027
0.000990575
-0.00099359
-8.4044e-05
3.28616e-05
-0.000742565
0.00210363
-0.000642357
5.90271e-05
0.000579357
-0.000349019
-0.00276313
-2.72066e-06
-1.60748e-05
0.000821971
-0.00109096
-0.00206508
0.00160456
-4.72251e-06
-0.000627757
0.000675626
1.99502e-05
0.00101647
-0.00115644
-0.000135888
1.2109e-05
0.000146777
-4.48784e-05
-0.000210193
9.76895e-06
0.00154082
0.0041805
-5.52628e-06
-0.000173874
0.00160434
-0.00268524
0.000302565
0.00258331
-1.15023e-05
-9.74213e-05
0.000355419
-2.73762e-05
0.000412984
-0.000391889
2.9017e-05
-5.37213e-08
4.13593e-05
-0.000253011
-0.00148176
5.81109e-06
1.68926e-05
0.0012265
-2.15511e-05
-0.00119235
-0.000785776
-7.27674e-05
0.000701856
-0.000696116
0.0013707
0.000109437
-0.000693916
0.000363324
-0.00105137
3.01108e-05
0.00102712
0.00211422
-0.00128131
0.000373048
-0.0002519
-0.00145896
0.000223812
0.00113041
0.000116754
-0.00010564
-2.14502e-05
2.34345e-06
-0.000541656
0.00104724
-0.00130674
0.000112654
2.41397e-05
0.000225458
1.23709e-05
-0.00095531
0.000864953
8.06283e-05
0.00127235
-0.000225646
-0.000951561
-0.000848529
0.000709375
0.000120846
0.000116754
-6.52965e-05
0.00216154
-0.000232541
-0.00179524
-0.00276788
0.000323457
-7.69607e-05
-0.00144724
-0.000808698
6.84836e-06
0.000687185
-1.05601e-05
-0.000696943
0.00248611
-0.000116734
0.000114676
-0.000855099
-4.47734e-05
-0.000302911
-0.000188228
-0.00149869
0.00187266
-0.000601387
-0.000178981
-0.00355022
0.000230401
-0.000207511
-1.69498e-05
-0.0021564
-0.00282088
-0.000128881
-0.00200258
-0.00060392
0.000641216
2.04403e-05
3.61363e-07
-7.36398e-06
0.000358543
0.00194873
-0.00176408
-5.54794e-05
-0.000108232
0.00115294
-0.000818456
-0.000695872
0.0036582
-7.62638e-05
0.000289101
-0.000876168
0.000656967
-0.000342742
-0.00167576
0.00217157
-0.00251045
0.00107907
6.47606e-05
-0.000922128
0.000423989
-0.00326918
0.00380648
-0.00223014
0.000276084
0.00199715
-0.00046163
0.000133393
-0.000421161
-0.00330322
0.00323175
0.000194992
0.00259416
-0.00050063
-0.00076607
-0.000103845
-7.4189e-07
-0.000186367
0.000219972
0.00210034
-0.00103395
-0.000931663
-1.37555e-06
4.73903e-07
1.72406e-06
-0.000181832
-0.000760482
-0.000118164
0.000949695
0.000322257
-0.00346574
0.00334738
0.000817742
-0.000505497
-4.37026e-05
-2.9329e-06
0.00374677
0.000247849
0.00076806
-0.000787308
-6.5407e-05
0.00162516
-0.00124144
-0.000238685
1.29666e-05
-0.000307785
-0.00126797
-1.63905e-05
-1.20674e-05
1.35631e-05
-6.29618e-06
0.000119757
-0.000678306
-7.30649e-05
0.000693744
-2.91096e-05
0.000298687
-6.23123e-05
0.00114966
-0.00015367
-5.32748e-05
-0.00057193
0.000145476
-0.00357965
0.0035347
0.00103555
-0.00150216
0.00179303
0.000475374
0.000130605
-0.000168773
9.44946e-05
6.61362e-06
0.00243825
-0.00277601
0.000379119
-1.17384e-05
0.00055479
-9.36731e-05
-0.000496634
9.31749e-06
-7.21317e-05
-0.000678253
0.000565805
-0.000429208
0.00133514
0.000115455
0.000262419
-2.01162e-05
9.90399e-05
-0.00105385
-0.000214786
-0.00228481
3.28549e-06
-4.15071e-05
5.509e-05
5.47284e-05
0.00249262
-0.000249961
1.94136e-05
0.000225733
0.000897703
0.00101513
-0.0023224
0.00229436
0.000183037
-0.000331291
0.00147142
-0.00199139
0.000647208
-0.000789476
-0.000644577
-1.78849e-05
0.000831994
0.000204272
-0.00143189
0.000550805
4.0041e-05
8.63756e-05
-0.000815402
-0.00281423
-0.000365301
-0.00335868
0.000576132
-0.00155299
0.000236751
-3.46524e-05
-0.00329789
0.00309387
-0.00358555
0.00383423
-0.00351653
0.00178931
7.05351e-05
1.92657e-05
-6.68427e-05
-0.00138706
0.00114783
0.000446038
6.05693e-06
0.000443065
-0.000655945
-5.6097e-06
-0.000568546
0.00223534
-0.00206352
-0.000134145
0.00134224
-0.00145966
-8.50821e-06
8.61739e-05
0.00266632
-0.000270012
-0.00229105
-0.000561755
-0.00213494
-0.000120661
-0.000106835
-0.000149143
-0.000216353
-1.52769e-05
8.20531e-06
8.61487e-05
1.06102e-05
0.000239019
0.00230589
-8.26917e-05
-0.00165026
3.48885e-05
0.00172421
-0.000856299
-7.95573e-06
0.00088572
-0.00152787
0.00146998
0.00016148
8.38045e-05
-0.001473
0.00148229
0.000250151
-0.000274963
-0.000245588
0.000265191
-0.000256761
9.96952e-05
0.00347375
-0.00352811
0.000906055
-0.000109125
-0.000864342
0.00194305
-0.000106369
-0.0017983
6.42933e-06
-0.000466264
0.000477061
0.000103408
-0.000318108
0.00134568
-0.00168973
-0.000143426
-0.000854522
-0.00103986
-0.00203538
-0.000186002
0.000255826
-0.001977
-0.000120719
0.00209405
0.00290301
-0.000464285
0.00245005
-0.00259226
-0.000322361
-0.000511696
2.74842e-05
-0.00346677
0.00361105
-0.00239989
-0.000298774
0.00277324
0.000183368
-0.00233581
0.00205721
-0.00028743
-0.00213308
0.00251472
5.85238e-05
5.06467e-05
0.000426581
-0.000470731
0.000349827
0.0025336
-0.00267745
-0.002211
0.000267535
-0.000383437
-0.000162251
-0.00123797
0.0011823
-0.00237001
0.00123069
4.73199e-05
0.00120143
-0.000180276
-0.00124151
0.000428691
-0.000104372
-0.00085801
-1.20066e-05
3.70083e-05
0.000349279
0.00104972
-0.0011487
-0.000774901
0.00313746
-0.00323525
3.24994e-06
-0.00112807
-0.000211182
-0.000980416
0.000362236
0.00138906
-9.31545e-05
-0.00118854
-0.00207168
3.3766e-05
0.00199616
-0.000118485
0.000151684
0.000894112
-0.000680494
0.00299891
-0.0013899
0.00136855
-9.76141e-05
0.000122118
-0.000151901
0.00138798
-0.00109526
0.0023582
-0.00217962
-0.000138625
-0.000724088
4.72765e-05
0.000735005
0.000137215
-0.000908592
0.000815647
-0.000177952
0.00177132
-0.00110093
-0.000121783
-1.17417e-05
-0.000541902
0.000149839
-0.000187477
0.000370684
-0.000310599
-3.23391e-05
-6.93441e-05
-0.00126686
0.00053859
-0.000343038
-8.96006e-05
-0.000832715
-0.00139526
0.00223969
-0.000411639
0.000878761
-0.000107683
0.00061602
-6.75691e-05
-0.000541494
0.000119374
0.00113305
0.00109764
-0.00107593
0.00257564
-9.10492e-05
0.000815442
0.000863892
-0.000745781
-2.53735e-05
0.0015133
-8.81089e-05
-0.00134979
-0.000720577
-7.72979e-05
0.000495666
-0.000488214
3.76176e-05
-0.000952709
0.000106677
-0.000561304
-3.71491e-05
-0.00172238
0.000308923
0.00159654
0.00155848
-0.00173752
0.000377711
-5.24806e-05
0.000632069
-0.000668159
0.00109493
-7.52315e-05
-0.00213779
0.000125218
-0.00136449
-0.00198768
6.76516e-05
-0.000588996
0.000514539
7.43815e-05
1.18629e-05
-0.000152288
0.00139027
9.09668e-05
-0.000811748
8.22547e-05
-0.000167194
-0.00113857
0.000882012
-0.000958016
1.26874e-05
0.00173399
0.000910922
-5.34981e-07
1.76614e-06
0.00143224
-2.4214e-05
-0.00145809
-0.00221005
0.000130962
0.00210693
0.000211116
-0.000204667
-0.00321166
-0.000427477
-2.30255e-06
0.000472764
-3.58259e-05
0.000924169
-0.000753607
0.000577484
0.000196127
0.000107724
0.000946678
0.0001876
0.000531501
-0.000508097
-0.00319711
-0.000229858
0.00125124
-0.000661559
6.87385e-05
-0.00027325
-0.00306622
-0.000601897
-0.00195848
-0.000183737
-0.000124106
0.00026583
-5.81317e-05
-0.00048394
0.00207678
-0.00184535
0.00218045
-0.000400336
0.000715635
0.00295238
-0.0026349
-0.000276256
-0.00115994
0.000746937
0.000199765
0.00316953
-5.25004e-05
-0.000703348
-8.69042e-05
5.67647e-07
0.000149096
-0.000152297
-0.00181299
-0.000527121
0.0030279
0.000206596
-4.65476e-05
0.00107861
0.000147476
-0.00123115
0.00226406
0.000147146
-0.00104645
0.000986816
0.00096137
-8.47858e-05
-0.00060024
0.000308956
-0.00223407
-8.10365e-05
-0.00014032
-0.00204512
-0.000266978
-9.11138e-06
0.000442181
0.00161852
-0.00143728
-0.000105725
2.12575e-06
-3.08709e-05
0.000165169
-8.10297e-05
0.000142027
1.84695e-05
0.000291975
-0.00411124
-0.000157738
0.00125466
4.63302e-05
0.00209374
1.39012e-05
0.000955815
-0.000150112
-0.000690585
-0.00245619
-0.000975166
-4.3779e-05
5.44989e-06
0.000193203
1.96522e-06
0.00113048
-0.00119023
4.38301e-05
-0.00011825
-0.000177694
-0.000169754
-3.50356e-05
-4.71503e-07
2.46573e-05
-0.0003436
-0.00332056
0.00379116
0.00280342
-0.000115616
-0.00263327
-0.00183145
0.00163028
-0.00142951
8.56744e-05
0.00148972
2.69352e-05
0.000494264
-0.000504391
-0.00167457
-0.000181799
-0.00215068
2.2076e-05
0.000492974
0.00146368
-4.00815e-05
-0.00147795
-0.000920408
0.000163159
-0.000127678
-3.67087e-05
8.52405e-06
3.78087e-05
4.79938e-05
-0.000522791
-0.000834803
9.92918e-05
0.000727638
0.000261057
0.000832556
8.63575e-05
-0.000107492
-0.000711135