/*--------------------------------*- C++ -*----------------------------------*\
| =========                 |                                                 |
| \\      /  F ield         | OpenFOAM: The Open Source CFD Toolbox           |
|  \\    /   O peration     | Version:  v2012                                 |
|   \\  /    A nd           | Website:  www.openfoam.com                      |
|    \\/     M anipulation  |                                                 |
\*---------------------------------------------------------------------------*/
FoamFile
{
    version     2.0;
    format      ascii;
    class       volScalarField;
    location    "750";
    object      k;
}
// * * * * * * * * * * * * * * * * * * * * * * * * * * * * * * * * * * * * * //

dimensions      [0 2 -2 0 0 0 0];


internalField   nonuniform List<scalar> 
10042
(
0.00109876
0.0110907
8.09354e-05
0.000141282
0.000140888
0.0192432
0.000345194
0.0109389
0.000133942
0.000175462
0.000306135
0.0111092
0.000160124
0.000146505
0.000144157
0.000146143
0.0196176
0.000341377
0.000149499
0.000152577
0.000160072
0.000917352
0.000141174
0.0121826
0.000140134
0.000156505
0.000172362
0.000133417
0.0191254
0.0122549
0.000154085
0.000162775
0.000133762
0.000133726
0.00910261
0.00918597
0.000148013
0.000135049
0.000146898
0.000196499
0.0131504
0.000133881
0.000223427
0.0176735
0.000140706
0.000140098
0.000132108
0.000144027
0.000187958
0.0010976
0.000219567
0.000140249
0.0202579
0.000149106
0.000701412
0.0372003
0.000159327
0.000203762
0.000143887
0.000130683
0.000186492
0.00115125
0.000195367
0.010629
0.0135554
0.000143348
0.000151774
0.00436026
0.000131925
0.00378863
0.000482342
0.000146146
0.000136284
0.000143773
0.000142791
0.000598419
0.00721209
0.000132078
0.00764886
0.00014957
0.0212567
0.0123722
0.000164854
0.000139608
0.000161025
0.000276667
0.000151207
3.46874e-05
0.000140424
0.00921165
0.000154646
0.000144257
0.000196876
0.000259518
0.00660992
0.000142044
0.0166744
0.000151923
0.0262296
0.000143707
0.000154268
0.000211171
0.000144039
0.000159825
0.000150984
0.00014334
0.00445933
0.000142121
0.000229114
0.000143524
0.000143549
0.000283618
0.000206401
0.00794554
0.00873223
0.000131892
0.000198186
0.000152417
0.000188198
0.000131802
0.000130712
0.0141264
0.0143731
0.000140758
0.0107385
0.000141556
0.000141863
0.000698011
0.00015724
0.000198603
0.000134748
0.000141313
0.000146447
0.000141421
0.000173583
0.000257638
0.000152516
0.0146004
0.000147356
0.0277305
0.000179917
0.000137137
0.00420677
0.000133464
0.000152958
0.000135059
0.00016
0.000131835
0.00014563
0.0097567
0.000141653
0.000143333
0.000148088
0.000162708
0.00368373
0.000153268
0.000177107
0.0384967
0.000146685
0.000160008
0.000148313
0.000281414
0.000254364
0.000140716
0.000146333
0.00897749
0.000136165
0.000160426
0.00913269
0.000133517
0.00230651
0.0116427
0.0149051
0.000133611
0.000149074
0.0144208
0.000140434
0.000134941
0.000140869
0.000131935
0.000147075
0.000151269
0.000143812
0.000131665
0.00819684
0.000154616
0.000146264
0.000130944
0.0116504
0.000144061
0.0124255
0.000159311
0.000134854
0.000150859
0.00055552
0.000144241
0.0353132
0.00081481
0.0140965
0.000139722
0.000663671
0.000187999
0.000255696
0.000135734
0.0310408
0.000145364
0.0140582
0.000162783
0.000143419
0.00014161
0.000161927
0.000134747
0.000266547
0.000253886
0.000148737
0.00189327
0.000135385
0.0137853
0.000142753
0.00049878
0.0517661
0.00128727
0.0500271
0.00211654
0.000141242
0.000187514
0.000144448
0.000152039
0.000165717
0.000144209
0.000134946
0.000142903
0.000154708
0.000157995
0.000140395
0.0105375
0.000151388
0.0141457
0.000151957
0.0133611
0.0105809
0.00446842
0.000130676
0.000378157
0.00385728
0.000141426
0.00488367
0.00015137
0.000148256
0.000144187
0.000150456
0.00013489
0.00161404
0.000964457
0.000145281
0.000150983
0.000147399
0.000145598
0.0170301
0.000141123
0.0137897
0.000135475
0.000140151
0.000132208
0.000160545
0.00105859
0.0129543
0.000509973
0.000162734
0.000143429
0.00014297
0.000423828
0.000142244
0.00328025
0.00014524
0.000180077
0.000146754
0.000140417
0.0001639
0.000377317
0.000133398
0.0075748
0.0304095
0.000146482
0.000156645
0.0323593
0.00021046
0.000132511
0.000596942
0.000146833
0.00015855
0.000187863
0.000158992
0.00620059
0.0146895
0.000144206
0.000387815
0.000151931
0.000143048
0.000135925
0.000147835
0.00025957
0.000130935
0.0125517
0.000203194
0.00119476
0.00014507
0.000775429
0.000189807
0.00677434
0.000152074
0.000140881
0.000141992
0.000144386
0.000187693
0.000512051
0.000132242
0.00874882
0.0147014
0.000131822
0.000157982
0.00291951
0.000174559
0.00909595
0.00836811
0.000151069
0.000223939
0.000140659
0.000151501
0.000157724
0.000145193
0.000142699
0.00069832
0.000144761
0.0140735
0.000922171
0.00280471
0.00824816
0.000134988
0.0111477
0.000180061
0.000161199
0.000130774
0.000248605
0.00015213
0.000134827
0.000139896
0.000141856
0.000174761
0.0140153
0.000145157
0.008219
0.000176995
0.000138246
0.000896275
0.00024025
0.000144496
0.000164359
0.0301974
0.000164455
0.000143167
0.000148825
0.00014622
0.00990314
0.0109553
0.000146643
0.000140386
0.000175404
0.000173808
0.000827596
0.000130754
0.000164005
0.000143195
0.000161414
0.00025674
0.000148268
0.00017972
0.00399374
0.00962145
0.000245467
0.000142762
0.00566704
0.000164734
0.00014042
0.000165969
0.000131871
0.000143124
0.000131724
0.000144184
0.000132503
0.000145213
0.0366892
0.00014505
0.000219339
0.0146743
0.00104489
0.000141727
0.00895096
0.00014847
0.000162783
0.000140352
0.0389367
0.00017333
0.000858064
0.011961
0.000138301
0.000179504
0.000144262
0.00804374
0.000144838
0.01835
0.000154548
0.00554098
0.00014483
0.0103302
0.000152117
0.000155529
0.000699685
0.000132545
0.000150093
0.000142282
0.016261
0.000134834
0.000131605
0.000179642
0.000156489
0.000163926
0.0166474
0.000141003
0.000161212
0.00015682
0.00013208
0.000154711
0.0100864
0.000141442
0.000145872
0.0118983
0.00018791
0.000158146
0.0378279
0.000133628
0.000185958
0.000173826
0.0122325
0.00034732
0.00685436
0.00976306
0.000248579
0.0107876
0.000131568
0.000175541
0.00306728
0.00303106
0.000165383
0.000141174
0.000140386
0.00709567
0.0363742
0.000131697
0.000160662
0.000153651
0.000141494
0.000139908
0.000140626
0.000143475
0.000159232
0.00112912
0.000146551
0.000187307
0.00304076
0.000251182
0.00013401
0.0386417
0.00845547
0.0144852
0.000142982
0.000152448
0.000156017
0.00107383
0.000142925
0.000520274
0.000144718
0.0228895
0.000138549
0.000150471
0.000159546
0.000170139
0.0288026
0.000154981
0.000139054
0.000141148
0.0141278
0.000135386
0.00033893
0.000167124
0.000179499
0.000137006
0.000458866
0.00499517
0.000802075
0.000143169
0.000152438
0.00663776
0.012958
0.000168113
0.0073704
0.000145324
0.010521
0.000158602
0.000156041
0.000149926
0.0139262
0.000136675
0.000141055
0.000143829
0.00561722
0.000140861
0.00611114
0.000141505
0.000143087
0.000134171
0.00015518
0.00759547
0.000144067
0.000145747
0.0148304
0.00107429
0.000160811
0.000143979
0.00014203
0.0101323
0.000259479
0.000142899
0.00013304
0.000164393
0.000142145
0.000142395
0.000189416
0.000134735
0.00199497
0.000140262
0.000168172
0.000156261
0.0425209
0.000140946
0.000152984
0.000143597
0.000135876
0.0117166
0.000130815
0.00241066
0.000168107
0.000134004
0.000185683
0.00272658
0.0137207
0.00273486
0.000144586
0.000133013
0.000131763
0.000144134
0.000166321
0.000143623
0.019307
0.000142009
0.000134878
0.00871325
0.000151097
0.000171179
0.000161915
0.000138903
0.00636858
0.00924221
0.000153313
0.0143342
0.000143011
0.000153705
0.000133874
0.000134026
0.000141475
0.000140925
0.000143137
0.000144343
0.0326507
0.000144423
0.000204768
0.000140215
0.000149312
0.000132317
0.000162762
0.0131734
0.000134093
0.000140359
0.00835102
0.000976829
0.000132465
0.00769154
0.000140555
0.000567027
0.000135167
0.000148123
0.000135757
0.0320594
0.000132375
0.000142403
0.000150885
0.00709322
0.000168399
0.000141326
0.000144646
0.000722145
0.000141685
0.000140769
0.000136587
0.000140831
0.00015046
0.000140516
0.000147981
0.000134074
0.0162435
0.0211957
0.0332282
0.000144796
0.00015022
0.000142414
0.0001805
0.000148098
0.0143821
0.000244025
0.0338461
0.000481613
0.00373389
0.000143031
0.000142773
0.00546313
0.000770714
0.000214696
0.000175934
0.000143906
0.00313256
0.000139039
0.0001432
0.000134162
0.000135321
0.00014804
0.00518271
0.000146377
0.000154103
0.0357597
0.000141702
0.00017327
0.000190501
0.00014631
0.000285791
0.000143873
0.0149055
0.000141246
0.000140635
0.000182298
0.000143156
0.000132426
0.000156172
0.000139337
0.000138825
0.0185131
0.00021318
0.0199421
0.000143971
0.000139939
0.000139293
0.00439537
0.000146629
0.000142651
0.000137463
0.000138973
0.00354148
0.00135642
0.00839612
0.00014486
0.000156793
0.0190758
0.00015353
0.000177999
0.000161991
0.00957433
0.0010926
0.00348091
0.000138974
0.000144166
0.000141628
0.00931338
0.000138899
0.000151106
0.000144653
0.000130978
0.000236506
0.000153993
0.0397865
0.0489576
0.000132396
0.000140606
0.000131535
0.00729573
0.000135218
0.018793
0.000172277
0.00756719
0.000139642
0.000141346
0.000134127
0.000140958
0.000142594
0.000137072
0.000143001
0.000144794
0.000222305
0.000150018
0.0294242
0.000143156
3.48328e-05
0.00987077
0.000150722
0.0370339
0.000139961
0.000147926
0.000184227
0.000147336
0.0153875
0.000144345
0.000144418
0.000134329
0.000575131
0.000140152
0.00898879
0.000164623
0.000139959
0.00020346
0.00739486
0.000184606
0.000136463
0.00017455
0.000164147
0.00385624
0.000203758
0.00314211
0.000255176
0.000143861
0.000143274
0.000142973
0.000155493
0.000221038
0.00854647
0.000322983
0.000131207
0.000148522
0.000147412
0.00017571
0.000163958
0.019099
0.000144467
0.000143027
0.000246173
0.000139433
0.000172367
0.000157361
0.000157774
0.0104127
0.000164622
0.000141439
0.000159789
0.000162664
0.000146491
0.00102177
0.000144588
0.000161816
0.000151534
0.0142264
0.000156986
0.000154739
0.000132216
0.000145009
0.000163489
0.000133574
0.000160418
0.000143842
0.000144765
0.000142629
0.000142584
0.00014773
0.000169866
0.000150567
0.0001439
0.00676699
0.0001337
0.000139657
0.000140315
0.000131612
0.0102927
0.000151715
0.000146656
0.000234662
0.00618117
0.000142497
0.000168672
0.00502803
0.000138694
0.000144078
0.000131536
0.0113413
0.0110505
0.000150604
0.000139549
0.00017225
0.000316363
0.0369677
0.000162383
0.0097994
0.000248992
0.0315064
0.000164255
0.00013859
0.000155588
0.0248266
0.000168546
0.000144545
0.0374244
0.00352247
0.00974546
0.0153963
0.000150888
0.0066658
0.00353791
0.000491945
0.00217329
0.000155434
0.0336758
0.000146227
0.00703157
0.000143078
0.000216271
0.000151906
0.0001826
0.000131086
0.000143347
0.000140508
0.0102383
0.000143421
0.000131518
0.00773678
0.000142838
0.000153724
0.000165296
0.0080028
0.000147302
0.00014609
0.000143127
0.000148109
0.000141684
0.000152022
0.000138871
0.0145859
0.00630579
0.000216449
0.000143956
0.0201699
0.000138615
0.000172528
0.00787366
0.000237996
0.000141801
0.000131879
0.000147918
0.000148662
0.0139097
0.000162688
0.000139398
0.0149086
0.000141834
0.000143774
0.0132609
0.000131701
0.000144878
0.0147244
0.000139496
0.000588209
0.000147361
0.000175423
0.000153604
0.000161724
0.000195566
0.000142085
0.0123456
0.0162269
0.000140267
0.000158357
0.0379704
0.0159566
0.000122008
0.000160839
0.000137756
0.000530318
0.000143272
0.000158666
0.00117415
0.00015016
0.000131744
0.00015863
0.0129795
0.0104791
0.000131846
0.000131539
0.000155787
0.000144034
0.0161231
0.0233112
0.00013513
0.000151535
0.0177826
0.000143241
0.000151685
0.0431915
0.000147644
0.00135055
0.000152933
0.000144113
0.000143927
0.000148266
0.000169128
0.000309112
0.000142248
0.00625887
0.0138359
0.0189586
0.000150051
0.000147162
0.0420013
0.000160363
0.0141177
0.000156985
0.000142677
0.000140625
0.0159771
0.0126029
0.000149761
0.000151059
0.000162105
0.000145831
9.13707e-05
0.00014962
0.000143348
0.000155787
0.000159457
0.00014138
0.000140505
0.0330231
0.000141149
0.000137476
0.000163329
0.000152187
0.00262249
0.000151641
0.000144337
0.0172717
0.000172126
0.000151689
0.000161757
0.00123508
0.000139847
0.00013389
0.000152085
0.000186786
0.000139126
0.000153636
0.000140528
0.000179676
0.000142733
0.000535032
0.000143576
0.000282008
0.00014309
0.000158487
0.000136895
0.000144626
0.000185076
0.0100298
0.000345397
0.0001419
0.000153669
0.0216537
0.000390968
0.000128667
0.000146255
0.00146474
0.000139951
0.000161656
0.000151192
0.000148827
0.000148052
0.000140321
0.000213638
0.00348135
0.000279265
0.000141625
0.000145436
0.000152701
0.000326
0.000139385
0.000136613
0.00016423
0.000131188
0.000138361
0.000650138
0.000156789
0.00915518
0.00013461
0.000136884
0.000134291
0.000157426
0.000159771
0.000153413
0.00542617
0.000138607
0.000143484
0.0100893
0.000144199
0.000194567
0.000152064
0.000686835
0.00110032
0.000155148
0.0206741
0.000152732
0.000142999
0.0475363
0.000145954
0.000141901
0.000132037
0.000140016
0.000163721
0.0144016
0.000161806
0.00605824
0.0158106
0.00101509
0.000166476
0.000700518
0.000149545
0.000489877
0.000133435
0.000154169
0.000143787
0.000144571
0.000144829
0.0348105
0.00609732
0.000141855
0.0264223
0.000137011
0.000257893
0.000143328
0.000149328
0.000175002
0.000279538
0.028587
0.000141441
0.000132598
0.000340415
0.000194629
0.000166862
0.000158017
0.0207409
0.000163297
0.0100044
0.017765
0.000138797
0.000138051
0.000139472
0.000151296
0.000146531
0.000145956
0.000148049
0.000143705
0.000163301
0.000143958
0.000141576
0.000299953
0.00759626
0.000132672
0.000530621
0.000148028
0.000162405
0.000165535
0.00019213
0.000138669
0.000168016
0.000167661
0.000134954
0.000171762
0.0220252
0.000144419
0.000138265
0.000158653
0.00706218
0.012743
0.000134799
0.00977167
0.000143554
0.000143621
0.000346986
0.000142352
0.000139595
0.000137215
0.000141155
0.000158371
0.00766809
0.000162653
0.000137626
0.000142821
0.000138118
0.00014085
0.0060548
0.00013239
0.000157289
0.00134273
0.018996
0.000137419
0.00896676
0.000137274
0.000401539
0.000153091
0.000375094
0.000133389
0.02749
0.000381362
0.008161
0.000142921
0.00017351
0.000459241
0.0124418
0.000156212
0.000487462
0.00014396
0.0148324
0.00670213
0.000183019
0.0118047
0.0057202
0.0116571
0.0384247
0.000229768
0.00623987
0.000138051
0.000165221
0.000573084
0.000186205
0.000142705
0.0291807
0.000146117
0.000138829
0.000136602
0.000169583
0.000186201
0.0001582
0.00448384
0.000156475
0.00494263
0.000146853
0.000140208
0.000138863
0.0111531
0.00958769
0.000156081
0.00441234
0.000144265
0.00014565
0.000159913
0.00152614
0.000168885
0.000138898
0.000177728
0.0150858
0.000147912
0.000302585
0.000135173
0.000158625
0.00510526
0.000141227
0.0219396
0.00164426
0.000142282
0.00014657
0.000139708
0.0142325
0.000151463
0.000334838
0.000294525
0.000139761
0.000138216
0.000133138
0.000161702
0.000137368
0.000162191
0.000182309
0.000175579
0.00199414
0.000145226
0.000154221
0.00599327
0.000147202
0.000174243
0.000148097
0.000142998
0.0409792
0.00587876
0.000144829
0.00731775
0.000171207
0.00892874
0.000141235
0.000139547
0.000188366
0.000152351
0.000160039
0.00102266
0.000169451
0.000158993
0.0111947
0.000176103
0.000149238
0.00611836
0.000236581
0.000472881
0.00013976
0.000132158
0.0138099
0.000138806
0.0116125
0.00127851
0.000200708
0.00559453
0.000144649
0.000141878
0.000271233
0.00238665
0.000142507
0.000471625
0.000164965
0.00014111
0.000175552
0.000146653
0.00014325
0.000165905
0.00014981
0.0001381
0.000148728
0.000140286
0.000151537
0.00628333
0.000156956
0.014429
0.0001423
0.00015346
0.000139295
0.000142342
0.00550787
0.000143619
0.000506841
0.000328013
0.00014569
0.0241196
0.000158755
0.000146945
0.000131594
0.000404121
0.000206689
0.00016759
0.000148789
0.000161387
0.000139422
0.00362769
0.0001491
0.00100042
0.000159449
0.000135042
0.0131774
0.000131461
0.0162514
0.000140278
0.0281774
0.000146647
0.000137402
0.000133991
0.000877914
0.000138952
0.000135375
0.000133592
0.000139196
0.000143055
8.60799e-05
0.0126685
0.000138088
0.000152168
0.000144388
0.000140166
0.000138401
0.000402567
0.034564
0.000151559
0.000142291
0.000138466
0.000134138
0.000150519
0.00015105
0.000133788
0.01365
0.000547622
0.000269233
0.000137002
0.000139224
0.000142808
0.000148333
0.000138195
0.000145379
0.000142807
0.000138785
0.000774979
0.000149463
0.000193822
0.0123967
0.0186709
0.000161844
0.000140077
0.000145723
0.0445801
0.000142173
0.000155601
0.000162291
0.000136502
0.000142043
0.000140601
0.0121102
0.000142612
0.0234118
0.00761542
0.000168751
0.000142203
0.000151558
0.00526706
0.000149525
0.000163594
0.000152123
0.000160515
0.000135993
0.000152047
0.00496641
0.00566788
0.000139312
0.000143528
0.00151873
0.000150589
0.000167392
0.000163221
0.000731466
0.000142095
0.000151589
0.00016912
0.00201127
0.000178378
0.000137847
0.000146393
0.000138303
0.000144006
0.000188022
0.00608349
0.0193108
0.000137934
0.0482811
0.000152322
0.0352223
0.0149318
0.000140326
0.0154661
0.000197154
0.000138538
0.000174391
0.000159848
0.000143682
0.0115011
0.000139039
0.0350065
0.000172501
0.0373017
0.000332715
0.000165916
0.000142172
0.000152009
0.000145264
0.000139202
0.000134553
0.000134828
0.00104367
0.000145689
0.000163733
0.0106073
0.0152363
0.000163606
0.000185129
0.000135941
0.0373411
0.000132077
0.00705193
0.0196859
0.00946085
0.00309325
0.00690399
0.0103178
0.000133506
0.00014334
0.000134038
0.00019694
0.0001485
0.0155553
0.000150624
0.0476289
0.000152978
0.000135944
0.000136832
0.000143726
0.000133501
0.000613108
0.0143852
0.012547
0.0001399
0.000163485
0.000149525
0.000151144
0.000195358
0.00014348
0.00598114
0.0141634
0.000144987
0.00016293
0.00709065
0.000152924
0.0108993
0.0076218
0.000145209
0.00611367
0.000150082
0.0220163
0.000140036
0.000247225
0.000142788
0.001027
0.0014715
0.0120993
0.00518179
0.0459523
0.000188408
0.000661565
0.000155631
0.000144336
0.011144
0.000956229
0.000198479
0.000153189
0.052783
0.0003329
0.00938044
0.000161506
0.0135431
0.000154655
0.000160292
0.0106057
0.000169978
0.000154043
0.000165134
0.000132555
0.000136561
0.000139674
0.000141936
0.000388522
0.000146005
0.000739292
0.000197658
0.000208632
0.000465518
0.0146684
0.000135992
0.000144926
0.0109921
0.0140166
0.000154876
0.0122618
0.0371785
0.0144403
0.000138906
0.000158569
0.000149741
0.000195455
0.000170884
0.00823374
0.00449824
0.000169352
0.00014314
0.000148935
0.00202187
0.0122361
0.000166349
0.00388883
0.000140041
0.000162638
0.000148034
0.013018
0.000148682
0.000135618
0.000139571
0.000147761
0.00284375
0.00624381
0.000144655
0.000184861
0.000870857
0.000154229
0.0117087
0.00016292
0.000158485
0.000161448
0.00016004
0.000257327
0.000140972
0.000140707
0.000159474
0.000324186
0.000190444
0.000161142
0.000146182
0.000147828
0.000144388
0.000490466
0.000161732
0.000148645
0.000144147
0.000258858
0.00015215
0.00619037
0.000147122
0.000156947
0.000140102
0.000238074
0.000284863
0.000167962
0.00571804
0.000139284
0.000159739
0.00635867
0.000152899
0.00423425
0.00026417
0.00014389
0.000147823
0.000403449
0.000142661
0.00327186
0.000143777
0.013635
0.00926969
0.000268351
0.000148165
0.000140117
0.00014141
0.000142184
0.000150482
0.000131882
0.000143774
0.000140047
0.000138356
0.000148986
0.000148298
0.000165565
0.0001478
0.000328647
0.000143816
0.0142568
0.00014577
0.000143854
0.00124352
0.000140887
0.00912055
0.00182399
0.000142881
0.000145499
0.000161623
0.00129226
0.00016451
0.00123583
0.000155937
0.000179871
0.001545
0.000138778
0.0419258
0.00014366
0.000236772
0.000133136
0.0373977
0.0374339
0.00558006
0.000144968
0.000148886
0.000138741
0.000148653
0.000203851
0.000140886
0.000142725
0.00016386
0.000161224
0.0171037
0.000192021
0.000145874
0.000165608
0.000143541
0.00015327
0.000146801
0.000142871
0.000145788
0.000434346
0.0367178
0.000624529
0.000148474
0.000145552
0.000147441
0.000190099
0.0250675
0.000181771
0.00538739
0.00243491
0.000147773
0.000149065
0.000186499
0.000138751
0.000149028
0.000179513
0.00014744
0.000310539
0.000147794
0.0141806
0.000153798
0.000145095
0.000186521
0.000148052
0.000149213
0.000150687
0.000152906
0.00435961
0.000179938
0.000184195
0.000143474
0.0138942
0.00883567
0.000150011
0.000144136
0.000138264
0.000156816
0.000142587
0.00025509
0.000139611
0.000168714
0.000143771
0.000178892
0.000156264
0.000143422
0.0006516
0.000145545
0.00014562
0.00293466
0.000148539
0.00015
0.000205033
0.000144729
0.0120738
0.000138841
0.000138318
0.000145899
0.000185614
0.000136402
0.00799963
0.000145673
0.000140215
0.00389682
0.0051905
0.0378621
0.00185204
0.00270298
0.000152067
0.000137595
0.000148017
0.00459782
0.000154858
0.0012562
0.000146168
0.000157641
0.00444425
0.00667894
0.000138126
0.0488881
0.000349972
0.000139968
0.000151836
0.000144399
0.000146668
0.013927
0.000599488
0.000143574
0.000138715
0.000133387
0.000410783
0.000144497
0.0108738
0.000159731
0.000144252
0.000139922
0.000140239
0.0247038
0.00516318
0.000139446
0.0126919
0.0101023
0.000145203
0.00616838
0.000143999
0.000137803
0.000138127
0.000143361
0.00013581
0.000143331
0.00014412
0.000146973
0.000143694
0.000176978
0.000147911
0.023235
0.00015821
0.000142006
0.00462605
0.000133309
0.000154756
0.000180275
0.000139822
0.0164415
0.000140651
0.000196334
0.0483703
0.000137749
0.00457049
0.00528138
0.000143112
0.000146316
0.000141902
0.00302271
0.000143768
0.0104372
0.0131976
0.00015742
0.000153952
0.000168198
0.000171781
0.000143264
0.000145736
0.000144266
0.00236139
0.00093401
0.000173545
0.00233774
0.000138934
0.000194986
0.0060898
0.000212192
0.000143483
0.00016857
0.000147575
0.000165868
0.000136322
0.000152324
0.0154743
0.000153124
0.000232092
0.00179364
0.000163522
0.00049869
0.000137237
0.00138806
0.000143819
0.000152309
0.000173231
0.000435948
0.0508408
0.000159573
0.000151627
0.00567584
0.000162935
0.000140157
0.000137785
0.000144891
0.000149308
0.000151088
0.000140526
0.0013101
0.000152529
0.000149342
0.000135126
0.000142682
0.000142356
0.000238288
0.000140447
0.00169312
0.000148411
0.00251232
0.000158575
0.000143432
0.000133737
0.000175283
0.000157229
0.0131752
0.0167703
0.00747005
0.000151118
0.000146021
0.00014341
0.000139791
0.000139842
0.00913174
0.000144756
0.000144827
0.00944813
0.000142898
0.000146309
0.0401857
0.00379867
0.000787826
0.000171311
0.00990951
0.00384126
0.000140362
0.000139708
0.000157286
0.00440472
0.000226947
0.0110015
0.000246147
0.000141935
0.000138428
0.000306986
0.000153709
0.000144481
0.000204341
0.000144163
0.000148368
0.00761346
0.00180846
0.000110148
0.000152706
0.000154011
0.000178593
0.014571
0.000143545
0.000139685
0.000143304
0.000316448
0.000139452
0.000150547
0.0144929
0.0437348
0.000136647
0.000140214
0.000134652
0.000143453
0.000143407
0.000159239
0.00188314
0.000146466
0.000296917
0.00266345
0.00344782
0.000161774
0.000145301
0.00014292
0.000141699
0.000138611
0.000134345
0.000143225
0.00696363
0.0112515
0.000139855
0.000137329
0.000144284
0.000143713
0.00242757
0.000159665
0.0178721
0.00918077
0.000314429
0.000184664
0.000142563
0.000140872
0.000142
0.000143537
0.0130197
0.000141811
0.000150116
0.0036132
0.000278111
0.00618267
0.00108586
0.000372549
0.0133088
0.00014289
0.000157761
0.00220121
0.0230948
0.000142676
0.000155967
0.000177371
0.000142695
0.000142946
0.00278659
0.000140388
0.000140885
0.000389392
0.000149781
0.00410121
0.000142193
0.000137772
0.000157676
0.0047078
0.00364115
0.00960182
0.000163525
0.00226126
0.000161984
0.000140068
0.000256067
0.00014081
0.000149437
0.000143584
0.000137972
0.0532339
0.00770708
0.0477381
0.000237635
0.00599601
0.000117314
0.000449192
0.000138958
0.000143928
0.00372169
0.000142763
0.000143993
0.000148678
0.000142451
0.00384236
0.000143674
0.000209948
0.000220023
0.000133401
0.0147871
0.000159628
0.000141375
0.000159195
0.000158533
0.000160125
0.000161935
0.000162438
0.00435728
0.000143596
0.000142286
0.000171051
0.000161746
0.000157478
0.00013967
0.000144853
0.000298183
0.00762304
0.000140456
0.000163234
0.000163733
0.000136767
0.000142226
0.000142369
0.00552652
0.00034269
0.000163926
0.000147071
0.000143269
0.000156394
0.00018199
0.000143267
0.000197793
0.00756006
0.000143685
0.000156408
0.0180548
0.0174812
0.000163578
0.000134195
0.000139036
0.000257319
0.000178217
0.00927482
0.000152652
0.0113284
0.000181419
0.0129657
0.00770349
0.0498966
0.00016933
0.0170296
0.00539768
0.0186345
0.000146454
0.00589319
0.000154799
0.00243545
0.000147707
0.000145821
0.000164219
0.00313949
0.00457822
0.000148289
0.000142962
0.000199413
0.0053034
0.0120742
0.000138612
0.000144264
0.00014205
0.000150949
0.000159373
0.000160786
0.0161287
0.00590993
0.000150394
0.000142117
0.000197125
0.000144049
0.000142729
0.000920686
0.000142252
0.000149504
0.000134904
0.0158314
0.00017829
0.0060034
0.000161994
0.000163519
0.0071732
0.000157711
0.00144443
0.0370935
0.00307867
0.0151665
0.000140431
0.000143222
0.000187187
0.000142984
0.00014359
0.000140659
0.000144369
0.000155165
0.00014252
0.000140293
0.0206056
0.00014906
0.00164502
0.000145291
0.0123737
0.00312752
0.000352036
0.000792844
0.0131489
2.84516e-05
0.00599748
0.0360931
0.00014463
0.000143763
9.40984e-05
0.00015492
0.0121542
0.000140176
0.000148212
0.0118881
0.000142955
0.000138522
0.000144437
0.00014369
0.00454686
0.000143514
0.000159403
0.000143888
0.0233162
0.000142143
0.0344206
0.00688571
0.00599987
0.0140918
0.000133764
0.000164722
0.000144012
0.000141941
0.0189217
0.000165969
0.00505463
0.00713453
0.000133681
0.000146498
0.0001496
0.000142985
0.00564435
0.000139663
0.000156784
0.0121684
0.00679781
0.000883807
0.000142131
0.000144164
0.0135741
0.000199483
0.000248173
0.000512127
0.015014
0.00285154
0.000156775
0.000143122
0.000139586
0.000144084
0.000365566
0.000148793
0.000134926
0.000143392
0.000143671
0.00150184
0.000154696
0.000429935
0.000160761
0.000143344
0.00016441
0.00233686
0.000138365
0.000188298
0.0151449
0.000142776
0.000143068
0.000162933
0.0408849
0.00015055
0.000569784
0.00013653
0.00363849
0.00281151
0.000227617
0.000142633
0.000138368
0.000168828
0.000143036
0.0206902
0.0110562
0.010982
0.0145785
0.00014193
0.00021495
0.00014001
0.000197911
0.00014276
0.0184834
0.00635255
0.000142488
0.0240045
0.00014266
0.0201946
0.000160684
0.000136277
0.0027477
0.000139167
0.000139713
0.000138343
0.000132215
0.000187125
0.0142931
0.000142777
0.000137527
0.000194102
0.000133911
0.000144453
0.000146385
0.000141553
0.000142793
0.0140713
0.000170458
0.000133012
0.000147534
0.000146851
0.000142289
0.0147149
0.0143449
0.000142503
0.00013972
0.000147999
0.000210054
0.000143691
0.000144971
0.000146554
0.000190801
0.000133397
0.000146612
0.00564469
0.000142934
0.00761109
0.000142236
0.000143119
0.00014042
0.00014141
0.0001382
0.000142105
0.000944907
0.0071898
0.000137687
0.000172372
0.000160622
0.000238202
0.000164117
0.000176683
0.000141753
0.000145441
0.000210324
0.000146707
0.00779028
0.000218656
0.000140717
0.000138195
0.00314413
0.000145756
0.0145011
0.000251928
0.000140683
0.0120596
0.0145215
0.00542136
0.00631155
0.000177664
0.00016546
0.000140218
0.0502438
0.000142726
0.00015197
0.000159796
0.000134512
0.000142811
0.0267077
0.000138589
0.00021313
0.0150823
0.000145509
0.000142472
0.033122
0.000142254
0.0025125
0.0001361
0.00717306
0.000276324
0.00724674
0.000142397
0.000139165
0.00014596
0.0146201
0.00163325
0.00753347
0.0216904
0.000284044
0.000142144
0.0048307
0.00482682
0.000143412
0.000144603
0.000164907
0.000140528
0.0410806
0.000170233
0.000135894
0.0195922
0.000139086
0.000138979
0.000136
0.000141721
0.000142952
0.00507036
0.000141299
0.0141269
0.000142062
0.000145274
0.000144221
0.00014407
0.000141509
0.000141946
0.000986388
0.000138013
0.000103636
0.00639145
0.0008582
0.000161954
0.00176087
0.00017058
0.000141284
0.000133784
0.000142445
0.000134157
0.0119036
0.0115302
0.000149187
0.000147426
0.00777508
0.0001457
0.00575203
0.000161929
0.000140538
0.000143052
0.000338538
0.000241633
0.00242078
0.0392074
0.000163417
0.000606877
0.000610268
0.000142249
0.000140825
0.000138533
0.00015683
0.000158281
0.0170345
0.0372479
0.000159787
0.000139677
0.000172008
0.000141643
0.000280007
0.000148112
0.000121793
0.000146285
0.000131126
0.000158403
0.000145607
0.000163484
0.00023298
0.0001562
0.0174963
0.000140647
0.000138345
0.000142453
0.000141822
0.0237919
0.000137745
0.000143875
0.000154174
0.000133246
0.0141789
0.00181152
0.000130648
0.000142482
0.000143212
0.000174399
0.0116647
0.000140666
0.000142558
0.00317635
0.000142697
0.00014225
0.00066726
0.000161988
0.00470878
0.00616041
0.00570884
0.000161471
0.000139917
0.000142513
0.00015573
0.000140642
0.000139695
0.000990414
0.00286678
0.000157502
0.00014054
0.0001398
0.000146453
0.0049746
0.000140425
0.000146675
0.000143045
0.000136138
0.000140227
0.000225718
0.000192283
0.00013954
0.000154343
0.000145466
0.000138365
0.000158774
0.00602773
0.00191746
0.00014125
0.000140999
0.00014214
0.000140156
0.00785687
0.000143362
0.00755102
0.000250872
0.000140752
0.000138057
0.0102232
0.000138242
0.000139809
0.000139862
0.000132738
0.00016537
0.000199265
0.000139821
0.000132757
0.000142526
0.00645761
0.000140453
0.000143832
0.000166018
0.00503462
0.000188321
0.000132852
0.00053856
0.000131908
0.000407818
0.000139926
0.000135101
0.000138189
0.000144186
0.000141435
0.000985781
0.000188326
0.00781746
0.000170183
0.000170931
0.0199132
0.000142628
0.01571
0.00014249
0.00017506
0.0047411
0.000155067
0.00425148
0.000141939
0.000285225
0.000144686
0.000138714
0.000199113
0.000209657
0.00415237
0.000151095
0.0162723
0.00966315
0.000218224
0.000142867
0.00014939
0.000165391
0.000321324
0.00023629
0.00017029
0.000143542
0.000160455
0.0160637
0.00013913
0.0134927
0.00014626
0.00225488
0.00013787
0.000136675
0.000154993
0.000154025
0.0129114
0.0143775
0.000242661
0.000139813
0.000141913
0.000230879
0.00581162
0.00539753
0.000139128
0.000156956
0.000138398
0.00014029
0.000140524
0.00268715
0.000221158
0.000249556
0.000242004
0.00242093
0.0106488
0.000139437
0.00014355
0.000140705
0.000138471
0.000156048
0.000140829
0.00014291
0.00014216
0.000139685
0.0001522
0.0128942
0.000185989
0.000139052
0.000140186
0.000383418
0.000175742
0.000149191
0.000171074
0.000682067
0.000136699
0.000140157
0.000153872
0.000210072
0.000138981
0.0137658
0.000143182
0.000141482
0.000140838
0.0150644
0.000139793
0.000138488
0.00015703
0.000143816
0.0001404