/*--------------------------------*- C++ -*----------------------------------*\
| =========                 |                                                 |
| \\      /  F ield         | OpenFOAM: The Open Source CFD Toolbox           |
|  \\    /   O peration     | Version:  v2012                                 |
|   \\  /    A nd           | Website:  www.openfoam.com                      |
|    \\/     M anipulation  |                                                 |
\*---------------------------------------------------------------------------*/
FoamFile
{
    version     2.0;
    format      ascii;
    class       pointVectorField;
    location    "750";
    object      pointDisplacement;
}
// * * * * * * * * * * * * * * * * * * * * * * * * * * * * * * * * * * * * * //

dimensions      [0 1 0 0 0 0 0];


internalField   nonuniform List<vector> 
10400
(
(0 0 0)
(0 0 0)
(0 0 0)
(0 0 0)
(0 0 0)
(0 0 0)
(0 0 0)
(0 0 0)
(0 0 0)
(0 0 0)
(0 0 0)
(0 0 0)
(0 0 0)
(0 0 0)
(0 0 0)
(0 0 0)
(0 0 0)
(0 0 0)
(0 0 0)
(0 0 0)
(0 0 0)
(0 0 0)
(0 0 0)
(0 0 0)
(0 0 0)
(0 0 0)
(0 0 0)
(0 0 0)
(0 0 0)
(0 0 0)
(0 0 0)
(0 0 0)
(0 0 0)
(0 0 0)
(0 0 0)
(0 0 0)
(0 0 0)
(0 0 0)
(0 0 0)
(0 0 0)
(0 0 0)
(0 0 0)
(0 0 0)
(0 0 0)
(0 0 0)
(0 0 0)
(0 0 0)
(0 0 0)
(0 0 0)
(0 0 0)
(0 0 0)
(0 0 0)
(0 0 0)
(0 0 0)
(0 0 0)
(0 0 0)
(0 0 0)
(0 0 0)
(0 0 0)
(0 0 0)
(0 0 0)
(0 0 0)
(0 0 0)
(0 0 0)
(0 0 0)
(0 0 0)
(0 0 0)
(0 0 0)
(0 0 0)
(0 0 0)
(0 0 0)
(0 0 0)
(0 0 0)
(0 0 0)
(0 0 0)
(0 0 0)
(0 0 0)
(0 0 0)
(0 0 0)
(0 0 0)
(0 0 0)
(0 0 0)
(0 0 0)
(0 0 0)
(0 0 0)
(0 0 0)
(0 0 0)
(0 0 0)
(0 0 0)
(0 0 0)
(0 0 0)
(0 0 0)
(0 0 0)
(0 0 0)
(0 0 0)
(0 0 0)
(0 0 0)
(0 0 0)
(0 0 0)
(0 0 0)
(0 0 0)
(0 0 0)
(0 0 0)
(0 0 0)
(0 0 0)
(0 0 0)
(0 0 0)
(0 0 0)
(0 0 0)
(0 0 0)
(0 0 0)
(0 0 0)
(0 0 0)
(0 0 0)
(0 0 0)
(0 0 0)
(0 0 0)
(0 0 0)
(0 0 0)
(0 0 0)
(0 0 0)
(0 0 0)
(0 0 0)
(0 0 0)
(0 0 0)
(0 0 0)
(0 0 0)
(0 0 0)
(0 0 0)
(0 0 0)
(0 0 0)
(0 0 0)
(0 0 0)
(0 0 0)
(0 0 0)
(0 0 0)
(0 0 0)
(0 0 0)
(0 0 0)
(0 0 0)
(0 0 0)
(0 0 0)
(0 0 0)
(0 0 0)
(0 0 0)
(0 0 0)
(0 0 0)
(0 0 0)
(0 0 0)
(0 0 0)
(0 0 0)
(0 0 0)
(0 0 0)
(0 0 0)
(0 0 0)
(0 0 0)
(0 0 0)
(0 0 0)
(0 0 0)
(0 0 0)
(0 0 0)
(0 0 0)
(0 0 0)
(0 0 0)
(0 0 0)
(0 0 0)
(0 0 0)
(0 0 0)
(0 0 0)
(0 0 0)
(0 0 0)
(0 0 0)
(0 0 0)
(0 0 0)
(0 0 0)
(0 0 0)
(0 0 0)
(0 0 0)
(0 0 0)
(0 0 0)
(0 0 0)
(0 0 0)
(0 0 0)
(0 0 0)
(0 0 0)
(0 0 0)
(0 0 0)
(0 0 0)
(0 0 0)
(0 0 0)
(0 0 0)
(0 0 0)
(0 0 0)
(0 0 0)
(0 0 0)
(0 0 0)
(0 0 0)
(0 0 0)
(0 0 0)
(0 0 0)
(0 0 0)
(0 0 0)
(0 0 0)
(0 0 0)
(0 0 0)
(0 0 0)
(0 0 0)
(0 0 0)
(0 0 0)
(0 0 0)
(0 0 0)
(0 0 0)
(0 0 0)
(0 0 0)
(0 0 0)
(0 0 0)
(0 0 0)
(0 0 0)
(0 0 0)
(0 0 0)
(0 0 0)
(0 0 0)
(0 0 0)
(0 0 0)
(0 0 0)
(0 0 0)
(0 0 0)
(0 0 0)
(0 0 0)
(0 0 0)
(0 0 0)
(0 0 0)
(0 0 0)
(0 0 0)
(0 0 0)
(0 0 0)
(0 0 0)
(0 0 0)
(0 0 0)
(0 0 0)
(0 0 0)
(0 0 0)
(0 0 0)
(0 0 0)
(0 0 0)
(0 0 0)
(0 0 0)
(0 0 0)
(0 0 0)
(0 0 0)
(0 0 0)
(0 0 0)
(0 0 0)
(0 0 0)
(0 0 0)
(0 0 0)
(0 0 0)
(0 0 0)
(0 0.000271143 0)
(0 0.000273633 0)
(0 0.000205778 0)
(0 0.000163129 0)
(0 0.000223033 0)
(0 0.000105755 0)
(0 0.000229557 0)
(0 0.000234359 0)
(0 0.000137505 0)
(0 0.00018933 0)
(0 0.000115544 0)
(0 0.000106423 0)
(0 0.000105339 0)
(0 9.30592e-05 0)
(0 7.26215e-05 0)
(0 6.48538e-05 0)
(0 5.6561e-05 0)
(0 5.29095e-05 0)
(0 0.000217185 0)
(0 0.000189831 0)
(0 3.44801e-05 0)
(0 3.70879e-05 0)
(0 0.000202623 0)
(0 0.000139366 0)
(0 0.000255843 0)
(0 0.00026971 0)
(0 0.000257453 0)
(0 0.000229718 0)
(0 0.000117169 0)
(0 0.000151683 0)
(0 9.06466e-05 0)
(0 0.00011001 0)
(0 9.17507e-05 0)
(0 1.77036e-05 0)
(0 1.89293e-05 0)
(0 0.000264708 0)
(0 0.000268527 0)
(0 0.000280041 0)
(0 0.000218071 0)
(0 0.00021342 0)
(0 0.000214829 0)
(0 0.000199802 0)
(0 0.000180049 0)
(0 4.10773e-05 0)
(0 9.15402e-05 0)
(0 0.000149878 0)
(0 0.000107291 0)
(0 4.48782e-05 0)
(0 5.92495e-05 0)
(0 6.57119e-05 0)
(0 0.000127526 0)
(0 7.66219e-06 0)
(0 0.00338625 0)
(0 0.00349443 0)
(0 0.00333067 0)
(0 0.00343819 0)
(0 0.00327681 0)
(0 0.00338749 0)
(0 0.0032234 0)
(0 0.00332959 0)
(0 0.00316883 0)
(0 0.00327294 0)
(0 0.00311818 0)
(0 0.0032241 0)
(0 0.00307313 0)
(0 0.00317767 0)
(0 0.00303214 0)
(0 0.00313761 0)
(0 0.00299331 0)
(0 0.00310205 0)
(0 0.00295839 0)
(0 0.00308875 0)
(0 0.00292243 0)
(0 0.00303672 0)
(0 0.00288662 0)
(0 0.00572445 0)
(0 0.00576933 0)
(0 0.00583897 0)
(0 0.00580914 0)
(0 0.00587573 0)
(0 0.005931 0)
(0 0.00590512 0)
(0 0.00595827 0)
(0 0.00600477 0)
(0 0.00598178 0)
(0 0.00602658 0)
(0 0.00604532 0)
(0 0.00606601 0)
(0 0.00604279 0)
(0 0.00607945 0)
(0 0.00609843 0)
(0 0.00610941 0)
(0 0.0061319 0)
(0 0.00611399 0)
(0 0.00613414 0)
(0 0.00614631 0)
(0 0.00614555 0)
(0 0.00612867 0)
(0 0.00613589 0)
(0 0.00614946 0)
(0 0.00613764 0)
(0 0.00612023 0)
(0 0.00611987 0)
(0 0.00613245 0)
(0 0.00611288 0)
(0 0.00609963 0)
(0 0.00608954 0)
(0 0.00607598 0)
(0 0.00608124 0)
(0 0.00605627 0)
(0 0.00604916 0)
(0 0.00602719 0)
(0 0.00602814 0)
(0 0.00600015 0)
(0 0.00599628 0)
(0 0.00596848 0)
(0 0.00596964 0)
(0 0.0059365 0)
(0 0.00299852 0)
(0 0.00285773 0)
(0 0.00589682 0)
(0 0.00589594 0)
(0 0.00585454 0)
(0 0.00580516 0)
(0 0.00580895 0)
(0 0.0057598 0)
(0 0.0057509 0)
(0 0.00570516 0)
(0 0.00570653 0)
(0 0.00565085 0)
(0 0.00564403 0)
(0 0.00558907 0)
(0 0.00552304 0)
(0 0.00552357 0)
(0 0.00546326 0)
(0 0.00539763 0)
(0 0.00539648 0)
(0 0.00533415 0)
(0 0.0053264 0)
(0 0.00526523 0)
(0 0.00526906 0)
(0 0.0051967 0)
(0 0.00518637 0)
(0 0.00511694 0)
(0 0.00297164 0)
(0 0.002832 0)
(0 0.00512077 0)
(0 0.00504149 0)
(0 0.00503343 0)
(0 0.00495911 0)
(0 0.0048742 0)
(0 0.00488058 0)
(0 0.00479825 0)
(0 0.00478727 0)
(0 0.00471415 0)
(0 0.00472015 0)
(0 0.00463817 0)
(0 0.0046275 0)
(0 0.00455341 0)
(0 0.00455838 0)
(0 0.0044746 0)
(0 0.00446626 0)
(0 0.00438816 0)
(0 0.00429931 0)
(0 0.00430814 0)
(0 0.00422034 0)
(0 0.00413053 0)
(0 0.00413861 0)
(0 0.00404958 0)
(0 0.00403904 0)
(0 0.00295366 0)
(0 0.00280831 0)
(0 0.00405407 0)
(0 0.00396535 0)
(0 0.00396556 0)
(0 0.00387835 0)
(0 0.00292726 0)
(0 0.0027831 0)
(0 0.00266552 0)
(0 0.00264357 0)
(0 0.00252703 0)
(0 0.00251044 0)
(0 0.00239291 0)
(0 0.00238431 0)
(0 0.00226472 0)
(0 0.00226632 0)
(0 0.00214461 0)
(0 0.0021392 0)
(0 0.00203144 0)
(0 0.0020318 0)
(0 0.00192661 0)
(0 0.00192919 0)
(0 0.00182789 0)
(0 0.00183678 0)
(0 0.00173362 0)
(0 0.00175315 0)
(0 0.00164572 0)
(0 0.00166926 0)
(0 0.00156413 0)
(0 0.00158547 0)
(0 0.00148759 0)
(0 0.00151118 0)
(0 0.00141847 0)
(0 0.00387461 0)
(0 0.00144208 0)
(0 0.00135518 0)
(0 0.00378936 0)
(0 0.00138048 0)
(0 0.00129699 0)
(0 0.00132477 0)
(0 0.00124111 0)
(0 0.0037815 0)
(0 0.0028982 0)
(0 0.00192292 0)
(0 0.00213013 0)
(0 0.00369774 0)
(0 0.00368593 0)
(0 0.00360298 0)
(0 0.0035882 0)
(0 0.00366746 0)
(0 0.0016078 0)
(0 0.00356621 0)
(0 0.0036419 0)
(0 0.00348884 0)
(0 0.00346465 0)
(0 0.00338871 0)
(0 0.00146364 0)
(0 0.00336264 0)
(0 0.00328716 0)
(0 0.00325978 0)
(0 0.00361088 0)
(0 0.00318433 0)
(0 0.0031553 0)
(0 0.00304575 0)
(0 0.00301378 0)
(0 0.00316372 0)
(0 0.00313008 0)
(0 0.00327796 0)
(0 0.00324314 0)
(0 0.00338431 0)
(0 0.00335403 0)
(0 0.00350946 0)
(0 0.00345818 0)
(0 0.00359862 0)
(0 0.00355065 0)
(0 0.00368462 0)
(0 0.00363952 0)
(0 0.00378613 0)
(0 0.00307966 0)
(0 0.00304803 0)
(0 0.00311722 0)
(0 0.00372222 0)
(0 0.00385653 0)
(0 0.00359307 0)
(0 0.00300772 0)
(0 0.00307185 0)
(0 0.00294034 0)
(0 0.00379227 0)
(0 0.00392371 0)
(0 0.00289792 0)
(0 0.0028317 0)
(0 0.0027872 0)
(0 0.00385453 0)
(0 0.00398279 0)
(0 0.00272198 0)
(0 0.0026758 0)
(0 0.0039066 0)
(0 0.0040333 0)
(0 0.00261202 0)
(0 0.00256468 0)
(0 0.00395072 0)
(0 0.00407585 0)
(0 0.0025019 0)
(0 0.00254463 0)
(0 0.00245324 0)
(0 0.002511 0)
(0 0.00293126 0)
(0 0.0039863 0)
(0 0.00410965 0)
(0 0.00385871 0)
(0 0.00239825 0)
(0 0.00245103 0)
(0 0.00234199 0)
(0 0.00401363 0)
(0 0.00413469 0)
(0 0.00228622 0)
(0 0.00223083 0)
(0 0.00403109 0)
(0 0.0041512 0)
(0 0.00217539 0)
(0 0.00403939 0)
(0 0.00415974 0)
(0 0.00212071 0)
(0 0.00323392 0)
(0 0.00206557 0)
(0 0.00403974 0)
(0 0.00416007 0)
(0 0.00201233 0)
(0 0.00195633 0)
(0 0.00427506 0)
(0 0.0042767 0)
(0 0.00415086 0)
(0 0.00426786 0)
(0 0.00438905 0)
(0 0.00437965 0)
(0 0.00424913 0)
(0 0.00435887 0)
(0 0.0044893 0)
(0 0.00446478 0)
(0 0.00432666 0)
(0 0.00442753 0)
(0 0.00456721 0)
(0 0.00452762 0)
(0 0.00564562 0)
(0 0.00190438 0)
(0 0.001848 0)
(0 0.00189524 0)
(0 0.00437368 0)
(0 0.00447122 0)
(0 0.00463873 0)
(0 0.00456055 0)
(0 0.00440341 0)
(0 0.00449384 0)
(0 0.00464275 0)
(0 0.00457854 0)
(0 0.00442056 0)
(0 0.0045013 0)
(0 0.00465664 0)
(0 0.00457709 0)
(0 0.00120964 0)
(0 0.00473034 0)
(0 0.00465096 0)
(0 0.00449552 0)
(0 0.00456614 0)
(0 0.00373722 0)
(0 0.00178649 0)
(0 0.00182905 0)
(0 0.00174113 0)
(0 0.00471969 0)
(0 0.00463015 0)
(0 0.0044565 0)
(0 0.00453757 0)
(0 0.00469119 0)
(0 0.00459275 0)
(0 0.00443642 0)
(0 0.00448137 0)
(0 0.00464599 0)
(0 0.00453802 0)
(0 0.00419862 0)
(0 0.00436679 0)
(0 0.00442954 0)
(0 0.00458886 0)
(0 0.00448126 0)
(0 0.00431963 0)
(0 0.00437016 0)
(0 0.00452858 0)
(0 0.00441647 0)
(0 0.00309831 0)
(0 0.00391993 0)
(0 0.00195546 0)
(0 0.00425548 0)
(0 0.00430081 0)
(0 0.00445897 0)
(0 0.00434237 0)
(0 0.00449586 0)
(0 0.00437791 0)
(0 0.00422731 0)
(0 0.00426133 0)
(0 0.00440738 0)
(0 0.0042884 0)
(0 0.00414608 0)
(0 0.00416841 0)
(0 0.00167947 0)
(0 0.00163542 0)
(0 0.00430825 0)
(0 0.0041833 0)
(0 0.00403012 0)
(0 0.00405794 0)
(0 0.00419591 0)
(0 0.00406637 0)
(0 0.00390766 0)
(0 0.00393025 0)
(0 0.00407471 0)
(0 0.00393822 0)
(0 0.00376901 0)
(0 0.00379954 0)
(0 0.00394498 0)
(0 0.00380658 0)
(0 0.00364359 0)
(0 0.00366997 0)
(0 0.00380937 0)
(0 0.00367332 0)
(0 0.00353713 0)
(0 0.00354042 0)
(0 0.00157436 0)
(0 0.00380516 0)
(0 0.00153143 0)
(0 0.00340155 0)
(0 0.00340869 0)
(0 0.00147125 0)
(0 0.00326674 0)
(0 0.00327459 0)
(0 0.00142983 0)
(0 0.00136998 0)
(0 0.00140736 0)
(0 0.00312925 0)
(0 0.00313857 0)
(0 0.00327773 0)
(0 0.00314513 0)
(0 0.00311938 0)
(0 0.00300344 0)
(0 0.0030131 0)
(0 0.00132967 0)
(0 0.00138777 0)
(0 0.00127047 0)
(0 0.00286875 0)
(0 0.00287947 0)
(0 0.00314878 0)
(0 0.00123069 0)
(0 0.00117323 0)
(0 0.00273167 0)
(0 0.0027436 0)
(0 0.00259354 0)
(0 0.00260682 0)
(0 0.00113406 0)
(0 0.00107853 0)
(0 0.00245637 0)
(0 0.00247123 0)
(0 0.00261562 0)
(0 0.00248229 0)
(0 0.00233915 0)
(0 0.00235123 0)
(0 0.00243723 0)
(0 0.0010403 0)
(0 0.000986457 0)
(0 0.00101981 0)
(0 0.00248919 0)
(0 0.00235936 0)
(0 0.00222261 0)
(0 0.0022322 0)
(0 0.000929464 0)
(0 0.000957938 0)
(0 0.00340718 0)
(0 0.00321274 0)
(0 0.00209661 0)
(0 0.00210794 0)
(0 0.00159151 0)
(0 0.00169414 0)
(0 0.00160516 0)
(0 0.00170609 0)
(0 0.00161519 0)
(0 0.00171454 0)
(0 0.00162176 0)
(0 0.00094898 0)
(0 0.000997986 0)
(0 0.00249073 0)
(0 0.00275317 0)
(0 0.00152281 0)
(0 0.00152782 0)
(0 0.00197319 0)
(0 0.00198553 0)
(0 0.0017195 0)
(0 0.00311751 0)
(0 0.000869733 0)
(0 0.000893361 0)
(0 0.00181279 0)
(0 0.00185206 0)
(0 0.00186458 0)
(0 0.00142958 0)
(0 0.00143325 0)
(0 0.000907583 0)
(0 0.000951998 0)
(0 0.00181596 0)
(0 0.00190957 0)
(0 0.00183538 0)
(0 0.00132702 0)
(0 0.00138077 0)
(0 0.0014112 0)
(0 0.00135132 0)
(0 0.00143908 0)
(0 0.00149863 0)
(0 0.00152798 0)
(0 0.00158889 0)
(0 0.00162012 0)
(0 0.00168119 0)
(0 0.00171821 0)
(0 0.00164958 0)
(0 0.00175467 0)
(0 0.001824 0)
(0 0.00186929 0)
(0 0.00179277 0)
(0 0.00191564 0)
(0 0.00193714 0)
(0 0.00183072 0)
(0 0.0019568 0)
(0 0.00186137 0)
(0 0.00198617 0)
(0 0.00187867 0)
(0 0.00200249 0)
(0 0.00211559 0)
(0 0.00213368 0)
(0 0.00225006 0)
(0 0.00227201 0)
(0 0.00214937 0)
(0 0.00228993 0)
(0 0.00176062 0)
(0 0.00216074 0)
(0 0.00230062 0)
(0 0.00238881 0)
(0 0.00216291 0)
(0 0.002298 0)
(0 0.00215019 0)
(0 0.00228062 0)
(0 0.00201941 0)
(0 0.0024301 0)
(0 0.00241184 0)
(0 0.0022534 0)
(0 0.00238353 0)
(0 0.00199325 0)
(0 0.00187285 0)
(0 0.00174512 0)
(0 0.00175375 0)
(0 0.000807605 0)
(0 0.000826377 0)
(0 0.00162533 0)
(0 0.00163511 0)
(0 0.00133556 0)
(0 0.00133829 0)
(0 0.00221705 0)
(0 0.00234677 0)
(0 0.00399846 0)
(0 0.0040509 0)
(0 0.000862659 0)
(0 0.000902682 0)
(0 0.00315778 0)
(0 0.00187718 0)
(0 0.00150728 0)
(0 0.00151842 0)
(0 0.00191069 0)
(0 0.00200491 0)
(0 0.00186658 0)
(0 0.00140324 0)
(0 0.00256469 0)
(0 0.00217263 0)
(0 0.00230188 0)
(0 0.000742373 0)
(0 0.000725535 0)
(0 0.000754839 0)
(0 0.000841613 0)
(0 0.00124061 0)
(0 0.00124268 0)
(0 0.0013383 0)
(0 0.00124224 0)
(0 0.00133546 0)
(0 0.00123905 0)
(0 0.00132948 0)
(0 0.00123263 0)
(0 0.00132005 0)
(0 0.00122306 0)
(0 0.0013932 0)
(0 0.00140533 0)
(0 0.00247498 0)
(0 0.00242967 0)
(0 0.00225099 0)
(0 0.00238266 0)
(0 0.00113578 0)
(0 0.00112641 0)
(0 0.000814087 0)
(0 0.000849917 0)
(0 0.00138282 0)
(0 0.00227238 0)
(0 0.00137526 0)
(0 0.00114626 0)
(0 0.00255825 0)
(0 0.00251915 0)
(0 0.00231934 0)
(0 0.00245942 0)
(0 0.00267749 0)
(0 0.00259708 0)
(0 0.00238028 0)
(0 0.00252342 0)
(0 0.00274261 0)
(0 0.00265982 0)
(0 0.00243773 0)
(0 0.00257701 0)
(0 0.000765882 0)
(0 0.000853882 0)
(0 0.000663265 0)
(0 0.00064755 0)
(0 0.00282025 0)
(0 0.00270455 0)
(0 0.00247499 0)
(0 0.00260252 0)
(0 0.00200361 0)
(0 0.00209875 0)
(0 0.00128107 0)
(0 0.00129481 0)
(0 0.00130749 0)
(0 0.00283174 0)
(0 0.00273042 0)
(0 0.0024885 0)
(0 0.00261321 0)
(0 0.00152496 0)
(0 0.00285528 0)
(0 0.00273673 0)
(0 0.00249187 0)
(0 0.00261635 0)
(0 0.001039 0)
(0 0.00103021 0)
(0 0.000776501 0)
(0 0.00236657 0)
(0 0.00248975 0)
(0 0.00273801 0)
(0 0.00261314 0)
(0 0.00285889 0)
(0 0.00274002 0)
(0 0.00248938 0)
(0 0.00262152 0)
(0 0.00286816 0)
(0 0.00275245 0)
(0 0.002499 0)
(0 0.00262999 0)
(0 0.00287715 0)
(0 0.002753 0)
(0 0.00250183 0)
(0 0.00262206 0)
(0 0.000940546 0)
(0 0.00341968 0)
(0 0.00286957 0)
(0 0.00273342 0)
(0 0.00248426 0)
(0 0.0025935 0)
(0 0.0011723 0)
(0 0.000762019 0)
(0 0.000728288 0)
(0 0.000793812 0)
(0 0.000588756 0)
(0 0.000573386 0)
(0 0.00283852 0)
(0 0.00269782 0)
(0 0.00245008 0)
(0 0.00255467 0)
(0 0.00230341 0)
(0 0.0024071 0)
(0 0.00265623 0)
(0 0.00251021 0)
(0 0.000843907 0)
(0 0.000812564 0)
(0 0.000906513 0)
(0 0.000873922 0)
(0 0.000966513 0)
(0 0.000936233 0)
(0 0.00102693 0)
(0 0.00100318 0)
(0 0.00109487 0)
(0 0.00107736 0)
(0 0.00118561 0)
(0 0.00116017 0)
(0 0.00126365 0)
(0 0.00124769 0)
(0 0.00135221 0)
(0 0.0013411 0)
(0 0.00123704 0)
(0 0.00133252 0)
(0 0.00122924 0)
(0 0.00132587 0)
(0 0.0012251 0)
(0 0.00132471 0)
(0 0.00122232 0)
(0 0.00132811 0)
(0 0.00122362 0)
(0 0.00133306 0)
(0 0.00123091 0)
(0 0.00134238 0)
(0 0.00124138 0)
(0 0.00135601 0)
(0 0.00125566 0)
(0 0.00137457 0)
(0 0.00147686 0)
(0 0.00149809 0)
(0 0.00139682 0)
(0 0.00143418 0)
(0 0.00160285 0)
(0 0.00152291 0)
(0 0.00142207 0)
(0 0.00144205 0)
(0 0.00155136 0)
(0 0.00144922 0)
(0 0.00158452 0)
(0 0.00148643 0)
(0 0.00168189 0)
(0 0.00131657 0)
(0 0.00162243 0)
(0 0.00152729 0)
(0 0.00111908 0)
(0 0.00275541 0)
(0 0.00261354 0)
(0 0.00236727 0)
(0 0.00247474 0)
(0 0.00271621 0)
(0 0.0025785 0)
(0 0.00233404 0)
(0 0.00243434 0)
(0 0.00267477 0)
(0 0.00252786 0)
(0 0.00228561 0)
(0 0.00237857 0)
(0 0.00164068 0)
(0 0.00261544 0)
(0 0.00246729 0)
(0 0.00223004 0)
(0 0.00232091 0)
(0 0.00208192 0)
(0 0.00217497 0)
(0 0.00240841 0)
(0 0.00226424 0)
(0 0.000862908 0)
(0 0.000770774 0)
(0 0.00203014 0)
(0 0.00212145 0)
(0 0.00234889 0)
(0 0.0022081 0)
(0 0.00140533 0)
(0 0.00138988 0)
(0 0.001489 0)
(0 0.0011425 0)
(0 0.0019822 0)
(0 0.00207128 0)
(0 0.00209488 0)
(0 0.00219092 0)
(0 0.00219291 0)
(0 0.00228584 0)
(0 0.00228543 0)
(0 0.00237959 0)
(0 0.00237699 0)
(0 0.00247226 0)
(0 0.00246736 0)
(0 0.00256399 0)
(0 0.00255624 0)
(0 0.0026544 0)
(0 0.00264397 0)
(0 0.00274305 0)
(0 0.00272986 0)
(0 0.00282987 0)
(0 0.00291455 0)
(0 0.00204683 0)
(0 0.000517497 0)
(0 0.000502676 0)
(0 0.00166107 0)
(0 0.000690907 0)
(0 0.00094267 0)
(0 0.00147031 0)
(0 0.00157046 0)
(0 0.00110577 0)
(0 0.000934331 0)
(0 0.000676833 0)
(0 0.000645412 0)
(0 0.000986397 0)
(0 0.00184528 0)
(0 0.00193469 0)
(0 0.00136725 0)
(0 0.00249593 0)
(0 0.00256661 0)
(0 0.0011871 0)
(0 0.00106665 0)
(0 0.00104738 0)
(0 0.000450124 0)
(0 0.000435865 0)
(0 0.00137137 0)
(0 0.000944162 0)
(0 0.000459369 0)
(0 0.00242804 0)
(0 0.0021849 0)
(0 0.00301502 0)
(0 0.00170777 0)
(0 0.00179653 0)
(0 0.00201775 0)
(0 0.00188027 0)
(0 0.00165957 0)
(0 0.00174375 0)
(0 0.00195676 0)
(0 0.00182112 0)
(0 0.00160998 0)
(0 0.00168721 0)
(0 0.000594397 0)
(0 0.00056565 0)
(0 0.000846597 0)
(0 0.000851825 0)
(0 0.000838828 0)
(0 0.00154823 0)
(0 0.00164936 0)
(0 0.000790753 0)
(0 0.000386584 0)
(0 0.000373365 0)
(0 0.000964941 0)
(0 0.00235475 0)
(0 0.00248827 0)
(0 0.00244095 0)
(0 0.00257055 0)
(0 0.00251153 0)
(0 0.00264143 0)
(0 0.00257347 0)
(0 0.00270218 0)
(0 0.00262723 0)
(0 0.00277679 0)
(0 0.00274737 0)
(0 0.00266577 0)
(0 0.00254888 0)
(0 0.00258107 0)
(0 0.00246503 0)
(0 0.0024908 0)
(0 0.00237612 0)
(0 0.0023975 0)
(0 0.00228592 0)
(0 0.00269339 0)
(0 0.00230376 0)
(0 0.00219614 0)
(0 0.00241426 0)
(0 0.00148001 0)
(0 0.00155872 0)
(0 0.00161413 0)
(0 0.000919732 0)
(0 0.000922997 0)
(0 0.000828622 0)
(0 0.000744284 0)
(0 0.000735367 0)
(0 0.000847096 0)
(0 0.000514887 0)
(0 0.00048919 0)
(0 0.000539378 0)
(0 0.00231769 0)
(0 0.00242747 0)
(0 0.00176965 0)
(0 0.00165834 0)
(0 0.00166148 0)
(0 0.00155464 0)
(0 0.00154768 0)
(0 0.00144072 0)
(0 0.00142093 0)
(0 0.00130911 0)
(0 0.00132891 0)
(0 0.00119653 0)
(0 0.00121973 0)
(0 0.00127608 0)
(0 0.00108976 0)
(0 0.00111926 0)
(0 0.000989674 0)
(0 0.0010267 0)
(0 0.000888996 0)
(0 0.000909045 0)
(0 0.00217882 0)
(0 0.00209331 0)
(0 0.000327465 0)
(0 0.000315058 0)
(0 0.000943706 0)
(0 0.000956911 0)
(0 0.00202656 0)
(0 0.000356138 0)
(0 0.00029855 0)
(0 0.00207796 0)
(0 0.00199723 0)
(0 0.00200746 0)
(0 0.0019155 0)
(0 0.00135393 0)
(0 0.00143419 0)
(0 0.000786469 0)
(0 0.000804815 0)
(0 0.000914083 0)
(0 0.00081807 0)
(0 0.000261084 0)
(0 0.00190911 0)
(0 0.00183086 0)
(0 0.000867524 0)
(0 0.000947751 0)
(0 0.000703963 0)
(0 0.00103673 0)
(0 0.00105223 0)
(0 0.00113212 0)
(0 0.00162395 0)
(0 0.00172643 0)
(0 0.000791999 0)
(0 0.000334808 0)
(0 0.00027772 0)
(0 0.000308993 0)
(0 0.00183393 0)
(0 0.00175386 0)
(0 0.00175069 0)
(0 0.00167781 0)
(0 0.00167534 0)
(0 0.00160476 0)
(0 0.00160338 0)
(0 0.00153531 0)
(0 0.00153522 0)
(0 0.00146974 0)
(0 0.00228081 0)
(0 0.000753442 0)
(0 0.00163853 0)
(0 0.00151111 0)
(0 0.0013091 0)
(0 0.00138154 0)
(0 0.00157769 0)
(0 0.00144792 0)
(0 0.0012581 0)
(0 0.00132519 0)
(0 0.00150689 0)
(0 0.00138665 0)
(0 0.00120539 0)
(0 0.00126884 0)
(0 0.00114747 0)
(0 0.00123025 0)
(0 0.000650692 0)
(0 0.00064227 0)
(0 0.000932813 0)
(0 0.00208709 0)
(0 0.00217455 0)
(0 0.00108887 0)
(0 0.00115374 0)
(0 0.00139162 0)
(0 0.00123238 0)
(0 0.00135494 0)
(0 0.00118368 0)
(0 0.00131369 0)
(0 0.00113642 0)
(0 0.00127121 0)
(0 0.00100974 0)
(0 0.0018154 0)
(0 0.00124375 0)
(0 0.00133156 0)
(0 0.00132979 0)
(0 0.00126941 0)
(0 0.000626926 0)
(0 0.000909023 0)
(0 0.000774666 0)
(0 0.00043834 0)
(0 0.00123387 0)
(0 0.00147037 0)
(0 0.00232746 0)
(0 0.00243803 0)
(0 0.00254044 0)
(0 0.00255313 0)
(0 0.00265736 0)
(0 0.000663043 0)
(0 0.000684777 0)
(0 0.00134294 0)
(0 0.00143616 0)
(0 0.00109152 0)
(0 0.00122577 0)
(0 0.00160322 0)
(0 0.000696049 0)
(0 0.000806963 0)
(0 0.00071016 0)
(0 0.0016715 0)
(0 0.000999273 0)
(0 0.000903832 0)
(0 0.000819461 0)
(0 0.000722132 0)
(0 0.000535576 0)
(0 0.000975785 0)
(0 0.00104039 0)
(0 0.00267334 0)
(0 0.00277887 0)
(0 0.00162964 0)
(0 0.00254577 0)
(0 0.00132661 0)
(0 0.000577654 0)
(0 0.000601736 0)
(0 0.00112968 0)
(0 0.000967416 0)
(0 0.000871333 0)
(0 0.000938426 0)
(0 0.000837714 0)
(0 0.000912842 0)
(0 0.000812656 0)
(0 0.000644433 0)
(0 0.000252163 0)
(0 0.000278087 0)
(0 0.00320923 0)
(0 0.00243313 0)
(0 0.00301448 0)
(0 0.00188255 0)
(0 0.00175268 0)
(0 0.00183202 0)
(0 0.00257363 0)
(0 0.00270896 0)
(0 0.00297786 0)
(0 0.0012122 0)
(0 0.00109863 0)
(0 0.000929483 0)
(0 0.00098842 0)
(0 0.00284998 0)
(0 0.00289814 0)
(0 0.00207504 0)
(0 0.00215972 0)
(0 0.00225991 0)
(0 0.00224278 0)
(0 0.00234389 0)
(0 0.0021407 0)
(0 0.0022224 0)
(0 0.00262228 0)
(0 0.00199023 0)
(0 0.00284039 0)
(0 0.00150439 0)
(0 0.00257049 0)
(0 0.00264163 0)
(0 0.00278467 0)
(0 0.00284804 0)
(0 0.00270623 0)
(0 0.00299041 0)
(0 0.00290341 0)
(0 0.00276462 0)
(0 0.00292556 0)
(0 0.00312746 0)
(0 0.00306282 0)
(0 0.00179529 0)
(0 0.00461178 0)
(0 0.00394021 0)
(0 0.00392835 0)
(0 0.00406002 0)
(0 0.0040424 0)
(0 0.00417136 0)
(0 0.00414972 0)
(0 0.0042758 0)
(0 0.00425133 0)
(0 0.0043748 0)
(0 0.00434722 0)
(0 0.00422514 0)
(0 0.00431782 0)
(0 0.00419791 0)
(0 0.00446847 0)
(0 0.00428713 0)
(0 0.00416954 0)
(0 0.00449636 0)
(0 0.00458769 0)
(0 0.00461643 0)
(0 0.00425442 0)
(0 0.00413953 0)
(0 0.00470433 0)
(0 0.00473292 0)
(0 0.00481759 0)
(0 0.00484449 0)
(0 0.00478436 0)
(0 0.00421928 0)
(0 0.00410731 0)
(0 0.00492774 0)
(0 0.00495345 0)
(0 0.00503372 0)
(0 0.00505897 0)
(0 0.00433137 0)
(0 0.00429078 0)
(0 0.00513613 0)
(0 0.00516178 0)
(0 0.00508157 0)
(0 0.00518492 0)
(0 0.00440002 0)
(0 0.00402543 0)
(0 0.00399441 0)
(0 0.00526228 0)
(0 0.00528518 0)
(0 0.00520523 0)
(0 0.00530424 0)
(0 0.00538094 0)
(0 0.00539847 0)
(0 0.00435404 0)
(0 0.00531823 0)
(0 0.0054106 0)
(0 0.00548661 0)
(0 0.00549674 0)
(0 0.00541871 0)
(0 0.00550393 0)
(0 0.00542457 0)
(0 0.00550823 0)
(0 0.00558628 0)
(0 0.00558982 0)
(0 0.0055099 0)
(0 0.00558784 0)
(0 0.00566466 0)
(0 0.00565837 0)
(0 0.00557129 0)
(0 0.00564524 0)
(0 0.00572232 0)
(0 0.0057042 0)
(0 0.00561106 0)
(0 0.00567841 0)
(0 0.00575876 0)
(0 0.00573249 0)
(0 0.00564872 0)
(0 0.00570035 0)
(0 0.00561378 0)
(0 0.00566191 0)
(0 0.00574396 0)
(0 0.00570518 0)
(0 0.00561716 0)
(0 0.00565915 0)
(0 0.00575052 0)
(0 0.00569338 0)
(0 0.00560831 0)
(0 0.00563682 0)
(0 0.00571369 0)
(0 0.00565564 0)
(0 0.00557821 0)
(0 0.00559024 0)
(0 0.00566454 0)
(0 0.00559456 0)
(0 0.00551827 0)
(0 0.00551755 0)
(0 0.00558952 0)
(0 0.00550916 0)
(0 0.00543259 0)
(0 0.00542195 0)
(0 0.00549369 0)
(0 0.00540452 0)
(0 0.00532714 0)
(0 0.00530484 0)
(0 0.00537967 0)
(0 0.00527687 0)
(0 0.00535083 0)
(0 0.00524657 0)
(0 0.0053199 0)
(0 0.00521229 0)
(0 0.00513841 0)
(0 0.00510115 0)
(0 0.00517021 0)
(0 0.00505645 0)
(0 0.00511963 0)
(0 0.00498878 0)
(0 0.00506447 0)
(0 0.00494404 0)
(0 0.00500704 0)
(0 0.0048802 0)
(0 0.00493593 0)
(0 0.00478906 0)
(0 0.00485578 0)
(0 0.00472478 0)
(0 0.00477532 0)
(0 0.00464176 0)
(0 0.00459611 0)
(0 0.00522568 0)
(0 0.00481494 0)
(0 0.00498959 0)
(0 0.00468922 0)
(0 0.0045493 0)
(0 0.00390899 0)
(0 0.0038774 0)
(0 0.00395884 0)
(0 0.0038414 0)
(0 0.00375712 0)
(0 0.00372084 0)
(0 0.00363488 0)
(0 0.00359629 0)
(0 0.0035113 0)
(0 0.0034705 0)
(0 0.00542125 0)
(0 0.0051052 0)
(0 0.0051848 0)
(0 0.00459807 0)
(0 0.00338611 0)
(0 0.00334493 0)
(0 0.00445317 0)
(0 0.00473762 0)
(0 0.00446012 0)
(0 0.00391821 0)
(0 0.00498799 0)
(0 0.0034206 0)
(0 0.00325991 0)
(0 0.00322065 0)
(0 0.00450304 0)
(0 0.0044087 0)
(0 0.00475586 0)
(0 0.00313453 0)
(0 0.00309711 0)
(0 0.00435375 0)
(0 0.00430153 0)
(0 0.00301 0)
(0 0.0029747 0)
(0 0.00288632 0)
(0 0.00285345 0)
(0 0.00276437 0)
(0 0.00273283 0)
(0 0.00316918 0)
(0 0.0026439 0)
(0 0.00261346 0)
(0 0.00391352 0)
(0 0.00440624 0)
(0 0.00354546 0)
(0 0.00451193 0)
(0 0.00269147 0)
(0 0.00419888 0)
(0 0.00414636 0)
(0 0.00456442 0)
(0 0.00252465 0)
(0 0.00249515 0)
(0 0.00445545 0)
(0 0.00435347 0)
(0 0.00461303 0)
(0 0.00466718 0)
(0 0.00305201 0)
(0 0.00439497 0)
(0 0.00429426 0)
(0 0.00240608 0)
(0 0.00237818 0)
(0 0.00404152 0)
(0 0.00399171 0)
(0 0.00409682 0)
(0 0.00394562 0)
(0 0.00405118 0)
(0 0.00390202 0)
(0 0.00400653 0)
(0 0.00385972 0)
(0 0.00396369 0)
(0 0.00228819 0)
(0 0.00226266 0)
(0 0.00217136 0)
(0 0.00214777 0)
(0 0.00205596 0)
(0 0.00203331 0)
(0 0.00194199 0)
(0 0.00471249 0)
(0 0.00476909 0)
(0 0.0021149 0)
(0 0.00191417 0)
(0 0.00433039 0)
(0 0.00423135 0)
(0 0.00242932 0)
(0 0.00481045 0)
(0 0.00486917 0)
(0 0.00409396 0)
(0 0.0041887 0)
(0 0.00580773 0)
(0 0.00444242 0)
(0 0.00556938 0)
(0 0.00520509 0)
(0 0.00516786 0)
(0 0.00526445 0)
(0 0.0052228 0)
(0 0.00531521 0)
(0 0.00535548 0)
(0 0.00540188 0)
(0 0.00544248 0)
(0 0.00465246 0)
(0 0.00555416 0)
(0 0.00563268 0)
(0 0.0056125 0)
(0 0.00568676 0)
(0 0.00566113 0)
(0 0.00570682 0)
(0 0.00575582 0)
(0 0.00577751 0)
(0 0.0026204 0)
(0 0.00480415 0)
(0 0.00169753 0)
(0 0.00159523 0)
(0 0.001801 0)
(0 0.00582851 0)
(0 0.00587428 0)
(0 0.00588958 0)
(0 0.00593209 0)
(0 0.00594332 0)
(0 0.00598027 0)
(0 0.00596586 0)
(0 0.000556672 0)
(0 0.000545266 0)
(0 0.000562145 0)
(0 0.00455379 0)
(0 0.00445881 0)
(0 0.00460591 0)
(0 0.00299157 0)
(0 0.0031321 0)
(0 0.00321914 0)
(0 0.00335685 0)
(0 0.00343911 0)
(0 0.00357234 0)
(0 0.00348924 0)
(0 0.00309281 0)
(0 0.00320491 0)
(0 0.00331275 0)
(0 0.00341716 0)
(0 0.00351964 0)
(0 0.00361733 0)
(0 0.00351343 0)
(0 0.00370935 0)
(0 0.00360247 0)
(0 0.00111634 0)
(0 0.00215305 0)
(0 0.00204662 0)
(0 0.00189421 0)
(0 0.0017833 0)
(0 0.00163 0)
(0 0.00151414 0)
(0 0.00166621 0)
(0 0.00136096 0)
(0 0.00147958 0)
(0 0.00288489 0)
(0 0.00033552 0)
(0 0.0011873 0)
(0 0.00256517 0)
(0 0.00318229 0)
(0 0.000280052 0)
(0 0.000283031 0)
(0 0.000224903 0)
(0 0.00223755 0)
(0 0.00211187 0)
(0 0.00198335 0)
(0 0.00185306 0)
(0 0.00172783 0)
(0 0.00159437 0)
(0 0.00171991 0)
(0 0.00147223 0)
(0 0.00159989 0)
(0 0.00145846 0)
(0 0.00159189 0)
(0 0.00132658 0)
(0 0.00146981 0)
(0 0.00158935 0)
(0 0.00386229 0)
(0 0.0010193 0)
(0 0.00208263 0)
(0 0.00161366 0)
(0 0.00464237 0)
(0 0.00475499 0)
(0 0.00477886 0)
(0 0.00488797 0)
(0 0.00490572 0)
(0 0.00485993 0)
(0 0.00498992 0)
(0 0.00495883 0)
(0 0.0033038 0)
(0 0.00368492 0)
(0 0.00387529 0)
(0 0.00162044 0)
(0 0.00286777 0)
(0 0.00284907 0)
(0 0.00340498 0)
(0 0.00114413 0)
(0 0.00341675 0)
(0 0.00361742 0)
(0 0.00351863 0)
(0 0.00371783 0)
(0 0.00362111 0)
(0 0.00487485 0)
(0 0.00494274 0)
(0 0.00500945 0)
(0 0.0050718 0)
(0 0.00513459 0)
(0 0.0051906 0)
(0 0.00512755 0)
(0 0.00351759 0)
(0 0.00338637 0)
(0 0.00198547 0)
(0 0.00343396 0)
(0 0.00230066 0)
(0 0.00227532 0)
(0 0.00241388 0)
(0 0.001477 0)
(0 0.00137899 0)
(0 0.00124324 0)
(0 0.00183643 0)
(0 0.00173569 0)
(0 0.00158753 0)
(0 0.00148188 0)
(0 0.00133569 0)
(0 0.00298143 0)
(0 0.00573305 0)
(0 0.0041114 0)
(0 0.000820189 0)
(0 0.00313277 0)
(0 0.00324426 0)
(0 0.00425124 0)
(0 0.00393732 0)
(0 0.00145058 0)
(0 0.00555921 0)
(0 0.00171346 0)
(0 0.00479415 0)
(0 0.00491521 0)
(0 0.00480226 0)
(0 0.00163318 0)
(0 0.00137335 0)
(0 0.0034144 0)
(0 0.00524683 0)
(0 0.00514468 0)
(0 0.0051639 0)
(0 0.00506082 0)
(0 0.00507803 0)
(0 0.00497407 0)
(0 0.00495237 0)
(0 0.00498892 0)
(0 0.00509011 0)
(0 0.0048667 0)
(0 0.00484265 0)
(0 0.00499559 0)
(0 0.00509244 0)
(0 0.00507247 0)
(0 0.0019984 0)
(0 0.0037317 0)
(0 0.00391217 0)
(0 0.00379372 0)
(0 0.00377792 0)
(0 0.00366085 0)
(0 0.00363858 0)
(0 0.00367714 0)
(0 0.00354546 0)
(0 0.00356209 0)
(0 0.00343225 0)
(0 0.00344877 0)
(0 0.00332264 0)
(0 0.00333593 0)
(0 0.00329862 0)
(0 0.00319163 0)
(0 0.00345191 0)
(0 0.00333538 0)
(0 0.00344037 0)
(0 0.00332185 0)
(0 0.0034186 0)
(0 0.00329978 0)
(0 0.00338793 0)
(0 0.00321217 0)
(0 0.000483634 0)
(0 0.000626153 0)
(0 0.000614226 0)
(0 0.000694246 0)
(0 0.000684001 0)
(0 0.00605227 0)
(0 0.00601282 0)
(0 0.00601778 0)
(0 0.00597451 0)
(0 0.00597636 0)
(0 0.00592908 0)
(0 0.00592947 0)
(0 0.00597555 0)
(0 0.00587677 0)
(0 0.00587476 0)
(0 0.00592815 0)
(0 0.0059711 0)
(0 0.00589969 0)
(0 0.00594978 0)
(0 0.000829721 0)
(0 0.000731883 0)
(0 0.000588325 0)
(0 0.00577148 0)
(0 0.00569037 0)
(0 0.00572996 0)
(0 0.00564563 0)
(0 0.00568216 0)
(0 0.00558747 0)
(0 0.00311406 0)
(0 0.00146033 0)
(0 0.00147099 0)
(0 0.00157003 0)
(0 0.00157564 0)
(0 0.00168104 0)
(0 0.0014698 0)
(0 0.00168676 0)
(0 0.00179394 0)
(0 0.00178959 0)
(0 0.00190444 0)
(0 0.00190454 0)
(0 0.00202222 0)
(0 0.00202536 0)
(0 0.00190705 0)
(0 0.00203071 0)
(0 0.00191145 0)
(0 0.00203968 0)
(0 0.00215901 0)
(0 0.00217177 0)
(0 0.00205099 0)
(0 0.00218527 0)
(0 0.00206515 0)
(0 0.0021975 0)
(0 0.00208363 0)
(0 0.00221644 0)
(0 0.00210727 0)
(0 0.00224351 0)
(0 0.00213421 0)
(0 0.00227246 0)
(0 0.00216387 0)
(0 0.0023044 0)
(0 0.00219443 0)
(0 0.00234083 0)
(0 0.00223498 0)
(0 0.00238212 0)
(0 0.00228252 0)
(0 0.00214506 0)
(0 0.00242609 0)
(0 0.0023161 0)
(0 0.00253299 0)
(0 0.00381687 0)
(0 0.00298481 0)
(0 0.00595995 0)
(0 0.00174547 0)
(0 0.00375721 0)
(0 0.00361306 0)
(0 0.00373411 0)
(0 0.00358391 0)
(0 0.00370329 0)
(0 0.00346621 0)
(0 0.00354492 0)
(0 0.00326472 0)
(0 0.00334362 0)
(0 0.000749573 0)
(0 0.000822794 0)
(0 0.000881478 0)
(0 0.00526807 0)
(0 0.00552323 0)
(0 0.0054667 0)
(0 0.00245 0)
(0 0.0015265 0)
(0 0.00238183 0)
(0 0.00331932 0)
(0 0.00144949 0)
(0 0.00139486 0)
(0 0.0015443 0)
(0 0.000705861 0)
(0 0.00187812 0)
(0 0.00182154 0)
(0 0.000936752 0)
(0 0.00326287 0)
(0 0.0032009 0)
(0 0.00355801 0)
(0 0.00581786 0)
(0 0.00359306 0)
(0 0.00346465 0)
(0 0.00475922 0)
(0 0.00473353 0)
(0 0.00481323 0)
(0 0.00470548 0)
(0 0.00216788 0)
(0 0.00114145 0)
(0 0.00291574 0)
(0 0.0038211 0)
(0 0.00392149 0)
(0 0.00406571 0)
(0 0.00401589 0)
(0 0.00416198 0)
(0 0.00410683 0)
(0 0.0042522 0)
(0 0.00419391 0)
(0 0.00433675 0)
(0 0.00427541 0)
(0 0.00441545 0)
(0 0.00435138 0)
(0 0.00448715 0)
(0 0.00441913 0)
(0 0.00156141 0)
(0 0.00338974 0)
(0 0.00245573 0)
(0 0.00451118 0)
(0 0.00465912 0)
(0 0.00436052 0)
(0 0.00474897 0)
(0 0.0048031 0)
(0 0.00488914 0)
(0 0.00494018 0)
(0 0.00502388 0)
(0 0.00266904 0)
(0 0.00564836 0)
(0 0.00126109 0)
(0 0.00215921 0)
(0 0.00105401 0)
(0 0.00211468 0)
(0 0.000722337 0)
(0 0.00508619 0)
(0 0.00505421 0)
(0 0.0022376 0)
(0 0.00256227 0)
(0 0.000982679 0)
(0 0.000611425 0)
(0 0.00233292 0)
(0 0.00222543 0)
(0 0.00104248 0)
(0 0.00117114 0)
(0 0.00454751 0)
(0 0.00598643 0)
(0 0.00477806 0)
(0 0.0055967 0)
(0 0.00524106 0)
(0 0.00231711 0)
(0 0.00315886 0)
(0 0.00491783 0)
(0 0.00480485 0)
(0 0.00318459 0)
(0 0.000794206 0)
(0 0.00175811 0)
(0 0.0036602 0)
(0 0.00134181 0)
(0 0.00146628 0)
(0 0.00381881 0)
(0 0.00372228 0)
(0 0.000891191 0)
(0 0.000794139 0)
(0 0.00447757 0)
(0 0.00049834 0)