/*--------------------------------*- C++ -*----------------------------------*\
| =========                 |                                                 |
| \\      /  F ield         | OpenFOAM: The Open Source CFD Toolbox           |
|  \\    /   O peration     | Version:  v2012                                 |
|   \\  /    A nd           | Website:  www.openfoam.com                      |
|    \\/     M anipulation  |                                                 |
\*---------------------------------------------------------------------------*/
FoamFile
{
    version     2.0;
    format      ascii;
    class       volVectorField;
    location    "650";
    object      ddtCorrDdt0(U);
}
// * * * * * * * * * * * * * * * * * * * * * * * * * * * * * * * * * * * * * //

dimensions      [0 1 -2 0 0 0 0];


internalField   nonuniform List<vector> 
9793
(
(0.0483072 -0.0164167 -1.81737e-19)
(0.0193958 -0.0310704 2.64123e-19)
(0.0482056 -0.0261082 -8.92641e-19)
(-0.000311925 4.55089e-05 3.40249e-19)
(0.313763 0.20479 2.60711e-18)
(0.00164536 -0.00204958 -2.57228e-19)
(0.000406076 5.46002e-05 3.1195e-19)
(0.000289338 0.000913543 -4.44131e-19)
(-0.000409654 0.000441905 4.22223e-19)
(0.313412 0.108149 5.65723e-18)
(-0.0190014 0.0156884 -3.74553e-19)
(0.0173263 -0.0360588 -2.17763e-18)
(-0.00029497 5.42922e-05 2.51783e-19)
(-0.00144608 -0.0019022 -4.90196e-19)
(0.000237988 4.08126e-06 -4.25001e-19)
(-0.00165591 -0.00164465 5.17259e-20)
(0.000134254 -0.000994591 -3.11535e-20)
(1.61067e-06 -0.0011577 1.95448e-19)
(-0.184199 -0.407182 -1.35202e-18)
(-0.00166756 -0.00183628 5.91728e-20)
(0.0457875 0.0337183 1.19926e-18)
(0.00140787 -8.48712e-06 -2.91456e-18)
(0.0150021 0.00978912 3.9566e-20)
(0.000195003 -0.000482326 6.52766e-22)
(-0.00540705 0.000271193 8.44523e-20)
(-0.000300297 1.11561e-05 4.44227e-19)
(-0.00222891 -0.00146216 5.96097e-20)
(0.000633525 -0.00056877 -9.90193e-19)
(0.00405465 0.0184645 6.41855e-19)
(-0.000354013 0.000395933 -4.61919e-19)
(0.00588173 -0.00780056 -7.52227e-18)
(0.01073 0.0095347 1.88895e-20)
(0.0367507 0.0651672 -1.67189e-19)
(0.000106694 -3.1275e-05 9.134e-19)
(0.00876524 0.0205561 -1.02441e-18)
(0.0953677 0.076888 2.73791e-19)
(0.000350146 4.74857e-05 1.49684e-19)
(0.00133625 -0.000118808 8.02263e-19)
(0.000360211 0.00155128 -1.59075e-18)
(0.000495194 -5.20311e-05 -5.74773e-20)
(0.0048751 -0.00774772 6.09197e-18)
(0.000344936 5.16136e-07 1.14529e-19)
(-0.000288514 -1.0093e-05 -4.96995e-20)
(0.000435169 3.84714e-05 -2.33581e-19)
(-0.000307699 4.78834e-06 2.71647e-19)
(-0.000299384 3.1067e-05 -7.14205e-19)
(0.0048263 0.0206987 8.16099e-19)
(0.0124384 -0.0183615 5.0421e-19)
(-0.00608089 -0.00250498 -2.47147e-19)
(-0.000315264 2.8442e-05 6.71211e-20)
(0.0100821 0.0228768 3.60807e-18)
(-0.0173164 0.022228 9.97023e-19)
(0.00196021 -0.00113457 -1.6844e-18)
(2.74495e-05 0.000427782 -9.68658e-19)
(0.0102523 0.0966181 1.47724e-18)
(0.087149 -0.0757762 6.41411e-19)
(-0.000267417 0.000166431 1.76117e-19)
(-0.0443571 0.00522817 -7.58729e-18)
(-0.0512376 0.185605 -1.99184e-18)
(0.000396601 0.00143848 1.04111e-18)
(0.000430732 -3.31756e-05 1.21121e-19)
(0.0017065 -0.000156416 -3.406e-18)
(-0.0269946 0.0335443 1.11098e-18)
(-0.00027379 -2.35119e-06 -4.16487e-19)
(0.0823117 0.66049 -3.00643e-17)
(0.0350739 0.0925807 2.24629e-19)
(-0.0198419 0.0366956 -6.16026e-19)
(-0.00913475 0.0203968 -2.10985e-18)
(0.0135549 -0.0319534 5.40358e-20)
(-0.016699 0.0162584 -4.35181e-19)
(0.0210826 0.095275 -2.9043e-19)
(0.00016603 -1.09578e-05 4.67627e-21)
(-0.000295442 -0.000460049 -1.13848e-18)
(0.00643828 -0.0187682 2.36567e-19)
(0.0147882 0.0247174 -1.54311e-18)
(-0.0258521 0.1777 -3.10433e-19)
(-0.000244837 0.000124507 -9.56445e-20)
(0.000598907 -0.00235538 1.12762e-20)
(0.00145073 -0.00177206 -1.28307e-18)
(0.000836843 -0.0007908 4.26215e-19)
(0.0256404 0.116749 8.32505e-19)
(0.0023836 -0.0019539 2.99497e-19)
(0.0100691 -0.0308558 -9.06116e-20)
(0.008439 -0.00537702 -2.86355e-19)
(0.00449479 -0.00642561 4.01878e-19)
(0.0149822 -0.00829761 7.58497e-19)
(0.000804225 -0.000845814 -1.03388e-18)
(-0.000227449 7.86519e-05 -2.89151e-19)
(0.00141037 -0.000378722 6.36061e-19)
(0.00363533 -0.00209758 6.18257e-19)
(0.0189574 -0.0256373 4.74688e-19)
(-0.139321 0.338688 3.50385e-19)
(0.000803394 -0.000464927 9.75077e-19)
(0.0110396 0.00878585 2.21759e-20)
(0.00152621 -0.000160549 1.90511e-18)
(0.00897945 -0.00348176 4.12421e-19)
(0.0911786 -0.0530684 1.58977e-18)
(0.0127153 -0.029157 5.79762e-20)
(0.00074143 -0.000464402 -3.14649e-19)
(0.000481704 -0.00091107 1.28716e-19)
(0.000430155 -0.000954938 -6.41155e-19)
(0.00471891 0.000492796 2.89548e-19)
(0.000484398 -0.000258771 1.27192e-19)
(0.000497812 -0.000269792 -4.56394e-19)
(0.000817689 -0.00206195 -9.72192e-21)
(0.00371022 -0.00629857 -8.00524e-19)
(0.00127124 -0.000320142 6.27275e-21)
(0.00055195 -8.83803e-06 4.45282e-20)
(0.00170081 -0.0010539 2.77773e-18)
(-0.00651276 -0.0334593 -4.21941e-19)
(0.000153083 -8.61532e-06 -1.47149e-21)
(0.0484311 -0.00969152 2.66526e-18)
(-0.000235313 0.000124447 -4.79361e-20)
(0.16761 -0.0985188 -3.1343e-18)
(-0.0148737 0.0246696 -2.90453e-18)
(-0.000263129 0.000162449 -5.7635e-19)
(0.0101718 -0.047125 -3.33532e-19)
(0.0174413 0.0220659 5.80609e-19)
(0.00219466 -0.00235067 -9.39261e-19)
(0.0101395 0.00758999 -1.54955e-19)
(-0.0038975 -0.0377022 -2.99163e-19)
(4.84487e-05 -2.38379e-06 -4.79153e-21)
(-0.000102472 3.6336e-05 -8.31648e-19)
(0.00187541 -0.00231669 -7.16368e-19)
(0.000160896 0.000845818 -6.04856e-19)
(0.0491488 0.0223524 3.50006e-19)
(-0.0112768 0.00148017 -9.28228e-19)
(0.0152521 -0.00593375 -3.96943e-19)
(0.00122047 -0.0019177 -5.36312e-19)
(-0.000183518 -7.52853e-05 -2.36282e-19)
(0.000141409 4.25037e-07 -1.28004e-20)
(-0.00024247 0.000117173 2.18756e-19)
(-0.00017931 -0.000102385 3.85999e-19)
(0.00441276 0.00424939 -4.90192e-19)
(-0.000370578 0.000340976 1.40333e-20)
(-0.0002111 4.86044e-05 -5.13232e-20)
(-0.0002731 6.43018e-06 -1.08756e-18)
(0.000471802 3.67715e-05 5.96135e-19)
(-0.000227441 0.000100736 9.99337e-19)
(-0.000451051 0.000136754 -3.46026e-19)
(-0.000111529 1.92891e-05 4.53005e-19)
(-0.00523749 0.00141726 7.98564e-20)
(-3.38592e-05 0.000108666 -6.4792e-19)
(0.000342032 -0.00132822 8.70818e-20)
(-0.00143296 -0.00212257 3.79389e-19)
(-0.00165316 -0.00259506 3.88724e-19)
(0.0071629 -0.0203988 -8.48641e-20)
(0.000414363 -0.00128195 -6.55544e-20)
(0.000635558 -0.000300637 4.33432e-19)
(-0.205884 0.300815 8.00096e-18)
(0.17705 -0.185591 8.23385e-18)
(0.000131988 2.67318e-06 -2.80251e-21)
(0.22253 -0.067742 1.82538e-18)
(0.30918 0.0236902 -1.27967e-18)
(0.000603259 -0.000302654 -3.23228e-19)
(9.6908e-05 -1.86873e-06 5.46211e-21)
(-0.000239118 8.49487e-05 9.84635e-20)
(-0.004741 0.00171775 4.29398e-20)
(0.00039887 -0.00113567 1.43414e-19)
(4.53678e-06 0.000114886 -5.46506e-19)
(0.00033933 0.00100606 5.68249e-19)
(0.000565809 -0.000565237 -2.2911e-19)
(-0.0019919 -0.000816524 5.78357e-20)
(-0.265332 -0.186876 4.3501e-20)
(0.0124123 -0.0184259 4.55882e-19)
(0.0557394 0.0489963 1.37247e-18)
(0.0163641 -0.012679 -1.04002e-18)
(0.00372541 0.0027575 3.59398e-19)
(-0.00215634 -0.00124188 -1.56232e-19)
(0.00329594 0.000848224 -2.11697e-19)
(-0.00124219 -0.000765817 -1.25711e-19)
(-0.0236636 -0.0899304 -6.74857e-19)
(0.0154372 -0.0197016 -9.97959e-19)
(-0.0205534 -0.0691893 2.14662e-18)
(2.25405e-05 0.000733632 4.6177e-19)
(-0.202846 -0.325504 1.00416e-18)
(-0.000229159 7.42998e-05 4.90043e-19)
(0.000354314 -0.000315382 5.60184e-21)
(-0.000131993 -0.000194557 3.26569e-20)
(-0.00108256 0.00621014 -1.24139e-18)
(-0.133067 -0.0395207 -2.32304e-18)
(-0.00101123 0.00125476 -1.78169e-20)
(0.000466548 -0.00107965 6.41177e-20)
(-0.00502583 0.000705392 -1.22061e-18)
(0.0590036 0.219709 -1.55753e-18)
(-0.000346113 -0.000417589 1.64847e-18)
(-0.0494075 0.00622013 2.70385e-18)
(-0.000148478 -0.000239178 5.59958e-19)
(-8.75742e-05 -5.69999e-05 1.2044e-18)
(-0.00186311 -0.00100995 -1.67769e-20)
(-5.88928e-05 0.000730195 -8.05721e-19)
(-0.000210664 -4.02764e-05 -3.69154e-19)
(-0.00174111 -0.00027665 1.15068e-18)
(0.0517035 -0.000817418 -1.24593e-18)
(-0.0163855 0.0215801 1.6742e-18)
(-0.00121471 0.0056335 9.64276e-19)
(0.0787526 -0.0535932 8.3817e-19)
(0.00270154 -0.000437373 -7.49175e-19)
(0.297593 -0.0207148 -1.01235e-17)
(-0.000430728 0.000129023 4.97553e-19)
(-0.000325898 0.000307501 -5.9886e-20)
(-0.269468 -0.0138024 1.2917e-18)
(0.108227 -0.0933191 -2.04108e-18)
(-0.000176992 -1.34823e-05 -1.2639e-18)
(-0.000210719 5.74245e-05 5.82706e-19)
(0.000578896 -0.00176016 -1.33111e-20)
(0.0815013 0.0485439 -1.51197e-18)
(-0.000624417 -0.00151179 3.80481e-20)
(0.00335794 -0.00538422 -2.71197e-18)
(0.000245851 0.00145364 4.84639e-19)
(0.00222231 0.00883423 1.97982e-18)
(0.00148653 -0.00256725 -8.69463e-19)
(-0.01069 -0.00241271 2.86062e-19)
(3.84068e-05 0.000480041 8.6486e-19)
(0.0924176 -0.0604299 -9.45636e-19)
(-0.000207771 9.00309e-05 8.25104e-20)
(0.00341004 0.00228934 7.26021e-19)
(0.0831329 0.175392 -6.33405e-19)
(0.000718704 -0.00154222 1.67496e-20)
(-0.0434818 -0.0261747 1.4596e-18)
(0.0355976 0.0181385 9.76668e-19)
(-0.000170243 8.98466e-06 -2.79427e-19)
(8.09058e-05 0.000843481 4.52883e-19)
(-0.000201622 -2.24723e-05 5.76363e-19)
(0.0103427 -0.00596046 3.99767e-19)
(-0.265346 -0.125164 -4.76772e-19)
(0.00172655 -0.00174104 1.43366e-18)
(0.000557942 -0.000236029 -3.66866e-19)
(0.0320408 0.023365 3.19861e-19)
(-0.0114666 0.0158458 -3.24387e-19)
(0.000302871 -0.000569049 1.76554e-21)
(0.000287131 -0.000422971 -3.7621e-21)
(-0.00111021 0.00132812 1.33589e-19)
(-0.000380122 0.000114173 2.3375e-20)
(-0.0147437 0.00497953 -3.83142e-19)
(-0.0399053 -0.0200494 -2.55157e-18)
(-0.000210809 3.87735e-05 3.45313e-19)
(-0.0011542 -0.000381075 -2.29795e-18)
(0.0712218 -0.0424433 -4.40309e-18)
(0.00371176 -0.000756697 -3.95383e-19)
(0.00272314 -0.00529737 2.76889e-18)
(-0.00102383 -0.00199344 -1.59041e-19)
(-0.00132008 -7.6068e-05 -1.93708e-18)
(0.0406286 0.093569 -1.25153e-18)
(-0.00102119 -0.000215033 -1.68274e-19)
(0.000665542 -0.000383375 1.84088e-19)
(0.000336884 0.000860696 1.5991e-19)
(-0.00471787 0.00241251 -1.18914e-19)
(0.000709077 -0.000379632 2.07242e-19)
(0.000121247 -4.43486e-05 -1.09601e-18)
(0.00057668 -1.33042e-05 1.91503e-18)
(0.000268586 0.00307253 9.73357e-19)
(-0.011462 0.0234763 1.67418e-18)
(-0.0130647 0.00290316 2.03109e-19)
(-0.00108481 0.000140666 -9.7834e-19)
(0.00112112 -0.000438228 1.28744e-18)
(-0.00096291 -0.000667863 -1.87846e-18)
(0.000452038 0.00335944 -5.09003e-19)
(0.000679859 -0.00321889 3.26152e-18)
(-0.000399795 -0.00141599 4.71078e-19)
(0.0113655 -0.0455245 1.94445e-19)
(-0.00103192 -0.000317975 6.83096e-19)
(-0.00853031 0.0253774 2.12929e-18)
(-0.000294219 -2.62239e-05 2.56987e-19)
(0.00407198 0.00324057 -1.54759e-19)
(0.000402529 -0.0010258 -4.84375e-21)
(0.000492216 -0.000910816 2.88364e-21)
(0.00333968 0.0085466 6.47474e-19)
(-0.255399 0.0871773 -1.06725e-18)
(0.00107432 -0.000458804 -5.36961e-19)
(-0.000273654 -0.00146632 -6.18808e-23)
(-0.00125946 -0.000506866 2.2534e-19)
(0.00266183 -0.00195455 6.18191e-19)
(-0.000184475 4.87154e-06 -3.28514e-19)
(0.0223282 -0.0213572 1.31481e-19)
(0.0218857 -0.0256629 -5.3791e-19)
(-0.000166168 -3.33673e-05 -3.21024e-19)
(0.0650363 0.0022852 -3.53509e-18)
(-0.000218991 -7.99981e-06 -1.40565e-19)
(-0.0126179 0.00143628 8.87017e-19)
(-0.00416452 0.00257662 -2.31512e-19)
(0.000459824 -0.000646362 -4.84438e-21)
(0.000481625 2.9379e-06 -3.28276e-19)
(0.000483005 -5.44259e-05 -8.19502e-20)
(-0.0106697 0.000573392 6.02106e-19)
(-0.000147805 5.81749e-06 -3.04442e-19)
(0.000556746 -6.48305e-05 -1.47111e-18)
(0.00255954 0.00363749 -2.572e-19)
(0.000331042 0.000117473 -8.3614e-19)
(-0.000193116 4.91639e-05 4.2597e-19)
(-0.000221453 6.65144e-05 -7.30795e-19)
(0.0227741 -0.00808801 8.89291e-19)
(0.00128263 -0.00111297 9.11745e-19)
(0.000365851 2.5384e-05 1.92922e-19)
(0.000117527 7.40534e-06 -2.51332e-21)
(0.0049034 0.00347935 7.95058e-19)
(0.00051504 0.00092984 -6.06982e-19)
(0.00289535 0.00376601 1.64447e-18)
(-0.000240531 -2.44049e-05 -6.81039e-19)
(-0.130929 0.460113 -5.49844e-17)
(0.000577575 -0.000229744 5.33384e-19)
(0.0160772 0.0416842 2.37409e-18)
(-0.00875502 -0.112741 -1.06282e-19)
(0.00049035 3.95175e-07 6.402e-20)
(0.00053588 1.03889e-05 -4.31608e-19)
(0.000102568 -0.00148642 -1.98435e-19)
(0.0027746 -0.0025836 -1.52124e-18)
(0.00267424 0.00127205 8.63879e-19)
(-0.00338612 0.00314128 -1.05845e-18)
(0.0340113 0.104914 1.17747e-18)
(-0.000194413 5.04268e-07 -1.67541e-18)
(1.39554e-06 -0.00144184 1.22242e-19)
(0.0028577 0.00101819 -1.55439e-19)
(0.000690142 -8.87565e-05 1.84831e-18)
(0.000279114 6.41879e-05 8.38843e-19)
(0.0035552 -0.0015563 -6.33638e-19)
(0.0106262 -0.00671347 -6.82243e-20)
(-0.00191091 0.000771007 8.16463e-19)
(0.00294658 -0.000978759 -7.05885e-19)
(0.000157208 0.00154376 -8.93585e-19)
(-0.00126873 0.000792021 1.41762e-18)
(0.0112164 -0.0174926 7.3815e-19)
(0.0800659 -0.177842 9.8827e-21)
(0.00424574 -0.0178472 3.2634e-19)
(0.000608115 -0.00131432 -2.94462e-21)
(-0.147789 -0.0320257 1.11637e-17)
(0.000718062 0.000876013 -7.99349e-19)
(-0.079227 0.137565 4.20591e-18)
(0.0220612 0.0248721 2.69366e-19)
(-0.00167061 -0.000481398 4.06878e-21)
(-0.00207005 0.00162255 5.04162e-19)
(0.0250241 0.0214619 -1.17417e-19)
(0.0041738 0.000877439 1.72141e-19)
(0.00240868 -0.00457682 -1.84604e-18)
(-0.022496 0.0204109 5.83164e-19)
(0.000451681 0.000777753 -9.10299e-19)
(-0.000297908 -1.25786e-06 1.21796e-18)
(-0.000324464 0.000250882 -1.53356e-20)
(-6.99027e-05 -8.13384e-05 4.7068e-19)
(0.000677721 -0.000650361 1.09399e-18)
(0.0707959 -0.0260329 -1.76768e-19)
(-0.000163035 -0.000312775 -3.04308e-18)
(-0.00114507 0.000708894 -1.66468e-18)
(-0.0691904 0.593684 9.91987e-17)
(0.00393479 -0.000313932 4.11091e-19)
(-0.00182632 -0.00153501 1.50351e-19)
(0.000436702 -0.00124984 3.63026e-21)
(0.00102411 0.00028478 -1.38782e-18)
(0.000434634 0.00085713 3.30228e-19)
(0.0831994 -0.0329711 -1.6132e-18)
(0.000330606 0.000914412 3.57986e-19)
(-1.60011e-05 4.52448e-05 8.8366e-19)
(0.000542505 -9.43558e-05 1.17158e-18)
(0.00452807 -0.000160768 -4.13977e-19)
(0.00725247 -0.14039 -3.8173e-19)
(5.27582e-07 0.000370916 2.21473e-18)
(-0.00116671 0.00505824 -6.02383e-19)
(0.000354428 -0.000395021 -2.13555e-21)
(-0.00335237 0.012988 2.55002e-20)
(0.0383182 0.117562 1.0801e-18)
(-0.0490386 0.0124543 -2.27723e-18)
(-0.003847 0.013777 -4.08869e-19)
(0.000970801 0.000199083 1.55762e-18)
(0.00585487 0.00544453 -7.90895e-19)
(0.111303 -0.0758842 1.5813e-18)
(0.000431173 -3.48333e-05 -2.08999e-19)
(0.00650665 -0.0501965 7.79585e-20)
(0.00307412 -0.00138214 -8.64135e-19)
(-0.000353955 0.000111827 -8.7365e-20)
(-0.0167722 -0.109558 1.2535e-18)
(0.00190122 -0.00448023 7.27748e-19)
(0.0999669 -0.203551 1.76075e-18)
(-3.39343e-05 9.37269e-05 -1.79589e-19)
(-0.0164043 0.00550199 -5.70529e-19)
(0.0777147 0.115978 2.62578e-18)
(-0.00369672 -0.00405517 -3.75293e-19)
(-0.000354998 -0.000334979 -1.90622e-18)
(0.0231915 0.0119455 -2.01406e-18)
(-0.00217122 0.00400805 3.102e-19)
(0.00811484 -0.0186113 3.46932e-20)
(0.00124316 -0.000483368 1.03722e-18)
(-9.29558e-05 0.000308419 -5.20507e-19)
(0.124529 -0.0971431 6.54739e-19)
(-0.000254681 -2.12309e-05 1.12929e-18)
(0.000915239 0.000751922 8.49607e-19)
(-0.000297915 1.33576e-06 -5.53383e-21)
(0.000491451 -3.58444e-05 7.48659e-20)
(-0.00206406 -0.00163339 -3.1198e-19)
(-6.22173e-05 0.000376069 8.56745e-20)
(0.00127308 -0.000322739 -8.40615e-19)
(0.0002384 -0.140341 -1.99999e-18)
(-0.000110438 0.000589498 -4.93418e-19)
(-0.161694 -0.089175 -7.75492e-18)
(0.0158504 0.00423279 2.64873e-20)
(0.102532 -0.0993866 7.73834e-21)
(-0.0127936 0.0140173 -4.95314e-19)
(0.000567614 -0.0159581 1.16657e-19)
(0.000362446 -5.71167e-05 1.77522e-19)
(-0.000324414 0.000293602 -2.35973e-19)
(0.136359 0.0417277 1.66102e-19)
(0.0182461 0.00567885 1.60688e-21)
(-0.000811825 -0.00204893 1.96673e-19)
(-0.000682501 0.000791287 7.88583e-20)
(0.0251364 0.576979 3.30267e-17)
(-0.00132665 -0.000370274 -1.30861e-20)
(0.19763 -0.0426825 7.67222e-19)
(-0.001152 -0.000486279 -1.76338e-19)
(0.00136732 -0.000284447 1.58095e-18)
(-0.00126974 -0.000257123 4.08116e-21)
(0.00547095 0.00908198 -2.03623e-18)
(-0.000176186 -0.000339113 1.78406e-18)
(-0.00227622 0.00444467 -1.58917e-19)
(0.0674755 0.015449 -7.90213e-19)
(-0.000481435 -0.0015541 -3.60345e-19)
(0.0170534 0.0106348 -1.72761e-19)
(-0.0110279 0.0109179 -1.20077e-18)
(0.000430295 0.000991365 -6.68317e-19)
(-0.0123765 0.00871064 -3.89079e-19)
(0.00299808 -0.00100945 5.62438e-19)
(0.00112493 -0.000322922 1.61078e-18)
(-0.00135395 -0.00267831 1.5915e-19)
(-0.133915 -0.0466574 3.94008e-18)
(-0.000205054 -1.07505e-05 -6.89383e-19)
(0.000321802 5.40724e-05 1.33909e-18)
(-0.020627 0.0230483 -2.01205e-18)
(-0.000157784 0.000257071 4.42346e-19)
(0.000381242 -0.00339235 -8.06491e-19)
(0.00063881 0.000980657 1.15048e-19)
(-0.00191663 -0.000633417 -1.18752e-19)
(-0.000588441 0.00696783 -1.58534e-19)
(7.97589e-05 0.000113768 6.57519e-19)
(0.000343139 -2.21095e-05 -2.85821e-19)
(-0.00116583 0.000199332 1.44059e-19)
(0.00157645 0.0367749 6.95793e-20)
(-0.00166842 -0.00232037 -2.18027e-19)
(-0.00598362 0.0409822 -7.91933e-19)
(0.00326745 0.00134336 5.73336e-21)
(0.0159889 -0.00104842 -2.84637e-19)
(-0.000316924 1.35465e-05 8.92579e-19)
(0.00368521 0.000558957 -1.0505e-18)
(0.000460388 1.86754e-05 -1.10509e-18)
(-4.51795e-05 0.000592413 1.04451e-18)
(0.0101554 0.192107 1.5446e-18)
(0.00253168 -0.000634756 -4.95883e-19)
(0.0552375 0.111942 1.07444e-19)
(-0.00192423 -0.00119356 4.87869e-22)
(-0.0013454 -0.000848114 8.84977e-19)
(0.000851465 0.000900963 -8.27499e-19)
(0.0797132 0.522848 -3.72369e-17)
(0.00635375 -0.00873688 -1.40967e-18)
(-0.0164622 0.102742 2.37933e-19)
(0.00552743 -0.00341324 1.81708e-18)
(0.00199504 -0.00155738 -3.59701e-19)
(-0.000215958 -2.90784e-05 -1.50913e-18)
(-0.00176954 0.00947002 2.15521e-18)
(9.50039e-05 0.00692974 -1.95095e-18)
(0.00544689 0.00776677 1.85409e-18)
(0.0173864 -0.0330972 -1.33729e-19)
(-0.0583172 -0.0177571 -8.23537e-20)
(-0.000181693 3.3729e-06 1.33584e-19)
(-0.00849703 0.00737625 -3.89496e-19)
(-0.0163336 0.00758346 -6.85735e-19)
(-9.55823e-05 4.30744e-05 -4.31207e-19)
(0.00313551 -0.00226172 -4.70037e-19)
(-9.37542e-05 -1.70249e-05 -2.58258e-19)
(0.000488082 -0.000215336 1.3828e-19)
(0.000377001 -1.59073e-05 -1.87135e-19)
(0.122762 -0.145245 -3.80861e-18)
(-0.0017732 0.0046461 3.28828e-19)
(0.110909 0.0914298 -7.58041e-19)
(0.000478001 -0.000191736 -8.66417e-19)
(0.00192659 -0.00300811 1.55194e-18)
(0.000302418 -0.000293633 3.09923e-21)
(7.20268e-05 -4.94784e-05 -1.50239e-20)
(-2.70494e-06 2.46391e-05 -5.4518e-21)
(0.00273603 -0.00192161 1.76886e-19)
(-0.000229287 0.00971992 1.3884e-18)
(0.00358407 0.00174638 5.9963e-20)
(-0.00734749 0.006092 -2.00427e-19)
(-0.0014525 9.98249e-05 -1.21131e-19)
(-0.000296388 3.86783e-06 1.59677e-18)
(3.1563e-05 -0.00399673 -1.81198e-18)
(-0.000387134 -0.0354534 3.78158e-19)
(0.000292624 0.000112664 8.07178e-20)
(-0.000211441 -1.53522e-05 1.01662e-20)
(0.00120935 -0.0960061 7.29258e-19)
(0.00165595 -0.00391137 1.39845e-18)
(0.000246151 0.000939325 -1.87609e-19)
(-0.0391181 0.0386892 1.12981e-19)
(0.0093945 0.00150786 -6.96774e-19)
(-0.000346764 8.42408e-06 6.69859e-20)
(-0.000236714 -1.85149e-05 -4.70712e-19)
(0.00105411 0.00073067 -2.87064e-19)
(0.000441998 -0.00381669 -1.93362e-18)
(0.000386105 -2.3365e-05 1.07748e-18)
(-0.000327008 8.88944e-06 -1.53246e-18)
(-0.000248165 -1.84125e-05 -3.90518e-19)
(0.00300557 -0.000417033 5.86272e-19)
(-0.0010466 -0.00076902 -2.32243e-19)
(-0.00113524 4.41735e-05 1.07842e-18)
(0.00208269 -0.0188802 6.0739e-20)
(-0.00924264 0.0294246 -1.4198e-18)
(-0.000304689 7.47442e-05 -1.79782e-19)
(0.0217919 0.240884 2.10447e-18)
(0.00772797 -0.00531988 1.20275e-18)
(0.000655881 -0.000654162 1.13467e-19)
(0.00128675 -0.000808628 4.32996e-20)
(0.00168324 -0.00187105 -2.40331e-19)
(0.0398816 -0.0110956 -3.04272e-19)
(-0.00394306 0.00314562 3.08173e-19)
(0.0342984 -0.0815455 3.4998e-18)
(-0.00173069 -0.000640517 6.15004e-20)
(-0.00123087 -0.000183416 -7.82119e-19)
(-0.012809 0.018466 1.13395e-19)
(-9.29674e-05 -7.98226e-05 -9.44531e-19)
(-0.00549089 0.00864271 -1.30376e-18)
(-0.0277024 -0.110713 -1.05569e-20)
(0.00322634 -0.00148546 -7.6188e-19)
(0.000645599 -0.000720357 2.67962e-19)
(-0.136121 -0.0518146 4.40645e-19)
(0.00123103 -0.00381406 -7.47628e-19)
(0.000820226 -0.00017878 -1.03503e-19)
(-0.0021639 -0.000315465 -1.20745e-18)
(-0.0189529 -0.00284998 -4.99559e-19)
(-0.00061871 0.00121625 2.54503e-19)
(0.000779839 -0.000138724 -2.92521e-19)
(-0.000229275 -2.64731e-06 1.10838e-18)
(-0.000590336 0.00114955 2.33993e-19)
(0.0379471 0.0710032 -9.61278e-19)
(-0.0145631 0.00315713 5.83975e-19)
(0.00639782 -0.0047258 3.72903e-19)
(0.00149723 -0.00124828 -3.14103e-18)
(-0.00207088 -0.00010234 8.80196e-20)
(-0.00156079 0.000801281 1.72111e-20)
(-8.44415e-05 0.000237971 -6.91629e-19)
(0.00014952 1.50373e-05 2.63614e-20)
(-0.000224572 -1.55042e-05 -6.71856e-19)
(0.028526 -0.00711597 2.63969e-18)
(-0.0542331 0.0152575 4.70562e-18)
(-0.00129668 -0.000623481 -2.19273e-19)
(0.0031241 0.0098239 3.59086e-20)
(0.149788 0.0594094 -2.74424e-19)
(0.000217366 -0.000228439 5.2777e-19)
(-0.00116082 -0.0100842 9.85466e-19)
(-0.00249253 0.00523406 -2.83047e-18)
(0.000162362 1.11364e-05 1.62023e-20)
(-0.0213212 0.0173042 -1.71439e-18)
(0.115589 0.0455165 -2.68179e-19)
(-0.000167312 1.2899e-05 4.08486e-19)
(-0.0634117 -0.0316427 9.15333e-18)
(0.000567523 -0.000618142 -3.14253e-21)
(0.139507 -0.0862656 1.63908e-18)
(0.00201059 0.00365385 1.57856e-18)
(0.116327 -0.187829 1.86713e-19)
(-0.000320762 -0.000378781 1.70453e-18)
(-0.00126667 3.99165e-05 1.48528e-18)
(0.000311666 -0.000927684 2.95312e-19)
(0.0147435 -0.0137716 -1.11279e-19)
(0.00581675 0.00645769 1.0306e-18)
(-0.0402203 0.062188 -1.53449e-19)
(0.0293209 0.133307 -5.26143e-18)
(-0.09719 0.65031 5.48103e-18)
(-0.00592265 0.00931815 3.25523e-18)
(0.0121975 -0.0909291 -1.90162e-18)
(0.00646788 0.00694168 -2.31334e-18)
(0.000326636 3.99836e-06 -2.68026e-19)
(-0.00566482 0.00544848 -9.15802e-20)
(0.00349923 0.00864224 5.01539e-19)
(0.0168031 -0.0320434 1.03334e-18)
(0.000146401 0.00036372 8.73804e-19)
(0.0339734 0.00367323 1.10277e-19)
(-0.00108236 0.000866171 6.13003e-20)
(-0.0118231 -0.0123104 5.1293e-19)
(0.000523706 -3.67319e-06 -4.23865e-20)
(-0.000939049 0.000948308 2.83701e-19)
(-0.00141589 0.000705186 4.52687e-20)
(-0.0712683 -0.0199177 2.18368e-18)
(-0.00131946 0.000617668 1.94682e-19)
(-0.000445279 -2.20803e-05 -1.40449e-19)
(-0.000663576 0.0012966 -3.97432e-19)
(0.00062831 0.00175245 -4.39043e-19)
(-0.00179722 0.00534444 -1.32969e-19)
(-0.0002602 -0.000478775 1.32166e-18)
(-0.000131539 -0.000124696 -2.72372e-19)
(0.000171273 -0.000177624 3.95203e-19)
(0.000123585 -0.000203527 -4.19904e-19)
(-0.0912489 -0.466627 3.17747e-19)
(-0.00034111 4.25986e-05 9.82902e-19)
(-0.0537449 -0.0261673 6.47598e-21)
(0.186574 0.185096 4.40522e-18)
(-0.000326669 4.1124e-05 -2.18814e-19)
(0.000532892 -1.06054e-05 4.37421e-19)
(0.00210915 -0.00359454 -5.61379e-19)
(-0.000633192 0.000772539 3.9786e-19)
(-0.000105491 -1.02701e-05 2.75814e-19)
(0.000614706 -0.000101278 1.53071e-18)
(-0.0030695 -0.00423885 -6.54775e-19)
(0.00168346 0.0038544 -1.30135e-18)
(-0.00119035 0.00120029 2.97621e-20)
(0.000478752 0.0017738 5.84903e-19)
(0.000697909 -5.11382e-05 2.89277e-19)
(0.00180883 -0.00222838 1.36698e-19)
(0.00085995 0.000230121 1.21861e-18)
(0.00091787 0.0033925 -1.17763e-18)
(0.000645456 -8.06501e-05 -1.2498e-18)
(0.00112152 0.000202355 -1.11325e-18)
(0.0496905 0.201216 -6.60312e-18)
(0.000128736 -3.71857e-05 -1.05384e-18)
(-0.141827 -0.0855831 -3.45729e-18)
(-0.00241717 0.00334601 1.99637e-19)
(0.000361529 5.47219e-05 4.11474e-20)
(-0.000116757 -0.000115813 7.42339e-19)
(0.000818438 0.000632998 9.15864e-19)
(0.00721038 0.00192368 -7.2487e-19)
(0.00827884 0.00270676 4.03062e-19)
(-0.00110077 -0.000142752 -2.25618e-18)
(0.000919339 0.000323745 2.97346e-19)
(0.000194293 -0.000270865 -1.04968e-21)
(-0.0017212 0.000675292 -1.80676e-19)
(0.00106393 0.00026732 -2.75638e-20)
(-0.000271195 -2.91129e-05 1.69754e-19)
(0.000999607 -0.000218525 1.03326e-18)
(-0.000420821 0.000233124 9.27712e-20)
(-0.000890711 0.000939978 8.52254e-20)
(0.000234242 -2.40521e-05 -6.68545e-19)
(-0.000141726 0.000294658 -7.74243e-19)
(0.000984875 -0.000113137 -6.00779e-19)
(-0.00130095 0.00123907 3.52445e-20)
(-0.00617724 0.00599674 -6.0353e-19)
(0.000468813 1.83456e-05 4.27775e-19)
(-0.000844568 5.36623e-05 7.86419e-19)
(-0.000114697 -8.39174e-05 -6.23393e-19)
(0.000783098 -0.000109189 1.10161e-18)
(-0.00089387 0.00190984 -5.52632e-21)
(-0.000265323 5.57876e-05 1.27284e-19)
(-0.00110441 0.00201495 1.34299e-21)
(-0.00102378 0.000759606 6.42751e-19)
(0.000170386 -4.31098e-05 2.21201e-19)
(-0.00127362 0.000740136 9.60148e-21)
(0.0027018 0.01136 4.92388e-19)
(0.00037835 -5.34413e-05 -1.25596e-19)
(0.000463879 6.96057e-06 -8.20305e-19)
(-0.00011276 5.86191e-05 -2.9177e-18)
(0.0325053 -0.0037141 -1.58711e-18)
(-0.000336398 -9.23738e-05 -1.24571e-18)
(-0.00130834 -0.00011021 1.87865e-19)
(-0.0194347 0.0121395 5.98074e-19)
(0.000602793 -0.000494802 -3.84912e-22)
(-0.000642529 -0.00183378 -1.35322e-18)
(-0.0804751 -0.0192154 4.16552e-18)
(-0.00510554 -0.000335014 -1.83505e-18)
(-0.000265072 3.99874e-05 1.85284e-19)
(1.63002e-05 2.41053e-05 5.31021e-20)
(-0.042872 0.000264701 3.19437e-18)
(0.000751893 0.000727958 1.71087e-19)
(-0.0181283 0.00851499 4.52404e-18)
(-0.00131338 0.662116 2.78266e-17)
(-0.0469623 -0.111919 -1.20373e-18)
(0.0109024 0.0876072 -2.26769e-19)
(-0.000595785 -0.0016731 -1.89996e-18)
(-9.74158e-05 6.25079e-05 -1.45492e-18)
(-0.049157 -0.0208223 -2.23855e-19)
(-0.000556039 -0.000310128 -2.91665e-19)
(-0.00124922 0.000128611 -2.13226e-20)
(0.00115599 -0.0172579 -8.68145e-20)
(0.0251077 0.00772278 1.88177e-19)
(0.156958 0.101998 9.58606e-19)
(-0.000103233 -6.32351e-05 7.67794e-19)
(-0.0213851 -0.00312655 -4.52433e-20)
(-9.41538e-05 6.99384e-05 1.20364e-18)
(-0.000110916 5.24426e-05 2.37162e-18)
(0.148502 -0.148055 1.28642e-18)
(-0.00026455 -4.90469e-05 -1.52842e-18)
(0.105907 0.0262278 -1.03117e-18)
(0.00293795 -0.00102712 -2.19052e-19)
(-0.00559444 0.0311089 -3.92301e-20)
(-0.000808524 0.000114395 -2.04513e-18)
(0.00161761 0.00160286 -1.84733e-18)
(0.000805959 0.000150729 -1.27618e-18)
(-0.0685561 -0.0295248 -2.35931e-17)
(-0.102941 -0.0678587 2.13804e-20)
(-0.00128585 -0.000615729 2.4865e-18)
(0.00264023 -0.000894453 -1.91942e-19)
(-0.00447515 0.00277229 -2.5722e-20)
(-0.000935508 0.000679976 -8.98771e-20)
(0.00102965 -0.00338654 -2.51506e-18)
(-0.0176364 0.0108916 9.02939e-19)
(-0.183369 0.00105884 2.52434e-18)
(-0.000397208 -0.000301336 -6.9633e-19)
(-0.00324645 -0.00964507 9.17616e-20)
(-0.000545829 -0.000524422 -4.04403e-19)
(-0.0398797 -0.0822868 -6.7379e-19)
(-0.00347049 -0.00796836 2.54309e-20)
(-0.00260778 -0.063205 9.61324e-19)
(-0.00557234 0.00998261 -2.02018e-19)
(0.00105707 -0.00103047 -9.81847e-19)
(0.00557241 -0.00207285 1.28196e-18)
(0.0175676 -0.0238975 -1.84198e-18)
(-0.000346766 -9.21544e-05 6.75743e-19)
(-0.000269283 -4.87237e-06 3.96157e-19)
(0.000471212 -7.44518e-06 -2.09795e-19)
(0.0010427 -0.0014011 -1.0997e-18)
(-0.00122587 0.000522584 -9.92565e-20)
(0.103068 -0.114713 2.69215e-18)
(-0.00115688 0.000322483 -9.42256e-20)
(-0.0469105 -0.00994014 1.4815e-19)
(-0.0018919 0.00159289 7.92243e-20)
(0.0162386 -0.00319819 -5.40503e-19)
(-0.0155357 0.0189085 5.18037e-19)
(-9.23839e-05 0.000256573 2.28758e-19)
(-0.0162362 0.0861421 6.07978e-19)
(-0.046563 -0.0250216 1.27825e-18)
(0.000156231 0.000760417 4.25792e-19)
(0.128191 -0.180472 1.8872e-19)
(0.00500731 -0.00165023 -2.81957e-18)
(-0.0304981 -0.0022256 2.52501e-18)
(-0.0012537 0.000398754 -3.50428e-20)
(0.000546803 -0.00045158 5.72146e-22)
(0.0451001 -0.0123882 -4.76535e-19)
(0.000119252 -0.000827642 -5.97107e-19)
(-0.0920232 -0.0759776 4.21846e-19)
(3.80454e-05 0.00014155 2.82505e-19)
(0.00634882 0.0216814 1.11159e-19)
(0.000600859 -0.000259854 7.44034e-20)
(0.00875153 -0.0263542 9.91476e-21)
(0.049279 -0.0135161 -1.0348e-18)
(0.000980142 -0.000981712 3.10219e-19)
(-0.101956 -0.00575323 5.5783e-18)
(-0.000209518 -4.23772e-06 5.37804e-20)
(-0.00078114 0.00138358 7.28887e-20)
(-0.00419624 0.0112134 -2.42732e-20)
(0.191072 -0.0404997 -4.66144e-18)
(0.204853 0.116035 -6.40927e-18)
(-0.000434428 0.00229118 6.07081e-20)
(0.00057735 -0.000300561 -1.01069e-19)
(-0.00142799 -6.56964e-05 -9.39709e-20)
(-0.0347626 -0.121797 6.13859e-19)
(-0.0172647 0.654276 -3.62799e-17)
(-0.000290206 -2.23546e-06 2.22214e-19)
(0.00317735 -0.00170098 1.0544e-18)
(-0.000121572 -0.0119104 -2.74223e-19)
(-0.00136059 0.000191854 9.14185e-20)
(-0.000457051 6.40145e-05 2.42416e-18)
(0.00461139 0.00502092 5.28695e-20)
(0.0994553 0.0544199 3.76397e-18)
(-0.00490837 -0.00593497 -1.31193e-18)
(0.000253472 -0.000926846 9.94576e-19)
(-0.000113703 -9.31767e-05 1.20112e-19)
(0.000426362 0.00123461 -2.1013e-18)
(0.00113628 0.098575 4.78506e-19)
(0.140268 0.0800489 2.62412e-19)
(-0.00645559 -0.00158053 4.47901e-19)
(0.000797188 -0.000130804 -4.42514e-20)
(-0.000173243 0.000127276 -2.86283e-19)
(0.0331719 -0.027121 -1.51359e-18)
(-0.000270131 -3.10874e-05 -7.36314e-20)
(0.126003 -0.119696 4.12337e-19)
(0.00157094 0.0178183 2.06827e-19)
(-0.0362322 -0.00537892 1.54158e-19)
(-0.00641545 -0.0300844 5.5347e-20)
(0.000935321 0.0142179 5.38969e-20)
(-0.000319221 0.000920291 9.68836e-19)
(-0.000134284 0.000242687 -1.42582e-18)
(-0.000604812 0.00240321 7.36904e-19)
(-0.000576104 0.00110277 5.72636e-19)
(0.00110167 0.00367168 2.89794e-18)
(-0.000264264 -3.70696e-05 3.91178e-19)
(-0.0224158 -0.000800882 7.49627e-19)
(-0.0509586 -0.029417 -6.99703e-19)
(0.000538658 -0.000319964 3.3379e-19)
(-0.0361439 -0.0501084 -4.7078e-18)
(0.000469481 0.00118173 2.4349e-18)
(0.0841149 -0.0781668 2.37615e-18)
(-0.00042179 0.000509868 6.49008e-20)
(-0.00214872 -0.0202271 5.60736e-19)
(0.000690482 9.44387e-05 -1.22875e-18)
(0.00111137 -0.000881578 3.86383e-19)
(-0.000483397 -0.000357893 1.35588e-19)
(0.00063896 0.00471652 -2.8398e-19)
(-0.00453327 -0.00438997 -1.07084e-18)