/*--------------------------------*- C++ -*----------------------------------*\
| =========                 |                                                 |
| \\      /  F ield         | OpenFOAM: The Open Source CFD Toolbox           |
|  \\    /   O peration     | Version:  v2012                                 |
|   \\  /    A nd           | Website:  www.openfoam.com                      |
|    \\/     M anipulation  |                                                 |
\*---------------------------------------------------------------------------*/
FoamFile
{
    version     2.0;
    format      ascii;
    class       volScalarField;
    location    "650";
    object      omega_0;
}
// * * * * * * * * * * * * * * * * * * * * * * * * * * * * * * * * * * * * * //

dimensions      [0 0 -1 0 0 0 0];


internalField   nonuniform List<scalar> 
9793
(
0.0617549
0.284798
0.0602662
0.020989
1.72657
0.0218383
0.0215362
0.0207461
0.0214659
1.16918
0.0435556
0.0597689
0.021024
0.0203201
0.0228911
0.0202985
0.0206286
0.0206944
1.71734
0.0203374
0.10736
0.0221045
0.115924
0.0195221
0.0217512
0.0211017
0.0203824
0.0205598
0.0353002
0.021457
0.0283687
0.0806586
0.535419
0.0216133
0.0391019
0.638746
0.0222375
0.0220687
0.0208162
0.02084
0.0280862
0.0229084
0.0218639
0.0217287
0.0218746
0.0212444
0.0378241
0.174074
0.111329
0.0209649
0.0401476
0.048071
0.0219293
0.0214287
0.155387
0.111337
0.0213914
0.0774741
0.774094
0.0208014
0.0212907
0.0218932
0.583687
0.021649
2.25625
0.58269
0.590625
0.492942
0.0685363
0.0430991
0.12996
0.0210716
0.0210608
0.0701878
0.0441813
0.768932
0.0213805
0.0201175
0.0209227
0.0206299
0.593435
0.0210748
0.269377
0.0236744
0.025933
0.0602308
0.0206467
0.0213703
0.0216722
0.0213573
0.282059
2.22154
0.0202603
0.0678671
0.0217743
0.0259752
0.151048
0.272147
0.0202495
0.020168
0.020158
0.0214217
0.0203345
0.020332
0.0201228
0.0257398
0.0216056
0.0214053
0.0217705
0.314308
0.0213347
0.0666937
0.0213816
0.565244
0.0477407
0.0213899
0.454127
0.042721
0.0211889
0.0553861
0.311859
0.0233374
0.0212755
0.0219875
0.0216011
0.0845286
0.0310156
0.0552879
0.021023
0.0211041
0.0219432
0.0213793
0.0211002
0.0217785
0.021443
0.021361
0.0218826
0.0215379
0.0213764
0.0199498
0.0212683
0.0216856
0.0210927
0.0201609
0.0203729
0.0206234
0.185883
0.0201659
0.0202634
2.17739
1.47727
0.0219111
1.30414
0.654962
0.0202581
0.0226895
0.0207537
0.0216168
0.0201584
0.021051
0.0207448
0.0205491
0.0202309
1.67835
0.180462
0.198463
0.137955
0.0239482
0.0203366
0.0210477
0.0210782
0.525729
0.235853
0.480881
0.0215725
1.69453
0.0213692
0.0195466
0.021105
0.0249044
3.26242
0.0218932
0.0201663
0.021693
0.85792
0.0210504
0.0930807
0.0210975
0.0212461
0.0202304
0.0215849
0.0213121
0.103199
0.0720801
0.560974
0.0247017
0.0954834
0.0208904
0.446154
0.0200182
0.0214363
1.62449
0.163289
0.021116
0.0213611
0.0198866
0.30464
0.0201498
0.0242575
0.0219344
0.0271727
0.0724071
0.158624
0.0214444
0.0628521
0.0206073
0.0212417
0.833935
0.0198843
0.54826
0.0530866
0.0213142
0.0216137
0.0213155
0.022912
1.66149
0.021843
0.0202669
0.0534324
0.0375423
0.0195603
0.019536
0.0219475
0.0201617
0.0348017
0.560622
0.0213585
0.0210262
0.117409
0.0211403
0.02411
0.020267
0.0209968
0.578337
0.0210028
0.020252
0.0207337
0.0216043
0.0202596
0.0213912
0.021418
0.0229075
0.044759
0.0329244
0.0209649
0.0223209
0.0210633
0.0230953
0.0219604
0.02013
0.364304
0.0210131
0.0444786
0.0214565
0.0242714
0.0196628
0.0196674
0.0271217
1.61446
0.0214952
0.0201421
0.0200266
0.0237591
0.0213327
0.279185
0.283986
0.0211153
0.0963511
0.0213307
0.0329331
0.0215393
0.0196092
0.0218687
0.0207355
0.0310056
0.0213119
0.0214079
0.0237383
0.0209604
0.0213524
0.0213637
0.491119
0.0215723
0.0222462
0.0220555
0.0217335
0.0216733
0.0240305
0.0212289
1.48872
0.0202701
0.649549
0.505917
0.021932
0.0215754
0.0201545
0.0240811
0.0229737
0.0214542
0.656354
0.0215973
0.020144
0.0230141
0.0214486
0.021344
0.0211941
0.0197696
0.0210241
0.023431
0.0219853
0.0209478
0.112421
1.01713
0.0571763
0.0197674
3.2329
0.0217225
0.746792
0.0476147
0.02011
0.0224131
0.0463983
0.0212647
0.0232687
0.0512585
0.0207079
0.0217605
0.0214245
0.0208445
0.0205842
0.079532
0.0210942
0.0209353
1.52835
0.0211977
0.0203055
0.0197341
0.0217714
0.0207212
0.100962
0.0216353
0.0212897
0.0213627
0.0213434
0.612595
0.0214158
0.0255591
0.0195518
0.0306185
0.226119
0.0926808
0.031888
0.0217173
0.0224863
0.231237
0.021446
0.351619
0.0210777
0.02021
0.491199
0.0231334
1.35361
0.0212941
0.0367941
0.825469
0.0222423
0.0210415
0.499895
0.0238278
0.146177
0.0223429
0.0214084
0.981401
0.0212457
0.0217786
0.0221451
0.0210346
0.0203954
0.0214242
0.0221765
0.610821
0.021522
0.746961
0.0441046
0.373163
0.0376525
0.0353572
0.0207339
0.0214265
0.127269
0.0403109
0.0202786
0.0216206
1.52234
0.0200224
0.893086
0.0210392
0.022209
0.0200082
0.0281936
0.0210874
0.0241552
0.122335
0.020157
0.138522
0.0269988
0.0216853
0.0270816
0.020995
0.0215258
0.0206264
1.16168
0.0213126
0.0213536
0.0507343
0.0214068
0.0219375
0.0217332
0.020198
0.0254809
0.0210472
0.0213482
0.0199687
0.345235
0.0205322
0.346013
0.0211026
0.0977426
0.0225872
0.0211449
0.0220094
0.0215164
0.800265
0.0208538
0.178774
0.0202703
0.0210872
0.021789
1.52967
0.0297638
0.278945
0.0664122
0.0219493
0.0212353
0.0275047
0.0253369
0.0273841
0.280066
0.428185
0.0215245
0.0242074
0.0370965
0.0212752
0.0212792
0.0212571
0.0203224
0.0218137
0.27647
0.0242078
0.850833
0.0203263
0.0241597
0.0195311
0.021397
0.0221943
0.0211471
0.0276755
0.0211937
0.0228533
0.0200204
0.0213175
0.0222038
0.298485
0.0210527
0.0212361
0.509705
0.0225308
0.0216471
0.612614
0.139764
0.021717
0.0221279
0.02185
0.0222255
0.0213562
0.0220455
0.0218052
0.0209445
0.0210766
0.0209752
0.167711
0.0494876
0.0207009
0.837254
0.0275219
0.0202105
0.0215785
0.0209817
0.0598317
0.0215247
0.413674
0.0201363
0.0210047
0.0411581
0.0212392
0.0282653
0.478335
0.0237594
0.0202035
0.54365
0.0224416
0.0204942
0.021106
0.0417254
0.0208706
0.0204817
0.0212516
0.0208645
0.57995
0.0347217
0.0268206
0.0216847
0.0210793
0.0209801
0.0213732
0.0212283
0.0212638
0.0494232
0.111266
0.0200402
0.0234323
0.150392
0.021183
0.0425562
0.0257887
0.021
0.0464696
0.899571
0.0213276
0.145247
0.0196316
0.283141
0.02355
0.994492
0.0210499
0.0209852
0.0206394
0.273603
0.0227209
0.64667
0.593451
2.19693
0.0289105
0.549027
0.0273224
0.0228669
0.0264129
0.0230099
0.390856
0.0213925
0.178627
0.0199675
0.180122
0.0217768
0.0217105
0.0209624
0.162027
0.0199975
0.0206793
0.0218951
0.0221092
0.0245624
0.0210692
0.0212166
0.0211751
0.021162
1.72094
0.0209636
0.425521
1.43265
0.0209749
0.0215704
0.0244899
0.021616
0.0212575
0.0214242
0.0222718
0.0235696
0.0218692
0.0221225
0.0204603
0.0210892
0.0216444
0.0231709
0.0214173
0.0218364
0.741306
0.0212047
1.35487
0.0235276
0.0217159
0.0212224
0.0206763
0.022437
0.0229059
0.0209938
0.0204021
0.0195003
0.0210007
0.020396
0.0211577
0.0221775
0.0198584
0.0217095
0.0217269
0.0214181
0.0220756
0.0219088
0.0271314
0.0221164
0.0209616
0.0212338
0.0204927
0.0201666
0.0211686
0.020216
0.020922
0.0212123
0.0199939
0.0291823
0.0208248
0.0219581
0.0212911
0.173416
0.0210143
0.020004
0.0425566
0.019625
0.0212896
0.153035
0.0217596
0.0221171
0.0220062
0.0777853
0.0206878
0.0395519
2.25991
0.449578
0.593631
0.0212523
0.0212913
0.371955
0.0206452
0.0199841
0.0487089
0.160787
0.263354
0.0212399
0.0452117
0.021295
0.0212855
0.430296
0.0211713
0.568213
0.0206771
0.0492552
0.0209512
0.022452
0.0215986
0.163396
0.499851
0.0210608
0.0206251
0.0244592
0.0209154
0.0220747
0.0399587
2.90447
0.0210312
0.042395
0.0206476
0.435139
0.0363774
0.472452
0.285631
0.0206905
0.0244297
0.655429
0.0210142
0.0211427
0.021898
0.0208267
0.0199745
0.175757
0.0199631
0.428378
0.0223301
0.0231288
0.0428695
0.0213849
0.141692
0.564835
0.0215663
1.03164
0.024009
0.0568977
0.0199812
0.0196083
0.439412
0.0211615
0.534843
0.0209043
0.306773
0.0204135
0.22845
0.449278
0.020677
0.726913
0.0213656
0.0219531
0.0297646
1.29898
1.51907
0.0204082
0.0204166
0.0200231
0.469375
1.52812
0.022248
0.0226434
0.0479598
0.0200029
0.0209632
0.0219693
0.629644
0.0233286
0.021197
0.0206758
0.0207742
0.596846
0.174293
0.0339773
0.0204932
0.0208995
0.382415
0.0211549
0.953042
0.0348538
0.426419
0.31798
0.308637
0.020824
0.0213948
0.0225146
0.0217909
0.0233419
0.0212032
0.0448992
0.395452
0.0203658
0.472812
0.0207639
0.337716
0.0214986
0.349616
0.0225596
0.0209981
0.0210321
0.0201988
0.0282034
0.415618
0.646585
0.0212222
0.0285279
0.020501
0.0218917
0.0225803
3.17361
0.0233328
0.0565314
0.0208172
0.0247038
0.0210458
0.0198782
0.0215893
0.0209238
2.21927
0.0211276
0.0220215
0.0220979
0.0225546
0.0199723
0.0412357
0.0212807
0.0217828
0.0208388
0.020971
0.316294
0.0210284
0.0638404
0.0203673
0.0355313
0.0206581
0.588365
0.0210728
0.0662804
0.0213379
0.0211779
0.0208623
0.322661
0.320213
0.476976
1.60638
0.718284
0.0211505
0.0224165
0.272612
0.0201009
0.41149
0.377878
0.0409823
0.091886
0.0219201
0.316225
0.0225479
0.421038
0.276535
0.0219344
0.0214078
0.316128
1.47101
0.0230721
0.0221881
0.0211882
0.0223616
0.0284576
0.021132
0.0201382
0.0218362
0.0588751
0.0298279
0.0218854
0.448334
0.0208786
0.0202455
0.212627
1.49338
0.0290199
0.0217456
0.0349183
0.0204508
0.0200995
0.438802
0.0200086
0.0218454
0.317942
0.319877
0.0207581
0.568319
0.216177
0.0528594
0.140785
3.07331
0.0220021
0.336629
0.0213888
0.0208062
0.021243
0.0214136
0.0205159
1.13949
0.0207497
0.483054
0.0205795
0.0299504
0.0214554
0.0289654
0.0213033
0.0213612
0.0348897
0.0205873
0.0201394
0.0611241
0.0208356
0.0260983
0.020683
0.0200592
0.304386
1.41646
0.0328691
0.0195202
0.0195119
0.0204964
0.0209492
1.63113
0.061832
0.181717
0.0282521
0.377432
0.0212739
0.0237702
0.0229661
0.0226956
0.0895719
0.0210412
0.0209574
0.286872
0.0296816
2.70943
0.0210129
0.438039
0.432166
0.0231462
0.0318659
0.0225521
1.55206
0.0212661
0.0233572
0.334692
0.0225205
0.0210216
0.0370203
0.0213551
0.0204699
0.0209482
1.50623
0.0213775
0.0237395
0.0945839
0.0310285
0.0227141
0.0284972
0.0291144
0.598535
0.0273455
0.0201565
0.0213647
0.0217477
0.0214074
0.0210043
0.594513
0.282395
0.0225626
0.217456
0.0604162
0.506544
0.0213771
0.292597
0.0212054
0.321109
0.0536567
0.020586
1.00777
0.422457
0.0208356
0.0213661
0.021219
2.53716
0.414411
0.0241143
0.0312083
0.0310114
0.0250184
2.70419
0.280714
0.0210465
0.0213616
0.937976
0.703369
0.0210414
0.021136
0.0204383
0.0214331
0.0213185
0.023273
1.41499
0.0211563
0.0225661
0.672802
0.021514
0.0222951
0.0224995
0.750948
0.0213956
0.023647
0.0214248
0.0215568
0.0200609
0.0215856
0.0208819
0.0217774
0.468158
0.594144
0.0215357
0.0499513
0.0234032
0.0396371
0.0213157
0.0222752
0.0217086
0.0213841
0.304049
0.0213018
0.0218619
0.0241195
0.0217084
0.0199438
0.0235896
0.0211826
0.0822064
0.021351
0.0210278
1.03972
0.0210312
0.697506
0.0239423
0.0208963
0.77782
0.0230492
0.027237
0.0774288
0.0201587
0.167032
0.0209386
0.0213469
1.51591
0.698516
0.0201699
0.0213636
0.0206463
0.0214956
0.0598406
0.0216465
0.0212721
0.0216977
0.022209
0.0217081
0.0211509
0.0202426
0.0209314
0.0211732
0.542092
0.0223525
0.0199905
0.031879
0.0208758
0.726345
0.0466821
0.0275374
0.0213527
0.0211996
0.0536248
0.0220668
0.0212315
0.0213494
0.452144
0.140963
0.0213227
0.0198624
0.049212
0.0385365
0.0195739
0.418013
0.0319504
0.0212258
0.0215508
0.0213722
0.0214398
0.0239743
0.57523
0.0218799
0.060086
0.0217008
0.0234885
0.0198727
0.0212816
0.0198679
0.0198577
0.148492
0.0210225
0.0506368
0.0320988
0.0198557
0.0215958
0.0267045
0.0222306
0.021505
0.0213644
0.0216539
0.660442
0.0198704
0.0213985
0.41278
0.0217138
0.0214646
0.0210424
0.0210401
0.0214809
0.0211469
0.0214107
0.0362465
0.0224694
0.08139
0.0438243
0.019885
0.0213731
0.019875
0.0719764
0.0209837
0.0225134
0.0212288
0.0201236
0.0223617
0.0203647
0.0257409
0.021344
0.0203761
0.107498
0.420498
0.0216104
0.0215129
0.0209324
0.0672685
0.0573995
0.0213677
0.215042
0.690427
0.0218246
0.0277715
0.449897
0.0225556
0.439096
0.0319367
0.673262
0.0211587
0.0255095
0.0799494
0.0203191
0.105827
1.86363
0.0213558
1.63029
1.43336
0.0234181
0.439723
0.0199224
0.0244818
0.0369911
0.02122
0.310955
0.0199413
0.0328013
0.0495117
0.0198942
0.0391587
0.0214029
0.0217251
0.0278408
0.022709
2.47058
0.712509
0.0200821
0.022893
2.1701
0.0206854
0.0231914
0.0207844
0.468245
0.0484616
0.021243
0.0215048
0.0233283
2.7799
1.36733
0.0254292
0.0199052
0.02087
0.974526
0.111201
0.0595375
0.0219553
0.0219405
0.0238206
0.0200447
0.0219594
0.0233951
0.0219733
0.0208519
0.0234157
0.431806
0.169947
0.0209398
0.439086
0.0223621
0.116311
2.63229
0.0297137
0.723256
0.124931
0.0199334
0.0991044
0.107351
0.64499
0.153169
0.0211443
0.118915
0.337355
0.0348283
0.0231812
0.146663
0.245223
0.0210346
0.0235219
0.0230555
0.0211852
0.0523886
0.0212079
0.0229493
0.0205956
0.0199574
0.021372
0.0212731
0.0218435
0.0235844
0.318511
0.0232457
0.327291
0.0207955
0.024077
0.0214287
2.16713
1.03905
0.0211523
0.0369195
0.0215558
0.0201663
0.0212716
0.0201167
0.0210132
0.0790356
0.0214564
0.327091
0.0206459
0.0209245
0.426698
0.0219914
0.0216217
0.0211088
0.0211386
0.0391455
0.0523997
0.460999
0.69906
0.825518
0.0214081
0.0215787
0.0216311
0.0229041
0.0317826
0.0625625
1.05022
0.0209098
0.0347036
0.021789
0.327658
1.8177
0.0231938
1.39437
1.40925
0.0222036
0.0329176
0.0208722
0.0360713
0.0220502
0.0720913
0.0349643
0.0199567
1.19172
0.600239
0.0214889
0.02222
0.0216296
1.1854
0.0204612
0.0215275
0.639348
0.020782
0.719967
0.0239497
0.0229173
0.0217925
0.0215732
0.0406787
0.0211092
0.504743
0.0230508
0.0212164
0.0206964
0.0454835
0.0217713
0.634729
0.0218062
0.0232738
0.0229524
0.0547402
0.0223258
0.0212078
0.175646
0.0215436
0.0203762
0.0850492
0.177026
0.0232663
0.0204807
0.021702
0.092993
0.0460491
0.0211393
0.0233787
0.0204598
0.0803936
0.026733
0.0216686
0.0210758
0.0735733
0.0209287
0.020719
0.0213345
0.0636868
0.641884
0.0227487
0.0230927
0.0215988
0.0217517
0.423093
0.0262798
0.0217579
0.0215579
0.0209946
0.0598486
1.74102
1.83581
0.0211886
0.14123
0.0201568
0.020106
0.0224087
0.0217096
0.0338847
0.0213172
0.0283816
0.051272
2.11695
0.0229077
0.0213956
0.0214169
0.0323647
0.0205839
0.0211239
0.027155
0.021363
0.0211996
0.0216392
0.0231304
0.0200136
2.64078
0.0336971
0.0233759
0.0225855
0.0257496
0.0224447
0.0862885
0.0213176
0.0212185
0.0213892
0.0210033
0.02137
0.0208516
0.109789
0.0789396
0.0214409
0.0218182
0.0211111
0.023432
0.0219471
0.0375929
0.0217435
2.73301
0.0212692
0.0215416
0.0204266
0.0627257
0.0214034
2.20584
0.0214177
0.0213859
0.019524
1.35887
0.0224147
0.00649965
1.04335
0.0215526
0.0213938
0.0210843
0.0213527
0.0226864
0.021741
0.0233667
0.683292
0.0214508
0.0524415
0.12434
0.0225809
0.0950724
0.0213222
0.0225924
0.020942
0.0203082
0.0201672
0.0213112
0.0573954
0.0719271
0.0208044
0.740364
0.0532025
0.0212246
0.117876
0.020286
0.0268612
0.0217954
0.0209942
0.0787183
0.0213401
0.0221719
0.0227428
0.0405718
0.0594946
0.0216174
0.0209378
0.0217652
0.842123
0.369847
0.0302814
0.0243084
0.0213557
0.0213511
0.0402722
0.0213626
0.0261494
0.0246997
0.664454
0.021341
0.0295275
0.0212953
0.0215014
0.0261528
0.0268964
0.0263318
0.0217949
0.0216372
0.0240161
0.346804
0.0372491
0.0203644
0.0234274
0.0731301
0.0225819
0.0336791
0.0214696
0.0215001
0.0213049
0.0213419
0.60971
0.0467317
0.0213156
0.0832363
0.0234194
0.0244786
0.0214106
0.0213034
0.0213302
0.0205849
0.0385403
0.0227913
0.0219324
0.021748
0.0212634
0.0213432
0.367773
0.0213803
0.0213445
0.0215331
0.389587
0.106238
0.0213513
0.0210566
0.0214078
0.19658
0.021588
0.139696
0.0213509
0.0349867
0.0213466
0.0213398
0.0351269
0.0214856
0.0279026
0.0215333
0.0213738
0.0202966
0.0218589
0.139002
0.0214097
0.0217032
0.294043
0.0213084
0.021696
0.0217509
0.0213582
0.0211045
0.0216288
0.0463879
0.0207301
0.0207925
0.0209251
0.0738751
0.0230212
0.326343
0.0213748
0.0213966
0.0483393
0.352542
0.306694
0.0238885
0.0245937
0.30709
0.021352
0.433143
0.0214894
0.0964234
0.0209321
0.0200311
0.0210433
0.0195347
0.0225406
0.0208683
0.0217027
0.0203
0.589771
0.0208688
0.306139
0.0215033
0.0213461
0.0215187
0.020355
0.0215113
0.127025
0.021273
0.0211144
0.0211019
0.0213215
0.0213288
0.114845
0.860822
0.604896
0.0213412
0.0203222
0.0227658
0.0214019
0.0212543
0.0888314
0.0327463
0.0216762
0.0212981
0.252147
0.0221171
0.713553
0.444971
0.0219338
0.020264
0.0212646
0.0283896
0.737258
0.0212379
0.0211761
0.0452097
0.118151
0.0358305
0.993954
0.0212358
0.0229706
0.0228734
0.0200583
0.0215485
0.056252
0.42807
0.775036
0.0212294
0.63066
0.0215084
0.0213049
0.0233505
0.0216749
0.0234239
0.0270533
0.0211822
0.0214169
0.0212189
0.0208578
0.0199881
0.021042
0.0235428
0.143116
0.0220156
0.019527
0.019999
0.0212525
0.0216025
0.0212543
0.0194279
0.0217148
0.0217537
0.0216658
0.312217
0.0212126
0.022365
0.256573
0.0212702
0.0212177
1.93229
0.0210895
0.0213283
0.0212078
2.04754
0.021985
0.0327532
0.0215277
0.508497
0.0202823
0.0201018
0.0203763
0.0211897
0.0288214
0.0212319
0.0215251
0.0349346
0.0212635
0.267368
0.0238689
0.0263534
0.0215562
0.08132
0.0267808
0.0213271
0.021112
0.0216829
0.0214384
0.0212446
0.159385
0.0209526
0.0355506
0.021128
0.0213029
0.684359
0.0210236
1.45239
0.0631269
0.0212261
0.054962
0.0211079
0.0216487
0.0212158
0.0215412
0.0207075
0.0212446
0.0211845
0.0211963
0.0931163
0.021373
0.0209488
0.0216061
0.0207709
0.0211717
0.0211699
0.0213756
0.0204824
0.0212877
0.0211704
0.0213442
0.0211998
0.0215787
1.53769
0.02125
0.0216541
0.0290388
0.339127
0.0207616
0.0243199
0.0209522
0.0207321
0.0212176
0.0212186
1.07692
0.317898
0.0210913
0.0218548
0.325043
0.0213384
0.252658
0.680961
0.0200449
0.860657
0.0213753
0.0603723
0.0227131
0.0448379
1.56475
0.64979
0.0209651
0.0210657
0.0208732
0.0229292
0.0454675
0.021767
0.0635115
0.665115
0.0213251
1.83852
0.0406895
0.0215345
0.0203666
0.025967
0.0261719
0.0211995
0.0209847
0.0213818
0.0231021
0.023056
0.0233674
0.0230288
0.0232039
0.562661
0.0210149
0.0211248
0.0211227
2.64642
0.0233441
0.0234623
1.05007
0.00968226
0.0313126
0.0209944
0.023382
0.0211748
0.0284344
0.0213247
0.021669
0.0412373
0.0225438
0.0571313
0.0199781
0.292525
0.0278892
0.0711359
0.293639
0.44826
0.0210693
0.0213112
0.0212987
0.0902141
0.0213636
0.0208657
0.0212915
0.024696
1.0721
0.278048
0.0234314
0.020916
0.0143817
0.0321488
0.283195
0.0400584
0.0378572
0.0309866
0.0169845
0.309307
0.021094
0.0211074
0.0210784
0.0460066
0.0206961
0.0373787
0.0211571
0.0211817
0.0211015
1.92224
0.0211408
0.021078
0.0210133
0.029567
0.020919
0.0211207
0.0202744
0.0227605
0.812592
0.0237601
0.0229352
0.0214141
0.236413
0.0246121
0.0206281
0.0213034
0.258486
0.151008
0.0213269
0.0213315
1.6176
0.0210543
0.020966
0.0209292
0.0212078
0.0298445
0.0209781
0.0213902
0.0210782
0.0213799
0.0211338
0.0210882
0.0210435
0.0211507
0.0211732
0.485643
0.0212213
0.0206482
0.0286501
0.0354954
0.0268094
0.0479138
0.0209474
0.0577855
0.0212688
0.0291923
0.0210482
0.0365049
0.0210331
0.0211987
0.0200912
0.0336219
0.0232937
0.0211575
0.166503
0.0211027
0.0200854
0.0211012
0.0217584
0.0249808
0.0209225
0.567534
0.0213602
0.0045007
0.0307691
0.0211695
0.0275483
0.0209841
0.0205575
0.0211543
0.5352
0.0256792
0.0641434
0.0321382
0.0791712
0.0240894
0.0340776
0.0234103
0.0212087
0.0198716
1.96644
0.0333301
0.0209583
0.0278474
0.0208683
0.0209755
0.418619
0.0204483
0.0211734
0.0469621
0.0347374
0.51282
0.0211478
0.0209953
0.0224847
0.0209101
0.0212999
0.109097
0.0210875
0.1555
0.539265
1.56111
0.0212799
0.0216388
0.0210908
0.0201408
0.0154945
0.0214608
0.0213732
0.0255454
0.020653
0.0227907
0.0211843
0.0217008
0.0233227
0.994238
0.0231522
0.0213531
0.15428
0.324301
0.0211116
0.0332685
0.0213307
0.021163
0.021159
0.0209383
0.023426
0.0219252
0.0369469
0.0210642
0.0234581
0.0213885
0.0197843
0.0209867
0.0211303
0.0230467
0.0207932
0.0210577
0.0214385
0.0212142
0.688087
0.021339
0.021505
0.0382331
0.0215948
0.0201768
0.268667
0.690909
0.727292
0.0602545
0.0491924
0.0204874
0.0215882
0.411939
0.705525
0.105419
0.344504
0.369332
0.0213788
0.316245
0.555461
0.0212997
0.0352394
0.0215686
0.691176
0.0149984
0.71987
0.0215481
0.0209567
0.0342522
0.0211252
0.0211735
0.30857
0.0890022
0.0212643
0.0213617
0.0210339
1.16357
0.0210138
0.0209995
0.0211954
0.0209763
0.0209762
0.0372806
0.0216128
0.0209287
0.021183
0.0244088
0.50343
0.830433
0.0211671
0.0210422
0.0218501
0.0211805
0.0209575
0.0211098
1.5922
0.0211123
0.030658
0.0211045
0.0212322
0.0202641
0.02119
0.640948
0.0746383
0.0205047
0.0213527
0.274248
0.728031
0.247492
0.637033
0.0211585
0.0244188
0.0210635
0.0197682
0.021027
0.0200963
0.0210241
0.0211933
0.021347
0.103958
0.0200574
0.339546
0.798029
0.0201049
0.0715374
0.0289049
0.021517
0.0210887
0.0211913
0.0212427
0.0209775
0.311529
0.019905
0.0210103
0.638274
0.0210522
0.0212281
0.0209576
0.0396016
0.0213277
0.0213207
0.889325
0.0206405
0.0205723
0.0210181
0.0216924
0.0211925
0.0196025
0.0210527
0.0201004
0.730848
0.0234205
0.020985
0.237825
0.0198386
0.0211609
0.0221912
0.357547
0.528656
0.019998
0.0227184
0.0212461
0.0210871
0.0210225
0.0210583
0.244885
0.300491
0.0211479
0.0215239
0.0133183
0.0209389
0.0210057
0.0231961
0.0238079
0.897406
0.0211589
0.0222285
0.676797
0.0210696
0.0234193
0.0977452
1.29092
0.0207513
0.0209121
0.0206429
0.0210339
0.0209388
0.272629
0.0209959
0.677404
0.254394
0.0216507
0.0233735
0.30545
0.0210386
0.537125
0.0514252
0.0454898
0.0227685
0.0211397
0.0220154
0.324282
0.0207964
0.0964057
0.0209199
0.0200088
0.0200503
0.0200886
0.0210817
0.748598
0.0213135
0.452525
0.271127
0.0592897
0.573358
0.0198083
0.0213415
0.0221529
0.362604
0.0211339
0.33544
0.0211267
0.0199986
0.0208996
0.265665
0.0208916
0.0248937
0.360453
0.0210058
0.309582
0.021493
0.0358377
0.0418409
0.0213385
0.0205613
0.0313215
0.0559581
0.0210802
0.0221733
0.0201461
0.0212414
0.020836
0.247778
0.0209474
0.0205123
0.028017
0.020065
0.313069
0.0213558
0.021155
0.0210368
0.189571
0.020928
0.0208591
0.843314
0.0307942
0.546979
0.0213105
0.0200757
0.0272719
0.471252
0.0534501
0.260299
0.0229157
0.0230921
0.0212995
0.0212101
0.0234281
0.0214734
0.0210153
0.0203451
0.0851912
0.0234858
0.0208901
0.0196
0.0212901
0.0205501
0.0213359
0.0207981
0.651805
0.341013
0.02405
0.104152
0.370477
0.0205989
0.0209097
0.0216121
0.0296793
0.0201843
0.0213627
0.0208791
0.0209471
0.0210954
0.040918
0.0211344
0.59522
0.0212255
0.0208207
0.0331466
0.0281619
0.021433
0.0208409
0.020815
0.834804
0.332575
0.0212835
0.0201769
0.0211837
0.0209003
0.021187
0.0209662
0.11161
0.0209711
0.0208131
0.0321064
0.0204345
0.0542599
0.0234355
0.0209769
0.0212261
0.322717
0.683126
0.166229
0.695775
0.0233541
0.0219199
0.0215296
0.0212199
0.0257965
0.0207906
0.232972
1.09693
0.0217806
0.0315157
0.21116
0.0208144
0.344256
0.0261
1.31935
0.0214106
0.020753
0.020769
0.0214924
0.0210357
0.605336
0.415196
0.26626
0.0210651
0.0208697
0.0208238
0.504905
0.0258379
0.0361904
0.0208465
0.021258
0.240279
0.0209678
0.153408
0.645911
0.0208386
0.0211887
0.0197469
0.0210786
0.291346
1.28326
0.0208245
0.0209894
0.0206251
0.313339
0.0211156
0.0227171
0.140239
0.0366083
0.737494
0.0464699
0.799094
0.0212085
0.0249401
0.0214286
0.0210039
0.0222451
0.000374965
0.0204243
0.0210218
0.469055
0.0211148
0.0204333
0.331241
0.0202907
0.0209955
0.446791
0.246535
0.0200167
0.0201561
0.0352942
0.0411032
0.0309026
0.762436
0.0245738
0.871479
0.0209525
0.0229307
0.196359
0.527691
0.674694
0.0209492
0.915298
0.0636505
2.60064
0.0205729
0.0209932
0.0201441
0.021128
0.0229068
0.0207395
0.0400216
0.020823
0.0218847
0.0211512
0.416162
0.0212969
0.0328978
0.0230855
0.0242587
0.0202494
0.0227022
0.0205159
0.0197164
0.0283921
0.0211415
0.0216652
0.0212027
0.0293132
0.0219166
0.0214852
0.672845
0.0207605
0.400882
0.0234197
0.0213333
0.0212883
0.50508
0.0212686
0.0208576
0.0211652
0.287578
0.0212794
0.0282926
0.128678
0.0242028
0.0618551
0.0208119
0.0200034
0.569937
0.0301198
0.340718
0.290466
0.0208233
0.332746
0.423676
0.0376722
0.0206433
0.314889
0.318246
0.0207416
0.0212009
0.0198111
0.0504629
0.411758
0.312479
0.408357
0.0207695
0.0206291
0.0214767
0.0201364
0.0205738
0.0234619
0.0217015
0.0203202
0.207276
0.0222076
0.0212543
0.0251181
0.129248
0.191572
0.0220135
0.0227082
0.0208521
0.860878
0.0207555
0.154067
0.0212803
0.03026
1.94404
0.0216948
0.708861
0.0203666
0.0200074
0.0207717
0.0208013
0.0206111
0.0208006
0.0197789
0.81521
0.0234254
0.0209566
0.385676
0.0208396
0.0213746
0.0206067
1.01579
0.0208193
0.0218604
0.177166
0.0606785
0.0208812
0.0197965
0.944528
0.0210879
0.35548
1.91225
0.0213656
0.0214641
0.0262774
0.0143881
0.476759
0.0201138
0.0206058
0.022101
0.0262812
0.0223523
0.293476
0.0784164
0.0205264
0.0215533
0.0265831
0.0216025
0.0592508
0.183468
0.0205166
0.42314
0.0756128
0.021254
0.0208898
0.0208455
0.020822
0.0206164
0.0209577
0.0207182
0.0219667
0.0431369
0.0225161
0.0208903
0.0224495
0.0232733
0.0205507
0.0206846
0.0922059
0.021721
0.0229677
0.0205384
0.0217062
0.0205159
0.0199854
0.631584
0.0212934
0.0210415
0.0477517
0.442943
0.103281
0.0208476
0.523804
0.0213022
0.0838303
0.221306
0.0215408
0.350967
0.0206509
0.020255
0.527504
0.0208135
0.0398958
1.54069
0.200075
0.023446
0.198272
0.0213628
0.0207978
0.0217296
0.0206171
0.361371
0.0162837
0.0208352
0.507993
0.831886
0.0197314
0.0206304
0.0434255
0.0305044
0.0348547
0.0260618
0.208889
0.435584
0.0211161
0.69182
0.50371
0.0220036
0.378451
0.0231942
0.407422
0.0197606
0.31691
0.215196
0.0198853
0.62532
0.652131
0.040115
0.0196139
0.00835646
0.020354
0.0206391
0.123513
0.78911
0.0206506
0.0209115
0.0303381
0.01986
0.0212967
0.0207633
0.435871
0.0958788
0.0217426
0.0213276
0.206798
0.155085
0.672541
0.328587
0.0205233
0.323175
0.0210055
0.370639
0.0234848
0.020385
0.667965
0.021383
0.0218033
0.0213037
0.303029
0.0210246
0.02107
0.0201882
0.0212019
0.0204343
0.0214395
0.966134
0.527604
0.0205614
1.13051
0.0624447
0.0202764
0.0205273
0.4834
0.23543
1.12629
0.364086
0.68109
0.0205279
0.02109
0.18559
0.0230985
0.286616
0.0261368
0.020594
0.0211226
0.0203406
0.0198297
0.0205515
0.0280943
0.020539
0.345757
0.020869
0.0213001
0.0511464
0.0197714
0.0270607
0.90439
0.020792
0.0207495
0.0209198
0.025501
0.0196146
0.020102
0.171494
0.109265
0.0215831
0.0215387
0.0253278
0.0204943
0.0207897
0.021202
0.721028
0.185627
0.369167
0.510332
0.0252895
0.0198597
0.0715177
0.0209817
0.0250861
0.0196189
0.0196212
0.0225036
0.02078
0.38616
0.174951
0.0229766
0.488768
0.026444
0.670824
0.322231
0.020006
0.0499021
0.0224794
0.029904
0.0212358
0.0204115
0.0200789
0.0254627
0.659994
0.569772
0.432269
0.0209382
1.67801
0.0205495
0.0579589
0.561408
0.0204224
0.0209568
0.0207854
0.909111
0.305116
0.0215139
0.0196093
0.283999
0.0209505
0.327148
0.0213024
0.0206164
0.381912
0.310918
0.0204699
0.0195261
0.0206551
0.0233148
0.0212629
0.434791
0.0206777
0.0219645
0.0226546
0.0212998
0.0208125
0.30873
0.0337461
0.0213295
0.0212695
0.02152
0.0205608
0.0204462
0.0274862
0.39338
0.0208285
0.0263619
0.0207909
0.0213272
0.0213131
0.0210601
0.278231
0.29908
0.022358
0.0995418
0.0207262
0.0197016
0.0208119
0.020969
0.758205
0.0215284
0.125674
0.0206962
0.238034
0.0212346
0.0470239
0.139557
0.0201936
0.0208035
0.0326662
0.0309565
0.30814
0.349058
0.213406
0.281873
0.0234153
0.0211592
0.351093
0.0207288
0.302364
0.019953
0.0555893
0.0242426
0.0207901
0.0205852
0.0208294
0.12782
0.30971
0.0208284
0.0624211
0.0211648
0.0371537
0.0204376
0.0229673
0.0309294
0.0204018
0.0533082
0.0253669
0.0201455
0.384269
0.0722867
0.7915
0.0204242
0.278212
0.020432
0.0201521
0.173116
0.0204115
0.685364
0.0199734
0.0207743
0.0204466
0.0233348
0.0382636
0.0207179
0.301643
0.0197807
0.0235587
0.0672989
0.0205654
0.254178
0.0379616
0.0272319
0.0940524
0.020843
0.0205057
0.535877
0.0204224
0.0203203
0.0204445
2.27393
0.354997
0.468812
2.03674
0.0200616
0.0209877
0.020721
0.170469
0.020628
0.275119
0.296506
0.0212061
0.0633988
0.318107
0.204528
0.0203306
0.0201694
0.0209473
0.0212164
0.0831905
0.514182
0.0202765
0.0207558
0.0206625
0.424193
0.0260939
0.0205214
0.347091
0.0209441
0.0211411
0.0198123
0.0210356
0.0710546
0.0311331
0.0204018
0.411262
0.188445
0.0199082
0.431713
0.0205621
0.0208621
0.0579976
0.0203098
0.508904
0.0198501
0.0219371
0.775248
0.0197588
0.0200452
0.0211098
1.04227
0.0229933
0.307277
0.12103
0.0212533
0.0232104
0.050088
0.020475
0.947657
0.0438382
0.020606
0.164577
0.171922
0.0329954
2.15835
0.0285559
0.0203202
0.433226
0.0885634
0.134603
0.3535
0.0204374
0.020253
0.0207113
0.642158
0.0202414
0.0200982
0.0284275
0.0215979
0.0211896
0.0203109
0.0208005
0.0202306
0.0202241
0.0308591
0.020794
0.328106
0.208158
0.0241078
0.0227585
0.0205967
0.020331
0.202648
0.17734
0.75374
0.451578
0.020472
0.0206408
0.0312456
1.5084
0.341221
0.020353
0.344737
0.283592
0.0199388
0.0297701
0.0380318
0.0200972
0.0208483
0.0203393
0.0205512
0.0200514
0.0266086
0.643787
0.0205074
0.317577
0.021186
0.026478
0.0208794
0.0212818
0.0320175
0.0456485
0.0242353
0.0202897
0.0198433
0.0202306
0.02022
0.252041
0.167449
0.195036
0.0572312
0.360587
0.0224837
0.0202417
0.00612162
0.0763192
0.0211315
0.333465
0.021798
0.0197552
0.0286432
0.677157
0.0207061
0.0216628
0.0570806
0.571284
0.0492574
0.0202213
0.0234179
0.0206751
0.327088
0.0206209
0.0702434
0.0518566
0.0388021
0.0405219
0.0322625
0.0223547
0.0273266
0.0208819
0.0202285
0.0203936
0.0208125
0.35784
0.0205831
0.0205847
0.0208228
0.0205975
0.0201282
0.0293794
0.281604
0.0723378
0.0201424
0.719245
0.375479
0.0565096
0.0204208
0.0202365
0.0207424
0.0201164
0.109829
0.0261885
0.0202197
0.038382
0.0205396
0.328739
0.0424673
0.020573
0.869046
0.0847697
0.0203107
0.331356
0.327082
0.0341135
0.020426
0.0326723
0.231197
0.0196173
0.0204752
0.419464
0.0215376
0.0206611
0.359033
0.0210409
0.0202981
0.0204584
0.0202862
0.255691
0.020118
0.0202758
0.31511
0.257271
0.0204348
0.0207109
0.328077
0.0289
0.0204953
0.0227842
0.020345
0.90623
0.0754772
0.0214379
0.0201679
0.678466
0.627891
0.0207681
0.0200556
0.240458
0.0209207
0.0201315
0.750146
0.0208797
0.127313
0.02044
0.41821
0.27406
0.0380134
0.0479929
0.0203797
0.02814
0.0205361
0.0218856
0.33819
0.0201069
0.0366151
0.0202214
0.391428
0.0206582
0.0202983
0.0199514
0.0204155
0.0201461
0.0200693
0.0461053
0.021332
0.053215
0.0219344
0.0197525
0.0221398
0.124216
0.0205185
0.0360042
0.0202212
0.0210083
0.612413
0.021601
0.391585
0.0233545
0.0370268