/*--------------------------------*- C++ -*----------------------------------*\
| =========                 |                                                 |
| \\      /  F ield         | OpenFOAM: The Open Source CFD Toolbox           |
|  \\    /   O peration     | Version:  v2012                                 |
|   \\  /    A nd           | Website:  www.openfoam.com                      |
|    \\/     M anipulation  |                                                 |
\*---------------------------------------------------------------------------*/
FoamFile
{
    version     2.0;
    format      ascii;
    class       surfaceScalarField;
    location    "650";
    object      phi;
}
// * * * * * * * * * * * * * * * * * * * * * * * * * * * * * * * * * * * * * //

dimensions      [0 3 -1 0 0 0 0];
oriented        oriented;


internalField   nonuniform List<scalar> 
14516
(
0.350019
-0.26008
-0.0901768
-0.674863
0.387461
0.287381
0.235637
0.114122
0.442001
-0.00243348
-0.441083
0.000598957
0.302221
-0.302783
0.242273
-0.518563
0.27597
0.393101
-0.6477
0.252962
0.126939
0.4346
-0.561988
0.404784
-0.373166
-0.0314228
0.278874
-0.278281
0.264241
-0.0228389
-0.241398
0.229992
-0.386076
0.15607
-0.155554
0.596252
0.615173
-0.383941
-0.231247
0.613598
-0.616268
-0.413952
0.657918
-0.244033
0.133307
-0.527308
0.394086
0.554547
-0.421561
0.25669
-0.302735
0.0460355
0.201204
0.436261
-0.273092
-0.163136
0.404567
-0.21222
-0.19197
0.263328
-0.537803
0.274414
-0.303824
-0.304997
0.367806
-0.55872
0.190619
0.464863
-0.621731
0.419277
-0.664713
0.245356
0.676216
-0.452393
-0.223785
0.0582102
-0.225639
0.167318
-0.00978826
0.41494
0.380326
-0.0333394
-0.347267
0.597708
-0.334531
-0.327945
0.570254
-0.242535
-0.593978
0.60012
-0.00645602
-0.259114
0.0621485
0.196949
0.241721
-0.463922
0.222193
0.570245
-0.178211
0.223415
0.181535
0.241744
0.31526
-0.557972
0.685784
-0.35819
-0.327819
-0.0255677
0.405669
0.0759736
0.534977
-0.557051
0.0300738
0.525542
0.677186
-0.365317
-0.313208
0.0387003
-0.597379
0.493999
-0.200886
-0.638719
0.308132
0.330546
0.434535
-0.319187
-0.115111
-0.409677
0.405668
0.261159
-0.199054
0.285658
-0.182255
-0.103323
-0.179139
0.44916
-0.270069
-0.227266
-0.16234
0.38948
0.421553
-0.201199
-0.220295
-0.181681
-0.208721
0.39031
0.286483
0.218869
0.0671494
-0.210057
0.142926
0.317622
-0.486066
0.168129
-0.264022
0.505422
-0.668814
0.444782
0.223605
-0.233326
0.458736
-0.225398
0.454566
-0.0541879
-0.400379
-0.566914
0.0813292
0.482691
-0.279663
0.314205
-0.610881
0.318596
0.292239
-0.0454867
0.499931
-0.343824
-0.0839631
0.427822
0.383989
-0.154041
0.296332
-0.0319881
0.224878
0.196752
-0.496771
0.606353
-0.109578
0.320383
-0.538933
0.219018
0.24468
0.333539
-0.578204
0.389876
-0.128815
0.540033
-0.222732
-0.580853
0.273817
0.306818
-0.514811
0.608018
-0.0932271
0.223377
-0.592979
0.369668
0.210577
-0.570852
0.36025
-0.310272
-0.300677
0.240401
-0.603389
0.362774
-0.400117
0.468142
-0.0680334
-0.732763
0.355139
0.377529
0.398735
-0.424428
-0.659638
0.33532
0.324221
-0.371373
0.582025
-0.528292
0.268884
0.259265
-0.193626
-0.305361
0.498704
-0.271243
0.616384
-0.34551
-0.270055
-0.404827
-0.379841
0.199068
0.180838
-0.185736
-0.348696
0.534275
0.339573
0.258006
-0.426933
-0.339529
-0.393329
0.213884
-0.395487
0.121058
-0.5212
-0.529414
0.343466
0.723135
-0.292512
-0.430783
0.397157
0.325793
-0.275321
0.616628
-0.341625
-0.191069
0.533765
-0.343018
0.345631
-0.536993
0.137165
-0.652022
-0.0408677
0.439617
0.0521753
-0.357523
0.437971
-0.643096
0.204271
0.29011
-0.469576
-0.642906
0.421392
0.221552
-0.540838
0.044068
-0.43331
0.271913
0.161594
0.266121
0.192836
-0.407322
0.133209
0.274011
0.160279
0.125458
-0.294639
-0.530321
0.281814
0.248264
0.223058
0.166713
0.578533
-0.338386
-0.251415
0.590715
-0.465853
-0.177017
0.042676
0.441066
-0.483734
0.304956
0.20427
-0.510222
0.432317
-0.190259
-0.449334
0.217511
0.231859
0.17324
0.263057
0.0698622
-0.224334
0.154435
-0.323262
-0.336474
0.576055
-0.352696
0.0637998
-0.417761
0.353848
-0.70429
0.485338
0.218938
-0.254609
0.372298
-0.30844
0.605354
-0.445644
-0.159761
0.368524
-0.378255
-0.518661
0.214187
0.304262
0.0048648
-0.574246
0.445567
0.230333
0.521821
-0.257752
0.392719
0.228493
-0.621278
0.481827
-0.177597
0.337531
-0.517537
0.179833
0.683947
-0.311585
-0.373847
-0.698889
0.294418
0.404454
0.266997
-0.650937
-0.60442
0.370269
0.234094
-0.634107
0.327596
0.306482
-0.379792
-0.319128
-0.165487
0.515497
-0.350276
-0.225829
-0.153948
-0.329951
0.248784
0.0811444
-0.354036
-0.350269
-0.0991834
-0.230828
0.456158
-0.177306
-0.503415
0.337651
-0.375041
0.417723
0.682625
-0.324368
-0.358346
0.514243
-0.176875
-0.752265
0.372323
0.280693
0.402007
-0.370926
0.497554
0.32021
0.356039
-0.616009
0.415076
0.200903
-0.321701
0.280978
0.0408625
0.200933
-0.574641
0.373673
0.232223
-0.505504
-0.303441
-0.189626
-0.133932
0.323596
-0.215907
0.635132
-0.610064
0.273932
0.336007
0.0533341
-0.457179
0.402888
-0.507931
0.210195
0.297677
-0.377945
0.578813
-0.345894
-0.162242
-0.483746
0.239391
0.244501
-0.0648956
-0.249985
0.216582
0.362817
-0.579421
0.585864
-0.281871
-0.304171
-0.0419114
0.230018
-0.188036
0.0875981
0.0616342
-0.149207
-0.183422
-0.125694
0.309267
-0.355248
-0.149883
0.273795
-0.532603
0.2585
-0.215819
0.536398
0.227774
-0.16065
0.327729
0.257971
-0.497845
0.302088
0.194769
-0.398402
-0.217636
-0.235668
-0.247946
-0.404416
0.480068
-0.076353
0.318487
0.116305
-0.265491
-0.167636
-0.389173
-0.248506
0.206765
0.0821092
-0.290636
0.208512
0.558066
-0.342781
-0.215503
0.256674
0.199446
0.540048
-0.147401
0.0223909
0.346176
-0.369243
0.333234
0.0360268
-0.375734
0.166833
0.173626
0.290272
-0.464088
0.460095
-0.246251
-0.477686
0.614837
0.474048
-0.639893
0.337884
0.302022
0.388209
-0.428896
-0.259453
0.360783
-0.10088
0.334308
-0.124898
-0.20944
0.486033
-0.167225
-0.440467
0.121404
0.182617
-0.409657
0.271413
-0.189316
0.437639
0.244894
0.585384
-0.37398
-0.211372
0.499835
-0.226279
0.0690267
-0.546721
0.29621
0.112499
-0.408802
-0.344395
0.200869
0.143193
0.498038
-0.344721
-0.153599
-0.209915
-0.584472
0.17907
0.65478
-0.299722
-0.0881968
-0.333407
-0.185491
0.213321
0.326053
-0.539581
-0.178876
-0.165814
-0.256017
0.0959914
0.160117
-0.678843
0.375021
-0.62211
0.317098
-0.315553
0.13239
0.612625
-0.161795
-0.450927
0.0830028
-0.227288
0.144333
-0.111859
0.408038
-0.302891
-0.203925
0.505527
-0.178216
-0.358757
0.536119
0.397323
-0.183396
-0.648343
0.422102
0.225816
-0.0472868
0.435781
-0.620483
0.30317
0.31729
-0.55356
0.353905
0.198884
0.202892
-0.530844
-0.338245
0.541661
-0.203888
0.183813
0.331431
0.645548
-0.211377
0.325945
0.188075
-0.345829
-0.149588
-0.444639
0.416698
-0.2111
-0.205621
0.0983351
-0.282152
0.183902
0.299536
-0.139177
-0.2362
0.0933715
0.142877
-0.329287
-0.182331
0.510633
-0.426977
0.243214
0.184039
0.177831
0.311837
-0.490311
0.274312
-0.175917
0.518724
-0.354255
-0.164838
-0.666657
0.318417
0.348284
-0.571564
0.547271
0.0243107
-0.516847
0.119282
0.180336
0.427688
0.176903
-0.604692
-0.339109
0.149513
-0.482724
-0.0345719
0.5173
-0.699626
0.216922
0.146403
0.187878
0.364609
-0.0313495
-0.402553
0.47875
-0.0767857
-0.258752
-0.407873
0.600978
-0.387994
-0.213137
0.105852
-0.317975
0.212034
0.499813
-0.317149
-0.182799
0.554243
-0.497132
-0.0570963
0.508556
0.0456983
-0.244012
-0.460301
0.195014
0.618913
-0.34593
-0.273989
-0.166292
0.505517
-0.179865
-0.596654
0.193802
0.402862
0.553936
0.0143963
-0.569533
0.244136
0.441425
0.356275
0.141551
0.198122
0.218536
-0.0279775
-0.228166
0.256179
-0.676672
0.442958
0.232211
0.272774
0.186991
0.217277
-0.287907
-0.242614
-0.460776
0.181556
0.278466
0.20384
0.275608
0.344769
-0.620415
0.3865
0.218785
-0.382552
0.16664
0.21606
0.213137
-0.240994
0.341177
0.233138
-0.574996
0.350732
-0.436574
0.0855964
-0.29033
0.416781
-0.344795
-0.0716738
0.209909
-0.401912
0.19228
-0.101577
0.538787
0.386407
-0.629336
0.241685
0.609684
-0.484279
-0.125369
0.29621
-0.190403
0.348869
-0.311447
-0.0373512
-0.312044
-0.192277
0.504029
0.384735
0.0322552
0.634712
-0.357899
-0.278005
0.477065
0.132654
0.348743
0.000201326
0.256392
-0.405786
0.149476
0.132434
0.234551
-0.366986
0.277611
-0.549306
0.331437
-0.246887
-0.277468
0.524054
0.129655
0.196331
-0.325988
0.037124
-0.296232
-0.252967
-0.283201
0.535915
-0.329992
0.0127502
-0.239423
0.2267
0.608797
-0.275253
0.647739
-0.578708
0.144763
-0.0571643
-0.379666
0.161951
0.217944
-0.335378
-0.150996
0.371408
-0.148539
-0.392121
-0.184881
0.576913
0.184679
0.157115
0.192295
0.292462
-0.567905
0.388714
-0.435714
0.296313
-0.163616
-0.132713
-0.339021
-0.249934
0.588657
0.277088
0.247393
-0.364674
0.386637
0.596815
-0.571501
-0.02555
0.0858648
-0.538283
0.0932118
0.203934
-0.297259
0.53924
-0.211409
0.268599
-0.521985
0.396195
-0.397691
-0.251064
0.281586
0.376268
0.61317
0.296833
0.0647488
-0.36119
0.306068
-0.197432
0.190987
-0.414466
0.223488
-0.370891
0.021503
0.349065
-0.146772
-0.266879
0.41363
0.218605
-0.0602005
0.355358
-0.294945
-0.400721
0.238347
-0.28572
-0.126067
0.411805
-0.405543
-0.0185051
-0.189473
0.207823
0.390575
-0.165658
0.0847603
0.143007
0.182541
-0.201217
-0.139122
0.436263
-0.494982
-0.0734135
0.568075
0.364058
-0.0926509
-0.370338
-0.298822
-0.538293
-0.0332771
-0.266888
0.544165
0.0754214
0.537109
0.433738
-0.223524
-0.0619346
0.450857
0.211525
-0.198741
0.00745542
-0.378607
0.217093
-0.134085
-0.328014
-0.135938
-0.501985
0.225524
0.27647
-0.332862
0.529345
-0.196331
0.282136
0.0963539
-0.265785
0.169443
-0.260465
-0.220923
-0.205798
0.131763
-0.388414
0.256926
-0.500449
0.250977
0.524382
-0.183441
-0.370746
0.155614
0.215474
0.574179
-0.59894
0.0246291
0.164367
-0.522666
-0.383204
-0.268925
-0.446397
0.225833
-0.31801
0.25771
0.407946
-0.0806899
-0.326955
-0.208182
0.202659
0.594195
-0.229118
-0.365163
0.124617
-0.0872394
-0.16868
0.245579
0.333292
-0.578838
-0.686493
0.459235
0.226815
-0.017695
-0.347306
-0.159643
-0.150912
0.310586
0.259242
0.334869
-0.27491
-0.345594
0.346848
-0.121539
-0.22525
0.465114
-0.369978
-0.0950774
0.390246
0.210581
-0.0375721
-0.369826
0.123329
-0.483028
-0.222592
0.617495
-0.227407
0.189628
-0.332989
0.143246
0.374555
0.164853
0.253299
-0.156854
-0.286865
-0.321463
-0.000803356
-0.537076
-0.543384
0.297127
0.246008
-0.191429
-0.316957
-0.226688
-0.606022
0.338723
-0.350582
-0.360816
-0.243656
-0.249515
-0.0788737
0.328357
0.379052
0.239016
0.326342
-0.193879
0.114053
0.148007
0.249705
-0.397312
0.20388
0.314491
-0.212792
-0.191288
0.606293
0.352352
-0.122317
0.556074
-0.0498282
-0.507787
0.0211999
0.305189
-0.40079
0.637303
-0.236571
-0.638696
0.186606
0.451964
0.637239
-0.451824
-0.186921
-0.382452
-0.22772
-0.509698
0.200176
0.309649
0.473295
-0.197563
0.566143
0.554037
0.0225686
-0.577985
0.340212
0.0680499
0.229994
0.30972
0.342357
0.215481
0.19648
0.194129
-0.614364
-0.300317
0.353459
-0.20845
0.192476
0.272759
0.247114
-0.280605
-0.165852
0.334055
-0.168166
0.181414
0.304932
0.115726
0.0554504
-0.384099
0.327243
0.447473
-0.132793
-0.31467
0.166777
0.185599
0.32486
-0.135425
0.508507
-0.372698
-0.119775
0.492364
0.399944
0.23367
-0.219643
-0.307299
0.526411
0.0658962
0.151214
-0.306579
0.509932
0.400235
0.215865
-0.190361
-0.308486
0.163113
0.370289
-0.108967
0.553278
-0.410556
0.190713
0.219554
0.0788363
0.174594
0.27294
0.22666
-0.351256
0.513993
0.0310883
0.265034
0.625362
-0.262558
0.0857251
0.514092
0.644044
-0.317386
-0.326675
-0.203339
0.143309
0.304276
0.202982
-0.506793
0.286598
-0.629697
0.395612
0.233942
-0.416912
0.496168
-0.479891
0.189889
0.289782
-0.0946826
-0.371139
-0.324185
-0.353887
-0.324183
0.377808
-0.178436
-0.223204
0.378578
-0.440675
-0.196952
0.306946
-0.361332
-0.328148
0.497233
0.0768672
0.523435
-0.0958447
-0.209364
0.365414
-0.276257
0.283681
-0.262541
0.00278851
-0.538138
0.53273
-0.284817
-0.292595
0.576466
0.184329
-0.527418
-0.280092
0.179139
-0.509217
-0.256689
0.282207
-0.162959
0.324123
-0.597503
0.273302
-0.302908
0.0313833
0.227977
-0.259316
0.607046
-0.314307
-0.292886
-0.288105
-0.173451
-0.346118
-0.246826
-0.131922
0.404023
0.193226
0.359625
-0.163084
-0.196434
-0.583462
-0.224606
-0.329702
-0.193094
0.289186
-0.194645
0.49593
0.0369724
0.194317
-0.231336
0.16574
0.268296
-0.188389
0.343971
0.262916
-0.0231054
-0.0746754
0.452995
0.36737
-0.558335
0.190727
0.281297
-0.480621
0.199205
0.0973605
0.137933
-0.0696815
0.388356
-0.319127
-0.197201
0.564292
-0.0589068
0.420657
-0.362732
-0.421156
0.350692
0.521371
-0.133881
0.246465
-0.215116
0.471023
-0.202372
0.483612
-0.246794
-0.252395
0.498822
-0.254022
-0.160858
0.415081
0.623532
-0.347952
-0.449041
0.389296
-0.256873
0.387041
-0.130187
-0.132078
0.21681
-0.596863
0.208707
0.305628
0.167034
-0.472824
-0.310921
0.151308
-0.165894
-0.293151
0.459359
0.563164
-0.366767
-0.19651
-0.357001
0.0711283
0.269464
-0.186454
-0.227557
0.154998
0.0608407
0.111334
-0.416137
-0.180508
-0.242727
-0.357132
0.129029
-0.255253
0.432465
-0.177067
-0.54834
0.532132
-0.53276
0.00545618
-0.290234
0.546653
-0.25645
-0.0860732
-0.409099
0.520774
-0.21411
-0.584941
0.274783
0.422941
-0.182591
-0.240242
0.198487
-0.161552
0.210403
0.149328
0.136349
0.188307
-0.186908
-0.431334
0.0815336
0.157726
-0.239278
-0.126887
0.432414
0.245353
-0.581232
0.335956
0.148847
0.240646
-0.389641
0.290109
-0.481701
0.191668
-0.63202
0.273795
0.358216
-0.359266
-0.168255
0.527506
0.473243
0.0797303
0.32144
-0.53058
0.0389582
-0.162789
0.123801
0.628911
-0.278747
-0.350224
0.377944
0.241702
-0.619716
-0.169459
-0.128912
0.29848
-0.373708
0.238546
0.135537
-0.169508
-0.212692
-0.325905
-0.300081
0.495981
-0.196114
0.286722
-0.45213
-0.178801
0.466062
-0.121667
-0.181084
0.0594139
0.264466
-0.325013
0.10551
-0.478253
-0.00250622
0.308289
-0.305669
-0.351648
-0.381363
-0.262458
0.251667
-0.220586
0.216333
0.130559
0.290733
0.164887
-0.427124
0.262204
-0.256872
-0.24511
-0.23651
-0.120601
0.00494701
0.258177
-0.123945
-0.24945
-0.375939
-0.190831
0.566302
0.232181
0.24152
-0.380508
0.0414424
0.232922
-0.162062
0.418535
0.312209
-0.247123
-0.00935281
0.333337
-0.324057
-0.497671
0.306769
0.190895
0.0605258
-0.310041
0.165363
0.103597
-0.268952
-0.374102
-0.274871
-0.482024
0.181648
-0.598828
0.206268
0.392378
-0.336929
0.569746
-0.233373
-0.570788
0.233135
0.316602
0.562986
-0.40978
-0.153299
-0.333695
-0.27497
-0.4996
0.219621
0.343209
-0.604318
0.31371
0.289145
0.254541
-0.410314
0.156011
-0.276603
0.615355
-0.338782
0.0887057
0.232959
0.507795
0.00866351
-0.517034
-0.240204
0.407106
-0.152416
0.199785
-0.194571
0.238909
-0.157448
-0.15094
0.536134
0.324532
-0.518327
0.193596
-0.293518
-0.188792
0.206417
0.347129
-0.55403
-0.382475
0.633014
-0.250569
0.495088
-0.171002
-0.631513
0.24899
-0.271847
0.540299
-0.241369
-0.256282
0.374146
0.2547
-0.230565
-0.0932806
0.32376
-0.334079
-0.352813
-0.460225
0.534741
-0.0005673
0.412685
-0.412604
0.465105
-0.175001
0.187186
-0.515358
0.327584
0.242348
0.374998
-0.0797178
-0.161655
0.0357826
-0.451921
-0.154798
-0.232746
0.387238
0.153305
-0.114356
-0.272221
-0.286724
0.0115951
0.546762
-0.560554
0.212381
0.431643
-0.188478
-0.0215638
-0.253335
-0.345669
0.210843
-0.144945
0.143375
-0.424567
0.297631
-0.426584
0.586725
-0.160253
0.253175
-0.408174
-0.430455
0.396098
0.033955
-0.373068
-0.157033
0.530018
-0.547028
0.268162
0.27865
0.21219
-0.61312
-0.348337
0.593918
-0.281454
0.160845
0.162483
-0.323264
-0.488583
0.225762
-0.128369
-0.431362
-0.0984141
-0.136823
-0.303549
-0.302345
-0.643374
0.331181
0.312247
-0.399731
0.577891
-0.178198
0.119512
0.162667
-0.201273
0.525459
-0.0670153
-0.19933
0.266498
-0.146017
0.387541
-0.262275
0.369365
0.525061
0.0754511
-0.475216
-0.146825
-0.10422
0.251021
-0.525861
0.253809
-0.429476
0.131129
0.138066
0.0539656
-0.19203
0.204952
0.324557
0.370379
0.19268
-0.353075
-0.194136
-0.30983
0.47337
-0.16346
0.590099
-0.219834
0.199374
0.25367
-0.453139
-0.579549
0.212738
0.366784
0.615569
-0.395495
-0.220136
-0.324211
-0.052296
0.376465
-0.378272
0.0336282
-0.318771
0.504573
-0.614603
0.292325
0.321239
-0.548445
0.0165345
0.531489
-0.58377
0.239361
0.344454
-0.651194
0.372393
0.357254
0.273258
0.363988
0.098408
-0.46936
0.370921
-0.116028
0.300938
-0.28179
0.613281
-0.331568
-0.405295
0.151467
-0.278019
0.112304
0.458919
-0.167389
-0.291648
0.402734
-0.170824
-0.184909
0.435945
-0.445238
0.120913
0.212155
-0.132649
-0.0795397
-0.377989
0.420485
-0.384708
0.586813
-0.266995
-0.319752
-0.283163
0.468103
-0.185108
-0.286513
0.0242702
-0.577985
0.505161
0.0719162
-0.219663
0.557307
-0.33763
0.191522
0.334502
-0.526201
-0.205265
0.51342
0.259798
0.327075
0.411621
0.203925
0.198976
-0.00124283
-0.484175
0.137026
0.127139
-0.296436
-0.299307
0.109714
-0.388355
0.30652
0.0816775
-0.086679
-0.301827
-0.624828
0.275034
0.349757
0.532063
-0.340739
-0.387492
0.151377
0.244729
-0.471922
0.185719
-0.0358287
-0.358992
0.395214
-0.566561
0.199632
0.60767
-0.3197
0.549467
-0.230466
-0.519174
-0.357023
-0.2863
-0.47688
0.280308
0.196598
-0.168593
-0.280648
0.448931
0.149674
0.446897
0.49398
-0.531136
0.0370482
-0.0467269
-0.380087
-0.150046
-0.588788
0.227005
0.361705
0.548132
-0.342066
-0.626218
0.319584
0.305805
0.156944
0.308161
-0.301672
-0.440205
-0.254262
0.0285441
-0.358546
0.456857
-0.103089
0.524524
0.353485
-0.573159
-0.234898
-0.330476
0.564992
-0.155395
0.184346
-0.298641
0.114422
-0.184547
-0.124771
0.309383
-0.195053
0.0971625
0.376009
-0.473897
0.0957418
0.13005
0.12342
-0.496553
0.229206
-0.550955
0.321457
0.30342
0.155384
0.00962179
0.484283
-0.244632
0.524857
-0.280115
-0.0450968
0.287762
-0.242489
0.5034
-0.546264
0.0428799
-0.227546
-0.163631
0.391252
-0.573312
0.339519
0.233597
-0.527148
0.322713
0.204402
-0.619048
0.263052
0.355981
-0.386557
0.608088
-0.221637
-0.462468
0.344079
0.118301
-0.39599
0.0178449
-0.464953
0.188094
0.277145
0.320051
-0.183817
-0.0643257
0.406474
-0.342271
0.43745
-0.124818
-0.259808
0.192899
0.153625
-0.00886588
-0.0302129
0.486987
-0.458879
0.137229
0.0748934
0.334706
-0.569804
0.100794
-0.247655
-0.172152
-0.56889
0.292248
0.437371
0.0699864
-0.337875
-0.289205
0.384293
-0.185145
-0.591438
0.359191
0.230994
-0.157673
-0.206408
0.364446
-0.107305
0.551782
0.519611
-0.174857
-0.257883
0.314701
-0.124335
-0.190615
-0.619393
0.414991
0.20428
0.295564
0.201336
-0.532501
-0.539162
0.219254
-0.537539
0.21564
0.321953
0.217456
0.318105
-0.536622
0.431397
-0.168346
-0.313143
0.542119
0.225461
0.364533
-0.43449
-0.13722
-0.594785
0.237828
0.507079
-0.129211
-0.227274
-0.158808
0.280657
-0.427596
-0.452066
-0.636728
0.340558
0.295237
-0.513539
0.308002
-0.330973
-0.206512
0.294473
-0.539127
-0.261404
0.192031
0.0693918
-0.459974
0.309455
0.150423
0.293014
0.174919
0.300312
-0.115775
-0.509767
0.219521
0.655428
-0.293913
-0.36154
-0.323831
0.569243
-0.276296
-0.304853
0.194653
0.119799
0.310627
-0.0822321
-0.2283
-0.144292
-0.219865
0.364546
-0.539965
0.214715
0.32529
-0.463477
0.189054
0.274382
-0.266306
0.590555
-0.324437
0.276563
-0.366576
-0.22906
0.377848
-0.324279
-0.0455113
-0.0199042
-0.517516
0.534474
-0.166874
0.410914
-0.314763
0.290696
0.171765
-0.462951
-0.146563
-0.0906028
0.237126
0.170682
0.264368
0.368615
-0.313399
-0.589425
0.379923
0.209376
-0.100914
0.199142
0.259598
0.127742
-0.437363
-0.318028
-0.272051
-0.35951
-0.514522
0.155277
0.168921
0.197973
-0.366807
0.237787
-0.513187
0.492397
-0.613606
0.242338
0.371169
-0.198944
-0.332593
0.531318
0.288173
0.367227
0.481066
-0.324254
0.598047
0.221572
0.521398
-0.306663
0.212281
0.309141
0.638573
-0.279749
-0.35879
0.208585
0.307472
-0.516298
0.132885
-0.388797
-0.356203
-0.182639
0.538804
0.0231679
0.130429
0.489918
-0.522226
0.344825
-0.428642
-0.428997
0.559786
-0.225144
-0.434808
0.144362
0.290604
-0.376311
-0.243186
0.318359
-0.382863
0.186542
-0.026365
-0.160168
-0.182838
-0.342896
0.525606
0.444932
-0.191113
-0.623505
0.268079
0.35539
0.153278
0.210165
-0.36363
-0.240825
0.0911646
-0.563201
0.250843
0.312163
0.205201
-0.579073
-0.113317
-0.141047
-0.364686
-0.258857
-0.644465
0.372379
-0.291217
0.115643
0.175402
-0.553531
0.31121
0.242076
-0.312682
0.187796
-0.554403
0.224163
0.363542
-0.587771
-0.209316
-0.327161
0.536507
0.300507
-0.302983
-0.614055
0.268304
0.345731
0.291655
-0.60173
0.326758
-0.610165
0.37137
0.238737
0.333262
0.242766
-0.301075
0.179457
-0.109396
-0.18199
0.16179
-0.518048
-0.186682
0.271012
-0.473769
0.401119
0.0726117
-0.235505
0.37849
-0.142993
0.349015
-0.38463
0.10415
0.188238
-0.29226
0.184712
0.125993
-0.214252
-0.312949
0.337756
-0.520857
-0.157518
-0.348129
0.0301346
-0.260782
0.171654
-0.148494
-0.320599
0.530683
-0.209817
0.425423
-0.543791
0.22519
0.318547
0.520799
-0.519066
0.150251
-0.238219
0.0880014
-0.309769
0.141584
0.16843
-0.0895143
-0.0846394
0.526125
0.273943
-0.108535
-0.50785
0.51555
-0.0076475
-0.56145
0.327258
0.233606
-0.527362
0.206868
-0.248481
-0.365218
0.142688
0.270923
-0.59417
0.217659
0.327391
-0.528835
-0.0930737
-0.168309
-0.42281
0.267583
0.155325
0.162513
0.104158
-0.280737
0.521058
-0.240025
-0.0906493
0.24097
0.160162
-0.387618
0.140401
0.179527
0.598509
-0.339231
-0.259306
-0.249648
-0.335212
0.258946
-0.356329
0.151163
0.250508
-0.401734
0.203006
-0.327632
-0.322962
-0.240438
-0.0975428
0.556158
-0.303101
-0.207757
-0.371817
-0.152418
0.256845
0.268124
-0.364086
-0.333565
-0.21776
0.551433
0.391701
0.566182
0.290541
0.205219
0.230992
-0.0937765
-0.340357
-0.216032
0.555973
0.357855
0.371423
-0.491301
0.348957
-0.61583
0.265988
0.251001
-0.411799
0.590013
-0.0356178
-0.0730522
0.211125
0.502882
0.323823
-0.297397
-0.0265428
-0.355059
0.212335
0.142629
0.188263
-0.574948
-0.594997
0.327886
0.267117
0.0333864
0.138257
-0.0447721
0.440203
-0.395343
0.307978
-0.513495
0.0238172
0.162736
-0.275404
-0.280024
0.555452
0.318863
-0.51513
-0.191869
0.484993
-0.360495
-0.229054
0.437133
-0.156457
0.109021
-0.270043
0.161009
0.332383
-0.163407
0.292158
-0.470611
-0.273632
-0.194301
0.504581
-0.310129
0.243114
0.152101
-0.395269
-0.064875
0.550216
-0.398225
0.237597
0.160774
0.448302
-0.139005
0.408475
0.373395
-0.628221
0.254033
-0.581566
0.175461
0.227328
0.410873
-0.595868
0.222348
-0.398985
0.176681
0.308868
-0.529487
0.220409
-0.19008
0.398796
-0.208359
0.566198
-0.306357
-0.347652
-0.505579
0.233231
0.276728
-0.275766
-0.201085
-0.346525
-0.289557
-0.203028
0.491694
0.231174
0.338012
0.24652
-0.280025
0.348014
-0.323974
0.458949
0.0940168
0.10964
0.214075
0.217302
-0.45875
0.241482
-0.350985
-0.0989813
0.261445
-0.211446
-0.293798
0.50492
0.280915
-0.168214
-0.112813
0.412187
-0.161749
-0.298749
0.284962
0.147651
-0.322319
-0.0439464
-0.332406
0.376399
-0.447917
0.258653
0.189393
-0.448923
0.398187
0.602109
-0.269832
-0.331964
-0.198237
0.0749791
0.16386
0.389402
-0.185899
-0.203456
-0.330516
-0.232167
0.562606
0.250808
-0.531113
-0.206848
0.533899
0.298243
0.206063
-0.218602
0.494776
-0.206186
-0.288877
-0.5825
0.25192
0.255699
0.159561
-0.228372
-0.328879
0.557004
-0.129632
0.372931
0.0777531
-0.210429
0.393732
-0.147207
-0.121873
-0.351914
-0.391027
-0.239372
-0.165255
0.455589
-0.133324
0.336486
0.288327
0.178258
0.614457
-0.259235
-0.355311
-0.224421
-0.323594
0.547636
-0.564092
0.25923
0.551508
-0.355104
-0.196468
-0.393682
0.230118
0.378174
-0.0953135
-0.250452
-0.57449
0.298937
0.568073
-0.236949
0.146341
0.421283
-0.165519
0.50355
-0.213495
0.0910353
0.139948
0.241218
0.166029
0.00476887
-0.514052
0.435854
-0.168176
-0.227856
-0.315999
-0.237951
0.136096
0.101884
0.196202
-0.486389
0.281894
-0.642723
0.360791
-0.133171
0.228918
0.323908
-0.129409
-0.485042
-0.545018
0.278507
0.294525
-0.264485
0.309425
-0.472331
0.163059
0.381093
-0.158518
-0.334202
0.5721
-0.237992
-0.378931
0.110258
0.136381
-0.371959
0.253035
-0.151571
0.484373
-0.332989
0.393912
-0.155883
-0.238097
-0.560082
0.225747
-0.366264
-0.214699
0.580875
-0.641658
0.277905
0.363714
0.0891358
0.638108
-0.359184
-0.278934
-0.644116
0.283883
0.360209
-0.138557
-0.099365
0.529373
0.257189
0.163617
-0.420951
-0.201879
0.28531
0.352788
-0.476688
0.295266
0.181406
0.32944
0.243008
-0.572425
0.20638
-0.251454
-0.227156
-0.296109
0.524287
0.210289
-0.187562
-0.188039
0.375807
-0.35883
0.411793
-0.166113
-0.245704
-0.590754
-0.307716
0.479667
-0.172149
-0.242607
0.378432
-0.135451
-0.322682
-0.371873
-0.494449
0.296856
0.197503
-0.171491
0.465151
-0.294355
-0.262374
-0.351702
0.0295055
0.557295
-0.586851
0.312256
-0.127654
0.317225
-0.432265
-0.359805
-0.215294
0.521654
-0.358879
-0.189315
0.304822
-0.549955
0.322414
0.22688
-0.21405
0.296001
0.262221
-0.559437
-0.230063
0.592563
-0.362535
-0.21284
0.530711
-0.317908
-0.330228
-0.228113
0.558079
0.15308
0.0900162
-0.243026
-0.513891
0.196578
-0.578435
0.247892
-0.583091
0.228864
0.354195
-0.162011
-0.300532
0.501692
-0.0454726
-0.174951
-0.263266
0.436262
0.326541
-0.551684
0.347634
-0.530428
0.346351
-0.110966
0.306669
-0.511525
0.510603
-0.374325
0.330431
0.0291653
0.53744
-0.566701
0.3595
0.289124
-0.518414
0.378225
-0.116914
-0.26108
0.567611
-0.240553
0.379625
-0.231397
-0.148474
-0.440992
-0.15373
0.296239
-0.501577
0.205021
-0.430743
0.378176
0.134697
0.14609
0.335839
0.201791
-0.537917
-0.361008
-0.222116
0.179334
-0.14594
0.51433
-0.20814
0.162036
-0.136797
-0.0252314
0.152959
-0.0290714
-0.123873
9.86297e-05
-0.516782
0.51447
0.339749
-0.636363
0.272404
0.363899
-0.090532
0.29735
0.315437
-0.118467
-0.314915
-0.204509
0.517906
-0.532138
0.205069
-0.629046
0.258941
0.370048
0.243032
-0.0886472
-0.154293
0.321999
-0.121499
-0.637236
0.276165
0.361021
0.473906
-0.156525
0.263645
-0.404587
0.140991
-0.536407
0.359153
-0.0794124
0.273719
0.122317
0.170427
-0.292525
0.204539
-0.0827142
-0.121805
0.201307
-0.17751
-0.355706
0.579815
-0.177911
-0.152978
-0.0430249
0.195991
-0.613587
0.360056
-0.271406
0.159433
0.112075
-0.340126
-0.222942
0.562971
0.250246
-0.167974
0.477696
-0.592063
0.3486
0.243451
-0.351758
-0.191928
0.543445
0.158148
0.192219
-0.0418909
0.204613
0.241159
-0.0879539
-0.35938
-0.217244
0.525762
-0.178183
-0.0406139
0.218755
0.507738
-0.193483
0.540895
-0.22962
0.411616
-0.39383
0.24178
-0.162188
-0.233475
0.519081
-0.516015
0.509126
-0.508889
-0.159941
0.401221
0.539837
-0.177083
-0.363504
0.548299
-0.51201
-0.211274
-0.331058
0.542286
0.422886
-0.146487
-0.276592
0.22
-0.544137
-0.144604
0.219486
-0.0748226
0.265139
-0.112069
0.173715
0.359306
-0.147105
-0.341684
0.226365
-0.360255
-0.112111
0.187478
-0.075333
0.0552915
0.149716
0.235321
0.601386
-0.372564
0.478135
-0.185425
-0.0792158
0.204383
-0.125133
0.521597
-0.194263
-0.327377
-0.178833
0.306782
-0.127928
0.213901
0.136106
-0.34997
0.226033
0.375312
0.456712
-0.501403
0.52102
-0.202339
-0.159926
-0.278069
0.166779
0.111383
-0.507371
0.295857
-0.21273
0.270337
-0.467977
0.196884
-0.497207
0.179826
0.344102
-0.576405
0.232089
-0.613883
0.36152
0.252328
0.431367
-0.167847
0.464058
-0.183621
-0.28078
0.236734
0.152522
-0.388858
0.157254
0.104135
0.355316
-0.512348
0.517562
0.190577
0.219603
0.155539
-0.259817
0.238939
0.153358
-0.391878
-0.236961
0.0111935
-0.126188
0.411452
0.504373
-0.208526
0.136631
0.591728
0.23347
-0.585054
0.351509
0.0128268
-0.462439
0.354218
-0.584477
0.214126
0.31506
-0.271565
0.230462
0.148345
-0.666137
0.290928
0.375216
0.445862
0.136239
-0.225249
0.55108
-0.151085
0.496514
-0.345466
-0.0282108
-0.503276
0.528547
0.211832
0.130731
-0.298766
-0.236986
0.53459
-0.189837
0.478802
0.283671
0.23768
-0.0858828
-0.126865
-0.168859
0.0784394
-0.222997
0.108518
0.339612
0.246804
0.158029
-0.404457
0.141451
0.212161
-0.503625
-0.289213
0.169437
0.119893
0.133112
0.246247
-0.00692582
0.159629
-0.0364676
0.239029
-0.298094
0.178551
0.128252
0.204713
0.104735
-0.394623
-0.271506
-0.113155
0.0161038
0.328039
-0.168259
-0.159896
0.517303
0.312755
-0.134089
0.567875
-0.179993
0.159993
-0.229359
0.0693951
-0.190242
0.479677
-0.087048
0.229952
-0.0904483
0.250527
-0.356696
0.0161802
-0.413055
0.163696
0.226754
0.146338
0.179265
-0.34942
0.208912
0.140709
-0.0776876
-0.148436
0.226155
0.0379363
-0.412388
0.374359
-0.365625
0.219074
0.146508
0.431005
-0.205724
-0.22534
-0.563881
0.340617
0.0879388
-0.258298
-0.189488
0.507642
-0.579371
0.0706248
-0.319622
0.19651
0.123232
0.213564
0.145427
-0.358992
-0.307604
0.462234
-0.154428
0.298238
0.20792
-0.506983
0.333673
-0.118545
-0.440733
0.185674
0.254878
-0.330716
-0.283043
0.422725
-0.165507
-0.158273
0.395193
-0.498252
0.478296
-0.509703
-0.146666
0.360783
0.278806
-0.159409
0.174944
0.126214
-0.455984
0.214795
0.584866
-0.358881
0.138864
0.221569
0.231219
0.349545
-0.581237
-0.604346
0.379104
0.225175
0.364355
0.220464
0.558302
-0.485013
-0.075434
0.350567
0.299603
0.179876
-0.112674
0.321049
0.316157
-0.196775
-0.300261
-0.562857
-0.236524
-0.373701
0.132322
0.179815
-0.614214
0.243252
0.370911
0.207699
-0.340727
-0.308162
0.513875
-0.20614
0.0346442
-0.202884
-0.327377
0.542245
-0.215301
-0.35801
0.586177
-0.228431
0.289276
-0.509161
0.219142
0.227848
-0.152968
0.610192
-0.366763
-0.243469
0.522147
-0.525068
-0.000401046
0.353325
0.11663
0.198209
-0.314627
0.514223
-0.287628
-0.189072
-0.197713
-0.4013
0.351017
-0.319811
0.528315
-0.208121
0.263769
0.286732
-0.214445
-0.0723472
0.139819
0.146862
0.209278
-0.0828854
0.205047
-0.122114
-0.584551
0.35231
-0.232517
0.586578
0.369426
0.130978
0.200845
-0.331556
0.292928
-0.125627
-0.501774
0.297584
-0.250515
-0.36375
0.620906
-0.313142
-0.307965
-0.141106
-0.160413
0.407425
-0.174444
0.302237
-0.127814
0.569033
-0.225381
0.29354
-0.48556
0.35286
-0.141636
-0.211511
0.249656
0.161802
-0.411357
0.467237
-0.197466
0.155315
0.238441
-0.519732
0.374352
-0.587692
0.232368
0.583707
-0.513974
-0.0725216
-0.292832
0.120144
0.17295
-0.613699
0.363146
0.122142
0.173107
-0.294942
-0.157436
0.290859
-0.133417
-0.48899
0.335333
-0.489041
0.293244
0.251359
0.211145
0.159492
0.258103
-0.417831
0.186566
0.352712
0.322755
-0.189941
-0.0816376
0.384124
-0.0385864
-0.192482
0.486217
-0.519351
-0.240942
-0.204418
0.348779
-0.144348
-0.335897
0.195903
0.140089
0.149193
-0.190309
-0.301636
0.492263
0.228994
0.152332
-0.371981
-0.220439
-0.0554587
0.275862
0.416185
-0.213105
-0.203496
0.15409
0.423825
-0.208008
-0.216256
0.251671
0.156863
-0.347488
-0.254243
0.163987
0.105926