/*--------------------------------*- C++ -*----------------------------------*\
| =========                 |                                                 |
| \\      /  F ield         | OpenFOAM: The Open Source CFD Toolbox           |
|  \\    /   O peration     | Version:  v2012                                 |
|   \\  /    A nd           | Website:  www.openfoam.com                      |
|    \\/     M anipulation  |                                                 |
\*---------------------------------------------------------------------------*/
FoamFile
{
    version     2.0;
    format      ascii;
    class       surfaceScalarField;
    location    "400";
    object      phi;
}
// * * * * * * * * * * * * * * * * * * * * * * * * * * * * * * * * * * * * * //

dimensions      [0 3 -1 0 0 0 0];
oriented        oriented;


internalField   nonuniform List<scalar> 
14907
(
-0.44988
0.309515
0.140377
-0.580779
0.367925
0.212891
-0.227901
-0.018484
0.246311
0.587791
-0.587382
-0.0585053
0.0284518
0.0300533
0.420958
-0.530454
0.10942
0.106869
-0.0609627
-0.0459017
0.161338
-0.159921
-0.0014183
0.399193
-0.222572
-0.176494
-0.379694
-0.09788
0.477614
-0.0104033
-0.00125561
0.0116589
0.066023
0.522329
0.349201
-0.610775
0.261851
0.643426
-0.34392
-0.29936
0.231095
-0.124078
-0.107021
0.543643
-0.357015
-0.186389
0.302592
0.241282
-0.292315
-0.299078
0.591378
-0.250666
-0.199182
-0.0098198
0.0687186
-0.0588999
-0.39744
-0.131638
0.529842
0.115286
0.0522305
-0.167517
0.394442
-0.62268
0.228529
-0.546515
0.291265
0.255102
-0.342112
-0.238649
-0.260111
0.141585
0.118547
0.630168
-0.362728
-0.267292
0.265983
-0.146565
-0.119438
0.396348
-0.196137
-0.200087
-0.30053
0.194428
0.10607
-0.181009
0.411845
-0.23082
0.00027132
0.00685216
-0.0071235
0.204523
-0.584333
0.11901
0.131194
-0.250202
-0.100438
0.232961
-0.132552
-0.313139
-0.233555
-0.294997
0.158954
0.136062
0.0894714
0.121062
-0.210502
-0.580264
0.267449
-0.0968312
0.148568
-0.0517582
0.036987
-0.0468072
-0.229562
0.131981
0.097569
0.0834154
0.0234589
-0.138007
0.284898
-0.146958
-0.0337889
-0.0247166
-0.148303
0.236199
-0.0878878
-0.280072
0.204873
0.0751663
-0.106082
-0.0877395
0.193835
-0.0620168
-0.147654
0.209671
-0.162985
0.270847
-0.107848
-0.583449
0.117132
0.466547
-0.081326
-0.191647
-0.0344
0.164475
-0.130109
0.369141
-0.265113
-0.10406
-0.110302
-0.184679
0.434704
-0.0136755
0.302709
0.093758
-0.166021
-0.1141
0.273754
-0.154758
-0.179383
0.144931
0.289687
-0.49422
0.204575
0.31171
0.133682
-0.445247
-0.22245
0.121987
0.0811279
-0.309102
-0.267673
0.213804
0.0538756
-0.13589
-0.119885
0.255758
-0.0791338
0.231561
-0.152449
0.0866138
-0.0769745
-0.00964101
0.000193922
-0.00725459
0.00706059
-0.171762
0.350324
-0.178516
0.221643
0.147473
0.0604731
0.144373
-0.28245
0.130388
-0.156884
0.0264932
0.187345
0.0771373
-0.264554
0.495597
-0.204768
-0.00561937
0.034071
0.415833
-0.210175
-0.205623
0.16666
-0.0931973
-0.0734699
-0.0313901
0.0812282
-0.0498335
-0.184299
0.122298
-0.0859458
0.0521566
-0.124515
-0.147679
0.272129
0.242301
-0.122584
-0.119714
-0.254811
0.175646
0.518433
0.086362
-0.604812
0.0808379
-0.286529
0.205628
-0.00251021
-0.102258
0.104767
-0.325566
0.10495
0.220535
0.350791
-0.269953
-0.144347
0.275739
-0.131385
-0.0465138
-0.0394323
0.183704
0.0822609
-0.285171
-0.159642
-0.140921
0.129481
-0.283323
0.153879
0.486002
-0.188622
-0.297315
0.170153
0.150576
-0.320695
-0.194807
0.097949
-0.399415
0.133051
0.266472
0.396185
0.20083
0.108378
-0.12736
0.0189777
-0.153682
0.0640147
0.0896651
0.546943
-0.0286895
0.258693
-0.142725
-0.115968
-0.12676
0.131407
-0.00464818
-0.389857
0.314861
0.074903
0.148848
0.337202
-0.589527
0.192828
-0.23523
-0.271345
0.572477
-0.303254
-0.268746
-0.468634
0.319823
0.148922
0.222775
-0.128662
-0.0941355
-0.00842708
0.00862097
-0.207511
-0.0601577
-0.250817
0.439209
-0.188269
0.269527
-0.350875
0.0813392
0.165195
0.29669
-0.167157
0.00175434
-0.00233406
0.000579582
-0.122979
-0.202696
0.0877611
0.0735761
-0.138641
0.284816
-0.146192
0.199505
0.179197
-0.378679
0.140767
-0.032395
-0.266272
0.141723
-0.124131
-0.0357904
-0.224845
0.179442
0.0453879
-0.0167479
-0.110014
-0.152019
0.369767
-0.217686
0.050105
0.116547
-0.367521
0.210264
0.157256
0.00288099
-0.00993839
0.00705737
-0.176309
0.0924633
0.0838393
-0.217402
-0.181903
-0.0921398
-0.0656074
0.157739
-0.00493358
-0.0015981
0.0065316
0.133228
-0.277616
0.0731026
-0.179179
0.0927587
-0.0952699
0.141095
-0.252995
0.111868
0.0187187
0.250801
-0.128383
0.248771
-0.120414
0.120202
-0.108856
-0.0113521
-0.230415
0.351394
-0.12108
-0.273319
-0.195229
0.140119
-0.0195537
-0.120577
0.444857
-0.227593
-0.217169
0.314118
-0.143902
0.235543
-0.127019
-0.108532
-0.363155
0.153889
0.209328
-0.00878405
0.529269
-0.520531
0.0303626
-0.0109413
-0.0194184
-0.000190264
-0.00305159
0.00324175
0.58207
-0.300416
-0.281193
-0.198828
0.548218
0.245875
-0.120822
-0.125068
-0.0419426
0.353789
-0.137122
0.0449779
0.0037864
-0.00636688
0.0025804
0.0139268
-0.00425164
-0.00967523
-0.183821
0.0894995
0.0943145
-0.128707
-0.222362
0.351065
-0.198631
-0.164463
-0.148135
-0.128033
0.276097
-0.184661
-0.182862
-0.109714
0.00125548
0.108458
0.0237831
-0.0199968
0.00795492
-0.00691666
-0.00218498
0.0019946
0.133882
0.15341
-0.287335
-0.463643
0.294515
0.168927
0.0171296
-0.0636439
0.0672835
-0.064781
-0.00250381
0.0283037
0.0894435
-0.117753
0.129633
-0.0605736
-0.0690446
-0.0136292
0.0113592
0.00226996
0.28054
-0.144297
-0.136292
0.0614502
0.025162
0.110289
0.0802766
-0.190579
0.115183
0.130677
0.00492325
-0.00465196
-0.0921436
-0.158779
0.250845
-0.0961334
-0.12873
-0.125453
-0.104123
-0.000140862
0.00189505
-0.105824
0.134864
-0.029044
0.263801
-0.113276
-0.150525
-5.86643e-05
0.010457
-0.0103984
-0.104843
-0.13574
0.240604
0.0566155
0.0154018
-0.0720174
-0.262045
0.133617
-0.000634081
0.0309992
-0.0788985
0.0960274
0.168749
-0.0276242
-0.141124
0.00586214
0.0756897
-0.0815526
-0.124969
-0.105699
0.230685
-0.209976
0.390092
-0.180191
0.361503
-0.560118
-0.291792
0.209828
0.0819532
0.0161023
0.103132
-0.11924
0.253369
0.0104427
-0.0891017
0.323096
-0.233965
0.00701418
0.0602682
0.139392
-0.408995
0.44909
-0.0399187
0.00396882
0.0526466
0.409046
0.146169
-0.554697
-0.299696
-0.290826
0.590414
-0.53099
-0.00681439
0.537118
-0.100243
0.106104
-0.613903
0.604078
0.0106346
-0.109129
-0.000585886
0.0865022
-0.0935756
0.00707353
-0.256196
0.135355
0.0282938
-0.134119
-0.112298
0.300022
-0.187809
-0.316914
-0.14616
0.462911
-0.179127
0.145574
0.0335472
0.480828
-0.214443
-0.266329
0.138825
0.0839275
0.23744
-0.111084
-0.126367
0.0138164
-0.100547
0.0867308
-0.106491
0.195999
-0.194754
0.1527
0.042029
-0.223449
0.11901
0.104462
0.176835
-0.0917483
-0.0850872
0.459419
-0.246681
-0.212609
0.139823
-0.0139321
-0.125897
0.362856
-0.141234
0.200677
-0.0578593
-0.00644483
0.0643034
-0.274135
-0.189695
0.208414
0.154416
0.192152
-0.210725
0.174016
0.0615206
-0.186112
-0.199832
0.386175
-0.7306
0.477256
0.253734
-0.100825
0.243046
-0.142198
0.283808
-0.162799
-0.120968
0.233112
-0.3618
0.14186
0.135131
-0.283315
-0.229333
0.100636
-0.389695
0.139108
-0.417647
0.23662
0.556018
-0.00275418
-0.553035
0.10953
0.149162
0.0907072
-0.270259
0.179494
-0.693023
0.400692
-0.324069
-0.216044
0.540761
-0.34364
0.171937
-0.135784
-0.0568883
0.192635
-0.0687353
0.0825513
-0.0976262
-0.0861995
-0.00967112
0.00961245
0.113827
-0.085527
0.0266747
0.091355
-0.118036
0.0790264
0.152066
-0.0276898
0.2029
-0.175199
-0.143578
0.125392
0.0181948
-0.276381
0.175556
-0.234882
-0.155078
-0.394154
-0.336095
-0.158149
-0.133655
-0.379843
0.193919
-0.0859904
0.201284
0.258779
-0.0591391
-0.199667
0.198764
-0.521297
-0.0104331
-0.090779
0.106878
-0.174425
0.0899016
-0.00339924
0.116115
-0.0153315
-0.0931048
0.108435
-0.216681
0.11186
0.162728
0.121122
0.204891
0.191044
-0.395739
-0.00787201
0.139725
-0.131898
0.0554044
-0.28589
0.177143
-0.0668758
0.254194
0.0106657
-0.264933
-0.101139
0.00783363
-0.00495269
-0.00318337
-0.40576
-0.37652
0.236932
0.139549
-0.097933
-0.0456344
-0.175989
0.189764
-0.303106
0.189028
0.262731
-0.451835
0.0970457
-0.232868
0.0638214
0.0658277
0.0467948
-0.163297
0.116481
0.125297
-0.00509957
0.00721193
-0.59052
-0.178913
0.540675
0.186204
0.11177
-0.334236
0.0956234
0.0812122
-0.36477
0.236932
0.127857
-0.125685
0.415562
-0.331404
0.399755
-0.0683243
-0.315243
0.202872
-0.236037
0.14347
0.0926068
-0.128592
0.187388
-0.0588082
0.020167
-0.110169
0.0900008
-0.0137577
-0.0183821
0.0321392
-0.0658026
-0.113637
0.0252759
0.0510348
-0.0763117
0.232843
-0.406454
0.173935
0.157409
-0.165283
0.253677
0.376621
0.0127729
-0.0129071
-0.111379
0.134719
-0.0233428
0.00564669
-0.0959952
0.0903476
-0.00616038
-0.181192
-0.288181
0.469155
0.221239
0.0375146
0.130532
0.219833
0.100223
0.100903
-0.201155
-0.0818431
0.644615
-0.345038
-0.299505
-0.21086
0.138671
0.072176
0.392708
0.180237
-0.583229
0.600516
-0.0170161
0.140552
-0.0822215
0.102388
0.587803
-0.346909
-0.240715
0.147739
-0.283504
0.305197
-0.159303
-0.145934
-0.209433
0.0808139
0.00959153
-0.0109036
0.00131211
-0.156628
0.262361
0.320139
-0.345884
-0.226565
0.572584
-0.225249
0.306289
0.095292
0.0634537
-0.158759
0.142256
0.0264917
-0.023805
0.115158
-0.00570991
0.112707
-0.106998
-0.183768
-0.05223
-0.233621
0.137465
0.120499
0.24943
-0.140251
0.276334
-0.136065
-0.59602
0.296861
0.133484
-0.0261547
-0.107329
-0.00689881
0.261038
0.137865
-0.0709903
-0.126428
0.197416
0.23074
-0.0307213
-0.122928
0.153622
0.11685
0.125321
-0.196308
-0.135867
0.254004
-0.118182
-0.127134
-0.0676519
0.118829
-0.135577
-0.124154
-0.0867221
-0.0666459
0.228663
-0.162047
-0.387516
0.216804
0.170676
0.0756584
-0.0813696
0.129761
0.010347
0.00487737
0.192661
-0.19755
0.166808
-0.0715307
0.13344
-0.363352
0.229684
0.172419
-0.446592
0.393878
-0.260609
-0.154053
0.123312
0.00870874
0.0937608
-0.102471
-0.147808
0.243372
-0.095565
-0.60197
0.341459
0.260443
-0.187144
0.121305
0.301099
0.295916
0.338088
0.249883
0.00393643
0.172766
-0.382785
0.192912
-0.413857
0.221203
0.00216496
-0.00709864
-0.190537
-0.26903
0.459616
-0.147094
0.0541997
0.0928933
0.102444
0.0310396
0.112632
0.0177527
-0.119706
0.0560086
0.0637144
-0.0103742
-0.104978
0.186757
-0.0817992
-0.0761981
0.0183377
0.329894
-0.572525
0.243014
0.0426765
-0.205642
0.325461
0.271554
0.291647
-0.164895
-0.126792
0.246034
-0.101733
-0.144286
-0.638829
0.231466
0.407419
0.207111
-0.106907
-0.0239522
0.0767317
-0.151295
0.546053
0.37143
-0.502198
0.0727234
-0.0876245
0.0148977
-0.0356703
0.0510721
0.145662
-0.26553
-0.216866
0.414239
-0.197347
0.00156043
0.00639447
0.0293837
-0.135752
0.429963
-0.0102797
-0.0666958
0.0027339
0.344351
0.13657
-0.318245
-0.283808
-0.447742
0.234863
0.213026
-0.166962
0.365133
-0.197989
-0.562297
-0.0204807
-0.366917
0.363749
0.100933
-0.0659225
0.125587
-0.0127092
0.0519483
-0.0392397
-0.581054
0.237705
-0.179671
-0.185072
-0.0803545
-0.0257103
0.106063
-0.252052
0.296009
-0.0440835
-0.0830793
-0.102101
0.148874
0.0995016
-0.22208
-0.225507
-0.158494
0.38395
-0.422958
0.206071
0.0925515
-0.0983693
0.00581748
-0.136423
0.0807253
-0.185728
-0.123393
0.255618
-0.132247
0.00106237
-0.0114657
-0.127789
-0.128426
-0.0732527
0.100049
-0.224139
-0.276842
-0.19461
0.471427
0.192633
0.119205
-0.0422793
-0.0769268
-0.182009
0.462853
-0.280839
0.137687
0.0538087
-0.191492
0.196141
-0.312517
0.116415
0.155327
-0.291196
-0.00632209
-4.4851e-05
-0.0916796
0.228562
-0.136838
-0.0927163
-0.188976
0.281747
0.0079485
0.543512
-0.550909
-0.011429
0.00391185
0.00751716
-0.164729
0.372946
-0.208042
-0.193278
0.101627
0.259232
-0.149013
-0.110206
-0.174756
-0.0683
0.0555908
-0.0558688
-0.516825
0.412827
0.104304
-0.0333113
-0.174191
0.0884303
-0.236237
-0.502317
-0.500281
0.207304
0.293263
0.172895
-0.387571
-0.00389162
0.00941819
-0.0055266
0.184258
-0.395753
-0.467957
-0.145339
0.0782787
-0.158415
0.0801359
-0.0788507
0.168515
0.162554
-0.0110159
-0.151547
-0.593187
0.293374
-0.105631
0.185889
0.00126054
0.242814
-0.0993045
-0.358563
0.177563
0.181037
-0.188482
-0.19907
-0.100465
-0.0758493
0.207542
-0.202699
0.192714
-0.46944
-0.0773976
0.167356
-0.0899687
-0.250039
0.361859
0.060852
-0.427835
0.173613
0.063818
-0.230509
0.43199
-0.201381
-0.122149
0.0336606
0.0884809
0.225791
0.0889809
0.267645
-0.449668
0.0111036
-0.0123592
0.538296
-0.263667
-0.274599
-0.140859
0.294192
-0.585559
0.192875
0.392633
-0.276088
0.152638
0.198448
-0.0597905
-0.354722
-0.161737
0.138205
-0.363483
-0.0872874
0.0858239
0.180061
-0.265904
0.0585333
-0.0462748
-0.0122565
-0.11978
-0.156609
-0.296833
-0.398501
0.599419
-0.131083
0.0263992
0.104682
0.169323
-0.310428
0.140941
-0.310386
0.21769
0.226244
-0.584412
0.358747
-0.308197
0.143334
0.164892
-0.00428304
0.12114
-0.116867
0.0621304
-0.0935168
0.205098
-0.131415
0.00925674
0.0254167
0.133081
0.109772
-0.330005
-0.262847
0.592747
-0.202734
-0.164054
0.366833
-0.161681
0.323719
-0.162148
-0.442888
0.529265
0.382719
-0.186259
-0.196195
-0.00677895
0.00971052
-0.00788662
0.00628849
-0.372398
-0.266374
0.0495345
0.129893
-0.00055172
-0.157932
0.158507
-0.166269
0.165769
0.253591
-0.0662796
-0.312958
-0.279684
0.593071
-0.0938404
-0.0665836
0.160425
-0.00566789
0.0982187
-0.0466008
0.214186
-0.439573
-0.325377
0.163592
-0.33824
0.0860323
0.253133
-0.443723
0.00610074
-0.000931189
-0.00516967
-0.0888346
-0.087465
0.176281
-0.115519
-0.145714
-0.194199
0.340009
-0.3023
-0.261173
0.563938
0.258651
0.0649089
-0.323647
-0.172691
0.10363
0.134525
-0.497381
-0.0111977
0.0073061
0.0261781
-0.0618485
-0.0189372
-0.0593156
0.0782527
0.0821808
0.0492238
-0.1974
-0.358173
0.140849
0.244629
-0.116023
-0.128599
-0.114026
-0.0615508
0.17556
-0.000379112
0.00590405
-0.00552495
0.00567907
0.0181039
0.206434
-0.119641
-0.0868167
0.172074
0.442088
0.134264
-0.576354
-0.105059
0.252801
-0.195962
0.162616
0.536712
-0.0947063
0.00166044
0.0122664
0.441136
0.115006
-0.187411
-0.218723
-0.224449
0.125957
0.0984958
0.129293
-0.572012
0.222544
-0.0678673
-0.154664
-0.268645
0.148855
0.0873662
0.0575324
-0.144906
-0.0895944
-0.0885227
0.178102
-0.507803
0.501017
-0.102951
-0.146957
0.249914
0.108119
0.124816
-0.154231
-0.0224665
0.129102
-0.0469258
0.0013013
-0.0857577
0.0844554
-0.281853
0.606812
0.126767
0.144093
-0.263422
0.148534
0.114841
-0.0622845
-0.221017
-0.281831
-0.284799
0.566576
-0.269171
0.12891
0.288055
0.148913
-0.436918
0.0792767
0.0401215
0.122428
0.0511677
0.064473
-0.115646
-0.57939
0.349156
0.230078
-0.130351
0.216163
0.534118
-0.307489
-0.133395
-0.180464
0.31383
-0.0585062
-0.0176931
0.309788
0.224313
-0.533645
0.254879
-0.128254
-0.126611
0.146064
-0.0938295
0.190678
-0.421065
-0.133594
0.235324
-0.199784
-0.0355197
-0.228618
-0.00202398
0.0020402
-1.63352e-05
-0.0705025
0.19864
-0.128139
-0.563364
0.317494
0.246148
-0.0314029
-0.0830782
0.11448
0.00623942
-0.205187
0.198868
-0.596851
0.305863
0.154141
-0.309968
0.155811
-0.183281
0.375868
-0.192502
0.337148
0.259867
-0.241594
0.108892
0.132702
0.0353303
0.223264
-0.0328616
0.0590395
-0.100662
0.241738
0.181085
-0.383718
0.151642
-0.298193
0.14658
0.159244
0.0391892
-0.103876
-0.0933536
0.197229
-0.182027
0.381593
0.111796
-0.238542
0.126781
-0.177639
-0.180462
-0.0993107
0.220418
0.321588
-0.14958
-0.172014
-0.17963
0.0900115
0.402732
-0.209554
0.240972
-0.109766
0.192409
0.236161
-0.428576
-0.173817
-0.226733
0.400439
-0.00620888
0.0320414
-0.0258328
-0.262499
-0.185097
-0.0737445
0.0152365
0.387029
-0.214119
0.134982
0.140233
-0.275178
0.550003
-0.304808
-0.244967
0.233887
-0.133917
-0.0999492
-0.295116
-0.290492
-0.184922
0.114416
-0.139736
0.329473
0.0761272
-0.10753
-0.214679
0.552778
0.121845
-0.0384229
0.281447
0.163495
-0.136038
-0.0734211
0.469802
0.172968
-0.642384
0.199724
0.100215
-0.0352991
-0.328266
-0.165285
-0.0763116
-0.415919
0.234469
0.181482
-0.0592952
0.0187295
0.0266151
-0.0453447
0.110668
0.111891
-0.231836
0.191785
0.0400838
0.0973359
-0.121148
-0.137589
0.343083
-0.205524
-0.0552707
-0.0755427
0.130811
0.107269
0.128939
0.508609
-0.303971
-0.155692
0.0782877
-0.081865
0.083165
0.00429824
-0.00467735
0.0504624
0.0920253
-0.0134266
-0.0785994
-0.125522
-0.13645
-0.132115
0.268561
0.350513
0.294181
0.247932
-0.0905232
-0.199436
-0.017237
-0.199381
0.00543468
0.194043
0.314063
-0.109774
-0.121898
0.231629
0.020388
-0.118018
0.511586
-0.520406
-0.292861
0.159468
-0.135124
0.246952
-0.00516525
0.0116566
-0.00649167
-0.222712
0.0866417
0.0988649
-0.204508
0.113815
0.130821
-0.0324177
-0.475536
0.020271
0.512138
-0.275928
-0.236251
-0.172661
-0.241449
0.413997
0.2158
-0.021376
0.0666144
-0.316605
0.002492
0.0102809
0.193781
-0.0820623
-0.111709
-0.00107551
-0.00409
-0.630836
0.260671
0.370598
0.0554632
-0.0892887
0.033825
0.000821686
-0.00195802
0.00113625
0.143884
-0.0414409
-0.0211614
-0.178119
0.166727
0.036177
-0.00502447
0.14484
-0.0552457
0.132826
-0.0775804
-0.300892
0.141515
0.297996
-0.101773
0.0741493
0.014154
-0.0129532
-0.201345
-0.149643
0.35096
-0.0757338
0.154007
0.0302283
-0.000301038
-0.0299266
-0.353955
0.272453
0.0814025
0.258771
0.174148
-0.433
-0.256376
0.194095
-0.249503
0.129547
0.119931
-0.325132
0.289658
-0.0392091
0.223752
-0.184596
-0.0877302
-0.0433549
-0.0374117
0.113101
0.214762
-0.547139
0.230016
-0.0104756
0.000537166
-0.00784738
-0.0151512
0.0229998
0.185495
-0.178732
-0.17979
-0.395535
0.512858
0.206144
-0.110313
0.0299568
0.088811
0.10498
-0.0507119
-0.0428635
-0.243393
-0.174765
0.433368
0.189142
-0.35956
0.170537
-0.265045
-0.229145
0.106491
-0.219348
0.112884
-0.221926
0.034746
-0.0227294
0.00897112
0.261952
-0.506743
0.244941
-0.593784
0.257814
0.335771
-0.167436
0.15363
0.0138035
0.150707
-0.351938
0.130511
-0.21395
0.0834897
-0.0617441
0.0855892
-0.0238462
0.165328
-0.268276
-0.0132705
-0.027844
0.0411144
0.00149086
-0.00256636
-0.272849
0.136378
0.195567
0.0712981
0.0228691
-0.094168
-0.00999963
0.0164443
-0.00644472
0.0560173
-0.148492
0.092476
0.198308
-0.162384
0.038253
-0.00598782
0.0577712
-0.0517846
0.0950106
0.072768
-0.167784
-0.156595
-0.144376
-0.557819
0.212081
-0.279036
0.0899709
-6.91906e-05
-0.212966
-0.0188366
0.0676439
0.00255145
-0.0701972
-0.591577
0.261499
0.000901817
0.0086897
-0.0133488
0.107108
0.19978
-0.363758
0.250553
0.160504
-0.41106
-0.00286081
0.0355668
0.373823
0.196106
0.354069
0.206966
-0.108462
-0.0985241
0.00441899
0.000128448
-0.00454748
0.00442521
0.00227398
-0.00669906
0.0447381
-0.0509475
0.158135
-0.299067
0.200634
-0.141169
-0.0594735
-0.14878
0.093536
-0.434573
-0.145417
0.167104
-0.468852
-0.584429
0.284238
0.0889449
0.00102597
0.38655
0.238885
-0.6254
0.37066
-0.189518
0.144599
0.056029
-0.177705
-0.12693
-0.0522022
0.283027
0.260086
-0.542754
0.267399
-0.49184
0.224832
0.401179
-0.324563
-0.254998
0.158472
-0.0660158
-0.153612
0.540378
-0.18963
-0.153957
0.0729394
0.111715
-0.184659
-0.104936
-0.00419285
0.00393996
-0.0504988
0.0465585
0.405229
0.200714
-0.605566
-0.161057
0.108034
0.0530223
0.00609985
-0.0139454
0.0275356
0.0309997
-0.127856
0.227348
0.00719962
-0.0126021
0.00540248
-0.0013989
-0.128282
-0.191392
-0.419145
-0.128853
-0.124171
0.221009
-0.108209
-0.112809
-0.00578708
-0.00203369
0.00782043
0.101094
-0.563895
0.28214
0.431168
-0.584828
-0.0157841
0.086
-0.141273
-0.150009
0.308078
0.291655
0.27163
-0.563012
0.174053
0.171284
-0.345285
0.0995886
0.0672052
0.233511
-0.55112
0.00524387
0.546026
0.115846
-0.215101
-0.140001
-0.296021
-0.288174
-0.175969
0.37492
-0.198819
-0.0379399
-0.0239086
-0.212782
-0.163774
-0.259544
0.112969
0.395484
-0.279932
0.120244
0.123271
-0.0194356
-0.103841
0.534738
0.228974
-0.113901
-0.115119
-0.324337
0.438497
-0.114172
-0.228148
0.122499
-0.0582314
0.0413237
0.0169075
0.304806
0.292209
-0.0586467
0.062586
-0.0753254
0.21414
0.00591013
0.00189031
-0.00780013
-0.260981
-0.361464
0.143153
-0.0999019
0.215804
-0.0908335
-0.0702246
0.0843061
-0.0115856
-0.198514
-0.0234426
0.0838996
0.00812498
-0.0929858
-0.0752895
0.168284
-0.255958
0.101676
0.154292
-0.0103494
0.554202
0.0401027
0.103781
0.175134
0.289819
-0.464769
0.273387
-0.61854
-0.408151
0.215532
0.192779
0.614845
0.0645562
0.110516
-0.175086
0.383604
0.213411
0.250106
0.019236
-0.0809825
0.102598
-0.191133
-0.15403
-0.433201
-0.0492446
0.138261
-0.089027
0.145324
-0.256426
0.0335657
-0.15569
0.251472
-0.0957488
-0.0575396
0.0246779
0.172896
0.192419
-0.117177
0.142019
-0.00403058
-0.0173762
0.0214068
0.112081
-0.241435
0.129408
-0.000151158
0.00625181
0.336552
-0.599384
-0.0557769
0.196949
-0.141137
0.496448
-0.56883
0.0726247
0.155148
-0.287265
-0.146957
0.31618
0.141321
-0.053965
0.0275144
-0.107708
0.0801905
-0.23809
0.127912
0.11019
-0.00934064
-0.282854
-0.325648
0.608548
-0.061183
0.0479125
-0.271904
0.10915
0.163478
0.195821
-0.359178
-0.0902791
-0.0666083
-0.0274739
0.159998
-0.132513
-0.00456093
0.00605179
-0.147711
0.398292
-0.105651
0.101356
-0.0986047
-0.00633167
0.105878
-0.0317069
0.0828697
-0.292206
0.547224
-0.406297
-0.140629
-0.300182
-0.0914996
0.0635248
0.0279743
-0.406986
0.498714
-0.092148
-0.400547
0.302688
0.232985
0.189833
-0.422561
0.157571
-0.460693
0.21988
-0.405927
0.259823
0.275883
-0.12426
0.211777
0.185059
-0.396601
0.476649
-0.251003
0.123195
0.0842807
0.122667
0.0960196
-0.145277
0.399867
-0.215606
-0.000377109
0.00628719
0.315862
-0.138171
-0.17769
-0.0408763
0.096339
0.130943
-0.0278178
-0.00808177
0.00511072
0.00297107
-0.0363163
-0.111425
0.147725
0.174833
-0.230591
0.00973388
-0.00466463
-0.00506927
0.0851881
-0.189071
-0.069649
0.0716436
-0.000455755
-0.0711867
0.168694
-0.0691138
0.565432
-0.467277
-0.130024
-0.0967788
0.226771
0.0144102
-0.347949
0.0916041
0.0012976
0.00167846
-0.00297613
0.284577
-0.292594
0.00805744
0.0728231
-0.0540938
0.0239205
-0.135771
-0.120676
-0.147984
-0.00878413
-0.0021195
0.142425
-0.193883
0.373157
0.507747
-0.0374764
-0.105781
-0.132724
0.431928
0.115619
0.16179
-0.474253
-0.0759
-0.0612261
0.11987
0.126184
0.171486
-0.495801
-0.188522
-0.159401
-0.119794
-0.131229
0.048405
0.0707992
0.119345
-0.235361
0.169698
0.398179
-0.568035
0.161625
-0.236955
-0.113759
-0.0575221
0.171279
0.109919
0.145679
-0.213504
0.471615
-0.258101
-0.0027924
0.00408993
0.183584
-0.298793
0.115167
-0.0114285
0.248344
-0.0572143
-0.112053
0.209066
-0.178823
-0.136496
-0.00693221
0.00793238
0.0834142
-0.0608051
-0.0225971
0.00819504
-0.006155
0.173236
-0.316974
0.143664
0.12738
0.101551
0.133312
-0.10808
-0.0252319
-0.175001
-0.299508
0.153874
0.58746
-0.132451
-0.106767
0.239241
0.351321
-0.476722
0.454093
-0.170678
-0.134523
-0.0751131
-0.012515
0.0112097
-0.0643586
0.0531484
0.494238
-0.266198
-0.228053
0.309386
-0.131004
-0.178438
0.266873
-0.486009
0.0698197
-0.263903
0.119894
-0.257424
-0.230346
0.488226
0.122547
-0.127578
-0.114104
0.054083
-0.259558
0.205469
-0.391035
0.21937
0.171821
-0.233155
-0.180139
0.413456
-0.29361
-0.219068
0.51304
-0.145413
-0.095663
0.24108
0.000804904
0.00361402
0.238796
-0.120215
0.186689
0.389503
0.0919851
-0.0143415
0.0103112
-0.231644
-0.18424
0.218348
-0.511609
0.38335
-0.230579
0.076815
0.0070838
-0.11131
0.558372
-0.551085
-0.00724946
-0.359628
-0.270843
-0.140909
0.113432
0.0903595
-0.0039341
-0.086426
0.564032
-0.307211
-0.256921
0.627627
-0.3563
0.199835
-0.106296
-0.0935742
-0.151549
-0.139496
0.291145
-0.234085
0.130336
0.103741
-0.217101
0.158255
0.0588176
-0.131402
0.0746868
-0.163539
0.46901
-0.229333
-0.239744
-0.0390144
-0.138291
0.177293
-0.0163794
0.0697318
-0.0533529
0.15155
-0.0304144
0.0159478
-0.14017
0.124217
0.101799
-0.207477
0.105642
0.107157
0.28818
-0.606428
0.161783
0.15569
-0.317567
-0.103673
-0.124427
0.212522
-0.123703
0.157233
0.160842
-0.318227
-0.188674
0.335464
-0.146769
0.583266
-0.281608
-0.301197
0.281598
-0.146589
-0.00610226
-0.0975631
0.0809909
0.0165718
-0.212628
0.161156
0.0514844
0.146146
-0.266832
0.307961
0.0998633
-0.1728
0.0729296
0.155338
-0.302319
-0.153745
0.207778
0.0568024
-0.135811
0.07901
0.101548
-0.213643
0.154941
-0.294717
-0.37713
-0.0445512
-0.0469486
-0.0107214
-0.0895226
0.0258828
0.443007
-0.468412
0.142551
-0.270667
0.123916
-0.151539
0.348675
-0.159447
0.502122
-0.265995
-0.235844
0.351675
-0.0753189
0.199235
-0.0623122
0.195226
-0.132971
-0.157042
-0.077053
0.00383797
-0.000882806
-0.00295519
-0.139618
-0.136526
-0.309787
-0.0134546
0.0195559
-0.261861
-0.214544
0.476308
-0.0658667
0.077076
-0.532124
-0.0189165
0.551581
0.118863
0.088157
0.0446698
0.292869
-0.27569
-0.0172472
0.398554
0.157945
-0.556516
-0.31109
0.161012
0.257397
-0.12378
-0.133622
0.0858759
-0.00906186
0.155143
-0.27688
0.568438
0.00746595
-0.0635214
0.0560548
0.0551886
0.0974883
0.0903584
-0.156941
0.000454813
-0.00138616
-0.0343521
0.153178
0.66351
-0.312934
0.0967673
-0.122479
0.163199
-0.318568
0.155401
0.0142514
0.0749159
-0.0891672
-0.234
-0.145368
0.28044
0.520264
0.0845071
-0.00531701
-0.00611204
0.315183
0.348343
0.049289
-0.266427
0.239368
0.124511
0.109397
0.0817098
0.105024
-0.158478
0.0969168
-0.26015
0.0426165
0.217516
-0.292229
0.107369
-0.143698
-0.194863
0.0922324
0.102601
-0.177712
0.427919
-0.250147
0.163682
-0.218136
0.0544501
-0.3463
0.16665
0.0217618
-0.0327004
0.00504119
-0.014903
-0.392555
0.169803
0.00380926
-0.263419
-0.299672
-0.0683659
-0.14425
0.321229
-0.56223
0.240875
0.000901149
0.00293681
-0.21784
-0.348638
0.135863
0.125465
0.432863
0.101699
-0.247117
0.11333
-0.246009
0.132707
-0.501116
-0.151719
0.652975
-0.133429
-0.257448
0.179416
-0.307329
-0.10739
-0.0549944
-0.0754562
0.16104
-0.0855856
-0.137435
0.291846
-0.15435
0.232493
-0.120346
-0.247595
0.141851
-0.15036
0.0727792
0.303531
0.148821
-0.133183
-0.130284
-0.143997
0.298109
0.206143
-0.0637252
0.133175
-0.226667
0.0935111
0.00456487
-0.505591
-0.503994
0.242419
0.0905502
-0.170474
0.0799188
-0.348703
0.172868
0.0865042
-0.101837
-0.0828322
0.231354
-0.00671735
0.0984263
-0.0917092
0.142027
0.120947
-0.262965
0.467348
0.140575
-0.329288
0.0909328
-0.206447
0.11553
-0.112205
-0.0552345
0.1873
-0.420237
0.128888
-0.10105
-0.0775877
0.178636
-0.103816
-0.394475
0.124665
-0.556174
-0.0311232
0.587354
0.011432
-0.0764991
0.0703749
0.00612418
-0.216313
0.0960754
0.120229
0.00221495
0.011939
-0.100509
-0.0811904
0.181705
-0.104676
0.211196
-0.156437
0.0426754
-0.0601686
-0.0886094
-0.0797453
0.210314
0.0028172
-0.232301
0.0998639
-0.0621162
0.174295
-0.112187
0.135345
-0.286785
0.159774
-0.222144
-0.193656
0.344229
0.142757
0.0117095
-0.195995
-0.181538
0.375914
-0.194386
-0.0471151
0.0411263
0.23585
0.0800179
0.0337259
0.259076
-0.0554811
0.0972543
-0.0417722
-0.372169
0.183666
-0.106615
0.209115
-0.102505
-0.0749219
-0.216057
0.0890236
0.0298125
0.254793
-0.0223268
-0.078394
0.100718
-0.260973
0.108151
0.152846
-0.26576
-0.260496
0.526314
-0.0839081
0.202943
0.00393419
-0.00225583
-0.0858892
0.0954072
-0.00952292
-0.205552
-0.137668
-0.0946185
-0.209657
0.506861
-0.296875
-0.373172
0.324014
0.0491958
-0.0132177
0.109244
0.227104
0.241015
-0.507517
0.266577
-0.188
0.0818237
0.106166
0.14503
0.146869
-0.291902
0.00773659
-0.173765
0.166045
-0.190702
0.354234
0.469414
-0.0768414
0.0648202
0.0120277
-0.138111
-0.161315
-0.299841
0.360727
0.193894
-0.0350187
-0.158875
-0.142182
0.315367
0.397917
-0.116329
0.437148
0.0921192
-0.089633
-0.145497
0.261704
-0.116251
-0.263223
-0.330757
0.422426
-0.2082
0.0923488
0.083977
-0.176324
-0.12562
-0.130329
0.10563
0.110268
-0.21593
-0.153036
-0.153791
0.306868
-0.0904674
-0.0580232
-0.110392
0.311562
-0.154464
-0.251198
0.131628
0.119572
0.440192
-0.172539
-0.245886
0.486829
-0.00720393
-0.0683478
-0.0998458
0.168188
-0.104662
-0.0902292
0.069625
0.151376
0.0645356
0.101717
-0.166258
-0.165486
0.0644318
0.158321
-0.0749455
-0.0833875
-0.0836897
-0.0720097
0.0705152
-0.198395
0.0364206
-0.00619075
0.168215
-0.317774
0.143692
0.149103
-0.292885
-0.295539
0.520367
-0.516424
-0.0397385
-0.0511301
0.154724
-0.103602
-0.118886
-0.412705
-0.0540487
0.00366803
0.00696877
-0.0106368
0.127718
-0.0937592
-0.0339601
0.0029604
0.395601
0.0420175
0.151879
0.155464
-0.058265
-0.0971983
-0.213042
-0.235144
0.448144
0.0758413
-0.0732913
-0.0288867
0.120921
-0.0920337
0.0420337
-0.0843134
0.12192
0.0906102
0.00135965
0.00357783
-0.00493753
-0.0690572
-0.0964332
0.111445
-0.0954927
0.00165952
-0.00744665
0.186119
-0.0835269
0.142394
-0.298086
0.148025
-0.0462563
-0.187878
0.367286
-0.179357
0.0038511
0.000574306
0.0959813
-0.234053
0.138068
0.0704297
-0.150773
0.0803394
0.391837
-0.221723
-0.170131
0.0913389
0.398362
0.0970044
-0.49496
-0.000568
-0.010317
0.010885
0.00862634
-0.00477514
0.320268
0.263315
-0.58333
-0.00427582
0.00818763
-0.109897
0.0896657
0.0202302
-0.106742
-0.0942968
0.201047
-0.105551
0.182813
-0.0772724
0.134556
-0.448699
0.148851
0.0011486
0.000210954
0.290087
-0.134778
-0.0246808
0.0959779
-0.00626272
0.00993074
0.231148
0.342359
-0.573268
-0.0325077
-0.227684
0.299065
0.232013
0.112808
0.0625257
-0.142517
0.0799777
0.0881128
0.0703523
-0.567528
0.0352516
0.363372
-0.0615075
-0.156628
-0.142984
-0.133162
0.276133
0.00451129
0.492203
-0.199881
0.0816672
0.118189
-0.314604
0.246274
-0.467745
0.202627
-0.14108
0.0116663
0.125655
-0.137328
0.464965
0.085892
-0.0142463
0.305558
0.383454
0.210548
-0.593771
0.0923363
0.1138
-0.0405671
0.102317
-0.0617501
-0.243718
0.262435
-0.231417
0.421448
-0.108406
0.128792
0.109822
-0.0732628
-0.0365607
-0.326316
0.183918
0.142477
-0.0157112
0.17734
0.0942388
-0.104962
-0.0987618
-0.00710881
-0.000844274
0.00795306
0.227905
0.100557
-0.174786
0.0742234
-0.00708093
-0.000173719
0.00676962
-0.041201
0.034431
0.326452
-0.542598
0.216405
-0.228618
0.239214
-0.0874898
0.213454
0.0803215
-0.177105
0.0967737
0.0344207
0.119204
0.242377
0.00390193
-0.00444821
0.000546162
-0.0786044
-0.109405
0.081601
-0.0955352
0.151183
0.133616
-0.299563
0.518314
0.00410115
-0.102767
0.22499
-0.122192
0.491
0.326401
-0.582014
0.255761
-0.000509538
-0.000790885
0.00130033
-0.224684
-0.0681636
-0.299403
0.140969
0.205439
0.130048
0.120271
0.137122
0.551793
-0.0785113
0.148933
0.118644
-0.264202
0.0994547
0.139958
-0.23936
0.224491
0.232986
-0.457235
-0.0948085
-0.053244
0.0589229
-0.117454
0.0415532
0.162606
-0.100098
0.0139319
-0.0126198
0.0910395
0.0610043
-0.152049
-0.424231
0.161851
-0.0771979
-0.295936
0.159315