/*--------------------------------*- C++ -*----------------------------------*\
| =========                 |                                                 |
| \\      /  F ield         | OpenFOAM: The Open Source CFD Toolbox           |
|  \\    /   O peration     | Version:  v2012                                 |
|   \\  /    A nd           | Website:  www.openfoam.com                      |
|    \\/     M anipulation  |                                                 |
\*---------------------------------------------------------------------------*/
FoamFile
{
    version     2.0;
    format      ascii;
    class       volVectorField;
    location    "650";
    object      ddt0(U);
}
// * * * * * * * * * * * * * * * * * * * * * * * * * * * * * * * * * * * * * //

dimensions      [0 1 -2 0 0 0 0];


internalField   nonuniform List<vector> 
10042
(
(-0.000992032 -0.00012979 3.28584e-18)
(-0.000470462 -0.000357896 -3.33052e-18)
(-0.00258559 0.00128057 -1.64312e-18)
(-0.000684324 6.39642e-06 7.32985e-19)
(-0.0117286 0.00402124 -1.61166e-17)
(-0.00141297 -0.000411161 4.479e-18)
(-0.169465 0.0529653 -4.01353e-18)
(-0.0422487 0.0426939 4.54711e-17)
(0.00110618 0.0010075 6.17398e-19)
(-0.00132409 -2.54118e-05 -3.27689e-19)
(0.0231574 -2.72988e-05 4.99416e-17)
(-0.000138385 8.38709e-06 -4.9148e-19)
(-0.00141101 9.26824e-05 4.04482e-19)
(-0.00309783 2.93143e-05 7.27012e-19)
(-0.00260888 -0.00185841 -8.89861e-18)
(0.0011455 -0.000210332 -1.12391e-18)
(0.000909766 -0.000170029 -1.97724e-18)
(-0.000450146 -3.59107e-05 3.22728e-18)
(-0.000758536 -0.000112818 -4.92834e-18)
(-0.00360328 -0.0094465 6.78687e-18)
(0.00314962 0.000121549 -3.10183e-19)
(-0.00406701 0.0519486 -3.40806e-17)
(-0.00216523 2.20178e-05 2.31914e-19)
(-0.00402449 0.000148032 -2.27157e-19)
(-0.000583646 -0.000395748 3.9024e-18)
(0.00255233 0.00790932 -1.47247e-18)
(0.00076188 -0.000647943 6.61715e-19)
(-0.00361513 -0.000322321 -1.38951e-19)
(0.000697745 0.000879801 -4.52982e-19)
(-0.00367637 3.5464e-05 8.48036e-19)
(-0.000369489 -0.000362123 3.58455e-18)
(-0.000711229 -0.000350841 -4.54308e-17)
(-0.00239061 -4.82715e-05 -1.30077e-18)
(-0.00255977 0.00112953 -7.74517e-19)
(-0.00445256 0.00490186 1.12945e-18)
(-0.00428455 0.00013865 -1.26788e-19)
(0.00187818 0.00731114 3.19127e-18)
(0.00807925 0.0094497 -7.4625e-18)
(-0.000703657 0.000140318 -3.15907e-19)
(-0.00752335 -0.000394125 -1.89915e-18)
(-0.00346122 -0.00946325 4.9895e-17)
(-0.00310325 -0.00154063 1.658e-17)
(-0.171389 0.0580274 -2.92745e-17)
(-0.00353528 -0.000739684 5.74192e-18)
(-0.0102898 0.00396005 -2.83259e-17)
(0.00703132 0.0210093 -1.2126e-17)
(-0.00329374 -0.0013551 4.79753e-19)
(0.0226369 0.0329774 -4.67325e-18)
(-0.000824621 0.00646666 -9.9789e-18)
(0.0217845 0.00885283 6.27669e-18)
(0.000120467 -4.15002e-05 -1.35799e-19)
(-0.000814378 -0.00141223 1.29806e-19)
(-0.00362511 -0.0020062 1.20382e-17)
(0.00156707 -0.000763865 -3.2542e-18)
(0.00143107 0.00728738 6.05417e-18)
(-0.00023359 -0.000374083 -5.65065e-18)
(0.000777939 0.000945982 -1.00567e-18)
(-0.00343585 -0.0013626 -2.68132e-18)
(-0.00288344 0.00116594 -2.15029e-18)
(-0.00433262 -0.0019584 -7.29756e-18)
(-9.00241e-05 -0.000413239 2.09775e-18)
(0.000789281 -0.000194771 -8.01431e-18)
(-0.00471067 0.00495464 2.69601e-18)
(-0.00235329 0.00123405 7.62678e-19)
(-0.000692653 -0.00180919 7.9373e-19)
(-0.00290272 0.0013383 5.89107e-19)
(-0.00120655 -0.00147991 -3.56109e-18)
(-0.00358729 -0.0082533 2.04151e-17)
(0.0233523 -0.00311938 2.93776e-17)
(-0.00104214 -0.000281095 3.71214e-18)
(0.00171206 -0.00102906 -8.49512e-19)
(-0.00345819 -0.00979804 -5.3201e-18)
(-0.00373032 -0.000763783 -4.20167e-20)
(-0.00234295 -0.00470827 -5.88775e-18)
(-0.00255988 -0.00146947 3.60924e-19)
(-0.00662452 0.000149358 1.09626e-18)
(-0.0109024 0.00244417 7.26915e-17)
(-0.000661153 -9.68114e-05 5.68784e-18)
(-0.00361689 -0.00382434 -5.21344e-18)
(-0.146855 0.0370643 1.13685e-17)
(0.000218792 0.00621012 -4.70375e-18)
(-0.0122491 0.00630629 2.73411e-17)
(-0.00395809 0.000115545 -2.50651e-18)
(-0.00216562 -0.0014626 -7.49243e-18)
(-0.00152913 -0.0015073 1.29938e-17)
(-0.000412783 -0.000209443 3.46974e-18)
(-0.00250928 -0.00020627 6.76987e-18)
(-0.0185326 -0.00233989 2.62908e-17)
(-0.00357361 -0.00100594 2.35276e-18)
(-0.00135439 -0.000162476 -2.34865e-18)
(-0.00156223 0.0018798 -9.5232e-19)
(-0.0104671 0.00573538 -2.29686e-17)
(-0.00372708 -0.000267098 -3.48672e-19)
(-0.000164223 -0.00127824 -5.42188e-20)
(-0.00362507 -5.39984e-05 -1.1019e-18)
(-0.00121711 0.000626816 8.65811e-19)
(-0.000475961 1.79439e-05 -2.98035e-19)
(-0.0013303 0.000232246 -1.53354e-18)
(-0.00714133 -0.000297602 -3.89899e-20)
(0.000896579 0.00113717 3.77493e-20)
(5.3915e-07 -5.97333e-06 -4.41039e-18)
(-0.0190104 0.00288216 -9.04514e-18)
(-0.0729003 0.0516836 -1.81748e-17)
(-0.00156978 -0.000226054 -3.5779e-18)
(-0.00261632 -0.000655106 2.29415e-18)
(-0.0105192 -0.00148564 -3.18743e-18)
(-0.00277787 -0.000262882 -2.47452e-18)
(-0.000714133 2.11123e-05 -1.73155e-19)
(0.0025885 0.000113306 -7.39336e-19)
(-0.000571039 -0.000155098 9.11879e-20)
(-0.000382369 1.71989e-05 -1.68452e-18)
(-1.66349e-05 -0.000113522 2.90674e-18)
(-0.00561739 0.00225159 2.93062e-19)
(0.0277773 -0.00394288 3.85194e-17)
(-0.000749112 -0.00180004 7.76736e-18)
(0.000109437 -0.000190587 1.00499e-18)
(-0.000641082 -0.000271844 -3.87117e-18)
(-0.000682319 -0.000114164 3.50032e-18)
(-0.000965774 0.000668546 2.89987e-18)
(0.0059565 -0.00468234 7.75101e-17)
(-0.00390373 -0.000986125 4.58935e-18)
(-0.0270137 0.0468235 -2.56619e-17)
(-0.00267056 -0.000469489 -1.74185e-18)
(8.27787e-06 -0.000243791 4.15801e-19)
(-0.0185844 0.00362618 6.68046e-18)
(-0.00327379 6.65595e-05 -2.44476e-18)
(-0.0239432 0.042131 -4.82184e-17)
(-0.00392068 0.00635509 7.11416e-18)
(-0.0101219 -0.00156917 7.00878e-19)
(-0.000410303 -0.000170347 -7.21743e-18)
(-0.00375615 -0.00394522 4.37272e-17)
(-0.00118934 -0.00124238 8.4126e-18)
(0.0165471 -0.0034845 -4.45209e-17)
(-0.0187604 0.0305048 4.17707e-17)
(0.000578637 0.00109193 -1.60647e-19)
(-0.0135874 0.00221671 -1.18214e-17)
(0.00449358 -0.00256961 -1.35842e-17)
(-0.00307047 0.00186326 8.92438e-19)
(0.0204241 0.0351492 -3.37107e-18)
(-0.019126 -0.00288984 -1.53375e-17)
(-0.00376208 -0.000999788 -2.12966e-18)
(-0.000602086 -0.000297155 2.56214e-18)
(-0.00325275 -0.000981245 -8.90806e-18)
(-0.0222357 0.00800602 -3.28823e-18)
(-0.0018825 -0.000657245 1.81936e-18)
(-0.000376009 -0.000129906 -1.2769e-18)
(-0.0140988 0.00543411 -4.31378e-18)
(0.000102868 -0.000226917 1.39259e-19)
(-0.000569345 0.000266037 3.90601e-19)
(-0.0048139 0.000604867 1.04555e-17)
(0.000284885 0.000989275 -4.97112e-19)
(-0.00061381 -1.26436e-05 8.3038e-19)
(-0.0918382 0.000202927 1.38915e-17)
(0.00836364 -0.00650078 -5.77373e-17)
(0.00316471 -0.000488951 -5.05598e-18)
(-0.00238719 7.74817e-05 -3.44653e-19)
(-0.00113974 -0.00225824 4.17599e-18)
(0.00104857 -0.000175852 6.11165e-18)
(-0.013272 0.00176203 1.54424e-17)
(-0.00298312 0.00685619 3.1867e-17)
(0.0238707 0.00240345 3.64146e-18)
(-0.0156691 0.024238 -1.46013e-17)
(-0.000793197 -0.00023375 3.12969e-18)
(0.000228034 0.00103266 -2.39426e-19)
(-0.00454892 0.000375749 2.9211e-19)
(-0.00119511 -0.001216 1.01152e-17)
(-0.00830243 -0.00547056 -3.79889e-18)
(0.0156029 0.0109336 -6.49488e-17)
(0.00179233 -0.00117697 -2.73165e-17)
(0.00898897 -0.00710299 5.21418e-17)
(0.000620329 -0.000167942 -1.41903e-18)
(-0.00391861 -1.26002e-05 -9.71152e-19)
(-0.0126359 0.00759652 -6.40099e-17)
(-0.00457433 -0.0101898 -1.33744e-17)
(-0.00570768 -0.00439822 -2.16253e-17)
(-0.200572 0.112723 -1.89462e-17)
(0.0439327 -0.0483555 -4.4171e-17)
(-0.00340084 -0.00059553 1.1877e-17)
(-0.00365245 -0.00855227 3.11649e-17)
(-0.00761434 0.00331594 -4.84558e-18)
(-0.00114352 -0.0023341 6.56123e-18)
(-0.00215294 -0.00174679 -1.21447e-16)
(-0.00276334 -0.00161144 6.7384e-19)
(-0.00401546 0.00610514 -2.98895e-18)
(-0.0030141 -0.0015573 -7.82474e-18)
(0.00708426 -0.00365137 -1.08523e-16)
(-0.0228004 0.0242504 -1.85155e-17)
(-0.00228726 0.00110977 -7.07678e-19)
(0.0245762 0.00633829 -1.37746e-17)
(-0.000849683 0.00385933 -4.17504e-19)
(-0.00481332 -0.0151349 3.50957e-19)
(-0.00386319 -0.00112395 6.58339e-18)
(-0.09515 0.00257479 -8.20298e-18)
(-0.0180647 0.00943706 -1.00326e-17)
(-0.00647608 0.0275577 -4.15553e-17)
(-0.0328628 0.012318 -3.14835e-17)
(0.00100554 0.00533771 -2.98824e-18)
(-0.0021779 -0.000175715 1.15869e-18)
(-0.00240616 7.55691e-05 2.32139e-19)
(-0.00374382 0.00186388 3.48491e-19)
(-0.00488232 -0.00475232 -9.52656e-18)
(-0.00181407 0.00120243 2.01394e-18)
(-0.00146682 -8.3868e-05 -3.90343e-18)
(-0.00481844 -0.0101506 -3.65368e-17)
(-0.00134149 -0.00159049 -6.9111e-18)
(0.000328985 0.000480574 5.605e-19)
(-0.00577868 -0.0161192 -3.71328e-18)
(0.00367 -0.000569199 -7.44004e-19)
(-0.000989066 -4.41742e-05 -1.0394e-18)
(-0.00524937 -0.000209156 3.78212e-18)
(-0.0353811 0.0105743 2.24477e-19)
(0.000495085 1.15595e-05 3.466e-19)
(-0.00792108 -0.00525239 3.79008e-18)
(-0.0122466 -0.0109677 -1.78598e-17)
(-0.00128979 -0.00220115 1.44709e-18)
(-0.0228047 0.0238314 2.08842e-17)
(-0.00254726 -0.00125205 2.22959e-18)
(-0.00296484 -5.2337e-05 2.61018e-18)
(-0.0139887 0.00846745 -1.47584e-17)
(-0.00129286 6.12009e-05 -3.39057e-18)
(-0.00583054 0.00250204 6.63669e-19)
(-0.00134763 -0.00226887 -2.62382e-18)
(-0.0167164 -0.00960612 4.51101e-19)
(0.00928662 0.00998837 -1.03017e-18)
(-0.00467164 -0.00249481 -6.40666e-18)
(0.00352036 0.00841655 -6.30071e-18)
(-0.0224904 0.0358105 -1.49107e-17)
(0.00014707 -0.00015821 -5.74331e-18)
(-0.020543 0.0211879 -1.19752e-17)
(0.00204034 -0.00128341 -1.26062e-19)
(0.00113368 0.000994281 -3.33993e-19)
(-0.00665037 -0.00978992 -1.09477e-17)
(-0.00394514 -2.11721e-06 -4.41792e-18)
(0.00189381 -0.00155758 -1.91261e-18)
(-0.00388902 0.00129913 -2.28716e-18)
(-0.00493642 0.000734508 5.0498e-18)
(0.00141853 0.000444373 6.93285e-19)
(-0.00153901 1.05519e-05 2.60569e-19)
(0.00100888 0.00325185 -3.85462e-18)
(0.00861616 -0.00122245 -2.25446e-18)
(-0.000205806 -0.000247119 -3.26973e-19)
(-0.00329573 -0.000562215 -9.74588e-19)
(-0.00374298 0.000376489 -1.02224e-18)
(-0.00659754 0.00204167 -3.88102e-19)
(0.00186844 -0.000133258 -5.77381e-18)
(-0.00101027 -0.000368812 -1.27741e-18)
(-0.00258061 3.34995e-05 1.01717e-18)
(-0.00274617 -0.000594521 -9.87561e-18)
(0.000492941 -0.000534214 -1.306e-18)
(-0.000283592 -2.56861e-05 -1.23449e-18)
(0.000440206 4.96816e-05 -1.13402e-19)
(-0.000840823 -0.000252764 -4.13073e-18)
(-0.00585086 -0.00050071 -4.06458e-18)
(-0.0173868 -0.0103382 2.55096e-17)
(-0.0161352 0.0232423 1.75067e-17)
(0.0215568 0.00639385 1.54275e-17)
(-0.00550118 -0.00466453 -2.31105e-17)
(-0.00615057 -0.00392943 -2.24138e-17)
(-0.00270367 -0.00186544 -1.49744e-18)
(0.00608097 0.023496 -6.24832e-19)
(-0.199066 0.0930105 -1.30808e-17)
(0.000126869 0.00304892 1.8725e-18)
(-0.00260609 -0.000237058 -3.70669e-18)
(-0.00158246 1.49361e-05 6.24617e-19)
(-0.00368045 0.0016927 -1.75871e-18)
(0.000896971 0.00040415 -3.63252e-19)
(-0.00249058 0.0550688 2.77927e-17)
(0.00110038 0.00149465 1.65689e-18)
(-0.00152087 -0.00020277 1.15928e-17)
(-0.00557056 -0.000177263 -3.86471e-18)
(-0.00450959 -0.00496105 -1.17255e-17)
(0.00169297 -0.000536632 2.88242e-18)
(-0.0127513 -0.0104211 9.90895e-18)
(-0.00572818 -0.00427175 2.62525e-17)
(-0.0212688 0.000244174 1.0725e-17)
(-0.000644259 0.00397308 -3.18503e-18)
(0.00854267 -0.00181 -4.48067e-18)
(0.000648404 0.000339015 1.8902e-18)
(-0.000952502 0.00398713 2.44413e-18)
(-0.00153375 -0.00059335 -1.77497e-18)
(-0.00845525 0.00337847 2.83296e-18)
(-0.00339219 -0.000800062 -6.36126e-18)
(0.00204659 0.00788401 -1.53688e-18)
(0.0148832 -0.00417017 -3.79216e-17)
(-0.00147797 0.000429865 -8.61922e-19)
(-0.00163818 0.00129432 7.89839e-20)
(-0.194239 0.0861919 1.69103e-17)
(0.00561228 0.0219448 8.71257e-18)
(-0.00386695 0.00102513 -1.23736e-19)
(-0.00129742 -0.000421854 -1.2168e-18)
(-0.00544638 -0.000445503 5.93548e-19)
(-0.205231 0.126129 -3.06154e-17)
(-0.00933376 0.0142952 -3.81731e-18)
(-0.0227564 0.00859786 -1.93568e-19)
(-0.000243113 -3.58534e-05 1.39699e-18)
(-0.00218205 6.56551e-05 1.06424e-19)
(-4.39496e-06 -0.000143297 4.67946e-18)
(0.000825723 0.00107053 -8.92623e-19)
(-0.0229968 0.0374411 -9.86754e-21)
(-0.00115631 -0.000446431 1.61015e-17)
(0.00150768 -0.000367457 -2.86384e-18)
(-0.00146851 -1.44361e-05 -6.86805e-19)
(-0.00208801 -0.00125397 -1.33998e-19)
(0.0112568 0.0088699 -1.69143e-18)
(-0.00370217 -0.00157347 2.37866e-18)
(-0.0137673 -0.00169024 8.23247e-18)
(-0.0378297 0.0022688 -4.75344e-17)
(-0.00461018 -0.00191956 7.18183e-18)
(-0.0864865 0.0187454 1.63564e-17)
(0.00330653 -8.80831e-05 -5.64629e-18)
(0.00278307 0.0037902 -2.33798e-18)
(0.000681872 -0.000645225 -5.58316e-19)
(0.0125671 -0.00179493 -6.84384e-17)
(-0.0184916 0.00516386 1.21043e-18)
(-0.0389468 0.00524568 -4.21937e-17)
(0.0286458 -0.0591135 -1.12351e-17)
(-0.00486536 0.000176645 3.92162e-19)
(0.00132831 0.00138262 -1.3864e-18)
(-0.00106172 -0.00025384 3.86107e-18)
(-0.00469769 -0.00115624 2.5508e-18)
(0.0029984 0.00841235 -1.35902e-18)
(9.67461e-06 -0.000115903 1.58279e-18)
(-0.00830026 0.00216889 -1.71818e-18)
(0.000119601 1.84769e-05 6.69778e-19)
(-0.00228569 -9.6712e-07 3.88995e-19)
(-0.00340184 -0.000693985 -4.48471e-18)
(-0.0141346 -0.00201196 1.87084e-18)
(0.00093845 -3.70624e-05 2.00916e-19)
(-0.00262038 0.00356448 4.35847e-19)
(-0.00202826 -0.00120064 1.73453e-17)
(-0.00429718 -0.00153212 1.46593e-19)
(0.0379583 -0.0134124 -4.88395e-17)
(0.00188284 -0.000137268 5.21088e-18)
(0.00316901 -0.000529217 -3.69969e-18)
(-0.00168372 1.24201e-05 1.57111e-18)
(-0.00264794 0.00113088 3.30013e-19)
(-0.0110097 0.00192605 -8.44863e-18)
(-0.00647246 0.0285767 5.07974e-17)
(-0.00601678 -0.00369397 1.43002e-17)
(-0.0396491 0.0275154 -5.97277e-18)
(0.0109858 0.00936054 -2.1011e-17)
(-0.00388655 0.00579336 1.5986e-19)
(-0.00206377 -0.00124734 -1.12951e-17)
(-0.00289675 2.17676e-05 -8.06117e-19)
(-0.000887933 0.00216245 -1.27431e-18)
(-0.000633498 -2.91934e-05 -2.3231e-18)
(-0.0237399 0.028357 3.32989e-17)
(-0.0030519 -0.000778364 6.96303e-18)
(-0.00246881 0.00130467 -1.72742e-19)
(0.0373614 0.0309327 1.81983e-17)
(-0.00153784 -0.000113413 -2.8545e-18)
(-0.0051934 -0.00100048 8.57143e-18)
(-0.00227155 -0.00143226 9.32314e-18)
(0.0377311 0.0344716 -2.19483e-17)
(-0.00160705 0.000605722 2.04953e-18)
(-0.00454159 -0.00244225 8.19615e-18)
(-0.00967086 -0.00121128 -1.53772e-18)
(-0.00814129 0.00195649 -1.30114e-18)
(-0.00430935 0.00202854 4.80594e-20)
(-0.00146346 -0.000199737 1.5444e-18)
(-0.0662101 0.0249843 -2.92092e-17)
(-0.0145305 0.00580169 2.80183e-17)
(-0.000140118 0.0015251 -4.95751e-19)
(-0.0107204 0.00229673 1.31054e-17)
(-0.00427169 3.87599e-05 2.14114e-18)
(-0.00223852 3.11028e-05 3.93177e-18)
(-0.00325114 5.82023e-05 -2.30309e-18)
(-0.00476243 -0.00108632 1.37839e-17)
(-0.0344495 0.00297126 -1.68916e-18)
(0.00443499 0.000111398 4.68401e-18)
(-0.000689904 -8.98594e-05 2.9284e-18)
(-0.00356351 -0.00180637 -9.90272e-18)
(-6.13947e-08 -6.7838e-06 -1.70737e-19)
(0.000960673 -8.1141e-05 1.07986e-17)
(-0.00429972 -0.00964935 1.23228e-17)
(-0.00164681 -0.000174288 -1.41542e-18)
(0.00216106 0.000494633 -6.1528e-20)
(0.00457418 -0.00312265 6.24862e-18)
(-0.00153014 5.36066e-05 -1.02131e-18)
(-0.13625 0.0530596 -2.5745e-17)
(-0.022896 0.0285069 2.02927e-18)
(-0.0025676 -0.00475393 6.64187e-18)
(-0.1953 0.141086 5.00161e-18)
(0.0195418 0.0075409 -2.3089e-17)
(-0.00671373 -5.90996e-05 -1.35857e-18)
(-0.00632022 -0.00995686 -7.75361e-18)
(0.00278038 -0.000586848 -1.53335e-19)
(0.0222864 0.0104169 -7.31228e-18)
(2.6101e-08 -2.60408e-05 -1.992e-18)
(-0.0030612 -0.0013969 -1.24637e-18)
(0.056689 0.062882 -1.58078e-17)
(-0.000745689 -0.000253031 1.37141e-19)
(-0.00437756 -0.00122086 -5.03843e-18)
(-0.000365909 -0.0170131 7.92105e-18)
(-0.00115507 1.65821e-05 3.07763e-19)
(0.00507238 0.000134255 1.14278e-18)
(-0.00299475 -0.00681612 2.34461e-17)
(-0.00550437 -0.0153989 -2.35469e-19)
(-0.00175107 0.00133046 -7.14385e-19)
(-0.000874521 -0.000146824 6.86652e-19)
(0.00186514 -0.00209479 -7.03779e-17)
(-0.0191878 0.004368 3.94261e-19)
(-0.00540621 -4.39845e-05 1.09371e-19)
(-0.003128 -0.00810517 -6.62536e-19)
(-0.0135669 0.00602571 1.14223e-17)
(-0.000572237 8.70045e-05 2.57273e-18)
(-0.000775983 -6.01158e-05 -3.0413e-18)
(-9.08988e-05 0.000481883 -5.06856e-19)
(0.00144409 -0.000166159 1.61253e-18)
(-0.000986792 1.60304e-06 -4.40166e-19)
(-0.00181108 0.000412623 2.03879e-18)
(-0.0838962 0.0216491 6.03849e-17)
(-0.0718027 0.0468022 2.19905e-17)
(-0.00312936 -0.00140796 -5.7174e-18)
(-0.0397006 0.00428795 4.4587e-17)
(-0.000561794 2.87195e-05 3.05658e-19)
(-0.00100482 -0.000409588 2.53408e-18)
(-0.0280323 -0.00306017 2.8296e-18)
(-0.00310838 0.00118334 -1.27861e-19)
(-0.120496 0.049773 3.45226e-17)
(-0.0103745 0.0148508 2.72573e-19)
(-0.00204176 -0.00153521 6.54003e-18)
(-0.00230115 0.000305696 1.6343e-19)
(-0.00166713 -0.000126747 8.74797e-20)
(-0.0131723 -0.00730691 8.72117e-18)
(0.000530866 -0.000192548 5.57358e-18)
(-0.00682228 -0.000312395 -1.5927e-18)
(-0.00344681 -0.000387683 7.68032e-19)
(0.0227326 0.000127748 -1.78039e-17)
(-0.00127071 -0.00213187 -1.32189e-17)
(-0.0222211 0.00887324 -5.92214e-18)
(-0.00295589 -0.00176738 8.19431e-18)
(-0.0019904 9.80503e-05 -2.98992e-18)
(4.93479e-05 -0.000181993 1.01259e-18)
(-0.0205511 -0.00841189 -4.34452e-17)
(-0.00167214 8.22324e-05 -1.83282e-18)
(-0.000873299 -0.0033268 9.02847e-19)
(-0.000861094 -0.000394955 -9.56919e-18)
(-0.000272079 0.000604554 -5.99297e-19)
(0.000132 0.00397353 -3.7919e-17)
(0.00179715 0.00548643 -6.03196e-20)
(0.000659201 -0.00030941 1.15408e-17)
(-0.00112919 1.31096e-05 -7.99564e-19)
(0.00439075 -0.00088283 3.73759e-17)
(0.00115972 -0.000159932 -5.78965e-18)
(0.00131565 0.00569807 1.25609e-18)
(-0.00280202 0.0014667 -1.43308e-18)
(0.000921592 0.000370666 -2.95258e-18)
(-0.0436933 0.0069549 -4.51199e-17)
(-0.191685 0.125716 3.01365e-18)
(0.0014572 0.000115324 2.12895e-19)
(-0.000635212 -0.00171389 7.58943e-18)
(0.00474528 0.000439973 2.18647e-18)
(0.00104235 6.02918e-05 -1.54597e-19)
(0.00188145 -9.13843e-05 -1.27012e-18)
(9.71159e-05 -0.000241983 -9.39801e-19)
(0.00506319 -0.00115502 -3.11692e-18)
(-0.000309989 -0.000279265 1.01993e-18)
(0.000515377 1.42185e-05 -1.5309e-19)
(-0.00481515 -0.00156426 7.03833e-18)
(-0.0389076 0.052101 2.4629e-17)
(-0.0131825 0.00889267 1.08405e-17)
(-0.000849201 -3.27416e-05 -5.45703e-19)
(-0.00768864 0.00358906 8.60956e-19)
(-0.0308762 0.0097647 -7.11198e-17)
(0.0124574 0.00938477 -6.7712e-19)
(0.000335855 -0.000369213 -4.02167e-18)
(-0.00147407 -0.000175317 -5.96853e-18)
(-0.0193973 0.0292654 -1.97086e-17)
(-0.000897639 0.00145783 2.60553e-19)
(-0.000689786 0.000101813 1.89679e-18)
(-0.00338491 -0.00382843 8.97505e-18)
(-0.00017198 0.00113104 -3.63664e-19)
(-0.00283597 0.000369977 -1.89294e-18)
(-0.00139395 -0.00230813 3.66299e-18)
(-0.00154819 0.000208807 2.77431e-19)
(-0.00749824 -0.00341623 -2.34726e-17)
(-0.00286158 -0.00030888 7.42937e-18)
(-0.00179347 7.37923e-05 -1.9329e-19)
(0.0241021 0.000226295 -3.73125e-17)
(-0.00242767 2.20215e-05 2.43142e-18)
(-0.000634491 -0.000346313 -2.26167e-18)
(-0.00157727 -0.000236812 -4.77897e-18)
(-0.00444037 -0.000390728 1.44651e-19)
(-0.00803305 0.00260606 1.62639e-18)
(0.00192632 0.000121044 1.29318e-18)
(-0.00137789 0.00110116 -2.92253e-19)
(-0.0410307 0.00169723 2.37796e-17)
(-0.00341126 -0.000105452 7.7584e-19)
(-0.105112 0.0107708 -9.69798e-18)
(-0.00037465 0.00302076 -1.00444e-18)
(-0.000194103 -1.17238e-05 5.33071e-18)
(0.000317486 -1.00084e-05 -5.37983e-19)
(-0.0195647 0.00194289 -4.26729e-17)
(-0.00492341 -0.000794578 -4.29076e-18)
(-0.000243541 -0.00030428 -7.12479e-18)
(0.00133862 7.17724e-07 -1.99344e-18)
(0.00149198 0.00143718 -1.5092e-18)
(-0.00469619 -0.00248761 5.8486e-18)
(-0.157678 0.0431938 -3.79501e-17)
(-0.000425508 -0.000199657 3.62396e-18)
(-0.00718707 -0.00351027 1.55019e-17)
(-0.00336481 -0.0149683 1.00418e-17)
(0.0129643 0.00888067 1.14101e-17)
(-0.00093915 -5.41257e-05 8.28085e-19)
(0.000182527 -0.000217902 -9.06094e-18)
(-0.0023015 0.000301425 2.30956e-18)
(-0.000546923 -0.000240177 -2.27668e-19)
(0.00254667 -0.000108306 -2.17983e-18)
(-0.00488086 -0.0444706 4.1106e-17)
(0.00521277 -0.00213861 1.36876e-16)
(-0.000738865 -0.00028119 4.24439e-18)
(-0.00349318 0.00646276 -7.06416e-18)
(0.00819999 0.00463355 -5.36942e-18)
(0.0094247 0.00441768 3.69822e-18)
(-0.00154539 -0.0015073 -5.4796e-19)
(-0.00104125 3.11505e-05 -1.01597e-18)
(-0.0093661 0.0497665 -3.07092e-17)
(-0.0135614 -0.00681661 3.53392e-18)
(-0.00422123 -0.0148655 -4.17641e-18)
(-0.000401276 0.000317139 -6.24925e-20)
(-0.00211002 0.000419736 -1.62187e-18)
(-0.00361387 0.00115381 -8.45173e-20)
(-0.00270818 4.99998e-05 8.29092e-19)
(0.0161658 0.000844376 -5.79713e-18)
(-0.00896724 0.00391106 -4.14963e-18)
(0.00127144 0.00155456 7.8883e-19)
(5.56116e-05 0.000987908 -5.30228e-19)
(-0.00060764 1.45407e-05 4.82563e-18)
(-0.00237405 -0.00138078 -7.63345e-18)
(-0.00913202 0.0495591 -3.01462e-17)
(0.00190237 0.00558027 1.08207e-17)
(-0.00131077 -0.000654311 -1.52662e-18)
(0.00563731 -0.000849121 7.47256e-17)
(-0.00573862 -0.0143382 6.20734e-20)
(-0.0112043 -0.0120784 5.43503e-18)
(-0.0110701 -0.00114816 3.98377e-18)
(0.00188168 -0.000126475 -2.73912e-18)
(0.000278677 0.00112212 -1.18434e-19)
(0.0282649 0.00635544 5.33817e-18)
(-0.0132098 0.00599546 -1.1943e-17)
(0.000635346 -0.0240008 1.26257e-17)
(0.0253903 0.00935149 6.77654e-17)
(-0.00377483 -0.00244914 3.46955e-17)
(-0.000660644 -0.00340304 -7.30218e-18)
(-0.000696073 -0.000176641 -6.79817e-19)
(-0.00145491 0.00355144 -1.20255e-18)
(-0.00206101 -0.00171016 -7.53127e-18)
(-0.00127659 -0.000199592 6.48209e-19)
(0.0241224 0.00191241 -1.77574e-17)
(-0.00286986 3.79919e-05 -8.41646e-19)
(0.00325177 -9.03266e-05 -7.43048e-18)
(0.00995899 0.0198037 3.24048e-18)
(0.00060636 -0.000223926 1.96237e-18)
(0.0184195 0.064876 4.58889e-19)
(-0.000579352 0.00284215 -5.98994e-18)
(-0.00511349 0.0376942 2.64437e-18)
(-0.0069548 0.000519613 -1.47295e-18)
(6.07912e-05 -0.00020373 -5.28736e-18)
(0.0019631 0.00205643 7.1044e-20)
(-0.00427193 0.0051642 1.73231e-18)
(0.0213656 -0.000717976 -2.24734e-18)
(-0.0113809 -0.000871481 6.68825e-19)
(-0.0091042 -0.00697013 -2.9884e-18)
(-0.00290377 -4.76603e-05 8.92423e-19)
(0.0230334 0.00745972 -9.43605e-18)
(-0.00457528 0.00189806 -1.79904e-19)
(-0.0016329 0.000521606 2.92981e-18)
(-0.00151071 -0.000195831 -2.48736e-18)
(-0.00197891 0.00219103 1.1646e-18)
(0.000324369 -0.000428233 -1.15551e-18)
(-0.00391236 -0.0024987 -1.0467e-17)
(-0.0124929 0.0093674 -8.38794e-18)
(-0.00412309 -0.0057612 6.73542e-18)
(-0.00159228 -0.000655207 -8.54674e-18)
(-0.00350728 -0.000140518 -1.94923e-18)
(0.000144329 1.51451e-06 6.9294e-19)
(-0.00138452 -0.000387899 -9.71456e-18)
(-0.00600471 -0.00970973 -1.17815e-17)
(0.00127586 9.5272e-05 -1.09251e-19)
(-0.00279732 0.00120246 1.15722e-19)
(0.00118931 0.0504931 9.29725e-19)
(-0.00106237 0.000199389 -4.62582e-19)
(-0.0137711 0.00549831 1.54202e-17)
(0.0385921 0.0108147 7.26343e-18)
(-0.000807766 -0.000409153 -4.13849e-18)
(0.00674742 -0.00181173 2.84087e-17)
(0.00105711 0.0137612 -4.46679e-18)
(0.00149806 -0.000258489 -1.88592e-18)
(-0.0239088 0.021022 -2.15912e-17)
(-0.00307427 0.00138976 -5.85826e-19)
(-0.00109508 -3.62536e-05 -1.22732e-18)
(-0.00119723 -0.00122549 -1.97902e-18)
(0.000889552 -0.000219304 -3.53473e-18)
(5.37919e-07 -1.79067e-05 7.13866e-18)
(-0.00229272 0.00364649 8.8731e-19)
(-0.00212761 -0.00143075 9.27795e-18)
(-0.0065899 -0.0138379 -1.88473e-18)
(-0.00338504 -0.000881579 5.02015e-18)
(0.00105653 -0.000203614 1.10432e-17)
(-0.00131064 0.00152095 -2.63257e-19)
(-0.0084422 0.00279344 -4.31126e-18)
(-0.000534734 0.00973731 -8.18962e-18)
(0.000609695 -0.000237903 -1.00803e-17)
(0.00458779 0.00273743 -1.16436e-18)
(0.000288525 0.00107196 -2.37576e-19)
(0.00901532 0.00868588 -2.13232e-18)
(-0.000624745 -0.00103113 -4.07388e-18)
(-0.00778306 0.000141945 3.04674e-18)
(0.00262225 0.000519627 -2.14332e-20)
(-0.00103357 -0.00248655 -6.71071e-18)
(-0.00163676 -4.86298e-05 2.72864e-22)
(-0.00284213 7.60199e-05 -4.49773e-18)
(-0.0526111 0.00453508 9.76604e-18)
(3.4145e-05 0.000483176 1.65347e-20)
(-0.00597321 -0.00938689 4.60549e-17)
(5.15509e-07 -0.000235883 1.52685e-18)
(0.00259339 0.00161465 2.42315e-18)
(-0.000827284 3.74599e-05 1.41348e-18)
(0.00362772 0.00998438 -3.68585e-18)
(-0.00150999 -0.00026377 -7.24747e-19)
(0.000264673 0.0143237 1.9856e-17)
(-0.00285275 0.00110627 -1.15819e-18)
(-0.0230567 0.0205319 -2.03654e-17)
(-0.000121146 -0.000110912 -7.38559e-18)
(-0.184894 0.0688522 4.32206e-17)
(0.000313752 -0.000271177 3.34909e-22)
(-0.00412591 -0.00156691 -3.90083e-18)
(0.0021514 -9.73766e-05 -6.11191e-18)
(-0.0025268 -0.00133462 9.0448e-18)
(-0.00371893 3.08832e-05 -2.77769e-18)
(-0.00251317 0.00356171 -4.62846e-19)
(0.000119257 -0.000423291 -2.13685e-18)
(-0.00311511 -0.00939484 5.3837e-19)
(0.0113425 0.00469187 -2.21038e-17)
(0.0208173 0.0650954 6.27521e-18)
(0.00256836 0.0038248 -4.26052e-18)
(-0.00654949 -0.00363117 -2.51194e-17)
(-0.00238765 -4.31137e-05 -1.95998e-18)
(-0.00732071 -0.00266348 -3.23632e-18)
(0.00821535 0.0212247 -7.70019e-18)
(-0.000778553 -2.30914e-05 4.86463e-18)
(-0.0032556 -0.00363149 1.74114e-17)
(-0.00916217 -0.00749185 -2.25438e-18)
(-0.00285561 -0.0238635 6.45834e-18)
(0.0396523 0.00860616 -9.05334e-18)
(-0.0123107 -0.00671101 -5.05096e-17)
(-0.00408131 0.00546923 -1.48173e-18)
(-0.00251339 -0.000294455 -2.34424e-18)
(7.66509e-05 -0.000147952 -4.45677e-18)
(0.00295976 0.0035005 -5.21837e-18)
(-0.00149741 0.00385729 1.86237e-18)
(0.0217611 -0.000422038 -2.01971e-18)
(-0.00584017 0.000161492 4.46812e-19)
(-0.00466738 0.00229603 -4.53244e-19)
(-0.0154797 0.0221792 1.91626e-17)
(-0.000562392 -1.10463e-05 4.35369e-18)
(-0.000735603 -0.000374106 -1.90897e-19)
(0.0047439 0.00289833 3.7516e-18)
(-0.0162141 -0.00736567 -8.17278e-17)
(-0.00428467 -0.00149788 4.37692e-18)
(-0.00674777 0.0035497 1.64306e-18)
(0.0293865 0.00436554 -8.34265e-18)
(-0.00123388 -0.00017023 4.64018e-18)
(-0.14928 0.0410166 1.18669e-17)
(-0.00300813 0.000186005 1.58448e-19)
(-0.00327631 -4.00177e-05 3.64103e-18)
(-0.00286065 0.000183972 -1.92804e-18)
(-0.000162631 0.00117572 7.19133e-19)
(0.011756 -0.00213394 1.21711e-16)
(0.0116799 0.0241982 1.76807e-18)
(-0.00538288 -0.0105711 1.15222e-17)
(0.000766369 -1.50154e-05 -1.21991e-18)
(-0.0211489 -0.010416 2.21127e-17)
(0.014898 -0.00050512 1.72935e-17)
(-0.0241853 0.0297285 -1.56712e-17)
(0.0214407 0.000218857 -3.24812e-18)
(0.00660573 0.0243183 3.3202e-18)
(-0.0199652 0.0219002 -1.78716e-17)
(-0.00798099 -0.00173302 -2.62109e-18)
(-0.00298537 -0.00122919 -6.76088e-19)
(0.000198948 -0.00040571 6.48037e-18)
(-0.00354002 -0.00394459 -2.23449e-17)
(0.0175351 -0.00154736 -5.15409e-18)
(-0.00248933 2.49033e-05 2.00638e-18)
(-0.00538194 -0.00178881 -7.89284e-18)
(-0.0735729 -0.00217014 1.22377e-17)
(-0.00342529 -0.000360286 5.87414e-18)
(-0.00255448 8.19585e-05 -7.00247e-18)
(-0.00198713 0.000504733 -1.57919e-18)
(-0.00394968 -0.000668059 3.46821e-18)
(-0.00366079 2.3967e-05 -4.58838e-18)
(-0.00150469 0.000511765 -1.59459e-18)
(-0.0188881 0.0013482 -1.20387e-17)
(-0.0333124 0.0114499 4.2952e-17)
(-0.00091425 0.000500507 -3.46219e-19)
(-0.0030473 -7.19383e-05 -1.41312e-18)
(0.0177178 -0.00284387 6.36476e-17)
(-0.0921168 -0.00362573 1.76411e-17)
(-0.00212384 -7.37266e-05 1.24497e-18)
(0.000390835 -0.000324507 3.35358e-18)
(-4.15212e-05 -4.98076e-05 -4.12746e-18)
(0.00117118 -0.00017729 -2.76348e-18)
(-0.0282414 -0.00450664 5.18887e-18)
(0.0133963 0.0240873 -3.48099e-18)
(-0.0115376 -0.010753 2.49431e-18)
(-0.0028604 -0.000773924 -4.74067e-18)
(-0.00363044 6.40972e-05 6.11539e-18)
(0.00150971 0.000863585 6.52011e-19)
(-0.000871843 -0.00238532 -1.05683e-17)
(-0.000192779 -0.000460306 -3.79402e-19)
(0.00576307 0.00949755 5.00608e-18)
(-0.00336511 -0.00174103 1.08762e-17)
(-0.0292146 0.000668835 6.35512e-17)
(0.000371571 -0.000121567 2.2798e-18)
(-0.00276731 -0.000149877 3.27832e-18)
(-0.00926282 0.00017884 -3.27984e-18)
(5.70606e-05 7.06891e-05 -1.07734e-19)
(0.0151112 0.00421993 1.21983e-17)
(-0.00673911 -0.00695916 -2.01451e-17)
(0.00162351 0.00194802 -3.58357e-18)
(0.00827775 -0.00272662 2.0459e-17)
(-0.00559845 -0.0166855 -2.65433e-17)
(-0.00306244 -0.00039358 2.04466e-18)
(0.00256207 -0.000112067 -2.18787e-19)
(-0.0911096 0.0144971 -1.25457e-17)
(0.0227471 -0.0010895 4.30665e-17)
(-0.00661777 -0.00178254 -2.72786e-18)
(-0.00352718 0.00134673 -6.27072e-19)
(-0.0484492 0.0392048 -9.39414e-18)
(-0.0055554 -0.0105489 1.38194e-17)
(-0.00163805 -0.00328316 4.35462e-17)
(-0.00295904 -0.00116886 -1.35489e-18)
(-0.00142902 6.88598e-06 -1.11488e-18)
(0.00258629 0.000108712 -1.40423e-18)
(-0.0136092 -0.0107003 -7.5893e-18)
(0.00245772 0.00377253 4.76459e-19)
(-0.00533015 -0.00895337 -9.40448e-18)
(-0.000639638 -4.03017e-05 -7.5252e-19)
(0.0355037 -0.0106178 7.34424e-17)
(-0.0323288 0.00432209 -4.08269e-18)
(0.000724415 -0.00021928 -7.86976e-18)
(-0.000973867 -0.000140185 3.83576e-18)
(-0.00292256 -0.00915079 -4.38391e-17)
(0.0033744 -0.000582769 -3.00806e-18)
(-0.0009148 3.80791e-05 -4.87144e-19)
(-0.00537864 -9.85138e-05 5.32597e-18)
(0.0143763 -0.00209278 5.95177e-17)
(-0.0139851 -0.0274348 4.43404e-18)
(-0.0550368 0.00725412 -5.99703e-18)
(-0.000729541 -0.000248687 5.05768e-19)
(0.000291877 0.020448 -1.37213e-17)
(-0.00756083 -0.00145919 2.45247e-19)
(-0.000634925 0.000129726 -1.36188e-18)
(0.000586664 1.16416e-05 -5.57692e-18)
(0.00145534 -0.000469819 3.08395e-18)
(-0.0142417 -0.0100774 -1.36634e-17)
(-0.000394873 -0.000146937 1.78436e-18)
(0.000368529 -0.000200405 -2.18006e-18)
(0.00154288 0.0204549 1.82765e-17)
(-0.00157395 -0.00145611 -9.43695e-18)
(-0.0137008 0.00781703 -7.09075e-18)
(0.00109982 -4.97909e-05 1.50659e-18)
(0.00344371 -0.000621787 -7.07977e-18)
(-0.000129158 1.7411e-05 -1.85646e-18)
(-0.00168778 -0.000639174 -5.57347e-20)
(-0.0173607 0.0304039 -3.9253e-17)
(0.000766397 -0.000164649 1.50232e-18)
(-0.000801287 -0.000285035 1.99189e-18)
(-0.0021288 0.0128034 1.11768e-17)
(-0.00745323 -0.00547798 -3.02558e-18)
(-0.00675004 -0.0124372 1.7055e-17)