/*--------------------------------*- C++ -*----------------------------------*\
| =========                 |                                                 |
| \\      /  F ield         | OpenFOAM: The Open Source CFD Toolbox           |
|  \\    /   O peration     | Version:  v2012                                 |
|   \\  /    A nd           | Website:  www.openfoam.com                      |
|    \\/     M anipulation  |                                                 |
\*---------------------------------------------------------------------------*/
FoamFile
{
    version     2.0;
    format      ascii;
    class       volScalarField;
    location    "650";
    object      nut;
}
// * * * * * * * * * * * * * * * * * * * * * * * * * * * * * * * * * * * * * //

dimensions      [0 2 -1 0 0 0 0];


internalField   nonuniform List<scalar> 
10042
(
0.0067219
0.00672096
0.0035531
0.00350986
0.0066983
0.00672143
0.0139573
0.000550809
0.00506087
0.00671971
0.00587002
0.00688254
0.00671522
0.00671468
0.000926664
0.00672044
0.00672026
0.00672539
0.00672205
4.88959e-05
0.00671779
0.00063654
0.0067366
0.00671786
0.00672112
0.00078088
0.00672257
0.00134774
0.00463536
0.00165983
0.00672106
0.00128286
0.0067199
0.00199195
0.000868413
0.00671811
0.000840762
0.000697957
0.00671743
0.000483287
4.71914e-05
0.00104757
0.0147095
0.00271725
0.00657384
0.000442642
0.00181307
0.000363649
0.000857973
0.000505605
0.00672296
0.00364578
0.000988637
0.00230178
0.000877493
0.00672123
0.00458378
0.00178712
0.00202965
0.00119111
0.00672095
0.00672019
0.000821023
0.0037506
0.00182293
0.00205894
0.00261612
7.85519e-05
0.0120503
0.00411009
0.00254039
4.97096e-05
0.00257336
0.0002639
0.00286904
0.0067185
0.00581252
0.00672128
0.000327971
0.0151684
0.000834824
0.00519592
0.00300262
0.00123165
0.00262124
0.00672436
0.00672447
0.000140569
0.00354578
0.00672337
0.00228606
0.00477717
0.001254
0.0040685
0.00182462
0.00372791
0.00671932
0.00393095
0.000509402
0.00451633
0.00672622
0.000189681
0.00155915
0.00672409
0.00144635
0.000188355
0.00672394
0.0067195
0.00671788
0.00672915
0.00671824
0.00538997
0.000821856
0.0108133
0.00203901
0.00663719
0.00672424
0.00672147
0.00352578
0.00595923
0.00368541
0.00100912
0.00252444
0.0067217
0.00019421
0.002543
0.000446176
0.000757142
0.000219884
0.00672426
0.000310233
0.00293819
0.00801378
0.000375583
0.0042897
0.000242769
0.00504496
0.00223504
0.000353509
0.000129817
0.00130975
0.0067246
0.001539
0.000200648
0.00504569
0.00673625
0.000271007
0.0067502
0.00370302
0.000735295
0.004641
0.00672534
0.017461
0.00750383
0.00672368
0.00671484
0.00131101
0.00672016
0.000235835
0.000631193
0.00452465
0.000325082
0.00672082
0.00466492
0.00251142
0.00284419
0.000120529
0.000636709
0.00112957
0.00764765
0.00267876
0.00672022
0.00318278
4.21505e-05
0.000209069
0.0165223
0.00250358
0.00264299
6.56219e-05
0.000497725
0.00121446
0.00176924
0.00247124
0.000743685
0.00110873
0.00525801
0.000379695
0.0025968
0.00601293
0.00126405
3.43254e-05
0.00145658
0.0166655
0.00106427
0.000339478
0.000182111
0.00106049
0.00672219
0.00671437
0.00111299
0.000200601
0.00216999
0.00558959
4.62177e-05
0.00233611
0.00673206
3.7659e-05
0.00672312
0.00672544
0.00672501
0.000184447
0.00679076
0.000141329
6.09532e-05
0.00139094
0.000330722
0.00333477
0.00671952
0.000282781
0.00672536
0.000779422
0.00126157
9.04447e-05
0.000679941
0.00063793
0.000761708
0.000610763
0.00667085
0.000299478
0.00236995
0.00478431
5.53255e-05
0.00671986
0.00248916
0.00349144
0.00069559
0.0067326
0.00671804
0.00161082
0.00131225
0.00672096
0.0025355
0.00263172
0.000742844
0.00673164
0.00672083
0.00672067
0.00137898
0.00262633
0.00672562
0.0067152
0.00413239
0.000838331
0.000102474
0.000338454
0.00402233
0.000199711
0.000215862
0.000883448
0.000409955
0.0116397
0.00170335
0.00672339
0.00672019
0.00123833
0.00673099
0.000692354
0.00201179
0.00672477
0.00672521
0.000204443
0.00255261
7.25751e-05
0.000210551
0.000150303
0.00113787
0.00129139
0.0067288
0.00124615
0.00441282
0.000494811
0.00412099
0.000820135
0.00898473
0.00673084
0.00383622
0.0112043
0.000389029
0.00269131
0.00672099
0.00091701
0.0167091
0.000372069
0.000216202
0.00672331
0.00671475
0.00563299
0.00474819
0.000420626
0.00582851
0.00672084
0.00672167
0.0032628
0.00066942
0.00085382
0.000162084
0.00726228
0.00112069
0.00523918
0.00672866
0.00124668
0.00672241
0.00209507
0.000200974
4.11938e-05
0.00166314
0.00671924
0.00192697
0.0037242
0.000825959
0.000763695
0.00672502
0.000423264
0.00671762
0.0067274
0.00261628
0.000165486
0.00672606
0.00131981
0.00313708
0.000914516
0.00663208
0.00673029
0.00672348
0.00671896
0.00399444
0.000307466
0.000341842
0.000224497
0.000433669
0.000649932
0.000806751
0.00300011
0.00671363
0.00232165
0.00672563
0.000341386
0.00405917
0.00208695
0.000437101
0.00574198
0.000738949
0.00115638
0.000405618
0.00391979
0.000646949
0.000233106
0.000428357
0.0012698
0.00672254
0.00135284
0.000265547
0.00241132
0.000319524
0.00671887
0.00671948
0.00671881
0.000743142
0.000332833
0.00164636
0.00672518
0.00119141
0.00672625
0.0067257
4.99075e-05
0.00672215
0.00673797
0.00555658
0.006718
0.00390051
0.000261815
0.000231256
0.019413
0.00302942
0.000548315
4.61033e-05
0.00672312
0.000476309
0.00672624
0.00192695
0.000791699
0.00672118
0.000882349
4.4549e-05
0.00678833
0.00671792
0.000117672
3.65613e-05
0.00210266
0.00674607
0.00138775
0.000197528
0.00672078
8.08745e-05
0.000426929
0.00672573
0.00672554
0.00673047
0.00672623
0.00672183
0.00672913
0.00297537
0.00216064
0.00180893
0.00815979
0.00671506
0.00621731
0.000317857
0.00318636
0.00433376
0.000362172
0.0012416
0.0067388
0.00674317
9.81715e-05
0.00258114
0.000531974
0.00170224
0.00715526
0.001454
0.000359213
0.000949348
0.00671845
0.00599322
0.000212852
0.00671867
0.000523972
0.00516266
0.00410065
0.00147414
0.00107791
0.00672498
0.0067327
0.00192043
0.00672518
0.000956109
0.00120056
0.00673038
0.00705301
0.0192647
0.0067179
0.00202916
0.00157687
0.0067148
0.00671995
0.00672247
0.00266383
0.00672153
0.00676568
0.000450604
0.00130519
0.000333336
0.00672564
0.000514718
0.000413919
0.000644448
0.00672657
0.0067219
0.000420752
0.00260214
0.0067186
0.000350381
0.00431365
0.00672868
0.00112356
0.00672036
0.000220086
0.0067247
0.00671879
0.00374791
0.00671729
0.0028946
0.00672118
0.00177798
0.000465433
0.00671782
0.00416515
7.88517e-05
0.00152305
0.014646
0.0017026
0.00672598
0.00672591
0.000174388
0.0043566
0.00672521
0.00671959
0.00248039
0.000438724
0.0134652
0.0067251
0.000225051
2.27875e-05
0.000648645
0.00672546
0.00672251
0.00366768
0.00672413
0.00672638
0.0163408
0.0041961
0.00672131
0.000744628
0.000923338
0.000906589
0.00265522
0.00671835
0.000249377
9.77923e-05
4.19779e-05
0.00673599
0.00340303
0.00327809
0.0067181
0.0115033
0.000449012
0.00271129
0.00354099
0.00673547
0.00293667
0.00014601
0.00101145
0.00672268
0.00159969
2.50255e-05
5.1375e-05
0.000216399
0.0067201
0.00424683
0.00047706
0.00030239
0.0150523
0.000950875
0.000695228
0.000541845
0.00672424
0.00135706
0.00235571
0.00672401
0.00524947
0.00671971
0.00672757
0.000433887
0.00672429
0.000563021
0.0018201
0.000341768
0.00049902
0.00672504
0.00192313
0.00087794
0.000622823
0.000226347
9.67975e-05
0.00672598
0.000522442
0.00145256
0.00371239
0.00672209
0.00217434
0.00672112
0.000650938
0.000315275
0.000158543
0.00672272
0.0016
0.00671941
0.0067274
5.53068e-05
0.00671813
0.00118496
0.00051889
0.00671989
0.000295026
0.00039762
0.00672085
0.00481282
0.000552608
0.0067243
0.000369197
0.00287513
0.00672565
0.00326708
0.0067214
0.00672626
0.0011285
0.00278863
2.7797e-05
0.00133076
0.00672214
0.00210155
0.00041336
0.000649943
0.0067219
0.0014575
0.00463814
0.000701535
0.00395238
0.000490053
0.00674062
0.0010543
0.00673947
0.00671868
0.00787229
0.00673033
6.3172e-05
0.00672266
0.00221085
0.00671749
0.000679579
0.00672138
0.000513966
0.0025741
0.000331316
0.00672551
0.0126112
0.0067507
0.000955618
0.00672571
0.00312348
0.00671895
0.00115081
0.0067211
5.00391e-05
0.000368337
0.000484375
0.00141045
0.000243512
0.0054742
0.000234905
0.000429099
0.00671974
0.000371044
8.96197e-05
0.0159037
0.000453399
0.000427441
0.000788952
0.00223125
0.00672476
0.00136478
0.00114051
0.000711
0.00671836
0.00119879
0.000288273
0.00672547
0.00672715
0.00139967
0.0109378
0.00100251
0.000546014
0.000462919
0.00672523
0.0157459
0.00671927
0.00672206
0.00171713
0.00434119
0.0027757
0.000394242
0.0106881
0.00672045
0.000162343
0.00269988
0.000415725
0.000805845
0.000393857
0.000310712
0.000244802
0.00312623
0.00484868
0.0003339
0.00202479
0.00571268
0.000423414
0.0127597
0.00672624
0.00671866
0.0037534
0.00122673
0.00671893
0.00362729
0.000165951
0.00164352
0.00398648
0.00671968
0.00765548
0.0169368
0.00602752
0.00672566
0.00672281
0.00672605
0.000302193
0.000389099
5.37014e-05
0.00140829
0.00671874
0.0049646
0.0011888
0.00672106
0.00069823
0.00134149
0.00765368
0.00671992
0.00672115
0.000277127
0.00604005
0.000736404
9.9838e-05
0.00189132
0.00019094
0.0141484
0.00220822
0.0067275
0.00796433
0.00376796
0.000287742
0.00360188
0.000505349
4.59656e-05
0.000568623
0.0033939
0.00671918
0.00671804
7.19758e-05
0.00132257
6.71435e-05
0.00672566
0.0079777
0.000335912
0.00672238
0.00671998
5.74577e-05
0.00672301
0.00671752
0.000738658
0.0108679
0.0158688
0.00858693
0.00309453
0.000425925
0.000260398
0.00671764
0.00675308
0.00672383
7.49756e-05
0.00672413
0.00672226
0.000414966
0.00272455
0.000283207
0.0067218
0.00672216
0.00671993
0.00672288
0.000368044
0.00672394
0.00431624
0.000508796
0.000130586
3.34371e-05
0.0067243
0.000274891
0.0182519
0.0147271
0.00116614
0.00279082
0.00151704
0.00672582
0.00671543
0.00137305
0.000947313
0.0201115
0.00111786
0.00672218
0.00672414
0.016613
0.000264119
0.0033818
0.0067226
0.00672627
0.000326137
0.00671741
0.00672465
0.000758501
0.00129147
0.00672407
0.00483401
2.83172e-05
0.00395682
0.00133945
0.00672103
0.00176584
0.000197439
0.00672412
0.00114037
0.00672138
0.00116035
2.76701e-05
0.00672625
4.08699e-05
0.000783077
0.0177483
0.00674622
0.0012109
0.000792653
0.000314628
0.000115649
0.00152306
0.000642499
0.0065466
0.0014619
0.00674853
0.000193879
0.00672156
0.00672523
0.00672699
0.00672501
0.00039037
0.0067263
0.00672626
9.39505e-05
0.000537888
0.0068696
0.000327674
0.00126481
0.00902817
0.0017345
3.54459e-05
0.0067274
0.00044289
0.00027485
0.0140381
0.00125688
0.011192
0.00672569
0.0014335
0.00672024
0.00239516
0.00441447
0.000339972
0.000174178
0.000535671
0.00278951
0.00672212
1.71884e-05
0.00135731
0.00562023
0.000283188
0.000679894
0.0144585
0.00671995
0.000451187
0.00014362
0.00112201
0.00015369
0.00672605
0.00671582
0.00672604
5.25036e-05
0.0067227
0.00671969
0.00672533
0.00671966
0.00671881
0.00671959
0.00199223
0.00672282
0.00672298
0.00149661
0.000708949
0.000331768
0.00672156
0.0165945
0.00289094
0.00018865
0.00021756
0.012598
0.000569663
0.00145834
0.00148526
0.000618086
5.43399e-05
0.0125609
0.000331888
0.00672399
0.00672077
0.00130629
0.000195629
0.00340068
0.00970071
0.0034994
0.000375972
0.0136431
0.00049247
0.00183997
0.00537875
0.00663582
0.000994784
0.00672161
0.00672551
0.00148665
0.00671561
0.00672262
0.000237698
0.000700974
0.00672155
0.00382129
0.00158709
0.000216849
0.000435316
0.00672319
0.000856925
0.00033197
0.00162766
0.00672031
0.00942306
0.00180741
0.00566039
4.64694e-05
0.000913944
0.00353209
0.000906311
0.0215261
0.00447106
0.00672799
0.00107957
0.000604942
0.00672642
0.00355578
0.00672607
0.000974367
0.0067209
0.00672166
0.00228039
0.000128238
5.39693e-05
0.00672486
0.00387
0.00672151
0.00435936
0.00151006
0.00671615
0.000308236
0.000486974
0.00290065
0.00672041
0.00672424
0.00671899
0.00189689
0.0108827
0.000827125
0.00674691
0.00672237
0.000158649
0.01375
0.00672103
0.00671914
0.00672099
0.00674225
0.000312723
0.00053626
0.00675439
0.00672069
0.000718987
9.06193e-05
0.00672324
0.00672602
0.000766412
0.0029644
0.0010945
0.00169636
0.00971556
0.000412555
0.00672136
0.000844116
0.00297399
0.000514186
0.000351107
0.000908044
0.000623707
0.00672572
0.00357558
0.00108214
0.000406195
0.00539633
0.00582527
0.00672505
0.00233734
5.90502e-05
9.84722e-05
0.00140991
0.00194804
0.00671916
0.000491077
0.00298821
0.00296242
0.0083664
0.000960403
0.00268902
0.00672142
4.35843e-05
0.000172432
0.00671908
0.00235616
0.000312465
0.00471614
0.0067219
0.00672703
0.00036155
0.00140969
0.00116012
0.000522901
0.00187612
0.0067233
0.0188883
0.00671803
5.67257e-05
0.00672147
0.00121275
0.000239524
0.00259226
0.00672152
0.00349422
0.00143027
0.000992792
0.00672274
0.00672242
4.5011e-05
0.000578909
0.000354929
0.0115595
0.000221291
0.00672434
0.000214614
0.00435496
0.00371616
0.00672334
0.00264558
0.0067641
0.00170052
0.00672432
0.00174513
0.00672304
0.000669913
0.0211138
0.000512256
0.000313152
0.00386804
0.00672246
0.000452943
0.000604072
0.0067197
0.000904849
0.00619263
0.0138941
0.0090331
0.00672283
0.00110578
0.00672458
0.00175398
0.00672321
0.000243238
0.00672209
0.00401535
0.00675665
0.00185127
0.00132779
0.00672573
0.00672038
0.00308851
0.00102602
0.000346537
0.00377485
0.00116918
0.0015429
0.000254825
0.00377872
0.000531638
0.00146271
0.00319356
0.000952257
0.000856527
0.00672592
0.00671807
0.000517854
0.00502643
0.000157086
0.00135468
0.000101964
0.00222748
0.00672077
0.0054591
0.00048272
0.000289078
0.00672343
0.00118198
0.000372321
0.00157828
0.00672442
0.000930742
0.00672442
0.00126702
5.67341e-05
0.000872289
0.0027299
0.0010069
0.000672747
0.000306406
0.000278484
0.000770526
0.00164135
0.000923712
0.000368577
0.00286482
0.00167238
0.0040705
0.00367944
0.000886236
0.00561008
4.45873e-05
0.00254485
0.00280034
0.00015648
0.00672187
0.000461806
0.00126288
0.000692549
0.00407456
0.000167745
0.000665693
0.00671388
0.000728546
0.00935176
0.000146016
0.00497464
0.000924078
0.00671936
0.0049639
0.00119321
0.00672206
0.00671742
0.000434254
0.00305725
0.0010425
0.00505743
0.00671981
0.0176547
0.00353936
0.00672748
0.000973186
0.00672907
0.00674906
0.00672522
0.000713888
0.00207737
0.00672137
0.00673483
0.000365176
0.00157456
0.000911109
0.00672834
0.000301329
0.00140095
0.00510927
0.00138666
0.00672194
0.00671763
8.42388e-05
0.000346187
0.000610308
0.000969571
0.000331305
0.000354581
0.000426559
0.000393292
0.00112499
0.0124352
0.00405964
0.00283427
0.00671798
0.0067248
0.000267014
0.00671963
0.00604523
0.00732714
0.00224961
0.00672137
0.000909171
0.000281486
0.00672746
7.1016e-05
0.000210122
0.000212854
0.000403336
0.0106115
0.000367534
0.000341093
0.0216541
0.000548192
0.00179876
0.000711555
0.0057278
0.0148699
0.00176409
0.00037666
0.00672579
0.000716604
0.00672087
0.0083653
0.0141292
0.00672403
0.0028479
0.000288209
0.000527428
0.000448352
0.000290355
0.00672681
0.0105937
0.00298454
0.00580151
0.00578398
0.00672407
0.00401873
0.00671951
0.0010047
0.00132993
0.000502593
0.000369598
0.00672227
0.00672072
0.000936081
0.00216538
0.00672008
0.000648099
0.00672216
0.00672124
0.000724829
0.000323554
0.0067208
0.0116974
0.00209662
0.00672571
0.000916893
0.000354634
0.00672499
0.00672483
0.000310134
0.000153406
0.00441366
0.000895107
0.000370261
0.000365298
0.00993795
0.00672559
0.000383627
0.0128681
0.00773714
0.00672164
0.00369562
0.000420602
0.000567527
0.000292404
0.00172401
0.0109541
0.00043253
0.000282998
0.0024288
0.00671899
0.00282563
0.000627093
0.00672309
0.00672571
0.00780186
0.00672578
0.00674157
0.00597125
0.00140845
0.00672387
0.000358547
0.00218964
0.00154483
0.00672176
0.000698629
0.000759108
0.000226397
0.000582015
0.00276671
0.000313712
0.00672879
0.00498142
0.00372824
0.00672586
0.000209371
0.000349217
0.00382493
0.0028504
0.00672167
0.006716
0.000312918
0.00671948
0.000147664
0.00147531
0.00672243
0.0131928
0.00673506
0.00672194
0.0122495
0.000291215
0.000473688
0.00672552
0.0067274
0.00190882
0.00031893
0.00671822
0.00672825
0.00672667
0.000818785
0.00672549
0.000386033
0.00671749
0.00672127
0.0026536
0.0249102
0.00791643
0.00673735
0.00285294
0.000108817
5.30114e-05
0.000687296
0.0168864
0.0110783
0.00649583
0.00672256
0.00213054
0.00111676
0.0209621
0.00672073
0.00672605
0.000152624
0.000275054
0.00672422
0.00672537
6.76316e-05
0.00672604
0.00672154
0.000206178
0.00036403
0.00815767
0.00671912
0.000420026
0.000177304
0.000448331
0.00102291
0.000534857
0.00671964
0.00680519
6.36584e-05
0.000671426
0.0067201
0.000849037
0.00577839
0.00672411
0.00673331
0.00672556
0.000157983
0.00671917
0.00672131
0.00671299
0.00671942
0.000362068
0.00786409
0.0019192
0.001871
0.0114618
0.00969468
0.00672076
0.00362782
0.00672125
0.00672745
0.00672227
0.00672305
0.00671885
0.00672126
0.00671801
0.000744045
0.00255528
0.000295836
0.000640089
0.000812402
0.00672041
0.00105784
0.000432694
0.00199827
0.00672339
0.000261931
0.000423059
0.000377941
0.000520338
0.00673599
0.00443797
0.00141687
0.00672135
0.0036438
0.000721333
0.000517983
0.00116378
0.000642073
0.00672138
0.00672191
0.000294817
0.000545038
0.00103596
0.00611968
0.00672168
0.00671995
0.000279708
0.000303909
0.00072877
0.000321602
0.00153442
0.000155367
0.000491182
0.000295277
0.00125441
0.00433252
0.00679237
0.00671861
0.00672118
0.00672178
0.00130663
0.000512897
0.000511297
0.00271628
0.00672133
0.0108017
0.00242379
0.0015811
0.000245386
0.00194784
0.000287043
0.002678
0.00671817
0.000367352
0.00675232
1.95981e-05
0.0067239
0.000358971
0.00672626
0.000203313
0.000615619
0.00622719
0.00671943
0.00035825
0.00677291
0.00150174
0.000710629
0.00671982
0.00129889
0.0118705
0.000413103
0.00336978
0.000352914
0.00992851
0.000364204
0.00672086
0.000223665
0.000430599
0.0113289
0.00672146
0.00671979
0.00169798
0.000308211
0.00354182
0.00197126
0.00193782
0.0021234
0.0202936
0.00389582
0.00581008
0.000146337
0.00671914
0.000331601
0.000516136
0.0195731
0.000530473
0.00515817
2.48476e-05
0.00672137
0.00671845
0.00672147
0.000230646
0.000384186
0.00418584
0.000530266
0.00672203
0.00672545
0.00671731
0.00528858
0.00672607
0.00671607
0.0023179
0.000425722
0.00124667
0.00438833
0.0214447
0.00045056
0.000996823
0.00307987
0.000143785
0.00146976
0.000995829
0.000830036
0.00422077
0.000248978
0.000387958
0.00673305
0.00081317
0.000530803
0.000977431
0.00156532
0.00877119
0.00672508
0.000395334
0.00672276
0.00672385
0.000882137
0.000378892
0.00134365
0.00105567
0.00672221
0.000246748
0.000390663
0.000366063
0.000497436
0.00672627
0.00671864
0.000398789
0.000369774
0.00671944
0.000486872
0.00672006
0.00672041
0.00788055
0.00672885
0.0075744
0.00396303
0.000454829
0.00037709
0.00334254
0.000868628
0.000410795
0.000321902
0.00310306
0.000383371
0.00204722
0.00672554
0.00418704
0.0056236
0.0162815
0.00672271
0.00672748
0.00676895
0.00573043
0.000340524
0.0159257
0.00321631
2.41084e-05
0.00672407
0.00671717
0.00671972
0.000727791
0.00143254
0.000886777
0.00672153
0.00280791
0.00386289
0.00672531
0.00672543
0.000601701
0.000285508
0.00675362
0.00348026
0.000153282
0.000316468
0.00672357
0.00491356
0.00032645
0.00624129
0.00674932
0.00341206
0.000345108
0.00590136
0.000373787
0.000559283
0.00190185
0.00660522
0.00044822
0.00671777
6.02394e-05
0.000496484
0.00154425
0.00278259
0.000240396
0.00671436
0.00672756
0.00255356
0.000293471
0.000366191
0.00175235
0.000380795
0.00674835
0.0113941
0.000446307
0.00664809
0.0182967
0.0221315
0.00106933
0.000348377
0.000422785
0.00598927
0.00759495
0.00202061
0.000911172
0.000577895
0.00180335
0.00672034
0.00015037
0.00672093
0.00671752
0.00672051
0.000210907
0.00429715
0.00671815
0.00608123
0.00672002
0.00401585
0.00672475
0.000450993
0.000133609
0.00160387
0.00672521
0.00023781
0.00184474
0.00672162
0.00672342
0.006764
0.00672167
0.00671876
0.000837002
0.000349398
0.00672452
0.000717532
0.000141378
0.00539936
0.000505171
0.0155128
0.00154843
0.00672858
0.00672165
6.62193e-05
0.00672413
0.00672399
0.000882393
0.000718982
0.00251084
0.000375685
0.006718
0.00671703
0.00671897
0.000119913
0.00688446
0.00619671
0.000396497
0.000129695
0.00194379
0.000492875
0.00672248
0.000228886
0.000598567
0.00187931
8.65286e-05
0.000749275
0.00926095
0.00672411
0.0067201
0.0115419
6.40696e-05
0.000913003
0.000410547
6.6378e-05
0.000611682
0.000162562
2.67823e-05
0.000913709
0.00132884
0.00358657
0.000547296
0.000649215
0.000867118
0.000203974
0.0069277
0.00672628
0.00211905
0.00671978
7.8723e-05
0.0067131
0.00197309
0.000620246
0.000981518
0.00112507
5.6679e-05
0.000261691
0.00671832
0.00192235
7.32598e-05
0.000497794
0.0067216
0.0015918
9.20779e-05
0.000327342
0.000285668
0.000353504
0.00144148
0.000138498
0.0067219
0.00672394
0.0122579
7.83535e-05
0.00150849
0.000258487
0.0124642
0.00198398
0.00154488
0.00671921
0.000464806
0.00672036
0.00672181
0.000169903
0.00217707
0.00687639
0.00573618
0.000495227
0.00671608
0.000578971
0.000977725
0.000141256
0.000202738
0.00206985
0.00671836
6.63887e-05
0.000369005
0.00672104
0.000571538
0.00236108
0.0110076
0.00643545
0.000517716
0.000117605
0.000357926
0.00672575
5.74485e-05
0.000199805
0.000386572
0.000613001
0.00671975
0.00990802
0.006732
0.00114642
0.00178612
0.000863828
0.00673992
0.00675417
0.00271477
0.000331178
0.006264
0.00671897
0.00456577
0.00401618
0.0067214
0.00253782
0.000305191
0.00251598
0.0212724
0.000942729
0.00672116
0.000282647
0.00132832
0.00695748
0.00672608
4.28623e-05
0.00673122
0.00672128
0.00214079
0.000481782
0.0171924
0.00672284
0.0072067
0.00226437
0.00671968
0.00132577
0.0100848
0.000992799
0.000135351
0.00803143
0.00672606
0.00197663
0.00191606
0.0065892
0.00337109
0.00672164
0.000695028
0.00152886
0.00228215
0.00672203
0.00671696
0.00174002
0.000965225
0.00672503
2.72865e-05
0.00671946
0.00198629
0.000316484
0.00193085
6.06923e-05
0.0120333
0.00118701
0.000109089
0.00095739
5.03844e-05
0.000328244
0.00461974
0.00472781
0.00123142
0.00109814
7.31671e-05
0.00671995
0.000608924
0.0067186
0.0067192
0.0213025
0.00672462
0.00305697
0.0067338
0.0008238
0.000430989
0.00671637
0.00671963
0.0110174
0.0104689
0.000269282
0.00672168
0.000835947
0.000491214
0.00672237
0.00064349
0.000294742
0.000555433
0.00688874
0.00392734
0.00152339
0.00671714
0.00672234
0.00671759
0.00672378
0.00225803
0.00109087
0.000562764
0.00672201
0.00672276
0.000568338
0.00149458
0.006735
0.000304923
0.00675105
0.000297892
0.000391234
0.0115863
0.000442628
0.000123523
0.00012247
0.00673787
0.00671825
0.000282817
0.000723375
0.00672181
0.000368587
0.00673099
0.00672168
0.00672225
0.000423682
6.61953e-05
0.000349687
4.66152e-05
0.000869923
0.000522103
0.00392378
0.00328748
0.00065612
0.00127352
0.00672071
0.00507755
0.000379935
0.00805378
0.000285907
0.00755521
0.00117721
0.00618752
0.00826786
0.00313845
0.0117824
0.00627837
0.00674712
0.000539064
0.000671662
0.000774165
0.000258548
0.00465109
0.0102346
0.00100088
5.91719e-05
0.00213759
0.00273047
0.000903781
0.00103654
0.00672279
0.000172162
0.00391095
0.00219124
0.00132176
0.00922618
0.000137121
0.000102028
0.00672577
0.00519168
0.002861
6.151e-05
0.0034516
0.000952785
0.00671851
0.000168555
0.000356531
0.000551515
0.00663158
0.00885892
0.0067414
0.000286459
0.00672206
0.00135423
7.19414e-05
0.00114575
0.00127342
0.000317723
0.0067131
0.000420099
0.00224706
0.0132116
0.00127161
0.00672016
0.00671915
0.00010175
0.000401936
0.000226718
0.0115066
0.000406695
0.000332894
0.00675936
0.0104039
0.000354091
0.000480243
6.28717e-05
0.00120703
0.00615224
0.00431991
0.00350419
0.00699323
0.00378123
0.00241965
0.000372345
0.00050501
0.00530827
0.00292787
0.000386569
0.00671994
0.0104717
0.00672266
0.00672114
0.00671815
0.000620567
0.00672081
0.0087086
9.3375e-05
0.000613253
0.00679022
0.000335632
0.000141399
0.000600679
0.00361627
0.00239065
0.000887044
0.000274327
8.73595e-05
0.00496659
0.00675445
0.00671864
0.00830795
0.00672213
0.00414179
0.000684352
0.00169296
0.00219783
0.00672031
0.00804769
0.00672309
0.00672066
0.00294866
0.00276648
0.00108734
0.000928228
0.005809
0.00032364
0.00064361
0.0133467
0.00477234
0.0106929
0.00672646
0.0117489
0.00194594
0.0103304
0.000389712
0.00279244
0.00672572
0.0116076
0.00374695
0.00111294
0.00672229
0.000834074
0.0106655
0.00671784
0.00672112
0.00636935
0.00672553
0.00402281
0.00732153
0.00436352
0.00671385
0.00961239
0.00772997
0.00672204
0.0139251
0.00672552
0.00940501
0.011373
0.00039148
8.69786e-05
2.49443e-05
6.80311e-05
0.00717217
0.000387627
0.00305288
0.00672562
0.00671955
0.0111789
0.00753216
0.00129196
0.000403044
0.0073419
0.0067332
0.00514662
0.00429148
0.00413909
0.0067374
0.000998728
0.000388087
0.00560207
0.0097315
0.00672534
0.00514412
0.0163232
0.00613709
0.00672207
0.000328769
0.00672259
0.00680175
0.00671779
0.0171358
0.000321396
0.00672014
0.00672255
0.0254636
0.00362995
0.000251478
0.00671976
0.00900221
0.00672172
0.000104512
0.00322454
0.00882051
0.0100962
0.000492014
0.000379747
0.000399203
0.00672153
0.000148654
0.0103142
0.00516384
0.000329426
0.00672298
0.000339304
0.00672228
0.0108043
0.0257589
6.66929e-05
0.00740068
0.00970849
0.000169267
0.00243557
0.000107129
0.00671811
0.00423159
0.000600305
0.00032174
0.00432057
0.000316365
0.000302099
0.000352326
0.00217685
0.00387337
0.00672383
0.00239682
0.000315025
0.00848635
0.0176255
0.000423073
0.00672759
0.000158446
0.00458275
0.000273761
0.00422643
0.00672146
0.00101565
0.00116338
0.00325391
0.0050589
0.000446183
0.00181224
0.00672271
0.000419262
0.000316665
0.000374957
0.00671998
0.00672137
0.000288598
0.000327092
0.00672608
0.000408416
0.00035539
0.000310978
0.00675907
0.000152922
0.000355801
0.000292222
0.0123829
0.000560022
0.00570788
0.00672567
0.00682057
0.00672606
0.00318744
0.00672185
0.000315868
4.28492e-05
0.000484974
0.000992932
0.000478056
0.00672362
0.000550846
0.0024942
0.000300845
0.00030923
0.00458021
0.00054185
0.00452325
0.00671713
0.00156464
0.00672219
0.000130239
0.00673602
8.26554e-05
0.000327039
0.000480621
0.0059284
0.00606231
0.00685464
0.00672459
0.00671938
0.012215
0.00567613
0.00671987
0.00672354
0.0138901
0.000326775
0.000541025
0.000605299
0.000974932
0.00672087
0.000503179
0.00671998
0.000154417
0.00672608
0.000283904
0.00566043
0.0033141
0.00128723
0.000976547
0.00129039
0.000416754
0.000569762
0.000110559
0.000334157
0.000345791
0.000331141
0.000320544
0.00528075
0.00654859
0.000689486
0.000556402
0.00315968
0.0022115
0.000108285
0.00672187
0.000152745
0.000843539
0.000335593
3.17475e-05
0.000215067
0.00015037
0.000156323
0.00015461
0.00672415
0.000583895
0.00672184
0.000183334
0.000259829
0.0134105
0.00672576
0.000293608
0.000489924
0.0131511
0.000232655
0.000413529
0.00672205
0.000308852
0.00671898
0.00037828
0.00137313
0.0140454
0.00672866
0.000532218
0.00672011
0.000308604
0.000363619
0.000476384
0.00299811
0.00672106
0.000874362
0.00014862
0.00672012
0.00416713
0.00968394
0.000329975
0.000496804
0.000329717
0.00450115
0.00457635
0.00513604
0.00018535
0.00676811
0.00239343
0.000585724
0.00466834
0.00019349
0.00512685
0.0114627
0.000224524
0.000339975
0.000319866
0.00153944
0.00672513
0.0042203
0.000145375
7.86971e-05
0.000459696
0.00604858
0.00672352
0.000938413
0.00045099
0.00916359
0.00673919
0.000322356
0.00671256
0.0122982
0.0067185
0.00672212
0.000180943
0.00671912
0.00183844
0.000289854
0.00232874
0.00181434
0.0052073
0.000314592
0.000658036
0.0233004
0.00672136
0.00219686
0.0067171
0.000323593
0.00672293
0.00037323
0.000482342
0.0136383
0.00695176
4.30782e-05
2.71213e-05
0.000234094
0.000350788
0.000118595
0.000434463
0.00672525
0.00672223
0.00995785
0.000122357
0.00671704
0.00671949
0.0067187
0.000861042
0.000191185
0.00672517
0.000298659
0.000329248
0.00035812
0.000105252
0.00671925
0.00672506
0.0184902
0.00152757
0.00674686
0.0180659
0.00897029
0.00673353
0.00672201
0.000534528
0.00672106
0.000173883
0.00672524
0.00240367
0.00672572
0.0240542
0.00285932
0.00234315
0.000532157
0.00311503
0.000471538
0.00673317
0.00383572
0.00672553
0.000554363
0.000362091
0.00454525
0.000315428
0.0067261
0.00672389
5.29319e-05
0.00635586
0.00672237
0.00672172
0.00672342
0.00290769
0.00673312
0.0067234
0.00142735
0.00672047
0.00488218
0.000152327
0.00673211
0.00672115
0.00672338
0.00222753
0.00810393
2.85025e-05
0.00269269
0.00215504
0.00367105
0.00672608
0.000477022
0.00672055
0.00671915
0.00119303
0.00671923
0.000431303
0.00046573
0.000233515
0.00402152
0.000383013
0.0036576
0.000556885
8.24109e-05
0.00379882
0.00705571
0.0168407
0.000383609
6.6722e-05
0.0043851
0.00610428
0.000162322
0.000404717
0.00501657
0.00671725
0.00216178
0.000363343
0.00672214
0.000293701
0.00672225
0.000347386
0.000128612
0.000238674
0.000453282
0.00436494
0.00163278
0.00688291
0.00689412
0.00672666
0.00472927
0.00125243
0.00326106
0.000115792
0.00167923
0.000414277
0.00432345
0.0124897
0.00672716
0.00672181
0.000280821
0.00672574
0.000224333
0.000394701
0.000316963
0.00419502
0.0012782
0.00327487
0.000326872
0.00231541
0.000109416
0.00105188
0.00207546
0.00673712
0.00048626
0.0111237
0.000406874
0.00015345
0.0176844
0.00147392
0.000267311
0.00671828
0.0121091
0.00319324
0.00138723
0.00149453
0.00034268
0.00320492
0.000304135
0.000411294
0.000918088
0.00672208
0.000826594
0.00672389
0.000397495
0.00671948
0.00672379
0.00298811
0.000589239
0.00193746
0.00264247
0.00208448
6.20136e-05
0.00672133
0.00942399
0.000322022
0.00462911
0.00147149
0.000393563
0.00673475
0.00612164
0.0164838
0.00671984
0.0135292
0.00054566
0.00081637
0.00125974
0.00250603
0.00337215
0.00418458
9.08682e-05
0.00140385
0.00671886
0.00351969
0.00339485
0.00200698
0.000311461
0.00678069
0.000350099
0.000330283
8.49408e-05
0.00672048
0.0027338
0.0034503
0.000821949
0.00119219
0.00150435
0.000909639
0.00768706
0.00446055
0.00157141
0.0257605
0.000823227
0.000485262
0.00022981
0.00436834
0.0067257
0.000884033
0.000354361
0.000671108
0.00326604
0.0133992
0.000358197
0.00372745
0.00468174
0.00169875
0.00671649
0.00672376
0.0156416
0.00285455
0.00039939
0.000450185
0.000927332
0.00064207
0.000452029
0.00672152
0.00672237
0.000752141
0.00672042
0.00672117
0.00460197
0.00384833
0.000371837
0.00672339
0.00206063
0.00539869
0.000144444
0.00672224
0.00943822
0.00672678
0.00210915
0.00671702
0.00672519
0.00141498
0.00291224
0.000353203
0.00111583
0.00672165
0.000558659
0.00260411
0.00672556
0.00276539
0.000279792
0.00214121
0.00672089
0.00672106
0.00672126
0.000835721
0.0067209
0.00672103
0.000337693
0.00672154
0.0032725
0.00147296
0.0180921
0.000408902
0.00259392
0.00047068
0.00647381
0.000343778