/*--------------------------------*- C++ -*----------------------------------*\
| =========                 |                                                 |
| \\      /  F ield         | OpenFOAM: The Open Source CFD Toolbox           |
|  \\    /   O peration     | Version:  v2012                                 |
|   \\  /    A nd           | Website:  www.openfoam.com                      |
|    \\/     M anipulation  |                                                 |
\*---------------------------------------------------------------------------*/
FoamFile
{
    version     2.0;
    format      ascii;
    class       volScalarField;
    location    "650";
    object      omega;
}
// * * * * * * * * * * * * * * * * * * * * * * * * * * * * * * * * * * * * * //

dimensions      [0 0 -1 0 0 0 0];


internalField   nonuniform List<scalar> 
10042
(
0.0219075
0.0220487
0.0218442
0.0229647
11.6708
0.02207
5.8013
2.3826
0.0217206
0.0220087
5.39546
0.022911
0.0215271
0.02149
0.0234542
0.022031
0.0220223
0.0222585
0.0219102
0.128506
0.0219021
0.233673
0.0215774
0.021614
0.022056
0.0286986
0.0221324
0.0226511
0.0217715
0.0223401
0.0220183
5.54822
0.0220197
0.0222224
0.0259336
0.0216261
0.0279029
0.0331031
0.0216287
0.0292735
0.141307
0.0230924
5.6234
0.0219864
11.8276
0.0602038
0.0222933
0.0986736
0.0270286
0.0498307
0.022167
0.0221195
0.0231222
0.022701
0.0279362
0.0220627
0.0217714
0.0222623
0.0222147
0.02293
0.0220438
0.022001
0.0261104
0.0218285
0.0222084
0.0222289
0.0220202
0.0718128
5.17705
0.0218742
0.0226397
0.153401
0.0219919
0.0316639
0.0219985
0.0216106
11.1153
0.0219207
0.029661
5.61897
0.0263063
12.5048
0.0219755
0.0227346
0.0220256
0.0222138
0.0218858
0.153034
0.0219326
0.0218877
0.0221273
12.7684
0.0227223
0.0220584
0.0222963
0.0218497
0.0219315
0.0218465
0.0287675
0.0217633
0.0222908
0.104684
3.88135
0.0222024
0.0225433
0.0503197
0.0219086
0.0219249
0.0219105
0.0214378
0.0217082
0.0218252
0.025547
5.10337
0.0221974
0.0218385
0.0219395
0.0219162
0.0218469
6.31354
0.0219256
1.57139
0.0220163
0.0219815
0.103551
0.0219788
1.42248
0.0277833
0.048544
0.0218796
0.0306065
0.0219928
4.78807
0.200665
0.0217642
0.0573522
5.06403
0.0221344
0.102981
0.17554
0.0226543
0.0219364
0.0224321
0.146406
0.021819
0.0218251
0.0568732
0.0215145
0.0218586
0.0251288
0.0217377
0.0222555
3.91253
5.37195
0.0221858
0.0215221
0.0225362
0.0219926
0.0577833
11.421
6.12678
0.127923
0.0219846
0.0217402
0.0220362
0.0219761
0.0587691
26.6758
5.91542
5.88382
0.0223773
0.0218387
13.0959
0.163541
0.0375951
4.80526
10.3351
0.0220022
0.0831863
0.0313974
0.0226726
5.92261
0.0220676
0.0276766
0.0229708
7.35296
0.245478
0.0220348
5.55005
0.0236895
2.83913
0.0224281
3.77361
10.5985
0.100871
5.83515
0.0251633
0.0219213
0.0215274
0.0232869
0.0364134
0.0220683
0.0218183
0.170624
0.0220576
0.0216708
4.3322
0.0221571
0.0222603
0.0222428
1.65043
0.0218237
0.0545466
0.301848
0.0225111
0.254402
0.0219525
0.0219878
0.0643128
0.0217667
0.0256464
0.0226579
0.367623
0.034288
0.0252201
0.0296123
0.328454
0.0218318
0.161959
0.0228371
0.0217188
0.130043
0.0218471
0.0227992
0.0218763
0.025315
0.0216988
0.0214748
0.0230616
0.0254968
0.0219917
0.0220214
0.0219947
0.0256143
0.021839
0.0220274
0.0216151
0.0226016
0.0225145
0.0222689
0.0215284
0.0218658
0.0241539
0.489182
0.128278
6.56608
0.0381288
0.0369086
0.0236247
0.0675788
5.47114
0.0228635
0.0219123
0.0214921
0.0232195
0.021699
0.243156
0.0230423
0.0218815
0.0222503
0.038229
0.0225556
0.281095
0.0375012
0.183364
0.0237644
0.0254563
0.0217039
0.0247642
0.0218422
0.0325761
0.0219026
0.0287645
4.80582
0.021673
0.0218052
5.5911
0.0615658
0.0220037
0.0220425
0.0238766
4.80262
0.054315
0.153249
0.022182
0.0215232
0.0218324
0.021735
0.312681
0.0218763
0.0220376
0.0218361
0.0219538
0.0341603
0.0236589
0.0751605
9.48033
0.0227617
8.65765
0.021842
0.0245455
0.0221239
7.7208
0.104079
2.28172
12.2747
0.0215949
0.0230556
0.0218788
0.0238515
0.0296885
0.0222416
0.0324734
0.0217029
0.0214864
0.0220093
0.0810039
0.0222839
0.0233906
0.0219576
0.0235205
5.96048
0.0218419
0.0221763
0.0219883
0.0218019
0.0414384
0.101307
0.0367652
3.11102
0.0345953
0.0267477
0.0219729
0.021473
0.022198
0.022268
0.567449
0.0219027
0.0222293
0.111415
0.0218208
0.0245054
0.0228483
0.11769
0.0218295
0.0250305
0.0457118
0.0322023
0.0232095
0.021927
6.52526
0.0577495
0.0221892
0.0410797
0.0219465
0.0218509
0.0219442
0.0244619
0.932997
0.0239904
0.0222493
0.0227066
0.0222923
0.0222708
0.126805
0.0219252
0.0216002
5.19237
0.0218363
6.00179
0.476904
0.0322825
4.33966
7.51126
0.0275626
0.135868
0.0221589
0.0516255
0.0222913
0.0222045
0.238334
0.0220652
0.024096
12.3218
0.0219469
0.0219035
0.0493473
2.16904
0.0221529
0.0215157
5.59386
0.104803
0.0218349
0.0722295
12.2787
0.0217655
0.022264
0.0216271
0.0218635
0.02147
0.021666
7.98491
3.78151
0.0222383
9.89429
0.0214922
0.0218768
0.587156
0.0219673
5.60119
0.0587081
0.0227464
0.0215705
0.0215097
0.13555
0.0224702
0.0275631
0.0223338
4.94645
0.0224034
6.59355
0.0232608
0.0219339
0.0218384
0.638841
0.0219498
0.0255101
0.0218631
0.0218117
8.11123
0.0252358
0.0219279
0.0217387
5.9482
0.0218713
0.0255839
0.0232033
0.0217042
10.0858
4.35871
0.021882
0.0221421
0.0241571
0.021528
0.0220076
0.02197
5.77704
0.021994
0.0217064
0.0282149
2.25103
0.0580887
0.0222685
0.0310228
17.8464
0.0361497
0.0219338
0.0219332
0.200675
0.0221218
0.0219402
0.0289386
0.0217596
0.021667
0.0227986
0.0215565
0.0374369
0.0219054
0.021954
6.88374
0.0217599
0.0222996
0.0220672
0.0222739
0.0323405
0.0218864
0.0217829
1.88442
0.0224514
5.93158
0.0228346
0.022282
0.0222767
0.127425
0.0218987
0.0219327
0.0220128
0.0222574
0.0274675
6.17567
0.0218749
0.0373122
4.51856
0.0359886
0.0222611
0.0219561
0.021954
0.0222032
0.0218534
2.00531
5.17119
0.0220752
0.0278054
0.0281993
0.0276436
0.022006
0.0216536
0.449476
0.129525
3.2375
0.0215681
0.0220019
0.0219341
0.0218412
5.68459
0.0342194
0.0222638
0.021825
0.0217934
0.0219771
0.609027
0.0252298
0.0221399
7.02967
1.3373
0.399385
0.0512119
0.0220153
0.0217729
0.0576095
0.0519478
3.10011
26.349
0.0245575
0.0257929
0.0222106
0.0233359
0.0221324
0.0221999
5.63833
0.0216088
0.0218455
0.0574621
0.0222104
0.268055
0.0226666
0.138486
0.0289903
0.0222448
0.022958
0.0259382
0.0382069
0.0511635
0.0808894
0.0222823
0.049754
0.0228138
0.0218498
0.022119
0.0222252
0.0220337
0.024801
0.0583861
0.0404749
0.0221432
0.0225071
0.0220088
0.0219121
0.126318
0.0219288
0.0231717
0.200608
0.021559
0.0520074
0.0777872
0.0220398
7.308
0.0415821
0.0222099
0.271554
0.0219247
0.0222686
0.021953
0.0219782
0.0222924
0.0237747
0.0219837
0.972357
0.0226543
0.021961
0.0221489
0.0327771
0.0329537
0.0219767
0.0239405
0.0217739
0.0320438
0.0219273
0.029112
0.0216031
0.0228793
0.0215111
0.0219303
9.37983
0.0216339
0.110895
0.0219652
0.0225629
0.0217408
0.0328566
0.0220756
0.0429149
0.0220008
0.235306
0.0222621
5.77814
0.0215095
0.0233579
0.0222715
0.0219674
0.0219582
0.0237241
0.0220333
0.121587
32.1071
0.23751
0.0236436
0.0358753
0.0218108
0.0378348
0.0601011
0.022012
0.0286132
0.0850175
3.32456
0.0786313
8.64489
0.026693
0.0220939
0.0222313
0.0244512
0.0237687
0.0351441
0.0215998
0.0232615
0.115605
0.0222649
0.0219131
0.024287
6.61937
0.0232171
0.0299759
0.0572892
0.0222515
5.41505
0.0216158
0.0218243
0.0223642
0.0217663
6.68847
0.0689171
5.76701
0.0220568
3.75583
11.471
0.446861
0.0349334
0.0682133
0.160671
0.0398231
0.0219583
0.0218668
0.0297197
8.65523
0.0218033
0.028853
6.33774
0.0218996
0.0219059
0.0218557
0.0228102
0.0219498
0.0218609
0.124781
7.71935
0.021843
0.0219986
4.79872
3.08431
0.021815
0.0219379
0.022155
0.0218668
0.632088
0.0687424
0.26466
0.0225403
0.0218998
0.0217158
0.0226963
0.0220527
0.032224
0.0225497
9.10836
0.0220056
0.0220755
0.0401375
0.0217991
0.0328665
0.0645106
0.0227893
29.7063
4.70752
0.0221001
0.0218495
8.62373
6.63391
0.0348985
0.0219001
2.94586
0.179953
0.0254456
0.0219427
0.021995
0.0219222
0.324551
0.0236138
0.0924827
0.0222685
5.55236
0.871657
0.021959
0.0219871
0.114385
0.0221507
0.021738
0.0248706
5.20148
3.20559
9.45038
0.022197
0.0591349
0.0381789
0.0216404
0.0218552
0.0221939
0.309695
0.0222061
0.0219553
0.0590921
0.0219963
0.0631717
0.0221115
0.022107
0.0216867
0.0221514
0.183936
0.0221992
0.0218608
0.0408649
0.0547137
0.385594
0.0222101
0.0884685
2.65193
5.95678
0.0228449
6.12475
9.70464
0.021901
0.0215386
0.0225874
0.0231774
2.15889
0.0232663
0.0221229
0.0222063
3.16659
0.0367238
0.0221415
0.0221424
0.021933
0.0414871
0.0217523
0.0218313
0.0310515
0.0227419
0.0222045
0.0217334
1.37534
0.0218063
0.0226649
0.022028
0.0223109
0.147799
0.0222031
0.0229301
0.0220716
0.0247032
0.778628
0.0222919
0.362042
0.0256193
2.54103
0.021647
0.0232773
0.0305351
0.0882474
0.0496004
0.0225396
9.58688
5.41054
0.0224423
0.021784
0.365621
0.0220789
0.0222511
0.0217234
0.0222418
0.0500124
0.0222928
0.0222931
0.0636706
0.0280553
0.022791
0.0308678
0.0226583
9.69745
0.0229806
0.855395
0.0218596
0.0575159
0.0362656
5.08984
0.0238871
5.35531
0.0222695
0.0247401
0.0220424
0.0220492
0.021904
0.131873
0.0395691
0.0472897
7.87369
0.0221199
10.4339
0.024987
0.0217466
0.0309129
0.0297797
4.37348
0.0219813
0.0277514
0.0504098
0.0232255
0.0409949
0.0222838
0.0215708
0.0222833
0.302881
0.0221345
0.0220036
0.0217318
0.0217233
0.0219346
0.0219879
0.022228
0.0218464
0.0221516
0.0224017
0.0250415
0.0303896
0.0219888
2.91505
0.0219522
2.83533
0.0364658
3.1158
0.0356721
0.0245724
5.77537
0.0334128
0.316902
7.02682
0.0410638
0.0221994
0.0218425
0.0227988
0.151902
0.0218595
5.4922
0.0218617
16.6034
5.62993
0.0542528
0.0226619
6.32416
5.21131
0.0230759
0.0219773
0.0222639
0.0239469
0.021561
0.0216643
0.0567026
0.227772
0.022078
0.0218534
0.0223071
0.640427
0.060967
0.0221567
0.0249767
0.0883885
0.0223933
0.022027
5.15942
0.0222449
0.0218741
10.9157
0.0238388
0.0219395
5.7862
3.99525
9.67313
0.0219086
0.0230431
0.4043
0.0217305
0.0218352
0.0222843
0.0283685
0.0220431
0.0221116
0.0229931
0.0452552
0.178193
0.02178
0.0219262
0.0220789
0.0218016
0.0224842
0.0215955
0.138593
0.0282736
0.0219498
0.0219821
0.0217635
0.021975
0.0223442
5.3933
0.0283442
0.021508
0.0219234
0.040321
4.34077
0.0220418
0.021982
0.0220279
0.0215173
8.95552
0.0472863
0.0217125
0.0220669
0.0290081
0.103777
0.0221695
0.0222828
0.0247193
0.0219449
0.0253887
0.0223129
5.95127
0.0344052
0.0220697
0.0256169
13.2086
0.0278542
0.15395
0.0248876
0.401686
0.0222709
0.0220106
0.0246774
0.0655527
0.0218927
0.0217187
0.0222436
0.0224819
0.104959
0.119012
1.10706
0.022507
0.0219924
0.0279166
0.0219613
0.0219583
6.40097
0.0235344
0.021951
0.0219817
0.28224
1.16956
0.0219909
0.0220429
0.0901189
0.0217367
0.0221039
0.0219302
0.0878302
0.0229068
0.0254043
11.4518
0.0222238
0.0221686
2.59644
0.0219056
0.162859
0.0218943
0.0232535
0.0412637
0.0219784
0.0220896
0.0220709
0.0232729
10.0568
0.0219165
0.0221354
0.21094
0.0254242
0.271298
6.17571
0.0460968
0.0222122
0.424252
0.0217829
9.8452
0.0221682
0.0219865
0.0216827
6.46352
0.0222123
0.0223013
0.0221602
0.0328135
2.31029
0.0278431
0.0482859
0.0218991
0.0221354
0.0363925
0.0286367
0.0218331
0.0250106
0.0218807
4.60522
4.85807
0.0221393
0.0228337
0.0222229
1.58652
0.0221574
19.7778
0.0219766
0.0217835
0.0217054
0.0223534
0.0235625
0.0222715
0.0219884
0.0219839
2.31994
0.104413
0.0218399
0.0242369
0.0236336
0.0403035
0.021799
0.0255638
0.0227973
0.0219528
0.0230979
0.0298174
0.0222802
0.0219124
0.0264451
0.0217218
0.157099
0.0229944
0.141757
0.0220912
0.0220371
0.0217435
0.0711218
0.0389782
0.0217658
0.0242561
0.0707793
0.0223891
0.021769
0.0252577
0.0222247
9.39109
0.215937
0.0247431
7.37529
0.0230066
0.0335854
0.0902315
0.0370411
0.0323684
5.51492
0.0289145
0.128275
0.0219585
0.022835
0.0218381
0.0219365
0.0260428
0.0217492
0.192606
0.0219718
0.0219845
0.07346
0.0219379
0.053695
0.0251128
0.0252102
0.0218642
0.0416759
0.201923
0.021415
0.0307494
6.26021
0.0413808
0.0217188
0.0289376
0.0219935
0.0217654
7.91857
0.0218295
0.0217813
0.0484313
0.0219454
0.0262496
0.0217381
0.0220006
4.79797
0.0218328
0.0216573
0.0244719
0.0219068
0.0214981
0.0222518
9.91921
0.0221266
0.0220848
0.0215585
0.0830323
0.0223579
0.0243382
0.0219233
0.0340574
0.0226017
0.0218953
0.0227822
0.0221005
0.0217775
0.114792
0.0410675
0.0284968
0.0233591
0.0445217
0.0725403
0.0271648
0.027825
0.0228466
6.71818
0.0219277
0.021953
0.0219231
0.0222384
0.0348793
0.021892
10.1951
4.85194
5.50955
0.0220844
0.024482
0.038327
0.0215213
0.0868196
0.0463295
0.81473
0.0652725
5.21448
0.0726883
0.162933
1.88949
0.0280382
0.0227971
0.0249136
0.0217678
3.76302
0.0224818
0.0288364
0.0217964
0.0248763
0.0220442
4.99039
4.60764
0.0222037
5.29679
0.633395
0.188248
0.0451935
0.0637689
0.0216616
5.72468
0.0219595
8.33965
5.36968
0.0222044
0.021899
0.0220014
0.0232551
0.0244591
0.0347933
0.184689
0.0221252
0.0220386
0.0249404
0.0222835
0.0220361
0.0258419
0.021833
0.0220588
0.208118
0.060727
0.0220408
7.11366
0.0226958
0.0222721
0.0233242
0.283303
0.0219362
0.0217272
0.108731
0.182534
0.021766
0.0250181
0.694994
0.0533009
4.76181
0.0217773
0.157165
5.20885
9.89152
0.0220832
0.0219114
0.0613373
0.025986
0.0405202
0.0222917
6.76768
0.0484551
0.179567
0.0220353
0.021976
5.48417
0.188361
0.0221503
0.0222723
6.15822
0.0219185
0.0215803
0.0217186
0.0232749
0.0221969
0.0292623
0.022098
0.0234489
0.0216152
0.0321424
21.8043
0.0579786
0.0340246
9.32812
0.0749164
0.0216346
0.0217631
0.0218473
0.0222837
0.125034
0.0294026
0.0219638
0.0219715
0.0219704
0.0216026
0.0319028
0.0216098
0.047467
0.0237488
0.0221241
5.15841
5.27238
0.0221025
7.54578
0.0334118
0.0327892
0.0222641
0.0216153
10.9183
0.0729679
0.021921
0.021723
0.0219297
0.0261417
0.0222624
0.147611
0.0215158
0.0220591
0.021987
2.06769
6.45254
0.0215015
0.021987
0.143935
0.45605
0.0244452
5.02091
7.02435
0.0216933
0.0221421
0.022113
0.0229502
2.08332
0.0220371
0.0222844
0.183839
0.0911974
0.0222123
0.0219415
0.0713779
0.0222836
0.0220746
0.105728
0.0802197
5.54009
0.0219829
0.0741566
0.0403822
0.0555178
0.0230111
0.0272349
0.021935
0.0219288
0.118381
0.025647
0.0219954
0.0246451
5.2667
0.0215299
0.0218089
0.0215211
0.0744258
0.0219445
0.0220866
0.0214378
0.0219429
0.673138
9.24585
0.0221968
6.55436
5.403
4.90409
0.0219318
0.0219353
0.0218277
0.0218877
0.0221169
0.0221504
0.0216209
0.0220827
0.0217785
0.0241782
9.19508
0.0356139
0.267643
0.0293969
0.0220308
0.0230826
0.0319141
0.0221577
0.0218453
0.0394833
0.0316265
0.541991
0.0414582
0.0214836
10.9076
0.0226622
0.0214861
0.0218392
0.348326
0.0428979
0.022699
0.0255516
0.0220724
0.0220946
0.03186
0.0405528
0.0274322
7.96425
0.022084
0.0220303
0.616881
0.0368317
0.0250048
0.132131
0.0230182
0.0645146
0.294585
0.0647428
8.27098
0.0218272
0.0216659
0.0219388
0.0220472
0.0220948
0.0230268
0.0396553
0.0505545
16.5231
0.0220736
8.33066
8.24917
0.0240013
1.36897
0.0222038
0.093951
8.3834
0.0219097
0.0938045
0.0215346
1.80267
0.0221977
0.201075
0.0218572
0.643646
0.0379945
5.2956
0.0218464
0.169419
0.0215972
0.0230227
0.266304
0.0218371
8.25573
5.78507
0.313864
9.38475
0.0946481
5.3082
0.0386255
0.0220158
0.0442473
0.0457504
5.42032
0.0220775
0.0220171
0.0226038
0.0476646
0.0219396
0.0222054
0.0221975
18.2766
2.33713
0.0219056
9.91516
0.0576352
0.0217257
0.0376883
0.0271574
2.54829
0.0295201
0.0217619
0.651293
0.0220719
0.0219368
0.02209
0.12467
0.0621513
0.0217669
0.0264074
0.0221107
0.0222606
0.0217914
10.1879
0.0222857
0.0218131
3.05519
0.24349
0.0238769
0.0217942
1.88091
0.0280728
0.023192
0.0219403
0.0509172
0.0230501
0.0266309
0.0246415
7.27083
0.0429862
0.0604875
0.0214793
0.0312167
0.0455733
0.0272154
0.0223609
9.14336
0.0222527
0.158222
0.0218835
0.0221938
0.0304914
0.188595
0.0233437
0.024915
0.0221142
0.0366908
0.0653307
0.090538
0.0278008
0.0222923
0.0219648
0.0278722
0.0865857
0.0219349
0.0433458
0.0220141
0.0219363
4.91394
0.0218862
7.89527
0.0219308
0.0269198
0.0723123
0.0219269
0.0279676
0.103342
0.103582
0.021935
0.0820613
0.0224752
0.0222634
0.0218932
5.07586
3.53378
0.021902
0.0219256
0.0215835
0.0218083
0.0930373
4.35439
0.0219215
1.35488
0.0217286
0.0217966
0.0218886
1.23139
0.0227498
0.0237695
0.0219437
0.0219499
0.0219119
0.0222568
0.0222595
0.0318156
12.1155
0.0216006
0.021911
0.0411994
0.06853
0.0217945
7.85306
0.0518503
0.0217858
0.0214945
0.0220723
0.114755
0.0217256
0.079724
0.0285441
0.0232879
0.0217833
0.0452093
0.0215198
0.134514
0.0275758
0.022353
4.74285
1.48858
0.021422
0.021856
6.64261
0.121408
0.0770661
0.0238136
0.0797913
0.0215271
6.33187
0.0654757
0.0216905
1.80589
3.912
0.0231403
0.044151
0.0533279
0.0217567
9.86232
0.0221651
0.0265354
0.029707
0.0222362
0.0220494
0.051585
0.0218662
0.021888
0.0218654
5.35354
0.0218384
0.0219381
0.0217447
0.0218849
0.0218486
0.0222303
0.0535098
0.0450436
0.0233654
0.0222498
1.43941
0.0222424
0.0218338
0.0218928
0.021584
0.0220854
0.0219715
0.0283347
0.0912607
0.0222241
0.0303082
0.0493387
0.0217287
0.0274797
3.45723
0.0226273
0.0215216
0.0220804
0.0825228
0.022203
0.0222031
0.024213
0.024729
7.51975
13.2402
0.0218222
0.0218623
0.0219404
0.0685921
0.0230035
0.0217943
0.0281459
0.0733607
0.0221519
0.0267826
0.0221335
0.10705
0.208068
0.0227372
0.12409
0.0257273
5.01784
0.0222053
0.0218892
6.67974
0.115859
0.0242972
0.16149
0.0906688
30.2482
0.0454383
0.666502
0.025507
0.024649
5.18258
0.0266025
0.20519
0.0293713
0.12525
5.41772
0.0222933
0.0221217
0.0219744
0.351772
0.0214441
6.45969
0.0363429
23.0836
0.0229183
0.117125
0.205521
0.021947
0.0221805
0.0789004
0.0294834
0.0220881
0.0244496
0.0768146
0.0769067
0.0773547
0.109298
12.1701
0.144423
0.0221154
0.0222015
5.48635
0.0754843
0.0225985
0.03757
4.09873
0.0222326
0.0236369
0.0219381
0.0286028
0.0220392
0.0221056
0.0385122
0.022089
0.0225961
5.36355
30.8104
0.0217262
0.0256674
0.0265654
0.188999
0.0425941
0.0223059
0.0219247
0.102725
17.8138
0.0219261
0.02506
0.0220449
6.28273
0.0218267
0.0299352
0.35148
0.317171
0.022272
0.137882
0.0867018
0.0574832
0.025561
0.0220209
7.68033
0.0218125
0.0259231
0.0222177
0.0285158
0.0215891
0.0215983
0.0220593
0.0664055
0.0218165
0.0219776
0.0217566
0.021908
0.0218636
0.0220037
0.0897764
8.86439
2.36776
0.0253039
0.0220563
0.0318985
0.02356
7.29413
0.022285
0.181899
0.0216093
0.021994
0.0223531
0.0346593
4.11826
0.0219559
4.95854
0.0221896
0.0215141
0.0230201
8.53682
0.0233243
0.0446281
7.06404
0.0222848
0.0221667
7.09056
0.0218814
10.8318
0.0220883
0.0315045
11.6253
0.0224777
0.0220973
0.0218563
10.1947
0.0263236
0.0218651
0.776445
0.0219561
0.0225741
0.082812
22.8371
0.193056
5.42432
8.50568
0.0732985
0.0234441
0.183024
0.241577
0.0217609
0.0218547
0.0228059
0.0264226
0.0785799
0.0219882
0.0253009
0.0219011
0.0219583
2.20748
0.0222252
9.19126
0.0215425
0.0311555
0.0634792
0.0218247
0.0215078
5.27384
6.24569
0.0643613
0.0220809
0.0248693
0.052968
0.0217634
0.0344978
0.101123
0.0396403
0.023112
6.7422
24.7974
0.0215382
0.0221333
0.021646
0.0221945
0.0226164
0.0267326
19.7051
0.0221205
0.0219591
0.0437992
20.797
0.0215509
1.47029
0.0215675
0.13539
0.0579481
7.67862
0.0693169
0.0532008
0.0559303
0.021493
0.0215016
0.247476
0.0254618
0.0220877
0.853548
0.0218249
0.0220844
0.0216143
0.0492179
0.214257
0.579199
0.14519
0.0279911
0.0293684
0.0219107
11.5183
0.208287
0.0230043
0.0219708
0.0217225
0.0944066
9.11048
0.0357983
10.14
0.0228489
0.0217648
4.84703
0.0219358
5.94225
10.4947
0.0216773
0.0296314
0.259085
0.0241449
0.0357425
0.0218173
5.06284
0.0261173
0.161482
5.47557
9.48689
0.0276124
0.0274809
0.0221364
0.150219
11.4827
0.022759
0.0238051
5.3181
0.0490352
0.0669339
0.0222635
4.46659
5.23907
0.0962533
0.0219384
0.0262978
0.0218918
2.45452
0.0743334
0.033623
9.58855
4.88197
0.0214907
0.156035
0.0221012
4.98596
0.0927795
0.0261265
0.024838
0.926171
0.0213975
0.0640202
6.4088
4.82696
0.0229768
0.0220312
0.0217867
0.0880933
1.79586
0.173048
5.60124
0.0968924
0.0413504
0.0217517
5.08288
0.0801734
0.028319
0.190283
5.58703
5.31459
5.16363
9.35651
5.66322
5.82058
0.0220506
0.0287877
0.0328852
0.0218169
11.5571
0.805502
0.0220193
8.11356
0.0221301
0.0219897
0.0217687
0.0308875
0.0218626
5.12883
0.0610459
0.226053
0.0216414
0.563532
0.0476829
0.421162
5.15976
0.0225283
0.0275014
0.0377527
0.0665698
0.0217357
0.0215958
0.021887
4.82116
0.0217759
0.021744
0.186059
0.0231265
20.3099
0.0220455
6.73469
0.0219466
0.0220601
0.0219451
0.0219715
0.0264349
0.0243806
8.48022
0.031013
0.0366134
6.10594
0.0218108
7.30313
0.0217906
6.48531
1.56251
5.96258
0.0669164
0.0219613
0.0222725
6.78531
0.0219525
0.0259329
0.0221121
0.029426
6.55654
0.0218836
0.0218445
0.0218699
0.0222651
10.2848
10.6274
0.0218124
0.0214365
5.16453
9.86426
0.0218571
5.17203
0.0222642
8.55989
5.83434
0.0702918
0.35415
1.02429
0.0853968
4.8961
0.0818979
0.0219631
0.0215301
0.0217816
7.37874
10.0483
0.0229547
0.0281844
4.88472
0.0218316
5.39269
0.0217818
0.0218578
0.0216055
6.84784
0.0756532
0.0217321
4.75315
0.0222526
7.52752
5.09859
0.0217188
0.0221104
0.120317
0.0219495
0.021878
0.0218273
3.38901
0.0318031
0.0220312
0.0221304
3.21333
0.0219283
0.0407925
0.0219833
6.00412
0.0221016
0.104443
0.0233231
5.05174
7.8745
0.0311573
0.0867957
0.0563516
0.0220746
0.0755929
5.49931
0.0217252
0.0840136
0.0217612
0.545652
0.0218885
5.97905
3.33004
0.106104
4.8535
4.84676
0.0407826
0.0224082
2.05314
0.0219303
11.5447
0.0252942
0.985977
0.0218597
0.0325944
0.0475338
0.0303091
0.0220931
0.0219304
0.0221956
5.66058
0.0728988
4.70776
2.66689
0.0274998
0.0216072
0.05443
11.9086
0.033487
0.0217583
0.0220802
6.7896
4.37711
11.3156
5.79002
0.0360421
0.0222565
0.0217733
0.05206
0.0512429
0.748239
0.0219973
0.0220693
34.4522
0.0664487
0.0222853
0.0639837
0.801575
0.106691
0.0215807
0.0483457
0.561402
1.06682
6.88626
0.246672
0.0218673
0.0222691
0.0220037
0.0222849
0.0219467
0.0220908
0.0332909
0.223762
0.0341504
0.0271913
0.0288022
0.0221877
0.02605
0.0224039
0.0347057
0.032674
0.0218107
0.0282516
0.0218879
0.0218391
0.0224731
0.0221205
0.398062
0.0215749
0.0777686
0.636924
1.23613
8.7952
5.73705
0.0223367
0.0222368
0.0218968
6.64016
0.0217848
0.0214616
0.0221745
6.43289
0.0311252
0.0340018
0.413393
0.0233467
0.0220314
0.0296426
0.0218731
0.0482011
0.0222854
0.0341353
0.0217775
0.0219216
0.0228997
0.0234574
0.024854
0.658441
0.0384805
0.112915
0.0605078
0.127793
0.0441281
0.0688382
0.0217748
5.0986
0.024432
0.026588
0.0219268
0.0225592
0.12616
0.0219815
0.0643222
6.99691
0.0292117
0.379082
0.104839
0.0539645
0.0697988
0.0602575
0.0219256
0.0286306
0.0220905
0.0788608
0.0515011
6.08323
0.0217541
0.0481426
0.0263385
3.97093
1.00563
0.046329
0.0220982
0.0523383
0.0215633
0.0683033
0.0227281
4.73555
0.0216425
0.0257903
0.0220158
0.0359835
0.13184
0.0306968
8.91026
0.0220387
0.0300215
0.0609255
0.0220147
7.03367
7.97411
0.158629
0.0549251
0.0479681
0.0217587
0.0217326
9.29012
0.102906
0.0215909
0.0223636
0.0249325
0.0218947
0.41059
0.0217685
6.98298
0.145249
0.14753
0.0374355
0.0223068
0.0216547
0.0217843
0.153336
0.081328
0.0265432
5.12346
0.0221741
0.0230812
0.0271734
8.88659
0.0214807
0.646036
0.021398
5.88045
0.0219065
0.0218935
0.0380279
0.0219842
0.0222102
0.13902
0.0220656
0.0222816
0.0217421
0.0444559
0.0255036
1.7975
0.0219891
0.022087
0.0218451
0.130981
0.0218008
0.0285089
0.0419876
6.29508
9.83578
10.9945
0.85924
0.398568
0.0413709
0.0625156
0.0272018
0.0222511
0.0221208
7.01963
0.0574544
0.0215329
0.0219613
0.0219527
0.0275041
0.0817337
0.0222517
0.0301139
0.120056
0.169874
0.116655
0.0219643
0.0222376
2.79322
0.0235444
0.0215597
3.78476
8.04346
0.0216844
0.0214214
0.0267804
0.0220545
0.0379368
0.0222485
2.08782
0.0222726
1.77019
0.0219427
5.37181
0.0297976
0.0219374
0.0627539
0.021572
0.0218926
0.0222647
0.0327385
0.508317
0.0218507
0.166461
0.0222855
0.0221997
0.114107
0.0216539
0.0221284
0.0221023
0.0214605
0.0219525
0.0214876
0.0221666
5.44931
0.0218532
0.0217193
0.0573365
0.0216145
0.0219318
0.0221678
0.0221378
9.4378
0.422439
0.02199
0.022714
0.0218606
0.0222855
0.194603
0.0220552
0.021983
7.97837
0.0219579
0.0456488
0.0578325
0.0379775
0.0218063
0.205062
0.0219029
0.298761
0.068899
0.0218253
8.70185
2.06865
0.0281431
0.121726
0.0218273
0.0218652
0.0452218
0.219586
0.0217357
0.0218547
0.0221676
0.0410375
0.022104
0.0362061
0.0221114
0.047457
1.44351
0.0392212
0.180842
0.0218369
0.0244095
0.022684
0.0233271
0.0216806
0.02189
0.0228524
0.0232131
0.0678824
0.0223384
0.0969131
0.0218228
6.2124
0.0215089
0.0217717
0.0738379
0.0222715
0.105469
0.0891016
0.0373545
0.0218611
0.0228647
0.0218869
0.0373876
0.0220658
0.0554682
0.0255358
0.0221425
0.0216606
0.0273625
7.89355
0.0319414
0.0519719
4.56288
0.849074
0.038908
0.0215657
6.1286
0.0219402
0.0234911
0.0223784
0.104369
0.0218885
0.0354166
0.0277362
0.0235078
0.0221217
0.0253461
0.0222
0.0608331
0.0219297
0.0221858
0.021949
0.0284051
4.16848
0.0219849
8.58023
0.0859004
0.0214423
9.14078
0.269336
0.0217611
0.0232212
0.0889936
0.021787
0.0218957
3.76899
0.0220272
4.99213
0.0254277
0.0245856
0.0226218
0.0223003
0.0219101
0.0217801
0.0609639
0.0224999
0.021959
0.0219069
0.0221385
5.52075
0.0366816
0.022034
0.0289218
0.149166
0.0662659
0.0218774
0.0219835
0.0219447
0.0249429
0.0227547
0.022381
0.0271037
6.40872
0.0217588
0.0229837
3.23829
0.0245448
0.106996
0.145008
0.0218664
0.02227
0.419814
0.0874744
0.183229
5.5434
5.05974
0.184755
6.54883
0.0217354
0.0231296
0.0216777
0.0221869
5.47014
0.0219767
0.0560127
0.0670115
0.0293334
0.0249568
0.602724
0.0218987
0.022117
0.0252644
0.0219314
0.0220485
0.0217332
0.0219631
0.0705055
0.0219347
0.0221297
0.0217767
0.0457343
0.0221325
8.23008
0.0219116
0.0228879
0.0218125
0.0222521
0.0227259
0.0219434
0.037982
0.0229105
0.021926
0.0281749
0.0220077
0.0222646
0.0219822
0.0309714
0.0222856
0.0220327
0.0220463
0.0220597
0.0288647
0.0220192
0.0220065
0.108544
0.0220748
0.0219136
0.0237474
3.19767
0.0519855
0.0222971
0.0542437
11.0838
0.120223
0.218004
0.0239048
0.0227711
0.0267911
0.325185
0.0220448
0.231057
0.022425
0.0218897
0.0283116
0.0220514
0.0711178
0.0776685
0.0649294
0.0229373
0.021941
0.028489
0.0272257
0.0228675
0.0243172
0.0232837
0.0442182
0.0749208
0.0754831
0.0219249
0.0237992
1.77236
0.0230756
0.0222853
6.02374
0.507121
0.0219403
0.0223752
0.0230719
0.0750318
9.77408
0.0219541
0.377887
7.74492
0.0383093
0.0594336
0.0216244
0.023577
0.0226208
0.0838626
0.0222319
0.0294797
0.0233591
0.260529
0.0221937
0.0220614
7.39703
0.0234554
0.0229556
0.0221367
0.0222126
0.0380121
4.91266
0.0278494
0.0220425
2.86213
0.0984395
0.0222643
0.0219492
0.0218242
0.0241131
0.0216724
0.195017
0.0218571
0.0243322
0.0249311
0.0611037
0.0262202
0.0218198
0.0272189
0.0242099
0.0218208
0.0994926
0.0218638
0.0233805
0.0216817
0.0222719
23.3266
0.0285041
0.0222456
4.81774
0.0227408
0.0219459
2.43973
0.0699745
4.71158
0.0219159
0.022975
0.0218698
0.0225392
0.022985
5.68662
0.0224426
0.0908748
0.0217478
0.0220205
0.0235252
0.0219329
0.0366025
7.80892
0.525727
0.021948
0.0217164
0.243287
0.0225208
0.0221133
0.0262945
0.0271131
0.409015
0.0835969
0.0227708
6.3239
0.0906301
0.0223925
0.0217183
0.0221879
0.0283825
4.97434
0.0222839
0.0672625
0.0226788
0.0220906
0.0215508
0.0222251
15.6743
0.0268741
0.021748
0.0237308
0.022095
0.0252799
0.0214289
0.0230797
0.0219438
0.0228478
0.432431
0.0220342
0.022213
0.0992412
0.0215911
0.0215453
7.5557
0.0218744
5.76732
5.60232
11.5254
0.0265335
0.0221253
0.0214969
0.0221391
0.0214694
0.0236209
0.213817
0.0519156
0.427717
0.0843688
0.024101
0.0215752
0.0229176
0.022586
0.0222725
0.0221182
0.0215359
0.0739191
0.022482
22.9572
0.0222589
0.0226939
0.0222635
0.0220388
8.9356
0.14052
0.0285171
0.0214943
0.0535492
0.0230451
0.0219691
0.0833118
0.021446
0.0232684
7.57258
0.0219561
0.0218904
0.0218892
6.35318
5.09963
0.0215892
0.0225945
0.0243959
0.0220917
0.0216057
0.0219488
0.0220759
0.0218997
0.0218431
0.0218981
0.0241318
5.23657
0.0380792
0.0219319
0.0219289
0.0222662
0.0221044
0.0221775
0.0259024
0.0274522
15.2072
0.0258138
0.0221718
0.0225312
0.0219435
0.095206
0.0215879
0.0222236
0.0232066
0.0286378
0.0266228
8.24846
0.0220941
0.0305939
0.0226257
0.0225733
0.0221045
0.0215696
0.0229127
0.114844
0.186221
0.0217268
0.0372633
0.0752433
0.0222647
0.0401327
0.0383461
4.49698
0.0222495
0.0235469
0.0224741
0.0215797
0.076795
0.0219561
0.0219967
0.0532738
0.22592
0.209256
0.0217601
0.0219067
7.18353
4.71986
0.0215617
1.86435
4.69157
0.0218203
0.0215665
0.0216694
0.0220604
0.0221405
0.0215309
0.0283969
6.37574
0.0217649
0.0219569
0.0216862
0.022158
0.021792
0.0218348
0.0215223
6.04283
0.0219955
0.229922
0.0221531
0.0217982
0.0229387
0.0218318
0.0221758
0.0291755
0.0221553
0.0222923
6.97746
0.0219899
0.025035
0.0220215
0.0219655
0.022141
0.02181
0.119511
0.0220577
0.0221069
0.0219877
0.193574
0.0326618
0.022134
0.0221755
0.0219355
0.0230369
4.78563
0.0233589
0.023642
0.0219478
0.0221235
0.0219373
0.051718
0.0231678
0.0228043
0.405681
0.044423
0.0218039
0.025157
0.0220008
0.0223529
0.0218136
5.24314
0.0219591
0.0220574
0.0218027
0.0296491
0.0234354
0.0226694
0.0219192
0.0217865
0.0619933
7.8617
0.0218133
0.0555178
0.0234509
0.0233539
10.4632
0.0217423
0.0219825
0.021948
0.0237283
0.0232084
0.021791
0.0242768
0.0219042
0.0997043
0.0214981
0.0217144
0.0250819
0.0221427
0.0931008
0.0258054
14.8393
0.0654569
0.0222121
0.106196
4.9354
0.0224236
0.0245436
0.0220683
0.0252394
0.0217769
0.0395873
0.0440274
0.0218789
0.0289874
0.0217502
4.99991
0.0222012
0.0235331
6.19607
0.0444964
0.0240269
0.153195
0.0221565
0.0219951
5.1258
0.0217375
10.5498
0.0218433
0.0218615
0.0769581
8.34551
0.0219085
0.0427437
11.4671
0.0218519
0.0221751
0.0219931
0.0274581
0.0255374
0.0227824
0.0220037
4.74385
0.0219611
0.0225725
0.0219356
0.0218961
0.0220361
0.0234341
0.0283818
8.20626
0.0222314
7.5545
0.0219368
0.0226158
0.0245457
0.0225761
0.0627281
0.0642728
0.0224016
0.0219217
0.021824
0.0945333
0.0217118
0.0218287
0.50573
0.12284
0.0217054
0.0220014
0.0217587
0.0220896
0.0246529
0.07999
0.0219634
0.0221269
0.0217425
0.0221519
0.0219618
0.0214994
0.0271202
5.12968
0.0216931
0.0221897
7.62277
0.0219026
0.038427
0.0220691
0.0302359
0.0554929
20.5478
0.0222613
0.0220546
0.0217867
0.0221324
0.0220414
0.0214401
0.0221446
0.0221269
0.0232236
0.0575312
0.0250219
0.0234964
7.19884
0.0220277
0.144318
0.0217172
0.021796
0.0220146
5.52148
0.0218372
0.0546416
0.0229866
0.022609
0.021934
0.0217455
0.0217646
0.0223243
0.021849
0.0218144
0.0479678
0.273754
6.85469
0.0217894
0.0500086