/*--------------------------------*- C++ -*----------------------------------*\
| =========                 |                                                 |
| \\      /  F ield         | OpenFOAM: The Open Source CFD Toolbox           |
|  \\    /   O peration     | Version:  v2012                                 |
|   \\  /    A nd           | Website:  www.openfoam.com                      |
|    \\/     M anipulation  |                                                 |
\*---------------------------------------------------------------------------*/
FoamFile
{
    version     2.0;
    format      ascii;
    class       volVectorField;
    location    "300";
    object      U;
}
// * * * * * * * * * * * * * * * * * * * * * * * * * * * * * * * * * * * * * //

dimensions      [0 1 -1 0 0 0 0];


internalField   nonuniform List<vector> 
9793
(
(0.962008 -0.0157991 -2.51928e-22)
(-0.161402 -0.00632436 1.14077e-19)
(0.992242 -0.0066467 -1.05291e-20)
(-0.0412198 0.105414 1.32037e-19)
(0.999952 -0.000630024 7.47511e-21)
(1.23017 -0.0216977 -2.1574e-19)
(1.12326 -0.230551 6.38714e-20)
(-0.104309 0.0494003 -8.92577e-20)
(1.02123 -0.0380745 -8.56541e-21)
(-0.0606255 -0.00280683 1.10133e-19)
(1.00006 -0.00196703 0)
(1.00005 -0.00211562 0)
(1.00208 -0.00917665 -9.56826e-23)
(-0.0809506 0.148351 -9.21301e-20)
(1.01983 -0.0226368 4.73815e-21)
(1.06575 -0.00380482 1.074e-20)
(1.13905 -0.0677922 -3.60735e-20)
(0.994461 -0.00890841 0)
(-0.0653821 -0.0667584 -3.52339e-22)
(1.01772 -0.00503968 2.0855e-21)
(1.0234 -0.00985842 3.04546e-21)
(0.999993 -0.000155186 -8.00429e-21)
(-0.041762 0.155055 -5.96713e-20)
(-0.094162 0.0471004 1.0767e-19)
(-0.0556953 0.146395 -5.00133e-20)
(0.921584 -0.0575938 -4.52507e-20)
(1.00001 -0.00358581 -4.14053e-21)
(1.00002 -0.000516031 -2.77359e-21)
(1.01758 -0.00531847 -4.10324e-22)
(1.16579 -0.138144 -8.3654e-20)
(-0.306038 0.0183808 0)
(1.26799 -0.0397635 -2.37724e-20)
(0.996438 -0.00349169 8.00516e-21)
(0.997214 -0.00905865 3.55393e-21)
(1.0054 -0.000544635 -4.72305e-21)
(1.08083 -0.0319343 -1.34328e-20)
(1.06077 -0.00846705 1.92907e-20)
(0.914854 0.00313976 -3.92826e-20)
(-0.143594 0.0578483 -8.17227e-22)
(1.07936 -0.0724249 -2.87699e-20)
(1.15553 -0.13572 6.29235e-20)
(1.03727 0.0480694 7.52245e-20)
(-0.104967 0.0258909 0)
(1.00002 -0.000370865 6.33236e-22)
(0.992255 -0.000278195 3.04924e-21)
(0.9966 8.99519e-05 -3.89538e-21)
(-0.243664 0.0428818 -2.47287e-19)
(1.00002 -0.000342286 7.58185e-21)
(1.03184 -0.00790497 7.16062e-21)
(0.994219 -0.00838767 0)
(1.08062 -0.0292582 2.18145e-20)
(1.00579 -0.000672568 2.53899e-21)
(1.10476 -0.0459122 0)
(1.00001 -0.000673397 -7.44665e-21)
(0.903959 -0.119595 0)
(-0.0491091 0.101065 0)
(1.00241 -0.00830436 0)
(1.14854 0.0222001 0)
(1.03167 -0.00862375 0)
(1.00001 -0.000184377 0)
(0.900121 -0.0162315 0)
(0.8387 -0.333917 3.30798e-20)
(0.993912 -0.00644515 9.53697e-21)
(1.08714 -0.00464281 -1.2992e-20)
(1.00291 -0.00126028 1.75756e-21)
(1.0204 -0.0365002 7.55002e-21)
(-0.215101 0.0246581 -3.32823e-19)
(1.05345 -0.0464214 -7.31543e-22)
(1.06193 -0.00603674 9.29467e-21)
(0.0476251 0.0121885 -4.32439e-22)
(0.978632 -0.010706 0)
(0.584615 0.0268288 2.2555e-19)
(-0.148268 0.0568563 -9.72252e-20)
(0.482747 0.232325 1.82023e-21)
(0.172138 0.0530958 -6.5698e-20)
(0.999986 -0.000804941 -1.38909e-20)
(0.802353 -0.133218 -3.38906e-20)
(0.843239 0.0236619 6.40348e-21)
(0.99465 -0.00340199 5.2826e-21)
(0.999982 -0.00058078 -8.97939e-21)
(0.786466 -0.135662 8.38863e-20)
(-0.0662891 -0.0618061 0)
(1.13376 -0.0625782 1.17897e-19)
(0.98127 -0.0699149 7.61349e-21)
(1.06228 -0.0074418 -4.1384e-20)
(1.25813 -0.150426 4.12108e-21)
(0.999968 -0.000717219 1.10856e-20)
(1.10371 0.0326433 1.26753e-20)
(-0.150136 0.0663457 -6.55038e-20)
(0.823611 -0.315089 -3.16201e-20)
(-0.0576481 0.131862 -5.13241e-20)
(1.35724 -0.176053 9.74843e-20)
(1.35464 -0.187986 2.18534e-19)
(1.09129 -0.120062 7.25884e-20)
(-0.0958165 0.0103041 0)
(0.996022 -0.0124799 0)
(0.220599 0.056197 0)
(1.13145 -0.0882444 0)
(1.04225 -0.0662282 1.02697e-20)
(0.999969 -0.00052744 0)
(-0.12919 0.109654 0)
(1.10082 -0.0467089 0)
(-0.0868477 0.241523 -1.04337e-20)
(0.992803 -0.000258951 -1.41534e-20)
(0.0728027 0.0925344 0)
(0.525759 0.0464064 1.56605e-19)
(0.576079 0.197551 -8.78614e-21)
(1.00461 -0.00719317 0)
(0.994647 -0.0029961 0)
(0.999986 -0.00028166 0)
(1.0001 -0.00103281 2.0508e-22)
(-0.0484506 0.148018 0)
(0.0919201 -0.117253 -1.36128e-19)
(-0.298074 0.0116406 -2.50706e-20)
(0.979547 -0.0113031 1.95349e-20)
(0.999105 -0.00256968 0)
(1.05612 0.00119802 -1.10606e-20)
(0.996927 -0.000786579 8.63527e-21)
(-0.063705 0.086966 1.1375e-19)
(0.996029 0.000614104 2.03482e-20)
(-0.014802 0.10828 -1.06948e-19)
(1.10929 0.0354611 0)
(0.429147 0.0707473 -1.6951e-19)
(1.11291 -0.0253265 4.08992e-20)
(1.06104 -0.0101235 -3.3752e-20)
(0.996234 0.000753749 -2.16945e-20)
(1.14842 -0.0808693 -4.91262e-20)
(-0.285089 0.0189746 1.47992e-19)
(1.09852 0.101914 0)
(1.08932 0.103841 0)
(1.05759 -0.0236266 0)
(1.00693 -0.0148897 0)
(0.963803 -0.0168703 0)
(1.04805 -0.0417006 8.75353e-21)
(1.07621 -0.0341618 -2.07637e-20)
(1.1997 -0.231153 0)
(1.2443 0.0307423 0)
(1.05673 -4.34542e-05 0)
(1.00001 -0.000601312 1.10345e-20)
(1.15201 -0.0548447 0)
(-0.0622315 -0.0519671 0)
(1.07935 -0.033761 5.9891e-20)
(0.984544 -0.0196549 0)
(1.10137 0.0182116 0)
(-0.229787 0.0461806 0)
(1.14603 -0.452809 1.09962e-19)
(0.996272 0.00136725 -4.14761e-21)
(0.1975 0.0551223 0)
(1.00664 -0.0152612 0)
(0.996092 0.0011809 0)
(0.999154 -0.00385102 -9.20815e-21)
(0.116501 -0.0546028 -1.04698e-19)
(1.03998 -0.063611 0)
(0.999938 -0.00358647 0)
(0.985336 -0.00308573 1.0432e-20)
(1.35938 -0.223294 0)
(1.1455 -0.0649089 0)
(0.993945 -0.00704358 -9.72517e-21)
(1.27864 -0.0345009 0)
(0.984483 -0.0114301 -9.83632e-21)
(1.10495 0.0257037 2.63067e-20)
(1.05889 -0.0252479 0)
(1.0231 -0.0103299 -2.05043e-21)
(0.586086 -0.429275 1.38409e-19)
(1.03888 -0.017603 7.13404e-21)
(1.06613 0.00220442 -5.60415e-21)
(-0.0675419 0.20578 5.58682e-20)
(1.04112 -0.0213411 -3.56955e-20)
(1.00466 -0.00658617 0)
(1.00001 -0.00163324 -8.71012e-22)
(0.983533 -0.0191069 2.33418e-20)
(-0.2236 0.000438108 0)
(0.317562 -0.175029 -2.20634e-19)
(-0.21109 0.166452 -9.5755e-22)
(1.00235 -0.0096114 -3.27712e-21)
(1.22145 -0.0200418 1.24553e-19)
(1.02662 -0.363928 -1.67914e-21)
(0.551917 -0.529103 0)
(0.99418 -0.00432585 0)
(1.05477 -0.0418698 -1.16912e-20)
(0.137115 0.102969 9.1879e-22)
(-0.249176 0.040033 1.36922e-19)
(1.10826 0.0412546 4.89808e-20)
(0.996282 3.00502e-05 -4.53951e-21)
(0.997555 -0.000415068 -8.29743e-21)
(1.00484 -0.00699537 0)
(0.561602 0.079799 -1.27956e-19)
(-0.172868 0.0525413 0)
(0.827296 -0.397278 -2.0154e-19)
(-0.0812319 0.26651 4.5292e-20)
(1.01831 -0.0345843 -7.79276e-22)
(-0.0953652 0.301753 0)
(0.398021 -0.154619 0)
(0.913201 -0.0201345 4.02686e-20)
(1.03396 -0.0055956 8.5992e-21)
(0.961637 -0.0504106 -1.32119e-20)
(0.177869 0.0920796 0)
(1.01533 -0.00519702 9.14012e-22)
(0.994236 -0.00934296 0)
(0.999775 -0.00152677 -9.67941e-21)
(0.976185 -0.0111077 1.41991e-20)
(1.0256 -0.00900416 -2.89435e-21)
(1.08315 -0.0246601 -1.32334e-21)
(1.06579 -0.0192305 1.49773e-20)
(-0.07779 0.00832237 1.01434e-19)
(0.98202 -0.00202637 -6.283e-21)
(1.06984 -0.0669925 0)
(1.04222 -0.0202906 -1.01497e-20)
(0.96958 -0.0285195 3.63964e-20)
(0.805739 -0.565698 2.4485e-21)
(1.14609 -0.0562272 5.08049e-20)
(-0.061911 -0.0481258 -6.53424e-20)
(1.01358 -0.00489119 -1.37575e-21)
(0.0153807 0.000801129 0)
(0.976878 -0.0700894 -8.25687e-21)
(1.06864 0.00819671 -3.66916e-20)
(1.01985 -0.0236111 3.02286e-21)
(1.20342 -0.218546 7.02157e-20)
(0.999199 -0.00243666 -1.03171e-20)
(0.741598 -0.0533076 -5.32806e-20)
(1.13805 -0.0882302 -6.84671e-20)
(1.02549 -0.00948558 -2.20481e-21)
(0.365709 0.450169 0)
(-0.216423 0.22695 1.88811e-19)
(1.08423 -0.119358 -8.77739e-20)
(0.995259 -0.0144321 -8.04148e-21)
(1.12552 -0.0185573 -1.72449e-20)
(-0.182234 0.26859 0)
(0.756874 -0.0812644 2.5318e-20)
(0.754436 -0.0919678 -7.84334e-21)
(-0.0913556 0.0523086 4.47615e-20)
(1.10596 0.0777426 9.46572e-20)
(1.0693 0.00855974 2.238e-20)
(1.08924 -0.00288923 -6.45981e-20)
(0.404039 -0.130175 0)
(1.02821 -0.00398901 -2.47844e-21)
(-0.123494 0.202358 -5.35218e-20)
(-0.277483 0.00967649 -1.74871e-19)
(1.015 -0.00503086 0)
(0.99983 -0.00114561 0)
(1.12373 0.0462392 0)
(0.988023 -0.0143521 -1.02009e-20)
(1.00008 -0.000963534 4.08972e-21)
(1.14702 0.0392789 5.57049e-20)
(1.16038 0.0367165 -1.18236e-19)
(1.0187 -0.0363392 0)
(1.0567 -0.0409659 2.83727e-20)
(1.07358 -0.0677169 0)
(0.949951 -0.172563 -1.17488e-20)
(1.05883 -0.034524 -1.49681e-20)
(0.994167 -0.00384014 5.02393e-21)
(1.06855 -0.163991 -6.44856e-21)
(-0.0371348 -0.00754776 0)
(1.02461 -0.00951973 1.12235e-20)
(-0.216775 0.191025 1.25108e-19)
(1.00003 -0.000809885 6.82315e-21)
(1.00002 -0.0024295 1.1223e-20)
(1.01188 -0.000926336 -4.37127e-23)
(-0.0530814 0.0903553 1.11115e-19)
(0.993632 0.00122001 0)
(1.37847 -0.217325 5.45901e-20)
(0.019804 0.0325561 -7.08303e-20)
(1.00066 -0.00280825 5.79352e-21)
(0.999327 -0.00245087 1.67421e-20)
(1.36894 -0.109123 -1.60496e-19)
(1.01179 -0.000574867 0)
(0.99994 -0.00113182 8.78339e-21)
(1.01242 -0.000540323 1.23415e-22)
(-0.00455162 0.023387 0)
(0.588496 -0.39299 -1.70925e-19)
(0.934652 -0.0530309 -3.13397e-21)
(0.90615 -0.520892 -1.48644e-20)
(1.15114 0.0116374 -2.93974e-20)
(-0.0954827 0.238764 6.2089e-21)
(-0.0487363 0.192569 -1.57677e-19)
(1.04195 -0.0228502 8.44781e-21)
(-0.0970873 -0.216571 -1.48107e-19)
(1.00001 -0.000762149 1.42715e-20)
(-0.157631 0.260031 9.89438e-21)
(0.3841 -1.18529 1.53613e-20)
(-0.176959 0.10245 2.70099e-20)
(0.00571415 0.0989721 1.15845e-19)
(1.11128 0.0740865 -9.94465e-20)
(1.0583 -0.0216617 0)
(1.12773 -0.0647752 -7.97606e-20)
(1.06396 -0.0198014 0)
(1.03485 -0.00434437 -9.95965e-22)
(1.04501 -0.0157261 0)
(0.834653 -0.534524 -2.18934e-21)
(0.918076 -0.0606029 -2.03737e-20)
(0.999397 -0.00231653 0)
(1 -0.000119721 -4.87561e-21)
(1.01392 -0.00507558 9.72421e-22)
(1.01676 -0.000134399 9.53466e-22)
(1.02435 -0.00998577 -3.85832e-21)
(-0.0565998 0.1723 9.39066e-20)
(1.00473 -0.00830995 -4.67684e-21)
(1.01784 -0.022242 -2.64657e-22)
(1.01657 -0.0002048 -5.77205e-22)
(1.00237 -0.00871971 2.20718e-22)
(-0.0230437 -0.0576357 0)
(1.16171 -0.440131 6.67664e-20)
(0.685599 0.0687983 1.45528e-19)
(0.947056 -0.013577 1.83677e-20)
(1.10542 0.0164899 0)
(1.01587 -0.000125491 1.07899e-21)
(0.84901 0.126979 0)
(0.0185694 -0.0268698 3.04418e-20)
(0.993099 0.000341076 2.64184e-20)
(0.0647868 0.035423 1.20795e-19)
(1.08723 -0.0101833 -3.27678e-21)
(0.991919 -0.000749507 0)
(-0.0874127 -0.000510871 -2.02379e-19)
(0.762223 0.163072 9.42074e-21)
(0.996751 -0.00357715 -8.18917e-21)
(1.06909 -0.171692 3.10563e-20)
(0.369838 1.02476 1.2588e-19)
(0.974838 -0.0262908 0)
(0.83267 0.0195975 -1.52379e-20)
(1.01892 -0.0219867 -4.61819e-21)
(0.969794 -0.0242486 -1.78093e-20)
(-0.0723283 0.231053 -4.83031e-20)
(0.900076 -0.174546 -5.81708e-21)
(0.997295 -0.0084735 3.22982e-21)
(0.995854 -0.000513741 0)
(0.94976 -0.0129506 1.67981e-20)
(1.09195 -0.366466 -4.76664e-20)
(0.0919266 -0.205214 -8.011e-20)
(0.992186 -0.00597497 0)
(1.00476 -0.00759817 0)
(1.02854 -0.0152529 -5.41727e-21)
(-0.23234 0.00202003 4.2143e-23)
(-0.109174 -0.111527 0)
(-0.0527641 -0.0146433 0)
(1.02742 -0.00482888 -4.74998e-21)
(0.901678 -0.187147 6.40346e-21)
(0.827811 0.0286458 3.27692e-20)
(0.850073 -0.742945 3.19338e-21)
(1.1474 -0.00479019 6.3946e-20)
(1.02883 -0.00175651 -4.63733e-21)
(1.03044 -0.00381809 -6.52527e-21)
(1.02786 -0.0156216 1.66436e-21)
(1.12341 -0.0604193 6.67635e-20)
(0.990067 -0.0354639 0)
(0.00128186 0.0136995 0)
(0.998285 -0.00206749 0)
(1.00887 -0.0145338 3.19307e-21)
(-0.143701 0.305582 -4.62501e-20)
(-0.0637335 0.17302 -1.50107e-19)
(-0.0119679 -0.00135037 0)
(1.0165 -0.000130671 0)
(-0.127018 0.102666 0)
(0.983001 -0.080247 -2.41003e-21)
(0.233373 -0.66288 -2.234e-20)
(-0.0228517 0.0187403 -1.05581e-19)
(-0.0836051 0.0446714 2.56229e-20)
(0.993372 -0.0680456 0)
(1.08179 -0.0754778 0)
(1.25 0.0257765 -8.88522e-20)
(-0.0626021 0.135199 0)
(-0.0504352 0.13726 -5.98168e-20)
(0.901321 0.0203536 -1.85531e-20)
(1.00003 -0.000583332 -4.74993e-21)
(0.929915 -0.052739 3.82793e-21)
(1.03111 -0.00658123 -7.30459e-21)
(1.00536 -0.00827773 0)
(0.989558 -0.0336592 -7.34876e-21)
(1.00013 -0.00393227 -1.03011e-20)
(1 -4.74537e-05 0)
(0.0620912 0.0064292 -1.07542e-19)
(1.00003 -0.00185595 9.51168e-22)
(1.14955 -0.0953784 -1.65202e-21)
(1.08011 -0.0645193 2.17031e-20)
(1.07508 0.110567 0)
(1.02877 -0.00125555 5.00728e-21)
(0.983139 -0.0730685 -8.61428e-22)
(-0.0210481 0.0503271 6.29131e-21)
(0.358729 -0.0288647 2.67769e-21)
(-0.0917401 0.167072 8.08759e-20)
(1.14308 -0.00779049 -4.69675e-20)
(1.00856 -0.0138254 -3.2451e-21)
(0.995545 -0.0703957 -3.14868e-21)
(0.992813 -0.00679345 1.65283e-22)
(1.2302 -0.328989 0)
(1.01421 -0.00156775 1.51222e-21)
(-0.016296 0.00251733 0)
(0.97159 -0.409013 0)
(1.11299 -0.238681 0)
(-0.10746 -0.00595951 0)
(-0.062527 0.229334 -9.27831e-20)
(1.00053 -0.00231866 3.16038e-21)
(0.996432 -0.0144558 7.95419e-21)
(1.25435 0.0371329 0)
(1.23877 -0.313577 0)
(0.982389 -0.0011603 -5.92907e-21)
(-0.0869092 0.0199348 0)
(1.00054 -0.00245286 0)
(0.999693 -0.00194437 0)
(0.505233 -0.87264 1.9953e-21)
(1.01359 -0.00466833 5.51429e-22)
(1.15347 0.0177326 0)
(1.02818 -0.00464329 5.14263e-21)
(-0.0407411 0.197623 5.27272e-21)
(0.998489 -0.00209688 0)
(1.03941 -0.0166592 8.39612e-21)
(-0.143753 0.283591 7.1307e-20)
(0.609062 0.0271001 -7.3631e-20)
(1.06515 0.0135484 -1.94471e-20)
(0.912955 -0.0245252 -2.12091e-20)
(1.00083 -0.00312581 0)
(1.00136 -0.0198618 3.92486e-21)
(0.35372 0.0657777 1.01197e-19)
(1.12816 -0.0954942 0)
(1.02421 -0.00613716 0)
(0.999635 -0.00126098 0)
(0.894515 -0.117998 -3.26375e-20)
(0.832265 0.0472439 3.06029e-20)
(1.06422 0.0113807 3.05457e-20)
(-0.233587 0.0425225 4.61025e-21)
(0.999708 -0.00154941 2.03972e-20)
(0.996833 -0.00938187 -9.39459e-21)
(0.660567 -0.474125 4.9134e-20)
(1.00089 -0.00307356 7.05547e-23)
(-0.0438462 0.0024375 -3.5123e-20)
(0.599143 -0.524318 -5.46969e-20)
(0.997299 -0.000436001 8.81772e-21)
(0.997018 -0.00407059 0)
(1.0439 -0.016346 0)
(1.00064 -0.00265686 2.80959e-21)
(1.02825 -0.0140898 1.26961e-20)
(-0.136926 0.110491 5.49747e-20)
(0.739459 -0.0681702 -3.06811e-20)
(1.34837 -0.103471 -1.43764e-19)
(0.884186 0.0337351 0)
(1.05352 -0.00664751 -4.17171e-22)
(1.11376 -0.0292228 1.43035e-20)
(0.918886 0.00388647 -3.87247e-20)
(-0.0703115 0.0938417 -7.86491e-20)
(0.904012 -0.0200405 1.20123e-20)
(0.99998 -0.000514374 -1.58368e-20)
(1.05527 -0.045084 8.40825e-22)
(1.16728 -0.408537 -5.42194e-20)
(0.980871 -0.0138308 0)
(0.983447 -0.0114605 6.2644e-21)
(0.97718 -0.0102781 0)
(1.01395 -0.00150779 -5.45318e-22)
(0.998915 -0.0066875 1.13436e-20)
(1.0156 -0.0241536 1.20976e-21)
(0.996727 -0.000549409 6.3919e-23)
(1.00041 -0.00201712 -5.76025e-21)
(0.971448 -0.0490055 -1.86382e-20)
(1.06345 -0.0222298 -1.57033e-20)
(1.14279 0.0430665 -6.06909e-20)
(1.01514 -0.000332684 8.35718e-22)
(0.21446 0.115463 3.10301e-22)
(0.922617 -0.0468483 -4.02884e-21)
(0.982885 -0.436148 9.04167e-21)
(-0.0547682 0.206052 1.27848e-19)
(1.03496 -0.00518683 -7.36837e-21)
(-0.109572 0.311412 4.19107e-20)
(1.12091 -0.217422 9.53688e-22)
(1.03393 -0.00643843 0)
(1.01414 -0.00212131 -1.23948e-21)
(0.985204 -0.0218623 -5.2017e-21)
(0.0638163 0.158065 -8.2616e-20)
(1.15539 0.00708029 0)
(1.0143 -0.0019958 1.10363e-21)
(0.998736 -0.00132986 -9.08678e-22)
(0.999778 -0.00164223 -1.26762e-21)
(0.707124 0.124882 6.3345e-20)
(1.01782 -0.389807 -2.0138e-20)
(0.728388 0.0344675 -1.49306e-20)
(1.00268 -0.00122423 -5.37243e-21)
(0.985482 -0.00229656 -2.76324e-20)
(0.860575 -0.0401953 2.23304e-20)
(-0.26067 0.0377523 1.4075e-19)
(-0.170932 0.098733 3.09016e-20)
(0.936944 -0.025931 -3.43383e-20)
(1.05376 -0.0193855 3.83169e-20)
(-0.2165 0.203263 -2.62549e-19)
(1.13026 0.00391681 0)
(1.17625 0.0741505 -9.90754e-20)
(0.977302 -0.0311684 1.40714e-20)
(1.00788 -0.0147655 1.83838e-22)
(-0.08654 0.0106587 1.45332e-19)
(0.99452 -0.011886 0)
(1.05034 -0.358418 0)
(1.04661 0.0952895 5.6383e-20)
(1.02377 -0.00569285 -2.79883e-21)
(0.621449 -0.380785 1.09883e-19)
(1.06555 -0.0621935 -2.68623e-20)
(-0.104174 0.107953 1.3956e-21)
(1.00164 -0.0192665 -3.22525e-21)
(-0.0665598 -0.0503649 1.10418e-19)
(1.26556 -0.0818125 0)
(1.06479 -0.00512386 0)
(1.374 -0.0994014 1.52911e-19)
(0.995553 -0.0120955 -6.66256e-21)
(0.880644 -0.694303 3.12516e-20)
(0.9983 -0.00162855 2.18075e-20)
(0.997525 -0.0144053 -1.24702e-20)
(1.00002 -0.00152951 0)
(0.994613 -0.0076663 0)
(0.101076 0.0443825 -1.41371e-19)
(0.995919 -0.0132174 8.65127e-21)
(1.03052 -0.00943532 -3.19373e-21)
(0.949889 -0.019731 -3.52014e-20)
(1.02729 -0.00543272 -2.95356e-22)
(1.00758 -0.0151665 0)
(1.05624 -0.186084 0)
(0.984239 -0.0544232 5.12379e-21)
(1.08899 -0.00814349 1.48988e-20)
(1.00158 -0.00352744 -5.79774e-23)
(1.00145 -0.0034036 3.01747e-21)
(-0.0266957 0.0429027 4.5961e-20)
(0.646584 0.0329604 1.31854e-19)
(0.939589 -0.0252791 2.5646e-20)
(-0.211762 0.177924 -7.32432e-20)
(1.06149 -0.0227046 0)
(0.984765 -0.0376881 0)
(0.993892 0.00162703 0)
(1.02891 -0.0137985 -1.38795e-22)
(0.0334726 -0.0202861 -1.20288e-19)
(1.03062 -0.00873725 2.04047e-22)
(1.00138 -0.000510766 0)
(-0.301297 0.0267687 1.82259e-19)
(1.098 0.0388519 -1.93936e-19)
(0.961988 -0.174374 0)
(1.00209 -0.00878332 0)
(0.999991 -0.000302236 8.42435e-21)
(1.03407 -0.02843 2.51388e-22)
(0.999982 -0.00120306 0)
(-0.211833 0.19198 0)
(0.97292 -0.0263529 -8.87859e-21)
(-0.00903967 0.283117 0)
(1.05931 -0.0127253 1.25304e-21)
(0.30762 0.438139 1.72003e-21)
(0.999974 -0.000727293 8.95854e-21)
(-0.306477 0.02931 2.1739e-19)
(1.00826 -0.000322502 -5.64222e-22)
(1.11144 -0.379056 -2.12821e-21)
(0.99357 -0.0109664 -6.25824e-21)
(1.06633 0.0470952 -6.76749e-20)
(-0.0256146 -0.0100336 0)
(0.998492 -0.00158016 -2.9894e-21)
(0.785057 0.0692236 -2.12483e-20)
(0.990305 -0.0132947 -6.37063e-21)
(1.00016 -0.000128343 7.06825e-21)
(1.02289 -0.00918509 0)
(0.30231 0.106062 -5.32113e-20)
(-0.0733061 0.0149648 -1.19433e-19)
(0.984211 -0.0211373 1.14184e-20)
(1.06896 -0.0632133 0)
(1.03094 -0.0072962 0)
(-0.217533 0.21507 -6.54187e-20)
(1.01564 -0.000417482 -4.62754e-22)
(1.07493 -0.160991 -2.58439e-22)
(-0.0688019 -0.0422694 -1.0995e-19)
(0.912299 0.00651071 4.01963e-20)
(1.00183 -0.000893036 -2.14114e-21)
(0.813609 -0.146691 -3.2913e-20)
(1.00011 -0.000606107 -2.00136e-22)
(1.03547 -0.0284053 1.24392e-21)
(1.02751 -0.0171822 -1.05398e-22)
(1.13562 0.0418465 5.58005e-20)
(1.00299 -0.00348125 3.03212e-22)
(-0.212345 0.230359 0)
(1.0013 -0.00337231 0)
(0.992814 -0.0375105 0)
(1.08612 0.00444851 1.67688e-20)
(0.774948 -0.251925 3.33202e-21)
(1.23462 0.0806382 0)
(1.01719 -0.0212167 0)
(-0.288547 0.0279551 1.68137e-19)
(0.996925 -0.0148767 -4.36245e-21)
(1.03715 -0.409501 9.12253e-21)
(0.986925 -0.00754423 8.55427e-21)
(1.04154 -0.0189069 1.56704e-20)
(0.99488 -0.0123706 8.26281e-21)
(1.00124 -0.00340411 6.05901e-21)
(0.999973 -0.00058578 0)
(1.03253 -0.430186 -1.45569e-20)
(1.07007 0.00911547 0)
(0.715692 0.0666225 -8.71596e-20)
(1.20191 -0.0973804 2.37746e-21)
(0.837741 -0.061547 2.74278e-20)
(0.915398 -0.134568 2.03727e-20)
(0.57358 -0.843174 -1.90071e-21)
(1.05034 -0.0425901 1.0126e-20)
(-0.207541 0.183823 0)
(-0.122875 -0.0496445 1.17871e-19)
(1.11027 -0.402326 -3.2035e-20)
(1.18606 -0.149809 1.58531e-19)
(1.1611 0.0906901 9.68107e-20)
(1.06863 -0.376318 4.97798e-20)
(1.03616 -0.0277266 -1.4212e-20)
(0.0619545 -0.178074 -4.98501e-20)
(1.08413 0.00551894 0)
(1.03983 -0.0187883 -2.47709e-20)
(1.13044 -0.41394 -2.76854e-20)
(1.00007 -0.000544838 1.57449e-21)
(0.879557 -0.546716 0)
(0.967681 -0.160935 0)
(1.203 0.0363319 0)
(0.888583 0.0245814 5.15499e-20)
(-0.065658 0.16514 0)
(-0.165392 0.0170647 1.69937e-19)
(1.08567 0.00124828 -2.73154e-20)
(1.19649 0.0352157 0)
(0.999807 -0.00127036 0)
(1.06195 -0.525834 6.51484e-20)
(0.947082 0.011035 2.98472e-21)
(0.993859 -0.0104878 1.31969e-20)
(0.987735 -0.0331439 0)
(1.05253 0.000552309 1.13354e-20)
(1.12117 -0.0948403 0)
(-0.100344 0.0508153 6.78844e-20)
(0.897238 -0.479724 9.50482e-22)
(-0.186544 0.0562107 -1.16653e-21)
(1.04625 -0.0434719 -1.71764e-20)
(0.960843 -0.0529783 1.68282e-20)
(-0.105658 0.112217 -3.97822e-20)
(0.417535 0.106351 -2.7533e-19)
(1.05148 -0.0211985 1.6421e-20)
(1.14112 -0.0180588 -4.92276e-20)
(0.968251 -0.029695 2.44727e-20)
(0.250872 -0.774833 5.83838e-20)
(-0.124134 0.29253 0)
(0.997215 -0.000706923 -1.7726e-20)
(0.689462 0.0819088 -1.71719e-19)
(0.683874 -0.434149 -1.0157e-21)
(-0.161877 -0.00983222 -1.42008e-19)
(1.00301 -0.00112081 0)
(0.927544 -0.0587556 5.41723e-20)
(0.318377 0.0629242 -1.13818e-19)
(1.08017 -0.0234806 -1.3234e-20)
(0.668606 0.0820575 1.44925e-19)
(1.07179 0.0505363 3.89784e-20)
(1.10069 0.11449 3.44137e-20)
(0.953223 -0.0779894 0)
(1.05092 -0.045404 -1.05528e-20)
(1.02033 -0.030085 -3.31127e-21)
(0.985996 -0.00359628 0)
(1.07733 0.125943 0)
(1.00001 -0.000340869 0)
(1.08632 0.133118 0)
(1.21478 -0.0702079 -5.9879e-20)
(1.08418 -0.256846 1.51615e-20)
(1.00004 -0.000266581 6.53343e-21)
(1.00015 -0.0010924 7.46894e-21)
(1.05463 -0.00440342 0)
(1.04072 -0.00227263 7.63128e-21)
(1.00587 -0.00101736 0)
(0.987513 -0.0134667 1.58306e-20)
(1.19332 -0.0993164 4.35253e-20)
(0.0897342 0.173482 -3.92605e-20)
(-0.0392681 0.141908 -1.42522e-20)
(1.00002 -0.000358303 7.66752e-21)
(1.20948 -0.336092 0)
(1.00173 -0.00756036 6.93603e-21)
(-0.127825 -0.0722758 -5.86731e-20)
(1.10329 0.002935 0)
(0.786187 -0.0991669 7.19349e-20)
(0.835253 0.0377787 -5.86235e-20)
(1.2618 -0.0731757 9.7949e-20)
(1.00913 -0.00526966 0)
(0.999086 -0.00407884 0)
(0.828665 -0.143371 0)
(0.993838 -0.0118177 0)
(1.03271 -0.027782 -4.6714e-21)
(1.14646 -0.0421648 8.54869e-20)
(-0.0983916 0.127611 0)
(1.02612 -0.00884357 -4.06433e-21)
(1.08914 0.11835 -1.03314e-19)
(-0.167522 0.084391 1.05895e-19)
(1.06012 -0.0365018 -7.79716e-22)
(-0.122649 0.246886 0)
(-0.161999 0.0792142 6.07448e-20)
(1.01608 -0.0252568 -1.39566e-21)
(1.14071 -0.0801389 6.01782e-20)
(1.06733 -0.00366289 -3.39834e-20)
(1.01695 -0.0342978 -4.17657e-22)
(1.0221 -0.00913581 3.61447e-22)
(0.624526 -0.136061 0)
(-0.176488 0.0968238 -1.31547e-19)
(-0.14734 0.0645089 -1.38694e-19)
(0.979871 -0.0148361 -1.3036e-20)
(0.995613 -0.000249869 0)
(1.01971 -0.0120709 -2.45089e-21)
(1.05707 0.0037541 -3.1326e-20)
(0.987225 -0.0541641 -4.72285e-21)
(0.975471 -0.0662854 8.07361e-21)
(0.509333 0.421871 0)
(1.10039 0.00509632 7.46808e-20)
(1.00044 -0.00214697 6.46873e-21)
(1.26561 -0.00891012 -2.60512e-19)
(1.08348 -0.0273591 2.92251e-20)
(0.847909 -0.0634947 0)
(1.03276 -0.0263927 1.01721e-20)
(-0.34953 0.0177773 2.16188e-19)
(1.05693 -0.0203316 0)
(1.00386 -0.00266599 0)
(1.09569 -0.254075 2.12567e-20)
(0.149628 0.10113 1.56788e-19)
(1.02502 -0.0062105 1.90827e-21)
(0.996824 -0.000218256 -9.00944e-21)
(0.993381 -0.00625622 0)
(1.0631 -0.00477689 0)
(1.00918 -0.00497608 0)
(1.08801 4.29585e-05 3.18563e-20)
(1.25873 0.0125651 -2.00123e-19)
(0.995185 -0.0409048 1.17467e-20)
(1.13228 0.0450798 -3.04112e-20)
(1.04979 -0.0213444 -1.58259e-20)
(1.0313 -0.0254055 -5.32685e-21)
(1.23486 0.0763797 0)
(-0.0896084 -0.0764318 -1.02867e-19)
(1.15965 0.108976 -2.10486e-20)
(0.999295 -0.00388018 1.07299e-20)
(1.02617 -0.00604437 -1.28997e-21)
(0.797906 0.215238 -8.88377e-20)
(0.909278 -0.0172882 -5.8926e-20)
(1.07872 0.169496 -7.55398e-20)
(1.0247 -0.00499735 -3.34165e-21)
(0.989471 -0.0132901 0)
(-0.285899 0.0108017 0)
(-0.0412798 0.26405 -3.55469e-20)
(1.07492 -0.0727825 2.17444e-20)
(1.15018 0.0285482 0)
(0.69263 0.0213341 0)
(0.995798 -0.0149266 9.20916e-21)
(1.00002 -0.000228544 5.34582e-21)
(1.01361 -0.0335573 0)
(-0.0923133 -0.0257408 0)
(1.0015 -0.000625814 0)
(0.999996 -5.74117e-05 0)
(-0.0696764 0.129298 -9.82049e-20)
(0.8937 0.0249222 -4.03432e-20)
(1.26785 -0.143598 -1.63869e-19)
(0.842312 0.0200677 1.4604e-20)
(1.00219 -0.00792388 3.66422e-21)
(-0.0789055 -0.0782905 1.45008e-19)
(1.00002 -0.000661531 -1.01048e-20)
(0.988507 -0.00935321 0)
(1.01244 -0.0329987 2.91402e-22)
(0.926627 -0.112277 2.29608e-20)
(-0.0312532 0.0928555 0)
(1.00009 -0.0025528 -8.39235e-21)
(0.993129 0.00121168 -1.35198e-20)
(0.993497 -0.0122516 -1.84729e-20)
(0.995306 -0.0135829 0)
(1.00192 -0.00792782 0)
(1.02011 -0.0311337 1.38389e-21)
(1.09309 -0.13969 -1.8522e-19)
(0.919819 -0.117211 1.03111e-20)
(0.971286 -0.045904 0)
(1.00019 -0.00338171 -8.13873e-21)
(0.911174 -0.112617 -2.99229e-20)
(1.15211 -0.0762737 3.53565e-20)
(1.06505 -0.00242681 -1.75532e-20)
(0.884191 0.0292211 0)
(1 -0.000104695 -1.59518e-22)
(1.01968 -0.0114993 2.91288e-21)
(1.00573 -0.064683 3.37922e-22)
(-0.055202 0.00286884 0)
(0.0237668 0.180877 -1.4483e-19)
(1.05209 -0.00589266 -3.22544e-21)
(-0.162023 0.0604066 1.03307e-19)
(0.999779 -0.00116551 0)
(0.952761 -0.0728446 -2.01925e-20)
(1.32815 -0.309202 1.14673e-19)
(0.154091 -0.169876 0)
(1.02121 -0.0213052 0)
(1.00002 -0.00223569 0)
(0.429556 0.203586 -1.26289e-20)
(1.12413 -0.0153205 1.98002e-20)
(1.0041 -0.00274255 0)
(0.99995 -0.000978027 0)
(-0.204669 0.218893 6.67065e-20)
(1.00003 -0.000166469 -4.86656e-21)
(1.14868 -0.145007 0)
(0.996724 -0.0039987 0)
(0.350336 0.00895925 -2.50761e-19)
(0.999961 -0.00103871 -9.2799e-21)
(1.00913 -0.000203114 0)
(0.998867 -0.0014747 -1.33154e-20)
(1.05702 -0.0977673 0)
(1.03977 -0.00182237 0)
(0.9367 -0.0476655 2.82256e-20)
(0.905101 0.0178638 -1.79756e-20)
(0.537958 0.0962759 9.98488e-20)
(1.00459 -0.00852907 3.77907e-21)
(0.999148 -0.00655483 -1.09861e-20)
(1.00007 -0.000364971 -1.38e-21)
(0.997925 -0.0148178 9.55804e-21)
(1.03685 -0.0255035 1.17179e-20)
(1.03808 -0.0107442 0)
(1.08181 -0.0685001 0)
(0.998559 -0.00133931 9.039e-22)
(1.11114 0.00608133 -3.80149e-20)
(-0.063843 0.16676 -7.36876e-20)
(1.11793 -0.0619744 -7.94949e-20)
(1.15246 -0.0444098 0)
(0.999728 -0.0014172 -2.067e-20)
(1.02819 -0.0167346 -3.9693e-21)
(-0.274268 0.0089476 -1.94307e-19)
(0.388337 0.282907 0)
(1.0218 -0.00849896 3.23132e-21)
(-0.147819 0.242186 5.59455e-20)
(-0.306937 0.0189725 -6.36409e-21)
(1.02641 -0.00640173 0)
(0.992854 0.000768766 1.33963e-20)
(1.00145 -0.013095 1.0643e-20)
(1.1471 -0.215569 3.55292e-21)
(1.10994 0.00963838 8.49364e-21)
(0.134772 -0.128932 4.04904e-19)
(1.00514 -0.00853779 -2.40123e-21)
(1.02319 -0.081108 0)
(1.00535 -0.00629699 -3.62527e-21)
(0.968722 -0.0257623 7.93228e-22)
(1.00835 -0.000286057 0)
(1.06739 -0.279686 -5.15241e-20)
(1.0372 -0.0244184 -1.56698e-20)
(1.25529 -0.161566 0)
(0.999518 -0.00351675 -6.13938e-22)
(0.92875 -0.254334 0)
(1.00393 -0.00777915 4.82372e-21)
(0.965043 -0.049396 0)
(0.986916 -0.00951064 -7.92507e-21)
(1.07082 0.00809264 1.96424e-21)
(0.722154 0.125804 -5.47931e-20)
(-0.289382 0.0260352 -2.17663e-19)
(0.092185 0.1751 0)
(-0.175034 0.249397 -5.56411e-20)
(1.1217 -0.0220544 0)
(0.989074 -0.0142965 0)
(0.588797 -0.78456 -2.93463e-20)
(0.0737544 -0.141628 0)
(1.11537 0.0168193 -6.70471e-20)
(1.03484 -0.0229957 -1.81723e-20)
(1.00004 -0.00386325 4.84587e-21)
(0.167198 0.219495 1.56095e-19)
(1.00171 -0.0136208 -5.35012e-21)
(-0.0346033 0.100561 -6.04493e-20)
(1.02892 -0.00369837 0)
(1.07691 -0.00882337 5.17867e-21)
(1.03956 -0.0238391 2.58601e-20)
(0.99995 -0.000372449 1.32985e-20)
(1.02107 -0.0223376 0)
(0.980645 0.061214 -1.23051e-19)
(-0.0696718 -0.0202715 0)
(-0.0368952 0.113779 -9.79445e-20)
(0.663613 0.0400511 -8.86416e-20)
(-0.236679 0.00427605 -1.70918e-19)
(0.994482 -0.00714695 0)
(-0.0531361 0.166253 9.50985e-20)
(0.450015 0.0446452 -1.72992e-19)
(1.00002 -0.000117303 0)
(0.992058 -0.0358153 6.16983e-21)
(1.01048 -0.00690574 4.81476e-22)
(1.19165 0.106468 -3.51608e-20)
(1.02305 -0.00573566 3.33525e-21)
(-0.106559 0.0677879 1.33043e-19)
(0.852956 -0.0462359 -2.26042e-20)
(1.20698 -0.0265117 -2.63433e-20)
(1.00686 -0.0442841 0)
(1.27843 -0.347478 -7.97553e-20)
(-0.206776 0.0390493 0)
(0.168753 0.0168345 -5.47642e-19)
(0.941204 -0.109999 -2.64621e-20)
(1.08946 -0.0566407 -4.13596e-20)
(1.00168 -0.000925782 0)
(0.448787 -0.145573 0)
(1.02425 -0.00410024 8.91747e-22)
(0.398704 0.296736 8.46832e-20)
(1.236 -0.0171866 9.91238e-20)
(0.816543 -0.252383 5.13019e-20)
(0.614973 0.0604878 4.27109e-20)
(0.0669282 0.0220968 1.24137e-19)
(1.05646 -0.0346664 -2.42711e-20)
(1.01146 -0.0641728 0)
(1.0031 -0.00378118 0)
(1.05411 0.0469697 1.49239e-20)
(-0.0959086 0.0581182 0)
(-0.186225 -0.00520651 1.49545e-19)
(1.00975 -0.00655252 -7.29625e-22)
(0.208542 0.597419 -6.73649e-21)
(1.06341 -0.0021824 1.06112e-20)
(1.15479 0.0416676 -8.66494e-21)
(0.563874 0.100403 0)
(-0.103123 0.129965 2.72537e-20)
(-0.0934987 0.133372 0)
(1.03044 -0.00313554 4.19432e-22)
(0.919658 -0.0504682 4.14277e-20)
(1.08508 -0.0199518 0)
(1.05941 -0.0111975 1.73092e-20)
(1.0559 -0.00361531 0)
(0.0755294 0.165407 1.44845e-19)
(0.999814 -0.00172984 -8.07606e-21)
(0.683455 0.0194453 -8.09701e-20)
(1.01551 -0.000336485 -1.25031e-21)
(1.02966 -0.00275776 1.76206e-22)
(1.13116 -0.199443 0)
(1.15769 0.0301803 1.2806e-19)
(1.20733 0.110928 0)
(1.03978 -0.0357354 6.90548e-21)
(0.870522 -0.390742 -2.59248e-20)
(1.13277 -0.206806 0)
(1.29519 -0.272016 -1.55396e-19)
(0.897167 0.0185842 1.95097e-20)
(1.00013 -0.000543407 6.83051e-21)
(1.03847 -0.0367175 0)
(1.00016 -0.000555441 -8.25698e-21)
(0.98523 -0.0106639 8.7162e-21)
(1.29564 -0.29099 -2.18304e-20)
(1.07626 0.161182 8.10458e-20)
(1.0229 -0.0383683 5.56106e-21)
(0.986084 -0.00806876 9.37249e-21)
(1.08644 -0.0150938 0)
(0.194258 -0.174722 -2.71542e-19)
(1.01584 -0.0877975 -9.58387e-22)
(0.987002 -0.000465159 8.34051e-21)
(0.383214 0.0958184 4.06527e-19)
(0.993415 -0.00765548 -8.60311e-21)
(0.999988 -0.000305557 -1.31583e-20)
(1.02478 -0.00445105 1.95525e-21)
(1.10076 0.0229792 -2.6722e-20)
(0.996196 -0.000396083 -9.54582e-21)
(1.06357 -0.0125829 1.74765e-20)
(-0.031735 0.174679 -9.37386e-20)
(1.15218 -0.0898957 1.87173e-21)
(1.00524 -0.000182479 0)
(0.134554 0.571691 0)
(0.571459 0.0496332 -1.6275e-19)
(0.993555 -0.00834848 7.85285e-21)
(1.0509 -0.00689381 -1.27607e-20)
(1.09539 -0.052013 2.08271e-20)
(1.00004 -0.000178364 5.35281e-21)
(1.00132 -0.00715851 3.84954e-21)
(1.01689 -0.0194552 -8.42652e-22)