/*--------------------------------*- C++ -*----------------------------------*\
| =========                 |                                                 |
| \\      /  F ield         | OpenFOAM: The Open Source CFD Toolbox           |
|  \\    /   O peration     | Version:  v2012                                 |
|   \\  /    A nd           | Website:  www.openfoam.com                      |
|    \\/     M anipulation  |                                                 |
\*---------------------------------------------------------------------------*/
FoamFile
{
    version     2.0;
    format      ascii;
    class       volScalarField;
    location    "800";
    object      k;
}
// * * * * * * * * * * * * * * * * * * * * * * * * * * * * * * * * * * * * * //

dimensions      [0 2 -2 0 0 0 0];


internalField   nonuniform List<scalar> 
9793
(
0.000437817
0.0070462
0.00028147
0.000140946
0.0356349
0.000153605
0.000150524
0.00013942
0.000146149
0.0370332
0.000183451
0.000229216
0.000141433
0.000138248
0.000159943
0.00013752
0.000145325
0.000148272
0.0259877
0.00013816
0.00029462
0.000151098
0.00628626
0.000130902
0.000147103
0.000142414
0.00013775
0.000141594
0.000175678
0.000146072
0.000184779
0.00539692
0.00995325
0.000152414
0.000180453
0.00194813
0.000155376
0.000151067
0.000140317
0.000143278
0.000184572
0.000160311
0.000151591
0.000151377
0.000151761
0.000144242
0.000178756
0.000861508
0.0071216
0.000140685
0.000182679
0.000188204
0.000153999
0.000146565
0.000264737
0.000371818
0.000144181
0.000203346
0.00455038
0.000140168
0.000149821
0.000153429
0.00467093
0.00014897
0.0481914
0.00829617
0.00418833
0.00681222
0.000212592
0.000183441
0.000232444
0.000143974
0.000142271
0.00525613
0.000187319
0.00314232
0.000144185
0.000137365
0.000145502
0.000142705
0.00782162
0.000145093
0.0063966
0.00053831
0.000175346
0.00075117
0.000143746
0.000144215
0.000151655
0.000147133
0.00771108
0.0102134
0.00013745
0.00506854
0.000152501
0.000636635
0.000358703
0.00714411
0.000137094
0.000136145
0.000135996
0.000146061
0.000137109
0.000136933
0.000136864
0.000173369
0.000150988
0.000150285
0.000152873
0.000505491
0.000145825
0.000257389
0.000143922
0.00170674
0.000187988
0.000144256
0.0102326
0.000186811
0.000147268
0.00431617
0.000618888
0.000160572
0.000143588
0.000154642
0.000148174
0.000266054
0.000169386
0.000852385
0.000149338
0.000142195
0.000149759
0.000144287
0.000142246
0.000147579
0.000145719
0.000144262
0.000152034
0.000149813
0.000143855
0.000133782
0.00014348
0.00014666
0.000143102
0.00013641
0.000139117
0.000141407
0.00332357
0.000136489
0.000136941
0.00275964
0.00165026
0.000149634
0.00225801
0.0352264
0.00013672
0.000155934
0.000141368
0.000146318
0.000136193
0.000142638
0.000139472
0.000141624
0.000136112
0.0376983
0.00495199
0.000452037
0.0010297
0.00015631
0.000137251
0.000143065
0.000143669
0.0111062
0.00510042
0.0111321
0.000147945
0.0335845
0.00014432
0.000130779
0.00014253
0.000158993
0.000755495
0.000149813
0.000136312
0.000146709
0.00215591
0.000142118
0.000209898
0.000142475
0.000143426
0.00013622
0.000148006
0.000143173
0.00819509
0.000258649
0.00657029
0.000158573
0.0276261
0.000142056
0.0251237
0.000134557
0.000145663
0.0423958
0.000455864
0.000142201
0.000144388
0.000134781
0.000662009
0.000136345
0.000167733
0.000150069
0.000163238
0.0066459
0.00801645
0.000146782
0.0380216
0.000140321
0.000144159
0.00231611
0.00013429
0.0110744
0.000207491
0.000143827
0.000148238
0.000143183
0.000775799
0.0416143
0.000153467
0.000136596
0.000202886
0.000177209
0.00013124
0.000130885
0.000150058
0.000136172
0.000173999
0.0107663
0.000143711
0.000142762
0.000306077
0.000144375
0.000167184
0.000138262
0.000142355
0.00923833
0.000142271
0.0001369
0.000139293
0.000146273
0.000137137
0.000150572
0.000147378
0.000153702
0.000185181
0.000171748
0.00014172
0.00015309
0.000143419
0.000154239
0.000154369
0.000136034
0.00381973
0.000142496
0.000185852
0.000149933
0.000157166
0.000132301
0.000132107
0.000163168
0.0429358
0.000150034
0.000136231
0.000134241
0.000156903
0.000143979
0.00742903
0.00721181
0.000142262
0.000284294
0.00014375
0.000171695
0.000145973
0.000131602
0.000154147
0.000142079
0.000169299
0.000143788
0.000147396
0.000155808
0.000142399
0.00014434
0.000143778
0.0101449
0.000151056
0.000156731
0.00015021
0.000147435
0.000148644
0.000156602
0.000142595
0.0276752
0.000136769
0.00514813
0.0108998
0.000153943
0.000151827
0.00013637
0.000158084
0.000153568
0.00014559
0.00568555
0.000147421
0.000136225
0.000153689
0.000148178
0.00014618
0.000145777
0.000621552
0.000142715
0.000155383
0.000150348
0.000141688
0.00556865
0.0406983
0.00415498
0.00013305
0.000353066
0.000148943
0.00651316
0.000193688
0.000135043
0.000152049
0.000192606
0.000144749
0.000162131
0.000190322
0.000139057
0.000150605
0.000145367
0.000144349
0.000142151
0.00519209
0.000142533
0.000141468
0.0315624
0.000144624
0.000137374
0.000133
0.000149447
0.000139196
0.0168808
0.000148408
0.000144213
0.000147266
0.000145841
0.00766141
0.000146369
0.00017216
0.000130915
0.00016888
0.000347495
0.000211219
0.000170724
0.000149281
0.00015114
0.0403783
0.00015016
0.00365626
0.000144426
0.000136737
0.00995928
0.00016169
0.0369729
0.000144241
0.000176383
0.00313981
0.000153081
0.000141849
0.010395
0.00015652
0.00378036
0.000152988
0.000146113
0.00661429
0.000142945
0.000149257
0.000152312
0.000145883
0.000138052
0.000146354
0.000151916
0.00836589
0.000147442
0.000690586
0.00519438
0.041168
0.000177451
0.00232172
0.000142686
0.000145338
0.0350548
0.00485973
0.000138308
0.000148023
0.0416148
0.000134178
0.00329939
0.00014301
0.000151919
0.000134007
0.000165056
0.000142473
0.000157316
0.000311379
0.000136525
0.00649236
0.000162417
0.00014869
0.000163077
0.000143339
0.000150198
0.000141925
0.0259412
0.000143512
0.000146348
0.000189917
0.000145882
0.000154323
0.000148955
0.000135755
0.000160161
0.00014282
0.000146455
0.000133554
0.00750006
0.000140226
0.00756334
0.000143309
0.00880629
0.00015886
0.000143864
0.000155173
0.000147431
0.00251554
0.000141852
0.000131858
0.000136693
0.000143812
0.000149249
0.0401374
0.000191478
0.000264371
0.00762592
0.000154327
0.000142764
0.000181306
0.000159866
0.000163563
0.00661492
0.00924014
0.000146496
0.000155101
0.000176684
0.000143691
0.000146584
0.000143502
0.000137016
0.000153326
0.000835703
0.000157448
0.00413127
0.000137245
0.000158938
0.0001306
0.000150553
0.000150556
0.000145405
0.000182312
0.000143993
0.000152001
0.000134129
0.000144464
0.000156062
0.000578234
0.000143446
0.00014274
0.0116524
0.000158285
0.000148461
0.00416048
0.00862466
0.000149974
0.000153452
0.000149568
0.00015609
0.000146594
0.000153796
0.000150908
0.000142533
0.000143657
0.00014191
0.00224463
0.000190697
0.00014141
0.00213414
0.000165394
0.000136559
0.000151032
0.000145746
0.000248966
0.000145938
0.000261039
0.000135374
0.000142423
0.000181596
0.000143313
0.000165572
0.00820352
0.000156527
0.000136512
0.000627671
0.000157664
0.000138071
0.000143717
0.00018032
0.000140935
0.000137908
0.000142743
0.000140834
0.00911827
0.000173896
0.000163971
0.000152117
0.000143413
0.000142178
0.000145447
0.000144481
0.000142929
0.000230159
0.000216417
0.000134421
0.000153632
0.0384804
0.000144774
0.000311476
0.000172976
0.000143231
0.000185711
0.00496965
0.000143935
0.00021894
0.000131708
0.000632169
0.000155357
0.00671066
0.000141992
0.000142129
0.000145393
0.00857001
0.000151692
0.00372466
0.00784396
0.0433824
0.000166615
0.000237231
0.000163469
0.000160201
0.000162351
0.000152419
0.00595109
0.000146354
0.00860764
0.000133464
0.00219294
0.000152409
0.000148607
0.000141929
0.000227514
0.00013383
0.00014207
0.000149885
0.000150839
0.000158243
0.000142384
0.000142938
0.000144441
0.000144137
0.021887
0.000140639
0.00906067
0.0145614
0.000140733
0.000150939
0.000159779
0.000148046
0.000143406
0.000147739
0.000153685
0.000155415
0.000149606
0.000150875
0.000137382
0.000146786
0.000148855
0.000154422
0.000147922
0.000149752
0.0145851
0.000144334
0.036671
0.000155732
0.000151287
0.000143042
0.000138935
0.00015236
0.000154928
0.000142189
0.000141
0.00013036
0.000142471
0.000140852
0.000141993
0.000152922
0.000132732
0.000148634
0.000153835
0.0001461
0.000152653
0.00014982
0.000163587
0.000154975
0.000141458
0.000143124
0.000137735
0.000134409
0.000144561
0.000134818
0.000141272
0.000144398
0.000133756
0.000166727
0.000143607
0.000154456
0.000143723
0.00870422
0.000141041
0.000133947
0.000182364
0.000131581
0.000147026
0.00023348
0.000147192
0.000154654
0.000149687
0.000203281
0.000139021
0.000179342
0.0481504
0.00579792
0.00700019
0.000146549
0.000143843
0.00596944
0.000148067
0.000133715
0.00251486
0.0080545
0.0338213
0.000143224
0.000183178
0.000143858
0.000143647
0.00131612
0.000142105
0.000299764
0.000151713
0.000190307
0.000141302
0.000151976
0.00014866
0.000225967
0.0135691
0.000143366
0.000150057
0.000158149
0.000141113
0.000155405
0.000179859
0.000294727
0.000141756
0.000257686
0.000148181
0.00410589
0.000247844
0.010908
0.00802903
0.000143096
0.000167207
0.00469071
0.000141059
0.000141897
0.000154187
0.000146753
0.000133609
0.000469041
0.000133484
0.0102644
0.000151758
0.00149684
0.000183419
0.000145658
0.000245346
0.00863048
0.000147907
0.00719716
0.000165447
0.00019155
0.000133679
0.00013146
0.00817471
0.000144949
0.013054
0.000140964
0.00711954
0.00013778
0.000779552
0.00911693
0.000143066
0.0010861
0.000144262
0.000150166
0.000167892
0.00902187
0.013781
0.000134501
0.000138018
0.000134169
0.00690651
0.0366068
0.000156768
0.000158699
0.000343297
0.000133926
0.000140894
0.000148539
0.000301036
0.000160417
0.000145832
0.00014277
0.000139797
0.00697165
0.0306663
0.000778445
0.000137854
0.000140373
0.00962261
0.000141996
0.00643745
0.000174684
0.0108285
0.00243449
0.00789188
0.000140263
0.000145663
0.000152517
0.000149324
0.000154898
0.000142343
0.000183414
0.00574829
0.000137157
0.00919691
0.000139688
0.00401236
0.000146886
0.00648279
0.000155798
0.000163112
0.000142061
0.000141002
0.000164989
0.00581163
0.00474305
0.000145516
0.000165641
0.000142974
0.000150074
0.000152482
0.000336609
0.000167572
0.00019237
0.000140112
0.000158709
0.000143077
0.000132972
0.000152055
0.000140607
0.0279902
0.000141813
0.000150285
0.000155298
0.000153697
0.00013355
0.000186077
0.000149692
0.000149072
0.000140441
0.000140991
0.00572636
0.000141114
0.000243177
0.000137337
0.000199066
0.000142584
0.000243396
0.000145219
0.000285156
0.000146897
0.000145381
0.000140009
0.00868429
0.00581748
0.00428047
0.000275734
0.0106726
0.00014484
0.000152123
0.008287
0.000134201
0.00741285
0.00448022
0.000185535
0.000226877
0.00014997
0.00595125
0.000158065
0.00716909
0.00820169
0.000149899
0.000146571
0.00548856
0.0218477
0.000164905
0.000152766
0.000142224
0.000149921
0.00016589
0.000144456
0.000134263
0.000149572
0.000247584
0.000167815
0.000153602
0.00528848
0.000140163
0.000134918
0.00251832
0.0258803
0.000166662
0.000149861
0.000219047
0.000138206
0.000134094
0.0105633
0.000133672
0.000149627
0.00633593
0.00730327
0.000143745
0.0066802
0.000283314
0.000235848
0.000653319
0.00031859
0.000153625
0.00923944
0.00014753
0.000139989
0.000144169
0.000149995
0.000143825
0.000505396
0.000146693
0.0111941
0.000139552
0.000173013
0.000148126
0.000166585
0.000158975
0.000144996
0.000174724
0.000139715
0.000134422
0.000204399
0.000154878
0.000161279
0.000144456
0.000134696
0.00652864
0.00937108
0.000156995
0.000130547
0.00013038
0.000138391
0.000148768
0.0314238
0.000202067
0.000626944
0.000165134
0.00458362
0.000146024
0.000162918
0.000160458
0.000153107
0.000235292
0.000142161
0.000141537
0.000640563
0.000167524
0.000436398
0.000141641
0.00487412
0.0102117
0.000165652
0.00017059
0.000152614
0.0287155
0.00014604
0.000155196
0.00865697
0.000154517
0.000141766
0.000252422
0.00014731
0.000137508
0.000141168
0.000277133
0.000147778
0.000156288
0.00210452
0.0001696
0.000156114
0.000165588
0.0011114
0.00751113
0.000951422
0.000134495
0.0001459
0.00014905
0.000160073
0.000145757
0.00904734
0.00808647
0.000152643
0.00527183
0.000255947
0.0066093
0.00014613
0.00787055
0.000142849
0.00782907
0.000190097
0.000138442
0.00632528
0.00831973
0.000139782
0.000145235
0.000144934
0.000281141
0.00650099
0.00015677
0.000188212
0.000156278
0.000320852
0.000387562
0.00681079
0.000143544
0.000143695
0.000453991
0.00210592
0.000141744
0.000144442
0.000134663
0.000147704
0.000146637
0.000155002
0.0147986
0.000143848
0.000158181
0.00385418
0.000147176
0.000152819
0.000154499
0.0108723
0.000145894
0.00015705
0.00114914
0.000147881
0.000134667
0.000148118
0.000140554
0.000149818
0.00990096
0.00726106
0.000146082
0.00123009
0.000161203
0.000829466
0.000143499
0.000152278
0.000149352
0.000147722
0.00699315
0.000146204
0.000152966
0.000156763
0.000148948
0.000141599
0.000155898
0.000142563
0.000208833
0.000145665
0.00014112
0.0079679
0.000141867
0.0120539
0.000166794
0.00014098
0.000289563
0.000154935
0.000163863
0.000321892
0.000135584
0.00264449
0.000141041
0.000143641
0.0406197
0.00472506
0.000135751
0.000145436
0.000138855
0.00014697
0.0001932
0.000149127
0.000146264
0.000151735
0.000149165
0.000148826
0.000144036
0.000137031
0.00014068
0.000142105
0.0056295
0.000154345
0.000134364
0.000170601
0.000147046
0.00220409
0.000287362
0.000164349
0.000145229
0.000142745
0.000190963
0.000152804
0.000145004
0.000147465
0.0103075
0.000233772
0.000143582
0.000132518
0.000186311
0.000184402
0.000131307
0.00765394
0.000170868
0.000145884
0.000147886
0.000198893
0.000146551
0.000163537
0.00754101
0.000147608
0.000235007
0.000209655
0.000249977
0.000132585
0.000143793
0.000132569
0.000132473
0.000231025
0.000141905
0.000246042
0.000185256
0.000132472
0.000148141
0.000195437
0.000151157
0.000146991
0.000143555
0.000151663
0.00652105
0.000132581
0.00014528
0.00698561
0.000151521
0.000146537
0.000163471
0.000142002
0.000146757
0.000142418
0.000145028
0.000152858
0.000152651
0.000230557
0.00278077
0.00013269
0.000144101
0.000132628
0.000214667
0.000141028
0.000154397
0.000143435
0.000135601
0.000179468
0.000136959
0.000161015
0.000144092
0.000137113
0.00475993
0.00454453
0.000147211
0.000145865
0.000140632
0.00010133
0.000178961
0.000143552
0.00728191
0.0128028
0.00015267
0.000141677
0.0104737
0.000152323
0.00944758
0.000192843
0.000253655
0.000142438
0.00017219
0.000208761
0.000136632
0.0045749
0.000470419
0.000143627
0.00118257
0.00404158
0.000165509
0.00988641
0.000132721
0.000157959
0.000178265
0.000142608
0.00620063
0.000132835
0.00017186
0.000203177
0.000132638
0.00196189
0.000148287
0.000148897
0.000164691
0.000153192
0.000284563
0.000538796
0.000134975
0.00015368
0.000356041
0.000138935
0.000154739
0.000139752
0.0103004
0.00819131
0.000151585
0.000145731
0.000155116
0.000330369
0.000388318
0.000160324
0.000132755
0.00014042
0.000422657
0.00478438
6.08974e-05
0.000150694
0.000151554
0.000156497
0.000134492
0.000152948
0.000167806
0.000152452
0.000140776
0.000167373
0.00814679
0.000446922
0.000140781
0.00024604
0.000154245
0.000325841
0.00113561
0.000181558
0.0154817
0.000303558
0.000132829
0.000209581
0.000211047
0.00684494
0.00595334
0.000143598
0.000215839
0.00654058
0.000175982
0.000154327
0.00602593
0.00569376
0.000141631
0.000155706
0.000154335
0.000142524
0.000188523
0.00014329
0.000155333
0.000138339
0.000132934
0.000147947
0.000144043
0.000150582
0.000155888
0.00403458
0.000166649
0.00595424
0.000139885
0.000157201
0.000146097
0.000723024
0.00879678
0.000142342
0.000178603
0.000146296
0.000135394
0.000143023
0.000135376
0.000141808
0.000218731
0.000146539
0.00184888
0.000143849
0.000140526
0.00884979
0.00015334
0.00014794
0.00014174
0.000143756
0.0033018
0.000187692
0.00658659
0.000250694
0.0119788
0.00014567
0.000147572
0.000146418
0.00015385
0.00019416
0.000192786
0.000566391
0.000140976
0.000175712
0.000149344
0.00052208
0.000416201
0.00015474
0.000862793
0.00277686
0.000155907
0.000173437
0.000140993
0.000175561
0.000154484
0.000202098
0.000174413
0.000132948
0.0029423
0.00776675
0.000146966
0.000151267
0.000148326
0.000257581
0.000142056
0.000147402
0.00637416
0.000139677
0.00390064
0.0001671
0.000162734
0.000149276
0.00014785
0.00456371
0.000142024
0.00555077
0.000154304
0.000143604
0.000139023
0.000233986
0.000150403
0.000538546
0.000152843
0.000167145
0.000153863
0.000196995
0.00015175
0.000144137
0.00678672
0.000147173
0.00013683
0.000493821
0.00676138
0.000166782
0.000137762
0.00015126
0.0202593
0.000201997
0.000141899
0.00027682
0.00013864
0.00023166
0.000200711
0.000148561
0.000141865
0.000204323
0.00014083
0.000139089
0.000143606
0.000196764
0.00100153
0.000159845
0.000165002
0.000147766
0.000148961
0.0101918
0.000193103
0.000150407
0.000147376
0.000141428
0.000238719
0.000921768
0.000513548
0.000142658
0.000222855
0.000135444
0.000135201
0.000151004
0.000148759
0.000173843
0.000143459
0.000211383
0.00468131
0.00320002
0.000153854
0.000145461
0.000145882
0.000171823
0.000138217
0.000144057
0.000167024
0.000145664
0.000143156
0.000149218
0.000165174
0.000134071
0.000841273
0.000172833
0.000165736
0.000152786
0.000167505
0.000152247
0.0353499
0.000143734
0.000142872
0.000145257
0.000141546
0.000145058
0.000140773
0.000229077
0.000217588
0.000146317
0.000150122
0.000143735
0.000165537
0.000151422
0.000184295
0.000149112
0.000317971
0.000143157
0.000147888
0.000141549
0.000198784
0.000145137
0.000340342
0.000144924
0.000145893
0.000130436
0.000369705
0.000152123
0.000302077
0.000421433
0.000148306
0.000145096
0.000141989
0.000144044
0.000159321
0.000149548
0.000155225
0.00286579
0.000146309
0.000100548
0.000848649
0.000152657
0.000214725
0.000146266
0.000152798
0.000141223
0.00013649
0.000135524
0.000143571
0.00355159
0.000205505
0.000139901
0.00672098
0.000252714
0.000142699
0.00210834
0.000136265
0.000166899
0.00015085
0.000141107
0.00364378
0.000145664
0.000155225
0.000152951
0.000175265
0.000194854
0.000148376
0.000140938
0.000149877
0.000888499
0.00138318
0.000168507
0.000157737
0.000145046
0.000144144
0.00446004
0.000148004
0.000161365
0.000169838
0.00607404
0.000145425
0.0001676
0.000145976
0.000147687
0.000165969
0.000163176
0.000163803
0.000149265
0.000148334
0.000156884
0.00463738
0.000202322
0.000136839
0.000155448
0.000199279
0.000152669
0.00017364
0.000146749
0.00014742
0.000143428
0.000196359
0.0103154
0.000142885
0.000145664
0.0049648
0.000165852
0.000157974
0.000145468
0.000143477
0.000143503
0.000134645
0.000190669
0.000155462
0.00015005
0.000149111
0.000144014
0.000145209
0.000245631
0.000143845
0.00014395
0.000147652
0.00330191
0.000394698
0.000144862
0.000143199
0.00014489
0.00541695
0.000148716
0.000398926
0.000145436
0.000189529
0.00014502
0.000147502
0.000198068
0.000147211
0.000164942
0.000147409
0.000144535
0.000136399
0.000150022
0.000235355
0.000148208
0.000148832
0.00735419
0.000146651
0.000149789
0.000149038
0.000146799
0.000144091
0.000148383
0.000219568
0.000139215
0.000139766
0.000140484
0.00421152
0.000153946
0.00986512
0.000145894
0.000147484
0.00660992
0.00756267
0.0078954
0.000156728
0.000167214
0.00978616
0.000145905
0.00845297
0.00015004
0.000209338
0.00014108
0.000566053
0.0025068
0.000130535
0.000152301
0.000156482
0.000149698
0.000134029
0.00647188
0.000140336
0.00944798
0.000147167
0.000143881
0.000147647
0.000134052
0.000147671
0.000227461
0.000143884
0.000141822
0.000141927
0.000147049
0.000143729
0.000195289
0.0162047
0.00737127
0.00014592
0.000137068
0.000153392
0.000144986
0.000143667
0.000204179
0.000171796
0.000152201
0.000143127
0.00115425
0.000150731
0.000239704
0.00630502
0.000150693
0.000136047
0.000142848
0.00017745
0.00354516
0.000146741
0.000142634
0.000246285
0.000215726
0.000175358
0.01003
0.000143457
0.000163372
0.000162024
0.000133721
0.000147618
0.00354834
0.00393075
0.00316571
0.000142953
0.0085763
0.000147427
0.000145961
0.00016755
0.000148549
0.000167894
0.000191815
0.000142836
0.000144792
0.000144069
0.000140224
0.00013377
0.000142897
0.00015525
0.00570814
0.000181871
0.000130449
0.000133904
0.000142752
0.0001481
0.000143833
0.000334028
0.000148755
0.000148956
0.000148579
0.0089683
0.000142781
0.00015159
0.00477602
0.000143119
0.00014325
0.000438256
0.000143728
0.00014353
0.00014245
0.000303404
0.000184212
0.000173167
0.00014765
0.00133075
0.000136648
0.000135048
0.000136937
0.000143064
0.000184659
0.000142906
0.000146966
0.00017441
0.000144103
0.00739042
0.000157337
0.000161659
0.000147635
0.000205844
0.000162909
0.000145666
0.000141736
0.000149589
0.000146101
0.000143771
0.00626075
0.000140574
0.000202928
0.000142218
0.000147778
0.0294152
0.000141631
0.0118685
0.000196948
0.000143529
0.000255128
0.000142089
0.000148315
0.000142746
0.000147671
0.000139003
0.000143926
0.000144016
0.00014511
0.00020838
0.000145666
0.000140542
0.000148091
0.000139545
0.000142476
0.00014253
0.00014403
0.000137602
0.000143001
0.000143556
0.000143558
0.000143044
0.000148154
0.0387437
0.000144226
0.000149019
3.64444e-05
0.00703808
0.000135025
0.000177456
0.000140814
0.000143627
0.000143383
0.000146309
0.0112307
0.00730683
0.000141584
0.000151429
0.00634471
0.000146531
0.000218718
0.00244023
0.000133914
0.00166382
0.000145254
0.000273999
0.000152932
0.00210933
0.0410888
0.00691301
0.000140854
0.000141776
0.000135096
0.000153861
0.000203915
0.00015049
0.000241709
0.00581337
0.000143833
0.000345379
0.00022927
0.00014404
0.000136687
0.000166159
0.000163759
0.000143782
0.000141337
0.000136828
0.00016482
0.00016407
0.000167874
0.00016333
0.000166138
0.00269844
0.00014196
0.000143832
0.000142068
0.000282424
0.000167297
0.000168127
0.000269236
0.00232778
0.0001982
0.000141573
0.000167025
0.000142714
0.000165913
0.00014343
0.000148658
0.000238212
0.000158059
0.00020239
0.000133066
0.00711147
0.000180667
0.000201894
0.00731896
0.00933476
0.000141948
0.000143381
0.000143344
6.65785e-05
0.000144031
0.000139988
0.000143464
0.000161655
0.00533398
0.00516667
0.000166427
0.000163325
0.00264834
0.000171489
0.00617023
0.000210655
0.000226491
0.000169555
0.00468118
0.00794938
0.000141579
0.000141673
0.000142208
0.000195063
0.000169019
0.000197794
0.000143672
0.000142935
0.00014384
0.000265201
0.00014225
0.000143402
0.00014154
0.00016771
0.000140742
0.00014212
0.00013618
0.000158713
0.0132807
0.000163059
0.000162648
0.000145308
0.00546741
0.000166782
0.000134656
0.000143144
0.000275815
0.000695596
0.00014656
0.000147025
0.000291881
0.000143008
0.000141136
0.000140952
0.000146207
0.000108372
0.000140899
0.000146134
0.000141805
0.0001471
0.000143492
0.00014218
0.0001412
0.000143268
0.000145032
0.00382255
0.000142596
0.000138672
1.95343e-05
0.000196856
0.000170072
0.000184833
0.000140943
0.000569092
0.000142851
0.000180916
0.000141587
0.0027256
0.000142656
0.00014258
0.000134882
0.00207002
0.000167198
0.000142509
0.00399443
0.000143434
0.000134923
0.000143621
0.000149787
0.000159014
0.000140992
0.00240302
0.000144893
0.000204857
0.000193143
0.000145312
0.00016431
0.000140835
0.000138664
0.000142296
0.00223645
0.00017186
0.000184502
0.000198251
0.0031457
0.000157224
0.000153264
0.000168075
0.000143858
0.000132431
0.000306995
0.00207115
0.000140712
0.000182028
0.000140966
0.000141353
0.00581184
0.00013798
0.000143786
0.000403913
0.000207928
0.00348823
0.000144534
0.000141338
0.000220049
0.000140743
0.000135706
0.00126586
0.000143511
0.000231904
0.0074421
0.0376003
0.000143465
0.000149578
0.000141841
0.00013365
0.000165108
0.000146311
0.000143763
0.000172197
0.000138745
0.000205797
0.000145104
0.000150279
0.000164554
0.008092
0.000165449
0.000148119
0.000237872
0.00742158
0.000143958
0.0012513
0.0001476
0.000143692
0.00014519
0.000141296
0.000166073
0.00015774
0.00104984
0.00014311
0.000166544
0.000148778
0.000131932
0.000141622
0.00014461
0.000158052
0.000139473
0.00014332
0.000149538
0.000146282
0.00220679
0.00014349
0.000150369
0.000184529
0.000151367
0.000135358
0.00610437
0.00182807
0.00260285
0.0255582
0.00018695
0.000138388
0.000148995
0.00548859
0.0104968
0.000197408
0.00251197
0.00688852
0.000145083
0.00461981
0.00249848
0.000146292
0.000597406
0.00014816
0.00632341
0.00129638
0.00334401
0.000148519
0.000141649
0.000192787
0.000144317
0.00014555
0.000909385
0.00030345
0.000143744
0.000144109
0.00014293
0.00707638
0.000142339
0.000141945
0.000142608
0.000140929
0.000141224
0.000430896
0.000148093
0.000140756
0.000145693
0.000166638
0.00154277
0.0102072
0.000143945
0.000142746
0.000150509
0.000143651
0.00014103
0.000141667
0.00136708
0.000143544
0.000168992
0.00014189
0.000146643
0.000135951
0.000144292
0.00316084
0.00101259
0.000137731
0.000148462
0.00787656
0.00355778
0.000200482
0.00399035
0.000144641
0.000166629
0.000141841
0.000131835
0.000142314
0.000135089
0.000141542
0.00014284
0.000146865
0.000212552
0.000133824
0.00362217
0.00843226
0.000133625
0.000193391
0.000180556
0.000148108
0.00014189
0.000142284
0.000144197
0.00014206
0.00677543
0.000132623
0.000142588
0.00114748
0.000141836
0.00014334
0.000140749
0.000123443
0.000143793
0.000143635
0.0121094
0.000138629
0.000138137
0.000142219
0.000214275
0.000142926
0.000131003
0.000141751
0.000134067
0.00560343
0.000390043
0.000141444
0.000732413
0.000132244
0.000143371
0.000149145
0.00271849
0.0132804
0.000133865
0.000155633
0.00014354
0.000142266
0.000142423
0.000141672
0.00508194
0.00717099
0.000144264
0.000147971
0.000171711
0.000140545
0.000141868
0.000166262
0.000158865
0.0126152
0.000144371
0.000154007
0.00565665
0.000142048
0.000165696
0.000442956
0.0247366
0.000141568
0.000140854
0.000142536
0.000142825
0.000140842
0.00550116
0.000141709
0.0057911
0.00201969
0.00014818
0.000165495
0.00805025
0.000136386
0.000674768
0.00412749
0.000266971
0.000158545
0.000142311
0.000153124
0.00503773
0.000139504
0.000195698
0.000140835
0.000134053
0.00013416
0.000134748
0.000142051
0.00467543
0.00014714
0.00758708
0.00126661
0.000195606
0.00347846
0.000132082
0.000143572
0.000151004
0.00297793
0.000142156
0.00727825
0.000186983
0.000133909
0.000140549
0.00505605
0.00014063
0.000195702
0.00724506
0.000141426
0.00938436
0.000147771
0.000207666
0.000181005
0.000143792
0.000138137
0.000197784
0.00030558
0.000143619
0.000151031
0.0001349
0.000151877
0.000140117
0.00711714
0.000141377
0.000134567
8.0084e-05
0.000134654
0.00959064
0.000143943
0.000142043
0.000142976
0.00578048
0.000141147
0.000140333
0.00467034
0.000631322
0.0045843
0.000144784
0.000134817
0.000186304
0.0101944
0.000572895
0.000240598
0.000162158
0.000164593
0.0001467
0.000143136
0.000168018
0.00014747
0.000142643
0.000136461
0.000193132
0.000168132
0.00014054
0.000130871
0.000146333
0.000138018
0.000144852
0.000169823
0.00050305
0.00336585
0.000188026
0.0021518
0.0102095
0.000138571
0.000140638
0.000148448
0.000167924
0.000136397
0.000145135
0.000140353
0.000141485
0.000142078
0.000181529
0.000144175
0.000239232
0.000142825
0.000140358
0.000213838
0.000170796
0.000145376
0.000140555
0.000139993
0.0107409
0.000141451
0.000145986
0.000135475
0.000151482
0.000140631
0.000142724
0.000141232
0.000218949
0.000140794
0.000139904
0.000171629
0.000137298
0.000197974
0.00016573
0.000141477
0.000143685
0.00370507
0.00024961
0.0021315
0.00478284
0.000164611
0.000152406
0.000147166
0.000142624
0.00020632
0.000139955
0.00897587
0.00963884
0.00015116
0.000172028
0.00563371
0.000140238
0.00674029
0.000158367
0.000523458
0.000154337
0.000139437
0.000139658
0.000147425
0.000141559
0.000282769
0.00644995
0.000207945
0.000143293
0.000140843
0.000139926
0.000339364
0.000158796
0.000226715
0.000140131
0.000144471
0.00020483
0.000141882
0.000161212
0.000277678
0.000140226
0.000145461
0.000131703
0.000143577
0.00770007
0.0409248
0.000139999
0.000141773
0.000138798
0.00816559
0.000141973
0.00015321
0.000230768
0.000280695
0.0119006
0.000588359
0.00465681
0.000142658
0.00015894
0.000145886
0.000142134
0.000151438
0.000232824
0.000137156
0.000142572
0.000224759
0.000144214
0.000136698
0.00785669
0.000134108
0.000142354
0.000220254
0.00267425
0.000134135
0.000135255
0.000178574
0.00340034
0.000190958
0.00229742
0.000151657
0.0106939
0.000140624
0.000217204
0.000209641
0.00532758
0.00561511
0.000177444
0.0137341
0.000366797
0.000280223
0.000138222
0.000140854
0.000135915
0.000143645
0.000321018
0.000139246
0.000182736
0.000135225
0.000147786
0.000145069
0.00835279
0.000143079
0.00162777
0.000157554
0.000185474
0.000207733
0.000191062
0.000405241
0.000131533
0.00017134
0.000143364
0.000462079
0.000146089
9.36451e-05
0.000810994
0.000181589
0.00442579
0.000139459
0.0042669
0.000165346
0.000176103
0.000144411
0.0104042
0.00014722
0.000140154
0.000142384
0.00109687
0.000145663
0.000135739
0.000253292
0.000163427
0.000238971
0.000139603
0.000133982
0.0105371
0.000189002
0.00839183
0.00727228
0.000140388
0.00030543
0.00994116
0.000181297
0.000138747
0.000221837
0.00775643
0.000139308
0.00015263
0.000132122
0.00049654
0.0054363
0.00421568
0.000228254
0.000139481
0.000138546
0.000147201
0.000135029
0.00015812
0.000166408
0.000148839
0.000136769
0.00702698
0.000149615
0.000144484
0.000154971
0.00201222
0.000865651
0.00015417
0.000167807
0.000167291
0.00490643
0.000139499
0.00394645
0.000142948
0.000168459
0.00139074
0.000146886
0.00422492
0.000136596
0.000133226
0.000139744
0.000139719
0.000138657
0.000140108
0.000131921
0.000784513
0.000165279
0.000141142
0.0063731
0.00014034
0.000145194
0.000138421
0.0119296
0.00014187
0.000151321
0.000244339
0.000251046
0.000140083
0.000132024
0.0101137
0.000143322
0.00784187
0.000543025
0.000145194
0.000146993
0.00018394
0.000856662
0.000148536
0.000135498
0.000138344
0.000155622
0.000178559
0.000151898
0.00027327
0.000248442
0.000151166
0.00014739
0.000163915
0.000148474
0.000225323
0.00679257
0.000137817
0.00447231
0.000210005
0.000142819
0.000140443
0.000140603
0.000140316
0.000138355
0.000141256
0.000139036
0.000149252
0.0001219
0.00015302
0.000143107
0.000152254
0.000154993
0.000138152
0.000138796
0.000211299
0.000152466
0.000158071
0.000137935
0.000146888
0.000137725
0.000133755
0.00566836
0.000143411
0.000141182
0.00485297
0.00818226
0.00336458
0.000140215
0.00137538
0.000145663
0.000367342
0.0063986
0.000148099
0.00850236
0.000138637
0.000135826
0.00284099
0.000139613
0.000184595
0.0328418
0.00523771
0.000165979
0.00159793
0.000144898
0.000140036
0.000152598
0.000138424
0.00485089
0.00343376