/*--------------------------------*- C++ -*----------------------------------*\
| =========                 |                                                 |
| \\      /  F ield         | OpenFOAM: The Open Source CFD Toolbox           |
|  \\    /   O peration     | Version:  v2012                                 |
|   \\  /    A nd           | Website:  www.openfoam.com                      |
|    \\/     M anipulation  |                                                 |
\*---------------------------------------------------------------------------*/
FoamFile
{
    version     2.0;
    format      ascii;
    class       volScalarField;
    location    "800";
    object      omega;
}
// * * * * * * * * * * * * * * * * * * * * * * * * * * * * * * * * * * * * * //

dimensions      [0 0 -1 0 0 0 0];


internalField   nonuniform List<scalar> 
9793
(
0.132191
0.27995
0.178519
0.0210062
1.88353
0.0225707
0.0218191
0.0207634
0.0215614
1.8191
0.0543158
0.0369258
0.0210509
0.0203285
0.0228412
0.0202567
0.0211314
0.0214026
1.2025
0.0203057
0.0790606
0.0227857
0.376657
0.0195611
0.0216544
0.0211473
0.0202537
0.020796
0.0405815
0.0215504
0.0326925
0.360919
0.483992
0.0218554
0.0457819
0.302908
0.0223632
0.022767
0.0208257
0.0210194
0.0325721
0.022871
0.0220873
0.0219258
0.0221058
0.0213276
0.0441215
0.0853475
0.630357
0.0209793
0.0474599
0.0590235
0.0228212
0.0215756
0.134148
0.105626
0.0214289
0.0940754
0.468482
0.0208092
0.021618
0.0227875
0.544257
0.0218683
1.81065
0.465548
0.524487
0.647599
0.0450363
0.0533285
0.134876
0.0207869
0.0211218
0.273131
0.052793
0.381415
0.021422
0.0200374
0.0212827
0.0209182
0.462483
0.0212158
0.273797
0.0872533
0.0290849
0.100319
0.0210331
0.0214166
0.0223303
0.021373
0.283969
1.32471
0.0203667
0.359509
0.0225396
0.107166
0.0983154
0.281378
0.0203399
0.0202424
0.0202286
0.0212711
0.0203995
0.0203889
0.0200432
0.0285789
0.0221931
0.0217014
0.0225196
0.174674
0.0209702
0.069986
0.0214113
0.274198
0.0585182
0.0214308
0.486686
0.0514025
0.0215023
0.340082
0.131244
0.022601
0.0213281
0.0228215
0.0218344
0.072296
0.0376609
0.117625
0.0217613
0.0211486
0.0213697
0.0214257
0.0211482
0.0214357
0.021528
0.0214129
0.0221953
0.0217605
0.0214043
0.0199617
0.0213177
0.0215688
0.0211747
0.0202422
0.0204073
0.0205601
0.244189
0.020247
0.0203447
0.857264
0.56859
0.0213688
0.725304
1.82157
0.0203303
0.0219975
0.0206341
0.0214948
0.0202347
0.0211262
0.0207606
0.0207884
0.0201259
1.30652
0.270005
0.109264
0.107642
0.0248544
0.0202177
0.0209946
0.0211764
0.59116
0.268534
0.592139
0.021784
1.28818
0.0214214
0.0195676
0.0211649
0.0263502
0.558905
0.0221872
0.0202455
0.0215798
0.314672
0.0211072
0.104182
0.0211584
0.0213018
0.0201408
0.0217929
0.0213305
0.667458
0.070342
0.653745
0.0260903
1.48321
0.0209032
1.80475
0.0200303
0.0215199
1.39106
0.122249
0.0211561
0.0214203
0.0198644
0.141797
0.0201974
0.0264798
0.0222724
0.0291776
0.604894
0.667124
0.0215992
1.54578
0.0205235
0.0210941
0.350182
0.0198504
0.832391
0.0675593
0.0213632
0.0218436
0.0213328
0.11016
1.3694
0.0225959
0.0203309
0.0663329
0.0449025
0.0195939
0.019566
0.0222583
0.0201684
0.0427743
0.82219
0.0213865
0.0211046
0.0862608
0.021137
0.0261327
0.0203217
0.0210602
0.478509
0.0210708
0.020333
0.0207508
0.0214834
0.0203495
0.0216872
0.0216729
0.0235179
0.0543437
0.0402034
0.0210163
0.0233543
0.021162
0.0237652
0.0225777
0.0201803
0.293166
0.0210865
0.054034
0.0215108
0.0252725
0.0196658
0.0196545
0.0290839
1.39267
0.0219763
0.0202003
0.0200074
0.025402
0.0213828
0.277593
0.277284
0.0211583
0.0788223
0.0213674
0.0403074
0.0214173
0.0196268
0.0221204
0.020899
0.0376168
0.0213604
0.0216686
0.0244864
0.0210603
0.0214117
0.0213931
0.48355
0.0221229
0.0224617
0.0214194
0.0214139
0.0219592
0.0249393
0.0212441
1.17787
0.0203422
0.396733
0.489431
0.022133
0.0219109
0.0202237
0.0260755
0.0236945
0.0213437
0.413829
0.0217313
0.0202113
0.0238301
0.0217853
0.021508
0.021254
0.0895832
0.0210673
0.02469
0.0223281
0.0209887
0.273973
1.48812
0.258096
0.0197311
0.328517
0.0220521
0.594978
0.0594134
0.020051
0.0229591
0.057723
0.0211431
0.0247654
0.0635569
0.0207245
0.0219727
0.0215019
0.021043
0.020848
0.987768
0.0211585
0.0209765
1.23234
0.0211467
0.0202316
0.0197178
0.02222
0.0207381
1.39431
0.0218926
0.0213675
0.0216218
0.0212611
0.488235
0.0215535
0.0318002
0.0195758
0.0342311
0.125083
0.104296
0.0365125
0.0221668
0.0218173
1.54196
0.0217082
0.28826
0.0211378
0.0202157
0.489215
0.0244724
1.45322
0.0213709
0.0458188
0.42695
0.0224285
0.0210875
0.487123
0.0249296
0.258628
0.0233761
0.0215304
0.527667
0.0212707
0.022159
0.021787
0.0212616
0.0202919
0.0215557
0.0230225
0.512484
0.0216972
0.437942
0.354797
1.53113
0.0452534
0.212136
0.020927
0.0215012
1.60703
0.354823
0.020336
0.0217913
1.37768
0.0199962
0.442978
0.021123
0.0230448
0.0199826
0.0304612
0.0211508
0.0254266
0.0839406
0.0202171
0.377804
0.0235576
0.021965
0.0236473
0.0210457
0.0220327
0.0206456
1.32995
0.0213429
0.021528
0.0626918
0.0215151
0.0225322
0.022053
0.0201007
0.0271008
0.0211324
0.0215348
0.0199334
0.394365
0.0204747
0.395896
0.0210169
0.674169
0.0228642
0.0210653
0.0222683
0.0216972
0.338852
0.020883
0.101371
0.0201728
0.0211893
0.0221497
1.39372
0.0356217
0.135552
0.639104
0.0228293
0.0212597
0.0369192
0.026829
0.0293262
0.277777
0.441666
0.0216314
0.0226132
0.0458808
0.0213327
0.0213319
0.021312
0.0203862
0.0220391
0.17805
0.0254405
0.425451
0.0204004
0.0264126
0.0195532
0.0216819
0.0215291
0.0212431
0.0372913
0.0210778
0.0222408
0.0199733
0.0213979
0.0228473
0.0762631
0.0211664
0.0212584
0.494253
0.0235547
0.0218999
0.493314
0.677937
0.0215126
0.0219774
0.0222611
0.0229107
0.0215494
0.0223356
0.022083
0.0209454
0.0211798
0.0210311
0.207804
0.0602286
0.0206317
0.311255
0.0307231
0.0202919
0.0221388
0.0213143
0.0652662
0.0214091
0.0542598
0.0200758
0.0210725
0.0499982
0.0212915
0.0317403
0.457616
0.0253118
0.0202842
0.474391
0.0233245
0.020543
0.0211719
0.0539668
0.0209013
0.0205287
0.0212679
0.0208972
0.473163
0.0428568
0.029861
0.0223295
0.0211419
0.0210236
0.0214755
0.0208694
0.0212836
0.0562065
0.112407
0.0200215
0.0222168
1.65286
0.0213294
0.0251446
0.0326674
0.0207257
0.0575173
0.467178
0.0213776
0.141733
0.0196352
0.149076
0.0242957
0.556061
0.0211016
0.0210443
0.0211492
0.291633
0.0219
0.45612
0.468211
1.76844
0.0328159
0.0969512
0.0292062
0.0228606
0.0291328
0.022042
0.331878
0.0215427
0.659996
0.0198963
0.247344
0.0219745
0.0219146
0.0210067
0.152684
0.0199364
0.0207424
0.0221971
0.0224952
0.0259382
0.0211336
0.0212573
0.0213066
0.0212843
1.19481
0.0209763
0.439938
1.04667
0.0209879
0.0218055
0.0270043
0.0217901
0.0213081
0.0217191
0.0224722
0.0243043
0.022146
0.022504
0.0204897
0.0214426
0.0220262
0.0238391
0.0217331
0.0223233
0.722877
0.0213197
1.42765
0.0245628
0.0219286
0.0212673
0.0206957
0.0219371
0.0222374
0.021058
0.0206667
0.019527
0.0210453
0.0206473
0.0211687
0.0231705
0.0198581
0.0219142
0.0220238
0.0215349
0.0230295
0.0221976
0.030337
0.0222692
0.021008
0.0212775
0.0205273
0.0199376
0.0209512
0.0199706
0.0209592
0.021329
0.0199248
0.031999
0.0210258
0.022174
0.0213435
0.657611
0.0210302
0.0199716
0.0531061
0.0196319
0.0215065
0.162155
0.0216723
0.0223577
0.0214081
0.09454
0.0207061
0.0495276
1.79125
0.390112
0.446712
0.0214517
0.0213505
0.383911
0.0213712
0.0199467
0.222879
0.658435
1.63652
0.0212883
0.0586623
0.0213536
0.0213368
0.237682
0.0211835
0.0454958
0.0215178
0.0599381
0.0209945
0.0229946
0.0219704
0.152541
0.891041
0.0211517
0.0214057
0.0262236
0.0209519
0.0228226
0.0497089
0.236313
0.0210765
0.0206427
0.0213756
0.327996
0.0217308
0.49077
0.349104
0.0209771
0.0272145
0.382216
0.0210308
0.0211547
0.0221383
0.0214391
0.0199222
0.125449
0.0199217
0.456167
0.0228284
0.189006
0.0531524
0.0214913
0.122619
0.541006
0.0217869
0.563112
0.0266183
0.0742337
0.0199337
0.0196226
0.362436
0.0213198
0.861563
0.0209545
0.329526
0.020482
0.0692575
0.373267
0.0209698
0.738251
0.0214142
0.0222753
0.033847
0.823105
1.06272
0.0199356
0.0204974
0.019984
0.426666
1.31139
0.0227139
0.0241261
0.0275247
0.019959
0.0209883
0.0215521
0.0508249
0.0236412
0.0213904
0.020866
0.020784
0.450799
1.58989
0.187162
0.0205332
0.0209226
0.654638
0.0211677
0.527042
0.0399934
0.461605
0.249341
0.343542
0.0208531
0.021498
0.0230291
0.0220588
0.0240484
0.0212155
0.0582317
0.376988
0.0204214
0.558266
0.020775
0.396328
0.0216241
0.3376
0.0241041
0.022807
0.0210903
0.0204009
0.0296036
0.377944
0.383154
0.021392
0.0308769
0.0208557
0.022429
0.0232248
0.301108
0.0240106
0.0744828
0.0208462
0.0266908
0.0211353
0.0198824
0.0218602
0.020949
1.63201
0.0211411
0.0225045
0.0223038
0.0218315
0.0199085
0.0507939
0.0215201
0.0220202
0.0208691
0.0209986
0.306161
0.0210425
0.0644109
0.0204315
0.0208001
0.0208559
0.0418521
0.0210506
0.0668769
0.0215698
0.0213524
0.0208824
0.336267
0.309663
0.400742
0.169429
0.648462
0.0213046
0.0228929
0.287218
0.0199431
0.353284
0.307726
0.0503376
0.099355
0.0224019
0.305499
0.0232344
0.384332
0.289337
0.0223605
0.0215691
0.303228
1.09809
0.0238386
0.0231828
0.0211994
0.0218562
0.0331361
0.0209231
0.0199223
0.0221157
0.089038
0.0337533
0.0227697
0.374569
0.0208999
0.0199831
0.255429
1.36957
0.0342691
0.0219797
0.0898435
0.0205265
0.0199292
0.49086
0.0199092
0.022285
0.308428
0.319394
0.0210617
0.482486
0.148185
0.0596744
0.198042
0.281165
0.0223339
0.713389
0.0216683
0.0208341
0.0213375
0.0215914
0.0209425
0.395532
0.0213458
0.492279
0.0203264
0.0361057
0.0217876
0.0341059
0.0224567
0.0211726
0.0400575
0.0203277
0.0199426
0.0742389
0.021941
0.0277094
0.0211148
0.0200485
0.31487
0.883624
0.0225842
0.019545
0.0195352
0.0204071
0.0217188
1.34432
0.0732544
0.18769
0.0305843
0.311026
0.0214257
0.0271539
0.0247408
0.0232569
0.100082
0.0211023
0.0210053
0.140874
0.0328108
0.363275
0.0210573
0.359093
0.38569
0.0238993
0.038325
0.0231594
1.34741
0.0214169
0.0242657
0.361312
0.0221188
0.0210692
0.0799709
0.0216194
0.0205025
0.0209878
0.169593
0.0216804
0.025133
0.314288
0.0367773
0.0243409
0.0307788
0.174515
0.465224
0.156506
0.0199557
0.0214954
0.021992
0.0225404
0.0212288
0.636429
0.351454
0.0231846
0.443823
0.0471051
0.442757
0.0215191
0.342642
0.0212467
0.327253
0.0695374
0.0206168
0.676056
0.426548
0.0208553
0.0214611
0.0213379
0.211806
0.481309
0.0252338
0.0463587
0.026637
0.0646935
0.320782
0.338429
0.0210515
0.0213875
0.357104
0.236562
0.0210835
0.0212757
0.019956
0.0217211
0.0215331
0.0242106
1.16857
0.0212649
0.0233383
0.357027
0.0216565
0.0216933
0.0237985
0.650259
0.0215107
0.0225017
0.157819
0.0217837
0.0200259
0.0218372
0.0209116
0.0223069
0.381664
0.454769
0.0215131
0.165542
0.0238497
0.160378
0.0213488
0.0219239
0.0221661
0.0216825
0.324022
0.0213
0.0220719
0.0252163
0.0218299
0.0204604
0.0248414
0.0212163
0.0923101
0.0214745
0.0210426
0.593044
0.0210811
0.704117
0.0253851
0.0209504
0.0399231
0.0222403
0.0303495
0.0972621
0.0202149
0.339488
0.0209752
0.0213759
1.34481
0.488113
0.0202298
0.0214684
0.0206708
0.0216324
0.0784604
0.0220911
0.0214399
0.0219313
0.021729
0.0219406
0.0212705
0.0202549
0.0209567
0.0211837
0.425733
0.0235989
0.0200065
0.0383959
0.0214628
0.243336
0.0689204
0.0317141
0.0214534
0.0212368
0.0697581
0.0230174
0.0213507
0.0216259
0.38668
0.125861
0.0213582
0.0198107
0.0638224
0.0477369
0.0196005
0.395905
0.0358645
0.0214146
0.0217938
0.025484
0.0215783
0.0276293
0.453127
0.0214911
0.0546982
0.0265403
0.0297988
0.0198069
0.0213422
0.0198386
0.0198175
0.126667
0.0210762
0.0574351
0.0448563
0.0198268
0.021841
0.0299479
0.02156
0.0216337
0.0213829
0.0222999
0.44618
0.0198291
0.0214835
0.348045
0.0220679
0.0215852
0.0229023
0.021094
0.0216072
0.0211866
0.0214796
0.0222793
0.0216922
0.0954258
0.481491
0.01982
0.0214139
0.0198232
0.0849013
0.0210088
0.023816
0.0212827
0.0201831
0.0265167
0.0204118
0.0281951
0.0213949
0.0204262
0.309641
0.346215
0.0217212
0.0215943
0.0209562
0.0729523
0.14662
0.0213851
0.384871
0.709524
0.0218422
0.0281253
0.386792
0.0232513
0.377355
0.040084
0.040813
0.0211954
0.0292915
0.0919734
0.0203668
0.301138
0.382126
0.021381
0.777435
1.67615
0.0234735
0.38225
0.0198038
0.0256858
0.0428489
0.0212423
0.312226
0.0198038
0.0391038
0.0623476
0.0198049
0.351245
0.0217466
0.0218916
0.0309776
0.023378
0.232099
0.407934
0.0200646
0.0235196
0.279858
0.0207037
0.0241647
0.0208092
0.386038
0.648891
0.0210983
0.0212789
0.0244322
0.267759
0.299486
0.0276156
0.0198183
0.0208983
0.305004
0.431982
0.0765034
0.0225954
0.0227145
0.0249621
0.0200329
0.0221631
0.0239216
0.0228698
0.0208702
0.0238063
0.406013
0.112235
0.0209676
0.168238
0.0236103
0.0880656
0.742823
0.0416321
0.721896
0.0830875
0.0198175
0.115316
0.12305
0.437913
0.322164
0.0212467
0.12402
0.326714
0.0400727
0.024183
0.324245
0.321274
0.0210724
0.0245741
0.0239159
0.0212163
0.0684993
0.0212706
0.022011
0.0206207
0.0198062
0.0216869
0.021349
0.022481
0.024822
0.335927
0.0239918
0.314741
0.0208221
0.0256518
0.0215388
0.24052
0.615117
0.0211852
0.0429335
0.0213003
0.0202103
0.0212928
0.0201702
0.0210646
0.0914861
0.0215816
0.209707
0.0210299
0.0209459
0.42103
0.0223339
0.021782
0.0211267
0.0212503
0.373403
0.0682078
0.421008
0.180412
0.658647
0.021505
0.0217178
0.0213564
0.0236504
0.0403748
0.079712
0.366619
0.0209586
0.0396777
0.0220579
0.166833
0.335164
0.0241798
0.610146
0.787643
0.0224245
0.037403
0.0209021
0.0438847
0.022557
0.0881828
0.0418785
0.0198176
1.47673
0.466431
0.0216293
0.0226633
0.0218376
0.17889
0.0207658
0.0216875
0.443886
0.0208069
0.494844
0.0255871
0.0235886
0.0220498
0.021757
0.482595
0.0211422
0.432708
0.0239194
0.0212907
0.0207139
0.0539289
0.0223932
0.364532
0.0222535
0.0240141
0.0239833
0.0668646
0.0228191
0.0213118
0.328556
0.0216629
0.0204122
0.100483
0.327829
0.0238941
0.0205205
0.0220329
1.38091
0.0596396
0.0211533
0.0316382
0.0204339
0.100926
0.042043
0.0218818
0.0211124
0.0871318
0.0209599
0.020736
0.0213668
0.0811825
0.622944
0.0216943
0.023847
0.02175
0.0219806
0.385641
0.0300906
0.0215773
0.0216898
0.0210344
0.0631362
0.453584
0.483504
0.0212263
0.132988
0.0202066
0.0201547
0.0217828
0.0219295
0.0384838
0.0213486
0.0462329
0.347172
1.48252
0.023662
0.0214895
0.0215214
0.0362844
0.0206083
0.0212492
0.0316814
0.0214793
0.0212581
0.0220903
0.0238985
0.0199962
0.585921
0.0408619
0.0235415
0.0231814
0.0263058
0.0229882
1.67736
0.0213627
0.0212564
0.0214758
0.021046
0.0214557
0.0208692
0.121197
0.0894454
0.0215597
0.0220193
0.0212264
0.023487
0.0227213
0.0479142
0.022002
0.25138
0.0213024
0.0217924
0.0207127
0.076967
0.0214803
0.258477
0.0214788
0.0215046
0.0195455
0.277807
0.0228834
0.0697181
0.310374
0.0218753
0.0214718
0.0211255
0.0213987
0.0212839
0.0219566
0.0242588
0.401948
0.0215628
0.0577076
0.205373
0.0231007
0.0987158
0.0215052
0.0231955
0.0209833
0.0203533
0.0202181
0.0213505
0.252408
0.0846105
0.0208316
0.496042
0.0538248
0.0212491
0.468119
0.0203287
0.031496
0.0220478
0.0210192
0.633833
0.0214681
0.022376
0.0235645
0.0459926
0.0757953
0.0218974
0.0209711
0.022303
0.623473
0.268044
0.0362038
0.0260915
0.0214473
0.0214022
0.346669
0.0216804
0.0278579
0.0279577
0.430809
0.0214546
0.0347032
0.0214678
0.0217512
0.0307275
0.0295763
0.0296612
0.0220508
0.0218402
0.0250733
0.403349
0.0436295
0.0204054
0.0245196
0.0910292
0.0230955
0.0381551
0.0216049
0.0216991
0.0213394
0.0240028
0.650056
0.0548185
0.0214568
0.961374
0.0235279
0.0256668
0.0214972
0.02134
0.0213586
0.019916
0.0476734
0.0222707
0.02227
0.0220046
0.0213421
0.0214458
0.164928
0.0214061
0.0213887
0.0217373
0.416545
0.138007
0.0214356
0.0211512
0.0214711
0.314677
0.0219658
0.0996606
0.0214619
0.0471362
0.0214398
0.0216203
0.0409165
0.021664
0.0309599
0.0216899
0.0214368
0.0203416
0.0223991
0.155715
0.0217498
0.0219383
0.325775
0.0215265
0.0222271
0.0219936
0.021572
0.0212303
0.0219034
0.0320284
0.0207482
0.0208183
0.0209454
0.344851
0.0236341
0.398306
0.0215007
0.0216704
0.596784
0.351414
0.316352
0.0252859
0.0293037
0.336556
0.0214912
0.412878
0.0219641
0.114217
0.0209701
0.111118
0.340328
0.0195546
0.0232473
0.0220677
0.0222286
0.0198541
0.439161
0.0208954
0.33388
0.0216565
0.0213877
0.0217422
0.01987
0.0217522
0.115546
0.0213405
0.0211339
0.0211316
0.0215679
0.0213696
0.16528
0.688978
0.459953
0.0214867
0.0201932
0.0234287
0.0214716
0.0213186
0.106408
0.0389674
0.0223073
0.0213187
0.255652
0.0225193
0.0198438
0.451387
0.0225768
0.0203043
0.0212838
0.026428
0.347561
0.0214658
0.0212167
0.0534816
0.123377
0.0437496
0.622513
0.0212968
0.023673
0.023483
0.0198976
0.0217226
0.322847
0.323894
0.428342
0.0212668
0.609886
0.0217007
0.0214735
0.0239284
0.0218845
0.0239011
0.0332486
0.0212304
0.0214715
0.0213181
0.0208835
0.0199571
0.0211294
0.0242864
0.315129
0.0260196
0.019548
0.0199821
0.0212707
0.0218001
0.0213269
0.0777636
0.0219325
0.021983
0.0218909
0.331056
0.0212475
0.0229239
0.532113
0.0213019
0.0212753
0.375414
0.0212036
0.0213584
0.021223
0.184321
0.0268864
0.0369813
0.0217438
0.242525
0.0201633
0.0201454
0.0204177
0.0212472
0.0352231
0.0212665
0.02164
0.0417871
0.0213463
0.398092
0.0225394
0.0279399
0.0217216
0.106688
0.0304356
0.0214636
0.0211277
0.0219203
0.0215446
0.0213178
0.383867
0.0209668
0.0439317
0.0211645
0.0215723
1.61591
0.0210644
0.986581
0.0811455
0.0212938
0.0515221
0.0211444
0.0218292
0.0212479
0.0217398
0.0207247
0.0213259
0.0212907
0.0213541
0.106625
0.0214861
0.0209625
0.0217951
0.020794
0.0212057
0.0212064
0.0214131
0.0205141
0.0213065
0.0212599
0.0213699
0.0212528
0.021853
1.3876
0.0211294
0.0218759
0.0449549
0.322837
0.0199307
0.0254611
0.0209778
0.0210446
0.0212813
0.0214318
0.662853
0.325712
0.0211075
0.0225968
0.319991
0.0215377
0.0197695
0.38931
0.019927
0.363923
0.0214685
0.0662722
0.0235477
0.236318
1.41191
0.460454
0.0209883
0.0211019
0.0199721
0.0239678
0.0617272
0.0223898
0.0577264
0.425799
0.0213688
0.249478
0.0449394
0.0205943
0.0203988
0.0307245
0.0295779
0.0212904
0.0210235
0.020104
0.0238586
0.0237816
0.0240785
0.0237117
0.0239602
0.401184
0.0210727
0.0212416
0.0211527
0.219195
0.0238937
0.0239267
0.159047
0.419442
0.0232552
0.0210402
0.0237517
0.0212187
0.0330541
0.0213516
0.0219855
0.0500551
0.0239661
0.0996466
0.0198201
0.303363
0.0331704
0.0872827
0.327529
0.641311
0.0211135
0.0213404
0.0213304
0.0942368
0.0214053
0.0208836
0.0213318
0.0278446
0.591569
0.271457
0.0236356
0.022781
0.399879
0.0358734
0.288338
0.0442602
0.0440859
0.0366798
0.531911
0.306797
0.0211084
0.0211219
0.0211322
0.0391227
0.0232757
0.0370737
0.0208363
0.0212346
0.0212194
0.193781
0.021174
0.0211801
0.0210536
0.0324048
0.020949
0.0211538
0.0203173
0.0246456
1.2225
0.0271308
0.0236063
0.0214926
1.10123
0.0255732
0.019916
0.0213236
0.019767
0.181117
0.0215326
0.0215744
0.177226
0.0211448
0.0210013
0.0209642
0.0214123
0.0841131
0.0209991
0.0215239
0.0211112
0.0216181
0.0212331
0.0211373
0.0210562
0.0212329
0.0213331
0.399533
0.0212422
0.0206812
0.0781835
0.0484892
0.0256497
0.062486
0.0209794
0.213579
0.0212862
0.0276174
0.0210802
0.460574
0.0211137
0.0212275
0.0201302
0.320388
0.0240246
0.0211974
0.803024
0.021207
0.0201262
0.0212122
0.0219585
0.0262735
0.020959
0.406587
0.0214437
0.036117
0.0381682
0.0213413
0.0317352
0.0210004
0.0206084
0.0211845
0.343512
0.0246275
0.0246817
0.0386358
0.816806
0.0256801
0.0310478
0.0240354
0.0213003
0.0197742
0.176003
0.407541
0.0209776
0.033334
0.0208959
0.0210169
0.393069
0.020512
0.0212743
0.140603
0.0386264
0.478584
0.0212899
0.0210314
0.0348959
0.0209411
0.0200148
0.398221
0.0211954
0.0259786
0.840194
1.35351
0.0213244
0.0221456
0.0211209
0.0198279
0.0238627
0.0215674
0.0213985
0.0316528
0.0206745
0.0243833
0.0213458
0.0222956
0.0233561
0.590407
0.0239115
0.0216781
0.167008
0.317044
0.0212345
0.268591
0.0216186
0.0212616
0.0213253
0.0209804
0.023562
0.0195093
0.317913
0.0211593
0.0236587
0.0217608
0.0197353
0.0210357
0.021275
0.0232421
0.0208136
0.0211423
0.0218634
0.0214254
0.368338
0.0213636
0.0219864
0.0470206
0.0221383
0.0202158
0.316818
0.241609
0.369153
1.44537
0.063615
0.0205561
0.0220182
0.5656
0.72784
0.0264274
0.242046
0.31942
0.0214634
0.282325
0.412872
0.0214936
0.19644
0.0218495
0.571538
0.263161
0.421863
0.0219129
0.021005
0.0498954
0.0212599
0.0213508
0.135226
0.0870762
0.0213286
0.0214069
0.0211046
0.689513
0.021085
0.0210587
0.021227
0.0209988
0.0210121
0.181993
0.0217968
0.0209579
0.0213679
0.028627
0.260509
0.633784
0.0212782
0.0211266
0.0224861
0.0212722
0.0209902
0.0211224
0.612631
0.0212204
0.0338151
0.0211315
0.0214513
0.0202997
0.0213095
0.452648
0.24239
0.0205351
0.0216568
0.304012
0.410158
0.0398153
0.511002
0.0213047
0.028708
0.0211029
0.0197238
0.0210975
0.0201416
0.0210616
0.021238
0.0215725
0.110436
0.0199109
0.372222
0.601727
0.0198171
0.0294308
0.0419287
0.0218304
0.0211217
0.021204
0.0211155
0.0210327
0.311373
0.0197865
0.0210705
0.214081
0.0210945
0.0212861
0.0209781
0.0300477
0.0213705
0.0213592
0.652547
0.0206627
0.0205973
0.0210855
0.0326881
0.0212413
0.0196069
0.0210922
0.0199191
0.517786
0.137449
0.0210279
0.126433
0.0197584
0.0212452
0.0216656
0.264354
0.873133
0.0200045
0.022815
0.0213071
0.0211405
0.0210969
0.0210907
0.273312
0.319667
0.0212788
0.0218061
0.0259234
0.0209571
0.021061
0.0239436
0.0261392
0.659661
0.0212931
0.0233982
0.412977
0.0211177
0.0235009
0.29507
1.35331
0.0206582
0.0209454
0.0209159
0.0211172
0.0209687
0.27722
0.021047
0.418878
0.266577
0.0218267
0.0235178
0.307713
0.020001
0.132869
0.343007
0.100966
0.0246819
0.0211758
0.0222194
0.273497
0.0208169
0.0261628
0.0209523
0.0200084
0.0200707
0.0201228
0.0211256
0.409499
0.0215687
0.45062
0.111475
0.0761168
0.478855
0.0197489
0.0213692
0.0225602
0.34444
0.0211635
0.62997
0.023539
0.0200003
0.020927
0.269819
0.0209215
0.0251668
0.321637
0.0210421
0.33236
0.0217652
0.0416936
0.15617
0.0213778
0.0205895
0.0375449
0.119008
0.0211893
0.0225733
0.0201758
0.0211427
0.0208632
0.396385
0.020992
0.0198948
0.0545924
0.0200983
0.335027
0.0213958
0.021171
0.0211143
0.533605
0.0209663
0.0208874
0.515825
0.120464
0.408255
0.0213097
0.0201133
0.0320431
0.732795
0.0764792
0.152528
0.0235394
0.0238396
0.0215247
0.0212638
0.0239418
0.0217106
0.0210816
0.0203743
0.0298786
0.0239005
0.0209185
0.0196081
0.021491
0.0205774
0.0211925
0.0236041
0.100759
0.444573
0.024681
0.448236
0.402174
0.0206292
0.020938
0.021929
0.0326386
0.0201965
0.0213721
0.0209043
0.0209917
0.0211361
0.0497434
0.0212643
0.0375996
0.021258
0.0208381
0.0130793
0.0338512
0.0213771
0.0208696
0.0208428
0.64338
0.0684527
0.0214623
0.0202219
0.0215259
0.0209296
0.0212273
0.0210049
0.107472
0.0209896
0.0208395
0.0932873
0.0204705
0.0672273
0.0235161
0.0210227
0.0213021
0.252839
0.0411998
0.269882
0.521266
0.0233576
0.0221224
0.0216601
0.0212376
0.0269837
0.0208115
0.699843
0.637147
0.0224816
0.0342502
0.280431
0.0208394
0.464311
0.0229943
0.253748
0.0217876
0.0207732
0.0207896
0.0217041
0.0210707
0.0529028
0.393671
0.0330635
0.0211653
0.020903
0.0208488
0.0653727
0.0230551
0.0134131
0.020872
0.0212082
0.0317608
0.0210195
0.114407
0.0469041
0.0208676
0.0213663
0.0197121
0.0211658
0.33013
1.47046
0.0208512
0.0210439
0.0206534
0.310019
0.0211426
0.0233979
0.140687
0.109727
1.38555
0.148168
0.509304
0.0212379
0.0261967
0.0215268
0.0210695
0.0226936
0.0458676
0.020457
0.0210991
0.0356244
0.0212457
0.0201458
0.322629
0.0198657
0.0210526
0.0348957
0.345321
0.0200068
0.020197
0.0420802
0.316687
0.0381489
0.346372
0.0212898
0.655349
0.02097
0.0241683
0.0457827
0.775044
0.413393
0.0244194
0.669064
0.0732193
0.20471
0.0206006
0.0210063
0.0202129
0.0212362
0.103812
0.020759
0.0472127
0.0199694
0.0214965
0.0213117
0.426018
0.021316
0.169498
0.023127
0.0257212
0.0275954
0.0214009
0.0583127
0.0197028
0.0344504
0.0212319
0.0651887
0.0214004
0.0367885
0.234505
0.025445
0.369697
0.0207827
0.389598
0.0234505
0.024419
0.0213761
0.749307
0.0215128
0.0208815
0.0211953
0.153685
0.0214388
0.0198017
0.0395712
0.0244426
0.0648154
0.0208316
0.0199978
0.788515
0.0361085
0.327551
0.504381
0.0208451
0.018896
0.45244
0.0450674
0.0206667
0.0332316
0.328671
0.0207605
0.021557
0.0197744
0.0655952
0.371897
0.276076
0.0348445
0.0207922
0.020652
0.0216636
0.020173
0.02221
0.0236287
0.0219501
0.020374
0.497136
0.0216905
0.0212047
0.0215768
0.269916
0.140477
0.0214308
0.0231203
0.0236686
0.47196
0.020775
0.324473
0.0212984
0.0337562
0.528531
0.0213781
0.370715
0.0203956
0.0197877
0.0207906
0.0208256
0.0206403
0.0208165
0.0197538
0.132474
0.0234577
0.0209939
0.478048
0.0208692
0.0212752
0.0206315
0.663833
0.0208906
0.0226034
0.0393108
0.0361406
0.0208979
0.0197628
0.620239
0.0211894
0.478013
0.285157
0.0212703
0.0216316
0.0307963
0.234643
0.0251613
0.0201693
0.0206287
0.0223539
0.0271937
0.0228441
0.0302414
0.0377561
0.0217581
0.021688
0.0236582
0.0219255
0.0342176
0.493195
0.0205462
0.339304
0.0319296
0.0212755
0.0209155
0.0208762
0.0208483
0.0206374
0.020999
0.0207357
0.0215778
0.0283128
0.0224803
0.0210241
0.022998
0.0242265
0.0205829
0.0207021
0.0892355
0.0223316
0.022587
0.0205662
0.0213849
0.0205423
0.0199729
0.432689
0.0213311
0.0210535
0.438424
0.528115
0.382346
0.020875
0.249268
0.021451
0.101683
0.482292
0.0216978
0.535763
0.0206713
0.0202879
0.457125
0.0208333
0.0479865
1.38571
0.449922
0.0235515
0.226671
0.021171
0.0208199
0.0219533
0.0206397
0.439455
0.384742
0.0208603
0.454928
0.0729323
0.0197101
0.0206546
0.0246514
0.209284
0.0758188
0.0243942
0.290172
0.489331
0.0212166
0.443741
0.46859
0.157269
0.559663
0.0206966
0.465223
0.0197488
0.298407
0.304866
0.0197869
0.796895
0.397973
0.037443
0.0196237
0.3456
0.0203869
0.02066
1.66986
0.704054
0.0206701
0.0211094
0.141564
0.0197399
0.0242606
0.0207849
0.0410135
0.121287
0.0220148
0.0214489
0.317323
0.0339894
0.231485
0.330624
0.020768
0.287601
0.0210174
0.36155
0.0245849
0.0200862
0.400296
0.0213249
0.160828
0.0213457
1.60147
0.0210878
0.0210259
0.0202242
0.0213303
0.0204859
0.0214964
0.150814
0.61505
0.0205851
1.19574
0.0721572
0.0203082
0.0205506
0.488027
0.0612397
0.17449
0.453912
0.237205
0.0205536
0.0211854
0.230296
0.0248736
0.361918
0.0288336
0.020615
0.0212153
0.0205902
0.0197856
0.0205883
0.0328258
0.0205704
0.336317
0.0208927
0.0213437
0.0755831
0.0197528
0.0330342
0.683369
0.0207918
0.02077
0.020947
0.027692
0.0196231
0.0201524
0.269136
0.368185
0.0258238
0.0213586
0.029707
0.0205215
0.0209486
0.0212367
0.299303
0.190396
0.314932
0.41235
0.03064
0.0406734
0.0834837
0.0210089
0.0227074
0.019633
0.019619
0.0231514
0.0208036
0.41731
0.290999
0.0228739
0.626327
0.0282897
0.421311
0.313796
0.0200113
0.0666778
0.0230166
0.0331303
0.0213039
0.0204451
0.0201092
0.0292036
0.413933
0.461118
0.444521
0.0209576
0.190104
0.0205738
0.170912
0.412666
0.0204644
0.0217723
0.0208838
0.68107
0.314384
0.0216177
0.019613
0.0326906
0.0224105
0.308274
0.0214349
0.0209709
0.476297
0.302094
0.0205167
0.0237221
0.0206775
0.0233307
0.0214945
0.462863
0.0206961
0.0215368
0.0461432
0.0213302
0.0208371
0.238355
0.0450284
0.0214385
0.0212544
0.0216369
0.0205827
0.0204907
0.0907776
0.404881
0.0208261
0.0237245
0.0208158
0.0213525
0.0213408
0.0211124
0.419717
0.370765
0.0737413
0.376662
0.020746
0.024178
0.020832
0.021131
0.0523508
0.021272
0.153592
0.020713
0.28474
0.0214044
0.229987
0.316983
0.0202035
0.0208252
0.0465219
0.0343081
0.110727
0.339279
0.216657
0.420462
0.0236578
0.021177
0.302068
0.020747
0.315668
0.0199219
0.0742131
0.0273634
0.020815
0.0210107
0.0208592
0.036118
0.280704
0.0209542
0.0824565
0.021343
0.0443638
0.0204646
0.0236908
0.0298946
0.0204317
0.553957
0.0687875
0.0201853
0.38848
0.0630862
0.0711867
0.0204526
0.355776
0.020654
0.0202135
0.0314911
0.0204506
0.160371
0.0199592
0.0207977
0.0204987
0.0233238
0.334692
0.020736
0.384078
0.0197039
0.0248317
0.336171
0.0209267
0.338735
0.0485583
0.0319256
0.0980947
0.0210396
0.0205279
0.930867
0.0204713
0.0203549
0.0206601
1.72869
0.333829
0.161365
0.704614
0.020091
0.0210204
0.0205559
0.0322222
0.0206485
0.526337
0.102278
0.0212281
0.366696
0.0220134
0.293145
0.020373
0.0201605
0.02304
0.0212998
0.205318
0.472258
0.0203108
0.0217718
0.0206808
0.430945
0.132357
0.0208287
0.423602
0.020967
0.0212912
0.0197199
0.0200437
0.0845128
0.320815
0.0204288
0.35575
0.389762
0.0197612
0.43994
0.020594
0.0208797
0.063127
0.0203144
0.444621
0.0197916
0.0217869
0.362385
0.0197486
0.0200714
0.0208697
1.93936
0.0245706
0.666613
0.157629
0.0239428
0.023217
0.158486
0.0204928
0.646269
0.0347031
0.020626
0.293381
0.623526
0.0446103
0.141993
0.0237906
0.0203596
0.434611
0.0658111
0.290412
0.314767
0.0204622
0.0203079
0.02073
0.38757
0.020288
0.020135
0.27283
0.0250205
0.0212729
0.0203422
0.0208265
0.0202694
0.0202543
0.110852
0.0208142
0.203478
0.329576
0.0208556
0.0227608
0.0206159
0.0203792
0.268919
0.120607
0.507308
0.490131
0.0204952
0.0206603
0.0352546
1.37923
0.334007
0.020399
0.550518
0.384732
0.0199083
0.0379216
0.0272313
0.0201296
0.0208318
0.0205821
0.0209187
0.0200772
0.0574043
0.405059
0.0207556
0.287582
0.0213187
0.0331668
0.0208961
0.0213233
0.0267342
0.0599172
0.0257794
0.0203192
0.0197974
0.020275
0.0202706
0.387707
0.0452147
0.389579
0.0707345
0.295536
0.0216788
0.0202947
0.050636
0.29402
0.021216
0.3544
0.0220979
0.0197485
0.147864
0.36511
0.0214474
0.0245985
0.0730001
0.615152
0.0281382
0.0202573
0.0234302
0.0206942
0.216062
0.0206473
0.358226
0.356173
0.0349036
0.206552
0.0406956
0.0350394
0.302197
0.0208526
0.0203056
0.020653
0.020726
0.329218
0.0206055
0.0206126
0.0237275
0.0210388
0.0201765
0.235796
0.251262
0.313775
0.020201
0.350656
0.317858
0.259169
0.0207049
0.0203232
0.0218378
0.0201544
0.305101
0.023231
0.020264
0.0279066
0.0205619
0.337695
0.0472224
0.0205938
0.584145
0.132279
0.0203401
0.321247
0.387797
0.095172
0.0207295
0.303325
0.364935
0.0196296
0.0204933
0.365538
0.0199632
0.0208322
0.402701
0.0210695
0.0203583
0.0205031
0.0203236
0.28845
0.0201617
0.0203329
0.317209
0.0811433
0.0204767
0.0207321
0.235201
0.307528
0.0210368
0.105776
0.0203726
0.662675
0.0701619
0.0215323
0.0202041
0.309932
0.465586
0.0216807
0.020086
0.385427
0.0231432
0.0201857
0.71458
0.0209067
0.0776681
0.0204584
0.365195
0.326415
0.26067
0.345162
0.0204057
0.283194
0.0208459
0.0281908
0.315949
0.0201414
0.048205
0.0198063
0.385793
0.0206781
0.0203309
0.019958
0.0204404
0.0202111
0.0200974
0.044915
0.0214315
0.0639708
0.0216757
0.0196925
0.0218881
0.379543
0.0205392
0.287125
0.0202552
0.0210702
0.466581
0.0211396
0.319075
0.023339
0.148952
0.0200594
0.0201178