/*--------------------------------*- C++ -*----------------------------------*\
| =========                 |                                                 |
| \\      /  F ield         | OpenFOAM: The Open Source CFD Toolbox           |
|  \\    /   O peration     | Version:  v2012                                 |
|   \\  /    A nd           | Website:  www.openfoam.com                      |
|    \\/     M anipulation  |                                                 |
\*---------------------------------------------------------------------------*/
FoamFile
{
    version     2.0;
    format      ascii;
    class       surfaceVectorField;
    location    "700";
    object      ddtCorrDdt0(Uf);
}
// * * * * * * * * * * * * * * * * * * * * * * * * * * * * * * * * * * * * * //

dimensions      [0 1 -2 0 0 0 0];


internalField   nonuniform List<vector> 
14516
(
(-0.0748905 -0.0405362 -1.72176e-18)
(-0.0707349 -0.0504418 -1.72962e-19)
(-0.0636134 -0.0400939 -6.98542e-18)
(0.00152083 0.111661 -1.43741e-18)
(0.00530067 0.106644 -2.48387e-18)
(0.00762756 0.0996169 2.58945e-19)
(-0.0787096 -0.0307542 -9.83185e-19)
(-0.0808776 -0.0383897 1.89103e-18)
(7.71955e-05 -3.29858e-05 -1.74994e-19)
(7.78996e-05 -3.85689e-05 -5.63227e-20)
(8.42204e-05 -3.65247e-05 -2.90994e-19)
(-0.00132156 -0.36192 -8.18209e-19)
(-0.0608599 -0.458943 1.32805e-18)
(0.0466175 -0.341022 -2.24596e-18)
(0.00456133 -0.00135283 -4.06082e-19)
(0.00436607 -0.000726902 3.59714e-19)
(0.00390984 -0.00127462 3.0906e-19)
(5.54475e-05 -8.93396e-06 -2.3968e-19)
(5.80304e-05 -1.03609e-05 -6.5252e-19)
(5.01937e-05 -1.35594e-05 1.02742e-19)
(0.000149698 -8.37883e-05 -8.05293e-19)
(0.000136511 -8.05736e-05 2.82431e-19)
(0.0001458 -5.43989e-05 3.3508e-19)
(0.000482107 -0.000649392 1.03559e-20)
(0.000544053 -0.000603375 3.08909e-19)
(0.000526754 -0.000705329 6.22083e-19)
(-0.0286695 -0.348229 -1.26832e-18)
(0.0570941 -0.288789 -5.52282e-18)
(0.0275011 -0.0205224 -1.00256e-19)
(0.0301023 -0.0214213 -9.74168e-19)
(0.029082 -0.017786 -4.9462e-19)
(0.055875 -0.0449253 2.44676e-19)
(0.0594741 -0.0426304 -4.91797e-19)
(0.0663539 -0.0437925 -6.23329e-19)
(7.57544e-05 -2.86637e-05 -2.23827e-19)
(7.32842e-05 -2.69835e-05 5.26897e-20)
(-0.000830178 -0.00110833 5.32835e-19)
(-0.000688093 -0.00132409 -2.21819e-19)
(-0.000587019 -0.00110218 -1.03195e-19)
(3.67809e-05 9.27227e-07 9.12435e-20)
(3.59066e-05 7.82958e-07 3.46e-19)
(-0.000924255 -0.000905297 2.96254e-19)
(-0.000982289 -0.000683603 -1.01594e-19)
(-0.000768132 -0.000753462 4.26218e-19)
(0.00255464 -0.000942071 1.53598e-19)
(0.00232299 -0.000519697 2.26885e-19)
(0.00205497 -0.00101422 2.17568e-19)
(0.00276586 -0.00152236 -1.85107e-19)
(0.00314406 -0.000893933 2.87861e-19)
(-0.0927357 0.0201857 -4.83366e-19)
(-0.0715651 -0.0036007 2.38663e-18)
(-0.0768842 0.00609895 2.00313e-18)
(-0.0011356 -0.00110418 3.15072e-19)
(0.0707968 0.0257725 5.95355e-19)
(0.0777252 0.0326351 3.69571e-20)
(0.0632148 0.0335859 7.76001e-19)
(-0.00477605 0.00117787 -1.04086e-19)
(-0.00513807 0.000757058 -1.75353e-20)
(-0.00451547 0.000632539 -1.36351e-20)
(-0.0377387 0.05456 -1.62147e-18)
(-0.0462856 0.0522327 1.0247e-18)
(-0.0404328 0.0650762 1.29469e-20)
(0.000194141 0.000197925 -1.13432e-20)
(0.000165725 0.00017696 5.44642e-21)
(-0.0018018 0.00197189 -8.01941e-19)
(-0.00221696 0.00178155 -8.25178e-19)
(-0.00211949 0.00237117 -6.10449e-19)
(7.10345e-05 -2.24851e-05 5.58333e-20)
(7.77965e-05 -2.57876e-05 5.27463e-19)
(-0.00133551 -0.000160876 3.23565e-20)
(-0.00142411 -0.000426926 4.3029e-19)
(-0.00165984 -0.000208505 -8.08664e-20)
(0.00116563 0.000348214 -2.23502e-19)
(0.00114382 0.000598605 -2.63774e-19)
(0.00096301 0.00048157 1.56715e-20)
(0.00387658 -0.0319173 -4.12433e-20)
(0.00506918 -0.0299116 2.07929e-19)
(0.00208367 -0.0304369 -1.24597e-19)
(0.000456003 -0.000574043 -5.42045e-19)
(0.000410743 -0.000650919 4.59562e-20)
(0.0140699 -0.01513 -3.54616e-19)
(0.015986 -0.0161717 -4.96988e-19)
(0.0156716 -0.013087 -2.16263e-19)
(-0.0275665 0.0545007 1.98721e-19)
(-0.0333887 0.0451725 -2.88192e-18)
(-0.00653809 0.151692 -4.92847e-19)
(0.00646019 0.15757 -6.66386e-18)
(-0.0115269 0.174064 -4.44122e-18)
(1.24027e-05 4.30452e-06 -2.27746e-19)
(1.46384e-05 4.20328e-06 -2.22312e-19)
(1.43078e-05 1.66915e-06 -9.12301e-20)
(0.00225824 -0.0347316 5.39718e-20)
(-0.000132232 -0.0376097 -9.01878e-21)
(-0.00205407 -0.0351931 3.34169e-19)
(0.109744 0.029966 -2.65082e-19)
(0.109896 0.057929 -1.12503e-18)
(0.122664 0.0335478 1.16119e-18)
(5.38375e-05 -7.27136e-06 5.43834e-19)
(6.36893e-05 -5.07156e-06 -6.00383e-19)
(-0.0049323 0.00175051 -1.47484e-19)
(-0.00432944 0.00156755 -5.43734e-20)
(0.000255121 -0.000107748 -3.33868e-19)
(0.000295794 -0.000132348 2.5661e-19)
(0.000287474 -6.12708e-05 -1.31819e-19)
(3.28486e-05 -1.58629e-05 4.67244e-19)
(3.68571e-05 -1.15347e-05 -8.35688e-20)
(3.84177e-05 -1.70199e-05 -3.29052e-19)
(0.0119511 -0.0137586 2.94657e-19)
(0.0118142 -0.0169367 -1.08281e-18)
(4.4288e-05 1.86457e-06 3.96393e-19)
(3.65282e-05 3.89085e-07 -2.18698e-19)
(7.57034e-05 -1.1102e-05 -4.84228e-19)
(7.16862e-05 -1.64481e-05 -1.91048e-19)
(7.02236e-05 -1.25602e-05 1.5062e-19)
(4.01222e-05 -1.27383e-05 -3.66507e-19)
(4.65957e-05 -9.89045e-06 2.06954e-19)
(4.11692e-05 -1.52831e-05 -7.44046e-19)
(9.28054e-05 -8.3628e-06 -3.20791e-19)
(8.27354e-05 -1.15207e-05 3.64902e-21)
(6.45717e-05 -1.78525e-05 8.17272e-20)
(0.00605351 -0.0342141 -2.13396e-20)
(0.0310287 -0.010526 1.02361e-18)
(0.0308037 -0.0176381 -1.44025e-20)
(0.0262955 -0.0146755 -7.99909e-19)
(-0.0348544 -0.0420295 -8.54133e-19)
(-0.0293562 -0.0514352 7.02174e-21)
(-0.0280984 -0.0440404 -5.87341e-19)
(8.14395e-05 -4.44584e-05 -2.32541e-19)
(7.43773e-05 -4.28346e-05 -7.39307e-20)
(-0.00206027 -0.0408358 -1.07789e-19)
(0.00293191 -0.0401264 4.6898e-20)
(0.0272074 -0.0291583 7.25168e-19)
(0.029928 -0.0276593 -1.97606e-18)
(0.0268566 -0.0257847 2.1442e-18)
(0.00428189 0.00109905 8.18862e-19)
(0.00475952 0.000684969 1.2084e-19)
(0.00485163 0.0014597 -8.5459e-19)
(-0.000298676 -0.000769076 3.66078e-19)
(-0.000257162 -0.000688775 3.10922e-19)
(-0.000363317 -0.000656031 -3.93288e-19)
(0.0330153 -0.0863914 6.92975e-19)
(0.0398499 -0.0862657 -5.18077e-19)
(0.0329319 -0.0794705 -1.26368e-18)
(0.0922155 -0.0262905 5.69187e-19)
(0.0963169 -0.0353503 -3.60692e-19)
(0.0865876 -0.0296127 2.62559e-19)
(0.000256903 -0.00018238 2.73632e-20)
(0.000245834 -0.000160267 -1.64052e-20)
(0.0545097 -0.00917425 -1.46919e-18)
(0.0518029 -0.00615868 1.09846e-18)
(0.0506633 -0.0106771 7.46691e-19)
(-0.0932276 -0.021025 1.13988e-18)
(-0.0876291 -0.0747277 4.55332e-18)
(-0.0782183 -0.0214211 -1.68898e-18)
(0.000230102 -8.89221e-05 -1.81976e-19)
(0.000234621 -0.000130742 -7.54231e-19)
(1.83847e-05 -1.01298e-05 -8.29761e-20)
(1.67057e-05 -8.41694e-06 -1.26401e-19)
(1.31387e-05 -1.33562e-05 4.7193e-19)
(0.00317369 0.00294557 -1.1394e-19)
(0.00370345 0.00275135 -7.50894e-19)
(0.0035368 0.00348988 -5.9359e-19)
(-0.0790386 -0.0727186 -3.02623e-19)
(-0.0841624 -0.0860885 6.91001e-19)
(-0.0688315 -0.0995182 9.39644e-19)
(0.000135442 4.83664e-06 -1.74624e-19)
(0.000141432 5.68875e-06 -2.32167e-19)
(0.000139295 1.34061e-06 -7.31467e-20)
(0.153702 -0.143713 1.13774e-18)
(0.110455 -0.224318 -4.008e-18)
(-0.018895 0.10518 -1.71151e-18)
(-0.00431335 0.116653 7.90849e-19)
(-0.00535097 0.0995756 -9.13196e-19)
(-0.0704744 -0.0618272 -1.04778e-18)
(-0.0821685 -0.0447622 4.37858e-20)
(-0.0619618 -0.0547698 -2.67101e-18)
(-0.0547567 -0.0495328 3.40258e-19)
(-0.0634706 -0.038817 -9.26649e-19)
(0.0516633 -0.0473482 9.8097e-19)
(0.0486058 -0.0431309 -2.93031e-19)
(0.0262824 -0.0226713 2.03219e-18)
(0.0249 -0.0196752 1.30599e-18)
(0.0308136 -0.0984843 -1.36655e-18)
(0.0236318 -0.0880561 3.08058e-18)
(8.45868e-06 4.7722e-06 -1.41308e-20)
(1.16926e-05 3.74564e-06 1.47484e-21)
(1.01054e-05 7.66283e-06 7.05666e-20)
(0.000245501 -0.000225316 3.94517e-20)
(0.000270575 -0.000207064 1.88163e-19)
(0.000265223 -0.000248865 -4.32465e-19)
(-0.00203254 0.0556822 1.583e-18)
(-0.000936554 0.0485747 -1.50373e-19)
(-0.00870192 0.0514552 3.09285e-19)
(-0.00528964 -0.0430147 8.11737e-19)
(-0.00138599 -0.0466481 3.38863e-19)
(-0.097663 0.0058632 5.69409e-18)
(-0.102904 -0.0209611 1.7039e-18)
(0.000249484 -0.000203021 -1.46567e-21)
(0.000236929 -0.000221542 -5.64783e-20)
(0.000230258 -0.000197652 3.07038e-20)
(0.000859269 0.00148941 5.5293e-20)
(0.00117051 0.00141118 -6.05067e-20)
(0.00103695 0.00178286 -3.37187e-21)
(-0.00172891 0.00240632 -9.24557e-19)
(-0.00182227 0.00191694 -1.29511e-18)
(-0.00135993 0.00206937 1.85415e-19)
(0.00105968 0.00134079 3.15447e-19)
(0.000736331 0.00133631 8.19737e-19)
(0.00092665 0.001064 9.26885e-20)
(-0.0309492 0.111078 4.3133e-19)
(-0.0300677 0.0929191 -6.10448e-19)
(-0.00257924 0.000779638 -1.85523e-19)
(-0.00238235 0.000376145 2.17547e-19)
(-0.00207501 0.000761692 1.76018e-19)
(0.00240138 0.116054 -2.04851e-18)
(0.00538359 0.104324 5.75638e-19)
(0.00130762 0.119098 3.20167e-18)
(0.0169873 0.009758 2.1018e-19)
(0.0199685 0.00791772 1.11412e-19)
(0.0162801 0.00630844 -2.20294e-19)
(0.0101148 -0.0123226 1.18373e-20)
(0.0120247 -0.0108189 8.22026e-19)
(0.0290465 0.000136377 -4.50376e-20)
(0.030232 -0.00440567 1.35224e-18)
(0.0259336 -0.00336225 1.25349e-19)
(0.00115358 0.00171312 3.19821e-19)
(0.00141843 0.00129904 -1.59101e-18)
(0.00022642 -0.0002343 2.22251e-20)
(0.000212707 -0.000248228 -1.28911e-19)
(0.000206018 -0.000224724 7.47836e-21)
(0.0028114 0.00250317 3.30899e-19)
(0.00245272 0.00212497 1.31004e-19)
(0.0028445 0.00190619 1.77823e-19)
(-0.00234843 -0.000850319 5.84803e-19)
(-0.00274164 -0.000536302 9.63808e-19)
(-0.00281992 -0.0011469 -4.63539e-19)
(-0.00272269 0.119521 -6.19535e-18)
(-0.00237842 0.112956 -2.42029e-18)
(0.140877 -0.0513893 -4.64109e-19)
(0.163851 -0.0422852 -1.39562e-18)
(0.139116 -0.0567964 -7.28699e-19)
(-0.00032345 0.00034824 1.02354e-18)
(-0.000401611 0.000396022 -7.59862e-20)
(-0.00031308 0.000449846 1.932e-19)
(-0.0177958 0.0540946 1.26072e-18)
(-0.0199867 0.0642093 4.45511e-19)
(0.00266255 0.00305535 -1.38879e-19)
(0.0162194 0.0142939 4.3063e-21)
(0.0139959 0.0113366 -1.40474e-18)
(0.0890743 -0.0185528 7.02748e-19)
(0.0975275 -0.0211467 4.41442e-19)
(0.0038258 0.111571 -2.20171e-18)
(-0.000772058 0.122548 9.20722e-19)
(-0.000330663 0.000262258 1.08604e-18)
(-0.000260282 0.000318359 7.6181e-19)
(0.000165851 0.000290785 8.66848e-19)
(0.000152458 0.000345278 -1.86982e-20)
(0.000121065 0.000293064 -3.32849e-19)
(0.000217522 0.00028641 8.00628e-19)
(0.000175243 0.000238826 1.82956e-19)
(-0.000613014 -0.00191779 1.11932e-19)
(-0.000941573 -0.00199707 1.4993e-18)
(-0.000652678 -0.00233846 -5.13061e-20)
(-1.21797e-05 -0.000320732 2.70851e-20)
(-4.93729e-05 -0.000337684 3.46286e-19)
(-6.50179e-06 -0.000364777 4.6365e-19)
(-1.28785e-05 -0.000283526 -2.77965e-20)
(2.38516e-05 -0.00029631 -1.05624e-20)
(0.000715327 0.00120556 8.57289e-20)
(0.000582581 0.00148915 1.0557e-19)
(0.00859763 -0.0108559 -2.33452e-19)
(0.00828863 -0.0132218 1.23892e-18)
(0.00209688 0.00190204 -1.01536e-18)
(0.00211024 0.00235365 -1.47674e-19)
(4.88758e-05 1.21788e-06 -1.03549e-19)
(4.83425e-05 2.76637e-06 -4.63147e-19)
(5.18894e-05 2.66302e-06 2.58153e-19)
(0.00373225 0.000797071 1.18932e-19)
(0.00378603 0.00140718 2.8434e-19)
(0.0408366 -0.0241384 -1.09309e-18)
(0.0385888 -0.0292838 1.85278e-18)
(0.0354602 -0.024026 7.37484e-19)
(7.2696e-06 4.30121e-06 -2.0288e-20)
(9.23735e-06 3.70709e-06 -2.40663e-20)
(0.0688308 -0.000912606 1.92041e-19)
(0.0649245 -0.00615862 -1.61441e-19)
(0.0711348 -0.00783829 6.30702e-20)
(0.000214057 -0.000112756 6.15377e-20)
(0.000222424 -0.000123604 1.1354e-20)
(0.136433 -0.0440935 1.66398e-18)
(0.127089 -0.0579921 -1.27439e-18)
(0.12273 -0.0755944 5.34596e-19)
(0.0243434 -0.0305033 -4.7253e-19)
(0.0273399 -0.0323745 1.06076e-18)
(0.000272233 -0.000204336 2.06912e-20)
(0.0298928 0.123079 -6.26564e-18)
(0.0380447 0.117878 -3.22709e-18)
(0.0391638 0.104386 4.95644e-18)
(-0.00857577 -0.045979 1.12204e-18)
(-0.00854222 -0.0401085 -9.37984e-20)
(-0.0027614 0.00130922 -2.02069e-19)
(-0.00316191 0.0008546 -1.16776e-19)
(-0.0159056 0.0450636 8.75502e-18)
(-0.00825268 0.0505205 -5.16552e-20)
(0.0392609 -0.0230072 7.4499e-19)
(0.0465191 -0.0238114 -1.62116e-18)
(1.67537e-05 2.7456e-07 9.14963e-21)
(2.11538e-05 1.74625e-06 -3.53534e-20)
(2.21645e-05 1.05816e-06 -7.84419e-20)
(4.26918e-05 -3.59719e-05 2.33846e-20)
(3.20923e-05 -4.35281e-05 -3.97572e-20)
(4.38855e-05 -5.99445e-05 -2.38458e-20)
(0.00467382 -0.00203462 -1.06306e-18)
(0.00530801 -0.00150726 -5.09123e-20)
(-0.000566882 -0.00164268 -2.2431e-19)
(-0.00075983 -0.00170143 -6.94763e-19)
(-0.000687411 -0.00147485 -1.16864e-20)
(0.0750926 0.0175514 1.10309e-19)
(0.0656101 0.0186051 2.12649e-19)
(0.0201365 -0.00300577 5.67309e-18)
(0.0189969 -0.00209607 3.4864e-18)
(0.0187167 -0.003556 3.21796e-18)
(0.0259617 0.00331302 -1.43463e-19)
(0.0306746 0.00456552 -1.54938e-19)
(-0.00161357 0.00294301 -9.04237e-19)
(-0.00220442 0.00284567 6.26963e-19)
(0.00020981 6.80205e-06 2.36642e-19)
(0.000200666 2.15702e-05 -1.8404e-19)
(0.000204547 -3.39438e-06 -1.82157e-19)
(5.23315e-06 -1.11135e-06 9.36084e-20)
(7.07145e-06 -2.74781e-07 6.42355e-20)
(4.8302e-06 1.12793e-06 -3.84618e-20)
(0.000247039 -0.000242615 -4.53949e-20)
(0.000220198 -2.6544e-06 4.45921e-20)
(0.000215773 2.42491e-05 -1.27395e-19)
(0.00101941 -0.00217661 -5.9443e-19)
(0.00137122 -0.00212756 -1.47084e-19)
(0.001109 -0.00179106 2.03324e-20)
(0.000410502 -0.000542176 -2.2375e-19)
(0.000451276 -0.000519723 -7.05728e-19)
(0.000197803 -0.000260541 -2.03939e-19)
(0.00017889 -0.000274505 -4.95343e-20)
(0.000176674 -0.000246585 -5.27248e-20)
(0.000147941 2.98009e-06 3.22366e-19)
(0.000133134 4.86271e-06 1.27755e-21)
(3.79408e-05 -1.03553e-05 -5.6292e-20)
(3.3195e-05 -1.47626e-05 5.58901e-19)
(0.000198244 -0.000110349 1.22052e-19)
(0.000206483 -0.000100606 6.87831e-20)
(1.18922e-05 3.33474e-05 2.60363e-20)
(1.33397e-05 3.97782e-05 -4.82782e-19)
(6.67317e-06 3.44801e-05 -3.85391e-19)
(4.16959e-05 -1.32987e-05 5.73487e-20)
(5.03088e-05 -3.14776e-05 5.89522e-21)
(-0.000998061 0.00215551 -2.64429e-20)
(-0.00140965 0.00206118 -4.82782e-19)
(-0.00117059 0.00253531 -5.69882e-19)
(7.42453e-05 9.21295e-06 -3.34486e-19)
(7.30967e-05 1.114e-05 -5.27701e-19)
(7.01616e-05 7.56844e-06 -1.21241e-19)
(0.000412547 0.000175109 -6.35753e-19)
(0.000375532 0.000100522 6.06413e-19)
(0.000445444 8.74185e-05 -9.63324e-19)
(-0.000841455 -0.00162107 1.32521e-19)
(-0.000521037 -0.0015219 -3.86267e-19)
(-0.000697589 -0.00223638 -1.833e-19)
(-0.000976573 -0.00197138 2.76858e-19)
(-0.00118768 -0.00240083 1.78879e-19)
(0.018452 0.0400978 3.921e-20)
(0.0222738 0.0268577 2.53917e-18)
(0.0237275 0.0326795 1.44975e-18)
(0.000345226 0.000227635 -2.67605e-19)
(0.000430625 0.000257025 8.50162e-20)
(-0.000294534 2.97964e-05 -6.6375e-19)
(-0.000314171 0.000105275 -8.3578e-19)
(-0.000347812 1.67071e-05 7.40022e-20)
(0.101969 -0.0801938 4.81945e-19)
(0.141968 -0.0433862 5.24932e-18)
(-0.0692 0.0835404 -2.01298e-19)
(-0.0358879 0.0997911 -2.54067e-19)
(-0.0362112 0.119055 8.14192e-19)
(3.65837e-06 -1.08182e-06 4.16967e-19)
(6.65734e-06 -1.27465e-06 1.26909e-19)
(-0.101153 0.0322824 -1.68085e-19)
(-0.107638 0.0140251 8.28471e-19)
(-0.0739663 -0.36412 -4.08805e-18)
(-0.00774019 -0.284565 5.74965e-19)
(-0.000270649 -3.10906e-05 -1.76976e-19)
(-0.000243686 4.2001e-05 1.67664e-20)
(9.83353e-06 1.97741e-07 6.06333e-20)
(1.07983e-05 6.26886e-07 1.19088e-19)
(3.54317e-05 9.41516e-06 -2.26084e-19)
(3.00456e-05 9.38942e-06 -1.63759e-19)
(3.49714e-05 1.33056e-05 1.69805e-19)
(-0.000626661 0.00212577 -2.62426e-19)
(-0.00083235 0.0018182 -2.64336e-19)
(0.00028055 0.000265321 8.01238e-19)
(0.000271712 0.000194491 3.75104e-19)
(7.77107e-05 1.13858e-05 3.56254e-19)
(7.71792e-05 6.79141e-06 2.27525e-19)
(0.000165438 -8.12759e-05 -3.92993e-19)
(0.000154174 -0.000110119 -3.67875e-19)
(0.00107513 0.000121707 -2.2166e-19)
(0.00128678 0.000163863 -2.59135e-19)
(-0.000834464 5.32011e-05 4.44844e-19)
(-0.00074057 0.000206413 -9.97654e-20)
(-0.000912858 0.000234527 -1.83896e-20)
(-0.11356 0.0517209 -2.16518e-18)
(-0.135848 0.0918766 -1.0108e-18)
(-0.121263 0.0843066 3.44592e-18)
(0.0104213 0.0582056 4.79043e-19)
(0.00365597 0.0577034 9.06527e-19)
(0.0122131 0.0496834 -6.03714e-19)
(0.0939879 0.0322905 -1.03259e-18)
(0.0868789 0.0434359 -2.12111e-18)
(0.0346015 -0.00573385 2.53537e-18)
(-0.00735186 -0.00890674 5.21652e-22)
(-0.00671583 -0.0080594 -1.71851e-20)
(-0.00798073 -0.00777328 7.04637e-20)
(-0.00109714 -0.00014152 -7.69931e-19)
(-0.00125437 7.31144e-05 -1.14159e-19)
(-0.000243433 -0.00127831 7.76877e-19)
(-0.000468271 -0.00135631 4.11265e-19)
(-0.000390254 -0.00112246 1.92809e-19)
(-0.000340473 -0.000761693 5.4825e-19)
(-0.000208548 -0.000754304 -1.19164e-19)
(-0.000312816 -0.000650234 4.05009e-19)
(0.00275415 -0.2379 2.55798e-18)
(-0.010242 -0.252801 6.57133e-19)
(-0.0117133 -0.237032 -5.3326e-19)
(0.00771724 0.0677308 1.13252e-18)
(0.0153385 0.0578555 1.91391e-18)
(0.0165323 -0.22487 3.01783e-18)
(0.0177092 -0.215068 -2.77424e-18)
(-0.000251663 -0.00155304 -5.01338e-19)
(-0.000400971 -0.00162547 1.20242e-20)
(-0.000353586 -0.00141661 -5.95981e-20)
(-0.11089 0.0294886 -1.56238e-18)
(0.000220299 -0.000274045 1.09119e-19)
(9.205e-05 0.000170555 -2.64557e-20)
(7.85406e-05 0.000145351 -4.5256e-21)
(5.66886e-05 0.000154745 8.62308e-20)
(0.000265059 -2.23645e-05 -2.32913e-20)
(0.000270977 5.00194e-06 2.09118e-19)
(0.000249859 1.87343e-06 -7.70995e-20)
(0.00388257 -0.0113193 -3.31071e-18)
(0.00357188 -0.012363 -1.93976e-18)
(0.00497607 -0.0118253 1.3585e-18)
(0.149543 0.00346429 3.38952e-19)
(0.162571 0.000290931 -2.8903e-18)
(0.15747 0.0174544 -1.08428e-17)
(0.00194282 -0.00223033 4.18159e-19)
(0.00177604 -0.00207303 1.16128e-19)
(0.00171473 -0.00230809 3.85028e-20)
(0.000278627 0.000333911 -5.75271e-19)
(-0.00150178 0.00163342 9.22339e-19)
(-0.068778 0.00756892 -1.97839e-18)
(-0.0689589 0.0262942 -6.31742e-18)
(-0.0538887 0.0164318 -1.01559e-19)
(0.000226528 -0.00020652 -1.22714e-19)
(0.000218313 -0.000238413 9.00383e-19)
(0.0569475 -0.0129284 -3.32118e-18)
(0.0586547 -0.00830503 5.17776e-18)
(0.000273602 -4.91981e-05 4.72348e-19)
(0.000256927 -4.60089e-05 -2.49532e-19)
(2.48063e-05 2.79536e-05 3.41125e-20)
(3.16284e-05 4.881e-05 -2.07286e-20)
(1.91896e-05 5.01357e-05 8.00687e-20)
(-0.000891507 -0.000106628 1.52863e-19)
(-0.000735536 -9.52242e-05 3.0765e-19)
(-0.000153292 -0.00171187 -4.60523e-20)
(-0.000105536 -0.00151785 -3.01472e-19)
(0.000136258 -4.08227e-05 1.4831e-20)
(0.000130512 -4.10384e-05 1.61066e-19)
(0.000137208 -4.64153e-05 -1.2097e-19)
(-0.0376932 -0.0332948 3.14336e-19)
(-0.0419616 -0.0388129 4.37619e-21)
(0.0736723 0.00396607 -1.46145e-19)
(0.0654569 0.00576555 1.25723e-19)
(-0.0589378 -0.0751706 1.1982e-19)
(0.00424985 -0.0105065 1.81744e-19)
(0.0033172 -0.0108342 -9.50061e-20)
(-0.0748145 -0.0531494 4.62416e-18)
(-0.0679097 -0.0538687 1.83294e-18)
(-0.0805648 -0.0419846 -3.0912e-18)
(-0.000985081 -0.00042759 -2.83698e-19)
(-0.000969719 -0.000654147 3.20049e-19)
(-0.00081964 -0.00054636 -4.07066e-19)
(-0.141356 -0.424579 -1.53934e-18)
(-0.120321 -0.350491 -2.73306e-19)
(1.76869e-05 3.16901e-05 5.8007e-19)
(1.19522e-05 2.75151e-05 6.91673e-19)
(0.000399403 -0.000495935 1.84022e-20)
(0.000363713 -0.000538281 6.57783e-19)
(-0.156847 0.127999 -3.10244e-18)
(-0.152038 0.16961 -3.54327e-19)
(-0.15904 0.149658 1.16485e-18)
(0.107965 -0.046884 1.38253e-18)
(0.0963209 -0.0473279 2.56455e-18)
(0.000193079 3.31815e-05 1.87692e-19)
(0.000188884 2.26818e-05 7.74005e-20)
(0.000184654 4.25489e-05 4.13031e-20)
(0.000159097 -0.000282586 1.58035e-19)
(0.000183073 -0.00030234 1.64577e-19)
(0.000597901 0.00100904 -1.1912e-19)
(0.000806358 0.000956567 1.54541e-20)
(0.09967 0.0190536 4.48514e-19)
(0.0001574 -0.000679307 -6.31541e-19)
(5.1847e-05 -0.000656102 1.14885e-19)
(6.09967e-05 -0.000789285 2.21159e-19)
(0.00724124 -0.00972621 -6.88713e-19)
(0.00877821 -0.00864466 5.44808e-19)
(-0.000696484 -0.00331065 -1.13996e-18)
(-0.00101394 -0.00309599 9.3711e-19)
(-0.000666186 -0.00293217 1.58023e-18)
(-0.000680034 -0.017645 -7.57173e-20)
(0.000461546 -0.0164203 -8.57673e-19)
(0.000772697 -0.0182398 -2.89832e-19)
(-0.0402059 -0.0250184 -3.26571e-20)
(-0.0353109 -0.0285226 -8.12687e-19)
(-0.0229058 -0.0602769 1.87461e-18)
(-0.0337161 -0.0610665 -1.88954e-18)
(-0.00035578 -0.000849229 8.71778e-19)
(-0.000237466 -0.000871849 -2.75023e-19)
(-0.0811195 -0.0543846 -3.18595e-18)
(-0.0672758 -0.0671241 -1.41986e-18)
(3.5745e-05 7.01127e-06 3.96242e-20)
(3.99512e-05 9.56324e-06 -3.12901e-19)
(0.000145421 -0.00149833 -1.26807e-19)
(0.000378316 -0.00156916 -6.03425e-20)
(0.000288726 -0.00132523 2.07737e-19)
(-0.0674711 -0.00727918 1.56965e-18)
(-0.0788192 0.000283168 2.79408e-19)
(0.000463197 0.000859457 -2.13946e-20)
(0.000421899 0.0010249 -9.80997e-20)
(0.0198553 -0.206982 7.79876e-19)
(0.0201923 -0.239133 5.80128e-18)
(0.0476576 -0.199493 2.11741e-18)
(-0.021643 -0.054955 -1.29096e-18)
(-0.0268926 -0.0511724 -1.63662e-18)
(-0.0278929 -0.0584903 -1.91615e-19)
(9.45673e-05 -0.000152192 -1.0911e-20)
(0.000109728 -0.000175274 -2.97588e-21)
(0.000107654 -0.000152839 8.2336e-21)
(-0.000477429 -0.00183425 9.5286e-20)
(0.000142007 -4.02128e-05 2.59562e-19)
(0.000136228 -3.41959e-05 2.2932e-19)
(0.0229722 0.0056127 -2.91843e-19)
(0.0232468 0.010153 4.74173e-19)
(-0.146703 0.0948259 -1.02193e-18)
(0.00461271 -7.90135e-05 -3.50888e-19)
(0.0039707 -0.000173805 6.83123e-19)
(-0.000244961 -8.22631e-05 -2.3489e-20)
(-0.00020549 -6.0902e-05 -1.00939e-18)
(-0.00021428 -0.000121017 5.09325e-19)
(-0.016685 -0.0520953 -9.67442e-21)
(-0.0172544 -0.0589338 -9.72796e-19)
(0.0212959 -0.020699 -8.46313e-19)
(0.0215658 -0.022983 -1.64505e-19)
(0.0193715 -0.0220086 4.5796e-19)
(0.000176224 0.00025439 -3.86407e-20)
(0.000240711 0.000233103 2.90018e-22)
(0.000124437 0.000182325 2.2934e-21)
(0.00014202 0.000143923 3.96266e-20)
(0.00215232 -0.00215153 4.31688e-19)
(0.00210205 -0.00242819 -6.80303e-19)
(2.28817e-05 2.42508e-05 -1.45664e-19)
(2.06169e-05 2.87464e-05 3.32945e-19)
(1.69683e-05 2.23953e-05 -8.46811e-20)
(0.0242424 -0.00823926 -1.37053e-18)
(0.0232824 -0.0067934 -5.64524e-19)
(0.0225314 -0.00853086 1.03828e-18)
(0.0190989 -0.176736 1.04908e-19)
(-0.00744029 -0.196694 1.46749e-19)
(0.000187551 -0.000109779 1.96396e-20)
(0.000183187 -0.000101307 3.92712e-20)
(0.000178598 -0.00010872 4.36009e-20)
(-0.000182343 -0.000423538 1.54168e-18)
(-0.000220055 -0.000485778 -2.36088e-19)
(-0.000260377 -0.000392225 8.75029e-19)
(0.0821993 -0.0198915 -3.86598e-19)
(0.0827006 -0.0137874 -5.28707e-19)
(-0.00129297 -0.00133073 -9.59117e-19)
(-0.0013682 -0.00100092 6.38823e-20)
(-0.0016567 -0.0012931 -4.25227e-19)
(0.00616658 -0.00855564 -7.65443e-19)
(0.00580439 -0.010315 -2.07958e-19)
(-5.65422e-05 -0.00128533 1.05579e-18)
(-0.000275769 -0.00141771 3.74204e-19)
(-0.000222634 -0.00117524 4.88138e-20)
(-0.000284561 -0.000224119 -1.38564e-19)
(-0.000281163 -0.000143595 5.70684e-19)
(-0.000346808 -0.000172225 -3.5528e-19)
(-0.00492756 0.133023 9.29833e-18)
(-0.022468 0.142923 9.78546e-18)
(-0.00014427 -0.000369001 5.82723e-19)
(-0.000171567 -0.000299046 -1.54184e-18)
(-0.000116268 -0.000323802 -2.28668e-19)
(-0.000323511 0.000173397 -1.73868e-19)
(-0.000265577 0.000170821 -1.47597e-19)
(0.000126249 -9.8931e-05 8.2744e-19)
(0.00012523 -7.30301e-05 1.95784e-19)
(-0.000271539 0.00208033 -3.83487e-19)
(-0.000295111 0.00244421 -1.47328e-19)
(-0.00039227 0.000186091 -8.19828e-20)
(1.12765e-05 6.32197e-06 3.98166e-19)
(9.82998e-06 3.47548e-06 2.34077e-19)
(-0.000948127 0.000687569 -8.37486e-20)
(-0.000923971 0.000542317 1.13368e-20)
(-0.00107043 0.000617854 1.14848e-20)
(-0.000134977 -0.00715673 5.64666e-19)
(0.00037309 -0.00673972 6.18702e-19)
(-0.00030174 -0.00662226 -8.75402e-20)
(0.021221 -0.031624 7.86458e-19)
(0.0215788 -0.0284861 -8.92947e-19)
(0.0212234 -0.00432345 5.16339e-19)
(0.0222615 -0.00552902 1.75534e-19)
(0.020507 -0.00581899 4.04635e-20)
(-0.000189483 -0.000104764 -4.94278e-19)
(-0.000155563 -8.93226e-05 -2.88306e-19)
(-0.000185212 -4.60363e-05 -3.34923e-19)
(-0.00540586 0.00392048 -4.93861e-21)
(-0.00466822 0.00427549 1.38385e-19)
(-0.00539343 0.00483388 2.80322e-19)
(-0.000107855 -0.00074017 -6.50921e-19)
(-9.53702e-05 -0.000644163 3.49884e-19)
(-2.30752e-06 -0.000718641 -1.37861e-19)
(-0.000657137 -0.00762915 3.63408e-21)
(0.000126372 -0.00776146 -2.57964e-19)
(0.00198301 -0.00458343 1.16016e-19)
(0.00268372 -0.00457472 -4.03789e-19)
(0.00223003 -0.00391473 6.58303e-19)
(0.000264703 -0.000467134 1.87779e-19)
(0.000209263 -0.000586488 -7.16159e-19)
(0.000175355 -0.000478707 -1.41226e-19)
(0.0575072 -0.0147895 -1.11137e-19)
(0.0554797 -0.0262638 8.66927e-19)
(0.0531888 -0.020299 1.7033e-18)
(-0.000110355 -0.000434545 1.9748e-18)
(0.0209121 -0.0348975 2.22515e-18)
(0.0182389 -0.0326675 3.0897e-19)
(1.39667e-08 -4.58198e-06 1.28554e-19)
(-3.18452e-06 -7.73538e-06 8.76027e-20)
(1.87903e-06 -5.89918e-06 3.90087e-19)
(-0.00657781 -0.00996154 -1.03428e-19)
(-0.00812602 -0.0100587 7.09669e-21)
(0.000335896 0.000497617 -1.47709e-20)
(0.000441569 0.000558845 2.43175e-20)
(0.00041634 0.000455298 3.00752e-20)
(0.000252379 0.000497481 -4.47953e-20)
(0.000268238 0.000411701 -5.00078e-20)
(-0.00187971 -0.0189299 2.99748e-19)
(-0.0020667 -0.0170366 6.00445e-19)
(-0.15026 0.209203 1.98631e-18)
(-0.148314 0.185367 -1.83642e-18)
(0.00199479 0.0016429 -5.66296e-19)
(0.00216966 0.00124967 6.77691e-19)
(0.00180911 0.00134226 6.66348e-19)
(0.000356694 -0.000472779 1.64985e-20)
(0.000290579 -0.000375961 9.03092e-20)
(-0.000274423 3.29814e-05 2.95375e-19)
(-0.000295291 -2.67505e-05 1.26694e-19)
(-0.000249754 -2.42055e-05 2.40637e-19)
(-0.0135068 0.00221529 2.73504e-19)
(-0.0126438 0.000960111 -5.58148e-19)
(-0.0119546 0.00256294 2.17067e-19)
(0.000122776 -0.00019334 5.39954e-21)
(0.000139606 -0.00021282 -5.42549e-20)
(0.000138049 -0.000190573 1.81548e-20)
(0.000991574 0.101519 1.30657e-19)
(-0.00448832 0.102762 -2.76249e-19)
(-0.00270359 0.108258 8.51867e-19)
(0.00650754 0.0948602 1.9835e-18)
(0.0047825 0.0926386 2.27651e-18)
(0.000195912 4.60347e-05 1.5349e-20)
(0.0799 0.009213 -7.19394e-20)
(0.0818191 0.000593054 -1.67635e-19)
(0.000123602 -1.10456e-05 -1.9482e-19)
(0.000120955 -1.23959e-05 -7.34346e-20)
(0.000126614 -1.23615e-05 -4.85081e-20)
(0.0216779 -0.0026817 -5.77598e-19)
(6.5796e-05 0.00195329 8.31907e-19)
(-0.000221624 0.00177567 -1.0026e-19)
(0.00014642 0.00034289 5.79226e-20)
(0.000168841 0.000298344 -2.46557e-20)
(0.000214669 0.00035372 2.07242e-20)
(4.35111e-05 4.07007e-06 -2.38794e-19)
(4.47282e-05 1.87743e-06 3.9693e-19)
(4.28343e-05 4.34464e-06 -2.37887e-19)
(2.87419e-05 -2.08235e-05 2.67503e-19)
(2.80911e-05 -1.48593e-05 -1.355e-19)
(8.61442e-05 -0.00012977 3.1373e-21)
(8.37199e-05 -0.000151795 1.98814e-20)
(-0.000944639 0.000851543 6.41015e-20)
(-0.000822654 0.000753359 -5.5868e-22)
(-0.00455247 -0.0094766 -3.15298e-19)
(-0.00367776 -0.00893376 2.06469e-20)
(-0.00479715 -0.00872921 7.35905e-20)
(7.22089e-05 -1.41549e-05 -3.44888e-19)
(7.01953e-05 -1.48306e-05 -2.36392e-19)
(6.7554e-05 -1.89224e-05 -2.25755e-21)
(0.000138001 -0.000262899 2.151e-19)
(0.000136903 -0.00029021 -1.51667e-19)
(0.000194512 -0.000119908 4.31693e-20)
(0.0194741 0.140509 -4.34505e-18)
(0.0209751 0.123474 -7.93586e-19)
(0.00291669 0.000857864 -5.25098e-19)
(0.00327145 0.000588462 -4.86237e-19)
(0.00283209 0.000412441 -7.54239e-20)
(5.45114e-05 -5.18466e-06 -2.33296e-19)
(6.19859e-06 -1.85409e-06 -6.53519e-20)
(1.04738e-05 -1.62015e-06 8.56493e-21)
(8.99852e-06 -2.76614e-06 -6.96308e-21)
(0.000621579 -0.00219777 2.79978e-19)
(0.000809534 -0.00260441 -4.44034e-19)
(-0.00141332 -0.00163233 -2.13527e-19)
(-0.00167355 -0.00158097 -3.04313e-19)
(-0.00148874 -0.00137547 1.49957e-20)
(-0.00544676 -0.0100281 -4.03891e-19)
(-0.00410297 -0.0104015 1.43537e-19)
(0.000130234 8.41099e-06 -1.12117e-19)
(0.000129439 1.15423e-05 7.6237e-20)
(0.000127331 5.88795e-06 4.56165e-19)
(-0.0811694 0.247265 -1.2929e-17)
(-0.078707 0.16179 1.57296e-17)
(-0.0937015 0.218345 8.82923e-18)
(-0.000281725 -0.000108638 9.42393e-20)
(-0.0611982 0.0293836 3.21298e-18)
(-0.0590586 0.0101479 8.53621e-18)
(-0.0700485 0.0165901 4.93832e-18)
(0.0320019 0.122347 1.41728e-18)
(0.0216504 0.152939 3.16033e-18)
(0.0224342 0.131199 3.07403e-18)
(4.82683e-05 8.86186e-07 -1.39597e-19)
(4.97889e-05 3.34877e-07 1.63807e-19)
(2.23325e-05 -3.43753e-07 -1.61709e-19)
(1.78188e-05 -1.24247e-06 1.21132e-18)
(1.91067e-05 1.63911e-06 1.90975e-19)
(0.000418179 -0.000153457 -3.89946e-19)
(0.000416141 -6.357e-05 4.0281e-19)
(0.000511466 -0.000117023 2.2505e-20)
(-0.0142981 0.00363118 7.7752e-19)
(-0.0150489 0.00169026 -2.76121e-19)
(-0.00720922 -0.00397004 1.27697e-19)
(-0.00686123 -0.00462215 6.69117e-20)
(-0.00636956 -0.00368073 -2.22114e-19)
(0.000299084 0.00182057 1.07667e-19)
(0.00026173 0.0015622 -2.33127e-19)
(0.000518371 0.00163649 3.00105e-20)
(-0.0636359 0.052694 -2.27107e-18)
(-0.053039 0.0400336 -3.15665e-18)
(0.000121367 -1.29123e-05 3.6264e-19)
(0.00011992 -1.06382e-05 3.62755e-19)
(0.000128597 -1.53679e-05 1.16769e-19)
(0.00040375 -0.0002523 1.19324e-19)
(0.000354872 -0.000186659 3.45421e-19)
(-0.00754322 -0.00333218 -4.82598e-21)
(-0.00819114 -0.00421834 -4.84893e-21)
(-0.000645959 0.0014812 -2.4525e-19)
(-0.000846963 0.00144455 -3.25111e-19)
(-0.000748565 0.0016663 -2.02828e-19)
(-0.000573434 0.000151442 -2.45687e-20)
(-0.000494578 0.000163782 8.7919e-21)
(-0.00053395 7.16427e-05 9.81912e-21)
(-0.00194774 -0.000627405 -1.65505e-18)
(-0.00199958 -0.00108288 -6.45662e-19)
(0.0213693 0.00226748 -3.85785e-20)
(-0.000375487 0.000320017 3.01664e-20)
(-0.000459348 0.000366128 -1.82539e-19)
(-0.000366018 0.000419295 -3.51312e-19)
(-0.0117941 -9.86178e-05 -3.72868e-20)
(-0.0104586 0.000275708 -3.13799e-19)
(-0.0108389 -0.00105627 4.43494e-19)
(-0.000661746 -0.00361002 -1.09144e-18)
(-0.000363083 -0.00345951 -1.5179e-18)
(-0.000157966 0.000201543 -8.30876e-20)
(-0.000201861 0.00022893 -6.52218e-19)
(-0.000152602 0.000253762 -5.17249e-19)
(-0.00341311 0.0633521 2.92288e-18)
(-0.0938312 -0.0297302 -8.47157e-19)