/*--------------------------------*- C++ -*----------------------------------*\
| =========                 |                                                 |
| \\      /  F ield         | OpenFOAM: The Open Source CFD Toolbox           |
|  \\    /   O peration     | Version:  v2012                                 |
|   \\  /    A nd           | Website:  www.openfoam.com                      |
|    \\/     M anipulation  |                                                 |
\*---------------------------------------------------------------------------*/
FoamFile
{
    version     2.0;
    format      ascii;
    class       volScalarField;
    location    "800";
    object      ddt0(k);
}
// * * * * * * * * * * * * * * * * * * * * * * * * * * * * * * * * * * * * * //

dimensions      [0 2 -3 0 0 0 0];


internalField   nonuniform List<scalar> 
10042
(
-1.14103e-07
-1.76657e-07
7.78693e-07
-1.14466e-06
0.0159092
1.24529e-07
-0.00946316
-3.2484e-05
-7.87919e-07
-9.45756e-08
-0.0118432
-1.2911e-06
-8.31976e-07
-4.19657e-07
1.99179e-07
-8.77927e-07
-7.78755e-07
4.79165e-08
-2.16989e-07
2.53661e-06
-1.877e-06
-4.93197e-05
-7.70691e-07
2.49e-07
-1.23026e-07
-7.59107e-07
-3.79376e-07
4.97134e-07
-8.1191e-07
6.01005e-07
-8.64528e-08
0.00206371
2.97432e-07
9.42261e-09
6.45899e-07
3.08374e-07
-6.66598e-07
-1.55133e-06
-8.17764e-07
3.22478e-07
5.40549e-06
3.62561e-07
-0.014532
3.67674e-07
0.0130917
-1.9281e-06
4.41805e-07
-1.28312e-05
-1.29101e-07
2.57336e-07
-3.98257e-07
5.43544e-07
7.27078e-07
1.30549e-08
-6.44112e-07
-3.15233e-07
-8.36725e-07
4.60262e-07
1.75088e-07
9.36238e-07
-1.85326e-07
-5.23525e-07
6.56441e-07
6.73487e-07
-2.23352e-07
1.5154e-07
1.85377e-07
2.44527e-07
0.0654608
-6.17743e-07
-3.31828e-08
1.13769e-06
3.67396e-07
-4.02162e-08
6.73126e-07
1.09042e-06
0.0122835
-2.53847e-07
8.74642e-08
-0.0153758
-4.51517e-07
0.0225724
8.251e-07
8.42581e-08
1.98819e-07
3.29396e-08
5.24654e-07
-1.13067e-06
7.74761e-07
1.08863e-07
-1.67412e-07
0.0175016
4.81431e-07
-3.04341e-08
6.21778e-07
-9.78953e-08
-2.72917e-07
-1.8385e-07
2.38832e-07
-8.04085e-07
-1.50254e-10
1.36577e-07
0.00159572
3.86409e-07
2.30487e-07
-2.35165e-07
6.28281e-07
-2.3943e-07
-1.6447e-06
-6.14116e-07
-1.29563e-06
-7.81688e-07
1.45544e-07
0.0632924
-2.00178e-07
-7.20875e-07
4.0488e-08
-2.46348e-07
-2.25621e-07
-0.00793803
9.69837e-07
0.000104131
8.47278e-08
-5.28599e-08
6.36401e-08
5.69745e-07
-0.000186346
4.96858e-07
-2.00321e-07
-1.68621e-07
7.43313e-08
-1.45376e-07
-0.00160439
1.43176e-05
-7.03304e-07
1.47229e-07
-0.00470355
3.62849e-07
-1.46388e-05
-1.53785e-06
6.55766e-07
6.31577e-08
5.008e-07
8.84643e-07
4.51138e-07
-6.56146e-07
4.54977e-07
-7.05541e-07
-4.11156e-07
-1.45798e-07
-4.8355e-07
8.58206e-08
0.0386555
-0.0102322
-1.20696e-06
-6.03309e-07
1.55749e-07
-6.28536e-07
-2.35793e-08
0.0035222
-0.0406245
4.99876e-06
9.06756e-08
-4.81596e-07
1.00619e-06
-1.11931e-07
-3.63753e-07
0.011071
0.00125639
-0.0100408
1.08756e-07
7.63444e-07
0.0243219
7.59939e-07
-3.86373e-08
0.0321577
-0.0719759
3.09098e-07
-1.38964e-07
2.32663e-07
1.74933e-07
0.00274649
5.68465e-07
5.03922e-07
3.83061e-07
-0.00481746
1.66272e-05
5.40196e-08
-0.0239335
-2.31227e-07
-0.000118446
7.57915e-07
0.0308138
0.0341964
-1.37149e-07
0.000376122
-4.76719e-07
3.8086e-07
-6.61385e-07
-5.03567e-08
4.80229e-08
-1.24658e-07
-3.35664e-07
2.47959e-06
1.76553e-07
-6.41692e-07
-8.66324e-05
-1.42556e-06
2.19179e-07
1.5859e-06
-0.00078995
-1.50242e-06
-3.40674e-07
-4.23622e-06
1.9936e-07
1.81609e-05
7.48486e-07
5.40727e-07
1.02327e-07
-2.90565e-07
2.12439e-07
1.63299e-07
-9.31338e-06
-1.82212e-06
7.78467e-07
-9.32743e-07
3.1705e-05
-7.97004e-07
5.38914e-06
-9.79193e-08
-7.68244e-07
-2.35786e-06
7.71561e-07
-5.35301e-08
1.0904e-06
-1.64255e-07
-1.12229e-06
-8.98611e-07
-4.92576e-07
-1.59158e-06
-3.90659e-08
2.83598e-07
7.41701e-07
4.50671e-07
-1.28543e-06
3.90911e-08
-6.50047e-07
2.47249e-07
2.41763e-07
4.44483e-08
-1.69277e-06
-6.48249e-07
6.76861e-07
-3.69333e-06
5.32598e-06
-0.0420083
-5.50979e-08
-1.91708e-08
1.93584e-07
-2.58379e-06
0.042606
-2.18412e-07
5.64306e-07
-8.46213e-07
-4.85363e-08
-9.40219e-07
-4.78127e-05
5.68847e-08
2.01368e-07
1.74122e-06
-5.40355e-08
-2.92317e-08
-3.1075e-06
-1.60745e-07
-1.82564e-06
-3.65869e-07
-1.47675e-06
-8.2575e-07
9.49377e-07
4.65784e-07
3.90647e-07
6.34141e-07
-7.47299e-07
-0.00413516
-1.66456e-07
3.98152e-07
0.025952
-1.71603e-06
6.74815e-07
1.99926e-07
6.73196e-07
0.0266851
6.88864e-07
1.04549e-06
-2.33902e-07
-7.48004e-07
-8.04008e-07
-8.81492e-07
3.62796e-06
7.80624e-08
-7.81694e-07
-2.41489e-08
5.92444e-07
-1.51321e-06
4.25369e-07
5.47138e-08
0.0187447
1.01334e-06
-0.000382611
-1.67588e-06
-3.28092e-07
-3.55633e-07
-0.0153981
2.40365e-07
-0.0486958
-0.0348861
6.76762e-07
5.53371e-08
-6.07382e-07
5.77143e-07
-9.33161e-07
-1.27313e-07
1.09413e-07
-1.46256e-06
-6.09774e-07
3.64699e-07
-3.84773e-07
-3.84621e-07
3.62139e-07
3.25239e-07
6.66836e-07
-0.000530905
-1.22971e-06
-1.20012e-06
9.29711e-08
6.86908e-07
2.74672e-07
-2.5284e-06
-2.07668e-07
4.9098e-05
-1.68277e-06
5.63739e-07
2.81866e-07
-4.6358e-07
-2.4881e-07
1.60645e-07
6.38945e-05
4.94516e-07
1.42501e-09
3.69329e-06
-2.80446e-07
5.40243e-07
1.01653e-07
-1.20948e-05
1.27699e-07
7.75241e-07
-2.86942e-07
1.62293e-07
2.29346e-07
1.1085e-07
-0.000215671
5.12226e-07
-1.64135e-07
3.17754e-07
9.55836e-07
1.82536e-07
6.46113e-07
4.10325e-07
0.000397333
-5.37535e-07
1.33292e-07
6.68748e-07
-2.09527e-11
-3.94314e-07
-1.4998e-06
1.95902e-07
-1.34955e-06
-0.00508364
-2.47563e-07
-0.00948614
5.98152e-05
-1.24191e-08
0.0162408
-0.0501346
2.2819e-07
-2.34159e-06
-1.02325e-06
-3.1307e-07
1.23653e-10
3.11353e-07
-0.000166558
-2.08657e-07
3.96706e-07
0.000124201
-1.0692e-06
-2.45752e-06
-5.8226e-08
-5.57636e-05
-1.77528e-07
-3.60909e-07
0.00262266
3.16634e-07
1.23596e-06
2.89151e-07
-0.036831
-5.42579e-07
1.62801e-07
-5.96136e-07
-8.90286e-07
-1.04976e-06
3.33099e-08
-0.000231018
0.000788927
3.51414e-07
0.00931803
-1.3434e-06
3.44417e-08
-1.99114e-05
9.40649e-07
-0.010946
9.52159e-07
4.78618e-08
3.32023e-07
-6.55366e-08
-1.05687e-06
1.84525e-07
2.67374e-07
5.37143e-07
-0.00278478
1.76128e-07
-0.00854357
3.63941e-07
1.1543e-08
-7.24548e-07
-1.8604e-05
-6.46208e-08
-1.90919e-09
-3.01958e-07
-1.67794e-07
7.86593e-05
-8.94393e-07
-4.70074e-07
-1.13119e-06
-0.00222332
-7.4618e-07
-7.72125e-07
-4.14801e-07
-9.46387e-07
0.0117828
0.0263057
-1.26564e-06
-2.47699e-07
-5.84073e-07
-1.86617e-06
-1.05905e-06
-6.55029e-08
0.000693218
1.45451e-07
-1.57992e-06
-3.18328e-07
0.000889781
1.67275e-07
2.32366e-07
2.01926e-07
-0.0260558
-1.52679e-06
-2.52724e-07
1.20674e-07
1.28432e-05
1.82482e-07
-4.14115e-07
2.55509e-07
-4.1507e-07
3.75422e-07
1.95998e-07
2.17063e-07
1.51737e-07
6.41111e-07
1.75789e-08
-0.0234582
-9.41145e-08
4.97215e-07
1.70859e-07
9.039e-07
7.42116e-08
-1.40464e-06
2.3739e-07
0.0476561
4.76274e-07
-0.0228697
-8.28199e-08
1.61805e-08
-1.42844e-07
-5.01697e-07
1.43829e-06
-1.932e-07
-1.1216e-06
-6.46031e-07
1.98707e-07
-0.0236566
-1.54979e-07
8.24515e-08
-3.85792e-05
-1.47678e-06
1.91044e-07
-1.97993e-07
6.37426e-07
-4.88395e-08
-1.32279e-06
-0.0156559
-0.00774842
-2.03478e-07
4.52958e-07
-1.02801e-06
-1.57679e-06
3.15739e-07
-1.09157e-06
0.000125325
-9.49283e-07
-3.51577e-05
-2.79911e-07
6.85302e-07
1.0692e-06
1.50715e-07
0.0546046
5.06376e-07
-5.9469e-07
-6.73448e-07
-1.22518e-06
6.70474e-07
0.000147586
-8.6175e-07
3.34544e-07
-0.000704425
-9.98185e-06
-7.74507e-06
-1.49697e-07
-1.07959e-06
-6.25413e-07
8.68815e-07
5.44336e-07
0.0185564
0.00119547
5.89665e-07
-1.00259e-07
-6.29188e-09
3.96396e-08
2.84196e-07
2.05276e-07
-0.0264261
-5.35566e-07
-1.61626e-06
-1.50239e-06
-3.61243e-07
-7.71626e-05
-4.14235e-08
-1.31797e-05
1.06969e-07
-7.11976e-08
-5.15533e-07
6.22189e-07
-1.48917e-06
-4.08885e-08
-3.46789e-07
9.24371e-07
2.28153e-07
4.98196e-07
8.37438e-08
1.72868e-07
8.72501e-08
-1.6794e-07
5.9019e-07
-6.03881e-08
9.66862e-08
4.00752e-07
3.75518e-07
-5.51698e-07
1.96367e-07
5.4033e-07
-1.16462e-06
-3.97053e-07
-3.25554e-05
-1.17551e-07
5.76001e-07
-3.40516e-06
-5.00617e-08
-0.00254379
-8.92581e-07
-5.73432e-07
1.70374e-05
8.94633e-07
3.21286e-07
2.00613e-07
-3.61596e-07
-1.95724e-10
1.96604e-09
6.01985e-07
-6.31938e-06
4.82244e-07
-4.64115e-07
-3.45607e-07
1.98229e-07
-4.39147e-07
-2.05681e-07
-1.12689e-06
-6.33937e-07
-1.74291e-06
1.25634e-07
3.8522e-07
-1.40546e-06
1.34024e-07
-9.99042e-08
3.47465e-07
0.00183636
-6.32521e-07
4.65572e-07
-5.03975e-08
-8.33081e-07
-6.32185e-07
-1.07195e-06
1.58754e-07
-6.63843e-07
3.16433e-07
1.06125e-05
-4.4927e-08
0.0172647
-7.31471e-07
6.71624e-07
-7.62363e-07
7.11098e-07
8.13721e-07
1.33061e-08
-1.44195e-07
1.28906e-06
-0.00081812
-7.86069e-05
-8.81316e-07
4.64668e-08
4.35446e-09
-1.8375e-07
-1.97565e-06
-3.09062e-07
1.24108e-07
-2.94251e-08
0.00949694
-4.05817e-06
-0.025696
5.51652e-07
1.65756e-07
-1.61771e-07
-4.83567e-07
-1.58109e-07
-2.45434e-06
8.86774e-07
4.22439e-07
3.65598e-06
1.03482e-07
-1.80604e-08
-1.0619e-06
0.00677967
7.66172e-07
1.68916e-07
9.64463e-07
4.19412e-07
-0.0239651
7.8116e-08
5.31312e-07
2.98161e-07
-2.76871e-07
-0.0188687
-3.02757e-06
0.0121365
-9.58545e-07
-0.0012162
0.0195926
4.58226e-05
-2.62836e-06
-2.64023e-06
6.97e-06
-3.58867e-07
7.2121e-07
-6.92428e-07
2.24565e-07
-0.0154657
6.69639e-08
-1.26063e-07
-0.0683418
8.51256e-07
2.29768e-07
1.72628e-07
5.66582e-07
7.49046e-07
2.93945e-07
-6.30089e-07
-0.00374215
-4.03273e-08
6.03178e-07
-0.000365436
0.011384
-8.26145e-08
-2.73794e-07
-3.57686e-07
-7.63772e-07
-6.58787e-05
-2.85055e-06
-3.40554e-06
3.35884e-07
6.06337e-07
-8.25128e-07
1.12755e-07
-1.41523e-07
-1.33929e-06
5.70101e-07
0.0424966
-5.65806e-07
5.23206e-07
-2.07804e-07
-8.42994e-07
-1.15304e-06
-2.0152e-07
-4.13048e-07
-0.000330961
0.00432078
3.25035e-07
-1.36112e-06
0.000236292
-0.0205464
-3.95953e-07
9.44895e-07
-0.000359425
-1.68766e-06
1.45537e-07
7.54654e-07
-2.21608e-07
-1.64666e-06
-5.23562e-06
-8.83124e-07
-5.39521e-07
1.36473e-07
0.0289926
0.000428936
-3.3652e-07
5.7095e-08
6.38097e-07
-1.3037e-06
-6.41688e-07
2.24901e-07
0.0187803
-0.0138522
0.00298685
5.07434e-07
-6.80191e-07
-4.02209e-07
-8.43138e-07
-1.61296e-06
-5.78783e-07
-2.03944e-06
-9.18351e-08
-2.80272e-07
-1.04496e-06
2.69542e-07
1.64769e-08
-8.45465e-07
-1.34681e-06
-1.39561e-06
4.38261e-07
1.47031e-05
-5.0689e-07
-6.64521e-07
-3.12681e-07
-3.627e-07
-2.45136e-06
-6.95088e-07
7.91149e-09
0.00346097
-0.0107565
3.15247e-07
-0.0117291
0.000887436
9.18298e-07
-8.67942e-07
6.12953e-07
2.85976e-07
0.0065661
-4.48861e-07
-1.46802e-07
8.12295e-08
0.0206822
-1.90926e-07
4.68773e-07
-5.55896e-07
-4.1532e-07
3.54644e-07
-8.54505e-08
-3.65711e-07
-1.90351e-06
6.00026e-07
-5.80428e-07
-8.5869e-07
-1.08459e-05
4.08395e-07
3.77927e-07
2.0187e-07
7.86409e-07
3.73096e-07
-5.24212e-07
8.99422e-07
5.23674e-08
-1.11938e-06
7.4615e-06
1.47174e-11
-6.00272e-07
-8.88359e-09
-0.0871476
-7.91519e-07
2.32218e-07
-1.82032e-06
-3.77833e-08
-1.09045e-07
5.10603e-07
-0.0187124
0.0108785
-2.0886e-07
-8.93253e-07
4.45817e-05
-6.09849e-07
2.40374e-07
-7.17244e-07
-4.89064e-09
4.47954e-07
-4.2172e-11
-2.86634e-10
1.10045e-09
-1.16052e-07
-7.11228e-07
1.54159e-07
2.2618e-07
0.00832612
-6.9043e-07
-4.53936e-06
-9.30423e-07
-1.59151e-06
-3.86315e-07
-0.112007
-1.00207e-06
0.0509181
-4.8864e-08
-1.36289e-06
-4.04618e-07
9.69275e-08
9.47046e-07
-1.12559e-05
-1.06858e-07
6.1511e-07
-0.0335439
-8.66051e-10
0.000147318
-1.39602e-06
-7.43418e-07
-1.50579e-08
-4.97597e-07
0.00276647
-7.16848e-08
3.33128e-07
-2.95015e-07
-4.22393e-07
1.38486e-07
2.32411e-07
-1.14927e-06
1.55658e-07
-4.62174e-06
1.4351e-06
-1.79718e-08
-1.11728e-06
-4.76183e-07
7.32186e-07
-2.08411e-07
1.26452e-07
-1.18683e-06
-1.79281e-06
1.69582e-07
1.62247e-07
1.90588e-07
7.97001e-08
-0.082094
5.09355e-08
-0.000823383
3.49533e-08
0.00605024
6.74911e-07
-9.1633e-07
0.000167307
-2.39786e-07
-5.0057e-06
-0.128962
6.6821e-08
-1.02959e-08
5.3068e-07
6.01907e-07
7.31353e-07
-7.4598e-08
-0.0106844
-4.92264e-07
-0.00999521
0.0320453
6.49544e-07
6.47635e-08
-0.00437279
-0.0151334
1.53679e-07
-3.02773e-07
-1.18261e-06
-1.13688e-06
-1.17988e-06
-1.47195e-06
-5.51574e-08
0.000307196
-4.94557e-08
2.18637e-08
1.58883e-07
-4.95345e-05
6.43998e-07
5.03559e-07
-1.48182e-07
1.10382e-06
5.00609e-07
-6.9189e-08
-0.00855211
5.1399e-07
2.90772e-07
1.99132e-05
5.96045e-07
6.31868e-07
-4.93633e-05
0.0506396
0.00480544
5.47588e-07
8.75667e-07
3.6583e-05
-7.31064e-07
-6.4367e-07
-4.17058e-07
-1.45717e-06
-1.0448e-06
-1.05132e-06
-9.78e-08
-3.28255e-08
7.97218e-07
-2.63487e-09
6.10317e-07
-3.05854e-07
-9.01171e-07
5.41256e-07
-1.41843e-06
6.31476e-06
2.41115e-07
-2.46463e-07
-8.24525e-07
-7.27045e-07
-1.03167e-06
-1.58627e-07
0.00890853
-1.1696e-06
-4.26363e-07
2.89925e-07
-9.19794e-08
-0.0336172
-1.54492e-07
-9.6205e-07
1.78232e-07
-3.37553e-08
-0.0218987
4.68798e-07
-2.54323e-07
-9.65231e-07
2.49087e-08
-4.08228e-07
2.05168e-07
3.85321e-07
6.83788e-07
-9.9888e-07
-3.17998e-07
6.19936e-07
0.0186471
4.4635e-07
2.04263e-07
2.80545e-07
0.00638713
-2.66663e-08
-1.34127e-05
4.31727e-07
3.80484e-05
-8.01017e-10
7.02266e-07
-9.96668e-07
-2.13745e-06
1.48384e-06
-2.25756e-07
-9.49307e-07
-7.00496e-07
-6.53027e-08
-7.05648e-07
0.000956683
-1.72814e-08
-7.18458e-07
-1.21428e-07
-4.62548e-08
3.60141e-07
-0.0191925
7.84711e-07
4.64927e-07
-1.39223e-07
-1.85495e-06
-0.00253225
-1.35107e-06
1.17378e-06
-1.49722e-06
-6.64811e-07
-9.10096e-07
-3.8525e-07
-1.75315e-06
1.11099e-06
-2.39306e-07
0.00145711
8.87236e-07
-1.03769e-06
-0.0104785
2.18382e-07
-6.76063e-07
-1.12975e-06
2.40738e-07
-3.35914e-07
5.57434e-07
1.75557e-07
4.68309e-07
6.42572e-08
-0.0115163
4.03774e-07
2.79679e-07
-7.74985e-07
8.69718e-07
-9.53945e-05
0.0527862
-1.36419e-07
-1.26046e-07
-2.23336e-05
-3.20841e-07
0.00385859
-1.46332e-06
8.30468e-07
-1.41999e-06
-0.00081972
-5.06207e-08
6.56741e-07
2.11347e-07
-1.09035e-06
-0.0139835
1.96767e-07
2.85863e-07
1.41258e-08
-4.4814e-08
5.26249e-07
6.07055e-07
-1.90863e-07
1.72825e-08
8.54583e-08
0.035357
-0.00572769
1.84737e-06
8.01248e-08
-5.64565e-07
-0.000402614
2.43583e-07
0.00647965
-5.07234e-08
4.05681e-09
-8.5477e-08
-2.86498e-08
-5.18204e-07
-2.84628e-07
-9.41547e-07
2.64237e-07
-0.00023162
-5.31455e-06
-4.15381e-07
-1.26046e-06
-1.12617e-06
-3.15505e-07
3.82125e-07
-1.92486e-08
5.09642e-07
2.81194e-07
1.26505e-07
-6.24301e-07
-2.3393e-07
-8.98735e-07
-1.43161e-08
-9.12765e-07
-6.06845e-07
5.89074e-08
-1.11791e-06
-3.89309e-07
-1.86227e-07
1.54041e-07
-1.765e-06
-1.91227e-07
-9.57564e-07
-1.33412e-06
-9.88512e-07
7.21824e-07
-4.93943e-07
-7.02231e-08
-5.09033e-08
-0.00636706
-2.58904e-06
-1.22914e-07
-0.0196155
1.0281e-09
-1.44814e-06
3.98146e-07
-3.90538e-07
-1.15692e-06
0.00138027
-1.04103e-06
-1.28696e-05
-1.18819e-06
8.35371e-07
1.42425e-07
1.17984e-07
-3.94563e-07
9.87807e-08
-6.88086e-06
3.47891e-08
4.8916e-07
-5.58111e-07
6.00914e-08
-1.01326e-06
-1.37882e-06
3.12036e-09
-3.70856e-07
-8.56301e-08
-0.000273388
-1.80451e-07
-1.12422e-06
-0.0146948
5.34935e-08
-8.14754e-07
-8.4765e-07
-9.14646e-07
-2.35461e-07
-0.000490847
1.32892e-08
-3.01742e-07
2.60746e-08
-1.63435e-07
-8.95905e-07
-3.32534e-07
-6.16047e-07
-0.0259389
-5.72597e-07
-6.97746e-08
-2.03406e-07
4.43181e-07
-8.69399e-07
2.18369e-08
-0.00382641
2.70226e-07
5.43386e-07
7.11484e-08
-4.74611e-06
-2.28832e-07
3.29188e-07
-3.43571e-07
-3.82919e-07
3.9868e-07
1.36985e-06
-1.28311e-07
-9.93832e-07
1.20208e-07
-6.74005e-07
-8.20347e-08
5.77271e-07
3.06306e-07
9.28705e-08
-5.51311e-07
3.17321e-07
1.65559e-07
5.0121e-07
-0.112096
-9.90807e-08
1.07535e-06
-1.40614e-06
1.7269e-08
-1.59652e-08
-1.25368e-06
0.0194985
0.0029724
3.247e-05
8.53595e-08
-2.8048e-07
-3.74657e-07
-1.50391e-07
-4.86901e-07
-3.21492e-07
-6.57959e-05
-1.9875e-06
0.00191734
-4.65921e-07
-2.3101e-05
0.0199367
-2.8367e-07
-1.95518e-07
7.69883e-07
-2.21283e-07
0.00497812
-4.34775e-08
-1.19383e-08
3.32731e-08
4.63154e-07
-1.49731e-06
0.0205658
0.00766704
-5.64177e-07
-0.00364362
-6.59007e-05
-4.36836e-05
-1.11311e-08
-1.60422e-07
1.13039e-07
-0.00473521
3.50933e-08
0.000219047
-0.00748762
-5.44474e-07
2.66698e-07
-3.05475e-07
4.40898e-07
-4.95181e-07
5.28393e-07
1.36459e-05
-2.34499e-07
-1.19073e-06
-1.52434e-07
1.77423e-07
-6.32559e-07
3.51433e-07
1.15057e-07
2.17785e-07
0.00027605
9.5337e-08
-1.88753e-07
-0.114201
-3.2716e-07
-5.03072e-07
1.41485e-07
1.44263e-05
-9.75419e-08
-8.2966e-07
2.30787e-06
-1.85557e-06
-5.63136e-07
-3.13964e-07
0.000205287
5.65323e-07
0.0189199
-5.53861e-08
-3.207e-05
0.0688956
0.08106
-8.69313e-07
7.10785e-07
-1.83886e-06
8.56113e-08
-3.10117e-08
4.18333e-07
0.0223846
3.67193e-08
6.96061e-06
1.53234e-07
-1.10103e-06
0.000202471
-0.00012433
-2.42824e-07
-3.38517e-07
-0.0111667
-1.59822e-07
-3.32848e-07
-2.24649e-07
3.67887e-08
-8.72397e-07
9.44132e-08
4.66452e-07
-1.34711e-06
-9.18084e-07
-1.33573e-06
-0.012899
-1.63537e-07
5.21966e-07
-0.0670481
2.53457e-07
-4.24163e-07
-2.48767e-07
-3.28416e-07
-1.08931e-07
8.02492e-07
-5.31643e-08
1.69872e-07
7.11894e-08
-3.55783e-07
-1.87787e-06
-3.30686e-08
6.27898e-08
-3.24243e-07
-1.22439e-06
3.54927e-08
0.0205804
-0.0143592
-1.10889e-07
0.00266235
-2.21926e-07
4.24216e-07
-9.74664e-07
-1.62647e-06
0.00884939
2.72204e-07
1.94047e-07
-7.4636e-07
-6.27699e-07
7.34544e-07
-1.09015e-08
-2.83947e-05
-1.86296e-06
2.29385e-07
9.94382e-07
0.0165081
-0.0130854
9.64021e-08
5.24445e-07
-8.00344e-07
-8.3534e-06
6.27717e-07
-0.0273964
0.0367083
-5.87679e-07
-6.92596e-08
-4.61302e-08
5.19847e-07
0.0225445
-1.29907e-06
1.58798e-07
-1.71823e-06
9.33039e-08
2.22832e-07
1.03696e-07
-7.99818e-07
3.16793e-07
4.70025e-07
3.2684e-07
-1.53936e-06
-0.00991239
-7.48361e-07
-2.81907e-06
-5.38207e-08
-1.07937e-06
6.87122e-08
2.68868e-07
-6.9249e-07
-1.77303e-06
-6.78867e-07
3.36279e-07
2.14191e-08
4.17608e-07
-0.0124495
3.26749e-07
-9.59985e-07
3.26787e-07
-4.85335e-07
3.47305e-07
7.85981e-07
-4.78694e-07
-6.95491e-07
-6.24727e-05
0.075564
2.88805e-07
0.000180068
0.0711518
-0.00286672
-3.25727e-07
5.881e-07
1.20176e-06
1.03582e-07
-1.39464e-06
3.55758e-07
6.65812e-07
6.24846e-07
-5.57846e-07
6.29733e-07
-0.0734226
-3.83786e-07
-7.77061e-05
-1.84133e-06
4.51442e-07
7.89962e-07
2.81942e-07
2.45449e-07
-1.70043e-06
-3.61213e-07
3.37347e-07
-5.0233e-05
-9.4492e-07
8.19589e-07
0.0532978
5.18875e-07
-4.59635e-08
-5.75351e-07
2.57714e-05
-2.39897e-07
1.87911e-07
4.75783e-07
-5.18025e-07
-6.43288e-07
1.33346e-07
-4.8986e-07
-1.22585e-06
-0.000286133
-6.31744e-07
-1.49495e-06
-5.5412e-05
-2.24394e-07
6.33051e-08
4.97445e-06
4.86022e-07
-4.03827e-07
2.37867e-05
-1.72154e-07
-0.00122263
1.55896e-07
-4.77734e-07
-6.41582e-08
-2.10551e-07
-8.93453e-07
-3.87358e-08
-3.96249e-07
5.39497e-07
0.00609582
-4.58622e-07
-0.000744565
0.000137191
-5.02252e-07
-3.32692e-05
4.53175e-07
2.85392e-07
0.00897454
5.26278e-08
-9.6228e-08
-5.1525e-07
-8.93034e-06
-8.0423e-07
7.33654e-06
-1.2513e-06
0.000106736
-9.76368e-07
-0.0239383
-9.41504e-08
6.4447e-06
-9.9042e-07
4.85463e-07
-5.06076e-05
-1.252e-08
-0.00558647
0.0791181
-0.000101249
0.00224768
-3.34799e-06
-0.00829304
6.53644e-08
-4.751e-08
-3.00434e-07
-4.9369e-08
0.030647
-4.35211e-07
-1.49044e-06
5.50594e-08
1.37081e-07
2.55011e-07
4.93996e-07
1.03461e-06
-0.0233817
0.00426491
8.82458e-07
0.00279061
-4.20136e-07
5.50121e-08
1.76777e-07
-2.66061e-07
-0.0261804
-5.02333e-07
1.0183e-07
-7.10718e-06
-4.16295e-07
-3.66225e-08
3.67104e-07
7.39555e-07
6.8792e-07
-5.58755e-07
-1.84939e-07
-9.03908e-07
3.72468e-07
-2.9141e-07
-0.00366307
9.22265e-07
-1.6236e-06
0.00120377
8.30202e-06
-9.77947e-07
-5.9374e-07
0.00676539
-6.31113e-08
9.54865e-07
-1.84728e-07
-3.72709e-07
5.27757e-07
-1.29288e-06
-9.09871e-08
1.05806e-05
-2.51815e-07
1.75846e-07
8.1023e-07
-2.39418e-06
1.85047e-07
-1.11797e-06
7.3501e-07
-0.000318289
7.3454e-08
-3.07904e-05
-1.01652e-06
-1.44081e-06
-2.18186e-06
3.30411e-06
1.491e-08
-7.14448e-07
-1.72706e-08
9.84e-08
-2.2458e-07
-6.85955e-06
-9.80341e-09
-2.54181e-10
-1.06014e-06
3.07658e-07
-6.61875e-06
-1.87905e-07
-5.86094e-07
7.22236e-11
-6.97073e-07
0.00825367
3.49944e-07
-0.0144845
3.45732e-07
2.69846e-07
-3.76186e-06
-1.52751e-07
-1.4439e-06
-1.06046e-05
2.17955e-06
-5.13422e-07
-5.19386e-06
1.14013e-07
-8.24773e-07
7.6215e-07
-0.00917565
0.00269888
1.56037e-07
-1.98504e-07
-8.49392e-07
-5.23017e-08
-2.16938e-07
0.0189277
-5.84807e-07
-4.39051e-06
-1.07467e-06
-3.95495e-07
3.16429e-10
8.12313e-05
-8.05036e-08
6.84395e-07
1.09318e-07
2.42522e-08
7.34839e-07
-8.09501e-08
1.00027e-07
2.18727e-07
-0.00416273
-4.99601e-07
-3.92907e-07
3.81191e-08
-1.60109e-07
9.86298e-07
-0.000706993
5.52241e-07
-2.81903e-07
-1.10232e-06
4.47785e-07
-8.80148e-06
-1.77692e-07
-4.9271e-06
-1.70643e-07
2.42695e-07
-7.81777e-07
3.17648e-08
-1.76947e-06
-1.16098e-06
-2.8077e-07
7.91635e-07
0.00167588
3.61688e-05
-4.95031e-07
-6.34839e-07
-0.0115984
2.77585e-06
-1.86485e-06
-5.59098e-07
-5.63581e-06
-3.10404e-07
0.0414636
-1.03069e-07
-5.87548e-07
0.0130283
0.0411365
8.83278e-07
-1.3227e-08
5.86832e-07
5.0022e-07
0.0334091
5.47612e-07
-9.82817e-07
1.68274e-07
6.03583e-07
-9.1175e-07
-3.38732e-07
-1.03927e-06
-1.3508e-06
8.07969e-09
0.0657267
-2.74961e-07
-6.14653e-07
2.34685e-07
-7.95053e-07
-4.18762e-07
-9.77258e-07
-9.83948e-07
2.55358e-08
-1.43639e-06
-8.18071e-07
-0.000143803
1.05591e-06
-7.36964e-07
2.98269e-07
-4.6737e-07
4.70308e-07
-4.91948e-07
-1.18644e-06
-3.83372e-06
2.26969e-07
-4.57533e-07
-1.29572e-07
-1.32254e-07
-1.16225e-07
0.018734
1.07462e-06
-1.43011e-06
-3.77925e-08
1.24297e-07
-5.19388e-07
-3.83072e-07
1.37658e-08
6.14209e-07
-9.21998e-05
0.00398948
-6.66766e-07
-1.50543e-06
4.71147e-07
-1.53531e-07
-1.39687e-06
-3.83819e-07
1.12266e-08
-4.69241e-07
5.63208e-07
3.2676e-07
6.83696e-07
1.53188e-07
-4.6093e-05
-3.02856e-07
-8.32216e-07
1.36778e-07
0.0521436
-1.44599e-06
-1.05504e-07
0.0622889
-7.97559e-07
-8.37313e-08
-3.01464e-05
-1.08904e-06
-0.00597333
-4.03029e-07
-1.223e-05
-6.80184e-07
-8.23229e-07
-0.00230743
1.08829e-07
-0.000103743
-5.9755e-07
3.75924e-07
0.00397716
-5.153e-10
8.21097e-07
3.32862e-07
-5.98523e-06
-4.25474e-07
0.00478747
-1.03458e-06
0.00649354
6.32441e-07
-9.31472e-07
4.58906e-06
-5.75252e-07
1.11253e-06
-1.97834e-07
-2.56943e-08
-3.10692e-07
-1.15882e-06
-1.5318e-07
2.16233e-07
8.90113e-08
-9.11428e-06
0.00540129
-1.126e-06
2.10512e-07
-2.56935e-07
-0.177746
-3.9959e-07
-9.32294e-08
-3.87379e-07
0.0313678
-1.04524e-08
-1.27868e-06
3.14374e-07
-1.17031e-07
3.97232e-07
6.76479e-08
5.25712e-08
4.14756e-08
-1.39081e-06
-0.00965491
-0.00365731
-2.38838e-06
5.63368e-07
-8.73747e-07
-2.10661e-06
-2.09461e-07
2.80711e-07
-1.55822e-07
-4.94372e-07
-0.00498264
-3.45081e-07
2.63503e-08
3.18141e-07
-0.0203753
-1.52224e-06
-1.68987e-07
0.00013977
6.22096e-05
9.84087e-07
-1.03483e-06
1.60647e-07
6.17729e-07
1.0778e-07
-3.95721e-07
0.0519828
-9.68317e-07
-7.97252e-07
3.29331e-07
-2.01026e-06
-7.38086e-07
-6.79883e-07
-1.51557e-07
4.72226e-07
-1.04077e-06
-1.11911e-06
-6.98461e-07
2.00311e-07
-1.45956e-06
9.37556e-07
2.07572e-07
0.00464333
0.010415
-8.41857e-07
-2.05481e-07
1.92651e-07
-4.79334e-07
-0.01021
-5.28768e-07
2.92843e-07
-7.0035e-07
8.83261e-08
1.42766e-07
6.51808e-07
0.0108282
-1.91318e-07
-0.00184292
-3.6989e-07
-1.00589e-06
4.3196e-08
-7.81095e-05
7.0538e-07
2.31024e-08
-0.0170118
-7.01253e-07
3.0377e-07
-0.00547582
1.32952e-07
0.0128716
-6.10553e-07
-8.69917e-07
-0.0499259
-7.1053e-07
5.73144e-07
-1.23776e-06
0.0057236
-8.51248e-07
-1.4022e-06
8.70512e-06
-2.09029e-07
-1.73998e-07
1.37866e-07
-0.0412821
-1.92655e-06
0.0814396
0.00524356
-3.00468e-07
7.88553e-07
-1.51419e-07
1.00307e-05
-4.33273e-07
-4.01192e-07
7.38601e-07
-8.33391e-07
8.48427e-07
2.51645e-07
5.54531e-07
4.5235e-07
1.79676e-07
0.0256128
4.23479e-08
0.012664
-1.57295e-07
-1.8978e-06
-5.47965e-07
-1.58118e-06
-1.03185e-06
0.0618215
-0.00446943
1.90497e-07
2.60202e-07
-1.3021e-07
7.49444e-07
-7.18045e-07
-1.17376e-06
2.07085e-06
-6.82351e-07
-1.21265e-06
0.00243524
-0.0216244
-2.29665e-06
3.7072e-07
-8.06745e-07
-2.72919e-07
-3.53891e-07
-8.87748e-07
-0.0100158
2.65293e-07
-3.59747e-07
5.97443e-07
-0.0149559
8.8817e-08
-0.000396234
2.45044e-07
6.39047e-06
7.45875e-07
0.00250531
-9.92838e-07
-2.85726e-07
-2.01565e-07
8.26126e-08
-1.90267e-06
4.52914e-06
4.44513e-07
5.69844e-07
-0.000214986
-1.42583e-06
1.7975e-07
-7.78967e-07
3.02266e-07
-2.21556e-06
-5.55137e-05
-5.72073e-07
-1.5e-06
-1.91049e-07
1.78718e-07
0.0163128
-4.36477e-05
-4.11162e-07
-2.42601e-07
-9.23236e-07
-6.94673e-06
0.0677941
1.41553e-08
0.0592586
1.9567e-07
-2.86233e-07
-0.00885381
-2.04756e-07
0.0712852
0.0251761
-1.61825e-07
-2.63967e-07
-0.000117311
6.30554e-07
7.23021e-08
4.8356e-07
-0.00147212
-8.10498e-07
-1.23015e-06
-0.00162343
-0.00072778
-1.82494e-06
-1.06447e-06
-2.43806e-07
-7.45556e-07
0.00646858
-1.31171e-07
-8.38745e-07
-0.00991747
-2.45842e-07
-2.73767e-07
-1.97774e-08
0.00577175
-0.00198511
-8.58388e-07
3.70593e-07
-9.24296e-07
2.60027e-07
-0.000369429
4.62719e-07
5.00113e-07
0.00104298
0.0360339
2.70752e-07
5.52827e-06
-3.6616e-07
0.00467092
-3.71359e-07
-9.66208e-07
-5.6331e-07
-0.000279504
3.64784e-07
-8.92698e-07
-0.00420512
0.052852
-3.63536e-07
2.8731e-08
-9.33008e-07
-4.35934e-07
-0.0149222
1.58755e-06
0.0634323
-1.45764e-05
1.20666e-07
-6.10005e-07
0.0591588
-1.17867e-06
2.81125e-08
-1.24547e-06
0.000437721
-0.0081891
-0.000251809
0.00990248
0.0240343
0.000576506
2.73486e-07
1.74714e-07
6.88591e-07
4.78084e-07
0.0196398
-0.000191026
-4.01293e-08
-0.0010614
5.82348e-08
-1.50719e-07
-5.6231e-07
-5.03512e-07
-5.70028e-07
0.041409
-3.82237e-07
-6.41635e-05
-5.52505e-07
-2.91757e-05
-2.8572e-07
3.57138e-05
-0.000557242
-2.73037e-07
-1.00764e-06
-4.01167e-07
-1.73671e-07
-7.58338e-07
-5.12007e-07
4.68818e-07
0.0171272
-6.4561e-07
-8.69747e-07
-8.4744e-05
-9.48374e-07
-0.0123713
-8.57266e-07
-0.0157705
-1.26097e-07
-6.94379e-07
-8.31304e-08
4.05229e-08
-7.74367e-07
-3.56917e-07
-0.0118499
-1.61463e-08
-1.25284e-06
0.00498715
3.69712e-07
0.0290228
1.01965e-08
0.0703905
-0.0189492
-0.00997323
1.71482e-07
-2.71653e-08
-4.632e-08
-0.0370187
6.47867e-07
-9.20269e-07
-4.10323e-07
-1.89285e-06
0.00474292
-8.22231e-07
2.26488e-07
5.41843e-07
1.30856e-07
0.00644657
0.0347246
-3.08331e-07
-1.27267e-06
0.0503414
0.0725076
-1.45209e-06
0.0271295
-5.616e-07
0.0531325
0.03811
-2.79981e-06
-5.35318e-06
1.92549e-05
-4.10374e-07
-0.00693519
-4.60208e-06
4.24027e-07
2.23563e-07
-8.10871e-07
0.0590374
0.0532122
-3.90922e-07
-7.02604e-08
-0.0113564
-1.74733e-06
-0.0178068
-2.80047e-07
-6.60233e-08
-1.37687e-06
0.00105935
-3.92799e-06
-1.17914e-07
0.00914323
-1.68366e-08
0.000307089
0.0125273
-9.08301e-08
-7.93748e-07
3.71806e-06
-3.19506e-07
-1.16516e-06
-8.12451e-07
-0.00504027
-1.67673e-07
-2.71583e-07
7.0484e-07
0.0625974
4.18606e-07
-3.66618e-07
3.05816e-07
-0.012118
3.65727e-07
-6.60791e-07
-1.15879e-06
-0.00914531
-0.00164872
9.20879e-08
-6.98038e-06
1.21367e-07
1.857e-07
-5.55588e-07
-0.0080849
-1.35389e-07
-4.26495e-07
-1.11178e-06
-3.96928e-05
-1.08276e-06
0.00260108
0.0242889
-5.58367e-07
0.00199887
0.000346085
2.21043e-07
-3.31357e-07
-0.0110087
-1.13223e-06
0.000507272
8.80568e-07
0.000115019
-6.82416e-07
-2.2343e-07
1.87555e-07
7.85609e-08
4.88268e-07
3.41304e-07
-5.12695e-07
0.00507151
8.57317e-08
0.00758311
-0.0339033
-3.59977e-08
-1.60266e-06
-3.93861e-07
0.0420505
-2.18037e-08
-7.23341e-07
-6.51156e-07
0.00817556
-0.000242801
0.0253851
-0.0136608
5.32385e-07
5.43271e-07
-9.79601e-07
-6.41886e-10
3.7629e-07
-0.000167692
2.26178e-07
2.27496e-07
0.00150557
3.66122e-07
1.66314e-08
-2.18722e-06
-5.16426e-05
1.84478e-06
-5.69392e-07
-3.41229e-07
-5.63556e-05
2.33973e-06
-0.0773744
6.57258e-07
2.52145e-07
3.12234e-07
-1.23097e-06
-4.29012e-08
4.79763e-07
3.78253e-07
-2.71395e-07
-8.79941e-07
6.86997e-07
-1.33741e-06
4.33722e-07
1.48636e-07
5.22412e-07
-3.33282e-07
-4.00676e-07
-1.80146e-07
4.33869e-07
-2.37674e-07
8.02907e-07
-6.58247e-07
4.45956e-07
-9.28818e-07
-1.45811e-05
-2.72676e-07
-9.01719e-08
-0.000131119
-7.79649e-05
-0.0145225
-0.00983246
-3.01841e-07
-2.17617e-07
5.21797e-09
0.00283292
-6.85133e-08
-9.14331e-07
7.22822e-07
-0.076217
6.16933e-08
4.40111e-07
3.66907e-05
9.3319e-07
1.24381e-07
-8.38225e-08
1.1605e-08
-2.7373e-07
-3.42615e-07
-2.669e-07
-5.26296e-07
-3.88285e-07
5.84471e-08
6.68003e-07
-5.28372e-07
7.18776e-05
-3.73209e-07
-8.84035e-07
3.54062e-07
-1.10841e-05
-7.26667e-08
4.30419e-07
2.04498e-07
-0.00477876
-2.3687e-08
3.60668e-07
-1.33396e-07
-8.35403e-07
-9.50129e-07
9.75523e-08
-4.07413e-07
0.000128599
2.31352e-07
-4.90696e-07
2.21553e-07
-4.30995e-07
-1.52021e-07
-3.58054e-07
1.574e-07
5.0544e-07
2.489e-07
-5.95079e-07
3.84449e-07
-0.00337648
-6.62499e-07
3.2754e-07
3.3109e-07
0.0248533
-7.95698e-05
5.76554e-08
-2.02197e-07
5.58404e-07
-8.26955e-07
6.54158e-07
-8.55507e-08
0.00600994
-5.8803e-07
3.69758e-07
-5.88806e-07
-2.47938e-07
-1.76929e-05
4.72402e-09
-0.000432628
1.07485e-07
-1.09077e-06
-3.69776e-07
1.95259e-07
0.000402784
0.0774947
9.3072e-06
-4.6401e-08
2.99996e-07
-5.94034e-07
-8.5056e-07
0.000797247
1.46233e-07
-8.99066e-07
-9.87634e-07
7.32079e-08
1.49372e-06
-2.01643e-05
-2.64178e-07
0.0848893
8.19183e-07
4.71755e-06
2.19149e-07
5.88901e-07
-5.74129e-07
3.69315e-08
-1.50841e-06
-2.51404e-07
3.00037e-07
-0.0130571
3.28222e-07
6.71644e-07
-8.00558e-08
-0.000182111
7.40155e-07
-8.86215e-05
-1.06812e-06
0.081709
1.94804e-07
-7.53248e-07
1.68195e-07
-4.62622e-07
6.3683e-07
4.22104e-06
8.28854e-07
6.13328e-07
-1.06783e-06
1.19115e-07
1.47898e-08
0.0166784
-5.79088e-08
7.58405e-07
-1.48375e-06
4.51784e-06
1.01269e-06
-1.46465e-08
-5.93723e-07
-0.115188
-0.0021611
5.98676e-05
9.18501e-06
-1.33737e-05
-5.45576e-09
-3.04479e-07
3.20265e-07
-1.08867e-06
-7.97391e-07
0.0120411
-3.55929e-07
-1.04006e-06
4.37686e-07
-4.07768e-07
-9.49138e-07
6.16271e-09
1.34005e-07
3.86213e-07
3.76227e-06
3.40267e-06
-8.55506e-07
-2.94832e-07
-4.43224e-08
0.0358363
-1.05935e-06
7.5621e-07
-0.0116837
-0.000570567
-1.12114e-06
-2.18681e-06
-2.65676e-07
1.8088e-07
9.61284e-08
-4.47134e-07
-0.00159379
-1.21318e-07
0.0307236
-1.42539e-08
0.00274416
-4.00009e-07
-8.90814e-08
-1.3375e-06
-2.45038e-07
4.04051e-07
-1.01126e-07
6.86159e-07
-0.000118147
-6.37445e-07
1.16091e-05
2.84435e-07
-5.98202e-08