/*--------------------------------*- C++ -*----------------------------------*\
| =========                 |                                                 |
| \\      /  F ield         | OpenFOAM: The Open Source CFD Toolbox           |
|  \\    /   O peration     | Version:  v2012                                 |
|   \\  /    A nd           | Website:  www.openfoam.com                      |
|    \\/     M anipulation  |                                                 |
\*---------------------------------------------------------------------------*/
FoamFile
{
    version     2.0;
    format      ascii;
    class       volScalarField;
    location    "800";
    object      p;
}
// * * * * * * * * * * * * * * * * * * * * * * * * * * * * * * * * * * * * * //

dimensions      [0 2 -2 0 0 0 0];


internalField   nonuniform List<scalar> 
10042
(
0.0265026
0.0233524
0.00695682
0.0123159
-0.841513
0.0228424
-0.269544
-0.101113
0.00946048
0.0207887
-0.881006
0.0120573
0.012722
0.0121804
0.0582985
0.0228229
0.0229456
0.0205639
0.0263044
0.247334
0.0194667
-0.0572282
0.0127964
0.0140966
0.0232324
-0.0185765
0.0219137
0.0326867
0.013953
0.0271515
0.0239774
-0.386229
0.0207297
0.0157244
-0.0152817
0.0143151
-0.0176951
-0.0128394
0.0143788
0.0212407
0.267551
0.0518548
-0.278677
0.0324048
-0.837255
-0.026993
0.0443053
0.00421282
-0.0182835
0.0143959
0.0201314
0.00705277
0.0575303
0.00555549
-0.0185273
0.0228702
0.0135097
0.0436663
0.0153467
0.0559815
0.0236024
0.0245271
-0.0164888
0.00730171
0.0492115
0.0137385
0.0422921
0.229618
-0.378884
0.0264912
0.00592138
0.275796
0.0331396
0.134973
0.0406479
0.0140166
-0.862527
0.0261853
0.104849
-0.285547
-0.0167101
-0.781187
0.0232036
0.0492883
0.0421402
0.021347
0.0263927
-0.191067
0.0352894
0.0262232
0.00825207
-0.783178
0.0319826
0.00711225
0.0278668
0.0176431
0.0239655
0.0208741
0.0212122
0.0112661
0.020496
-0.179538
-0.116901
0.021319
0.0368829
-0.0334477
0.0279539
0.0240233
0.019453
0.0101802
0.0158421
0.0231896
0.000460591
-0.345564
0.0481591
0.024587
0.0277154
0.0263998
0.0172586
-0.4133
0.0350096
-0.101614
0.0305116
0.0250984
-0.174561
0.0236824
-0.0982606
-0.0234558
-0.02509
0.0260376
0.106778
0.0396393
-0.796998
-0.103672
0.0117126
-0.0887412
-0.391301
0.00810876
-0.000309982
-0.204472
0.0413
0.0279644
0.0400795
-0.227111
0.00744871
0.0232631
-0.100221
0.00949722
0.0209994
0.0190378
0.0085965
0.0202872
-0.262959
-0.516749
0.0216418
0.0126855
0.0574853
0.0247135
-0.0891849
-0.403527
-0.757937
-0.110549
0.0249877
0.00876512
0.0210565
0.0389468
0.0441341
-0.392887
-0.37722
-0.534372
0.00510457
0.0207011
-0.7218
0.233869
0.0957945
-0.140762
-0.113582
0.0315096
0.238041
-0.0236261
0.0594723
-0.390026
0.0435459
-0.0223788
0.051642
-0.399468
-0.146053
0.0150536
-0.60879
-0.00498485
-0.0320996
0.041366
-0.311464
-0.679319
-0.0731122
-0.524469
-0.0110504
0.0270563
0.012799
0.00865556
0.115126
0.0143772
0.0223386
0.209195
0.0435194
0.0140715
-0.0872192
0.0219356
0.0207336
0.0216314
-0.472415
0.0118986
0.0504768
-0.099379
0.0563938
-0.152584
0.0379282
0.0225708
-0.117759
0.0184825
-0.00194252
0.0596989
-0.185018
-0.01305
0.0712432
-0.0185585
-0.098448
0.0239269
-0.149765
0.00597683
0.0091443
0.12235
0.0208517
0.00624856
0.00674294
0.0167267
0.0151346
0.011755
-0.00215249
0.00613982
0.0249047
0.0314122
0.0210524
0.000671233
0.0242495
0.0239356
0.0140571
0.0365912
0.00535579
0.0205236
0.0127402
0.0260055
0.0345559
-0.19937
-0.116669
-0.579606
0.101965
0.0831907
0.0589077
-0.0317285
-0.174289
-0.00127797
0.0277044
0.0119153
0.0101722
0.0152053
-0.0577338
0.00163094
0.0263241
0.0216223
0.123119
0.00523174
-0.105007
0.0883166
-0.235644
-0.00556038
0.00675661
0.0156167
-0.00453498
0.0072505
-0.026728
0.0323123
-0.0194297
-0.808448
0.0142272
0.00832526
-0.179091
-0.0311338
0.0151004
0.0235992
0.0339383
-0.114093
-0.0760982
-0.235083
0.0201431
0.0127378
0.023845
0.00942886
-0.0962463
0.0289217
0.0236908
0.021207
0.0376291
-0.00602621
0.0529289
-0.0956307
-0.362019
0.0547029
-0.099555
0.0240777
-0.00390606
0.0220539
-0.512092
-0.178172
-0.570519
-0.0772081
0.0136798
0.00174837
0.0263338
0.0453518
-0.0197632
0.0212733
-0.0194674
0.0156565
0.0113985
0.0323242
-0.102798
0.0216247
-0.00365712
0.038192
0.0511914
-0.179758
0.0243862
0.0217247
0.0193984
0.00759008
-0.0462376
-0.0710804
0.0751388
-0.130078
-0.00792975
-0.0198437
0.0389115
0.0120046
0.00591559
0.0206075
-0.126364
0.0322487
0.014179
0.0354384
0.0227545
0.0424712
0.0497073
0.0350498
0.0065765
0.0698435
-0.0227083
-0.0154432
0.00724802
0.0274233
-0.121534
-0.105578
0.00357313
-0.0453408
0.0222709
0.0207407
0.0221232
0.0444884
-0.49002
0.00380188
0.0211206
0.0531934
0.0206542
0.0216347
0.232842
0.0270757
0.0113256
-0.396567
0.0189469
-0.136442
-0.115435
0.134396
-0.102712
-0.514577
0.0216609
0.140436
0.0217877
0.0135666
0.0216118
0.0437436
0.0490634
0.0218811
0.0472035
-0.0973109
0.0126802
0.0195756
0.202026
-0.000679035
0.0140234
0.00969692
-0.379503
-0.184999
0.0208142
0.233683
-0.214896
0.0182643
0.0211198
0.0129012
0.0255945
0.0115187
0.0141913
-0.105495
-0.112563
0.0444157
-0.4229
0.0122977
0.0286945
-0.381079
0.00537078
-0.12995
-0.0800269
0.0506163
0.0108233
0.00981254
-0.0839929
0.00496512
0.0251354
0.0320877
-0.882277
0.0545813
-0.629493
0.0558932
0.0208332
0.0244685
-0.268619
0.021059
0.0931514
0.0276822
0.00683871
-0.401771
-0.0123864
0.028414
0.0154864
-0.376627
0.0258517
-0.0135816
0.0130045
0.0155138
-0.404498
-0.132677
0.0195022
0.0466013
0.00333585
0.0128405
0.0229255
0.025346
-0.384438
0.0242302
0.0120605
0.0490111
-0.109616
-0.104318
0.0206915
-0.0233812
-0.14075
-0.0053951
0.0279728
0.0270858
-0.109568
0.00393097
0.0207599
0.105854
0.00898192
0.0143216
0.0615595
0.0126263
0.0540002
0.0283
0.021205
-0.864885
0.0170298
0.00552825
0.0216588
0.0312338
-0.0210197
0.0195408
0.00794424
-0.541903
0.0294211
-0.141153
-0.00100327
0.0205299
0.0204561
-0.201911
0.0323188
0.0283035
0.0196177
0.00342618
0.0677703
-0.2369
0.0261475
0.0604932
0.0585499
-0.0035742
0.0209202
0.0265904
0.00600031
0.021437
0.0245596
0.0305109
-0.395573
0.0218353
-0.0224921
-0.0024778
-0.00222497
0.0413989
0.0147771
-0.0945669
-0.0906162
0.0286862
0.0109675
0.00565042
0.00568083
0.0191049
-0.783861
-0.0347421
0.00329326
0.0141871
0.0163839
0.0394121
-0.100198
-0.0122922
0.0217405
-0.388997
0.0290932
-0.0853624
-0.0411664
0.0228397
0.0117981
0.0260199
-0.0895185
-0.0121202
-0.386139
0.0702897
0.0957433
0.0211225
-0.00299227
0.0460504
0.0211524
-0.808379
0.0139103
0.0241522
-0.0171708
0.0214615
-0.0268534
-0.000126511
-0.0618979
0.0102358
0.021646
0.000624964
-0.0163196
0.0155463
-0.0435172
0.0328772
0.0216039
0.0177777
0.0084605
0.0183715
0.0207627
0.00580118
0.0230557
0.0716351
-0.101762
0.152451
0.0215083
0.0303027
0.0195609
0.029482
0.15794
0.0195599
0.0158486
-0.0501574
0.0127451
-0.0917801
0.0393455
0.0236934
-0.372417
-0.0343282
0.0216294
-0.181901
0.00602656
0.0207813
0.037885
0.0254499
0.0215793
-0.00499379
0.0400119
0.0228367
0.0397148
0.0263894
0.0121737
-0.024827
-0.0298685
0.0251945
-0.00132064
0.0121259
-0.0108514
0.0353032
0.0127272
0.0111197
0.0639265
0.0100695
0.0219572
-0.170194
0.0131216
0.16036
0.0256798
0.00215879
0.0166998
-0.0227218
0.0216402
-0.0371533
0.0143285
-0.180412
0.0216524
-0.232246
0.00945255
0.0517077
0.02137
0.0388738
0.0223183
-0.00422316
0.0232993
0.281399
-0.354309
-0.0171998
-0.00489463
0.0711617
0.0215625
0.0367718
-0.0239314
0.0206081
0.100544
0.0338385
0.00198548
0.0407338
-0.516301
-0.0186745
0.0295711
0.0212777
-0.00298998
-0.00537024
0.0132983
0.0137649
0.00506206
-0.118673
0.0202695
0.0293907
-0.00160785
-0.0635071
0.0499849
-0.0204863
0.0289395
0.0215979
-0.309429
0.0139927
0.0207022
0.0260475
0.0089379
-0.496007
-0.0172255
-0.055794
0.0196803
-0.337298
-0.357248
-0.114088
0.0118777
-0.0297025
-0.139327
0.0104101
0.0381616
0.0280876
0.108378
-0.646989
0.0207318
0.0504902
-0.0232874
0.028695
0.0216838
0.0187539
0.0374526
0.0224502
0.00629742
-0.191606
-0.535316
0.00656158
0.0224294
-0.821105
-0.421551
0.0219634
0.0274862
0.0201438
0.0259194
-0.390081
-0.0130222
-0.076828
0.0384372
0.0218133
0.00859258
0.0605563
0.0234
-0.0176905
0.0514844
-0.40438
0.0231924
0.0206681
-0.0242773
0.0206731
0.00459168
0.103106
0.00109692
-0.372799
-0.0188172
0.0306309
0.0245432
-0.0712907
-0.860141
0.0304575
0.00638135
-0.0958312
0.168222
0.090294
0.0373958
0.0194272
0.0195745
-0.125611
-0.00453355
0.180554
0.0208752
-0.211523
-0.473618
0.0263502
0.0245105
0.274278
0.0220237
0.0165333
0.0285502
-0.962851
0.0487933
-0.180637
0.00559188
-0.0426139
0.0117836
0.0145992
0.0165922
0.021519
-0.132271
0.0209075
0.0265773
-0.0392495
0.0409677
-0.113471
0.0200053
0.0223402
0.015534
0.0214043
-0.101355
0.0209478
0.026194
-0.0432003
0.0634631
0.0737454
0.0215513
-0.138291
-0.469152
-0.167572
0.0526086
-0.420981
-0.40509
0.0283926
0.0128862
0.0414776
0.0656848
0.0616835
0.0115253
0.0207077
0.0210094
-0.361756
0.0366841
0.00592527
0.0206785
0.0281682
-0.0517705
0.0168607
0.0173478
-0.0106357
0.0378407
0.0214424
0.0107961
0.0796738
0.00862753
0.0344862
0.0230635
0.0293059
-0.227712
0.0215235
0.0462253
0.0226194
-0.00996662
0.178066
0.0208309
0.0714788
-0.00275354
0.0684918
0.0129798
0.00760324
-0.00895774
-0.141111
0.200648
0.0513884
-0.551679
-0.143356
0.0536472
0.0152905
-0.105985
0.0221591
0.0212218
0.0165133
0.0211721
-0.0726524
0.0202377
0.0216114
0.113798
0.0115966
0.012724
0.0883776
0.0591436
-0.361088
-0.0013303
0.0477888
0.0256308
-0.0209714
0.0305236
-0.0250051
-0.00709605
-0.807942
0.0209704
0.00434893
0.0200053
0.0289608
0.0329478
-0.0573655
0.138281
0.0191311
-0.721108
0.0209029
-0.256998
0.00567316
0.0134213
0.129919
-0.0276638
0.00978973
0.0247278
0.070816
0.0686615
0.0142764
0.159972
0.0206952
0.0134676
0.0206118
-0.0439569
0.0222735
0.0208744
0.016875
0.0159768
0.0220915
0.0226526
0.0118538
0.0225732
0.02191
0.0537084
0.0265142
0.0834888
0.0245489
0.0585537
0.0262843
-0.337787
0.109029
-0.0577858
-0.0465929
0.00422296
-0.375026
-0.0323028
-0.0682261
-0.103412
-0.0512141
0.0210541
0.0210891
0.0261102
-0.23612
0.0192644
-0.800956
0.0241504
-0.328701
-0.23183
0.0270441
0.000165236
-0.389422
-0.150655
0.0662625
0.0253657
0.0214359
-0.00178241
0.0133348
0.0149228
-0.0803004
0.055228
0.0224165
0.0197854
0.052018
-0.27792
0.0276997
0.0221076
-0.00117343
-0.111685
0.0315601
0.0223783
-0.764491
0.0381919
0.0286999
-0.174898
0.0316671
0.0366846
-0.388295
-0.22561
-0.369135
0.0296485
0.0461887
-0.140837
0.016804
0.014511
0.0216021
0.00577144
0.0235833
0.0199771
0.00639682
0.193474
0.0441139
0.0190093
0.0357438
0.0218693
0.0146115
0.04013
0.0139666
-0.136082
0.0251295
0.032073
0.0253021
0.0181636
0.0202346
0.00767524
-0.967206
-0.0164809
0.00962379
0.0274386
0.146168
-0.0220393
0.0230444
0.0201961
0.023322
0.00991327
-0.561986
0.0167053
0.0134734
0.0197403
-0.0259265
-0.0249901
0.0211105
0.0216312
0.033114
0.00814549
-0.00522476
0.04032
-0.181567
-0.0352331
0.023033
-0.0120389
-0.691194
0.0645227
-0.0569709
0.00605656
-0.130869
0.0210703
0.00602226
-0.00982123
-0.0101061
0.0311289
0.00781564
0.0215328
0.00271927
0.17928
-0.0550433
0.0258763
0.00097976
0.0194703
0.0365943
0.0317145
0.032861
-0.172486
0.0311537
0.0147414
0.0252328
-0.0195965
-0.472251
0.0192925
0.0218986
-0.0708125
0.00823879
0.021601
0.0283366
-0.0651989
0.00122578
-0.00597958
-0.376862
0.031676
0.0216905
-0.518812
0.0201186
0.0421124
0.0181809
0.00538785
0.00249436
0.0381373
0.0209319
0.00604283
-0.00319316
-0.596893
0.0273505
0.0206055
0.0665173
0.0698037
-0.0905807
-0.805385
-0.0290313
0.0212401
-0.354064
0.00720507
-0.422427
0.0218479
0.0203476
0.0116586
-0.38146
0.02125
0.0409476
0.0212037
-0.0212377
-0.551947
0.0182232
-0.0822262
0.0309993
0.0207262
-0.0493363
-0.0175987
0.0200913
-0.00862774
0.0289477
-0.215229
-0.76495
0.022209
0.0630003
0.0216001
0.0146366
0.0220959
-0.367924
0.0249844
0.00910708
0.0133026
0.00799268
-0.00546389
0.0203349
0.0251215
0.0392711
-0.0944887
-0.057312
0.0160971
-0.00833141
-0.00138862
0.0161621
0.00845101
0.0930714
0.00987743
0.0380176
0.0672667
0.00176448
0.0203566
0.0200373
0.059945
0.011187
-0.219471
0.00766248
-0.116097
0.0422788
0.0237382
0.00762282
0.0319645
-0.0175982
0.0181985
-0.00859689
-0.0619013
0.0415055
0.018471
-0.0104623
0.0202238
-0.420372
-0.0396458
0.0147896
-0.623594
0.0648264
-0.0183865
-0.119241
0.0182858
0.00504037
-0.375591
0.00547783
-0.04887
0.0081036
0.00211921
0.0202185
0.036136
-0.015807
0.0159395
0.180042
0.02593
0.0388927
-0.0633146
0.0270456
-0.0248822
0.00497698
0.0217675
0.0237104
0.106865
0.0661015
0.0110859
-0.0194141
-0.793817
0.17536
0.00878582
0.00422835
0.0204263
0.0157395
-0.655655
0.0209743
0.017503
-0.0611769
0.0293648
-0.00429593
0.0132839
0.0231166
-0.346856
0.015191
0.014215
-0.00186278
0.0300539
0.00949708
0.0202879
-0.640494
0.0418078
0.0206991
0.0109966
-0.0304684
0.0524592
0.00959703
0.0293568
0.0355525
0.0349382
0.0316559
0.0153603
0.022369
0.017483
-0.0404924
-0.0552888
-0.0146755
0.0674926
-0.0710354
-0.0668525
0.097483
0.0981568
0.0536702
-0.0405098
0.0348978
0.0175053
0.0194171
0.0202474
0.0537452
0.0183259
-0.450269
-0.870012
-0.0910594
0.0209815
-0.00314178
-0.00612768
0.0112322
0.165939
-0.00963195
-0.278413
-0.00578072
-0.94922
-0.0703943
-0.0595301
0.0624217
0.00919655
-0.000711964
0.00545452
0.0174959
0.0445471
0.00614289
0.0912698
0.0199589
0.0313072
0.0235155
-0.702248
0.023892
0.0206992
-0.372286
-0.357419
-0.00680939
-0.0598074
-0.112439
0.0143088
-0.951879
0.0309035
-0.076267
-0.855594
0.0207947
0.0310734
0.0205457
0.0538937
-0.00254286
-0.0428266
-0.0970153
0.0208393
0.023641
-0.00769227
0.00407313
0.0199365
0.0245179
0.0214337
0.0232899
0.0596378
-0.103664
0.0234798
-0.116061
0.00178358
0.0212242
0.0696455
-0.207165
0.027906
0.016665
-0.114053
-0.223192
0.00987513
-0.00168639
-0.436439
-0.0769369
-0.943221
0.0187954
-0.030796
-0.334731
-0.627023
0.0220524
0.033027
-0.0161785
0.0540531
-0.0273051
0.0392993
-0.92392
-0.0623526
-0.156621
0.0302647
0.0200779
-0.377422
0.0470778
0.0221334
0.0210349
-0.598875
0.0289821
0.0107983
0.00786476
-0.00379014
0.0207366
0.095768
0.0406416
-0.00233156
0.0137169
-0.0189019
-0.356947
-0.080526
-0.0409756
-0.197395
-0.115657
0.0133568
0.0159754
0.0164936
0.0202309
-0.208092
0.0992662
0.00633832
0.0299747
0.0258043
0.0140523
0.069751
0.013782
0.0837503
-0.0028876
0.0214565
0.015082
-0.667618
0.0214101
-0.0322519
0.0522807
-0.0306497
0.0213074
0.0130427
-0.372122
-0.108846
0.0203681
0.0164319
0.0284965
-0.0158329
0.0210183
-0.0241399
0.0122133
0.0232314
0.0173517
-0.294716
-0.670317
0.0101246
0.0399405
-0.139115
-0.0768794
0.0720443
-0.338927
-0.863115
0.00805355
0.0205677
0.0434217
0.0480743
0.0438044
0.0236722
0.0208764
-0.239239
-0.136858
0.0213189
0.0271153
0.247777
0.0207843
0.0229727
-0.186712
-0.0643208
-0.573642
0.0200451
0.0358074
0.1001
-0.0277379
0.0644387
0.0318006
0.0245541
0.0120967
0.115934
0.0268258
0.024519
0.00858036
-0.686179
0.011688
0.0216202
0.0113692
-0.0607101
0.0236361
0.0205553
0.0116853
0.0244154
-0.380863
-0.653653
0.0444398
-0.0838126
-0.588082
-0.841505
0.0260333
0.0364409
0.0206003
0.0282408
0.0221863
0.0221636
0.0141299
0.0205081
0.017616
0.0703953
-0.24232
0.0189449
-0.000818848
-0.00883748
0.0222433
0.04992
-0.008801
0.043746
0.0227826
-0.0130007
-0.00185763
-0.433936
-0.0321336
0.0100814
-0.6585
0.0260352
0.0112911
0.0154672
-0.0998889
-0.0452382
0.0606396
0.00266092
0.0221121
0.0221472
0.0889316
-0.0290961
0.00514114
-0.0721653
0.0222159
0.0195049
-0.342213
-0.00358212
0.0239549
-0.10193
-0.0012971
-0.0358465
-0.100538
-0.110941
-0.393746
0.020148
0.00825955
0.0209985
0.0230356
0.0217611
0.00821561
-0.0397834
0.021688
-0.351177
0.0213252
-0.0490235
-0.294563
0.0044249
-0.318896
0.0380292
-0.137377
-0.368673
0.0202721
-0.082111
0.00945368
0.106062
0.0208387
-0.0920247
0.0249095
-0.153504
-0.000511168
-0.741436
0.0204891
-0.0928599
0.00882124
-0.00202751
-0.0848109
0.0203314
-0.409121
-0.619122
-0.0111127
-0.335709
-0.0571707
-0.842989
-0.0496631
0.0242138
-0.00775555
-0.0641298
-0.13361
0.0220025
0.0194336
0.00528934
-0.0777782
0.03708
0.0411128
0.0332648
-0.364547
-0.450574
0.0328783
-0.346412
0.00541853
0.0164675
-0.023419
0.0455129
-0.592208
-0.00795148
0.0168266
0.215364
0.0223925
0.0206041
0.0207947
-0.197167
-0.0696664
0.0101183
0.0561774
0.0213588
0.0208249
0.0176827
-0.428842
0.0215553
0.017572
-0.0981367
-0.0922546
-0.00669327
0.0145037
0.0723946
0.0649017
0.0478109
0.0285812
0.0796879
-0.00173229
-0.00468154
0.0171367
-0.0799128
-0.0236404
-0.0647157
0.0102086
0.00984287
0.011757
-0.0027492
0.0430501
-0.135905
0.0202511
-0.0361382
0.025679
0.0216582
0.00979666
-0.0885933
-0.00384418
-0.0119132
0.0214754
0.0501338
-0.0605693
0.000954257
0.0326633
0.0210209
0.0194051
0.100262
0.00990563
0.0241733
-0.0402776
0.0224502
0.0257323
-0.775177
0.0286921
-0.658205
0.0347952
0.0932152
-0.0200786
0.0302443
-0.0137645
0.0310722
-0.12137
0.025825
0.012061
0.00145073
0.0215462
0.0314514
-0.411787
-0.425581
0.0263777
0.0291437
0.00892989
0.0211571
-0.0783493
-0.315504
0.0280248
0.125671
0.016747
0.0177153
0.0229613
-0.103025
0.0168364
0.0354346
0.0267257
0.0203263
0.0332547
0.020484
0.020646
-0.0351583
-0.289144
0.00978099
0.0296522
0.176397
-0.111279
0.0195188
-0.0759828
-0.0908291
0.0194765
0.00942155
0.00586101
-0.0486962
0.0142447
0.00120888
-0.00564095
0.00357772
0.019462
-0.0591416
0.0123319
0.0595671
0.0433305
0.0423372
-0.124423
-0.100869
0.0111089
0.025269
-0.436547
-0.125059
-0.0594018
0.00482635
-0.00399931
0.00961253
-0.857857
0.0254339
0.00809036
0.0448626
-0.195835
0.0437307
-0.0687621
-0.0701147
0.016649
-0.495424
0.0398419
-0.0146327
-0.0204533
0.0368093
0.0198403
0.0451359
0.0228341
0.0190656
0.0223516
-0.210871
0.0221669
0.0188614
0.0161437
0.0231658
0.0223066
0.021552
-0.0215781
0.193975
-0.00150011
0.0215585
-0.304883
0.032966
0.0175125
0.0263982
0.00911876
0.022794
0.0194975
-0.0155806
-0.0526364
0.0212593
-0.0283875
0.112696
0.0135876
0.0393205
0.0321361
0.0105858
0.0120667
0.0227821
0.222682
0.0216128
0.0206037
0.0175756
0.0355846
-0.0846497
-0.388618
0.0186318
0.0183522
0.0229114
0.0933744
0.0119143
0.0202525
0.0900998
-0.0299372
0.038909
0.0660808
0.0216924
-0.183469
-0.0209285
4.69857e-05
-0.0686493
0.00588899
-0.679262
0.0215831
0.0234002
-0.771639
0.095915
0.00836232
-0.00897859
0.196083
-0.365292
0.0776299
0.256503
-0.013995
-0.00118141
-0.367129
0.0439192
0.0428003
0.00231439
-0.210703
-0.574866
0.0215816
0.0377996
0.024396
-0.156423
0.0116883
-0.38195
-0.0212303
-0.381135
0.0557609
0.213709
-0.22487
0.0189654
0.0358302
0.207422
-0.000507392
0.0216914
0.0065627
0.0606521
-0.0825347
-0.128811
-0.0432687
-0.3769
-0.174508
0.0204069
0.0205182
-0.0117031
0.180972
0.0171825
0.024374
-0.154178
0.0103934
-0.00174393
0.0237123
0.0374827
0.0205508
0.0207473
0.169214
0.0417986
0.0139126
-0.876904
-0.369316
0.0162094
0.0643617
-0.0147117
-0.226399
0.024544
0.00382671
0.0205265
0.123914
-0.315766
0.0262709
0.0893929
0.0163984
-0.211069
0.0231333
-0.0163557
-0.095599
-0.0873856
0.0215724
0.082465
-0.150411
-0.0714026
0.0549968
0.0197455
-0.823854
0.0218628
-0.00536544
0.0420689
-0.0097803
0.010906
0.00961876
0.00988183
-0.103615
0.0222253
0.0199283
0.0124879
0.00650122
0.0230423
0.0165659
-0.122972
-0.367352
-0.390418
-0.0134515
0.0228063
0.116607
-0.00497895
-0.520353
0.0215607
0.142738
0.013302
0.024666
0.00218006
-0.0428556
-0.36741
0.0265118
-0.82636
0.00486107
0.0119586
0.0061286
-0.0561531
0.0450922
0.183792
-0.824086
0.0213594
0.0423242
-0.405957
0.0287092
-0.62141
0.0219907
-0.0216877
-0.149578
0.00290971
0.0225758
0.0183239
-0.378588
-0.0131061
0.0252361
0.1468
0.0243874
0.000697761
-0.120275
-0.363217
-0.0206181
-0.468089
-0.496204
0.0446065
0.0347527
0.0658723
-0.203431
0.00743381
0.0257891
0.0275775
0.000587073
0.195159
0.0242739
0.0616794
0.0214882
0.0233407
-0.256252
0.0213292
-0.357929
0.010867
0.00851663
0.0217861
0.017713
0.0118245
-0.691151
-0.962743
-0.119048
0.0227135
0.00125074
0.0227705
0.0179839
-0.020695
-0.123909
-0.0332659
0.0115616
-0.358479
-0.370926
0.012841
0.0205023
0.0147882
0.020549
0.00291949
0.00356887
-0.336942
0.0203736
0.0262367
0.0119108
-0.368923
0.0108186
-0.422967
0.00970259
-0.128725
-0.0697526
-0.0428692
0.0277397
0.0987813
0.105109
0.0100165
0.0120454
-0.236266
0.00687416
0.0226892
-0.497703
0.0229096
0.0228561
0.0135866
-0.0676694
-0.0550606
-0.40414
0.194092
-0.0129163
-0.00236067
0.00638292
-0.352288
0.00599654
0.0133661
0.0257862
0.0115477
0.0193886
-0.76009
0.0494047
-0.672835
0.0627942
0.017576
-0.688507
0.0294949
-0.688665
-0.553704
0.0137141
-0.012762
0.0371455
0.0364197
0.0639196
0.0205534
-0.907897
-0.0111049
0.0197919
-0.373051
-0.452621
-0.0113138
0.00403376
0.0219834
-0.217427
-0.378419
0.00270338
-0.00619587
-0.721376
0.102646
0.0663821
0.0202358
-0.09691
-0.370646
0.212057
0.0364037
-0.0126318
0.021085
-0.52048
-0.0779373
-0.0396873
-0.227225
-0.758048
0.00980762
-0.154992
0.0221778
-0.448003
0.115807
0.00127969
-0.0020321
-0.461973
0.0109204
0.0145644
-0.394026
-0.257393
0.0162128
0.0206027
0.0180799
-0.00869016
-0.538837
-0.230657
-0.723979
0.0311487
-0.0567141
0.0139027
-0.717512
-0.0680885
0.0295442
-6.01059e-05
-0.390954
-0.420522
-0.36741
-0.354296
-0.471247
-0.36226
0.0280229
0.0875607
-0.0361039
0.00750527
-0.354066
-0.472337
0.020556
-0.0544028
0.0220615
0.0249039
0.0174323
-0.0304825
0.0225501
-0.611876
0.212753
-0.00222574
0.00835929
-0.399202
0.0950106
-0.148469
-0.370863
0.00341304
-0.0153493
0.00576849
0.189782
0.011963
0.00972411
0.0211927
-0.81751
0.0184558
0.0133098
0.0677708
-0.000963533
-0.355218
0.0198759
-0.747824
0.0271652
0.0201852
0.027481
0.0308044
-0.000396007
0.0029487
-0.545434
0.0719391
0.000330417
-0.0122443
0.0200474
-0.894887
0.0197362
-0.711027
0.0291464
-0.930411
-0.0718432
0.0272002
0.0205544
-0.0202599
0.00607274
-0.0045623
0.0221104
-0.0101223
-0.969054
0.0183568
0.0217109
0.0279717
0.0204394
-0.509034
-0.620126
0.0181168
0.0113542
-0.582956
-0.734836
0.0229689
-0.113631
0.0211353
-0.814052
-0.877786
-0.00361971
-0.163454
0.171747
0.149441
-0.721894
0.0171687
0.0378858
0.0115381
0.0180609
-0.778935
-0.556607
0.0149296
0.0931286
-0.65622
0.0235904
-0.596729
0.0072746
0.00659191
0.0115376
-0.423538
0.0039116
0.0140082
-0.922194
0.0202346
-0.0800954
-0.270338
0.0140753
0.0216478
-0.101255
0.0269535
0.0115401
0.0186392
-0.47212
0.0642809
0.0204473
0.0213782
-0.338166
0.0358105
-0.00344863
0.0242307
-0.71458
0.0208079
-0.0641791
0.0114491
-0.685905
-0.0657983
-0.0194656
0.00417371
-0.0624641
0.0230264
-0.077439
-0.909282
0.0123148
-0.0805916
0.0179589
-0.4118
0.0255766
-0.970425
-0.177322
0.0878875
-0.889071
-0.873664
0.166534
0.00343593
-0.574644
0.0194131
-0.409943
0.0674223
-0.468476
0.0253089
0.0556761
-0.0749944
0.0785193
0.0399369
0.0353211
0.0206403
-0.376023
-0.10687
-0.910201
0.0660855
0.0912713
0.0127885
0.0263027
-0.75151
0.0642226
0.0127957
0.0213886
-0.622321
-0.372594
-0.708046
-0.879192
-0.0472729
0.0415239
0.0184521
-0.0641828
-0.0897528
-0.458785
0.0241022
0.0231012
-0.397947
-0.104696
0.0210694
-0.0190452
-0.491161
-0.104175
0.00931905
0.0629102
-0.42431
-0.449092
-0.134668
-0.0894665
0.0279795
0.0216429
0.0110329
0.0209721
0.0372175
0.0227394
0.0462473
0.0899296
-0.0399515
-0.00390829
0.017066
0.0208312
0.0640416
0.00365498
0.0246409
0.0615715
0.0196064
0.00548291
0.0311683
0.01837
0.0277896
0.0212137
-0.236209
0.0111554
0.0749336
-0.397715
-0.372935
-0.614289
-0.505306
0.0153672
0.0202067
0.0229735
-0.0233265
0.00772556
0.0111411
0.0219695
-0.110002
0.0777328
-0.041943
-0.159143
0.0473057
0.023777
-0.00625569
0.0224176
0.0518021
0.0210278
0.0421818
0.018301
0.0312871
0.0205914
0.0444596
-0.0027691
-0.39961
-0.030296
-0.0886356
-0.0993334
-0.0438681
-0.066228
-0.11411
0.00756403
-0.892351
0.0824012
0.0663659
0.0319196
0.00199808
-0.105033
0.0249106
-0.0452425
-0.37478
0.114722
0.270201
-0.179389
0.0159041
-0.0828943
-0.0239627
0.0282107
-0.0142781
0.0227892
-0.127505
-0.0785437
-0.00414439
0.0178304
-0.0765845
0.0919016
-0.128559
-0.104182
-0.0684825
0.0226276
-0.0944055
0.0129813
-0.0766133
0.0207303
0.0320219
0.013552
0.0898581
0.0230837
0.00270067
-0.0255206
-0.00863487
-0.265865
0.0235562
0.00626542
-0.0146472
0.0233192
-0.091531
-0.727752
-0.101006
0.0161889
-0.0826799
0.00759552
0.0103436
-0.203532
-0.173916
0.00898289
0.00308658
0.0864264
0.0319164
-0.305137
0.0170972
-0.664394
-0.214035
-0.0924241
-0.0172421
0.0436957
0.0143027
0.00943377
-0.194513
0.137828
0.0958148
-0.654447
0.0219655
0.0609974
0.0869865
-0.0824825
0.00987693
-0.0912646
0.0110077
-0.499042
0.0213681
0.0258675
0.151176
0.0199051
0.039133
-0.149218
0.0388706
0.0365474
0.0109314
-0.0680915
0.0113687
0.0418217
0.0247491
0.037608
0.0183914
-0.0964617
0.0197351
0.0976288
-0.0410191
-0.0538894
-0.307941
-0.221
0.104887
-0.357531
-0.0600498
0.063062
0.0988106
0.0214875
0.0214998
-0.943801
0.0813859
0.0126018
0.0241534
0.0208293
-0.015796
-0.139258
0.0204747
0.116948
-0.106184
-0.0881792
-0.0804448
0.0231518
0.0202168
-0.292573
-0.00333045
0.00989908
-0.457331
-0.0647783
0.0142771
0.0104671
0.0513025
0.0233777
0.161133
0.0201969
0.0214769
0.0208137
0.0150437
0.0142841
-0.37453
-0.0117008
0.0302288
0.0115354
0.0113509
0.00627935
0.0209399
-0.0379759
-0.408592
0.0250005
-0.112172
0.0211678
0.0204372
0.196449
0.00842004
0.0209758
0.0206694
0.0112349
0.0283506
0.0103169
0.0219454
-0.0846583
0.0215421
0.0104505
-0.00453583
0.0124045
0.0264171
0.0220139
0.0108832
-0.253765
0.219319
0.013119
0.00201413
0.00646118
0.0205403
-0.0408803
0.0201626
0.0203627
-0.393173
0.0237001
-0.0642693
0.0142466
0.0436377
0.00710911
-0.0967421
0.029678
-0.0927546
0.212878
0.00684456
-0.0813735
0.029357
0.106515
0.055079
0.0206148
0.0275804
0.0676467
-0.085911
0.0115168
0.0186492
0.00928978
-0.0584982
0.0224821
0.0074827
0.0219858
-0.0788279
-0.094368
0.0231405
-0.0298964
0.0226055
0.00534455
0.0135346
0.0110378
0.0149364
0.0310566
0.0248231
0.0117122
0.0427905
0.0375627
0.0372138
0.00674131
-0.44809
0.0116394
0.0182186
-0.123781
0.0215073
-0.178123
0.0212837
-0.0141688
0.00654461
0.0233687
0.00611826
-0.0255308
0.040137
0.152378
-0.01022
0.0358733
0.0130733
0.0570339
-0.0365044
-0.00629164
0.033781
-0.358077
0.041855
-0.00117908
0.0131117
-0.576652
0.0246053
-0.00470297
0.0505965
-0.0530598
0.00872969
0.0135879
0.0856414
0.0392116
0.0204759
0.011717
0.0203659
-0.0619298
0.0244225
0.0219054
0.0230756
-0.00689779
-0.0887637
0.021829
-0.371357
0.25269
0.0107659
-0.115023
-0.0857911
0.00735266
-0.00310652
0.0267831
0.019795
0.0304455
-0.108153
0.0196909
-0.222265
0.0904079
0.0128536
0.0580531
0.00359274
0.0281729
0.00748443
0.20696
0.0557393
0.0207578
0.02899
0.00613611
-0.378912
-0.00768482
0.0176958
0.108192
-0.0968672
0.179419
0.0231483
0.0109456
0.0372896
0.00210972
0.0599479
0.0533803
-0.0129308
-0.160523
0.00772323
-0.00146209
-0.27794
0.0214797
0.0562757
-0.216729
0.0268232
0.0215661
0.0460879
-0.0612761
0.075032
-0.368398
0.00491916
-0.0848995
-0.0880895
0.0080711
-0.0011322
0.015406
0.0218857
-0.267389
0.0396068
-0.0650226
0.0315693
0.00884018
0.0646487
-0.361591
0.0257043
0.0218955
0.00925956
0.0256495
0.0224947
0.00976421
0.00648157
-0.0584244
0.0276452
0.0424353
0.0178935
0.112431
0.0203118
-0.0663531
0.0291926
0.0032603
0.0179168
0.0207338
0.0194353
0.0195931
-0.0319348
0.0617584
0.026703
0.00342502
0.0134783
0.0214787
0.0289294
0.113407
0.00353959
0.0236692
0.0233863
0.0231243
-0.0135952
0.0239694
0.0243032
-0.0382404
0.022881
0.0272236
-0.00259028
-0.540299
-0.0624081
0.00371942
0.00457845
-0.724426
-0.0377478
-0.0827348
0.0427587
0.0142787
-0.0106645
0.0518976
0.0106842
-0.0099836
0.00601869
0.0189408
-0.00197622
0.022613
-0.0996055
-0.101118
-0.0968674
0.0177565
0.0209821
-0.0110698
0.0496075
0.0634485
0.00221097
0.00405621
0.0968192
0.167481
0.00888066
0.0250005
0.005379
0.0545359
0.063345
0.0215036
-0.361378
-0.351786
0.0223335
0.00257086
0.00359044
-0.117392
-0.39574
0.0261661
-0.118156
-0.0770214
0.160162
-0.092755
0.00845394
-0.0044577
0.000427633
-0.0523498
0.0209273
0.11351
-0.00125118
-0.0833667
0.0211415
0.0228093
-0.0461841
-0.00254844
0.0636157
0.0131147
0.0209069
-0.0336942
-0.79148
0.0151963
0.0227842
-0.556411
0.0466179
0.00381798
0.0314897
0.0229406
0.0158064
0.00819957
-0.044167
0.0267674
0.00521395
0.0616341
-0.0118901
0.0457004
0.0169415
0.0280821
0.0119367
0.0196035
0.010575
0.007477
-0.0025731
0.0150623
0.0211683
-0.347619
-0.0243835
0.00364771
-0.724749
3.46674e-05
0.0269066
-0.56048
0.00110234
-0.905802
0.0289156
-0.00127879
0.0251891
0.00137687
0.0122267
-0.629462
0.00168324
-0.0481252
0.0096601
0.00636299
0.00466771
0.0121199
0.127564
-0.276424
-0.414544
0.0245307
0.0162799
-0.211818
0.0571264
0.0104373
0.0493087
-0.0135949
-0.344125
-0.138706
0.00789244
-0.193538
0.0366135
0.0375203
0.010133
0.00548446
0.0834249
-0.930664
0.0214834
0.0351474
0.000652959
0.0226613
0.00998318
0.00608593
-0.348677
0.091454
0.012486
0.0380594
0.0220242
0.0872007
0.0103117
0.00318345
0.0155309
0.000126367
-0.328965
0.0292778
0.0216019
-0.0435468
0.0113381
0.0101609
-0.0620181
0.0233606
-0.63994
-0.386964
-0.359737
0.0402401
0.0395482
0.0115599
0.020288
0.0111463
0.0253902
-0.0134673
-0.0312568
-0.329243
-0.101134
0.0196855
0.00991049
-0.00058581
0.0161449
0.0202874
0.0368489
0.0102292
0.0174817
0.00483667
-0.34032
0.0298584
0.0220359
0.0212191
0.008807
-0.0815702
0.0200973
0.111122
0.011406
-0.037406
-0.000240786
0.0246222
0.0271034
0.0114864
-0.000458973
-0.586172
0.0258943
0.0314714
0.031134
-0.243191
-0.375505
0.00873306
0.0139021
0.00466766
0.0384634
0.00861183
0.0217503
0.0200818
0.0301427
0.0232226
0.0187513
0.00623011
-0.622158
0.148016
0.0267638
0.0280537
0.00333264
0.00681785
0.0209179
0.0505734
0.103148
-0.357034
-0.0151061
0.0346493
0.00604866
0.0251559
-0.0619349
0.0115464
0.0215225
0.0629717
-0.010231
0.087422
-0.886746
0.0170996
0.0059721
0.0273232
0.0184599
0.0218556
0.0090367
-0.000545663
-0.053383
0.0547528
0.0127358
-0.0335339
-0.0879581
0.0207037
0.00287996
-0.0447797
-0.223092
0.0202141
0.0289841
0.00117223
0.0115479
-0.0556206
0.0247247
0.0248386
0.0202985
-0.0425275
0.0150882
0.0146098
0.0302439
-0.377142
-0.930177
0.00955671
-0.554413
-0.131199
0.0196968
0.0100062
0.00814585
0.0381571
0.0209766
0.0104003