/*--------------------------------*- C++ -*----------------------------------*\
| =========                 |                                                 |
| \\      /  F ield         | OpenFOAM: The Open Source CFD Toolbox           |
|  \\    /   O peration     | Version:  v2012                                 |
|   \\  /    A nd           | Website:  www.openfoam.com                      |
|    \\/     M anipulation  |                                                 |
\*---------------------------------------------------------------------------*/
FoamFile
{
    version     2.0;
    format      ascii;
    class       volScalarField;
    location    "650";
    object      ddt0(k);
}
// * * * * * * * * * * * * * * * * * * * * * * * * * * * * * * * * * * * * * //

dimensions      [0 2 -3 0 0 0 0];


internalField   nonuniform List<scalar> 
10042
(
2.81126e-08
-1.43933e-07
-2.34744e-07
6.80507e-07
-0.00350744
-1.11044e-07
0.00117312
-0.0195043
9.65469e-08
5.94165e-08
-0.00122516
7.37094e-07
2.54742e-07
1.66153e-07
-1.61112e-07
2.2157e-07
1.94567e-07
-5.3968e-09
4.84609e-08
-4.17731e-07
4.95299e-07
0.0536405
3.35373e-07
-1.63994e-08
-1.64617e-07
-5.31628e-07
1.80948e-07
-2.25953e-07
8.27364e-08
-2.17131e-07
3.76998e-08
0.000156189
-4.79021e-08
-2.17973e-07
-5.20452e-07
-3.73889e-08
-4.77303e-07
-6.3208e-07
2.83875e-07
-3.78081e-07
-1.0076e-06
-1.86159e-07
0.00147459
-1.70429e-07
-0.00354317
-1.50346e-06
-2.45252e-07
-4.0068e-06
-5.36331e-07
-1.3374e-06
1.75081e-07
1.48651e-09
-2.40442e-07
4.31587e-08
-4.90784e-07
3.19957e-08
8.75274e-08
-2.42132e-07
-2.35736e-07
-2.86503e-07
5.14171e-08
1.35232e-07
-5.49361e-07
-2.25528e-07
-6.14176e-08
-2.33198e-07
-6.82972e-08
-8.97241e-09
0.000232719
2.91824e-08
7.80257e-08
4.79686e-07
-1.60907e-07
-8.0005e-08
-1.93551e-07
-2.51245e-07
-0.00163563
5.40994e-08
-1.87995e-07
0.00185534
-4.04338e-07
-0.00755866
-2.26728e-07
-1.46717e-07
-1.08e-07
-1.43472e-08
-7.62346e-08
-7.10054e-07
-1.56775e-07
1.08295e-08
-1.67629e-07
-0.00879942
-2.3437e-07
8.92139e-08
-2.11092e-07
-1.74778e-08
2.60269e-08
1.57446e-08
-3.4962e-07
9.97543e-08
9.6107e-11
-7.15547e-07
-0.0144857
-1.11994e-07
-1.67404e-07
-3.13465e-07
-1.23444e-07
1.98479e-08
4.50065e-07
1.93834e-07
4.77679e-07
1.57548e-07
-5.27434e-07
0.000658808
-6.72803e-08
1.36831e-07
3.08875e-09
5.6715e-08
-1.38895e-08
0.000466387
-1.81526e-07
-0.020501
-1.40888e-07
2.85421e-08
-6.96486e-07
-1.74195e-07
-0.0213741
-6.37884e-07
-3.25844e-07
1.12175e-07
-1.87752e-07
-4.79611e-08
-0.00105939
-3.92725e-06
7.71102e-08
-4.04874e-07
-0.000132
-2.72893e-07
-4.56452e-06
-8.92934e-07
-2.50937e-07
-7.98072e-09
-2.1891e-07
-1.2284e-06
-4.37858e-08
1.30756e-07
-3.90385e-07
2.23734e-07
4.73827e-08
-3.88094e-07
4.94652e-08
4.51617e-08
0.00388292
-0.000211028
4.05046e-07
1.84565e-07
-1.08238e-07
1.70381e-07
-3.72738e-07
0.000257254
-0.000498176
-2.03722e-06
1.34537e-08
4.5168e-08
-2.88964e-07
-5.11994e-08
-2.07158e-07
7.80565e-06
0.000107406
0.000138943
8.65462e-09
-1.59314e-07
-0.0138599
2.26075e-06
-1.83666e-07
0.001918
0.0019417
-1.82538e-07
-1.29935e-07
-5.3985e-07
-1.10147e-07
0.000250501
-1.77485e-07
-6.195e-07
-1.78542e-07
0.00130099
-5.04498e-06
-1.70112e-07
0.000987031
-2.83396e-07
-2.82289e-05
-2.68218e-07
0.00372915
-0.0162846
-1.89066e-06
-0.0237868
-3.16995e-07
-9.32189e-08
2.19666e-07
-3.20414e-07
-1.73339e-07
-1.4808e-07
4.82699e-08
-3.03746e-06
-8.22016e-08
1.94748e-07
2.32437e-05
4.5825e-07
-6.25503e-08
-4.2037e-07
-0.00515365
5.97487e-07
-1.86276e-07
-2.40928e-06
-1.18142e-07
-5.09666e-06
-2.00768e-07
-1.57059e-07
-5.58227e-07
6.49976e-08
-5.37221e-07
-1.16035e-07
-2.72779e-06
-6.61757e-07
-3.22165e-07
-5.78426e-07
-0.00405389
1.77404e-07
-2.52046e-06
8.7445e-08
9.59091e-08
-1.39999e-06
-1.63342e-07
7.48124e-08
-3.04123e-07
-4.00467e-07
2.77219e-07
3.22416e-07
-2.15561e-07
5.6819e-08
4.94091e-08
-1.69488e-07
-2.24578e-07
-5.87689e-07
2.74355e-07
1.68639e-10
2.76604e-07
-1.82318e-07
-1.67008e-08
-1.0973e-08
5.49741e-07
4.85567e-08
-4.40788e-07
-2.48322e-05
-2.04342e-06
0.00150356
-1.50201e-07
-2.01755e-07
-1.66034e-07
-1.65233e-06
0.00095431
-2.05698e-07
-1.17967e-07
3.07038e-07
-3.30357e-07
2.4105e-07
-0.0079007
-1.49204e-07
1.2803e-08
-4.85148e-07
-1.58467e-07
7.47207e-08
-8.62921e-07
-1.66724e-07
-8.2368e-07
-2.61501e-07
5.75653e-08
1.84705e-07
-5.01698e-07
-4.74313e-08
-4.49816e-07
-1.05985e-07
-5.35662e-07
-0.000990348
1.11809e-07
-1.34907e-07
0.000261687
-1.51908e-06
-2.56065e-07
-5.13813e-08
-3.90431e-07
0.00184924
-8.28057e-07
-1.25033e-06
1.24469e-07
2.44122e-07
1.61806e-07
1.00455e-07
-0.0530804
4.85948e-08
2.09046e-07
3.53403e-08
-1.69889e-07
-6.99121e-07
-2.30173e-07
-3.53183e-07
-0.00320117
-3.18623e-07
-0.0136355
3.92095e-07
-2.71708e-07
1.77796e-07
-0.000370121
-6.93169e-07
-0.000939239
0.00190398
-1.08385e-07
-1.3803e-07
2.49072e-08
-3.31415e-07
-5.84589e-07
1.90126e-08
-3.41513e-07
5.32804e-07
2.43627e-07
-1.56186e-07
-3.65531e-07
1.24395e-07
-3.68396e-07
-1.23108e-07
-2.5042e-07
0.00177611
2.77622e-07
4.05677e-07
1.80672e-07
-1.95169e-07
-3.61331e-07
-2.04694e-06
-1.76426e-07
-0.0233252
-6.88628e-07
-5.71878e-07
-1.28067e-07
1.74008e-07
-1.32692e-07
-4.45695e-08
-0.00124867
-7.94307e-08
-2.20208e-07
-3.68532e-06
3.19885e-08
-3.57723e-07
-1.52976e-07
2.63958e-06
-9.4657e-08
-3.01281e-07
-2.50526e-07
-3.39933e-07
-3.94592e-07
-4.70416e-08
-0.020005
-4.3304e-07
-7.82678e-08
-3.3847e-07
-2.23994e-07
-5.30112e-08
-1.50486e-07
-3.29576e-07
9.4317e-05
-8.20897e-08
-7.05853e-08
-2.17054e-07
1.11792e-11
1.2701e-07
-1.40678e-06
-5.59726e-08
3.15812e-07
3.08779e-05
5.56886e-08
-0.00789838
-0.00292594
-1.07101e-07
0.00137359
0.00210042
-3.91756e-07
6.17405e-07
3.20186e-07
-1.36689e-06
7.46993e-11
-2.12114e-07
0.00599379
7.37865e-08
-3.08366e-07
-3.48548e-05
4.9957e-07
6.6222e-07
-5.46793e-08
-5.05477e-06
-1.36417e-07
1.25053e-07
0.000164824
-7.36327e-07
-2.73271e-07
2.52411e-08
0.00260499
1.21044e-07
-7.84089e-08
1.91977e-07
2.63329e-07
3.79561e-07
6.79287e-08
-0.01565
-0.0168275
-2.19676e-07
-0.00553504
4.41626e-07
5.70755e-08
-9.24681e-06
-2.51173e-07
-0.00989008
-9.13117e-07
-1.21439e-07
1.37495e-09
5.37035e-08
-4.78269e-07
-2.44003e-08
-3.78996e-07
-2.0742e-07
-0.00119225
-1.15689e-07
-0.0070523
-1.75712e-07
-1.42679e-08
1.34204e-07
1.92509e-05
1.35632e-08
-4.17952e-08
1.05076e-07
3.21461e-09
0.000432854
-2.75506e-07
1.49855e-07
4.59152e-07
8.83899e-05
2.32039e-07
-3.19065e-07
-2.90863e-07
2.44776e-07
-0.00788237
0.00169919
3.28212e-07
-6.07348e-08
-8.64694e-08
5.99477e-07
2.78751e-07
2.72641e-08
-3.016e-05
5.67921e-10
6.22698e-07
-2.07245e-07
-0.0163526
-5.48236e-07
-6.50149e-08
-5.40566e-07
0.0030106
-7.44689e-07
4.01967e-08
-5.42218e-08
-2.68537e-06
-1.04656e-07
1.11303e-07
-1.91755e-07
3.61839e-08
-4.0559e-08
-1.18451e-07
2.1225e-07
-2.31568e-07
-1.21767e-07
2.47071e-09
-0.00120839
5.99044e-08
-5.37338e-08
-1.68048e-08
-2.48157e-07
-3.62025e-07
3.75274e-07
-8.29089e-08
-8.0309e-05
-2.2175e-07
0.00306097
-2.16084e-07
4.69923e-10
3.43283e-08
-8.07845e-07
-2.44633e-07
7.72895e-08
3.65894e-07
-1.10587e-08
-2.15947e-07
0.000404473
1.17278e-07
-2.4292e-07
1.09201e-05
-7.58799e-07
-7.85362e-08
6.24769e-08
-1.38496e-07
4.23806e-08
3.4275e-07
0.00112197
-0.000229613
7.22024e-08
-6.22952e-07
-3.40635e-07
-2.34247e-07
-1.14703e-07
4.12546e-07
-0.0100344
-4.65219e-07
-1.26703e-05
1.66181e-07
-1.40614e-07
-2.81188e-07
-5.18137e-08
-0.00153188
-4.21554e-07
-2.67882e-08
5.02867e-08
4.67252e-07
-1.87991e-07
-0.016587
-2.77361e-07
-2.46937e-09
6.44222e-05
-1.18954e-05
-5.6627e-07
-2.79753e-07
2.78713e-07
6.84988e-08
-1.59038e-06
-4.16689e-07
0.00224677
-0.00106033
-2.67057e-07
-3.93067e-08
-4.74748e-08
-3.20756e-07
-1.31427e-07
-7.82847e-08
-0.000717213
2.41882e-07
3.85754e-07
-1.55151e-06
1.3116e-07
-0.00439709
-1.94105e-07
-3.87262e-06
-4.2496e-07
5.40922e-08
-1.13342e-07
-5.19417e-07
-3.92376e-07
-2.8997e-07
-2.29362e-07
-2.59379e-07
-1.27058e-06
-3.91169e-07
-3.33627e-08
-5.21036e-08
-2e-07
7.19999e-08
-2.71834e-07
-5.05947e-07
-1.63303e-07
-7.66662e-08
-2.53215e-07
3.12536e-07
-4.18524e-08
8.85251e-07
3.32637e-07
-2.82814e-07
-0.00278746
2.62816e-07
-4.97662e-07
-3.08747e-06
1.5736e-08
0.00125942
-9.41771e-07
2.5494e-07
-5.9544e-06
-2.37201e-07
-1.00478e-07
-5.59267e-08
1.13923e-07
7.06625e-11
-3.51681e-07
-1.69979e-07
2.74621e-05
-2.26989e-07
1.33221e-07
-1.30142e-07
-3.72486e-07
-7.4887e-07
7.51525e-08
-9.42667e-08
7.07117e-08
-5.64377e-07
-4.98079e-08
-3.8916e-07
3.28509e-07
-1.04373e-07
6.31521e-08
-1.05104e-07
-0.00507238
2.01043e-07
-1.94188e-06
1.73414e-08
1.39544e-08
2.28159e-07
-7.19507e-07
-1.06065e-08
-9.1042e-07
-1.93049e-07
-4.22243e-06
4.72704e-08
0.000415084
2.38569e-07
-2.43858e-07
2.67305e-07
-1.91626e-07
-1.99939e-07
-3.58177e-07
5.46877e-08
-1.64918e-07
0.000396149
-0.00383313
-2.19901e-07
-2.29777e-07
-1.61811e-08
-2.08439e-07
-1.54604e-06
1.08554e-07
-1.89904e-07
-2.32434e-07
0.00254093
-2.89654e-06
-0.0209189
-5.49444e-07
-1.39062e-07
2.90075e-08
-2.54768e-07
-3.08656e-07
-1.76512e-07
-1.81251e-07
-4.37177e-07
-1.66765e-06
4.04632e-08
2.5815e-08
-1.38182e-07
0.00182968
-2.69469e-07
-6.21222e-07
-1.52965e-06
-8.55282e-08
0.00208779
3.39406e-08
-1.01704e-07
-1.70346e-07
4.53482e-09
-0.000401784
-1.95265e-06
0.00220967
3.32923e-07
0.00146097
0.00240966
-0.00268266
-2.23043e-07
-1.78765e-06
-2.6872e-06
-2.46451e-07
-1.78071e-07
1.77449e-07
-1.99253e-07
-0.000608991
-3.44655e-08
-2.26337e-07
0.00317758
-1.53256e-07
-8.29004e-08
-6.2906e-08
-2.62025e-07
-1.66511e-07
-1.14817e-07
-6.43931e-07
-0.00593327
-5.26709e-08
-1.55324e-07
-0.00112086
0.00329829
6.24503e-10
4.25497e-08
1.64351e-07
2.43036e-07
-5.76661e-06
-1.98668e-06
-8.56242e-07
-1.96736e-07
-1.73288e-07
1.26551e-07
-8.32723e-08
4.16016e-08
-6.8374e-07
-1.97425e-07
-0.0021975
1.1149e-07
-1.38328e-07
-2.42689e-07
1.66447e-07
-4.67549e-07
-1.4255e-07
-9.12181e-08
0.00052906
0.00273453
-1.68034e-07
3.49055e-07
-0.00900111
-0.00119215
-1.83832e-07
-2.49992e-07
-0.0181489
-1.74749e-06
-8.99789e-08
-1.73516e-07
1.43566e-07
4.49866e-07
3.78176e-07
-2.11487e-07
1.25931e-06
-4.83191e-08
0.00159369
-9.4119e-05
1.0782e-07
-3.88013e-08
-2.67678e-07
4.24872e-07
2.30724e-07
-3.78833e-07
-0.00121029
0.00316181
-0.00731703
-4.0784e-08
-1.3508e-06
-1.7459e-07
2.9093e-07
5.23112e-07
2.66856e-07
2.48677e-06
-2.72777e-09
8.09162e-08
-1.36033e-06
-1.12171e-07
-5.41911e-07
3.07278e-07
4.57392e-07
5.14843e-07
-7.89075e-08
-3.75328e-06
1.18483e-07
5.527e-08
-8.57581e-07
-1.80301e-07
5.42761e-10
2.60189e-07
-9.14612e-07
0.0028621
0.00269585
-1.5422e-07
-0.000219494
0.000746465
-1.63046e-07
2.71972e-07
-2.56618e-07
-7.95181e-08
0.002612
-2.91817e-07
5.56767e-08
-6.69669e-08
0.00345277
-2.02336e-07
-2.60128e-08
1.87169e-07
7.65854e-08
-3.60611e-07
5.88052e-08
2.10174e-07
-4.63876e-07
-2.60038e-07
2.66499e-07
1.01504e-07
-5.28504e-06
-1.37258e-07
-2.10953e-07
-1.85875e-08
-2.39901e-07
-1.11994e-06
1.83088e-07
-3.34127e-07
4.56067e-09
-2.281e-07
5.33073e-06
3.10142e-11
3.25697e-06
-4.69713e-07
0.00309261
3.64811e-07
-3.82549e-07
-4.24807e-07
-8.72721e-07
-1.00605e-07
-1.81493e-07
0.00679021
-0.00287653
-5.24815e-08
4.09899e-07
-0.00196169
1.76737e-07
-9.95447e-08
1.71209e-07
-4.67226e-08
-6.81787e-07
9.8539e-12
9.21853e-11
-1.51184e-07
-3.96221e-07
5.56187e-07
-2.19217e-07
-1.15755e-07
-0.00499896
-1.54224e-07
7.96018e-06
2.69775e-07
-1.51861e-06
-1.80062e-07
0.00407076
-2.10032e-07
-0.00147037
-8.14617e-09
4.43723e-08
2.00553e-07
-1.31747e-07
-1.51929e-07
-3.71119e-06
-1.5318e-07
-1.15679e-06
-0.000486428
8.21793e-08
-0.00115099
6.17139e-08
8.18606e-08
-7.90981e-08
-6.27948e-07
0.00305983
1.68987e-08
-2.34606e-07
-1.71785e-07
-2.92083e-07
-1.60368e-07
-6.44305e-08
3.83827e-07
-4.20142e-08
-6.54818e-07
-3.64219e-07
8.06514e-08
2.79444e-07
2.59605e-07
-1.70342e-07
6.44226e-08
-2.55424e-07
3.17764e-07
5.65639e-07
-1.25712e-07
-4.19588e-07
-2.22373e-07
6.32267e-09
0.00350964
-7.92481e-08
0.00173462
-1.66563e-07
0.00176262
-6.30524e-07
-3.40321e-08
9.80481e-05
-7.92081e-07
-3.11035e-06
9.94608e-05
-2.98181e-07
-3.01884e-08
-9.28442e-08
-3.10796e-07
-1.20061e-06
3.43639e-09
-0.000458536
4.12588e-08
0.0167826
0.00103705
-1.46323e-06
-2.14438e-07
0.000652547
0.00165317
-1.06316e-07
9.81757e-08
3.94908e-07
-1.06218e-07
3.8986e-07
5.40871e-07
-3.66393e-07
0.0148863
3.2861e-08
-1.67203e-08
-1.23478e-07
-1.24208e-05
-1.78692e-06
-8.12641e-08
-4.37674e-07
-1.14277e-06
-2.1082e-07
3.46896e-08
-0.000679361
-1.97581e-07
-2.59852e-09
7.70412e-05
-3.61902e-07
-1.74678e-07
-4.68639e-07
0.00214188
0.00256886
-1.1295e-07
-3.31505e-07
9.47368e-05
1.72198e-07
4.69243e-08
1.45801e-07
-1.80828e-07
2.6686e-07
3.65951e-07
1.01034e-07
-1.34072e-07
-5.45486e-07
-1.95178e-09
-1.02634e-07
9.8618e-08
1.16361e-07
-2.20642e-07
4.63409e-07
-2.01428e-06
-3.48125e-07
-3.99455e-08
2.34033e-07
1.80501e-07
3.02876e-07
-1.97803e-07
-0.00098697
-4.90009e-07
1.48986e-07
-8.61954e-08
-1.48928e-07
0.00416957
5.74789e-08
2.98874e-07
-1.77143e-08
3.50691e-08
0.00286747
-1.19631e-06
2.28722e-07
3.36619e-07
-6.69198e-07
-2.27418e-07
-3.14583e-08
-9.11096e-08
-3.95517e-07
7.78483e-08
-3.28216e-07
-2.30437e-07
-0.00150287
-3.50987e-07
-3.63046e-08
-4.9162e-07
-0.0139373
-2.14525e-07
-2.03003e-05
-5.21067e-07
0.000347252
-1.29049e-08
-1.11035e-07
-2.2411e-07
-1.91766e-06
-2.2798e-07
1.09236e-07
3.4783e-07
9.05768e-09
-1.84846e-07
-3.41232e-07
0.00467876
-1.56007e-07
3.35463e-07
-2.80425e-07
-1.02271e-07
-1.64103e-07
-0.00368823
-3.79023e-07
-2.0561e-07
4.56252e-08
-2.18203e-07
-0.0309384
3.9222e-07
-3.14985e-07
-1.71057e-06
1.03257e-07
2.46506e-07
8.40658e-08
-1.72693e-06
-4.55989e-07
-3.38443e-07
-3.44155e-05
-2.40698e-07
3.24733e-07
0.00270111
-7.39771e-08
-1.50331e-06
4.5144e-07
-4.01194e-07
-2.35676e-07
-1.82935e-07
2.55465e-08
-2.64633e-08
-2.95213e-07
-0.0404276
-8.98993e-08
-5.66104e-08
-1.31584e-06
-3.31609e-07
-0.00622253
-0.00160986
-2.68993e-07
7.09887e-09
-5.05175e-06
4.64854e-08
-0.013906
4.72597e-07
-2.50579e-07
5.63204e-07
6.86729e-05
-1.46505e-08
-2.53195e-07
-3.36326e-08
-7.22529e-07
0.00219499
-3.97053e-07
-3.41036e-07
-2.2442e-08
2.49962e-08
-5.24362e-07
-6.8617e-07
6.70493e-08
-4.35758e-07
5.60059e-08
0.00388367
-0.000898328
-4.77544e-07
-7.98685e-08
2.53826e-07
0.0039352
-8.32993e-08
0.00020247
2.3844e-08
-5.65364e-08
1.89943e-07
-1.99193e-07
-2.48991e-07
1.18362e-07
2.64321e-07
-1.11912e-07
-0.0179527
-2.53173e-06
6.93897e-09
-1.76394e-07
-6.95777e-08
-2.19398e-07
-1.25038e-07
-5.53026e-08
-3.91257e-07
-8.26551e-08
-1.25585e-07
-3.64573e-07
8.34311e-08
2.26653e-07
-2.2887e-07
1.27431e-07
-7.74083e-07
-3.4616e-07
-6.0119e-07
-4.90465e-08
5.12611e-08
4.14832e-09
-2.40321e-06
-2.46418e-07
2.44824e-07
-1.74537e-07
-1.38931e-06
-2.32259e-07
1.21884e-07
-4.29127e-07
8.25683e-08
-9.13217e-05
-1.14973e-06
-4.15735e-07
-0.000639571
-4.32492e-08
-7.28365e-07
-1.11648e-06
-1.8546e-07
-3.91244e-07
0.000119597
-2.33779e-07
-3.15176e-06
9.82114e-08
-4.079e-07
-3.4364e-08
-4.99697e-08
-4.17816e-07
-5.59271e-08
-1.58828e-06
-7.9296e-08
-1.93437e-07
-2.66259e-07
-2.81262e-08
-1.32354e-06
4.21708e-09
-3.94392e-07
2.22241e-08
-1.40914e-07
0.0107249
1.1624e-07
-6.3365e-07
8.39773e-05
-8.76263e-08
1.18325e-07
-2.80863e-07
2.7557e-07
2.37697e-08
-0.0116094
2.07248e-08
7.33882e-08
-8.21739e-07
-6.02348e-08
-2.94858e-07
3.58383e-09
1.31763e-07
0.00257683
4.32005e-08
7.50097e-08
-4.17179e-07
-6.69336e-08
3.00232e-07
6.20607e-08
-0.0351212
-1.91178e-07
-1.44435e-07
9.9307e-08
-2.23834e-06
-5.09269e-08
-4.18583e-07
7.34348e-08
-1.85144e-07
-2.07208e-07
-2.08098e-07
-2.81152e-07
3.3618e-07
-7.3122e-08
-3.16359e-07
-3.0789e-07
-6.42052e-07
-8.38744e-08
-3.03912e-07
-1.34872e-06
-1.83369e-07
-1.83035e-07
-1.99e-07
0.00259167
9.57665e-09
-2.93351e-07
4.00663e-07
6.19214e-08
-2.18774e-07
4.84843e-07
-0.0091714
-0.00118885
-0.0208553
3.71366e-08
-3.89264e-07
-2.2368e-07
-3.36151e-10
-1.67836e-07
-2.04582e-07
0.000147999
-1.90458e-06
-0.000917335
-1.31384e-06
3.95467e-05
0.0021995
-3.84766e-07
-1.76865e-07
-6.63275e-07
5.18965e-08
0.00354909
-2.12757e-07
-1.67794e-07
-1.30483e-08
-4.81056e-07
3.16066e-07
-0.000188612
0.00353536
1.64049e-07
7.78248e-05
-6.9623e-06
0.00125973
-7.62964e-07
-5.47264e-07
8.96997e-09
-0.000607579
-1.16168e-07
-0.0124393
-0.00116633
1.42236e-07
-8.05899e-08
1.09413e-07
-1.99554e-07
-2.41414e-07
-7.1266e-07
-5.12451e-06
1.03669e-07
2.40636e-07
-4.05763e-07
-1.76103e-07
2.72299e-07
-4.05546e-07
9.41851e-09
-5.0556e-08
0.00855587
-6.44201e-07
-1.17581e-07
-0.00165289
-7.87691e-08
1.57163e-07
-1.28184e-07
-2.20345e-06
2.99949e-09
2.08515e-07
-1.61243e-06
-7.10967e-07
5.05436e-08
-3.83954e-07
5.72956e-05
-7.84164e-07
-0.00128352
7.76949e-09
-6.73655e-07
0.000317246
-0.00269221
2.1159e-07
-1.21821e-07
-1.70532e-06
-2.42845e-07
-2.93507e-07
-2.15734e-07
-0.00082828
-7.84048e-07
-3.47603e-06
-1.45669e-07
3.32558e-07
-1.91804e-05
0.00162153
7.30932e-08
1.09933e-07
0.000416404
4.54293e-08
1.5288e-07
1.15866e-07
-2.74847e-07
2.56709e-07
-1.8594e-07
-2.20784e-07
-5.73359e-08
2.70406e-07
-6.62576e-07
-0.0449893
-3.40612e-07
-7.65872e-07
0.00232227
-8.50838e-07
1.6013e-07
3.58529e-08
-3.58384e-10
3.61472e-08
-9.93733e-07
-1.77617e-07
-1.28953e-08
-1.18991e-07
1.11777e-07
5.93101e-07
-2.30573e-07
4.48093e-08
-1.54121e-07
-7.14046e-08
9.16218e-08
0.00358755
0.000392177
1.19547e-07
0.000870395
-2.14767e-07
-5.19675e-07
3.45701e-07
4.22042e-07
0.000505647
-8.53288e-07
-6.41075e-08
1.52987e-07
1.218e-07
-5.54665e-07
-2.55132e-08
-3.74267e-06
6.12689e-07
-4.69097e-08
-2.96273e-07
0.0022021
0.000528193
-7.41069e-09
-1.56675e-07
-2.24632e-07
-2.36999e-06
-2.48004e-07
0.00250789
-0.00123247
1.81691e-07
4.12217e-08
-1.15746e-07
-2.54312e-07
0.00251373
3.19531e-07
-5.29652e-08
-7.89881e-07
-1.03785e-06
3.21192e-08
-2.85655e-08
8.2675e-08
-9.96176e-08
-9.67478e-08
-7.72515e-07
-1.49798e-06
-3.00467e-05
2.53431e-07
-2.40747e-06
-1.50238e-07
-1.39451e-06
-7.80291e-08
-3.51482e-07
1.20406e-07
7.02407e-07
-7.68821e-08
-3.87956e-07
-1.21378e-08
-4.80417e-07
-0.000940793
-1.17205e-07
2.11914e-07
-1.4155e-07
-2.9296e-07
-1.15587e-07
-1.17468e-07
1.81586e-07
1.22432e-07
-5.01388e-06
-0.00173675
-1.95462e-07
-0.0177979
-0.000721021
-0.000913799
7.43208e-08
-9.88191e-08
-2.66579e-07
3.54121e-08
4.68873e-07
-3.8968e-08
-1.43053e-07
-1.24705e-07
1.0499e-07
-2.43085e-07
0.00252864
-1.84624e-07
-0.000166584
-3.68052e-07
-1.0039e-07
-2.60229e-07
-3.56067e-07
-1.87141e-07
4.50548e-07
-2.07036e-07
-3.88599e-07
-6.5668e-06
-9.34558e-07
-1.88599e-07
-0.0107526
-3.04483e-07
9.01119e-08
3.8109e-08
-0.00544998
-8.41594e-07
-1.15695e-07
-5.88718e-07
1.57968e-07
1.27056e-07
-2.30079e-07
-1.01172e-06
-1.62278e-07
-0.0108543
1.21793e-07
4.76204e-07
-3.62413e-06
-2.65626e-07
-3.85157e-07
-2.4126e-06
-3.52531e-07
-2.54224e-07
0.000398368
-6.36401e-07
3.02451e-05
-3.01175e-08
1.62434e-07
1.39659e-08
6.23232e-08
2.43288e-07
-3.49404e-07
-8.79855e-07
-1.30364e-06
0.00302431
1.98512e-07
-0.00358019
-0.0201016
-4.89991e-08
-3.75481e-06
-1.87392e-07
-1.09454e-06
0.000973795
-2.49356e-08
-1.64131e-06
1.62276e-07
-2.1829e-05
2.18641e-07
2.5851e-05
3.40361e-07
0.00770459
-8.49718e-07
-0.000224591
4.12746e-08
-4.12434e-06
2.28968e-07
-3.49882e-07
-0.00263599
2.17019e-08
-1.65487e-05
-0.00114677
0.0010125
-0.0147664
-2.10444e-06
-0.00065402
-3.02046e-07
2.62718e-08
-2.11712e-07
-6.99302e-07
0.000648089
1.26094e-07
4.74329e-07
-2.27929e-07
-3.65454e-07
-5.6818e-08
-2.06791e-07
-2.61194e-07
0.00132088
0.00248892
-1.55141e-07
-0.0104498
-2.00753e-07
-6.56437e-08
-3.41649e-07
-2.40955e-07
0.00232569
-3.89778e-07
-2.01504e-08
-3.41169e-06
1.25414e-07
4.2181e-09
-7.15333e-08
-9.12316e-07
-1.10355e-06
4.29862e-08
-2.00215e-07
2.45489e-07
-1.23296e-07
6.92143e-08
0.00306641
-2.47725e-07
5.82825e-07
-0.00821653
-0.000296721
-2.20639e-07
5.25017e-08
0.00220844
-2.14697e-07
-3.02069e-07
-4.24279e-08
-1.59164e-07
-3.66932e-07
-2.73788e-07
-3.88782e-07
-0.0140808
-2.34932e-07
-1.10149e-06
-1.84604e-07
-1.74516e-07
-1.09683e-06
-3.25578e-07
-2.74638e-07
-0.00287843
5.74319e-08
4.09762e-06
2.8324e-07
5.13868e-07
-2.17256e-07
2.31941e-05
-3.07443e-07
-2.42505e-07
1.03886e-07
-2.50662e-07
-1.23539e-06
-3.42865e-06
-3.08872e-07
3.36317e-11
3.47259e-07
-1.8767e-07
-3.66233e-06
-2.33419e-09
-8.99633e-07
1.83836e-08
1.61489e-07
-0.000567723
3.85868e-09
0.00147641
-9.1335e-08
-1.89992e-07
-1.99053e-06
-7.56562e-08
-4.16907e-07
-5.8521e-06
-1.46521e-06
2.7077e-08
-3.38404e-06
-1.48913e-07
2.94426e-07
-1.08589e-07
-0.000377198
0.00350956
-1.54625e-08
2.0977e-08
2.16052e-07
2.44536e-09
-1.67365e-06
0.00370859
2.74887e-08
-8.97696e-06
2.86172e-07
1.12131e-07
1.34777e-08
-0.0151691
-2.75287e-07
-3.81104e-07
-4.02728e-08
-9.41568e-08
-1.28808e-07
3.20518e-08
-2.18494e-08
-7.55753e-07
0.002924
8.86108e-08
-2.84566e-08
-6.5456e-08
-7.54555e-07
-2.36674e-07
-0.0135133
-5.87552e-07
2.06963e-08
3.55089e-07
-4.08435e-08
-3.2776e-06
-1.04391e-08
-2.40843e-06
-4.66318e-07
-1.60669e-07
1.32875e-07
-7.77651e-07
5.86624e-07
7.04258e-07
-2.37006e-07
-2.8689e-07
-0.00572243
-0.0150915
1.95253e-07
2.10817e-07
-0.000239954
-1.75653e-06
-1.54958e-06
8.29834e-09
-2.69364e-06
1.14562e-07
-0.00149819
-2.04995e-06
1.86854e-07
0.0010895
0.00174661
-3.46295e-07
-3.24472e-07
-8.92251e-07
-1.14496e-07
-0.00366039
-2.12788e-07
-3.80417e-07
-5.55361e-07
-2.09113e-07
2.92723e-07
-1.84786e-07
2.78326e-07
3.72037e-07
2.33227e-08
-0.089554
1.47381e-08
2.85056e-07
-6.17476e-08
2.20637e-07
5.88175e-08
3.55489e-07
-1.28294e-06
-1.32176e-07
-3.03198e-08
2.92301e-07
2.60764e-05
-2.70051e-07
3.35686e-07
-4.70701e-08
1.06678e-07
-9.28911e-08
1.97251e-07
-4.69942e-07
-2.10015e-06
3.3879e-08
-6.38902e-07
-1.55117e-07
-1.98028e-08
-2.8188e-07
0.00303043
-4.33996e-07
5.00826e-07
-1.37832e-07
4.28256e-07
2.4183e-07
1.2764e-07
-3.80526e-07
-4.05281e-07
-0.016272
0.000128528
1.73313e-07
4.83561e-07
-1.52091e-07
-1.68373e-07
7.51746e-07
4.83768e-08
-1.6188e-07
-2.70347e-07
-2.06717e-07
-2.71991e-07
-1.29812e-07
-8.68935e-07
0.00295647
-1.38737e-07
-3.8925e-07
-4.76166e-07
-0.000314875
5.14491e-07
5.98693e-08
-0.00158391
-9.89997e-08
-3.88245e-07
-0.000613658
-1.35796e-06
0.000176391
-1.56836e-07
-4.94773e-06
-3.1859e-07
-1.78199e-07
9.33885e-05
-2.88425e-07
0.00283191
-3.52383e-07
-1.00178e-06
0.000931529
1.07885e-10
-2.37999e-07
-1.47367e-07
4.91003e-07
1.25924e-07
0.000431092
-8.22342e-07
-0.000185652
-2.27998e-07
4.17368e-08
-2.19015e-06
2.73353e-07
-2.68564e-07
9.90611e-07
-4.04417e-07
1.0046e-07
6.93582e-08
-2.12254e-07
-1.19638e-06
-8.31101e-07
-2.99249e-06
0.000824797
-5.6697e-07
-1.02954e-08
9.26247e-08
0.00392977
-1.27667e-07
-2.53287e-07
-1.86552e-07
0.00146963
-2.20033e-07
-6.26385e-08
-1.107e-07
-2.61715e-07
-8.49989e-08
-2.14165e-08
-8.77605e-08
-1.45159e-07
7.33953e-07
-0.00124117
0.0017028
7.84012e-07
-3.04753e-07
-4.08671e-07
-9.27988e-07
-2.53899e-07
-2.3616e-07
3.49997e-08
-1.50718e-07
0.0367358
8.23944e-08
-4.28555e-08
-2.11026e-07
-0.00138951
3.51379e-07
-5.54167e-07
-0.0142466
-0.00881309
-2.65394e-07
-2.55514e-07
-5.48828e-07
-9.23864e-07
-2.46463e-07
1.99089e-07
-0.00115056
2.18736e-07
-2.85485e-07
-2.01007e-07
-3.39691e-07
2.11828e-07
1.21848e-07
-1.283e-07
-8.02803e-07
2.01906e-07
3.51049e-07
1.02393e-07
-3.18229e-08
3.80826e-07
-2.96835e-07
-1.06381e-06
-0.0177971
0.00263704
-2.63225e-07
6.28038e-08
-1.88345e-07
-2.5208e-07
0.0009921
1.82193e-07
2.67837e-06
2.90677e-07
-1.60097e-08
-1.25738e-07
-6.18843e-07
0.0036308
4.60564e-08
-0.000872574
-8.14389e-08
4.34579e-07
-3.39003e-07
-0.00487794
-2.93784e-07
-1.32446e-07
0.000547566
2.5308e-07
-1.93335e-07
-7.44122e-05
4.7057e-08
-0.012955
1.77929e-07
-7.19324e-07
0.00252941
2.13819e-08
-2.15014e-07
3.97132e-07
0.000683279
-3.89081e-07
3.7196e-07
5.28407e-06
-9.99981e-10
-1.17215e-07
-9.56461e-07
0.00048575
3.82091e-07
-0.000294523
-0.0244467
-2.01534e-07
-3.8479e-07
-1.2581e-07
-3.83059e-06
6.98708e-08
1.15625e-08
-3.1993e-07
-2.20686e-07
2.90411e-07
-1.32115e-07
-2.79352e-07
-1.42605e-07
-5.60282e-08
0.0024987
-1.66487e-08
0.00154711
1.31149e-07
-2.4045e-07
-2.07762e-06
5.69125e-07
4.34133e-07
-0.00100186
-0.000338995
-5.47998e-07
-1.34602e-07
-4.3271e-07
-1.40993e-06
1.82269e-07
-8.10605e-07
-1.3205e-06
-8.88966e-07
6.88891e-07
0.000746943
-0.00173866
7.45439e-07
-7.69961e-08
2.80807e-07
1.04421e-07
-2.51534e-08
-1.95807e-07
-0.0176551
-2.89632e-08
9.25243e-08
-1.01154e-06
-0.000171532
1.01219e-07
-0.00740696
-6.30374e-08
-1.97729e-06
-9.52956e-07
0.000979312
-2.34418e-06
-1.38734e-07
-1.3872e-07
2.23176e-10
6.53476e-07
-3.94778e-06
-5.73174e-07
-2.14263e-07
9.56094e-06
3.2468e-07
-3.09925e-08
2.25904e-07
-7.55977e-07
-1.89071e-06
-1.19684e-05
-5.76511e-07
-4.04826e-07
-3.80362e-07
-3.49512e-08
0.00318127
-0.00286151
-2.96648e-07
9.28563e-08
1.2645e-07
-3.02154e-06
-0.00115651
-2.33569e-07
-0.003228
-1.18387e-07
6.30495e-08
-0.000875055
-5.52957e-08
-0.00141877
-0.00791976
2.00038e-07
-4.26869e-07
0.0103797
-4.03373e-07
-2.56967e-07
-1.14779e-07
-0.000895968
-3.73976e-07
-1.58074e-06
0.000102986
-0.0163254
-3.2421e-07
-2.21234e-07
1.63441e-07
-8.2981e-07
0.00372696
-7.55386e-08
-2.33688e-07
-0.000484141
-1.41188e-07
-1.8962e-07
3.78448e-08
-0.00343125
8.96298e-05
-4.59171e-07
-1.07046e-07
-3.64523e-07
-8.78325e-08
-0.00100925
-1.22456e-06
-7.1585e-07
-0.0102018
-0.000604379
-4.2588e-08
-2.03729e-06
7.74023e-08
-0.00579431
-1.893e-07
-1.81322e-07
-2.29732e-07
-7.86582e-05
-5.91302e-08
-1.99878e-06
-6.09854e-05
0.000825831
-2.96091e-07
1.52097e-08
2.44824e-07
-2.48475e-07
-0.000423792
-1.56864e-06
-0.00138343
-4.69639e-06
-2.86722e-07
3.68715e-07
-0.000877518
-1.48246e-06
-3.09536e-07
6.42234e-07
7.76824e-05
-0.000126951
7.08867e-05
0.00180596
0.00122326
0.000386391
-1.54454e-07
-1.89375e-07
-6.32991e-07
-3.89179e-08
0.00268973
8.40198e-05
3.65936e-08
-0.00455639
1.5303e-08
4.61505e-08
1.06397e-07
-6.83046e-07
1.6469e-07
0.000171653
-7.17768e-07
0.00691331
1.33872e-07
-9.77373e-06
-1.30489e-07
0.000159084
9.24327e-06
-1.80689e-08
-4.34788e-07
-1.92622e-07
-7.66653e-08
8.79089e-08
9.30392e-08
-1.53919e-07
-0.000848369
1.6076e-07
1.52627e-07
0.00688136
-8.31935e-08
0.00219316
2.83788e-07
0.000605142
4.72443e-08
2.71348e-07
-5.72904e-08
-1.1565e-07
-3.0231e-07
-3.85547e-07
0.00182023
-2.23607e-07
-7.43882e-07
0.00259344
-7.42336e-08
-0.000844079
-1.12896e-08
-0.00161001
0.00505122
-0.000389252
-1.18792e-06
-6.5464e-08
-1.88364e-08
0.0026713
-1.31936e-07
-3.0767e-07
8.92502e-08
-4.04444e-07
-0.000401546
4.0659e-07
-1.17287e-08
-6.61399e-08
-1.09792e-07
-0.0129077
-0.00543689
5.03218e-08
4.40373e-07
-2.38447e-05
-0.00160831
3.81665e-07
0.00153739
2.20435e-07
-0.000892686
-0.00156533
-2.20858e-06
-1.3959e-06
9.15547e-07
-1.6874e-07
-0.000999151
-3.03864e-06
-1.46217e-07
-1.21322e-07
2.2206e-07
-0.00144325
-0.00439366
-2.93784e-07
-1.63328e-07
-0.000899825
3.72973e-07
-0.000794433
3.74975e-08
7.22844e-09
3.17085e-07
-0.0140183
-2.43065e-06
-2.12333e-08
-0.00115733
5.20717e-08
-0.0112459
0.00334287
-8.44087e-09
1.96299e-07
-2.01384e-06
9.1747e-08
4.86466e-07
2.102e-07
0.00334107
-2.11282e-07
1.06534e-07
-8.38271e-08
0.00141024
-1.02337e-07
-2.20618e-07
-1.43478e-07
5.91412e-05
-6.79304e-08
-3.42879e-07
6.64814e-07
-0.000681232
-0.00495914
-4.81261e-07
-3.51264e-06
-1.01424e-06
-3.63307e-08
-3.11288e-07
-0.000630402
-4.0832e-08
-1.36647e-06
2.83519e-07
-1.13699e-05
2.83396e-07
-0.000644593
-2.35226e-05
-2.25153e-07
-0.0012433
-0.00100423
-1.46404e-07
-1.47953e-08
-0.000811282
3.4144e-07
0.00365302
-3.39891e-07
1.00176e-05
6.08833e-08
-2.07951e-07
-3.62765e-07
-2.15292e-07
-2.20286e-07
-1.03716e-07
1.67234e-07
0.000294507
-8.97499e-07
-0.00125835
0.00310419
-1.5654e-07
4.16208e-07
-1.88944e-07
-0.00982713
-2.31494e-07
9.9773e-08
2.58869e-07
-0.0167062
-0.0071897
-0.0124053
-0.00125113
-5.27215e-07
-2.16032e-07
2.50021e-07
-8.54607e-07
-4.27013e-07
7.48236e-05
-1.30847e-07
-4.83712e-08
0.000314086
-7.94089e-07
-1.65838e-08
-1.74805e-06
-0.000139564
-1.69109e-06
1.08614e-07
-1.72032e-07
-1.08051e-05
-6.89897e-05
-0.000818336
-0.000519545
-1.10081e-08
-6.79513e-08
5.00133e-07
-9.24606e-09
-1.38898e-07
-6.5211e-08
-2.03059e-07
1.30454e-06
-5.71497e-07
-3.0775e-07
-4.31712e-07
-7.06923e-08
-3.00636e-07
-3.9076e-09
-1.77113e-07
-2.17669e-07
-7.81879e-08
-3.86631e-07
-1.07514e-07
1.84239e-07
-2.44688e-07
2.52443e-07
5.8823e-07
1.56361e-07
-2.12665e-07
0.000143875
0.00415507
0.00207295
0.00153394
1.99945e-07
9.19636e-08
3.9986e-09
0.0022937
9.32588e-08
3.07785e-07
-1.96332e-07
0.00233536
-2.21668e-07
-7.8304e-07
-0.000120179
-3.10417e-07
-1.34343e-08
-4.39591e-07
1.66852e-08
-1.77423e-07
1.10463e-07
-2.09217e-07
1.1488e-07
-1.82726e-08
-2.91232e-07
-3.08129e-07
-2.31513e-07
7.05e-05
-9.42306e-07
-3.69681e-07
-7.1203e-07
-2.53167e-06
-3.25018e-07
-7.15339e-07
9.31879e-09
-0.00125649
-6.07139e-08
-2.72892e-07
-5.58472e-08
1.80071e-09
-4.33743e-07
4.19993e-09
-2.36791e-07
0.000131322
-1.25221e-07
-2.40556e-06
-6.96198e-07
-1.90696e-07
-3.41641e-07
-2.35814e-07
-4.8398e-08
-7.0874e-07
-6.12137e-08
-4.70265e-07
-4.22395e-07
0.00297398
1.51413e-07
-3.53094e-07
-1.60078e-07
0.00161404
-0.0155121
-5.99067e-07
4.37835e-09
-4.58697e-07
4.53703e-07
-1.18573e-06
-2.56008e-07
0.00389339
2.07833e-07
-1.46655e-07
1.11227e-07
-2.55062e-07
-3.08845e-06
-4.09545e-07
-0.0168289
-1.11656e-08
-3.16998e-07
-2.22348e-07
-1.3342e-07
-0.0113285
-0.00141176
-3.02976e-06
-1.55894e-06
-3.69616e-07
1.05451e-07
1.03876e-07
-0.0133384
-6.70658e-07
1.87802e-07
5.44775e-08
-7.16991e-08
-2.46109e-07
-2.31511e-06
6.17458e-08
-0.00160776
-1.16521e-06
-2.50165e-06
-3.28869e-07
-2.58879e-07
1.76888e-07
-7.13722e-08
-7.35485e-07
-1.64452e-07
-1.49904e-07
-0.000912609
-4.81953e-08
-1.7422e-07
-1.61587e-07
-0.00189835
-1.58255e-07
-0.0119376
3.86679e-07
-0.000746085
-6.29909e-08
1.91699e-07
-1.52237e-07
1.91671e-07
-2.16788e-07
-1.91821e-06
-2.61783e-07
-2.15565e-07
1.56128e-07
-3.28896e-07
-4.80684e-07
0.00202867
2.78286e-08
-2.32668e-07
4.29808e-07
-2.41851e-06
-2.38907e-07
-1.71547e-07
-8.64036e-07
0.00314846
-0.00910523
2.92341e-05
1.60334e-05
-5.18598e-06
-2.77339e-07
-2.03029e-07
-1.57681e-07
3.56588e-07
1.96212e-07
-0.000523188
-1.69634e-07
3.5624e-07
-1.72893e-07
1.0973e-07
-4.57117e-07
-5.12867e-07
-1.09572e-07
-1.74566e-07
-1.98151e-06