/*--------------------------------*- C++ -*----------------------------------*\
| =========                 |                                                 |
| \\      /  F ield         | OpenFOAM: The Open Source CFD Toolbox           |
|  \\    /   O peration     | Version:  v2012                                 |
|   \\  /    A nd           | Website:  www.openfoam.com                      |
|    \\/     M anipulation  |                                                 |
\*---------------------------------------------------------------------------*/
FoamFile
{
    version     2.0;
    format      ascii;
    class       surfaceVectorField;
    location    "650";
    object      ddtCorrDdt0(Uf);
}
// * * * * * * * * * * * * * * * * * * * * * * * * * * * * * * * * * * * * * //

dimensions      [0 1 -2 0 0 0 0];


internalField   nonuniform List<vector> 
14907
(
(-0.000217927 -0.000689955 1.73874e-18)
(-0.000220633 -0.000674466 -2.71042e-18)
(-0.000213646 -0.000679889 1.953e-19)
(-9.32349e-06 -0.000547643 3.91828e-18)
(-1.73712e-05 -0.000588585 -1.65165e-18)
(-1.54536e-05 -0.000571498 3.28781e-18)
(-0.00131217 0.000919601 1.77636e-19)
(-0.0013865 0.000933311 6.7056e-19)
(-0.00131221 0.00101663 -1.26595e-19)
(8.66867e-05 1.70332e-05 1.30275e-19)
(6.9705e-05 1.67397e-05 -9.05338e-20)
(0.0994494 0.000277019 1.6901e-17)
(0.0952375 0.000422329 1.4462e-18)
(0.104917 0.00113188 1.47004e-17)
(-7.19203e-06 -0.000455581 3.80651e-19)
(-2.25342e-06 -0.000409236 -9.50746e-22)
(-9.01997e-06 -0.000454522 2.1272e-19)
(0.0249321 -0.0674244 -1.72319e-18)
(0.0282958 -0.0666535 -1.30583e-17)
(0.0298981 -0.0624547 -1.88022e-17)
(0.0769082 -0.0234372 -4.33624e-20)
(0.0787631 -0.0213208 1.2786e-17)
(0.079299 -0.0249898 3.6439e-17)
(-0.000899212 0.000706867 1.8159e-19)
(-0.000931763 0.000663178 -2.45098e-19)
(-0.000864603 0.000655748 9.81717e-20)
(-8.70803e-05 -0.00032514 -2.57052e-18)
(-9.38376e-05 -0.000341858 -9.87999e-19)
(-0.000104781 -0.000337976 -2.36493e-19)
(0.0123261 0.00497526 -9.43049e-20)
(0.00935357 0.00451635 -1.57401e-18)
(0.0121034 0.00424515 -1.36021e-17)
(0.000127777 2.85783e-05 -1.25219e-19)
(0.000100172 1.47757e-05 -2.23122e-19)
(5.37567e-05 0.000124794 -4.93999e-20)
(4.28891e-05 0.000132347 -4.65566e-19)
(5.15261e-05 0.000136794 -1.96541e-21)
(0.000108908 7.59099e-05 4.21888e-19)
(0.000102745 7.06273e-05 -1.7015e-19)
(9.90013e-05 8.13006e-05 2.60083e-19)
(0.000348611 -0.000577786 1.19502e-17)
(0.000305447 -0.00055717 3.94211e-18)
(0.000330774 -0.000513381 9.55182e-19)
(-5.08554e-05 -0.00055559 1.93377e-18)
(-4.22645e-05 -0.000533638 -7.99048e-20)
(-4.33618e-05 -0.000527947 -1.30451e-18)
(-6.48384e-05 -0.000576442 -8.2915e-19)
(-6.16185e-05 -0.000587208 -2.67824e-19)
(2.86552e-06 2.11481e-05 -4.0812e-18)
(2.91864e-06 2.23791e-05 1.13752e-19)
(4.31633e-06 2.50023e-05 -1.91382e-18)
(-0.000202409 -0.000712 -1.85789e-18)
(-0.000215128 -0.000694637 4.73106e-18)
(0.00537618 0.00536143 -2.09496e-17)
(0.0057827 0.00506937 -2.67592e-17)
(0.0053612 0.00491215 3.14861e-18)
(-0.000220744 -0.000192642 -6.97149e-19)
(-0.000228649 -0.000204495 -1.97813e-18)
(-0.000236627 -0.000174647 -6.89816e-19)
(-0.0444477 -0.0152335 -1.78563e-18)
(-0.0491841 -0.0161855 -1.66303e-17)
(-0.0471547 -0.0169959 -1.04566e-17)
(8.1978e-05 3.86083e-05 4.78542e-20)
(7.38688e-05 4.14131e-05 -1.19016e-18)
(8.23749e-05 4.80983e-05 -4.21718e-19)
(-9.28029e-05 0.00020187 8.53046e-19)
(-8.70459e-05 0.000206405 -2.56115e-19)
(-7.48931e-05 0.000193503 -2.45583e-20)
(-4.25975e-06 -0.000509428 7.73671e-19)
(-3.5005e-06 -0.000524698 -1.59082e-18)
(-0.00810736 8.68361e-05 8.46183e-18)
(-0.00849987 0.000285363 -2.89005e-18)
(-0.00806458 0.000532384 9.63352e-18)
(2.48631e-05 -0.000178465 -2.28115e-18)
(2.11418e-05 -0.000126599 6.19511e-19)
(2.27759e-05 -0.000125218 -5.81603e-18)
(-0.000324206 -0.000942001 -2.75115e-18)
(-0.000294132 -0.000894775 -4.70902e-19)
(-0.000343575 -0.000885864 -3.21663e-20)
(-0.000918819 0.000183564 1.2204e-18)
(-0.000910657 0.000165335 -2.82104e-19)
(-0.000885359 0.000195632 7.99774e-19)
(-0.000559222 -0.000748567 -2.39512e-18)
(-0.00061011 -0.000777401 1.59155e-18)
(-0.000549186 -0.000814231 -1.18415e-18)
(-1.94973e-05 -0.000729435 1.49173e-18)
(-2.69859e-05 -0.000764004 -1.12742e-18)
(-1.63084e-05 -0.000727834 1.81984e-19)
(-0.00702914 0.000337938 -1.42016e-17)
(-0.00716585 0.000909904 3.01405e-17)
(-0.00682148 0.00022172 -5.02615e-18)
(-8.41293e-05 -0.000308807 1.37128e-18)
(-7.41342e-05 -0.000306217 5.37146e-19)
(-0.00118676 -0.00070416 -1.14143e-18)
(-0.00118681 -0.000774971 -5.45987e-19)
(-0.00111816 -0.000719378 1.08085e-18)
(-0.00407237 -0.00259467 2.58584e-18)
(-0.00420019 -0.00236475 -5.9102e-18)
(-0.00396176 -0.00237846 -2.1933e-18)
(-9.73672e-05 0.000198262 7.42819e-19)
(-0.000111911 0.000210673 5.87235e-19)
(-0.00738431 -0.000172407 -5.15209e-18)
(-0.00776771 -6.14404e-05 -2.90265e-19)
(-0.0073729 0.000214815 -1.9687e-18)
(-0.0116763 0.00379131 -2.7272e-18)
(-0.0111149 0.00399371 -3.60953e-18)
(-0.0112234 0.00340678 1.62445e-18)
(-0.000102776 0.000191997 -1.45984e-18)
(-8.49749e-05 0.000184681 -6.19573e-19)
(0.000725669 -0.00320228 1.51028e-18)
(0.000779599 -0.00337701 3.48325e-18)
(0.000914733 -0.00314415 -2.41565e-18)
(0.00532821 0.0056814 1.81112e-17)
(0.005065 0.00534443 -1.85302e-17)
(0.000194276 -0.000588098 -3.11606e-18)
(0.000230811 -0.000617097 -3.37999e-18)
(0.00018421 -0.000633212 -7.46782e-18)
(0.0213328 -0.068115 1.33495e-17)
(0.0215859 -0.072179 1.24376e-17)
(-0.000343146 -0.000332932 1.7571e-18)
(-0.00034849 -0.000343727 1.32301e-18)
(-0.000357923 -0.000331073 -3.66483e-18)
(0.105371 -0.000150864 -5.01368e-19)
(0.0908941 -0.000160219 -2.95847e-18)
(-0.0215008 -0.000938088 5.72435e-18)
(-0.0218492 0.000320059 -2.25637e-17)
(-0.0204681 -5.17557e-07 -1.66499e-17)
(-5.9177e-05 -0.000389036 -3.52062e-18)
(-4.39853e-05 -0.000421017 -3.05917e-18)
(-2.24374e-05 -0.000378304 -8.51524e-18)
(-0.0367767 0.00714432 9.59441e-18)
(-0.0350232 0.00778632 -2.21122e-18)
(-0.0365689 0.0093451 9.53505e-18)
(-0.00600441 -0.0010748 2.09863e-18)
(-0.00609417 -0.00136496 -3.10949e-18)
(-0.00629481 -0.00108562 -2.78889e-18)
(-0.017291 0.0165379 -1.41487e-18)
(-0.0162981 0.0175065 -9.68227e-19)
(-0.0158127 0.0159467 1.30547e-17)
(9.45409e-06 -1.01027e-06 -6.35497e-19)
(8.84124e-06 -3.84694e-06 1.176e-18)
(8.27533e-06 -5.39752e-06 -1.94642e-18)
(0.000703333 0.00364711 8.78746e-19)
(0.000624597 0.00388475 1.33328e-18)
(0.000189396 -0.0003577 -2.18959e-18)
(0.000235244 -0.000362744 2.152e-19)
(0.000221875 -0.000326572 -7.01652e-18)
(-0.000531622 0.00494852 7.17125e-19)
(-0.000686209 0.00472757 -2.20127e-18)
(-0.000810747 0.00509591 -5.476e-19)
(-0.00745839 -0.000592507 -3.16296e-18)
(-0.00707333 -0.000344702 -2.80496e-18)
(-8.44323e-06 -0.00049135 -1.22247e-18)
(-7.61344e-06 -0.000459484 -6.30242e-18)
(-0.00093756 0.000209554 -3.63311e-19)
(-0.000961563 0.000169462 8.15131e-19)
(-4.61682e-05 -0.000360625 -2.27953e-19)
(-9.1162e-05 -0.000372735 7.11223e-18)
(-0.00124692 -0.000688861 5.95408e-19)
(-0.0011825 -0.00063867 -2.67329e-19)
(0.000180339 -0.000365177 1.06177e-18)
(0.000212165 -0.000382696 2.45831e-18)
(-9.52543e-06 -0.000648781 5.61578e-19)
(-7.02177e-06 -0.000612217 2.85137e-18)
(-1.04787e-05 -0.000654706 -2.15165e-18)
(-5.45419e-05 -0.000788805 4e-18)
(-5.63196e-05 -0.000775007 -2.1736e-18)
(-4.73693e-05 -0.000760361 -5.40498e-19)
(-0.00391247 -0.002856 4.62406e-18)
(-0.00423648 -0.00286801 2.67103e-18)
(-0.00123145 0.000902353 -5.11221e-19)
(-0.00129892 0.000830606 3.3111e-19)
(2.96095e-05 -0.00019365 -2.15185e-18)
(4.21079e-05 -0.000168726 -5.67449e-18)
(4.58468e-05 -0.000198585 -5.00434e-18)
(-0.00130316 -0.000668699 1.49568e-19)
(-0.00129602 -0.000588246 -6.69215e-19)
(-0.00139545 -0.000662514 -1.42834e-18)
(-1.66653e-05 -0.000275757 1.87609e-18)
(-3.82383e-06 -0.000276593 -4.96876e-19)
(-2.66969e-05 -0.00029736 -2.80329e-18)
(0.00437274 0.00387513 2.07019e-18)
(0.00392139 0.00371151 8.63395e-18)
(0.00431854 0.00333482 -7.81437e-18)
(0.0272196 -0.00792631 -1.57252e-18)
(0.0317041 -0.00860292 1.0314e-17)
(0.0312607 -0.00644903 -1.89414e-17)
(-0.000493657 -0.000203649 -3.41776e-18)
(-0.000495008 -0.000213521 2.69872e-18)
(-0.000476092 -0.000216904 -3.22548e-19)
(-0.000353395 0.00523423 -1.96391e-18)
(-0.000262492 0.00484181 3.14563e-18)
(0.00571408 0.00615079 2.68447e-17)
(-0.000320744 -0.000338923 3.28651e-18)
(-0.000325067 -0.000341071 -2.69405e-18)
(0.00129707 0.000824327 -6.15819e-19)
(0.00124125 0.000928138 -1.94194e-17)
(0.0013402 0.000923287 -9.1129e-18)
(-7.21897e-06 -0.000301724 5.57307e-18)
(-1.10947e-05 -0.000309469 -3.1101e-18)
(-7.40565e-06 -0.000338932 5.82966e-18)
(-8.14692e-05 0.000210253 -6.36797e-19)
(-0.000101988 0.000217834 -1.68515e-19)
(0.0814023 -0.00136966 -1.74033e-17)
(0.0917703 -3.89237e-05 2.02471e-17)
(-0.000192529 -0.000730602 -8.31989e-18)
(-0.000179548 -0.000749156 1.21683e-18)
(-0.000186863 -0.000737472 -3.81751e-18)
(0.00162328 -0.000130831 -1.22856e-17)
(0.0015194 -4.7045e-05 -1.12547e-18)
(0.00152509 -0.000192715 6.63424e-18)
(0.036024 -0.0610317 2.06753e-17)
(0.0315617 -0.0656815 3.11617e-17)
(0.03406 -0.0639614 2.54846e-17)
(-0.00571696 -0.00109463 2.12831e-18)
(-0.00587197 -0.000842904 2.20155e-18)
(0.112675 0.000978697 -2.46521e-17)
(0.117792 0.00196466 4.05174e-19)
(-0.000684726 -0.000359497 1.12366e-19)
(-0.000683028 -0.000331781 -1.4098e-18)
(-0.000710719 -0.000357481 1.93034e-18)
(0.000110836 -0.000536395 -5.26325e-18)
(0.000105438 -0.000493484 7.10127e-19)
(7.66197e-05 -0.000512724 -8.91607e-19)
(-1.72456e-05 -0.000300638 -6.9852e-20)
(-2.80295e-05 -0.000278373 9.19103e-19)
(1.72705e-05 5.01446e-05 -2.26337e-19)
(2.21211e-05 5.2798e-05 7.76433e-18)
(1.53825e-05 6.46474e-05 2.18286e-18)
(-0.000280421 -0.000578722 3.15919e-19)
(-0.000257441 -0.000607255 1.4021e-18)
(-0.00027484 -0.000575576 -1.43191e-18)
(0.0084361 -0.0153951 1.11774e-17)
(0.00804035 -0.0144077 -1.11045e-17)
(0.00743028 -0.0153545 -5.27006e-18)
(-0.000198899 -0.000360286 9.29047e-19)
(-0.0001916 -0.000355807 4.42533e-18)
(-0.000190098 -0.000337177 -5.81248e-19)
(-0.000285905 -0.000551682 -2.53373e-18)
(-0.000271135 -0.000574964 -2.03689e-18)
(-0.00174771 -0.000242856 1.39045e-19)
(-0.0017812 -0.000162321 2.51435e-19)
(-0.00166245 -0.000177239 -4.5552e-20)
(0.118713 0.00170301 -1.4128e-18)
(0.105734 0.00114183 2.03248e-17)
(-0.000352654 -0.000987142 -1.49095e-18)
(-0.000298601 -0.00100319 -7.24536e-19)
(0.000616816 0.00348348 -5.23921e-19)
(-0.000515249 -0.000710914 -5.97908e-19)
(-0.000559835 -0.000680997 -3.31579e-19)
(-0.000887486 -7.28308e-05 -2.26446e-18)
(-0.000861032 -8.65468e-05 -1.23554e-18)
(-0.000903209 -0.000106441 3.49552e-18)
(-0.000210744 -0.000641701 -2.50083e-18)
(-0.000200426 -0.000660733 -4.48066e-19)
(-0.000197535 -0.000649154 -4.56468e-18)
(-0.00070826 -0.000114879 -6.10067e-20)
(-0.000707945 -8.89373e-05 1.16022e-18)
(-0.000686254 -9.80915e-05 -8.08389e-19)
(0.000685547 -0.00296708 -1.45477e-18)
(0.000553367 -0.00318731 4.80326e-19)
(-0.00102167 0.000311241 -1.43572e-19)
(-0.00106877 0.000311361 -1.16751e-19)
(-0.00102727 0.000346718 2.95803e-21)
(1.35943e-07 8.18991e-06 -4.35534e-20)
(1.68469e-07 8.05289e-06 -2.4075e-18)
(0.00200462 -0.0158317 4.69528e-18)
(0.00267375 -0.0155388 1.43064e-17)
(0.00257919 -0.0164053 -1.58723e-17)
(0.0732046 -0.0274918 1.56754e-17)
(0.06774 -0.0331466 8.47768e-18)
(0.0668878 -0.0260968 6.0405e-18)
(2.11844e-05 3.76332e-05 -7.31437e-19)
(1.63368e-05 4.60959e-05 -4.43549e-19)
(-0.000215128 -0.000764696 -3.36145e-18)
(-0.000182504 -0.000715355 2.51084e-19)
(-0.000240073 -0.000703823 3.00447e-19)
(0.00373981 -0.00661032 9.6766e-20)
(0.00398145 -0.00715943 -1.56319e-18)
(0.00433336 -0.00650157 -3.24215e-19)
(-0.000169468 -0.000730067 -2.93682e-18)
(-0.000169788 -0.000715583 6.747e-18)
(-0.000178692 -0.000718122 -5.23844e-18)
(-0.000224388 -0.000621319 1.41552e-18)
(-0.000225245 -0.000637411 3.19237e-18)
(-0.000207684 -0.000200816 3.37549e-19)
(-0.000218117 -0.000180409 1.19779e-18)
(0.000423671 0.000486818 -1.08122e-19)
(0.000405063 0.000446542 1.77766e-22)
(-0.000121952 4.88311e-05 1.06328e-18)
(-0.0001326 3.97067e-05 6.36613e-19)
(-0.000132122 5.29686e-05 1.29223e-19)
(-0.000508563 -0.000110453 -1.33866e-18)
(-0.000513394 -9.01429e-05 -8.69951e-19)
(-0.000506926 -0.000101585 -1.53138e-18)
(-0.00161229 -0.00299395 -5.8059e-20)
(-0.00145671 -0.00295638 1.87021e-19)
(-0.00153288 -0.00280604 -7.2093e-20)
(0.0235265 -0.00909656 -1.10249e-17)
(0.023481 -0.00713735 5.53267e-18)
(1.12859e-05 -0.000205313 1.72456e-17)
(2.39308e-05 -0.000182154 -2.41395e-18)
(-0.000447843 -0.000196695 -3.31605e-18)
(-0.000453363 -0.000188813 -4.78778e-18)
(-0.000437917 -0.000213087 -2.58337e-18)
(-5.5412e-05 -0.000867656 1.16884e-18)
(-3.71339e-05 -0.000881384 -5.2052e-18)
(-4.63837e-05 -0.000854986 -1.90805e-18)
(-0.000193426 -0.000721482 -2.2518e-19)
(-0.000914475 -6.03517e-05 -2.02485e-18)
(-0.000868928 -3.92553e-05 2.11018e-19)
(0.00811818 -0.003325 6.26886e-19)
(0.00400432 -0.00484444 6.85112e-18)
(0.00828787 -0.00471413 2.61891e-17)
(-0.000190542 -0.000377641 -1.60504e-18)
(-0.000201891 -0.000382576 8.30069e-19)
(0.0766074 -0.0250662 7.40258e-18)
(0.0648348 -0.0184315 -2.42274e-17)
(-0.00042459 -0.000359725 6.35735e-19)
(-0.000432607 -0.000373044 -1.01461e-18)
(-0.000438142 -0.000353603 -2.05237e-18)
(-1.71682e-05 -0.000910807 8.03668e-18)
(-2.14086e-05 -0.000908591 -9.70904e-19)
(-1.74519e-05 -0.00089969 6.91574e-18)
(0.00128585 -0.0162139 -3.39521e-18)
(0.00133015 -0.015391 -2.96228e-18)
(-0.000653977 -0.000372093 7.03371e-19)
(-0.000698844 -0.000405455 -1.21942e-18)
(0.0841887 -0.0176444 3.57813e-18)
(0.0590687 -0.0189676 -6.76701e-18)
(-0.00527783 -0.00284364 -4.74902e-18)
(-0.0054493 -0.00261227 1.40622e-18)
(-0.00563579 -0.00298244 -9.69688e-19)
(0.00351019 -0.00626295 5.02332e-19)
(0.00397303 -0.00612943 3.93658e-19)
(-0.000306066 -0.000533137 2.77579e-19)
(-0.000334782 -0.000492544 2.79015e-18)
(-0.000297917 -0.000504962 -8.74517e-19)
(0.00168991 -2.43122e-05 -1.71266e-17)
(0.00175263 -0.000188035 1.08265e-17)
(-0.000107637 -0.000319392 -1.17373e-18)
(-0.000113524 -0.000320732 6.82225e-19)
(-8.00142e-05 -0.000309731 5.41601e-19)
(0.0124868 -0.00267117 -1.23123e-17)
(0.012595 -0.00165893 8.15965e-19)
(0.011456 -0.00232666 -2.31157e-17)
(-0.0215815 -0.0232982 4.57641e-18)
(-0.022692 -0.022772 -5.6167e-18)
(-0.021339 -0.0233244 1.81242e-17)
(-0.00102115 0.000276322 -1.35192e-19)
(-0.000972354 0.000310339 1.91046e-19)
(0.00147198 -0.0103937 9.4902e-18)
(0.00110103 -0.00998159 -1.99223e-18)
(0.000964059 -0.0105178 7.7674e-18)
(-0.00121975 -0.00325281 -2.78214e-18)
(-0.0022414 -0.00277069 1.30245e-17)
(-0.00166117 -0.0027233 7.43155e-18)
(-0.00180113 -0.000305968 6.60028e-20)
(-0.00171449 -0.000284209 -9.28999e-20)
(-0.0387366 0.00635994 9.13532e-18)
(-0.0367599 0.00507579 -4.42643e-18)
(0.0088924 -0.015941 1.54645e-17)
(0.00926769 -0.0151504 3.46626e-18)
(-8.80409e-05 -0.000687596 -2.53237e-18)
(-3.71662e-05 -0.000676826 4.90022e-18)
(-3.93709e-05 -0.000729 3.15341e-18)
(-4.86112e-05 -0.000868189 5.04065e-18)
(-6.23255e-05 -0.000850061 6.56682e-18)
(-0.00012591 -0.000530724 1.03704e-19)
(-9.77458e-05 -0.000601318 2.19178e-18)
(-0.000170829 -0.000578165 -4.56778e-19)
(-0.00175414 -0.0202157 1.62188e-17)
(-0.00100224 -0.0199661 1.96329e-17)
(-0.00169447 -0.0195504 1.75863e-17)
(0.000312752 0.00257034 -4.54287e-19)
(0.000471124 0.00256 -6.0438e-19)
(0.000361138 0.00241562 3.26346e-20)
(-0.000488324 -0.000127033 -2.48179e-18)
(-0.000508591 -0.000102216 -6.16195e-19)
(-0.0018023 -0.0115244 4.48153e-18)
(-0.00178808 -0.0110711 -1.61017e-17)
(-0.00130737 -0.0113235 -7.05282e-18)
(0.000464156 0.000921191 -3.70025e-19)
(0.000411848 0.000877089 -4.56407e-19)
(0.000396463 0.000947006 4.34697e-20)
(-0.000727663 -0.000135179 2.59848e-19)
(-0.00070148 -0.00014058 -3.00787e-19)
(-0.000399222 -0.00247496 -3.44679e-19)
(-0.000252306 -0.00235156 8.78048e-19)
(-0.000439698 -0.00228542 -6.58494e-19)
(-0.000952716 0.000807236 -7.49137e-20)
(-0.000895177 0.000853017 3.8736e-21)
(-0.000974783 0.000868698 -3.00903e-19)
(1.93382e-06 7.9305e-06 7.67746e-19)
(2.61557e-06 9.90756e-06 2.01882e-18)
(1.55925e-06 8.10108e-06 -3.55024e-19)
(0.0300632 -0.0595464 -2.66001e-17)
(0.0343417 -0.0558568 -8.61563e-18)
(0.0289937 -0.0571544 -1.06704e-17)
(0.00796542 -0.00711425 -2.50664e-18)
(0.00540956 -0.00571272 4.30211e-17)
(0.00582853 -0.00638935 7.06187e-17)
(1.91986e-05 6.15708e-05 -3.67526e-18)
(1.73648e-05 9.05824e-05 6.28983e-19)
(1.75896e-05 8.76744e-05 -1.0237e-18)
(5.61991e-05 0.00011236 -1.45429e-19)
(6.73854e-05 0.000118963 -4.63669e-19)
(9.58795e-05 -5.05919e-05 -5.68081e-18)
(8.95026e-05 -6.99312e-05 -1.36068e-18)
(8.24675e-05 -5.71696e-05 -6.06436e-18)
(-5.66015e-05 -0.000805352 1.02786e-18)
(-7.03357e-05 -0.000806557 4.11929e-18)
(0.00196954 -0.0100901 -4.82392e-18)
(0.0019693 -0.0106594 -6.15073e-18)
(0.000764778 0.0112909 2.60363e-17)
(-0.00596087 0.00641049 2.22665e-17)
(-0.00345828 0.00946197 3.87289e-17)
(0.00460871 0.00660042 1.72314e-17)
(-0.00162968 0.00551503 4.09409e-17)
(0.00657233 0.00674385 -6.43556e-18)
(-0.0168543 -0.0189996 -6.81582e-18)
(-0.0175745 -0.018276 1.59353e-18)
(-0.0178257 -0.0194053 -1.96475e-18)
(-3.60072e-05 -0.000846155 -5.61636e-19)
(-4.37829e-05 -0.000833147 2.88098e-19)
(-4.9231e-05 -0.000851579 -2.08715e-18)
(-0.000930009 0.000757834 1.2605e-19)
(-0.000998673 0.000769693 4.50545e-20)
(-0.000824719 -0.000418349 8.45351e-20)
(-0.000815858 -0.00044877 -2.77771e-18)
(-0.000844618 -0.000447243 1.34736e-18)
(-0.000119189 -0.000348518 8.88876e-19)
(-0.000102322 -0.000347828 -7.43784e-19)
(0.00613941 -0.00251708 7.12265e-19)
(0.00657932 -0.00235865 -4.96486e-18)
(0.00637535 -0.00287112 7.14256e-19)
(0.0223121 0.0138172 -1.4944e-18)
(0.0204362 0.0166562 -1.68411e-17)
(-0.00615402 -0.000313901 -1.3862e-17)
(-0.00585522 -0.000153791 -3.95544e-18)
(0.00976318 -0.00718161 3.09753e-17)
(0.0134892 -0.00728447 -4.03265e-17)
(-0.000957142 0.00398504 8.33777e-19)
(-0.000769568 0.0037981 2.62263e-18)
(-0.00108084 0.00372347 2.89676e-18)
(-0.000378508 -0.000170284 -5.9295e-20)
(-0.0003908 -0.000143254 -9.69349e-20)
(-0.000385902 -0.000130241 -7.54264e-19)
(0.122725 0.0032774 1.84278e-17)
(0.120449 0.00294966 -2.88468e-19)
(0.00706127 0.00545639 -1.2308e-17)
(0.00637051 0.00533545 -2.95184e-17)
(0.00667943 0.00596823 -2.60676e-17)
(0.00329677 -0.000752817 -7.12986e-18)
(0.00330022 -0.000973408 -7.64566e-18)
(0.00306722 -0.000857498 2.15713e-17)
(-0.0133116 -0.0879791 6.15892e-18)
(-0.00870984 -0.0847541 3.40667e-18)
(-0.00862528 -0.0915532 -5.775e-18)
(0.00806345 -0.0134671 1.10515e-17)
(0.00816646 -0.0129877 2.07375e-17)
(0.0104031 -0.014075 3.36655e-17)
(-0.000383558 -0.000351442 2.28785e-18)
(-0.000394374 -0.000336233 3.35768e-18)
(-0.000401369 -0.000347866 -4.91795e-18)
(0.00473278 0.00382565 -1.5331e-17)
(0.004418 0.00409096 1.28014e-17)
(-0.00172947 -0.00532838 -3.56342e-18)
(-0.00187822 -0.0051069 4.19297e-18)
(-0.00157672 -0.00506283 3.85378e-18)
(9.96475e-05 -3.11636e-05 -3.15025e-18)
(0.000111908 -4.50212e-05 -2.39161e-18)
(-0.006556 0.000470681 -2.45605e-17)
(-0.00537517 -0.00143428 2.04605e-17)
(-1.59337e-05 -0.000254718 3.65633e-18)
(-1.94176e-05 -0.000265869 -3.24346e-18)
(-1.02492e-05 -0.000250659 7.13918e-19)
(-0.00500749 -0.00272855 -1.58138e-19)
(-0.00508119 -0.00302518 -2.1028e-18)
(0.000152703 -0.000566237 4.70335e-18)
(0.00019055 -0.000540428 -4.16239e-19)
(0.00665967 -0.00309979 -9.26332e-18)
(0.0180939 -0.00162741 1.16662e-17)
(-0.0156866 -0.0255309 9.85072e-19)
(-0.0167359 -0.0252635 5.84584e-19)
(-0.0157482 -0.0244313 -3.41955e-18)
(-0.00121029 -0.000448219 9.2793e-19)
(-0.00117654 -0.000407412 -1.26829e-18)
(-0.00115585 -0.000448468 5.12805e-19)
(0.00441144 0.00287993 9.25031e-20)
(0.0101865 0.00410879 1.19803e-17)
(0.011511 0.00247989 1.44788e-17)
(-0.00346489 -0.00107214 4.91554e-18)
(-0.00337239 -0.000923209 -2.89985e-18)
(-0.00355828 -0.000935668 -1.13026e-18)
(0.0162787 0.0122052 1.73294e-17)
(0.0152187 0.010686 5.24892e-19)
(0.0144535 0.0124363 4.35578e-18)
(-7.5486e-05 -0.000484075 -1.55751e-19)
(-5.14225e-05 -0.000577202 -5.05164e-19)
(0.0259673 -0.0620656 3.64833e-17)
(0.0310644 -0.0617515 -2.19082e-17)
(0.107398 -0.00196924 -7.22264e-18)
(0.112804 0.000382523 3.03698e-17)
(-0.0231582 -0.0129465 2.32253e-18)
(-0.0221736 -0.0122833 1.9157e-17)
(-0.0222861 -0.0136411 8.26726e-19)
(0.0714424 -0.0150884 3.45835e-17)
(0.117785 -0.00814016 3.28313e-17)
(0.10944 -0.00561837 -4.06761e-18)
(-0.00551561 2.17045e-05 2.37329e-19)
(-0.00530339 0.000193041 -3.1895e-18)
(-0.00558766 0.000326518 -1.75569e-18)
(-0.000153496 -0.000781906 -9.45147e-19)
(-0.000164614 -0.000762802 -1.74763e-18)
(-0.000159635 -0.000774165 -1.89247e-18)
(5.81895e-05 0.000101188 1.30068e-19)
(4.66084e-05 0.000104211 6.28731e-20)
(-0.00155781 -0.00169752 2.79232e-18)
(-0.00150855 -0.00174682 5.6131e-19)
(-0.00153742 -0.00167094 3.22683e-19)
(0.00282432 -1.78895e-05 -1.24794e-17)
(0.00288387 -0.000212865 -6.52516e-18)
(0.00266316 -0.00016372 8.38965e-18)
(-0.00124111 -0.000454248 1.09903e-18)
(-0.00121953 -0.000490077 7.73811e-19)
(-0.000539963 -6.08445e-05 1.6463e-18)
(-0.000556221 -3.56582e-05 1.76533e-18)
(-0.000529616 -4.72547e-05 -1.59871e-18)
(0.0074853 0.00496863 1.05206e-17)
(0.00766639 0.00558517 -1.20546e-17)
(-1.45847e-05 -0.000256775 2.53031e-18)
(-0.000459454 0.000350505 -2.25013e-19)
(-0.000458087 0.000355739 1.43294e-19)
(-0.000485847 0.000356444 -5.48326e-19)
(0.0192684 0.0142313 3.10328e-18)
(0.0176941 0.0102436 7.4347e-18)
(2.01645e-05 -5.30205e-05 1.97635e-18)
(2.16956e-05 -4.20557e-05 2.22253e-18)
(1.96386e-05 -6.52333e-06 -2.5658e-18)
(2.88568e-06 2.66762e-05 -1.42295e-18)
(2.98913e-06 2.82228e-05 -3.13981e-19)
(4.60476e-06 3.17499e-05 2.02021e-18)
(6.75348e-06 0.000112189 -3.22858e-19)
(8.6649e-06 0.000117084 -5.97543e-19)
(1.08343e-05 0.000118577 -8.40255e-19)
(0.00507297 -0.0273479 4.51913e-18)
(0.0129347 -0.0239001 -2.57223e-17)
(0.000154394 3.66298e-05 -1.46295e-19)
(0.00016582 3.84488e-05 -1.06565e-19)
(0.000155816 2.55189e-05 3.50852e-20)
(0.00591309 -0.00208832 -2.38685e-18)
(0.00575137 -0.00253152 2.02405e-18)
(0.0154093 -0.00422968 -2.26308e-18)
(0.015221 -0.00331037 -1.08876e-18)
(0.0162679 -0.00367499 7.80743e-18)
(8.17567e-05 -9.08307e-05 2.26914e-18)
(0.000103768 -8.99994e-05 -1.53864e-19)
(-0.0140382 -0.0259928 -1.02177e-17)
(-0.0149228 -0.025742 1.00318e-17)
(-3.59109e-05 -0.000401223 -4.02281e-18)
(-4.85933e-05 -0.000374289 -9.88534e-18)
(-4.77622e-05 -0.000402765 -5.07397e-18)
(-0.000107224 -0.000565171 1.28965e-20)
(-0.000112127 -0.000582589 -1.11129e-18)
(-0.000125153 -0.000579712 9.50734e-19)
(-0.00382124 -0.0128881 3.11532e-18)
(-0.00441212 -0.0129957 9.71943e-18)
(-0.00396539 -0.0135834 6.38111e-18)
(-0.000484561 0.000151297 -3.07045e-19)
(-0.000476779 0.000164414 9.56078e-19)
(-0.000458231 0.000140628 2.36522e-18)
(-0.00178314 -0.00302031 -1.56447e-19)
(-0.00169079 -0.00319822 -3.46528e-19)
(0.000161363 -7.86234e-05 -2.53463e-18)
(0.000138713 -7.70085e-05 3.62085e-18)
(0.000148678 -9.91981e-05 -1.59366e-18)
(0.0165924 -0.0101672 -1.07406e-17)
(0.0158355 -0.0094571 -1.19483e-17)
(0.01559 -0.0105184 -2.54716e-18)
(-0.0121981 0.00339751 -2.20501e-18)
(-0.0122493 0.0041709 -1.89299e-18)
(0.000723369 -0.000605564 -1.5975e-17)
(0.000795835 -0.000700752 -8.60761e-18)
(0.000815306 -0.000555755 -3.47835e-18)
(-0.0088451 0.000498765 -7.69002e-18)
(-0.00923754 0.00074721 1.23498e-19)
(-0.00881416 0.000967996 1.33301e-18)
(-0.0275747 -0.025321 1.4261e-17)
(-0.0337574 -0.0260524 2.08475e-18)
(-0.0160679 -0.0299575 -1.15402e-17)
(-0.000480574 -0.000146935 -2.8414e-18)
(-0.000462042 -0.000167659 6.16481e-20)
(-0.000478615 -0.000146446 -4.62946e-19)
(-0.0141121 -0.0218479 4.27181e-19)
(-0.0136678 -0.0227038 -2.58858e-17)
(-0.0131397 -0.0218044 1.1666e-18)
(-0.000199131 0.00548393 -4.76505e-18)
(-0.000486064 0.00562267 -2.07559e-18)
(-0.000855484 0.000745309 1.4225e-20)
(0.00898517 0.00309879 -2.07483e-17)
(0.00904612 0.00256547 1.06395e-17)
(0.00961208 0.00284493 1.5032e-18)
(-0.000367809 -0.000191758 1.67638e-18)
(-0.000369013 -0.000205412 -2.21113e-18)
(-2.2277e-05 0.00576869 -2.32964e-19)
(8.46823e-05 0.00537137 -1.92368e-18)
(-0.00145779 0.00098817 1.5056e-19)
(-0.00144748 0.000891948 6.18489e-19)
(-0.00045299 -0.00259934 2.85564e-18)
(-0.000324056 -0.00261742 -1.9876e-18)
(-0.000506443 0.000317836 -4.07911e-19)
(-0.000529085 0.000313139 -2.19422e-19)
(-0.000522607 0.000323732 7.41705e-19)
(0.000127304 6.7634e-05 -1.56739e-19)
(0.000138712 6.38234e-05 8.73164e-20)
(0.000128635 7.61025e-05 -2.1301e-20)
(-0.00343874 0.000944666 -1.1544e-18)
(-0.00359549 0.00103356 -4.67554e-19)
(-0.00359645 0.000820447 -8.48522e-20)
(-0.00228939 0.00927988 -2.3958e-18)
(-0.00248186 0.00879615 -2.11295e-18)
(-0.00277947 0.00932715 3.01813e-18)
(-3.11576e-05 -0.000857399 5.55483e-19)
(-2.49035e-05 -0.000839927 -3.15656e-18)
(-0.000393751 -0.000397289 1.32989e-18)
(-0.000845396 -0.000377785 -1.16169e-18)
(-0.000802869 -0.000373067 6.18807e-19)
(-0.00129728 -0.00294233 -5.83459e-20)
(-0.00136272 -0.00315463 6.95385e-20)
(-0.000437344 -0.000209738 -1.30178e-18)
(-0.000452624 -0.000182123 7.68024e-18)
(-1.31365e-05 -0.000698634 5.37946e-19)
(-1.70036e-05 -0.00073235 2.51872e-18)
(2.10993e-06 5.95801e-05 1.79029e-20)
(-4.59699e-06 4.72615e-05 -7.16601e-20)
(-1.05569e-05 5.9021e-05 4.93593e-19)
(-0.000191211 -0.000805027 -5.50323e-18)
(-0.000233384 -0.000802237 1.1803e-18)
(-0.000723403 0.00447892 -4.97883e-18)
(-0.000899966 0.00421816 -6.50373e-18)
(-0.000563507 0.0042817 4.81191e-19)
(1.15069e-06 1.50174e-05 -1.51313e-18)
(2.93992e-06 1.94933e-05 -2.86636e-19)
(6.25852e-05 8.03978e-05 5.7388e-20)
(6.72789e-05 7.04759e-05 -5.90769e-19)
(7.32381e-05 7.53432e-05 2.28669e-19)
(-0.000482906 -0.000193729 -2.16675e-18)
(-0.000507903 -0.000182709 -8.01824e-19)
(1.22562e-05 -0.00154036 -3.59565e-18)
(9.44144e-05 -0.00157234 6.65779e-18)
(1.77952e-05 -0.00165028 -8.55191e-18)
(0.0176306 -0.00999868 5.3098e-18)
(0.0171496 -0.0110247 3.33597e-18)
(-0.0160321 -0.01856 -7.29015e-18)
(-0.016267 -0.0197299 7.32893e-19)
(-0.00271634 0.00194504 -4.10222e-18)
(-0.00422499 0.00301309 1.0919e-17)
(0.003548 -0.000656159 -1.7482e-18)
(0.00331691 -0.000518309 5.65433e-18)
(0.00333248 -0.00106516 -2.71858e-18)
(0.00332996 -0.00165183 8.44791e-19)
(0.00273715 -0.00122018 1.6479e-18)
(0.000412445 -0.000579816 2.85544e-18)
(0.000377361 -0.000646855 -5.73208e-18)
(-0.0222578 -0.00149359 1.93928e-17)
(-0.0236027 -0.00153956 -2.25983e-18)
(-0.0229036 -0.0028428 -1.40883e-18)
(0.00677389 -0.070817 -1.06655e-17)
(0.00219183 -0.0723876 -3.48646e-18)
(0.00548524 -0.0770072 -1.28468e-17)
(-0.00327926 0.000840226 -2.81774e-18)
(-0.00326696 0.00103191 -3.92502e-19)
(-0.000165157 -0.000747726 -4.04651e-18)
(-0.000162308 -0.000748628 -3.44483e-18)
(0.000115663 7.06172e-05 1.56243e-19)
(0.000127813 6.05769e-05 8.34847e-20)
(-0.00145081 -0.00168596 1.21127e-18)
(-0.00148722 -0.00157449 -7.7169e-19)
(-0.000492993 0.000312183 -6.28644e-20)
(-0.000483794 0.000320802 -2.02241e-18)
(-0.0286656 -0.0175386 6.67609e-18)
(-0.0385768 -0.015189 2.46471e-17)
(-0.00282089 0.00375494 -7.62246e-19)
(-0.00268945 0.003581 -1.7944e-18)
(-0.00294539 0.00353969 5.63064e-18)
(-0.000304564 -0.000549013 -1.20292e-18)
(6.55255e-06 0.000101215 -3.11312e-18)
(1.03224e-05 0.000110666 -3.78046e-18)
(0.00277351 0.000183889 -4.0684e-18)
(0.00298523 8.71959e-05 -7.45833e-18)
(-0.000991189 0.00457274 -3.26533e-19)
(0.0155684 -0.00532306 -1.51166e-17)
(0.0145891 -0.00480954 -5.74214e-19)
(0.00342451 -0.00101418 -4.12364e-19)
(0.0053331 -0.0178378 -6.34346e-18)
(0.00607383 -0.0182372 -3.11422e-19)
(0.00522729 -0.0188264 -9.78436e-18)
(-0.00341414 -0.00116635 2.90071e-18)
(-0.00356144 -0.00116227 3.01915e-18)
(-0.00176676 0.00931758 -6.20835e-19)
(-0.00207166 0.00989268 -4.62207e-19)
(-0.000480677 0.000306573 1.13436e-18)
(-0.000457977 0.000309429 -1.32682e-19)
(-0.00046708 0.000300274 1.31991e-20)
(-0.00521838 0.00326717 -6.41941e-18)
(-0.00542436 0.00343089 6.64732e-19)
(-0.00549565 0.00305885 2.73966e-18)
(0.000252543 0.00270014 1.30622e-18)
(0.000158133 0.00253725 -9.42707e-19)
(-0.00191138 -0.00562257 -6.31584e-18)
(-0.00154194 -0.00556621 -1.76926e-18)
(-0.00026323 -0.000335584 -2.29451e-18)
(-0.000284915 -0.000339909 -1.61839e-18)
(-0.000270543 -0.000371819 1.1533e-19)
(-0.00812979 -0.000341242 3.74422e-18)
(0.0123328 -0.00393681 -5.98713e-18)
(0.013701 -0.00339076 -4.09759e-17)
(-0.000423794 0.000367309 2.82865e-20)
(-0.000443538 0.00033672 -1.07623e-18)
(-0.00122428 0.000602052 5.21072e-20)
(-0.00121531 0.000703781 5.82529e-20)
(-0.00134277 0.000659064 -3.52514e-19)
(0.0124943 -0.0700614 -1.16154e-18)
(0.0114816 -0.0648148 6.65286e-19)
(-0.0210827 -0.00178674 5.08278e-18)
(-0.00117719 -0.000345672 -4.23221e-19)
(-0.0011209 -0.00036282 -1.95727e-18)
(-1.09375e-05 -0.000665739 8.36642e-19)
(-1.36133e-05 -0.000662232 -8.96151e-19)
(-7.52251e-06 -0.000621298 3.1083e-18)
(-8.63866e-05 -0.00152585 6.61556e-18)
(-2.69719e-05 -0.00143633 4.64005e-18)
(-0.0166343 -0.0920503 8.73504e-19)
(-0.0188309 -0.08593 -9.12908e-19)
(-0.0112339 -0.00992774 2.88133e-18)
(-0.0105184 -0.00960754 -3.63346e-18)
(-0.0112423 -0.00928618 1.40911e-18)
(-0.00235614 -0.020603 -2.69105e-17)
(-0.00181914 -0.0210201 -3.17884e-17)
(9.97877e-06 5.5384e-07 1.81961e-18)
(9.69152e-06 2.81995e-06 -1.87928e-18)
(6.07217e-05 9.06596e-05 2.03853e-19)
(6.94225e-05 9.70434e-05 -1.83159e-19)
(-0.000484248 -0.000143703 -3.20177e-20)
(-0.00100646 0.00067213 -2.40912e-19)
(-0.000965836 0.000615322 -9.98094e-20)
(-0.0367089 -0.0324181 7.76851e-18)
(0.000512527 -0.0220062 -2.86878e-18)
(-0.000300268 -0.000442228 -1.03008e-18)
(-0.000307542 -0.000415292 5.52486e-19)
(-0.000299855 -0.000423267 -1.41756e-18)
(-4.26864e-06 -0.000639518 -2.2324e-18)
(-1.6476e-05 -0.00067238 -7.02458e-19)
(-0.00039513 -0.0001625 4.26501e-20)
(-0.00040864 -0.000137755 2.72459e-19)
(-0.000401533 -0.000169241 9.32499e-19)
(-2.64867e-05 -0.00041599 3.75591e-18)
(-1.0387e-05 -0.000388566 4.72647e-19)
(-0.0120287 0.00610836 2.05153e-18)