/*--------------------------------*- C++ -*----------------------------------*\
| =========                 |                                                 |
| \\      /  F ield         | OpenFOAM: The Open Source CFD Toolbox           |
|  \\    /   O peration     | Version:  v2012                                 |
|   \\  /    A nd           | Website:  www.openfoam.com                      |
|    \\/     M anipulation  |                                                 |
\*---------------------------------------------------------------------------*/
FoamFile
{
    version     2.0;
    format      ascii;
    class       volScalarField;
    location    "650";
    object      k;
}
// * * * * * * * * * * * * * * * * * * * * * * * * * * * * * * * * * * * * * //

dimensions      [0 2 -2 0 0 0 0];


internalField   nonuniform List<scalar> 
10042
(
0.000147429
0.000148222
0.0001485
0.000158537
0.0712592
0.000148353
0.0870808
0.0457906
0.000147499
0.000147917
0.0240422
0.000158391
0.000144639
0.000144379
0.000151426
0.000148099
0.000148047
0.000149697
0.000147453
0.00017138
0.000147195
0.000818245
0.000145438
0.00014526
0.000148267
0.000160511
0.000148778
0.000150053
0.000147248
0.000149336
0.000148042
0.00622622
0.000147989
0.000149246
0.000156243
0.000145347
0.000159483
0.000165487
0.000145343
0.000158011
0.000172519
0.000150808
0.0873846
0.000148037
0.0712108
0.000177668
0.000149097
0.000191022
0.000158122
0.000177656
0.000149027
0.000151154
0.000150836
0.000153124
0.00015951
0.000148306
0.000147292
0.000148998
0.0001492
0.000150496
0.000148192
0.000147943
0.000156438
0.000148387
0.000148944
0.000149263
0.000148331
0.000165977
0.0430125
0.000147453
0.000153011
0.000174041
0.000148065
0.00015758
0.000148244
0.000145261
0.0729351
0.000147507
0.000156821
0.0820483
0.000157458
0.0654307
0.000148088
0.000150142
0.000148347
0.000149369
0.000147317
0.000183195
0.000147809
0.000147312
0.000149243
0.0632406
0.00015024
0.000150805
0.000149195
0.000147597
0.000147506
0.000147401
0.000157326
0.000147463
0.000149933
0.000178779
0.0686344
0.000149286
0.000149739
0.000165628
0.000147481
0.000147469
0.000147249
0.000144607
0.000145921
0.000147033
0.000154957
0.0387211
0.000148915
0.000147076
0.000147652
0.00014748
0.000147557
0.0311367
0.000147777
0.0475841
0.000148168
0.000147827
0.000178778
0.000148091
0.0372447
0.000158477
0.000165309
0.000147262
0.000157302
0.000148135
0.0304689
0.0002022
0.000147442
0.000169332
0.0213071
0.000149283
0.000191169
0.000185197
0.00015
0.000147634
0.000149441
0.000187217
0.00014927
0.000147024
0.00017053
0.000146027
0.00014749
0.000154039
0.000147756
0.000149676
0.0617609
0.0330764
0.000149163
0.000144596
0.000149802
0.000147894
0.000169211
0.0132349
0.0197386
0.000189261
0.000147848
0.000147721
0.000148403
0.000148073
0.000165762
0.0152684
0.00583153
0.0367925
0.000151835
0.000146855
0.0519886
0.00017412
0.00016033
0.0955879
0.0286756
0.000148106
0.000167358
0.000160388
0.000150081
0.00903465
0.000148512
0.000158264
0.000150595
0.0330491
0.000208989
0.00014862
0.0240689
0.000153219
0.000307513
0.000149451
0.0627099
0.023664
0.000185918
0.00850041
0.000156134
0.000147528
0.000144611
0.000151773
0.000159744
0.00014872
0.000147003
0.000174443
0.000148455
0.000146122
0.000369431
0.000148954
0.00014971
0.00014958
0.0017811
0.000148359
0.000164907
0.000189168
0.000149735
0.000209471
0.000148024
0.000147824
0.000173301
0.000146457
0.000155147
0.000150032
0.000198135
0.000166441
0.000153606
0.000161593
0.000514437
0.000147048
0.000194093
0.000153722
0.000147536
0.000172622
0.000146906
0.000153649
0.00014869
0.000154339
0.000146291
0.000144362
0.00015264
0.000159513
0.000147895
0.000148191
0.000148224
0.000155024
0.000147048
0.000148095
0.000145328
0.000149928
0.000152417
0.000149772
0.000144631
0.000147383
0.000152568
0.000206343
0.000189366
0.0188983
0.000160493
0.00016032
0.000151656
0.000179482
0.0944482
0.000152126
0.00014749
0.000144519
0.000151643
0.000146238
0.00258086
0.000153493
0.000147291
0.000149636
0.000160309
0.000152593
0.000187348
0.000160409
0.000188011
0.000153314
0.000159491
0.000146193
0.000156482
0.000149373
0.000161044
0.000147616
0.00016052
0.0342154
0.000146088
0.000148078
0.0941696
0.000177815
0.000148454
0.000148185
0.000152258
0.0968557
0.000172755
0.000188052
0.000149135
0.000144593
0.000147063
0.000147576
0.000585599
0.000147375
0.000148156
0.000146863
0.000148027
0.000166949
0.000151752
0.000171049
0.0791573
0.000150162
0.0749421
0.000147023
0.000156117
0.000148718
0.0140645
0.000179272
0.000402319
0.0277939
0.000145193
0.000153596
0.000147488
0.000152078
0.000161583
0.000149574
0.000160706
0.000145867
0.00014465
0.000148131
0.000172174
0.000149882
0.000152666
0.000147996
0.000151522
0.0320507
0.000147049
0.000149094
0.000147747
0.000148227
0.000164723
0.000186234
0.00016029
0.0305494
0.000167104
0.000157341
0.000148063
0.000144251
0.000149648
0.000149766
0.00129693
0.00014762
0.000149275
0.000202966
0.000147039
0.000152984
0.000150365
0.000208582
0.000148805
0.000153373
0.000164642
0.000160381
0.00015176
0.000147574
0.0524509
0.00017079
0.000150407
0.000164481
0.000147556
0.000146928
0.00014754
0.000152968
0.000319321
0.000156273
0.000149629
0.000150074
0.000149943
0.000149786
0.000171591
0.000147552
0.00014602
0.0239669
0.000146783
0.0822146
0.000723665
0.000157896
0.093811
0.0166097
0.000156289
0.000172924
0.000148967
0.000177955
0.000149936
0.000148844
0.0290049
0.000148311
0.000152449
0.000766029
0.000149273
0.000147206
0.000162539
0.000277527
0.000149081
0.000145869
0.00672714
0.000179395
0.000146836
0.000166031
0.00891761
0.000146458
0.000149737
0.000145835
0.000147164
0.000144419
0.000145999
0.0659593
0.0630546
0.000148947
0.0793078
0.000144395
0.000147366
0.000237533
0.000149385
0.079244
0.000174063
0.000150149
0.000145897
0.000145703
0.000176527
0.000152163
0.000156408
0.000149263
0.0266507
0.000149486
0.00602857
0.000151073
0.000147437
0.000147083
0.000230248
0.000147544
0.000153736
0.000147314
0.000148656
0.0105278
0.00015618
0.00014761
0.000146628
0.0098881
0.000147212
0.000156516
0.000151526
0.000146238
0.0751134
0.0926486
0.000147079
0.000148737
0.000156502
0.000144619
0.000147954
0.000147759
0.0131429
0.000147884
0.000146999
0.000156474
0.0499004
0.000172016
0.00014977
0.000160053
0.0155412
0.000168628
0.000147638
0.000147599
0.000203505
0.000150129
0.000147476
0.000156359
0.000147782
0.00014598
0.000150303
0.000145007
0.000160829
0.000147471
0.000147575
0.0194952
0.000146245
0.000151607
0.000148323
0.000149094
0.00016082
0.000147103
0.000148069
0.000349698
0.000149615
0.0719464
0.000151997
0.000149868
0.000149831
0.00018167
0.000147587
0.000147642
0.000147921
0.000150755
0.000155673
0.0854334
0.000147243
0.000160756
0.000379618
0.000168588
0.000149716
0.000147712
0.00014971
0.000149291
0.000147077
0.0332656
0.0182461
0.000148378
0.000158528
0.000161698
0.000161046
0.000148282
0.000145536
0.0170427
0.000176008
0.000319173
0.000145751
0.00014989
0.000149183
0.000146819
0.0468141
0.000162222
0.000150744
0.000147604
0.000147123
0.000148156
0.0265043
0.000156253
0.000148831
0.00991203
0.000232601
0.000193973
0.000166178
0.000148001
0.000147463
0.000182122
0.000169327
0.0404537
0.0228026
0.000152848
0.000154002
0.000149346
0.00015257
0.000148737
0.000149267
0.0213869
0.00014526
0.000147033
0.000177293
0.000149344
0.0147952
0.000151572
0.000195199
0.000157636
0.000149595
0.000153055
0.000156336
0.000172919
0.000166257
0.000168985
0.00014987
0.000177738
0.000150925
0.000147537
0.000148681
0.000149716
0.000148119
0.000153127
0.000172095
0.000160706
0.000148856
0.000149816
0.00014789
0.000147573
0.000172047
0.000147365
0.000151402
0.000178136
0.000145002
0.000169335
0.000189372
0.000148169
0.0296861
0.000169397
0.00014934
0.0002112
0.000148965
0.000149771
0.000147984
0.000147817
0.000149944
0.000153199
0.000148191
0.000217642
0.00014999
0.000147739
0.000149113
0.000161036
0.000163663
0.000147798
0.000155273
0.000147445
0.000164834
0.000147855
0.000157733
0.00014616
0.00015048
0.000145557
0.000147448
0.0812848
0.000145856
0.000170814
0.000147739
0.000151879
0.000146117
0.000164261
0.00014838
0.000170175
0.000148453
0.00020417
0.000149723
0.0908917
0.00014601
0.000151276
0.000149791
0.000148094
0.000147631
0.000153096
0.00014812
0.00017105
0.0111516
0.0135021
0.000153951
0.00016009
0.000146981
0.000161195
0.000177717
0.000147934
0.000156148
0.000169278
0.0424534
0.000189681
0.00533548
0.000157173
0.000148486
0.000149498
0.000155971
0.000153281
0.000170388
0.000145191
0.00015184
0.000186681
0.000149742
0.00014757
0.000155887
0.060362
0.000151045
0.000159327
0.000182124
0.000149645
0.0826128
0.000145324
0.000146784
0.000149384
0.000147806
0.0160178
0.00018112
0.0554229
0.00014823
0.000764531
0.027055
0.000680682
0.000170075
0.000180014
0.000193932
0.000162322
0.000148
0.000147344
0.000156794
0.0149682
0.000146961
0.000156959
0.0667394
0.000147463
0.000147289
0.000147607
0.00015038
0.000147581
0.0001491
0.000180926
0.0256563
0.000148936
0.000147887
0.029065
0.0603324
0.000147019
0.000147641
0.000148943
0.000147192
0.000241163
0.000181129
0.000185201
0.000149761
0.000147253
0.000147674
0.000150142
0.000148245
0.000164328
0.000149744
0.0754821
0.000147946
0.000148372
0.000163409
0.000146899
0.000167209
0.000165717
0.000152533
0.00556285
0.0500569
0.000148506
0.000147066
0.0805347
0.0199582
0.000160397
0.000148872
0.0505611
0.000175982
0.00015365
0.000147931
0.000147794
0.000147326
0.00019202
0.000153857
0.000169036
0.00014977
0.0338404
0.00029253
0.000147723
0.000147862
0.000170407
0.000148906
0.000146099
0.000153562
0.0430002
0.0430571
0.081492
0.000151145
0.000176366
0.00016192
0.000145425
0.000148144
0.000149222
0.000190665
0.000149314
0.000147716
0.000176387
0.00014823
0.000172789
0.000148628
0.000148602
0.000145826
0.000148915
0.000200898
0.000149262
0.000147341
0.00016844
0.000164794
0.000188762
0.000149342
0.000179411
0.0574215
0.0739399
0.000150358
0.0147417
0.0129592
0.000147468
0.000144715
0.000149826
0.000150942
0.0416329
0.000151662
0.000148709
0.000149315
0.0592826
0.000160909
0.000150919
0.00014885
0.000147639
0.000165102
0.000146196
0.000146973
0.000163785
0.000150188
0.0001493
0.000147351
0.000234819
0.000148045
0.000150091
0.000148079
0.000149224
0.00018658
0.000149289
0.000150543
0.000148362
0.00015547
0.000207616
0.000149941
0.000187449
0.000155161
0.0416189
0.000146155
0.000151829
0.000163534
0.000179194
0.000162617
0.000149719
0.0104305
0.0908674
0.00014953
0.000147424
2.61305e-05
0.00014841
0.000149643
0.000146244
0.000149575
0.000171129
0.000149948
0.000149949
0.000165644
0.000157101
0.000157253
0.00015766
0.000150036
0.0800594
0.000152598
0.000212589
0.000147149
0.000177093
0.000160873
0.0599185
0.000153968
0.0431942
0.000149777
0.000157867
0.000148132
0.000148324
0.000147636
0.000194548
0.000160599
0.000177294
0.015072
0.000148687
0.00021894
0.000158435
0.000147128
0.000157266
0.000160613
0.0487295
0.000147832
0.000155864
0.000163944
0.000151531
0.000160829
0.000149882
0.000144922
0.000149878
0.000186731
0.000148791
0.000147886
0.000146248
0.000146095
0.000147479
0.00014783
0.00014934
0.000146964
0.000148913
0.000149492
0.000153891
0.000157433
0.000147856
0.0437494
0.000147929
0.000632241
0.000159855
0.0370961
0.000164032
0.000157456
0.00742218
0.000164131
0.000189305
0.0803079
0.000164848
0.000149264
0.000146894
0.000150496
0.000187204
0.00014756
0.0424644
0.000147399
0.00589764
0.0911715
0.000181425
0.000151465
0.0282321
0.0333021
0.000150802
0.000147807
0.000149735
0.000155146
0.000144855
0.000145743
0.000168453
0.0323755
0.000148405
0.000147523
0.000149261
0.000229381
0.00018269
0.00014895
0.00015439
0.000180889
0.00014944
0.000148068
0.0388193
0.000148943
0.00014736
0.000540843
0.000152154
0.000147946
0.00466147
0.085969
0.0364239
0.000147564
0.000150783
0.000216844
0.000146267
0.00014766
0.000149886
0.000163179
0.000148187
0.000148624
0.000154375
0.000161701
0.000177028
0.000146533
0.000147838
0.000148409
0.000147466
0.000149616
0.000145084
0.000190359
0.000156971
0.000147856
0.000147845
0.000146417
0.000147684
0.000149867
0.0449038
0.000160278
0.000145845
0.000147548
0.000160729
0.0555799
0.00014817
0.000147729
0.000148083
0.00014572
0.00543248
0.000177008
0.000146856
0.000148303
0.000159903
0.000172207
0.000149047
0.000149874
0.000153303
0.000148643
0.000157465
0.000149182
0.0915981
0.000162337
0.000148351
0.000155659
0.0464003
0.000156081
0.000205176
0.000154084
0.000154359
0.000149788
0.000150134
0.000155275
0.000180627
0.000147524
0.000148447
0.000149587
0.000151643
0.00016984
0.000174282
0.0979602
0.000151062
0.000147778
0.000156471
0.000147917
0.000147917
0.0875375
0.000151799
0.000148248
0.000147833
0.000184138
0.000172143
0.000147764
0.000148422
0.000183587
0.000147851
0.000148578
0.000147637
0.000183404
0.000151512
0.000157406
0.00522713
0.000148931
0.000149037
0.0582319
0.000147239
0.000175829
0.000147238
0.000151874
0.000162946
0.000148043
0.000148474
0.000150541
0.000152582
0.0137021
0.000147509
0.000148798
0.00017865
0.000153823
0.00284299
0.051731
0.000164756
0.000149359
0.000214412
0.000148388
0.0586598
0.000149033
0.000148208
0.000146791
0.00956843
0.000149359
0.000149115
0.00014898
0.000164593
0.0557507
0.000156779
0.000168539
0.000147585
0.000148799
0.000164512
0.000158254
0.000146802
0.000154791
0.000147389
0.0656132
0.0349552
0.000148826
0.000150375
0.000149435
0.0958064
0.000148955
0.00835945
0.00014779
0.000147861
0.000146841
0.000149914
0.00015332
0.000149792
0.000147877
0.0001482
0.0405908
0.000187878
0.000147584
0.000154502
0.000154552
0.000162378
0.000148045
0.000153853
0.000150793
0.000147989
0.000150841
0.000163974
0.000149855
0.000147279
0.000154902
0.000147221
0.000185275
0.000151265
0.000177779
0.000148491
0.000148148
0.000148597
0.000186352
0.000162885
0.000146416
0.000154668
0.000178998
0.000149344
0.000146456
0.00015515
0.000149448
0.0104789
0.000180913
0.00015373
0.0171765
0.000150676
0.000165296
0.000181099
0.000161377
0.000166831
0.00780277
0.000163589
0.00019452
0.000148712
0.000151298
0.000147373
0.000147919
0.000156983
0.000146864
0.000176699
0.000148028
0.000148083
0.000169896
0.000147627
0.000175447
0.000158548
0.00015414
0.000147413
0.000161461
0.0149734
0.000143917
0.000162698
0.0470099
0.000160814
0.000147636
0.000163484
0.000147808
0.000147017
0.0147134
0.000146822
0.000146396
0.000171224
0.00014785
0.000158911
0.000147076
0.000147915
0.0840426
0.000147594
0.00014588
0.000153858
0.000147569
0.000145864
0.000149648
0.0149673
0.000148593
0.000148437
0.00014563
0.000184305
0.000149338
0.000153337
0.000147638
0.000159907
0.000149904
0.000147555
0.000150652
0.000148554
0.000146375
0.000173401
0.000165196
0.000157968
0.000151235
0.000167098
0.000179291
0.000155167
0.000155647
0.000150333
0.0709798
0.00014786
0.000148141
0.000147325
0.000149549
0.000159835
0.000147167
0.0714659
0.0278787
0.0549077
0.000148435
0.000153951
0.000162359
0.000145099
0.000168176
0.000164392
0.000252955
0.000180605
0.0427565
0.000179113
0.000207226
0.0399145
0.000156902
0.000152115
0.000154293
0.000146892
0.0460596
0.000150331
0.000156425
0.000146657
0.00015366
0.000148194
0.0299044
0.0506991
0.000149296
0.012786
0.000238136
0.000809916
0.000169487
0.000173413
0.000145883
0.0471889
0.000147903
0.0775748
0.0245914
0.000149301
0.000147584
0.000147864
0.000151087
0.000156155
0.000163677
0.000200027
0.000148726
0.00014816
0.000154655
0.000150061
0.000148086
0.00015479
0.000146848
0.000148284
0.0173172
0.000173312
0.000148173
0.0824936
0.000152288
0.000149796
0.000151189
0.000211715
0.000147644
0.000146207
0.000185275
0.000187083
0.000147653
0.000154436
0.000305354
0.000172063
0.0360567
0.000146531
0.000186815
0.0460585
0.0777176
0.000148435
0.000147671
0.000178837
0.000154515
0.000163592
0.000149088
0.0557762
0.000170911
0.000197135
0.000148254
0.000147686
0.0131728
0.00372844
0.000148903
0.000149797
0.0408851
0.000147574
0.000146064
0.000148493
0.00015268
0.000149247
0.000156642
0.000148488
0.000153927
0.000145407
0.000163993
0.0142482
0.00016861
0.000162954
0.0274824
0.000177243
0.000145799
0.000146984
0.000147635
0.000149877
0.000183876
0.000156669
0.000149946
0.000147962
0.000147779
0.000145127
0.000158428
0.000145295
0.00016307
0.000154485
0.000148718
0.054463
0.025475
0.000148566
0.074827
0.000159411
0.000161493
0.000149737
0.000145636
0.020268
0.000176886
0.000147343
0.000146275
0.000147636
0.000156391
0.000149725
0.000193819
0.000144656
0.000148286
0.00014831
0.0494952
0.0444772
0.000145398
0.000148213
0.000179616
0.000198108
0.000152696
0.0837718
0.0582229
0.000148343
0.000148847
0.00014858
0.000150577
0.0421125
0.000148152
0.000149886
0.000187896
0.000180455
0.000149357
0.000147649
0.000165877
0.000149881
0.000148385
0.00018004
0.000181349
0.0368662
0.000147729
0.000187341
0.000161135
0.000175924
0.000150681
0.00015599
0.000147546
0.000149441
0.000171669
0.000154436
0.000147912
0.000153771
0.0248189
0.000145007
0.000146875
0.000145022
0.000170169
0.000147579
0.00014845
0.000144021
0.00014759
0.000245591
0.0741663
0.00014883
0.0639159
0.0429
0.0374917
0.000147567
0.000147886
0.000146795
0.00014739
0.000148668
0.000148903
0.000145346
0.000148421
0.00014639
0.000152392
0.0251634
0.000160881
0.0251452
0.000162309
0.00014809
0.000150815
0.000159988
0.000148708
0.000146964
0.000162938
0.000159605
0.000237307
0.000169709
0.00014521
0.0616929
0.000150189
0.000144631
0.000147644
0.000181917
0.000169497
0.000150124
0.0001549
0.000148364
0.000148513
0.000158174
0.00016914
0.000161942
0.0792527
0.000148442
0.000148042
0.000235227
0.000161832
0.000153816
0.000191274
0.000151985
0.000168013
0.000227923
0.000174523
0.00919797
0.000147291
0.000148181
0.000147474
0.000148207
0.000148517
0.000151359
0.000167889
0.000179159
0.0403591
0.000148364
0.0812512
0.0476968
0.000156401
0.000338707
0.000148818
0.000180962
0.019316
0.00014727
0.000183895
0.000146255
0.000250432
0.000149252
0.000214639
0.000147108
0.00142164
0.000170251
0.0236054
0.000146892
0.00019894
0.00014719
0.000152056
0.00177537
0.000146836
0.00952529
0.0476957
0.0404553
0.0578717
0.000185478
0.041731
0.000164279
0.000148026
0.000163884
0.000169725
0.0972308
0.000148396
0.000147951
0.000150624
0.000167829
0.000147926
0.000148854
0.00014883
0.0351221
0.0541549
0.00014764
0.071335
0.000166071
0.000146054
0.000162643
0.000155689
0.059762
0.000158469
0.000146903
0.000200399
0.000148362
0.000147449
0.000148475
0.000183883
0.000175838
0.000147617
0.0001549
0.000148628
0.000149712
0.000146461
0.0459202
0.000149895
0.000146568
0.0764558
0.000204424
0.000153831
0.000147438
0.0392954
0.000156226
0.000151027
0.000147823
0.000163942
0.00015201
0.000159572
0.000153494
0.0747185
0.000164103
0.000175452
0.000145065
0.000166607
0.000175535
0.000160417
0.000149254
0.0795376
0.000149651
0.000185069
0.000147266
0.000149221
0.000166099
0.000207414
0.000152698
0.000155442
0.000148649
0.000160656
0.000177384
0.000188234
0.000156451
0.000149944
0.000147593
0.000155637
0.000187991
0.000147536
0.000170002
0.000147988
0.000147586
0.0279976
0.000147404
0.0497392
0.000147886
0.000154979
0.00018172
0.000147737
0.000160068
0.000193711
0.000183918
0.000147844
0.000187099
0.000150965
0.000149732
0.000147545
0.0237822
0.0645824
0.000147411
0.000147638
0.000147033
0.000147002
0.000183838
0.0679504
0.000147741
0.000231789
0.000146193
0.000146492
0.00014722
0.0405783
0.000150521
0.000151981
0.000147653
0.000148044
0.00014768
0.000149684
0.000149704
0.000161944
0.00349683
0.000146637
0.000147661
0.00016075
0.000175574
0.000146603
0.0762648
0.000170506
0.000146846
0.000145839
0.000150476
0.000191193
0.000146836
0.000185389
0.000157892
0.000154565
0.000146794
0.000169775
0.000144689
0.00017356
0.000156097
0.000149252
0.0856153
0.016878
0.000143978
0.000147119
0.0147077
0.000187342
0.000180971
0.000156139
0.000185128
0.000146046
0.0530643
0.000183806
0.000148362
0.0338603
0.0862836
0.000150971
0.000166906
0.000172444
0.00014685
0.0792486
0.000148706
0.000158184
0.000159063
0.000148914
0.00014818
0.000164362
0.000147081
0.000147094
0.000147061
0.00110402
0.000147278
0.000147406
0.000146786
0.000147201
0.00014735
0.00014949
0.000175676
0.000161628
0.000153791
0.000149633
0.000351842
0.000148981
0.000146875
0.000147345
0.00014691
0.000148453
0.00014764
0.000160355
0.000185103
0.000149444
0.000161186
0.000163317
0.000146959
0.000156064
0.0439504
0.000150444
0.000144895
0.00014842
0.000167344
0.000149289
0.000149291
0.000153007
0.000153442
0.0667425
0.01194
0.000146687
0.000146911
0.000147537
0.000166626
0.000159106
0.000146868
0.000155947
0.000168826
0.000148671
0.000155203
0.000148784
0.000181242
0.000383226
0.000151961
0.000174833
0.000154941
0.033116
0.000149306
0.000147236
0.0557664
0.000171515
0.000153301
0.000107881
0.000168346
0.0169307
0.000162713
0.00020128
0.00015635
0.000156672
0.0156065
0.000155237
0.00646387
0.000163608
0.000183289
0.0273227
0.000149951
0.000148557
0.000147786
0.000195258
0.000144075
0.0109751
0.000167076
0.0203538
0.000150506
0.000170892
0.000197424
0.000147467
0.000148764
0.000167047
0.0001584
0.000148469
0.000157867
0.00016797
0.000179477
0.000177029
0.000190284
0.0186776
0.000181418
0.000148653
0.00014928
0.0613175
0.000166746
0.000150205
0.00016142
0.0388376
0.000149411
0.000154435
0.000147542
0.000156914
0.000148121
0.000148585
0.000160026
0.000148483
0.000156477
0.0239835
0.0140305
0.000145978
0.000154118
0.000158094
0.000187508
0.00016278
0.000150135
0.000147372
0.00016994
0.00689933
0.000147537
0.000153368
0.000148604
0.0877648
0.00014698
0.000159167
0.0182166
0.0111864
0.000149795
0.000173663
0.000175493
0.000173941
0.0001541
0.000147979
0.0625741
0.000146871
0.000158257
0.00014886
0.000161186
0.000146064
0.000146655
0.000148913
0.000175441
0.000146956
0.000147691
0.00014727
0.000149601
0.00014707
0.000148392
0.000180617
0.0481492
0.0533036
0.000156084
0.000148262
0.000157868
0.00015319
0.0416682
0.00014989
0.000176202
0.000145539
0.000147896
0.000150601
0.000163025
0.0682349
0.000147712
0.0261893
0.000149746
0.000144738
0.000151413
0.0816255
0.000151252
0.000161576
0.0515331
0.000149889
0.000148718
0.0119393
0.000147384
0.0535343
0.000148471
0.00016335
0.0250977
0.000151719
0.000148533
0.000146873
0.0154444
0.000157967
0.000147155
0.000207765
0.00014767
0.000151538
0.000178859
0.0440506
0.000179445
0.0447673
0.029737
0.00016772
0.0001516
0.00017728
0.000204062
0.000148262
0.000147288
0.000150524
0.000159863
0.000167255
0.000147867
0.000153734
0.000147253
0.000147658
0.0500186
0.000149453
0.0241498
0.000145493
0.000166378
0.000182564
0.000146653
0.000144696
0.0408964
0.0510903
0.000172978
0.000148424
0.000154186
0.00017975
0.000146379
0.000166033
0.000183106
0.000168367
0.000160027
0.0222786
0.0347159
0.000144735
0.000148784
0.000145463
0.000149229
0.000152258
0.000160735
0.0100081
0.000148691
0.000147721
0.000174988
0.0281551
0.000145608
0.00194229
0.000146402
0.000189826
0.00017446
0.0695325
0.000185082
0.000164209
0.000164479
0.000145362
0.000144595
0.000203306
0.00015467
0.000148469
0.000314839
0.000146938
0.000148448
0.000145431
0.000170862
0.00018203
0.000236782
0.000173218
0.000160243
0.00015819
0.000149575
0.0362896
0.00378216
0.000151146
0.000147787
0.000147166
0.000190606
0.071921
0.000160374
0.0773718
0.000150412
0.000146826
0.0322439
0.000147785
0.04917
0.0719621
0.000146457
0.000158679
0.0424942
0.000152626
0.000160101
0.000147179
0.0404477
0.000157857
0.000176252
0.0100456
0.0493642
0.000159908
0.000161852
0.000148805
0.000184545
0.0444955
0.00015273
0.000153868
0.0393894
0.000163317
0.000166526
0.000149739
0.0904249
0.012673
0.000168869
0.00014787
0.000158118
0.000147185
0.000692441
0.000179064
0.00016287
0.0752355
0.0311678
0.000145491
0.000192377
0.000148559
0.0150785
0.000169169
0.000159545
0.000157017
0.000294575
0.000143778
0.000182041
0.0125038
0.0443602
0.000151029
0.000148064
0.000146471
0.00017023
0.000296474
0.000191592
0.0455533
0.000193213
0.000165433
0.000147295
0.0375565
0.000181239
0.000156909
0.000178491
0.00596122
0.0270764
0.018632
0.0280634
0.0294283
0.0184959
0.000148321
0.000156413
0.000161785
0.000149296
0.0320022
0.000286354
0.000147985
0.0820158
0.00014876
0.000147873
0.000146327
0.000161864
0.00014705
0.0318508
0.000164532
0.00738267
0.000147933
0.000236424
0.000163108
0.000198187
0.0156856
0.000151987
0.000159339
0.000161882
0.000165511
0.000147208
0.000146671
0.000147158
0.029249
0.000146456
0.000147119
0.0081456
0.000153227
0.0468132
0.000148154
0.0480276
0.000147679
0.000148259
0.00014787
0.000147975
0.000159737
0.000153589
0.047277
0.000157886
0.000169609
0.0589338
0.000147137
0.059545
0.000146633
0.0542308
0.107767
0.0483215
0.000177248
0.000147959
0.000149799
0.0688574
0.000149741
0.000158377
0.000148633
0.000162223
0.0537704
0.000147061
0.000146913
0.00014731
0.000149745
0.059527
0.075131
0.000147297
0.000144052
0.0350715
0.0760012
0.000147034
0.0981207
0.000149738
0.0678996
0.0489398
0.00018254
0.000195306
0.000216509
0.000168101
0.028244
0.000187379
0.000147994
0.000145076
0.000146443
0.0610068
0.0784499
0.000151001
0.000155958
0.0290807
0.000147017
0.0229948
0.000148318
0.000149233
0.000146022
0.0247474
0.000184656
0.000146931
0.0357675
0.000149657
0.0784271
0.0724731
0.000146777
0.000148625
0.000188305
0.000147692
0.000148994
0.000146715
0.0652498
0.00015839
0.000148062
0.000148764
0.0737701
0.000147821
0.000162875
0.000147834
0.0436217
0.000148556
0.000173279
0.000161466
0.0358683
0.0826719
0.000159942
0.00018765
0.000174326
0.000148385
0.000170814
0.044532
0.000147095
0.000181402
0.000146376
0.000237122
0.000147295
0.0497479
0.0774389
0.000170759
0.0279411
0.0368876
0.000160676
0.000151503
0.000218944
0.000147371
0.048725
0.000153737
0.000318186
0.000147354
0.000158917
0.00016742
0.000157422
0.000148474
0.000147885
0.000149237
0.0115876
0.00017725
0.0307946
0.0435165
0.000155455
0.0001456
0.0001652
0.0615253
0.000159172
0.000147267
0.00014841
0.0122805
0.0136458
0.0497054
0.0226799
0.000164
0.000148968
0.000146448
0.000172347
0.000169581
0.000288463
0.000147916
0.000148349
0.00923031
0.000175105
0.000149893
0.000179304
0.000300049
0.000185341
0.000146739
0.000163505
0.000236995
0.000317924
0.0822196
0.000186996
0.000147314
0.000149774
0.000150388
0.00014989
0.000147927
0.000148491
0.00015941
0.000179105
0.000162723
0.000160304
0.000157374
0.000149181
0.000154496
0.000151587
0.000160387
0.000158932
0.000147175
0.000157393
0.000147508
0.000146772
0.000149661
0.000148695
0.000204681
0.000145778
0.000167915
0.000240295
0.00117916
0.0514728
0.0259848
0.000154455
0.000149533
0.000147268
0.06293
0.000149135
0.000144426
0.000149079
0.0750264
0.00015793
0.000163435
0.000197492
0.000151288
0.000148114
0.000158691
0.000147107
0.000163631
0.000149893
0.000159908
0.00014691
0.000147708
0.00015077
0.000151506
0.000156832
0.000289904
0.000167717
0.000174917
0.00017355
0.000194036
0.000166481
0.00017534
0.000148914
0.0255581
0.000152642
0.000154963
0.000147744
0.00015177
0.000176505
0.00014782
0.000168166
0.00523194
0.000156423
0.000186968
0.000179855
0.000165211
0.000169902
0.000166936
0.000147585
0.000158153
0.000148489
0.000172989
0.000167908
0.0603186
0.000146393
0.000167549
0.000154494
0.0415122
0.0480414
0.000169616
0.000148539
0.000169884
0.000144989
0.000177486
0.000150422
0.0526218
0.000145837
0.000154006
0.00014801
0.000161307
0.000202322
0.000159305
0.0573303
0.000148158
0.000164898
0.000166958
0.000148007
0.0777687
0.0651328
0.000196296
0.000179528
0.000168804
0.000148141
0.000147403
0.0700103
0.000178143
0.000147028
0.000151225
0.000153145
0.00014756
0.00021037
0.000146918
0.0581592
0.000187374
0.000195188
0.000162405
0.000149127
0.000145779
0.000147822
0.000183196
0.000167746
0.000154683
0.025321
0.000149076
0.000150771
0.000155259
0.0789389
0.000145321
0.0309256
0.000143766
0.049645
0.000147284
0.000147333
0.000159911
0.000147734
0.00014883
0.000189875
0.000148371
0.000149064
0.000147401
0.000166679
0.000154646
0.0409849
0.000147865
0.000148441
0.000146808
0.000191251
0.000146636
0.000156126
0.000169451
0.0690064
0.0756573
0.000512934
0.000211755
0.000214241
0.000165744
0.000166181
0.000155139
0.000149643
0.000148697
0.0570876
0.000165145
0.00014474
0.000147697
0.000147556
0.000159205
0.000174057
0.000149648
0.000156949
0.000188286
0.000198501
0.000174984
0.000147692
0.000149549
0.0546219
0.000153849
0.000146207
0.0696085
0.0824736
0.000146255
0.000144242
0.0001553
0.000148255
0.000159847
0.000149627
0.105409
0.000149799
0.0415978
0.000148215
0.010735
0.000158957
0.000147802
0.000181156
0.00014565
0.000149343
0.000149742
0.00016197
0.000236163
0.000147278
0.000196938
0.000149895
0.000149267
0.000170664
0.000147553
0.00014875
0.000148561
0.000144395
0.000147901
0.000145116
0.000149022
0.0606553
0.000146966
0.000147311
0.000166103
0.000145825
0.000147575
0.000149029
0.000149145
0.0804711
0.000189283
0.000148481
0.00015243
0.000148764
0.000149894
0.000139086
0.000148224
0.000147739
0.00842109
0.000147663
0.00016939
0.000180041
0.000161216
0.000148412
0.000212899
0.000147602
0.00104817
0.000165524
0.000148524
0.0794622
0.0339545
0.000155784
0.000172541
0.000147252
0.000147288
0.000162789
0.000203775
0.000147261
0.000146876
0.000149297
0.000165563
0.000148578
0.000161356
0.000148628
0.000168591
0.0241293
0.00016186
0.000158979
0.000147243
0.000157361
0.00015714
0.000161884
0.000145984
0.000147526
0.000150644
0.000160544
0.00016724
0.000149221
0.000192908
0.000148895
0.053197
0.000144785
0.00014642
0.000176068
0.000149792
0.000180396
0.000189851
0.00016229
0.000149212
0.000150653
0.000148875
0.000162631
0.000148382
0.000164045
0.000157101
0.000148632
0.000146278
0.000155707
0.0768644
0.000159995
0.000164577
0.0730909
0.098564
0.000162422
0.000144982
0.0513162
0.000147893
0.000153198
0.000149347
0.000188011
0.000148367
0.000160847
0.000155711
0.000151633
0.0001487
0.000154462
0.000149269
0.000175821
0.000147508
0.000149162
0.000147958
0.000157583
0.0500823
0.000148155
0.0155084
0.000167651
0.000144348
0.0807718
0.0103501
0.00014832
0.000152586
0.000189972
0.000146782
0.000147516
0.055475
0.000148022
0.0475141
0.000153698
0.000153605
0.000149943
0.000151038
0.000147667
0.00014821
0.000164759
0.000149689
0.000147595
0.000147634
0.000150987