/*--------------------------------*- C++ -*----------------------------------*\
| =========                 |                                                 |
| \\      /  F ield         | OpenFOAM: The Open Source CFD Toolbox           |
|  \\    /   O peration     | Version:  v2012                                 |
|   \\  /    A nd           | Website:  www.openfoam.com                      |
|    \\/     M anipulation  |                                                 |
\*---------------------------------------------------------------------------*/
FoamFile
{
    version     2.0;
    format      ascii;
    class       volScalarField;
    location    "650";
    object      omega_0;
}
// * * * * * * * * * * * * * * * * * * * * * * * * * * * * * * * * * * * * * //

dimensions      [0 0 -1 0 0 0 0];


internalField   nonuniform List<scalar> 
10042
(
0.0219188
0.0220509
0.0219996
0.0232058
10.2132
0.0220707
3.86423
6.28432
0.0218057
0.0220103
4.25543
0.0231374
0.0215324
0.0214953
0.0235775
0.0220337
0.0220257
0.0222585
0.0219215
0.130288
0.0219061
0.432238
0.0215827
0.0216182
0.0220577
0.0298916
0.0221318
0.0227349
0.0218099
0.0224112
0.0220221
5.03288
0.0220209
0.0223362
0.0265351
0.0216304
0.0289428
0.0351093
0.0216322
0.0297672
0.143419
0.0231739
3.68746
0.0219918
10.4481
0.0605935
0.0223211
0.104905
0.0278958
0.0534975
0.0221669
0.0226493
0.0232166
0.0235388
0.0290006
0.0220639
0.0218131
0.0222877
0.0223246
0.0230092
0.0220463
0.0220069
0.02671
0.02197
0.0222401
0.0223514
0.022038
0.0731406
3.22787
0.0218749
0.0234605
0.157588
0.0219983
0.0321249
0.0220162
0.0216155
9.59736
0.021932
0.0300613
3.72082
0.0272131
11.4571
0.0220019
0.0227959
0.0220441
0.0222135
0.0218956
0.149301
0.021936
0.0218977
0.0222884
11.7193
0.0228191
0.0225256
0.0223581
0.0218821
0.0219407
0.0218587
0.0292271
0.0218271
0.0222908
0.103146
6.03005
0.0222021
0.0226001
0.050859
0.0219197
0.0219344
0.0219143
0.0214615
0.0217142
0.0218261
0.0259276
3.11862
0.0222292
0.0218405
0.0219478
0.0219275
0.0218801
5.5772
0.0219298
6.29674
0.0220275
0.0219864
0.101907
0.0220053
6.33756
0.0285177
0.0490387
0.0218886
0.0310357
0.0220008
3.7923
0.224423
0.0218258
0.0578231
4.39079
0.0222959
0.108464
0.171015
0.0227227
0.0219445
0.0224722
0.1423
0.0220893
0.0218263
0.0574642
0.0215686
0.0218728
0.0254213
0.0218376
0.0222555
2.75889
4.56682
0.0221853
0.0215275
0.0226047
0.0219991
0.0581103
10.9885
4.76448
0.127539
0.0219907
0.0218391
0.0220841
0.0219851
0.0594898
25.7592
5.2889
5.04836
0.0229814
0.021845
12.2502
0.162802
0.0381822
3.10184
3.85081
0.0220105
0.0847402
0.0320738
0.0227519
5.51883
0.0220861
0.0283764
0.0230517
6.60433
0.272594
0.022118
3.99974
0.0241793
2.80713
0.0224694
2.69249
11.2417
0.10139
9.34359
0.0260387
0.0219323
0.021532
0.0235372
0.0370075
0.0221564
0.0218199
0.16844
0.0220769
0.0216868
4.36336
0.0221564
0.0222603
0.0222426
4.11754
0.0218619
0.0552777
0.305357
0.0225745
0.27982
0.021967
0.0219928
0.064114
0.0217716
0.0260415
0.0227279
0.360896
0.0363222
0.02543
0.0309418
1.4154
0.021833
0.165036
0.023803
0.0218052
0.134292
0.0218535
0.0237552
0.022048
0.0256253
0.0217124
0.0214818
0.0236108
0.0276976
0.0219977
0.0220319
0.0220333
0.0260011
0.0218415
0.0220309
0.0216195
0.022676
0.0232208
0.0222688
0.0215329
0.0218663
0.0243527
0.476469
0.128839
4.98805
0.0387354
0.0375025
0.0237528
0.0677083
3.76247
0.0233507
0.0219231
0.0214993
0.0234621
0.0217111
1.75606
0.0238574
0.0218904
0.0222502
0.0388472
0.0232907
0.283404
0.0380981
0.176828
0.024239
0.0276494
0.0217138
0.025896
0.0221195
0.0332315
0.0219053
0.0299389
3.8192
0.0216872
0.0219193
3.97231
0.0616905
0.0220817
0.022045
0.0240605
3.03438
0.054033
0.148752
0.0221819
0.021528
0.0218334
0.0218187
1.19205
0.0218819
0.0220406
0.0218418
0.0219683
0.0365865
0.0237916
0.0751419
7.2327
0.0228224
7.47998
0.0218456
0.0256482
0.0221234
6.6112
0.101695
3.71765
4.54963
0.0216011
0.0238962
0.0218804
0.0240039
0.030991
0.0222415
0.0331772
0.0217076
0.0214966
0.0220159
0.0803024
0.0222838
0.0238354
0.0219669
0.0236325
3.17622
0.0218453
0.0221758
0.0219888
0.0219381
0.0422675
0.102418
0.0373596
7.64532
0.0369559
0.0274158
0.0219819
0.0214787
0.0224008
0.022268
2.50125
0.0219043
0.0223484
0.131387
0.0218223
0.0247027
0.0229174
0.14806
0.0220305
0.0252322
0.0463226
0.0328537
0.0234998
0.0219384
7.87857
0.0582994
0.0225329
0.0418427
0.0219528
0.0218576
0.0219508
0.0246543
1.06647
0.0254135
0.0222492
0.0227635
0.0222923
0.0222708
0.129287
0.0219362
0.0216321
4.5101
0.021842
5.52406
3.80379
0.0327624
2.70266
5.8201
0.0279073
0.137312
0.0221583
0.0547856
0.0222913
0.0222248
3.72099
0.0220656
0.0242665
12.1427
0.0220144
0.0219075
0.0502601
2.16259
0.0222667
0.0215641
5.00823
0.102659
0.0218408
0.0736301
15.5406
0.0217702
0.022264
0.0216457
0.0218703
0.0214786
0.0216792
7.66399
6.16189
0.0222609
8.12317
0.0214967
0.0218831
0.593064
0.0222097
5.71426
0.0583038
0.0228071
0.0216065
0.0215536
0.13559
0.0231262
0.027973
0.0223862
3.84491
0.0224578
9.56779
0.0233626
0.0219389
0.0218399
0.639961
0.0219544
0.0257549
0.0218646
0.0219941
7.74705
0.0260791
0.0219369
0.021756
5.20848
0.0218794
0.0264136
0.0234273
0.0217152
8.70183
2.74483
0.0218871
0.0221651
0.0255818
0.0215325
0.0220117
0.0219744
5.02631
0.0219973
0.0217353
0.0286081
5.84081
0.0582187
0.0222685
0.0316204
18.1922
0.038879
0.0219404
0.0219443
0.227093
0.0224344
0.0219447
0.0293085
0.0218599
0.0216801
0.0228777
0.0215662
0.0381342
0.0219162
0.0219586
5.5242
0.021765
0.0228845
0.0220675
0.0223227
0.0330022
0.0218913
0.0219021
2.31813
0.0225291
3.89732
0.0233086
0.022282
0.0222767
0.124748
0.0219041
0.0219419
0.0220131
0.0226453
0.0277773
4.14314
0.0218831
0.0380042
4.40876
0.0387643
0.0222611
0.0219633
0.022257
0.0222028
0.0218591
1.76085
4.4619
0.0220754
0.028548
0.0303069
0.0295991
0.022025
0.0216576
4.36442
0.129394
3.19494
0.0215993
0.0223127
0.0221464
0.0218471
3.91541
0.0349578
0.0226536
0.0218757
0.0218137
0.0219941
5.45873
0.0260862
0.0221394
6.19757
1.34221
0.408125
0.0517889
0.0220189
0.0218316
0.0620079
0.052604
2.29256
25.4396
0.0247332
0.0260579
0.0222104
0.0237792
0.0221574
0.0221996
4.39602
0.0216129
0.0218501
0.058227
0.02221
3.4082
0.0230838
0.14691
0.029441
0.0222446
0.0236752
0.0265585
0.042996
0.0516857
0.0816051
0.0222823
0.0533316
0.0230458
0.0218778
0.0221187
0.0224276
0.0220355
0.0249897
0.0584212
0.0411402
0.0221428
0.022598
0.0220091
0.0219228
0.125848
0.0219317
0.0233799
0.285522
0.0215677
0.0526454
0.0827812
0.0220425
6.62552
0.0425978
0.0222095
0.294303
0.0221057
0.0222686
0.0219634
0.0219842
0.0222924
0.02423
0.0220019
0.957987
0.0227199
0.0219685
0.0222664
0.0335169
0.034037
0.0219815
0.0249788
0.0218311
0.0341381
0.0219389
0.029614
0.0216388
0.0229744
0.02155
0.0219371
7.01601
0.0216515
0.112342
0.0219702
0.0230966
0.0217457
0.0343062
0.0220757
0.0436844
0.0220823
0.243193
0.022262
3.94219
0.0215637
0.0234691
0.0222714
0.021982
0.0219643
0.0241674
0.0220354
0.123848
31.2807
3.76462
0.0243681
0.0364488
0.0218133
0.0384667
0.0604045
0.0220132
0.028974
0.0857021
2.37875
0.0830509
9.8808
0.0273464
0.0221166
0.0222312
0.0255647
0.0242393
0.0394988
0.021605
0.0235517
0.114366
0.0222649
0.0219236
0.0254307
3.9894
0.023315
0.0304332
0.0617083
0.0222514
3.57149
0.0216213
0.0218296
0.0224369
0.0218628
5.6703
0.0700345
3.5257
0.0220567
3.95251
10.8964
2.2052
0.0390925
0.0686809
0.1634
0.0404472
0.0219678
0.0218679
0.0301216
7.25071
0.0218068
0.0292802
4.12638
0.0219103
0.0219132
0.0218819
0.0228999
0.0219564
0.0220946
0.122068
9.69907
0.0220542
0.0220027
3.79222
2.33087
0.0218174
0.0219441
0.0221549
0.0218743
0.640016
0.0699614
0.26917
0.0226001
0.0219073
0.021815
0.0227805
0.0220545
0.0339349
0.0225967
6.61178
0.0220102
0.0220754
0.040834
0.0218024
0.0360365
0.0654401
0.0234064
29.0601
3.01332
0.0221224
0.0218543
6.85758
5.23912
0.0355072
0.022084
6.55778
0.183896
0.0256802
0.0219522
0.0219954
0.0219256
0.321509
0.024307
0.0937586
0.0222685
3.07462
1.02005
0.021966
0.0219943
0.116372
0.0221498
0.0217429
0.0251131
3.94996
2.29079
7.5197
0.0226915
0.0591995
0.0388485
0.0216442
0.0218876
0.0221935
0.302175
0.0222059
0.0219637
0.0589497
0.0220132
0.0632798
0.0221114
0.0221067
0.0216928
0.022151
0.205561
0.0221989
0.0218609
0.0415449
0.0554403
0.384693
0.0222097
0.086007
2.09027
3.91887
0.0229171
5.27706
9.31554
0.0219118
0.0215437
0.0226457
0.0232775
1.8511
0.0235006
0.0221225
0.022206
2.36922
0.0373274
0.0226205
0.0221421
0.0219405
0.0423188
0.0217575
0.0218416
0.032906
0.0228195
0.0222042
0.0218004
1.37928
0.0219175
0.0227513
0.0220298
0.0223717
0.14308
0.0222027
0.0230108
0.0220723
0.025495
0.804062
0.0222919
0.350623
0.0260381
2.00813
0.0216618
0.0235446
0.0325175
0.0859397
0.0504958
0.0225864
10.4782
4.6104
0.0224867
0.021814
3.05572
0.0220793
0.022251
0.021731
0.0222417
0.0500329
0.0222928
0.0222931
0.064592
0.028523
0.0230018
0.0313195
0.0227294
7.79884
0.0235554
0.835111
0.0218657
0.0582877
0.0368344
3.43952
0.0245078
3.73318
0.0222695
0.0264769
0.0220425
0.0220675
0.0219091
0.14135
0.0403014
0.0516286
6.33918
0.0221195
10.3807
0.026873
0.0217854
0.0313556
0.0306765
2.85356
0.021989
0.0280481
0.0511665
0.0234446
0.0416825
0.0222838
0.0215747
0.0222833
0.306331
0.0221337
0.0220055
0.0217384
0.02173
0.0219414
0.0219932
0.0223656
0.0218528
0.0221508
0.0224587
0.0253208
0.0308179
0.0219926
2.18042
0.0219637
3.30787
0.0370544
2.31165
0.0363561
0.0262308
5.11008
0.0343893
0.325964
4.83223
0.0419253
0.0221991
0.0218488
0.022932
0.147199
0.0218817
4.4616
0.0218656
16.1261
3.73824
0.0591425
0.0230702
5.63796
2.86341
0.0231862
0.0219828
0.0222638
0.0249592
0.021565
0.0216709
0.0571015
3.98505
0.0220784
0.0218731
0.0223562
0.636126
0.0647556
0.0221558
0.0253696
0.086486
0.0224566
0.0220296
4.17654
0.0222681
0.0218786
10.7936
0.0240246
0.0219527
5.32271
2.59384
8.87713
0.0219195
0.0231481
0.518332
0.0217371
0.0218844
0.0222843
0.0312263
0.0220455
0.0221115
0.0241023
0.0460817
0.178753
0.0217845
0.0219364
0.0220793
0.0218459
0.0225372
0.0215986
0.138493
0.0287042
0.0219517
0.0219897
0.0217685
0.0219772
0.0225348
4.1397
0.0296016
0.0215567
0.021935
0.0410213
3.05019
0.0220436
0.0219839
0.0220301
0.0215607
10.3045
0.0515856
0.021736
0.0220668
0.0298686
0.103738
0.0221692
0.0222828
0.0249404
0.0220816
0.0266441
0.0223519
4.3653
0.035296
0.0220705
0.0261319
12.6042
0.0282232
0.198548
0.0252246
0.487287
0.0222709
0.0223639
0.0254276
0.0667586
0.0219004
0.0219049
0.0222435
0.0230086
0.104701
0.119027
4.11221
0.0228672
0.0219928
0.0282948
0.0219636
0.0219624
4.87192
0.0237069
0.0220208
0.0219872
0.287062
1.9854
0.0219913
0.0220907
0.0898215
0.0218514
0.0221037
0.0219374
0.0876824
0.0232281
0.0266606
10.7355
0.0222613
0.022168
2.05172
0.0219106
0.163187
0.021899
0.0235536
0.0418929
0.0219844
0.0220895
0.0224815
0.0237385
11.0476
0.0219277
0.0221351
0.212434
0.0256476
2.47547
4.31779
0.046706
0.022212
0.417642
0.0219397
9.34259
0.0221675
0.0220281
0.0217079
5.66905
0.022212
0.0223288
0.0221599
0.0343924
1.88157
0.0282768
0.0490901
0.0218989
0.0221351
0.0371704
0.0290617
0.0218391
0.0255084
0.0218874
3.1308
3.89128
0.0221385
0.0229174
0.0222226
4.1614
0.0221565
18.6792
0.0219806
0.0218804
0.0217282
0.0225445
0.0241122
0.0222715
0.0219953
0.0220035
6.63112
0.107365
0.0218809
0.0249045
0.024536
0.0409088
0.0219139
0.0258041
0.0230086
0.0219631
0.0232068
0.0323815
0.0222802
0.021917
0.0267391
0.0217778
0.152285
0.0232401
0.137942
0.0221032
0.0220398
0.0219396
0.0747788
0.039608
0.021771
0.0249501
0.0703283
0.022424
0.0217739
0.0257188
0.0222247
8.31409
0.215825
0.0250348
6.09023
0.0230996
0.0352509
0.0881219
0.037622
0.0355955
4.88723
0.0316986
0.138563
0.0220952
0.0231448
0.0218525
0.0219489
0.0268701
0.0217679
0.196252
0.0219882
0.021991
0.0733013
0.0219489
0.0545572
0.0270189
0.0255036
0.0218677
0.0423604
3.27029
0.0214244
0.0322099
5.16506
0.0420967
0.0218164
0.03171
0.0219952
0.0217875
10.1087
0.0218349
0.0217868
0.0486621
0.0219482
0.0277805
0.0217787
0.0220055
3.14674
0.0218779
0.0216696
0.0248723
0.0219174
0.0215482
0.0222518
10.8568
0.0221384
0.0220846
0.0215889
0.0841616
0.0223978
0.0246497
0.0219321
0.0345584
0.022672
0.0219029
0.02296
0.0221002
0.021783
0.115141
0.0419439
0.0289537
0.0234673
0.0453991
0.0719321
0.0274658
0.0281545
0.0229123
4.4138
0.0219396
0.0220059
0.0219261
0.0222384
0.0354322
0.0218959
9.00224
3.82119
7.38335
0.0220843
0.0249117
0.0389803
0.0215424
0.0878599
0.046918
0.814143
0.0663515
4.06263
0.0720202
0.207243
1.70939
0.0284046
0.0233034
0.0252558
0.0217811
2.54447
0.0227093
0.0292059
0.0218004
0.0251464
0.0220467
3.52304
2.99285
0.0222036
4.63261
0.636609
0.5805
0.0455861
0.0637149
0.0216728
4.49561
0.021962
7.01342
4.23381
0.0222042
0.0218991
0.022003
0.0233526
0.025611
0.0353922
0.202587
0.0221248
0.0220415
0.0254047
0.0225309
0.0220362
0.0261494
0.0218388
0.0220602
2.95672
0.0603731
0.0220435
5.01584
0.0233046
0.0222721
0.0234499
0.301647
0.0219443
0.0217335
0.107058
0.177087
0.021846
0.0254173
0.86156
0.0531252
3.64691
0.0217818
0.183675
3.27244
8.00918
0.0220832
0.0219141
0.062139
0.0262526
0.0411927
0.022323
5.01847
0.0486802
0.194096
0.0220483
0.0219779
4.78202
1.69907
0.0221493
0.0222723
5.23379
0.0219289
0.0216198
0.0219086
0.0237554
0.0221968
0.0296466
0.0221082
0.0242209
0.0216232
0.0336858
21.2686
0.0581806
0.0346152
4.29691
0.073466
0.0216503
0.0217839
0.0218868
0.0222837
0.121546
0.0297901
0.0223029
0.0219757
0.021977
0.0216057
0.0323806
0.0216159
0.0482129
0.0246106
0.0221235
3.33379
3.8129
0.0221021
5.00337
0.0339335
0.0334935
0.0222641
0.0216301
10.4312
0.0717869
0.0219258
0.0217311
0.0219377
0.0267306
0.0222624
0.175614
0.0215242
0.0220605
0.0220458
1.80385
5.44685
0.0215378
0.0220065
0.14659
0.464877
0.0246159
3.29424
5.13042
0.0218723
0.0221418
0.022127
0.0230335
1.82047
0.0220401
0.0222844
0.178452
0.0888502
0.0222121
0.021947
0.0729027
0.0222836
0.0220752
0.10308
0.0795318
4.67266
0.0219844
0.0791963
0.0410184
0.0560064
0.0231033
0.0275958
0.0219449
0.0219801
0.119194
0.0259179
0.0220019
0.0249609
4.21214
0.0215462
0.0218111
0.0215396
0.0749358
0.021953
0.0220866
0.021445
0.0219525
0.686229
7.11163
0.0222164
7.22825
3.4943
3.89731
0.0219429
0.0219452
0.0218334
0.0218971
0.0221164
0.0221494
0.0216261
0.0220825
0.021784
0.024337
4.56297
0.0362137
3.87459
0.0312042
0.022033
0.0231716
0.0325453
0.0221746
0.0218513
0.0401807
0.0322326
0.556796
0.042512
0.0215175
10.0814
0.0227782
0.0215014
0.0218851
0.223404
0.0434837
0.0227783
0.0259273
0.0220729
0.0220943
0.0323369
0.0418023
0.0299626
6.60208
0.022084
0.0220303
0.617624
0.0374936
0.0252747
0.136089
0.0234207
0.0648481
0.314902
0.0644401
7.33487
0.0218396
0.0218319
0.0219438
0.0220488
0.0220949
0.0232818
0.0405459
0.0551381
15.7188
0.0220736
5.9751
8.88105
0.0254522
1.37053
0.0222219
0.0913787
7.90617
0.0219147
0.0933461
0.0215928
1.81799
0.0221975
0.258962
0.0218633
3.67551
0.0410511
3.99845
0.0218528
0.186828
0.0216907
0.0234376
1.6183
0.0218434
7.30743
3.76904
4.54823
9.02671
0.0955312
4.26071
0.0394769
0.0220198
0.0448968
0.0461053
3.81564
0.0220777
0.0220172
0.0228542
0.0484144
0.0219501
0.0222302
0.0222262
17.3689
1.93386
0.0219091
8.72925
0.0582175
0.021731
0.038427
0.0275007
1.98287
0.0300417
0.0217787
0.702939
0.0220725
0.0219412
0.0220898
0.120842
0.0615955
0.021846
0.0267069
0.0221106
0.0222606
0.0217968
9.23285
0.0222857
0.0218176
5.1144
0.26768
0.0244718
0.0218391
1.70086
0.0284396
0.0232937
0.0219423
0.0516504
0.023444
0.0283251
0.0249093
6.71974
0.0436857
0.05989
0.0215085
0.0347456
0.0492571
0.0290834
0.0223897
6.44908
0.0222527
0.186475
0.0218933
0.0221933
0.0341265
0.232283
0.0238107
0.0256131
0.0221137
0.0372574
0.0649264
0.0945331
0.0281945
0.0222923
0.0219661
0.0282052
0.0907207
0.0219444
0.0440441
0.0220175
0.0219472
3.61502
0.0218952
6.77308
0.0219436
0.0272105
0.0734113
0.0219262
0.0293263
0.108727
0.101587
0.0219465
0.0856871
0.0228379
0.0222633
0.0218966
4.36441
2.54109
0.0219131
0.0219346
0.0216688
0.0218115
0.0927396
2.9808
0.0219259
1.36788
0.0217348
0.021802
0.0218975
5.54869
0.0229143
0.0239386
0.0219543
0.0219871
0.0219155
0.0222568
0.0222595
0.0324792
11.864
0.0216582
0.0219117
0.0419104
0.0678463
0.0217991
6.8839
0.0521967
0.0217911
0.0215451
0.0224799
0.121861
0.0217523
0.0820898
0.0289992
0.0243733
0.0217883
0.0456099
0.0215281
0.135439
0.0279415
0.0223824
4.9879
6.52048
0.0214314
0.0218615
5.69818
0.12019
0.0768436
0.0252584
0.0821516
0.0215782
4.52841
0.0685608
0.0218703
1.64133
2.52126
0.0232553
0.0450297
0.0531365
0.021772
7.91478
0.0221818
0.0276259
0.0302081
0.0222575
0.0220494
0.0522629
0.0218742
0.021892
0.0218731
5.6846
0.021844
0.0219396
0.0217615
0.0218938
0.0218549
0.0222301
0.054413
0.0458985
0.0241482
0.0222497
1.4881
0.02228
0.0218411
0.0219032
0.0216604
0.0220855
0.0219727
0.0295853
0.0922333
0.022224
0.0311896
0.0501409
0.0217608
0.0278427
2.41351
0.0228217
0.0215303
0.0220806
0.0839671
0.0222025
0.0222029
0.0244748
0.024995
7.43103
12.6395
0.0218279
0.0218664
0.0219483
0.0693702
0.0232425
0.0217979
0.0284865
0.0739201
0.022167
0.0270963
0.022133
0.103926
0.991674
0.0232419
0.124058
0.0260754
3.44377
0.022205
0.0218983
4.64035
0.116796
0.0246221
0.141987
0.0927028
29.3139
0.0460997
0.699125
0.0263111
0.0259495
4.55225
0.0269004
2.69698
0.0320087
0.121856
3.67715
0.0222933
0.0221343
0.0219824
0.344732
0.0214526
6.01816
0.0380011
22.1632
0.0229941
0.118698
0.204695
0.0219483
0.0222036
0.0800861
0.0300627
0.0220882
0.0263439
0.0775952
0.0755426
0.0757532
0.115713
11.568
0.141908
0.0221151
0.0222014
3.65436
0.0765209
0.0227463
0.0381789
2.66877
0.0223799
0.0245238
0.0219469
0.0290362
0.0220398
0.0221053
0.0391892
0.0221004
0.0227947
4.24265
29.8993
0.0217304
0.0258935
0.0276291
0.18335
0.0431789
0.0225525
0.0219296
0.103983
17.5396
0.0219374
0.025286
0.0221217
4.4345
0.0218284
0.0304525
4.92135
3.53539
0.022272
0.138578
0.0862984
0.0569861
0.0258013
0.0220212
5.61427
0.0218145
0.0273256
0.0222358
0.0301236
0.0216256
0.0216569
0.0221878
0.065669
0.0218182
0.0219792
0.0218048
0.0222012
0.0218713
0.0220705
0.0875533
9.18035
1.95732
0.0260901
0.0220575
0.0323721
0.0240894
6.41111
0.022285
0.182241
0.0216184
0.0219985
0.0226746
0.0353349
2.84305
0.0219629
3.77417
0.0224102
0.0215253
0.0232899
6.29875
0.0234345
0.045393
5.80405
0.0222848
0.022182
6.15958
0.0218891
10.2759
0.0220884
0.0329813
5.73733
0.0230067
0.0220969
0.0218607
9.64421
0.0274698
0.0218727
0.805048
0.021965
0.0230161
0.0808029
21.9417
0.191808
3.41919
9.8161
0.074192
0.023596
0.183834
0.247653
0.0219138
0.0218548
0.0229343
0.0283422
0.0795662
0.0219953
0.0255136
0.0219082
0.0219659
1.8925
0.022225
8.61195
0.0215721
0.0346478
0.0665572
0.0218294
0.0215192
3.53012
4.88848
0.0643997
0.0220811
0.0252408
0.0570598
0.0217687
0.0362026
0.0989758
0.0406036
0.0233667
6.21205
23.8727
0.021543
0.0221331
0.0216495
0.0221944
0.0232317
0.0289524
19.4143
0.0221203
0.0219653
0.0479807
19.8822
0.0215816
2.87468
0.0216229
0.135176
0.0576716
4.85207
0.0730605
0.0540177
0.0568194
0.0215292
0.021511
0.249324
0.0258065
0.0220877
1.00406
0.0218273
0.0220846
0.021623
0.0493278
0.212434
0.584851
0.146279
0.0293547
0.0298546
0.0222034
10.7511
1.78963
0.0232126
0.021979
0.0217757
0.0995141
7.0443
0.0363574
8.43566
0.0229386
0.021776
3.90852
0.0219358
3.95384
9.28622
0.0216954
0.0301224
4.23586
0.0243512
0.0362593
0.0218261
3.99008
0.0272959
0.161994
4.8303
9.50595
0.0290564
0.0300063
0.0221355
0.145189
10.5789
0.0234681
0.0244321
4.35889
0.0498147
0.0678822
0.0222636
4.6176
4.62121
0.0980799
0.0219445
0.0274696
0.0218987
2.91957
0.0733223
0.0342407
8.20883
3.49737
0.0215316
0.154387
0.0221008
8.63819
0.0936224
0.0280944
0.0261779
1.02685
0.0214068
0.0664201
5.56765
3.05611
0.0231657
0.0220319
0.0217922
0.0887611
2.38912
0.168551
3.77005
0.102994
0.0422488
0.0217802
3.47418
0.0795589
0.0287471
0.189884
5.13325
4.58976
4.53432
8.70625
3.55713
5.2788
0.0220703
0.0291611
0.0334768
0.0220878
10.8463
0.963373
0.0220203
5.91466
0.0221292
0.0219947
0.0217742
0.0317291
0.0218702
3.44268
0.0620539
2.96994
0.0217861
0.571663
0.0484111
0.529829
4.51317
0.0231178
0.0286296
0.0383214
0.0675805
0.0217887
0.0216555
0.021894
3.56618
0.0217811
0.0217829
2.22731
0.0238125
19.4196
0.0220457
5.62068
0.0219551
0.0220601
0.0219511
0.0219765
0.0283482
0.024747
7.42924
0.0314691
0.039815
3.78862
0.0218212
5.43265
0.0217947
4.39203
3.76596
4.73485
0.0662728
0.0219727
0.0222726
4.41022
0.0222561
0.0273897
0.0221114
0.0312141
5.03418
0.0218871
0.0218508
0.0218753
0.0222651
9.6687
9.17342
0.0218335
0.0214452
3.3753
7.97538
0.0218644
3.43154
0.0222642
6.48924
4.19294
0.072161
0.346429
1.03209
0.0863685
3.90815
0.0860478
0.0219688
0.021548
0.021787
5.26564
8.34474
0.0231477
0.0285247
3.94176
0.0218334
4.39115
0.021934
0.0221063
0.021636
9.06505
0.0782256
0.0217619
3.70048
0.0222527
6.44383
3.37069
0.0217443
0.0221102
0.120334
0.0219585
0.0219218
0.0218329
2.45715
0.0322753
0.0220318
0.0221299
2.14504
0.0219348
0.0414694
0.0219906
5.00599
0.0221013
0.104591
0.0236224
4.12154
5.81059
0.0317518
0.0905029
0.0562507
0.0220752
0.0759229
4.37116
0.0217696
0.082757
0.0217662
0.55976
0.0218987
4.61925
2.12207
0.106805
3.80289
3.82286
0.0414921
0.0229268
3.59094
0.021933
10.5544
0.0255095
1.09745
0.0218606
0.0330691
0.0483023
0.0307398
0.0221026
0.0219429
0.0221955
5.16774
0.0717612
3.65901
2.08026
0.0278138
0.0216232
0.055071
11.0681
0.0340302
0.021806
0.0220802
9.48971
8.30197
10.8608
4.58248
0.0368074
0.0222733
0.0217782
0.05205
0.0518492
0.90566
0.0220035
0.0220701
33.5295
0.0657035
0.0222853
0.0644318
0.950953
0.105485
0.0216489
0.0490064
0.570709
1.17398
4.76166
0.231535
0.0218706
0.0222691
0.0220631
0.0222849
0.0219535
0.0220908
0.0338044
0.224135
0.0348804
0.0290252
0.0292492
0.0221876
0.0263217
0.0229305
0.0352839
0.0331828
0.0218219
0.028733
0.0218924
0.0218441
0.022557
0.0221203
0.390352
0.0216058
0.0785976
0.859969
2.36339
7.61247
3.8302
0.0224846
0.0222368
0.0219057
4.16181
0.022042
0.0214753
0.0221738
4.29167
0.0315796
0.0346051
0.492005
0.0234599
0.0220344
0.0302193
0.0218809
0.0488275
0.0222854
0.0346926
0.0217879
0.0219206
0.0230638
0.023597
0.0261526
0.844663
0.0396922
0.112467
0.0600013
0.136171
0.0449984
0.0680254
0.0220029
4.01019
0.0246265
0.0268528
0.021927
0.0230859
0.124038
0.0219857
0.0646822
6.2407
0.0295922
0.380168
0.102013
0.0544756
0.0702206
0.0607035
0.021936
0.0290687
0.0220905
0.079288
0.0521242
3.87795
0.0217594
0.04885
0.0266043
2.65363
5.56684
0.0466043
0.0220978
0.0529142
0.0215706
0.0675257
0.0228735
3.13544
0.0216571
0.0260333
0.0220198
0.0366029
0.164677
0.0312872
8.74546
0.022041
0.0331331
0.06143
0.022019
6.27395
5.71498
0.167226
0.0582961
0.0487147
0.0218936
0.0218011
8.24689
0.101483
0.0216738
0.0228163
0.025145
0.021901
0.405573
0.0217825
4.70389
0.141459
0.156023
0.0381881
0.0223361
0.0216647
0.0218786
0.149159
0.0821915
0.0268215
4.12342
0.0221733
0.0231668
0.0274735
6.13201
0.0215186
5.06687
0.0214069
3.73273
0.0219134
0.021904
0.0386223
0.0219854
0.0222294
0.138151
0.0220743
0.022312
0.021807
0.0453454
0.0258166
1.66991
0.0219936
0.0220966
0.0218499
0.135233
0.0218055
0.0288646
0.0427454
4.12087
8.43943
10.8845
0.848998
0.395836
0.0422639
0.0633367
0.0275078
0.022251
0.0221205
5.29181
0.0582782
0.0215398
0.0219697
0.0219567
0.0286449
0.0820623
0.0222518
0.0305306
0.120569
0.183414
0.116784
0.0219715
0.0222376
2.2111
0.0242776
0.0216084
2.6448
6.12265
0.0217009
0.021438
0.0271004
0.0220561
0.0386082
0.0222485
3.83747
0.0222726
1.6551
0.0220163
4.84122
0.0303555
0.0219377
0.0649998
0.0215985
0.022149
0.0222647
0.0332486
0.530338
0.0218512
0.17455
0.0222855
0.0221996
0.115247
0.0217622
0.0221281
0.022102
0.0214698
0.0219586
0.0215173
0.0221658
6.99766
0.0218599
0.0217873
0.0578076
0.0216363
0.0219428
0.0221669
0.022269
7.12168
0.419067
0.0220808
0.0233326
0.0220479
0.0222855
0.251859
0.0220552
0.0219851
7.5655
0.0219659
0.0460025
0.0606073
0.038592
0.0219635
0.250042
0.021901
0.842078
0.0699947
0.0219866
7.11813
1.79741
0.0284912
0.122235
0.0218373
0.0218694
0.045886
0.237753
0.0217897
0.0218595
0.022318
0.0419471
0.0221035
0.0369064
0.0221107
0.048162
6.82465
0.0398549
0.2342
0.021841
0.0260914
0.0228938
0.023617
0.0216907
0.0218922
0.0229976
0.023494
0.0687084
0.0223736
0.101209
0.0220346
3.92149
0.0215186
0.0217767
0.0723487
0.0222715
0.102063
0.093699
0.0380965
0.0221108
0.0230117
0.022077
0.0381536
0.0220739
0.0563157
0.0266051
0.0221581
0.0216844
0.0277171
5.33513
0.0325774
0.0525692
3.07691
3.97344
0.039529
0.0215722
3.95638
0.0219572
0.0240398
0.0224131
0.107642
0.0220098
0.0360105
0.028063
0.023657
0.0221214
0.0256628
0.0221999
0.0604339
0.0219396
0.0221851
0.021971
0.0288465
7.10502
0.0220186
8.08487
0.0875284
0.0214582
6.62204
4.15349
0.0219167
0.0237012
0.094469
0.0217911
0.021905
2.7475
0.0220274
3.16053
0.0256585
0.0248935
0.0226866
0.0227459
0.021911
0.0219163
0.061964
0.0225573
0.0219627
0.0219058
0.0226187
4.99389
0.0373918
0.022063
0.0292961
0.157967
0.0672545
0.0218861
0.0220925
0.0219548
0.0253102
0.0228258
0.0224307
0.0283642
5.05448
0.0218919
0.0234025
2.14653
0.024806
0.124542
0.142579
0.0218665
0.02227
4.20586
0.0871967
2.30251
5.01315
3.19334
0.238811
6.54318
0.021851
0.0238085
0.0216811
0.0221862
3.62025
0.0219927
0.0556382
0.0711747
0.0325668
0.0251441
0.799577
0.0219095
0.0221163
0.0256042
0.0219425
0.0220497
0.0218135
0.0223041
0.0701189
0.0219449
0.0221429
0.0217881
0.0464867
0.0221323
5.28982
0.0219225
0.0237093
0.0218178
0.0222521
0.0228738
0.0219805
0.0387569
0.0229885
0.021937
0.0285807
0.0220962
0.0222645
0.0219887
0.0314057
0.0225415
0.0220355
0.0220483
0.022061
0.0303653
0.0220226
0.0220105
0.115535
0.0220754
0.0219182
0.0246235
2.31798
0.052018
0.0227418
0.0565954
9.70152
0.129154
0.218761
0.0240676
0.0229562
0.0281806
4.14429
0.0221664
2.56068
0.0231202
0.0218935
0.0287358
0.0220529
0.0699742
0.0762324
0.0641583
0.0231127
0.0219709
0.0289386
0.0275598
0.0229572
0.0247022
0.0243733
0.0449351
0.075927
0.078084
0.0219369
0.0252456
1.61713
0.0231624
0.0222852
5.44259
0.502976
0.0219633
0.0226768
0.0240214
0.0735681
8.89765
0.0219639
0.392
5.98586
0.0389564
0.0590368
0.0217506
0.0240129
0.0230418
0.0839488
0.0222319
0.0298636
0.0241505
1.63539
0.0221935
0.0220624
4.99425
0.0242117
0.0230413
0.0222489
0.0222126
0.0387833
3.48728
0.0282088
0.0220439
2.16144
0.110693
0.0225235
0.0219509
0.0218259
0.0243865
0.0217978
0.278103
0.0218591
0.0246721
0.0251245
0.0617616
0.0264936
0.0218501
0.0275433
0.0245093
0.0218352
0.104162
0.0221797
0.0238098
0.0216908
0.0222719
22.6444
0.0293144
0.0225121
3.85966
0.0231244
0.0219519
3.50228
0.0719091
3.60365
0.0219178
0.0235603
0.0218777
0.0228772
0.0231988
4.61869
0.022818
0.0916836
0.0218289
0.0224074
0.0247715
0.0220227
0.0371908
8.21607
0.544742
0.0219574
0.0217215
0.249343
0.0225826
0.0222487
0.0265778
0.0283471
0.403509
0.0834832
0.0230033
4.27777
0.0961908
0.0224379
0.0217889
0.0224008
0.0287365
3.88351
0.0222839
0.0714458
0.0231947
0.0220906
0.0215973
0.0227907
14.728
0.0271648
0.0217987
0.0239053
0.022095
0.0255018
0.0214479
0.0240253
0.0220076
0.0234458
0.424788
0.0220476
0.0222127
0.101947
0.0216217
0.0215872
5.26198
0.0218827
4.84243
5.08329
10.6951
0.0268304
0.0221379
0.0215098
0.022139
0.0214843
0.0238132
0.953499
0.0524758
0.421294
0.0827813
0.0243395
0.0216257
0.0235096
0.0227383
0.0222726
0.02213
0.0215756
0.0746663
0.0227281
22.2125
0.0223066
0.0228295
0.0222634
0.022181
6.44575
0.140934
0.0288717
0.0215087
0.0537753
0.0237426
0.0219777
0.0881044
0.0214548
0.0240648
6.56979
0.0219655
0.0218954
0.0218949
6.36058
4.44764
0.021692
0.0227638
0.0260558
0.0221026
0.0217216
0.0219781
0.0220757
0.0218979
0.0218466
0.0219012
0.0257965
3.43584
0.0387035
0.0219429
0.0219392
0.022534
0.0222842
0.0221774
0.026162
0.0277652
14.2454
0.0264648
0.0221945
0.0233312
0.0219538
0.0960379
0.0216146
0.0222233
0.0233044
0.0290657
0.026898
6.31709
0.0221539
0.0336307
0.0227318
0.0227101
0.0221043
0.0216446
0.0235144
0.120935
1.65621
0.0217685
0.0383043
0.0740302
0.0222647
0.0433933
0.0391829
2.84839
0.0222494
0.0237241
0.0228466
0.0216059
0.076606
0.0219655
0.0220027
0.0573256
1.3005
1.92157
0.0217926
0.0219066
6.43699
3.65676
0.0216191
3.44272
5.50967
0.021826
0.021614
0.0218227
0.0220684
0.0221401
0.0215661
0.0288616
4.81993
0.0218574
0.0219655
0.0217015
0.0221575
0.0217957
0.0218556
0.0215555
3.67878
0.0221019
3.08702
0.0221699
0.0218061
0.0233807
0.0218384
0.0221756
0.030592
0.0221544
0.0223375
4.99523
0.0219963
0.0263145
0.0220305
0.0219827
0.0221403
0.0218119
0.126905
0.0220592
0.0221064
0.0220882
0.198734
0.036636
0.0222563
0.0221751
0.0219462
0.0234172
3.50438
0.023497
0.0237726
0.0219576
0.0221228
0.0219458
0.0521412
0.0236745
0.0233041
0.405116
0.0452828
0.0218174
0.0260668
0.0220983
0.0226651
0.0218486
4.30557
0.0219663
0.0220582
0.0218053
0.0300476
0.0240156
0.0235925
0.0219278
0.0217941
0.0613385
6.06398
0.0218324
0.0565245
0.0236056
0.023492
9.37961
0.0217701
0.02199
0.021957
0.0243939
0.0238755
0.0217963
0.0245642
0.0219117
0.102617
0.0215387
0.0217214
0.0266231
0.0221421
0.0915442
0.0274898
13.844
0.064955
0.0222118
0.10341
3.92068
0.0231047
0.0253361
0.0220682
0.0254634
0.0217842
0.0405915
0.0448755
0.0218879
0.0293737
0.0219728
4.06598
0.0224113
0.0247803
4.91535
0.0474329
0.0247655
0.15259
0.0221558
0.0219964
4.3392
0.0217804
9.35592
0.0218494
0.0218683
0.0806332
10.0726
0.0219197
0.0433959
10.6741
0.0218587
0.0221744
0.0220044
0.0295324
0.0265541
0.023162
0.0220094
3.68249
0.0219699
0.0229132
0.0219462
0.0219003
0.0220385
0.0238486
0.0287258
6.938
0.0222314
5.8892
0.0219476
0.0232194
0.0248025
0.0230094
0.0675767
0.0648264
0.0227004
0.0219328
0.0218299
0.0995727
0.0217581
0.0218314
0.526627
0.119435
0.021775
0.0220073
0.0217877
0.0220895
0.0249256
0.0806404
0.0219708
0.0221267
0.0217485
0.0223788
0.0219698
0.0215107
0.0292783
3.35646
0.0217022
0.0225722
5.6874
0.0219135
0.0392685
0.0220699
0.0317928
0.0559654
20.0817
0.0222612
0.0220561
0.0217916
0.0223017
0.0220435
0.021457
0.0221439
0.0221266
0.0237197
0.0608938
0.0259157
0.0240637
5.69598
0.0220305
0.144344
0.0217519
0.0220034
0.0220181
3.66245
0.0218406
0.054655
0.0234204
0.0227724
0.0219358
0.021767
0.0219418
0.0226463
0.0218556
0.0218189
0.0486856
0.615812
5.50877
0.021794
0.0509667
0.0223539
0.0220851
0.02189
0.0220796
0.541731