/*--------------------------------*- C++ -*----------------------------------*\
| =========                 |                                                 |
| \\      /  F ield         | OpenFOAM: The Open Source CFD Toolbox           |
|  \\    /   O peration     | Version:  v2012                                 |
|   \\  /    A nd           | Website:  www.openfoam.com                      |
|    \\/     M anipulation  |                                                 |
\*---------------------------------------------------------------------------*/
FoamFile
{
    version     2.0;
    format      ascii;
    class       volVectorField;
    location    "650";
    object      U_0;
}
// * * * * * * * * * * * * * * * * * * * * * * * * * * * * * * * * * * * * * //

dimensions      [0 1 -1 0 0 0 0];


internalField   nonuniform List<vector> 
10042
(
(0.994892 0.0124054 -8.15866e-21)
(0.997889 0.00372183 0)
(1.04038 0.0218706 5.93092e-24)
(1.01045 7.51985e-05 1.5585e-21)
(0.542693 0.0492927 0)
(0.998644 0.00342108 1.70778e-20)
(0.205308 -0.0563675 -4.80524e-20)
(0.930261 0.0200397 0)
(1.03295 0.0194216 -7.79271e-22)
(1.00128 0.00503892 0)
(-0.169968 -0.0251355 -4.9788e-20)
(1.01599 9.88872e-05 -1.23452e-21)
(1.01798 0.00272772 -1.85048e-21)
(1.01822 0.00111968 -1.50509e-21)
(0.952988 0.0507378 0)
(0.998942 0.00521403 3.96746e-21)
(0.998849 0.00564655 -3.73997e-21)
(1.00003 0.000340214 0)
(0.995069 0.0119297 -1.32309e-20)
(0.670838 0.263206 -2.97941e-20)
(1.00404 0.00645849 -4.00746e-21)
(1.21413 0.0499663 -3.59151e-20)
(1.017 0.000613845 -2.66318e-21)
(1.01614 0.00538516 0)
(0.998011 0.00335803 8.02355e-23)
(1.09303 0.0503879 -2.47036e-21)
(0.998674 -0.00015569 -7.62042e-21)
(0.987989 0.0562351 1.00725e-20)
(1.02108 0.0266071 9.33883e-22)
(0.996661 0.0512972 -1.9231e-20)
(0.996041 0.00214852 -1.08006e-20)
(-0.142587 -0.00492945 -1.1939e-19)
(1.00125 0.00468523 4.65472e-21)
(1.01534 0.0493468 -5.63124e-21)
(1.05975 0.0728699 -1.40314e-21)
(1.01567 0.00554829 -1.69418e-21)
(1.08837 0.051834 -1.59907e-20)
(1.11094 0.0355827 -7.27981e-21)
(1.01533 0.00517834 3.16227e-21)
(0.989114 0.12042 4.46068e-21)
(0.642965 0.255724 -4.55889e-20)
(0.961638 0.0512324 -2.08045e-20)
(0.175229 -0.056591 9.37464e-20)
(0.989043 0.0332854 0)
(0.550602 0.0502306 1.5086e-19)
(1.14591 0.0476487 -4.79651e-20)
(0.971877 0.0354812 -1.64957e-20)
(1.17245 0.0272496 2.26596e-20)
(1.07809 0.0594222 -7.79415e-21)
(1.13992 0.00364362 2.3353e-20)
(1.00038 0.00043283 0)
(1.05494 -0.00306248 7.39955e-21)
(0.953435 0.0391862 0)
(1.0652 0.00166867 -9.53126e-21)
(1.08718 0.0539232 0)
(0.998644 0.00369462 -1.8346e-20)
(1.02203 0.026794 -9.80195e-22)
(0.972644 0.0343157 -1.26262e-20)
(1.01631 0.0480282 0)
(0.955833 0.0395943 0)
(0.997037 0.00256409 1.01465e-20)
(0.996247 0.00499563 -5.2762e-21)
(1.05974 0.0759609 0)
(1.03918 0.0218979 -1.91603e-21)
(0.96278 0.0141838 -3.31438e-20)
(1.0194 0.0477569 3.91497e-21)
(0.971481 0.0108205 0)
(0.721923 0.178978 0)
(-0.0647889 -0.0316718 0)
(0.997933 0.029059 4.3867e-21)
(1.0647 6.90586e-05 9.04728e-21)
(0.626538 0.266052 -1.10936e-19)
(0.987748 0.0329126 -7.09513e-21)
(0.855937 0.0569368 9.24935e-20)
(0.972871 0.00735303 1.10676e-20)
(1.0165 0.00570618 1.71149e-21)
(0.440274 0.0256367 1.71779e-20)
(0.995003 0.0108482 -1.37227e-20)
(0.892569 0.0809763 0)
(0.154028 -0.0589854 2.53541e-22)
(1.07585 0.0579268 4.4834e-22)
(0.72075 0.0868492 -7.88069e-20)
(1.0037 0.0390127 1.1003e-20)
(0.965151 0.0448968 -4.43676e-21)
(0.971371 0.00965751 0)
(1.00003 0.0011173 -1.35194e-22)
(0.995366 0.0145288 0)
(1.11454 0.258903 4.9791e-20)
(0.983384 0.0210899 9.28385e-21)
(0.995814 0.0146649 6.5864e-21)
(1.03173 0.0401705 4.67527e-22)
(0.747736 0.0939545 0)
(0.988725 0.0583513 -1.01989e-20)
(1.05349 -0.00232858 1.64875e-21)
(0.995742 0.0495793 0)
(1.01366 0.0332538 2.64789e-21)
(0.998324 0.0105316 -9.58041e-21)
(1.00768 0.0313929 0)
(0.989757 0.116854 0)
(1.0274 0.0252377 0)
(0.999993 7.12263e-05 0)
(1.12463 0.207075 2.23513e-20)
(0.782121 -0.00146538 5.97849e-20)
(1.00004 0.00121918 5.787e-22)
(0.982306 0.0510783 -1.1423e-20)
(1.0172 0.202416 1.35634e-20)
(0.992418 0.0112448 -9.96645e-21)
(0.998367 0.0110542 -7.37762e-23)
(1.00389 0.0060604 1.14405e-22)
(1.02594 0.00111287 0)
(1.01123 0.00152162 -6.17139e-21)
(1.00269 0.0238209 -7.964e-23)
(1.02634 0.088536 6.53576e-22)
(-0.0821517 -0.0289217 0)
(0.963956 0.0133228 4.57003e-20)
(0.999984 0.0218208 1.18502e-20)
(0.990466 0.00387515 -1.86543e-20)
(0.994792 0.0113525 7.66654e-21)
(1.01445 0.0325108 0)
(-0.0261367 0.00930902 -7.84541e-20)
(0.983663 0.0201945 -7.55031e-21)
(0.947858 0.0236601 -6.00206e-20)
(0.992144 0.0369447 1.47652e-20)
(0.993468 0.00119572 1.5021e-20)
(1.12468 0.200026 3.2967e-20)
(1.00271 0.0395402 -5.33361e-21)
(1.00933 0.0355329 0)
(1.07334 0.0740984 5.60271e-21)
(1.01053 0.198565 -6.59073e-21)
(0.99635 0.0157292 1.38875e-20)
(0.889552 0.0864589 0)
(0.976818 0.0193707 -3.68295e-22)
(-0.137085 -0.0143169 -3.88415e-20)
(1.19477 0.089788 0)
(1.02638 0.025319 0)
(1.07382 0.183205 -2.99619e-20)
(-0.110541 0.00365075 1.74592e-19)
(1.03149 0.0417069 -8.36423e-22)
(1.17446 0.0296446 -8.58477e-21)
(1.1211 0.266113 5.83125e-20)
(0.97599 0.0511381 1.36526e-20)
(0.989986 0.00387556 3.0596e-20)
(0.97791 0.0452612 -6.15458e-21)
(1.16031 0.180138 5.70562e-20)
(1.04705 0.00164107 -4.21323e-21)
(1.00244 0.0232552 -5.86906e-21)
(1.09546 0.158472 -4.14573e-20)
(1.03183 0.00239802 0)
(1.00748 0.0324525 0)
(1.00032 0.0896871 8.96041e-21)
(1.03591 0.018576 0)
(1.00003 0.000137089 -2.33665e-22)
(-0.0266827 -0.0602311 0)
(-0.0565135 0.00318293 -3.79623e-20)
(0.999463 0.000137042 -1.26782e-20)
(1.0179 0.0023937 2.79204e-21)
(0.950474 0.00663445 1.30245e-21)
(0.995939 0.00513213 1.33464e-20)
(1.07168 0.189046 3.21549e-20)
(-0.0942873 -0.00224358 -1.13547e-19)
(-0.158971 -0.0221842 0)
(1.17716 0.0996697 3.6005e-20)
(0.994852 0.00349962 0)
(1.03515 0.019339 1.57247e-22)
(1.00714 0.0424133 -1.10698e-21)
(0.977712 0.0184287 -1.56158e-20)
(0.928093 0.240319 0)
(0.244202 0.143622 4.06447e-20)
(-0.154638 -0.000568684 1.45404e-20)
(-0.0259184 0.00331152 -1.28698e-19)
(1.06043 0.00608534 8.54053e-21)
(1.0046 0.0139018 6.34866e-21)
(0.918194 0.140082 -6.47297e-21)
(0.672511 0.314947 -1.23424e-19)
(0.894453 0.148152 0)
(0.0758123 -0.0416059 4.06253e-21)
(-0.103031 0.00133981 -4.22826e-20)
(0.990483 0.0352032 2.991e-20)
(0.707297 0.197347 5.6476e-21)
(1.04439 0.11616 1.27446e-20)
(0.9479 0.006986 -2.31976e-20)
(-0.128461 -0.00678045 1.34909e-19)
(0.970048 0.0132227 2.11126e-20)
(1.0707 0.074545 -1.63086e-20)
(0.961934 0.0484231 -2.00232e-20)
(-0.00224837 0.0123801 0)
(1.19765 0.112421 3.19238e-20)
(1.01768 0.0425023 5.21477e-21)
(-0.135997 -0.0262281 0)
(1.05243 0.0558734 -6.30682e-21)
(0.72846 0.713962 3.3926e-21)
(0.975932 0.0444453 1.36255e-20)
(-0.0356764 -0.061135 0)
(1.10079 0.177484 8.54266e-20)
(1.1692 0.075217 0)
(1.17734 0.159786 8.26861e-20)
(1.07368 0.0482406 0)
(0.993463 0.0100242 -8.01093e-21)
(1.01752 0.00221803 2.89423e-21)
(1.02164 0.0681381 0)
(0.874648 0.12967 2.47763e-20)
(1.01868 0.0431568 0)
(1.0043 0.0240847 5.03938e-21)
(0.695006 0.337406 -5.34669e-20)
(0.969911 0.0118904 -2.28658e-20)
(1.01961 0.0151935 5.93839e-22)
(0.803638 0.750654 -1.88994e-20)
(0.999142 0.000389504 6.74451e-21)
(1.00002 0.000389244 8.01791e-21)
(0.999878 0.000395098 2.81913e-21)
(1.24455 0.178056 -1.22375e-19)
(1.01788 0.000373974 0)
(0.924 0.229623 -7.46262e-21)
(1.00568 0.410463 -4.31984e-21)
(0.952229 0.00869951 0)
(1.20019 0.115327 -4.7621e-21)
(0.976469 0.00668395 -3.61962e-20)
(0.999562 0.00708278 0)
(1.1179 0.148361 4.37407e-20)
(1.00981 0.0165435 -5.50147e-21)
(1.02939 0.0894997 0)
(0.948878 0.0148984 1.58234e-20)
(1.09138 0.370116 1.63867e-20)
(1.11385 0.0353715 0)
(0.93566 0.06399 -2.25369e-20)
(1.09752 0.0481779 0)
(1.22033 0.0860988 -6.32098e-20)
(1.0012 0.0225764 -1.13371e-20)
(1.18435 0.117534 0)
(1.06686 -0.00142862 5.61077e-21)
(1.03392 0.0188378 1.5953e-22)
(0.801539 0.349321 -7.23773e-20)
(1.00416 0.0134477 7.0488e-21)
(1.06648 -0.00301031 0)
(1.04098 0.0229354 5.14802e-21)
(1.00261 0.0920472 -3.39962e-21)
(1.01747 0.017119 -9.47271e-22)
(1.01872 0.000694737 1.04651e-21)
(1.06002 0.0364306 -6.92101e-21)
(1.08812 -0.00357692 1.17898e-20)
(0.994826 0.00313243 -6.8548e-21)
(0.990744 0.036689 -1.54755e-20)
(1.00723 0.0409023 0)
(1.02484 0.0912987 -3.07308e-22)
(1.00044 0.0212301 -1.26085e-20)
(0.996251 0.00231706 0)
(1.01487 0.00124252 2.61447e-21)
(0.982645 0.0533777 -1.22795e-20)
(1.06252 0.00342929 4.5117e-21)
(1.00002 0.000257339 -8.03039e-22)
(1.01736 0.00141068 -1.07647e-21)
(0.998645 0.028274 -8.10362e-21)
(0.9823 0.0781387 1.63267e-20)
(1.10347 0.380048 0)
(1.17641 0.102977 -4.27312e-20)
(-0.140297 -0.0216611 -1.02801e-19)
(0.886764 0.151672 0)
(0.909471 0.150432 -1.61612e-20)
(0.952077 0.0535367 2.66995e-20)
(1.15206 0.0506607 -2.72984e-20)
(0.237731 -0.0470701 -1.01783e-20)
(1.05809 0.0355641 0)
(0.992618 0.0107178 -8.30185e-21)
(1.0185 0.000725061 1.29174e-21)
(1.01968 0.0671752 3.81217e-21)
(1.01712 0.0164556 -2.22782e-21)
(1.20986 0.0478592 5.77921e-20)
(1.06833 0.0162928 2.18928e-20)
(0.995848 0.0155028 -7.65458e-21)
(0.999928 0.000372476 3.57903e-22)
(0.86472 0.129948 -3.01175e-20)
(1.06413 0.00317641 -1.50444e-20)
(1.01648 0.396286 -1.84622e-20)
(0.902299 0.154156 -1.86972e-20)
(1.14314 0.236477 0)
(1.05252 0.0579404 2.10558e-20)
(1.08797 -0.00599617 0)
(1.01603 0.0158751 0)
(1.08088 0.0278346 0)
(1.04807 0.00232936 6.62439e-21)
(1.04683 0.119371 -1.35773e-20)
(0.98785 0.0222463 9.4531e-22)
(1.09156 0.0526646 2.6226e-21)
(-0.109147 -0.0126859 -3.36548e-20)
(1.01904 0.0147938 2.27205e-23)
(1.03564 0.0239406 -4.77171e-21)
(0.279471 -0.0475581 -3.42038e-20)
(1.14796 0.0502243 5.54823e-20)
(1.01778 0.0412774 -3.92545e-21)
(0.996811 0.00213307 9.13947e-21)
(0.983586 0.0752935 -1.71107e-20)
(0.0666055 -0.0360578 -6.26779e-20)
(1.1276 0.0977908 0)
(1.16526 0.178146 -5.78505e-20)
(1.00032 0.000352716 0)
(1.01755 0.00189787 -4.9963e-21)
(1.00151 0.0232413 0)
(1.03305 0.0203865 0)
(1.22352 0.083662 0)
(0.992559 0.019095 0)
(0.997006 0.00294484 3.27603e-22)
(1.00416 0.0152536 -1.36077e-20)
(0.976555 0.00544212 2.11084e-20)
(1.11589 0.0257661 -2.63582e-20)
(0.959561 0.0612718 -2.60495e-20)
(1.05853 0.233676 -2.22281e-20)
(0.309246 -0.0209299 -9.00485e-20)
(0.957614 0.0372208 0)
(0.689663 0.0209812 0)
(1.00044 0.0198407 0)
(1.07911 0.0274787 1.72021e-20)
(0.998474 -6.082e-05 1.47975e-20)
(-0.207688 -0.00726444 1.18903e-19)
(1.13131 0.189818 6.13391e-20)
(1.24587 0.226084 6.93643e-20)
(-0.102199 0.00820894 0)
(1.01741 0.00590116 -1.73715e-21)
(1.06939 0.0153864 -6.90077e-21)
(0.998284 0.0300476 -4.70458e-21)
(0.969005 0.0695905 1.93805e-20)
(1.09618 0.0506158 0)
(1 0.000693716 -8.65153e-21)
(1.03358 0.127581 5.52006e-21)
(1.01163 0.0015747 1.38478e-21)
(1.01901 0.000425254 9.67066e-22)
(0.989191 0.0349181 -1.55439e-20)
(1.06231 0.240839 -2.42493e-20)
(0.999989 0.000164972 -2.99666e-22)
(1.05017 0.0545034 -4.84699e-21)
(0.978287 0.0162414 9.39438e-24)
(0.96207 0.0599314 1.26097e-20)
(-0.0967468 -0.0150693 1.34229e-19)
(1.00005 0.020479 0)
(0.999342 0.000164756 -6.84651e-21)
(1.00244 0.00181619 0)
(1.03877 0.0205461 1.28733e-21)
(1.04787 0.158776 0)
(1.17117 0.0737095 -1.77843e-20)
(0.917449 0.15506 3.01931e-20)
(1.04956 0.0745294 9.16717e-20)
(1.11581 0.0285218 0)
(1.06799 0.072508 1.42896e-20)
(0.977322 0.0169507 -9.89009e-24)
(1.01845 0.00105484 0)
(1.03682 0.0397303 -4.4664e-21)
(1.00002 0.000282975 7.64214e-21)
(1.23908 0.110425 4.10118e-20)
(0.988129 0.0229228 0)
(1.01816 0.0487292 -4.27913e-21)
(1.18057 0.0114507 0)
(1.00354 0.0244239 5.54167e-21)
(0.972145 0.0772229 0)
(0.9646 0.0474872 5.34716e-21)
(1.18241 0.0135637 2.43412e-20)
(1.04526 0.0135796 0)
(0.937516 0.0615168 0)
(1.01131 0.191579 -5.1253e-21)
(1.02939 0.126315 -2.98515e-21)
(1.02529 0.0657918 0)
(0.992572 0.00892419 0)
(0.908303 0.0533639 -6.38485e-20)
(1.10037 0.158153 4.98321e-20)
(1.05308 0.021321 0)
(1.04959 0.153459 0)
(1.00043 0.00914879 9e-21)
(1.00417 0.0129307 8.55943e-22)
(1.00066 0.00912803 -8.123e-21)
(0.969062 0.0771573 0)
(1.22149 0.229676 -6.19977e-20)
(1.07833 0.00486191 -9.77955e-21)
(1.00002 0.000611561 -8.79825e-21)
(0.959831 0.0376829 0)
(1 7.50172e-05 -1.53701e-20)
(0.99998 0.000312775 -1.01386e-20)
(0.687336 0.28168 2.5842e-20)
(0.993284 0.00952783 1.57928e-20)
(1.02653 0.0112274 -9.03348e-23)
(-0.0918347 0.00399208 -1.67476e-19)
(1.00619 0.00919521 2.8892e-21)
(0.604048 -0.0243829 0)
(1.22752 0.104466 0)
(0.855651 0.0644719 -1.21024e-19)
(-0.0121192 -0.0237481 0)
(-0.135952 -0.0187878 0)
(0.991878 0.107518 7.30336e-21)
(0.780083 0.345515 -2.57338e-21)
(0.999114 8.86917e-05 -1.98939e-20)
(1.14258 0.00591517 -2.90781e-20)
(0.999998 8.73382e-05 8.41532e-21)
(0.972339 0.0309995 -1.3114e-20)
(1.06367 0.0102533 8.40125e-20)
(0.999885 0.00412292 5.63968e-21)
(0.966345 0.0712318 -2.16456e-20)
(0.575486 0.908178 4.31127e-20)
(1.01666 0.000536967 1.98147e-21)
(1.00387 0.00669534 -7.18999e-23)
(0.768608 0.104371 9.80139e-20)
(0.763725 0.653008 6.10987e-21)
(1.01906 0.0460422 0)
(1.03099 0.0033449 2.4569e-21)
(-0.141271 -0.00318615 -1.38673e-19)
(1.13162 0.196602 -4.22528e-20)
(1.0046 0.0144588 -4.32734e-21)
(0.717577 0.163672 -4.06325e-20)
(-0.11863 -0.0117999 0)
(1.01031 0.016799 0)
(1.00001 0.000434774 0)
(1.02196 0.0121096 0)
(0.997507 0.0177543 -7.35895e-21)
(1.01897 0.000534807 -1.01362e-21)
(1.01904 0.0139374 3.26149e-21)
(0.797825 0.0309748 5.27968e-20)
(0.808486 0.00402558 8.03776e-20)
(0.971504 0.032293 2.82684e-20)
(0.456986 0.00239236 0)
(1.01799 0.000961955 1.52408e-21)
(0.992761 0.0182357 0)
(1.19294 0.255261 2.81774e-20)
(1.04718 0.0194973 0)
(0.642958 -0.0178846 -6.11587e-20)
(1.13168 0.0989584 0)
(0.96331 0.0434042 -2.00758e-20)
(1.02793 0.00887329 0)
(1.03022 0.00347541 -1.35825e-21)
(1.0222 0.324933 0)
(1.06218 0.00567991 -4.73317e-21)
(0.987478 0.108417 7.22619e-21)
(0.989473 0.0489748 0)
(-0.158779 -0.02768 4.82257e-20)
(0.954543 0.00813055 -1.82415e-20)
(1.20644 0.214901 -9.09868e-20)
(0.956239 0.0504534 2.08231e-20)
(1.00223 0.00803649 -6.10992e-21)
(1.00032 0.022525 -6.87457e-21)
(1.15448 0.338623 -5.40131e-20)
(1.00175 0.00763137 -5.11761e-21)
(0.907007 0.0184332 -4.74693e-20)
(0.995234 0.0229999 -1.31901e-21)
(1.04413 0.0135534 -1.0275e-21)
(-0.121068 0.00145495 1.54169e-19)
(1.0722 0.0525147 0)
(0.989937 0.00553014 -9.21886e-23)
(1.01192 0.000988069 -1.02982e-22)
(-0.168112 0.00212097 5.29874e-20)
(0.996878 0.0167537 -1.68976e-20)
(1.07311 0.0544007 0)
(1.01521 0.067694 0)
(1.01638 0.0164579 2.20075e-21)
(0.610975 0.0252359 0)
(-0.00831518 -0.0322171 6.43867e-20)
(1.00458 0.00798065 9.56501e-21)
(0.96591 0.013816 0)
(1.07993 0.00626131 0)
(1.01726 0.00165385 1.40963e-21)
(0.998952 0.00639308 0)
(0.992545 0.00029035 0)
(-0.16248 0.000257981 0)
(0.99407 -0.000265482 -1.26424e-20)
(1.01817 0.000481746 7.66797e-22)
(0.958161 0.108214 -1.72054e-20)
(0.904793 0.012262 -5.17777e-20)
(1.11422 0.139252 0)
(1.00002 0.000305497 -1.5492e-20)
(1.04683 0.112036 0)
(-0.114538 -0.0090092 0)
(1.11929 0.0247425 2.16267e-20)
(0.988943 0.00136145 -9.80995e-21)
(0.992961 0.00836354 0)
(1.19488 0.0931206 -5.23244e-20)
(1.05171 0.0208901 -8.57033e-21)
(1.0022 0.00760708 6.04735e-21)
(0.891949 0.0692703 0)
(1.03434 0.0211433 1.02295e-23)
(1.01859 0.0136809 -2.87891e-21)
(0.946704 0.016272 6.36998e-21)
(1.0201 0.00579755 1.42998e-21)
(0.938854 0.164666 0)
(0.991931 0.0115896 2.7299e-20)
(1.00155 0.00764855 7.1362e-21)
(-0.180771 -0.0223885 -5.39575e-20)
(1.0096 0.00662907 -9.07461e-22)
(1.05896 0.00493565 0)
(1.00008 0.00405458 2.1974e-20)
(0.990845 0.047493 0)
(1.03706 0.12348 -9.89749e-21)
(1.00435 0.00773276 -6.01767e-21)
(1.03758 0.0202639 1.98036e-21)
(1.25059 0.235818 -7.28791e-20)
(0.993081 0.0535819 6.87189e-21)
(0.14193 -0.0523369 0)
(1.05634 0.0368308 -5.6528e-21)
(0.999999 0.000134083 7.75459e-22)
(1.00001 0.000117377 7.52838e-21)
(1.13126 0.218785 -2.28137e-20)
(0.987312 0.0186333 -9.99082e-21)
(0.98993 0.00513118 9.97713e-21)
(1.00198 0.00201468 0)
(1.05531 0.0199693 -8.54062e-21)
(0.937802 0.0912918 0)
(0.245457 -0.0544131 5.86793e-20)
(0.996355 0.0165221 7.35151e-21)
(0.932362 0.161027 0)
(0.632069 0.727226 -5.01513e-20)
(1.11989 0.0219727 -2.08161e-20)
(1.00001 0.000434913 -8.16915e-21)
(0.992038 0.00334504 -1.03656e-20)
(1.05023 0.0104741 -7.13051e-22)
(1.00001 0.0012159 0)
(0.999272 0.0183208 1.23906e-20)
(-0.0771544 -0.0182412 0)
(-0.141406 0.00113448 2.31602e-19)
(0.999886 0.00378387 1.08274e-20)
(1.0744 0.071634 0)
(1.09995 0.0186824 2.05824e-20)
(1.09753 0.0183961 0)
(0.971702 0.00658926 6.31738e-21)
(1.01352 0.00145751 0)
(1.13705 0.0465348 0)
(1.03051 0.316863 0)
(0.668926 0.70737 1.50071e-20)
(1.02708 0.0088027 0)
(1.05138 0.0114588 7.93885e-21)
(1.04579 0.0195518 5.18761e-22)
(1.00598 0.00946844 -1.19121e-20)
(-0.0506139 -0.0388515 -6.69138e-20)
(1.05443 0.122157 -1.07512e-20)
(1.05464 0.0212004 0)
(1.02045 0.0308651 -2.53718e-21)
(1.0098 0.000750422 6.58508e-21)
(0.974106 0.00498937 1.75872e-20)
(1.05876 0.03402 4.62527e-20)
(1.07422 0.0507685 0)
(0.998766 -0.00033714 2.10162e-20)
(-0.188181 -0.00355403 -6.61216e-20)
(0.748606 0.611666 -3.50756e-21)
(0.979301 0.446176 -1.12805e-20)
(1.02506 0.202138 -1.21972e-20)
(0.998999 0.00594422 0)
(1.02607 0.0265161 -8.17525e-22)
(1.14893 -0.00744852 -2.51513e-20)
(1.09345 0.149461 -2.95495e-20)
(-0.0518713 -0.0192054 2.20736e-20)
(0.346655 0.165247 -3.68823e-20)
(0.937176 0.0543891 3.43814e-20)
(0.903179 0.0159967 5.25327e-20)
(1.00006 0.00111644 0)
(1.05038 0.0521594 4.6638e-21)
(0.966933 0.0144248 2.9858e-20)
(1.00006 0.00123133 2.48067e-21)
(-0.161888 -0.0246325 4.61506e-20)
(1.01522 0.00132183 -3.52719e-21)
(1.00013 0.0191425 -5.8738e-21)
(1.14528 0.0390287 2.24933e-20)
(0.999997 0.00110682 -4.89095e-21)
(1.13089 0.0275877 3.69743e-20)
(1.0546 0.035725 -2.36602e-21)
(1.18305 0.0604592 0)
(1.00333 0.115954 0)
(0.999906 0.000311412 0)
(1.06606 0.0214713 0)
(1.06244 0.0716899 -1.15309e-20)
(1.12395 -0.012602 6.82254e-21)
(1.02916 0.198147 6.52559e-21)
(0.924815 0.286636 0)
(0.999987 0.000147604 0)
(1.14069 -9.34791e-05 0)
(1.02509 0.0596654 1.30052e-21)
(1.01236 0.0327619 6.87099e-23)
(1.00046 0.00223808 0)
(1.03651 0.0411479 3.12249e-21)
(0.995893 -0.000667453 -5.40454e-21)
(0.935308 0.0573337 0)
(1.1156 0.136238 0)
(0.830635 0.118667 -8.08162e-20)
(0.998768 -0.000677414 1.81531e-20)
(0.991693 0.0551552 -5.20595e-21)
(1.00207 0.00187799 -7.33541e-21)
(0.989321 0.00890921 1.31143e-21)
(0.766954 0.326987 0)
(1.0034 0.00537478 -4.29786e-21)
(1.01081 0.0678203 -5.40691e-22)
(1.20026 0.0483922 -4.08147e-20)
(1.01964 0.00559377 -2.97557e-21)
(1.09165 0.154646 4.64124e-20)
(1.16616 -0.00830666 2.92876e-20)
(0.996573 0.00199705 0)
(-0.0137697 0.0144869 8.84726e-20)
(1.1204 0.0602246 0)
(0.999925 0.00106749 0)
(1.20012 0.125973 -3.16271e-20)
(1.04326 0.0227707 0)
(1.00001 0.00032356 8.23671e-21)
(0.977645 0.0111943 1.82652e-20)
(0.993517 0.00241413 1.92078e-21)
(0.999996 9.29872e-05 9.18662e-21)
(1.04866 0.0613943 0)
(0.973001 0.00456326 -1.79219e-20)
(0.794931 0.567672 -2.3664e-20)
(0.978176 0.0519465 -1.71884e-20)
(0.992461 0.00359952 1.96389e-21)
(1.02227 0.0452375 0)
(1.04097 0.124555 -3.56197e-21)
(1.09942 0.0640529 -1.7109e-20)
(0.993155 0.000910678 1.63933e-20)
(1.07629 0.0218314 0)
(1.0252 0.0265066 0)
(1.10923 0.0329203 -2.54188e-20)
(0.979815 0.00542481 -1.54374e-20)
(0.999403 0.118363 -3.37376e-21)
(1.02732 0.0115855 -9.99043e-24)
(0.942387 0.00799471 0)
(1.02921 0.00425731 -1.00801e-21)
(1.00107 0.00970662 7.81696e-21)
(0.355161 -0.0160031 2.44449e-20)
(1.02138 0.0123747 0)
(0.770986 0.309534 4.1952e-20)
(0.992314 0.000828802 -1.94442e-21)
(1.06085 0.0198081 -5.79526e-21)
(1.01028 0.00631246 3.25167e-21)
(1.10513 0.0512902 -3.45962e-21)
(1.00006 0.00375186 -8.77756e-21)
(1.12222 0.0627533 0)
(1.01916 0.0403932 0)
(1.19603 0.12671 4.68736e-20)
(0.99997 0.000372124 5.39124e-21)
(0.246876 -0.0518069 -4.65163e-20)
(1.03191 0.00184893 1.21305e-21)
(0.961568 0.0569966 -1.23907e-20)
(0.999966 9.30713e-05 9.80303e-21)
(0.975304 0.0073143 0)
(1.00025 0.00857522 0)
(1.04676 0.0618473 0)
(0.995918 -7.75898e-05 -1.28669e-20)
(0.637498 0.221707 8.04651e-20)
(0.628086 0.439647 1.89723e-20)
(1.13143 0.0268837 -3.23983e-20)
(1.06782 0.0369713 0)
(0.923028 0.150078 -2.42871e-20)
(1.00576 0.0244978 2.40155e-21)
(0.95722 0.167854 1.00788e-20)
(1.14735 0.0447139 -2.39936e-20)
(1.00139 0.0046734 5.19423e-21)
(0.898445 0.0704509 -3.54059e-20)
(0.919061 0.300165 -2.2199e-20)
(-0.0404691 -0.0219151 0)
(1.16512 -0.0119293 -2.76981e-20)
(1.20865 0.266227 9.03169e-20)
(1.06496 0.0737716 -6.98561e-22)
(0.993591 0.0414666 0)
(1.00002 0.000851535 -9.54457e-21)
(1.07852 0.0257927 -2.27582e-20)
(1.05099 0.0590819 -9.98103e-21)
(1.11903 -0.00905958 2.57078e-20)
(1.01703 0.0055673 4.699e-21)
(1.02948 0.0641881 -6.08204e-22)
(1.17268 0.104541 -4.91372e-20)
(1.00002 0.00012056 7.8544e-21)
(0.98926 0.00826336 6.1278e-21)
(1.07854 0.0217215 0)
(0.0718219 -0.0290064 0)
(0.963996 0.0558096 0)
(1.04482 0.10827 0)
(1.1493 -0.0116606 -2.39261e-20)
(0.999933 0.000264633 0)
(0.130099 -0.0606991 -1.52517e-21)
(1.01685 0.00654535 1.89928e-21)
(1.00513 0.015496 1.2907e-22)
(0.998459 0.0515991 1.72573e-20)
(1.03428 0.0220682 1.06865e-21)
(-0.193958 -0.0058647 -1.34141e-19)
(1.15505 0.0391414 -3.14878e-20)
(0.0370889 -0.0259972 0)
(1.00143 0.000672519 9.86072e-22)
(1.22774 0.351969 -1.46194e-19)
(0.0264656 0.0264994 9.36927e-20)
(1.23699 0.104821 0)
(1.11791 -0.0071143 -1.1048e-20)
(1.15423 0.0488452 0)
(1.18283 0.113848 -4.78263e-20)
(0.983689 0.174991 -9.45779e-21)
(0.97801 0.0149664 0)
(0.994668 0.0235676 0)
(0.88849 0.0744915 4.09355e-20)
(-0.213189 -0.0106424 1.47485e-20)
(1.00729 0.0247592 -4.06398e-21)
(0.955367 0.11213 0)
(0.136727 -0.0402081 1.10455e-19)
(0.991613 0.0128127 4.22739e-23)
(1.00183 0.0107857 0)
(1.01166 0.0335045 -2.92996e-21)
(0.981164 0.0574986 0)
(1.00007 0.00865984 0)
(1.0472 0.0124448 1.26064e-20)
(1.12423 0.222189 -2.14344e-20)
(1.06834 0.13186 -4.04987e-20)
(1.04602 0.0124069 0)
(0.999698 0.00673602 -8.05812e-22)
(-0.148811 -0.0161548 8.41576e-20)
(-0.0937835 -0.0676437 -3.4632e-20)
(1.00504 0.02484 0)
(0.989625 0.00119247 0)
(1.00039 0.000517549 0)
(0.996951 0.0175347 3.58033e-21)
(1.19695 0.263501 -3.6266e-20)
(1.15583 0.0358807 2.86386e-20)
(0.985405 0.407283 5.29841e-21)
(0.980143 0.0504313 1.63155e-21)
(1.00177 0.0112553 0)
(1.03624 0.0167045 -1.85639e-21)
(0.94618 0.00470612 -8.78061e-23)
(0.997297 0.00225898 8.12978e-21)
(1.10662 0.0434678 -1.09129e-21)
(0.961814 0.0353723 -4.94124e-21)
(0.229066 -0.0259242 1.64778e-19)
(0.998579 0.00626737 -2.68403e-22)
(1.00078 0.00305047 -1.26848e-21)
(1.02167 0.167335 2.45316e-21)
(1.00723 0.0238282 0)
(1.11454 0.00720704 2.19327e-20)
(0.860508 0.248584 -4.25093e-20)
(1.064 0.0213331 0)
(0.733038 0.567478 0)
(0.00490353 -0.0260752 2.30756e-20)
(0.992014 0.0413017 0)
(0.999482 0.0190538 -5.77613e-21)
(0.546369 -0.00310058 -4.90596e-20)
(-0.191647 -0.0160829 -2.30345e-20)
(0.968447 0.153058 0)
(1.04235 0.0223922 0)
(0.91424 0.0174016 3.16179e-20)
(0.736579 0.370833 1.39408e-20)
(0.910774 0.0258203 -2.49458e-20)
(0.978993 0.0142139 3.60799e-20)
(1.00229 0.00156271 0)
(1.00353 0.00581962 7.64271e-21)
(1.03474 0.399009 5.58228e-20)
(1.06621 0.0373669 5.57973e-21)
(0.760375 0.270347 0)
(1.00001 0.000346469 1.01488e-21)
(-0.093945 -0.0185545 -1.93351e-19)
(1.21341 0.221017 3.0114e-20)
(0.992166 0.00280254 -1.03512e-20)
(0.996558 0.00626125 1.1563e-20)
(0.650733 0.209582 -7.42333e-20)
(0.999067 0.000506707 -2.12395e-20)
(1.01066 0.00634994 -4.06449e-21)
(0.988425 0.0865858 -1.49341e-20)
(-0.0627196 -0.0273716 0)
(-0.0354126 -0.0280098 -4.01652e-20)
(0.461105 -0.00578706 2.01795e-20)
(1.05732 0.00567871 0)
(1.14364 0.0614812 0)
(0.984562 0.167568 1.03283e-21)
(1.01484 0.00526413 -2.04999e-21)
(1.00918 0.000475078 -5.95405e-21)
(0.999511 1.12269e-05 -2.04406e-23)
(1.04448 0.38544 -3.7974e-20)
(1.0001 0.00104533 0)
(0.992382 0.00416766 0)
(1.14365 0.0592147 -3.22789e-20)
(0.972775 0.00862924 -2.28686e-20)
(1.1131 0.150305 -2.30001e-20)
(1.00073 0.000753167 -1.12397e-20)
(0.998228 0.000348585 7.60305e-21)
(1.01197 0.00131374 4.60618e-21)
(0.998939 -0.000655154 -3.50926e-21)
(1.1911 0.0874154 -2.65971e-21)
(1.0001 0.00115385 2.96908e-22)
(0.998205 0.0271607 -8.94467e-21)
(1.11512 0.0722601 0)
(0.911267 0.227616 0)
(0.793705 0.482395 0)
(0.99996 0.00109492 0)
(1.14802 0.135347 4.27999e-20)
(-0.129065 -0.0712333 3.53889e-20)
(0.152393 -0.0533644 0)
(0.960686 0.0438979 1.99205e-20)
(-0.187115 -0.00469119 -1.47944e-20)
(-0.101003 -0.0186566 -1.17755e-19)
(0.991974 0.0124582 1.078e-20)
(1.01768 0.00284826 1.26101e-21)
(0.975925 0.0487611 0)
(0.94263 0.0282263 7.2527e-21)
(-0.0779853 -0.0471631 -1.22524e-19)
(1.0172 0.068877 0)
(1.00046 0.00208389 0)
(1.00008 0.0010884 0)
(-0.0827346 -0.0656955 -1.04716e-21)
(0.959405 0.160926 0)
(1.05594 0.00465182 9.36328e-22)
(1.00037 0.0017303 0)
(0.989121 0.00247076 0)
(1.05592 0.153031 -1.62774e-20)
(1.01003 0.00671682 4.78274e-21)
(1.0073 0.000673111 5.3726e-21)
(1.10624 0.0328506 2.49176e-20)
(0.98068 0.0551117 1.2694e-20)
(0.999619 2.6147e-06 0)
(1.0289 0.0224008 2.49443e-24)
(0.695381 0.596562 0)
(1.03459 0.0244088 0)
(0.985483 0.0560595 -2.39147e-20)
(0.995703 -0.000864592 1.16309e-20)
(0.993597 0.0495801 9.68366e-22)
(1.15522 0.19033 3.15684e-20)
(0.999973 0.00120101 5.22097e-21)
(0.969126 0.0530093 4.42148e-21)
(0.997231 -0.000121438 1.19792e-21)
(1.07126 0.0473802 -1.21209e-20)
(0.622865 0.521264 0)
(0.999999 8.90905e-05 0)
(0.806388 0.462325 0)
(1.0315 0.0874184 1.01222e-21)
(-0.056864 -0.0387234 8.39681e-21)
(1.01659 0.000611349 -1.28896e-21)
(1.02403 0.0676495 6.52878e-22)
(1.10462 0.0304622 -2.96905e-21)
(1.14659 0.138111 4.5451e-20)
(0.769478 0.11755 -1.03838e-19)
(0.961826 0.0339026 5.09346e-21)
(1.14743 0.241078 0)
(0.456712 -0.0393904 0)
(0.957489 0.0204043 -4.85607e-21)
(1.01193 0.000757478 -1.15482e-22)
(1.23099 0.0996187 1.06195e-19)
(0.99737 -0.000912072 -9.72074e-21)
(1.00001 0.000612302 8.89706e-21)
(1.01391 0.0157764 4.96642e-21)
(1.00002 0.000697205 7.63319e-21)
(1.1201 0.100362 -7.32292e-21)
(1 1.40103e-05 -3.90312e-21)
(0.999995 8.60067e-05 0)
(0.848332 0.244368 7.16458e-20)
(1.00333 0.111265 -3.50324e-21)
(1.01502 9.88807e-05 -1.92617e-21)
(0.910002 0.108077 -1.6662e-20)
(0.949164 0.0123443 -1.79029e-20)
(0.414739 -0.00443861 0)
(1.06139 0.0325612 1.28427e-20)
(0.783175 0.540746 2.44942e-20)
(0.997625 0.0185339 0)
(1.14452 0.0421896 4.85882e-20)
(0.966399 0.159945 0)
(0.0575673 -0.0452948 0)
(1.06285 0.0483516 0)
(-0.0727482 -0.0375713 1.73392e-19)
(1.00001 0.000353 8.46067e-21)
(1.08504 0.00221672 0)
(1.00143 0.00252565 0)
(0.994563 0.0401144 -1.39926e-20)
(0.986374 0.0186021 -2.2905e-22)
(1.18075 0.0584363 0)
(0.846628 0.128735 -2.11562e-20)
(1.13754 -0.0061847 4.47804e-20)
(-0.157742 -0.0184504 0)
(1.00037 0.00231065 0)
(0.913238 0.876067 0)
(1.0857 -0.00183501 0)
(1.02217 0.0246814 1.0148e-22)
(0.862417 0.0536822 -4.54456e-20)
(1.08444 0.0711537 0)
(-0.000122982 -0.0261453 -9.86754e-20)
(0.996242 0.0063879 0)
(0.933652 0.0907338 0)
(0.908902 0.215635 2.1384e-20)
(1.01293 0.0691052 5.90618e-22)
(0.820794 0.120543 1.06185e-19)
(1.00001 0.000154301 7.56946e-21)
(1.01659 0.00319928 1.72429e-21)
(1.00001 0.000141987 1.51806e-20)
(0.939585 0.438852 -8.07964e-21)
(0.998931 0.00101788 -4.0678e-21)
(1.00118 0.00512455 7.1561e-21)
(1.01289 0.0150746 4.8989e-21)
(1.01098 0.00124722 5.49459e-21)
(1.00084 0.00966717 -8.62764e-21)
(0.999384 0.00698188 0)
(1.02275 0.047085 0)
(1.0021 0.0164298 -1.57959e-20)
(0.999053 0.00025199 2.16915e-20)
(0.955164 0.00583942 -1.44654e-22)
(0.990574 0.0894528 6.85158e-21)
(0.916186 0.106719 3.08174e-20)
(0.993843 0.000190813 1.44927e-20)
(-0.0475036 -0.0398031 0)
(0.998713 0.0365909 2.56012e-21)
(1.21852 0.347538 4.47234e-20)
(0.880927 0.135967 1.10113e-20)
(-0.0712097 -0.0141339 -5.86111e-20)
(1.07951 0.107392 -1.7846e-20)
(1.0828 0.00275358 0)
(-0.152857 0.00388397 0)
(1.10057 0.0666344 1.79243e-20)
(0.971503 0.427439 0)
(0.293557 -0.0436509 -3.75312e-20)
(1.05783 0.148192 1.54092e-20)
(1.00007 0.00118702 0)
(1.00413 0.0146413 3.61901e-21)
(0.996827 0.061657 -9.33791e-21)
(1.16039 0.187941 -3.542e-20)
(1.01051 0.0333632 0)
(-0.0319754 -0.00728899 -7.42417e-20)
(1.00172 0.0301456 9.29937e-21)
(0.934632 0.653176 -2.50951e-20)
(0.20503 -0.0538568 -4.18236e-20)
(1.1455 -0.0139637 -2.09669e-21)
(1.05297 0.0368193 -2.2314e-21)
(-0.0411703 0.00888685 0)
(-0.0912634 -0.0112338 7.78926e-20)
(0.939488 0.00831462 0)
(0.993301 0.00168888 -2.66642e-23)
(0.999954 0.000135554 -1.24248e-20)
(1.07519 0.0238252 0)
(1.01682 0.00306299 -8.9425e-22)
(1.01325 0.00118759 -2.79613e-22)
(1.06384 0.191086 0)
(1.03192 0.00969473 2.21276e-20)
(0.997375 -0.000408363 0)
(1.00966 0.0327612 0)
(0.957372 0.00548512 1.78749e-20)
(1.15954 0.332151 1.47361e-19)
(1.15245 -0.00482826 0)
(0.999352 0.00113668 0)
(1.03056 0.0836407 -1.13386e-21)
(1.15538 0.109903 -2.31629e-20)
(0.990161 0.0509371 0)
(0.999518 0.0055023 7.51657e-23)
(-0.061123 -0.00774706 0)
(0.980838 0.0409074 0)
(0.99297 0.0196227 0)
(0.814066 0.905169 0)
(0.986773 0.0749745 1.19224e-20)
(0.977765 0.00489974 -4.21616e-21)
(-0.140289 0.0110073 -1.19897e-19)
(-0.0596051 -0.0424257 -7.24419e-20)
(0.0668692 0.0281983 -8.65016e-20)
(0.989489 0.0103192 -7.20949e-22)
(0.969159 0.0558422 1.29842e-20)
(1.2045 0.109259 0)
(1.01322 0.0157004 -5.12152e-21)
(1.01985 0.0319797 0)
(0.999991 0.000177789 0)
(1.10069 0.00020754 3.86466e-21)
(0.997252 0.00304032 -1.63684e-20)
(1.00078 0.000717724 1.08143e-20)
(1.06847 -0.00447506 5.89945e-21)
(0.780586 0.0966032 -6.22376e-20)
(0.868758 0.397878 0)
(1.00874 0.0166822 0)
(0.980534 0.0105367 -1.71067e-20)
(0.99737 -0.00141941 8.94039e-21)
(1.01965 0.0298649 4.47117e-21)
(0.977905 0.0474304 2.06055e-20)
(1.01569 0.00353226 0)
(1.17815 0.113024 0)
(0.985856 0.112931 -1.50724e-20)
(0.98929 0.030256 2.1398e-20)
(0.99489 0.00505612 0)
(1.01021 0.0156203 6.50016e-21)
(1.00213 0.00523379 5.2475e-21)
(1.03065 0.0470107 7.83734e-23)
(-0.0451755 -0.0247932 0)
(1.09142 0.0474381 0)