/*--------------------------------*- C++ -*----------------------------------*\
| =========                 |                                                 |
| \\      /  F ield         | OpenFOAM: The Open Source CFD Toolbox           |
|  \\    /   O peration     | Version:  v2012                                 |
|   \\  /    A nd           | Website:  www.openfoam.com                      |
|    \\/     M anipulation  |                                                 |
\*---------------------------------------------------------------------------*/
FoamFile
{
    version     2.0;
    format      ascii;
    class       surfaceVectorField;
    location    "650";
    object      Uf_0;
}
// * * * * * * * * * * * * * * * * * * * * * * * * * * * * * * * * * * * * * //

dimensions      [0 1 -1 0 0 0 0];


internalField   nonuniform List<vector> 
14907
(
(0.994967 0.0121952 -1.04065e-20)
(0.995033 0.0127194 2.95378e-21)
(0.994619 0.0124566 -5.09545e-21)
(0.997958 0.00352943 4.25504e-23)
(0.997766 0.00376077 0)
(0.997949 0.00389742 -6.02551e-21)
(1.03981 0.0219388 -8.49402e-22)
(1.04072 0.0225704 2.91569e-21)
(1.04081 0.0213027 -1.68531e-21)
(1.01319 9.38806e-05 1.73355e-22)
(1.01307 0.000128022 7.24786e-22)
(0.545511 0.0498461 7.49559e-20)
(0.481937 0.0389418 9.74782e-21)
(0.604362 0.0626848 0)
(0.998649 0.00357448 -2.28089e-21)
(0.998725 0.00324669 8.19099e-21)
(0.99854 0.00341913 9.94429e-21)
(0.191536 -0.0569334 2.41537e-20)
(0.165386 -0.059538 -2.63963e-20)
(0.25679 -0.051579 -4.75746e-20)
(0.943349 0.0237615 -2.91979e-20)
(0.965006 0.0285112 0)
(0.826029 0.00151083 5.07786e-20)
(1.03345 0.0191191 -2.92909e-22)
(1.03302 0.0199692 -3.64776e-22)
(1.03232 0.0190713 -6.14798e-22)
(1.00127 0.00487484 2.16422e-21)
(1.00122 0.00506278 4.05657e-21)
(1.0014 0.00522054 5.95715e-21)
(-0.16434 -0.0263989 -6.11423e-22)
(-0.175465 -0.0238039 -5.19135e-20)
(-0.168519 -0.0246428 -1.02727e-21)
(1.01692 0.000246864 -9.88262e-22)
(1.01294 4.55076e-05 -8.2245e-22)
(1.01793 0.00254797 2.92859e-22)
(1.01777 0.00278764 -1.10644e-22)
(1.01819 0.00286281 -7.73617e-22)
(1.01834 0.00108624 -7.25021e-22)
(1.0181 0.00103786 2.72229e-23)
(1.01821 0.00128894 4.782e-23)
(0.952516 0.0522522 1.44667e-20)
(0.954576 0.0505959 1.01585e-20)
(0.951804 0.0492273 0)
(0.998889 0.00542302 2.42762e-22)
(0.99889 0.00503592 -5.28324e-21)
(0.999033 0.00519361 -1.83029e-21)
(0.998941 0.00581914 -1.72491e-21)
(0.99876 0.00570134 -1.66265e-21)
(1.00003 0.000302808 -3.70928e-22)
(1.00003 0.000312544 3.83791e-21)
(1.00004 0.000407068 0)
(0.994911 0.0116039 -1.51032e-21)
(0.995333 0.0119106 -7.00011e-21)
(0.654941 0.258291 -3.85206e-20)
(0.677689 0.271039 -2.58218e-21)
(0.680256 0.250269 -1.47635e-20)
(1.00396 0.00627295 -2.0406e-21)
(1.00394 0.00655586 -1.70089e-21)
(1.00424 0.00657356 6.21831e-21)
(1.21292 0.0477107 3.99469e-21)
(1.20624 0.049187 -3.85156e-20)
(1.21178 0.0519934 4.06251e-20)
(1.01682 0.000579281 -1.35349e-22)
(1.01673 0.000610619 -1.89297e-21)
(1.01711 0.000812738 -7.66688e-22)
(1.01591 0.00546624 -8.49038e-22)
(1.01632 0.0055624 8.98134e-22)
(1.0162 0.00515614 -1.00477e-21)
(0.998133 0.00334177 6.27597e-21)
(0.997971 0.00320773 -6.54923e-21)
(1.09229 0.0515657 1.71435e-22)
(1.09477 0.0504991 -1.11969e-21)
(1.09218 0.0488266 -1.20578e-21)
(0.998575 -0.000106233 3.98838e-21)
(0.998719 -0.000259942 7.92785e-21)
(0.99875 -4.57043e-05 -7.56429e-21)
(0.988401 0.0573539 -6.45379e-22)
(0.986723 0.0561766 -7.26814e-21)
(0.988805 0.0553087 4.80261e-21)
(1.02156 0.0267033 -4.28245e-23)
(1.02075 0.0271822 3.70978e-22)
(1.02086 0.0260948 1.43778e-21)
(0.996188 0.050437 -9.59866e-21)
(0.997657 0.0514209 1.45525e-21)
(0.996011 0.0525112 -5.67782e-21)
(0.996148 0.00221818 -5.51257e-21)
(0.995851 0.00225705 -6.71525e-21)
(0.996119 0.00187254 4.48767e-22)
(-0.135099 -0.00574571 1.53593e-20)
(-0.14694 -0.00503973 2.86974e-20)
(-0.146737 -0.00571779 -5.5137e-20)
(1.00132 0.00468196 4.92085e-21)
(1.00116 0.00453211 2.39933e-21)
(1.01575 0.0486191 -3.01446e-21)
(1.01562 0.0503746 -7.20195e-22)
(1.01405 0.0488172 1.5307e-21)
(1.05974 0.0745006 -6.5057e-22)
(1.06116 0.0722557 -6.68159e-21)
(1.05847 0.072094 -4.52619e-22)
(1.0155 0.0053888 8.68783e-22)
(1.01561 0.00580249 -1.09678e-21)
(1.08751 0.052916 -7.49774e-21)
(1.09014 0.0522696 -5.79178e-21)
(1.08748 0.0503192 2.11283e-21)
(1.11244 0.0355175 -3.47769e-21)
(1.11011 0.0342946 -1.59565e-20)
(1.11024 0.036879 -1.40139e-20)
(1.01505 0.00523012 3.21204e-22)
(1.01539 0.00492105 1.39407e-21)
(0.989235 0.119228 2.66829e-21)
(0.991123 0.122091 9.05651e-21)
(0.986298 0.12086 -2.72422e-21)
(0.634904 0.260822 -7.95165e-20)
(0.641416 0.240132 1.37075e-20)
(0.961768 0.0498245 -2.04134e-20)
(0.960251 0.0517647 -1.08005e-20)
(0.962878 0.052121 -2.01858e-20)
(0.20957 -0.0547291 2.24134e-20)
(0.127323 -0.0576686 4.61836e-20)
(0.988344 0.0330082 -3.63839e-21)
(0.989055 0.0341691 -8.57929e-21)
(0.989618 0.0326483 -6.5228e-21)
(0.627081 0.0649155 4.6597e-20)
(0.469864 0.0402188 3.63952e-20)
(1.14715 0.049186 7.91133e-21)
(1.14689 0.0461478 -3.56716e-20)
(1.14379 0.0480293 -7.15966e-21)
(0.97219 0.0349804 -1.47595e-20)
(0.972304 0.0363613 -7.09638e-21)
(0.970873 0.0354219 -7.29158e-21)
(1.17351 0.0285132 6.48508e-21)
(1.17103 0.0278122 -4.34449e-21)
(1.17302 0.0255187 1.54281e-20)
(1.07686 0.0587818 -3.68749e-21)
(1.07788 0.0611499 -8.51524e-21)
(1.07939 0.0587914 -3.19287e-21)
(1.14151 0.0050278 -6.2596e-21)
(1.14047 0.00175021 1.1566e-20)
(1.13766 0.00449183 2.51992e-20)
(1.00034 0.000396687 0)
(1.00038 0.00047336 0)
(1.00042 0.000426451 0)
(1.05425 -0.00271754 4.66482e-21)
(1.05565 -0.00257633 -3.34662e-22)
(0.954602 0.0391191 0)
(0.95221 0.039479 -8.19328e-21)
(0.953258 0.0370919 9.22161e-21)
(1.06503 0.0009091 -8.40852e-22)
(1.06459 0.00247627 -1.23151e-20)
(1.06649 0.00171217 -3.39383e-21)
(1.08803 0.0555521 4.29419e-22)
(1.08535 0.0537548 -7.51492e-21)
(0.998534 0.00391627 -1.23574e-20)
(0.998701 0.00372868 -8.34211e-21)
(1.02227 0.0264445 -3.87793e-22)
(1.02229 0.0275367 -4.47984e-22)
(0.972055 0.0332681 8.63656e-21)
(0.973692 0.0343776 -1.01001e-21)
(1.01732 0.0484115 -2.30754e-21)
(1.01589 0.0470225 1.40904e-21)
(0.956746 0.0383741 0)
(0.956038 0.0404944 1.09019e-20)
(0.997025 0.00277483 4.87093e-21)
(0.997179 0.00240848 9.12292e-21)
(0.99689 0.00253601 -4.55378e-21)
(0.99608 0.00506541 5.24782e-21)
(0.996298 0.00523106 -8.24751e-21)
(0.99636 0.00475298 -5.16755e-21)
(1.05818 0.0765651 0)
(1.06105 0.0770414 -7.70116e-21)
(1.03896 0.02116 -1.4724e-22)
(1.03868 0.0223656 2.08283e-21)
(0.963376 0.0137878 4.30868e-21)
(0.961968 0.0142482 -1.56641e-20)
(0.963128 0.0154326 -1.55048e-20)
(1.0187 0.0481601 -1.06115e-21)
(1.01924 0.046791 1.81679e-21)
(1.02062 0.048048 3.58839e-21)
(0.971433 0.0102932 0)
(0.970754 0.0113263 -1.07288e-20)
(0.972191 0.0111125 0)
(0.714058 0.188722 2.99327e-21)
(0.718658 0.169886 -2.12223e-20)
(0.732812 0.182429 -2.13114e-20)
(-0.0743131 -0.0297883 0)
(-0.0561965 -0.031808 0)
(-0.0616003 -0.0338517 0)
(0.998283 0.0286696 -1.67077e-21)
(0.998121 0.0295908 -5.02455e-22)
(0.997347 0.0289332 2.1097e-21)
(1.06591 -0.000777515 7.20173e-21)
(1.06375 -0.000184157 8.97279e-21)
(0.626141 0.277268 -8.00317e-21)
(0.987061 0.0335118 -8.19577e-21)
(0.987593 0.0320248 -2.88477e-21)
(0.856006 0.0612963 -2.70677e-20)
(0.859692 0.0552279 2.22118e-20)
(0.851215 0.0542623 1.35527e-20)
(0.972251 0.00696492 8.58515e-21)
(0.972816 0.00797902 -6.1479e-21)
(0.973467 0.00699456 3.00084e-22)
(1.01679 0.00563166 3.22692e-21)
(1.01645 0.00598779 -1.33407e-21)
(0.362296 0.0105866 1.02242e-21)
(0.438558 0.0256384 4.73668e-20)
(0.994894 0.0111217 -2.12172e-21)
(0.994871 0.0105883 5.70037e-22)
(0.995238 0.0107951 -7.98468e-22)
(0.891179 0.0838116 0)
(0.890468 0.0776299 2.12699e-20)
(0.895958 0.0813931 -1.71338e-23)
(0.200925 -0.0557581 2.88388e-20)
(0.143601 -0.060179 1.3641e-21)
(0.121395 -0.0605706 1.67226e-20)
(1.07416 0.0588216 -6.23561e-23)
(1.07579 0.0565468 8.48376e-22)
(0.735238 0.0907863 -3.46721e-20)
(0.803044 0.102473 5.4093e-22)
(1.0031 0.0391186 2.22939e-21)
(1.00379 0.0383568 -3.17413e-21)
(1.00416 0.0396168 4.02926e-21)
(0.964864 0.0462176 5.48847e-22)
(0.964199 0.0441289 -1.25567e-20)
(0.966485 0.0445214 -3.31387e-21)
(0.972103 0.00911289 -1.20734e-20)
(0.970638 0.00931613 -1.52418e-21)
(1.00002 0.00115957 2.34217e-22)
(1.00002 0.0011827 -6.28091e-23)
(1 0.0010192 -5.29155e-21)
(0.995541 0.0145026 2.81789e-21)
(0.995297 0.0141217 0)
(0.995077 0.0147535 0)
(1.11796 0.262881 5.42814e-20)
(1.10903 0.26024 2.32914e-20)
(1.11642 0.254701 1.36831e-21)
(0.983535 0.0206819 1.45239e-21)
(0.983823 0.0215606 -4.88256e-21)
(0.982861 0.0212603 -1.75628e-20)
(0.995809 0.01511 -9.8109e-22)
(0.996033 0.0144183 3.53411e-21)
(1.03156 0.0408955 3.41581e-22)
(1.03269 0.0400989 3.44966e-22)
(1.03107 0.0396193 2.30412e-22)
(0.833438 0.117168 -3.25517e-21)
(0.662352 0.0744989 3.71704e-20)
(0.989802 0.0586096 5.18625e-21)
(0.987711 0.0595975 -4.72124e-21)
(1.05344 -0.0014117 1.63689e-21)
(0.994649 0.0495992 4.99222e-22)
(0.996306 0.048663 0)
(1.01402 0.0328774 1.41332e-21)
(1.01309 0.0330352 1.55014e-21)
(1.01393 0.0338028 4.76336e-21)
(0.998342 0.0107967 -4.76504e-21)
(0.998155 0.0104582 -4.11303e-21)
(0.998485 0.010311 -4.56078e-21)
(1.00759 0.0319231 0)
(1.00821 0.0312081 0)
(1.00724 0.031055 0)
(0.98743 0.114721 -8.2636e-21)
(0.992679 0.116295 -6.6256e-22)
(1.02695 0.0252723 0)
(1.02777 0.0259177 -2.17341e-22)
(1.02756 0.024797 -9.20624e-23)
(0.999999 9.58096e-05 3.66751e-22)
(1 9.62183e-05 3.94851e-21)
(1.12471 0.204063 2.70114e-20)
(1.12079 0.209003 3.88426e-20)
(1.12829 0.208912 -1.80041e-21)
(0.799752 0.00183561 7.18818e-20)
(0.71165 -0.00911955 -2.58111e-21)
(0.839759 0.00404903 6.73528e-21)
(1.00001 0.00132443 9.16469e-21)
(1.00002 0.00117735 5.58953e-21)
(0.982441 0.0522537 -1.18616e-20)
(0.981198 0.0507581 -4.68749e-21)
(0.98321 0.050292 -5.39008e-21)
(1.01382 0.200888 5.81035e-21)
(1.02073 0.202168 5.10847e-22)
(1.01568 0.208814 4.96813e-21)
(0.992505 0.0110048 -9.21112e-21)
(0.992187 0.0114106 9.48945e-21)
(0.992616 0.0115973 -1.72982e-20)
(0.998566 0.0111494 5.8208e-21)
(0.998218 0.0113125 7.13221e-21)
(1.00369 0.00593676 3.97493e-21)
(1.00401 0.00595132 5.29539e-21)
(1.02624 0.00121186 2.21526e-23)
(1.02564 0.00123987 2.38675e-22)
(1.01143 0.00155211 -2.15431e-21)
(1.0111 0.00136715 -1.98121e-22)
(1.01108 0.00177128 -2.93698e-21)
(1.00254 0.0235357 -3.10698e-21)
(1.00311 0.0241218 2.75952e-21)
(1.00238 0.0244389 4.88076e-21)
(1.02788 0.0890336 3.1257e-22)
(1.02542 0.0897485 1.18339e-21)
(1.02565 0.0870745 3.06179e-22)
(-0.0841103 -0.0260702 0)
(-0.0892683 -0.0295022 0)
(0.964859 0.0135896 2.34978e-20)
(0.963778 0.0123114 1.33848e-20)
(1.00023 0.021504 -6.0227e-22)
(1.00016 0.0221989 1.81282e-21)
(0.999537 0.0217828 9.57049e-21)
(0.990225 0.00384405 9.66352e-21)
(0.99073 0.00366769 -1.37253e-20)
(0.990473 0.00424523 2.02659e-21)
(0.994546 0.0114054 1.3196e-20)
(1.0152 0.032733 0)
(1.01423 0.0318936 -2.23506e-21)
(-0.0162469 0.0112196 -4.20708e-20)
(-0.0545417 0.00503905 -3.47489e-20)
(-0.0131717 0.0114863 3.98867e-20)
(0.983271 0.0197732 2.24212e-21)
(0.984318 0.0200348 1.19997e-20)
(0.864625 0.0136349 2.71857e-20)
(1.00632 0.0298999 -3.33466e-20)
(0.991434 0.036828 -6.37901e-22)
(0.992361 0.0377155 -3.54232e-22)
(0.992642 0.0363538 7.49299e-21)
(0.993313 0.00105742 1.56952e-20)
(0.993379 0.00143736 7.48363e-21)
(0.993701 0.00107715 7.73878e-21)
(1.12872 0.19812 -8.51171e-21)
(1.12128 0.198223 2.09456e-21)
(1.00183 0.0388141 -4.93456e-21)
(1.00243 0.0405373 4.19171e-21)
(0.960588 0.026095 1.61209e-20)
(1.08228 0.0506183 0)
(1.07216 0.0742984 -4.1351e-21)
(1.07368 0.0727215 2.77043e-21)
(1.07454 0.0755897 1.47505e-20)
(1.01089 0.195292 -5.89796e-21)
(1.00606 0.200772 -2.93555e-21)
(0.996078 0.0155827 2.7282e-21)
(0.996302 0.0161206 1.05567e-20)
(0.996569 0.0154868 4.06529e-23)
(0.885177 0.0857158 -1.39237e-20)
(0.891543 0.0897355 0)
(0.977272 0.018914 -7.73006e-21)
(0.977136 0.0201213 -1.18157e-20)
(0.976036 0.0190381 5.87833e-21)
(-0.124345 -0.0131762 -3.66094e-20)
(-0.143114 -0.0153571 2.571e-20)
(-0.146254 -0.0140239 -1.72751e-20)
(1.19489 0.0916506 -2.90518e-20)
(1.19299 0.0886757 -1.31847e-21)
(1.198 0.0885402 2.27351e-20)
(1.02622 0.0260019 -4.58045e-22)
(1.02598 0.0247868 0)
(1.07279 0.18637 2.5187e-21)
(1.07103 0.180321 -1.42442e-20)
(1.07743 0.182203 -1.87035e-20)
(-0.101436 0.00376516 6.88856e-21)
(-0.128301 0.00237155 2.07384e-19)
(-0.100883 0.00491118 1.08072e-19)
(1.03219 0.0424149 6.73992e-23)
(1.03047 0.041731 -3.78371e-22)
(1.17652 0.0293824 1.79981e-20)
(1.17382 0.0313777 -1.92137e-20)
(1.12604 0.265692 4.70118e-20)
(1.1185 0.272184 -8.13244e-21)
(0.977083 0.0515372 -1.80923e-21)
(0.975925 0.0499376 6.78066e-21)
(0.974826 0.0519468 1.51577e-20)
(0.989912 0.00354678 2.43736e-20)
(0.989742 0.00411348 1.0019e-20)
(0.976846 0.0447607 4.08928e-21)
(0.977775 0.0464017 7.89023e-21)
(0.978817 0.0445998 -8.56516e-21)
(1.16303 0.179043 -6.27673e-21)
(1.16027 0.184473 5.03389e-21)
(1.15751 0.178482 3.09301e-20)
(1.04765 0.00206417 2.07472e-21)
(1.04715 0.00095651 -2.43212e-22)
(1.04634 0.00198468 -6.8417e-23)
(1.00198 0.0232661 -2.82777e-21)
(1.00271 0.0229592 -2.82322e-21)
(1.09796 0.158415 9.8163e-21)
(1.09359 0.156494 2.15521e-21)
(1.09416 0.162021 -7.25315e-21)
(1.03187 0.00208738 6.86694e-22)
(1.03142 0.00250162 -4.5113e-22)
(1.03223 0.00270943 0)
(1.00794 0.0328206 0)
(1.00691 0.032642 0)
(1.0015 0.0909424 2.39729e-21)
(0.998378 0.0906267 5.21953e-21)
(1.00062 0.0880178 4.41984e-21)
(1.03552 0.0189658 8.03552e-23)
(1.03569 0.0180087 -5.43614e-23)
(1.03653 0.0187775 -1.08368e-21)
(1.00003 0.000124062 3.84912e-21)
(1.00004 0.000168173 -9.36141e-23)
(1.00002 0.000120814 -1.1309e-22)
(-0.0292614 -0.060926 0)
(-6.83323e-05 -0.0570425 0)
(-0.046892 -0.0623555 0)
(-0.0427692 0.00231435 -8.05709e-20)
(-0.0786823 0.0018398 8.33609e-20)
(-0.0527726 0.00317757 1.65652e-20)
(0.999405 0.000151297 -9.65531e-21)
(0.999485 7.12888e-05 -6.28309e-21)
(0.9995 0.000185549 2.46204e-22)
(1.01771 0.00232529 2.72068e-21)
(1.01808 0.00233501 8.3278e-22)
(0.949213 0.00681124 -1.11003e-20)
(0.951323 0.00765633 6.66261e-22)
(0.950863 0.00535044 6.45919e-22)
(0.995873 0.00491742 1.12777e-20)
(0.995834 0.00540602 2.82918e-21)
(1.06787 0.190075 1.60257e-20)
(1.0744 0.191656 1.57108e-20)
(0.0566093 0.0577695 -4.52776e-20)
(-0.11341 0.00201081 3.27289e-20)
(-0.106168 0.0231061 -8.83015e-20)
(-0.160349 -0.0234066 2.27496e-20)
(-0.15849 -0.0193646 0)
(-0.154032 -0.0245454 -2.56882e-20)
(1.17671 0.101485 -7.34986e-21)
(1.17558 0.0980731 -1.45056e-21)
(1.17953 0.0986435 -9.42375e-21)
(0.994841 0.00332794 -3.31351e-21)
(0.995039 0.0034967 0)
(0.994688 0.00369105 -1.44547e-21)
(1.03456 0.019118 6.53114e-23)
(1.03532 0.019866 -5.50037e-22)
(1.00719 0.0416668 -5.72112e-22)
(1.00645 0.0426791 -5.42644e-22)
(1.00772 0.0428938 -4.68961e-23)
(0.977468 0.0175672 -6.83495e-21)
(0.978487 0.0187243 1.28318e-21)
(0.925743 0.235703 -3.36888e-21)
(0.922271 0.24647 5.45145e-21)
(0.934803 0.242368 1.1144e-20)
(0.295972 0.156767 3.31378e-21)
(0.355528 0.214877 -1.43019e-21)
(-0.146735 -0.00227614 -7.03144e-20)
(-0.149094 0.0017703 6.59337e-20)
(-0.0340796 0.00204338 -6.3109e-20)
(0.00424568 0.00692495 1.41119e-20)
(1.06136 0.00589345 1.25029e-21)
(1.05967 0.00547772 4.14621e-21)
(1.06024 0.00717968 -1.57114e-21)
(1.00436 0.0136659 6.71302e-21)
(1.0046 0.0141997 7.75073e-22)
(1.00487 0.0138393 -7.8549e-22)
(0.999882 0.15869 3.44796e-20)
(0.891799 0.135449 2.76751e-20)
(0.685741 0.328302 -8.33708e-20)
(0.680303 0.297519 -4.52616e-20)
(0.655173 0.314748 6.02521e-20)
(0.890522 0.149995 0)
(0.898213 0.151056 -8.88594e-21)
(0.89512 0.143023 0)
(0.0716089 -0.0389127 -2.84006e-20)
(0.123963 -0.0408865 2.00739e-21)
(0.0439197 -0.0441174 1.15511e-20)
(-0.103405 0.00572024 -2.02181e-20)
(-0.107475 -0.00188972 -1.00173e-19)
(-0.0984025 -0.00243912 3.87876e-21)
(0.990597 0.0359671 6.46852e-21)
(0.989819 0.0350412 6.77284e-21)
(0.991006 0.0346181 7.81593e-21)
(0.715475 0.209539 5.75357e-20)
(0.695631 0.196053 -3.42112e-20)
(1.04552 0.11795 -1.44664e-21)
(1.04558 0.113944 6.29539e-21)
(1.04183 0.116308 3.78812e-21)
(0.947003 0.00585413 -1.15297e-20)
(0.947427 0.00835352 -1.25799e-20)
(-0.118161 -0.0103963 2.08754e-20)
(-0.113402 -0.00819678 2.94934e-20)
(0.969975 0.012524 -1.78403e-21)
(0.970991 0.0134727 9.6186e-21)
(0.969201 0.0137101 8.54294e-21)
(1.06941 0.0736505 -2.33185e-21)
(1.07045 0.0765081 -1.80486e-20)
(0.963241 0.0479498 -7.8135e-21)
(0.960866 0.0476148 4.8199e-22)
(-0.0244824 0.0100763 0)
(0.0446352 0.0206848 0)
(1.19933 0.114328 1.17464e-20)
(1.19906 0.110384 -2.04438e-20)
(1.19542 0.112904 7.14614e-20)
(1.01825 0.042853 2.33954e-21)
(1.0177 0.0420437 9.30736e-22)
(1.01694 0.0429667 2.23194e-21)
(-0.138223 -0.0237612 -5.2648e-20)
(-0.136978 -0.0272261 0)
(-0.131652 -0.0272417 4.08097e-20)
(1.05254 0.0571932 9.93088e-21)
(1.05133 0.0553322 -5.63345e-21)
(1.05369 0.055387 -7.29252e-21)
(0.752954 0.734234 -9.37977e-21)
(0.752416 0.67231 4.94714e-21)
(0.699047 0.708558 4.78382e-21)
(0.975891 0.0433721 -7.25192e-21)
(0.974669 0.0452145 1.57255e-20)
(-0.0619248 -0.0627323 -5.75697e-22)
(-0.0150808 -0.0617214 -1.67653e-20)
(1.16003 0.19458 -1.34776e-20)
(1.12211 0.178037 4.50228e-20)
(1.1702 0.0744402 -9.40673e-21)
(1.16721 0.0746254 1.94666e-21)
(1.16958 0.0772824 -2.18486e-20)
(1.20635 0.169849 -6.22112e-21)
(1.12183 0.145243 1.96467e-20)
(1.14729 0.155374 -1.39703e-20)
(1.07396 0.0495757 0)
(1.07237 0.0478927 -6.29782e-21)
(1.07491 0.0472897 -1.51071e-20)
(0.99337 0.0097707 3.92565e-21)
(0.993295 0.0103281 -3.74412e-21)
(0.993734 0.0100044 -7.90409e-21)
(1.01753 0.0020374 -6.64463e-22)
(1.01731 0.0022598 1.386e-21)
(1.02065 0.0677052 1.78562e-21)
(1.0227 0.0678039 3.30565e-22)
(1.02139 0.0702366 0)
(0.869418 0.129746 -4.24179e-21)
(0.877704 0.132718 1.78961e-20)
(0.876787 0.124332 -2.80332e-21)
(1.01925 0.043179 0)
(1.01829 0.044224 -1.59768e-21)
(1.0039 0.0241994 5.52808e-21)
(1.00472 0.0244979 2.32821e-21)
(1.00433 0.0235534 -3.36457e-21)
(0.709143 0.329761 -1.69719e-21)
(0.691923 0.351404 -2.26524e-20)
(0.968952 0.0117057 -1.09569e-20)
(1.01927 0.0150023 2.82487e-22)
(1.01995 0.015034 2.72441e-22)
(1.01968 0.0157386 -2.53294e-21)
(0.81072 0.827848 -9.26726e-21)
(0.833127 0.721967 2.4832e-21)
(0.999105 0.000464611 -9.71171e-21)
(0.999096 0.000313666 1.46399e-20)
(0.999214 0.000363646 3.45378e-21)
(1.00002 0.000347045 -3.6332e-21)
(1.00002 0.000357121 8.12819e-21)
(1.00003 0.000465373 -6.74814e-22)
(0.999912 0.000375728 1.5747e-21)
(0.999893 0.000347265 1.36427e-21)
(0.999876 0.000446713 3.05051e-21)
(1.25298 0.181658 -4.3404e-20)
(1.24606 0.175748 1.72675e-20)
(1.01806 0.00044156 4.3078e-22)
(1.01827 0.000355679 0)
(1.01683 0.000212803 7.01938e-22)
(0.917298 0.228727 -3.37586e-21)
(0.928195 0.225805 -1.23926e-20)
(1.01021 0.402896 -1.10049e-20)
(0.992808 0.40852 6.95113e-22)
(1.00906 0.423534 -1.92817e-21)
(0.953429 0.00841551 -9.09048e-21)
(0.951946 0.00989536 9.12909e-21)
(1.20321 0.114802 -2.42291e-20)
(1.19978 0.117202 2.02636e-20)
(0.976513 0.00609304 -8.63285e-21)
(0.975889 0.00699914 -1.81181e-20)
(0.976994 0.00707727 -7.26542e-21)
(0.999632 0.00691161 -3.77155e-22)
(0.999447 0.00698338 0)
(0.999606 0.00734519 -4.39046e-21)
(1.11532 0.149391 8.89386e-21)
(1.11787 0.145533 4.99505e-21)
(1.12059 0.150686 3.92844e-21)
(1.01008 0.016687 -2.43385e-21)
(1.00976 0.0162423 -2.69243e-21)
(1.0095 0.0167874 -6.26811e-21)
(1.03048 0.0885153 5.05696e-22)
(1.03005 0.0915473 2.51249e-22)
(0.947701 0.0156487 1.06747e-20)
(0.949001 0.0136945 1.01843e-22)
(0.950079 0.0157509 7.48012e-21)
(1.09734 0.377216 7.28027e-21)
(1.0827 0.371474 4.25374e-20)
(1.09375 0.362 7.75362e-21)
(1.11463 0.0367152 0)
(1.11449 0.0342377 0)
(0.936483 0.0629068 -1.26917e-20)
(0.936436 0.0659718 2.10505e-20)
(0.933441 0.0637639 -8.25014e-21)
(1.09679 0.0494282 0)
(1.09906 0.0481852 -9.48588e-22)
(1.0968 0.0467973 6.9449e-22)
(1.22042 0.0849267 -3.60187e-20)
(1.2051 0.084451 1.0738e-20)
(1.23233 0.0882575 -1.70057e-20)
(1.00134 0.0229402 -5.2283e-21)
(1.00074 0.0225571 -8.95241e-21)
(1.00146 0.0222766 4.19776e-21)
(1.18386 0.115909 -2.32346e-20)
(1.18709 0.118335 0)
(1.18261 0.119686 2.91961e-20)
(1.06667 -0.0021981 2.88251e-21)
(1.06811 -0.0012623 -1.01475e-21)
(1.03369 0.0182434 3.17467e-22)
(0.789692 0.346217 -3.38703e-20)
(0.808742 0.341048 -2.96347e-20)
(0.805794 0.361397 -1.17284e-20)
(1.00416 0.0131874 3.98049e-21)
(1.00394 0.0135139 -2.00888e-22)
(1.06751 -0.00376837 3.06017e-21)
(1.06539 -0.00333088 -4.69785e-21)
(1.04173 0.0226157 2.57998e-21)
(1.04085 0.023377 2.4846e-21)
(1.00406 0.091912 4.15773e-21)
(1.00179 0.094675 1.96367e-21)
(1.01728 0.016788 -1.61013e-21)
(1.01727 0.017449 -4.56394e-22)
(1.0179 0.0171626 1.59226e-22)
(1.01859 0.000711943 1.17323e-21)
(1.01874 0.000598703 7.2217e-23)
(1.01879 0.000843744 3.73738e-22)
(1.05913 0.0361067 -3.80821e-21)
(1.06092 0.0360281 3.13594e-21)
(1.05997 0.0377526 -3.12695e-21)
(1.08803 -0.00471769 6.2396e-21)
(1.08705 -0.00283277 6.26203e-21)
(1.08951 -0.00323966 -9.43401e-22)
(0.99464 0.00309937 -3.46159e-21)
(0.995032 0.00290898 1.20327e-21)
(0.990199 0.03728 -1.8465e-20)
(1.00786 0.0406169 0)
(1.00664 0.0404077 0)
(1.02255 0.0906632 -8.18693e-24)
(1.0251 0.0936399 -5.03719e-22)
(1.00024 0.0208499 -6.22715e-21)
(1.00085 0.0212338 3.68855e-22)
(0.996419 0.00215121 0)
(0.996193 0.00250991 0)
(1.01506 0.00129849 -7.26595e-22)
(1.01479 0.000978957 1.24162e-21)
(1.01468 0.00135229 1.13066e-21)
(0.981659 0.0542375 5.06611e-22)
(0.983794 0.0536233 -5.85152e-21)
(1.06334 0.00337093 -5.85019e-21)
(1.06219 0.00469525 -4.57015e-22)
(1.0617 0.00282439 2.76279e-21)
(1.00001 0.000196777 -2.88655e-23)
(1.00003 0.000290041 5.77807e-22)
(1.01731 0.00153688 1.94042e-22)
(1.01724 0.00129384 -1.05106e-22)
(1.01751 0.00136735 -1.46341e-21)
(0.99841 0.027694 -8.54125e-21)
(0.999206 0.0282889 -3.88376e-21)
(0.982895 0.0768309 1.13954e-21)
(0.980564 0.0781789 1.36865e-20)
(0.983364 0.0795884 1.6359e-20)
(1.10253 0.389815 0)
(1.11273 0.37694 3.17992e-20)
(1.17441 0.103822 -4.61366e-20)
(1.17802 0.104236 2.07793e-20)
(-0.138243 -0.0203405 -5.49876e-20)
(-0.142913 -0.0208355 1.43301e-20)
(0.886691 0.157392 0)
(0.883135 0.148998 -1.78037e-20)
(0.905956 0.152086 -1.74283e-20)
(0.913907 0.15314 9.56932e-21)
(0.909277 0.145106 -1.84538e-20)
(0.950134 0.0537595 1.2379e-20)
(0.953132 0.0548212 -1.19123e-20)
(1.14993 0.0503383 1.59212e-20)
(1.15351 0.0495082 -1.15638e-20)
(1.1528 0.0529609 1.77103e-20)
(0.254791 -0.0464595 -2.10507e-20)
(0.257058 -0.0443872 -2.49235e-20)
(0.179382 -0.051952 1.00304e-21)
(1.05713 0.0362574 -3.09697e-21)
(1.05797 0.0345708 0)
(0.992916 0.0106455 -3.92142e-21)
(0.992484 0.010483 -3.26341e-22)
(1.01848 0.000907115 6.03919e-22)
(1.01838 0.000644429 -3.27171e-22)
(1.01837 0.068205 1.68689e-21)
(1.01969 0.0659905 -2.29801e-22)
(1.01675 0.0164581 -2.33269e-24)
(1.01732 0.016179 -3.97567e-21)
(1.2009 0.0489815 4.10804e-20)
(1.20801 0.0465002 1.43125e-20)
(1.06885 0.0158435 7.02712e-21)
(1.06729 0.0159442 1.65985e-20)
(1.06856 0.0174019 1.32297e-21)
(0.995556 0.0157321 -4.75774e-21)
(0.999947 0.000309066 1.6908e-22)
(0.999942 0.000401721 -5.24918e-21)
(0.862644 0.124641 -1.53405e-20)
(0.862229 0.133266 5.14314e-20)
(1.06497 0.00423226 6.77575e-21)
(1.02596 0.397757 2.11712e-20)
(1.01377 0.387791 -5.27397e-21)
(0.902823 0.159875 3.90928e-21)
(1.1392 0.234493 0)
(1.14288 0.24092 -1.95132e-20)
(1.148 0.233671 -5.71425e-20)
(1.05157 0.0585236 4.26774e-21)
(1.05377 0.0587405 6.04282e-21)
(1.08677 -0.006423 -4.55501e-21)
(1.08936 -0.00693297 -5.97292e-21)
(1.01622 0.0161814 1.16609e-21)
(1.01619 0.0155959 2.35143e-22)
(1.01565 0.0158694 0)
(1.08008 0.0276586 7.734e-21)
(1.08161 0.0276583 1.13488e-20)
(1.08082 0.0291516 1.04212e-20)
(1.04886 0.00214869 7.61383e-21)
(1.04787 0.00308112 5.32384e-21)
(1.0495 0.119005 -6.34619e-21)
(1.04577 0.121611 -4.76368e-22)
(0.987945 0.0225539 4.58634e-22)
(0.987305 0.0221598 -1.00466e-22)
(0.988111 0.0217446 4.84743e-21)
(1.09236 0.0541104 1.17176e-21)
(-0.102539 -0.0112708 2.8476e-20)
(-0.0977392 -0.0132374 -1.64387e-20)
(1.01904 0.0143982 1.72667e-21)
(1.01873 0.0150153 1.03617e-23)
(1.03503 0.0241865 -2.24376e-21)
(1.03562 0.0232959 -5.4667e-22)
(1.03638 0.0243892 -1.08457e-21)
(0.238899 -0.0514478 -3.82776e-20)
(0.342359 -0.0424461 -3.51328e-20)
(1.1467 0.0523295 -7.51635e-22)
(1.0185 0.0408654 -1.96012e-21)
(1.01702 0.0408079 -1.88397e-21)
(0.99668 0.00206288 4.17798e-21)
(0.996781 0.00230881 -5.06199e-21)
(0.996972 0.00196865 -8.78195e-22)
(0.985261 0.0751452 -1.92287e-21)
(0.982656 0.074003 -7.57172e-21)
(0.0291912 -0.0336211 2.01663e-22)
(0.110393 -0.0344339 2.9133e-20)
(1.12973 0.0986696 0)
(1.12579 0.0999741 0)
(1.12712 0.0960165 0)
(1.16516 0.175394 -2.83393e-20)
(1.16787 0.180787 2.05241e-20)
(1.00032 0.000315435 0)
(1.00028 0.00035023 -2.5118e-21)
(1.0174 0.00177998 -1.57678e-21)
(1.01774 0.00185513 -2.4289e-21)
(1.00121 0.0237274 0)
(1.03367 0.0207409 4.89297e-24)
(1.03247 0.0206354 0)
(1.22247 0.0846711 0)
(1.20411 0.0753234 3.71686e-20)
(0.992668 0.0186921 0)
(0.992813 0.0194185 0)
(0.992115 0.0192437 4.06634e-22)
(0.997124 0.00298774 -7.61451e-21)
(0.996837 0.00312661 -1.64978e-23)
(1.00414 0.0149654 -5.31384e-21)
(1.00444 0.0154831 -8.5145e-21)
(1.00395 0.015382 -1.36858e-20)
(0.97718 0.00517183 8.4044e-21)
(0.975989 0.00495881 3.52644e-21)
(1.11589 0.0272871 -1.19172e-20)
(1.11778 0.0251281 -1.68438e-21)
(1.11479 0.0250417 -3.91941e-21)
(0.960759 0.060609 -8.26855e-21)
(0.959775 0.0628907 -2.0977e-20)
(0.958093 0.0602524 -6.66167e-21)
(1.06034 0.237757 -2.32704e-20)
(1.05303 0.233722 -2.3931e-20)
(1.06117 0.229714 2.57119e-21)
(0.262729 -0.027495 4.70934e-20)
(0.360082 -0.0130083 -4.66633e-20)
(0.293614 -0.0213102 -6.80438e-20)
(0.958761 0.0372593 0)
(0.957172 0.0356993 0)
(0.741278 0.0273251 2.50592e-20)
(0.632029 0.0138746 -3.13941e-20)
(0.679892 0.018619 -4.04606e-20)
(1.00025 0.0201597 0)
(1.00027 0.0194917 -2.93308e-21)
(1.0008 0.0198679 0)
(1.07899 0.0269484 1.8534e-21)
(1.07833 0.0284308 2.53933e-21)
(0.998457 0.000100791 7.12858e-21)
(0.998397 -0.000123401 -3.16922e-21)
(-0.201045 -0.00666599 -1.63572e-21)
(-0.202645 -0.00697475 5.21222e-20)
(1.13142 0.193215 8.78296e-21)
(1.13456 0.188143 6.37105e-20)
(1.12825 0.18787 2.15559e-20)
(1.22382 0.221649 -1.88565e-20)
(1.24799 0.23109 -1.91415e-21)
(1.24879 0.223692 3.38062e-20)
(-0.0935121 0.00661786 -2.03232e-20)
(1.01723 0.00575823 1.41289e-21)
(1.01735 0.00617586 -1.83687e-21)
(1.01767 0.00586694 -1.42306e-23)
(1.06904 0.0143428 -8.31717e-21)
(1.07038 0.0156877 -5.63453e-21)
(0.997831 0.0305578 -1.42784e-20)
(0.998806 0.0302407 6.16195e-21)
(0.967625 0.0704317 -2.11297e-21)
(0.970634 0.0701782 9.6738e-21)
(0.968682 0.0676331 1.56918e-20)
(1.09695 0.0520025 0)
(1.00001 0.000776605 -9.12099e-21)
(1.00001 0.00065091 2.23664e-22)
(1 0.000649548 -9.24114e-21)
(1.03159 0.127023 1.67166e-21)
(1.03521 0.125702 -1.52965e-21)
(1.03369 0.130823 5.66542e-21)
(1.01176 0.00143087 2.85799e-21)
(1.01167 0.00184115 6.39326e-22)
(1.01899 0.000483684 -3.33007e-24)
(1.01912 0.000398331 7.00391e-22)
(1.01889 0.000323356 4.53289e-22)
(0.988533 0.0354972 -1.22958e-20)
(1.05965 0.244293 1.40768e-20)
(1.06762 0.240454 -2.91004e-20)
(0.999989 0.000242191 -5.43341e-21)
(0.999992 0.00012512 -1.50326e-22)
(0.999992 0.000123677 -1.51457e-22)
(1.05023 0.0531875 4.75354e-22)
(1.04901 0.0548035 -2.40041e-21)
(0.977809 0.0166058 -5.62183e-25)
(0.978139 0.0155862 4.65384e-24)
(0.978904 0.016466 4.72201e-24)
(0.961839 0.0584602 7.51559e-23)
(0.963473 0.0607359 2.26689e-20)
(-0.0942772 -0.0180284 -7.35536e-20)
(-0.0932815 -0.0129254 1.03066e-19)
(-0.102548 -0.013877 1.43055e-19)
(0.999676 0.0204472 -4.46459e-22)
(0.9993 0.00010765 -1.29054e-22)
(0.999311 0.00024544 -3.54123e-21)
(1.00236 0.00168659 0)
(1.00237 0.0019182 -4.26778e-21)
(1.00261 0.00187498 4.32207e-21)
(1.03818 0.0204446 1.61664e-21)
(1.0392 0.020042 2.30467e-21)
(1.04857 0.156103 0)
(1.04991 0.161583 -5.58117e-21)
(1.04378 0.158707 -2.28248e-21)
(1.17032 0.0716567 2.48593e-20)
(1.17269 0.073945 5.28047e-20)
(0.920206 0.152538 3.54126e-21)
(0.918049 0.159906 1.97484e-20)
(0.969465 0.06279 3.48888e-21)
(1.07621 0.0772777 -1.60349e-20)
(1.10023 0.0873568 -1.55948e-20)
(1.11481 0.029232 -7.80004e-21)
(1.11732 0.0292109 0)
(1.06646 0.0731707 6.44109e-21)
(1.06807 0.071155 7.40123e-21)
(0.97665 0.0166792 -1.22518e-20)
(1.01856 0.00116257 7.73031e-22)
(1.03666 0.0404456 -6.40363e-22)
(1.03758 0.0395421 -3.23827e-21)
(1.03621 0.0391276 -2.80763e-21)
(1.00001 0.000212699 1.14011e-20)
(1.00003 0.000324016 3.79973e-21)
(1.23177 0.107769 2.02751e-20)
(1.22369 0.108095 -1.2071e-22)
(1.23296 0.109517 2.55894e-20)
(0.988595 0.0229356 -5.55544e-21)
(0.9878 0.0235228 8.87893e-21)
(1.01853 0.0497526 -1.90345e-21)
(1.18177 0.0130884 1.28811e-20)
(1.17865 0.0123887 1.10485e-20)
(1.18123 0.00926043 0)
(1.00353 0.024945 2.29098e-21)
(0.97057 0.0767061 0)
(0.972878 0.0749961 0)
(0.97336 0.078095 -8.63227e-21)
(0.96579 0.0482862 1.20025e-20)
(1.18331 0.0126105 1.12599e-20)
(1.1821 0.0156402 1.85168e-21)
(1.04476 0.0135763 -4.55528e-22)
(1.04558 0.0130562 0)
(1.04554 0.0142279 0)
(0.936363 0.0593541 0)
(0.939692 0.0615814 -9.25588e-22)
(1.01502 0.189815 -1.15022e-22)
(1.00748 0.188922 -2.72845e-21)
(1.02727 0.128585 -1.34117e-21)
(1.02907 0.123704 5.82124e-22)
(1.02462 0.0668623 3.53312e-22)
(1.0269 0.0660073 -8.57917e-23)
(1.02463 0.064731 0)
(0.99277 0.00864416 0)
(0.992644 0.00919598 -5.06295e-22)
(0.99229 0.00887788 -5.65989e-25)
(0.859598 0.0416779 -1.36215e-20)
(0.887131 0.0535854 -3.09443e-20)
(1.10159 0.155928 2.46588e-20)
(1.10137 0.16181 8.22418e-21)
(1.05241 0.0212969 -4.1723e-21)
(1.05395 0.0212308 0)
(1.05305 0.0222288 6.7193e-22)
(1.0531 0.153245 -8.78878e-21)
(1.04747 0.151194 0)
(1.00054 0.00912868 9.51231e-22)
(1.00036 0.0088827 4.73608e-21)
(1.00039 0.00935418 -6.6728e-22)
(1.00437 0.0128573 -3.14809e-21)
(1.00396 0.0127064 -3.71268e-21)
(1.00076 0.00941227 -8.38583e-21)
(1.00069 0.00885818 -4.39398e-21)
(0.967773 0.0753244 -6.87835e-21)
(0.968241 0.0786892 -1.85261e-21)
(1.23681 0.232979 -6.76549e-20)
(1.21735 0.225237 -1.54022e-20)