/*--------------------------------*- C++ -*----------------------------------*\
| =========                 |                                                 |
| \\      /  F ield         | OpenFOAM: The Open Source CFD Toolbox           |
|  \\    /   O peration     | Version:  v2012                                 |
|   \\  /    A nd           | Website:  www.openfoam.com                      |
|    \\/     M anipulation  |                                                 |
\*---------------------------------------------------------------------------*/
FoamFile
{
    version     2.0;
    format      ascii;
    class       volVectorField;
    location    "950";
    object      U;
}
// * * * * * * * * * * * * * * * * * * * * * * * * * * * * * * * * * * * * * //

dimensions      [0 1 -1 0 0 0 0];


internalField   nonuniform List<vector> 
10042
(
(0.996643 0.0117012 -7.78363e-21)
(0.998603 0.00546044 -3.65556e-21)
(1.03631 0.012919 -4.95232e-22)
(1.00858 3.76972e-05 -1.70575e-22)
(0.695178 0.0941849 0)
(0.999223 0.00504277 -3.25317e-21)
(0.746185 -0.00496915 -6.10052e-20)
(1.33039 -0.00325681 4.34029e-22)
(1.02983 0.0130399 -1.03443e-21)
(1.00182 0.0051966 -2.5698e-21)
(-0.250864 0.00530861 5.56737e-20)
(1.01317 3.93524e-05 -1.50156e-21)
(1.01548 0.00203822 -1.97457e-21)
(1.01559 0.000778687 -3.34327e-21)
(0.961221 0.0552274 2.19317e-20)
(0.999734 0.00635182 -3.78252e-21)
(0.999699 0.00668437 -3.48295e-21)
(1.00003 0.000352595 -7.18798e-21)
(0.996778 0.0113293 1.88968e-20)
(0.684962 0.289714 -3.00735e-20)
(1.00433 0.00551887 4.27571e-21)
(1.27281 -0.0658364 -8.75025e-20)
(1.01459 0.000425001 0)
(1.01418 0.00435005 3.04143e-21)
(0.998669 0.00515263 -1.2299e-20)
(1.09631 0.0149684 0)
(0.998877 0.00171686 -1.74972e-20)
(0.996245 0.0558532 9.58436e-21)
(1.02167 0.0219999 7.64351e-22)
(1.00377 0.0495504 6.16674e-21)
(0.996744 0.00430539 0)
(-0.149964 0.0264506 -1.29731e-19)
(1.00175 0.00489723 -4.42983e-21)
(1.02125 0.0442604 0)
(1.07152 0.0545332 -1.23331e-20)
(1.01382 0.00451957 3.32329e-21)
(1.09219 0.0193341 0)
(1.10519 -0.0132456 0)
(1.01351 0.0042251 6.59099e-23)
(1.00783 0.121385 7.30898e-22)
(0.656186 0.282776 1.2845e-19)
(0.969727 0.0546006 -2.0115e-20)
(0.721986 -0.00342685 -6.41267e-20)
(0.99363 0.0326211 -3.65192e-22)
(0.698473 0.0953335 5.48282e-20)
(1.16124 -0.0274931 5.77929e-20)
(0.977625 0.0373312 0)
(1.18322 -0.0975136 0)
(1.08541 0.0326919 0)
(1.09957 -0.0774801 3.13151e-21)
(1.00042 0.000494187 6.8777e-21)
(1.03659 -0.00811976 2.94703e-21)
(0.960241 0.0435695 0)
(1.04438 -0.0105112 0)
(1.09205 0.0223343 -1.9355e-20)
(0.99927 0.00526986 -2.43566e-21)
(1.02253 0.0219535 2.05254e-21)
(0.978196 0.0360265 -1.24636e-20)
(1.02189 0.0427937 0)
(0.962623 0.0437141 0)
(0.997708 0.00465457 -7.57149e-21)
(0.997246 0.00644913 -1.49293e-20)
(1.0725 0.0578271 1.41217e-20)
(1.03539 0.0133183 -7.0823e-22)
(0.966513 0.017421 -4.82775e-20)
(1.02476 0.0418603 5.94994e-21)
(0.974417 0.0127907 -3.58186e-20)
(0.734888 0.201639 -1.1073e-19)
(-0.134299 -0.00191188 6.05718e-20)
(1.00129 0.0271395 4.35871e-21)
(1.04319 -0.0110328 0)
(0.639562 0.293769 2.333e-20)
(0.992353 0.032398 2.00137e-20)
(0.865161 0.0705852 0)
(0.975354 0.00923047 -1.06281e-20)
(1.01451 0.00459537 -3.35747e-21)
(0.580226 0.0730143 -1.93771e-20)
(0.996623 0.0105167 -1.30869e-20)
(0.903882 0.0919667 0)
(0.614805 0.0189367 0)
(1.08236 0.0318305 2.81062e-20)
(0.889269 0.126886 -8.95269e-20)
(1.00831 0.0363612 0)
(0.972361 0.0477688 -4.27961e-21)
(0.974165 0.0116943 -1.05516e-20)
(1.00007 0.00139892 1.64708e-20)
(0.997258 0.0133852 0)
(1.16577 0.268493 -2.60832e-20)
(0.986728 0.0210482 -2.6079e-20)
(0.997688 0.0134526 -6.17736e-21)
(1.03427 0.0316387 1.2437e-21)
(0.911185 0.134739 -1.09813e-19)
(0.9973 0.0578681 0)
(1.03616 -0.00727107 -2.70906e-21)
(1.00259 0.0480119 0)
(1.01637 0.0293256 4.43157e-21)
(0.999678 0.010058 0)
(1.01061 0.0283576 6.39033e-21)
(1.00782 0.117516 0)
(1.02677 0.019413 -1.27952e-22)
(0.999993 6.96812e-05 6.55344e-21)
(1.17703 0.203984 0)
(1.32113 -0.0188188 0)
(1.00009 0.0015375 -1.76776e-20)
(0.989881 0.0515568 1.22437e-20)
(1.04858 0.207888 1.47723e-21)
(0.994221 0.0108747 9.51965e-21)
(0.999759 0.010412 0)
(1.00418 0.00521552 1.08713e-22)
(1.02107 0.00048465 0)
(1.0099 0.00120887 4.79335e-21)
(1.00489 0.0213692 -5.27909e-21)
(1.04107 0.0808628 0)
(-0.162777 0.00316697 1.38405e-19)
(0.967539 0.0164199 2.94357e-20)
(1.00218 0.0196117 -1.11785e-20)
(0.991644 0.00475648 -1.32678e-20)
(0.996471 0.0109002 -2.43178e-20)
(1.01695 0.0285042 -4.69953e-21)
(-0.0222737 0.0498893 -8.60643e-20)
(0.986889 0.0201037 0)
(1.34812 -0.0119713 -6.85641e-20)
(0.997076 0.0358968 -1.73805e-20)
(0.99421 0.00302305 4.45144e-22)
(1.17671 0.195059 4.55292e-20)
(1.00746 0.0370404 -1.00301e-20)
(1.34472 0.00381563 -6.87457e-20)
(1.08642 0.0506812 1.78316e-20)
(1.04089 0.204051 5.52825e-21)
(0.998269 0.0143053 1.32138e-20)
(0.901232 0.0978111 0)
(0.980355 0.0203489 -1.67581e-20)
(-0.176363 0.0291199 8.81681e-20)
(1.26647 0.0297328 4.9712e-20)
(1.02594 0.0197252 5.04849e-22)
(1.11245 0.179218 0)
(-0.121248 0.0407354 2.0513e-19)
(1.0344 0.0331523 0)
(1.19193 -0.0961126 0)
(1.1735 0.277146 0)
(0.983723 0.0525108 -1.36579e-20)
(0.991174 0.00469645 0)
(0.98475 0.0463415 1.20286e-20)
(1.22232 0.166801 0)
(1.03409 -0.00311561 -2.17425e-22)
(1.00459 0.0208189 5.50093e-21)
(1.13552 0.146033 -5.26445e-22)
(1.02515 0.000666083 0)
(1.0106 0.0294164 -6.62688e-21)
(1.01441 0.087513 -8.01307e-21)
(1.03188 0.0115301 1.79481e-21)
(1.00003 0.00013903 0)
(0.2216 0.0882978 8.16167e-20)
(-0.0604504 0.0460222 1.27512e-19)
(0.99955 0.00112157 0)
(1.0154 0.00177521 4.01389e-21)
(0.954003 0.0118907 -1.25717e-21)
(0.99697 0.00652693 1.2758e-20)
(1.11058 0.186528 0)
(-0.0958245 0.0300659 -1.84281e-19)
(-0.247489 -0.00419671 0)
(1.23815 0.0472423 -1.96325e-20)
(0.99578 0.00519281 0)
(1.03152 0.0123759 -3.23011e-21)
(1.01214 0.0391316 0)
(0.981095 0.0192676 -1.49705e-20)
(0.953479 0.256018 -1.4007e-20)
(0.257908 0.180668 1.65463e-21)
(-0.166211 0.0311613 0)
(-0.0233048 0.0469662 -3.08302e-19)
(1.04399 -0.00559495 0)
(1.0054 0.0117531 -5.87184e-21)
(1.09447 0.176911 1.24693e-19)
(0.687873 0.343076 -9.07516e-20)
(0.911354 0.160695 0)
(0.763576 -0.0374297 6.73368e-21)
(-0.205851 0.143176 5.10444e-20)
(0.995238 0.0343628 -1.44222e-20)
(0.720556 0.220913 -8.21537e-20)
(1.06671 0.106299 0)
(0.951576 0.0125825 -1.97262e-20)
(-0.133404 0.0249962 0)
(0.973308 0.0153879 -2.03123e-20)
(1.08385 0.0522029 7.37952e-22)
(0.969661 0.0517445 1.93279e-20)
(0.00631184 0.0529508 7.75796e-20)
(1.2703 0.0655553 -3.46133e-20)
(1.02205 0.0371882 4.00979e-21)
(-0.221247 -0.023299 -5.25988e-20)
(1.05827 0.0396722 0)
(0.748856 0.755712 0)
(0.982736 0.0458112 2.74333e-22)
(0.222119 0.090442 -7.0605e-20)
(1.27499 0.208526 -5.86281e-21)
(1.21944 0.00712152 -5.52351e-20)
(1.37368 0.160406 9.34385e-20)
(1.07566 0.0230047 0)
(0.995094 0.00991262 3.78885e-21)
(1.01509 0.00166093 2.20747e-21)
(1.03164 0.0612034 4.39338e-22)
(0.889375 0.143113 2.45774e-20)
(1.02311 0.0376437 -3.78081e-21)
(1.00634 0.0215034 4.91604e-21)
(0.71157 0.365882 6.19472e-20)
(0.973032 0.0141065 2.19998e-20)
(1.01827 0.0122619 0)
(0.826162 0.793651 0)
(0.999308 0.00180007 1.29384e-20)
(1.00003 0.000405743 0)
(0.999892 0.000632646 1.88608e-20)
(1.3439 0.160598 0)
(1.01503 0.000247974 1.33984e-21)
(0.948478 0.244751 7.23502e-21)
(1.041 0.438937 4.68235e-20)
(0.955872 0.0136583 0)
(1.27426 0.0699554 -5.1547e-21)
(0.978684 0.00802569 -4.35681e-20)
(1.0005 0.00749551 -7.10368e-21)
(1.16217 0.129102 -4.82154e-20)
(1.01013 0.0140196 -8.19032e-23)
(1.04456 0.0810479 0)
(0.953272 0.0201416 -3.55323e-20)
(1.13612 0.396433 1.79469e-20)
(1.10823 -0.0158105 -1.85247e-20)
(0.945559 0.0705902 1.13697e-20)
(1.09979 0.00985014 -4.12488e-22)
(1.28866 0.0166063 -1.7901e-20)
(1.00337 0.02025 -1.61725e-20)
(1.25131 0.0747487 0)
(1.04368 -0.0129889 0)
(1.03044 0.0123109 2.97504e-21)
(0.822831 0.375935 -7.21675e-20)
(1.00499 0.0113913 -6.54637e-21)
(1.04261 -0.0134917 9.12255e-21)
(1.03708 0.0136293 0)
(1.01714 0.0895029 0)
(1.01677 0.0141774 6.46876e-21)
(1.01596 0.000452104 0)
(1.05776 0.0181234 -3.82717e-22)
(1.05421 -0.0278075 5.00567e-22)
(0.995705 0.00490517 0)
(0.995719 0.0358272 -5.04063e-22)
(1.01193 0.0376396 0)
(1.04006 0.0841867 1.60097e-21)
(1.00251 0.0189795 1.18969e-20)
(0.996961 0.00445338 0)
(1.01294 0.000975481 -2.61721e-21)
(0.990569 0.0538025 -1.43861e-21)
(1.04392 -0.0081186 0)
(1.00002 0.000263142 6.87073e-21)
(1.01495 0.00104135 0)
(1.00182 0.0262521 0)
(0.994102 0.0787508 -2.35058e-20)
(1.1493 0.407963 0)
(1.23733 0.052953 6.8683e-20)
(-0.21867 -0.0184001 1.15531e-19)
(0.903651 0.164993 0)
(0.927165 0.161921 3.65588e-20)
(0.960648 0.0581704 0)
(1.17385 -0.0273532 3.18543e-20)
(0.925047 -0.0515663 1.03089e-19)
(1.05573 0.018084 -5.80272e-21)
(0.994357 0.0104601 0)
(1.01579 0.000474515 1.45009e-21)
(1.02948 0.0606882 2.4602e-21)
(1.01638 0.0136339 -1.98124e-21)
(1.27756 -0.0710853 7.72551e-20)
(1.05455 -0.00242043 -1.30255e-20)
(0.997786 0.0141659 -1.46523e-20)
(0.999931 0.000549819 -2.20376e-20)
(0.879224 0.144068 6.02383e-20)
(1.04473 -0.00892551 0)
(1.05302 0.423568 -4.32832e-20)
(0.920067 0.166306 -5.50595e-20)
(1.20104 0.240755 0)
(1.05909 0.0416973 -9.37809e-21)
(1.05228 -0.0289894 0)
(1.01535 0.0132227 -3.76657e-21)
(1.07128 -7.17758e-05 -1.24369e-20)
(1.03498 -0.00306295 4.56449e-21)
(1.0702 0.109368 8.10106e-21)
(0.991047 0.0215569 0)
(1.09602 0.0182943 0)
(-0.136444 0.0331096 -7.63506e-20)
(1.01775 0.0119855 0)
(1.03317 0.0160522 -8.7039e-21)
(0.960661 -0.0533834 -1.01706e-19)
(1.16669 -0.0252624 -4.83151e-20)
(1.0218 0.0360094 0)
(0.997455 0.00431811 -3.85976e-23)
(0.994939 0.0756932 1.61695e-20)
(0.776352 -0.0504157 -6.46858e-21)
(1.16283 0.0583302 -3.50779e-20)
(1.22862 0.163734 -4.61386e-20)
(1.00035 0.000399825 -3.52828e-21)
(1.0151 0.00140566 -6.38343e-21)
(1.00375 0.0208909 6.2756e-21)
(1.03016 0.0137926 -6.44014e-23)
(1.28799 0.0107998 1.44001e-20)
(0.995085 0.0178075 0)
(0.997721 0.00495945 -5.27481e-21)
(1.00515 0.0130041 -1.8635e-21)
(0.978636 0.00683155 1.6245e-20)
(1.10175 -0.0280234 0)
(0.968983 0.0649794 1.3971e-20)
(1.09832 0.240307 -2.49164e-20)
(0.49811 0.0165154 5.95732e-21)
(0.96404 0.0410688 0)
(1.07293 0.046837 0)
(1.00236 0.0176242 1.15023e-20)
(1.0695 0.000402893 5.8539e-22)
(0.998709 0.00194807 1.2625e-20)
(-0.254947 0.0258398 8.28098e-21)
(1.18459 0.181477 6.68057e-20)
(1.33814 0.232509 7.7727e-20)
(-0.186639 0.176481 -5.62818e-20)
(1.01527 0.00468309 1.62978e-21)
(1.05479 -0.00358722 0)
(1.00175 0.028085 -1.41381e-20)
(0.979483 0.0720689 -1.86421e-20)
(1.09986 0.0134435 4.32105e-22)
(1.00002 0.000790649 7.22083e-21)
(1.05707 0.121465 -6.73422e-21)
(1.01024 0.0012574 0)
(1.01611 0.000268942 -7.53828e-23)
(0.993987 0.0342522 1.477e-20)
(1.10329 0.248448 6.07121e-20)
(0.99999 0.000175989 0)
(1.05562 0.0391011 0)
(0.981392 0.0170188 0)
(0.97129 0.063312 0)
(-0.188102 0.0552603 -1.60144e-19)
(1.00208 0.0182851 -1.21122e-20)
(0.999454 0.00131904 1.96605e-20)
(1.00263 0.00174234 -6.29093e-21)
(1.03466 0.0123113 1.37269e-21)
(1.07847 0.15416 1.55801e-20)
(1.22219 0.00318343 8.00957e-20)
(0.935968 0.166108 9.03124e-21)
(1.33694 0.0636618 0)
(1.1042 -0.0250634 -3.41116e-20)
(1.08017 0.0509295 1.59069e-20)
(0.980566 0.0178819 9.93257e-21)
(1.01576 0.000723856 -2.46855e-21)
(1.03868 0.0296973 -3.9564e-21)
(1.00002 0.000290034 7.24789e-21)
(1.29678 0.0572108 -8.91285e-20)
(0.991403 0.0222038 0)
(1.02382 0.0430546 -3.36297e-21)
(1.16165 -0.143281 6.16653e-20)
(1.00571 0.0218903 -5.19798e-21)
(0.98373 0.0793959 -1.04416e-20)
(0.972157 0.0504367 3.70211e-21)
(1.17121 -0.146503 -3.4707e-20)
(1.03717 0.0049958 2.77627e-21)
(0.947116 0.0678681 0)
(1.04105 0.196104 -1.93983e-21)
(1.05224 0.120779 3.72325e-21)
(1.03465 0.0579097 0)
(0.994144 0.00905066 1.54384e-20)
(1.28897 0.0597469 0)
(1.1413 0.14489 1.41217e-20)
(1.04577 0.00815843 -5.98464e-22)
(1.07969 0.147764 -1.35576e-20)
(1.00145 0.00868977 0)
(1.00495 0.0109406 5.63509e-21)
(1.00166 0.00861345 -7.64491e-21)
(0.98064 0.079658 0)
(1.29782 0.235181 -6.93826e-20)
(1.05445 -0.0160061 -3.9726e-22)
(1.00002 0.000675867 0)
(0.966248 0.0412861 0)
(1 7.38983e-05 -7.30805e-21)
(0.999986 0.00036436 -1.99574e-20)
(0.702409 0.308441 0)
(0.994876 0.00953671 0)
(1.02309 0.00775402 -9.0274e-23)
(-0.0990588 0.04196 -1.85007e-19)
(1.0063 0.00755181 2.73432e-21)
(1.21419 -0.0278752 -6.96033e-20)
(1.30098 0.0516675 0)
(0.865349 0.0782259 6.89476e-21)
(0.682414 -0.0332862 -1.9409e-19)
(-0.206352 -0.0160766 0)
(1.00863 0.107379 6.14445e-21)
(0.800184 0.372526 4.0646e-20)
(0.999263 0.00153494 -6.36725e-21)
(1.10584 -0.0792289 1.11976e-22)
(0.999999 9.80888e-05 0)
(0.977497 0.0327437 0)
(1.22827 -0.211255 4.73326e-20)
(1.00041 0.00508148 0)
(0.977101 0.0740786 2.08001e-20)
(0.591309 0.955832 6.32353e-20)
(1.01413 0.000393993 0)
(1.0042 0.00575907 6.96559e-23)
(0.779377 0.123511 -3.18157e-20)
(0.785466 0.692826 0)
(1.02408 0.0402909 -3.32605e-21)
(1.02475 0.00132638 1.22726e-21)
(-0.150307 0.028403 0)
(1.18544 0.190211 -5.73697e-20)
(1.00545 0.0122499 -2.55152e-21)
(0.729868 0.186124 6.08487e-20)
(-0.10643 0.00907723 -7.48033e-22)
(1.0106 0.0142505 -3.14666e-21)
(1.00001 0.000461152 0)
(1.0197 0.00929676 -1.67822e-21)
(0.9995 0.0159716 0)
(1.01611 0.000343283 0)
(1.0176 0.0112515 0)
(1.204 0.0493196 -1.09606e-19)
(1.31201 -0.0117025 9.19643e-20)
(0.976873 0.0341747 2.71708e-20)
(0.679492 0.0384173 8.12425e-20)
(1.01542 0.000675295 2.66359e-21)
(0.995187 0.0169663 1.65118e-22)
(1.26375 0.267612 0)
(1.04067 0.00879936 3.32412e-22)
(1.22095 -0.021956 -7.47667e-20)
(1.16886 0.058697 -4.3425e-20)
(0.970365 0.0465206 -2.41003e-20)
(1.02367 0.00561042 0)
(1.02426 0.00151897 0)
(1.05963 0.345239 -1.36696e-20)
(1.04484 -0.006541 0)
(1.0042 0.109007 -9.21646e-22)
(0.996465 0.0483676 0)
(-0.235243 0.00204631 -1.63453e-19)
(0.958028 0.0127729 0)
(1.34954 0.235943 0)
(0.964312 0.0545354 -1.97533e-20)
(1.00294 0.00730162 -4.35771e-21)
(1.00258 0.0202863 6.2803e-21)
(1.20934 0.364336 -1.66985e-19)
(1.00249 0.00713957 -8.05467e-21)
(0.912877 0.0282235 -4.63409e-20)
(0.997991 0.0213064 0)
(1.03636 0.005287 0)
(-0.12329 0.0332379 -3.26951e-20)
(1.07616 0.0280858 2.05428e-20)
(0.991309 0.00610531 0)
(1.01045 0.000773495 9.98146e-23)
(-0.188145 0.0355857 -5.80242e-20)
(0.998844 0.0151413 1.60577e-20)
(1.07805 0.0295711 0)
(1.02515 0.0622306 3.04173e-21)
(1.01575 0.0137057 4.22595e-21)
(0.861497 0.0547196 7.97368e-20)
(0.658107 -0.0191707 -1.02357e-19)
(1.0049 0.00669572 6.39221e-23)
(0.969415 0.0165759 0)
(1.05641 -0.0161169 1.81516e-20)
(1.01488 0.00123222 2.67407e-21)
(0.999871 0.00717988 1.01405e-20)
(0.993232 0.00199009 0)
(-0.184104 0.0343359 0)
(0.994624 0.00186582 3.74357e-22)
(1.0154 0.000324984 -1.71054e-21)
(0.973613 0.112954 0)
(1.33523 -0.0230887 0)
(1.15574 0.117957 7.63905e-22)
(1.00002 0.000314123 2.34603e-22)
(1.06852 0.101107 0)
(-0.0784229 0.022404 0)
(1.10446 -0.0323259 8.06629e-21)
(0.989918 0.00233921 0)
(0.994463 0.00862904 0)
(1.26607 0.0355922 0)
(1.04449 0.00813201 -8.19684e-21)
(1.00288 0.00697125 5.74494e-21)
(0.902238 0.0801964 3.85301e-20)
(1.03136 0.0140837 2.62541e-21)
(1.01717 0.0111053 0)
(0.9513 0.0217684 -6.16342e-21)
(1.01736 0.00430709 2.9162e-21)
(0.959405 0.174322 0)
(0.993796 0.011179 6.94804e-23)
(1.00232 0.00722765 1.02106e-20)
(-0.270839 0.00630083 0)
(1.00885 0.00539708 -8.64037e-22)
(1.04247 -0.00570927 0)
(1.00058 0.00489786 -5.94055e-21)
(0.997542 0.0466787 -1.58935e-20)
(1.0603 0.116078 -9.86133e-22)
(1.00469 0.00653221 1.35449e-23)
(1.03367 0.0124628 0)
(1.32654 0.241652 -8.15947e-20)
(1.00069 0.0524027 -7.35756e-21)
(0.467705 0.0403547 1.74135e-19)
(1.05473 0.0200209 0)
(0.999999 0.000131693 -6.6757e-21)
(1 0.000115544 -2.9657e-23)
(1.18582 0.218605 2.28633e-20)
(0.990131 0.0180455 -1.5756e-20)
(0.991245 0.00577331 -4.7396e-21)
(1.0022 0.0020169 0)
(1.04675 0.00623761 0)
(0.950819 0.0980155 0)
(0.748687 0.00105639 0)
(0.99835 0.0150025 -6.99125e-21)
(0.952261 0.171053 -1.46188e-20)
(0.650009 0.769706 -2.49899e-20)
(1.10246 -0.0356423 -7.51881e-21)
(1.00001 0.000458168 0)
(0.993081 0.00454378 7.92388e-21)
(1.03935 0.00117256 5.85229e-21)
(1.00006 0.00156438 -6.01604e-22)
(1.00115 0.0162982 0)
(-0.0683759 0.152756 2.61255e-20)
(-0.159887 0.0367686 1.11744e-19)
(1.00036 0.00476752 0)
(1.08665 0.0474686 -1.20967e-20)
(1.08106 -0.0208462 -2.18886e-20)
(1.07861 -0.0198289 -1.92747e-20)
(0.974184 0.00867418 1.19374e-20)
(1.01182 0.00116018 -4.39406e-21)
(1.30996 -0.0255299 5.23482e-20)
(1.06891 0.336022 0)
(0.687208 0.748987 1.56883e-20)
(1.02303 0.00571011 1.33589e-22)
(1.04048 0.00143089 4.63765e-21)
(1.03965 0.00930428 0)
(1.00615 0.00779376 -5.6198e-21)
(-0.085373 -0.0152259 0)
(1.0794 0.110744 -1.19722e-20)
(1.04679 0.00742612 0)
(1.02201 0.0259377 2.10148e-21)
(1.0087 0.000570437 -5.09614e-21)
(0.976289 0.00675489 -2.51393e-20)
(1.32823 -0.021011 0)
(1.07732 0.0253356 -7.48166e-21)
(0.998941 0.00148773 2.05893e-20)
(-0.216587 0.0285466 -7.26966e-20)
(0.76975 0.649935 -1.47553e-20)
(1.01244 0.477023 -2.40235e-20)
(1.05752 0.206637 -8.5044e-21)
(0.999866 0.00685455 6.10585e-21)
(1.02594 0.0208271 -7.82072e-23)
(1.09067 -0.0999709 -2.90859e-20)
(1.13143 0.134947 -8.34679e-21)
(-0.0646321 0.0961938 -7.1003e-20)
(0.3676 0.20427 0)
(0.945994 0.0607723 3.34788e-20)
(0.908929 0.0261285 6.33002e-20)
(1.0001 0.00134645 0)
(1.05508 0.0367303 -5.82576e-21)
(0.970488 0.0170658 0)
(1.00011 0.00150939 0)
(-0.250527 -0.00440767 -1.03332e-19)
(1.01324 0.00103497 4.39635e-21)
(1.00201 0.0169852 -1.13729e-20)
(1.15143 -0.0402371 2.74988e-20)
(1.00004 0.00141619 0)
(1.28093 -0.115413 -4.09783e-20)
(1.05279 0.0196788 0)
(1.24281 -0.0280857 4.94951e-21)
(1.02211 0.114345 3.7134e-21)
(0.999924 0.000544378 0)
(1.05564 0.0026256 0)
(1.07394 0.0522267 0)
(1.06633 -0.0689681 0)
(1.06188 0.201668 7.43373e-21)
(0.952014 0.305921 1.45818e-20)
(0.999985 0.000169056 -8.67286e-21)
(1.09492 -0.0815533 -4.38065e-21)
(1.03302 0.0519051 0)
(1.0151 0.0290571 0)
(1.00064 0.00269018 7.83652e-21)
(1.03885 0.0310738 4.05125e-21)
(0.996309 0.00189153 1.03826e-20)
(0.944477 0.0639522 -1.88965e-20)
(1.15695 0.113498 0)
(0.843535 0.134794 0)
(0.998922 0.00114469 1.39521e-20)
(0.999644 0.0541478 9.79426e-21)
(1.00228 0.00186654 3.51756e-21)
(0.991048 0.00896037 -1.19574e-20)
(0.786175 0.353504 0)
(1.00372 0.00473964 4.01778e-21)
(1.0208 0.0632933 -4.46546e-22)
(1.26552 -0.0674661 5.39621e-20)
(1.01699 0.0041993 -3.11243e-21)
(1.13012 0.141718 -2.10522e-20)
(1.10045 -0.132514 0)
(0.997223 0.00421219 1.03889e-20)
(-0.00668389 0.0544309 0)
(1.13439 0.010043 -2.13926e-20)
(0.999973 0.00144217 -1.03886e-20)
(1.27456 0.0856968 -1.28102e-19)
(1.03887 0.012727 0)
(1.00002 0.000333851 7.85528e-21)
(0.980245 0.0122041 -1.72927e-20)
(0.994388 0.00406302 0)
(0.999996 9.73973e-05 -8.77964e-21)
(1.05638 0.0467433 0)
(0.975204 0.00651032 1.71597e-20)
(0.817789 0.604187 1.82405e-21)
(0.98599 0.0530267 -1.26726e-20)
(0.993507 0.00483473 1.88001e-21)
(1.0269 0.0387706 0)
(1.06478 0.116584 7.64361e-21)
(1.11107 0.027032 -2.3601e-20)
(0.99388 0.00269686 0)
(1.06375 -0.00247339 1.43724e-21)
(1.0252 0.0210493 5.98717e-23)
(1.10135 -0.0147224 0)
(0.981713 0.00638382 1.4796e-20)
(1.01828 0.117599 -3.70702e-21)
(1.02375 0.00788678 -2.22171e-22)
(0.946365 0.0142637 -2.31136e-20)
(1.02372 0.00212851 5.00483e-22)
(1.00207 0.00892366 7.42962e-21)
(0.594258 0.0244946 0)
(1.01927 0.00962213 4.00008e-22)
(0.789934 0.335049 -7.70854e-20)
(0.993069 0.00242441 0)
(1.05086 0.00370601 5.86445e-21)
(1.00938 0.00515414 3.1003e-21)
(1.11011 0.00874762 -3.8159e-21)
(1.00051 0.00463008 0)
(1.13849 0.0120402 9.24996e-22)
(1.0229 0.0349748 0)
(1.2692 0.0872531 1.21072e-21)
(0.999978 0.000456136 1.5576e-20)
(0.860007 -0.0274235 1.21782e-19)
(1.02509 0.000354394 -8.53669e-22)
(0.97039 0.0604023 1.1976e-20)
(0.999965 0.00017178 0)
(0.977644 0.0088071 2.68663e-20)
(1.00125 0.00832891 9.79492e-21)
(1.05473 0.0477406 0)
(0.996395 0.00242038 0)
(0.649646 0.248094 -8.10906e-20)
(0.654041 0.482901 0)
(1.27333 -0.126582 0)
(1.06483 0.0152133 -6.31349e-21)
(0.941397 0.160353 -1.73881e-20)
(1.0077 0.0218078 2.23782e-21)
(0.979328 0.175881 -1.15812e-21)
(1.16044 -0.0334114 -2.99396e-20)
(1.00188 0.0048146 5.0248e-21)
(0.908841 0.0808207 1.06108e-21)
(0.946406 0.320686 2.12036e-20)
(-0.0428085 0.0924237 1.01327e-19)
(1.09258 -0.133016 0)
(1.31498 0.297491 5.00125e-20)
(1.07741 0.053509 -3.14961e-20)
(0.99917 0.0402461 7.34368e-21)
(1.00003 0.0010038 -7.96553e-21)
(1.06787 -0.000632927 0)
(1.05792 0.0434824 1.68398e-20)
(1.06722 -0.0601237 5.17181e-21)
(1.01493 0.00443373 3.11273e-21)
(1.0384 0.0552235 1.02702e-21)
(1.23148 0.05593 -5.48149e-20)
(1.00002 0.000122017 0)
(0.990932 0.00841332 -5.97647e-21)
(1.06547 -0.00390956 0)
(0.129391 0.0398676 0)
(0.97264 0.0588616 0)
(1.06549 0.0974592 0)
(1.08413 -0.103322 2.56008e-20)
(0.999949 0.000436367 0)
(0.598498 0.0193545 6.56832e-20)
(1.01487 0.00527009 4.39613e-22)
(1.006 0.0131631 0)
(1.00556 0.0495825 -1.91892e-21)
(1.03158 0.0148691 -1.05102e-21)
(-0.235967 0.0281513 2.9888e-20)
(1.16731 -0.0502493 0)
(0.0606127 0.0513246 0)
(1.00159 0.000717772 7.33995e-21)
(1.29088 0.383122 0)
(0.0370557 0.0649152 1.02098e-19)
(1.29255 0.0460656 3.93494e-20)
(1.0691 -0.0575466 1.11831e-20)
(1.1755 -0.0325392 0)
(1.24878 0.0689849 -5.23742e-20)
(1.00872 0.180738 0)
(0.980995 0.0158123 1.92259e-20)
(0.997536 0.0219459 5.44523e-21)
(0.899188 0.0857659 -4.52479e-20)
(-0.274976 0.0232905 0)
(1.00911 0.0219536 0)
(0.971267 0.117374 1.9267e-20)
(0.353852 0.0488666 0)
(0.993597 0.0122185 0)
(1.00281 0.00955406 0)
(1.01463 0.0298404 0)
(0.989755 0.0581528 0)
(1.0011 0.00843575 6.88437e-21)
(1.03813 0.00355577 0)
(1.17702 0.223161 -2.63499e-20)
(1.29136 0.144808 5.62871e-20)
(1.03723 0.0038215 4.62583e-21)
(1.00059 0.00720812 0)
(-0.195397 0.0261462 9.59679e-20)
(0.14469 0.112425 -4.07911e-20)
(1.00711 0.0221942 0)
(0.990549 0.00226098 1.79909e-20)
(1.00043 0.0005916 0)
(0.998977 0.0158364 3.61516e-21)
(1.26728 0.27803 -4.00072e-20)
(1.16467 -0.0567835 -3.59839e-20)
(1.01927 0.435364 1.76234e-20)
(0.987687 0.0512177 1.26462e-20)
(1.00279 0.009928 0)
(1.03161 0.0099285 0)
(0.949713 0.0105939 2.82939e-21)
(0.997911 0.00439249 7.78101e-21)
(1.10652 -0.00125126 6.3159e-20)
(0.967948 0.0386918 -4.77708e-21)
(0.367465 0.0123945 -6.04982e-20)
(0.999522 0.00717744 0)
(1.00109 0.00348322 0)
(1.04983 0.167801 6.17974e-21)
(1.00891 0.0210417 0)
(1.08233 -0.0439271 -7.37088e-22)
(0.881727 0.267999 -4.23809e-20)
(1.05399 0.00340029 1.59825e-21)
(0.757358 0.611988 0)
(0.0203486 0.0692821 0)
(0.997646 0.0402985 -7.84031e-21)
(1.00141 0.0169664 0)
(0.911203 0.0332716 5.02548e-20)
(-0.272682 0.0189945 -2.60439e-20)
(0.989877 0.158815 -1.39128e-20)
(1.03792 0.012642 0)
(1.3326 0.00980568 -3.61469e-20)
(0.75541 0.399679 -5.70328e-20)
(0.917209 0.0351242 -8.4361e-20)
(0.981843 0.014926 -1.74587e-20)
(1.00248 0.0015187 0)
(1.00385 0.00509662 7.33732e-21)
(1.07289 0.426898 2.90083e-20)
(1.06363 0.016232 0)
(0.777731 0.294626 1.26023e-21)
(1.00001 0.00035935 0)
(-0.183728 0.0407515 1.96726e-19)
(1.29156 0.223988 6.50504e-20)
(0.993143 0.00411258 7.95621e-21)
(0.997663 0.00733628 -1.10414e-20)
(0.662764 0.235237 -7.47586e-20)
(0.999254 0.00201075 -1.80899e-20)
(1.00971 0.0051978 0)
(1.00168 0.0863536 -2.69978e-20)
(-0.0830859 0.0157511 -1.65126e-19)
(-0.00680528 0.0989417 3.1748e-24)
(0.727341 0.0295844 0)
(1.04181 -0.0045046 9.31574e-22)
(1.16805 -0.00382131 8.29163e-20)
(1.00892 0.172592 0)
(1.0131 0.00432034 4.09199e-21)
(1.0082 0.00035623 3.01222e-21)
(0.999585 0.000925681 0)
(1.08391 0.412115 -7.48885e-20)
(1.00013 0.00122974 0)
(0.99349 0.0052833 1.97331e-21)
(1.16651 -0.00746967 -9.40956e-20)
(0.975398 0.0104659 0)
(1.15635 0.132477 -1.34421e-21)
(1.00082 0.000856445 -4.28859e-21)
(0.998534 0.00248353 9.35464e-21)
(1.01051 0.00104073 -1.37507e-22)
(0.99907 0.00100528 -6.70624e-21)
(1.26066 0.0259154 0)
(1.00014 0.00137703 0)
(1.00126 0.0251738 0)
(1.13463 0.0290213 -2.81993e-20)
(0.934667 0.243341 0)
(0.816643 0.515519 0)
(1.00001 0.00143567 0)
(1.2007 0.105751 0)
(0.0803891 0.130094 4.03687e-20)
(0.50074 0.0349988 -1.46853e-19)
(0.96787 0.0473826 1.92385e-20)
(-0.220285 0.0285311 0)
(-0.104205 0.0125539 2.56192e-19)
(0.993911 0.0119066 -1.03201e-20)
(1.01525 0.00215597 -1.40193e-21)
(0.983316 0.0501302 -5.68025e-22)
(0.948559 0.0340742 -2.78445e-20)
(-0.0027295 0.114529 -3.25909e-20)
(1.0274 0.0629686 0)
(1.00063 0.00249836 0)
(1.00011 0.00129473 0)
(0.145239 0.10887 -8.69311e-20)
(0.980977 0.168243 0)
(1.04054 -0.00454997 7.5063e-21)
(1.00049 0.00207964 1.67527e-20)
(0.990205 0.00336512 -1.02574e-20)
(1.08704 0.146147 1.91904e-20)
(1.00921 0.00548527 4.55285e-21)
(1.0067 0.000534457 -5.05926e-21)
(1.09827 -0.0125959 0)
(0.98891 0.0558468 1.26642e-20)
(0.999674 0.000741327 0)
(1.0273 0.0165825 -5.5243e-24)
(0.714813 0.634598 1.16078e-20)
(1.03245 0.016767 -1.79309e-21)
(0.993756 0.0560633 6.94997e-22)
(0.99611 0.00168654 -1.10703e-20)
(1.00053 0.0483361 9.08861e-22)
(1.21596 0.180717 -6.66545e-20)
(1.00003 0.00157861 0)
(0.977306 0.0553828 0)
(0.997609 0.00238577 0)
(1.073 0.0233253 1.31987e-20)
(0.639318 0.5569 0)
(0.999999 8.83725e-05 0)
(0.829655 0.494458 0)
(1.04622 0.0783329 2.14096e-21)
(0.00253077 0.109652 6.23688e-20)
(1.01424 0.000432344 -1.34328e-21)
(1.03393 0.0599879 -4.63009e-22)
(1.09477 -0.0138363 -3.21593e-21)
(1.1992 0.110096 -4.75502e-20)
(0.780952 0.136883 6.88763e-20)
(0.967772 0.0372107 1.53529e-20)
(1.26549 0.277226 -6.09529e-20)
(1.15471 -0.0678144 0)
(0.962082 0.0243833 0)
(1.01041 0.000586775 0)
(1.29489 0.0406811 0)
(0.997657 0.00165793 9.33e-21)
(1.00002 0.000681597 -8.49086e-21)
(1.01352 0.0132627 1.86045e-23)
(1.00003 0.000784827 0)
(1.15336 0.0644161 8.0376e-21)
(1 1.35004e-05 0)
(0.999994 9.08962e-05 -9.02473e-21)
(0.868791 0.264196 4.61378e-20)
(1.02135 0.10937 0)
(1.01242 4.68123e-05 -1.23301e-21)
(0.924073 0.118027 -5.2696e-20)
(0.953275 0.0176218 1.78561e-20)
(0.636767 0.0320671 0)
(1.05718 0.0140321 7.15227e-21)
(0.805452 0.576306 -5.13482e-21)
(0.999683 0.016682 -6.98316e-21)
(1.15366 -0.0345819 5.68252e-20)
(0.988376 0.166425 1.46405e-20)
(0.239618 0.0677926 -4.72842e-20)
(1.06537 0.0280757 -9.94551e-21)
(-0.117758 -0.0146089 0)
(1.00001 0.000367361 0)
(1.0569 -0.0218656 0)
(1.00168 0.00267845 3.83527e-21)
(0.999873 0.0387473 -1.99825e-20)
(0.989252 0.0181343 1.33513e-20)
(1.23685 -0.0316877 -1.07832e-20)
(0.860552 0.144122 4.073e-20)
(1.08376 -0.0817412 0)
(-0.244373 0.00021181 -3.86585e-20)
(1.00057 0.0028207 2.1483e-21)
(0.939813 0.923542 0)
(1.05401 -0.0249889 9.43058e-21)
(1.02222 0.0200683 1.16545e-21)
(0.871375 0.0667759 0)
(1.09752 0.0425986 1.54138e-20)
(0.023514 0.0772039 0)
(0.997382 0.00741116 0)
(0.946449 0.0978099 -2.71303e-20)
(0.931459 0.230672 2.09775e-20)
(1.02318 0.0641476 -2.74533e-21)
(0.833717 0.137261 0)
(1.00001 0.000152117 -2.33398e-22)
(1.01441 0.00251315 4.49813e-21)
(1.00001 0.00013974 7.25607e-21)
(0.969813 0.468995 0)
(0.999176 0.00262019 0)
(1.00173 0.00531418 0)
(1.01255 0.0126749 4.55707e-21)
(1.00968 0.000981153 -5.64304e-21)
(1.00186 0.00895921 -8.20305e-21)
(1.00032 0.0074746 9.30395e-21)
(1.02771 0.0404299 0)
(1.00348 0.0142604 1.22921e-20)
(0.999224 0.00177483 9.08109e-22)
(0.958407 0.0104733 0)
(1.00435 0.0889248 0)
(0.930208 0.116045 0)
(0.994458 0.00222458 -1.56044e-21)
(0.0243391 0.103529 -1.60757e-20)
(1.00322 0.0346482 -2.39247e-21)
(1.27962 0.376999 9.72663e-20)
(0.896344 0.149157 2.25614e-20)
(-0.106221 0.0953865 -6.60139e-20)
(1.10473 0.0867989 -1.03087e-20)
(1.05591 -0.0203831 2.33133e-21)
(-0.166229 0.0365825 0)
(1.11381 0.0294588 1.98047e-20)
(1.00426 0.45696 2.65511e-20)
(0.677599 0.0206769 -3.9493e-20)
(1.08836 0.140148 0)
(1.00011 0.00143732 2.81964e-22)
(1.00507 0.0124573 4.99577e-21)
(1.00582 0.0598102 -8.62497e-21)
(1.22271 0.177186 0)
(1.01357 0.0299028 0)
(-0.0334465 0.0414364 -2.54438e-19)
(1.0049 0.0277819 -1.31744e-20)
(0.965073 0.698035 -2.71945e-20)
(0.820447 -0.0268839 0)
(1.0774 -0.0988356 -2.45441e-20)
(1.05182 0.0213278 0)
(-0.0386467 0.048184 0)
(-0.16784 0.0816396 -4.02645e-22)
(0.9436 0.0149236 2.6489e-20)
(0.994105 0.00340635 0)
(0.999957 0.000252826 -1.48971e-21)
(1.06402 -0.000300755 9.62374e-21)
(1.01458 0.00239501 -1.70115e-21)
(1.01157 0.000934099 4.22454e-21)
(1.10131 0.189824 3.028e-20)
(1.21939 -0.225534 0)
(0.997712 0.00210384 0)
(1.01266 0.0294231 0)
(0.960481 0.00981092 0)
(1.216 0.356981 1.27795e-19)
(1.09779 -0.10383 3.27157e-20)
(0.999529 0.00234755 0)
(1.04436 0.0746584 -2.0377e-21)
(1.20641 0.067642 6.04317e-20)
(0.997457 0.0502198 0)
(1.00028 0.00637257 -8.9919e-21)
(-0.0706739 0.0395436 1.7268e-19)
(0.986935 0.0415197 0)
(0.995533 0.0182746 0)
(0.837261 0.951622 1.17625e-20)
(0.998091 0.0748382 1.2754e-20)
(0.97973 0.00614981 -1.59168e-20)
(-0.144973 0.0422269 1.30374e-19)
(0.512448 0.0320567 1.07106e-19)
(0.0846391 0.0695185 1.89196e-19)
(0.991345 0.0101785 0)
(0.977725 0.0581966 -1.75588e-20)
(1.28868 0.0624991 0)
(1.01293 0.0132212 -4.7823e-21)
(1.02169 0.027062 -1.7698e-21)
(0.999992 0.00018786 9.11775e-21)
(1.06515 -0.0358947 -6.5034e-22)
(0.99795 0.0050209 6.71962e-21)
(1.00089 0.000812006 -6.03551e-22)
(1.04284 -0.0153412 -9.81866e-21)
(0.791199 0.115081 -2.95922e-20)
(0.894609 0.425935 -2.02326e-20)
(1.00922 0.0141685 0)
(0.982906 0.0111473 0)
(0.997613 0.00120274 0)
(1.02109 0.02516 -2.45461e-21)
(0.985063 0.0485002 -1.35756e-20)
(1.01369 0.00283874 9.71268e-22)
(1.24144 0.068237 -8.353e-20)
(1.00316 0.114019 7.66435e-21)
(0.993395 0.0294872 0)
(0.995977 0.00636023 -7.52219e-21)
(1.01033 0.0131873 0)
(1.0026 0.00501497 4.99102e-21)
(1.03509 0.0382824 8.82897e-22)
(-0.0559472 0.0216358 1.53607e-19)
(1.09301 0.0127439 0)
(1.02468 0.000866877 0)
(0.994339 0.00947581 -1.4459e-20)
(0.850401 0.145093 -5.72929e-20)
(0.171776 0.0797629 1.73836e-19)
(0.996697 0.00229048 0)
(1.00251 0.00473085 -6.15094e-21)
(0.996189 0.00222478 0)
(1.02427 0.0019895 0)
(1.32832 0.282211 2.76686e-20)
(1.08899 -0.0786671 -5.37111e-20)
(1.01323 0.000441533 -2.34897e-21)
(1.00142 0.000676596 -4.4083e-21)
(1.09444 0.0419059 8.07571e-21)
(1.00392 0.335126 4.13982e-21)