/*--------------------------------*- C++ -*----------------------------------*\
| =========                 |                                                 |
| \\      /  F ield         | OpenFOAM: The Open Source CFD Toolbox           |
|  \\    /   O peration     | Version:  v2012                                 |
|   \\  /    A nd           | Website:  www.openfoam.com                      |
|    \\/     M anipulation  |                                                 |
\*---------------------------------------------------------------------------*/
FoamFile
{
    version     2.0;
    format      ascii;
    class       surfaceVectorField;
    location    "950";
    object      Uf_0;
}
// * * * * * * * * * * * * * * * * * * * * * * * * * * * * * * * * * * * * * //

dimensions      [0 1 -1 0 0 0 0];


internalField   nonuniform List<vector> 
14907
(
(0.996709 0.0115384 1.26279e-21)
(0.9968 0.0119427 2.83004e-21)
(0.996399 0.0117647 -3.44403e-21)
(0.998646 0.00530447 4.79835e-21)
(0.9985 0.00551764 -2.92972e-21)
(0.998679 0.00559359 -2.85729e-21)
(1.03586 0.0131166 6.33292e-22)
(1.03673 0.0133944 2.47792e-21)
(1.03642 0.0122668 1.5347e-21)
(1.01084 4.18654e-05 -8.6937e-22)
(1.01079 7.76785e-05 -5.56012e-22)
(0.696084 0.0947606 -5.78206e-20)
(0.627057 0.0857295 -2.58962e-20)
(0.769637 0.105912 4.5416e-20)
(0.999255 0.00517634 1.53012e-21)
(0.999277 0.00486968 -6.26593e-21)
(0.999132 0.0050805 -4.97965e-21)
(0.738878 -0.00574064 2.98175e-20)
(0.671538 0.00571939 -1.63901e-21)
(0.823132 -0.0135225 6.1825e-20)
(1.33714 -0.0094266 -3.40078e-20)
(1.33854 -0.00087027 -3.90058e-20)
(1.29415 -0.00622221 -6.33787e-20)
(1.03014 0.0126447 1.02984e-21)
(1.03001 0.0134341 -4.40985e-22)
(1.02926 0.0128893 -8.09264e-22)
(1.00179 0.0050589 3.41575e-21)
(1.00177 0.00524552 1.22403e-20)
(1.00194 0.00531149 4.98584e-21)
(-0.243365 0.00374146 -2.6945e-20)
(-0.261436 0.0055531 -3.65619e-21)
(-0.246945 0.00737732 5.51296e-20)
(1.01411 0.000155143 0)
(1.0106 4.55825e-06 0)
(1.01542 0.00189314 8.51931e-22)
(1.01531 0.00209617 6.13007e-22)
(1.01564 0.00212256 -9.89068e-22)
(1.01567 0.000750017 3.86078e-22)
(1.0155 0.000723215 -4.89459e-22)
(1.01558 0.000905378 9.37936e-22)
(0.960978 0.0568519 -1.0058e-20)
(0.962772 0.0549105 -3.95178e-22)
(0.959924 0.0539101 -2.47462e-20)
(0.999711 0.00651682 6.76321e-21)
(0.999667 0.00623531 0)
(0.999813 0.00630838 5.14134e-22)
(0.999801 0.00678768 2.0208e-21)
(0.99963 0.00674828 7.03656e-21)
(1.00003 0.000312672 -6.35702e-21)
(1.00003 0.000323004 -6.7335e-23)
(1.00004 0.000430812 -3.38352e-21)
(0.99661 0.0110884 1.16914e-21)
(0.997028 0.0113028 1.18408e-20)
(0.668604 0.285285 4.94085e-20)
(0.692374 0.297871 -2.99551e-20)
(0.694386 0.276398 1.43144e-20)
(1.00426 0.00537715 -1.63703e-21)
(1.00426 0.00562364 -2.41765e-21)
(1.00451 0.00557692 -2.52906e-21)
(1.2749 -0.0689377 2.23673e-20)
(1.26864 -0.067752 -1.35774e-20)
(1.27358 -0.0612658 -3.77208e-21)
(1.01435 0.000416449 0)
(1.01435 0.000426845 -7.63296e-22)
(1.01471 0.000570277 0)
(1.014 0.00443155 0)
(1.01435 0.00448352 8.47644e-22)
(1.01421 0.00415354 1.00487e-21)
(0.998777 0.00511903 -6.06907e-22)
(0.998619 0.00504998 4.49404e-21)
(1.09615 0.0165462 1.70658e-20)
(1.09822 0.0139806 -5.52065e-21)
(1.09455 0.0136471 9.71062e-21)
(0.998795 0.00184848 8.35592e-21)
(0.998908 0.00159942 1.01429e-21)
(0.998947 0.00176315 6.94405e-22)
(0.99687 0.0569232 -5.82496e-21)
(0.995029 0.0560031 -5.86014e-21)
(0.996928 0.0548017 5.52551e-21)
(1.02211 0.0219616 0)
(1.02151 0.02255 0)
(1.02138 0.0215689 8.16503e-22)
(1.0032 0.0487797 -6.54803e-21)
(1.00478 0.0495 -2.78465e-22)
(1.00339 0.0508716 -2.0307e-22)
(0.996857 0.00437236 5.29175e-21)
(0.996581 0.0043771 8.65009e-21)
(0.996789 0.00409038 -1.93742e-21)
(-0.141157 0.0261838 0)
(-0.154105 0.026106 -2.79641e-21)
(-0.155105 0.0252427 0)
(1.00182 0.00485452 -1.01216e-20)
(1.00165 0.00479419 -2.33364e-21)
(1.02154 0.0434633 3.17056e-21)
(1.02181 0.045136 1.11992e-21)
(1.01997 0.043966 -1.64975e-21)
(1.07209 0.0562181 9.87998e-21)
(1.07283 0.0532413 -5.90645e-21)
(1.06991 0.0540255 -6.04526e-21)
(1.01366 0.00439284 1.53709e-21)
(1.01379 0.00473091 1.49892e-22)
(1.09191 0.0207742 0)
(1.09429 0.0185933 7.98363e-21)
(1.09051 0.018056 0)
(1.10662 -0.0146783 -1.97438e-20)
(1.1032 -0.0141642 -2.27801e-21)
(1.10542 -0.0114452 -3.11236e-20)
(1.01327 0.00427862 2.9696e-22)
(1.01353 0.00400406 3.70766e-22)
(1.00777 0.120099 -4.25538e-21)
(1.01033 0.12291 -1.80526e-22)
(1.005 0.12237 -5.62485e-21)
(0.64813 0.288365 3.67691e-21)
(0.654141 0.267001 2.83057e-20)
(0.969708 0.0531959 -3.3804e-23)
(0.968473 0.0553539 1.2272e-20)
(0.971093 0.0553597 -1.00824e-20)
(0.792283 -0.016595 2.99892e-22)
(0.650822 0.0108881 0)
(0.992963 0.0324347 0)
(0.993774 0.0335148 -8.16415e-21)
(0.994104 0.0319159 -7.86445e-22)
(0.784356 0.107604 1.27178e-20)
(0.602675 0.0878707 1.40196e-19)
(1.16408 -0.0266256 1.26231e-20)
(1.161 -0.0309045 1.3104e-20)
(1.15806 -0.0251336 -4.98793e-21)
(0.977886 0.0367911 5.24211e-21)
(0.978162 0.0382014 0)
(0.976686 0.0374864 0)
(1.18727 -0.09751 4.80601e-21)
(1.18027 -0.0940464 2.41989e-21)
(1.18082 -0.102683 -1.92566e-20)
(1.08372 0.0323765 0)
(1.08595 0.0345666 5.33254e-21)
(1.08644 0.0312896 -7.62405e-21)
(1.10265 -0.0786127 -4.72993e-21)
(1.09711 -0.0796954 2.51884e-20)
(1.09824 -0.0733302 -1.60262e-20)
(1.00037 0.00045187 1.39806e-21)
(1.00043 0.000541805 3.30623e-21)
(1.00047 0.000488725 7.63673e-21)
(1.03635 -0.00768002 3.85014e-21)
(1.03714 -0.00816725 -1.17348e-21)
(0.961423 0.043443 2.43017e-20)
(0.959146 0.0440433 -1.1179e-20)
(0.959869 0.0415545 3.19687e-21)
(1.04385 -0.0107194 7.47433e-21)
(1.04438 -0.00962974 -5.97561e-21)
(1.04524 -0.0112004 3.59403e-21)
(1.09374 0.0233601 8.26892e-21)
(1.09001 0.0229445 0)
(0.999201 0.00547313 2.79713e-21)
(0.999326 0.0052685 6.20913e-21)
(1.02265 0.0215698 0)
(1.02291 0.0225363 0)
(0.977534 0.0350897 5.79803e-21)
(0.979224 0.0359653 9.56567e-22)
(1.02297 0.0429187 3.62908e-21)
(1.02129 0.0419145 -9.23786e-22)
(0.963381 0.0423838 -1.14586e-21)
(0.963008 0.0446383 -1.99797e-21)
(0.997721 0.0048295 -4.17755e-21)
(0.997824 0.00452876 3.31727e-22)
(0.997573 0.00464474 2.69363e-22)
(0.997102 0.00648832 6.48718e-21)
(0.99732 0.00661994 -3.45221e-21)
(0.99733 0.00628696 -5.07013e-21)
(1.07118 0.058886 1.50155e-20)
(1.07435 0.0584026 7.1661e-21)
(1.035 0.0127364 1.86388e-22)
(1.03513 0.0138328 3.39124e-21)
(0.967053 0.0169913 -9.84757e-21)
(0.965729 0.0176995 -2.50315e-20)
(0.966971 0.0186245 -1.49551e-20)
(1.02424 0.042356 2.40404e-21)
(1.02442 0.0409856 -9.60732e-22)
(1.02598 0.0418541 -1.39881e-21)
(0.974316 0.0123382 -1.8832e-21)
(0.973787 0.0134394 -6.40179e-21)
(0.975118 0.0129852 -2.86269e-21)
(0.727216 0.212014 -6.50197e-20)
(0.73133 0.192588 1.56146e-20)
(0.746212 0.204872 -1.95453e-20)
(-0.150412 0.00180813 2.65587e-20)
(-0.12014 0.000861047 -2.97382e-20)
(-0.128523 -0.00804934 6.34603e-20)
(1.00157 0.0267037 3.64755e-21)
(1.00155 0.0276532 5.18387e-21)
(1.00075 0.0270849 0)
(1.04343 -0.0120985 1.81867e-22)
(1.04251 -0.0105521 7.99298e-21)
(0.639329 0.305506 -5.56753e-20)
(0.9918 0.0331242 0)
(0.992093 0.0315157 0)
(0.865549 0.0751032 3.81744e-21)
(0.868867 0.0686697 -2.34153e-20)
(0.860207 0.0683437 -3.53589e-20)
(0.97474 0.00897498 1.94415e-21)
(0.975377 0.00986121 4.31923e-22)
(0.975887 0.00881254 -1.10642e-20)
(1.01473 0.00450646 -1.74306e-21)
(1.01449 0.00483157 7.53362e-22)
(0.486828 0.0577403 1.23807e-21)
(0.581751 0.0724543 5.35699e-20)
(0.996553 0.0107264 -4.23963e-21)
(0.996483 0.0103307 3.92286e-21)
(0.996845 0.0104729 -6.37215e-21)
(0.902751 0.0950566 2.18211e-20)
(0.901507 0.0888319 9.84658e-21)
(0.907372 0.0921561 -2.59689e-20)
(0.686363 0.00995073 1.71989e-20)
(0.611012 0.0180067 -2.8978e-20)
(0.553858 0.0279087 2.86356e-22)
(1.08094 0.0334106 0)
(1.08162 0.0302587 0)
(0.900033 0.131061 -1.65498e-20)
(0.982999 0.140407 -3.20599e-20)
(1.00781 0.036561 3.78474e-21)
(1.00827 0.0356982 -4.01518e-21)
(1.00888 0.0368652 3.88531e-21)
(0.972279 0.0491544 -1.63129e-20)
(0.971364 0.0471612 -6.70254e-21)
(0.973638 0.0472302 2.93517e-21)
(0.974811 0.0110687 1.64601e-20)
(0.973444 0.0114993 4.96874e-21)
(1.00007 0.00146609 0)
(1.00006 0.0015048 5.1727e-21)
(1.00004 0.00125649 0)
(0.997435 0.0133435 5.33774e-21)
(0.997165 0.0130474 0)
(0.997022 0.013595 5.69042e-21)
(1.17014 0.273265 5.9741e-20)
(1.15943 0.2701 2.56415e-20)
(1.16839 0.263364 1.72561e-21)
(0.98684 0.0206344 -2.63991e-21)
(0.987202 0.021463 4.45889e-22)
(0.986266 0.021326 6.53831e-21)
(0.99773 0.0138351 5.74495e-21)
(0.997882 0.013229 -6.57729e-22)
(1.03431 0.0323355 -3.05123e-22)
(1.03513 0.031258 9.44997e-23)
(1.03351 0.0312586 3.0396e-22)
(1.0045 0.154992 -4.10102e-20)
(0.811744 0.118587 -7.71376e-20)
(0.998425 0.0579667 -5.21535e-21)
(0.996528 0.0592832 1.31683e-21)
(1.03646 -0.00678008 2.04715e-23)
(1.00157 0.0482031 4.44619e-21)
(1.00301 0.0470103 -6.29471e-21)
(1.01665 0.0289037 -1.27017e-21)
(1.01583 0.0292014 -3.81718e-22)
(1.01677 0.0297854 7.91869e-22)
(0.999724 0.0102377 -3.24448e-22)
(0.999518 0.0100308 4.52629e-21)
(0.999817 0.00988113 1.77512e-21)
(1.01063 0.0288844 -2.95627e-22)
(1.01107 0.0281173 5.96377e-21)
(1.01016 0.0280784 3.25091e-21)
(1.00516 0.115622 -6.23255e-21)
(1.01089 0.116453 9.6912e-22)
(1.0264 0.0195365 -2.27529e-22)
(1.02723 0.0198733 1.08004e-23)
(1.0268 0.018943 -4.93269e-22)
(0.999999 9.41132e-05 -3.16863e-21)
(1 9.4647e-05 0)
(1.17732 0.200163 -1.58024e-20)
(1.17259 0.206628 4.85798e-20)
(1.18208 0.206099 -2.88473e-20)
(1.31357 -0.0156526 0)
(1.27415 -0.0250872 0)
(1.33098 -0.0186888 -1.19081e-22)
(1.00007 0.00169479 8.89109e-21)
(1.00007 0.00147448 0)
(0.990226 0.0527158 1.13111e-20)
(0.988795 0.0514121 5.99073e-21)
(0.990673 0.0506411 4.84368e-21)
(1.04495 0.20638 1.90313e-21)
(1.05275 0.207159 5.18297e-21)
(1.04753 0.215122 4.25709e-22)
(0.994287 0.0106899 1.65303e-21)
(0.994025 0.0110265 4.52717e-21)
(0.994439 0.0111625 4.33646e-21)
(0.999951 0.01045 -4.43162e-21)
(0.999648 0.0106031 -5.96772e-21)
(1.00401 0.00515286 -1.67036e-21)
(1.00427 0.00509362 2.26641e-21)
(1.02128 0.000527793 0)
(1.02087 0.000581304 0)
(1.01007 0.00123657 -2.23697e-21)
(1.00979 0.00108122 3.94548e-22)
(1.00979 0.00141977 -2.65526e-21)
(1.00473 0.0210941 0)
(1.0053 0.0216267 2.67833e-21)
(1.00468 0.022022 -4.69558e-21)
(1.04292 0.0809115 -7.67181e-22)
(1.04048 0.0823479 -1.30104e-21)
(1.04005 0.0794159 -4.06905e-22)
(-0.166555 0.012918 0)
(-0.175538 -0.0036223 -4.82143e-20)
(0.968427 0.0165458 7.63028e-21)
(0.967268 0.0155317 1.74631e-20)
(1.00237 0.0192764 0)
(1.00239 0.0199782 0)
(1.00178 0.0196274 -4.06221e-21)
(0.99141 0.00469744 9.74028e-21)
(0.991878 0.00462009 -8.61158e-21)
(0.991685 0.00507877 -6.93556e-21)
(0.996245 0.0109531 -8.27275e-21)
(1.0177 0.0285742 1.71329e-21)
(1.01665 0.0279466 1.26747e-22)
(-0.0103725 0.0519009 -8.26438e-20)
(-0.0561197 0.0448328 -3.84882e-20)
(-0.00687453 0.0532216 4.33875e-20)
(0.986483 0.0197661 -2.66606e-22)
(0.987504 0.0198657 -8.46035e-21)
(1.32967 -0.0145606 2.86919e-20)
(1.34004 -0.00972536 3.85991e-20)
(0.996411 0.0358845 -1.05964e-21)
(0.997425 0.0366531 4.28327e-22)
(0.997481 0.0352341 -8.83576e-21)
(0.994049 0.00286859 -8.68093e-22)
(0.994155 0.00321342 0)
(0.994421 0.00297842 0)
(1.18207 0.192292 -1.61473e-20)
(1.17254 0.192905 -2.33451e-21)
(1.00656 0.0364111 0)
(1.00737 0.0380336 -3.27222e-21)
(1.34006 0.00677993 5.22252e-20)
(1.32774 0.00280573 2.80775e-20)
(1.08529 0.0512487 1.59703e-20)
(1.08638 0.0488168 -1.68367e-21)
(1.08829 0.0516131 6.22642e-21)
(1.04114 0.200315 -2.52733e-21)
(1.03617 0.206983 -2.18662e-21)
(0.998017 0.0142131 -3.22079e-21)
(0.998271 0.0146521 -6.96443e-21)
(0.998457 0.0140742 -3.3608e-21)
(0.896773 0.0974904 6.73777e-20)
(0.903602 0.10107 -2.17444e-20)
(0.980747 0.0198462 1.29415e-21)
(0.980747 0.021093 3.416e-21)
(0.979594 0.0201793 1.69674e-21)
(-0.15846 0.0316843 2.83588e-20)
(-0.186581 0.0275681 -2.0969e-20)
(-0.188427 0.0283675 1.06571e-20)
(1.26653 0.0324418 4.30481e-20)
(1.26395 0.0273862 -2.10613e-20)
(1.27046 0.0266672 4.9459e-20)
(1.02595 0.020332 -2.57878e-22)
(1.02548 0.019345 -1.29203e-22)
(1.11179 0.18311 8.34421e-21)
(1.1089 0.176089 5.90642e-21)
(1.11684 0.177522 2.98933e-20)
(-0.110627 0.0412438 -3.01386e-20)
(-0.143568 0.0387316 -8.56002e-21)
(-0.109163 0.0422994 -3.21296e-20)
(1.03528 0.0335246 -1.15569e-21)
(1.03352 0.0333774 -6.40185e-22)
(1.19459 -0.100304 2.97853e-20)
(1.1933 -0.0916996 2.61542e-20)
(1.17975 0.276683 2.81544e-20)
(1.17065 0.284418 -8.81342e-21)
(0.984899 0.052788 -6.22664e-21)
(0.983537 0.0513276 -6.49512e-21)
(0.982744 0.0535134 -8.22209e-21)
(0.991076 0.00440425 1.46992e-20)
(0.990962 0.00488079 1.07161e-20)
(0.983698 0.0460052 -5.03175e-21)
(0.984834 0.047495 -1.9546e-21)
(0.985563 0.0455603 8.68223e-21)
(1.22625 0.164911 -3.28563e-20)
(1.22283 0.172451 -5.8854e-21)
(1.21886 0.164482 -3.34065e-20)
(1.03458 -0.00304585 1.7551e-21)
(1.03391 -0.00344582 -2.65882e-22)
(1.03377 -0.00266555 -1.7736e-21)
(1.00419 0.0208778 3.26215e-21)
(1.00479 0.0205 3.01574e-21)
(1.13875 0.145397 7.82689e-21)
(1.13308 0.143639 -2.02793e-20)
(1.13457 0.150518 0)
(1.02509 0.000497446 5.2538e-22)
(1.02489 0.000791254 3.17052e-22)
(1.02545 0.000789976 -2.29574e-22)
(1.01111 0.0297105 -1.18002e-22)
(1.01013 0.0296679 -3.23447e-21)
(1.0159 0.0885595 -1.93582e-21)
(1.01261 0.0888065 -8.53224e-23)
(1.01448 0.0856854 0)
(1.03169 0.0119443 -2.48974e-21)
(1.03155 0.0111041 5.55895e-23)
(1.0324 0.0115067 0)
(1.00003 0.000126039 -1.30705e-22)
(1.00004 0.000173437 -1.875e-21)
(1.00002 0.00012175 1.50823e-21)
(0.225599 0.0888996 -3.26819e-20)
(0.263008 0.0801488 7.38659e-22)
(0.17775 0.0956923 -2.91318e-20)
(-0.0438804 0.0455297 -3.61326e-20)
(-0.0884277 0.0441327 2.81087e-20)
(-0.055433 0.0458149 -7.00889e-20)
(0.999506 0.00123301 -1.02217e-20)
(0.999568 0.00103278 0)
(0.999581 0.0011259 -1.52752e-24)
(1.01523 0.0017324 1.85232e-21)
(1.01552 0.00171546 1.39722e-21)
(0.952823 0.0122797 0)
(0.954917 0.0128053 9.07174e-21)
(0.954265 0.0106334 0)
(0.996892 0.00636445 -8.07597e-22)
(0.9969 0.00671446 6.51889e-22)
(1.10626 0.188159 -1.76392e-20)
(1.11424 0.189296 -1.18804e-20)
(0.0619084 0.0911953 8.81781e-20)
(-0.11564 0.0341219 -3.54079e-20)
(-0.108729 0.0549171 5.55021e-20)
(-0.249613 -0.00428774 0)
(-0.246344 -0.000925603 0)
(-0.241204 -0.00900371 -5.75206e-20)
(1.23799 0.0499629 0)
(1.23564 0.0445549 0)
(1.24194 0.0446391 -8.92978e-21)
(0.995749 0.00506322 0)
(0.995959 0.00522329 0)
(0.995653 0.00531392 1.38663e-21)
(1.03099 0.0123446 -1.4143e-21)
(1.03181 0.0127393 -1.80214e-21)
(1.01209 0.0383656 1.25464e-21)
(1.01157 0.0394897 3.97245e-21)
(1.01283 0.0394863 2.16871e-21)
(0.980786 0.0184814 -1.06002e-21)
(0.981867 0.019461 -1.55785e-20)
(0.950869 0.251238 7.68497e-21)
(0.947627 0.262996 -5.8898e-21)
(0.960882 0.257991 -1.77822e-21)
(0.312636 0.19446 2.27677e-20)
(0.374178 0.253444 -4.7311e-20)
(-0.15674 0.0293057 -3.74473e-20)
(-0.160543 0.0340294 -6.88663e-20)
(-0.0338601 0.0459255 6.82651e-20)
(0.0125234 0.0514554 5.13236e-21)
(1.04439 -0.00608544 8.97161e-22)
(1.04314 -0.00567195 1.00488e-21)
(1.04432 -0.00483344 -4.34535e-22)
(1.00518 0.0115648 0)
(1.00543 0.0120194 -1.34655e-21)
(1.00562 0.0116795 3.54698e-21)
(1.17552 0.193803 -4.17607e-20)
(1.05847 0.173405 1.04097e-19)
(0.701883 0.356828 -2.98884e-20)
(0.695644 0.325098 4.32246e-20)
(0.670202 0.34343 3.6974e-20)
(0.907505 0.163006 -6.19146e-21)
(0.915623 0.163502 -1.12373e-20)
(0.911732 0.155424 -1.38006e-20)
(0.772039 -0.0458572 -5.5848e-20)
(0.836155 -0.0526971 1.24167e-20)
(0.70059 -0.0215718 1.02376e-20)
(-0.199433 0.164445 0)
(-0.216828 0.121238 0)
(-0.185166 0.129669 -8.80716e-20)
(0.995498 0.0351271 7.79953e-21)
(0.994618 0.0343025 -7.36587e-21)
(0.995668 0.0336984 3.69841e-22)
(0.72933 0.233347 -2.75577e-20)
(0.708762 0.220249 3.76125e-20)
(1.06847 0.107978 1.09738e-21)
(1.06767 0.103463 -7.30268e-21)
(1.06403 0.106939 -1.0459e-20)
(0.950613 0.0116412 -1.44669e-21)
(0.951263 0.0139963 1.62142e-20)
(-0.122452 0.0212863 0)
(-0.117543 0.0237066 3.89038e-20)
(0.973172 0.0147426 9.60277e-21)
(0.974227 0.0154934 -5.04864e-21)
(0.972575 0.0160041 8.09448e-21)
(1.08215 0.0515481 1.01636e-20)
(1.08429 0.0543473 -2.08977e-20)
(0.970922 0.0511138 -9.7159e-21)
(0.968537 0.0511079 -9.74343e-21)
(-0.0194921 0.04994 -7.07921e-21)
(0.0598362 0.0627521 -3.85515e-20)
(1.27315 0.0678422 -2.30588e-20)
(1.27254 0.0619992 -1.9625e-20)
(1.2676 0.0660073 0)
(1.02264 0.0374253 -3.08538e-22)
(1.02191 0.0367881 2.24339e-21)
(1.02149 0.0378335 -2.62082e-21)
(-0.220327 -0.0209925 -7.67327e-20)
(-0.222516 -0.0228509 -5.23014e-20)
(-0.218435 -0.0249357 -3.40684e-20)
(1.05883 0.0409402 -2.90869e-21)
(1.057 0.0394398 5.4657e-22)
(1.05933 0.0386833 -8.09071e-21)
(0.774296 0.776965 0)
(0.773802 0.713004 0)
(0.718507 0.750478 -7.36671e-21)
(0.982575 0.0447474 7.94282e-21)
(0.981633 0.0467684 -2.53911e-20)
(0.180976 0.101914 -2.95782e-20)
(0.270557 0.0789497 3.84138e-21)
(1.31776 0.220623 -6.63823e-20)
(1.29118 0.205371 -2.64837e-21)
(1.2209 0.00458722 -2.39725e-21)
(1.21562 0.00617285 -3.62183e-20)
(1.22083 0.0102902 -5.7158e-20)
(1.36119 0.163202 0)
(1.33441 0.150144 -1.73987e-20)
(1.34553 0.162262 2.91653e-20)
(1.07652 0.0241299 -5.62526e-21)
(1.0742 0.0231997 1.32517e-20)
(1.07635 0.0214192 6.23091e-21)
(0.994988 0.0097228 0)
(0.994968 0.0101501 6.36641e-23)
(0.995354 0.00990406 -9.17184e-22)
(1.01508 0.00151454 -1.50214e-21)
(1.01493 0.00170528 1.77234e-23)
(1.03062 0.0609434 9.7041e-22)
(1.03267 0.0604489 -1.23348e-21)
(1.03183 0.0633101 -6.09217e-22)
(0.884098 0.143632 3.18583e-20)
(0.892865 0.146136 5.83263e-21)
(0.891268 0.137567 0)
(1.02365 0.037478 4.11127e-22)
(1.02298 0.0387331 5.38507e-22)
(1.00602 0.021651 2.72833e-21)
(1.00679 0.0218858 2.91846e-21)
(1.0063 0.0209787 -1.71764e-22)
(0.726178 0.357798 -1.07313e-19)
(0.708818 0.380653 -4.91958e-20)
(0.972093 0.0140912 4.03372e-22)
(1.01795 0.0121374 -1.83352e-21)
(1.01851 0.012068 1.78094e-21)
(1.01841 0.0127198 1.89805e-21)
(0.833476 0.873069 5.9994e-21)
(0.856816 0.7644 1.09468e-20)
(0.999289 0.0019443 -5.37458e-21)
(0.999265 0.00179528 7.67525e-21)
(0.999365 0.00169981 9.8258e-21)
(1.00002 0.000360198 -3.77357e-21)
(1.00002 0.000371318 4.20488e-21)
(1.00004 0.000495924 -8.02095e-21)
(0.99992 0.0005868 9.73089e-23)
(0.999909 0.000580421 -1.04647e-20)
(0.999896 0.000749433 -9.82784e-21)
(1.33553 0.1634 -1.88038e-20)
(1.33832 0.156763 -2.82355e-20)
(1.01525 0.000297869 4.96154e-22)
(1.01541 0.000224716 0)
(1.01396 0.000128252 7.98145e-22)
(0.941332 0.244289 0)
(0.952847 0.240407 -6.88198e-21)
(1.04631 0.430969 -4.33198e-21)
(1.02744 0.436959 -1.3964e-20)
(1.0448 0.453227 -2.31051e-20)
(0.957001 0.0132543 1.80927e-20)
(0.95573 0.0148923 9.63026e-21)
(1.27961 0.0686845 2.54756e-21)
(1.27388 0.072327 -6.33668e-20)
(0.97867 0.00748095 6.6188e-22)
(0.97817 0.0084378 -8.74463e-21)
(0.979225 0.00834811 -6.7282e-21)
(1.00055 0.00735465 0)
(1.00039 0.00745124 5.3907e-21)
(1.00057 0.00766726 4.19264e-21)
(1.15927 0.130739 3.40136e-20)
(1.16199 0.125133 1.55121e-20)
(1.16631 0.13148 1.48833e-20)
(1.01039 0.0141498 -1.70743e-21)
(1.01004 0.0137549 3.59395e-22)
(1.00991 0.0142573 3.5447e-21)
(1.04548 0.07969 -9.21212e-22)
(1.04577 0.0829678 -2.14394e-21)
(0.952221 0.0210704 0)
(0.953279 0.0190002 -1.70426e-20)
(0.95452 0.0208437 0)
(1.14295 0.404675 -2.49205e-20)
(1.12673 0.397823 -6.62524e-20)
(1.13939 0.387582 -3.35219e-21)
(1.11007 -0.0151314 -4.57788e-21)
(1.10768 -0.0178053 1.37397e-20)
(0.946312 0.069436 1.61165e-21)
(0.946572 0.0725571 -3.49428e-20)
(0.943357 0.0707032 -1.05449e-20)
(1.09975 0.0115416 -1.38009e-20)
(1.10142 0.0087676 8.48859e-22)
(1.09816 0.00866181 -9.6828e-22)
(1.28916 0.0134886 -1.93808e-20)
(1.29028 0.017791 5.47779e-21)
(1.28785 0.0171569 -4.00807e-20)
(1.00355 0.0206043 3.3921e-21)
(1.00297 0.020282 0)
(1.00358 0.0199268 -3.10835e-21)
(1.25069 0.0717401 1.52421e-20)
(1.25556 0.0751221 -1.89098e-20)
(1.24919 0.0776121 -1.3497e-20)
(1.04309 -0.0132067 -2.99549e-21)
(1.04447 -0.0135388 -2.99197e-21)
(1.03011 0.0118391 1.49486e-21)
(0.810453 0.373198 1.07577e-20)
(0.830293 0.367398 2.95095e-20)
(0.827681 0.388702 1.38591e-20)
(1.00498 0.0111636 3.55524e-21)
(1.00482 0.0114728 3.701e-21)
(1.04266 -0.0144194 3.2461e-21)
(1.04183 -0.012979 9.03742e-21)
(1.03756 0.0130618 2.45523e-21)
(1.03712 0.0139989 3.87927e-21)
(1.01866 0.089025 -7.49419e-22)
(1.0168 0.0923159 -5.10862e-21)
(1.01657 0.0139014 3.7595e-22)
(1.01666 0.0144769 -1.76918e-21)
(1.01715 0.0141628 -1.70322e-21)
(1.01585 0.000465079 1.38576e-21)
(1.01595 0.000389746 -4.89476e-25)
(1.01599 0.000558793 4.58649e-22)
(1.0568 0.0181107 4.26837e-21)
(1.05829 0.0173455 -7.39418e-22)
(1.05823 0.0192894 1.80665e-21)
(1.05317 -0.0283344 3.00959e-21)
(1.05403 -0.0265204 -4.43854e-21)
(1.05518 -0.0287095 2.03926e-21)
(0.995526 0.00485381 0)
(0.995877 0.00476226 0)
(0.995328 0.0365121 7.19697e-21)
(1.01248 0.037244 -1.01543e-21)
(1.01132 0.0372512 -1.8643e-22)
(1.03768 0.0838995 -5.10402e-22)
(1.04092 0.0864095 -1.71592e-22)
(1.0023 0.0186317 6.14707e-21)
(1.00289 0.0189514 9.59627e-23)
(0.9971 0.00433545 0)
(0.996934 0.004603 1.61319e-22)
(1.0131 0.00101698 1.28974e-21)
(1.01283 0.000753991 -2.8053e-21)
(1.01279 0.00106825 -1.14444e-21)
(0.989778 0.0548283 6.19464e-21)
(0.991761 0.0538961 1.15587e-21)
(1.04428 -0.00851458 -8.85026e-21)
(1.04429 -0.00723858 -1.69321e-21)
(1.04302 -0.00810932 2.91361e-21)
(1.00001 0.000198884 -6.01629e-21)
(1.00003 0.000299872 2.04769e-21)
(1.01492 0.00113883 1.97495e-23)
(1.01486 0.000954623 1.24278e-21)
(1.01507 0.000999863 -4.26907e-22)
(1.00153 0.0256959 3.60354e-21)
(1.00236 0.0262184 -6.22868e-23)
(0.994544 0.0773583 3.54754e-21)
(0.992472 0.0790785 1.46473e-20)
(0.995463 0.0800653 -1.94931e-22)
(1.14815 0.418877 2.00822e-20)
(1.16009 0.405097 3.63406e-20)
(1.23446 0.0541475 0)
(1.24039 0.054355 0)
(-0.213707 -0.0172541 0)
(-0.219699 -0.0147025 0)
(0.904079 0.171049 2.96581e-20)
(0.899717 0.162571 -4.1379e-20)
(0.923791 0.163943 -9.57529e-21)
(0.932158 0.164484 8.61183e-21)
(0.926715 0.156434 1.93876e-20)
(0.958778 0.0586767 0)
(0.961866 0.0593903 6.62449e-22)
(1.17 -0.0266242 -1.52069e-20)
(1.17494 -0.0309087 2.17056e-20)
(1.17664 -0.0243448 -2.7848e-20)
(0.941778 -0.0526416 -3.59809e-20)
(0.966358 -0.0620257 -3.49787e-20)
(0.838229 -0.0400017 -1.33982e-19)
(1.05518 0.0190864 -1.88281e-21)
(1.05515 0.0171823 -4.21675e-21)
(0.994639 0.0103999 -3.69336e-21)
(0.994209 0.0102824 -4.10943e-21)
(1.01578 0.000613431 3.48541e-22)
(1.01569 0.000418527 7.07349e-23)
(1.02843 0.0619984 1.49664e-21)
(1.02926 0.0594117 5.12616e-22)
(1.01607 0.0136641 -1.39191e-22)
(1.01651 0.0133726 2.28038e-22)
(1.2814 -0.0694512 0)
(1.27703 -0.0765839 0)
(1.05461 -0.00304289 -6.76882e-21)
(1.05365 -0.00220753 -1.45815e-22)
(1.05517 -0.00177126 2.32599e-21)
(0.997548 0.0143862 0)
(0.999945 0.000443773 1.02798e-20)
(0.999951 0.000594747 1.3926e-20)
(0.876784 0.138878 -1.85361e-20)
(0.877037 0.147765 2.42784e-20)
(1.04567 -0.00873855 -9.55346e-21)
(1.06359 0.425555 4.71886e-21)
(1.05039 0.414491 2.26429e-20)
(0.92116 0.172363 -4.15552e-21)
(1.1965 0.238272 3.40437e-20)
(1.20104 0.246357 5.02532e-21)
(1.20751 0.237225 -8.41027e-20)
(1.05837 0.042575 -8.06738e-22)
(1.06071 0.0419926 0)
(1.05109 -0.0282314 -1.2041e-21)
(1.0521 -0.0305944 1.30646e-20)
(1.01557 0.013472 1.28963e-21)
(1.01545 0.0129656 3.4898e-21)
(1.01504 0.0132411 2.61032e-21)
(1.07041 2.3344e-06 -6.44192e-21)
(1.07152 -0.00067255 -1.10202e-21)
(1.07174 0.00103359 1.26741e-20)
(1.03536 -0.00334511 -1.89915e-21)
(1.0351 -0.00254722 2.20207e-21)
(1.07325 0.108285 1.68849e-21)
(1.06963 0.112095 1.18511e-20)
(0.991195 0.0218628 2.68751e-21)
(0.990528 0.021558 1.00051e-20)
(0.99125 0.0210217 1.02562e-20)
(1.09769 0.0192215 -1.396e-21)
(-0.126766 0.0345947 -4.74956e-20)
(-0.121829 0.0334221 5.59602e-20)
(1.01768 0.0116703 -8.22125e-22)
(1.01753 0.0122093 -3.38935e-21)
(1.03275 0.0164062 -4.33473e-21)
(1.033 0.0154974 -1.6879e-21)
(1.03387 0.016195 -8.20966e-22)
(0.889175 -0.0406461 1.61142e-20)
(1.0492 -0.0643622 5.24825e-20)
(1.16589 -0.021025 0)
(1.02241 0.0355214 1.11208e-21)
(1.02101 0.0357443 2.99502e-21)
(0.997331 0.00426951 0)
(0.997451 0.0044648 4.59244e-21)
(0.997587 0.00418785 -4.99178e-21)
(0.996646 0.0752586 -4.3067e-21)
(0.993856 0.0745271 1.38028e-22)
(0.721799 -0.037754 -3.28247e-21)
(0.865728 -0.0745218 -4.82409e-20)
(1.16614 0.058531 8.1059e-21)
(1.16112 0.0617486 3.92739e-20)
(1.16142 0.055633 -9.65188e-21)
(1.22891 0.159668 -4.6157e-21)
(1.23287 0.166936 7.47412e-20)
(1.00035 0.000357601 -1.62998e-21)
(1.0003 0.000395262 -4.11407e-21)
(1.01498 0.00132284 -2.185e-21)
(1.01524 0.00136115 -1.56229e-21)
(1.00353 0.0214082 -5.18782e-21)
(1.03073 0.0139148 1.26536e-21)
(1.02977 0.0141413 -8.67986e-24)
(1.2865 0.00753358 3.72234e-20)
(1.29781 0.0103218 -4.28372e-20)
(0.995158 0.0174205 -3.85575e-21)
(0.995367 0.0180995 0)
(0.994694 0.0180184 -6.61425e-21)
(0.997834 0.0049927 -1.64751e-22)
(0.997587 0.00510478 1.58423e-23)
(1.00511 0.0127466 1.34938e-21)
(1.00542 0.0131968 3.43018e-21)
(1.00499 0.0131383 3.08507e-21)
(0.979202 0.00651127 8.07035e-21)
(0.978067 0.00646521 1.78268e-20)
(1.10317 -0.0265077 1.25507e-20)
(1.1031 -0.0305675 2.19078e-20)
(1.09974 -0.0276965 -8.40087e-21)
(0.970129 0.0641937 9.11314e-22)
(0.969443 0.0666202 -7.67906e-21)
(0.967455 0.0641749 -4.09063e-21)
(1.10097 0.244973 1.92222e-21)
(1.09223 0.240597 -2.89753e-21)
(1.10148 0.235526 2.80872e-21)
(0.423526 0.00945785 8.58326e-20)
(0.565941 0.0231476 -5.10159e-20)
(0.477584 0.0166131 9.79736e-21)
(0.965209 0.0410146 -1.16938e-20)
(0.963488 0.0396255 -1.23789e-22)
(1.13699 0.0495241 -6.00972e-20)
(1.00727 0.0420889 1.46511e-21)
(1.05234 0.045006 -2.72328e-20)
(1.00223 0.0179584 3.09791e-21)
(1.00218 0.017308 2.74011e-21)
(1.0027 0.0176203 -6.06435e-21)
(1.06889 5.7334e-05 2.41418e-21)
(1.06932 0.00175051 -1.86123e-22)
(0.998709 0.00213627 -6.9627e-22)
(0.998638 0.00196238 1.61981e-21)
(-0.246121 0.0269666 8.13852e-21)
(-0.249862 0.0268113 9.93008e-20)
(1.1853 0.185784 1.06648e-20)
(1.18899 0.178969 4.71286e-20)
(1.18076 0.179093 6.26777e-22)
(1.3447 0.23537 -4.42354e-20)
(1.33213 0.237376 2.16573e-20)
(1.33526 0.227624 1.89476e-21)
(-0.153072 0.17251 0)
(1.0151 0.00457552 -4.06452e-21)
(1.01524 0.00491729 5.00447e-22)
(1.01547 0.00463099 1.02542e-22)
(1.054 -0.00432728 -4.52221e-21)
(1.05547 -0.00404972 1.97326e-21)
(1.00142 0.0286624 -8.39447e-22)
(1.00227 0.0282293 4.02628e-21)
(0.978302 0.0731151 1.77576e-21)
(0.98126 0.0724589 -9.6098e-21)
(0.978944 0.0701653 -2.66483e-21)
(1.10148 0.0143483 -1.26941e-20)
(1.00003 0.000905033 3.92906e-21)
(1.00002 0.000735918 4.06994e-21)
(1.00001 0.000737941 4.02392e-21)
(1.05492 0.12113 5.55731e-22)
(1.0587 0.118947 1.5407e-21)
(1.05778 0.124938 5.28365e-21)
(1.01034 0.00113771 -6.33671e-23)
(1.01028 0.00148294 -4.08795e-22)
(1.01611 0.000308945 2.41072e-23)
(1.01619 0.000248284 3.85392e-22)
(1.01596 0.000196989 -5.81909e-22)
(0.993476 0.0349338 -2.05582e-21)
(1.10061 0.252756 -1.56565e-20)
(1.10982 0.247774 2.11634e-21)
(0.99999 0.000275405 -5.21309e-21)
(0.999992 0.000133543 4.36739e-21)
(0.999993 0.00013263 -4.63405e-21)
(1.05529 0.0377067 1.65149e-21)
(1.05466 0.0397536 -1.90565e-21)
(0.980993 0.017483 4.94844e-21)
(0.981196 0.0164211 9.56587e-21)
(0.982009 0.017167 -4.53608e-24)
(0.970904 0.0618795 -6.01018e-21)
(0.972841 0.0639489 -1.30823e-21)
(-0.183411 0.0435279 -1.12167e-21)
(-0.17669 0.0702636 2.23891e-22)
(-0.205152 0.0601276 0)
(1.00175 0.0182949 6.35904e-21)
(0.999416 0.00133152 -6.76409e-21)
(0.999432 0.00145089 -8.74193e-21)
(1.00256 0.00162901 3.47234e-22)
(1.00257 0.00185181 -2.11266e-21)
(1.0028 0.00177384 2.82995e-23)
(1.03416 0.0123914 -5.92374e-22)
(1.0348 0.011742 1.11367e-21)
(1.07913 0.150992 -3.40464e-21)
(1.08146 0.157012 0)
(1.074 0.154671 0)
(1.22026 -0.00117472 6.94988e-20)
(1.22546 0.00254405 -9.14253e-21)
(0.938753 0.163263 0)
(0.937104 0.171217 0)
(1.31073 0.0619749 -2.1196e-20)
(1.33836 0.061809 2.3255e-20)
(1.34055 0.0674066 -6.03877e-20)
(1.10352 -0.0233264 -3.25899e-22)
(1.10658 -0.0260588 -1.32857e-20)
(1.07882 0.0521797 -8.9127e-21)
(1.07968 0.0493669 8.23643e-21)
(0.979915 0.0177457 1.03957e-20)
(1.01583 0.000796803 -8.12358e-22)
(1.03877 0.0303467 -2.27857e-22)
(1.0393 0.0292281 1.16719e-21)
(1.03797 0.029309 0)
(1.00001 0.000215489 7.27727e-21)
(1.00003 0.000335218 3.49308e-21)
(1.29988 0.0537638 0)
(1.29385 0.0568593 0)
(1.30097 0.0587251 -3.52941e-20)
(0.991858 0.022147 -2.22909e-20)
(0.991162 0.0228553 1.00956e-21)
(1.02445 0.0439128 1.74443e-21)
(1.16638 -0.14479 2.90168e-20)
(1.16013 -0.138096 -4.64764e-21)
(1.15613 -0.148235 -8.28892e-21)
(1.0058 0.0224027 -4.40393e-21)
(0.982207 0.0790622 -1.10244e-20)
(0.984206 0.0770767 5.24493e-21)
(0.985202 0.080135 -8.23421e-21)
(0.973448 0.0511139 9.39367e-21)
(1.17153 -0.154724 5.34209e-21)
(1.17637 -0.142728 2.61531e-20)
(1.03679 0.00511999 1.09378e-21)
(1.03715 0.00446009 3.5934e-21)
(1.03754 0.00536782 5.01365e-23)
(0.945782 0.06588 8.61595e-21)
(0.949317 0.0677352 9.19465e-21)
(1.04517 0.193753 -1.71993e-21)
(1.0366 0.193606 3.11092e-21)
(1.05037 0.123677 -3.9126e-21)
(1.05154 0.117889 -3.90921e-21)
(1.03432 0.0591068 1.89133e-22)
(1.03632 0.0576893 -6.83274e-22)
(1.03376 0.0569979 7.53263e-22)
(0.994312 0.00884302 7.58618e-21)
(0.994245 0.00926322 0)
(0.993875 0.00900442 0)
(1.25378 0.0526205 -2.44462e-20)
(1.2633 0.0612384 0)
(1.14284 0.141554 6.9938e-21)
(1.14335 0.149 -1.5508e-21)
(1.04512 0.00830411 -4.24873e-21)
(1.04628 0.00774137 0)
(1.04611 0.00885247 6.93603e-22)
(1.08392 0.14686 1.0413e-21)
(1.07697 0.145434 -3.83084e-21)
(1.00155 0.00864285 -4.56089e-21)
(1.00137 0.00852212 -8.49569e-22)
(1.00145 0.00883237 4.19918e-21)
(1.00512 0.0108558 4.83808e-23)
(1.00476 0.0107695 3.07031e-21)
(1.00178 0.00879546 -4.39732e-21)
(1.00167 0.0084087 4.05405e-21)
(0.979126 0.0780179 -1.04632e-20)
(0.980117 0.0813229 -4.96205e-21)
(1.31363 0.238505 2.62097e-20)
(1.29512 0.229313 -1.65362e-20)
(1.29259 0.23976 4.02081e-20)
(1.05534 -0.0160775 -4.58668e-21)
(1.05376 -0.0167722 3.26563e-21)
(1.05394 -0.0150587 -5.38683e-22)
(1.00002 0.000570197 4.09704e-21)