/*--------------------------------*- C++ -*----------------------------------*\
| =========                 |                                                 |
| \\      /  F ield         | OpenFOAM: The Open Source CFD Toolbox           |
|  \\    /   O peration     | Version:  v2012                                 |
|   \\  /    A nd           | Website:  www.openfoam.com                      |
|    \\/     M anipulation  |                                                 |
\*---------------------------------------------------------------------------*/
FoamFile
{
    version     2.0;
    format      ascii;
    class       volScalarField;
    location    "700";
    object      k;
}
// * * * * * * * * * * * * * * * * * * * * * * * * * * * * * * * * * * * * * //

dimensions      [0 2 -2 0 0 0 0];


internalField   nonuniform List<scalar> 
9793
(
0.000149495
0.00955508
0.000147572
0.02837
0.000149708
0.000200618
0.000171312
0.0578583
0.000148769
0.00610279
0.000149253
0.000149187
0.000147278
0.0456006
0.000147242
0.000157291
0.00017076
0.000147506
0.0315596
0.000145063
0.000146056
0.00014994
0.0280734
0.058695
0.046492
0.000154642
0.000148541
0.000149723
0.000145124
0.000173958
0.0193198
0.000225689
0.000147929
0.000147509
0.000146983
0.000158845
0.000154437
0.000153154
0.0379929
0.000160077
0.000171654
0.0336183
0.0582125
0.000149794
0.000147692
0.00014816
0.0320197
0.000149887
0.000147334
0.00014754
0.000158655
0.00014683
0.000165674
0.000149774
0.000158305
0.030385
0.000147322
0.000185067
0.000147334
0.000149938
0.000154876
0.000168914
0.000147601
0.000165635
0.000147559
0.000148527
0.0111676
0.000153143
0.000155242
0.0509288
0.00014824
0.000168846
0.0530335
0.024259
0.0617482
0.000149729
0.00016167
0.0672477
0.000147761
0.000149788
0.000162475
0.0329664
0.000170532
0.000152163
0.000155255
0.000198352
0.00014972
0.000181797
0.0385741
0.000168484
0.0318796
0.000536698
0.000629203
0.000163959
0.0564011
0.000147392
0.0666041
0.000168778
0.000153595
0.000149773
0.0382707
0.00016431
0.0805259
0.000147714
0.0582262
0.0856034
0.0153821
0.000146997
0.000147788
0.00014988
0.000149518
0.0299513
0.000435011
0.0144138
0.000148135
0.000148638
0.000154285
0.000148209
0.0325984
0.000148069
0.0550114
0.000183026
0.0792576
0.000169113
0.000154473
0.00014811
0.000172067
0.0237041
0.000207418
0.000208637
0.000152871
0.000146756
0.000149269
0.000151804
0.00015758
0.000182579
0.000295821
0.000154327
0.00014981
0.000173418
0.0364518
0.000157948
0.000148086
0.00017735
0.0331223
0.000220022
0.000148119
0.0645379
0.000146775
0.000148076
0.000148322
0.0465212
0.000152939
0.000148493
0.000147734
0.000478219
0.000171735
0.000147571
0.000281815
0.000147867
0.000180344
0.00015309
0.000146107
0.000184395
0.000148815
0.0401636
0.0747811
0.000149396
0.000146999
0.000149404
0.000148144
0.0122073
0.038387
0.0486187
0.000147244
0.000198174
0.000174282
0.00020199
0.000147673
0.000153103
0.0628247
0.0277459
0.000185036
0.000148113
0.000148363
0.000146959
0.0768723
0.048554
0.025234
0.0818477
0.000148255
0.0165843
0.000191714
0.000153628
0.000147722
0.000151264
0.00030858
0.000145267
0.000147498
0.000149306
0.00014834
0.000146289
0.000159866
0.000155173
0.0329391
0.000147854
0.000157657
0.000149424
0.000149416
0.00019236
0.000172689
0.0387552
0.00014547
0.046402
0.000152217
0.000172722
0.000147338
0.000182406
0.000148701
0.000162146
0.000169663
0.000146279
0.00024508
0.0548663
0.000163353
0.000147423
0.000173142
0.0612087
0.000162312
0.000162513
0.0349251
0.000198151
0.000171095
0.00016619
0.00018732
0.00014645
0.0278226
0.0172427
0.00014528
0.000149438
0.0197682
0.000147759
0.000149504
0.000189824
0.000191617
0.000148495
0.000153183
0.000158705
0.000160512
0.000153439
0.000147713
0.000163723
0.026679
0.000146181
0.0506998
0.000149727
0.000149061
0.000145758
0.0309704
0.00014777
0.00180194
0.0469802
0.000148572
0.000148773
0.00249109
0.000148145
0.000149566
0.000148151
0.0442682
0.000180416
0.000153212
0.000193452
0.000183264
0.0769876
0.0254322
0.000149453
0.0178999
0.000149742
0.0616456
0.000604105
0.0410531
0.0548043
0.000197051
0.000152993
0.000169146
0.000154537
0.000147957
0.000149842
0.000192642
0.000154776
0.000148835
0.000149882
0.000145463
0.000147021
0.000146188
0.0289379
0.000146952
0.000147154
0.000149044
0.000147284
0.020391
0.000221462
0.000164559
0.000150492
0.000177184
0.000150117
0.00200865
0.0365
0.000147737
0.050883
0.000163988
0.000147665
0.00549599
0.00353966
0.000147978
0.0001642
0.000727017
0.000148885
0.000158354
0.000147165
0.000149146
0.0638621
0.000161043
0.000147551
0.000148023
0.000150264
0.000178271
0.00043639
0.000147586
0.000146964
0.000147217
0.0102195
0.031199
0.0409325
0.000146261
0.000161621
0.000158642
0.000281843
0.000178326
0.000146614
0.000147013
0.000147213
0.000168793
0.000148644
0.0588841
0.00014846
0.000146619
0.0732314
0.0294393
0.0424107
0.000147775
0.03786
0.000153176
0.000416118
0.0611571
0.0341773
0.000151736
0.000160877
0.000330608
0.0325487
0.0304894
0.000154497
0.000149734
0.000153574
0.000147181
0.000146853
0.000148565
0.000148411
0.000149941
0.0646556
0.000149326
0.000171523
0.000159885
0.0205524
0.000146611
0.000152334
0.0213329
0.00019638
0.0494312
0.00017772
0.000146602
0.000151857
0.000147576
0.000212812
0.000144919
0.0417092
0.00017531
0.000171047
0.0365821
0.065105
0.00014882
0.000147377
0.000414081
0.000217069
0.000147841
0.0542693
0.000148776
0.000149098
0.000513366
0.000145458
0.000185055
0.000146468
0.0723295
0.000148501
0.000148865
0.0695273
0.00016821
0.000178639
0.000153687
0.000148363
0.000147259
0.0769426
0.000168165
0.000145666
0.000149235
0.000158832
0.000158675
0.000178637
0.0286496
0.000149244
0.000147493
0.000185582
0.000148411
0.0283718
0.000202124
0.000148308
0.000147957
0.0001497
0.000148667
0.000147156
0.0388299
0.000162589
0.00622977
0.000156243
0.000152369
0.000168969
0.000152879
0.0335238
0.000154347
0.000149767
0.000153202
0.00021321
0.000148092
0.000147894
0.000148236
0.000144944
0.000147736
0.000147272
0.000148165
0.000148967
0.000150534
0.000154442
0.000189773
0.000150083
0.000264656
0.000153901
0.000179679
0.02468
0.000147953
0.0761544
0.000171284
0.000147728
0.000144954
0.00014814
0.0651852
0.000183191
0.000144929
0.000148695
0.000149256
0.000165211
0.000175374
0.0736658
0.000147653
0.000147745
0.00015743
0.0283637
0.0403045
0.000151729
0.000151991
0.0525575
0.0289888
0.000211198
0.00014902
0.000146692
0.0337568
0.000147453
0.0001743
0.0235544
0.00014555
0.000178338
0.000156507
0.0365621
0.000147222
0.0315941
0.00021007
0.000156674
0.001658
0.000147416
0.00027587
0.000148511
0.000147318
0.000149447
0.000147555
0.0549572
0.000147386
0.000147166
0.000150433
0.000146284
0.000146713
0.00016388
0.000150374
0.000164963
0.000148068
0.000148099
0.02353
0.000166045
0.000151653
0.0501943
0.000153782
0.000149037
0.000147798
0.000147165
0.048692
0.000147154
0.00014832
0.0221954
0.0252301
0.000160753
0.000147323
0.000149885
0.000148792
0.000149574
0.0499791
0.000149014
0.0834293
0.000153795
0.000271466
0.000149727
0.0123067
0.000152212
0.000183576
0.000147486
0.000189345
0.0229101
0.000148571
0.0626963
0.000147642
0.000149404
0.000145935
0.07138
0.032769
0.000148166
0.000157396
0.000147182
0.0530714
0.000148793
0.000164073
0.0326741
0.000153474
0.000148015
0.000161672
0.0001496
0.000148965
0.000147281
0.000188665
0.000147509
0.0564969
0.000148198
0.000148693
0.000168871
0.00016659
0.000588323
0.000147052
0.0143627
0.000147362
0.000179941
0.000147709
0.000149302
0.000147434
0.000148182
0.000149771
0.000180753
0.000171157
0.0679558
0.000182048
0.000158804
0.000158827
0.000408955
0.000152316
0.0487597
0.0416703
0.000185926
0.0331939
0.00984662
0.000178546
0.000148977
0.000485315
0.00016874
0.000148978
0.000194534
0.000149643
0.000193249
0.000159814
0.000204214
0.000155301
0.0305274
0.046575
0.000167184
0.000201922
0.000149392
0.00020878
0.000150444
0.000147482
0.0001486
0.00015294
0.000167233
0.0355037
0.000183118
0.043856
0.000151769
0.000151421
0.0367964
0.000187112
0.000151442
0.000175854
0.00014948
0.000480549
0.072517
0.000148263
0.000164634
0.00017981
0.0426234
0.000147521
0.000154009
0.0859479
0.000159289
0.0733815
0.000189707
0.0140243
0.000153987
0.000152535
0.000147921
0.000147715
0.000220223
0.000149887
0.000177114
0.000187052
0.000170126
0.000149707
0.000149447
0.000152932
0.000149369
0.000146687
0.000147762
0.000180057
0.0683673
0.0461587
0.000149851
0.000206378
0.00014748
0.0376173
0.000172663
0.000161734
0.000158494
0.000206109
0.000146158
0.000148258
0.000161004
0.000147474
0.00014862
0.000174183
0.0388882
0.00014629
0.000213454
0.0406037
0.000153695
0.0617082
0.0410385
0.000147383
0.000170428
0.000158109
0.00014823
0.000145834
0.00016873
0.0412708
0.0547335
0.000148178
0.000147987
0.000146102
0.000154951
0.000150403
0.000151918
0.000195778
0.00017271
0.000148922
0.0109534
0.000159936
0.00015823
0.000148462
0.00617453
0.000152704
0.000147241
0.000170558
0.000322781
0.000145856
0.00014821
0.000147589
0.000155896
0.000146132
0.000167572
0.000297249
0.000148933
0.000188764
0.000150985
0.000148275
0.00100879
0.0352659
0.000225706
0.000148364
0.000146074
0.0342081
0.000153934
0.00148324
0.000145619
0.000147675
0.0172606
0.0836091
0.000159087
0.000187077
0.000164536
0.000147409
0.000149794
0.000148074
0.0481465
0.000148235
0.000149947
0.0335356
0.000155194
0.000206549
0.000157899
0.000147384
0.0332188
0.00014977
0.000147659
0.000148037
0.000157239
0.0257135
0.000149001
0.000147737
0.000147482
0.000147406
0.000147425
0.000148011
0.0432472
0.000157704
0.000150333
0.00014862
0.000157721
0.000172418
0.000157274
0.000155821
0.000149883
0.000146047
0.000151277
0.0303742
0.0634302
0.000152102
0.0513693
0.000149386
0.000153568
0.000209916
0.00032905
0.000147202
0.000149136
0.000185558
0.000173261
0.000147166
0.00014963
0.0563825
0.000149768
0.000171259
0.000147921
0.000204606
0.000149622
0.000152568
0.000148742
0.000158975
0.00014919
0.00015276
0.000154241
0.000174003
0.000146923
0.000147807
0.000149634
0.000147305
0.000148882
0.000148497
0.000160089
0.000148629
0.000174949
0.0514649
0.000167552
0.000174552
0.00014929
0.000147283
0.0157947
0.0652657
0.000145736
0.0589184
0.0199058
0.000146138
0.000147712
0.000147131
0.000173907
0.000175742
0.000332408
0.000146883
0.000153765
0.000146868
0.000149261
0.000152217
0.000170375
0.000148802
0.00019872
0.000148496
0.000164608
0.000147105
0.000150903
0.00014773
0.000169246
0.000164331
0.0248117
0.0761966
0.0583345
0.000171582
0.000147719
0.000317912
0.000443393
0.000178554
0.00014852
0.000148438
0.00029945
0.000147104
0.0264208
0.00014663
0.000160535
0.000149095
0.00014978
0.000147236
0.0374215
0.0498844
0.0272851
0.000165767
0.0213355
0.000147586
0.0608285
0.0873254
0.000149785
0.000148628
0.000146082
0.00319247
0.000145415
0.0620237
0.000157757
0.00019141
0.000149118
0.000202073
0.0256712
0.000283049
0.000156657
0.000161302
0.000148116
0.0550834
0.000145422
0.000199499
0.00020285
0.000165394
0.0788194
0.0526203
0.000152784
0.000151389
0.000147461
0.000192106
0.0605012
0.0167741
0.000146161
0.000419241
0.000156654
0.000191552
0.000170772
0.0397408
0.0406055
0.000147036
0.000154193
0.000161103
0.000153758
0.000153463
0.0663785
0.000149255
0.0826956
0.000148045
0.000146836
0.000171552
0.000188753
0.00198839
0.000150102
0.0288176
0.0345928
0.000203328
0.000154755
0.000149511
0.0001501
0.000149467
0.000147806
0.000221076
0.00111036
0.000148841
0.000147757
0.0001625
0.0002747
0.000154604
0.000147661
0.000192546
0.000147556
0.000149818
0.000145553
0.000178925
0.000148071
0.000154999
0.0238296
0.000171858
0.000152623
0.000484513
0.000171356
0.000147535
0.000151565
0.000162832
0.000149724
0.00014758
0.000146886
0.0650026
0.000463104
0.000149008
0.000163998
0.000159146
0.000210562
0.000148045
0.0588936
0.000146898
0.000146209
0.000205684
0.000209846
0.000176901
0.000148499
0.000147201
0.032969
0.0395687
0.000194859
0.000326242
0.000148567
0.000153297
0.000147961
0.0131348
0.000152411
0.00163285
0.000150158
0.00014798
0.00015283
0.000146648
0.000146974
0.000165509
0.000146565
0.0614423
0.000148103
0.000148997
0.000145797
0.00015498
0.048166
0.027658
0.000175945
0.0259671
0.000147686
0.000159844
0.000152015
0.0536084
0.000148145
0.00014686
0.0814724
0.00015896
0.000157901
0.000148633
0.000207346
0.0338801
0.0431921
0.000148844
0.000158535
0.000213694
0.000162513
0.00034321
0.000186126
0.000171639
0.000147138
0.000149911
0.000178892
0.000166682
0.000147736
0.000192425
0.000146131
0.000149153
0.00014918
0.000146952
0.000147715
0.000147838
0.000209536
0.000154518
0.000150758
0.000163815
0.000146439
0.000147631
0.000162178
0.0481564
0.000166918
0.000169526
0.0568361
0.00014952
0.0663959
0.000156911
0.0157428
0.000165449
0.000149288
0.000148701
0.000152062
0.0535505
0.000290734
0.000165134
0.000175474
0.000145961
0.000147918
0.000149626
0.000149283
0.0203782
0.000155103
0.000148179
0.000193197
0.000181764
0.0748314
0.000150312
0.0803746
0.000163343
0.000167497
0.000163049
0.000189608
0.00018635
0.000149075
0.0416331
0.000213684
0.000159952
0.0420921
0.000170482
0.000149115
0.000149735
0.000147686
0.000150883
0.000154968
0.0212914
0.000173397
0.000146962
0.000215554
0.000147849
0.0226104
0.000450363
0.000147524
0.0319053
0.000147913
0.000147017
0.00014874
0.0397398
0.0515659
0.000173455
0.000157223
0.000147368
0.000214976
0.000149497
0.000158887
0.000148479
0.000148828
0.00014796
0.0742616
0.00015035
0.000160773
0.000156733
0.000149359
0.000185117
0.000180718
0.0001649
0.000153701
0.000152609
0.0330981
0.0713014
0.00014837
0.000146955
0.000148375
0.000149932
0.0383644
0.0643593
0.000193539
0.000154016
0.000146655
0.0891343
0.0301721
0.000148997
0.045385
0.000146138
0.000176458
0.0124017
0.000146325
0.0311369
0.0607944
0.000180283
0.0236193
0.0737145
0.000147461
0.000150113
0.000305366
0.0360791
0.000149865
0.0314097
0.000153832
0.000147678
0.00014981
0.00015162
0.000167528
0.000154355
0.000183592
0.023705
0.000179096
0.000158453
0.000148392
0.000167253
0.000316127
0.000146865
0.000461463
0.000165719
0.000149419
0.000152911
0.000149575
0.000149021
0.000157421
0.000310689
0.000150081
0.000146511
0.0301591
0.0407426
0.000181192
0.000149722
0.000170141
0.000147636
0.000147333
0.0723681
0.0167288
0.000147266
0.000144436
0.0580015
0.0223279
0.000166061
0.00014918
0.0864128
0.00015053
0.000147324
0.00015358
0.000147342
0.000145909
0.000145397
0.0782099
0.000220429
0.000154278
0.000248249
0.000171297
0.0389419
0.0831215
0.0413735
0.000196652
0.000148004
0.000149558
0.000149445
0.000147769
0.000166433
0.000147031
0.000169382
0.000158731
0.00186198
0.000148165
0.03392
0.000159201
0.0489752
0.000147293
0.000273495
0.000161022
0.00019917
0.000206094
0.0001592
0.000145371
0.0904174
0.000172681
0.000321177
0.000145652
0.0739825
0.000148021
0.0501071
0.000215604
0.000161095
0.000147605
0.000148475
0.0477874
0.0278398
0.000162436
0.000146431
0.000550795
0.000170475
0.000169631
0.0831647
0.000166923
0.000148017
0.0782712
0.00014769
0.000163698
0.000146512
0.0273364
0.000146505
0.000152959
0.000218068
0.000431529
0.000149433
0.000171647
0.000153959
0.000167007
0.000147016
0.000193141
0.000151374
0.000165641
0.000148092
0.000147717
0.0314082
0.000159221
0.0541819
0.061952
0.020528
0.000150203
0.000146551
0.000146982
0.000155028
0.000165349
0.000160976
0.0212023
0.000151932
0.000188662
0.000161429
0.000149862
0.000148047
0.00018117
0.000241075
0.0144415
0.000147691
0.0345399
0.000146891
0.0735238
0.000265094
0.000171664
0.000147869
0.000146841
0.000165771
0.000628553
0.000152831
0.000149774
0.000153259
0.000169907
0.000151338
0.000257686
0.031051
0.000477016
0.000148953
0.000155878
0.0859154
0.00014918
0.000164201
0.00014734
0.000188689
0.000159896
0.000147641
0.000161752
0.000175224
0.000148486
0.0670319
0.00014763
0.000191135
0.000181155
0.000257891
0.000184469
0.000149031
0.000149033
0.0301324
0.000148885
0.00016108
0.000183396
0.000151917
0.000145364
0.0735683
0.000153127
0.000190594
0.000152607
0.000165281
0.000149825
0.000188301
0.000153494
0.000153584
0.0717593
0.000225047
0.000148463
0.000149805
0.000175466
0.043046
0.000290346
0.000207776
0.000160495
0.000147679
0.000146991
0.042227
0.000148823
0.0742914
0.000173974
0.0682637
0.000148597
0.000146168
0.00014654
0.000167236
0.000174817
0.000419341
0.0415195
0.000221409
0.000205905
0.000145216
0.000343343
0.000150751
0.000180849
0.000150947
0.000166047
0.000164136
0.000147636
0.000145144
0.000179986
0.000145692
0.000162828
0.000165569
0.0263552
0.0661452
0.000168529
0.0404404
0.000146949
0.000146522
0.000148358
0.000175982
0.000164457
0.000166709
0.000177108
0.00325207
0.000160611
0.000174603
0.000147365
0.000151534
0.0434315
0.000147952
0.000181875
0.000144371
0.000147471
0.05256
0.000184795
0.000147595
0.00017428
0.000196663
0.0529663
0.0722315
0.000153709
0.000182569
0.000174201
0.0048568
0.000148531
0.0730792
0.036596
0.000151728
0.000156639
0.000145628
0.000192766
0.000147553
0.000147798
0.0406723
0.000149073
0.000145383
0.000191174
0.000179578
0.0401335
0.0400613
0.000418986
0.0312461
0.000146853
0.000147704
0.000147618
0.000149314
0.0282548
0.000148578
0.0331796
0.000150737
0.0508989
0.00015266
0.000148802
0.000145752
0.000149103
0.000157156
0.000148453
0.000145234
0.000226091
0.000146943
0.000175901
0.000149696
0.020482
0.000152728
0.000148405
0.000148512
0.000172137
0.00014718
0.000146242
0.000148461
0.00014938
0.000154557
0.000147513
0.000151403
0.000157334
0.0782475
0.0494423
0.0439988
0.0280195
0.000146489
0.000147857
0.000147706
0.000144072
0.000147615
0.000146292
0.000214088
0.000147416
0.00014965
0.000148318
0.000148134
0.00014802
0.0587464
0.000153932
0.000147624
0.0500717
0.000170828
0.000145935
0.0482329
0.0260838
0.000147961
0.000198745
0.000207005
0.000148505
0.000161611
0.000152067
0.000144935
0.000155623
0.000151081
0.000170208
0.000147911
0.000149621
0.000146393
0.01098
0.000159724
0.000161616
0.000148055
0.00014975
0.0553784
0.000153974
0.000148078
0.000152189
0.000152789
0.000149653
0.000179149
0.024291
0.000335766
0.0381151
0.000177993
0.000159936
0.000149709
0.0331987
0.000184846
0.000150269
0.000174375
0.00014995
0.000147627
0.000149613
0.0760173
0.000162374
0.000147809
0.000148124
0.00019842
0.000146242
0.000193767
0.000148181
0.000274716
0.000203339
0.00424316
0.000148409
0.00015104
0.000157529
0.000159436
0.000149142
0.000160249
0.000167416
0.00522179
0.000150148
0.00019195
0.0880888
0.000145478
0.0410348
0.000161231
0.000184106
0.000177145
0.000147631
0.000156078
0.000168477
0.000145769
0.000154284
0.000144858
0.0111918
0.000392662
0.000158216
0.000146658
0.000184591
0.00016609
0.000344184
0.000181363
0.000151363
0.000158847
0.000147639
0.000148022
0.000168283
0.000162932
0.0430031
0.000146909
0.00019036
0.000155462
0.0656018
0.000189241
0.0583291
0.000145191
0.000150605
0.000314886
0.000277738
0.000161125
0.0308816
0.000151328
0.00017828
0.000147223
0.000147466
0.0284099
0.000276869
0.000154991
0.000148502
0.00016641
0.000298849
0.000175938
0.00016518
0.00014653
0.000147919
0.000145962
0.000330241
0.0437377
0.000146885
0.00017146
0.0499114
0.000174045
0.000190235
0.0339045
0.0166815
0.0656025
0.000147046
0.000151121
0.0345583
0.000147192
0.000162377
0.000258733
0.0528832
0.000151306
0.000156846
0.0221426
0.000205163
0.000286861
0.0659538
0.039406
0.0393844
0.000148626
0.000145691
0.000147835
0.000150344
0.0209265
0.00016327
0.000186674
0.000190784
0.000163709
0.00014803
0.000210988
0.000146854
0.000161142
0.000147284
0.000160534
0.015467
0.00108439
0.000148336
0.000145551
0.000169189
0.0250798
0.000186853
0.0488778
0.000161445
0.000148548
0.000166661
0.000144395
0.000168121
0.000157605
0.000147729
0.0212443
0.000174402
0.00021128
0.000166985
0.000149105
0.000145855
0.00506952
0.000153414
0.00014558
0.000148873
0.000149681
0.000145725
0.00949929
0.0351579
0.0308736
0.000262591
0.0409815
0.000153602
0.000147619
0.0776851
0.000153728
0.000190201
0.0605387
0.000146907
0.066109
0.0269413
0.00016979
0.000158317
0.000206487
0.000150937
0.000289744
0.000161589
0.0305382
0.000147012
0.000150487
0.000161164
0.000445382
0.000183392
0.000165507
0.0307445
0.0651095
0.000165593
0.000194929
0.000418211
0.000152869
0.000186563
0.0148463
0.000160095
0.000164573
0.0637858
0.000163066
0.000159971
0.000148572
0.000165684
0.00016764
0.000167027
0.000148458
0.0670633
0.000173668
0.0313789
0.0253515
0.029737
0.000160675
0.000265228
0.070794
0.000146785
0.000337789
0.0815367
0.0231358
0.000156032
0.000152417
0.0391007
0.0257333
0.000145701
0.000179071
0.000146198
0.00014722
0.00045733
0.000153613
0.0301538
0.0415813
0.0336579
0.0427426
0.000145359
0.000164647
0.000148207
0.000146762
0.00016963
0.000173812
0.00015651
0.000365363
0.0328964
0.000149807
0.000156211
0.000248438
0.000152136
0.000191226
0.000161986
0.0369374
0.0377251
0.000232907
0.0801662
0.0182738
0.0323828
0.0385941
0.0327137
0.000162715
0.000153362
0.000171792
0.000171638
0.0488798
0.0350152
0.000148781
0.000156279
0.0424194
0.0296182
0.000154557
0.0340128
0.000147917
0.000217229
0.0728458
0.0602977
0.00014729
0.0323002
0.00026359
0.00015533
0.000159212
0.0657862
0.0623077
0.0404009
0.0505134
0.000148304
0.00992532
0.0347544
0.000160386
0.000183129
0.000169253
0.000146067
0.000156136
0.0255649
0.0446766
0.000153452
0.00014907
0.0373826
0.000167071
0.0318699
0.000171319
0.000284653
0.0396385
0.000147838
0.0701693
0.000149891
0.000161635
0.000148607
0.000148741
0.000145846
0.000161706
0.000182695
0.000144478
0.0123937
0.000184854
0.00937003
0.0533278
0.0313545
0.000147193
0.0710254
0.000269093
0.0317777
0.000159217
0.000147642
0.00236898
0.000211302
0.0434199
0.000163365
0.000151416
0.000145741
0.00421131
0.0179856
0.000158691
0.0109824
0.000157229
0.000148956
0.0385512
0.000163085
0.0339669
0.000147874
0.000160864
0.0334921
0.0403168
0.0364928
0.0002067
0.037314
0.0340129
0.00673518
0.000148169
0.0214812
0.000162894
0.000147296
0.000145295
0.000147989
0.0199532
0.000162281
0.0381421
0.0354045
0.000167489
0.000172987
0.000188413
0.0277205
0.000180246
0.0641218
0.0336697
0.000256507
0.000168217
0.000146159
0.000329816
0.000163746
0.000195433
0.0381087
0.0472768
0.000280388
0.000148514
0.000152794
0.000162157
0.000148249
0.000148076
0.000156875
0.0391183
0.000159926
0.000155656
0.0367375
0.000184969
0.000216236
0.00231767
0.0408868
0.000211609
0.0429469
0.0329766
0.0294981
0.000164677
0.000160951
0.000148743
0.000255489
0.000176872
0.000203128
0.000164504
0.000164093
0.000144052
0.000195667
0.0619564
0.000157409
0.000145117
0.000151465
0.00284832
0.000147037
0.000148025
0.000169144
0.0354861
0.000159725
0.000163371
0.000176314
0.000156919
0.000177732
0.00014764
0.000147711
0.000163809
0.000204389
0.000149141
0.000159166
0.000180789
0.0542278
0.000148794
0.0856121
0.000148079
0.0402687
0.000151087
0.000151288
0.00014493
0.000189271
0.000165341
0.0143009
0.0558043
0.000164931
0.000148997
0.000148335
0.0735986
0.00191641
0.00014787
0.000187028
0.0347026
0.000167992
0.000166123
0.000144089
0.00015009
0.000147588
0.0392572
0.000165542
0.000148183
0.0652865
0.000149409
0.000163901
0.000210249
0.000146079
0.000168763
0.000169536
0.059414
0.000149539
0.000154295
0.000151288
0.00016807
0.000143837
0.000147354
0.0646986
0.000209817
0.000173834
0.00014968
0.0404572
0.000149458
0.000149427
0.00014752
0.000212577
0.0657226
0.000152143
0.0873475
0.000542118
0.000169234
0.0271746
0.004594
0.0395079
0.0143066
0.000175754
0.000180633
0.000195606
0.000166662
0.00014747
0.000156671
0.000160349
0.0655413
0.000148393
0.0525791
0.000147767
0.000190512
0.00017427
0.000150351
0.000159022
0.0129604
0.0207202
0.02217
0.033999
0.000146609
0.000183554
0.045537
0.000155972
0.0461372
0.000160446
0.000169272
0.0392025
0.000165315
0.000147772
0.000180559
0.000184635
0.000147757
0.0359466
0.000230613
0.000145966
0.000149564
0.000148702
0.00014789
0.0490784
0.000148612
0.000166608
0.000148
0.000149749
0.000157692
0.000147611
0.0398985
0.000176649
0.000148799
0.00014564
0.000182991
0.000151618
0.000163193
0.0127342
0.0339826
0.000165679
0.000179256
0.000160395
0.000145279
0.000189219
0.06758
0.000161082
0.0365682
0.0305356
0.000165844
0.000162021
0.00015916
0.000171825
0.000160034
0.0652531
0.000148644
0.000148819
0.000147883
0.0446052
0.0349423
0.000159488
0.00019361
0.000147742
0.000157437
0.000190852
0.000208096
0.000147942
0.000166899
0.0388475
0.000167471
0.00014783
0.000147974
0.0505726
0.0239951
0.000147608
0.000226243
0.00016169
0.000199042
0.00021883
0.000147008
0.0271598
0.000159889
0.000148001
0.0704834
0.000198506
0.000147569
0.000148999
0.00020958
0.000146923
0.00014812
0.000201848
0.000160721
0.000161549
0.0289148
0.00015438
0.000171338
0.0386287
0.00014761
0.0606595
0.05055
0.000154228
0.000179572
0.000198221
0.000148103
0.000193349
0.000144249
0.064396
0.000259635
0.000147846
0.0119784
0.0819422
0.000148041
0.00014792
0.000202302
0.000168492
0.0327973
0.0334846
0.000148517
0.000165333
0.0299725
0.000150517
0.000172973
0.000182165
0.000158718
0.0774587
0.000202443
0.000152342
0.0002012
0.00761507
0.000161306
0.0660109
0.000147216
0.000144874
0.000149765
0.000160671
0.0745819
0.000148296
0.000164378
0.0161543
0.0286391
0.000149405
0.000157834
0.000291067
0.0415298
0.000149456
0.0669093
0.000162525
0.000173921
0.000163677
0.000150847
0.000155239
0.000148141
0.000147683
0.0574876
0.000147349
0.000162673
0.000147757
0.0674785
0.000152333
0.000153541
0.000145264
0.000152389
0.000147707
0.000165687
0.0193624
0.000452917
0.000162219
0.000160732
0.00014759
0.000157385
0.000170883
0.0698496
0.0390615
0.000146683
0.00039431
0.000148021
0.00033215
0.0373034
0.0267376
0.000146694
0.00017111
0.000179408
0.0614575
0.000179247
0.000147441
0.075489
0.000184048
0.000159579
0.00201418
0.000149
0.000148214
0.000160244
0.0673434
0.000147828
0.0387091
0.000158399
0.000874969
0.000167413
0.000153913
0.0665575
0.000156312
0.000148743
0.000211561
0.000147967
0.000337012
0.0699843
0.000196815
0.000155222
0.000172743
0.000147905
0.000176859
0.000165643
0.0512394
0.000148363
0.000146226
0.000155214
0.000157722
0.000169951
0.0509932
0.0273564
0.000158986
0.000178038
0.000147035
0.0460257
0.00863692
0.000180834
0.000147765
0.000149714
0.000152034
0.0739498
0.000148525
0.000156223
0.0676956
0.00018331
0.000148212
0.000179935
0.000181365
0.000147788
0.000153687
0.000180192
0.000275894
0.000168876
0.000164336
0.0423849
0.0407033
0.000241762
0.000154978
0.000148705
0.000152808
0.000152839
0.000183966
0.000172397
0.000157869
0.000181208
0.0711996
0.000152166
0.000147863
0.0314246
0.000182444
0.0319965
0.000200572
0.000154169
0.000151692
0.000151642
0.000146862
0.000147764
0.000169786
0.000145316
0.000150492
0.0001494
0.000150565
0.000151542
0.000147625
0.00015988
0.000166884
0.000148597
0.000147619
0.000148687
0.00015014
0.000149296
0.000179535
0.000148265
0.00015126
0.000256382
0.000146747
0.000151036
0.000149076
0.000157278
0.0308667
0.0629672
0.0287694
0.0634228
0.0796619
0.000201695
0.000147219
0.000169723
0.000148297
0.000324379
0.000151836
0.000156608
0.000148878
0.000172473
0.000147579
0.000160575
0.000146567
0.0664611
0.000188057
0.000148392
0.0636076
0.07725
0.000148914
0.000190343
0.000147575
0.000145494
0.0103381
0.000148708
0.000171667
0.000192779
0.000148586
0.000145223
0.000173818
0.0336161
0.000153194
0.000151865
0.0338432
0.000147504
0.0273007
0.000170816
0.0205515
0.000145845
0.0350968
0.000147937
0.000148877
0.000205753
0.000174165
0.0344013
0.033337
0.0178753
0.0724045
0.000205766
0.000180555
0.000148156
0.000198457
0.000148575
0.000146664
0.000167914
0.000147359
0.000147791
0.000145504
0.000145293
0.000177676
0.0350685
0.0351727
0.000207158
0.0459778
0.000152032
0.000156783
0.000150781
0.000150232
0.000179706
0.000148458
0.000147549
0.000146826
0.00015223
0.000150858
0.00017625
0.000187307
0.000166989
0.000148611
0.000163132
0.000163379
0.0339654
0.0318921
0.00015356
0.000167056
0.000148471
0.0590469
0.0399944
0.000147582
0.000147358
0.000152933
0.000149368
0.000180299
0.00021268
0.0421192
0.000148738
0.0517666
0.000148666
0.0278093
0.000170453
0.000146553
0.000156605
0.00327748
0.000154797
0.000156662
0.000160423
0.000176342
0.0733495
0.000147757
0.000147235
0.000155697
0.000212791
0.000147623
0.030827
0.027363
0.000148085
0.000143994
0.0133598
0.000181534
0.000147778
0.0032094
0.0126676
0.0658858
0.0133869
0.00015817
0.000283921
0.000148337
0.0380644
0.0795484
0.000209905
0.000181527
0.000152104
0.0309927
0.000153406
0.000147007
0.000144047
0.000221551
0.000145605
0.00609161
0.000150701
0.000148856
0.00015324
0.0361042
0.000152104
0.000150273
0.000148354
0.0707075
0.0238852
0.0536457
0.0416451
0.0001706
0.000147844
0.000152209
0.000216903
0.00016967
0.00014779
0.000174122
0.000216399
0.00852728
0.000148033
0.0272926
0.036459
0.000167839
0.000148277
0.000152093
0.000147639
0.000147001
0.000147618
0.000148064
0.000149558
0.000168258
0.000148514
0.0001948
0.000149837
0.000150079
0.0243482
0.000183546
0.000152604
0.000150252
0.0306992
0.000145483
0.000157361
0.000154625
0.000146583
0.000736938
0.000161611
0.000150182
0.000161143
0.000148084
0.000156946
0.000148236
0.000193454
0.000146783
0.000147888
0.0537586
0.000152644
0.000199941
0.000162285
0.000151736
0.000185152
0.000143838
0.000148459
0.000149982
0.0614118
0.000152791
0.000147716
0.00029892
0.000148268
0.000145559
0.000147021
0.000231912
0.000157636
0.000197254
0.000158067
0.000156958
0.000162268
0.000152101
0.000155547
0.000161852
0.0293687
0.000149129
0.000156577
0.00014726
0.000181946
0.000201016
0.000147152
0.000159853
0.0730091
0.000156529
0.000145231
0.0654282
0.000154377
0.000167295
0.0292804
0.000158835
0.000147839
0.000157837
0.00014771
0.000153947
0.000147178
0.000151207
0.000154473
0.000147609
0.000148314
0.000157442
0.00014887
0.000179051
0.000147833
0.000151677
0.000148012
0.000160602
0.0347915
0.000148566
0.000148204
0.000168168
0.000151838
0.000148067
0.000211306
0.0732263
0.0271345
0.000148549
0.0001529
0.000165348
0.0001496
0.000148729
0.00016312
0.000176711
0.000144737
0.000162944
0.00014808
0.000147168
0.000147141
0.000144759
0.000150822
0.000165877
0.000163157
0.000156935
0.0334082
0.000152756
0.000156078
0.00014676
0.0552421
0.0010921
0.0696442
0.000148476
0.000169154
0.000156929
0.000148403
0.000148691