/*--------------------------------*- C++ -*----------------------------------*\
| =========                 |                                                 |
| \\      /  F ield         | OpenFOAM: The Open Source CFD Toolbox           |
|  \\    /   O peration     | Version:  v2012                                 |
|   \\  /    A nd           | Website:  www.openfoam.com                      |
|    \\/     M anipulation  |                                                 |
\*---------------------------------------------------------------------------*/
FoamFile
{
    version     2.0;
    format      ascii;
    class       volScalarField;
    location    "700";
    object      k_0;
}
// * * * * * * * * * * * * * * * * * * * * * * * * * * * * * * * * * * * * * //

dimensions      [0 2 -2 0 0 0 0];


internalField   nonuniform List<scalar> 
9793
(
0.000149494
0.00957641
0.000147573
0.0283727
0.000149708
0.000200561
0.000171317
0.0577824
0.000148768
0.0060628
0.000149253
0.000149187
0.000147278
0.0455884
0.000147241
0.000157294
0.000170762
0.000147507
0.0315664
0.000145063
0.000146057
0.00014994
0.0280706
0.0586238
0.0464765
0.000154641
0.000148541
0.000149723
0.000145124
0.000173955
0.0193071
0.000225935
0.00014793
0.00014751
0.000146984
0.000158843
0.000154441
0.000153154
0.0380113
0.000160074
0.000171652
0.0334912
0.0581343
0.000149794
0.000147692
0.00014816
0.0319756
0.000149887
0.000147336
0.000147541
0.000158654
0.00014683
0.00016567
0.000149774
0.000158304
0.0303881
0.000147322
0.000185054
0.000147336
0.000149938
0.000154876
0.000168919
0.000147601
0.000165631
0.000147559
0.000148525
0.0111419
0.000153142
0.000155245
0.0509178
0.00014824
0.000168847
0.0529531
0.0247026
0.0617179
0.000149729
0.000161672
0.0670314
0.000147761
0.000149788
0.000162476
0.0329743
0.000170532
0.000152161
0.000155259
0.000198341
0.00014972
0.000181783
0.0385921
0.000168482
0.0318776
0.000597346
0.000667217
0.00016396
0.0563374
0.000147393
0.0665534
0.000168781
0.000153593
0.000149773
0.0382706
0.000164306
0.0805901
0.000147714
0.0582365
0.0854635
0.0156863
0.000146997
0.000147788
0.00014988
0.000149518
0.0299484
0.00043501
0.014413
0.000148135
0.000148638
0.000154291
0.00014821
0.0326029
0.000148069
0.0550335
0.000183012
0.0791703
0.000169107
0.000154476
0.00014811
0.000172068
0.0236861
0.000207387
0.000208594
0.000152873
0.000146756
0.000149269
0.000151804
0.000157579
0.000182581
0.000297554
0.000154333
0.00014981
0.000173418
0.036458
0.000157947
0.000148086
0.000177338
0.0330822
0.000219444
0.000148119
0.0644908
0.000146775
0.000148076
0.000148322
0.0465264
0.000152938
0.000148493
0.000147735
0.000499299
0.000171735
0.000147571
0.000280977
0.000147867
0.00018033
0.000153092
0.000146107
0.000184359
0.000148816
0.0399652
0.0747997
0.000149397
0.000146999
0.000149404
0.000148144
0.0122044
0.0383151
0.0486419
0.000147244
0.000198135
0.00017428
0.000201914
0.000147673
0.000153102
0.0628195
0.0277079
0.000185021
0.000148113
0.000148364
0.00014696
0.0768046
0.0484825
0.0249715
0.0819455
0.000148254
0.0165714
0.000191728
0.000153627
0.000147725
0.000151263
0.000308503
0.000145266
0.000147499
0.000149306
0.00014834
0.00014629
0.000159865
0.000155175
0.0329531
0.000147854
0.000157654
0.000149426
0.000149415
0.00019236
0.000172689
0.0387614
0.00014547
0.0464002
0.000152216
0.000172708
0.000147338
0.000182406
0.000148701
0.000162143
0.000169665
0.00014628
0.000245046
0.0548904
0.000163354
0.000147424
0.000173137
0.0612338
0.00016231
0.000162522
0.0349356
0.000198136
0.000171085
0.000166185
0.00018736
0.000146452
0.0278394
0.0172387
0.000145279
0.000149438
0.019693
0.00014776
0.000149504
0.00018981
0.000191604
0.000148494
0.000153183
0.000158702
0.000160511
0.00015344
0.000147713
0.000163723
0.0266907
0.000146182
0.0507229
0.000149727
0.000149061
0.000145758
0.0309742
0.00014777
0.00168177
0.046993
0.000148572
0.000148773
0.00246129
0.000148147
0.000149566
0.000148152
0.0442837
0.000180408
0.00015321
0.000193321
0.000183254
0.0770241
0.0254271
0.000149454
0.0178898
0.000149742
0.0616697
0.000606055
0.0410682
0.0548248
0.000197038
0.000152995
0.000169148
0.000154539
0.00014796
0.000149844
0.000192774
0.000154775
0.000148835
0.000149882
0.000145463
0.00014702
0.000146189
0.0289337
0.000146952
0.000147153
0.000149042
0.000147284
0.0204012
0.000220101
0.00016456
0.000150492
0.000177173
0.000150115
0.00205307
0.0365041
0.000147737
0.0508869
0.000163985
0.000147665
0.00549992
0.00361827
0.000147978
0.000164199
0.000724495
0.000148884
0.000158354
0.000147164
0.000149145
0.0638855
0.000161042
0.000147551
0.000148023
0.000150264
0.000178251
0.000436434
0.000147586
0.000146964
0.000147217
0.010217
0.0312044
0.040928
0.000146263
0.000161618
0.000158641
0.000281018
0.000178319
0.000146616
0.000147015
0.000147214
0.000168793
0.000148643
0.0588696
0.00014846
0.000146619
0.0732722
0.0294357
0.0424183
0.000147774
0.0378616
0.000153174
0.000415339
0.06112
0.0341883
0.000151734
0.000160876
0.000328823
0.0325452
0.0304876
0.000154497
0.000149734
0.000153573
0.000147182
0.000146854
0.000148563
0.000148411
0.000149941
0.0646512
0.000149326
0.000171522
0.000159882
0.0206368
0.000146613
0.000152332
0.0213437
0.000196328
0.0494241
0.000177714
0.000146603
0.000151855
0.000147576
0.000213239
0.000144919
0.0417201
0.000175285
0.000171053
0.03657
0.0651311
0.00014882
0.000147378
0.000412804
0.000217362
0.000147841
0.0542278
0.000148776
0.000149098
0.000507383
0.000145457
0.000185043
0.000146469
0.0723471
0.000148501
0.000148867
0.0695629
0.000168207
0.000178619
0.000153687
0.000148363
0.000147259
0.0768585
0.000168165
0.000145667
0.000149235
0.000158831
0.000158673
0.000178616
0.0286212
0.000149244
0.000147494
0.000186186
0.000148411
0.0283834
0.000202062
0.000148308
0.000147957
0.000149702
0.000148667
0.000147156
0.038831
0.000162587
0.00618331
0.000156244
0.000152374
0.000168964
0.000152879
0.0335275
0.000154347
0.000149767
0.000153202
0.000213272
0.000148092
0.000147894
0.000148236
0.000144944
0.000147736
0.000147271
0.000148165
0.000148967
0.000150533
0.000154444
0.000189759
0.000150082
0.000264614
0.0001539
0.000179707
0.0246772
0.000147955
0.0762003
0.000171282
0.00014773
0.000144954
0.00014814
0.0651916
0.00018318
0.000144928
0.000148695
0.000149256
0.000165211
0.00017536
0.0734636
0.000147653
0.000147745
0.00015743
0.0283214
0.0403175
0.000151728
0.000151993
0.0525825
0.0287444
0.000211185
0.000149019
0.000146692
0.033772
0.000147454
0.000174293
0.0236564
0.00014555
0.000178383
0.000156505
0.0365609
0.000147222
0.0316049
0.000209394
0.000156677
0.0016182
0.000147417
0.000275698
0.000148511
0.000147319
0.000149447
0.000147556
0.0549527
0.000147387
0.000147167
0.000150432
0.000146286
0.000146713
0.000163881
0.000150372
0.000164959
0.000148068
0.000148099
0.0235405
0.000166045
0.000151652
0.0502189
0.000153783
0.000149035
0.000147798
0.000147165
0.0486977
0.000147155
0.00014832
0.0221639
0.0250965
0.000160752
0.000147323
0.000149885
0.000148792
0.000149574
0.0499977
0.000149013
0.0835989
0.000153798
0.000271547
0.000149727
0.012281
0.000152214
0.000183571
0.000147486
0.000189323
0.022923
0.000148571
0.0626536
0.000147642
0.000149404
0.000145935
0.0713477
0.0327819
0.000148166
0.000157393
0.000147184
0.0530943
0.000148792
0.000164073
0.0326859
0.000153474
0.000148015
0.000161671
0.0001496
0.000148965
0.000147281
0.000188652
0.000147509
0.0565233
0.000148198
0.000148692
0.000168864
0.00016659
0.000590556
0.000147052
0.0143334
0.000147363
0.000179926
0.000147709
0.000149304
0.000147435
0.000148182
0.000149771
0.000180764
0.000171147
0.0678856
0.000182039
0.000158803
0.000158827
0.000411926
0.000152316
0.0487758
0.0416514
0.000185944
0.03295
0.00990081
0.000178527
0.000148977
0.000485317
0.000168734
0.000148979
0.000194653
0.000149643
0.000193101
0.000159814
0.000204182
0.000155302
0.0305229
0.0465412
0.000167179
0.000201898
0.000149392
0.00020872
0.000150444
0.000147483
0.000148599
0.000152947
0.000167236
0.0355152
0.000183247
0.0438037
0.000151768
0.00015142
0.0367936
0.000187106
0.000151444
0.00017585
0.000149479
0.000481549
0.0725533
0.000148263
0.000164634
0.000179627
0.0426194
0.000147521
0.000154008
0.085832
0.000159288
0.0733392
0.000189689
0.0140903
0.000153986
0.000152535
0.00014792
0.000147715
0.000220184
0.000149887
0.000176102
0.000187035
0.000170128
0.000149707
0.000149447
0.000152937
0.000149373
0.000146688
0.000147762
0.00018005
0.0683717
0.0461411
0.000149851
0.00020603
0.00014748
0.0375995
0.000172653
0.00016173
0.000158494
0.00020628
0.000146159
0.000148258
0.000161003
0.000147475
0.00014862
0.000174179
0.0388782
0.000146291
0.000213291
0.0406232
0.000153695
0.0617314
0.0410605
0.000147382
0.000170431
0.000158111
0.000148228
0.000145834
0.000168734
0.041289
0.0546387
0.000148178
0.000147987
0.000146102
0.000154958
0.000150401
0.000151916
0.000195835
0.0001727
0.000148922
0.010845
0.000159934
0.000158229
0.000148463
0.00617339
0.000152706
0.000147241
0.000170539
0.000322717
0.000145857
0.00014821
0.00014759
0.0001559
0.000146132
0.000167566
0.000296559
0.000148931
0.000188752
0.000150987
0.000148275
0.00101436
0.0352676
0.00022573
0.000148364
0.000146075
0.0344561
0.000153934
0.00150561
0.000145619
0.000147676
0.0172565
0.0837612
0.000159083
0.000187064
0.000164536
0.00014741
0.000149794
0.000148072
0.048111
0.000148235
0.000149947
0.0335317
0.000155194
0.000206309
0.0001579
0.000147384
0.0332293
0.00014977
0.00014766
0.000148035
0.000157238
0.0257158
0.000149001
0.000147737
0.000147483
0.000147407
0.000147425
0.00014801
0.0429787
0.000157703
0.000150332
0.00014862
0.000157721
0.000172418
0.000157277
0.000155821
0.000149883
0.000146047
0.000151275
0.0303863
0.063428
0.000152107
0.0512851
0.000149386
0.000153566
0.000228699
0.00032919
0.000147202
0.000149136
0.000185563
0.000173255
0.000147166
0.00014963
0.0564118
0.000149768
0.000171258
0.000147921
0.000204569
0.000149622
0.000152571
0.000148742
0.000158974
0.000149195
0.000152759
0.000154241
0.000174006
0.000146923
0.000147807
0.000149634
0.000147306
0.000148882
0.0001485
0.000160086
0.000148629
0.000174939
0.0514552
0.000167554
0.000174549
0.000149289
0.000147284
0.0157917
0.0654391
0.000145736
0.0589384
0.0198912
0.000146139
0.000147712
0.000147131
0.000173899
0.000175731
0.000332442
0.000146884
0.000153763
0.000146868
0.00014926
0.000152219
0.000170372
0.000148803
0.000198661
0.000148496
0.000164605
0.000147106
0.000150901
0.000147731
0.000169239
0.000164331
0.0247801
0.0766776
0.0583562
0.000171578
0.00014772
0.000316783
0.000443439
0.000178542
0.000148521
0.000148437
0.000299383
0.000147104
0.0264229
0.000146632
0.000160534
0.000149096
0.00014978
0.000147235
0.0373724
0.0498472
0.0272865
0.000165768
0.0213258
0.000147587
0.0608508
0.0871947
0.000149785
0.000148626
0.000146082
0.00321531
0.000145415
0.0619121
0.000157757
0.000191386
0.000149116
0.000196669
0.025703
0.000283034
0.000156656
0.000161298
0.000148116
0.0550477
0.000145423
0.000199506
0.000202759
0.000165395
0.0786681
0.0526096
0.000152785
0.000151387
0.000147461
0.000192088
0.0604125
0.0167677
0.000146161
0.00041922
0.000156657
0.000191538
0.000170774
0.0397315
0.0405936
0.000147038
0.000154192
0.000161101
0.000153761
0.000153469
0.0663752
0.000149255
0.0825432
0.000148044
0.000146838
0.000171544
0.000188741
0.00200191
0.000150103
0.0287782
0.0343893
0.000207876
0.000154755
0.000149511
0.0001501
0.000149467
0.000147807
0.000217618
0.00112634
0.000148839
0.000147758
0.000162497
0.000274503
0.000154601
0.000147661
0.00019254
0.000147557
0.000149818
0.000145554
0.000178911
0.000148071
0.000155002
0.023824
0.000171859
0.000152625
0.00048445
0.000171356
0.000147536
0.000151569
0.000162828
0.000149724
0.00014758
0.000146885
0.0647796
0.000468866
0.000149007
0.000163994
0.000159146
0.0002107
0.000148045
0.0589109
0.000146899
0.00014621
0.000205667
0.000209767
0.000176896
0.000148498
0.000147202
0.0329436
0.0395744
0.000194736
0.000326547
0.000148567
0.000153303
0.000147961
0.0131348
0.00015241
0.00165406
0.000150157
0.000147979
0.000152835
0.000146648
0.000146974
0.00016551
0.000146565
0.0614609
0.000148105
0.000148996
0.000145798
0.000154983
0.0481579
0.0276588
0.000175933
0.0259505
0.000147687
0.000159844
0.000152018
0.0536325
0.000148148
0.000146863
0.0815697
0.000158959
0.000157901
0.000148633
0.00020732
0.0337974
0.043213
0.000148843
0.000158535
0.00021376
0.000162512
0.000316765
0.000186111
0.000171634
0.000147138
0.000149911
0.00017888
0.000166686
0.000147736
0.000192407
0.000146131
0.000149153
0.000149178
0.000146952
0.000147715
0.000147838
0.000208912
0.000154516
0.000150758
0.000163815
0.000146439
0.000147631
0.000162179
0.0481707
0.00016692
0.000169526
0.0568213
0.00014952
0.0664012
0.00015691
0.0157359
0.000165447
0.000149288
0.000148702
0.000152063
0.0535592
0.000290717
0.000165131
0.00017546
0.000145961
0.000147917
0.000149626
0.000149283
0.0203578
0.000155102
0.00014818
0.000193171
0.000181768
0.0748013
0.000150311
0.0804507
0.000163343
0.000167493
0.000163047
0.000189616
0.00018634
0.000149073
0.0416214
0.000213714
0.000159951
0.042115
0.000170477
0.000149116
0.000149735
0.000147686
0.000150882
0.000154968
0.0213292
0.000173391
0.000146962
0.000215998
0.000147849
0.0226204
0.000450261
0.000147525
0.0318322
0.000147915
0.000147016
0.000148743
0.0397242
0.0513356
0.000173446
0.000157224
0.000147369
0.000215714
0.000149497
0.000158886
0.000148478
0.000148827
0.00014796
0.0742571
0.000150349
0.000160773
0.000156732
0.000149359
0.00018531
0.000180708
0.000164897
0.000153699
0.00015261
0.0331123
0.0713407
0.000148373
0.000146955
0.000148378
0.00014993
0.0383645
0.0641439
0.000193535
0.000154014
0.000146655
0.0890093
0.0303709
0.000148996
0.0454039
0.000146138
0.000176455
0.0124163
0.000146325
0.0311444
0.0607927
0.000180274
0.0235991
0.0737074
0.000147461
0.000150112
0.000305262
0.0360896
0.000149864
0.0313882
0.000153831
0.000147679
0.00014981
0.000151622
0.000167523
0.000154354
0.000183635
0.0236824
0.000179072
0.000158453
0.000148392
0.000167256
0.000316101
0.000146864
0.000461542
0.00016572
0.000149419
0.000152909
0.000149575
0.00014902
0.000157421
0.000310773
0.000150084
0.000146511
0.0301454
0.0407413
0.000181179
0.000149722
0.000170142
0.000147637
0.000147333
0.0723634
0.0165363
0.000147266
0.000144436
0.0580284
0.0223392
0.000166062
0.000149179
0.08628
0.000150532
0.000147324
0.000153589
0.000147342
0.000145909
0.000145397
0.0780677
0.00022042
0.000154277
0.000248326
0.000171289
0.0389463
0.0830274
0.0413983
0.000196615
0.000148004
0.000149558
0.000149446
0.000147769
0.000166438
0.000147031
0.000169376
0.000158728
0.00187554
0.000148165
0.0339144
0.000159202
0.0489349
0.000147293
0.000273456
0.000161021
0.000199123
0.000206059
0.0001592
0.000145371
0.0902918
0.00017268
0.000306695
0.000145652
0.0739858
0.000148021
0.0500277
0.000217021
0.000161093
0.000147606
0.000148475
0.0478072
0.0278345
0.000162433
0.000146433
0.000555162
0.00017047
0.000169628
0.083473
0.000166919
0.000148016
0.0783695
0.000147691
0.000163695
0.000146514
0.0271253
0.000146506
0.000152967
0.000218449
0.000431693
0.000149433
0.000171645
0.000153962
0.000166974
0.000147016
0.000193092
0.000151374
0.000165643
0.000148091
0.000147717
0.0314203
0.00015922
0.0540919
0.0621363
0.0205423
0.000150202
0.000146552
0.000146981
0.000155026
0.000165344
0.000160972
0.0211959
0.000151931
0.000188029
0.000161428
0.000149862
0.000148046
0.000181157
0.000239837
0.0144376
0.000147691
0.0345442
0.000146891
0.0734839
0.000265059
0.000171658
0.000147869
0.00014684
0.000165772
0.00070894
0.000152829
0.000149774
0.000153265
0.000169903
0.000151343
0.000257625
0.0310595
0.000476942
0.000148953
0.000155876
0.0857798
0.00014918
0.000164202
0.000147339
0.00019095
0.000159895
0.000147641
0.00016175
0.00017523
0.000148489
0.0670596
0.000147631
0.000191114
0.000181103
0.000258326
0.000184412
0.000149031
0.000149033
0.0304448
0.000148883
0.00016108
0.000183385
0.000151917
0.000145365
0.0733523
0.000153127
0.000190599
0.000152614
0.000165289
0.000149823
0.000188304
0.000153493
0.000153583
0.0717981
0.000224753
0.000148463
0.000149805
0.000175446
0.043071
0.000290349
0.000207628
0.000160494
0.000147679
0.000146991
0.0422502
0.000148823
0.0742759
0.000173965
0.0682928
0.000148597
0.000146168
0.00014654
0.000167237
0.000174801
0.000419246
0.0415196
0.000207999
0.000205598
0.000145216
0.00034348
0.000150749
0.000180833
0.000150949
0.000166049
0.000164137
0.000147637
0.000145144
0.000179973
0.000145692
0.00016283
0.000165568
0.0263617
0.0661267
0.000168523
0.0404631
0.000146948
0.000146523
0.000148358
0.000175986
0.000164451
0.000166709
0.000177105
0.00323047
0.000160611
0.000174584
0.000147364
0.000151532
0.0434292
0.000147952
0.000181846
0.000144371
0.000147471
0.0525453
0.000184802
0.000147594
0.000174276
0.00019665
0.0529635
0.0722522
0.000153707
0.000182551
0.00017419
0.00479335
0.00014853
0.073053
0.0365826
0.000151728
0.000156643
0.000145628
0.000192803
0.000147555
0.000147798
0.0406577
0.000149071
0.000145383
0.000191126
0.000179561
0.0401374
0.0400618
0.000418872
0.0312399
0.000146855
0.000147704
0.000147617
0.000149314
0.0282448
0.000148576
0.0331817
0.000150735
0.0508142
0.00015266
0.000148802
0.000145752
0.000149103
0.000157156
0.000148454
0.000145235
0.000224573
0.000146943
0.000175889
0.000149694
0.0204689
0.000152728
0.000148405
0.000148515
0.000172134
0.000147181
0.000146242
0.000148461
0.00014938
0.000154564
0.000147513
0.000151401
0.000157334
0.0783363
0.0494061
0.0439359
0.0280302
0.000146489
0.000147857
0.000147706
0.000144072
0.000147616
0.000146292
0.000214112
0.000147416
0.00014965
0.000148318
0.000148134
0.000148019
0.0587282
0.000153939
0.000147624
0.0500582
0.00017082
0.000145935
0.048233
0.0260433
0.000147961
0.000199497
0.000207361
0.000148503
0.000161609
0.000152066
0.000144935
0.000155622
0.00015108
0.0001702
0.000147911
0.000149621
0.000146393
0.0109661
0.000159725
0.000161617
0.000148055
0.00014975
0.055283
0.000153974
0.000148078
0.000152187
0.000152788
0.000149653
0.000178972
0.0242872
0.000330305
0.038098
0.000177959
0.000159935
0.000149709
0.0329343
0.000184847
0.000150267
0.000174371
0.00014995
0.000147628
0.000149613
0.076044
0.000162375
0.000147809
0.000148124
0.000198358
0.000146242
0.000193451
0.000148181
0.000274521
0.000203316
0.00427889
0.000148409
0.000151039
0.00015753
0.000159436
0.00014914
0.00016025
0.000167416
0.005259
0.000150148
0.000192009
0.0879626
0.000145479
0.041059
0.000161228
0.000184105
0.000177143
0.000147632
0.000156076
0.00016847
0.000145769
0.000154283
0.000144858
0.0113291
0.000444906
0.000158216
0.000146658
0.000184594
0.000166089
0.000344083
0.000181363
0.000151361
0.000158847
0.000147639
0.000148022
0.000168277
0.000162934
0.0430162
0.00014691
0.000190366
0.000155462
0.0654487
0.000189203
0.0583592
0.000145191
0.000150605
0.00031487
0.000277723
0.000161123
0.0308781
0.000151333
0.000178254
0.000147223
0.000147466
0.028416
0.0002776
0.000154998
0.000148501
0.000166412
0.000298875
0.00017593
0.000165197
0.00014653
0.000147919
0.000145962
0.000330135
0.0437003
0.000146884
0.000171452
0.0499113
0.000174044
0.000190206
0.0339051
0.0166744
0.0656309
0.000147045
0.000151126
0.0345734
0.000147193
0.000162379
0.000258657
0.0528908
0.000151306
0.000156846
0.0221467
0.000205178
0.000286892
0.0658344
0.0394277
0.0393834
0.000148626
0.000145691
0.000147835
0.000150347
0.0209451
0.00016327
0.000186776
0.000190787
0.000163708
0.000148029
0.000210735
0.000146855
0.00016114
0.000147284
0.000160534
0.0154702
0.00106976
0.000148336
0.000145551
0.000169181
0.0252643
0.000186793
0.0488751
0.000161442
0.000148546
0.000166651
0.000144394
0.00016811
0.000157604
0.000147729
0.0215278
0.000174423
0.000210715
0.000166987
0.000149103
0.000145856
0.00511816
0.000153415
0.00014558
0.000148873
0.000149681
0.000145725
0.00949707
0.0349305
0.030887
0.000262533
0.0409723
0.000153608
0.000147619
0.0777199
0.00015373
0.000190174
0.060571
0.000146907
0.0659884
0.026949
0.00016979
0.000158316
0.00020671
0.000150935
0.00028974
0.000161589
0.0305335
0.000147012
0.000150485
0.000161163
0.000445206
0.00018338
0.000165514
0.0307273
0.0651366
0.000165596
0.000194891
0.000418288
0.000152867
0.000186604
0.0148227
0.000160095
0.000164563
0.0638063
0.000163063
0.00015997
0.000148572
0.000165679
0.000167633
0.000167028
0.000148458
0.0670332
0.000173672
0.0313727
0.0253382
0.0297488
0.000160676
0.00026517
0.0707415
0.000146785
0.000340488
0.0817522
0.0230842
0.000156031
0.000152417
0.0390816
0.0255251
0.000145701
0.000179064
0.000146198
0.00014722
0.00045726
0.000153613
0.0301595
0.0415761
0.0336681
0.0427266
0.000145359
0.000164642
0.000148207
0.000146762
0.00016963
0.000173809
0.000156509
0.000365491
0.0329023
0.000149807
0.000156211
0.000248375
0.000152138
0.000190889
0.000161987
0.0369477
0.0377351
0.000231746
0.0800687
0.0182666
0.0323822
0.0386034
0.0327295
0.000162714
0.000153362
0.000171799
0.000171638
0.0488775
0.0350436
0.000148781
0.000156279
0.0424032
0.0296188
0.00015456
0.0339918
0.000147917
0.000217248
0.0728306
0.0604869
0.00014729
0.0322931
0.000263549
0.000155328
0.000159212
0.0656735
0.0621935
0.0403539
0.0504691
0.000148302
0.00992214
0.0347605
0.000160386
0.000183128
0.000169256
0.000146068
0.000156134
0.0255682
0.0447003
0.000153451
0.00014907
0.0373648
0.000167075
0.0318845
0.000171316
0.000285254
0.0396477
0.000147838
0.0699417
0.000149891
0.000161634
0.000148606
0.00014874
0.000145846
0.000161706
0.000182762
0.000144477
0.0120824
0.000184836
0.00929817
0.0533311
0.0313555
0.000147193
0.0710038
0.000269074
0.0317842
0.000159217
0.000147642
0.00233275
0.000210502
0.0434455
0.000163366
0.000151416
0.000145741
0.00423545
0.017977
0.00015869
0.0105587
0.000157229
0.000148954
0.0385462
0.000163086
0.033847
0.000147873
0.000160866
0.0334912
0.0402608
0.0365042
0.000206653
0.0373252
0.0340199
0.006668
0.000148169
0.0214673
0.000162894
0.000147296
0.000145295
0.000147989
0.0199461
0.000162281
0.0381533
0.0354177
0.000167485
0.000172995
0.000188385
0.0277324
0.000180247
0.0640385
0.033651
0.000256502
0.000168213
0.00014616
0.000330909
0.000163737
0.000195418
0.0381055
0.047295
0.0002804
0.000148515
0.000152793
0.000162167
0.000148249
0.000148075
0.000156872
0.0391286
0.000159928
0.000155663
0.0367305
0.000184949
0.000216511
0.00204352
0.0408958
0.000211022
0.0429717
0.0329508
0.0295107
0.000164686
0.000160948
0.000148742
0.000255557
0.000176871
0.000203125
0.000164504
0.00016409
0.000144052
0.000195634
0.0620078
0.000157413
0.000145117
0.000151468
0.00279769
0.000147038
0.000148026
0.000169142
0.0354929
0.000159727
0.000163364
0.000176271
0.000156918
0.000177721
0.000147639
0.000147712
0.00016381
0.000204416
0.00014914
0.000159166
0.000180782
0.0542806
0.000148794
0.0854887
0.000148081
0.0402796
0.000151087
0.000151288
0.000144929
0.000189233
0.000165338
0.014297
0.0558196
0.000164938
0.000148997
0.000148337
0.073524
0.00192159
0.000147872
0.000187005
0.0347165
0.000167994
0.000166122
0.000144089
0.000150088
0.000147589
0.0392531
0.000165542
0.000148183
0.065237
0.000149407
0.000163902
0.000210198
0.000146079
0.000168755
0.000169536
0.0593699
0.000149538
0.000154295
0.000151287
0.000168072
0.000143837
0.000147354
0.064754
0.000210033
0.000173831
0.000149678
0.0404817
0.000149457
0.000149425
0.00014752
0.000211752
0.0656621
0.000152142
0.0872184
0.000589464
0.000169231
0.0271782
0.00454921
0.0394872
0.0141915
0.000175743
0.000180618
0.000195588
0.000166663
0.00014747
0.000156671
0.000160347
0.0655289
0.000148393
0.0525846
0.000147767
0.000190516
0.000174271
0.000150349
0.00015902
0.012711
0.0207387
0.0221625
0.0339965
0.000146609
0.000183533
0.0454746
0.000155972
0.0459159
0.000160447
0.000169273
0.0392222
0.000165313
0.000147772
0.000180548
0.000184636
0.000147757
0.0359519
0.000230018
0.000145966
0.000149564
0.000148702
0.00014789
0.0490704
0.000148614
0.000166608
0.000148
0.000149752
0.000157691
0.000147611
0.0398927
0.000176641
0.000148798
0.000145639
0.000182981
0.000151619
0.000163192
0.0127328
0.0339589
0.000165673
0.000179193
0.000160396
0.000145279
0.000189196
0.0675959
0.000161082
0.0365759
0.03063
0.000165848
0.000162021
0.000159164
0.000171824
0.000160033
0.0651539
0.000148644
0.000148817
0.000147885
0.0446281
0.0347293
0.000159488
0.000193583
0.000147742
0.00015744
0.000190843
0.000207556
0.000147942
0.00016689
0.0388711
0.000167471
0.00014783
0.000147974
0.0504582
0.0239809
0.000147609
0.000234705
0.000161689
0.000199012
0.000218848
0.000147009
0.0271559
0.000159888
0.000148001
0.070493
0.000198436
0.00014757
0.000148999
0.000209429
0.000146923
0.00014812
0.000201826
0.000160724
0.000161547
0.0288719
0.000154379
0.000171329
0.0386522
0.000147611
0.0605844
0.0504797
0.000154227
0.000179555
0.00019819
0.000148103
0.000193319
0.000144249
0.0644222
0.000259629
0.000147846
0.0120124
0.0818526
0.000148041
0.00014792
0.00020227
0.000168485
0.0327883
0.0334777
0.000148518
0.000165335
0.0299469
0.00015052
0.000172964
0.00018215
0.000158717
0.0774712
0.000202409
0.000152348
0.00020114
0.0075359
0.000161308
0.0665779
0.000147216
0.000144874
0.000149765
0.000160668
0.0745843
0.000148296
0.000164376
0.0159335
0.0286479
0.000149405
0.000157833
0.000291061
0.0415334
0.000149456
0.0668057
0.000162522
0.000173922
0.000163672
0.000150845
0.000155238
0.000148141
0.000147684
0.0575659
0.000147349
0.000162674
0.000147758
0.0673899
0.00015234
0.000153549
0.000145264
0.000152389
0.000147707
0.000165688
0.0193554
0.000456394
0.000162219
0.000160732
0.00014759
0.000157385
0.000170884
0.0698816
0.0390441
0.000146683
0.000409268
0.000148021
0.000332171
0.037297
0.0267245
0.000146694
0.000171119
0.0001794
0.0614011
0.000179252
0.000147441
0.0755388
0.000184086
0.000159578
0.00205564
0.000149001
0.000148214
0.000160245
0.0673553
0.000147829
0.0388064
0.000158399
0.000834954
0.000167414
0.000153916
0.0665832
0.00015631
0.000148742
0.000211857
0.000147966
0.000337019
0.0697876
0.000196794
0.000155222
0.000172762
0.000147905
0.000176854
0.000165644
0.0510501
0.000148363
0.000146227
0.000155213
0.000157719
0.000169944
0.05101
0.0279197
0.000158986
0.000178036
0.000147035
0.0467361
0.00863999
0.000180827
0.000147766
0.000149714
0.000152041
0.073988
0.000148525
0.000156222
0.0677257
0.000183299
0.000148212
0.000179851
0.000181356
0.000147788
0.000153685
0.000180185
0.00027592
0.000168876
0.000164337
0.04241
0.040699
0.00024198
0.000154977
0.000148704
0.000152806
0.000152839
0.000183958
0.000172395
0.000157869
0.000181199
0.0710831
0.000152166
0.000147863
0.031405
0.000182614
0.0319882
0.000200556
0.000154167
0.000151692
0.000151641
0.000146861
0.000147764
0.000169779
0.000145316
0.000150492
0.000149398
0.000150563
0.00015154
0.000147625
0.00015988
0.000166879
0.000148597
0.00014762
0.000148687
0.00015014
0.000149296
0.000179538
0.000148265
0.00015126
0.000256347
0.000146748
0.000151035
0.000149076
0.000157278
0.0308428
0.0629854
0.0287768
0.0634465
0.0797326
0.000201667
0.000147219
0.000169723
0.000148295
0.000322608
0.000151842
0.000156607
0.000148878
0.00017247
0.000147579
0.000160571
0.000146567
0.0664727
0.000188033
0.000148391
0.0635366
0.0773036
0.000148915
0.000190319
0.000147575
0.000145494
0.0103369
0.000148709
0.000171667
0.000192754
0.000148586
0.000145223
0.000173818
0.0336321
0.000153194
0.000151866
0.0338345
0.000147505
0.0273315
0.000170815
0.0203652
0.000145845
0.0350995
0.000147937
0.000148875
0.000205535
0.000174162
0.0344072
0.0333499
0.0178706
0.0724197
0.000205773
0.000180549
0.000148156
0.000198447
0.000148577
0.000146665
0.000167914
0.00014736
0.000147791
0.000145504
0.000145293
0.000177662
0.0352969
0.0351719
0.000207309
0.0459941
0.000152032
0.000156783
0.000150783
0.00015023
0.000179698
0.000148456
0.000147552
0.000146826
0.00015223
0.000150858
0.000176214
0.000187284
0.000166993
0.000148611
0.000163131
0.000163379
0.0339734
0.0318528
0.000153559
0.00016705
0.000148471
0.0587777
0.0399759
0.000147582
0.000147358
0.000152931
0.000149368
0.000179371
0.000212833
0.0420639
0.000148737
0.052364
0.000148664
0.0278211
0.000170452
0.000146553
0.000156605
0.00332735
0.000154797
0.000156661
0.000160422
0.000176338
0.0733416
0.000147759
0.000147235
0.000155696
0.000212812
0.000147623
0.0308407
0.0280952
0.000148085
0.000143994
0.0133572
0.000181516
0.000147778
0.00225364
0.0128629
0.0659128
0.0137356
0.00015817
0.000284108
0.000148337
0.0380098
0.0795671
0.000209693
0.000181509
0.000152102
0.0309782
0.000153404
0.000147007
0.000144047
0.000220847
0.000145604
0.00608969
0.000150705
0.000148854
0.000153239
0.0361136
0.000152103
0.000150271
0.000148354
0.0705689
0.0238854
0.0533734
0.0416556
0.000170592
0.000147844
0.000152209
0.000216902
0.000169676
0.00014779
0.000174111
0.000216248
0.00865663
0.000148033
0.0272938
0.0364124
0.000167834
0.000148277
0.000152091
0.00014764
0.000147001
0.000147618
0.000148064
0.000149563
0.000168258
0.000148514
0.000194787
0.000149837
0.000150077
0.0243356
0.000183525
0.000152612
0.00015025
0.0307075
0.000145484
0.00015736
0.000154623
0.000146583
0.00074474
0.000161609
0.00015018
0.000161143
0.000148083
0.000156944
0.000148239
0.000193434
0.000146783
0.000147888
0.0538313
0.00015265
0.000199915
0.000162281
0.000151735
0.000185137
0.000143838
0.000148459
0.00014998
0.0613094
0.000152794
0.000147717
0.000298838
0.000148266
0.000145559
0.000147021
0.000238976
0.000157636
0.000197247
0.000158067
0.000156957
0.000162267
0.000152099
0.000155546
0.000161857
0.0293811
0.000149128
0.000156576
0.000147259
0.000182076
0.000200954
0.000147152
0.000159855
0.0730137
0.000156529
0.000145232
0.065402
0.000154375
0.000167291
0.0292798
0.000158835
0.000147838
0.000157835
0.00014771
0.000153954
0.000147178
0.000151206
0.000154471
0.000147609
0.000148314
0.000157442
0.00014887
0.000179047
0.000147832
0.000151677
0.000148012
0.000160604
0.0347923
0.000148565
0.000148204
0.000168159
0.000151844
0.000148066
0.000211221
0.073096
0.0271332
0.000148549
0.000152898
0.000165345
0.0001496
0.000148729
0.000163117
0.00017666
0.000144736
0.000162947
0.00014808
0.000147169
0.000147141
0.000144759
0.000150825
0.000165879
0.000163153
0.000156935
0.0334251
0.000152755
0.000156077
0.00014676
0.0552329
0.0011211
0.0696773
0.000148475
0.000169154
0.000156928
0.000148402