/*--------------------------------*- C++ -*----------------------------------*\
| =========                 |                                                 |
| \\      /  F ield         | OpenFOAM: The Open Source CFD Toolbox           |
|  \\    /   O peration     | Version:  v2012                                 |
|   \\  /    A nd           | Website:  www.openfoam.com                      |
|    \\/     M anipulation  |                                                 |
\*---------------------------------------------------------------------------*/
FoamFile
{
    version     2.0;
    format      ascii;
    class       volVectorField;
    location    "700";
    object      U_0;
}
// * * * * * * * * * * * * * * * * * * * * * * * * * * * * * * * * * * * * * //

dimensions      [0 1 -1 0 0 0 0];


internalField   nonuniform List<vector> 
9793
(
(0.960639 -0.0196856 -4.20557e-20)
(-0.12422 -0.00480735 0)
(0.992052 -0.00696194 0)
(-0.039573 0.00296412 -8.23347e-20)
(0.999948 -0.000809998 0)
(1.25171 -0.0241906 0)
(1.13189 -0.244307 3.25971e-20)
(-0.151236 0.0382188 0)
(1.02379 -0.0409896 0)
(-0.0740998 0.00993162 9.49584e-20)
(1.0001 -0.00248608 0)
(1.0001 -0.00269957 0)
(1.00263 -0.00949981 2.87349e-21)
(-0.149495 0.0427154 8.55125e-20)
(1.02171 -0.0247255 -6.94499e-21)
(1.06391 0.0041958 4.07396e-20)
(1.1536 -0.0699449 -3.69994e-20)
(0.994516 -0.00930682 0)
(-0.0637197 -0.134702 3.45877e-20)
(1.01946 -0.00550109 1.14366e-21)
(1.02523 -0.0105276 8.63919e-21)
(0.999992 -0.000187584 8.14034e-21)
(-0.0450045 0.0570192 5.46874e-20)
(-0.13881 0.0342368 -1.09539e-19)
(-0.136648 0.0452197 0)
(0.920339 -0.0651934 -1.61212e-20)
(1.00022 -0.00462839 0)
(1.00003 -0.000600725 8.7288e-21)
(1.0193 -0.00583093 -6.97673e-22)
(1.18005 -0.147416 -8.36912e-20)
(-0.340118 0.00421976 -1.50262e-19)
(1.29293 -0.0420066 1.20646e-19)
(0.996448 -0.00448236 0)
(0.997481 -0.00953402 0)
(1.00597 -0.000571279 1.51374e-21)
(1.08827 -0.0279641 3.18066e-20)
(1.06035 -0.00342099 -1.04268e-21)
(0.91108 -0.00296946 -4.06445e-20)
(-0.114382 -0.0410868 -6.18064e-20)
(1.08768 -0.0745806 -3.95159e-21)
(1.16912 -0.144515 0)
(1.06293 0.049386 7.31207e-20)
(-0.157299 0.0025059 0)
(1.00002 -0.000428934 -8.90839e-21)
(0.991755 -0.000470586 3.1443e-21)
(0.9964 -0.00103879 0)
(-0.298676 0.0399885 -1.14072e-19)
(1.00002 -0.000400732 0)
(1.03341 -0.00816786 0)
(0.994239 -0.00878464 -9.01751e-21)
(1.08782 -0.0247509 -2.52126e-20)
(1.00637 -0.000707035 -1.66841e-21)
(1.11613 -0.0442972 4.97769e-20)
(1.00001 -0.000810342 -7.36193e-21)
(0.903666 -0.129193 0)
(-0.0474296 -6.40276e-05 -1.05538e-19)
(1.00296 -0.00861911 0)
(1.17391 0.0266109 0)
(1.03326 -0.00885227 0)
(1.00001 -0.000217082 -7.32666e-21)
(0.896784 -0.0234246 2.48168e-20)
(0.837942 -0.347729 -3.46409e-20)
(0.993846 -0.0068642 9.68479e-21)
(1.09515 0.00795358 0)
(1.00336 -0.00135321 0)
(1.02286 -0.039383 1.72113e-22)
(-0.246619 0.0177046 0)
(1.05846 -0.0469796 8.09999e-22)
(1.06058 -0.000360651 1.17036e-20)
(0.0499387 -0.0372577 1.68177e-19)
(0.977786 -0.0124157 -1.53364e-20)
(0.578827 0.0127927 -3.67786e-20)
(-0.202799 0.0506307 0)
(0.900709 0.256202 2.96947e-20)
(0.198258 0.00274597 0)
(0.999985 -0.000950209 1.34271e-20)
(0.799993 -0.144554 -1.2583e-19)
(0.839546 0.0205392 -1.17682e-19)
(0.994506 -0.00403628 0)
(0.999982 -0.000711998 8.99282e-21)
(0.783923 -0.147179 9.82886e-20)
(-0.0644664 -0.127617 -6.03335e-20)
(1.14798 -0.0639951 3.15662e-20)
(0.982798 -0.0761816 -1.13898e-20)
(1.06159 -0.00167651 5.14689e-20)
(1.27937 -0.164839 7.11739e-20)
(0.999971 -0.000894672 -8.87125e-21)
(1.12927 0.0516645 -6.44921e-20)
(-0.119986 -0.0358529 1.24205e-19)
(0.822737 -0.328626 7.08706e-20)
(-0.0628672 0.0363257 0)
(1.38886 -0.199719 1.7052e-19)
(1.38371 -0.213376 -2.19583e-19)
(1.10047 -0.126524 -4.72788e-20)
(-0.142324 -0.0193658 -1.38213e-19)
(0.996258 -0.0129367 2.67742e-22)
(0.244798 0.0110507 3.24939e-20)
(1.14454 -0.0922829 5.05448e-20)
(1.04723 -0.0694747 -1.09246e-20)
(0.999965 -0.000664111 1.966e-21)
(-0.136749 0.00682215 -8.55484e-20)
(1.11165 -0.0451086 -4.6474e-20)
(-0.0129885 0.271898 1.02943e-19)
(0.992341 -0.000536462 -2.9468e-21)
(0.135371 0.00836743 -2.7991e-19)
(0.519566 0.0387888 -1.21648e-19)
(0.971126 0.249672 0)
(1.0052 -0.00743091 0)
(0.99448 -0.00364806 0)
(0.999984 -0.000340814 -1.94526e-21)
(1.00012 -0.0012296 -1.91892e-22)
(-0.0531085 0.0522797 0)
(0.0909932 -0.132417 -4.07451e-19)
(-0.311616 -0.00132563 -1.22954e-19)
(0.978782 -0.0129959 6.54945e-21)
(0.99918 -0.00380776 0)
(1.05141 0.00333833 -1.45402e-20)
(0.9968 -0.00199588 -8.83023e-21)
(-0.0602546 -0.0132123 -1.07705e-19)
(0.995754 -0.000347353 1.39484e-21)
(0.0627057 0.00549816 9.07577e-20)
(1.13694 0.0531093 -6.89981e-20)
(0.464137 0.03836 1.92923e-20)
(1.12672 -0.0203953 5.93813e-20)
(1.06136 -0.00511541 -9.38036e-22)
(0.995955 -0.000255471 4.94779e-21)
(1.16326 -0.0847178 0)
(-0.319902 0.0036111 1.67199e-19)
(1.15969 0.115585 3.72158e-20)
(1.15594 0.12135 0)
(1.06076 -0.0209059 0)
(1.00772 -0.0160147 0)
(0.962554 -0.0206736 2.5893e-20)
(1.05235 -0.0422566 9.86473e-21)
(1.08302 -0.0309513 2.31708e-20)
(1.2119 -0.247885 0)
(1.26054 0.0271932 0)
(1.05246 0.00272931 0)
(1.00001 -0.000704286 -1.06669e-20)
(1.1681 -0.0562224 3.84788e-20)
(-0.0649574 -0.11117 0)
(1.08649 -0.0303013 -3.2869e-20)
(0.98435 -0.0217969 0)
(1.12077 0.0360367 5.98285e-20)
(-0.284815 0.0459007 0)
(1.14784 -0.472451 -1.06753e-19)
(0.995959 0.000404016 2.00317e-20)
(0.216642 0.00945601 6.06993e-20)
(1.00743 -0.0164098 0)
(0.995781 0.000247604 -2.52944e-20)
(0.999344 -0.00507671 4.64877e-21)
(0.0946926 -0.062618 -1.01806e-19)
(1.04474 -0.0667877 0)
(1.00013 -0.0046473 -5.01432e-21)
(0.984514 -0.00339804 0)
(1.38545 -0.251845 0)
(1.16063 -0.0670676 -6.42801e-21)
(0.993904 -0.00744428 3.99739e-22)
(1.30412 -0.0356532 -1.20576e-19)
(0.983978 -0.0125456 -5.0716e-21)
(1.12822 0.0436506 3.48208e-20)
(1.06238 -0.0225384 2.87459e-20)
(1.02492 -0.0110583 -1.11651e-20)
(0.583451 -0.443133 -3.77701e-20)
(1.04079 -0.0172701 -4.43206e-21)
(1.06898 0.00270171 5.71302e-21)
(-0.104177 0.254858 8.47047e-20)
(1.04339 -0.020902 -2.15494e-20)
(1.00524 -0.00680545 0)
(1.00003 -0.00203485 -7.71617e-21)
(0.983269 -0.0212525 -1.18718e-20)
(-0.226229 -0.0093192 -2.84333e-19)
(0.281141 -0.173242 0)
(-0.168177 0.0214053 0)
(1.00291 -0.00992041 -3.01783e-21)
(1.24277 -0.0224262 5.28967e-20)
(1.02897 -0.379778 1.56448e-21)
(0.548846 -0.542854 -3.91117e-20)
(0.994046 -0.00485471 9.14869e-21)
(1.05961 -0.0417806 -1.30531e-20)
(0.203265 0.0236006 2.67844e-19)
(-0.301246 0.0380118 1.35401e-19)
(1.13849 0.0595482 1.82444e-20)
(0.996068 -0.00102891 0)
(0.997441 -0.00171055 0)
(1.00543 -0.00723201 2.04754e-22)
(0.605714 0.0492297 0)
(-0.227767 0.0460341 0)
(0.797962 -0.401086 -1.75462e-19)
(0.039333 0.269711 -1.10747e-19)
(1.02058 -0.0375178 7.19195e-23)
(-0.0847276 0.183553 0)
(0.394926 -0.169456 9.2144e-20)
(0.910382 -0.0269177 4.40549e-20)
(1.03529 -0.00600657 8.55555e-21)
(0.961654 -0.0564218 1.0329e-20)
(0.175457 0.0738939 2.48019e-19)
(1.01689 -0.00586487 -3.87162e-21)
(0.994292 -0.00972353 6.33209e-21)
(0.999783 -0.0021299 -1.07444e-21)
(0.975247 -0.0131621 -1.46987e-20)
(1.02742 -0.00947101 -1.95727e-21)
(1.09072 -0.0189127 1.43807e-21)
(1.06904 -0.014409 -5.10535e-20)
(-0.0647333 -0.0817833 -4.83774e-20)
(0.98097 -0.00264727 0)
(1.07717 -0.0688234 6.81433e-21)
(1.04439 -0.0196724 0)
(0.969089 -0.0327744 -1.91466e-20)
(0.80314 -0.581128 1.38212e-20)
(1.16161 -0.0577315 -4.59757e-20)
(-0.0694014 -0.10444 -6.43604e-20)
(1.01496 -0.00560798 -1.45058e-21)
(0.0180396 -0.0515818 -1.0173e-19)
(0.978213 -0.0765023 1.32974e-20)
(1.05358 0.040599 0)
(1.02176 -0.0257601 0)
(1.21656 -0.234785 0)
(0.999265 -0.00363326 0)
(0.737219 -0.0648618 0)
(1.15168 -0.0923869 -1.35354e-19)
(1.02731 -0.00997919 0)
(0.358098 0.427251 0)
(-0.182993 0.0645945 -6.54918e-20)
(1.09293 -0.12577 5.99139e-20)
(0.995479 -0.0150807 0)
(1.14191 -0.0137172 -6.93355e-20)
(-0.202994 0.124733 -1.66539e-19)
(0.75309 -0.0927577 6.09353e-21)
(0.750835 -0.103589 0)
(-0.0807966 -0.0456232 -4.44298e-20)
(1.15454 0.0937695 0)
(1.05644 0.0373521 0)
(1.09795 0.0104516 0)
(0.400719 -0.144871 8.34546e-20)
(1.03001 -0.00450044 3.72296e-21)
(-0.0950112 0.111216 4.67535e-20)
(-0.289458 -0.00390262 -1.66206e-19)
(1.01654 -0.00569168 0)
(0.999828 -0.00159463 0)
(1.15229 0.0475015 0)
(0.987841 -0.0154422 6.94421e-21)
(1.0001 -0.00114443 7.69291e-21)
(1.17664 0.0437572 3.11415e-20)
(1.18848 0.038214 -1.35866e-19)
(1.02106 -0.039346 2.24518e-21)
(1.06164 -0.0405566 3.17335e-20)
(1.08131 -0.0694757 0)
(0.951782 -0.182986 8.39845e-21)
(1.06343 -0.0330827 0)
(0.994005 -0.00438285 0)
(1.07582 -0.173445 6.29797e-21)
(-0.0325 -0.100058 -1.52236e-19)
(1.02644 -0.0100734 0)
(-0.181094 0.0370056 3.10263e-20)
(1.00004 -0.000974871 4.55495e-21)
(1.00009 -0.00315207 0)
(1.01314 -0.00107043 1.58639e-22)
(-0.0500398 -0.0106661 -1.0472e-19)
(0.993142 0.00088636 4.16162e-22)
(1.39757 -0.245925 5.46897e-20)
(0.0472326 -0.0304341 4.78133e-23)
(1.00086 -0.00347705 0)
(0.999397 -0.00358627 -5.51726e-21)
(1.39834 -0.120952 -1.64452e-19)
(1.01305 -0.00066708 -2.36653e-21)
(0.999943 -0.00143917 0)
(1.01379 -0.000626032 0)
(0.021484 -0.0412325 -1.02177e-19)
(0.585889 -0.406843 -1.732e-19)
(0.9337 -0.060091 0)
(0.904683 -0.537095 -1.8192e-20)
(1.17451 0.0153479 6.59201e-20)
(-0.0741646 0.257436 -6.46291e-21)
(-0.0474712 0.0931041 0)
(1.04439 -0.0224197 1.08531e-20)
(-0.11258 -0.319678 -1.36721e-19)
(1.00002 -0.000908748 0)
(-0.209438 0.129024 1.91548e-19)
(0.379925 -1.19595 -1.38468e-20)
(-0.151968 -0.0131417 -1.02786e-19)
(0.0766967 0.00451549 -5.51187e-20)
(1.15644 0.0884057 -3.12337e-20)
(1.06118 -0.0185618 -2.75059e-20)
(1.14126 -0.0662377 0)
(1.06701 -0.0154522 3.30109e-20)
(1.03605 -0.00493385 1.06104e-20)
(1.04662 -0.0145514 0)
(0.832518 -0.550044 0)
(0.916825 -0.0683851 2.1039e-20)
(0.999454 -0.00339573 8.86451e-23)
(1 -0.000136834 4.43989e-21)
(1.01533 -0.00580759 -1.73611e-21)
(1.01863 -0.000157797 0)
(1.02617 -0.0105899 -5.3545e-21)
(-0.06005 0.0837459 -8.54589e-20)
(1.00533 -0.00859404 -4.84659e-21)
(1.01961 -0.0244478 -4.05911e-22)
(1.01845 -0.000238876 0)
(1.00292 -0.00902915 2.00604e-22)
(-0.0206347 -0.147089 0)
(1.16379 -0.460087 -4.88791e-21)
(0.67846 0.0561666 1.47318e-19)
(0.945041 -0.0184636 1.90137e-20)
(1.12516 0.032112 6.57071e-20)
(1.01771 -0.00014974 0)
(1.07547 0.216764 0)
(0.00202251 -0.0366468 2.3587e-19)
(0.992627 4.75568e-05 2.11148e-22)
(0.0872776 -0.0219168 1.26086e-19)
(1.09529 0.000196279 6.22193e-20)
(0.991425 -0.000915009 -3.42453e-21)
(-0.0730917 -0.00023961 0)
(1.06931 0.227936 0)
(0.996789 -0.00461706 -1.02287e-21)
(1.07622 -0.18156 -3.01832e-20)
(0.360262 0.9874 -3.48396e-20)
(0.974476 -0.0299908 7.67846e-21)
(0.826927 0.0106997 0)
(1.02074 -0.0241131 5.80536e-21)
(0.969142 -0.0281463 1.18317e-21)
(-0.203855 0.124594 0)
(0.900344 -0.185512 6.09238e-21)
(0.997558 -0.00900143 0)
(0.995643 -0.00147865 1.03542e-20)
(0.947818 -0.017623 0)
(1.09567 -0.383706 0)
(0.090763 -0.219893 7.97372e-20)
(0.991961 -0.00628079 0)
(1.00536 -0.00785257 0)
(1.03047 -0.015919 -2.26868e-21)
(-0.234191 -0.00756477 3.36208e-19)
(-0.148332 -0.186168 0)
(-0.0626448 -0.0322494 0)
(1.02923 -0.00524184 -4.29997e-22)
(0.902055 -0.198326 -6.70696e-21)
(0.821702 0.0196903 0)
(0.845728 -0.759351 -3.11734e-20)
(1.1677 -0.00128848 -6.59323e-20)
(1.03072 -0.00259983 7.33586e-21)
(1.0321 -0.00442662 -5.29801e-22)
(1.0298 -0.0163814 -2.16986e-21)
(1.13668 -0.0612614 -4.80852e-21)
(0.990803 -0.0393159 1.07547e-20)
(-0.0263732 -0.0138379 0)
(0.998304 -0.0034047 3.71473e-21)
(1.00978 -0.0158576 -2.0106e-21)
(-0.0271506 0.163189 -1.13549e-19)
(-0.0678515 0.0865714 -3.2547e-22)
(-0.00253739 -0.0591058 1.0041e-19)
(1.01834 -0.000150571 0)
(-0.130754 0.000764133 1.28907e-19)
(0.984906 -0.086882 6.20251e-21)
(0.231216 -0.674501 1.09968e-19)
(-0.0521586 -0.00535225 1.06797e-19)
(-0.0735137 -0.0527762 1.39989e-19)
(0.995441 -0.073824 4.22387e-21)
(1.09037 -0.0778888 5.18465e-21)
(1.26672 0.0234082 0)
(-0.0703486 0.0419413 4.71644e-20)
(-0.0545153 0.0402231 0)
(0.89645 0.014021 -1.94749e-20)
(1.00004 -0.000679681 -4.42378e-21)
(0.928801 -0.0599363 1.99476e-20)
(1.03269 -0.00692191 0)
(1.00597 -0.00860106 3.83479e-22)
(0.990191 -0.037337 3.66519e-21)
(1.00039 -0.00496426 7.96083e-21)
(1 -5.42119e-05 0)
(0.0368742 -0.0219746 0)
(1.00006 -0.00234386 -6.5642e-21)
(1.16396 -0.100549 0)
(1.08845 -0.0657035 1.34439e-21)
(1.14612 0.0803853 0)
(1.03071 -0.00220133 0)
(0.984854 -0.0794093 3.90213e-21)
(-0.0189077 -0.0505397 5.92679e-21)
(0.355136 -0.0447573 -1.57947e-19)
(-0.170259 0.0477578 -1.87272e-20)
(1.16291 -0.00413987 5.28126e-20)
(1.00943 -0.0150346 2.19165e-21)
(0.9978 -0.0761843 5.14125e-22)
(0.992677 -0.00713814 2.56426e-21)
(1.23741 -0.35073 -1.21557e-19)
(1.0158 -0.00177055 3.60984e-21)
(-0.00202917 -0.0578319 -8.44895e-20)
(0.972268 -0.424889 8.65037e-21)
(1.12084 -0.252538 -1.65425e-20)
(-0.115282 -0.0239434 0)
(-0.199966 0.136056 1.52285e-19)
(1.00067 -0.00287735 -5.98691e-21)
(0.996715 -0.0150738 -1.19586e-20)
(1.2692 0.0326628 1.1797e-20)
(1.24675 -0.335368 1.54444e-19)
(0.981311 -0.00169019 1.83818e-20)
(-0.119905 -0.00306623 0)
(1.00071 -0.00305061 5.95179e-21)
(0.999723 -0.00275139 0)
(0.497572 -0.885564 -1.7895e-20)
(1.01499 -0.00535128 3.62487e-21)
(1.17794 0.0210203 -6.73787e-20)
(1.02995 -0.005093 0)
(-0.135375 0.236811 -1.08224e-19)
(0.998516 -0.00342638 -3.49969e-21)
(1.04121 -0.016233 -4.58616e-21)
(-0.0217688 0.124397 -1.16916e-19)
(0.603159 0.0133885 -1.10309e-19)
(1.06208 0.0573501 -3.25784e-20)
(0.91032 -0.031441 2.18816e-20)
(1.00109 -0.00380649 7.55944e-21)
(1.00202 -0.0213217 0)
(0.384395 0.0297935 0)
(1.14079 -0.100122 3.78004e-20)
(1.02606 -0.00648797 0)
(0.999629 -0.00194496 1.09728e-20)
(0.893908 -0.127697 0)
(0.825524 0.0385881 -6.18532e-20)
(1.0568 0.0562658 -2.73258e-20)
(-0.284306 0.0426974 0)
(0.999714 -0.00222248 -2.04846e-20)
(0.997071 -0.00982243 -4.69566e-21)
(0.658031 -0.488256 -8.97598e-20)
(1.00116 -0.00373664 4.24312e-21)
(-0.0382787 -0.0909554 1.35095e-19)
(0.596135 -0.538236 1.31621e-20)
(0.997175 -0.00169983 9.00988e-21)
(0.997097 -0.005107 9.5434e-22)
(1.04557 -0.0153361 6.65837e-21)
(1.00083 -0.00328888 0)
(1.03014 -0.0146954 8.5118e-21)
(-0.143423 0.00513638 5.20398e-20)
(0.735328 -0.0798947 -3.31075e-20)
(1.36011 -0.11538 -4.87974e-20)
(0.878408 0.0268355 3.90543e-20)
(1.05262 -0.0040811 0)
(1.12741 -0.0252267 0)
(0.915183 -0.00200081 3.98424e-20)
(-0.068399 -0.00540934 1.51622e-19)
(0.900915 -0.0272247 -6.37763e-20)
(0.999982 -0.000661302 0)
(1.06036 -0.0452983 -9.31056e-22)
(1.17022 -0.428294 -5.64029e-20)
(0.980286 -0.0156284 0)
(0.982885 -0.0126853 -4.3155e-22)
(0.976258 -0.0121344 3.76994e-20)
(1.01551 -0.00171466 -3.46488e-21)
(0.999257 -0.00749614 -1.40106e-20)
(1.01729 -0.0265786 -2.28467e-21)
(0.996572 -0.00172025 9.16188e-21)
(1.00052 -0.00249501 0)
(0.971845 -0.0545812 0)
(1.06695 -0.0183425 -1.83239e-20)
(1.17393 0.0485079 -1.03591e-19)
(1.01689 -0.000377825 3.16311e-21)
(0.211693 0.0973157 -2.3584e-19)
(0.921072 -0.0540945 1.67077e-20)
(0.98332 -0.452498 -5.99883e-21)
(-0.0528175 0.10451 0)
(1.03617 -0.00562157 -1.11353e-20)
(0.0345999 0.173237 0)
(1.12985 -0.230522 -3.03543e-20)
(1.03528 -0.00674369 -8.54363e-21)
(1.01569 -0.00239461 2.93043e-21)
(0.985142 -0.0242585 -3.99525e-22)
(0.16501 0.0469513 8.13208e-20)
(1.17815 0.00982936 -3.75392e-20)
(1.01588 -0.00224623 -2.60918e-21)
(0.998716 -0.00257165 -1.28486e-20)
(0.999794 -0.00229316 1.0193e-20)
(0.698314 0.112413 0)
(1.01962 -0.405941 -2.14956e-20)
(0.725385 0.0307335 -1.37481e-19)
(1.00312 -0.00132889 4.49212e-21)
(0.984635 -0.00255045 1.45362e-20)
(0.857238 -0.0491181 0)
(-0.314598 0.0334567 1.40583e-19)
(-0.149439 -0.0139289 2.0582e-19)
(0.9351 -0.0318892 1.79699e-20)
(1.05597 -0.0169044 -2.18897e-20)
(-0.173999 0.0453196 3.38428e-20)
(1.13928 0.00688341 -9.52738e-20)
(1.21105 0.066756 0)
(0.977252 -0.0351883 7.04192e-21)
(1.00873 -0.0159938 -3.039e-21)
(-0.0714146 -0.0792636 -4.60048e-20)
(0.994649 -0.0123467 9.07857e-21)
(1.0533 -0.374674 2.89438e-20)
(1.11579 0.0692909 -5.33217e-20)
(1.02562 -0.0060317 0)
(0.618904 -0.394624 1.1131e-19)
(1.07236 -0.0636737 -2.30708e-20)
(-0.111644 0.0100873 1.30258e-21)
(1.0023 -0.0206306 0)
(-0.058343 -0.123372 0)
(1.2904 -0.088815 -1.01901e-19)
(1.06348 0.00211006 -3.0761e-20)
(1.40745 -0.10881 1.56727e-19)
(0.995764 -0.0125506 -8.54534e-21)
(0.876818 -0.710974 0)
(0.998291 -0.0029594 -6.37027e-21)
(0.997875 -0.0149932 0)
(1.00004 -0.00188652 -1.13659e-22)
(0.994646 -0.0080894 -9.3758e-21)
(0.127243 -0.0115062 0)
(0.996149 -0.0137226 0)
(1.03221 -0.00968685 -4.07803e-21)
(0.948222 -0.0247298 0)
(1.02909 -0.00580945 1.44956e-22)
(1.00841 -0.0164104 -1.70212e-21)
(1.06259 -0.19652 -2.49403e-20)
(0.985395 -0.0598487 1.6201e-20)
(1.09771 0.00292144 -1.07231e-19)
(1.00197 -0.00405397 3.33223e-21)
(1.00182 -0.00395071 2.72353e-21)
(-0.0237195 -0.0567461 4.35734e-20)
(0.640409 0.0198071 -6.90577e-20)
(0.937794 -0.0310832 1.37721e-20)
(-0.165277 0.0280598 3.70538e-20)
(1.06485 -0.0192023 -9.66397e-22)
(0.985329 -0.0419456 0)
(0.993394 0.00127271 1.72419e-21)
(1.0308 -0.0143235 -1.46847e-22)
(0.0172296 -0.0388169 -2.34156e-22)
(1.03229 -0.00900208 0)
(1.00166 -0.000604975 -9.01033e-22)
(-0.354192 0.0165564 -1.62065e-19)
(1.12236 0.0418937 -9.38146e-20)
(0.964284 -0.184705 -2.13894e-20)
(1.00264 -0.00911928 8.59892e-22)
(0.999991 -0.000362996 -8.36418e-21)
(1.03673 -0.0294113 1.46411e-20)
(0.999991 -0.0014865 1.2344e-22)
(-0.197277 0.0395249 -3.33784e-20)
(0.972481 -0.0301997 -9.15362e-21)
(0.207686 0.273426 0)
(1.0603 -0.00838579 -2.40722e-20)
(0.301451 0.415299 0)
(0.999974 -0.000894936 0)
(-0.357411 0.0222684 1.31028e-19)
(1.00914 -0.000356994 4.67698e-23)
(1.11513 -0.397056 0)
(0.993616 -0.0113946 0)
(1.10037 0.0906218 2.66256e-21)
(-0.0225862 -0.104229 1.04009e-19)
(0.998484 -0.00288989 0)
(0.81668 0.0595817 0)
(0.990198 -0.0140775 -4.0788e-22)
(1.00019 -0.000151548 0)
(1.0247 -0.00981557 0)
(0.363106 0.0453813 -9.92108e-20)
(-0.0621532 -0.0768759 5.29813e-20)
(0.984059 -0.0235006 -4.66675e-22)
(1.07612 -0.0646505 0)
(1.03254 -0.00758826 -9.3303e-21)
(-0.19015 0.0552647 2.05469e-19)
(1.01742 -0.000471682 -3.70063e-21)
(1.08266 -0.17019 1.76744e-20)
(-0.0582558 -0.113563 0)
(0.908308 0.000344401 5.37058e-20)
(1.00218 -0.00102349 1.71051e-21)
(0.811664 -0.158084 -2.93486e-20)
(1.00013 -0.000711971 -5.92435e-21)
(1.0382 -0.0291987 -5.59827e-21)
(1.02951 -0.0181068 -8.31839e-21)
(1.16639 0.0498499 6.39608e-20)
(1.00348 -0.00369781 -1.97244e-21)
(-0.155596 0.0666752 1.38089e-19)
(1.00164 -0.00395942 -5.67139e-21)
(0.993776 -0.0414738 0)
(1.09483 0.0216279 -2.10369e-20)
(0.773291 -0.264795 5.65512e-20)
(1.25794 0.0647503 -1.09835e-19)
(1.01888 -0.0233828 0)
(-0.3354 0.0223065 0)
(0.997253 -0.0155321 8.36068e-21)
(1.03892 -0.426239 -8.6092e-21)
(0.986408 -0.00804491 0)
(1.04356 -0.0183142 1.91094e-20)
(0.995046 -0.0128566 -8.5374e-21)
(1.00158 -0.00400502 5.79653e-21)
(0.999973 -0.000728787 0)
(1.03378 -0.447242 -3.82804e-20)
(1.06068 0.0379284 -1.92063e-20)
(0.742368 0.0581445 -7.21007e-20)
(1.22044 -0.10435 -7.60637e-20)
(0.834526 -0.0713058 0)
(0.915695 -0.144363 2.11871e-20)
(0.5668 -0.857303 -1.29504e-21)
(1.05487 -0.0430178 0)
(-0.198922 0.0354609 0)
(-0.158455 -0.0997944 -2.34587e-19)
(1.11321 -0.420604 0)
(1.1475 -0.170527 0)
(1.21225 0.0677983 1.86494e-19)
(1.07165 -0.39327 -3.98333e-20)
(1.03889 -0.0284064 5.50662e-21)
(0.0610943 -0.192803 0)
(1.0918 0.023901 -3.43011e-20)
(1.04184 -0.0184022 -1.35042e-20)
(1.13331 -0.432862 0)
(1.00008 -0.000636629 7.19665e-21)
(0.877574 -0.562839 0)
(0.970063 -0.170794 -1.90325e-21)
(1.227 0.0314069 0)
(0.883344 0.0178049 0)
(-0.0728416 0.082143 6.27411e-20)
(-0.231088 -0.0112817 8.8979e-20)
(1.09362 0.0167381 3.39642e-20)
(1.22125 0.0311839 7.20862e-21)
(0.999808 -0.00177189 1.23751e-21)
(1.0616 -0.544552 -5.74145e-20)
(0.94385 0.00703723 0)
(0.993911 -0.0108924 0)
(0.988258 -0.0368342 0)
(1.04918 0.00131703 1.42874e-20)
(1.13319 -0.0992908 -1.16879e-19)
(-0.0877077 -0.0461832 -6.39485e-20)
(0.896119 -0.495516 7.60866e-21)
(-0.249774 0.0546128 -8.16867e-20)
(1.05055 -0.0443907 0)
(0.960921 -0.0591419 -4.77886e-21)
(-0.11644 0.0146024 1.86903e-20)
(0.412795 0.0894717 -2.9873e-20)
(1.05391 -0.0192592 1.95436e-20)
(1.15945 -0.0150836 5.28019e-20)
(0.967763 -0.0341285 -2.52462e-20)
(0.248204 -0.78603 -9.86237e-20)
(0.00903128 0.137503 2.61458e-19)
(0.997102 -0.0019631 -9.09105e-21)
(0.681827 0.0692678 -1.74052e-19)
(0.68144 -0.448323 -1.04402e-21)
(-0.220659 -0.0531964 0)
(1.00346 -0.00120082 1.31057e-21)
(0.926522 -0.0662281 -3.6764e-21)
(0.320743 0.0455595 0)
(1.08694 -0.0176539 5.72765e-20)
(0.714781 0.0559726 3.29347e-20)
(1.10811 0.0897783 -9.36791e-20)
(1.17608 0.0851273 3.40209e-20)
(0.953724 -0.0853784 0)
(1.05566 -0.0460788 0)
(1.02251 -0.0326151 0)
(0.985244 -0.00389055 0)
(1.15249 0.143921 -1.72537e-20)
(1.00001 -0.000401069 7.85918e-21)
(1.16071 0.150768 -1.02882e-19)
(1.23511 -0.0753192 0)
(1.09052 -0.270861 -2.76948e-20)
(1.00004 -0.000308724 0)
(1.00018 -0.00130956 0)
(1.05278 -0.0017376 -1.77576e-20)
(1.04089 -0.00306234 -1.96558e-20)
(1.00644 -0.00106883 0)
(0.987288 -0.0145163 -7.94567e-21)
(1.21109 -0.106284 4.38765e-20)
(0.200979 0.0599812 0)
(-0.123595 0.0468635 -6.46989e-20)
(1.00002 -0.000413187 0)
(1.21619 -0.356691 -1.03756e-19)
(1.00225 -0.00797452 0)
(-0.168229 -0.131236 -5.93401e-20)
(1.11852 0.0153092 -2.16833e-21)
(0.783051 -0.11029 0)
(0.828892 0.0291127 6.00989e-20)
(1.28626 -0.0791734 9.39329e-20)
(1.00995 -0.00585175 0)
(0.999292 -0.0052846 1.16955e-20)
(0.826938 -0.154491 7.82027e-20)
(0.993921 -0.0122889 1.11734e-20)
(1.0353 -0.0288924 6.52224e-21)
(1.16307 -0.0421084 -8.92709e-20)
(-0.132579 0.0310889 8.61961e-20)
(1.02794 -0.00927865 5.56177e-21)
(1.15978 0.130097 1.75179e-19)
(-0.131431 -0.0253178 -1.01531e-19)
(1.06505 -0.0351686 0)
(-0.212283 0.120207 -4.18107e-20)
(-0.118616 -0.0284866 0)
(1.01784 -0.0277412 3.65555e-21)
(1.15488 -0.0837326 0)
(1.06594 0.00523042 -4.33974e-20)
(1.01914 -0.037302 0)
(1.02392 -0.00981929 0)
(0.620851 -0.149323 1.16372e-19)
(-0.143216 -0.0178621 1.01431e-19)
(-0.208385 0.0609886 -9.23943e-20)
(0.979269 -0.0168454 -2.64656e-20)
(0.995365 -0.00115278 -1.8066e-20)
(1.02142 -0.0133049 0)
(1.0508 0.00540542 8.52187e-21)
(0.98853 -0.0594828 -4.83625e-21)
(0.976621 -0.0725808 -4.63712e-21)
(0.498875 0.400782 1.09021e-19)
(1.1155 0.0191134 -1.9586e-21)
(1.00056 -0.00266563 0)
(1.28713 -0.00406661 8.97526e-20)
(1.09125 -0.0222674 -3.28948e-20)
(0.844934 -0.073025 -1.10814e-20)
(1.0353 -0.0274097 -4.86552e-22)
(-0.375397 0.00637827 0)
(1.05948 -0.0173488 0)
(1.00437 -0.0027763 0)
(1.10254 -0.268111 3.79782e-20)
(0.147457 0.0822286 0)
(1.02686 -0.00655523 2.70955e-21)
(0.996655 -0.00140673 0)
(0.993268 -0.00663729 -2.57033e-21)
(1.06134 0.001573 0)
(1.01002 -0.00553688 1.33447e-22)
(1.09692 0.0147456 0)
(1.27687 0.0120845 -1.9671e-19)
(0.996405 -0.045096 -6.40373e-21)
(1.16463 0.0541309 -1.03613e-19)
(1.05217 -0.019687 -1.88366e-20)
(1.03374 -0.0264957 -7.1036e-21)
(1.26012 0.0605954 1.55639e-19)
(-0.108058 -0.136712 -1.80467e-19)
(1.20572 0.0984896 2.31888e-20)
(0.999487 -0.00509418 0)
(1.02798 -0.00640959 0)
(0.989016 0.161717 0)
(0.906226 -0.0241816 -3.57724e-20)
(1.19296 0.163482 7.94755e-20)
(1.02657 -0.00533423 0)
(0.989313 -0.0141476 0)
(-0.301517 -0.00319611 8.56748e-20)
(0.13744 0.281818 0)
(1.08288 -0.0750525 -7.03748e-21)
(1.17691 0.0325097 -4.39986e-21)
(0.686509 0.00899802 -3.76542e-20)
(0.996063 -0.0156121 4.43042e-21)
(1.00003 -0.000263711 0)
(1.01557 -0.0366644 -9.55527e-22)
(-0.12594 -0.0638043 2.30759e-19)
(1.00179 -0.000733512 -3.53894e-21)
(0.999996 -6.55968e-05 0)
(-0.0784621 0.0363491 -1.13079e-19)
(0.888557 0.0182995 -4.03021e-20)
(1.29034 -0.158108 -1.08254e-19)
(0.836654 0.0114943 5.767e-20)
(1.00274 -0.00826866 0)
(-0.0871401 -0.145065 1.31701e-19)
(1.00003 -0.000784301 2.1605e-23)
(0.988154 -0.00988717 7.78955e-21)
(1.0143 -0.0361255 0)
(0.926913 -0.121291 1.8804e-20)
(-0.0288446 -0.0108276 0)
(1.00018 -0.00330852 -5.0683e-22)
(0.992603 0.000975623 -2.85141e-20)
(0.993565 -0.0127594 -1.86478e-20)
(0.995503 -0.0141403 0)
(1.00246 -0.00830102 0)
(1.02232 -0.0337276 0)
(1.03962 -0.158794 0)
(0.919973 -0.126473 -2.87426e-20)
(0.971556 -0.0513148 0)
(1.00039 -0.0043293 0)
(0.910971 -0.121929 -3.10281e-20)
(1.16739 -0.0796458 0)
(1.06209 0.00537968 -7.71279e-21)
(0.878692 0.0222513 -8.50384e-20)
(1.00001 -0.000119597 0)
(1.02139 -0.0126696 -3.29101e-21)
(1.00836 -0.0698301 4.96041e-22)
(-0.0472286 -0.0889875 0)
(-0.152323 0.0772186 1.45222e-20)
(1.05109 -0.00377729 0)
(-0.225481 0.0564104 -2.59614e-20)
(0.999773 -0.00167102 1.30064e-21)
(0.9531 -0.0800616 -2.24716e-20)
(1.34361 -0.337582 9.09689e-20)
(0.15282 -0.184952 0)
(1.02313 -0.0232083 0)
(1.00007 -0.00287981 8.43303e-21)
(0.423036 0.18567 2.10046e-19)
(1.14091 -0.00965975 0)
(1.00462 -0.00284831 3.35556e-21)
(0.999952 -0.00123766 0)
(-0.135918 0.0573446 -1.3676e-19)
(1.00003 -0.000192183 0)
(1.16149 -0.154255 -1.27762e-19)
(0.996781 -0.00498969 -5.00821e-22)
(0.346792 -0.00743826 1.48617e-19)
(0.999963 -0.00130156 0)
(1.0101 -0.000228921 -7.486e-22)
(0.99886 -0.00268809 6.78038e-21)
(1.06373 -0.102895 -3.41889e-20)
(1.04009 -0.00278049 9.0671e-21)
(0.935652 -0.0544714 2.58421e-20)
(0.900403 0.0116216 0)
(0.531518 0.0810458 -5.00614e-20)
(1.00519 -0.00881598 1.64551e-21)
(0.99951 -0.00737868 1.07788e-20)
(1.00008 -0.00042649 0)
(0.998307 -0.0154489 0)
(1.03941 -0.025911 0)
(1.03935 -0.0104896 0)
(1.09033 -0.0701321 -3.76038e-20)
(0.998539 -0.00262421 -9.16988e-22)
(1.12891 0.0183676 0)
(-0.15991 0.0518674 0)
(1.13055 -0.0628285 2.65909e-20)
(1.16946 -0.0449078 0)
(0.999731 -0.00203802 -1.42112e-21)
(1.03017 -0.0175443 -5.27801e-21)
(-0.283269 -0.00370989 1.1878e-20)
(0.663148 0.201004 -4.82825e-20)
(1.02361 -0.00913206 3.67519e-21)
(-0.217745 0.100446 0)
(-0.345152 0.00521271 0)
(1.02821 -0.00675394 2.20292e-21)
(0.992336 0.000551564 1.42351e-20)
(1.00198 -0.0135568 4.05928e-22)
(1.15739 -0.229356 4.2496e-20)
(1.12849 0.022623 -9.9003e-21)
(0.133945 -0.14466 -1.33516e-19)
(1.00575 -0.00885998 1.93055e-21)
(1.02731 -0.086319 1.53802e-20)
(1.00595 -0.00653617 6.51479e-22)
(0.968098 -0.029869 2.03442e-20)
(1.00923 -0.000315056 3.33459e-22)
(1.07256 -0.294129 0)
(1.03967 -0.0247308 -6.2561e-21)
(1.27547 -0.177076 2.52094e-20)
(0.999689 -0.00470106 -6.06142e-22)
(0.930071 -0.266962 -1.16363e-20)
(1.00451 -0.00802702 -2.52523e-21)
(0.965159 -0.0552298 0)
(0.98647 -0.0101843 -1.81556e-20)
(1.06268 0.0333472 6.98018e-22)
(0.71316 0.113717 -5.57919e-20)
(-0.340928 0.0145871 1.45233e-19)
(0.391472 0.307508 -1.38696e-19)
(-0.217393 0.100338 -1.07894e-19)
(1.13714 -0.0175022 6.24208e-20)
(0.988942 -0.0153108 0)
(0.583936 -0.797649 1.14195e-21)
(0.0725688 -0.157232 3.62225e-19)
(1.13695 0.0295556 0)
(1.03721 -0.023484 -7.59945e-21)
(1.00027 -0.00491739 4.71916e-21)
(0.164296 0.199637 -1.56378e-19)
(1.00226 -0.0141428 -5.44042e-21)
(-0.0328066 -0.00306404 0)
(1.03069 -0.00426576 -7.02649e-21)
(1.08095 0.00120186 -1.87118e-20)
(1.04205 -0.023822 2.08524e-20)
(0.999948 -0.000500922 -1.35038e-20)
(1.023 -0.0243202 0)
(1.01545 0.055081 2.21454e-21)
(-0.100376 -0.0560668 -1.57739e-19)
(-0.0359594 0.0107052 1.37844e-19)
(0.657213 0.0271218 1.7275e-20)
(-0.244122 -0.0100186 1.56831e-19)
(0.994487 -0.00759085 -9.14008e-21)
(0.0507778 0.0370512 -1.91087e-19)
(0.438889 0.0343781 0)
(1.00003 -0.000135208 4.66243e-21)
(0.992911 -0.0396415 -6.69275e-21)
(1.01144 -0.00776392 0)
(1.23965 0.0829901 -3.48118e-20)
(1.02491 -0.00608006 -4.6632e-21)
(-0.163967 0.0627959 0)
(0.849678 -0.0553892 0)
(1.22787 -0.0288647 -8.25316e-20)
(1.00885 -0.0483268 1.70466e-21)
(1.28806 -0.373371 -7.30441e-20)
(-0.255492 0.0406956 0)
(0.167322 -0.000579452 5.48244e-19)
(0.941948 -0.11867 -1.51436e-20)
(1.09876 -0.0565739 -3.436e-20)
(1.002 -0.00106941 -2.23351e-21)
(0.410564 -0.148006 1.91544e-19)
(1.02616 -0.00444282 0)
(0.391704 0.276978 0)
(1.25756 -0.0193933 1.0373e-19)
(0.815536 -0.265137 0)
(0.620231 0.056668 -7.00771e-20)
(0.0733527 -0.0281322 -1.53611e-19)
(1.06081 -0.0335034 -1.38238e-20)
(1.01441 -0.0690369 1.56983e-21)
(1.00361 -0.00399666 -2.02033e-21)
(1.08995 0.101609 2.4744e-20)
(-0.14563 0.0498566 -1.82861e-19)
(-0.189483 -0.0149261 -1.45503e-19)
(1.01063 -0.00730362 3.23485e-24)
(0.203942 0.570723 6.89211e-21)
(1.0601 0.00468001 -2.62706e-20)
(1.18447 0.0439034 -7.58879e-20)
(0.557127 0.0854225 0)
(-0.138985 0.0304438 -2.5268e-20)
(-0.138024 0.035067 2.34016e-22)
(1.03212 -0.00384999 5.7318e-22)
(0.918153 -0.057917 3.97267e-20)
(1.09284 -0.0128863 -8.43211e-21)
(1.06004 -0.0067518 -2.27105e-20)
(1.05363 -0.000608914 3.03202e-20)
(-0.134026 0.0793141 0)
(0.999831 -0.00235767 -1.16215e-21)
(0.664706 0.00641375 1.61031e-19)
(1.01727 -0.000383022 -3.30511e-21)
(1.03142 -0.00349003 2.43709e-22)
(1.14119 -0.211832 2.93508e-20)
(1.18458 0.0325656 1.38062e-19)
(1.25204 0.0889551 -1.31926e-19)
(1.04319 -0.0366313 7.96554e-21)
(0.835252 -0.393094 -2.27617e-21)
(1.07782 -0.223432 -5.8292e-20)
(1.31118 -0.298088 -2.27948e-19)
(0.892302 0.0120156 2.06555e-20)
(1.00015 -0.000641901 5.4176e-21)
(1.04189 -0.0378536 2.87723e-23)
(1.00018 -0.000658246 -7.26532e-21)
(0.984737 -0.0116171 4.5949e-21)
(1.30983 -0.31746 1.64443e-19)
(1.18236 0.161213 -7.06535e-20)
(1.02557 -0.0411663 1.01101e-20)
(0.985538 -0.00869029 0)
(1.09438 -0.00651365 -3.53311e-20)
(0.192505 -0.189744 0)
(1.01965 -0.0936749 -9.61404e-22)
(0.986162 -0.000495369 -2.94729e-21)
(0.378634 0.0801179 -8.27338e-20)
(0.993352 -0.00802562 -5.81364e-22)
(0.999991 -0.000396229 1.2959e-20)
(1.02667 -0.0047998 0)
(1.12202 0.0420145 3.30085e-20)
(0.996002 -0.00144266 0)
(1.06488 -0.00707472 0)
(-0.0320003 0.0719332 -8.70941e-20)
(1.16708 -0.0946045 0)
(1.00581 -0.000199662 0)
(0.131582 0.545217 6.36886e-20)
(0.565451 0.0352397 -1.25232e-19)
(0.993524 -0.00871836 8.28518e-21)
(1.05029 -0.00501786 1.61145e-20)
(1.10546 -0.0512078 0)
(1.00005 -0.000206404 0)
(1.00182 -0.00765926 -3.61691e-21)
(1.01851 -0.0215071 2.91037e-22)
(0.913612 -0.0872814 -7.073e-20)