/*--------------------------------*- C++ -*----------------------------------*\
| =========                 |                                                 |
| \\      /  F ield         | OpenFOAM: The Open Source CFD Toolbox           |
|  \\    /   O peration     | Version:  v2012                                 |
|   \\  /    A nd           | Website:  www.openfoam.com                      |
|    \\/     M anipulation  |                                                 |
\*---------------------------------------------------------------------------*/
FoamFile
{
    version     2.0;
    format      ascii;
    class       surfaceVectorField;
    location    "700";
    object      Uf;
}
// * * * * * * * * * * * * * * * * * * * * * * * * * * * * * * * * * * * * * //

dimensions      [0 1 -1 0 0 0 0];


internalField   nonuniform List<vector> 
14470
(
(0.961578 -0.0201503 7.37155e-21)
(0.959642 -0.0200714 5.995e-21)
(0.960901 -0.0180678 -5.16186e-21)
(-0.0979611 -0.00159014 -3.19228e-20)
(-0.100977 -0.00149633 0)
(0.991996 -0.00657949 -9.31663e-21)
(0.992385 -0.00702255 4.27024e-22)
(0.991726 -0.00730062 4.94272e-21)
(-0.0418436 0.00071219 4.34355e-20)
(-0.0359142 -0.00164997 6.76968e-20)
(-0.0380948 0.00676137 6.35275e-20)
(0.999962 -0.000729337 -4.03608e-21)
(0.999956 -0.00070798 2.36762e-22)
(0.999925 -0.000977557 1.68727e-21)
(1.24816 -0.0235924 3.03115e-22)
(1.25562 -0.0211676 2.36276e-22)
(1.25334 -0.0296767 -3.99128e-20)
(1.12505 -0.248634 -1.25999e-20)
(1.13104 -0.237765 4.47134e-20)
(1.14121 -0.248052 5.13909e-20)
(-0.14235 0.036462 0)
(-0.131811 0.040685 7.86117e-20)
(-0.185623 0.0390884 0)
(1.0234 -0.0402258 2.59449e-21)
(1.0249 -0.041092 -1.02497e-21)
(1.02315 -0.0420485 -1.00669e-21)
(1.00011 -0.00260488 -1.23247e-21)
(1.00008 -0.00241785 3.84142e-21)
(1.0001 -0.00240525 -7.51865e-22)
(1.00008 -0.00280077 -4.57101e-21)
(1.00014 -0.00281072 2.98343e-21)
(1.00278 -0.00972299 6.18486e-21)
(1.00266 -0.00927222 1.35877e-21)
(1.00244 -0.00956831 -2.40584e-22)
(-0.142908 0.0434758 -1.76591e-20)
(-0.150623 0.0397121 5.23666e-20)
(-0.155348 0.0416426 -1.1756e-20)
(1.02176 -0.0254763 -3.06314e-21)
(1.02114 -0.0244996 -1.37887e-21)
(1.02251 -0.0245093 -3.02648e-21)
(1.06367 0.00326562 3.32795e-21)
(1.06509 0.00458668 1.61365e-20)
(1.06287 0.00499063 -6.83348e-21)
(1.15067 -0.0663849 5.37971e-21)
(1.1575 -0.0687504 -3.75866e-21)
(1.15259 -0.0742273 -2.11837e-20)
(0.99439 -0.00906708 4.76337e-21)
(0.994362 -0.00954199 0)
(0.994861 -0.00926097 -6.5199e-21)
(-0.0641769 -0.132449 8.85889e-21)
(-0.0615554 -0.133814 1.73457e-21)
(-0.0671467 -0.144763 -1.5545e-20)
(1.01937 -0.00567677 -5.14597e-22)
(1.0193 -0.00523314 2.58504e-21)
(1.01973 -0.00544677 -1.53282e-21)
(1.02504 -0.0108134 -4.57168e-21)
(1.02576 -0.0105325 -2.81043e-21)
(1.02496 -0.0101506 1.21132e-21)
(0.999988 -0.000264238 4.12784e-21)
(0.99999 -0.000275133 3.96941e-21)
(-0.0492367 0.0537852 1.87793e-21)
(-0.0441306 0.0627114 1.24381e-20)
(-0.0400321 0.0508782 1.1426e-20)
(-0.107687 0.0297703 0)
(-0.165626 0.0327505 0)
(-0.129661 0.0448805 1.5795e-20)
(-0.133267 0.0455074 4.35532e-20)
(0.918354 -0.0670715 -8.55631e-21)
(0.923461 -0.0657126 -2.42434e-20)
(0.919093 -0.0611793 -6.82831e-22)
(1.00017 -0.00460895 -5.49595e-21)
(1.00026 -0.00479862 2.51137e-21)
(1.00026 -0.00450669 0)
(1.00003 -0.000501895 7.42043e-23)
(1.00003 -0.000576503 8.4679e-23)
(1.00007 -0.000715413 -2.23921e-22)
(1.01908 -0.00582903 0)
(1.01946 -0.00606648 -4.27603e-21)
(1.17525 -0.146436 2.36058e-20)
(1.18396 -0.144472 1.85999e-20)
(1.18155 -0.154646 -7.28774e-21)
(-0.331313 0.00393119 4.61772e-20)
(-0.331881 0.00423085 -3.12552e-20)
(-0.365437 0.00618977 3.92682e-20)
(1.29963 -0.0387741 0)
(1.28774 -0.0402395 0)
(1.29611 -0.0487343 -4.24926e-20)
(0.996625 -0.00456235 0)
(0.996438 -0.00428594 0)
(0.996267 -0.00465296 4.94892e-21)
(0.997511 -0.00928535 -1.06892e-22)
(0.99727 -0.00969234 2.73253e-21)
(0.997691 -0.00974405 -4.48546e-21)
(1.00615 -0.000656272 1.38047e-22)
(1.00586 -0.000647163 1.11658e-21)
(1.00573 -0.000370661 6.11136e-22)
(1.08836 -0.0265597 1.99752e-20)
(1.08728 -0.0291597 7.96347e-21)
(1.09023 -0.0281412 2.00273e-21)
(1.06098 -0.0024072 -2.30272e-20)
(1.06078 -0.00408568 -3.09318e-21)
(1.0593 -0.00330235 2.63324e-21)
(0.913278 -0.00253046 -1.96661e-20)
(0.909684 -0.000982098 1.73771e-20)
(0.910361 -0.00597315 -5.00231e-20)
(-0.1168 -0.0393055 -6.20089e-20)
(-0.114498 -0.0419585 1.25746e-20)
(-0.108435 -0.0461301 -3.81449e-20)
(1.08937 -0.0770739 -1.52611e-21)
(1.08514 -0.0750492 5.49333e-21)
(1.08913 -0.0720954 1.79374e-21)
(1.16547 -0.149637 -3.22384e-20)
(1.16756 -0.140121 4.91645e-20)
(1.10513 0.0485299 6.13531e-20)
(1.09782 0.0455151 -5.46539e-20)
(0.942015 0.0576076 5.31317e-20)
(-0.150917 -0.00753204 -7.69866e-20)
(-0.142736 0.0154062 -4.05944e-20)
(-0.180356 0.00118108 -4.24767e-20)
(1.00001 -0.000322808 2.7918e-22)
(1.00003 -0.000473226 -2.29011e-22)
(0.992053 -0.000515383 -6.81049e-21)
(0.991595 -0.000725635 4.97367e-21)
(0.991613 -0.000130759 -1.51783e-20)
(0.99623 -0.00105129 5.52696e-21)
(0.996532 -0.00126386 -1.83069e-21)
(0.996471 -0.000898384 -1.88983e-21)
(-0.301606 0.0387018 8.39066e-21)
(-0.30743 0.0363773 -7.94233e-20)
(-0.287526 0.0440847 2.51231e-21)
(0.999998 -0.000601679 3.64763e-21)
(1.00002 -0.000305141 0)
(1.00002 -0.000297492 -3.91081e-21)
(1.03334 -0.00851174 4.42948e-21)
(1.03294 -0.00783416 -3.31434e-22)
(1.03394 -0.00796502 -1.7092e-21)
(0.994456 -0.00843293 9.11792e-21)
(0.993901 -0.00876474 -3.00913e-21)
(1.08996 -0.0231577 2.91955e-20)
(1.08631 -0.0242083 8.29549e-21)
(1.0064 -0.000909737 -1.58649e-21)
(1.00647 -0.000608759 -1.85515e-22)
(1.11393 -0.0450691 8.30672e-21)
(1.11782 -0.0479535 -6.50419e-20)
(1.11714 -0.0424159 -8.53349e-21)
(1.00002 -0.000882208 -1.85343e-22)
(1 -0.000922798 7.92499e-21)
(0.898017 -0.127218 -9.33878e-21)
(0.907628 -0.125378 -2.16964e-20)
(0.905068 -0.135899 1.78754e-20)
(-0.0486794 -0.00642357 -2.58342e-20)
(-0.0517813 0.00314655 1.03737e-20)
(1.00295 -0.00884208 0)
(1.00282 -0.00843157 -1.8796e-21)
(1.00313 -0.00861354 3.4333e-21)
(1.17626 0.023905 -1.13747e-19)
(1.17574 0.0298867 -2.33067e-20)
(1.17074 0.0267629 -3.4895e-20)
(1.0328 -0.00889603 -1.04669e-22)
(1.03371 -0.00906794 0)
(1.00001 -0.000317092 4.13252e-21)
(0.898952 -0.0252527 0)
(0.89345 -0.0239783 0)
(0.897983 -0.0194457 0)
(0.82944 -0.338072 1.85056e-20)
(0.84798 -0.347327 -1.28912e-20)
(0.82259 -0.368999 -5.65921e-21)
(0.993868 -0.0071424 -7.71201e-23)
(0.993551 -0.00678136 -7.48476e-23)
(0.994099 -0.00663167 5.75906e-21)
(1.09678 0.00949774 -4.15422e-20)
(1.09648 0.00539409 4.58711e-20)
(1.093 0.00833038 -3.98288e-21)
(1.00323 -0.0013394 -1.40842e-21)
(1.00341 -0.00124767 1.62175e-21)
(1.00345 -0.00150493 -8.63546e-22)
(1.02199 -0.0393612 2.79247e-21)
(1.02345 -0.0386607 -2.85478e-22)
(-0.303735 0.0203615 4.83629e-20)
(-0.293258 0.0205073 9.75127e-20)
(1.0595 -0.0460448 2.20983e-20)
(1.05712 -0.0465086 6.40506e-21)
(1.05895 -0.0487448 -1.74974e-21)
(1.06117 -0.000916526 4.39747e-21)
(1.06097 0.000779009 -5.03688e-21)
(1.05946 -0.000250998 -5.41551e-21)
(0.0315266 -0.0456716 2.059e-20)
(0.0599939 -0.0332398 -1.16801e-19)
(0.0625435 -0.0322753 -6.36679e-21)
(0.978289 -0.0125538 0)
(0.976988 -0.0123182 0)
(0.978132 -0.0113139 -2.44535e-21)
(0.593246 0.0128327 7.2097e-20)
(0.573465 0.0257288 2.21321e-20)
(0.572447 -0.00220012 6.41166e-20)
(-0.216361 0.0481756 -1.29415e-20)
(-0.176955 0.0504877 -1.28265e-21)
(-0.215836 0.0527437 -1.71392e-21)
(0.937618 0.252103 2.06316e-20)
(0.828468 0.259842 5.27392e-20)
(0.92162 0.252206 -3.76769e-20)
(0.221939 0.00624976 3.38163e-20)
(0.161326 -0.00383643 -6.78188e-20)
(0.225983 0.00914856 0)
(1 -0.000829179 -6.22591e-22)
(0.999993 -0.000901244 -5.15357e-21)
(1.00003 -0.00114113 -1.06029e-20)
(0.79108 -0.14533 -5.69229e-20)
(0.806288 -0.152233 1.45514e-21)
(0.803373 -0.135992 -1.32152e-20)
(0.946935 0.0143 0)
(0.774232 0.0249358 0)
(0.777319 0.0168923 2.04393e-20)
(0.994495 -0.00385746 -2.71606e-21)
(0.994277 -0.00421806 4.34942e-21)
(0.994736 -0.00416225 2.90415e-21)
(0.999975 -0.000804855 9.59015e-22)
(0.999978 -0.000805161 -8.97721e-21)
(0.999987 -0.000541801 -3.28949e-22)
(0.780631 -0.151903 -4.83882e-20)
(0.778876 -0.134684 -2.67879e-20)
(-0.0709518 -0.128834 -1.2895e-21)
(-0.0619348 -0.122101 3.03783e-20)
(1.14468 -0.0652476 5.0906e-21)
(1.14897 -0.0602426 -1.64544e-22)
(0.980491 -0.0764727 2.46153e-21)
(0.983858 -0.0779179 0)
(0.984064 -0.0741712 1.83756e-21)
(1.06276 -0.00153194 1.03197e-21)
(1.28507 -0.162065 -4.14069e-20)
(1.27783 -0.171598 4.68175e-20)
(1.27434 -0.158738 3.23492e-20)
(0.999969 -0.000809256 5.73444e-21)
(0.999946 -0.00106752 4.28593e-21)
(1.13329 0.0526602 -1.72137e-21)
(1.12888 0.0477389 1.70523e-21)
(1.12663 0.0537031 3.15799e-20)
(-0.118657 -0.0365093 6.67335e-20)
(-0.124917 -0.033059 -2.38595e-20)
(0.824892 -0.316828 1.99718e-20)
(0.801137 -0.337769 7.02892e-20)
(-0.0665041 0.0382856 -1.20388e-20)
(-0.0584691 0.0374802 -2.98596e-20)
(-0.063668 0.0293934 -2.90291e-20)
(1.38548 -0.205986 6.80051e-20)
(1.38233 -0.191668 -3.02216e-20)
(1.39702 -0.195797 8.78355e-20)
(1.39818 -0.224129 2.7723e-20)
(1.36846 -0.214576 -1.06654e-19)
(1.09581 -0.126469 -1.72136e-22)
(1.10243 -0.132653 -3.87693e-20)
(1.10297 -0.123604 -2.79186e-20)
(-0.149361 -0.0373419 1.16801e-19)
(-0.118739 -0.015759 1.07542e-20)
(0.996004 -0.0127329 0)
(0.996192 -0.0133576 0)
(0.996567 -0.0127412 -1.06749e-21)
(0.220428 0.0112259 -5.86696e-20)
(0.305443 0.0198008 3.07372e-20)
(1.14852 -0.0925072 -3.22898e-20)
(1.14298 -0.0962358 2.3372e-20)
(1.14257 -0.088944 4.4923e-20)
(1.04615 -0.0683242 -6.02587e-21)
(1.04917 -0.0693513 -9.126e-21)
(1.04652 -0.071716 -1.78604e-20)
(0.999988 -0.000498262 4.82053e-23)
(0.999962 -0.000786164 -1.86222e-23)
(-0.133601 0.00244956 3.90926e-20)
(-0.139566 0.00494087 3.93504e-20)
(-0.135211 0.0103638 -4.24767e-21)
(1.11123 -0.0485064 2.15613e-20)
(1.11 -0.0431756 2.22473e-20)
(0.01476 0.268861 -3.82439e-21)
(-0.0424131 0.265135 -4.84102e-20)
(-0.00061878 0.279225 0)
(0.992487 -0.000222329 1.29786e-21)
(0.992537 -0.000785737 1.46367e-21)
(0.165127 0.0156505 4.34666e-20)
(0.105701 0.00447944 1.11035e-19)
(0.127957 0.00464676 9.67367e-20)
(0.616375 0.0347475 -1.60709e-21)
(0.475276 0.0364919 -3.66658e-21)
(0.461734 0.0435719 -1.61173e-19)
(1.0284 0.239419 -1.20746e-20)
(0.958106 0.249996 -4.32236e-20)
(1.00532 -0.00734008 0)
(1.00528 -0.00765183 -1.19719e-22)
(1.00502 -0.00730394 0)
(0.99424 -0.00354276 0)
(0.994716 -0.00352486 0)
(0.999984 -0.000237927 -9.10104e-24)
(1.0001 -0.00116038 -7.09153e-21)
(1.00012 -0.00113117 -2.30684e-22)
(1.00015 -0.00135715 4.05802e-22)
(-0.0537016 0.0446604 -4.11712e-20)
(-0.0573885 0.0544241 1.7253e-21)
(0.114311 -0.138156 -9.86786e-20)
(0.0785967 -0.145274 9.30068e-20)
(0.0836436 -0.105411 1.41856e-19)
(-0.301615 -0.00252041 -4.6099e-20)
(-0.306979 -0.00225627 -7.79038e-20)
(-0.329106 0.00134697 -1.50244e-19)
(0.9795 -0.0125684 7.60312e-21)
(0.97862 -0.013457 0)
(0.999224 -0.00373406 -7.81807e-21)
(0.99922 -0.00395611 7.41323e-21)
(0.999064 -0.00384424 -2.10187e-21)
(1.05207 0.00307221 6.32404e-21)
(1.05086 0.00304824 6.85911e-21)
(1.05167 0.00448715 5.83039e-21)
(0.996686 -0.00187034 3.46919e-22)
(0.996956 -0.0019956 3.40828e-22)
(0.996758 -0.00217705 -4.23848e-21)
(-0.0554559 -0.0129112 1.50092e-21)
(-0.0641413 -0.0103389 1.38788e-20)
(-0.0610042 -0.0194122 2.72224e-20)
(0.995855 -0.00032666 -3.77945e-21)
(0.99577 -0.000602778 -1.70719e-20)
(0.995559 -0.00030168 -1.79383e-20)
(0.0725681 0.0048554 -4.06651e-20)
(0.0816567 0.0117676 -4.67711e-20)
(0.0306229 0.00101578 2.37094e-20)
(1.13797 0.0567832 3.27031e-20)
(1.1402 0.0501972 -5.44536e-20)
(0.524679 0.0443446 0)
(0.418277 0.0294724 0)
(0.443679 0.0403455 0)
(1.12758 -0.0228302 2.85025e-20)
(1.12882 -0.018011 1.68701e-20)
(1.12426 -0.0191098 2.9093e-20)
(1.06055 -0.00602306 -1.53866e-21)
(1.06268 -0.005215 9.40661e-21)
(0.995863 -5.75948e-06 -4.10266e-21)
(0.996143 -0.00036745 9.96012e-21)
(1.15927 -0.0844372 0)
(1.16619 -0.0816272 0)
(1.16558 -0.0901378 -1.04e-21)
(-0.334341 0.00425523 -9.83558e-20)
(-0.301352 0.00287362 6.06111e-20)
(1.15789 0.118259 -4.98679e-20)
(1.15761 0.112271 -6.11188e-20)
(1.16443 0.114215 -1.67422e-20)
(1.15825 0.125703 -3.20217e-20)
(1.15076 0.125125 1.17651e-20)
(1.0616 -0.0216365 -1.41071e-20)
(1.06108 -0.0196614 -1.34823e-20)
(1.05976 -0.0212061 -1.39089e-20)
(1.00757 -0.0162073 -1.14264e-21)
(1.00811 -0.0162265 -1.36976e-21)
(1.0076 -0.0156171 2.91776e-22)
(0.963683 -0.0197256 -2.59215e-20)
(0.962598 -0.0217135 0)
(1.05366 -0.0426685 -4.79299e-21)
(1.05152 -0.0433275 5.07677e-21)
(1.05199 -0.0409648 -9.55607e-21)
(1.08508 -0.0307131 0)
(1.08187 -0.0297626 -1.24896e-21)
(1.0825 -0.0331793 -1.63243e-20)
(1.21351 -0.241454 0)
(1.20271 -0.248806 -4.35518e-20)
(1.21723 -0.256761 -4.84908e-20)
(1.26505 0.0255863 2.75887e-22)
(1.26559 0.0304789 -2.41254e-21)
(1.2553 0.0268765 -2.44139e-21)
(1.0532 0.003536 1.11701e-20)
(1.05252 0.00211017 0)
(1.00001 -0.000795644 5.2582e-21)
(0.999997 -0.000528628 5.85708e-21)
(1.16553 -0.0570721 1.92934e-21)
(1.16949 -0.0540409 3.65587e-20)
(1.17064 -0.0606002 3.55843e-20)
(-0.0677031 -0.109129 6.30791e-20)
(-0.0712767 -0.119334 -2.93133e-20)
(-0.0594807 -0.108647 0)
(1.08751 -0.0325176 1.43353e-21)
(0.983737 -0.0212638 -1.31509e-20)
(0.984137 -0.0227382 0)
(0.985029 -0.0213701 0)
(1.12329 0.0342384 5.89214e-20)
(1.12157 0.0392889 2.76438e-20)
(1.11813 0.0353468 3.5773e-20)
(-0.293248 0.0416687 6.87073e-20)
(-0.285991 0.0439799 0)
(-0.277708 0.0499527 0)
(1.15615 -0.466036 1.16498e-20)
(1.13937 -0.469503 -7.44171e-21)
(1.14598 -0.488197 4.95426e-20)
(0.995867 0.000298158 -3.25088e-21)
(0.99615 0.000278966 1.99332e-20)
(0.229923 0.0158156 -1.19546e-19)
(0.183434 -0.000302237 -5.98486e-20)
(1.00712 -0.0162518 1.93587e-21)
(1.00763 -0.016829 -1.43107e-21)
(0.99556 0.000310895 -1.7403e-20)
(0.999322 -0.00520502 -3.863e-21)
(0.999438 -0.00507298 9.5294e-22)
(0.999315 -0.00494754 6.05945e-21)
(0.0419664 -0.0512984 2.48399e-20)
(0.253926 -0.098872 -1.89896e-21)
(0.113749 -0.0633775 -6.35327e-20)
(1.0429 -0.0672625 -8.14247e-21)
(1.04532 -0.0651716 8.49087e-21)
(1.0001 -0.0045039 -2.06197e-21)
(1.00011 -0.00473667 -1.21546e-21)
(0.984565 -0.00286221 1.29045e-20)
(0.98488 -0.00359962 -2.75284e-21)
(0.984016 -0.00362292 -1.54249e-21)
(1.39371 -0.247716 -1.24668e-20)
(1.37004 -0.246266 -1.20268e-20)
(1.38221 -0.262092 1.14094e-19)
(1.16133 -0.0622798 -5.44594e-20)
(1.16417 -0.07103 -2.63741e-21)
(0.994208 -0.00753591 0)
(0.993642 -0.00774592 4.65466e-21)
(1.30306 -0.0293362 0)
(1.31617 -0.0377597 0)
(0.983424 -0.0125769 4.12476e-21)
(0.98433 -0.0121127 0)
(0.984272 -0.0132454 -2.85341e-21)
(1.12526 0.0431392 -6.12987e-20)
(1.13121 0.0418561 -3.31666e-20)
(1.06357 -0.022 1.65979e-20)
(1.06213 -0.0235976 -8.20153e-21)
(1.02521 -0.0113594 -3.82684e-21)
(1.02453 -0.0110481 -6.34212e-22)
(0.584781 -0.428215 -4.893e-20)
(0.595994 -0.458845 -1.75846e-20)
(0.556579 -0.450279 -4.58717e-20)
(1.04106 -0.0166811 -6.01024e-21)
(1.0413 -0.0177509 2.20749e-21)
(1.04001 -0.0174425 -2.5429e-21)
(1.10603 0.00426984 -2.47075e-20)
(1.12215 -0.00829633 1.01766e-20)
(-0.0889945 0.254718 2.40312e-20)
(-0.121128 0.245553 3.43321e-20)
(-0.0953715 0.260548 7.43023e-20)
(1.04402 -0.0202382 -2.20438e-20)
(1.04391 -0.0216216 -5.55805e-21)
(1.04255 -0.0209255 -1.12071e-20)
(1.00535 -0.00701661 4.19636e-22)
(1.00534 -0.00670291 4.04594e-22)
(1.00505 -0.00669705 -2.04932e-21)
(1.00005 -0.00219901 7.83228e-23)
(1.00004 -0.00195508 -4.07718e-22)
(1.00003 -0.00195306 3.75857e-21)
(0.983292 -0.0203546 -8.37351e-21)
(0.982476 -0.0214901 -2.03159e-21)
(-0.231116 -0.00803364 -5.19317e-20)
(-0.207603 -0.0125559 6.56771e-20)
(-0.240313 -0.00601321 1.20545e-19)
(0.512295 -0.276199 1.32015e-19)
(0.301729 -0.188239 -5.48822e-20)
(0.179429 -0.1361 1.76264e-19)
(-0.1667 0.0234748 1.52637e-19)
(-0.175181 0.0210108 3.19874e-20)
(-0.157301 0.0157829 -3.30594e-20)
(1.00278 -0.0102859 4.28066e-21)
(1.00311 -0.00996613 -5.46638e-21)
(1.23992 -0.0266265 0)
(1.24213 -0.0186926 0)
(1.02436 -0.391332 0)
(1.04199 -0.377582 -1.91079e-20)
(1.02147 -0.370071 0)
(0.571363 -0.539859 7.3974e-20)
(0.532136 -0.575805 5.54933e-20)
(0.531366 -0.511601 -5.2723e-21)
(0.994024 -0.00461726 7.72672e-21)
(0.994332 -0.00495136 0)
(0.993787 -0.00502339 0)
(1.06078 -0.0410709 3.25429e-21)
(1.0601 -0.0436717 1.07118e-20)
(1.05823 -0.0412195 -6.48441e-21)
(0.238086 0.026628 -4.43865e-20)
(0.215066 0.0293919 -9.03641e-20)
(-0.307803 0.0320912 -2.33356e-20)
(1.13588 0.0618361 5.18353e-20)
(1.14287 0.0604602 -2.53711e-21)
(0.99604 -0.00127137 6.71753e-21)
(0.995934 -0.000884304 -1.37157e-21)
(0.997311 -0.00172101 -8.76049e-21)
(0.997483 -0.00159317 3.37668e-22)
(0.997537 -0.00185298 -4.21871e-21)
(1.00564 -0.00733631 0)
(0.664129 0.0527989 1.75307e-20)
(0.630557 0.0535921 -1.26444e-20)
(-0.219808 0.0433925 -1.23765e-20)
(-0.248136 0.0452503 4.11878e-21)
(0.808981 -0.39231 2.81736e-20)
(0.958483 -0.482046 -1.03706e-19)
(0.0869623 0.277086 -3.91179e-21)
(0.0302188 0.259266 -6.3284e-20)
(1.02081 -0.0384665 1.96509e-22)
(1.01959 -0.0374319 -1.1034e-21)
(1.02105 -0.036802 -1.15538e-21)
(-0.0944243 0.147928 -1.00808e-20)
(-0.0490401 0.171374 8.27107e-21)
(-0.124999 0.164975 -8.82866e-20)
(0.397365 -0.157446 0)
(0.375509 -0.173187 0)
(0.406773 -0.183211 0)
(0.910273 -0.0290457 -1.3157e-20)
(0.908226 -0.0253622 -4.9574e-21)
(0.912831 -0.0252366 -2.00491e-21)
(1.0357 -0.00580255 -2.10392e-21)
(1.03529 -0.00635925 5.96554e-21)
(1.03484 -0.00577318 -1.40933e-21)
(0.961286 -0.058026 1.70324e-20)
(0.963345 -0.0558571 1.55357e-20)
(0.960257 -0.0547865 -3.3647e-21)
(0.193037 0.0855777 -2.86454e-20)
(0.159562 0.0784479 -8.76909e-20)
(0.185532 0.0471687 2.22059e-19)
(1.0167 -0.00580148 -9.25557e-22)
(1.01713 -0.0059124 -8.62406e-22)
(1.01685 -0.00614997 1.72208e-22)
(0.99406 -0.00996925 3.5492e-21)
(0.994536 -0.0100333 0)
(0.999747 -0.00218393 4.68352e-21)
(0.999788 -0.00221547 -3.17437e-21)
(0.999815 -0.0019837 -5.40501e-21)
(0.975817 -0.0126685 0)
(0.974476 -0.0131288 5.48641e-21)
(0.975605 -0.0140566 0)
(1.02732 -0.00966981 1.81833e-21)
(1.02772 -0.00934753 -1.62217e-21)
(1.02711 -0.00902786 -1.79578e-21)
(1.0889 -0.0181497 9.95073e-22)
(1.09111 -0.0205615 3.16464e-20)
(1.09251 -0.0174186 -9.91037e-21)
(1.06802 -0.0149469 2.2722e-22)
(1.07016 -0.0153462 -4.43574e-21)
(1.06893 -0.0134065 -2.79181e-20)
(-0.0679709 -0.0814501 2.77191e-21)
(-0.0634884 -0.0796978 2.61474e-20)
(-0.0607781 -0.0889218 -3.12893e-20)
(0.981142 -0.00221869 -2.28702e-20)
(0.980352 -0.00289971 1.07533e-20)
(0.981392 -0.00306691 -1.23257e-20)
(1.07932 -0.0692923 3.13152e-21)
(1.07673 -0.0666809 -2.42008e-21)
(1.07567 -0.0706365 -1.40222e-20)
(1.04402 -0.0189962 -6.64022e-21)
(1.04519 -0.0195832 9.00909e-22)
(0.968334 -0.0335757 -1.9506e-20)
(0.968541 -0.0312002 -1.34984e-20)
(0.970341 -0.0328785 -1.46796e-20)
(0.816443 -0.565092 3.61147e-22)
(0.776573 -0.569852 -6.68895e-21)
(0.807612 -0.611686 7.01962e-21)
(1.15952 -0.0561201 -3.5143e-20)
(-0.0627408 -0.0962385 -8.9575e-20)
(-0.0807916 -0.102426 4.50192e-20)
(1.01516 -0.00573965 6.51831e-22)
(1.01497 -0.0054621 -7.48996e-22)
(1.01472 -0.00567261 1.92575e-21)
(0.00729856 -0.0562062 5.03892e-20)
(0.00961448 -0.0558677 -2.20457e-20)
(0.977362 -0.0745793 -6.20354e-23)
(0.976812 -0.0784428 2.33676e-21)
(1.05504 0.0395786 1.06614e-20)
(1.05391 0.0434539 9.5031e-21)
(1.0509 0.0402195 -6.39213e-22)
(1.02127 -0.0261759 -1.17443e-21)
(1.02246 -0.026136 9.18844e-22)
(1.22534 -0.234388 -5.75618e-20)
(1.21283 -0.228402 -1.42867e-20)
(0.999324 -0.00362833 3.96992e-21)
(0.999245 -0.00357143 4.54455e-23)
(0.736314 -0.0734199 -2.30469e-20)
(0.746158 -0.0621412 5.81633e-20)
(0.72702 -0.0585833 -2.17211e-20)
(1.15323 -0.088467 -7.36271e-20)
(1.15393 -0.0964111 -5.60857e-20)
(1.0269 -0.0100135 5.02132e-21)
(1.02764 -0.0102179 8.80255e-21)
(0.324886 0.423625 -3.63674e-20)
(0.372355 0.405197 -4.03242e-20)
(0.367107 0.457554 4.77971e-21)
(-0.186129 0.0584378 -4.96613e-21)
(-0.168508 0.0641816 6.69447e-20)
(-0.19023 0.0681913 3.10342e-20)
(1.09162 -0.130352 0)
(1.09111 -0.12314 -1.51249e-20)
(0.995786 -0.0153441 2.36483e-21)
(0.995535 -0.0146068 0)
(0.995041 -0.0154006 -1.42717e-21)
(1.14119 -0.0113242 0)
(1.13971 -0.0156157 0)
(1.14542 -0.0153368 -2.38155e-20)
(-0.205924 0.125485 -3.07168e-20)
(-0.205626 0.115756 -1.57363e-19)
(-0.189163 0.128576 4.82493e-20)
(0.752281 -0.0995348 -3.46487e-20)
(0.743287 -0.0862611 4.51481e-20)
(0.761186 -0.0897269 2.37888e-20)
(0.740141 -0.108829 -1.33424e-20)
(0.757373 -0.110987 -2.69255e-20)
(-0.076714 -0.050371 -6.40693e-21)
(-0.0841562 -0.0468637 1.1581e-20)
(-0.0808081 -0.0413865 8.62783e-21)
(1.15565 0.0911876 -3.06398e-20)
(1.15048 0.0962433 -9.87731e-20)
(1.15824 0.0974654 -1.21545e-19)
(1.05856 0.0379697 -9.54145e-21)
(1.05556 0.0355345 0)
(1.09725 0.0126896 -8.19513e-21)
(1.10052 0.0096239 -1.63222e-20)
(0.41546 -0.138598 -1.02156e-20)
(0.384326 -0.130802 0)
(1.02998 -0.00478705 0)
(1.03034 -0.00437431 -2.22785e-21)
(1.02966 -0.00428305 2.98366e-21)
(-0.0814327 0.105071 2.42065e-20)
(-0.272245 -0.00583287 1.64929e-19)
(-0.297595 -0.00238775 8.20223e-20)
(1.01631 -0.00571481 -1.28451e-21)
(1.01659 -0.00550377 -6.91682e-22)
(0.999817 -0.00168605 5.16458e-21)
(0.999799 -0.00163895 -5.25776e-21)
(0.999859 -0.00144637 -6.64828e-23)
(1.09915 0.0508959 -8.63294e-20)
(1.21326 0.0421244 6.67779e-20)
(0.987519 -0.0148453 -1.08801e-22)
(0.98844 -0.0153463 0)
(0.987411 -0.0161797 -4.91541e-21)
(1.00008 -0.00103994 1.96303e-21)
(1.0001 -0.00124503 -8.92644e-22)
(1.17558 0.046532 2.55721e-20)
(1.18116 0.0440063 4.66334e-21)
(1.17475 0.0411594 8.0239e-20)
(1.18656 0.0414184 -5.38171e-21)
(1.18673 0.0354782 3.37256e-20)
(1.19324 0.0385174 3.35175e-20)
(1.0205 -0.0399396 -1.21728e-23)
(1.06148 -0.0389276 -1.59359e-20)
(1.06298 -0.0413122 6.23576e-21)
(1.08209 -0.0718315 1.99667e-20)
(1.08279 -0.067498 3.22967e-20)
(0.958144 -0.183895 1.06723e-20)
(0.949112 -0.176497 -1.77651e-20)
(0.947944 -0.188297 -1.97975e-20)
(1.06433 -0.0340904 -4.74395e-21)
(1.06227 -0.0332189 -1.64466e-20)
(1.06398 -0.0318213 7.53972e-21)
(0.993705 -0.00429337 7.29093e-22)
(1.07612 -0.177489 1.11018e-21)
(1.07978 -0.171724 -6.48821e-21)
(1.07152 -0.171107 1.28603e-20)
(-0.0351897 -0.0960212 7.91587e-21)
(-0.0273266 -0.103201 1.54815e-20)
(-0.0342338 -0.105283 3.7712e-20)
(1.0263 -0.0103207 -2.82565e-21)
(1.02613 -0.00963431 -3.54905e-21)
(-0.176774 0.039979 -4.39403e-20)
(-0.171964 0.0311317 2.04222e-20)
(-0.189269 0.0374411 -6.04487e-20)
(0.999978 -0.00114674 -4.34023e-21)
(1.00002 -0.000863373 -3.39552e-21)
(1.00013 -0.00322763 -3.24325e-22)
(1.00009 -0.00301183 3.25633e-21)
(1.00007 -0.00327212 -1.03175e-21)
(1.0131 -0.000942297 -1.52406e-21)
(1.01293 -0.00117159 -1.24693e-21)
(1.01333 -0.00117922 -9.81075e-22)
(-0.0460052 -0.0157633 -1.22503e-20)
(0.993269 0.00107198 -1.02733e-20)
(0.992869 0.000916608 -5.66656e-21)
(0.993279 0.000620464 -6.32131e-21)
(1.40062 -0.237576 7.90846e-20)
(1.39462 -0.252886 5.58584e-20)
(0.0315879 -0.0356371 2.90475e-20)
(0.0632022 -0.0293751 9.61914e-20)
(0.0419784 -0.0309573 -1.46966e-19)
(1.00085 -0.00338189 1.33014e-21)
(1.00081 -0.00346415 1.66086e-21)
(1.00094 -0.00357012 -2.83438e-21)
(0.999438 -0.00349562 7.77546e-21)
(0.999416 -0.00368978 4.46189e-22)
(1.37928 -0.122508 7.7992e-20)
(1.40022 -0.114185 2.62951e-21)
(1.40586 -0.127256 7.90151e-20)
(1.01252 -0.00056756 -8.89105e-23)
(1.01304 -0.000574765 9.93059e-23)
(0.999947 -0.00133914 -3.34735e-23)
(0.999955 -0.00136517 4.31307e-21)
(0.999926 -0.00161406 9.1954e-21)
(1.01414 -0.000691146 5.96388e-22)
(1.01385 -0.000714837 -7.98423e-22)
(1.01278 -0.000423897 -8.03181e-22)
(0.0183867 -0.0442094 0)
(0.00902669 -0.0449461 0)
(0.600632 -0.401398 -2.46451e-20)
(0.564875 -0.391592 5.084e-20)
(0.9311 -0.0600557 -8.5414e-21)
(0.934718 -0.0572796 1.31425e-20)
(0.935431 -0.06212 0)
(0.890221 -0.551644 1.26322e-20)
(0.900382 -0.516952 7.78007e-21)
(0.927118 -0.541018 -7.5517e-23)
(1.17647 0.0183449 -1.94299e-20)
(1.17675 0.0125787 -7.71987e-21)
(1.17125 0.015446 -1.86509e-20)
(-0.0834675 0.246437 -1.37939e-19)
(-0.0490883 0.0964793 4.19358e-21)
(-0.0381795 0.0881822 -6.43604e-20)
(-0.0517945 0.0871505 -5.39494e-20)
(1.04399 -0.0230955 1.02306e-20)
(1.0455 -0.0222152 9.96093e-21)
(-0.1388 -0.260767 8.72392e-21)
(-0.0547068 -0.290033 3.41757e-20)
(-0.197408 -0.295159 2.78102e-20)
(1.00003 -0.00081498 0)
(1.00001 -0.00111876 -4.00958e-21)
(1.00001 -0.000777198 0)
(-0.210999 0.12325 7.64481e-20)
(-0.204393 0.136219 4.84403e-20)
(0.451658 -1.05616 -7.63909e-21)
(0.206683 -1.01105 0)
(0.44078 -1.14994 7.71726e-20)
(-0.150373 -0.0145953 -4.99145e-20)
(-0.147505 -0.0164034 1.0211e-19)
(-0.157038 -0.0101359 -7.58568e-21)
(0.0552133 -0.000954922 -1.94948e-20)
(1.15445 0.0858002 1.06761e-19)
(1.16089 0.0876451 9.45785e-21)
(1.06038 -0.0178705 0)
(1.06217 -0.0180922 0)
(1.13913 -0.0636079 2.37865e-21)
(1.14046 -0.0696971 0)
(1.06699 -0.0169008 1.50088e-20)
(1.06595 -0.0145826 1.85248e-20)
(1.03613 -0.00526613 -5.23572e-21)
(1.03643 -0.00464405 7.27542e-23)
(1.03554 -0.004676 2.86278e-21)
(1.04599 -0.0149773 -3.30934e-21)
(1.04721 -0.0149371 -9.9498e-21)
(1.04638 -0.0136216 0)
(0.857438 -0.557581 6.77082e-21)
(0.827647 -0.530043 0)
(0.917296 -0.0723514 1.02005e-20)
(0.913784 -0.0673778 2.57951e-20)
(0.999452 -0.0033472 0)
(0.999497 -0.0033686 0)
(1.00002 -0.00020349 -1.65386e-21)
(1 -9.80548e-05 -4.42589e-21)
(1 -0.000106283 -1.80347e-21)
(1.01555 -0.00584838 1.40578e-21)
(1.01528 -0.00606647 5.53877e-22)
(1.01843 -0.000147521 0)
(1.01825 -0.000231679 -4.68237e-22)
(1.0187 -0.000250262 2.96692e-22)
(1.02648 -0.0108806 -2.55886e-21)
(-0.0632464 0.0840315 2.87474e-20)
(-0.0561497 0.0833921 0)
(-0.0591885 0.0786952 -5.63232e-20)
(1.00525 -0.00872117 -5.59032e-22)
(1.00556 -0.0087344 1.49117e-21)
(1.00525 -0.00835326 4.6012e-23)
(1.02017 -0.0242753 3.4856e-21)
(1.01926 -0.0238896 -1.98828e-22)
(1.01937 -0.0249583 -2.01831e-22)
(1.01817 -0.00022351 5.13281e-24)
(1.01809 -0.000249628 -1.60637e-22)
(1.01864 -0.000206748 1.95963e-22)
(1.00279 -0.00906482 0)
(1.00312 -0.00926679 3.35582e-21)
(-0.0239054 -0.148906 -1.90308e-20)
(-0.0221966 -0.140787 -1.45803e-20)
(-0.0139604 -0.156325 -1.17199e-19)
(1.16657 -0.445721 -1.00238e-20)
(1.17788 -0.469766 -7.61903e-20)
(0.680402 0.0637256 1.14732e-21)
(0.684695 0.048852 6.24732e-20)
(0.665544 0.0513951 -2.87618e-20)
(0.946488 -0.018079 1.63843e-20)
(0.945053 -0.0201705 -4.27204e-21)
(0.943785 -0.0170397 -1.42667e-20)
(1.12859 0.0331959 0)
(1.12473 0.0297179 1.30667e-20)
(1.01607 -7.2137e-05 -9.51081e-22)
(1.07445 0.221682 -1.91696e-20)
(1.086 0.208855 -5.78396e-22)
(1.0684 0.21797 -6.69115e-22)
(-0.055306 -0.0218562 2.6114e-19)
(0.00463498 -0.036672 1.9243e-19)
(0.992477 0.000280214 -5.23658e-23)
(0.992905 -2.66875e-07 -4.90999e-24)
(0.107417 -0.0171911 5.58402e-21)
(0.0935505 -0.0204333 5.12588e-20)
(1.09666 0.00177223 3.606e-20)
(1.09647 -0.00198896 -2.63818e-20)
(1.09315 0.000761934 -3.10304e-20)
(0.991506 -0.00120996 3.22825e-21)
(0.991088 -0.000926158 7.96757e-22)
(-0.0871489 -0.000478517 2.39624e-20)
(1.07383 0.22639 -2.17332e-20)
(0.996786 -0.004812 0)
(0.996932 -0.00449667 0)
(1.07065 -0.184602 2.70795e-21)
(1.08116 -0.185335 -3.96309e-20)
(0.287555 0.430293 1.03454e-19)
(0.338698 1.05288 -3.9732e-22)
(0.973454 -0.0301006 6.9148e-22)
(0.975216 -0.0307063 1.94069e-21)
(0.974856 -0.0287216 3.33992e-21)
(0.824226 0.0150252 -1.61156e-20)
(0.831766 0.0110084 2.81419e-20)
(0.82476 0.00622477 0)
(1.0209 -0.0234123 3.41156e-21)
(0.968665 -0.0290971 -4.52784e-21)
(0.97023 -0.0281716 9.58346e-21)
(0.968525 -0.0269931 -7.01026e-21)
(-0.201777 0.129026 -7.46287e-20)
(-0.208455 0.121 0)
(-0.19601 0.118681 5.65603e-21)
(0.900707 -0.192392 -3.60224e-22)
(0.906435 -0.182201 6.02622e-21)
(0.892503 -0.183116 -2.01864e-20)
(0.997786 -0.00889083 -3.41887e-21)
(0.997401 -0.00883598 3.44283e-21)
(0.995498 -0.00132243 -3.13536e-21)
(0.995812 -0.00147793 -4.24824e-24)
(0.995577 -0.00167669 -7.76391e-23)
(0.948115 -0.0158119 5.51624e-21)
(0.949093 -0.0188864 1.65964e-20)
(1.10532 -0.391025 -2.80983e-21)
(1.08479 -0.389061 4.86948e-20)
(1.09657 -0.372151 2.95651e-20)
(0.0769876 -0.202631 2.29114e-21)
(0.110306 -0.219442 3.18358e-21)
(0.0814089 -0.249036 9.04913e-20)
(0.991627 -0.00621675 -1.29194e-20)
(0.992262 -0.00604559 -1.33911e-20)
(1.00557 -0.00797264 -6.94512e-24)
(1.00527 -0.00796161 -5.73354e-22)
(1.03017 -0.0161197 1.98208e-22)
(1.03032 -0.0153299 1.17383e-20)
(1.03097 -0.016156 -8.71106e-21)
(-0.251392 -0.00230906 -1.61629e-20)
(-0.225716 -0.00967852 -6.23404e-20)
(-0.103437 -0.182008 6.03263e-20)
(-0.141854 -0.177054 4.78471e-20)
(-0.0934138 -0.0297857 -1.30461e-19)
(-0.0241998 -0.0340342 5.55444e-20)
(-0.0628489 -0.0316152 -5.26407e-20)
(1.02957 -0.00517094 0)
(1.02915 -0.00550545 0)
(1.02889 -0.00501795 0)
(0.910272 -0.201586 -7.22443e-21)
(0.894127 -0.204598 -4.23681e-21)
(0.825105 0.0243962 -1.66577e-21)
(0.816551 0.0206334 -1.55611e-20)
(0.860697 -0.731562 -1.073e-21)
(0.811727 -0.754785 2.77883e-20)
(0.870545 -0.789641 -4.93388e-20)
(1.16578 -0.0025509 3.81828e-20)
(1.16744 0.00106754 3.3801e-20)
(1.17124 -0.00336755 3.062e-20)
(1.0307 -0.00237161 3.35031e-21)
(1.03106 -0.00276091 -2.91925e-22)
(1.03035 -0.00269446 7.10396e-21)
(1.0321 -0.00410967 -2.08307e-21)
(1.03173 -0.00453593 -1.14802e-22)
(1.03247 -0.00462052 2.83563e-22)
(1.03002 -0.0170034 0)
(1.02927 -0.0161191 0)
(1.13376 -0.0620891 -1.97176e-20)
(1.13768 -0.0579181 6.75252e-23)
(0.990467 -0.0383317 -7.29683e-21)
(0.991882 -0.0395403 -6.9254e-21)
(0.990107 -0.0403487 -2.38717e-21)
(-0.00254168 -0.0199831 4.50431e-20)
(-0.0258066 -0.0130836 8.4713e-20)
(-0.0711203 -0.0108676 0)
(0.998437 -0.00341109 7.62941e-22)
(0.998286 -0.00325559 -4.38561e-21)
(0.998279 -0.00352951 1.66322e-21)
(1.0096 -0.0154528 8.23405e-22)
(1.00961 -0.0160854 -2.08988e-21)
(1.01022 -0.0159995 -4.62468e-22)
(0.00383489 0.167804 -3.18678e-20)
(-0.0294171 0.153736 -8.49396e-20)
(-0.0596479 0.163301 -5.63098e-20)
(-0.070598 0.0832598 -2.46335e-20)
(-0.0702836 0.0900645 7.68829e-20)
(-0.00206416 -0.058973 -4.23011e-20)