/*--------------------------------*- C++ -*----------------------------------*\
| =========                 |                                                 |
| \\      /  F ield         | OpenFOAM: The Open Source CFD Toolbox           |
|  \\    /   O peration     | Version:  v2012                                 |
|   \\  /    A nd           | Website:  www.openfoam.com                      |
|    \\/     M anipulation  |                                                 |
\*---------------------------------------------------------------------------*/
FoamFile
{
    version     2.0;
    format      ascii;
    class       volScalarField::Internal;
    location    "700";
    object      V0;
}
// * * * * * * * * * * * * * * * * * * * * * * * * * * * * * * * * * * * * * //

dimensions      [0 3 0 0 0 0 0];


value           nonuniform List<scalar> 
9793
(
0.0334278
0.00144294
0.0892337
0.00114519
0.186507
0.0069897
0.0091476
0.00216156
0.0527673
0.00154629
0.161501
0.136426
0.140704
0.00495608
0.0889743
0.0379429
0.0166881
0.0865014
0.00167732
0.11887
0.103447
0.179901
0.00189873
0.00171511
0.00449389
0.0228246
0.140657
0.203613
0.0983801
0.00864849
0.00129544
0.00616891
0.102268
0.101977
0.167528
0.021741
0.0388285
0.0205779
0.00363616
0.0220499
0.0106072
0.0041393
0.00176047
0.175149
0.0819307
0.113157
0.00153425
0.170278
0.076805
0.0974556
0.028126
0.151575
0.0187152
0.173865
0.0170193
0.00197648
0.134724
0.0120121
0.0682226
0.179812
0.0179944
0.00547087
0.0927296
0.0274731
0.168194
0.0603922
0.00131353
0.0331087
0.0386261
0.00337034
0.0469132
0.0043181
0.00185633
0.0166373
0.00494651
0.162007
0.0113846
0.00367764
0.085242
0.156589
0.00738911
0.00200837
0.0146405
0.0320285
0.036963
0.00587838
0.158962
0.0189386
0.0035955
0.00578043
0.0020533
0.00336403
0.00433461
0.0159385
0.00216689
0.0941914
0.00461064
0.012932
0.028565
0.187412
0.00364435
0.0201753
0.0156427
0.0877337
0.00548275
0.00275574
0.0194778
0.125275
0.0863845
0.180387
0.143483
0.00201184
0.00182106
0.00118391
0.0518517
0.130095
0.0499112
0.0990507
0.00185309
0.0824092
0.00669093
0.019244
0.00367389
0.0182083
0.0457581
0.0929092
0.0127526
0.00150598
0.0109386
0.0123148
0.034059
0.102103
0.0362988
0.0366612
0.0295385
0.00596641
0.0063839
0.0411153
0.178196
0.00888733
0.00193525
0.020615
0.0603893
0.0182494
0.00147082
0.00356586
0.0956657
0.00210641
0.0850343
0.0825962
0.144167
0.00245562
0.035029
0.116324
0.0576489
0.00368509
0.0128408
0.0965797
0.00486734
0.058437
0.0180296
0.0332366
0.0788441
0.00233489
0.0595338
0.0041152
0.0156342
0.0517443
0.134806
0.169318
0.049592
0.00171435
0.00186486
0.00644652
0.127144
0.00794362
0.00588044
0.00231205
0.0995232
0.033777
0.0069976
0.00142879
0.0165723
0.0985487
0.100901
0.128134
0.00489932
0.00179781
0.00228926
0.0146012
0.0568241
0.00107128
0.00208501
0.0203637
0.06794
0.0321188
0.00197699
0.105606
0.0664574
0.148063
0.0496813
0.0637271
0.0248625
0.0312845
0.00217886
0.0512884
0.0209548
0.0483972
0.0417161
0.00287905
0.0123658
0.00196975
0.109159
0.00259834
0.0295396
0.0289701
0.0709257
0.00642386
0.136862
0.00880289
0.0109184
0.0796036
0.0019283
0.00813522
0.0124006
0.0918543
0.0170167
0.0114135
0.00866056
0.0064144
0.00240017
0.0124156
0.0316942
0.0225692
0.00232356
0.0807429
0.00124816
0.00139932
0.102157
0.153878
0.00467596
0.0765487
0.116396
0.0123762
0.0119611
0.0599314
0.0275009
0.0192595
0.0146406
0.0281736
0.0936978
0.0121904
0.00176537
0.092588
0.00848073
0.14212
0.156848
0.133022
0.00199699
0.076509
0.00317855
0.00312265
0.162527
0.125879
0.00421555
0.161578
0.155113
0.159738
0.00248736
0.00329661
0.0242964
0.00356174
0.0115042
0.0158503
0.00149767
0.0523592
0.00123928
0.176246
0.0124581
0.00109339
0.00462616
0.00537923
0.0117273
0.0340285
0.0141578
0.0322036
0.074216
0.0419076
0.00363206
0.0170138
0.108998
0.170716
0.0863071
0.13574
0.0915523
0.00095862
0.126039
0.0826698
0.110208
0.116141
0.00136794
0.00311982
0.00555155
0.0301716
0.0170916
0.149883
0.0163026
0.00212916
0.0745901
0.00462873
0.0270128
0.0762703
0.00124248
0.0155585
0.0998776
0.0121115
0.00124299
0.0454559
0.0106509
0.0855544
0.0423759
0.0106881
0.0140144
0.110254
0.0884998
0.0330218
0.0050123
0.00144877
0.075186
0.119566
0.0636131
0.00144061
0.00162882
0.00200317
0.0802068
0.0125701
0.010672
0.00211397
0.0105644
0.0790885
0.0742995
0.0715285
0.0144542
0.0554918
0.00156863
0.104897
0.106465
0.00918034
0.00130569
0.00255121
0.152426
0.00305822
0.02995
0.00119794
0.00204945
0.00203
0.0313457
0.0167097
0.00614776
0.00201413
0.001764
0.0116775
0.19924
0.0212161
0.0706153
0.130595
0.0554573
0.137029
0.172335
0.00216862
0.154496
0.0122166
0.0214405
0.00758748
0.0668914
0.0283077
0.00128477
0.00274261
0.0058197
0.0134724
0.104433
0.0288957
0.0911784
0.00416311
0.146293
0.00316099
0.00556387
0.00710997
0.00159493
0.0111283
0.144044
0.0872426
0.00561842
0.00421348
0.0556793
0.00176481
0.144956
0.137946
0.00143537
0.0975429
0.01121
0.0789836
0.0132235
0.110214
0.0506269
0.00823059
0.00407863
0.0217162
0.0191868
0.140629
0.0619461
0.002923
0.0128008
0.100351
0.138417
0.0126602
0.0109852
0.0236499
0.00126539
0.141187
0.0766069
0.003517
0.145693
0.00167496
0.00260004
0.095326
0.103854
0.0422736
0.162367
0.0737169
0.00419895
0.00719963
0.0037996
0.0135074
0.045052
0.0168157
0.0196741
0.00195276
0.0175967
0.187772
0.0284167
0.00382822
0.0516964
0.0452118
0.0477198
0.147715
0.111864
0.0695846
0.095512
0.158585
0.037187
0.0285039
0.0107495
0.137507
0.00204407
0.0220442
0.00439561
0.00148096
0.0691319
0.00969125
0.00948191
0.0652996
0.12121
0.052891
0.00767538
0.0101343
0.136309
0.115121
0.139123
0.00398142
0.00609076
0.00304569
0.167567
0.0429336
0.0128062
0.00136776
0.00383657
0.0176423
0.0351793
0.0079593
0.00374081
0.00899717
0.046167
0.0928342
0.00231052
0.0878676
0.00556978
0.00510237
0.108613
0.00414645
0.0233357
0.00212846
0.0693294
0.00209516
0.00531545
0.0372961
0.00449426
0.0874233
0.00226394
0.125915
0.0851196
0.155879
0.0895451
0.00458314
0.0827723
0.0770569
0.0313067
0.0844171
0.0906151
0.011533
0.0432684
0.0236643
0.106844
0.132107
0.00137668
0.00436882
0.0230647
0.00726561
0.0317716
0.0515814
0.0722546
0.0646088
0.00208515
0.0735686
0.166273
0.00129687
0.00300588
0.0141945
0.118647
0.170867
0.0444977
0.159419
0.00772259
0.0411125
0.0146028
0.0367044
0.00158855
0.15349
0.00123398
0.163209
0.00474287
0.0667745
0.0205939
0.00153691
0.131061
0.00361198
0.0740453
0.166225
0.0957388
0.00610432
0.00188726
0.0472473
0.0220378
0.0706879
0.00754725
0.116881
0.00958254
0.00228243
0.0156806
0.153681
0.01018
0.13258
0.0397208
0.070243
0.012024
0.13032
0.0078912
0.142287
0.056139
0.0205696
0.00620268
0.00713817
0.0803479
0.00126014
0.0820135
0.00562576
0.0644457
0.0573479
0.0933898
0.141625
0.169385
0.00341592
0.0320917
0.00357997
0.00701479
0.0116906
0.0166506
0.00144868
0.0347361
0.0062684
0.00127948
0.00454862
0.00233498
0.00572415
0.00516863
0.0424409
0.00120346
0.0236797
0.062391
0.00336956
0.13687
0.00312575
0.0167768
0.0071874
0.011594
0.00144018
0.00185712
0.0238915
0.00809245
0.147611
0.00303129
0.0241436
0.0631954
0.052232
0.04548
0.0137945
0.00236918
0.00371956
0.00155225
0.0348272
0.0234509
0.00246164
0.0034099
0.0382715
0.0123635
0.0309039
0.0014676
0.0107739
0.0945101
0.00456846
0.00443054
0.00172092
0.135423
0.022977
0.00282246
0.0245585
0.00430056
0.0182713
0.00800647
0.0210874
0.0332765
0.0625409
0.0667
0.0119883
0.167533
0.010564
0.00765548
0.00726045
0.156249
0.151384
0.0428955
0.0473096
0.146165
0.0665306
0.00743266
0.00792599
0.00388831
0.136927
0.00458449
0.127706
0.00135784
0.0214224
0.0102466
0.0113707
0.00560968
0.105486
0.112501
0.0101198
0.0749884
0.0613055
0.0148725
0.00342902
0.0478006
0.0122966
0.00485681
0.0250084
0.0109074
0.00432017
0.0682121
0.0130316
0.0311661
0.0441873
0.0955886
0.00504878
0.00490496
0.00184276
0.0501478
0.0794712
0.0873408
0.0421894
0.0453622
0.0301432
0.00232105
0.0230289
0.14306
0.00385067
0.0227776
0.013485
0.0671475
0.00114292
0.0366565
0.11772
0.00589272
0.00156945
0.0921691
0.0955908
0.0909425
0.0356418
0.102928
0.0218757
0.00558226
0.0496533
0.0105721
0.0397805
0.0581059
0.00668744
0.00205107
0.0103814
0.1239
0.0697987
0.00972854
0.0174013
0.00856807
0.0962146
0.0704311
0.00134988
0.0164018
0.0219615
0.0109292
0.0069662
0.0804852
0.154723
0.0463576
0.00150896
0.165761
0.16897
0.00204528
0.0118325
0.00512914
0.0111777
0.113834
0.00186517
0.123358
0.0700647
0.0598908
0.0185639
0.00114466
0.139385
0.0733114
0.0674672
0.0857995
0.124726
0.0458671
0.00200293
0.0161642
0.0369109
0.142312
0.0173424
0.00885051
0.0325672
0.0124798
0.1601
0.0831834
0.0364232
0.00168391
0.0071865
0.0427959
0.00158498
0.143584
0.0214323
0.00341495
0.00175797
0.0779192
0.136716
0.00189166
0.0127902
0.117591
0.154588
0.00793637
0.165391
0.00994561
0.101797
0.00220238
0.146508
0.15142
0.115886
0.0199912
0.0473888
0.0235035
0.0114738
0.0035293
0.0813768
0.115824
0.147902
0.0676274
0.0336282
0.0488733
0.0183546
0.107871
0.013034
0.00668522
0.0145571
0.0118527
0.14069
0.0605239
0.00121524
0.0112166
0.0920878
0.00860249
0.00127004
0.0573095
0.0733229
0.0904836
0.00711089
0.0146126
0.00181209
0.113578
0.0313624
0.13591
0.036319
0.146687
0.00725462
0.0380924
0.00517056
0.132115
0.00905449
0.135013
0.0362905
0.061687
0.0271454
0.00414945
0.00144057
0.0172005
0.00861589
0.0191938
0.0716326
0.00169237
0.00134114
0.0156249
0.0638648
0.119495
0.00151134
0.0878165
0.000843721
0.0771548
0.0266723
0.0516438
0.114034
0.0694145
0.004263
0.00179571
0.00105782
0.00404456
0.00134191
0.0902628
0.00633849
0.00244571
0.154017
0.0581685
0.114862
0.0077804
0.0909965
0.00193893
0.0126349
0.00860864
0.0515599
0.00362233
0.00117979
0.0018286
0.0189434
0.0196915
0.131266
0.00237975
0.0883452
0.00214779
0.0049512
0.00664098
0.00297687
0.00378823
0.0317042
0.038239
0.131651
0.0210212
0.00209313
0.00165541
0.107576
0.00132572
0.0354666
0.0106887
0.0038179
0.00414797
0.0046508
0.0683467
0.0189592
0.0227767
0.0406039
0.0379982
0.00713786
0.147448
0.00250714
0.128144
0.076365
0.00849086
0.0116827
0.00818866
0.0339728
0.00210154
0.00258112
0.00413907
0.0118765
0.118915
0.0366638
0.101143
0.0648801
0.00352712
0.00971406
0.0346188
0.0615809
0.0228705
0.00169045
0.0290584
0.0515396
0.0025745
0.0967923
0.11897
0.0843792
0.0177517
0.0915187
0.0345692
0.00127566
0.010552
0.169791
0.00122373
0.00410205
0.10603
0.0417297
0.0187582
0.150082
0.12448
0.082639
0.00278506
0.0161246
0.0423732
0.0174732
0.00994298
0.00320951
0.0462671
0.00699292
0.125143
0.0976063
0.002208
0.00741431
0.0110434
0.0515253
0.0847474
0.00147329
0.00368703
0.00525933
0.0013258
0.135564
0.0406324
0.080759
0.00106592
0.0250149
0.0100339
0.026287
0.061451
0.0397689
0.140099
0.119471
0.0088254
0.0976328
0.00653333
0.125473
0.0417717
0.0724175
0.0396125
0.00409279
0.00139318
0.0194897
0.00125256
0.118904
0.0123177
0.0316906
0.00467765
0.0629624
0.0735163
0.0144518
0.0143524
0.012543
0.137558
0.00897673
0.00427496
0.00311699
0.0441035
0.00716097
0.0019348
0.026843
0.00417408
0.00830277
0.00774034
0.0721354
0.0270952
0.0160954
0.00683932
0.118317
0.0184198
0.107757
0.144014
0.045758
0.0794657
0.0405755
0.07605
0.00217102
0.0248968
0.0358561
0.0112985
0.0863345
0.0615721
0.0145643
0.00462173
0.00535577
0.0103047
0.00641036
0.135469
0.00201679
0.0202553
0.0014673
0.00973633
0.132906
0.0506733
0.0333532
0.00195528
0.00151451
0.0105057
0.0060534
0.0917221
0.0599681
0.139411
0.135973
0.0012427
0.0237841
0.0616051
0.00789402
0.00261309
0.00569619
0.0366505
0.0144097
0.00630016
0.0171481
0.0244015
0.0023917
0.0053972
0.0520379
0.00431367
0.00724791
0.00795209
0.00311875
0.0195426
0.0371199
0.1408
0.0675791
0.0411329
0.0112805
0.00136374
0.0122957
0.162726
0.00542976
0.114242
0.00123282
0.00115934
0.117012
0.00131664
0.146274
0.0721614
0.0486018
0.00377463
0.00225596
0.0174668
0.0124219
0.0683715
0.00444138
0.149945
0.0186863
0.127225
0.0371717
0.0617906
0.0071128
0.0360794
0.00699871
0.0193037
0.128429
0.00285782
0.00647253
0.0244781
0.0247492
0.032977
0.00209851
0.00907744
0.0545082
0.080773
0.0390696
0.0329276
0.00113176
0.00286423
0.00575397
0.0258062
0.0931347
0.00259508
0.00907498
0.0509609
0.00205794
0.0943797
0.00806916
0.00146626
0.0922687
0.0012183
0.00187111
0.00655951
0.00124577
0.00700233
0.0607141
0.0357578
0.00183837
0.00226174
0.0388341
0.00143525
0.0214744
0.0726225
0.108634
0.0370354
0.0185929
0.0265294
0.00306773
0.00136356
0.00380071
0.0120306
0.166005
0.00909083
0.0014731
0.0813057
0.00128717
0.00953428
0.137164
0.0272629
0.140231
0.0457502
0.0127689
0.00163425
0.0354512
0.101025
0.00146624
0.00394435
0.0148191
0.157819
0.0113456
0.0729999
0.126904
0.0075368
0.00346907
0.121469
0.103194
0.00649278
0.00113129
0.00936257
0.043569
0.00251469
0.0391324
0.115109
0.0446447
0.125819
0.0935948
0.101518
0.00205958
0.0158755
0.0195122
0.00177628
0.0157756
0.00392761
0.0031313
0.00415013
0.00880471
0.0442379
0.144272
0.0438873
0.13496
0.00711092
0.111812
0.0041498
0.0200061
0.00763422
0.0977888
0.00209791
0.0089176
0.00178051
0.128605
0.00172358
0.0251581
0.00847269
0.00582973
0.0179317
0.111853
0.0028427
0.0150112
0.00374038
0.0918313
0.00746124
0.0992403
0.00168523
0.00275548
0.0108011
0.0727459
0.0942302
0.0043223
0.00130859
0.021526
0.0723786
0.0082768
0.00622453
0.015744
0.0168904
0.00446177
0.0584395
0.0117951
0.0683972
0.0212686
0.0856858
0.0030997
0.0778062
0.0441892
0.00601244
0.00131961
0.129657
0.0116113
0.0260044
0.00595169
0.13301
0.00381703
0.01827
0.00890532
0.0569936
0.133818
0.00155762
0.0255944
0.00178157
0.0134094
0.00127273
0.0310967
0.0676418
0.0803049
0.0250536
0.0193904
0.0200455
0.00116018
0.0340498
0.015553
0.00778218
0.117697
0.0594644
0.0161658
0.00600245
0.00110308
0.0614792
0.0019339
0.127129
0.00526909
0.00182585
0.0154509
0.074697
0.0749577
0.0134612
0.00361667
0.0301768
0.165527
0.0425528
0.0161829
0.0415584
0.00246713
0.00158661
0.00136221
0.121508
0.0228476
0.00246102
0.136579
0.00553457
0.0794821
0.0040678
0.0141726
0.0614034
0.00903615
0.00360978
0.0461302
0.0134066
0.0705546
0.00843265
0.0042355
0.00573744
0.00272052
0.0975171
0.0284895
0.00217192
0.0551178
0.0091434
0.0124697
0.0340142
0.0860068
0.00262242
0.0153412
0.00306132
0.0456929
0.00608228
0.0445224
0.00250124
0.0209378
0.0278476
0.0133804
0.00203651
0.121011
0.143556
0.00475111
0.00399558
0.00157624
0.00275697
0.0257479
0.0496248
0.0731552
0.00433453
0.118756
0.00678499
0.00657278
0.0112918
0.133363
0.0962624
0.0986398
0.014144
0.021352
0.00139146
0.00404295
0.00379161
0.00777435
0.116801
0.00149258
0.043357
0.0165093
0.0391121
0.014376
0.007616
0.0676583
0.0905548
0.0168263
0.0974551
0.00989666
0.00427695
0.00134738
0.00532537
0.0242846
0.00389577
0.0733073
0.0520534
0.138859
0.00334991
0.00711974
0.0129426
0.00777398
0.00422497
0.0147533
0.00492291
0.0656649
0.130817
0.00190882
0.0602659
0.00428558
0.0946508
0.0713703
0.00689866
0.00308073
0.0701571
0.00596647
0.001415
0.00431202
0.012978
0.0324364
0.0159299
0.0216509
0.0036603
0.0538471
0.00605414
0.00149877
0.0177664
0.0345056
0.0942153
0.00223207
0.0692465
0.0745467
0.00422348
0.0424026
0.0898539
0.00569115
0.0185465
0.00387177
0.003876
0.00135313
0.00193166
0.0756076
0.0365552
0.0680269
0.139752
0.00438982
0.0505964
0.00201272
0.0426188
0.0017343
0.0169166
0.0390039
0.102713
0.0282855
0.0178385
0.0709776
0.0872455
0.00629877
0.0803942
0.0191515
0.0388077
0.000910717
0.015219
0.0924431
0.0466338
0.0137251
0.121429
0.107705
0.119069
0.134399
0.0406185
0.0585676
0.0333122
0.0123135
0.0101739
0.00111216
0.00164314
0.00173915
0.0903948
0.14074
0.045281
0.107848
0.0718923
0.0858621
0.015601
0.0728099
0.125114
0.138555
0.095409
0.0484084
0.00134143
0.0442558
0.114343
0.00203914
0.0183052
0.097572
0.0021512
0.00119805
0.120144
0.00350311
0.00296454
0.0544591
0.00806686
0.0185901
0.114825
0.0198414
0.128472
0.0234946
0.140911
0.160593
0.0881247
0.00121228
0.0241098
0.00898399
0.140264
0.148045
0.00170951
0.0167872
0.120026
0.0316466
0.0316874
0.193107
0.00420549
0.00175639
0.00377767
0.00276279
0.00370379
0.0143457
0.183133
0.00204666
0.00592924
0.0397233
0.01226
0.166028
0.0670669
0.145983
0.0110027
0.00674529
0.11767
0.099834
0.00816729
0.09311
0.00340168
0.0533453
0.00167561
0.00614088
0.00787896
0.0973065
0.0213986
0.0128474
0.015566
0.0457999
0.0121129
0.00476263
0.00659535
0.122575
0.00224846
0.0023875
0.0894608
0.00397003
0.00969311
0.00285263
0.0071303
0.0713219
0.0216632
0.0180139
0.103069
0.0264901
0.116982
0.00950637
0.0034649
0.0163225
0.128716
0.00709863
0.00412287
0.00153991
0.00393837
0.0287
0.0252402
0.0520134
0.0596441
0.0174988
0.00780411
0.00189517
0.0763328
0.00270953
0.14768
0.00265152
0.00640164
0.00635481
0.115581
0.0212066
0.0017416
0.00150979
0.0111835
0.0014301
0.0430049
0.00371376
0.122597
0.0749857
0.001453
0.0117534
0.0382591
0.0973098
0.00705007
0.00172752
0.00328854
0.00670954
0.0926216
0.115375
0.0925369
0.00148349
0.00156385
0.0799635
0.0156314
0.00589401
0.00893497
0.00449077
0.00191349
0.00134394
0.0105088
0.080297
0.0448672
0.00224934
0.0897182
0.00833333
0.00173381
0.00210668
0.020545
0.0124637
0.000848761
0.00193913
0.00157534
0.00186966
0.00379094
0.00371521
0.134311
0.155683
0.0749763
0.0350594
0.0017022
0.00662726
0.00262666
0.00235876
0.00740839
0.0559517
0.0158
0.0710474
0.021215
0.113209
0.0100855
0.00144768
0.00321607
0.139663
0.0946541
0.0262576
0.0129929
0.0054134
0.00182477
0.00931245
0.0527721
0.0050496
0.0914103
0.00436361
0.0110571
0.0571312
0.0145283
0.00358516
0.00386878
0.00947275
0.0418472
0.0725124
0.00273968
0.0129843
0.0963456
0.119295
0.145003
0.132573
0.00134656
0.00357344
0.00171265
0.00175552
0.001966
0.024109
0.060543
0.0112655
0.0293969
0.0198314
0.00660395
0.129968
0.00197786
0.00150795
0.0107151
0.0118951
0.00182967
0.0321568
0.00177614
0.0160969
0.00200134
0.0816277
0.0374488
0.010922
0.00126911
0.00776919
0.00625559
0.00144269
0.0113895
0.00551368
0.00786466
0.00144383
0.0381428
0.00256571
0.00120261
0.0139728
0.00703305
0.00668278
0.0239425
0.0143913
0.131929
0.0183157
0.0182281
0.010173
0.119147
0.00392317
0.00368556
0.00199059
0.00150088
0.001584
0.0136891
0.00167273
0.0036774
0.123873
0.0163424
0.00935378
0.00434885
0.0233413
0.0172596
0.00319924
0.00433207
0.0908344
0.00345034
0.0902251
0.111677
0.000987753
0.0105015
0.00148292
0.00421136
0.0023031
0.00421422
0.115405
0.0185149
0.0399014
0.12394
0.00441532
0.0129822
0.0243302
0.0014667
0.00182361
0.14357
0.0263384
0.00180599
0.0400813
0.00371423
0.00748146
0.00244119
0.00256878
0.00380076
0.00340098
0.00124718
0.00179084
0.00284486
0.00189626
0.0271714
0.018282
0.00550088
0.00599892
0.00548077
0.00443462
0.145325
0.139923
0.00169431
0.00168727
0.0276829
0.00149649
0.0459527
0.00183894
0.00672851
0.00900251
0.117972
0.0018925
0.00174765
0.02299
0.0165897
0.00198385
0.00183554
0.00153407
0.00153174
0.0569753
0.00314523
0.00191374
0.0106143
0.00477795
0.00366222
0.108064
0.0230447
0.00100663
0.00410812
0.0295561
0.155664
0.00234574
0.0048215
0.00179691
0.00854704
0.00180474
0.00358996
0.0753731
0.00214462
0.166991
0.0251966
0.0469688
0.14241
0.135783
0.0140201
0.00403059
0.0927791
0.00225386
0.0193174
0.0038949
0.00189494
0.00194391
0.121897
0.00633843
0.00174158
0.00170492
0.0185582
0.057083
0.00315895
0.00445564
0.0043106
0.00681947
0.0194117
0.13171
0.00328255
0.00161203
0.0166554
0.0025228
0.0114478
0.0476848
0.00338344
0.00682894
0.00223056
0.0590782
0.0350795
0.00194916
0.00154088
0.00236719
0.00704573
0.00240863
0.00192938
0.00384378
0.100769
0.0017061
0.00901143
0.0701709
0.0919225
0.0677506
0.00136631
0.00718267
0.00268207
0.00226561
0.0259036
0.00360223
0.0204133
0.00163807
0.00277264
0.00237914
0.00146843
0.0017056
0.00321746
0.0752246
0.00823729
0.00726467
0.0186697
0.0031125
0.004406
0.00165057
0.0975471
0.0309078
0.00568882
0.123243
0.0515058
0.0223777
0.00323885
0.0319083
0.0372617
0.00228338
0.0174156
0.00661551
0.00221384
0.00403611
0.00398801
0.00443164
0.00171368
0.00151923
0.00593929
0.0189514
0.0419708
0.00176919
0.00682633
0.00620824
0.00663623
0.00610238
0.129796
0.00732386
0.00711627
0.0328128
0.137336
0.0352468
0.00379934
0.083357
0.0859229
0.00941022
0.00200629
0.0220523
0.0062817
0.0040984
0.0132581
0.011704
0.0650944
0.0948861
0.0148781
0.00719144
0.0431173
0.0177266
0.00267016
0.00466639
0.0381611
0.00229422
0.125681
0.00375658
0.0215614
0.0210404
0.114818
0.00685181
0.023817
0.00139643
0.00172858
0.00547226
0.119691
0.0518275
0.00409599
0.00384953
0.0573987
0.00491199
0.0022371
0.0105571
0.00507615
0.103628
0.0385506
0.0725519
0.00351644
0.0136531
0.119864
0.00202127
0.0281225
0.0059447
0.00651729
0.0859199
0.0046442
0.0103251
0.00229249
0.0245435
0.0156338
0.0192512
0.0105849
0.113579
0.091012
0.00763187
0.00417919
0.0100166
0.153414
0.00393761
0.040055
0.0299534
0.1385
0.00428491
0.00182132
0.0337495
0.0024683
0.00389551
0.00885486
0.00146676
0.00383194
0.00165033
0.00374018
0.0195624
0.0172354
0.00625382
0.0111828
0.135854
0.0122727
0.0246528
0.00199193
0.113716
0.00429772
0.0776778
0.00204123
0.00736695
0.0387585
0.177915
0.00221441
0.00166063
0.00122176
0.00202232
0.112236
0.0193038
0.00151885
0.0262804
0.00353277
0.00993283
0.00394996
0.00317675
0.0284406
0.114828
0.00680986
0.00717134
0.0583135
0.0020816
0.00474688
0.10256
0.145059
0.152889
0.120005
0.00182605
0.0497868
0.0119448
0.11642
0.0468317
0.0117973
0.0606028
0.00373551
0.00796448
0.055481
0.0955991
0.00849163
0.0351346
0.00658892
0.00133956
0.00148879
0.00983116
0.00254232
0.0101688
0.0734844
0.00758392
0.00204447
0.0167592
0.00261274
0.00774058
0.00504183
0.0148619
0.033248
0.0116014
0.0132497
0.00204928
0.118588
0.0494733
0.0590978
0.00424648
0.00379079
0.0146728
0.0187273
0.0616565
0.0333401
0.010563
0.00511558
0.0592279
0.00881712
0.0027194
0.00413118
0.0758368
0.0540349
0.00223498
0.00125165
0.0706844
0.00425658
0.0250622
0.00648459
0.00938132
0.0852034
0.00150399
0.0244163
0.137616
0.00912743
0.00644466
0.0716065
0.121051
0.00529716
0.0823892
0.100326
0.0160447
0.00924665
0.00838753
0.00120893
0.0257317
0.0210711
0.00319255
0.125285
0.00361633
0.0016987
0.0271846
0.0188803
0.00753675
0.0407516
0.00768348
0.112862
0.0115731
0.00180311
0.114627
0.00458991
0.0032379
0.0498524
0.0364025
0.00204583
0.023847
0.00196176
0.00200572
0.102362
0.0134801
0.00169009
0.0283269
0.01599
0.018168
0.0160656
0.0100912
0.00920153
0.0420293
0.00557273
0.00384342
0.00772171
0.0172876
0.121372
0.11456
0.137698
0.0085501
0.00760026
0.141484
0.0247728
0.00221394
0.00151127
0.143005
0.0173476
0.00155874
0.00408311
0.148216
0.00343105
0.0165395
0.0077777
0.01854
0.0389755
0.0241756
0.0433482
0.0684036
0.00751205
0.133419
0.00706175
0.0878208
0.00257003
0.0433159
0.0441735
0.0818351
0.0356914
0.106344
0.0137244
0.00154079
0.0130912
0.0165173
0.00804233
0.135348
0.0133108
0.0143201
0.0133681
0.00165358
0.122714
0.00321414
0.0672844
0.00168348
0.00229778
0.00107876
0.111244
0.00613838
0.014717
0.00180826
0.00289928
0.0522507
0.0117487
0.00250637
0.0102544
0.0132186
0.0506675
0.0368228
0.0111129
0.00763997
0.0533836
0.00551116
0.00980264
0.00321851
0.00466266
0.155671
0.0118117
0.0216764
0.045896
0.00658575
0.0513929
0.00151771
0.00341932
0.00902035
0.0164855
0.00346083
0.0503028
0.00738614
0.0126229
0.00304918
0.0387597
0.0502292
0.0252643
0.0220153
0.0157369
0.00713979
0.0188765
0.0102054
0.00284242
0.0710508
0.0177625
0.00449232
0.00500864
0.0584008
0.135741
0.0444293
0.0117454
0.0361724
0.0241354
0.0117331
0.013125
0.0414382
0.00302173
0.0126399
0.0876935
0.0331776
0.00700465
0.00175599
0.00914848
0.0130146
0.00423468
0.00396042
0.0130144
0.0236685
0.0338071
0.030411
0.0158347
0.00655347
0.0146234
0.0253086
0.0136055
0.00219416
0.0170246
0.074782
0.00147835
0.00423837
0.00195462
0.00988386
0.027037
0.0184406
0.0230286
0.0789086
0.0618997
0.0164321
0.0917565
0.0220293
0.155978
0.0381374
0.0325293
0.073751
0.0104008
0.023924
0.0728566
0.0657333
0.139845
0.0236014
0.0281208
0.00292375
0.0869855
0.0196266
0.00172275
0.0696694
0.0351598
0.029613
0.0311989
0.00163384
0.00200106
0.00149107
0.00654164
0.0115865
0.00741755
0.0769827
0.0106044
0.0573419
0.00488905
0.041191
0.0194556
0.0316158
0.0134478
0.093716
0.0189191
0.0984514
0.00804628
0.00624305
0.127863
0.00236182
0.0104225
0.0558465
0.0201725
0.0857163
0.0937157
0.00126273
0.0506415
0.0106516
0.00661438
0.104504
0.0940473
0.00999167
0.00202281
0.0168797
0.0337309
0.00207506
0.0698905
0.0014262
0.0139027
0.00215452
0.0923507
0.00198911
0.07108
0.0442403
0.00682053
0.0129742
0.00170197
0.00104616
0.00130065
0.0097014
0.0145434
0.00705718
0.136761
0.0147706
0.0501296
0.111064
0.00406403
0.0879374
0.0745001
0.0946146
0.0677295
0.0185969
0.0143328
0.00198121
0.0029487
0.00300791
0.0334704
0.0131645
0.0410783
0.0307047
0.0104037
0.0543427
0.070331
0.0781278
0.0393216
0.0208339
0.00322039
0.0191859
0.0135612
0.113984
0.00649232
0.0067858
0.00203664
0.00142746
0.0324161
0.0184349
0.101883
0.00137991
0.00340919
0.0707636
0.123908
0.0283005
0.124783
0.00886841
0.00590168
0.00160531
0.040893
0.017545
0.0517874
0.00143782
0.014847
0.124069
0.0223492
0.00900029
0.018624
0.0220354
0.0237259
0.00891154
0.0074638
0.0662099
0.122733
0.0198324
0.0172189
0.0535813
0.00168066
0.0174883
0.0444542
0.11023
0.00130596
0.019067
0.0557351
0.00199115
0.0024355
0.011917
0.0174819
0.0259752
0.00160624
0.125557
0.00141995
0.0104598
0.00278267
0.0193513
0.0329002
0.00144398
0.0284025
0.0817766
0.127591
0.0173813
0.0997495
0.00422023
0.0439385
0.0506099
0.0233872
0.00217158
0.0321819
0.0383868
0.145546
0.00309497
0.00105395
0.00285739
0.00419838
0.0210217
0.0512172
0.017208
0.0124828
0.00391458
0.0817109
0.0194488
0.0177154
0.0127969
0.0595028
0.00134051
0.00151723
0.0223483
0.13837
0.032291
0.0696647
0.0676078
0.0691235
0.0979054
0.0443203
0.00493594
0.114541
0.0168297
0.0251915
0.0404358
0.00146735
0.0195776
0.0453429
0.0396114
0.00150047
0.107048
0.169722
0.0243376
0.12223
0.0112041
0.0235033
0.0402387
0.00887621
0.0501624
0.0210234
0.062165
0.00869848
0.0961277
0.0597663
0.00783923
0.0418118
0.0099722
0.0189855
0.0230127
0.0126282
0.118886
0.103471
0.0406176
0.00190531
0.0340577
0.0614335
0.00157116
0.0587986
0.0980745
0.124943
0.00401356
0.0128081
0.0127054
0.0104216
0.0133612
0.00679469
0.0320752
0.0233899
0.00722117
0.00148328
0.0431513
0.0208652
0.0702041
0.00395158
0.0070782
0.127633
0.0293176
0.0087673
0.0136614
0.0921693
0.00217698
0.0269479
0.00603823
0.00132131
0.0250743
0.0604835
0.0213517
0.0636149
0.0427814
0.119795
0.0329314
0.0262521
0.139884
0.147126
0.0117104
0.0455021
0.00819327
0.0611554
0.0167692
0.0636321
0.0244846
0.00195012
0.0527793
0.0562802
0.00422902
0.0421562
0.0602881
0.0103017
0.0019861
0.00111628
0.0329891
0.0302057
0.0232968
0.148653
0.117985
0.0186754
0.00377402
0.116849
0.00763784
0.0411927
0.0880009
0.0669232
0.094446
0.0370219
0.0138003
0.0189442
0.0253885
0.00200208
0.030792
0.0177255
0.0736804
0.00650181
0.017239
0.0118118
0.0408865
0.0145456
0.0222917
0.0506039
0.121027
0.0101179
0.00226127
0.00177516
0.052984
0.0258073
0.00212492
0.0228143
0.00670609
0.00337628
0.00214473
0.0246786
0.0401866
0.0145144
0.0186074
0.0177761
0.00292703
0.00455714
0.00221774
0.0389324
0.140988
0.0534535
0.00818097
0.0587312
0.0897162
0.0183078
0.0595823
0.0609596
0.124323
0.00644466
0.054032
0.110444
0.0947884
0.00137952
0.0923682
0.0374328
0.113707
0.0417005
0.125407
0.00529458
0.015622
0.00482934
0.0790944
0.0207965
0.0141021
0.00142537
0.00167296
0.041535
0.141188
0.00569632
0.00504461
0.0250734
0.00280652
0.0601186
0.0175323
0.148372
0.00344796
0.0392445
0.055523
0.0212979
0.0457546
0.0452976
0.0400473
0.00302924
0.0305483
0.0266132
0.144155
0.0428974
0.0182656
0.0525383
0.0938878
0.0249407
0.00323788
0.0362721
0.0573641
0.00254014
0.00532259
0.0574089
0.0116658
0.121372
0.0327327
0.00823652
0.00799908
0.0350345
0.0369215
0.0349583
0.00323167
0.0246122
0.0513022
0.0692167
0.0332024
0.0182492
0.0507203
0.023765
0.0313114
0.0100257
0.00623521
0.0183623
0.0056695
0.000997052
0.0277675
0.117742
0.00113206
0.00543265
0.15917
0.128684
0.0876364
0.0387991
0.0619134
0.0317945
0.0922473
0.0964843
0.00346312
0.00400583
0.0255649
0.0476045
0.00585756
0.0324425
0.131815
0.00161888
0.0354844
0.0715749
0.0990722
0.0927
0.0235712
0.0538417
0.0100835
0.0583172
0.0992769
0.0432816
0.0189979
0.0185788
0.0938512
0.0182832
0.00209438
0.0210612
0.0913955
0.00576405
0.0754459
0.0572224
0.077983
0.0235072
0.124268
0.00134844
0.0407377
0.00264404
0.00105885
0.0120875
0.0365164
0.0410164
0.0551554
0.0709489
0.0172008
0.00792907
0.00805829
0.111961
0.0177182
0.00159797
0.0696146
0.00443601
0.0994564
0.0442006
0.0198391
0.00711593
0.116979
0.0252892
0.0196818
0.00673106
0.00305774
0.00270047
0.0568975
0.12277
0.0108315
0.0435822
0.043352
0.0124406
0.0368437
0.0133503
0.112464
0.00527933
0.133146
0.00503456
0.00969499
0.00248531
0.00139019
0.0994656
0.0100966
0.00236642
0.00605767
0.091172
0.0623511
0.00785458
0.0725759
0.0578759
0.0921726
0.0951515
0.00611914
0.0199507
0.00213256
0.124089
0.0206398
0.120864
0.0941002
0.0375105
0.00188116
0.0093665
0.0696361
0.0327189
0.0795265
0.00161898
0.153176
0.0453929
0.0257032
0.0422635
0.00958605
0.124159
0.00175547
0.0940676
0.0412914
0.0394035
0.0620993
0.0788026
0.0989296
0.001642
0.10864
0.0472317
0.00591936
0.0612389
0.0946328
0.119399
0.118881
0.014724
0.062093
0.0854076
0.00115829
0.035632
0.153152
0.0286859
0.080797
0.00295211
0.0217265
0.0335938
0.0616315
0.025757
0.0957024
0.00488787
0.124519
0.0944888
0.00205587
0.141137
0.0097558
0.0305599
0.110637
0.0863199
0.0116881
0.0137892
0.0638833
0.142978
0.0341114
0.0689982
0.102612
0.0385901
0.0562275
0.0663894
0.0609993
0.00800401
0.109043
0.0747537
0.00219281
0.0460213
0.0220238
0.00772823
0.00417265
0.0765447
0.0416822
0.0840753
0.0935325
0.0213275
0.0141469
0.0241168
0.0264273
0.0792178
0.0347767
0.0589988
0.100919
0.0333644
0.0092094
0.0330267
0.0328082
0.12359
0.087262
0.149895
0.00450516
0.0398467
0.106798
0.00139912
0.0434601
0.00176179
0.0877994
0.0667412
0.0796899
0.00428835
0.0587424
0.0289588
0.0384629
0.092847
0.082025
0.0979223
0.0552887
0.0313839
0.0639028
0.0102346
0.141018
0.0182124
0.0846665
0.099856
0.0337346
0.00377759
0.123348
0.101447
0.0243927
0.0510364
0.0310113
0.0060779
0.0234784
0.0212193
0.00185218
0.00875315
0.0309281