/*--------------------------------*- C++ -*----------------------------------*\
| =========                 |                                                 |
| \\      /  F ield         | OpenFOAM: The Open Source CFD Toolbox           |
|  \\    /   O peration     | Version:  v2012                                 |
|   \\  /    A nd           | Website:  www.openfoam.com                      |
|    \\/     M anipulation  |                                                 |
\*---------------------------------------------------------------------------*/
FoamFile
{
    version     2.0;
    format      ascii;
    class       volVectorField;
    location    "650";
    object      U_0;
}
// * * * * * * * * * * * * * * * * * * * * * * * * * * * * * * * * * * * * * //

dimensions      [0 1 -1 0 0 0 0];


internalField   nonuniform List<vector> 
10042
(
(0.996854 0.00808091 -5.50854e-21)
(0.998783 0.00232368 5.3352e-21)
(1.02415 0.00950108 -2.6734e-22)
(1.00577 3.47256e-05 2.547e-21)
(1.13125 -0.0772056 1.55546e-20)
(0.999315 0.00243929 0)
(1.0121 -0.692242 0)
(1.37271 -0.23063 7.35573e-20)
(1.02022 0.00951169 3.65568e-22)
(1.0011 0.00279596 -9.51345e-21)
(0.00454964 -0.12677 2.77678e-20)
(1.00904 5.41277e-05 0)
(1.0111 0.00166371 -2.92839e-21)
(1.01136 0.000724317 1.82566e-23)
(0.970511 0.0455983 2.69002e-20)
(0.999605 0.00308654 0)
(0.999537 0.00321522 5.04684e-21)
(1.00003 0.000352678 0)
(0.996949 0.00776952 4.3739e-21)
(0.73147 0.314928 0)
(1.00268 0.00376412 3.54149e-22)
(1.06742 -0.211785 1.14491e-20)
(1.01052 0.000344969 1.35821e-21)
(1.00997 0.00343274 0)
(0.998864 0.00222557 6.03694e-21)
(1.05477 0.00299287 0)
(0.999144 0.000412002 7.64625e-21)
(0.998937 0.0425141 -4.44044e-21)
(1.015 0.0158973 -1.16017e-21)
(1.00405 0.0368655 0)
(0.997256 0.000760232 0)
(-0.255195 -6.12381e-05 2.23625e-19)
(1.00108 0.00264963 6.60775e-21)
(1.01615 0.031311 -5.09395e-22)
(1.05035 0.029769 0)
(1.00968 0.00354038 -3.57449e-21)
(1.05375 0.00620908 5.083e-21)
(1.05015 -0.0109621 1.3716e-20)
(1.00946 0.00331477 1.62778e-21)
(1.01925 0.0915144 -9.6117e-22)
(0.700633 0.309162 6.0092e-20)
(0.977555 0.0442515 -1.45482e-20)
(0.946468 -0.702261 6.46079e-20)
(0.995051 0.0250877 3.6455e-21)
(1.14625 -0.0927209 -1.9045e-20)
(1.06387 -0.0439335 1.96484e-20)
(0.982677 0.0297056 0)
(1.00848 -0.0753133 -2.63759e-21)
(1.05366 0.0143643 1.16752e-20)
(1.02593 -0.0198644 3.06757e-22)
(1.00037 0.000366074 -2.56891e-21)
(1.02605 -0.00154058 6.62047e-23)
(0.968507 0.0360082 1.66305e-20)
(1.02953 -0.00142351 -1.35505e-21)
(1.05438 0.00768541 5.5102e-21)
(0.999351 0.0025412 -1.41941e-21)
(1.01558 0.015841 0)
(0.983017 0.0286569 7.46932e-21)
(1.01647 0.0302158 -6.04936e-22)
(0.970615 0.0360366 6.91006e-21)
(0.998059 0.00144889 -5.50161e-21)
(0.997561 0.00243371 -1.07923e-20)
(1.05161 0.0316417 -1.3524e-20)
(1.02358 0.00968772 4.85625e-22)
(0.972553 0.0139158 1.08265e-20)
(1.01836 0.0292958 6.57884e-23)
(0.979021 0.00948382 0)
(0.774821 0.216721 -2.41503e-20)
(0.326416 -0.0550391 -6.29139e-20)
(1.00064 0.020437 -4.96178e-21)
(1.02909 -0.00178849 7.77555e-22)
(0.684392 0.323845 -1.62883e-20)
(0.994065 0.0249861 0)
(0.886003 0.0700019 0)
(0.979762 0.00635171 0)
(1.0102 0.00360769 1.88282e-21)
(1.13658 -0.0754505 -1.0001e-19)
(0.996844 0.00701991 0)
(0.924559 0.0846869 0)
(1.03442 -0.651992 -7.9974e-20)
(1.05174 0.0143085 -1.18986e-20)
(1.11746 -0.081946 -7.47857e-20)
(1.00629 0.0267707 3.15492e-21)
(0.97913 0.0384981 9.90084e-21)
(0.978795 0.00855387 3.55914e-21)
(1.00011 0.00140531 -1.06434e-20)
(0.997278 0.00936867 0)
(1.21178 0.130609 -2.36486e-21)
(0.989225 0.0157937 5.92406e-21)
(0.997623 0.00941933 -8.52356e-21)
(1.02381 0.0214063 1.00632e-21)
(1.1416 -0.0942345 9.81041e-20)
(0.99997 0.0439459 -9.42312e-21)
(1.02572 -0.0012086 4.43555e-23)
(1.00299 0.0358529 -6.07743e-21)
(1.01164 0.0211486 -2.24334e-21)
(0.999193 0.00651853 -6.41624e-21)
(1.00753 0.0208408 0)
(1.01824 0.0886068 1.7946e-21)
(1.01835 0.0139303 2.51998e-22)
(0.999994 6.03739e-05 -9.83077e-21)
(1.1706 0.0818214 -1.44714e-20)
(1.33596 -0.345572 6.13852e-20)
(1.00014 0.00146975 1.34714e-20)
(0.993525 0.0398557 -4.92718e-21)
(1.08031 0.150478 0)
(0.994996 0.00745261 6.59238e-21)
(0.999244 0.00692038 3.35733e-21)
(1.00259 0.00352114 0)
(1.01536 0.00126376 -1.75007e-21)
(1.00679 0.000900701 -6.57132e-21)
(1.00313 0.0158449 0)
(1.03561 0.0538119 -7.09794e-21)
(0.28024 -0.0557464 1.45407e-20)
(0.973319 0.0130452 -1.02024e-20)
(1.00106 0.0142272 3.54148e-21)
(0.993063 0.00221659 6.43074e-21)
(0.996725 0.00739102 -5.60093e-21)
(1.012 0.0205423 0)
(0.130794 -0.0286325 1.73225e-19)
(0.989307 0.0149508 0)
(1.34787 -0.262148 6.89614e-20)
(0.997901 0.0273552 7.94203e-21)
(0.995202 -0.000395706 0)
(1.16516 0.0772857 -4.09299e-20)
(1.00572 0.027393 -7.56869e-21)
(1.37035 -0.189595 -6.8957e-20)
(1.0584 0.0242652 -9.60286e-21)
(1.07198 0.149257 0)
(0.998051 0.0100029 4.42593e-21)
(0.922937 0.090479 0)
(0.984065 0.0155738 -1.12626e-20)
(-0.0852693 -0.221011 -9.4168e-20)
(1.21348 -0.0516643 -7.19705e-20)
(1.01782 0.0141766 2.79423e-22)
(1.11697 0.100001 1.16405e-20)
(-0.283718 -0.00746506 2.30795e-20)
(1.02401 0.0223918 1.14495e-21)
(1.0098 -0.0833457 1.29728e-21)
(1.2264 0.132898 -4.77857e-20)
(0.988772 0.0412055 6.96985e-21)
(0.992673 0.00225652 0)
(0.988965 0.0362857 -6.5198e-21)
(1.16847 0.0428397 2.79277e-20)
(1.02392 0.000616668 1.29941e-22)
(1.00286 0.0153615 0)
(1.11922 0.0689023 0)
(1.018 0.00180432 -2.18566e-21)
(1.00757 0.0216018 0)
(1.01733 0.064149 4.56006e-22)
(1.02152 0.00863392 -2.05745e-22)
(1.00003 0.000133036 0)
(0.788007 -0.299106 2.48979e-19)
(0.0709886 -0.114417 -4.08277e-19)
(0.999709 0.00118703 9.09887e-21)
(1.01107 0.00146453 4.34547e-21)
(0.961585 0.00957666 -1.41384e-20)
(0.997319 0.00247903 9.2187e-21)
(1.11952 0.105816 0)
(-0.153752 0.00587078 2.91681e-19)
(0.0830628 -0.0868511 4.49602e-20)
(1.16848 -0.0226151 0)
(0.996399 0.00129836 1.53461e-20)
(1.02128 0.00911132 1.17632e-22)
(1.00928 0.0284521 3.71152e-21)
(0.984627 0.0145878 0)
(1.00762 0.228032 4.19196e-21)
(0.226979 0.141846 -7.29123e-20)
(-0.31752 0.00490599 0)
(0.332308 -0.157705 1.41145e-19)
(1.02894 0.000576762 -1.50214e-22)
(1.00335 0.00813913 -4.24405e-21)
(1.13287 -0.0824041 -1.81236e-19)
(0.741846 0.37237 5.15545e-20)
(0.942803 0.146967 1.10736e-20)
(0.594388 -0.363108 4.33173e-21)
(0.180444 0.000634852 5.86803e-20)
(0.996383 0.0263391 8.41504e-21)
(0.761873 0.238534 1.15898e-19)
(1.05951 0.065272 -2.2181e-20)
(0.959506 0.0102328 1.8955e-22)
(-0.217871 0.0102195 -2.53471e-19)
(0.978132 0.011859 0)
(1.05735 0.025615 2.02778e-20)
(0.977241 0.0419611 1.42353e-20)
(0.229597 -0.0145378 -1.48774e-19)
(1.20239 0.0131399 0)
(1.01613 0.0262988 -1.77181e-21)
(0.154299 -0.0809332 -2.03449e-20)
(1.03952 0.0232124 -3.39675e-22)
(0.849493 0.8404 -6.34335e-20)
(0.987364 0.0360907 0)
(0.767423 -0.388659 -2.15166e-19)
(1.14889 -0.0713631 -4.69152e-21)
(1.12998 -0.0612909 -5.222e-20)
(1.11955 0.0106747 5.97923e-20)
(1.04645 0.0113093 -7.76848e-21)
(0.995674 0.00655515 -1.58985e-20)
(1.01084 0.00134593 4.42897e-21)
(1.0257 0.0419196 0)
(0.918723 0.134683 1.41472e-20)
(1.01695 0.0265504 5.18285e-23)
(1.00415 0.0159808 3.10411e-21)
(0.770347 0.394449 -6.584e-20)
(0.977859 0.010762 0)
(1.0126 0.00922522 -4.91372e-21)
(0.941862 0.886381 -5.68419e-20)
(0.999506 0.00102931 1.44695e-20)
(1.00003 0.000412505 -1.14155e-20)
(0.999936 0.00101661 -1.25728e-22)
(1.13678 0.0154701 0)
(1.01085 0.000237398 2.29957e-21)
(0.999389 0.218339 -4.17897e-21)
(1.17229 0.40589 1.10476e-19)
(0.963264 0.0110318 0)
(1.2031 0.021553 4.0196e-21)
(0.982513 0.00506854 0)
(1 0.00388037 0)
(1.12828 0.0492882 9.20213e-20)
(1.00677 0.0104599 0)
(1.03819 0.0530644 -4.53549e-21)
(0.961319 0.0167081 0)
(1.27969 0.300687 6.65001e-20)
(1.05042 -0.0129082 0)
(0.958931 0.060238 -2.61531e-20)
(1.055 -0.000234751 0)
(1.28663 -0.091444 -4.55792e-20)
(1.00195 0.0148317 3.44359e-21)
(1.1777 0.00942 0)
(1.02947 -0.00245508 0)
(1.02061 0.00906998 3.22798e-23)
(0.896328 0.387759 -1.12978e-20)
(1.00306 0.00786792 5.77306e-23)
(1.02919 -0.002779 4.93143e-22)
(1.02459 0.00989249 -1.34311e-21)
(1.01984 0.06505 -2.96807e-21)
(1.01153 0.0105205 0)
(1.01173 0.000500093 0)
(1.03643 0.0112879 0)
(1.033 -0.00594555 -2.08112e-21)
(0.996364 0.00103509 0)
(0.996858 0.0274039 -8.32824e-21)
(1.00901 0.0273914 -7.84418e-21)
(1.03557 0.0565283 -1.09933e-22)
(1.00128 0.0136998 -1.15205e-20)
(0.997439 0.000939471 3.61053e-21)
(1.0092 0.00075679 0)
(0.994271 0.0415125 4.79452e-21)
(1.02912 -0.000494 0)
(1.00002 0.000254719 -5.13047e-21)
(1.0108 0.000859131 4.87981e-21)
(1.00099 0.0197271 4.69177e-21)
(1.00026 0.0606948 4.07013e-21)
(1.30623 0.308816 0)
(1.16793 -0.0155751 0)
(0.134098 -0.0710546 2.2336e-20)
(0.936662 0.152343 -1.14633e-20)
(0.95787 0.144673 1.56006e-20)
(0.970385 0.0481035 0)
(1.06951 -0.0523735 0)
(0.782592 -0.483955 1.2982e-21)
(1.0353 0.011455 5.45243e-21)
(0.995092 0.00710519 -5.53592e-21)
(1.01158 0.00050125 2.54213e-21)
(1.02404 0.0417998 -5.10553e-21)
(1.01125 0.0101369 0)
(1.05353 -0.23515 0)
(1.03337 0.00215062 1.02154e-21)
(0.997673 0.00991753 9.92594e-21)
(0.999957 0.000876782 2.54625e-22)
(0.909338 0.136923 -3.61177e-20)
(1.02956 -0.000788657 0)
(1.18136 0.380716 -1.01947e-19)
(0.952191 0.15037 -1.55966e-20)
(1.21091 0.0825357 0)
(1.04035 0.0243219 1.55028e-20)
(1.03265 -0.00615735 1.74428e-22)
(1.01053 0.00983505 3.97347e-21)
(1.04073 0.00173476 0)
(1.02439 0.000792342 -1.51655e-22)
(1.06281 0.0663286 1.13103e-20)
(0.992599 0.0159774 5.21294e-21)
(1.05552 0.00453922 -1.20612e-20)
(0.0411982 -0.243579 -8.51818e-20)
(1.01222 0.00903808 5.21669e-21)
(1.0223 0.0113568 -1.97319e-21)
(0.836003 -0.509749 0)
(1.06844 -0.0462725 -1.63488e-20)
(1.01585 0.0255029 3.21663e-22)
(0.997864 0.00111244 6.02059e-21)
(1.00045 0.0582152 -8.50331e-21)
(0.5739 -0.30476 2.41518e-20)
(1.10773 0.00557346 -6.51464e-20)
(1.16821 0.0404534 0)
(1.00031 0.000318715 -2.66885e-21)
(1.01088 0.00116017 -7.47091e-21)
(1.00226 0.015382 -3.98545e-21)
(1.02044 0.0100021 0)
(1.28441 -0.116056 -1.25297e-20)
(0.995669 0.0126414 -1.53563e-21)
(0.998061 0.00160917 1.07032e-20)
(1.00317 0.00905057 -5.14377e-21)
(0.982466 0.00405227 0)
(1.04403 -0.0145318 0)
(0.978081 0.0529311 0)
(1.13662 0.154608 0)
(0.974545 0.084052 -4.65162e-20)
(0.971651 0.0336068 -7.3035e-21)
(1.2309 0.125939 5.58438e-20)
(1.00115 0.0125449 3.87063e-21)
(1.03998 0.00205411 0)
(0.999005 0.000388201 1.17326e-21)
(-0.525098 -0.0718949 1.19267e-20)
(1.1618 0.0662983 -7.58681e-22)
(1.19965 -0.0499832 -4.11768e-21)
(0.160843 0.0245727 -6.44071e-20)
(1.01076 0.00368765 4.06585e-21)
(1.03337 0.00174048 -2.50553e-21)
(1.00103 0.0211515 -5.70455e-21)
(0.987482 0.0573953 1.77118e-20)
(1.05605 0.00133311 0)
(1.00004 0.000895377 0)
(1.05705 0.0791795 1.34028e-20)
(1.00706 0.0009389 4.89097e-21)
(1.01194 0.000343558 2.42619e-21)
(0.995371 0.026304 -4.18035e-21)
(1.14513 0.158623 -4.63247e-20)
(0.999991 0.000209923 6.56665e-21)
(1.03778 0.023275 -3.566e-21)
(0.984811 0.0126209 0)
(0.979754 0.0512783 6.03487e-21)
(0.215931 -0.0378318 -1.56543e-20)
(1.00096 0.0130869 -7.98383e-21)
(0.999633 0.00109855 0)
(1.00167 0.000973738 0)
(1.02317 0.00911947 -3.14296e-22)
(1.08297 0.0961681 0)
(1.12888 -0.0669712 4.53155e-20)
(0.966917 0.146884 -6.50641e-21)
(1.25495 0.0974433 0)
(1.0458 -0.0144486 9.93844e-21)
(1.05485 0.0255901 1.28932e-20)
(0.984163 0.0134404 0)
(1.01152 0.000711845 -4.33839e-21)
(1.02645 0.0196524 1.02481e-21)
(1.00002 0.00028173 1.69418e-22)
(1.26413 0.0487528 7.56914e-20)
(0.992938 0.0165763 0)
(1.01788 0.0302567 -1.93823e-22)
(0.973456 -0.043445 7.28848e-22)
(1.00372 0.0162403 2.58281e-23)
(0.99173 0.0628457 -8.78256e-21)
(0.979168 0.0406447 -2.08368e-20)
(0.966695 -0.0508941 -1.34404e-21)
(1.02477 0.00538479 4.60171e-22)
(0.959844 0.0577521 3.18746e-20)
(1.0684 0.142325 1.91641e-20)
(1.05324 0.0798322 2.00819e-20)
(1.0271 0.0389792 -1.36319e-21)
(0.994941 0.00581797 4.84325e-21)
(1.27463 0.118481 0)
(1.12242 0.0664022 1.56047e-20)
(1.02947 0.00708133 -1.64179e-21)
(1.08166 0.090854 -3.21283e-20)
(1.00056 0.00537513 -6.18479e-21)
(1.00304 0.0075596 5.17455e-21)
(1.00072 0.00537277 0)
(0.989382 0.0631498 -9.51336e-21)
(1.2221 -0.0284597 -6.45496e-20)
(1.0332 -0.00289795 0)
(1.00004 0.000735816 0)
(0.973508 0.0338115 0)
(1 6.45855e-05 0)
(0.999996 0.000477018 -7.18839e-21)
(0.75399 0.333663 0)
(0.995507 0.00620039 9.28984e-21)
(1.01599 0.00600536 -2.01348e-21)
(-0.207098 -0.0203194 -8.96229e-20)
(1.00403 0.00519409 4.15603e-21)
(1.29193 -0.447687 0)
(1.28527 0.0408224 0)
(0.88711 0.0770968 -4.71346e-21)
(0.449095 -0.260121 -4.16667e-20)
(0.13644 -0.0640397 0)
(1.0167 0.0805473 1.9688e-22)
(0.870715 0.388544 2.95931e-20)
(0.999468 0.000848543 -4.76226e-21)
(1.02551 -0.0220457 -1.48494e-22)
(0.999999 0.000125417 5.97642e-21)
(0.982286 0.0260923 0)
(0.865607 -0.0533818 -1.76893e-20)
(1.00023 0.0027705 7.76629e-21)
(0.985812 0.0592497 -4.58498e-21)
(0.662285 1.0819 0)
(1.01001 0.000323335 0)
(1.00259 0.0039098 -3.36804e-21)
(0.809043 0.131527 -7.12274e-20)
(0.890649 0.767192 0)
(1.01778 0.0282597 8.95043e-23)
(1.01766 0.00224217 0)
(-0.284396 0.00496432 -2.45815e-19)
(1.16715 0.0702419 0)
(1.00338 0.00850429 7.65879e-21)
(0.766213 0.201672 -2.84417e-20)
(0.148147 -0.0434022 4.09952e-20)
(1.00713 0.010657 0)
(1.00002 0.000495429 0)
(1.01365 0.00708176 -4.44863e-22)
(0.999014 0.0111876 -4.69041e-21)
(1.01192 0.000419442 -2.54384e-21)
(1.01216 0.00853213 2.3363e-23)
(1.27461 0.12004 -5.04865e-20)
(1.35849 -0.307397 -9.05274e-20)
(0.981881 0.027269 0)
(1.11115 0.115381 -1.99396e-20)
(1.01124 0.00061249 -2.88035e-21)
(0.995734 0.0119646 6.85708e-21)
(1.27003 0.0190911 0)
(1.02668 0.00740345 2.83891e-21)
(1.32513 -0.403603 0)
(1.11192 0.00412039 -1.32827e-21)
(0.97736 0.0376659 2.85348e-21)
(1.01649 0.00475989 0)
(1.01732 0.00233425 0)
(1.15435 0.27964 3.82924e-20)
(1.02935 0.00022201 -5.9546e-22)
(1.01356 0.0826402 -3.58706e-22)
(0.998375 0.0367493 8.81657e-21)
(0.0503813 -0.139627 -2.46441e-21)
(0.965121 0.0102196 -1.24727e-20)
(1.17946 -0.0678615 0)
(0.973026 0.0447574 -1.25474e-20)
(1.00167 0.00469157 4.2514e-21)
(1.00137 0.0148177 -4.16026e-21)
(1.35908 0.190397 2.65057e-19)
(1.00138 0.00435521 3.72408e-23)
(0.92603 0.0259889 3.33482e-20)
(0.997948 0.0155923 0)
(1.02432 0.00549131 -1.39854e-22)
(-0.16483 0.0290472 -2.66425e-19)
(1.04761 0.013706 8.78453e-21)
(0.992786 0.00352562 3.02188e-23)
(1.00719 0.000556266 -9.42979e-23)
(-0.429626 0.0160774 1.97709e-19)
(0.998505 0.0105908 2.17706e-21)
(1.04902 0.0143059 -1.72282e-20)
(1.02114 0.0436035 0)
(1.01081 0.0101822 0)
(1.12144 0.107864 2.10368e-20)
(0.483156 -0.304428 0)
(1.00307 0.00463395 0)
(0.974863 0.0130478 -1.88119e-20)
(1.0338 -0.0029078 -2.32175e-21)
(1.01072 0.00101052 -1.70555e-21)
(0.999597 0.0035104 0)
(0.994447 -0.000943845 0)
(-0.44358 0.000595987 -3.4797e-19)
(0.995588 -0.00149666 0)
(1.0112 0.000310164 -1.45978e-21)
(0.989263 0.0920692 0)
(1.27864 -0.328641 -6.73122e-21)
(1.12101 0.0448863 2.25367e-20)
(1.00002 0.000307921 5.7774e-21)
(1.05952 0.0612087 0)
(0.15 -0.0296479 0)
(1.04335 -0.0165717 0)
(0.991749 0.000442846 -6.07571e-21)
(0.9952 0.00535232 6.80472e-22)
(1.21255 -0.0390199 0)
(1.02876 0.00703966 -4.0557e-21)
(1.00165 0.00438542 -3.15117e-21)
(0.921504 0.0742368 -2.25303e-20)
(1.02116 0.010157 2.20034e-22)
(1.01186 0.00839531 0)
(0.959685 0.0181958 0)
(1.01229 0.00341308 2.31892e-21)
(0.990518 0.149094 -8.53779e-21)
(0.994654 0.00769874 -3.65961e-21)
(1.00126 0.00434202 -4.94854e-21)
(-0.0168065 -0.105598 -3.0586e-20)
(1.00589 0.00403036 2.93649e-21)
(1.02826 0.000365757 1.07617e-21)
(1.00038 0.00272415 1.3147e-20)
(0.999041 0.0353564 -4.16957e-21)
(1.05814 0.0740141 -1.18149e-20)
(1.00291 0.0045145 0)
(1.02257 0.00921862 2.97985e-22)
(1.21916 -0.0459273 1.42277e-19)
(1.00195 0.0393631 4.1668e-22)
(1.00434 -0.177144 -1.54428e-19)
(1.03492 0.0125599 -3.22177e-21)
(0.999999 0.000117745 4.9399e-21)
(1 0.000101535 -2.68507e-21)
(1.18496 0.0836476 5.85839e-20)
(0.99181 0.0129955 -1.03263e-20)
(0.992733 0.00321324 6.87592e-21)
(1.00144 0.00111879 4.9996e-21)
(1.02985 0.00615486 1.313e-21)
(0.967118 0.0837173 0)
(1.12684 -0.610374 0)
(0.998112 0.0104919 4.72017e-21)
(0.983273 0.147401 5.25826e-21)
(0.736305 0.860376 6.21382e-20)
(1.04177 -0.0165263 6.33873e-21)
(1.00002 0.000477387 0)
(0.994224 0.00152628 1.15076e-20)
(1.02618 0.00352778 9.22269e-23)
(1.00013 0.00151388 -2.21032e-21)
(1.00025 0.011433 0)
(0.330593 0.449489 6.97099e-20)
(-0.396317 -0.0150129 -2.93566e-20)
(1.00023 0.00264174 0)
(1.05775 0.0223312 0)
(1.04063 -0.00681683 0)
(1.04022 -0.00638436 0)
(0.978763 0.00598055 4.31081e-21)
(1.00831 0.000889608 7.17709e-21)
(1.21661 -0.262155 -3.60136e-20)
(1.15916 0.26522 -1.93632e-21)
(0.777817 0.837027 1.60962e-20)
(1.01606 0.00476905 -1.82954e-22)
(1.02674 0.00372862 7.95081e-22)
(1.02611 0.00763648 -2.49748e-21)
(1.00393 0.00536054 -8.52397e-21)
(0.401048 -0.118049 0)
(1.06967 0.0647115 0)
(1.02991 0.00672971 -1.95201e-21)
(1.01541 0.0185596 -1.67972e-22)
(1.00581 0.000398509 -1.14484e-21)
(0.980527 0.00415966 -1.18693e-20)
(1.25792 -0.273362 -6.75958e-20)
(1.04775 0.0121018 -4.9487e-22)
(0.999191 0.00034632 -1.57468e-20)
(-0.513663 -0.0183059 -1.23002e-19)
(0.869805 0.715427 0)
(1.14622 0.464209 0)
(1.087 0.144571 1.95558e-20)
(0.999635 0.00332035 -5.87779e-21)
(1.01781 0.0149146 -6.2978e-22)
(1.01779 -0.013675 -3.37739e-21)
(1.11178 0.0632263 3.57316e-20)
(0.383867 0.204266 -6.60097e-20)
(0.396297 0.184694 -6.87703e-20)
(0.958153 0.0518098 -2.05623e-20)
(0.922175 0.0243268 -3.68987e-20)
(1.00014 0.00129081 0)
(1.03715 0.021936 -5.96927e-22)
(0.975836 0.0135189 0)
(1.00016 0.0013931 0)
(0.0749271 -0.0976511 -4.66623e-20)
(1.00944 0.000819314 -9.98254e-22)
(1.00088 0.0120026 -3.71529e-21)
(1.05207 -0.0415042 7.02832e-21)
(1.0001 0.00144833 0)
(0.942592 -0.215262 -1.81973e-21)
(1.03384 0.0125136 -1.27418e-21)
(1.11809 -0.125264 -1.81309e-20)
(1.02883 0.0828899 0)
(0.99998 0.000958433 4.43952e-21)
(1.0341 0.00428902 0)
(1.0514 0.0278163 -1.24106e-20)
(1.02978 -0.010075 5.91076e-22)
(1.0876 0.138767 -7.00484e-22)
(1.02113 0.280163 -8.35747e-21)
(0.999981 0.00022967 -8.05705e-21)
(1.02438 -0.0177601 0)
(1.02514 0.0351708 0)
(1.01075 0.02103 -2.39073e-21)
(1.00052 0.00162712 8.25209e-22)
(1.02669 0.0205279 -3.91971e-22)
(0.996977 -0.0011675 -3.89813e-21)
(0.957236 0.0547245 -1.04226e-20)
(1.11976 0.0420268 0)
(0.873854 0.13403 4.66011e-20)
(0.999165 0.000118502 2.61573e-21)
(1.00134 0.0407277 -2.11764e-21)
(1.00148 0.00103522 -1.06426e-20)
(0.992505 0.00591897 8.68419e-22)
(0.852302 0.369453 -2.18683e-20)
(1.00228 0.00307128 -3.04653e-21)
(1.01819 0.0450255 0)
(1.05886 -0.198733 -1.51176e-20)
(1.01204 0.00332313 3.86421e-23)
(1.11377 0.0678104 -4.51847e-20)
(1.0022 -0.0103972 7.71556e-21)
(0.997678 0.000925088 -3.85316e-21)
(0.144005 0.032588 0)
(1.07139 -0.0121781 0)
(1.00006 0.00152013 -7.67141e-21)
(1.18624 0.032821 8.89846e-21)
(1.02573 0.00938799 0)
(1.00002 0.0003308 5.99315e-21)
(0.983808 0.00855277 2.12653e-20)
(0.995305 0.000522602 -1.06639e-20)
(0.999996 0.000104659 1.30427e-20)
(1.03949 0.0280618 2.17739e-22)
(0.979583 0.00399584 0)
(0.924905 0.656314 0)
(0.990605 0.0413905 -7.05114e-21)
(0.994559 0.00163417 -1.24844e-20)
(1.01959 0.0269717 -5.52807e-23)
(1.06153 0.0733743 7.00828e-21)
(1.06566 0.00465564 0)
(0.99495 -0.000580666 0)
(1.0372 0.00160571 4.81608e-22)
(1.01732 0.0150932 0)
(1.0483 -0.0102392 -1.93836e-20)
(0.985 0.00356189 -1.33012e-20)
(1.02661 0.0864121 0)
(1.01643 0.00611876 8.34976e-22)
(0.955028 0.0118194 0)
(1.01688 0.00270411 -1.44528e-21)
(1.00099 0.00582743 -5.271e-21)
(0.953084 0.104514 1.58932e-20)
(1.01335 0.00732315 5.6046e-22)
(0.852843 0.348019 0)
(0.9943 -0.000493442 -1.22632e-20)
(1.03185 0.00494527 -1.93694e-21)
(1.0063 0.00390544 2.63911e-21)
(1.05935 -0.00378486 9.54382e-21)
(1.00035 0.00260513 0)
(1.07451 -0.0127297 0)
(1.0165 0.0247363 8.28251e-22)
(1.18233 0.0281092 0)
(0.999999 0.000637605 7.68436e-21)
(0.93042 -0.625029 -6.3102e-20)
(1.018 0.00157348 9.34082e-22)
(0.978733 0.0489708 6.04407e-21)
(0.999974 0.000375918 1.76806e-21)
(0.981646 0.00581652 0)
(1.00046 0.00493006 -1.41466e-21)
(1.03869 0.0288107 7.98347e-21)
(0.99703 -0.00072877 -5.38001e-22)
(0.691385 0.274687 4.30912e-21)
(0.694733 0.464744 1.32386e-19)
(0.925777 -0.19872 8.86288e-22)
(1.03961 0.00925376 0)
(0.970741 0.140449 6.22889e-21)
(1.00517 0.0162279 0)
(1.00856 0.145183 -2.4514e-22)
(1.05963 -0.045325 0)
(1.00116 0.00260094 9.21717e-22)
(0.927502 0.0740819 2.07322e-20)
(1.01896 0.297353 8.59538e-21)
(0.439693 0.245016 6.20828e-20)
(1.00397 -0.00767293 -7.28377e-21)
(1.32666 -0.0679295 1.8715e-19)
(1.05372 0.0278591 -8.15421e-22)
(0.999773 0.0304124 3.9205e-21)
(1.00007 0.00110595 -6.74487e-21)
(1.039 0.00177902 0)
(1.03999 0.0256942 -1.08012e-20)
(1.0308 -0.0100918 0)
(1.01053 0.00348465 -3.7432e-21)
(1.02924 0.0365286 2.71786e-21)
(1.16181 -0.0122887 9.71458e-21)
(1.00002 0.000116789 0)
(0.992404 0.00548311 -9.63573e-23)
(1.0377 0.00087255 0)
(0.541395 0.0962204 0)
(0.980444 0.0474297 -1.16916e-20)
(1.05653 0.0594649 2.25353e-21)
(1.01762 -0.0106039 4.35589e-21)
(0.999986 0.000789243 -4.62093e-21)
(0.986669 -0.711363 7.66971e-20)
(1.01042 0.00414031 2.06722e-21)
(1.00376 0.00924277 -4.9553e-21)
(1.00533 0.0367682 1.97419e-22)
(1.02133 0.0106479 -1.64797e-22)
(-0.500917 -0.0625476 0)
(1.04947 -0.0558945 2.50004e-22)
(0.474853 0.0987357 0)
(1.0011 0.000423779 -1.11492e-20)
(1.47635 0.125019 2.69816e-19)
(0.121407 0.107935 0)
(1.28226 0.020596 0)
(1.03157 -0.0105439 0)
(1.06577 -0.0555916 6.52117e-21)
(1.17735 0.00363466 0)
(1.03585 0.140663 0)
(0.984471 0.011604 0)
(0.997618 0.0161553 8.52508e-22)
(0.919409 0.0797917 0)
(-0.425582 -0.107465 1.898e-20)
(1.0062 0.0163242 0)
(0.988059 0.0963369 6.82032e-21)
(0.906865 0.115348 0)
(0.994498 0.00843635 -7.89713e-21)
(1.00151 0.00655969 -5.41039e-21)
(1.01046 0.0215903 0)
(0.994085 0.0449887 -6.27342e-21)
(1.00032 0.00497697 8.17313e-21)
(1.02543 0.00470862 0)
(1.1843 0.0924381 0)
(1.10062 0.012471 -6.81887e-21)
(1.02489 0.00478658 -5.61874e-22)
(1.00011 0.00370212 -4.3996e-21)
(-0.111168 -0.207205 0)
(0.622046 -0.528305 -8.27012e-20)
(1.00473 0.0165169 3.36827e-21)
(0.992264 0.000267725 -8.3921e-22)
(1.00038 0.000434386 -2.81707e-21)
(0.99861 0.0110929 2.31989e-21)
(1.28876 0.0176481 5.01974e-20)
(1.04387 -0.0550918 -6.94666e-21)
(1.14349 0.408892 0)
(0.991746 0.0398051 0)
(1.00149 0.006862 1.12003e-20)
(1.02137 0.00771531 0)
(0.957804 0.00853313 -1.58415e-20)
(0.998247 0.00142567 -8.19933e-22)
(1.05457 -0.00681033 1.11855e-20)
(0.974889 0.0315059 2.99133e-21)
(0.901605 0.0602157 5.60462e-20)
(0.99932 0.0034325 1.84655e-22)
(1.00077 0.00203835 0)
(1.06592 0.116462 4.96971e-21)
(1.00604 0.0156575 0)
(1.03572 -0.0122196 -2.79854e-21)
(0.935905 0.259937 0)
(1.03336 0.00468107 -5.47669e-22)
(0.828513 0.629763 -8.55153e-20)
(0.461838 0.168181 1.86179e-20)
(0.998609 0.0305616 4.204e-21)
(1.00044 0.0119683 -8.41053e-21)
(1.14175 0.105143 -6.81413e-20)
(-0.127492 -0.117066 6.9082e-20)
(1.01345 0.127158 6.6858e-21)
(1.0251 0.00929469 0)
(1.40288 -0.164768 0)
(0.82354 0.424768 -6.19001e-21)
(0.930316 0.0319421 5.48618e-20)
(0.985151 0.0107749 1.1989e-20)
(1.00159 0.000842112 0)
(1.00236 0.00336431 0)
(1.21014 0.375799 1.95836e-19)
(1.03914 0.00975087 -2.33455e-21)
(0.833115 0.306995 0)
(1.00002 0.000360233 7.1922e-22)
(0.231323 -0.0403411 0)
(1.20648 -0.0212821 2.97938e-20)
(0.99429 0.0010725 0)
(0.997817 0.00326681 0)
(0.702827 0.260095 -5.34853e-20)
(0.999484 0.0010081 -1.51566e-20)
(1.00654 0.00396833 0)
(1.00737 0.0654527 0)
(0.394702 -0.194276 -7.96665e-20)
(0.575379 0.38655 0)
(1.05123 0.125901 -1.35292e-20)
(1.02787 0.000894616 -1.2663e-22)
(1.08249 -0.0365848 0)
(1.03372 0.133503 0)
(1.00915 0.00336367 2.02053e-21)
(1.00542 0.000227889 7.53421e-21)
(0.999726 0.00114285 -1.8371e-20)
(1.21733 0.351451 -1.21362e-19)
(1.00016 0.00115023 6.00357e-21)
(0.994536 0.00210351 0)
(1.07863 -0.0379941 1.63174e-20)
(0.979822 0.00741064 -3.95561e-21)
(1.12596 0.0531897 2.54118e-20)
(1.00063 0.000535033 6.45921e-21)
(0.998844 0.000587837 -7.70272e-22)
(1.00728 0.000766903 -8.17989e-21)
(0.999292 0.000263635 -2.53815e-21)
(1.20136 -0.0583302 4.02077e-20)
(1.00017 0.00124829 -6.72157e-21)
(1.00054 0.0188912 -5.27606e-21)
(1.07915 -0.00210561 0)
(0.984934 0.221049 7.68108e-22)
(0.912581 0.550647 2.37078e-20)
(1.00008 0.00148933 3.35277e-21)
(1.14247 0.0261964 0)
(0.497712 -0.570225 -8.98689e-20)
(1.02744 -0.2408 2.62974e-19)
(0.975438 0.0385728 1.21344e-20)
(-0.509652 -0.0427461 0)
(-0.163808 0.0140961 2.09075e-19)
(0.994729 0.00823454 7.19529e-21)
(1.01093 0.00174079 1.85901e-21)
(0.988203 0.0393659 0)
(0.958004 0.0287566 -4.73724e-21)
(0.535397 0.265754 -2.63836e-19)
(1.02287 0.0437964 2.11653e-21)
(1.00052 0.00152884 0)
(1.00015 0.0012259 4.94392e-23)
(0.658161 -0.426634 -8.67233e-21)
(1.00811 0.137816 0)
(1.02728 0.000736055 0)
(1.00043 0.00135119 6.9965e-21)
(0.991942 0.00126553 1.17601e-22)
(1.08658 0.0870837 4.09805e-20)
(1.00616 0.00413632 8.78869e-24)
(1.00435 0.000351511 0)
(1.04803 -0.00860376 9.23803e-21)
(0.993175 0.0433054 6.43811e-21)
(0.99979 0.00117395 8.72482e-21)
(1.01862 0.0119181 0)
(0.803157 0.700841 0)
(1.02188 0.0118334 -4.4951e-22)
(0.997 0.0429187 4.97394e-21)
(0.996813 -0.00143971 8.43304e-21)
(1.00146 0.0362904 9.46983e-21)
(1.17326 0.0491282 0)
(1.00011 0.00155371 0)
(0.98388 0.0441726 -9.72234e-21)
(0.99806 -1.13121e-05 -2.54443e-21)
(1.04515 0.0119998 -1.92989e-21)
(0.709483 0.616927 0)
(0.999999 7.91535e-05 -5.58046e-21)
(0.924592 0.523593 -3.22528e-20)
(1.0387 0.0508454 0)
(0.574716 0.332092 8.72155e-20)
(1.01021 0.000351386 -1.77664e-21)
(1.02698 0.0405108 0)
(1.04644 -0.00814248 1.02364e-21)
(1.14289 0.0285242 8.4351e-20)
(0.812656 0.144513 2.43924e-20)
(0.974506 0.0303128 6.46065e-21)
(1.31019 -0.0843606 -2.08661e-19)
(0.957972 -0.488401 6.14133e-21)
(0.969042 0.0200015 -2.85084e-21)
(1.0071 0.000413136 0)
(1.30114 0.00475626 0)
(0.998097 -0.000530819 -4.10309e-22)
(1.00003 0.000758878 3.91755e-22)
(1.00923 0.00989044 3.63261e-21)
(1.00005 0.000871839 7.73108e-22)
(1.10307 0.0126526 3.16775e-20)
(1 1.1201e-05 2.79295e-21)
(0.999994 0.000100857 -6.7294e-21)
(0.922451 0.2566 0)
(1.0271 0.0791286 0)
(1.00846 5.24443e-05 -3.15212e-21)
(0.946941 0.105351 1.02061e-20)
(0.961176 0.0145434 0)
(1.08266 0.115437 0)
(1.03566 0.00932801 0)
(0.906869 0.623379 8.72343e-21)
(0.999154 0.011727 0)
(1.05651 -0.0412858 8.55123e-21)
(1.01411 0.134364 -3.15994e-21)
(0.859402 0.093804 -2.67837e-20)
(1.04182 0.0155691 0)
(0.33723 -0.128577 0)
(1.00001 0.000373151 5.84542e-21)
(1.03384 -0.00451819 0)
(1.00113 0.00153749 -2.88604e-21)
(1.00021 0.0292413 -3.64722e-21)
(0.991112 0.0130887 0)
(1.1072 -0.121839 4.34542e-21)
(0.891299 0.140193 -2.35651e-20)
(1.02518 -0.0136402 2.10123e-21)
(0.0729918 -0.0743291 0)
(1.00048 0.00170438 6.40956e-21)
(1.0667 1.03265 0)
(1.03298 -0.00535423 -1.85563e-22)
(1.01534 0.0145292 9.69812e-22)
(0.891535 0.0655942 0)
(1.06267 0.0167818 -5.30993e-21)
(0.511011 0.26163 -4.87294e-20)
(0.997585 0.00334936 4.14579e-21)
(0.963324 0.0836037 -1.44315e-20)
(0.978518 0.208997 -2.489e-21)
(1.02 0.0452956 1.28514e-21)
(0.864592 0.137191 -6.9455e-20)
(1 0.000137568 -1.73816e-22)
(1.01026 0.00199082 1.11757e-21)
(1.00001 0.00012507 -1.68524e-22)
(1.08918 0.4659 2.00668e-20)
(0.999403 0.0012136 0)
(1.00104 0.00285636 0)
(1.00853 0.00949383 0)
(1.00661 0.00071454 4.53534e-21)
(1.00084 0.00579138 0)
(0.999881 0.00382014 0)
(1.02025 0.0280213 0)
(1.00196 0.00992453 -6.53333e-21)
(0.999446 0.000877241 -5.38455e-21)
(0.96537 0.00825628 0)
(1.00986 0.066935 0)
(0.951849 0.102634 0)
(0.995441 -0.00117549 9.16638e-21)
(0.621046 0.296506 0)
(1.00246 0.0259541 3.95523e-21)
(1.43649 0.11827 0)
(0.926725 0.139175 0)
(0.287918 0.0554866 3.96381e-20)
(1.07922 0.0409963 0)
(1.0336 -0.00418391 3.67197e-22)
(-0.341166 0.0198856 1.36383e-21)
(1.06795 0.00512728 1.25574e-20)
(1.1305 0.439619 -4.25819e-21)
(1.12153 -0.133386 -6.31991e-20)
(1.08528 0.0822997 0)
(1.00016 0.00131419 2.09017e-22)
(1.00311 0.00864849 2.38021e-21)
(1.00667 0.0444198 6.63553e-22)
(1.17253 0.0455039 0)
(1.00974 0.0217369 0)
(0.500589 -0.27071 -8.66137e-20)
(1.00334 0.0207851 0)
(1.09901 0.751612 -1.62132e-19)
(0.861266 -0.604338 -9.14908e-21)
(1.02041 -0.00940525 -8.63063e-23)
(1.03343 0.0134758 1.48611e-21)
(0.0256961 0.00124062 0)
(0.224204 -0.0232041 -4.06731e-20)
(0.952586 0.0124396 1.89581e-20)
(0.995101 -1.07074e-05 -1.08299e-20)
(0.99998 0.000539767 0)
(1.0375 0.00241951 -4.7576e-22)
(1.0104 0.00188517 0)
(1.00811 0.000702957 -4.28359e-21)
(1.11383 0.112911 0)
(0.862835 -0.0305764 0)
(0.998143 -0.000156834 7.7323e-22)
(1.00904 0.0214346 0)
(0.967151 0.00762435 0)
(1.35528 0.173378 -1.53024e-19)
(1.01492 -0.0158726 2.17845e-22)
(0.999727 0.00147911 0)
(1.03677 0.0487446 0)
(1.14081 0.000391535 -4.56377e-20)
(0.999295 0.0380509 5.49242e-22)
(0.999997 0.00320534 5.1722e-21)
(0.301264 -0.263472 -1.05322e-19)
(0.990416 0.0324161 0)
(0.99602 0.0130414 0)
(0.947648 1.0755 0)
(1.00273 0.0570129 3.14985e-22)
(0.983377 0.00342866 0)
(-0.205515 0.00526078 2.09399e-19)
(0.46128 -0.422843 0)
(0.394808 0.049812 0)
(0.992745 0.00687446 7.85921e-21)
(0.984495 0.0463669 1.84489e-20)
(1.23079 0.0368953 0)
(1.0088 0.00987804 3.71226e-21)
(1.01522 0.0193366 1.28739e-21)
(0.999994 0.000215205 -6.7112e-21)
(1.03453 -0.00805375 1.62356e-21)
(0.998244 0.00177944 -4.91643e-21)
(1.00067 0.000505977 -7.77512e-21)
(1.0295 -0.00337237 -9.28652e-22)
(0.819967 0.12156 4.3866e-20)
(0.988445 0.430115 1.41201e-20)
(1.00609 0.0105018 0)
(0.985981 0.00750585 0)
(0.998062 -0.00090048 -1.2953e-20)
(1.01474 0.0180326 -6.21761e-22)
(0.989391 0.0379159 -7.14204e-21)
(1.0097 0.00225281 -3.16184e-21)
(1.17072 0.000372035 0)
(1.01381 0.0870208 1.36951e-21)
(0.99471 0.0226276 8.14901e-21)
(0.996507 0.00241829 1.07732e-20)
(1.0069 0.00985814 4.46772e-21)
(1.00157 0.00284669 9.19416e-22)
(1.02495 0.0257229 1.71214e-21)
(0.467522 -0.199687 7.62919e-20)
(1.0527 0.00282291 0)
(1.01766 0.00190192 1.53615e-21)
(0.995097 0.0062128 -6.80909e-22)
(0.881844 0.14271 0)
(0.806209 0.100504 1.28448e-19)