/*--------------------------------*- C++ -*----------------------------------*\
| =========                 |                                                 |
| \\      /  F ield         | OpenFOAM: The Open Source CFD Toolbox           |
|  \\    /   O peration     | Version:  v2012                                 |
|   \\  /    A nd           | Website:  www.openfoam.com                      |
|    \\/     M anipulation  |                                                 |
\*---------------------------------------------------------------------------*/
FoamFile
{
    version     2.0;
    format      ascii;
    class       surfaceVectorField;
    location    "650";
    object      Uf_0;
}
// * * * * * * * * * * * * * * * * * * * * * * * * * * * * * * * * * * * * * //

dimensions      [0 1 -1 0 0 0 0];


internalField   nonuniform List<vector> 
14907
(
(0.996888 0.00794453 -1.0974e-21)
(0.996966 0.00827005 -6.61435e-21)
(0.996659 0.00814259 2.4984e-21)
(0.998829 0.00227203 5.70734e-21)
(0.998683 0.00228734 1.44281e-21)
(0.998836 0.00241135 -1.81094e-21)
(1.02388 0.00960762 6.77489e-23)
(1.02439 0.00978416 -8.13908e-22)
(1.02422 0.0091558 3.53413e-22)
(1.00739 4.52284e-05 1.28386e-21)
(1.00733 7.29514e-05 1.72107e-22)
(1.1379 -0.0848514 -1.89448e-21)
(1.13626 -0.0785158 -4.58538e-20)
(1.11848 -0.0641852 3.16523e-20)
(0.999332 0.00249213 -7.72615e-22)
(0.999372 0.00236933 2.67954e-21)
(0.999235 0.00240801 0)
(0.97895 -0.697423 3.28995e-20)
(0.99697 -0.703937 3.9673e-20)
(1.05238 -0.659053 2.05292e-20)
(1.35901 -0.246665 7.13216e-20)
(1.37183 -0.211036 4.77742e-21)
(1.37875 -0.248686 9.99297e-20)
(1.02043 0.00928321 1.97125e-22)
(1.02035 0.0097874 1.71123e-22)
(1.01986 0.00943643 1.55415e-22)
(1.00109 0.00272679 -2.0359e-21)
(1.00106 0.00281641 -4.12059e-21)
(1.00116 0.0028757 -3.52911e-21)
(0.0271722 -0.133572 1.20973e-20)
(-0.00636516 -0.115765 -1.97861e-21)
(-0.000204118 -0.13508 2.95392e-20)
(1.00993 0.000154817 -2.5299e-21)
(1.00722 2.29157e-05 0)
(1.01108 0.00155953 6.32389e-22)
(1.01098 0.00170291 -2.51445e-22)
(1.01122 0.00174212 4.19955e-22)
(1.01144 0.000718086 -2.23973e-21)
(1.0113 0.00066389 -1.41992e-21)
(1.01133 0.000829335 1.64394e-21)
(0.970459 0.0469542 1.23247e-20)
(0.971755 0.045162 7.76833e-21)
(0.969247 0.044656 4.03575e-21)
(0.999563 0.00314986 2.4213e-21)
(0.999554 0.00302683 0)
(0.999666 0.0030943 -2.9651e-21)
(0.999593 0.00327556 -8.75913e-22)
(0.999464 0.0032164 4.97944e-21)
(1.00003 0.000307749 -2.36977e-21)
(1.00003 0.000318629 8.50813e-23)
(1.00004 0.000432123 3.19135e-21)
(0.996823 0.00755699 -1.20112e-21)
(0.997137 0.00774287 5.94556e-21)
(0.713745 0.311514 3.45838e-20)
(0.74126 0.322883 0)
(0.740732 0.299283 5.96101e-20)
(1.00263 0.00365267 1.85156e-22)
(1.00263 0.00382227 -1.64692e-21)
(1.0028 0.00382197 -8.3303e-23)
(1.06085 -0.22277 6.04927e-21)
(1.06284 -0.203487 -2.3654e-21)
(1.08043 -0.21332 1.44443e-20)
(1.01026 0.000348479 6.41206e-22)
(1.01031 0.000346851 -3.98776e-22)
(1.01063 0.000451383 -2.88971e-22)
(1.00983 0.0034858 -1.79135e-21)
(1.01008 0.00353792 9.88037e-22)
(1.01001 0.00328696 -1.12734e-21)
(0.998954 0.0022572 1.5354e-21)
(0.998824 0.0021478 4.95949e-23)
(1.05515 0.00379186 -6.2339e-21)
(1.05546 0.00210413 0)
(1.05371 0.00290499 0)
(0.999074 0.00039986 4.29957e-21)
(0.999164 0.000369442 -5.08345e-21)
(0.999204 0.000522746 3.44329e-21)
(0.999495 0.0432712 -7.07832e-21)
(0.997961 0.0427506 2.77033e-22)
(0.999339 0.0416155 -2.11725e-21)
(1.01529 0.0158694 -5.64933e-22)
(1.01491 0.0162885 -1.06379e-22)
(1.01479 0.015628 -1.18041e-21)
(1.00348 0.0363589 -3.04404e-21)
(1.00473 0.0367423 1.1404e-22)
(1.00385 0.0379321 -8.37619e-23)
(0.99735 0.000837703 1.76775e-21)
(0.997113 0.000737736 0)
(0.997302 0.000626698 5.54818e-22)
(-0.235405 0.005996 -2.91467e-20)
(-0.251743 -0.00594941 -4.98203e-20)
(-0.268863 -0.00679923 2.36888e-19)
(1.00113 0.00262532 3.5862e-21)
(1.00103 0.00260671 3.40605e-21)
(1.01629 0.0307622 -5.53792e-22)
(1.01665 0.0318909 -2.26089e-22)
(1.01526 0.0312404 7.13996e-22)
(1.05106 0.0308425 -7.25352e-21)
(1.05092 0.028753 -6.46394e-21)
(1.0492 0.029848 0)
(1.00957 0.00344747 -8.80129e-22)
(1.00965 0.00370758 -1.59105e-21)
(1.05415 0.00700048 5.40548e-21)
(1.05476 0.00525163 -4.06433e-21)
(1.05273 0.00604983 2.38949e-21)
(1.05028 -0.0119578 6.55241e-21)
(1.04925 -0.0106409 -2.25674e-21)
(1.05094 -0.0103831 -3.29642e-22)
(1.00928 0.00334381 1.90078e-21)
(1.0095 0.00315397 8.63142e-22)
(1.01864 0.090712 1.46145e-22)
(1.02151 0.0923665 -4.75446e-21)
(1.01728 0.0933306 -8.42462e-22)
(0.692839 0.316425 2.04363e-20)
(0.697173 0.293288 3.50003e-20)
(0.977374 0.0431028 -1.1746e-22)
(0.976595 0.0449938 -3.0246e-21)
(0.978732 0.044717 -7.21373e-21)
(0.938514 -0.664579 1.73662e-21)
(0.896407 -0.73796 6.08558e-20)
(0.994517 0.0249662 1.77609e-21)
(0.99522 0.0257572 -6.96589e-22)
(0.995391 0.0244917 -1.23632e-21)
(1.1333 -0.0876921 -4.36941e-20)
(1.17314 -0.10645 1.54769e-20)
(1.06621 -0.0452704 1.09036e-21)
(1.06203 -0.0446412 9.57199e-21)
(1.06419 -0.040496 2.94799e-21)
(0.982789 0.029259 3.23763e-21)
(0.983138 0.0303361 0)
(0.981886 0.0299526 0)
(1.00914 -0.0795109 -7.18046e-22)
(1.01251 -0.0728462 -5.75245e-22)
(1.00447 -0.0722076 -1.60732e-21)
(1.05257 0.0146121 -8.7537e-22)
(1.05436 0.0153828 2.20825e-21)
(1.05392 0.0135715 9.61615e-21)
(1.02567 -0.0211068 2.38212e-22)
(1.02506 -0.0187983 1.51927e-22)
(1.02747 -0.0193643 -4.16904e-22)
(1.00033 0.000346131 -2.61963e-21)
(1.00037 0.000399782 -2.70797e-21)
(1.0004 0.000349273 2.23813e-21)
(1.02589 -0.00137482 7.4179e-23)
(1.02631 -0.00146702 3.18441e-23)
(0.969527 0.0358292 1.20711e-20)
(0.967685 0.0364131 2.96711e-21)
(0.968141 0.0343412 1.34779e-20)
(1.02938 -0.00158455 -6.30409e-22)
(1.0295 -0.00107739 -6.70819e-22)
(1.02992 -0.00163005 -2.77951e-22)
(1.05559 0.00774508 2.12375e-21)
(1.05366 0.00842456 2.24519e-21)
(0.999283 0.00260301 3.59833e-21)
(0.99939 0.00255387 -7.9563e-21)
(1.01563 0.0155874 0)
(1.01586 0.016217 0)
(0.982441 0.0279509 3.58092e-21)
(0.98381 0.0285661 7.77774e-22)
(1.01724 0.0302405 -4.05872e-22)
(1.01594 0.0296822 2.73878e-22)
(0.971172 0.034776 -3.52362e-22)
(0.971076 0.0367264 3.46543e-21)
(0.998063 0.00153877 3.23612e-21)
(0.998161 0.0014373 -3.10175e-21)
(0.997944 0.00136145 -6.93189e-21)
(0.997435 0.00244903 5.44398e-22)
(0.997602 0.00258086 -4.21722e-21)
(0.997635 0.00231234 -7.14579e-21)
(1.05111 0.032644 -3.49302e-21)
(1.05289 0.0316046 6.19853e-22)
(1.02337 0.00937681 1.24988e-23)
(1.02344 0.00998868 4.94042e-22)
(0.972923 0.0135019 8.08126e-22)
(0.971845 0.0141826 1.21106e-20)
(0.972925 0.0148618 5.06467e-21)
(1.01807 0.0297197 4.16874e-22)
(1.01803 0.0287934 -2.25463e-22)
(1.01916 0.0291938 2.90271e-23)
(0.978926 0.00908782 1.63289e-21)
(0.978495 0.0100916 0)
(0.979595 0.00957448 -2.12698e-21)
(0.76775 0.228297 5.00762e-20)
(0.76925 0.207675 -2.63917e-20)
(0.786519 0.217815 4.80234e-20)
(0.301163 -0.0552143 -2.05113e-20)
(0.342497 -0.051113 -5.54268e-21)
(0.338228 -0.061725 -5.85981e-20)
(1.00081 0.0200847 -3.25453e-22)
(1.00084 0.020822 -5.36131e-21)
(1.00021 0.020412 -2.38626e-21)
(1.02936 -0.00220236 3.59974e-22)
(1.02884 -0.00167721 3.79875e-22)
(0.685798 0.336858 2.3736e-20)
(0.993658 0.0255794 0)
(0.993791 0.024276 3.24924e-21)
(0.88676 0.0740489 -2.60893e-21)
(0.889219 0.0677119 0)
(0.880897 0.068282 2.53934e-20)
(0.97924 0.00615824 2.2528e-21)
(0.979788 0.00687247 -2.00663e-21)
(0.980196 0.00592735 3.57173e-21)
(1.01038 0.00354176 -9.71012e-22)
(1.01018 0.00381419 -1.1902e-22)
(1.14617 -0.0852953 -4.52006e-20)
(1.12958 -0.0651104 -4.70017e-20)
(0.996782 0.00722119 -3.03817e-21)
(0.996737 0.00683982 2.06885e-21)
(0.997012 0.00695883 -3.92623e-21)
(0.923871 0.0876876 0)
(0.921931 0.0822029 0)
(0.927641 0.0843884 1.04301e-20)
(1.08175 -0.629425 -3.86732e-20)
(1.01262 -0.681257 -6.16965e-21)
(1.00029 -0.62795 -8.01268e-21)
(1.05118 0.0155666 -4.95995e-21)
(1.05097 0.0137088 2.02484e-21)
(1.13461 -0.0885837 2.30816e-20)
(1.11283 -0.0722926 9.5507e-21)
(1.00594 0.0269672 -2.60428e-21)
(1.00621 0.0263102 -6.83666e-22)
(1.00673 0.0270686 4.17493e-21)
(0.979133 0.0395914 -5.77921e-21)
(0.978212 0.0380674 6.2418e-21)
(0.980107 0.0379347 4.60915e-21)
(0.979331 0.00794906 -4.19243e-22)
(0.978189 0.00840452 1.72151e-21)
(1.00012 0.00142827 1.58094e-21)
(1.00012 0.00147151 -6.10325e-21)
(1.00008 0.00131337 -4.95169e-21)
(0.997413 0.00932921 -3.64667e-21)
(0.997215 0.00911477 1.05839e-21)
(0.997111 0.00951254 9.63288e-22)
(1.21942 0.132128 -2.59987e-20)
(1.20748 0.138103 -6.67091e-20)
(1.20879 0.125117 1.5925e-20)
(0.989273 0.015407 3.1887e-21)
(0.989583 0.0160983 5.95382e-21)
(0.988834 0.0160443 -6.95065e-21)
(0.997655 0.0096897 1.43042e-21)
(0.997784 0.00925325 -6.30265e-21)
(1.02391 0.0219229 1.08064e-21)
(1.02436 0.0210897 6.93745e-22)
(1.02328 0.0212723 9.66946e-23)
(1.13511 -0.086417 -3.80299e-20)
(1.16381 -0.110244 5.85509e-20)
(1.00077 0.0439148 5.62347e-23)
(0.999461 0.0451283 -1.84194e-21)
(1.02576 -0.000929767 4.43205e-23)
(1.00222 0.0361045 1.73659e-21)
(1.00318 0.0350677 -2.92629e-21)
(1.0118 0.02085 -1.19739e-21)
(1.01125 0.0211001 -2.31235e-21)
(1.01194 0.0214634 -8.51862e-22)
(0.999214 0.00672188 -1.47175e-21)
(0.999069 0.00646303 -6.16079e-21)
(0.999303 0.00632658 -6.66364e-21)
(1.00755 0.0212236 0)
(1.00784 0.0206482 0)
(1.00718 0.02068 1.87114e-21)
(1.01568 0.0877504 1.56154e-21)
(1.02032 0.0871502 -2.87594e-21)
(1.01811 0.0140444 2.63017e-22)
(1.01866 0.0142083 1.15205e-22)
(1.01835 0.0136067 2.08504e-22)
(0.999999 8.28545e-05 -2.74469e-21)
(1 8.32352e-05 -6.08293e-21)
(1.16861 0.0804062 -2.60863e-20)
(1.17062 0.0861691 -3.64431e-20)
(1.1747 0.0795763 -2.48252e-20)
(1.34978 -0.323126 -2.78537e-20)
(1.33128 -0.376463 3.04313e-20)
(1.30862 -0.337649 2.87234e-20)
(1.00014 0.0015251 1.04152e-20)
(1.00012 0.00141337 4.31987e-21)
(0.993869 0.0407021 6.6081e-23)
(0.992617 0.0398456 -2.38499e-21)
(0.994039 0.039056 -2.34434e-21)
(1.07626 0.150093 0)
(1.08298 0.147378 9.50303e-21)
(1.08129 0.156666 0)
(0.995031 0.00729304 1.05402e-21)
(0.994831 0.00757285 1.27334e-21)
(0.995149 0.00766844 2.72994e-21)
(0.99938 0.00697236 6.18332e-22)
(0.999143 0.00711558 1.29469e-21)
(1.00246 0.00344061 0)
(1.00265 0.00345677 0)
(1.01549 0.00131287 -1.70159e-21)
(1.01522 0.00131324 2.36308e-22)
(1.00693 0.000922358 -4.20586e-22)
(1.0067 0.000795683 -8.48891e-22)
(1.00671 0.00106345 -1.94607e-21)
(1.00297 0.0156038 0)
(1.00342 0.0160387 1.3045e-23)
(1.00297 0.0163657 2.94099e-21)
(1.03696 0.0534231 -5.76097e-21)
(1.03552 0.0551169 -3.95426e-21)
(1.03448 0.0530476 -3.44869e-21)
(0.270693 -0.0515793 5.51909e-21)
(0.266616 -0.0609819 -1.22031e-20)
(0.974034 0.0130669 -1.43851e-20)
(0.973059 0.0122939 -1.06642e-20)
(1.00118 0.0139455 -4.10018e-21)
(1.00121 0.0145445 -5.87031e-22)
(1.00075 0.014216 6.38881e-21)
(0.992863 0.0022182 2.78603e-21)
(0.993252 0.00202066 4.52491e-22)
(0.993088 0.0025042 -8.35255e-21)
(0.996548 0.00745071 4.48065e-22)
(1.01253 0.0205609 0)
(1.01176 0.0201753 -1.02516e-21)
(0.171362 -0.019947 3.17096e-20)
(0.00098106 -0.0429425 7.67245e-20)
(0.198502 -0.0370727 2.14718e-19)
(0.988957 0.0146668 6.35414e-21)
(0.989781 0.0146849 0)
(1.35508 -0.289744 -2.13612e-20)
(1.32413 -0.252177 4.83783e-20)
(0.997369 0.0273843 -3.6876e-22)
(0.99819 0.0278821 3.90294e-21)
(0.998156 0.0268222 4.03037e-21)
(0.995078 -0.000486134 0)
(0.995148 -0.000206526 -5.48002e-21)
(0.995374 -0.000498241 -4.76821e-21)
(1.1666 0.0733728 -1.83598e-20)
(1.16122 0.0790383 -2.71473e-21)
(1.00501 0.0269756 4.1282e-21)
(1.00574 0.0280628 -3.54184e-21)
(1.38772 -0.17635 -3.37978e-20)
(1.34301 -0.181964 -8.73241e-20)
(1.05793 0.0248659 3.67177e-21)
(1.058 0.0232417 -4.7484e-21)
(1.05958 0.0242591 -1.4294e-20)
(1.07028 0.145993 9.05962e-21)
(1.06863 0.154078 8.631e-21)
(0.997853 0.00995331 7.2991e-21)
(0.998083 0.0102523 4.57588e-21)
(0.998206 0.00982558 -2.12111e-21)
(0.918587 0.0908044 -8.75904e-21)
(0.925531 0.0931663 -1.45862e-21)
(0.984348 0.0150968 -5.82484e-21)
(0.984398 0.0161875 -2.27594e-21)
(0.983417 0.0154839 -1.16882e-21)
(-0.0278854 -0.227853 -9.00494e-20)
(-0.0968329 -0.214996 -4.47474e-20)
(-0.144945 -0.212217 1.87966e-20)
(1.21325 -0.0445873 -3.20107e-20)
(1.20737 -0.055139 -1.57348e-20)
(1.22116 -0.057236 -3.70921e-20)
(1.0178 0.0145723 -3.51584e-22)
(1.01752 0.0139312 -4.59753e-22)
(1.11836 0.10315 5.64905e-21)
(1.11318 0.09991 5.33352e-21)
(1.11908 0.0977083 -2.21808e-20)
(-0.24709 -0.014565 -3.21348e-20)
(-0.348469 -0.0121608 -7.04217e-21)
(-0.249213 0.00678594 6.75881e-20)
(1.02461 0.0225529 -9.90572e-22)
(1.02351 0.0226613 8.63556e-22)
(1.00512 -0.0864885 1.10229e-21)
(1.01486 -0.0855966 -1.78811e-21)
(1.23047 0.127668 -2.0968e-20)
(1.22924 0.141977 3.20125e-20)
(0.989697 0.041305 -9.73943e-23)
(0.988478 0.0402786 3.46162e-21)
(0.988064 0.0420943 2.20937e-21)
(0.992614 0.00200514 8.37969e-21)
(0.9925 0.00246644 0)
(0.988106 0.0361269 -3.14321e-21)
(0.989162 0.0371515 -6.8517e-21)
(0.989532 0.0355826 2.55745e-23)
(1.16844 0.0414587 1.2537e-20)
(1.17061 0.0442406 1.2217e-20)
(1.1663 0.043861 2.51764e-20)
(1.0242 0.000733997 9.68611e-23)
(1.0239 0.000390865 -8.81087e-23)
(1.02371 0.000831263 5.14246e-23)
(1.00257 0.0153896 -2.06522e-21)
(1.00298 0.0151156 -2.19033e-21)
(1.1209 0.0675704 8.64145e-21)
(1.11654 0.0682783 -2.24262e-20)
(1.12003 0.0723593 0)
(1.01801 0.00167269 -4.04047e-22)
(1.01782 0.0018602 -2.29506e-22)
(1.01819 0.00192866 -1.01798e-21)
(1.00794 0.021777 0)
(1.00723 0.0218197 0)
(1.01865 0.0646282 -1.36868e-21)
(1.01608 0.0653905 9.81818e-22)
(1.01709 0.0626093 -5.03171e-22)
(1.02139 0.00887783 -4.0042e-23)
(1.02132 0.00838815 -7.27293e-23)
(1.02183 0.00864149 -1.33872e-22)
(1.00002 0.000120776 0)
(1.00004 0.000169407 1.18013e-21)
(1.00002 0.000113983 -1.46351e-21)
(0.779771 -0.340435 3.68507e-20)
(0.83491 -0.282494 1.17891e-19)
(0.742652 -0.270561 -7.84004e-21)
(0.193 -0.135792 -1.48555e-19)
(-0.0418679 -0.109274 -7.92765e-20)
(0.0945892 -0.0888845 4.80407e-20)
(0.999672 0.00114109 4.38241e-21)
(0.999717 0.00116359 -4.71147e-21)
(0.999735 0.00123021 4.50133e-21)
(1.01095 0.00141709 4.31253e-21)
(1.01118 0.00143869 3.7552e-21)
(0.960573 0.00990757 -6.89017e-21)
(0.962391 0.0103113 -7.23241e-21)
(0.961776 0.0084549 3.28158e-22)
(0.997257 0.00232678 -3.61654e-22)
(0.99724 0.00266885 6.98578e-21)
(1.1169 0.109388 0)
(1.12348 0.106623 0)
(0.0156152 0.0625382 1.28776e-19)
(-0.161087 0.0187693 -3.8906e-21)
(-0.164968 0.0286301 1.31244e-19)
(0.0795005 -0.0922902 -2.04449e-22)
(0.076783 -0.0786161 1.84185e-20)
(0.101008 -0.0913655 -1.48947e-20)
(1.16831 -0.0187164 0)
(1.16505 -0.0249172 0)
(1.17306 -0.0250578 0)
(0.996383 0.00117369 7.92796e-21)
(0.996543 0.00130822 -4.77937e-21)
(0.996278 0.00141987 3.48538e-21)
(1.02096 0.00910264 -5.70713e-23)
(1.02147 0.00934799 1.28319e-22)
(1.00916 0.0279257 -1.77015e-21)
(1.00889 0.0287621 2.09732e-21)
(1.00977 0.0286485 1.87247e-21)
(0.98435 0.0139235 0)
(0.985242 0.0146948 0)
(1.00334 0.223898 1.37357e-21)
(1.00306 0.236744 3.68846e-21)
(1.01496 0.228169 5.63105e-21)
(0.315287 0.170076 -7.09178e-20)
(0.366477 0.213227 -3.53041e-20)
(-0.296934 0.00378669 -1.3516e-19)
(-0.315744 0.0129058 0)
(0.292469 -0.175207 6.29846e-20)
(0.464277 -0.155618 1.39429e-19)
(1.02917 0.000367734 -2.91624e-22)
(1.02859 0.000463189 5.12906e-22)
(1.02904 0.000947582 -8.27484e-22)
(1.00319 0.00799826 -2.00535e-21)
(1.00336 0.00833771 1.96202e-21)
(1.00351 0.00809795 5.54783e-22)
(1.14 -0.079372 -1.02433e-19)
(1.15173 -0.0929367 -2.5725e-20)
(0.758417 0.38537 -1.66229e-20)
(0.748133 0.35211 2.45531e-20)
(0.723266 0.374305 2.10024e-20)
(0.939674 0.149714 -3.72213e-22)
(0.947315 0.148667 -1.60147e-21)
(0.942118 0.141906 5.30198e-21)
(0.582862 -0.334636 1.37336e-20)
(0.632845 -0.367809 1.15756e-20)
(0.575534 -0.390405 1.04843e-21)
(0.172264 0.0111087 -2.73542e-21)
(0.174801 -0.0142267 3.12342e-20)
(0.194465 0.000302188 1.63189e-20)
(0.996625 0.0268885 -2.32819e-22)
(0.995873 0.0263269 2.06691e-21)
(0.996672 0.0257823 4.22071e-21)
(0.77228 0.24998 2.39842e-20)
(0.749671 0.238687 -2.96849e-20)
(1.06101 0.0660594 -3.87712e-21)
(1.05947 0.0630886 -1.09566e-20)
(1.05776 0.0664226 -5.56716e-21)
(0.958619 0.00939541 -7.87063e-21)
(0.959283 0.0114173 5.69183e-21)
(-0.192537 0.0118569 -3.8245e-20)
(-0.202394 0.0116676 -1.22743e-19)
(0.977984 0.0112651 0)
(0.978898 0.0118201 -5.43871e-21)
(0.977547 0.0123793 0)
(1.05617 0.025648 1.66395e-20)
(1.05801 0.0268819 -1.98062e-20)
(0.978192 0.0413007 -2.66662e-21)
(0.976223 0.0415215 1.02283e-21)
(0.111124 -0.00899531 -6.56761e-20)
(0.388092 -0.00223673 -2.23758e-19)
(1.20301 0.0180105 2.2108e-21)
(1.20737 0.0101938 0)
(1.19793 0.0108842 4.60042e-20)
(1.01657 0.0264449 -7.66324e-22)
(1.01599 0.0260169 -5.33964e-22)
(1.01576 0.0268188 2.8342e-22)
(0.143898 -0.0755763 1.6547e-21)
(0.153762 -0.0856565 -1.01321e-20)
(0.167016 -0.0816218 7.34005e-21)
(1.04009 0.0240534 9.54704e-21)
(1.03867 0.0233238 -1.48164e-21)
(1.04006 0.0225223 -3.88027e-21)
(0.879024 0.8658 -5.74013e-20)
(0.877206 0.791042 -2.71436e-20)
(0.813769 0.835532 -3.18299e-20)
(0.987131 0.0352538 3.74085e-21)
(0.986563 0.0368882 0)
(0.707474 -0.409825 -1.02218e-19)
(0.807832 -0.423566 -1.74753e-19)
(1.16435 -0.0693053 -2.25269e-21)
(1.14716 -0.0650373 1.1728e-20)
(1.12963 -0.0644117 -1.35321e-21)
(1.12663 -0.0589756 -3.13247e-20)
(1.13347 -0.0590261 7.77361e-21)
(1.12703 0.0125168 3.38685e-20)
(1.10984 0.0116139 2.57043e-20)
(1.11522 0.00246291 -2.77618e-20)
(1.04715 0.0117477 -3.83251e-21)
(1.04574 0.0117515 -4.73482e-21)
(1.04648 0.01049 -3.63332e-21)
(0.995588 0.0063731 -3.2788e-21)
(0.995566 0.00677625 -1.06243e-20)
(0.995872 0.00651216 -5.99279e-21)
(1.01086 0.00124337 -1.42627e-21)
(1.01072 0.00136772 3.82768e-21)
(1.02487 0.0418771 -2.39143e-21)
(1.0262 0.0411215 0)
(1.026 0.0433062 -3.05985e-22)
(0.913786 0.135777 -1.2424e-20)
(0.922685 0.136883 7.07594e-21)
(0.919687 0.128963 -1.88994e-20)
(1.01729 0.0263857 -3.24228e-23)
(1.01689 0.0273585 -1.28784e-22)
(1.00392 0.0160878 1.4182e-21)
(1.00448 0.0162745 3.24623e-21)
(1.0041 0.0155746 1.48371e-21)
(0.785677 0.383171 -3.30185e-20)
(0.769315 0.410911 -2.81917e-20)
(0.977062 0.0107472 0)
(1.01237 0.00914375 1.03272e-21)
(1.01277 0.00909629 -1.93057e-21)
(1.0127 0.00955495 -2.90115e-21)
(0.947142 0.980714 -2.78723e-20)
(0.982626 0.851227 -1.15124e-20)
(0.999491 0.00101424 -2.7696e-21)
(0.999475 0.000947832 4.00502e-21)
(0.999556 0.00108044 7.40963e-21)
(1.00002 0.000359614 -2.90148e-21)
(1.00002 0.000372616 -2.65734e-21)
(1.00004 0.000506305 -2.24486e-21)
(0.999956 0.000938021 6.6582e-23)
(0.999959 0.000964377 2.2347e-21)
(0.999961 0.00113233 2.53241e-21)
(1.14078 0.0113799 1.22818e-20)
(1.13726 0.0194288 -1.90072e-20)
(1.01106 0.000284605 3.32877e-22)
(1.01121 0.000237823 8.22584e-22)
(1.00986 0.000133991 1.07083e-21)
(0.991848 0.220104 -6.42865e-22)
(1.00196 0.212587 2.70493e-21)
(1.17607 0.393219 7.92598e-21)
(1.15394 0.407381 4.79175e-20)
(1.18186 0.422277 4.93108e-20)
(0.964249 0.0106264 -6.21563e-21)
(0.963225 0.0120977 0)
(1.20791 0.0250629 5.82207e-20)
(1.19849 0.023061 3.27868e-20)
(0.982494 0.0045883 0)
(0.982078 0.00544178 0)
(0.982955 0.00529372 7.37192e-21)
(1.00006 0.00378836 -2.05921e-21)
(0.999924 0.00381862 0)
(1.00002 0.00404458 -3.00192e-21)
(1.12709 0.0513265 5.7127e-20)
(1.12668 0.0469629 1.044e-20)
(1.13132 0.0490742 -2.66883e-20)
(1.00697 0.0105717 0)
(1.0067 0.01025 -2.01904e-21)
(1.00661 0.0106141 2.50863e-21)
(1.03846 0.0519808 -2.26959e-21)
(1.03938 0.0542045 3.94801e-22)
(0.960424 0.0175192 0)
(0.961246 0.0156897 0)
(0.962402 0.0172158 -8.08145e-21)
(1.2932 0.307784 2.95446e-20)
(1.26739 0.308259 -5.2337e-20)
(1.27761 0.285956 2.78365e-20)
(1.05139 -0.0132586 -4.98323e-21)
(1.04957 -0.0133841 0)
(0.959306 0.0591575 -7.53383e-22)
(0.959951 0.0617818 -1.14879e-20)
(0.956989 0.060758 -2.13588e-20)
(1.05553 0.000569531 0)
(1.0555 -0.00114293 4.87073e-22)
(1.05402 -0.000259082 -3.48544e-22)
(1.28683 -0.101919 -3.09048e-20)
(1.27662 -0.0843628 1.77499e-20)
(1.29818 -0.0875999 -8.94373e-21)
(1.00208 0.0151333 -4.43542e-22)
(1.00165 0.0148331 -6.19793e-22)
(1.00208 0.0145689 1.64136e-21)
(1.17794 0.00688276 0)
(1.18055 0.0115093 -5.82727e-20)
(1.1744 0.0111012 1.25252e-20)
(1.02938 -0.0026076 2.39792e-22)
(1.02983 -0.00256414 0)
(1.02041 0.00878517 -9.51412e-23)
(0.882311 0.387198 1.17007e-20)
(0.902785 0.377311 -6.30759e-21)
(0.904364 0.401127 -2.71239e-21)
(1.00305 0.00771304 2.57448e-21)
(1.00293 0.00792996 -2.47787e-21)
(1.02936 -0.00309606 -1.58269e-22)
(1.02892 -0.00268686 2.37216e-22)
(1.02487 0.0095771 -6.7311e-22)
(1.02464 0.0101201 -1.10027e-22)
(1.02068 0.064391 2.80873e-21)
(1.02002 0.0671877 -2.9022e-21)
(1.01138 0.010332 0)
(1.01145 0.0107352 0)
(1.01179 0.010523 0)
(1.01164 0.000501889 1.31365e-21)
(1.01174 0.000440776 3.15119e-22)
(1.01177 0.000602768 0)
(1.03591 0.0114011 2.45234e-21)
(1.0366 0.0109296 -4.02922e-21)
(1.03678 0.0118569 0)
(1.03285 -0.00604476 -1.02429e-21)
(1.03301 -0.00568846 -1.08708e-21)
(1.03323 -0.00610688 -4.26433e-22)
(0.996217 0.000996758 0)
(0.99651 0.000901401 0)
(0.996589 0.0279367 -8.80999e-21)
(1.00937 0.02707 -3.95016e-21)
(1.00852 0.0271689 -5.50756e-21)
(1.03387 0.0567743 2.55793e-21)
(1.03665 0.0578146 5.76337e-21)
(1.00111 0.0133896 -9.73055e-21)
(1.00155 0.0136936 4.68308e-22)
(0.997562 0.000932173 -2.49763e-22)
(0.997404 0.00101433 -1.94995e-21)
(1.00933 0.000795856 -5.76114e-22)
(1.0091 0.000584246 0)
(1.00908 0.000829406 1.14077e-21)
(0.993727 0.0424008 5.6298e-21)
(0.995192 0.0414675 -3.61189e-22)
(1.02936 -0.000668379 0)
(1.02922 -0.00010003 -3.20034e-22)
(1.02876 -0.000606519 -4.24406e-23)
(1.00001 0.000187418 -1.86959e-22)
(1.00003 0.000294813 3.10195e-22)
(1.01076 0.000937594 1.52984e-21)
(1.01073 0.000785119 1.53572e-21)
(1.01089 0.000838535 2.48255e-21)
(1.00075 0.0192917 -5.00298e-22)
(1.00138 0.0196952 2.34328e-21)
(1.00034 0.0595698 -1.68806e-21)
(0.999015 0.0611617 -5.19504e-22)
(1.00141 0.0615123 2.63587e-21)
(1.31089 0.32671 0)
(1.31978 0.297757 -3.11251e-21)
(1.16458 -0.0137398 5.16421e-21)
(1.17102 -0.0137709 0)
(0.135155 -0.0677766 1.19473e-20)
(0.122489 -0.0693351 1.05323e-20)
(0.93809 0.158044 6.29179e-21)
(0.932342 0.150942 6.48192e-21)
(0.95511 0.147284 -6.02558e-22)
(0.962921 0.146138 3.69544e-21)
(0.956172 0.139764 7.37697e-21)
(0.968781 0.0487459 1.61446e-22)
(0.971477 0.048993 3.14344e-21)
(1.06891 -0.0487609 -8.53563e-21)
(1.06782 -0.0544772 3.75877e-21)
(1.07346 -0.0526747 6.39675e-21)
(0.805946 -0.495256 7.10718e-22)
(0.778744 -0.44965 1.49749e-21)
(0.744404 -0.515759 5.95396e-22)
(1.03511 0.012057 7.00143e-22)
(1.03489 0.0110519 -1.44323e-21)
(0.995309 0.00702696 -5.77877e-21)
(0.994971 0.00694341 -7.50977e-21)
(1.01154 0.000612961 -1.12875e-21)
(1.0115 0.00042577 8.67386e-22)
(1.02342 0.0429458 -8.95242e-22)
(1.02367 0.0409361 -5.80472e-22)
(1.01103 0.0101596 0)
(1.01134 0.00996383 -8.10425e-22)
(1.06216 -0.249732 5.7011e-21)
(1.04077 -0.23394 -6.77075e-21)
(1.03341 0.00192035 -6.43917e-22)
(1.03306 0.00229492 2.02847e-21)
(1.0337 0.00238333 2.64299e-21)
(0.997504 0.0100569 2.44352e-21)
(0.999962 0.000712767 1.2029e-22)
(0.999985 0.000918515 3.47796e-21)
(0.906266 0.132513 1.16774e-20)
(0.907993 0.140656 -1.45499e-20)
(1.02991 -0.000647053 7.58708e-23)
(1.19642 0.378113 5.69296e-20)
(1.17355 0.37013 -4.38439e-20)
(0.954467 0.155849 -7.03138e-21)
(1.20606 0.0858639 0)
(1.21583 0.0861104 -2.63489e-20)
(1.21085 0.0760975 -4.91486e-20)
(1.04016 0.025087 8.72335e-22)
(1.04141 0.0242516 6.66315e-21)
(1.03248 -0.00601359 8.70423e-23)
(1.03265 -0.00642643 8.41406e-23)
(1.01068 0.0100197 1.8681e-21)
(1.0106 0.00966129 1.95293e-22)
(1.0103 0.00985437 6.2103e-22)
(1.0404 0.00183626 0)
(1.04069 0.00149347 2.19173e-21)
(1.04098 0.00202692 -4.3857e-21)
(1.02466 0.000683603 -6.18558e-23)
(1.02437 0.0010948 -1.29475e-22)
(1.06462 0.0648215 5.28657e-21)
(1.06319 0.0687474 5.93091e-21)
(0.992739 0.0162575 2.52915e-21)
(0.992177 0.0159872 2.11846e-21)
(0.992774 0.0154643 -5.37921e-21)
(1.05667 0.0046236 -5.38897e-21)
(0.0711008 -0.245295 1.6657e-20)
(0.132264 -0.252582 -2.13054e-20)
(1.01219 0.00878742 2.47879e-21)
(1.01205 0.00918212 2.37906e-21)
(1.02205 0.0116084 -1.16598e-21)
(1.02218 0.0110298 -1.73852e-22)
(1.02273 0.0114318 -5.99347e-22)
(0.849616 -0.560248 -4.89145e-21)
(0.862022 -0.483043 -8.12106e-21)
(1.07105 -0.0438618 -2.28621e-20)
(1.0162 0.0251478 7.81986e-22)
(1.01531 0.0253885 -7.86841e-22)
(0.997763 0.00101081 6.60464e-22)
(0.997848 0.00118237 -1.22235e-21)
(0.997981 0.00110972 3.0896e-21)
(1.00163 0.0575607 -4.00268e-21)
(0.999353 0.0574549 -2.11722e-21)
(0.52934 -0.305143 1.21999e-20)
(0.599791 -0.281052 -1.64275e-20)
(1.10989 0.00515516 -2.99313e-20)
(1.10706 0.00885103 -3.85344e-20)
(1.10541 0.00417471 -1.80771e-20)
(1.16648 0.0392354 0)
(1.1692 0.0386484 0)
(1.00031 0.000281416 -4.46063e-21)
(1.00028 0.000324963 -1.18037e-21)
(1.0108 0.00108675 -4.41883e-21)
(1.01099 0.00114311 -3.73911e-21)
(1.00209 0.0158017 -1.83752e-21)
(1.02079 0.0100783 1.05247e-22)
(1.02021 0.0102388 6.40295e-23)
(1.27186 -0.121136 -6.07939e-21)
(1.30287 -0.125384 -5.4459e-21)
(0.995705 0.0123244 2.38324e-21)
(0.995875 0.0128755 -6.50612e-22)
(0.995355 0.0128204 -4.82282e-21)
(0.998149 0.00168776 3.28314e-21)
(0.997938 0.00163169 9.32373e-21)
(1.00314 0.00886236 -1.5e-21)
(1.00335 0.00921541 4.62239e-22)
(1.00305 0.0091424 -4.24777e-21)
(0.982932 0.00374006 0)
(0.981998 0.00376113 2.63056e-21)
(1.0452 -0.0144373 5.44502e-21)
(1.04371 -0.0156484 0)
(1.04372 -0.0136062 0)
(0.978888 0.0521259 2.80629e-21)
(0.978562 0.0542109 0)
(0.976636 0.0523963 1.10381e-20)
(1.14061 0.157808 -2.38892e-20)
(1.13143 0.157684 0)
(1.13691 0.149211 0)
(0.932311 0.0674752 6.21966e-21)
(1.02729 0.097574 -2.41048e-20)
(0.943774 0.0816934 -7.8712e-21)
(0.972616 0.0335305 -3.70418e-21)
(0.971103 0.0324624 2.73342e-21)
(1.25234 0.127116 9.26407e-21)
(1.1913 0.119175 3.51198e-20)
(1.21312 0.131575 1.95761e-20)
(1.00105 0.0128163 -2.2862e-21)
(1.00101 0.0122738 8.26003e-23)
(1.00139 0.0125555 3.99159e-21)
(1.03964 0.00200619 0)
(1.04002 0.00272948 0)
(0.999001 0.000483524 9.32586e-22)
(0.998939 0.00031484 5.13221e-22)
(-0.511402 -0.0688101 6.25084e-21)
(-0.503378 -0.07687 6.70021e-20)
(1.1644 0.0681761 -3.72812e-22)
(1.16246 0.0633086 8.68868e-20)
(1.15857 0.0675118 -3.30792e-20)
(1.18851 -0.0596845 -1.85224e-21)
(1.20926 -0.0478531 6.93076e-20)
(1.19404 -0.044881 -3.72696e-20)
(0.177113 0.0906008 -1.88138e-20)
(1.01065 0.00360327 3.63989e-22)
(1.01071 0.00387262 6.5293e-22)
(1.01091 0.00365126 -1.85817e-22)
(1.03311 0.00145664 -1.23248e-21)
(1.03369 0.00147093 -2.86077e-21)
(1.00079 0.021617 4.77929e-22)
(1.0014 0.0212542 -2.3833e-21)
(0.986625 0.0583364 5.95077e-21)
(0.988945 0.0574933 8.5058e-21)
(0.98681 0.055904 5.0147e-21)
(1.05715 0.00139265 8.75259e-21)
(1.00005 0.00100609 -3.5457e-21)
(1.00004 0.00082463 1.98569e-22)
(1.00003 0.000835538 0)
(1.05521 0.0794947 1.64249e-20)
(1.0573 0.0765988 8.53529e-22)
(1.05833 0.0813383 6.26542e-21)
(1.00714 0.00084468 -7.74667e-22)
(1.00709 0.00111487 3.80519e-21)
(1.01193 0.000384534 -7.88118e-23)
(1.01203 0.000338699 1.84269e-21)
(1.01179 0.000266045 1.13721e-21)
(0.995034 0.0268332 8.76068e-22)
(1.14586 0.165063 1.29682e-20)
(1.15078 0.15418 -6.81863e-20)
(0.999995 0.000349353 -6.12561e-22)
(0.999994 0.000153877 -3.83042e-23)
(0.999995 0.000157542 -1.53222e-24)
(1.03742 0.0225198 -2.00689e-21)
(1.03733 0.0238398 2.07917e-21)
(0.984487 0.013042 0)
(0.984635 0.0121017 0)
(0.985306 0.0126922 9.22521e-23)
(0.979254 0.0501215 6.03949e-21)
(0.981085 0.0516056 5.60054e-21)
(0.227628 -0.0415932 -5.80553e-21)
(0.221366 -0.029696 -2.94936e-20)
(0.199465 -0.0392514 2.52537e-22)
(1.0007 0.0130757 -3.62322e-21)
(0.999598 0.00103161 0)
(0.99962 0.00111554 0)
(1.00163 0.000907906 0)
(1.00163 0.00103598 3.103e-21)
(1.00177 0.00100571 -3.1592e-21)
(1.02288 0.00918025 -2.33504e-23)
(1.02325 0.00882644 2.18691e-22)
(1.08236 0.0937085 -1.48464e-20)
(1.08624 0.0970807 0)
(1.07999 0.0980218 5.53388e-21)
(1.12483 -0.0701035 5.38274e-20)
(1.13228 -0.0711107 -1.00185e-20)
(0.968841 0.143577 -5.19043e-22)
(0.968874 0.151339 -8.98899e-21)
(1.26611 0.110327 0)
(1.26326 0.0910301 -5.74722e-21)
(1.23888 0.0936499 -5.42789e-20)
(1.04636 -0.013626 4.55439e-22)
(1.04646 -0.0156259 8.58412e-21)
(1.0543 0.026779 5.71473e-21)
(1.05412 0.024865 5.3591e-21)
(0.983624 0.0133583 -8.02124e-21)
(1.01157 0.000784063 -1.23051e-21)
(1.02656 0.0200863 3.08139e-22)
(1.0268 0.0193084 7.19207e-22)
(1.02597 0.0195103 -1.1611e-22)
(1.00001 0.000203644 3.19974e-25)
(1.00003 0.00033179 -9.03494e-23)
(1.27402 0.0449376 3.74197e-20)
(1.25504 0.0402919 3.78329e-20)
(1.26321 0.0576716 -8.98593e-21)
(0.993269 0.0165007 3.39273e-21)
(0.992718 0.017136 0)
(1.0184 0.0308002 -1.76575e-22)
(0.969888 -0.0473658 -3.68101e-22)
(0.97866 -0.0456767 2.5859e-21)
(0.971794 -0.0377717 -3.76631e-21)
(1.0038 0.0166679 -4.05953e-21)
(0.990529 0.0626099 -9.14796e-21)
(0.992006 0.0608535 2.28854e-22)
(0.993097 0.0632893 -3.55651e-21)
(0.980273 0.0410745 -5.0642e-21)
(0.960576 -0.0473412 3.36093e-21)
(0.968234 -0.0565746 -2.00727e-21)
(1.02457 0.00543224 1.94157e-22)
(1.0248 0.00512235 -4.51277e-24)
(1.02497 0.00558711 -5.09767e-22)
(0.958514 0.0562077 1.02912e-20)
(0.961659 0.0574407 1.66528e-20)
(1.07075 0.139245 -3.53429e-21)
(1.06373 0.142239 2.44964e-20)
(1.0525 0.0825503 1.94796e-21)
(1.0519 0.0779548 1.05716e-20)
(1.02707 0.0399767 -6.2548e-22)
(1.02818 0.0386108 3.33264e-22)
(1.02629 0.0386034 -6.45469e-22)
(0.995073 0.00558538 2.76187e-21)
(0.995017 0.0060125 2.08206e-21)
(0.994728 0.00580893 -7.53606e-22)
(1.27623 0.11779 -2.30313e-20)
(1.25751 0.124775 -4.35807e-20)
(1.12189 0.0634282 2.38489e-20)
(1.12459 0.0678323 3.53831e-20)
(1.02913 0.00716857 -2.81698e-21)
(1.0297 0.00689266 -1.81401e-21)
(1.02962 0.007436 -7.7573e-22)
(1.08445 0.0888427 7.15295e-21)
(1.07861 0.090239 -6.37325e-21)
(1.00063 0.00536615 -3.25268e-21)
(1.00052 0.00516811 -3.92487e-21)
(1.00054 0.00553317 4.17253e-22)
(1.00315 0.00749843 2.52126e-21)
(1.0029 0.00744652 2.21815e-21)
(1.00079 0.00559405 0)
(1.00074 0.00516252 -4.17732e-22)
(0.988006 0.0621227 -7.62404e-21)
(0.989279 0.064617 1.35334e-21)