/*--------------------------------*- C++ -*----------------------------------*\
| =========                 |                                                 |
| \\      /  F ield         | OpenFOAM: The Open Source CFD Toolbox           |
|  \\    /   O peration     | Version:  v2012                                 |
|   \\  /    A nd           | Website:  www.openfoam.com                      |
|    \\/     M anipulation  |                                                 |
\*---------------------------------------------------------------------------*/
FoamFile
{
    version     2.0;
    format      ascii;
    class       volScalarField;
    location    "850";
    object      ddt0(k);
}
// * * * * * * * * * * * * * * * * * * * * * * * * * * * * * * * * * * * * * //

dimensions      [0 2 -3 0 0 0 0];


internalField   nonuniform List<scalar> 
9793
(
0.000211826
-0.000995109
0.000160351
8.41648e-08
0.00576192
3.66737e-07
-5.048e-08
6.41139e-09
4.93704e-09
0.00337675
1.94059e-06
-7.59056e-06
1.94003e-07
-1.07273e-06
-4.26738e-08
-8.59531e-07
-1.9891e-09
1.48938e-06
-0.000935404
-1.15259e-06
5.63566e-06
-7.02407e-07
0.00122454
-6.27933e-08
1.12623e-07
2.22566e-07
-3.89448e-07
7.63981e-07
1.65127e-06
5.71572e-08
-1.58382e-06
0.00083087
0.00186674
2.95298e-08
2.40027e-06
0.000109601
5.79798e-08
-6.89217e-07
-2.53352e-07
6.77331e-08
5.50178e-07
-3.3241e-08
2.50221e-07
5.37802e-08
2.80785e-07
2.29275e-07
1.88631e-06
-0.000465989
-0.00791762
1.9883e-08
2.35556e-06
2.56209e-06
3.26601e-07
-2.44096e-07
-0.00531743
7.06658e-06
3.653e-08
2.55928e-06
-0.000640867
-4.30559e-08
-8.61345e-08
1.25342e-07
0.0006907
-6.57834e-08
0.0156518
0.0020977
0.0013023
-0.00140507
-1.07115e-06
2.13781e-06
-0.00492564
-1.01698e-07
4.13617e-07
-6.10588e-05
4.00453e-06
0.00208214
1.11176e-07
2.07133e-06
3.58463e-07
8.05663e-07
0.000398789
1.32219e-06
-0.000812382
0.000187311
-2.20399e-06
-0.00134731
1.70708e-06
1.34811e-07
1.40039e-07
7.16804e-07
-0.00118299
-0.0109095
8.74959e-08
0.000628567
1.48638e-07
0.000260746
9.30077e-06
-0.00101589
6.01575e-08
2.12544e-07
1.97924e-07
5.51287e-07
-1.27466e-07
-1.16641e-07
2.24278e-06
-3.00918e-06
1.80572e-07
6.75446e-08
2.28867e-07
0.000428196
-1.22794e-07
6.64394e-06
-3.00729e-07
0.0002711
2.33102e-06
9.49996e-08
0.00223105
3.60168e-06
1.18055e-06
0.00046572
0.000494737
-6.33924e-08
-7.1081e-08
4.51132e-07
-4.22064e-07
5.75049e-06
7.30004e-07
-0.00158098
1.9659e-07
2.56013e-07
-1.57979e-07
1.36623e-07
2.74211e-07
-5.35741e-08
-3.19601e-09
1.00211e-07
-7.06031e-09
4.57959e-08
-1.92284e-07
-1.08544e-08
2.37802e-09
-8.86135e-08
4.62993e-08
3.1215e-07
-1.53014e-06
-3.02405e-06
0.000211427
2.70408e-07
-3.42622e-08
-0.0162035
-0.0219646
-1.31468e-07
-0.0210423
0.000134165
-2.36577e-08
-1.12984e-07
-2.41401e-08
-2.72096e-07
1.79641e-07
4.71787e-08
6.74757e-08
8.42019e-07
-5.34234e-07
0.0331655
-7.87691e-05
9.65404e-06
-0.000798127
-1.57086e-06
-4.99005e-07
2.81409e-07
2.33271e-07
0.00383392
-0.000162072
0.00497564
-3.03982e-07
0.0145889
1.01733e-07
-8.41259e-08
2.0326e-07
1.72799e-07
-0.000783173
-1.80936e-07
2.34016e-07
-3.45706e-08
0.00922435
3.24269e-07
2.77198e-06
2.02717e-07
-8.12858e-08
-5.42505e-07
-3.12395e-07
1.97595e-07
-0.00846979
4.61172e-06
-0.00213622
2.5989e-07
0.0146453
5.22502e-07
-0.00324937
-2.35668e-08
-1.15741e-08
0.038527
2.79904e-05
2.24929e-07
5.55136e-08
1.33231e-06
3.26602e-05
-1.14566e-07
1.2556e-07
-4.83486e-07
4.96612e-07
-0.00731286
-0.00959417
-1.90159e-07
0.0170889
-1.5523e-08
5.98879e-08
0.00750487
1.44742e-06
-0.0143515
4.8556e-06
1.33152e-07
-4.25641e-07
2.10858e-07
-0.000395617
0.0514826
3.38249e-07
-3.32029e-08
1.25253e-05
1.63045e-06
-9.71213e-08
-7.45615e-08
-1.32197e-07
-3.47068e-08
1.13752e-06
-0.0131793
-6.60714e-08
8.30673e-08
-1.82307e-06
7.20656e-07
2.04564e-07
-5.50384e-07
-3.76433e-08
0.00194046
1.2985e-07
3.30986e-09
3.70595e-08
-3.79281e-07
8.72738e-09
3.30312e-08
-3.06936e-07
-5.08833e-07
2.77763e-06
8.57484e-07
-1.44681e-07
-7.6146e-07
3.22096e-07
-3.9156e-07
5.32829e-07
-2.25577e-09
0.00137233
1.83767e-07
2.32344e-06
9.11418e-08
-1.50481e-06
-2.99269e-08
-2.70879e-07
5.44069e-07
0.0385106
8.70975e-08
3.49378e-08
-2.07952e-07
-1.68624e-06
1.65157e-07
-0.00111849
-0.00107285
3.48941e-07
5.12052e-06
2.31003e-07
9.04815e-07
-5.22836e-07
-1.67502e-07
9.21394e-08
6.04167e-08
6.86543e-07
1.47993e-07
-2.97579e-07
-1.08495e-06
-4.59995e-08
5.92882e-08
-1.78822e-07
0.00228939
1.00123e-07
1.20826e-07
-1.58622e-07
-7.52893e-09
-5.55628e-07
-1.06581e-06
2.8454e-07
0.000879723
-6.30659e-08
-0.00432945
0.00444102
5.84649e-08
1.55607e-07
2.11887e-07
-1.70959e-06
-1.53725e-06
-6.66342e-07
-0.00378111
3.53917e-07
2.01607e-07
-1.54441e-06
-2.15255e-07
-1.51631e-07
8.24105e-07
-0.000736575
-1.77317e-07
-1.57071e-06
-4.92287e-07
-8.50764e-08
-0.000153817
0.0253034
0.000243633
3.76741e-07
-0.000346991
-6.21608e-07
-0.0021687
1.82533e-06
-2.98328e-07
-7.14996e-08
-7.87009e-06
3.61057e-07
3.53292e-07
2.51648e-06
6.82474e-08
3.03342e-07
-1.78484e-07
8.3008e-08
9.96574e-07
0.00181281
3.12072e-07
-1.10609e-07
0.00309224
6.54017e-07
-8.90182e-07
4.03315e-07
-5.33573e-07
4.89062e-08
0.00684787
-5.19356e-07
2.76052e-08
-1.56007e-07
5.88027e-07
0.000940639
-1.62533e-07
-3.877e-07
-9.01504e-08
7.55795e-07
-0.0209519
1.18909e-06
1.02697e-06
-5.56938e-07
6.15736e-07
0.0165067
-9.24594e-08
0.0011973
8.72969e-07
-3.79977e-08
0.00366915
4.0544e-07
0.00980927
5.75095e-08
1.35052e-06
0.000217128
2.12509e-07
3.01594e-07
0.00206151
-5.15772e-08
0.000231779
-7.87362e-07
-5.82202e-08
0.00507466
4.06434e-07
-6.54666e-07
4.51838e-08
5.77178e-08
-3.95228e-07
-1.2749e-07
-7.12599e-07
0.00128844
-1.67255e-07
-0.0117988
-0.00334991
0.0206703
1.67328e-06
0.000395269
-5.24614e-08
-1.57035e-07
-0.00512137
-0.00297567
-5.77982e-07
-1.69931e-07
0.0389292
-2.11133e-07
0.000590009
8.6473e-08
-7.1414e-07
-1.78835e-07
2.05104e-07
3.4216e-07
9.13937e-08
5.87725e-06
-5.0901e-08
0.00150141
2.74111e-06
-5.70784e-07
3.46309e-06
8.6222e-07
1.16834e-07
-3.11452e-06
0.0069631
2.45947e-07
-1.40269e-07
2.46721e-06
2.10211e-08
4.71976e-07
-6.19805e-07
-4.5643e-07
3.19454e-07
5.76197e-09
-1.34431e-07
-9.67231e-08
0.00468889
-1.26607e-06
0.0039873
2.22567e-07
-0.00192502
1.55056e-07
3.35786e-07
1.61742e-07
-1.52064e-07
0.00545135
6.55111e-07
-0.0227838
-6.78508e-07
4.44416e-07
-6.61494e-07
0.0303006
3.12734e-07
-0.00447736
-0.00661607
3.47917e-07
-8.6142e-08
9.34361e-08
3.5623e-07
-3.84265e-07
-0.000823115
-0.0021604
3.47262e-07
-3.47782e-08
1.3369e-06
-5.38354e-08
7.74031e-07
-9.03826e-08
-1.26576e-07
-1.59624e-07
0.000132431
9.20711e-08
0.00610862
-1.4675e-07
-1.72485e-06
-6.82469e-08
5.70364e-08
-2.41951e-08
1.08949e-06
1.04687e-07
9.29134e-08
-8.11466e-07
-1.70321e-07
4.20409e-08
5.16968e-07
0.000380701
-4.66295e-08
-1.74471e-07
0.00469946
2.78183e-07
-5.35737e-07
0.0053037
-0.00360626
1.82689e-08
1.12668e-07
-6.79621e-07
4.11124e-07
-1.99955e-07
5.78045e-09
2.8538e-07
5.22856e-07
2.75501e-07
-8.35684e-08
0.000269852
2.33494e-06
-3.1052e-08
0.00863232
-2.03174e-06
1.5704e-07
9.2131e-08
7.7146e-07
6.87278e-07
-5.72241e-07
-4.81411e-05
-3.3684e-07
4.15833e-09
2.06883e-06
-1.11042e-08
6.51529e-07
0.00280865
-1.72829e-06
1.8107e-07
-0.0180831
1.32337e-07
1.72815e-07
2.5951e-07
1.37455e-06
-2.32125e-07
1.41509e-07
1.7091e-07
-2.68051e-07
0.00234408
1.08996e-06
-2.0017e-06
1.89145e-07
2.27584e-07
-1.36867e-07
6.22511e-09
-9.92091e-08
2.35918e-07
1.42805e-06
1.78927e-06
-2.41097e-07
2.34206e-07
-0.0077128
3.95615e-07
-0.000651002
-5.73936e-07
-1.05428e-07
1.86123e-06
0.00702125
1.74063e-07
9.40056e-07
-1.7241e-07
7.41292e-05
-7.43469e-07
0.00348585
3.45251e-07
-9.61287e-08
-1.70419e-08
-0.00136621
3.89363e-07
0.00633587
0.00059449
0.0136
8.46286e-07
-5.59266e-05
-4.25509e-07
1.3779e-08
4.34644e-07
2.55307e-07
0.00115411
-2.4651e-07
0.00074211
-9.40315e-09
-3.63948e-05
1.10148e-07
-3.59525e-08
-1.82838e-07
-2.49014e-06
-8.59347e-08
1.063e-08
-2.77463e-07
-6.91677e-07
2.47068e-07
4.13986e-07
1.8635e-07
4.46747e-07
4.7464e-07
-0.00109053
6.53813e-08
-0.00208626
0.00505495
2.79203e-08
9.43268e-08
-1.82855e-06
-2.06161e-07
4.82471e-09
-2.95304e-07
3.79172e-07
-7.18005e-07
-8.51733e-08
-6.36992e-07
4.7398e-08
1.28888e-06
-5.84152e-07
-6.03044e-07
-1.66825e-07
-5.81307e-07
-0.00525466
1.79661e-07
0.0136101
-5.27983e-08
-4.62956e-08
1.60672e-07
1.15352e-07
7.49226e-07
3.80284e-07
8.16332e-08
2.80003e-07
-4.71871e-08
-1.08251e-07
2.47337e-07
1.17351e-08
-5.87255e-07
5.42896e-09
-4.45661e-08
-1.87508e-07
-6.27497e-08
-4.96621e-07
-5.39295e-08
5.57444e-07
1.69527e-07
1.26162e-07
1.58281e-07
9.09322e-08
1.62667e-07
-9.38078e-09
1.31294e-07
-1.57469e-08
1.6678e-07
-7.05484e-08
7.58055e-07
-6.43568e-08
1.40177e-07
7.55436e-10
-0.000326288
2.10648e-07
-1.78575e-07
1.91752e-06
-1.39456e-07
8.73295e-07
-1.06778e-05
1.9329e-07
6.62985e-08
-5.24935e-08
2.38698e-06
9.58709e-08
1.53355e-06
0.0128798
0.0015617
-0.000417025
8.7964e-07
3.25513e-08
-0.00220514
5.09419e-06
-1.3859e-07
0.000357231
0.00149974
-0.00974463
1.09801e-07
1.61398e-06
4.29156e-08
-6.98173e-08
0.000318775
1.57284e-08
0.00307234
-2.20942e-07
3.27221e-06
8.79341e-08
-1.26017e-06
-5.70389e-07
9.81317e-07
-0.0149107
1.04066e-07
-2.17508e-06
1.92274e-07
9.42787e-09
6.14465e-07
1.64166e-06
0.00073402
2.99302e-07
-0.000563228
2.73228e-06
0.000327591
-0.000534909
0.00279769
-0.000697745
6.87289e-07
7.81041e-08
-0.00554923
-7.5518e-08
1.33081e-07
-3.57521e-08
1.56099e-06
-5.98933e-08
3.05001e-05
-8.39928e-08
-0.00252761
-2.63871e-08
-0.00211782
2.0944e-06
-1.04244e-08
-0.00334331
0.0131842
-3.9944e-07
0.00396093
-2.96276e-07
1.96044e-06
-8.48186e-08
-1.24113e-07
0.00201715
4.41406e-07
-0.010001
9.9926e-08
-0.000601038
-1.13706e-08
5.24517e-05
0.00167009
5.93173e-07
-0.0441914
1.65647e-07
-2.2351e-07
9.53329e-07
0.00394581
0.00632851
-2.80771e-07
5.16722e-08
-1.80223e-07
0.00273941
0.0345196
1.46203e-07
4.52293e-07
-0.000687851
-1.28763e-07
1.42363e-08
-3.72445e-07
0.00409018
1.53432e-06
3.69887e-07
8.05843e-08
3.94713e-08
-0.00107867
-0.00986055
0.000416272
1.37652e-07
1.5873e-07
-0.000545254
1.79857e-07
0.00387293
1.51745e-06
-0.00297172
0.000405427
-0.000458616
-6.08849e-08
-7.16109e-09
-3.12744e-07
-3.10509e-07
-5.31265e-07
3.01052e-07
1.67253e-06
-0.00142871
-6.07626e-08
0.0123188
4.35522e-08
0.00366309
-4.55036e-08
0.000315921
-6.21441e-07
-1.10623e-05
2.85492e-07
-5.09829e-06
1.1149e-05
-0.00270541
-0.00552354
2.7729e-07
-4.3293e-07
-1.18376e-07
-5.2146e-07
-1.33664e-06
-0.00056684
-6.20607e-08
2.09783e-06
8.71692e-09
1.51022e-07
1.46039e-07
3.04111e-09
-1.03204e-07
1.65623e-07
-0.00104217
4.8282e-08
-8.87623e-07
1.7316e-07
-1.3062e-07
-3.50738e-08
-1.19159e-06
1.55175e-07
-8.14613e-08
-1.83726e-07
1.60493e-07
-0.00117132
1.22366e-07
3.61011e-06
-7.80721e-08
-0.000497831
6.84302e-08
0.00250582
1.74752e-08
8.32451e-06
-2.11733e-07
3.8543e-07
1.25477e-07
-0.000463446
-0.00124057
0.00597354
-0.0264715
-0.000699258
5.13722e-07
-3.3989e-07
-0.00124324
-7.0991e-08
0.00137498
0.00132054
-1.55254e-06
0.000335234
-7.33919e-07
-0.0011513
1.66816e-07
-0.000815932
-0.00128648
-7.43841e-07
-2.53964e-07
-0.00130713
-0.00948595
2.47811e-08
-6.59386e-07
1.15957e-07
-6.64072e-07
5.74076e-07
-8.25622e-09
3.78423e-08
-2.99784e-07
-0.000335164
7.54844e-07
1.74343e-07
0.000918142
1.31246e-07
1.4833e-07
4.75907e-05
0.00506433
5.5753e-07
3.95651e-07
0.000213504
6.79094e-08
-4.53456e-08
0.0026293
-3.99711e-08
-6.59558e-07
-0.00113359
-0.000886729
6.61345e-07
0.0091343
-0.00871945
2.73713e-06
-0.00247207
1.33561e-05
-2.97866e-09
-0.00612117
-2.18007e-07
6.20177e-08
2.02909e-07
1.4019e-07
-3.73102e-07
-0.0786726
1.64638e-06
0.00351686
4.59343e-06
-2.1883e-06
-2.51161e-07
5.4434e-07
-6.40754e-06
-1.71669e-07
1.60025e-06
2.83644e-06
1.8959e-07
-8.95653e-06
-2.08856e-06
4.74489e-07
2.17993e-06
-2.254e-07
-0.000801727
0.00197476
4.21879e-06
-7.31772e-08
-3.4944e-08
-1.04767e-07
5.68908e-07
0.00394327
3.40205e-06
-0.000958345
3.05922e-07
0.00138246
9.92571e-07
-5.96055e-07
5.02158e-07
-3.86077e-07
8.99718e-05
2.89425e-07
-7.23814e-08
1.66595e-05
9.03715e-07
-0.007106
3.30891e-07
0.00056035
0.00011206
-2.26525e-07
9.45093e-07
-1.88522e-08
0.00349715
-9.11971e-08
-9.02511e-08
-0.000642357
2.66801e-06
2.99453e-07
0.000138076
-1.39377e-07
3.87428e-08
1.39773e-07
-0.00355175
-6.58211e-08
2.79031e-08
0.000506888
9.8101e-07
-8.28022e-07
-9.0571e-07
0.000332686
-0.000328739
0.00030564
5.09531e-08
-1.73529e-07
-2.50392e-07
1.3556e-06
-1.23857e-07
-0.000135731
-0.000502766
2.26627e-08
0.00265827
-0.000331937
0.000138059
-2.05044e-07
-0.000582955
1.86686e-07
-0.000725356
1.98634e-06
1.78683e-07
0.00318667
-0.0018507
1.15202e-07
-5.4243e-09
-3.2758e-08
0.000726944
0.0062023
-1.93871e-06
-1.21172e-06
-1.86229e-05
0.000311413
-0.00606937
-5.97016e-05
7.73021e-07
-1.30413e-07
-0.068848
-0.00440025
2.74881e-07
5.64853e-07
-2.21198e-07
-3.14327e-07
-9.07589e-08
-9.87577e-08
0.00178086
4.11982e-07
3.54436e-07
-0.00781702
-2.22918e-07
-9.67718e-08
-7.88094e-07
-0.00112548
-9.55445e-08
1.83313e-06
-0.000862273
-3.99155e-07
-2.6724e-07
-4.64537e-07
5.45836e-08
-5.02275e-07
0.00176172
-0.000482135
4.95791e-07
-0.00174906
1.28558e-06
0.00034371
-6.91057e-09
7.89231e-07
-5.02274e-07
-8.88499e-08
-0.000648538
9.43735e-07
1.51449e-07
-1.82251e-06
7.75156e-07
-9.76174e-07
3.05101e-08
1.64464e-07
3.96593e-06
-1.10418e-07
1.56762e-07
0.00293238
2.99125e-07
-0.00768635
-1.48818e-06
7.60418e-08
0.00868679
1.12507e-06
5.00776e-07
7.34063e-06
1.39579e-07
0.00115935
9.34218e-08
-6.73685e-08
0.0491404
0.00308328
1.47581e-07
-3.29405e-10
1.70035e-07
-1.11365e-07
2.15626e-06
-5.45581e-07
1.01082e-06
1.44076e-07
-6.94814e-07
-2.21874e-07
5.10398e-07
-3.51798e-08
1.1493e-07
1.09362e-07
-0.00186187
-6.5408e-07
-2.22425e-08
8.68308e-07
1.27213e-06
-0.0036585
-0.000470471
5.43699e-07
-1.93256e-09
1.08812e-07
2.18973e-06
-4.58769e-07
5.89369e-09
-1.54451e-08
0.000473753
-1.55261e-06
5.95287e-08
6.68178e-08
1.65369e-06
-9.79055e-07
-1.16536e-07
-0.00132296
9.51703e-07
2.64903e-07
-3.5682e-07
-3.69178e-06
-8.91319e-08
-7.98689e-07
9.62386e-05
-7.34029e-07
-1.61825e-06
-8.99552e-06
-0.000361207
8.42669e-08
5.69163e-08
2.05038e-08
4.0075e-08
-1.18901e-05
2.27908e-07
-1.81017e-06
-1.02429e-06
2.76822e-08
-4.87191e-07
-7.99145e-06
-3.68416e-10
-1.4479e-07
6.38959e-07
1.54754e-07
0.000374182
2.72122e-08
-2.56355e-08
0.00165917
5.81983e-07
1.26273e-08
-2.23724e-05
3.18855e-07
6.99589e-09
2.4447e-07
-1.836e-07
-2.03534e-05
-1.31251e-07
-0.000491651
0.000121913
6.77569e-08
8.05883e-08
4.42521e-08
1.76119e-06
3.72097e-08
-8.37416e-07
1.99555e-07
1.78025e-07
-1.9259e-05
-3.78721e-08
4.3104e-07
1.44056e-07
-5.93363e-08
-0.00061049
-0.00020104
1.18951e-07
1.21794e-07
3.42155e-08
-0.00172771
9.21723e-05
3.88024e-07
0.00222516
-0.00812837
1.40761e-07
2.00761e-05
0.000313457
-1.35794e-06
0.00112755
-2.25547e-09
0.00382468
1.72082e-07
4.46021e-07
5.16864e-06
-8.86318e-08
-0.000819931
-0.0314348
-1.8455e-07
-0.0374009
-0.0414017
-3.22438e-07
0.000636688
1.45412e-07
2.19124e-07
1.81578e-06
-2.32851e-08
-0.000849256
1.57947e-07
1.18969e-06
1.34976e-06
7.36205e-08
-0.000261355
-3.81063e-08
1.07811e-07
7.76416e-07
-2.34549e-08
0.000110334
-0.047403
-2.75851e-07
-3.12228e-07
-0.0354163
8.48413e-08
1.85082e-08
6.40914e-08
0.00106132
-0.00249664
-3.60167e-07
-7.94639e-07
4.70633e-08
-0.00484206
-0.076257
4.81834e-07
6.79825e-08
1.10359e-08
-0.0478737
0.0013444
-0.0021212
-4.90211e-07
-4.11344e-07
-4.51679e-09
-2.3485e-07
-1.19317e-08
-6.51856e-08
-4.00943e-07
-3.26903e-07
7.15198e-08
-0.00278952
6.03427e-06
6.25719e-08
3.05907e-05
-6.95809e-07
3.7657e-06
-0.00939877
-1.44929e-06
-0.00566799
2.17523e-05
1.05724e-07
2.3789e-06
2.13584e-06
-0.00230317
-0.000871663
4.65738e-07
2.04951e-06
-0.00128641
1.04777e-06
-1.50797e-06
-0.000561
-5.01742e-05
2.00255e-07
8.18577e-09
-5.7604e-08
2.43247e-07
1.86592e-06
-2.93423e-08
-1.55349e-08
1.97167e-07
-9.59377e-09
-5.89334e-08
3.08575e-08
-3.81684e-07
-2.12084e-08
-0.00297357
-2.58813e-07
-0.00129717
6.24636e-08
4.28417e-08
3.58781e-08
-0.0282238
0.00202827
1.62153e-07
1.83886e-06
2.13832e-07
1.06069e-07
2.90469e-07
1.27522e-07
2.24871e-07
-1.82611e-05
-6.33928e-09
-0.00201573
1.82898e-06
6.51798e-08
-0.0023981
-1.65722e-07
-9.97401e-08
3.9771e-08
5.27446e-07
0.000295911
1.6687e-06
0.00183999
3.8569e-05
-0.00203199
6.93562e-08
-1.329e-07
-9.24716e-07
-8.68771e-08
-3.34247e-07
2.08916e-06
-0.0173893
1.38696e-07
8.92206e-07
-3.56439e-07
-0.00236953
-0.070672
5.94146e-08
-0.0613732
-0.0178851
-5.67017e-08
7.34397e-08
-2.51961e-07
1.28276e-06
5.23836e-07
2.76687e-06
1.29882e-06
1.77009e-07
-0.0563445
-0.000481494
-1.22389e-07
-6.76115e-08
-1.98999e-07
-1.4538e-06
8.93899e-07
-2.64225e-07
0.00010254
1.04549e-08
0.00193543
1.73644e-06
5.19e-07
-2.00241e-07
-2.75604e-07
-0.00516784
3.97624e-08
-0.000767263
-2.00668e-08
1.22991e-07
7.2955e-08
-4.62489e-06
-3.79653e-07
-0.035571
5.26106e-07
-3.20236e-07
-1.34552e-06
4.92545e-06
-6.32684e-08
2.62363e-07
-0.000821202
-9.79234e-08
-6.0631e-08
0.000209839
-0.000346013
4.84102e-08
1.17235e-07
6.7616e-07
0.0088747
5.54106e-06
4.66386e-08
-0.000634498
-2.64185e-08
-0.000382748
5.40811e-05
-1.36952e-07
1.34165e-07
2.89649e-06
6.20727e-08
4.69474e-08
5.1576e-08
2.48007e-06
-0.0329778
-5.51833e-06
-1.56076e-07
-1.52232e-07
-1.02628e-07
9.46448e-05
-2.67467e-05
3.80009e-08
-1.4494e-07
3.51936e-07
3.06967e-06
-0.0208508
-0.0219155
1.11308e-07
-3.20634e-06
1.4073e-07
1.31976e-07
7.99222e-07
-1.32428e-07
1.51758e-06
-5.16855e-08
6.84862e-05
0.000205102
-0.0332834
-3.36112e-08
2.81413e-08
2.82355e-08
8.96998e-07
1.33384e-07
4.32697e-07
-2.09541e-06
-8.02222e-08
4.85511e-08
-4.69977e-07
1.40615e-07
-1.88421e-07
-0.00883744
1.02178e-06
-1.05484e-07
-6.91502e-08
6.70106e-06
2.00067e-09
-0.00726743
2.06665e-07
3.56541e-07
-2.53992e-08
3.26441e-07
-9.51989e-08
-3.32672e-07
-0.00448595
2.03398e-06
-3.4226e-08
-1.8859e-08
5.01458e-07
-4.38872e-07
-4.4049e-07
-7.40486e-07
-3.57599e-07
-0.00406934
3.48906e-07
-3.4406e-07
3.1374e-07
3.16837e-06
-1.21872e-07
-0.0655315
-6.77925e-08
-1.09871e-07
-3.98204e-08
-0.0682737
-4.54156e-07
0.000106505
-0.0356484
-4.75474e-07
-1.23933e-07
1.77214e-07
1.3348e-07
-5.95451e-06
2.63156e-07
-1.07089e-07
0.00545331
8.51161e-08
-4.01026e-05
-0.0159644
-4.7574e-07
3.90147e-06
-1.25213e-07
-8.32454e-09
4.31228e-08
-7.48931e-08
1.11777e-07
1.30813e-07
0.000326795
4.28848e-06
-2.06736e-08
-0.00721034
2.08706e-06
4.2655e-08
-0.000155735
-5.6141e-08
-2.02951e-06
-2.08148e-09
3.89311e-08
0.000155442
-1.02231e-07
4.77081e-08
-1.27701e-06
-2.64852e-06
2.59513e-06
-5.12011e-07
3.87222e-08
-4.13354e-07
-0.0667697
0.00310389
7.14852e-07
8.37786e-08
1.24703e-08
1.42062e-07
-0.000991807
-1.15371e-08
4.47662e-07
1.11025e-05
0.000208852
-4.63539e-08
6.78863e-07
-6.56374e-08
-3.20314e-07
-1.94259e-06
5.85851e-07
-2.03301e-06
-1.69671e-07
-1.76611e-07
7.4592e-08
0.00097714
-1.7889e-06
-5.88141e-08
-2.95106e-08
1.97378e-06
-5.88083e-07
1.58664e-06
-5.77358e-08
-2.62361e-07
-9.40351e-10
-4.10166e-06
-0.0012632
-2.51754e-05
-1.492e-07
0.000782521
-1.7862e-07
2.63181e-07
-1.22663e-08
1.51413e-07
-9.28056e-08
-9.10462e-08
-3.66033e-06
2.14667e-06
-5.33607e-07
-3.20037e-07
2.55465e-08
-6.93909e-09
-1.00598e-05
-1.98649e-07
1.76816e-07
-2.62259e-07
-0.0015054
-0.00964334
-8.19752e-08
3.51615e-07
-8.00654e-08
0.00115208
-5.16317e-07
-0.0149472
-4.27713e-08
3.2771e-06
9.36019e-09
2.3528e-08
5.34268e-08
-2.16979e-07
7.43282e-07
-2.41092e-07
3.45248e-07
-7.3934e-08
-4.84843e-07
1.56112e-06
-7.34776e-08
-2.55822e-07
-0.00109481
-5.90614e-08
-4.0252e-07
-2.1639e-07
-2.43883e-07
6.9689e-07
-5.28736e-07
-1.76341e-05
4.31196e-08
8.48989e-09
-2.53687e-08
6.55672e-05
-9.6221e-07
-0.0031193
-1.71879e-07
-2.43045e-07
-0.00571457
0.000186973
-0.000136893
5.21182e-08
-6.78731e-07
-0.0011584
-1.42458e-07
-0.00343231
1.06137e-07
2.64088e-06
5.81618e-08
0.000267335
0.000103794
-5.50369e-08
-1.26503e-06
-3.80711e-06
-4.51185e-07
1.74397e-07
-0.00208103
3.86923e-08
-0.000757807
-1.02514e-07
5.93913e-08
-3.07043e-07
1.03293e-07
-3.23949e-07
-1.44746e-05
4.73019e-08
4.16968e-09
9.01185e-09
1.47581e-08
1.11624e-07
0.000376
-0.00629437
-0.00130068
-1.38388e-07
-5.20647e-07
-1.48181e-07
-1.93112e-07
-6.46442e-08
2.15481e-06
1.22807e-06
2.17385e-07
-2.95622e-08
0.0017405
-8.17037e-07
0.0069204
0.00107265
-4.57604e-07
-8.81124e-09
9.64919e-09
5.90377e-07
-0.00678291
5.45138e-07
1.15891e-07
-3.94636e-06
2.71214e-06
1.35263e-06
0.00107432
-1.24591e-07
3.17961e-07
-8.64998e-08
2.32058e-08
-2.2675e-07
0.000816011
3.32346e-05
0.000183802
3.54726e-07
-0.00151268
-2.58747e-07
-8.30559e-08
2.79699e-08
-1.18295e-07
-4.40576e-08
4.22941e-06
1.39564e-07
1.55779e-07
2.49394e-07
6.06491e-08
-1.42624e-07
2.92888e-07
-1.43758e-06
0.000251699
-1.16232e-05
-2.49907e-08
-1.51738e-07
9.21967e-09
-2.67806e-07
-5.15447e-08
0.000145919
-1.09092e-07
-7.84624e-08
-2.72007e-07
-0.00041212
2.21378e-07
-1.25032e-06
0.000359645
1.29274e-07
-3.60741e-08
-0.0215232
5.7474e-07
-5.23793e-08
3.42317e-07
-0.0661722
-3.18305e-05
-2.60303e-07
-3.04257e-07
4.89135e-05
-5.45754e-07
8.03697e-08
-3.85203e-08
5.32014e-08
-1.18285e-06
3.21288e-07
-6.41559e-08
1.31956e-06
1.72595e-07
0.00277219
1.74322e-06
-2.30147e-07
-3.28186e-07
0.000154607
5.00004e-07
-1.67085e-07
3.26043e-08
-1.16682e-07
5.5686e-08
-4.42193e-08
0.000680291
6.85304e-08
2.58821e-06
1.60586e-07
4.21253e-07
-0.00957189
2.751e-07
0.00447169
2.51434e-06
-7.07469e-08
3.91618e-06
1.3406e-07
3.37331e-07
1.80374e-07
-2.57921e-07
5.22811e-08
1.56585e-07
2.84613e-07
3.78237e-07
-0.00238574
-6.83247e-08
3.15603e-08
-1.93258e-07
3.43099e-08
1.6221e-07
1.68632e-07
2.17763e-08
5.81091e-08
2.23281e-07
2.42557e-07
-1.87603e-07
5.22585e-08
-4.71131e-07
0.0300096
-6.29592e-07
6.238e-08
-0.000164343
0.00107105
-1.25896e-06
-8.67802e-06
1.2285e-08
4.67368e-07
-5.01848e-08
3.49655e-07
0.00201426
-0.000122882
1.98952e-07
-3.22221e-07
-0.00106503
-1.68947e-07
-0.000496381
0.00580232
-9.54368e-08
-9.60628e-06
-9.28485e-09
-6.1155e-07
-1.20155e-06
0.000306255
0.0226225
0.000470505
-8.14928e-08
1.35992e-07
-1.81552e-07
-1.27034e-06
2.61235e-06
-3.52421e-07
-4.44209e-06
0.000186383
3.31217e-07
-0.0736547
2.06966e-07
-3.33786e-05
-5.06492e-08
-1.84986e-06
-2.02312e-06
2.87366e-07
3.40862e-07
3.2769e-07
-1.11568e-07
3.68979e-07
-3.13587e-07
7.3665e-08
-2.17263e-07
-0.00148895
1.97407e-07
4.64075e-07
1.1454e-07
0.000185694
6.73648e-08
-1.38913e-07
0.0046652
-0.00327202
-0.000172933
2.46929e-07
1.35153e-07
2.15543e-07
5.93574e-07
-1.63399e-07
-6.17458e-07
-3.82508e-06
5.27803e-07
-8.63617e-05
6.50608e-08
-7.62583e-05
-4.5549e-07
2.94682e-06
-0.000776919
-0.000811841
3.13135e-07
-1.21249e-07
3.4552e-08
-4.71499e-05
8.14397e-08
1.05285e-07
2.29167e-07
-1.70705e-06
0.00212595
-0.000240198
-2.56487e-07
5.08107e-05
-0.00316497
6.60234e-07
0.00056166
-4.83932e-06
-1.89569e-06
9.44335e-07
-0.00488382
0.000402414
1.20699e-07
1.27324e-07
2.76029e-07
-4.18455e-05
5.53593e-05
-2.6139e-05
-1.61017e-08
1.2718e-07
6.51993e-07
-2.67994e-05
1.75644e-07
5.85456e-07
2.74343e-07
-1.36241e-06
3.92639e-08
3.84485e-08
-4.74609e-08
-9.09767e-08
0.00157043
-4.73217e-07
6.52895e-07
-1.50539e-07
-0.0205805
-5.0565e-06
-9.57212e-08
1.79158e-07
-0.000241783
-7.87745e-05
-1.61237e-07
-2.00311e-08
-0.0495503
4.26739e-07
2.74644e-07
6.24539e-08
5.43911e-07
0.000207535
-1.35154e-07
-1.98642e-07
4.55692e-08
-2.82771e-07
4.90675e-07
2.0001e-07
1.33712e-07
2.27781e-07
3.73062e-07
-3.58284e-05
-8.9314e-08
-5.02308e-08
-0.000262128
1.7463e-06
7.01857e-05
1.59142e-06
1.27623e-07
9.01529e-05
2.70792e-07
4.3318e-06
1.00343e-07
-0.000951222
3.07581e-07
1.74321e-07
6.28998e-08
-0.00101687
-3.48361e-07
2.34471e-07
-0.000218246
5.15541e-07
7.3395e-08
5.05507e-07
4.60344e-07
1.87228e-07
2.28333e-08
0.0050702
-8.45752e-08
7.25891e-06
8.36573e-07
5.7851e-07
4.99832e-07
-4.20585e-08
3.26534e-07
2.2678e-07
0.000874088
-4.39186e-06
6.17025e-05
-2.31828e-07
-0.0060696
6.36468e-08
-2.83937e-05
6.77145e-09
2.71457e-07
1.15949e-07
-0.0285349
-0.00198457
-6.67845e-08
-1.75528e-06
-2.46664e-07
2.45062e-07
0.00118837
4.89082e-08
2.97279e-07
3.13434e-05
-3.61503e-05
0.00365715
4.10379e-07
2.94158e-07
3.01255e-05
4.88648e-08
-6.93317e-07
-0.000174533
5.83201e-07
6.89009e-05
0.000624412
0.0400372
1.16415e-07
-3.26429e-07
-6.1275e-09
-2.29913e-07
-5.27846e-06
9.91229e-08
-1.30797e-07
-2.42929e-07
8.42553e-08
-5.46496e-05
3.09467e-07
-2.66379e-07
-1.36482e-08
0.00194163
-1.08811e-07
-3.47061e-08
1.30187e-06
-0.00098537
6.42888e-07
-0.00200377
-6.25189e-08
3.30355e-07
6.45537e-07
-8.46912e-08
-7.23553e-08
1.44252e-05
-0.00200961
4.46395e-07
-3.14584e-07
9.80729e-08
4.85958e-08
1.84704e-07
7.30133e-07
5.05001e-07
1.91165e-07
4.60104e-08
1.44331e-07
4.77707e-07
0.00471878
-2.03561e-07
1.9364e-07
-1.21644e-06
2.84828e-07
9.46961e-08
0.00129784
-0.0058719
0.00413145
0.00915942
1.85341e-06
1.66311e-07
-4.31438e-07
-0.00195262
0.000801117
-0.000232624
0.00109415
0.00227233
-9.94396e-08
0.000302672
0.00399813
-6.39665e-08
-0.00198362
-4.42217e-07
0.00243574
-0.00258769
0.00122314
-5.02318e-07
-1.6315e-07
-3.03808e-07
5.90716e-07
7.44002e-07
0.000276975
-8.22237e-06
-6.4683e-08
1.36703e-07
-2.18284e-08
0.00250388
2.38649e-07
1.59848e-07
2.42972e-07
-8.19204e-08
2.83428e-07
-0.00168421
-1.72661e-07
6.53071e-08
6.78592e-07
-3.57421e-07
-0.00125147
-0.000317293
3.80552e-07
3.54351e-07
-4.42845e-07
2.15089e-07
1.33431e-07
5.76318e-08
-0.0202149
5.08451e-07
1.00209e-06
4.08389e-08
6.00053e-07
-4.6858e-08
3.03311e-07
0.0078428
-0.00175679
1.08421e-07
4.70748e-07
0.000368374
0.00310753
3.31476e-05
0.00308803
3.61714e-07
-4.06121e-07
2.64086e-07
3.64152e-08
2.81126e-07
9.14285e-08
1.95071e-07
1.0237e-07
-2.16942e-07
-0.00424476
2.45722e-09
-0.000148493
0.00217012
-1.82914e-07
-4.17452e-05
-1.6377e-06
-4.27927e-07
5.8787e-08
3.12767e-07
-6.39421e-07
-1.48629e-07
-0.000970844
1.28914e-07
-5.3123e-08
0.000579845
2.77805e-07
-5.34069e-08
-3.36287e-08
-3.3757e-05
1.91798e-07
1.17545e-07
-0.00262333
1.54612e-07
1.23529e-07
2.40653e-07
0.000115653
1.35427e-07
-8.38642e-08
2.68593e-07
1.20819e-07
-0.00172972
0.000408701
2.5836e-07
0.000348237
8.60354e-08
2.07491e-07
-2.13927e-07
0.00105803
-0.0111956
-6.19777e-08
3.32027e-07
-1.29263e-07
2.71256e-07
2.67465e-07
9.22751e-08
-0.000318034
-0.00114457
4.70679e-07
-3.91506e-07
-2.93194e-06
-2.55347e-08
1.70212e-07
-2.92193e-07
-1.38182e-06
-0.00261255
4.27158e-07
-5.62185e-07
5.87077e-05
3.48275e-07
-3.47597e-07
-1.51934e-05
0.00413333
-2.69873e-08
4.67889e-08
6.08609e-07
2.4172e-07
8.00273e-08
0.000714638
2.07482e-07
0.00032717
-0.00236295
-9.97258e-08
-8.15255e-08
0.000841143
-1.43218e-05
0.00102427
0.00267985
3.0486e-05
-2.00755e-07
1.36534e-07
5.79795e-08
-0.00120914
1.10098e-07
0.000106231
7.19942e-08
-1.39695e-07
2.60379e-08
4.44158e-08
3.11557e-07
-0.00700672
-2.73966e-09
0.00194184
0.00031467
2.78317e-06
0.00633976
5.30721e-08
-9.18413e-08
-4.45234e-08
-0.00211376
1.02246e-07
-0.0022213
-3.72764e-07
-1.0299e-07
1.38693e-07
0.00143742
3.2781e-08
3.46214e-06
0.00139166
2.94751e-07
-0.00147842
-3.31157e-07
-3.7787e-06
-5.82263e-06
1.04694e-07
1.22432e-07
2.49134e-06
5.1191e-06
5.60236e-07
-7.9452e-07
4.81011e-08
-4.84819e-07
3.17579e-08
0.000167648
-5.64111e-08
-1.39222e-06
0.000127864
1.53157e-08
-0.00127088
6.44914e-08
9.71704e-08
6.76439e-08
-0.00210472
3.05887e-08
4.84435e-10
1.15158e-05
-2.02076e-05
5.28852e-05
1.51768e-08
3.50506e-08
6.92951e-07
-0.00864576
-4.27385e-05
-1.54139e-05
-2.92331e-07
2.49944e-07
4.84126e-08
3.99916e-08
-3.26497e-08
-2.61969e-07
1.07431e-08
-2.34702e-08
-2.16152e-05
-8.37326e-09
7.79491e-08
-2.21784e-08
3.2648e-08
1.27189e-07
-7.89788e-07
3.67715e-05
0.00148983
6.18038e-05
3.81727e-06
-0.00850412
-0.00332804
1.79954e-07
1.46385e-07
-5.93856e-07
-7.80188e-07
-3.61694e-08
2.70447e-07
1.18266e-07
-8.26771e-08
2.17882e-07
2.07714e-06
4.01944e-07
0.00186733
1.81354e-07
-2.77642e-07
-0.00132689
-2.0549e-06
-1.85627e-07
-2.46132e-07
-1.39509e-08
-0.00212272
-0.00214089
4.55866e-09
9.26134e-08
-1.81033e-05
7.47571e-08
1.14843e-07
1.55358e-07
-7.37881e-06
-7.56404e-08
1.1774e-08
9.51502e-05
9.18044e-08
5.22783e-06
-3.35031e-07
2.2467e-07
1.07713e-07
-0.00162932
0.00177603
-0.00375533
1.67565e-05
-1.25201e-08
3.4926e-08
-1.58722e-07
4.27933e-07
4.83836e-06
-8.37704e-08
-0.00566171
0.00268463
-2.41968e-07
-2.71156e-05
-0.000158904
-1.53558e-07
0.00194584
3.31716e-06
-0.0107877
-1.68665e-05
4.35536e-08
-6.58609e-09
-2.76003e-07
1.75794e-07
0.00105197
-0.00284057
0.000250795
3.98368e-07
-2.47413e-07
6.47502e-08
0.000851601
6.92614e-07
-0.00135842
5.39265e-08
-5.93195e-07
0.000165487
-1.5566e-07
-2.97184e-05
0.00185916
9.12317e-09
2.98007e-07
2.52364e-08
2.82269e-07
-0.00123991
0.0340479
2.30691e-08
1.90188e-07
2.00602e-07
0.000939006
4.21716e-08
8.66187e-09
-1.40627e-06
-0.000752593
-0.0124746
-0.000349385
-0.00221474
1.69826e-07
1.67053e-07
3.23999e-08
2.00023e-07
-3.99919e-08
2.31944e-05
6.17434e-08
2.38298e-07
0.00101378
6.83351e-07
2.08279e-07
-0.000960395
-1.42119e-07
-9.89448e-08
0.00089427
-9.44073e-06
-1.83014e-07
1.03691e-07
-5.68396e-07
0.00292851
1.62882e-08
0.00431956
-3.89724e-06
-0.00280923
-2.95461e-08
-0.000113303
1.19374e-05
0.000220725
0.000452257
-4.93027e-06
-0.00427088
0.000108993
0.000854778
1.18483e-07
1.71738e-07
1.95221e-07
5.56869e-07
0.000247759
1.42491e-07
2.24722e-06
-1.25351e-06
-7.10697e-07
7.6094e-07
-0.00247934
2.24735e-07
0.000390425
5.5291e-07
6.55604e-07
-2.82815e-05
-5.15586e-05
-0.000745288
1.93534e-08
-2.10773e-06
3.49956e-07
-0.00031155
7.22111e-07
-0.000217996
8.34529e-06
7.02323e-05
-0.00898927
4.30008e-08
-0.000822247
-1.51756e-07
5.76296e-05
-5.53394e-08
-0.0119614
5.70045e-07
4.21657e-08
2.20579e-07
0.000451538
1.00144e-08
-4.31438e-06
0.000259298
-2.10262e-06
3.12128e-06
2.10146e-07
-1.62777e-07
-0.012952
-1.17502e-07
-0.000872069
0.00451333
-2.57345e-07
-0.00124425
-0.00245578
9.29244e-07
1.67359e-07
0.000685809
-0.000965353
4.0594e-08
1.70564e-05
5.8957e-08
-8.1321e-05
-0.00231678
0.000320109
0.00100265
6.29878e-08
1.78429e-07
-2.5418e-07
1.02472e-07
1.82952e-06
-2.34649e-07
-3.30656e-07
-8.9942e-08
0.00182482
-1.2804e-07
-6.18786e-07
-3.66706e-06
-0.00300762
0.000415871
1.571e-05
4.36411e-06
-7.63002e-08
0.004747