/*--------------------------------*- C++ -*----------------------------------*\
| =========                 |                                                 |
| \\      /  F ield         | OpenFOAM: The Open Source CFD Toolbox           |
|  \\    /   O peration     | Version:  v2012                                 |
|   \\  /    A nd           | Website:  www.openfoam.com                      |
|    \\/     M anipulation  |                                                 |
\*---------------------------------------------------------------------------*/
FoamFile
{
    version     2.0;
    format      ascii;
    class       surfaceVectorField;
    location    "850";
    object      ddtCorrDdt0(Uf);
}
// * * * * * * * * * * * * * * * * * * * * * * * * * * * * * * * * * * * * * //

dimensions      [0 1 -2 0 0 0 0];


internalField   nonuniform List<vector> 
14516
(
(-0.0602767 0.0335935 3.78313e-19)
(-0.0646005 0.0276547 -1.01032e-18)
(-0.0562618 0.0262615 -1.96365e-19)
(-0.0194374 0.0800408 -1.97819e-19)
(-0.0160749 0.0947355 1.05214e-18)
(-0.0214429 0.0931903 -6.45909e-19)
(-0.0538397 0.0389896 5.63915e-19)
(-0.0662707 0.0406641 -1.72606e-18)
(-0.000195231 -3.12789e-06 -2.61004e-21)
(-0.00019486 -4.63991e-06 6.70424e-21)
(-0.000192991 -2.56256e-06 -7.109e-20)
(-0.0628648 -0.122922 -4.13649e-19)
(-0.0790191 -0.106212 -6.27539e-19)
(-0.0768703 -0.152854 -1.00664e-18)
(0.00670337 -0.0018579 1.67024e-19)
(0.00644719 -0.00115206 -5.54657e-20)
(0.00590729 -0.00177808 -1.06455e-19)
(-1.74084e-05 2.16852e-05 1.87042e-19)
(-2.20945e-05 2.74823e-05 2.06974e-19)
(-1.85761e-06 3.40224e-05 -5.6089e-19)
(2.28696e-05 0.000655353 -4.48907e-19)
(1.52971e-05 0.000584822 -9.85543e-20)
(-5.67099e-05 0.000597599 -1.72784e-19)
(-0.00101783 -0.000774526 -3.73458e-19)
(-0.000953005 -0.000813179 -2.9039e-18)
(-0.0010715 -0.000841265 2.19782e-19)
(-0.0518811 -0.109492 -2.51207e-18)
(-0.0406894 -0.128117 5.72875e-18)
(-0.0086965 -0.0294166 -3.81685e-19)
(-0.00775456 -0.0314387 -1.06612e-18)
(-0.00628384 -0.0290742 6.16275e-18)
(0.0409765 -0.0186396 8.39291e-20)
(0.041591 -0.0173039 1.36688e-19)
(0.0429291 -0.0184268 3.69214e-19)
(-0.000194676 -3.08135e-06 7.07101e-21)
(-0.000194973 -3.08495e-06 1.75234e-20)
(-0.00208063 0.0012124 -1.29113e-19)
(-0.00232627 0.000970442 5.77614e-20)
(-0.00196031 0.000866029 7.9691e-21)
(-5.06204e-06 -2.02958e-06 -3.67076e-19)
(-3.45427e-06 -8.62395e-07 3.93305e-19)
(-0.00177884 0.00143262 1.7566e-19)
(-0.00148604 0.00155426 6.36369e-19)
(-0.00146539 0.00121908 -6.04327e-19)
(-0.00531439 -0.000156834 -7.55634e-19)
(-0.00480674 -0.000699651 2.33794e-19)
(-0.0045806 9.11344e-05 2.07473e-19)
(-0.00580066 0.000581393 3.73689e-19)
(-0.00611795 -0.000427221 -5.08787e-19)
(-0.203581 0.16951 -2.70227e-18)
(-0.189864 0.138985 2.9632e-19)
(-0.189672 0.16372 3.02762e-18)
(-0.00213096 0.0016237 -2.94442e-19)
(0.0493 0.00780592 1.90843e-19)
(0.0518186 0.0112903 -4.20885e-19)
(0.0469631 0.0117319 -5.45132e-21)
(-0.00366977 0.00590241 -8.86215e-19)
(-0.00428784 0.0059063 -7.25352e-19)
(-0.00388433 0.0052944 6.37779e-19)
(0.0402367 -0.0165526 5.06721e-20)
(0.0441703 -0.0133161 1.32649e-18)
(0.0433463 -0.0212799 7.65907e-19)
(-0.000102619 0.00104663 1.29211e-19)
(-5.47108e-05 0.000925102 7.45264e-20)
(-0.00638416 -0.000623463 -1.34335e-19)
(-0.00657847 -0.0013842 1.07442e-19)
(-0.00729545 -0.000727128 2.71013e-19)
(-0.000196773 -3.10605e-06 6.4877e-21)
(-0.000196547 -3.18856e-06 1.73533e-20)
(-0.000929193 0.00236204 -1.00438e-19)
(-0.00133952 0.00231127 -7.91167e-19)
(-0.00116347 0.00277205 1.21633e-20)
(-0.00253384 -0.00159986 -9.45295e-19)
(-0.00245058 -0.00202215 8.75653e-21)
(-0.00211496 -0.00175212 -1.81304e-19)
(-0.0266354 -0.016189 -8.47474e-19)
(-0.0240428 -0.0160945 -7.94911e-19)
(-0.025718 -0.0142643 -1.93729e-19)
(-0.000962445 -0.000706296 -3.78792e-20)
(-0.00107053 -0.000716375 2.48164e-18)
(0.0173672 -0.0121823 6.55038e-20)
(0.018912 -0.0125589 1.68666e-19)
(0.0181062 -0.0104916 1.21561e-19)
(0.035241 -0.018356 6.61618e-19)
(0.0365911 -0.0124923 6.9704e-19)
(-0.00812209 -0.148508 -1.10147e-18)
(-0.0195359 -0.151115 -4.42728e-19)
(-0.00639941 -0.16681 3.26713e-18)
(-8.62978e-05 1.02916e-05 1.16416e-19)
(-8.04215e-05 1.09759e-05 -1.53472e-19)
(-7.84234e-05 4.89527e-06 -6.27547e-19)
(-0.0294463 -0.0159228 -7.47116e-20)
(-0.0322494 -0.0155475 -4.32707e-20)
(-0.0311688 -0.0133402 -7.55308e-20)
(0.0642456 0.00886924 -1.9684e-19)
(0.0720677 0.0108502 -1.3136e-18)
(0.07054 0.00242141 9.18601e-20)
(-1.61258e-05 1.65772e-05 3.6168e-19)
(-3.83129e-05 1.38013e-05 7.98619e-19)
(-0.0033486 0.00651372 -1.11743e-19)
(-0.00303731 0.00587042 -3.57658e-19)
(9.63005e-05 0.00115239 9.49576e-20)
(0.000141004 0.00131924 -9.04946e-20)
(-4.39449e-05 0.00124898 1.3151e-19)
(-0.000138155 -2.51249e-05 2.62102e-19)
(-0.000126811 -2.3263e-05 3.97857e-19)
(-0.00013608 -3.26504e-05 -2.60634e-19)
(0.0155548 -0.0117475 -3.3299e-19)
(0.0161751 -0.0140964 -1.34472e-19)
(4.22689e-07 -4.25415e-06 -8.92749e-19)
(-7.86057e-06 -2.42822e-06 -1.27804e-19)
(-0.000203439 -3.17717e-06 -2.52384e-19)
(-0.000198647 -2.42148e-06 -1.65511e-21)
(-0.000202703 -3.65345e-06 1.98698e-19)
(1.85622e-05 2.36624e-05 -2.31363e-19)
(-2.0584e-07 1.88716e-05 -3.0337e-19)
(1.85224e-05 3.27289e-05 -2.66673e-19)
(-0.000216299 -1.91968e-06 3.35526e-20)
(-0.000205274 -1.59416e-06 -8.27587e-20)
(-0.000196893 -1.40673e-06 -3.724e-21)
(-0.0275635 -0.0189362 2.43552e-19)
(-0.00277458 -0.0276391 -3.65707e-19)
(-0.00601007 -0.0293258 4.47965e-19)
(-0.00611037 -0.0247611 1.06153e-19)
(0.0174182 -0.0555446 1.02122e-18)
(0.0241956 -0.0535904 2.48375e-19)
(0.0151481 -0.0500724 1.64503e-18)
(-0.000192592 -4.30125e-06 9.51501e-21)
(-0.000196111 -7.74592e-06 2.92742e-21)
(-0.0355889 -0.0161403 4.29099e-20)
(-0.0327897 -0.0187674 -4.41265e-19)
(-0.0148239 -0.0323697 2.8478e-19)
(-0.012556 -0.0337918 -4.40481e-19)
(-0.0124742 -0.0309549 -4.99419e-19)
(0.00651935 0.000835563 -1.27902e-19)
(0.00702107 0.000345807 -1.21546e-19)
(0.00724484 0.00113075 2.14009e-19)
(-0.00175747 4.18018e-05 -6.45796e-20)
(-0.00161645 3.60364e-05 -1.66957e-18)
(-0.00167728 0.000177415 6.83175e-19)
(-0.0490606 -0.0552791 3.08731e-18)
(-0.0370294 -0.0577377 2.88841e-18)
(-0.0620575 -0.0616285 1.1219e-18)
(0.0518043 -0.0172563 -1.9077e-19)
(0.051294 -0.0202395 1.64917e-19)
(0.0488237 -0.0189803 9.45187e-19)
(-0.000389347 -0.000285084 -2.54551e-19)
(-0.000363008 -0.00026156 -2.52935e-19)
(0.00981053 -0.0412831 -2.16464e-18)
(0.01042 -0.0386395 2.85012e-18)
(0.00751111 -0.039953 -7.28656e-18)
(0.00320549 -0.310613 -1.108e-19)
(0.0130179 -0.301477 4.07754e-18)
(0.00452329 -0.321099 3.43564e-18)
(4.41519e-05 0.0010553 1.46794e-19)
(0.000177877 0.00107864 1.33149e-19)
(-0.000136159 -8.06796e-06 -1.66026e-19)
(-0.000134093 -6.13101e-06 -2.06351e-19)
(-0.000146608 -8.19196e-06 -4.39288e-19)
(0.00568357 0.00299541 -2.71822e-20)
(0.00623622 0.00267632 3.32306e-20)
(0.00628072 0.00344991 3.53538e-21)
(0.0497988 -0.131995 1.10781e-18)
(0.0598968 -0.142093 -7.61506e-19)
(0.062473 -0.109334 -9.75178e-19)
(-0.000231078 4.27267e-06 -1.34608e-19)
(-0.000232256 5.60445e-06 4.59553e-19)
(-0.000229662 3.71372e-06 3.89219e-19)
(-0.0392629 -0.217542 1.20783e-17)
(-0.0749876 -0.212054 2.51077e-18)
(0.0102944 -0.104634 2.52946e-20)
(-0.00500402 -0.118011 6.90246e-20)
(-0.00386581 -0.0999688 -8.58147e-19)
(0.0402568 -0.112176 -2.67878e-19)
(0.0279637 -0.145991 2.68099e-19)
(0.0323205 -0.0994537 1.90663e-18)
(0.0263923 -0.0853008 -9.55026e-19)
(0.0161499 -0.102308 -2.72341e-19)
(0.0403108 -0.0205925 -4.32721e-19)
(0.038875 -0.0186725 -3.62719e-20)
(-0.0108379 -0.0290186 -1.55046e-18)
(-0.00915486 -0.0269019 -1.46617e-19)
(-0.0293791 -0.0448096 -3.50827e-18)
(-0.0617749 -0.0536805 -2.5504e-18)
(8.387e-05 3.8352e-05 7.48899e-20)
(9.52671e-05 4.33316e-05 -2.36329e-20)
(7.81925e-05 5.08758e-05 -9.45235e-20)
(0.000181426 -0.000194354 -4.34985e-20)
(0.000238671 -0.000160062 -2.66117e-20)
(0.000239408 -0.000241141 -4.61496e-21)
(-0.0418823 0.0403011 9.48841e-19)
(-0.0390766 0.0377259 8.41444e-20)
(-0.0439737 0.0297943 -1.86594e-19)
(-0.0383694 -0.0141019 3.55736e-19)
(-0.0391035 -0.017988 -1.67455e-19)
(-0.00874419 -0.293339 -7.47418e-18)
(0.00464778 -0.293868 2.72583e-18)
(-0.000421481 -0.00028896 -4.36914e-21)
(-0.000456216 -0.000291961 -5.58017e-19)
(-0.000419355 -0.000266841 5.93101e-19)
(-0.00198427 0.00419768 -6.38758e-19)
(-0.00136575 0.00461084 1.42218e-19)
(-0.00217953 0.0048692 -2.85985e-20)
(0.00198352 -0.00593657 5.10739e-20)
(0.00239037 -0.00525677 8.07339e-19)
(0.00165744 -0.00521047 3.49725e-19)
(-0.0022549 -0.00324835 7.2802e-19)
(-0.00167351 -0.00322237 -7.90423e-19)
(-0.00200878 -0.00276513 -7.97542e-21)
(0.0200189 -0.106354 -4.0893e-19)
(0.0238413 -0.0874408 3.08946e-20)
(0.00425042 -0.00430096 -2.60532e-19)
(0.00437319 -0.00355634 -1.44356e-19)
(0.00364056 -0.00382812 -4.83968e-19)
(-0.00653149 0.092947 -4.09187e-18)
(-0.00605451 0.104449 5.56284e-19)
(-0.00113383 0.0923521 3.10061e-18)
(0.00482637 -0.0172279 -4.68965e-19)
(0.00499252 -0.0182317 -2.00483e-19)
(0.00248563 -0.0165029 3.40664e-19)
(0.0138411 -0.0110562 -2.3575e-19)
(0.0149203 -0.00956242 -8.37463e-19)
(0.00232653 -0.0235055 -9.74367e-19)
(-6.14301e-05 -0.0259865 -5.84715e-19)
(-0.000990579 -0.0218953 -9.13002e-19)
(-0.0024467 -0.00386897 -3.24944e-19)
(-0.00289396 -0.00322419 4.85371e-19)
(-0.000488373 -0.000289319 1.51908e-18)
(-0.000521601 -0.000284493 6.97283e-19)
(-0.000482022 -0.000262443 1.36569e-18)
(0.00512566 0.00261767 -1.28298e-19)
(0.00455844 0.00229937 -2.55032e-20)
(0.00497477 0.00196295 -3.1442e-20)
(0.00552768 -0.00204166 1.13932e-19)
(0.00568378 -0.0028066 6.4004e-21)
(0.00640057 -0.00226435 2.49056e-19)
(-0.0154131 0.0661966 2.10133e-20)
(-0.0224828 0.0661832 -1.97134e-19)
(0.0917105 -0.107388 2.2536e-18)
(0.0677528 -0.130549 -2.65262e-18)
(0.0753367 -0.10447 -3.93682e-18)
(0.000672598 0.000352674 -9.45452e-19)
(0.000801509 0.000405562 4.25059e-19)
(0.000779566 0.000263495 1.57342e-19)
(0.0309979 -0.0195192 3.25003e-19)
(0.0354379 -0.0225598 -5.62295e-19)
(0.00515938 0.00324561 -3.79598e-20)
(0.00739788 -0.0181548 2.08466e-19)
(0.00554594 -0.0157233 -6.78925e-19)
(0.0517035 -0.0141393 -6.10185e-21)
(0.0546144 -0.0141978 -7.55277e-19)
(-0.0109515 0.0945939 -8.32254e-20)
(-0.00707081 0.0778332 -9.53522e-19)
(0.000568348 0.000402417 -7.92281e-19)
(0.000553333 0.000295009 -3.33243e-19)
(0.000121314 -0.000198107 -9.94805e-19)
(0.000196593 -0.000224004 -6.54262e-19)
(0.000147419 -0.00013425 4.36914e-19)
(7.57068e-05 -0.00028144 -1.78031e-19)
(5.42147e-05 -0.000182471 2.49835e-19)
(0.00499229 0.00140918 5.22813e-19)
(0.0054582 0.000959238 -3.52081e-20)
(0.00568267 0.00165333 -1.73958e-19)
(-0.000485937 0.000288086 7.88125e-19)
(-0.000455391 0.000376055 1.3838e-18)
(-0.000546947 0.000346698 -1.58471e-19)
(-0.000438014 0.000242189 8.21134e-20)
(-0.000512327 0.000206021 -9.68363e-19)
(-0.00176306 0.00360559 -1.76903e-20)
(-0.00246813 0.0036944 -4.54779e-19)
(0.0123376 -0.0102939 2.5028e-19)
(0.0127271 -0.0123827 9.55046e-19)
(0.00405785 0.00213122 4.0676e-20)
(0.00424931 0.00265305 -3.78451e-20)
(-4.90986e-05 -1.80201e-05 -2.95542e-20)
(-3.9969e-05 -2.21643e-05 5.13123e-19)
(-5.32797e-05 -3.0844e-05 2.98835e-19)
(0.00581648 0.000590843 9.26201e-20)
(0.00599452 0.00124519 6.37752e-21)
(-0.0231248 -0.0329925 -1.56413e-19)
(-0.0283231 -0.030308 2.42197e-18)
(-0.0238303 -0.0258252 -3.17855e-19)
(7.19775e-05 3.39116e-05 3.8673e-20)
(9.13556e-05 2.70765e-05 -3.02532e-20)
(0.0460833 -0.00417297 -5.6126e-20)
(0.0438918 -0.00595432 1.65342e-19)
(0.0462574 -0.00744943 -2.7189e-19)
(-0.00028096 -0.000191949 1.39223e-18)
(-0.000299849 -0.000207707 -1.82192e-19)
(0.0720973 -0.0368216 8.55244e-19)
(0.0617203 -0.0262467 -2.35265e-18)
(0.0616995 -0.0361762 -3.54529e-18)
(-0.0170014 -0.0313016 -1.62353e-19)
(-0.0168423 -0.0339851 -1.92515e-19)
(-0.000421646 -0.000312552 3.65301e-19)
(-0.0379587 -0.110142 -1.72685e-18)
(-0.0437289 -0.0953369 7.24328e-20)
(-0.0452292 -0.0831318 -4.47823e-21)
(-0.0418083 -0.0127234 -1.04615e-19)
(-0.0378822 -0.0104508 3.31086e-19)
(0.00407716 -0.0050926 3.35079e-19)
(0.00495322 -0.00487413 -8.70868e-20)
(0.0278446 -0.0165098 2.44823e-18)
(0.0271243 -0.0203115 7.64148e-19)
(-0.0183845 -0.0345274 -2.6928e-18)
(-0.0216882 -0.0401287 2.05984e-18)
(9.41165e-05 1.11869e-05 4.12487e-20)
(7.96373e-05 6.16695e-06 -1.59663e-20)
(7.47017e-05 6.07862e-06 -1.93242e-21)
(-0.00044431 2.17806e-05 1.81215e-19)
(-0.000472886 3.74802e-05 2.3343e-19)
(-0.000470854 2.40995e-06 4.16548e-19)
(0.00685811 -0.00261792 7.08734e-20)
(0.00754797 -0.00200474 -7.65209e-19)
(-0.00303275 -0.000128101 -2.02511e-18)
(-0.00319098 6.6865e-05 -3.00725e-18)
(-0.00289678 8.09664e-05 4.26279e-19)
(0.050503 0.00373232 -3.75333e-20)
(0.0466416 0.00478748 -1.76682e-19)
(0.00129365 -0.0178033 -6.61059e-18)
(0.0016938 -0.0168506 -5.82457e-18)
(0.000643274 -0.0170918 1.99669e-18)
(0.00395903 -0.0212851 -1.40416e-18)
(0.00594796 -0.0251573 -2.1917e-18)
(0.00153616 -0.00660901 6.71056e-20)
(0.002428 -0.00678055 -1.67953e-19)
(4.1251e-05 0.000130862 2.85744e-19)
(1.01609e-05 0.000139715 1.14528e-19)
(1.59447e-05 0.000116859 2.72986e-21)
(4.52042e-05 2.12401e-05 -4.31667e-21)
(5.95629e-05 1.99573e-05 8.03376e-20)
(4.15632e-05 3.12429e-05 -1.01935e-19)
(-0.000492275 -0.000317142 4.12946e-19)
(7.60632e-05 0.000126487 7.01531e-20)
(6.83383e-05 0.000153913 -7.27036e-20)
(0.00435895 0.00427259 4.94824e-19)
(0.00403679 0.0049586 1.20362e-19)
(0.0035725 0.00431903 -2.15081e-19)
(-0.000910677 -0.000647907 1.28403e-18)
(-0.000866952 -0.000688862 -3.68044e-19)
(-0.00055611 -0.00027616 -1.52093e-18)
(-0.000594294 -0.00026543 -2.59015e-19)
(-0.000547712 -0.000246508 1.97196e-19)
(-0.000239104 1.68792e-06 -2.71215e-20)
(-0.000233282 3.73483e-06 6.70843e-21)
(1.91334e-05 1.85269e-05 -2.19175e-19)
(3.67041e-05 2.71829e-05 2.21777e-19)
(-0.000279553 -0.000181715 9.26981e-19)
(-0.000260316 -0.000182071 -9.19636e-20)
(7.83215e-05 -6.29203e-06 6.68429e-20)
(8.8062e-05 -5.81942e-06 5.59117e-21)
(8.14568e-05 -1.24077e-06 1.19379e-19)
(-0.000418583 3.77398e-05 1.14178e-18)
(-0.000418436 4.20193e-06 -6.85103e-20)
(-0.00589177 0.000717361 -5.36159e-19)
(-0.00622876 4.24704e-05 -1.21694e-18)
(-0.00668223 0.000799957 -3.1178e-19)
(-0.000190809 2.45089e-05 -2.78144e-20)
(-0.0001941 2.46946e-05 -7.43379e-20)
(-0.000195292 1.84467e-05 2.86318e-21)
(-0.000163475 -0.000528568 -4.47001e-19)
(-0.000206694 -0.000453806 -2.55192e-19)
(-0.000267494 -0.000589848 9.04334e-19)
(-0.00274454 0.00107583 5.66137e-19)
(-0.00259587 0.000680925 -9.57048e-19)
(-0.00354356 0.000794866 -6.97807e-19)
(-0.00321103 0.00121071 3.06922e-19)
(-0.00376837 0.00130518 1.21284e-19)
(-0.0256433 0.0594735 3.40226e-19)
(-0.0179726 0.0585258 8.96962e-19)
(-0.0190549 0.0671321 -3.68366e-19)
(-6.64528e-05 -0.000451856 4.38832e-20)
(-6.54373e-05 -0.000599102 -1.9124e-19)
(0.000258715 0.000487725 -6.49145e-21)
(0.000361232 0.00046861 6.60467e-19)
(0.000305942 0.000572674 1.04468e-18)
(0.112292 -0.0863822 5.04068e-18)
(0.104338 -0.112041 7.50447e-18)
(0.0744164 -0.0220735 -1.29554e-18)
(0.0752339 -0.0290802 -9.68645e-19)
(0.0997856 -0.0242526 4.77366e-19)
(2.63806e-05 2.43064e-05 1.95783e-20)
(4.71543e-05 1.40098e-05 1.11562e-19)
(0.0382834 -0.0242883 -6.1023e-19)
(0.0703898 -0.0119627 -9.89848e-19)
(-0.0509624 -0.0853926 -7.83558e-19)
(-0.0454807 -0.0981874 -3.29135e-18)
(0.000155917 0.00048674 3.74705e-19)
(0.000202566 0.00042017 -2.44944e-19)
(8.44231e-05 1.84654e-05 5.99621e-20)
(9.57446e-05 1.82439e-05 8.98093e-20)
(4.31964e-05 -1.39001e-05 2.25297e-19)
(4.68413e-05 -1.00339e-05 4.30478e-19)
(4.7946e-05 -1.5426e-05 2.88171e-19)
(-0.00557277 0.00126551 -2.88914e-19)
(-0.00524354 0.000568093 3.7901e-19)
(2.29825e-05 -0.00036184 1.81561e-19)
(-4.47932e-05 -0.000320267 3.62169e-20)
(-0.000186641 3.2285e-05 -3.33981e-19)
(-0.000186776 2.45924e-05 -1.56884e-20)
(1.56643e-05 0.000730828 1.59672e-19)
(9.99773e-05 0.000706944 -3.10031e-19)
(-0.00242671 -0.00120493 -2.9128e-19)
(-0.00281304 -0.00136298 -3.27092e-19)
(-0.000294265 0.0017032 -5.27923e-19)
(-2.08941e-05 0.00167922 -1.51671e-19)
(-6.89994e-05 0.00196285 -6.72041e-19)
(-0.212672 0.196024 -3.1978e-18)
(-0.213773 0.222858 9.92243e-19)
(-0.213595 0.227018 -5.97158e-18)
(-0.0351754 0.0606235 -3.76336e-19)
(-0.0392089 0.0500786 -3.92349e-20)
(-0.0318864 0.0573482 -9.9125e-19)
(0.0573196 0.011008 -7.43223e-19)
(0.0552557 0.0163597 -3.09452e-20)
(0.00106768 -0.0307377 -1.26183e-18)
(-0.013385 0.00185086 4.05273e-19)
(-0.0122484 0.00174186 5.04276e-19)
(-0.012853 0.00280173 -1.17714e-18)
(-0.000725251 0.00200057 3.31285e-19)
(-0.000544221 0.00233492 2.16782e-20)
(0.00351347 0.00136534 -1.38954e-19)
(0.00385255 0.00107761 -4.10589e-19)
(0.00336492 0.000911272 1.24483e-19)
(-0.000741236 -0.00195476 1.9981e-19)
(-0.000488392 -0.00177774 9.87094e-20)
(-0.000771072 -0.00173651 6.80641e-20)
(0.0301345 -0.0421352 7.25298e-19)
(0.0183965 -0.0547311 -1.56425e-18)
(0.0279948 -0.0568749 -8.15196e-19)
(-0.0378499 0.0621232 -2.59278e-19)
(-0.031579 0.0700708 4.10997e-18)
(0.0284765 -0.00870095 2.73685e-18)
(0.0377218 -0.0276808 3.01585e-18)
(-0.00271392 -0.000413101 6.11419e-19)
(-0.00287584 -0.000284594 2.52983e-19)
(-0.0026206 -0.000233627 -2.55221e-19)
(-0.212198 0.17031 -3.39548e-18)
(-0.000563543 -0.000308264 -1.10356e-18)
(-0.000253132 0.000704652 -3.24813e-20)
(-0.000197211 0.000623079 -4.09087e-20)
(-0.000310879 0.00060974 1.23062e-19)
(0.000203517 0.000116114 -9.5167e-20)
(0.000230606 0.000149577 -2.70484e-20)
(0.000165851 0.000143036 -1.08198e-19)
(-0.0102501 -0.00818148 3.79187e-18)
(-0.0112403 -0.00842992 2.50378e-18)
(-0.010308 -0.00911323 9.20459e-19)
(0.0756942 -0.0738793 4.58717e-18)
(0.128477 -0.0731884 3.9718e-18)
(0.110563 -0.067832 -1.53337e-18)
(-0.00254048 -0.00293025 2.43159e-19)
(-0.00242086 -0.00273114 -8.3052e-19)
(-0.00269262 -0.00274492 5.42069e-18)
(0.000112218 -0.000404789 -2.38154e-19)
(-0.00565955 -0.000583318 1.16185e-19)
(-0.0391361 -0.180915 1.39566e-18)
(-0.0205706 -0.242961 3.26062e-18)
(-0.0225443 -0.196379 5.45796e-18)
(0.000128364 -0.000158276 9.27199e-20)
(0.000122414 -0.000225284 -4.39366e-20)
(0.00894313 -0.0444651 4.0504e-18)
(0.0124688 -0.0433196 3.96657e-18)
(0.000231579 8.15027e-05 1.53216e-19)
(0.000175081 8.18934e-05 2.04179e-20)
(-0.000409472 0.00011333 -1.66596e-19)
(-0.000378889 0.000125087 1.65865e-19)
(-0.000396662 0.00015326 -3.15159e-19)
(-0.000568068 0.0017249 2.41758e-19)
(-0.000429923 0.00147186 -1.0553e-19)
(-0.00280934 -0.000613886 -1.07946e-18)
(-0.0025466 -0.000554956 5.4233e-19)
(-0.000209736 -7.44437e-05 -7.78857e-20)
(-0.000218769 -7.51957e-05 7.34353e-19)
(-0.000218431 -8.24999e-05 3.06657e-19)
(0.0079369 -0.056454 -2.35799e-18)
(0.0140654 -0.0637369 2.08671e-18)
(0.0487575 -0.00255377 -1.3483e-19)
(0.0452594 -0.00101302 8.92715e-20)
(0.0502012 -0.0868064 -2.56986e-19)
(-0.00926257 -0.00816135 9.49464e-19)
(-0.0100348 -0.00743088 -4.98295e-19)
(-0.14658 0.0469668 1.55014e-18)
(-0.124119 0.0404177 9.27392e-19)
(-0.123976 0.0543182 -4.15513e-18)
(0.00315821 -0.000893081 5.2085e-19)
(0.00343249 -0.000583554 -1.81559e-19)
(0.00303099 -0.0004963 7.16064e-19)
(-0.0382209 -0.0610032 2.2106e-18)
(-0.0418205 -0.0673329 2.71747e-18)
(7.55094e-05 -9.32232e-06 1.45922e-19)
(7.26423e-05 -4.78e-06 5.09456e-19)
(-0.000879995 -0.000599836 2.79234e-18)
(-0.000951733 -0.000603863 2.68138e-18)
(-0.184291 0.216125 -8.59255e-19)
(-0.14585 0.215855 3.41948e-18)
(-0.105612 0.184607 2.1071e-19)
(0.054215 -0.0219863 -1.99543e-19)
(0.0500231 -0.0236839 1.32293e-18)
(-1.50297e-05 0.000145045 3.03015e-19)
(-3.85278e-05 0.000128732 2.88071e-19)
(-4.19925e-05 0.000146034 1.77393e-19)
(-0.000630057 -0.000248653 2.02232e-18)
(-0.000640295 -0.000284184 -3.98958e-19)
(-0.00148503 0.00313005 -9.1212e-19)
(-0.00111886 0.00346375 1.28232e-19)
(0.0588746 0.00547331 5.11132e-19)
(-0.00123961 -9.70624e-05 -4.40552e-19)
(-0.00115707 6.26367e-05 1.10713e-19)
(-0.00139272 1.6881e-05 -3.42015e-19)
(0.010906 -0.00964235 -1.3122e-19)
(0.0119487 -0.00840882 3.38042e-19)
(-0.00485629 -0.000932714 -2.15442e-18)
(-0.00485727 -0.000556419 -1.19569e-18)
(-0.00452185 -0.000799285 1.53714e-18)
(-0.0172798 -0.00699745 -3.25217e-19)
(-0.0157235 -0.0074268 -1.88228e-18)
(-0.0170614 -0.00838488 -4.71059e-20)
(-0.000166856 -0.0535953 -3.18508e-18)
(0.000650334 -0.0501685 -7.37561e-19)
(0.0309102 -0.0497753 -2.31267e-19)
(0.0333143 -0.0569811 3.81053e-19)
(-0.00190988 8.50362e-05 3.68579e-19)
(-0.00183515 -7.48235e-05 1.84393e-18)
(-0.160482 0.0469596 -4.35448e-18)
(-0.14755 0.0303541 -1.28117e-18)
(3.84034e-05 -1.3188e-05 1.15734e-19)
(3.96673e-05 -1.85947e-05 7.05569e-20)
(0.00355637 0.00227874 7.85881e-20)
(0.00347819 0.00277323 1.76973e-19)
(0.00307843 0.00243085 -7.45917e-19)
(-0.0578286 -0.109813 2.85448e-18)
(-0.0542817 -0.1625 6.00783e-20)
(-0.00137343 0.00275282 -4.01678e-20)
(-0.0018527 0.00280343 -2.2003e-19)
(0.0867052 -0.0148624 -9.95718e-19)
(0.0888735 -0.00972162 -1.28454e-18)
(0.0825584 -0.00373626 -1.02467e-20)
(-0.0524778 -0.00557007 -1.89708e-18)
(-0.0515998 -0.000714089 -1.76424e-18)
(-0.0577702 -0.00267667 8.12956e-19)
(-0.000499166 -0.000114477 5.1256e-20)
(-0.000511079 -0.000140867 -4.39987e-19)
(-0.000476895 -0.000130988 1.19126e-18)
(-0.00315364 -0.000332351 3.2262e-19)
(-0.000199958 -7.24141e-05 -2.81799e-19)
(-0.000202496 -6.50029e-05 8.92967e-19)
(0.00524436 -0.0192604 4.70829e-19)
(0.00849079 -0.0201549 -8.64861e-19)
(-0.193904 0.201499 5.59035e-19)
(0.00678005 -0.000448412 6.41914e-20)
(0.00599014 -0.000518626 4.77015e-20)
(7.51087e-05 0.00047905 5.49895e-19)
(4.45638e-05 0.000410916 -3.30457e-19)
(-8.72218e-06 0.000453178 -1.76125e-19)
(-0.0491502 -0.0084465 5.46937e-19)
(-0.0533611 -0.0101388 -2.16399e-18)
(-0.0109429 -0.0247167 1.70579e-18)
(-0.0125959 -0.0259611 2.52122e-18)
(-0.0126491 -0.0240391 -6.94626e-19)
(-0.000302259 0.00111279 5.46627e-20)
(-0.000124448 0.00126599 -6.26396e-21)
(-0.000204553 0.000819379 1.99442e-20)
(-5.87735e-05 0.000791983 1.82003e-19)
(-0.00239041 -0.00310787 3.65473e-19)
(-0.00269645 -0.00315777 1.53824e-18)
(6.42039e-05 -1.14337e-05 -1.40823e-19)
(6.95445e-05 -1.20013e-05 -1.92174e-19)
(6.51935e-05 -7.66351e-06 -2.55561e-19)
(-0.00114161 -0.0223049 3.35001e-18)
(-0.000324575 -0.0211234 4.19294e-18)
(-0.00186719 -0.0211977 8.55258e-19)
(0.0816548 -0.0195909 -7.1943e-19)
(0.0900868 -0.0303933 4.38778e-19)
(-0.000281316 -0.000172785 -2.50072e-19)
(-0.000264434 -0.000160754 9.50389e-19)
(-0.00028472 -0.000162727 -7.29542e-19)
(-0.000659887 -0.00114218 1.95819e-19)
(-0.000692984 -0.0013187 -8.12472e-20)
(-0.000838736 -0.00120752 4.2286e-19)
(0.0488977 -0.0140676 1.35345e-18)
(0.0502257 -0.0116786 -2.0343e-19)
(0.00486876 -0.000193409 7.59154e-19)
(0.00448146 -0.000713579 9.41236e-20)
(0.0051893 -0.000745179 -1.71717e-19)
(0.00968987 -0.00891065 -1.57463e-19)
(0.00987467 -0.0106514 -2.02808e-19)
(-0.00220792 0.000106976 -2.84106e-19)
(-0.00239016 0.000351431 -1.28456e-18)
(-0.00201845 0.000361341 3.76108e-21)
(-0.00103608 -0.000970086 -4.73381e-20)
(-0.0011089 -0.000846598 1.83681e-20)
(-0.001228 -0.000992562 5.32901e-20)
(-0.00765779 -0.133111 -1.17202e-18)
(0.00598389 -0.138481 -2.52123e-19)
(-0.000617219 -0.000992669 -6.25243e-20)
(-0.000723231 -0.000903731 1.48466e-19)
(-0.000586253 -0.000855462 -2.10904e-19)
(0.000461281 0.000450524 3.83292e-19)
(0.00037834 0.00038242 7.70995e-20)
(7.42608e-05 0.000549866 4.47049e-19)
(4.1393e-06 0.000510505 4.9377e-19)
(-0.00512986 0.00183769 -3.02551e-19)
(-0.00579471 0.00209204 7.83372e-20)
(0.000547926 0.000528516 -2.67085e-19)
(-8.87103e-05 1.53855e-05 2.93197e-19)
(-9.27589e-05 8.6925e-06 3.60614e-19)
(-0.000828291 0.00211049 -2.97763e-19)
(-0.000943433 0.00193318 4.79187e-19)
(-0.00102401 0.00215638 -5.95432e-19)
(-0.00831592 -0.00307925 1.35819e-18)
(-0.00767814 -0.00333736 3.30984e-18)
(-0.00783905 -0.00270962 8.63116e-19)
(-0.0192786 -0.029296 -9.51422e-19)
(-0.0168298 -0.0282584 -5.23352e-20)
(0.000869522 -0.0189211 -3.22257e-18)
(0.000308079 -0.020011 1.51838e-19)
(-0.000412911 -0.0190582 -9.00702e-19)
(-0.000930955 -0.000626841 1.94267e-19)
(-0.00086196 -0.000538212 3.08017e-19)
(-0.000979265 -0.000524411 3.20205e-19)
(-0.00215158 0.00850699 -5.62925e-20)
(-0.00136372 0.0082261 1.01269e-19)
(-0.00146314 0.00921918 -6.32804e-21)
(-0.000297897 -0.00163449 5.22416e-20)
(-0.000344069 -0.00145038 6.25835e-20)
(-0.000115297 -0.00148146 -1.79081e-19)
(-0.00891653 -0.00284179 -2.1009e-18)
(-0.00873122 -0.00357535 -1.6297e-18)
(0.00427643 -0.00614862 3.10204e-19)
(0.00504706 -0.00586721 3.25661e-20)
(0.00433995 -0.00524993 -3.20984e-19)
(-0.000933139 -0.000261299 4.11828e-19)
(-0.00109106 -0.000191085 -8.25003e-20)
(-0.0009081 -0.000123608 2.62827e-19)
(-0.0146126 -0.107381 9.82435e-19)
(-0.0219669 -0.102266 -1.29563e-18)
(-0.0193874 -0.115447 -3.87059e-19)
(-0.000495363 -0.00105601 -1.89752e-19)
(-0.0217108 -0.0304237 -9.28572e-19)
(-0.0212217 -0.0275474 -7.87211e-19)
(2.62554e-05 1.06269e-05 -1.4716e-19)
(3.10828e-05 1.51393e-05 -5.96715e-19)
(2.37832e-05 1.23525e-05 1.50204e-19)
(-0.0138546 0.000834501 -5.50451e-19)
(-0.0146369 0.00199341 -1.07154e-18)
(-0.000694635 0.00191809 2.65397e-20)
(-0.000706439 0.00217 -1.67132e-21)
(-0.000443545 0.00201607 -9.46584e-21)
(-0.000870856 0.00169636 -2.93025e-21)
(-0.000619124 0.00162237 7.58941e-20)
(-0.0189302 -0.00661064 -6.70769e-19)
(-0.017296 -0.00556891 1.00967e-18)
(-0.0919448 0.192079 -2.72024e-18)
(-0.167752 0.250132 -7.42999e-19)
(0.00380158 0.00188349 2.78544e-21)
(0.00392245 0.00138012 -8.93716e-20)
(0.00344567 0.00158226 -1.53292e-19)
(-0.000978447 -0.000392435 9.5394e-20)
(-0.000816637 -0.000319 2.63829e-19)
(4.48962e-05 0.000682095 8.50121e-19)
(-6.62523e-05 0.000709645 1.00062e-19)
(-2.72636e-05 0.000603566 7.00602e-19)
(-0.00874321 0.012944 -8.79988e-20)
(-0.00913123 0.0115362 -1.19243e-19)
(-0.00759744 0.0122369 3.5953e-19)
(-0.000521369 -0.000164611 -7.33715e-19)
(-0.000530542 -0.000190763 -5.13532e-19)
(-0.000494133 -0.00017983 3.10164e-20)
(-0.0308092 0.0682727 1.29214e-19)
(-0.0316307 0.053909 1.50841e-19)
(-0.0275054 0.0633086 1.58163e-19)
(-0.0307412 0.0816721 -5.61567e-19)
(-0.033832 0.0732312 2.88104e-19)
(6.14246e-06 0.000163452 -1.66838e-19)
(0.0517902 -0.000499891 -9.26634e-20)
(0.051716 -0.00475743 -4.25877e-20)
(-0.000207212 -2.41065e-05 -1.01971e-19)
(-0.00019901 -2.14265e-05 -1.03744e-20)
(-0.000206035 -2.85286e-05 -2.84832e-19)
(0.00203579 -0.0186665 -1.34176e-19)
(-0.00468952 0.00230147 6.51267e-19)
(-0.00457178 0.00159524 6.60893e-19)
(-0.000679332 0.00121599 -1.73299e-19)
(-0.000471088 0.00118504 -6.55183e-20)
(-0.000528763 0.00139751 -2.67433e-19)
(-1.33008e-05 -1.52918e-05 -5.2024e-19)
(-1.7565e-05 -6.89367e-06 9.06377e-19)
(-6.80176e-06 -1.3405e-05 3.42889e-21)
(-0.000148702 -2.59657e-05 5.10979e-19)
(-0.000139306 -1.93843e-05 -4.06712e-19)
(-0.000488359 -8.75521e-05 -3.60295e-19)
(-0.000518464 -9.85177e-05 -1.53233e-18)
(-0.000668156 0.0022973 -1.43777e-18)
(-0.000640487 0.00205993 1.16289e-19)
(-0.0122945 -0.000487967 -2.37282e-21)
(-0.0113486 -0.00087693 -1.06123e-18)
(-0.0116166 2.37786e-05 -3.87043e-20)
(-5.63468e-05 5.32345e-05 1.23871e-19)
(-4.60541e-05 4.78046e-05 2.47143e-19)
(-4.10423e-05 6.3594e-05 -2.16141e-20)
(-0.000616837 -0.000215602 1.21482e-18)
(-0.000666037 -0.000229408 -2.02939e-19)
(-0.000300552 -0.000185413 -2.01004e-19)
(-0.0294433 -0.133102 -1.18717e-18)
(-0.0301867 -0.11729 -1.3354e-18)
(0.00478955 0.000788233 2.3362e-20)
(0.00519299 0.00042059 -7.2579e-20)
(0.00460143 0.000271296 6.02368e-20)
(-2.32708e-05 1.05331e-05 7.72689e-19)
(1.45147e-05 2.0267e-05 8.58269e-20)
(3.17082e-05 1.31663e-05 -3.84341e-20)
(1.80554e-05 1.39382e-05 2.5093e-19)
(0.00450635 0.00362769 8.8318e-20)
(0.00514258 0.00419001 1.24268e-19)
(-0.00360072 0.000767206 1.50498e-18)
(-0.00371883 0.00105279 -1.11956e-18)
(-0.00339135 0.0010084 1.53241e-18)
(-0.0133406 -8.75224e-05 -4.26525e-19)
(-0.0129752 -0.00116984 1.47848e-19)
(-0.000244748 -1.20872e-05 2.11559e-19)
(-0.000248551 -1.42571e-05 4.07105e-19)
(-0.000244789 -1.68907e-05 -2.51228e-19)
(-0.165751 0.322465 -9.11152e-18)
(-0.153581 0.27306 6.67813e-18)
(-0.175029 0.315316 2.27548e-19)
(9.29938e-05 0.000557249 -9.87023e-20)
(0.0406889 -0.0110686 -4.31597e-18)
(0.0383865 0.000200472 8.00208e-19)
(0.044071 -0.00495305 9.43544e-19)
(-0.0286294 -0.0738652 -2.88612e-18)
(-0.0217786 -0.110769 -1.41621e-18)
(-0.0204806 -0.0799128 8.05178e-20)
(-4.84546e-05 -9.47495e-06 -1.38722e-18)
(-5.8482e-05 -1.49014e-05 -3.74477e-19)
(4.06204e-05 -1.341e-06 2.78186e-19)
(5.2235e-05 -5.22947e-07 -1.15854e-18)
(5.77223e-05 -5.389e-06 -6.12728e-19)
(-0.000581247 -0.000517194 5.39274e-19)
(-0.000482215 -0.000531771 1.38253e-23)
(-0.00056132 -0.000642313 4.68025e-19)
(-0.00825119 0.0144071 3.6883e-20)
(-0.0100051 0.0136495 1.40769e-19)
(-0.00944688 0.00435889 -4.75166e-19)
(-0.00972734 0.00361288 -1.8737e-18)
(-0.00885643 0.00388427 -7.27757e-19)
(-0.00422567 0.00265994 -2.33053e-19)
(-0.00376568 0.00235492 -2.27432e-19)
(-0.00375269 0.0029376 -1.13492e-18)
(0.0413251 -0.029806 -7.45558e-19)
(0.0378727 -0.0197541 -5.45489e-19)
(-0.000184496 -1.3498e-05 -2.56742e-19)
(-0.000181306 -1.09722e-05 -4.38947e-19)
(-0.000175626 -1.7922e-05 -4.63614e-20)
(-0.000676463 -0.000473692 -1.77064e-19)
(-0.000583675 -0.000385554 4.13222e-19)
(-0.00915066 0.00518677 7.45781e-19)
(-0.0101591 0.00498891 -9.5784e-20)
(0.000232974 0.0027917 3.39613e-19)
(-1.32012e-05 0.00289531 2.6157e-19)
(0.000281151 0.00309491 4.16351e-19)
(-0.000985817 0.0010946 -1.10706e-19)
(-0.000890068 0.00101662 4.59615e-19)
(-0.00102985 0.000963738 -4.47972e-19)
(0.00482697 -0.00188654 -3.93669e-20)
(0.0054232 -0.00139455 -7.04e-19)
(0.00227592 -0.0182764 -4.04654e-19)
(-0.00197655 -0.000320841 2.33747e-19)
(-0.00220614 -0.000394813 4.02703e-20)
(-0.00213583 -0.000146612 1.98733e-19)
(-0.00931228 0.0103161 1.43351e-19)
(-0.00828385 0.00972418 -1.79685e-19)
(-0.00947837 0.00909988 1.11061e-19)
(-0.00515189 -0.00107956 -1.90493e-18)
(-0.00477706 -0.00126411 -1.9971e-18)
(-0.00129047 -0.00011074 3.05152e-19)
(-0.00143502 -0.000144844 1.51025e-20)