/*--------------------------------*- C++ -*----------------------------------*\
| =========                 |                                                 |
| \\      /  F ield         | OpenFOAM: The Open Source CFD Toolbox           |
|  \\    /   O peration     | Version:  v2012                                 |
|   \\  /    A nd           | Website:  www.openfoam.com                      |
|    \\/     M anipulation  |                                                 |
\*---------------------------------------------------------------------------*/
FoamFile
{
    version     2.0;
    format      ascii;
    class       surfaceScalarField;
    location    "850";
    object      meshPhiCN_0;
}
// * * * * * * * * * * * * * * * * * * * * * * * * * * * * * * * * * * * * * //

dimensions      [0 3 -1 0 0 0 0];
oriented        oriented;


internalField   nonuniform List<scalar> 
14516
(
0.00084001
0.00250496
-0.00338814
2.57301e-06
8.30322e-05
-9.29398e-05
-0.00283376
0.00362442
-0.00120311
0.00150511
-0.000239973
-0.00453044
0.00313747
0.00136455
0.00401989
-0.000498937
-0.00350687
-0.000203554
7.81157e-06
0.000140111
0.000906255
-0.000694481
-0.00010109
-0.00276637
-0.000268445
0.00311572
-0.00188697
-0.00267489
-0.00281793
0.00349209
-0.000688685
-0.00336023
0.00024792
0.00310857
-0.00120691
0.000208591
5.86064e-05
0.000917715
-0.000931195
-0.000174691
-0.000121864
0.000852228
1.82018e-05
-0.000842083
0.00273899
-0.000886993
-0.00172296
0.000951501
0.0018018
-0.00423607
0.000424689
0.00378461
0.000956539
0.00031686
0.00367998
-0.00399404
-0.000451827
0.00385857
-0.00331617
-0.00183237
0.000623443
0.00121009
-1.87075e-06
1.87075e-06
-0.00256973
0.00035405
0.00222725
-0.000746057
-0.000214538
-0.000796652
-6.79054e-06
0.000821644
4.93048e-05
0.00156781
-0.00150934
0.00447944
-0.00149747
-0.00300837
-0.00287599
0.000222758
-0.00350309
0.00414796
-0.000668982
-0.000358834
-0.00148215
-0.00227289
0.000473612
0.0017218
1.70421e-05
2.38073e-05
-9.00985e-06
-0.00166238
0.00512132
-0.00346922
-0.00420046
0.000469873
0.00372375
-3.12266e-06
-0.000151459
0.00339464
-0.00375393
-0.00170761
0.00124762
0.000427896
0.000100724
-0.000427405
0.000508867
-0.00450731
0.000990959
-0.000577985
0.000117037
-0.00040289
0.000750049
-0.00014041
1.42137e-05
-0.000182919
0.000187918
-0.000255506
0.000156828
0.000210465
0.00281533
-9.19161e-05
0.000970036
-0.000869049
0.000485513
0.00322723
-0.00366374
0.000339399
0.00116687
0.00235397
0.00275274
-5.49473e-05
0.00288051
-0.00283026
-0.00403955
0.000964715
0.00312865
0.00414216
-0.00427783
0.00016707
-0.000408117
0.00254977
-0.00215778
-0.00387333
0.00395831
-0.000117505
0.00173086
-0.00182072
0.00283213
-0.000719956
-0.0021266
-0.00307916
-0.000107852
0.00312812
-0.00108537
-0.000514391
-7.74767e-06
-0.000151038
0.000241234
-0.00415202
0.000653191
0.00355364
-0.00319238
0.00365731
-0.000451043
-5.19542e-05
3.68066e-05
6.2476e-05
-0.00252548
-0.00134017
0.000273622
0.00210752
-0.00236731
-0.00400049
0.000802125
0.00343441
-0.00379556
0.000395315
-0.000456613
-0.00291406
0.000227722
-0.00304966
0.00253621
-0.00296123
-2.72521e-05
-3.34573e-13
3.16693e-05
-0.00257687
0.000514757
0.00230862
0.000259005
-0.000214565
-3.40473e-05
-0.00107687
0.00341024
6.73872e-05
-0.00320267
0.000273676
0.00218067
-0.00235124
-2.67465e-05
1.9978e-09
1.76652e-05
0.0018208
-0.000422861
-0.00129675
0.0023798
-0.000700387
-0.00157963
0.0017882
-0.00151001
0.00193001
-0.000438003
-0.00145638
-7.68525e-05
-4.7427e-07
7.43989e-05
1.43137e-05
0.00114899
-0.0011554
-0.0041473
-0.0003441
-7.68394e-05
0.000987349
-0.000917437
0.00172815
0.000781858
-5.6515e-06
0.00251615
-0.00239477
0.00371833
-0.00386684
0.000167374
-0.00195508
0.000445581
0.00150205
0.000156884
-0.000160792
0.000339898
0.00289784
-0.00324519
-0.00128471
0.00104899
0.000265183
-0.00182816
0.00146327
-0.00038128
0.00122012
-0.00119803
-0.00395254
8.46044e-05
-8.01399e-05
-5.65961e-06
-0.000373136
-0.000903046
-0.000141378
0.000643416
-0.000483804
0.000522894
-0.000647543
-0.00218915
0.000394697
0.00180458
-0.00153558
0.000320221
0.00121021
-0.00120316
-0.000330922
-4.34327e-05
-1.59457e-06
-0.00440648
0.000297645
-0.00441814
0.000620361
-6.66548e-05
1.59885e-06
0.000123346
-0.00335509
-0.000670872
0.000168584
0.000780662
-0.000919333
-1.08778e-07
-2.18684e-05
-0.00013939
-0.00355288
0.00372213
-0.00296335
0.00220768
0.000918502
-0.00453754
0.00357397
-0.00280062
0.0027412
0.00209113
-0.000326082
0.00196826
-0.00170885
0.00231369
-0.0034123
0.0003448
0.00161488
-0.001573
-0.000298377
-0.000666647
0.000862521
1.53914e-05
-3.44817e-06
-3.8278e-06
-0.00337227
0.0034517
-0.000107621
0.000140569
0.00389985
0.000180195
0.00333488
-0.00347786
0.00382491
-0.00350471
0.00264397
-0.000624912
-0.00203582
-0.00107699
0.00099313
0.000303859
0.0015996
0.00323989
-0.000793413
-0.00227713
-3.46892e-06
-2.45535e-05
3.23178e-05
0.00228467
0.00163328
0.00175906
0.000231828
0.00201064
-0.00217027
-0.0022205
-0.00058563
-0.000107127
0.00265878
-0.00245365
2.91364e-05
5.09535e-05
-0.000136924
0.000177095
-0.000324132
-0.00280319
-0.00028983
0.00030764
5.00454e-06
-2.05643e-05
-0.00333052
-0.00252239
0.000250155
0.00230454
5.31627e-06
3.58549e-07
2.25121e-05
0.000144075
-0.000623888
0.000532801
0.00100781
-3.89458e-05
-7.76919e-05
-0.00100171
0.00110859
-2.18255e-06
-4.29924e-05
3.38368e-05
-0.000575913
0.000778442
-0.00163915
0.000469303
0.00117549
-0.00257916
0.00291262
-0.0027646
-0.000636768
0.00338199
2.49346e-05
-2.37449e-05
-0.00360963
0.000816274
0.00139598
-0.00331897
-0.000438809
-0.00119601
1.23721e-05
8.86048e-06
2.52279e-05
-0.000246232
0.00022884
-0.000336082
-0.00213894
0.00015145
-0.000694236
-0.000193712
0.000226826
0.000838189
0.000226404
-0.00133485
0.00148102
-5.36332e-05
-0.000693431
0.00078312
0.000803935
-0.00487246
0.00406843
0.000159924
-5.75769e-05
-0.000120306
0.0043548
-0.000708026
0.000903066
0.00471223
-0.00431953
-0.000377893
-0.000828541
5.57681e-05
-0.000327126
0.0021122
-0.00172015
0.00331897
-0.00102371
-0.00239071
-0.0010469
0.00205646
-0.00103258
9.67557e-05
3.37667e-05
0.000834517
-0.00192742
0.000370647
0.00299052
-0.00329867
-0.00343187
0.00250473
7.13725e-06
-1.12581e-05
-1.41044e-06
-0.000525535
0.00259003
-0.00197889
-0.00474153
0.00219565
0.00256214
-0.00242966
0.00182755
0.000594535
0.00327989
-0.00301417
-0.000229388
0.000706171
-0.00228394
-0.00303927
-6.37448e-05
0.00304359
-0.00237028
-1.46593e-06
0.000625239
0.00218498
0.00182938
-0.00227396
8.24819e-05
-0.00340833
0.0032854
0.000732956
-0.0007514
0.00345673
-0.00302376
-0.00249086
4.02742e-05
0.00261744
-0.00323624
0.00377546
0.00350982
-0.0036214
-0.000518036
-0.00113649
-0.00357566
0.00490786
-0.00123533
-0.00369048
0.000175641
0.00163597
-0.00176796
0.00357664
-0.00222015
-1.92508e-05
-0.000260639
-0.00259015
0.000426134
0.00149905
0.00277268
-0.00428441
6.65534e-06
0.00390227
0.00252132
-0.00186332
-0.000514986
0.000185823
0.00253996
-4.73849e-05
-9.41033e-07
0.000167419
-2.92325e-05
-0.000752082
0.000831776
-0.00391198
-0.000423689
0.00380794
9.07572e-05
-0.00380538
-0.000212343
-0.00328186
0.00348878
0.000231456
-0.00338865
-0.000366519
0.00361983
0.00311623
0.00108377
0.00219365
0.00270744
-0.000238991
0.000272649
0.000253126
0.00173607
-0.00189045
0.000179178
-0.00326405
-5.16493e-05
2.82629e-06
-0.00357943
0.00336846
0.000191311
0.000222134
-0.00351762
0.00322621
0.00107161
0.00201457
-0.00296467
0.00320398
-8.17151e-06
-0.00226573
4.46892e-05
0.00111169
-0.00337711
0.00357724
-0.00406207
0.00151278
-0.00111441
-0.000371011
-0.00291731
0.00307844
-0.000302991
0.00291554
-0.00261433
7.82144e-07
3.38144e-06
-5.08032e-07
-3.47408e-06
0.000844863
0.00247985
-0.000129198
0.000246225
-0.000115067
0.00292452
-0.000556796
-0.002373
-0.00327621
-0.000306247
0.0026646
-0.00268275
-2.65976e-05
-0.00287691
0.00275833
6.55442e-05
-0.000122913
-0.00382776
-0.000462909
-0.00154299
0.00200044
-0.00411844
0.000304601
-5.59361e-05
0.000957983
-0.000861682
-1.49665e-05
-0.00212286
0.0020994
-0.00210966
-0.000174114
0.00269296
5.49555e-06
-0.00265402
0.00145028
-0.000983967
-8.20693e-07
-0.000550771
-0.0026042
0.00229967
0.00109014
6.33513e-05
-1.23716e-05
-0.000434702
-0.00267633
0.00314331
0.00445955
-0.000513432
-0.0039273
0.000245944
-0.0030506
-0.000418158
0.00264586
-0.00223279
0.00217031
-0.00248262
0.000216139
0.000180679
-0.0040185
0.00391033
0.00340251
-0.00285473
-0.000555258
0.00124312
0.00323642
0.000242145
0.00333533
-0.00358896
0.000130444
0.00074978
-0.000812898
-0.000726977
-0.000245908
0.000978977
-0.000117444
0.00293986
-0.00269715
-0.000101262
0.000132721
5.83867e-06
0.00106023
0.00365839
-2.65241e-05
3.39739e-05
-4.20416e-06
2.45774e-06
-1.75069e-05
0.00309679
-0.003314
-0.00141319
0.00417895
0.00367703
0.000801638
-0.00452117
0.000704463
-0.000521251
8.20422e-05
0.000609933
-0.00070187
0.00540916
-0.00148593
-0.00392208
0.000351593
0.00228435
-0.00250236
-0.000101459
-7.28864e-05
0.000184034
3.94942e-05
-0.000134037
0.0019233
-0.000162195
0.00370259
7.15991e-05
-0.00112847
0.00129136
0.00221947
-0.000208235
-0.00237659
1.90045e-06
-3.24341e-06
9.21028e-06
-7.61526e-05
0.000162642
-9.0953e-05
0.000591758
-0.000330339
-0.00136039
0.00253074
0.00293472
-0.00333722
0.00560204
-0.00235739
-0.00322862
4.74549e-06
0.000162526
-0.000188764
-0.0024808
0.00273614
0.00221446
0.00143674
-0.00182042
-0.000549937
0.00408475
-0.00361372
-0.00013535
1.23611e-05
-1.34087e-05
3.77772e-07
-0.00193102
0.00222806
-0.000244431
0.0037463
-0.00345615
0.00263928
0.00298558
-0.00165449
0.00203032
-6.47946e-05
0.00267182
0.00133585
-0.00405746
0.00108212
0.00111686
0.00137339
-0.00245329
-0.00185387
-0.00013397
0.00205449
-1.73551e-05
5.37412e-06
4.24367e-05
5.18356e-06
-4.78142e-05
-0.000219953
-0.000433273
0.000707565
0.00174962
0.00366202
0.00246252
0.00137893
-0.00381103
0.00231752
-0.00227284
-3.53681e-05
-0.000901158
0.00204567
2.95495e-05
-0.00120071
0.00150678
0.000462875
-0.000629287
-0.00123704
0.00373124
-0.00373751
0.000180837
0.00360982
0.0038415
-0.00305803
-0.000734316
-0.001672
-0.000290001
-0.0010253
-0.00232514
0.00216011
0.000217768
0.00494273
-0.00420412
-0.000718136
0.00428463
-0.000404032
-0.00207737
0.00199478
0.000161661
0.000185272
0.00515259
-0.00230504
-0.00284203
6.00681e-06
-0.000215198
-2.77442e-05
-1.76789e-05
-0.000956662
-0.0014822
-0.000380756
0.00392669
-0.00348831
0.00299058
-0.00315582
-0.000760968
0.00303646
0.000611763
-0.000689871
9.11169e-05
-0.00283925
0.00250322
-0.00372537
-0.00191217
-0.000214033
-0.00369119
-0.000328426
-0.000474253
-0.00169935
0.00216181
0.00023527
-8.13684e-05
-1.57386e-05
-0.000346406
0.00041839
-0.00181507
-0.000795284
0.000103069
0.000105597
-0.000189878
0.00184653
-0.000182305
0.00441175
-0.0027346
-0.0017163
-0.000785511
0.00275816
-0.00191991
-0.000121515
-0.00158232
0.00159876
-0.00206823
0.000794874
-0.000749814
1.02039e-05
-0.00344182
0.0040751
-0.000533201
0.000385974
0.00316189
0.00354723
-0.000116887
-0.00340362
-0.00268554
0.00344316
-0.000715757
-0.00374672
0.00376379
3.54585e-05
0.00199586
0.00240426
-0.000494593
-0.00184064
-0.000935873
-0.0032858
0.00425988
-0.0044676
0.000234024
1.19219e-06
0.00410384
-0.00177758
-0.00235472
-0.000305723
0.00282618
0.00265336
-0.00204611
0.00191141
0.00215924
-0.00399191
0.000638271
0.00166307
-0.00228546
0.000611007
-0.00151352
0.00370472
-0.000193551
0.000254694
0.00028895
-0.00101562
-0.00191634
0.000274823
-0.000211134
8.27956e-05
0.000143609
-0.00192415
-0.00384465
0.000253087
0.00241796
0.00273294
-0.00319616
0.000568716
0.000745124
0.00216923
-0.0027008
0.00316196
-0.000131306
0.00276932
-0.00259111
0.00180088
0.000108188
-0.00172298
0.00183832
0.00350882
-0.000459928
-0.00304402
-0.000134311
-0.00344593
0.00369275
0.00397263
-0.000702431
-0.00317326
-0.000165349
-0.00305191
0.000217927
-0.00144161
-0.000446579
0.00409315
-0.00356365
6.1289e-05
3.76051e-05
-8.40562e-05
-0.000250929
-2.01921e-05
0.000805459
0.00310849
0.000468705
-0.00382119
0.00098899
0.00140362
-0.00204909
0.00334927
-0.0012268
-0.000167107
-0.00237929
-3.89041e-05
-0.0011032
0.00113795
-0.00382175
-0.00280116
0.00249805
0.000122927
-9.79342e-05
-9.07715e-06
5.29971e-06
0.000177661
-0.000144267
-0.00234035
0.000515429
0.00310991
-0.00326336
0.000151326
0.00107979
-0.00112272
-0.000920252
0.00090363
0.00035956
-0.00255392
0.00221359
0.00202884
0.0016505
-0.00369174
-0.000612453
0.000685209
0.00405961
-0.00317933
0.00266117
1.63125e-05
0.0039619
6.81817e-05
-0.000693526
-0.00341457
-0.000176284
0.00356609
0.00144038
-0.00208703
0.000946744
0.00257821
0.00369176
0.00076802
0.00132225
-0.00070082
-0.000146247
-0.00164196
0.00180686
0.00334608
0.0018939
-0.00202172
-0.000336121
-0.00156919
-0.000725638
0.00101757
-0.00106621
0.00350073
-0.00408126
0.00056642
-0.000977272
0.00126842
0.00127429
0.00261956
0.00239304
0.00354471
-0.00313697
-0.000285618
0.00334358
-0.00310934
0.00342441
-0.000734468
6.15854e-05
-0.000954595
0.00316056
0.000225772
-0.000455086
0.000230602
0.00435434
-0.00301388
0.000702157
6.45834e-05
-0.000747308
0.000769172
-0.00157898
0.000801092
4.43027e-05
-0.000762298
0.00154131
0.00160119
-0.0018646
-0.000192539
0.00332984
-0.00308819
-1.54421e-05
-0.000200476
0.00023937
5.00214e-05
-7.83245e-05
1.75675e-05
0.00106851
-0.00303969
0.00307365
-0.00306216
-0.00146354
0.00168141
-0.00302592
0.00270142
-6.62906e-05
0.00199355
0.00137342
0.00356311
0.00463901
-0.00261955
0.00290629
0.00124401
-0.00314054
0.000328033
0.00279289
0.00339872
-0.00308929
0.004615
-0.00299968
0.00153782
0.00141536
-0.00254278
0.00444875
-0.00189793
0.00285791
-0.00380091
0.000138604
-0.00358438
-1.61153e-07
0.00157074
-0.00184185
0.000260149
-0.000925206
0.00125563
-0.00201552
0.00177373
0.000191581
0.00299414
-0.00225833
0.00363332
-0.000194873
-0.00134895
0.00179736
-0.00346878
0.00350749
0.00161372
-0.00130043
-0.000109185
1.83498e-05
-8.26939e-06
-0.00359406
0.00352407
0.00389324
-0.00292514
0.00317622
-0.00304183
0.00117815
0.000413611
0.00534398
-0.00359544
2.54048e-07
-1.40143e-05
9.5466e-05
-3.73324e-05
9.36425e-06
-7.24825e-05
8.57144e-05
-0.00175256
-0.00443195
0.00191177
0.00195364
-0.000195021
-0.00187922
-6.55415e-05
-0.000675732
0.00073233
0.000147932
-3.98044e-06
-0.00033775
0.0031789
-0.00282914
-0.0010006
0.000355442
-5.72654e-06
-1.17352e-05
-0.0013872
-0.00172099
0.00185217
-0.00192115
-0.00345766
-0.000359227
0.00324234
0.00297105
0.000651262
0.00325689
-8.82175e-05
0.00018326
1.97597e-05
-8.44056e-05
0.00364142
0.000556362
0.00301381
0.0021861
0.00220747
-2.32761e-06
2.37742e-05
-2.89898e-05
-0.00022195
0.000490334
9.2324e-05
0.00187499
-0.000214648
0.00231389
0.00228762
-0.000167614
-4.29924e-05
0.000244988
0.00267656
-0.000221738
4.48889e-05
0.000184835
0.00295193
-0.00523858
0.00275684
0.00248833
0.000262352
-0.000996937
0.000759218
0.00387598
-0.00450715
0.00154778
-0.00186902
-0.00369972
0.00017509
0.00212399
-6.11167e-06
-0.00324951
0.00325839
-9.55884e-05
-0.00242153
0.0023693
0.00260749
0.000306712
-0.00333844
-6.16988e-05
0.00363131
-0.00304272
-0.00059882
0.00201753
-0.00180172
0.00345657
-0.000671633
0.000957356
-0.00239302
-0.00372119
0.000274668
-0.00070559
-0.000136308
0.000884646
-0.00199607
-5.81915e-05
0.00212299
0.00212922
-0.00197707
-0.00189327
0.000783217
0.00112619
-0.000829656
0.000155095
-0.0024507
0.000761068
0.00184909
-0.000411423
-0.00151285
-1.90533e-05
0.00208311
-0.00217772
-0.00306546
0.000677757
-0.00190607
2.48034e-07
-0.00221288
0.0020924
0.000157884
0.00321619
-0.00326582
0.000146911
1.20325e-06
1.00383e-05
-0.00134906
-0.000886157
0.00354184
0.000307557
-0.00384545
0.00221126
0.000421265
-5.60674e-05
0.000650043
-0.00184444
0.00191258
-4.68523e-05
-0.000154347
0.00325753
-0.00405981
0.0040784
0.000125763
0.000130765
0.000851167
-0.000990291
-0.000715826
0.00496805
2.48329e-05
0.00178507
0.00299582
0.00249392
0.00232644
-0.00212201
-3.71579e-06
1.24996e-05
-0.00458667
0.00194511
-0.00428158
0.00302045
0.00023168
-0.00321898
-0.000335034
8.68638e-05
0.00106097
-0.00186156
-0.000246179
2.2492e-05
0.000211236
0.00231827
-0.000649491
-0.000395884
0.00331335
-0.000149986
0.00196609
-0.000480975
-0.00278945
0.00326615
0.00155144
0.00207258
-0.00315082
0.00314746
0.00372251
-0.00361692
-0.000374835
5.74646e-05
0.00298335
-0.00268922
-0.000299476
-0.00197582
0.000163864
0.00107308
-5.22654e-05
-0.000993606
0.00351271
-0.00314914
-0.000345193
-0.00297387
-0.000245983
0.00325836
-9.4846e-05
0.00075177
-0.000629949
0.000803759
-0.000946701
0.000157017
4.27591e-06
-7.2035e-05
0.000220863
-0.000223017
0.0023295
-0.000418851
-0.00192547
7.97034e-05
-0.000783765
0.000715295
-0.000215547
0.000254497
8.14818e-06
0.00293915
-0.0028506
-5.86669e-05
0.00251179
0.00184022
-0.00427998
0.00278517
0.00230505
-0.00160982
0.00294925
-3.97761e-05
-0.00275999
-0.00365157
-0.000237336
-0.00365419
0.000199986
-0.00323492
0.00363502
-0.00121956
0.000719059
0.000527198
0.00183886
-0.000268588
-0.0043845
0.00268063
0.00169887
-0.000873523
-3.50892e-05
8.50557e-05
0.00303346
0.00231749
-0.0023096
0.00268612
-0.00346782
0.00347687
0.000502295
-0.00393959
0.00267788
-0.00276431
-0.0020618
0.00402086
0.00339661
-0.00248762
0.00410587
-0.00152774
0.00074956
-0.000835754
7.64435e-05
0.00192503
-0.0035931
-0.000355954
0.00484182
-0.00357808
-0.00358562
-8.75757e-05
0.00246608
0.00169073
-0.00258728
0.000356594
0.00221851
0.00028495
-0.00272574
0.00251029
0.0040135
-0.000521985
-0.00290709
0.00344773
-0.000534369
-1.57702e-05
-2.27908e-05
-2.48384e-05
0.00310288
4.83385e-06
0.00103484
-0.000918397
0.00188584
0.000173778
-0.00212034
-0.000238588
0.00201496
-0.00237365
0.000788063
0.000551826
-0.00131778
5.70924e-06
-5.70924e-06
-0.000175995
0.0014762
-0.000686608
0.000287775
0.000911964
-0.00117517
-0.00418677
-4.6663e-05
0.00430558
-0.000302424
4.68694e-05
0.000282759
0.0025021
-0.00223206
-0.000132451
0.000148557
-6.78941e-05
0.00292496
0.000167677
-0.00430033
0.00163497
0.00180792
0.000501861
0.00246864
3.58258e-05
-1.33849e-05
-0.00225222
-0.000290478
0.00264717
0.00329615
-0.00319596
0.00065004
-0.000593956
-6.30141e-05
0.000598073
7.01084e-05
-0.00065805
-9.43808e-07
-0.000199451
-7.13436e-05
0.000673362
-0.00194529
0.000135783
-0.00196171
0.00230806
-0.000694291
0.000783606
0.00310975
-0.00335726
0.000228504
-2.16409e-05
6.08782e-05
-0.000450127
-0.000176139
0.00292513
-0.00279379
-0.000111507
0.000260807
-0.00321126
0.00116889
-0.000193048
-0.000820535
0.000687854
-0.000629938
-0.00306629
0.00236925
-9.63866e-06
9.39372e-06
-0.00373145
0.00305417
0.000682536
0.000630318
0.00168519
-0.0016875
0.00204899
0.000415683
-0.000217081
-0.000222025
5.42263e-05
-2.40964e-05
0.00113664
-0.00186513
-0.000629419
0.000750208
0.000696657
0.00228532
-0.00301036
-0.000172433
-0.00181498
0.00165554
0.000458751
-0.00211916
-0.003119
-0.000592737
-0.00208624
-0.000733016
0.00285703
0.00169519
-0.00190683
0.000214093
-0.000388332
0.00154071
-0.00116157
0.000767417
-7.4548e-05
0.000123342
1.17707e-06
0.00312124
-0.00314481
0.00297877
0.000157231
4.94878e-05
0.000138392
0.00198333
0.000887542
-0.00292469
0.00349029
-0.00172971
0.00205012
0.00010686
-0.00168395
0.00161627
-0.00112685
9.08848e-05
0.0010616
0.00303825
-0.00281104
-0.00245725
0.000281044
0.005208
-0.00225321
-0.00291801
-0.00386195
0.000291041
-0.00227341
-0.000744424
0.00013845
-0.00116473
5.99977e-05
0.00244303
-0.00253312
8.93007e-05
-0.000150085
-0.00169779
-0.000427928
-0.00238195
-0.00183797
0.00199109
-0.000162899
0.00179395
-0.00149919
-0.000830956
0.000957231
0.000912697
-0.00131069
0.001803
0.000137527
-0.00191358
0.00010384
-0.000942417
-0.00168326
0.00180557
-0.000146204
-7.40117e-05
0.000911113
-0.000834035
0.000530148
0.00107032
-0.00153921
-0.00341985
0.00364473
-0.00020268
-0.0012343
0.00260518
0.000908965
0.000178671
0.000119796
0.000969909
-0.000955666
7.63508e-06
1.52117e-05
2.56808e-05
-0.000355781
0.00171046
-0.00126538
-6.3764e-05
-0.000702097
0.000233759
0.000763659
-0.000680262
0.00174989
-0.000193518
-0.00155214
-0.00280495
1.01077e-05
-0.00124941
0.000130004
0.00111942
-2.79953e-05
0.00333806
2.04697e-05
-0.00316328
-7.65262e-05
0.0019165
-0.00185557
7.16816e-05
-0.00350906
-0.00327341
0.00023077
0.000273945
-0.00367468
7.53983e-05
0.00202144
-0.00210747
0.0007189
2.45713e-07
-6.49021e-06
0.000131861
-0.00113605
0.00102346
0.00392248
0.000280336
-0.0041538
0.000689974
-0.0029709
-0.000107673
-0.000218536
0.000414659
-0.000940648
0.000117454
0.000835951
0.00111285
-0.000846853
-0.000236749
0.000806004
0.000187776
0.00114969
-0.000999958
-0.000892704
0.0014791
5.42598e-05
-0.00229955
1.18589e-05
-0.00100318
0.00290356
7.07882e-05
0.00162206
-0.00342013
-0.000286792
0.00359912
-0.00336947
0.00345395
-0.00379641
-7.35249e-05
0.000547274
-0.000467911
0.000178522
0.000961302
0.000612895
-0.00499054
0.00337538
-1.50329e-06
-2.04297e-05
0.00470184
-0.00213907
-0.0024419
-0.000125274
0.00095484
8.43521e-05
0.00095354
4.15093e-05
-0.00100505
-0.000228881
-0.00140736
0.00154865
-0.000203361
-0.00267487
0.00292664
-0.00415243
0.00375558
0.000405615
0.00030947
-0.000187404
-0.000578353
-0.000229256
0.00092075
0.00215321
-0.000536835
-0.0033058
-0.000111839
0.000905769
-0.000798948
8.43921e-05
0.000588117
3.40817e-06
0.00010487
3.12933e-05
0.00319898
-0.0029129
0.00120005
-0.000260503
0.00144714
-0.00296327
0.00149414
0.000241239
0.00110587
-0.000295303
-0.000776508
-0.000158538
-0.00148309
0.00148535
8.02415e-05
-0.00307021
-0.00321991
-0.000377011
0.00361656
0.00298463
-0.00324124
0.000279493
0.00279104
0.0031151
-0.00226745
-0.000524857
0.00218542
-0.00205477
0.0020112
-0.000311875
0.00139205
-0.000234396
-0.00115579
0.00182367
-0.00191513
-0.000629529
0.000162232
0.00205467
0.000224731
-0.00223342
0.0036373
-0.002096
-0.00148369
0.000558055
0.000480516
-0.00102269
0.0039764
-0.00420507
0.00026387
-0.000168677
-0.00173543
0.00192039
-9.24298e-05
-0.00190468
0.00212845
-5.55586e-05
0.000444128
-0.000378617
0.000922144
8.13172e-05
-0.00100971
-0.000162873
-0.001762
0.00190423
0.000662429
-0.00189468
0.000209301
0.00364982
-0.00374155
0.00024927
0.00345008
0.00201813
-0.000692162
-0.00129697
-0.000966137
0.00353365
0.00269166
0.00254864
0.000797001
-0.00176226
0.000150807
-5.76948e-05
-1.1543e-05
-0.00209255
0.00215733
-0.00137991
2.3028e-05
0.00254175
-0.000106334
-0.00292118
-2.89511e-05
-0.000246507
5.21706e-05
-0.000216559
0.000367646
-0.000212541
-2.32996e-05
0.00291667
1.86469e-05
-0.00128409
0.001317
-0.0043609
0.00381429
0.000635403
-0.000117406
4.18203e-05
3.7875e-07
-9.85596e-06
-0.000762577
0.000326067
-0.00393296
0.00356266
-2.55673e-05
-0.000184366
0.00026187
0.000151835
0.00168484
-0.00020539
-4.19311e-05
0.00110871
-0.00011122
0.00104119
-0.000906949
0.000641
-0.00047867
-5.79025e-05
0.000218863
-0.00372506
0.00107092
0.000334339
0.000946806
-0.000847351
-5.59009e-05
0.00017051
0.000750169
-0.00210858
4.8086e-06
-0.000188315
0.00340485
-0.00315923
-0.00359534
-0.000126668
-0.00021805
5.17328e-06
-8.73856e-06
0.000127735
-0.000102331
-0.000715031
0.00097806
-0.00106661
0.00218309
-0.000105448
-0.000143248
-0.00258617
0.00271582
-0.000286063
-0.00278584
0.00307588
-0.00381436
0.00414461
0.000433671
-0.00361932
-2.99946e-05
-0.000219337
6.27759e-05
-0.000783275
0.000740621
0.000954679
0.000135692
0.0010958
-0.00111889
-0.00356911
0.00385115
0.000371337
-0.00310763
0.0027327
-0.00441664
0.00324807
0.00126296
-0.000122958
0.000978404
-0.000838461
-0.000283233
0.00314848
-0.00282469
-0.00173903
0.000279483
0.00142738
0.000165155
-0.000613589
0.00309434
0.000449546
0.000937081
-0.00294953
0.000200148
-9.80353e-05
4.62286e-06
-0.00399682
0.00155217
0.00167243
-0.00175519
0.00169666
1.15609e-05
0.00229009
-0.00256841
0.000260196
-0.000225411
0.000604695
-0.000525397
0.000153369
-0.00011385
-0.000864608
0.00096602
0.00315723
0.00411179
-0.0034042
0.00204565
-0.000191894
0.000231365
-0.000711576
0.000643675
-0.000104083
0.000934835
-0.00435673
0.00419974
0.000158318
0.000111917
0.000310691
0.000342944
-0.000107401
0.000942153
-0.000841926
-0.000979425
0.000807916
0.000189216
0.000736711
-0.000654924
0.000252661
0.000698949
7.94604e-05
-0.00375061
0.000114717
0.000872222
0.000890346
-0.000765729
0.000362023
-0.00150043
0.00122862
-0.00193307
0.00214193
-0.000239136
0.00285813
-0.00015411
0.001674
-0.00186762
0.000212754
0.00226638
-0.0014844
0.000167689
7.73644e-05
-0.00343314
-0.000322242
0.000219446
0.000112342
-0.00132365
0.00173106
-0.00308462
0.00147435
-0.000212474
0.000233795
0.00127734
0.000754632
0.000112776
-0.00222248
0.00210453
-0.00196373
0.00163497
0.000392115
0.000143084
0.0017026
-5.68826e-05
0.000488021
-0.000428077
0.00408578
-0.00366378
-0.000451966
0.00370856
0.00238052
-0.000164407
0.00186758
-0.00167617
0.00210552
-0.000253408
0.00358005
-0.00215659
0.000501062
-0.000555225
-6.31608e-05
-0.000635967
-0.000358918
0.00325035
-0.00292931
-0.000178914
-0.0013678
0.00154151
0.000207435
-0.00348165
-0.000172051
0.000659178
-0.00056265
-7.616e-05
-0.000948926
0.000852754
0.00011199
-0.00109977
-0.00329735
-5.46221e-05
0.000424376
-0.000361836
3.47408e-06
-4.03233e-07
-4.01686e-06
-8.6181e-05
-0.000662865
0.000762385
-0.00151273
0.00189778
0.000945695
-0.00418723
-0.00313563
0.00274054
0.00194703
-0.000259927
0.00289966
0.000860646
0.00169714
0.00109606
-0.00273174
0.00392182
0.000505439
-0.00440902
0.00323134
0.00157058
0.00416648
-0.0034683
-0.000679748
-0.00292337
0.00328696
-0.00208993
0.00212665
-0.00234173
-0.000177867
-0.00413647
0.00340239
0.00335921
-0.000265243
0.000242917
0.00201035
0.00170077
6.74803e-05
-0.0015562
0.0002389
-0.000150532
0.00109613
-0.000959718
1.48333e-05
-4.03397e-07
-0.00237832
-0.00032263
0.00269401
1.30596e-06
0.0027047
-0.00266334
0.0033574
0.000108712
-2.20764e-05
0.000393053
-0.0032868
0.000562524
0.000432775
-0.000972017
-0.000179748
-0.00175799
0.00187066
-5.85876e-05
0.0019342
-0.000959581
0.00084624
0.00366903
-0.00358192
-4.05215e-05
0.000757443
-0.00212891
-0.000210634
-0.00256488
0.00240919
-0.000123884
-0.00353429
0.00372997
-0.00252534
0.0024436
0.00182846
0.000195802
-0.00193386
-0.0026173
0.000238476
0.00425749
-0.000246351
0.00382573
-0.00360131
8.30185e-05
0.00123281
-0.00129347
0.00121735
-0.00134852
0.00132594
0.000684955
0.00359855
-0.00334094
-0.000226823
-0.00298798
-0.00021905
0.00175126
-0.00188964
0.000203425
-5.51893e-05
0.00292072
-0.000936743
0.000865267
0.00254565
-0.00197005
0.00224094
0.000821122
0.00195434
-0.00211387
0.00021021
0.000476249
0.000131089
-0.00255034
0.00265886
0.000163721
-0.00226508
0.000574243
-0.000587814
3.47761e-05
0.000218351
-0.00154381
-0.000307486
-7.81986e-05
-1.03863e-06
0.000202341
-0.00300605
-0.000183992
-8.78764e-05
0.000268719
-0.00191044
6.50253e-05
0.000228993
0.00213328
0.00155537
-0.00370004
-0.000403753
-0.00369821
0.00408581
0.00102646
-0.000117848
-5.80988e-07
-1.35568e-05
1.7407e-05
0.00213674
-0.00190663
-0.00116364
0.000541753
0.000659987
-0.00282051
4.00413e-05
0.00229185
-0.00218403
-0.002276
0.00217108
0.000141597
-0.0014252
-0.000125427
-0.00396074
0.000257232
0.00053776
0.00346839
0.000280294
-0.00381081
0.00308267
-0.000324831
-0.00275663
-0.00132591
-0.00303209
-0.00326821
-0.000218869
0.00293712
-0.00247456
0.0004589
0.00205433
-0.0034196
0.00310687
0.000324928
-2.52461e-05
9.2786e-06
-2.13329e-05
-0.00412289
0.00418463
0.000290309
-0.00307974
0.000231071
-0.00222012
7.85832e-05
0.0020221
-0.000125216
0.00356295
-0.00344992
-0.000610306
-7.55545e-05
-0.00350137
-0.000194159
0.00373275
-0.00128906
-0.000171862
0.00156577
-0.00439901
0.000187127
0.00430998
0.000131876
0.00103135
0.000606083
0.00090236
-0.00254904
0.00112184
0.00275785
-0.00291229
0.000825754
0.00195651
-0.00206882
0.000120514
0.0019948
-0.00188008
-0.0036663
0.0036169
-0.000814816
0.0016937
-5.85446e-05
0.000114023
0.00457589
-0.00245328
0.00287419
-0.00057425
-0.00224221
0.000442154
-0.00271108
0.000181336
-0.00228361
0.00231302
0.000103186
-3.68928e-05
-0.00216175
0.0021657
0.000211292
-0.00350271
0.000575447
-0.0029234
0.00318843
0.00191098
-0.00251292
0.00230375
0.000229276
-0.000276851
-0.00297693
0.00332134
-0.000147843
-0.000237188
4.24051e-05
0.00182474
-0.00179794
-0.00258681
0.00321815
-0.00272953
-0.000114748
-0.00339485
0.0035073
0.000667674
-0.000730255
0.000108185
0.00213592
-0.000190231
-0.00226155
0.000214109
-0.00235285
0.0022841
-0.00336402
0.000137775
-0.00320809
0.00301477
-0.000116901
0.000837049
-0.00327512
0.00351497
-0.00109754
0.00115194
2.3786e-05
-0.00350969
0.000154992
0.00212718
-0.000116535
0.000229032
-0.00386622
0.0027481
-0.000990139
-0.000122262
0.000122303
-0.00184476
7.25857e-05
-0.00312343
0.00018225
-0.00361274
0.00400669
5.96375e-05
-0.000271632
0.000221712
-0.00176697
0.00173088
0.000127756
0.000693889
-0.00230272
0.000305679
0.00183378
-0.00213223
-0.000215997
-0.00395714
0.000235779
-0.00256263
-0.00176901
-0.000100197
-0.00216692
0.000150016
-0.000336983
-0.00224091
0.000189414
-0.00338081
4.94756e-05
-0.0025065
0.00233977
-0.00218439
-0.00401453
0.00423409
0.00046642
-0.000257024
0.000304395
-0.00375564
-0.00109495
0.000926884
-0.000101937
-0.0023933
0.00248312
0.00211384
-0.000103679
0.000482623
-4.06515e-05
-0.000427175
0.00201744
0.000160028
0.000350303
-0.00394652
1.50227e-06
-0.000198868
-0.00156795
0.000918247
0.00242087
-0.00397361
0.000114831
0.00395
0.000199471
-0.00362705
0.00137294
0.000171758
-0.0015271
-0.000528955
0.00372313
0.0044367
-0.000507721
0.00240758
-0.00177695
0.000179416
0.00162494
0.000393016
-0.00325685
0.00285524
-0.000164295
0.00154703
0.000858554
-0.000962294
0.000108948
-4.28719e-05
0.000478112
-0.000423354
0.0029495
4.24746e-05
0.000463675
-0.000475893
-4.09894e-05
0.000495603
-0.000432388
0.00230628
-0.00241994
0.00013053
-0.00339526
0.00362802
-0.000251404
0.00366566
0.000497211
-0.000425248
-0.000213575
-0.00284076
0.00308422
-8.46747e-05
0.000121812
3.55236e-06
0.00175933
0.00190362
-0.001321
0.00177048
6.27994e-05
0.00406409
0.00202129
-0.00182854
-0.00011659
0.000478706
0.000128625
-0.00273398
0.0026647
-0.000162647
0.00295384
0.000377735
-0.00331132
0.00288996
0.000168925
-0.00296166
0.00171021
-0.000519719
-0.000240747
-0.00172065
0.00213106
-0.00292437
0.000328433