/*--------------------------------*- C++ -*----------------------------------*\
| =========                 |                                                 |
| \\      /  F ield         | OpenFOAM: The Open Source CFD Toolbox           |
|  \\    /   O peration     | Version:  v2012                                 |
|   \\  /    A nd           | Website:  www.openfoam.com                      |
|    \\/     M anipulation  |                                                 |
\*---------------------------------------------------------------------------*/
FoamFile
{
    version     2.0;
    format      ascii;
    class       surfaceScalarField;
    location    "500";
    object      meshPhi;
}
// * * * * * * * * * * * * * * * * * * * * * * * * * * * * * * * * * * * * * //

dimensions      [0 3 -1 0 0 0 0];
oriented        oriented;


internalField   nonuniform List<scalar> 
14885
(
-0.000238791
-0.00067978
0.000930583
-0.0064473
0.00345792
0.00298198
-0.000548025
0.00523596
-0.00467317
-0.00246
0.00354852
-0.000855567
8.96075e-05
-0.000760231
0.000841382
0.00543756
-0.00118131
-0.00425382
0.00106186
0.00412637
-0.00519192
-0.00149525
0.00176597
-0.0002693
-0.000974534
0.000667041
0.000345508
-0.00645301
0.00254432
0.00391854
0.000309166
0.00133208
-0.00162526
-0.00313198
-0.00332201
-0.000833582
0.00537441
-0.00452985
0.00091285
-0.00223156
0.00136185
-0.00644857
0.0020199
0.00451645
0.00224121
-0.00128316
-0.00417679
0.00385842
0.000324395
-0.00125488
0.00157975
-0.00592312
0.00125308
0.00469541
-0.00738512
0.00199264
0.00543571
-0.00518269
0.00436026
0.000711245
-0.000938237
-0.00317888
0.000933928
0.000267177
-0.00265384
0.00238729
0.00470809
-0.00102769
-0.00352391
-3.29376e-05
8.16591e-06
3.8581e-05
-0.00559952
-0.000844431
-0.000568791
0.000610368
-5.08679e-06
0.000751785
0.00469116
-0.000706378
-0.00159428
0.00229922
0.000556019
-0.000230441
-0.00018534
-0.00495352
0.000795159
0.00416513
-0.000890911
0.000255567
0.000667777
-0.000284478
-0.000579018
-0.00172914
0.000236677
-0.00173156
0.0015512
0.000183483
-0.00100015
0.000227716
0.00111541
0.000932291
-0.000100822
-0.000775626
0.000431289
0.000249773
5.96527e-05
-6.09315e-05
2.43201e-06
0.0023295
-0.00303797
-0.000684803
0.00447189
-0.00536703
0.000897255
0.00685511
-0.00615941
-0.000699629
0.00389176
-0.000568537
-0.00314973
0.00140036
0.00342319
0.000275882
1.81272e-05
-0.000273732
-0.00563142
-0.000705559
-0.000577047
0.00480433
-0.00422308
-0.00527868
0.00554394
-0.000267842
0.00490655
-0.000433263
6.32494e-05
-0.00169295
0.0018349
-0.00342246
-0.000632648
-0.00526248
0.00595502
-0.0055565
-0.000406118
0.00489701
-0.00455236
-0.000352012
-0.000741788
-0.00442748
-0.00208521
0.000676711
0.00141428
-0.00620819
0.00549178
0.00079253
2.61253e-05
-2.35132e-05
-1.04411e-06
-0.0053898
0.00481742
-0.00607969
0.00563
0.000440827
-0.00478804
-0.000576649
-0.00137581
0.00160314
-0.000223825
-0.00333909
0.000480235
0.00288345
-0.00584541
0.0016832
0.00424178
-0.00695147
0.00238916
0.00460223
-0.000819825
0.00103029
-0.000203239
-7.74185e-05
-0.000161635
0.000254035
-0.000965579
0.0001528
-0.00479109
0.00496728
-0.000176336
0.000488918
0.0054143
-0.00584259
0.000220433
0.00118098
-0.0013559
-0.00111852
-0.00500562
-0.0045303
-0.00122759
0.000116092
0.00152031
-0.00333213
0.00182964
0.000302884
-6.81008e-06
-0.0016469
0.003186
-0.00406549
0.00534111
0.00608872
0.00076953
0.0025972
-0.000124908
0.000425806
-8.88846e-05
-0.00157603
0.00021439
0.00155299
-0.00744714
0.00293371
0.00452715
0.00515425
-0.00535024
0.000198045
-0.00511898
-0.00179534
-0.00510604
0.00457241
0.00333395
-0.00337588
0.000132711
0.00115143
0.0026084
-0.00373142
-0.00642233
0.00435281
0.0020834
-0.00336046
0.00545552
-0.0048669
8.20566e-05
-0.000576
0.00573199
-0.0030674
0.000349372
0.00274606
-0.0047089
0.0054365
-0.000620657
-0.0033999
0.003322
-0.00495589
-0.00298458
0.00348932
-0.000505239
0.00583899
-0.000653404
-0.00509846
-0.00471323
-0.00169287
-0.00561419
0.00607489
-0.000457669
0.00185802
0.00461854
-0.0064197
0.0038123
-0.00518328
-0.00577193
0.000605691
0.00518808
0.0057764
-0.00570462
-3.19004e-07
-0.00152654
0.00410039
-0.0025819
-0.00553235
0.00108798
-0.00388911
0.00494755
-0.000530881
0.0063713
-0.00602687
0.00728492
-0.00115215
0.00136779
-0.00525977
-0.0062032
0.000598199
-0.00162394
0.000252732
-0.00044222
-0.00286857
-3.2062e-05
-0.000289555
0.000340712
0.0015747
-0.00410269
0.00255291
-0.000405167
9.06547e-05
0.000466869
-0.000526881
-0.00155046
4.54731e-05
-0.000324123
0.000297437
2.82256e-05
2.60283e-07
-0.00601217
0.00316515
0.00284185
-0.00426154
-0.00175296
0.000960314
0.00310021
-0.00174377
0.00291756
0.00325541
-0.00350112
0.0003289
0.0037153
-0.000410449
0.000408418
0.00553747
-0.00422488
0.00393213
0.000294321
0.00425112
-0.00265062
0.00106678
-0.00107689
5.54798e-05
-0.00507753
0.00366676
0.00149677
0.000390509
-0.00343539
0.0031101
0.0034639
-0.00569992
0.00232884
-0.0031665
0.00453287
-0.00034585
0.00480388
-0.00445975
-0.00644691
0.00153179
0.0049509
-0.0025273
-0.00301546
-0.00679075
0.00608298
0.000746001
-0.00372427
0.000745412
-0.000600111
0.00502526
-0.00441948
-0.000270726
3.20383e-05
0.00028099
-0.00500404
0.00346705
-2.0508e-05
-0.000505698
0.00415127
-0.00630655
0.00218011
0.000174507
0.000808291
-0.00320355
-0.00423136
-0.000300913
0.000243056
-0.0061149
0.000201179
0.00595492
0.000924501
-0.00345161
0.00252428
-0.00400383
-0.00144316
-0.000225173
0.000235783
3.93081e-05
0.00656327
-0.00550571
-0.00101761
-0.00473171
0.00517517
-0.000436057
-0.000391233
-0.00264578
-0.00140049
0.00557857
-0.00391379
-0.000309143
0.00387888
0.00101116
0.00334714
-0.00289576
-4.67278e-06
-1.86006e-05
0.000874488
-0.000365615
-0.000302134
5.63219e-05
2.89476e-06
-0.004749
0.00440123
-9.16872e-05
-0.000663558
0.00617776
-0.00547435
-0.00367546
0.00459611
-0.00131996
0.00159316
0.00517208
-0.00135184
-0.000151033
-0.00158066
0.000758551
-0.000318343
-0.000421025
-0.00294984
0.000379069
0.00259951
0.00151613
-0.00311144
0.00451178
0.000992681
-0.0055076
0.000499468
0.00494772
-0.00555328
0.00547928
-0.000966002
0.00130299
0.00212453
-0.00331884
0.00111754
-0.000882236
-0.00138466
-0.00359459
0.000145137
-0.000293943
-0.00600217
-0.000751186
-0.00695971
0.00281965
0.00415782
0.00479914
-2.39911e-05
0.00027767
-0.00023255
-8.19557e-05
2.48701e-05
5.78687e-05
-0.0033683
-0.00173084
0.0051102
-0.00488108
0.00542523
-8.45571e-06
2.22669e-05
-1.23716e-05
-0.00447388
0.000180183
0.00429073
-0.000478817
0.000478086
9.56688e-05
-0.000982543
0.00455346
-0.00528132
0.00109538
1.23515e-05
-0.00153146
-0.00540367
0.00563519
-0.00594841
0.000302725
-0.00566986
0.00237397
-0.00236233
0.0041337
-0.00177177
-0.00290243
0.000357563
0.00256621
0.00355766
-0.00331997
-0.000238496
-0.0014144
5.56638e-06
-0.00360145
0.00418836
-0.000588049
0.00502877
-0.00491435
-0.000111388
0.00505947
-0.000882976
-0.00416616
0.000185897
-0.000167848
1.07638e-05
0.00296864
0.000518629
-0.00027817
-0.00308937
0.000191032
0.00224357
-0.0024284
-0.00510362
0.000381143
-0.00587117
-4.08085e-05
0.00438145
-0.000848707
0.000225088
0.000235744
-2.27316e-05
0.00459144
0.00048258
0.00516301
-0.00482059
-0.000329211
-0.000430789
0.00128166
-0.000516119
0.000750942
0.000208061
-0.000951174
1.07561e-05
-0.000129304
0.000144556
0.000824601
-0.00526565
0.00443571
-0.00122909
4.4546e-05
0.00143523
0.00033068
0.00362518
0.000279988
-0.00390508
-0.000334989
-0.00258858
0.00389689
-0.000272474
-0.000208614
0.00181075
0.00189175
0.000164605
0.00053148
0.00525587
-0.00572605
-0.00184655
-0.004567
-0.000824044
0.00624079
-0.00540911
-0.00287246
0.00477511
0.000194111
0.000976528
0.00231712
0.00144982
-0.00526985
0.00191175
-4.05882e-05
-0.000235898
-0.00200108
0.0034116
0.00161443
-0.00693663
0.00241799
0.00455602
-0.00361237
0.000210785
-0.00555187
-0.000731433
-0.00241675
-0.000233061
0.00045296
-0.00484374
0.0043929
-0.00305202
0.000379765
0.00266998
3.03523e-05
-7.6679e-07
4.99736e-05
8.98355e-06
-0.00498225
-0.000317173
0.00528992
-0.000700996
0.000961156
-0.00043658
-0.00261401
-0.00592029
0.000399122
0.00367717
0.00291753
-0.000637392
1.84507e-05
0.000565619
-0.00631258
0.00108237
4.88965e-05
-0.00550443
0.00264202
0.00287162
-0.00159681
-0.00319971
0.00478987
-0.00542539
-0.00063915
-0.00189476
-0.00499933
-4.97904e-05
-0.000344302
-0.0064228
0.00517168
0.00130065
0.00197056
0.00135014
-5.62209e-05
0.00175964
-0.00146806
-0.000655656
0.00329168
7.21215e-05
0.000974557
-0.000996915
0.00170301
-0.00144972
-0.000295255
0.000334118
0.000279002
0.00482231
-0.00642924
0.00269994
-0.00332693
-0.00234287
-0.00315106
-1.47483e-05
-8.18207e-05
0.000243136
-0.000733924
0.0031061
0.000885682
-0.00414766
0.00341454
-0.00493474
-0.000347857
0.0024554
-0.00239126
-1.3413e-05
0.004713
0.000252469
-0.00139403
-0.00497072
-0.00197075
0.000529662
0.00145094
-0.00645454
0.0021224
0.00438064
-0.00349749
0.000426063
0.00321108
0.000221558
-9.72187e-05
0.000571562
0.000382105
0.00025338
-0.000348709
0.0032851
-0.00293554
-0.00384621
0.00148371
-0.000814687
-0.0055915
0.000702416
-0.000173322
-0.000177873
-0.0035195
-9.69271e-05
0.0036152
-0.00157389
-0.00279606
0.00438543
-0.0004487
-3.79949e-05
0.000506403
-0.000106868
0.000841884
-0.000726795
-1.0753e-05
-0.000169087
-0.00523893
0.00455609
0.000696101
0.000196131
-0.0036921
0.00351789
-0.000198962
0.00069467
-0.000149785
-0.00222008
0.00319181
-0.0009764
0.00320361
-0.00106908
0.00208666
-0.000976738
0.00552182
0.000315553
-0.00583472
-0.00718633
0.00537648
-0.00318437
0.00421483
-0.000127578
0.000164121
0.000616711
0.00429012
-1.20217e-05
4.65906e-06
0.00467438
-0.00421899
0.00213407
-0.0036941
-0.00242618
-0.00365787
-0.00253376
0.00278513
-0.000197207
-1.06424e-06
5.21476e-05
0.00528461
0.00023837
-0.00315837
0.000934156
-0.000670326
-3.11181e-05
0.00198262
0.00288945
-0.00477549
0.000767422
-0.00535317
0.000824982
-0.00185835
-0.00337278
0.00359039
-0.000803047
0.000704519
-2.51717e-05
-0.000255055
-5.31665e-05
-2.93743e-05
0.00269309
-0.00022558
-0.00246591
0.00028421
-0.00029763
5.93883e-05
3.14227e-05
-5.88273e-05
0.00466848
4.19566e-05
-0.000514409
-0.00144489
-0.00118742
0.000143386
0.00105029
-0.000123419
0.000109666
1.37962e-05
0.000478009
-0.000585436
0.00254094
-0.000268675
-0.00225215
-0.00454571
0.00324675
-0.00472913
-0.000686372
-0.00453943
0.00303292
-0.00324352
0.00540421
-0.00558124
0.000300369
0.000361948
-0.00103115
0.000185922
-0.000237195
0.00011316
-0.00237355
0.00257117
0.000134426
0.000714481
-0.00551057
0.00361759
0.00187893
-0.00100518
-0.000175158
0.00104648
6.54999e-05
0.000538556
-0.00421984
-0.00475803
0.0041636
0.000671927
-0.0052908
0.00463268
2.99071e-05
3.26822e-06
0.00280574
-0.000303108
-0.00247688
-0.000472907
0.000404459
0.000289951
0.00114399
-0.000895142
0.00229083
-0.00238736
0.000159665
-0.000546289
0.00129883
-0.000559046
-0.000503003
0.00436326
-0.00382526
-0.00049282
-0.00499206
0.00554979
-0.00286418
0.00324194
-0.00407604
0.00360643
0.000680051
-0.000834585
0.00017173
-2.38943e-05
0.00564483
0.000309881
0.00225341
0.00592094
-0.00532876
6.38714e-05
0.000476709
0.00358709
-0.00406553
6.96684e-05
-1.73291e-05
-1.73821e-05
-0.005974
0.000362968
0.00129406
-0.0007531
-0.00584483
0.00522021
-0.00291459
0.000377796
0.0025399
-0.00322044
0.0037539
0.000214712
0.00088743
-0.0012142
0.000515893
0.000410296
-0.0040114
0.00364509
-0.00362238
-0.00589696
0.00521596
0.000672756
9.74938e-07
-0.000133933
-0.000103135
-2.91142e-05
-2.47148e-06
2.47148e-06
-0.00382123
-0.00152629
0.00274141
-0.00258479
-0.000107993
0.00196858
-0.00142906
0.000592984
-0.00483917
0.00424505
0.000463879
-0.00531491
0.00483737
-0.0052562
0.00143764
0.00582074
-0.00544391
-0.000264271
-0.00419092
0.00478343
-0.00618096
0.00536465
-0.00369441
-0.000764752
-0.00547752
0.00206736
0.00341464
0.00034739
0.000516454
-0.000270983
-3.26842e-05
-0.00378348
0.00323487
0.000599738
-0.000433993
6.70147e-06
-0.00658981
0.00525544
0.00393639
-0.00394027
7.60963e-07
-0.00552208
0.00509474
0.000270776
-0.00244756
0.00219789
0.000610765
-0.00383113
-0.00649497
0.00329053
0.00400623
-0.000232439
-0.00357074
-0.00026442
-0.00146172
0.000401982
0.000540795
-0.00290447
0.00370474
-0.00168906
0.000195533
-0.00361605
0.00385482
-0.000240493
0.000439719
-0.000411802
-2.09544e-05
-0.00558944
0.000942515
0.00318016
-0.00412541
-0.000154406
0.000850912
-0.000328369
-0.00442474
-0.000830183
-0.000116941
0.000967082
-0.00051023
-0.00432895
-0.00135697
-0.005165
-0.00505173
0.00241824
0.00263756
0.00268252
-0.00519758
0.00253212
-0.00276143
0.0031397
-0.0003615
-0.00508794
-0.00154619
0.000206811
0.00134398
-0.00510659
0.000626113
0.00452199
-0.00139049
0.00582941
-0.00441676
-0.0054978
-1.31105e-05
-0.000314673
0.000349349
-0.00185455
-0.0032119
-0.000228424
0.000245233
3.38507e-05
-0.00278274
0.00339238
0.000226617
0.000961669
0.000223483
-0.000227233
0.00011586
-0.00352038
-0.00136347
0.00492088
-0.00617123
0.000478136
0.00570705
-0.00219165
-0.0028569
-0.00123794
0.00138076
0.00523907
0.00109825
-0.00457959
0.000168444
0.000152129
-0.00267002
0.00537071
0.000606429
0.000943152
9.23667e-05
-0.000904011
-0.000553285
-0.00524672
-0.00438353
-0.00023165
0.00461222
0.0014487
4.46175e-05
3.17675e-05
-4.91606e-05
-0.00410059
-0.000458438
0.000483158
-0.000440428
-4.89191e-06
0.00103814
-0.00438849
-0.000357705
-0.0047887
0.00516508
0.000191399
-0.000134218
-6.2217e-05
1.996e-06
5.95491e-05
-0.000333663
-0.0012073
-0.000215516
-0.00453358
0.0013413
3.50535e-05
-0.000241767
0.000225575
-0.00186113
0.00135852
-0.00411134
0.005297
-0.00118401
0.0012653
-0.00537308
-0.00398959
-0.00148214
-0.0015076
-0.00151286
0.00236752
-1.23471e-05
-0.00327765
0.00420774
-0.000275027
2.9017e-05
-4.82989e-06
5.41847e-05
-4.95933e-05
0.000246125
0.000331349
-0.00442468
0.0024058
0.00219201
0.0015265
-0.00149174
-2.48158e-06
7.81899e-05
0.00148007
-0.000515242
-0.00322122
0.000159921
0.00085254
-0.00582869
0.00575805
-0.00231459
0.00337086
-0.00265986
0.00306807
-0.00480197
0.00458626
0.00070861
-0.000617871
-6.88067e-05
0.00386233
-3.02362e-05
-0.00383369
-0.00474786
0.000361048
-0.00364079
0.000593275
0.00304699
-9.13216e-05
0.000328268
-0.00502968
0.00450752
-3.36528e-05
0.000121581
-0.00189035
-0.00461222
0.000546043
-0.00444263
0.00403518
-0.00274392
-0.000141463
-0.00553713
0.00524969
-0.00322161
-0.000498432
-0.000235315
2.42866e-06
-0.00502365
0.00561095
-2.95842e-05
2.45527e-05
-0.000472008
-0.00137595
-0.000618836
0.0034763
-0.00285337
-3.59916e-05
0.000107205
-0.000864928
0.000928566
5.62379e-05
-0.00361806
-0.00396249
-0.00170448
0.00566711
-0.000868117
0.000987853
0.00299924
-0.00273567
-0.000240016
-0.00520688
0.000466959
0.00475362
0.00443824
-0.00476154
-0.000604056
-0.00021647
0.000278927
0.00275575
0.000435536
-0.00412229
-0.000583789
0.00470273
0.00557159
-0.0055351
6.57044e-05
0.000280431
-0.000439053
-0.00310864
0.00191944
-0.00588335
0.0038711
0.00220976
-0.00607497
-0.000251894
0.00386353
-0.00359745
0.000360837
0.000214363
-0.000462446
4.49208e-05
-4.33718e-06
-3.90157e-05
0.0061055
-0.00069406
-0.0053978
0.00604738
-0.00533997
-0.000686754
0.00624819
-0.00594363
-0.000270958
-0.000227168
0.00248067
-0.000756984
0.000169894
0.00292653
-0.00216635
-0.000563345
-0.00553382
-0.000174132
0.00577473
-5.03786e-05
0.0028076
0.00084629
0.002567
-0.00325409
-0.00469689
-0.00173737
-0.00249914
0.00543371
-0.00554099
0.000216184
0.000713788
-0.00064969
-4.06899e-05
0.00434704
-0.00571617
0.0032795
-0.00351909
-0.00706357
0.00424135
0.00524357
-0.00575173
-0.00610289
0.00318001
0.00291752
-0.00250616
0.00288447
0.00583157
-0.00099308
-0.00483372
-0.00141094
-0.00558036
0.00483419
-0.000346007
-0.00442094
4.00804e-05
5.69389e-06
-0.00508313
0.000958308
0.00558803
0.000343343
0.000263178
0.000289962
-0.000536574
-0.00070556
-0.00448016
0.00290233
0.00261657
0.0053691
-0.000405612
-0.00485516
0.005514
-0.000169662
-0.00534328
-0.000808148
-0.00544968
0.000458939
-0.0005
0.00154971
0.000650304
-0.00130423
0.000146825
0.00117045
0.000279441
-0.00259728
0.003611
0.00516532
-0.00551173
0.000358923
-0.00121802
0.000260921
-0.00121744
0.00122191
4.0816e-05
-0.00276054
-0.00334158
3.21883e-05
-9.72145e-07
0.000482788
0.00417742
-0.00466693
0.00568006
-0.00180312
0.000949195
-0.000348961
-0.000568224
0.00234375
-0.00224752
-7.42425e-05
-0.00273183
-0.00278426
0.00551939
-0.000707819
-0.00480769
-0.00302017
0.000141502
0.000140365
-0.000224775
-0.000255748
0.000535346
0.000225951
1.93074e-05
-0.000225541
0.000512157
3.00762e-06
-0.000503533
0.00171585
-0.000298956
-0.00140625
-0.00600475
0.00559539
-0.000614499
-0.00498057
0.0051068
-0.00525742
0.000259866
1.72583e-05
-6.89355e-06
-8.22205e-06
-0.00494031
0.00456285
0.000370867
-0.00487048
0.00549741
0.00125644
4.56502e-05
5.24595e-05
0.00118461
-0.000962828
-9.74634e-05
-0.000514878
-0.0044335
-0.00271427
-0.000197118
-0.000178906
-0.00110818
0.00220274
-0.0024203
-0.0046773
0.00219983
0.00262856
-0.000682426
0.00567704
-0.00498184
0.000839997
-0.000332688
-0.000490092
0.000373599
0.000606235
-0.00334694
0.00577094
0.00410033
-0.00112568
0.00576249
-0.00592575
0.000265208
0.000263062
-0.000377837
0.000204868
0.000333989
0.00543044
0.000233963
-0.00558261
-0.0049892
0.00547653
-0.000486153
0.00329955
-0.000301096
-0.00284671
-0.00125627
0.000129769
0.00114459
-0.000309197
0.000299663
0.00503458
0.000801786
0.00549397
0.00042015
-0.00073566
-0.000393699
-0.00296004
-9.78198e-05
-0.00281532
-0.000283563
0.000290406
0.00518247
-0.00473156
0.000645246
0.000809101
-9.45572e-05
-0.00083226
0.000848272
-0.00089382
0.00102493
-0.000424195
-0.000354409
-4.30587e-05
-0.00113357
0.00355831
-0.00308303
-4.38921e-05
-0.000245755
0.00281594
-6.53418e-05
-0.00268568
0.00248813
0.000296443
0.00485585
-7.60043e-07
-7.02995e-07
0.000833215
0.000219964
-0.000293946
0.000152062
-0.0053673
0.00499729
0.000380076
0.00101274
0.0031653
0.00284872
-0.00402235
0.00126947
-0.000224343
0.000299087
0.00409028
-0.00115048
0.000360012
-0.00191025
0.00412225
-0.000208925
-0.00102928
0.000474404
0.000384531
0.0029113
-0.00557288
-0.000598817
-0.000820697
-0.00261212
0.00343734
-0.00620001
0.00490893
-0.00062599
-0.000959739
0.00122094
0.000548963
-0.00566539
0.00511881
0.00094221
0.000276559
0.00272227
-0.00450546
0.00179392
-0.00384355
0.00302739
-0.000810808
0.00235849
-0.00279423
-0.00216389
-0.00236182
-3.72934e-05
0.00555429
-0.00168048
0.00290755
-0.00122397
-0.0048061
-0.000543662
0.00222436
-0.00247278
-0.0016233
0.00390897
-0.00228119
0.00534613
-0.00504846
-0.00021492
0.0028556
-0.00266047
-0.000187053
-0.000173058
0.0029455
-0.00267305
0.00613286
-0.00565381
-0.000369508
6.16144e-05
0.000667747
6.67314e-05
-0.000885089
0.000901371
-0.00284544
0.0011663
-0.00570044
0.00492911
5.01002e-05
-2.85324e-05
-0.00410128
0.000159976
-0.00456299
0.00517303
-0.000509344
-0.00521354
0.00576487
-1.3701e-05
-4.47692e-05
-0.000324062
-0.00545765
9.4295e-05
0.00062448
-0.000175157
-0.00259738
0.00350139
-0.000348854
-0.00309296
-0.00245642
-0.00225035
0.000531163
-0.00551659
3.072e-05
0.00550858
1.09043e-05
8.65058e-06
8.77582e-05
-0.000203482
-0.000189889
0.00335908
-0.00307203
0.00232288
-0.000162137
-0.00203937
0.00381584
-0.00394232
0.000137754
0.000280719
0.00523218
-0.00534135
-0.00024142
-0.00571325
0.000201392
-0.000430572
-0.00287191
0.00326303
-0.0031227
-3.46224e-05
0.000145079
0.00534896
0.000118057
0.00367978
-0.000133177
2.76699e-05
-0.00228386
0.00241796
-5.07263e-05
-0.000421838
0.00278323
0.00223147
0.00330934
8.26731e-05
-7.70191e-06
-7.28344e-05
-0.000873144
0.00618611
-3.72734e-05
-0.000187286
0.000553492
-0.00384938
0.00201043
0.00183572
0.00449416
0.00397172
0.000415458
-0.002513
0.00545867
-7.30089e-07
5.31424e-05
-5.21922e-05
0.0025632
-0.00499438
0.00236428
-0.00278348
-0.00285412
0.0027844
0.000185129
-0.000271121
0.000156729
0.000379895
0.00317941
-0.00156026
0.000322812
0.00124369
-0.000172931
-0.00258914
0.00536708
-0.000710643
-0.00172547
-0.00184238
0.00362516
3.2168e-05
2.81383e-06
0.00231407
-0.00259201
-0.000306795
0.00376933
-0.00340939
-0.000370821
0.00395526
0.00294349
0.0011902
-0.000423282
0.000476932
-3.4844e-05
0.0030467
-0.00344883
0.000210388
-0.000198448
5.36674e-06
-8.5926e-06
-5.67289e-05
0.000967617
-0.000974268
0.00339666
-0.0037319
-0.000235931
-0.00413486
0.004312
0.00350943
-0.000516584
-0.00291925
-0.00241323
0.000975598
0.0014775
-0.000259513
0.000710579
0.00106924
0.00202128
-0.000699544
-0.00476598
3.46345e-05
-6.97191e-07
-3.34778e-05
0.00440619
-0.00372863
-0.00568126
0.00542739
0.000322532
0.00251626
-0.00563847
0.000636672
-0.00410868
0.001394
0.00271927
0.00416394
-0.00354282
-0.000397205
0.000446696
-0.00013696
9.47866e-05
4.28451e-05
0.000578429
0.00013681
-0.000476116
-0.000144098
0.00302587
-0.002657
-0.000237041
0.00276445
-3.74908e-05
-0.00267731
0.000420616
2.63544e-05
-0.000176592
-8.32155e-06
-0.000218535
0.00242947
-0.00316898
0.00149143
-0.00109504
-0.00503522
2.67249e-05
0.000709629
-0.00537657
-0.00145378
-0.000921575
-0.00134862
-0.00631802
0.000389879
0.00593808
0.00315489
0.00365917
0.00241472
-0.00129465
-2.45445e-05
1.35283e-05
0.00156731
-0.000348302
-0.00460931
0.00299108
0.00010353
-0.00424353
-0.000452625
0.00468357
-0.00225474
-0.000172342
0.00230063
-0.00393038
0.0026461
-0.00510109
-0.000504995
-0.000205816
0.00167839
-0.00428231
0.0026548
0.00387996
-0.00594258
0.00208001
0.000399128
-0.000436598
4.35966e-05
-0.00114269
0.000941213
0.000207389
0.00503604
-0.000182423
-0.00484943
3.33537e-05
3.31933e-08
0.000475642
-1.73868e-05
-0.00044846
-0.000156021
0.000927384
0.00457416
-0.00491402
0.000137529
0.000108245
-0.00451835
0.00354874
0.00544792
-0.00494341
-0.00043759
-0.000276595
-0.00153601
0.00427028
0.00349948
-0.000239496
-0.00317431
-0.000528544
-0.00407414
0.000754986
0.00530972
-0.000258217
0.000557366
-0.00139939
0.00107075
-4.48803e-06
-0.000643271
0.000656828
5.0407e-05
0.00281928
-0.0027967
-0.00353209
0.000298491
0.00328041
-0.000762478
-0.00540829
1.87024e-05
0.00282087
0.00584796
-0.000177491
-0.00692219
0.0045772
-0.00537899
0.00056134
0.00481052
-0.000327553
-0.00315586
-0.00601558
0.000700164
0.000224473
-0.000239968
1.67816e-05
-2.67957e-05
0.00551321
-0.000937437
-0.00536975
0.000500437
0.000709157
0.00277262
-4.87769e-05
-0.00266602
-0.00481905
-0.000523178
0.00541428
-0.00104724
0.00206248
-0.00070331
0.00158685
-0.000616148
-0.00595533
0.00017299
0.00582144
0.00688321
-0.00466932
0.000531733
-0.000294942
-0.00580581
0.000845101
0.00505312
1.91171e-05
-1.76804e-05
-0.000380387
-2.23229e-05
0.00305627
-0.0028181
0.00323101
-0.000251434
0.000277107
7.95794e-05
4.42814e-06
-0.00103199
0.000959735
8.92212e-05
-0.0061694
0.0010845
0.00513106
-0.000764331
0.000664892
0.000111837
1.91171e-05
0.00478435
0.00174993
-0.000192755
-0.00154614
-0.00478441
0.000530883
-0.000113209
-0.00209112
-0.00299755
3.26431e-05
0.00303382
-1.51852e-05
-0.00128309
0.00456597
-8.38473e-05
8.33285e-05
-0.00638038
-9.79082e-05
-0.000650439
-0.000709788
-0.00573979
0.00645693
-0.000958718
-0.000198026
-0.00390472
0.00389907
-0.00354513
-0.000306522
-0.00403988
-0.00458759
-0.000212008
-0.00322698
-0.000595388
0.000599664
3.35257e-05
9.0559e-07
-9.71082e-06
0.000495388
0.00381937
-0.0037057
-0.000108755
-0.000580537
0.00579922
-0.0052149
-0.00522371
0.00394472
-8.32921e-05
0.000968561
-0.00320082
0.00224051
-0.000236339
-0.00115934
0.00216968
-0.00238004
0.00264669
0.000162249
-0.00334426
0.00161721
-0.004318
0.00479425
-0.00543232
0.000695642
0.00475793
-0.000638931
-0.00147258
0.00536964
-0.00352252
0.00342441
-0.000948222
0.00274503
-0.00539753
-0.00066164
-9.06918e-05
1.51469e-06
0.000562203
-0.000400043
0.00557562
-0.00298324
-0.00257323
-1.70912e-05
3.48704e-05
-1.51344e-05
0.00621266
0.00311201
0.000516758
-0.00348119
0.000481786
-0.00540681
0.00491384
0.00442626
-0.00292628
3.40384e-05
2.97376e-06
0.00427242
0.000282741
0.00524496
-0.00473176
-0.000401796
0.00586031
-0.00493681
-0.000908697
0.00021328
-0.000221244
-0.000915215
2.14335e-05
1.54198e-05
-2.88932e-05
-0.00046775
0.00575517
0.00467062
0.000542482
-0.00513795
-0.000203813
0.00329812
0.000267865
-0.00472719
-0.000438416
0.00015841
0.00227316
0.000184574
-0.0046362
0.00444564
0.00328095
-0.00445634
0.0049364
0.00263403
0.000250771
0.00216158
-0.00195088
-9.8925e-05
0.0037846
-0.00430695
9.79133e-05
-8.22169e-06
0.000411562
0.000624679
0.00465851
2.50941e-05
-0.000297097
-0.00315413
0.00301231
-0.000320885
0.00105769
0.000253619
-0.0058846
0.000692604
0.00519292
0.00316739
-0.000464825
-0.00491725
-1.30296e-05
0.000180639
-0.000134603
0.000555381
0.0023422
-0.00016836
1.45699e-05
0.000169858
0.000707781
0.000829189
-0.00540765
0.00493968
0.00146967
-0.00108653
0.0039154
-0.00558534
0.00167369
-0.00517601
-0.00547362
-0.000155173
0.00563618
0.00073111
-0.00542699
-0.00519389
-0.000687629
0.000106698
0.00600326
-0.00268916
-0.000347294
-0.0032439
0.000551771
0.00305051
-0.00564735
0.00496608
-0.00413906
0.00376549
-0.00455227
0.00473069
-0.00629677
0.00312976
3.23833e-05
1.02781e-05
-3.07415e-05
-0.00189539
0.00138864
0.000533857
3.15611e-06
0.000221527
0.00622063
-5.62946e-06
-0.000580216
0.00274048
-0.00256969
-0.000159249
0.00454944
-0.00515648
-1.74233e-05
0.000263104
0.00470294
-0.000489154
-0.00420684
-0.000738754
-0.00290165
-6.7935e-05
-6.98279e-05
-0.000259253
-0.000170086
-1.29343e-05
3.38093e-06
3.99684e-05
0.000226339
0.00519807
0.00400648
-0.000147241
-0.0038747
7.77286e-05
0.00380311
-0.000763387
-7.23019e-06
0.000791406
-0.0052057
0.00471368
0.000506839
0.000187175
-0.00335291
0.00317551
-0.00320976
0.0049433
0.000459431
-0.00056574
0.000384983
0.000112351
0.00394052
-0.00405501
-0.00560971
0.00061822
0.00503903
0.00273902
-0.00014288
-0.00258232
6.91709e-06
-0.000524886
0.000528209
-0.000143205
0.000473925
0.00488876
-0.00549873
-0.000145644
-0.000866528
-0.00579
-0.00497811
-0.000430347
-0.00312728
-0.00163087
-0.000101876
0.00173733
0.00532908
-0.000900191
0.00479789
-0.00541265
-0.0024221
-0.00393713
-0.000207862
-0.00387867
0.00398891
-0.00410482
-0.000506235
0.00461884
0.000187994
-0.00229681
0.0021146
-0.000539917
-0.00400209
0.00454958
-0.00536855
-0.00043303
-0.00306511
0.00356272
0.000664047
0.00474489
-0.00541389
-0.0049233
0.00284171
-0.0046519
-0.00061506
-0.00457505
0.00190787
-0.00386615
0.00196375
0.000105803
0.00271866
-0.000580411
-0.0045125
0.00397318
-0.00109035
-0.0028927
-3.81666e-05
0.000103467
0.000605082
0.0027669
-0.0026441
0.00367579
0.0033572
-0.00347822
6.81347e-06
-0.00234079
-0.000335608
-0.00153106
0.00501698
0.00518334
-0.000384842
-0.00478267
-0.00164976
2.65834e-05
0.00163059
0.000551276
-0.000382577
-0.00565182
0.00462207
0.00545745
-0.0057737
0.00507048
0.000342948
-0.000515267
-0.000738847
0.00591314
-0.0051612
0.00277973
-0.00260927
-0.000159662
0.00333611
-0.000228362
-0.00301379
0.000117172
-0.0007512
0.000664085
-0.000575896
0.0053034
-0.00518198
-0.000480827
5.84292e-05
0.00299982
0.00335346
-0.00360769
-0.00344761
0.00307891
-7.80225e-06
-1.66513e-05
-0.00187057
0.000858975
-0.000419653
0.00439618
-0.00157936
-0.00264793
0.00424501
-0.00548426
-0.00599751
0.000813889
0.000696965
-7.55848e-05
-0.000604745
0.000695036
0.00278523
0.00280886
-0.00109778
0.00261504
-0.000153308
-0.00452669
0.00502902
-0.00483869
-0.000148419
0.00365321
-0.000216274
-0.00342463
-0.000717315
-7.67278e-05
0.000270828
-0.000290139
2.17426e-05
-0.0058671
0.000126794
0.00324444
0.000178677
-0.00144285
0.000253517
0.00119904
0.00453386
-0.00521761
0.000504874
-0.000374182
0.0055232
-0.0051097
-0.00287978
0.000223404
-0.00528123
0.00032645
-0.00139862
-0.00391042
8.37491e-05
-0.00072634
0.000659572
-0.00506419
-0.000400674
0.00550769
0.00488575
0.000312659
-0.000787956
8.11378e-05
-0.000318775
-0.00199957
0.00148746
-0.00145762
2.19194e-05
0.00343784
0.00174369
-3.08688e-05
1.65824e-05
0.00199004
-3.31025e-05
-0.0018864
-0.0026246
0.000159386
0.00247871
0.00312206
-0.00340033
-0.00484414
-0.000847769
-4.546e-06
0.000881777
-5.47054e-05
0.00158998
-0.000825986
0.000616819
0.000229548
-0.000703314
-0.00527848
0.00369908
0.000558322
-0.000541245
-0.00443242
-0.000316177
0.0019506
0.00528188
-0.000548026
-0.000435093
-0.00497748
-0.00314024
-0.0048278
-0.000425703
0.000361618
-0.000473755
0.000322047
-0.00132162
0.00524373
-0.00138486
0.00169454
-0.000296732
0.0036968
0.00340855
-0.00309856
-0.000311532
0.00549333
-0.00346748
-0.00547349
0.00361764
-5.97402e-05
-0.00518862
-0.000635863
1.81048e-06
0.000326259
0.000233889
0.00291991
0.000481091
0.00529986
-0.00680102
0.00430207
0.000853019
0.00011591
-0.00096797
0.00236328
9.81561e-05
-0.000748882
0.000651758
0.00574647
-0.00054011
-0.00520421
0.000232259
-0.00160384
-0.000665027
-0.000162256
-0.00244741
-0.000640033
-1.94666e-05
0.000683463
0.00395615
-0.00525304
-0.000457174
-3.17009e-05
-0.000534654
0.000705195
0.00540181
-0.00476619
-0.000588581
0.000282706
-0.00403158
-0.000122587
0.000974952
-0.000586032
0.00379608
2.68661e-05
0.00179299
-0.000316147
-0.00144917
-0.00448858
-0.00180563
0.000421901
-0.000135491
-0.00580481
-0.000106589
0.00235557
-0.00240968
8.97379e-05
-0.000111728
-0.000309817
0.00055113
-0.000404788
1.49714e-05
0.000412914
-0.00045546
-0.0044245
0.00487585
0.00396787
-0.000167914
-0.0037982
-0.00146919
0.00117955
-0.00128198
0.000206972
0.00361623
0.000264132
0.00306695
-0.00328593
-0.00151566
-0.000158594
-0.00396434
6.43722e-05
0.00123853
0.00185679
-4.70988e-05
-0.00173919
0.00320082
-0.00608471
0.00651759
4.38026e-05
-1.51438e-05
-0.00573271
0.00530897
0.00106765
-0.00085622
0.000100257
0.00077455
0.00343097
-0.00494358
-0.000641535
-0.000115638
-0.000723292
-0.00253224
0.00238477
-0.000154539
-0.00115063
0.00130946
-0.000130884
1.53845e-05
0.000131535
-0.000522906
0.00557051
-0.00504672
-0.005404
0.00506893
-0.00183931
0.00375303
0.00497495
0.000493268
-0.00568182
0.00057018
0.00511229
0.000111353
0.00216341
-0.000380003
0.00400781
0.00563803
-0.000655272
-0.000125731
0.000123829
2.00721e-05
0.00416432
0.00272246
-0.00365983
0.000569073
0.00189412
3.02893e-05
-2.98219e-05
1.57504e-05
-0.00126155
0.00111124
-0.000173021
-0.0021167
4.45151e-06
-0.000745296
-0.00296603
-0.000238878
0.00320475