/*--------------------------------*- C++ -*----------------------------------*\
| =========                 |                                                 |
| \\      /  F ield         | OpenFOAM: The Open Source CFD Toolbox           |
|  \\    /   O peration     | Version:  v2012                                 |
|   \\  /    A nd           | Website:  www.openfoam.com                      |
|    \\/     M anipulation  |                                                 |
\*---------------------------------------------------------------------------*/
FoamFile
{
    version     2.0;
    format      ascii;
    class       surfaceScalarField;
    location    "500";
    object      meshPhiCN_0;
}
// * * * * * * * * * * * * * * * * * * * * * * * * * * * * * * * * * * * * * //

dimensions      [0 3 -1 0 0 0 0];
oriented        oriented;


internalField   nonuniform List<scalar> 
14885
(
-0.000306033
-0.000910471
0.00121091
-0.00503002
0.00276418
0.00236491
-0.000162762
0.00151391
-0.0012191
0.00167671
-0.002301
0.000487455
8.39333e-05
-0.000619951
0.000800557
0.00301742
-0.000637223
-0.0024096
0.000669533
0.00262241
-0.00311854
-0.00216355
0.00257713
-0.000401759
-0.0010088
0.000737591
0.000340015
-0.00129934
0.000524789
0.00084391
0.000499622
0.00208988
-0.00263402
-0.00239139
-0.00255839
-0.000341578
0.00233907
-0.00186971
0.000504568
-0.00117028
0.000732536
-0.00156265
0.000441646
0.00103611
0.00127068
-0.000711026
-0.00245432
0.00221863
0.000195464
-0.0020445
0.00249417
-0.000761016
0.000195545
0.000701753
0.00146639
-0.000423695
-0.00105641
-0.00202375
0.00180117
0.000830585
-0.00113187
0.00254049
-0.000814438
0.000271616
-0.00273169
0.00244032
-0.00119035
0.000260356
0.000982544
-4.69555e-05
1.42503e-05
5.47663e-05
-0.00096122
-0.000152528
9.64469e-05
-7.07138e-05
1.01289e-06
0.000429671
0.00255288
-0.000714627
-0.00160013
0.00233973
4.02695e-05
3.97574e-05
-0.000101562
-0.00314147
0.000503969
0.00270457
-0.000862282
0.000262421
0.000742331
-0.000239145
-0.000435153
-0.00250029
0.000334925
-0.00237468
0.00211099
0.000238326
0.00165204
-0.000346354
-0.00109732
8.06709e-05
-5.21996e-06
-0.000126525
-4.3723e-06
0.000107863
0.000229959
-0.000244006
8.79626e-06
0.00238715
-0.00306966
-0.000613746
0.00291939
-0.00346545
0.000591904
0.00448258
-0.00385446
-0.000456059
-0.000875999
0.000125453
0.000763648
-0.000400971
-0.000896035
0.000110375
7.32382e-06
-0.000128572
-0.00154192
-0.000201014
-0.00022097
0.00198153
-0.0016194
-0.00396105
0.00427048
-0.000200285
0.00325764
-0.000281588
-9.25569e-07
-0.000132167
9.88271e-05
-0.00204929
-6.65114e-05
-0.000588257
0.00470382
-0.00427473
-0.00031512
0.00486512
-0.0044105
-0.000347706
-0.000281323
-0.00166456
-0.00310916
0.00103856
0.00223704
0.000271552
-0.000192646
-4.38683e-05
-6.78242e-06
7.24342e-06
6.6351e-07
-0.00187969
0.00182064
-0.00438734
0.00423544
0.000330552
-0.00302995
-0.000368894
-0.00204164
0.00237611
-0.000335878
-0.00100691
0.00014084
0.000880156
0.000165056
-4.4757e-05
-5.27708e-05
0.00117551
-0.000440119
-0.000758802
-0.00115531
0.00147216
-0.000284699
-3.71242e-05
-8.1459e-05
0.000122049
-0.00133506
0.00021568
-0.00323279
0.00342232
-0.000119081
-3.99906e-05
-0.000629465
0.000487067
0.000108961
0.000580115
-0.000633912
3.56373e-05
0.000262513
0.000254377
5.12659e-05
7.86632e-05
0.000441259
-0.000922217
0.000514193
0.000111248
-2.90347e-06
-0.000493216
0.000967414
-0.000698362
0.00102807
0.00408519
0.000496255
0.00264345
1.90037e-05
1.57035e-05
-2.11196e-05
0.000524449
-1.98092e-05
-0.000663519
-1.39782e-05
1.44846e-05
0.000145986
0.00257593
-0.00256983
0.000100384
0.000914028
0.000285289
-0.0015506
0.00151964
0.000399653
-0.000597208
3.23412e-05
0.000313868
0.000707483
-0.00105676
-0.00192583
0.00138731
0.000648597
-0.000727186
0.00111298
-0.00300248
5.11107e-05
-0.000285038
0.002989
-0.00120241
0.000121866
0.00100537
0.000482564
-0.000683794
6.12206e-05
-0.00330039
0.00325216
0.00100517
-0.00209141
0.00253444
-0.0003785
-8.98533e-05
-1.20117e-05
3.19984e-05
-0.00130588
-0.000481503
-0.00150876
0.00180866
-0.000127573
-0.000127507
-0.000374713
0.000707229
0.00229598
-0.00305767
-0.000867732
9.3761e-05
0.000899833
-0.000906822
0.00086729
5.32942e-08
-0.00159847
0.00442309
-0.00272128
0.000442399
-7.13208e-05
-0.00238482
0.00320769
6.8422e-05
-0.00091471
0.000278022
-0.00043478
5.88587e-05
0.000816799
-0.00304785
-0.00152534
0.000158449
-0.00241147
0.000370793
-0.000142905
-0.000891265
2.00486e-06
-5.70907e-05
2.6096e-05
0.000729419
-0.00183612
0.00120578
-0.000105722
6.04527e-05
0.000133007
-0.000746468
-0.0021277
-1.788e-05
0.000110661
-0.000124334
-5.64366e-06
-1.60031e-08
-0.00421706
0.00228677
0.00204055
-0.00293407
-0.00119852
-0.000251977
-0.000750655
-0.000471067
0.000754263
0.000322459
-0.000435606
5.15343e-05
0.000513736
-4.41063e-05
0.000328285
0.00448874
-0.00306528
0.00289698
0.000218059
0.00201589
-0.00119036
0.000436501
-0.000420921
2.66443e-05
0.000664327
-0.000521081
-0.000170249
2.84915e-05
-0.000274194
0.000172181
-0.000439213
0.000671232
-0.000286658
-0.00182678
0.00276897
-0.000238352
0.00334698
-0.00299582
0.00045514
-0.000150423
-0.000287908
-0.00268438
-0.003136
-0.000859768
0.000918922
0.000111206
-0.00253722
0.000491793
-0.000336178
0.0028797
-0.00247162
-0.000149586
2.63069e-05
0.000176449
-0.0050811
0.00360595
2.86592e-06
0.000117025
3.67033e-05
-2.87439e-05
5.02636e-05
1.67656e-05
-3.17306e-06
1.01081e-05
0.000130233
-0.000139746
0.000107267
0.00166571
-4.90226e-05
-0.0014814
0.000659263
-0.00249006
0.00188666
0.0003066
9.65777e-05
8.8167e-05
-9.91511e-05
-8.81793e-06
0.000995917
-0.000877252
-0.000168479
-0.00227888
0.00256313
-0.000217984
-0.00017174
-0.00111216
4.7692e-06
8.46111e-05
-0.00279816
-0.00021973
0.00394761
0.00100982
0.000285958
-0.000317881
-4.95213e-06
-2.92259e-05
-0.000416894
0.000308798
0.000105075
0.000202437
1.20985e-05
-0.00317012
0.00304851
-5.70317e-06
-1.64003e-05
0.00041026
-0.000171136
-0.00246092
0.0031989
-0.000697062
0.000876499
0.00320134
-0.000813614
-0.000215409
-0.00215211
0.000461863
-0.00013358
-0.000178761
-0.00157025
0.000184472
0.00130687
0.00152302
-0.00310715
0.00289575
0.000630437
-0.00341661
0.000419031
0.000556498
-0.000530938
0.00363717
-0.000626937
-0.000283988
-0.000436297
0.000753684
0.000126614
-0.000190538
0.000221801
0.000469277
6.5051e-05
-0.000130786
-0.0005547
-7.09397e-05
-0.000937328
0.000397652
0.000647563
-3.52727e-05
-1.01585e-05
5.16723e-05
-0.000116854
-0.000290886
8.94932e-05
0.000236628
-0.00125908
-0.000667884
0.0020389
0.000271466
-0.000479355
4.92223e-06
-8.8384e-06
3.79442e-06
-0.0033549
0.000135442
0.00330737
0.0006498
-0.000573861
-0.00010619
-0.00079441
0.00174871
-0.00195105
0.000542077
5.09584e-06
-0.000210062
-0.000660855
0.00481685
-0.00494437
0.000256667
-0.00129965
0.000508788
-0.00208732
0.00368327
-0.00155555
-0.00187433
0.000220569
0.00169428
0.00339265
-0.00314593
-0.000227302
0.000414209
-3.60532e-06
-0.00271625
0.00323433
-0.000452841
0.00301944
-0.00287001
-6.57717e-05
0.00243197
-0.000421243
-0.00200743
-4.26216e-05
-2.73155e-05
-5.06792e-06
0.00223976
0.000366404
-2.69475e-05
-0.000355408
0.000217876
0.0025753
-0.00285354
-0.0023442
0.000173293
3.69061e-05
6.28023e-07
-0.000573002
0.000106665
0.000142829
-9.60336e-05
-3.28078e-06
0.00219575
0.000233101
0.00246998
-0.0022583
-0.000154327
-0.00071592
0.00195217
-0.000906845
0.00103136
0.000281168
-0.00127739
1.88677e-05
-0.000289999
0.000251878
0.000426299
-0.00256932
0.00229723
0.00157352
-4.77199e-05
-0.00172227
0.000244325
0.00328063
0.000254622
-0.00350375
-0.000187917
-0.00140758
0.00357405
-0.00024658
-0.000286817
-0.00110967
-0.00135103
0.000100478
-0.000197143
-0.00189764
0.00213404
0.000102052
0.000438156
-8.53441e-05
0.000805753
-0.000444464
0.000203672
-0.000203453
3.29838e-05
5.84078e-05
0.00035029
0.000229765
-0.00181697
0.000684411
4.57782e-06
-9.62177e-05
0.000418582
-0.000641832
0.002373
0.0001686
-7.17261e-05
3.2054e-05
-0.00347666
0.000203917
2.25283e-05
-7.54315e-06
-0.00252872
-0.000245283
0.000226081
-0.00236745
0.00226359
-0.00253913
0.000314862
0.00236756
-6.26261e-06
4.14217e-07
0.00017092
3.03806e-05
-0.00386364
-0.000251006
0.00424528
-0.000655216
0.00100178
-0.000367452
-0.00204961
6.65242e-05
-6.81256e-06
0.000537305
0.000407983
-0.000448948
1.38941e-05
8.43589e-05
-0.000822643
0.000626403
2.84524e-05
-0.00277673
0.00134709
0.00152595
-0.00111291
-0.00218451
0.00344483
0.0016974
0.000203385
1.51853e-05
0.000225606
7.55242e-05
0.000500537
0.0017497
-0.00122222
-0.000354329
0.00194141
0.00133455
4.48796e-05
-0.00151009
0.00125852
-0.000179651
0.000867263
5.31744e-06
0.000163051
-0.00013222
-0.000313546
0.000275051
-0.000134559
0.000131491
0.000128969
0.00340856
-0.00430796
0.000749648
-0.00095056
-0.00118722
-0.00152777
3.13752e-05
9.39036e-05
-0.000428504
-8.34906e-05
0.0004181
0.000507065
-0.00260999
0.00183539
-0.00355852
-0.000258665
0.00124222
-0.00115121
-6.84548e-06
0.00333242
0.000178353
0.000366417
0.00148879
-0.00255209
0.000698312
0.00205475
-0.00122792
0.000400344
0.000774147
0.00125145
-0.000110482
-0.00102383
-0.000549267
0.000293329
0.000496555
-1.01888e-05
-1.43292e-07
-0.000249028
0.0024012
-0.00198285
-0.00337724
0.00132216
-0.000137144
-0.00100883
0.00234334
-0.000742408
-0.000424074
-0.00333586
-9.16972e-05
0.00344833
-0.000628537
-0.00105172
0.00175942
-0.000126531
-1.54874e-05
0.000168607
-0.000109036
0.000895032
-0.000761162
5.35596e-06
4.14044e-05
-0.00179521
0.00162657
0.000250576
5.86183e-05
-0.00104862
0.00116144
-1.52677e-05
0.000620247
-0.000283614
-0.00177756
0.00269933
-0.000796476
0.000901431
-0.000624989
0.00117142
-0.000585241
0.00252765
0.000136255
-0.00244003
0.000288584
-7.75521e-05
-0.00202514
0.00229871
-0.000202722
0.000201922
8.45452e-05
0.00204756
6.67407e-06
-3.48052e-06
0.0023647
-0.00202446
0.000898951
-0.0014655
-0.00169619
-0.00254948
-0.00134551
0.00153716
-0.000109592
-3.75969e-06
0.00017057
0.00255332
0.000112
-0.00245679
0.000754395
0.00152872
3.97902e-05
-0.00021614
-0.000199408
0.000303217
-9.91889e-05
0.000544623
0.000468191
-0.0011245
-0.000943114
0.00117298
-0.000807915
0.000720727
-1.18923e-05
-0.000124981
-0.00017242
-0.000106863
0.00277617
-0.000238024
-0.0025068
-6.75541e-05
3.89206e-05
-4.00229e-05
-2.25818e-05
4.27364e-05
0.00339684
2.9795e-05
-0.00065396
-0.0016969
-0.00171505
0.000207979
0.00150954
-0.000432992
0.000401618
4.57378e-05
0.000766354
-0.00116533
0.00182337
-0.000201414
-0.00150554
0.000732059
-0.000522057
0.000335535
-0.000221378
-0.00147787
0.00034758
-0.000491778
6.98161e-05
-0.00031956
1.92626e-05
0.000498867
-0.00140335
3.09235e-05
-2.97549e-05
1.2719e-05
-0.00265294
0.00280619
0.000151488
0.000787618
-0.00524021
0.00355725
0.00186009
-0.00145819
-0.000251725
0.000795071
4.43761e-05
0.000332661
-0.00268223
-0.00262212
0.00235223
0.000259068
-0.00195494
0.00176443
-8.45453e-06
-3.19725e-07
0.00159189
-0.000171881
-0.00135405
0.00050113
-0.000382429
-0.000278289
0.000235406
-0.000242401
0.00105379
-0.00116225
7.99601e-05
0.000295205
-0.000800183
0.00048639
-4.04811e-05
0.00039601
-0.000244797
-4.08787e-05
-0.000512801
0.000473646
-0.000983803
0.0010333
-0.000229428
0.000301986
0.000758247
-0.000902306
0.000189919
-1.8005e-05
0.00441323
0.00020804
0.00169075
-0.00201305
0.0018716
-9.71743e-06
0.000399521
0.00297388
-0.00328926
-2.42578e-05
1.38617e-05
-2.77874e-06
0.000803097
-4.52283e-05
-0.00166557
0.0015233
1.38657e-05
0.000173365
-0.00271374
0.000354284
0.00242559
-0.00182423
0.00225573
2.12437e-05
-0.000748502
0.0010566
-0.000442988
2.34963e-05
-0.000218561
0.000206636
-0.000196096
-0.00487761
0.00441559
0.000571242
-1.45604e-07
0.000144321
0.000107353
-1.46528e-05
5.01633e-06
-5.01633e-06
-0.00171769
-0.000674857
0.0013016
-0.00124999
-4.74517e-05
0.0026876
-0.00178435
0.000304473
-0.00236477
0.00222353
0.000344361
-0.00373071
0.00362242
-0.00226858
0.000675165
-0.000414908
0.00025095
1.75347e-05
-0.00206168
0.00251818
-0.000472594
0.000664813
0.00062175
0.000129203
-0.00321671
0.00125466
0.0020267
-0.000109463
-0.000113401
3.17406e-05
4.6814e-06
0.000167725
-0.000125708
-5.74371e-05
-0.000119062
1.37859e-06
0.00168681
-0.00120165
0.00364728
-0.00360842
6.99601e-07
-0.000420857
0.000300804
0.000245473
-0.00229444
0.00213675
0.000329917
-0.00213611
-0.00430259
0.00225254
-0.00251919
0.000155152
0.00233987
-0.000389396
-0.0021044
0.00126465
0.00208387
-0.00181452
0.00237077
-0.000250297
4.113e-05
-0.00335596
0.00362153
-0.000223321
0.000427
-0.00039232
-2.27196e-05
-0.00413344
0.000931466
0.00313874
-0.00401982
-0.000174506
0.000981715
-0.000177119
-0.00236574
-0.00091637
-0.000126559
0.0010079
-0.000246096
-0.00201867
0.000322739
0.00140886
-0.00306974
0.00148495
0.00159535
0.000238548
-0.000397138
0.000272516
-0.00213423
0.00259281
-3.07597e-05
-0.000557741
-0.002373
0.000317669
0.0020647
-0.00042936
5.02241e-05
0.000441002
-3.04944e-05
0.000288922
-0.000136129
-0.00443449
-3.39573e-06
-4.29834e-05
5.61764e-05
-0.000166239
-0.000231467
-0.00011522
0.000146593
2.76779e-05
-0.00147395
0.00182769
7.16852e-05
0.000210075
7.46739e-05
-0.000156954
6.7551e-05
-0.000564813
-0.000235129
0.000899824
-0.000390057
3.01782e-05
0.000552702
-0.0013031
-0.00172548
0.000792555
-0.000927462
0.00207107
0.000164876
-0.000638755
7.08267e-05
6.04876e-05
-0.000169658
0.000509679
0.000851467
0.00125416
0.000101838
-0.00103493
9.15513e-06
0.000131952
-0.00328341
-0.000173826
0.00352145
0.0021564
4.69226e-05
2.05011e-05
-3.79369e-05
-0.00388152
-0.000436589
-1.73231e-05
2.37123e-05
-5.22776e-07
0.000258135
-0.000968685
-6.39537e-05
-0.000662489
0.000862872
0.000142921
-9.44377e-05
-0.000317669
1.22091e-05
0.000307041
-0.000504558
-0.00182594
-0.000140399
-0.00293818
0.00199692
1.11352e-05
-0.000131986
6.14699e-05
-0.00237366
0.00190322
-0.00174473
0.00237895
-0.00050982
0.000539225
-0.00218997
-0.00229635
-0.000833184
0.00116739
0.00149643
0.00100872
-5.10001e-06
-0.0011577
0.00394928
-0.000257136
-1.44371e-06
-1.40393e-05
0.0001579
-0.000121546
0.000118038
0.000108573
0.00273138
-0.00141199
-0.00128311
0.0017122
-0.00175108
-2.71215e-06
9.03211e-05
0.00159513
-1.8671e-06
0.000179094
1.22718e-05
0.00102716
-0.0012204
0.00125722
-0.000519678
0.000958892
-0.00122854
0.00133086
-0.00300151
0.00295628
0.00075164
-0.000660794
-7.69596e-05
0.00356532
-2.80076e-05
-0.00350602
-0.00346662
0.000268354
-0.00284769
0.000465362
0.0024673
-1.45488e-05
4.68667e-05
-0.00180841
0.00172513
1.91764e-05
-7.34497e-05
-0.00120983
-0.00294212
0.000186642
-0.0016289
0.00122216
-0.00168758
-9.32853e-05
-0.000454733
0.000256584
-0.0021227
-0.000349094
-0.000124216
8.20023e-07
-0.000758411
0.00095822
-7.8886e-05
8.53868e-05
-0.00060646
-0.00158868
-0.000384712
0.0021536
-0.00173938
-6.9625e-05
0.000159748
-0.000281636
0.00016489
9.2e-06
0.000409126
-0.00272251
-0.00117326
0.00393931
-1.68551e-06
4.33641e-05
0.00179554
-0.00158304
-0.000145962
-0.00173897
0.000165164
0.00171448
0.00242764
-0.00252581
-0.000620223
-0.000219781
0.000163513
0.00237411
0.000382204
-0.00279512
-0.000403563
0.0033095
0.000153772
-0.000315115
3.60379e-06
-0.000255514
0.000416107
-0.00222481
0.00130404
-0.00395727
0.00119582
0.000643659
-0.00167677
-0.000132563
0.00204651
-0.00192602
-0.000744176
-0.000444169
0.00111808
0.000153583
-1.59629e-05
-0.000129449
-4.46215e-05
1.88511e-05
0.000227585
-0.000210828
0.000295478
3.77209e-05
-0.000122818
0.000177158
9.36307e-06
-0.000255692
0.00270739
-0.000732854
0.000175887
-0.00293595
0.00240105
0.000623271
0.000594836
1.60927e-05
-0.000581732
-4.24216e-05
0.00245202
-0.000308831
-0.000888323
0.000860091
-0.00220328
0.000988849
0.001419
0.000351243
-0.000491251
1.42383e-05
0.000820622
-0.00076821
-4.83623e-05
5.21489e-05
4.01297e-05
0.00170468
-0.00184867
0.000591975
-0.000244759
-6.85033e-06
0.000139646
-0.0035676
0.00194123
0.00183949
-0.00144182
0.00170095
-0.000230529
8.0557e-05
0.000431835
0.000131077
0.00059533
-0.000328543
3.28073e-05
0.000429853
0.000138073
1.84131e-05
-0.00333395
0.000640513
-0.000552694
-2.72835e-05
8.48785e-05
8.80297e-05
-9.82646e-05
-0.000232942
-0.00144849
-0.000427782
-0.000376609
3.9356e-06
2.51624e-05
6.53984e-05
0.00148251
-4.51936e-05
-0.00121345
-0.000312276
-0.00408106
0.000348837
0.000411313
-0.00126719
9.75811e-05
-0.00161996
0.000182684
0.00155003
0.000259329
0.00106538
-0.00174292
0.00197548
-0.00199215
0.000136604
0.0015992
-0.000373661
-0.000514452
0.00051625
1.92563e-05
-0.00152926
-0.00192057
-9.62293e-06
5.32082e-07
0.000374994
0.00330004
-0.00351178
0.00193784
-0.000587688
0.000756116
-0.000239139
-0.00045225
0.0019693
-0.00181069
-6.63965e-05
-0.00253769
-0.00260536
0.00248707
-0.000320663
-0.0020062
-0.0014852
5.71911e-05
8.36624e-05
-7.86689e-05
-8.08081e-05
0.000231755
0.000134001
1.06075e-05
-0.00016804
0.000399399
2.41648e-06
-0.000397472
0.00221397
-0.000385769
-0.00162891
0.000722779
0.00283507
-0.000306657
-0.00236723
-0.000729753
0.000838039
-4.48327e-05
-7.14617e-06
5.0044e-06
3.87349e-06
-0.00411351
0.00390677
0.000308975
-0.000684059
0.000900117
0.00177942
-2.52584e-06
-2.09993e-05
0.000447816
-0.000331812
-3.99388e-05
-0.000425759
-0.00356429
-0.00248068
-0.000183528
-0.000231876
-0.00134486
0.00238795
-0.00276412
-0.004134
0.00180187
0.00211864
-0.000260457
0.00215916
-0.0018032
0.000649621
-0.000225726
-0.000367404
0.000329685
0.000469781
0.000339633
-0.000640259
-0.000336836
4.01642e-05
-0.000551128
0.000424836
-1.62387e-05
-0.000240886
0.000453946
-0.000215386
0.000316377
0.000264476
2.11616e-05
-0.000525292
-0.0012833
0.00159738
-0.000124502
-0.00183893
0.000189479
0.00158521
-0.0014973
0.000163955
0.00136511
-0.00013955
0.000126412
2.94767e-05
-2.24195e-06
0.00294705
0.000278088
-0.000481493
0.0001777
0.00114846
-0.000314312
-0.00165386
-9.10977e-05
9.72741e-05
0.00402501
-0.00345459
-0.00032422
-0.000612168
-0.000104794
-0.00102118
-1.50785e-05
-4.3525e-05
-6.69111e-06
0.00011923
-4.65771e-05
-1.37086e-05
-0.000419262
0.00306299
-0.00259228
-1.91585e-05
-0.000120815
0.00118142
-2.65076e-05
-0.00118557
0.00112352
0.000146905
0.00390414
2.74912e-06
1.73815e-06
-5.82317e-05
-1.5177e-05
-1.14467e-05
-9.25834e-06
-0.00181611
0.00182686
0.00012575
-0.000583004
-0.00186783
-8.46981e-06
9.80351e-05
-1.31997e-05
-0.000185565
0.000258366
1.50854e-05
1.10195e-05
-2.36643e-06
0.000367954
-0.000760618
-0.00023354
-0.00122676
0.000354253
0.00031276
0.0029048
-0.00327815
-0.000353786
-0.000531767
-0.00165308
0.00222273
0.00133727
-0.000977105
-0.000186909
0.000966094
-0.0011872
0.000140578
-0.00142424
0.00152145
0.00252029
0.000278887
0.00129998
-0.00211321
0.000857511
-0.002522
0.00202937
-0.000865167
0.00208558
-0.002333
-0.00207795
-0.00230638
8.81885e-07
-8.70712e-05
-0.00156619
0.00270232
-0.00117237
-0.00151154
-0.000190009
0.0018565
-0.00193985
-0.00112683
0.00276848
-0.00161507
0.000299639
-0.00044232
-1.86107e-05
0.00254698
-0.00233678
-0.000168331
7.84112e-06
-0.000281706
0.000178468
2.41214e-05
-0.000217677
-6.07351e-06
6.21322e-05
0.000706485
-1.66295e-06
-5.83843e-06
-0.000784884
-0.00263807
0.00104915
-0.000938592
0.000860914
9.17115e-05
-5.69282e-05
-0.00374828
0.000147356
0.000887409
-0.000728053
7.57224e-05
-0.00113402
0.00151392
-6.03056e-05
-0.000174926
-5.80971e-05
-0.00101735
5.26826e-05
-0.00120292
0.000383155
-0.00286464
-0.000409992
3.66685e-05
0.000334467
0.000228347
0.000115053
0.000140057
-0.00125854
1.77864e-06
0.000198851
-4.06507e-06
-4.54393e-06
-5.81074e-05
7.82287e-05
5.99855e-05
-0.000999944
0.000842065
-0.000647421
2.55225e-05
0.000511235
0.00150616
-0.00147319
5.12738e-05
7.74625e-05
0.00164979
-0.00289651
-0.0001393
-0.00174912
5.28288e-05
-3.36865e-05
-0.000582771
-0.00104299
0.000907645
1.09938e-05
0.000129486
-0.000767436
-1.72062e-05
-0.00014406
-0.000377003
7.5232e-05
-0.00140245
0.00125636
-2.69293e-05
-0.000384433
0.00255278
0.0017583
0.0025985
0.000242453
-2.39035e-05
-0.00021899
0.000292812
-0.00206696
4.1185e-05
-9.13906e-05
-0.000276923
-0.00387506
0.00204458
0.00187756
0.00180092
0.000589714
5.474e-05
1.47724e-05
0.000135052
-1.15448e-06
0.000103115
-0.000102926
0.00177938
-0.00334351
0.00219797
-0.00249363
-6.50747e-05
-2.82459e-05
8.03425e-05
-0.000101587
5.31865e-05
-4.94211e-05
-0.000404483
-0.00237925
0.000486673
0.00188996
-4.69835e-06
2.70733e-05
0.00180657
-0.000228599
-0.000277881
-0.000347283
0.000569476
-1.67809e-05
-9.5633e-07
0.00141777
-0.00153369
-1.78504e-05
0.000221022
-0.00022538
-0.00030591
0.00337788
0.00264666
0.00106351
-0.000197133
0.000247232
-1.85761e-05
-0.000710874
0.000867788
0.000160356
-0.00020742
4.50841e-06
-3.72497e-05
-0.000263445
-2.04682e-05
-0.00060201
0.00208973
-0.000199751
-1.24813e-05
-0.00309748
0.00332088
-3.5412e-05
6.15071e-05
3.57219e-05
-0.00191725
0.000696012
0.00117272
-0.00016192
0.000464806
-0.0010046
-0.00190615
-1.86355e-05
-0.000380897
-5.92207e-08
6.12188e-08
4.67993e-06
0.0013579
-0.00138408
-0.000125071
2.2853e-05
8.84926e-06
0.00218629
-0.000707656
9.37878e-05
-0.00238955
0.000816388
0.0016529
0.00480969
-0.00464654
-0.000446662
0.000124488
-0.000244935
0.000172326
6.69074e-05
0.00129195
0.000207938
-0.000739882
-0.000149784
-0.00208491
0.00189605
0.000161303
0.00114398
-1.56873e-05
-0.001095
0.000417901
2.30334e-05
-9.77133e-05
-2.45275e-06
-0.000228591
0.00250414
-0.000485937
0.000183803
0.00020513
0.001144
2.96335e-05
0.000792908
-0.00462363
-0.0011201
-0.00078818
-0.00205453
-0.00189347
0.000129783
0.00194142
-9.35731e-05
0.00118206
0.000803579
-0.00192903
-0.000103769
6.24877e-05
0.000719491
-0.000151023
-0.00311601
0.00202286
-0.00011156
-0.00269773
-0.000304177
0.00328995
-0.0020284
-0.000166665
0.000679205
-0.00110816
0.00170666
-0.00171704
-0.000175882
9.09929e-07
-0.000106408
0.000276219
-0.000110672
-0.000416805
0.000780102
-0.000246817
0.000521709
-0.000539905
5.1014e-05
-0.00161638
0.00134403
0.000294893
0.00295646
-0.000106277
-0.00278439
-2.27609e-05
-2.6581e-08
0.000360873
-1.29433e-05
-0.000349559
-0.000551114
0.00274764
0.000954168
-0.000882072
-0.000157692
-0.000124114
-0.00278364
0.00219031
0.000962466
-0.00096863
-8.16487e-05
3.52059e-05
-0.000738158
0.00209005
-0.000668829
6.10082e-05
0.000603066
-0.000348019
-0.00275564
-7.89834e-06
-5.25902e-05
0.000834212
-0.00110838
-0.00209173
0.00162529
-4.80106e-06
-0.000638285
0.000686899
2.03863e-05
0.0010353
-0.00117804
-0.0001242
1.10239e-05
0.00013584
-3.9924e-05
-0.000174396
9.79962e-06
0.00154461
0.00417805
-4.41767e-06
-0.000127555
0.00158459
-0.00266936
0.000301068
0.00257028
-1.05526e-05
-8.72787e-05
0.000398633
-3.22941e-05
0.000417442
-0.000395992
2.93301e-05
1.18369e-07
6.48898e-06
-0.000248315
-0.00145507
4.5521e-06
1.21061e-05
0.00124978
-2.1979e-05
-0.00121578
-0.000760289
-6.9842e-05
0.000673132
-0.000692071
0.00136339
0.000115274
-0.000711578
0.000371212
-0.00101799
2.91794e-05
0.000995393
0.00208505
-0.00125992
0.000375525
-0.000254166
-0.00143194
0.000220058
0.00110527
0.000118202
-0.000106946
-2.08244e-05
2.41254e-06
-0.000564193
0.00107182
-0.00133649
0.000115117
2.66801e-05
0.000227954
1.25079e-05
-0.00096908
0.000877559
8.17722e-05
0.00132011
-0.000234027
-0.000990242
-0.000861572
0.000720222
0.000122696
0.000118202
-9.77474e-05
0.00218227
-0.000234883
-0.00181009
-0.00275741
0.000322253
-7.66794e-05
-0.00144214
-0.000820779
6.91923e-06
0.000696128
-1.08234e-05
-0.000694742
0.0024771
-0.000117735
0.000115649
-0.000817679
-4.47435e-05
-0.000304694
-0.000185061
-0.00147187
0.00184567
-0.000600199
-0.000178924
-0.003549
0.000214492
-0.000193182
-1.57395e-05
-0.00214806
-0.00281225
-0.000128485
-0.00200941
-0.000613962
0.00065183
2.05565e-05
3.61971e-07
-7.47772e-06
0.000364248
0.00195364
-0.00176787
-5.56117e-05
-0.000105533
0.0011274
-0.000793747
-0.000667159
0.00365705
-7.62362e-05
0.000288311
-0.000872408
0.000654132
-0.000347175
-0.00169736
0.00219143
-0.00253411
0.00109513
6.56047e-05
-0.000922096
0.000423374
-0.0032634
0.00379988
-0.00221552
0.000274
0.00198489
-0.000461235
0.000143725
-0.000456947
-0.00330217
0.00323085
0.000202163
0.00261581
-0.000465565
-0.00077788
-0.000105444
-7.51489e-07
-0.000188974
0.000222787
0.00208107
-0.001023
-0.000923058
-1.40506e-06
4.91218e-07
1.7399e-06
-0.000226996
-0.000783129
-0.000122061
0.000976191
0.000321701
-0.00345801
0.00334199
0.000805495
-0.000496825
-4.44033e-05
-2.98122e-06
0.00374823
0.000247967
0.000736407
-0.000760059
-6.30346e-05
0.00159819
-0.00121793
-0.000234381
1.20634e-05
-0.000311922
-0.00128499
-1.64975e-05
-1.21432e-05
1.35631e-05
-3.18192e-06
8.1836e-05
-0.000709962
-7.66157e-05
0.000728018
-2.91956e-05
0.000294893
-6.43543e-05
0.00118468
-0.000151791
-5.41638e-05
-0.000583688
0.000145432
-0.00357806
0.00353379
0.00103306
-0.00148554
0.00177524
0.000468191
0.000129981
-0.000178468
0.000101638
7.10082e-06
0.00243068
-0.00276747
0.000383585
-1.18868e-05
0.000561927
-9.79271e-05
-0.00052536
9.70557e-06
-7.60686e-05
-0.000685148
0.000570099
-0.000431181
0.00133953
0.000114679
0.000299707
-2.45201e-05
6.75768e-05
-0.00108061
-0.000213316
-0.00226949
3.33676e-06
-4.19646e-05
5.57413e-05
5.15071e-05
0.00251524
-0.000255334
1.984e-05
0.000230673
0.000898713
0.00101622
-0.00230466
0.00227897
0.000181462
-0.000332411
0.0014592
-0.00197344
0.000642278
-0.000759497
-0.000616873
-1.71132e-05
0.000804386
0.000200867
-0.00140662
0.000585075
4.43719e-05
8.68002e-05
-0.000856864
-0.00281465
-0.000365367
-0.00335898
0.000576214
-0.00158335
0.000277379
-6.87982e-05
-0.00329382
0.00309065
-0.00358443
0.00383373
-0.00350221
0.00178353
7.20957e-05
1.97131e-05
-6.83339e-05
-0.00137383
0.00114041
0.000443193
6.12196e-06
0.000447939
-0.000707096
-5.7023e-06
-0.000577983
0.0022536
-0.00208419
-0.000135202
0.00132128
-0.00143555
-8.78566e-06
8.97687e-05
0.00265291
-0.000268574
-0.00227834
-0.000565225
-0.00214778
-0.000121825
-0.000107791
-0.000153636
-0.000221064
-1.56112e-05
8.38225e-06
8.80634e-05
8.85445e-06
0.00020106
0.00230257
-8.25038e-05
-0.00164905
3.49223e-05
0.0017255
-0.000867376
-8.06112e-06
0.000897151
-0.00150407
0.00144906
0.000159242
8.38749e-05
-0.00147427
0.00148459
0.000267474
-0.00030112
-0.000251025
0.000271575
-0.000261812
9.965e-05
0.00347226
-0.0035263
0.000945326
-0.000113016
-0.000899679
0.00196084
-0.000107358
-0.00181316
6.53457e-06
-0.000473905
0.000484927
0.000107527
-0.000330736
0.00132457
-0.00166818
-0.000145538
-0.000866783
-0.00101141
-0.00202177
-0.00018501
0.000274372
-0.00199954
-0.000122102
0.00211794
0.00289029
-0.000462145
0.00243691
-0.00257662
-0.000308202
-0.000487731
2.90217e-05
-0.00346514
0.00360965
-0.00238889
-0.000297464
0.00276169
0.000185044
-0.00235794
0.00207622
-0.000285751
-0.00212048
0.00250122
9.55283e-05
5.31304e-05
0.000447284
-0.000495167
0.000348081
0.0025212
-0.00266163
-0.00219509
0.000251231
-0.000356308
-0.000159363
-0.0012166
0.00117786
-0.00236067
0.0012261
4.819e-05
0.00122377
-0.000178097
-0.00122418
0.000408596
-9.82797e-05
-0.000873472
-1.22423e-05
3.86914e-05
0.000347607
0.00107332
-0.00117424
-0.000800504
0.00313623
-0.0032339
3.24104e-06
-0.00112217
-0.000208285
-0.000967267
0.000332601
0.0013648
-9.13087e-05
-0.00116562
-0.00209572
3.4162e-05
0.00201925
-0.000120121
0.000153518
0.000933847
-0.000712264
0.00298563
-0.00136167
0.00134629
-0.000100936
0.000126983
-0.00014795
0.00135711
-0.00106761
0.00237081
-0.00219205
-0.000139425
-0.000743241
4.85561e-05
0.000752687
0.000138793
-0.000919499
0.000825567
-0.000175403
0.00174867
-0.00107593
-0.000119578
-1.21511e-05
-0.000563018
0.000137217
-0.000174362
0.000389193
-0.000327534
-3.27439e-05
-7.0212e-05
-0.00125931
0.000535156
-0.000342987
-0.000114833
-0.000829294
-0.00138906
0.00223045
-0.000375207
0.000919377
-0.000113223
0.000626431
-6.87116e-05
-0.000550705
0.000115986
0.0011237
0.00108729
-0.00108479
0.0025968
-9.07907e-05
0.00084938
0.000839294
-0.000721069
-2.46257e-05
0.00151185
-8.80351e-05
-0.00134815
-0.000731306
-7.84399e-05
0.000501402
-0.000493802
3.80585e-05
-0.000921759
0.000107234
-0.000579162
-3.81772e-05
-0.00174203
0.000312338
0.00161497
0.00154231
-0.00171838
0.000383928
-5.0387e-05
0.000599908
-0.000638519
0.0011212
-7.71354e-05
-0.00212349
0.000124211
-0.00136519
-0.00197817
6.88228e-05
-0.000599162
0.000523467
0.000104654
1.42072e-05
-0.00018653
0.00136783
8.95318e-05
-0.000824025
8.3489e-05
-0.000166349
-0.00113156
0.000866025
-0.000942654
1.24392e-05
0.0017234
0.000905855
-5.81521e-07
1.80671e-06
0.00142684
-2.41206e-05
-0.00145451
-0.00223041
0.000132215
0.00212662
0.00020438
-0.000197718
-0.00320555
-0.000425017
-2.29279e-06
0.000470818
-3.53029e-05
0.000907786
-0.00076543
0.00058646
0.00019929
0.000112531
0.000983859
0.000173608
0.000540253
-0.000516418
-0.00319483
-0.000229697
0.00124472
-0.000695967
7.23762e-05
-0.000272587
-0.00305837
-0.000605494
-0.0019455
-0.000182747
-0.00012821
0.000272516
-6.13107e-05
-0.000479747
0.00206153
-0.00186683
0.00220579
-0.000405049
0.000698469
0.00297147
-0.00265193
-0.000278119
-0.00119997
0.000772149
0.000240112
0.00316702
-5.24599e-05
-0.000674685
-8.34528e-05
5.75747e-07
0.000154444
-0.000154986
-0.00184681
-0.000535299
0.00301532
0.000250248
-7.22257e-05
0.00109102
0.000149195
-0.0012455
0.00228419
0.000149104
-0.00106038
0.000999795
0.000931589
-8.20288e-05
-0.000571732
0.000312527
-0.00226023
-7.72291e-05
-0.000141549
-0.00206347
-0.0002704
-9.24334e-06
0.000448055
0.0016041
-0.00141398
-0.000103447
2.1879e-06
-3.08544e-05
0.000166342
-0.000114403
0.00017289
2.19418e-05
0.000292058
-0.00411232
-0.000159537
0.00126898
4.96422e-05
0.00209974
1.39385e-05
0.000937762
-0.000146624
-0.000674268
-0.00244549
-0.000970759
-5.6321e-05
9.24827e-06
0.000233947
2.69694e-06
0.0011262
-0.0011852
4.36801e-05
-0.000120046
-0.000178172
-0.000175079
-3.83116e-05
-3.87315e-07
2.7683e-05
-0.00034334
-0.0033174
0.00378911
0.0027969
-0.000115327
-0.00262665
-0.00185086
0.00164809
-0.00144586
8.55757e-05
0.00148771
2.6559e-05
0.0004932
-0.000503784
-0.00169388
-0.000183914
-0.00214407
2.21101e-05
0.000495233
0.00145893
-3.9977e-05
-0.00147513
-0.0009475
0.000205427
-0.000172051
-3.69895e-05
8.55853e-06
7.6627e-05
1.26636e-05
-0.000535131
-0.000848386
0.000100884
0.000739436
0.000253199
0.000867424
9.06134e-05
-0.000109272
-0.000722761
-0.00225562
0.00214014
-0.000220907