/*--------------------------------*- C++ -*----------------------------------*\
| =========                 |                                                 |
| \\      /  F ield         | OpenFOAM: The Open Source CFD Toolbox           |
|  \\    /   O peration     | Version:  v2012                                 |
|   \\  /    A nd           | Website:  www.openfoam.com                      |
|    \\/     M anipulation  |                                                 |
\*---------------------------------------------------------------------------*/
FoamFile
{
    version     2.0;
    format      ascii;
    class       volVectorField;
    location    "950";
    object      ddtCorrDdt0(U);
}
// * * * * * * * * * * * * * * * * * * * * * * * * * * * * * * * * * * * * * //

dimensions      [0 1 -2 0 0 0 0];


internalField   nonuniform List<vector> 
9793
(
(0.0403921 0.0307919 1.91611e-18)
(0.0291836 0.0326124 -8.11196e-20)
(0.043397 0.0270385 8.54285e-19)
(-7.484e-05 -4.08399e-05 2.36333e-21)
(-0.254676 0.272058 -5.42823e-18)
(-0.00174296 -0.00763595 -5.14355e-19)
(0.000106622 7.71037e-06 1.74824e-19)
(0.000408742 0.00015922 -7.82839e-20)
(-0.000496655 0.00100433 -5.12354e-19)
(-0.285554 0.292415 -4.18199e-18)
(-0.0291945 0.0227887 3.22957e-18)
(0.0169191 -0.0885072 -1.44868e-18)
(-8.02568e-05 -3.50766e-05 -1.13444e-21)
(0.00175454 0.0031425 -3.25919e-19)
(1.54186e-05 -1.96048e-06 4.37549e-19)
(0.00227245 0.00242858 2.6278e-19)
(0.00240625 0.00324798 -2.05386e-20)
(0.00309853 0.00379828 -5.72961e-19)
(0.0640915 -0.0227879 -4.36848e-19)
(0.00231639 0.00291956 1.13374e-19)
(0.0330541 -0.0311735 -1.13787e-18)
(0.00689719 0.00318212 2.30266e-20)
(0.00130386 -0.0574764 -2.01843e-19)
(0.000274497 0.000191877 2.01942e-20)
(-0.000831909 0.00610679 4.50964e-19)
(-7.29097e-05 -2.32652e-05 -9.18958e-23)
(0.00365711 0.00183617 -5.66878e-19)
(8.35246e-05 0.00196885 -1.42032e-19)
(-0.00384868 0.0310023 -1.169e-18)
(-0.000427502 0.000987344 4.79355e-19)
(-0.0133699 -0.0253948 -2.15415e-18)
(-0.00241022 -0.049997 8.3468e-19)
(-0.0490487 0.00422207 -4.16746e-19)
(-2.54807e-05 5.43123e-06 -5.78393e-19)
(-9.94968e-05 0.0348386 3.88951e-19)
(0.0425173 -0.0281381 3.52393e-19)
(8.68432e-05 5.56066e-06 1.06902e-19)
(0.00709074 0.00256939 1.28017e-18)
(0.000844202 0.000176061 2.57472e-19)
(-3.94881e-05 -8.85666e-06 -1.42656e-19)
(-0.0151863 -0.0229117 2.69334e-18)
(2.25623e-05 -3.28375e-06 2.04989e-19)
(-6.71753e-05 -1.16829e-05 6.28307e-20)
(0.000107782 3.5178e-06 9.82864e-20)
(-5.55062e-05 -1.46354e-05 1.985e-20)
(-7.07776e-05 -2.29861e-05 2.35109e-20)
(-0.00408805 0.0333644 -5.572e-19)
(-0.0369505 0.0159535 2.45967e-19)
(-0.0573575 -0.00393633 4.18524e-19)
(-7.99795e-05 -4.06216e-05 -3.11127e-20)
(0.000219479 0.0373645 -3.85639e-18)
(-0.0280254 0.0304795 2.65118e-19)
(0.00105077 -0.00805117 9.28033e-19)
(0.000794759 0.00162104 -6.29747e-19)
(-0.0266066 0.0982321 6.694e-18)
(0.0919015 -0.0207175 3.0289e-19)
(-0.000160164 0.000240867 -1.06674e-18)
(-0.0540012 0.0102617 -2.86629e-18)
(-0.0125464 -0.0179844 -1.63496e-18)
(0.000759331 0.000145236 -1.1807e-18)
(-3.94132e-05 -4.46346e-06 2.17021e-20)
(0.00346549 -0.00677475 1.1904e-19)
(-0.0323227 -0.0148792 -2.78117e-18)
(4.69284e-05 -3.52227e-06 4.20183e-20)
(-0.148332 0.142167 -2.43313e-18)
(-0.0469745 0.00193611 -2.81907e-18)
(-0.0324664 -0.0210438 2.94192e-18)
(-0.0441094 -0.0118348 -6.84232e-19)
(0.00793648 -0.0792014 1.11322e-18)
(-0.0266701 0.0236017 -3.70513e-18)
(0.00346438 0.0951843 2.39522e-18)
(-0.00010896 8.84973e-06 -6.30497e-21)
(-0.000354966 -0.000680719 3.5028e-21)
(0.0201142 0.0297225 8.28536e-20)
(0.0040664 0.0404557 1.06599e-18)
(-0.0174794 -0.0279638 -1.9776e-18)
(-0.00012097 0.000307668 -8.77379e-19)
(0.0024041 0.00120656 1.05728e-20)
(-0.00450474 -0.000170361 3.2119e-19)
(-0.00112968 0.00219106 -2.92655e-20)
(-0.0451483 -0.0098096 -3.79193e-19)
(-0.00376553 -0.00219442 2.59711e-19)
(0.0223805 0.028743 1.18589e-18)
(-0.0214476 -0.00211239 8.5689e-19)
(-0.0124677 -0.0198026 1.2136e-18)
(-0.032994 0.00708482 2.06376e-19)
(-0.00119199 0.00271832 -7.92713e-19)
(-7.50908e-05 0.00037178 9.0904e-19)
(0.00257217 -0.00560241 -2.75175e-20)
(-0.00291199 -0.00393722 3.3066e-19)
(0.0266091 0.0500574 -1.4772e-18)
(-0.257478 0.140767 -3.99157e-18)
(-0.000686017 -0.00120874 -7.51437e-20)
(-0.0133742 -0.047058 -3.58599e-19)
(0.00330722 -0.0060055 -2.84721e-20)
(-0.0205613 -0.00546987 1.37686e-18)
(0.0770179 -0.0236015 -2.38339e-19)
(0.0237522 0.0376903 -1.94373e-18)
(-0.000568886 -0.00102216 3.4714e-19)
(-0.00101306 -8.87819e-05 6.14903e-19)
(-0.00100718 2.67197e-05 -1.21278e-18)
(0.000343396 -0.00391012 -6.43604e-20)
(0.000512043 -0.000149581 -6.58648e-19)
(0.000426627 -0.000107943 -3.36255e-20)
(0.00203843 0.00130925 -1.11528e-20)
(-0.0135579 -0.0174549 -2.14958e-18)
(0.0026219 -0.004966 1.80461e-20)
(-6.7632e-06 -1.06001e-05 9.90934e-20)
(0.00108166 -0.00710178 -3.75112e-19)
(-0.0322374 0.0490153 -6.26065e-19)
(-0.00010875 6.5063e-06 6.56989e-21)
(0.0310947 -0.0499953 -7.96322e-19)
(-0.000118472 0.000154519 -2.21786e-19)
(0.0779361 0.00499658 -2.47547e-18)
(-0.0257875 0.0335443 2.70056e-20)
(-0.000155235 0.00028304 1.03642e-18)
(-0.0457084 0.0619484 -1.96448e-18)
(0.00707961 0.0391482 -2.32697e-18)
(-0.00464765 -0.00235308 -2.30753e-19)
(-0.0154733 -0.0393444 1.15391e-18)
(-0.0386848 0.0435046 5.53248e-19)
(-6.65974e-05 9.78063e-08 7.51665e-21)
(0.000311235 0.000309993 3.29379e-19)
(-0.00235772 -0.00847488 -3.67742e-19)
(0.00102648 0.00307853 6.61472e-20)
(0.0325121 -0.0349391 6.42572e-19)
(-0.0207588 0.00468391 -1.06933e-17)
(-0.0329114 0.0025862 -2.59665e-20)
(-0.00538598 0.000112722 -9.18513e-19)
(0.000135609 -0.000341062 4.35437e-19)
(-0.000111694 2.69396e-06 6.11257e-20)
(-0.000112257 0.000356124 1.95644e-19)
(0.000139241 -0.000377488 4.08232e-19)
(0.00310547 -0.00293089 -4.89291e-22)
(-0.000396334 0.00087208 -5.62604e-19)
(-1.4556e-05 0.000443574 4.56593e-19)
(5.22236e-05 -2.85696e-06 3.54004e-20)
(0.000107884 1.20576e-06 -6.14078e-19)
(-0.00010667 0.000138866 -1.57828e-19)
(0.000122726 -6.9625e-05 -9.69405e-20)
(0.000306942 0.000274683 1.72906e-19)
(0.000500601 0.00550208 5.79322e-19)
(-3.17533e-05 3.58946e-05 2.06077e-19)
(-0.00133741 0.000597987 -1.69704e-18)
(0.0016638 0.0037234 4.57598e-19)
(0.00193941 0.00509666 6.21957e-20)
(0.0279282 0.00174246 1.24031e-20)
(-0.00139595 0.000433254 -3.99907e-19)
(-0.000103137 -0.000843758 2.60733e-19)
(-0.236638 0.108544 2.24341e-18)
(-0.0339994 0.157066 -1.00234e-18)
(-0.000110697 1.1451e-06 -1.33934e-19)
(-0.0563064 0.178537 8.36812e-18)
(-0.288577 0.309625 -3.23428e-18)
(-7.31458e-05 -0.000705776 2.50822e-19)
(-8.79466e-05 4.83698e-07 1.07592e-20)
(2.38608e-05 -4.10183e-05 -4.47976e-19)
(0.000782265 0.00493452 -7.08604e-19)
(-0.0011873 0.000266369 -1.1889e-19)
(-2.52827e-05 3.66401e-05 -2.82852e-19)
(0.000463917 0.000137627 5.57812e-19)
(0.000432932 0.00197176 -1.43535e-19)
(0.00271772 0.000620094 -1.38455e-19)
(0.0557325 -0.0218462 6.1142e-20)
(0.0271603 0.0198669 3.65932e-19)
(0.0361052 -0.0297606 8.64225e-19)
(-0.0385752 0.00965638 -2.52612e-19)
(0.00599546 0.0118691 2.17126e-18)
(0.00335923 0.0013694 3.33175e-19)
(0.000393057 -0.00245755 -6.06142e-19)
(-0.00214336 7.93599e-05 7.5102e-20)
(0.0321427 -0.162021 -4.61013e-19)
(0.0298192 0.0193701 6.12136e-20)
(0.0480398 -0.122764 -2.45413e-18)
(0.000597901 0.00277587 1.4651e-19)
(0.0602046 -0.0202056 1.51475e-18)
(-6.16785e-05 0.000426126 2.65445e-19)
(8.05521e-05 0.000250459 4.86451e-20)
(0.000111033 -0.000569445 1.2512e-20)
(-0.00506766 0.0134079 4.79733e-18)
(0.00636676 -0.113768 -2.45941e-18)
(-0.00229896 0.0030731 -7.33078e-18)
(-0.00121241 0.000114913 1.15859e-18)
(-0.000381896 0.00547684 -7.10447e-20)
(-0.0114502 -0.0184608 -9.64868e-19)
(-0.000355059 -0.000597393 -6.49522e-21)
(-0.0592503 0.0102587 1.03368e-18)
(4.69878e-05 -0.000581733 2.07321e-20)
(0.00042585 0.000230214 -3.30373e-19)
(0.00253045 0.000993498 8.95791e-19)
(0.000399679 0.00278238 4.38274e-18)
(-2.9731e-05 7.11746e-05 9.15772e-21)
(-0.0632519 0.00356589 1.86398e-20)
(0.029818 -0.0475018 1.36206e-19)
(-0.0359646 -0.0151091 3.54478e-19)
(-0.00486084 0.0126186 1.8256e-19)
(0.0600801 0.0265834 -6.66558e-18)
(-0.000973084 -0.00208108 7.89094e-19)
(-0.28849 0.333292 -3.50763e-18)
(0.000110526 -6.59696e-05 -6.79943e-20)
(-0.000335738 0.000854458 -4.92749e-20)
(0.0494485 -0.019951 1.1388e-18)
(0.0928679 -0.00905654 1.86447e-18)
(0.000173233 -0.000256067 4.77398e-20)
(1.2432e-05 0.000502921 -1.24062e-18)
(0.00173044 0.000896837 -3.34118e-20)
(0.0397832 -0.0305917 -4.51891e-19)
(-2.78497e-06 0.00207244 7.8321e-20)
(-0.0109771 -0.0152475 2.3841e-18)
(0.000734397 0.00493504 1.51195e-18)
(-0.00150895 0.0189563 -3.53138e-18)
(-0.0677811 0.0133391 -5.09051e-19)
(-0.0518098 -0.0114753 -7.08563e-20)
(0.00074539 0.00177259 2.79501e-19)
(0.0664678 0.02555 -4.3131e-18)
(7.2541e-06 -4.26176e-05 -3.29885e-19)
(0.00152408 -0.00236489 -5.51816e-19)
(-0.0239202 -0.00121532 1.01724e-18)
(0.00144046 0.000983652 2.05789e-20)
(-0.0832414 0.00791585 -1.61765e-18)
(0.0220017 0.0433483 2.42368e-18)
(0.000138943 0.000358999 2.72755e-18)
(0.000739255 0.00310376 -2.1603e-18)
(-3.26737e-05 5.2861e-05 -3.74986e-19)
(-0.0262637 -0.00200528 -6.17468e-19)
(0.0529501 -0.0199126 -3.58017e-19)
(-0.0007824 -0.00763687 3.48442e-19)
(7.99295e-05 -0.00054748 4.42121e-19)
(0.017966 0.0453861 5.03702e-18)
(-0.020944 0.0239786 -3.62335e-18)
(0.000324945 0.000288676 -4.16982e-20)
(0.000197624 0.000233658 -1.45691e-21)
(-0.00258613 0.00313199 1.71828e-18)
(8.52333e-05 -5.72643e-05 -1.03026e-19)
(-0.0243377 0.00993845 1.00959e-17)
(-0.0755656 0.0130235 -7.79802e-19)
(-6.32285e-05 0.000147435 1.09019e-18)
(-0.00152349 0.000176164 8.11255e-19)
(0.072386 -0.0314331 -5.51262e-19)
(-0.00115525 -0.00332763 9.36332e-19)
(-0.011639 -0.0133602 -1.00427e-18)
(0.000672517 0.00330957 1.67792e-18)
(-0.00118906 0.000627598 -7.27569e-19)
(-0.0491729 0.000753686 -8.79507e-19)
(-0.00118938 0.000121693 -4.24658e-19)
(-0.000290525 -0.000867071 -1.37422e-18)
(0.000370455 0.000125473 3.33948e-20)
(0.00154278 0.00475246 7.6424e-20)
(-0.000357908 -0.00103141 -1.00538e-18)
(-2.83885e-05 6.93025e-06 8.98069e-19)
(0.00278544 0.000668289 -7.72852e-19)
(-0.00066097 0.008729 -5.16394e-18)
(-0.0218708 0.0325561 1.64359e-18)
(-0.0225951 0.00706278 1.34008e-17)
(-0.000801804 0.000488719 -4.76357e-19)
(0.00920958 0.000841041 -1.24955e-18)
(-0.0018511 -0.000328957 3.37007e-19)
(-0.000569543 0.00941109 5.33886e-18)
(-0.00680953 -0.00599243 2.79153e-19)
(-0.000348393 0.00168294 -8.96788e-19)
(-0.0421344 0.0375579 4.08389e-19)
(-0.00133884 4.98339e-05 9.26503e-20)
(-0.0192492 0.0348933 -5.42392e-19)
(9.2504e-05 9.49715e-06 2.12381e-19)
(0.00572966 0.0128861 -9.95222e-19)
(0.000841794 0.000515624 -1.60465e-20)
(0.000684211 0.000564964 -2.6604e-20)
(3.06121e-06 0.0193094 4.3159e-18)
(0.0477907 -0.0213537 -1.59004e-18)
(0.00176654 -0.00444076 -4.01094e-20)
(-0.000587431 0.00162515 9.89952e-19)
(0.00119643 0.000343231 -6.06775e-19)
(0.0131035 0.00597832 -7.31315e-19)
(7.74369e-05 0.000381264 3.57338e-19)
(0.0276999 0.0500383 -3.09936e-19)
(0.0314215 0.0379161 4.64372e-19)
(0.000182053 -0.00029542 -7.52254e-20)
(0.0357244 -0.0449077 6.98179e-21)
(-2.53044e-05 3.18724e-05 -2.82654e-19)
(-0.022415 0.00508992 1.65709e-19)
(0.00166966 0.00417622 -6.1937e-19)
(0.000392484 0.00044409 -1.10576e-19)
(1.55379e-05 -8.07904e-06 -2.75349e-19)
(-4.2092e-05 -8.05786e-06 -3.01714e-19)
(-0.0201354 0.00309241 -7.3241e-19)
(0.000164154 0.000365855 9.51661e-19)
(0.00282413 0.000426706 -6.30762e-19)
(0.00322045 0.0118461 1.71057e-18)
(0.000100099 2.4611e-05 3.18471e-19)
(6.73268e-05 0.000515236 -8.0769e-19)
(-8.34084e-05 0.00015184 -7.18596e-19)
(-0.0498574 0.0393243 -2.49488e-19)
(0.00049644 -0.00571295 -2.53135e-19)
(9.35902e-05 3.97721e-06 5.75905e-19)
(-0.000109219 -1.37787e-06 1.0353e-19)
(0.00264094 -0.00342476 2.42855e-19)
(0.00214961 0.00346083 1.77171e-19)
(0.00339816 0.0124977 -1.30771e-18)
(5.75838e-06 2.81895e-05 2.25763e-19)
(0.0355483 -0.0344216 -2.21508e-18)
(8.07973e-05 -0.00066065 -4.39139e-19)
(-0.0562473 0.00204884 -3.34146e-19)
(-0.0255965 0.121238 4.6874e-19)
(-3.70793e-06 -7.03121e-06 -1.33577e-19)
(6.94232e-05 -1.02503e-05 -6.81307e-19)
(-0.00114804 0.00112198 3.00373e-19)
(0.0142837 0.00620337 -7.59119e-19)
(0.00654876 0.00815893 -1.37175e-18)
(0.00222758 0.00338281 -2.89434e-19)
(-0.0518526 0.0126494 -9.99691e-19)
(-1.21471e-05 2.37409e-05 4.03533e-19)
(-0.000976578 0.00119917 -3.70506e-19)
(0.00719381 0.00825705 -2.70293e-19)
(0.00351451 -0.000530087 7.7303e-19)
(0.00163913 0.000781651 -1.93762e-18)
(-0.00225284 -0.0034989 7.62496e-19)
(-0.0270408 0.00159645 5.8343e-20)
(-0.000529072 0.00168885 8.77635e-20)
(0.0111296 0.00682571 3.67049e-19)
(0.000415456 0.00525535 -2.15164e-18)
(-0.0003191 0.00104148 1.92725e-19)
(0.0239452 0.0309447 -1.64241e-20)
(0.0691408 0.00329457 2.79841e-18)
(0.0209513 0.0225206 1.17055e-20)
(0.00111233 0.000807851 -4.73361e-20)
(-9.11684e-05 -0.101833 -3.18283e-18)
(0.00284814 0.00354307 -9.98701e-21)
(-0.0164945 -0.00225562 5.45158e-18)
(0.0100484 0.0431822 1.14685e-18)
(0.00189857 0.000223008 3.00573e-19)
(-0.00480826 0.0030456 -5.21149e-18)
(0.0132235 0.0418112 -2.94012e-18)
(0.00052288 -0.00329752 3.27935e-19)
(-0.00953837 -0.0117748 -3.87073e-19)
(-0.0335282 0.02778 -1.23814e-18)
(0.000319922 4.76914e-05 -1.51505e-19)
(-6.60001e-05 -8.57806e-06 -5.96087e-20)
(-0.00029933 0.000778241 8.35851e-19)
(-1.37931e-06 1.9666e-05 7.42327e-19)
(-0.000203499 0.00225565 1.48757e-19)
(0.0511734 0.0335084 1.74101e-18)
(-3.71606e-06 -0.000672666 -2.01458e-19)
(-0.00034722 0.000885199 -3.76025e-19)
(0.0333405 -0.0315236 2.11788e-18)
(-0.000594058 -0.00339967 3.33923e-19)
(0.00265368 0.00211629 -7.20821e-19)
(0.00111045 0.000611933 9.94865e-20)
(0.00478205 0.00260351 -2.33675e-18)
(0.000364831 6.48341e-05 2.92335e-19)
(0.0570915 0.0350598 -1.89843e-18)
(0.00154982 0.00329438 -3.49162e-18)
(0.000579326 0.000509126 -7.13579e-19)
(0.0026423 -0.000554283 6.27584e-19)
(-0.000315541 -0.00397057 5.46426e-19)
(0.0091701 -0.150711 2.91667e-18)
(0.000658549 0.00149164 -2.46934e-18)
(0.017374 -0.010867 -1.41395e-19)
(0.000157074 0.000280672 -3.61784e-20)
(-0.0102865 0.021863 -1.47814e-18)
(-0.0729849 0.124004 -3.19819e-18)
(-0.0597815 0.0165935 4.42571e-18)
(-0.0113408 0.0229623 -2.72346e-19)
(0.00466868 0.00217415 1.92076e-18)
(0.00420548 -0.00385938 -8.55278e-19)
(0.0694622 0.0177239 -2.70847e-18)
(-3.58902e-05 -4.23678e-06 -5.97639e-19)
(-0.0465418 0.0261457 -2.69438e-18)
(-0.00223966 -0.00286448 3.03298e-19)
(7.34133e-05 -5.59871e-05 3.20695e-19)
(-0.0266968 0.136021 4.64906e-18)
(-0.00986958 -0.010232 -7.72432e-19)
(0.0754087 0.00136527 -1.98687e-18)
(0.000543081 0.000498296 4.26918e-19)
(-0.0262066 0.0107279 1.68986e-18)
(0.0413936 -0.0259426 2.20858e-19)
(-0.00819237 0.00543506 -6.39973e-19)
(-0.000282609 -0.000471735 3.75121e-20)
(-0.0496177 0.0263319 2.25935e-18)
(-0.00578062 0.00911712 1.43541e-17)
(0.0270943 0.0114527 -7.55716e-20)
(0.0090714 0.00165144 -1.02392e-18)
(0.000408265 0.00135014 -1.26253e-18)
(-0.0303377 0.112691 5.70708e-18)
(9.56176e-06 2.04637e-05 -1.9324e-19)
(0.0036285 0.00356296 -5.34282e-19)
(9.17383e-05 -4.61063e-06 -6.6704e-19)
(-3.3094e-05 -8.37021e-06 2.98591e-19)
(0.00330476 0.00230005 6.70578e-19)
(0.00048707 0.00149307 1.21319e-18)
(0.0081243 0.00181827 2.44573e-20)
(0.0157731 -0.159889 -1.65656e-18)
(0.000293177 0.00230365 -6.2619e-18)
(-0.0120674 -0.0475285 -1.28254e-19)
(-0.0445822 -0.0359832 4.81529e-20)
(0.0676302 0.0125847 -3.45308e-18)
(-0.0221581 0.0215014 4.07311e-18)
(0.0209838 0.00977256 -9.4284e-22)
(-4.9444e-05 -2.3658e-06 2.16989e-19)
(-0.000319732 0.000704513 2.93152e-19)
(0.0858208 0.0693649 2.63573e-18)
(-0.049403 -0.0282447 -6.11683e-20)
(0.000140925 0.00335234 5.07552e-19)
(-0.00131132 0.00180006 -1.41753e-18)
(0.0383753 -0.0225599 -1.54808e-18)
(0.0012614 0.000179162 -4.3674e-19)
(0.0653632 -0.0031054 -5.06868e-19)
(-0.00169383 8.59767e-05 -5.1769e-19)
(0.00793212 0.00251982 -1.79012e-18)
(0.00114033 7.47347e-05 2.91642e-19)
(0.0022765 0.0213934 -4.51453e-18)
(-6.10899e-05 -0.000666702 3.45338e-20)
(-0.00619634 0.00985791 -2.83148e-19)
(0.0356123 -0.0386519 -1.9878e-19)
(-0.000294337 0.00204192 -7.06678e-19)
(0.0112812 -0.0596049 3.75602e-19)
(0.00966792 0.00667975 5.2236e-19)
(0.00180418 0.00357505 3.97168e-18)
(0.00886335 0.00809156 7.81837e-19)
(-0.00173481 -0.002578 7.504e-19)
(0.00226044 -0.00454599 3.67111e-20)
(0.00105313 0.00525874 4.82737e-20)
(0.0463426 -0.0118085 -6.82831e-19)
(-2.77136e-05 3.0974e-05 -2.22614e-19)
(0.0017964 0.000807714 1.79745e-18)
(-0.0319186 0.0309162 -1.23708e-18)
(0.000190513 0.00121002 1.21718e-18)
(-0.00766843 -0.00515581 -4.8587e-19)
(0.00249211 0.00372482 -1.98116e-18)
(0.00246465 0.000354583 2.29332e-19)
(-0.00457909 0.0146737 -4.2591e-18)
(1.83917e-05 3.88164e-05 -3.21526e-19)
(0.00192474 0.000652957 -6.80861e-19)
(0.00085493 -0.000311575 -6.73448e-19)
(0.0492078 -0.0365072 -1.29575e-19)
(0.00218323 0.00430737 3.16854e-19)
(0.0506228 -0.0291202 1.92036e-19)
(0.000793511 -0.00235818 3.44294e-19)
(-0.081919 0.0400535 -2.73343e-20)
(-5.67447e-05 -1.02115e-05 -9.96845e-20)
(0.000200851 -0.0029185 1.6736e-19)
(8.28445e-05 -4.63223e-06 5.46575e-19)
(0.000405135 0.00223222 4.10313e-18)
(-0.0170024 -0.0302128 9.70761e-19)
(-0.00131004 -0.00190263 5.70162e-19)
(-0.0291677 0.120172 -2.43871e-18)
(0.00274925 0.00133227 -7.20853e-19)
(-0.00235808 0.00016521 -4.31268e-19)
(0.00322856 0.00382848 7.96673e-19)
(0.0383777 -0.0195088 1.94372e-18)
(-0.0147228 -0.0281957 1.15831e-18)
(-0.128044 0.107022 -7.35619e-19)
(-0.0743175 0.0250358 -1.43618e-19)
(-1.83926e-05 -0.00841825 -5.43433e-19)
(9.64817e-05 0.000109664 2.84418e-19)
(0.0203837 -0.0137605 5.09016e-19)
(-0.00335959 0.015001 5.52658e-18)
(0.00322365 0.0197809 -9.9173e-20)
(0.0277319 0.0236617 5.93372e-19)
(0.0469684 0.000815099 -5.17364e-18)
(-5.99872e-06 1.99391e-05 6.30749e-19)
(0.00682723 0.00628084 -4.64164e-20)
(-0.0260283 0.0132938 8.01127e-19)
(0.000375644 0.000338045 -1.64128e-19)
(-0.00354018 -0.00348127 -1.41127e-18)
(0.000394671 0.000265708 -5.23597e-20)
(0.000485789 -0.000255125 8.68621e-19)
(-3.52829e-05 -3.58115e-06 -6.24138e-19)
(0.0940494 0.00449132 6.49859e-19)
(-0.00546191 0.0107251 5.75137e-18)
(-0.0319639 0.0396367 -6.14414e-18)
(0.000576175 -0.000333688 -1.63678e-18)
(0.0152543 0.00493677 1.77626e-18)
(6.96161e-05 0.00020869 -7.88861e-20)
(-2.10687e-05 9.70458e-06 1.32611e-19)
(-6.71693e-05 -1.23621e-05 -2.71676e-19)
(-0.00335337 -0.00273913 7.14043e-19)
(0.0195505 -0.0149004 -8.57955e-19)
(0.00112167 -0.00260481 -2.95214e-19)
(0.00558595 0.00591683 4.54572e-20)
(0.0012912 -0.000354288 -2.24841e-19)
(3.28481e-05 -7.55595e-06 -6.80259e-19)
(-0.0097357 -0.00438212 -6.15822e-19)
(-0.0395797 0.033295 -1.97097e-18)
(9.44849e-05 2.84988e-05 1.70449e-20)
(8.27122e-05 9.0384e-05 7.09566e-21)
(-0.0278455 0.0827182 2.9449e-18)
(-0.00806186 -0.0090953 8.66699e-19)
(0.00123139 0.00336544 1.88933e-18)
(-0.0337292 -0.0104495 5.91723e-18)
(-0.0754332 0.0237234 3.95473e-19)
(0.000103046 -8.21334e-06 1.44222e-19)
(8.05652e-05 5.80434e-06 -2.00094e-19)
(0.0040882 0.00381242 1.00811e-18)
(-0.00904769 -0.00553505 -4.3804e-19)
(0.00209629 0.000680531 -6.68591e-19)
(-2.90893e-05 -1.80157e-05 3.11196e-21)
(5.40388e-05 9.28358e-06 7.98362e-19)
(-0.00091408 -0.00241851 -5.31981e-19)
(-0.00210974 -0.000282732 8.9886e-20)
(-0.000934389 0.000474985 -1.15369e-20)
(0.0255696 -0.00658618 -4.82615e-20)
(-0.0202278 0.0391729 -1.37752e-18)
(5.34718e-05 -3.68591e-05 9.23074e-20)
(-0.00852712 -0.0313208 -2.75001e-19)
(0.019214 0.0126019 -6.62214e-19)
(-0.000800456 -0.000613197 -5.14388e-19)
(0.00121954 -0.00549268 5.78503e-20)
(-0.00440935 -0.000899293 6.00942e-19)
(0.0241072 -0.0509217 1.01473e-18)
(0.00227893 0.00389437 4.89606e-19)
(0.0816315 -0.113907 -1.6181e-18)
(0.0020768 0.000422958 -2.77373e-20)
(-0.00127755 0.000441384 -4.08859e-20)
(-0.0226919 0.0266144 -3.90476e-19)
(0.000394348 0.000194533 1.28475e-19)
(-0.0120809 0.0159076 -1.97385e-19)
(-0.0185938 0.157216 7.37479e-18)
(0.0123134 0.00716115 1.92169e-18)
(-0.000907818 -0.000520006 -5.9916e-19)
(-0.0247532 -0.0713802 -3.38639e-19)
(-0.00825061 -0.00785621 -3.60111e-19)
(-0.000234919 9.14065e-05 9.15369e-19)
(-0.00185376 0.0016704 1.84432e-19)
(-0.030494 0.00176952 -7.57297e-18)
(0.000517752 0.000838438 4.28283e-19)
(-0.000177902 8.89805e-05 1.45443e-19)
(-4.10345e-06 3.74832e-05 -2.31775e-19)
(0.000439682 0.000779024 7.73982e-19)
(-0.0492068 0.0102352 5.14949e-18)
(-0.0243421 0.00761372 -1.11231e-17)
(0.0179724 0.0117589 2.15584e-18)
(0.000387903 -0.00653619 1.91208e-19)
(-0.00154549 0.00161165 2.13437e-19)
(-0.000412088 0.00133019 3.20052e-19)
(0.000412693 0.00104095 5.58744e-19)
(-0.000127703 -9.46251e-07 -8.0556e-21)
(-1.40649e-05 3.48872e-05 1.15336e-18)
(0.0147893 -0.0475926 -4.10476e-19)
(-0.065977 0.0185128 -2.60301e-18)
(0.0012886 0.000484962 3.69023e-19)
(0.00704917 -0.00157964 -1.90916e-19)
(0.0494372 0.0980972 5.23958e-19)
(0.000658699 -0.00138722 8.89253e-20)
(-0.0133942 0.0257061 -3.2914e-20)
(0.019001 -0.0103633 2.97192e-19)
(-0.000129279 6.33933e-07 2.4489e-19)
(-0.0319193 0.0246689 -3.09483e-18)
(-0.0240856 0.0536055 7.11758e-18)
(0.000116816 0.000390968 -1.98845e-18)
(-0.072838 -0.0197524 -9.26133e-18)
(0.000353468 0.000532507 9.59077e-20)
(0.0796708 -0.00166729 8.5387e-19)
(0.00202287 0.0111027 3.33183e-18)
(-0.0530305 0.152115 -7.74187e-18)
(-0.000278165 -0.000540574 -1.99242e-20)
(-0.00101805 0.000632218 5.36111e-19)
(0.00163072 0.00342309 -3.01307e-19)
(0.0177912 0.0810436 -1.35185e-18)
(0.00487426 -0.00376292 6.59241e-19)
(-0.0313182 -0.0190975 -4.20629e-18)
(-0.0460337 -0.01434 3.13736e-18)
(-0.142618 0.105291 -8.05564e-18)
(-0.0129058 0.0168893 1.36521e-18)
(0.057974 -0.161177 1.31524e-18)
(0.00496287 0.0196568 4.92746e-18)
(2.8931e-05 -3.48151e-06 -2.95106e-19)
(-0.011994 0.0105337 5.06441e-18)
(0.00629077 -0.00189193 4.03651e-19)
(-0.0431862 0.0837698 6.91286e-18)
(0.00117235 0.00135834 3.01745e-18)
(-0.0868861 0.0634182 2.85349e-19)
(0.000418333 -0.000961648 -2.2306e-18)
(-0.00565327 0.0510441 2.93233e-19)
(9.89881e-06 -9.81447e-06 -8.60679e-19)
(-0.00194662 0.00181822 4.65636e-19)
(-0.000452894 0.00113624 -5.52914e-19)
(-0.0734362 -0.0159393 2.20075e-20)
(0.000858656 -0.000844905 3.16412e-19)
(0.000127035 2.72686e-06 8.85547e-19)
(-0.00155258 0.0038454 -3.6169e-18)
(0.0013656 0.00584064 -2.28586e-19)
(-0.00583386 0.0115349 2.1548e-18)
(-0.000273913 -0.000707972 -1.27076e-21)
(0.000307587 0.000109823 -4.87552e-19)
(0.000653112 -0.00118503 8.15965e-21)
(0.000513541 -0.00112877 6.84036e-20)
(0.0693758 -0.0203266 -2.46497e-18)
(-7.83608e-05 -6.23808e-05 8.55589e-20)
(0.0408795 0.0265103 4.26676e-18)
(0.0455288 -0.0208305 3.93649e-19)
(-7.39843e-05 -5.6166e-05 1.85118e-20)
(-1.05961e-06 -1.03104e-05 7.55829e-19)
(0.0164317 0.00519266 2.64502e-19)
(-0.00118759 0.00195327 1.14999e-18)
(0.000334794 0.000248718 3.53206e-19)
(0.0031709 1.66575e-05 -8.6741e-19)
(-0.00898632 0.00429124 1.41126e-18)
(0.00134758 0.0113362 -5.63793e-18)
(-0.00257134 0.00242549 3.68023e-18)
(0.000996786 0.00600834 -1.76104e-18)
(-8.35107e-05 -8.66324e-06 6.13583e-19)
(-0.00498211 -0.00155698 -5.25387e-19)
(0.004114 0.00205703 2.18055e-18)
(0.000400471 0.00990528 -1.01708e-18)
(0.00320633 -0.00065666 -1.09151e-18)
(0.00521773 0.0028254 1.76872e-18)
(0.047997 -0.0197022 3.09685e-20)
(0.000976832 -0.00054865 2.48312e-19)
(0.0496502 -0.0115221 2.80221e-19)
(-0.00604673 0.00760037 2.11894e-18)
(0.000100118 1.08954e-05 -5.68895e-20)
(0.000331851 0.000133774 3.24173e-20)
(0.000290335 -0.000187573 -6.49676e-19)
(0.00207936 -0.00568141 1.11146e-18)
(0.00289729 -0.00621429 -7.46294e-19)
(-0.00114862 0.000288533 -4.55019e-20)
(0.000241784 -0.0032619 1.34035e-18)
(7.375e-05 0.000137507 1.30514e-21)
(-0.000583273 0.00144222 -2.68424e-19)
(-0.000229695 -0.00342886 -4.24233e-19)
(6.65415e-05 8.08127e-06 -1.94841e-19)
(0.00861075 -0.000525997 5.34732e-19)
(0.000102849 -0.0001241 3.03769e-19)
(-0.00184817 0.002026 -5.21427e-19)
(-4.17999e-05 6.75686e-07 7.68751e-19)
(0.000246783 0.00133522 -7.48165e-19)
(0.00794724 -0.000956885 -1.36082e-19)
(-0.00276278 0.00261821 -1.02894e-18)
(-0.0127164 0.0114822 1.85484e-18)
(5.8269e-05 -5.99933e-06 8.07256e-19)
(-0.000711058 0.000160777 -4.51818e-20)
(0.000315065 0.000162687 2.5284e-19)
(-0.000162284 -4.52069e-05 4.22619e-19)
(-0.000720817 -0.00185877 -3.85459e-19)
(4.43571e-05 -2.88033e-05 -1.44254e-19)
(-0.00064958 -0.00216504 7.44448e-19)
(-0.000250528 0.000811065 2.29405e-19)
(0.00101784 -0.000450872 -7.46589e-20)
(0.00071957 -0.000957744 7.86839e-19)
(-0.00227785 0.0223286 -3.58841e-18)
(-4.76355e-05 -2.59029e-06 8.14146e-19)
(3.31313e-05 -8.09577e-06 -8.22434e-19)
(0.000273936 0.000355208 5.74673e-19)
(-0.087752 0.0760084 4.7207e-19)
(-7.16579e-05 -0.000133101 -7.09238e-20)
(0.0011521 -7.89161e-05 -1.35503e-19)
(-0.0295665 0.0185943 2.7384e-18)
(0.000215811 0.000530444 -4.31547e-20)
(-0.00399964 -0.00176407 8.31532e-20)
(-0.0563701 -0.01652 -4.16079e-18)
(-0.00160842 0.00595426 2.11895e-20)
(-7.20663e-05 3.54591e-07 -2.05598e-19)
(-7.90457e-05 -1.15481e-05 5.4309e-20)
(-0.0522569 0.00569107 3.03778e-18)
(0.000327749 -0.000139235 -5.61378e-19)
(-0.0280185 0.0143742 9.3116e-19)
(-0.168781 0.139494 8.29825e-18)
(-0.00491621 0.17915 2.49207e-18)
(-0.0392103 -0.00366535 2.88481e-19)
(-0.00353626 -0.00174964 3.19567e-19)
(0.000354049 0.000408733 1.68514e-18)
(0.0497992 0.0231839 1.21697e-18)
(0.00488628 7.18021e-05 6.12123e-19)
(0.000989322 -0.000283045 3.07947e-19)
(0.0239512 0.00830736 1.3406e-20)
(-0.0811547 0.0415221 5.04759e-19)
(-0.109581 0.178589 1.50407e-18)
(0.000338708 0.000190289 1.60933e-19)
(-0.0329539 0.00201574 1.34765e-18)
(0.00032171 0.00039709 -1.17678e-18)
(0.000274582 0.000319918 -1.1143e-18)
(0.086623 0.0174391 3.05864e-18)
(6.59491e-05 1.71562e-05 1.00657e-18)
(0.0294206 -0.0199591 1.26689e-19)
(-0.00677369 -0.00327395 1.82767e-18)
(-0.0168397 0.0414379 -5.73966e-18)
(-0.000621894 0.000188397 1.72696e-19)
(0.00422721 0.0070325 -2.46343e-18)
(0.00395374 0.00169445 -2.35181e-18)
(-0.0711488 -0.0225593 -1.93744e-18)
(-0.0440279 -0.149098 -2.74133e-18)
(-0.00194531 0.000242835 -4.83598e-19)
(-0.0057236 -0.00318244 -1.54692e-18)
(-0.00981625 0.0055479 -1.53757e-18)
(-0.000280594 0.000689039 8.673e-20)
(-0.00686801 -0.00703842 1.30132e-20)
(-0.0275311 0.0172515 -8.16614e-18)
(-0.0582362 -0.0808821 -1.8322e-19)
(-0.000344161 -0.000444178 -6.92844e-20)
(-0.00951622 0.0281129 -3.96811e-20)
(0.00482041 0.000693734 -9.84331e-19)
(0.00454615 0.154053 -3.59632e-18)
(-0.00400916 0.0248479 -1.42202e-20)
(-0.0448968 0.065428 7.50883e-18)
(0.0334577 0.0400524 1.97164e-18)
(-0.00226488 0.00155322 8.18098e-19)
(0.000128967 -0.0178422 1.03478e-18)
(-0.0562721 -0.0158798 8.51458e-19)
(-8.82056e-05 -0.000151077 2.33204e-20)
(7.3768e-05 -7.67428e-06 -3.23819e-20)
(-1.71858e-05 -6.15886e-06 3.92767e-19)
(-0.00413553 0.00202153 -5.76333e-19)
(0.000792595 -0.000671978 -8.36141e-19)
(0.0996533 -0.0108801 -4.71902e-18)
(0.000798865 -0.000422821 5.30746e-19)
(0.0375601 -0.0117062 -3.31019e-18)
(-0.00437385 0.00312634 -1.50281e-18)
(-0.0362687 -0.00575954 -6.29817e-19)
(-0.0258618 0.0267211 1.0953e-18)
(0.000373141 0.00113105 1.17978e-18)
(-0.0555589 0.0960451 9.2579e-19)
(0.0604066 -0.0105243 2.44793e-18)
(0.0011118 0.00275857 -9.63191e-19)
(-0.039878 0.148283 -3.4457e-18)
(0.000843484 -0.016438 -5.23332e-19)
(-0.0414663 0.00380551 5.7026e-18)
(0.000889207 -0.000556361 -8.72153e-19)
(0.000173187 0.000468926 3.00859e-20)
(-0.0246474 0.0998705 -1.00581e-17)
(-0.000246642 -0.00194327 1.83316e-19)
(-0.0538349 -0.211584 -3.67504e-18)
(-4.4698e-06 4.89358e-05 1.43578e-19)
(0.0349589 0.0493263 -1.23927e-18)
(0.000316232 0.000331682 -2.71993e-19)
(-0.0404885 0.0208007 -1.54858e-19)
(-0.0222657 0.12299 1.07621e-17)
(-0.0020025 0.00192127 9.22955e-20)
(-0.0349506 -0.128882 -3.07841e-18)
(-1.34485e-05 2.79965e-05 2.10442e-19)
(-0.00186292 0.00396657 1.04356e-19)
(-0.01129 0.0193974 3.62077e-18)
(0.0642322 0.0281148 1.04619e-18)
(0.0509099 0.0113052 -2.14728e-18)
(-0.00162434 -0.00174191 2.6734e-19)
(0.000413381 0.000396221 -3.9937e-19)
(0.0013222 -0.000169424 2.56862e-21)
(-0.012335 0.173508 3.87306e-18)
(0.0361061 -0.026149 -1.72694e-18)
(6.61939e-05 3.9507e-06 -2.43151e-19)
(-7.53977e-05 -0.0120467 -3.43033e-19)
(-0.0176137 0.0263725 4.43168e-20)
(0.00112358 -0.000400205 -7.64191e-20)
(-0.000276519 -0.000114891 -3.12106e-20)
(0.00369582 -0.0030265 -2.50853e-19)
(0.030789 -0.0171487 -1.13152e-18)
(-0.0104156 0.0103662 -1.74451e-19)
(-0.00024453 -0.00240378 -6.21437e-20)
(4.69023e-06 2.51961e-05 -1.3902e-19)
(0.000610007 8.21608e-05 1.44152e-18)
(-0.0380455 -0.00877687 -5.96825e-19)
(0.00152537 0.124931 2.63886e-18)
(0.0233487 0.00716391 -5.0977e-21)
(-0.000188958 -8.8446e-06 1.83385e-19)
(-8.16875e-05 2.16251e-05 -2.91227e-19)
(-0.0871619 0.0959175 2.27682e-18)
(7.65514e-05 3.49355e-06 8.57051e-20)
(-0.0482283 0.12501 -2.29928e-18)
(-0.00613536 0.0292046 -2.30917e-18)
(0.0301142 -0.0183343 -2.66636e-18)
(-0.028004 0.06173 1.78101e-18)
(0.0336257 0.0514331 1.57897e-20)
(0.000340431 0.000544983 -5.78952e-19)
(0.000249096 0.00112466 -1.65418e-19)
(-0.00205876 0.00678579 5.34565e-18)
(-0.001265 0.00339258 3.62286e-19)
(0.000483195 0.0106283 8.10717e-18)
(3.27131e-05 2.60915e-05 1.65334e-20)
(-0.0336198 0.00451686 1.01689e-17)
(0.0429276 0.0501371 -5.45387e-19)
(0.00038503 9.18783e-05 -2.42288e-18)
(0.0623965 -0.0209218 -4.92236e-18)
(0.000559143 4.28483e-05 -1.63312e-18)
(0.0414946 -0.0303375 4.88522e-20)
(-0.000521054 0.00143009 2.33987e-18)
(-0.01695 0.0838793 -2.44416e-18)
(0.0103486 -0.00247238 1.10945e-19)
(-0.00535698 0.00701395 -8.5037e-19)
(-0.000607665 -0.000544745 -1.62601e-19)
(-0.005386 -0.0021308 1.52847e-19)
(0.0113851 0.0143435 1.3952e-19)
(0.0212914 0.135377 -5.67919e-18)
(-0.0598811 -0.0432854 4.6838e-18)
(0.00113677 -0.00134974 -5.08159e-19)
(0.00613938 0.0214445 -2.89402e-18)
(0.00329092 -3.48193e-05 1.39369e-19)
(0.0057196 0.00272063 -6.60372e-19)
(0.00443473 0.00742164 3.73716e-19)