/*--------------------------------*- C++ -*----------------------------------*\
| =========                 |                                                 |
| \\      /  F ield         | OpenFOAM: The Open Source CFD Toolbox           |
|  \\    /   O peration     | Version:  v2012                                 |
|   \\  /    A nd           | Website:  www.openfoam.com                      |
|    \\/     M anipulation  |                                                 |
\*---------------------------------------------------------------------------*/
FoamFile
{
    version     2.0;
    format      ascii;
    class       volScalarField;
    location    "950";
    object      k_0;
}
// * * * * * * * * * * * * * * * * * * * * * * * * * * * * * * * * * * * * * //

dimensions      [0 2 -2 0 0 0 0];


internalField   nonuniform List<scalar> 
9793
(
0.000215971
0.00452992
0.000215712
0.000141107
0.0761842
0.00015447
0.000152031
0.000140043
0.000147352
0.0745928
0.000180479
0.0169108
0.000141637
0.000149919
0.000161832
0.000147416
0.000151979
0.000157695
0.000303179
0.000149801
0.000246045
0.000155707
0.0046278
0.000131756
0.000154603
0.00014271
0.000151199
0.000143964
0.000179758
0.000147285
0.000191735
0.00430373
0.00333965
0.000154008
0.000183918
0.000281632
0.000157708
0.000155655
0.000141508
0.000144409
0.0001907
0.00016216
0.000152831
0.000153058
0.000153005
0.000144712
0.000182056
0.00406946
0.0163762
0.00014083
0.000184868
0.000184554
0.000155144
0.000148143
0.00226977
0.0121028
0.000144545
0.000190052
0.0011155
0.000141265
0.000151908
0.000154865
0.00331368
0.000149833
0.0743971
0.00340932
0.00601438
0.0133006
0.015557
0.000180754
0.00112897
0.000144883
0.000142608
0.0031175
0.000189037
0.00243982
0.000144588
0.000145031
0.000150995
0.000145341
0.00241156
0.000151197
0.00416902
0.00297308
0.000179879
0.00367467
0.000147317
0.000144681
0.000152908
0.000154546
0.00508168
0.0916472
0.000138814
0.00410756
0.000153857
0.00278659
0.00500394
0.00450051
0.000138181
0.000136765
0.000136609
0.000151338
0.000138075
0.000137773
0.000144028
0.00018002
0.000152288
0.000151927
0.000153923
0.00510182
0.000146563
0.000377339
0.000144167
0.00385519
0.000184587
0.00014467
0.00595385
0.000188533
0.0001547
0.00390337
0.00486694
0.000159358
0.000143948
0.000155626
0.000150379
0.000243926
0.000169849
0.00343328
0.000157728
0.000142462
0.00015009
0.000144758
0.000142517
0.000153781
0.000146904
0.00014478
0.000153171
0.000151278
0.000144084
0.000134221
0.00014381
0.000153747
0.000143601
0.000137916
0.000152843
0.000165171
0.0020488
0.000138004
0.000137915
0.0932854
0.00908902
0.000149834
0.0119461
0.0556628
0.00013749
0.000155567
0.000142109
0.000152854
0.000137101
0.000143098
0.000140165
0.000143999
0.000143276
0.000290498
0.00298699
0.000244279
0.00370511
0.000162549
0.000148631
0.000146045
0.000144704
0.00858813
0.00306746
0.00864056
0.000149944
0.000292047
0.000144843
0.000131425
0.000142814
0.000163081
0.117477
0.000151803
0.000137229
0.000153767
0.00697792
0.000142438
0.000180301
0.000142757
0.000143771
0.000143347
0.000149964
0.0001433
0.0171928
0.000245413
0.0105767
0.00016257
0.000245486
0.000144396
0.0480214
0.000135072
0.000146809
0.000280763
0.0115167
0.000142462
0.000144981
0.000140022
0.000268843
0.000140584
0.000172672
0.00015305
0.000168493
0.0151424
0.0169597
0.000148389
0.000255517
0.000141251
0.000147935
0.0082321
0.000139437
0.00255165
0.000202659
0.000144202
0.000150402
0.000143309
0.00320326
0.000282319
0.000154457
0.000137319
0.000203292
0.000177974
0.000132249
0.000131666
0.000152
0.000136821
0.000173744
0.00264723
0.000143925
0.000143784
0.00506942
0.000148672
0.000172592
0.000148154
0.000143497
0.00281779
0.000143128
0.000137854
0.000139871
0.000152796
0.000138318
0.000152285
0.000149304
0.000157702
0.000184014
0.000171912
0.000142603
0.000157672
0.000144253
0.000158406
0.000155801
0.000138979
0.00476615
0.000143383
0.000184157
0.000151683
0.000163338
0.00013472
0.000134196
0.000168462
0.000281803
0.00015109
0.000139197
0.000136412
0.000164224
0.000144392
0.00510855
0.00469139
0.00014253
0.000312095
0.000143904
0.000171317
0.000151957
0.000132918
0.000155845
0.000143114
0.000169419
0.00014416
0.00014929
0.000161191
0.000143001
0.00014493
0.000144002
0.00485724
0.000151978
0.000159104
0.000150477
0.00015365
0.000151369
0.000162158
0.000142764
0.000405497
0.000137603
0.00190378
0.00720189
0.000155394
0.000153282
0.000138633
0.000165614
0.000159437
0.000151017
0.00144337
0.000147671
0.000138453
0.000159795
0.000150121
0.000147659
0.000151533
0.00333813
0.000144704
0.000162517
0.000153308
0.000142942
0.0034133
0.000267358
0.00247392
0.000136688
0.117016
0.000152003
0.000157924
0.000194429
0.000139043
0.000154077
0.000193996
0.00014926
0.000164995
0.000184818
0.000139552
0.000151663
0.000146439
0.000145538
0.000144631
0.000231831
0.000142829
0.000142561
0.000403098
0.000149008
0.000147097
0.000136381
0.000152978
0.000139745
0.000242367
0.000150853
0.000144803
0.000148869
0.000151069
0.00700251
0.000147879
0.000175259
0.000131667
0.00017256
0.00526296
0.000183185
0.000174076
0.000152599
0.00015973
0.000264047
0.000151822
0.00456251
0.000148965
0.000137432
0.00795143
0.000164873
0.000282726
0.000144841
0.000174894
0.000270286
0.000160432
0.000142146
0.00401983
0.000159875
0.00236953
0.000157738
0.000147557
0.0126256
0.00014316
0.000152676
0.000152797
0.000147344
0.000151608
0.000147833
0.000156583
0.0070331
0.000149172
0.0649425
0.0036938
0.000264365
0.000177657
0.00148294
0.000143925
0.000146411
0.00117768
0.0036619
0.00014854
0.000149411
0.000369834
0.00013638
0.000380525
0.000143996
0.000156644
0.000135899
0.000170775
0.000142764
0.000160732
0.000287993
0.000140738
0.00483433
0.000177727
0.000151389
0.000176987
0.000146833
0.000151416
0.000165506
0.000244305
0.000143661
0.000147901
0.000184816
0.00014725
0.000155641
0.000151991
0.000141919
0.000164418
0.000143364
0.000148014
0.000134868
0.0047851
0.000159722
0.00417359
0.00014646
0.0187839
0.000161174
0.000147581
0.000157021
0.000149198
0.00417511
0.00014404
0.00292627
0.000144985
0.000144928
0.000152609
0.000374512
0.000205845
0.00944232
0.0163715
0.000155404
0.000142949
0.000182845
0.000164273
0.000169732
0.00411905
0.00279718
0.000146708
0.000168215
0.000175692
0.000144086
0.00015411
0.000143856
0.000137979
0.000155011
0.0144931
0.000161096
0.0100197
0.000138372
0.000166383
0.000131142
0.000152271
0.000150014
0.000151574
0.000183613
0.000147637
0.0001637
0.000136325
0.000144917
0.000158142
0.00468889
0.000144166
0.000142921
0.00624813
0.00016015
0.000150872
0.00133406
0.0177949
0.000151042
0.000154304
0.000153259
0.000158307
0.000148247
0.000155255
0.000151845
0.000145329
0.000144542
0.000142845
0.00148778
0.000188463
0.000142327
0.00527204
0.000173873
0.000137254
0.000152003
0.000151508
0.00044394
0.000151894
0.0192302
0.000139908
0.00014351
0.000180708
0.000143635
0.000168592
0.00901903
0.000163912
0.000137144
0.0667067
0.000159794
0.000138433
0.000145686
0.000176088
0.000142208
0.000138247
0.000142895
0.000141999
0.00365238
0.000173102
0.000172647
0.000153061
0.000145398
0.000143745
0.000146668
0.000145094
0.000143086
0.000236567
0.000194117
0.000136912
0.000164036
0.00262754
0.000145116
0.00245499
0.00017665
0.000144232
0.000181471
0.0108129
0.000144348
6.31222e-05
0.000133147
0.00534147
0.000160475
0.0177833
0.00014229
0.00014325
0.000151787
0.00599311
0.000160808
0.00153219
0.00172048
0.0787706
0.000169437
0.0183901
0.000169697
0.000162165
0.000164994
0.000162013
0.00560647
0.000147929
0.0201666
0.000134709
0.00554316
0.000153697
0.000150078
0.000143323
0.000193634
0.000135602
0.000143382
0.000152148
0.000154285
0.000161971
0.000142701
0.000143204
0.000144782
0.000144464
0.000309147
0.000140785
0.00421016
0.000318387
0.00014088
0.000152201
0.00016759
0.000149464
0.000143734
0.000149668
0.000160525
0.000160392
0.000151348
0.000154257
0.00013765
0.000153828
0.000151804
0.000158873
0.000149718
0.000153525
0.00332902
0.000144781
0.000248688
0.000158783
0.000153031
0.000143318
0.000139427
0.000161182
0.000164571
0.00014311
0.000148223
0.000130823
0.00014418
0.000148082
0.000142179
0.000156843
0.000133064
0.000150128
0.000155675
0.000147495
0.000156149
0.000151612
0.00016616
0.000156647
0.000142076
0.000143405
0.000137986
0.000137671
0.000145297
0.00013874
0.000142257
0.000144887
0.000135397
0.000171846
0.000144875
0.000155904
0.00014411
0.0185907
0.000141213
0.000135831
0.000179112
0.000132776
0.000147777
0.00259937
0.000154682
0.000156385
0.000149802
0.000188694
0.000139546
0.000176995
0.0806639
0.0102711
0.00473869
0.000147135
0.00014428
0.00319151
0.000157251
0.000135258
0.00168737
0.0191943
0.00973032
0.000143522
0.00017739
0.000144299
0.000144012
0.00993031
0.000142288
0.00025866
0.000189409
0.00018846
0.000141871
0.000156753
0.000151412
0.0003243
0.00755165
0.000144516
0.000192628
0.00016046
0.000141978
0.000156623
0.000177838
0.113558
0.000142061
0.00231166
0.000157307
0.01107
0.00160381
0.00540813
0.00453844
0.000145929
0.000170602
0.00258595
0.000141242
0.000142086
0.000155787
0.000152678
0.000135012
0.0162873
0.000134715
0.00245726
0.000153885
0.00342192
0.000181018
0.000146981
0.00175145
0.00465123
0.000150071
0.0151209
0.000168086
0.000181551
0.000135193
0.000132559
0.00602323
0.000145145
0.00894294
0.000141297
0.00570078
0.00013862
0.00418695
0.0064474
0.000145886
0.0743122
0.000144422
0.000152429
0.00017103
0.0025136
0.000136123
0.000138233
0.000138955
0.000136436
0.00964884
0.000407026
0.000158169
0.000160226
0.00334145
0.000135808
0.000141146
0.000155322
0.000249939
0.000172029
0.000145974
0.000144116
0.000140678
0.00367422
0.00418126
0.000712788
0.000138128
0.000140557
0.0187585
0.000142184
0.0147429
0.000178538
0.00195748
0.00552017
0.00592566
0.000141094
0.000146956
0.000155701
0.000151381
0.000159442
0.000142517
0.000177929
0.00464062
0.000137949
0.00627593
0.000140512
0.000402267
0.000148141
0.00601493
0.000159638
0.000178623
0.000142464
0.000178076
0.000574592
0.0103235
0.00340875
0.000146003
0.00017223
0.000148595
0.000154056
0.000157558
0.115505
0.000170668
0.000182
0.000140832
0.000160922
0.000143966
0.000133327
0.000153798
0.000140798
0.0897082
0.000142005
0.000154525
0.000157325
0.000153221
0.000134915
0.000191584
0.000151722
0.00015064
0.000141367
0.000141252
0.00578621
0.000141282
0.000236137
0.000138243
0.00135685
0.000143853
0.000242131
0.000146489
0.0150784
0.000148453
0.000145544
0.000140192
0.00207485
0.00693836
0.000347118
0.0772918
0.0206029
0.000145031
0.000155376
0.00607216
0.000136705
0.00586995
0.00527266
0.000191701
0.000193776
0.000153971
0.00408719
0.000161448
0.00448228
0.0054113
0.000153842
0.000148226
0.00512924
0.00042382
0.000167057
0.000156877
0.000142398
0.000159119
0.00016706
0.000145271
0.000137409
0.000151647
0.00186979
0.000170997
0.000154864
0.0106182
0.000140346
0.000139065
0.00604433
0.000270135
0.000167465
0.000150534
0.000651673
0.000138917
0.00013646
0.00631891
0.000135226
0.000153408
0.00329225
0.00263467
0.00014716
0.0025215
0.00589258
0.000226805
0.00270167
0.11698
0.000155015
0.0165865
0.000149284
0.000140655
0.000144718
0.000151516
0.000149885
0.0941028
0.000153057
0.00607771
0.000175683
0.00018076
0.000150123
0.000167733
0.000180343
0.00014939
0.000178474
0.000172143
0.000137656
0.000205295
0.000175638
0.000166075
0.000148261
0.000137511
0.00430389
0.000287972
0.000176698
0.000131093
0.000130766
0.000152031
0.000156668
0.000288064
0.000201725
0.0041661
0.000170785
0.00515675
0.000147647
0.000166798
0.00016223
0.000156639
0.000169703
0.000142529
0.000142297
0.000242873
0.000172187
0.116344
0.000141972
0.0107695
0.00739641
0.000168333
0.000171471
0.000154831
0.00029551
0.000147096
0.000158307
0.00760056
0.000167479
0.000142114
0.000770263
0.000148887
0.000137778
0.000141676
0.0727483
0.000149348
0.000158418
6.72567e-05
0.000170685
0.000160569
0.000172254
0.00310528
0.00134476
0.00323942
0.000137754
0.000147331
0.00015094
0.000180552
0.000147201
0.0204635
0.00538846
0.000154859
0.00224491
0.0021778
0.00682189
0.000147635
0.00463236
0.000143111
0.00220605
0.000181552
0.000138743
0.00736269
0.00324661
0.000139976
0.000146351
0.000145741
0.101985
0.00272639
0.000163749
0.000185777
0.000787519
0.000413428
0.115271
0.00680028
0.000147183
0.000143885
0.0909189
0.000399805
0.000142027
0.000144683
0.000138682
0.000149672
0.000147998
0.000157805
0.000265611
0.000144172
0.000161644
0.000565445
0.000148545
0.000152662
0.000159043
0.0157285
0.000147274
0.00016803
0.0033877
0.000150068
0.000137725
0.000150523
0.000141122
0.000153283
0.00675732
0.00275421
0.000151914
0.00349747
0.000172755
0.000853225
0.000143738
0.000160885
0.00015261
0.000149327
0.00473154
0.000151911
0.000154584
0.0001638
0.000154181
0.000181193
0.000158121
0.000142807
0.000184746
0.000146979
0.00014129
0.0198803
0.000142194
0.00238998
0.000172624
0.000141338
0.000287884
0.000164924
0.000166662
0.0159441
0.000135881
6.79631e-05
0.000141505
0.000143852
0.000380256
0.000408014
0.000136088
0.000146664
0.000139305
0.000148355
0.000181913
0.000152079
0.000147595
0.000153159
0.000157462
0.000150687
0.000144345
0.000137788
0.000140959
0.000142286
0.00623389
0.000158192
0.000134861
0.000171015
0.000153446
0.000418681
0.00132306
0.000165752
0.000146343
0.000142999
0.000182219
0.000156116
0.000145769
0.000148858
0.00719953
0.000961465
0.000143838
0.000133014
0.000179253
0.000189698
0.0001324
0.00325988
0.00017547
0.000146324
0.000150208
0.000207852
0.000148043
0.000167806
0.00591287
0.000154288
0.000355074
0.000220246
0.00101349
0.000133157
0.00014422
0.000133002
0.000132907
0.00213087
0.000142285
0.00118483
0.00018581
0.000132868
0.000150527
0.00018406
0.000151152
0.000148283
0.000143679
0.000152812
0.00556975
0.000133055
0.000146374
0.00573964
0.000153757
0.000147882
0.000178438
0.000142345
0.000148068
0.00014268
0.000145923
0.000183534
0.000152255
0.000196794
0.0140753
0.000133304
0.000144468
0.000133164
0.000205663
0.000141265
0.000159089
0.000143815
0.000136496
0.00019299
0.00013757
0.000163526
0.000144553
0.000137775
0.00115715
0.0110577
0.000147371
0.000146017
0.000140882
0.00242054
0.000212872
0.00014367
0.00519193
0.00295593
0.000154221
0.000499945
0.00744033
0.000157776
0.0065896
0.000197329
0.000247782
0.00014269
0.000176115
0.000191765
0.000137292
0.00144673
0.107715
0.000143809
0.102519
0.096626
0.000169879
0.0068993
0.000133683
0.000162213
0.000182902
0.000142799
0.0051807
0.000134259
0.000172813
0.000200486
0.000133316
0.010448
0.000149802
0.000149153
0.000167976
0.000155669
0.0938202
0.0792672
0.000138489
0.000157482
0.110956
0.000139413
0.000157111
0.000140383
0.00709565
0.0159723
0.000172847
0.000150896
0.000157301
0.116419
0.0993565
0.000162915
0.000133467
0.00014094
0.0852431
0.00214009
0.00152523
0.00015475
0.000155028
0.000159607
0.000136947
0.000154706
0.000171093
0.000155389
0.000142177
0.000170809
0.00306073
0.000226267
0.000141069
0.0262989
0.000158222
0.000227204
0.113053
0.000183324
0.00419589
0.0182682
0.000133773
0.000188695
0.000188682
0.0011289
0.00130524
0.000143907
0.000139516
0.00767688
0.00018144
0.000161013
0.00109514
0.00662121
0.000141909
0.000158552
0.000156888
0.000142755
0.000180096
0.000143631
0.000154498
0.000138626
0.000134776
0.00014929
0.000144578
0.000154087
0.000158245
0.00322023
0.000169447
0.00728743
0.000140555
0.000159474
0.000147452
0.0939669
0.0220506
0.000142588
0.00018315
0.000151649
0.000135616
0.000143179
0.00013602
0.000142223
0.000203952
0.000147911
0.00384213
0.000147482
0.000140766
0.00315891
0.000154679
0.000149196
0.000141942
0.000144055
0.00105122
0.000179489
0.0100033
0.0475236
0.0124071
0.000146942
0.00014872
0.000152225
0.000156585
0.000197762
0.000182041
0.0720655
0.000141303
0.000181413
0.000151457
0.0038383
0.10514
0.000156973
0.0999503
0.0027393
0.000158172
0.000179772
0.000142365
0.000175683
0.000157085
0.000188428
0.000175065
0.000134302
0.0944187
0.00121447
0.000148394
0.000153218
0.000150086
0.0575164
0.000152103
0.000148923
0.00621975
0.000140234
0.0119927
0.000173468
0.00016431
0.000151127
0.000149488
0.00707666
0.00014227
0.00703914
0.000156712
0.000143983
0.00013953
0.00139516
0.000153517
0.0765566
0.000154613
0.00017007
0.00016028
0.000194363
0.000153881
0.000144591
0.00115335
0.00014828
0.000137286
0.000330341
0.000897074
0.000169859
0.000138067
0.00015373
0.0002393
0.000198621
0.000142091
0.00150934
0.000152634
0.000199089
0.000271942
0.000150273
0.000142121
0.000192854
0.00014121
0.000139556
0.000143839
0.000184519
0.0713608
0.000234897
0.000167558
0.000149021
0.00015063
0.00751793
0.000176368
0.000151482
0.000148545
0.000141759
0.000247003
0.00192372
0.00125485
0.000142908
0.000368848
0.000135701
0.000135791
0.000159568
0.000150458
0.000178664
0.000143675
0.00026923
0.00377656
0.105922
0.000156463
0.000146656
0.000147199
0.000177442
0.000138474
0.000144354
0.000175069
0.000146996
0.000143475
0.000152091
0.000167261
0.000135854
0.111923
0.000172978
0.000169367
0.00015538
0.000248032
0.000154565
0.00181826
0.00014407
0.00014312
0.000146365
0.000141896
0.000146072
0.000142179
0.000597422
0.000196066
0.000147693
0.000150431
0.000144045
0.000169901
0.000155046
0.00019489
0.000151253
0.11556
0.00014339
0.000150221
0.00014919
0.000190316
0.00014613
0.109039
0.000145717
0.000147309
0.000130841
0.0966849
0.000155444
0.000333108
0.0830605
0.000150845
0.000146096
0.00014225
0.000144451
0.000234589
0.00015005
0.000158538
0.00287645
0.000147634
0.000205353
0.000788591
0.000156293
0.00016716
0.000147671
0.000155362
0.000141843
0.000137087
0.000135772
0.000143849
0.00216728
0.000192637
0.000140493
0.00121906
0.00673626
0.000142894
0.000217831
0.000136784
0.00017485
0.000151975
0.000141344
0.000222414
0.000146968
0.000157278
0.000158938
0.000198102
0.000184654
0.00015099
0.000141346
0.000153255
0.085844
3.96184e-05
0.000169187
0.00015976
0.000146058
0.000144606
0.00367964
0.000149298
0.000166154
0.000257788
0.00489758
0.000146628
0.000169143
0.000147146
0.000149915
0.000173492
0.000166454
0.000172307
0.000151078
0.000150049
0.000160876
0.00798965
0.000210573
0.000137377
0.00015788
0.000186103
0.000156372
0.000178632
0.000148177
0.000149368
0.000143663
0.000207754
0.0115783
0.000201551
0.000146893
0.000226808
0.00016997
0.00016235
0.000146651
0.000143739
0.000143701
0.000140391
0.000194794
0.000167627
0.000153125
0.000151202
0.000144515
0.00014631
0.026371
0.000144047
0.000144321
0.000149632
0.00195262
0.000441256
0.000145769
0.000143887
0.000145692
0.000462309
0.000151397
0.00134977
0.000146651
0.000191715
0.00014602
0.000148826
0.000203634
0.00014899
0.000168449
0.000148878
0.000144772
0.000136972
0.000153927
0.00266167
0.000149784
0.000150742
0.00291029
0.000147937
0.000152755
0.000150876
0.000148502
0.000144497
0.000151011
0.0106665
0.000139724
0.000140321
0.000140692
0.000421338
0.000158581
0.00590936
0.00014731
0.000149277
0.0114643
0.00655739
0.00332
0.00015912
0.000171076
0.00310507
0.00014731
0.00191551
0.000151076
0.000192215
0.000141649
0.000373448
0.000618361
0.000130975
0.000157784
0.000176525
0.000152764
0.000137179
0.00583171
0.000140788
0.0030564
0.00014867
0.000144211
0.000149786
0.000137473
0.000149907
0.000523955
0.000144358
0.000142034
0.000142169
0.000148363
0.000144031
0.000184037
0.0104222
0.00108817
0.000147315
0.000148329
0.00015619
0.000145881
0.000144076
0.000192684
0.000173191
0.000153034
0.000143272
8.28581e-05
0.000154573
0.000296422
0.00781996
0.000154684
0.00013648
0.000142999
0.000189041
0.000596348
0.000146784
0.000142896
0.00164133
0.00012515
0.000175037
0.0231244
0.000143819
0.00016512
0.000163255
0.000135564
0.000149246
0.000385565
0.0110976
0.000261487
0.000143205
0.00676338
0.000149365
0.000147198
0.000170743
0.000150238
0.000171277
0.000187707
0.00014312
0.000145492
0.00014452
0.000140652
0.000135356
0.000143608
0.000160958
0.000666551
0.000317157
0.000130804
0.000135435
0.000142908
0.000149866
0.000144286
0.000321166
0.000150418
0.000150582
0.000150461
0.00302148
0.000143022
0.000156514
0.0165179
0.000143332
0.000143579
0.00147124
0.000144186
0.000143749
0.000142637
0.094404
0.000358225
0.000179634
0.000149775
0.00025116
0.000146145
0.000135507
0.000137453
0.000143377
0.000188114
0.000143142
0.000148102
0.000175456
0.000144652
0.00167293
0.000169112
0.000167321
0.000149115
0.0002332
0.000164331
0.000146929
0.000141931
0.000150535
0.000147412
0.0001442
0.000206768
0.000140724
0.000203723
0.000142471
0.000147894
0.0332953
0.000141931
0.000219868
0.000184757
0.000143903
0.010434
0.000142343
0.000148789
0.000142972
0.000149634
0.000139453
0.000144405
0.000144392
0.000145468
0.000273383
0.00014699
0.000140689
0.000149677
0.000140066
0.000142718
0.000142784
0.000144354
0.000137848
0.000143143
0.000143881
0.000143738
0.000143347
0.000150679
0.000415269
0.0001482
0.000149851
0.000234071
0.000579553
0.000146544
0.000189221
0.000141068
0.000146926
0.000143733
0.000146451
0.0190004
0.000500703
0.000141775
0.000154365
0.00714539
0.000148046
0.00184047
0.00602272
0.000135817
0.0167992
0.000146368
0.00638058
0.000158918
0.000877859
0.000261124
0.00586772
0.000141082
0.000142031
0.000140554
0.000160298
0.000198544
0.000153501
0.000560874
0.0047626
0.000144036
0.103584
0.00174876
0.000173935
0.000137124
0.000173573
0.000172279
0.000144161
0.000141685
0.000150522
0.000166935
0.000165817
0.000170929
0.000164677
0.000168826
0.00132973
0.000142412
0.000144138
0.000142307
0.0996081
0.000170472
0.000171568
0.0521588
0.0023053
0.000920598
0.000141992
0.000170342
0.000142986
0.0001674
0.000143622
0.000151574
0.00170971
0.000159569
0.000209963
0.000134879
0.0036294
0.000183973
0.000190025
0.00366609
0.0140446
0.000142219
0.000143591
0.000143572
0.0157311
0.000144392
0.000140179
0.000143747
0.000168989
0.00341955
0.0030952
0.000170001
0.00024042
0.00332467
0.000177276
0.00433391
0.000144623
0.00133033
0.000171105
0.00583006
0.00395122
0.000141768
0.000141864
0.000142491
0.007004
0.000268791
0.00112454
0.000144028
0.000143228
0.000144222
0.0839007
0.000142495
0.00014389
0.000141846
0.000174843
0.00014114
0.000142368
0.000136664
0.000161009
0.000231534
0.000166872
0.000164082
0.000146405
0.00615973
0.000184953
0.000140812
0.000143285
0.00170797
0.00491498
0.000148041
0.000148417
0.0741559
0.000143596
0.000141481
0.000141452
0.000146244
0.000866344
0.000141109
0.000147635
0.000142051
0.000148856
0.000143798
0.000142458
0.000141369
0.000143566
0.000145268
0.00520758
0.000142779
0.000138909
0.000585764
0.000191476
0.000147631
0.000178268
0.000141282
0.000110449
0.000142996
0.0001927
0.000141835
0.0108685
0.000143324
0.000142799
0.000135307
0.00648446
0.000170109
0.000142772
0.000221959
0.000143776
0.000135543
0.000143981
0.000150116
0.000163787
0.0001416
0.0118207
0.000145811
0.000307019
0.000194348
0.000145447
0.000165483
0.000141002
0.000139012
0.000142533
0.0134791
0.00018431
0.000285533
0.000219476
0.000221894
0.000159409
0.000380203
0.000171309
0.000144273
0.000133258
0.0928221
0.00586826
0.000140908
0.000186498
0.000142357
0.000141771
0.0103913
0.000138611
0.000144133
0.000143424
0.000693521
0.0178529
0.000144779
0.00014164
0.00113475
0.000141227
0.000142329
0.000217985
0.000143921
0.000851515
0.000227081
0.000421134
0.000143769
0.000152236
0.00014208
0.000137152
0.00025702
0.00014759
0.000143955
0.000176036
0.000139163
0.00039579
0.000145391
0.000152932
0.000168796
0.0222181
0.000167972
0.000149137
0.00548638
0.00222789
0.000144276
0.00324137
0.000148696
0.000144016
0.000145339
0.000142051
0.000169993
0.000212821
0.00255762
0.00014361
0.000170139
0.000149711
0.000132398
0.000142128
0.00014488
0.000169542
0.000139707
0.000144548
0.000150397
0.000146357
0.00815791
0.000143663
0.000151168
0.000189594
0.000152122
0.000135577
0.000319046
0.00032955
0.00354611
0.000239312
0.000180011
0.000138892
0.000151597
0.0037376
0.0189925
0.00423685
0.00471939
0.00225091
0.000146094
0.00673627
0.0144924
0.000147525
0.0013969
0.000150675
0.021444
0.00122001
0.00866708
0.000151007
0.000142591
0.000188735
0.000144598
0.000145675
0.000976814
0.0102244
0.000144171
0.00014452
0.000144278
0.000762295
0.000143061
0.000142544
0.000142841
0.000141156
0.000141556
0.000980254
0.000149646
0.000141088
0.000145785
0.000169753
0.000704745
0.0217069
0.000144287
0.000143328
0.0001541
0.000144
0.000141359
0.000141856
0.00184867
0.000143848
0.000174328
0.000142123
0.000146673
0.00013633
0.000144695
0.00746182
0.000818143
0.000137955
0.000148711
0.00404184
0.00178613
0.000215387
0.0200222
0.000144893
0.000169934
0.000142108
0.000132317
0.000142837
0.000135768
0.000141821
0.000143115
0.000148439
0.000361646
0.00013571
0.00763638
0.0224154
0.000136925
0.000204316
0.000183292
0.000150481
0.000142139
0.000142469
0.000148109
0.000143245
0.00284128
0.000133766
0.00014401
0.000507113
0.000142117
0.000143679
0.000140966
0.0102142
0.000144132
0.000143919
0.0211601
0.000139006
0.00013838
0.000142799
0.00106256
0.000143212
0.000131593
0.000142017
0.000136617
0.00250003
0.000318107
0.000141832
6.46142e-05
0.000132939
0.000143683
0.000156663
0.00502871
0.00649556
0.000134773
0.000164465
0.000143917
0.000142542
0.000143064
0.000141922
0.00312177
0.00262505
0.000144551
0.000150358
0.000273126
0.00014072
0.000142364
0.000169058
0.000165615
0.0155338
0.000144667
0.000157346
0.00324361
0.000142326
0.000169975
0.0163684
0.000244501
0.000142421
0.000141416
0.000145002
0.000143624
0.000141166
0.00477144
0.000142172
0.00424459
0.00557226
0.000149546
0.000169281
0.00424889
0.000158461
0.000332701
0.000190039
0.00109525
0.000161014
0.000142566
0.000154691
0.00383952
0.000139747
0.000360528
0.000141292
0.000135427
0.000134376
0.000135109
0.000142322
0.000848701
0.000148268
0.00943026
0.00412829
0.000184923
0.0113588
0.000132613
0.000143772
0.000153014
0.0066469
0.000142397
0.0166138
0.000197212
0.000135039
0.000140936
0.00545671
0.000141174
0.000215922
0.00124964
0.000141725
0.00352398
0.000150025
0.000191546
0.000208979
0.000144102
0.000138378
0.000208651
0.000209655
0.000144172
0.000154718
0.000135056
0.000173492
0.000140641
0.00017682
0.000142079
0.000142742
0.000354594
0.000135301
0.00322579
0.000144279
0.000142236
0.000144245
0.00530912
0.000141845
0.000140883
0.0184042
0.000208772
0.00564914
0.000148869
0.000135525
0.00017852
0.0127164
0.00257214
0.0135723
0.000163326
0.000166504
0.000147831
0.000143445
0.00017136
0.00014959
0.000144002
0.00013688
0.000203668
0.00017166
0.000141006
0.000131207
0.000147441
0.00013824
0.000149334
0.000177034
0.000283863
0.0170924
0.000209393
0.000327945
0.00699516
0.000138902
0.000141011
0.0001512
0.000174895
0.000137092
0.000149469
0.000140734
0.000142356
0.000142341
0.000180986
0.000144442
0.000233483
0.000143052
0.000141512
0.000794234
0.000178363
0.000150556
0.000141631
0.000140574
0.00735291
0.00340027
0.00014705
0.000135704
0.000181163
0.000141076
0.000142989
0.000141619
0.000140939
0.000140989
0.000140404
0.00200236
0.00013765
0.000194523
0.000169991
0.000141944
0.000144089
0.00388614
0.00022837
0.00204178
0.0125293
0.000168843
0.000154008
0.000148394
0.000142825
0.000219238
0.000140828
0.0172442
0.0176181
0.000153732
0.000253911
0.0032596
0.000141214
0.00861422
0.000173147
0.0707116
0.000178565
0.000140006
0.000140355
0.000149489
0.000141819
0.000231756
0.00907779
0.000212673
0.000143883
0.000141949
0.000140357
0.000242983
0.000173142
0.00123494
0.000140571
0.00014865
0.000212671
0.000142983
0.00493109
0.000230523
0.000140835
0.00014568
0.000132136
0.000145039
0.00102055
0.000262638
0.000140491
0.000142333
0.000139199
0.00418744
0.000142207
0.00015563
0.000367422
0.00056797
0.00248728
0.000473437
0.00171768
0.000142877
0.000163763
0.000147168
0.00014281
0.000153654
0.000321811
0.000137504
0.00014338
0.000220834
0.000144542
0.000144849
0.00192353
0.000138372
0.000143739
0.000220512
0.00272289
0.000135868
0.000135456
0.000184013
0.000186288
0.000194926
0.00507323
0.000197659
0.00518774
0.000140803
0.000524334
0.000221074
0.000227756
0.00295871
0.000191906
0.0119965
0.000305972
0.105381
0.000138476
0.000141007
0.000136786
0.000143951
0.000306016
0.000139713
0.000187312
0.000146892
0.000154494
0.000145271
0.00211414
0.000143218
0.00108964
0.000169228
0.000189116
0.000486537
0.000355473
0.00338061
0.000131856
0.000178683
0.000143663
0.00313009
0.000146171
0.00019695
2.42987e-05
0.000190652
0.000654935
0.000139972
0.0070334
0.000169763
0.00019214
0.000145084
0.0126465
0.000147291
0.000140533
0.000142621
0.000311985
0.000146675
0.000229606
0.00023123
0.000178185
0.000226984
0.000139824
0.0001354
0.00402081
0.00019192
0.00182895
0.0047434
0.000141513
0.00312098
0.00339141
0.000185984
0.000139165
0.000230132
0.000787389
0.000139834
0.00019466
0.000132494
0.00231957
0.00783
0.00629456
0.000227972
0.000139933
0.000138897
0.00014909
0.000135228
0.000164734
0.000170104
0.000150952
0.000137521
0.00629103
0.000157188
0.000148665
0.000211235
0.00128363
0.000157127
0.000168841
0.000191869
0.000183634
0.0123201
0.000140134
0.003619
0.000143089
0.000172531
0.00103741
0.000152785
0.000768619
0.00013698
0.00013599
0.000140529
0.000140139
0.000139019
0.000141111
0.000132244
0.000321375
0.000169698
0.000141557
0.00685453
0.000141121
0.000150121
0.00013873
0.022119
0.00014403
0.000154389
0.000226867
0.000238052
0.000140256
0.000132383
0.0231407
0.000143698
0.00860369
0.00401832
0.000150106
0.000148721
0.000190234
0.000122558
0.000304249
0.00013648
0.000138636
0.00015791
0.000168539
0.000154343
0.000273359
0.000227669
0.000161076
0.000148584
0.000179216
0.000151193
0.000215637
0.00497926
0.000138031
0.0109403
0.000218538
0.000142986
0.000140812
0.0001417
0.000141294
0.000138651
0.000141723
0.000139456
0.000156473
0.000232325
0.000162742
0.000146672
0.000154577
0.000157607
0.000138398
0.000139189
0.000234921
0.000153352
0.000173014
0.000138153
0.000152795
0.000137935
0.000135008
0.00599693
0.000143666
0.00014135
0.00367691
0.00509755
0.00246514
0.000140718
0.016687
0.00014682
0.0161239
0.00622013
0.000151906
0.00665885
0.000139012
0.000136162
0.0138477
0.000139823
0.000187368
0.000391751
0.00501919
0.000170102
0.00553039
0.00014934
0.000140925
0.000154423
0.000138738
0.0054041
0.00187542
0.00014044
0.00674348
0.000257628
0.000131968
0.000139002
0.000259914
0.000263475
0.00684491
0.000183029
0.00351604
0.00759815