/*--------------------------------*- C++ -*----------------------------------*\
| =========                 |                                                 |
| \\      /  F ield         | OpenFOAM: The Open Source CFD Toolbox           |
|  \\    /   O peration     | Version:  v2012                                 |
|   \\  /    A nd           | Website:  www.openfoam.com                      |
|    \\/     M anipulation  |                                                 |
\*---------------------------------------------------------------------------*/
FoamFile
{
    version     2.0;
    format      ascii;
    class       volScalarField;
    location    "950";
    object      nut;
}
// * * * * * * * * * * * * * * * * * * * * * * * * * * * * * * * * * * * * * //

dimensions      [0 2 -1 0 0 0 0];


internalField   nonuniform List<scalar> 
9793
(
0.00186877
0.0185144
0.00183423
0.00671285
0.0351242
0.00433417
0.00689398
0.00673111
0.00583905
0.032786
0.00179207
0.0200974
0.006721
0.0070997
0.00699744
0.00704546
0.00701188
0.00712158
0.00261356
0.00709704
0.00321878
0.00252665
0.0143727
0.00671741
0.00690745
0.00673585
0.00714438
0.00686176
0.00127212
0.0067989
0.00297343
0.0136722
0.0101068
0.00697095
0.00143856
0.00340711
0.0069505
0.00255378
0.00676971
0.00682717
0.00320556
0.00700398
0.00685292
0.00690389
0.00685587
0.00676182
0.00132095
0.0138132
0.0213587
0.00670921
0.00131243
0.00157804
0.00375911
0.00631249
0.00353443
0.0157246
0.00673769
0.00191451
0.00357505
0.00676554
0.00694432
0.0036237
0.0064542
0.00681818
0.039036
0.00963298
0.0106703
0.0192336
0.0190765
0.00171927
0.00254051
0.0069266
0.00674444
0.0133291
0.00131848
0.0063326
0.00674102
0.00707423
0.00697057
0.00687916
0.00729389
0.00699706
0.0178544
0.0107829
0.00256926
0.0126921
0.00690775
0.00674599
0.00431156
0.00705515
0.0197483
0.0379412
0.00678725
0.013336
0.00384013
0.0103131
0.00806688
0.0186097
0.00676943
0.00674268
0.0067401
0.00699401
0.00674753
0.00673931
0.00705997
0.00294331
0.00435688
0.00693068
0.00414448
0.016505
0.0069479
0.00115284
0.00672798
0.00668005
0.00144449
0.00674175
0.0152546
0.00135854
0.00702763
0.0128854
0.0158686
0.00706084
0.00674174
0.00404946
0.00388986
0.00364806
0.00272674
0.0119562
0.00698986
0.00673051
0.00698642
0.00674632
0.00673302
0.00701633
0.00679563
0.00675059
0.00685458
0.00688302
0.00672686
0.00671057
0.00673907
0.00691426
0.00675844
0.00678221
0.00716155
0.00747693
0.0127756
0.00678376
0.00675855
0.039009
0.00747286
0.00698134
0.0088131
0.0249937
0.00674672
0.00705681
0.00685221
0.00691813
0.00675745
0.00675259
0.00673688
0.0068635
0.00695228
0.0027715
0.0139071
0.00335328
0.0127526
0.00178353
0.00708514
0.00689011
0.00680165
0.0157363
0.0144458
0.0160053
0.00422293
0.00270169
0.00675049
0.00670257
0.00674158
0.00182506
0.0410597
0.00314279
0.00675883
0.00691113
0.0136916
0.00674107
0.00181256
0.00674078
0.00674199
0.00695368
0.00421943
0.00671524
0.0224903
0.00179658
0.0159928
0.00184156
0.00251654
0.00685584
0.0216951
0.00672656
0.00679409
0.00295228
0.0153113
0.00672828
0.00675584
0.00694361
0.00343741
0.006867
0.00280816
0.00289492
0.00147808
0.0204155
0.0218914
0.00539832
0.00247679
0.00684619
0.0069264
0.0151444
0.00692716
0.00597283
0.00149821
0.00674181
0.00384384
0.00671506
0.0113097
0.00284784
0.0043669
0.00673875
0.00147503
0.00153482
0.00672769
0.00671227
0.00293875
0.00676044
0.00240807
0.00624428
0.00672528
0.00679023
0.00812594
0.00694179
0.00315961
0.00704009
0.00678857
0.00875147
0.00677481
0.00675989
0.0067281
0.00692082
0.0067715
0.00694707
0.00553779
0.00212124
0.0014973
0.002519
0.00676654
0.00235037
0.00679419
0.0020263
0.00473265
0.00682287
0.0159818
0.00678063
0.00140475
0.00697251
0.00155026
0.00679361
0.00677587
0.00144131
0.00296913
0.0055404
0.00682652
0.00676981
0.00173932
0.00674375
0.0196497
0.0184272
0.00673061
0.00208501
0.00673043
0.00267673
0.00692344
0.00674379
0.00696983
0.00680895
0.00279191
0.00674117
0.005647
0.00181865
0.00676359
0.00675652
0.00672636
0.0130081
0.00508253
0.00697751
0.00698937
0.00701761
0.00350358
0.00176464
0.00671651
0.0027042
0.00674652
0.00886094
0.0168963
0.00695066
0.00692586
0.00680723
0.001623
0.00201976
0.00692438
0.00791379
0.00678265
0.00680247
0.0018973
0.00509976
0.0068323
0.00699298
0.0116891
0.00682277
0.00180378
0.00292189
0.00678312
0.0141762
0.00257905
0.0117759
0.00684501
0.0384102
0.0033284
0.000916703
0.00134686
0.00684667
0.0025248
0.00139172
0.00695289
0.00298561
0.00166248
0.00672289
0.00684255
0.00678689
0.0068623
0.00687065
0.00208174
0.00674417
0.00677321
0.00272011
0.00695035
0.0070377
0.00683973
0.00331652
0.00672634
0.00234209
0.0037097
0.00676432
0.00652165
0.00699334
0.0137388
0.00660004
0.00194384
0.00670986
0.00154371
0.00516511
0.00166534
0.00148155
0.00327616
0.00708746
0.00253305
0.00692845
0.0156071
0.00694269
0.00677236
0.0183097
0.00340705
0.00251967
0.00676485
0.0024826
0.00353446
0.00592249
0.0067341
0.0114101
0.00201952
0.0127083
0.00234826
0.00647565
0.0196167
0.0067253
0.00314386
0.00696948
0.00687349
0.00715401
0.00622095
0.0024919
0.0138483
0.00435805
0.0338253
0.0132902
0.00255513
0.00164598
0.0096271
0.00682925
0.00678632
0.00333728
0.0133438
0.00705065
0.00399845
0.00290269
0.00677131
0.00117782
0.00679241
0.00241859
0.00675901
0.0013782
0.00674332
0.00198158
0.00367166
0.00686956
0.0146961
0.00696762
0.00350155
0.00691404
0.00689999
0.00524756
0.00748147
0.00308692
0.00672724
0.00683337
0.00146495
0.00680923
0.00470363
0.00333054
0.00692063
0.00163398
0.0067596
0.00683801
0.00673758
0.0146129
0.0073429
0.0134984
0.00689844
0.0249148
0.00693238
0.00692023
0.00696358
0.00490919
0.00951869
0.00684965
0.00390768
0.00699125
0.00680567
0.00313575
0.00290423
0.003156
0.00671142
0.0218165
0.00380594
0.00671977
0.00201038
0.00163664
0.00141306
0.0175437
0.0123709
0.0067729
0.00698786
0.00220557
0.00674583
0.00705774
0.00674249
0.00674772
0.00696228
0.0178648
0.00190626
0.0171552
0.00675824
0.00176074
0.00669549
0.00694843
0.00694731
0.0069997
0.00210443
0.00692253
0.00698667
0.00677701
0.00675766
0.00430881
0.0154363
0.00677867
0.00671913
0.0152455
0.00345874
0.00367682
0.00343541
0.0236401
0.00696629
0.00696893
0.00299083
0.00426268
0.00678798
0.00687599
0.00683924
0.00687706
0.00679764
0.00677184
0.0121287
0.00141162
0.00685786
0.0113667
0.00144856
0.00674872
0.00509695
0.00697372
0.0012076
0.00692488
0.0211881
0.006867
0.00678725
0.00155634
0.00673929
0.00176316
0.0202814
0.00176541
0.00674641
0.0340697
0.0039865
0.00673084
0.00682235
0.0034161
0.00677639
0.00672629
0.00671552
0.00676993
0.0103034
0.00272512
0.00154785
0.00464045
0.00682406
0.00680227
0.00680218
0.00691637
0.00671932
0.00327782
0.00174406
0.00678231
0.00707241
0.0043247
0.00679657
0.00999048
0.00196864
0.00691234
0.00171522
0.0178408
0.00674376
0.000611651
0.00674898
0.00864548
0.00181447
0.0256066
0.00673644
0.00678393
0.00700294
0.0227633
0.00708404
0.00389327
0.00605486
0.0404161
0.00168445
0.0201215
0.00139321
0.00700335
0.0019712
0.00707184
0.0178951
0.0065435
0.0268403
0.00674384
0.0180543
0.00692874
0.00377803
0.00679247
0.000335846
0.00676334
0.00686124
0.00303303
0.002591
0.00183922
0.00674536
0.00673112
0.00678847
0.00678087
0.00255236
0.00670825
0.0138437
0.00354106
0.00670895
0.00691597
0.00161714
0.00401527
0.0067387
0.00539942
0.00590362
0.0017444
0.00302506
0.00236788
0.00671152
0.00701708
0.00349462
0.00206899
0.00555122
0.00306898
0.00999795
0.00678177
0.00305863
0.00210809
0.00689944
0.00673298
0.00672631
0.00713487
0.00716992
0.0067762
0.00700197
0.00668932
0.00681145
0.00699915
0.00671253
0.00250829
0.00669205
0.00371309
0.00698667
0.00669755
0.00271534
0.00298822
0.0019057
0.00695546
0.00674968
0.00673374
0.00671612
0.0068332
0.00689678
0.00685888
0.00676554
0.00678295
0.00675984
0.00147202
0.00684101
0.00695675
0.00674384
0.0249485
0.00671079
0.00675981
0.00188058
0.00673817
0.00682381
0.0019545
0.00690308
0.0069048
0.00696901
0.001953
0.00672801
0.00226925
0.0403559
0.0223703
0.0123861
0.00681805
0.00674847
0.0123715
0.00713562
0.0067473
0.0106379
0.0257535
0.00684448
0.00673558
0.00317399
0.00674842
0.00674171
0.0135112
0.006713
0.00609044
0.00841851
0.00134705
0.00674485
0.00228678
0.00388468
0.000586422
0.0100608
0.00680096
0.00813371
0.00212711
0.00675784
0.00411626
0.00204113
0.0375098
0.00673356
0.00942599
0.00713554
0.0239686
0.00821494
0.0139494
0.0155246
0.00688371
0.00245388
0.00991062
0.00671193
0.00671246
0.00696124
0.00696205
0.00674699
0.019487
0.0067357
0.0115383
0.00262865
0.0118892
0.00160361
0.00680836
0.00249308
0.0120888
0.00412933
0.0223156
0.00252646
0.0026224
0.0067494
0.00673232
0.0189106
0.0068012
0.0110387
0.00673032
0.0176948
0.00675015
0.0141484
0.0200528
0.00688446
0.0368967
0.00673953
0.00291617
0.00154315
0.00436908
0.000422568
0.00686598
0.00675871
0.00677676
0.0212051
0.00284119
0.00690413
0.00290065
0.0120203
0.00676305
0.00671944
0.0070291
0.00618557
0.00476385
0.00681649
0.00685173
0.00674967
0.0100844
0.00507623
0.00914436
0.00672042
0.00671257
0.025039
0.00671291
0.0223209
0.0013206
0.0102965
0.0176248
0.0182769
0.00674773
0.00680499
0.00234604
0.00327916
0.00189599
0.00671389
0.00319071
0.0140194
0.00673839
0.0145193
0.00674591
0.00179692
0.0048833
0.0188265
0.00228724
0.00740876
0.00674631
0.0084576
0.00669245
0.0224604
0.0106179
0.00681565
0.00136784
0.00698229
0.00271837
0.00240651
0.0375802
0.00694284
0.00263179
0.00674034
0.00212045
0.00679049
0.00669604
0.00696087
0.00671492
0.0395448
0.00671279
0.00265765
0.0069608
0.00700335
0.00674733
0.00144001
0.00696874
0.00340427
0.00675419
0.00672105
0.0184632
0.00671027
0.00368145
0.00674639
0.00758661
0.00684454
0.00635608
0.0069036
0.018598
0.00685152
0.00680906
0.00670877
0.0115946
0.0213183
0.00172283
0.0274196
0.0272662
0.00679982
0.00241762
0.023099
0.00680215
0.0185486
0.0170455
0.00143164
0.00169254
0.00289152
0.0155034
0.00411864
0.0140783
0.0209661
0.00281423
0.00614189
0.0168252
0.00263467
0.00688329
0.00249711
0.00671335
0.00700399
0.00225126
0.00690264
0.00683194
0.00319795
0.0092647
0.0015501
0.00362878
0.0232116
0.00671016
0.00686413
0.0194098
0.00323133
0.00231671
0.00682118
0.00849957
0.00675241
0.00679934
0.0157577
0.0067588
0.00296184
0.0141171
0.0131187
0.00690258
0.00821983
0.00457581
0.003218
0.0112428
0.0394175
0.00687593
0.0222263
0.00593959
0.00673648
0.00677104
0.00694478
0.00700734
0.043106
0.00698679
0.0150136
0.00796762
0.00152012
0.00501759
0.00249943
0.0074558
0.00695419
0.00137831
0.00772062
0.00683394
0.00162531
0.00749412
0.00155212
0.00691971
0.00679606
0.0157515
0.00335352
0.00559426
0.00669557
0.00668452
0.0071754
0.00696811
0.00256942
0.00157252
0.0128951
0.0013969
0.0168883
0.0068199
0.00199005
0.00265789
0.00221913
0.00106721
0.00674604
0.00675793
0.00348425
0.00140388
0.0425712
0.00673468
0.0233424
0.0227832
0.00689928
0.00231983
0.002464
0.00251256
0.0068197
0.00211728
0.0229469
0.00719895
0.00673748
0.00827921
0.00668745
0.00671373
0.00673961
0.0253815
0.00633344
0.00224253
0.00044471
0.00216095
0.00215444
0.00135
0.010922
0.00518163
0.0112416
0.00683462
0.00682036
0.00339597
0.00750366
0.00687604
0.0272712
0.0170177
0.00243417
0.00756888
0.00988358
0.016712
0.00682237
0.0156995
0.0067302
0.0121125
0.00274783
0.00672306
0.0105627
0.0128722
0.00670706
0.0067955
0.00679205
0.0324163
0.00847316
0.0016471
0.00161604
0.0067944
0.00804574
0.0435274
0.0211666
0.00691234
0.00672334
0.0426875
0.00602664
0.00673028
0.00679293
0.00687175
0.00534105
0.00684688
0.00218314
0.00335105
0.00677336
0.00410751
0.00653869
0.00472405
0.0070179
0.00224239
0.0216311
0.00681131
0.00718481
0.0116921
0.00414115
0.00680777
0.0039336
0.0067364
0.00324892
0.0208132
0.00798816
0.00687996
0.0121268
0.00478265
0.00903239
0.00672779
0.00713604
0.00348627
0.00613991
0.016301
0.00699924
0.00692866
0.00165541
0.00686138
0.00851838
0.00224301
0.00672584
0.00197429
0.00681457
0.00671059
0.0275369
0.00673762
0.00937136
0.00349309
0.00673252
0.00550629
0.00716712
0.00185927
0.0191406
0.00671539
0.000378744
0.00673584
0.00672494
0.00293518
0.00133775
0.00672004
0.00680467
0.00672948
0.0052581
0.00253869
0.00362196
0.00681974
0.00691663
0.00700352
0.00358238
0.0067801
0.006775
0.00671998
0.00671289
0.0151911
0.00240164
0.00672461
0.00237871
0.00696855
0.00601991
0.00843057
0.00213584
0.00679747
0.00672828
0.00235494
0.00273227
0.00679043
0.00685672
0.0221588
0.00145898
0.00672917
0.00670363
0.00296074
0.00143968
0.00673132
0.0115516
0.00136995
0.00682378
0.00419222
0.0079404
0.00580823
0.0018828
0.0150001
0.00699474
0.00197234
0.00807562
0.006485
0.00670982
0.00674849
0.00669548
0.0066976
0.00257324
0.00674238
0.00263511
0.00161389
0.0066931
0.00392641
0.00340334
0.00697966
0.00504547
0.0067166
0.00456408
0.0121611
0.00670024
0.00678962
0.0182985
0.00630474
0.00606441
0.00739359
0.00674061
0.00567639
0.00672894
0.00677472
0.00543656
0.00699432
0.00166045
0.0187913
0.00671198
0.00673849
0.00670606
0.00170536
0.00671885
0.00224555
0.00674537
0.00674543
0.00669916
0.00672588
0.00203762
0.00674692
0.00673082
0.0103105
0.0238329
0.00677343
0.00675346
0.00671721
0.0105445
0.0018335
0.00671569
0.0154626
0.0101397
0.00698802
0.00705464
0.0228142
0.00217225
0.0204359
0.00246371
0.0061562
0.00672678
0.0023809
0.0016469
0.00672683
0.0106431
0.0442548
0.00672212
0.0436876
0.0426386
0.00706186
0.0213229
0.00673024
0.00181384
0.00129936
0.00671835
0.0173664
0.00674916
0.00201185
0.00149903
0.00671611
0.0154333
0.00597412
0.00679513
0.00171609
0.0023791
0.028006
0.0394754
0.00682466
0.00209699
0.0440618
0.00672335
0.00226533
0.00673259
0.0218033
0.0218589
0.00763614
0.00695593
0.00222145
0.0413982
0.0440404
0.00197985
0.00671838
0.00673252
0.0417699
0.00716248
0.00968245
0.00287154
0.00287541
0.00205399
0.00678196
0.00689229
0.00697849
0.00295872
0.00678242
0.00700333
0.0112515
0.00303017
0.0067216
0.0093607
0.00237026
0.00308136
0.0429983
0.00163146
0.0111703
0.0209494
0.00672995
0.00167482
0.00165762
0.00671345
0.0108494
0.00676698
0.0013215
0.0236558
0.00128436
0.00179283
0.0109741
0.0207825
0.0067283
0.00218088
0.00226532
0.00672355
0.00282386
0.00674538
0.00701113
0.00671632
0.00676802
0.00663008
0.00676092
0.00300448
0.00221542
0.012241
0.00424412
0.0226082
0.00673585
0.00219638
0.00656986
0.0375491
0.0295074
0.00672529
0.00129982
0.00698875
0.00670473
0.00672076
0.00672951
0.0067428
0.00147249
0.00582567
0.0158284
0.00691361
0.00671544
0.0115595
0.00686591
0.00404374
0.00671417
0.00677298
0.0042768
0.0028379
0.0221692
0.0140884
0.0171794
0.00680292
0.00447337
0.00697155
0.00227866
0.00252695
0.00248293
0.0378007
0.00672946
0.00130854
0.00322243
0.0157317
0.0444083
0.0022368
0.043677
0.00464744
0.00694762
0.00132514
0.00678176
0.00192479
0.00496235
0.00209231
0.00182092
0.00674833
0.0425658
0.00547166
0.00525501
0.00269286
0.00386297
0.0179249
0.00707186
0.00474029
0.0129429
0.00672774
0.0154851
0.00353049
0.00685504
0.00329903
0.0042077
0.0122855
0.00672384
0.0169986
0.00231056
0.00675458
0.00672504
0.00510076
0.0033025
0.0387606
0.00545662
0.00692561
0.00193934
0.00143495
0.00262576
0.00677515
0.011827
0.00494344
0.00671556
0.016251
0.0122143
0.00694568
0.00672119
0.00631289
0.00235677
0.00153265
0.00671295
0.00721238
0.00718668
0.00135303
0.00924326
0.00376929
0.00672607
0.0020057
0.0067286
0.00672012
0.00672697
0.00239549
0.0357116
0.00861974
0.00688793
0.00429486
0.00344371
0.0231521
0.0036722
0.00696475
0.00470571
0.0067318
0.0036018
0.00397862
0.00351872
0.00672738
0.00138964
0.00670969
0.00672373
0.00709351
0.00361833
0.00134498
0.0067253
0.00927305
0.0129366
0.0432183
0.00229972
0.00679759
0.00680529
0.00133884
0.00671363
0.00678642
0.00154209
0.0068134
0.00674249
0.00364593
0.00327184
0.00675425
0.0436876
0.00221221
0.00703016
0.0024078
0.00906303
0.00250099
0.00382413
0.00673702
0.00672784
0.00679161
0.00673454
0.00678675
0.00678263
0.00229801
0.0017786
0.00618564
0.00680877
0.00677907
0.0070588
0.00283671
0.00169674
0.00337916
0.0422406
0.00672644
0.00423553
0.00701876
0.00168799
0.0067819
0.0444586
0.0067675
0.00681535
0.00668526
0.0438725
0.00237131
0.0096822
0.0414434
0.00411425
0.00678317
0.00672796
0.00674205
0.00868884
0.00680988
0.00208256
0.00648644
0.00621832
0.00191496
0.00248421
0.00230943
0.00155823
0.00683865
0.00243339
0.00674667
0.00672237
0.00670955
0.0067316
0.0115817
0.00192964
0.00673155
0.0077526
0.00987454
0.00672031
0.00237333
0.00671759
0.00156731
0.00683572
0.00671931
0.00207806
0.00681733
0.00693079
0.00199028
0.00174387
0.00220293
0.00372977
0.00673119
0.0032526
0.0411291
0.00154157
0.00269266
0.00216237
0.00678861
0.00674665
0.0128362
0.00684359
0.00151749
0.00907169
0.0116058
0.00680843
0.0021705
0.00683225
0.00454629
0.00160065
0.00172057
0.00149225
0.00334449
0.00388232
0.0018716
0.0190023
0.00242764
0.00672048
0.00220756
0.00217001
0.00223844
0.00128615
0.00553763
0.00478346
0.00672732
0.00805137
0.0164727
0.00187346
0.00682063
0.00205196
0.00705167
0.0018266
0.00679563
0.0067301
0.00672362
0.00685108
0.00175341
0.00720437
0.00301136
0.00337429
0.00676083
0.00679892
0.00870464
0.00672481
0.00673962
0.00436683
0.00734784
0.00220433
0.00678134
0.00678614
0.00676882
0.0126156
0.00384997
0.00310441
0.0068063
0.00173818
0.00678972
0.00686221
0.00251497
0.00476529
0.00166458
0.00456669
0.00674619
0.00672139
0.0029065
0.00144662
0.00586187
0.0035857
0.0139394
0.0068499
0.0034767
0.00343662
0.00649465
0.00679338
0.00373432
0.0144242
0.00672305
0.00672823
0.00671234
0.0121138
0.0020645
0.0171423
0.00681669
0.00579671
0.0162662
0.0203651
0.0148114
0.00222432
0.00184531
0.0141867
0.00682199
0.00858271
0.00551527
0.00170161
0.00674209
0.0117277
0.00296523
0.00668818
0.00219357
0.00750294
0.00343727
0.00682776
0.0143508
0.00672778
0.0140285
0.00483332
0.00673581
0.00448263
0.00683181
0.00452296
0.00146178
0.00675467
0.00671601
0.00672256
0.00685655
0.0067337
0.00129877
0.0156243
0.00538498
0.00682551
0.00707802
0.00233472
0.00677558
0.00674967
0.00173507
0.0018836
0.00464637
0.0067173
0.00250065
0.00264205
0.00548138
0.0186968
0.00281946
0.00671266
0.00671536
0.00571693
0.0058656
0.00682668
0.0067296
0.00365749
0.00110205
0.00199837
0.0303303
0.00674543
0.00685878
0.00684762
0.00677694
0.00459332
0.00788613
0.0239335
0.00365414
0.00672862
0.011982
0.00461632
0.00683038
0.00696606
0.00375328
0.00699037
0.00249167
0.00673518
0.00676146
0.00676974
0.00672538
0.0067476
0.00678058
0.00181502
0.0128436
0.00313691
0.00668277
0.00674363
0.00671521
0.00399311
0.00675595
0.00945693
0.00358794
0.00352451
0.00373986
0.0139409
0.00672628
0.00227137
0.0200772
0.00672395
0.00674171
0.0036467
0.00678761
0.00672574
0.00671677
0.0349009
0.00372878
0.00130669
0.00445416
0.00362934
0.00702676
0.00671463
0.00672017
0.00674135
0.0023812
0.00672588
0.00508145
0.00170273
0.00676492
0.00754447
0.00717273
0.00146116
0.00447483
0.00255406
0.00224332
0.00681831
0.00671342
0.00683035
0.00646817
0.00675525
0.00543445
0.00670825
0.00245228
0.00672619
0.00683751
0.0146781
0.00673131
0.00228401
0.00222264
0.00675004
0.0140005
0.00672642
0.00679608
0.00672393
0.0044364
0.00671905
0.00676135
0.00677416
0.00680474
0.00194928
0.00681025
0.00670802
0.00402448
0.00672465
0.00672505
0.0067277
0.00673477
0.00671366
0.00671524
0.00676085
0.00672222
0.00673834
0.00399362
0.00303112
0.00691615
0.0068191
0.00242324
0.00519351
0.00702712
0.00690438
0.00671904
0.00690036
0.00674654
0.00682502
0.0255125
0.00756081
0.00671249
0.00313944
0.0218216
0.00684044
0.00910915
0.0115933
0.00677484
0.0171718
0.00679365
0.00936123
0.00203726
0.00967639
0.00305277
0.0125598
0.00671688
0.00672518
0.00689609
0.00190082
0.00153726
0.00330501
0.00133479
0.0113301
0.0067349
0.0440848
0.00411989
0.00817828
0.00671251
0.00158976
0.00155622
0.00676316
0.00673165
0.00707259
0.00347044
0.00297702
0.00457804
0.00256889
0.00401832
0.00676051
0.00674811
0.0067794
0.00672248
0.0301195
0.00614006
0.00668551
0.0194568
0.00694551
0.00696667
0.00673964
0.00700564
0.00673288
0.00226261
0.00672246
0.00354759
0.00620718
0.00299509
0.00192684
0.00676825
0.0156193
0.00244031
0.00202687
0.0145569
0.0199397
0.00673013
0.00672431
0.0067262
0.0195561
0.00673806
0.00670786
0.00673263
0.00159025
0.0057669
0.0150586
0.0070251
0.00553684
0.00848951
0.00126888
0.0177684
0.00255769
0.00512976
0.00203998
0.0101703
0.0160111
0.00671201
0.00671223
0.00673658
0.0105029
0.00459458
0.00327104
0.00688468
0.00673878
0.00678678
0.0255712
0.00672447
0.00678206
0.0067307
0.00132887
0.00672864
0.00672477
0.00671626
0.00250472
0.00275863
0.00199821
0.00314794
0.00678836
0.00566231
0.00530367
0.00686936
0.00671651
0.00884232
0.0162431
0.0068461
0.00685258
0.0274869
0.00677795
0.00672918
0.00673665
0.0068198
0.00380097
0.00671507
0.00681974
0.00672333
0.00615974
0.00676621
0.00673359
0.00671011
0.00675509
0.00680314
0.0126997
0.00671755
0.00670952
0.00293822
0.00177463
0.00307411
0.00305709
0.00672686
0.00295201
0.00671467
0.00542254
0.00672294
0.0154242
0.00677393
0.00672231
0.00671022
0.011284
0.00447938
0.00672978
0.00242508
0.00677271
0.00671973
0.00677973
0.00681772
0.00181383
0.00674324
0.0192737
0.00678046
0.0101687
0.00241592
0.0068069
0.00241713
0.00671032
0.00673812
0.0067231
0.0169592
0.00696159
0.00417588
0.00372334
0.00206428
0.00219859
0.00164573
0.00529971
0.00676465
0.00672129
0.0338448
0.00949951
0.00671256
0.00253009
0.0067826
0.00673655
0.0231069
0.00674415
0.00676793
0.00474726
0.00303387
0.0259518
0.00679405
0.00672796
0.00662645
0.00673365
0.00694307
0.00244856
0.00678036
0.00628332
0.00268122
0.00278669
0.00673558
0.0037615
0.0067218
0.00682685
0.00894598
0.00610443
0.00672325
0.00196301
0.00672207
0.00603181
0.00680447
0.00357853
0.0070586
0.0299141
0.00384809
0.00686436
0.00238897
0.0131141
0.00678591
0.00756366
0.00686123
0.00676684
0.00680575
0.00675464
0.00704398
0.00792044
0.00623626
0.00677571
0.00702397
0.0067562
0.00669765
0.00674571
0.00679893
0.00529223
0.00670675
0.00680254
0.00629114
0.00682231
0.0145949
0.00672095
0.00578331
0.00144805
0.00527301
0.00670157
0.00862101
0.00545276
0.00803954
0.00251538
0.00294999
0.00674587
0.00396112
0.00873048
0.0183323
0.0144936
0.0158015
0.0108186
0.00678524
0.0221406
0.0224972
0.00684167
0.00550015
0.00400963
0.0290537
0.00600167
0.0120603
0.00417616
0.00676822
0.00162304
0.00679271
0.00681042
0.00593955
0.0139533
0.00675052
0.00674226
0.00680183
0.00208595
0.0067698
0.00675597
0.00672429
0.00671717
0.00672937
0.00471435
0.0040448
0.00672461
0.00681261
0.00199766
0.00604929
0.0286996
0.00677421
0.00677153
0.00295994
0.00676218
0.00672716
0.0067118
0.00409777
0.00677229
0.00132911
0.00672053
0.00682226
0.00670797
0.00678206
0.0129076
0.00545876
0.00671275
0.00684429
0.0162479
0.00482456
0.00587993
0.0280894
0.0067949
0.00198272
0.00672827
0.00669761
0.00675912
0.00672524
0.00672755
0.00673282
0.00666329
0.00184676
0.00677702
0.018234
0.0297642
0.00682174
0.00644202
0.00165887
0.00438358
0.00672411
0.00671492
0.00692035
0.00678575
0.0142869
0.00673584
0.0068012
0.00575911
0.00673105
0.00674273
0.00671505
0.014137
0.00673728
0.0067321
0.0277207
0.00671921
0.0067129
0.00676013
0.00546907
0.00673604
0.00669831
0.00672743
0.00680574
0.00839548
0.00956796
0.00673608
0.00178835
0.00671263
0.00675654
0.00702523
0.0165229
0.00915261
0.00671719
0.00556128
0.00674644
0.00673649
0.00676756
0.00672368
0.0133254
0.0139451
0.00678727
0.00430573
0.00922739
0.00671041
0.00674889
0.00691143
0.00179452
0.0209418
0.00678798
0.00258794
0.00999084
0.00673353
0.00705823
0.0201827
0.00323079
0.00685602
0.00673923
0.00686773
0.00678316
0.00672497
0.0189135
0.00674451
0.0109296
0.0143446
0.00390049
0.00703319
0.0171485
0.00750305
0.00558616
0.00178786
0.00846285
0.00246501
0.00672706
0.00688025
0.0159477
0.0067074
0.00376952
0.00673324
0.00673734
0.00668926
0.006705
0.00673112
0.00691215
0.00685604
0.0213616
0.01399
0.00188721
0.0178841
0.00670291
0.00672379
0.00270497
0.0161464
0.00672326
0.0205639
0.00789753
0.00672677
0.00672609
0.0208627
0.0067359
0.00740701
0.0073325
0.00672862
0.0153267
0.00462332
0.00337192
0.0020856
0.00673419
0.0067154
0.00293954
0.00188952
0.00678929
0.00263264
0.00669005
0.00764833
0.00672968
0.0011845
0.00675287
0.00694738
0.0029653
0.00671613
0.0145502
0.0067362
0.0067141
0.00680037
0.0107155
0.0067498
0.0067331
0.0181212
0.00218497
0.0134608
0.00686378
0.00672141
0.0026989
0.0166269
0.00966798
0.00638502
0.00268108
0.00312257
0.00684901
0.00673942
0.00624635
0.00488447
0.00680001
0.00670943
0.00638778
0.00700532
0.00673061
0.00668328
0.00684135
0.00671301
0.00693333
0.00709085
0.0056013
0.0200348
0.00745759
0.00201921
0.0187154
0.00672599
0.00672621
0.00380652
0.00134885
0.00676297
0.00685941
0.00672382
0.00676266
0.00672885
0.00146646
0.00678638
0.00625608
0.00672453
0.0067667
0.00851212
0.00156389
0.00689003
0.00676317
0.00673169
0.0126997
0.0142555
0.00683226
0.00670529
0.00759622
0.00673045
0.00673057
0.00673336
0.000990592
0.00671292
0.00672635
0.00518652
0.00671607
0.00142584
0.00705468
0.00674135
0.00675559
0.0160788
0.00610456
0.010631
0.0135928
0.00706146
0.00687848
0.00511155
0.0067206
0.00718158
0.00674832
0.0228689
0.0242115
0.00339216
0.00184109
0.0138192
0.00675553
0.0203138
0.0070318
0.0378349
0.00735255
0.00672739
0.00673625
0.00478048
0.00672496
0.00589903
0.0197343
0.0063696
0.00678377
0.00676696
0.0067226
0.00576658
0.00701165
0.00886421
0.00672514
0.00689838
0.00639017
0.0067791
0.0165241
0.0060099
0.00673541
0.0068113
0.00669341
0.00681187
0.0115332
0.00272231
0.00672675
0.00675118
0.00673095
0.0171202
0.00672117
0.0023671
0.000331178
0.00445059
0.00443114
0.00518551
0.00777209
0.00672279
0.00166469
0.00680338
0.00676352
0.00267524
0.010133
0.00671337
0.00677845
0.00626856
0.00679267
0.00700374
0.0119249
0.00683657
0.00679728
0.00637878
0.00809612
0.00675223
0.0067017
0.00135303
0.00139062
0.00252918
0.0104749
0.00787126
0.0109774
0.00671051
0.00581812
0.0057388
0.00281231
0.00945952
0.00768943
0.0167805
0.0148022
0.0342391
0.00671626
0.00670907
0.00675065
0.00677246
0.00952476
0.00672013
0.00142402
0.00704352
0.00700516
0.00680442
0.0117543
0.00671577
0.00872439
0.00522991
0.0073425
0.00482782
0.00625495
0.012072
0.00668538
0.00150474
0.00676011
0.0113739
0.00681593
0.00306445
0.000295373
0.00657281
0.00633722
0.00672385
0.0170067
0.0070644
0.00713571
0.00677304
0.0168515
0.0068276
0.00672169
0.00672384
0.00243712
0.00682225
0.00816779
0.00642804
0.00528041
0.00300914
0.00670687
0.00673911
0.00684031
0.00250159
0.0113563
0.012241
0.00676486
0.0132422
0.0127942
0.00133542
0.00672469
0.00642619
0.00966035
0.00672422
0.0075851
0.00669258
0.0088543
0.0175557
0.0208172
0.00640895
0.00672024
0.00671796
0.00508867
0.00669869
0.00741584
0.00703151
0.00355107
0.00673327
0.0143434
0.00704023
0.00690057
0.00813052
0.0095806
0.00549763
0.00761593
0.00817569
0.00759029
0.019801
0.00673193
0.0132589
0.00671517
0.00143978
0.00322117
0.00699442
0.00703399
0.00670825
0.00680821
0.00674257
0.00672011
0.00672748
0.00675752
0.00668805
0.00586921
0.00705952
0.00673377
0.0149042
0.00674562
0.00692363
0.00671745
0.0287981
0.00684596
0.00311506
0.00662878
0.00637829
0.00670738
0.00669112
0.0303255
0.00677326
0.0202742
0.00535217
0.00692556
0.00532584
0.00324156
0.000982687
0.00651139
0.00674718
0.00671411
0.00695949
0.0042546
0.00256444
0.00611661
0.00649541
0.00732221
0.00470112
0.00705176
0.00377222
0.00695671
0.0126223
0.006713
0.0239479
0.0068762
0.00671711
0.00672402
0.00676429
0.0067562
0.0067121
0.00673847
0.00671652
0.00707099
0.00453256
0.00638833
0.00689416
0.00254837
0.00221445
0.00671836
0.00671519
0.00194149
0.00482806
0.00735927
0.00671249
0.00698943
0.00670996
0.00673196
0.0130855
0.00672957
0.00671009
0.0103688
0.0128404
0.0075515
0.00672963
0.0198493
0.00682082
0.0192769
0.0142613
0.00685476
0.0149085
0.00671677
0.00670447
0.0213074
0.00670655
0.00133002
0.00357265
0.0125426
0.00705002
0.01389
0.00694439
0.00674982
0.00695965
0.0067151
0.0129965
0.00631589
0.0067229
0.014689
0.00592603
0.00668766
0.00672173
0.00741244
0.00186046
0.0106211
0.00692036
0.0146708
0.0182342
0.0067661
0.00732619
0.0164644
0.00246255
0.0160011
0.00641809
0.0146008
0.00668337
0.0138379
0.00745498
0.00671993
0.0156563
0.00943111
0.0107866
0.00668149
0.0040035
0.00671262
0.00671573
0.00348462
0.0134264
0.00671379
0.00693912
0.00933011
0.00676607
0.00753772
0.00672843
0.00609701
0.00996543
0.00336545
0.00680958
0.0193201
0.00608955
0.00555118
0.011549
0.00688109
0.0221104
0.00670924
0.0234369
0.00384806
0.00695427
0.0101508
0.00689145
0.00297183
0.00673548
0.0032101
0.00675278
0.00691086
0.00669801
0.00678987
0.00673241
0.00684946
0.0190035
0.0284661
0.00671035
0.00384983
0.0111397
0.00670398
0.00670721
0.0171055
0.00215394
0.0202946
0.0203472
0.00680074
0.00671007
0.00676652
0.01662
0.0072808
0.0201497
0.00461317
0.00670842
0.00676065
0.00700495
0.00669662
0.00672287
0.00141817
0.00671602
0.0113937
0.00672191
0.00673467
0.00186732
0.00668499
0.00162155
0.0154697
0.00676797
0.00672082
0.00672286
0.00510901
0.00668146
0.00673982
0.00667842
0.00218718
0.00622935
0.00694946
0.0016542
0.00671041
0.0068583
0.00672551
0.00489172
0.0103511
0.0115879
0.0152478
0.00198738
0.0094351
0.00172552
0.00672161
0.00705085
0.00668263
0.00670478
0.00829667
0.0067209
0.0225728
0.0152239
0.00599011
0.0211179
0.00704769
0.0101983
0.0104034
0.00672503
0.00772755
0.00246998
0.00852497
0.0067512
0.00671368
0.00670155
0.00229907
0.00807525
0.0137152
0.0111665
0.00671288
0.0273014
0.00670991
0.00933012
0.0133607
0.00672152
0.00704376
0.00683941
0.0205456
0.0149063
0.00552997
0.00668499
0.0065211
0.00750088
0.0127829
0.00681156
0.00690047
0.0207135
0.0153514
0.00672793
0.00613546
0.00672648
0.00705279
0.00682445
0.0184475
0.00670479
0.0070204
0.0114592
0.00672386
0.00672039
0.0148635
0.00781249
0.00680044
0.00687205
0.00498311
0.00670747
0.00672497
0.00842092
0.0118262
0.00677807
0.0070305
0.00672333
0.00672106
0.00672242
0.00673713
0.0219804
0.0106769
0.0121584
0.0021424
0.00670555
0.0058665
0.00670727
0.00694535
0.00606654
0.00697355
0.011188
0.00671587
0.0168754
0.00681794
0.00833747
0.009301
0.00694898
0.00671044
0.00176199
0.00132984
0.0210354
0.0234933
0.0113002
0.0221109
0.007009
0.0067158
0.00859138
0.00671706
0.00402337
0.00672634
0.0126838
0.0017691
0.00674133