/*--------------------------------*- C++ -*----------------------------------*\
| =========                 |                                                 |
| \\      /  F ield         | OpenFOAM: The Open Source CFD Toolbox           |
|  \\    /   O peration     | Version:  v2012                                 |
|   \\  /    A nd           | Website:  www.openfoam.com                      |
|    \\/     M anipulation  |                                                 |
\*---------------------------------------------------------------------------*/
FoamFile
{
    version     2.0;
    format      ascii;
    class       volScalarField;
    location    "950";
    object      omega;
}
// * * * * * * * * * * * * * * * * * * * * * * * * * * * * * * * * * * * * * //

dimensions      [0 0 -1 0 0 0 0];


internalField   nonuniform List<scalar> 
9793
(
0.072815
0.246445
0.0725859
0.0210204
2.17504
0.0227177
0.0220529
0.0208056
0.0216754
2.29235
0.0557107
0.835921
0.0210737
0.0211163
0.0231277
0.0209235
0.0216733
0.0221437
0.116094
0.0211074
0.0611299
0.0239257
0.322864
0.0196143
0.02238
0.0211867
0.0211649
0.0209794
0.0468709
0.0216631
0.0367444
0.315227
0.325927
0.0220929
0.0518747
0.0822176
0.0226907
0.0238499
0.0209037
0.0211519
0.036899
0.0231529
0.0223015
0.0221701
0.0223174
0.0214013
0.0500839
0.293048
0.7651
0.0209905
0.0531541
0.0612945
0.0229761
0.0217374
0.671743
0.748946
0.0214532
0.0992377
0.281327
0.0208807
0.0218749
0.0230035
0.493769
0.0219754
1.89722
0.345951
0.551197
0.685817
0.808527
0.0554763
0.465048
0.0209166
0.0211445
0.235441
0.0580252
0.364354
0.021449
0.0205061
0.0216628
0.0211264
0.323272
0.0216126
0.234372
0.275179
0.0308113
0.288492
0.0213251
0.021447
0.0224695
0.0219097
0.258976
2.41944
0.0204522
0.308875
0.0227135
0.26965
0.576014
0.243278
0.0204132
0.0202831
0.0202676
0.0216408
0.0204632
0.0204433
0.020405
0.030801
0.0223164
0.0219205
0.0226404
0.307693
0.0210941
0.0351996
0.021428
0.52942
0.0610044
0.0214589
0.384801
0.0563478
0.0220151
0.303512
0.305496
0.0225685
0.021352
0.0230097
0.0222398
0.0668466
0.0386725
0.286615
0.0225635
0.0211667
0.0214824
0.0214574
0.0211669
0.0219198
0.0216176
0.0214471
0.0223455
0.0219786
0.0214192
0.0200016
0.0213399
0.0222342
0.0212475
0.020334
0.0213424
0.0220935
0.161834
0.0203423
0.0204062
2.39472
1.28069
0.0214614
1.42263
2.27311
0.0203791
0.0220442
0.0207394
0.0220928
0.0202882
0.0211915
0.020806
0.020979
0.0206088
0.104861
0.216417
0.0637904
0.289576
0.0282506
0.0209794
0.0211986
0.0212739
0.545847
0.214101
0.539505
0.0221336
0.108149
0.0214567
0.0196082
0.0211843
0.0295406
2.8601
0.0228054
0.020303
0.0222472
0.500422
0.0211299
0.0993775
0.0211782
0.021325
0.0206148
0.0221488
0.0213394
0.762185
0.0466144
0.654029
0.0291674
0.0945327
0.0210637
2.27207
0.0200805
0.0216084
0.0951226
0.730924
0.0211737
0.0214603
0.0201676
0.078091
0.0204709
0.028368
0.0231515
0.0340729
0.74091
0.772765
0.0217795
0.102418
0.0206323
0.0213605
0.534688
0.0201315
0.436767
0.0681689
0.0213894
0.0222543
0.0213414
0.2828
0.0991677
0.022733
0.0203779
0.0686305
0.0487082
0.0196577
0.0196159
0.0228903
0.0202386
0.0443491
0.432299
0.0214006
0.0211743
0.582839
0.0214193
0.0280729
0.0210431
0.0211372
0.31703
0.0211259
0.0203931
0.0207893
0.0220759
0.020427
0.0219206
0.0218667
0.0254933
0.057898
0.0415822
0.0210742
0.0246086
0.0212312
0.0259387
0.0229746
0.0203683
0.296731
0.0211453
0.0578061
0.0217546
0.0289394
0.0198314
0.0198049
0.0340115
0.0949298
0.0220439
0.0203894
0.0201501
0.0286053
0.0214114
0.261343
0.256428
0.0211765
0.0509725
0.021381
0.0413682
0.0219468
0.0197101
0.0223596
0.0210183
0.0385028
0.0213851
0.021846
0.027555
0.0211428
0.0214506
0.0214086
0.367507
0.022193
0.0228029
0.0215287
0.0218972
0.0224899
0.0282609
0.0212557
0.150186
0.0203965
0.219137
0.422466
0.0223566
0.0221318
0.0203644
0.0294261
0.0260978
0.0218085
0.186306
0.0217717
0.0203522
0.0262425
0.0219811
0.0216127
0.0216716
0.284986
0.0212078
0.0276253
0.0232574
0.0210725
0.242264
0.103758
0.211658
0.0199702
3.04444
0.0226569
0.177246
0.0623679
0.0203084
0.0238595
0.0611576
0.0214705
0.0256342
0.0644711
0.020758
0.0221647
0.0215769
0.0212083
0.0210489
0.086346
0.0211782
0.0210472
0.148366
0.0214416
0.0209009
0.0199404
0.0228992
0.020776
0.0951406
0.0223613
0.0214073
0.0217378
0.0216042
0.513535
0.0216971
0.0328186
0.0196229
0.0393197
1.06773
0.101119
0.04138
0.0227449
0.0225394
0.104418
0.0219126
0.290785
0.0214585
0.0202933
0.429911
0.0254921
0.112567
0.0214112
0.0469347
0.0763984
0.023547
0.0211083
0.347694
0.0272014
0.187936
0.0246743
0.0216556
0.635368
0.0212867
0.0228468
0.0219242
0.0214363
0.0211935
0.0217006
0.024176
0.510816
0.0219628
1.9136
0.278479
0.103617
0.0488447
0.155359
0.0210748
0.0215745
0.369922
0.274824
0.0210665
0.0220846
0.12734
0.0201409
0.274656
0.0211988
0.0242595
0.0201065
0.0359769
0.0211712
0.0279352
0.0777184
0.0204857
0.329364
0.0255082
0.0225026
0.0256011
0.0212822
0.0221251
0.0221244
0.0761587
0.0213551
0.0216447
0.0637728
0.0216254
0.0229302
0.0226663
0.0205074
0.0306901
0.0212088
0.0216467
0.0200177
0.32436
0.0217539
0.304803
0.0212331
0.751804
0.0232494
0.0213287
0.0225492
0.021964
0.424486
0.0210306
0.787501
0.020738
0.0212942
0.0228554
0.128754
0.0409885
1.45797
0.749627
0.0229928
0.0212729
0.0366812
0.0304568
0.0347096
0.236379
0.231774
0.0216608
0.0240749
0.0474808
0.0213595
0.0218412
0.021336
0.0204485
0.0222642
0.794183
0.028068
0.575362
0.0204749
0.0298094
0.0195867
0.0219144
0.021593
0.0216585
0.0369206
0.0213295
0.023431
0.0201162
0.0214448
0.0234616
0.302312
0.0212675
0.0212708
0.40604
0.0241348
0.0223723
0.368592
0.750731
0.0216822
0.0221421
0.0230687
0.023529
0.0216711
0.0225793
0.0222017
0.0211348
0.0212629
0.0210933
0.12383
0.0634736
0.0207541
0.451575
0.0363067
0.0203379
0.0222219
0.0217267
0.0297741
0.0219331
0.905628
0.0203737
0.0211432
0.0534216
0.0213132
0.0353816
0.441047
0.0284865
0.0203284
1.9525
0.0239775
0.0205667
0.0213526
0.0515279
0.0209857
0.020553
0.0212782
0.0209749
0.347805
0.0440179
0.0350937
0.0224237
0.0213051
0.0211311
0.0215622
0.0209778
0.0212947
0.0581682
0.100503
0.0201866
0.0231961
0.639542
0.0213523
0.246693
0.0338023
0.0208654
0.0592553
0.598346
0.0214048
0.110097
0.0197284
0.576697
0.0271033
0.686237
0.0211224
0.0211154
0.0216737
0.264366
0.022702
0.368633
0.279628
1.94063
0.0364114
0.918026
0.0346298
0.0231557
0.0319509
0.0229119
0.312373
0.0216784
0.74856
0.019976
0.307357
0.0221824
0.0222758
0.0210996
0.532893
0.0200502
0.0208974
0.0228924
0.0236319
0.0287967
0.0211554
0.021275
0.0213285
0.0213053
0.121464
0.0209869
0.310423
0.091349
0.0209989
0.022007
0.0305108
0.0220874
0.0213298
0.0219049
0.0235907
0.0270901
0.0226702
0.0236355
0.0205093
0.021924
0.0225124
0.0261543
0.0218916
0.023076
0.344465
0.0213493
0.0813213
0.026498
0.0221805
0.0212861
0.0207288
0.0225915
0.0229534
0.0211188
0.0211671
0.0195571
0.0211663
0.0211555
0.0211812
0.0241552
0.019884
0.0222752
0.0222817
0.0216596
0.0238125
0.0227689
0.0332807
0.0225216
0.0210489
0.0212967
0.0205454
0.0201488
0.0210676
0.02023
0.0210263
0.0213612
0.0200305
0.0374777
0.0211773
0.0224106
0.0213693
0.746053
0.0210427
0.0200941
0.0543898
0.0197052
0.0216567
1.304
0.0224055
0.0226485
0.0214951
0.0966076
0.0207413
0.0505678
1.99194
0.457311
0.37758
0.0215808
0.0213799
0.263217
0.0220352
0.0200467
0.159654
0.742312
1.49204
0.0213082
0.0558646
0.0213829
0.0213615
0.705688
0.021196
0.042315
0.0225328
0.0631126
0.0210336
0.0246513
0.0223838
0.531251
0.772747
0.0212483
0.0236946
0.0281306
0.0210089
0.0231832
0.0512006
3.0266
0.0210974
0.246695
0.0220437
0.460972
0.196495
0.382983
0.295915
0.0211983
0.0281502
0.266113
0.0210434
0.0211676
0.0223788
0.021929
0.0200112
0.822946
0.0200007
0.217969
0.0237367
0.287789
0.0553111
0.0215886
0.734185
0.373237
0.0221439
0.668859
0.0274048
0.0691969
0.0200309
0.0196901
0.317151
0.0213419
0.829554
0.020994
0.325686
0.0205356
0.294598
0.320323
0.0211897
2.01179
0.0214289
0.0230061
0.0380043
0.505153
0.272713
0.0201345
0.0205591
0.0201331
0.45217
0.143154
0.0229089
0.0244597
0.278916
0.0200814
0.0210055
0.0220988
0.0403936
0.0261988
0.0214161
0.0210335
0.0208426
0.359347
0.867315
0.0787145
0.0205533
0.0209393
0.752141
0.0211807
0.651274
0.0460175
0.193328
0.311785
0.327533
0.0209099
0.0215957
0.0244405
0.0226261
0.0265274
0.0212271
0.0557407
0.337133
0.0204721
0.424699
0.0208296
0.181287
0.0217924
0.317861
0.025204
0.0241144
0.0211171
0.0210809
0.0863297
0.46222
0.32618
0.0214231
0.0368075
0.0212808
0.0232765
0.0250215
3.07159
0.0245821
0.0691149
0.0208939
0.0284943
0.0212004
0.0199114
0.0220946
0.0209679
2.26851
0.0211544
0.023566
0.0226019
0.0218775
0.019996
0.0548709
0.0217717
0.0224513
0.0209303
0.0210163
0.316819
0.0210546
0.0641123
0.0204913
0.180268
0.0210171
0.0381523
0.0212194
0.800575
0.0216684
0.0213761
0.0208969
0.179555
0.328034
0.171067
2.83967
0.758026
0.0213293
0.0242702
0.263327
0.0200982
0.315343
0.308219
0.0548049
0.113589
0.0233054
0.267599
0.0242978
0.313256
0.259471
0.0232979
0.0217266
0.308946
0.161275
0.0242697
0.0241892
0.0212112
0.0227192
0.0350058
0.021046
0.0201142
0.0227107
0.203553
0.0379658
0.0229508
0.455679
0.0209154
0.0202615
0.310812
0.0835589
0.0356876
0.0220682
0.0772978
0.0205726
0.0200702
0.395573
0.0200083
0.0230861
0.237155
0.203816
0.0213192
0.291409
1.34462
0.058962
0.245159
2.96644
0.0225445
0.7426
0.0218089
0.0208796
0.0213737
0.0218172
0.0213885
2.18166
0.0219054
0.400241
0.0220472
0.0407344
0.0219982
0.0356061
0.0242008
0.0214845
0.0460137
0.022278
0.0201435
0.0795607
0.0234358
0.0319851
0.0214246
0.0202338
0.27706
0.0873193
0.0315332
0.0195791
0.0195626
0.021191
0.0224814
0.112263
0.0785682
0.329113
0.0360525
0.303975
0.021649
0.0284141
0.0251431
0.0249266
0.096448
0.0211277
0.0210558
0.0654103
0.0381557
2.73237
0.0210805
0.46034
0.324096
0.0243987
0.0403615
0.0242268
0.117939
0.0215694
0.0262353
0.331049
0.0232683
0.0210929
0.0938423
0.0217212
0.0205216
0.021021
2.88521
0.0217828
0.0265672
0.116086
0.0393421
0.0257526
0.0367844
0.284056
0.256493
0.288046
0.0201559
0.0216022
0.022483
0.0240749
0.0214077
0.750431
0.3199
0.0242515
0.28265
0.221895
0.404877
0.0216403
0.298752
0.0212641
0.183768
0.0660337
0.020637
0.66204
0.25773
0.02087
0.0215368
0.0214575
3.14657
0.306069
0.0288817
0.0436355
0.116682
0.0518144
2.64771
0.320869
0.0212951
0.0214008
2.12768
0.0674186
0.0211027
0.0212995
0.0201831
0.0219236
0.0216167
0.025907
0.0792223
0.0212857
0.0243477
0.0888452
0.0218592
0.0217527
0.0251501
0.736639
0.0216223
0.0233919
0.289669
0.0221372
0.0202306
0.0222455
0.0209489
0.0229421
0.323551
0.337976
0.0220781
0.287977
0.0265124
0.0954664
0.0213649
0.0225454
0.0227315
0.0218009
0.293821
0.021706
0.022311
0.0289
0.0224698
0.0212952
0.0263695
0.0212327
0.0935181
0.0215688
0.0210548
0.71582
0.0211044
0.26466
0.0274114
0.0209933
0.0521204
0.0230125
0.033516
0.820511
0.0202343
0.132059
0.0210076
0.0213907
0.129295
0.267694
0.0202511
0.0215538
0.020701
0.0218203
0.0716273
0.0225475
0.0216421
0.0221437
0.0224841
0.0224032
0.0212901
0.0203378
0.020976
0.0211959
0.407746
0.0246456
0.0200549
0.0403169
0.022019
0.0708288
0.158309
0.0333351
0.0215295
0.0212535
0.0664541
0.0237753
0.0214667
0.0217112
0.324181
0.684893
0.0213753
0.0198424
0.0605121
0.0516251
0.0196694
0.274578
0.0417972
0.0214449
0.0221476
0.0261819
0.0217373
0.0292617
0.389644
0.0220593
0.163271
0.027272
0.157091
0.0198455
0.0213709
0.0198647
0.0198443
0.825833
0.0211029
0.42573
0.0437325
0.0198517
0.0222516
0.0305483
0.021656
0.0218149
0.0213915
0.022409
0.462449
0.0198585
0.0215587
0.312369
0.0224935
0.0217348
0.0241427
0.0211173
0.0217702
0.021204
0.0215395
0.0337021
0.0217678
0.0938404
0.747486
0.019861
0.0214392
0.0198576
0.0858881
0.021025
0.0251944
0.0213206
0.0202346
0.0288167
0.0204538
0.0306352
0.0214252
0.0204692
0.113751
0.463854
0.0217571
0.0216209
0.0209731
0.233992
0.0679716
0.0213932
0.336536
0.301717
0.0220695
0.0711618
0.325677
0.025063
0.321423
0.0411605
0.040274
0.0212123
0.0305091
0.0962945
0.0204097
0.13782
2.43352
0.0213934
2.34674
2.26676
0.0240559
0.322719
0.0198629
0.0288282
0.0492474
0.0212551
0.30188
0.0198928
0.0421052
0.0639506
0.0198503
0.676593
0.0218462
0.0219499
0.0347497
0.0246338
3.34517
2.00497
0.0202922
0.0254281
2.51741
0.0207358
0.0255749
0.0208513
0.324589
0.732856
0.0226328
0.0216945
0.0257709
2.81175
2.25396
0.0301347
0.0198664
0.0209341
2.03687
0.284396
0.160653
0.023492
0.0234372
0.027183
0.0201927
0.022446
0.0245174
0.0234627
0.020963
0.0243896
0.263308
0.0598191
0.0209873
2.80593
0.0246792
0.0603271
2.62927
0.041031
0.388252
0.865413
0.0198773
0.11297
0.114361
0.170704
0.121812
0.0212665
0.105947
0.324486
0.0464645
0.0268588
0.100984
0.318228
0.0210913
0.0264888
0.0253712
0.0212322
0.063747
0.0212934
0.0220359
0.0206403
0.0199142
0.0217696
0.0213847
0.0231562
0.0263603
0.268307
0.0245312
0.323428
0.0208667
0.0272834
0.0216611
2.50926
0.743679
0.0212019
0.0493584
0.0217014
0.0202269
0.021304
0.0202119
0.0210923
0.090821
0.0217329
0.242995
0.0213306
0.0209615
0.265631
0.0225284
0.022041
0.0211407
0.0212695
0.227288
0.0632201
0.4483
3.3647
0.736867
0.0216
0.0219319
0.0218364
0.0251261
0.0417473
0.0732948
1.90056
0.0209976
0.046368
0.0226308
0.244232
2.36664
0.0255807
2.28811
0.620451
0.0227662
0.0438572
0.0209923
0.0464478
0.0231733
0.0900094
0.0452116
0.0199016
2.21846
0.220194
0.0218184
0.0234421
0.0222098
3.21117
0.0215036
0.0219278
0.485133
0.0208441
0.753187
0.0277536
0.0239689
0.0225621
0.0220609
0.581793
0.0211592
0.411922
0.0253596
0.0213167
0.0207481
0.262449
0.0229314
1.97108
0.0226729
0.0245569
0.0262938
0.0705807
0.0237231
0.0213421
0.0989724
0.02184
0.0204429
0.0206119
0.0748022
0.0244556
0.0205419
0.0224696
0.087344
0.0600436
0.0211667
0.210386
0.0212413
0.0892486
0.0293677
0.022274
0.02113
0.0960694
0.0209863
0.0207671
0.0213824
0.0769874
1.99491
0.0272613
0.0243263
0.0219987
0.0224137
0.324331
0.0305698
0.0217501
0.0218922
0.021058
0.0684609
0.507734
0.37287
0.0212429
0.239973
0.0202245
0.0201953
0.022498
0.0223433
0.0448855
0.0213633
0.0290584
0.292659
2.45139
0.0251306
0.0215749
0.0216304
0.0427471
0.0206259
0.0212714
0.0361906
0.021575
0.0212794
0.0225337
0.0243634
0.0201137
2.56178
0.0430329
0.0240913
0.0244253
0.0274223
0.0240447
0.502329
0.0213849
0.021273
0.0215511
0.0210696
0.0215234
0.0209625
0.270388
0.0916944
0.021697
0.0220936
0.0212487
0.0240695
0.0234619
0.0503165
0.0225436
2.73543
0.0213174
0.0221433
0.0212537
0.0788899
0.0215473
2.45132
0.021532
0.0216147
0.0195716
2.20083
0.024262
0.0343423
1.99934
0.0222475
0.0215382
0.0211432
0.0214254
0.0270066
0.0220339
0.0262559
0.422144
0.0216969
0.0582152
0.331858
0.0247187
0.1014
0.0215946
0.0244402
0.0210237
0.0203928
0.0202356
0.0213692
0.188522
0.0875816
0.0208708
0.162569
0.6646
0.021263
0.0620378
0.0203623
0.0359816
0.0222325
0.0210355
0.0739022
0.0215587
0.0226926
0.025611
0.0539382
0.0727184
0.0223596
0.0209984
0.0229083
2.08583
0.0314941
0.0378097
0.0276452
0.0215155
0.0214339
0.287271
0.0217462
0.0320786
0.0284796
0.42691
0.0215368
0.0368987
0.0215381
0.0220496
0.0345734
0.0330625
0.0343889
0.0225603
0.0222128
0.027777
0.418587
0.0439532
0.0204414
0.0261337
0.0857222
0.0247177
0.0446752
0.0217765
0.0219706
0.0213552
0.0258282
0.716426
0.0541495
0.0215375
0.0793121
0.0241035
0.0288398
0.0215804
0.0213576
0.0213726
0.0204899
0.0500661
0.02327
0.0231468
0.0225465
0.0213757
0.0215201
3.03394
0.0214202
0.0214139
0.0220444
0.272676
0.206643
0.021496
0.0212025
0.0215242
0.0376115
0.0223681
0.4564
0.0215469
0.0469052
0.0215064
0.0216896
0.042251
0.021905
0.0349323
0.0219293
0.0214596
0.0203788
0.0231827
1.8134
0.0218683
0.0224
0.211972
0.0215984
0.0227001
0.0224805
0.0216981
0.0212702
0.0223694
0.729555
0.0207829
0.0208555
0.0209602
0.034636
0.0258864
0.347703
0.0216106
0.0218259
0.710729
0.320394
0.22269
0.0270317
0.03062
0.219559
0.021594
0.215091
0.0220254
0.113294
0.0210093
0.0318757
0.196315
0.0195831
0.0250351
0.0235291
0.0227246
0.0200906
0.403782
0.0209262
0.217958
0.0218746
0.0214096
0.0220502
0.0201217
0.0220564
0.368655
0.0213719
0.0211486
0.0211481
0.0216397
0.0213897
0.0157124
0.684932
0.202278
0.0215837
0.0209582
0.0248918
0.0215306
0.0213459
0.110971
0.0420655
0.0223937
0.0213288
0.0252381
0.0237023
0.0539271
0.415617
0.0234357
0.020332
0.0212943
0.0289686
0.104657
0.0215032
0.021234
0.433575
0.093408
0.0460677
0.76089
0.0213212
0.024074
0.0238412
0.0200041
0.0220015
0.02635
0.46345
0.0715839
0.0212831
0.578178
0.0219748
0.0215516
0.0245109
0.0222788
0.0245019
0.0309891
0.0212498
0.0215179
0.0213486
0.0209134
0.0200601
0.0211788
0.0272803
0.0529316
0.100557
0.0195733
0.0200833
0.0212812
0.0221468
0.0213573
0.0338771
0.0223474
0.0224151
0.0223231
0.216666
0.0212633
0.0244909
0.822169
0.0213166
0.0212973
0.421634
0.0212425
0.0213729
0.021236
2.71523
0.0955389
0.0436801
0.022055
0.0691592
0.0208001
0.0201804
0.0204537
0.0212685
0.0363228
0.0212823
0.0218049
0.0452135
0.0213831
0.211264
0.0235826
0.0327206
0.0219821
0.0206043
0.03191
0.0215498
0.0211414
0.022039
0.021665
0.0213467
0.0385255
0.0209777
0.0433981
0.0211816
0.0216319
2.35132
0.0210851
0.0933185
0.0759789
0.0213192
0.73297
0.0211618
0.021893
0.0212632
0.0220497
0.020755
0.0213579
0.0213157
0.0213786
0.142143
0.0215841
0.0209733
0.0221204
0.0208287
0.021222
0.0212234
0.0214342
0.0205323
0.0213161
0.021282
0.0213825
0.0212735
0.0222528
0.136739
0.0214291
0.021975
0.0966185
0.10911
0.0208578
0.0274101
0.0209951
0.0212921
0.021305
0.0214596
0.740464
0.067125
0.0211211
0.0231405
0.329366
0.0216438
0.201899
0.505779
0.0200484
0.982337
0.0215451
0.660109
0.0255674
0.0917721
0.0855579
0.471081
0.021004
0.0211194
0.0203806
0.0262804
0.0597645
0.0229025
0.365829
0.425167
0.0213864
2.34745
0.415364
0.0212885
0.020428
0.0345253
0.0342677
0.0213161
0.0210474
0.0212717
0.0243259
0.024216
0.0246629
0.024128
0.024484
0.201777
0.0211038
0.0212616
0.021169
3.30398
0.0244801
0.0245339
2.71417
0.339817
0.133122
0.0210679
0.024315
0.0212372
0.0349822
0.0213646
0.0225101
0.267974
0.0242917
0.0632489
0.0199287
0.229954
0.0343225
0.0936913
0.25538
0.710563
0.0211318
0.0213541
0.0213452
0.800858
0.0214294
0.0208977
0.0213509
0.0313327
0.535761
0.207447
0.024199
0.0433972
0.398497
0.0424539
0.24185
0.0532572
0.255936
0.0393196
0.581771
0.246661
0.0211216
0.0211352
0.0211519
0.655118
0.0584702
0.340606
0.0209198
0.0212545
0.0212505
3.28101
0.0211906
0.0212161
0.0210745
0.03881
0.0209757
0.0211707
0.0203485
0.025184
0.0706173
0.0283557
0.0239994
0.0215673
1.14204
0.0290197
0.0204967
0.0213333
0.192833
0.303358
0.0216252
0.02166
2.7208
0.0211853
0.0210248
0.020997
0.0214453
0.229204
0.0210137
0.0216486
0.0211282
0.0217667
0.0212527
0.0211564
0.0210681
0.0212534
0.021354
0.40879
0.0212546
0.0207034
0.200592
0.0467391
0.0323669
0.0582887
0.0210025
0.0392462
0.021296
0.0302424
0.0210972
0.707742
0.0211577
0.0212426
0.020164
0.578012
0.0245816
0.021215
0.0663459
0.0212288
0.0201704
0.0212371
0.0220183
0.0298949
0.0209985
0.602397
0.0215049
0.0302121
0.0391311
0.0213685
0.0333526
0.0210127
0.0206306
0.0212005
0.775724
0.0264801
0.0681788
0.047979
0.0728772
0.0273191
0.232746
0.0246417
0.021328
0.0198261
2.75421
0.623234
0.0209916
0.0351352
0.0209886
0.0210448
0.447071
0.0205523
0.021297
0.0311833
0.228351
0.680845
0.0213103
0.0210523
0.170872
0.0209731
0.0204977
0.0616768
0.0212261
0.13525
0.0662153
0.150827
0.0213449
0.0225335
0.0211373
0.0200897
0.0286649
0.0216981
0.0214115
0.0328439
0.0207027
0.0658653
0.021368
0.0227048
0.023914
0.739035
0.0244164
0.0217283
2.25991
0.17274
0.0212613
0.432645
0.0216738
0.0212831
0.021356
0.0210297
0.024133
0.026843
0.415461
0.0211945
0.0242225
0.0218065
0.0197678
0.021069
0.0213096
0.025338
0.0208308
0.0212481
0.0219114
0.0214543
0.545855
0.0213754
0.0220421
0.051484
0.0222123
0.0202308
0.0381108
0.0625609
0.424288
0.086152
0.0609912
0.0205888
0.0223843
0.438645
1.04643
0.293204
0.297469
0.20319
0.0215314
0.303822
0.634404
0.021564
0.257181
0.0222463
0.734377
0.208102
0.687772
0.0222543
0.0210671
0.0467012
0.0212876
0.0213908
0.159005
0.709412
0.0213572
0.021435
0.0212104
0.312567
0.0211317
0.0210985
0.0212426
0.0210142
0.0210354
0.211065
0.0221207
0.0209806
0.0214002
0.0296912
0.119301
0.756463
0.0213001
0.0211658
0.0231764
0.0212954
0.021013
0.0211353
0.473594
0.0212409
0.0398993
0.0211476
0.0215006
0.0203238
0.0213357
0.563906
0.15322
0.0205511
0.0217301
0.248592
0.345977
0.03657
0.706939
0.0213246
0.0297752
0.021121
0.0197557
0.0211322
0.0201874
0.0210806
0.0212564
0.0216839
0.201347
0.0200258
0.41711
0.750702
0.0200713
0.0315919
0.0408796
0.0221445
0.0211388
0.0212168
0.0214033
0.0211089
0.202526
0.0198589
0.0211732
0.0898799
0.0211137
0.0213089
0.0209925
0.714376
0.0213933
0.0213781
0.768531
0.0206881
0.020614
0.0211234
0.194176
0.0212607
0.0196456
0.0211102
0.0200742
0.30604
0.0332207
0.0210553
0.0379797
0.0198042
0.0212662
0.022302
0.303357
0.725418
0.0200637
0.0242944
0.0213325
0.0211598
0.0211392
0.0211079
0.234305
0.19161
0.0212979
0.0221408
0.0295384
0.0209704
0.0210941
0.0244608
0.0290747
0.754239
0.021313
0.0242144
0.329183
0.0211369
0.0240819
0.808706
0.0754095
0.0207734
0.0209837
0.0211125
0.0211729
0.0209911
0.250249
0.0210793
0.393068
0.389257
0.0221307
0.0240687
0.247258
0.0211328
0.0603377
0.0125476
0.13077
0.0252419
0.021193
0.0224832
0.241002
0.0208347
0.0951718
0.020984
0.0201006
0.0200883
0.0201503
0.021144
0.127295
0.0216276
0.437781
0.294099
0.0718223
0.624364
0.0197844
0.0213826
0.0233519
0.410251
0.0211799
0.80694
0.0249879
0.0200746
0.0209535
0.25984
0.0209583
0.0291331
0.163592
0.0210629
0.231561
0.0220512
0.0559759
0.058074
0.0213986
0.0206062
0.0419191
0.0634537
0.0212349
0.0238092
0.0201877
0.0226828
0.0208984
0.124632
0.0210393
0.0205483
0.120067
0.0201452
0.222665
0.0214186
0.0211847
0.0212103
0.506677
0.0210143
0.0209238
1.01611
0.0577441
0.418911
0.021687
0.0201627
0.0319051
0.763773
0.270609
2.12723
0.0239179
0.0242891
0.0215859
0.0212847
0.024546
0.0219679
0.0211757
0.0204011
0.0318392
0.0245043
0.0209498
0.019632
0.0215529
0.0205928
0.0215394
0.0249337
0.0511158
0.855321
0.0280383
0.165772
0.376266
0.0206517
0.0209642
0.0223756
0.0389444
0.0202711
0.0217881
0.0209306
0.0210498
0.021154
0.0531991
0.0212846
0.0373158
0.0212731
0.0209134
0.094893
0.0382148
0.0218493
0.0209416
0.0208823
0.593709
0.238648
0.0215242
0.0202384
0.0238202
0.0209606
0.0212448
0.0210323
0.102696
0.0210026
0.0208736
0.38723
0.0204955
0.0701016
0.0240963
0.0210554
0.0213292
0.242015
0.0374379
0.196004
0.934755
0.0239112
0.0223897
0.0218489
0.0212518
0.0304928
0.0208689
0.75079
0.721026
0.0229092
0.138289
0.235446
0.0209036
0.420657
0.0246249
1.86228
0.0242493
0.0208115
0.0208359
0.0219747
0.0210885
0.0393767
0.465627
0.0333981
0.0212096
0.0209766
0.0208783
0.0423009
0.0246954
0.14182
0.0209022
0.0215476
0.0332901
0.0210911
0.298804
0.0384145
0.0209094
0.0213893
0.0197412
0.0212909
0.090548
0.0965402
0.0208854
0.0210823
0.0206807
0.243777
0.0211582
0.0246499
0.973122
0.129305
0.590673
0.0930087
0.227149
0.0212527
0.0298061
0.0216318
0.0211142
0.0236044
0.0317565
0.020482
0.0211517
0.0352486
0.0212792
0.0206829
0.163011
0.0202391
0.0211456
0.0345869
0.330494
0.0201218
0.0202123
0.0473168
0.0096561
0.0394662
0.470644
0.0250493
0.485455
0.0209824
0.0905761
0.0385961
0.0657915
0.317528
0.0249374
0.730778
0.0209674
3.07868
0.0206182
0.0210174
0.020262
0.0212557
0.032133
0.0207904
0.0532728
0.0208581
0.022056
0.02135
0.184637
0.0213256
0.125751
0.0251928
0.0257201
0.101097
0.0570215
0.279176
0.0197231
0.038424
0.0212519
0.274497
0.0214466
0.0641691
0.0814418
0.028956
0.105821
0.0208173
0.411785
0.0240311
0.0268999
0.0214212
0.748372
0.0215746
0.0209073
0.0212114
0.117198
0.0215006
0.0282097
0.035889
0.0271606
0.0565139
0.0208478
0.0200915
0.592431
0.0375133
0.161691
0.378504
0.0209192
0.235692
0.271587
0.0504181
0.0206949
0.0358163
0.0829413
0.0207958
0.0256496
0.0197972
0.266145
0.452387
0.302263
0.0355609
0.0208227
0.0206756
0.0219038
0.0201871
0.022224
0.0241916
0.0224529
0.0204243
0.433948
0.0223292
0.0215429
0.0259051
0.136751
0.0126982
0.0221725
0.0235119
0.0241799
0.612534
0.0208166
0.273051
0.0213082
0.038915
0.33465
0.0218457
0.11273
0.0204196
0.0199743
0.0208423
0.0208537
0.0206645
0.0208824
0.0197733
0.0554217
0.0240383
0.0210217
0.457913
0.0209202
0.0216818
0.0206524
0.766587
0.02104
0.0231746
0.0342427
0.0372071
0.0209107
0.019785
0.761268
0.0212155
0.420355
0.788658
0.0216736
0.0218427
0.0321356
0.116172
0.0466259
0.020227
0.0206486
0.0226901
0.0326134
0.0238976
0.0445776
0.0349823
0.022
0.0218939
0.0254234
0.0223689
0.0310307
0.386423
0.0205618
0.455354
0.0318023
0.0212869
0.0209414
0.0209483
0.0209133
0.020657
0.0210316
0.0207632
0.0221317
0.0248828
0.0238011
0.0212769
0.0240572
0.0258994
0.0205999
0.0207277
0.119677
0.0224644
0.02352
0.0205814
0.0218626
0.0205568
0.0200547
0.462355
0.0213485
0.0210653
0.34654
0.387527
0.317092
0.0209101
0.829615
0.0215262
0.824037
0.431932
0.02216
0.440883
0.0206964
0.0203093
0.640573
0.0208487
0.053267
0.11144
0.395342
0.0241278
0.399829
0.0215069
0.0208785
0.0221879
0.0206608
0.412846
0.285237
0.0208897
0.458671
0.0436529
0.019733
0.0206798
0.0351239
0.134981
0.642852
0.0264485
0.239297
0.411747
0.021236
0.13586
0.396919
0.0515751
0.476534
0.0311357
0.448387
0.0197664
0.393237
0.317318
0.0198378
1.00941
0.278354
0.624767
0.0196448
0.244952
0.0204157
0.0206834
0.345686
0.566738
0.0206931
0.0214156
0.0586559
0.0198373
0.0262655
0.0208235
0.0360949
0.344396
0.0225962
0.0215291
0.317365
0.0340509
0.0843365
0.377342
0.0209862
0.301979
0.0210284
0.323124
0.026593
0.0205291
0.326954
0.0217546
0.0727812
0.0213647
0.357739
0.0211192
0.0212721
0.0202384
0.0213585
0.0205201
0.0219549
2.74232
0.746732
0.0206002
0.407647
0.312269
0.0203305
0.0205638
0.415473
0.0564262
3.20011
0.422502
0.0766066
0.020568
0.0212086
0.4169
0.0255548
0.424645
0.0315292
0.0206313
0.0212347
0.0210361
0.0198115
0.0206064
0.0378991
0.0205865
0.192563
0.0209183
0.0213642
0.0585674
0.0197717
0.0364735
0.673045
0.0208641
0.0208018
0.0209694
0.0303086
0.0196442
0.0202069
0.266959
0.0462204
0.0306301
0.0218403
0.0329542
0.0205373
0.0211426
0.0212529
0.0795944
0.365759
0.216467
0.412583
0.0315582
0.231349
0.0876305
0.0210267
0.024079
0.0196538
0.0196632
0.0233628
0.0208344
0.438565
0.23994
0.0246826
0.687551
0.029929
0.370863
0.355812
0.0200843
0.232265
0.0242457
0.0744957
0.0213304
0.0204709
0.0201357
0.0303906
0.270307
0.379071
0.184055
0.020971
2.69725
0.0205886
0.124879
0.427225
0.0204943
0.0230361
0.0210234
0.78454
0.233513
0.0217611
0.0196389
0.0329667
0.0238329
0.38091
0.0215065
0.0212455
0.426673
0.244389
0.0205427
0.022211
0.020708
0.0238827
0.0215734
0.410739
0.0207149
0.0220706
0.263266
0.0213444
0.0208652
0.287293
0.142769
0.0215117
0.0216021
0.0218054
0.0205969
0.0205187
0.0452545
0.202818
0.0209122
0.0255
0.0208483
0.0213645
0.0213541
0.021133
0.43207
0.15404
0.0229906
0.130441
0.0207646
0.0232034
0.0208487
0.0214523
0.0395685
0.0216643
0.344954
0.0207397
0.409202
0.0214402
0.0687317
0.108808
0.0206709
0.0208452
0.0439364
0.040744
0.870109
0.326098
0.346603
0.432815
0.0242187
0.021191
0.186165
0.0207749
0.0640397
0.0199887
0.284857
0.0302054
0.0208655
0.0215244
0.0209078
0.0171022
0.304658
0.0211514
0.259948
0.0250877
0.0696078
0.020485
0.0254042
0.0777522
0.0204568
0.689144
0.0593821
0.0202006
0.351704
0.15964
0.0471348
0.0204735
0.442574
0.0209687
0.0202404
0.0340326
0.0204807
0.0574339
0.0200306
0.0208393
0.0205309
0.0238592
0.0325016
0.0207575
0.267388
0.0197804
0.0247184
0.270037
0.0212678
0.197882
0.182753
0.0338892
0.0931647
0.0212921
0.0205405
0.373326
0.0205058
0.020385
0.0209199
2.30532
0.214484
0.0214701
2.04404
0.0201298
0.0210406
0.021299
0.0429287
0.0206696
0.451395
0.147576
0.0212416
0.203245
0.0441992
0.276054
0.0204113
0.0205638
0.0244765
0.021327
0.779858
0.484592
0.0203367
0.0215661
0.0207053
0.142297
0.0367847
0.0211454
0.395273
0.0209837
0.0213208
0.0198036
0.021126
0.0904816
0.106367
0.0204493
0.404826
0.266529
0.0198696
0.134864
0.0206116
0.0208935
0.288597
0.0204055
0.448318
0.0198254
0.0262729
0.135146
0.0197661
0.0201196
0.0209649
2.13791
0.0251288
1.46695
0.38118
0.0261519
0.023716
0.0831904
0.0205056
0.771013
0.0360726
0.0206435
0.243041
0.672237
0.0977551
2.34004
0.0532143
0.0203951
0.132668
0.160511
0.243007
0.174324
0.020479
0.0203422
0.0207494
0.27135
0.0203146
0.0201602
0.0287841
0.027624
0.0212966
0.0203696
0.0208783
0.0202903
0.020807
0.388216
0.0208306
0.240249
0.320911
0.0333576
0.0242022
0.0206307
0.0204239
0.421374
0.0710607
0.692954
0.425116
0.0205091
0.0206771
0.0415806
0.0879555
0.166974
0.0204406
0.490223
0.426062
0.0199651
0.0377953
0.0295567
0.0201488
0.020927
0.02101
0.0213563
0.0201141
0.0378235
0.245432
0.0209762
0.30247
0.0213432
0.0335391
0.0209087
0.0213422
0.0287405
0.175594
0.0278024
0.0203428
0.0198248
0.0202982
0.0202941
0.29143
0.014034
0.225876
0.0717833
0.216355
0.0441082
0.0203245
0.0330582
0.0704195
0.0212356
0.321803
0.0227767
0.0197659
0.0503435
0.0943058
0.0223888
0.0284721
0.197827
0.265864
0.0308894
0.0202756
0.0240049
0.0207125
0.294897
0.0206721
0.139243
0.308647
0.0279648
0.051798
0.0411955
0.0331148
0.157607
0.0209628
0.0203518
0.0209303
0.0208495
0.189551
0.0206222
0.0206317
0.0243381
0.0215284
0.0202003
0.0423102
0.284513
0.276638
0.0202308
0.526543
0.254675
0.0544011
0.0211017
0.0203841
0.0229832
0.0201732
0.079297
0.0247602
0.0202854
0.0299172
0.0205754
0.447836
0.0503412
0.0206088
0.312054
0.182874
0.0203635
0.145092
0.329691
0.0981751
0.021065
0.0270147
0.106711
0.0196497
0.0205061
0.318353
0.0279926
0.0209562
0.140499
0.021086
0.0204111
0.0205296
0.0203525
0.277515
0.0201846
0.0203762
0.330603
0.0786071
0.0205054
0.020787
0.240059
0.275775
0.0230719
0.0217029
0.0203953
0.561355
0.0570525
0.0216356
0.0202176
0.097505
0.166868
0.0229512
0.0201374
0.339377
0.0246261
0.0202139
0.558491
0.0209372
0.051183
0.0204729
0.348169
0.054161
0.0495195
0.20008
0.0204262
0.0858935
0.0211561
0.0318258
0.126589
0.0201597
0.108866
0.0202696
0.365793
0.0206955
0.0203569
0.0199886
0.0204606
0.0202473
0.0201252
0.0538691
0.0214979
0.0655338
0.0222343
0.0197594
0.022767
0.26826
0.0205517
0.298288
0.0202721
0.021107
0.197387
0.0217771
0.297918
0.0238817
0.0915111
0.0201113
0.0201554