/*--------------------------------*- C++ -*----------------------------------*\
| =========                 |                                                 |
| \\      /  F ield         | OpenFOAM: The Open Source CFD Toolbox           |
|  \\    /   O peration     | Version:  v2012                                 |
|   \\  /    A nd           | Website:  www.openfoam.com                      |
|    \\/     M anipulation  |                                                 |
\*---------------------------------------------------------------------------*/
FoamFile
{
    version     2.0;
    format      ascii;
    class       volVectorField;
    location    "600";
    object      cellDisplacement;
}
// * * * * * * * * * * * * * * * * * * * * * * * * * * * * * * * * * * * * * //

dimensions      [0 1 0 0 0 0 0];


internalField   nonuniform List<vector> 
10042
(
(0 -0.00196206 0)
(0 -0.00510169 0)
(0 -0.0044786 0)
(0 -0.00126665 0)
(0 -0.000700341 0)
(0 -0.0056227 0)
(0 -0.00227975 0)
(0 -0.00321393 0)
(0 -0.00143427 0)
(0 -0.00299253 0)
(0 -0.00351791 0)
(0 -0.00508627 0)
(0 -0.00150263 0)
(0 -0.00356837 0)
(0 -0.00156001 0)
(0 -0.00356225 0)
(0 -0.00563307 0)
(0 -0.00357017 0)
(0 -0.001483 0)
(0 -0.00374335 0)
(0 -0.00156422 0)
(0 -0.00190487 0)
(0 -0.00120818 0)
(0 -0.00483823 0)
(0 -0.00276851 0)
(0 -7.91272e-05 0)
(0 -0.00300747 0)
(0 -0.000918687 0)
(0 -0.00563235 0)
(0 -0.00494761 0)
(0 -0.000371253 0)
(0 -0.000942441 0)
(0 -0.00132442 0)
(0 -0.00125503 0)
(0 -0.00324769 0)
(0 -0.00334156 0)
(0 -0.000229075 0)
(0 -0.00150142 0)
(0 -0.0005104 0)
(0 -0.000143008 0)
(0 -0.00490612 0)
(0 -0.00135968 0)
(0 -0.00142088 0)
(0 -0.00474207 0)
(0 -0.00197844 0)
(0 -0.00287021 0)
(0 -0.000588144 0)
(0 -0.00156113 0)
(0 -0.00242941 0)
(0 -0.0016859 0)
(0 -0.00146638 0)
(0 -0.0011257 0)
(0 -0.00562384 0)
(0 -0.00151912 0)
(0 -0.00341043 0)
(0 -0.00138825 0)
(0 -0.00159884 0)
(0 -0.00342843 0)
(0 -0.0021699 0)
(0 -4.31586e-05 0)
(0 -0.00250169 0)
(0 -0.00318764 0)
(0 -0.00141889 0)
(0 -0.00312068 0)
(0 -0.00492597 0)
(0 -0.00401407 0)
(0 -0.00380538 0)
(0 -0.00219931 0)
(0 -0.000625154 0)
(0 -0.00215211 0)
(0 -0.00147622 0)
(0 -0.00311973 0)
(0 -0.00241039 0)
(0 -0.0021308 0)
(0 -0.0039467 0)
(0 -0.00143244 0)
(0 -0.00501896 0)
(0 -0.000610103 0)
(0 -0.0050551 0)
(0 -0.00143293 0)
(0 -0.00472804 0)
(0 -0.00488256 0)
(0 -0.000175854 0)
(0 -0.00111188 0)
(0 -0.00335372 0)
(0 -0.00257105 0)
(0 -0.00379563 0)
(0 -0.00452904 0)
(0 -0.00358733 0)
(0 -0.00494218 0)
(0 -0.00149342 0)
(0 -0.00152374 0)
(0 -0.00146165 0)
(0 -0.0026211 0)
(0 -0.00482014 0)
(0 -0.00282845 0)
(0 -0.000669728 0)
(0 -0.00373746 0)
(0 -0.0054067 0)
(0 -0.00203512 0)
(0 -0.00152067 0)
(0 -0.00300857 0)
(0 -0.00285989 0)
(0 -0.000954091 0)
(0 -0.0016515 0)
(0 -0.0026768 0)
(0 -0.00192161 0)
(0 -0.00384984 0)
(0 -0.00235603 0)
(0 -0.00267531 0)
(0 -0.00222418 0)
(0 -0.00239602 0)
(0 -0.00305079 0)
(0 -0.00314886 0)
(0 -0.00486642 0)
(0 -0.00068287 0)
(0 -0.00512312 0)
(0 -0.000414305 0)
(0 -0.00337426 0)
(0 -0.000646135 0)
(0 -5.78261e-05 0)
(0 -0.0051155 0)
(0 -0.00510499 0)
(0 -0.00207071 0)
(0 -0.00497689 0)
(0 -0.00377262 0)
(0 -0.00385164 0)
(0 -0.00338882 0)
(0 -0.00104374 0)
(0 -0.00514105 0)
(0 -0.00170808 0)
(0 -0.00374092 0)
(0 -0.00410359 0)
(0 -0.00359916 0)
(0 -0.00246624 0)
(0 -0.00170751 0)
(0 -0.00398502 0)
(0 -0.0021257 0)
(0 -0.00185712 0)
(0 -0.00540903 0)
(0 -0.00146851 0)
(0 -0.000532482 0)
(0 -0.0019814 0)
(0 -0.000869353 0)
(0 -0.00233998 0)
(0 -0.00158159 0)
(0 -0.00333064 0)
(0 -0.000592381 0)
(0 -0.00337535 0)
(0 -0.00566879 0)
(0 -0.00377899 0)
(0 -0.000393845 0)
(0 -0.0018445 0)
(0 -0.00144235 0)
(0 -0.00475928 0)
(0 -0.00238795 0)
(0 -0.00107466 0)
(0 -0.00137159 0)
(0 -0.00412549 0)
(0 -5.36098e-05 0)
(0 -0.000419123 0)
(0 -0.00011291 0)
(0 -0.00178408 0)
(0 -0.003676 0)
(0 -0.00187994 0)
(0 -0.00567061 0)
(0 -0.00238799 0)
(0 -0.000973901 0)
(0 -0.00331129 0)
(0 -0.00115251 0)
(0 -0.00470307 0)
(0 -0.00497499 0)
(0 -0.00514383 0)
(0 -0.0012182 0)
(0 -0.00157195 0)
(0 -0.00512312 0)
(0 -0.00270269 0)
(0 -0.0015562 0)
(0 -0.00366124 0)
(0 -0.000621283 0)
(0 -0.00188558 0)
(0 -0.00182934 0)
(0 -0.00207177 0)
(0 -0.000535686 0)
(0 -0.000183044 0)
(0 -0.00127507 0)
(0 -0.00306197 0)
(0 -4.09204e-05 0)
(0 -0.00149349 0)
(0 -0.00055849 0)
(0 -0.00506964 0)
(0 -0.00166132 0)
(0 -0.00179645 0)
(0 -0.00182392 0)
(0 -0.00343769 0)
(0 -0.00148846 0)
(0 -0.000819144 0)
(0 -0.00458165 0)
(0 -0.000682211 0)
(0 -0.000995494 0)
(0 -0.00103056 0)
(0 -0.00146582 0)
(0 -0.00530627 0)
(0 -0.000368867 0)
(0 -0.00542917 0)
(0 -0.00401204 0)
(0 -0.00468686 0)
(0 -0.00148518 0)
(0 -0.00223962 0)
(0 -0.00362181 0)
(0 -0.000933113 0)
(0 -0.000407139 0)
(0 -0.00533955 0)
(0 -0.00524467 0)
(0 -0.000319565 0)
(0 -0.00214965 0)
(0 -0.000339807 0)
(0 -0.00517133 0)
(0 -0.000640019 0)
(0 -0.00106757 0)
(0 -0.000869525 0)
(0 -0.00464211 0)
(0 -0.000902474 0)
(0 -0.00212883 0)
(0 -0.00136645 0)
(0 -0.0014265 0)
(0 -0.00335073 0)
(0 -0.0039733 0)
(0 -0.00297328 0)
(0 -0.00281535 0)
(0 -0.00162825 0)
(0 -0.00394091 0)
(0 -0.00131942 0)
(0 -0.000287299 0)
(0 -0.00275815 0)
(0 -0.00324599 0)
(0 -0.00406988 0)
(0 -0.000691678 0)
(0 -0.0023325 0)
(0 -0.00481188 0)
(0 -0.00523946 0)
(0 -0.00504977 0)
(0 -4.94213e-05 0)
(0 -0.000146651 0)
(0 -0.00365981 0)
(0 -0.000718886 0)
(0 -0.00501376 0)
(0 -0.00237692 0)
(0 -0.00185062 0)
(0 -0.000571323 0)
(0 -0.00163306 0)
(0 -0.00185606 0)
(0 -0.00547362 0)
(0 -0.00346182 0)
(0 -0.00337428 0)
(0 -0.00404954 0)
(0 -0.000456528 0)
(0 -0.00355649 0)
(0 -0.000686878 0)
(0 -0.000871109 0)
(0 -0.00496733 0)
(0 -0.0017585 0)
(0 -0.00112862 0)
(0 -0.000628635 0)
(0 -0.00146444 0)
(0 -0.00353236 0)
(0 -0.00493302 0)
(0 -0.00544539 0)
(0 -0.000181421 0)
(0 -0.00397588 0)
(0 -0.001335 0)
(0 -0.00172348 0)
(0 -0.00341667 0)
(0 -0.00144165 0)
(0 -0.00353681 0)
(0 -0.00319334 0)
(0 -0.00148308 0)
(0 -0.00226228 0)
(0 -0.000177959 0)
(0 -0.00349911 0)
(0 -0.000995705 0)
(0 -0.00513151 0)
(0 -0.000777474 0)
(0 -0.0015065 0)
(0 -6.87124e-05 0)
(0 -0.000925672 0)
(0 -0.00514957 0)
(0 -0.000893485 0)
(0 -0.00179093 0)
(0 -0.000320831 0)
(0 -0.00175894 0)
(0 -0.00501513 0)
(0 -0.000121106 0)
(0 -0.00515804 0)
(0 -0.00495886 0)
(0 -0.00344535 0)
(0 -0.00416973 0)
(0 -0.0040316 0)
(0 -0.00130726 0)
(0 -0.000349168 0)
(0 -0.00188448 0)
(0 -0.00528005 0)
(0 -2.78816e-05 0)
(0 -0.00520522 0)
(0 -0.00513492 0)
(0 -0.00318964 0)
(0 -0.00358429 0)
(0 -0.000115011 0)
(0 -0.0042222 0)
(0 -0.0051762 0)
(0 -0.000162528 0)
(0 -0.00348555 0)
(0 -0.00274717 0)
(0 -0.00344343 0)
(0 -0.00502027 0)
(0 -0.00173487 0)
(0 -0.000608294 0)
(0 -0.000167612 0)
(0 -0.00479991 0)
(0 -0.000653772 0)
(0 -0.000143806 0)
(0 -0.00148451 0)
(0 -0.00314031 0)
(0 -0.00257606 0)
(0 -0.000286533 0)
(0 -0.000250427 0)
(0 -0.00421511 0)
(0 -0.00365387 0)
(0 -0.00401546 0)
(0 -0.00179105 0)
(0 -0.00400382 0)
(0 -0.00232605 0)
(0 -0.00198254 0)
(0 -0.000415589 0)
(0 -0.00473516 0)
(0 -0.00183423 0)
(0 -0.00191128 0)
(0 -0.00253721 0)
(0 -0.00194369 0)
(0 -0.00565673 0)
(0 -0.00153663 0)
(0 -0.00175825 0)
(0 -6.49941e-05 0)
(0 -0.00434406 0)
(0 -0.000342594 0)
(0 -0.00159959 0)
(0 -0.00317975 0)
(0 -0.000655255 0)
(0 -0.00480529 0)
(0 -0.0006596 0)
(0 -0.00157194 0)
(0 -0.00485644 0)
(0 -0.0048001 0)
(0 -0.00177197 0)
(0 -0.00325241 0)
(0 -0.00428335 0)
(0 -0.00330013 0)
(0 -9.20083e-05 0)
(0 -0.00104235 0)
(0 -6.42309e-05 0)
(0 -0.00261351 0)
(0 -0.000230294 0)
(0 -0.00193742 0)
(0 -0.00487189 0)
(0 -0.00565641 0)
(0 -0.00185251 0)
(0 -0.000819378 0)
(0 -0.00472516 0)
(0 -0.00473415 0)
(0 -0.00327817 0)
(0 -4.97234e-05 0)
(0 -0.000172382 0)
(0 -0.00351015 0)
(0 -2.63501e-06 0)
(0 -0.00258132 0)
(0 -0.00376905 0)
(0 -0.00325571 0)
(0 -0.00532138 0)
(0 -0.00383073 0)
(0 -0.00252611 0)
(0 -0.00252398 0)
(0 -0.00529541 0)
(0 -0.00305784 0)
(0 -0.00356966 0)
(0 -0.00126987 0)
(0 -0.000674367 0)
(0 -0.000578026 0)
(0 -0.000601177 0)
(0 -0.0041379 0)
(0 -0.000871883 0)
(0 -0.003587 0)
(0 -0.00124109 0)
(0 -0.00161498 0)
(0 -0.00414926 0)
(0 -0.0056419 0)
(0 -0.00338573 0)
(0 -0.00142313 0)
(0 -0.00321533 0)
(0 -0.000131763 0)
(0 -0.000986833 0)
(0 -0.00101282 0)
(0 -0.000912409 0)
(0 -0.000952475 0)
(0 -0.00334074 0)
(0 -0.000775058 0)
(0 -0.00182519 0)
(0 -0.00157024 0)
(0 -0.00198751 0)
(0 -0.00522257 0)
(0 -0.00356379 0)
(0 -0.00557304 0)
(0 -0.00214394 0)
(0 -0.00508972 0)
(0 -0.00163376 0)
(0 -0.00295677 0)
(0 -0.00449741 0)
(0 -0.00241971 0)
(0 -0.0032959 0)
(0 -0.00071818 0)
(0 -0.00443838 0)
(0 -0.000423339 0)
(0 -0.00564078 0)
(0 -0.00166862 0)
(0 -0.000512752 0)
(0 -0.00143146 0)
(0 -0.0045669 0)
(0 -0.0032284 0)
(0 -0.00555736 0)
(0 -0.000872156 0)
(0 -0.0016914 0)
(0 -0.00455693 0)
(0 -0.000667914 0)
(0 -0.00219465 0)
(0 -0.00332235 0)
(0 -0.00198056 0)
(0 -0.00195987 0)
(0 -0.00236739 0)
(0 -0.00330927 0)
(0 -0.000133863 0)
(0 -0.00133305 0)
(0 -0.000836018 0)
(0 -0.00497278 0)
(0 -0.00433665 0)
(0 -0.00145058 0)
(0 -0.00167335 0)
(0 -0.000147635 0)
(0 -0.00292108 0)
(0 -0.00181258 0)
(0 -0.00315285 0)
(0 -0.000507669 0)
(0 -0.00307906 0)
(0 -0.00437699 0)
(0 -0.00440667 0)
(0 -0.0012931 0)
(0 -0.00110538 0)
(0 -0.00328086 0)
(0 -0.0048312 0)
(0 -0.00121307 0)
(0 -0.000581087 0)
(0 -0.000140031 0)
(0 -0.00033096 0)
(0 -0.00151347 0)
(0 -0.00274451 0)
(0 -0.00281957 0)
(0 -0.00406724 0)
(0 -5.99114e-05 0)
(0 -0.00189086 0)
(0 -0.00140799 0)
(0 -0.00498549 0)
(0 -0.00474263 0)
(0 -0.00189044 0)
(0 -0.00145803 0)
(0 -0.00106993 0)
(0 -0.00231305 0)
(0 -0.00531812 0)
(0 -0.00047152 0)
(0 -0.00111674 0)
(0 -0.000179609 0)
(0 -0.00335661 0)
(0 -0.00152391 0)
(0 -0.00452004 0)
(0 -0.0016777 0)
(0 -0.00538197 0)
(0 -0.000463949 0)
(0 -0.00157052 0)
(0 -0.000100065 0)
(0 -0.00302579 0)
(0 -0.00550696 0)
(0 -0.000166892 0)
(0 -0.000940323 0)
(0 -0.00351193 0)
(0 -0.00485189 0)
(0 -0.0017421 0)
(0 -0.00443492 0)
(0 -0.00466685 0)
(0 -0.00163891 0)
(0 -0.00171948 0)
(0 -0.00449819 0)
(0 -0.00516937 0)
(0 -0.00230331 0)
(0 -0.00218566 0)
(0 -0.000338267 0)
(0 -0.00509266 0)
(0 -0.00488618 0)
(0 -0.0022395 0)
(0 -0.00553786 0)
(0 -0.000503958 0)
(0 -0.000108789 0)
(0 -0.00304591 0)
(0 -0.00277132 0)
(0 -0.00237752 0)
(0 -0.00466644 0)
(0 -0.00171916 0)
(0 -0.00108036 0)
(0 -0.0026036 0)
(0 -0.00519711 0)
(0 -0.00195419 0)
(0 -0.00525023 0)
(0 -0.0014332 0)
(0 -0.00200261 0)
(0 -0.00156716 0)
(0 -0.00248739 0)
(0 -0.00553396 0)
(0 -0.00275425 0)
(0 -0.00201827 0)
(0 -0.00556799 0)
(0 -0.0046222 0)
(0 -0.00363424 0)
(0 -0.00271477 0)
(0 -0.00388113 0)
(0 -0.000134746 0)
(0 -0.00224678 0)
(0 -0.00253798 0)
(0 -0.00110417 0)
(0 -0.00465024 0)
(0 -0.00287682 0)
(0 -0.00232054 0)
(0 -0.00390832 0)
(0 -0.00164227 0)
(0 -0.00359396 0)
(0 -0.000884705 0)
(0 -0.00294617 0)
(0 -0.00263146 0)
(0 -0.000876618 0)
(0 -0.00195109 0)
(0 -0.00117677 0)
(0 -0.000529528 0)
(0 -0.00221314 0)
(0 -0.00554978 0)
(0 -5.40159e-05 0)
(0 -0.00548153 0)
(0 -0.00218184 0)
(0 -0.00139955 0)
(0 -0.00398629 0)
(0 -0.00190428 0)
(0 -0.00511622 0)
(0 -0.00472022 0)
(0 -0.000395066 0)
(0 -0.00109557 0)
(0 -0.000513466 0)
(0 -0.00110967 0)
(0 -0.00291186 0)
(0 -0.00260793 0)
(0 -0.00464972 0)
(0 -0.00261986 0)
(0 -2.65191e-05 0)
(0 -0.00288955 0)
(0 -0.00170984 0)
(0 -0.00296721 0)
(0 -0.00012468 0)
(0 -0.00110142 0)
(0 -0.00290501 0)
(0 -0.00483381 0)
(0 -0.00257219 0)
(0 -0.0046162 0)
(0 -0.00116448 0)
(0 -0.00123558 0)
(0 -0.00135966 0)
(0 -0.00146078 0)
(0 -0.00367144 0)
(0 -0.00354451 0)
(0 -0.00248672 0)
(0 -0.000483958 0)
(0 -0.000888976 0)
(0 -0.0017426 0)
(0 -0.00344221 0)
(0 -0.00207829 0)
(0 -0.0024075 0)
(0 -0.000645274 0)
(0 -0.00362301 0)
(0 -0.00521129 0)
(0 -0.00138277 0)
(0 -0.00216332 0)
(0 -0.000257213 0)
(0 -0.00460129 0)
(0 -0.000695105 0)
(0 -0.00375174 0)
(0 -0.000788993 0)
(0 -0.00185815 0)
(0 -0.00152069 0)
(0 -0.000405116 0)
(0 -0.00212242 0)
(0 -0.000984485 0)
(0 -0.000616599 0)
(0 -0.00368286 0)
(0 -0.0038276 0)
(0 -0.00373755 0)
(0 -3.35829e-06 0)
(0 -0.00364441 0)
(0 -0.00045888 0)
(0 -0.00454172 0)
(0 -0.00151518 0)
(0 -0.00258493 0)
(0 -0.000526796 0)
(0 -0.00259819 0)
(0 -0.00233995 0)
(0 -0.00273492 0)
(0 -0.00234964 0)
(0 -0.00140595 0)
(0 -0.000726475 0)
(0 -0.00468225 0)
(0 -0.00548425 0)
(0 -0.00361095 0)
(0 -0.00121136 0)
(0 -0.000645702 0)
(0 -0.00407845 0)
(0 -0.000156665 0)
(0 -0.00482984 0)
(0 -0.00537967 0)
(0 -0.00545939 0)
(0 -0.00180091 0)
(0 -0.00497215 0)
(0 -0.00112017 0)
(0 -0.00239678 0)
(0 -0.00512906 0)
(0 -0.00454421 0)
(0 -0.00417026 0)
(0 -0.00102048 0)
(0 -0.00186667 0)
(0 -0.00479862 0)
(0 -0.00291751 0)
(0 -0.00230854 0)
(0 -0.00148953 0)
(0 -0.00164034 0)
(0 -0.000423145 0)
(0 -0.00515466 0)
(0 -0.00155441 0)
(0 -8.7653e-05 0)
(0 -0.00119482 0)
(0 -0.00255605 0)
(0 -0.00400334 0)
(0 -0.000117912 0)
(0 -0.00143792 0)
(0 -0.0044101 0)
(0 -0.000572498 0)
(0 -0.0047513 0)
(0 -0.00384058 0)
(0 -0.00340352 0)
(0 -0.00338662 0)
(0 -0.00206481 0)
(0 -3.09702e-05 0)
(0 -0.000298651 0)
(0 -0.00321533 0)
(0 -0.00209999 0)
(0 -0.00537929 0)
(0 -0.003888 0)
(0 -0.00469844 0)
(0 -0.00151861 0)
(0 -0.00349975 0)
(0 -0.00311402 0)
(0 -0.00484029 0)
(0 -0.0031699 0)
(0 -0.00395084 0)
(0 -0.000292585 0)
(0 -0.00302815 0)
(0 -0.00496699 0)
(0 -0.00171827 0)
(0 -0.000201791 0)
(0 -0.00341665 0)
(0 -8.25643e-05 0)
(0 -0.000727719 0)
(0 -0.00118403 0)
(0 -0.00486554 0)
(0 -0.00342806 0)
(0 -0.000164841 0)
(0 -0.00325174 0)
(0 -0.00492452 0)
(0 -0.00291466 0)
(0 -0.000439866 0)
(0 -0.00391691 0)
(0 -0.00305523 0)
(0 -0.00280432 0)
(0 -0.00118169 0)
(0 -0.00410868 0)
(0 -7.07404e-05 0)
(0 -0.0043015 0)
(0 -0.00438501 0)
(0 -0.00107712 0)
(0 -0.000822223 0)
(0 -0.000873067 0)
(0 -0.00199436 0)
(0 -0.000449664 0)
(0 -0.000179605 0)
(0 -0.00162425 0)
(0 -0.00559424 0)
(0 -0.00465665 0)
(0 -0.00156679 0)
(0 -0.003411 0)
(0 -0.00324647 0)
(0 -0.00142838 0)
(0 -0.00117912 0)
(0 -0.00230067 0)
(0 -7.4967e-05 0)
(0 -0.00148791 0)
(0 -0.00175316 0)
(0 -0.0041939 0)
(0 -0.00155176 0)
(0 -0.00546093 0)
(0 -0.000925676 0)
(0 -0.00448033 0)
(0 -0.000268856 0)
(0 -0.000134397 0)
(0 -0.00143289 0)
(0 -0.00210285 0)
(0 -0.00383523 0)
(0 -0.000992541 0)
(0 -0.000341835 0)
(0 -0.00459361 0)
(0 -0.0040825 0)
(0 -0.00358082 0)
(0 -0.00160019 0)
(0 -0.0035877 0)
(0 -0.00317311 0)
(0 -0.00302032 0)
(0 -0.00207874 0)
(0 -0.00349677 0)
(0 -0.00303327 0)
(0 -0.00311534 0)
(0 -6.01214e-05 0)
(0 -0.00249497 0)
(0 -0.00106941 0)
(0 -8.73888e-05 0)
(0 -0.00541365 0)
(0 -0.00408092 0)
(0 -0.00505186 0)
(0 -0.0043271 0)
(0 -0.00151737 0)
(0 -0.00218028 0)
(0 -0.00392491 0)
(0 -0.00335794 0)
(0 -0.000927817 0)
(0 -0.00239799 0)
(0 -0.00226902 0)
(0 -5.88452e-05 0)
(0 -0.00106236 0)
(0 -0.000171318 0)
(0 -0.00438359 0)
(0 -8.78258e-05 0)
(0 -0.00560464 0)
(0 -0.00155043 0)
(0 -0.00260605 0)
(0 -0.00538006 0)
(0 -0.003313 0)
(0 -0.00109628 0)
(0 -0.00274477 0)
(0 -8.33795e-05 0)
(0 -0.00286122 0)
(0 -0.00153285 0)
(0 -0.00363448 0)
(0 -0.00442028 0)
(0 -0.00308093 0)
(0 -0.00366902 0)
(0 -0.00332491 0)
(0 -0.00177309 0)
(0 -0.00316927 0)
(0 -0.00114501 0)
(0 -0.00493234 0)
(0 -0.00433918 0)
(0 -0.00271845 0)
(0 -0.000550822 0)
(0 -0.00178272 0)
(0 -0.00211495 0)
(0 -0.000898686 0)
(0 -0.00302062 0)
(0 -0.00373829 0)
(0 -0.00156696 0)
(0 -0.00332732 0)
(0 -0.000638836 0)
(0 -0.001767 0)
(0 -0.00232073 0)
(0 -0.000432049 0)
(0 -0.00169117 0)
(0 -7.33787e-05 0)
(0 -0.000758262 0)
(0 -0.00340202 0)
(0 -0.00194169 0)
(0 -0.000532611 0)
(0 -0.000230293 0)
(0 -0.00215133 0)
(0 -0.00364029 0)
(0 -0.00166702 0)
(0 -3.80642e-05 0)
(0 -0.00235039 0)
(0 -0.00330747 0)
(0 -0.00537525 0)
(0 -0.00291859 0)
(0 -0.00390221 0)
(0 -0.000467407 0)
(0 -0.00555253 0)
(0 -0.000226659 0)
(0 -0.00175945 0)
(0 -0.000827858 0)
(0 -0.00249693 0)
(0 -0.00223504 0)
(0 -0.00121938 0)
(0 -0.00452595 0)
(0 -0.00554251 0)
(0 -0.00192088 0)
(0 -0.0054855 0)
(0 -0.00148824 0)
(0 -9.5522e-05 0)
(0 -0.00106092 0)
(0 -0.00538697 0)
(0 -0.00386285 0)
(0 -0.00169516 0)
(0 -0.00110845 0)
(0 -0.00511912 0)
(0 -0.0028274 0)
(0 -0.00454316 0)
(0 -0.00389872 0)
(0 -0.00497139 0)
(0 -0.00545864 0)
(0 -0.004894 0)
(0 -0.00360579 0)
(0 -0.003312 0)
(0 -0.000983776 0)
(0 -0.00362533 0)
(0 -0.00491614 0)
(0 -0.00212206 0)
(0 -0.00162284 0)
(0 -0.000399484 0)
(0 -0.00498589 0)
(0 -6.66131e-05 0)
(0 -0.00230599 0)
(0 -0.00212877 0)
(0 -0.00392281 0)
(0 -0.00398728 0)
(0 -7.66725e-05 0)
(0 -0.00295009 0)
(0 -0.00202512 0)
(0 -0.00161309 0)
(0 -0.00459661 0)
(0 -0.00236194 0)
(0 -7.16124e-05 0)
(0 -0.00205483 0)
(0 -0.00351236 0)
(0 -0.00407936 0)
(0 -0.00246912 0)
(0 -0.00115415 0)
(0 -0.00222318 0)
(0 -0.00247717 0)
(0 -0.00510668 0)
(0 -0.00462219 0)
(0 -0.0040601 0)
(0 -0.00464177 0)
(0 -0.00209786 0)
(0 -0.00115451 0)
(0 -0.000250954 0)
(0 -0.000913383 0)
(0 -0.00260992 0)
(0 -0.000661769 0)
(0 -0.00406446 0)
(0 -0.000290777 0)
(0 -0.00512185 0)
(0 -0.00383653 0)
(0 -0.00321002 0)
(0 -0.00492807 0)
(0 -0.000326901 0)
(0 -0.000558373 0)
(0 -0.00476357 0)
(0 -0.000385127 0)
(0 -0.000429596 0)
(0 -0.00497806 0)
(0 -0.00112202 0)
(0 -0.00443867 0)
(0 -0.00179598 0)
(0 -0.00350833 0)
(0 -0.00149245 0)
(0 -0.00384584 0)
(0 -0.00405642 0)
(0 -0.0027064 0)
(0 -0.000815364 0)
(0 -0.000777385 0)
(0 -0.00217984 0)
(0 -0.00312417 0)
(0 -0.00114002 0)
(0 -0.00239902 0)
(0 -0.00252314 0)
(0 -7.82801e-05 0)
(0 -0.00284062 0)
(0 -0.000529636 0)
(0 -0.0025498 0)
(0 -0.00143767 0)
(0 -0.0047028 0)
(0 -0.00125618 0)
(0 -0.000537666 0)
(0 -0.00116048 0)
(0 -0.00528963 0)
(0 -0.000277721 0)
(0 -0.000540371 0)
(0 -0.000410204 0)
(0 -0.000100429 0)
(0 -0.00190333 0)
(0 -0.00564588 0)
(0 -0.0053954 0)
(0 -0.00180902 0)
(0 -0.00128705 0)
(0 -0.00523888 0)
(0 -0.0039231 0)
(0 -0.000319259 0)
(0 -0.0012708 0)
(0 -0.0032017 0)
(0 -0.00467475 0)
(0 -0.00130025 0)
(0 -0.000539409 0)
(0 -0.00160442 0)
(0 -0.00209677 0)
(0 -0.00393791 0)
(0 -0.00487885 0)
(0 -0.0038407 0)
(0 -0.00371868 0)
(0 -0.00516117 0)
(0 -0.00470856 0)
(0 -0.00175638 0)
(0 -0.00315902 0)
(0 -0.00120204 0)
(0 -0.00113865 0)
(0 -0.00446882 0)
(0 -0.00104033 0)
(0 -0.00245032 0)
(0 -0.00366147 0)
(0 -0.00482255 0)
(0 -0.00515448 0)
(0 -0.00439851 0)
(0 -0.00132387 0)
(0 -0.00110656 0)
(0 -0.00380911 0)
(0 -0.00451721 0)
(0 -0.00441333 0)
(0 -0.00381039 0)
(0 -0.000160727 0)
(0 -0.00112302 0)
(0 -0.0036187 0)
(0 -0.00224346 0)
(0 -0.000641608 0)
(0 -0.00333947 0)
(0 -0.00276386 0)
(0 -0.00330515 0)
(0 -0.001457 0)
(0 -0.00360009 0)
(0 -0.000396736 0)
(0 -0.00362338 0)
(0 -0.0047659 0)
(0 -0.00258141 0)
(0 -0.000323413 0)
(0 -0.00222633 0)
(0 -0.00475433 0)
(0 -0.00288901 0)
(0 -0.00143859 0)
(0 -0.00129955 0)
(0 -0.00408712 0)
(0 -0.00301905 0)
(0 -0.00437144 0)
(0 -0.00366248 0)
(0 -5.41265e-05 0)
(0 -0.00333067 0)
(0 -0.00345763 0)
(0 -0.00401154 0)
(0 -0.00542686 0)
(0 -0.00224409 0)
(0 -0.00378395 0)
(0 -0.00142895 0)
(0 -0.0015416 0)
(0 -0.00502223 0)
(0 -0.00501262 0)
(0 -0.00223478 0)
(0 -0.00257453 0)
(0 -0.00446394 0)
(0 -0.00527373 0)
(0 -0.0016917 0)
(0 -0.000708827 0)
(0 -0.00148384 0)
(0 -0.00479967 0)
(0 -0.00298788 0)
(0 -0.00274461 0)
(0 -0.00469121 0)
(0 -0.0011094 0)
(0 -0.00162466 0)
(0 -0.00182263 0)
(0 -0.00482026 0)
(0 -0.00198442 0)
(0 -0.00542264 0)
(0 -0.00154955 0)
(0 -0.00301748 0)
(0 -0.00141787 0)
(0 -0.00170207 0)
(0 -0.00309627 0)
(0 -0.00248593 0)
(0 -0.00143914 0)
(0 -7.52585e-05 0)
(0 -0.00278679 0)
(0 -0.00459772 0)
(0 -0.00432053 0)
(0 -0.00384232 0)
(0 -0.00178206 0)
(0 -0.00258401 0)
(0 -0.00148029 0)
(0 -0.00379223 0)
(0 -0.00443582 0)
(0 -0.00134401 0)
(0 -0.00233513 0)
(0 -0.00289993 0)
(0 -0.00358861 0)
(0 -0.0039368 0)
(0 -0.00391313 0)
(0 -0.00480638 0)
(0 -0.000338497 0)
(0 -0.0044059 0)
(0 -0.00357328 0)
(0 -0.00452027 0)
(0 -0.00538605 0)
(0 -0.00368028 0)
(0 -0.00247777 0)
(0 -0.000957458 0)
(0 -0.0015096 0)
(0 -0.0037295 0)
(0 -0.000669976 0)
(0 -0.00221238 0)
(0 -0.00017544 0)
(0 -0.00487816 0)
(0 -0.00349086 0)
(0 -0.00218448 0)
(0 -0.00451842 0)
(0 -0.00170918 0)
(0 -0.00403301 0)
(0 -0.00358881 0)
(0 -0.00158937 0)
(0 -0.00454179 0)
(0 -0.00115112 0)
(0 -0.00123478 0)
(0 -0.00169057 0)
(0 -0.000556527 0)
(0 -0.00297365 0)
(0 -0.00110703 0)
(0 -0.00215134 0)
(0 -0.00269275 0)
(0 -0.00542355 0)
(0 -0.00263469 0)
(0 -0.00252342 0)
(0 -0.000516751 0)
(0 -0.00233884 0)
(0 -0.00398392 0)
(0 -0.00165858 0)
(0 -0.00543163 0)
(0 -0.000774425 0)
(0 -0.000876775 0)
(0 -0.00186019 0)
(0 -0.00108154 0)
(0 -0.00285565 0)
(0 -0.00268539 0)
(0 -0.00539851 0)
(0 -0.00436373 0)
(0 -0.00348068 0)
(0 -0.00562602 0)
(0 -0.00122972 0)
(0 -0.00265086 0)
(0 -0.0033087 0)
(0 -0.00245489 0)
(0 -7.42885e-05 0)
(0 -0.00211544 0)
(0 -0.00039971 0)
(0 -0.00179099 0)
(0 -0.0043831 0)
(0 -0.0035882 0)
(0 -0.0017329 0)
(0 -0.0044953 0)
(0 -0.00285446 0)
(0 -0.000307905 0)
(0 -0.0034769 0)
(0 -0.00167732 0)
(0 -0.00113641 0)
(0 -0.00342648 0)
(0 -0.00423234 0)
(0 -0.00222164 0)
(0 -0.000824038 0)
(0 -0.00347756 0)
(0 -0.000315216 0)
(0 -0.00233509 0)
(0 -0.00537782 0)
(0 -0.00152284 0)
(0 -0.00276545 0)
(0 -8.43752e-05 0)
(0 -0.00279642 0)
(0 -0.0044435 0)
(0 -0.0017794 0)
(0 -0.0051631 0)
(0 -0.000549422 0)
(0 -0.00226133 0)
(0 -0.00193727 0)
(0 -0.00335312 0)
(0 -0.00162923 0)
(0 -0.00271461 0)
(0 -0.0016862 0)
(0 -0.00139388 0)
(0 -0.000139734 0)
(0 -0.000161803 0)
(0 -0.00273264 0)
(0 -0.000734058 0)
(0 -0.00272189 0)
(0 -0.00206666 0)
(0 -0.00224244 0)
(0 -0.000854448 0)
(0 -0.00386871 0)
(0 -0.00326198 0)
(0 -0.00533961 0)
(0 -0.00134734 0)
(0 -0.00504129 0)
(0 -0.000271931 0)
(0 -0.00355443 0)
(0 -0.00452514 0)
(0 -0.00475094 0)
(0 -0.000765558 0)
(0 -0.0054833 0)
(0 -0.0019931 0)
(0 -0.002056 0)
(0 -0.00204537 0)
(0 -0.00337223 0)
(0 -0.0014603 0)
(0 -0.00469958 0)
(0 -0.00446128 0)
(0 -0.00153863 0)
(0 -0.00375823 0)
(0 -0.00463334 0)
(0 -0.00276913 0)
(0 -0.00491283 0)
(0 -0.0010664 0)
(0 -0.00262509 0)
(0 -0.00511894 0)
(0 -0.00100741 0)
(0 -0.00190827 0)
(0 -0.0027113 0)
(0 -0.00269809 0)
(0 -3.68188e-05 0)
(0 -0.00159542 0)
(0 -0.0017452 0)
(0 -0.000831674 0)
(0 -0.00542366 0)
(0 -0.00157756 0)
(0 -0.00279729 0)
(0 -0.00201967 0)
(0 -0.00325319 0)
(0 -0.00167389 0)
(0 -0.0038609 0)
(0 -0.00459344 0)
(0 -0.00253764 0)
(0 -0.00461527 0)
(0 -0.00144282 0)
(0 -0.00273622 0)
(0 -0.00275627 0)
(0 -0.00515789 0)
(0 -0.0026745 0)
(0 -0.00261125 0)
(0 -0.00192679 0)
(0 -0.00291907 0)
(0 -0.00350085 0)
(0 -0.00210543 0)
(0 -0.00475144 0)
(0 -0.00261023 0)
(0 -0.00298705 0)
(0 -0.00398703 0)
(0 -0.0049748 0)
(0 -0.0041672 0)
(0 -0.00479189 0)
(0 -0.000237443 0)
(0 -0.00121346 0)
(0 -0.00487931 0)
(0 -0.00325434 0)
(0 -0.00531614 0)
(0 -0.00184191 0)
(0 -0.00148221 0)
(0 -0.0016224 0)
(0 -0.00210547 0)
(0 -0.0045198 0)
(0 -0.000348275 0)
(0 -0.00155344 0)
(0 -0.00436426 0)
(0 -0.00289112 0)
(0 -0.00286184 0)
(0 -0.000709307 0)
(0 -0.0023036 0)
(0 -0.00030984 0)
(0 -0.00279816 0)
(0 -0.00402062 0)
(0 -0.000691755 0)
(0 -0.0047289 0)
(0 -0.00297061 0)
(0 -0.00158263 0)
(0 -0.00268259 0)
(0 -0.00405696 0)
(0 -0.00474678 0)
(0 -0.000421337 0)
(0 -0.00199129 0)
(0 -0.00131478 0)
(0 -0.00201032 0)
(0 -0.00330816 0)
(0 -0.00112968 0)
(0 -0.00128859 0)
(0 -0.00263626 0)
(0 -0.00335953 0)
(0 -0.00176521 0)
(0 -0.00495857 0)
(0 -0.000224828 0)
(0 -0.00370341 0)
(0 -0.00463097 0)
(0 -0.00440549 0)
(0 -0.000198797 0)
(0 -0.000642543 0)
(0 -0.00473144 0)
(0 -0.00248633 0)
(0 -0.00209344 0)
(0 -0.00187507 0)
(0 -0.00151762 0)
(0 -0.002221 0)
(0 -0.000704903 0)
(0 -0.00500401 0)
(0 -0.000200602 0)
(0 -0.00401561 0)
(0 -0.00176585 0)
(0 -0.00301405 0)
(0 -0.00253769 0)
(0 -0.00292173 0)
(0 -0.00159455 0)
(0 -0.00183335 0)
(0 -0.00186018 0)
(0 -0.00370008 0)
(0 -0.00159396 0)
(0 -0.000168629 0)
(0 -0.000700162 0)
(0 -0.00117847 0)
(0 -0.00157507 0)
(0 -0.00347874 0)
(0 -0.00154363 0)
(0 -0.00245282 0)
(0 -0.00174409 0)
(0 -0.00160769 0)
(0 -0.00171896 0)
(0 -0.000256053 0)
(0 -0.00475174 0)
(0 -0.00108518 0)
(0 -0.00465408 0)
(0 -0.00236836 0)
(0 -0.0014344 0)
(0 -0.00301011 0)
(0 -0.00152683 0)
(0 -0.00189271 0)
(0 -0.00164052 0)
(0 -0.00342636 0)
(0 -0.00350986 0)
(0 -0.00230514 0)
(0 -0.00540464 0)
(0 -0.000974892 0)
(0 -0.00428463 0)
(0 -0.000469901 0)
(0 -0.00338142 0)
(0 -0.00104828 0)
(0 -0.00402267 0)
(0 -0.00237386 0)
(0 -5.10336e-05 0)
(0 -0.00311518 0)
(0 -0.00293532 0)
(0 -0.00255886 0)
(0 -0.00464212 0)
(0 -0.00106759 0)
(0 -0.00199969 0)
(0 -0.00506575 0)
(0 -0.000332231 0)
(0 -0.000649333 0)
(0 -0.00149466 0)
(0 -0.00489974 0)
(0 -0.00397597 0)
(0 -0.00237744 0)
(0 -0.0014734 0)
(0 -0.00325867 0)
(0 -0.00209809 0)
(0 -0.00163843 0)
(0 -0.000618254 0)
(0 -0.00301691 0)
(0 -0.00098413 0)
(0 -0.00456222 0)
(0 -0.00510984 0)
(0 -0.00135536 0)
(0 -0.0015117 0)
(0 -0.0014076 0)
(0 -0.00150187 0)
(0 -0.00207968 0)
(0 -0.00317758 0)
(0 -0.00108344 0)
(0 -0.00123837 0)
(0 -0.00287365 0)
(0 -0.0022041 0)
(0 -0.00145145 0)
(0 -0.00249363 0)
(0 -0.00137347 0)
(0 -0.00136256 0)
(0 -0.00445563 0)
(0 -0.00334732 0)
(0 -0.00443773 0)
(0 -0.00130281 0)
(0 -0.00311911 0)
(0 -0.000814539 0)
(0 -0.0015904 0)
(0 -0.00271974 0)
(0 -0.00232961 0)
(0 -0.00139949 0)
(0 -0.00287357 0)
(0 -0.00477625 0)
(0 -0.0042679 0)
(0 -0.00162791 0)
(0 -0.00385227 0)
(0 -0.000710785 0)
(0 -0.000960339 0)
(0 -0.00186125 0)
(0 -0.00378906 0)
(0 -0.00109644 0)
(0 -0.00323572 0)
(0 -0.0018563 0)
(0 -0.000158873 0)
(0 -0.0024146 0)
(0 -0.00292889 0)
(0 -0.00210927 0)
(0 -0.00511599 0)
(0 -0.00383813 0)
(0 -0.0053941 0)
(0 -0.00100589 0)
(0 -0.000883261 0)
(0 -0.00233033 0)
(0 -0.00144052 0)
(0 -0.00183377 0)
(0 -0.00188647 0)
(0 -0.0021957 0)
(0 -0.000326029 0)
(0 -0.00102942 0)
(0 -0.00228643 0)
(0 -0.00135067 0)
(0 -0.00284312 0)
(0 -0.00259528 0)
(0 -0.00306021 0)
(0 -0.00168421 0)
(0 -0.00339394 0)
(0 -0.00131201 0)
(0 -0.000869753 0)
(0 -0.000164354 0)
(0 -0.00167141 0)
(0 -0.0022057 0)
(0 -0.00138736 0)
(0 -0.00422411 0)
(0 -0.00323457 0)
(0 -0.0016733 0)
(0 -0.00148369 0)
(0 -0.00368402 0)
(0 -0.00011798 0)
(0 -0.00164631 0)
(0 -0.00423642 0)
(0 -0.00244147 0)
(0 -0.00526522 0)
(0 -0.00262753 0)
(0 -0.00118873 0)
(0 -0.000279779 0)
(0 -0.00483719 0)
(0 -0.00466888 0)
(0 -0.00271706 0)
(0 -0.00393021 0)
(0 -0.00416477 0)
(0 -0.00287053 0)
(0 -0.00345565 0)
(0 -0.00218023 0)
(0 -0.00347796 0)
(0 -0.00451639 0)
(0 -0.00209875 0)
(0 -0.00112552 0)
(0 -0.0013384 0)
(0 -0.00136088 0)
(0 -0.0019614 0)
(0 -0.00147757 0)
(0 -0.00297326 0)
(0 -0.00120114 0)
(0 -0.00239447 0)
(0 -0.00290976 0)
(0 -0.00173298 0)
(0 -0.0015 0)
(0 -0.0023767 0)
(0 -0.00148815 0)
(0 -0.00235129 0)
(0 -0.00474628 0)
(0 -0.000774071 0)
(0 -0.00242902 0)
(0 -0.00158293 0)
(0 -0.00199298 0)
(0 -0.00128977 0)
(0 -4.50428e-05 0)
(0 -0.00456659 0)
(0 -0.00116871 0)
(0 -0.000821976 0)
(0 -0.00116145 0)
(0 -0.00109128 0)
(0 -0.00291993 0)
(0 -0.000699375 0)
(0 -0.00340797 0)
(0 -0.00147648 0)
(0 -0.00262827 0)
(0 -0.000418521 0)
(0 -0.00492045 0)
(0 -0.00126451 0)
(0 -0.000997377 0)
(0 -0.00158834 0)
(0 -0.00165439 0)
(0 -0.00126074 0)
(0 -0.00164475 0)
(0 -0.0011091 0)
(0 -0.00161465 0)
(0 -0.00491507 0)
(0 -0.000772844 0)
(0 -0.00312938 0)
(0 -0.000171877 0)
(0 -0.00194444 0)
(0 -0.00433206 0)
(0 -0.00167794 0)
(0 -0.00127881 0)
(0 -0.00241665 0)
(0 -0.00448348 0)
(0 -0.00241726 0)
(0 -0.00100833 0)
(0 -0.00466074 0)
(0 -0.00152955 0)
(0 -0.000202491 0)
(0 -0.00516373 0)
(0 -0.000579102 0)
(0 -0.00249941 0)
(0 -0.000418295 0)
(0 -0.000670837 0)
(0 -0.00151046 0)
(0 -0.00128932 0)
(0 -0.000334484 0)
(0 -0.00181933 0)
(0 -0.00484551 0)
(0 -0.00389424 0)
(0 -0.00198541 0)
(0 -0.001161 0)
(0 -0.00116713 0)
(0 -0.00485061 0)
(0 -0.00101341 0)
(0 -0.00183897 0)
(0 -0.00439315 0)
(0 -0.001689 0)
(0 -0.0016438 0)
(0 -0.00127706 0)
(0 -0.000657428 0)
(0 -0.00442462 0)
(0 -0.00294289 0)
(0 -0.00121277 0)
(0 -0.00505974 0)
(0 -0.00429425 0)
(0 -0.00179119 0)
(0 -0.0048551 0)
(0 -0.00442434 0)
(0 -0.0042752 0)
(0 -8.4789e-05 0)
(0 -5.34196e-05 0)
(0 -0.00230657 0)
(0 -0.0027869 0)
(0 -0.00369857 0)
(0 -0.00201445 0)
(0 -0.00141991 0)
(0 -0.00163185 0)
(0 -0.00174916 0)
(0 -0.0015748 0)
(0 -0.00144666 0)
(0 -0.00458334 0)
(0 -0.00120919 0)
(0 -0.00170487 0)
(0 -0.00465671 0)
(0 -0.00494886 0)
(0 -0.00355808 0)
(0 -0.00434576 0)
(0 -0.00133708 0)
(0 -0.00456952 0)
(0 -0.00290389 0)
(0 -0.00169469 0)
(0 -0.00260067 0)
(0 -0.00178282 0)
(0 -0.00410125 0)
(0 -0.0028848 0)
(0 -0.00189677 0)
(0 -0.000948778 0)
(0 -0.0032998 0)
(0 -0.000346683 0)
(0 -0.00276982 0)
(0 -0.00491327 0)
(0 -0.00120832 0)
(0 -0.00442083 0)
(0 -0.00174582 0)
(0 -7.87756e-05 0)
(0 -0.00152452 0)
(0 -0.0052361 0)
(0 -0.00166015 0)
(0 -0.000681917 0)
(0 -0.00198352 0)
(0 -0.00160499 0)
(0 -0.00359439 0)
(0 -7.35018e-05 0)
(0 -0.0016069 0)
(0 -0.0017793 0)
(0 -0.00331424 0)
(0 -0.00457758 0)
(0 -0.0049671 0)
(0 -8.11208e-05 0)
(0 -0.00221299 0)
(0 -0.000142786 0)
(0 -0.0023332 0)
(0 -0.00193836 0)
(0 -0.00144415 0)
(0 -0.00322467 0)
(0 -5.98347e-05 0)
(0 -0.00235189 0)
(0 -0.00153764 0)
(0 -0.00206989 0)
(0 -0.00169453 0)
(0 -0.0019459 0)
(0 -0.00166555 0)
(0 -0.00408917 0)
(0 -0.00245767 0)
(0 -0.00176119 0)
(0 -0.00172314 0)
(0 -0.00352633 0)
(0 -0.000331792 0)
(0 -0.00200125 0)
(0 -0.00216257 0)
(0 -0.00210027 0)
(0 -0.00291424 0)
(0 -0.00158524 0)
(0 -0.00437313 0)
(0 -0.000932205 0)
(0 -0.00206841 0)
(0 -0.00158346 0)
(0 -0.000124861 0)
(0 -0.00235846 0)
(0 -0.000335615 0)
(0 -0.00174817 0)
(0 -0.00190968 0)
(0 -0.0017786 0)
(0 -0.00142021 0)
(0 -0.00198729 0)
(0 -0.00140355 0)
(0 -0.00367545 0)
(0 -0.0019767 0)
(0 -0.00397199 0)
(0 -0.00351095 0)
(0 -0.00431778 0)
(0 -0.00197425 0)
(0 -0.00209049 0)
(0 -0.00138817 0)
(0 -0.00224589 0)
(0 -0.00193418 0)
(0 -0.000346261 0)
(0 -0.00335665 0)
(0 -0.00162635 0)
(0 -0.00275872 0)
(0 -0.00204011 0)
(0 -0.000415847 0)
(0 -0.00390358 0)
(0 -0.000405621 0)
(0 -0.00180597 0)
(0 -0.00147181 0)
(0 -0.0021188 0)
(0 -0.00144466 0)
(0 -0.00138868 0)
(0 -0.002282 0)
(0 -0.00144335 0)
(0 -0.00205102 0)
(0 -0.00361419 0)
(0 -0.00326482 0)
(0 -0.00220116 0)
(0 -0.00126972 0)
(0 -0.00178467 0)
(0 -0.00016972 0)
(0 -0.00204209 0)
(0 -0.00199094 0)
(0 -0.00444419 0)
(0 -0.00347515 0)
(0 -0.00295905 0)
(0 -0.00066364 0)
(0 -0.00183651 0)
(0 -0.00353176 0)
(0 -7.34604e-05 0)
(0 -0.00122426 0)
(0 -0.00117516 0)
(0 -0.00373771 0)
(0 -0.0015482 0)
(0 -0.00223559 0)
(0 -0.00209964 0)
(0 -0.00150585 0)
(0 -0.00415685 0)