/*--------------------------------*- C++ -*----------------------------------*\
| =========                 |                                                 |
| \\      /  F ield         | OpenFOAM: The Open Source CFD Toolbox           |
|  \\    /   O peration     | Version:  v2012                                 |
|   \\  /    A nd           | Website:  www.openfoam.com                      |
|    \\/     M anipulation  |                                                 |
\*---------------------------------------------------------------------------*/
FoamFile
{
    version     2.0;
    format      ascii;
    class       volScalarField;
    location    "600";
    object      k;
}
// * * * * * * * * * * * * * * * * * * * * * * * * * * * * * * * * * * * * * //

dimensions      [0 2 -2 0 0 0 0];


internalField   nonuniform List<scalar> 
10042
(
0.00416578
0.0126783
0.00130594
0.000141286
0.000140879
0.00972527
0.00296905
0.0107186
0.000134663
0.000170847
0.000474718
0.0141797
0.000162906
0.000139235
0.000144178
0.000139219
0.0123643
0.000595331
0.000149872
0.000154273
0.000162838
0.00309661
0.000141172
0.0097567
0.000140219
0.000156887
0.000166303
0.000133803
0.0113702
0.0126006
0.000152406
0.000166278
0.000134423
0.00013433
0.0104656
0.00812977
0.000148536
0.000135028
0.000146419
0.000139048
0.0115052
0.00013452
0.000252563
0.0184084
0.000140762
0.000140188
0.000132417
0.000144053
0.000191386
0.000400413
0.000267044
0.000140244
0.0117802
0.000149415
0.0165776
0.00194461
0.000161285
0.000239134
0.000144066
0.000130111
0.000190713
0.0106166
0.000234078
0.0128009
0.000209437
0.00014284
0.000153788
0.0116333
0.000132259
0.0105534
0.000297668
0.000146345
0.00013602
0.000143972
0.000142402
0.000286636
0.000186348
0.000132403
0.000186308
0.000149952
0.0186377
0.00994608
0.000164138
0.000139624
0.000159352
0.000237403
0.00015333
0.00100202
0.00013914
0.000181036
0.000155944
0.000144273
0.00023793
0.000928872
0.000196822
0.00014225
0.0296432
0.000153838
0.0104628
0.000143905
0.000155302
0.00020043
0.000144359
0.000162004
0.000151343
0.000143577
0.0239085
0.000141948
0.00391744
0.000143753
0.000143729
0.00312539
0.000191854
0.0128053
0.000192672
0.000132314
0.00017009
0.000151514
0.000237441
0.000132108
0.000130084
0.014087
0.0153471
0.00014082
0.000187369
0.000139474
0.00013963
0.0171148
0.000212035
0.000167354
0.000134915
0.000140969
0.000140527
0.000141451
0.00337256
0.000371068
0.000155479
0.0207915
0.000147256
0.0103924
0.00019856
0.000137268
0.0200778
0.000133816
0.000152429
0.000135035
0.000158169
0.000132132
0.000146179
0.0121597
0.000141437
0.000143377
0.00014803
0.000167209
0.00018086
0.000152676
0.00021336
0.00247255
0.000140624
0.000161494
0.000148147
0.000141878
0.000368379
0.000139284
0.000146262
0.0101446
0.000135933
0.00016325
0.00901684
0.000134065
0.000175651
0.0146265
0.0142665
0.000134193
0.00014936
0.0150312
0.000140549
0.000134959
0.000140667
0.000132255
0.000146969
0.000151363
0.000144004
0.000131875
0.000301056
0.000156074
0.000146388
0.000130577
0.000441964
0.000143358
0.0139808
0.000161238
0.000135002
0.000150925
0.0190448
0.000144264
0.00146518
0.000163856
0.0294792
0.000139736
0.000220862
0.000215558
0.0024507
0.000135951
0.0110543
0.000140166
0.0100122
0.000166707
0.000143587
0.000141652
0.000164816
0.000134951
0.00874752
0.00018222
0.000149199
0.0105953
0.000135671
0.00550452
0.000142784
0.000222894
0.00870935
0.000165144
0.00727557
0.00995138
0.000141249
0.000214951
0.000144962
0.000155069
0.000161679
0.000144485
0.000134963
0.000139881
0.000156179
0.00015667
0.000140503
0.00982904
0.000154273
0.0293986
0.000151514
0.0102109
0.000326265
0.00260321
0.000130003
0.000145028
0.02035
0.000141402
0.00190754
0.000150944
0.000148223
0.000144045
0.000150799
0.000135092
0.00195419
0.014883
0.00014591
0.00015374
0.000146208
0.000146379
0.029313
0.000141126
0.000199019
0.000135355
0.00014015
0.000132547
0.00016409
0.0163376
0.000191272
0.00124083
0.000160031
0.000139931
0.00014307
0.000381663
0.00013843
0.000312043
0.000146047
0.00024111
0.000146788
0.000140494
0.000160938
0.0206738
0.000133822
0.00317765
0.00243725
0.000146496
0.000157556
0.0250669
0.000155167
0.000133299
0.00124771
0.000146868
0.000159824
0.000153797
0.000160137
0.00441482
0.000219021
0.000139068
0.0255577
0.000154963
0.000143142
0.000136241
0.000147743
0.00231789
0.000130606
0.0013607
0.000157055
0.0105504
0.000138957
0.000147774
0.0306831
0.00488773
0.000152816
0.000140948
0.000142207
0.000139057
0.000152904
0.000935026
0.000132559
0.000253295
0.0125326
0.000132189
0.000162673
0.000330212
0.000240152
0.0103968
0.00052049
0.000151656
0.000153523
0.000140457
0.00015442
0.000158477
0.000140113
0.00014284
0.0046052
0.000144031
0.0102386
0.0019542
0.016506
0.0105311
0.000135186
0.00812221
0.000198003
0.000163026
0.000130028
0.000150159
0.000151804
0.000134897
0.000137982
0.000141845
0.00014785
0.0285804
0.00014513
0.000209643
0.00014754
0.000163007
0.0136167
0.000155683
0.000145002
0.000163702
0.0002855
0.000172398
0.000143392
0.000149384
0.000146134
0.0162148
0.00831076
0.000146552
0.000140388
0.000146347
0.000146507
0.0154616
0.000130247
0.000164079
0.000138666
0.000153833
0.000175851
0.000139691
0.000235092
0.00951457
0.0176535
0.00015065
0.000142971
0.00395725
0.000160685
0.000140272
0.000173985
0.000132237
0.000143097
0.000131969
0.000141271
0.000133157
0.000146004
0.00436468
0.000145029
0.000146284
0.00753046
0.01315
0.000141767
0.0113971
0.000149034
0.000166772
0.000140345
0.0170298
0.000145479
0.0147096
0.0300202
0.000165865
0.000193831
0.000173767
0.000267235
0.000145669
0.0105614
0.000154102
0.00224408
0.000144821
0.0138835
0.000147253
0.000154809
0.0159528
0.000132935
0.000146271
0.000141976
0.00890895
0.000134916
0.000131744
0.000199999
0.000153222
0.000159134
0.0100761
0.000141006
0.000163125
0.000152729
0.000132471
0.00015416
0.00815271
0.000169356
0.000145829
0.00263112
0.000237559
0.000163207
0.00279049
0.00013396
0.00015143
0.00015881
0.000356708
0.000390316
0.00121357
0.0138222
0.000341283
0.0119744
0.000131626
0.000242908
0.0290604
0.02856
0.000172408
0.000141168
0.000138147
0.000187054
0.00689486
0.000131935
0.000132697
0.000152994
0.000141532
0.000148986
0.000150252
0.000140921
0.000160349
0.00266002
0.000146584
0.000151189
0.000185748
0.000323406
0.000136571
0.00580709
0.00433479
0.00859894
0.000142387
0.000153039
0.00015878
0.0121867
0.000143058
0.000162346
0.000144728
0.00930871
0.000138656
0.000150881
0.000132664
0.000239904
0.0102321
0.000158269
0.00013903
0.000141213
0.0191057
0.000135284
0.000154602
0.000575989
0.000193011
0.000154042
0.000156142
0.00597246
0.00637581
0.000143336
0.000152031
0.00192939
0.0189998
0.000168103
0.00617233
0.000144566
0.000237764
0.00015674
0.000155111
0.000149538
0.00984414
0.00015206
0.000141049
0.000143995
0.00658255
0.000140902
0.00120246
0.000141538
0.000143263
0.000136572
0.000154425
0.00781838
0.000144307
0.000145711
0.0184748
0.000165502
0.000162267
0.000144212
0.000141586
0.000253806
0.00587687
0.0001431
0.000134435
0.000317339
0.000142378
0.000142557
3.82846e-05
0.000134858
0.0191898
0.000140266
0.000164003
7.33968e-05
0.0194338
0.000140981
0.000153869
0.000143647
0.000135696
0.0174361
0.000129977
0.0208446
0.000168363
0.000134506
0.000152652
0.0148974
0.00379895
0.0001746
0.000143958
0.000134432
0.00013199
0.000143616
0.000210335
0.0001438
0.02
0.000142222
0.000134526
0.000722647
0.000151348
0.000214934
0.000168184
0.000138894
0.000565927
0.0156574
0.000104961
0.01006
0.000143091
0.000154802
0.000136686
0.000134596
0.000141466
0.000140972
0.000143303
0.00014362
0.027528
0.000144477
0.000203664
0.00014026
7.98125e-05
0.000132671
0.000164652
0.00295426
0.000134498
0.000140422
0.000444793
0.000160509
0.000132824
0.0199602
0.000140562
0.00190954
0.000135112
0.000148229
0.000135602
0.000327579
0.000132687
0.000139098
0.000140013
0.0204177
0.000158807
0.000141318
0.000143861
0.00936721
0.000141728
0.000140912
0.000136732
0.000140971
0.000150068
0.000140649
0.000114547
0.000137132
0.0304757
0.0181711
0.0109575
0.000145631
0.000150548
0.000142442
0.00323399
0.000148573
0.0116098
0.0081449
0.0110421
0.00138356
0.00464284
0.000143104
0.000142931
0.0173845
0.00635037
0.000154615
0.000186635
0.000144048
0.0121526
0.00013894
0.000143348
0.000137165
0.000135228
0.000147853
0.0167095
0.00014636
0.000155389
0.00493994
0.000141828
0.00181823
0.000137192
0.000146336
0.000151909
0.000143304
0.0114535
0.000140358
0.000140707
0.000181319
0.000143333
0.000132238
0.000154347
0.000139159
0.000138843
0.000580138
4.85841e-05
0.0183779
0.000143999
0.000139033
0.000139223
0.0133699
0.000146806
0.000142128
0.000137933
0.000137843
0.0104331
3.93558e-05
0.000164825
0.000145483
0.000157733
0.0291161
0.000154549
0.000149053
0.000161511
0.007533
0.0116338
0.0127563
0.00013885
0.00014347
0.000140622
0.0139635
0.000138766
0.000151578
0.000140656
0.000130019
0.000150641
0.000142329
0.000311161
0.00551455
0.000133219
0.000140668
0.000131584
0.000367576
0.000135152
0.0110626
0.000145527
0.000443871
0.000139055
0.000138414
0.000134529
0.000140955
0.000142738
0.000130874
0.000143128
0.000144837
0.000145551
0.000150398
0.00883143
0.000143201
0.0021673
0.00706182
0.000151366
0.00433429
0.000140006
0.000139805
0.000148795
0.000146713
0.010411
0.000140673
0.000145258
0.000137243
0.0207183
0.000138086
0.0143781
0.000165076
0.000139131
0.000210879
0.0135763
0.000137213
0.000136137
0.000186624
0.000164321
0.0213544
0.000148563
0.000182554
0.000154104
0.000143895
0.000143458
0.000142715
0.000154682
0.00014782
0.0106988
0.000369424
0.000130002
0.000143653
0.000147886
0.000164041
0.000164241
0.0111306
0.000144464
0.000143247
0.0084256
0.000139098
0.000185549
0.000156271
0.000158809
0.0126497
0.00021248
0.000139034
0.000142751
0.000159097
0.000139258
0.0128606
0.000144644
0.000158425
0.000151968
0.0192672
0.000142144
0.000153992
0.0001423
0.000145039
0.00016341
0.000133949
0.000158116
0.000139283
0.000144751
0.000138855
0.000142617
0.000147743
0.000169339
0.000149903
0.000143968
0.00220843
0.000134004
0.000139158
0.00014036
0.000131761
0.000169379
0.00016328
0.000147713
0.000470257
0.00510438
0.000142654
0.000230735
0.0178444
0.000137726
0.000139726
0.000131588
0.0112199
0.0074377
0.000150783
0.000139532
0.000170047
0.00365577
0.00265305
0.000143685
0.0136532
0.000311331
0.0105238
0.000199481
0.000131072
0.000145554
0.00340481
0.000233166
0.000144566
0.00492282
0.000191472
0.0124864
0.0114057
0.0001402
0.000179007
0.0207336
0.000253178
0.0188166
0.000154574
0.0175691
0.000147328
0.015914
0.000143242
0.00034985
0.000151292
0.000166056
0.000130695
0.000143509
0.000140581
0.0122509
0.000140128
0.000130073
0.000428844
0.000142979
0.000154441
0.000144384
0.011105
0.000145938
0.000145988
0.000143853
0.000140543
0.000141812
0.000152618
0.000138887
0.00119535
0.000191517
0.000820161
0.000140319
0.0187779
0.000138583
0.000185681
0.000556849
0.000149001
0.000141959
0.000132276
0.000140491
0.000149131
0.00682813
0.000177784
0.00013926
0.0206699
0.000142214
0.000143818
0.00993271
0.00013183
0.000145098
0.0196828
0.000139515
0.0224932
0.000147319
0.000172762
0.000154675
0.000173701
0.000153751
0.000142318
0.0270037
0.027321
0.000140326
0.000156401
0.000290554
0.00172874
0.00385345
0.000165011
0.000136905
0.00014461
0.000143449
0.000180271
0.00129411
0.000150527
0.000131993
0.000161562
0.00729022
0.00700373
0.000132124
0.000131582
0.00015832
0.000144179
0.012994
0.0021358
0.000139875
0.000152181
0.000809855
0.000143022
0.000151893
0.000697412
0.000147749
0.000179805
0.000158631
0.000143383
0.000143968
0.000173312
0.000146318
0.000218508
0.000142081
0.00674462
0.00833727
0.0199727
0.000150116
0.000147288
0.000954196
0.000164375
0.0125663
0.000158719
0.000142851
0.000140287
0.0197432
0.00209183
0.000146356
0.000151636
0.000167304
0.000139591
0.00053781
0.000146575
0.000139474
0.00015944
0.000162671
0.000138957
0.000140585
0.0429635
0.000138205
0.000136765
0.000159255
0.000152896
0.00785476
0.00015104
0.000145232
0.0191899
0.000168556
0.000151847
0.000161246
0.00627123
0.000139936
0.000134834
0.000152848
0.00329603
0.000139029
0.000142138
0.00014015
0.000135939
0.000138769
0.0188716
0.000143177
0.0018814
0.000143248
0.000170744
0.000148358
0.000144627
0.000174503
0.014843
0.000182682
0.000142084
0.000151683
0.000589966
0.000636101
0.000143622
0.000146258
0.00791766
0.000140044
0.000139833
0.000263936
0.000145372
0.00014821
0.000140358
0.000209316
0.0163655
0.00158229
0.000166573
0.000145642
0.000153557
0.000674421
0.000137851
0.000136226
0.000169934
0.000130833
0.000137503
0.0003056
0.000142049
0.0128091
0.000135051
0.000136401
0.000137681
0.000165994
0.000142852
0.000162729
0.00529498
0.000137617
0.000144346
0.0104895
0.000139784
0.000198081
0.000151942
0.0229375
0.00661446
0.000152799
0.00980307
0.000154279
0.000143162
0.000815218
0.00014594
0.000139206
0.000132421
0.000140069
0.00016391
0.0191771
0.000161488
0.00816294
0.0118848
0.000949011
0.000199703
0.00595726
0.000149827
0.000447735
0.0001341
0.000155488
0.000143873
0.000144352
0.000145099
0.0153586
0.00767532
0.000142023
0.00466183
0.000136536
0.00215229
0.000142676
0.000148955
0.000143299
0.000475552
0.00685114
0.000141446
0.000133156
0.00107654
0.000202373
0.000167672
0.000162041
0.00121095
0.000142686
0.00413971
0.00813675
0.000138787
0.000137295
0.000139205
0.000150865
0.000145286
0.000145862
0.000148186
0.000182374
0.000142817
0.000144809
0.000173327
0.000393682
0.0090103
0.000132859
0.00030338
0.000148157
0.000167825
0.000162826
0.00193498
0.000138633
0.000170226
0.00016349
0.000135259
0.000172113
0.00115398
0.000144426
0.000137402
0.00016284
0.00860479
0.0135874
0.000138642
0.00361099
0.000143408
0.000143803
0.00295825
0.000138402
0.000162679
0.000136637
0.000169954
0.000173359
0.000376275
0.000163696
0.000139958
0.00014289
0.000141953
0.000140903
0.00820304
0.000133085
0.000164764
0.00948289
0.000468662
0.000137339
0.0164764
0.000137756
0.000292252
0.000147245
0.000323118
0.000133713
0.00865642
0.0125873
0.0131818
0.000143073
0.000241407
0.000959855
0.0149211
0.000142973
0.000567441
0.000139364
0.0123471
0.00820148
0.000149543
0.000248306
0.00737853
0.00163459
0.00904927
0.000283143
0.00786139
0.000137155
0.000163635
0.000707329
0.000204747
0.000142777
0.0108942
0.000146091
0.000138676
0.000147697
0.00023242
0.000204143
0.000169822
0.0169907
0.000155633
0.011341
0.000146931
0.000140292
0.000144051
0.00248705
0.0107617
0.000155264
0.00827978
0.000144607
0.000146435
0.000159691
0.00194809
0.000166404
0.000138524
0.00135856
0.0170485
0.000148375
0.000269514
0.000135509
0.000161684
0.000174454
0.00013808
0.000785035
0.0017433
0.000142339
0.000146558
0.000139767
0.0121628
0.000150958
0.000297241
6.2891e-05
0.000139846
0.000139639
0.000133454
0.000160905
0.000137767
0.000187256
0.00014435
0.000145455
0.000185517
0.000145444
0.000155153
0.0075135
0.000148721
0.000188205
0.000148008
0.000143163
0.000675079
0.00811407
0.000145352
0.000250232
0.000169911
0.0106263
0.000138331
0.000165994
0.000150582
0.000153045
0.000167074
9.40191e-05
0.000143459
0.000158126
0.00138966
0.000183024
0.000148878
0.00779733
0.000300113
0.00105301
0.000139824
0.000132564
0.00043979
0.000139349
0.0215261
0.00126398
0.00017905
0.00731388
0.00014492
0.000171083
0.000344561
0.0022124
0.000139178
0.000352625
0.000164473
0.000141059
0.000191242
0.00014667
0.000143873
0.000171433
0.000149437
0.000161966
0.00014897
0.000140312
0.00015213
0.0134958
0.000158708
0.010509
0.000142471
0.000154541
0.00013929
0.000142411
0.00756413
0.000143711
0.00485837
0.00135202
0.000145627
0.0101177
0.000160746
0.000221984
0.000131721
0.00332472
0.000202641
8.0867e-05
0.000148417
0.0001592
0.000137959
0.00129079
0.000148766
0.000257165
0.000162475
0.000135318
0.000758692
0.00013138
0.0306609
0.000140287
0.017051
0.00014012
0.00013689
0.000134876
0.00494253
0.000138981
0.000142026
0.000133832
0.000139122
0.000143117
0.000388928
0.001102
0.000147997
0.000152808
0.000144435
0.000140173
0.000138313
0.00277266
0.00958701
0.000152179
0.000142558
0.000138364
0.000137138
0.000150122
0.000151633
0.000134636
0.0139598
0.0179704
0.000393691
0.00014469
0.00013905
0.000142887
0.000148539
0.000137252
0.000145366
0.000142923
0.000138438
0.000162245
0.000149232
0.0003371
0.0186747
0.02913
0.000144048
0.000140104
0.000139525
0.00171752
0.000140982
0.000155923
0.000163381
0.000136155
0.00014224
0.000140672
0.014306
0.000142532
0.0101918
0.00616441
0.000172925
0.000142375
0.000152205
0.00705192
0.00014947
0.000163165
0.000152209
0.000163626
0.000135809
0.000152811
0.000787409
0.00724445
0.000137495
0.000143641
0.0120985
0.000151072
0.000170296
0.000164068
0.000713575
0.000142239
0.000152246
0.000213521
0.00854191
0.000188783
0.000152207
0.000139276
0.000138182
0.000144051
0.00112227
0.00756989
0.000903423
0.000137195
0.00045724
0.000152757
0.0165643
0.0114709
0.000140422
0.0171248
0.0023065
0.000137889
0.000164484
0.000159436
0.000144274
0.0135827
0.000139078
0.00753548
0.000175676
0.00155131
0.00163671
0.00017168
0.0001424
0.000152639
0.00014528
0.000139195
0.000134915
0.0001401
0.00591797
0.000145673
0.000162896
0.0150401
0.0300032
0.000162391
0.000268462
0.00014247
0.00168141
0.000131879
0.0122335
0.000271258
0.0290047
0.000248554
0.00903831
0.000647129
0.000133781
0.000143811
0.000134731
0.00020847
0.000148074
0.0180909
0.000151077
0.00373313
0.000153731
0.000145679
0.000142895
0.000143801
0.000134022
0.000545127
0.0124681
0.0296586
0.000137764
0.000163955
0.00014939
0.000150549
0.000225818
0.000143519
0.00765314
0.0133987
0.000145035
0.000145629
0.0129966
0.00015373
0.000187562
0.00390925
0.000144887
0.00755835
0.00014972
0.0371056
0.000140047
0.000192246
0.000143266
0.00158322
0.00016845
0.016402
0.00885429
0.00106669
0.00021483
0.000294164
0.000143905
0.000186383
0.0138759
0.00122445
0.000234215
0.000154245
0.04315
2.15385e-05
0.00991945
0.000166422
0.0175792
0.000158213
0.00016142
0.00706294
0.000143631
0.000156795
0.000164771
0.000132359
0.000136225
0.000139754
0.000141954
0.0111688
0.000146026
0.000979413
0.000228552
0.000261002
0.00251472
0.0122158
0.00014072
0.00014493
0.0142969
0.000252325
0.000155484
0.0155331
0.00118899
0.0113168
0.00013868
0.00015988
0.000149387
0.000218688
3.18498e-05
0.00932688
0.0077523
0.00017621
0.0001435
0.00014922
0.00381186
0.000235909
0.000174891
0.00921445
0.000140062
0.00016377
0.000148243
0.00817127
0.00014888
0.000135643
0.000139625
0.000147913
0.00640918
0.00552462
0.000144653
0.000198516
0.00452039
0.000147487
0.000364957
0.000163988
0.000158015
0.000162621
0.000159265
0.000276037
0.000140976
0.000138035
0.000158707
0.000380927
0.000216244
0.000161148
0.000146151
0.000147652
0.00014441
0.0205399
0.000160591
0.000148743
0.000144203
0.00023596
0.000152137
0.00797453
0.000146844
0.000156694
0.000140194
0.000291849
0.000147546
0.000172976
0.010448
0.000159576
0.000160882
0.00790636
0.000152437
0.00633486
0.000190384
0.000143994
0.000147994
0.00746088
0.000142766
0.00452233
0.00014396
0.0166269
0.00413333
5.35165e-05
0.000148006
0.000140161
0.000141428
0.000142325
0.000150346
0.000132006
0.00014421
0.000140062
0.000137791
0.000148773
0.000148283
0.000141938
0.000147941
0.000166152
0.000143852
0.0122706
0.000145781
0.000143891
0.00703524
0.000140893
0.0265133
0.00783015
0.000143207
0.000145469
0.000166368
0.00127386
0.000164306
0.0108376
0.000155959
0.000144362
0.0135704
0.00013731
0.0471052
0.000143804
0.000236788
0.000133033
0.00797886
0.00318047
0.00797744
0.000144949
0.000148532
0.000138738
0.000148907
0.00348357
0.000138797
0.00014284
0.000170547
0.000162398
0.0182794
0.00027488
0.000145846
0.000164191
0.000143583
0.000154328
0.000146784
0.000142963
0.000145764
0.00917427
0.00283507
0.000172881
0.000148157
0.000145554
0.000147512
0.00021682
0.0161697
0.000182576
0.0309522
0.0022549
0.000147941
0.000149283
0.000202923
0.000138592
0.000148889
0.000150529
0.000147541
0.00218922
0.00014798
0.0133445
0.000137764
0.000145127
0.000201461
0.000148264
0.000149552
0.0001509
0.000152389
0.0094766
0.000144598
0.000143977
0.000143876
0.0300954
0.000356722
0.000149849
0.000144617
0.000138169
0.000160055
0.000141739
0.000203318
0.000139673
0.000138699
0.000143819
0.000145512
0.000157563
0.000143834
0.0113451
0.000145557
0.000145574
0.00101601
0.000148289
0.000149756
0.000247595
0.000144811
0.0103345
0.000138595
0.000138207
0.000145867
0.000148749
0.000136121
0.00384214
0.00014566
0.000140317
0.0358865
0.00770562
0.00579785
0.00169296
0.0064479
0.000151594
0.000136993
0.000147689
0.00680472
0.000155005
0.0182798
0.000146019
0.000159982
0.00016095
0.000220029
0.000138045
0.00214765
0.000287666
0.000140006
0.000151392
0.000144519
0.000146712
0.00058233
0.000179111
0.000143704
0.000138356
0.000133845
0.00327726
0.0001445
0.000432121
0.000163426
0.000144282
0.000139936
0.000140341
0.00978404
0.000205346
0.000139492
0.00115325
0.00473973
0.000145216
0.00699189
0.000144076
0.000137046
0.000138037
0.000143518
0.000139492
0.000142309
0.000144256
0.000146687
0.000143857
0.000193053
0.000147542
0.00199155
0.000158286
0.00014215
0.0014096
0.000133524
0.000138708
0.000180379
0.000139859
0.00785801
0.000140647
0.000218658
0.0405974
0.000137666
0.00470145
0.00669397
0.000143268
0.000146595
0.000141855
0.00215512
0.000143887
0.0134202
0.0146482
0.000157612
0.000154248
0.000167119
0.00015934
0.000142657
0.000184614
0.000144327
0.000182275
0.00513413
8.53355e-05
0.00516096
0.000144765
0.000230527
0.000554492
0.000261522
0.000143631
0.000176257
0.00014725
0.000174079
0.000136035
0.000152677
0.0168026
0.000153571
0.000215539
0.000172752
0.000163826
0.00147996
0.00013705
0.00016358
0.000143874
0.00015285
0.000233571
0.00272727
0.00444396
0.000163155
0.000152173
0.0206576
0.000163896
0.000140173
0.000137782
0.000144965
0.000149457
0.000151653
0.000140657
0.0158484
0.00015336
0.000139571
0.000138001
0.000142761
0.000142402
0.003413
0.000137804
0.000250493
0.000149831
0.0116654
0.000141759
0.000143476
0.000130809
0.000192999
0.000141216
0.00027571
0.0221085
0.00257356
0.000150705
0.000145987
0.000143442
0.000139825
0.00013853
0.0130484
0.000145079
0.000144892
0.0387017
0.000143037
0.000146146
0.000320422
0.000648518
0.0192446
0.000141632
0.0201976
0.0402666
0.000140421
0.000137595
0.000167868
0.00424599
0.00029476
0.0152371
0.000279922
0.00014212
0.000138184
0.000200557
0.000153082
0.000144588
0.000154751
0.000144296
0.0001486
0.0090749
0.0359362
0.000156601
0.000153598
0.000156749
0.000176389
0.0229624
0.000143707
0.000139721
0.000143384
0.000190007
0.000139491
0.000151058
0.0238195
0.000320279
0.000136251
0.000138648
0.000130908
0.000143604
0.000142845
0.000160035
0.000199862
0.000146438
0.000117806
0.00707765
0.00455918
0.000162934
0.000145576
0.000143191
0.000141724
0.000138274
0.000136086
0.000143517
0.0274646
0.0241648
0.000159275
0.000137106
0.000144721
0.000144167
0.00995668
0.00016014
0.0219225
0.0126526
0.000154304
0.000198566
0.000142626
0.000140876
0.000142035
0.000143965
0.0165368
0.000141972
0.000150541
0.00296671
0.0165146
0.0077741
0.00359829
0.0027009
0.0152115
0.000142969
0.000159337
0.0159935
0.046082
0.000142995
0.000141655
0.000137698
0.000143073
0.000143288
0.00876573
0.000140464
0.000140012
0.014507
0.00015011
0.0209073
0.000142249
0.000137674
0.000159496
0.00209138
0.000170837
0.0120166
0.000150728
0.0113883
0.000164866
0.000140103
0.0120482
0.000140847
0.000149657
0.000143755
0.000136995
0.0507188
0.0055206
0.000413311
0.000287261
0.0113257
0.000613486
0.016386
0.000138609
0.000144399
0.000705329
0.000142858
0.000144138
0.000148324
0.000142759
0.00870566
0.000143851
0.0165935
0.0065111
0.000133949
0.011387
0.000142063
0.000141394
0.000160186
0.000159588
0.000161265
0.000163156
0.000163619
0.00235346
0.000144054
0.000142346
0.000135717
0.000165811
0.0128323
0.000139703
0.000145461
0.000156356
0.0074421
0.000140517
0.000164211
0.000164424
0.000146952
0.000142478
0.000140076
0.00351165
0.0082845
0.000164319
0.000147098
0.000143304
0.000158182
0.0113166
0.000143682
0.0144054
0.0188591
0.000143796
0.000158627
0.0168882
0.019229
0.000162034
0.000134496
0.000137947
0.0114726
2.8043e-05
0.0204337
0.00015221
0.0268191
0.000180562
0.0233988
0.000590181
0.000585394
0.0126544
0.0219955
0.00828625
0.0399491
0.000146839
0.00828767
0.000141071
0.0219644
0.000147756
0.000145731
0.000164151
0.00268456
0.00625601
0.000148342
0.000143308
0.00914201
0.00184568
0.0366521
0.000138586
0.000139186
0.000142251
0.000150554
0.000141938
0.000164569
0.0235158
0.00867384
0.000150013
0.000141911
0.000238234
0.000144197
0.000142856
0.0011676
0.000142313
0.000149261
0.000137136
0.00893894
0.000187861
0.00806742
0.00014175
0.00919538
0.0414524
0.000160028
5.05644e-05
0.000626322
0.0379993
0.0219289
0.00014046
0.000143363
0.000209849
0.000143125
0.00014426
0.000140635
0.000144758
0.000157731
0.000153439
0.00014031
0.000366896
0.000152355
0.00208205
0.000145911
0.0233036
0.00182063
0.000156703
0.0102643
0.0177275
0.000165012
0.0293402
0.000719286
0.000144729
0.000143916
0.000160873
0.000157382
0.00488648
0.000140205
0.000144515
0.00624549
0.000143018
0.000138264
0.000145019
0.00013322
0.00838867
0.000143672
0.000159784
0.000144038
0.015407
0.00014219
0.00436008
0.00776057
0.0030466
0.0188276
0.000133962
0.000164369
0.000144458
0.000142123
0.034364
0.00477304
0.000429732
0.00765732
0.000134747
0.000146793
0.000149265
0.00014313
0.00729635
0.000139742
0.000156936
0.0183302
0.00918038
0.000242131
0.00014218
0.00014464
0.0177736
0.000153779
0.000145484
0.000654921
0.034266
0.0202128
0.000160174
0.00013894
0.000139661
0.000144556
0.000214895
0.000149021
0.0127367
0.000143449
0.00014414
0.00189386
0.000133641
0.000642804
0.000161906
0.00014378
0.000164456
0.000703212
0.000138303
0.000143771
0.0182521
0.000143125
0.00014336
0.000168477
0.010294
0.000150297
0.000160882
0.000136184
0.00169452
0.0113357
0.000186121
0.000142929
0.000138294
0.000171309
0.000143404
0.000550167
0.0188714
0.0147318
0.00787862
0.000142091
0.000156614
0.000140091
0.000304351
0.00014304
0.00882088
0.0082615
0.000142829
0.04389
0.000142762
0.00653603
0.000164878
0.000136028
0.000170774
0.000138439
0.000139765
0.000137141
0.000132605
0.000173142
0.0184444
0.00014314
0.000137444
0.000204439
0.000134296
0.000145041
0.000146333
0.000141568
0.000142926
0.0129
0.0001776
0.000134339
0.000147694
0.000146644
0.000142572
0.0101748
0.0231359
0.000142816
0.000139792
0.000144055
0.00571505
0.00014371
0.000145297
0.000146336
0.000196637
0.000134748
0.00014657
0.00697027
0.000143454
0.0089194
0.000142287
0.000143294
0.000140461
0.000141412
0.000137548
0.000142339
0.0176499
0.00519197
0.000137565
0.000142594
0.000149138
0.00122916
0.000168265
0.000174909
0.000141898
0.00014544
0.000158548
0.000147733
0.00945603
0.000187942
0.000140761
0.000141936
0.0241467
0.000145722
0.0181935
0.00199496
0.00014071
0.0159982
0.0189327
0.00711344
0.00204925
0.000551589
0.000168263
0.000140259
0.000603602
0.000143032
0.000154725
0.000174629
0.000137879
0.00014292
0.00143745
0.000138562
0.000267098
0.0286828
0.000145503
0.000142811
0.010253
0.000142296
0.000528293
0.000135921
0.00646028
0.000243473
0.0056526
0.000142452
0.000139188
0.000145922
0.0126368
0.0228197
0.00733736
0.0184753
0.000155544
0.000142353
0.00122817
0.00790715
0.000143444
0.000133607
0.000164687
0.00014056
0.000662648
0.000811138
0.0001359
0.00661819
0.000139109
0.000138344
0.00013585
0.000141863
0.00014302
0.000561714
0.000141302
0.00792209
0.000138299
0.000145308
0.000144693
0.000144651
0.000141515
0.000142131
0.000160393
0.000137509
0.00458618
0.00883752
0.000256677
0.000163167
0.000369131
0.000177323
0.000141258
0.000134186
0.000142498
0.000134453
0.00744722
0.000985241
0.00014896
0.000147097
0.0288531
0.000145974
0.00789357
0.000141894
0.000140557
0.00014348
0.000230924
0.000930206
0.0110328
0.00478265
0.0001641
0.000240155
0.000238513
0.000142182
0.000140851
0.000138472
0.000156386
0.000157611
0.00896424
0.0119607
0.000158801
0.000139723
0.000177091
0.000141662
0.000229222
0.000139872
0.0132335
0.000146261
0.000685186
0.000160722
0.000145574
0.000164334
0.000183528
0.000162856
0.022216
0.000140656
0.000138104
0.000142708
0.000141974
0.00865478
0.00013688
0.000144342
0.000157089
0.000134332
0.00777616
0.0352729
0.00022415
0.000142806
0.00014358
0.00150869
0.000191842
0.000140705
0.000142621
0.00629196
0.000142768
0.000142462
0.00100558
0.000163112
0.000425008
0.00788059
0.00751077
0.000160048
0.000139928
0.000143004
0.000155505
0.000140661
0.000139742
0.022227
0.00876972
0.000140498
0.000140508
0.000139824
0.000146302
0.0267375
0.000140454
0.000146627
0.000143012
0.000135933
0.000140238
0.000147843
0.000144777
0.000139602
0.000133243
0.000145447
0.000138302
0.000171655
0.00787011
0.00016563
0.000138089
0.000140996
0.000142667
0.000140176
0.0111641
0.000143395
0.00682515
0.000361651
0.000140756
0.000137659
0.01284
0.000138164
0.000138446
0.000139913
0.00022753
0.000164824
0.000186667
0.000139907
0.000133855
0.000142772
0.00865804
0.000140549
0.000144175
0.000164752
0.00842825
0.000176317
0.000133653
0.00211312
0.000130074
0.000405989
0.000139958
0.000139367
0.000137752
0.000144216
0.000141585
0.0355674
0.000211725
0.00743224
0.000180222
0.000168095
0.0105467
0.000142656
0.0172996
0.000265425
0.000143438
0.0104197
0.000301428
0.00284511
0.000141972
0.0179746
0.000144865
0.000137861
0.000137947
0.000252508
0.0119587
0.000151591
0.0111717
0.0275548
0.000140557
0.000142946
0.000149018
0.000169534
0.000230862
0.000980374
0.00015357
0.000143728
0.000164421
0.00634798
0.000139109
0.0172269
0.000146129
0.00622456
0.000137407
0.000136282
0.000154283
0.000153386
0.0116345
0.014814
0.000363372
0.00013986
0.000140268
0.000548144
0.00934542
0.00866933
0.000139153
0.000148017
0.000138317
0.000140292
0.000140529
0.00704724
4.50876e-05
0.000696872
0.000413109
0.0016529
0.0028654
0.000139502
0.00014375
0.000169606
0.000137193
0.000163424
0.000140822
0.000142857
0.000142156
0.00013971
0.000151629
0.00395245
0.000167239
0.000138554
0.000140201
0.0343985
0.000170374
0.000149199
0.000166773
0.00464484
0.000454446
0.000139846
0.000153282
0.000323284
0.000138937
0.00521434
0.000139788
0.000139373
0.000138717
0.0201595
0.000139817
0.000138439
0.000142614
0.000144263
0.00013904