/*--------------------------------*- C++ -*----------------------------------*\
| =========                 |                                                 |
| \\      /  F ield         | OpenFOAM: The Open Source CFD Toolbox           |
|  \\    /   O peration     | Version:  v2012                                 |
|   \\  /    A nd           | Website:  www.openfoam.com                      |
|    \\/     M anipulation  |                                                 |
\*---------------------------------------------------------------------------*/
FoamFile
{
    version     2.0;
    format      ascii;
    class       volScalarField;
    location    "600";
    object      omega_0;
}
// * * * * * * * * * * * * * * * * * * * * * * * * * * * * * * * * * * * * * //

dimensions      [0 0 -1 0 0 0 0];


internalField   nonuniform List<scalar> 
10042
(
0.279883
0.941239
0.257682
0.0210915
0.0209166
0.625194
0.908376
0.384311
0.0201033
0.0348257
0.1313
1.02297
0.0295943
0.020613
0.021417
0.0206084
0.672982
0.141117
0.022248
0.0232868
0.0294535
0.225752
0.0210765
0.484382
0.0209137
0.0218093
0.0323684
0.0200196
0.652181
0.550257
0.021814
0.034543
0.0200793
0.0200735
0.382315
0.362057
0.0217799
0.0202155
0.0213117
0.0201272
0.526896
0.0200929
0.139297
1.01546
0.0210082
0.0209037
0.0198367
0.0214049
0.049414
0.237334
0.147757
0.0209424
0.655871
0.0221296
1.33246
1.00486
0.0281871
0.0309393
0.0213588
0.0195278
0.048483
1.17968
0.116555
0.416014
0.0358035
0.0210712
0.0230305
0.397024
0.019812
0.400465
0.180006
0.0215998
0.0203179
0.0213545
0.0210388
0.170242
0.0259579
0.0198332
0.0258757
0.0222965
1.03612
0.495296
0.0229617
0.0208454
0.0265138
0.159469
0.0228393
0.200732
0.0207279
0.0253044
0.024752
0.0214276
0.116995
0.371756
0.0343845
0.0211468
2.41332
0.0230972
0.536376
0.0213557
0.0244241
0.0587935
0.0213395
0.0301678
0.0226876
0.0212836
2.38505
0.0210126
1.08009
0.021297
0.0213288
0.922462
0.0518278
0.415042
0.0306234
0.0198071
0.0258879
0.0217798
0.0313742
0.0197775
0.0195275
1.03789
1.04203
0.0210137
0.0266946
0.0207528
0.0207658
1.34915
0.112272
0.0252465
0.020181
0.0209268
0.0208175
0.0209938
0.971577
0.204558
0.0232919
2.04815
0.0216842
0.540144
0.0710976
0.0203293
2.17507
0.0200237
0.0230026
0.0202161
0.0258927
0.0197954
0.0215321
0.691469
0.0209704
0.0208228
0.0218026
0.0336299
0.0294463
0.0230993
0.110566
1.13285
0.0208326
0.0223257
0.0215742
0.0202614
0.203268
0.0207424
0.0215713
0.65553
0.0203076
0.0313646
0.367109
0.0200449
0.029418
0.587569
1.06
0.0200561
0.0220994
1.03739
0.0209588
0.0202027
0.0209034
0.0198119
0.0216513
0.0226542
0.0213611
0.0197609
0.0798701
0.0250178
0.0216139
0.0195655
0.280435
0.0210089
0.980708
0.0280561
0.0201922
0.0225359
1.39803
0.0214298
0.726059
0.0290588
2.60224
0.0208568
0.133305
0.0923827
0.521707
0.0201543
0.541049
0.0207919
0.473052
0.0330053
0.0213155
0.0210123
0.0329851
0.0200753
0.68511
0.130009
0.0218369
0.404018
0.0201122
0.542042
0.021207
0.133663
1.93305
0.0267214
1.80653
0.405253
0.0210855
0.093995
0.0213653
0.0230784
0.0282885
0.0213548
0.0202027
0.0207823
0.0250736
0.0222292
0.0209508
0.374691
0.0227332
2.44318
0.0226961
0.489371
0.114578
0.475728
0.0195171
0.0204235
1.46648
0.0209655
0.40487
0.0225295
0.0218391
0.021175
0.0225006
0.0201956
0.260181
1.33851
0.0214839
0.0225599
0.0212607
0.0215149
2.3664
0.0210466
0.0313901
0.0202626
0.0209298
0.0198521
0.030731
1.393
0.0288782
0.196383
0.0226086
0.0207836
0.0213124
0.231337
0.0205877
0.202998
0.0214618
0.0211226
0.0216313
0.0209657
0.0226927
1.43152
0.0200193
0.423543
0.904596
0.0216031
0.0227041
2.86385
0.0238066
0.0199119
0.114905
0.0211005
0.0269316
0.0225622
0.0230244
0.504445
0.0402665
0.0205859
1.33226
0.023005
0.0213214
0.0201606
0.0217596
0.361058
0.019565
0.157388
0.0241655
1.16438
0.0206209
0.0205428
1.41033
0.492963
0.0222148
0.0209512
0.0211478
0.020587
0.0223917
0.0884343
0.0198554
0.0705123
0.530724
0.019792
0.0224504
0.217014
0.0235714
0.384637
0.102124
0.0220864
0.0219737
0.0208838
0.0227997
0.026087
0.0207794
0.0212407
0.296733
0.0209574
0.480678
0.163002
2.17678
0.382853
0.0202052
0.615629
0.0703779
0.029246
0.0195205
0.0224659
0.0219108
0.0201895
0.0205621
0.021034
0.0215279
2.47369
0.0214858
0.0384524
0.0214946
0.0215086
1.27141
0.0223175
0.021382
0.0229212
0.20165
0.0234871
0.0212722
0.0218716
0.0215564
0.606413
0.61978
0.0216018
0.0209224
0.0213412
0.021364
1.3206
0.0195407
0.0230811
0.020605
0.0215781
0.0907312
0.0206858
0.0305913
0.696939
1.45413
0.0662129
0.0212395
0.530398
0.0279158
0.0208699
0.0420659
0.0197933
0.0211271
0.0197673
0.0209069
0.0199091
0.0214562
1.54545
0.0214731
0.0199544
0.60408
1.30043
0.0211497
0.3938
0.021818
0.0349741
0.0209535
2.8142
0.0206117
1.30223
2.38753
0.0215904
0.0636549
0.0251346
0.070644
0.0214061
0.597084
0.023681
0.445366
0.0214573
0.438608
0.0213935
0.023933
1.33514
0.0199024
0.0213083
0.0207362
0.625469
0.0201897
0.0197438
0.0753343
0.022093
0.0275709
0.582838
0.0210341
0.0294833
0.0220291
0.0198376
0.0236797
0.361349
0.021927
0.0215253
0.944155
0.029486
0.0224358
1.12314
0.0200429
0.0221282
0.0297975
0.243544
0.2227
0.228874
0.439761
0.183134
0.403103
0.0197268
0.0115459
1.35895
1.35085
0.0401245
0.0210758
0.0205774
0.0292247
2.04815
0.0197653
0.0196972
0.0219091
0.0211178
0.021165
0.0212773
0.0208797
0.0230477
0.208262
0.0216162
0.0220869
0.0299808
0.168324
0.020181
1.74498
1.26938
0.508804
0.0208313
0.0236408
0.0220435
1.27751
0.0213026
0.0269386
0.0214466
0.528824
0.0204367
0.0225518
0.0196951
0.0157945
0.563152
0.0220016
0.020721
0.0209791
1.04683
0.0202508
0.0243629
0.105236
0.0629948
0.0212141
0.0252531
0.563593
1.4563
0.0212956
0.0219074
0.393785
1.04414
0.0324039
0.558642
0.0211304
0.0380399
0.0250207
0.0240491
0.0221509
0.468073
0.0211552
0.02106
0.0213236
0.557445
0.0210279
0.20562
0.0211199
0.021301
0.0202011
0.023749
0.634567
0.0213409
0.0215106
0.796005
0.0311095
0.026916
0.0213329
0.0209731
0.0405023
1.35908
0.0212519
0.020009
0.0607431
0.0211563
0.021211
0.296538
0.0201795
1.43648
0.0209181
0.0296834
0.0397285
2.807
0.021039
0.0239572
0.0212841
0.0202903
0.79662
0.0195132
0.910085
0.0326952
0.0201045
0.0216599
2.10042
0.463038
0.0273558
0.0209271
0.0200052
0.0197795
0.0205191
0.0104502
0.0213083
1.08231
0.0211584
0.0198609
0.303782
0.0226684
0.00532686
0.0229871
0.02074
0.30841
0.592067
0.0458933
0.468934
0.0213184
0.0243674
0.020168
0.0201101
0.0209889
0.0209505
0.021274
0.0210128
2.89951
0.0214223
0.0529054
0.0209392
0.0361259
0.0198687
0.0278058
0.318418
0.0201116
0.0209587
0.0866914
0.026954
0.0198893
1.50228
0.0209276
0.16235
0.020229
0.0216874
0.0202804
0.230693
0.0198725
0.0206862
0.0207121
1.48892
0.0220716
0.0209743
0.0210033
0.942977
0.0211432
0.0210085
0.0202833
0.0210167
0.0222713
0.0209685
0.0305704
0.0202105
2.3807
1.02035
0.556031
0.0214007
0.0225656
0.0211736
0.767098
0.0218003
0.518479
0.650825
0.549835
0.124092
0.460234
0.0213227
0.0212439
0.656341
0.720113
0.0218467
0.0647064
0.0213801
0.535024
0.0207382
0.0212898
0.0202105
0.0202453
0.0215636
0.653158
0.0215856
0.021724
1.64749
0.0211211
0.497632
0.02
0.0215931
0.0227359
0.0210212
0.506566
0.0208498
0.0209329
0.0427657
0.0213028
0.0196876
0.0220522
0.0207559
0.0207399
0.240354
0.415659
1.02227
0.0214043
0.0207235
0.0207684
0.560414
0.0216728
0.021014
0.0202864
0.0205647
0.54615
0.208702
0.0220714
0.0214204
0.0227386
2.37933
0.0243064
0.0217033
0.0274438
0.280933
1.22387
0.570185
0.0207246
0.020945
0.0208712
0.432759
0.0207174
0.022938
0.0208489
0.0195188
0.0226086
0.0209622
0.228634
1.37464
0.0198951
0.020995
0.0197253
0.179989
0.0202331
0.623125
0.0212484
0.285009
0.0207329
0.0205163
0.0201156
0.021047
0.0212308
0.0195739
0.0213125
0.0214472
0.0199669
0.0223861
0.544905
0.0213414
0.402042
0.262056
0.0220624
1.27737
0.0209043
0.0207081
0.0208221
0.0211424
0.470696
0.0208535
0.0213524
0.0202377
1.42457
0.0204896
0.438706
0.0302272
0.0207352
0.0711601
0.425696
0.0199805
0.0203302
0.0639336
0.0231115
0.903183
0.020657
0.0253085
0.0228166
0.0213934
0.0213079
0.0210705
0.0239116
0.0207643
0.381144
0.246375
0.0195151
0.0205092
0.0217237
0.0292078
0.0231377
0.627082
0.021439
0.0212606
0.65993
0.0207438
0.0609184
0.0245176
0.0228416
0.42909
0.025769
0.0206968
0.0209809
0.0268364
0.0206474
1.26697
0.0214316
0.0264149
0.0231304
1.09527
0.0209338
0.0235853
0.0203609
0.021462
0.029058
0.0200401
0.0256132
0.0206889
0.0214592
0.0205599
0.0211722
0.0217483
0.0330441
0.0216115
0.0213878
0.254233
0.020045
0.020745
0.0209551
0.0197444
0.0225925
0.0395728
0.021675
0.0497397
0.282244
0.0212204
0.0298455
0.843907
0.0205532
0.0207436
0.0197238
0.708267
0.280978
0.0224947
0.0207607
0.033759
1.04108
1.07324
0.0210715
0.768129
0.154127
0.558477
0.0246382
0.0195932
0.0206259
0.440068
0.0235709
0.0214326
1.63498
0.0266134
0.426312
0.483146
0.0207388
0.0249281
0.899139
0.0499053
1.45728
0.0238535
2.73403
0.021608
0.608083
0.021292
0.0382059
0.0217725
0.0244858
0.0195846
0.0213049
0.0209803
1.21931
0.0208059
0.0195231
0.334916
0.021271
0.0239597
0.021131
0.385419
0.0208316
0.0215424
0.0212214
0.0208081
0.0211227
0.023393
0.0207448
0.555149
0.0264086
0.144938
0.0208201
1.04908
0.0207049
0.06092
0.142603
0.0208871
0.0211328
0.0198064
0.0207967
0.0218301
0.667537
0.0316868
0.0207688
1.1622
0.0206837
0.0212691
0.477565
0.0197573
0.021447
1.16118
0.0208335
1.27739
0.0216931
0.0340636
0.0241116
0.0304075
0.0217111
0.0211606
2.4293
2.40924
0.0209457
0.0248119
0.212336
0.681129
1.05631
0.0225257
0.0204016
0.0206345
0.0212826
0.0230799
0.299043
0.0225257
0.0197778
0.0292176
0.498031
0.262913
0.0197965
0.0197252
0.0219596
0.0213872
0.698172
0.388728
0.0204217
0.0231053
0.272952
0.0210972
0.0220513
0.454677
0.0218308
0.0111639
0.0215136
0.0209982
0.0213946
0.0320423
0.0831617
0.0419454
0.0210245
0.417958
0.785255
1.07525
0.0222928
0.0217503
0.576577
0.0317684
0.511357
0.0271623
0.0212337
0.0208613
1.05842
0.257727
0.0213225
0.0228856
0.0348625
0.0207089
0.110736
0.0213494
0.0207263
0.0221346
0.0303554
0.0206853
0.0209783
3.14994
0.0205738
0.0203884
0.0274392
0.0233229
0.424519
0.0217091
0.0213467
1.04105
0.0326904
0.0220323
0.027458
0.439671
0.0208739
0.0201044
0.0233763
0.525715
0.0207458
0.0209385
0.0208481
0.0198976
0.0205565
1.37827
0.0210999
0.269662
0.0212851
0.0295259
0.0208739
0.0214537
0.0258233
0.594977
0.276176
0.0211467
0.0219011
0.211391
0.0633419
0.0205584
0.0215806
0.470077
0.0208811
0.0208481
0.0504074
0.0206298
0.0218417
0.0209576
0.0387265
2.08358
0.235268
0.0221525
0.0214995
0.0236034
0.0674077
0.0205565
0.02035
0.0364596
0.0195977
0.0205295
0.200276
0.0209187
1.29447
0.0201712
0.0203649
0.0202456
0.0278126
0.0209965
0.0217972
1.40051
0.0205408
0.0212604
1.11984
0.0207562
0.0351593
0.0219851
1.27874
0.395464
0.0220475
0.517075
0.023351
0.0212618
0.435974
0.021554
0.0207107
0.0198319
0.0209105
0.0231005
1.06299
0.0269881
0.316409
0.494754
0.101447
0.135684
0.394549
0.0222272
0.133171
0.020036
0.0247475
0.0213778
0.0211756
0.0214244
2.48436
0.313328
0.0211332
0.47743
0.0203651
0.671996
0.0209165
0.0220143
0.0210201
0.0492843
0.511665
0.0210682
0.0199197
0.521593
0.0899815
0.00639345
0.0221434
0.313463
0.020967
0.335774
0.603015
0.0207291
0.0205071
0.0207565
0.022496
0.0207892
0.0215265
0.0216975
0.0249022
0.0209845
0.0213042
0.0233313
0.208515
0.380293
0.0198497
0.112722
0.0218197
0.0354753
0.0289061
0.554758
0.0207102
0.040602
0.0300928
0.0200646
0.0347294
0.346132
0.0214392
0.0205179
0.0223436
0.368001
0.526819
0.0203223
0.463886
0.021086
0.0213313
0.888679
0.0205496
0.0220015
0.0203739
0.0227645
0.0225554
0.12885
0.0232889
0.0205364
0.0213022
0.0205916
0.0210256
0.317023
0.0198932
0.0270378
1.18751
0.169356
0.020538
0.625629
0.0202609
0.101064
0.0213839
0.0612856
0.0200101
0.544546
1.98341
1.86645
0.0212805
0.0307772
0.147858
0.569412
0.0210113
0.0933371
0.020702
0.5129
0.35977
0.0217656
0.167933
0.337509
0.383005
2.18931
0.126886
0.348588
0.0204843
0.0225363
0.0957616
0.0726246
0.0212866
0.535921
0.0215622
0.0207043
0.0211166
0.0313478
0.0730568
0.0287418
1.15399
0.0242613
0.514523
0.0216537
0.020926
0.0207078
0.441581
0.398239
0.0240692
0.311158
0.0213646
0.02153
0.0266038
0.342299
0.0308818
0.020678
0.676941
1.18973
0.0215699
0.0509863
0.0200552
0.0291787
0.0246946
0.0205254
0.287191
0.152505
0.0212195
0.021602
0.0208706
0.499992
0.0217559
0.176506
0.043985
0.0208608
0.0205292
0.0199753
0.0271189
0.02028
0.0111328
0.0210915
0.0207199
0.00827585
0.0214674
0.0242916
0.342969
0.0216457
0.0319657
0.0216232
0.021291
0.46507
0.314467
0.0214221
0.166703
0.022247
0.391087
0.0205873
0.0220323
0.021936
0.0222185
0.0289446
0.0138396
0.0210349
0.0221793
0.170784
0.0300466
0.0220123
0.314673
0.145022
0.14329
0.0208762
0.0198505
0.122082
0.0203594
1.2946
0.123926
0.0413429
0.33683
0.0213974
0.0225642
0.194546
0.178972
0.0206981
0.21211
0.0230079
0.0208856
0.0692849
0.0216173
0.0212297
0.0378215
0.0221235
0.0213971
0.0220067
0.0209525
0.0221333
0.551345
0.0271284
0.479296
0.0212006
0.0241047
0.0207815
0.0212261
0.306274
0.021366
0.348744
0.195319
0.0215004
0.528571
0.0289972
0.119785
0.0197424
0.291614
0.0937771
0.156538
0.0219146
0.0221
0.0205687
0.512394
0.0219902
0.101505
0.0302074
0.0202113
0.240589
0.0196996
2.71494
0.0209519
1.08982
0.0207697
0.0204629
0.0201164
0.344553
0.0207595
0.02061
0.0200121
0.0207598
0.0213281
0.0798391
0.321644
0.0208474
0.0232381
0.0214516
0.0209365
0.0206695
0.301726
2.31666
0.0231435
0.0211746
0.0206745
0.0202048
0.0223036
0.0228464
0.0200889
0.52977
1.38857
0.148043
0.0206282
0.0207459
0.0213001
0.0219045
0.0204957
0.0214712
0.0212918
0.0206695
0.0232174
0.0216463
0.0374222
1.41218
2.34186
0.0205175
0.0209223
0.020696
0.843115
0.0206619
0.024568
0.0232884
0.0203477
0.0211381
0.020993
1.03355
0.0210686
0.522339
0.287195
0.0439619
0.0211914
0.0230311
0.299426
0.0221232
0.0286857
0.0220492
0.0315867
0.0202946
0.0233187
0.555081
0.337235
0.0204815
0.021357
1.29321
0.0226744
0.0405067
0.0232595
0.0819193
0.0211823
0.0230882
0.0806066
1.17647
0.0567657
0.0211185
0.0206553
0.0201911
0.0213979
0.327313
0.350393
0.27623
0.0204953
0.342747
0.0221814
1.08934
0.500465
0.0209428
1.3731
0.49071
0.0205857
0.0316673
0.0263201
0.0212675
0.53825
0.0207727
2.23317
0.0226737
0.780256
0.595427
0.0384792
0.0211526
0.0233768
0.0214584
0.0207732
0.0201637
0.020415
1.4305
0.0215331
0.0284241
0.574224
2.38831
0.0279709
0.0306969
0.0206667
0.784288
0.0196642
0.524606
0.19063
2.35309
0.157878
0.314381
0.212339
0.0200141
0.0212337
0.0201154
0.0581865
0.0214702
1.1985
0.0227149
1.27203
0.023634
0.0207944
0.020508
0.0213754
0.0200396
0.0671133
1.0507
2.57244
0.0204929
0.0231786
0.0220972
0.0217986
0.0946051
0.0213692
0.348551
0.517384
0.021433
0.0206275
0.538302
0.0236728
0.0246456
0.473105
0.0211939
0.350651
0.0216564
2.93853
0.0209181
0.0238608
0.0207755
0.139584
0.0240358
1.40091
0.320684
0.615624
0.106787
0.0576113
0.0205113
0.02618
0.538854
0.136127
0.106257
0.0240463
3.32566
0.0511326
0.397528
0.0334293
1.05217
0.0233914
0.0280772
0.725496
0.0210536
0.0229998
0.0230481
0.0197056
0.0203696
0.0208537
0.0210332
1.86589
0.0215656
0.138156
0.0944969
0.132992
0.231241
0.508156
0.0203649
0.0214596
0.556644
0.0564558
0.0239571
0.558301
0.639901
0.49149
0.0207027
0.0270767
0.0221354
0.0837891
0.126017
0.387488
0.304196
0.0482338
0.0212207
0.0218366
1.11915
0.0491904
0.0439586
0.482992
0.0209179
0.0233221
0.0218513
0.724599
0.021973
0.0202382
0.0208526
0.0217792
0.975344
0.287095
0.0214484
0.0646847
0.326805
0.0214052
0.100534
0.0233152
0.0255572
0.0232735
0.0261737
0.18081
0.0210484
0.0205143
0.0220043
0.294435
0.0931912
0.0275021
0.0215608
0.0217468
0.0214245
1.2483
0.0268927
0.0219469
0.0214043
0.0470903
0.022023
0.322269
0.0216521
0.0249065
0.0209037
0.16212
0.0187815
0.0438531
1.74612
0.0216889
0.023101
0.351752
0.0219211
0.288838
0.168139
0.0213829
0.0218262
1.45453
0.021273
0.749072
0.0213646
1.35002
0.343173
0.0392872
0.0218101
0.0209258
0.0211082
0.0211911
0.0223616
0.0197706
0.021284
0.0209198
0.0205755
0.0219585
0.0216655
0.0208651
0.0216842
0.178506
0.0213932
1.75785
0.0215464
0.0214029
1.55103
0.0210375
2.28047
0.425238
0.0211985
0.0214832
0.0331617
0.121268
0.023039
1.88349
0.024569
0.0211136
1.3571
0.0204653
3.2853
0.021362
0.0326357
0.0197608
2.10291
1.1982
0.441136
0.0214743
0.0219209
0.0207258
0.0220004
0.732854
0.020672
0.0212799
0.0379809
0.02326
1.01307
0.123416
0.0215416
0.0290004
0.0213749
0.0240236
0.0216251
0.0213038
0.0215225
1.65409
1.04134
0.0245601
0.0218439
0.0214969
0.0217133
0.10749
2.0938
0.0427776
1.41919
0.181304
0.0217969
0.0220775
0.0864211
0.020697
0.021988
0.0217487
0.021726
0.218056
0.02181
0.521787
0.0200969
0.0214443
0.0852407
0.0218687
0.0221842
0.0219704
0.0229718
0.495746
0.0211376
0.0205019
0.0212563
2.64282
0.134114
0.0222251
0.021331
0.0206511
0.0221439
0.0209754
0.0246774
0.0208575
0.0201613
0.021384
0.0214008
0.0264076
0.0212445
1.86543
0.0215304
0.0214971
0.603963
0.0218692
0.022196
0.0320583
0.0214093
0.847832
0.0206904
0.0206548
0.0215355
0.0217695
0.0203593
0.253664
0.0215105
0.0209172
1.4863
0.305666
1.81325
0.150884
0.45766
0.0227259
0.0204728
0.0217734
0.293177
0.0241425
0.873331
0.0215473
0.0278917
0.0214969
0.039373
0.020635
0.889608
0.0524722
0.0209066
0.0226545
0.0213771
0.0216301
0.174232
0.0254049
0.0213583
0.0206581
0.0200207
0.292293
0.0214348
0.157579
0.0305259
0.021414
0.0209027
0.0209147
1.41638
0.0346096
0.0208348
0.577536
0.531716
0.0214578
0.301903
0.0213929
0.0204732
0.0206332
0.0212967
0.0202825
0.0210187
0.0213501
0.0216354
0.02132
0.0732617
0.0217526
0.40211
0.0258367
0.0211705
0.712667
0.0199705
0.0201639
0.0412509
0.0208879
0.579642
0.0209938
0.0832427
3.36453
0.0205821
1.32692
0.297986
0.0212788
0.0215873
0.0210161
0.710839
0.0213725
0.539619
0.539024
0.0219372
0.0238199
0.0311386
0.0100393
0.0208325
0.0741362
0.0214105
0.0364903
1.31908
0.0490543
0.419885
0.0208311
0.106063
0.0995715
0.132017
0.0213489
0.0480483
0.0217048
0.0429442
0.0203359
0.0221663
1.38852
0.0235415
0.0364401
0.0345691
0.0231293
0.180484
0.0204976
0.0245289
0.0213846
0.0232595
0.131127
0.300831
1.36965
0.030511
0.0229982
1.43408
0.0232763
0.0209347
0.0201425
0.0214207
0.0216929
0.0228284
0.0209754
1.42569
0.0236507
0.0206589
0.0201854
0.0212824
0.0212365
0.979874
0.0205124
0.158811
0.021777
1.3372
0.0208438
0.0212504
0.0196051
0.0701355
0.0207964
0.192408
1.39901
0.233772
0.0224694
0.0215491
0.0213745
0.0208843
0.020652
0.54984
0.0214135
0.0214226
1.52219
0.0212626
0.0215628
0.240653
0.495026
1.37512
0.0203558
1.47736
1.54234
0.0209611
0.0204951
0.0279018
0.759641
0.163791
0.560347
0.143497
0.0211255
0.0206436
0.0259997
0.0232567
0.02139
0.0223417
0.0213592
0.0219306
0.379636
1.4791
0.0224701
0.0236744
0.0229411
0.0270289
1.18488
0.0213518
0.0208698
0.0213458
0.024542
0.0208364
0.0226445
1.21656
0.242004
0.0203594
0.0206639
0.019608
0.0213089
0.0208362
0.0258302
0.0298615
0.0215908
0.17728
0.461886
0.868636
0.0232894
0.0214836
0.0212509
0.0211473
0.02065
0.020054
0.0212728
1.31274
1.22737
0.0216211
0.0205026
0.0213641
0.0212706
1.24007
0.0261677
1.15141
0.524565
0.0211617
0.0639524
0.0212672
0.0209334
0.0211849
0.0212717
1.28708
0.0211129
0.022502
1.01043
1.17514
0.318432
1.04904
0.948774
0.548071
0.021308
0.0251587
1.44951
1.56217
0.0212279
0.0207967
0.0200947
0.0212263
0.0212506
1.23562
0.0209131
0.02082
0.806064
0.022393
1.42349
0.0212071
0.0205829
0.0253746
0.898469
0.0242292
0.524427
0.0217802
1.34512
0.031127
0.0209199
1.06989
0.0210227
0.0222828
0.0213207
0.0204437
3.41535
0.916251
0.308675
0.123658
0.509621
0.16362
0.849666
0.0206896
0.0213247
0.455789
0.0212894
0.0213478
0.0218981
0.021203
1.13065
0.0213586
1.17927
0.338064
0.0200296
0.958375
0.0209161
0.0211031
0.0229957
0.0229653
0.0231417
0.0233422
0.0233349
0.258833
0.0212862
0.0212219
0.0199636
0.0336316
0.409243
0.0208676
0.0214094
0.0238295
1.01302
0.020974
0.0233068
0.0232633
0.0207916
0.0211834
0.0208086
0.743653
1.5862
0.023182
0.021664
0.0213566
0.0248081
1.01228
0.021249
1.14666
1.23172
0.0213679
0.0249682
1.35686
1.38882
0.027724
0.0201208
0.0205771
1.03524
0.0671211
1.45144
0.0229348
1.36542
0.0283216
1.24784
0.146758
0.375709
0.407519
1.14967
0.314036
1.53924
0.0216344
0.317681
0.0207911
1.27492
0.0217576
0.0215141
0.0230559
0.550313
0.290178
0.0216843
0.0212147
0.900923
0.695449
1.49489
0.0207065
0.0206644
0.0211694
0.0224266
0.0209001
0.0323671
1.22334
0.316635
0.0222768
0.0204839
0.117514
0.0213582
0.0212501
0.131292
0.0210608
0.0220777
0.0201251
0.59146
0.0560571
0.318524
0.0208617
0.968859
1.55513
0.0280263
0.152734
0.430214
1.50457
1.16011
0.020974
0.021284
0.0819063
0.0212732
0.0212599
0.0209107
0.0213763
0.0246
0.0221277
0.0209546
0.127062
0.0210955
0.170297
0.0214782
1.20806
0.364356
0.0225305
1.82977
1.02362
0.0237571
1.34564
0.658312
0.0213983
0.0213679
0.0231153
0.0244668
0.514425
0.020936
0.02116
0.589865
0.0213201
0.0206508
0.0213484
0.0197853
0.462991
0.021306
0.0267133
0.0213324
2.03505
0.0212033
1.22546
0.353649
0.324305
1.10279
0.0200051
0.0230191
0.0213384
0.0211339
1.49728
0.670549
0.0669437
0.353379
0.0199593
0.0216553
0.0221135
0.0212662
0.340051
0.020855
0.0250495
1.44086
0.353743
0.0519601
0.0212001
0.0213423
1.05069
0.0221612
0.0194932
0.111223
1.47044
1.42027
0.0221406
0.0206468
0.020847
0.0213148
0.0336007
0.0218099
0.409837
0.0213581
0.0213016
0.189918
0.0198179
0.0825257
0.0232075
0.0212644
0.0230933
0.161429
0.0206699
0.0210545
1.01181
0.0212334
0.0212609
0.0355108
2.25724
0.0223471
0.0230465
0.0203585
0.419546
0.535605
0.0627503
0.02118
0.0206684
0.0272385
0.0212292
0.209709
1.19894
0.551148
0.740022
0.0211586
0.0240808
0.0209031
0.113824
0.021236
0.557907
0.323382
0.0212034
1.52601
0.0212738
1.3989
0.0318097
0.020347
0.0259731
0.020657
0.0208726
0.0204576
0.0198567
0.0224519
1.10392
0.0211862
0.0205522
0.0909397
0.020088
0.0213597
0.0215779
0.0211286
0.0212514
1.06378
0.0318411
0.0199459
0.0217611
0.0216209
0.0211866
0.874305
1.2399
0.0212108
0.0208489
0.0211209
0.333073
0.0212484
0.0214447
0.0215899
0.0493888
0.0199684
0.0216371
0.303347
0.0211997
0.859273
0.0212157
0.021311
0.0209713
0.0211087
0.0205414
0.0211707
1.35493
0.282197
0.0205671
0.0209434
0.0216015
0.234615
0.0261018
0.0371287
0.0211203
0.0214853
0.0231673
0.0216902
0.313927
0.0234748
0.0210108
0.0206099
2.45124
0.0215265
1.00892
0.641225
0.0210086
1.17187
1.15054
0.303008
0.281015
0.207282
0.0259637
0.0209416
0.368746
0.0211937
0.0225926
0.029159
0.0201848
0.0212926
0.481572
0.0207037
0.14697
1.41779
0.0214997
0.0212
1.72603
0.0212213
0.0946257
0.0203374
0.695528
0.083284
0.313783
0.0212385
0.0207735
0.021535
1.00215
0.928037
0.347273
1.11924
0.0223866
0.0211807
0.185404
1.60526
0.0213785
0.0198149
0.0230606
0.0209871
0.429841
0.299607
0.0202839
0.503288
0.0207662
0.020647
0.0203306
0.0211094
0.0213202
0.348809
0.0210482
0.751004
0.0205737
0.0214752
0.0213564
0.0213087
0.0211219
0.0211587
0.0240656
0.0205414
0.707477
0.478658
0.0514875
0.0233301
0.0702386
0.0282547
0.0209675
0.0200708
0.0212502
0.0201158
1.42567
0.141871
0.021627
0.0216926
1.38904
0.0215404
0.324924
0.0208954
0.0209894
0.0212093
0.0468623
0.250042
1.3361
1.55345
0.0232273
0.0461871
0.051349
0.0210426
0.021026
0.0206903
0.024711
0.0252241
1.48098
2.52269
0.0258267
0.0208683
0.0307633
0.0211405
0.0449272
0.0207211
0.412796
0.0215744
0.165548
0.0287755
0.0215194
0.0232873
0.0365822
0.0263049
1.17423
0.0210048
0.0206312
0.021207
0.0211213
0.52837
0.0204311
0.021313
0.0241974
0.019937
0.719412
1.47811
0.0433128
0.0211089
0.0212335
0.243771
0.0252445
0.0210049
0.021266
1.17632
0.0212855
0.0211912
0.12268
0.0232866
0.0669568
0.318465
0.331525
0.0264853
0.0208524
0.0211256
0.0243047
0.0210033
0.0208377
0.920306
1.28492
0.020278
0.0208987
0.0208859
0.0215762
2.37079
0.0209029
0.0216104
0.0211094
0.0203376
0.0208922
0.0270715
0.0211604
0.0208277
0.0197891
0.021515
0.0206696
0.0283167
0.322774
0.0236331
0.0205561
0.0209439
0.0211054
0.0208783
0.544966
0.0213686
0.340936
0.0653039
0.0210193
0.0205664
0.527567
0.0206511
0.0206412
0.0208914
0.0386537
0.0230397
0.0233307
0.0208743
0.019911
0.0212165
0.352014
0.0209287
0.0213227
0.0295596
0.498181
0.0258015
0.0199625
0.218277
0.0195205
0.0704053
0.0209017
0.0202819
0.0205753
0.0214315
0.0210157
1.47859
0.0983134
0.29272
0.0536391
0.0248676
1.45783
0.0211661
0.780906
0.0491204
0.0210309
0.499614
0.14444
0.378683
0.0211778
0.863289
0.0214229
0.020575
0.0201198
0.120017
0.525838
0.0229042
0.672982
2.36597
0.0639628
0.0213061
0.022031
0.035498
0.0303353
0.201738
0.0221966
0.0213467
0.0317069
0.523993
0.0207598
1.03481
0.0215673
0.634022
0.0205316
0.02037
0.0236857
0.0233543
1.81196
1.07048
0.109759
0.0208859
0.0208321
0.115471
0.486215
0.982323
0.0207878
0.021458
0.020671
0.0209537
0.0209871
0.471132
0.0510943
0.232996
0.128461
0.192371
0.344841
0.0208208
0.0213418
0.0224706
0.0204519
0.0266143
0.0209896
0.0210954
0.0210476
0.0208698
0.0228238
0.410368
0.024335
0.0206778
0.0208924
1.46408
0.0254134
0.0220549
0.0244908
0.339336
0.109588
0.0208214
0.0232907
0.0609817
0.0207395
0.539921
0.0207676
0.0207401
0.0206607
0.814021
0.0208849
0.0206878
0.0208352
0.0212976
0.0207159
0.0206482
1.13632
0.658004
0.709919
0.0213887
0.0206921
0.546766
0.0211546
0.0204367
0.0207416
0.0377126
0.0213043
1.40911
0.0200778
0.0206369
0.0327782
0.0414919
0.020667
0.0411854
1.29822
0.601466
0.0207873
0.0197119
0.0207732
0.500495
0.0208625
0.0233319
1.5684
0.0208813
0.0203644
0.0214356
0.0205955
0.435831
0.0208282
0.0212301
0.0208932
0.0251508
0.205525
0.0211454
0.0206272
0.0214042
0.0274901
0.0794749
0.280898
0.0219424
0.0442489
0.0204103
0.020839
0.812046
0.553064
0.0212508
0.0208059
0.055843
0.0278452
0.0208527
0.0206698
0.0207232
0.0208124
0.0208616
0.47368
0.0209489
0.0230727
0.351534
0.511245
0.0209516
0.0228278
0.0228697
0.0885127
0.0229076
0.0250095
0.0212549
0.868922
0.0211663
0.0238715
0.317878
0.0298661
0.0954572
0.323967
0.0207991
0.0213579
0.0460346
0.412617
0.0215822
0.0206705
0.020441
0.923738
0.0208202
0.0207056
0.022104
0.0222762
0.0209203
0.334418
0.477437
0.0205637
0.0218282
0.0212967
0.0206474
0.0203513
0.0208879
0.0203202
1.39926
0.0215244
0.0215094
0.0206887
0.0201269
0.0206469
0.020782
0.0527973
0.0259345
0.022349
0.0583569
0.0207992
0.0208349
0.0229783
0.0207217
0.019983
0.0215735
0.406044
0.0207539
0.0485764
0.0219766
0.0382043
0.0201021
0.126175
0.315048
0.403541
0.0200136
0.0208639
0.0344918
0.0208265
0.330634
0.0210203
0.0220307
0.0212297
0.0208903
0.28915
0.0519633
0.308554
0.289993
0.0216248
0.0206862
0.0207877
1.30634
0.0253647
0.0208387
0.0213923
0.0199501
0.0213849
0.0203932
0.495003
0.0206189
0.0202057
0.0213372
0.0209676
0.0306728
0.0239732
0.0217716
0.0206862
0.0204789
1.01677
0.0216394
0.0196296
1.59725
0.0230496
0.0219174
0.0218654
0.0249167
0.0202985
0.0209107
0.264632
0.059642
0.0683639
0.0208878
0.0205293
0.516762
0.185412
0.021719
0.0206107
0.0217589
0.0205443
0.0215142
0.0267235
0.0215085
0.0198962
0.0205775
0.0203715
0.0206336
0.0205423
0.0211988
0.0205872
0.0738523
0.620901
0.020566
0.0206752
0.0200173
0.0208135
0.0213401
0.0207506
0.481033
0.601235
0.0207239
0.021481
0.429395
0.0211011
0.193859
0.341442
0.353878
0.0205172
0.0548094
0.0228675
0.0839218
0.0228542
0.0206274
0.495066
0.546873
0.193684
0.021492
0.0203165
0.273853
0.486513
0.0205537
0.020654
0.0206377
0.0215384
0.0225524
0.0213751
0.020674
0.020507
0.558498
0.138834
0.0256112
0.0201671
2.42181
0.0521448
0.0204401
0.366248
0.0209693
0.0206344
0.0207035
0.0771425
0.0207522
0.0407906
0.0206364
0.0206189
0.0206328
0.0204271
0.0209705
0.0237181
0.0200098
0.0205537
0.0264731
0.0204908
0.0212974
0.0205148
0.0201859
1.07944
0.029111
0.0206873
0.0329394
0.0208511
0.0205647
0.0290519
0.0213571
0.442045
0.0199087
0.020498
0.0213566
0.0205203
0.119719
0.0204504
0.0206805
0.0230346
0.0195996
0.0209897
0.0209009
0.0205826
0.0311926
0.021003
0.121018
0.30489
0.0720756
1.14969
0.0197528
0.0204651
0.0249814
0.0206587
0.194012
0.0200611
0.285345
0.291832
0.0200732
0.0204794
0.0210964
0.437513
0.0207118
0.0208334
0.0503095
0.0955153
0.507747
0.0811397
0.0530921
0.0196146
0.407252
0.643875
0.369722
0.388811
0.0661379
0.222829
0.0204855
0.0206452
0.0230718
0.25539
0.0211572
0.0206383
0.0206089
0.0383984
0.0204981
0.020088
0.0351089
0.0204514
0.0328853
0.020645
0.621558
0.259595
0.0230939
0.0211966
0.0207556
0.0207225
0.0245267
0.959105
0.0214601
0.0248156
0.601373
0.368077
0.0210258
0.022625
0.649061
0.0213955
0.0205191
0.58015
0.0186757
0.544307
0.560877
0.546168
0.0269185
0.0207394
0.0209357
0.0167902
0.241342
0.538325
0.653252
0.019644
0.0211753
0.0210746
0.0172611
0.622111
0.0205851
0.0224528
0.546976
0.0211397
0.0213285
1.01211
0.197903
0.0240248
0.0216589
0.0207386
0.0291614
0.0209987
0.0196201
0.601216
0.021288
0.0201752
0.53413
0.0201303
0.0204959
0.578996
1.10567
0.0354445
0.0201987
0.557747
0.0204157
0.472107
0.496094
0.0187047
0.0209026
0.543632
0.0218033
0.149344
0.0201634
0.0203051
0.0225135
0.83828
0.423111
0.0205576
0.0205897
0.0203128
0.0205265
0.0361238
0.0206501
0.020328
0.0217573
0.535862
0.0202759
0.449968
0.0210368
0.0203242
0.0205576
0.373985
0.318013
0.0195989
0.0197304
0.0203384
0.0200306
0.390663
0.0204979
0.0191212
0.0228975
0.0319476
0.511878
0.518933
0.486492
0.534039
0.0252949
0.0247165
2.969
0.735891
0.502328
0.0193686
0.423558
0.0204705
0.0240479
0.552593
0.0204205
0.166203
0.342858
0.807208
0.340986
0.0204278
0.562664
0.33234
0.620362
0.0212029
0.0205298
1.23
0.0620278
0.530298
0.0207214
0.377814
0.0210421
0.538515
0.0938565
0.485226
0.0207047
0.0216033
0.538956
0.38852
0.0203508
0.763739
0.135696
0.563247
0.0209169
0.651551
0.0204159
0.73184
0.353785
0.538295
0.448446
0.530318
0.0217063
0.0437605
0.0221408
0.0201493
0.0212404
0.388979
0.021163
0.0205135
0.0232347
2.60936
0.021286
0.519019
0.563319
0.0130798
0.433946
0.119361
0.0201305
0.37685
0.0224666
0.0364625
0.0205865
0.0211766
0.0213396
0.399953
0.0203504
0.42274
0.406291
0.0243159
0.022057
0.021702
0.0196842
0.414736
0.071632
0.0203604
0.0939637
1.14316
0.939224
0.516291
0.0204926
0.0211807
0.0205191
0.0216736
0.0211485
0.0205032
0.0230293
0.0221598
0.0212512
0.0197083
0.0204852
0.0215462
0.123736
0.0211668
0.339916
0.0205492
0.0205311
0.0222493
0.0220224
0.0213483
0.0206889
0.020428
0.346521
0.0400191
0.0205259
0.260079
0.47744