/*--------------------------------*- C++ -*----------------------------------*\
| =========                 |                                                 |
| \\      /  F ield         | OpenFOAM: The Open Source CFD Toolbox           |
|  \\    /   O peration     | Version:  v2012                                 |
|   \\  /    A nd           | Website:  www.openfoam.com                      |
|    \\/     M anipulation  |                                                 |
\*---------------------------------------------------------------------------*/
FoamFile
{
    version     2.0;
    format      ascii;
    class       volScalarField::Internal;
    location    "600";
    object      V0;
}
// * * * * * * * * * * * * * * * * * * * * * * * * * * * * * * * * * * * * * //

dimensions      [0 3 0 0 0 0 0];


value           nonuniform List<scalar> 
10042
(
0.190983
0.0799003
0.0870291
0.136286
0.171385
0.145096
0.0585187
0.15839
0.188529
0.0524325
0.141994
0.0787557
0.0492104
0.152492
0.0844424
0.153991
0.116591
0.131648
0.0657745
0.0996855
0.0484059
0.199809
0.144045
0.132383
0.165063
0.175848
0.0678283
0.195822
0.143287
0.110291
0.153309
0.0346632
0.175863
0.165666
0.156091
0.142098
0.172282
0.154311
0.145374
0.205028
0.141366
0.176441
0.038705
0.10792
0.138967
0.122622
0.169332
0.103129
0.0509097
0.0442425
0.0403832
0.164639
0.111521
0.0607575
0.0643243
0.0338798
0.0467245
0.167096
0.0838337
0.192609
0.0577312
0.0628524
0.0390499
0.149877
0.138197
0.151147
0.0877155
0.142415
0.126576
0.140204
0.0367708
0.105119
0.160799
0.0859926
0.15076
0.0349379
0.116938
0.160578
0.111237
0.05986
0.0986966
0.126652
0.186961
0.165295
0.0729383
0.049893
0.092753
0.0875437
0.139925
0.138819
0.0454109
0.0779167
0.0380849
0.0588749
0.132997
0.113278
0.014828
0.0892891
0.115787
0.0856136
0.050234
0.0596698
0.0982344
0.0351071
0.0595808
0.0994936
0.0330781
0.159674
0.0547362
0.101752
0.114267
0.0543154
0.0744132
0.14857
0.137905
0.165439
0.109684
0.172667
0.158777
0.171908
0.170869
0.0648297
0.0652164
0.13739
0.107631
0.158108
0.119441
0.0620993
0.0239339
0.11738
0.171097
0.128121
0.153887
0.134285
0.0466442
0.0427292
0.0899698
0.0339867
0.0749968
0.123854
0.0430006
0.166606
0.0394059
0.198214
0.061562
0.145278
0.0716434
0.164405
0.0929
0.0847157
0.143426
0.164441
0.0636459
0.0356771
0.134671
0.0604475
0.0280192
0.0325978
0.146116
0.130723
0.165909
0.185489
0.0427396
0.140887
0.0790462
0.116014
0.188924
0.0423541
0.168778
0.135441
0.138379
0.105792
0.0813608
0.160242
0.0578507
0.0754407
0.114017
0.172864
0.143512
0.116727
0.07884
0.0501918
0.0801052
0.173318
0.180197
0.0423258
0.095531
0.141104
0.0355577
0.154623
0.0695239
0.0477909
0.164684
0.0578591
0.0620132
0.0720246
0.0206106
0.145208
0.018059
0.14191
0.0235608
0.04113
0.0937542
0.128482
0.117516
0.135652
0.132301
0.0439839
0.113425
0.0980795
0.0371665
0.13315
0.0927345
0.0991647
0.176268
0.147056
0.153011
0.099401
0.146904
0.0280827
0.022083
0.137588
0.0271895
0.132844
0.111525
0.0362127
0.101195
0.0848075
0.0770457
0.0715259
0.167715
0.120475
0.0426874
0.131855
0.110135
0.182532
0.0903339
0.0207449
0.0605058
0.136738
0.09671
0.133327
0.17752
0.162622
0.0664666
0.171099
0.139159
0.0778984
0.0491733
0.144794
0.0648724
0.15833
0.105174
0.052636
0.11142
0.0954904
0.128669
0.101884
0.0102107
0.150199
0.131201
0.151845
0.151929
0.173774
0.0407032
0.0696131
0.137021
0.102484
0.154618
0.108543
0.100874
0.0421809
0.145213
0.034854
0.106371
0.161602
0.0669078
0.130094
0.147367
0.0571161
0.140201
0.143286
0.0187629
0.0744325
0.175131
0.0227966
0.108509
0.154689
0.164721
0.136326
0.0472809
0.111507
0.173771
0.132731
0.129373
0.120436
0.0694039
0.100992
0.0956989
0.151922
0.0685022
0.0927848
0.127242
0.0911541
0.0930461
0.0480588
0.156507
0.164342
0.0660085
0.123253
0.142
0.130333
0.1309
0.11204
0.109679
0.16488
0.113904
0.143148
0.137659
0.160482
0.147865
0.0354582
0.155385
0.12821
0.177384
0.168792
0.135671
0.12853
0.0919302
0.0460311
0.135405
0.110974
0.16106
0.157243
0.135257
0.163451
0.0331721
0.126844
0.15525
0.118373
0.0415699
0.0480918
0.172182
0.144214
0.16264
0.172138
0.144287
0.156724
0.125455
0.0170905
0.0720602
0.135188
0.120685
0.144989
0.0708172
0.140094
0.101955
0.169792
0.0261266
0.166935
0.106089
0.158548
0.0765659
0.14123
0.107126
0.0730869
0.144515
0.127833
0.125539
0.0603848
0.145119
0.162402
0.1402
0.164122
0.054558
0.130714
0.155934
0.0949989
0.0651085
0.0462881
0.113693
0.0921582
0.0780465
0.138175
0.0285287
0.16542
0.154781
0.165512
0.105315
0.148199
0.111584
0.0265859
0.0730185
0.143185
0.106159
0.0525881
0.136195
0.153909
0.129785
0.0266211
0.1447
0.0235448
0.148564
0.0707086
0.0238656
0.135188
0.0398726
0.147817
0.100188
0.112908
0.109253
0.0542295
0.134561
0.0766021
0.149986
0.101108
0.0740804
0.0609609
0.143843
0.090951
0.152471
0.0952044
0.163333
0.166354
0.0360661
0.101208
0.0852552
0.108469
0.126796
0.0470585
0.100169
0.139913
0.0536008
0.0990323
0.137468
0.0751366
0.0416379
0.152558
0.156904
0.0326299
0.163527
0.114462
0.089399
0.0319222
0.0380418
0.173403
0.141411
0.0403171
0.147983
0.169454
0.153881
0.0658645
0.0724769
0.0336959
0.10948
0.140234
0.140209
0.0261952
0.16498
0.137084
0.147932
0.119589
0.158955
0.158855
0.0984722
0.169379
0.15996
0.064826
0.0911317
0.138262
0.0409896
0.134995
0.026765
0.0402328
0.12348
0.126541
0.040583
0.129548
0.051558
0.10024
0.137451
0.077979
0.122633
0.140721
0.0571735
0.121764
0.152525
0.120575
0.159415
0.137071
0.13934
0.0800485
0.145973
0.147175
0.0935846
0.0402295
0.135976
0.14804
0.11531
0.0466963
0.10443
0.156944
0.141397
0.0840795
0.0524727
0.11178
0.158342
0.140201
0.071791
0.0694718
0.0774176
0.136714
0.145658
0.132948
0.094798
0.122027
0.119979
0.0990309
0.123409
0.102467
0.129748
0.0718982
0.100122
0.0776371
0.0752125
0.106201
0.139496
0.0775492
0.106518
0.136308
0.11482
0.0376924
0.10952
0.141503
0.0933547
0.0842637
0.111176
0.0716151
0.153887
0.0661359
0.12259
0.0773676
0.13765
0.0225816
0.122567
0.0436541
0.153574
0.132178
0.108948
0.173165
0.0922521
0.0501857
0.148476
0.134015
0.0269558
0.102319
0.137822
0.164775
0.13838
0.160936
0.161024
0.158421
0.0955071
0.0870236
0.11852
0.173274
0.043462
0.0577323
0.145982
0.145103
0.133595
0.0474053
0.138194
0.137735
0.137107
0.0947671
0.0441804
0.140397
0.144924
0.141173
0.115823
0.106126
0.162989
0.0209121
0.0836201
0.0649796
0.133168
0.14536
0.119812
0.0761548
0.10422
0.144564
0.129933
0.162995
0.136532
0.133026
0.0629235
0.116009
0.18328
0.152118
0.159923
0.140326
0.0223697
0.13186
0.137188
0.118798
0.0654282
0.125931
0.113658
0.15224
0.0709909
0.127864
0.0988752
0.166563
0.0970014
0.0745535
0.103096
0.139455
0.129357
0.0158917
0.0816614
0.109514
0.109704
0.0463698
0.126884
0.0795891
0.123019
0.146668
0.0914739
0.124532
0.167334
0.131506
0.0897934
0.108633
0.0977464
0.088644
0.137722
0.0278377
0.0814
0.135144
0.136741
0.108235
0.133005
0.144549
0.16294
0.097852
0.065442
0.168478
0.0267701
0.121771
0.079609
0.15052
0.0762858
0.134762
0.125647
0.137441
0.106029
0.0893258
0.0632768
0.101005
0.167936
0.133792
0.13522
0.137871
0.119524
0.0694838
0.0834375
0.105673
0.129444
0.134972
0.136746
0.0814041
0.129677
0.155145
0.154563
0.132032
0.0320806
0.146585
0.104064
0.1385
0.0181564
0.039026
0.135512
0.0660642
0.138969
0.048735
0.134958
0.141692
0.160216
0.103593
0.141058
0.144551
0.045419
0.11374
0.165034
0.139233
0.126735
0.0270168
0.0157034
0.159449
0.132838
0.157858
0.15637
0.152555
0.0940753
0.123806
0.0346902
0.129426
0.133567
0.12574
0.0989082
0.108417
0.139196
0.0945334
0.0762161
0.141028
0.0615821
0.117142
0.128288
0.0874949
0.139956
0.126405
0.0274387
0.13128
0.1292
0.151383
0.132001
0.136511
0.099546
0.109592
0.126963
0.0619445
0.124899
0.145174
0.0574616
0.13266
0.0464487
0.141271
0.158499
0.110538
0.030691
0.161094
0.0937985
0.1393
0.10331
0.13987
0.0928611
0.0985396
0.108189
0.0682837
0.156302
0.131378
0.0500255
0.155621
0.148967
0.112648
0.0866652
0.161684
0.121298
0.0762566
0.106099
0.086653
0.138328
0.0326132
0.0696019
0.142721
0.133385
0.158582
0.134173
0.125863
0.0775094
0.141751
0.0526214
0.0803999
0.0895473
0.0434532
0.0902984
0.128407
0.0701625
0.143369
0.0751128
0.062667
0.175974
0.0752411
0.13227
0.0795523
0.131307
0.163373
0.0639726
0.051564
0.163202
0.0916788
0.164819
0.156494
0.127309
0.13502
0.166095
0.1411
0.130264
0.1002
0.15229
0.166962
0.107391
0.150918
0.0927443
0.153055
0.134332
0.159597
0.109445
0.131457
0.05244
0.129734
0.0656986
0.0399888
0.0263021
0.126578
0.0974499
0.041024
0.113797
0.153508
0.136631
0.151752
0.128174
0.0784527
0.0810474
0.0254193
0.0931641
0.138341
0.137883
0.123652
0.0888974
0.0933778
0.10177
0.0635918
0.0612188
0.0222046
0.101111
0.130403
0.102224
0.147671
0.165102
0.0943414
0.135663
0.119118
0.132138
0.066412
0.117798
0.160219
0.0470166
0.100242
0.0503662
0.123062
0.132783
0.131087
0.0735035
0.106049
0.135085
0.119913
0.0396813
0.136621
0.0414973
0.0957789
0.0866791
0.111685
0.0823837
0.13899
0.0304401
0.156352
0.147398
0.117911
0.151225
0.136286
0.130247
0.0945121
0.0802114
0.13106
0.089023
0.142126
0.150256
0.136175
0.149695
0.120927
0.0906367
0.146352
0.066155
0.0659174
0.0726193
0.0511446
0.080799
0.132987
0.137748
0.0164789
0.015117
0.131433
0.0677718
0.0282296
0.0421626
0.041001
0.121524
0.110721
0.138682
0.107756
0.152104
0.130611
0.0457694
0.151823
0.0362644
0.120863
0.127899
0.183515
0.157814
0.119025
0.0796999
0.109453
0.119445
0.126487
0.0446505
0.121073
0.119227
0.158829
0.0292196
0.0695264
0.12914
0.149179
0.127476
0.0892431
0.128157
0.0794628
0.101631
0.122173
0.12382
0.0687812
0.0857817
0.0380606
0.069874
0.0286384
0.0347898
0.129979
0.0336054
0.108465
0.106755
0.0900869
0.0923676
0.102163
0.0460074
0.0263546
0.128222
0.088289
0.0810917
0.135612
0.147295
0.0325713
0.133015
0.127973
0.018336
0.143188
0.122361
0.0700173
0.0472509
0.13727
0.168661
0.103081
0.0893956
0.0590985
0.15455
0.0561613
0.130282
0.121777
0.160211
0.0462371
0.0821849
0.135243
0.126321
0.107681
0.135107
0.119296
0.0625419
0.110785
0.0942195
0.105996
0.0824051
0.151887
0.0650447
0.0835427
0.0919763
0.0484021
0.113253
0.104147
0.119747
0.150452
0.136438
0.0784212
0.12729
0.122637
0.142777
0.095798
0.152786
0.0569724
0.134941
0.0993432
0.040638
0.0922912
0.155117
0.0755867
0.0454465
0.151095
0.135973
0.143541
0.0324823
0.129833
0.143183
0.132412
0.129045
0.0648363
0.130996
0.146616
0.126372
0.0829139
0.12678
0.147834
0.0428304
0.142584
0.105999
0.0673811
0.13766
0.0998781
0.149057
0.0636836
0.120854
0.0870986
0.119863
0.0703582
0.108361
0.0255525
0.0683056
0.13147
0.109702
0.129896
0.160636
0.0880407
0.0778823
0.146699
0.130129
0.150184
0.0823226
0.12655
0.055018
0.131921
0.172148
0.0380446
0.0930445
0.145644
0.0855753
0.0233323
0.150185
0.120098
0.140912
0.118485
0.0464697
0.129544
0.0712654
0.13064
0.15425
0.128631
0.127412
0.142036
0.0394223
0.0265011
0.14052
0.144696
0.113387
0.125123
0.134279
0.103016
0.13501
0.143902
0.131182
0.0853409
0.13075
0.074488
0.156485
0.151247
0.124868
0.107674
0.153363
0.13193
0.142117
0.152677
0.0662197
0.0566905
0.026786
0.0619816
0.0858309
0.137954
0.0257508
0.0690212
0.115062
0.0475715
0.118187
0.0710588
0.142859
0.143487
0.141723
0.129167
0.126695
0.121238
0.150314
0.0826708
0.0373404
0.149304
0.151424
0.121183
0.150928
0.152499
0.163613
0.158995
0.151174
0.12765
0.147102
0.121109
0.147252
0.152413
0.0867362
0.0513635
0.114912
0.142553
0.0877223
0.10865
0.064927
0.100247
0.0947494
0.14188
0.0932951
0.0347014
0.0396735
0.0987581
0.165657
0.153017
0.130972
0.123798
0.153375
0.132899
0.131468
0.147451
0.109341
0.0292061
0.1457
0.124591
0.0245348
0.0404948
0.148629
0.144908
0.125438
0.152729
0.0419317
0.124702
0.11628
0.0657494
0.136975
0.130312
0.14528
0.0406524
0.0852763
0.0762629
0.0652492
0.132508
0.0457986
0.103
0.137803
0.118184
0.133726
0.0735307
0.147468
0.084188
0.110653
0.0537206
0.129616
0.0622676
0.134938
0.076019
0.0904297
0.102294
0.095771
0.141485
0.0366792
0.144503
0.139294
0.116746
0.150685
0.117667
0.0625543
0.131938
0.130743
0.181659
0.0343599
0.134352
0.128427
0.136711
0.139193
0.054872
0.160961
0.138289
0.129897
0.132584
0.128436
0.084951
0.044721
0.145661
0.0929417
0.0982851
0.146742
0.10093
0.0286959
0.148319
0.0981564
0.0331568
0.147757
0.136949
0.14059
0.164354
0.095032
0.132879
0.0822295
0.131096
0.128493
0.161849
0.153183
0.0987166
0.0734064
0.148736
0.0401855
0.151737
0.132607
0.165633
0.124084
0.12917
0.0681515
0.149691
0.0511145
0.144752
0.0870198
0.15316
0.0408145
0.150085
0.133765
0.0342752
0.156723
0.130754
0.0293515
0.062766
0.108191
0.0464715
0.0746068
0.128753
0.0577744
0.137907
0.154227
0.131635
0.0348051
0.127019
0.10768
0.052288
0.132692
0.110876
0.150386
0.0915899
0.136442
0.132924
0.0764966
0.117493
0.0273884
0.133735
0.154696
0.133814
0.0243771
0.0829023
0.0715227
0.128382
0.138393
0.0478362
0.0726529
0.132538
0.0378806
0.144087
0.124996
0.15257
0.0176815
0.137682
0.0797834
0.130007
0.142292
0.160052
0.141637
0.13407
0.119431
0.150821
0.133758
0.0900979
0.0887273
0.122416
0.151191
0.0487623
0.0586552
0.138876
0.137925
0.140578
0.0241556
0.0431622
0.0867334
0.13858
0.157682
0.0745429
0.0468156
0.159754
0.131753
0.05695
0.132588
0.151304
0.134223
0.124189
0.057174
0.143404
0.07757
0.108819
0.135007
0.132806
0.0981738
0.146208
0.06012
0.0141069
0.152277
0.134823
0.131883
0.0259001
0.135962
0.0485534
0.156812
0.144519
0.111768
0.130953
0.0656235
0.112433
0.124063
0.15052
0.0270857
0.110782
0.0476814
0.149447
0.0539774
0.0603826
0.153537
0.0438726
0.14641
0.0461181
0.0501663
0.143923
0.139318
0.0916942
0.0612484
0.0465551
0.0268924
0.154889
0.151129
0.11242
0.0465431
0.134024
0.0386406
0.0399883
0.14773
0.125137
0.155241
0.090167
0.0846606
0.145026
0.122129
0.143426
0.0270382
0.138423
0.0766062
0.134676
0.0856609
0.0607324
0.0845795
0.137608
0.0670137
0.0555586
0.10622
0.131101
0.13133
0.0254139
0.148187
0.0284708
0.0389293
0.0408871
0.107531
0.0402558
0.0763254
0.131746
0.12363
0.120598
0.0493142
0.0657436
0.0565385
0.132405
0.0176542
0.0579634
0.141186
0.129187
0.0267033
0.151811
0.131054
0.0284827
0.0200348
0.0326535
0.149312
0.036705
0.14936
0.104693
0.135385
0.0698869
0.161932
0.089173
0.0463353
0.024204
0.0504329
0.113213
0.150813
0.0903572
0.106435
0.151952
0.0905582
0.0194753
0.140333
0.153281
0.0588625
0.099951
0.038058
0.0987863
0.145032
0.130708
0.0793461
0.153208
0.13133
0.0502277
0.140047
0.110805
0.125627
0.144667
0.147886
0.0186241
0.136567
0.149502
0.122124
0.156482
0.1477
0.0665237
0.146863
0.0270935
0.0290762
0.0958375
0.149618
0.147335
0.130084
0.152285
0.0373197
0.0418114
0.0188904
0.133297
0.141865
0.0351768
0.0667982
0.0951699
0.0477362
0.090132
0.126373
0.0957734
0.154234
0.170566
0.147068
0.130263
0.0792825
0.0343329
0.0643671
0.152794
0.039627
0.0383527
0.153517
0.130729
0.150789
0.0740879
0.13014
0.133655
0.0638686
0.131577
0.028271
0.129747
0.134522
0.0470495
0.0731332
0.0406246
0.082482
0.142148
0.149362
0.0275164
0.104211
0.133265
0.0472395
0.13561
0.0307811
0.132363
0.136347
0.157123
0.0517917
0.0823278
0.0533078
0.150346
0.137126
0.0582463
0.0639921
0.160394
0.082435
0.0413917
0.139688
0.0717252
0.12416
0.156916
0.0583119
0.149232
0.0603209
0.0410923
0.119187
0.135004
0.161383
0.0545197
0.037188
0.0520751
0.0658776
0.0689723
0.0799704
0.0682804
0.0613058
0.047948
0.0813688
0.114818
0.150076
0.149458
0.0702578
0.0663719
0.0986559
0.0383017
0.135873
0.0275807
0.0415975
0.150273
0.158714
0.145179
0.157732
0.151651
0.0411175
0.0862115
0.0435779
0.0364887
0.115075
0.0649327
0.0853006
0.0683138
0.134296
0.133424
0.0771041
0.132774
0.109943
0.111125
0.0619151
0.150503
0.102413
0.137418
0.137986
0.0638413
0.149026
0.130158
0.169333
0.0388389
0.0921331
0.0327672
0.0654495
0.0872432
0.0411427
0.115144
0.032154
0.12572
0.105242
0.0770871
0.033149
0.15049
0.160547
0.035034
0.0525801
0.125161
0.0717208
0.141705
0.0189668
0.0902439
0.102624
0.136101
0.0268627
0.0257101
0.120817
0.0693592
0.0662228
0.140885
0.0580522
0.0839425
0.133102
0.11369
0.0336951
0.14333
0.0829414
0.132543
0.0665439
0.0612583
0.0966553
0.0430063
0.0633415
0.125823
0.0675524
0.0354465
0.0279552
0.118815
0.0671151
0.0742277
0.0617249
0.0295762
0.0284036
0.0555551
0.0699532
0.148402
0.057044
0.053344
0.0306967
0.135127
0.0628122
0.134008
0.0596932
0.15338
0.0470722
0.131251
0.151231
0.0797555
0.0285455
0.0506207
0.0434795
0.17696
0.0689919
0.131737
0.124175
0.152712
0.103158
0.0182993
0.126164
0.0588502
0.101999
0.144292
0.141935
0.117969
0.149234
0.135884
0.152332
0.0912086
0.130236
0.0319444
0.103434
0.0395547
0.0643809
0.0754071
0.0491876
0.0655507
0.0591659
0.108583
0.082355
0.0862814
0.137131
0.141335
0.0667395
0.133043
0.146959
0.150174
0.0750263
0.0919585
0.0706999
0.15013
0.0304137
0.149729
0.128675
0.0819246
0.140252
0.068803
0.151406
0.0516694
0.0938507
0.0743326
0.0358954
0.135152
0.13482
0.142706
0.0249257
0.151093
0.135107
0.069769
0.0827571
0.0427302
0.123124
0.102257
0.0922806
0.136302
0.121298
0.13907
0.0785681
0.126823
0.036857
0.0807297
0.137027
0.105745
0.0382185
0.137115
0.13817
0.043252
0.0905975
0.0781413
0.148097
0.0830934
0.143102
0.142434
0.0973059
0.152006
0.117275
0.0863451
0.0712769
0.0943453
0.0282155
0.0699565
0.117168
0.052113
0.111058
0.0481506
0.145326
0.151875
0.0605357
0.134896
0.118219
0.121569
0.04148
0.0182282
0.143533
0.0439726
0.149208
0.102134
0.128603
0.139595
0.0497563
0.0876731
0.130378
0.131021
0.166595
0.048112
0.0603771
0.0755995
0.136462
0.133388
0.0807538
0.13581
0.0488687
0.0852609
0.124954
0.139625
0.0368801
0.125037
0.0361616
0.0918907
0.0277442
0.068302
0.0289303
0.144309
0.136297
0.0640228
0.0484931
0.151292
0.137884
0.157195
0.148867
0.143467
0.131648
0.0880285
0.0524478
0.0288273
0.138236
0.0266603
0.0365269
0.0533553
0.0614423
0.152696
0.138682
0.170513
0.0754814
0.0994224
0.0476503
0.0998989
0.0753201
0.0411201
0.116289
0.151526
0.122815
0.125024
0.0485286
0.13985
0.0285836
0.0928527
0.0630578
0.132332
0.171509
0.154154
0.0318601
0.133381
0.0285332
0.0654417
0.150564
0.070547
0.0652386
0.113327
0.135853
0.133677
0.132224
0.089616
0.081664
0.0700316
0.104574
0.0732555
0.0279286
0.0523972
0.0614772
0.155469
0.0655764
0.0720038
0.133695
0.139034
0.0853475
0.0652476
0.0383067
0.131794
0.0418249
0.110342
0.138147
0.149495
0.0703173
0.0846308
0.119491
0.0864994
0.0548776
0.141856
0.0730727
0.131509
0.0437566
0.099036
0.101255
0.0917254
0.0906242
0.136501
0.0965405
0.149924
0.138312
0.0498125
0.0800061
0.027329
0.14578
0.13411
0.152983
0.112737
0.141914
0.0758534
0.0903188
0.0647113
0.0401764
0.13176
0.0570779
0.151385
0.0778119
0.100477
0.12619
0.136834
0.152165
0.0974155
0.0722719
0.0820986
0.150337
0.142775
0.0932554
0.101758
0.0588535
0.0891241
0.0861486
0.130608
0.135251
0.0423737
0.124767
0.129719
0.115517
0.101139
0.0666592
0.112723
0.0486652
0.0488751
0.0730269
0.147395
0.0481912
0.0389291
0.130635
0.124997
0.0881687
0.0634386
0.0684843
0.102622
0.132985
0.151696
0.0941152
0.0945408
0.0577661
0.127501
0.116309
0.0930174
0.0457166
0.0627297
0.111706
0.142715
0.0851475
0.0477248
0.130061
0.127955
0.114231
0.0619668
0.0474617
0.138023
0.0756861
0.123617
0.0461405
0.0961292
0.141217
0.0182902
0.0673228
0.027565
0.0414374
0.131439
0.133903
0.0958996
0.134233
0.0957214
0.0485984
0.115965
0.0899832
0.0722268
0.105492
0.0635845
0.0912679
0.0750387
0.141434
0.126641
0.0833153
0.124033
0.116777
0.147771
0.161808
0.157107
0.13671
0.153479
0.110638
0.0982284
0.121038
0.152679
0.0233286
0.142561
0.137477
0.100431
0.136032
0.0665068
0.133909
0.154655
0.152913
0.151151
0.110749
0.120622
0.0662811
0.038447
0.157738
0.0629741
0.117646
0.0801203
0.0778498
0.100933
0.0880273
0.0684888
0.0913411
0.0838348
0.0623258
0.0650319
0.0632987
0.163182
0.139297
0.0725859
0.084635
0.0606744
0.0522567
0.0683913
0.1005
0.0892508
0.124804
0.026166
0.14281
0.0820397
0.148417
0.0672985
0.122272
0.147171
0.13249
0.0670722
0.0573174
0.0757722
0.157183
0.0633766
0.149491
0.151857
0.103996
0.0925869
0.0669751
0.0694293
0.14281
0.129751
0.112251
0.0709306
0.12605
0.0285765
0.0826713
0.148553
0.0727866
0.154683
0.0365694
0.0835363
0.105402
0.134381
0.0933226
0.0629223
0.151745
0.114897
0.0411676
0.149848
0.132105
0.0866348
0.0709254
0.0350864
0.130246
0.0281171
0.0719823
0.0919907
0.134627
0.0999465
0.0402937
0.102632
0.107574
0.141893
0.0896993
0.0783177
0.125401
0.134089
0.118292
0.146974
0.152781
0.11724
0.0750436
0.0635776
0.127015
0.0379001
0.0789089
0.120342
0.0736057
0.0282031
0.0782736
0.0857181
0.120802
0.0898618
0.0843331
0.137893
0.116102
0.0846774
0.129792
0.137635
0.102988
0.15256
0.131576
0.0969411
0.0501865
0.0892336
0.0300113
0.119204
0.0289893
0.145048
0.102169
0.0814118
0.151327
0.153157
0.0943913
0.107816
0.0665295
0.0833029
0.0978014
0.145117
0.152155
0.0818571
0.0731048
0.103904
0.145083
0.130864
0.051637
0.0666753
0.14496
0.0936795
0.114823
0.100664
0.0779758
0.115089
0.139977
0.12002
0.0680001
0.0601401
0.11375
0.130752
0.131199
0.103479
0.151219
0.127467
0.142783
0.100553
0.0970696
0.134229
0.152961
0.135408
0.152955
0.0996856
0.15764
0.0654926
0.141805
0.127694
0.0928363
0.0952907
0.0979844
0.0310357
0.0230832
0.0599413
0.131917
0.14377
0.0656783
0.12973
0.0647903
0.105661
0.141751
0.090756
0.102419
0.117501
0.0956407
0.131721
0.101636
0.112327
0.107099
0.155256
0.061974
0.102984
0.101249
0.149236
0.0966262
0.0672923
0.115433
0.0309098
0.0346267
0.145653
0.137013
0.133402
0.1333
0.140957
0.145219
0.148131
0.0863693
0.10667
0.140962
0.0272985
0.146648
0.102155
0.066372
0.121756
0.104066
0.0891441
0.079762
0.151137
0.0539553
0.0702918
0.108451
0.0798183
0.0971093
0.103779
0.126044
0.116415
0.141434
0.145059
0.0902878
0.072842
0.0586525
0.1513
0.0754917
0.147892
0.107769
0.0860734
0.122172
0.0976691
0.138482
0.14376
0.142853
0.111156
0.0597186
0.150195
0.139505
0.131669
0.114403
0.0938444
0.0893847
0.0605231
0.11521
0.0761241
0.0956874
0.0887933
0.15036
0.150931
0.136172
0.143749
0.0186183
0.0663116
0.0850504
0.0520534
0.131199
0.086458
0.0895983
0.148226
0.0918825
0.13663
0.0971117
0.133342
0.0261652
0.104687
0.0918766
0.0853062
0.150957
0.112155
0.0410513
0.143591
0.0393285
0.0683154
0.0701411
0.0971223
0.027451
0.133081
0.0933942
0.146276
0.0900075
0.0672008
0.145562
0.130331
0.131792
0.0710406
0.0914545
0.0964279
0.145265
0.0798271
0.12652
0.107998
0.0927534
0.0377382
0.124407
0.152396
0.154009
0.132332
0.028578
0.0839097
0.142927
0.117259
0.132599
0.133802
0.146422
0.112708
0.130099
0.0450455
0.130299
0.0934076
0.138929
0.0740563
0.0977328
0.103705
0.119198
0.112336
0.12896
0.140507
0.0815955
0.131741
0.0969022
0.147066
0.0957899
0.0984834
0.0989179
0.150451
0.128641
0.174431
0.0380085
0.151946
0.152541
0.0704919
0.0694003
0.0914448
0.143338
0.126242
0.133336
0.106935
0.0943837
0.119141
0.0629225
0.0234339
0.15122
0.0975278
0.0950062
0.107137
0.121231
0.140152
0.0654046
0.0578203
0.036812
0.021207
0.0608834
0.136146
0.0903609
0.118818
0.0966454
0.130633
0.142508
0.0639193
0.133292
0.0348501
0.0690792
0.154151
0.100504
0.0861308
0.0879418
0.133632
0.137319
0.104828
0.113824
0.118732
0.141242
0.0998954
0.0902834
0.15202
0.0792169
0.0685869
0.0939143
0.125806
0.103879
0.093464
0.140357
0.137586
0.127646
0.056687
0.132302
0.10638
0.134537
0.152154
0.125364
0.148537
0.144095
0.062921
0.124348
0.109925
0.0565016
0.13238
0.126813
0.0981345
0.061015
0.151304
0.139418
0.136912
0.073598
0.0184633
0.121801
0.0656747
0.143075
0.146096
0.153922
0.102583
0.127144
0.128707
0.15305
0.0682902
0.143102
0.0861476
0.143917
0.126525
0.140981
0.0921701
0.110664
0.122891
0.132143
0.114778
0.145765
0.110984
0.128014
0.139773
0.129071
0.143587
0.133464
0.134326
0.150576
0.154256
0.148838
0.12686
0.151501
0.104943
0.145078
0.0969943
0.103519
0.0595922
0.13217
0.10564
0.1423
0.14962
0.15157
0.111613
0.137291
0.150508
0.139282
0.065514
0.126773
0.070306
0.0304316
0.152695
0.029016
0.103025
0.0410887
0.140826
0.0885464
0.150623
0.125748
0.13043
0.0859584
0.0906564
0.120828
0.0956837
0.130765
0.138592
0.152105
0.0371305
0.131304
0.0448234
0.100187
0.0191411
0.100764
0.133496
0.0661286
0.0494738
0.149242
0.107716
0.112093
0.0884674
0.0361473
0.101473
0.13341
0.0827031
0.0736992
0.0940476
0.141301
0.143511
0.0729763
0.0668344
0.0305147
0.0893958
0.102506
0.136688
0.0998245
0.119977
0.130704
0.0677383
0.13193
0.125208
0.139009
0.128579
0.136114
0.131914
0.10268
0.114366
0.103238
0.110617
0.0918707
0.129995
0.0874942
0.172862
0.140679
0.0872559
0.155076
0.0842176
0.142047
0.138047
0.072612
0.104292
0.113004
0.133249
0.128223
0.0678715
0.103113
0.0408228
0.103592
0.139445
0.133862
0.115462
0.0686102
0.107793
0.132784
0.0932816
0.124363
0.168056
0.136293
0.0854862
0.13782
0.140533
0.135605
0.100913
0.135159
0.133781
0.0518291
0.102802
0.0994451
0.0936164
0.13029
0.113234
0.136014
0.14065
0.139597
0.111709
0.131994
0.0653586
0.144697
0.134666
0.0783742
0.0985209
0.134108
0.097678
0.083485
0.10078
0.13213
0.152739
0.13279
0.102342
0.135565
0.151741
0.0688187
0.125148
0.145914
0.09221
0.132526
0.0664602
0.127943
0.105233
0.153548
0.0863588
0.149338
0.142531
0.136155
0.0921059
0.149784
0.0314181
0.15185
0.112895
0.115206
0.142752
0.125366
0.0948326
0.0885842
0.130543
0.121912
0.1121
0.0828864
0.137478
0.132153
0.136736
0.114689
0.124621
0.132706
0.127088
0.15673
0.144708
0.0915603
0.11839
0.135875
0.107581
0.117922
0.154337
0.0978896
0.128569
0.0935287
0.12828
0.110783
0.14567
0.14479
0.0413457
0.145292
0.111267
0.129118
0.111942
0.13583
0.0781921
0.136717
0.144185
0.0950479
0.129123
0.140592
0.118472
0.0719191
0.141492
0.139565
0.12933
0.1396
0.113429
0.115195
0.132662
0.141753
0.137972
0.143917
0.0645833
0.0738187
0.114201
0.138102
0.150411
0.135284
0.131566
0.14641
0.0980784
0.0935272
0.112759
0.117621
0.130272
0.0684049
0.143554
0.143152
0.0993168
0.107733
0.132817
0.110438
0.121331
0.114071
0.14279
0.131314
0.109677
0.149476
0.152356
0.123596
0.108464
0.115864
0.144758
0.122678
0.120947
0.124622
0.122482
0.151815
0.111282
0.151764
0.149273
0.124927
0.141714
0.135377
0.0788803
0.131581
0.135122
0.0974012
0.147466
0.090046
0.144172
0.130189
0.137742
0.149959
0.0911766
0.127555
0.101237
0.0532138
0.18002
0.141741
0.145385
0.079702
0.121305
0.152164
0.0678096
0.116988
0.119008
0.119518
0.103524
0.142816
0.154636
0.140083
0.113306
0.107803
0.147549
0.142524
0.112579
0.149736
0.122967
0.140423
0.122201
0.137886
0.0650042
0.135717
0.1245
0.151145
0.130037
0.145476
0.131619
0.137009
0.124957
0.138895
0.042103
0.109627
0.141946
0.134376
0.150851
0.116508
0.0969277
0.160097
0.116955
0.103299
0.141447
0.0896831
0.132248
0.142052
0.121319
0.14593
0.145293
0.13787
0.110615
0.125688
0.120172
0.163248
0.135574
0.133097
0.131597
0.132642
0.0776979
0.146335
0.148922
0.116114
0.140108
0.143685
0.13445
0.123965
0.13616
0.0918363
0.139658
0.142652
0.104054
0.12114
0.133657
0.15171
0.0191978
0.106062
0.141659
0.141136
0.13276
0.130157
0.136219
0.115504
0.134081
0.0981611
0.132685
0.13689
0.131272
0.142386
0.133768
0.0825651
0.150695
0.13991
0.13305
0.138974
0.103677
0.142537
0.153117
0.0499726
0.150604
0.134238
0.128296
0.13721
0.140793
0.0902957
0.124702
0.116819
0.146516
0.145329
0.0980878
0.144227
0.124102
0.142909
0.131155
0.110288
0.153527
0.134585
0.137393
0.138446
0.141056
0.13453
0.122721
0.149268
0.12625
0.067824
0.153094
0.140413
0.112508
0.133129
0.122224
0.150592
0.132951
0.135265
0.15113
0.145536
0.111494
0.123304
0.129841
0.12986
0.12704
0.125449
0.118018
0.144899
0.133188
0.1533
0.142974
0.117295
0.142877
0.138737
0.126951
0.149387
0.130452
0.131887
0.120674
0.132864
0.125561
0.136049
0.134684
0.112184
0.152281
0.15127
0.128414
0.14762
0.116585
0.131578
0.132945
0.139155
0.153339
0.122498
0.137954
0.132766
0.130564
0.0542758
0.135216
0.140396
0.16303
0.130997
0.138085
0.100756
0.11169
0.0884638
0.140901
0.133631
0.13475
0.111828
0.130366
0.129651
0.0992749
0.134909
0.146296
0.130197
0.133231
0.130012
0.120366
0.15148
0.116616
0.126004
0.132495
0.147304
0.144444
0.089099
0.121834
0.116003
0.125212
0.0383333
0.12818
0.150081
0.0955726
0.139774
0.131664
0.147014
0.152657
0.133458
0.116747
0.153487
0.130751
0.150308
0.146062
0.133511
0.0936707
0.11107
0.161138
0.129159
0.143574
0.132375
0.131802
0.136445
0.137277
0.129936
0.110427
0.0388864
0.151408
0.143973
0.135037
0.0552839
0.139635
0.137125
0.136266
0.141776
0.137583
0.0923056
0.124164
0.132142
0.110655
0.130285
0.14517
0.130844
0.12721
0.140569
0.147694
0.130852
0.131985
0.153814
0.153065
0.14389
0.152983
0.134814
0.146328
0.131901
0.142723
0.0364125
0.131419
0.131841
0.0848021
0.130885
0.0890992
0.0669333
0.0184709
0.0864869
0.113816
0.134546
0.12973
0.139975
0.127935
0.128504
0.136478
0.11064
0.110196
0.091279
0.145866
0.142091
0.129014
0.120396
0.130935
0.107742
0.137475
0.0702536
0.092458
0.130955
0.137935
0.137932
0.129116
0.131668
0.11114
0.131988
0.139603
0.0709897
0.128969
0.132545
0.146389
0.0868414
0.042029
0.128822
0.124943
0.0524846
0.142994
0.109647
0.14277
0.129923
0.117508
0.131061
0.119844
0.114423
0.0869432
0.136337
0.104953
0.141217
0.106608
0.139021
0.127245
0.0189147
0.107535
0.131457
0.129114
0.14192
0.0918111
0.13293
0.139195
0.14869
0.111493
0.126676
0.136984
0.1068
0.0930758
0.131481
0.146186
0.131484
0.132317
0.135597
0.156076
0.143816
0.153471
0.142934
0.124629
0.152134
0.119043
0.087976
0.0948587
0.125229
0.139917
0.140092
0.143541
0.118552
0.1133
0.138446
0.1503
0.146884
0.105232
0.15365
0.138763
0.137905
0.0291595
0.106813
0.145897
0.142944
0.146406
0.14957
0.125455
0.0934968
0.139133
0.143541
0.0948025
0.132922
0.138844
0.126124
0.128636
0.0976208
0.114372
0.0709722
0.132198
0.132889
0.141596
0.0419754
0.124456
0.130449
0.0970932
0.150991
0.151308
0.141027
0.14173
0.102642
0.146416
0.151795
0.141046
0.126316
0.144458
0.114882
0.130139
0.129776
0.144828
0.137239
0.137744
0.0696354
0.151393
0.123606
0.134463
0.147499
0.134378
0.143994
0.146962
0.141218
0.101817
0.142747
0.0750803
0.145837
0.134364
0.153631
0.151834
0.103612
0.115692
0.153273
0.131601
0.126383
0.125756
0.139268
0.141339
0.113127
0.14486
0.113757
0.0655078
0.133875
0.135542
0.135173
0.139682
0.117481
0.129409
0.129405
0.145794
0.135729
0.108027
0.131901
0.139214
0.0959969
0.0910395
0.141744
0.0925997
0.151134
0.139067
0.15279
0.138098
0.104842
0.14269
0.0913314
0.14463
0.127566
0.0407134
0.101943
0.149517
0.062539
0.0881963