/*--------------------------------*- C++ -*----------------------------------*\
| =========                 |                                                 |
| \\      /  F ield         | OpenFOAM: The Open Source CFD Toolbox           |
|  \\    /   O peration     | Version:  v2012                                 |
|   \\  /    A nd           | Website:  www.openfoam.com                      |
|    \\/     M anipulation  |                                                 |
\*---------------------------------------------------------------------------*/
FoamFile
{
    version     2.0;
    format      ascii;
    class       volVectorField;
    location    "250";
    object      ddt0(U);
}
// * * * * * * * * * * * * * * * * * * * * * * * * * * * * * * * * * * * * * //

dimensions      [0 1 -2 0 0 0 0];


internalField   nonuniform List<vector> 
10042
(
(0.0004466 -0.000374392 -1.3859e-18)
(0.00109407 9.82949e-05 2.80854e-18)
(-0.000283009 -0.000640757 2.58499e-18)
(0.00181078 3.71779e-06 -4.0088e-19)
(0.113065 -0.00927971 1.05971e-16)
(0.000791838 0.000178977 3.52812e-18)
(0.143419 -0.0303254 -6.45658e-18)
(0.103474 -0.028496 4.39616e-17)
(-0.00149528 -0.000423999 1.93664e-19)
(0.000992107 -0.000112668 -1.52429e-18)
(-0.0121784 -0.000728415 2.79443e-17)
(0.00149911 7.9542e-06 2.90733e-19)
(0.00128391 4.0025e-05 -1.8625e-19)
(0.00239504 2.98178e-05 -2.09863e-19)
(0.00217057 0.00148825 -1.79085e-17)
(-0.000709085 -1.25286e-05 3.36224e-18)
(-0.000564314 -5.93175e-05 -8.06625e-22)
(0.00040755 4.87841e-05 1.09788e-18)
(0.000323107 -0.000369069 1.21826e-18)
(0.00745371 0.013338 -1.02228e-17)
(-0.0011505 -0.000244294 1.32032e-18)
(-0.0235651 -0.041834 -2.79949e-17)
(0.00224437 1.93346e-05 2.24353e-19)
(0.00252655 7.83654e-05 2.93568e-20)
(0.00117252 0.000146224 2.17632e-18)
(-0.00620279 -0.00721284 1.4708e-18)
(-0.000805268 0.000482955 -3.58479e-18)
(0.00217384 -0.000101103 -1.55672e-18)
(-0.0014872 -0.000505596 -1.49071e-19)
(0.00173757 -0.000399279 3.32117e-19)
(-0.00015253 6.63996e-05 4.95187e-18)
(-0.00709458 0.000374711 5.29905e-17)
(0.00154143 -8.7166e-05 -2.88799e-19)
(0.000583014 -0.00119243 -2.03841e-19)
(0.000398915 -0.00550018 4.61613e-18)
(0.00264767 7.82458e-05 -1.27694e-19)
(-0.00542157 -0.00672974 8.39639e-18)
(-0.0118552 -0.0073487 -1.02451e-17)
(0.000837134 6.36059e-05 1.10034e-19)
(0.00622025 -0.00119583 -2.31493e-19)
(0.00656344 0.013747 -4.9604e-18)
(0.00224111 0.001107 -5.60341e-18)
(0.136816 -0.0337442 1.92488e-17)
(0.00150795 0.000119205 3.0501e-18)
(0.110851 -0.00913963 8.29879e-17)
(-0.0148364 -0.0176567 -1.03368e-17)
(0.0019276 0.000767486 -5.85245e-18)
(-0.0297691 -0.0242202 1.19939e-17)
(-0.00285619 -0.00640104 8.22807e-19)
(-0.0254 -0.00339553 4.4118e-18)
(0.000392033 3.44964e-05 2.19436e-18)
(-0.00122162 0.00254578 -1.52763e-18)
(0.00233211 0.00160512 -1.62928e-17)
(-0.00349299 0.00212541 -5.01425e-18)
(-0.00498888 -0.00682865 -1.20614e-17)
(6.43993e-05 0.000142089 -1.48333e-18)
(-0.0015334 -0.000544318 -6.77079e-20)
(0.0018931 0.000741427 5.87869e-18)
(0.000719644 -0.0011886 4.60283e-20)
(0.00252561 0.00153246 5.35455e-19)
(-0.000119555 0.000123044 2.17578e-18)
(-0.000431784 -0.000109843 1.64951e-18)
(0.000683507 -0.00568561 -6.74797e-18)
(-0.000362305 -0.000622718 -9.7317e-19)
(0.000438449 0.00118039 -5.28482e-18)
(0.000529734 -0.00131523 -3.49079e-19)
(0.000393339 0.000784621 -3.59175e-19)
(0.00632887 0.0109889 -1.59465e-17)
(0.0117568 -0.00343787 2.85011e-17)
(0.000319431 -0.000177788 3.18614e-18)
(-0.00353369 0.00239625 -2.56688e-18)
(0.00686091 0.014379 5.90982e-17)
(0.00144335 0.000167415 -1.50809e-18)
(0.00279816 0.00561326 1.01625e-17)
(0.0011008 0.000631518 2.85556e-18)
(0.00390766 9.01813e-05 3.7989e-20)
(0.106726 -0.00813502 -8.97593e-17)
(0.000244747 -0.000358094 2.56607e-18)
(0.00395892 0.00404062 9.26078e-18)
(0.133173 -0.0255644 -3.96455e-17)
(-0.00327845 -0.00611484 -1.57583e-17)
(0.122879 -0.0104914 -4.33772e-17)
(0.00142706 -0.000340931 -1.03292e-18)
(0.00175087 0.00103101 2.22547e-18)
(0.000494178 0.000761565 8.82989e-18)
(0.000364839 0.000214167 -9.64089e-19)
(0.00123859 -0.000349311 4.06407e-20)
(0.021156 -0.00895201 2.20538e-18)
(0.00161019 0.00024841 9.70129e-19)
(0.000624192 -0.000377574 -3.0388e-18)
(-0.000560349 -0.00154562 -2.89968e-18)
(0.116973 -0.0113028 4.1842e-17)
(0.00226666 -0.000178031 -1.72609e-18)
(-0.00169308 0.00234096 -7.60151e-19)
(0.0016864 -0.00031356 -1.70374e-18)
(-0.000194049 -0.000543074 7.40522e-19)
(0.000425901 -0.000379774 -5.61726e-18)
(0.000101659 -0.000384865 -5.00379e-19)
(0.00596054 -0.00121214 -3.64403e-19)
(-0.00158936 -0.000598323 3.25998e-19)
(-8.59645e-07 9.7022e-06 -1.12408e-19)
(0.016362 -0.0133715 1.31542e-17)
(0.170362 -0.0233798 3.03636e-17)
(0.000966727 0.000221322 6.7004e-19)
(0.00166968 0.000228236 -2.6287e-18)
(0.0119386 -0.00266372 -1.24771e-17)
(0.00128297 -0.000300378 5.25653e-18)
(0.000524966 -0.000389317 3.2304e-19)
(-0.000918213 -0.000228333 -3.08253e-19)
(0.000603339 0.000286527 9.90033e-19)
(0.00132116 -1.64012e-06 -4.31999e-19)
(-0.000397019 -0.0003026 -8.03025e-19)
(0.00310272 -0.00330139 2.53061e-20)
(0.00649198 -0.0029122 1.232e-17)
(0.000348517 0.00116848 7.83955e-18)
(-0.00013856 -0.000301501 -2.13025e-19)
(2.58354e-05 -0.000194137 -1.15582e-17)
(0.000258034 -0.000362483 6.53015e-18)
(-0.000414147 -0.000554517 1.62998e-18)
(0.000139467 0.0039341 4.05749e-17)
(0.00172125 0.00022216 5.71251e-18)
(0.101404 -0.0333658 3.58851e-17)
(0.00106771 -3.53754e-06 -5.37949e-18)
(-0.00022317 -0.00012983 -9.9342e-18)
(0.0154215 -0.0137554 -9.50365e-18)
(0.00127287 -0.000330795 -3.32688e-18)
(0.0713393 -0.0330769 -3.5549e-17)
(-0.00042327 -0.00698379 -1.13237e-17)
(0.0115038 -0.00240379 9.94731e-18)
(0.000134379 -0.000379766 4.16295e-18)
(0.00417777 0.00418293 -8.94979e-18)
(0.000562557 0.00050039 -1.55243e-18)
(-0.0117957 -0.00104259 4.64552e-17)
(0.00076321 -0.0328587 2.53275e-17)
(-0.00139351 -0.000562286 1.28894e-19)
(0.0117532 -0.00846817 -2.90754e-17)
(-0.0111658 0.00255423 5.50185e-17)
(0.000305383 -0.00155273 2.63844e-18)
(-0.0284885 -0.0260255 5.75856e-18)
(0.0222531 -0.0090165 2.94795e-17)
(0.00239415 0.000522713 1.38613e-18)
(7.78913e-05 -0.000223028 1.29086e-17)
(0.00184831 0.000487784 -1.49895e-18)
(0.0149494 -0.0198548 5.35138e-18)
(-0.000580394 0.00141132 -4.96151e-18)
(-0.000217969 -0.000296661 9.27871e-19)
(0.00977525 -0.0114688 8.24159e-18)
(-0.000169301 0.000519193 -2.51323e-18)
(-0.000234565 -0.000424775 1.2279e-18)
(0.0035411 -0.00152198 3.98709e-19)
(-0.00120852 -0.000385838 -1.0571e-18)
(0.000206963 1.755e-05 -8.56765e-19)
(0.080992 -0.012136 -2.10853e-17)
(-0.00454275 0.0013827 -1.1862e-16)
(-0.00193304 0.00045997 -5.14805e-18)
(0.00180471 3.60535e-05 1.0851e-19)
(0.000535987 0.00181737 5.4199e-18)
(-0.000631537 -0.000132714 -5.78668e-18)
(0.012197 -0.00841327 1.05182e-17)
(-0.00661203 0.0017808 -1.32465e-16)
(-0.0129235 -0.00100459 1.50793e-17)
(0.000862937 -0.027658 -3.25899e-17)
(0.000107878 -0.000108838 1.57885e-18)
(-0.00116052 -0.000428186 9.29534e-19)
(0.00157242 -0.00055432 -8.69029e-19)
(0.000547148 0.000455119 -1.87993e-18)
(0.0121701 0.0037259 7.08193e-18)
(-0.00652466 0.00204507 -4.70277e-17)
(-0.0085333 0.00163363 -9.75461e-17)
(0.00135805 0.0010851 1.15507e-16)
(-0.00306864 0.00126294 7.07066e-18)
(0.00180366 -0.000325976 -1.51773e-18)
(0.119222 -0.0143722 -1.92807e-17)
(0.00910073 0.0143178 6.34502e-18)
(0.0071196 0.00422272 1.3187e-17)
(0.108334 -0.06048 -9.69083e-18)
(-0.00584742 0.012468 1.05102e-17)
(0.00145818 8.84231e-05 3.65964e-19)
(0.0065941 0.0117736 -1.59529e-17)
(0.00495056 -0.00571693 4.55378e-18)
(0.000554883 0.00195069 -2.16206e-18)
(-0.00689843 0.000398632 1.57529e-17)
(0.00100799 0.000862401 2.93099e-18)
(-0.000203684 -0.00677547 1.44363e-17)
(0.00210508 0.00112876 -1.2532e-17)
(0.00276755 0.00350911 -2.74578e-18)
(0.00549114 -0.0306337 -1.39005e-17)
(0.000188334 -0.0010251 1.80699e-19)
(-0.00679156 -0.00363008 -3.43023e-17)
(-0.00134893 -0.00379107 1.77635e-18)
(0.0160451 0.0233424 2.03893e-18)
(0.00235281 0.000617261 5.56858e-20)
(0.0800138 -0.0140185 3.70057e-17)
(0.0802853 -0.0198536 1.36696e-17)
(-0.00664403 -0.0268515 2.38584e-17)
(0.0565377 -0.0300688 8.27309e-18)
(-0.00396496 -0.0048728 -8.99417e-18)
(0.00106103 -0.000318606 2.43489e-18)
(0.00195357 4.44005e-05 -1.28756e-19)
(0.00155084 -0.0022556 1.50723e-18)
(0.00598505 0.00502712 2.17776e-17)
(4.11168e-05 -0.00110126 -1.88338e-19)
(0.000201615 -0.00024894 1.68293e-19)
(0.0100968 0.0143442 5.86749e-18)
(0.000449883 0.000873111 4.46607e-18)
(-0.000710506 -6.58752e-05 1.39987e-19)
(0.0173744 0.0246757 8.81421e-18)
(-0.00225393 0.000472891 -1.02859e-17)
(0.000685695 6.02911e-05 1.63328e-18)
(0.00254487 0.00025501 -9.158e-18)
(-0.00341524 -0.0373969 -2.26142e-17)
(0.000896996 1.24842e-05 -7.67372e-20)
(0.0114732 0.00373868 -1.35053e-18)
(0.0228937 0.0072638 -4.69347e-17)
(0.000604183 0.00171039 4.64867e-18)
(0.00560957 -0.0308585 -8.6456e-18)
(0.000952272 0.000481135 -4.04735e-18)
(0.00162901 -0.000183626 1.25122e-18)
(0.008185 -0.0148306 2.56382e-17)
(0.000248494 -0.000180736 2.95945e-19)
(0.00315253 -0.00361025 -1.55125e-18)
(0.000841871 0.00185043 -1.32408e-17)
(0.0267599 0.00126515 -3.24891e-17)
(-0.0127118 -0.00780347 -8.39634e-18)
(0.00362378 0.00220392 -1.31504e-18)
(-0.00752772 -0.00745825 -4.51224e-18)
(-1.97892e-05 -0.0422458 2.118e-17)
(-0.000457178 -0.000304464 -2.29118e-18)
(0.00535392 -0.0278038 -1.50236e-17)
(-0.00374309 0.00276689 1.72984e-18)
(-0.00152123 -0.000402395 -4.5202e-19)
(0.0127515 0.011597 1.45402e-17)
(0.00183257 -0.000334727 -9.76703e-19)
(-0.00356944 0.00305753 6.09535e-18)
(0.000187667 -0.000682609 2.81682e-18)
(0.00369203 -0.00172181 9.30702e-20)
(-0.00123044 -0.000125086 -3.58831e-19)
(0.00169575 3.19265e-05 -1.43534e-19)
(-0.00303113 -0.00263457 -1.97308e-18)
(-0.00943068 0.00358784 -6.26621e-19)
(-0.000253642 -0.000100624 -9.16956e-18)
(0.00142198 6.96051e-05 6.21527e-18)
(0.00124776 -0.000524828 1.69435e-18)
(0.00371938 -0.00319033 -2.77459e-18)
(-0.000959067 -0.000331979 -9.70764e-19)
(0.00026814 4.87589e-05 -2.02803e-18)
(0.00227387 2.19758e-05 2.30226e-19)
(0.00177503 0.000171525 3.85545e-18)
(-0.0029581 0.00174274 -1.76864e-18)
(0.000294518 3.59297e-05 -1.23297e-18)
(0.000386884 2.979e-05 -1.34903e-19)
(0.000278837 -0.00019491 -3.94074e-20)
(0.00392487 -0.000172608 -8.69623e-18)
(0.0281449 0.00146026 -1.74077e-17)
(0.00162617 -0.0271886 1.29653e-17)
(-0.010277 -0.00304221 -5.98202e-18)
(0.00714688 0.00450513 -2.1705e-17)
(0.00728079 0.00343442 6.04903e-18)
(0.00234083 0.00150098 -6.39835e-18)
(-0.0147834 -0.0200348 -2.20035e-17)
(0.142204 -0.0431457 1.20693e-17)
(-0.00268154 -0.00244165 -8.72722e-18)
(0.00118667 -0.000299446 -5.53929e-18)
(0.00169238 3.43615e-05 2.8044e-19)
(0.00157005 -0.00214351 1.04468e-18)
(-0.000921397 -0.000103315 4.15287e-19)
(-0.0331009 -0.0456072 2.11425e-17)
(-0.0040365 -0.000330865 -2.08075e-18)
(0.000706776 -0.000358864 -7.14609e-19)
(0.00278406 0.000228289 9.76744e-18)
(0.00588749 0.00535102 7.29033e-18)
(-0.00358911 0.00179583 6.22813e-19)
(0.0229557 0.00602544 2.25527e-17)
(0.0073008 0.00381209 -1.22779e-18)
(0.0208032 -0.0135877 -1.80725e-17)
(-0.00141556 -0.00396706 -1.88647e-18)
(-0.0093311 0.00423639 -7.89448e-18)
(-0.000455168 -8.20612e-05 -4.35114e-19)
(-0.00442133 -0.00268317 -2.01613e-18)
(-0.000707515 0.00135438 1.72767e-18)
(0.00530711 -0.00599706 -7.97811e-18)
(0.00144319 5.64599e-05 2.12335e-18)
(-0.00574717 -0.00726634 -4.47425e-18)
(-0.00919551 -0.00158719 -6.26683e-18)
(-4.19459e-06 -3.69954e-05 -1.87287e-19)
(-0.000678234 -0.000699445 9.01426e-19)
(0.149574 -0.0393786 -1.82084e-17)
(-0.0140179 -0.0186834 6.65815e-18)
(0.000850661 -0.000944519 -4.05358e-20)
(0.00042709 0.000132415 2.33867e-18)
(0.00366695 -0.000185612 4.70479e-18)
(0.102641 -0.0655697 6.95594e-19)
(0.000262256 -0.0167001 -1.26951e-17)
(0.0147889 -0.0206326 -3.09238e-17)
(0.000514625 3.16889e-05 -2.81934e-18)
(0.00175763 3.82085e-05 1.32313e-19)
(-0.000360344 -0.000306087 -2.03896e-18)
(-0.00149923 -0.000480296 8.52734e-19)
(-0.00452473 -0.0441841 -1.76759e-17)
(0.000473976 -0.000206442 6.30218e-19)
(-0.000944949 9.045e-05 1.46523e-18)
(0.000524258 -0.000346312 -1.1123e-18)
(0.00068192 0.000464697 5.79253e-18)
(-0.0145243 -0.00601705 8.21822e-18)
(0.00286625 0.00116696 -1.32172e-18)
(0.0157177 -0.00514398 -1.40503e-17)
(0.119466 -0.00294829 -7.83115e-17)
(0.00256438 0.00142001 -1.52677e-17)
(0.171367 -0.00554679 -4.88275e-18)
(-0.00163694 -0.000371517 -3.94872e-18)
(-0.00572829 -0.00256617 1.43858e-18)
(-0.000773508 0.000458383 -1.72481e-18)
(-0.0194265 0.000167552 9.66641e-18)
(0.0143772 -0.0152068 9.1617e-18)
(0.0221281 -0.0300772 7.08586e-18)
(-0.00750795 0.0181142 2.22836e-17)
(0.0028287 8.76223e-05 -5.99723e-20)
(-0.00418014 -0.000158503 1.31325e-18)
(0.000330572 -0.000187945 -2.33304e-18)
(0.00342256 0.000621246 7.97938e-18)
(-0.00684705 -0.00757496 -2.67681e-19)
(0.00020856 0.000143777 3.01122e-19)
(0.00621414 -0.00471168 -1.70332e-18)
(0.00102266 3.50175e-06 5.56994e-19)
(0.00219809 2.65286e-05 7.51541e-20)
(0.00146481 0.000108786 -3.41433e-18)
(0.0163688 -0.00518366 8.73569e-18)
(-0.000656867 6.11408e-05 -2.71554e-18)
(-0.000572789 -0.00352445 1.50066e-19)
(0.000897672 0.00041813 6.92416e-18)
(0.00299181 0.00106638 1.27264e-18)
(4.6859e-05 0.0036014 2.27478e-17)
(-0.00096014 -0.000343896 4.48499e-18)
(-0.00193465 0.000471807 -2.36641e-18)
(0.00111097 -5.15743e-05 1.19547e-18)
(-0.000109595 -0.000519898 -3.67247e-19)
(0.00908019 -0.00605006 2.89538e-18)
(-0.00713335 -0.0274116 -1.3205e-17)
(0.00748717 0.0031116 -5.4458e-18)
(0.0440756 -0.0269884 4.11976e-17)
(-0.0141554 -0.00665733 -1.97727e-17)
(-0.00033625 -0.00638387 -4.09474e-18)
(0.000934544 0.000476667 -4.95633e-19)
(0.00226387 3.53351e-05 -5.61254e-19)
(-0.00109184 -0.00174387 -4.73134e-18)
(0.000427214 4.08418e-05 -1.14361e-19)
(-0.00852681 -0.0367624 -2.02288e-17)
(0.00132862 6.84267e-05 -5.66036e-18)
(0.000509964 -0.00129145 4.29444e-19)
(-0.0415765 -0.0206678 8.76141e-19)
(0.000371036 -0.000335686 -1.08468e-18)
(0.00383607 0.000411228 3.80879e-18)
(0.00182648 0.00102626 1.22005e-17)
(-0.0423572 -0.023407 -1.303e-17)
(-0.000850858 3.95295e-05 -3.49506e-18)
(0.00344339 0.00215333 -1.57418e-17)
(0.0108066 -0.00262481 4.91493e-18)
(0.00615243 -0.00436389 -5.3528e-18)
(0.00156003 -0.0024226 -2.58205e-18)
(0.000702315 -0.000296863 -1.46953e-18)
(0.143217 -0.0133333 2.44217e-17)
(0.00977732 -0.0119759 -4.88838e-18)
(-0.00242252 -0.000780872 -4.12854e-18)
(0.00850958 -0.00631183 1.16592e-17)
(0.00208252 -0.000310191 5.71176e-18)
(0.0012061 -0.000340807 -2.59896e-18)
(0.0015576 -0.000317269 -5.10888e-18)
(0.00371003 0.000477549 1.68021e-17)
(0.0268872 -0.0239763 -4.76487e-17)
(-0.00601736 0.00165125 -6.1641e-18)
(0.000520305 0.000114495 1.57472e-18)
(0.00214613 0.00137633 -8.35269e-19)
(6.42924e-08 1.09431e-05 2.50754e-18)
(-0.000664148 0.000118407 -2.76361e-19)
(0.00860656 0.0134011 4.18139e-18)
(0.000820658 -0.00031282 1.37647e-18)
(-0.0013937 -1.87374e-05 8.76027e-19)
(-0.00953936 0.00253579 -5.69769e-17)
(0.00103459 -0.000233263 8.91345e-19)
(0.191913 -0.0209827 6.36639e-17)
(-0.0117719 -0.0383647 -2.34018e-17)
(0.0031361 0.00555164 -6.97805e-18)
(0.0839239 -0.0769914 -4.33124e-17)
(-0.0111154 -0.00302285 -3.40608e-17)
(0.00522549 -0.00126922 1.82426e-20)
(0.012199 0.0121298 7.52493e-18)
(-0.00149706 0.00049084 3.66955e-19)
(-0.0260667 -0.00484343 -7.68812e-18)
(-2.77406e-07 4.15041e-05 -5.97195e-18)
(0.00165868 0.000780914 1.98881e-18)
(0.0222409 -0.030454 -5.16497e-18)
(0.000375531 7.39836e-05 4.8849e-18)
(0.00344089 0.000699347 5.38302e-18)
(0.0117876 0.0309689 -2.81806e-17)
(0.00179292 1.43373e-05 -2.27949e-19)
(-0.00218446 -0.000254522 6.02228e-19)
(0.00424685 0.00885932 -7.85432e-18)
(0.0165789 0.0222198 -9.11384e-18)
(2.38716e-05 -0.00127034 -7.94464e-20)
(0.000314154 0.000424089 -2.54798e-18)
(-0.00747172 0.00120578 1.39897e-16)
(0.0154064 -0.0148302 -1.60091e-17)
(0.00249854 -0.000318027 2.09879e-18)
(0.00551224 0.011086 -1.98229e-17)
(-0.00832756 -0.00164377 -6.56269e-17)
(-9.44636e-05 -0.000178806 1.2105e-18)
(0.00056764 8.37883e-05 8.49068e-19)
(-0.000421996 -9.74878e-06 -7.34683e-20)
(-0.000776056 -0.000372672 -3.17342e-18)
(0.00143701 2.61073e-05 2.32041e-19)
(0.000335709 -2.25244e-05 1.02812e-20)
(0.175878 -0.00723331 -2.15419e-17)
(0.154413 -0.0237447 -2.81679e-17)
(0.00174133 0.000816391 -5.67421e-18)
(0.129529 -0.0067223 -1.75759e-17)
(0.00108047 2.74404e-05 -1.49261e-19)
(0.000408557 -0.000236215 -3.51739e-18)
(0.0284402 -0.0172225 -7.5069e-17)
(-0.000541114 -0.000509008 -1.03075e-18)
(0.186638 -0.0217416 6.5931e-18)
(0.000493751 -0.0174288 -8.7189e-18)
(0.00153434 0.00112454 -1.91928e-17)
(0.000755814 8.33021e-05 -6.93486e-19)
(0.000838958 0.000390668 2.0333e-18)
(0.0200764 0.00172686 5.00191e-18)
(-0.00306707 0.00137265 5.51166e-19)
(0.00536286 -0.000996253 1.5524e-19)
(0.00179554 -3.21687e-05 -7.60783e-19)
(-0.00965223 -0.00121609 -5.9269e-17)
(0.000600202 0.00161719 1.55289e-17)
(0.0477369 -0.0258401 -2.04251e-17)
(0.00213315 0.00138978 -4.11261e-19)
(0.00117166 -0.000291454 -7.99747e-19)
(-0.000121329 -0.000296609 3.22975e-18)
(0.0312485 -0.0048142 -4.12112e-17)
(0.00101829 -0.00027036 2.05119e-18)
(0.0010142 0.00363042 -1.1112e-17)
(0.000268873 -0.000201284 4.2072e-18)
(-0.00142959 2.51087e-05 2.05208e-18)
(-0.00790456 -0.000139484 1.77091e-16)
(-0.00396651 -0.00517057 1.46953e-17)
(-0.000591635 -0.000241881 6.51317e-19)
(0.00167993 -1.43721e-06 -1.21782e-19)
(-0.0129897 0.00228641 -5.87451e-17)
(-0.000633574 -0.000371588 -1.52351e-20)
(-0.00386208 -0.00549108 -6.65026e-18)
(0.00134721 -0.00189433 -1.67408e-19)
(-0.000921015 -0.000102037 1.91347e-20)
(0.139169 -0.00890574 8.22821e-18)
(0.0883847 -0.0715849 1.01714e-17)
(-0.000342432 -0.000280954 -1.22346e-18)
(0.000238678 0.00103591 -8.49149e-18)
(-0.00656669 0.00135772 1.74072e-18)
(4.75276e-05 3.25081e-05 9.81847e-20)
(-0.00108587 -0.000140086 -3.11562e-18)
(-0.000305572 -0.000165105 -1.20506e-19)
(-0.0141612 0.00201661 -1.75561e-17)
(-0.000175237 -7.51759e-05 -1.8847e-18)
(0.000922843 1.50731e-05 -3.93619e-20)
(0.00515396 0.000782516 -1.84149e-18)
(0.115784 -0.0303718 -1.89514e-17)
(0.00689624 -0.0144336 2.0394e-17)
(0.000541303 4.58269e-05 -4.13924e-18)
(0.00446056 -0.00592615 1.85008e-18)
(-0.00455069 0.000333143 2.88813e-17)
(-0.0154966 -0.00636125 -6.28897e-18)
(-0.000521659 -0.00018939 1.94379e-18)
(0.00070451 -0.000296935 -6.64325e-19)
(0.00131803 -0.0321539 1.92937e-17)
(-0.00195313 -0.000733526 -2.97442e-18)
(0.000568011 -0.000277806 1.38548e-18)
(0.00356679 0.00409047 1.92403e-17)
(-0.0010175 -0.000522535 1.65016e-19)
(0.00106441 -2.47313e-05 -6.9516e-21)
(0.000876578 0.00196016 -5.12462e-18)
(0.000834552 7.54171e-05 -4.15218e-19)
(0.00844324 0.00210329 1.07015e-17)
(0.00128461 -0.00028366 -2.6841e-18)
(0.00107388 -0.000266502 -4.3052e-18)
(-0.0155915 -0.000377517 -9.03872e-17)
(0.00172412 -5.24161e-05 8.45142e-19)
(-0.0025445 0.00142058 -8.40219e-18)
(0.00104587 6.93888e-05 1.1293e-18)
(0.0021719 -4.8289e-05 6.05017e-18)
(0.00580056 -0.00505625 3.42619e-19)
(-0.000638805 -0.000276864 2.00335e-18)
(-0.00061659 -0.000491877 9.97152e-19)
(0.0206042 -0.0270763 7.46509e-17)
(0.00177806 -0.000290328 -9.91856e-19)
(0.125276 -0.0148271 5.04355e-17)
(-0.00234007 -0.00245178 3.1075e-19)
(0.000245936 1.86534e-05 -1.50445e-18)
(-1.84019e-05 1.57653e-05 -1.73177e-18)
(0.0180509 -0.0134012 1.42002e-18)
(0.00220812 3.02214e-05 3.92972e-18)
(-0.000117465 -0.000237624 -2.69243e-18)
(-0.00026525 -4.57049e-05 1.73758e-18)
(-0.00317972 -0.00064815 4.30315e-18)
(0.00452667 0.00207764 3.80132e-18)
(0.149781 -0.0245277 1.16923e-17)
(0.000152485 -0.000365618 -3.80967e-18)
(0.00821153 0.00234374 -1.03509e-17)
(0.0150734 0.0239824 9.46413e-18)
(-0.0160091 -0.00572097 -1.40739e-18)
(0.000661175 7.3865e-05 9.81183e-19)
(-0.000303918 -0.000177074 -2.88072e-18)
(-0.000892806 0.000453263 1.04196e-19)
(0.000471089 0.000236805 -5.69571e-20)
(-0.00129824 -0.000387752 -5.47191e-18)
(0.0107358 0.0270759 -5.34823e-18)
(-0.0136624 0.00211092 -8.75151e-17)
(0.000384299 0.000113979 6.64045e-19)
(-0.000835995 -0.00695969 9.93902e-18)
(-0.010973 -0.00238941 1.78035e-18)
(-0.0110031 -0.00227327 -5.76427e-18)
(0.000647874 0.000868218 -4.49874e-18)
(0.00147307 1.81967e-05 -2.30348e-19)
(0.00241161 -0.044782 1.23272e-17)
(0.0199952 0.000857371 -1.09844e-17)
(0.0145024 0.023902 5.02995e-19)
(-0.000216775 7.54064e-05 5.28048e-19)
(-0.00115215 0.000347657 1.88764e-18)
(-0.00031143 -0.000487423 2.89123e-19)
(0.00167687 -0.000242892 -2.46066e-18)
(0.0147447 -0.00618695 3.27671e-18)
(0.00537099 -0.00691126 -5.67205e-18)
(-0.00305992 -0.000784261 3.53316e-19)
(-0.00107826 -0.000672462 9.35794e-20)
(0.00134486 -1.51291e-05 -9.35306e-19)
(0.000823785 0.000639312 8.13009e-18)
(0.0416257 -0.041437 -2.97959e-17)
(-0.00425185 -0.00518706 4.40451e-18)
(0.000250753 0.000502895 5.04984e-18)
(-0.0160414 0.00131521 3.7602e-18)
(0.0160586 0.0209721 -5.76652e-19)
(0.0226679 0.00988783 -8.73028e-18)
(0.0120968 -0.003482 2.0031e-18)
(-0.00107578 -9.84715e-05 3.45098e-19)
(-0.00138462 -0.0006069 -6.97165e-19)
(-0.0317928 9.95975e-05 -4.98409e-18)
(0.00836968 -0.0113836 -4.28776e-18)
(0.0213412 0.0144605 4.35873e-18)
(-0.00322928 -0.00548921 4.26579e-18)
(0.00294947 0.00220155 -6.3755e-18)
(0.000895343 0.00364532 8.04159e-18)
(0.000735774 0.000178273 2.84636e-18)
(-0.00105468 -0.00339949 -4.23572e-18)
(0.000779543 0.00103594 4.42224e-18)
(0.0010011 0.000194785 -3.41752e-18)
(-0.0124261 -0.00114091 4.60081e-17)
(0.00237066 2.76679e-05 -1.56287e-20)
(-0.00160619 -0.000380391 -1.87196e-18)
(-0.0172783 -0.0157018 -1.4711e-17)
(-0.000132642 0.000230825 -1.66975e-18)
(-0.00884776 -0.0450002 -1.85726e-17)
(-0.00231468 -0.00227674 2.6246e-18)
(-0.0108434 -0.0331115 -3.91661e-18)
(0.00561961 -0.00213746 -3.59342e-19)
(-0.000333411 0.000255505 -2.12253e-18)
(-0.00413385 -0.00106034 1.00041e-18)
(9.98219e-05 -0.00571477 -4.9945e-18)
(-0.0220469 0.00521262 3.09709e-19)
(0.0117912 -0.00388683 -3.32798e-18)
(0.0143331 0.00539549 -1.10545e-18)
(0.00135166 7.55692e-05 6.96169e-18)
(-0.0263245 -0.00192296 1.27647e-17)
(0.00143407 -0.00212939 -3.68402e-19)
(-4.46796e-05 -0.00048466 -4.66428e-19)
(0.00128041 0.000118889 2.43349e-18)
(-0.000627203 -0.00179179 5.03888e-18)
(-0.000580971 0.000119362 4.64831e-18)
(0.0031116 0.00226956 1.22477e-17)
(0.00622529 -0.014669 -1.93812e-17)
(0.00532199 0.00673778 6.02558e-18)
(0.000609763 0.000500908 8.66139e-18)
(0.0018695 -0.000282993 7.31877e-18)
(0.000201422 -4.31917e-05 -1.6411e-18)
(0.000557651 -0.000222579 6.18293e-19)
(0.0114292 0.0120884 -9.88566e-18)
(-0.000264305 -0.000200774 -6.12213e-19)
(0.00150472 -0.00162863 -3.52268e-20)
(-0.0189821 -0.0401732 3.32441e-17)
(0.000430702 7.59755e-05 -9.05072e-20)
(0.00905529 -0.0111217 1.06798e-18)
(-0.0412174 -0.00311335 4.24364e-18)
(0.000196134 0.000108898 3.67676e-18)
(-7.29564e-05 0.00388516 -5.20288e-17)
(-0.00757938 -0.0128275 1.33685e-17)
(-0.000871821 0.000264943 -4.66231e-18)
(0.00752601 -0.0298496 2.07247e-17)
(-0.000417666 -0.00076167 -8.70463e-19)
(0.000661928 5.08179e-05 7.33998e-19)
(0.000356573 0.000405819 -6.1957e-19)
(-0.000654146 -0.000148075 2.8419e-18)
(-9.03982e-07 2.82962e-05 -4.49558e-18)
(-0.000324571 -0.00380009 -2.47828e-19)
(0.0006418 0.000645414 -9.98068e-18)
(0.0172359 0.0189192 -1.133e-18)
(0.00215273 0.000408962 -1.21988e-18)
(-0.000592275 -0.000219283 1.29047e-18)
(-0.000251529 -0.00137366 1.58839e-18)
(0.00593004 -0.00537196 -1.07387e-17)
(-0.00451619 -0.00959837 8.50582e-18)
(-0.000457149 -0.000143302 8.70412e-18)
(-0.00620359 -0.00147667 4.40363e-18)
(-0.00135567 -0.000582042 -8.54529e-19)
(-0.0121026 -0.00656677 1.00715e-17)
(3.57232e-05 0.000240945 -1.23633e-17)
(0.0060671 -0.00182655 2.34758e-19)
(-0.00162452 -3.16477e-05 -1.96524e-19)
(0.000632843 0.0021924 -2.06873e-18)
(0.000704686 0.00030179 -3.49021e-19)
(0.00143708 -0.000343054 -2.47483e-19)
(0.134746 -0.00460917 -1.03764e-18)
(-0.000466459 -2.63754e-05 3.33266e-19)
(0.0109711 0.01154 1.13324e-17)
(-0.000254357 -0.000179808 6.88322e-18)
(-0.00421656 -0.000719277 -2.93408e-18)
(0.000795774 -3.51422e-05 1.26406e-18)
(-0.00794075 -0.00898117 -5.40809e-18)
(0.0010105 0.000103215 -1.46856e-18)
(-0.00720272 -0.0135141 -1.31707e-17)
(0.000280197 -0.000977061 3.76411e-20)
(0.00738973 -0.0292113 3.39492e-18)
(-0.000259123 0.000154848 1.41237e-18)
(0.148745 -0.0344987 -1.39195e-17)
(-0.000189797 0.000569554 -4.67578e-19)
(0.00285937 0.0011057 -1.21594e-18)
(-0.00117479 0.000143161 -4.7574e-18)
(0.000979389 0.000533902 3.9076e-18)
(0.0018352 -0.000284759 -3.95708e-19)
(-0.00020712 -0.00376503 -6.7154e-19)
(-0.000430123 0.000115092 1.74512e-18)
(0.0060138 0.0138518 -3.58005e-17)
(0.000136255 0.00919217 2.52823e-17)
(-0.011764 -0.0443205 -1.91592e-19)
(-0.00428412 -0.0031129 5.52873e-18)
(0.00751488 0.00279379 -8.84034e-20)
(0.000579896 -0.000258135 -9.69773e-19)
(0.00865459 0.00104082 1.17764e-17)
(-0.0159956 -0.0174739 2.35676e-18)
(0.000738437 -0.000102779 1.41014e-18)
(0.00349127 0.00383512 -2.4109e-18)
(0.0145519 0.00609442 2.67487e-18)
(0.0261754 0.0136133 -1.90413e-18)
(-0.0417944 -0.000889232 1.75415e-18)
(0.0522106 -0.0136975 4.85074e-17)
(-6.27673e-07 -0.00610316 4.73603e-18)
(0.00103566 -0.000106451 8.88783e-19)
(0.000175653 0.000170569 5.01362e-18)
(-0.0057416 -0.00225379 -3.94407e-18)
(-0.000907855 -0.00392001 2.67881e-18)
(-0.0210461 0.00438064 3.89738e-18)
(0.00343267 8.49266e-05 2.23113e-20)
(0.00155981 -0.00260876 -1.56294e-19)
(0.00179666 -0.0261671 -1.74053e-17)
(0.000176431 1.54202e-05 7.54351e-19)
(0.00025211 -0.000215924 -1.43785e-17)
(-0.00648828 -0.00155945 -3.83665e-18)
(0.0657103 0.00229406 -4.16615e-17)
(0.0028499 0.00100853 1.56072e-18)
(0.00406456 -0.00545382 2.60167e-18)
(-0.0326035 0.00226071 6.98487e-18)
(0.000372586 0.000226796 1.44271e-18)
(0.127913 -0.0287649 6.57113e-18)
(0.00180944 8.31821e-05 -4.5955e-20)
(0.00136537 -0.000309086 -2.35932e-18)
(0.00139974 -0.000471216 1.2321e-18)
(-0.00099635 -0.000576888 -3.94814e-19)
(-0.0184582 0.000509517 2.16786e-17)
(-0.0195899 -0.0191092 5.61773e-18)
(0.0482764 0.0048563 4.2483e-17)
(0.000411714 -1.85453e-06 -5.87312e-19)
(0.0392406 -0.00829628 3.33964e-17)
(0.0020673 0.00649864 1.69711e-17)
(-0.00736939 -0.0376938 2.08158e-17)
(-0.0204236 0.00361506 -3.60809e-18)
(-0.0156167 -0.0203481 2.89147e-18)
(0.0045027 -0.0278391 -2.62199e-18)
(0.00918714 -0.000752487 6.90248e-19)
(0.00132825 0.000428179 -1.07645e-17)
(-0.000227009 -0.000184814 -4.59505e-18)
(0.00378636 0.00423759 -8.14252e-18)
(-0.0195824 3.74544e-05 -2.35495e-17)
(0.00062344 -0.000282816 1.21039e-18)
(0.00550644 0.000956588 2.01681e-18)
(0.107463 -0.00463556 -2.34464e-17)
(0.00156222 -0.000283079 -4.3397e-18)
(0.00130102 -0.000370678 -9.71747e-19)
(0.000179607 -0.000525313 1.66736e-18)
(0.00251324 0.000198369 -2.08349e-18)
(0.00172754 -0.000288892 -7.15447e-19)
(-0.000969049 0.00017085 -3.2274e-18)
(0.0180751 -0.0123093 -3.98305e-17)
(0.0699064 -0.0252373 1.13594e-17)
(-0.00112791 0.000156608 -2.21544e-18)
(0.00160302 -0.000159317 -1.64689e-18)
(-0.0122917 -0.000985571 1.63528e-17)
(0.0655234 -0.0158931 -2.57246e-17)
(0.000523527 -0.000305922 -6.47585e-20)
(-0.000551417 -0.000203741 1.92978e-19)
(0.000431411 4.11031e-05 -4.77345e-19)
(-0.000627153 -0.000360313 2.92231e-18)
(0.0296388 -0.0168222 4.00041e-17)
(-0.0209996 -0.0186258 1.27739e-17)
(0.0218268 0.00776668 1.16323e-17)
(0.00170447 0.000324926 4.50478e-19)
(0.00181741 -0.000376617 -1.82357e-18)
(-0.00175227 -0.000275058 -4.74854e-19)
(0.00043649 0.00202428 5.63259e-18)
(-8.62467e-05 0.000171542 -2.65415e-18)
(-0.00969254 -0.00805653 2.75968e-17)
(0.00199397 0.00126667 1.34863e-19)
(0.104771 -0.00329615 7.62531e-17)
(-0.00011997 -0.000122644 1.90386e-18)
(0.00171458 4.40392e-05 -5.21644e-18)
(0.00917601 -0.0037262 -9.98495e-18)
(-0.000562713 -0.000312077 -1.63722e-19)
(-0.0165815 -0.000832052 -4.93428e-18)
(0.0106654 0.00730868 2.08087e-17)
(-0.00395027 -0.000996788 -8.79921e-18)
(0.0106962 0.010978 -1.51179e-18)
(0.0404717 0.00906412 2.09796e-17)
(0.00133908 -4.35638e-05 8.53379e-19)
(-0.00130634 -0.000378342 1.379e-18)
(0.165325 -0.0048679 3.22549e-17)
(-0.0164038 0.00040582 3.22733e-17)
(0.00771318 -6.05578e-05 -5.65755e-18)
(-9.80079e-05 -0.000701153 4.0353e-20)
(0.113431 -0.0224638 1.95946e-17)
(0.0116427 0.0139808 3.75254e-17)
(0.00142636 0.00338257 2.24601e-17)
(0.00130198 0.000366676 1.01569e-17)
(0.00135623 -4.17033e-05 -1.60637e-18)
(-0.000906798 -0.000219106 1.10376e-18)
(0.024202 0.00537767 -2.20403e-17)
(-0.00413396 -0.00310266 -6.40324e-18)
(0.00965054 0.0110467 1.36555e-17)
(0.000436322 5.66371e-05 -1.64363e-18)
(0.00154471 0.00194819 -4.30709e-17)
(0.0273341 -0.0244438 -3.03082e-17)
(-0.000582189 -0.000173635 2.94775e-18)
(0.00056085 -0.000172108 5.73563e-18)
(0.00595295 0.0134745 -4.87002e-17)
(-0.00216519 0.000463844 1.25497e-17)
(0.000853566 -1.93946e-05 8.53646e-19)
(0.00391693 -0.000702701 -3.57305e-18)
(0.00488334 -0.00460642 -1.77443e-17)
(0.0348834 0.0149147 2.2833e-17)
(0.139071 -0.00701212 -2.68191e-17)
(-0.00228202 0.00123957 4.00093e-18)
(-0.00966585 -0.0187296 -8.43447e-18)
(0.00868227 -0.000938495 -6.52182e-19)
(0.00076305 6.02795e-05 -5.42917e-19)
(0.000812107 -1.43561e-05 1.15903e-18)
(-0.00108441 0.000454531 -3.00837e-18)
(0.0241741 0.00415663 3.69388e-17)
(0.000523075 0.000147178 9.22415e-19)
(-0.000226914 -0.000229802 -2.48105e-20)
(-0.0106637 -0.0184458 1.05075e-17)
(0.000525313 0.000623761 -5.93464e-18)
(0.00834293 -0.0140804 2.22608e-18)
(-5.3537e-05 3.09421e-05 2.05221e-19)
(-0.00240171 0.000412462 -3.39549e-18)
(0.00103051 2.17501e-06 3.31039e-20)
(0.000627336 0.000514044 2.55676e-18)
(-7.83064e-05 -0.0322809 -1.1827e-17)
(-4.31552e-05 0.000160444 3.67633e-19)
(0.00026133 -0.000191438 -5.39752e-19)
(-0.00443618 -0.0129529 1.24539e-17)
(0.0109946 0.00442166 1.35522e-18)
(0.0163902 0.0158278 1.2886e-17)
(-0.000933316 0.000248843 -2.67804e-18)
(0.006475 -0.020108 9.587e-18)
(0.0531466 -0.014965 -1.30753e-17)
(0.1288 -0.0160037 -6.32135e-17)
(0.00183046 0.0012493 2.39358e-17)