/*--------------------------------*- C++ -*----------------------------------*\
| =========                 |                                                 |
| \\      /  F ield         | OpenFOAM: The Open Source CFD Toolbox           |
|  \\    /   O peration     | Version:  v2012                                 |
|   \\  /    A nd           | Website:  www.openfoam.com                      |
|    \\/     M anipulation  |                                                 |
\*---------------------------------------------------------------------------*/
FoamFile
{
    version     2.0;
    format      ascii;
    class       surfaceVectorField;
    location    "250";
    object      ddtCorrDdt0(Uf);
}
// * * * * * * * * * * * * * * * * * * * * * * * * * * * * * * * * * * * * * //

dimensions      [0 1 -2 0 0 0 0];


internalField   nonuniform List<vector> 
14907
(
(0.000265134 -0.000372929 -2.24781e-19)
(0.000274762 -0.000376032 4.4958e-19)
(0.000273929 -0.000360253 -1.83201e-18)
(0.00017004 0.000120449 2.47282e-18)
(0.000172764 8.36433e-05 5.39792e-19)
(0.000179554 8.24546e-05 1.15555e-18)
(-0.00141004 -0.000651496 1.08756e-18)
(-0.00146983 -0.000705489 2.69839e-18)
(-0.00149011 -0.000631935 6.71948e-19)
(-9.61753e-05 5.04321e-06 -7.43293e-21)
(-0.000101106 4.97739e-06 6.10362e-19)
(0.111982 -0.00921347 9.45408e-17)
(0.109172 -0.00830019 -8.48949e-18)
(0.117801 -0.009057 2.20991e-17)
(0.000161501 0.000154375 8.02685e-19)
(0.000152004 0.000198095 2.15789e-18)
(0.000153267 0.000169143 1.54482e-18)
(0.14028 -0.0321465 5.91298e-18)
(0.135441 -0.0296734 2.22655e-19)
(0.152176 -0.0293443 -6.82826e-18)
(0.099341 -0.03226 3.96693e-17)
(0.0905825 -0.0314876 5.66911e-18)
(0.141722 -0.0218639 3.81461e-17)
(-0.000961388 -0.000402509 -1.40199e-19)
(-0.000927301 -0.000424854 5.91665e-19)
(-0.000906759 -0.000370129 -6.42288e-19)
(0.000125437 -0.000106129 -9.49787e-19)
(0.000125837 -0.000115549 -5.18049e-19)
(0.000120349 -0.000132349 1.32677e-18)
(-0.0109381 -0.000998882 -1.58322e-17)
(-0.013921 -0.000527837 -3.23764e-17)
(-0.0118653 -0.000719689 2.41792e-17)
(-7.47456e-05 1.23887e-05 9.19948e-20)
(-9.32779e-05 6.41689e-06 2.2381e-19)
(-8.6738e-05 4.70402e-05 1.86436e-21)
(-8.94242e-05 4.52517e-05 -1.79313e-19)
(-9.85665e-05 4.51483e-05 4.25416e-20)
(-5.58912e-05 3.00054e-05 -3.92006e-19)
(-5.23757e-05 2.68377e-05 -1.80131e-19)
(-6.1013e-05 2.76097e-05 -9.68815e-21)
(0.00222379 0.00149264 -1.1671e-17)
(0.00209309 0.00140941 -9.37786e-18)
(0.00207971 0.00158439 -8.8016e-19)
(0.000194845 -3.03762e-05 1.7438e-18)
(0.000189487 6.19896e-06 5.12116e-19)
(0.00019367 -7.75263e-06 1.34498e-18)
(0.000194852 -7.68745e-05 1.865e-19)
(0.000198261 -6.49609e-05 -5.09406e-19)
(4.80566e-06 4.27243e-05 2.21998e-20)
(5.03837e-06 4.488e-05 4.93656e-19)
(7.79889e-06 5.70454e-05 4.53853e-19)
(0.000262549 -0.000365048 4.19315e-18)
(0.00026039 -0.00037105 -7.93936e-19)
(0.00688026 0.0136151 -7.22711e-18)
(0.00804199 0.0134323 -3.11535e-18)
(0.00745714 0.0128195 2.61475e-17)
(2.04718e-05 -0.000229579 5.23446e-19)
(2.34027e-05 -0.000240719 9.52573e-19)
(1.03302e-05 -0.000238243 2.02752e-18)
(-0.0278488 -0.0432468 -4.69939e-18)
(-0.020459 -0.0405608 7.13517e-18)
(-0.0224317 -0.0418885 -1.69807e-17)
(-6.50212e-05 1.75679e-05 4.90551e-20)
(-5.98144e-05 1.89297e-05 1.197e-19)
(-5.12142e-05 1.83053e-05 8.10735e-20)
(-0.000148964 6.33373e-05 -4.73398e-20)
(-0.000150865 6.56132e-05 2.86315e-20)
(-0.000143084 6.32831e-05 4.79749e-20)
(0.000165452 0.000152407 -1.25811e-18)
(0.000162417 0.00015546 2.93534e-18)
(-0.00548402 -0.00722196 -1.60299e-18)
(-0.00588652 -0.00742459 5.22661e-19)
(-0.00577277 -0.0069279 3.84473e-18)
(6.66543e-05 0.000470914 -2.62239e-18)
(5.92613e-05 0.000506209 1.08474e-18)
(5.00461e-05 0.000493185 -1.76478e-18)
(0.00193932 -0.000157855 -1.64677e-18)
(0.00191302 -5.849e-05 1.31952e-19)
(0.0018406 -0.000139348 -3.37537e-18)
(-0.000245542 -0.000492728 -1.08014e-19)
(-0.000199702 -0.000490144 -7.73343e-20)
(-0.000227473 -0.000447462 -6.13555e-21)
(0.00142873 -0.000370024 -6.87716e-19)
(0.0014328 -0.000455406 8.05387e-19)
(0.00153455 -0.000400076 -5.01008e-19)
(0.000135838 5.47337e-05 1.53412e-18)
(0.000124612 4.24851e-05 2.6267e-18)
(0.000105389 6.6831e-05 4.79612e-19)
(-0.0069901 0.000355904 3.32645e-17)
(-0.00732919 0.000192153 -8.04695e-18)
(-0.00733809 0.00055156 -1.05047e-17)
(0.000123048 -9.99849e-05 6.16061e-19)
(0.000126416 -7.70435e-05 1.49011e-18)
(0.000726385 -0.0011806 -1.11877e-19)
(0.000827002 -0.00124803 -6.04783e-20)
(0.000806154 -0.00111576 2.408e-19)
(-4.46897e-06 -0.00561875 -1.46776e-18)
(-0.000314786 -0.00564679 -3.89554e-19)
(-0.000170722 -0.00536825 5.96289e-18)
(-0.000147241 6.11832e-05 -2.53421e-20)
(-0.000154935 6.33002e-05 5.19939e-20)
(-0.00472974 -0.00676027 -2.51642e-18)
(-0.00510602 -0.00700599 1.37336e-18)
(-0.00503744 -0.00644877 -6.74111e-18)
(-0.0109961 -0.00754774 -9.28081e-18)
(-0.0107287 -0.00694811 -4.92889e-19)
(-0.0103437 -0.00745585 -1.02079e-17)
(-0.000146237 5.69671e-05 -2.66524e-19)
(-0.000139077 5.85467e-05 -3.32665e-20)
(0.00543961 -0.00127334 -3.03489e-19)
(0.00568991 -0.00141142 5.40236e-20)
(0.00559502 -0.00101666 -4.56342e-19)
(0.00678123 0.0140159 2.83107e-17)
(0.00626782 0.0137857 -2.00042e-17)
(0.0020046 0.00110914 -9.07138e-18)
(0.00211599 0.00118754 2.35082e-18)
(0.00210668 0.00105287 -8.43991e-19)
(0.142875 -0.0341437 3.04983e-18)
(0.127679 -0.0346361 -9.19023e-18)
(0.000904274 0.000135134 6.00096e-19)
(0.000962254 0.000105722 -4.97475e-19)
(0.000868965 6.139e-05 2.89492e-18)
(0.116679 -0.0103894 2.51434e-17)
(0.100773 -0.00765421 5.6228e-17)
(-0.0141285 -0.0182268 -1.2285e-18)
(-0.0149899 -0.0175528 -3.83377e-18)
(-0.0139751 -0.0169813 -2.17193e-18)
(0.00127105 0.000735384 -7.34392e-19)
(0.00134049 0.00074283 -2.97353e-18)
(0.00132015 0.000841029 -2.75288e-18)
(-0.0285542 -0.0251511 8.75979e-18)
(-0.0283616 -0.0233194 -1.50764e-19)
(-0.0301689 -0.0238174 1.21565e-17)
(-0.00297137 -0.00620048 -8.07348e-18)
(-0.00275695 -0.00649922 1.80398e-18)
(-0.00316735 -0.00645179 7.325e-19)
(-0.0250727 -0.00421763 -2.38809e-18)
(-0.0253316 -0.00264394 8.60452e-18)
(-0.0237361 -0.00318261 3.62442e-18)
(3.74292e-05 3.34058e-05 -3.96058e-19)
(4.12352e-05 3.7544e-05 8.02639e-19)
(4.35564e-05 3.16774e-05 8.40136e-19)
(-0.00225005 0.00244571 -1.16304e-18)
(-0.00246468 0.00249781 6.04201e-19)
(0.00159878 0.00153781 -8.40198e-18)
(0.00164769 0.00160991 -6.42541e-18)
(0.00154302 0.00158812 -5.72057e-18)
(-0.00409541 0.00225225 -3.78904e-18)
(-0.00406617 0.00194381 -2.30142e-18)
(-0.00439707 0.00215777 1.86449e-18)
(-0.00448944 -0.0071348 -3.00221e-18)
(-0.00439714 -0.00659418 1.27367e-18)
(0.000178844 0.000116467 -1.80061e-18)
(0.00016869 0.00013334 2.52676e-18)
(-0.000292827 -0.000493932 -5.45817e-20)
(-0.000260302 -0.000552628 -1.84067e-19)
(0.00121463 0.00076651 -1.37165e-19)
(0.00120171 0.000683972 -7.8937e-19)
(0.000650073 -0.00124281 2.48652e-19)
(0.000638951 -0.00112537 -1.06849e-20)
(0.00156123 0.0014319 -7.6014e-18)
(0.00168699 0.00147423 7.74372e-19)
(0.000147684 0.000106883 1.79218e-18)
(0.000138538 0.000148391 -2.89316e-19)
(0.000140426 0.000112274 -1.82422e-18)
(0.000187827 -0.000121633 -2.57099e-18)
(0.000191525 -0.000120433 -1.09784e-19)
(0.000183359 -8.28118e-05 4.60571e-18)
(0.000298386 -0.00562168 -3.32786e-18)
(0.000143495 -0.00592811 1.55806e-18)
(-0.00134428 -0.000588545 -6.69553e-19)
(-0.00132131 -0.000671993 -5.82046e-20)
(0.000618342 0.00117379 9.55678e-19)
(0.000643467 0.00123164 -5.03364e-18)
(0.000669773 0.00116209 1.59599e-18)
(0.000578644 -0.00130453 -2.27162e-19)
(0.000486289 -0.00125733 -2.1818e-19)
(0.000475734 -0.00138244 -1.09544e-18)
(0.00039526 0.000778074 3.85784e-18)
(0.000444584 0.000826121 1.91552e-18)
(0.000430742 0.000723986 9.296e-19)
(0.0063907 0.0113849 -1.59605e-17)
(0.00581299 0.0109928 -1.76999e-17)
(0.00641782 0.0105611 8.78664e-18)
(0.008859 -0.00293747 1.96207e-17)
(0.0141191 -0.0031221 9.28015e-18)
(0.0128072 -0.00426341 -7.73089e-19)
(0.000546312 -0.000179192 1.61663e-18)
(0.000581089 -0.000175475 2.2507e-19)
(0.000579939 -0.000155615 9.1037e-19)
(-0.0042104 0.00260341 -3.0943e-19)
(-0.00383211 0.0024314 -1.56434e-18)
(0.00717042 0.0146304 1.08481e-17)
(0.000945221 0.000183715 -1.43383e-18)
(0.000881062 0.000144964 -1.93925e-18)
(0.00290637 0.00554491 5.69174e-19)
(0.00270801 0.00547448 5.57952e-18)
(0.00265464 0.00572259 -2.21716e-17)
(0.000418464 0.000706156 -9.72677e-19)
(0.000368667 0.000634513 -1.60358e-18)
(0.000343349 0.000635608 5.86598e-19)
(-0.000153455 6.61021e-05 5.57003e-20)
(-0.000159221 6.78113e-05 -5.58477e-20)
(0.096948 -0.00812028 -4.3168e-17)
(0.108015 -0.0088483 -3.6357e-17)
(0.000256983 -0.000360419 4.71598e-18)
(0.000251428 -0.000352362 1.09269e-18)
(0.000251066 -0.000359431 1.24217e-18)
(0.00385094 0.00409471 -2.26749e-19)
(0.00359739 0.00412486 2.17598e-19)
(0.00375792 0.00389601 4.60892e-18)
(0.14187 -0.0249649 -1.35743e-17)
(0.130853 -0.0272104 -1.77448e-17)
(0.126117 -0.0245356 -1.18356e-17)
(-0.00273469 -0.00594915 -6.92962e-18)
(-0.00309375 -0.00598373 2.38416e-18)
(0.118015 -0.0110519 4.52596e-18)
(0.119787 -0.0106577 9.87294e-18)
(0.00076366 -0.000376758 -2.44443e-18)
(0.000754044 -0.000398694 -1.09801e-18)
(0.00078378 -0.000395667 -6.16987e-19)
(0.00183819 0.00103335 7.3019e-18)
(0.00174863 0.0010881 -8.89647e-18)
(0.00173888 0.000971541 1.50237e-18)
(0.000357796 0.000688233 1.03602e-18)
(0.000333128 0.000790634 -6.98957e-19)
(3.84587e-05 0.000215087 -1.4052e-19)
(4.14014e-05 0.000226755 -4.79083e-19)
(2.81317e-05 0.000201617 -5.16365e-18)
(0.000277882 -0.000375818 -1.2034e-18)
(0.000275589 -0.000367015 1.02181e-18)
(0.000297671 -0.000363887 2.73874e-18)
(0.0216563 -0.00901928 1.64279e-17)
(0.0207699 -0.00833149 -1.5113e-18)
(0.0207239 -0.00950966 6.80025e-18)
(0.000598778 0.000213257 3.15229e-18)
(0.000619977 0.000202845 2.95305e-18)
(0.000623873 0.000246873 -4.32008e-18)
(0.000290402 -0.000370608 -1.78178e-18)
(0.000276213 -0.000391786 -2.78413e-18)
(-0.000355478 -0.00154951 -1.01382e-19)
(-0.000437773 -0.00157517 -2.18301e-18)
(-0.0003913 -0.00147935 -1.82711e-18)
(0.118862 -0.0135712 1.06352e-17)
(0.11073 -0.00833902 2.15971e-17)
(0.00196219 -0.000246063 -1.07518e-18)
(0.00205131 -0.000166193 3.12835e-18)
(-0.00222544 0.00219231 4.32129e-19)
(0.00143043 -0.000280116 -7.66796e-19)
(0.00134708 -0.000332516 4.40677e-19)
(0.00020139 -0.000532191 1.12839e-18)
(0.000239724 -0.000504899 2.13502e-19)
(0.000239127 -0.00056297 1.77628e-19)
(0.000209766 -0.000387926 -2.59326e-18)
(0.000223572 -0.000387241 -8.52615e-19)
(0.000216876 -0.000369495 1.0192e-18)
(0.000378561 -0.000388862 3.83751e-19)
(0.000326024 -0.000372462 -1.36267e-18)
(0.000369792 -0.000355394 -1.1606e-18)
(0.00520711 -0.00110414 -2.14593e-18)
(0.0052472 -0.0014586 -5.93989e-19)
(-0.000521646 -0.000556347 2.28724e-19)
(-0.00054 -0.000623384 4.23957e-19)
(-0.000574069 -0.000560308 -4.37763e-19)
(9.29493e-08 1.31598e-05 -7.71274e-19)
(1.56495e-07 1.30524e-05 -9.61608e-19)
(0.0156903 -0.0135273 3.24116e-18)
(0.0160941 -0.0128625 1.60214e-17)
(0.0165213 -0.0137651 1.30129e-17)
(0.158205 -0.0236882 -4.01474e-18)
(0.179312 -0.0241156 1.78778e-17)
(0.145477 -0.0250911 9.50172e-18)
(4.72582e-05 0.000226743 1.09449e-18)
(3.85534e-05 0.000207106 -8.69969e-19)
(0.00180262 0.000203357 6.882e-19)
(0.00175491 0.000282774 -1.03776e-18)
(0.00170674 0.000200003 1.68607e-18)
(0.011666 -0.00257031 -3.22538e-18)
(0.0118339 -0.00311026 -5.58172e-18)
(0.0121682 -0.00254183 -5.57107e-18)
(0.000271543 -0.000310945 3.41681e-19)
(0.000281445 -0.00030246 1.11321e-18)
(0.000278346 -0.000317922 6.97227e-18)
(0.000208011 -0.000393176 -1.98481e-18)
(0.000208814 -0.000398556 1.56785e-18)
(3.01257e-05 -0.000218291 4.16402e-19)
(1.72804e-05 -0.000217364 -1.07153e-18)
(-0.000116189 0.000291091 1.73585e-19)
(-0.00010401 0.000270481 3.83839e-19)
(-0.000132679 -8.01192e-07 7.91162e-20)
(-0.000137479 -6.29438e-06 -2.7198e-19)
(-0.00013374 -2.95376e-06 2.9582e-19)
(0.000281955 -0.00028433 1.07437e-19)
(0.000290791 -0.000314999 -9.45968e-19)
(0.000320632 -0.000276641 -2.2514e-18)
(0.00268205 -0.00349901 -8.1117e-19)
(0.00280307 -0.00328742 -1.3209e-18)
(0.00256887 -0.00325073 1.08489e-18)
(0.00566513 -0.00167559 -6.09213e-18)
(0.00457201 -0.00375215 1.32152e-17)
(0.000567218 0.0011081 -1.03771e-19)
(0.000543487 0.00120456 5.33699e-18)
(0.000304442 -0.000299776 -5.97623e-19)
(0.000323019 -0.000288814 1.6299e-18)
(0.00033069 -0.000289311 -3.22678e-19)
(0.000118004 -0.000212873 2.55027e-18)
(0.000124576 -0.000198172 -5.14123e-18)
(0.000137178 -0.000207615 -1.16226e-18)
(0.000263454 -0.000356264 3.90683e-19)
(0.000161154 -0.000569422 6.21757e-19)
(0.000164964 -0.000509101 -2.32904e-19)
(0.00134945 0.00374036 2.03849e-17)
(-0.00431431 0.00301208 3.20133e-17)
(0.00210324 0.00354969 -1.73129e-17)
(0.000570624 0.000207906 -9.90182e-19)
(0.000571733 0.000160971 3.91396e-18)
(0.134028 -0.0293054 -1.13501e-18)
(0.0711274 -0.0356395 2.89646e-17)
(0.000991385 1.81411e-05 5.42464e-19)
(0.00100333 -2.15654e-05 1.83272e-18)
(0.000948673 -1.96885e-05 -5.30658e-18)
(7.3471e-05 -0.000136343 -7.83588e-19)
(8.30315e-05 -0.000138167 -4.56541e-18)
(7.60828e-05 -0.00011409 -2.95345e-18)
(0.0151803 -0.0143887 -1.30697e-17)
(0.0147252 -0.013454 1.02758e-19)
(0.00077621 -0.000330505 2.28767e-18)
(0.000818193 -0.000383458 -1.11834e-18)
(0.0929197 -0.0276644 -7.37574e-18)
(0.0327392 -0.0405908 -4.48497e-17)
(-0.000857801 -0.00692127 1.22827e-19)
(-0.00112047 -0.00699132 -3.75158e-19)
(-0.000934358 -0.00729251 1.6324e-17)
(0.0110999 -0.00252549 7.56244e-18)
(0.0114323 -0.00194504 4.02682e-18)
(0.000285742 -0.000362469 1.61231e-18)
(0.000309346 -0.000363194 1.02853e-19)
(0.000280019 -0.00039529 2.08941e-18)
(0.00389478 0.00434699 -5.71966e-18)
(0.00410191 0.00409471 4.06993e-18)
(0.000619742 0.000480126 -1.71057e-18)
(0.000665037 0.000502353 -4.36708e-18)
(0.000636962 0.000552181 5.61564e-18)
(-0.0106095 -0.00125233 2.22291e-17)
(-0.0119587 -0.00107097 3.0656e-17)
(-0.0129326 -0.000863693 -2.91756e-17)
(0.000886659 -0.0324827 2.19791e-17)
(0.000239404 -0.0324402 7.09022e-18)
(-0.000528901 -0.0339891 9.64506e-18)
(-0.000478018 -0.000590751 -3.31148e-19)
(-0.000464345 -0.000519413 2.68171e-19)
(0.0117722 -0.00839583 -8.27718e-18)
(0.0110995 -0.0082024 -2.98554e-18)
(0.0113243 -0.00884931 -1.50153e-17)
(-0.0104412 0.00247958 1.12113e-19)
(-0.0125988 0.00227188 -2.69639e-17)
(-0.0102224 0.00286649 3.81395e-17)
(-0.000338047 -0.00166991 1.63231e-18)
(-0.000263751 -0.00154839 1.71534e-18)
(-0.0291077 -0.0268858 6.99197e-18)
(-0.0269332 -0.0261663 -7.51113e-18)
(0.0224518 -0.00948849 1.4657e-17)
(0.0224822 -0.00830936 -5.557e-18)
(0.00187126 0.00044547 7.88867e-20)
(0.0018196 0.000511202 2.03579e-18)
(0.00193336 0.000542255 3.6382e-19)
(0.000112469 -0.000234378 5.37252e-18)
(8.82182e-05 -0.000212236 8.98907e-18)
(0.00157489 0.0005246 -7.15221e-19)
(0.00163004 0.000463405 -3.03561e-18)
(0.00152299 0.000437946 1.71587e-18)
(0.0145265 -0.0203369 -1.464e-17)
(0.0151594 -0.0196356 1.10189e-17)
(0.0141512 -0.0196384 -8.43679e-18)
(-0.00167568 0.00136686 -1.22419e-18)
(-0.00158176 0.00151128 -3.45571e-18)
(-0.00152639 0.00134116 2.37157e-19)
(0.000301684 -0.000286432 -6.05052e-19)
(0.000262803 -0.000281048 4.91804e-19)
(0.00914613 -0.0118175 9.08488e-19)
(0.00882311 -0.0114545 4.68949e-18)
(0.00940871 -0.0112914 -2.81649e-18)
(-0.000382766 0.000550517 -1.35341e-18)
(-0.000378931 0.000499604 6.28528e-20)
(-0.000436395 0.000515277 -5.38669e-19)
(0.000405672 -0.00040182 9.14775e-19)
(0.000427016 -0.000381353 -1.5345e-19)
(0.00347958 -0.00164318 2.40005e-19)
(0.00344223 -0.00144746 -5.61403e-19)
(0.00335178 -0.00157325 -4.41322e-19)
(-0.00109317 -0.000405827 -4.16359e-20)
(-0.00110458 -0.00034698 -3.15441e-20)
(-0.0011673 -0.000402868 -5.31766e-19)
(3.53854e-06 1.58547e-05 -4.29296e-20)
(5.01653e-06 2.14737e-05 -1.52485e-18)
(2.69615e-06 1.54445e-05 3.4778e-19)
(0.0811947 -0.0131502 5.51903e-18)
(0.0891141 -0.012406 5.17468e-18)
(0.0735727 -0.0108631 -8.80244e-18)
(-0.00198367 0.0009257 -7.27705e-18)
(-0.00784429 0.00113702 -2.93526e-17)
(-0.00399025 0.0018677 -1.10086e-16)
(4.19242e-05 0.000467271 -3.70646e-18)
(3.51655e-05 0.000458352 -4.07344e-18)
(3.74159e-05 0.000451205 -2.53771e-19)
(-8.89682e-05 3.94661e-05 -8.21483e-21)
(-8.06541e-05 3.52388e-05 -1.22651e-19)
(0.000439082 0.00188393 1.58312e-18)
(0.000448852 0.00177853 5.04654e-18)
(0.000382604 0.00180571 -1.30183e-18)
(0.000180284 -0.000125672 -3.99575e-18)
(0.0001864 -0.000149402 -1.24149e-18)
(0.0120387 -0.00800188 1.15519e-17)
(0.0122811 -0.00843295 5.06056e-18)
(-0.00649129 0.00151727 -9.55457e-17)
(-0.00714612 0.000702597 3.59466e-17)
(-0.00674152 0.0013904 -6.11724e-17)
(-0.0127871 -0.0010436 3.03254e-17)
(-0.0150371 -0.000966557 -1.09426e-17)
(-0.0108143 -0.00148529 -1.88291e-18)
(0.0011521 -0.0274043 -7.50394e-18)
(0.000283139 -0.0273348 -3.47263e-18)
(0.000696015 -0.0283252 -8.07269e-18)
(0.000146388 -0.000106795 -3.61549e-18)
(0.000153971 -9.72765e-05 1.47239e-18)
(0.000151541 -0.000128582 3.37914e-18)
(-0.00103337 -0.000410136 2.59165e-19)
(-0.00108038 -0.000457519 -5.57437e-19)
(0.000764692 -0.000566352 3.32637e-19)
(0.000842259 -0.000576384 -1.48075e-18)
(0.000792719 -0.000627274 -1.02159e-18)
(0.000580391 0.000465658 -1.09727e-18)
(0.000599809 0.000423191 1.39532e-18)
(0.011768 0.0037222 2.95427e-18)
(0.0121367 0.00422744 1.67941e-19)
(0.0122764 0.00358332 8.40558e-19)
(-0.00456425 -0.0011585 -2.24005e-17)
(-0.00664376 0.00479474 -2.93386e-17)
(-0.0078687 0.00135961 3.33306e-17)
(-0.00850745 0.00191013 -2.37965e-17)
(-0.000345628 0.000583116 6.19929e-17)
(0.00737499 0.0019173 7.02919e-18)
(-0.00371713 0.00126119 3.54518e-18)
(-0.0034528 0.0013609 -9.12904e-19)
(-0.00350551 0.00108255 9.91178e-18)
(5.01896e-05 -0.000353839 -1.23801e-18)
(4.60067e-05 -0.000349902 3.66888e-19)
(3.21088e-05 -0.000340435 -7.50987e-19)
(0.101741 -0.0161985 -4.42448e-18)
(0.11344 -0.0126984 7.94143e-18)
(0.00959111 0.0142899 5.95994e-18)
(0.00875962 0.0138098 5.2158e-18)
(0.00863421 0.0146322 -4.31878e-18)
(0.00691337 0.00432987 -4.5462e-18)
(0.00700096 0.00397878 6.2907e-18)
(0.00660341 0.00412201 1.77671e-18)
(0.105797 -0.0631412 -4.60247e-18)
(0.116673 -0.0573562 6.24984e-19)
(0.103321 -0.0607052 5.22934e-18)
(-0.00745099 0.0161396 1.63337e-17)
(-0.00765838 0.00914672 3.86565e-17)
(-0.00277437 0.0126403 6.97204e-18)
(0.000980717 6.24712e-05 3.3875e-18)
(0.000948555 9.29667e-05 -1.54861e-18)
(0.000923139 4.50573e-05 -1.31415e-18)
(0.00689882 0.0117573 -2.63247e-18)
(0.00643023 0.0120822 3.28494e-18)
(0.00451041 -0.00580829 -2.05061e-18)
(0.00431223 -0.00558423 3.20651e-18)
(0.00465614 -0.00548945 7.25143e-19)
(0.0004179 0.00198595 1.77717e-18)
(0.000520047 0.00194636 -4.83188e-18)
(-0.0066152 -0.000273659 2.55981e-17)
(-0.00636076 0.000638439 -4.25244e-17)
(0.00048806 0.000853044 3.72594e-18)
(0.000515933 0.000795997 2.12871e-18)
(0.000550723 0.000872826 -1.90556e-18)
(-0.00073628 -0.00661627 5.83031e-18)
(-0.000507571 -0.00688264 -6.07474e-19)
(0.00189168 0.00106024 -5.44072e-19)
(0.00191268 0.00118688 -3.5333e-18)
(-0.00101559 0.00308112 -1.22389e-17)
(0.00993722 0.0038429 4.90254e-17)
(0.00560549 -0.0307222 -1.10808e-17)
(0.00499818 -0.0310568 -8.28686e-18)
(0.00514673 -0.0302799 -2.90452e-18)
(0.000404175 -0.00105775 -4.392e-20)
(0.000378161 -0.00102389 3.63615e-20)
(0.000435586 -0.00100536 -7.3539e-20)
(-0.00856841 -0.00337151 -1.98016e-17)
(-0.00657463 -0.00348041 -5.5853e-18)
(-0.00541032 -0.00398092 -2.797e-17)
(-0.000937915 -0.00385597 -3.6195e-19)
(-0.000984737 -0.00366914 1.06441e-18)
(-0.001137 -0.00382428 -2.60449e-19)
(0.0162949 0.0240779 5.44621e-18)
(0.0163737 0.0226426 -4.88382e-18)
(0.0151669 0.0233614 1.46536e-18)
(0.00153136 0.00058505 1.96223e-18)
(0.00163954 0.000620638 1.0636e-18)
(0.0729097 -0.0130579 3.20729e-18)
(0.0879049 -0.016214 3.91693e-17)
(0.0622214 -0.022434 -4.62501e-18)
(0.0707467 -0.0216912 2.57778e-17)
(-0.00678065 -0.0271436 4.25555e-18)
(-0.00656109 -0.0262247 1.44802e-17)
(-0.0059112 -0.026968 -8.22567e-19)
(0.0304482 -0.0333049 -5.11326e-18)
(0.0627414 -0.0270942 9.97744e-18)
(0.057314 -0.0296254 -1.14222e-18)
(-0.00350241 -0.0050133 -1.8711e-18)
(-0.00350334 -0.00468925 -5.18164e-18)
(-0.00382966 -0.00484798 -1.53441e-18)
(0.000247346 -0.000322794 1.91049e-18)
(0.000255028 -0.000328158 8.55649e-19)
(0.000250125 -0.000330131 -1.68813e-18)
(-7.90529e-05 3.71319e-05 7.47001e-20)
(-8.39145e-05 3.77416e-05 -5.25975e-20)
(0.00155856 -0.00220279 1.31197e-18)
(0.00145165 -0.00236539 6.24363e-19)
(0.00165502 -0.00237101 1.18581e-18)
(0.00573088 0.00515429 1.4116e-17)
(0.0059499 0.00484778 -5.83044e-18)
(0.00555785 0.00484849 1.60412e-17)
(0.000371959 -0.00112025 1.22199e-19)
(0.000453264 -0.00111516 -2.2593e-20)
(0.000256607 -0.000287113 -5.55205e-19)
(0.000219353 -0.000289205 5.16838e-20)
(0.000226146 -0.00027078 -7.52324e-19)
(0.0101026 0.0137604 -1.66058e-17)
(0.0102576 0.0146241 3.27347e-18)
(0.000472947 0.000897434 -8.30054e-19)
(-0.000285632 -5.13637e-05 3.3473e-19)
(-0.000302901 -6.28486e-05 1.305e-19)
(-0.000297918 -7.15363e-05 5.27168e-21)
(0.0170902 0.0271483 6.07414e-18)
(0.0191135 0.0247553 -1.82429e-18)
(6.71491e-05 0.000467408 3.07359e-18)
(5.94908e-05 0.00048194 -5.2617e-18)
(5.44227e-05 0.000475001 -4.21985e-18)
(4.76024e-06 5.26678e-05 -1.22551e-18)
(4.85943e-06 5.54453e-05 1.17795e-18)
(8.09098e-06 7.0511e-05 -9.53932e-20)
(7.39085e-06 0.000236485 2.64059e-19)
(1.34661e-05 0.000250036 -5.52668e-18)
(1.64358e-05 0.000278233 -6.42959e-18)
(-0.00239096 -0.0373253 -1.92134e-17)
(-0.00129501 -0.0352472 2.74668e-17)
(-3.67099e-05 1.38343e-05 -4.59606e-20)
(-3.20468e-05 1.52987e-05 -1.41902e-19)
(-6.6786e-05 1.08274e-05 -4.15776e-19)
(0.011175 0.0041129 2.32503e-19)
(0.0112329 0.00336447 2.38933e-18)
(0.0229159 0.00666921 -1.27561e-17)
(0.0222227 0.00754182 -1.39694e-17)
(0.0234549 0.00770833 -2.10794e-18)
(0.000504773 0.00166266 1.00718e-17)
(0.000568577 0.00176949 4.04341e-19)
(0.00512402 -0.0315148 -2.76886e-17)
(0.00610023 -0.0305343 -4.30453e-17)
(0.00024072 0.000470742 6.77956e-19)
(0.000269929 0.000501808 -7.29021e-20)
(0.000253963 0.000435559 2.40294e-18)
(0.000185979 -0.000182253 -7.39599e-20)
(0.000185769 -0.000188304 1.54544e-18)
(0.000182423 -0.000212657 6.12738e-19)
(0.00808933 -0.0144568 1.34817e-17)
(0.0075864 -0.0150075 1.66043e-18)
(0.00839859 -0.0152456 2.77754e-18)
(-4.77947e-05 -0.000180937 7.88865e-19)
(-5.32301e-05 -0.000187984 -6.70004e-19)
(-3.35964e-05 -0.000201694 2.11655e-19)
(0.00253892 -0.00370709 -7.59691e-19)
(0.00279729 -0.00377684 -2.76237e-19)
(0.000761561 0.00190741 -8.81366e-18)
(0.000705785 0.00183628 -3.80785e-19)
(0.00077553 0.00180191 -3.0499e-18)
(0.0274342 0.00143219 -2.42546e-17)
(0.0261092 0.00170034 -4.5737e-18)
(0.0264805 0.000382984 5.88877e-18)
(-0.0112013 -0.0081445 6.95344e-18)
(-0.011627 -0.00761837 -3.38773e-18)
(0.00281727 0.00213448 -7.6124e-18)
(0.00296427 0.00211832 -6.76523e-18)
(0.00289318 0.00231455 -6.83789e-18)
(-0.0062024 -0.00748852 -2.33346e-18)
(-0.00689214 -0.00779996 8.18669e-19)
(-0.00677177 -0.00704716 -4.0967e-19)
(-0.0018501 -0.0430887 4.40354e-18)
(0.00881259 -0.0389 4.21698e-18)
(-0.0081457 -0.0438291 -8.78087e-18)
(0.00030708 -0.000288662 -2.16748e-18)
(0.000320072 -0.000285654 6.41359e-19)
(0.000285802 -0.000290935 5.8224e-19)
(0.00466768 -0.0278336 -9.12854e-18)
(0.0053795 -0.0282581 -1.70263e-18)
(0.00534681 -0.0273161 7.7736e-19)
(-0.00428784 0.00290712 3.85107e-18)
(-0.00459603 0.00278377 7.14771e-19)
(-0.000974929 -0.000354258 3.67309e-19)
(0.0123894 0.0118986 1.02153e-17)
(0.0126704 0.0112517 1.37105e-17)
(0.0132514 0.0116445 -1.21107e-17)
(5.44786e-05 -0.000356082 -1.76809e-18)
(6.52932e-05 -0.000365724 1.10607e-18)
(-0.00437926 0.0032454 1.01856e-18)
(-0.00401257 0.0030802 1.65964e-18)
(-0.00156791 -0.000721533 1.44602e-18)
(-0.00148727 -0.000770104 -5.79415e-20)
(0.00344205 -0.00184694 1.01989e-19)
(0.00372558 -0.00175422 -6.77906e-19)
(-0.000231918 -9.91422e-05 4.94623e-20)
(-0.00022635 -0.000116747 -4.62342e-20)
(-0.000245238 -0.000111134 -9.64414e-20)
(-4.19845e-05 3.18743e-05 7.4588e-20)
(-3.90701e-05 2.67898e-05 -1.12999e-19)
(-4.37288e-05 2.98085e-05 1.41325e-19)
(-0.00283243 -0.002544 -4.99186e-18)
(-0.00302484 -0.00260997 -1.82834e-18)
(-0.00283251 -0.00275032 9.48676e-19)
(-0.00883495 0.00389606 -4.05207e-18)
(-0.00859473 0.00340187 3.44165e-18)
(-0.0092043 0.00350316 5.1181e-19)
(0.00014195 -0.000106266 -1.26539e-18)
(0.00013581 -7.91721e-05 -1.15108e-18)
(0.00104824 6.13842e-05 6.56887e-19)
(0.00069032 -0.000565346 3.16638e-19)
(0.000725529 -0.000515131 1.46781e-18)
(0.00295127 -0.00312222 -3.29304e-18)
(0.00308028 -0.00338797 9.68556e-19)
(0.000288775 -0.000312483 1.79117e-18)
(0.000278584 -0.000307637 -3.55741e-18)
(0.000139499 7.82347e-05 9.21743e-19)
(0.000149535 4.35106e-05 1.20059e-18)
(-8.46482e-05 2.15428e-05 8.204e-20)
(-9.49713e-05 1.4776e-05 8.04623e-20)
(-9.03125e-05 1.97313e-05 -8.13032e-20)
(0.00190954 0.000210074 7.48772e-19)
(0.00184395 0.00012324 1.10239e-18)
(-0.00392839 0.00174689 -5.61953e-19)
(-0.003727 0.0014872 -5.21743e-19)
(-0.0036583 0.00186762 1.3163e-18)
(1.91448e-06 2.73805e-05 -1.3656e-18)
(5.12969e-06 4.0183e-05 5.4544e-19)
(-6.69646e-05 3.06535e-05 -9.94611e-21)
(-6.08298e-05 2.76873e-05 -8.25529e-20)
(-6.20282e-05 2.83148e-05 -4.74961e-20)
(0.0005133 -0.000186432 -3.00062e-19)
(0.000509269 -0.000195871 4.01325e-19)
(0.00301967 -0.000236029 -2.60476e-18)
(0.00314648 -0.000151319 -1.65657e-18)
(0.00314728 -0.000322918 -2.3365e-18)
(0.0282056 0.00237712 -3.85461e-18)
(0.028706 0.000901315 -1.56363e-17)
(0.0015128 -0.0266048 -3.13439e-18)
(0.00188736 -0.0275881 -5.96542e-18)
(-0.0108011 -0.00296876 -1.90102e-17)
(-0.0122803 -0.00266904 9.28219e-18)
(0.0071835 0.00455409 -1.25497e-17)
(0.00681854 0.00464016 -8.88042e-18)
(0.00711843 0.00358815 2.45659e-18)
(0.00720481 0.00324042 -3.40591e-19)
(0.00678651 0.00337728 -3.48837e-18)
(0.00230146 0.00162703 -4.09054e-18)
(0.002355 0.00146173 2.20714e-18)
(-0.0140201 -0.0192232 -7.02514e-18)
(-0.0148075 -0.020214 -7.71709e-18)
(-0.0135598 -0.0204587 1.8365e-17)
(0.145349 -0.0413222 -4.79356e-19)
(0.143255 -0.0441681 5.34122e-18)
(0.133076 -0.0463122 3.60279e-17)
(-0.0026147 -0.00245231 -3.78542e-18)
(-0.00279614 -0.00233545 2.53269e-18)
(0.000263679 -0.000320788 -2.9217e-18)
(0.00025945 -0.000307694 -1.87904e-18)
(-5.30102e-05 2.82572e-05 -1.96161e-19)
(-3.4394e-05 2.47938e-05 2.87935e-19)
(0.00165688 -0.00207261 -7.90727e-19)
(0.00147389 -0.00210172 1.26297e-18)
(-0.000218997 -9.15236e-05 2.13422e-19)
(-0.000234979 -8.22796e-05 2.8285e-19)
(-0.032086 -0.0471446 6.91434e-18)
(-0.0329329 -0.0458366 1.03381e-18)
(-0.00482276 -0.000261125 -3.4194e-19)
(-0.00457644 -0.000273344 -1.92532e-18)
(-0.00476652 -0.000523731 2.63637e-20)
(0.00029649 -0.000358831 -4.3196e-19)
(8.2915e-06 0.000194428 5.96499e-18)
(1.23623e-05 0.000232606 5.12752e-18)
(0.00552557 0.00542123 1.44425e-17)
(0.00588711 0.00540446 7.01425e-19)
(-0.00421392 0.00166469 -1.57746e-18)
(0.0236207 0.00567843 -1.18925e-18)
(0.0224197 0.00566485 3.05105e-18)
(0.0074882 0.00382253 -3.17239e-18)
(0.020237 -0.0133113 -1.52087e-17)
(0.0211606 -0.0132187 -6.31854e-19)
(0.0207413 -0.01434 -1.19621e-17)
(-0.000745441 -0.00391586 6.06462e-19)
(-0.000911073 -0.00409401 -1.16237e-18)
(-0.0085023 0.00434225 -1.44877e-19)
(-0.00916856 0.00448322 -5.09293e-18)
(-0.00020802 -8.37589e-05 -1.9172e-19)
(-0.000209765 -6.96217e-05 -1.42863e-19)
(-0.000196024 -7.96698e-05 -3.69397e-19)
(-0.00605144 -0.00264464 -4.62922e-19)
(-0.00631918 -0.00271263 -3.08439e-18)
(-0.00609068 -0.00293854 6.44491e-18)
(-0.00182001 0.00144547 -1.96771e-18)
(-0.00180121 0.00124562 4.12633e-18)
(0.004501 -0.00622294 -8.02246e-18)
(0.00496324 -0.00595676 5.72039e-18)
(0.000592407 3.79662e-05 -1.7431e-18)
(0.000580966 5.73707e-05 4.83726e-18)
(0.000561582 1.09833e-05 3.46058e-18)
(-0.00514729 -0.00755595 -5.23507e-18)
(-0.00887494 -0.00140493 4.76425e-17)
(-0.00750587 -0.00203318 -2.17582e-17)
(-0.000281242 -4.88404e-05 -8.40128e-20)
(-0.000283526 -4.88097e-05 -1.11843e-19)
(-0.00103136 -0.0007122 5.14302e-19)
(-0.00108652 -0.000670405 5.41885e-19)
(-0.00112461 -0.000758472 -5.9851e-19)
(0.144825 -0.0392081 -1.17562e-17)
(0.159182 -0.0376828 -7.51197e-18)
(-0.0129577 -0.0184793 1.17488e-18)
(0.000285664 -0.000980729 1.5998e-19)
(0.000373444 -0.000925644 3.61763e-20)
(0.000126499 0.000122365 3.06272e-18)
(0.00013379 0.000115118 -1.71768e-18)
(0.000125058 0.000157938 3.94142e-18)
(0.00288239 -0.000346722 4.84327e-18)
(0.00286817 -0.000169588 4.40816e-18)
(0.0956548 -0.0686402 5.03696e-18)
(0.109124 -0.0647507 -1.09785e-17)
(-0.000272816 -0.0171211 -1.04234e-17)
(0.000102862 -0.0163784 5.13281e-18)
(-0.000777768 -0.0166216 -6.32564e-18)
(0.0140146 -0.0210471 -3.0122e-17)
(0.014879 -0.0210958 1.97377e-17)
(3.55794e-05 2.76196e-05 -2.19888e-18)
(3.19783e-05 3.28408e-05 7.16921e-20)
(-7.23963e-05 3.3267e-05 1.05e-19)
(-7.37488e-05 3.34136e-05 7.63235e-20)
(0.000331144 -0.000275443 1.0007e-18)
(-0.000980559 -0.000487374 5.24996e-19)
(-0.000883201 -0.000466996 8.13643e-19)
(-0.00207344 -0.0408762 2.19337e-17)
(-0.00929175 -0.0457607 -2.79696e-17)
(0.000406168 -0.000220629 -1.31184e-18)
(0.000415653 -0.000206352 -2.4826e-19)
(0.00043145 -0.000189175 -2.70968e-19)
(0.00015281 0.000101272 -4.41229e-19)
(0.000155015 6.64534e-05 -5.66158e-19)
(7.66118e-05 -0.000354269 1.33937e-20)
(7.29909e-05 -0.000341864 -2.17323e-19)
(8.51521e-05 -0.000356108 -1.17246e-18)
(0.000218349 0.00041439 2.94044e-18)
(0.000213749 0.000487328 5.92897e-18)
(-0.0130496 -0.00632732 -7.177e-18)
(-0.013874 -0.00617138 5.96173e-19)
(-0.0132012 -0.00559446 4.26616e-18)
(0.00249867 0.00109453 -1.29334e-19)
(0.00262297 0.00112319 3.24006e-18)
(0.00252342 0.00122619 -1.38709e-18)
(0.0159844 -0.00510975 -2.26642e-18)
(0.0154148 -0.00476495 -1.40161e-18)
(0.0154656 -0.00557344 -1.51813e-18)
(0.111181 -0.0032688 4.70356e-18)
(0.124556 -0.0035826 -3.74679e-17)
(0.11815 -0.0028992 -3.24552e-17)
(0.00150248 0.00135255 -8.21979e-18)
(0.00146357 0.00140382 -2.37801e-18)
(0.173533 -0.00631947 -1.28302e-17)
(0.168292 -0.0056221 -1.32658e-17)