/*--------------------------------*- C++ -*----------------------------------*\
| =========                 |                                                 |
| \\      /  F ield         | OpenFOAM: The Open Source CFD Toolbox           |
|  \\    /   O peration     | Version:  v2012                                 |
|   \\  /    A nd           | Website:  www.openfoam.com                      |
|    \\/     M anipulation  |                                                 |
\*---------------------------------------------------------------------------*/
FoamFile
{
    version     2.0;
    format      ascii;
    class       pointVectorField;
    location    "250";
    object      pointDisplacement;
}
// * * * * * * * * * * * * * * * * * * * * * * * * * * * * * * * * * * * * * //

dimensions      [0 1 0 0 0 0 0];


internalField   nonuniform List<vector> 
10356
(
(0 0 0)
(0 0 0)
(0 0 0)
(0 0 0)
(0 0 0)
(0 0 0)
(0 0 0)
(0 0 0)
(0 0 0)
(0 0 0)
(0 0 0)
(0 0 0)
(0 0 0)
(0 0 0)
(0 0 0)
(0 0 0)
(0 0 0)
(0 0 0)
(0 0 0)
(0 0 0)
(0 0 0)
(0 0 0)
(0 0 0)
(0 0 0)
(0 0 0)
(0 0 0)
(0 0 0)
(0 0 0)
(0 0 0)
(0 0 0)
(0 0 0)
(0 0 0)
(0 0 0)
(0 0 0)
(0 0 0)
(0 0 0)
(0 0 0)
(0 0 0)
(0 0 0)
(0 0 0)
(0 0 0)
(0 0 0)
(0 0 0)
(0 0 0)
(0 0 0)
(0 0 0)
(0 0 0)
(0 0 0)
(0 0 0)
(0 0 0)
(0 0 0)
(0 0 0)
(0 0 0)
(0 0 0)
(0 0 0)
(0 0 0)
(0 0 0)
(0 0 0)
(0 0 0)
(0 0 0)
(0 0 0)
(0 0 0)
(0 0 0)
(0 0 0)
(0 0 0)
(0 0 0)
(0 0 0)
(0 0 0)
(0 0 0)
(0 0 0)
(0 0 0)
(0 0 0)
(0 0 0)
(0 0 0)
(0 0 0)
(-0 -5.50981e-06 -0)
(-0 -5.50981e-06 -0)
(0 0 0)
(0 0 0)
(0 0 0)
(0 0 0)
(0 0 0)
(0 0 0)
(0 0 0)
(0 0 0)
(0 0 0)
(0 0 0)
(0 0 0)
(0 0 0)
(0 0 0)
(0 0 0)
(0 0 0)
(0 0 0)
(0 0 0)
(0 0 0)
(0 0 0)
(0 0 0)
(0 0 0)
(0 0 0)
(0 0 0)
(0 0 0)
(0 0 0)
(0 0 0)
(0 0 0)
(0 0 0)
(0 0 0)
(0 0 0)
(0 0 0)
(0 0 0)
(0 0 0)
(0 0 0)
(0 0 0)
(0 0 0)
(0 0 0)
(0 0 0)
(0 0 0)
(0 0 0)
(0 0 0)
(0 0 0)
(0 0 0)
(0 0 0)
(0 0 0)
(0 0 0)
(0 0 0)
(0 0 0)
(0 0 0)
(0 0 0)
(0 0 0)
(0 0 0)
(0 0 0)
(0 0 0)
(0 0 0)
(0 0 0)
(0 0 0)
(0 0 0)
(0 0 0)
(0 0 0)
(0 0 0)
(0 0 0)
(0 0 0)
(0 0 0)
(0 0 0)
(0 0 0)
(0 0 0)
(0 0 0)
(0 0 0)
(0 0 0)
(0 0 0)
(0 0 0)
(0 0 0)
(-0 -5.50981e-06 -0)
(-0 -5.50981e-06 -0)
(0 -5.50631e-06 0)
(0 -5.52374e-06 0)
(0 -5.48454e-06 0)
(0 -5.50729e-06 0)
(0 4.11616e-05 0)
(0 5.20246e-05 0)
(0 5.32086e-05 0)
(0 5.69863e-05 0)
(0 6.76775e-05 0)
(0 -5.53024e-06 0)
(0 4.32581e-05 0)
(0 7.22628e-05 0)
(0 -5.50599e-06 0)
(0 3.65069e-05 0)
(0 4.74273e-05 0)
(0 3.75496e-05 0)
(0 2.8731e-05 0)
(0 -5.50883e-06 0)
(0 -5.51794e-06 0)
(0 1.72938e-05 0)
(0 1.88746e-05 0)
(0 5.52982e-05 0)
(0 5.64425e-05 0)
(0 4.52484e-05 0)
(0 -5.50502e-06 0)
(0 -5.50677e-06 0)
(0 1.09263e-05 0)
(0 1.21657e-05 0)
(0 4.44102e-05 0)
(0 4.68342e-05 0)
(0 5.09079e-05 0)
(0 3.61649e-05 0)
(0 6.39935e-05 0)
(0 8.26296e-05 0)
(0 4.37368e-05 0)
(0 3.14125e-05 0)
(0 2.35017e-05 0)
(0 3.2397e-05 0)
(0 4.73668e-06 0)
(0 4.42443e-05 0)
(0 8.66942e-05 0)
(0 8.63746e-05 0)
(0 0.000128779 0)
(0 0.000130667 0)
(0 0.000171737 0)
(0 0.000170614 0)
(0 0.000211574 0)
(0 0.000216394 0)
(0 0.000254143 0)
(0 0.000261919 0)
(0 0.000296657 0)
(0 0.000305273 0)
(0 0.000336853 0)
(0 0.000345445 0)
(0 0.000373887 0)
(0 0.000381032 0)
(0 0.000406155 0)
(0 0.000411269 0)
(0 0.000433456 0)
(0 0.000428127 0)
(0 0.000451992 0)
(0 0.000446045 0)
(0 0.000466227 0)
(0 0.000460056 0)
(0 0.000477104 0)
(0 0.000470289 0)
(0 0.000485319 0)
(0 0.000477761 0)
(0 0.000490525 0)
(0 0.000482834 0)
(0 0.000493185 0)
(0 0.000485467 0)
(0 0.000493621 0)
(0 0.00048541 0)
(0 0.000501508 0)
(0 0.000500144 0)
(0 0.000508543 0)
(0 0.000505295 0)
(0 0.000514212 0)
(0 0.000509142 0)
(0 0.000518044 0)
(0 0.000511535 0)
(0 0.000520404 0)
(0 0.000512676 0)
(0 0.000521655 0)
(0 0.000512823 0)
(0 0.000503498 0)
(0 0.000521865 0)
(0 0.000512098 0)
(0 0.000521082 0)
(0 0.000510419 0)
(0 0.000519413 0)
(0 0.000507589 0)
(0 0.000516601 0)
(0 0.00050369 0)
(0 0.00051238 0)
(0 0.000499176 0)
(0 0.000507947 0)
(0 0.000494238 0)
(0 0.000484174 0)
(0 0.000503712 0)
(0 0.000489152 0)
(0 0.000499049 0)
(0 0.000483734 0)
(0 0.000494226 0)
(0 0.000478577 0)
(0 0.000489301 0)
(0 0.000473434 0)
(0 0.000484017 0)
(0 0.000468423 0)
(0 0.00047867 0)
(0 0.00046062 0)
(0 0.000474485 0)
(0 0.000458204 0)
(0 0.000471089 0)
(0 0.000453992 0)
(0 0.00046753 0)
(0 0.000449725 0)
(0 0.000464502 0)
(0 0.000446114 0)
(0 0.000499489 0)
(0 0.000462196 0)
(0 0.000443342 0)
(0 0.000480204 0)
(0 0.000459138 0)
(0 0.000441102 0)
(0 0.000455307 0)
(0 0.000457281 0)
(0 0.000439766 0)
(0 0.000457233 0)
(0 0.000439494 0)
(0 0.000457169 0)
(0 0.000440156 0)
(0 0.000458307 0)
(0 0.000441778 0)
(0 0.00046051 0)
(0 0.000444542 0)
(0 0.000475527 0)
(0 0.000463411 0)
(0 0.000448434 0)
(0 0.000468032 0)
(0 0.000453642 0)
(0 0.000524021 0)
(0 0.000474026 0)
(0 0.000459804 0)
(0 0.000480511 0)
(0 0.000467228 0)
(0 0.000488535 0)
(0 0.000475923 0)
(0 0.000497573 0)
(0 0.000485705 0)
(0 0.000509297 0)
(0 0.000507447 0)
(0 0.00049622 0)
(0 0.000473741 0)
(0 0.000485012 0)
(0 0.000461996 0)
(0 0.000473965 0)
(0 0.000496522 0)
(0 0.00048651 0)
(0 0.000463533 0)
(0 0.000477014 0)
(0 0.000499515 0)
(0 0.000491081 0)
(0 0.00046799 0)
(0 0.000483066 0)
(0 0.000505969 0)
(0 0.000498948 0)
(0 0.000521797 0)
(0 0.00051548 0)
(0 0.000492127 0)
(0 0.000509339 0)
(0 0.000485588 0)
(0 0.000503715 0)
(0 0.000527262 0)
(0 0.000522448 0)
(0 0.00049856 0)
(0 0.000518004 0)
(0 0.000493768 0)
(0 0.00051421 0)
(0 0.000537958 0)
(0 0.000534796 0)
(0 0.000510984 0)
(0 0.00053188 0)
(0 0.000508157 0)
(0 0.0005297 0)
(0 0.000505831 0)
(0 0.000528166 0)
(0 0.000503758 0)
(0 0.000525099 0)
(0 0.000501417 0)
(0 0.000522967 0)
(0 0.000499838 0)
(0 0.00052321 0)
(0 0.000499603 0)
(0 0.000523195 0)
(0 0.000499709 0)
(0 0.00052392 0)
(0 0.000500312 0)
(0 0.000525008 0)
(0 0.000501396 0)
(0 0.000526488 0)
(0 0.000503161 0)
(0 0.000528498 0)
(0 0.000505635 0)
(0 0.000531977 0)
(0 0.000508808 0)
(0 0.000536675 0)
(0 0.000512862 0)
(0 0.000541365 0)
(0 0.000517806 0)
(0 0.000547004 0)
(0 0.000523643 0)
(0 0.000558734 0)
(0 0.000547672 0)
(0 0.000557968 0)
(0 0.000479362 0)
(0 0.000476144 0)
(0 0.000430376 0)
(0 0.000488581 0)
(0 0.000427862 0)
(0 0.000436271 0)
(0 0.00047771 0)
(0 0.000477078 0)
(0 0.00046987 0)
(0 0.000468428 0)
(0 0.000418995 0)
(0 0.000530693 0)
(0 0.00081346 0)
(0 0.000793173 0)
(0 0.000789523 0)
(0 0.000829841 0)
(0 0.00076818 0)
(0 0.000765398 0)
(0 0.000743577 0)
(0 0.000741329 0)
(0 0.000719305 0)
(0 0.00071811 0)
(0 0.000737876 0)
(0 0.000717311 0)
(0 0.000734624 0)
(0 0.000716824 0)
(0 0.000731926 0)
(0 0.000716016 0)
(0 0.000699857 0)
(0 0.000699147 0)
(0 0.000713552 0)
(0 0.000696867 0)
(0 0.000680948 0)
(0 0.000679094 0)
(0 0.000692386 0)
(0 0.000675954 0)
(0 0.00066138 0)
(0 0.000660888 0)
(0 0.000644995 0)
(0 0.000646662 0)
(0 0.000660709 0)
(0 0.000648188 0)
(0 0.000632295 0)
(0 0.000634217 0)
(0 0.000648399 0)
(0 0.000635023 0)
(0 0.000618094 0)
(0 0.000618297 0)
(0 0.0006324 0)
(0 0.000615461 0)
(0 0.000598534 0)
(0 0.000595844 0)
(0 0.000610485 0)
(0 0.000591896 0)
(0 0.000605423 0)
(0 0.000588235 0)
(0 0.000601015 0)
(0 0.000585786 0)
(0 0.000571273 0)
(0 0.000570218 0)
(0 0.000584301 0)
(0 0.000569628 0)
(0 0.000583147 0)
(0 0.000569733 0)
(0 0.000582724 0)
(0 0.000571079 0)
(0 0.000556291 0)
(0 0.00055906 0)
(0 0.000573107 0)
(0 0.000561969 0)
(0 0.000574716 0)
(0 0.000564664 0)
(0 0.000575887 0)
(0 0.000567563 0)
(0 0.000555859 0)
(0 0.000559976 0)
(0 0.000570644 0)
(0 0.000563664 0)
(0 0.000551774 0)
(0 0.000555051 0)
(0 0.000566122 0)
(0 0.000556492 0)
(0 0.000566966 0)
(0 0.000557084 0)
(0 0.000567034 0)
(0 0.000557784 0)
(0 0.000546662 0)
(0 0.000547694 0)
(0 0.000558612 0)
(0 0.000548203 0)
(0 0.000558865 0)
(0 0.000547481 0)
(0 0.000535734 0)
(0 0.000558006 0)
(0 0.000545099 0)
(0 0.000555314 0)
(0 0.000541103 0)
(0 0.000551112 0)
(0 0.000535362 0)
(0 0.000545413 0)
(0 0.000527856 0)
(0 0.000517969 0)
(0 0.000509028 0)
(0 0.000499457 0)
(0 0.000566809 0)
(0 0.000135778 0)
(0 0.000126329 0)
(0 0.000112863 0)
(0 0.000117402 0)
(0 0.000104414 0)
(0 0.000109046 0)
(0 9.63407e-05 0)
(0 0.00010119 0)
(0 0.000114258 0)
(0 0.000106549 0)
(0 9.37554e-05 0)
(0 9.91746e-05 0)
(0 8.68877e-05 0)
(0 9.22979e-05 0)
(0 8.05781e-05 0)
(0 8.60147e-05 0)
(0 9.82171e-05 0)
(0 9.20465e-05 0)
(0 8.01621e-05 0)
(0 8.64392e-05 0)
(0 7.48335e-05 0)
(0 8.11037e-05 0)
(0 7.01303e-05 0)
(0 7.6107e-05 0)
(0 6.61095e-05 0)
(0 7.24456e-05 0)
(0 6.25749e-05 0)
(0 6.93322e-05 0)
(0 5.97698e-05 0)
(0 6.6683e-05 0)
(0 5.77709e-05 0)
(0 6.50357e-05 0)
(0 5.62339e-05 0)
(0 6.39529e-05 0)
(0 5.52706e-05 0)
(0 6.34046e-05 0)
(0 5.4826e-05 0)
(0 6.33506e-05 0)
(0 5.49577e-05 0)
(0 6.39728e-05 0)
(0 5.56654e-05 0)
(0 6.50355e-05 0)
(0 5.69359e-05 0)
(0 6.65179e-05 0)
(0 5.87347e-05 0)
(0 6.87088e-05 0)
(0 6.10954e-05 0)
(0 7.14864e-05 0)
(0 6.41929e-05 0)
(0 7.47747e-05 0)
(0 6.76953e-05 0)
(0 7.87808e-05 0)
(0 7.17519e-05 0)
(0 8.32584e-05 0)
(0 7.67716e-05 0)
(0 8.85855e-05 0)
(0 8.24456e-05 0)
(0 9.49885e-05 0)
(0 8.86746e-05 0)
(0 9.11818e-05 0)
(0 7.2244e-05 0)
(0 7.64861e-05 0)
(0 8.26587e-05 0)
(0 7.08581e-05 0)
(0 7.70592e-05 0)
(0 8.94579e-05 0)
(0 8.3876e-05 0)
(0 7.19076e-05 0)
(0 7.87671e-05 0)
(0 6.71642e-05 0)
(0 7.41742e-05 0)
(0 8.61871e-05 0)
(0 8.18903e-05 0)
(0 7.07573e-05 0)
(0 7.81587e-05 0)
(0 8.02906e-05 0)
(0 9.01469e-05 0)
(0 8.62123e-05 0)
(0 7.43915e-05 0)
(0 8.26006e-05 0)
(0 7.09674e-05 0)
(0 7.93517e-05 0)
(0 6.81918e-05 0)
(0 7.61945e-05 0)
(0 6.56937e-05 0)
(0 7.36794e-05 0)
(0 6.36935e-05 0)
(0 7.32422e-05 0)
(0 6.23934e-05 0)
(0 6.96771e-05 0)
(0 6.07443e-05 0)
(0 6.78584e-05 0)
(0 5.9098e-05 0)
(0 6.69099e-05 0)
(0 5.83793e-05 0)
(0 6.69551e-05 0)
(0 5.81135e-05 0)
(0 6.72816e-05 0)
(0 5.83041e-05 0)
(0 6.77181e-05 0)
(0 5.89444e-05 0)
(0 6.86941e-05 0)
(0 6.00572e-05 0)
(0 7.02535e-05 0)
(0 6.17007e-05 0)
(0 7.21451e-05 0)
(0 6.39132e-05 0)
(0 7.48514e-05 0)
(0 6.67783e-05 0)
(0 7.88968e-05 0)
(0 7.03143e-05 0)
(0 8.29848e-05 0)
(0 7.4351e-05 0)
(0 8.72164e-05 0)
(0 7.9092e-05 0)
(0 9.26602e-05 0)
(0 8.47224e-05 0)
(0 9.92573e-05 0)
(0 9.17755e-05 0)
(0 0.000106879 0)
(0 9.99086e-05 0)
(0 0.000115672 0)
(0 0.00010866 0)
(0 0.000125456 0)
(0 0.000118316 0)
(0 0.000136202 0)
(0 0.000129029 0)
(0 0.000111527 0)
(0 0.000122339 0)
(0 0.000105294 0)
(0 0.000116329 0)
(0 9.9618e-05 0)
(0 0.000128422 0)
(0 7.65078e-05 0)
(0 8.09833e-05 0)
(0 0.000104829 0)
(0 6.01127e-05 0)
(0 5.81096e-05 0)
(0 9.16336e-05 0)
(0 0.000100598 0)
(0 5.36288e-05 0)
(0 7.14035e-05 0)
(0 0.000132932 0)
(0 7.68515e-05 0)
(0 5.10926e-05 0)
(0 4.94369e-05 0)
(0 4.72656e-05 0)
(0 5.61627e-05 0)
(0 5.00407e-05 0)
(0 0.000537162 0)
(0 0.000489062 0)
(0 0.00047988 0)
(0 0.000468067 0)
(0 0.000458896 0)
(0 0.000483811 0)
(0 0.000413889 0)
(0 0.00043756 0)
(0 0.00049812 0)
(0 0.000413963 0)
(0 0.000437993 0)
(0 0.000412926 0)
(0 0.000444665 0)
(0 0.000435479 0)
(0 0.000448942 0)
(0 0.000421399 0)
(0 0.000437167 0)
(0 0.000410016 0)
(0 0.000421963 0)
(0 0.000394963 0)
(0 0.000403801 0)
(0 0.000375888 0)
(0 0.000381645 0)
(0 0.000351171 0)
(0 0.000355584 0)
(0 0.000325515 0)
(0 0.000454535 0)
(0 0.000695537 0)
(0 0.000694345 0)
(0 0.000668333 0)
(0 0.000664582 0)
(0 0.000584833 0)
(0 0.000577235 0)
(0 0.000575727 0)
(0 0.000556768 0)
(0 0.000615592 0)
(0 0.000635167 0)
(0 0.000545238 0)
(0 0.000561409 0)
(0 0.000554423 0)
(0 0.00014043 0)
(0 0.000543067 0)
(0 0.000541605 0)
(0 0.000552548 0)
(0 0.000628642 0)
(0 0.000513594 0)
(0 0.00048666 0)
(0 0.000475101 0)
(0 0.000549057 0)
(0 0.000487042 0)
(0 7.16174e-06 0)
(0 4.858e-06 0)
(0 7.7825e-06 0)
(0 5.36663e-06 0)
(0 8.33736e-06 0)
(0 5.95944e-06 0)
(0 0.00032915 0)
(0 0.000358289 0)
(0 7.78281e-05 0)
(0 0.000416424 0)
(0 0.000551636 0)
(0 0.0005656 0)
(0 0.000298673 0)
(0 3.2438e-06 0)
(0 3.9229e-06 0)
(0 0.000452741 0)
(0 0.000330117 0)
(0 0.000359209 0)
(0 0.000596672 0)
(0 0.000555912 0)
(0 0.000568342 0)
(0 0.000383191 0)
(0 0.000586746 0)
(0 6.77241e-06 0)
(0 4.77927e-06 0)
(0 2.22776e-06 0)
(0 3.09461e-06 0)
(0 7.55182e-05 0)
(0 0.000558034 0)
(0 0.00054466 0)
(0 0.000570202 0)
(0 0.000578341 0)
(0 0.000318519 0)
(0 0.000327859 0)
(0 0.000356855 0)
(0 0.000559974 0)
(0 8.4173e-07 0)
(0 1.73465e-06 0)
(0 4.06828e-06 0)
(0 2.81999e-06 0)
(0 6.67925e-07 0)
(0 1.85776e-06 0)
(0 -1.18792e-07 0)
(0 1.07076e-06 0)
(0 -6.76372e-07 0)
(0 5.25316e-07 0)
(0 -1.09569e-06 0)
(0 1.22117e-07 0)
(0 -1.39101e-06 0)
(0 -1.41949e-07 0)
(0 -1.57317e-06 0)
(0 -3.26501e-07 0)
(0 -1.86711e-06 0)
(0 -4.14386e-07 0)
(0 -1.69056e-06 0)
(0 -3.22667e-07 0)
(0 -1.52696e-06 0)
(0 -1.15102e-07 0)
(0 -1.30401e-06 0)
(0 1.4543e-07 0)
(0 -1.03125e-06 0)
(0 4.45127e-07 0)
(0 -7.42706e-07 0)
(0 8.09803e-07 0)
(0 -3.35049e-07 0)
(0 1.23458e-06 0)
(0 1.01796e-07 0)
(0 1.65597e-06 0)
(0 4.82555e-07 0)
(0 2.20221e-06 0)
(0 9.22454e-07 0)
(0 2.92586e-06 0)
(0 1.54143e-06 0)
(0 3.0866e-06 0)
(0 3.72236e-06 0)
(0 2.28122e-06 0)
(0 4.60886e-06 0)
(0 3.07449e-06 0)
(0 1.21105e-06 0)
(0 6.28005e-06 0)
(0 9.79454e-07 0)
(0 1.69933e-06 0)
(0 3.94807e-06 0)
(0 2.50843e-06 0)
(0 4.91724e-06 0)
(0 3.40741e-06 0)
(0 1.23438e-06 0)
(0 2.05862e-06 0)
(0 4.40643e-06 0)
(0 2.98141e-06 0)
(0 1.1246e-07 0)
(0 5.52525e-06 0)
(0 4.02547e-06 0)
(0 -7.88157e-07 0)
(0 1.57751e-06 0)
(0 1.97645e-06 0)
(0 4.39949e-06 0)
(0 6.7982e-06 0)
(0 5.20855e-06 0)
(0 2.64338e-06 0)
(0 3.77773e-06 0)
(0 1.46055e-06 0)
(0 2.53549e-06 0)
(0 8.54395e-06 0)
(0 4.74495e-07 0)
(0 1.46077e-06 0)
(0 3.75333e-06 0)
(0 2.63444e-06 0)
(0 5.21636e-06 0)
(0 4.01596e-06 0)
(0 1.60686e-06 0)
(0 2.94343e-06 0)
(0 -1.7757e-06 0)
(0 7.79024e-07 0)
(0 2.06591e-06 0)
(0 4.52116e-06 0)
(0 3.5467e-06 0)
(0 1.28844e-06 0)
(0 2.81995e-06 0)
(0 6.72031e-07 0)
(0 2.36983e-06 0)
(0 2.87766e-07 0)
(0 2.07649e-06 0)
(0 8.78421e-08 0)
(0 1.96475e-06 0)
(0 7.69437e-08 0)
(0 2.0507e-06 0)
(0 2.31441e-07 0)
(0 2.37372e-06 0)
(0 6.24974e-07 0)
(0 2.94427e-06 0)
(0 1.26467e-06 0)
(0 3.74591e-06 0)
(0 2.09899e-06 0)
(0 4.78448e-06 0)
(0 3.03802e-06 0)
(0 6.11801e-06 0)
(0 5.68914e-06 0)
(0 9.69763e-06 0)
(0 4.3323e-06 0)
(0 4.88952e-06 0)
(0 0.000622014 0)
(0 0.000574691 0)
(0 0.000611008 0)
(0 0.000571405 0)
(0 0.000561623 0)
(0 0.000445074 0)
(0 0.000522646 0)
(0 0.000553821 0)
(0 0.000567196 0)
(0 1.00908e-05 0)
(0 1.21184e-05 0)
(0 0.000324101 0)
(0 0.000350289 0)
(0 -2.60273e-06 0)
(0 0.000594 0)
(0 0.000120059 0)
(0 0.00049961 0)
(0 0.000558821 0)
(0 0.000296028 0)
(0 0.000148029 0)
(0 8.92366e-05 0)
(0 0.000383053 0)
(0 0.000384866 0)
(0 0.000412056 0)
(0 0.000383134 0)
(0 0.00031563 0)
(0 0.000339608 0)
(0 0.000373939 0)
(0 0.000362859 0)
(0 0.000326494 0)
(0 0.000349842 0)
(0 0.000523256 0)
(0 0.000540183 0)
(0 0.000409587 0)
(0 0.000379922 0)
(0 0.000405531 0)
(0 0.000375043 0)
(0 -1.70004e-06 0)
(0 0.000571764 0)
(0 0.000562983 0)
(0 -1.0779e-06 0)
(0 1.39845e-05 0)
(0 1.63119e-05 0)
(0 0.000494191 0)
(0 0.000512106 0)
(0 0.000396852 0)
(0 0.000311805 0)
(0 0.000334498 0)
(0 -2.54484e-06 0)
(0 0.000291748 0)
(0 0.000305695 0)
(0 0.000278953 0)
(0 0.000293593 0)
(0 0.000267226 0)
(0 0.000282128 0)
(0 0.00025616 0)
(0 0.000272735 0)
(0 0.000246428 0)
(0 0.00026381 0)
(0 0.000238619 0)
(0 0.00025856 0)
(0 0.00023169 0)
(0 0.000248317 0)
(0 0.000225173 0)
(0 0.000242668 0)
(0 0.000220073 0)
(0 0.000237929 0)
(0 0.000216033 0)
(0 0.000234328 0)
(0 0.000213258 0)
(0 0.000231693 0)
(0 0.000211345 0)
(0 0.000229811 0)
(0 0.000209967 0)
(0 0.00022861 0)
(0 0.000248981 0)
(0 0.0002479 0)
(0 0.000227998 0)
(0 0.000247704 0)
(0 0.000227955 0)
(0 0.000248123 0)
(0 0.000228556 0)
(0 0.000249408 0)
(0 0.000229972 0)
(0 0.000250902 0)
(0 0.000231908 0)
(0 0.000252201 0)
(0 0.000234215 0)
(0 0.000254309 0)
(0 0.000237144 0)
(0 0.00025754 0)
(0 0.000241243 0)
(0 0.000260681 0)
(0 0.00024589 0)
(0 0.000266064 0)
(0 0.000251132 0)
(0 0.000275527 0)
(0 0.000255011 0)
(0 0.000277141 0)
(0 0.000259764 0)
(0 0.000282632 0)
(0 0.000266673 0)
(0 0.000289378 0)
(0 0.000274466 0)
(0 0.000273838 0)
(0 0.000251112 0)
(0 0.000259766 0)
(0 0.000285161 0)
(0 0.000268351 0)
(0 0.000246812 0)
(0 0.000255668 0)
(0 0.000276273 0)
(0 0.000264415 0)
(0 0.000242133 0)
(0 0.000253052 0)
(0 0.000274366 0)
(0 0.000262622 0)
(0 0.000239887 0)
(0 0.000251607 0)
(0 0.000231307 0)
(0 0.000241818 0)
(0 0.00022166 0)
(0 0.000233398 0)
(0 0.000213663 0)
(0 0.000226779 0)
(0 0.000207205 0)
(0 0.000221116 0)
(0 0.000201878 0)
(0 0.000216294 0)
(0 0.000197464 0)
(0 0.000212202 0)
(0 0.000193904 0)
(0 0.000208994 0)
(0 0.000227504 0)
(0 0.000224638 0)
(0 0.000206685 0)
(0 0.000222582 0)
(0 0.000205176 0)
(0 0.000221485 0)
(0 0.000204631 0)
(0 0.000221756 0)
(0 0.000241483 0)
(0 0.000262429 0)
(0 0.000205195 0)
(0 0.000223082 0)
(0 0.000206789 0)
(0 0.000225093 0)
(0 0.000209269 0)
(0 0.000228543 0)
(0 0.000212433 0)
(0 0.00023235 0)
(0 0.000216191 0)
(0 0.000235815 0)
(0 0.000220536 0)
(0 0.000240239 0)
(0 0.000226589 0)
(0 0.000248849 0)
(0 0.000233601 0)
(0 0.00025329 0)
(0 0.000238416 0)
(0 0.000260467 0)
(0 0.000249102 0)
(0 0.000268558 0)
(0 0.000272775 0)
(0 0.000240869 0)
(0 0.00024564 0)
(0 0.000255105 0)
(0 0.000268765 0)
(0 0.000265072 0)
(0 0.000292723 0)
(0 0.000256803 0)
(0 0.000276744 0)
(0 0.000235438 0)
(0 0.000269977 0)
(0 0.000293643 0)
(0 0.000188201 0)
(0 0.000323199 0)
(0 0.000265017 0)
(0 0.000285319 0)
(0 0.000297319 0)
(0 0.000305851 0)
(0 0.000318061 0)
(0 0.000326237 0)
(0 0.000314527 0)
(0 0.000334745 0)
(0 0.000323191 0)
(0 0.000343286 0)
(0 0.000331802 0)
(0 0.000351803 0)
(0 0.000220331 0)
(0 0.000194201 0)
(0 0.000208877 0)
(0 0.000340401 0)
(0 0.000360586 0)
(0 0.000355318 0)
(0 0.000210233 0)
(0 0.000188436 0)
(0 0.000214732 0)
(0 0.000198424 0)
(0 0.000192142 0)
(0 0.000239366 0)
(0 -1.36225e-06 0)
(0 0.000348589 0)
(0 0.000368516 0)
(0 0.000241222 0)
(0 0.000356075 0)
(0 0.00037557 0)
(0 0.000213396 0)
(0 0.000474641 0)
(0 0.000430421 0)
(0 0.000354916 0)
(0 0.00046428 0)
(0 0.000483304 0)
(0 0.000363119 0)
(0 0.000382717 0)
(0 0.000401133 0)
(0 0.000370184 0)
(0 0.000748732 0)
(0 0.000550521 0)
(0 0.00055306 0)
(0 0.000294966 0)
(0 0.000316844 0)
(0 0.000355969 0)
(0 0.000338997 0)
(0 0.000377321 0)
(0 0.000361444 0)
(0 0.00032261 0)
(0 0.000346166 0)
(0 0.000383967 0)
(0 0.000370169 0)
(0 0.000331335 0)
(0 0.000356641 0)
(0 0.000316776 0)
(0 0.000343135 0)
(0 0.000394476 0)
(0 0.000401338 0)
(0 0.000341923 0)
(0 0.000337591 0)
(0 0.000382138 0)
(0 0.000370359 0)
(0 0.000329594 0)
(0 0.000359605 0)
(0 0.000327245 0)
(0 1.85067e-05 0)
(0 0.000570574 0)
(0 0.000576608 0)
(0 0.00027771 0)
(0 0.000316063 0)
(0 0.000347787 0)
(0 0.00039419 0)
(0 0.000378163 0)
(0 0.000271889 0)
(0 0.000270509 0)
(0 0.000390312 0)
(0 0.000408274 0)
(0 2.11221e-05 0)
(0 1.87529e-05 0)
(0 2.3885e-05 0)
(0 2.12721e-05 0)
(0 0.000333759 0)
(0 0.00036515 0)
(0 2.69272e-05 0)
(0 2.41943e-05 0)
(0 0.000572858 0)
(0 0.000576747 0)
(0 0.00043195 0)
(0 0.000453158 0)
(0 0.000505719 0)
(0 0.00047167 0)
(0 0.000421224 0)
(0 0.000440453 0)
(0 0.000485963 0)
(0 0.000455059 0)
(0 0.000311049 0)
(0 0.000405278 0)
(0 0.000394855 0)
(0 0.000351058 0)
(0 0.00038394 0)
(0 -4.30742e-07 0)
(0 -1.19637e-06 0)
(0 -1.87784e-06 0)
(0 -2.5146e-06 0)
(0 -2.98266e-06 0)
(0 -3.50441e-06 0)
(0 -3.83267e-06 0)
(0 -4.22615e-06 0)
(0 -4.46025e-06 0)
(0 -3.94644e-06 0)
(0 -4.12338e-06 0)
(0 -4.65106e-06 0)
(0 -4.37142e-06 0)
(0 -4.80702e-06 0)
(0 -4.5395e-06 0)
(0 0.00030637 0)
(0 0.000303821 0)
(0 0.000335016 0)
(0 0.000302442 0)
(0 0.000538438 0)
(0 0.000541743 0)
(0 0.000401135 0)
(0 2.36929e-05 0)
(0 2.0937e-05 0)
(0 -4.93811e-06 0)
(0 -4.68486e-06 0)
(0 -5.0398e-06 0)
(0 -4.82569e-06 0)
(0 0.000397967 0)
(0 0.000415373 0)
(0 0.000412395 0)
(0 0.000336647 0)
(0 0.000253641 0)
(0 0.000498782 0)
(0 0.00040537 0)
(0 0.000422096 0)
(0 0.000432065 0)
(0 0.000438185 0)
(0 0.000427899 0)
(0 0.000443268 0)
(0 0.000432876 0)
(0 0.000447705 0)
(0 -5.12428e-06 0)
(0 -4.93775e-06 0)
(0 -4.56232e-06 0)
(0 -4.70489e-06 0)
(0 -5.03401e-06 0)
(0 -4.82588e-06 0)
(0 -5.11586e-06 0)
(0 -4.93257e-06 0)
(0 -4.56652e-06 0)
(0 -4.70265e-06 0)
(0 -5.02772e-06 0)
(0 -4.82504e-06 0)
(0 -4.18822e-06 0)
(0 0.000336032 0)
(0 -5.10727e-06 0)
(0 -4.92683e-06 0)
(0 -5.16998e-06 0)
(0 -5.0183e-06 0)
(0 -4.54691e-06 0)
(0 -4.31568e-06 0)
(0 0.000333017 0)
(0 0.000300975 0)
(0 0.000208964 0)
(0 3.02778e-05 0)
(0 2.75415e-05 0)
(0 0.000468899 0)
(0 -4.24191e-06 0)
(0 0.000571327 0)
(0 0.000573636 0)
(0 0.000567792 0)
(0 0.000579589 0)
(0 0.000575121 0)
(0 0.000581134 0)
(0 0.00057556 0)
(0 0.000581786 0)
(0 0.000575169 0)
(0 0.00058139 0)
(0 0.000574156 0)
(0 0.000580134 0)
(0 0.000572522 0)
(0 0.000578552 0)
(0 0.000570854 0)
(0 0.000577128 0)
(0 0.000569207 0)
(0 0.000576201 0)
(0 0.000568013 0)
(0 0.000575882 0)
(0 0.000567824 0)
(0 0.000575988 0)
(0 0.000568497 0)
(0 0.000576734 0)
(0 0.00056993 0)
(0 0.00057817 0)
(0 0.000571735 0)
(0 0.000581929 0)
(0 0.000580003 0)
(0 0.000573955 0)
(0 0.000584228 0)
(0 0.000582108 0)
(0 0.000576144 0)
(0 0.00058452 0)
(0 0.000578823 0)
(0 0.000587286 0)
(0 0.000582087 0)
(0 0.000586754 0)
(0 0.000590612 0)
(0 0.000585974 0)
(0 0.000575936 0)
(0 0.000580936 0)
(0 0.000590653 0)
(0 0.000586823 0)
(0 0.000596169 0)
(0 0.000593436 0)
(0 0.000602289 0)
(0 0.000600563 0)
(0 0.000608764 0)
(0 0.000607739 0)
(0 0.000566126 0)
(0 0.000615524 0)
(0 0.000615181 0)
(0 0.00060563 0)
(0 0.000614336 0)
(0 0.000622984 0)
(0 0.000623239 0)
(0 0.000631233 0)
(0 0.000632085 0)
(0 0.000622381 0)
(0 0.000631977 0)
(0 0.000620921 0)
(0 0.000631461 0)
(0 0.000641488 0)
(0 0.00064184 0)
(0 0.000630288 0)
(0 0.000641468 0)
(0 0.000651989 0)
(0 0.000652733 0)
(0 0.000640691 0)
(0 0.000653342 0)
(0 0.000639851 0)
(0 0.000654287 0)
(0 0.000666716 0)
(0 0.000669765 0)
(0 0.000655754 0)
(0 0.000673513 0)
(0 0.000685898 0)
(0 0.000691245 0)
(0 0.000677951 0)
(0 0.000696551 0)
(0 0.000682561 0)
(0 0.000702221 0)
(0 0.000714945 0)
(0 0.000721293 0)
(0 0.000707787 0)
(0 0.000727084 0)
(0 0.000713039 0)
(0 0.000732657 0)
(0 0.000717777 0)
(0 0.000745645 0)
(0 0.00073831 0)
(0 0.000722676 0)
(0 0.000744533 0)
(0 0.000728535 0)
(0 0.000751222 0)
(0 0.000734666 0)
(0 0.000765787 0)
(0 0.000757602 0)
(0 0.000740467 0)
(0 0.000715905 0)
(0 0.000722071 0)
(0 0.000750017 0)
(0 0.00072859 0)
(0 0.000697974 0)
(0 0.000702052 0)
(0 0.000708452 0)
(0 0.000735043 0)
(0 0.000715264 0)
(0 0.000741463 0)
(0 0.000722842 0)
(0 0.000581544 0)
(0 0.000558524 0)
(0 0.000684082 0)
(0 0.000560514 0)
(0 0.000430542 0)
(0 0.000427179 0)
(0 0.000269494 0)
(0 0.000271979 0)
(0 0.000423305 0)
(0 -4.69442e-06 0)
(0 -4.81126e-06 0)
(0 -5.10194e-06 0)
(0 -4.91651e-06 0)
(0 -5.17057e-06 0)
(0 -5.00599e-06 0)
(0 -5.2284e-06 0)
(0 -5.08033e-06 0)
(0 -4.68162e-06 0)
(0 0.000229748 0)
(0 0.000436923 0)
(0 0.000459557 0)
(0 -5.38518e-07 0)
(0 -4.91777e-06 0)
(0 0.000450993 0)
(0 0.000513083 0)
(0 -5.24631e-06 0)
(0 6.90805e-05 0)
(0 -5.1364e-06 0)
(0 0.000603432 0)
(0 -2.34069e-06 0)
(0 6.52683e-05 0)
(0 5.22326e-05 0)
(0 -4.80956e-06 0)
(0 -4.61691e-06 0)
(0 0.000484156 0)
(0 0.000467714 0)
(0 4.69699e-05 0)
(0 4.9635e-05 0)
(0 0.000441043 0)
(0 7.86707e-06 0)
(0 6.01888e-05 0)
(0 5.02384e-05 0)
(0 -1.49027e-06 0)
(0 0.000572739 0)
(0 0.000423846 0)
(0 6.07928e-05 0)
(0 0.000525574 0)
(0 0.000421779 0)
(0 0.000179388 0)
(0 0.000468238 0)
(0 0.000564316 0)
(0 0.000387734 0)
(0 0.000702965 0)
(0 5.20835e-05 0)
(0 0.000517808 0)
(0 0.000561679 0)
(0 0.000692434 0)
(0 0.000475026 0)
(0 0.000189654 0)
(0 0.000662622 0)
(0 0.000461106 0)
(0 0.000443742 0)
(0 0.000436245 0)
(0 0.000419044 0)
(0 0.000411219 0)
(0 0.000394059 0)
(0 0.000402699 0)
(0 0.000538387 0)
(0 0.000544112 0)
(0 0.00056071 0)
(0 0.000565736 0)
(0 0.000626182 0)
(0 0.000610227 0)
(0 2.65319e-05 0)
(0 2.37025e-05 0)
(0 0.000478818 0)
(0 6.89522e-06 0)
(0 0.000101875 0)
(0 0.000108412 0)
(0 0.000116083 0)
(0 0.000122901 0)
(0 0.000131487 0)
(0 0.0001388 0)
(0 0.000147863 0)
(0 0.000140655 0)
(0 0.000157547 0)
(0 0.000150517 0)
(0 0.000155614 0)
(0 0.000146796 0)
(0 6.26163e-05 0)
(0 0.000200957 0)
(0 0.000387472 0)
(0 0.000566958 0)
(0 0.000521344 0)
(0 0.000499267 0)
(0 9.63956e-05 0)
(0 0.000662145 0)
(0 0.000564808 0)
(0 0.00052365 0)
(0 0.0006068 0)
(0 0.000212422 0)
(0 0.000639232 0)
(0 0.000594042 0)
(0 0.000743642 0)
(0 0.000759009 0)
(0 0.000751447 0)
(0 0.000765596 0)
(0 0.000561625 0)
(0 8.60405e-05 0)
(0 0.000567756 0)
(0 0.000702494 0)
(0 9.91491e-05 0)
(0 0.000733133 0)
(0 0.000555372 0)
(0 0.000230579 0)
(0 0.000249005 0)
(0 0.000237521 0)
(0 0.000569165 0)
(0 -5.27801e-06 0)
(0 -5.14495e-06 0)
(0 -4.88029e-06 0)
(0 -4.96269e-06 0)
(0 -5.20681e-06 0)
(0 -5.03742e-06 0)
(0 -4.27555e-06 0)
(0 -4.75139e-06 0)
(0 3.39611e-05 0)
(0 3.10978e-05 0)
(0 2.4949e-05 0)
(0 2.84636e-05 0)
(0 2.26145e-05 0)
(0 2.61259e-05 0)
(0 2.04675e-05 0)
(0 2.40303e-05 0)
(0 1.81684e-05 0)
(0 2.23283e-05 0)
(0 2.8017e-05 0)
(0 2.63787e-05 0)
(0 2.10281e-05 0)
(0 2.48601e-05 0)
(0 1.99174e-05 0)
(0 2.33837e-05 0)
(0 1.89412e-05 0)
(0 2.23492e-05 0)
(0 1.80033e-05 0)
(0 2.17755e-05 0)
(0 1.74175e-05 0)
(0 2.11626e-05 0)
(0 1.69444e-05 0)
(0 2.06896e-05 0)
(0 1.65668e-05 0)
(0 2.06573e-05 0)
(0 1.66041e-05 0)
(0 2.85288e-05 0)
(0 2.0871e-05 0)
(0 1.69068e-05 0)
(0 2.13953e-05 0)
(0 1.7414e-05 0)
(0 0.000525552 0)
(0 0.000331686 0)
(0 0.000299921 0)
(0 0.000268086 0)
(0 0.000267305 0)
(0 0.000298506 0)
(0 0.00026503 0)
(0 0.000294954 0)
(0 0.000260267 0)
(0 0.000289168 0)
(0 0.000253454 0)
(0 0.000362858 0)
(0 0.000584877 0)
(0 0.000545783 0)
(0 0.000406618 0)
(0 0.000419447 0)
(0 0.000439128 0)
(0 0.000450903 0)
(0 0.000467315 0)
(0 0.000456659 0)
(0 0.000461145 0)
(0 0.000374376 0)
(0 0.000319616 0)
(0 0.000285621 0)
(0 0.000161227 0)
(0 0.000407443 0)
(0 0.000284766 0)
(0 9.41898e-05 0)
(0 1.3686e-05 0)
(0 1.72282e-05 0)
(0 1.80093e-05 0)
(0 2.20172e-05 0)
(0 2.29861e-05 0)
(0 2.74989e-05 0)
(0 2.6283e-05 0)
(0 2.86702e-05 0)
(0 3.25165e-05 0)
(0 2.41122e-05 0)
(0 3.80133e-05 0)
(0 4.39969e-05 0)
(0 3.00283e-05 0)
(0 2.56657e-05 0)
(0 5.1952e-05 0)
(0 0.000594272 0)
(0 0.000406084 0)
(0 0.0004236 0)
(0 0.000417491 0)
(0 3.236e-05 0)
(0 0.000535073 0)
(0 0.0006436 0)
(0 0.000498289 0)
(0 6.20047e-06 0)
(0 0.000686581 0)
(0 0.000700922 0)
(0 0.000577612 0)
(0 0.000286607 0)
(0 0.000270913 0)
(0 0.00024271 0)
(0 0.000296838 0)
(0 0.000307416 0)
(0 0.000318998 0)
(0 0.000329873 0)
(0 0.000291862 0)
(0 -4.39604e-06 0)
(0 0.000760562 0)
(0 0.000629459 0)
(0 7.3557e-06 0)
(0 0.000695933 0)
(0 0.000103401 0)
(0 0.000113193 0)
(0 0.000117693 0)
(0 0.000128081 0)
(0 0.000132749 0)
(0 0.00012374 0)
(0 0.000139327 0)
(0 0.000135222 0)
(0 0.000164095 0)
(0 0.000155422 0)
(0 0.000660003 0)
(0 0.000669082 0)
(0 0.000665918 0)
(0 0.000318436 0)
(0 0.000341425 0)
(0 0.000330483 0)
(0 0.000353494 0)
(0 0.000343194 0)
(0 0.000366055 0)
(0 0.000356582 0)
(0 0.000351722 0)
(0 0.000333297 0)
(0 0.000347536 0)
(0 0.000586429 0)
(0 -4.25465e-06 0)
(0 0.000282367 0)
(0 0.000245673 0)
(0 0.000274609 0)
(0 0.000236923 0)
(0 3.49532e-05 0)
(0 0.000583705 0)
(0 0.000530191 0)
(0 0.000255981 0)
(0 0.000408906 0)
(0 0.000373427 0)
(0 0.00032436 0)
(0 0.000339177 0)
(0 0.000316646 0)
(0 0.000332096 0)
(0 0.000310482 0)
(0 0.000328656 0)
(0 0.000352889 0)
(0 3.19652e-05 0)
(0 3.99522e-05 0)
(0 3.66494e-05 0)
(0 4.55167e-05 0)
(0 4.18948e-05 0)
(0 3.34825e-05 0)
(0 3.8818e-05 0)
(0 3.07744e-05 0)
(0 3.63473e-05 0)
(0 2.85803e-05 0)
(0 3.41724e-05 0)
(0 2.71087e-05 0)
(0 3.22506e-05 0)
(0 2.58168e-05 0)
(0 -5.29934e-06 0)
(0 8.36521e-05 0)
(0 0.000614838 0)
(0 0.000337772 0)
(0 0.000330524 0)
(0 0.000350451 0)
(0 0.000343624 0)
(0 0.000364179 0)
(0 0.000357355 0)
(0 0.000546005 0)
(0 0.000278047 0)
(0 0.000305474 0)
(0 0.000447929 0)
(0 6.50995e-06 0)
(0 0.000155728 0)
(0 7.30134e-05 0)
(0 -3.53996e-06 0)
(0 0.000210186 0)
(0 0.000238852 0)
(0 2.22845e-05 0)
(0 1.83189e-05 0)
(0 0.00011467 0)
(0 -4.68947e-06 0)
(0 -3.79894e-06 0)
(0 8.28985e-05 0)
(0 7.45236e-05 0)
(0 0.000468103 0)
(0 8.63619e-05 0)
(0 -5.25706e-06 0)
(0 -5.10143e-06 0)
(0 0.000346505 0)
(0 0.000371187 0)
(0 2.63814e-05 0)
(0 7.75239e-05 0)
(0 0.000229139 0)
(0 2.46821e-05 0)
(0 -4.08648e-06 0)
(0 2.25299e-06 0)
(0 0.000225489 0)
(0 4.25981e-06 0)
(0 0.0005553 0)
(0 0.000553136 0)
(0 0.000589039 0)
(0 0.000458075 0)
(0 0.000775045 0)
(0 0.000780053 0)
(0 0.000529383 0)
(0 0.000543331 0)
(0 0.000530722 0)
(0 0.000542597 0)
(0 0.000582632 0)
(0 0.000377893 0)
(0 0.000371408 0)
(0 0.000350525 0)
(0 0.000365078 0)
(0 0.000344082 0)
(0 0.000359359 0)
(0 0.000338335 0)
(0 0.000354201 0)
(0 0.000333226 0)
(0 0.000349773 0)
(0 0.000328929 0)
(0 0.000346271 0)
(0 0.00032539 0)
(0 0.000343732 0)
(0 0.000322726 0)
(0 0.000341864 0)
(0 0.00032087 0)
(0 0.000340389 0)
(0 0.000319722 0)
(0 0.000340299 0)
(0 0.000528614 0)
(0 -4.04231e-06 0)
(0 -4.36524e-06 0)
(0 -5.25757e-06 0)
(0 3.17288e-05 0)
(0 2.76019e-05 0)
(0 -4.61808e-06 0)
(0 0.000366099 0)
(0 0.000168093 0)
(0 0.000161343 0)
(0 0.000264974 0)
(0 0.000227279 0)
(0 0.000232176 0)
(0 0.000234502 0)
(0 8.27355e-06 0)
(0 1.02336e-05 0)
(0 0.000711545 0)
(0 0.000175411 0)
(0 -5.50761e-06 0)
(0 1.29379e-05 0)
(0 0.000479735 0)
(0 0.000437752 0)
(0 0.000320036 0)
(0 0.000342781 0)
(0 0.000625783 0)
(0 0.000312319 0)
(0 0.00032886 0)
(0 0.00037558 0)
(0 1.32425e-05 0)
(0 0.00053047 0)
(0 0.00016869 0)
(0 0.00017714 0)
(0 3.07829e-05 0)
(0 2.45959e-05 0)
(0 2.96128e-05 0)
(0 0.000506542 0)
(0 -4.86292e-06 0)
(0 -4.64388e-06 0)
(0 -4.03232e-06 0)
(0 -4.33691e-06 0)
(0 -4.86103e-06 0)
(0 -4.57414e-06 0)
(0 0.000309056 0)
(0 0.000207175 0)
(0 0.000622588 0)
(0 0.000185638 0)
(0 0.000205165 0)
(0 1.38001e-05 0)
(0 2.34968e-05 0)
(0 1.97255e-05 0)
(0 2.98158e-05 0)
(0 2.42101e-05 0)
(0 3.79873e-05 0)
(0 0.000253646 0)
(0 0.00021582 0)
(0 0.000238671 0)
(0 0.000202003 0)
(0 0.00022083 0)
(0 0.000185851 0)
(0 0.000200609 0)
(0 0.000167314 0)
(0 0.000177829 0)
(0 0.000146463 0)
(0 0.000153284 0)
(0 0.000124661 0)
(0 0.000129026 0)
(0 0.000157147 0)
(0 0.000104317 0)
(0 0.000130663 0)
(0 0.000159199 0)
(0 0.000130133 0)
(0 0.00015909 0)
(0 9.79493e-05 0)
(0 0.000134196 0)
(0 8.13036e-05 0)
(0 0.0001652 0)
(0 0.000127954 0)