/*--------------------------------*- C++ -*----------------------------------*\
| =========                 |                                                 |
| \\      /  F ield         | OpenFOAM: The Open Source CFD Toolbox           |
|  \\    /   O peration     | Version:  v2012                                 |
|   \\  /    A nd           | Website:  www.openfoam.com                      |
|    \\/     M anipulation  |                                                 |
\*---------------------------------------------------------------------------*/
FoamFile
{
    version     2.0;
    format      ascii;
    class       surfaceScalarField;
    location    "100";
    object      meshPhiCN_0;
}
// * * * * * * * * * * * * * * * * * * * * * * * * * * * * * * * * * * * * * //

dimensions      [0 3 -1 0 0 0 0];
oriented        oriented;


internalField   nonuniform List<scalar> 
14907
(
0.00220903
0.0048098
-0.0070349
-0.00100041
-0.00503674
0.00599841
0.00584136
-0.00641021
0.000635509
-0.000349421
-0.00025258
0.000124996
-0.00113111
0.00100624
0.00548816
0.000837929
-0.00626078
-0.000761673
-0.00153794
0.00229486
0.000990883
0.000737892
-0.00172811
0.000376967
-0.00662397
0.00612419
0.00650912
-0.00811417
0.00155901
0.000714959
-0.00108466
0.000369708
-0.00138643
0.000340609
0.00382963
-0.000731566
-0.00331998
-0.000432014
0.00345037
-0.00306795
-0.000487961
0.00424531
-0.00375407
-0.00154893
-0.004899
0.00621995
0.00575234
-0.007523
0.00128751
-0.0012014
-7.74995e-05
-0.0065078
0.00867909
-0.00171516
0.00132462
0.000391563
0.00937625
-0.0103772
0.000287028
-0.0022965
0.00233054
-3.38126e-05
0.000367653
-4.92949e-06
-0.000682649
0.00155376
-0.00597397
0.00454933
0.00413175
-0.00515176
-0.000250165
-0.00323418
0.00346338
0.00051033
-0.00519106
0.00454006
-0.000150147
-0.00449898
0.00466668
-0.00110189
-0.00511171
0.00609783
0.000119511
0.00521005
-0.0053018
0.00914392
-0.00248479
-0.00668723
0.00113775
-0.00061789
-0.000519846
0.00768492
-0.00107863
0.00784404
-0.0049631
-0.00288443
-0.00423939
0.000291247
0.00397406
0.00677979
-0.00506738
-0.000673295
-0.0030301
0.00368365
-0.00324983
0.00273678
0.000481877
0.00163035
0.00485283
0.00408712
-0.000977585
-0.00309016
-0.000795308
-0.000919466
-0.000450383
-0.00383606
0.00429778
0.00136831
-0.00213474
-0.00895703
0.00187963
0.00713819
0.00114186
-0.00101671
-0.00283252
6.659e-05
0.00275712
0.00146633
0.00261391
-0.00405094
-0.00243589
0.0026731
-0.00025031
0.00505387
-0.00316067
-0.00189591
-0.00267449
-0.000171991
0.00283192
0.000877576
-0.00191331
0.000810112
0.0040342
-0.00291414
0.00544769
-0.00250309
-0.00291336
0.0010935
0.00187409
-0.00293617
-0.00327934
0.00258941
-0.000916634
0.00633458
0.00437959
-0.00559273
-0.00401433
0.00552406
0.0023506
0.00550228
0.00162244
0.00387344
0.00772299
-0.000449927
-0.00732099
-0.00567872
0.00686704
-0.00132832
-0.0011435
-0.00307385
0.00667409
-0.000760765
-0.00291242
-0.00241191
0.00531777
-0.00703708
0.00711351
-6.16539e-05
-0.00778839
0.00255165
0.00525389
-0.000168336
-0.00174732
0.00191719
-0.00137107
0.000898621
0.000472517
0.00803004
-0.00119305
-0.00688329
-0.00200881
0.00312629
0.000490891
-0.00629426
-0.00260087
0.00230171
0.000392548
-0.00269154
-0.0055537
0.00706421
-0.00144541
-0.00121314
-0.00437366
-0.00117344
4.2503e-05
-0.000122784
-0.00744107
0.00752243
-0.000546269
-0.00232335
0.00287556
0.00218599
-0.000731942
-0.00145847
0.00179367
0.00324559
-0.000119875
0.00126208
-0.00783804
0.00666716
0.00122774
0.00054538
-0.00463314
0.00408443
-0.00122387
-0.0065404
0.00316617
-0.00312621
-2.35845e-05
0.0114854
-0.00544277
-0.00598921
-0.0021399
0.000625981
0.00151462
-0.0022249
0.00668676
-0.00439063
0.00287127
0.00860807
-0.00704388
0.000900754
0.00613259
0.000880417
-0.00100001
0.00400844
-0.00414247
0.000591172
-0.00513712
0.00528533
0.00832581
-0.00224291
-0.00611989
0.00246846
-0.00730805
0.00478343
-0.00656511
0.00602129
0.000509552
0.000387564
0.00372434
0.000858543
-0.00506895
0.00410743
-0.000563773
0.000563773
0.00211074
-0.000200065
-0.00190646
-7.67929e-05
-0.00182844
0.00190719
-9.17067e-05
0.00342221
0.000287789
-0.00491706
0.00462602
0.00127021
0.000870291
-0.00213939
-0.00227237
-0.00447222
0.00682399
0.00702003
-0.00459566
-7.03334e-05
0.00874921
-0.00427856
0.00386715
-0.000246636
0.00157617
-0.0017892
0.00259057
0.00511368
-0.00781168
0.000465138
-0.00424273
0.00379683
-0.00078096
-0.000590082
0.00298182
-0.00589996
0.00918668
-0.000774325
-0.00853374
-0.00600154
-0.0019071
0.00791208
-0.00666521
0.000777009
0.00749719
0.000562379
-0.00110241
0.000540158
-0.00772485
0.00559748
-0.00127145
0.00226294
-0.00686298
0.000775886
0.00610197
-0.00749575
0.0076486
-0.000176564
-0.000196205
0.00231193
-0.00308126
-0.00472736
-0.00132258
0.00206078
0.000787747
0.00230825
-0.00308334
0.00285143
-0.00157964
-0.0109305
0.00266145
0.00820814
-0.00256293
0.0020224
0.000797796
0.00533538
-0.0061369
0.0013846
-0.000590393
-0.000794177
-0.000522476
0.00224853
-0.00172023
-0.00503012
0.00578319
-0.0025726
0.00213649
0.000443469
0.000899055
-0.00115464
0.000255659
-0.00433945
-0.00267039
-0.00275402
0.000312383
-0.00103521
-0.00110385
0.00494609
-0.000710003
-0.00420854
-0.00784632
0.00185826
-0.0055205
0.000700296
0.00484141
-0.00120622
-0.00103198
0.00224339
-0.00385642
-0.000618469
0.00454575
-0.00530337
0.00781013
-0.00141034
0.00275419
-0.00133257
-0.00116547
0.00465772
-0.00362477
-0.000679451
-0.00594803
-0.000254957
-0.00347399
0.00373596
-0.000113965
0.00613222
-0.00609118
0.000390673
-0.000185249
-0.00016765
-0.000477807
0.00182997
-0.00135488
0.00124445
-0.00109129
-0.000153064
-0.000124305
-0.00363133
0.00333218
0.00367548
3.78082e-05
-0.000141266
0.00461828
-0.00446295
-0.00676687
0.000956986
-0.000124903
-0.00244404
0.00122153
-0.000449181
-0.000772273
0.000275537
-0.00101848
0.000742966
-0.000484106
0.00233919
-0.00184925
-0.00852885
0.00578196
0.00274226
0.00577571
-0.0059595
0.00570609
-0.00599641
0.00035304
-0.00597765
0.00677275
0.00104502
-0.0020498
0.00100528
0.000986662
0.000235006
0.000448283
0.000656706
-4.25453e-05
0.00128711
-0.00427611
0.00364937
0.000659373
0.000276091
-0.0095384
0.00944202
0.00165958
-0.000778745
0.00152475
0.000330317
-0.00185393
-0.0028234
0.00247101
0.000357715
-9.80462e-05
0.00208105
-0.00199719
-0.000732292
-0.000216792
0.000949074
0.00126342
-0.00742885
0.0062087
0.00156745
-0.00173434
-0.00342432
0.00334476
9.18362e-05
-0.0044242
0.00429628
0.000576333
0.000561454
-0.0087227
0.00604414
0.00274486
0.00400356
-0.00320019
0.00388586
-0.00432418
-0.000728875
0.00129139
-0.00163367
-0.000354421
0.00199206
-0.0031353
0.00676632
-0.00363528
-0.00107695
0.000361194
0.00071578
-0.00481725
0.00437034
0.000425799
5.35465e-05
0.00110293
-0.00115644
-0.00198672
-0.00349317
-0.00205651
0.00157615
0.00067011
0.00099007
-0.00134229
0.00242246
-0.00108067
0.00172404
-0.00107312
-0.000650254
-0.00434413
0.0043938
-6.7493e-05
-0.00802521
0.000948131
0.00714463
0.00342173
0.000103333
0.00154912
0.00254979
-0.00409073
-0.00290498
0.00234019
0.000570793
0.00141658
-0.00456348
-0.0112263
0.0033254
0.00786843
0.00151756
8.23427e-06
-0.00615081
0.00507407
0.00079642
-0.00603346
-0.000803558
0.000857137
0.00231035
-0.00349174
0.000708849
0.000967235
-0.000826426
-4.51788e-05
0.00111351
-0.000631018
0.000140347
0.000700053
0.00102498
-0.00106282
-0.00105454
0.0013134
-0.00140962
0.00245501
0.001478
-0.000169207
-0.00130899
5.77275e-05
0.00457596
-0.00155711
-7.61657e-05
-0.00731978
0.00150488
0.00589155
0.00665804
-0.00717864
0.000661261
0.000611745
0.00179753
-0.00240425
-0.00349208
0.00935027
-0.0059165
0.00396216
-0.00347721
0.000630728
-0.00488616
0.00426404
-0.00159252
0.000217435
0.00137532
-0.00275685
-0.000528721
0.000965032
0.00190113
-0.00284212
-4.24262e-05
-0.00336468
0.00338444
0.000251426
0.00126623
-0.00151775
-0.00206797
-0.00690109
0.00884309
0.00136757
-0.00225374
0.000891549
0.000476049
-0.0024659
0.00604028
-0.00161329
0.00159778
1.62412e-05
0.00923172
-0.00878752
-0.00200529
0.00250392
-0.00250496
-0.00382337
0.00296025
-0.00320897
0.00665039
-0.00594833
-0.00092507
0.000440963
0.00220614
-0.0029933
0.00513947
-0.00169576
-0.00346747
0.000230486
0.00181268
-0.00208415
-0.00651905
-0.00203668
-0.00556543
0.0065896
-0.000840035
-0.00139654
-0.00281552
-0.000156065
0.00912283
0.00191408
0.0072327
-0.000916954
0.00135235
-0.000655175
-0.00443295
0.00471832
-0.00440633
0.00128223
0.00316948
7.65625e-05
0.00122067
-0.00257524
0.00220934
-0.000152051
-5.76266e-05
0.00802966
0.00375455
-0.00425434
0.000533151
-0.00144643
-0.000145702
0.00145391
-0.00193344
-0.000441988
-0.000634953
-0.000483697
-0.0023361
-0.00326945
0.00239192
0.000883363
-0.00350251
0.00301723
0.00342363
-0.0016926
-0.00174165
0.00119934
0.000837497
-0.0020451
0.00107721
0.00405804
0.00616199
-0.00834472
-0.00253737
0.00267442
-0.00333531
0.00489457
0.0015876
0.00488254
-0.00208263
-0.000220801
-0.00177205
0.00329946
-0.00150375
-0.00805684
-0.000149996
0.00193803
-0.00190704
-0.000994628
-0.00250946
-0.000115395
0.00159324
-0.000795775
0.0021303
-0.00181312
-0.000315714
-0.00212375
-0.00271518
0.00219909
-0.00201133
-0.00681142
0.00589177
0.000730471
0.00356156
-0.00232215
-0.00119516
-0.00420815
0.000408349
0.000186996
-0.00359145
0.00627967
-0.00867409
0.00245901
-0.00329887
0.00043862
0.000946028
0.00531148
-0.000284279
-0.00031414
0.00631564
-0.005964
-0.00140219
0.00259101
0.000586984
0.00563804
0.00118006
-0.00829776
0.00808957
0.000267958
0.00433586
-0.000547086
-0.00221354
0.00210029
-0.00362163
0.000876753
0.00276409
0.00047446
-0.00167629
0.0012108
-0.0004754
0.00336256
-0.000106652
-0.00747315
-0.00692248
0.000170897
0.00198574
-0.00173461
0.00074089
0.00813819
-0.00889953
0.00741194
0.000126728
0.00723044
0.00179927
-0.00906035
-0.00109725
-0.00615848
-0.000871318
-0.00213418
0.00296626
0.00368011
-0.000111193
-0.00355863
-0.00231527
0.000670843
0.00164529
-0.00143762
0.00150559
-6.73517e-05
0.00551143
-0.00383674
0.00209435
-0.00132605
-0.000767447
-0.00894508
-0.000318726
0.00895619
0.00305839
0.000505056
0.00491399
-0.00452637
0.000594818
0.000328559
-0.00169294
-0.000386824
0.0020826
-0.00174446
0.000572149
0.00117307
0.000217439
0.00466324
-0.0029463
-0.00152907
0.00116523
-0.00291597
-0.00680574
0.0055719
-0.00433967
0.0042819
8.29081e-05
-0.00329807
-8.87001e-05
0.000663296
-0.000642777
0.000696057
0.00188756
-0.00257172
0.000725784
-0.00142184
-0.00140759
-0.000737846
0.00190668
-0.00550475
-0.00198542
-0.000329492
3.29397e-05
0.000993346
-0.00119059
0.00477773
-0.000386804
-1.69414e-06
-0.00641388
0.006451
-5.78083e-05
0.00376196
0.000927637
6.05663e-05
-0.000988212
-0.00931541
-0.00350883
0.00298985
0.00406349
-0.0042742
5.26101e-05
0.00638167
0.000367364
0.0032641
-0.00223583
-0.00101616
0.000820014
-0.00216146
0.00279929
-0.000405659
-0.00200832
0.0014417
0.000567475
0.0015861
-0.00249465
-8.85347e-05
0.00411134
-0.00594582
-0.00303414
-0.00566956
0.000556193
0.00509319
1.75444e-05
-0.0011466
-0.000474833
0.00176692
-0.00129174
0.00836342
-0.00203436
-0.00468905
-0.00318049
0.00303902
0.000144039
-0.00613423
-0.00523338
0.00313476
0.00212292
0.00442826
-0.00227854
-0.000905385
0.00567349
-0.00149838
-0.0041588
-0.0027972
0.00379219
0.00232627
0.000524944
-0.00241589
0.00312648
-0.00581437
0.00134378
0.00449373
-0.000244575
0.00764614
-0.0073756
-0.00101057
-0.000996589
0.000753491
-0.00215441
0.00509196
-0.00211685
-0.00296478
0.000532342
0.00274568
0.010453
-0.00343554
-0.00681434
0.00983352
-0.000572628
0.00340265
0.00720077
-0.00238821
-0.00282789
-0.00174606
0.00132826
0.000418721
-0.00243892
-0.000275745
0.00271211
1.70809e-05
-0.00084366
0.000889013
0.00182997
0.00371545
-0.000408914
0.000408914
-0.00273866
0.0026172
0.00165606
-0.00739262
-0.000592846
-0.00596155
0.000544092
0.0051654
0.00110119
-0.000202055
-0.00913103
0.00733134
0.00174666
0.00013022
-0.00199973
0.00187
0.00126882
-0.00174354
-0.000535129
0.00283972
0.000256075
-0.00244818
0.00217564
0.0007446
-0.00332547
9.68746e-05
0.00324773
-0.000642459
-0.000969892
0.00385234
-0.000135392
-0.00407035
-0.00308957
0.00039573
-0.00129633
0.00129633
-0.000555944
-0.00428704
0.00487758
-0.000754729
0.00267598
-0.00193563
0.000793185
-0.00554963
0.00470663
-0.00108965
-0.00323358
0.000392242
0.000876223
-6.3614e-05
1.14596e-05
-0.00709294
-0.00409273
0.0016309
0.000537104
-0.0021649
0.000472141
0.00063079
0.00440473
0.00268667
0.0054872
-0.000984064
-0.00456161
0.00094795
-0.000499651
-0.00188512
-0.00866133
-0.00060359
-0.00222295
0.000476605
0.000983694
0.0036839
-0.0072684
0.000310108
-0.000217336
-0.00095598
0.00581897
-0.00500271
-0.0101657
0.00120101
0.00879179
0.000912613
-0.00273389
0.00519207
0.000106982
0.00108469
-0.00134689
-0.00453655
0.00162659
-0.000425083
-0.00120105
8.37149e-05
0.00292663
-0.00932983
0.0100414
-0.00141574
0.00164369
-0.000226214
0.00532006
-0.000184173
-0.00501843
-0.00169793
-0.00229403
-0.00130717
-0.00419992
-0.000437846
0.00647088
-0.0068367
0.000393612
0.00140124
0.0040805
0.00206055
-0.000549241
-0.001511
-0.00295959
-0.00341356
0.000109865
0.00500481
-0.000173454
-0.00481285
0.00105641
-0.00034144
-0.00470403
0.00477753
-0.00107355
0.0044049
-0.00014834
0.00956498
-0.0107199
0.00117181
-0.00777795
0.00105837
-0.0016307
0.000573192
-0.00962592
0.001192
0.00842366
-0.00336448
0.00335341
6.96228e-06
-0.00818622
-0.000548647
0.00869669
0.0048754
0.000783418
0.000473563
-0.000922683
-0.00461281
0.000825198
0.00374583
-0.00841865
0.00496505
0.00339098
-0.000876817
0.00012005
0.000222167
-0.000218373
0.00103048
-0.00081208
-0.0109847
0.00179129
0.00902749
-0.00154857
-0.00309253
-0.000633259
-0.00367191
0.00429229
-0.00540959
0.000566606
0.00105997
-0.00197275
0.0042996
0.00439558
-0.00898406
0.00770814
-0.0047357
-0.00270137
0.000252116
0.000216797
0.000672718
-0.00660215
0.00565778
0.00799834
-9.71709e-05
-0.000986407
0.000207674
0.000778762
0.00829409
-0.000100902
0.000837393
-0.0025441
-0.00293521
-0.000120166
0.0030554
0.00190492
3.20412e-06
0.00167492
-0.00246342
0.000796044
9.99891e-06
0.00106231
0.00351085
-0.000150079
0.001043
0.000293891
-0.00246634
-0.000437255
0.00769645
-0.00729493
-0.00747774
0.00726091
0.00128093
-0.0017983
0.00295431
0.00216421
0.0107762
-0.00132434
0.00288408
-0.000170853
-0.00270366
-0.00702786
2.23665e-05
0.00517639
6.69765e-05
-0.00331761
0.00395541
0.00424373
1.44415e-05
-0.00436858
-0.00194457
0.00272351
-0.000771681
0.00411038
-0.00851124
-0.00805975
-0.00155994
-0.000781804
-0.000302849
-0.000660549
0.00739877
-0.00677697
0.00375649
-4.61004e-05
-0.00104267
0.00526385
-0.00418217
2.24532e-05
0.00503316
-0.00147897
0.00337922
-0.0055026
0.00945987
0.00608248
0.000316035
-0.00117308
-0.00567336
0.00538636
0.000302305
0.000711736
0.00112651
-0.00184024
0.00450104
-0.00342019
-0.000495838
0.000224992
0.000255253
0.000459754
-0.00197745
0.00151955
-0.0085082
0.000739621
0.0079174
-0.00134776
-0.00710625
0.00576211
-0.00203267
-0.0042783
-0.00104291
0.0043494
-0.00333686
-0.00428941
0.00156593
0.00273253
0.00159044
0.000591984
-0.00838301
0.000660995
-0.00259718
0.00122752
-0.00230065
0.00255589
0.000469728
-0.000339047
-3.44394e-05
0.0070916
-0.00782961
0.000693831
-0.00445312
0.000258771
0.00428104
-0.00299075
-0.000151822
0.000556159
-0.00949072
0.00868371
-0.00038457
0.00125499
-0.000567945
-0.000586663
-0.00435003
0.00509203
0.00426338
-0.0019434
0.00359363
-0.00192473
-0.00169145
0.0015496
0.00199593
0.000938498
-0.0064625
0.00148787
-0.00167603
-0.000221597
-0.0023005
0.00232979
-3.02278e-05
0.0020519
9.25482e-06
7.11291e-05
0.00587004
0.000468263
-0.000672118
-0.00369456
0.000260868
0.00520228
-0.00753942
-0.00154612
-0.000862105
0.00117218
-0.000309969
-0.00299187
0.00299183
1.75947e-05
-0.00317896
-0.00694741
0.00626372
0.000590631
0.00249531
-0.00253769
-0.000411285
-0.00525215
0.00716025
-0.0018283
-0.000396119
-0.00355459
-0.00520707
0.000134215
-0.000292932
-0.000693462
0.000962364
-0.000490159
0.00106282
-0.0011368
7.403e-05
0.00278207
-0.00190948
0.00615064
-0.000361134
-0.00474826
-0.000138631
-0.00263917
0.00276748
-0.00234774
0.00277357
-0.00041122
0.000851229
0.000480402
-0.00133163
0.00114913
-0.000162309
-0.000495518
-0.00302746
0.00354604
1.86418e-05
-0.00347663
0.00335993
0.000114453
0.00455556
0.000217398
0.00304646
0.00468956
-5.14818e-05
-0.00335676
0.00100053
-0.000724978
0.000415708
-0.00145768
-0.00923153
0.00860885
1.96659e-05
-0.00266484
0.00264123
-0.00313739
-1.14686e-05
0.000289924
-0.00196171
0.0016598
0.000659651
0.00384719
0.0025572
-0.00268164
0.000130791
-0.00325524
0.00307245
0.000196053
-0.000464856
-0.000191166
0.00408495
-0.0030877
-0.00100635
-0.00364446
0.00395959
0.00113836
-0.00281263
0.000591591
0.0021945
-0.00188297
0.000406938
0.00147691
-0.000548114
-0.000287482
0.00262905
-0.00281507
9.2911e-05
-0.00482097
0.00476841
-0.00861252
0.0063455
0.00299254
-0.00263103
-0.000327857
-0.000523435
-0.00514079
-0.00780343
0.0074639
0.000286682
-0.00327053
0.00263978
-0.000960268
-0.00228329
0.00211865
0.000169732
0.000569441
0.00372933
-0.00415447
-0.00424341
-0.00141975
0.00121535
0.00416503
-0.00747801
0.00697212
0.000528714
0.00072122
-0.00136258
-0.00765783
0.00735315
-0.000127567
-0.000275606
0.00441925
-0.00415852
0.00100132
0.00132549
0.00409817
2.6175e-05
0.000419454
0.00175214
0.00115171
-0.00292316
-0.00639735
-0.00037243
0.00115134
-0.000778801
-0.00348159
0.00019554
0.00328707
-8.1269e-05
0.00371486
-0.00389674
0.00176131
-0.00157225
-0.000188639
0.00632706
-0.00299764
-0.00326385
-7.3226e-06
-0.000671048
0.00698469
-0.000665994
-0.00630358
-0.00766042
0.00061539
0.00696476
-0.000832121
0.000832121
-0.00134788
0.00385903
-0.0025119
-0.00676976
0.0015697
0.000724552
0.000237943
0.00459613
0.000365582
0.0075723
-0.000572741
-0.0059944
0.000839612
0.00512421
0.00143461
-0.00290041
-0.00341781
0.00303537
0.000382325
-0.0081286
0.000581772
-0.00322722
0.000214333
0.00297708
0.00416283
-0.00459576
0.00336197
-0.000667992
0.000876817
-0.00725382
0.00638087
-0.000300155
-0.00293261
-0.000813925
-0.00540263
-0.000410916
0.0043619
-0.00598607
0.00526112
0.000710792
-0.0108733
0.00923171
0.00173771
0.00155307
-0.000444202
-0.00110863
0.00414834
-0.00524332
-0.00118599
0.0019089
0.000608472
0.00737444
0.00360909
-0.00375121
0.00010296
-0.0022617
-0.00638224
0.00841601
-0.000219167
0.00337671
-0.00317869
-0.00523756
0.00423179
-0.000877123
-0.0026016
0.00605013
-0.000394211
0.00128769
0.000473801
-0.00295465
0.000205721
-0.000890217
0.00225186
0.00220595
-0.00347757
0.00368789
-0.00372195
0.000910512
-0.00134983
8.53921e-05
-0.00578571
0.00736508
-0.00961932
0.00637222
0.00234377
-0.00369114
0.000194162
-0.00721801
0.00698873
0.000473972
0.00123026
-0.000105949
-0.00112419
0.00242457
-0.00214866
0.00248689
0.00121702
-0.0037393
0.00236036
0.000445956
-0.0102976
0.00174872
0.00857207
0.00246179
-0.00238677
-7.26857e-05
0.00261433
-0.00255647
0.000737703
0.00683215
4.15369e-05
0.00284883
-0.00148892
-0.000392863
0.00122436
-0.000373138
0.00314828
-0.000568197
0.001402
-0.00083312
-0.00371571
-0.00589353
0.00548903
0.00040718
0.00166405
-0.00182685
-0.000654536
0.00371127
0.00111053
-0.00324357
0.00222995
-0.00284267
0.000523056
0.00375836
-0.00520732
0.00490704
0.000336511
0.00253444
-0.00107714
0.000240472
0.000178362
-0.001233
-0.00625289
-0.00303144
-0.000228381
-0.0016685
0.000684033
0.000984725
-0.000274727
0.00399251
0.00331203
0.000209196
0.00262289
-0.00277124
-0.000428698
0.000105083
-0.00227515
-0.000415055
0.00424293
-0.00379366
-0.00847528
0.00815189
0.000422898
-0.000211407
0.00542285
-0.00652301
-0.000557762
0.00112956
-0.000534726
4.74423e-05
-0.0025472
0.00249044
-0.00110228
-0.000566003
0.000157233
-0.00279988
0.0022266
0.0015761
-0.000610707
-0.000964939
0.00114364
-0.00103232
-0.000111236
-0.00058257
0.00185185
0.00281338
-0.000676679
0.000931933
-0.00262899
0.00221308
-0.000838545
0.00251269
-0.000184322
-0.00232891
-4.45245e-05
-0.00630331
0.000410134
-0.00867526
-0.00248571
0.000590694
0.000351761
0.00769404
-0.00851558
0.00084396
-0.0030227
9.25365e-05
0.00117878
-0.00192023
0.000740856
0.00393365
0.00310417
-0.00695743
-0.00872542
0.0103728
-0.00157816
-0.00364042
-0.00497996
-0.000306146
0.00450661
-0.00417891
-0.0049878
-0.00447322
0.005878
-0.00277018
-0.00306616
-0.00144935
0.00191066
-0.00112582
5.32451e-05
0.00438369
-0.000290537
0.00713424
0.000491039
-0.00108141
-0.00210984
0.000638639
0.00147
-0.00696582
-0.00758251
0.0071068
-0.00142791
-0.000674877
-0.00852703
-0.000443077
-0.000971506
0.00256694
-0.00252928
-0.00110419
0.000934829
-0.000317989
-0.00965187
0.00107577
-0.00584608
-0.000131389
0.00586816
-0.00702367
0.00653743
-0.00330453
0.00030077
0.00297653
-0.00306651
0.00492957
-0.000356632
-0.00108048
0.00643226
0.000122921
-0.00670062
-0.000442474
0.00483373
-0.00421492
0.000386157
0.00197498
-0.00235866
0.00845279
-0.000868602
0.00264709
-6.59928e-05
-0.00262909
-0.00242236
0.000557471
0.00186585
0.00375982
0.000317886
0.000701774
-0.00103352
0.000331813
-0.000193043
-0.000909252
-0.000518889
-0.00535521
-0.00892021
0.0015163
-0.00165935
0.000143743
0.000884842
7.68455e-05
-0.000961679
-0.00261376
1.04459e-06
0.00261119
0.00389504
0.00060728
-0.00192941
-0.00152393
0.00138194
0.000143096
-0.00309059
0.0032026
-0.000107635
-0.00676283
0.00678851
0.000259131
0.00364748
-0.00839024
0.00127524
-0.00139078
-0.00103954
0.00349211
-0.000474926
0.00183681
-0.00136016
1.10807e-05
0.00052445
0.000795339
0.000132305
0.00164926
-0.000319877
-0.00741485
-0.000484283
-0.00579873
0.0066272
-0.000832257
0.00144867
0.00258525
-0.000583956
-0.00660704
0.00417333
0.000189357
-0.00374791
0.00357618
0.000629606
-0.00102694
0.000397367
0.000959686
0.000407755
-0.00136757
0.00106429
0.000489269
0.00359236
0.000226983
0.00174489
0.00100012
-0.00273729
6.97281e-05
0.00244089
-0.0038206
0.00520044
0.00190575
5.75364e-05
4.72948e-05
-0.00388856
-0.000270531
0.00154578
-0.00339451
0.00311464
0.000244786
0.00052105
0.00699623
-0.00120261
0.00295275
0.00586499
-0.0016535
0.00226971
0.00277038
-0.00270699
-0.000406401
-0.0047176
-0.000239279
0.00459492
-0.00065059
-0.00353698
0.00426544
4.44027e-05
0.00221085
-0.00350236
-9.44139e-05
0.00745063
-0.00756167
-0.00294241
0.00269714
0.000249198
0.000660552
-0.00207013
0.00135056
-0.00117825
-0.000171989
0.0033814
-0.00360304
-0.000131918
-0.000381089
-0.00136861
0.00175025
-0.000687368
-0.00142426
-0.00106025
0.00177005
-0.00444165
0.000251235
-0.000885431
7.95766e-05
0.000805866
0.00104995
0.00814292
-0.00283206
0.00190884
0.0041263
-0.00481154
-0.000430688
0.00390927
-0.00347152
-0.00124024
-0.000389612
0.00163014
-0.00398018
0.000362563
0.00254912
-0.00344729
-1.22979e-05
-0.00141909
0.00259617
-0.000132429
0.00384024
-0.000190679
0.00229159
-0.00269979
0.000149014
-0.00691329
0.00682814
3.6315e-05
0.00287128
-0.00232627
-0.0070742
-0.000567538
0.00112368
-0.000727663
0.00294569
0.000363279
-0.00471565
-0.00397577
0.00380473
0.00592681
4.97941e-05
-0.00610635
-0.00116964
0.000679553
0.00530365
-0.00558335
-0.000143238
-0.0043488
3.50115e-05
0.000162829
-0.00525916
-0.000642701
0.00191959
-0.00127193
4.29499e-05
0.000446517
-0.00452059
0.00411443
-0.00605472
-0.000538222
0.00659492
0.000712024
0.00363302
-0.000559822
0.00135258
-0.000792631
-0.000148323
0.000148323
0.000275489
0.00107568
0.00378842
0.000182173
0.0010301
0.000495308
-0.00152571
-0.000103491
-0.000160349
-0.00323935
0.00313935
-0.000247269
0.00127879
-0.00165945
-0.000448305
0.00208201
0.00142314
-0.00446179
0.000526228
-0.00109384
-0.00188305
0.00228378
-0.000408942
0.000391348
-0.00440092
0.00399726
-9.40685e-05
-0.00012152
-0.00193912
0.00135719
-0.00665716
0.00629931
0.000179067
0.000758467
8.45279e-06
-1.46767e-05
-0.00664739
0.00650672
-8.58348e-05
-0.0033185
0.00289238
0.000438603
0.000114427
-0.000114427
0.000993346
-0.0017142
-0.000705908
0.0034561
-0.000372987
-0.000613843
3.48424e-05
0.00310842
-0.00072816
-0.00237029
-0.00494706
7.5954e-05
0.00108093
0.00437994
-7.80986e-05
-0.00433586
-0.000476043
0.00120076
0.00998415
-0.00895577
0.00263016
-1.94294e-05
-0.00191197
0.00084887
0.00106313
-0.00454248
0.000525065
0.00396467
-0.00110409
0.000242073
-0.000354036
2.20966e-06
0.00306888
-0.00141696
-0.00168502
0.00479236
0.00233996
-0.00737374
0.00599784
-0.000507915
-0.00651847
-0.00189985
0.000294002
0.00227237
-0.00231136
0.00051146
0.00180246
0.000166689
-0.00277976
0.00260134
-0.00021447
0.0030335
-0.00261462
-0.000473023
-0.000477375
0.0011792
-0.000858244
0.00262536
0.00642432
-0.00672849
0.000182215
-0.00230508
0.00270039
0.00418569
-0.000608486
-0.0035884
-0.00127961
0.00108655
-0.00674285
0.000912249
-0.00188615
-0.00239211
-0.00163358
0.00229462
-0.00396095
-0.00234251
6.37626e-05
-0.000293712
0.00154387
0.00143582
-0.00324862
0.000495838
-0.000390769
0.00141486
-0.00102364
0.0024155
0.000455539
-0.00249159
-0.00400783
-0.00412638
-0.00706463
0.00695777
-0.000138343
0.00150747
-7.43639e-05
-0.00731073
-0.00323191
-0.00399927
-0.00041544
-0.00556254
-0.00737829
0.00650789
0.000647896
-0.000183201
1.70955e-05
-0.00470423
-0.00344968
0.00365618
0.00298529
0.000134831
0.000642592
0.0076515
-0.000562129
0.00159225
-0.00110588
0.00706838
-0.00596594
0.000853414
0.000723137
-0.000311339
0.00265705
-0.00050652
0.00115571
-0.000649221
-0.0038667
0.00242182
0.00146027
0.00267991
0.000369473
0.000279293
-0.000936971
0.0006577
-0.00302967
-0.000382472
-4.14583e-05
0.00157743
-0.00224003
0.00066146
0.0002873
0.00259163
-9.07278e-05
-0.00132827
0.00428861
-0.00503542
0.000775094
-0.00167017
0.00214422
-0.00581811
-0.000876188
0.00119985
-0.000323599
0.00509029
0.00185705
-0.00698807
0.000953975
0.000276439
-0.00230022
0.00281439
0.00476573
-0.00409544
-0.000753636
0.000814196
0.00351441
0.00724714
0.000334146
-0.000144489
0.000623457
0.00350859
-0.00333106
-0.00139556
0.00265124
0.000975531
4.27885e-05
-0.00252692
0.00240562
0.00213565
-0.00290846
-0.00634548
0.000262023
0.00781925
-0.00570452
0.00497558
-0.00494117
0.00150811
-0.000448864
-0.00275765
0.000109298
0.00396155
-0.00330433
-0.000520266
0.00359658
0.000194813
-0.00262968
0.00250568
0.000125511
-0.00509721
0.00494099
0.00645858
-0.000727492
-0.00574671
-0.00119105
0.000314918
-0.00459042
-0.000740581
0.00536787
0.00938341
-0.00123454
-0.00128089
0.00406132
0.000304605
0.00621854
-0.00724954
0.000627414
0.000356608
-0.000816544
-0.00161038
0.00241537
0.000821218
0.000330259
-0.00708429
-0.000269112
0.00741963
-0.00398702
0.00447172
-0.000547552
-0.00118315
0.001731
-0.00724017
-0.00117789
-0.00584822
-2.85762e-05
-0.0023161
0.00254468
-0.000252651
0.00621868
0.000921359
0.000122022
0.00228017
-0.00233487
-0.00172457
0.00226495
0.00161295
-0.001175
-0.000437481
-0.000757232
0.0077579
-0.00699413
0.000328333
-0.00661909
0.00634108
0.00658102
-2.97031e-05
0.007584
-0.00142974
0.00484695
0.00363346
-0.00326773
-0.000785833
0.00152501
0.000694157
-0.00300594
-0.00852401
0.00136599
0.00716086
-0.00192698
-0.00500233
0.00677416
0.00789489
-0.0085762
0.000523873
0.00644616
-0.00739841
0.000610347
-0.00467987
0.00492627
-0.00025338
0.00127246
-0.000642795
-1.33492e-05
0.00344232
0.00360577
0.000312913
-0.000190626
-0.00117273
-0.000739539
0.00699566
-0.00684042
0.00668957
-0.00057461
0.000269792
-0.00458317
-0.000958929
0.00148597
0.00278258
-0.000286545
-0.000479885
0.000698784
0.00178428
-0.00197695
0.00152225
0.00266575
-0.000694699
0.00191586
-0.00122061
-0.000473856
-0.00345914
0.00403305
0.000313535
0.00119059
0.000244468
-0.00386807
0.00365548
-0.00553579
0.00551042
-7.0097e-05
-0.00120403
-0.00222575
0.00343452
-0.00315536
-0.00169272
0.00487348
0.000362592
-0.00273273
-0.000242898
-0.00038309
0.00619374
-0.00575639
0.00446991
-0.00359114
-0.000868056
0.00152113
-0.000395658
-0.00112499
-0.00198191
0.00355213
-0.00261635
0.000511069
0.00211014
-0.00415651
0.000278594
0.0039111
0.00121906
0.000305174
7.53871e-06
0.00384655
-0.00379374
2.90947e-05
0.00458053
-0.00391593
-5.50315e-08
0.00255901
-0.00765534
0.00736961
0.000421726
-0.00433983
-0.000228756
0.0045526
0.000133089
-0.00261109
0.00204729
0.000104056
0.0034758
-0.00165941
-0.000935504
-0.00103928
0.00197512
-7.36214e-05
-0.00242811
0.0024897
0.00435084
0.00042001
-0.00345525
0.00308726
1.81191e-06
-0.00308304
0.00773966
-0.000582671
-0.00481468
-0.00366439
-0.00211048
0.000287429
0.00182166
0.00437181
-0.000272702
0.00616004
-7.60568e-05
-0.000452866
0.000766271
-0.00115676
0.00179478
-0.00109383
-0.0030413
0.00108436
0.00150246
-0.00530421
-0.000617982
0.00228609
0.000134847
-3.39379e-05
-0.00589762
-0.00013066
-0.00549316
0.00535307
0.000727836
0.00256659
-0.000280896
0.00567988
-0.00218651
-0.00344235
0.00158192
-0.00277931
-0.000304561
0.000895074
-0.000590497
-0.00510565
0.00517908
-0.00399247
-0.00221737
0.0015286
0.01113
-0.0113418
0.00029439
0.000453755
0.00115962
-0.00107168
0.00141614
-0.00087565
-0.00384207
0.00227281
-0.00245769
-0.00415367
-0.0020975
0.00631083
-0.00322268
0.00356636
-0.000342412
0.000115518
0.00378503
-9.48465e-05
0.00440851
-0.00431207
0.000236055
-0.00119416
0.00716938
0.00232221
4.74726e-05
0.00147874
-0.00123431
-0.000243831
0.00341841
-0.00149573
0.00201442
0.000313919
0.00025524
0.000917084
0.00234306
-1.39761e-05
-0.000395265
0.00199576
0.00135018
0.000295261
0.00514978
0.000490518
-0.00567169
-0.00156775
0.00111748
0.000450173
0.00318974
0.00636924
0.000271678
0.000888606
-0.00262911
0.000790299
-0.00100865
-0.00180732
0.00139514
-0.00391262
0.000790356
-0.00391063
0.00304101
-0.00328123
-0.00345001
0.00356755
0.000293655
0.00248899
-0.00608731
0.00888481
-0.00278418
-0.00238179
-0.00208151
-0.0017747
-1.0462e-05
-0.00331823
0.00335461
-0.00978525
0.00123923
0.00848494
-0.00140456
-0.00280059
0.00420762
-0.000637989
-0.00871587
0.00181235
1.49688e-05
-0.000752386
0.00336427
-0.000523202
0.00110709
-0.00442554
0.00335945
-0.00370044
-0.00235241
0.00226777
-0.00391518
0.000294873
0.00373208
0.000495681
-0.000800228
0.0074835
-0.000794142
0.00608766
-0.000297627
1.34653e-05
-0.00541343
0.000734898
-0.00412332
0.000224978
0.00387015
-0.00018358
0.000160262
-0.000109784
-0.00605278
0.00397085
0.00577004
0.000789816
-0.00138715
0.00199438
0.00239532