/*--------------------------------*- C++ -*----------------------------------*\
| =========                 |                                                 |
| \\      /  F ield         | OpenFOAM: The Open Source CFD Toolbox           |
|  \\    /   O peration     | Version:  v2012                                 |
|   \\  /    A nd           | Website:  www.openfoam.com                      |
|    \\/     M anipulation  |                                                 |
\*---------------------------------------------------------------------------*/
FoamFile
{
    version     2.0;
    format      ascii;
    class       volScalarField;
    location    "100";
    object      omega;
}
// * * * * * * * * * * * * * * * * * * * * * * * * * * * * * * * * * * * * * //

dimensions      [0 0 -1 0 0 0 0];


internalField   nonuniform List<scalar> 
10042
(
0.0219037
0.0220482
0.0218013
0.0229258
12.167
0.0220699
6.30615
0.601794
0.0216997
0.0220084
6.27067
0.0228766
0.0215294
0.0214936
0.0234288
0.0220304
0.0220217
0.0222585
0.0219066
0.128807
0.021901
0.204468
0.0215811
0.0216146
0.0220556
0.0283651
0.0221329
0.0226399
0.021762
0.022328
0.0220174
5.91102
0.0220195
0.0222
0.0257617
0.0216265
0.0275863
0.0325692
0.0216291
0.0292051
0.140202
0.0230772
6.28243
0.0219867
12.3106
0.0597222
0.0222855
0.0967266
0.0267676
0.0486223
0.022167
0.0219998
0.0230982
0.0225058
0.0276205
0.0220625
0.0217612
0.0222565
0.0221914
0.0229147
0.0220432
0.0219997
0.0259499
0.0217896
0.0221971
0.022201
0.0220118
0.0716862
6.56433
0.021873
0.0224515
0.15538
0.02199
0.0315339
0.0219909
0.0216113
11.6508
0.0219174
0.0295773
6.70006
0.0260754
12.9194
0.021973
0.022723
0.0220172
0.0222139
0.0218815
0.15807
0.0219277
0.0218836
0.022086
13.1464
0.0227084
0.0219452
0.0222865
0.0218428
0.0219292
0.021845
0.028697
0.0217483
0.0222908
0.107299
0.812903
0.0222026
0.0225358
0.0504474
0.0219046
0.0219224
0.0219096
0.021435
0.0217065
0.0218233
0.0254756
6.45186
0.0221859
0.0218354
0.0219373
0.0219127
0.0218398
6.49718
0.0219205
0.358083
0.0220152
0.0219804
0.106062
0.0219759
0.453397
0.0276021
0.0487158
0.0218752
0.0305243
0.0219867
5.58556
0.199341
0.0217495
0.0577639
5.55981
0.0220929
0.101128
0.181419
0.0226475
0.0219339
0.0224262
0.152043
0.0217487
0.0218229
0.0572279
0.0215015
0.0218559
0.025092
0.0217101
0.0222555
5.29958
5.88537
0.0221863
0.0215247
0.022515
0.0219911
0.058292
11.4636
7.15498
0.130714
0.0219833
0.0217143
0.0220296
0.0219694
0.0590485
26.6738
6.43301
6.30768
0.0222249
0.0218359
13.4313
0.164169
0.0375324
5.11891
13.8978
0.0220013
0.08308
0.0312287
0.0226481
6.03989
0.0220605
0.0275072
0.0229528
7.33879
0.243708
0.022017
6.9022
0.0235429
2.91854
0.0224213
5.11007
10.6078
0.101442
4.40772
0.0249054
0.0219179
0.0215301
0.023229
0.0363354
0.0220487
0.0218162
0.171598
0.0220478
0.0216681
4.51288
0.0221577
0.0222603
0.0222429
1.44676
0.0218305
0.0547125
0.314199
0.0224915
0.253617
0.0219453
0.0219869
0.0648138
0.0217647
0.0255711
0.0226363
0.384831
0.0337484
0.0251776
0.0292437
0.359168
0.0218292
0.165651
0.0226233
0.021696
0.13317
0.0218445
0.0225882
0.0218281
0.0252713
0.0216961
0.0214787
0.0229026
0.0250799
0.0219904
0.0220194
0.0219872
0.0255374
0.0218358
0.0220266
0.021616
0.0225913
0.022342
0.0222689
0.0215314
0.0218633
0.0241226
0.506432
0.130728
8.08715
0.0380678
0.0368434
0.0236026
0.0671684
4.63028
0.0227244
0.0219085
0.0214962
0.0231662
0.0216966
0.241633
0.0228302
0.0218772
0.0222504
0.038115
0.0223792
0.293245
0.0374406
0.191708
0.0236283
0.0250384
0.0217018
0.0244568
0.0217687
0.032442
0.0218982
0.0284274
5.57949
0.0216705
0.0217746
4.70895
0.0611956
0.0219874
0.0220419
0.0238514
5.14163
0.0542683
0.159366
0.022182
0.0215262
0.0218299
0.0217128
0.363496
0.0218716
0.0220369
0.0218331
0.0219466
0.0335306
0.0236524
0.0762139
10.2697
0.0227457
7.98845
0.0218385
0.0242555
0.0221243
8.69323
0.106768
2.27981
14.7715
0.0215955
0.0228428
0.0218768
0.0238254
0.0293195
0.0222417
0.0323751
0.0217015
0.0214922
0.0220063
0.0826105
0.0222839
0.0232621
0.0219511
0.0235089
7.68242
0.0218384
0.0221768
0.0219882
0.0217642
0.0414206
0.101733
0.0366962
1.45766
0.0339862
0.0265774
0.0219667
0.0214764
0.0221426
0.022268
0.432427
0.0218981
0.0222026
0.107492
0.0218188
0.0244843
0.0228369
0.113415
0.0217745
0.0249913
0.0458321
0.032112
0.0231436
0.0219237
3.34111
0.0581274
0.0220892
0.041048
0.021945
0.0218483
0.0219428
0.0244344
0.942466
0.0236755
0.0222493
0.0227003
0.0222923
0.0222708
0.127266
0.021922
0.0215941
5.63388
0.0218343
2.32402
0.394145
0.0321486
5.04575
9.30797
0.0275124
0.139491
0.0221594
0.050411
0.0222913
0.0221984
0.21261
0.0220651
0.02407
12.6262
0.0219349
0.0219025
0.0491304
2.22972
0.022127
0.0215046
6.05928
0.107642
0.0218321
0.0720591
15.6766
0.0217635
0.022264
0.0216239
0.0218593
0.0214745
0.0216638
5.57577
1.13738
0.0222321
10.4892
0.0214961
0.0218717
0.620542
0.021898
2.67697
0.0587789
0.0227364
0.0215633
0.0215003
0.13858
0.0223073
0.0275097
0.022327
5.83431
0.0223861
6.09676
0.0232499
0.0219328
0.0218354
0.674087
0.0219489
0.0254273
0.0218595
0.0217595
8.01987
0.024999
0.0219249
0.0217327
6.64989
0.0218669
0.0253327
0.0231563
0.0217021
10.5063
5.08755
0.0218805
0.022133
0.0238333
0.021531
0.0220067
0.0219692
6.49109
0.0219933
0.0217092
0.0281784
0.568871
0.0583336
0.0222685
0.0309245
18.6918
0.0354616
0.021932
0.0219301
0.19846
0.0220363
0.0219392
0.0288501
0.0217323
0.0216649
0.022775
0.0215573
0.0375222
0.0219012
0.021953
7.84007
0.0217581
0.0221564
0.0220672
0.022267
0.0322217
0.021885
0.0217492
2.07507
0.0224395
7.25002
0.0226984
0.022282
0.0222767
0.131343
0.0218934
0.02193
0.0220128
0.0221491
0.0274117
6.8178
0.0218705
0.0372335
4.62511
0.0353009
0.0222611
0.0219543
0.0218714
0.0222035
0.0218495
2.0239
5.7794
0.0220752
0.0276272
0.0276542
0.0271416
0.0219978
0.0216533
0.32312
0.133297
3.33239
0.0215626
0.0219151
0.0218733
0.0218392
6.96455
0.0340903
0.0221563
0.0218134
0.0217868
0.0219694
0.318912
0.0249884
0.0221404
7.80783
1.37038
0.417711
0.0514295
0.0220145
0.0217591
0.0560228
0.0520732
3.89583
26.5555
0.0245234
0.0257073
0.0222107
0.0232097
0.0221245
0.0222001
6.60702
0.02161
0.0218419
0.0568416
0.0222106
0.245141
0.022548
0.136963
0.0289234
0.0222449
0.0227647
0.0257587
0.0373059
0.0514207
0.0816005
0.0222823
0.048578
0.0227548
0.0218434
0.0221192
0.0221687
0.0220332
0.0247641
0.0585688
0.0403207
0.0221436
0.0224906
0.0220087
0.0219079
0.12672
0.0219281
0.0231297
0.185693
0.0215599
0.0521697
0.075706
0.0220391
7.25051
0.0412536
0.0222102
0.273313
0.0218724
0.0222686
0.0219457
0.0219769
0.0222924
0.0236566
0.0219757
0.976095
0.0226486
0.0219593
0.0221203
0.0326476
0.0326879
0.0219758
0.0236722
0.0217599
0.031515
0.0219213
0.0290415
0.0215956
0.0228494
0.0215036
0.0219286
10.0799
0.0216312
0.111078
0.0219642
0.0224163
0.0217391
0.0324601
0.0220757
0.0426064
0.0219822
0.240235
0.0222622
5.63229
0.0214966
0.0233538
0.0222715
0.0219607
0.0219569
0.0236092
0.0220327
0.12147
32.9347
0.242569
0.0234385
0.035822
0.0218088
0.0378241
0.059629
0.0220117
0.0285408
0.085805
4.35862
0.0765523
9.30436
0.0265135
0.0220913
0.0222314
0.0241566
0.0236355
0.0343732
0.0216006
0.0231858
0.117944
0.0222649
0.0219093
0.0239918
8.53809
0.0232005
0.0298306
0.055665
0.0222516
6.5349
0.0216161
0.0218215
0.0223504
0.0217414
7.59096
0.0681536
7.50242
0.0220568
4.08433
11.0458
0.395701
0.0341424
0.0677489
0.164381
0.0397674
0.0219519
0.0218631
0.029632
9.76864
0.0218014
0.0287951
7.85987
0.0218949
0.021904
0.0218516
0.0227939
0.0219483
0.0217971
0.128705
6.7849
0.0217847
0.0219978
5.60888
4.18818
0.0218126
0.0219364
0.022155
0.0218626
0.674126
0.0679644
0.274324
0.0225329
0.0218977
0.0216886
0.02267
0.0220523
0.0317704
0.0225398
10.0678
0.0220046
0.0220756
0.0401535
0.0217972
0.0321695
0.0646432
0.0226216
30.9369
6.17545
0.0220964
0.0218457
8.76092
7.6518
0.034837
0.0218495
0.642118
0.183548
0.0253752
0.0219363
0.021995
0.0219214
0.340797
0.0234167
0.092476
0.0222686
7.18195
0.879682
0.0219574
0.0219856
0.114233
0.0221512
0.0217363
0.0248369
6.14799
4.19057
9.99679
0.0220722
0.0588662
0.0381515
0.0216405
0.0218453
0.0221942
0.319955
0.0222062
0.0219533
0.0588808
0.0219897
0.063552
0.0221116
0.0221073
0.0216853
0.0221518
0.182051
0.0221993
0.0218587
0.0406204
0.0548876
0.397557
0.0222103
0.090357
3.54808
7.27492
0.0228347
6.9172
9.44859
0.0218966
0.0215409
0.0225786
0.0231506
2.71044
0.023214
0.022123
0.0222064
4.32133
0.0366728
0.022022
0.0221426
0.0219308
0.0414385
0.0217504
0.021828
0.0305471
0.0227326
0.0222048
0.0217178
1.40842
0.0217764
0.0226529
0.0220274
0.0223015
0.153743
0.0222034
0.0229204
0.0220714
0.0244735
0.782094
0.0222919
0.361732
0.025535
3.21843
0.0216475
0.0232213
0.0300209
0.0900457
0.0494129
0.02253
10.1615
2.77096
0.0224297
0.0217734
0.380337
0.0220788
0.0222512
0.0217215
0.0222418
0.0498699
0.0222928
0.0222931
0.0637756
0.0279862
0.0227501
0.0307869
0.0226363
10.3185
0.0228167
0.851152
0.0218555
0.0568958
0.0362095
6.64912
0.0237113
6.57127
0.0222695
0.0243675
0.0220424
0.0220457
0.0218983
0.1304
0.0394375
0.0460926
8.90355
0.0221201
10.9462
0.024596
0.0217385
0.0307773
0.0295587
5.75519
0.0219797
0.027686
0.0504779
0.0231779
0.0408421
0.0222838
0.0215727
0.0222833
0.314168
0.022135
0.0220032
0.0217299
0.0217212
0.021933
0.0219868
0.0221944
0.021843
0.0221521
0.022384
0.0250015
0.0303195
0.021988
3.73876
0.0219509
3.14696
0.0363784
3.59352
0.0354639
0.0242114
6.37321
0.0331874
0.330337
7.90742
0.0410169
0.0221995
0.0218397
0.0227764
0.157983
0.0218558
6.17694
0.02186
17.3072
5.77521
0.052718
0.0225444
6.46372
6.76451
0.02304
0.0219763
0.0222639
0.0236799
0.021563
0.0216631
0.0570763
0.211044
0.0220779
0.0218499
0.0222911
0.681692
0.0594555
0.0221572
0.0248901
0.0898065
0.0223851
0.0220265
5.86168
0.0222407
0.0218694
11.2838
0.0238112
0.021933
6.00688
5.17264
9.55065
0.0219041
0.0230345
0.404558
0.0217288
0.0218243
0.0222844
0.0277993
0.0220424
0.0221117
0.022761
0.0450356
0.181147
0.0217779
0.0219199
0.0220788
0.0217935
0.0224758
0.0215967
0.142116
0.0282164
0.0219478
0.0219805
0.0217615
0.0219745
0.0222932
6.29863
0.0279866
0.0214968
0.0219199
0.0401771
5.79234
0.0220414
0.0219817
0.0220273
0.0215081
9.40405
0.0460693
0.0217078
0.022067
0.0288193
0.105429
0.0221699
0.0222828
0.0246897
0.0219075
0.0250518
0.022307
4.69111
0.0342742
0.0220695
0.0254831
13.5174
0.0277959
0.152787
0.0248257
0.418513
0.0222709
0.0219161
0.0244536
0.0647474
0.0218871
0.0216681
0.0222437
0.0223389
0.105021
0.121487
0.328583
0.022404
0.0219923
0.0278562
0.0219601
0.021955
4.96085
0.023505
0.0219356
0.0219805
0.291549
1.07428
0.0219908
0.0220364
0.0906786
0.0217065
0.0221041
0.0219282
0.0883035
0.0228263
0.0250659
11.3665
0.0222195
0.0221691
3.44846
0.0219043
0.16605
0.021893
0.0231812
0.0412151
0.021973
0.0220898
0.0219641
0.0231398
10.4794
0.0219129
0.0221355
0.215105
0.0253788
0.325843
7.43018
0.0462414
0.0222123
0.447843
0.021738
9.46178
0.0221687
0.0219793
0.021689
7.23313
0.0222124
0.0222985
0.0221606
0.0324009
2.99159
0.0277816
0.0482755
0.021896
0.0221356
0.0361189
0.0285649
0.0218306
0.0248832
0.0218757
6.05775
5.60648
0.0221398
0.0228087
0.0222231
0.377582
0.0221579
19.1578
0.0219758
0.0217592
0.0217024
0.022304
0.023405
0.0222715
0.0219869
0.0219756
0.76677
0.104222
0.0218307
0.024039
0.0233925
0.0403121
0.021768
0.0255024
0.022745
0.0219455
0.0230633
0.0292462
0.0222802
0.0219112
0.0264005
0.0217077
0.163184
0.0229304
0.143036
0.022086
0.0220365
0.0216895
0.0693968
0.0389707
0.0217637
0.0240554
0.070964
0.0223826
0.0217669
0.0251345
0.0222247
10.3839
0.222077
0.024694
8.41024
0.0229812
0.0331397
0.0918975
0.0369569
0.0316883
6.04483
0.0283237
0.12634
0.021922
0.0227524
0.0218359
0.0219299
0.0258075
0.0217456
0.193804
0.0219693
0.021979
0.0745587
0.0219351
0.0531348
0.0247174
0.0251663
0.0218627
0.0415969
0.187674
0.0214171
0.030344
6.88566
0.0412438
0.0216934
0.0283529
0.0219931
0.0217608
7.44301
0.0218266
0.0217794
0.0482179
0.0219432
0.0258588
0.0217297
0.0219996
6.01573
0.0218225
0.0216554
0.0243595
0.0219021
0.0214865
0.0222518
10.118
0.0221216
0.0220849
0.0215533
0.0825801
0.0223463
0.0242792
0.0219203
0.0339627
0.0225917
0.0218897
0.0227456
0.0221007
0.0217755
0.116909
0.0410366
0.028404
0.0233307
0.0445144
0.0729255
0.0270904
0.027751
0.0228395
8.06761
0.0219218
0.0219429
0.0219224
0.0222384
0.0348195
0.0218909
10.5088
5.67896
3.09326
0.0220846
0.0243867
0.0382786
0.0215195
0.0872225
0.0465193
0.838016
0.0645057
6.05829
0.073111
0.163526
2.25084
0.0279707
0.0226569
0.024853
0.0217651
4.94371
0.0224237
0.028762
0.0217941
0.0248413
0.0220437
6.18954
6.07219
0.0222038
5.86746
0.674833
0.173967
0.0449444
0.0640855
0.0216598
6.54407
0.0219567
7.29061
6.25504
0.0222045
0.0218958
0.0220011
0.0232347
0.024167
0.0344937
0.183649
0.0221254
0.022038
0.0248235
0.0222147
0.0220361
0.0258074
0.0218301
0.0220584
0.190565
0.0610653
0.0220401
7.70785
0.0225322
0.0222722
0.0232845
0.286466
0.0219341
0.0217255
0.110937
0.190456
0.0217458
0.0249237
0.676297
0.0532384
5.66439
0.021775
0.153231
6.61726
10.5871
0.0220833
0.0219064
0.0606768
0.0259546
0.0405508
0.0222883
7.85071
0.0482455
0.182326
0.022032
0.0219756
6.1295
0.173827
0.0221509
0.0222723
6.61859
0.0219147
0.0215717
0.0216677
0.0231376
0.022197
0.0291872
0.0220936
0.023238
0.0216149
0.0317313
22.6827
0.0585458
0.0338365
12.901
0.07571
0.021632
0.021759
0.0218396
0.0222837
0.129439
0.0293265
0.021874
0.0219699
0.021969
0.0216037
0.0318355
0.0216101
0.0474766
0.0235118
0.0221244
6.77742
6.51929
0.0221027
8.74176
0.0333382
0.0326198
0.0222642
0.0216135
10.6114
0.0737243
0.0219198
0.0217212
0.0219272
0.0259884
0.0222624
0.143191
0.0215177
0.0220587
0.0219752
2.59555
6.95938
0.0214946
0.0219786
0.151129
0.481312
0.0244117
6.14483
8.15938
0.021647
0.0221422
0.0221069
0.0229415
2.57447
0.0220364
0.0222844
0.19217
0.0930725
0.0222125
0.0219403
0.0711124
0.0222836
0.0220745
0.108626
0.0807547
6.06739
0.0219826
0.0723945
0.0403505
0.0551165
0.0229847
0.0271702
0.0219326
0.0219308
0.119683
0.0256098
0.0219939
0.0245897
6.12647
0.0215292
0.0218066
0.0215199
0.0754155
0.0219425
0.0220866
0.0214406
0.0219407
0.712938
10.0978
0.0221909
3.08668
6.80312
5.67248
0.0219289
0.0219283
0.0218249
0.0218827
0.0221173
0.022151
0.0216212
0.0220828
0.0217764
0.0241471
12.6755
0.0355738
0.238361
0.0289434
0.0220303
0.0230707
0.0318256
0.0221517
0.0218418
0.0394325
0.0315401
0.568128
0.0411343
0.0214774
11.0063
0.0226418
0.0214866
0.0218298
0.343935
0.0426636
0.0226748
0.0254757
0.0220723
0.0220948
0.0317802
0.040182
0.0269072
6.92624
0.0220841
0.0220304
0.656441
0.0368398
0.0249734
0.133594
0.0229047
0.0651593
0.266547
0.0650171
9.13759
0.0218242
0.0216232
0.0219378
0.0220468
0.0220949
0.0229648
0.0393673
0.0491977
16.1087
0.0220737
9.05732
6.59168
0.0236849
1.49143
0.0222001
0.0959586
8.21492
0.0219084
0.0946292
0.0215203
1.8717
0.0221978
0.198099
0.0218532
0.455848
0.0372397
6.37292
0.0218438
0.168337
0.0215725
0.0229046
0.285566
0.0218345
9.14074
7.22732
0.257914
8.72022
0.0949353
6.04019
0.0385502
0.0220148
0.0442672
0.0455112
4.55708
0.0220776
0.0220172
0.0225389
0.0477458
0.0219329
0.0222024
0.0221926
17.6882
3.03027
0.0219005
10.076
0.0579712
0.021724
0.0376449
0.027118
3.3608
0.0294285
0.0217587
0.670433
0.0220718
0.0219358
0.0220901
0.128912
0.0622804
0.0217478
0.0263645
0.0221109
0.0222607
0.0217895
10.1932
0.0222856
0.0218117
0.724298
0.22429
0.0237017
0.0217856
2.23403
0.0280149
0.0231682
0.0219386
0.0510004
0.0229413
0.0261819
0.0245901
4.73001
0.0430368
0.0605668
0.0214747
0.0305711
0.044499
0.0267736
0.022357
10.0274
0.0222527
0.153249
0.0218793
0.0221942
0.0298683
0.185117
0.0232132
0.0247207
0.0221144
0.0366378
0.0654001
0.0890542
0.0277565
0.0222924
0.0219645
0.0278012
0.0848653
0.0219325
0.0430192
0.0220134
0.0219336
5.99553
0.0218812
8.28545
0.0219249
0.0268546
0.0716509
0.0219255
0.0275976
0.100485
0.105704
0.0219329
0.0803043
0.0223695
0.0222634
0.0218885
5.59068
4.75725
0.0218981
0.0219228
0.0215611
0.0218064
0.0936778
5.73349
0.0219197
1.39824
0.0217268
0.0217947
0.0218857
0.373408
0.0227171
0.0237449
0.0219411
0.0219441
0.0219066
0.0222568
0.0222595
0.031685
12.9196
0.0215863
0.0219087
0.0410585
0.0690379
0.021792
5.97266
0.0519027
0.0217841
0.0214825
0.0219661
0.113913
0.0217199
0.0784226
0.0284523
0.0230368
0.0217814
0.0449622
0.0215216
0.136456
0.0275466
0.0223476
1.13232
0.598448
0.0214241
0.021852
7.51896
0.124165
0.0773175
0.0235075
0.0785175
0.021515
7.52381
0.0640022
0.0216435
1.83095
5.12376
0.0231287
0.0441205
0.0532528
0.0217538
10.5298
0.0221611
0.0262407
0.0296078
0.0222312
0.0220494
0.0517316
0.0218629
0.0218868
0.0218623
5.68497
0.021837
0.0219377
0.0217414
0.0218819
0.0218464
0.0222304
0.052932
0.0447803
0.0231519
0.0222499
1.55741
0.0222369
0.021832
0.0218886
0.0215638
0.0220854
0.0219712
0.0279753
0.0913325
0.0222243
0.030088
0.0493227
0.0217214
0.0274415
4.55275
0.0225793
0.0215256
0.0220804
0.0824973
0.0222033
0.0222031
0.0241667
0.0247065
4.61358
13.2117
0.0218201
0.0218611
0.0219386
0.0687539
0.022979
0.0217924
0.028075
0.0741302
0.0221487
0.0267329
0.022134
0.110061
0.193279
0.0225949
0.126874
0.0256601
6.26896
0.0222056
0.0218861
7.99152
0.117057
0.0242312
0.155221
0.09156
30.6742
0.0454802
0.684653
0.0252756
0.0243183
5.66541
0.0265549
0.188868
0.0287882
0.129612
6.83685
0.0222933
0.0221192
0.0219727
0.367212
0.0214467
6.39795
0.0358765
22.7234
0.0229056
0.117641
0.212953
0.0219467
0.022176
0.079006
0.029398
0.0220882
0.0240961
0.0773067
0.0776497
0.0782746
0.108427
11.769
0.148349
0.0221155
0.0222015
7.08622
0.0756634
0.0225688
0.0375377
4.91493
0.0221949
0.0233974
0.021936
0.028566
0.0220391
0.0221057
0.038362
0.0220837
0.0225344
6.22507
31.2901
0.0217248
0.0256234
0.0262766
0.196639
0.0425035
0.0222377
0.0219236
0.103475
19.1523
0.021923
0.0249935
0.022029
5.89454
0.0218241
0.0298055
0.317873
0.306679
0.0222721
0.139947
0.0882756
0.0575996
0.0255344
0.0220209
8.79037
0.0218101
0.025556
0.0222132
0.0280985
0.0215813
0.021584
0.0220271
0.0669499
0.0218143
0.0219773
0.0217457
0.0218286
0.0218602
0.0219903
0.0914963
7.53898
3.08583
0.025076
0.022056
0.0318022
0.0234065
7.50913
0.022285
0.182188
0.0216107
0.0219929
0.0222605
0.0344432
5.46299
0.0219543
5.93847
0.0221289
0.0215153
0.0229503
9.10258
0.0233007
0.0444831
7.68651
0.0222848
0.0221621
7.97377
0.0218764
10.7762
0.0220883
0.0311267
15.6292
0.0223346
0.0220975
0.021855
9.86937
0.0260179
0.0218611
0.786907
0.0219541
0.0224479
0.0842024
22.9506
0.196965
6.86727
7.41429
0.0737355
0.0234204
0.185962
0.248448
0.0217179
0.0218525
0.0227851
0.0259952
0.0786178
0.0219867
0.0252727
0.0218991
0.0219567
2.81314
0.0222253
8.9323
0.0215377
0.0305048
0.0620921
0.0218233
0.0215091
6.59469
7.09056
0.0649293
0.022081
0.0247886
0.0515136
0.0217613
0.0340523
0.103223
0.0393668
0.0230973
6.64938
24.9605
0.0215413
0.0221335
0.0216459
0.0221946
0.0224542
0.0262666
20.5976
0.0221206
0.0219577
0.0427157
20.3829
0.0215457
1.26025
0.0215539
0.138606
0.0579047
9.23098
0.0677581
0.0532651
0.0559275
0.0214863
0.0215034
0.255834
0.0253823
0.0220879
0.852881
0.0218221
0.0220845
0.0216139
0.0490642
0.221208
0.6116
0.146358
0.0276172
0.0292898
0.0218314
11.201
0.194083
0.0229614
0.0219689
0.0217102
0.0922017
9.96495
0.035739
10.7743
0.0228205
0.0217624
5.59132
0.0219338
7.33886
10.903
0.0216745
0.0295604
0.227699
0.0241135
0.0356335
0.0218153
5.86407
0.0257947
0.164651
6.03402
8.53561
0.0272238
0.0269581
0.0221368
0.156051
11.3407
0.0225771
0.0236227
5.96927
0.049033
0.0671785
0.0222635
1.6383
5.72806
0.0967114
0.0219326
0.025987
0.0218898
2.55076
0.0749528
0.0334807
9.7634
6.01659
0.0214824
0.1603
0.0221015
4.50911
0.0935978
0.0256944
0.0245012
0.948536
0.0213998
0.0628556
7.20902
6.1254
0.0229371
0.0220311
0.0217845
0.0890921
1.77227
0.180005
6.93375
0.0939183
0.041303
0.0217441
6.33984
0.0806439
0.0282704
0.194934
5.83988
5.75553
5.62436
9.12987
7.28216
5.957
0.0220469
0.0287129
0.0326816
0.0217466
11.1577
0.804121
0.0220191
8.71505
0.0221305
0.0219887
0.0217667
0.0306852
0.0218594
6.43903
0.0609495
0.216889
0.0216033
0.592159
0.0476963
0.435182
5.69158
0.0223711
0.0271699
0.037778
0.0666101
0.0217237
0.0215803
0.0218849
5.84967
0.0217736
0.0217358
0.17215
0.0229374
20.1599
0.0220456
7.29564
0.0219445
0.0220602
0.0219435
0.0219692
0.0260012
0.024291
8.69615
0.0309442
0.0358462
7.97944
0.0218086
8.37389
0.0217884
7.85921
0.36809
6.74035
0.0672108
0.0219594
0.0222726
8.239
0.0218698
0.0255664
0.0221124
0.0289645
7.48021
0.0218827
0.0218416
0.0218652
0.0222651
10.1666
11.122
0.0218092
0.0214389
6.51282
10.5739
0.0218536
4.94194
0.0222643
9.50697
6.98075
0.0692674
0.369749
1.06449
0.0858385
5.69423
0.0801037
0.0219573
0.0215292
0.0217794
8.59753
10.6661
0.0229137
0.0281108
5.65253
0.0218286
6.22762
0.021739
0.0217899
0.0215995
5.19206
0.0743166
0.0217258
5.59535
0.0222526
5.6864
6.51063
0.0217134
0.0221106
0.122318
0.0219474
0.02189
0.0218253
4.55535
0.0317272
0.0220311
0.0221307
4.29028
0.0219224
0.0407796
0.0219818
6.58218
0.0221017
0.106072
0.023313
5.72809
8.277
0.0310607
0.0851014
0.0562053
0.0220745
0.0767441
6.26915
0.0217144
0.0848631
0.0217592
0.571347
0.0218844
6.86598
4.45723
0.107368
5.69867
5.64252
0.0406433
0.0222684
1.97693
0.0219297
11.5067
0.0252596
1.00781
0.0218579
0.032509
0.0476691
0.0302422
0.0220893
0.0219244
0.0221957
5.88244
0.0736453
5.565
3.39599
0.027432
0.0216052
0.0546612
12.2296
0.0334237
0.021748
0.0220803
6.06424
3.78671
11.318
6.69443
0.0358173
0.0222529
0.0217712
0.051903
0.0512981
0.737621
0.021996
0.0220691
35.1838
0.0669856
0.0222854
0.063446
0.788408
0.10848
0.0215635
0.0484411
0.588681
1.11008
7.64715
0.216243
0.0218628
0.0222691
0.0220262
0.0222849
0.0219407
0.0220909
0.0332285
0.225119
0.0339556
0.026737
0.0287387
0.022188
0.0260003
0.0222634
0.0346885
0.0326072
0.0218084
0.028169
0.0218828
0.0218374
0.0224604
0.0221208
0.421198
0.0215694
0.0782398
0.621055
1.0116
9.10451
7.3405
0.0222905
0.0222368
0.0218941
8.48247
0.0217193
0.0214624
0.022175
7.67849
0.0310545
0.0338259
0.419586
0.0233206
0.0220307
0.0295235
0.0218701
0.0483109
0.0222854
0.0340705
0.0217754
0.021919
0.0228701
0.0234331
0.0245193
0.640531
0.0381377
0.114963
0.0608023
0.125682
0.0441332
0.0693459
0.0217137
5.95538
0.0243707
0.0265333
0.021924
0.0224145
0.127848
0.0219805
0.0649359
7.66933
0.0291208
0.377087
0.107642
0.0542334
0.0705283
0.0607205
0.0219224
0.0285402
0.0220906
0.0803438
0.0517752
7.90583
0.0217523
0.0483034
0.0262753
4.86419
0.321336
0.04607
0.0220984
0.052479
0.0215645
0.068761
0.0227001
6.22809
0.0216403
0.0257289
0.022015
0.0359598
0.128809
0.0305907
7.89363
0.0220381
0.0294017
0.0613878
0.0220138
4.24115
9.13928
0.160513
0.0535527
0.0479552
0.0217205
0.0217151
8.87584
0.105237
0.0215688
0.022239
0.0248692
0.0218892
0.435185
0.0217654
8.40731
0.150472
0.148843
0.0373823
0.0223005
0.0216534
0.0217605
0.158754
0.0817962
0.0264746
5.94503
0.0221746
0.0230615
0.0271127
9.79142
0.021473
0.320811
0.0214004
7.40741
0.0219047
0.0218895
0.0378773
0.0219839
0.0222064
0.142934
0.0220621
0.0222768
0.021726
0.0444452
0.0254666
2.09637
0.0219882
0.0220847
0.0218436
0.132318
0.0217983
0.0284355
0.0417077
7.70451
10.1689
11.3062
0.851475
0.420262
0.0413327
0.062785
0.0271318
0.0222512
0.0221211
8.02966
0.0575984
0.021535
0.0219595
0.0219518
0.0271759
0.0829318
0.0222518
0.0300182
0.121843
0.169008
0.119525
0.0219628
0.0222376
3.75568
0.0233392
0.0215487
5.05955
8.15404
0.0216814
0.0214212
0.026746
0.0220541
0.0378113
0.0222485
0.429677
0.0222726
2.05862
0.0219267
5.70665
0.0296716
0.0219352
0.0616
0.0215678
0.021822
0.0222647
0.0325731
0.52962
0.0218489
0.168495
0.0222855
0.0221997
0.11453
0.021625
0.0221286
0.0221025
0.0214655
0.0219507
0.0214828
0.0221671
1.91231
0.0218502
0.0217031
0.0577162
0.0216109
0.0219288
0.0221683
0.022105
10.1866
0.411675
0.0219693
0.0225484
0.0218092
0.0222855
0.178965
0.0220552
0.0219826
8.13672
0.0219561
0.0454027
0.0565754
0.0379567
0.0217624
0.200041
0.0219008
0.332654
0.0688684
0.0217801
8.5298
2.09533
0.0280685
0.123617
0.0218246
0.0218607
0.0452546
0.20268
0.0217227
0.0218532
0.0221257
0.0409641
0.0221043
0.036137
0.0221117
0.0474378
0.454996
0.0392091
0.169748
0.0218353
0.0240634
0.0226219
0.0233337
0.0216787
0.0218859
0.0228258
0.0231923
0.0682668
0.0223352
0.0939014
0.0217643
7.82786
0.0215143
0.0217696
0.0746729
0.0222715
0.108478
0.0867928
0.0373101
0.0217938
0.0228368
0.0218335
0.0373402
0.0220609
0.0554494
0.0252397
0.0221406
0.0216559
0.0273098
8.9799
0.031854
0.0521589
5.95926
0.310291
0.0388902
0.0215672
7.63878
0.0219376
0.0233316
0.0223688
0.104142
0.0218548
0.0353182
0.0276756
0.0234876
0.0221218
0.0252938
0.0222
0.0608395
0.0219271
0.0221863
0.0219456
0.0283423
1.96865
0.0219791
8.38017
0.0858595
0.0214426
9.91441
0.312997
0.0217164
0.0230794
0.0866383
0.0217852
0.0218903
5.111
0.0220273
6.41183
0.0253602
0.0245266
0.0226022
0.0221781
0.0219086
0.0217417
0.0608816
0.0224809
0.0219583
0.0219051
0.0220192
5.84799
0.0366624
0.0220274
0.0288379
0.150131
0.0663326
0.0218741
0.0219573
0.0219384
0.0248658
0.0227372
0.0223644
0.0267666
4.63589
0.0217225
0.0228599
4.33158
0.024504
0.102695
0.150116
0.0218638
0.02227
0.262156
0.0880007
0.169861
5.80189
6.65632
0.185719
3.7207
0.0217033
0.0229407
0.0216771
0.0221873
6.76269
0.0219686
0.0560056
0.0652493
0.0287234
0.02493
0.589625
0.0218949
0.0221173
0.0251925
0.0219286
0.0220482
0.0217129
0.0218729
0.0706255
0.0219319
0.0221245
0.0217743
0.0456876
0.0221326
9.55893
0.0219074
0.0226843
0.0218107
0.0222521
0.0226951
0.0219362
0.0379269
0.0228918
0.0219228
0.0281103
0.021988
0.0222646
0.0219807
0.0308745
0.0222144
0.0220319
0.0220457
0.0220594
0.0284586
0.0220184
0.0220055
0.107805
0.0220747
0.0219125
0.0235103
4.2723
0.0518084
0.0221749
0.0531766
11.5349
0.118278
0.19682
0.0238811
0.0227312
0.0264371
0.237697
0.0220157
0.21814
0.0222605
0.0218887
0.0282471
0.0220511
0.0717866
0.0785174
0.0653751
0.0228995
0.0219362
0.0284145
0.0271794
0.0228398
0.0242234
0.0230333
0.0441672
0.0751375
0.07417
0.0219233
0.0234908
1.82299
0.0230568
0.0222853
6.15893
0.53743
0.0219362
0.0222904
0.022843
0.0758948
9.72573
0.0219518
0.391319
7.43528
0.0381683
0.0596176
0.0215913
0.0234598
0.0225001
0.0840834
0.022232
0.0293728
0.0231451
0.29584
0.022194
0.0220611
8.48581
0.0232451
0.0229347
0.0221108
0.0222128
0.037952
6.06192
0.0277875
0.022042
3.81819
0.0949216
0.0221921
0.0219475
0.0218216
0.0240624
0.02164
0.181209
0.0218535
0.0242502
0.0249105
0.0604798
0.0261854
0.0218132
0.0271625
0.0241534
0.0218172
0.0974486
0.0217837
0.023256
0.0216801
0.0222719
24.2733
0.0283044
0.0221677
5.58027
0.0226315
0.0219444
2.46547
0.0689484
5.62412
0.021914
0.0228091
0.0218657
0.0224409
0.0229375
6.56981
0.0223327
0.0910049
0.0217268
0.0219202
0.023247
0.0219114
0.036488
8.32987
0.55
0.0219458
0.0217148
0.249917
0.0225011
0.0220787
0.0262648
0.0267763
0.431816
0.0848131
0.0227181
7.27959
0.0878508
0.0223864
0.0217003
0.0221293
0.0283193
5.80413
0.0222839
0.0655072
0.0225342
0.0220907
0.0215403
0.0220907
15.287
0.0268096
0.0217369
0.0237078
0.0220951
0.0252184
0.0214276
0.0228516
0.0219298
0.0226815
0.457593
0.0220318
0.0222133
0.0989559
0.0215852
0.0215366
8.38644
0.021871
6.31628
5.98186
11.2886
0.0264975
0.0221216
0.0214979
0.0221392
0.02147
0.0235869
0.19103
0.051431
0.451718
0.0854485
0.0240527
0.0215638
0.022751
0.0225524
0.0222725
0.0221173
0.0215276
0.0745081
0.0224159
23.7259
0.0222528
0.0226683
0.0222635
0.0220015
9.66644
0.143164
0.0284231
0.0214947
0.0532463
0.0228549
0.0219673
0.0811931
0.0214484
0.0230552
7.86981
0.0219539
0.0218851
0.0218839
6.79122
5.60543
0.0215623
0.0225544
0.0240509
0.0220884
0.0215751
0.0219445
0.022076
0.0218971
0.0218413
0.0218973
0.023801
6.58359
0.0379314
0.021929
0.0219259
0.0221915
0.0220565
0.0221779
0.0258721
0.0273705
14.9469
0.0256143
0.0221677
0.0223537
0.021941
0.0954599
0.0215833
0.0222238
0.023185
0.0285451
0.026563
9.1886
0.0220738
0.0299711
0.0226073
0.0225466
0.0221047
0.0215503
0.0227449
0.114053
0.169827
0.0217179
0.0369978
0.0759336
0.0222647
0.0392814
0.0382716
5.55402
0.0222495
0.0235174
0.0223664
0.0215756
0.077049
0.0219541
0.0219953
0.0518638
0.21275
0.192578
0.0217536
0.0219042
7.88665
5.57968
0.0215479
1.74829
1.04347
0.0218177
0.0215555
0.0216292
0.0220577
0.0221408
0.0215245
0.0282961
7.36163
0.0217404
0.0219551
0.0216829
0.0221585
0.0217901
0.0218301
0.0215166
7.85358
0.0219702
0.210367
0.0221493
0.0217962
0.0228107
0.0218304
0.0221762
0.0287975
0.0221557
0.0222777
7.12557
0.0219884
0.024697
0.0220204
0.0219581
0.0221415
0.0218081
0.117534
0.0220573
0.0221072
0.0219641
0.198664
0.0319677
0.0221038
0.0221759
0.0219328
0.0229318
5.83636
0.0233385
0.0236224
0.0219455
0.0221239
0.0219308
0.051732
0.0230206
0.0226634
0.426932
0.0443811
0.0218015
0.0248937
0.0219781
0.0222617
0.0218062
6.05095
0.0219576
0.0220572
0.0218008
0.0295438
0.0232669
0.0224726
0.021918
0.0217847
0.062196
8.77276
0.0218099
0.0553731
0.023425
0.0233355
10.5731
0.0217369
0.0219809
0.0219459
0.023538
0.0230212
0.0217891
0.0242228
0.021902
0.0993796
0.0214897
0.0217128
0.0247055
0.022143
0.0943574
0.0254099
14.7011
0.0655627
0.0222124
0.109124
5.75657
0.0222612
0.0243137
0.0220684
0.0252137
0.021775
0.0392929
0.0439639
0.0218748
0.0289185
0.0216918
5.77145
0.0221439
0.0232551
7.15316
0.0435721
0.023815
0.157528
0.0221571
0.0219949
5.80334
0.0217277
10.7568
0.02184
0.0218574
0.0753482
7.83338
0.021905
0.0427344
11.6781
0.0218487
0.0221755
0.021991
0.0269594
0.025242
0.0226719
0.0220024
5.61215
0.0219592
0.0224764
0.0219328
0.021891
0.0220357
0.02331
0.0282841
8.67764
0.0222316
8.42433
0.021934
0.0224538
0.0245063
0.0224513
0.0609774
0.0637179
0.0223168
0.0219162
0.0218214
0.0922969
0.0217004
0.0218257
0.52756
0.126948
0.0216888
0.0220001
0.0217492
0.0220897
0.0246105
0.0808284
0.0219617
0.0221272
0.0217407
0.022087
0.0219601
0.0215008
0.0266327
5.90443
0.0216914
0.0220849
7.74237
0.0218988
0.0383511
0.0220689
0.0298098
0.0550982
21.8403
0.0222613
0.0220542
0.0217844
0.0220872
0.0220408
0.0214396
0.0221449
0.0221273
0.0230779
0.0561421
0.0247597
0.0233321
8.01103
0.0220269
0.149137
0.0217093
0.0217388
0.0220137
7.03744
0.0218339
0.054613
0.0228592
0.0225715
0.0219335
0.0217414
0.021715
0.0222299
0.0218461
0.0218117
0.0481366
0.283243
7.59954
0.0217871
0.0494816