/*--------------------------------*- C++ -*----------------------------------*\
| =========                 |                                                 |
| \\      /  F ield         | OpenFOAM: The Open Source CFD Toolbox           |
|  \\    /   O peration     | Version:  v2012                                 |
|   \\  /    A nd           | Website:  www.openfoam.com                      |
|    \\/     M anipulation  |                                                 |
\*---------------------------------------------------------------------------*/
FoamFile
{
    version     2.0;
    format      ascii;
    class       volScalarField::Internal;
    location    "100";
    object      V0;
}
// * * * * * * * * * * * * * * * * * * * * * * * * * * * * * * * * * * * * * //

dimensions      [0 3 0 0 0 0 0];


value           nonuniform List<scalar> 
10042
(
0.0572189
0.111737
0.0375079
0.173521
0.00235601
0.12207
0.00784182
0.00552651
0.0597593
0.122368
0.00130313
0.176369
0.145774
0.153993
0.0226694
0.101129
0.109658
0.177444
0.0718933
0.00397158
0.142716
0.00848152
0.163274
0.135795
0.0989604
0.0199406
0.141125
0.0269098
0.0517029
0.034181
0.0865045
0.00136566
0.140816
0.0339027
0.0207631
0.135172
0.0225935
0.0160355
0.145373
0.0126125
0.00292935
0.0227663
0.00755806
0.043819
0.00238582
0.0151996
0.0236891
0.0126292
0.0205324
0.0224636
0.175029
0.0396437
0.0199917
0.0381269
0.019946
0.102193
0.0490712
0.0309625
0.0390546
0.022628
0.10044
0.0887618
0.0179489
0.0467731
0.0279302
0.0374394
0.0330482
0.0059503
0.00209784
0.0495086
0.040363
0.00271285
0.0416309
0.0122422
0.0358883
0.122978
0.00179582
0.0672634
0.0122768
0.0069144
0.0180335
0.00300938
0.0401582
0.0251218
0.0389841
0.170224
0.0529282
0.00499385
0.03549
0.070783
0.037084
0.00236416
0.0239642
0.0432296
0.0340613
0.041844
0.0864968
0.0425759
0.0187758
0.0465199
0.192294
0.00546858
0.00584412
0.158739
0.0277162
0.00696846
0.0516252
0.0833976
0.156369
0.0902227
0.134463
0.0638564
0.0202757
0.00174132
0.0305308
0.0667882
0.0592087
0.0567381
0.0479026
0.001917
0.0413717
0.00583407
0.035944
0.0671704
0.00698874
0.0346174
0.00599976
0.014183
0.00859199
0.0649305
0.0112356
0.0431318
0.00170528
0.00719244
0.0539552
0.00855996
0.00171683
0.0320927
0.0117667
0.00448315
0.0261937
0.0452594
0.0290195
0.00537338
0.0514276
0.0610671
0.00801681
0.0786813
0.0410104
0.0196883
0.0516445
0.172481
0.00596812
0.00187091
0.131592
0.146862
0.0271458
0.0693515
0.00807089
0.00150486
0.00137827
0.00804439
0.065792
0.0494188
0.0332532
0.046202
0.00610399
0.00189398
0.00140424
0.00211323
0.040722
0.0978686
0.00233701
0.0045622
0.00899148
0.00950178
0.00134149
0.0365341
0.00527654
0.0148917
0.0265147
0.00121162
0.0404957
0.0177305
0.022713
0.00221668
0.00533525
0.0301413
0.00133601
0.024775
0.00210203
0.0270157
0.00703269
0.00288883
0.00789644
0.00267891
0.0233099
0.0634009
0.147917
0.0242464
0.00961687
0.0245257
0.0663123
0.00340612
0.0373863
0.0848498
0.00156671
0.124818
0.169352
0.144161
0.00349985
0.184543
0.00741734
0.00318416
0.0284287
0.00436518
0.0412924
0.104543
0.00902012
0.0859536
0.018585
0.0267441
0.00368466
0.0146672
0.0134219
0.017417
0.00507307
0.0663424
0.00620773
0.0347952
0.0555911
0.00327259
0.0901906
0.0367624
0.0305817
0.0173898
0.0672825
0.174318
0.0275469
0.024053
0.0703153
0.0342003
0.0355691
0.0182364
0.0629664
0.0901783
0.165209
0.0264158
0.0405699
0.206709
0.135246
0.0525774
0.0183171
0.00294578
0.00656492
0.00127271
0.00868398
0.00991384
0.0191687
0.0146831
0.0078229
0.033702
0.0621458
0.163013
0.0275179
0.062698
0.00950127
0.0240497
0.0604122
0.140959
0.00857552
0.0373789
0.00355199
0.00992768
0.00489382
0.0183024
0.0270406
0.0715775
0.0131395
0.0409193
0.0144159
0.0394155
0.0186399
0.00201542
0.0707925
0.0518383
0.00946397
0.0134401
0.0404689
0.100089
0.0218666
0.0100052
0.0119688
0.00437703
0.169816
0.142349
0.0567797
0.0525902
0.00672006
0.0527876
0.086498
0.0824294
0.044419
0.01792
0.0165328
0.00584399
0.00259385
0.0213243
0.00354648
0.0647485
0.0160863
0.131562
0.00126198
0.00588404
0.00326356
0.00122923
0.107666
0.0228737
0.0425322
0.0206163
0.0165302
0.168037
0.0116464
0.116117
0.168889
0.035572
0.00548847
0.164824
0.0289364
0.0379515
0.0190207
0.00160453
0.0614448
0.122272
0.174856
0.0470928
0.0101421
0.00703254
0.00849559
0.00431233
0.0147884
0.0204261
0.0359111
0.143127
0.0299617
0.175882
0.00454142
0.0371444
0.033369
0.0167246
0.062574
0.017572
0.0241245
0.0148794
0.0340467
0.0173023
0.00958272
0.0140928
0.027882
0.0636734
0.00329294
0.00645972
0.0289659
0.0118059
0.081811
0.0918446
0.0907538
0.0175718
0.00358285
0.0248829
0.163032
0.0219473
0.175433
0.150953
0.00414851
0.0636526
0.0666677
0.00178753
0.0904461
0.006353
0.00444033
0.00987531
0.011253
0.00146366
0.0147369
0.00287952
0.127619
0.0181853
0.191067
0.0297574
0.0141425
0.133161
0.018861
0.00206445
0.14601
0.122743
0.00604231
0.00157224
0.0324194
0.0819218
0.00114965
0.00568504
0.0882539
0.00544222
0.00135747
0.0681956
0.164138
0.0782114
0.0598641
0.160964
0.0634293
0.00392551
0.00410441
0.0285149
0.00319576
0.147294
0.060061
0.00348588
0.040835
0.00574542
0.010267
0.023263
0.0791174
0.0813586
0.00382165
0.034915
0.0153035
0.0278115
0.00129414
0.0286181
0.00266833
0.0237986
0.106371
0.0578053
0.00328332
0.0988402
0.0180862
0.0450453
0.0427506
0.00135182
0.0219061
0.0462776
0.189954
0.00148988
0.0656654
0.0168041
0.0233243
0.0635089
0.00302597
0.0102131
0.0873108
0.032312
0.023923
0.129399
0.0933975
0.0692968
0.00125899
0.0786037
0.143946
0.012026
0.00644592
0.00841746
0.172135
0.0145366
0.00157876
0.0160599
0.0580818
0.0637607
0.00576168
0.030534
0.10754
0.0131559
0.0573567
0.0723304
0.0222868
0.0819513
0.00715026
0.0478777
0.0940311
0.00125323
0.108448
0.0384222
0.115863
0.0304874
0.0135535
0.0927937
0.0520141
0.00321574
0.03236
0.00524862
0.0278132
0.214296
0.174344
0.00546188
0.0455681
0.0559532
0.170252
0.0358167
0.0131839
0.00647443
0.062481
0.0090325
0.00178281
0.0173978
0.171415
0.0633331
0.0424311
0.147709
0.0624293
0.00197663
0.00126797
0.138637
0.0138733
0.0187104
0.0197414
0.0327852
0.148164
0.00760957
0.00493523
0.00236751
0.084206
0.0405572
0.0464538
0.0883807
0.00176126
0.0121515
0.02531
0.0483036
0.140197
0.0452493
0.00728608
0.0205337
0.120353
0.00117515
0.00164865
0.00218209
0.00737153
0.0938676
0.0423441
0.0200246
0.0102447
0.00229809
0.00203935
0.0176998
0.0164945
0.15235
0.0261681
0.0302782
0.144753
0.00141773
0.121056
0.064917
0.0146464
0.153211
0.00937686
0.028365
0.00822776
0.0135538
0.135179
0.0265699
0.0191016
0.0150776
0.00768331
0.00444442
0.178741
0.0220425
0.0281465
0.0475252
0.144367
0.0292692
0.0865681
0.0165949
0.00789687
0.0077487
0.117549
0.0241394
0.159949
0.0505393
0.00307227
0.135142
0.0240772
0.00633955
0.0794957
0.00813507
0.018273
0.0842843
0.00174748
0.0148309
0.140363
0.00401515
0.0318698
0.166651
0.0406827
0.0659202
0.168527
0.0173086
0.0329651
0.00161128
0.0259622
0.0655601
0.0342103
0.0121313
0.0137731
0.0695541
0.023008
0.0377951
0.0174875
0.045393
0.0135663
0.0633062
0.0253152
0.0872616
0.0925365
0.00221418
0.0732019
0.00414318
0.067278
0.0298187
0.117331
0.017107
0.124416
0.0126698
0.0403612
0.00360772
0.145869
0.00790188
0.0603098
0.0189165
0.167614
0.0413836
0.0908695
0.0174347
0.0772249
0.00306614
0.00180925
0.0115292
0.0192006
0.00887051
0.0653561
0.00832511
0.0144386
0.12418
0.0123586
0.00431706
0.0024613
0.0194701
0.00248701
0.0185813
0.0313288
0.151615
0.0239531
0.0146694
0.0184292
0.119459
0.0259113
0.00578458
0.169077
0.0448637
0.0237049
0.00261529
0.020781
0.0160107
0.0203758
0.125543
0.00731832
0.109194
0.0826878
0.0249908
0.0471942
0.00138983
0.0118076
0.00249476
0.153581
0.00219805
0.00174827
0.00493873
0.0180353
0.010791
0.00657022
0.00833158
0.0372575
0.0426181
0.011351
0.0012475
0.0561467
0.0116336
0.00394982
0.0434369
0.0868412
0.0408961
0.0243683
0.0791753
0.034237
0.00509385
0.00255593
0.0408375
0.118819
0.00154403
0.00617577
0.0569454
0.0591394
0.160836
0.0595496
0.00250157
0.0123528
0.00243897
0.0260021
0.0842324
0.0507499
0.0253986
0.0959177
0.0161159
0.0234631
0.00204418
0.0950517
0.130332
0.00976863
0.0565028
0.0186316
0.00506867
0.0309425
0.00140977
0.00226912
0.0316383
0.0603448
0.00429298
0.00149267
0.0101063
0.0307242
0.00576766
0.00277175
0.0148238
0.0394169
0.162703
0.148379
0.00310552
0.0194097
0.00428509
0.170932
0.000945822
0.00349986
0.0635221
0.0779126
0.00341108
0.0890637
0.089561
0.0175049
0.00168818
0.00261508
0.00262184
0.0382044
0.00998785
0.0095947
0.12133
0.125211
0.130526
0.00332803
0.163705
0.0635265
0.0110506
0.0348567
0.00821191
0.137172
0.100393
0.137792
0.121295
0.00731669
0.146347
0.0483617
0.0113536
0.0061271
0.00204359
0.159814
0.00558398
0.00626129
0.00446881
0.0234179
0.00125847
0.00139581
0.0479849
0.114925
0.0258458
0.0210285
0.00344372
0.0218414
0.141038
0.157131
0.00575938
0.00933531
0.0392097
0.152546
0.0520616
0.0100594
0.101276
0.161282
0.0179188
0.0255631
0.136781
0.0560711
0.00191379
0.0460109
0.0254124
0.0806451
0.0320093
0.00474319
0.143526
0.0232657
0.0945121
0.0215527
0.00240364
0.175832
0.00256942
0.0186152
0.00312208
0.128043
0.023641
0.0177576
0.00513156
0.00574341
0.0220681
0.00196715
0.00854018
0.0255653
0.162495
0.00522224
0.0977838
0.163479
0.0703256
0.164289
0.0119982
0.16345
0.165912
0.00463329
0.0149669
0.139276
0.0107003
0.0308876
0.00278984
0.0286949
0.0019208
0.0583407
0.0140338
0.00959552
0.00366829
0.0244874
0.00167043
0.170618
0.0212383
0.153517
0.0336866
0.0429479
0.00726069
0.00696248
0.0196662
0.000956441
0.151732
0.00138831
0.0272477
0.0580422
0.0117851
0.0139473
0.00274991
0.0760244
0.0115809
0.00662926
0.0218412
0.00594277
0.173054
0.100622
0.17684
0.00289599
0.103354
0.0934972
0.0762035
0.122087
0.0834966
0.0789815
0.0326996
0.0618146
0.112224
0.0278441
0.0170581
0.0119769
0.0771321
0.00361382
0.0411585
0.00231683
0.00962317
0.00164972
0.0114247
0.0278615
0.00130413
0.0131424
0.00198538
0.00583831
0.0106996
0.148832
0.0898034
0.0227924
0.00417849
0.0381036
0.00180167
0.0399551
0.00188239
0.00823785
0.0213057
0.028811
0.00175195
0.00129615
0.0230115
0.0655746
0.132162
0.0233178
0.104181
0.124468
0.00801912
0.0150934
0.103485
0.0491828
0.0285171
0.00277471
0.0189401
0.128603
0.0200284
0.00930163
0.0285703
0.102798
0.00175995
0.0335037
0.0388062
0.00150736
0.0199334
0.043971
0.00137361
0.00995588
0.00178277
0.048343
0.0229482
0.0044397
0.0728374
0.0406793
0.16435
0.0218636
0.095341
0.121239
0.0341085
0.006359
0.00267255
0.0810761
0.0404064
0.0998318
0.0415566
0.0253868
0.112734
0.00585796
0.0154704
0.0397758
0.0611127
0.0801328
0.119343
0.024164
0.00189268
0.019013
0.0748476
0.0637136
0.0062683
0.0036828
0.0800151
0.119394
0.0739644
0.0804302
0.00246152
0.0196319
0.168479
0.128022
0.0117867
0.00446657
0.120948
0.190622
0.0175038
0.0352442
0.0194897
0.0195451
0.00742107
0.0108742
0.0936866
0.0166412
0.00249753
0.0122882
0.00780064
0.0192852
0.00453831
0.163826
0.0389913
0.0226358
0.0137851
0.0433894
0.0482207
0.145473
0.0297245
0.00389077
0.00453707
0.0118039
0.029459
0.146805
0.0132974
0.042493
0.0292566
0.00690474
0.0203005
0.0374325
0.0668061
0.00242414
0.00339876
0.135755
0.031975
0.00779501
0.0484257
0.102867
0.0559353
0.0105502
0.0204236
0.0154438
0.00103828
0.030541
0.124442
0.00670907
0.10821
0.00324549
0.1603
0.0231682
0.00820974
0.0350718
0.119588
0.0400288
0.0257962
0.00210011
0.0556343
0.147552
0.00259441
0.0107901
0.00718652
0.00190426
0.00895406
0.162679
0.0040813
0.0460192
0.00305031
0.131003
0.0366299
0.176093
0.00140533
0.0934843
0.0227716
0.117242
0.0168513
0.00626442
0.0158398
0.00946404
0.0348922
0.147482
0.0107723
0.0148096
0.0858333
0.0168855
0.0529531
0.00536737
0.00166349
0.0888855
0.0188625
0.140327
0.0109037
0.127963
0.000902849
0.0676964
0.0450666
0.137051
0.0262799
0.0234029
0.153052
0.0541398
0.0404891
0.00576101
0.00816689
0.0422269
0.0228428
0.0234139
0.00889716
0.0440784
0.0137024
0.0266661
0.0404833
0.0197234
0.0187432
0.115029
0.117797
0.0148859
0.0522724
0.00456745
0.0241694
0.00407133
0.0309795
0.0965249
0.0466046
0.0175457
0.0103342
0.0795881
0.0231109
0.00990036
0.0171724
0.0814152
0.0149253
0.172662
0.00109195
0.00274349
0.0185796
0.00143711
0.0189874
0.0154375
0.00893546
0.00978277
0.0184087
0.00137074
0.0205057
0.00894432
0.034196
0.0258391
0.0465377
0.0438991
0.0128911
0.0565808
0.00235233
0.0355276
0.0336945
0.00509471
0.0601675
0.0138246
0.0228513
0.0173989
0.0349569
0.00692223
0.0163483
0.114661
0.0153386
0.00185497
0.00724099
0.0510714
0.0209921
0.121313
0.0456211
0.00321908
0.0741708
0.103376
0.0112366
0.0367995
0.0199034
0.0550435
0.0896785
0.00771727
0.0455279
0.0620649
0.0149524
0.0487658
0.0676563
0.115292
0.00261963
0.0309598
0.123899
0.0789152
0.00940008
0.0251043
0.0202437
0.0448883
0.0101355
0.0269067
0.0427568
0.0270511
0.08865
0.0991205
0.00395887
0.0101475
0.014746
0.0194209
0.0103441
0.00895272
0.0128549
0.0125103
0.021665
0.00402365
0.0454511
0.037274
0.12526
0.175409
0.0110762
0.146526
0.00291605
0.00120828
0.00445384
0.0999337
0.0153176
0.00993646
0.0893179
0.00443509
0.00697267
0.00219654
0.0140308
0.00165635
0.00911944
0.00590506
0.0028673
0.0146517
0.0327443
0.0111528
0.0589811
0.00261843
0.0248041
0.0111489
0.0639281
0.0168535
0.0941375
0.00148231
0.0027892
0.150478
0.00142973
0.00248463
0.0118188
0.011292
0.00738442
0.0771711
0.00172797
0.0395728
0.00442883
0.00102305
0.149552
0.034956
0.12059
0.0234956
0.0253125
0.00977089
0.00659547
0.144454
0.0772156
0.0168165
0.0297463
0.117153
0.016006
0.059381
0.0946642
0.0152863
0.00815599
0.0898363
0.00597598
0.0335593
0.161806
0.018651
0.00409563
0.0459268
0.0767459
0.0062263
0.00453002
0.0480955
0.0150769
0.00370433
0.0104203
0.00144909
0.0709894
0.0089912
0.00210507
0.00246744
0.115992
0.0349378
0.0140998
0.0147888
0.00740969
0.0259999
0.00183322
0.0114098
0.00422214
0.0347322
0.122142
0.00125738
0.0141169
0.116517
0.148953
0.00184467
0.0494689
0.0520359
0.0520486
0.0249306
0.143668
0.0114783
0.0313274
0.0225329
0.0905822
0.0161339
0.00176262
0.00565396
0.012407
0.00159535
0.0077374
0.0803718
0.0443824
0.0461356
0.127645
0.00636135
0.0120857
0.0410459
0.0388398
0.0652621
0.113572
0.0095695
0.0958516
0.0067662
0.0216808
0.131679
0.00281489
0.00132547
0.128084
0.00371538
0.00981443
0.0126517
0.152112
0.0787098
0.00173207
0.00846424
0.113028
0.0654249
0.0477538
0.0137377
0.171095
0.0101219
0.0940371
0.09501
0.0357949
0.00384838
0.00177547
0.0854888
0.0298968
0.00407479
0.00163138
0.0164716
0.00709592
0.00204344
0.0558034
0.143261
0.0307483
0.0244299
0.00310621
0.0792571
0.169592
0.00412267
0.00570439
0.13053
0.0623045
0.00467367
0.174373
0.0952055
0.00575182
0.00934544
0.00170292
0.124178
0.0152468
0.00780098
0.0126777
0.0159028
0.015174
0.0750734
0.1406
0.0041365
0.0162632
0.0827688
0.0183721
0.00144017
0.0907585
0.0586569
0.0889328
0.00460814
0.0867791
0.0996903
0.110814
0.0762417
0.00214871
0.0023144
0.0291027
0.00458981
0.00170271
0.00192441
0.0665466
0.0384724
0.0799968
0.0527472
0.104487
0.100494
0.107489
0.110382
0.101378
0.0175661
0.00120414
0.010166
0.0103782
0.0177137
0.105254
0.022391
0.0120455
0.0336
0.0616343
0.00940555
0.011943
0.0035073
0.0135271
0.0817173
0.00215007
0.0242188
0.0895056
0.0425499
0.00444012
0.0106974
0.0314147
0.0115608
0.0928918
0.107102
0.00927233
0.0138558
0.0217396
0.00442225
0.111005
0.132215
0.00224213
0.0103135
0.0181765
0.00651073
0.0269124
0.00596469
0.00492444
0.00678297
0.0013475
0.0503722
0.054414
0.10399
0.0839591
0.0996588
0.0250738
0.0127214
0.0196466
0.00200715
0.107443
0.00375585
0.00324849
0.0270008
0.00243243
0.0361373
0.00558907
0.00121438
0.103362
0.00538994
0.0718708
0.00186237
0.150392
0.00646191
0.062775
0.00394985
0.0163805
0.00126793
0.0872757
0.00682062
0.0630601
0.0265421
0.00720604
0.0879068
0.00115326
0.00176339
0.0103007
0.00318243
0.00896867
0.00180556
0.0103932
0.059828
0.00739096
0.011131
0.00784252
0.101863
0.130203
0.0235591
0.00940038
0.0397398
0.0354727
0.0287149
0.00193403
0.00557803
0.0363561
0.00289581
0.00547539
0.0835918
0.00975713
0.013836
0.00656152
0.0136537
0.0393322
0.00235645
0.0969026
0.104999
0.128873
0.00669644
0.00915043
0.0350483
0.0144583
0.104274
0.158633
0.112765
0.00196516
0.152151
0.114628
0.00814252
0.00626126
0.022066
0.037846
0.00215531
0.0112149
0.0203492
0.0390096
0.00655769
0.0257183
0.0192968
0.0188759
0.00463084
0.00845744
0.0101394
0.0820726
0.0207545
0.0184359
0.0199859
0.0182134
0.0023828
0.159142
0.00874706
0.065695
0.128839
0.0229509
0.00686259
0.0244095
0.0222986
0.118344
0.00744031
0.00983613
0.0123973
0.0141366
0.164011
0.127096
0.0125887
0.0135084
0.0847997
0.010225
0.112882
0.0673431
0.00142716
0.0522573
0.00182621
0.0433105
0.0129221
0.0101193
0.037209
0.0183554
0.015825
0.00741409
0.0415572
0.0138156
0.029923
0.15152
0.0454391
0.00168506
0.00613583
0.0427933
0.0416618
0.0665628
0.0522422
0.00632649
0.00665998
0.0405936
0.00156414
0.0796782
0.115646
0.0756527
0.00689217
0.0257382
0.023592
0.0611847
0.037775
0.0319589
0.1833
0.172928
0.0131171
0.00176001
0.057251
0.037294
0.00774741
0.00886539
0.0691185
0.00437837
0.0101766
0.0567637
0.0492252
0.0377267
0.00835112
0.0561461
0.0131881
0.0142857
0.0248579
0.057596
0.0110654
0.0862589
0.00337376
0.013595
0.0191147
0.0080259
0.00484486
0.111472
0.0610523
0.00103354
0.00484147
0.00971033
0.0284951
0.012263
0.0722096
0.0020734
0.0137644
0.0534283
0.00187283
0.0109831
0.0210066
0.0103676
0.0114312
0.0458258
0.0030353
0.0304979
0.0188715
0.0144157
0.0289386
0.116335
0.00771489
0.0720427
0.11222
0.077375
0.00183956
0.0447809
0.145032
0.0534534
0.0717874
0.0404189
0.146853
0.0133573
0.00679768
0.0245786
0.140207
0.00229706
0.0285103
0.142775
0.0408057
0.0544168
0.0963322
0.124973
0.0196059
0.00966367
0.13387
0.0137698
0.00639405
0.0553834
0.0133954
0.00244619
0.0265384
0.125626
0.0942832
0.00448875
0.133373
0.149849
0.0190865
0.016576
0.00440353
0.00130887
0.102962
0.124187
0.0760133
0.00494185
0.160833
0.0584147
0.0116701
0.00479443
0.0301923
0.011895
0.109955
0.00601467
0.0102082
0.0279125
0.00370319
0.0131828
0.00150107
0.132589
0.0704722
0.00200855
0.00378429
0.019792
0.0112685
0.00423302
0.00177795
0.00685974
0.00233589
0.012685
0.0220963
0.00149366
0.0143731
0.0128071
0.0186502
0.00521799
0.00142322
0.162751
0.030713
0.0778751
0.00367092
0.0897283
0.0011376
0.0146419
0.00192616
0.0227651
0.00387495
0.00461218
0.122332
0.0299859
0.00460177
0.0134516
0.0977733
0.0274439
0.00496559
0.00736585
0.00663333
0.0098796
0.00157216
0.00438926
0.133285
0.14962
0.00360578
0.00461744
0.0260993
0.00935781
0.00196289
0.0355518
0.0237801
0.078591
0.0122566
0.124106
0.109499
0.00810607
0.0317038
0.155376
0.00136376
0.00155255
0.124261
0.0139656
0.0181616
0.0036053
0.00744123
0.0284142
0.108185
0.00469311
0.00177834
0.0613656
0.0171987
0.0328142
0.00672065
0.0583972
0.0136533
0.00684835
0.00744584
0.15749
0.00350524
0.0064992
0.0100459
0.0148165
0.118807
0.0020418
0.0584359
0.020361
0.0339501
0.0177983
0.0763665
0.0543007
0.0331995
0.00888717
0.0607192
0.124913
0.0473763
0.0427691
0.0647454
0.0339622
0.00821598
0.0030621
0.005586
0.0154397
0.0870271
0.00910918
0.0233561
0.0019788
0.159676
0.00270692
0.129696
0.0725535
0.0306949
0.0142813
0.00623818
0.0630058
0.00131618
0.0317176
0.0786933
0.0244867
0.00366023
0.0194203
0.00669793
0.00186307
0.172818
0.0288204
0.00108032
0.0527422
0.00231474
0.092745
0.0163329
0.00152664
0.0309833
0.1111
0.123622
0.00116959
0.0193399
0.0639786
0.00223547
0.0790767
0.0281655
0.00774744
0.00173335
0.00352503
0.00184956
0.00318152
0.0048296
0.0210351
0.00262674
0.00499522
0.045692
0.0480167
0.0216271
0.0202048
0.00445309
0.081632
0.0157968
0.0904858
0.0808277
0.00330817
0.148092
0.00159392
0.0775787
0.0196456
0.014369
0.112002
0.0679925
0.00171602
0.00185327
0.00679909
0.112512
0.0218395
0.0193641
0.0794441
0.015159
0.00762621
0.0163677
0.155715
0.00158667
0.00170838
0.129622
0.141331
0.11294
0.145194
0.0295474
0.0215994
0.00181308
0.140962
0.061119
0.0186524
0.00165223
0.0764116
0.00384539
0.067049
0.00500955
0.00944512
0.0027986
0.0167934
0.00587355
0.00562517
0.0816897
0.0912657
0.00444966
0.0129954
0.104417
0.00327603
0.0598757
0.0974424
0.0880948
0.0115674
0.00268875
0.00322329
0.00342654
0.0177905
0.0135962
0.0446639
0.00172866
0.0112937
0.0221671
0.0596873
0.0511473
0.013983
0.00222419
0.0107813
0.0023425
0.0284113
0.0660437
0.00155743
0.0391468
0.00188845
0.00261101
0.158669
0.0137036
0.0102176
0.0135786
0.0100237
0.0493645
0.00161608
0.0191092
0.00335024
0.00125294
0.00299566
0.0183809
0.0221049
0.117181
0.0045847
0.0019089
0.0325118
0.0233869
0.00173135
0.00616405
0.00550749
0.184785
0.0106345
0.00133627
0.00413942
0.0371209
0.0189014
0.0896302
0.00325419
0.00826636
0.0130665
0.00299107
0.00146733
0.0770702
0.00569014
0.112451
0.0035645
0.00393362
0.0214361
0.0210575
0.00332153
0.120881
0.0124028
0.00113127
0.0019826
0.0232666
0.124074
0.0900466
0.00438199
0.00314119
0.00451257
0.0017999
0.0147341
0.00968173
0.148772
0.00161632
0.00904251
0.0139275
0.00332087
0.00115674
0.00152416
0.00144636
0.0016409
0.00137657
0.00153573
0.0321249
0.0108157
0.0128736
0.0536671
0.0017003
0.00334095
0.125015
0.00420245
0.116055
0.0677842
0.0984102
0.0109611
0.0744576
0.00154583
0.00524828
0.0107793
0.0547969
0.00340103
0.00677645
0.00390567
0.00140686
0.0304
0.0190943
0.00977669
0.00490839
0.0592477
0.0489349
0.0883844
0.00141255
0.0815495
0.0289596
0.0140435
0.0249662
0.00210568
0.118219
0.00186404
0.0587721
0.104589
0.037977
0.0367646
0.0199751
0.021586
0.00189778
0.0098124
0.0164358
0.00287166
0.0495335
0.00203407
0.0617227
0.00194535
0.0138596
0.00178586
0.00906725
0.0370389
0.146852
0.00343388
0.0422307
0.0180748
0.118605
0.0175254
0.00199631
0.147207
0.0831083
0.0544302
0.134355
0.0028094
0.00247387
0.0467513
0.115043
0.00154523
0.00229038
0.0636959
0.00863938
0.141458
0.00213963
0.00180239
0.0134336
0.00383056
0.00137057
0.00437381
0.00128797
0.0142332
0.0428995
0.0856788
0.087176
0.00206251
0.00254988
0.0245505
0.0121334
0.00147882
0.0604213
0.00122188
0.0429488
0.0448202
0.0664519
0.00312602
0.0142547
0.0553682
0.00140722
0.165683
0.00478153
0.0063782
0.05624
0.0973775
0.00677796
0.0566604
0.154037
0.101493
0.00633479
0.0100779
0.122207
0.132116
0.0099967
0.0390918
0.0087436
0.0807045
0.00181464
0.117052
0.00469052
0.15493
0.0016207
0.00443763
0.0139702
0.0135604
0.0105305
0.0936797
0.00516262
0.00174567
0.0537241
0.00783729
0.0790228
0.00353281
0.070901
0.00200358
0.0108865
0.00375776
0.00146146
0.00176412
0.00803449
0.0317598
0.00305169
0.122023
0.00202523
0.0148965
0.00314152
0.0524602
0.0101244
0.00886576
0.0122938
0.0311349
0.043322
0.149551
0.00136829
0.00818603
0.00134895
0.0035011
0.0124427
0.0767362
0.00669037
0.0025928
0.00977733
0.0290771
0.0997462
0.00291817
0.00320918
0.00253016
0.00116647
0.0127876
0.0315972
0.0783262
0.0109667
0.00911807
0.00334587
0.0832373
0.0941108
0.000869142
0.00982945
0.161609
0.0126421
0.00321497
0.00762879
0.0550745
0.00692798
0.00346183
0.00286293
0.00561698
0.00623804
0.0442159
0.161221
0.134209
0.165986
0.0395731
0.0970674
0.0102889
0.00211385
0.0124697
0.0195106
0.0155644
0.11849
0.0139497
0.0314026
0.0103557
0.00993964
0.0496526
0.0144623
0.0404371
0.112367
0.0330227
0.105885
0.00340509
0.0785091
0.00380554
0.00355287
0.00339502
0.00190077
0.0014105
0.145378
0.15328
0.0771216
0.00277132
0.050854
0.0967406
0.124054
0.00552614
0.0115438
0.0107553
0.00384158
0.0210303
0.077442
0.0134528
0.0759549
0.00706032
0.149758
0.0106558
0.0540247
0.0338706
0.023824
0.0187024
0.0251315
0.00361976
0.0141244
0.00434418
0.0103038
0.00892112
0.00995207
0.00689434
0.0496401
0.00131639
0.016067
0.0139319
0.0356923
0.0282112
0.00399429
0.0726078
0.00603674
0.000906092
0.0108624
0.0023986
0.0059948
0.00567072
0.00590365
0.00526993
0.06033
0.015089
0.0987507
0.00541366
0.00726827
0.00288022
0.073818
0.00836352
0.0133084
0.00188071
0.00699639
0.010765
0.10571
0.0103539
0.0795307
0.00888212
0.0244913
0.00288841
0.0626923
0.0137649
0.112092
0.0101257
0.00979051
0.012785
0.0031686
0.081035
0.0198432
0.00549436
0.0872076
0.00512459
0.00211508
0.00715158
0.01801
0.00956118
0.0477328
0.0566415
0.00292439
0.0040676
0.0528106
0.0316897
0.0158781
0.0438722
0.00366915
0.044592
0.00195825
0.00595702
0.00672035
0.0106595
0.017885
0.0797028
0.0451007
0.00508097
0.00410516
0.0130812
0.00152912
0.134145
0.0163611
0.0125506
0.00309106
0.0777332
0.00750178
0.123491
0.00193793
0.0926655
0.0819575
0.0093626
0.125889
0.0327458
0.00597585
0.0317018
0.027532
0.0408017
0.00949044
0.0123641
0.00296647
0.0713816
0.0311515
0.114019
0.00656409
0.0708766
0.0119577
0.0116329
0.00424574
0.00294822
0.00183486
0.00208972
0.00362536
0.0103328
0.00516154
0.0126706
0.144078
0.097278
0.00167017
0.00572623
0.115359
0.0799943
0.109956
0.0200418
0.00557701
0.131323
0.00955204
0.00756425
0.00688518
0.00491644
0.079172
0.160562
0.00512113
0.0218578
0.0628744
0.00639847
0.00428901
0.0574233
0.0709491
0.0141564
0.0905589
0.00809244
0.160589
0.0128828
0.150753
0.00332231
0.0389875
0.00130421
0.0134821
0.0370144
0.0118172
0.0780636
0.0460366
0.145298
0.0146239
0.0035197
0.0467153
0.0054683
0.154525
0.149267
0.00376638
0.0510448
0.134176
0.0964281
0.154069
0.0374056
0.0834685
0.119769
0.00481131
0.092303
0.0529649
0.00572162
0.0712624
0.0676237
0.130706
0.0348993
0.00263315
0.00235077
0.0379824
0.0329101
0.0369152
0.148499
0.0105965
0.108906
0.118201
0.00123105
0.0824322
0.0108606
0.0143759
0.00617338
0.0423573
0.0061732
0.0386838
0.0059665
0.00500803
0.0391724
0.00332
0.00182886
0.0119314
0.00362097
0.0485366
0.0467873
0.00699312
0.00676624
0.0566912
0.111921
0.0216082
0.0105907
0.110192
0.01008
0.116433
0.00963436
0.00483377
0.0100462
0.00927811
0.0465125
0.0290397
0.157681
0.150593
0.0748441
0.0442499
0.0232288
0.157858
0.00521803
0.0276098
0.0144358
0.0500403
0.00195816
0.167372
0.0801303
0.00642959
0.150371
0.00605299
0.0142193
0.0103665
0.051386
0.0239156
0.0402096
0.0091453
0.0321204
0.00581028
0.0193749
0.0303516
0.0608593
0.013416
0.00347154
0.0112789
0.00746261
0.00651182
0.0140259
0.0095199
0.095024
0.00185239
0.0407444
0.02396
0.0235118
0.00837863
0.0387878
0.0100914
0.012019
0.0194752
0.136561
0.0133257
0.149929
0.0102688
0.0826733
0.126311
0.0404163
0.014681
0.0047827
0.0389305
0.00144549
0.00378189
0.100475
0.00318478
0.00746316
0.0467169
0.0251367
0.0146399
0.059151
0.0446225
0.00323003
0.154747
0.00194496
0.0141247
0.0175065
0.0239773
0.031203
0.0404679
0.0452049
0.00520897
0.0264284
0.110018
0.0400274
0.0392938
0.00123462
0.0102751
0.147571
0.0119561
0.00676617
0.00480463
0.0675319
0.0368209
0.039841
0.0191605
0.0223293
0.0282446
0.018417
0.00656036
0.0479084
0.0260686
0.0113941
0.0190298
0.0157956
0.00493806
0.0461103
0.154926
0.0159909
0.0110599
0.0150676
0.00142417
0.00299993
0.00689972
0.00497187
0.0496452
0.0247163
0.118617
0.12416
0.00608955
0.0371009
0.0105399
0.0188112
0.0223778
0.0188237
0.00355899
0.0816565
0.115034
0.0164543
0.0746392
0.0865117
0.048186
0.0401883
0.00995139
0.0545663
0.0323669
0.0530587
0.00674809
0.142233
0.00309524
0.0508543
0.0264453
0.112922
0.140984
0.025179
0.0376169
0.0102153
0.020853
0.0635947
0.0148262
0.0445566
0.149207
0.0377923
0.00934602
0.0301378
0.0756794
0.0790688
0.0809233
0.0173493
0.0714054
0.0685061
0.00988694
0.0874123
0.0394176
0.0215662
0.00664278
0.0108409
0.0320936
0.011097
0.0022153
0.00958036
0.00687835
0.020546
0.0260818
0.0186495
0.0155074
0.031816
0.0110103
0.0388399
0.119868
0.0144915
0.099737
0.00830068
0.00788804
0.00877334
0.0235447
0.0382639
0.0148372
0.0140464
0.0187681
0.0212092
0.0266846
0.00715479
0.0045306
0.0142686
0.0410983
0.0283628
0.00188278
0.0218695
0.154364
0.00154168
0.00317781
0.0395138
0.0296379
0.0257514
0.00717259
0.00208745
0.0640909
0.00497655
0.00461807
0.00903595
0.00893777
0.0571524
0.019606
0.0284538
0.00960919
0.133918
0.0110031
0.0243683
0.00724902
0.121328
0.0849016
0.0042357
0.0234565
0.0198851
0.0297217
0.126258
0.0110295
0.00154421
0.0153804
0.085321
0.00661111
0.0154534
0.0306463
0.0380527
0.0566038
0.0191688
0.0489091
0.00706348
0.051206
0.0199232
0.0163968
0.0139922
0.0146904
0.0455059
0.015053
0.0194447
0.048665
0.0129055
0.0505483
0.0283904
0.0743892
0.159426
0.00180263
0.0120363
0.0310599
0.00149801
0.0265032
0.0613119
0.00346605
0.013773
0.00141121
0.0396546
0.0247255
0.0672222
0.0278552
0.0235069
0.00142751
0.0290884
0.00950968
0.0466349
0.0408474
0.0273431
0.0380216
0.00819523
0.00185763
0.00353455
0.0774391
0.0828369
0.00503894
0.0285917
0.0330391
0.0146451
0.0183563
0.00376196
0.00518951
0.0261222
0.00532736
0.0148325
0.0264141
0.0523832
0.0330324
0.010789
0.00149155
0.165349
0.0197537
0.0269967
0.095388
0.0702783
0.0386559
0.0017869
0.0129467
0.0572517
0.0221901
0.104319
0.0148728
0.0906154
0.0251918
0.0384938
0.0257507
0.00413288
0.0357215
0.129169
0.00966217
0.0733293
0.0718238
0.00432855
0.0618734
0.00167844
0.00109751
0.00181045
0.0145931
0.0307518
0.0941513
0.14296
0.0939683
0.0195102
0.0101578
0.011766
0.00429863
0.00878041
0.0190572
0.069765
0.0258926
0.0260855
0.141135
0.0309198
0.0729739
0.00488603
0.0261005
0.00184811
0.0312945
0.0247818
0.161366
0.0349318
0.00299992
0.00359826
0.0110238
0.0870084
0.0115904
0.0258923
0.0759347
0.0147852
0.0978617
0.0240077
0.00184773
0.0636165
0.0440094
0.0442826
0.00183162
0.00150106
0.0593437
0.0263255
0.0305873
0.0313151
0.0583437
0.0389279
0.131553
0.0345115
0.0512213
0.126789
0.0273386
0.00162425
0.00886708
0.0649907
0.0607874
0.0304564
0.0336388
0.111984
0.0149875
0.0123651
0.00185428
0.0197429
0.0295618
0.0386517
0.0724278
0.0100583
0.0770552
0.152965
0.0179392
0.0145824
0.013057
0.00210055
0.160945
0.0174229
0.0284259
0.0264619
0.101361
0.0655222
0.0254731
0.00836946
0.0139567
0.0537748
0.0131373
0.00791519
0.144909
0.016998
0.0107871
0.00193704
0.151776
0.020019
0.0293622
0.0760511
0.00964783
0.0766023
0.0676983
0.0194701
0.0100462
0.011244
0.0497708
0.033812
0.00134017
0.00137481
0.0663918
0.00303387
0.00671086
0.083527
0.064578
0.0538531
0.0317082
0.135384
0.0747664
0.014307
0.00186101
0.0414196
0.0805708
0.0760507
0.116864
0.0598081
0.0494765
0.0767222
0.00124795
0.0357672
0.0106296
0.0305707
0.0515591
0.0256015
0.0470822
0.114108
0.0176206
0.117993
0.0286974
0.00536101
0.0571712
0.0219813
0.146883
0.0454975
0.115617
0.0557775
0.00975258