/*--------------------------------*- C++ -*----------------------------------*\
| =========                 |                                                 |
| \\      /  F ield         | OpenFOAM: The Open Source CFD Toolbox           |
|  \\    /   O peration     | Version:  v2012                                 |
|   \\  /    A nd           | Website:  www.openfoam.com                      |
|    \\/     M anipulation  |                                                 |
\*---------------------------------------------------------------------------*/
FoamFile
{
    version     2.0;
    format      ascii;
    class       volVectorField;
    location    "450";
    object      cellDisplacement;
}
// * * * * * * * * * * * * * * * * * * * * * * * * * * * * * * * * * * * * * //

dimensions      [0 1 0 0 0 0 0];


internalField   nonuniform List<vector> 
10042
(
(0 -0.00114644 0)
(0 -0.00274804 0)
(0 -0.00241999 0)
(0 -0.000691199 0)
(0 -0.000385205 0)
(0 -0.0030616 0)
(0 -0.00123519 0)
(0 -0.00184973 0)
(0 -0.000818041 0)
(0 -0.00161951 0)
(0 -0.00200177 0)
(0 -0.00274025 0)
(0 -0.000820699 0)
(0 -0.00196679 0)
(0 -0.000855396 0)
(0 -0.00196481 0)
(0 -0.00307052 0)
(0 -0.00202927 0)
(0 -0.000810224 0)
(0 -0.002022 0)
(0 -0.000853846 0)
(0 -0.00111383 0)
(0 -0.000659423 0)
(0 -0.00269308 0)
(0 -0.00150129 0)
(0 -4.62275e-05 0)
(0 -0.00162758 0)
(0 -0.000526122 0)
(0 -0.00306774 0)
(0 -0.00274718 0)
(0 -0.000204056 0)
(0 -0.00051938 0)
(0 -0.000756598 0)
(0 -0.000717014 0)
(0 -0.00186763 0)
(0 -0.00191879 0)
(0 -0.000131765 0)
(0 -0.000838981 0)
(0 -0.000280519 0)
(0 -8.46566e-05 0)
(0 -0.00272645 0)
(0 -0.00077558 0)
(0 -0.000775956 0)
(0 -0.0025575 0)
(0 -0.00107883 0)
(0 -0.00155614 0)
(0 -0.000342673 0)
(0 -0.000856766 0)
(0 -0.00131778 0)
(0 -0.000916184 0)
(0 -0.000800256 0)
(0 -0.00061528 0)
(0 -0.00306467 0)
(0 -0.000829729 0)
(0 -0.00183523 0)
(0 -0.00075064 0)
(0 -0.000872477 0)
(0 -0.00194793 0)
(0 -0.00118231 0)
(0 -2.52257e-05 0)
(0 -0.00135651 0)
(0 -0.0017167 0)
(0 -0.000775067 0)
(0 -0.00179814 0)
(0 -0.0027065 0)
(0 -0.00217312 0)
(0 -0.00205555 0)
(0 -0.00128202 0)
(0 -0.000365054 0)
(0 -0.00125505 0)
(0 -0.000805017 0)
(0 -0.00168943 0)
(0 -0.00134246 0)
(0 -0.00116155 0)
(0 -0.00213703 0)
(0 -0.000781694 0)
(0 -0.00274457 0)
(0 -0.000355668 0)
(0 -0.0027633 0)
(0 -0.000783127 0)
(0 -0.00254929 0)
(0 -0.00271507 0)
(0 -9.68647e-05 0)
(0 -0.000608449 0)
(0 -0.00181314 0)
(0 -0.00139235 0)
(0 -0.00205042 0)
(0 -0.00244748 0)
(0 -0.00195448 0)
(0 -0.0027091 0)
(0 -0.000815856 0)
(0 -0.000835224 0)
(0 -0.000798115 0)
(0 -0.00141902 0)
(0 -0.00265506 0)
(0 -0.00153518 0)
(0 -0.000369697 0)
(0 -0.00201895 0)
(0 -0.0029677 0)
(0 -0.00111054 0)
(0 -0.000830575 0)
(0 -0.00162753 0)
(0 -0.0015503 0)
(0 -0.000525341 0)
(0 -0.000901193 0)
(0 -0.00145252 0)
(0 -0.00103611 0)
(0 -0.00208474 0)
(0 -0.00127588 0)
(0 -0.00145188 0)
(0 -0.00121131 0)
(0 -0.00129766 0)
(0 -0.00165032 0)
(0 -0.00181289 0)
(0 -0.00267451 0)
(0 -0.000399136 0)
(0 -0.00277679 0)
(0 -0.000228038 0)
(0 -0.00191683 0)
(0 -0.000377985 0)
(0 -3.38174e-05 0)
(0 -0.00275784 0)
(0 -0.00275273 0)
(0 -0.00112851 0)
(0 -0.00272682 0)
(0 -0.00205444 0)
(0 -0.00209646 0)
(0 -0.00182274 0)
(0 -0.000573656 0)
(0 -0.00278719 0)
(0 -0.000961137 0)
(0 -0.00202748 0)
(0 -0.0022363 0)
(0 -0.00194927 0)
(0 -0.00133511 0)
(0 -0.000928923 0)
(0 -0.0021528 0)
(0 -0.00114298 0)
(0 -0.00101294 0)
(0 -0.00296734 0)
(0 -0.000802191 0)
(0 -0.00030202 0)
(0 -0.00106849 0)
(0 -0.000497458 0)
(0 -0.00127092 0)
(0 -0.00088437 0)
(0 -0.00180082 0)
(0 -0.000346078 0)
(0 -0.00182523 0)
(0 -0.00308006 0)
(0 -0.00204698 0)
(0 -0.000222804 0)
(0 -0.00100571 0)
(0 -0.000788205 0)
(0 -0.00262231 0)
(0 -0.00129669 0)
(0 -0.000590373 0)
(0 -0.00074114 0)
(0 -0.00224669 0)
(0 -3.1309e-05 0)
(0 -0.00023006 0)
(0 -6.68404e-05 0)
(0 -0.000969917 0)
(0 -0.00200121 0)
(0 -0.00102596 0)
(0 -0.00308243 0)
(0 -0.00133151 0)
(0 -0.00053613 0)
(0 -0.00190237 0)
(0 -0.000659178 0)
(0 -0.00259773 0)
(0 -0.00276044 0)
(0 -0.00277554 0)
(0 -0.000696834 0)
(0 -0.000858341 0)
(0 -0.0027638 0)
(0 -0.00146566 0)
(0 -0.000871256 0)
(0 -0.00198503 0)
(0 -0.00036259 0)
(0 -0.00102853 0)
(0 -0.000996875 0)
(0 -0.00113 0)
(0 -0.000313421 0)
(0 -0.000109041 0)
(0 -0.000698173 0)
(0 -0.00165852 0)
(0 -2.38944e-05 0)
(0 -0.000812754 0)
(0 -0.000306947 0)
(0 -0.00273005 0)
(0 -0.000906073 0)
(0 -0.00101046 0)
(0 -0.000994012 0)
(0 -0.00184733 0)
(0 -0.000816487 0)
(0 -0.000452243 0)
(0 -0.00253764 0)
(0 -0.000377155 0)
(0 -0.000545079 0)
(0 -0.000566232 0)
(0 -0.000800541 0)
(0 -0.0028737 0)
(0 -0.000212909 0)
(0 -0.00297934 0)
(0 -0.00218736 0)
(0 -0.00261682 0)
(0 -0.000811273 0)
(0 -0.00121986 0)
(0 -0.00196129 0)
(0 -0.000514265 0)
(0 -0.000235193 0)
(0 -0.00289206 0)
(0 -0.00283944 0)
(0 -0.000178069 0)
(0 -0.00125245 0)
(0 -0.000197383 0)
(0 -0.00279288 0)
(0 -0.000349588 0)
(0 -0.000586242 0)
(0 -0.000478449 0)
(0 -0.00256474 0)
(0 -0.000495918 0)
(0 -0.00124116 0)
(0 -0.000745365 0)
(0 -0.000779369 0)
(0 -0.00181223 0)
(0 -0.00214664 0)
(0 -0.00160936 0)
(0 -0.00152654 0)
(0 -0.000912264 0)
(0 -0.00214514 0)
(0 -0.000722103 0)
(0 -0.000158236 0)
(0 -0.00149543 0)
(0 -0.00186723 0)
(0 -0.0021995 0)
(0 -0.000381615 0)
(0 -0.00126699 0)
(0 -0.00267959 0)
(0 -0.00283184 0)
(0 -0.00279295 0)
(0 -2.89157e-05 0)
(0 -8.68486e-05 0)
(0 -0.00196973 0)
(0 -0.000395157 0)
(0 -0.00277375 0)
(0 -0.00129086 0)
(0 -0.00100888 0)
(0 -0.000314399 0)
(0 -0.000891269 0)
(0 -0.00104502 0)
(0 -0.00297468 0)
(0 -0.00186533 0)
(0 -0.00182467 0)
(0 -0.0021887 0)
(0 -0.000250882 0)
(0 -0.00192261 0)
(0 -0.000378515 0)
(0 -0.000476325 0)
(0 -0.00272413 0)
(0 -0.000978967 0)
(0 -0.000617143 0)
(0 -0.000365943 0)
(0 -0.000800141 0)
(0 -0.00190335 0)
(0 -0.00270713 0)
(0 -0.00295919 0)
(0 -9.98505e-05 0)
(0 -0.00216515 0)
(0 -0.000741174 0)
(0 -0.00093668 0)
(0 -0.00187721 0)
(0 -0.000786037 0)
(0 -0.00191222 0)
(0 -0.0018194 0)
(0 -0.000810303 0)
(0 -0.00122981 0)
(0 -9.77229e-05 0)
(0 -0.00187953 0)
(0 -0.000570107 0)
(0 -0.00283146 0)
(0 -0.000430051 0)
(0 -0.000823164 0)
(0 -4.14962e-05 0)
(0 -0.000507099 0)
(0 -0.0027951 0)
(0 -0.000519109 0)
(0 -0.0010488 0)
(0 -0.000181458 0)
(0 -0.00095857 0)
(0 -0.00272224 0)
(0 -6.83892e-05 0)
(0 -0.00284791 0)
(0 -0.00272259 0)
(0 -0.00190516 0)
(0 -0.0022502 0)
(0 -0.00217834 0)
(0 -0.000726431 0)
(0 -0.00020257 0)
(0 -0.00102747 0)
(0 -0.00285891 0)
(0 -1.62775e-05 0)
(0 -0.00281261 0)
(0 -0.00278629 0)
(0 -0.0017192 0)
(0 -0.00197004 0)
(0 -6.81038e-05 0)
(0 -0.0022784 0)
(0 -0.00285617 0)
(0 -9.34225e-05 0)
(0 -0.00188844 0)
(0 -0.00149177 0)
(0 -0.00190279 0)
(0 -0.00272591 0)
(0 -0.00101671 0)
(0 -0.000353901 0)
(0 -9.98058e-05 0)
(0 -0.00267242 0)
(0 -0.000382256 0)
(0 -8.25676e-05 0)
(0 -0.000808751 0)
(0 -0.00178934 0)
(0 -0.00149477 0)
(0 -0.000170633 0)
(0 -0.000140215 0)
(0 -0.00233962 0)
(0 -0.00198124 0)
(0 -0.00216982 0)
(0 -0.000975865 0)
(0 -0.00218422 0)
(0 -0.00126685 0)
(0 -0.0011575 0)
(0 -0.00023136 0)
(0 -0.00264088 0)
(0 -0.00107405 0)
(0 -0.0010314 0)
(0 -0.00147255 0)
(0 -0.00109411 0)
(0 -0.00307566 0)
(0 -0.000838725 0)
(0 -0.000958074 0)
(0 -3.80424e-05 0)
(0 -0.00240458 0)
(0 -0.000187883 0)
(0 -0.00089745 0)
(0 -0.0017448 0)
(0 -0.000359285 0)
(0 -0.00261021 0)
(0 -0.000364869 0)
(0 -0.000859972 0)
(0 -0.00267272 0)
(0 -0.00260861 0)
(0 -0.00102528 0)
(0 -0.00175092 0)
(0 -0.00237715 0)
(0 -0.00178501 0)
(0 -5.0686e-05 0)
(0 -0.000571966 0)
(0 -3.69467e-05 0)
(0 -0.00141896 0)
(0 -0.000132078 0)
(0 -0.00105694 0)
(0 -0.00270611 0)
(0 -0.00307652 0)
(0 -0.00101091 0)
(0 -0.000448849 0)
(0 -0.00256977 0)
(0 -0.00257323 0)
(0 -0.00176231 0)
(0 -2.90501e-05 0)
(0 -9.45632e-05 0)
(0 -0.00192845 0)
(0 -1.53396e-06 0)
(0 -0.00139865 0)
(0 -0.00207032 0)
(0 -0.00185213 0)
(0 -0.00287863 0)
(0 -0.00206259 0)
(0 -0.0013691 0)
(0 -0.00137188 0)
(0 -0.00286376 0)
(0 -0.00165467 0)
(0 -0.00193638 0)
(0 -0.000695536 0)
(0 -0.000394395 0)
(0 -0.000317106 0)
(0 -0.000351714 0)
(0 -0.00224545 0)
(0 -0.000506149 0)
(0 -0.00193951 0)
(0 -0.000674132 0)
(0 -0.000883521 0)
(0 -0.00230958 0)
(0 -0.00306913 0)
(0 -0.00182485 0)
(0 -0.000778354 0)
(0 -0.00184978 0)
(0 -7.89647e-05 0)
(0 -0.000543276 0)
(0 -0.000554044 0)
(0 -0.000500664 0)
(0 -0.000560945 0)
(0 -0.00179853 0)
(0 -0.000425072 0)
(0 -0.00105512 0)
(0 -0.00085683 0)
(0 -0.00114932 0)
(0 -0.00282337 0)
(0 -0.00192728 0)
(0 -0.00304295 0)
(0 -0.00116549 0)
(0 -0.00281268 0)
(0 -0.000894039 0)
(0 -0.00170721 0)
(0 -0.00243422 0)
(0 -0.00131324 0)
(0 -0.00177272 0)
(0 -0.000416111 0)
(0 -0.00240228 0)
(0 -0.00023731 0)
(0 -0.00306959 0)
(0 -0.000936908 0)
(0 -0.000300048 0)
(0 -0.000782241 0)
(0 -0.0024698 0)
(0 -0.00174598 0)
(0 -0.00303434 0)
(0 -0.000477086 0)
(0 -0.000922158 0)
(0 -0.00246453 0)
(0 -0.000389314 0)
(0 -0.00119269 0)
(0 -0.0019086 0)
(0 -0.00114428 0)
(0 -0.00106928 0)
(0 -0.00127837 0)
(0 -0.00188198 0)
(0 -7.72161e-05 0)
(0 -0.000721866 0)
(0 -0.000477438 0)
(0 -0.00270064 0)
(0 -0.00234348 0)
(0 -0.000790107 0)
(0 -0.000910263 0)
(0 -8.80192e-05 0)
(0 -0.00168705 0)
(0 -0.000985525 0)
(0 -0.00181599 0)
(0 -0.000297098 0)
(0 -0.00175665 0)
(0 -0.0023624 0)
(0 -0.00237861 0)
(0 -0.000707974 0)
(0 -0.000603662 0)
(0 -0.00180022 0)
(0 -0.00265737 0)
(0 -0.000658754 0)
(0 -0.000339924 0)
(0 -8.26856e-05 0)
(0 -0.000182281 0)
(0 -0.000825779 0)
(0 -0.00155574 0)
(0 -0.00159777 0)
(0 -0.00220786 0)
(0 -3.3993e-05 0)
(0 -0.00110641 0)
(0 -0.000769458 0)
(0 -0.00270853 0)
(0 -0.0026171 0)
(0 -0.00102719 0)
(0 -0.000840246 0)
(0 -0.000584583 0)
(0 -0.00124994 0)
(0 -0.00292458 0)
(0 -0.000262346 0)
(0 -0.000612329 0)
(0 -0.000103059 0)
(0 -0.00180981 0)
(0 -0.000841848 0)
(0 -0.00250429 0)
(0 -0.000917993 0)
(0 -0.00295301 0)
(0 -0.000262992 0)
(0 -0.00085753 0)
(0 -5.90921e-05 0)
(0 -0.00172637 0)
(0 -0.00301343 0)
(0 -9.64e-05 0)
(0 -0.000516335 0)
(0 -0.00190242 0)
(0 -0.00261567 0)
(0 -0.000970774 0)
(0 -0.00245614 0)
(0 -0.002523 0)
(0 -0.000893707 0)
(0 -0.000995196 0)
(0 -0.00249042 0)
(0 -0.00285456 0)
(0 -0.00124654 0)
(0 -0.00119143 0)
(0 -0.000185631 0)
(0 -0.00281269 0)
(0 -0.00263465 0)
(0 -0.00121632 0)
(0 -0.00300909 0)
(0 -0.000276884 0)
(0 -6.47103e-05 0)
(0 -0.00164842 0)
(0 -0.00150158 0)
(0 -0.00129144 0)
(0 -0.002607 0)
(0 -0.000992429 0)
(0 -0.000589729 0)
(0 -0.00141334 0)
(0 -0.00286868 0)
(0 -0.00106552 0)
(0 -0.00283913 0)
(0 -0.000782268 0)
(0 -0.00109456 0)
(0 -0.000900238 0)
(0 -0.00134959 0)
(0 -0.00300604 0)
(0 -0.00149385 0)
(0 -0.00110068 0)
(0 -0.00302264 0)
(0 -0.00255769 0)
(0 -0.00196358 0)
(0 -0.00147274 0)
(0 -0.00210234 0)
(0 -8.01789e-05 0)
(0 -0.00121669 0)
(0 -0.00137909 0)
(0 -0.000639679 0)
(0 -0.00251445 0)
(0 -0.00156084 0)
(0 -0.00126407 0)
(0 -0.00211043 0)
(0 -0.000923349 0)
(0 -0.00193499 0)
(0 -0.000484433 0)
(0 -0.0015948 0)
(0 -0.00150925 0)
(0 -0.000481769 0)
(0 -0.00106352 0)
(0 -0.00064485 0)
(0 -0.000289307 0)
(0 -0.0012332 0)
(0 -0.00301246 0)
(0 -3.16295e-05 0)
(0 -0.00296613 0)
(0 -0.00118531 0)
(0 -0.000795981 0)
(0 -0.00221806 0)
(0 -0.0010285 0)
(0 -0.00276387 0)
(0 -0.00260311 0)
(0 -0.000220671 0)
(0 -0.000635236 0)
(0 -0.000300206 0)
(0 -0.000651104 0)
(0 -0.00166352 0)
(0 -0.00141592 0)
(0 -0.00250938 0)
(0 -0.00142357 0)
(0 -1.5466e-05 0)
(0 -0.00155442 0)
(0 -0.000932618 0)
(0 -0.00169499 0)
(0 -7.17506e-05 0)
(0 -0.00060466 0)
(0 -0.00156352 0)
(0 -0.0026861 0)
(0 -0.00147556 0)
(0 -0.00258178 0)
(0 -0.000650029 0)
(0 -0.00067673 0)
(0 -0.000786614 0)
(0 -0.000831127 0)
(0 -0.0019883 0)
(0 -0.00192036 0)
(0 -0.00135154 0)
(0 -0.000266363 0)
(0 -0.000487808 0)
(0 -0.000953427 0)
(0 -0.00185996 0)
(0 -0.00112954 0)
(0 -0.00138435 0)
(0 -0.000375068 0)
(0 -0.00195756 0)
(0 -0.00281523 0)
(0 -0.000785373 0)
(0 -0.00117658 0)
(0 -0.000153131 0)
(0 -0.00254444 0)
(0 -0.000403156 0)
(0 -0.00202004 0)
(0 -0.000432386 0)
(0 -0.0010866 0)
(0 -0.000848801 0)
(0 -0.000222061 0)
(0 -0.0011829 0)
(0 -0.00054092 0)
(0 -0.000358193 0)
(0 -0.00201652 0)
(0 -0.00210311 0)
(0 -0.00201166 0)
(0 -1.95414e-06 0)
(0 -0.00197405 0)
(0 -0.000253591 0)
(0 -0.00245272 0)
(0 -0.000827982 0)
(0 -0.0014052 0)
(0 -0.000299143 0)
(0 -0.00141252 0)
(0 -0.00127117 0)
(0 -0.00148345 0)
(0 -0.00135113 0)
(0 -0.000813493 0)
(0 -0.000399259 0)
(0 -0.00252556 0)
(0 -0.00300363 0)
(0 -0.00195301 0)
(0 -0.000663295 0)
(0 -0.000353296 0)
(0 -0.00220225 0)
(0 -9.39524e-05 0)
(0 -0.00268794 0)
(0 -0.00291617 0)
(0 -0.00299213 0)
(0 -0.00105395 0)
(0 -0.00275325 0)
(0 -0.000626263 0)
(0 -0.00130431 0)
(0 -0.00283674 0)
(0 -0.00245485 0)
(0 -0.00231698 0)
(0 -0.000561499 0)
(0 -0.00102065 0)
(0 -0.00266616 0)
(0 -0.00158735 0)
(0 -0.00125672 0)
(0 -0.000858954 0)
(0 -0.000914321 0)
(0 -0.000232079 0)
(0 -0.00284906 0)
(0 -0.000849375 0)
(0 -5.12245e-05 0)
(0 -0.000649953 0)
(0 -0.00138966 0)
(0 -0.00216179 0)
(0 -6.97693e-05 0)
(0 -0.000785835 0)
(0 -0.00244056 0)
(0 -0.000314514 0)
(0 -0.00264821 0)
(0 -0.00208419 0)
(0 -0.00184433 0)
(0 -0.00183027 0)
(0 -0.00112734 0)
(0 -1.80687e-05 0)
(0 -0.000164133 0)
(0 -0.00174764 0)
(0 -0.00114637 0)
(0 -0.00293565 0)
(0 -0.00209925 0)
(0 -0.00253489 0)
(0 -0.000834337 0)
(0 -0.00190701 0)
(0 -0.00169249 0)
(0 -0.00268793 0)
(0 -0.00171623 0)
(0 -0.00213974 0)
(0 -0.000170079 0)
(0 -0.00165959 0)
(0 -0.0027516 0)
(0 -0.000933026 0)
(0 -0.000119682 0)
(0 -0.00184756 0)
(0 -4.88166e-05 0)
(0 -0.000399248 0)
(0 -0.000648854 0)
(0 -0.00264267 0)
(0 -0.00185298 0)
(0 -9.82075e-05 0)
(0 -0.00175272 0)
(0 -0.0027307 0)
(0 -0.00158634 0)
(0 -0.00024372 0)
(0 -0.0021249 0)
(0 -0.00176151 0)
(0 -0.00152719 0)
(0 -0.000647427 0)
(0 -0.00223322 0)
(0 -4.14461e-05 0)
(0 -0.0023832 0)
(0 -0.00238552 0)
(0 -0.000590317 0)
(0 -0.000453902 0)
(0 -0.000508177 0)
(0 -0.00108658 0)
(0 -0.000263158 0)
(0 -0.000107048 0)
(0 -0.000906277 0)
(0 -0.00305324 0)
(0 -0.00253321 0)
(0 -0.00085206 0)
(0 -0.00185553 0)
(0 -0.00180213 0)
(0 -0.000810591 0)
(0 -0.000643456 0)
(0 -0.00125354 0)
(0 -4.41267e-05 0)
(0 -0.000822763 0)
(0 -0.000958752 0)
(0 -0.00233199 0)
(0 -0.000847414 0)
(0 -0.00298896 0)
(0 -0.00052201 0)
(0 -0.0024201 0)
(0 -0.000160186 0)
(0 -7.98597e-05 0)
(0 -0.000773164 0)
(0 -0.00114248 0)
(0 -0.00210446 0)
(0 -0.000584544 0)
(0 -0.000191669 0)
(0 -0.00257075 0)
(0 -0.00221823 0)
(0 -0.00193719 0)
(0 -0.000919862 0)
(0 -0.00192725 0)
(0 -0.00176106 0)
(0 -0.00174186 0)
(0 -0.00113005 0)
(0 -0.0019022 0)
(0 -0.00164053 0)
(0 -0.00179414 0)
(0 -3.55787e-05 0)
(0 -0.00138905 0)
(0 -0.000587828 0)
(0 -4.7931e-05 0)
(0 -0.00292862 0)
(0 -0.00227201 0)
(0 -0.00276 0)
(0 -0.0023992 0)
(0 -0.000834493 0)
(0 -0.00118835 0)
(0 -0.00212462 0)
(0 -0.00181546 0)
(0 -0.000547046 0)
(0 -0.0013955 0)
(0 -0.00123025 0)
(0 -3.44868e-05 0)
(0 -0.00062393 0)
(0 -0.000101669 0)
(0 -0.00236932 0)
(0 -4.81478e-05 0)
(0 -0.00305732 0)
(0 -0.000849539 0)
(0 -0.00141521 0)
(0 -0.00291585 0)
(0 -0.0018019 0)
(0 -0.000602268 0)
(0 -0.00148727 0)
(0 -4.86721e-05 0)
(0 -0.00165421 0)
(0 -0.000896635 0)
(0 -0.00198706 0)
(0 -0.00240866 0)
(0 -0.00166706 0)
(0 -0.00201643 0)
(0 -0.00179166 0)
(0 -0.000969685 0)
(0 -0.00171437 0)
(0 -0.000627571 0)
(0 -0.00266189 0)
(0 -0.00236534 0)
(0 -0.00147339 0)
(0 -0.000325928 0)
(0 -0.000974479 0)
(0 -0.00114952 0)
(0 -0.000513646 0)
(0 -0.00163482 0)
(0 -0.00204852 0)
(0 -0.000857831 0)
(0 -0.00184607 0)
(0 -0.000349846 0)
(0 -0.000964086 0)
(0 -0.00125983 0)
(0 -0.000237731 0)
(0 -0.000926994 0)
(0 -4.37505e-05 0)
(0 -0.000433191 0)
(0 -0.00185067 0)
(0 -0.00105694 0)
(0 -0.000311674 0)
(0 -0.000136651 0)
(0 -0.00124221 0)
(0 -0.00196746 0)
(0 -0.000975901 0)
(0 -2.26975e-05 0)
(0 -0.0012799 0)
(0 -0.00187806 0)
(0 -0.00290752 0)
(0 -0.00159992 0)
(0 -0.00213169 0)
(0 -0.000273537 0)
(0 -0.00301563 0)
(0 -0.000135064 0)
(0 -0.000959343 0)
(0 -0.000454824 0)
(0 -0.00135423 0)
(0 -0.00121094 0)
(0 -0.000663547 0)
(0 -0.00246211 0)
(0 -0.0030092 0)
(0 -0.00104381 0)
(0 -0.00300345 0)
(0 -0.000871058 0)
(0 -5.626e-05 0)
(0 -0.000623414 0)
(0 -0.00294776 0)
(0 -0.00208637 0)
(0 -0.000927711 0)
(0 -0.000604735 0)
(0 -0.00279448 0)
(0 -0.00163497 0)
(0 -0.00254534 0)
(0 -0.00213976 0)
(0 -0.00272131 0)
(0 -0.00295269 0)
(0 -0.00264717 0)
(0 -0.00194216 0)
(0 -0.00179089 0)
(0 -0.000538119 0)
(0 -0.00195961 0)
(0 -0.00272788 0)
(0 -0.00115785 0)
(0 -0.000950117 0)
(0 -0.000219904 0)
(0 -0.00270042 0)
(0 -3.88975e-05 0)
(0 -0.00125519 0)
(0 -0.00115855 0)
(0 -0.00211284 0)
(0 -0.00216894 0)
(0 -4.49565e-05 0)
(0 -0.00158592 0)
(0 -0.00110723 0)
(0 -0.000880389 0)
(0 -0.00249977 0)
(0 -0.00137473 0)
(0 -4.17554e-05 0)
(0 -0.00112008 0)
(0 -0.00190191 0)
(0 -0.00222631 0)
(0 -0.00134293 0)
(0 -0.000632575 0)
(0 -0.00121263 0)
(0 -0.00133571 0)
(0 -0.00278899 0)
(0 -0.00249845 0)
(0 -0.00220822 0)
(0 -0.00250462 0)
(0 -0.00114572 0)
(0 -0.000633604 0)
(0 -0.000149495 0)
(0 -0.000538836 0)
(0 -0.00141846 0)
(0 -0.000386679 0)
(0 -0.00221998 0)
(0 -0.000163339 0)
(0 -0.00276628 0)
(0 -0.00207234 0)
(0 -0.00174459 0)
(0 -0.00266009 0)
(0 -0.000186803 0)
(0 -0.000305894 0)
(0 -0.00265548 0)
(0 -0.000225357 0)
(0 -0.000238877 0)
(0 -0.00268737 0)
(0 -0.000615417 0)
(0 -0.0023966 0)
(0 -0.000979971 0)
(0 -0.00189585 0)
(0 -0.000815383 0)
(0 -0.00207726 0)
(0 -0.00225651 0)
(0 -0.0014698 0)
(0 -0.000445102 0)
(0 -0.000425365 0)
(0 -0.00118384 0)
(0 -0.00169033 0)
(0 -0.000624065 0)
(0 -0.00129382 0)
(0 -0.0013657 0)
(0 -4.57626e-05 0)
(0 -0.0015788 0)
(0 -0.000313532 0)
(0 -0.00138505 0)
(0 -0.000841488 0)
(0 -0.0026117 0)
(0 -0.000687629 0)
(0 -0.00031443 0)
(0 -0.000636541 0)
(0 -0.00290964 0)
(0 -0.000165481 0)
(0 -0.000315753 0)
(0 -0.000240067 0)
(0 -5.87252e-05 0)
(0 -0.00104002 0)
(0 -0.00307687 0)
(0 -0.00294881 0)
(0 -0.00103892 0)
(0 -0.000704543 0)
(0 -0.0028709 0)
(0 -0.00212381 0)
(0 -0.000174896 0)
(0 -0.00069205 0)
(0 -0.00173291 0)
(0 -0.00259151 0)
(0 -0.000762028 0)
(0 -0.000297099 0)
(0 -0.000880417 0)
(0 -0.00121082 0)
(0 -0.00212674 0)
(0 -0.0026393 0)
(0 -0.00207953 0)
(0 -0.00211691 0)
(0 -0.00278679 0)
(0 -0.00254122 0)
(0 -0.000957716 0)
(0 -0.00171015 0)
(0 -0.000655249 0)
(0 -0.000624864 0)
(0 -0.00250795 0)
(0 -0.000571501 0)
(0 -0.00133282 0)
(0 -0.00198666 0)
(0 -0.00260271 0)
(0 -0.00278521 0)
(0 -0.00238037 0)
(0 -0.000724438 0)
(0 -0.000607652 0)
(0 -0.00208785 0)
(0 -0.00244134 0)
(0 -0.00238781 0)
(0 -0.0020826 0)
(0 -9.26108e-05 0)
(0 -0.000616406 0)
(0 -0.00197978 0)
(0 -0.00122017 0)
(0 -0.000356321 0)
(0 -0.00183401 0)
(0 -0.00153618 0)
(0 -0.00178707 0)
(0 -0.0007963 0)
(0 -0.00205205 0)
(0 -0.000218239 0)
(0 -0.00196037 0)
(0 -0.00257192 0)
(0 -0.00139949 0)
(0 -0.000177259 0)
(0 -0.00120934 0)
(0 -0.00264069 0)
(0 -0.00156825 0)
(0 -0.000822522 0)
(0 -0.000711273 0)
(0 -0.002207 0)
(0 -0.00164186 0)
(0 -0.00237969 0)
(0 -0.00198759 0)
(0 -3.20216e-05 0)
(0 -0.00184484 0)
(0 -0.001859 0)
(0 -0.00217136 0)
(0 -0.00294748 0)
(0 -0.00122259 0)
(0 -0.00204397 0)
(0 -0.000831921 0)
(0 -0.000844333 0)
(0 -0.00272029 0)
(0 -0.00277945 0)
(0 -0.00121163 0)
(0 -0.00139942 0)
(0 -0.00241386 0)
(0 -0.00288455 0)
(0 -0.000991511 0)
(0 -0.000418962 0)
(0 -0.000810937 0)
(0 -0.00266445 0)
(0 -0.00162118 0)
(0 -0.001572 0)
(0 -0.00253701 0)
(0 -0.000651154 0)
(0 -0.00088703 0)
(0 -0.000993051 0)
(0 -0.00260766 0)
(0 -0.00106967 0)
(0 -0.00294596 0)
(0 -0.000902595 0)
(0 -0.00163473 0)
(0 -0.000775176 0)
(0 -0.000996973 0)
(0 -0.00169843 0)
(0 -0.00138036 0)
(0 -0.000786451 0)
(0 -4.39375e-05 0)
(0 -0.00152905 0)
(0 -0.00255538 0)
(0 -0.00235688 0)
(0 -0.00206952 0)
(0 -0.00100907 0)
(0 -0.00143453 0)
(0 -0.0008551 0)
(0 -0.00204838 0)
(0 -0.00241549 0)
(0 -0.00078719 0)
(0 -0.00126238 0)
(0 -0.00159061 0)
(0 -0.00194262 0)
(0 -0.002121 0)
(0 -0.00213584 0)
(0 -0.00260034 0)
(0 -0.000185476 0)
(0 -0.00237875 0)
(0 -0.00203611 0)
(0 -0.00244444 0)
(0 -0.00296075 0)
(0 -0.00198814 0)
(0 -0.00134701 0)
(0 -0.000526222 0)
(0 -0.000825171 0)
(0 -0.00203782 0)
(0 -0.000390781 0)
(0 -0.00120128 0)
(0 -9.61692e-05 0)
(0 -0.00263235 0)
(0 -0.00188665 0)
(0 -0.00127961 0)
(0 -0.00253299 0)
(0 -0.00100415 0)
(0 -0.00217801 0)
(0 -0.00204337 0)
(0 -0.000867737 0)
(0 -0.00252523 0)
(0 -0.000660057 0)
(0 -0.0006764 0)
(0 -0.000927298 0)
(0 -0.000306416 0)
(0 -0.00161123 0)
(0 -0.000598868 0)
(0 -0.00126088 0)
(0 -0.00146283 0)
(0 -0.00296708 0)
(0 -0.00146596 0)
(0 -0.00136641 0)
(0 -0.000285424 0)
(0 -0.00127087 0)
(0 -0.00220354 0)
(0 -0.000971575 0)
(0 -0.00297314 0)
(0 -0.000423869 0)
(0 -0.000508075 0)
(0 -0.00100928 0)
(0 -0.000594275 0)
(0 -0.00163334 0)
(0 -0.00153829 0)
(0 -0.0029473 0)
(0 -0.00238298 0)
(0 -0.00199304 0)
(0 -0.00306201 0)
(0 -0.000674716 0)
(0 -0.00145604 0)
(0 -0.00179841 0)
(0 -0.00133264 0)
(0 -4.33109e-05 0)
(0 -0.0011526 0)
(0 -0.000218973 0)
(0 -0.00103974 0)
(0 -0.00239179 0)
(0 -0.00194187 0)
(0 -0.00100614 0)
(0 -0.00250193 0)
(0 -0.00165427 0)
(0 -0.000180062 0)
(0 -0.00187818 0)
(0 -0.000915505 0)
(0 -0.000623702 0)
(0 -0.00185198 0)
(0 -0.00228548 0)
(0 -0.00121242 0)
(0 -0.000455937 0)
(0 -0.0018794 0)
(0 -0.000183702 0)
(0 -0.00126749 0)
(0 -0.00293797 0)
(0 -0.00083495 0)
(0 -0.00151832 0)
(0 -4.92834e-05 0)
(0 -0.00162227 0)
(0 -0.00249485 0)
(0 -0.00102113 0)
(0 -0.00284504 0)
(0 -0.000302384 0)
(0 -0.00123102 0)
(0 -0.00105049 0)
(0 -0.00184918 0)
(0 -0.000946851 0)
(0 -0.00151034 0)
(0 -0.000979839 0)
(0 -0.000816356 0)
(0 -8.32579e-05 0)
(0 -8.86546e-05 0)
(0 -0.00154182 0)
(0 -0.00041766 0)
(0 -0.00153882 0)
(0 -0.00112626 0)
(0 -0.00131247 0)
(0 -0.000496948 0)
(0 -0.00208948 0)
(0 -0.00175934 0)
(0 -0.00291467 0)
(0 -0.00074055 0)
(0 -0.00279352 0)
(0 -0.00015854 0)
(0 -0.00191985 0)
(0 -0.00244996 0)
(0 -0.00256927 0)
(0 -0.000438652 0)
(0 -0.00299938 0)
(0 -0.00107803 0)
(0 -0.00110832 0)
(0 -0.00111764 0)
(0 -0.0019143 0)
(0 -0.00086048 0)
(0 -0.00261836 0)
(0 -0.0024262 0)
(0 -0.00090562 0)
(0 -0.0020583 0)
(0 -0.00258767 0)
(0 -0.00160699 0)
(0 -0.00266978 0)
(0 -0.000585137 0)
(0 -0.00152695 0)
(0 -0.00282006 0)
(0 -0.000551137 0)
(0 -0.00103757 0)
(0 -0.001575 0)
(0 -0.00148427 0)
(0 -2.14728e-05 0)
(0 -0.000938474 0)
(0 -0.000950718 0)
(0 -0.000469654 0)
(0 -0.00297773 0)
(0 -0.000862154 0)
(0 -0.00152415 0)
(0 -0.00115892 0)
(0 -0.00184948 0)
(0 -0.000912396 0)
(0 -0.0020853 0)
(0 -0.00248077 0)
(0 -0.0013764 0)
(0 -0.00257172 0)
(0 -0.000788343 0)
(0 -0.00148362 0)
(0 -0.0015594 0)
(0 -0.00284079 0)
(0 -0.00154996 0)
(0 -0.00141586 0)
(0 -0.00113202 0)
(0 -0.00158193 0)
(0 -0.00189258 0)
(0 -0.00114452 0)
(0 -0.00263757 0)
(0 -0.00141497 0)
(0 -0.00162971 0)
(0 -0.00215277 0)
(0 -0.00268613 0)
(0 -0.00225325 0)
(0 -0.00259175 0)
(0 -0.000138812 0)
(0 -0.000665104 0)
(0 -0.00267509 0)
(0 -0.00179514 0)
(0 -0.00290701 0)
(0 -0.00107992 0)
(0 -0.000815662 0)
(0 -0.000886389 0)
(0 -0.00114542 0)
(0 -0.00253144 0)
(0 -0.000191663 0)
(0 -0.000846429 0)
(0 -0.0024291 0)
(0 -0.00156945 0)
(0 -0.00160932 0)
(0 -0.000407663 0)
(0 -0.0012508 0)
(0 -0.000179602 0)
(0 -0.0016008 0)
(0 -0.0022254 0)
(0 -0.000409081 0)
(0 -0.0026205 0)
(0 -0.00160963 0)
(0 -0.000863931 0)
(0 -0.00155882 0)
(0 -0.00219391 0)
(0 -0.00256809 0)
(0 -0.000230805 0)
(0 -0.00108886 0)
(0 -0.000715017 0)
(0 -0.00118035 0)
(0 -0.00178932 0)
(0 -0.000619126 0)
(0 -0.000756348 0)
(0 -0.00152812 0)
(0 -0.00184419 0)
(0 -0.00102322 0)
(0 -0.00269469 0)
(0 -0.000126735 0)
(0 -0.00200077 0)
(0 -0.00256972 0)
(0 -0.00240819 0)
(0 -0.000111653 0)
(0 -0.000381526 0)
(0 -0.00255987 0)
(0 -0.00134988 0)
(0 -0.00122791 0)
(0 -0.00101954 0)
(0 -0.000893713 0)
(0 -0.00120702 0)
(0 -0.000410549 0)
(0 -0.00275525 0)
(0 -0.000117261 0)
(0 -0.00216342 0)
(0 -0.00103674 0)
(0 -0.00163081 0)
(0 -0.00147793 0)
(0 -0.00158349 0)
(0 -0.000928071 0)
(0 -0.000995866 0)
(0 -0.00109124 0)
(0 -0.0020247 0)
(0 -0.000867793 0)
(0 -9.28062e-05 0)
(0 -0.000385038 0)
(0 -0.000646487 0)
(0 -0.000860571 0)
(0 -0.0018836 0)
(0 -0.000842634 0)
(0 -0.00133178 0)
(0 -0.00101022 0)
(0 -0.000877717 0)
(0 -0.000937068 0)
(0 -0.000142237 0)
(0 -0.00264288 0)
(0 -0.000595794 0)
(0 -0.00259973 0)
(0 -0.0012894 0)
(0 -0.000784095 0)
(0 -0.00163613 0)
(0 -0.000840223 0)
(0 -0.00111298 0)
(0 -0.000901549 0)
(0 -0.00195725 0)
(0 -0.00199789 0)
(0 -0.00125404 0)
(0 -0.00297004 0)
(0 -0.000536468 0)
(0 -0.00239136 0)
(0 -0.00027499 0)
(0 -0.0019323 0)
(0 -0.000576326 0)
(0 -0.00217242 0)
(0 -0.00128977 0)
(0 -2.97625e-05 0)
(0 -0.00170802 0)
(0 -0.00158142 0)
(0 -0.00138874 0)
(0 -0.00257745 0)
(0 -0.000586541 0)
(0 -0.00112678 0)
(0 -0.00278995 0)
(0 -0.000194384 0)
(0 -0.000359932 0)
(0 -0.00081595 0)
(0 -0.00263725 0)
(0 -0.00217267 0)
(0 -0.00130881 0)
(0 -0.000841365 0)
(0 -0.00186782 0)
(0 -0.00114507 0)
(0 -0.00094594 0)
(0 -0.000354764 0)
(0 -0.00164041 0)
(0 -0.000553346 0)
(0 -0.00246607 0)
(0 -0.00281348 0)
(0 -0.000790719 0)
(0 -0.0008258 0)
(0 -0.000772241 0)
(0 -0.000819612 0)
(0 -0.00113675 0)
(0 -0.00182115 0)
(0 -0.000590922 0)
(0 -0.000678194 0)
(0 -0.00155891 0)
(0 -0.00120401 0)
(0 -0.000837922 0)
(0 -0.00135353 0)
(0 -0.000751208 0)
(0 -0.000779255 0)
(0 -0.00249591 0)
(0 -0.00179865 0)
(0 -0.00247079 0)
(0 -0.000760099 0)
(0 -0.0016963 0)
(0 -0.000460914 0)
(0 -0.000868371 0)
(0 -0.00149518 0)
(0 -0.00126719 0)
(0 -0.000775095 0)
(0 -0.00156838 0)
(0 -0.00261834 0)
(0 -0.00230761 0)
(0 -0.000952513 0)
(0 -0.00207102 0)
(0 -0.000390636 0)
(0 -0.000565245 0)
(0 -0.00101282 0)
(0 -0.00207776 0)
(0 -0.00059919 0)
(0 -0.00180938 0)
(0 -0.00101102 0)
(0 -8.6986e-05 0)
(0 -0.00133981 0)
(0 -0.0015892 0)
(0 -0.00114846 0)
(0 -0.00275702 0)
(0 -0.00207784 0)
(0 -0.00296374 0)
(0 -0.000596286 0)
(0 -0.000487787 0)
(0 -0.00126909 0)
(0 -0.000787398 0)
(0 -0.0010791 0)
(0 -0.0010279 0)
(0 -0.00119283 0)
(0 -0.000178766 0)
(0 -0.000566031 0)
(0 -0.00127521 0)
(0 -0.000738895 0)
(0 -0.00153467 0)
(0 -0.00151001 0)
(0 -0.00168894 0)
(0 -0.000925108 0)
(0 -0.0018304 0)
(0 -0.000717995 0)
(0 -0.0004805 0)
(0 -9.01372e-05 0)
(0 -0.000981988 0)
(0 -0.0012024 0)
(0 -0.000758705 0)
(0 -0.00235836 0)
(0 -0.00174517 0)
(0 -0.000912226 0)
(0 -0.000863708 0)
(0 -0.00202375 0)
(0 -6.88459e-05 0)
(0 -0.000902569 0)
(0 -0.00228769 0)
(0 -0.00142292 0)
(0 -0.00288325 0)
(0 -0.00144419 0)
(0 -0.000649031 0)
(0 -0.000153295 0)
(0 -0.00260311 0)
(0 -0.00260631 0)
(0 -0.00147306 0)
(0 -0.00211303 0)
(0 -0.00224894 0)
(0 -0.00157021 0)
(0 -0.00186762 0)
(0 -0.00118465 0)
(0 -0.00188243 0)
(0 -0.0025238 0)
(0 -0.00114517 0)
(0 -0.000612977 0)
(0 -0.000785093 0)
(0 -0.000737364 0)
(0 -0.0010639 0)
(0 -0.000807114 0)
(0 -0.00161262 0)
(0 -0.000658013 0)
(0 -0.00130173 0)
(0 -0.00158214 0)
(0 -0.000980481 0)
(0 -0.000867679 0)
(0 -0.00128586 0)
(0 -0.000813637 0)
(0 -0.00127632 0)
(0 -0.00264151 0)
(0 -0.000423527 0)
(0 -0.00131799 0)
(0 -0.000926283 0)
(0 -0.00114274 0)
(0 -0.000701125 0)
(0 -2.62874e-05 0)
(0 -0.00254736 0)
(0 -0.000639739 0)
(0 -0.000449494 0)
(0 -0.000636368 0)
(0 -0.000646849 0)
(0 -0.00156914 0)
(0 -0.000400799 0)
(0 -0.00184488 0)
(0 -0.000841111 0)
(0 -0.00142415 0)
(0 -0.0002305 0)
(0 -0.00265707 0)
(0 -0.000692262 0)
(0 -0.000546501 0)
(0 -0.00086708 0)
(0 -0.000955631 0)
(0 -0.000736056 0)
(0 -0.000903097 0)
(0 -0.000634812 0)
(0 -0.000949218 0)
(0 -0.00265476 0)
(0 -0.000425028 0)
(0 -0.00172811 0)
(0 -9.41892e-05 0)
(0 -0.00105911 0)
(0 -0.00234229 0)
(0 -0.00091437 0)
(0 -0.000710427 0)
(0 -0.00140939 0)
(0 -0.00251213 0)
(0 -0.00131392 0)
(0 -0.000593165 0)
(0 -0.00259605 0)
(0 -0.000835397 0)
(0 -0.000120217 0)
(0 -0.00284858 0)
(0 -0.000318485 0)
(0 -0.00145535 0)
(0 -0.000230231 0)
(0 -0.000371612 0)
(0 -0.00082419 0)
(0 -0.000758639 0)
(0 -0.00019097 0)
(0 -0.00106603 0)
(0 -0.00265534 0)
(0 -0.00209606 0)
(0 -0.00116556 0)
(0 -0.000633746 0)
(0 -0.000640115 0)
(0 -0.00262339 0)
(0 -0.00059582 0)
(0 -0.00106664 0)
(0 -0.00246917 0)
(0 -0.000992842 0)
(0 -0.000895912 0)
(0 -0.000699144 0)
(0 -0.000365343 0)
(0 -0.00246183 0)
(0 -0.0017026 0)
(0 -0.000664766 0)
(0 -0.00272828 0)
(0 -0.00232199 0)
(0 -0.0009758 0)
(0 -0.00262325 0)
(0 -0.00241677 0)
(0 -0.00231168 0)
(0 -4.66465e-05 0)
(0 -3.11709e-05 0)
(0 -0.00127622 0)
(0 -0.00151363 0)
(0 -0.00200262 0)
(0 -0.00109003 0)
(0 -0.000776205 0)
(0 -0.000959827 0)
(0 -0.000952614 0)
(0 -0.000858627 0)
(0 -0.000853267 0)
(0 -0.00256255 0)
(0 -0.000706019 0)
(0 -0.000932518 0)
(0 -0.00259553 0)
(0 -0.00272053 0)
(0 -0.00192253 0)
(0 -0.00244106 0)
(0 -0.00072586 0)
(0 -0.00255646 0)
(0 -0.00158224 0)
(0 -0.000924046 0)
(0 -0.00141102 0)
(0 -0.000970802 0)
(0 -0.00221475 0)
(0 -0.0016707 0)
(0 -0.00111497 0)
(0 -0.000522971 0)
(0 -0.00178665 0)
(0 -0.000189812 0)
(0 -0.00149735 0)
(0 -0.0027032 0)
(0 -0.000662437 0)
(0 -0.00247058 0)
(0 -0.000950889 0)
(0 -4.31249e-05 0)
(0 -0.0008327 0)
(0 -0.00282241 0)
(0 -0.000906051 0)
(0 -0.000383156 0)
(0 -0.00108049 0)
(0 -0.000876487 0)
(0 -0.0019393 0)
(0 -4.38209e-05 0)
(0 -0.000879703 0)
(0 -0.00096909 0)
(0 -0.00189753 0)
(0 -0.00247858 0)
(0 -0.00273729 0)
(0 -4.44321e-05 0)
(0 -0.0012023 0)
(0 -7.82873e-05 0)
(0 -0.00126671 0)
(0 -0.00105248 0)
(0 -0.000787107 0)
(0 -0.00178028 0)
(0 -3.49146e-05 0)
(0 -0.00127451 0)
(0 -0.000839056 0)
(0 -0.00112538 0)
(0 -0.000925804 0)
(0 -0.00106056 0)
(0 -0.000911882 0)
(0 -0.00220688 0)
(0 -0.00133337 0)
(0 -0.000960518 0)
(0 -0.000943394 0)
(0 -0.00200379 0)
(0 -0.000181908 0)
(0 -0.00117541 0)
(0 -0.00117723 0)
(0 -0.00114186 0)
(0 -0.00158018 0)
(0 -0.000863759 0)
(0 -0.00242829 0)
(0 -0.000514072 0)
(0 -0.00111595 0)
(0 -0.000920973 0)
(0 -6.99575e-05 0)
(0 -0.00137664 0)
(0 -0.000184317 0)
(0 -0.00102964 0)
(0 -0.0010367 0)
(0 -0.000973773 0)
(0 -0.000776019 0)
(0 -0.00107667 0)
(0 -0.000776406 0)
(0 -0.00198284 0)
(0 -0.00107936 0)
(0 -0.00213793 0)
(0 -0.00200902 0)
(0 -0.00240566 0)
(0 -0.00107565 0)
(0 -0.00113527 0)
(0 -0.000757373 0)
(0 -0.00122409 0)
(0 -0.00105338 0)
(0 -0.000202605 0)
(0 -0.00181624 0)
(0 -0.000886673 0)
(0 -0.00150978 0)
(0 -0.00111072 0)
(0 -0.000227885 0)
(0 -0.00215618 0)
(0 -0.000222052 0)
(0 -0.000980747 0)
(0 -0.000810427 0)
(0 -0.00114136 0)
(0 -0.000789884 0)
(0 -0.000765758 0)
(0 -0.0012345 0)
(0 -0.000787852 0)
(0 -0.00110363 0)
(0 -0.00205865 0)
(0 -0.00176837 0)
(0 -0.00119867 0)