/*--------------------------------*- C++ -*----------------------------------*\
| =========                 |                                                 |
| \\      /  F ield         | OpenFOAM: The Open Source CFD Toolbox           |
|  \\    /   O peration     | Version:  v2012                                 |
|   \\  /    A nd           | Website:  www.openfoam.com                      |
|    \\/     M anipulation  |                                                 |
\*---------------------------------------------------------------------------*/
FoamFile
{
    version     2.0;
    format      ascii;
    class       volScalarField;
    location    "500";
    object      p;
}
// * * * * * * * * * * * * * * * * * * * * * * * * * * * * * * * * * * * * * //

dimensions      [0 2 -2 0 0 0 0];


internalField   nonuniform List<scalar> 
9793
(
0.0166643
0.000317182
0.0164216
0.00323871
-0.129135
0.00581802
0.00208614
0.00239802
-0.000147732
-0.084519
0.0125964
0.00729569
0.00320228
0.000287874
0.00129863
0.000409913
0.000181777
7.03017e-05
-0.25217
0.000368952
0.00108079
0.00580947
-0.02042
3.04557e-05
0.00376983
0.00322404
0.000632344
0.000514407
0.0184712
0.00010531
0.00654781
-0.0183457
0.00497086
0.000240657
0.0212357
-0.00952598
0.00193806
0.00582426
0.00245467
0.000529775
0.0062164
0.00108593
0.00305778
0.00169812
0.00319396
0.00316371
0.0199973
-0.00227716
0.00099056
0.00325067
0.0230915
0.016584
0.00587035
0.00192798
0.0409208
-0.023238
0.00220995
0.0142523
-0.0225474
0.00244192
0.00054101
0.00585723
-0.00798024
0.00335409
-0.127585
0.00282098
-0.00266505
-0.000693542
0.0061513
0.0129479
0.0409721
-0.000109722
0.0038626
0.000443028
0.0246736
-0.0134407
0.00210301
0.000135965
0.001294
0.000786132
0.0017655
0.00146038
0.000518921
-0.00404219
0.0064785
-0.00333932
0.000747697
0.00202337
0.0057103
0.00158781
0.000740493
-0.00453067
-0.0005998
-0.0228233
0.00573712
-0.00535354
-0.0106185
0.000775598
-0.000533248
-0.000278393
-0.000273461
0.00178947
3.70486e-05
0.000102852
0.000204831
0.00614015
0.00552105
0.000966658
0.00572817
0.0011793
-7.9519e-05
0.00939837
0.00281028
-0.0372612
0.0177044
0.00206657
0.00648034
0.0252958
0.0014054
-0.0181697
0.00168928
-1.55991e-05
0.00284039
0.00568161
0.001958
0.00336203
-0.00408017
-0.00488144
0.00124029
0.00363471
8.2325e-05
0.0019632
0.00366034
0.00209785
0.000235891
0.00199747
0.00343735
0.0018316
0.0028994
0.000383071
0.00291178
0.00361377
0.00269759
-0.000320011
0.000278026
0.000256035
0.00119147
-0.00032448
-0.000391722
0.000711345
-0.212923
-0.000147622
-0.196157
-0.0647798
-0.000306115
1.76428e-05
0.000250947
0.00349976
-0.000311693
0.00270564
0.00237408
0.000478211
0.000645756
-0.173645
0.000515009
-0.000505197
-0.00480634
0.00835795
0.000611429
0.00182234
0.00405929
-0.0161688
0.000467162
-0.0192985
0.00144552
-0.2004
0.001912
6.80097e-05
0.00380179
0.00526089
-0.00173637
-0.00288798
-0.000313285
0.00372364
-0.0268346
0.0037953
0.0159742
0.00381299
0.0030728
0.000569553
0.00109611
0.00348912
0.00110116
0.00754497
-0.00443106
0.00446034
-0.00932209
0.0016262
-0.0741603
0.000372412
0.000477539
-0.0945467
-0.0356368
0.00358577
0.001911
0.000121323
-0.00455732
5.06641e-05
0.00622417
0.00207485
0.0106212
0.0026113
-0.00124946
0.00188413
-0.0235473
0.000337685
0.00199968
-0.0177669
0.000191849
-0.0356151
0.0310418
0.00254471
0.00165211
0.00353646
-0.00480075
-0.139099
0.00576191
-0.000202452
0.0305452
0.0123479
-2.92528e-05
4.39446e-05
-0.00318815
0.000394299
0.00245832
-0.0284135
0.00298404
0.00386477
-0.00270285
0.00166321
0.00590347
0.000122424
0.00369336
0.0038982
0.00376149
-0.000427365
0.00235522
0.00341565
-0.000495301
0.000319159
0.00402126
0.00346007
0.0177529
-0.000928606
0.00353961
0.00623569
0.00407611
0.0040196
0.00532424
5.75652e-05
-0.0042082
0.00384965
0.0190394
0.000461346
0.00893487
9.84511e-05
0.000105805
0.011552
-0.0923271
0.00539804
-2.65352e-06
0.000464759
0.00808024
0.00236547
0.000533703
0.000868319
0.00361126
0.0051154
0.00355054
-0.00273556
0.00335356
6.86903e-05
0.00104426
0.000618785
-0.00608131
0.00258078
0.00411978
0.00740357
0.00218794
0.00199686
0.00287436
0.0042658
0.00546031
0.00194626
0.000276795
0.00189802
0.00308831
0.0080755
0.00344107
-0.112142
-0.000271231
-0.00165626
0.0068
0.000771453
0.00153016
-0.000137813
0.00831954
0.00677335
0.00317617
-0.0013511
0.00362795
-7.21176e-05
0.00721005
0.00465641
0.0032923
0.00155209
-0.004591
0.00345866
0.00807325
0.00193104
0.00331402
0.000845593
-0.110107
0.000896133
1.87613e-06
0.00500684
0.00366168
-0.0211503
0.0275926
0.000586979
-0.00632332
0.028174
0.00179243
0.00594343
0.0162468
0.00223957
0.00321578
0.000561868
0.000216819
0.000546846
0.0193686
0.0038418
0.00331957
-0.0860818
0.00174563
0.000500616
3.86545e-06
0.00491588
0.00227536
0.00406813
0.00251441
0.00270472
0.00438846
0.001736
-0.00891973
0.00181166
0.00571562
4.31738e-05
0.0109475
0.0380528
0.0158849
0.0120289
0.0047836
0.00212295
-0.0783763
0.00044789
-0.00573851
0.00152699
0.000399177
0.00422437
0.00570852
-0.138703
0.00264243
0.00390617
-0.0121754
0.00438406
0.00371788
0.00665997
0.000758438
0.000943522
0.0063454
0.00152406
-0.0339556
0.00343905
0.00422258
0.000367321
0.000637325
0.000543432
0.00156653
0.00608602
-0.0124257
0.00104942
-0.219261
-0.0353053
-0.0976186
0.0110415
0.000653724
0.000367299
0.000525883
0.0210962
-0.0336568
5.77564e-05
-0.00207629
-0.0599552
0.000507526
-0.0303097
0.00393341
0.00617883
0.000505518
0.0134737
0.00384863
0.00145608
0.00206534
2.92742e-05
-0.0205662
0.0030233
0.00278562
0.0032303
0.00158387
0.00538993
0.000153243
-0.0478932
0.00352055
0.00337105
0.0172255
0.00127337
0.00533299
0.00338015
0.000630859
0.00654676
0.0025665
0.00355237
0.000545859
-0.00853937
0.000305767
-0.00884603
0.00191593
0.00484907
0.00310007
0.0017948
0.00160743
0.00126629
-0.0144204
0.00155913
0.0386756
0.000558778
0.00408655
0.00397143
-0.0484878
0.00749529
0.0340147
0.00341269
0.0058952
0.0032745
0.00596056
0.00728162
0.0124527
-0.000364082
-0.00550162
0.00357178
0.00315872
0.00565719
0.00286619
0.00155239
0.00300524
-1.7972e-05
0.000337406
-0.0657383
0.00251481
-0.0181714
-9.80816e-05
0.00807387
4.45658e-05
9.6362e-05
7.32611e-05
0.00150934
0.00644447
0.00191274
0.0032117
0.000613817
0.00335193
0.00518599
-0.000122599
0.00217186
0.00329632
0.00635406
0.00570191
0.00220153
-0.0107555
0.00320956
0.000232646
0.00025256
0.00452961
0.00531829
0.00361963
0.00334549
0.00342765
0.00163391
0.00411899
0.00361434
-3.10567e-05
0.0211166
0.000416043
-0.023247
0.0119028
-0.000421762
0.00543578
0.00132536
0.0107278
0.0032387
-0.0316221
0.000589516
0.00373829
0.0142828
0.00312367
0.00591318
0.00210413
0.00826405
-0.000423021
-0.241881
0.00549568
0.000977048
0.00383275
-6.74607e-05
0.00289341
0.000938247
0.00345817
0.00289085
0.00336658
0.000508038
0.0111296
0.00561217
0.00374029
0.00338495
0.00183519
0.000128952
0.00346883
0.0105936
0.0167391
0.000464412
0.00221014
0.023703
0.00425601
-0.000202724
0.00493731
9.78166e-05
0.0137075
-0.0342228
0.0024184
0.0262943
8.81716e-05
-0.0279645
0.00646021
-0.00674897
0.00377453
0.00362055
0.000203157
0.000308739
0.00216386
-0.00865506
0.000880804
-0.0758395
0.00704529
-0.0293272
0.0131066
0.00155481
0.000809087
0.00222452
-0.00205565
0.00251984
0.00611806
0.000660122
6.73741e-05
0.000900682
-0.00347638
0.00338743
0.0254479
0.000657685
0.000357879
-0.00111009
0.00316318
0.00322981
0.00389222
0.00324494
0.00416941
0.00412413
-0.263536
0.00327411
-0.00918884
-0.0419577
0.00326781
0.000889532
0.00823169
-0.00175524
0.00298828
0.00439569
0.00445887
0.00615141
-0.00411841
0.00287257
0.000967765
0.00138845
0.00449991
0.00479866
0.00460764
0.00509894
-0.0290767
0.00389445
-0.0730318
-0.00103662
0.00203578
0.00320199
0.00201445
0.0018407
0.00172802
0.0037281
-0.00132269
3.00741e-05
0.00346405
-0.00140329
0.00341782
0.00600283
0.000392235
-0.00309565
0.000239052
0.00128179
0.00594902
-0.00426792
0.00187534
0.00141102
0.00356172
0.0031542
0.00108479
0.000793198
0.000366415
0.000849119
0.00325269
0.00388747
0.00067739
0.0129013
0.000258519
0.00116136
0.00276054
0.00533317
0.00342138
0.000542364
0.0104627
0.00012461
0.00462891
0.025825
0.00377862
0.00298839
0.000288889
0.0133919
0.00207114
0.00720508
-0.0821072
-0.0036374
0.00193872
0.00460757
0.00266386
-0.00241155
-0.000609497
0.000560914
0.000817396
0.00441257
0.0221201
0.00310608
0.00210919
0.00264021
0.00283153
-0.052665
0.00341989
-0.00245844
-0.0020683
0.0225324
0.00349385
0.00544647
0.00444795
0.0277408
-0.0500238
0.00394264
-0.00197299
-0.00532455
0.00325709
0.0055025
0.00892736
-0.0214241
0.00371583
0.000218568
-0.00055079
-0.00252313
1.44828e-05
0.00775677
-0.00211735
0.000982777
0.00711114
-0.000863317
0.00343149
0.00342031
0.000727139
0.0010876
0.000626559
-0.0527505
0.000572676
-0.00806724
-0.00576904
-0.00944843
0.0145409
0.00168199
0.0323573
-0.044384
0.00202769
-0.0229532
0.00740218
0.00847646
0.0006028
0.000131732
-0.00435448
0.00442591
-0.060581
0.00265249
-0.0035013
0.000455988
-0.00424649
-0.00411347
0.000930555
-0.244805
0.003621
-0.001424
0.00959763
-0.0559879
-0.0508173
0.000793245
0.000395978
0.000575601
-0.00110729
-0.0834135
0.00369701
0.0065282
0.000168245
0.000592818
0.00341509
0.00211163
-0.00201683
0.00437928
0.00459006
0.000175143
0.00237368
0.00237886
0.0240289
0.000887939
0.00104134
0.00299114
0.00631924
0.00341686
-0.0103477
0.017098
-0.00814381
0.000365309
-0.00347243
0.00279007
0.00148464
0.000833083
-0.00104363
0.00536692
0.00344053
0.00381768
-0.00376592
0.000289985
-0.0379123
0.00233784
-0.00545737
-0.000483833
-3.27203e-05
0.00624766
0.000964481
0.0038282
0.000914101
0.000423806
-0.0108534
-0.00214258
0.00431554
0.014271
-0.000385152
0.00539254
0.00584872
-0.014438
0.00345464
0.00978387
0.00280204
-0.00591974
0.00397074
0.000382194
0.000133403
0.00301722
-0.027578
0.00342866
0.004951
0.00169589
0.000157113
0.000643764
0.0235022
0.000332931
-0.0040289
0.00282751
0.00345943
-0.00702484
0.00341854
0.00603173
0.00023249
0.000342186
0.000256229
-7.82317e-05
0.000330787
0.00676973
0.0042316
0.00450701
0.00293365
-0.0137644
-0.00727991
-0.00879739
0.0104728
0.00675994
0.00443195
0.00104792
0.000107156
0.000762108
-0.0016509
-0.00241993
0.0236506
0.036056
0.00500634
-0.00711826
0.0050579
-0.000788566
0.000909711
0.00460069
0.00262865
-0.00743064
-0.149894
0.00346176
0.00608153
0.00342363
0.00280776
-0.00426262
0.000366979
0.000783983
-0.0013465
0.000474259
0.00880834
0.00583123
-0.000926641
0.0029686
0.000850596
0.000317724
-0.0379172
-0.00663689
0.00348038
0.000762012
0.000614397
0.000772983
0.00566096
0.000688168
0.00475015
-0.00886926
-0.00928609
0.00109717
-0.016044
0.0367211
0.0107688
-0.000964851
-0.0207176
0.00344855
-0.000555654
0.00444026
0.00275858
0.00341504
0.000173718
-0.000421986
-0.152121
0.000773777
0.00615392
0.00095381
0.00802013
0.00458037
-0.00480472
0.00107773
0.00198203
0.0163785
0.0010056
0.00081395
0.0305596
-0.00103151
0.00926527
0.000805696
0.000405465
-0.00358871
-0.0351625
0.000890739
2.68646e-05
2.29224e-05
0.000854755
0.00122172
-0.215916
0.0286523
-0.00114215
0.0128773
-0.00837193
0.00430432
0.00609145
0.00686664
0.0020515
0.0383275
0.00383673
0.00353174
-0.0025395
0.0132399
-0.0374994
0.00367853
-0.0045468
-0.00587047
0.0034121
0.00143522
-0.00522728
-0.208025
0.0021009
-0.000588881
-0.00435653
0.0016381
0.00373536
0.000609265
0.00446385
0.000990288
0.003482
0.00880664
0.00469094
-0.00781976
-0.00126474
0.00172765
0.00623537
0.0146863
-0.00814414
0.00108063
-0.00933855
0.00080808
0.00252163
-0.00119527
0.00110846
0.000336083
0.00603316
-0.0019119
-0.00607826
-0.00537289
0.000199107
0.00206201
0.00261566
-0.00235442
0.00328244
-0.0123923
0.0093332
0.00151931
-0.0613741
-0.00518807
0.00287869
0.00180764
0.00250302
-0.00885834
-0.00984335
0.00872062
0.00491766
0.000435349
0.000229955
-0.0562445
-0.000452185
0.00165136
0.00308974
-0.167684
-0.00645597
0.00368259
0.00435037
0.000814682
0.00431262
0.00421581
-0.00262098
-0.0332481
0.00404587
0.00513742
-0.0125079
-0.00014509
2.13874e-05
0.00628595
0.00600439
0.00173107
0.00188078
-0.00869993
0.00233521
0.000548123
0.00285363
0.00314503
0.00517148
-0.00414348
0.00201304
0.00374229
-0.00748767
0.00438657
0.00071031
0.00290043
0.0017347
0.00486112
0.00462769
-0.00371977
0.00161065
0.00147149
0.00918193
0.00440001
0.000985737
-0.0071134
0.00337149
0.018977
0.00262182
0.00343043
-0.00493313
0.00374708
-0.0184415
0.00487013
0.00257735
-0.00469131
0.00186483
0.00325291
-0.0140706
-0.00016354
-0.00273515
0.00342234
0.00296
-0.073614
-0.0155228
-0.000223614
0.00201582
0.00180392
9.96307e-05
0.00897128
0.00482251
0.00435745
0.00146488
0.00276402
-0.000837607
0.00415322
0.000327686
0.00332681
0.00342029
0.00186608
0.00607794
0.000365365
-0.000356173
0.00113316
-0.00487331
0.000358124
-0.00535542
0.0021603
0.0033136
0.0105056
0.00587737
0.0026299
0.00464065
-0.00370735
0.01764
0.00280429
0.0005522
0.00592821
0.0204264
9.24347e-06
-0.000553744
0.0150559
0.0044709
0.00290359
-0.00162753
0.00133233
0.00580808
0.00144488
0.00246612
0.0108797
-0.00155776
-0.000137355
0.000570267
0.00281503
0.00050169
0.000531022
0.0172517
0.00376667
0.00742357
0.00724759
0.000507857
0.0025624
0.00434908
0.000458691
-0.000579847
0.00362266
0.00561551
-0.00595255
0.000526882
0.00114642
-0.0040769
0.00487429
0.000347116
0.00103107
0.00379918
6.48815e-05
0.00350757
0.00102682
0.00102064
0.000149918
0.0371621
0.0010038
0.000572675
0.00228698
0.000551048
0.0330587
0.00346491
0.00645542
0.00341129
-0.000149773
0.00294448
0.000389183
-0.0015741
0.00222174
0.000398295
0.000786454
-0.00786429
0.00404948
0.00388526
0.0033206
-0.000918933
0.0112226
0.00371424
-0.0298717
-0.0103798
0.000270779
0.000602455
-0.00628893
0.00616467
-0.00209889
0.00808395
0.000339511
0.00345156
0.00727677
0.020113
0.000163066
0.000619704
-0.0885747
0.0031742
-0.0771914
-0.0548985
0.0025612
-0.00359389
0.000591785
0.00474841
0.0206335
0.00331358
-0.0054161
0.000594204
0.00479862
0.027571
0.000583638
0.00258422
0.00487889
0.00390805
0.0061167
-0.00400707
0.0087693
-0.212884
0.000438416
0.00262064
-0.0819024
0.00209643
-0.00574851
0.00264782
-0.00525823
0.00425915
0.0011262
0.00247665
-0.00752205
-0.0422866
-0.120272
-0.00112664
0.000590423
0.00308752
-0.148565
-0.00310101
-0.00079677
0.00562138
0.00572513
-0.000388407
0.000417425
0.00262915
0.00333679
0.00582356
0.00263103
0.00319657
0.000800979
-0.00384742
0.00337404
0.0159771
0.00620474
-0.00204256
-0.0277167
0.00560139
-0.0185111
-0.0131124
0.000603531
0.0180665
0.0203473
-1.80458e-05
0.00106408
0.00400271
0.0196983
-0.00769378
0.0197904
0.00764222
0.00139541
-0.000269945
0.00364226
-0.00209841
-0.0041102
0.00335416
0.0063433
0.00337254
0.000295397
0.00164439
0.000589634
0.00483247
0.00293902
0.00550197
-0.00595695
-0.00227736
0.00344743
-0.00901658
0.00269366
-0.00601488
0.000831775
0.00783264
-0.00254911
0.00346019
0.0219666
0.00197481
-8.39979e-05
0.00349732
-0.000144458
0.00375206
0.0330961
0.000586985
-0.000147806
0.000628617
0.00327759
-0.000913268
0.00340584
-0.00276933
0.0034508
0.00410021
-0.00101998
0.0047796
0.00107481
0.0136236
0.00613216
0.00107015
-0.00219548
0.0024955
-0.00263933
0.00869813
0.00816022
-0.152866
0.00271274
0.0202877
-0.000513133
0.000528033
-0.111462
-0.00681211
-0.104686
-0.224676
0.00257119
0.0185324
0.00281909
0.00768597
0.00501676
0.0144372
0.00791843
0.000611334
-0.0800454
-0.00102858
0.00035716
-0.00590261
-0.000232993
0.00747496
-0.00118121
0.000129473
-0.00198997
0.00266067
-0.0744878
0.00504069
0.00340687
-0.00208214
-5.44742e-05
0.00441756
0.00354311
0.00158209
-0.005127
0.00340414
0.00215393
0.00640334
0.0054419
-0.209831
0.00502703
0.00337899
0.00723499
0.0246628
-0.00493569
0.00383087
0.00180984
-0.00167098
0.000545942
0.00281167
0.0024857
0.00338152
0.000979322
0.00482201
-0.0201314
0.0241958
0.00342203
-0.000123007
0.000764925
0.0389428
0.00200077
-0.00096827
0.00360856
0.0170176
0.00335827
0.00233878
0.00286237
0.0118946
-0.27708
0.00124111
0.0032707
-0.00231022
-0.00268914
-0.00534647
0.00430579
0.000454169
-0.00177989
0.00361065
0.00816708
-0.285254
-0.330738
0.00334931
0.0197687
-0.000134078
-8.16182e-05
0.00178685
-0.0017734
0.0180553
0.00296447
0.0018226
-0.0283119
-0.0265943
-0.00357584
0.00128254
0.00106033
0.0174765
0.00161022
0.00428539
0.00909482
0.00225775
0.00339675
0.00494124
0.00351066
0.000437142
-0.0465417
0.00299488
0.00294057
-0.00264984
0.00166481
-0.00385233
-0.0543074
0.00261855
0.00322886
0.0013001
0.00366449
0.0016521
0.0025794
0.0391118
0.0310226
0.000827612
0.00394432
0.00420695
0.00256834
0.00574782
0.00608824
0.000275103
-0.0536026
0.00307121
0.003157
-0.00107542
0.0179867
0.00107878
-0.0890804
0.001081
0.00192839
4.45778e-05
-0.117774
0.00174103
0.00238896
-0.130961
0.00420575
0.00120821
0.00364503
0.00226515
0.00138438
0.00367659
0.000401805
-0.00634231
0.000368886
-0.00297673
0.0401664
0.00223365
0.0208895
0.00372081
-0.00352442
0.0034576
0.000153184
-0.000118485
0.0027698
0.000948223
0.0202431
0.00276888
-0.0616667
0.00587763
0.00329463
-0.0169432
0.000117624
0.00818962
0.00336732
0.00348067
-0.000336238
0.00278394
0.00281642
0.0069371
0.00496094
0.0123114
0.0033756
0.00341336
0.00523785
-0.186171
-0.00488174
-0.00347064
-0.00789477
0.00197128
0.00217054
-0.0285915
0.00486657
0.00854744
0.00150569
-0.00132003
0.00253841
0.000366517
0.00385195
0.00340236
0.00788364
0.00485076
0.00942919
-0.00261794
-0.000649157
0.00384807
0.00183314
0.0097657
0.000442138
-0.00529322
0.0121165
0.00291596
0.0188874
0.000615158
0.0022367
0.00291484
-0.00179417
0.00637841
0.000509531
0.00323941
-0.00132264
0.00281181
0.00575951
0.00093286
0.00286171
0.00303562
0.000602984
0.00239716
0.00171461
0.00254077
-0.000190857
0.0030187
0.00231872
0.0109679
0.00300996
0.00240485
0.00183754
0.00506874
0.0399726
0.00196258
0.00407095
0.00114331
0.0035733
0.00457001
0.0391434
0.00237639
0.00376152
0.0021253
0.00468819
0.00904591
0.00184319
0.00745762
-0.00016936
0.00348287
0.000107092
0.00543881
0.0162995
0.00483426
-0.000370577
-0.000773942
0.00428504
0.00522185
-0.00168882
0.00396783
0.00429994
0.00310418
0.00442018
0.00237588
0.00272001
0.0032733
-0.00228929
0.00541763
-0.0471289
0.00233646
0.00433865
0.0044137
0.00159144
-0.0124465
-0.00541916
0.00562409
-0.0102763
0.00287972
0.00100259
0.00536867
0.0179137
0.00339197
0.00256337
-0.000175822
6.56722e-05
0.00638609
-0.000859228
0.00519366
0.000627932
0.00140656
0.00309102
-0.0112133
0.00038387
0.00248365
0.0026909
0.00066469
0.00318965
0.0206247
0.00288501
0.00345479
0.00353402
0.004492
0.00263522
-0.00106747
0.00209251
-0.000363638
0.00303683
0.000709479
-0.00221821
0.00112092
0.00303581
0.01559
0.00630897
0.00564869
0.00335339
-0.00282019
0.00416436
-0.00577647
0.0020715
0.00560623
8.68067e-05
0.00339307
0.0039897
-0.0916544
0.00473983
0.0034087
0.00509889
0.0184224
0.00617799
0.00283157
0.00316809
0.00367131
0.00397449
0.000732799
0.000209123
-0.00253916
-0.00456678
-0.0148204
0.00318992
0.00551374
0.00198372
0.00374111
0.00321861
-0.0013968
0.00326008
0.00450518
0.00342547
0.00117753
0.00355554
0.00304033
0.000529276
0.00398842
0.00765297
0.00278464
-0.00287525
5.89186e-05
0.000441923
0.00335926
4.49869e-05
0.00307887
0.00217187
-0.0022454
-0.00311884
-9.70825e-05
-0.0121803
0.00326496
0.00563512
-0.00422016
0.00309929
0.00326911
-0.32298
0.00420656
0.00295848
0.00345141
0.00786986
-0.00164025
0.0188472
0.00242434
-0.0103219
0.000699326
-7.3864e-05
0.000494675
0.00344507
0.00834744
0.00318983
-0.00128064
0.00936677
0.0030524
-0.00341908
0.00190299
0.0112554
-0.000461981
-0.000154108
-0.0079299
0.00310454
0.00343937
0.00343604
0.000612187
0.00316436
-0.00266184
0.00328061
0.0087726
0.00353222
0.00489068
0.0133578
0.00366262
-0.0410993
0.0125479
0.0032652
0.00753659
0.00357794
0.0034978
0.00325967
0.00151525
0.00227113
0.00322572
0.00390131
0.00429589
0.040992
0.00207244
0.00325068
-0.000723864
0.00261898
0.0033994
0.00342359
0.00241053
0.00104946
0.00338195
0.00381467
0.00313933
0.00335807
0.00339001
-0.0569305
0.00247014
0.00347829
0.00447425
0.00573478
0.000570131
0.00241196
0.00339185
0.0010461
0.00331044
0.00466766
-0.032268
0.00416323
0.00344952
0.00562861
-0.00725329
0.00387109
0.000712182
-0.00258931
0.000727549
-0.125552
0.00164499
0.00772287
0.00689973
0.00093136
-0.0776297
-0.00651798
0.00340515
0.00361968
0.000821135
0.00722827
0.0236719
0.00544417
0.0119712
-0.00129211
0.00351288
-0.0689129
0.0035871
0.00094443
0.000526808
0.00691963
0.00861419
0.00365858
0.0035913
0.000905632
0.00341414
0.00356491
0.00342604
0.00396093
0.00328396
0.00537215
0.00377781
0.00420716
0.00350245
0.00356303
0.00327657
0.0032977
0.0185094
0.00533161
0.00019173
0.00367068
0.00311192
0.00344116
-0.00250576
0.0031194
0.00364171
0.0050495
0.00643424
0.000390205
0.000612892
-0.0112508
0.00814487
0.0150378
-0.00206555
0.00567409
0.00367763
0.0030445
0.00299734
0.00124167
0.00230572
0.00305352
0.00285533
0.00742935
-0.0527335
0.000843668
0.00301112
-0.000338709
0.00477892
0.0183652
-0.0108001
0.00676342
0.00410855
0.003296
0.00514605
-0.00125103
0.00343931
0.00343478
0.00375193
0.0040751
-0.000497211
0.00308447
0.000286176
0.00346366
0.00425922
0.00279482
0.00348237
0.0041634
0.00365377
0.0159443
0.00332265
0.00352856
7.40729e-05
0.00633174
-0.0390171
0.0059277
0.0035987
0.000888772
0.0325987
0.00433542
0.000647225
0.00340593
0.000929768
0.00068703
0.00396752
0.00443262
0.0180646
0.00406238
0.00351449
0.00338612
0.00467121
0.003827
0.0034154
0.00220625
0.00357876
0.00405885
0.00403015
0.00370419
0.0034165
0.00383153
0.00440551
0.0020333
0.00331774
0.00186235
0.00406833
0.000786691
0.00444238
0.0024291
0.0034341
-7.89205e-05
0.00342155
0.00422934
0.00359036
0.00261113
0.0039641
0.00331832
-2.24257e-05
0.00331011
0.00337645
0.00348115
-0.0276474
0.00414981
-1.13667e-05
0.00420942
0.00393913
0.00673439
0.0033523
0.00343399
0.0018273
0.00210573
0.00886663
0.00450617
-0.0070326
0.00338025
0.0012307
0.00343715
-0.077166
0.00244231
0.000929771
0.00768454
-0.00890585
-0.00726496
0.00316653
0.00339777
0.00358206
0.000545016
0.00607363
0.00372715
0.00335731
0.00795251
0.00275861
0.00358768
0.00121691
0.000662307
0.0038937
0.000538562
0.00373349
0.00531402
0.00435293
0.00359002
-0.00253666
0.00328932
0.000876249
-0.0201087
0.0041737
0.000945852
-0.0251228
-0.0624747
0.00290124
0.00514098
0.00354577
0.000501999
0.00180678
0.000145975
0.00312568
0.00546101
0.00191969
0.000261448
0.0043852
0.00537353
0.00248122
0.00306163
0.00349417
0.00495371
0.0227063
-0.000645863
0.00426407
0.00399703
0.00479167
0.0039308
0.00451133
0.00342295
0.00269586
-0.00236554
0.00446046
0.00407806
0.00295807
0.00510657
0.000471231
0.00366925
0.00440399
0.00428316
0.00275603
0.00392987
0.00523801
0.00467145
0.00174479
0.0032145
0.00535455
0.0198835
0.00546186
-3.01501e-05
0.00383953
-0.0604659
-0.00601204
-0.0353988
0.00737372
0.000832602
0.00485922
0.00580659
-0.109233
0.000445541
-0.00644856
0.00659107
0.001498
-0.00406495
0.00524754
0.00407114
0.00440179
0.00361786
0.00604954
0.0048576
-0.0638916
0.00453394
0.00349777
0.00721745
0.00435281
0.00456655
0.00351449
-0.00207228
0.00294893
0.00220495
0.00378986
-0.0447628
0.00385575
0.00375898
0.00332617
0.00342514
0.00353769
0.00483509
-0.00105869
0.00335089
0.00457457
0.00580825
0.00466015
0.00606664
0.00400898
0.0039834
0.00545511
0.00377397
0.00346157
0.00342767
-0.268751
0.00413999
0.0160494
0.00351173
0.0047326
0.000138713
0.00398085
0.00129803
0.00524133
0.00117964
0.00495232
-0.00137731
-0.0126008
0.00371659
0.00640474
0.00433722
0.00592493
0.00365192
0.000456456
0.00387526
-7.10613e-05
0.0036354
0.00335094
0.00411248
0.0400309
0.000727583
0.00162848
0.00685697
0.000462339
0.00264924
0.00380893
0.00417522
0.00357247
0.0034347
0.00235662
0.00357805
-0.00264109
0.000560592
0.00366363
0.0047508
0.00368627
0.00321163
0.00336524
0.00220566
0.00256789
0.00274152
0.00637712
0.00189093
0.00154991
0.00385509
-0.00224736
0.00338332
0.000182034
0.00365389
0.000763242
0.00501486
-0.00320685
0.00361077
0.00324204
0.000512064
0.00379512
0.00231908
2.03252e-06
-0.0466802
0.000274297
0.0043351
0.0031
0.00374295
0.0038806
0.00358869
7.83249e-05
-0.000692223
0.00425888
0.00381405
0.002018
0.00329557
0.00375901
0.00337871
0.00681997
0.00536102
0.00423652
0.00605892
-0.00264153
0.00371485
0.0026188
-0.000801856
-0.0451229
0.000302099
0.00329373
0.000850602
0.00396468
0.00338255
-0.00870567
0.003692
-0.00399922
0.0015
-0.00288442
0.00281774
-0.00305877
0.00060883
0.00413476
-0.00277442
0.000570674
0.00627684
0.00351215
0.0028344
-0.00140719
0.00279438
0.000927944
0.00332863
0.000341384
0.000187989
-1.46303e-05
0.00366791
-0.0776451
0.00462916
0.00343016
-0.00106346
0.0132737
0.0016899
0.000499401
0.00304858
-0.00522563
0.00158838
0.00348519
-0.00683166
-0.00185032
0.000321042
0.00323109
-0.00788503
0.00319226
0.00151353
0.00533401
0.00360431
-0.00907965
0.00381037
0.00617681
-0.00759933
0.00260364
0.0014578
0.00700952
0.00575016
0.00419035
0.00370955
0.000133039
0.00101258
0.00293643
-0.00289996
0.00346462
0.000544725
0.00417579
5.12882e-05
-0.0106136
0.00244976
0.00341252
0.00384287
0.00523385
0.00335653
0.00303741
-0.14071
-0.012503
0.00216797
0.00370044
5.20956e-06
0.00488636
-0.00979152
0.000208961
0.0146912
0.00408306
0.00361263
0.00444539
0.00330585
0.00328894
0.0034212
0.00370188
0.00046437
0.0029917
0.00326673
0.00319039
0.000192583
0.00425013
0.00142278
0.00249487
0.000857787
0.00401018
-0.0046335
0.00151971
0.0397463
-0.0393816
0.00155374
0.00326996
0.00386176
0.0157553
0.000354856
0.00378463
0.00313828
0.00342585
0.00363325
0.0157561
0.00427507
0.000441939
0.00323258
0.00254615
-0.000820173
0.00639132
0.00352407
0.00275143
0.00282645
0.00529443
0.00111672
0.00405094
-6.59539e-05
-0.000717894
0.00323359
0.00337387
0.00352948
0.0196537
0.00337905
0.00283551
0.0033726
0.000802839
0.0262828
0.00271899
0.00360502
0.00331618
-0.000829158
0.00173883
-0.00163733
-0.0310676
0.00218574
0.00262054
-0.00112892
0.00345754
0.00141663
0.00253035
0.00118867
-0.0353397
0.00557316
0.00374383
-0.000149954
0.00265388
0.00259499
0.00278895
-0.125154
-0.000974235
0.00248173
0.0025052
0.00275863
0.00361461
0.00320639
-0.00936425
0.00253926
0.00409501
0.00294629
0.00289442
0.00355876
0.00297225
-0.00079091
0.002993
0.00314081
0.00192418
0.00350056
0.00016496
0.00241453
0.00292295
0.00449028
0.000429347
0.00392291
0.0026999
-0.148677
0.00288751
0.00368835
0.00164618
-0.00487657
0.00349789
-0.00491405
0.0153842
0.00458721
-0.126798
0.0046721
0.00516085
0.00329419
0.00754669
0.000625491
0.00377737
-0.00435334
0.00236227
0.00077664
0.00387766
0.00196527
0.00430992
0.00101578
-0.00229862
0.000529786
0.00358284
0.00116727
0.00170024
0.000397832
-4.37596e-05
0.0197818
-0.00357148
0.00831919
-0.00329779
0.00156712
0.00539082
0.00332032
0.000294984
0.00389002
-0.0255803
-0.00309512
-0.00139224
0.005547
0.00247438
-0.0152325
0.00151942
0.00335417
-0.000253579
0.0041232
-0.00348235
0.00245801
0.0236419
0.000621852
0.00231826
0.00445665
-0.00278308
0.00342448
0.000477099
0.00426
0.00151353
-0.000182798
0.000460597
-0.00252508
0.000397027
0.00807845
0.00393281
-0.00342289
0.00461915
0.00437529
0.000745093
0.000710501
-0.025966
0.00255912
0.00177537
0.00249086
0.000572261
0.00284051
-0.0110305
0.00479183
0.00304432
0.00341436
0.00323104
0.00384563
0.00145078
-0.000408157
0.00422189
0.00237962
0.00285011
0.00037503
-0.0203067
0.00797791
-0.000959653
-0.00943401
0.00263593
0.00102499
-0.00942094
0.0216705
0.00183314
-0.000360062
0.00440923
0.00244141
-0.000282651
0.000498175
0.000568484
-0.00552283
-0.00134964
0.000862949
0.00263171
0.00182916
0.00233332
-1.74878e-05
-0.00180358
0.00298308
0.000510956
9.73244e-05
-0.00482196
0.0021943
0.00304172
0.00173135
-0.00121223
0.00291181
0.000582537
0.00144727
-0.00142376
-0.011265
0.00246375
-0.0268939
0.00342697
0.0128084
-0.330052
0.00219513
-0.0591695
0.00057665
0.000434663
0.00249021
0.00279712
0.00161561
0.002513
0.000468605
0.00338753
0.00253044
0.00350193
-0.00201234
0.00289704
0.00302601
0.00170638
-0.00829238
0.00145062
0.00566072
0.000392349
9.67509e-05
0.00309382
0.000493158
0.00592724
0.00413226
0.00431484
-0.284607
0.00291872
0.00195836
0.00461207
0.00126194
-0.00389388
-0.00013041
0.00173186
0.00226486
0.00434681
-0.00333215
-0.00190125
0.000374133
-0.0017393
-0.00149229
0.0025116
0.00406715
0.000454953
-0.00596114
0.00123782
0.000237954
0.000902717
0.00331992
0.00318014
0.00281419
0.00272209
0.0018193
0.00351454
0.00236015
0.00184583
0.000568928
0.00422529
0.00140335
-0.00469438
-0.00364846
0.0013643
0.00218263
0.0417827
0.00552025
0.00158097
0.001364
0.00232032
0.00127299
0.000416763
0.000344033
0.00288929
0.0034025
-0.0014206
-0.0183332
0.00109811
0.00298654
-0.097142
0.00351982
-0.0267846
-0.00330555
0.00445143
-0.0156758
0.00197471
0.000150601
0.00468667
0.00282634
0.0242083
-0.0536195
-0.000530932
0.00277898
0.00141563
0.00222965
0.00260125
0.000869494
0.00179402
0.000694211
0.000250013
0.00294391
-0.000169507
0.00134292
0.00042134
0.00180407
0.000577036
0.00153404
0.00183701
0.00300623
-2.75807e-05
0.00578589
0.00406437
-0.0425553
0.00278025
0.000995884
-0.0250745
0.000355783
-0.000840695
0.000435456
0.00166015
0.00181565
0.000559678
-0.0839102
-0.00393696
0.00318785
0.000199629
0.000550424
0.000475711
0.00191379
-0.0243335
0.00159824
0.0020002
0.00135469
0.00106458
0.000398703
-0.000158075
0.00254573
0.00303162
0.00116517
0.00116706
0.00286197
-0.000738785
0.00342209
-0.0219346
0.00193315
0.00021363
-0.00629457
0.0033652
-0.00635745
0.00480962
0.000947361
-0.00555876
0.00345836
0.00129948
0.00348389
-0.0881286
0.00384626
0.00173093
2.73654e-05
0.00403486
0.000682449
0.00411309
0.020235
0.00664189
0.00151407
-0.172485
0.000132774
0.000227878
0.00136521
0.0062874
0.0024407
0.00291074
0.00274617
-0.045566
0.0013314
0.00408153
0.00142708
0.00154901
0.0018771
0.00439885
0.00172549
0.00398524
-0.00108583
0.000524221
0.0013285
0.00953743
0.00133071
-0.00290407
0.00308874
0.00275855
0.00212277
0.000456943
0.00667999
0.00402465
0.00222304
0.0025186
0.00330084
0.0042924
0.000220411
-8.07151e-05
0.00158265
-0.00333897
0.000814988
0.00289672
0.00710772
0.0011475
0.00130555
0.00329678
-0.0874225
0.00147461
0.00562698
0.00169277
0.0058646
-0.00152513
0.0348587