/*--------------------------------*- C++ -*----------------------------------*\
| =========                 |                                                 |
| \\      /  F ield         | OpenFOAM: The Open Source CFD Toolbox           |
|  \\    /   O peration     | Version:  v2012                                 |
|   \\  /    A nd           | Website:  www.openfoam.com                      |
|    \\/     M anipulation  |                                                 |
\*---------------------------------------------------------------------------*/
FoamFile
{
    version     2.0;
    format      ascii;
    class       pointVectorField;
    location    "250";
    object      pointDisplacement;
}
// * * * * * * * * * * * * * * * * * * * * * * * * * * * * * * * * * * * * * //

dimensions      [0 1 0 0 0 0 0];


internalField   nonuniform List<vector> 
10232
(
(0 0 0)
(-0 -5.50981e-06 -0)
(-0 -5.50981e-06 -0)
(-0 -5.50981e-06 -0)
(-0 -5.50981e-06 -0)
(0 0 0)
(-0 -5.50981e-06 -0)
(-0 -5.50981e-06 -0)
(-0 -5.50981e-06 -0)
(-0 -5.50981e-06 -0)
(0 0 0)
(0 0 0)
(0 0 0)
(0 0 0)
(0 0 0)
(0 0 0)
(0 0 0)
(0 0 0)
(0 0 0)
(0 0 0)
(0 0 0)
(0 0 0)
(0 0 0)
(0 0 0)
(0 0 0)
(0 0 0)
(0 0 0)
(0 0 0)
(0 0 0)
(0 0 0)
(0 0 0)
(0 0 0)
(0 0 0)
(0 0 0)
(0 0 0)
(0 0 0)
(0 0 0)
(0 0 0)
(0 0 0)
(0 0 0)
(0 0 0)
(0 0 0)
(0 0 0)
(0 0 0)
(0 0 0)
(0 0 0)
(0 0 0)
(0 0 0)
(0 0 0)
(0 0 0)
(0 0 0)
(0 0 0)
(0 0 0)
(0 0 0)
(0 0 0)
(0 0 0)
(0 0 0)
(0 0 0)
(0 0 0)
(0 0 0)
(0 0 0)
(0 0 0)
(0 0 0)
(0 0 0)
(0 0 0)
(0 0 0)
(0 0 0)
(0 0 0)
(0 0 0)
(0 0 0)
(0 0 0)
(0 0 0)
(0 0 0)
(0 0 0)
(0 0 0)
(0 0 0)
(0 0 0)
(0 0 0)
(0 0 0)
(0 0 0)
(0 0 0)
(0 0 0)
(0 0 0)
(0 0 0)
(-0 -5.50981e-06 -0)
(-0 -5.50981e-06 -0)
(-0 -5.50981e-06 -0)
(-0 -5.50981e-06 -0)
(-0 -5.50981e-06 -0)
(-0 -5.50981e-06 -0)
(-0 -5.50981e-06 -0)
(-0 -5.50981e-06 -0)
(-0 -5.50981e-06 -0)
(-0 -5.50981e-06 -0)
(-0 -5.50981e-06 -0)
(-0 -5.50981e-06 -0)
(-0 -5.50981e-06 -0)
(-0 -5.50981e-06 -0)
(-0 -5.50981e-06 -0)
(-0 -5.50981e-06 -0)
(-0 -5.50981e-06 -0)
(-0 -5.50981e-06 -0)
(-0 -5.50981e-06 -0)
(-0 -5.50981e-06 -0)
(-0 -5.50981e-06 -0)
(-0 -5.50981e-06 -0)
(-0 -5.50981e-06 -0)
(-0 -5.50981e-06 -0)
(-0 -5.50981e-06 -0)
(-0 -5.50981e-06 -0)
(-0 -5.50981e-06 -0)
(-0 -5.50981e-06 -0)
(-0 -5.50981e-06 -0)
(-0 -5.50981e-06 -0)
(-0 -5.50981e-06 -0)
(-0 -5.50981e-06 -0)
(-0 -5.50981e-06 -0)
(-0 -5.50981e-06 -0)
(-0 -5.50981e-06 -0)
(-0 -5.50981e-06 -0)
(-0 -5.50981e-06 -0)
(-0 -5.50981e-06 -0)
(-0 -5.50981e-06 -0)
(-0 -5.50981e-06 -0)
(-0 -5.50981e-06 -0)
(-0 -5.50981e-06 -0)
(-0 -5.50981e-06 -0)
(-0 -5.50981e-06 -0)
(-0 -5.50981e-06 -0)
(-0 -5.50981e-06 -0)
(-0 -5.50981e-06 -0)
(-0 -5.50981e-06 -0)
(-0 -5.50981e-06 -0)
(-0 -5.50981e-06 -0)
(-0 -5.50981e-06 -0)
(-0 -5.50981e-06 -0)
(-0 -5.50981e-06 -0)
(-0 -5.50981e-06 -0)
(-0 -5.50981e-06 -0)
(-0 -5.50981e-06 -0)
(-0 -5.50981e-06 -0)
(-0 -5.50981e-06 -0)
(-0 -5.50981e-06 -0)
(-0 -5.50981e-06 -0)
(-0 -5.50981e-06 -0)
(-0 -5.50981e-06 -0)
(-0 -5.50981e-06 -0)
(-0 -5.50981e-06 -0)
(-0 -5.50981e-06 -0)
(-0 -5.50981e-06 -0)
(-0 -5.50981e-06 -0)
(-0 -5.50981e-06 -0)
(-0 -5.50981e-06 -0)
(-0 -5.50981e-06 -0)
(-0 -5.50981e-06 -0)
(-0 -5.50981e-06 -0)
(-0 -5.50981e-06 -0)
(-0 -5.50981e-06 -0)
(-0 -5.50981e-06 -0)
(-0 -5.50981e-06 -0)
(-0 -5.50981e-06 -0)
(-0 -5.50981e-06 -0)
(-0 -5.50981e-06 -0)
(-0 -5.50981e-06 -0)
(-0 -5.50981e-06 -0)
(-0 -5.50981e-06 -0)
(-0 -5.50981e-06 -0)
(-0 -5.50981e-06 -0)
(-0 -5.50981e-06 -0)
(-0 -5.50981e-06 -0)
(-0 -5.50981e-06 -0)
(-0 -5.50981e-06 -0)
(-0 -5.50981e-06 -0)
(-0 -5.50981e-06 -0)
(-0 -5.50981e-06 -0)
(-0 -5.50981e-06 -0)
(-0 -5.50981e-06 -0)
(-0 -5.50981e-06 -0)
(-0 -5.50981e-06 -0)
(-0 -5.50981e-06 -0)
(-0 -5.50981e-06 -0)
(-0 -5.50981e-06 -0)
(-0 -5.50981e-06 -0)
(-0 -5.50981e-06 -0)
(-0 -5.50981e-06 -0)
(-0 -5.50981e-06 -0)
(-0 -5.50981e-06 -0)
(-0 -5.50981e-06 -0)
(-0 -5.50981e-06 -0)
(-0 -5.50981e-06 -0)
(-0 -5.50981e-06 -0)
(-0 -5.50981e-06 -0)
(-0 -5.50981e-06 -0)
(-0 -5.50981e-06 -0)
(-0 -5.50981e-06 -0)
(-0 -5.50981e-06 -0)
(-0 -5.50981e-06 -0)
(-0 -5.50981e-06 -0)
(-0 -5.50981e-06 -0)
(-0 -5.50981e-06 -0)
(0 0 0)
(0 0 0)
(0 0 0)
(0 0 0)
(0 0 0)
(0 0 0)
(0 0 0)
(0 0 0)
(0 0 0)
(0 0 0)
(0 0 0)
(0 0 0)
(0 0 0)
(0 0 0)
(0 0 0)
(0 0 0)
(0 0 0)
(0 0 0)
(0 0 0)
(0 0 0)
(0 0 0)
(0 0 0)
(0 0 0)
(0 0 0)
(0 0 0)
(0 0 0)
(0 0 0)
(0 0 0)
(0 0 0)
(0 0 0)
(0 0 0)
(0 0 0)
(0 0 0)
(0 0 0)
(0 0 0)
(0 0 0)
(0 0 0)
(0 0 0)
(0 0 0)
(0 0 0)
(0 0 0)
(0 0 0)
(0 0 0)
(0 0 0)
(0 0 0)
(0 0 0)
(0 0 0)
(0 0 0)
(0 0 0)
(0 0 0)
(0 0 0)
(0 0 0)
(0 0 0)
(0 0 0)
(0 0 0)
(0 0 0)
(0 0 0)
(0 0 0)
(0 0 0)
(0 0 0)
(0 0 0)
(0 0 0)
(0 0 0)
(0 0 0)
(0 0 0)
(0 0 0)
(0 0 0)
(0 0 0)
(0 0 0)
(0 0 0)
(0 0 0)
(0 0 0)
(0 0 0)
(0 0 0)
(-0 -5.50981e-06 -0)
(-0 -5.50981e-06 -0)
(-0 -5.50981e-06 -0)
(-0 -5.50981e-06 -0)
(-0 -5.50981e-06 -0)
(-0 -5.50981e-06 -0)
(-0 -5.50981e-06 -0)
(-0 -5.50981e-06 -0)
(-0 -5.50981e-06 -0)
(-0 -5.50981e-06 -0)
(-0 -5.50981e-06 -0)
(-0 -5.50981e-06 -0)
(-0 -5.50981e-06 -0)
(-0 -5.50981e-06 -0)
(-0 -5.50981e-06 -0)
(-0 -5.50981e-06 -0)
(-0 -5.50981e-06 -0)
(-0 -5.50981e-06 -0)
(-0 -5.50981e-06 -0)
(-0 -5.50981e-06 -0)
(-0 -5.50981e-06 -0)
(-0 -5.50981e-06 -0)
(-0 -5.50981e-06 -0)
(-0 -5.50981e-06 -0)
(-0 -5.50981e-06 -0)
(-0 -5.50981e-06 -0)
(-0 -5.50981e-06 -0)
(-0 -5.50981e-06 -0)
(-0 -5.50981e-06 -0)
(-0 -5.50981e-06 -0)
(-0 -5.50981e-06 -0)
(-0 -5.50981e-06 -0)
(-0 -5.50981e-06 -0)
(-0 -5.50981e-06 -0)
(-0 -5.50981e-06 -0)
(-0 -5.50981e-06 -0)
(-0 -5.50981e-06 -0)
(-0 -5.50981e-06 -0)
(-0 -5.50981e-06 -0)
(-0 -5.50981e-06 -0)
(-0 -5.50981e-06 -0)
(-0 -5.50981e-06 -0)
(-0 -5.50981e-06 -0)
(-0 -5.50981e-06 -0)
(-0 -5.50981e-06 -0)
(-0 -5.50981e-06 -0)
(-0 -5.50981e-06 -0)
(-0 -5.50981e-06 -0)
(-0 -5.50981e-06 -0)
(-0 -5.50981e-06 -0)
(-0 -5.50981e-06 -0)
(-0 -5.50981e-06 -0)
(-0 -5.50981e-06 -0)
(-0 -5.50981e-06 -0)
(-0 -5.50981e-06 -0)
(-0 -5.50981e-06 -0)
(-0 -5.50981e-06 -0)
(-0 -5.50981e-06 -0)
(-0 -5.50981e-06 -0)
(-0 -5.50981e-06 -0)
(-0 -5.50981e-06 -0)
(-0 -5.50981e-06 -0)
(-0 -5.50981e-06 -0)
(-0 -5.50981e-06 -0)
(-0 -5.50981e-06 -0)
(-0 -5.50981e-06 -0)
(-0 -5.50981e-06 -0)
(-0 -5.50981e-06 -0)
(-0 -5.50981e-06 -0)
(-0 -5.50981e-06 -0)
(-0 -5.50981e-06 -0)
(-0 -5.50981e-06 -0)
(-0 -5.50981e-06 -0)
(-0 -5.50981e-06 -0)
(-0 -5.50981e-06 -0)
(-0 -5.50981e-06 -0)
(-0 -5.50981e-06 -0)
(-0 -5.50981e-06 -0)
(-0 -5.50981e-06 -0)
(-0 -5.50981e-06 -0)
(-0 -5.50981e-06 -0)
(-0 -5.50981e-06 -0)
(-0 -5.50981e-06 -0)
(-0 -5.50981e-06 -0)
(-0 -5.50981e-06 -0)
(-0 -5.50981e-06 -0)
(-0 -5.50981e-06 -0)
(-0 -5.50981e-06 -0)
(-0 -5.50981e-06 -0)
(-0 -5.50981e-06 -0)
(-0 -5.50981e-06 -0)
(-0 -5.50981e-06 -0)
(-0 -5.50981e-06 -0)
(-0 -5.50981e-06 -0)
(-0 -5.50981e-06 -0)
(-0 -5.50981e-06 -0)
(-0 -5.50981e-06 -0)
(-0 -5.50981e-06 -0)
(-0 -5.50981e-06 -0)
(-0 -5.50981e-06 -0)
(-0 -5.50981e-06 -0)
(-0 -5.50981e-06 -0)
(-0 -5.50981e-06 -0)
(-0 -5.50981e-06 -0)
(-0 -5.50981e-06 -0)
(-0 -5.50981e-06 -0)
(-0 -5.50981e-06 -0)
(-0 -5.50981e-06 -0)
(-0 -5.50981e-06 -0)
(-0 -5.50981e-06 -0)
(-0 -5.50981e-06 -0)
(-0 -5.50981e-06 -0)
(-0 -5.50981e-06 -0)
(-0 -5.50981e-06 -0)
(-0 -5.50981e-06 -0)
(-0 -5.50981e-06 -0)
(0 -5.50232e-06 0)
(0 -5.50631e-06 0)
(0 -5.52374e-06 0)
(0 -5.48454e-06 0)
(0 -5.50729e-06 0)
(0 -5.53962e-06 0)
(0 -5.51124e-06 0)
(0 -5.5062e-06 0)
(0 -5.51006e-06 0)
(0 -5.51943e-06 0)
(0 -5.51002e-06 0)
(0 -5.56777e-06 0)
(0 -5.49505e-06 0)
(0 -5.50233e-06 0)
(0 9.82224e-06 0)
(0 2.50874e-05 0)
(0 5.06888e-06 0)
(0 3.54219e-05 0)
(0 1.92122e-05 0)
(0 4.80443e-05 0)
(0 -5.53024e-06 0)
(0 -5.5103e-06 0)
(0 1.84589e-05 0)
(0 -5.50625e-06 0)
(0 -5.50599e-06 0)
(0 1.04605e-05 0)
(0 1.67188e-05 0)
(0 1.47519e-05 0)
(0 6.6519e-06 0)
(0 -5.50627e-06 0)
(0 -5.50883e-06 0)
(0 -5.51008e-06 0)
(0 -5.509e-06 0)
(0 -5.51794e-06 0)
(0 -5.5095e-06 0)
(0 7.91955e-06 0)
(0 1.80203e-06 0)
(0 4.47909e-05 0)
(0 3.4067e-05 0)
(0 2.68665e-05 0)
(0 1.09049e-05 0)
(0 4.82861e-06 0)
(0 -5.5043e-06 0)
(0 -5.50159e-06 0)
(0 -5.50502e-06 0)
(0 -5.50677e-06 0)
(0 -5.54206e-06 0)
(0 -5.50794e-06 0)
(0 3.9412e-06 0)
(0 2.71919e-06 0)
(0 4.44102e-05 0)
(0 2.58637e-05 0)
(0 1.12889e-05 0)
(0 1.69753e-05 0)
(0 1.72392e-05 0)
(0 9.81543e-06 0)
(0 4.03042e-06 0)
(0 8.86272e-06 0)
(0 1.17573e-06 0)
(0 0.000366557 0)
(0 0.000373763 0)
(0 0.000351715 0)
(0 0.000359066 0)
(0 0.000337639 0)
(0 0.000345264 0)
(0 0.000324778 0)
(0 0.000332436 0)
(0 0.000312876 0)
(0 0.000320577 0)
(0 0.000301743 0)
(0 0.000309637 0)
(0 0.00029143 0)
(0 0.000299252 0)
(0 0.000281841 0)
(0 0.000273366 0)
(0 0.000264917 0)
(0 0.000273343 0)
(0 0.000257446 0)
(0 0.000265912 0)
(0 0.000251432 0)
(0 0.000255818 0)
(0 0.000351663 0)
(0 0.000259311 0)
(0 0.000245596 0)
(0 0.000253459 0)
(0 0.000239937 0)
(0 0.00024814 0)
(0 0.000235526 0)
(0 0.000226623 0)
(0 0.000223422 0)
(0 0.00021395 0)
(0 0.000211701 0)
(0 0.000220848 0)
(0 0.000210324 0)
(0 0.000202052 0)
(0 0.000261222 0)
(0 0.000219268 0)
(0 0.000210134 0)
(0 0.000218566 0)
(0 0.000210358 0)
(0 0.000218117 0)
(0 0.000210707 0)
(0 0.000217523 0)
(0 0.000211152 0)
(0 0.000203978 0)
(0 0.000205894 0)
(0 0.000198404 0)
(0 0.000201667 0)
(0 0.000193841 0)
(0 0.000198211 0)
(0 0.000189772 0)
(0 0.000195194 0)
(0 0.000184901 0)
(0 0.0001926 0)
(0 0.000183409 0)
(0 0.000190999 0)
(0 0.000180854 0)
(0 0.000190613 0)
(0 0.000182068 0)
(0 0.000191798 0)
(0 0.000183644 0)
(0 0.00019429 0)
(0 0.000201553 0)
(0 0.000205072 0)
(0 0.00021136 0)
(0 0.000215889 0)
(0 0.00020799 0)
(0 0.000221226 0)
(0 0.000226695 0)
(0 0.000230991 0)
(0 0.00023729 0)
(0 0.000240484 0)
(0 0.000186349 0)
(0 0.000247207 0)
(0 0.000249419 0)
(0 0.000255995 0)
(0 0.00025736 0)
(0 0.000263478 0)
(0 0.000263421 0)
(0 0.00024534 0)
(0 0.00017526 0)
(0 0.000269011 0)
(0 0.000267596 0)
(0 0.000262882 0)
(0 0.000266285 0)
(0 0.000272816 0)
(0 0.000262225 0)
(0 0.000265209 0)
(0 0.00026088 0)
(0 0.000263365 0)
(0 0.000258213 0)
(0 0.000259911 0)
(0 0.00046987 0)
(0 0.000468428 0)
(0 0.000461524 0)
(0 0.000459623 0)
(0 0.000453175 0)
(0 0.000450876 0)
(0 0.000254031 0)
(0 0.000254928 0)
(0 0.000260958 0)
(0 0.000255229 0)
(0 0.000260472 0)
(0 0.000444537 0)
(0 0.000441341 0)
(0 0.00034352 0)
(0 0.000434505 0)
(0 0.000254215 0)
(0 0.000258605 0)
(0 0.000275021 0)
(0 0.000278988 0)
(0 0.000248626 0)
(0 0.000251323 0)
(0 0.000255013 0)
(0 0.000246508 0)
(0 0.00024931 0)
(0 0.000430625 0)
(0 0.000423522 0)
(0 0.000435166 0)
(0 0.000239546 0)
(0 0.000241117 0)
(0 0.00042433 0)
(0 0.00042717 0)
(0 0.00022997 0)
(0 0.000242597 0)
(0 0.000416249 0)
(0 0.000417804 0)
(0 0.00023071 0)
(0 0.000218337 0)
(0 0.000224644 0)
(0 0.00024134 0)
(0 0.000406555 0)
(0 0.000406873 0)
(0 0.000230987 0)
(0 0.000240554 0)
(0 0.000396193 0)
(0 0.000394827 0)
(0 0.000395363 0)
(0 0.000230533 0)
(0 0.000239001 0)
(0 0.000385164 0)
(0 0.00038213 0)
(0 0.000424125 0)
(0 0.000413495 0)
(0 0.000229332 0)
(0 0.000237104 0)
(0 0.000247665 0)
(0 0.000242355 0)
(0 0.000241189 0)
(0 0.000236349 0)
(0 0.000234861 0)
(0 0.000230362 0)
(0 0.00022852 0)
(0 0.000224259 0)
(0 0.000222561 0)
(0 0.000218283 0)
(0 0.00021735 0)
(0 0.000212381 0)
(0 0.000213036 0)
(0 0.000211191 0)
(0 0.000206782 0)
(0 0.000209003 0)
(0 0.000201374 0)
(0 0.000204267 0)
(0 0.000373268 0)
(0 0.000368753 0)
(0 0.000378215 0)
(0 0.000363232 0)
(0 0.000372407 0)
(0 0.000356259 0)
(0 0.000364935 0)
(0 0.000348256 0)
(0 0.000356621 0)
(0 0.000339096 0)
(0 0.000346948 0)
(0 0.000328977 0)
(0 0.000336573 0)
(0 0.000318151 0)
(0 0.000310734 0)
(0 0.000299991 0)
(0 0.000306836 0)
(0 0.000288202 0)
(0 0.000294626 0)
(0 0.000275903 0)
(0 0.000282332 0)
(0 0.000264078 0)
(0 0.000270506 0)
(0 0.000252309 0)
(0 0.000258584 0)
(0 0.000240577 0)
(0 0.000246852 0)
(0 0.000228915 0)
(0 0.000235242 0)
(0 0.000217423 0)
(0 0.000223855 0)
(0 0.000205968 0)
(0 0.000199855 0)
(0 0.000188588 0)
(0 0.000194528 0)
(0 0.000177415 0)
(0 0.000183283 0)
(0 0.000166561 0)
(0 0.000161046 0)
(0 0.000150679 0)
(0 0.000145559 0)
(0 0.000155955 0)
(0 0.000140638 0)
(0 0.000145614 0)
(0 0.000130959 0)
(0 0.000135778 0)
(0 0.000121628 0)
(0 0.000126329 0)
(0 0.000112863 0)
(0 0.000104414 0)
(0 0.000100544 0)
(0 0.000246209 0)
(0 0.000116329 0)
(0 9.9618e-05 0)
(0 0.000110657 0)
(0 0.000128422 0)
(0 0.000122707 0)
(0 0.000105311 0)
(0 0.000117614 0)
(0 0.00010068 0)
(0 0.000113421 0)
(0 9.67231e-05 0)
(0 0.000110135 0)
(0 9.39488e-05 0)
(0 0.000107803 0)
(0 9.22844e-05 0)
(0 0.000105789 0)
(0 9.13483e-05 0)
(0 0.000125895 0)
(0 0.000104389 0)
(0 9.08734e-05 0)
(0 0.000103975 0)
(0 9.0251e-05 0)
(0 0.000104302 0)
(0 9.07586e-05 0)
(0 0.000105393 0)
(0 9.23596e-05 0)
(0 0.000120264 0)
(0 0.000107083 0)
(0 9.42952e-05 0)
(0 0.000109541 0)
(0 9.72368e-05 0)
(0 0.000112901 0)
(0 0.000101024 0)
(0 0.000116946 0)
(0 0.000105401 0)
(0 9.01537e-05 0)
(0 9.50578e-05 0)
(0 8.08398e-05 0)
(0 8.56944e-05 0)
(0 7.12446e-05 0)
(0 7.78998e-05 0)
(0 6.63512e-05 0)
(0 7.25254e-05 0)
(0 6.14459e-05 0)
(0 6.73964e-05 0)
(0 5.50104e-05 0)
(0 6.21764e-05 0)
(0 5.18119e-05 0)
(0 5.81518e-05 0)
(0 4.87148e-05 0)
(0 5.49843e-05 0)
(0 4.59251e-05 0)
(0 5.22369e-05 0)
(0 4.26024e-05 0)
(0 4.99582e-05 0)
(0 4.21797e-05 0)
(0 4.91484e-05 0)
(0 4.16231e-05 0)
(0 4.86501e-05 0)
(0 4.12047e-05 0)
(0 4.79602e-05 0)
(0 4.09165e-05 0)
(0 4.74986e-05 0)
(0 4.08466e-05 0)
(0 4.73342e-05 0)
(0 4.10622e-05 0)
(0 4.76526e-05 0)
(0 4.16438e-05 0)
(0 5.57806e-05 0)
(0 4.83042e-05 0)
(0 4.26167e-05 0)
(0 7.47246e-05 0)
(0 4.9362e-05 0)
(0 4.39256e-05 0)
(0 3.75314e-05 0)
(0 3.90608e-05 0)
(0 5.06976e-05 0)
(0 3.29975e-05 0)
(0 3.47361e-05 0)
(0 0.000141616 0)
(0 2.89644e-05 0)
(0 3.08068e-05 0)
(0 0.000109904 0)
(0 0.000129818 0)
(0 5.41265e-05 0)
(0 3.4765e-05 0)
(0 2.52683e-05 0)
(0 2.67923e-05 0)
(0 8.02362e-05 0)
(0 3.32383e-05 0)
(0 3.0233e-05 0)
(0 3.62228e-05 0)
(0 3.31527e-05 0)
(0 2.7521e-05 0)
(0 3.04491e-05 0)
(0 2.49788e-05 0)
(0 2.82353e-05 0)
(0 7.61492e-05 0)
(0 2.29463e-05 0)
(0 2.65803e-05 0)
(0 2.13975e-05 0)
(0 2.52805e-05 0)
(0 1.97531e-05 0)
(0 2.43039e-05 0)
(0 1.96703e-05 0)
(0 2.41501e-05 0)
(0 1.98464e-05 0)
(0 2.48289e-05 0)
(0 1.95002e-05 0)
(0 2.58526e-05 0)
(0 2.99e-05 0)
(0 5.68103e-05 0)
(0 3.63447e-05 0)
(0 2.12981e-05 0)
(0 2.74606e-05 0)
(0 3.22713e-05 0)
(0 3.42921e-05 0)
(0 3.91149e-05 0)
(0 4.18087e-05 0)
(0 0.000291875 0)
(0 3.77347e-05 0)
(0 4.64872e-05 0)
(0 5.00786e-05 0)
(0 0.000241953 0)
(0 1.78442e-05 0)
(0 2.32529e-05 0)
(0 5.532e-05 0)
(0 5.92858e-05 0)
(0 0.000347895 0)
(0 0.000288375 0)
(0 6.54922e-05 0)
(0 6.94594e-05 0)
(0 0.000194919 0)
(0 0.000196987 0)
(0 0.00022724 0)
(0 0.000235278 0)
(0 0.000217609 0)
(0 7.61569e-05 0)
(0 7.29981e-05 0)
(0 8.05882e-05 0)
(0 0.000410744 0)
(0 0.000400254 0)
(0 5.36875e-05 0)
(0 0.00018781 0)
(0 0.00019049 0)
(0 0.000184392 0)
(0 1.56741e-05 0)
(0 8.7566e-05 0)
(0 9.24989e-05 0)
(0 0.000180999 0)
(0 0.000184235 0)
(0 0.00022481 0)
(0 0.000234114 0)
(0 0.000281942 0)
(0 1.75931e-05 0)
(0 1.96628e-05 0)
(0 0.000394781 0)
(0 0.000384589 0)
(0 0.000286268 0)
(0 1.43671e-05 0)
(0 1.64808e-05 0)
(0 1.16654e-05 0)
(0 1.37605e-05 0)
(0 9.57131e-06 0)
(0 1.16261e-05 0)
(0 7.75351e-06 0)
(0 9.85841e-06 0)
(0 1.40678e-05 0)
(0 1.24294e-05 0)
(0 1.70437e-05 0)
(0 1.55195e-05 0)
(0 1.1066e-05 0)
(0 2.06215e-05 0)
(0 1.42967e-05 0)
(0 1.01084e-05 0)
(0 1.33758e-05 0)
(0 9.60788e-06 0)
(0 6.02625e-06 0)
(0 1.2791e-05 0)
(0 9.28767e-06 0)
(0 1.25539e-05 0)
(0 9.14975e-06 0)
(0 1.31063e-05 0)
(0 9.12242e-06 0)
(0 9.94537e-05 0)
(0 0.000105269 0)
(0 0.000174728 0)
(0 0.000178679 0)
(0 0.00018793 0)
(0 0.000183713 0)
(0 0.000222821 0)
(0 0.00023329 0)
(0 0.000289884 0)
(0 0.000294519 0)
(0 6.09114e-06 0)
(0 6.12624e-06 0)
(0 9.143e-06 0)
(0 6.29558e-06 0)
(0 0.000173643 0)
(0 0.000180278 0)
(0 0.00019138 0)
(0 0.000189645 0)
(0 0.000202095 0)
(0 0.000203962 0)
(0 0.000215917 0)
(0 0.000219034 0)
(0 0.000206539 0)
(0 0.000222454 0)
(0 0.00023589 0)
(0 0.000240517 0)
(0 0.000253048 0)
(0 0.000258582 0)
(0 0.000245319 0)
(0 0.000263536 0)
(0 0.000275896 0)
(0 0.000280762 0)
(0 0.000292426 0)
(0 0.000296909 0)
(0 0.000308669 0)
(0 0.000312768 0)
(0 0.000325145 0)
(0 0.000329246 0)
(0 0.000315367 0)
(0 0.000332244 0)
(0 0.000347054 0)
(0 0.000351359 0)
(0 0.000366477 0)
(0 0.000372677 0)
(0 0.000387495 0)
(0 0.00024975 0)
(0 0.000379346 0)
(0 0.000111836 0)
(0 0.000118718 0)
(0 0.000225785 0)
(0 6.50783e-06 0)
(0 0.000376103 0)
(0 0.000366551 0)
(0 0.000374161 0)
(0 0.000356418 0)
(0 0.00036286 0)
(0 0.000345511 0)
(0 0.000351821 0)
(0 0.000334526 0)
(0 0.0003412 0)
(0 0.000324294 0)
(0 0.000354705 0)
(0 0.00016957 0)
(0 1.6191e-05 0)
(0 0.00012472 0)
(0 0.000132522 0)
(0 9.43882e-06 0)
(0 6.61292e-06 0)
(0 0.000138222 0)
(0 0.000146753 0)
(0 0.000152234 0)
(0 3.52204e-06 0)
(0 0.000161413 0)
(0 0.000166796 0)
(0 0.000220913 0)
(0 0.000216611 0)
(0 0.000203823 0)
(0 0.000200357 0)
(0 0.000187151 0)
(0 0.000182202 0)
(0 0.00016916 0)
(0 0.000163647 0)
(0 0.000151224 0)
(0 0.000157146 0)
(0 0.000139475 0)
(0 0.000146055 0)
(0 0.000127277 0)
(0 0.000133905 0)
(0 0.000146103 0)
(0 0.000158129 0)
(0 0.000298716 0)
(0 0.000303292 0)
(0 0.000316982 0)
(0 0.0003304 0)
(0 0.000313846 0)
(0 0.000209624 0)
(0 0.000222903 0)
(0 0.000107442 0)
(0 2.36726e-05 0)
(0 0.000176428 0)
(0 0.00030272 0)
(0 0.000113849 0)
(0 0.000119432 0)
(0 0.000184931 0)
(0 0.0003547 0)
(0 0.000325027 0)
(0 0.000316818 0)
(0 8.50666e-05 0)
(0 0.000126774 0)
(0 9.93089e-06 0)
(0 7.16174e-06 0)
(0 3.98181e-06 0)
(0 4.858e-06 0)
(0 7.7825e-06 0)
(0 5.65846e-05 0)
(0 5.77937e-05 0)
(0 6.42949e-05 0)
(0 6.53811e-05 0)
(0 7.24234e-05 0)
(0 7.35229e-05 0)
(0 8.09929e-05 0)
(0 8.20818e-05 0)
(0 8.99892e-05 0)
(0 9.11114e-05 0)
(0 9.93248e-05 0)
(0 9.85596e-05 0)
(0 0.000100667 0)
(0 9.27825e-05 0)
(0 0.000108153 0)
(0 0.000108003 0)
(0 0.000103106 0)
(0 9.51823e-05 0)
(0 0.000117821 0)
(0 0.000118411 0)
(0 0.000105738 0)
(0 9.80102e-05 0)
(0 0.000229481 0)
(0 0.000226353 0)
(0 1.30475e-05 0)
(0 0.000181907 0)
(0 0.000191682 0)
(0 0.00014114 0)
(0 0.000152236 0)
(0 0.000308101 0)
(0 0.000301365 0)
(0 0.000311969 0)
(0 0.000225559 0)
(0 9.90424e-05 0)
(0 0.000103401 0)
(0 0.00020685 0)
(0 0.000194756 0)
(0 0.000363566 0)
(0 0.000128461 0)
(0 0.000129643 0)
(0 0.000197026 0)
(0 0.000207041 0)
(0 0.000108345 0)
(0 0.000101456 0)
(0 0.000135601 0)
(0 0.000145676 0)
(0 8.39377e-05 0)
(0 8.75024e-05 0)
(0 0.000319257 0)
(0 0.000333566 0)
(0 0.000302602 0)
(0 0.00029471 0)
(0 0.000338993 0)
(0 0.00031733 0)
(0 0.000174983 0)
(0 0.000282933 0)
(0 0.000322333 0)
(0 0.000211724 0)
(0 0.000222144 0)
(0 0.000213809 0)
(0 2.09899e-06 0)
(0 4.78448e-06 0)
(0 3.03802e-06 0)
(0 6.11801e-06 0)
(0 4.22971e-06 0)
(0 8.34878e-06 0)
(0 5.67482e-06 0)
(0 9.44791e-06 0)
(0 7.16225e-06 0)
(0 3.89372e-06 0)
(0 5.42343e-06 0)
(0 8.92058e-06 0)
(0 7.15525e-06 0)
(0 3.96374e-06 0)
(0 5.60864e-06 0)
(0 2.64723e-06 0)
(0 4.21153e-06 0)
(0 7.50353e-06 0)
(0 6.12159e-06 0)
(0 3.01071e-06 0)
(0 4.90996e-06 0)
(0 8.31771e-06 0)
(0 7.02945e-06 0)
(0 3.85527e-06 0)
(0 5.91817e-06 0)
(0 3.00408e-06 0)
(0 5.01592e-06 0)
(0 2.36285e-06 0)
(0 4.41076e-06 0)
(0 1.90624e-06 0)
(0 4.06686e-06 0)
(0 1.62705e-06 0)
(0 3.91448e-06 0)
(0 1.56476e-06 0)
(0 3.91358e-06 0)
(0 1.40066e-06 0)
(0 4.14427e-06 0)
(0 2.13001e-06 0)
(0 6.69395e-06 0)
(0 4.74337e-06 0)
(0 2.87712e-06 0)
(0 5.5868e-06 0)
(0 3.76705e-06 0)
(0 1.08369e-05 0)
(0 6.95355e-06 0)
(0 9.69763e-06 0)
(0 1.38393e-06 0)
(0 2.29332e-06 0)
(0 2.12965e-07 0)
(0 1.1403e-06 0)
(0 -7.02403e-07 0)
(0 1.73415e-07 0)
(0 -1.44347e-06 0)
(0 -5.85138e-07 0)
(0 -2.12756e-06 0)
(0 -1.13486e-06 0)
(0 -2.30759e-06 0)
(0 -1.50572e-06 0)
(0 -2.57685e-06 0)
(0 -1.78706e-06 0)
(0 -2.80277e-06 0)
(0 -2.01868e-06 0)
(0 -2.9858e-06 0)
(0 -2.21009e-06 0)
(0 -3.13198e-06 0)
(0 -2.39512e-06 0)
(0 -3.25211e-06 0)
(0 -2.51405e-06 0)
(0 -3.31988e-06 0)
(0 -2.59597e-06 0)
(0 -3.33559e-06 0)
(0 -2.63331e-06 0)
(0 -3.34945e-06 0)
(0 -2.65031e-06 0)
(0 -3.48457e-06 0)
(0 -2.69184e-06 0)
(0 -3.37659e-06 0)
(0 -1.79395e-06 0)
(0 -2.643e-06 0)
(0 -3.29318e-06 0)
(0 -2.51264e-06 0)
(0 -3.20829e-06 0)
(0 -8.95561e-07 0)
(0 -2.38512e-06 0)
(0 -3.09267e-06 0)
(0 5.24107e-07 0)
(0 -2.23007e-06 0)
(0 -2.9266e-06 0)
(0 -1.67099e-06 0)
(0 -2.04548e-06 0)
(0 -2.75857e-06 0)
(0 3.43966e-06 0)
(0 -1.16845e-06 0)
(0 -1.80256e-06 0)
(0 -2.54995e-06 0)
(0 -3.64616e-06 0)
(0 0.000226011 0)
(0 0.000236957 0)
(0 0.000232032 0)
(0 0.000227649 0)
(0 6.3702e-07 0)
(0 -1.48395e-06 0)
(0 -2.24874e-06 0)
(0 0.000129216 0)
(0 0.000137552 0)
(0 7.04092e-05 0)
(0 0.000272785 0)
(0 0.000260345 0)
(0 -4.01105e-06 0)
(0 9.36675e-05 0)
(0 0.000119882 0)
(0 -3.19416e-06 0)
(0 -2.91455e-06 0)
(0 7.246e-07 0)
(0 -3.93801e-06 0)
(0 0.000191213 0)
(0 0.000179131 0)
(0 0.000244333 0)
(0 0.000417953 0)
(0 0.000139944 0)
(0 0.000141635 0)
(0 0.000131225 0)
(0 0.000143855 0)
(0 0.000133359 0)
(0 0.000146589 0)
(0 0.000136136 0)
(0 0.000150014 0)
(0 0.000139581 0)
(0 0.000154246 0)
(0 0.000143633 0)
(0 0.000159109 0)
(0 0.000169678 0)
(0 0.000175045 0)
(0 0.000165098 0)
(0 0.00018374 0)
(0 0.000172052 0)
(0 0.000189699 0)
(0 0.00017965 0)
(0 0.00019817 0)
(0 0.000188287 0)
(0 0.000207193 0)
(0 0.000197886 0)
(0 0.000218007 0)
(0 0.000208726 0)
(0 0.000230675 0)
(0 0.000221231 0)
(0 0.000245298 0)
(0 0.000236753 0)
(0 0.000262023 0)
(0 0.000253058 0)
(0 0.000185646 0)
(0 0.000238111 0)
(0 0.000111932 0)
(0 0.000105755 0)
(0 0.000200724 0)
(0 0.000347209 0)
(0 7.36706e-05 0)
(0 8.9364e-05 0)
(0 0.000230582 0)
(0 0.000239935 0)
(0 0.000251141 0)
(0 0.000171307 0)
(0 0.000138585 0)
(0 0.000297255 0)
(0 5.96616e-05 0)
(0 0.000320021 0)
(0 0.000116787 0)
(0 -2.36324e-07 0)
(0 -3.75079e-06 0)
(0 0.000209043 0)
(0 2.04528e-05 0)
(0 1.88903e-05 0)
(0 0.000121057 0)
(0 0.000127311 0)
(0 -1.86717e-06 0)
(0 -2.55685e-06 0)
(0 8.92366e-05 0)
(0 0.000157334 0)
(0 0.000248365 0)
(0 0.00023629 0)
(0 0.000334625 0)
(0 0.000323804 0)
(0 -3.7094e-06 0)
(0 -2.1523e-06 0)
(0 0.00023266 0)
(0 0.000227674 0)
(0 0.000224151 0)
(0 0.000238589 0)
(0 9.53082e-05 0)
(0 0.000100431 0)
(0 0.000110746 0)
(0 0.000106046 0)
(0 9.59481e-05 0)
(0 0.000102187 0)
(0 9.23619e-05 0)
(0 9.92723e-05 0)
(0 -3.24771e-06 0)
(0 0.000143013 0)
(0 0.000150475 0)
(0 7.60305e-05 0)
(0 9.02258e-05 0)
(0 0.000161555 0)
(0 0.00017495 0)
(0 0.000163576 0)
(0 2.22542e-05 0)
(0 2.64169e-05 0)
(0 8.96946e-05 0)
(0 9.73174e-05 0)
(0 0.000304222 0)
(0 0.000187705 0)
(0 0.000110894 0)
(0 0.000116307 0)
(0 0.000257845 0)
(0 0.000327031 0)
(0 0.00013263 0)
(0 0.00012185 0)
(0 0.000105116 0)
(0 0.000111178 0)
(0 -1.35284e-06 0)
(0 -2.04858e-06 0)
(0 0.000298223 0)
(0 0.000290778 0)
(0 0.000239076 0)
(0 0.000246645 0)
(0 0.000223781 0)
(0 0.000221293 0)
(0 5.57486e-05 0)
(0 0.000253413 0)
(0 0.000264535 0)
(0 0.00022295 0)
(0 0.000212506 0)
(0 0.000232831 0)
(0 0.000148962 0)
(0 0.000245793 0)
(0 4.75883e-05 0)
(0 1.62206e-05 0)
(0 1.46737e-05 0)
(0 0.000216341 0)
(0 0.000167422 0)
(0 0.000152702 0)
(0 0.000116418 0)
(0 0.000125735 0)
(0 0.000451358 0)
(0 0.000140413 0)
(0 0.000218145 0)
(0 0.000230643 0)
(0 0.00016127 0)
(0 0.000106958 0)
(0 0.000105687 0)
(0 0.000263235 0)
(0 0.000276508 0)
(0 0.00033427 0)
(0 0.000324151 0)
(0 6.6399e-05 0)
(0 0.00046427 0)
(0 0.000313665 0)
(0 0.000314659 0)
(0 9.31286e-05 0)
(0 0.000100203 0)
(0 7.76255e-05 0)
(0 0.000247008 0)
(0 0.00025543 0)
(0 0.000147023 0)
(0 0.000136772 0)
(0 1.75183e-05 0)
(0 1.33973e-05 0)
(0 0.000262109 0)
(0 0.000178117 0)
(0 0.000345208 0)
(0 -6.85966e-07 0)
(0 1.98136e-07 0)
(0 -1.39209e-06 0)
(0 -2.64216e-06 0)
(0 0.000304117 0)
(0 0.000118718 0)
(0 0.000108326 0)
(0 8.88937e-05 0)
(0 9.76335e-05 0)
(0 8.7893e-05 0)
(0 0.000343103 0)
(0 -1.95858e-06 0)
(0 -3.08073e-06 0)
(0 -6.05951e-07 0)
(0 0.000248765 0)
(0 2.81953e-05 0)
(0 3.29261e-05 0)
(0 0.00026773 0)
(0 0.000260024 0)
(0 3.1308e-05 0)
(0 3.83315e-05 0)
(0 3.69677e-05 0)
(0 4.45102e-05 0)
(0 4.60812e-05 0)
(0 5.28646e-05 0)
(0 5.45042e-05 0)
(0 6.20557e-05 0)
(0 4.34156e-05 0)
(0 6.35212e-05 0)
(0 7.19416e-05 0)
(0 7.33526e-05 0)
(0 8.24617e-05 0)
(0 8.40637e-05 0)
(0 9.32677e-05 0)
(0 9.55616e-05 0)
(0 0.000106175 0)
(0 0.000333017 0)
(0 7.79394e-05 0)
(0 8.755e-05 0)
(0 -2.25393e-06 0)
(0 -3.40184e-06 0)
(0 -3.93404e-06 0)
(0 -4.16695e-06 0)
(0 -3.65517e-06 0)
(0 -4.32843e-06 0)
(0 -3.77077e-06 0)
(0 -4.39828e-06 0)
(0 -3.78997e-06 0)
(0 -4.38644e-06 0)
(0 -3.72874e-06 0)
(0 -4.28911e-06 0)
(0 -3.57709e-06 0)
(0 -4.10572e-06 0)
(0 -3.32512e-06 0)
(0 -3.85423e-06 0)
(0 -4.53706e-06 0)
(0 7.08356e-05 0)
(0 0.000197719 0)
(0 0.00018915 0)
(0 4.37431e-05 0)
(0 0.000213209 0)
(0 0.000266192 0)
(0 0.000107801 0)
(0 0.000119187 0)
(0 1.23325e-05 0)
(0 0.000232679 0)
(0 0.000115435 0)
(0 0.000114743 0)
(0 0.000159654 0)
(0 0.000172548 0)
(0 0.000220348 0)
(0 0.000218861 0)
(0 8.03741e-05 0)
(0 1.6449e-05 0)
(0 1.23859e-05 0)
(0 0.000162903 0)
(0 3.69668e-05 0)
(0 4.09142e-05 0)
(0 0.000200898 0)
(0 0.000206433 0)
(0 4.33539e-05 0)
(0 0.000120653 0)
(0 0.000132532 0)
(0 0.000134195 0)
(0 0.000146561 0)
(0 7.87277e-05 0)
(0 0.000202665 0)
(0 0.000276345 0)
(0 0.000289551 0)
(0 -2.99422e-06 0)
(0 -3.54276e-06 0)
(0 -4.26742e-06 0)
(0 -3.9665e-06 0)
(0 -4.57138e-06 0)
(0 -4.28396e-06 0)
(0 -2.30337e-06 0)
(0 -4.81574e-06 0)
(0 -4.53416e-06 0)
(0 0.000412313 0)
(0 0.000129174 0)
(0 0.000119803 0)
(0 0.000255342 0)
(0 0.000264404 0)
(0 0.000156335 0)
(0 0.000255794 0)
(0 0.000128911 0)
(0 0.000244487 0)
(0 0.00035331 0)
(0 0.000349427 0)
(0 1.538e-05 0)
(0 1.16403e-05 0)
(0 -3.98211e-06 0)
(0 -4.26305e-06 0)
(0 -4.72423e-06 0)
(0 -4.49365e-06 0)
(0 -3.94772e-06 0)
(0 -4.1824e-06 0)
(0 -4.73465e-06 0)
(0 -4.40769e-06 0)
(0 0.000381688 0)
(0 0.00017427 0)
(0 0.000182938 0)
(0 0.00021493 0)
(0 0.000194528 0)
(0 0.000162005 0)
(0 0.000174858 0)
(0 -3.75604e-06 0)
(0 -4.00399e-06 0)
(0 -4.5883e-06 0)
(0 -4.23106e-06 0)
(0 0.000255478 0)
(0 0.000267929 0)
(0 1.43743e-05 0)
(0 1.10246e-05 0)
(0 1.37084e-05 0)
(0 1.04436e-05 0)
(0 1.32217e-05 0)
(0 9.94165e-06 0)
(0 1.29012e-05 0)
(0 9.6906e-06 0)
(0 1.27605e-05 0)
(0 8.75776e-06 0)
(0 0.000148245 0)
(0 0.000161328 0)
(0 0.000236687 0)
(0 0.000229227 0)
(0 3.09106e-05 0)
(0 3.55004e-05 0)
(0 0.000432876 0)
(0 -2.5059e-06 0)
(0 -3.49915e-06 0)
(0 -3.76929e-06 0)
(0 -4.43159e-06 0)
(0 -4.00868e-06 0)
(0 -4.58765e-06 0)
(0 -4.18822e-06 0)
(0 0.000223501 0)
(0 7.12631e-05 0)
(0 -4.82945e-06 0)
(0 2.5985e-05 0)
(0 0.000267839 0)
(0 0.000222402 0)
(0 0.000218409 0)
(0 0.000412398 0)
(0 0.000395557 0)
(0 6.77884e-05 0)
(0 7.85558e-05 0)
(0 9.80864e-05 0)
(0 9.05933e-05 0)
(0 -2.99207e-06 0)
(0 0.000174859 0)
(0 0.000320027 0)
(0 0.000162633 0)
(0 0.000394442 0)
(0 0.000378387 0)
(0 0.00037951 0)
(0 0.00036309 0)
(0 0.000364679 0)
(0 0.000348699 0)
(0 0.000350256 0)
(0 0.000335112 0)
(0 0.000332779 0)
(0 0.000336243 0)
(0 0.000322714 0)
(0 6.98074e-05 0)
(0 7.79513e-05 0)
(0 7.15353e-05 0)
(0 -4.68162e-06 0)
(0 0.000436923 0)
(0 6.99159e-05 0)
(0 8.2664e-05 0)
(0 0.000216188 0)
(0 3.07556e-05 0)
(0 9.53592e-06 0)
(0 1.27268e-05 0)
(0 3.34987e-05 0)
(0 4.0124e-05 0)
(0 0.000141311 0)
(0 0.000153855 0)
(0 0.000102627 0)
(0 9.5561e-05 0)
(0 0.000124521 0)
(0 0.00012445 0)
(0 0.000114935 0)
(0 0.000125371 0)
(0 0.000125511 0)
(0 0.000323628 0)
(0 0.000176345 0)
(0 0.000176953 0)
(0 9.48634e-06 0)
(0 0.00017273 0)
(0 0.000166064 0)
(0 0.000450993 0)
(0 7.48151e-05 0)
(0 0.000358561 0)
(0 0.00035326 0)
(0 7.48897e-05 0)
(0 0.000262983 0)
(0 0.000117271 0)
(0 -4.84847e-06 0)
(0 -3.8552e-06 0)
(0 0.00017068 0)
(0 0.000184274 0)
(0 0.000158499 0)
(0 7.46317e-05 0)
(0 8.71335e-05 0)
(0 5.87252e-05 0)
(0 9.8104e-06 0)
(0 0.000246802 0)
(0 0.000183266 0)
(0 0.000161473 0)
(0 0.000310255 0)
(0 0.000340299 0)
(0 0.00026833 0)
(0 -1.38716e-07 0)
(0 0.000182901 0)
(0 0.00010743 0)
(0 9.83793e-05 0)
(0 7.85271e-05 0)
(0 8.87584e-05 0)
(0 1.33394e-06 0)
(0 7.36724e-05 0)
(0 4.28331e-05 0)
(0 7.94534e-05 0)
(0 0.000120646 0)
(0 0.000205847 0)
(0 0.000211648 0)
(0 0.000197903 0)
(0 0.000220102 0)
(0 0.000188941 0)
(0 -4.87211e-06 0)
(0 0.000195573 0)
(0 0.000256254 0)
(0 0.000257006 0)
(0 0.000367028 0)
(0 0.000360131 0)
(0 0.000364709 0)
(0 0.000352161 0)
(0 8.94059e-05 0)
(0 0.000387734 0)
(0 7.24497e-06 0)
(0 1.63121e-05 0)
(0 1.64465e-05 0)
(0 1.28411e-05 0)
(0 1.67252e-05 0)
(0 0.000120094 0)
(0 0.000131839 0)
(0 0.000165089 0)
(0 0.000141902 0)
(0 0.000171619 0)
(0 0.000148585 0)
(0 0.000119888 0)
(0 0.000127405 0)
(0 0.000101722 0)
(0 0.000152132 0)
(0 0.000191169 0)
(0 0.000191535 0)
(0 6.60643e-06 0)
(0 8.79954e-06 0)
(0 1.00347e-05 0)
(0 1.27026e-05 0)
(0 1.41333e-05 0)
(0 1.72713e-05 0)
(0 1.86981e-05 0)
(0 1.59767e-05 0)
(0 2.1077e-05 0)
(0 1.99533e-05 0)
(0 2.54921e-05 0)
(0 2.48109e-05 0)
(0 3.17084e-05 0)
(0 3.04391e-05 0)
(0 8.09914e-05 0)
(0 2.42604e-05 0)
(0 3.02006e-05 0)
(0 1.31392e-05 0)
(0 1.72038e-05 0)
(0 0.000361516 0)
(0 -4.92381e-06 0)
(0 0.000222971 0)
(0 0.000258016 0)
(0 0.000283976 0)
(0 0.000243172 0)
(0 2.57828e-05 0)
(0 0.000238408 0)
(0 0.000314838 0)
(0 2.42164e-05 0)
(0 3.03874e-05 0)
(0 0.000330634 0)
(0 9.05975e-05 0)
(0 7.79979e-05 0)
(0 0.000105263 0)
(0 0.000137256 0)
(0 0.000147638 0)
(0 0.000155129 0)
(0 1.42994e-05 0)
(0 1.02971e-05 0)
(0 2.21953e-05 0)
(0 3.17727e-07 0)
(0 -7.38767e-07 0)
(0 -1.43755e-06 0)
(0 -2.28953e-06 0)
(0 -2.78845e-06 0)
(0 -3.4013e-06 0)
(0 -3.78112e-06 0)
(0 -4.22137e-06 0)
(0 -3.84443e-06 0)
(0 -4.47688e-06 0)
(0 -4.08415e-06 0)
(0 -4.6772e-06 0)
(0 -4.32879e-06 0)
(0 -4.83329e-06 0)
(0 -4.516e-06 0)
(0 -4.57861e-06 0)
(0 -4.36641e-06 0)
(0 -1.84414e-06 0)
(0 -4.9739e-06 0)
(0 -4.9529e-06 0)
(0 -4.66094e-06 0)
(0 1.09535e-05 0)
(0 0.000230579 0)
(0 0.000249005 0)
(0 0.000190334 0)
(0 0.000182703 0)
(0 0.00019567 0)
(0 -4.27555e-06 0)
(0 -4.75139e-06 0)
(0 -1.943e-06 0)
(0 0.000198608 0)
(0 9.17425e-05 0)
(0 0.000200062 0)
(0 0.000139223 0)
(0 0.000119867 0)
(0 0.000129782 0)
(0 0.000161227 0)
(0 0.000244721 0)
(0 7.10455e-05 0)
(0 0.000163388 0)
(0 0.000180798 0)
(0 0.000275648 0)
(0 0.000134036 0)
(0 0.000148006 0)
(0 0.000152357 0)
(0 0.000167434 0)
(0 0.000163605 0)
(0 0.000184194 0)
(0 0.000180977 0)
(0 0.000172135 0)
(0 0.000202334 0)