/*--------------------------------*- C++ -*----------------------------------*\
| =========                 |                                                 |
| \\      /  F ield         | OpenFOAM: The Open Source CFD Toolbox           |
|  \\    /   O peration     | Version:  v2012                                 |
|   \\  /    A nd           | Website:  www.openfoam.com                      |
|    \\/     M anipulation  |                                                 |
\*---------------------------------------------------------------------------*/
FoamFile
{
    version     2.0;
    format      ascii;
    class       volScalarField;
    location    "600";
    object      ddt0(k);
}
// * * * * * * * * * * * * * * * * * * * * * * * * * * * * * * * * * * * * * //

dimensions      [0 2 -3 0 0 0 0];


internalField   nonuniform List<scalar> 
9793
(
-1.99786e-08
0.0011745
-7.40251e-08
3.0194e-05
-9.75982e-08
-1.58055e-06
6.73715e-07
-0.00582931
1.06599e-07
0.000317841
-7.1396e-08
-7.34165e-08
1.23475e-07
0.00112626
-1.52019e-07
4.68474e-07
4.80984e-07
2.00902e-07
0.000260574
2.15497e-08
8.66163e-08
-1.70192e-10
-0.000927955
-0.00541643
0.00118336
4.21536e-08
1.3991e-08
7.38885e-08
1.41287e-08
7.76117e-07
-0.000600282
-0.000330524
-1.89147e-07
-1.10711e-08
4.0524e-08
4.80544e-07
5.10241e-07
-4.75404e-08
0.00101006
2.44094e-07
5.66136e-07
0.00958608
-0.00562919
-3.07849e-08
4.68832e-08
6.44469e-08
-0.00389659
-6.37712e-08
2.55844e-07
1.49995e-07
5.03492e-07
9.93177e-08
4.43475e-07
-6.64762e-08
7.6719e-08
3.99899e-05
1.67869e-07
1.63877e-06
2.43165e-07
-3.13139e-10
-2.04536e-08
5.09594e-07
-3.07742e-08
8.3389e-07
2.91845e-07
1.10494e-07
-0.00125561
1.96758e-07
5.34055e-07
-0.00325963
-5.39214e-08
8.11217e-08
-0.00647231
0.0199833
-0.00630392
-6.0156e-08
-1.93646e-07
-0.00106468
-4.12673e-08
-5.04233e-08
2.36318e-07
2.92611e-05
5.11627e-07
-2.9506e-09
5.29417e-07
-9.99333e-08
-1.43613e-07
1.29415e-06
0.000972501
2.29874e-07
-0.000553048
-0.0135422
-0.0103149
2.86914e-07
-0.00470616
4.57645e-08
-0.00828712
4.20111e-07
1.588e-07
-7.52282e-08
0.000526804
4.10268e-07
0.00242992
4.08805e-08
-0.00324172
-0.00584049
0.0129626
3.29e-08
-1.73734e-08
-6.58701e-08
-3.57132e-08
-0.000843324
-1.21988e-05
-0.000310364
-2.51768e-08
-2.05027e-07
4.03902e-07
1.66957e-07
0.000282221
4.66153e-08
-0.00173018
1.3656e-06
-0.014058
4.56347e-07
5.14174e-07
7.25798e-08
5.51199e-07
-0.000859301
1.80995e-05
1.78757e-05
4.34006e-07
-5.68528e-08
-3.19843e-09
1.30995e-07
4.40927e-07
4.46409e-07
0.00419031
4.0389e-07
-1.90821e-08
5.85246e-07
-0.000483248
4.69205e-07
1.00042e-07
8.63879e-07
-0.00461965
-6.05945e-05
3.92636e-08
-0.00761838
-1.50533e-08
5.99524e-08
-6.45917e-08
-0.00188726
1.66911e-07
1.63496e-08
-2.82059e-08
-0.000828385
5.95515e-07
4.2097e-08
0.000527278
-4.5175e-08
9.90101e-07
3.59006e-07
1.01331e-07
-7.06845e-06
2.47779e-07
0.00497361
0.000811615
2.55718e-07
1.64844e-07
4.02795e-08
3.03881e-08
-0.000290818
-0.00233124
0.000579572
1.21989e-07
-6.83288e-07
2.05972e-07
1.2161e-07
-4.33861e-09
2.19352e-07
-0.00494024
-0.00354766
1.86131e-06
7.93734e-08
1.03032e-07
9.74143e-08
-0.0140418
-0.0056899
0.00202464
0.00379524
6.34168e-08
-0.00282543
-1.02247e-06
-1.45251e-08
1.6532e-07
-7.60953e-09
-2.15815e-06
2.19563e-07
1.9578e-07
3.24388e-08
-1.60313e-08
8.33507e-08
5.40837e-07
4.28144e-07
0.00118799
8.356e-08
3.66672e-07
2.47091e-07
-3.58789e-08
1.45058e-05
4.70172e-07
-0.000845469
1.07175e-07
-0.00217714
-5.12495e-09
1.18378e-06
-1.12543e-07
1.2839e-06
-1.61793e-07
1.47315e-07
4.2122e-07
8.46208e-08
6.2817e-06
0.000600586
2.99034e-07
3.83118e-08
5.71986e-07
0.00150338
5.4633e-07
3.34433e-08
0.000848433
7.31726e-06
1.17923e-06
8.59238e-07
-1.33151e-06
2.27651e-07
-0.00076923
-0.000468651
2.94248e-07
-3.3352e-08
0.0161305
-8.8933e-09
-6.71379e-08
3.09621e-06
4.80703e-06
9.35592e-08
2.19733e-07
2.67915e-07
1.04114e-07
3.16539e-07
-3.20346e-08
2.28655e-07
0.000766392
1.05087e-07
0.000680266
-1.11965e-07
1.85322e-07
5.48151e-08
0.000227249
2.3685e-08
0.0311723
-0.00162087
-7.66645e-08
-5.62439e-08
0.00844309
3.21764e-07
-1.22225e-07
3.23834e-07
-0.00114214
-1.37245e-06
6.71814e-08
1.55971e-05
1.17801e-06
0.000952961
-0.00147344
2.09558e-07
0.000272493
1.96621e-07
0.00212209
3.11537e-05
0.000872958
-0.00192291
5.57518e-06
4.49453e-07
4.78232e-07
4.3659e-07
8.35199e-08
2.90891e-07
8.27648e-06
4.53803e-08
-2.55953e-08
2.86226e-08
2.22211e-07
1.02174e-07
8.45981e-08
-0.00116499
1.34933e-07
-1.76221e-07
6.59523e-08
1.44103e-07
0.000658258
-5.2796e-05
1.86552e-09
-4.36413e-08
8.40861e-07
-7.06658e-08
0.00188777
-0.00134065
4.18001e-08
-0.00277885
8.35572e-07
7.40226e-09
0.00107532
0.00415371
-2.12193e-07
2.21737e-07
-0.000315397
-6.45167e-08
4.36616e-08
-1.76568e-07
-4.50615e-08
0.0033722
-1.8538e-07
-3.09939e-09
4.79785e-08
-4.54897e-08
1.1437e-06
-1.09576e-05
-4.2735e-08
-3.0647e-08
1.64642e-07
-0.000238175
-1.4992e-05
-0.00179157
2.26919e-07
2.02362e-07
4.73653e-08
2.61496e-05
8.53414e-07
2.53137e-07
3.17207e-07
1.6614e-07
5.22878e-07
2.03774e-08
-0.00360239
-1.71542e-07
3.95589e-08
-0.000477169
-0.00104175
-0.00126585
8.0646e-08
0.000535585
7.42222e-08
2.26722e-06
-0.00450371
0.000882192
-3.41457e-08
3.94389e-07
0.0054019
-0.000589858
-0.000661879
-2.12325e-08
1.11632e-07
6.14357e-08
2.7046e-07
-9.86145e-08
5.49666e-09
1.76473e-07
-2.81964e-11
-0.0038792
3.53677e-08
4.79264e-07
3.298e-07
0.0268636
2.39439e-07
9.6815e-09
0.000584312
-1.98715e-06
0.00160278
7.01597e-07
1.48293e-07
-2.07946e-08
-3.4671e-08
4.86281e-05
2.84265e-07
-0.00103712
5.37045e-07
1.03178e-06
-0.00161492
0.00341081
-2.80143e-07
-1.28667e-08
0.0107426
8.58175e-05
1.43828e-07
-0.00400293
-3.30999e-07
2.00314e-07
1.1879e-05
2.5667e-07
1.63444e-06
2.31142e-07
0.00144759
-7.87418e-08
2.53986e-07
-0.00108225
2.06049e-07
1.17958e-06
-1.78128e-09
1.0545e-07
9.70461e-08
-0.0125575
3.47288e-07
2.81318e-07
-1.02462e-07
5.81346e-08
-1.48742e-08
1.19118e-06
-0.00372896
9.60955e-08
-7.06333e-08
-2.39267e-05
8.07296e-08
0.000797716
1.03924e-05
1.0357e-07
-1.74004e-07
2.69413e-07
-3.25153e-07
2.21406e-07
0.000607039
4.69644e-07
0.0114789
2.12665e-08
3.13091e-07
4.93627e-07
-4.72838e-08
0.000173675
-4.01964e-08
-4.85258e-08
2.06715e-07
2.15781e-05
1.86373e-08
-2.72806e-08
-1.97424e-08
2.95717e-07
9.93743e-08
-4.01819e-08
1.24195e-07
-1.42089e-07
-1.46727e-08
4.36887e-07
3.02107e-06
4.60399e-07
-1.30695e-06
4.84056e-08
1.73894e-06
-0.001545
8.05584e-08
-0.000187025
5.31535e-07
1.84544e-07
9.83048e-08
1.46318e-07
-0.00352063
1.33066e-06
1.07795e-07
-2.27916e-07
1.86228e-07
-1.03486e-07
2.46996e-07
-0.0024324
3.02077e-07
2.49255e-08
1.57103e-08
-0.00318456
0.000879264
2.58818e-08
1.92167e-07
0.000486063
0.0055928
8.1208e-05
1.99067e-08
-6.32824e-08
0.00123705
1.68294e-07
6.37093e-07
0.0159795
1.90495e-07
-1.85551e-07
3.00911e-07
0.000246896
9.40489e-08
0.000585645
9.93301e-05
4.22401e-07
0.00624405
1.2864e-07
-1.84982e-05
-3.70857e-08
6.16322e-08
-1.56295e-07
1.58831e-07
-0.00387498
6.33225e-08
2.23046e-07
-3.5341e-08
2.30905e-07
-9.93222e-08
1.97085e-07
-3.69374e-08
8.10978e-07
-7.7692e-08
-2.4666e-08
0.000605646
-6.54198e-08
2.77101e-08
0.00045638
4.07586e-07
-1.91697e-08
-6.43849e-08
2.00624e-07
-0.002206
2.27252e-07
2.64608e-07
-0.000983514
0.0136268
8.79296e-08
3.04211e-07
-9.05773e-08
1.62086e-07
2.42754e-08
0.0011029
-1.38522e-08
0.00782025
4.99239e-07
3.26611e-06
-8.39822e-08
-0.000608335
5.30765e-07
-4.21483e-07
1.50642e-07
2.82409e-06
0.000702381
-6.5347e-08
-0.0039912
-1.57183e-07
5.55023e-08
1.17448e-07
-0.00891116
0.00109115
7.81592e-08
2.51841e-07
2.59311e-07
0.000791461
5.5652e-07
2.41654e-07
0.000520318
-4.11865e-08
4.22671e-07
9.55317e-08
2.8969e-08
1.94328e-07
1.67598e-07
2.76059e-06
3.47637e-07
0.000140776
1.02925e-07
-1.7336e-08
7.95844e-07
-2.39992e-06
0.0254445
-2.0525e-07
-0.00075704
-4.84936e-09
1.39395e-06
-7.08466e-08
2.75945e-07
9.81816e-08
1.72735e-07
-8.28912e-08
3.59578e-06
1.13637e-06
-0.00627661
2.20298e-07
1.70497e-08
4.71563e-08
-0.000366706
1.91921e-07
0.00118434
-0.00143651
4.96148e-06
0.000441784
0.0340305
1.07672e-06
1.74024e-07
-4.13737e-06
8.0517e-07
2.79425e-07
-4.52751e-05
-1.68983e-08
1.83659e-05
1.66468e-07
-4.72498e-05
2.02456e-08
-0.000831959
-0.0040543
7.74429e-07
-2.46592e-05
-1.61511e-08
1.96428e-07
5.69934e-08
1.72441e-07
6.06516e-08
3.28216e-07
3.895e-07
0.000961948
1.17538e-07
-0.00632479
1.61372e-07
-7.08528e-09
0.000213367
-7.79644e-07
5.76282e-08
5.93632e-07
-4.97496e-08
2.23058e-05
-0.00106404
1.682e-07
-1.46064e-08
2.18747e-07
-0.00331373
2.17267e-07
7.53934e-08
-0.0138575
5.20166e-07
-0.0118563
3.0898e-06
0.0352637
2.96973e-08
1.92686e-07
6.06881e-08
-6.78976e-08
6.31833e-05
1.04849e-08
0.000126902
4.89687e-07
1.45633e-07
2.70693e-08
1.33799e-07
3.72782e-07
1.53632e-07
1.84701e-08
4.41883e-08
6.55008e-07
-0.00388619
0.00105817
6.24419e-08
4.44594e-07
3.26465e-07
-0.00147748
6.14266e-07
-2.52971e-07
1.86064e-08
-7.09784e-05
7.00418e-08
-6.13459e-08
-1.40409e-07
1.31554e-07
1.98785e-07
5.51756e-07
0.000417512
8.58289e-08
6.36673e-05
0.000863902
2.63492e-07
0.00281767
0.000793408
2.10367e-08
5.20533e-07
5.21356e-07
5.67362e-08
1.16678e-07
1.33424e-07
0.00085197
-0.00801106
1.22611e-08
5.01111e-08
-9.26116e-08
4.46626e-07
-3.35122e-08
-2.70274e-08
-5.62621e-06
5.50808e-07
-2.90048e-07
0.0137277
5.31623e-07
5.932e-09
1.3722e-07
-5.21572e-05
4.25584e-07
4.47963e-07
-5.09211e-07
-4.40738e-07
2.5576e-07
1.43447e-07
-2.53212e-08
5.09342e-07
3.26284e-08
7.84283e-07
0.00213776
-6.15229e-08
2.81917e-06
1.1882e-08
1.73968e-07
0.0356846
-0.00058597
0.000568958
-7.78987e-08
1.8339e-07
0.03331
-4.48503e-08
0.0103784
1.23414e-07
-4.24972e-08
-0.000467288
0.0069166
4.22305e-07
1.81593e-06
-2.02446e-08
-1.44536e-08
3.30188e-08
4.28257e-08
-0.00286123
2.98106e-07
-2.56552e-11
-0.000441009
6.53602e-09
1.74832e-05
-1.50606e-08
1.69791e-07
-0.000163194
3.36142e-07
9.58165e-09
3.77156e-08
3.89061e-08
0.000245359
2.08404e-07
2.73043e-08
9.76831e-08
3.24248e-08
3.26351e-07
1.28157e-08
-0.00197653
2.29597e-08
1.4367e-09
1.64344e-07
3.13373e-08
5.40737e-07
4.66795e-07
2.23252e-08
-2.64539e-08
-4.6717e-08
-3.07046e-08
0.000929623
0.00282354
3.08969e-07
-0.00752935
-1.56943e-08
3.47525e-08
-0.00410535
-8.61124e-06
1.3377e-08
1.71505e-07
3.95611e-07
6.0524e-07
4.47075e-07
-8.33043e-08
-5.63888e-05
-1.06024e-08
4.40468e-07
-1.6463e-07
-7.542e-06
-5.35025e-08
6.29979e-07
-1.20164e-07
2.62945e-07
2.23384e-07
6.46631e-08
-2.89217e-08
2.5101e-07
2.49405e-07
1.24233e-07
3.52564e-08
7.50328e-08
1.79431e-07
2.159e-07
4.08376e-07
-2.28797e-07
6.12696e-07
0.0017408
4.77763e-07
5.82654e-07
-1.73537e-08
1.66056e-07
-0.00037829
0.0125214
2.16422e-07
0.0025986
-0.000530577
1.53573e-07
7.56313e-08
-5.69979e-08
4.26183e-07
6.59236e-07
-8.34603e-06
1.62851e-07
1.36518e-08
1.88752e-07
-4.40251e-08
6.08192e-07
3.76806e-07
2.00305e-07
9.92886e-06
4.41463e-08
-1.09878e-07
1.3841e-07
-2.85682e-09
-3.71518e-08
1.14853e-06
-5.53285e-08
-0.00101404
0.0272047
0.00222184
4.59084e-07
-5.06266e-08
8.72621e-05
-6.99671e-06
8.78249e-07
1.67812e-07
8.4855e-08
-1.81624e-06
-5.90025e-08
0.000129811
2.43146e-07
7.60153e-07
2.35147e-07
6.55157e-08
-1.14725e-07
0.00850133
-0.00311956
-0.000141462
4.23761e-08
-0.000756477
3.12245e-08
-0.0019821
-0.00650042
-1.39556e-08
-4.19375e-08
-9.62706e-08
0.0480738
1.81892e-07
-0.00876192
9.7246e-09
1.42419e-07
5.49087e-08
2.55326e-05
-0.00280252
4.13837e-06
1.92687e-08
4.30724e-07
4.04074e-07
-0.00276315
2.75162e-08
1.28469e-06
-2.96878e-05
3.16167e-07
-0.00532039
-0.00368238
2.77841e-07
1.99814e-08
3.64974e-07
3.61178e-06
-0.00693745
-0.000564803
-7.03015e-08
-1.12971e-06
5.27609e-07
4.57891e-06
1.09395e-07
0.000513955
0.000599748
3.2232e-07
5.28573e-08
6.44322e-07
5.03189e-07
3.30596e-07
0.00264032
1.44952e-07
-0.00508572
6.23972e-07
2.9558e-07
4.76628e-07
2.35394e-07
0.0373177
9.78813e-08
-0.000262811
-0.00249105
-0.000405936
-7.25637e-09
8.71856e-08
9.42738e-08
7.64004e-08
-5.40612e-08
-0.00423737
0.00698196
1.20991e-07
-6.7227e-08
7.33228e-07
-4.10111e-06
1.83253e-08
7.76053e-08
-1.12851e-06
3.4715e-08
1.85857e-08
1.11876e-07
1.06713e-06
4.98887e-08
4.63922e-07
-0.00124292
5.22229e-07
3.93047e-07
-6.12545e-06
-3.00492e-08
9.44045e-08
2.49687e-07
3.82465e-07
-7.51101e-10
3.08816e-07
-6.04159e-08
-0.00361721
0.000507445
-5.18653e-08
3.86087e-07
2.46687e-08
-3.17e-05
-2.90727e-08
-0.00238305
-3.04135e-08
-1.28369e-07
1.18347e-07
0.000187514
7.4433e-07
4.5861e-08
-1.85797e-08
-0.00390554
0.000752621
3.00225e-06
4.11656e-06
2.28581e-07
2.39065e-07
-1.98903e-07
-0.000247445
4.28846e-08
0.0209985
-5.11222e-08
8.91398e-08
3.50753e-07
3.64624e-07
2.6789e-07
-8.60085e-08
7.67058e-08
-0.00230751
3.46122e-07
-5.87209e-08
2.06002e-07
4.59695e-07
0.00144249
-0.000289519
8.81396e-07
-0.00110591
1.81105e-07
1.58445e-07
1.89745e-07
-0.000671442
5.98427e-08
2.12822e-07
0.00348238
7.90971e-08
1.07681e-08
5.22205e-08
-3.55938e-05
0.00914759
-0.000638599
1.28229e-08
2.05645e-08
1.04661e-06
9.05492e-07
0.0107161
1.01033e-06
3.4086e-07
1.41506e-07
-4.79493e-08
7.61239e-07
-5.57044e-07
2.951e-07
4.01221e-06
-1.36897e-07
1.98444e-07
-1.34146e-08
-1.38959e-07
5.38632e-08
-6.40191e-08
3.22432e-05
2.36026e-08
6.89056e-08
1.66272e-07
-7.12779e-08
-1.00892e-07
2.44458e-07
-0.00182856
-2.58284e-11
4.25728e-07
0.0018199
1.35277e-07
-0.00382966
1.33551e-07
-0.000548583
3.32181e-07
-6.34762e-08
2.84589e-07
2.41085e-07
-0.00268709
-3.03904e-06
2.73571e-07
4.24286e-07
1.40448e-08
-1.08836e-07
-9.31718e-08
-1.51102e-08
-0.000528337
2.64137e-07
1.07459e-07
-5.28121e-08
4.17274e-07
-0.00930131
5.73558e-08
0.00264363
-1.63145e-09
4.99871e-07
9.25752e-07
5.4746e-07
1.43108e-06
-8.76277e-09
0.00070246
5.48155e-05
4.11395e-09
-0.000213402
5.06943e-07
2.09899e-07
-1.04044e-08
-3.81722e-08
-5.73556e-09
-2.28438e-08
8.69369e-05
6.12077e-07
5.0876e-08
7.04406e-05
-5.98794e-08
0.000767481
-6.32225e-06
3.07303e-07
-0.00198691
2.59335e-07
2.12741e-07
2.02722e-07
0.000525437
-0.00278535
5.43742e-07
3.61456e-08
3.10572e-07
0.000894409
5.52075e-08
2.02715e-07
2.2831e-07
1.36204e-08
1.08784e-07
-0.00589651
-2.40321e-08
8.00247e-09
1.29041e-07
4.99478e-08
-8.86683e-06
1.32928e-06
8.5921e-07
1.14529e-07
2.95452e-07
0.000711746
-0.000629771
-2.07128e-08
-1.38655e-07
-2.25183e-08
-8.93465e-08
-0.00356343
-0.00356241
2.53516e-05
1.03e-07
-3.78813e-08
-0.0118647
0.0337033
-6.56505e-08
-0.00203319
1.25454e-07
5.83897e-07
-9.5507e-05
4.7567e-08
-0.00318238
-0.00349655
8.1012e-07
-0.000803712
-0.00419753
-1.2495e-07
-2.20998e-08
-4.285e-06
0.000910486
-1.35262e-08
-0.00157508
1.53556e-07
-2.38942e-08
4.05661e-08
2.09161e-07
4.90977e-07
2.01201e-07
-3.97682e-07
-0.000761366
-1.96159e-06
2.2463e-08
2.38493e-07
6.09911e-08
3.63201e-07
-1.20779e-07
-2.64917e-06
3.10381e-07
-6.66567e-08
6.99248e-08
6.20398e-08
4.30429e-09
9.2827e-09
-3.49208e-06
1.92182e-07
1.26848e-07
-0.00124496
0.0007137
1.15913e-06
-4.15392e-08
5.20735e-07
-9.96411e-08
2.14138e-07
-0.00493558
0.0090697
2.80652e-07
1.16261e-07
-0.00148406
0.000724633
3.12758e-07
-1.41521e-08
-0.00703582
2.01035e-08
3.89695e-08
3.81049e-07
2.85037e-07
3.84034e-08
2.59085e-07
-0.00512093
1.70383e-05
9.95714e-08
1.46919e-06
5.5813e-07
0.000698905
-0.0146472
0.000351865
6.58195e-06
-3.75934e-08
-1.562e-07
2.16681e-07
2.55314e-07
-1.10025e-07
2.05104e-07
-6.80229e-09
4.31978e-07
0.0442062
-1.21739e-07
-0.00043251
3.83252e-08
-0.00345542
1.01282e-07
1.88817e-06
8.20741e-07
9.25133e-06
-4.3015e-05
2.46465e-07
2.7939e-07
-0.0132084
5.06803e-07
0.00589059
2.52866e-07
-0.00270301
-1.68496e-07
-0.00675823
9.63687e-05
2.25294e-07
7.85053e-09
2.64796e-07
0.000817617
-0.00306403
6.58317e-07
2.96981e-07
0.0109993
2.16916e-07
4.9188e-07
0.0161443
1.04479e-06
-7.16514e-08
0.00403613
3.37461e-09
7.50104e-07
1.52234e-07
0.00661231
1.42822e-07
3.38047e-07
-0.000191672
-3.60531e-06
8.32807e-08
5.9671e-07
4.9053e-07
-2.4558e-07
1.49377e-07
-2.01602e-05
-1.68233e-08
1.14839e-07
9.61911e-08
2.53869e-07
0.0009536
5.16523e-07
-0.00748628
0.0135233
0.000680884
-2.07097e-08
2.93739e-08
-2.57283e-08
2.40419e-07
4.33854e-07
3.22821e-07
-0.00106908
1.81864e-07
0.000447805
1.44632e-07
-4.37097e-09
4.76232e-08
1.14519e-06
0.000344654
-0.000295854
2.29314e-08
0.000249481
2.06126e-07
-0.0101063
-2.75598e-06
5.02213e-07
2.19608e-08
1.63114e-07
3.85889e-07
-0.0195561
1.21932e-07
1.0448e-08
2.41205e-07
4.47506e-07
3.44345e-07
4.07082e-05
0.000453769
-3.22465e-06
-2.70001e-07
2.68341e-07
-0.00586463
1.47606e-07
1.07097e-08
-1.27665e-07
4.87311e-05
7.17606e-08
-2.74567e-08
3.82417e-07
1.83344e-06
1.01972e-08
0.000924343
7.2895e-09
-4.27917e-07
-2.16076e-07
0.0010526
-1.279e-05
2.04616e-07
-4.16043e-08
0.00133183
3.75814e-08
8.34929e-08
1.49234e-06
1.7356e-07
3.07947e-08
-0.00345284
-2.79951e-08
4.39516e-07
3.5748e-07
9.90285e-07
-4.86425e-08
1.97118e-06
6.25117e-08
1.56599e-07
3.28491e-05
1.84235e-07
-4.22602e-08
-1.01448e-08
4.56682e-07
0.000122069
-5.07001e-06
-5.62828e-06
7.59546e-07
8.43377e-08
-3.92771e-08
0.000688667
-1.17922e-07
-0.00712351
2.10806e-07
0.00392202
2.89531e-07
1.3359e-07
6.74785e-08
4.50844e-07
1.10275e-06
-4.81716e-06
0.000800585
-0.000313774
2.47606e-05
2.34878e-08
2.6504e-06
-1.04127e-08
1.2234e-06
1.202e-08
4.25175e-07
-3.42734e-08
-5.6408e-08
4.25588e-10
1.06428e-06
1.46248e-07
2.66403e-07
-1.19055e-07
0.000502852
-0.00683126
1.12779e-06
0.000788454
1.28952e-07
4.1471e-08
1.66465e-07
1.92891e-06
4.88537e-07
3.41221e-07
3.06833e-07
0.011302
3.19562e-08
1.09345e-06
-1.23258e-07
2.18177e-07
-0.00180903
9.99933e-08
-1.36687e-05
1.8034e-07
-1.17824e-07
0.00162863
-4.48723e-07
-1.59071e-07
7.75143e-07
-1.52098e-06
-0.00340335
0.00223155
-5.00414e-08
1.50081e-06
7.02912e-07
0.0117501
-6.12329e-08
-0.0085905
-0.00165428
-8.70659e-09
5.18021e-07
2.41507e-07
2.97618e-06
3.36694e-07
-3.84032e-08
0.000604072
-5.63648e-08
2.29436e-07
-8.99874e-07
1.19801e-06
0.00074859
0.000685953
-5.05802e-06
-0.000787884
3.01459e-07
3.00462e-08
-2.36265e-07
6.17568e-08
0.0100652
-1.03695e-08
-4.21156e-06
-1.9611e-08
-0.00755231
-2.38459e-08
5.76159e-09
-3.24791e-08
9.77054e-11
7.06403e-09
1.51521e-07
1.4682e-08
0.000374492
-7.96319e-08
8.72048e-07
-2.01362e-08
-0.000666474
-9.78815e-09
2.62749e-07
1.61563e-08
4.93922e-07
3.79481e-08
5.87822e-08
-1.6101e-07
-7.34264e-08
4.75602e-07
-2.44611e-07
-3.06054e-08
9.1514e-08
0.00258911
-0.00341257
-0.00679055
0.000919853
5.23879e-08
2.46196e-07
1.94181e-08
-1.3449e-07
-9.59674e-08
5.90874e-08
1.37567e-05
-3.48159e-08
-1.11766e-09
1.75416e-07
-1.90715e-07
9.99605e-08
-0.00374137
3.54412e-07
1.79034e-07
-0.00246513
5.60187e-07
-1.64758e-07
-0.00229212
-0.00230571
-8.99203e-09
7.36277e-05
-1.02684e-05
-8.42501e-08
-8.71247e-08
1.1107e-08
1.44962e-07
1.21908e-07
5.40316e-07
1.05507e-06
2.40146e-07
1.99831e-07
-7.5241e-08
-0.00305118
7.38846e-07
1.71166e-07
2.6877e-07
1.66092e-08
-0.0075539
-2.09357e-08
1.20541e-07
1.00984e-07
1.59093e-07
-5.01931e-08
1.33662e-05
-0.000830356
0.00947179
0.000415107
-8.46216e-07
1.60066e-07
1.42695e-07
-0.00095851
-9.0739e-07
-7.90371e-09
5.3766e-07
-2.18875e-10
-1.1252e-07
2.94723e-07
0.00375011
3.41141e-07
2.97405e-07
-1.14242e-07
1.26241e-05
1.10222e-07
1.74584e-05
1.92242e-07
-1.98323e-05
-1.42175e-05
0.0513744
8.70641e-08
1.40407e-08
4.45325e-08
3.44568e-08
9.35923e-09
1.30242e-07
-6.57379e-08
0.0432304
3.12088e-07
-6.76203e-06
-0.00938779
1.85377e-07
0.000656883
1.49693e-07
8.89915e-08
2.22014e-07
8.29799e-09
1.47982e-07
4.85359e-07
-4.99741e-08
2.0082e-07
2.75263e-07
0.0313897
0.0161591
4.12175e-08
1.34158e-07
-1.03931e-07
-3.89025e-07
-1.65673e-06
-6.35275e-06
-5.32055e-08
5.21898e-07
-2.41869e-08
1.00462e-07
5.17321e-07
1.26943e-07
-0.00198116
9.59539e-09
2.17123e-07
6.85309e-07
-0.000209042
2.20583e-07
-0.000306553
1.12702e-07
-1.96728e-08
-9.33376e-06
-1.53562e-05
5.56207e-08
-0.000483716
3.32895e-07
5.28472e-06
-6.09033e-08
-1.44329e-07
0.000513443
0.00168372
4.35388e-07
-7.51422e-08
-5.88134e-08
-7.24525e-06
1.03343e-06
-1.71955e-07
9.20914e-08
1.5212e-07
-1.2314e-07
-5.0984e-07
-0.00516324
-7.59854e-08
5.45875e-07
0.00175931
7.19618e-07
1.6888e-06
-8.15816e-05
-0.000585637
0.000530418
-2.08036e-07
3.81661e-07
0.00121934
7.57929e-09
-1.27678e-08
8.40881e-06
-0.00253886
1.34522e-08
3.72748e-08
0.000522918
1.18917e-06
1.47731e-06
-0.00866322
0.000894192
0.000606454
1.49606e-07
3.65826e-07
-3.83326e-08
1.78702e-07
0.00594133
-5.83434e-09
-3.96253e-06
1.70928e-05
2.39333e-07
1.34937e-07
0.000226395
1.52963e-07
6.0407e-07
9.93692e-08
-7.79843e-09
-0.000451079
0.00968561
1.95167e-07
2.10609e-07
1.12159e-06
0.0299441
2.1733e-06
-0.00245197
1.19486e-07
-7.50317e-08
4.16871e-07
4.4642e-07
-1.11533e-07
3.95814e-09
-2.55721e-08
0.0351054
4.54905e-06
0.000138393
1.63009e-07
-3.36274e-08
2.44147e-07
-0.00480654
-4.47742e-09
1.66274e-07
-2.71781e-07
-5.89842e-09
2.96991e-07
-0.000282466
0.00653225
0.00107432
2.32122e-05
-0.00191208
2.84496e-07
-4.2346e-08
0.00395904
4.00907e-07
2.6349e-06
0.00181738
1.84483e-07
-0.00922087
0.000687629
4.67459e-07
-1.64892e-09
-5.38309e-06
-3.66349e-09
5.73433e-07
1.9198e-07
-0.000986677
-1.02009e-07
-3.38864e-08
3.98609e-08
-8.80666e-06
-2.25818e-07
-2.19119e-07
-0.00140678
0.00105856
-1.89109e-07
7.14701e-06
7.26901e-07
1.68916e-07
2.08286e-06
-0.00151519
1.1649e-07
9.74931e-08
-0.00223629
8.4258e-07
9.29729e-08
2.07834e-07
4.47087e-07
4.85569e-07
3.25489e-07
-3.28337e-09
-0.00585713
1.78914e-06
-0.000869048
-0.00101793
0.000972485
1.39118e-07
-5.29433e-07
-0.00944759
2.01183e-07
0.000194758
0.00963811
0.0147174
1.4593e-07
1.94184e-09
0.000578464
0.00656842
2.58635e-07
4.25857e-07
-6.64229e-08
1.45415e-07
-4.55334e-06
-2.03863e-08
0.000454259
0.000728587
0.000198136
0.00499782
1.76945e-07
4.84378e-07
1.39478e-08
1.36843e-07
5.78549e-08
5.23412e-07
3.85882e-07
1.58004e-06
0.0004198
-3.07676e-08
3.83754e-07
2.86166e-06
3.6203e-07
2.49757e-05
1.33731e-08
0.000893216
0.000843753
0.000114126
-0.0108997
-0.000531575
-0.000366376
0.00081393
0.00116025
8.9189e-07
3.43599e-09
6.30234e-08
-3.10037e-07
0.00162014
0.00642857
-8.89365e-08
6.92398e-07
-0.00220678
-0.000374902
4.54485e-07
-0.00172251
-3.46469e-08
1.86305e-06
-0.007149
0.0164586
2.75342e-08
-0.000732608
8.98917e-06
1.54842e-07
4.24996e-08
-0.00876379
-0.00851198
-0.00636506
-0.0034654
-9.39407e-08
0.00852966
0.000410799
1.03843e-07
-2.35505e-06
2.68842e-08
6.47816e-08
2.51893e-07
0.000398115
-0.000325588
1.46973e-07
2.07476e-07
0.000369359
2.25426e-07
0.00109495
3.34968e-07
-3.4945e-05
0.000818328
3.51892e-08
-0.00287645
-9.90556e-09
8.75805e-07
7.6252e-08
5.801e-07
6.42736e-07
2.268e-07
-4.17199e-06
2.45961e-07
0.000912209
1.77603e-06
0.0170599
-0.0027785
-0.000275091
1.42799e-08
-0.00734311
2.96418e-06
0.000500594
1.162e-07
-1.06349e-07
0.00576289
-0.000305839
0.000229845
2.86098e-08
1.65208e-08
4.81924e-07
-0.00659503
-0.000618733
2.32343e-08
-0.0288513
7.39757e-08
2.86192e-08
0.000433772
-4.93935e-09
-0.00194676
9.57347e-08
8.55103e-07
-0.000250738
-0.00615982
0.000960214
0.000114208
0.000907367
0.000488987
0.017342
-2.55383e-09
-0.000819593
-1.30891e-07
9.45961e-08
1.8668e-07
2.44213e-08
-0.000692744
1.90816e-08
0.000856963
0.00109448
1.0993e-06
-1.45226e-06
1.94217e-06
0.000942588
1.4403e-07
-0.00656595
-0.00162802
-3.31257e-06
-7.85666e-08
1.35463e-07
0.00408652
-2.64272e-07
4.92397e-06
0.000416652
-0.00138676
-1.472e-06
2.43882e-07
1.85777e-07
-6.9697e-07
1.27722e-07
6.31885e-08
2.18038e-07
0.000839655
8.37416e-07
4.7671e-07
0.000131928
1.81838e-06
-0.000125917
0.0232516
0.000846942
-0.000205641
0.000529324
-0.00170239
0.00100402
-4.90682e-07
4.2249e-07
1.69144e-08
6.68366e-07
1.63422e-07
4.91146e-06
1.16135e-07
3.71421e-08
9.72597e-08
7.55463e-07
0.00324512
5.88915e-07
4.47259e-07
5.799e-08
0.0168018
-9.38511e-09
-2.21631e-07
4.04933e-07
0.00051369
7.48814e-07
3.9929e-07
1.05429e-06
3.31729e-09
6.96241e-07
-2.66493e-07
1.92406e-07
2.80295e-07
-1.22831e-05
2.10803e-08
2.06836e-07
-9.7747e-08
0.00336539
1.54904e-08
-0.00616904
5.23603e-07
0.000846334
1.19418e-08
2.24761e-08
2.60746e-07
2.34804e-06
1.10149e-06
-0.000489781
-0.00262601
-5.21244e-07
-6.49148e-08
2.45786e-07
-0.0113037
0.0109858
8.9639e-08
3.05617e-06
0.00114393
3.86306e-07
1.01444e-07
7.44673e-08
-3.2824e-09
-5.21596e-08
0.000528835
3.43962e-07
2.07238e-07
-0.00507721
-2.6362e-08
-7.43393e-09
7.83649e-06
1.10702e-07
7.47302e-07
4.27723e-07
-0.00300667
-3.65702e-08
-1.87603e-08
6.39739e-09
3.80261e-07
5.97542e-08
4.64553e-08
0.00428878
1.9997e-05
8.85726e-07
-4.24992e-08
0.000624109
2.12283e-08
-3.28564e-08
4.40278e-07
0.00047618
-0.00533669
2.02011e-07
-0.00728869
0.00369197
4.5886e-07
0.000324008
0.0179024
-0.00209706
0.0150465
6.50427e-07
1.25161e-06
2.99724e-05
3.32841e-07
3.82271e-07
2.67989e-08
6.55891e-07
-0.00433757
-1.67292e-07
-0.00309251
4.25128e-08
4.13022e-07
9.95374e-08
6.80904e-08
1.95794e-07
0.000979127
-0.000538627
-0.00153187
-0.000287513
2.55617e-08
1.58106e-06
-0.0045817
3.79542e-07
0.00495949
1.82272e-08
-9.76712e-09
0.000936778
1.05007e-06
-5.37478e-08
9.8751e-07
-5.47459e-07
-9.4098e-08
0.000451458
0.00327412
-8.49395e-10
2.05989e-07
2.8928e-07
-3.32122e-09
-0.00259393
1.07613e-07
3.35398e-07
1.25234e-07
2.60558e-07
3.26906e-08
2.07648e-08
0.000570758
7.76789e-07
-6.06861e-08
1.73506e-07
-1.39089e-07
1.45422e-07
3.53137e-08
-0.000362208
-0.00179119
4.34943e-07
2.77552e-06
1.08779e-07
1.699e-07
1.32439e-06
-0.00378975
1.68792e-07
0.000708347
0.0252997
2.03097e-07
2.24957e-07
7.63998e-07
6.23283e-07
1.15227e-07
-0.00773276
-2.99863e-07
5.73011e-08
8.11418e-08
-0.000567268
0.00561482
2.24208e-08
3.20375e-06
4.80616e-08
5.93508e-07
3.64144e-06
-1.82869e-05
4.7976e-08
2.96834e-07
0.000626431
5.52673e-08
3.42714e-08
-2.82653e-08
-0.00307764
-0.000975893
-1.26957e-07
-0.00179277
8.67659e-07
-2.98305e-07
0.000342717
2.10431e-07
-0.00113648
6.58484e-07
2.30387e-07
0.00310292
-6.01404e-06
-1.20993e-07
-1.79652e-07
0.000198437
-4.28119e-08
-3.00805e-08
1.10392e-05
1.04266e-07
1.00556e-07
-0.00237448
1.99747e-07
9.73162e-07
0.000771174
6.07217e-07
-0.00185341
-0.00539771
2.11928e-07
1.19753e-06
1.31689e-06
1.80438e-08
8.16352e-07
1.31575e-08
0.0027217
3.39919e-06
1.49647e-07
0.0231848
-0.0149965
-1.42319e-08
9.22877e-08
-1.40279e-06
1.02311e-06
-0.00059378
-0.000537796
6.79985e-08
3.63291e-07
-0.00146951
9.20261e-08
6.4217e-07
1.22012e-06
4.38132e-08
0.00273379
-1.59638e-05
3.51694e-07
1.36038e-05
0.0131556
6.70418e-08
0.0314582
3.1879e-08
2.38889e-07
8.84108e-09
-5.51915e-08
-0.00467565
3.21774e-07
1.07549e-06
-0.00652613
0.000407956
3.30708e-08
1.46985e-07
-1.98394e-06
0.000835332
-6.43744e-08
-0.00347848
3.71518e-07
-3.0644e-09
3.19508e-07
-1.81906e-08
2.32035e-07
3.66479e-08
-1.37069e-07
0.00623983
3.98535e-07
-1.10951e-07
-7.99211e-08
-0.00728807
3.59774e-07
3.76084e-07
1.76456e-07
1.72438e-07
5.85355e-08
3.78769e-07
-0.000670111
0.00492186
2.4251e-07
5.89411e-08
3.5356e-07
1.92992e-09
5.20026e-07
0.000246928
-0.00194844
1.64045e-07
0.00589813
-1.27284e-07
3.15197e-06
0.00023264
-0.00107696
-1.6182e-07
-2.61432e-07
9.35941e-07
-0.0048808
-2.64023e-07
-1.31204e-07
0.00035675
8.16954e-07
4.39029e-08
0.00783328
3.23332e-07
6.17402e-08
1.45826e-07
-0.00316308
-5.31466e-08
0.00907541
2.2516e-08
-0.0213397
9.05484e-08
6.77783e-07
0.00168829
1.34325e-07
9.2526e-09
-7.991e-05
8.85388e-08
2.60335e-06
-0.000675271
4.91258e-06
-8.59442e-09
-6.06802e-07
-4.42363e-08
3.0987e-07
3.26189e-07
0.00485004
2.87675e-08
8.98997e-08
1.37107e-07
1.7274e-07
4.83624e-07
0.0013776
0.0203487
1.00659e-07
-1.49101e-07
-3.86175e-08
0.0278579
0.0244497
-1.06185e-06
-4.54564e-08
3.04386e-07
4.08697e-07
0.00432594
-4.04147e-08
3.84484e-07
0.00352852
1.49846e-06
3.18834e-08
-7.89519e-07
1.12357e-06
-1.36712e-07
-1.33807e-08
6.82757e-07
-4.16361e-06
3.85091e-07
2.5611e-07
0.000493692
0.000664825
0.000719076
1.38344e-07
-7.76421e-08
8.11137e-08
1.64189e-10
2.03716e-07
5.2887e-07
4.53718e-07
1.12335e-06
-0.00859311
1.63972e-08
8.15649e-08
-0.00153208
-1.61775e-05
-0.000550443
-1.09125e-05
1.00881e-07
-1.02896e-09
1.01033e-08
-1.07112e-07
-1.4797e-07
4.92682e-07
1.43534e-07
5.58289e-09
5.06727e-07
-5.01405e-08
-1.1922e-08
-1.18224e-07
-2.14924e-09
1.13306e-06
1.43622e-07
-1.19141e-07
-9.79309e-08
3.40254e-08
-2.76272e-08
5.52432e-07
9.20502e-08
-1.68955e-09
-1.85207e-06
1.53972e-07
-5.05351e-08
-6.70743e-08
4.28065e-07
-0.00157467
-0.00335905
0.000573609
-0.00189998
0.00170043
1.16359e-05
1.40982e-07
4.8076e-07
-9.14471e-09
0.0029537
3.47273e-07
4.06643e-08
-6.73577e-08
4.5568e-07
1.48784e-07
3.00957e-07
1.70809e-07
0.00329458
9.85798e-07
9.34056e-08
-0.00634666
0.00043795
2.85647e-07
2.6836e-06
1.11011e-07
1.94206e-07
-0.000223131
1.57309e-07
5.66586e-07
5.80134e-06
6.67866e-08
2.39886e-07
6.20899e-07
0.00125202
9.15614e-10
2.40402e-07
-0.000462964
-4.42558e-10
0.000720845
5.31823e-07
0.00484526
1.12248e-07
0.000182516
3.27906e-08
-4.50109e-09
-4.88972e-06
4.98061e-07
-0.000298019
0.00105485
-0.000477421
0.00328757
7.98851e-06
1.03287e-06
-2.74842e-07
7.07756e-06
2.70633e-07
2.93254e-08
4.57845e-08
4.57906e-08
3.45171e-08
1.34042e-07
9.56831e-08
1.0117e-06
0.0249663
-1.23336e-05
-3.95674e-05
-0.00141764
2.39951e-07
6.43392e-09
-2.33988e-08
-4.06774e-08
9.3386e-07
-9.10923e-08
3.23992e-07
8.28846e-08
2.06705e-07
-2.29687e-11
-3.29224e-07
2.22894e-06
3.744e-07
6.32475e-08
-6.25392e-09
-1.43589e-08
-3.36775e-05
-0.00178253
1.64833e-07
4.53777e-07
8.71008e-08
-0.0031057
0.000608894
-6.2927e-08
-3.46153e-08
1.19144e-07
1.02951e-07
0.000822625
-9.12205e-06
-0.00365553
2.10888e-08
0.0287325
-7.47447e-08
0.000775424
5.4814e-07
1.92185e-07
1.38861e-07
0.026927
-2.03729e-08
1.4162e-07
6.48385e-07
6.73999e-07
-0.00582942
2.4009e-07
-4.78389e-08
3.24259e-08
7.3191e-06
-2.75518e-07
0.00110565
0.0154965
-1.95728e-08
7.04524e-09
-0.000341362
1.39304e-06
-4.96008e-08
-0.116653
0.0578028
0.00267248
0.00700207
4.55794e-07
4.89847e-06
1.15645e-07
-0.00422925
0.00290327
3.07032e-06
1.37741e-06
8.66454e-08
-0.00129585
-6.53655e-08
5.08885e-08
2.56305e-07
1.46915e-05
3.12305e-07
0.0247714
3.88621e-07
1.27153e-08
3.6219e-08
0.000770401
1.62601e-07
5.3564e-08
2.97346e-07
-0.00273363
7.80957e-05
-0.00132588
0.000881462
8.29222e-07
-4.00916e-08
-2.03753e-08
4.21414e-05
-2.34197e-07
-7.95008e-08
7.07188e-07
7.47431e-06
0.0172484