/*--------------------------------*- C++ -*----------------------------------*\
| =========                 |                                                 |
| \\      /  F ield         | OpenFOAM: The Open Source CFD Toolbox           |
|  \\    /   O peration     | Version:  v2012                                 |
|   \\  /    A nd           | Website:  www.openfoam.com                      |
|    \\/     M anipulation  |                                                 |
\*---------------------------------------------------------------------------*/
FoamFile
{
    version     2.0;
    format      ascii;
    class       surfaceScalarField;
    location    "600";
    object      meshPhiCN_0;
}
// * * * * * * * * * * * * * * * * * * * * * * * * * * * * * * * * * * * * * //

dimensions      [0 3 -1 0 0 0 0];
oriented        oriented;


internalField   nonuniform List<scalar> 
14470
(
-0.00355746
0.0011046
0.00245254
-0.000357693
-0.000235619
0.0060172
-0.0060433
-1.8443e-05
-0.000175378
-0.000234179
0.000409556
-0.000644764
0.000554223
-2.90003e-05
-0.00112176
0.00112319
-3.07251e-06
0.000788897
-0.00156136
0.000770428
-0.000155299
-0.000421522
0.000576806
-0.00396211
0.000671605
0.0032902
0.000187252
0.00175024
-0.00201162
0.00201685
-0.00189383
-4.1378e-05
-0.00498365
0.00513204
0.00113844
-0.000523891
-0.000613947
0.00591317
-0.00434551
-0.00168786
-0.0031142
0.00373445
-0.000676422
-0.00176882
0.0017533
3.4516e-06
0.00594341
-0.00187627
-0.0039518
-0.000632316
0.000532013
0.000100286
0.0020462
-0.00451966
0.00249169
0.0025829
0.00297626
-0.00553498
0.000308883
-0.000308883
-9.9927e-05
0.000495687
-0.000395766
-0.000504753
0.000349445
0.000736244
0.000402903
0.000556586
-0.00224322
0.00168597
0.006809
-0.00218036
-0.00461862
-0.000109264
0.000296755
-8.63544e-05
-0.00154482
0.00360204
-0.00136281
0.000339996
0.00102056
-0.000320653
-0.000132595
0.000453247
0.00108558
-0.000979978
-0.000106124
-0.00541934
0.0052091
6.85823e-05
0.00102679
0.00419155
-0.00523543
0.000306071
0.000214139
-0.000493144
-0.00127683
-0.000998655
0.00225416
0.00297541
0.00039891
-0.00337738
0.000286709
0.00153973
-0.00183199
0.000327307
0.000426871
-0.000754042
0.00244549
-0.00171916
-0.00073854
-1.36135e-05
-0.0013512
-0.000549548
-0.000300368
0.000849544
0.000195966
-0.000516343
0.000320333
9.80861e-07
-0.000145875
-0.000617955
-0.00392197
0.00456725
-0.000653495
-0.00367513
0.00437201
0.000282048
0.000234133
-0.000516181
-8.05499e-05
0.000431688
-0.000422829
0.00129866
-0.00486617
0.00365603
0.000331291
0.00570777
0.00167328
-0.00298039
0.000853193
-0.000458006
-0.00253852
0.00175494
0.000770799
-0.00142213
0.0012661
0.00201223
-0.00137646
-0.000638191
-0.00062451
0.000449127
0.00500418
0.000115494
-0.00497801
0.00011674
0.00137602
-0.00149647
-0.00301386
0.00438445
0.000431688
-0.00206415
0.000378518
0.00168267
0.000539339
-0.00103707
0.000497561
-0.00579047
0.0058093
-4.40173e-05
0.00315436
-0.000557856
-0.00261388
0.000232153
-0.00106888
0.00116396
-0.000112235
-0.00384371
-0.000233959
-0.000237276
3.76575e-05
-0.00258359
0.00251551
0.000267652
0.00311226
-0.0033921
0.000826521
-0.000247402
-0.000579297
-0.00510943
0.00222514
0.00287679
0.000102612
0.000686367
-0.000788775
0.000345412
-0.000618926
0.000273506
-0.00199421
0.00190996
7.21756e-05
-0.000665
0.00102169
-0.000356809
-0.000850358
0.000989405
-0.000202071
0.00119547
-0.00145113
0.000254804
-0.000929338
0.000374973
0.000554137
0.00547844
-0.001434
-0.00407508
0.000936132
-0.00101823
3.06635e-05
7.97586e-05
0.00111536
-0.000490455
-0.00014189
-0.00157851
-0.000200026
0.00247949
-0.000549643
-0.00194571
0.00323041
0.00087175
8.63502e-05
-0.000959236
0.000920232
-0.000134553
0.00211367
-0.00178345
-0.000358553
-0.000410856
0.000738327
-0.000311198
0.000850313
0.000433586
0.000138503
-0.000572103
3.47855e-05
-0.00062064
0.000585575
0.000783907
-0.000749483
-0.00102634
0.00172544
-0.000707344
0.000603938
-0.00040803
0.00550832
-0.0010552
-0.00441939
0.000284229
-0.000949392
0.00154206
-3.97359e-05
-0.00151042
-0.00271008
0.000472105
0.00221675
-5.57648e-05
-0.000681776
-0.000403518
-0.000371611
0.000775245
-0.000522467
-0.00203299
-0.00158133
0.00176275
-0.000191352
0.00437124
-0.00496337
-0.00121598
0.00094417
0.000270995
-0.000743839
0.000351392
0.000392296
-0.00186081
-0.00014555
-0.00503947
0.00465966
0.000400145
0.00450671
0.000956844
0.000174633
0.00145339
-0.00151191
2.58417e-05
-0.000519568
0.000419631
-0.000154367
-0.000405593
0.000559963
-0.000368576
-9.71959e-05
0.000465771
-0.00128706
-0.00382062
0.00120317
-0.00404334
0.00265635
0.00155542
-0.004449
0.00284964
0.00366398
-6.4946e-05
-0.00349385
0.000167978
0.000413399
-0.000581375
0.00366158
-0.00432096
0.000683145
-0.000449007
-0.000578937
0.0010273
0.00202526
6.35516e-05
-0.00100089
0.000921223
7.92351e-05
0.000217918
0.0016719
-0.00190124
-0.00345493
0.00385071
0.00426239
-0.000556575
-0.00175406
0.000603274
0.00114306
0.000250868
-0.000571523
0.00116475
-0.00166012
0.000491712
0.00179894
-0.000638688
0.00317031
6.79718e-06
-0.00316849
0.00659602
-0.0021819
-0.00443937
-0.000280981
-0.00327261
0.00280533
0.000215212
-0.00305362
0.00293849
-0.00258231
-0.000375559
-0.00047956
-0.000494615
0.000972989
-2.58538e-05
0.000964376
-0.000939453
0.00346793
-0.00194758
-0.000921483
4.95992e-05
-0.00165914
0.000622312
0.00103095
-0.000740818
0.000539545
0.000201193
0.00191848
0.00504513
-0.00151318
-0.00347161
0.000259066
0.0018034
-0.00208587
0.000220061
0.00031484
-0.000534902
-0.000285116
-0.000444495
0.000729294
-0.00445847
0.000170514
-0.000237893
0.000522077
0.00327765
0.00332176
-0.000163251
0.00157837
-0.00666422
0.00500909
0.000551721
-0.000722781
0.000171033
0.000102018
-0.00283154
0.00315838
0.00365733
0.00442179
-0.00416336
-0.000267563
0.00060571
-0.00087528
0.000269261
7.44326e-05
0.00166978
-0.00563981
-0.000128509
0.000226881
0.000858444
0.00346492
0.000788415
-0.00425957
-0.00199481
0.000186787
0.00281015
0.000351133
0.00427111
-0.00166196
0.000108541
-0.000545315
0.000436722
-0.00112041
0.00479066
-0.00364234
-0.000404464
-0.000525176
-0.00167988
0.00147736
0.000192579
-0.000489084
0.00434731
-0.00384422
0.00472216
-0.00524594
0.000666943
0.000143115
-0.00157102
0.0014769
0.00274607
0.00232385
0.000390462
-0.000608128
0.000217666
-0.000670688
0.000419831
0.00025085
-0.000380851
0.00107564
-0.000695816
0.00462136
-0.00456596
-0.00106983
-5.44341e-05
0.00110171
-0.000485642
-0.000616841
-0.000777837
0.000183956
0.000593833
0.00633104
-0.00475089
-0.00159074
0.000668115
0.00218838
-0.00288336
-0.000843324
-0.000373668
0.000502108
0.000397589
0.00160626
-0.0038996
0.00329339
1.72758e-05
0.00300253
-0.00295544
-0.000239929
-0.000705889
-0.000295681
-0.000227047
0.000572454
-0.000340539
-0.000330171
-0.00168005
9.03722e-05
0.00391172
-0.000833886
-0.00307571
0.000107061
-0.000396615
0.000289558
0.000657921
-0.000109537
-0.00054835
-0.00216531
0.00209982
6.4123e-05
0.00430572
0.000717814
-0.00499358
0.000218725
-0.00265689
0.00243044
0.000491904
5.82741e-05
-0.000550182
-0.00400551
0.00175898
0.00241248
0.0025188
-0.00430827
0.00266864
-0.00281133
0.000179083
0.00167359
0.00245403
-0.00412346
0.00157363
0.00221796
-0.00378445
-0.00244549
0.000518344
0.00189868
-0.00351398
0.00270571
0.000790019
-0.00021274
0.000636945
-0.000424204
0.00469999
-0.00100948
-0.00366188
0.00198038
-0.00221912
0.000225576
-0.00408345
0.00360358
0.000805824
0.00274678
-0.00355634
-0.000881686
0.000652525
0.000229065
-0.00159347
-0.00055997
-0.000180914
0.00286981
-0.00293139
0.00015394
0.00064103
0.000185338
0.000527024
0.00193638
-0.00262202
0.00295651
-0.000358885
0.00292591
0.00291428
0.000649406
-0.00113021
-0.00265891
0.00371004
-0.00132265
0.000260306
0.0010631
0.000216953
0.00131687
-0.00311957
0.00470218
-0.000498475
-3.61064e-05
0.000534628
0.000532235
-0.00129227
0.000756816
0.0005901
-0.00162219
-0.00568555
0.00136742
0.00435727
0.000324929
-0.00193934
0.00160146
0.00136339
3.35885e-06
-0.00136786
-0.00110906
0.00114244
-3.26554e-05
-1.01181e-05
-0.00109848
-0.000396953
-0.000246958
0.000643934
-0.00104026
-0.00052592
0.00156061
0.000245877
-0.00290207
0.00117913
0.00195855
0.000125626
0.00053233
0.000313752
0.00444322
-0.00467313
-0.00035418
-0.000582667
0.000214089
-0.00115452
-0.00263515
-0.00200682
0.00194841
2.76489e-05
0.000465932
-0.00101591
0.00566179
-0.0049861
-0.000662275
0.00039399
0.00100792
0.000283615
0.00113154
-0.00141941
0.000102265
-0.00139497
0.00128772
0.00380493
-0.00164188
0.00228798
0.0020736
-0.000102755
-0.00160212
-3.12366e-05
0.00162749
0.00276989
-0.00241039
-0.000371564
0.00487004
0.00177632
-0.00102205
-0.000758843
0.000485703
4.68068e-05
-0.00053251
0.00162905
-0.00472238
-0.000578718
-0.000708796
0.00128524
-0.000363045
-0.00116343
-0.00330957
0.000282796
0.00322449
-0.00219853
0.00119158
0.00108403
-0.000456523
0.00462369
-8.90223e-05
-0.00451994
-0.000141993
0.000747429
0.000607488
-0.000918826
0.000311018
-0.00427983
0.00335541
0.000838882
0.000999585
-0.0037076
0.000898936
-0.000388906
-0.000510292
-0.000986431
-0.000875252
0.00155922
-0.00168976
7.02462e-06
0.00056803
0.000709876
-0.000887157
1.6243e-05
0.000591125
-0.0005974
0.00070586
0.00212009
0.000146054
-0.0022588
0.000860241
-0.000468147
-0.000392169
0.00127421
0.00017624
-0.00145462
7.4073e-05
0.000495445
-0.000417921
-7.75205e-05
0.00104787
0.00329621
-0.000154428
0.000408104
-0.000253683
-0.00124349
0.000148163
0.00132862
0.00144087
-7.76513e-05
-0.000146344
0.00039397
-0.000247627
0.000468438
-0.00103884
0.000570681
0.00049472
-0.00157788
0.0005328
-0.0031972
0.0032126
-0.00169327
0.000105112
-0.000347686
-0.00317564
0.000453948
0.00463948
-0.0051116
-0.00283705
0.00446507
-0.00161553
-0.000458852
-0.000422896
-0.00108024
0.00163663
0.00291953
-0.00193893
4.19682e-07
1.35686e-05
1.86803e-05
0.000808652
0.00220182
0.000110042
-0.000776081
0.000787294
0.00462022
0.000567519
-0.000224261
-0.000343251
0.00583329
-0.00153606
-0.004187
-0.000280567
-0.0041718
0.00433583
-0.000192998
-0.000192319
0.000439785
0.0052568
-0.000148123
-0.000498485
0.000519342
-2.08565e-05
-0.000716269
0.000430867
0.00115097
-0.000650878
-0.000499512
-0.000402612
-0.00193976
0.00233598
0.00187729
-0.00164014
-0.000240433
0.00188795
-0.00169396
-0.000205564
0.000612855
-6.11599e-05
0.00441423
-2.08858e-05
-0.000484129
-0.000434873
0.00286398
-0.000190033
-0.00268957
-0.00520954
0.00129218
0.000113543
1.6838e-05
-0.00527972
-0.000294906
0.000719567
0.00105178
-0.000235621
-0.000398624
0.00340065
-0.00389904
0.000490451
0.00118165
0.000205429
-0.00138328
-0.00474716
-0.000144669
-0.0030594
0.00319985
-0.000143517
-0.00111842
0.00126221
0.000122593
-0.0013698
0.00124496
-0.00474086
0.00575343
0.00386807
2.99437e-05
-0.00387293
0.00220461
-0.00261523
0.000564753
0.000446826
-0.00101206
0.000425313
-7.37157e-06
-0.000417941
0.00451143
0.00148139
-0.000299215
0.00492674
-0.000581031
-0.00308609
0.00370277
0.00047867
-8.82083e-05
0.000354171
-0.00050861
0.000556671
-0.00069482
0.000138128
0.00433753
0.000181793
-0.00443139
-0.00110129
0.00122186
0.00143629
-0.000250552
-0.00075812
0.000434433
0.000323634
-0.00177737
0.000747697
0.00102543
0.000379122
0.00421957
-0.00450135
-0.00020496
-0.00440002
0.00471905
0.00350603
-0.00404647
-0.00159718
-0.000103234
0.00053719
-0.00360791
0.00308983
-0.000509938
6.75537e-05
0.000442344
-0.00264971
0.00349154
-0.000970821
-0.00569591
0.00697952
-0.00124306
-0.00130232
0.000350162
0.000948648
0.000270767
0.000296761
0.00030472
0.000336204
-0.000464958
0.00069262
-0.00076935
0.000365895
0.00180753
0.000571892
-0.00238482
-0.000487868
0.000165785
0.00032208
0.000680474
-0.000397999
-0.000282503
0.000232805
-0.000629748
-0.000142783
-0.00226716
0.00238327
0.00122107
0.00121623
-0.000924382
0.00089763
-0.000172287
0.00060586
-0.000381072
-0.000297406
-0.00107805
0.0013747
-0.00026908
0.00101786
-0.000599125
0.000154636
0.00196988
0.000870637
0.00400247
-0.00478169
0.00540525
-0.00495002
-0.000546544
0.00357868
-0.00302534
0.00684887
-0.00573594
-0.000957604
1.46763e-05
-1.46763e-05
0.000156067
-0.000666067
0.00193345
2.20798e-05
-0.00134999
0.00132224
0.0022985
-0.00207126
-0.000238301
-0.000324174
-0.000888529
0.00121151
-0.00353438
0.00399697
0.00167406
-0.00223805
-0.000497893
-1.53133e-05
0.000513207
0.000753954
-0.000278232
-0.000475707
0.000871079
0.000135847
-0.00100574
-0.000215494
-0.00156878
-0.00600472
0.000425613
-0.00221146
0.00204432
-0.000699009
-0.00536932
-0.000575183
-0.000344168
0.000919144
-0.00191812
0.0030095
-0.00079317
-0.000400188
0.000704781
0.000752645
-0.0011534
0.000400413
0.00105998
-0.000272692
9.24549e-05
0.000464202
0.00117632
-0.00131964
0.00350147
-0.000352074
-0.00342019
-0.00558887
0.00521979
0.000370933
0.00101974
-5.61227e-05
-0.000969108
0.000393654
0.00399614
0.000758499
0.000391099
0.00028936
0.000322061
0.00285706
0.00322019
-0.00228635
-0.000745784
-0.00051462
0.000368269
-0.000724993
-0.00202347
0.00138735
0.00473322
0.00143201
3.74019e-05
-0.00366822
0.000953815
-0.00406928
0.00297347
-0.000708419
0.00112194
-0.000415889
0.000768591
-0.000665785
-0.000536427
0.00226507
-0.00173822
-0.00175494
-0.00041237
-0.00604846
0.00294438
0.00319947
-0.00458033
0.000122369
0.00451692
0.000374074
0.00054676
-0.00152757
0.00147983
-0.0052634
0.00543926
-9.70504e-06
0.00274441
-0.00281206
-2.39176e-05
0.0010757
0.00093349
-0.00128334
-2.08002e-05
0.00130724
0.00200077
-0.00254675
-0.000147912
0.00046275
0.00290418
-0.000140519
0.00536347
-0.00121418
-0.000470005
0.000846139
-0.000376201
-0.00289671
-0.00307414
-5.79774e-05
0.000543682
-0.00030071
-0.000477194
-0.00310162
0.00317995
0.0055271
-0.000263906
-0.0053973
0.00130804
-0.0041359
-0.00431318
0.00169048
-0.00470714
-0.000907207
0.000535656
-0.000179598
0.000201824
0.000696874
-0.00189627
-0.00416762
0.00419667
-5.55044e-05
-0.00153212
0.00173969
-0.00153623
0.00181793
-0.000208155
0.000621562
-0.000242244
-0.00182676
0.000360931
0.00013383
0.00220006
2.16893e-05
-0.000738199
-0.000487025
-0.00343112
0.00393539
0.00456244
-0.00109646
0.00390153
-0.00237228
0.000769032
-0.00607208
0.00145348
0.00468
0.00356785
0.000172097
-0.0037636
0.00373703
1.21248e-06
0.00321958
-0.0033913
2.15945e-05
0.000334945
0.00240705
-0.00274435
-0.00308638
0.00273096
-0.000944012
0.00122405
0.00081943
-0.000635916
0.000328711
0.00063362
-0.000141714
-9.61684e-05
-0.0018598
0.00195787
0.000873335
-0.000121052
0.000534639
-3.91914e-05
0.00474318
-0.000129793
-0.00118031
-0.000469727
-0.00109448
0.00479873
-0.00404682
-0.00249558
0.00301774
-0.000431014
0.00417479
-0.00311821
-0.000985043
-0.000485345
0.00125637
-0.000772289
-0.00111434
0.00128659
0.000625167
-0.00377922
0.000218848
0.00338127
-0.000317609
-0.00231655
0.000742225
-0.00108221
0.000340428
0.000561114
0.000540021
-0.000369072
-0.00108634
0.00165643
0.00201705
0.00241429
-0.000236596
0.00154843
-0.0013129
0.000478745
-0.000244613
0.000857702
-0.000389097
-0.000554445
-0.00114594
0.00170393
-0.000119697
-0.00300115
0.00308116
0.000663326
-0.00124411
-0.000910347
0.000505584
-0.000559462
-0.00068802
0.00124287
-0.00281097
0.00387751
-0.0010501
0.00665797
-0.00232048
-0.00436631
0.00042364
-0.000636381
-0.00548251
0.00530237
0.000286444
0.000611492
-0.00109781
-0.00108926
0.000330442
0.000757987
-0.00441748
-0.000729872
0.000306713
-0.000904262
0.00202643
-0.00225627
0.0002129
0.000409094
0.000211007
-0.000620063
-0.00459999
8.23239e-05
-0.000301836
-0.000294474
0.000596297
-0.000484166
0.000925013
-0.000441727
-0.00345501
0.000285914
0.000506329
-0.000895511
0.00495457
0.000631968
-0.000354813
-0.000403379
-0.000550363
0.00330449
-0.00279182
0.00496691
-0.00463463
-0.000292324
9.17946e-06
-0.00174006
0.00546393
-0.00504234
0.000537257
0.00381101
-0.0048268
-0.00176041
0.00473348
-0.00289927
0.000420933
0.00214732
-0.00257238
0.004812
-0.00453774
0.00442633
-0.00167746
0.00101918
0.000653606
-0.00377475
0.00149509
0.00225622
0.00229272
-0.00172616
-0.00229455
0.00396104
0.00289755
-0.00464958
-0.000103406
-0.000394485
0.000759273
-0.000997375
0.000238481
0.00175026
-0.00230042
-0.00109088
5.19141e-05
-0.00314513
0.000111947
-0.00338242
0.00327244
0.000309951
-0.00235577
0.00409823
-0.000270405
-0.000424455
-0.00469933
0.000548293
0.000485278
-0.000736814
-0.000285476
-0.00018576
0.000471235
0.000426168
-0.000726806
-0.00164304
3.75151e-05
0.000508413
-3.89264e-05
-0.000372386
0.00124507
-0.00445961
0.00321515
0.0022061
-0.00220004
2.27224e-05
0.000620001
0.000663489
0.00341143
-5.93366e-06
0.00144482
-0.00185896
0.000404182
0.000138035
0.00291941
-0.00305014
3.95855e-06
-0.000502416
-3.40444e-05
-0.00106845
-0.000471702
0.000237743
-0.000140615
0.000766332
-0.000235265
0.000969464
-0.000405065
-0.00115002
-0.00341183
0.00463178
0.000790614
0.00135365
-0.00216653
0.00047981
-0.000433003
0.00312173
-0.00373521
0.00042507
-0.000912436
0.000487009
0.00490271
-0.00488276
-8.60344e-05
-0.000206337
0.000257491
1.07457e-05
-0.00458783
-0.000897431
-0.000747414
0.00118271
-0.000435535
2.78101e-05
0.000609139
0.00270289
-0.000207864
-0.00391001
0.00119295
-0.000433803
0.00176908
0.000300203
-0.00132475
0.000382057
-0.000683917
-0.00034425
0.00188039
0.00106341
-0.00117431
0.000548359
-0.00116339
-0.000288674
0.000481561
0.000117086
-0.000572582
-0.0020682
0.00331751
-3.87739e-05
-0.00394509
0.00402462
0.000612865
-0.00156253
0.00409301
0.00017665
-0.00396893
-0.000881947
-0.000412119
0.00620781
-0.00321544
0.00048802
0.00294011
-0.00342775
-0.00063431
-0.00152094
0.00213395
-0.0010234
0.000989444
3.32771e-05
0.000435797
0.000759291
-0.00119617
-0.00462192
0.000328242
0.000241469
-0.000614178
0.00108071
-0.000520158
0.000277235
-0.00451741
0.00421383
-0.00423871
0.000180209
-0.000460174
0.0029293
0.00343916
0.00078898
0.000683115
0.000397221
-0.00271418
0.00292531
-0.000458724
0.000883442
-0.00117295
9.45616e-05
0.0010769
-0.00129548
-0.000326029
0.00162017
0.00188242
-0.00165552
-0.000231499
-0.000179225
-0.000335409
0.00282352
-4.8334e-05
-0.000391328
0.00101006
0.000554612
-0.000344004
-0.000210632
0.000604399
0.000364643
0.000537595
5.08661e-06
-0.000542842
-0.000350077
-0.000740039
0.00105774
-0.00400552
0.00193438
0.000501018
-7.57048e-05
-0.0025341
0.00187292
0.000590597
-0.000157033
0.000761135
0.000558752
-9.22334e-05
0.000401295
-0.00153162
-0.000115871
-0.00112061
0.00104315
7.4679e-05
0.00089434
0.000579483
-0.00147142
-0.000198464
0.000469249
0.000390055
-0.000679335
0.000289254
0.00110392
-0.00264557
-0.00116175
3.67138e-05
-0.000200009
-0.00181876
-0.000908791
0.00026254
0.000646111
-0.00222659
-0.00436864
0.00329481
0.00056102
0.00305454
0.00449321
-0.000588081
-0.00394298
5.82153e-05
-0.00159274
0.000426566
-0.000673509
-0.000890666
0.000422423
-0.000554924
0.000190222
0.000364696
0.00285016
-0.00266673
-0.00167205
0.00188516
-0.000225771
0.000634922
-0.000480088
0.000849144
-0.000368962
-0.00328696
0.00322682
-8.37134e-06
0.00150188
-1.04291e-05
-0.00149917
-0.00175003
0.00255069
-0.00049182
3.95298e-06
0.000827176
-0.00154035
-0.00306614
0.000828538
0.000322851
0.000422604
-0.000892722
-0.000140565
0.00053059
-0.000808359
-6.58731e-05
-0.00208356
-0.000836734
0.000416829
0.000419713
-0.000412874
-0.00205991
-0.000981971
0.000275406
0.00184947
-0.00108069
-0.00120394
0.000878421
0.0005484
0.00162983
-0.00218273
0.000212524
0.00460406
-0.00332742
-0.00127963
0.000119843
-0.00431244
0.00175708
-0.000375806
-0.00138287
6.46189e-05
0.000379684
0.00098249
0.000771892
-0.00128836
0.000848222
0.000438469
-0.000234312
0.00102179
-0.000788634
5.54347e-05
2.11691e-05
-4.82584e-05
0.000187203
0.00154636
-0.00159677
0.00448857
-0.000758518
-0.00374968
-0.0044269
0.000219464
0.00419178
0.000619389
0.000243578
0.00363619
0.0020571
-0.00129565
0.00012032
-0.00124976
0.000763282
6.10279e-05
-0.000278765
6.7191e-05
-0.0011314
0.000787005
3.84387e-05
0.00453462
-0.00430299
0.000370027
0.000184568
-5.76539e-05
0.00191314
-0.00188343
-0.00125292
0.00126994
-1.7105e-05
0.000156495
-0.00104373
0.0005588
-0.00673061
0.0019872
0.00479681
0.00499409
-0.00347376
0.000221752
-0.00138666
0.00196043
-0.00425243
-0.000190092
0.00178518
-0.00156339
-0.000231676
-0.000167162
-0.000572379
0.000739839
-0.00177021
0.00399294
0.00142157
-0.0009672
0.000669697
0.000297726
0.002147
0.000604773
0.000323115
-0.000341132
-0.00062575
-0.00012164
0.00368929
-0.00154698
0.00140999
0.00227973
-0.00304844
0.00221516
-0.0048667
0.000334634
-0.000860139
-1.07931e-05
0.000871185
-0.000368946
0.000368345
-0.000630225
0.000261868
0.00325753
-0.00373059
-0.000102986
0.00399507
-0.00510284
0.000459901
0.00457108
-0.00411049
0.000778187
0.00329298
-0.00274766
-0.00105209
0.00250611
-0.00199492
-0.00035614
-0.000288091
0.00064432
0.0020149
-0.00210238
0.00258982
-0.000383585
-0.000527183
0.00216582
-0.00150558
0.000208132
-0.00396117
-0.000295397
-0.000551503
0.000241011
0.000310492
-0.000204855
-0.00298561
-8.93415e-05
-0.00193993
0.00238087
0.000630439
-0.000865708
0.000451098
-0.000392824
0.00138311
0.00418612
0.000149103
0.00509098
-0.000368151
-0.00233934
-0.00436451
0.00226402
-0.000960338
-3.81965e-05
0.00099784
-5.53508e-05
-0.00305103
0.00308897
-0.000704162
0.00131167
0.000147529
-0.0035105
-0.00415851
0.000214397
0.00113444
-0.000699538
0.000524038
0.000138602
-0.000662671
0.00137534
-0.0012225
-0.00015592
-0.000903972
-0.00583512
0.00347726
-0.00422164
0.0008034
-0.000860277
0.00132103
-0.000464663
0.00185277
-0.00103401
-0.00026572
0.00129719
-0.00100319
0.00547202
-0.00441398
0.00019708
0.00469842
0.000448711
-0.000545908
-0.000244533
0.000344537
0.00141861
-4.56641e-05
0.000177414
-0.00118196
0.00100479
-0.00045825
9.00808e-05
-0.000819697
-0.00217549
0.00299996
-0.000409838
-0.000119306
0.000529111
-0.000502606
0.00138429
1.35686e-05
0.000443477
-0.00061579
-0.000761298
0.0016573
0.000996454
-0.000125502
-0.00125162
0.00146117
0.00413929
-0.00390264
-4.9054e-05
0.000573053
-0.000741612
-0.000223901
0.00456315
-0.000205887
-0.00434537
0.00305435
-0.00386689
0.00163568
-0.00185935
0.00021689
0.000483715
-0.000448388
-3.53275e-05
0.000124591
-0.0032374
-0.00450927
0.00443595
-0.00266986
0.00468043
0.00520802
0.00444205
0.00227045
0.00231729
-8.75493e-05
0.000625012
0.0018114
-0.000182625
0.00278553
-0.00245052
0.00527309
-0.00503908
-7.9955e-05
0.00043103
-0.000621608
0.00121904
-0.00343911
0.00271515
-0.00131395
1.63534e-08
-0.00489668
-0.000247242
-0.00112961
0.00338283
-0.00228934
0.000490131
-0.000548107
0.000722962
0.000422687
-0.00114511
-0.00362833
-0.000562427
-0.00018659
0.000130748
0.0018063
-0.00162178
0.00216675
-0.000847192
0.000423916
0.000422957
0.000570121
-0.000142071
-0.000428045
0.00543015
-0.000742994
-0.00470672
0.00245946
0.000381263
-0.000575407
0.000194215
-0.00111703
0.00143233
0.00238842
-0.00212698
0.0014416
-0.00139239
0.000508999
-0.000118357
5.48044e-07
0.000106171
-0.00128112
0.00126564
0.000120964
0.000119699
0.000634259
-0.000181753
-0.00155784
-6.52865e-05
-0.000346045
0.000961953
-0.000110269
-0.00376417
0.0021
-0.00182931
-0.000275144
-0.0001695
-0.00424899
-0.00206598
0.00221929
0.00111581
-0.00141425
0.000428664
0.000387172
-0.000815701
0.0028895
0.00307809
-0.000663386
-0.00532496
-0.000209298
0.000265502
-0.00516024
0.000568149
-0.00246319
-0.000353569
0.00281678
0.00394892
-0.0039347
2.18471e-06
0.00155065
0.00317184
0.001003
-0.00189499
0.000876022
0.00117907
-0.000306946
0.000116663
-0.00171914
0.00119871
0.000578143
0.00269165
0.00350225
-0.000500506
0.000298761
0.000201743
-0.000505143
-0.00084031
0.00133795
-0.0043508
-0.000396446
-0.00155854
0.000682174
0.000877286
-0.000236187
0.000487053
-0.00075817
0.00427036
-5.54352e-05
-0.000254593
-0.00430957
0.00453186
-0.000878858
0.0011806
-0.000303691
0.00156787
-0.000585236
0.000415752
0.00399189
0.00202532
0.000520574
-0.00258632
0.00556814
-0.00419266
-0.00120811
0.00259895
0.000832827
-0.000373055
-0.000472133
-0.000610017
0.00108138
-0.00400471
0.00154791
-0.000767744
0.000853082
0.00639403
-0.00611014
-0.000252023
6.64578e-05
-0.00115883
0.00109097
0.00523231
0.000375887
-0.00548968
-0.00299681
0.00033441
-0.000240499
-0.00397632
0.00420935
-0.000107117
-0.00263619
3.87764e-05
0.000703878
-0.000555539
0.000270062
0.0017543
-0.00169738
-0.000950206
-0.000609191
-0.00209202
0.000139592
-0.00479815
-0.000562075
0.000382827
9.54248e-05
-0.000213437
-0.00157786
0.00176975
0.00340363
0.000775808
-0.00417706
0.0047307
0.000374122
-0.000555378
0.000181255
0.00428018
-0.00456544
0.000249532
0.0047051
-0.000177692
0.0027003
-0.00027799
-0.00243549
0.00174825
0.00249388
-0.00422905
-0.000214143
-0.000200814
0.0004653
0.00366482
-0.000411642
-0.00050131
-0.00066214
0.000252251
0.000547343
-0.000137783
-0.000105227
0.000864926
-0.000237589
-0.00026292
-0.000162403
-0.000842882
0.0012276
-0.000385906
0.00067768
-0.000326413
9.97225e-05
-0.00011912
5.08699e-06
-0.00312269
0.00131278
-0.00519041
0.00380926
-0.000462933
-0.000742213
0.000353771
-0.00467515
-0.000272142
-0.000358113
0.00128475
-0.00152269
0.00122415
-0.000157705
-0.00106961
0.00407101
-0.00347302
-0.000599756
-0.000411712
0.000849769
-0.000438348
-0.000369076
0.00045803
-8.89573e-05
0.000173697
-0.000587648
0.000413947
0.00163899
-0.00195242
0.000303756
-0.00214821
0.00198868
0.00014706
-0.0004639
0.00188419
-0.000299618
-0.000423211
0.0050054
-0.000678776
-0.0043311
-0.000141746
0.000570945
-0.00042913
0.000460009
0.000662262
0.000933874
8.57269e-05
-0.00102057
-3.94355e-05
-0.000594787
0.000634013
0.000591367
-0.000838978
-0.00306081
0.000635699
0.00341936
-0.00276343
-0.000682247
-0.000246915
0.00465851
0.000535755
-0.00222634
0.00167023
-0.000296883
-0.000322063
-0.000347344
-0.000260787
0.00153643
0.0037073
-0.00529039
-0.000461069
1.38366e-05
0.000447241
-0.00041933
-0.00305216
0.00122931
-0.000395432
0.000824346
0.000680643
-0.000847462
-0.00030304
0.000983956
-0.00429106
0.00419076
0.00159143
0.00208745
0.000291317
-0.00240396
-0.00330839
0.00339611
0.00105712
-0.000265542
-0.000164612
0.0023005
-0.00198874
0.000461474
0.000238294
-0.000699876
-0.00161715
0.000264402
0.00197413
9.84995e-05
-0.00428629
0.00135088
-0.000985541
-0.000367468
1.90816e-05
0.000794537
-0.00125872
-3.068e-06
0.00261241
-0.00263777
-0.000666003
0.000325443
0.00051731
-0.00077573
0.000258254
0.00041447
-0.000973632
0.000558742
-0.00183906
-0.000455507
-4.16459e-05
0.000566801
-0.00282716
0.00279342
-0.000420526
1.69169e-05
0.00483026
-0.00405545
-0.000433077
-0.0011898
0.000152743
-0.00187969
0.0025533
-0.00405182
0.00430574
0.000146389
0.00225089
-0.00241579
0.000404171
-0.000546243
-0.00245301
0.00212951
0.000289573
0.000382143
-0.00396177
0.00360666
0.000240724
-0.000720779
-0.0059631
0.00585678
-0.000262746
6.36492e-05
0.00404398
-0.000214123
-0.00384363
-0.00103572
-0.00213084
0.00314975
-0.000419073
0.000420479
-1.40524e-06
0.00116024
0.000118153
-0.000468932
7.86432e-06
0.000931774
-0.000245203
-0.00018862
-0.00398619
0.000329359
0.00223305
-0.000307006
-0.00193966
-1.9325e-05
-0.000304164
0.00513507
-0.00458348
0.00441566
0.000443686
-0.004902
0.000376182
0.000324286
-0.00070061
-0.00190082
0.00019771
-0.00265249
0.00258214
0.00169711
-0.00133062
0.00108385
-0.000338039
-0.000571022
-0.00483438
0.00354653
0.000641627
-0.0012212
-0.00528104
0.00474322
-0.00328838
0.000627104
-0.000702967
7.58704e-05
-0.00119977
3.24331e-05
0.00116543
0.00128083
-0.00295124
0.00354674
0.00434436
-0.00431396
-4.25182e-05
0.000402967
-0.000550881
0.000279363
0.000559181
-0.000838554
-0.000661294
-0.000470391
-0.000269755
0.000435539
0.00541444
6.29447e-05
0.000801312
0.00362982
0.00112792
0.00396571
3.04421e-05
0.000418268
0.000212144
-0.00227367
-0.000885999
-0.000415731
0.00130092
-0.000181145
0.00237965
0.000860701
-0.0040602
0.00321393
0.00341958
-0.000891848
0.00126947
1.88155e-05
-0.00137115
-0.00366417
-0.00104609
0.00111121
-0.000918072
-0.00502539
0.000412956
-0.00028959
0.00117529
0.000344837
0.00274226
0.00280822
0.00279194
0.000763733
-0.000627087
0.000284546
0.000262793
-0.000285902
-0.00182155
-0.00054812
0.000240415
0.000307701
-0.00487906
-0.000437277
0.00544936
-0.00180836
0.000275299
0.00271414
-0.0028693
-0.000637389
-0.000345348
-0.000629085
0.00524276
0.000368589
0.00155229
0.000127612
-0.0016897
0.00124121
0.000235549
0.00128833
-0.00152632
0.000841243
-0.00139117
0.000827379
-0.000430305
0.000895797
0.000820807
-0.000706529
-0.000114358
0.000796993
-0.00359495
6.38013e-05
-0.000817295
0.000753399
0.000491456
-0.000527516
0.00282967
-0.00255612
-0.000283361
-0.000249788
-0.000625813
-0.00108925
-0.000201394
-0.0042156
0.00491983
-0.000663303
-0.00253084
0.00234262
0.0016415
-9.0056e-05
0.000604932
-0.00525994
0.0018706
0.00492566
0.00309805
0.0029378
-0.00282444
-0.000381218
-0.00398311
0.00428758
-0.00481721
0.00375807
0.00108071
-0.00429927
-0.000646366
0.000290308
-0.000415529
0.00241182
-0.00280277
-4.76186e-05
0.00281326
-0.000963586
-0.00567847
0.00108098
0.00456314
-0.00465198
0.00450084
0.000110814
0.0016181
0.000135499
-0.0017591
0.000553466
-0.000949712
0.000395791
0.000119895
-0.000979799
-0.00132014
3.73854e-05
-0.00112049
0.00122536
-0.000914863
0.000414759
-0.000635904
0.00022108
0.00134383
0.000744891
-0.00209175
-0.000330607
-0.000233621
0.000564225
0.00150018
-0.000733644
-0.000768406
0.000215236
0.00247579
-0.000564157
0.00272329
-0.00306189
0.00031984
0.00031336
0.000329695
-0.000643095
0.00052029
-0.000146159
0.00145104
-0.00043614
-0.000613969
-0.00533456
0.000434179
0.0033881
-0.00356143
0.000151593
0.00175853
-0.00269165
-0.000310069
0.000471235
-0.000161168
0.000348417
0.00202495
-0.0023924
-0.00392185
-0.00024628
0.000151523
0.000730737
-0.000349405
0.00109214
-0.000672437
-0.00041963
-0.00294426
0.000104992
0.00163435
-0.000900725
0.00107828
-0.000416666
0.00171858
-0.00131086
0.00244448
0.000375733
0.000452599
-0.000594278
0.000352455
-0.00101406
-0.00130884
0.00423578
-0.00294247
-0.000924185
0.000621547
0.000977549
6.28905e-05
0.00145259
-0.000495971
-0.000955001
0.000258599
0.000562068
-0.000435926
0.00329907
-0.000108826
-2.00479e-05
0.00431311
-0.000594565
0.00129265
-0.000916116
0.000625425
-0.000448709
-0.000176716
-0.00212551
0.000996832
-0.000188302
0.000442845
6.22875e-05