/*--------------------------------*- C++ -*----------------------------------*\
| =========                 |                                                 |
| \\      /  F ield         | OpenFOAM: The Open Source CFD Toolbox           |
|  \\    /   O peration     | Version:  v2012                                 |
|   \\  /    A nd           | Website:  www.openfoam.com                      |
|    \\/     M anipulation  |                                                 |
\*---------------------------------------------------------------------------*/
FoamFile
{
    version     2.0;
    format      ascii;
    class       volScalarField;
    location    "600";
    object      omega;
}
// * * * * * * * * * * * * * * * * * * * * * * * * * * * * * * * * * * * * * //

dimensions      [0 0 -1 0 0 0 0];


internalField   nonuniform List<scalar> 
9793
(
0.0224666
15.4005
0.021934
2.51128
0.0222597
0.278872
0.0918458
5.53523
0.0222448
22.2145
0.0221974
0.0221882
0.0219153
2.00086
0.0218167
0.0274444
0.0608508
0.0219278
1.75122
0.0215662
0.0216361
0.0222916
2.57474
5.52962
2.16671
0.0270697
0.0221015
0.022262
0.0215765
0.0939778
8.41959
0.834677
0.022011
0.021941
0.0218705
0.0308391
0.0250391
0.0251558
1.26506
0.0333643
0.0790678
9.28723
3.42792
0.0222717
0.0219627
0.022043
7.33963
0.0222843
0.0217197
0.0219346
0.0304437
0.0218522
0.0424175
0.0222686
0.0340058
2.11002
0.021925
0.117018
0.0217283
0.0222914
0.0273725
0.102747
0.0219486
0.0401572
0.0219642
0.0221612
28.5088
0.0248543
0.0255645
2.13721
0.0219976
0.10499
5.59261
4.27972
3.11679
0.0222624
0.0472923
9.21808
0.0219809
0.0222705
0.0518065
1.65573
0.0591135
0.0243823
0.0256459
0.30232
0.0222611
0.0849368
1.27508
0.0983352
1.82579
4.23291
3.91387
0.0444561
2.94741
0.021901
3.56893
0.0563553
0.0254748
0.0222685
1.40707
0.0399309
2.63373
0.0219676
2.54435
8.3133
3.21113
0.0218777
0.0219851
0.0222834
0.0222337
2.14712
3.16922
8.09478
0.021972
0.0221147
0.0244646
0.0220512
1.78006
0.0220288
2.12092
0.092166
5.36979
0.0488218
0.0250862
0.0220345
0.0702307
6.58577
0.241102
0.2442
0.0242903
0.0218068
0.0223567
0.0238171
0.0292188
0.188432
2.64918
0.0245376
0.0222736
0.0717856
1.64772
0.0296026
0.0219588
0.0683159
8.1521
0.674398
0.0220352
3.34911
0.0218045
0.0220292
0.022072
10.8454
0.0249064
0.0220943
0.0219261
3.4481
0.0656968
0.0219429
1.85024
0.0219245
0.0796577
0.0244354
0.0216435
0.360053
0.0221294
9.78609
2.21213
0.0223627
0.0218791
0.0222177
0.021976
6.31998
23.8442
1.50247
0.0219086
0.254048
0.150316
0.774047
0.0219652
0.0247776
2.96675
8.59845
0.100434
0.0220358
0.022074
0.0218724
6.19108
5.49831
22.6421
2.80751
0.0220729
17.3935
0.443368
0.025708
0.0217539
0.0235882
2.0106
0.0216026
0.0219249
0.0222046
0.0220224
0.0216352
0.0320624
0.0259897
1.55118
0.0219367
0.0300134
0.022358
0.0224426
0.518174
0.0678008
1.68784
0.021639
1.78972
0.0243922
0.0487109
0.021832
0.184272
0.0221234
0.051573
0.0609007
0.021639
1.45011
1.64487
0.0422784
0.0218888
0.0610188
1.75148
0.0508327
0.0518366
1.44341
0.177499
0.045842
0.0411409
0.380462
0.021596
5.46957
6.94765
0.0216082
0.0222227
9.238
0.0219095
0.0222314
0.146157
0.164206
0.0221521
0.0248137
0.0314848
0.0397886
0.0249033
0.0219716
0.0472402
2.85602
0.0216365
1.55307
0.022262
0.0221713
0.0216646
2.02089
0.0219796
6.43819
1.76718
0.0221046
0.0221331
8.60036
0.0218574
0.0222398
0.0218208
1.60582
0.283139
0.0253386
0.477108
0.108597
2.36617
3.91897
0.0223997
25.0442
0.0222643
1.76238
7.35337
1.34409
2.16993
0.172651
0.0243081
0.0536477
0.0255179
0.0217824
0.0224525
0.502866
0.0272412
0.0221415
0.0222838
0.0216368
0.0216992
0.0216402
2.54171
0.021868
0.0218061
0.0219171
0.0219178
5.22517
0.652183
0.0653425
0.0230091
0.0689214
0.0220407
1.14735
7.90504
0.0219731
2.14289
0.0376143
0.0219569
23.9749
1.96352
0.0220193
0.0496867
13.4867
0.0222072
0.034447
0.0218064
0.0223041
1.87198
0.0425005
0.0219505
0.0220221
0.0228641
0.19265
3.24831
0.0219384
0.0218715
0.0217652
6.99917
4.82129
5.5968
0.0215929
0.0451458
0.0352539
2.16183
0.0847119
0.0215874
0.0216436
0.021766
0.0519453
0.0221446
5.41101
0.02209
0.0217848
2.35609
2.48139
1.56351
0.0217793
1.37871
0.0252533
3.99634
5.40225
1.51565
0.0240108
0.0342257
3.3218
1.7233
2.05197
0.0267163
0.0222634
0.02574
0.021686
0.0218525
0.0221164
0.0220837
0.022292
5.78448
0.0222071
0.0702421
0.0330732
7.35013
0.0215825
0.024493
5.24652
0.499288
2.00004
0.0817535
0.021787
0.0241102
0.0219376
0.545222
0.0215726
1.51788
0.174038
0.0921346
5.14732
1.86152
0.0221384
0.0218877
4.62605
0.467599
0.0219354
5.13485
0.0221325
0.0221768
6.37982
0.0216374
0.119764
0.0216068
2.02166
0.0220955
0.02214
2.25141
0.0980415
0.0624458
0.0257019
0.0220761
0.0218445
4.71243
0.0560849
0.0215787
0.0221953
0.0353082
0.0351513
0.0615483
9.6835
0.0221965
0.0219373
0.399264
0.0220826
2.42929
0.745725
0.0220657
0.0220161
0.0224199
0.0221176
0.0217486
1.4065
0.0520536
10.9554
0.0292102
0.0235093
0.0490972
0.0248618
1.65347
0.0265993
0.0222677
0.0248745
0.576646
0.0219618
0.0219289
0.0219972
0.0215754
0.0219852
0.0218281
0.0220448
0.0221584
0.0230847
0.0254547
0.144859
0.0220007
1.50857
0.0260477
0.233857
5.05355
0.0217932
2.60163
0.0904279
0.0217667
0.0215758
0.0219711
2.76279
0.110678
0.0215725
0.022122
0.022198
0.0685034
0.167911
8.83874
0.0219776
0.0219279
0.0321977
7.52731
1.33382
0.023926
0.023571
1.59389
9.75323
0.450436
0.0222606
0.0217958
1.43741
0.0219057
0.148431
7.62694
0.021567
0.243101
0.0285392
1.4137
0.0218433
1.58879
0.474799
0.0268315
8.6504
0.0219039
1.94368
0.0220963
0.021884
0.0222234
0.0219422
2.51373
0.0218961
0.021714
0.0229693
0.0216027
0.0217966
0.0494538
0.0230149
0.0392939
0.0220352
0.0220396
4.16331
0.0765952
0.023872
1.53855
0.0249241
0.0222935
0.0219841
0.021747
6.49723
0.0217025
0.0220698
8.41039
9.42468
0.040644
0.0219233
0.0222841
0.0222146
0.0222411
1.55419
0.0222611
3.37735
0.0246566
1.90331
0.022262
19.6584
0.0222891
0.256244
0.021912
0.105339
4.28458
0.0221049
8.51122
0.0219023
0.0222182
0.0216256
4.03448
1.61983
0.0219776
0.02963
0.0216952
1.60716
0.0218709
0.0480909
1.47116
0.0254541
0.0220274
0.0472841
0.0222451
0.0222705
0.0217853
0.133657
0.0219569
1.70545
0.0220532
0.0221673
0.0456171
0.0798574
5.86801
0.0217919
17.4889
0.0218826
0.223493
0.0219196
0.0222971
0.0219011
0.0220511
0.0222681
0.242866
0.0464287
8.32887
0.134801
0.0360355
0.0352799
5.06323
0.0241868
1.54388
3.5641
0.296156
12.6838
7.6872
0.198925
0.0222788
3.32139
0.0451826
0.02219
0.407124
0.022251
0.498353
0.0373451
0.313095
0.027891
2.1981
9.39078
0.0424977
0.285253
0.0222165
0.68602
0.0229495
0.021915
0.0221213
0.0235431
0.0513641
1.3779
0.307345
8.49517
0.0238215
0.0237101
1.42829
0.362255
0.0232878
0.0741239
0.0224702
4.74441
2.41226
0.0220597
0.0655216
0.262904
9.68625
0.0219591
0.0262429
5.68397
0.0310325
6.93779
0.110416
7.2519
0.0262333
0.0243311
0.0219724
0.0219247
0.338204
0.0222842
0.391686
0.167526
0.0887901
0.0222596
0.022224
0.023773
0.0220769
0.0218338
0.0219112
0.122363
2.9778
2.26181
0.0222796
0.401928
0.0219493
4.04978
0.0553285
0.0478901
0.0346418
0.388905
0.0217493
0.0220625
0.0443869
0.0219052
0.0221524
0.0713333
1.6345
0.0216344
0.32868
1.31514
0.0251956
1.80048
1.32167
0.0218479
0.0618385
0.0283728
0.022065
0.0216226
0.106278
1.33589
6.16496
0.0219816
0.0220165
0.0216724
0.0248436
0.0230517
0.0241747
0.5792
0.0548319
0.0221523
9.70173
0.0321583
0.0342882
0.022101
20.5133
0.0240824
0.0219189
0.0920246
2.11592
0.0215829
0.0220508
0.0219441
0.0261258
0.021745
0.0435953
2.55203
0.0222759
0.132729
0.0230589
0.0220418
6.23489
2.427
0.752603
0.0220773
0.0215958
5.94124
0.0261619
2.56956
0.0215608
0.0219049
7.34281
3.15686
0.0321296
0.130671
0.0643034
0.0218858
0.0222717
0.0220103
2.52538
0.0220579
0.0222928
1.61233
0.02773
0.391105
0.033299
0.0219345
2.2185
0.022268
0.0219124
0.0219974
0.0314235
3.22607
0.0221634
0.0219731
0.0219032
0.0218922
0.0219406
0.0219885
12.9064
0.0324254
0.0229823
0.022112
0.0324917
0.0707729
0.0272837
0.0287919
0.0222839
0.0216656
0.0236614
2.00409
2.31638
0.0232992
6.73539
0.0222157
0.0257546
1.95989
2.12946
0.021805
0.0221814
0.354848
0.0608903
0.0219079
0.0222487
1.71535
0.0222682
0.0786382
0.022011
0.607849
0.0222476
0.0223142
0.0221284
0.0325031
0.0220243
0.0248505
0.0263266
0.168624
0.0218626
0.0219966
0.0222498
0.021879
0.0222278
0.0219722
0.0333484
0.0221128
0.0628344
2.15997
0.0477233
0.0748671
0.0222025
0.0217847
7.16387
4.88557
0.0216128
1.77459
8.01061
0.021602
0.0219688
0.0218752
0.108612
0.0654245
2.31779
0.0218562
0.0258328
0.0218594
0.0223584
0.0223015
0.0939521
0.0221987
0.313123
0.0220956
0.0607615
0.0218931
0.0233393
0.021915
0.0429761
0.0610379
7.21562
3.92495
1.73123
0.0559346
0.0219063
2.89059
3.64621
0.0758178
0.0220924
0.0220872
2.01554
0.0218682
3.00092
0.0216098
0.031899
0.0222799
0.0222698
0.0218132
8.91771
2.26002
2.73655
0.0739605
5.74884
0.0219476
2.24485
8.04657
0.0222705
0.0221472
0.0217303
6.61223
0.0215624
5.60696
0.0330326
0.187747
0.0223897
1.40442
14.9777
1.73948
0.0302926
0.0350377
0.0220416
15.4739
0.0215412
0.62161
0.311671
0.0724825
8.52883
2.29318
0.0243972
0.023753
0.0219499
0.112307
5.66375
5.27627
0.0217445
3.94609
0.0266451
0.163339
0.125838
1.65035
1.75361
0.0216362
0.0264317
0.0336021
0.0246315
0.0240253
2.42437
0.0221977
8.97831
0.0217979
0.0216167
0.0885901
0.146122
6.40345
0.0227919
22.623
14.2499
1.11787
0.0271026
0.022233
0.0227963
0.022227
0.0219194
1.26874
1.95215
0.0222748
0.0219209
0.0354307
1.67719
0.0267443
0.0219291
0.444916
0.0219357
0.0222749
0.0215507
0.0735356
0.02203
0.025641
4.10173
0.0701988
0.0223485
4.30281
0.133207
0.0219308
0.023073
0.0373839
0.0222624
0.0219645
0.0217685
11.0608
0.540401
0.0223113
0.0394604
0.0367491
0.689282
0.0219581
2.38273
0.0218612
0.0217521
0.675872
0.460366
0.0792406
0.022086
0.0218915
9.75591
1.37717
0.336633
2.80614
0.022105
0.0237843
0.0220151
9.04555
0.0245523
3.94252
0.022806
0.0219846
0.0237385
0.0216822
0.0218755
0.0676056
0.0217822
2.40117
0.0218216
0.0222468
0.0215695
0.0255699
1.97248
2.64658
0.0632325
6.03012
0.0219804
0.0373873
0.0235607
7.63395
0.0218105
0.0216277
2.87098
0.0356848
0.0335234
0.0221138
0.360127
9.13722
1.51017
0.0222026
0.0351432
0.930659
0.0347052
1.99732
0.155729
0.0907314
0.0217884
0.0226549
0.0752904
0.0817223
0.021988
0.117383
0.0217379
0.022184
0.0223655
0.0217845
0.0219084
0.0219913
0.774179
0.0266287
0.023206
0.0491703
0.0217549
0.0219283
0.0405459
1.84915
0.0864626
0.0686958
2.50773
0.022234
6.1792
0.0302347
5.17464
0.0651929
0.0222023
0.0221443
0.0238611
5.97931
1.76392
0.0547349
0.170878
0.0216618
0.0219266
0.0222481
0.0222017
8.20892
0.0267044
0.0220099
0.206808
0.296414
5.31321
0.0229556
2.6807
0.0569728
0.0459991
0.0357648
0.438025
0.282429
0.0223619
1.75533
0.590838
0.0394914
1.43726
0.0527204
0.0222934
0.0222638
0.0219142
0.0233562
0.0275011
15.3147
0.060353
0.0218718
0.536513
0.0220049
4.16282
3.37783
0.0219557
24.5759
0.0218152
0.0217725
0.0220268
1.88308
13.6477
0.0581893
0.0317715
0.0217112
0.781934
0.0222313
0.0323928
0.0220929
0.0221825
0.0219512
4.82777
0.0229666
0.0428407
0.0299282
0.0222117
0.381786
0.156932
0.0386043
0.0259239
0.024241
1.39888
2.27159
0.0218709
0.0217823
0.0218675
0.0227445
11.9211
11.0394
0.2593
0.0261928
0.0217875
7.51844
5.87765
0.0223083
20.5913
0.0217152
0.101326
9.63938
0.0217454
12.4025
5.63771
0.147578
6.75073
5.32959
0.0218588
0.0228206
2.43265
1.34936
0.0226822
5.21162
0.0257139
0.0219076
0.0222738
0.0234181
0.0457086
0.0261312
0.322554
6.91125
0.238799
0.0349286
0.0220795
0.0657435
2.21314
0.0217752
3.52894
0.0519416
0.0222201
0.0251085
0.0222416
0.0222677
0.0321278
2.27227
0.0225605
0.0217906
5.03923
1.51389
0.0877588
0.0222613
0.0630591
0.0219282
0.0219324
3.54034
10.3472
0.0219218
0.0214941
2.00884
4.36355
0.0527465
0.0223286
8.2033
0.0228563
0.0219274
0.0237821
0.0219329
0.0216553
0.0216259
8.49228
0.259894
0.026532
1.63815
0.0532417
1.37149
6.65861
1.36225
0.215326
0.0219471
0.0222388
0.0224054
0.0219936
0.0788249
0.0218806
0.112211
0.0314876
6.55198
0.0220478
1.57739
0.0367501
4.96847
0.021926
1.73136
0.0328168
0.238138
0.385246
0.032586
0.0216228
6.79971
0.0654196
2.78259
0.02161
5.08269
0.0220268
5.7271
0.567517
0.0444868
0.0219207
0.0220893
1.49374
11.9506
0.0354978
0.0215624
2.7526
0.0936271
0.0516727
3.67651
0.0836972
0.0219503
3.92557
0.0219176
0.0373825
0.0216186
10.4386
0.0216267
0.0235151
0.645601
3.52327
0.0222221
0.0773705
0.0248765
0.0826282
0.021879
0.397481
0.0235462
0.0673989
0.0219621
0.0219864
1.84834
0.0309267
5.7903
4.9485
5.54152
0.0228407
0.0216457
0.0217803
0.0267218
0.0417211
0.0344446
5.20027
0.0239333
0.545097
0.0436001
0.022281
0.0219976
0.0865032
1.29671
9.80865
0.0219098
1.54039
0.0218625
4.51659
1.48628
0.0551965
0.0219964
0.0217476
0.0470373
4.28946
0.0248968
0.0222686
0.0238084
0.051461
0.022913
1.55861
1.71346
3.93588
0.0221573
0.027627
8.46632
0.0221877
0.063141
0.0218365
1.02767
0.037848
0.0219495
0.0450169
0.193077
0.0219233
1.89128
0.0219144
0.184279
0.277176
1.6211
0.356514
0.0221677
0.0222599
19.6237
0.0222363
0.0416225
0.105811
0.0239468
0.0215316
8.92179
0.0250576
0.419628
0.0232897
0.0696021
0.0226927
0.414343
0.0256205
0.0253954
2.18244
1.20208
0.0220915
0.022273
0.178829
1.42117
1.90567
0.807223
0.0318345
0.0219274
0.0218115
1.35056
0.0221397
5.06762
0.111316
1.95103
0.0221073
0.0217217
0.0217939
0.0477937
0.0528249
3.71649
1.51795
1.67664
0.358306
0.0216083
2.43149
0.0233045
0.0777548
0.0230612
0.0443252
0.0618322
0.0219264
0.0215789
0.079825
0.0216414
0.0418342
0.0718397
3.04521
3.38344
0.0429262
1.30858
0.0217596
0.0216392
0.0220752
0.205643
0.0643344
0.0512998
0.130214
9.17416
0.0408894
0.16847
0.0218423
0.0221855
11.4032
0.0219536
0.299067
0.0214718
0.0218666
2.36466
0.347296
0.0218792
0.0943679
0.528259
2.32864
1.94475
0.0258053
0.082389
0.0592565
9.59447
0.0221377
4.28452
5.08557
0.0238524
0.0265594
0.0216165
0.538052
0.0217259
0.0219842
1.87513
0.0223439
0.021569
0.249865
0.072253
1.41546
1.45783
3.33493
1.9781
0.0216097
0.0219101
0.0218825
0.0222057
8.87857
0.0221633
1.68766
0.0232824
6.10008
0.0246824
0.0221692
0.0216829
0.0222876
0.0311982
0.0220838
0.0215215
0.863466
0.0218232
0.0623149
0.022586
7.71005
0.0246806
0.0220792
0.02192
0.0622533
0.021906
0.0217612
0.0220908
0.022215
0.0244678
0.0218666
0.0237524
0.0320675
3.823
4.97597
7.04968
2.29433
0.0217702
0.0220059
0.0219277
0.0214338
0.0219315
0.0217383
0.226038
0.021863
0.0222518
0.0220698
0.0220434
0.0219989
5.39047
0.0241409
0.0219709
15.8364
0.051186
0.0217122
5.73988
8.00648
0.0220207
0.51119
0.736571
0.0221212
0.0469341
0.0241519
0.0215626
0.0282388
0.0220947
0.045891
0.0220135
0.0222474
0.0217497
24.5275
0.0299197
0.0470759
0.0220333
0.0222653
6.63827
0.0260698
0.0220372
0.0243298
0.0247966
0.0222519
0.248062
9.75426
2.47189
1.91867
0.232201
0.0386758
0.0222597
12.5379
0.194358
0.02298
0.0708587
0.0222931
0.0218988
0.0222464
2.23388
0.0482899
0.0219988
0.0220424
0.248523
0.0217332
0.473379
0.0219834
1.8305
0.332094
6.55507
0.0220802
0.0233897
0.0323579
0.0367857
0.0223928
0.0402117
0.08975
7.56196
0.0220213
0.505993
7.75014
0.0215718
1.32927
0.0450883
0.343399
0.123389
0.0219183
0.0287149
0.0470155
0.021686
0.0259528
0.0215487
4.82205
4.02271
0.0335514
0.0218269
0.181966
0.0769176
2.87023
0.289837
0.0237051
0.0302097
0.0219481
0.0219465
0.0470932
0.0538504
16.5618
0.0218189
0.458505
0.0226694
9.07452
0.222191
1.81383
0.0216045
0.0230814
1.96357
1.77122
0.0445028
2.30232
0.0228982
0.23554
0.021913
0.0218628
2.54667
0.982603
0.0249326
0.0220957
0.078763
2.14067
0.198674
0.0692481
0.021775
0.0220147
0.0217168
2.39764
10.1312
0.0217724
0.0530709
1.85259
0.0880254
0.325694
1.59817
5.32775
1.88163
0.0217927
0.0227612
1.3815
0.0218874
0.0510825
1.54975
6.57334
0.0235336
0.0307058
4.82428
0.652689
1.99516
4.91218
1.28538
1.45469
0.0221127
0.0216236
0.0219912
0.0226582
25.2457
0.0560307
0.391075
0.488029
0.0587914
0.0219966
0.393591
0.0217149
0.0337101
0.0219209
0.0419548
5.55294
7.21036
0.022072
0.0216086
0.0433066
5.18144
0.224448
5.4397
0.0459187
0.0221391
0.0838258
0.0214695
0.0976834
0.0324696
0.0219129
5.17935
0.184181
0.641856
0.0633464
0.0223665
0.0215824
12.0778
0.0254327
0.021627
0.0221463
0.0222559
0.0216842
5.56062
9.54214
1.71823
1.37734
5.19723
0.0240298
0.021946
2.19763
0.0249361
0.0995998
6.3268
0.0218662
5.47051
2.54936
0.0676656
0.0344645
0.807777
0.023396
1.83961
0.0398429
2.04757
0.0218255
0.0231103
0.0425305
3.18934
0.141735
0.0713537
5.16567
1.84338
0.0733851
0.216431
3.2204
0.0248283
0.374381
15.074
0.0375343
0.0660472
2.38822
0.0358752
0.0382249
0.0221055
0.0418563
0.0453629
0.0618933
0.0220906
7.97611
0.171576
1.90134
5.69938
1.91238
0.0411424
1.5712
7.79352
0.021846
0.381827
3.7067
9.08186
0.0287305
0.0243798
2.05444
9.96965
0.0216181
0.247108
0.0217523
0.0219072
4.2183
0.0256019
2.182
1.65883
1.45153
8.56272
0.0216245
0.0401176
0.0220058
0.021843
0.115506
0.0678785
0.0280002
2.79683
1.74128
0.022273
0.0274967
1.3471
0.0237373
0.433939
0.0488918
1.31182
1.30493
0.943621
7.9105
7.91993
1.76933
1.32089
1.45913
0.0326805
0.0255182
0.126511
0.13015
1.85927
8.55346
0.0221331
0.0227327
5.00861
2.22604
0.0253022
5.08141
0.0219338
0.839236
4.07035
5.23418
0.0219224
1.75797
1.51438
0.0276265
0.0359976
5.67068
5.45456
8.28857
2.9885
0.0220533
10.7969
1.51476
0.0418333
0.253446
0.111769
0.0217345
0.0280233
3.32747
1.51826
0.025263
0.0221717
1.93022
0.0872571
1.55185
0.0847917
2.20277
1.34964
0.0219915
9.20412
0.0222852
0.0331382
0.0221121
0.0218653
0.0217044
0.0395069
0.304901
0.0214984
17.8805
0.086991
9.48597
5.6005
1.92779
0.0219087
3.80618
1.53693
1.90831
0.0356961
0.0219266
7.67482
0.501077
1.41756
0.0560087
0.0235854
0.021688
9.75167
5.19597
0.0344989
18.448
0.0314059
0.0222751
1.50146
0.0550253
19.5272
0.0219481
0.0306909
1.6342
6.9156
1.3173
0.37039
1.29785
1.59477
9.62082
0.0220488
6.64653
0.0498305
0.0218453
0.0215598
0.0219387
5.34524
0.0503958
1.30281
1.35874
0.0407894
0.168581
0.0922138
2.44216
0.269912
5.76953
5.07423
1.31839
0.0935109
0.0216577
1.50582
0.0589495
0.120579
1.45194
1.7498
1.70373
0.0220953
0.0246782
0.0496031
0.0220609
0.0220145
0.0292339
1.32455
0.0296036
0.0253206
1.49847
0.0887359
0.654224
6.38473
1.38739
0.527251
1.3759
5.14937
2.04627
0.0649291
0.0343913
0.0221476
1.28444
0.123884
0.311687
0.0644868
0.062192
0.0214552
0.235606
6.06614
0.0271572
0.02159
0.0232759
9.62294
0.0218729
0.0220254
0.0702208
1.44026
0.0298749
0.0568219
0.189731
0.0310467
0.0726555
0.0218839
0.0219797
0.0442949
0.332047
0.0223226
0.0327028
0.276807
6.70381
0.0221661
8.67806
0.0218912
1.35541
0.0233754
0.0235806
0.0215575
0.222765
0.038444
5.30287
8.16051
0.0695679
0.0221632
0.02196
4.39676
9.2078
0.0218035
0.283424
1.40243
0.0584725
0.0792391
0.0214318
0.0228585
0.0219217
1.50666
0.0462425
0.022052
5.66111
0.0224811
0.0584973
0.466237
0.021736
0.102487
0.0677634
15.0822
0.0224841
0.0264791
0.0235152
0.0604036
0.0214079
0.0219007
5.79336
0.377452
0.0883763
0.0219503
1.32067
0.0224706
0.0224843
0.0219586
0.581888
5.77412
0.024214
7.95835
6.46475
0.0719575
2.83148
9.70457
4.96082
9.57772
0.0643421
0.0777918
0.269441
0.0527529
0.0219516
0.0305186
0.0323349
5.69851
0.0220813
2.27847
0.0219791
0.423921
0.104295
0.0230379
0.023157
12.1117
8.05334
5.2833
1.57406
0.0218111
0.0813855
5.3299
0.0271315
9.53479
0.0419648
0.10924
1.2832
0.0361062
0.0219939
0.146352
0.179088
0.0219185
1.40858
1.69882
0.0217103
0.0222395
0.0221217
0.0220105
5.23892
0.0219744
0.0523113
0.0220262
0.0223804
0.0327178
0.0219433
1.57227
0.100912
0.0222397
0.0216324
0.135383
0.0236647
0.056458
5.49701
5.06222
0.0575924
0.266011
0.0415573
0.0215981
0.177338
6.73383
0.0397267
1.35059
6.77786
0.0772415
0.0410505
0.0287161
0.0769505
0.0390521
5.78195
0.0221155
0.0222564
0.0217952
1.54338
10.0823
0.037011
0.110199
0.0219047
0.0272668
0.138726
0.424246
0.0219291
0.0651219
1.29186
0.0896956
0.0219907
0.0219388
18.212
6.20442
0.0219329
0.924492
0.0332661
0.269084
0.538708
0.021859
2.87837
0.0314487
0.0220259
2.32435
0.266621
0.0219188
0.0221634
0.420024
0.0217889
0.022042
0.184963
0.0429033
0.0466657
6.91505
0.0261226
0.0484203
1.2784
0.021851
8.85522
5.40428
0.0259579
0.0715295
0.239942
0.0219826
0.210102
0.0214725
1.80298
1.48588
0.0220041
8.64093
6.18821
0.0219504
0.021946
0.58326
0.0430936
1.73209
1.62037
0.0220962
0.0469938
5.38195
0.0227233
0.0574939
0.0852009
0.0348379
2.46304
0.275418
0.023306
0.302382
9.72062
0.0463229
4.08067
0.0219112
0.0215553
0.0222674
0.0429546
4.60623
0.0220665
0.0366294
16.59
2.32461
0.0222181
0.0309722
2.02284
1.46671
0.022225
8.68228
0.0370026
0.100378
0.0385854
0.023347
0.0270065
0.0219722
0.0219612
6.2522
0.0219345
0.0531495
0.0219807
3.2178
0.0232821
0.0238159
0.0215948
0.0241999
0.0219814
0.0450907
5.23374
1.59791
0.0402583
0.0430905
0.0219684
0.0321711
0.0589483
2.03746
5.00456
0.0218304
2.57019
0.0220232
2.28715
1.49716
5.1408
0.021827
0.114642
0.0877542
5.52929
0.237832
0.0218582
2.42794
0.330304
0.0383949
2.3467
0.022235
0.0220087
0.0404928
2.73321
0.0219292
7.17216
0.0344743
5.06739
0.0925525
0.0224593
1.8423
0.0289437
0.0221529
0.526009
0.0219829
2.82117
9.09623
0.211993
0.0278808
0.159747
0.0219391
0.118634
0.0479366
9.39181
0.0220354
0.0216237
0.0276048
0.0307489
0.0500755
1.59626
3.52878
0.0362909
0.229715
0.0218156
3.69466
8.84413
0.206671
0.0219237
0.0222602
0.0230549
2.04122
0.0220804
0.0275432
1.85324
0.104737
0.0219972
0.276889
0.0974749
0.0219864
0.0257792
0.139594
1.51983
0.0758508
0.0462806
1.3681
1.57706
0.741977
0.0273287
0.0221383
0.0248881
0.0247667
0.166059
0.0653963
0.0290548
0.0956301
3.87054
0.0241711
0.0219959
5.16966
0.31317
1.90972
0.242363
0.0263799
0.0238055
0.0238902
0.0217788
0.0218991
0.0501185
0.0215525
0.0229874
0.0220853
0.0231569
0.0238498
0.0219471
0.0395834
0.0405841
0.0221319
0.0219349
0.0221204
0.0227858
0.022368
0.255235
0.0220579
0.0235049
1.48049
0.0217022
0.023475
0.0222765
0.0287027
5.21989
6.51873
2.45417
2.2647
2.92186
0.294897
0.0218711
0.0653796
0.0220639
2.80418
0.0230804
0.0300837
0.0221991
0.0621877
0.0219557
0.0336922
0.0217858
2.16967
0.200898
0.0220804
2.84074
2.63488
0.0221851
0.102481
0.0219464
0.0216003
7.46436
0.0221728
0.073733
0.24181
0.0221061
0.0215593
0.0839052
1.41341
0.0251266
0.0237149
1.61449
0.0219389
4.08705
0.0564957
12.0008
0.0216751
1.48643
0.0219303
0.0222476
0.363635
0.0679893
1.77474
1.5678
7.40287
2.29697
0.189963
0.159475
0.0220474
0.160878
0.0220217
0.0218204
0.0945308
0.0219043
0.0219837
0.0216085
0.0216161
0.0667323
5.08217
1.47976
0.45454
1.70506
0.0238714
0.0306927
0.0229338
0.0229099
0.091305
0.0220952
0.0217145
0.0218148
0.0240345
0.023228
0.201763
0.0954856
0.0504208
0.022111
0.0553274
0.056351
1.51772
5.60987
0.0254019
0.0443635
0.0220894
10.2857
2.04144
0.0219175
0.0219341
0.0249625
0.0222133
0.673588
0.542438
5.19714
0.0221471
4.27846
0.0221674
2.63569
0.0567915
0.0218107
0.0292466
4.61699
0.0272387
0.0291113
0.0324416
0.0960609
3.91314
0.0217447
0.0219154
0.0285373
0.167121
0.0218791
1.7732
3.48706
0.0219692
0.0214265
6.41375
0.0768318
0.021925
5.89187
16.8094
1.81742
2.2331
0.0295795
1.9243
0.022073
5.77791
2.42295
0.83759
0.075956
0.0242775
5.04112
0.025535
0.0218659
0.0214535
0.19713
0.0216388
8.97844
0.0226158
0.0222287
0.0253489
1.36838
0.0242512
0.0229912
0.0220744
8.87038
3.80283
10.0639
1.39529
0.0481187
0.021931
0.0242276
0.287602
0.114243
0.0219863
0.0581503
0.181295
3.47289
0.0219801
4.02405
5.25483
0.0428152
0.022064
0.0241966
0.021951
0.0217513
0.0219389
0.0220323
0.0220926
0.0979942
0.022098
0.148361
0.0226249
0.0228614
5.41457
0.0801147
0.0232463
0.0229736
2.07422
0.0215586
0.0229017
0.0267942
0.021815
3.14966
0.0338948
0.0229305
0.0448908
0.0220108
0.0286765
0.0217777
0.188813
0.0218216
0.0219203
6.54335
0.0235341
0.248555
0.0363504
0.023872
0.0999333
0.0214118
0.0220902
0.0227952
5.6678
0.024097
0.0219222
1.95665
0.0220388
0.0216275
0.0218842
1.22117
0.0326406
0.163446
0.033843
0.0311172
0.0503463
0.0242524
0.0278713
0.0481625
2.12943
0.0223157
0.0292657
0.0218277
0.276673
0.283259
0.0219057
0.029695
2.51999
0.030218
0.0215512
5.60826
0.0265448
0.0857052
2.28486
0.0301531
0.0219122
0.0306741
0.0219217
0.0241096
0.0219045
0.0235966
0.0266154
0.0219713
0.022069
0.0321518
0.0221957
0.109906
0.0219475
0.0238144
0.021946
0.030575
1.51285
0.0221522
0.0220297
0.100026
0.0231009
0.0219986
0.432698
4.80261
2.76834
0.0220827
0.0249553
0.0385359
0.0222447
0.0221274
0.0372908
0.195844
0.0215392
0.0542655
0.0219807
0.0218866
0.0217704
0.0215305
0.0229387
0.046371
0.0374851
0.0281335
1.37695
0.0246786
0.0287484
0.0217372
2.28872
0.83037
1.936
0.0220592
0.0517629
0.0293567
0.0220448
0.0221222
0.0423479
1.31749
2.27664
0.021924
0.0290951
5.9404
0.0228126
0.236148
10.4101
1.34796
0.0313886
0.0220043
0.0414631
0.0507685
0.15942
9.70723
8.13583
1.32818
0.0228828
0.0221743
0.0219381
0.126461
0.0219625
0.0216911
0.042727
0.0219239
0.0219063
0.0218776
0.0524599
0.0219998
0.0217775
0.0219693
2.30536
0.0215467
0.0220428
0.022109
0.0226107
0.02194
0.0737391
0.0816634
8.349
0.0215804
0.0290672
0.138764
5.14805
2.08578
0.0223114
0.0222752
0.0540871
0.0968762
0.0264427
0.368245
0.0219315
1.80246
0.0222781
1.34147
0.0230118
0.021928
0.0511402
0.0219541
0.0219708
0.0229246
0.717789
0.0249316
0.0224898
0.0221787
0.0219744
0.0454174
0.0219111
0.0219141
0.0269735
0.107112
0.0248358
0.0218259
1.32761
5.81119
0.022041
1.21479
0.0221451
0.0307602
0.0846529
0.297986
0.0237619
0.0231947
0.0220877
0.270518
0.0294636
0.0222305
0.0219033
0.0234864
0.170688
0.0220222
0.0387138
0.0243042
0.0352773
0.0508704
0.0426932
0.0925083
3.638
0.0255294
0.0220405
6.82524
0.73296
0.0219327
0.0214941
0.0220639
0.0219808
0.0219216
0.0243148
0.0216774
0.0220791
10.0904
1.42068
0.0347473
0.0219499
2.224
0.0242871
0.0217009
5.25688
0.0239416
0.0216564
0.0220949
0.0220377
0.0407
0.0221238
0.0570653
0.021925
0.0217817
0.0219613
0.0354762
0.0400969
0.0218906
0.0676606
1.43055
0.0232337
0.0218887
0.0617721
0.0217279
0.0220662
0.0218613
0.0328609
0.0220538
5.53256
0.0224026
0.248179
3.11971
0.0607757
0.0234622
0.0223456
0.0220991
0.0219375
0.0305226
0.213531
0.14299
0.021811
0.0239067
4.92551
0.0215888
0.181829
0.0219633
0.023088
0.0324013
0.0635851
0.0219559
0.0365368
0.0286522
0.0603466
1.55539
5.41812
0.0218744
0.0219271
0.0328846
0.0227426
0.0228032
0.0550005
0.0228169
0.125849
0.0217823
0.0706735
0.0221068
0.0825309
0.0616845
1.36971
5.12148
0.0219187
0.0434024
0.91854
0.272598
0.021601
0.0217527
0.162275
0.0219425
0.021976
0.0217467
0.0215181
0.0739229
0.084574
18.5754
0.0220214
0.0512265
0.0222551
0.021593
0.0233206
1.77561
0.211063
0.0219306
0.0221407
0.0218424
5.69217
0.0220432
0.0219466
0.0224984
0.0219617
0.0440593
0.0218338
1.62008
0.0219837
0.0226172
0.022448
0.0219272
0.021759
0.0220074
14.0388
0.0217823
0.0219567
0.316268
0.0219282
0.0220433
0.022114
0.0221572
0.0604691
0.0219201
0.021973
2.41548
0.0237217
0.0220394
0.0222826
0.0215235
1.26653
0.0230495
0.0222557
0.0219153
0.0270733
0.0219654
9.04643
0.0217947
0.0220102
5.47262
0.0219782
0.0685431
0.0222048
0.0214158
0.0215121
0.0308901
0.0389552
0.0218666
0.0222861
0.0242826
0.0219069
0.0221113
0.0221185
0.0218799
0.0217341
0.0217889
6.70956
0.0219548
0.0218419
1.39169
0.0219545
0.0282017
0.153189
1.47167
0.0218219
0.0220951
0.0219554
0.0216415
0.0230037
0.0417765
0.0241322
0.0405676
0.0217869
0.0260143
0.0220528
0.0214792
0.0285492
0.0635503
0.0237875
0.0296006
0.0220276
0.0219547
0.0221205
1.48348
0.023544
0.022012
3.37805
0.0228882
2.5325
0.022064
0.0219277
0.0217506
1.66113
0.0220036
0.0256144
0.0230495
0.0220728
0.0219663
0.0220887
0.0220665
0.024748
0.0219117
0.0396098
0.022248
0.0443842
0.0215032
0.0216372
0.0242191
7.19336
0.0221501
0.0220492
0.022635
0.0219356
0.0245013
2.42566
0.0227969
0.0275816
1.96396
1.37924
0.0227796
0.0227449
0.172014
0.115532
0.0232687
0.0221169
0.0218776
3.1295
0.0226245
5.80896
0.0217026
0.0215448
0.022105
0.0218695
0.0232634
0.0215897
0.0219889
0.0222651
0.0707184
0.0238531
0.0226373
0.0216344
0.353999
0.0748037
0.0215178
0.0221045
0.0235166
0.0222391
0.0220598
0.021595
1.69561
0.0216076
0.0219493
0.0692987
0.0215846
1.36636
0.021822
0.0480952
0.0278327
0.0219682
0.0215438
0.0219223
0.0220918
0.0220436
0.0217443
0.0216247
6.29593
1.70273
1.67371
0.0216176
9.11519
0.0220246
0.0664198
0.0219216
0.0219238
0.022111
5.97188
0.0219468
0.021907
0.022128
0.0220226
1.188
0.0219412
1.41706
0.0214531
0.0224974
1.62189
4.91514
0.021984
0.0219563
0.0283524
0.0220163
0.163659
0.021753
1.98418
0.0217827
0.0373502
0.0221402
0.0218178
0.021942
0.02201
0.0232412
0.0218992
0.0340232
0.0385869
0.127357
0.0217125
10.8015
0.0218919
10.2285
0.021911
5.76551
4.11416
0.02175
0.021908
0.0216044
0.0219058
0.0220446
0.0219705
0.0215929
0.0225037
0.0214464
0.100363
0.022111
1.50805
0.0215843
0.0215374
0.0219251
0.0219252
0.0227274
8.83255
0.0230824
3.96883
0.021547
0.0221208
0.038472
0.0215891
0.189813
0.0235186
0.0219286
0.0426579
0.021512
0.021973
0.0225831
0.0217007
0.029408
0.0431671
0.021643
0.0221128
0.0220466
5.88222
0.0235516
0.0215824
6.17627
0.0622498
0.0216325
0.0219126
0.19965
0.0228866
0.021445
1.27583
0.216323
0.0228965
0.0214516
0.0222399
0.0373095
0.0215741
0.20449
0.0216241
0.0216891
0.0481531
0.0584701
0.0216175
0.0216181
0.0215111
0.0217518
0.0217658
0.0419564
0.0219666
0.0217749
0.022112
0.0218542
1.94999
0.0222722
8.41907
0.0275654
0.0297229
0.0221423
1.35747
0.0219624
1.97102
0.0215328
0.0219561
0.478771
0.0219724
0.0230446
0.0216622
0.0253556
0.0217202
0.0284698
0.0215707
3.26226
0.0222086
0.0215796
0.0215424
0.0215803
0.118343
0.0217977
3.06083
0.0219116
0.025422
0.0215059
0.0220167
0.320173
0.0219989
0.116001
0.0218181
0.0233505
0.0221939
0.0221345
0.022595
0.0219312
0.0219799
0.258256
0.0215782
0.0219423
0.0226203
0.022059
0.0220558
0.0363951
0.021836
0.0219121
0.0218579
0.0216299
0.0217637
0.0219947
11.3979
0.215081
6.34121
0.0214416
0.023905
0.0221279
0.0278313
0.138592
0.229404
0.0355056
0.0215768
0.0219782
0.0219182
0.0221456
0.0221166
0.0219064
7.86429
0.054877
0.0219289
0.183487
0.0221388
5.82945
0.0219586
0.0218879
0.0218046
0.02157
0.0214887
0.021841
0.0216656
0.0218203
0.0424742
0.0230592
0.0219226
1.34138
0.0215719
0.0227532
0.0219846
0.0215999
0.0219371
0.347936
0.0218106
6.13912
0.0219223
0.0216037
0.0371467
0.0219099
0.0279582