/*--------------------------------*- C++ -*----------------------------------*\
| =========                 |                                                 |
| \\      /  F ield         | OpenFOAM: The Open Source CFD Toolbox           |
|  \\    /   O peration     | Version:  v2012                                 |
|   \\  /    A nd           | Website:  www.openfoam.com                      |
|    \\/     M anipulation  |                                                 |
\*---------------------------------------------------------------------------*/
FoamFile
{
    version     2.0;
    format      ascii;
    class       volVectorField;
    location    "600";
    object      U_0;
}
// * * * * * * * * * * * * * * * * * * * * * * * * * * * * * * * * * * * * * //

dimensions      [0 1 -1 0 0 0 0];


internalField   nonuniform List<vector> 
9793
(
(0.959995 -0.0188092 0)
(-0.172735 0.00212898 1.23865e-19)
(0.992124 -0.0090351 2.291e-20)
(-0.042599 -0.0322263 9.05029e-20)
(0.999938 -0.00037139 5.12709e-22)
(1.29407 -0.101995 -4.69373e-22)
(1.105 -0.277334 1.91186e-20)
(-0.246981 0.0580493 -6.73024e-20)
(1.02646 -0.0436828 0)
(-0.0909367 0.00282029 0)
(1.00002 -0.00217085 -8.20378e-21)
(1.00001 -0.00244028 -9.65755e-21)
(1.00318 -0.0108347 0)
(-0.118879 -0.0946452 1.26809e-20)
(1.02401 -0.0252253 0)
(1.08373 0.0180269 5.9627e-21)
(1.17334 -0.106629 2.73991e-20)
(0.994686 -0.01133 1.09203e-20)
(-0.103865 -0.213783 3.14588e-20)
(1.01987 -0.00510494 -2.07582e-22)
(1.02657 -0.00972103 1.678e-21)
(0.999996 -8.23999e-05 -8.3789e-21)
(-0.036987 0.0194076 0)
(-0.233945 0.0521898 -4.96666e-22)
(-0.0966875 -0.0935901 -6.93399e-20)
(0.916493 -0.0633761 1.75057e-20)
(1.00011 -0.00518918 -4.85578e-21)
(1.00002 -0.000485861 -2.78883e-21)
(1.01973 -0.00542995 -3.86383e-22)
(1.1757 -0.195589 -5.54545e-20)
(-0.334583 0.00414148 0)
(1.34501 -0.144582 0)
(0.996452 -0.00656264 8.5959e-21)
(0.997719 -0.0115727 8.22551e-21)
(1.00654 -0.000612503 3.92893e-21)
(1.10916 -0.0363461 -1.23337e-20)
(1.0754 0.00594967 2.4018e-20)
(0.911076 6.18553e-05 -8.88398e-20)
(-0.144462 -0.132594 -1.1731e-19)
(1.09715 -0.0925969 1.25429e-20)
(1.16546 -0.189725 8.93725e-20)
(0.564821 -0.0343355 6.15244e-20)
(-0.24435 -0.109643 9.07482e-22)
(1.00001 -0.000342591 -4.0303e-22)
(0.991741 -0.00279058 -2.16532e-20)
(0.996373 -0.00275807 3.879e-21)
(-0.265252 0.0742709 -9.63431e-20)
(1.00001 -0.000237299 0)
(1.03526 -0.00549788 6.04145e-21)
(0.994394 -0.0108647 -9.92258e-21)
(1.10956 -0.0319442 0)
(1.00696 -0.000748153 -1.26032e-22)
(1.13865 -0.0648662 -3.69352e-20)
(0.999985 -0.000519123 0)
(0.894351 -0.127321 7.10223e-21)
(-0.0507453 -0.0388208 -2.82184e-20)
(1.00349 -0.00986704 8.65428e-21)
(1.23715 -0.00374525 -5.61346e-20)
(1.03529 -0.00636988 3.288e-21)
(1.00001 -0.00012805 0)
(0.895605 -0.0195619 1.31396e-20)
(0.808902 -0.335532 4.82618e-20)
(0.993934 -0.00908352 1.15869e-22)
(1.13162 0.00910704 1.33027e-20)
(1.00366 -0.00156634 0)
(1.02549 -0.0417948 7.57025e-23)
(-0.138102 0.0334137 0)
(1.06738 -0.0542064 0)
(1.07646 0.0113562 -2.58924e-21)
(-0.0720873 -0.150981 -1.41505e-19)
(0.977638 -0.0126018 0)
(0.580462 0.0363357 -3.82913e-20)
(-0.287883 0.0702291 0)
(1.07518 0.17325 0)
(0.0166359 -0.123941 -5.41551e-20)
(0.999978 -0.00069817 -1.61907e-20)
(0.789891 -0.133923 -1.03155e-19)
(0.393278 -0.0301233 8.48263e-20)
(0.994524 -0.00635738 0)
(0.999973 -0.000386119 9.51642e-21)
(0.774165 -0.135807 1.19643e-19)
(-0.11051 -0.210178 -5.44165e-20)
(1.16911 -0.0983032 -3.12652e-20)
(0.979941 -0.0792144 6.52397e-21)
(1.07793 0.00862627 2.49672e-20)
(1.26081 -0.243591 7.07132e-20)
(0.999953 -0.000486532 4.58858e-23)
(1.19494 0.0462888 -1.49531e-20)
(-0.149547 -0.130336 1.1753e-19)
(0.795937 -0.31576 -9.5936e-20)
(-0.0569461 -0.0093457 5.49859e-20)
(1.32912 -0.296319 2.05957e-19)
(1.33007 -0.31012 1.21314e-19)
(1.09926 -0.152726 2.62116e-20)
(-0.2233 -0.127934 -6.10145e-20)
(0.996577 -0.0145766 -9.47286e-21)
(0.0377226 -0.118092 -2.88322e-20)
(1.15587 -0.128012 3.22131e-20)
(1.0513 -0.0790723 3.86974e-21)
(0.999965 -0.00030725 2.02483e-21)
(-0.138765 -0.0813202 0)
(1.13302 -0.0643891 3.44824e-20)
(0.14558 -0.0587463 0)
(0.992338 -0.00287374 -2.85118e-21)
(-0.00810234 -0.120573 0)
(0.130231 0.00337936 -2.07348e-19)
(1.16048 0.195199 4.30138e-20)
(1.00589 -0.00801656 3.43316e-21)
(0.994494 -0.00595436 0)
(0.999986 -0.000134132 -2.10116e-21)
(1.00009 -0.00103784 8.17828e-21)
(-0.0442612 0.0108832 5.98648e-20)
(0.0924364 -0.0940433 -6.87521e-20)
(-0.29731 -0.000922407 6.98079e-20)
(0.978573 -0.0131579 -2.81674e-20)
(0.999049 -0.00427485 5.89369e-21)
(1.05993 0.0208193 1.25308e-20)
(0.996767 -0.00361357 8.72038e-21)
(-0.0651995 -0.0571333 5.76399e-20)
(0.995728 -0.00231724 -2.70116e-21)
(-0.0501952 -0.127203 -7.83067e-20)
(1.20441 0.0449867 -3.95835e-21)
(0.152389 -0.0918941 1.39265e-19)
(1.16011 -0.0396939 -8.21158e-20)
(1.07668 0.00284746 1.3197e-20)
(0.995953 -0.00211999 0)
(1.17841 -0.125981 0)
(-0.322133 0.00358706 -1.2187e-19)
(1.25114 0.10556 1.04334e-19)
(1.24883 0.112497 -1.87965e-19)
(1.07368 -0.0209702 -1.86665e-20)
(1.00875 -0.0161545 -4.36912e-21)
(0.961875 -0.0199234 0)
(1.0605 -0.0476869 -5.63332e-21)
(1.10154 -0.0389489 0)
(1.17866 -0.298698 5.15566e-20)
(1.35392 -0.0588829 0)
(1.0621 0.0192645 -7.53323e-21)
(0.999998 -0.000512645 1.65249e-20)
(1.19389 -0.0964867 -2.96328e-20)
(-0.122421 -0.199782 -1.11281e-19)
(1.10575 -0.0387909 0)
(0.984191 -0.0221809 0)
(1.17767 0.0323509 -5.66726e-20)
(-0.25202 0.0812007 1.13213e-19)
(1.07954 -0.486248 6.32847e-20)
(0.995962 -0.00146846 -4.57343e-21)
(0.0220803 -0.120118 -5.44097e-20)
(1.00847 -0.0165786 0)
(0.995758 -0.00168771 0)
(0.999276 -0.0061525 -1.03624e-20)
(0.0389448 -0.0499548 1.22566e-19)
(1.0488 -0.0756367 -6.3854e-21)
(1.00003 -0.00520617 0)
(0.984484 -0.0046322 1.06484e-20)
(1.33183 -0.343271 0)
(1.18181 -0.105887 -1.46448e-20)
(0.994014 -0.00963034 1.06282e-20)
(1.36641 -0.142714 -5.16277e-20)
(0.983891 -0.0132903 -1.08802e-20)
(1.19049 0.0377645 0)
(1.0757 -0.0233745 2.09419e-20)
(1.02632 -0.0102978 -1.19254e-21)
(0.559214 -0.409295 1.0787e-19)
(1.04629 -0.0158602 0)
(0.603221 -0.0547248 1.47346e-19)
(0.00635524 -0.103961 1.32312e-19)
(1.04995 -0.0203828 -1.98917e-20)
(1.0059 -0.00733721 6.31185e-21)
(0.999968 -0.00165808 0)
(0.98312 -0.0216155 -1.34256e-20)
(-0.213178 -0.00837268 1.9592e-19)
(0.182018 -0.13931 -2.53929e-19)
(-0.188141 -0.140766 5.38721e-22)
(1.00348 -0.0111858 4.6013e-21)
(1.28796 -0.0960175 -6.3796e-21)
(0.985958 -0.387203 7.32164e-21)
(0.522419 -0.502259 0)
(0.994078 -0.00715571 -9.63463e-21)
(1.06966 -0.0481421 -2.39542e-20)
(0.0372935 -0.107254 7.87966e-20)
(-0.230921 0.0701901 0)
(1.2093 0.0517428 3.79006e-20)
(0.996033 -0.00290199 -1.3355e-20)
(0.997405 -0.00290315 -6.9165e-24)
(1.00612 -0.0077408 -9.98495e-21)
(0.250521 -0.0734546 0)
(-0.293453 0.0720699 2.00876e-20)
(0.66525 -0.363272 -1.22022e-19)
(0.19863 -0.043502 -6.86147e-20)
(1.02286 -0.0394703 -1.5399e-21)
(-0.0615153 0.121469 -7.09578e-20)
(0.387905 -0.133985 1.90897e-19)
(0.909006 -0.0237487 -1.82938e-20)
(1.03675 -0.002213 3.68428e-21)
(0.959315 -0.0568772 -3.5586e-20)
(0.177644 0.113424 3.04726e-20)
(1.01731 -0.00550597 1.95485e-22)
(0.994451 -0.0117032 -6.8991e-21)
(0.999723 -0.00161202 -1.01739e-20)
(0.974976 -0.0131535 -1.54006e-20)
(1.02877 -0.00829065 -1.93481e-21)
(1.11508 -0.0250722 2.39297e-20)
(1.08624 -0.0130431 1.26032e-20)
(-0.0830986 -0.144252 0)
(0.980881 -0.00336427 -1.28911e-20)
(1.08623 -0.08337 -2.61372e-20)
(1.05112 -0.0187045 -8.01436e-21)
(0.968132 -0.0325526 -3.24233e-20)
(0.758173 -0.55224 -3.26553e-20)
(1.18628 -0.0964958 -4.52991e-20)
(-0.130598 -0.194872 -5.59647e-20)
(1.01539 -0.00526706 8.63613e-22)
(-0.0856896 -0.159596 0)
(0.975114 -0.0792285 -6.32136e-21)
(1.09816 0.084105 -2.34753e-20)
(1.0241 -0.0263615 -5.11867e-22)
(1.18645 -0.288223 4.80137e-20)
(0.999149 -0.00393156 1.67652e-20)
(0.733295 -0.0505493 -5.43298e-20)
(1.16341 -0.130182 -1.26359e-19)
(1.02874 -0.0088643 -1.38169e-21)
(0.374392 0.471565 6.95633e-20)
(-0.185171 -0.150507 1.74589e-19)
(1.09138 -0.150311 -3.36081e-20)
(0.995849 -0.0164362 2.97582e-22)
(1.18081 -0.0377766 0)
(-0.176537 -0.165089 1.52875e-19)
(0.747403 -0.0791708 2.633e-20)
(0.744212 -0.0900101 -1.09494e-21)
(-0.093531 -0.104323 0)
(1.24114 0.0842912 0)
(1.09863 0.0768881 0)
(1.13603 0.0114689 -3.42539e-20)
(0.396068 -0.111169 -8.58441e-20)
(1.0303 -0.00213051 2.355e-21)
(-0.0544833 0.0699746 1.13384e-19)
(-0.278417 -0.00343462 -1.13781e-19)
(1.01694 -0.00536012 4.07893e-22)
(0.999791 -0.00101558 0)
(0.677009 -0.0312185 -1.14016e-19)
(0.987851 -0.0163813 1.13075e-20)
(1.00007 -0.000955135 -1.00138e-20)
(1.24911 0.0161952 0)
(1.26112 0.00395775 -1.8243e-19)
(1.02342 -0.0415554 -2.49792e-22)
(1.07217 -0.0467481 3.03057e-20)
(1.09095 -0.0851738 9.12837e-21)
(0.937313 -0.186729 3.82871e-20)
(1.07569 -0.0375798 -2.16786e-20)
(0.994036 -0.00669627 1.0233e-20)
(1.06438 -0.196384 -1.13963e-20)
(-0.0400263 -0.147112 1.78036e-19)
(1.02783 -0.00907829 4.83002e-21)
(-0.192514 -0.144773 -1.43931e-19)
(1 -0.000637653 0)
(0.999988 -0.00298553 1.07864e-21)
(1.01338 -0.000981265 0)
(-0.0542009 -0.0506148 -8.41096e-20)
(0.993116 -0.00146325 0)
(1.27505 -0.323027 8.14407e-20)
(-0.0660364 -0.145656 -1.83496e-20)
(1.00079 -0.00377003 3.57614e-21)
(0.999283 -0.00377306 -1.21077e-20)
(1.19788 -0.204678 6.77137e-20)
(1.01339 -0.000602549 1.38874e-21)
(0.999909 -0.000948625 0)
(1.01406 -0.000569618 0)
(-0.0787828 -0.151938 -4.31744e-20)
(0.56351 -0.37508 0)
(0.930379 -0.0589265 -2.89778e-20)
(0.855075 -0.51926 1.165e-20)
(1.23257 -0.0176273 -1.40307e-20)
(0.0494056 -0.0904241 -1.04831e-19)
(-0.030334 0.0539396 2.18484e-19)
(1.05125 -0.0222524 2.88755e-21)
(-0.128945 -0.419635 3.9443e-19)
(0.999994 -0.000607998 9.984e-22)
(-0.180124 -0.171545 -1.95013e-19)
(0.351919 -1.10506 6.44854e-20)
(-0.174017 -0.124965 -1.25069e-19)
(-0.0435809 -0.125696 0)
(1.24155 0.0773538 0)
(1.07451 -0.017683 -2.04797e-20)
(1.16091 -0.0983373 -3.64803e-21)
(1.08321 -0.0141549 -3.46263e-20)
(1.03727 -0.00048279 -7.54498e-21)
(1.05373 -0.0115805 -5.1972e-21)
(0.787468 -0.525618 7.09152e-21)
(0.912602 -0.0666153 2.34088e-20)
(0.999352 -0.00344124 1.37725e-20)
(1 -0.000108189 -6.29607e-21)
(1.01577 -0.00545085 5.04969e-22)
(1.01844 -7.72951e-05 -7.71816e-22)
(1.02762 -0.00967396 -2.36025e-21)
(-0.0368176 0.039622 5.26945e-20)
(1.00606 -0.009186 -7.14778e-21)
(1.02168 -0.0248067 -1.3441e-22)
(1.0182 -0.000166675 3.07907e-22)
(1.00349 -0.0102743 -9.43231e-21)
(-0.030127 -0.200014 0)
(1.09479 -0.477774 4.05111e-20)
(0.682766 0.0742496 -4.5468e-20)
(0.944303 -0.0170369 9.72184e-21)
(1.18097 0.0252812 5.85471e-20)
(1.01744 -9.80341e-05 -3.78238e-22)
(1.23285 0.202443 0)
(-0.0325398 -0.0333914 -1.58885e-19)
(0.992605 -0.00230412 -1.01362e-22)
(-0.0448397 -0.14096 -9.67231e-20)
(1.12824 -0.00123859 2.83646e-20)
(0.9914 -0.00319456 2.66954e-20)
(-0.128804 0.00887192 -2.17909e-19)
(1.22981 0.202273 -5.36379e-20)
(0.996775 -0.00662879 1.0788e-21)
(1.06274 -0.204686 -1.18543e-20)
(0.391274 1.07069 -1.82288e-20)
(0.97378 -0.0299245 -8.86109e-21)
(0.828291 0.0187314 1.50143e-20)
(1.02293 -0.0244111 1.3009e-22)
(0.968345 -0.0278252 -2.04845e-20)
(-0.179994 -0.182598 -3.97e-20)
(0.885387 -0.183855 0)
(0.997773 -0.0110704 -1.50086e-20)
(0.995618 -0.00352138 -9.96965e-21)
(0.947049 -0.01623 8.37908e-21)
(1.04677 -0.400173 0)
(0.0906693 -0.179026 -8.16776e-20)
(0.992015 -0.00839691 -1.35708e-20)
(1.00608 -0.00841895 0)
(1.03331 -0.0152209 2.50005e-21)
(-0.219463 -0.00654466 -2.89583e-19)
(-0.176612 -0.291955 -1.89177e-19)
(-0.0783679 -0.0312662 0)
(1.02972 -0.00319677 -8.12026e-21)
(0.885706 -0.196837 -3.9154e-21)
(0.823785 0.0279414 3.20452e-20)
(0.786895 -0.7181 2.51187e-22)
(1.21627 -0.0334499 -5.50639e-20)
(1.03023 0.000279347 -4.78688e-21)
(1.03249 -0.00134992 3.46634e-22)
(1.03262 -0.0157989 0)
(1.15742 -0.0913777 -5.83789e-20)
(0.990515 -0.0402244 -2.08081e-20)
(-0.0830041 -0.0317486 2.0689e-19)
(0.998236 -0.00432643 0)
(1.01089 -0.0157697 6.91759e-21)
(0.00303892 -0.104821 5.0001e-20)
(-0.0397692 0.0405134 0)
(-0.0916096 -0.164038 8.36097e-23)
(1.01817 -6.87945e-05 -2.10529e-22)
(-0.134925 -0.0828885 -6.97213e-20)
(0.981266 -0.0909317 1.16674e-20)
(0.21819 -0.616751 0)
(-0.124966 -0.0151406 0)
(-0.0856785 -0.108789 -2.47521e-20)
(0.993559 -0.077781 9.45368e-21)
(1.09944 -0.096933 -3.23126e-21)
(1.34247 -0.0675153 0)
(-0.0610483 -0.00759932 -1.37084e-19)
(-0.0491245 -0.00133163 6.42415e-20)
(0.897846 0.0174664 -1.83011e-20)
(1.00003 -0.000540243 1.17617e-20)
(0.92538 -0.0585794 -4.43087e-21)
(1.03405 -0.00419437 -2.94228e-21)
(1.00674 -0.00904454 0)
(0.989936 -0.0380863 1.02939e-20)
(1.00031 -0.00572393 7.31241e-21)
(1 -4.31356e-05 0)
(-0.0379104 -0.0405588 -2.17735e-19)
(0.999981 -0.00199502 0)
(1.17401 -0.142906 -7.39726e-20)
(1.10018 -0.0826012 2.00594e-20)
(0.824938 0.00418628 0)
(1.03 0.000741353 5.26484e-21)
(0.981847 -0.0828703 -5.69492e-21)
(-0.0209704 -0.0806803 0)
(0.354155 -0.0103492 3.08157e-19)
(-0.143675 -0.119294 8.5183e-20)
(1.20922 -0.0352066 1.8094e-21)
(1.0105 -0.0149692 -4.05357e-21)
(0.995884 -0.0806544 0)
(0.992748 -0.00926381 -2.48891e-20)
(1.17679 -0.395446 4.47095e-20)
(1.01592 -0.00162748 1.77415e-22)
(-0.0902087 -0.162975 7.15757e-20)
(0.927508 -0.42241 0)
(1.09263 -0.282707 8.66091e-21)
(-0.118942 -0.0248213 0)
(-0.176115 -0.183774 0)
(1.00058 -0.00297824 3.97568e-21)
(0.997153 -0.0164537 -8.63919e-21)
(1.3043 -0.0489128 0)
(1.18645 -0.383341 -1.25373e-19)
(0.981256 -0.0024671 6.10928e-21)
(-0.174415 -0.00762568 0)
(1.00061 -0.00318843 4.03618e-21)
(0.999629 -0.00238816 0)
(0.45898 -0.820223 0)
(1.01541 -0.00502443 -1.63339e-21)
(1.23942 -0.0123726 0)
(1.03044 -0.00282203 8.75762e-21)
(-0.0600604 -0.131287 5.81746e-20)
(0.998402 -0.00418883 -9.08986e-22)
(1.04675 -0.0144083 0)
(-0.029442 -0.114692 -4.14975e-20)
(0.604605 0.0358294 1.7985e-19)
(1.12311 0.0947024 -5.41327e-20)
(0.9085 -0.0283573 2.20051e-20)
(1.00107 -0.00426534 0)
(1.00277 -0.0219091 -5.40453e-21)
(0.109682 -0.100203 -1.70437e-19)
(1.14959 -0.135205 -2.86335e-20)
(1.02674 -0.00529529 0)
(0.999571 -0.00141053 -1.11627e-20)
(0.884797 -0.125112 -4.88532e-20)
(0.829067 0.0464405 0)
(1.11661 0.0983081 4.81104e-20)
(-0.20579 0.0744849 -1.34725e-19)
(0.999649 -0.00172234 1.07811e-20)
(0.997339 -0.0118577 -1.65668e-20)
(0.628018 -0.456628 1.69561e-21)
(1.00112 -0.0041845 1.55851e-20)
(-0.0466884 -0.138365 -9.71069e-20)
(0.567356 -0.499924 -1.56181e-19)
(0.997137 -0.00306761 -8.88785e-21)
(0.997097 -0.0070904 -1.02143e-21)
(1.0525 -0.0128407 0)
(1.00076 -0.00352815 0)
(1.0328 -0.013844 3.91924e-21)
(-0.147095 -0.0878692 0)
(0.730159 -0.0649672 -3.19099e-20)
(1.01718 -0.177729 -3.87144e-20)
(0.880696 0.0315929 -3.65189e-20)
(1.06222 0.00554028 0)
(1.15903 -0.046116 1.23846e-20)
(0.91522 0.000851274 -9.98792e-21)
(-0.0726751 -0.0523893 -2.7032e-20)
(0.899452 -0.0235713 0)
(0.999962 -0.000270307 -8.13346e-21)
(1.07009 -0.0524448 2.80644e-20)
(1.10413 -0.450232 -3.51073e-20)
(0.980088 -0.0159466 0)
(0.982814 -0.0133375 6.89375e-21)
(0.976045 -0.0121996 0)
(1.01564 -0.00158337 -1.38556e-22)
(0.999405 -0.00937178 2.01081e-20)
(1.01916 -0.0270858 -2.00632e-22)
(0.996546 -0.00342211 -1.81034e-20)
(1.00043 -0.00248149 1.09314e-20)
(0.969904 -0.0554833 0)
(1.08279 -0.0182292 1.03847e-20)
(1.24817 0.02329 0)
(1.01683 -0.000327634 0)
(0.214679 0.136696 5.60441e-20)
(0.91795 -0.0520823 -3.0446e-20)
(0.934684 -0.448763 0)
(-0.0320544 0.0647909 -2.00048e-19)
(1.03769 -0.00139688 0)
(0.0720833 -0.0832957 2.32417e-20)
(1.10585 -0.26377 -1.7781e-20)
(1.03704 -0.00315885 0)
(1.01586 -0.0022364 0)
(0.984957 -0.0246292 1.8362e-20)
(0.0314497 -0.0985342 5.69006e-22)
(1.23457 -0.0259036 -1.64231e-20)
(1.01603 -0.00210584 0)
(0.998648 -0.00288924 -6.05826e-21)
(0.999715 -0.00180267 5.44055e-21)
(0.707288 0.129617 3.7241e-21)
(0.97419 -0.410015 6.78552e-21)
(0.288814 -0.0165695 -1.1257e-19)
(1.00339 -0.00154766 2.60204e-21)
(0.984584 -0.00382295 -2.8385e-20)
(0.854175 -0.0429621 -4.60918e-20)
(-0.25839 0.0636429 1.42914e-19)
(-0.169817 -0.120634 1.15099e-19)
(0.933528 -0.0303267 5.63704e-20)
(1.06725 -0.014868 -1.60069e-20)
(-0.185711 -0.146246 9.17403e-20)
(0.669103 -0.055177 -1.17716e-19)
(1.30876 0.0323815 6.682e-22)
(0.976415 -0.0353488 0)
(1.00981 -0.016014 -8.61412e-21)
(-0.0925306 -0.145981 -4.46036e-20)
(0.994895 -0.0140081 1.06321e-20)
(1.00916 -0.385865 -7.65997e-21)
(0.732605 -0.0126968 4.93116e-20)
(1.02619 -0.0048873 1.03827e-21)
(0.596494 -0.365237 0)
(1.08148 -0.0765974 -3.3246e-21)
(-0.110498 -0.0610167 -9.08426e-20)
(1.00307 -0.0212323 -3.11281e-22)
(-0.0950312 -0.199932 6.16203e-21)
(1.30258 -0.181776 0)
(1.08235 0.0145757 0)
(1.23847 -0.201262 0)
(0.996055 -0.0142408 -2.41068e-22)
(0.81763 -0.675951 0)
(0.998219 -0.00375901 3.26723e-21)
(0.998323 -0.0163558 -1.21009e-21)
(0.99998 -0.00152251 -8.55564e-21)
(0.994777 -0.0102513 -1.03533e-20)
(-0.0234559 -0.134355 -3.14165e-22)
(0.996497 -0.015267 0)
(1.03426 -0.00765343 4.99733e-21)
(0.947176 -0.0234584 4.73919e-20)
(1.02977 -0.00387902 0)
(1.0095 -0.0164743 -4.60484e-21)
(1.04631 -0.21691 5.08447e-21)
(0.983791 -0.0618216 0)
(1.13277 0.00155866 -1.5251e-20)
(1.00206 -0.00477546 -4.88556e-21)
(1.0019 -0.00460275 0)
(-0.026643 -0.0907096 0)
(0.642326 0.0398213 1.87734e-19)
(0.936339 -0.0294973 0)
(-0.184822 -0.142764 6.67051e-20)
(1.07962 -0.019084 0)
(0.984661 -0.0427934 -2.53521e-20)
(0.993368 -0.00106298 -6.54979e-21)
(1.03346 -0.0133108 -9.14427e-23)
(-0.0257269 -0.0370616 7.86721e-20)
(1.03418 -0.00682053 -5.33801e-21)
(1.00169 -0.000679157 -5.74946e-21)
(-0.328 0.0308125 1.22225e-19)
(0.631966 -0.03947 8.19223e-20)
(0.949694 -0.18983 -3.94347e-20)
(1.00317 -0.0104369 0)
(0.999988 -0.000162419 9.91917e-21)
(1.0417 -0.0309996 -9.95614e-23)
(0.999958 -0.00107273 1.39135e-22)
(-0.202307 -0.14508 1.57132e-19)
(0.9717 -0.030091 1.03254e-20)
(0.381839 0.0138453 -7.48803e-20)
(1.07473 -0.00247531 0)
(0.314508 0.4595 -1.54849e-21)
(0.999959 -0.000511031 -9.60333e-21)
(-0.23852 0.038079 -1.3942e-19)
(1.00973 -0.000352841 -1.8754e-21)
(1.06234 -0.415121 -1.09487e-21)
(0.993809 -0.013157 0)
(1.18405 0.102899 -2.16424e-21)
(-0.0280425 -0.146363 -9.9672e-20)
(0.998409 -0.0034962 3.0957e-21)
(0.344107 -0.0366133 -7.13219e-20)
(0.990324 -0.0152948 0)
(1.00016 -0.000134122 0)
(1.02591 -0.00901675 9.34302e-22)
(0.143231 -0.0843525 4.49527e-20)
(-0.0770737 -0.135144 0)
(0.983841 -0.0238125 -1.36909e-20)
(1.08577 -0.0783727 3.87418e-21)
(1.03409 -0.00503836 0)
(-0.19324 -0.149601 -1.55393e-19)
(1.01737 -0.000403657 -1.02638e-22)
(1.07209 -0.193828 1.41641e-20)
(-0.100007 -0.194169 -2.2962e-20)
(0.908656 0.00358065 1.17345e-19)
(1.00229 -0.00117199 0)
(0.800149 -0.148264 0)
(1.0001 -0.000601059 0)
(1.04353 -0.0307432 0)
(1.03237 -0.0177472 -6.07124e-23)
(1.23889 0.028325 0)
(1.00384 -0.00426676 -4.33377e-22)
(-0.164403 -0.145912 5.94504e-20)
(1.0017 -0.00457401 -4.81613e-22)
(0.993589 -0.0426358 2.87182e-20)
(1.13791 0.0276085 -1.90968e-20)
(0.754027 -0.249881 5.61108e-20)
(1.26174 0.0158371 1.72544e-19)
(1.02081 -0.0235968 0)
(-0.194179 0.0451428 -3.4288e-20)
(0.997662 -0.0168066 1.04984e-20)
(0.989181 -0.431073 -9.91878e-21)
(0.986393 -0.00934818 6.82859e-21)
(1.0499 -0.0169961 -8.15664e-22)
(0.995311 -0.0144591 -2.1182e-22)
(1.00163 -0.00466088 1.61073e-20)
(0.999966 -0.000376651 -9.97177e-21)
(0.981413 -0.449896 4.14557e-21)
(1.10412 0.0733662 -2.2428e-20)
(0.271145 -0.0366507 7.11786e-20)
(1.23008 -0.166797 -4.56587e-20)
(0.82975 -0.0638583 0)
(0.905065 -0.14384 2.32669e-20)
(0.524948 -0.797633 -2.30093e-20)
(1.0635 -0.0489188 0)
(-0.203462 -0.141564 -8.26992e-20)
(-0.225734 -0.22336 -1.05017e-19)
(1.05683 -0.435852 1.80259e-20)
(0.787822 -0.183366 6.27999e-20)
(0.911846 -0.00296115 -8.67796e-20)
(1.02347 -0.405644 -2.31653e-21)
(1.04436 -0.0296674 2.84393e-21)
(0.061218 -0.152726 -5.06199e-20)
(1.13521 0.0324648 0)
(1.04769 -0.0172132 0)
(1.07326 -0.449668 1.56268e-20)
(1.00006 -0.000528735 0)
(0.827845 -0.540959 2.67208e-20)
(0.956755 -0.176818 -3.78358e-21)
(1.30611 -0.0269766 5.94975e-20)
(0.884711 0.0219025 -4.11737e-20)
(-0.0406361 0.0328855 0)
(-0.341916 -0.15602 0)
(1.13375 0.0215652 0)
(1.29655 -0.0224432 0)
(0.999764 -0.00119974 -1.28937e-21)
(0.995839 -0.541036 0)
(0.944228 0.00861481 -4.7932e-20)
(0.994117 -0.0127278 -7.3093e-21)
(0.987922 -0.0375185 0)
(1.05501 0.0161283 5.24434e-22)
(1.14165 -0.132093 0)
(-0.103308 -0.110401 -2.21271e-20)
(0.850333 -0.480088 -9.74474e-21)
(-0.331056 0.0433887 0)
(1.05806 -0.0500346 5.37764e-21)
(0.958235 -0.0597107 5.4358e-21)
(-0.113228 -0.0600318 4.17969e-20)
(0.416327 0.122203 8.62414e-20)
(1.06419 -0.018096 -1.37546e-20)
(1.20081 -0.0464501 4.43013e-20)
(0.966667 -0.0339909 1.43535e-20)
(0.232246 -0.721669 9.97804e-22)
(0.00864212 -0.102761 8.96633e-20)
(0.997054 -0.00341845 8.96781e-21)
(0.687616 0.0876948 -6.9996e-22)
(0.652434 -0.419958 -9.15882e-20)
(-0.307219 -0.21586 3.48531e-22)
(1.00379 -0.00137776 3.1199e-21)
(0.922685 -0.0647272 4.11739e-21)
(0.0137057 -0.0742428 8.87795e-20)
(1.11047 -0.0223464 0)
(0.323486 -0.0583337 3.0437e-20)
(1.19095 0.098152 0)
(0.885593 0.0195964 -1.29178e-19)
(0.949089 -0.0867106 -1.46269e-20)
(1.06413 -0.0527153 0)
(1.0251 -0.0340488 0)
(0.985208 -0.00522328 9.14179e-21)
(1.25066 0.132737 3.35305e-20)
(0.999997 -0.000228206 0)
(1.26652 0.141458 0)
(1.2567 -0.144723 -4.48436e-20)
(1.0604 -0.294343 2.70871e-20)
(1.00003 -0.000254353 -5.12034e-21)
(1.00014 -0.00114683 -7.55382e-21)
(1.06255 0.0100365 0)
(1.0425 0.00437276 0)
(1.00703 -0.00111446 0)
(0.98726 -0.0154248 0)
(1.21996 -0.16552 5.41293e-20)
(0.0658586 -0.0879997 6.82637e-20)
(-0.0758762 -0.0874623 -8.10444e-20)
(1.00001 -0.00032053 -8.46026e-21)
(1.15699 -0.395608 1.99231e-20)
(1.00265 -0.00937722 4.65679e-21)
(-0.229909 -0.25113 -5.40458e-20)
(1.16512 0.00738329 8.49621e-20)
(0.775619 -0.0989621 1.57128e-19)
(0.83162 0.0369714 0)
(1.30064 -0.170842 -3.52546e-21)
(1.0106 -0.00559764 0)
(0.99923 -0.00652999 -6.61183e-21)
(0.815694 -0.146163 -3.30482e-20)
(0.994145 -0.0139622 0)
(1.04005 -0.030286 -2.86877e-21)
(1.19423 -0.0793095 -3.63946e-20)
(-0.115195 -0.0643226 -1.02577e-19)
(1.02931 -0.00798393 -9.17922e-23)
(1.25584 0.120053 1.00818e-19)
(-0.163033 -0.132843 4.77356e-20)
(1.07747 -0.0404512 1.97813e-20)
(-0.187883 -0.177154 3.98362e-20)
(-0.15702 -0.137461 5.32849e-20)
(1.0198 -0.0283839 1.54822e-21)
(1.16965 -0.122425 8.57254e-21)
(1.08755 0.0189287 3.1178e-20)
(1.02128 -0.0390773 -2.76241e-21)
(1.02507 -0.00908349 0)
(0.613153 -0.126668 0)
(-0.170647 -0.130152 -2.39635e-20)
(-0.319108 0.0417267 0)
(0.979052 -0.0170665 1.41698e-20)
(0.995361 -0.00324744 1.1991e-20)
(1.02282 -0.0128306 6.34612e-22)
(1.05853 0.0259526 -2.2989e-20)
(0.987153 -0.0617074 0)
(0.973714 -0.0748772 -3.39767e-20)
(0.519519 0.438125 -9.43026e-20)
(1.16322 0.0138816 3.85974e-20)
(1.00047 -0.00268255 -8.08387e-21)
(0.877565 -0.0789033 1.82062e-19)
(1.11481 -0.0297471 2.54827e-20)
(0.839991 -0.0661728 0)
(1.03999 -0.0284671 5.34849e-21)
(-0.347835 0.00634648 4.85565e-21)
(1.07224 -0.0157896 0)
(1.00484 -0.0031044 0)
(1.07271 -0.293491 8.20911e-21)
(0.150604 0.122683 -3.78424e-20)
(1.02758 -0.00521699 -1.40747e-21)
(0.996633 -0.00302849 9.04211e-21)
(0.993321 -0.00882176 -7.9853e-21)
(1.07824 0.01447 0)
(1.01064 -0.00528503 2.34496e-21)
(1.13696 0.0172466 -1.76725e-20)
(1.36222 -0.0867626 8.06728e-20)
(0.996273 -0.0466152 3.09076e-22)
(1.23868 0.0346497 0)
(1.06176 -0.018618 1.32565e-20)
(1.03806 -0.0274048 -6.1785e-21)
(1.20638 0.00521557 -3.68833e-20)
(-0.157131 -0.238455 -1.32009e-19)
(1.31672 0.0792701 -8.41188e-20)
(0.999431 -0.00607466 9.07917e-21)
(1.02874 -0.00480099 0)
(0.847594 0.0808614 5.03264e-20)
(0.904982 -0.0209076 0)
(1.26126 0.144373 1.00895e-19)
(1.02698 -0.00395147 -2.50711e-21)
(0.989386 -0.0152526 -1.00597e-21)
(-0.290771 -0.00308399 -6.08355e-20)
(0.329238 -0.000625406 1.34518e-19)
(1.09167 -0.0918787 1.30223e-20)
(1.24366 0.00214133 6.14215e-20)
(0.688117 0.0267985 0)
(0.996427 -0.0169113 1.12611e-20)
(1.00002 -0.000214629 -3.6171e-23)
(1.01727 -0.0382828 -8.88693e-21)
(-0.191537 -0.169867 -1.27479e-19)
(1.00185 -0.000834954 0)
(0.999997 -5.20224e-05 0)
(-0.069868 -0.0173578 -1.3192e-19)
(0.889879 0.0223999 0)
(1.27284 -0.242301 -1.23813e-19)
(0.837999 0.0188294 -1.3959e-20)
(1.00321 -0.00957458 -5.23559e-21)
(-0.133198 -0.238864 1.73492e-19)
(1.00001 -0.000525726 -5.6126e-21)
(0.988187 -0.0112606 -8.07075e-21)
(1.01593 -0.0376 7.65877e-21)
(0.918504 -0.121487 -2.31399e-20)
(-0.0321056 -0.0415001 -4.90632e-20)
(1.00005 -0.00319499 -6.04847e-22)
(0.992573 -0.00136628 -2.65813e-20)
(0.99378 -0.0143741 1.42984e-20)
(0.995851 -0.0156076 0)
(1.0029 -0.00967915 0)
(1.02492 -0.035321 -1.27261e-21)
(0.674675 -0.158783 -8.74695e-20)
(0.911013 -0.126157 4.96943e-20)
(0.969781 -0.0519619 1.22682e-20)
(1.00026 -0.00474764 -9.33651e-21)
(0.902179 -0.120584 2.53647e-20)
(1.18462 -0.121479 0)
(1.08099 0.0210139 -6.86988e-21)
(0.880473 0.0269578 1.18989e-19)
(1 -9.47889e-05 0)
(1.02274 -0.0121741 -4.75585e-22)
(1.00782 -0.0746529 0)
(-0.0585409 -0.141558 1.21657e-19)
(-0.116143 -0.167293 -1.40002e-19)
(1.05963 0.00595914 0)
(-0.336717 0.026645 -9.23891e-20)
(0.999728 -0.00107985 1.33625e-21)
(0.948893 -0.0810838 -1.36402e-20)
(1.2925 -0.409143 1.55086e-20)
(0.151139 -0.144486 0)
(1.0255 -0.0235005 1.16404e-22)
(0.999984 -0.00262831 8.66996e-21)
(0.431367 0.218807 -1.85385e-19)
(1.18181 -0.0321865 0)
(1.00511 -0.0031511 3.30404e-21)
(0.999926 -0.000773249 0)
(-0.155327 -0.14191 0)
(1.00003 -0.000157869 0)
(1.15523 -0.197043 2.23552e-21)
(0.996788 -0.00705007 5.34667e-22)
(0.346671 0.0283604 -1.96215e-19)
(0.999936 -0.000853246 2.4926e-21)
(1.01059 -0.000197742 -1.53178e-21)
(0.998777 -0.00291927 1.37559e-20)
(1.06468 -0.119276 -4.93174e-21)
(1.04123 0.00442185 0)
(0.932669 -0.053311 0)
(0.901648 0.0151518 0)
(0.536749 0.107721 -4.83526e-20)
(1.00593 -0.00944782 5.7038e-21)
(0.999627 -0.00920205 -4.96543e-21)
(1.00007 -0.000361165 -5.38165e-21)
(0.998772 -0.0166953 -1.51166e-21)
(1.04495 -0.0266767 1.00083e-21)
(1.04332 -0.00703835 0)
(1.1014 -0.0881679 1.39013e-20)
(0.998466 -0.003128 -9.29014e-22)
(1.17898 0.00724325 -1.13148e-19)
(-0.125223 -0.122866 -3.87445e-20)
(1.14988 -0.0910598 4.80167e-20)
(1.20001 -0.0848095 4.50256e-20)
(0.999676 -0.00150587 -9.46074e-21)
(1.03314 -0.0170687 -2.39569e-21)
(-0.271135 -0.00274067 -8.36612e-21)
(0.624503 0.0632469 4.10842e-20)
(1.02464 -0.00840962 0)
(-0.196456 -0.171 -5.02421e-20)
(-0.341144 0.00692032 2.61674e-19)
(1.02907 -0.00514046 0)
(0.992312 -0.00179272 1.28908e-20)
(1.00265 -0.0147027 0)
(1.13225 -0.269178 5.51227e-20)
(1.18071 0.0122789 6.69874e-20)
(0.132572 -0.104805 0)
(1.00652 -0.00934346 -3.80684e-21)
(1.02687 -0.0949647 0)
(1.00664 -0.00688089 0)
(0.967163 -0.0295491 4.94994e-20)
(1.0097 -0.000288048 -5.39259e-22)
(1.03983 -0.313656 1.85722e-20)
(1.04521 -0.0252633 -3.45584e-21)
(1.25382 -0.253549 0)
(0.999582 -0.00541549 -6.92178e-22)
(0.90573 -0.267566 5.67825e-20)
(1.00516 -0.00882576 -6.20136e-21)
(0.96302 -0.0557331 1.42614e-21)
(0.986463 -0.0113305 1.93568e-20)
(1.10305 0.0659917 -2.40481e-20)
(0.722526 0.129268 5.11156e-20)
(-0.330077 0.0290186 -1.09421e-19)
(0.7535 0.149831 6.44591e-21)
(-0.196264 -0.168067 5.01781e-20)
(1.17342 -0.0403047 0)
(0.988968 -0.0163187 -1.51839e-20)
(0.545036 -0.741418 2.02399e-20)
(0.0726725 -0.115981 0)
(1.19413 0.0167967 6.90522e-20)
(1.0422 -0.0237521 -4.22617e-21)
(1.00019 -0.0056353 5.68368e-21)
(0.169157 0.241028 1.47064e-19)
(1.00297 -0.0151888 -7.38395e-21)
(-0.0353763 -0.0345599 1.22256e-19)
(1.03094 -0.00163082 -1.89469e-21)
(1.10883 0.00608123 3.79691e-20)
(1.04821 -0.0240511 1.83293e-20)
(0.999957 -0.000118708 0)
(1.02542 -0.0247683 0)
(0.534535 -0.033687 -2.35403e-19)
(-0.171137 -0.159252 1.40364e-19)
(-0.0377023 -0.0216539 -5.02673e-20)
(0.659945 0.0464775 -1.53011e-19)
(-0.234527 -0.00945681 -1.10516e-19)
(0.994604 -0.00978851 0)
(-0.0437865 -0.117097 8.04596e-20)
(0.0889324 0.00674551 1.06411e-19)
(1.00002 -0.000110806 -6.77815e-21)
(0.992739 -0.0406253 9.6727e-21)
(1.01216 -0.00739002 0)
(1.11502 0.0368247 0)
(1.02546 -0.00506322 -2.14643e-21)
(-0.289145 0.0350745 0)
(0.846163 -0.0487463 4.97542e-20)
(1.27126 -0.0947845 -2.19985e-20)
(1.00965 -0.050871 -2.86373e-21)
(1.23004 -0.431013 5.40753e-20)
(-0.144609 0.0211757 2.03463e-19)
(0.16597 0.0379615 2.68933e-19)
(0.934038 -0.120178 0)
(1.11445 -0.0743555 3.07149e-20)
(1.00209 -0.00122402 5.36049e-21)
(0.266298 -0.116686 1.71572e-20)
(1.02634 -0.00306546 2.62214e-21)
(0.402813 0.314352 0)
(1.3033 -0.100624 -8.68041e-20)
(0.794862 -0.254139 -3.8799e-20)
(0.173545 -0.00154845 -1.14412e-20)
(-0.0586633 -0.145807 2.31848e-19)
(1.07222 -0.0377766 1.02641e-21)
(1.01453 -0.074402 0)
(1.00399 -0.00459502 -4.2103e-22)
(1.18003 0.119665 0)
(-0.257132 0.062299 1.37761e-19)
(-0.177243 -0.0143419 -9.99318e-20)
(1.01134 -0.00698231 0)
(0.214384 0.625565 -5.8345e-21)
(1.07722 0.0205373 2.91578e-20)
(1.25901 0.0125681 0)
(0.562771 0.110982 0)
(-0.122403 -0.0705952 -8.90039e-20)
(-0.11558 -0.0710179 1.08644e-19)
(1.03224 -0.000633706 -3.75035e-22)
(0.914628 -0.0558134 -3.87317e-21)
(1.11986 -0.0178401 0)
(1.07429 0.000426392 8.79478e-21)
(1.0638 0.0119224 -8.8212e-21)
(-0.0943069 -0.171565 1.24839e-19)
(0.999749 -0.00188761 -8.80958e-21)
(0.289438 -0.033025 1.26145e-19)
(1.01727 -0.000302655 -2.84345e-22)
(1.03135 -0.000472061 -1.59199e-22)
(1.12111 -0.248324 0)
(1.25341 -0.0013774 1.23878e-19)
(1.18757 0.050191 1.23121e-19)
(1.04962 -0.0399557 8.66592e-21)
(0.677677 -0.34897 1.45656e-20)
(0.75266 -0.206349 -5.60813e-20)
(1.27174 -0.373066 -1.62921e-19)
(0.893464 0.0159 0)
(1.00012 -0.000560888 5.52723e-21)
(1.0479 -0.0413219 0)
(1.00015 -0.000581728 -7.81211e-21)
(0.984681 -0.0124656 0)
(1.26309 -0.388218 -1.24925e-20)
(1.27106 0.146471 -1.08557e-19)
(1.02844 -0.0439147 2.65409e-23)
(0.985507 -0.00983481 -1.74e-20)
(1.12421 -0.00992117 0)
(0.189675 -0.149913 2.74068e-19)
(1.01795 -0.102223 0)
(0.986119 -0.00204397 1.40842e-20)
(0.381573 0.111045 7.31991e-22)
(0.993477 -0.0101122 -6.29319e-22)
(0.999978 -8.87123e-05 0)