/*--------------------------------*- C++ -*----------------------------------*\
| =========                 |                                                 |
| \\      /  F ield         | OpenFOAM: The Open Source CFD Toolbox           |
|  \\    /   O peration     | Version:  v2012                                 |
|   \\  /    A nd           | Website:  www.openfoam.com                      |
|    \\/     M anipulation  |                                                 |
\*---------------------------------------------------------------------------*/
FoamFile
{
    version     2.0;
    format      ascii;
    class       volScalarField;
    location    "300";
    object      p;
}
// * * * * * * * * * * * * * * * * * * * * * * * * * * * * * * * * * * * * * //

dimensions      [0 2 -2 0 0 0 0];


internalField   nonuniform List<scalar> 
10042
(
-0.00437358
-0.068219
0.00981164
0.00736561
0.00517506
-0.0248882
0.00735116
-0.00874255
0.000488267
0.0151456
0.00119166
-0.0488692
0.00680386
0.00229909
0.00661634
0.0021339
-0.0519731
0.0008251
0.00223189
0.0103482
0.00791908
-0.0044336
0.00730665
-0.0065987
0.00582711
0.000595252
0.0150359
0.000525834
-0.0383214
0.000469107
0.00436235
-0.00552167
0.000478614
0.000495012
-0.00868482
-0.0110427
0.00864744
0.00129933
0.00431648
0.00177458
-0.00190053
0.000512812
0.0337835
0.0190708
0.00674334
0.00579414
0.000530249
0.00678888
0.0156651
-0.00862312
0.0320052
0.00626244
-0.0378053
0.00257571
-0.0481778
-0.315046
0.00746222
0.00034717
0.00730343
8.78914e-05
0.0159829
-0.00942991
0.0271051
-0.00588178
0.00304094
0.00488105
0.00983532
-0.00532983
0.000570536
-0.00540499
0.0309847
0.00910697
0.00145913
0.00730075
0.00491789
0.0349776
0.00655779
0.000525139
0.00469397
0.00162588
0.0135105
-0.00256686
0.00512167
0.00553745
0.0131944
0.0175147
0.00957739
0.00980753
0.00453258
0.00665007
0.00398695
0.00650948
0.0242846
0.0172643
-0.00818419
0.00744451
-0.0652412
0.0100516
-0.0160315
0.00719256
0.00406407
0.0168166
0.0081773
-0.0070579
0.00442895
0.00789561
-0.187885
0.00507993
0.00138718
0.00794361
0.00747694
0.00904531
0.0168426
-0.00525219
0.00291611
0.000614949
0.000498792
0.00439599
0.000372206
0.00070322
0.000153546
-0.0394461
-0.0184723
0.00677056
0.00573965
0.00451065
0.00447977
-0.077978
0.0226616
8.25242e-05
0.000937101
0.00498921
0.00457964
0.0055813
0.0121269
0.00938013
0.00918216
-0.204982
0.00561231
-0.0211027
0.0187601
0.000780188
-0.216862
0.000551908
0.00996142
0.00125887
0.0131462
0.000584962
0.00869485
-0.0259566
0.00514783
0.000869284
0.0055371
0.00798175
-0.00602506
0.0103753
0.0231454
-0.323567
0.00460303
0.000517396
0.00556415
0.00150084
0.000953686
0.00454984
0.0059178
-0.032427
0.00132567
-0.00561392
-0.0110698
0.0004943
-0.0228937
-0.00330658
-0.0228343
0.00046674
0.00315407
-0.0264087
0.00616661
0.00119844
0.00496253
0.000547423
0.00581419
0.00618862
0.00719519
0.00065679
0.000280975
4.68154e-06
0.00915221
7.87895e-05
0.00519688
0.00283691
-0.064879
0.00814683
0.000948531
0.00597803
-0.146101
0.00659717
0.00285354
-0.0240336
-0.0649659
0.00558567
0.0223953
0.0226681
-0.020685
0.000559913
-0.0152223
0.00453489
-0.0125516
0.00802966
0.00754174
0.00566786
-0.00679362
0.000523419
-0.0240147
-0.0204056
0.00792665
-0.0052203
0.000539128
-0.0444335
0.00697879
0.0260932
-0.00837508
-0.0147623
-0.0167664
-0.00513589
0.00735283
0.025059
0.00820972
0.00892329
0.0142184
0.0081912
0.00114882
0.00465499
0.000882655
0.0046069
0.00609319
-0.0120606
0.00815133
-0.0733456
0.00940337
-0.010767
-0.0803539
-0.0469664
0.00012877
0.00235644
-0.0225354
0.00520407
-0.0601999
0.00945448
0.00555095
0.00508637
0.00404128
0.000889618
-0.00544145
-0.0018759
0.00848084
0.00798467
0.00299319
0.00837038
-0.0671874
0.00675579
0.00425445
0.00151278
0.00618187
0.000513289
0.00694896
-0.00136693
0.00674483
-0.00385374
0.00397997
0.00465624
0.00826752
-0.00956441
0.00345428
0.0302775
0.00815064
0.000344208
0.00347453
0.00638563
0.00439019
-0.166882
0.000507573
-0.042188
0.000548422
0.00379459
0.0099277
-0.106765
0.00126218
0.000404724
-0.0034138
0.000976687
0.00858282
0.00192188
0.00812625
-0.0143246
0.00212464
0.00151451
0.0114946
0.00867497
0.00831015
0.000494117
0.00587348
-0.0235088
1.6379e-05
-0.0615777
0.00182155
-0.000873488
0.00347395
0.00194011
0.0109498
-0.0159078
0.00854616
0.00545233
0.00744029
0.00169607
0.0021385
-0.00346809
0.000509645
0.00159599
-0.0154836
0.000645206
0.000654048
0.0229422
0.000228677
-0.00330712
-0.00127441
0.00807593
-0.00376564
0.00486232
0.00844713
0.00838931
0.00472335
0.00767928
-0.00427035
0.00162679
-0.0121984
-0.00485121
-0.198139
-0.004171
0.000894406
-0.0267165
0.0192433
0.00972782
0.000170528
-0.00275463
0.00577354
0.00109285
0.0035844
0.00564024
0.00338373
-0.066335
0.00531078
-0.00433111
0.00357467
-0.000337992
-0.0308839
-0.00527601
0.00827598
0.0049925
0.023674
0.000527358
0.007843
0.00863443
0.00623417
-0.035737
-0.0333879
0.00568765
0.00576912
0.00409289
0.00380941
-0.134993
0.000150069
0.00575907
0.00355882
-0.000131299
0.0176924
0.0040164
0.000313029
-0.117188
-0.0104362
0.0174948
0.0077201
-0.110929
0.0143343
0.00490992
0.00903326
0.000665039
0.00556009
0.000690765
0.00434579
0.000407933
0.00801156
-0.304629
0.00549083
-0.00355775
-0.0248017
0.00950966
0.00767827
-0.00696908
0.00993049
-0.00339894
0.00630974
-0.0594584
0.00201336
-0.0265206
-0.09812
-0.000356629
0.0178639
-0.000713201
-0.0728782
0.00785757
-0.0123906
0.00954722
-0.0421925
0.00576482
-0.00253085
0.0035811
0.0110124
-0.0908364
0.000463305
0.0036406
0.0012618
-0.0303902
0.00104625
0.000681902
0.0212135
0.00408288
0.0138844
-0.0067146
0.0066836
0.00911516
0.00398677
0.000524437
0.00992204
-0.0110041
-0.000624784
0.00635275
-0.127724
0.000489069
0.000637811
-0.332343
0.000603223
0.00248247
0.00880291
0.0193813
0.00889406
-0.00122421
-0.00209571
0.00914648
-0.00789589
0.000729663
0.000220707
0.0127255
0.0128672
0.00843844
0.00732472
0.00367188
0.00201586
-0.342284
0.000667169
0.000997155
0.00513397
0.00752644
0.000340725
0.000373466
0.00441472
0.00834808
-0.00449645
0.00320854
0.00257005
-0.0173343
0.00287717
0.000149924
-0.0915016
-0.118618
-0.0272475
0.00166911
-0.00423607
0.000696832
0.0145981
0.00798119
-0.0165445
0.00592206
-0.0220661
0.000841422
0.00331542
0.00073323
0.000127824
-0.00814744
0.000446181
0.0043873
0.00557073
0.0219492
0.00145016
-0.00725776
0.00780102
0.0175588
-0.000300187
-0.0126195
-0.0121546
-0.029112
0.00755857
0.00564332
-0.0490185
0.0248039
0.0134531
-0.00672916
0.00331512
0.00137735
0.0128269
0.0119742
0.00891492
-0.0118191
-0.000268006
0.0071787
0.00792148
-0.00121029
0.0068873
-0.0853766
0.00753418
0.00753441
0.000194418
0.0110783
-0.0077692
0.00815692
0.00660672
-0.0193304
-0.0233522
0.0124728
0.00806707
0.00469577
0.00158512
-0.0287105
0.00776154
0.000277622
0.00674839
0.00749229
0.00764687
0.0127209
0.000993863
-0.0152577
0.00583359
0.0150837
-0.000328704
-0.0403021
0.00695625
-0.00291785
0.00708581
0.00138116
-0.0155771
0.000135433
-0.140847
0.0134584
0.000602407
-0.00161419
-0.195114
-0.0249684
-0.0103282
0.00138577
0.000275628
0.000603015
0.000849496
2.32146e-05
0.00789443
0.0156478
0.00750177
0.000111229
-0.0943705
0.0050393
5.89859e-05
0.000538991
0.00483536
-0.0671441
-0.0407163
-0.000370689
-0.0114906
0.00857254
-0.00133701
0.000127434
0.000560053
0.00540854
0.00533828
0.00775716
0.00264854
-0.0809702
0.00630422
0.0155165
0.00623297
-0.000523644
0.000488731
0.0128992
-0.0592519
0.000649619
0.00635424
-0.00100194
-0.0180757
0.000470111
-0.009208
0.00563866
-0.00303661
0.00136175
0.00656824
0.00139946
0.0183921
0.000488602
0.00452894
0.00398753
-0.0202811
-0.000121001
0.00534138
0.00224958
0.0110227
0.00763966
0.00658939
0.00078966
0.00664934
0.00899266
0.00625427
-0.000530499
8.68475e-05
-0.074793
0.0113268
-0.00697683
0.00769875
-0.00193671
0.00692282
0.0119887
0.00991229
-0.0130061
-0.00841984
-0.0112125
-0.00343209
-0.0623424
0.00863933
0.00769049
0.0126078
0.0105627
-0.00346636
0.0111503
0.00689103
-0.0503898
0.00471246
0.00762178
0.000108504
0.00144149
0.00571807
0.00931063
0.00408515
0.000479931
-0.25396
0.00733516
0.0123304
0.00134137
0.00372348
-0.00601988
0.0032678
-0.014695
0.00457663
0.00549877
0.0157813
0.00751538
8.9329e-05
0.00415483
0.00470801
0.00487278
-0.00419743
0.0128444
0.0176572
0.00695622
0.00456673
0.00479091
-0.0520777
0.00928507
0.00471486
0.000502156
0.00373707
-0.0508818
-0.0238072
0.00368372
0.00824725
0.00903528
-0.0594048
-0.00255301
0.00350159
0.0129023
-0.00200612
0.0108691
-0.0511753
0.00467176
0.00196091
0.00453076
-0.00373418
0.00464406
-0.00271371
0.00454735
0.000197946
-0.00442028
0.00442969
0.0146835
-0.00507559
0.000438271
0.00665483
0.000689412
1.00859e-05
0.00137212
-0.0237231
0.00416661
-0.00416271
0.00459309
0.00132111
0.000668002
0.00715917
0.0076625
0.00029636
0.00800435
0.00602751
-0.00457689
0.00305711
-0.0118336
0.00902523
0.0104973
-0.0011845
0.00940238
-0.24702
0.00597563
0.00447145
0.00198735
0.00117662
-0.0112531
0.0046316
0.00756357
0.000149617
-0.132142
0.00133296
-0.00285178
0.0120982
0.00456065
0.0184855
-0.00373469
0.000621089
0.00143905
0.0117923
0.00584485
-0.157932
-0.00293743
0.00500699
-0.00564887
0.00713081
0.00751565
0.00510729
0.0115384
0.00243078
-0.00690065
0.0101979
0.00016821
0.00115103
0.00947871
0.00854728
0.00599272
-0.029513
0.00611284
0.00779711
-0.0108439
0.00463567
0.0111187
0.0124
0.00953645
-0.00139221
-0.000570418
0.00449003
0.00474093
0.0136001
0.00367726
0.0114982
0.00624344
0.0136072
-0.00353264
0.0167094
0.00466571
0.0115963
0.00431615
0.00599766
0.0118518
0.000576336
0.0133439
0.00452918
0.00575506
0.00120183
0.00663398
0.00495078
0.0134117
0.00450032
0.00683641
-0.000940683
0.000608311
0.00460998
0.00636923
0.000701945
0.00528163
-0.00082429
0.00857034
-0.00182122
-0.00102556
0.00766729
0.000385128
-0.151344
0.00363559
0.00469173
0.000706786
-0.00683034
-0.0021833
0.0052568
0.00443043
0.0146867
-0.00568097
-0.198889
0.00431222
-0.00932478
0.0103711
-0.0112435
-0.000490496
0.000459258
0.00123877
-0.0128422
0.0127019
0.00614789
-0.142636
0.00393597
-0.00200409
-0.0104744
0.00447609
0.00767203
-0.146441
0.000872375
-0.00435469
0.0116551
-0.121219
0.00837294
-0.0390633
0.00756396
-0.00134944
0.00460844
-0.000120134
0.00018644
0.00763608
0.00652116
-0.00488009
0.00439577
0.000208048
-0.121072
0.00764532
0.00485157
0.00424228
-0.0067805
0.000353322
0.00671774
0.00703078
0.00471307
0.00735245
-0.00340718
0.00489932
-0.13848
0.0038532
0.00810467
0.00434089
0.0141244
0.00468026
0.0138553
-0.000893985
0.00266711
0.0073931
0.000598192
0.00479817
0.0081844
-0.0197686
0.0120366
0.00474678
0.011275
0.000712644
0.00656571
-0.0119032
0.000624777
0.00791005
0.0114537
0.00545882
0.0124519
0.00522342
0.0142295
0.00347098
0.0117279
-0.00229312
0.0074917
-0.0542152
-0.0503072
0.00626479
0.0128795
0.0207481
-0.179478
0.0118614
0.000603311
0.00143502
0.00452954
0.00779618
-0.000199615
-0.0519882
-0.00117449
0.00061751
-0.000829085
-0.0303471
-0.00114576
0.000587198
0.000664929
0.000545366
0.00684513
-0.0659603
-0.00770684
5.00046e-05
-0.000725382
-0.0127922
0.00525258
0.0067951
-0.0830666
0.00965211
-0.0469445
0.000256427
0.00250843
0.00687525
-0.000746306
0.0123611
0.00126776
0.00515802
0.00312147
-0.0352814
0.0157499
0.00511941
0.00953099
-0.0940125
-0.000105946
-0.00815423
-0.0056932
0.00770759
0.00478055
0.0181839
-0.0374423
0.00424871
-0.000131635
0.00169742
0.00453515
0.00882386
0.00433971
0.00456793
0.000722358
-0.00128807
0.00451616
0.00647471
-0.0486247
0.00348309
0.00145247
0.0136577
0.00223277
0.00362078
0.00475547
0.00739287
0.0187628
0.0146492
0.0066553
0.0118753
-0.0549729
0.00549133
0.000416667
-0.00049513
0.0120897
0.00473418
0.00459443
0.00473236
0.000805804
0.00144424
-0.100816
0.00498813
-0.00386749
0.00761582
0.0116584
-0.00010758
0.00583989
-0.000642751
0.000253488
0.00495027
0.00744495
0.00430739
-0.00488985
-0.00232927
0.00376387
0.00396702
-0.0604098
0.00549721
-0.000215117
0.00609363
0.000952688
0.00377349
0.00641678
0.00252102
-0.227868
-0.00251195
-0.00042065
0.00887745
0.00178779
-0.00252106
0.00359771
0.00163716
0.00945366
0.000197626
0.00346133
-0.0330295
0.00488053
-0.00341331
0.000658189
0.0016229
5.26843e-05
0.0113302
0.00454005
0.000137825
-0.0761419
0.00351674
0.00699506
-0.00061691
0.00464473
0.00245889
0.00622346
0.0124534
0.00240517
0.00405597
-0.0068035
0.010362
0.00773078
0.0141344
0.00429929
0.00457863
0.00052757
0.0060045
0.00590326
0.0160879
0.0125973
-0.030365
-0.00969939
-0.00684131
0.0118361
0.00268354
0.00336811
-0.0253786
0.000433006
-0.00121789
0.00699572
0.00490153
0.00856202
-0.228658
-0.0249865
0.00737913
-0.0127137
0.00141495
0.0125371
0.00230583
0.00858773
0.000645207
-0.00168445
-0.0118391
0.00662522
0.000396083
-0.0442161
0.0191172
-7.51883e-05
-0.000230891
-0.00510748
0.00509732
-0.0126916
-0.0222055
0.0048009
0.00328425
0.00466496
0.0097996
0.00029513
0.00698564
0.0067603
-0.000731202
0.00488016
0.00727273
-0.000573757
-0.0181145
-0.00334888
0.000597672
0.0159888
0.00423049
0.0031736
0.0139231
0.0114451
0.00471235
-0.00965294
0.0138002
0.00054309
0.0139042
-0.00652945
0.00622279
0.00334681
0.000574065
-0.00351429
-0.00627771
0.000106676
-0.0387957
0.00483809
0.00748222
-0.0586496
0.00242587
-0.000417084
0.00140709
-0.000572875
-0.000105637
-0.000370842
0.00678556
0.000587959
0.00891434
0.000509933
0.00684352
-0.0272956
0.000433123
0.0107462
0.0113648
-0.00217743
0.00363509
0.000957806
0.000582588
0.0153709
0.00356636
0.00517948
0.00054562
-0.0101516
-0.176718
-0.250285
0.0076148
0.000486333
-0.00204484
-0.0227995
0.00439057
-0.00293581
0.00453169
-0.0101574
-0.00258564
0.0028267
0.0282916
-0.0049887
-0.040824
-0.087754
0.0159694
-0.00301513
0.00299301
0.000465211
-0.00445432
0.0175755
0.00871475
-0.01017
0.00444992
0.00460595
-5.23191e-05
0.000409067
0.0187615
0.0110936
0.0118649
0.0115703
-0.0216849
0.00314231
0.0059286
0.000451933
-0.0382538
-0.00245687
0.0117187
-0.035758
0.00831064
0.00849061
0.0108846
-0.0615598
0.0142841
0.0044745
0.0124099
0.00580213
0.00558267
0.00407161
0.000619492
0.00103907
0.00757125
0.00243361
-0.0070841
-0.00788867
0.00795541
0.00438056
0.00572877
-0.00614548
0.00517442
0.0234778
-0.0108559
0.00540632
0.000680078
0.000505612
0.012156
0.00052169
-0.000126352
0.000369038
0.00397658
-0.0599322
0.00876331
0.0048208
-0.00322163
0.00629579
0.00329723
0.00614498
0.00758464
-0.127462
-0.030357
0.00845121
0.0305754
0.000418001
-0.00304738
0.00364666
-0.000469524
0.00220774
0.00815886
0.0121417
-0.0412044
0.00536136
0.00110061
-0.00398659
0.00339166
0.00909998
-0.0256997
0.0129485
-0.00374064
0.00575495
0.000500385
-0.0239383
0.000567828
-0.00190166
-0.00817338
0.0171513
-0.00956932
0.00846786
-0.000449276
-0.0125313
-0.0127216
0.00451176
0.0145797
0.00522029
0.00455339
0.0166426
0.00402796
0.00717791
0.0110651
0.00923318
-0.000450868
0.0035212
0.00637908
0.0078459
-0.0386702
-0.00380702
-0.0108289
0.00763652
0.00226654
0.00488807
0.00795254
-0.0242931
0.00723868
0.0019894
0.00100533
0.00762477
-0.00964687
-0.00713908
-0.00546078
0.000669001
0.00104045
0.019818
0.0119682
0.00854499
0.000263515
0.0037045
-0.022956
0.00931049
-0.0424013
-0.00304706
0.000829272
-0.0347991
0.000657095
-0.0591023
0.00638586
-0.0771203
0.00468378
0.00295309
0.000440638
0.000234877
0.0050057
-0.000108304
0.000547498
0.00477685
0.00892255
0.00856251
-0.0343079
-2.10173e-05
0.00309502
0.00642277
0.00629971
0.00448923
0.000107478
-0.18592
-0.00165329
0.00753941
0.00452768
9.77812e-05
0.0095962
0.000722468
0.000437246
-0.00347442
-0.170808
-0.0149056
0.000107878
0.00469111
0.00881977
0.00341064
0.00312128
0.00764071
0.00817841
0.00442685
0.00778258
0.00516911
-0.00127444
-0.0440399
-0.0613031
0.00185219
0.00616106
0.00451621
-0.0571769
0.000663391
0.00808511
0.00692955
0.00170501
0.00735028
0.00660783
-0.0341462
0.00538237
-0.0145704
-0.00205454
-0.00484336
0.00760413
0.00185452
-0.021148
0.0060916
0.0120868
0.00649792
-0.00332563
0.00131829
0.000505139
0.0143298
-0.00637934
0.00232328
0.00727883
0.0124782
-0.000313896
-0.00639226
0.00649931
-0.004985
0.00759122
0.000989257
-0.00526705
0.0199747
0.0162457
-0.000241526
0.00384462
0.000472219
0.00675566
0.0112902
-0.0141331
-0.0106487
0.00315981
-0.0238019
0.00739218
-0.0865517
-0.0125545
0.00606535
-0.0423846
0.0117183
0.00393824
0.0143623
0.0111626
0.00743236
-0.00652102
0.00506772
-0.248016
0.000175458
-0.294426
-0.0402956
0.0106893
0.00741364
-0.00236978
0.00781102
0.00487539
0.000708867
9.87826e-06
-0.016521
0.00445106
0.012768
-0.0301544
-0.0704393
0.0129594
-0.000912689
1.70814e-05
-0.186204
0.000159855
-0.0143747
0.0261417
-0.11208
0.0325773
-0.00234708
-0.146995
0.000556291
0.00744181
0.000514061
0.0172381
0.00505714
0.0117363
-0.00114781
-0.03646
0.00431167
-0.000134481
0.000173216
0.00709593
0.000486046
-0.00385567
0.00612931
-0.0924879
0.00224473
0.00622873
0.00649715
0.00502509
0.0208158
0.0082382
-0.0186358
-0.00470572
0.00780639
0.00159854
-0.0257782
0.00352286
0.00407349
-0.0339922
0.00446736
-0.0109335
0.0050321
-0.0542507
0.00613896
0.000554069
0.000648152
-0.00494025
0.00896095
-0.0159249
-0.0398359
-0.0510673
0.0259532
0.00259408
0.00146242
-0.00066826
-0.00672567
-0.00766988
0.0219568
-0.000466325
-0.0304318
-0.0132019
-0.00424458
0.00321116
-0.00288592
0.00681047
0.00943269
0.00726813
0.00510221
0.00662015
0.00531146
0.000194349
0.00203716
0.00539805
0.00556664
-0.149793
0.00387028
-0.00568976
0.0189455
0.0274739
-0.00392239
-0.00833037
0.000276219
0.00584319
-0.0200523
-0.00361328
0.0110384
-0.00216998
-0.223
-0.00783948
0.00456872
0.00793588
0.00960861
0.0183904
0.0115857
-0.00370108
-0.0310915
0.000405002
0.00755129
0.00735143
0.0196626
-0.00473008
0.00962691
-0.00644121
0.00612749
0.0070444
0.00286447
-0.0670044
0.0040879
0.00109356
0.00562107
0.00371018
0.0128224
-0.00234179
0.00592726
0.0168412
0.0007112
0.00324383
-0.0315985
0.00685548
0.0109695
0.00741443
0.0118748
-0.00718139
0.00707213
0.00223627
0.000537093
0.00859524
0.0240232
0.011047
0.00498816
0.00626831
0.00624419
0.0116689
0.0126583
0.00489475
0.00657477
0.000683622
0.00636867
-0.0196738
0.00725501
0.0100615
0.00572252
0.0228602
-0.00945768
-0.00165385
-0.259938
-0.000414551
0.00806593
-0.023787
0.00548548
-0.0176285
-0.0227283
0.00683969
0.00199488
-0.0864047
0.008158
0.0114109
0.0070864
-0.0170557
-0.00978152
-0.00733732
0.00641169
0.00614357
0.00747028
0.00761621
0.0068602
0.000611704
0.00779265
0.00617242
0.00386239
0.00698483
0.00628776
0.00177582
0.0068215
-0.026872
0.00729409
-0.26554
0.00426489
0.0074843
-0.0690052
0.00700605
-0.19389
0.00393057
0.0074364
0.00727525
0.00498867
-0.00734473
0.00548189
-0.211856
0.0090468
0.00565469
0.012008
0.00232554
-0.0411766
0.00707248
0.000644751
0.00028103
-0.374496
-0.140103
0.00421125
0.00543975
0.00798973
0.00481336
0.00260667
0.0117536
0.00440278
0.00812806
0.00693314
0.00762289
0.0157005
-0.00877534
0.00454649
0.0137511
0.00814304
0.000614408
0.00470489
0.00848134
0.00552779
-0.114581
-0.281907
0.00501072
0.00740305
0.00628374
0.00445362
0.0289914
-0.168449
0.0154626
0.00727129
-0.0110991
0.00327333
0.00423823
0.0236632
0.00457442
0.00661584
-0.00119107
0.00404679
-0.00236168
0.00239254
-0.00446959
0.0022186
0.00751518
0.0211348
0.00237232
0.00132307
0.0069097
0.0102144
-0.00305446
0.00539212
0.00230356
0.00777714
-0.0766477
-0.0549682
0.0067943
0.00803327
0.00439231
0.000442662
0.00469392
0.000203751
0.00564634
0.00235901
0.00717108
-0.000770512
-0.00628395
0.00755286
-0.247714
0.00446583
0.00705926
-0.00746066
0.00704518
0.00720546
0.000329473
0.00769225
-0.0636426
0.00453327
0.0044315
0.00525783
-0.00114614
0.00203424
-0.00123424
0.00602336
0.00569369
0.00689355
-0.0304444
-0.359034
-0.0112091
-0.0719406
0.0100589
0.00299728
0.00745142
-0.0213916
0.00800048
-0.120728
0.00737848
-0.00168851
0.00559316
-0.0164821
0.00432144
-0.0305132
0.000484747
0.00602596
0.0103363
0.00780737
0.00291699
-0.0245849
0.00390849
0.00719561
0.00439143
0.000477059
0.000972677
0.00616145
-0.0436226
0.00354408
0.0064619
0.00605335
0.00564146
-0.211864
-0.023567
0.00551367
-0.095587
0.0067883
0.00732465
-0.017797
0.00674484
0.00295564
0.00428544
0.00771835
0.000351366
0.00461857
0.00788655
0.00752343
0.00779107
0.0184599
0.00773915
-0.0109137
0.00989009
0.00756013
0.0166149
0.000515983
0.00200761
0.0156102
0.00591178
-0.020817
0.00657145
0.0165888
-0.0289859
0.00395467
-0.0257191
-0.0140172
0.00767338
0.0077319
0.00529579
-0.045089
0.00698879
-0.010963
-0.00208847
0.000322551
0.00690881
0.0140747
0.0129063
0.00146261
-0.00314482
0.00649952
-0.0311243
-0.00763737
0.010851
-0.0711191
0.000437635
0.0253218
-0.0756831
0.0237628
0.00725411
0.00367279
0.00721194
0.00767173
0.00170641
0.00726564
-0.0314095
0.00570741
0.00179726
-0.0347013
0.00607168
-0.00296811
0.00336753
0.00123381
0.00704478
0.00449685
0.03391
0.000283948
-0.0163714
0.00218038
0.00341582
-0.0478771
0.00665683
0.00625736
0.000475703
0.00794105
0.00543468
0.00220624
0.00631886
0.00793899
-0.00215369
0.00316738
0.000430774
0.00862505
0.00836829
0.0196881
0.00249138
0.037584
0.00620182
0.00906985
0.000977585
0.00674874
0.000997084
0.0189015
0.00154536
0.0325849
-0.0219994
-0.00113525
0.0101307
0.0047427
0.00937771
0.00587937
0.0043195
-0.00095605
0.00852019
0.00753687
0.00294345
0.00766403
0.00713562
0.0179941
0.00914713
-0.0500658
0.00222117
-0.0264647
0.00518029
0.00640293
0.00250802
0.0105736
0.00911603
0.0199863
-0.00164364
0.00528046
0.00727871
0.00431914
0.000409506
0.0112878
0.00768927
0.00364914
0.00778851
0.0029315
-0.00430323
0.00768249
0.00802645
0.000872347
0.00623228
0.00120353
0.0136746
0.0071959
0.00579735
0.00801051
0.000883721
0.00555973
0.00119825
0.0143846
0.00969961
0.00180538
0.00441104
0.00100365
0.0076529
0.00126594
0.0124192
-0.0343144
0.00498377
-0.0137472
-0.0032315
-0.179625
0.0072829
0.00879027
0.00781927
0.00770304
0.00433974
0.000566298
0.00793278
0.0101469
0.0121461
-0.000254609
0.0034162
0.00836346
0.00768748
0.0187901
0.012488
0.0162557
-0.00540285
-0.0110418
0.0159078
0.00859873
0.00508639
0.00787968
0.00785625
-0.00994985
0.00719947
0.000286319
0.0189319
0.0118305
-0.019921
0.0189229
-0.0485442
-0.00265013
0.00858502
0.0116212
0.00764166
-0.0407234
0.00775574
0.000660775
0.00259537
0.00777108
0.0078615
0.0176455
0.00537626
0.00458261
-0.0722148
-0.000521577
-0.0778904
0.00790271
0.0040011
0.0119881
0.0180565
0.00947875
-0.00613945
0.00290979
0.013736
0.00904596
0.00611166
0.0120767
0.00686514
-0.00116946
0.00763079
0.00238172
-0.0378266
0.00535359
-0.0128075
0.0121281
-0.00720333
-0.00198451
-0.106379
0.00449965
0.00820236
0.00112173
0.00840083
0.00771166
0.00881457
0.00767089
0.00748318
0.00712139
0.0116914
-0.000610029
0.000461285
-0.0264946
0.00496877
0.00741246
0.00937298
0.00862949
0.0080972
0.0077008
0.00720279
-0.00522044
0.00801935
0.00801579
0.00258853
-0.00280274
-0.00126341
0.00576652
0.00812445
-0.00913445
0.00306372
0.00648889
0.00671227
0.00641795
-7.76052e-05
0.00759678
0.00450406
0.00812213
-0.0985855
0.00613649
0.00475146
0.00926544
0.0112528
0.0120791
0.00782682
0.0118549
0.00614639
0.00706163
0.0114239
-0.0472414
-0.030448
0.01335
0.000753536
0.00382535
0.0120292
0.011134
-0.0423218
0.00926449
0.00118768
0.000273203
0.0136002
-0.0654428
-0.0104419
-0.00136245
0.0136171
-0.0333802
-0.0172346
0.00958935
-0.0311981
0.00122588
0.00997773
0.00452865
0.00741408
0.0056358
0.0151623
-0.0136942
0.00644538
0.00763141
0.0116704
0.00924042
0.000521338
0.00472242
0.00428697
0.00754508
0.0103334
0.00514229
-0.00237839
0.0145257
-0.00221833
0.0097955
0.000579122
0.0276981
0.00762588
0.00766551
-0.000153765
0.00565653
0.00728376
0.000511205
-0.0186571
0.0158086
-0.0239872
0.00124704
0.0114169
0.00279543
-0.00311052
-0.0538402
-0.190016
0.00508085
0.0124966
0.00654804
0.00770279
0.019866
0.00762809
0.00729267
0.00516814
0.00839236
0.0108167
0.00691103
0.00642258
-0.000852727
0.00043363
-0.00709744
0.00842056
0.00977107
0.0138363
0.00712816
-0.163052
0.01433
0.00496436
0.00740051
-0.250457
0.00791247
0.00703028
0.00529739
0.0107144
-0.0743024
0.00624626
0.0040744
-0.0773298
0.00913196
0.00436906
0.00784663
0.00210955
-0.00397464
0.00777165
0.0100626
0.00785562
-0.152412
0.00795134
-0.256481
-0.0246176
-0.0054827
0.0123104
0.000517758
0.00537557
0.00822243
0.00736568
-0.0230555
0.0113519
-0.0393855
-0.0293217
0.000681969
0.00923505
0.00980515
0.00767267
-0.011782
0.00545216
0.00921972
-0.0273573
-0.0347463
-0.00791485
0.00789619
0.00821349
0.0137971
0.00400193
-0.00688444
-0.000791481
-0.00663815
-0.0404602
0.000477077
0.004115
0.00543556
0.00794236
0.000634182
0.00720878
-0.00153541
0.00818199
0.00806773
-0.000354035
0.00220516
-6.87869e-05
0.00797233
0.00788814
0.00568884
0.0139727
0.00452934
0.00463014
0.0161137
0.00778725
0.00785663
0.0064097
-0.0614453
0.00757527
0.00818386
0.00186525
0.0121445
-0.0612788
0.0170141
0.00743929
0.00449269
0.00693933
0.0077019
-0.00674585
0.0120782
-0.000997947
-0.0412683
0.00750881
0.00116717
0.00579197
0.0186917
0.00775775
-0.0136782
-0.00806712
0.00769037
-0.0443841
0.00824302
-0.112803
0.00463859
0.00192797
-0.000912108
0.00437502
0.00577895
0.0023824
0.000497327
0.000496996
0.0127116
0.00733413
0.00371872
0.0232995
0.000642494
0.00796967
0.00530359
0.00760191
0.0076602
0.0111157
0.00754577
0.000542169
0.00283818
0.00677862
0.00760786
-0.0401104
0.0130747
0.00769142
0.0052683
0.00400445
-0.000669242
0.00644021
0.00861251
0.00754981
0.0161716
0.000574011
0.00897366
-0.0108075
0.00719833
0.00994042
0.00801321
0.00752882
0.00650406
0.00748782
0.0035918
0.00754159
-0.0351924
-0.00172924
0.00389554
0.00146616
0.00315404
-0.00532422
0.00662091
0.0152311
0.00730549
0.00672535
0.00360569
0.00865789
-0.00286123
0.000379331
0.00678895
0.000521456
-0.102124
0.00503163
0.0183401
0.0192856
0.0067922
0.0122896
0.0011946
-0.0163316
0.00338066
-0.000209869
0.00616344
0.0062815
0.00454318
0.00752184
0.00673807
0.0103988
0.000336458
0.00827315
-0.218139
0.0046914
0.0277603
-0.0114005
0.00575386
0.00765334
-0.207222
0.00825617
0.000254776
0.00197849
0.00979902
0.0149147
-0.0281892
0.00834918
0.00492444
0.00582874
0.00392133
-0.140324
-0.0277601
-0.0540174
0.00743283
0.0075748
0.00174317
-0.226212
0.00987916
0.00200625
0.00541053
0.00663024
-0.104369
0.0111009
0.00106136
-0.0273402
0.00490689
0.00430831
0.00196856
0.00721719
0.00912153
-0.02784
0.00650739
-0.00386024
0.0032502
0.00642879
0.00826286
0.00769115
0.00757474
0.00749702
-0.00173858
0.00361834
0.0111298
-0.00236025
-0.00163333
0.00747787
-0.00223598
0.00397023
0.00514678
0.000618086
0.00848552
0.000755041
-0.275357
-0.00218045
0.00544652
0.00773597
0.00555349
0.00888669
-0.01122
0.00510163
0.00667056
0.00732019
-0.00727732
-0.00818793
0.0119878
-0.337913
0.00637022
-0.00464367
-0.0122405
0.00544831
0.00690409
0.00462294
0.0103846
0.0112778
-0.283362
-0.360059
0.0121067
0.00575095
0.0071458
0.00767685
-0.010431
0.00453142
-0.00147014
0.00470197
-0.0036597
-0.00353279
0.00488437
0.00658712
-0.00932384
0.0102376
0.015623
0.00679418
0.00426881
0.00767591
0.00729078
-0.0252527
0.0022292
0.00805943
0.0104278
0.000641554
-0.0588249
0.0086686
0.00735074
0.00590966
0.00764543
-0.00366262
0.00455747
0.00674853
0.00858494
0.0197304
0.00877498
0.00761688
-2.55968e-05
0.00713529
-0.0698922
-0.0105612
-0.00636823
0.012815
0.00507263
0.00608126
0.00942439
0.00675281
0.00513416
-0.124422
0.0172012
0.0020823
0.00507149
0.00592472
0.00661831
-0.132117
0.00522145
0.00535814
0.00543107
0.00192274
0.00548766
-0.0107303
0.00495266
0.00518705
0.00229703
0.00481001
0.00449189
0.0100439
-0.0100999
0.00739764
0.00319648
0.00519337
0.00615103
0.00512642
-0.000943009
0.00938998
-0.0307968
-0.0015948
0.00690829
0.00381681
-0.00466994
0.0043879
0.00429631
0.00589106
0.0013591
0.00515134
0.00027768
0.00555248
0.000574781
0.0076851
-0.0287509
0.00558862
0.00812503
0.0135728
0.000194772
0.000622379
0.000362313
-0.0032711
0.000185377
-0.0017139
0.0059963
0.000253757
0.00388575
0.00671643
0.00580285
0.00849306
0.0259063
-0.0020136
0.00585292
0.00229805
-0.249744
0.00651285
-0.018183
0.00102637
0.0053756
-0.0119873
0.0105032
0.00721355
0.00786452
-0.105925
0.00759551
0.00384123
0.00299179
0.0222545
-0.0355884
-0.00180457
-0.0155536
-0.145412
-0.00832123
0.00897684
0.0082889
0.0106723
-0.000463471
-0.00374262
0.00228602
0.00723468
0.00217452
-0.0122248
0.00482529
0.00774297
0.00813245
-0.0911132
0.00355651
0.00197752
0.0113486
0.0106889
-0.123814
-0.00550104
-0.00423161
0.00586273
0.0044947
-0.00258674
-0.00562149
0.00836159
0.00523337
0.00356965
0.00452786
0.00642727
0.00667324
-0.00115964
-0.00746099
-0.00623893
-0.00602714
-0.00514879
-0.00183134
0.00522954
0.0072931
-0.000586089
0.00215343
0.010031
0.00621738
0.00550976
0.00550219
0.00581022
0.0111271
-0.00966349
0.00111715
0.00444475
0.00556339
0.0102036
0.00135307
0.00580873
0.00172309
0.000140802
-0.00214885
0.00472209
0.0109672
-0.00158891
0.00475965
-0.0101558
0.00449789
0.00460806
0.00439541
-0.0220167
0.00589374
0.00462869
0.000282661
0.00799637
0.00456495
0.00433583
-0.186531
-0.0348758
-0.0199308
0.00842802
0.00450106
-0.0110145
0.00735662
0.00216346
0.00491841
-0.000604604
0.00899711
0.0102691
0.000612927
0.00427517
0.012239
-0.00609745
0.00442131
-0.00258062
0.0132843
-0.0163302
0.00503138
0.000652221
0.0051324
-0.0126234
0.000466058
0.00735726
-0.00756442
0.00506257
0.00223314
0.00860277
0.00302467
0.0111172
0.00513237
0.00767359
0.00570053
0.00968085
-0.00203566
0.00636167
0.00422724
0.00833263
0.000125972
0.0211675
-0.00249499
0.00272316
-0.000810032
0.000560695
0.00507563
-0.0824362
-0.0501836
0.00846659
0.00458592
-0.00218565
0.0117537
0.00568417
0.00443226
0.00482712
0.00462555
0.0053493
-0.00316041
0.0053448
0.00557345
-0.0382318
0.000830939
0.00476757
-5.8346e-05
0.00153831
-0.00142288
0.00481792
0.00596775
0.00821153
-0.101951
0.00779735
0.000304972
-0.0328076
-0.000820145
0.0170962
-0.0269399
0.00458799
0.00368624
-0.00149265
-0.00163357
0.0088329
0.00445764
0.0027984
-0.110169
0.00517844
0.00473177
0.00433662
0.0100995
0.00617936
-0.000267806
-0.00949376
0.00378234
0.00280452
0.00357218
0.00428576
0.000632728
0.00593707
0.000628429
-0.0432964
0.00797451
0.0031918
0.00463194
0.000317936
0.00433126
0.00483791
-0.00107761
0.00510702
0.00658605
-0.00169981