/*--------------------------------*- C++ -*----------------------------------*\
| =========                 |                                                 |
| \\      /  F ield         | OpenFOAM: The Open Source CFD Toolbox           |
|  \\    /   O peration     | Version:  v2012                                 |
|   \\  /    A nd           | Website:  www.openfoam.com                      |
|    \\/     M anipulation  |                                                 |
\*---------------------------------------------------------------------------*/
FoamFile
{
    version     2.0;
    format      ascii;
    class       volVectorField;
    location    "250";
    object      cellDisplacement;
}
// * * * * * * * * * * * * * * * * * * * * * * * * * * * * * * * * * * * * * //

dimensions      [0 1 0 0 0 0 0];


internalField   nonuniform List<vector> 
9793
(
(0 -0.000355751 0)
(0 1.10182e-05 0)
(0 -0.000730499 0)
(0 1.09168e-05 0)
(0 -0.000155925 0)
(0 -1.01518e-05 0)
(0 -3.0182e-06 0)
(0 1.082e-05 0)
(0 -0.000292287 0)
(0 1.10196e-05 0)
(0 -0.000261599 0)
(0 -0.000287459 0)
(0 -0.000528106 0)
(0 -1.97312e-05 0)
(0 -0.000400616 0)
(0 -0.000411594 0)
(0 -5.18103e-05 0)
(0 -0.000690582 0)
(0 1.06694e-05 0)
(0 -0.000387095 0)
(0 -0.000502788 0)
(0 -3.0715e-05 0)
(0 1.08864e-05 0)
(0 1.08095e-05 0)
(0 -2.1455e-05 0)
(0 -0.000111704 0)
(0 -0.000449362 0)
(0 -5.1646e-05 0)
(0 -0.000382977 0)
(0 -1.38096e-05 0)
(0 1.10163e-05 0)
(0 6.5265e-07 0)
(0 -0.000758931 0)
(0 -0.000666835 0)
(0 -3.22599e-05 0)
(0 -0.00019052 0)
(0 -0.000416518 0)
(0 -0.000172025 0)
(0 4.37016e-06 0)
(0 -0.000100086 0)
(0 -1.65177e-05 0)
(0 5.89179e-06 0)
(0 1.06079e-05 0)
(0 -3.68504e-05 0)
(0 -0.000859631 0)
(0 -0.000829361 0)
(0 1.10021e-05 0)
(0 -5.17721e-05 0)
(0 -0.000593445 0)
(0 -0.000699922 0)
(0 -0.000199624 0)
(0 -3.79792e-05 0)
(0 -0.000109004 0)
(0 -0.000102117 0)
(0 -4.12923e-05 0)
(0 1.0834e-05 0)
(0 -0.000512052 0)
(0 -7.57897e-05 0)
(0 -0.00057921 0)
(0 -2.76911e-05 0)
(0 -0.000124877 0)
(0 5.5598e-06 0)
(0 -0.000733472 0)
(0 -0.000232285 0)
(0 -8.73437e-05 0)
(0 -0.00030431 0)
(0 1.10196e-05 0)
(0 -0.000199884 0)
(0 -0.000431936 0)
(0 6.86578e-06 0)
(0 -0.000543367 0)
(0 4.74648e-06 0)
(0 1.08756e-05 0)
(0 -0.000246278 0)
(0 -1.63244e-06 0)
(0 -0.000101775 0)
(0 -1.22524e-05 0)
(0 8.92682e-06 0)
(0 -0.000791555 0)
(0 -0.000101374 0)
(0 -9.80068e-06 0)
(0 1.05327e-05 0)
(0 -5.90974e-05 0)
(0 -0.000152563 0)
(0 -0.000414061 0)
(0 2.35613e-06 0)
(0 -0.000133034 0)
(0 -0.000159729 0)
(0 2.97541e-06 0)
(0 5.06022e-06 0)
(0 1.05546e-05 0)
(0 7.93837e-06 0)
(0 8.03198e-06 0)
(0 -4.2786e-05 0)
(0 1.05501e-05 0)
(0 -0.000632463 0)
(0 -4.98058e-07 0)
(0 -4.49424e-05 0)
(0 -0.000147151 0)
(0 -0.000120047 0)
(0 3.73129e-06 0)
(0 -0.000114187 0)
(0 -0.00027174 0)
(0 -0.000863957 0)
(0 -1.57611e-05 0)
(0 9.55189e-06 0)
(0 -0.000259247 0)
(0 -0.000416453 0)
(0 -0.000801484 0)
(0 -6.05712e-05 0)
(0 -0.000104953 0)
(0 1.07698e-05 0)
(0 1.10141e-05 0)
(0 1.10184e-05 0)
(0 -0.000542724 0)
(0 -0.000558268 0)
(0 -0.000573125 0)
(0 -0.000794225 0)
(0 1.06335e-05 0)
(0 -0.000867008 0)
(0 -2.01825e-05 0)
(0 -0.000145871 0)
(0 -2.5846e-07 0)
(0 -0.000118958 0)
(0 -0.000398578 0)
(0 -0.00086478 0)
(0 -3.89539e-05 0)
(0 1.1013e-05 0)
(0 -0.000130712 0)
(0 -0.0001384 0)
(0 -0.000311809 0)
(0 -0.000491964 0)
(0 -0.000360652 0)
(0 -0.000229487 0)
(0 -0.000196256 0)
(0 2.34882e-06 0)
(0 -7.23898e-06 0)
(0 -0.000552398 0)
(0 -7.6362e-05 0)
(0 -4.79635e-05 0)
(0 1.03456e-05 0)
(0 -0.000188917 0)
(0 -0.000480986 0)
(0 -0.000174175 0)
(0 1.10003e-05 0)
(0 9.22787e-06 0)
(0 -0.000880871 0)
(0 1.22743e-06 0)
(0 -0.000494901 0)
(0 -0.000879941 0)
(0 -0.000573918 0)
(0 1.08782e-05 0)
(0 -0.000156814 0)
(0 -0.000456262 0)
(0 -0.000721533 0)
(0 8.44352e-06 0)
(0 -4.83443e-05 0)
(0 -0.00072174 0)
(0 1.76433e-06 0)
(0 -0.000590103 0)
(0 -0.000159818 0)
(0 -0.000296616 0)
(0 -0.000492449 0)
(0 1.00768e-05 0)
(0 -0.000439382 0)
(0 8.31483e-06 0)
(0 -0.000275979 0)
(0 -0.000392888 0)
(0 -0.000383339 0)
(0 -0.000221799 0)
(0 -0.000483878 0)
(0 1.10232e-05 0)
(0 1.09236e-05 0)
(0 -3.36889e-05 0)
(0 -0.000530455 0)
(0 -1.33525e-05 0)
(0 5.61479e-06 0)
(0 1.05904e-05 0)
(0 -0.00077313 0)
(0 -0.000215875 0)
(0 -1.7988e-05 0)
(0 1.10075e-05 0)
(0 -0.000144647 0)
(0 -0.000842288 0)
(0 -0.000756585 0)
(0 -0.000398953 0)
(0 -2.05434e-06 0)
(0 1.09206e-05 0)
(0 1.08461e-05 0)
(0 -0.000256716 0)
(0 -0.000321153 0)
(0 1.10042e-05 0)
(0 1.00784e-05 0)
(0 -0.000147603 0)
(0 -0.000638453 0)
(0 -0.000191902 0)
(0 1.09214e-05 0)
(0 -0.000313598 0)
(0 -0.000681625 0)
(0 -0.000318327 0)
(0 -0.000508149 0)
(0 -0.000544524 0)
(0 -0.000204423 0)
(0 -0.000303398 0)
(0 1.04254e-05 0)
(0 -0.000674171 0)
(0 -0.000118932 0)
(0 -0.000402001 0)
(0 -0.000320744 0)
(0 1.01798e-05 0)
(0 -5.15967e-05 0)
(0 1.03026e-05 0)
(0 -0.000274163 0)
(0 7.54953e-06 0)
(0 -0.000148894 0)
(0 -0.000437637 0)
(0 -0.000395207 0)
(0 1.77261e-06 0)
(0 -0.000535494 0)
(0 -9.88384e-06 0)
(0 -4.13283e-05 0)
(0 -0.000534132 0)
(0 1.07223e-05 0)
(0 -6.93895e-05 0)
(0 -4.5394e-05 0)
(0 -0.000604794 0)
(0 -9.99752e-05 0)
(0 -0.000125738 0)
(0 -1.04996e-05 0)
(0 -8.80925e-06 0)
(0 1.00044e-05 0)
(0 -0.000130283 0)
(0 -0.000431322 0)
(0 -0.000226048 0)
(0 9.95543e-06 0)
(0 -0.000676396 0)
(0 1.09582e-05 0)
(0 1.10164e-05 0)
(0 -0.000301773 0)
(0 -0.000277141 0)
(0 4.74296e-06 0)
(0 -0.000577664 0)
(0 -0.000102374 0)
(0 -7.89448e-05 0)
(0 -6.31557e-05 0)
(0 -0.000308548 0)
(0 -0.000217416 0)
(0 -0.000113845 0)
(0 -2.43779e-05 0)
(0 -0.00024298 0)
(0 -0.000783739 0)
(0 -2.53534e-05 0)
(0 1.09603e-05 0)
(0 -0.000524985 0)
(0 -4.61168e-05 0)
(0 -0.00012063 0)
(0 -0.000332404 0)
(0 -6.16322e-05 0)
(0 1.08039e-05 0)
(0 -0.000895999 0)
(0 8.78039e-06 0)
(0 2.27217e-06 0)
(0 -0.000288378 0)
(0 -0.00050737 0)
(0 7.77297e-06 0)
(0 -4.27885e-05 0)
(0 -0.000193301 0)
(0 -4.12042e-05 0)
(0 3.6312e-06 0)
(0 9.78007e-06 0)
(0 -0.000137336 0)
(0 9.60015e-06 0)
(0 -7.07661e-05 0)
(0 -0.000262029 0)
(0 1.09613e-05 0)
(0 -0.000377636 0)
(0 1.10168e-05 0)
(0 -0.000111033 0)
(0 -0.000135531 0)
(0 1.10586e-05 0)
(0 -4.77064e-06 0)
(0 -1.67075e-05 0)
(0 -0.000124649 0)
(0 -0.000322637 0)
(0 -6.29951e-05 0)
(0 -0.000308669 0)
(0 -0.000663952 0)
(0 -0.000442065 0)
(0 9.88461e-06 0)
(0 -0.000101829 0)
(0 -0.000483666 0)
(0 -1.12305e-05 0)
(0 -0.00028596 0)
(0 -9.21851e-05 0)
(0 -0.000514224 0)
(0 1.07804e-05 0)
(0 -0.000458949 0)
(0 -0.000405173 0)
(0 -9.11092e-05 0)
(0 -0.000519413 0)
(0 1.09985e-05 0)
(0 9.13871e-06 0)
(0 -3.15497e-06 0)
(0 -0.00027385 0)
(0 -0.000161414 0)
(0 -7.69253e-05 0)
(0 -0.000261803 0)
(0 1.09178e-05 0)
(0 -0.000875512 0)
(0 1.83427e-06 0)
(0 -0.000223268 0)
(0 -0.000847309 0)
(0 1.10196e-05 0)
(0 -0.000248604 0)
(0 -0.000746392 0)
(0 -2.16118e-05 0)
(0 1.1014e-05 0)
(0 -0.000360233 0)
(0 -5.10233e-05 0)
(0 -0.000404239 0)
(0 -0.000348379 0)
(0 -0.000143079 0)
(0 -1.74831e-05 0)
(0 -0.000670757 0)
(0 -0.000844476 0)
(0 -0.000289862 0)
(0 6.36317e-06 0)
(0 1.10126e-05 0)
(0 -0.00074229 0)
(0 -0.000430669 0)
(0 -0.000472851 0)
(0 1.10306e-05 0)
(0 1.0998e-05 0)
(0 1.09014e-05 0)
(0 -0.00064877 0)
(0 -1.4368e-05 0)
(0 -4.79426e-05 0)
(0 1.07909e-05 0)
(0 -7.30019e-05 0)
(0 -0.000743992 0)
(0 -0.000686065 0)
(0 -0.000465463 0)
(0 -7.03461e-05 0)
(0 -0.000333504 0)
(0 1.07955e-05 0)
(0 -0.000660718 0)
(0 -0.000464394 0)
(0 -0.000143747 0)
(0 1.07233e-05 0)
(0 7.59528e-06 0)
(0 -9.12436e-05 0)
(0 5.184e-06 0)
(0 -0.000125649 0)
(0 1.10712e-05 0)
(0 1.07818e-05 0)
(0 1.0284e-05 0)
(0 -0.000164624 0)
(0 -9.25183e-05 0)
(0 -5.36469e-06 0)
(0 1.03197e-05 0)
(0 1.07401e-05 0)
(0 -0.000140889 0)
(0 -5.72652e-05 0)
(0 -0.000129801 0)
(0 -0.00061978 0)
(0 -0.000440943 0)
(0 -0.000348047 0)
(0 -0.000457084 0)
(0 -4.09948e-06 0)
(0 1.07307e-05 0)
(0 -0.00025411 0)
(0 -3.21657e-05 0)
(0 -0.000112714 0)
(0 -2.49604e-05 0)
(0 -0.000762085 0)
(0 -0.000144556 0)
(0 1.09993e-05 0)
(0 1.018e-05 0)
(0 -3.54836e-05 0)
(0 -7.72742e-05 0)
(0 -0.000466596 0)
(0 -0.000157052 0)
(0 -0.000727426 0)
(0 7.95411e-06 0)
(0 -0.000129625 0)
(0 6.98878e-06 0)
(0 7.42087e-06 0)
(0 -2.55429e-06 0)
(0 1.09384e-05 0)
(0 -0.000157772 0)
(0 -0.000237668 0)
(0 -0.000601345 0)
(0 -6.40636e-06 0)
(0 7.75306e-06 0)
(0 -0.00068827 0)
(0 1.08606e-05 0)
(0 -0.00025528 0)
(0 -0.000383202 0)
(0 1.10511e-05 0)
(0 -0.000263013 0)
(0 -6.88256e-05 0)
(0 -0.000658072 0)
(0 -0.000265766 0)
(0 -0.000639496 0)
(0 -0.000451383 0)
(0 -0.000109872 0)
(0 3.41886e-06 0)
(0 -0.000362958 0)
(0 -0.000140448 0)
(0 -0.000305834 0)
(0 -0.000503995 0)
(0 -1.47652e-07 0)
(0 -4.2826e-05 0)
(0 -0.000579162 0)
(0 -0.000377548 0)
(0 -3.98917e-05 0)
(0 -5.02348e-05 0)
(0 -0.000384375 0)
(0 1.10068e-05 0)
(0 -0.00034724 0)
(0 -0.000668492 0)
(0 9.97623e-06 0)
(0 -0.000294558 0)
(0 1.09198e-05 0)
(0 1.04574e-05 0)
(0 -0.000776502 0)
(0 -0.000728307 0)
(0 -0.00043873 0)
(0 -0.00027041 0)
(0 -0.000484284 0)
(0 2.17271e-06 0)
(0 -8.44594e-06 0)
(0 8.45086e-06 0)
(0 -0.000107354 0)
(0 -0.000499839 0)
(0 -0.000112223 0)
(0 -0.000184957 0)
(0 1.04491e-05 0)
(0 -0.000128516 0)
(0 -0.000138003 0)
(0 -0.000203038 0)
(0 8.63872e-06 0)
(0 -0.000522946 0)
(0 -0.000580682 0)
(0 -0.000527191 0)
(0 -0.000118155 0)
(0 -0.000621051 0)
(0 -0.0003972 0)
(0 -0.000809112 0)
(0 -0.000206451 0)
(0 -0.000215025 0)
(0 -0.000296712 0)
(0 -8.45493e-05 0)
(0 -5.44292e-05 0)
(0 1.08631e-05 0)
(0 -0.000127987 0)
(0 8.17316e-06 0)
(0 1.09815e-05 0)
(0 -0.000644062 0)
(0 -0.000148659 0)
(0 -5.0008e-06 0)
(0 -0.000620411 0)
(0 -0.000164871 0)
(0 -0.000456139 0)
(0 -3.72962e-05 0)
(0 -6.47693e-05 0)
(0 -0.000154363 0)
(0 -0.00060229 0)
(0 -0.000332836 0)
(0 -4.28168e-06 0)
(0 6.64318e-06 0)
(0 9.07005e-06 0)
(0 -8.5905e-05 0)
(0 -0.000733579 0)
(0 -6.10635e-05 0)
(0 1.10086e-05 0)
(0 -2.30987e-06 0)
(0 -0.000200664 0)
(0 -0.000362685 0)
(0 -5.32823e-05 0)
(0 7.79617e-06 0)
(0 -5.01687e-05 0)
(0 -0.000331433 0)
(0 -0.000477786 0)
(0 1.01188e-05 0)
(0 -0.00064651 0)
(0 5.57901e-06 0)
(0 -1.62525e-05 0)
(0 -0.000581537 0)
(0 9.33278e-06 0)
(0 -0.000133912 0)
(0 7.69433e-06 0)
(0 -0.000509133 0)
(0 1.04942e-05 0)
(0 6.82073e-07 0)
(0 -0.000410074 0)
(0 7.35974e-06 0)
(0 -0.00064063 0)
(0 1.06702e-05 0)
(0 -0.000665594 0)
(0 -0.000594874 0)
(0 -0.000200569 0)
(0 -0.000709225 0)
(0 -4.37344e-07 0)
(0 -0.000621607 0)
(0 -0.000561732 0)
(0 -0.000267394 0)
(0 -0.000631578 0)
(0 -0.000482095 0)
(0 -1.80802e-05 0)
(0 -0.000211015 0)
(0 -0.000219003 0)
(0 -0.000318001 0)
(0 -0.000305351 0)
(0 1.09935e-05 0)
(0 5.17531e-07 0)
(0 -0.000212309 0)
(0 -3.96454e-05 0)
(0 -0.000301724 0)
(0 -0.000305487 0)
(0 -0.000905184 0)
(0 -0.000491387 0)
(0 1.08415e-05 0)
(0 -0.000575009 0)
(0 -3.37221e-05 0)
(0 1.10225e-05 0)
(0 6.02079e-06 0)
(0 -2.50937e-05 0)
(0 -0.000521448 0)
(0 -5.82147e-05 0)
(0 -0.000343514 0)
(0 -0.000181783 0)
(0 -4.61209e-05 0)
(0 -0.00034913 0)
(0 -0.000250508 0)
(0 -0.000386801 0)
(0 1.08231e-05 0)
(0 -0.00012436 0)
(0 1.10147e-05 0)
(0 -9.57061e-06 0)
(0 7.05972e-06 0)
(0 -0.000657011 0)
(0 -0.000229062 0)
(0 1.09991e-05 0)
(0 -0.000638712 0)
(0 4.64027e-06 0)
(0 -0.000611135 0)
(0 -1.14044e-05 0)
(0 -0.000502577 0)
(0 -1.75131e-05 0)
(0 1.05238e-05 0)
(0 -0.000460564 0)
(0 -0.000128078 0)
(0 -0.000603545 0)
(0 -6.11836e-05 0)
(0 -6.40663e-05 0)
(0 -2.65453e-05 0)
(0 1.01898e-05 0)
(0 -0.000166054 0)
(0 -5.77729e-05 0)
(0 -1.15502e-05 0)
(0 -5.70021e-05 0)
(0 -0.000342712 0)
(0 -0.000448618 0)
(0 -9.53538e-05 0)
(0 -0.000238495 0)
(0 -7.02737e-05 0)
(0 -0.000303201 0)
(0 -0.000320118 0)
(0 -0.000247092 0)
(0 2.55111e-06 0)
(0 -2.5698e-05 0)
(0 -0.000408827 0)
(0 1.1013e-05 0)
(0 -0.000592897 0)
(0 7.45766e-06 0)
(0 -0.000676439 0)
(0 -0.000418871 0)
(0 -0.000637344 0)
(0 -0.000315268 0)
(0 -0.000113471 0)
(0 8.12465e-06 0)
(0 -0.000405831 0)
(0 5.79709e-06 0)
(0 -1.22583e-05 0)
(0 -3.90941e-05 0)
(0 -3.64799e-05 0)
(0 1.10194e-05 0)
(0 -0.000221367 0)
(0 -4.04017e-05 0)
(0 1.08587e-05 0)
(0 7.8138e-06 0)
(0 9.67244e-06 0)
(0 -1.90333e-05 0)
(0 6.48837e-06 0)
(0 -0.000349717 0)
(0 1.10175e-05 0)
(0 -0.000260031 0)
(0 -0.000424336 0)
(0 8.26516e-06 0)
(0 -5.02479e-05 0)
(0 9.94031e-06 0)
(0 -3.02744e-05 0)
(0 -2.58762e-05 0)
(0 -0.000115634 0)
(0 1.05209e-05 0)
(0 1.09017e-05 0)
(0 -0.000245658 0)
(0 -3.08263e-05 0)
(0 -0.000291518 0)
(0 9.77739e-06 0)
(0 -0.000319008 0)
(0 -0.00066489 0)
(0 -0.000348435 0)
(0 -0.000607875 0)
(0 -4.67476e-05 0)
(0 9.58106e-06 0)
(0 9.10651e-06 0)
(0 1.09503e-05 0)
(0 -0.000224754 0)
(0 -0.000179269 0)
(0 6.9183e-06 0)
(0 9.5172e-06 0)
(0 -0.000357462 0)
(0 -7.60533e-05 0)
(0 -0.000304805 0)
(0 1.1079e-05 0)
(0 -0.000120257 0)
(0 -0.000777872 0)
(0 -3.38253e-06 0)
(0 9.524e-06 0)
(0 1.09113e-05 0)
(0 -7.38819e-05 0)
(0 -0.000117488 0)
(0 7.29031e-06 0)
(0 -0.000218717 0)
(0 -1.46914e-06 0)
(0 -0.00021225 0)
(0 -3.04746e-05 0)
(0 -0.000110929 0)
(0 -0.00020817 0)
(0 -0.0003516 0)
(0 -0.000723403 0)
(0 -0.000147738 0)
(0 -5.37681e-05 0)
(0 -0.000146089 0)
(0 -1.15236e-05 0)
(0 -1.89801e-06 0)
(0 -2.45458e-05 0)
(0 -0.000110897 0)
(0 -0.000519398 0)
(0 -0.000671218 0)
(0 -5.35529e-05 0)
(0 -0.000587271 0)
(0 -1.41177e-05 0)
(0 -4.43623e-05 0)
(0 -1.94138e-05 0)
(0 -3.76424e-05 0)
(0 7.54277e-06 0)
(0 -0.00050613 0)
(0 1.09389e-05 0)
(0 -0.000166607 0)
(0 -1.48051e-05 0)
(0 -5.2492e-05 0)
(0 -2.43707e-07 0)
(0 -0.000258718 0)
(0 -0.000589545 0)
(0 -1.48045e-05 0)
(0 -0.000645757 0)
(0 -0.000352559 0)
(0 -5.84445e-05 0)
(0 2.31292e-07 0)
(0 -0.000552774 0)
(0 -0.000134746 0)
(0 -2.56757e-06 0)
(0 -0.000230465 0)
(0 -0.000131658 0)
(0 -3.15847e-06 0)
(0 -0.000390175 0)
(0 -4.31662e-05 0)
(0 -0.000394123 0)
(0 -0.000326558 0)
(0 -0.000490805 0)
(0 4.74292e-06 0)
(0 -5.00515e-06 0)
(0 1.08462e-05 0)
(0 -0.000503471 0)
(0 -0.000856362 0)
(0 -0.000430742 0)
(0 -0.000599797 0)
(0 -0.000214699 0)
(0 -0.000158352 0)
(0 9.95925e-06 0)
(0 -0.000177626 0)
(0 -0.000223654 0)
(0 6.99109e-06 0)
(0 -0.000195519 0)
(0 -4.34754e-05 0)
(0 -0.000365837 0)
(0 1.1022e-05 0)
(0 -0.000339523 0)
(0 -0.000172264 0)
(0 -1.78839e-06 0)
(0 1.09694e-05 0)
(0 -0.000589294 0)
(0 -0.000810679 0)
(0 -0.000737162 0)
(0 -0.000432118 0)
(0 -0.000243349 0)
(0 -0.000232169 0)
(0 -2.53824e-06 0)
(0 -0.000296407 0)
(0 -0.000100187 0)
(0 -0.000363115 0)
(0 -0.000374436 0)
(0 -2.10527e-05 0)
(0 1.08271e-05 0)
(0 -7.01611e-05 0)
(0 -0.000554876 0)
(0 -0.000609662 0)
(0 -9.81306e-05 0)
(0 -0.000142077 0)
(0 -0.000124836 0)
(0 -0.000613537 0)
(0 -0.000605712 0)
(0 1.10184e-05 0)
(0 -0.000265732 0)
(0 -0.000104627 0)
(0 -7.41731e-05 0)
(0 -4.3751e-06 0)
(0 -0.000596916 0)
(0 -2.12353e-05 0)
(0 -0.000332304 0)
(0 1.06059e-05 0)
(0 -4.19793e-05 0)
(0 -5.22563e-06 0)
(0 9.98174e-06 0)
(0 -0.00012442 0)
(0 3.29552e-06 0)
(0 -5.85883e-05 0)
(0 -0.000507501 0)
(0 1.07903e-05 0)
(0 -9.26648e-05 0)
(0 -0.000662622 0)
(0 -0.000338827 0)
(0 -5.44343e-05 0)
(0 1.09737e-05 0)
(0 -0.000338587 0)
(0 -0.000892585 0)
(0 -0.000636733 0)
(0 -0.000616512 0)
(0 -0.000511435 0)
(0 -0.000342902 0)
(0 9.88308e-06 0)
(0 -4.82157e-05 0)
(0 -0.000228774 0)
(0 -0.000406288 0)
(0 -4.76439e-05 0)
(0 -3.88478e-05 0)
(0 -0.000433208 0)
(0 -0.000107241 0)
(0 -9.60348e-06 0)
(0 -0.000432193 0)
(0 -0.000176676 0)
(0 1.08158e-05 0)
(0 -9.37913e-05 0)
(0 -0.000520209 0)
(0 1.08826e-05 0)
(0 -0.000307461 0)
(0 -0.000119985 0)
(0 8.96883e-06 0)
(0 1.09806e-05 0)
(0 -0.000406453 0)
(0 -0.000304826 0)
(0 9.67066e-06 0)
(0 -0.000105085 0)
(0 -0.000174289 0)
(0 -0.000171557 0)
(0 -6.22606e-05 0)
(0 -1.4132e-05 0)
(0 -1.60388e-05 0)
(0 -0.000739186 0)
(0 1.02508e-05 0)
(0 -0.000171091 0)
(0 -1.81977e-05 0)
(0 -0.000579571 0)
(0 -7.91376e-05 0)
(0 -0.000686584 0)
(0 -0.000150186 0)
(0 -0.00014929 0)
(0 6.98239e-06 0)
(0 -0.000469325 0)
(0 -0.000606904 0)
(0 -3.34164e-05 0)
(0 -0.00058585 0)
(0 -0.000365594 0)
(0 -0.000533435 0)
(0 -0.000104458 0)
(0 -0.000631966 0)
(0 -0.000146621 0)
(0 -4.13085e-05 0)
(0 -7.45646e-05 0)
(0 -5.16481e-05 0)
(0 -0.000334343 0)
(0 -0.000454993 0)
(0 1.10174e-05 0)
(0 -0.000146157 0)
(0 -0.000491787 0)
(0 -0.000108985 0)
(0 1.10155e-05 0)
(0 -0.000601825 0)
(0 -0.00088178 0)
(0 -0.000553584 0)
(0 -3.15812e-06 0)
(0 -0.000149205 0)
(0 1.09911e-05 0)
(0 -0.000453961 0)
(0 -0.00012429 0)
(0 -0.000347233 0)
(0 -0.000330831 0)
(0 -1.64106e-05 0)
(0 7.70787e-08 0)
(0 -0.000373686 0)
(0 2.73927e-06 0)
(0 -0.000514578 0)
(0 -3.05449e-06 0)
(0 -0.000463355 0)
(0 -0.000203099 0)
(0 -0.000645376 0)
(0 -0.000404072 0)
(0 -6.22564e-06 0)
(0 1.10201e-05 0)
(0 -0.000341692 0)
(0 -0.000105912 0)
(0 -0.000104126 0)
(0 -0.000585703 0)
(0 1.09665e-05 0)
(0 1.10191e-05 0)
(0 -0.000136233 0)
(0 -0.000392421 0)
(0 -0.00046242 0)
(0 1.09529e-05 0)
(0 -0.00054786 0)
(0 1.09623e-05 0)
(0 -0.000686589 0)
(0 -0.000286868 0)
(0 -0.000376212 0)
(0 -0.000141543 0)
(0 -0.000401468 0)
(0 3.3964e-06 0)
(0 1.04037e-05 0)
(0 1.09432e-05 0)
(0 -9.21718e-07 0)
(0 1.10102e-05 0)
(0 -0.00071937 0)
(0 -4.01975e-05 0)
(0 9.80188e-06 0)
(0 -9.78672e-06 0)
(0 -0.000332977 0)
(0 -0.000330154 0)
(0 -3.45741e-05 0)
(0 -0.000565132 0)
(0 1.0729e-05 0)
(0 -5.32969e-05 0)
(0 -1.9186e-05 0)
(0 -0.000269709 0)
(0 8.94988e-06 0)
(0 1.10111e-05 0)
(0 1.09518e-05 0)
(0 -6.19532e-05 0)
(0 -0.000115447 0)
(0 -5.97331e-05 0)
(0 1.07899e-05 0)
(0 -0.000627868 0)
(0 1.0248e-05 0)
(0 -8.28959e-06 0)
(0 9.97201e-07 0)
(0 8.72731e-06 0)
(0 5.6358e-06 0)
(0 -0.000248143 0)
(0 -0.000176516 0)
(0 -0.000257999 0)
(0 -0.000253106 0)
(0 1.07746e-05 0)
(0 1.10126e-05 0)
(0 -0.000316205 0)
(0 1.09866e-05 0)
(0 -0.000452663 0)
(0 -6.92179e-05 0)
(0 6.04209e-06 0)
(0 -1.95976e-06 0)
(0 -4.59068e-06 0)
(0 -0.000704604 0)
(0 -0.000117141 0)
(0 -0.000209315 0)
(0 -0.00040198 0)
(0 -0.000516109 0)
(0 -0.000102534 0)
(0 -0.000320597 0)
(0 9.70281e-06 0)
(0 -6.29533e-05 0)
(0 -0.000714745 0)
(0 -7.24118e-06 0)
(0 -6.51924e-05 0)
(0 -4.09075e-05 0)
(0 -0.000279561 0)
(0 1.08093e-05 0)
(0 1.01057e-05 0)
(0 8.22361e-06 0)
(0 -0.000131832 0)
(0 -4.95712e-05 0)
(0 -0.000276568 0)
(0 -5.05484e-05 0)
(0 -0.000609288 0)
(0 8.44596e-06 0)
(0 -0.000134179 0)
(0 -0.000287883 0)
(0 -0.000659538 0)
(0 -0.000215569 0)
(0 1.09331e-05 0)
(0 -0.000111716 0)
(0 -0.000780923 0)
(0 9.90032e-06 0)
(0 -0.000711925 0)
(0 -0.000103678 0)
(0 -0.00062852 0)
(0 -0.0001735 0)
(0 -0.000835466 0)
(0 -0.000362113 0)
(0 1.09726e-05 0)
(0 -3.35311e-05 0)
(0 -5.13584e-06 0)
(0 1.10003e-05 0)
(0 5.46382e-06 0)
(0 -0.000699837 0)
(0 -0.00051913 0)
(0 -0.000114341 0)
(0 -1.51628e-05 0)
(0 -0.000503826 0)
(0 -0.000413983 0)
(0 9.75962e-06 0)
(0 -0.00025156 0)
(0 -0.000285227 0)
(0 -0.000108979 0)
(0 -4.11457e-05 0)
(0 9.49688e-06 0)
(0 -0.000564858 0)
(0 -2.50326e-05 0)
(0 -0.00042833 0)
(0 -0.000317947 0)
(0 1.02823e-05 0)
(0 -1.84475e-05 0)
(0 -7.23319e-05 0)
(0 -0.00036363 0)
(0 -0.00056402 0)
(0 1.10021e-05 0)
(0 2.68013e-08 0)
(0 6.80705e-06 0)
(0 1.1044e-05 0)
(0 -0.000424532 0)
(0 -0.000588168 0)
(0 -0.000765328 0)
(0 1.1021e-05 0)
(0 -0.000158704 0)
(0 -8.17847e-05 0)
(0 -0.000303013 0)
(0 -0.000344632 0)
(0 -0.000497871 0)
(0 -6.03896e-05 0)
(0 -0.000367408 0)
(0 -1.37764e-06 0)
(0 -0.000460045 0)
(0 -3.52816e-05 0)
(0 -5.33324e-05 0)
(0 -0.000358217 0)
(0 -0.00061457 0)
(0 -0.000378735 0)
(0 -3.01702e-05 0)
(0 1.09301e-05 0)
(0 -0.00018803 0)
(0 1.10085e-05 0)
(0 -0.000503369 0)
(0 -3.06045e-05 0)
(0 -0.00037346 0)
(0 -3.34116e-06 0)
(0 -0.000671885 0)
(0 -0.000676622 0)
(0 -0.000220546 0)
(0 -3.59186e-05 0)
(0 -4.57108e-05 0)
(0 -0.000428292 0)
(0 -5.70731e-05 0)
(0 4.734e-06 0)
(0 1.98155e-06 0)
(0 -0.000345798 0)
(0 -4.39036e-05 0)
(0 1.05509e-05 0)
(0 -0.00026754 0)
(0 7.80658e-06 0)
(0 -1.46622e-05 0)
(0 -5.19822e-06 0)
(0 -0.000414717 0)
(0 -0.000319654 0)
(0 -0.000148059 0)
(0 2.63496e-06 0)
(0 -0.000492996 0)
(0 -0.000234388 0)
(0 -0.000330186 0)
(0 -0.000373609 0)
(0 -0.000290508 0)
(0 -0.000415106 0)
(0 -0.000615771 0)
(0 -0.000906091 0)
(0 1.03021e-05 0)
(0 -0.000115275 0)
(0 -0.000237656 0)
(0 -2.12689e-05 0)
(0 -0.000434695 0)
(0 -0.000755118 0)
(0 -4.07369e-05 0)
(0 -1.01408e-06 0)
(0 3.81518e-06 0)
(0 -1.88676e-05 0)
(0 -5.57372e-05 0)
(0 -9.5503e-05 0)
(0 1.0705e-05 0)
(0 -6.64411e-05 0)
(0 1.10152e-05 0)
(0 -3.64269e-06 0)
(0 -0.000364838 0)
(0 -0.000386522 0)
(0 -0.000267513 0)
(0 1.08222e-05 0)
(0 1.09035e-05 0)
(0 -1.50903e-05 0)
(0 6.64245e-06 0)
(0 -0.000425137 0)
(0 -0.000440298 0)
(0 -0.000163699 0)
(0 -0.000349319 0)
(0 1.10178e-05 0)
(0 -0.000164346 0)
(0 -0.000386931 0)
(0 -1.54014e-05 0)
(0 9.26727e-06 0)
(0 -1.73721e-05 0)
(0 -0.000247975 0)
(0 -0.000233431 0)
(0 -7.50103e-06 0)
(0 -0.000110157 0)
(0 -0.000252208 0)
(0 9.9762e-06 0)
(0 6.25423e-06 0)
(0 -0.000274359 0)
(0 -7.5472e-06 0)
(0 -2.41661e-05 0)
(0 -2.94171e-05 0)
(0 1.70925e-06 0)
(0 -0.000115164 0)
(0 -0.000369212 0)
(0 -9.6808e-06 0)
(0 -0.000661188 0)
(0 -0.000201532 0)
(0 -0.000114912 0)
(0 1.0995e-05 0)
(0 -0.000114806 0)
(0 -4.18103e-05 0)
(0 -2.35049e-06 0)
(0 -0.000406799 0)
(0 1.09896e-05 0)
(0 1.101e-05 0)
(0 -0.000510188 0)
(0 1.09485e-05 0)
(0 -4.85487e-05 0)
(0 -0.00041655 0)
(0 -0.000533041 0)
(0 -2.66528e-06 0)
(0 1.02322e-05 0)
(0 -0.000152895 0)
(0 -6.42317e-05 0)
(0 -0.000625973 0)
(0 7.55671e-06 0)
(0 -7.28725e-06 0)
(0 -7.31092e-05 0)
(0 -0.000438568 0)
(0 -0.000426101 0)
(0 -0.000393481 0)
(0 -3.38257e-05 0)
(0 -0.000230277 0)
(0 -2.89891e-05 0)
(0 -6.81177e-05 0)
(0 -0.000159844 0)
(0 1.01613e-05 0)
(0 -4.09329e-07 0)
(0 -0.000249065 0)
(0 -0.000115111 0)
(0 -0.000261607 0)
(0 9.91393e-06 0)
(0 -0.000131313 0)
(0 -0.00062982 0)
(0 -0.000413354 0)
(0 -0.000643684 0)
(0 -0.00023558 0)
(0 1.09686e-05 0)
(0 9.91345e-06 0)
(0 6.84755e-07 0)
(0 -0.000110374 0)
(0 -0.000469102 0)
(0 9.13247e-06 0)
(0 -0.00010747 0)
(0 -0.000284293 0)
(0 1.08392e-05 0)
(0 -0.000415454 0)
(0 -1.7832e-05 0)
(0 1.10129e-05 0)
(0 -0.000427787 0)
(0 1.10029e-05 0)
(0 1.07699e-05 0)
(0 -2.23243e-06 0)
(0 1.10131e-05 0)
(0 -3.05182e-05 0)
(0 -0.000475936 0)
(0 -0.000244705 0)
(0 1.10006e-05 0)
(0 9.12727e-06 0)
(0 -0.000257462 0)
(0 1.09951e-05 0)
(0 -0.000144749 0)
(0 -0.000619264 0)
(0 -0.000116096 0)
(0 -0.000339988 0)
(0 -0.000116754 0)
(0 -0.000152604 0)
(0 9.67512e-06 0)
(0 1.10145e-05 0)
(0 9.20161e-06 0)
(0 -4.92186e-05 0)
(0 -3.55873e-05 0)
(0 -9.75704e-06 0)
(0 1.0989e-05 0)
(0 -0.000419116 0)
(0 1.10219e-05 0)
(0 -2.8298e-05 0)
(0 -0.000140597 0)
(0 -0.000132364 0)
(0 -9.15109e-05 0)
(0 -0.000334856 0)
(0 -5.26071e-05 0)
(0 1.09841e-05 0)
(0 -0.000431925 0)
(0 -0.000435181 0)
(0 1.09741e-05 0)
(0 -4.4283e-06 0)
(0 -0.000123143 0)
(0 -0.000126232 0)
(0 -3.5634e-05 0)
(0 -0.000738453 0)
(0 -6.36777e-05 0)
(0 -4.66857e-05 0)
(0 8.18739e-06 0)
(0 -0.000250203 0)
(0 -0.000408162 0)
(0 -3.83605e-05 0)
(0 1.0994e-05 0)
(0 -3.01778e-05 0)
(0 -0.000329039 0)
(0 9.40975e-06 0)
(0 -0.000357847 0)
(0 -0.000455152 0)
(0 -0.000659946 0)
(0 -0.000247236 0)
(0 -0.000424029 0)
(0 -0.000293056 0)
(0 8.44014e-06 0)
(0 -0.000174086 0)
(0 -0.000101668 0)
(0 1.07614e-05 0)
(0 -0.000140958 0)
(0 2.07847e-06 0)
(0 6.54955e-06 0)
(0 -4.91714e-07 0)
(0 -3.81172e-05 0)
(0 -0.000565685 0)
(0 -0.000167049 0)
(0 -0.000369257 0)
(0 -0.000224703 0)
(0 2.47912e-06 0)
(0 -0.000474591 0)
(0 6.18969e-06 0)
(0 -0.000117666 0)
(0 -2.70978e-05 0)
(0 -0.000702346 0)
(0 9.57433e-06 0)
(0 -4.40173e-05 0)
(0 1.09039e-05 0)
(0 -5.44037e-05 0)
(0 1.09243e-05 0)
(0 -0.000270522 0)
(0 -3.25125e-05 0)
(0 -2.74108e-06 0)
(0 -7.31567e-05 0)
(0 -0.000290954 0)
(0 8.85086e-06 0)
(0 -6.19608e-05 0)
(0 9.16631e-06 0)
(0 -0.00047797 0)
(0 -4.04674e-05 0)
(0 -0.000722349 0)
(0 1.09043e-05 0)
(0 8.67898e-06 0)
(0 -1.76837e-05 0)
(0 -0.000706551 0)
(0 -0.000743951 0)
(0 -3.24656e-05 0)
(0 1.10115e-05 0)
(0 -0.000204986 0)
(0 -0.000771758 0)
(0 -7.69734e-05 0)
(0 -4.01466e-08 0)
(0 -9.60711e-05 0)
(0 -0.00032906 0)
(0 3.6847e-06 0)
(0 -0.000429003 0)
(0 -0.000163414 0)
(0 -0.000676445 0)
(0 -0.000210994 0)
(0 -0.000623998 0)
(0 8.57871e-06 0)
(0 -0.000609272 0)
(0 -0.000631664 0)
(0 -1.41765e-06 0)
(0 1.1021e-05 0)
(0 -0.000309159 0)
(0 -2.01496e-05 0)
(0 -0.000369157 0)
(0 3.84611e-06 0)
(0 -0.000447198 0)
(0 8.17355e-06 0)
(0 -0.000248553 0)
(0 -1.61819e-06 0)
(0 -0.000445559 0)
(0 -0.000244975 0)
(0 1.07351e-05 0)
(0 -0.00022828 0)
(0 1.08595e-05 0)
(0 -0.000160592 0)
(0 1.10098e-05 0)
(0 -0.000284828 0)
(0 -0.000565445 0)
(0 -0.000411497 0)
(0 -0.000160494 0)
(0 -0.000125878 0)
(0 -0.000124754 0)
(0 1.09852e-05 0)
(0 -0.000212178 0)
(0 -0.000168396 0)
(0 -1.65706e-05 0)
(0 -8.37205e-05 0)
(0 -0.000340995 0)
(0 -0.000133903 0)
(0 -6.73858e-06 0)
(0 1.10204e-05 0)
(0 -0.000633676 0)
(0 1.01598e-05 0)
(0 -0.000364201 0)
(0 -1.51215e-05 0)
(0 1.08815e-05 0)
(0 -0.000122719 0)
(0 -0.000884094 0)
(0 -0.000421012 0)
(0 -4.92463e-05 0)
(0 8.66357e-06 0)
(0 -0.000147879 0)
(0 -0.000103466 0)
(0 -0.000565042 0)
(0 -0.000101639 0)
(0 -0.000538034 0)
(0 1.04941e-05 0)
(0 1.06536e-05 0)
(0 1.10107e-05 0)
(0 -0.000503524 0)
(0 -0.000157974 0)
(0 9.86096e-06 0)
(0 -0.000356841 0)
(0 -4.75273e-06 0)
(0 -0.000394839 0)
(0 8.83676e-06 0)
(0 -2.8462e-05 0)
(0 -0.000825594 0)
(0 -1.41994e-05 0)
(0 8.86186e-06 0)
(0 -0.00059689 0)
(0 -0.000171191 0)
(0 -0.0006773 0)
(0 -2.13091e-05 0)
(0 8.61469e-06 0)
(0 -5.12406e-06 0)
(0 9.97344e-06 0)
(0 -0.000411176 0)
(0 -0.00038832 0)
(0 1.07365e-05 0)
(0 -0.000318746 0)
(0 -2.06568e-05 0)
(0 -8.51074e-05 0)
(0 -0.000209186 0)
(0 -0.000641751 0)
(0 9.29235e-06 0)
(0 -0.000190277 0)
(0 9.45997e-06 0)
(0 -0.000651984 0)
(0 8.25428e-07 0)
(0 -0.000245487 0)
(0 9.68517e-06 0)
(0 -0.000134869 0)
(0 -0.000160468 0)
(0 -0.000166416 0)
(0 1.06306e-05 0)
(0 -0.000535373 0)
(0 -6.65084e-05 0)
(0 7.90948e-06 0)
(0 -2.98153e-06 0)
(0 1.09576e-05 0)
(0 1.02779e-05 0)
(0 -0.000300388 0)
(0 -0.000767893 0)
(0 -0.000469009 0)
(0 -6.09427e-06 0)
(0 -0.000546623 0)
(0 -2.48442e-05 0)
(0 -1.42499e-06 0)
(0 -0.000169622 0)
(0 -2.06391e-05 0)
(0 -0.00041685 0)
(0 -0.000444724 0)
(0 -7.12743e-05 0)
(0 -0.000422878 0)
(0 1.09958e-05 0)
(0 -7.18504e-06 0)
(0 8.3311e-06 0)
(0 -2.2709e-05 0)
(0 -0.000204952 0)
(0 1.09978e-05 0)
(0 -0.000196141 0)
(0 -0.000202938 0)
(0 -0.00035178 0)
(0 -7.56622e-05 0)
(0 -7.8963e-06 0)
(0 -0.000739292 0)
(0 -0.000367997 0)
(0 -0.000147046 0)
(0 -0.000396703 0)
(0 -3.66861e-05 0)
(0 -3.85134e-06 0)
(0 1.0959e-05 0)
(0 -1.5404e-05 0)
(0 -0.000342468 0)
(0 -1.17064e-06 0)
(0 -0.000420959 0)
(0 -0.000572526 0)
(0 -0.000297307 0)
(0 8.98377e-06 0)
(0 -7.80908e-07 0)
(0 -4.50131e-05 0)
(0 -1.48083e-06 0)
(0 7.6868e-06 0)
(0 -2.27132e-05 0)
(0 7.22748e-06 0)
(0 -0.000392207 0)
(0 -6.93543e-05 0)
(0 1.09056e-05 0)
(0 -0.000388353 0)
(0 9.21681e-06 0)
(0 -0.000499962 0)
(0 -0.000516885 0)
(0 -4.16305e-05 0)
(0 9.68096e-06 0)
(0 -0.000428874 0)
(0 -1.36941e-05 0)
(0 1.03128e-05 0)
(0 3.04475e-06 0)
(0 -0.000280206 0)
(0 -0.000121838 0)
(0 -0.000204948 0)
(0 -0.000175284 0)
(0 7.46676e-06 0)
(0 -0.000313296 0)
(0 -2.24405e-05 0)
(0 1.09451e-05 0)
(0 -0.000233694 0)
(0 -0.000473537 0)
(0 -0.00045021 0)
(0 1.01967e-05 0)
(0 -0.000650693 0)
(0 -0.00088884 0)
(0 -4.95362e-06 0)
(0 -0.000272992 0)
(0 -0.000534409 0)
(0 1.61864e-06 0)
(0 -0.00021667 0)
(0 -2.04737e-06 0)
(0 -1.97242e-06 0)
(0 1.10066e-05 0)
(0 1.03101e-05 0)
(0 -0.00073358 0)
(0 -0.000621882 0)
(0 -0.000443408 0)
(0 -0.000306136 0)
(0 1.8601e-06 0)
(0 -0.000298681 0)
(0 1.04795e-05 0)
(0 -0.000191904 0)
(0 1.08948e-05 0)
(0 -0.000190107 0)
(0 -0.000416834 0)
(0 -0.000256093 0)
(0 -0.000381123 0)
(0 -5.48636e-05 0)
(0 -0.000385086 0)
(0 -0.000638517 0)
(0 -9.82309e-06 0)
(0 -0.000502747 0)
(0 -0.000201467 0)
(0 -0.00027223 0)
(0 1.1016e-05 0)
(0 -0.000200291 0)
(0 -0.000769574 0)
(0 -0.000612134 0)
(0 -7.00077e-05 0)
(0 -0.000433463 0)
(0 -0.000262781 0)
(0 -0.000556051 0)
(0 -0.000322893 0)
(0 -0.000619561 0)
(0 -0.000466869 0)
(0 -0.000170815 0)
(0 -6.25368e-05 0)
(0 -0.0001495 0)
(0 1.08941e-05 0)
(0 1.09548e-05 0)
(0 1.08955e-05 0)
(0 -0.000446699 0)
(0 -0.000219737 0)
(0 -0.000749325 0)
(0 -0.000497954 0)
(0 -0.000751705 0)
(0 -0.000424738 0)
(0 -0.000186502 0)
(0 -0.000523886 0)
(0 -9.31653e-05 0)
(0 -0.000312002 0)
(0 -0.000717042 0)
(0 -0.000339777 0)
(0 1.07959e-05 0)
(0 -0.000591605 0)
(0 -0.000509387 0)
(0 1.08601e-05 0)
(0 -0.000160893 0)
(0 -0.000253607 0)
(0 1.08592e-05 0)
(0 1.1011e-05 0)
(0 -0.000429671 0)
(0 8.85698e-06 0)
(0 1.00042e-05 0)
(0 -0.00032341 0)
(0 -1.35976e-05 0)
(0 -0.000203509 0)
(0 -0.000325201 0)
(0 -8.29928e-05 0)
(0 -4.932e-05 0)
(0 -0.000342185 0)
(0 -0.000199502 0)
(0 -0.000157154 0)
(0 -0.000431086 0)
(0 1.10196e-05 0)
(0 -0.000410165 0)
(0 -1.07147e-05 0)
(0 -0.000171764 0)
(0 -9.0004e-05 0)
(0 1.08229e-05 0)
(0 -0.000144663 0)
(0 -0.000425517 0)
(0 -0.000157791 0)
(0 -0.000158383 0)
(0 -6.36102e-05 0)
(0 9.16939e-06 0)
(0 1.0948e-05 0)
(0 8.57039e-06 0)
(0 8.59673e-07 0)
(0 9.24927e-06 0)
(0 -2.61176e-05 0)
(0 -5.12935e-05 0)
(0 9.66532e-06 0)
(0 5.93833e-07 0)
(0 -0.000209362 0)
(0 -6.27348e-05 0)
(0 -2.55136e-05 0)
(0 -0.000599274 0)
(0 -0.000158179 0)
(0 -0.000178355 0)
(0 -1.16083e-05 0)
(0 -0.000487617 0)
(0 -0.000698492 0)
(0 -1.51976e-05 0)
(0 -0.000421933 0)
(0 9.64869e-06 0)
(0 -0.000433049 0)
(0 1.09456e-05 0)
(0 -5.08192e-06 0)
(0 -4.36921e-05 0)
(0 -0.000754146 0)
(0 -0.000236691 0)
(0 -5.92501e-05 0)
(0 -3.18573e-05 0)
(0 -0.000265246 0)
(0 -2.13658e-05 0)
(0 3.11893e-06 0)
(0 -2.35548e-05 0)
(0 -4.38174e-05 0)
(0 9.79152e-06 0)
(0 9.57261e-06 0)
(0 -0.000549997 0)
(0 -1.74596e-06 0)
(0 -1.39374e-05 0)
(0 9.49382e-06 0)
(0 -3.86305e-06 0)
(0 -0.000691977 0)
(0 -8.32934e-05 0)
(0 -0.000137824 0)
(0 -0.000249991 0)
(0 -0.000167744 0)
(0 -0.000358741 0)
(0 -0.000127676 0)
(0 9.07555e-06 0)
(0 -4.22009e-05 0)
(0 -0.000302786 0)
(0 -1.00894e-06 0)
(0 6.78733e-07 0)
(0 1.0981e-05 0)
(0 9.54515e-06 0)
(0 -0.000169924 0)
(0 -0.00024301 0)
(0 -0.000821048 0)
(0 -0.00046373 0)
(0 -0.000130254 0)
(0 -5.15944e-06 0)
(0 1.08888e-05 0)
(0 -0.000499714 0)
(0 9.83594e-06 0)
(0 -2.43952e-05 0)
(0 7.70915e-06 0)
(0 -5.81086e-07 0)
(0 -6.32763e-05 0)
(0 -0.000213563 0)
(0 -0.000258734 0)
(0 1.09632e-05 0)
(0 1.09477e-05 0)
(0 -1.64132e-05 0)
(0 1.04451e-05 0)
(0 -0.00055805 0)
(0 9.23295e-06 0)
(0 -0.000416677 0)
(0 -0.000498766 0)