/*--------------------------------*- C++ -*----------------------------------*\
| =========                 |                                                 |
| \\      /  F ield         | OpenFOAM: The Open Source CFD Toolbox           |
|  \\    /   O peration     | Version:  v2012                                 |
|   \\  /    A nd           | Website:  www.openfoam.com                      |
|    \\/     M anipulation  |                                                 |
\*---------------------------------------------------------------------------*/
FoamFile
{
    version     2.0;
    format      ascii;
    class       volVectorField;
    location    "250";
    object      ddtCorrDdt0(U);
}
// * * * * * * * * * * * * * * * * * * * * * * * * * * * * * * * * * * * * * //

dimensions      [0 1 -2 0 0 0 0];


internalField   nonuniform List<vector> 
9793
(
(0.000631095 -0.00202885 7.88689e-18)
(0.00312795 0.00724229 3.1765e-17)
(0.000267497 -0.000340074 1.91866e-18)
(-0.0014481 -0.0687055 -2.30937e-17)
(1.7058e-06 -0.000136085 -5.09121e-18)
(0.0228831 0.0193772 6.23747e-18)
(0.014939 -0.00409255 -1.94563e-17)
(-0.0246707 0.00268643 5.37348e-17)
(0.00139615 0.00130501 -9.37538e-19)
(-0.0180778 0.0171779 3.71819e-17)
(3.97909e-05 -0.000281355 4.59108e-19)
(4.80756e-05 -0.000310175 8.73578e-20)
(0.000295779 6.55745e-05 -3.58339e-18)
(-0.0445448 -0.0476158 -1.36402e-17)
(0.000473173 0.000917415 1.87193e-18)
(-0.00775633 0.00421279 -6.49626e-18)
(0.0113153 0.0111086 -6.61786e-18)
(0.000348229 -0.000246137 -2.89511e-18)
(0.00211352 -0.0526886 3.82679e-17)
(-0.000206897 0.000234524 -2.17537e-19)
(-0.000348682 0.000568373 1.0453e-18)
(-5.47034e-07 -2.17514e-05 1.9491e-18)
(-0.0018996 -0.0649846 2.06961e-17)
(-0.0237468 0.00239589 1.61323e-17)
(-0.050664 -0.0446079 -1.51813e-17)
(0.00185053 -0.00327121 6.08276e-18)
(0.000153699 -0.000407997 1.613e-18)
(2.20996e-06 -3.61365e-05 -2.105e-19)
(-0.000189668 0.000254865 4.59626e-19)
(0.0173723 0.00436848 -1.80919e-17)
(-0.0348921 -0.00205633 2.25504e-17)
(0.026278 0.0169702 -1.43319e-17)
(0.000183435 -0.000371289 -1.0641e-19)
(0.000351014 -0.000119349 1.36965e-18)
(5.96589e-05 8.77759e-06 1.23565e-18)
(0.00050307 0.00872826 -1.57243e-17)
(-0.00520142 0.00345529 -3.26108e-18)
(-0.00010301 -0.00333104 2.8828e-17)
(0.0123725 -0.0658356 -3.61755e-17)
(0.00570653 0.0057906 3.03635e-18)
(0.0162741 0.00437592 3.08719e-17)
(0.0543557 0.00882588 3.02358e-17)
(-0.032196 -0.0117886 7.7755e-18)
(1.32517e-06 -2.35246e-05 -1.14928e-19)
(3.11447e-05 -0.000348196 -7.76402e-19)
(3.52506e-05 -0.000556091 -5.34044e-18)
(-0.0349318 0.00498071 2.64692e-17)
(3.51599e-06 -3.4243e-05 5.15483e-18)
(-0.000987112 0.000405826 1.26866e-18)
(0.000331536 -0.000252486 1.281e-18)
(-7.73491e-05 0.00882635 -2.28843e-18)
(4.99425e-05 1.02465e-05 -8.06686e-19)
(0.00516101 0.0107305 1.15977e-17)
(6.41227e-06 -8.47337e-05 4.58611e-18)
(0.00338964 -0.00436613 5.74606e-18)
(-0.0018244 -0.0683535 1.20077e-17)
(0.00026633 7.72799e-05 1.03567e-19)
(0.00829429 0.027854 1.28213e-17)
(-0.000960989 0.000496056 2.18435e-18)
(1.39078e-06 -1.88967e-05 -4.39635e-18)
(0.00045269 -0.00374162 -3.31517e-19)
(0.00475083 -0.00934046 3.11249e-17)
(0.000267904 -0.000269534 -1.47499e-18)
(-0.00568447 0.0135881 4.99653e-18)
(0.000104177 1.3897e-05 3.31079e-19)
(0.0013009 0.00122738 -3.06081e-19)
(-0.0221497 0.00219915 8.42538e-18)
(0.0018534 0.00426521 4.24731e-18)
(-0.00616422 0.00322703 4.54153e-18)
(0.0185821 -0.0301854 -5.3013e-18)
(0.00042038 -0.00127528 -6.79694e-18)
(-0.000374497 -0.0083999 9.08256e-17)
(-0.0303962 0.00399153 -5.29415e-17)
(0.245288 0.107349 2.66282e-18)
(0.0579373 -0.0164363 2.56355e-18)
(1.95468e-06 -7.67759e-05 5.68589e-18)
(0.00223 -0.00655257 4.12057e-17)
(0.0294409 0.0123609 1.53234e-17)
(0.000166027 -0.00030425 4.90575e-19)
(2.37802e-06 -9.09388e-05 7.67223e-20)
(0.00205733 -0.00675409 -4.55093e-17)
(0.00269818 -0.050371 -1.87516e-17)
(0.0103149 0.0114053 -2.18616e-17)
(0.00295958 -0.0011582 -1.38255e-18)
(-0.0057914 0.00372344 -1.12435e-17)
(0.0287565 0.0045684 -2.19328e-17)
(6.51504e-06 -0.000124952 -7.78445e-19)
(-0.00550373 0.0301361 3.02069e-17)
(0.0122786 -0.0663608 -9.95988e-19)
(0.00448307 -0.00902262 -2.00684e-17)
(-0.00410502 -0.0645407 -8.4147e-18)
(0.0482713 0.00105251 3.73276e-17)
(0.0459725 -0.00300238 -4.80044e-18)
(0.00996438 0.00315894 2.57328e-17)
(-0.0280962 -0.0179334 1.66718e-17)
(0.000452716 -0.000217983 -1.84466e-18)
(0.0596287 -0.0111507 1.87763e-17)
(0.0117053 0.00828789 1.77086e-18)
(0.00360994 0.00282634 1.09358e-17)
(1.7536e-07 -0.000100807 7.18682e-19)
(-0.0107985 -0.0643972 3.71799e-17)
(0.00483131 0.0102041 -1.29911e-17)
(0.044284 0.20123 -7.87457e-18)
(3.30484e-05 -0.000342202 1.72423e-18)
(0.087312 -0.0338024 1.60661e-16)
(0.0276221 0.00506901 -2.88803e-18)
(0.232698 0.086626 -3.72434e-18)
(0.000178525 8.62356e-05 -3.46608e-19)
(0.00014936 -0.000321186 -1.29738e-18)
(-1.0519e-06 -4.24273e-05 -8.53923e-19)
(1.16579e-05 -9.21646e-05 -1.05624e-18)
(-0.00283974 -0.0638434 -2.35106e-18)
(3.79609e-05 -0.00930268 -1.75043e-16)
(-0.0186345 -0.00395146 -8.20519e-18)
(0.000457336 -0.00125954 1.18608e-17)
(0.000115399 -0.000605208 -1.35805e-18)
(-0.0063488 -0.000473588 1.70342e-18)
(6.97775e-05 -0.00056699 -7.1487e-19)
(-0.00144271 -0.0682201 6.26249e-17)
(1.67161e-05 -0.000487278 -6.97287e-18)
(0.0831413 -0.0441907 -3.88019e-17)
(-0.00316115 0.0316635 -3.04886e-17)
(0.0801056 0.00141255 -5.30061e-17)
(0.003694 0.0147934 -7.54874e-18)
(-0.0047792 0.00384991 5.97459e-18)
(4.56723e-06 -0.000516359 6.97327e-18)
(0.0132447 0.00998103 -1.61721e-17)
(-0.034541 -0.00245001 9.03695e-18)
(0.00434737 0.0514375 -2.65553e-17)
(0.00416077 0.0547411 3.49907e-17)
(-0.00149775 0.00450039 -6.41682e-18)
(0.000403982 1.75081e-05 1.74787e-19)
(0.000673955 -0.00193191 -5.78692e-18)
(0.00130421 0.0037317 7.01272e-19)
(0.000666137 0.00778118 -1.50189e-17)
(0.0211942 -0.00483723 3.31986e-17)
(0.0262884 0.0275236 -2.816e-17)
(-0.0063551 0.000134971 1.86843e-18)
(1.85595e-06 -5.23791e-05 -4.02822e-18)
(0.0121649 0.0134152 -8.24544e-18)
(0.000901873 -0.0446865 3.42585e-17)
(0.000758298 0.0082025 4.09817e-17)
(0.000757526 -0.00103483 -3.85526e-19)
(-0.00547085 0.0245937 -8.23655e-18)
(-0.0344765 0.0065091 3.28581e-17)
(0.011596 -0.0158371 1.05077e-18)
(-1.98437e-05 -0.000517024 -4.12584e-18)
(0.0514379 -0.014232 -5.36077e-17)
(0.000428419 9.66338e-06 1.31427e-18)
(-7.81357e-06 -0.000496755 3.19701e-18)
(0.000182529 -0.000465223 1.4458e-18)
(-0.0248945 0.00257376 -4.93586e-17)
(0.00334749 0.00272208 -9.87567e-19)
(0.000150806 -0.000426396 1.07648e-18)
(0.000112597 -0.000774144 1.15741e-17)
(0.0479886 -0.0070939 1.0962e-16)
(0.0119369 0.0117349 1.46471e-17)
(0.000286622 -0.000260619 5.57828e-18)
(0.0257281 0.0175016 6.44174e-17)
(0.00044849 -0.000942054 7.40724e-18)
(-0.00472133 0.0277834 -3.02024e-17)
(-0.00127982 0.00477237 -1.95651e-18)
(-0.000312126 0.000602762 8.12505e-19)
(0.00174169 -0.010703 3.9087e-18)
(-0.00100463 0.00181321 5.10188e-18)
(0.0320606 0.0160606 -3.04588e-17)
(0.0011112 0.209323 2.33306e-17)
(-0.000782689 0.0023223 -6.36934e-18)
(0.000160766 8.52703e-05 9.11248e-19)
(2.15619e-05 -0.000227377 -3.18079e-18)
(0.000739856 -0.00109672 2.22311e-18)
(-0.00122716 -0.000638074 6.95825e-17)
(-0.0378086 0.0172463 -4.84777e-17)
(0.0127875 -0.0517343 -4.32117e-17)
(0.000302284 6.73953e-05 6.20195e-20)
(0.0218894 0.0197484 -4.53527e-18)
(0.00958303 -0.0102563 -1.94211e-17)
(0.000985606 -0.0113523 -4.76523e-17)
(0.00019679 -0.000289419 1.86179e-18)
(0.00132038 0.00447684 -8.47912e-18)
(0.100273 -0.0268754 -7.9046e-17)
(-0.0334489 0.00509522 -4.83388e-17)
(-0.00322667 0.0335555 5.61228e-17)
(4.08279e-05 -0.000515721 5.67047e-19)
(5.05972e-05 -0.000656693 2.94975e-18)
(0.000168173 8.26956e-05 -4.8212e-19)
(0.0942183 0.00655879 -2.20369e-17)
(-0.0320315 0.00399483 7.94378e-17)
(-0.0276026 0.00627602 6.54924e-17)
(0.0610133 0.187411 7.21625e-18)
(0.0012231 0.00100606 -1.13277e-18)
(0.00598755 -0.0769268 7.84859e-18)
(0.000253033 -0.00965438 -1.03921e-16)
(0.000664544 -0.00337529 -2.05331e-17)
(-0.0012337 0.000113406 6.83602e-18)
(0.00195395 -0.00192854 -4.93628e-19)
(-0.000536508 -0.0105945 -5.77571e-17)
(-8.99472e-05 0.00022796 6.49399e-19)
(0.000365001 -0.000252205 -2.45326e-20)
(2.68577e-05 -0.000394834 2.33781e-19)
(0.000454111 -0.00141229 -4.72619e-18)
(-0.00049813 0.000503778 1.27977e-18)
(-0.000781232 0.00970832 -6.35459e-18)
(-0.00278475 0.00577404 6.51297e-18)
(0.00547269 -0.0655195 -3.27265e-17)
(8.57786e-05 -0.00102762 -7.03322e-18)
(0.00466209 0.0052397 -1.94742e-18)
(-0.000971217 0.00229221 -3.52523e-19)
(0.00114242 -0.00171279 1.85548e-17)
(0.00375772 -0.0130496 1.84039e-18)
(0.0115443 0.0129189 -2.3047e-18)
(-0.00161536 -0.0422311 1.78243e-17)
(-3.24926e-05 0.00017782 1.16702e-19)
(0.015815 -0.0339344 -3.02455e-17)
(0.00291452 -0.00135698 7.21154e-19)
(-0.0280594 0.00609679 2.01519e-18)
(0.000525063 0.000949475 -3.19383e-19)
(0.0218132 -0.00362093 -6.53184e-18)
(0.000102624 -0.000608167 1.05412e-17)
(0.000691423 -0.00692435 9.74424e-18)
(0.0124053 0.00861789 3.60619e-18)
(-0.000479642 0.000551856 -1.29683e-18)
(-0.00129215 -0.0107986 3.67378e-17)
(0.00664351 -0.0226435 7.34675e-18)
(0.00946261 0.00287045 -3.813e-17)
(0.00052713 -0.000322499 -3.1669e-18)
(0.00520197 0.017381 -5.07035e-17)
(-0.0163135 0.0412635 -1.60361e-17)
(0.00111015 -0.00682567 2.45284e-17)
(0.00126589 -0.00691055 -2.60872e-17)
(0.00224814 -0.0686163 4.97128e-17)
(0.000339032 0.0447901 -2.27983e-18)
(-0.0253559 0.00627814 -2.96776e-18)
(-0.00590769 0.0144075 -1.68111e-17)
(0.000145212 -0.00934598 8.76075e-17)
(-0.000727705 -3.82314e-05 -8.25363e-19)
(0.0191332 -0.064289 -1.01495e-16)
(-0.0167109 -0.00529064 4.67583e-17)
(-8.54374e-05 0.000221072 3.00897e-19)
(1.29014e-05 -0.000317385 2.02594e-18)
(0.0563785 0.0126119 -6.63883e-17)
(0.0005695 -0.000747859 9.4961e-18)
(9.25239e-06 -8.49945e-05 2.67273e-18)
(0.00797426 0.031944 -1.37259e-17)
(0.0109194 0.0311469 -1.51042e-17)
(0.00132611 0.00106307 5.15298e-19)
(0.00121572 0.00466201 3.64803e-18)
(0.00494941 0.00555761 8.83708e-18)
(0.00561181 -0.00429249 -3.37771e-18)
(0.000281464 0.00498108 -6.31704e-18)
(0.000177788 -0.000301372 2.69848e-18)
(0.0101897 -0.000563349 -2.3412e-18)
(-0.000339331 -0.0680927 -1.21549e-17)
(-0.000434976 0.000543692 -1.45827e-18)
(0.00764049 -0.0443146 1.01616e-18)
(1.04681e-05 -0.000101729 -8.97845e-19)
(6.12016e-05 -0.000370645 -2.34059e-18)
(-2.52588e-05 3.27501e-05 -1.98786e-19)
(-0.0014165 -0.0687549 2.53846e-17)
(-1.79473e-05 -0.000344723 3.1898e-18)
(0.0416485 -0.006594 -8.00003e-17)
(0.0396095 -0.0344103 -1.53776e-17)
(0.0001136 -0.000238861 1.29421e-18)
(9.90686e-05 -0.000586262 -2.0872e-18)
(0.0389102 0.0224935 -1.54824e-16)
(-3.29353e-05 2.67887e-05 -4.47841e-20)
(9.65958e-06 -0.00020564 -4.90652e-19)
(-6.94937e-05 2.49032e-05 -1.37674e-19)
(0.0351632 -0.0393073 2.17079e-17)
(0.00174466 -0.0104475 -3.60445e-17)
(0.00181426 -0.00287836 -1.79985e-18)
(0.00547647 -0.0130412 -4.30813e-18)
(0.00907244 0.0254815 5.25393e-17)
(0.0237596 0.194798 -1.86807e-17)
(0.00254569 -0.0662263 -9.46282e-17)
(-0.000686419 0.002487 2.79952e-18)
(-0.0096778 -0.0807818 1.14634e-17)
(6.08081e-06 -8.73631e-05 -1.68393e-18)
(-0.0308555 0.0522265 -1.37966e-17)
(-0.00169015 -0.0137964 -5.72638e-18)
(0.00543949 -0.0664749 3.15491e-17)
(0.0818088 -0.0410644 1.81983e-17)
(0.000853595 0.0427408 -1.861e-17)
(-0.00189971 0.00448013 -3.00454e-18)
(0.00968186 0.0106974 1.62732e-17)
(-0.00245191 0.00547975 -6.56449e-18)
(-0.00134899 -6.9306e-05 -5.35506e-19)
(-0.00170716 0.0020424 -1.78251e-18)
(0.0042859 -0.0127215 1.77084e-18)
(0.00192495 -0.00336327 -5.33206e-18)
(8.45325e-05 -0.000578485 8.62194e-19)
(1.24142e-07 -5.77216e-06 3.91093e-18)
(-3.75999e-05 0.000189633 5.87979e-19)
(-0.000179525 -8.64335e-07 -1.98406e-19)
(-0.00040374 0.000586836 -1.10182e-18)
(0.000230375 -0.0595251 -6.30057e-18)
(0.000205324 8.1425e-05 2.24598e-18)
(0.000514548 0.000759573 3.95893e-19)
(-0.000174068 -2.0382e-06 -2.3626e-19)
(0.000273307 7.66098e-05 -7.74462e-19)
(0.00119137 -0.0672268 -7.56546e-17)
(0.0121999 -0.0158971 9.32977e-18)
(-0.00101567 -0.00760439 9.95529e-19)
(0.00050616 -0.00246387 -4.22924e-18)
(-0.00375185 0.0242921 -3.45518e-18)
(-0.000173418 -5.604e-07 2.75742e-19)
(0.120947 0.0888349 -6.22185e-18)
(-0.0169957 -0.0011981 1.12324e-16)
(1.58694e-05 -0.000340565 -4.36408e-18)
(0.0415405 -0.0295043 7.44772e-17)
(-0.00397392 0.0124566 3.3097e-18)
(4.86746e-05 -0.000354439 6.75987e-18)
(-0.00868773 0.00773493 -1.9569e-17)
(0.213419 0.0711851 6.05944e-18)
(0.000187824 -0.000383695 9.35615e-19)
(0.0104819 -0.00101565 2.77359e-18)
(0.00577562 -0.0069908 1.43334e-17)
(0.00105922 -0.00151356 1.17271e-18)
(-0.000531943 -0.00521585 -2.56417e-17)
(0.000473899 0.000838767 -2.14442e-18)
(0.000977148 -0.00170663 -6.73529e-18)
(-0.0746857 0.0644967 4.1742e-18)
(0.00450451 -0.0054511 -8.3823e-18)
(0.000333681 -0.000128755 2.58343e-20)
(6.09507e-05 -0.000460666 -1.18339e-18)
(0.000502868 -0.00239822 -1.46742e-17)
(0.011957 -0.0111064 -7.19441e-18)
(-0.000352746 -0.00989118 -2.00118e-17)
(0.000244811 -0.000344549 7.39557e-18)
(0.000185355 8.35292e-05 7.45929e-20)
(-0.000410837 0.00107497 7.65245e-19)
(-0.000722898 -0.000627431 -5.49989e-17)
(-0.0270051 -0.0549993 1.28493e-20)
(-0.0103751 -0.0146996 4.0434e-17)
(-0.000697716 6.19304e-05 -9.79037e-19)
(0.00475164 -0.00565741 2.74746e-18)
(-0.000734638 -0.00530947 3.0734e-17)
(0.00224479 -0.0155118 -3.76818e-18)
(0.00851908 0.0216805 2.49693e-17)
(-0.000725255 -0.000295374 4.30683e-19)
(-0.000897119 -9.64699e-05 1.67356e-19)
(-0.000344378 0.00108584 5.87635e-20)
(0.00883212 0.010896 1.27377e-17)
(0.00146353 -0.000778633 -5.90805e-18)
(-0.0323858 -0.00750675 -5.00981e-17)
(0.000111825 -0.000632975 -7.26183e-18)
(0.000363422 8.64161e-05 1.02962e-18)
(0.0630397 0.0664716 2.71573e-17)
(0.000112948 -0.0583311 9.73078e-18)
(0.0181073 -0.0377496 4.35247e-17)
(-0.000181493 6.72179e-07 -5.87162e-19)
(-0.0084159 -0.0653458 -1.2582e-17)
(0.00344017 -0.00114708 3.44543e-18)
(-0.000711028 -0.00996791 -4.01121e-18)
(-0.022606 0.00110238 -6.6684e-18)
(0.00223532 -0.0691449 -4.40587e-17)
(0.00300559 -0.000532566 -1.55774e-18)
(0.00618477 0.00582392 -2.22959e-17)
(0.0270025 0.0256305 -5.28986e-18)
(-0.00540174 -0.062877 6.78135e-17)
(-0.00338687 -0.0652725 3.13504e-18)
(-0.000623601 -0.00364119 1.0226e-17)
(3.42978e-06 -4.24793e-05 -2.75859e-19)
(0.00177802 -0.00300085 -4.39976e-18)
(-0.000944057 0.000239353 2.79645e-18)
(0.000190757 7.35516e-05 -1.05523e-18)
(0.00137775 -0.000823558 3.27094e-18)
(0.000178026 -0.000361451 7.52706e-19)
(5.10637e-08 -2.11465e-06 -1.44658e-18)
(-0.0259543 -0.00713035 2.17323e-17)
(3.24641e-05 -0.000270728 -8.56349e-20)
(0.0140283 0.00839943 -3.19293e-17)
(0.00499782 0.00643185 -6.56441e-18)
(0.131653 0.0311692 6.44682e-17)
(-0.000700203 -0.000351599 -1.91757e-19)
(0.00312591 -0.00108836 -6.66046e-19)
(0.000969049 -0.0702018 2.00875e-17)
(7.23706e-05 -0.00955288 -1.28006e-16)
(-0.0526858 -0.0414568 -2.14792e-18)
(0.00798971 0.0208397 -1.21249e-17)
(0.000342205 7.39113e-05 -1.02453e-18)
(0.0031514 -0.000441021 -2.42089e-18)
(0.000279194 -0.000314535 2.03016e-19)
(0.0194171 -0.0134649 8.39821e-18)
(-0.00011522 7.0209e-05 -8.4388e-20)
(0.0214423 -0.039849 2.20911e-17)
(0.00760847 -0.0112055 9.58449e-18)
(0.0142289 -0.00472556 4.30052e-17)
(-0.0101766 -0.0133444 -3.69956e-17)
(-0.0745738 0.0813254 1.89121e-17)
(8.28881e-05 -0.000220935 -5.13227e-18)
(0.000507385 -0.000272585 -4.3042e-18)
(0.0267425 0.0294731 1.53916e-17)
(0.0202822 -0.0130673 -6.34747e-17)
(4.45577e-05 -0.0010067 1.43351e-17)
(-0.0263711 0.000447062 1.08804e-16)
(9.07035e-05 -0.000234225 3.76391e-18)
(5.01754e-05 -0.000484841 1.18467e-18)
(-0.00542534 -0.0139279 1.06236e-17)
(-4.13759e-05 0.000171743 -6.6273e-19)
(0.00947409 0.0268261 -3.07188e-17)
(-0.000728067 4.86501e-05 -3.1971e-19)
(-0.0271746 0.200111 -1.37011e-18)
(0.000108293 -0.000646239 6.95142e-18)
(-0.00114477 0.00172852 -2.45229e-18)
(0.067904 0.024524 -2.46973e-17)
(-0.000373642 -0.00822435 -4.74527e-17)
(-0.0309987 0.0176492 -4.35192e-18)
(0.000772038 -0.0033662 -1.73762e-17)
(0.000132546 -0.000208748 -1.75054e-18)
(0.000687016 -0.000226127 1.38751e-19)
(0.0738966 -0.00201719 1.33001e-16)
(0.0117671 0.00733227 2.57202e-17)
(-0.000487563 0.000244343 7.66235e-20)
(2.36775e-05 -0.000466838 1.76663e-18)
(0.00317946 -0.00455722 1.54123e-17)
(-0.00112045 -0.00524456 2.08914e-17)
(-0.0331354 0.0151 -1.24469e-18)
(-0.0322695 0.00637007 -2.4837e-17)
(2.93612e-05 -0.000438913 4.09112e-18)
(0.000354381 -0.000129476 -1.52734e-18)
(0.00243442 -0.011233 2.88658e-18)
(0.000134008 -0.000198198 -3.22769e-19)
(0.00076254 -0.0689761 2.58159e-17)
(0.00145485 -0.0114703 1.94066e-17)
(6.00746e-05 -0.000615939 -5.93675e-19)
(0.000206527 -0.000363007 -6.26973e-19)
(-0.00156621 0.0020434 2.04852e-18)
(0.00010576 -0.000230058 1.36241e-18)
(-0.000454154 0.000989918 -1.48305e-18)
(-0.0107993 -0.0648084 -5.70649e-17)
(0.000901264 -0.00705298 -3.33796e-17)
(0.033443 0.0250448 1.37429e-17)
(-0.000976561 -0.00413025 -1.70163e-17)
(-0.0042068 0.00152216 2.56206e-18)
(0.00440519 0.0142747 -1.52295e-17)
(-0.000127059 -0.00322515 -5.32525e-18)
(-0.00237387 -0.0675692 -6.85653e-17)
(0.000561268 -0.003709 -3.22375e-18)
(4.16508e-06 -0.000113013 8.04864e-18)
(0.00168289 0.00449679 1.62746e-17)
(0.0130786 -0.0145571 -3.00886e-18)
(0.000553471 -0.00118163 1.16502e-17)
(0.00044119 -0.00100796 -7.27073e-18)
(0.000411006 -0.00136064 9.67772e-18)
(-0.00010468 6.63764e-05 -3.19616e-19)
(0.000299097 -0.000160759 9.42069e-19)
(0.000680057 0.000619954 -5.30414e-19)
(5.82012e-05 -0.000549513 1.92129e-18)
(6.14657e-05 -0.000201501 2.09604e-19)
(0.0019814 -0.00154819 -3.08682e-18)
(-0.00199582 0.00548548 1.5496e-18)
(0.00711821 0.0330987 -3.16071e-18)
(-0.000182699 1.33863e-05 -4.06924e-19)
(-0.000440503 -0.0103179 5.25444e-18)
(0.00153624 -0.00320349 -1.66796e-17)
(0.00769157 -0.0119864 -3.60214e-18)
(0.00257772 -0.0685367 5.03725e-17)
(-0.00135248 7.01157e-05 -5.03558e-18)
(0.0810725 0.0698794 -1.88631e-17)
(0.0147361 -0.00323206 3.39955e-17)
(-0.0012224 0.00023182 -7.88593e-19)
(-0.000109278 9.92778e-05 2.50575e-19)
(0.000878679 -0.00103414 1.13319e-18)
(0.118308 -0.0316161 -1.88709e-17)
(0.0101316 0.0245657 -2.64427e-17)
(-0.000117362 9.38754e-05 -1.34119e-19)
(6.24873e-05 -0.000688713 2.14879e-18)
(3.43772e-05 -0.000417085 -3.35409e-18)
(-0.00188662 -0.00755087 2.04013e-17)
(0.00909392 -0.0109446 -1.23986e-18)
(0.0306422 0.00863359 -1.46153e-17)
(0.000107099 9.52136e-06 -4.531e-19)
(9.02037e-05 -0.000766981 4.43444e-18)
(0.000934521 -0.00479717 8.54342e-18)
(-0.035064 0.00394922 1.53006e-17)
(0.00369667 -0.0666517 -8.68733e-17)
(0.000918498 -0.00272868 4.89298e-18)
(-0.00199671 0.00356525 7.16167e-18)
(0.0122557 -0.0380829 1.37953e-19)
(0.0354829 0.0147106 2.32582e-17)
(0.0158609 0.0387307 -2.86035e-17)
(0.00125589 -0.00137872 5.46283e-18)
(0.000384334 4.91491e-05 4.14067e-19)
(0.00645489 -0.0653067 -8.78241e-18)
(0.000445253 -0.000292424 -6.7879e-19)
(0.0104686 -0.0103005 -5.55314e-18)
(0.135294 0.0301366 7.40638e-17)
(-0.00047116 0.000205789 -3.16796e-19)
(0.00198554 -0.0103454 2.67902e-17)
(0.00396508 0.00506243 -1.95174e-17)
(-0.00877614 -0.0644592 2.28852e-17)
(0.000656309 -0.000204892 9.05265e-19)
(0.00632584 -0.0559246 -7.22321e-18)
(0.0271791 0.0139588 1.55343e-17)
(-0.00705082 0.00413196 1.44599e-17)
(0.0363717 0.022499 8.55569e-17)
(0.00046778 -0.00024688 -1.46179e-18)
(0.00288489 -0.0161323 1.08995e-17)
(8.88907e-05 -0.000661612 3.67709e-18)
(0.000509184 -0.000222382 1.97172e-18)
(1.76096e-05 -0.00019971 1.20002e-18)
(0.000310037 -0.000230771 -1.60763e-18)
(0.0510714 -0.0244467 -5.45969e-17)
(0.000461156 -0.000238716 -6.67616e-18)
(-0.000830471 0.000583752 -3.73925e-19)
(0.000744568 -0.00238903 5.59697e-19)
(-0.000689945 0.000137692 -1.45364e-18)
(0.000403429 4.07906e-05 -7.42118e-19)
(0.0101379 -0.00215321 -6.69443e-19)
(0.00228299 -0.000969377 -6.48495e-18)
(-0.00428737 0.0132839 -9.09592e-18)
(0.00016357 -7.7325e-05 -3.46258e-19)
(0.000157643 -9.61917e-05 -8.19708e-19)
(0.00124584 -0.0698437 2.80015e-17)
(-0.000492238 -0.00790748 -3.62513e-17)
(0.000893437 -0.00267452 1.07404e-17)
(0.0155579 -0.049191 8.12972e-17)
(-0.00184927 0.0051365 6.22826e-18)
(0.00155846 -0.00101545 -1.95321e-18)
(-3.4898e-05 -0.0003518 3.06901e-18)
(-0.000503797 0.000968918 5.46969e-19)
(-0.016195 -0.0159408 6.16507e-18)
(-0.000866073 0.000500079 -1.65788e-18)
(9.2562e-05 -2.16693e-05 8.84385e-19)
(-0.0388324 0.00100469 -3.31815e-17)
(0.0508252 0.0094252 6.40366e-17)
(0.00592786 -0.00405055 8.3813e-19)
(0.000282704 6.72918e-05 2.71027e-18)
(1.16613e-06 -4.23696e-05 -1.35439e-18)
(0.000321739 0.00212549 -1.69059e-18)
(1.21911e-05 -0.00017379 2.78723e-19)
(-0.00539246 -0.0435318 5.9133e-17)
(0.00106176 -0.00158201 -5.03786e-18)
(0.096078 0.177307 2.14818e-17)
(-0.00392125 0.00390861 -1.34106e-18)
(-0.000739296 -0.010565 -7.59185e-17)
(3.46593e-06 -0.000114953 -2.23531e-18)
(-0.0354776 0.00227816 8.67472e-17)
(2.01494e-05 9.52263e-06 -1.61157e-19)
(0.012406 -0.0120144 -5.10774e-18)
(0.000418972 -0.000322766 1.78872e-18)
(-0.0204478 0.0413479 1.85037e-17)
(0.00246522 -0.0703897 -3.39275e-17)
(8.19817e-05 -0.000676689 -7.51349e-19)
(0.068866 0.00915155 -4.67059e-17)
(0.000502413 -0.000594863 -3.42746e-18)
(1.05895e-05 -9.48466e-06 -7.61783e-19)
(-0.000346308 0.000518262 -1.23561e-18)
(0.111328 -0.00896585 4.32742e-17)
(0.00414442 -0.0667365 4.3075e-17)
(0.00081321 -0.00105763 -5.86152e-19)
(0.00422297 0.0053725 7.2949e-18)
(-0.000924745 0.00033659 3.40947e-18)
(0.00212839 -0.0306217 -1.16219e-16)
(-0.000178991 1.7383e-05 7.53036e-19)
(0.0104546 -0.000162179 -8.36383e-18)
(0.00830896 -0.0543428 2.78431e-18)
(-0.000219399 -0.00341144 -1.76602e-17)
(0.00010476 -1.69827e-05 -4.07826e-19)
(0.00262275 -0.00653587 -8.34236e-18)
(7.59969e-06 -4.53061e-05 -5.30869e-19)
(0.000243513 0.00224574 2.36568e-18)
(-0.000220282 0.0011698 7.02974e-20)
(0.00511682 0.032931 -1.49948e-17)
(0.000135471 4.72917e-05 1.70369e-19)
(0.0216836 -0.0213061 6.74005e-17)
(0.000153185 -0.000121055 1.18197e-18)
(0.0015602 -0.000615967 1.82066e-18)
(-0.00899572 0.0159762 7.79855e-18)
(0.00323226 -0.00828532 8.82352e-18)
(0.0178583 0.0408577 -2.32664e-18)
(0.000486793 0.000694417 1.97445e-19)
(-0.0321429 0.00296007 -3.50308e-17)
(0.00054542 -0.000278794 4.93972e-18)
(0.00944272 -0.0118304 -2.03547e-17)
(0.000290329 -0.000703496 -2.17639e-18)
(-0.00106498 0.00211473 -3.61497e-18)
(0.000460384 -0.000300473 3.45655e-18)
(0.000153642 -0.000128957 2.13249e-18)
(4.10236e-06 -0.000101718 -9.27144e-19)
(0.00903769 -0.0123645 -9.59567e-18)
(-0.0239229 0.00850423 -1.44991e-18)
(0.0623216 0.00598433 6.5405e-17)
(0.0203196 0.010058 2.40536e-17)
(0.00116851 -0.00527812 9.01416e-18)
(0.00393807 -0.004328 -4.30368e-18)
(-0.00317489 -0.0149681 -4.24169e-18)
(0.00140331 0.0039628 -1.33915e-19)
(-0.00911203 -0.047147 -5.63993e-17)
(-0.0185917 -0.0372836 -2.56778e-17)
(0.011845 -0.0127318 -1.73914e-18)
(-0.00929807 -0.00268663 8.99939e-18)
(0.0942415 0.0353222 1.6145e-17)
(0.0109355 -0.011198 1.95497e-17)
(0.000126344 0.00222852 -4.03656e-18)
(-9.80947e-08 -0.0100478 7.40583e-17)
(-0.010253 0.0156454 2.64198e-18)
(-0.000949807 0.00197339 1.45931e-18)
(0.0121497 -0.01371 9.06514e-18)
(5.22052e-06 -3.85539e-05 1.23141e-18)
(0.00502047 -0.0132211 -3.95762e-18)
(0.00584172 -0.00354707 6.161e-18)
(0.0210966 0.0303877 4.8981e-17)
(-0.000676316 -0.00393756 1.53284e-17)
(-0.00149963 -0.0556074 1.11805e-18)
(-0.0426753 -0.0134501 -1.46542e-17)
(-0.0081462 0.0147515 7.19005e-18)
(0.0193636 0.0304611 -8.41461e-17)
(1.72766e-05 -0.000346975 -5.88759e-18)
(0.00835601 -0.0156169 -2.21994e-17)
(-0.000378494 -0.0024686 8.62464e-18)
(0.000400308 -0.00029529 -8.57534e-19)
(0.0013552 -0.000912751 -3.0152e-18)
(-0.00496479 -0.000668503 3.0952e-18)
(0.0110235 0.0070183 -3.16924e-17)
(0.00319142 -0.0680661 2.73016e-17)
(0.00557228 -0.0122365 -1.56226e-19)
(-0.038351 0.00536101 6.09552e-17)
(0.00150701 0.00354194 -3.22683e-18)
(0.00206551 -0.00196175 1.64641e-18)
(-0.0107012 -0.0634794 -4.12124e-17)
(-0.000275015 -0.00966131 4.05184e-17)
(-0.001539 0.00339335 -1.07404e-17)
(0.00819682 0.0187604 -1.0514e-17)
(0.00118489 -0.00173461 -2.44278e-17)
(-0.00125605 -0.01055 3.05316e-17)
(0.0758413 0.0356639 3.14883e-17)
(6.81525e-05 -0.000591705 1.65749e-18)
(-0.00132762 -0.00766486 -3.89597e-17)
(0.00263986 -0.0109407 -1.31523e-17)
(-0.0374575 -0.0245359 4.85252e-17)
(0.000100479 1.23193e-05 -9.6861e-19)
(0.00192963 -0.00312689 3.53708e-18)
(0.0337298 -0.00428782 1.13429e-16)
(-0.00129213 0.00914897 -1.01219e-18)
(0.0970114 0.0106136 2.93854e-17)
(-0.0169522 0.0419027 -6.74901e-18)
(0.131668 0.0346001 2.33649e-18)
(0.00291493 -0.00239395 -8.4797e-19)
(0.00171972 0.00401324 -3.76835e-18)
(0.00089412 0.00110481 -1.02297e-18)
(0.00013561 -0.000737315 -1.3692e-17)
(-0.000813623 0.0628915 1.04154e-18)
(1.64087e-06 -3.66977e-05 3.61077e-18)
(-0.0104184 0.0644134 -1.27146e-17)
(0.0211681 0.0136314 -1.42205e-17)
(0.0125672 -0.00586085 -1.49467e-17)
(2.06983e-06 -1.63148e-05 -1.01041e-18)
(1.71218e-05 -9.95709e-05 2.46968e-18)
(-0.00486183 0.00109249 2.49565e-18)
(-0.00214239 -0.000416394 1.07163e-18)
(4.92965e-05 1.29917e-05 7.6128e-20)
(0.000575138 -0.00080962 -2.80311e-18)
(0.0193848 0.00955928 2.9386e-18)
(0.129423 -0.0274942 2.03056e-17)
(-0.0514157 -0.0423118 1.02086e-17)
(1.29091e-06 -2.25845e-05 -1.67158e-18)
(0.0179855 -0.0126905 2.56262e-17)
(0.00026805 4.59929e-05 -3.3189e-18)
(-0.0202498 -0.0445955 2.11656e-17)
(-0.00266391 0.0195301 5.93862e-18)
(0.00155463 -0.00641132 -3.32019e-17)
(-0.000912812 -0.00519126 -2.34913e-17)
(0.0264204 0.01457 1.01893e-16)
(6.92911e-05 6.09229e-05 -6.93738e-20)
(0.000197247 -0.000428657 2.49476e-18)
(0.00273844 -0.0062146 5.77415e-19)
(0.000443415 -0.000329073 -2.00141e-18)
(0.00030545 0.00202354 -4.42327e-18)
(0.0107 0.0150202 -2.32038e-17)
(-0.0238501 -0.0575579 1.14485e-17)
(-0.000539525 0.000480411 -1.39864e-18)
(0.00392406 0.055369 -1.75473e-17)
(0.014736 -0.0659763 6.85374e-17)
(0.000581101 0.00515932 1.08748e-17)
(-0.0518504 0.0477434 2.76839e-17)
(0.0212815 -0.0647381 -3.89535e-17)
(0.000724939 0.000677653 3.72357e-19)
(0.0123282 0.0096928 2.26628e-17)
(-0.0080352 0.00491457 -1.85471e-17)
(0.00120933 0.000886701 3.94152e-19)
(-0.000307047 0.000505003 -6.15987e-19)
(0.000952847 -0.00839155 4.39126e-18)
(0.0113462 -0.0662132 -6.24667e-17)
(-0.0352774 0.00377243 -2.74183e-17)
(0.000585476 -0.00124418 1.5075e-19)
(4.47438e-05 -0.000443963 3.09466e-18)
(-6.49637e-05 0.000612394 9.33613e-19)
(-0.00703625 -0.00148169 3.75808e-18)
(0.00230021 -0.000823278 1.24046e-18)
(0.00273574 -0.00140949 1.00155e-17)
(-0.00186804 -0.0108427 8.34293e-17)
(-0.00403062 0.0198309 4.2272e-17)
(6.92701e-05 -0.000217204 1.06324e-18)
(0.0342202 0.0162229 -5.63807e-17)
(-0.00017933 0.0095531 1.45654e-17)
(0.00130675 -0.00503448 -3.13249e-18)
(0.00016561 0.00195628 7.31529e-18)
(-0.0314783 -0.00136206 3.12016e-17)
(-0.00207176 0.00416597 3.66871e-18)
(0.000101858 4.64672e-05 8.3446e-19)
(0.0131909 -0.00564041 4.79434e-17)
(-0.000657516 -0.0111621 -8.78055e-19)
(-0.000531928 0.000243694 -5.33415e-19)
(4.55773e-05 -0.00058183 -4.26407e-18)
(0.000262083 -0.000290298 -1.17634e-18)
(-0.00677502 0.00334758 -8.11573e-18)
(6.59959e-05 5.85586e-05 3.96458e-19)
(-0.00697714 0.0151833 1.06459e-17)
(0.0267876 0.0216403 -3.31869e-17)
(0.00171378 -0.000467011 8.62235e-19)
(0.00446862 0.0341056 -1.76553e-17)
(-0.00140677 0.00318224 2.34019e-18)
(0.000163315 0.00179381 -4.19194e-18)
(0.029618 0.0401274 -2.3979e-17)
(-0.00869871 -0.0455041 1.40676e-17)
(0.00972694 0.0453593 -4.60805e-18)
(0.000179518 -0.000462853 2.64615e-18)
(-0.000608159 0.000207373 -2.19848e-18)
(0.246964 0.0376618 3.97753e-17)
(0.000545253 -0.00354611 2.52028e-17)
(0.0649793 0.0638588 1.89512e-17)
(-0.000518159 0.00011804 2.50801e-18)
(0.000508979 -0.000674112 1.10367e-19)
(-0.0208689 -0.00497891 3.23786e-17)
(0.0800132 0.19236 -1.5783e-17)
(0.00545464 0.00538701 2.98458e-19)
(0.0086651 0.0293013 1.13077e-17)
(-0.000446986 -0.00744711 -1.91381e-17)
(0.000557589 -0.000308915 -1.25128e-20)
(1.36119e-06 -1.32378e-05 2.59379e-18)
(0.00124729 0.000642861 7.03913e-19)
(-0.0181439 -0.029735 2.89284e-17)
(9.6327e-05 -2.091e-05 1.74945e-19)
(-1.36542e-07 -2.59352e-06 -4.12634e-18)
(-0.00664286 -0.0627469 1.9089e-17)
(-0.000679218 -0.00386501 -3.19426e-17)
(0.0302923 0.00568696 9.59638e-18)
(-0.000538557 -0.00500515 -5.82989e-18)
(0.000264171 6.75079e-05 2.99758e-19)
(-0.00392643 -0.0494711 -1.18751e-17)
(5.60313e-06 -7.07314e-05 6.58181e-18)
(0.000354075 -0.000624841 -6.05316e-18)
(0.00122755 0.00055439 -7.65702e-20)
(0.00356757 -0.00365425 3.94245e-18)
(-0.000303119 -0.0702977 -1.07136e-17)
(7.4023e-05 -0.00037662 -1.42224e-19)
(-1.96087e-05 -0.000342167 -1.30783e-17)
(0.00045441 -0.00035792 -4.5001e-18)
(0.000480475 -0.000296306 6.10115e-18)
(0.000271172 6.10566e-05 -1.47565e-18)
(0.000976887 0.00112478 -2.00544e-19)
(-0.0270876 -0.00155958 -2.90711e-17)
(0.00358356 -0.00390143 7.86867e-18)
(0.00185115 -0.00157498 4.03517e-18)
(0.00013988 -0.000377236 -2.96613e-19)
(0.00333845 -0.00410104 9.88564e-18)
(0.0133648 0.0107118 -1.82869e-18)
(-0.00821574 0.0035178 -9.69332e-18)
(-0.000800956 -0.00411772 -7.09038e-18)
(1.58372e-07 -4.96222e-06 6.86222e-19)
(-9.43625e-05 0.000588299 -2.0934e-18)
(0.00298028 0.000205407 5.96396e-19)
(0.00280431 -0.0675133 -1.29155e-17)
(-0.104315 0.0159107 4.6232e-17)
(-0.00404833 0.00118318 -2.50428e-18)
(-0.0378345 0.00345256 -4.84597e-17)
(1.397e-05 -0.000358466 1.22292e-18)
(0.00270352 -0.0023658 6.38767e-18)
(0.0310872 -0.0206079 4.95586e-17)
(-4.02772e-05 -0.00972546 1.87226e-17)
(0.000329273 0.000994144 3.12802e-19)
(5.06306e-05 -0.000342095 3.16114e-19)
(-0.000984846 -0.00978648 9.92678e-17)
(0.00460133 0.0180536 -7.75612e-19)
(9.71376e-05 4.79877e-05 -1.56559e-18)
(7.57679e-06 -0.000177047 5.40848e-19)
(0.0308025 -0.0291431 -2.9301e-17)
(1.59031e-06 -9.54288e-06 8.51547e-19)
(0.0158373 0.00328184 -2.61515e-18)
(0.000202375 -0.000351027 -2.15478e-18)