/*--------------------------------*- C++ -*----------------------------------*\
| =========                 |                                                 |
| \\      /  F ield         | OpenFOAM: The Open Source CFD Toolbox           |
|  \\    /   O peration     | Version:  v2012                                 |
|   \\  /    A nd           | Website:  www.openfoam.com                      |
|    \\/     M anipulation  |                                                 |
\*---------------------------------------------------------------------------*/
FoamFile
{
    version     2.0;
    format      ascii;
    class       pointVectorField;
    location    "250";
    object      pointDisplacement;
}
// * * * * * * * * * * * * * * * * * * * * * * * * * * * * * * * * * * * * * //

dimensions      [0 1 0 0 0 0 0];


internalField   nonuniform List<vector> 
10232
(
(0 0 0)
(0 1.10196e-05 0)
(0 1.10196e-05 0)
(0 1.10196e-05 0)
(0 1.10196e-05 0)
(0 0 0)
(0 1.10196e-05 0)
(0 1.10196e-05 0)
(0 1.10196e-05 0)
(0 1.10196e-05 0)
(0 0 0)
(0 0 0)
(0 0 0)
(0 0 0)
(0 0 0)
(0 0 0)
(0 0 0)
(0 0 0)
(0 0 0)
(0 0 0)
(0 0 0)
(0 0 0)
(0 0 0)
(0 0 0)
(0 0 0)
(0 0 0)
(0 0 0)
(0 0 0)
(0 0 0)
(0 0 0)
(0 0 0)
(0 0 0)
(0 0 0)
(0 0 0)
(0 0 0)
(0 0 0)
(0 0 0)
(0 0 0)
(0 0 0)
(0 0 0)
(0 0 0)
(0 0 0)
(0 0 0)
(0 0 0)
(0 0 0)
(0 0 0)
(0 0 0)
(0 0 0)
(0 0 0)
(0 0 0)
(0 0 0)
(0 0 0)
(0 0 0)
(0 0 0)
(0 0 0)
(0 0 0)
(0 0 0)
(0 0 0)
(0 0 0)
(0 0 0)
(0 0 0)
(0 0 0)
(0 0 0)
(0 0 0)
(0 0 0)
(0 0 0)
(0 0 0)
(0 0 0)
(0 0 0)
(0 0 0)
(0 0 0)
(0 0 0)
(0 0 0)
(0 0 0)
(0 0 0)
(0 0 0)
(0 0 0)
(0 0 0)
(0 0 0)
(0 0 0)
(0 0 0)
(0 0 0)
(0 0 0)
(0 0 0)
(0 1.10196e-05 0)
(0 1.10196e-05 0)
(0 1.10196e-05 0)
(0 1.10196e-05 0)
(0 1.10196e-05 0)
(0 1.10196e-05 0)
(0 1.10196e-05 0)
(0 1.10196e-05 0)
(0 1.10196e-05 0)
(0 1.10196e-05 0)
(0 1.10196e-05 0)
(0 1.10196e-05 0)
(0 1.10196e-05 0)
(0 1.10196e-05 0)
(0 1.10196e-05 0)
(0 1.10196e-05 0)
(0 1.10196e-05 0)
(0 1.10196e-05 0)
(0 1.10196e-05 0)
(0 1.10196e-05 0)
(0 1.10196e-05 0)
(0 1.10196e-05 0)
(0 1.10196e-05 0)
(0 1.10196e-05 0)
(0 1.10196e-05 0)
(0 1.10196e-05 0)
(0 1.10196e-05 0)
(0 1.10196e-05 0)
(0 1.10196e-05 0)
(0 1.10196e-05 0)
(0 1.10196e-05 0)
(0 1.10196e-05 0)
(0 1.10196e-05 0)
(0 1.10196e-05 0)
(0 1.10196e-05 0)
(0 1.10196e-05 0)
(0 1.10196e-05 0)
(0 1.10196e-05 0)
(0 1.10196e-05 0)
(0 1.10196e-05 0)
(0 1.10196e-05 0)
(0 1.10196e-05 0)
(0 1.10196e-05 0)
(0 1.10196e-05 0)
(0 1.10196e-05 0)
(0 1.10196e-05 0)
(0 1.10196e-05 0)
(0 1.10196e-05 0)
(0 1.10196e-05 0)
(0 1.10196e-05 0)
(0 1.10196e-05 0)
(0 1.10196e-05 0)
(0 1.10196e-05 0)
(0 1.10196e-05 0)
(0 1.10196e-05 0)
(0 1.10196e-05 0)
(0 1.10196e-05 0)
(0 1.10196e-05 0)
(0 1.10196e-05 0)
(0 1.10196e-05 0)
(0 1.10196e-05 0)
(0 1.10196e-05 0)
(0 1.10196e-05 0)
(0 1.10196e-05 0)
(0 1.10196e-05 0)
(0 1.10196e-05 0)
(0 1.10196e-05 0)
(0 1.10196e-05 0)
(0 1.10196e-05 0)
(0 1.10196e-05 0)
(0 1.10196e-05 0)
(0 1.10196e-05 0)
(0 1.10196e-05 0)
(0 1.10196e-05 0)
(0 1.10196e-05 0)
(0 1.10196e-05 0)
(0 1.10196e-05 0)
(0 1.10196e-05 0)
(0 1.10196e-05 0)
(0 1.10196e-05 0)
(0 1.10196e-05 0)
(0 1.10196e-05 0)
(0 1.10196e-05 0)
(0 1.10196e-05 0)
(0 1.10196e-05 0)
(0 1.10196e-05 0)
(0 1.10196e-05 0)
(0 1.10196e-05 0)
(0 1.10196e-05 0)
(0 1.10196e-05 0)
(0 1.10196e-05 0)
(0 1.10196e-05 0)
(0 1.10196e-05 0)
(0 1.10196e-05 0)
(0 1.10196e-05 0)
(0 1.10196e-05 0)
(0 1.10196e-05 0)
(0 1.10196e-05 0)
(0 1.10196e-05 0)
(0 1.10196e-05 0)
(0 1.10196e-05 0)
(0 1.10196e-05 0)
(0 1.10196e-05 0)
(0 1.10196e-05 0)
(0 1.10196e-05 0)
(0 1.10196e-05 0)
(0 1.10196e-05 0)
(0 1.10196e-05 0)
(0 1.10196e-05 0)
(0 1.10196e-05 0)
(0 1.10196e-05 0)
(0 1.10196e-05 0)
(0 1.10196e-05 0)
(0 1.10196e-05 0)
(0 1.10196e-05 0)
(0 1.10196e-05 0)
(0 0 0)
(0 0 0)
(0 0 0)
(0 0 0)
(0 0 0)
(0 0 0)
(0 0 0)
(0 0 0)
(0 0 0)
(0 0 0)
(0 0 0)
(0 0 0)
(0 0 0)
(0 0 0)
(0 0 0)
(0 0 0)
(0 0 0)
(0 0 0)
(0 0 0)
(0 0 0)
(0 0 0)
(0 0 0)
(0 0 0)
(0 0 0)
(0 0 0)
(0 0 0)
(0 0 0)
(0 0 0)
(0 0 0)
(0 0 0)
(0 0 0)
(0 0 0)
(0 0 0)
(0 0 0)
(0 0 0)
(0 0 0)
(0 0 0)
(0 0 0)
(0 0 0)
(0 0 0)
(0 0 0)
(0 0 0)
(0 0 0)
(0 0 0)
(0 0 0)
(0 0 0)
(0 0 0)
(0 0 0)
(0 0 0)
(0 0 0)
(0 0 0)
(0 0 0)
(0 0 0)
(0 0 0)
(0 0 0)
(0 0 0)
(0 0 0)
(0 0 0)
(0 0 0)
(0 0 0)
(0 0 0)
(0 0 0)
(0 0 0)
(0 0 0)
(0 0 0)
(0 0 0)
(0 0 0)
(0 0 0)
(0 0 0)
(0 0 0)
(0 0 0)
(0 0 0)
(0 0 0)
(0 0 0)
(0 1.10196e-05 0)
(0 1.10196e-05 0)
(0 1.10196e-05 0)
(0 1.10196e-05 0)
(0 1.10196e-05 0)
(0 1.10196e-05 0)
(0 1.10196e-05 0)
(0 1.10196e-05 0)
(0 1.10196e-05 0)
(0 1.10196e-05 0)
(0 1.10196e-05 0)
(0 1.10196e-05 0)
(0 1.10196e-05 0)
(0 1.10196e-05 0)
(0 1.10196e-05 0)
(0 1.10196e-05 0)
(0 1.10196e-05 0)
(0 1.10196e-05 0)
(0 1.10196e-05 0)
(0 1.10196e-05 0)
(0 1.10196e-05 0)
(0 1.10196e-05 0)
(0 1.10196e-05 0)
(0 1.10196e-05 0)
(0 1.10196e-05 0)
(0 1.10196e-05 0)
(0 1.10196e-05 0)
(0 1.10196e-05 0)
(0 1.10196e-05 0)
(0 1.10196e-05 0)
(0 1.10196e-05 0)
(0 1.10196e-05 0)
(0 1.10196e-05 0)
(0 1.10196e-05 0)
(0 1.10196e-05 0)
(0 1.10196e-05 0)
(0 1.10196e-05 0)
(0 1.10196e-05 0)
(0 1.10196e-05 0)
(0 1.10196e-05 0)
(0 1.10196e-05 0)
(0 1.10196e-05 0)
(0 1.10196e-05 0)
(0 1.10196e-05 0)
(0 1.10196e-05 0)
(0 1.10196e-05 0)
(0 1.10196e-05 0)
(0 1.10196e-05 0)
(0 1.10196e-05 0)
(0 1.10196e-05 0)
(0 1.10196e-05 0)
(0 1.10196e-05 0)
(0 1.10196e-05 0)
(0 1.10196e-05 0)
(0 1.10196e-05 0)
(0 1.10196e-05 0)
(0 1.10196e-05 0)
(0 1.10196e-05 0)
(0 1.10196e-05 0)
(0 1.10196e-05 0)
(0 1.10196e-05 0)
(0 1.10196e-05 0)
(0 1.10196e-05 0)
(0 1.10196e-05 0)
(0 1.10196e-05 0)
(0 1.10196e-05 0)
(0 1.10196e-05 0)
(0 1.10196e-05 0)
(0 1.10196e-05 0)
(0 1.10196e-05 0)
(0 1.10196e-05 0)
(0 1.10196e-05 0)
(0 1.10196e-05 0)
(0 1.10196e-05 0)
(0 1.10196e-05 0)
(0 1.10196e-05 0)
(0 1.10196e-05 0)
(0 1.10196e-05 0)
(0 1.10196e-05 0)
(0 1.10196e-05 0)
(0 1.10196e-05 0)
(0 1.10196e-05 0)
(0 1.10196e-05 0)
(0 1.10196e-05 0)
(0 1.10196e-05 0)
(0 1.10196e-05 0)
(0 1.10196e-05 0)
(0 1.10196e-05 0)
(0 1.10196e-05 0)
(0 1.10196e-05 0)
(0 1.10196e-05 0)
(0 1.10196e-05 0)
(0 1.10196e-05 0)
(0 1.10196e-05 0)
(0 1.10196e-05 0)
(0 1.10196e-05 0)
(0 1.10196e-05 0)
(0 1.10196e-05 0)
(0 1.10196e-05 0)
(0 1.10196e-05 0)
(0 1.10196e-05 0)
(0 1.10196e-05 0)
(0 1.10196e-05 0)
(0 1.10196e-05 0)
(0 1.10196e-05 0)
(0 1.10196e-05 0)
(0 1.10196e-05 0)
(0 1.10196e-05 0)
(0 1.10196e-05 0)
(0 1.10196e-05 0)
(0 1.10196e-05 0)
(0 1.10196e-05 0)
(0 1.10196e-05 0)
(0 1.10196e-05 0)
(0 1.10196e-05 0)
(0 1.10196e-05 0)
(0 1.10079e-05 0)
(0 1.1013e-05 0)
(0 1.10138e-05 0)
(0 1.09852e-05 0)
(0 1.10148e-05 0)
(0 1.10362e-05 0)
(0 1.102e-05 0)
(0 1.10131e-05 0)
(0 1.10199e-05 0)
(0 1.10244e-05 0)
(0 1.10129e-05 0)
(0 1.10603e-05 0)
(0 1.09969e-05 0)
(0 1.10089e-05 0)
(0 -2.26162e-05 0)
(0 -5.15957e-05 0)
(0 -1.5268e-05 0)
(0 -7.56427e-05 0)
(0 -4.15295e-05 0)
(0 -9.58992e-05 0)
(0 1.10319e-05 0)
(0 1.10178e-05 0)
(0 -3.90459e-05 0)
(0 1.10145e-05 0)
(0 1.10112e-05 0)
(0 -2.28019e-05 0)
(0 -3.68417e-05 0)
(0 -3.13244e-05 0)
(0 -1.65822e-05 0)
(0 1.10126e-05 0)
(0 1.10165e-05 0)
(0 1.10198e-05 0)
(0 1.10186e-05 0)
(0 1.10155e-05 0)
(0 1.10175e-05 0)
(0 -1.70757e-05 0)
(0 -8.40789e-06 0)
(0 -9.05595e-05 0)
(0 -7.1627e-05 0)
(0 -5.49583e-05 0)
(0 -2.5433e-05 0)
(0 -1.36598e-05 0)
(0 1.10086e-05 0)
(0 1.10096e-05 0)
(0 1.10108e-05 0)
(0 1.10132e-05 0)
(0 1.1038e-05 0)
(0 1.10162e-05 0)
(0 -9.06605e-06 0)
(0 -7.54198e-06 0)
(0 -9.12069e-05 0)
(0 -5.37218e-05 0)
(0 -2.39766e-05 0)
(0 -4.02331e-05 0)
(0 -3.70166e-05 0)
(0 -2.14618e-05 0)
(0 -1.25367e-05 0)
(0 -2.01142e-05 0)
(0 -3.3014e-06 0)
(0 -0.000700583 0)
(0 -0.000714803 0)
(0 -0.000671983 0)
(0 -0.000685769 0)
(0 -0.000644135 0)
(0 -0.000658028 0)
(0 -0.000618403 0)
(0 -0.000632241 0)
(0 -0.000594653 0)
(0 -0.00060865 0)
(0 -0.000572572 0)
(0 -0.000587235 0)
(0 -0.000552211 0)
(0 -0.000567059 0)
(0 -0.000533435 0)
(0 -0.000517363 0)
(0 -0.000500984 0)
(0 -0.000516953 0)
(0 -0.000486764 0)
(0 -0.000502672 0)
(0 -0.000475337 0)
(0 -0.000483798 0)
(0 -0.000669558 0)
(0 -0.000490013 0)
(0 -0.00046421 0)
(0 -0.00047897 0)
(0 -0.000453407 0)
(0 -0.000468998 0)
(0 -0.000445193 0)
(0 -0.000428352 0)
(0 -0.000422502 0)
(0 -0.000404467 0)
(0 -0.000400589 0)
(0 -0.000417883 0)
(0 -0.000398363 0)
(0 -0.000381954 0)
(0 -0.000494018 0)
(0 -0.000415239 0)
(0 -0.000398394 0)
(0 -0.000414467 0)
(0 -0.000399142 0)
(0 -0.000414077 0)
(0 -0.000399897 0)
(0 -0.000413066 0)
(0 -0.00040087 0)
(0 -0.000386955 0)
(0 -0.000391016 0)
(0 -0.000376478 0)
(0 -0.000383329 0)
(0 -0.000368163 0)
(0 -0.000377121 0)
(0 -0.000360704 0)
(0 -0.000371478 0)
(0 -0.000351366 0)
(0 -0.000366375 0)
(0 -0.00034856 0)
(0 -0.000363194 0)
(0 -0.000343556 0)
(0 -0.000362476 0)
(0 -0.000345877 0)
(0 -0.000364998 0)
(0 -0.000349066 0)
(0 -0.000370363 0)
(0 -0.000384526 0)
(0 -0.000392488 0)
(0 -0.000404858 0)
(0 -0.000415246 0)
(0 -0.000395697 0)
(0 -0.000425853 0)
(0 -0.000438196 0)
(0 -0.00044681 0)
(0 -0.000460617 0)
(0 -0.000467154 0)
(0 -0.000354913 0)
(0 -0.000481447 0)
(0 -0.000486004 0)
(0 -0.000499616 0)
(0 -0.000502451 0)
(0 -0.000514961 0)
(0 -0.000515131 0)
(0 -0.000477609 0)
(0 -0.000332613 0)
(0 -0.000526639 0)
(0 -0.000524343 0)
(0 -0.000514636 0)
(0 -0.000522419 0)
(0 -0.000535237 0)
(0 -0.000514115 0)
(0 -0.000520949 0)
(0 -0.000512124 0)
(0 -0.000517991 0)
(0 -0.000507547 0)
(0 -0.000511939 0)
(0 -0.000907964 0)
(0 -0.000905234 0)
(0 -0.000894246 0)
(0 -0.000890649 0)
(0 -0.000880241 0)
(0 -0.000875914 0)
(0 -0.000499896 0)
(0 -0.00050276 0)
(0 -0.000515232 0)
(0 -0.000504684 0)
(0 -0.000515691 0)
(0 -0.000865352 0)
(0 -0.000859378 0)
(0 -0.000655903 0)
(0 -0.000847639 0)
(0 -0.000504133 0)
(0 -0.000513606 0)
(0 -0.000539171 0)
(0 -0.000548165 0)
(0 -0.000489589 0)
(0 -0.000500028 0)
(0 -0.000508074 0)
(0 -0.000491968 0)
(0 -0.000498151 0)
(0 -0.00084049 0)
(0 -0.000828201 0)
(0 -0.000848041 0)
(0 -0.000479753 0)
(0 -0.000483652 0)
(0 -0.000828989 0)
(0 -0.000833086 0)
(0 -0.000462967 0)
(0 -0.000483531 0)
(0 -0.000813863 0)
(0 -0.00081512 0)
(0 -0.000465399 0)
(0 -0.000442672 0)
(0 -0.000426672 0)
(0 -0.000485278 0)
(0 -0.000795261 0)
(0 -0.000793729 0)
(0 -0.000467036 0)
(0 -0.000485372 0)
(0 -0.00077508 0)
(0 -0.000770244 0)
(0 -0.000775689 0)
(0 -0.000467471 0)
(0 -0.000484377 0)
(0 -0.00075372 0)
(0 -0.00074567 0)
(0 -0.000829397 0)
(0 -0.000810587 0)
(0 -0.000466754 0)
(0 -0.000483037 0)
(0 -0.000486805 0)
(0 -0.000476497 0)
(0 -0.000473563 0)
(0 -0.000464102 0)
(0 -0.000460756 0)
(0 -0.000452011 0)
(0 -0.00044816 0)
(0 -0.000439965 0)
(0 -0.000436439 0)
(0 -0.00042831 0)
(0 -0.000426193 0)
(0 -0.00041695 0)
(0 -0.000417743 0)
(0 -0.000414978 0)
(0 -0.000406232 0)
(0 -0.000409765 0)
(0 -0.000395635 0)
(0 -0.000400078 0)
(0 -0.000730633 0)
(0 -0.000719584 0)
(0 -0.00073599 0)
(0 -0.00070693 0)
(0 -0.000723101 0)
(0 -0.00069196 0)
(0 -0.000707285 0)
(0 -0.000675297 0)
(0 -0.000689892 0)
(0 -0.000656187 0)
(0 -0.000669653 0)
(0 -0.000634929 0)
(0 -0.000647746 0)
(0 -0.000612191 0)
(0 -0.000599343 0)
(0 -0.000577093 0)
(0 -0.000588758 0)
(0 -0.00055334 0)
(0 -0.000563854 0)
(0 -0.000528649 0)
(0 -0.000538912 0)
(0 -0.000504636 0)
(0 -0.000514769 0)
(0 -0.000480538 0)
(0 -0.000490338 0)
(0 -0.00045627 0)
(0 -0.000466051 0)
(0 -0.00043207 0)
(0 -0.000442083 0)
(0 -0.000408595 0)
(0 -0.000419187 0)
(0 -0.000385997 0)
(0 -0.000376166 0)
(0 -0.000354246 0)
(0 -0.000364187 0)
(0 -0.000333031 0)
(0 -0.000343162 0)
(0 -0.00031247 0)
(0 -0.000303228 0)
(0 -0.000283218 0)
(0 -0.00027479 0)
(0 -0.000292262 0)
(0 -0.00026383 0)
(0 -0.000272581 0)
(0 -0.000245213 0)
(0 -0.000253931 0)
(0 -0.000227438 0)
(0 -0.000236084 0)
(0 -0.000210891 0)
(0 -0.000194876 0)
(0 -0.000188335 0)
(0 -0.00047101 0)
(0 -0.000224954 0)
(0 -0.000192167 0)
(0 -0.00021441 0)
(0 -0.000249437 0)
(0 -0.000238967 0)
(0 -0.000204898 0)
(0 -0.000229832 0)
(0 -0.000196843 0)
(0 -0.00022233 0)
(0 -0.00018989 0)
(0 -0.000216378 0)
(0 -0.000184871 0)
(0 -0.000212135 0)
(0 -0.00018179 0)
(0 -0.000208379 0)
(0 -0.00018006 0)
(0 -0.000247542 0)
(0 -0.000205576 0)
(0 -0.000179136 0)
(0 -0.000204567 0)
(0 -0.00017788 0)
(0 -0.000205175 0)
(0 -0.000178935 0)
(0 -0.000207544 0)
(0 -0.000182216 0)
(0 -0.000236602 0)
(0 -0.000211192 0)
(0 -0.00018611 0)
(0 -0.000216286 0)
(0 -0.000191874 0)
(0 -0.000222999 0)
(0 -0.000199256 0)
(0 -0.000230904 0)
(0 -0.000207868 0)
(0 -0.000177508 0)
(0 -0.000187362 0)
(0 -0.000158975 0)
(0 -0.000168765 0)
(0 -0.000139857 0)
(0 -0.000153218 0)
(0 -0.000130145 0)
(0 -0.000142437 0)
(0 -0.000120385 0)
(0 -0.000132181 0)
(0 -0.00010768 0)
(0 -0.000121786 0)
(0 -0.000101303 0)
(0 -0.000113675 0)
(0 -9.50242e-05 0)
(0 -0.000107231 0)
(0 -8.93111e-05 0)
(0 -0.000101646 0)
(0 -8.25316e-05 0)
(0 -9.69525e-05 0)
(0 -8.14191e-05 0)
(0 -9.50345e-05 0)
(0 -8.00148e-05 0)
(0 -9.3664e-05 0)
(0 -7.89607e-05 0)
(0 -9.20046e-05 0)
(0 -7.82502e-05 0)
(0 -9.08698e-05 0)
(0 -7.79719e-05 0)
(0 -9.03356e-05 0)
(0 -7.82185e-05 0)
(0 -9.07012e-05 0)
(0 -7.90116e-05 0)
(0 -0.000108192 0)
(0 -9.15405e-05 0)
(0 -8.03642e-05 0)
(0 -0.000146482 0)
(0 -9.29961e-05 0)
(0 -8.22375e-05 0)
(0 -7.03707e-05 0)
(0 -7.27285e-05 0)
(0 -9.48687e-05 0)
(0 -6.15316e-05 0)
(0 -6.44368e-05 0)
(0 -0.000276179 0)
(0 -5.37193e-05 0)
(0 -5.69834e-05 0)
(0 -0.000216796 0)
(0 -0.000256665 0)
(0 -0.000103215 0)
(0 -6.6313e-05 0)
(0 -4.6623e-05 0)
(0 -4.93519e-05 0)
(0 -0.000158165 0)
(0 -6.14107e-05 0)
(0 -5.57189e-05 0)
(0 -6.69516e-05 0)
(0 -6.11801e-05 0)
(0 -5.06102e-05 0)
(0 -5.61366e-05 0)
(0 -4.58741e-05 0)
(0 -5.21183e-05 0)
(0 -0.000150625 0)
(0 -4.21971e-05 0)
(0 -4.9206e-05 0)
(0 -3.94521e-05 0)
(0 -4.69508e-05 0)
(0 -3.64994e-05 0)
(0 -4.52145e-05 0)
(0 -3.6426e-05 0)
(0 -4.49809e-05 0)
(0 -3.68118e-05 0)
(0 -4.63121e-05 0)
(0 -3.62098e-05 0)
(0 -4.82939e-05 0)
(0 -5.59704e-05 0)
(0 -0.000111175 0)
(0 -6.72622e-05 0)
(0 -3.97129e-05 0)
(0 -5.14525e-05 0)
(0 -6.06668e-05 0)
(0 -6.46061e-05 0)
(0 -7.4002e-05 0)
(0 -7.9226e-05 0)
(0 -0.000562617 0)
(0 -7.29794e-05 0)
(0 -8.84179e-05 0)
(0 -9.53459e-05 0)
(0 -0.000453344 0)
(0 -3.26375e-05 0)
(0 -4.35845e-05 0)
(0 -0.000105723 0)
(0 -0.000113401 0)
(0 -0.000676868 0)
(0 -0.000548567 0)
(0 -0.000125728 0)
(0 -0.000133337 0)
(0 -0.000382835 0)
(0 -0.00038573 0)
(0 -0.000464677 0)
(0 -0.000481769 0)
(0 -0.000445027 0)
(0 -0.000146537 0)
(0 -0.000140519 0)
(0 -0.000154801 0)
(0 -0.000805488 0)
(0 -0.000786941 0)
(0 -0.000102172 0)
(0 -0.000368577 0)
(0 -0.000372611 0)
(0 -0.00036337 0)
(0 -2.89253e-05 0)
(0 -0.000168461 0)
(0 -0.000177475 0)
(0 -0.000354405 0)
(0 -0.000359464 0)
(0 -0.000461927 0)
(0 -0.000481241 0)
(0 -0.000553652 0)
(0 -3.28712e-05 0)
(0 -3.69573e-05 0)
(0 -0.000776431 0)
(0 -0.000758475 0)
(0 -0.000563409 0)
(0 -2.68756e-05 0)
(0 -3.09618e-05 0)
(0 -2.17005e-05 0)
(0 -2.57049e-05 0)
(0 -1.76423e-05 0)
(0 -2.16019e-05 0)
(0 -1.41854e-05 0)
(0 -1.83306e-05 0)
(0 -2.63814e-05 0)
(0 -2.34949e-05 0)
(0 -3.23198e-05 0)
(0 -2.97107e-05 0)
(0 -2.11204e-05 0)
(0 -3.9494e-05 0)
(0 -2.7527e-05 0)
(0 -1.93929e-05 0)
(0 -2.57152e-05 0)
(0 -1.83415e-05 0)
(0 -1.08181e-05 0)
(0 -2.43869e-05 0)
(0 -1.75245e-05 0)
(0 -2.36607e-05 0)
(0 -1.70083e-05 0)
(0 -2.4383e-05 0)
(0 -1.66995e-05 0)
(0 -0.000191111 0)
(0 -0.00020188 0)
(0 -0.000340813 0)
(0 -0.000347551 0)
(0 -0.000365685 0)
(0 -0.000356725 0)
(0 -0.000459652 0)
(0 -0.000480889 0)
(0 -0.000570349 0)
(0 -0.000580752 0)
(0 -1.10275e-05 0)
(0 -1.09183e-05 0)
(0 -1.6528e-05 0)
(0 -1.10788e-05 0)
(0 -0.000337191 0)
(0 -0.000349587 0)
(0 -0.000370636 0)
(0 -0.000366792 0)
(0 -0.000389921 0)
(0 -0.000393176 0)
(0 -0.000415066 0)
(0 -0.000421115 0)
(0 -0.000398264 0)
(0 -0.00042796 0)
(0 -0.000452677 0)
(0 -0.000461808 0)
(0 -0.000485115 0)
(0 -0.000495995 0)
(0 -0.000471199 0)
(0 -0.000505791 0)
(0 -0.00052923 0)
(0 -0.000539003 0)
(0 -0.000561178 0)
(0 -0.000570368 0)
(0 -0.000592526 0)
(0 -0.000601177 0)
(0 -0.000624206 0)
(0 -0.000633022 0)
(0 -0.000606894 0)
(0 -0.000639516 0)
(0 -0.000666901 0)
(0 -0.000675682 0)
(0 -0.00070342 0)
(0 -0.00071571 0)
(0 -0.000742857 0)
(0 -0.000479793 0)
(0 -0.00072659 0)
(0 -0.000214888 0)
(0 -0.000227883 0)
(0 -0.000434969 0)
(0 -1.22752e-05 0)
(0 -0.000742071 0)
(0 -0.00072563 0)
(0 -0.000740768 0)
(0 -0.000708488 0)
(0 -0.000721793 0)
(0 -0.00068986 0)
(0 -0.000703307 0)
(0 -0.000671139 0)
(0 -0.000685106 0)
(0 -0.000653085 0)
(0 -0.000682549 0)
(0 -0.000329327 0)
(0 -3.06972e-05 0)
(0 -0.000239743 0)
(0 -0.000254545 0)
(0 -1.69345e-05 0)
(0 -1.15392e-05 0)
(0 -0.000265761 0)
(0 -0.000281964 0)
(0 -0.000292837 0)
(0 -6.04968e-06 0)
(0 -0.00031021 0)
(0 -0.000320934 0)
(0 -0.000457087 0)
(0 -0.00043848 0)
(0 -0.000416359 0)
(0 -0.000409048 0)
(0 -0.000386276 0)
(0 -0.000376261 0)
(0 -0.000353646 0)
(0 -0.000342139 0)
(0 -0.000320324 0)
(0 -0.000331995 0)
(0 -0.000299121 0)
(0 -0.000311134 0)
(0 -0.000276808 0)
(0 -0.000288221 0)
(0 -0.000308734 0)
(0 -0.000329483 0)
(0 -0.000588993 0)
(0 -0.000599269 0)
(0 -0.000610524 0)
(0 -0.000665798 0)
(0 -0.000634067 0)
(0 -0.000433867 0)
(0 -0.000423429 0)
(0 -0.000206628 0)
(0 -4.37654e-05 0)
(0 -0.000339144 0)
(0 -0.000580338 0)
(0 -0.000252086 0)
(0 -0.000261162 0)
(0 -0.000350801 0)
(0 -0.000702972 0)
(0 -0.00065178 0)
(0 -0.000600836 0)
(0 -0.000162869 0)
(0 -0.0002431 0)
(0 -1.77189e-05 0)
(0 -1.2436e-05 0)
(0 -6.60497e-06 0)
(0 -8.15299e-06 0)
(0 -1.3504e-05 0)
(0 -0.000106498 0)
(0 -0.000107991 0)
(0 -0.000120676 0)
(0 -0.000121819 0)
(0 -0.000135414 0)
(0 -0.000136606 0)
(0 -0.000150957 0)
(0 -0.000152171 0)
(0 -0.00016739 0)
(0 -0.000168776 0)
(0 -0.000184622 0)
(0 -0.00018411 0)
(0 -0.000186591 0)
(0 -0.000171537 0)
(0 -0.000201789 0)
(0 -0.000202594 0)
(0 -0.000190933 0)
(0 -0.000175965 0)
(0 -0.000220649 0)
(0 -0.000222889 0)
(0 -0.00019582 0)
(0 -0.000181342 0)
(0 -0.000435857 0)
(0 -0.000429918 0)
(0 -2.37436e-05 0)
(0 -0.000349998 0)
(0 -0.00036855 0)
(0 -0.000296646 0)
(0 -0.000315781 0)
(0 -0.000608736 0)
(0 -0.000594357 0)
(0 -0.000617727 0)
(0 -0.000441817 0)
(0 -0.00022461 0)
(0 -0.000231106 0)
(0 -0.000428999 0)
(0 -0.00040429 0)
(0 -0.000718356 0)
(0 -0.000241238 0)
(0 -0.000244378 0)
(0 -0.000379263 0)
(0 -0.000398421 0)
(0 -0.000200759 0)
(0 -0.000187906 0)
(0 -0.000283478 0)
(0 -0.000301036 0)
(0 -0.000195949 0)
(0 -0.000200809 0)
(0 -0.000645322 0)
(0 -0.000672491 0)
(0 -0.000613611 0)
(0 -0.000597681 0)
(0 -0.000673425 0)
(0 -0.000628225 0)
(0 -0.000332351 0)
(0 -0.000576444 0)
(0 -0.00065132 0)
(0 -0.00040804 0)
(0 -0.000428224 0)
(0 -0.0004182 0)
(0 -3.84095e-06 0)
(0 -9.17551e-06 0)
(0 -5.67904e-06 0)
(0 -1.17898e-05 0)
(0 -8.03819e-06 0)
(0 -1.6235e-05 0)
(0 -1.0929e-05 0)
(0 -1.85223e-05 0)
(0 -1.39476e-05 0)
(0 -7.34356e-06 0)
(0 -1.03943e-05 0)
(0 -1.75281e-05 0)
(0 -1.38738e-05 0)
(0 -7.43802e-06 0)
(0 -1.07233e-05 0)
(0 -4.8466e-06 0)
(0 -7.95359e-06 0)
(0 -1.45326e-05 0)
(0 -1.17659e-05 0)
(0 -5.6329e-06 0)
(0 -9.41257e-06 0)
(0 -1.61716e-05 0)
(0 -1.36661e-05 0)
(0 -7.42348e-06 0)
(0 -1.15486e-05 0)
(0 -5.84058e-06 0)
(0 -9.81357e-06 0)
(0 -4.6245e-06 0)
(0 -8.63611e-06 0)
(0 -3.74738e-06 0)
(0 -7.9811e-06 0)
(0 -3.22362e-06 0)
(0 -7.73289e-06 0)
(0 -3.12993e-06 0)
(0 -7.77423e-06 0)
(0 -2.77471e-06 0)
(0 -8.21611e-06 0)
(0 -4.13449e-06 0)
(0 -1.32359e-05 0)
(0 -9.29862e-06 0)
(0 -5.4776e-06 0)
(0 -1.08093e-05 0)
(0 -7.08251e-06 0)
(0 -2.12167e-05 0)
(0 -1.35828e-05 0)
(0 -1.88534e-05 0)
(0 -2.4014e-06 0)
(0 -4.05598e-06 0)
(0 4.75042e-09 0)
(0 -1.70485e-06 0)
(0 1.86666e-06 0)
(0 2.44394e-07 0)
(0 3.35308e-06 0)
(0 1.76567e-06 0)
(0 4.70576e-06 0)
(0 2.86174e-06 0)
(0 5.08006e-06 0)
(0 3.59978e-06 0)
(0 5.60246e-06 0)
(0 4.1403e-06 0)
(0 6.02179e-06 0)
(0 4.55827e-06 0)
(0 6.33924e-06 0)
(0 4.88685e-06 0)
(0 6.58459e-06 0)
(0 5.20473e-06 0)
(0 6.79147e-06 0)
(0 5.40548e-06 0)
(0 6.90979e-06 0)
(0 5.54486e-06 0)
(0 6.93753e-06 0)
(0 5.61224e-06 0)
(0 6.96573e-06 0)
(0 5.65742e-06 0)
(0 7.224e-06 0)
(0 5.75929e-06 0)
(0 7.03824e-06 0)
(0 4.0073e-06 0)
(0 5.69469e-06 0)
(0 6.90029e-06 0)
(0 5.46881e-06 0)
(0 6.74792e-06 0)
(0 2.42326e-06 0)
(0 5.23524e-06 0)
(0 6.53354e-06 0)
(0 -3.03984e-07 0)
(0 4.94773e-06 0)
(0 6.22414e-06 0)
(0 3.90138e-06 0)
(0 4.59807e-06 0)
(0 5.89902e-06 0)
(0 -6.23237e-06 0)
(0 2.97813e-06 0)
(0 4.12314e-06 0)
(0 5.48914e-06 0)
(0 7.54237e-06 0)
(0 -0.000436236 0)
(0 -0.000457811 0)
(0 -0.00044046 0)
(0 -0.000432183 0)
(0 -9.49169e-07 0)
(0 3.49318e-06 0)
(0 4.90305e-06 0)
(0 -0.000269135 0)
(0 -0.000284111 0)
(0 -0.000169112 0)
(0 -0.000555803 0)
(0 -0.000533638 0)
(0 8.20537e-06 0)
(0 -0.000215121 0)
(0 -0.000252112 0)
(0 6.66736e-06 0)
(0 6.13244e-06 0)
(0 -1.3499e-06 0)
(0 8.06198e-06 0)
(0 -0.000397172 0)
(0 -0.000372615 0)
(0 -0.000501346 0)
(0 -0.000813189 0)
(0 -0.000263067 0)
(0 -0.000266862 0)
(0 -0.000247934 0)
(0 -0.000271499 0)
(0 -0.000252314 0)
(0 -0.000277152 0)
(0 -0.000257978 0)
(0 -0.0002843 0)
(0 -0.000265279 0)
(0 -0.000293163 0)
(0 -0.000273982 0)
(0 -0.000303214 0)
(0 -0.000322352 0)
(0 -0.000332991 0)
(0 -0.000315068 0)
(0 -0.000349766 0)
(0 -0.000328568 0)
(0 -0.000361616 0)
(0 -0.000343389 0)
(0 -0.000378466 0)
(0 -0.00036079 0)
(0 -0.000397226 0)
(0 -0.000380787 0)
(0 -0.000419987 0)
(0 -0.000403017 0)
(0 -0.000445443 0)
(0 -0.000428009 0)
(0 -0.000473916 0)
(0 -0.000458048 0)
(0 -0.000505837 0)
(0 -0.000489428 0)
(0 -0.000352438 0)
(0 -0.000458876 0)
(0 -0.00020756 0)
(0 -0.000196059 0)
(0 -0.000382166 0)
(0 -0.000687884 0)
(0 -0.000173267 0)
(0 -0.000202409 0)
(0 -0.000452919 0)
(0 -0.000464053 0)
(0 -0.000486522 0)
(0 -0.000328797 0)
(0 -0.000259738 0)
(0 -0.000587636 0)
(0 -0.000145985 0)
(0 -0.000637905 0)
(0 -0.000216599 0)
(0 4.65995e-07 0)
(0 7.73686e-06 0)
(0 -0.000398159 0)
(0 -3.75267e-05 0)
(0 -3.46657e-05 0)
(0 -0.000252234 0)
(0 -0.000264129 0)
(0 4.16118e-06 0)
(0 5.4448e-06 0)
(0 -0.000171966 0)
(0 -0.000297047 0)
(0 -0.000508928 0)
(0 -0.000487409 0)
(0 -0.000674446 0)
(0 -0.000653545 0)
(0 7.61895e-06 0)
(0 4.64474e-06 0)
(0 -0.000441544 0)
(0 -0.000432369 0)
(0 -0.000425793 0)
(0 -0.000452824 0)
(0 -0.000176552 0)
(0 -0.000186257 0)
(0 -0.000205585 0)
(0 -0.00019692 0)
(0 -0.000178247 0)
(0 -0.000190023 0)
(0 -0.000172124 0)
(0 -0.000185298 0)
(0 6.82627e-06 0)
(0 -0.000275176 0)
(0 -0.000282306 0)
(0 -0.000175367 0)
(0 -0.000201881 0)
(0 -0.000309399 0)
(0 -0.000363428 0)
(0 -0.000340298 0)
(0 -4.22895e-05 0)
(0 -5.06003e-05 0)
(0 -0.000168084 0)
(0 -0.0001828 0)
(0 -0.000578741 0)
(0 -0.000361962 0)
(0 -0.000232318 0)
(0 -0.00024301 0)
(0 -0.000505192 0)
(0 -0.000650646 0)
(0 -0.00027448 0)
(0 -0.00025389 0)
(0 -0.000221643 0)
(0 -0.000233635 0)
(0 3.16872e-06 0)
(0 4.46863e-06 0)
(0 -0.00059703 0)
(0 -0.000584352 0)
(0 -0.000453847 0)
(0 -0.000468412 0)
(0 -0.000425665 0)
(0 -0.000421027 0)
(0 -0.000140145 0)
(0 -0.000491633 0)
(0 -0.000514029 0)
(0 -0.000459351 0)
(0 -0.000440668 0)
(0 -0.000477143 0)
(0 -0.000278765 0)
(0 -0.0004988 0)
(0 -0.000120936 0)
(0 -2.94769e-05 0)
(0 -2.66432e-05 0)
(0 -0.000417536 0)
(0 -0.000348892 0)
(0 -0.000318087 0)
(0 -0.000216532 0)
(0 -0.000238868 0)
(0 -0.000877342 0)
(0 -0.000298651 0)
(0 -0.000419951 0)
(0 -0.000447082 0)
(0 -0.000302214 0)
(0 -0.000200208 0)
(0 -0.000199115 0)
(0 -0.000510774 0)
(0 -0.000537861 0)
(0 -0.000672995 0)
(0 -0.000652983 0)
(0 -0.000122948 0)
(0 -0.000897527 0)
(0 -0.000633417 0)
(0 -0.000633772 0)
(0 -0.000199224 0)
(0 -0.000213447 0)
(0 -0.00017555 0)
(0 -0.000469408 0)
(0 -0.000485542 0)
(0 -0.000305959 0)
(0 -0.000284993 0)
(0 -3.22375e-05 0)
(0 -2.44121e-05 0)
(0 -0.000521388 0)
(0 -0.000339314 0)
(0 -0.000693571 0)
(0 1.88793e-06 0)
(0 2.2949e-07 0)
(0 3.20859e-06 0)
(0 5.57602e-06 0)
(0 -0.000608122 0)
(0 -0.000248567 0)
(0 -0.000229794 0)
(0 -0.000193145 0)
(0 -0.000210894 0)
(0 -0.000165862 0)
(0 -0.000688517 0)
(0 4.26522e-06 0)
(0 6.38982e-06 0)
(0 1.6963e-06 0)
(0 -0.000512746 0)
(0 -5.37113e-05 0)
(0 -6.30549e-05 0)
(0 -0.000540174 0)
(0 -0.000527399 0)
(0 -6.02028e-05 0)
(0 -7.36058e-05 0)
(0 -7.11773e-05 0)
(0 -8.5557e-05 0)
(0 -8.83468e-05 0)
(0 -0.000101379 0)
(0 -0.000104292 0)
(0 -0.000118695 0)
(0 -8.34421e-05 0)
(0 -0.00012134 0)
(0 -0.00013728 0)
(0 -0.000139812 0)
(0 -0.00015705 0)
(0 -0.000159905 0)
(0 -0.000177456 0)
(0 -0.000181613 0)
(0 -0.000201817 0)
(0 -0.000662459 0)
(0 -0.000173313 0)
(0 -0.00019234 0)
(0 4.81711e-06 0)
(0 6.99305e-06 0)
(0 8.00795e-06 0)
(0 8.44354e-06 0)
(0 7.48141e-06 0)
(0 8.75098e-06 0)
(0 7.70813e-06 0)
(0 8.88372e-06 0)
(0 7.74851e-06 0)
(0 8.85954e-06 0)
(0 7.62744e-06 0)
(0 8.6661e-06 0)
(0 7.321e-06 0)
(0 8.30881e-06 0)
(0 6.82571e-06 0)
(0 7.83366e-06 0)
(0 9.15301e-06 0)
(0 -0.000135178 0)
(0 -0.000409404 0)
(0 -0.000393874 0)
(0 -0.000114305 0)
(0 -0.000410198 0)
(0 -0.000518363 0)
(0 -0.000204761 0)
(0 -0.000226273 0)
(0 -2.21317e-05 0)
(0 -0.000449672 0)
(0 -0.000216792 0)
(0 -0.000216766 0)
(0 -0.000298546 0)
(0 -0.000323465 0)
(0 -0.000420248 0)
(0 -0.000417512 0)
(0 -0.000151333 0)
(0 -3.04502e-05 0)
(0 -2.273e-05 0)
(0 -0.000333967 0)
(0 -9.78091e-05 0)
(0 -0.000104186 0)
(0 -0.000390154 0)
(0 -0.000402288 0)
(0 -8.23098e-05 0)
(0 -0.000229259 0)
(0 -0.000251768 0)
(0 -0.000255466 0)
(0 -0.00027906 0)
(0 -0.00014917 0)
(0 -0.000420738 0)
(0 -0.000536662 0)
(0 -0.000563676 0)
(0 6.19721e-06 0)
(0 7.253e-06 0)
(0 8.62915e-06 0)
(0 8.07173e-06 0)
(0 9.21618e-06 0)
(0 8.68475e-06 0)
(0 4.87593e-06 0)
(0 9.68311e-06 0)
(0 9.15742e-06 0)
(0 -0.000786891 0)
(0 -0.000269357 0)
(0 -0.000249887 0)
(0 -0.000485874 0)
(0 -0.000503094 0)
(0 -0.000326434 0)
(0 -0.000497375 0)
(0 -0.000268101 0)
(0 -0.000502542 0)
(0 -0.000707106 0)
(0 -0.00069848 0)
(0 -2.86302e-05 0)
(0 -2.14949e-05 0)
(0 8.12295e-06 0)
(0 8.65216e-06 0)
(0 9.5133e-06 0)
(0 9.08794e-06 0)
(0 8.07236e-06 0)
(0 8.52518e-06 0)
(0 9.55126e-06 0)
(0 8.9633e-06 0)
(0 -0.000739332 0)
(0 -0.000342157 0)
(0 -0.000358943 0)
(0 -0.000417675 0)
(0 -0.000378937 0)
(0 -0.000319326 0)
(0 -0.000341183 0)
(0 7.76214e-06 0)
(0 8.2363e-06 0)
(0 9.3135e-06 0)
(0 8.66348e-06 0)
(0 -0.000483164 0)
(0 -0.00050721 0)
(0 -2.68014e-05 0)
(0 -2.04069e-05 0)
(0 -2.55273e-05 0)
(0 -1.93107e-05 0)
(0 -2.45426e-05 0)
(0 -1.83255e-05 0)
(0 -2.38674e-05 0)
(0 -1.78002e-05 0)
(0 -2.35821e-05 0)
(0 -1.6022e-05 0)
(0 -0.000282935 0)
(0 -0.000308031 0)
(0 -0.000480894 0)
(0 -0.000468154 0)
(0 -8.27696e-05 0)
(0 -8.94567e-05 0)
(0 -0.00082867 0)
(0 5.2728e-06 0)
(0 7.31703e-06 0)
(0 7.81103e-06 0)
(0 9.02987e-06 0)
(0 8.23785e-06 0)
(0 9.3105e-06 0)
(0 8.56089e-06 0)
(0 -0.000432179 0)
(0 -0.000134659 0)
(0 9.69346e-06 0)
(0 -6.95531e-05 0)
(0 -0.000522779 0)
(0 -0.000424202 0)
(0 -0.000418024 0)
(0 -0.000787279 0)
(0 -0.000754037 0)
(0 -0.000154157 0)
(0 -0.000174918 0)
(0 -0.000211669 0)
(0 -0.000196517 0)
(0 6.25666e-06 0)
(0 -0.0003284 0)
(0 -0.000635091 0)
(0 -0.000311041 0)
(0 -0.000751772 0)
(0 -0.000720233 0)
(0 -0.000722634 0)
(0 -0.000690527 0)
(0 -0.00069391 0)
(0 -0.000662926 0)
(0 -0.000666359 0)
(0 -0.000637072 0)
(0 -0.000632349 0)
(0 -0.00063985 0)
(0 -0.000613665 0)
(0 -0.000132675 0)
(0 -0.000148452 0)
(0 -0.000134644 0)
(0 9.4843e-06 0)
(0 -0.000837712 0)
(0 -0.000157355 0)
(0 -0.000179793 0)
(0 -0.000408397 0)
(0 -7.58128e-05 0)
(0 -1.74846e-05 0)
(0 -2.35384e-05 0)
(0 -9.09877e-05 0)
(0 -0.000106747 0)
(0 -0.000280316 0)
(0 -0.000301789 0)
(0 -0.000216448 0)
(0 -0.000201008 0)
(0 -0.000234625 0)
(0 -0.000235722 0)
(0 -0.000218451 0)
(0 -0.000238829 0)
(0 -0.000235537 0)
(0 -0.000616237 0)
(0 -0.000337523 0)
(0 -0.000338932 0)
(0 -1.70492e-05 0)
(0 -0.000359215 0)
(0 -0.000346712 0)
(0 -0.000864679 0)
(0 -0.000142347 0)
(0 -0.000714973 0)
(0 -0.000703536 0)
(0 -0.000147041 0)
(0 -0.000501116 0)
(0 -0.000220026 0)
(0 9.71742e-06 0)
(0 7.93543e-06 0)
(0 -0.000319492 0)
(0 -0.000346065 0)
(0 -0.000295902 0)
(0 -0.000162637 0)
(0 -0.000183324 0)
(0 -0.000135608 0)
(0 -1.81355e-05 0)
(0 -0.000469663 0)
(0 -0.000382106 0)
(0 -0.000336675 0)
(0 -0.000619735 0)
(0 -0.000675947 0)
(0 -0.000516025 0)
(0 2.70362e-07 0)
(0 -0.000345155 0)
(0 -0.000219668 0)
(0 -0.000201685 0)
(0 -0.000165192 0)
(0 -0.00018282 0)
(0 -2.25822e-06 0)
(0 -0.000138289 0)
(0 -8.3484e-05 0)
(0 -0.000156836 0)
(0 -0.000228493 0)
(0 -0.00041928 0)
(0 -0.000430308 0)
(0 -0.000404906 0)
(0 -0.000452656 0)
(0 -0.000389354 0)
(0 9.77329e-06 0)
(0 -0.000370807 0)
(0 -0.000523567 0)
(0 -0.000525817 0)
(0 -0.000730819 0)
(0 -0.000704626 0)
(0 -0.000715889 0)
(0 -0.00069081 0)
(0 -0.000174234 0)
(0 -0.000739273 0)
(0 -1.32623e-05 0)
(0 -3.03776e-05 0)
(0 -3.06939e-05 0)
(0 -2.38672e-05 0)
(0 -3.13961e-05 0)
(0 -0.000241231 0)
(0 -0.000261852 0)
(0 -0.000321083 0)
(0 -0.000279671 0)
(0 -0.000332883 0)
(0 -0.000291853 0)
(0 -0.00024071 0)
(0 -0.000254214 0)
(0 -0.000207638 0)
(0 -0.000298765 0)
(0 -0.000366648 0)
(0 -0.00036733 0)
(0 -1.26809e-05 0)
(0 -1.70972e-05 0)
(0 -1.94059e-05 0)
(0 -2.46816e-05 0)
(0 -2.73865e-05 0)
(0 -3.35517e-05 0)
(0 -3.62687e-05 0)
(0 -3.1066e-05 0)
(0 -4.09637e-05 0)
(0 -3.87571e-05 0)
(0 -4.95359e-05 0)
(0 -4.82118e-05 0)
(0 -6.18024e-05 0)
(0 -5.93271e-05 0)
(0 -0.000159843 0)
(0 -4.72186e-05 0)
(0 -5.89171e-05 0)
(0 -2.46522e-05 0)
(0 -3.25829e-05 0)
(0 -0.000715214 0)
(0 9.94203e-06 0)
(0 -0.000422993 0)
(0 -0.000502902 0)
(0 -0.000557696 0)
(0 -0.000469541 0)
(0 -4.8529e-05 0)
(0 -0.000467534 0)
(0 -0.00060227 0)
(0 -4.72024e-05 0)
(0 -5.93931e-05 0)
(0 -0.000641066 0)
(0 -0.000199986 0)
(0 -0.00017321 0)
(0 -0.000229476 0)
(0 -0.000283221 0)
(0 -0.000302107 0)
(0 -0.000315844 0)
(0 -2.57922e-05 0)
(0 -1.82819e-05 0)
(0 -5.80217e-05 0)
(0 -3.01699e-07 0)
(0 1.76158e-06 0)
(0 3.09857e-06 0)
(0 4.75812e-06 0)
(0 5.71552e-06 0)
(0 6.92112e-06 0)
(0 7.65015e-06 0)
(0 8.52138e-06 0)
(0 7.79986e-06 0)
(0 9.00356e-06 0)
(0 8.23024e-06 0)
(0 9.38443e-06 0)
(0 8.7007e-06 0)
(0 9.68585e-06 0)
(0 9.06234e-06 0)
(0 9.22325e-06 0)
(0 8.81644e-06 0)
(0 3.91012e-06 0)
(0 9.96637e-06 0)
(0 9.91739e-06 0)
(0 9.33919e-06 0)
(0 -2.16691e-05 0)
(0 -0.000430967 0)
(0 -0.00046596 0)
(0 -0.00036387 0)
(0 -0.00034969 0)
(0 -0.000375707 0)
(0 8.73378e-06 0)
(0 9.62346e-06 0)
(0 4.06049e-06 0)
(0 -0.000387552 0)
(0 -0.000174723 0)
(0 -0.00037918 0)
(0 -0.000289807 0)
(0 -0.000250236 0)
(0 -0.00027017 0)
(0 -0.000301717 0)
(0 -0.000464667 0)
(0 -0.000149283 0)
(0 -0.000342853 0)