/*--------------------------------*- C++ -*----------------------------------*\
| =========                 |                                                 |
| \\      /  F ield         | OpenFOAM: The Open Source CFD Toolbox           |
|  \\    /   O peration     | Version:  v2012                                 |
|   \\  /    A nd           | Website:  www.openfoam.com                      |
|    \\/     M anipulation  |                                                 |
\*---------------------------------------------------------------------------*/
FoamFile
{
    version     2.0;
    format      ascii;
    class       volVectorField;
    location    "500";
    object      ddtCorrDdt0(U);
}
// * * * * * * * * * * * * * * * * * * * * * * * * * * * * * * * * * * * * * //

dimensions      [0 1 -2 0 0 0 0];


internalField   nonuniform List<vector> 
9793
(
(-0.070011 -0.0437426 4.84125e-21)
(0.00476113 0.107148 6.31823e-19)
(-0.0807388 -0.0360436 1.43242e-19)
(8.46326e-05 -3.62148e-05 -1.08453e-20)
(-0.0100558 -0.397729 -2.68826e-18)
(0.00429241 -0.00114565 1.48e-18)
(5.00125e-05 -1.1944e-05 8.47092e-19)
(0.000145058 -8.18132e-05 2.80791e-19)
(0.000496581 -0.000636779 3.10319e-21)
(-0.000727815 -0.35021 -1.82697e-18)
(0.0289653 -0.019726 8.14253e-19)
(0.0602818 -0.044803 -1.76356e-19)
(8.07202e-05 -3.02919e-05 -1.49588e-19)
(-0.0006668 -0.00118781 3.11117e-19)
(2.43777e-05 4.46492e-07 9.53912e-19)
(-0.000866656 -0.000794319 -1.31691e-18)
(0.00225416 -0.000839432 -1.1698e-18)
(0.00276513 -0.00108215 1.09585e-18)
(-0.0812817 0.00946484 5.82516e-19)
(-0.000919001 -0.00102881 5.69676e-19)
(0.0705873 0.0299024 -3.56374e-19)
(-0.00478715 0.000919926 8.27652e-20)
(-0.0412895 0.0569147 -3.50367e-19)
(0.000199118 0.000157954 1.85065e-20)
(-0.00203663 0.00203158 -3.27545e-19)
(8.06525e-05 -2.76986e-05 1.47881e-19)
(-0.00141539 -0.00027766 -1.04371e-18)
(0.00105917 0.000485139 3.31096e-19)
(0.00358706 -0.0310294 1.57148e-20)
(0.000493362 -0.00061887 -6.79625e-20)
(0.0148992 -0.0151394 2.81916e-18)
(-0.0331502 0.0522858 3.96681e-19)
(-0.00367665 0.16272 6.1515e-18)
(1.69727e-05 4.18803e-06 -2.1252e-19)
(-0.000210454 -0.0360727 3.47294e-19)
(0.118679 0.0355226 1.36026e-18)
(5.47467e-05 -7.9098e-06 -1.30284e-18)
(-0.00460039 0.00153648 8.56254e-19)
(0.000278544 -0.000110699 -8.12163e-19)
(2.80166e-05 -1.32442e-05 -7.95703e-20)
(0.012601 -0.0156554 -2.15541e-18)
(3.9525e-05 5.13843e-07 -9.81836e-19)
(7.97692e-05 -1.51687e-05 7.52274e-19)
(3.82868e-05 -1.36394e-05 5.22913e-19)
(8.66614e-05 -1.01274e-05 -1.01941e-19)
(7.42871e-05 -1.78612e-05 3.02438e-19)
(0.00414532 -0.0333888 -3.73939e-20)
(0.0294259 -0.0142141 -5.76799e-20)
(-0.0312323 -0.045838 1.40418e-18)
(8.19208e-05 -4.50548e-05 5.08727e-19)
(-0.000335755 -0.0386802 -3.25494e-19)
(0.0280353 -0.0276052 3.72107e-18)
(0.00466438 0.00103685 -4.28665e-19)
(-0.000292719 -0.000688505 1.18262e-19)
(0.0347134 -0.0838802 1.89368e-18)
(0.0899669 -0.029598 -1.9386e-18)
(0.000255922 -0.000163571 5.38364e-20)
(0.0528142 -0.0089896 6.05227e-18)
(-0.088979 -0.0342416 3.2607e-18)
(0.00024457 -0.000122971 1.91265e-18)
(1.0346e-05 -8.97668e-06 2.16772e-19)
(0.00353164 0.00302039 -8.48612e-19)
(-0.0780215 -0.0817429 1.01271e-18)
(0.000144825 2.66721e-06 -1.1454e-18)
(0.129457 -0.186592 -3.50137e-18)
(-0.0100658 0.105924 3.23654e-18)
(-0.0788583 -0.0566821 -6.30385e-19)
(-0.061016 -0.0465689 2.17441e-19)
(0.0519512 -0.0454433 1.2354e-18)
(0.0263715 -0.0209144 -1.7215e-19)
(0.0290361 -0.0898339 -2.40488e-18)
(7.20838e-06 3.2721e-06 -2.09914e-20)
(0.000267927 -0.000233363 5.47751e-19)
(-0.00367052 0.0519839 -1.60455e-19)
(-0.00338051 -0.0433404 3.69908e-19)
(-0.0998817 -0.00459909 -4.84905e-19)
(0.000245566 -0.000199616 2.3186e-19)
(0.00104108 0.00153799 -4.25827e-20)
(-0.00167154 0.00205734 -1.81859e-19)
(0.000857937 0.00122289 4.99701e-19)
(-0.0267376 0.103346 8.84593e-19)
(-0.00235801 0.000576434 -3.55502e-19)
(0.00267183 0.114756 1.45973e-18)
(0.0177463 0.00789121 -4.76221e-19)
(0.0111489 -0.0123484 1.21281e-18)
(0.0285491 -0.00229454 1.81458e-19)
(0.00114486 0.00145019 1.68301e-18)
(0.000220884 -0.000227775 2.12554e-19)
(0.00276233 0.00211817 2.36346e-19)
(-0.00265822 -0.000910938 -5.35164e-19)
(-0.00116236 0.116166 2.57996e-18)
(0.150068 -0.0466877 -3.76699e-19)
(-0.000345646 0.000431983 5.19217e-19)
(-0.0212948 0.0573279 -6.87535e-19)
(0.00293521 0.00276941 5.6021e-19)
(0.0161704 0.0116992 1.93977e-19)
(0.0924824 -0.0214241 -5.57567e-19)
(0.00165449 0.118015 -3.95262e-19)
(-0.000298191 0.000336907 -5.22882e-19)
(0.000161756 0.000326766 2.98891e-19)
(0.000197089 0.000286399 1.10968e-18)
(-0.000728163 -0.00213287 5.28677e-19)
(-3.8942e-05 -0.000323568 6.84281e-19)
(-1.63387e-05 -0.000280145 -7.80899e-21)
(0.00073696 0.00140017 2.42178e-20)
(0.00904948 -0.0123486 -1.78413e-18)
(0.00228577 0.00204602 -2.59289e-19)
(3.93601e-05 2.34146e-06 -9.24065e-19)
(0.00394262 0.00102922 4.55818e-20)
(0.03886 -0.025319 8.08875e-19)
(5.18905e-06 2.76398e-06 3.61085e-20)
(0.0681834 -0.00512718 -1.42276e-19)
(0.000226026 -0.000108727 -3.98477e-20)
(0.133667 -0.066503 -3.04472e-18)
(0.0261598 -0.0306585 -2.92041e-18)
(0.000266401 -0.000192334 -8.10362e-20)
(0.0355787 0.115914 -5.88408e-18)
(-0.00788741 -0.0426292 -4.87292e-19)
(-0.00289131 0.000916699 -6.09012e-19)
(-0.0138207 0.0509974 3.81595e-19)
(0.0420318 -0.0237075 4.06251e-19)
(2.17221e-05 1.19082e-06 -7.25978e-20)
(5.04535e-05 -4.09716e-05 3.63426e-20)
(0.00484095 -0.00168967 -1.12221e-18)
(-0.000656057 -0.00156036 -8.05608e-20)
(0.0698035 0.0205318 -4.07543e-22)
(0.0192899 -0.0028891 7.16829e-19)
(0.0289313 0.00261108 -3.23961e-19)
(-0.00192407 0.00269382 3.48348e-19)
(0.000215741 4.28534e-06 7.97376e-20)
(4.51527e-06 -9.76492e-07 -3.50718e-20)
(0.000240851 -0.000225733 -1.17859e-19)
(0.000224745 2.51418e-06 -8.92464e-20)
(0.00120768 -0.00207445 -5.9406e-19)
(0.000434697 -0.000530384 -8.59823e-19)
(0.000191758 -0.000252126 7.02946e-20)
(0.000145129 5.09263e-06 9.04496e-20)
(3.16416e-05 -1.36762e-05 -4.03599e-19)
(0.000211135 -0.000103322 4.15573e-20)
(1.7829e-05 3.41492e-05 -8.42629e-20)
(5.32606e-05 -2.17043e-05 -1.34946e-19)
(-0.00118386 0.00224072 -1.54288e-18)
(7.36082e-05 8.1646e-06 -6.83049e-19)
(0.000432236 0.000149878 8.27712e-19)
(-0.000641967 -0.00147271 -3.97852e-19)
(-0.000906608 -0.00217563 -4.99932e-19)
(0.0210246 0.0357185 -1.94343e-19)
(0.000417845 0.000236144 -3.9937e-19)
(-0.000324531 7.82492e-05 -1.94186e-18)
(0.130861 -0.0550957 1.89759e-19)
(-0.0463547 0.107904 3.48228e-18)
(3.70596e-06 -2.68214e-06 -5.42804e-20)
(-0.089682 0.0573807 -3.58632e-18)
(-0.0428403 -0.338189 -2.3561e-19)
(-0.000270832 4.29989e-05 1.58558e-19)
(8.98909e-06 -1.81148e-06 -4.75353e-20)
(3.94515e-05 9.27643e-06 -1.77217e-19)
(-0.000819861 0.00206663 1.89986e-18)
(0.000308531 0.00024724 -8.65995e-20)
(7.8197e-05 7.88424e-06 2.0571e-19)
(0.000156862 -0.000100636 -4.44768e-19)
(0.00113167 0.000239484 1.01105e-18)
(-0.000793805 0.000149708 5.43195e-19)
(-0.125707 0.0800765 5.93755e-18)
(0.00923925 0.0551541 -9.10128e-20)
(0.0870501 0.0361534 2.164e-18)
(0.0322155 -0.00682106 -1.35351e-19)
(-0.00738548 -0.00817292 6.96547e-20)
(-0.00120568 -9.21351e-05 -2.76606e-19)
(-0.000356444 -0.00128161 3.28986e-21)
(-0.000295889 -0.000730484 5.85121e-19)
(-0.00635308 -0.24612 -1.79979e-18)
(0.0118403 0.0615049 1.13733e-19)
(0.0126644 -0.2294 9.65282e-19)
(-0.000325512 -0.00148794 3.42821e-19)
(-0.106007 0.0328092 7.67637e-19)
(0.000216197 -0.00025332 -1.74004e-19)
(7.6227e-05 0.000149316 1.60864e-20)
(0.000274779 -1.00511e-05 3.30066e-19)
(0.00399962 -0.0118287 -3.03569e-18)
(0.160765 0.00665197 -1.87118e-17)
(0.00180716 -0.0021768 -5.19235e-19)
(0.000277647 0.000313468 -1.89263e-18)
(-0.00159177 0.00191555 -9.39484e-19)
(-0.0649133 0.0187045 -6.73447e-18)
(0.000239379 -0.000231565 -6.86722e-19)
(0.0568066 -0.01002 3.82897e-18)
(0.000276625 -4.16454e-05 -3.33066e-19)
(3.68919e-05 4.7643e-05 9.11862e-20)
(-0.000798363 -6.30525e-05 6.35604e-19)
(-0.000174406 -0.00157183 9.76626e-19)
(0.000139251 -4.214e-05 -3.37758e-20)
(-0.0381667 -0.0376069 -1.46423e-18)
(0.0691284 0.00238676 -5.61739e-20)
(-0.0642067 -0.0627935 -1.39172e-19)
(0.00376921 -0.0110682 1.34865e-18)
(-0.0748424 -0.0495775 -3.07137e-18)
(-0.000940246 -0.000588622 -4.85518e-19)
(-0.118713 -0.387757 -8.86675e-19)
(2.11462e-05 3.09961e-05 -4.54537e-19)
(0.000419856 -0.000506745 7.99693e-19)
(-0.16013 0.160387 4.40431e-19)
(0.0993647 -0.0424433 1.59468e-19)
(0.000199897 3.06085e-05 1.19797e-19)
(0.000179819 -0.000278439 8.01371e-20)
(0.000733769 0.00103797 1.0285e-19)
(0.101748 0.0243302 -2.73309e-18)
(0.000118873 -0.000693784 4.48554e-19)
(0.00806577 -0.00977726 1.8121e-18)
(-0.000803619 -0.00308411 -2.14993e-18)
(0.000144341 -0.0174702 7.43222e-19)
(-0.0380356 -0.0287597 2.03479e-18)
(-0.0285419 -0.0571547 -4.02574e-19)
(-0.000280547 -0.00080324 -9.00619e-19)
(-0.0755696 -0.0566888 -1.32324e-18)
(4.27345e-05 7.523e-06 5.66328e-19)
(0.000288986 -0.001502 -5.08374e-19)
(-0.0709682 -0.00235308 6.73718e-18)
(0.000520581 0.000951745 -1.09112e-19)
(0.0277321 -0.21841 3.12234e-18)
(-0.0257571 -0.0544155 -3.32504e-18)
(0.000110329 -0.000154692 8.08631e-20)
(-0.00048229 -0.00166553 -1.06223e-18)
(0.000144638 -3.60444e-05 6.11577e-20)
(0.0222673 0.00763771 7.52454e-19)
(-0.148423 0.106507 -4.26949e-18)
(0.00436888 -0.000391937 -3.22096e-19)
(-0.000225683 -6.18341e-05 1.08623e-18)
(-0.0187074 -0.0552217 -3.76064e-19)
(0.0206904 -0.0218875 2.16143e-19)
(0.000199369 0.000232562 -4.77235e-20)
(0.000144673 0.000166531 -3.81265e-20)
(0.00204884 -0.00223107 -3.0407e-19)
(2.74745e-05 2.40495e-05 -1.6491e-19)
(0.0233091 -0.0078115 -3.69637e-18)
(0.00977765 -0.19744 -2.20358e-18)
(0.000189784 -0.000101942 2.10015e-20)
(-0.000221503 -0.000445656 5.0296e-19)
(0.0837455 -0.0173326 9.91636e-19)
(-0.00142786 -0.00124719 3.54035e-19)
(0.00643669 -0.00970447 -3.39219e-19)
(-0.000152013 -0.00128002 -2.69447e-19)
(-0.000298666 -0.000184459 -1.75629e-19)
(-0.0116331 0.142033 -4.57678e-18)
(-0.000143363 -0.000341026 -1.06546e-18)
(-0.000298862 0.000178537 1.07151e-18)
(0.000131049 -9.29971e-05 -1.65203e-19)
(-0.000385625 0.00220926 -3.95243e-19)
(-0.000350862 0.000237577 7.85754e-19)
(1.44384e-05 5.73856e-06 1.80994e-20)
(-0.000953291 0.000633209 -3.61091e-20)
(-4.84896e-05 -0.00678994 -1.52611e-18)
(0.0223254 -0.0301733 4.03406e-18)
(0.021273 -0.00524041 -5.60195e-19)
(-0.00017555 -8.67355e-05 -7.39847e-19)
(-0.00504497 0.00435778 -4.56867e-19)
(-7.061e-05 -0.000707945 -1.47475e-19)
(-0.000219823 -0.00742061 -1.55452e-19)
(0.00229371 -0.00443464 -2.5192e-19)
(0.000233238 -0.000494877 -6.08446e-19)
(0.0559889 -0.0198818 -3.53824e-18)
(-0.000142186 -0.000416018 9.2747e-19)
(0.0199476 -0.0330018 -1.09397e-18)
(7.62035e-06 -5.71379e-06 4.18678e-19)
(-0.0073155 -0.00944338 9.95406e-20)
(0.000401781 0.00049161 1.08497e-20)
(0.000294253 0.000470175 -2.09485e-20)
(-0.00159481 -0.0176623 8.19862e-19)
(-0.153004 0.187283 -2.37855e-18)
(0.00204938 0.00140354 -3.31467e-19)
(0.000323321 -0.0004333 -1.23298e-19)
(-0.000257216 -1.26852e-05 -7.24167e-19)
(-0.0126182 0.00209437 2.39829e-19)
(0.00014011 -0.000192512 5.34433e-22)
(-0.00169975 0.104736 -3.63899e-19)
(0.00388912 0.0988371 1.98151e-19)
(0.000208009 3.17636e-05 -1.37913e-19)
(0.0781203 0.00483895 1.70832e-19)
(0.00012983 -1.1644e-05 2.09841e-19)
(0.0210522 -0.00326435 1.00825e-17)
(-0.000135793 0.00196056 7.06077e-19)
(0.000180449 0.00032143 -4.67223e-20)
(3.45317e-05 3.47109e-06 4.82915e-19)
(2.23893e-05 -1.50426e-05 8.22963e-19)
(0.0186175 -0.00140193 1.6444e-18)
(0.000102137 -0.000141263 -1.07351e-19)
(-0.000869751 0.00077491 -2.16238e-19)
(-0.00444588 -0.00909533 6.8062e-19)
(6.79618e-05 -1.72691e-05 -4.63558e-20)
(0.000151654 -0.000269762 -4.3487e-19)
(0.000196539 -0.000106094 -1.04999e-20)
(0.0235954 0.130823 6.4914e-18)
(0.00301745 0.000570183 5.45843e-19)
(4.65531e-05 -7.8301e-06 2.58869e-19)
(8.45548e-06 -2.39314e-06 3.41311e-21)
(0.000834981 -0.00233135 3.11579e-19)
(-0.00149974 -0.0014882 6.00727e-19)
(-0.00466374 -0.00970894 -4.31305e-20)
(0.00013758 9.77065e-06 -1.58318e-19)
(-0.0893549 0.220439 2.09313e-17)
(-0.000272514 -4.95388e-05 2.54619e-19)
(-0.0637736 0.0179439 -2.8829e-19)
(0.0262084 0.138206 7.42536e-18)
(4.03117e-05 1.05797e-06 8.27197e-19)
(1.06362e-05 -1.04692e-06 6.70094e-19)
(0.000463281 -0.000104125 -2.52374e-19)
(-0.0141541 0.00257697 3.78529e-19)
(-0.00688118 -0.00399736 -4.96645e-20)
(0.000372883 0.00168822 4.55443e-19)
(-0.0608133 0.0374278 -1.72981e-18)
(0.000130982 -1.40446e-05 -1.37649e-19)
(0.000416861 -0.000181125 2.07403e-19)
(-0.00755211 -0.00376473 2.6217e-20)
(-0.000706542 0.00153203 -3.2419e-19)
(-0.000513099 0.000145518 3.89932e-20)
(-0.00209543 -0.000891904 2.78301e-19)
(0.0233495 0.0035914 -1.55483e-20)
(-0.000399091 0.000369523 -8.96779e-19)
(-0.0109146 -0.00012774 -5.1535e-19)
(-0.000578349 -0.00342363 1.46522e-18)
(-0.000168405 0.00022683 8.86986e-19)
(-0.000435403 0.0598477 1.45469e-18)
(-0.0970552 -0.0271028 -2.40589e-18)
(0.00185672 0.0448383 -2.28066e-20)
(0.000428097 0.000761222 -2.81491e-20)
(0.142551 0.00266434 5.14473e-18)
(-0.00201834 -0.00131576 -2.76594e-19)
(-0.0838692 -0.108805 9.64805e-18)
(-0.00959534 -0.0487189 3.89733e-19)
(-0.000437797 0.000164608 -4.8967e-20)
(0.00390489 -0.00215025 5.6149e-19)
(-0.0147088 -0.0482754 -2.96646e-19)
(-0.000474376 -0.00180298 1.45771e-18)
(0.00582981 -0.00771126 -9.15904e-19)
(0.03284 -0.0248142 -3.27352e-19)
(0.000104011 -0.000121408 -4.17973e-19)
(7.06459e-05 -1.13756e-05 3.03414e-19)
(0.000382212 -0.000474864 -4.56875e-19)
(3.47929e-05 5.39307e-06 -5.72421e-19)
(0.00111855 0.000699672 -5.30203e-19)
(-0.0742064 -0.0524875 -7.173e-18)
(0.000297129 -6.72694e-05 -6.19265e-19)
(-0.000143024 0.00017268 -8.72528e-19)
(-0.0795616 0.288911 -9.18002e-18)
(-0.00114814 -0.00151141 -1.76626e-18)
(-0.00100379 -0.000588261 3.16121e-19)
(0.000512535 0.000644171 3.40686e-20)
(-0.00297121 0.000295048 -2.942e-20)
(0.000119515 -0.000121261 -3.54111e-20)
(-0.0627813 -0.0571025 6.29585e-18)
(-0.00104098 -0.00157323 -3.77522e-20)
(-4.91704e-05 -6.42033e-05 -1.05512e-21)
(-0.00034963 0.00112205 5.28982e-19)
(-0.00113857 -0.00195862 6.68375e-19)
(-0.031416 -0.172265 2.28672e-18)
(-0.000202001 -0.000650459 1.1885e-18)
(0.00474466 0.0218168 -2.43211e-20)
(0.00011044 0.000184034 3.3329e-20)
(0.00961811 -0.0206801 6.94206e-19)
(0.0310612 -0.105329 4.31543e-18)
(0.0571321 -0.0154261 6.06752e-18)
(0.0108269 -0.0217521 2.14789e-18)
(-0.00269531 0.000531502 2.75385e-20)
(0.00189438 -0.00284389 -3.49829e-19)
(-0.0856701 -0.0524002 -7.6138e-20)
(1.4016e-05 -8.86826e-06 -3.32112e-20)
(0.0584861 -0.0106527 1.97589e-18)
(-0.00183859 -0.000504571 1.746e-18)
(3.25046e-05 2.27683e-05 -1.84635e-19)
(0.0392809 0.110783 -1.00423e-17)
(0.00460206 -0.00753817 -1.46324e-19)
(-0.0913737 -0.0281416 -4.11993e-19)
(-4.45008e-05 -7.99045e-05 3.19607e-20)
(0.0250624 -0.00858831 6.95922e-18)
(0.103538 0.0707907 -2.92225e-18)
(-0.00476025 -0.00189889 -1.47269e-18)
(0.00020645 -0.000199884 6.43701e-19)
(0.0142547 0.153621 -1.23633e-17)
(0.00480295 -0.00757385 -2.77446e-18)
(0.0152044 0.044392 -1.20016e-20)
(-0.00552635 0.00360222 -3.14894e-19)
(-4.91323e-05 -0.000642576 6.46337e-20)
(-0.0511006 0.00420181 -2.4791e-19)
(0.000137245 9.97459e-06 -1.05647e-19)
(-0.00258009 -0.00100355 -1.08396e-19)
(4.05757e-07 1.22274e-06 -3.9483e-19)
(2.98122e-05 -8.14096e-06 3.86931e-19)
(-0.00132958 -0.000586772 -2.30793e-19)
(-0.000109469 -0.000708109 -7.38131e-19)
(-0.0049135 0.00281655 4.88777e-20)
(-0.024773 -0.187303 -3.14132e-18)
(-6.13577e-05 -0.00128727 -7.29242e-19)
(0.102789 -0.088157 1.69903e-18)
(0.0150187 0.0645678 2.04603e-18)
(-0.0941514 -0.0373045 3.63988e-19)
(0.0216182 -0.0194742 1.52439e-18)
(0.00981445 0.0272496 -8.27087e-20)
(-5.219e-06 -7.33532e-06 -5.71339e-19)
(0.000384749 -0.000437818 4.35412e-19)
(0.020171 -0.118491 1.16444e-18)
(0.0246038 0.0562243 -1.96166e-19)
(9.71319e-05 -0.00128076 6.47192e-19)
(0.00105276 -0.00118545 1.1586e-18)
(-0.082884 0.396924 -2.19866e-17)
(-0.000248972 6.56194e-05 4.93258e-19)
(0.140081 -0.0288954 -3.44299e-18)
(-0.000216473 -0.000537755 -1.63481e-18)
(-0.00521294 0.00212562 -9.77768e-19)
(-0.000202805 9.01444e-05 7.14604e-20)
(-0.00429265 -0.020166 -2.19745e-19)
(0.000295148 -9.78883e-05 9.72883e-20)
(0.00514751 -0.00833132 4.92536e-19)
(0.0805655 0.0127643 -5.32815e-21)
(0.000237919 -0.000654163 -1.75555e-19)
(-0.0505176 0.0489941 2.53903e-19)
(0.00415096 0.00595223 4.04729e-19)
(-0.00128717 -0.00170457 8.72091e-19)
(0.00303128 0.00673286 -2.09052e-19)
(-0.00148233 -0.000560363 -2.1077e-18)
(0.00198409 0.00174984 3.90495e-19)
(-0.000419676 -0.00228489 3.92126e-19)
(-0.146282 0.125429 4.84118e-19)
(0.000133251 -9.17714e-06 1.02918e-19)
(-0.000584873 0.000179755 -9.68592e-20)
(0.0316701 -0.0276984 -1.64695e-18)
(8.12189e-05 -0.000621906 2.33628e-19)
(0.00155851 -0.00480617 2.68927e-19)
(-0.00180793 -0.00159528 -1.0346e-18)
(-0.000650037 0.000220583 -4.12746e-19)
(0.00340581 -0.012969 2.89401e-18)
(8.52572e-05 4.33794e-06 8.16578e-19)
(-0.000581238 0.000320269 3.07592e-20)
(-6.33261e-05 0.000197467 -3.50479e-19)
(-0.0681809 -0.0303811 8.22485e-19)
(-0.000962802 -0.00175447 4.63174e-20)
(-0.0629817 -0.0488703 -7.10823e-19)
(-0.000121997 -0.00134107 -1.38266e-18)
(-0.0500505 -0.0120268 -1.96881e-19)
(7.87325e-05 -7.21124e-06 -4.33132e-19)
(-0.000565109 -0.00149179 -1.43459e-18)
(1.99964e-05 -4.69118e-06 -1.9535e-19)
(-0.000143548 -0.00119868 1.63494e-20)
(-0.0938489 0.0188105 3.30907e-18)
(-0.00103521 -0.000347934 8.23898e-19)
(0.0235628 -0.112908 6.90484e-19)
(-0.000938695 -0.000185286 -6.42114e-19)
(-0.000377796 -0.000792714 2.33531e-19)
(-0.00238639 -0.00137529 7.8356e-20)
(-0.0615605 0.412349 -1.21943e-17)
(0.0166654 -0.0170354 -1.88531e-19)
(0.0509323 -0.0802887 -1.25129e-18)
(-0.0420786 -0.020827 8.55167e-19)
(0.00490472 0.000143264 3.81542e-19)
(0.000111803 3.65136e-06 6.99506e-21)
(0.0094696 0.0293116 -2.98726e-18)
(0.00220829 -0.0133123 -2.09267e-18)
(-0.00513799 -0.0179977 1.47184e-19)
(0.00589752 0.106181 -2.0856e-18)
(0.0382185 -0.120062 -2.61733e-18)
(0.000124945 -1.0747e-05 -3.34316e-19)
(0.00225134 0.00474149 -8.76254e-19)
(0.0249575 -0.0110238 -1.38025e-17)
(3.15758e-05 -3.07077e-05 -2.04233e-20)
(-0.00280537 -0.000329428 2.52761e-19)
(3.55188e-05 1.99138e-05 -6.45135e-20)
(-9.60387e-05 -0.000307983 -6.52015e-19)
(1.27398e-05 -5.62523e-06 -6.62801e-19)
(0.097747 -0.0731627 9.88243e-18)
(0.00448023 -0.00916786 -6.51172e-18)
(-0.066407 -0.0127517 9.20839e-19)
(-0.000139467 -0.000350109 1.26562e-19)
(-0.0142251 0.00499164 1.22908e-18)
(8.28421e-05 0.00012922 5.02777e-21)
(2.08727e-05 5.5177e-06 3.7163e-19)
(3.14273e-05 -3.80101e-06 -2.02193e-19)
(-0.00239211 5.32197e-05 -7.6186e-19)
(0.0122721 0.0269118 1.33157e-18)
(1.75192e-05 -0.00155547 1.57887e-18)
(0.00154784 0.00409291 1.04334e-18)
(-0.00014862 0.000282173 -5.60744e-19)
(0.000152977 5.18511e-06 -9.04715e-20)
(0.000505188 -0.00597706 2.01785e-19)
(0.0371946 -0.0231216 -4.07792e-19)
(7.18814e-05 -1.41075e-05 5.46995e-19)
(0.000115751 7.53214e-06 1.87563e-20)
(0.0164432 0.171291 5.78675e-18)
(0.00421714 -0.00601669 6.34845e-19)
(-0.000859694 -0.0017292 -7.65275e-19)
(-0.0899915 -0.0911902 7.13476e-19)
(-0.0473317 -0.0201225 -1.43513e-18)
(-2.63481e-07 2.78991e-06 7.46942e-19)
(6.87686e-06 -3.10829e-06 1.20197e-19)
(-0.00298929 -0.000999257 1.19975e-19)
(0.00147444 -0.00581331 -1.83119e-18)
(-0.000655548 0.000352749 -5.44959e-20)
(0.000115692 -9.53559e-06 -1.02845e-19)
(0.000128699 2.22381e-07 7.57996e-19)
(-0.00101509 -0.000802846 3.39399e-19)
(-0.000137296 -0.000794128 2.98356e-19)
(-0.000199775 -0.000138441 6.36803e-19)
(0.0247617 0.0200829 1.55054e-19)
(0.0217385 -0.0367861 -1.14202e-18)
(3.11489e-05 1.24133e-05 8.06351e-19)
(-0.0738489 0.0338141 -5.0801e-18)
(-0.0250713 -0.00333681 -2.02591e-19)
(-8.26375e-05 0.000375236 -3.2412e-19)
(0.00282209 0.00109081 8.7254e-20)
(-0.00202824 0.00163151 2.29954e-19)
(0.0615814 -0.00780054 -5.70838e-20)
(0.00025585 0.00195934 1.00179e-18)
(0.0854464 -0.0303481 2.24317e-18)
(-0.000530965 0.000110088 -1.38204e-19)
(-0.000262246 -0.000275854 -4.30594e-19)
(0.0225663 -0.0243827 1.22321e-18)
(4.82536e-05 6.01816e-05 6.17745e-20)
(0.0112491 -0.014521 2.84414e-18)
(0.0467612 0.0750099 -2.53584e-18)
(-0.0124633 0.000136239 3.8459e-19)
(-2.10184e-05 0.000397455 7.91442e-19)
(0.117529 -0.0810995 8.33899e-19)
(0.00327539 -0.00583015 -1.23116e-19)
(7.18676e-05 0.000218284 -2.16955e-20)
(-0.000813319 -0.000108942 1.41825e-20)
(0.0291338 0.000417059 -7.50206e-18)
(0.000150023 0.000245876 -5.73049e-19)
(8.50851e-05 0.000186074 -3.20661e-20)
(0.000130178 1.00135e-06 1.90243e-19)
(0.000130631 0.000223528 -3.97221e-19)
(-0.000292475 0.12406 9.6228e-19)
(0.0231456 -0.00575967 -2.96903e-18)
(-0.0228139 -0.00249893 -4.73948e-19)
(0.00359067 0.000493965 -1.24225e-19)
(-0.000702829 -7.34978e-06 -6.3564e-19)
(-0.000264272 0.000290501 8.03873e-19)
(-3.63803e-05 -0.000448906 3.1274e-19)
(2.94017e-06 -3.39387e-06 -9.08225e-20)
(0.000131171 -7.13244e-07 3.96977e-19)
(0.0502797 -0.00586577 4.72035e-19)
(0.0615547 -0.0176941 -1.7765e-17)
(-0.000297974 -5.61672e-05 1.07522e-18)
(0.00405523 -0.00111111 7.88229e-20)
(0.0376865 -0.131252 1.94591e-18)
(0.000510251 0.000315717 -5.50488e-19)
(0.00496865 -0.0158872 7.58038e-19)
(0.00273058 0.0245966 -7.24127e-19)
(8.36051e-07 -1.97212e-06 -4.46018e-20)
(0.0308952 -0.0216856 3.01785e-19)
(-0.051134 -0.0162544 1.36096e-18)
(0.0001225 -0.000180951 -4.06869e-20)
(0.0653855 0.0201516 1.34471e-17)
(0.000129233 0.000348791 4.972e-20)
(0.117919 -0.0512261 -5.95615e-18)
(-0.00310285 -0.00851852 9.89276e-19)
(-0.0832388 0.0327872 -9.66838e-19)
(0.0002325 -0.000198822 -6.76768e-19)
(-0.000262752 -0.000120161 6.3024e-19)
(0.00223396 -0.0002005 -9.26462e-19)
(-0.00935075 0.121908 -3.89232e-19)
(0.00239344 -0.00282334 -4.4243e-19)
(-0.100686 -0.0721606 5.49393e-19)
(-0.0380125 0.116298 -1.99328e-18)
(0.186998 -0.0537413 -3.1576e-18)
(0.012144 -0.0155228 -3.80485e-19)
(0.0907521 -0.0256728 -4.02746e-19)
(-0.00737125 -0.0177152 -1.72232e-19)
(3.48111e-05 6.65337e-07 -1.44986e-18)
(0.010836 -0.00897544 -1.7164e-18)
(0.00350598 -0.00140591 8.47445e-19)
(0.0506527 -0.0511332 -7.34841e-19)
(-0.000449897 -0.000387013 3.95279e-19)
(-0.0571447 -0.00361065 -2.76308e-20)
(0.000181336 0.000258365 1.20512e-18)
(0.00891853 -0.0325165 -3.34494e-20)
(3.47882e-05 3.97997e-06 -2.09587e-19)
(0.00153194 -0.00120938 8.58066e-20)
(-0.000231271 0.000218396 -1.82298e-19)
(0.0741774 0.013021 -1.37912e-17)
(7.21815e-05 0.000348738 5.78119e-19)
(-8.67254e-06 -2.99732e-06 -1.74659e-18)
(0.00116349 -0.00272135 5.5881e-19)
(-0.00153005 -0.00365292 2.87895e-18)
(0.00476887 -0.00996539 2.11013e-18)
(0.000288279 -0.000199432 1.57765e-19)
(8.40694e-05 7.49352e-05 -2.60469e-19)
(0.000434228 0.00029546 3.31223e-19)
(0.000429769 0.000218023 -2.7126e-20)
(-0.0672876 -0.0130781 -6.26085e-19)
(8.96051e-05 -5.27337e-05 4.79063e-21)
(0.0438191 -0.111907 1.27634e-18)
(0.0503616 0.2032 4.36405e-18)
(9.01157e-05 -4.84367e-05 -1.00842e-18)
(3.77899e-05 3.42278e-06 -1.38713e-18)
(-0.0159654 0.00544502 1.36039e-19)
(0.000950134 -0.00127929 -2.00475e-18)
(5.06653e-05 6.28447e-06 4.64779e-20)
(-0.000836424 0.00112635 -7.88498e-20)
(-0.00444088 -0.0027553 -7.99763e-19)
(-0.0022723 -0.00890429 -1.69e-18)
(0.00203339 -0.00168932 2.80129e-18)
(-0.00117749 -0.00390134 4.52833e-19)
(6.29838e-05 0.000107582 -6.80924e-20)
(-0.00264366 0.00154221 9.95541e-20)
(-0.00229832 0.000349605 7.22563e-21)
(-0.00119862 -0.00772968 1.02044e-18)
(-0.000512647 0.00142876 2.9523e-19)
(-0.00340229 0.000321458 -1.3835e-20)
(0.051605 0.175435 8.3544e-18)
(0.000154819 0.000395475 -7.45512e-20)
(-0.15712 0.107667 2.26992e-19)
(0.0050528 -0.00620666 2.90524e-18)
(5.77429e-05 -1.078e-05 -5.37155e-19)
(7.50614e-05 7.15364e-05 5.43577e-20)
(4.33162e-05 -0.000195624 -9.43273e-19)
(6.52112e-05 -0.00380738 5.3462e-19)
(0.000559675 -0.00436643 -1.09884e-18)
(-0.000188672 -0.000273639 8.26051e-21)
(-0.00159537 0.000311655 1.139e-18)
(0.000104062 8.81426e-05 -8.7973e-21)
(-0.000350334 0.000274411 6.89434e-19)
(-0.00153661 0.00060613 -2.04946e-18)
(0.000150116 2.77064e-05 -1.62995e-19)
(-0.00356626 0.00488174 -2.08628e-19)
(3.54941e-05 4.70915e-05 -1.87176e-19)
(0.00145855 -0.00136685 2.116e-18)
(5.53195e-06 7.0884e-07 1.05064e-19)
(3.98852e-05 -0.000682269 2.92556e-19)
(-0.00277696 0.00465231 -2.32841e-19)
(0.00216702 -0.0018101 -3.31938e-18)
(0.0116562 -0.00993987 -1.41645e-19)
(1.85768e-05 -7.23824e-07 -6.96089e-19)
(-7.2021e-05 -0.000160411 3.67088e-19)
(7.22395e-05 5.29019e-05 1.67218e-19)
(2.66233e-05 0.000149857 -6.05884e-19)
(0.000572639 -7.45133e-05 -5.48536e-19)
(3.01664e-05 1.03736e-05 -5.84401e-19)
(0.00068915 -6.89096e-06 4.89057e-19)
(-9.84915e-05 0.000176752 -6.72806e-19)
(0.000114465 0.000401635 -4.4623e-20)
(0.000129515 0.000339223 -1.48303e-19)
(0.00106092 -0.0211533 -5.62507e-19)
(-3.89079e-06 -9.79892e-06 -2.82792e-19)
(3.1931e-05 2.60235e-06 7.11806e-19)
(5.91976e-05 -8.69661e-05 -4.00108e-20)
(-0.0560205 0.00354407 -3.45518e-19)
(0.000132984 -8.5808e-05 1.65467e-19)
(-0.000176645 0.000153056 -6.38428e-19)
(0.0289684 -0.016124 -3.1171e-18)
(6.23888e-05 0.000303858 -1.50483e-19)
(0.000222545 -0.00197893 1.40949e-19)
(0.0800171 0.0129962 -2.21425e-17)
(-0.00232123 0.00161963 3.67831e-20)
(7.62547e-05 -1.19229e-06 1.59938e-19)
(2.98965e-05 -4.33775e-06 8.22013e-20)
(0.0514245 -0.00410272 -3.59097e-18)
(6.57086e-05 -0.000192096 -2.99498e-19)
(0.0270282 -0.0120112 1.36061e-17)
(0.175568 -0.105147 1.96141e-18)
(0.0420436 0.0271782 -5.42059e-19)
(-0.0222829 0.0741578 2.50333e-18)
(0.000308028 -0.001747 1.94785e-19)
(3.20331e-05 -8.61174e-05 -3.58487e-20)
(0.0570282 -0.0547857 1.74705e-19)
(0.000223386 -0.00301397 6.87734e-19)
(-9.82368e-05 0.000205715 3.50347e-19)
(0.013994 0.0306805 6.2113e-20)
(-0.0540515 -0.0106741 -7.99935e-20)
(0.0783202 -0.121004 9.68027e-19)
(6.09929e-05 4.53146e-05 -1.61691e-19)
(0.0316584 0.000160904 6.93076e-18)
(3.97436e-05 -9.7635e-05 -9.37104e-22)
(5.87729e-05 -6.60376e-05 -8.11e-21)
(0.111584 -0.0867144 1.32459e-17)
(0.000145405 2.98331e-05 7.64369e-20)
(0.02983 -0.0252481 3.44206e-19)
(0.00123069 0.00385032 -6.7276e-19)
(0.0190219 -0.0396833 3.21251e-19)
(-6.43005e-05 -0.00011973 -4.16141e-19)
(-0.00422105 -0.00376945 5.68715e-19)
(-0.00203181 0.000527098 -9.51764e-21)
(0.0711365 0.0199807 -1.93142e-17)
(0.0606392 -0.204428 -5.48547e-18)
(-0.000329819 -0.000597554 1.94106e-19)
(0.000728662 0.00339704 4.54758e-19)
(0.00860814 -0.00426495 2.16711e-19)
(-8.38494e-05 0.00013587 2.39536e-19)
(0.00304021 -0.00471391 1.60485e-19)
(0.0267681 -0.0150388 1.52705e-18)
(0.116098 -0.0201991 1.55182e-17)
(0.00018574 -0.000219272 1.97728e-19)
(0.00180741 -0.0170737 -1.2979e-18)
(0.000673473 -0.00291733 -5.15717e-19)
(0.0667427 -0.0044528 -7.83122e-18)
(-0.000223613 -0.0149892 3.85916e-19)
(0.0310129 0.145117 1.08227e-18)
(-0.0493354 -0.0390789 -2.90253e-19)
(0.000160549 0.00167162 1.24978e-19)
(0.0134333 -0.000910127 1.52483e-18)
(-0.0542769 0.00118547 1.78128e-19)
(0.000132264 -9.52075e-05 1.08959e-18)
(0.000156898 2.6131e-05 -2.56609e-19)
(3.978e-05 -1.97303e-06 5.01459e-19)
(-0.000281633 0.00288159 1.31246e-18)
(3.82852e-05 0.000290624 1.26763e-19)
(0.0905539 -0.0478202 -1.4537e-18)
(-2.59218e-05 0.000223234 -1.79612e-19)
(0.0147862 -0.169545 6.92209e-18)
(0.00353115 -0.0022335 -8.97208e-19)
(0.0300227 0.013591 -1.37948e-19)
(0.025733 -0.0241927 -3.5731e-18)
(-1.78541e-05 -0.000516099 -1.81163e-19)
(0.0457371 -0.0757047 5.74596e-19)
(0.0838277 -0.0654301 3.12157e-18)
(-0.000683414 -0.00133141 4.93047e-19)
(-0.0649533 0.0239414 -2.83753e-18)
(0.0123254 3.72197e-05 -1.34217e-18)
(0.04042 -0.00172527 -9.13272e-19)
(-1.05859e-05 0.000279548 7.70591e-19)
(6.51442e-05 0.000270682 -2.34586e-20)
(0.0351986 -0.0757889 3.5127e-19)
(0.00078775 -0.000142607 -8.22673e-19)
(0.0814199 -0.138566 7.19465e-18)
(8.37128e-05 1.03655e-05 -2.51688e-19)
(-0.0525521 -0.050504 -2.13184e-19)
(0.000242 -0.00010463 1.45668e-18)
(0.0315498 -0.0195253 -8.35874e-19)
(0.0265085 -0.101976 8.22563e-19)
(0.000448627 0.00167036 1.75814e-19)
(0.154357 -0.088785 3.11284e-18)
(0.000123659 -1.16364e-05 -2.12339e-20)
(0.00141567 -0.00284746 -1.12023e-18)
(0.010357 -0.0178764 -3.94291e-18)
(0.0705334 0.0751161 -1.15488e-18)
(0.0439442 0.221958 1.54208e-17)
(0.000524973 -0.000488917 -6.41889e-19)
(0.00027854 -0.000147696 3.83792e-20)
(-0.000198772 0.000219421 1.4138e-19)
(0.0386184 0.0622355 1.30921e-17)
(-0.0788122 0.363514 -9.58291e-18)
(0.000131172 3.11743e-07 -8.08536e-19)
(0.00785602 6.94622e-05 -6.3116e-19)
(0.00777943 -0.0171494 3.32719e-19)
(-0.000100251 0.000270067 2.79638e-19)
(7.02677e-05 -0.000126542 -3.22773e-19)
(0.00160148 -0.00218796 3.14541e-19)
(0.0322065 -0.0207176 9.27086e-19)
(-0.00837924 -0.0010987 1.47216e-18)
(0.000993479 -0.000126828 6.66391e-20)
(3.71395e-05 3.3424e-06 -2.8054e-19)
(0.000196825 -0.000139989 1.74754e-19)
(-0.0321693 0.0764779 -1.93469e-18)
(0.0579472 -0.114862 -5.22509e-19)
(-0.0191855 -0.00264633 3.64478e-19)
(3.80137e-05 0.00017264 1.67526e-19)
(6.12074e-05 9.08919e-09 -6.45451e-20)
(-0.0597863 0.0140306 -1.35512e-19)
(0.000152657 2.96512e-05 -1.67401e-19)
(-0.075826 0.0120781 7.42823e-18)
(0.00584675 -0.0288304 1.15885e-19)
(0.00356657 -0.191108 1.05281e-18)
(0.0377223 -0.0334471 -3.60842e-19)
(-0.0511207 -0.0544728 4.16476e-19)
(0.00012851 0.000131181 -3.76857e-19)
(4.76831e-05 -0.00055272 -6.82215e-19)
(0.0014191 -0.00518483 5.23705e-18)
(0.000959199 -0.00233668 1.56393e-18)
(-0.00136956 -0.00831622 -3.92637e-19)
(0.000136699 1.97289e-05 -7.17708e-20)
(0.0323446 -0.00237784 4.5731e-18)
(0.0640621 -0.0504934 -9.08656e-19)
(0.000107209 -0.000226186 2.04549e-19)
(0.0751207 -0.10068 4.44302e-19)
(0.000178299 -0.000154016 -2.39265e-19)
(0.0439527 -0.0550879 -1.60972e-18)
(0.000525327 -0.000893314 9.33069e-19)
(0.0289965 -0.0628386 3.16313e-19)
(-0.00300512 0.00768866 6.88599e-19)
(0.00228807 0.00582632 -3.22781e-19)
(0.000183423 -0.000316743 -4.97593e-19)
(0.000555008 -0.00244915 -1.51276e-18)
(-0.00761746 -0.00942342 -3.60308e-19)
(0.0612838 -0.0389996 9.09293e-18)