/*--------------------------------*- C++ -*----------------------------------*\
| =========                 |                                                 |
| \\      /  F ield         | OpenFOAM: The Open Source CFD Toolbox           |
|  \\    /   O peration     | Version:  v2012                                 |
|   \\  /    A nd           | Website:  www.openfoam.com                      |
|    \\/     M anipulation  |                                                 |
\*---------------------------------------------------------------------------*/
FoamFile
{
    version     2.0;
    format      ascii;
    class       pointVectorField;
    location    "500";
    object      pointDisplacement;
}
// * * * * * * * * * * * * * * * * * * * * * * * * * * * * * * * * * * * * * //

dimensions      [0 1 0 0 0 0 0];


internalField   nonuniform List<vector> 
10142
(
(0 0 0)
(0 0 0)
(0 0 0)
(0 0 0)
(0 0 0)
(0 0 0)
(0 0 0)
(0 0 0)
(0 0 0)
(0 0 0)
(0 0 0)
(0 0 0)
(0 0 0)
(0 0 0)
(0 0 0)
(0 0 0)
(0 0 0)
(0 0 0)
(0 0 0)
(0 0 0)
(0 0 0)
(0 0 0)
(0 0 0)
(0 0 0)
(0 0 0)
(0 0 0)
(0 0 0)
(0 0 0)
(0 0 0)
(0 0 0)
(0 0 0)
(0 0 0)
(0 0 0)
(0 0 0)
(0 0 0)
(0 0 0)
(0 0 0)
(0 0 0)
(0 0 0)
(0 0 0)
(0 0 0)
(0 0 0)
(0 0 0)
(0 0 0)
(0 0 0)
(0 0 0)
(0 0 0)
(0 0 0)
(0 0 0)
(0 0 0)
(0 0 0)
(0 0 0)
(0 0 0)
(0 0 0)
(0 0 0)
(0 0 0)
(0 0 0)
(0 0 0)
(0 0 0)
(0 0 0)
(0 0 0)
(0 0 0)
(0 0 0)
(0 0 0)
(0 0 0)
(0 0 0)
(0 0 0)
(0 0 0)
(0 0 0)
(0 0 0)
(0 0 0)
(0 0 0)
(0 0 0)
(0 0 0)
(0 0 0)
(0 0 0)
(0 0 0)
(0 0 0)
(0 0 0)
(0 0 0)
(0 0 0)
(0 0 0)
(0 0 0)
(0 0 0)
(0 0 0)
(0 0 0)
(0 0 0)
(0 0 0)
(0 0 0)
(0 0 0)
(0 0 0)
(0 0 0)
(0 0 0)
(0 0 0)
(0 0 0)
(0 0 0)
(0 0 0)
(0 0 0)
(0 0 0)
(0 0 0)
(0 0 0)
(0 0 0)
(0 0 0)
(0 0 0)
(0 0 0)
(0 0 0)
(0 0 0)
(0 0 0)
(0 0 0)
(0 0 0)
(0 0 0)
(0 0 0)
(0 0 0)
(0 0 0)
(0 0 0)
(0 0 0)
(0 0 0)
(0 0 0)
(0 0 0)
(0 0 0)
(0 0 0)
(0 0 0)
(0 0 0)
(0 0 0)
(0 0 0)
(0 0 0)
(0 0 0)
(0 0 0)
(0 0 0)
(0 0 0)
(0 0 0)
(0 0 0)
(0 0 0)
(0 0 0)
(0 0 0)
(0 0 0)
(0 0 0)
(0 0 0)
(0 0 0)
(0 0 0)
(0 0 0)
(0 0 0)
(0 0 0)
(0 0 0)
(0 0 0)
(0 0 0)
(0 0 0)
(0 0 0)
(0 0 0)
(0 0 0)
(0 0 0)
(0 0 0)
(0 0 0)
(0 0 0)
(0 0 0)
(0 0 0)
(0 0 0)
(0 0 0)
(0 0 0)
(0 0 0)
(0 0 0)
(0 0 0)
(0 0 0)
(0 0 0)
(0 0 0)
(0 0 0)
(0 0 0)
(0 0 0)
(0 0 0)
(0 0 0)
(0 0 0)
(0 0 0)
(0 0 0)
(0 0 0)
(0 0 0)
(0 0 0)
(0 0 0)
(0 0 0)
(0 0 0)
(0 0 0)
(0 0 0)
(0 0 0)
(0 0 0)
(0 0 0)
(0 0 0)
(0 0 0)
(0 0 0)
(0 0 0)
(0 0 0)
(0 0 0)
(0 0 0)
(0 0 0)
(0 0 0)
(0 0 0)
(0 0 0)
(0 0 0)
(0 0 0)
(0 0 0)
(0 0 0)
(0 0 0)
(0 0 0)
(0 0 0)
(0 0 0)
(0 0 0)
(0 0 0)
(0 0 0)
(0 0 0)
(0 0 0)
(0 0 0)
(0 0 0)
(0 0 0)
(0 0 0)
(0 0 0)
(0 0 0)
(0 0 0)
(0 0 0)
(0 0 0)
(0 0 0)
(0 0 0)
(0 0 0)
(0 0 0)
(0 0 0)
(0 0 0)
(0 0 0)
(0 0 0)
(0 0 0)
(0 0 0)
(0 0 0)
(0 0 0)
(0 0 0)
(0 0 0)
(0 0 0)
(0 0 0)
(0 0 0)
(0 0 0)
(0 0 0)
(0 0 0)
(0 0 0)
(0 0 0)
(0 0 0)
(0 0 0)
(0 0 0)
(0 0 0)
(0 0 0)
(0 0 0)
(0 0 0)
(0 0 0)
(0 0 0)
(0 0 0)
(0 0 0)
(0 0 0)
(0 0 0)
(0 0 0)
(0 0 0)
(0 0 0)
(0 0 0)
(0 -0.000160759 0)
(0 -0.000180134 0)
(0 -0.000123312 0)
(0 -0.000147028 0)
(0 -9.91842e-05 0)
(0 -0.000148117 0)
(0 -8.47838e-05 0)
(0 -0.00015997 0)
(0 -6.77922e-05 0)
(0 -0.000114545 0)
(0 -7.39463e-05 0)
(0 -5.09761e-05 0)
(0 -5.01365e-05 0)
(0 -0.000153008 0)
(0 -4.722e-05 0)
(0 -3.69273e-05 0)
(0 -3.56195e-05 0)
(0 -0.00017464 0)
(0 -0.000110376 0)
(0 -9.3298e-05 0)
(0 -2.84134e-05 0)
(0 -1.93683e-05 0)
(0 -0.000150847 0)
(0 -0.000181473 0)
(0 -0.000158803 0)
(0 -0.000159778 0)
(0 -0.000129091 0)
(0 -5.44354e-05 0)
(0 -7.0067e-05 0)
(0 -6.45802e-05 0)
(0 -5.7847e-05 0)
(0 -1.8763e-05 0)
(0 -1.18272e-05 0)
(0 -1.02146e-05 0)
(0 -0.00016214 0)
(0 -0.000183175 0)
(0 -0.000155313 0)
(0 -0.000141703 0)
(0 -0.000153744 0)
(0 -0.00011283 0)
(0 -7.88662e-05 0)
(0 -9.40199e-05 0)
(0 -0.00013083 0)
(0 -3.27733e-05 0)
(0 -8.92072e-05 0)
(0 -6.20588e-05 0)
(0 -4.64717e-05 0)
(0 -3.80431e-05 0)
(0 -2.63594e-05 0)
(0 -4.55842e-05 0)
(0 -5.11672e-06 0)
(0 -0.000998918 0)
(0 -0.000957673 0)
(0 -0.00101274 0)
(0 -0.000970862 0)
(0 -0.00102755 0)
(0 -0.000985432 0)
(0 -0.00104377 0)
(0 -0.00100177 0)
(0 -0.00106147 0)
(0 -0.00102003 0)
(0 -0.00108046 0)
(0 -0.00104001 0)
(0 -0.00110009 0)
(0 -0.00106071 0)
(0 -0.00112172 0)
(0 -0.00108132 0)
(0 -0.00114344 0)
(0 -0.00110342 0)
(0 -0.00116704 0)
(0 -0.00112988 0)
(0 -0.00119701 0)
(0 -0.00115837 0)
(0 -0.00122759 0)
(0 -0.00118958 0)
(0 -0.00125786 0)
(0 -0.00122317 0)
(0 -0.00129156 0)
(0 -0.00125807 0)
(0 -0.00132893 0)
(0 -0.00129488 0)
(0 -0.00136621 0)
(0 -0.00133381 0)
(0 -0.00140534 0)
(0 -0.00137482 0)
(0 -0.00144704 0)
(0 -0.00141818 0)
(0 -0.00149131 0)
(0 -0.00146423 0)
(0 -0.00153672 0)
(0 -0.00151015 0)
(0 -0.00158101 0)
(0 -0.00155635 0)
(0 -0.00162821 0)
(0 -0.00160311 0)
(0 -0.00167624 0)
(0 -0.00165031 0)
(0 -0.00172486 0)
(0 -0.00170056 0)
(0 -0.00177655 0)
(0 -0.00175254 0)
(0 -0.00182817 0)
(0 -0.0018045 0)
(0 -0.00188107 0)
(0 -0.00172627 0)
(0 -0.00178066 0)
(0 -0.00190266 0)
(0 -0.00195433 0)
(0 -0.00157108 0)
(0 -0.0012994 0)
(0 -0.00112216 0)
(0 -0.00197741 0)
(0 -0.00202713 0)
(0 -0.00205185 0)
(0 -0.00210043 0)
(0 -0.0021239 0)
(0 -0.00217161 0)
(0 -0.0021962 0)
(0 -0.00224518 0)
(0 -0.0022695 0)
(0 -0.00231792 0)
(0 -0.00233828 0)
(0 -0.00238576 0)
(0 -0.00240336 0)
(0 -0.00245201 0)
(0 -0.00246673 0)
(0 -0.00251586 0)
(0 -0.00252614 0)
(0 -0.00257297 0)
(0 -0.00258015 0)
(0 -0.00262251 0)
(0 -0.00262708 0)
(0 -0.00266542 0)
(0 -0.00266257 0)
(0 -0.00270528 0)
(0 -0.00270246 0)
(0 -0.00274534 0)
(0 -0.00274099 0)
(0 -0.00278352 0)
(0 -0.0027773 0)
(0 -0.00281877 0)
(0 -0.00281332 0)
(0 -0.00285415 0)
(0 -0.00284856 0)
(0 -0.00288887 0)
(0 -0.00288094 0)
(0 -0.00291884 0)
(0 -0.00290873 0)
(0 -0.00294529 0)
(0 -0.00293383 0)
(0 -0.00297009 0)
(0 -0.00299143 0)
(0 -0.00300105 0)
(0 -0.00302106 0)
(0 -0.00303796 0)
(0 -0.00282029 0)
(0 -0.00304648 0)
(0 -0.00306339 0)
(0 -0.00308581 0)
(0 -0.00309924 0)
(0 -0.00311747 0)
(0 -0.00312625 0)
(0 -0.00313148 0)
(0 -0.00313991 0)
(0 -0.00314503 0)
(0 -0.00314989 0)
(0 -0.00315387 0)
(0 -0.00315914 0)
(0 -0.00315805 0)
(0 -0.00315903 0)
(0 -0.00315416 0)
(0 -0.00315593 0)
(0 -0.00315094 0)
(0 -0.00314332 0)
(0 -0.00314483 0)
(0 -0.00313661 0)
(0 -0.00312539 0)
(0 -0.00311486 0)
(0 -0.00310192 0)
(0 -0.00308805 0)
(0 -0.00258703 0)
(0 -0.00308592 0)
(0 -0.00307081 0)
(0 -0.00305242 0)
(0 -0.00304772 0)
(0 -0.00303056 0)
(0 -0.00300623 0)
(0 -0.00298599 0)
(0 -0.00295844 0)
(0 -0.00293392 0)
(0 -0.00292796 0)
(0 -0.00290374 0)
(0 -0.00287661 0)
(0 -0.00287191 0)
(0 -0.00284588 0)
(0 -0.00281628 0)
(0 -0.00281224 0)
(0 -0.00278382 0)
(0 -0.00134546 0)
(0 -0.0027468 0)
(0 -0.00271469 0)
(0 -0.00267551 0)
(0 -0.00264075 0)
(0 -0.00263462 0)
(0 -0.0026003 0)
(0 -0.00256417 0)
(0 -0.00255811 0)
(0 -0.00252301 0)
(0 -0.00248019 0)
(0 -0.00244395 0)
(0 -0.00240066 0)
(0 -0.00236187 0)
(0 -0.00235564 0)
(0 -0.00231738 0)
(0 -0.00227761 0)
(0 -0.00227164 0)
(0 -0.0022323 0)
(0 -0.00218598 0)
(0 -0.00115401 0)
(0 -0.00101884 0)
(0 -0.00263296 0)
(0 -0.00259482 0)
(0 -0.00264036 0)
(0 -0.00260283 0)
(0 -0.00264652 0)
(0 -0.00260871 0)
(0 -0.00265643 0)
(0 -0.00261235 0)
(0 -0.00265107 0)
(0 -0.00261416 0)
(0 -0.00264776 0)
(0 -0.0026114 0)
(0 -0.00264166 0)
(0 -0.00260467 0)
(0 -0.00263285 0)
(0 -0.00259515 0)
(0 -0.00261945 0)
(0 -0.00257923 0)
(0 -0.00260093 0)
(0 -0.00255722 0)
(0 -0.002576 0)
(0 -0.00262055 0)
(0 -0.00259098 0)
(0 -0.00263543 0)
(0 -0.0026022 0)
(0 -0.00264562 0)
(0 -0.00252993 0)
(0 -0.00251077 0)
(0 -0.00261064 0)
(0 -0.00265331 0)
(0 -0.00248292 0)
(0 -0.00246394 0)
(0 -0.00261472 0)
(0 -0.00265565 0)
(0 -0.00243594 0)
(0 -0.00241651 0)
(0 -0.00260418 0)
(0 -0.00265312 0)
(0 -0.00238759 0)
(0 -0.00236585 0)
(0 -0.00233762 0)
(0 -0.00231488 0)
(0 -0.00260383 0)
(0 -0.00264667 0)
(0 -0.00228779 0)
(0 -0.00226662 0)
(0 -0.00259231 0)
(0 -0.00263538 0)
(0 -0.00223822 0)
(0 -0.00221994 0)
(0 -0.00255285 0)
(0 -0.00218889 0)
(0 -0.0021738 0)
(0 -0.00257472 0)
(0 -0.00261958 0)
(0 -0.00220107 0)
(0 -0.00214082 0)
(0 -0.00212862 0)
(0 -0.0025524 0)
(0 -0.00259853 0)
(0 -0.0020951 0)
(0 -0.00208436 0)
(0 -0.00252604 0)
(0 -0.00257172 0)
(0 -0.00205054 0)
(0 -0.00203993 0)
(0 -0.00286805 0)
(0 -0.00249541 0)
(0 -0.0025411 0)
(0 -0.00200484 0)
(0 -0.00199448 0)
(0 -0.00202356 0)
(0 -0.00197807 0)
(0 -0.00194769 0)
(0 -0.00193272 0)
(0 -0.00224298 0)
(0 -0.00246154 0)
(0 -0.00250705 0)
(0 -0.00190099 0)
(0 -0.00188671 0)
(0 -0.00191299 0)
(0 -0.00186884 0)
(0 -0.00183948 0)
(0 -0.00182408 0)
(0 -0.00179239 0)
(0 -0.00177903 0)
(0 -0.00242374 0)
(0 -0.00246872 0)
(0 -0.00255017 0)
(0 -0.00251148 0)
(0 -0.00242606 0)
(0 -0.00246863 0)
(0 -0.00245098 0)
(0 -0.00184882 0)
(0 -0.000941261 0)
(0 -0.00174587 0)
(0 -0.00173492 0)
(0 -0.00255201 0)
(0 -0.00250951 0)
(0 -0.0024233 0)
(0 -0.00246449 0)
(0 -0.00237529 0)
(0 -0.00241674 0)
(0 -0.0025039 0)
(0 -0.00245689 0)
(0 -0.00236662 0)
(0 -0.00240644 0)
(0 -0.00201052 0)
(0 -0.00249482 0)
(0 -0.00244444 0)
(0 -0.00235332 0)
(0 -0.00239233 0)
(0 -0.0022988 0)
(0 -0.0023385 0)
(0 -0.00243279 0)
(0 -0.00237801 0)
(0 -0.0022834 0)
(0 -0.00232056 0)
(0 -0.00241051 0)
(0 -0.00235464 0)
(0 -0.00226283 0)
(0 -0.00229808 0)
(0 -0.00170048 0)
(0 -0.00169162 0)
(0 -0.00170774 0)
(0 -0.00220278 0)
(0 -0.00223727 0)
(0 -0.00232817 0)
(0 -0.00226854 0)
(0 -0.00217597 0)
(0 -0.00220812 0)
(0 -0.00257243 0)
(0 -0.00267155 0)
(0 -0.00229656 0)
(0 -0.00223729 0)
(0 -0.00214746 0)
(0 -0.0021779 0)
(0 -0.0020863 0)
(0 -0.00211728 0)
(0 -0.00220323 0)
(0 -0.00214358 0)
(0 -0.00205513 0)
(0 -0.00208334 0)
(0 -0.00216941 0)
(0 -0.0021107 0)
(0 -0.00201973 0)
(0 -0.00204621 0)
(0 -0.00195302 0)
(0 -0.00197732 0)
(0 -0.00206294 0)
(0 -0.00199773 0)
(0 -0.00191048 0)
(0 -0.00193256 0)
(0 -0.00201623 0)
(0 -0.0019523 0)
(0 -0.0018674 0)
(0 -0.00188806 0)
(0 -0.00180255 0)
(0 -0.00182337 0)
(0 -0.00190389 0)
(0 -0.00184139 0)
(0 -0.00175871 0)
(0 -0.00177693 0)
(0 -0.00165668 0)
(0 -0.00164881 0)
(0 -0.00167954 0)
(0 -0.00163797 0)
(0 -0.00166263 0)
(0 -0.00162335 0)
(0 -0.00159671 0)
(0 -0.00158447 0)
(0 -0.00155656 0)
(0 -0.00154594 0)
(0 -0.00185548 0)
(0 -0.00179234 0)
(0 -0.00171322 0)
(0 -0.00172982 0)
(0 -0.00165011 0)
(0 -0.00166684 0)
(0 -0.00174146 0)
(0 -0.00167943 0)
(0 -0.00160401 0)
(0 -0.00161802 0)
(0 -0.00169743 0)
(0 -0.00162861 0)
(0 -0.00155674 0)
(0 -0.00156531 0)
(0 -0.00163216 0)
(0 -0.00157149 0)
(0 -0.00150157 0)
(0 -0.00150853 0)
(0 -0.00157589 0)
(0 -0.00151323 0)
(0 -0.00157776 0)
(0 -0.00151536 0)
(0 -0.0015769 0)
(0 -0.00151494 0)
(0 -0.00145369 0)
(0 -0.00145364 0)
(0 -0.00151195 0)
(0 -0.00145085 0)
(0 -0.0013927 0)
(0 -0.00138988 0)
(0 -0.00144515 0)
(0 -0.00138414 0)
(0 -0.00143666 0)
(0 -0.00137544 0)
(0 -0.00142537 0)
(0 -0.00136412 0)
(0 -0.00141147 0)
(0 -0.00135025 0)
(0 -0.00130284 0)
(0 -0.00128928 0)
(0 -0.0013342 0)
(0 -0.00127364 0)
(0 -0.00131605 0)
(0 -0.0012562 0)
(0 -0.00129608 0)
(0 -0.00123663 0)
(0 -0.00127414 0)
(0 -0.00119718 0)
(0 -0.00121503 0)
(0 -0.00125011 0)
(0 -0.00119148 0)
(0 -0.00122419 0)
(0 -0.00116595 0)
(0 -0.00119644 0)
(0 -0.00113833 0)
(0 -0.00116658 0)
(0 -0.00133224 0)
(0 -0.00110797 0)
(0 -0.00110851 0)
(0 -0.00113464 0)
(0 -0.00107657 0)
(0 -0.0011007 0)
(0 -0.00229717 0)
(0 -0.00151674 0)
(0 -0.00150728 0)
(0 -0.00104252 0)
(0 -0.00106468 0)
(0 -0.00164222 0)
(0 -0.00122465 0)
(0 -0.00147594 0)
(0 -0.00146632 0)
(0 -0.00221978 0)
(0 -0.00100647 0)
(0 -0.00102667 0)
(0 -0.000984335 0)
(0 -0.00108462 0)
(0 -0.00104481 0)
(0 -0.00110243 0)
(0 -0.00106091 0)
(0 -0.00133421 0)
(0 -0.00269568 0)
(0 -0.00143251 0)
(0 -0.00149336 0)
(0 -0.00143624 0)
(0 -0.00100343 0)
(0 -0.00101799 0)
(0 -0.00111796 0)
(0 -0.0014725 0)
(0 -0.000960612 0)
(0 -0.000973784 0)
(0 -0.000916436 0)
(0 -0.00092842 0)
(0 -0.000870888 0)
(0 -0.000881716 0)
(0 -0.000938757 0)
(0 -0.000890912 0)
(0 -0.000947165 0)
(0 -0.00268685 0)
(0 -0.000823985 0)
(0 -0.000812793 0)
(0 -0.00240254 0)
(0 -0.00238454 0)
(0 -0.000765702 0)
(0 -0.000754262 0)
(0 -0.0014862 0)
(0 -0.00292416 0)
(0 -0.00163953 0)
(0 -0.00143812 0)
(0 -0.00124217 0)
(0 -0.00276931 0)
(0 -0.00170733 0)
(0 -0.00139758 0)
(0 -0.00118816 0)
(0 -0.00105276 0)
(0 -0.000707072 0)
(0 -0.000695444 0)
(0 -0.00207759 0)
(0 -0.000648078 0)
(0 -0.000636187 0)
(0 -0.00257575 0)
(0 -0.00110761 0)
(0 -0.000860687 0)
(0 -0.000811621 0)
(0 -0.00255337 0)
(0 -0.0014616 0)
(0 -0.00150724 0)
(0 -0.00156031 0)
(0 -0.00155158 0)
(0 -0.001605 0)
(0 -0.0015944 0)
(0 -0.00164829 0)
(0 -0.00163578 0)
(0 -0.00168995 0)
(0 -0.00167588 0)
(0 -0.00172982 0)
(0 -0.00171398 0)
(0 -0.0017685 0)
(0 -0.00175158 0)
(0 -0.00180491 0)
(0 -0.0017837 0)
(0 -0.00183772 0)
(0 -0.00181127 0)
(0 -0.00186692 0)
(0 -0.00183269 0)
(0 -0.00189587 0)
(0 -0.0018675 0)
(0 -0.0019251 0)
(0 -0.00189482 0)
(0 -0.00195172 0)
(0 -0.000682463 0)
(0 -0.000623 0)
(0 -0.000668056 0)
(0 -0.000608562 0)
(0 -0.000652308 0)
(0 -0.000592783 0)
(0 -0.000635213 0)
(0 -0.000575904 0)
(0 -0.00061693 0)
(0 -0.000558041 0)
(0 -0.00059762 0)
(0 -0.000539317 0)
(0 -0.000577419 0)
(0 -0.000519843 0)
(0 -0.000556254 0)
(0 -0.000499661 0)
(0 -0.000534284 0)
(0 -0.000590554 0)
(0 -0.000566825 0)
(0 -0.000511621 0)
(0 -0.00054202 0)
(0 -0.000597046 0)
(0 -0.000570206 0)
(0 -0.000516571 0)
(0 -0.000542287 0)
(0 -0.000595708 0)
(0 -0.000565336 0)
(0 -0.000513785 0)
(0 -0.000534603 0)
(0 -0.000585986 0)
(0 -0.000553142 0)
(0 -0.000503289 0)
(0 -0.000519086 0)
(0 -0.000568686 0)
(0 -0.000531884 0)
(0 -0.000580581 0)
(0 -0.000484496 0)
(0 -0.000541519 0)
(0 -0.000589465 0)
(0 -0.000548204 0)
(0 -0.000595732 0)
(0 -0.000552188 0)
(0 -0.000600133 0)
(0 -0.000553479 0)
(0 -0.000601361 0)
(0 -0.00050753 0)
(0 -0.00055173 0)
(0 -0.000598944 0)
(0 -0.00063044 0)
(0 -0.000547102 0)
(0 -0.000594244 0)
(0 -0.000651012 0)
(0 -0.00053998 0)
(0 -0.000587068 0)
(0 -0.000494742 0)
(0 -0.000530173 0)
(0 -0.00057705 0)
(0 -0.000635834 0)
(0 -0.000625559 0)
(0 -0.000686051 0)
(0 -0.000675787 0)
(0 -0.000612546 0)
(0 -0.000662741 0)
(0 -0.000727677 0)
(0 -0.000714441 0)
(0 -0.000646511 0)
(0 -0.000697948 0)
(0 -0.000626856 0)
(0 -0.000678107 0)
(0 -0.000750999 0)
(0 -0.00073105 0)
(0 -0.00101502 0)
(0 -0.00108123 0)
(0 -0.000655094 0)
(0 -0.000708013 0)
(0 -0.000785616 0)
(0 -0.000762521 0)
(0 -0.000841628 0)
(0 -0.000818453 0)
(0 -0.000736266 0)
(0 -0.000792094 0)
(0 -0.000588575 0)
(0 -0.000599518 0)
(0 -0.000879336 0)
(0 -0.000829464 0)
(0 -0.000763539 0)
(0 -0.000781707 0)
(0 -0.000717847 0)
(0 -0.000736076 0)
(0 -0.000845701 0)
(0 -0.000674826 0)
(0 -0.000693451 0)
(0 -0.00162306 0)
(0 -0.000706851 0)
(0 -0.000762659 0)
(0 -0.000982571 0)
(0 -0.00105221 0)
(0 -0.000516588 0)
(0 -0.00191939 0)
(0 -0.001977 0)
(0 -0.00175088 0)
(0 -0.000849334 0)
(0 -0.000819989 0)
(0 -0.00073014 0)
(0 -0.000787163 0)
(0 -0.000878399 0)
(0 -0.000845294 0)
(0 -0.0014971 0)
(0 -0.000937638 0)
(0 -0.000904534 0)
(0 -0.000808926 0)
(0 -0.000867951 0)
(0 -0.000964704 0)
(0 -0.000927939 0)
(0 -0.000827972 0)
(0 -0.000887959 0)
(0 -0.000988805 0)
(0 -0.000948872 0)
(0 -0.000844693 0)
(0 -0.00090559 0)
(0 -0.00101069 0)
(0 -0.000967594 0)
(0 -0.00107364 0)
(0 -0.00103112 0)
(0 -0.000921716 0)
(0 -0.00098558 0)
(0 -0.00109605 0)
(0 -0.00105039 0)
(0 -0.000936145 0)
(0 -0.00100056 0)
(0 -0.00111575 0)
(0 -0.00106608 0)
(0 -0.00118186 0)
(0 -0.0011328 0)
(0 -0.00101372 0)
(0 -0.00108061 0)
(0 -0.00119998 0)
(0 -0.00114752 0)
(0 -0.00102457 0)
(0 -0.00109137 0)
(0 -0.00121491 0)
(0 -0.00115969 0)
(0 -0.00128381 0)
(0 -0.00123025 0)
(0 -0.00110274 0)
(0 -0.00117419 0)
(0 -0.00130078 0)
(0 -0.00124474 0)
(0 -0.00111477 0)
(0 -0.00118578 0)
(0 -0.00131471 0)
(0 -0.00125573 0)
(0 -0.00112199 0)
(0 -0.00119232 0)
(0 -0.0013257 0)
(0 -0.00126322 0)
(0 -0.00139599 0)
(0 -0.0013347 0)
(0 -0.00119876 0)
(0 -0.00127116 0)
(0 -0.00140583 0)
(0 -0.00134296 0)
(0 -0.00120515 0)
(0 -0.00127815 0)
(0 -0.00141523 0)
(0 -0.00135216 0)
(0 -0.00148837 0)
(0 -0.00142709 0)
(0 -0.00128782 0)
(0 -0.00136375 0)
(0 -0.00150002 0)
(0 -0.00143699 0)
(0 -0.00129649 0)
(0 -0.00137096 0)
(0 -0.00150988 0)
(0 -0.00144524 0)
(0 -0.00129946 0)
(0 -0.00137322 0)
(0 -0.00151842 0)
(0 -0.00144477 0)
(0 -0.00158762 0)
(0 -0.00151392 0)
(0 -0.00136788 0)
(0 -0.00143757 0)
(0 -0.0015816 0)
(0 -0.00150599 0)
(0 -0.00135882 0)
(0 -0.00142746 0)
(0 -0.00157301 0)
(0 -0.00149436 0)
(0 -0.00163674 0)
(0 -0.00155813 0)
(0 -0.00141389 0)
(0 -0.00147774 0)
(0 -0.00161805 0)
(0 -0.00153893 0)
(0 -0.00167541 0)
(0 -0.00159862 0)
(0 -0.00173098 0)
(0 -0.00165517 0)
(0 -0.00152002 0)
(0 -0.00157655 0)
(0 -0.00170588 0)
(0 -0.00162943 0)
(0 -0.00175359 0)
(0 -0.0016808 0)
(0 -0.00180042 0)
(0 -0.00172992 0)
(0 -0.00160933 0)
(0 -0.00166054 0)
(0 -0.00177546 0)
(0 -0.00170751 0)
(0 -0.00159243 0)
(0 -0.00164062 0)
(0 -0.00152401 0)
(0 -0.0015727 0)
(0 -0.00181708 0)
(0 -0.00145431 0)
(0 -0.00150295 0)
(0 -0.00161627 0)
(0 -0.00154788 0)
(0 -0.00143117 0)
(0 -0.00147706 0)
(0 -0.00140065 0)
(0 -0.00165641 0)
(0 -0.00144051 0)
(0 -0.00135747 0)
(0 -0.00140338 0)
(0 -0.00128157 0)
(0 -0.00132661 0)
(0 -0.00144235 0)
(0 -0.00136619 0)
(0 -0.00147579 0)
(0 -0.00140192 0)
(0 -0.00129143 0)
(0 -0.00132921 0)
(0 -0.00143482 0)
(0 -0.00136502 0)
(0 -0.00125757 0)
(0 -0.00129652 0)
(0 -0.00123101 0)
(0 -0.00118706 0)
(0 -0.00123004 0)
(0 -0.00146604 0)
(0 -0.00133366 0)
(0 -0.00250484 0)
(0 -0.0004628 0)
(0 -0.000947316 0)
(0 -0.00102062 0)
(0 -0.00187065 0)
(0 -0.00267691 0)
(0 -0.00194289 0)
(0 -0.00200053 0)
(0 -0.00111924 0)
(0 -0.00196394 0)
(0 -0.00202223 0)
(0 -0.00205609 0)
(0 -0.00207993 0)
(0 -0.0020405 0)
(0 -0.00209896 0)
(0 -0.00213829 0)
(0 -0.00215669 0)
(0 -0.00211367 0)
(0 -0.00217153 0)
(0 -0.00221351 0)
(0 -0.00222843 0)
(0 -0.0022693 0)
(0 -0.00228474 0)
(0 -0.00224102 0)
(0 -0.00229784 0)
(0 -0.00234057 0)
(0 -0.00235401 0)
(0 -0.00230851 0)
(0 -0.00236503 0)
(0 -0.00240908 0)
(0 -0.00242019 0)
(0 -0.00246257 0)
(0 -0.0024743 0)
(0 -0.00242904 0)
(0 -0.00248343 0)
(0 -0.00252673 0)
(0 -0.00253619 0)
(0 -0.00248979 0)
(0 -0.0025428 0)
(0 -0.00258743 0)
(0 -0.0025942 0)
(0 -0.00254629 0)
(0 -0.00259794 0)
(0 -0.00264389 0)
(0 -0.00264803 0)
(0 -0.00269252 0)
(0 -0.00269726 0)
(0 -0.0026494 0)
(0 -0.00269878 0)
(0 -0.00274482 0)
(0 -0.00274615 0)
(0 -0.00278986 0)
(0 -0.00279127 0)
(0 -0.00274514 0)
(0 -0.00278991 0)
(0 -0.00283374 0)
(0 -0.00283196 0)
(0 -0.00278572 0)
(0 -0.0028277 0)
(0 -0.00287139 0)
(0 -0.00286741 0)
(0 -0.00282102 0)
(0 -0.00286102 0)
(0 -0.00290495 0)
(0 -0.00289877 0)
(0 -0.00294102 0)
(0 -0.00293548 0)
(0 -0.00289073 0)
(0 -0.0029282 0)
(0 -0.00297031 0)
(0 -0.00296367 0)
(0 -0.00291949 0)
(0 -0.00295561 0)
(0 -0.00299663 0)
(0 -0.00298825 0)
(0 -0.00302533 0)
(0 -0.00301678 0)
(0 -0.00297682 0)
(0 -0.00300579 0)
(0 -0.00304658 0)
(0 -0.00303051 0)
(0 -0.00299135 0)
(0 -0.0030145 0)
(0 -0.0030487 0)
(0 -0.00303176 0)
(0 -0.00306131 0)
(0 -0.00304297 0)
(0 -0.00301185 0)
(0 -0.00302181 0)
(0 -0.00304976 0)
(0 -0.0030271 0)
(0 -0.00305176 0)
(0 -0.00302819 0)
(0 -0.00298936 0)
(0 -0.00305059 0)
(0 -0.0030264 0)
(0 -0.00300221 0)
(0 -0.00299998 0)
(0 -0.00302155 0)
(0 -0.00299492 0)
(0 -0.00297263 0)
(0 -0.00296691 0)
(0 -0.00298597 0)
(0 -0.00295676 0)
(0 -0.000634682 0)
(0 -0.000654914 0)
(0 -0.000615654 0)
(0 -0.000713424 0)
(0 -0.000675581 0)
(0 -0.000735533 0)
(0 -0.000697762 0)
(0 -0.00063935 0)
(0 -0.000661622 0)
(0 -0.000600824 0)
(0 -0.000629593 0)
(0 -0.000687791 0)
(0 -0.000655616 0)
(0 -0.000600893 0)
(0 -0.000624416 0)
(0 -0.000573019 0)
(0 -0.000594342 0)
(0 -0.000545598 0)
(0 -0.000568892 0)
(0 -0.000599023 0)
(0 -0.000539389 0)
(0 -0.000549638 0)
(0 -0.0026795 0)
(0 -0.00307203 0)
(0 -0.00112007 0)
(0 -0.00165785 0)
(0 -0.00115309 0)
(0 -0.0018822 0)
(0 -0.0029451 0)
(0 -0.000718901 0)
(0 -0.00107251 0)
(0 -0.00180329 0)
(0 -0.00109182 0)
(0 -0.00118709 0)
(0 -0.000995421 0)
(0 -0.00297322 0)
(0 -0.00294281 0)
(0 -0.00167932 0)
(0 -0.00165285 0)
(0 -0.00168726 0)
(0 -0.00165653 0)
(0 -0.00168715 0)
(0 -0.00165323 0)
(0 -0.00168171 0)
(0 -0.00164419 0)
(0 -0.00166925 0)
(0 -0.00162917 0)
(0 -0.00165195 0)
(0 -0.00160627 0)
(0 -0.00160901 0)
(0 -0.00163286 0)
(0 -0.00158605 0)
(0 -0.00161057 0)
(0 -0.00165959 0)
(0 -0.0016376 0)
(0 -0.00168819 0)
(0 -0.00166615 0)
(0 -0.00171703 0)
(0 -0.00169574 0)
(0 -0.00174697 0)
(0 -0.00172717 0)
(0 -0.00177804 0)
(0 -0.00175807 0)
(0 -0.0018097 0)
(0 -0.0017896 0)
(0 -0.0018422 0)
(0 -0.00182062 0)
(0 -0.00187417 0)
(0 -0.00185038 0)
(0 -0.00190544 0)
(0 -0.00188301 0)
(0 -0.00193816 0)
(0 -0.0019168 0)
(0 -0.00197235 0)
(0 -0.00195156 0)
(0 -0.0020077 0)
(0 -0.00198721 0)
(0 -0.00204374 0)
(0 -0.00202329 0)
(0 -0.00158534 0)
(0 -0.00167264 0)
(0 -0.00179024 0)
(0 -0.00208148 0)
(0 -0.00206072 0)
(0 -0.00189193 0)
(0 -0.00199128 0)
(0 -0.0020379 0)
(0 -0.00195574 0)
(0 -0.00211991 0)
(0 -0.00186432 0)
(0 -0.00197633 0)
(0 -0.00201561 0)
(0 -0.00213665 0)
(0 -0.00217656 0)
(0 -0.00195165 0)
(0 -0.00199115 0)
(0 -0.00205707 0)
(0 -0.00219003 0)
(0 -0.00223126 0)
(0 -0.00203296 0)
(0 -0.00210004 0)
(0 -0.00176692 0)
(0 -0.00188854 0)
(0 -0.00109759 0)
(0 -0.00162476 0)
(0 -0.00256365 0)
(0 -0.00196495 0)
(0 -0.00200719 0)
(0 -0.000522233 0)
(0 -0.000488819 0)
(0 -0.000498535 0)
(0 -0.000478529 0)
(0 -0.00115949 0)
(0 -0.000577702 0)
(0 -0.000559676 0)
(0 -0.00087307 0)
(0 -0.00200298 0)
(0 -0.00100298 0)
(0 -0.00171039 0)
(0 -0.000656114 0)
(0 -0.00295719 0)
(0 -0.00298781 0)
(0 -0.0029252 0)
(0 -0.00291117 0)
(0 -0.00197748 0)
(0 -0.00224039 0)
(0 -0.00220005 0)
(0 -0.0022826 0)
(0 -0.00227404 0)
(0 -0.00116214 0)
(0 -0.00125451 0)
(0 -0.00101651 0)
(0 -0.0028926 0)
(0 -0.0028783 0)
(0 -0.000951131 0)
(0 -0.000436891 0)
(0 -0.000446086 0)
(0 -0.00178432 0)
(0 -0.00191606 0)
(0 -0.0019375 0)
(0 -0.00105156 0)
(0 -0.000932356 0)
(0 -0.000955659 0)
(0 -0.000523742 0)
(0 -0.000509619 0)
(0 -0.000948196 0)
(0 -0.000926049 0)
(0 -0.00198123 0)
(0 -0.00232541 0)
(0 -0.00231716 0)
(0 -0.00224665 0)
(0 -0.00220643 0)
(0 -0.00241933 0)
(0 -0.00123192 0)
(0 -0.00132104 0)
(0 -0.00132993 0)
(0 -0.00129722 0)
(0 -0.0013452 0)
(0 -0.00131449 0)
(0 -0.00136346 0)
(0 -0.00133244 0)
(0 -0.00138297 0)
(0 -0.00135138 0)
(0 -0.00140397 0)
(0 -0.00137157 0)
(0 -0.00131704 0)
(0 -0.00133658 0)
(0 -0.00139285 0)
(0 -0.00135765 0)
(0 -0.00141465 0)
(0 -0.00137991 0)
(0 -0.0014379 0)
(0 -0.001403 0)
(0 -0.00146245 0)
(0 -0.00142689 0)
(0 -0.00148577 0)
(0 -0.00145229 0)
(0 -0.00151176 0)
(0 -0.00147913 0)
(0 -0.00153855 0)
(0 -0.00150619 0)
(0 -0.00156563 0)
(0 -0.0015342 0)
(0 -0.00159636 0)
(0 -0.00156364 0)
(0 -0.00293722 0)
(0 -0.0011745 0)
(0 -0.00121615 0)
(0 -0.000383518 0)
(0 -0.00039218 0)
(0 -0.00162866 0)
(0 -0.00159601 0)
(0 -0.000543208 0)
(0 -0.000494542 0)
(0 -0.00133796 0)
(0 -0.00140046 0)
(0 -0.00138498 0)
(0 -0.000977878 0)
(0 -0.000857908 0)
(0 -0.00152264 0)
(0 -0.00132003 0)
(0 -0.000477986 0)
(0 -0.00048855 0)
(0 -0.00285904 0)
(0 -0.00284501 0)
(0 -0.00286142 0)
(0 -0.00117225 0)
(0 -0.00126375 0)
(0 -0.00156467 0)
(0 -0.0021124 0)
(0 -0.000870489 0)
(0 -0.00163943 0)
(0 -0.000914259 0)
(0 -0.00224972 0)
(0 -0.00220915 0)
(0 -0.00189552 0)
(0 -0.00186709 0)
(0 -0.0018277 0)
(0 -0.00286956 0)
(0 -0.00153345 0)
(0 -0.00155934 0)
(0 -0.00162333 0)
(0 -0.00164344 0)
(0 -0.00158222 0)
(0 -0.00170277 0)
(0 -0.00166028 0)
(0 -0.00160154 0)
(0 -0.0016739 0)
(0 -0.00161666 0)
(0 -0.00123081 0)
(0 -0.00127265 0)
(0 -0.00118743 0)
(0 -0.00306836 0)
(0 -0.0030884 0)
(0 -0.00308237 0)
(0 -0.00310113 0)
(0 -0.0031066 0)
(0 -0.00309252 0)
(0 -0.00191338 0)
(0 -0.00198114 0)
(0 -0.00201957 0)
(0 -0.00208515 0)
(0 -0.00211878 0)
(0 -0.00218393 0)
(0 -0.00221053 0)
(0 -0.00214895 0)
(0 -0.00214595 0)
(0 -0.00223138 0)
(0 -0.00216772 0)
(0 -0.0022473 0)
(0 -0.0021855 0)
(0 -0.00225982 0)
(0 -0.00220001 0)
(0 -0.00212533 0)
(0 -0.00214147 0)
(0 -0.00206581 0)
(0 -0.00208311 0)
(0 -0.0021544 0)
(0 -0.00209724 0)
(0 -0.0020241 0)
(0 -0.00203992 0)
(0 -0.00196677 0)
(0 -0.00198265 0)
(0 -0.00191083 0)
(0 -0.0029095 0)
(0 -0.000977889 0)
(0 -0.0028125 0)
(0 -0.00106104 0)
(0 -0.00122391 0)
(0 -0.00171262 0)
(0 -0.0026485 0)
(0 -0.00173027 0)
(0 -0.00165725 0)
(0 -0.00172205 0)
(0 -0.0017871 0)
(0 -0.00184839 0)
(0 -0.00190766 0)
(0 -0.0019681 0)
(0 -0.00154819 0)
(0 -0.00113706 0)
(0 -0.00297486 0)
(0 -0.00200087 0)
(0 -0.00145493 0)
(0 -0.00231669 0)
(0 -0.00161969 0)
(0 -0.00167622 0)
(0 -0.00174576 0)
(0 -0.00105521 0)
(0 -0.00307633 0)
(0 -0.00212569 0)
(0 -0.000760109 0)
(0 -0.00079887 0)
(0 -0.000825436 0)
(0 -0.000864634 0)
(0 -0.00152413 0)
(0 -0.00157803 0)
(0 -0.00164577 0)
(0 -0.00294403 0)
(0 -0.00297835 0)
(0 -0.00297899 0)
(0 -0.00301117 0)
(0 -0.00300987 0)
(0 -0.00303931 0)
(0 -0.00304037 0)
(0 -0.00306573 0)
(0 -0.00306667 0)
(0 -0.00133465 0)
(0 -0.00140372 0)
(0 -0.00145006 0)
(0 -0.0015185 0)
(0 -0.000964952 0)
(0 -0.00268459 0)
(0 -0.00273209 0)
(0 -0.00272097 0)
(0 -0.00276721 0)
(0 -0.00275353 0)
(0 -0.00279767 0)
(0 -0.00244843 0)
(0 -0.00250003 0)
(0 -0.00248314 0)
(0 -0.00253327 0)
(0 -0.00251346 0)
(0 -0.00225113 0)
(0 -0.00230588 0)
(0 -0.00228353 0)
(0 -0.00233955 0)
(0 -0.00122757 0)
(0 -0.00129371 0)
(0 -0.00133456 0)
(0 -0.00139908 0)
(0 -0.00111304 0)
(0 -0.00122247 0)
(0 -0.000967529 0)
(0 -0.000645499 0)
(0 -0.000883073 0)
(0 -0.00117677 0)
(0 -0.00121239 0)
(0 -0.00127654 0)
(0 -0.00102754 0)
(0 -0.00105397 0)
(0 -0.00111476 0)
(0 -0.00113744 0)
(0 -0.0025472 0)
(0 -0.00051751 0)
(0 -0.000861413 0)
(0 -0.000918455 0)
(0 -0.000934766 0)
(0 -0.000992768 0)
(0 -0.00100573 0)
(0 -0.00106517 0)
(0 -0.00107531 0)
(0 -0.00101572 0)
(0 -0.00108155 0)
(0 -0.00102281 0)
(0 -0.00108509 0)
(0 -0.00102677 0)
(0 -0.000798149 0)
(0 -0.00154168 0)
(0 -0.000694176 0)
(0 -0.00128289 0)
(0 -0.00149762 0)
(0 -0.00137675 0)
(0 -0.00127774 0)
(0 -0.000727241 0)
(0 -0.000629111 0)
(0 -0.00157396 0)
(0 -0.00185735 0)
(0 -0.00163534 0)
(0 -0.00169813 0)
(0 -0.0016904 0)
(0 -0.00044374 0)
(0 -0.000406309 0)
(0 -0.000388442 0)
(0 -0.000350263 0)
(0 -0.000333573 0)
(0 -0.000366584 0)
(0 -0.000309698 0)
(0 -0.00032454 0)
(0 -0.0026857 0)
(0 -0.00161306 0)
(0 -0.00261599 0)
(0 -0.000501944 0)
(0 -0.00169527 0)
(0 -0.00063875 0)
(0 -0.000599714 0)
(0 -0.000545957 0)
(0 -0.000504053 0)
(0 -0.000370082 0)
(0 -0.00031645 0)
(0 -0.000351197 0)
(0 -0.000298944 0)
(0 -0.000331879 0)
(0 -0.000281212 0)
(0 -0.000312237 0)
(0 -0.000263272 0)
(0 -0.000292349 0)
(0 -0.000245217 0)
(0 -0.000272276 0)
(0 -0.000227114 0)
(0 -0.000252087 0)
(0 -0.000209014 0)
(0 -0.000231814 0)
(0 -0.000273939 0)
(0 -0.000251468 0)
(0 -0.000211559 0)
(0 -0.000228928 0)
(0 -0.000191357 0)
(0 -0.000206356 0)
(0 -0.000243048 0)
(0 -0.00021806 0)
(0 -0.000253975 0)
(0 -0.000226551 0)
(0 -0.00019313 0)
(0 -0.000199179 0)
(0 -0.000231796 0)
(0 -0.000168373 0)
(0 -0.000201993 0)
(0 -0.000233834 0)
(0 -0.000201584 0)
(0 -0.000232704 0)
(0 -0.000198003 0)
(0 -0.000228434 0)
(0 -0.000169491 0)
(0 -0.00026564 0)
(0 -0.000260685 0)
(0 -0.00022103 0)
(0 -0.000252596 0)
(0 -0.000210501 0)
(0 -0.00024144 0)
(0 -0.000286113 0)
(0 -0.000274396 0)
(0 -0.000227342 0)
(0 -0.000259966 0)
(0 -0.000266158 0)
(0 -0.000281265 0)
(0 -0.000300435 0)
(0 -0.000171233 0)
(0 -0.00133234 0)
(0 -0.000577257 0)
(0 -0.000374424 0)
(0 -0.000554554 0)
(0 -0.000507121 0)
(0 -0.000481525 0)
(0 -0.000436383 0)
(0 -0.000408117 0)
(0 -0.000365008 0)
(0 -0.00206716 0)
(0 -0.00207614 0)
(0 -0.00201693 0)
(0 -0.0020226 0)
(0 -0.00196287 0)
(0 -0.00208219 0)
(0 -0.00202562 0)
(0 -0.00208556 0)
(0 -0.00054871 0)
(0 -0.00105046 0)
(0 -0.00142852 0)
(0 -0.000738329 0)
(0 -0.000688559 0)
(0 -0.000629882 0)
(0 -0.000577161 0)
(0 -0.00115652 0)
(0 -0.000318483 0)
(0 -0.0023925 0)
(0 -0.000472609 0)
(0 -0.000819868 0)
(0 -0.000763549 0)
(0 -0.00183669 0)
(0 -0.000898837 0)
(0 -0.000836158 0)
(0 -0.000770596 0)
(0 -0.000705479 0)
(0 -0.00249421 0)
(0 -0.00249248 0)
(0 -0.00243783 0)
(0 -0.00243319 0)
(0 -0.00237712 0)
(0 -0.0021655 0)
(0 -0.000771485 0)
(0 -0.00266666 0)
(0 -0.0020315 0)
(0 -0.00277026 0)
(0 -0.0027593 0)
(0 -0.00271476 0)
(0 -0.00270108 0)
(0 -0.00265474 0)
(0 -0.00263852 0)
(0 -0.00268556 0)
(0 -0.0027078 0)
(0 -0.00273754 0)
(0 -0.000984635 0)
(0 -0.00091496 0)
(0 -0.000844112 0)
(0 -0.000771588 0)
(0 -0.00145824 0)
(0 -0.00295022 0)
(0 -0.00106279 0)
(0 -0.000991538 0)
(0 -0.00294809 0)
(0 -0.00293091 0)
(0 -0.0029011 0)
(0 -0.00288221 0)
(0 -0.00285057 0)
(0 -0.00282937 0)
(0 -0.00286058 0)
(0 -0.00225872 0)
(0 -0.00234574 0)
(0 -0.000457308 0)
(0 -0.000640419 0)
(0 -0.00071757 0)
(0 -0.00315895 0)
(0 -0.00114955 0)
(0 -0.00107087 0)
(0 -0.000996102 0)
(0 -0.000914075 0)
(0 -0.000839135 0)
(0 -0.0019573 0)
(0 -0.00297763 0)
(0 -0.00147215 0)
(0 -0.00064249 0)
(0 -0.00120786 0)
(0 -0.00112405 0)
(0 -0.00232206 0)
(0 -0.000694421 0)
(0 -0.000559026 0)
(0 -0.00315319 0)
(0 -0.00315496 0)
(0 -0.00300664 0)
(0 -0.00297451 0)
(0 -0.00205124 0)
(0 -0.00202666 0)
(0 -0.00209728 0)
(0 -0.00294779 0)
(0 -0.00291999 0)
(0 -0.00291971 0)
(0 -0.00289112 0)
(0 -0.00288791 0)
(0 -0.00138517 0)
(0 -0.00282806 0)
(0 -0.000701647 0)
(0 -0.000642089 0)
(0 -0.000557408 0)
(0 -0.00253119 0)
(0 -0.00238209 0)
(0 -0.00237723 0)
(0 -0.000892273 0)
(0 -0.000932101 0)
(0 -0.00233558 0)
(0 -0.00228729 0)
(0 -0.00224225 0)
(0 -0.00250959 0)
(0 -0.00269637 0)
(0 -0.00267165 0)
(0 -0.000163541 0)
(0 -0.000137735 0)
(0 -0.000832129 0)
(0 -0.000753021 0)
(0 -0.000705924 0)
(0 -0.00266899 0)
(0 -0.000916635 0)
(0 -0.000842556 0)
(0 -0.000767678 0)
(0 -0.00163071 0)
(0 -0.000921478 0)
(0 -0.000414432 0)
(0 -0.0003965 0)
(0 -0.00314685 0)
(0 -0.0031468 0)
(0 -0.00315422 0)
(0 -0.00120249 0)
(0 -0.00193918 0)
(0 -0.00105231 0)
(0 -0.000965797 0)
(0 -0.000893195 0)
(0 -0.00255857 0)
(0 -0.00233061 0)
(0 -0.000812611 0)
(0 -0.00144918 0)
(0 -0.00136428 0)
(0 -0.00274385 0)
(0 -0.00284203 0)
(0 -0.000804867 0)
(0 -0.000893581 0)
(0 -0.00147479 0)
(0 -0.00230282 0)
(0 -0.00177906 0)
(0 -0.00220182 0)
(0 -0.00210082 0)
(0 -0.00210314 0)
(0 -0.00035593 0)
(0 -0.000335148 0)
(0 -0.000297206 0)
(0 -0.00202487 0)
(0 -0.000452261 0)
(0 -0.000493744 0)
(0 -0.00141116 0)
(0 -0.00192526 0)
(0 -0.00205259 0)
(0 -0.0019895 0)
(0 -0.00108511 0)