/*--------------------------------*- C++ -*----------------------------------*\
| =========                 |                                                 |
| \\      /  F ield         | OpenFOAM: The Open Source CFD Toolbox           |
|  \\    /   O peration     | Version:  v2012                                 |
|   \\  /    A nd           | Website:  www.openfoam.com                      |
|    \\/     M anipulation  |                                                 |
\*---------------------------------------------------------------------------*/
FoamFile
{
    version     2.0;
    format      ascii;
    class       surfaceScalarField;
    location    "850";
    object      meshPhi;
}
// * * * * * * * * * * * * * * * * * * * * * * * * * * * * * * * * * * * * * //

dimensions      [0 3 -1 0 0 0 0];
oriented        oriented;


internalField   nonuniform List<scalar> 
14885
(
0.000730502
0.00208703
-0.00284618
0.0241458
-0.0129426
-0.0112135
0.00196116
-0.0186782
0.0166364
0.00861826
-0.0123779
0.0029806
-0.000382695
0.00328079
-0.00361454
-0.0215228
0.00467359
0.0168055
-0.00325423
-0.0125978
0.0158179
0.00492486
-0.0057972
0.000881257
0.00344999
-0.0023591
-0.0012198
0.0204941
-0.00805784
-0.0124714
-0.00107611
-0.00462641
0.00566348
0.0117368
0.0123913
0.00236152
-0.0151699
0.0127798
-0.0035146
0.00860168
-0.00524749
0.0193548
-0.00603006
-0.0135229
-0.00862233
0.00493807
0.0165489
-0.0153245
-0.00128618
0.00437522
-0.00549008
0.0167601
-0.00353201
-0.0132588
0.0246979
-0.00663483
-0.0181902
0.0147403
-0.012407
-0.00216656
0.00286932
0.011175
-0.00328596
-0.00100412
0.00996241
-0.00895154
-0.017679
0.00385117
0.0133006
0.000129366
-3.18739e-05
-0.000150007
0.017764
0.00269222
0.00204021
-0.00217842
1.82364e-05
-0.00297763
-0.0186062
0.00266773
0.00603486
-0.0086955
-0.00258516
0.00107885
0.000867714
0.0133599
-0.00214914
-0.0112127
0.00316528
-0.000905786
-0.00237409
0.00101242
0.00205381
0.00571295
-0.000784206
0.0057165
-0.00510442
-0.000607854
0.00356497
-0.000806274
-0.00395659
-0.00338204
0.000366212
0.00280545
-0.00198918
-0.00115126
-0.000165305
0.000169493
-6.70872e-06
-0.00877729
0.0114574
0.00242243
-0.0127642
0.0152917
-0.00254985
-0.0248591
0.0222844
0.00254629
-0.0140196
0.00205682
0.011367
-0.00527411
-0.0128049
-0.000923667
-6.10931e-05
0.000914875
0.0169526
0.0021304
0.00177397
-0.0147238
0.0129265
0.0155323
-0.0163352
0.000783924
-0.0140379
0.0012428
-0.000239481
0.00638728
-0.00692696
0.0135318
0.00179759
0.0149255
-0.0198434
0.0184653
0.00135771
-0.0141123
0.0130773
0.00101962
0.00211759
0.0125835
0.00733455
-0.00237604
-0.00496712
0.0193801
-0.0170836
-0.00247991
-8.78411e-05
7.93569e-05
3.51854e-06
0.0166197
-0.014873
0.0198946
-0.0184795
-0.00143795
0.013636
0.00163506
0.00453129
-0.00526499
0.000732639
0.0129445
-0.00186414
-0.0111835
0.0220869
-0.00633651
-0.016033
0.0234387
-0.00802195
-0.0155344
0.00252521
-0.00317282
0.000627604
0.00025637
0.000537163
-0.000848613
0.00297562
-0.000469531
0.0137322
-0.0142679
0.000508093
-0.00159633
-0.0177232
0.0191533
-0.000816616
-0.00438412
0.00503392
0.00348483
0.015689
0.0171158
0.00465736
-0.000331104
-0.00594028
0.0129942
-0.00714731
-0.00101757
2.26913e-05
0.0064345
-0.0124688
0.0114371
-0.0149952
-0.0221171
-0.0027789
-0.00977514
0.000552635
-0.00186863
0.00038668
0.00642398
-0.000880853
-0.00632513
0.0241545
-0.00954657
-0.0146663
-0.016018
0.016605
-0.000612926
0.0172441
0.00608034
0.018315
-0.0164347
-0.0131365
0.0133373
-0.000524709
-0.00449327
-0.010171
0.0145326
0.0180798
-0.0122621
-0.00584543
0.0100076
-0.0162095
0.0138496
-0.000234638
0.00179762
-0.0178382
0.0118606
-0.00135133
-0.0106226
0.0160119
-0.0184725
0.00211867
0.00915855
-0.00895638
0.0165556
0.0116174
-0.0135948
0.00196433
-0.0181552
0.00202747
0.0159157
0.0132645
0.00478363
0.0178621
-0.019337
0.00145031
-0.00605548
-0.0150956
0.0209914
-0.0103061
0.01402
0.0164522
-0.00173037
-0.0147532
-0.0188545
0.0186454
1.04558e-06
0.00464211
-0.0124698
0.00781948
0.0208853
-0.00409087
0.0119535
-0.0152383
0.00172563
-0.020767
0.0190934
-0.0230059
0.00362934
-0.00422006
0.016147
0.0197347
-0.00191169
0.0053639
-0.000837332
0.0017118
0.0111137
0.000106422
0.000966954
-0.00114055
-0.00606953
0.0158007
-0.00982746
0.00186292
-0.00041113
-0.00211057
0.00185417
0.00545457
-0.00014969
0.00106597
-0.000978361
-9.36442e-05
-8.67272e-07
0.0224279
-0.0118074
-0.0106444
0.0158622
0.00655118
-0.00344336
-0.0111423
0.00680859
-0.0114048
-0.0128022
0.0137759
-0.00129608
-0.0146151
0.00161227
-0.00135711
-0.0185104
0.0116729
-0.010871
-0.000809928
-0.0164064
0.0102346
-0.00389075
0.00390219
-0.000201246
0.0194099
-0.0140324
-0.00570488
-0.00154165
0.0135746
-0.0122888
-0.0128764
0.0212465
-0.00869313
0.00979254
-0.0140348
0.00101602
-0.0140631
0.0130185
0.0221719
-0.00524577
-0.0170508
0.00776951
0.00929895
0.0200422
-0.0179278
-0.00219266
0.0144933
-0.00290679
0.00170777
-0.0142435
0.0125074
0.00102938
-0.000121589
-0.0010588
0.0152166
-0.0105865
7.382e-05
0.00183016
-0.0125532
0.0190427
-0.00655335
-0.000632556
-0.00294103
0.0103576
0.0137419
0.000986587
-0.00080206
0.0204404
-0.000669775
-0.0198967
-0.00368027
0.0137223
-0.010049
0.0150938
0.00546754
0.000877486
-0.000907243
-0.00015094
-0.0192335
0.0161846
0.00297756
0.0133569
-0.0146021
0.00122568
0.00151192
0.0102236
0.00425773
-0.0168835
0.0108026
0.000857242
-0.0112239
-0.00290171
-0.0132099
0.0114287
1.8362e-05
7.38363e-05
-0.00361628
0.00151435
0.001256
-0.00015632
-8.16688e-06
0.0139944
-0.0130066
0.000360513
0.00196989
-0.0182722
0.0162057
0.0146304
-0.0183199
0.00487824
-0.00588835
-0.0139686
0.00366405
0.000497031
0.00523762
-0.00270198
0.00113505
0.00149725
0.011394
-0.00146516
-0.0100475
-0.00575506
0.0117948
-0.0168936
-0.00372839
0.0206091
-0.00178192
-0.0140857
0.015847
-0.0205114
0.00360293
-0.00481038
-0.00781419
0.0122233
-0.00404552
0.00318252
0.00531884
0.0137496
-0.000485934
0.000975729
0.0177343
0.00222556
0.0201128
-0.00816438
-0.0119775
-0.0148641
7.8836e-05
-0.000909989
0.000761873
0.000198876
-6.04528e-05
-0.00013919
0.0093371
0.00478428
-0.0141319
0.0158958
-0.0176433
2.84653e-05
-7.54435e-05
4.17059e-05
0.0129113
-0.000522679
-0.0123963
0.00216662
-0.00216067
-0.000429883
0.00366918
-0.0130615
0.015139
-0.00401918
-4.5276e-05
0.00441544
0.0156601
-0.0189528
0.0199421
-0.00101231
0.0169071
-0.00704535
0.00639553
-0.0112229
0.00482011
0.0111805
-0.00137834
-0.00988959
-0.00956706
0.00892086
0.000643687
0.00578914
-2.25685e-05
0.00996258
-0.011586
0.00161924
-0.0142919
0.0139491
0.000317863
-0.0193758
0.00337343
0.0159498
-0.000706151
0.000647021
-4.12895e-05
-0.0115774
-0.00202482
0.00110007
0.0122062
-0.000716046
-0.00839324
0.0091003
0.0144084
-0.00108015
0.0186464
0.000129933
-0.016264
0.00314594
-0.000605497
-0.000885025
8.54546e-05
-0.0175857
-0.00185222
-0.0196745
0.0183619
0.00125121
0.00153665
-0.00453644
0.00182996
-0.00231859
-0.000644032
0.00294331
-3.95427e-05
0.000479387
-0.000527019
-0.00309837
0.0196969
-0.0166273
0.00446588
-0.000162719
-0.00519665
-0.000918414
-0.00993651
-0.000764044
0.0106901
0.00129201
0.00998411
-0.0106949
0.000750153
0.0006426
-0.00628952
-0.00660382
-0.000465919
-0.00178468
-0.0177223
0.0193155
0.00637645
0.0156804
0.00262079
-0.0197756
0.017117
0.00933548
-0.0155134
-0.00070257
-0.00354988
-0.00912552
-0.00570327
0.0146392
-0.00531312
0.000186927
0.0011005
0.00740633
-0.0126076
-0.00527903
0.024188
-0.00840839
-0.0159142
0.00972194
-0.000569867
0.0167869
0.00219839
0.00908564
0.000874153
-0.00170745
0.0182753
-0.016618
0.0116365
-0.00144996
-0.0101841
-9.99853e-05
2.54238e-06
-0.000139888
-2.48728e-05
0.0168117
0.0010755
-0.0179101
0.00296646
-0.00406418
0.00166347
0.00997007
0.0179266
-0.00121416
-0.0107315
-0.00855371
0.00275532
-8.02533e-05
-0.00160759
0.0180249
-0.00399256
-0.000179538
0.0215292
-0.0103447
-0.0112422
0.00531777
0.0106086
-0.0159615
0.0181402
0.00214485
0.00663037
0.017415
0.000227153
0.00156151
0.0218421
-0.0175897
-0.00440403
-0.00532519
-0.00363519
0.000206497
-0.00643057
0.00537815
0.00255202
-0.0128378
-0.000267047
-0.00362297
0.00369882
-0.00647991
0.00551833
0.00100156
-0.00113413
-0.000784413
-0.0161487
0.0214202
-0.0104937
0.0129277
0.00915587
0.0123156
6.83398e-05
0.000386256
-0.00113451
0.00289401
-0.0122474
-0.002838
0.0133477
-0.0109664
0.0144806
0.00102763
-0.0096301
0.0094045
5.25766e-05
-0.013561
-0.00072262
0.00476227
0.0169036
0.00691993
-0.00186171
-0.00509901
0.0185226
-0.00606455
-0.0125492
0.0128466
-0.00155726
-0.0117597
-0.00103105
0.000455382
-0.00193271
-0.0013626
-0.000904003
0.00133692
-0.0126188
0.0112756
0.0103855
-0.00399815
0.00234808
0.0160745
-0.00246306
0.000616076
0.000615146
0.00967966
0.00026764
-0.00994593
0.00611085
0.0108666
-0.0170479
0.00156983
0.000132541
-0.00176756
0.000325116
-0.00255753
0.00221622
4.23696e-05
0.000667649
0.0151341
-0.0131759
-0.00200283
-0.000761413
0.0143097
-0.0136486
0.000709928
-0.00248712
0.000538501
0.00852681
-0.0122598
0.00374378
-0.0124568
0.00410179
-0.00800188
0.00374448
-0.019193
-0.00109153
0.0202505
0.0249023
-0.0186617
0.0101809
-0.0134518
0.000475831
-0.000602193
-0.00182034
-0.0163535
4.00955e-05
-1.56596e-05
-0.0175957
0.0158403
-0.00827264
0.014316
0.00795573
0.01192
0.00991888
-0.0108797
0.00076926
3.02728e-06
-0.000146606
-0.0183871
-0.000832195
0.0121252
-0.00359243
0.00239072
0.000111136
-0.00741441
-0.010864
0.0179375
-0.00260157
0.0182318
-0.00316849
0.00713563
0.013098
-0.0139576
0.00244876
-0.00213985
8.59585e-05
0.00086497
0.0001298
7.10007e-05
-0.0101342
0.000848302
0.00928953
-0.00094101
0.000982221
-0.000246467
-0.000130331
0.000248197
-0.0134564
-0.000121364
0.00180512
0.00507132
0.00372822
-0.000451293
-0.00329359
0.000304763
-0.000269807
-3.44442e-05
-0.00170575
0.00210386
-0.00975923
0.001032
0.00863976
0.0175186
-0.012503
0.0163594
0.00199021
0.0130954
-0.0120099
0.0128431
-0.017675
0.0182991
-0.000980136
-0.00111419
0.00317541
-0.000738065
0.000951812
-0.000450835
0.00891386
-0.00964001
-0.000408144
-0.00216421
0.0166115
-0.0109573
-0.00566307
0.00315986
0.000548548
-0.00387849
-0.00024259
-0.00214288
0.0167689
0.0135911
-0.0119111
-0.00193683
0.0153197
-0.0134238
-9.7125e-05
-1.06668e-05
-0.0107629
0.00116219
0.00949181
0.00193935
-0.00165648
-0.0011794
-0.00413739
0.00322211
-0.00908737
0.0095046
-0.000634134
0.00224791
-0.00530975
0.00228785
0.00194983
-0.0169007
0.0148234
0.00144323
0.0146028
-0.016181
0.011084
-0.0125509
0.0158315
-0.0140009
-0.00226255
0.00278684
-0.00057133
7.89139e-05
-0.0185829
-0.00119007
-0.00866475
-0.0198001
0.0178254
-0.000282587
-0.00131941
-0.00997452
0.0112892
-0.000293573
7.31029e-05
7.31545e-05
0.019557
-0.00118326
-0.00456427
0.00266309
0.0174223
-0.0155463
0.0110327
-0.00143108
-0.00960308
0.0127965
-0.0149419
-0.00063262
-0.0035604
0.00490096
-0.00208463
-0.00159782
0.0156681
-0.0142209
0.0140847
0.0195393
-0.0173437
-0.0022237
-3.29226e-06
0.000543812
0.00042734
0.000114336
8.50191e-06
-8.50191e-06
0.0118366
0.00474749
-0.010728
0.0101261
0.000423599
-0.00692704
0.00502448
-0.00225431
0.0183975
-0.0161885
-0.00157677
0.0180898
-0.016531
0.0162539
-0.0044359
-0.0191222
0.0179097
0.000872044
0.0158763
-0.0181758
0.0197243
-0.0171425
0.0142554
0.00295861
0.0152368
-0.00573298
-0.00951077
-0.00114997
-0.00212937
0.000891291
0.000107407
0.0147596
-0.0126139
-0.0023353
0.00152564
-2.35612e-05
0.0226142
-0.0180343
-0.0111412
0.0111362
-2.16354e-06
0.0162399
-0.0149329
-0.00104223
0.00942256
-0.00846225
-0.00242327
0.0151953
0.0214377
-0.0108679
-0.0136359
0.000790403
0.0121815
0.00087093
0.00484388
-0.00139218
-0.00189233
0.00787434
-0.0100253
0.00637519
-0.000735759
0.00993247
-0.0105956
0.000663403
-0.0013242
0.00124367
6.29101e-05
0.0185197
-0.00255678
-0.0086683
0.0112171
0.00051491
-0.00282763
0.000941852
0.0126246
0.00275166
0.00038579
-0.00319435
0.00192688
0.0162901
0.00467928
0.0177289
0.0198857
-0.00953647
-0.0103877
-0.0079765
0.0154157
-0.00749829
0.0105636
-0.0120155
0.00106802
0.0150191
0.00501879
-0.000674536
-0.00435545
0.0194087
-0.00238806
-0.0171745
0.00423609
-0.0176905
0.0133867
0.0181596
4.67219e-05
0.00113172
-0.00125355
0.00703949
0.0122438
0.000933983
-0.000988887
-0.00013785
0.011025
-0.0134655
-0.000820643
-0.00349958
-0.000738011
0.000750641
-0.000327052
0.0132008
0.00509674
-0.0184373
0.0198568
-0.00154482
-0.0183737
0.00861135
0.0112406
0.0045731
-0.00508188
-0.0150394
-0.00413209
0.0171898
-0.000569125
-0.000516017
0.00797177
-0.0160095
-0.00198571
-0.00309986
-0.000307173
0.00300337
0.00165636
0.0156569
0.0135276
0.00071805
-0.0142513
-0.00509675
-0.000183125
-0.000130629
0.000206458
0.0117573
0.00130775
-0.00174819
0.00161255
1.78286e-05
-0.0040344
0.0170307
0.00126888
0.0169024
-0.0182647
-0.000549451
0.00039136
0.000151416
-4.86647e-06
-0.00014563
0.00107637
0.0039207
0.000637205
0.0133248
-0.0043912
-0.000116039
0.000805071
-0.000748591
0.00652624
-0.00476588
0.0144746
-0.0186584
0.00415423
-0.00447152
0.0189129
0.0110938
0.00413953
0.00529389
0.00533808
-0.00936346
4.89445e-05
0.0126759
-0.0119214
0.000774569
-9.51946e-05
1.37727e-05
-0.000154383
0.000141552
-0.00107316
-0.0014539
0.0151664
-0.00824498
-0.00748454
-0.00546917
0.00534736
8.87814e-06
-0.000280345
-0.00529677
0.0020144
0.0125752
-0.000570622
-0.00258976
0.0166543
-0.0164082
0.00900209
-0.0131192
0.0102801
-0.0118653
0.0142397
-0.0136354
-0.00241471
0.00211662
0.000235438
-0.0107947
8.41314e-05
0.010709
0.014634
-0.00110933
0.0140791
-0.00229774
-0.0117906
0.00036157
-0.00129474
0.0137501
-0.0123093
0.000140003
-0.000501082
0.00620523
0.0151978
-0.00174867
0.0142952
-0.0129473
0.0105651
0.000544529
0.0164365
-0.015524
0.012542
0.0019368
0.000903804
-9.23602e-06
0.0142458
-0.0158836
8.4662e-05
-7.00592e-05
0.00165509
0.00482617
0.0024243
-0.0136372
0.011179
0.000147245
-0.000434407
0.00379387
-0.00403523
-0.000246858
0.0134721
0.0145155
0.00621848
-0.0207613
0.0032014
-0.00365142
-0.011531
0.010505
0.000922343
0.0189
-0.0016921
-0.0172927
-0.0127929
0.0137093
0.00202017
0.000724008
-0.00107318
-0.0105937
-0.00167148
0.0126344
0.00179786
-0.0144538
-0.0177358
0.0176616
-0.000210254
-0.00115858
0.00182611
0.0118914
-0.00706002
0.0215493
-0.0116595
-0.00668741
0.0183161
0.00098927
-0.0151897
0.0141241
-0.00169006
-0.00101027
0.00220554
-0.000112404
1.09775e-05
9.93988e-05
-0.0194308
0.00221669
0.0171588
-0.0188702
0.016649
0.00215232
-0.0189434
0.0180364
0.000826253
0.000848151
-0.00926451
0.00253613
-0.000568249
-0.0103753
0.00769994
0.0019939
0.017908
0.000560747
-0.018653
0.000193945
-0.0107998
-0.0030193
-0.00918323
0.0116621
0.0177457
0.00598115
0.00856861
-0.0172574
0.0176509
-0.000685052
-0.00244397
0.0022389
0.000139942
-0.0133094
0.0174799
-0.0128663
0.0137875
0.0229178
-0.0137182
-0.0157517
0.0172986
0.0239504
-0.0125103
-0.0114625
0.00966861
-0.0111327
-0.0192405
0.00328262
0.0159105
0.00456781
0.0181543
-0.0184004
0.00132086
0.0168195
-9.7961e-05
-1.41209e-05
0.0155379
-0.00292353
-0.0183274
-0.00112277
-0.000911108
-0.00100082
0.00186038
0.00256604
0.0162298
-0.00983208
-0.00889724
-0.0177426
0.00134493
0.0160635
-0.0186672
0.000576813
0.0180403
0.00290869
0.0183285
-0.00154122
0.00198605
-0.00617262
-0.00205277
0.00451393
-0.000509439
-0.00404351
-0.00076417
0.00923536
-0.0128224
-0.0141898
0.0151585
-0.000983092
0.00445764
-0.000944245
0.00451089
-0.00451761
-0.00015154
0.0108225
0.0130837
-0.000104433
3.18493e-06
-0.00187007
-0.0162236
0.0180804
-0.0170933
0.00540597
-0.00334575
0.00122656
0.00200213
-0.00901043
0.008633
0.000285609
0.00824399
0.00836089
-0.020602
0.0026474
0.0179016
0.0116646
-0.000571744
-0.000570385
0.000921656
0.000887217
-0.00184858
-0.000737012
-6.29342e-05
0.00073403
-0.00158705
-9.348e-06
0.00156141
-0.00601216
0.00104719
0.00493097
0.0194578
-0.0200943
0.00221339
0.0178506
-0.0172659
0.0178051
-0.000876426
-5.78312e-05
2.29774e-05
2.78334e-05
0.0158982
-0.0147279
-0.00118937
0.0139753
-0.0157366
-0.00440122
-0.000189595
-0.000218186
-0.0050581
0.00414923
0.000418551
0.00166157
0.0142151
0.0102886
0.000745776
0.000617614
0.00384297
-0.00820259
0.00902844
0.0150069
-0.00705936
-0.00839907
0.00187922
-0.0156681
0.0137727
-0.00285451
0.00113383
0.00166865
-0.00131924
-0.00213563
0.0125518
-0.0215803
-0.0154108
0.00425
-0.0187252
0.0192852
-0.000859009
-0.0011627
0.00167804
-0.000906649
-0.000914654
-0.0162202
-0.000698034
0.0167461
0.0162742
-0.0178849
0.00159232
-0.0122626
0.00112542
0.0106142
0.00428446
-0.000444624
-0.00389712
0.00106696
-0.00103336
-0.016643
-0.00263938
-0.020725
-0.00147379
0.00257892
0.00145406
0.01091
0.000242499
0.010845
0.000999922
-0.00102284
-0.0175997
0.0160042
-0.00263619
-0.00329264
0.000289107
0.00255569
-0.00309312
0.0032512
-0.00382669
0.00158806
0.00132796
0.000159323
0.00421322
-0.00981485
0.008492
0.000152999
0.000848478
-0.0112448
0.000261045
0.0107354
-0.00972704
-0.00115738
-0.0165466
2.7237e-06
2.44647e-06
-0.00313716
-0.00093928
0.00124938
-0.000645906
0.0191961
-0.0178935
-0.00135435
-0.00345199
-0.0107569
-0.010281
0.0145323
-0.00459627
0.000862336
-0.00113713
-0.0147453
0.00413855
-0.00108486
0.00700218
-0.0151464
0.00070901
0.00351597
-0.00160866
-0.00130282
-0.00788692
0.0201138
0.00215365
0.00321048
0.0102279
-0.0134713
0.0214853
-0.0170057
0.00173029
0.00352913
-0.00446375
-0.00188106
0.0194779
-0.0176517
-0.00323365
-0.00104153
-0.0105261
0.017401
-0.00694527
0.0150069
-0.0118312
0.00248297
-0.00897737
0.0106399
0.00694065
0.00761048
0.000122347
-0.0181374
0.00645814
-0.0111721
0.00469413
0.0171695
0.00195174
-0.00855739
0.00950149
0.00445483
-0.0107046
0.00624025
-0.0163465
0.0155074
0.000655839
-0.0108403
0.0101208
0.0007102
0.000685056
-0.0116526
0.0105898
-0.0196403
0.0181382
0.00118924
-0.000209324
-0.00226665
-0.000244724
0.00325166
-0.0036934
0.010932
-0.00448914
0.016495
-0.014237
-0.000193822
0.000111127
0.011583
-0.000449765
0.0155979
-0.0176631
0.0017462
0.0177434
-0.0196784
3.84695e-05
0.00012441
0.000929726
0.0156301
-0.000361897
-0.00288827
0.00081532
0.00976557
-0.0136343
0.00136172
0.0120612
0.00920893
0.00848391
-0.00172595
0.0179778
-9.77903e-05
-0.0174457
-3.67233e-05
-2.87401e-05
-0.000410121
0.000963288
0.000749645
-0.0132601
0.012137
-0.00946711
0.000663003
0.00837294
-0.0149182
0.0154141
-0.000538664
-0.000946298
-0.0177595
0.0192207
0.000873958
0.0172686
-0.000604996
0.00169791
0.0113651
-0.0128772
0.0123489
0.00013675
-0.000550991
-0.0174809
-0.00038737
-0.0140066
0.000502644
-0.000103078
0.00917894
-0.00967712
0.000203575
0.00160347
-0.0105865
-0.0066046
-0.00974265
-0.000227065
2.14299e-05
0.00020219
0.00295689
-0.0208536
0.00013158
0.000670966
-0.00196492
0.0104293
-0.0054654
-0.00497191
-0.0123253
-0.0154068
-0.00161109
0.00820366
-0.0177982
1.86709e-06
-0.00013916
0.000134534
-0.00843417
0.0163653
-0.00897336
0.0105723
0.0113283
-0.0110347
-0.000760899
0.00112437
-0.000648871
-0.00147654
-0.0123691
0.00511527
-0.00106244
-0.00406678
0.000688358
0.0102936
-0.0147151
0.00195614
0.00676937
0.00724328
-0.0142299
-0.000102544
-8.9682e-06
-0.00887937
0.0099356
0.0012073
-0.0147996
0.0134012
0.00103579
-0.0110121
-0.00798737
-0.00324543
0.00147001
-0.00165256
0.000120436
-0.0110576
0.0125447
-0.000705445
0.000668786
-1.78931e-05
2.0859e-05
0.000137075
-0.00354366
0.00384808
-0.0134226
0.0145918
0.000924244
0.0120497
-0.0125797
-0.0138573
0.00204143
0.0115397
0.0092383
-0.00374416
-0.00566077
0.00090903
-0.00249536
-0.00379182
-0.00714138
0.00230266
0.0156515
-9.82822e-05
1.99059e-06
9.52969e-05
-0.0140507
0.0119212
0.0169094
-0.0161013
-0.000955166
-0.00968139
0.0160186
-0.00180151
0.0160474
-0.00544991
-0.0106284
-0.0134126
0.0114675
0.00127878
-0.0015876
0.000354321
-0.000244434
-0.000112022
-0.00205745
-0.000485824
0.00171
0.000420073
-0.0114672
0.0100882
0.000904663
-0.0109196
0.000148501
0.0105786
-0.00126426
-7.96501e-05
0.00073282
3.40047e-05
0.000812087
-0.00903656
0.0124345
-0.00584331
0.00381459
0.0174574
-9.12142e-05
-0.00241811
0.0182406
0.00556814
0.00352335
0.00442815
0.0188513
-0.00115779
-0.0177339
-0.0124382
-0.0116771
-0.00767498
0.00428686
6.87581e-05
-3.80937e-05
-0.0058176
0.00129549
0.0126812
-0.00823783
-0.000420366
0.0162903
0.00174327
-0.0180379
0.00867951
0.000663622
-0.00899809
0.0153477
-0.0101647
0.0154671
0.00153445
0.000651816
-0.00627801
0.0160496
-0.00996997
-0.0125812
0.0192835
-0.00676685
-0.00118367
0.00129766
-0.000130226
0.00354905
-0.00292192
-0.000645566
-0.0153126
0.000556859
0.0147176
-0.000105597
-1.07317e-07
-0.00146402
5.37085e-05
0.00138114
0.000558937
-0.00329405
-0.0162946
0.0174729
-0.000543075
-0.000427437
0.0178405
-0.0140403
-0.0161001
0.0146529
0.00129931
0.000909577
0.00592267
-0.0165049
-0.0138459
0.000946921
0.0125492
0.00145835
0.0112011
-0.00234684
-0.0165904
0.000915256
-0.00197091
0.00449232
-0.00343551
1.40761e-05
0.00201732
-0.00205729
-0.000201133
-0.0112193
0.0111487
0.0139476
-0.00117691
-0.0129462
0.00244138
0.0172346
-7.31995e-05
-0.0110031
-0.0193285
0.000531082
0.0222422
-0.0125266
0.0197663
-0.00206003
-0.0177302
0.00129484
0.0124632
0.018747
-0.00217251
-0.000614928
0.000657458
-4.61824e-05
7.96775e-05
-0.0163129
0.00280752
0.0159908
-0.00179526
-0.00224938
-0.0110551
0.000194796
0.0106346
0.014198
0.00154296
-0.0158931
0.00401557
-0.00791443
0.00261853
-0.00587225
0.00228209
0.0174326
-0.000503889
-0.0170024
-0.0209196
0.0142058
-0.00240333
0.00135571
0.0177025
-0.00256306
-0.0153537
-4.69615e-05
4.27733e-05
0.00141186
8.21327e-05
-0.0120792
0.0104517
-0.0119474
0.000935047
-0.000912699
-0.000214778
-1.19898e-05
0.00342248
-0.00317716
-0.000296691
0.0209802
-0.00367227
-0.0174466
0.00237005
-0.00205258
-0.000345877
-4.69615e-05
-0.0157824
-0.00616261
0.000678896
0.00544843
0.0183049
-0.00203115
0.000455702
0.00844224
0.0119122
-0.000129471
-0.0120518
5.1067e-05
0.00503208
-0.0179494
0.000210614
-0.000211373
0.0183589
0.000428939
0.00288723
0.00218848
0.0176039
-0.0198327
0.00291342
0.000561592
0.0110157
-0.0152685
0.0138979
0.00120347
0.0158067
0.0135741
0.000630804
0.0126187
0.00186692
-0.00187789
-9.50009e-05
-2.56507e-06
2.97554e-05
-0.00152293
-0.0148955
0.0144516
0.000424061
0.00196244
-0.0195334
0.0175126
0.0155711
-0.0110321
0.000233854
-0.00379279
0.0125157
-0.00877589
0.000754615
0.00372254
-0.00803936
0.0088291
-0.0104474
-0.000638829
0.0130368
-0.00631501
0.0166783
-0.0185623
0.0201333
-0.00257215
-0.0176665
0.00214988
0.00475974
-0.0174002
0.009765
-0.00949594
0.00323872
-0.0104066
0.0172743
0.00206068
0.000281965
-6.8864e-06
-0.00253759
0.00182262
-0.0213498
0.0113965
0.00986447
5.81388e-05
-0.00011834
5.1418e-05
-0.0198432
-0.0113555
-0.0018815
0.0127325
-0.001643
0.018485
-0.0168575
-0.0174117
0.0114983
-0.000104674
-9.15272e-06
-0.0138342
-0.000918705
-0.0168825
0.015274
0.00129989
-0.016615
0.0139941
0.0025852
-0.000832727
0.00068557
0.00284395
-7.94851e-05
-5.70161e-05
0.000108317
0.00140961
-0.0172642
-0.0165375
-0.0019136
0.0182151
0.000808074
-0.0130597
-0.000913521
0.0161879
0.00120347
-0.000644001
-0.00920755
-0.000573914
0.0144565
-0.013888
-0.012855
0.0160839
-0.0178556
-0.0103672
-0.000897942
-0.00879942
0.00799848
0.000403465
-0.0104769
0.0119149
-0.000241892
2.4173e-05
-0.00121712
-0.00212383
-0.0158827
-8.40476e-05
0.000986127
0.0125281
-0.0119638
0.001146
-0.00376235
-0.000944504
0.0197205
-0.00231322
-0.0174512
-0.0124901
0.00171113
0.0180234
5.19327e-05
-0.000719948
0.000539813
-0.00206845
-0.00876828
0.000569788
-4.85966e-05
-0.000569704
-0.00248347
-0.00292154
0.0199333
-0.0182555
-0.00607089
0.0045012
-0.0138441
0.0197437
-0.00594046
0.0151723
0.017913
0.000509765
-0.0184684
-0.00205188
0.0152883
0.0173582
0.00231242
-0.000410121
-0.020268
0.00735694
0.000954172
0.00885072
-0.00150355
-0.0112933
0.0180882
-0.0159243
0.0116025
-0.0105685
0.0140889
-0.0146681
0.0195001
-0.00972673
-0.000120614
-3.80849e-05
0.000115301
0.00711923
-0.005219
-0.00201512
-8.60752e-06
-0.000607284
-0.0201841
1.76369e-05
0.0018207
-0.010476
0.00983284
0.00060836
-0.012595
0.0143112
5.68519e-05
-0.000859567
-0.0128968
0.00134603
0.011542
0.00285442
0.0112216
0.000173585
0.000180381
0.000848623
0.000577818
4.42274e-05
-1.26933e-05
-0.000148702
-0.000693556
-0.0158258
-0.0159464
0.000585615
0.0151267
-0.000303257
-0.0148437
0.00259112
2.44763e-05
-0.00268111
0.0144554
-0.013076
-0.00140234
-0.000730615
0.0130852
-0.0123825
0.0119569
-0.0184521
-0.00171686
0.00212756
-0.00143585
-0.000317984
-0.0112085
0.0115237
0.0182957
-0.00202092
-0.0164009
-0.0105322
0.000549108
0.00993871
-2.16053e-05
0.00163731
-0.00164666
0.000630512
-0.00208325
-0.0147966
0.0166952
0.000481984
0.00288116
0.019646
0.0184228
0.00159942
0.0117104
0.00559555
0.000348642
-0.00595952
-0.0200028
0.00336397
-0.0173545
0.0195385
0.00696164
0.0113707
0.000676347
0.0109253
-0.011246
0.0112463
0.00139134
-0.0126456
-0.000694518
0.00846552
-0.00778471
0.00147075
0.0108788
-0.0123573
0.0176924
0.00168457
0.0118937
-0.0137996
-0.00241406
-0.0173297
0.0197169
0.0184387
-0.0107581
0.017662
0.00171451
0.01272
-0.00522643
0.0105783
-0.00535935
-0.000421278
-0.0108378
0.00208616
0.0161474
-0.0150231
0.0041237
0.0114991
0.00015197
-0.00042357
-0.00165291
-0.0110425
0.010572
-0.0133772
-0.00900601
0.00932153
-2.68849e-05
0.00923267
0.00125454
0.0057494
-0.0162621
-0.0145296
0.00108249
0.0134233
0.00565416
-9.09885e-05
-0.00558005
-0.00250005
0.00175583
0.0197877
-0.0161728
-0.0197957
0.0178581
-0.0157062
-0.00128463
0.00194285
0.00222702
-0.0177637
0.0154788
-0.0105975
0.0099624
0.00060841
-0.0127368
0.000876704
0.0115394
-0.000413465
0.00266241
-0.00234167
0.0016017
-0.014697
0.0177726
0.00165968
-0.000231084
-0.0118554
-0.0132052
0.014223
0.0134513
-0.0119895
2.20533e-05
4.67971e-05
0.00716609
-0.0032905
0.00141091
-0.0165162
0.00617193
0.0103291
-0.0165713
0.0176389
0.0200044
-0.00270542
-0.00229428
0.00024907
0.00200595
-0.00204424
-0.0106881
-0.0107414
0.00418039
-0.00994446
0.000464382
0.0153507
-0.0187404
0.0180373
0.000551135
-0.0142708
0.00084503
0.013391
0.00219586
0.000234522
-0.000762097
0.000818214
-6.17758e-05
0.0169065
-0.000483281
-0.0123663
-0.000679302
0.00501628
-0.000883975
-0.00416564
-0.0165548
0.0190134
-0.00156346
0.00107886
-0.0158457
0.0146989
0.0107051
-0.000825453
0.0195111
-0.00120277
0.00425371
0.0152702
-0.000271284
0.00235384
-0.00212094
0.0165107
0.00131055
-0.017951
-0.0136788
-0.000873449
0.0024224
-0.000248818
0.00127234
0.00799248
-0.00559257
0.00548857
-8.21116e-05
-0.00970889
-0.00490349
0.000106082
-5.68393e-05
-0.00802852
0.000133828
0.00764592
0.010045
-0.00061036
-0.00947303
-0.0123548
0.0134579
0.0164314
0.00304188
1.62162e-05
-0.00317152
0.000206492
-0.00597259
0.00279979
-0.00208447
-0.000776893
0.00235361
0.0175683
-0.0145584
-0.00174673
0.00169441
0.0136452
0.000977632
-0.00783316
-0.0186852
0.00194842
0.00149261
0.0169738
0.0124378
0.0178122
0.00157776
-0.00137321
0.00179414
-0.00121373
0.0046538
-0.0185391
0.00475868
-0.00581314
0.00101892
-0.0137655
-0.013271
0.0120516
0.00121031
-0.0182305
0.0114997
0.0178401
-0.00998689
0.000164124
0.0149763
0.00183909
-7.19053e-06
-0.00110314
-0.000879575
-0.0110349
-0.0019261
-0.0194137
0.022251
-0.0141031
-0.00253721
-0.000346088
0.00288219
-0.00874661
-0.000293201
0.00223586
-0.00193876
-0.0196467
0.00185329
0.0177309
-0.000798708
0.00552091
0.00189742
0.000620676
0.0093812
0.00228436
6.93579e-05
-0.00243665
-0.0108926
0.0160673
0.00140092
0.000141612
0.00238247
-0.00311961
-0.0176183
0.0155511
0.00192661
-0.000793362
0.0113406
0.000363477
-0.00289932
0.00200439
-0.0148166
-0.000104876
-0.00668075
0.00117507
0.00540265
0.013871
0.00560752
-0.00181081
0.000583043
0.0176414
0.000322061
-0.00900923
0.00921883
-0.000343652
0.000344332
0.00120892
-0.0020435
0.00143899
-5.30807e-05
-0.00145551
0.0013619
0.0131509
-0.0145305
-0.0109468
0.000464734
0.0104692
0.00513497
-0.00411953
0.00446497
-0.000808702
-0.0141314
-0.00104587
-0.0121488
0.0130246
0.00508413
0.000528583
0.0156775
-0.000273586
-0.00525205
-0.00752369
0.000191398
0.00708686
-0.0126457
0.0186283
-0.0199238
-0.000161972
5.67225e-05
0.0173567
-0.0160502
-0.0039774
0.00279461
-0.000326973
-0.00251351
-0.0135691
0.0173226
0.00225829
0.000377983
0.00237635
0.00968368
-0.00910545
0.000485927
0.00363906
-0.00412605
0.000449898
-5.19979e-05
-0.00044584
0.00171682
-0.0182313
0.0164969
0.0156649
-0.0146533
0.00505712
-0.0102924
-0.0162352
-0.00160463
0.0197852
-0.00198062
-0.0178571
-0.000451973
-0.00873985
0.00101831
-0.0107095
-0.0184273
0.00214666
0.000461187
-0.000445695
-7.33957e-05
-0.0126369
-0.00830537
0.0142946
-0.00168278
-0.00763831
-0.000110219
0.000109685
-5.68903e-05
0.00395849
-0.00347341
0.000635818
0.00780654
-1.5154e-05
0.00253568
0.0114335
0.000919383
-0.0123519
-0.0030111
-0.0092542
-0.0139263
0.0138503
-0.0125053
0.00820041
6.55863e-05
-0.00844973
-0.00260285
0.00029746
0.00226634
-0.0055386
-0.00226474
-0.00175773
1.06531e-06
0.000571664
0.000493552
-0.00534432
0.00511244
0.000127809
-0.00880537
0.00849077
-0.000338555
-0.00537077
0.000390597
0.00487586
-0.0131248
-0.00302581
0.00267904
0.00153901
-0.0203332
0.00220634
0.0180251
0.0199601
-0.013793
0.013655
0.00169845
-0.000107255
0.00446349
-0.00467431
0.00923748
-0.00506945
0.000155618
0.000248509
0.01787
-0.0161696
-0.018836
0.0162965
0.00251657
-0.0191711
0.00163504
-0.00133365
-0.000411185
0.00707083
-0.0125454
0.0125409
-0.0122584
-0.000287533
0.0151849
-0.0109371
-0.00112606
-0.0160577
-0.000731981
-0.000236452
-0.00165405
0.00188733
-0.000721609
0.00977599
-0.00905759
-0.00107234
-0.000261727
-0.00174811
0.00200949
-0.0112767
-0.00939577
0.000633501
0.00876304
0.000470211
0.00348726
-0.0191311
0.0036196
0.00225255
0.00903129
-0.000462498
0.00366078
-0.00320031
-0.0123651
0.0116292
0.000723788
0.00984764
-0.0140882
0.000434738
0.0136201
0.00381894
-0.00334952
-8.42855e-05
0.00690951
-0.00707607
-8.65686e-05
4.22158e-06
5.25233e-05
0.00184916
-0.00211088
-0.00081807
-0.0132675
0.0140639
-0.00011533
-0.00961971
0.00912566
0.00187458
-0.0134571
0.0146242
0.00178783
-0.00972555
0.0100855
0.00302449
-1.88023e-06
-0.00309679
0.00566975
-0.013632
-0.0180638
-0.0148113
-0.00313221
0.00385785
-0.0172294
0.000642301
-0.00985127
0.00918778
0.00657728
-0.0127035
0.0110347
-0.00751818