/*--------------------------------*- C++ -*----------------------------------*\
| =========                 |                                                 |
| \\      /  F ield         | OpenFOAM: The Open Source CFD Toolbox           |
|  \\    /   O peration     | Version:  v2012                                 |
|   \\  /    A nd           | Website:  www.openfoam.com                      |
|    \\/     M anipulation  |                                                 |
\*---------------------------------------------------------------------------*/
FoamFile
{
    version     2.0;
    format      ascii;
    class       volVectorField;
    location    "750";
    object      ddtCorrDdt0(U);
}
// * * * * * * * * * * * * * * * * * * * * * * * * * * * * * * * * * * * * * //

dimensions      [0 1 -2 0 0 0 0];


internalField   nonuniform List<vector> 
10042
(
(0.00706066 0.0164776 -1.72107e-18)
(0.0173638 -0.279986 -2.44406e-17)
(-0.0139604 -0.0320297 6.51269e-19)
(-0.000168118 -1.83632e-05 -6.93079e-20)
(-7.92442e-05 5.85396e-06 2.9937e-19)
(-0.0822906 -0.0253437 2.83357e-18)
(0.127002 -0.0209972 -2.48587e-18)
(-0.0142206 -0.0307327 -2.83713e-18)
(-9.15699e-05 -5.57352e-05 4.06993e-19)
(0.0258418 0.0246311 -6.61019e-19)
(0.0181905 0.0347684 9.36129e-19)
(-0.00951794 -0.290638 -1.37155e-17)
(-0.00461891 -0.020099 -3.77364e-18)
(-0.000550395 0.000719605 2.35762e-19)
(-0.000361876 -0.000550638 2.30043e-18)
(-0.000649223 0.000639486 -7.58478e-19)
(-0.059849 -0.0991686 2.66769e-18)
(0.0245899 0.0307181 -4.66605e-19)
(-0.00218647 -0.00424034 1.81934e-18)
(-0.00929651 0.00355465 -2.84337e-18)
(-0.00225469 -0.0205523 -2.54653e-18)
(0.00402032 0.0171922 7.69598e-19)
(-0.000166683 -1.92547e-05 3.28265e-20)
(0.0012203 -0.00387629 -5.00032e-18)
(2.20181e-05 -5.49515e-05 4.97652e-19)
(-3.49217e-05 -1.2094e-06 -8.10493e-20)
(0.0222654 0.0237688 -1.83498e-18)
(-1.50806e-05 -6.88866e-05 -6.12762e-19)
(-0.0728751 -0.0330058 1.03604e-18)
(-0.0111724 0.0875964 -1.04779e-17)
(-4.15748e-05 -9.29553e-06 -1.15694e-18)
(-0.0251467 -0.00597927 -1.97278e-18)
(-6.4295e-05 -8.05153e-05 -6.75093e-20)
(-5.51317e-05 -7.99597e-05 2.50176e-19)
(-0.0239062 -0.0062542 2.49594e-18)
(0.00547096 0.0401115 -2.18669e-18)
(-0.000154979 -8.09036e-06 2.68879e-19)
(2.91565e-05 -6.58092e-06 1.34337e-18)
(-3.92822e-05 -1.35964e-05 -2.45944e-19)
(-0.000898192 0.00219013 4.28429e-21)
(-0.0139046 0.0513853 2.66691e-18)
(-7.93387e-05 -5.45113e-05 5.25697e-19)
(-0.0477404 -0.126871 -1.76642e-18)
(-0.0900162 -0.0332558 1.17422e-19)
(-0.000137994 -0.000128167 7.79594e-20)
(3.72033e-05 -5.12201e-05 -6.35642e-19)
(-1.75957e-05 7.02106e-05 -4.56658e-19)
(-0.000305993 -0.00050136 -2.81611e-18)
(0.0424714 -0.00592198 1.05219e-19)
(-0.350079 -0.332665 -1.80913e-17)
(-0.0782059 -0.153363 3.23381e-18)
(-7.19219e-05 -4.52387e-05 -8.78029e-20)
(-0.0727071 -0.0767524 5.14886e-18)
(-0.00175092 -0.00395928 -9.98968e-19)
(0.0763558 -0.0321035 5.8932e-18)
(0.108085 -0.0923716 1.11793e-18)
(-0.000875355 -0.0185257 1.58177e-18)
(0.00318438 0.0195929 -1.55948e-18)
(0.000408244 -0.000160059 3.76159e-19)
(-4.06348e-05 5.16021e-05 -4.98193e-20)
(0.0426373 -0.00126592 1.7635e-19)
(0.078514 0.000709389 -5.26694e-18)
(-0.0296569 -0.111326 1.54789e-18)
(-0.0427681 -0.0706829 1.6808e-18)
(0.0177393 0.0137054 1.88023e-18)
(0.000706518 0.000560222 1.30379e-18)
(-0.00849444 0.0011116 -1.22202e-19)
(0.0233464 0.0145757 -1.18289e-18)
(-4.78721e-05 7.88567e-05 -3.63317e-19)
(0.0197882 0.0156831 1.18676e-18)
(-0.260015 -0.193409 7.30858e-19)
(-0.000552395 0.0026343 1.32729e-19)
(7.56307e-05 -0.000237588 -4.81455e-19)
(0.000334665 -0.000177277 8.57674e-19)
(0.00056315 0.000546141 -8.54853e-19)
(-0.212958 -0.170873 -2.2349e-18)
(0.014688 -0.00992454 1.35186e-19)
(-2.50139e-05 7.63584e-05 5.6927e-19)
(0.0142217 -0.0129499 4.06563e-19)
(-0.00267193 -0.00403677 -5.0567e-19)
(-0.0756263 -0.00717846 -9.51236e-19)
(0.00112601 0.0254331 1.66994e-18)
(-8.75428e-05 5.432e-07 4.99304e-20)
(-6.30184e-05 1.29366e-05 4.34082e-19)
(0.000650196 0.0229049 -1.96781e-18)
(0.0697386 0.00411787 9.02622e-19)
(-0.00744721 0.000580364 -8.59497e-19)
(-0.00818561 -0.0338452 7.32549e-19)
(-0.000251337 -0.0003682 -1.52651e-18)
(0.0159694 0.000356689 -1.03284e-18)
(-0.00345288 -0.0116051 5.6394e-19)
(-0.000429739 -0.000556593 -5.79638e-19)
(-0.0177228 -0.108783 -1.93325e-18)
(0.0717986 0.00942194 -7.04347e-19)
(0.00704303 0.0210888 -2.1087e-18)
(-0.000397777 1.44421e-05 -7.90803e-20)
(-0.0431472 0.291508 -4.12259e-17)
(-0.00828811 0.00263116 2.34436e-18)
(0.0698426 0.00999039 -6.11081e-18)
(0.000230463 -0.000273291 4.84356e-19)
(-0.00265187 -0.010763 -3.31087e-18)
(0.0409418 0.0331672 1.68061e-19)
(-5.16845e-06 0.00103935 -6.50312e-20)
(-0.0186938 -0.00447638 1.02753e-17)
(-0.000381395 -0.00653193 3.92648e-19)
(1.59958e-05 0.00057854 -6.4526e-20)
(0.116623 -0.110565 -5.92976e-18)
(0.000508924 0.000349075 1.0757e-18)
(0.122462 -0.00932895 2.18568e-18)
(0.000105047 0.000631237 -3.27962e-19)
(0.000308204 2.13902e-05 -1.9733e-18)
(0.103976 -0.00803893 -3.84231e-18)
(0.0358779 0.034173 -1.86248e-20)
(-0.0490098 -0.0472858 -1.5923e-18)
(0.0139722 0.0125736 -2.97178e-20)
(-8.50344e-05 7.22019e-05 6.41362e-19)
(-0.00352565 0.0177699 2.09661e-18)
(-6.54241e-05 -7.88346e-06 -1.49167e-19)
(0.00128775 0.0173795 7.90695e-19)
(-9.66781e-05 1.33753e-05 -1.4593e-19)
(-3.85741e-05 5.87286e-05 5.13985e-20)
(-0.02273 -0.352566 -3.57828e-18)
(-0.0179795 -0.342433 2.81068e-17)
(-0.000147751 -0.000133825 -2.04004e-19)
(0.0171844 -0.00260015 8.03506e-20)
(-0.00035473 -0.000478556 1.43419e-18)
(-0.000450708 -0.000477236 -2.80256e-19)
(0.0572812 -0.0397163 -8.99989e-18)
(-0.112765 -0.0412981 5.31479e-19)
(-0.00610779 0.0179085 -1.9441e-18)
(5.60126e-06 0.000114749 3.51212e-19)
(0.000147999 0.000479719 -8.72279e-19)
(-0.000455636 -0.0010322 -3.21746e-19)
(0.000363681 -6.41837e-05 2.67088e-19)
(0.100779 2.17747e-05 1.26992e-18)
(-0.114609 -0.242024 9.96302e-18)
(-0.0077637 -0.003373 -7.33064e-19)
(0.107352 -0.216049 -5.54012e-19)
(0.000638584 -0.00243101 -5.67346e-20)
(0.071913 -0.0123681 4.19444e-18)
(-0.0160493 -0.0638086 -6.15281e-19)
(-4.177e-05 8.66999e-06 1.51708e-18)
(0.0567372 -0.207096 -6.1685e-19)
(-2.21331e-05 -5.83982e-05 5.59861e-19)
(0.00844829 -0.00169924 5.1654e-20)
(3.61143e-05 1.52521e-06 -3.0154e-19)
(0.000588533 0.0210846 4.58252e-19)
(-5.20218e-05 6.6209e-05 -1.6673e-19)
(-0.0019296 0.00128796 1.1683e-19)
(-0.0536601 0.105295 1.62502e-17)
(0.00038594 0.000340253 -4.80801e-19)
(-2.91347e-05 1.01351e-05 6.89252e-19)
(0.000793939 -0.00305756 -4.26571e-18)
(-0.00865254 -0.026053 1.86075e-19)
(0.0044059 0.0184322 2.90795e-19)
(0.00910429 -0.000894119 -4.99492e-20)
(-0.100658 -0.0442029 -7.91173e-19)
(0.0809245 -0.109759 2.42693e-18)
(-0.000640578 -0.000940771 -3.79195e-19)
(-3.52589e-05 -1.30382e-06 -2.2956e-19)
(-6.97897e-05 1.03011e-06 -2.84308e-19)
(-0.00141367 0.00245521 4.18305e-20)
(-0.0283877 -0.208697 -5.50275e-18)
(-0.00032025 -0.000371473 -1.5843e-18)
(0.000517286 -0.00172721 -7.98478e-20)
(-0.0551175 0.0494391 -5.85216e-18)
(0.000107485 -0.000208225 1.36482e-18)
(-0.0203704 -0.00596336 -1.66002e-18)
(-0.00267524 0.0249309 -2.93614e-18)
(-3.4694e-05 -8.61224e-05 -2.86994e-19)
(-0.0046906 0.0222978 -1.29864e-18)
(-0.0182005 0.115365 1.22888e-17)
(0.00643341 -0.327902 9.78104e-18)
(-3.93867e-05 -9.34973e-05 -1.01498e-18)
(-0.00127909 -0.00412155 1.18112e-18)
(-0.00980364 -0.322449 -9.36088e-18)
(-2.59376e-05 -0.000172279 2.01783e-19)
(3.16139e-05 2.30895e-05 7.8463e-19)
(9.13297e-05 0.000419678 -7.03649e-19)
(-3.9285e-05 7.96293e-05 3.0031e-20)
(0.000737832 -0.00216347 -6.63534e-19)
(0.0021293 -0.00642499 -1.96106e-18)
(0.000298927 -0.000278284 -1.17547e-18)
(-6.94189e-05 1.38242e-05 -1.27078e-19)
(-0.00451623 0.0406331 3.01901e-20)
(-0.00782294 -0.00885381 1.82388e-18)
(-0.000130053 0.00273727 -1.29893e-19)
(-3.24951e-05 3.6689e-05 -4.24067e-20)
(-0.284845 -0.16717 1.26766e-18)
(-4.54331e-05 9.7916e-06 -8.96034e-19)
(0.0458579 -0.197306 9.41478e-18)
(0.00137971 -0.0185672 9.94858e-19)
(2.08689e-05 0.000119292 -6.0054e-19)
(0.00189495 -0.00595783 2.84822e-18)
(0.0198841 -0.0295724 -1.2022e-17)
(-0.000448805 -0.000511924 -2.75061e-19)
(-0.0519435 0.0955295 5.61893e-18)
(-0.0168624 0.015002 -6.92894e-19)
(0.00981355 0.275992 4.45924e-18)
(-6.06572e-05 8.87625e-06 -2.73348e-19)
(-0.154244 -0.0338956 6.94638e-18)
(-0.0241469 -0.0822753 -2.21537e-18)
(0.0342295 0.039624 1.40546e-19)
(1.79076e-05 -4.69186e-06 1.1921e-19)
(0.0610855 -0.00795272 -4.36587e-19)
(-0.000316742 -0.00091491 7.04346e-19)
(-0.0348754 -0.0943765 3.75395e-18)
(-0.00614539 -0.0249687 5.47032e-19)
(0.000254502 7.47846e-05 1.67591e-18)
(0.000381528 -0.000154796 -4.59396e-19)
(-0.0229122 -0.00494027 -1.44983e-18)
(2.0171e-05 -1.42418e-06 1.029e-19)
(0.0411146 0.0449923 5.26643e-19)
(0.0322067 0.0326317 3.93789e-19)
(-0.000128087 4.31204e-06 -7.55201e-20)
(0.0177776 0.00798599 7.42842e-19)
(7.90163e-06 1.74439e-05 -3.27495e-19)
(0.0735278 -0.1222 -3.44673e-18)
(-0.000146749 -1.98317e-05 1.5743e-21)
(-0.141831 -0.045207 -5.45081e-18)
(-0.0600426 0.149058 1.01843e-17)
(-0.00639813 0.0184403 1.17538e-18)
(-0.0686881 0.16051 -8.32906e-18)
(0.0170862 0.0114102 -8.84441e-19)
(-0.000173593 -2.27028e-05 -8.78523e-20)
(-0.0330818 -0.0854055 2.3086e-18)
(-0.00144816 0.000434428 2.22083e-20)
(-0.0065812 -0.00340399 -1.9621e-19)
(0.0175996 0.0185187 -1.3373e-18)
(0.0001517 0.00106467 2.08824e-19)
(3.60249e-05 3.69154e-05 -5.44271e-19)
(-0.000505862 -0.000557518 -5.61791e-19)
(-0.00706775 -0.00927215 1.03077e-18)
(-6.89708e-05 -3.11508e-06 -1.55745e-19)
(-1.21921e-05 -0.000158236 1.51353e-19)
(-0.00334646 -0.0140939 2.6782e-18)
(-0.00379785 -0.00497377 -3.67597e-20)
(-0.0187498 0.289419 4.31312e-17)
(0.00722204 -0.00140004 3.62599e-19)
(-0.0138087 -0.0143067 1.20302e-17)
(0.104843 0.0304627 4.98199e-18)
(-0.0177196 0.17014 8.56563e-18)
(-5.0233e-05 6.95927e-05 9.78888e-21)
(-0.00123486 0.00315972 -1.33718e-19)
(0.0494915 0.200152 2.81963e-18)
(-7.64562e-05 7.41018e-06 2.15933e-19)
(-0.0230693 0.149873 -1.72926e-18)
(0.0067253 -0.00067296 -9.17613e-19)
(0.00096179 -0.0033028 3.07623e-18)
(-7.69659e-05 4.4011e-06 2.05778e-19)
(-0.000680395 -0.00585887 2.73673e-18)
(1.39731e-05 0.000149416 5.46808e-19)
(-0.0532932 0.0116143 -3.10371e-19)
(0.123379 0.020307 1.09914e-18)
(-0.00183288 0.000975315 -1.18309e-19)
(-0.00315948 -0.00461132 -1.89586e-19)
(-4.18369e-05 6.90468e-06 3.78672e-19)
(-0.00236143 -1.51353e-05 1.56382e-19)
(-0.0665818 0.305709 2.90734e-18)
(-0.000122721 -4.25873e-05 5.3969e-20)
(0.0193621 0.00318506 1.47819e-18)
(2.44394e-05 -8.66904e-05 -3.86633e-19)
(-6.75977e-05 -3.90239e-05 -1.91999e-19)
(-7.67949e-06 7.2369e-05 -1.2039e-18)
(-0.00645799 -0.021539 -6.862e-19)
(0.125304 0.0750747 5.05035e-19)
(0.0179812 0.00610265 1.97945e-18)
(-0.0464095 0.00982987 -3.18746e-20)
(-5.15695e-05 -4.98055e-06 6.21548e-20)
(-0.00047525 -0.000676213 5.20819e-19)
(-0.000143586 -0.000103377 -2.48888e-19)
(-0.332019 -0.353273 1.98589e-17)
(8.41348e-05 0.000511361 4.66041e-19)
(-0.331542 -0.180605 -5.16802e-18)
(-0.00204859 -0.000186721 1.18984e-19)
(-0.00653399 0.0130708 -3.0775e-19)
(-0.00122929 -0.00163262 1.88398e-18)
(-8.19813e-05 -0.000145107 9.82877e-20)
(-5.40988e-05 -5.6884e-06 2.45482e-19)
(-0.00446744 -0.00543046 1.12679e-17)
(-1.88233e-05 -7.62818e-05 -4.79543e-19)
(0.0390387 0.124001 -1.86914e-19)
(-0.0314419 0.0825804 -1.31844e-17)
(-0.00104548 -0.00152772 -2.60285e-18)
(-0.000181266 -7.29983e-06 -5.14581e-19)
(-0.0528254 0.217242 1.08907e-18)
(-0.0147789 0.0108862 2.07326e-18)
(2.80033e-05 0.000102642 -2.51118e-19)
(-0.00118218 0.0168555 -7.30094e-19)
(-2.52596e-05 6.99179e-06 3.53865e-19)
(0.00429876 -0.0163193 1.02465e-18)
(-0.00906687 0.00519374 -1.17913e-19)
(-0.000168354 -1.79202e-06 6.88126e-19)
(0.0230208 0.17692 -2.8088e-18)
(0.020596 0.0100176 -3.09372e-18)
(-0.000845545 5.82091e-05 5.13955e-19)
(-0.0640892 0.0341907 -1.59342e-18)
(-0.00570784 -0.00448286 6.19124e-19)
(-0.000146252 -0.000113565 1.01586e-19)
(1.16788e-05 1.35665e-05 -2.42676e-19)
(0.000980894 -0.0027321 1.15316e-18)
(0.0368838 0.0355619 -2.08311e-19)
(-3.66826e-05 3.52298e-05 -4.908e-21)
(0.105433 0.00203718 1.35099e-19)
(-0.0125309 0.0125914 -1.13094e-18)
(0.0904638 0.00555555 -1.95291e-18)
(0.000117598 0.000704461 -2.8135e-19)
(-0.00199328 0.0035866 4.51489e-20)
(-0.067827 0.0259032 1.69005e-18)
(0.0418645 0.147553 2.13784e-18)
(-0.000170609 -4.14022e-06 -3.7227e-20)
(0.000268139 3.66797e-05 9.69737e-20)
(-0.00035388 4.02872e-05 7.42285e-20)
(-0.000805437 0.000185721 -4.43311e-19)
(-0.00974841 0.00355196 2.06717e-19)
(-0.00437672 0.0158461 8.24921e-19)
(-1.38508e-06 6.36302e-05 1.70797e-18)
(-0.00573324 0.0352811 -1.74908e-19)
(-0.044332 -0.00931764 8.9309e-18)
(-8.69848e-05 5.18255e-05 3.20846e-19)
(-6.95875e-06 -4.1893e-06 1.1363e-19)
(-0.330491 -0.194331 4.98592e-18)
(-0.00650719 0.0108601 1.95596e-18)
(0.0285033 -0.0434037 2.0167e-19)
(0.0078525 0.0437009 -1.33957e-18)
(-0.00013238 4.66986e-06 -3.06898e-19)
(-0.00911432 -0.000566359 -1.0084e-18)
(1.04786e-05 0.00042218 7.74538e-19)
(-0.00476769 -0.0042894 -7.59437e-19)
(0.00469694 -0.0145177 3.10882e-18)
(-0.000157101 -0.000950104 1.89073e-18)
(-2.10052e-05 0.000222831 2.09343e-19)
(0.00777023 0.0128218 7.50233e-19)
(-3.55764e-06 -9.20942e-06 9.86519e-20)
(-0.031698 -0.0590485 7.38436e-19)
(0.00213258 0.0196264 -2.44406e-19)
(-0.0378693 -0.262176 3.02808e-18)
(0.0297545 -0.0327364 -3.44908e-19)
(3.22945e-05 0.000158434 -6.22816e-19)
(-0.0707324 0.018208 -7.15614e-18)
(-0.00738849 -0.0650495 3.20035e-19)
(0.00541704 -0.0203809 -2.45933e-19)
(-4.82046e-05 7.80749e-05 -2.12451e-20)
(-0.00792134 0.00533745 1.17256e-18)
(-7.73869e-05 -3.09363e-06 4.93601e-19)
(2.52917e-05 5.91094e-05 5.97264e-20)
(0.000115604 0.000276532 -1.37694e-18)
(-6.46073e-05 8.73618e-07 -3.07016e-20)
(-0.00521049 -0.000547558 -5.03742e-19)
(0.00342805 0.284248 -2.99614e-17)
(-0.000556566 -0.00100152 -6.06353e-19)
(0.0108364 0.0198028 -6.40297e-19)
(-0.00495755 -0.00157547 -1.72409e-19)
(0.000856621 -0.000438949 5.02893e-19)
(0.0771853 -0.0240805 -7.92624e-19)
(-0.0111542 0.000334304 7.30016e-19)
(-0.0013459 0.000687479 2.57544e-20)
(-5.93615e-05 2.04778e-06 -4.32376e-19)
(-0.184938 0.0321083 -2.7372e-18)
(-8.16538e-06 -9.88345e-07 -3.19174e-19)
(2.97887e-05 0.000492041 8.41436e-20)
(-0.000152294 -1.02006e-05 -4.94071e-19)
(0.000734614 -0.00158143 2.56806e-19)
(-0.0645266 0.062001 4.56384e-18)
(-0.0674751 -0.00440479 -2.70142e-18)
(0.00046052 -0.00197682 -4.17101e-19)
(-5.76667e-05 -2.42383e-06 -3.74511e-19)
(-0.0036216 -0.002476 9.57014e-19)
(-0.00405647 -0.00171342 4.99011e-19)
(0.0320424 -0.0352701 9.5742e-18)
(-3.28768e-05 4.29827e-05 1.22487e-20)
(-8.74764e-05 -1.88217e-06 -1.9863e-19)
(0.000155717 0.000557486 5.00149e-19)
(-3.23373e-05 5.86277e-06 -2.49601e-21)
(0.0611385 0.00533052 -4.47079e-20)
(0.000507568 0.000688587 1.83237e-18)
(-0.00330246 0.0144894 1.4696e-19)
(0.0797216 0.0329364 -8.08976e-19)
(0.0117207 0.442274 4.36342e-18)
(0.0590454 0.000315784 3.86293e-21)
(-7.11884e-05 0.000337312 1.6838e-19)
(0.0844135 0.0371348 5.26066e-19)
(0.0148395 0.0209394 2.34602e-18)
(-2.85241e-05 0.000369711 -8.26053e-19)
(-0.0228442 -0.0299131 2.73207e-18)
(-0.000100428 3.88421e-05 5.17071e-21)
(-6.65008e-05 2.9776e-06 7.30776e-20)
(-8.51073e-05 5.93236e-06 6.26378e-19)
(-0.000891213 0.000386688 1.28546e-18)
(3.55582e-05 7.98367e-05 2.11762e-19)
(-0.00198691 -0.000576647 -2.57613e-19)
(0.15343 -0.0578201 -1.16749e-18)
(-0.000441987 -0.00102049 -3.57298e-19)
(-0.00859171 -0.00643195 -6.7762e-19)
(-0.0787597 -0.005402 7.62431e-18)
(0.122273 -0.000797781 1.41816e-18)
(-0.000161156 2.90449e-05 -1.40492e-20)
(-0.0334034 -0.0215587 -9.70273e-19)
(-0.000146936 -4.02997e-06 -9.76027e-20)
(-0.0252093 -0.00848222 1.19443e-18)
(-7.61557e-05 -4.20577e-05 3.27582e-19)
(-0.0549739 0.196839 7.7309e-19)
(-0.00013664 -0.00278351 5.96983e-20)
(0.0883052 -0.0315781 -1.55577e-17)
(-0.0673028 0.303408 -3.47245e-17)
(0.00084733 -0.000594897 -4.72873e-19)
(-0.00253302 -0.058441 1.78749e-20)
(0.00150927 -0.00124339 -5.91635e-19)
(0.0946523 0.0268035 -1.31484e-18)
(-0.00169772 -0.000650877 -1.90935e-19)
(-0.0208525 -0.201866 7.51397e-18)
(0.00867996 -0.00569896 -5.45823e-19)
(0.00299674 0.170939 -3.9081e-18)
(-0.000369576 -0.000925079 -1.19119e-18)
(-0.0395918 -0.106119 3.30554e-18)
(0.00056741 0.00249291 -5.77354e-20)
(0.011678 -0.000758437 -1.50357e-19)
(0.049598 -0.0383537 -2.86681e-19)
(3.0286e-05 3.15254e-05 5.35859e-19)
(0.000623342 0.00218032 -5.94561e-19)
(-3.88314e-06 6.60084e-06 -8.02372e-19)
(-0.0763176 -0.0078884 2.53971e-18)
(2.61778e-05 7.66479e-05 -4.83632e-19)
(-6.61523e-05 -2.67786e-06 -2.27474e-19)
(-0.023129 -0.0692152 2.83971e-19)
(0.00375065 0.00167778 1.9464e-18)
(0.00773121 0.0245404 2.29584e-18)
(-0.0213788 -0.188116 -9.04374e-18)
(-0.000118426 -4.32716e-05 -8.00431e-20)
(0.00287763 -0.0209365 1.23058e-18)
(0.00338148 0.00199402 -2.18435e-18)
(-2.46188e-05 8.90996e-05 -3.29242e-19)
(0.00940938 -0.00499544 -1.97212e-20)
(0.0155309 0.0226519 -3.62132e-18)
(0.00114912 -0.00124276 1.4431e-19)
(0.000711642 -0.00133777 -2.59411e-19)
(0.0838123 -0.0968869 -1.68878e-17)
(-0.00234057 0.0168126 -9.41732e-19)
(2.4189e-06 -1.71043e-06 -3.87338e-19)
(0.129228 -0.100703 -8.90957e-18)
(-3.50105e-05 -4.07842e-05 -1.16433e-18)
(-0.0085264 0.00198661 2.96296e-19)
(-0.00897687 -0.015887 7.61999e-19)
(-0.301623 -0.158175 -6.44693e-18)
(-0.273055 -0.300301 6.26432e-18)
(-0.0146798 0.064074 -4.11847e-19)
(-0.0348861 -0.10432 2.83496e-18)
(0.0698403 -0.146119 -3.63983e-18)
(-0.0350786 -0.0575361 6.7575e-18)
(-6.07416e-05 -3.56713e-05 -1.5457e-19)
(-0.00872945 0.00879726 -2.24327e-18)
(-0.0690773 0.00794459 2.02185e-20)
(-0.0737144 -0.000386278 -1.01653e-19)
(-0.0199164 -0.0285974 4.66456e-18)
(-0.000163717 -1.70628e-05 1.36859e-19)
(0.000168839 0.000283926 1.12325e-18)
(0.011031 0.0151721 -3.63577e-19)
(0.107178 -0.0901082 3.31231e-18)
(-7.66176e-05 2.17003e-05 -1.49027e-19)
(-0.000397515 0.00098278 3.35309e-21)
(-7.55733e-05 1.30512e-06 6.18929e-20)
(-0.000170957 9.83912e-06 4.29719e-20)
(-0.000289841 0.00168515 1.694e-18)
(-9.27002e-05 0.00197832 -1.06255e-18)
(-0.000809905 0.000261336 -2.74895e-19)
(-0.00012662 -4.94257e-07 -6.33408e-19)
(0.00548894 0.0199284 3.76106e-19)
(-0.00136177 -0.00125261 2.64862e-18)
(-0.00892358 0.00055735 -5.97298e-19)
(-0.000258544 0.022926 -1.53163e-18)
(0.11246 -0.114731 -3.87086e-18)
(0.000137843 -0.000227939 1.63026e-18)
(-0.0719592 0.123287 -1.3016e-18)
(0.077758 -0.135565 8.86559e-18)
(0.0804829 0.0343007 -2.14195e-18)
(-4.90888e-06 -1.20922e-05 -7.72872e-19)
(-0.00730483 -0.00325106 7.79403e-19)
(-7.89891e-06 -5.78954e-06 -1.52768e-19)
(0.125281 0.00606675 2.82804e-18)
(-0.000105742 -9.43667e-05 7.03463e-19)
(-0.0164682 0.0107844 3.1143e-19)
(-0.000263805 -0.000927322 -5.44629e-19)
(0.0777128 0.00904724 -5.25377e-20)
(-3.84655e-05 8.3123e-06 -7.5327e-19)
(-0.00146107 -0.00577884 -1.39226e-18)
(-0.000555154 0.000922562 6.60444e-20)
(-0.00784781 0.00695697 -2.50161e-19)
(0.0419425 -0.16186 -2.2597e-18)
(6.4251e-06 -9.026e-07 -2.11836e-19)
(-5.30399e-05 -3.11302e-05 1.37316e-20)
(0.000301405 -5.18352e-05 -1.73395e-19)
(-0.0686105 -0.0762071 -1.15059e-17)
(3.22808e-05 -7.04562e-05 -8.72747e-19)
(-0.0119125 0.00753107 3.41332e-19)
(0.00927801 -0.0338646 -2.39735e-19)
(0.00511733 -0.0577629 -5.18296e-19)
(0.000673844 -0.000374902 -1.03112e-18)
(-0.0126681 0.010294 -3.07214e-19)
(0.0115243 0.19937 -6.92876e-18)
(0.182479 0.0139177 -6.42143e-18)
(0.000143314 7.12117e-05 5.69908e-19)
(-7.71207e-05 -9.28369e-07 6.75335e-19)
(0.0205011 0.143495 3.99543e-18)
(-0.0798198 -0.129463 1.75633e-17)
(0.024722 -0.0118103 1.62948e-19)
(-0.0732119 0.0303375 -9.95407e-20)
(-2.74083e-05 3.3896e-06 1.12055e-19)
(-0.0067019 0.0212378 -3.43727e-19)
(0.00874757 0.0149593 -8.32928e-19)
(0.0110044 0.0073157 2.10623e-20)
(0.00511909 -0.000453216 -4.80456e-19)
(-0.023143 -0.114139 -1.20771e-18)
(0.000565677 -0.000433314 -1.83938e-19)
(-0.000157861 -3.12112e-05 7.29497e-20)
(0.000319208 0.000616125 -5.30315e-19)
(0.0164064 0.195739 7.89281e-19)
(-0.000160487 -0.000109012 4.44969e-20)
(0.0847716 0.0300663 8.6895e-20)
(-0.000167872 8.40808e-06 6.40442e-19)
(5.98355e-05 -5.34765e-05 5.81595e-20)
(1.57522e-05 -0.00027868 2.45883e-19)
(0.0113978 0.000740573 -2.53617e-20)
(-0.0694905 0.0453177 1.80739e-19)
(0.00024332 0.000939945 -1.49003e-19)
(0.000871076 -0.00116045 -2.39563e-18)
(-0.0548545 0.132336 1.75099e-18)
(-0.0131729 0.0188022 8.15748e-19)
(-0.0127124 0.0209083 -6.97729e-19)
(0.000235834 0.000836829 1.44767e-19)
(0.000319466 0.000593724 6.96672e-20)
(-0.0052662 0.0248112 3.81535e-19)
(0.180369 -0.013811 3.0569e-18)
(-1.98723e-05 0.000375402 1.16206e-19)
(0.000108359 4.35561e-05 -1.86708e-19)
(0.00900781 -0.0281397 -7.14664e-19)
(-0.000428454 4.00794e-05 5.15205e-20)
(-0.000113177 0.000196082 -5.01255e-20)
(-0.0400606 0.0485884 1.64086e-18)
(1.01415e-05 9.34863e-05 1.74824e-19)
(0.0885215 0.11593 -7.27092e-18)
(-5.59835e-05 -7.17679e-06 2.68126e-19)
(0.0212027 0.0193418 3.29756e-19)
(-0.00468392 -0.00239645 8.52771e-19)
(-0.0477501 0.19382 -7.07978e-19)
(-0.000168847 -0.000100545 -5.39658e-21)
(-0.00747155 -0.00491167 5.69979e-18)
(-0.000151514 -1.36379e-05 -1.74254e-20)
(6.93767e-05 -0.000158881 -3.17596e-19)
(-0.0541275 0.118363 7.19255e-19)
(-6.42452e-05 9.17383e-05 1.27846e-20)
(0.0859887 0.0104031 -7.27667e-19)
(0.0238758 -0.0145896 -3.37383e-20)
(-8.77806e-05 5.39531e-06 -3.35651e-19)
(-0.00471055 -0.00411142 1.1217e-18)
(-0.0989758 -0.310077 -1.86777e-17)
(0.0849657 -0.0645088 -1.3029e-18)
(0.000814032 0.0188842 1.38734e-18)
(1.97043e-06 -1.89848e-06 2.66196e-19)
(0.000100475 7.59438e-05 -3.99677e-19)
(-5.68361e-05 4.31984e-05 1.11281e-18)
(-0.0012772 -0.000351504 3.97143e-19)
(-0.00777968 0.00341118 3.45083e-19)
(0.000211979 0.000589387 3.60531e-19)
(-0.0937621 -0.0454187 -2.236e-18)
(-0.000289381 0.000102974 9.29938e-20)
(-2.71523e-05 1.79248e-05 1.9947e-20)
(0.0286793 0.0992643 -2.57019e-18)
(0.000378857 -0.00652813 -6.11444e-19)
(-0.00896027 0.00481425 -8.95318e-19)
(-4.27289e-06 -2.15783e-06 -3.45415e-19)
(-8.67286e-05 -9.72356e-06 4.06964e-19)
(0.033302 0.0648617 -1.8249e-18)
(-0.0725609 0.0441074 -4.59543e-19)
(-0.00370739 -0.00242171 -5.29773e-19)
(-0.026023 -0.151269 -1.36412e-18)
(-0.000155126 -9.98626e-05 3.71682e-19)
(-0.00751951 -0.00679462 3.03396e-18)
(0.000225396 -4.56037e-05 -9.28794e-19)
(-9.81576e-05 2.61371e-06 -4.79391e-19)
(0.000413124 7.36652e-05 3.27504e-19)
(0.000289017 0.000105269 1.14994e-19)
(0.000101956 0.000371064 -4.32094e-19)
(-5.40918e-05 4.52892e-06 2.73081e-19)
(-0.0444563 0.220521 2.94847e-18)
(-0.000123968 -0.000808652 -8.83602e-19)
(0.0123714 0.062767 2.4615e-18)
(-6.11801e-05 -0.000101204 1.62033e-19)
(-0.00149241 -0.00326714 4.3755e-19)
(7.1844e-06 6.10279e-05 -6.54397e-19)
(-0.0128246 0.0250372 3.26307e-18)
(0.0968657 -0.0486274 -3.16236e-18)
(-8.20386e-05 3.21696e-05 1.5159e-19)
(-7.67536e-05 -0.000129418 1.52297e-19)
(0.00479422 0.0396237 3.38808e-19)
(-0.00997909 0.0165046 -7.40708e-19)
(2.39293e-05 4.21252e-05 6.69688e-19)
(0.0413556 0.352629 -2.64386e-17)
(-6.10387e-05 2.07094e-06 6.87011e-19)
(0.00177594 0.01485 -1.10028e-18)
(2.91083e-05 -2.50324e-05 9.61242e-19)
(-0.00010622 -1.81606e-05 9.88323e-21)
(6.6142e-05 -0.00013487 -9.89665e-20)
(-0.15508 0.0494905 4.84296e-18)
(1.1039e-05 5.09714e-05 1.56004e-19)
(0.000319764 -0.000430271 2.97519e-19)
(0.000531338 0.000871381 -1.86934e-18)
(0.0236921 0.327359 1.29269e-17)
(-3.12862e-05 3.73992e-06 -1.14762e-22)
(0.000376048 0.000146835 -3.14898e-19)
(-4.5642e-05 -7.48926e-06 -2.99636e-19)
(-0.0376509 -0.0538993 -1.16665e-19)
(-0.000163529 2.86145e-05 7.94325e-20)
(-0.000128926 -0.000221976 4.68628e-19)
(-4.26759e-05 4.32744e-06 -2.95248e-20)
(-0.000145093 -0.000231593 -3.74236e-19)
(0.0056463 -0.00099984 1.36467e-18)
(-3.74619e-05 -0.000197639 1.15222e-19)
(-0.000970547 -0.00292631 1.26541e-18)
(0.000264257 -5.71627e-05 -4.79288e-20)
(-0.0740731 0.303094 1.9844e-17)
(-0.0898873 -0.0172832 4.73901e-19)
(0.0497602 -0.123084 9.17021e-19)
(-0.00156169 -0.000949337 2.86296e-19)
(-0.00454532 -0.00264995 2.7794e-18)
(-0.000143782 -2.2704e-05 6.74995e-21)
(-0.0540674 0.0209582 -2.03398e-18)
(-0.000166266 -2.27368e-06 -1.80858e-18)
(-0.0303995 0.00379244 -1.14222e-17)
(0.00591576 0.0590116 -1.16633e-18)
(0.0593562 -0.08 -3.0191e-18)
(-0.00116529 0.0146947 5.04327e-19)
(-0.0403981 0.135528 2.47583e-18)
(-0.000154216 -8.74407e-05 5.94409e-20)
(-1.71955e-05 0.000268709 2.33779e-19)
(-0.0128442 0.235884 9.12499e-18)
(-0.0240718 -0.0482631 -3.25661e-19)
(-0.00852602 -0.00241332 -3.133e-19)
(-0.058844 -0.0228049 3.14462e-18)
(7.1447e-05 -0.000507984 2.9836e-19)
(-0.077182 0.0392793 -6.79145e-20)
(-0.000155471 -3.56611e-05 -6.29225e-19)
(0.000167483 0.000186888 2.05084e-19)
(0.000181085 -0.00024253 -1.34002e-18)
(2.95125e-05 -5.59037e-05 -3.03802e-19)
(-6.98047e-05 -2.62886e-06 -7.95474e-19)
(-0.0117711 0.239134 -2.08291e-17)
(-0.000858901 -0.00160076 9.704e-19)
(-3.62185e-05 -9.6406e-07 2.86439e-19)
(0.0910875 0.00629287 -1.04543e-18)
(-0.000280457 -1.39398e-05 2.87997e-20)
(-0.0487621 0.030364 -6.56396e-19)
(-0.000976065 0.00178008 4.39454e-20)
(-0.00118779 -0.00122485 1.61655e-19)
(-0.00875942 0.00719467 -2.6404e-19)
(-2.5726e-05 6.02323e-06 -1.54944e-18)
(-0.0455447 -0.0420934 5.44666e-19)
(-0.000429882 0.000338537 -8.63876e-20)
(0.000211122 5.40956e-05 7.20009e-19)
(0.0143219 0.0527503 1.08995e-18)
(9.97124e-05 -2.95963e-05 1.40711e-19)
(-2.7774e-05 2.32118e-05 -1.01983e-20)
(-4.47669e-05 -7.11566e-06 1.20935e-18)
(-0.000213067 -8.00279e-06 -8.53871e-19)
(-9.87434e-05 -2.09706e-06 -1.04948e-19)
(-0.0148319 -0.0771518 4.82941e-19)
(-0.0348078 0.0590375 -2.17804e-18)
(-0.0940467 -0.0405949 5.75532e-19)
(-0.000321696 -0.000447064 1.75142e-18)
(-0.000237966 -0.000301012 1.85452e-18)
(-0.000175457 5.17874e-05 -8.86351e-19)
(-0.0738396 0.0571529 2.48617e-19)
(-0.000829625 0.00299936 -2.19631e-19)
(0.000444878 0.000646193 6.13503e-19)
(4.25679e-06 1.55869e-05 2.6308e-19)
(0.000124622 0.000126567 -8.58552e-19)
(-0.0481324 0.136542 -6.34624e-18)
(-0.331257 -0.344013 -4.97951e-18)
(-0.00244394 0.0096533 2.794e-19)
(-0.00174084 0.000342971 4.37722e-19)
(-0.000172114 -4.62312e-06 5.13067e-19)
(-0.102144 0.305107 -3.67331e-17)
(-0.00802709 -0.00563044 -1.34476e-18)
(-0.00619041 -3.4145e-05 -1.53951e-18)
(-0.00219166 0.0251175 -6.53629e-19)
(-0.00933691 0.12189 4.25382e-20)
(0.10145 -0.00782309 5.15008e-18)
(-0.0589053 0.108923 -2.44488e-18)
(-0.000151917 -7.09148e-05 -4.70608e-19)
(-2.94964e-05 -1.22525e-05 1.69094e-20)
(-0.000454299 0.000438076 -6.73907e-20)
(-0.0496368 -0.0837005 -4.92182e-18)
(-0.000136687 -8.18609e-05 -9.82621e-19)
(-0.00547295 -0.00302889 8.8869e-18)
(-0.000900019 -0.000353327 -6.79112e-19)
(-6.23565e-05 0.000103428 -1.10716e-20)
(-0.00866842 0.00347108 -9.01092e-19)
(-0.00146919 -0.00121709 -1.52081e-18)
(-0.1837 0.0449887 -4.10199e-18)
(-0.0456978 0.121774 -1.04048e-17)
(-3.65772e-06 0.000132896 3.3133e-19)
(-0.000124908 -0.000132204 -5.38441e-20)
(-5.58413e-05 -2.11137e-05 6.02556e-21)
(-0.00858788 0.0561766 7.57228e-19)
(3.32988e-05 -3.78343e-05 -4.7092e-19)
(-0.0404474 -0.203343 4.54705e-18)
(-0.00286961 -0.00244312 -4.00077e-19)
(-0.304833 -0.228033 -6.21785e-18)
(-0.000253229 -0.000191232 2.05369e-19)
(-0.000517535 -0.000603574 4.61038e-21)
(-8.13052e-05 4.84883e-05 3.00926e-19)
(-0.000157161 -3.5e-05 -3.48518e-20)
(-5.66731e-05 0.000208757 -6.35428e-19)
(-0.000274081 0.00038813 2.32156e-20)
(-0.000120659 -0.000113015 -2.53481e-19)
(-9.44516e-05 -0.000970552 2.87466e-18)
(-0.0100549 -0.00453641 -1.15173e-18)
(-0.00161368 -0.00510135 1.85696e-18)
(0.0474013 -0.126837 -3.29394e-19)
(-0.000172212 -7.73009e-05 1.29434e-19)
(-0.019485 -0.0356689 6.41235e-19)
(-0.00414892 0.132769 1.03776e-18)
(-0.000148373 1.1688e-06 2.51227e-19)
(0.083366 -0.101621 -6.54688e-18)
(-3.66132e-05 -5.01408e-05 -2.51539e-19)
(0.000763129 0.000162016 7.72814e-19)
(-0.000532382 -0.00326478 4.47321e-19)
(-6.44551e-06 5.0783e-06 2.04894e-19)
(-0.0167605 -0.171786 4.10882e-18)
(-0.000896929 -0.000195698 -2.29855e-21)
(-0.0013075 -0.000947386 -8.45657e-19)
(4.68729e-05 -0.000320643 -5.81378e-19)
(-0.0300331 0.0767223 1.13089e-17)
(-0.000400861 -0.00056717 4.95476e-19)
(-0.0495947 -0.088826 1.27183e-18)
(0.0178613 -0.0158171 -3.97423e-19)
(-0.000280038 -0.000239728 3.20911e-19)
(0.0453541 0.0364992 5.0987e-19)
(-0.0531797 -0.0572349 -7.61134e-19)
(-0.00126514 0.00147293 -6.64643e-20)
(6.15979e-05 -0.000276306 3.55067e-19)
(-0.0556941 -0.0294432 -2.28796e-18)
(-5.74077e-05 -2.17823e-06 3.18476e-19)
(0.0891946 0.0202469 1.25167e-18)
(-0.00656087 -0.00608376 9.26538e-19)
(0.0109256 -0.0138242 -1.80824e-19)
(-0.011223 0.00277521 6.94334e-19)
(-0.000282925 -0.00040455 -9.05257e-19)
(0.000190052 3.27964e-05 -4.89024e-19)
(0.000721254 0.000215016 8.09468e-19)
(-0.00194734 0.0134304 4.19867e-20)
(0.000828792 -0.0038097 -3.68454e-19)
(0.0400311 -0.00120647 -1.32261e-19)
(0.0934876 -0.0294888 -3.19992e-18)
(-8.29146e-05 0.000119587 -6.28369e-20)
(-0.00123707 -0.000941963 7.14307e-20)
(-0.000138009 -4.20106e-06 -1.22709e-19)
(-0.00618974 -0.0169717 -9.51688e-19)
(-6.25401e-05 -2.72374e-06 5.5073e-19)
(-0.0545984 -0.173304 8.54423e-18)
(-0.000442104 -0.000672434 -8.86142e-19)
(-3.26296e-05 0.000444759 -2.80081e-19)
(0.0142777 0.0613792 -2.68536e-19)
(-0.000241791 -9.14437e-05 2.58213e-19)
(-0.0486814 -0.0299703 2.46613e-18)
(0.013009 0.00732845 4.3969e-19)
(-0.000210078 -1.00071e-05 -3.76663e-19)
(-0.0220191 -0.108315 2.31103e-20)
(-0.00121538 0.00310854 9.84828e-20)
(8.05817e-05 -0.000516069 7.9231e-20)
(-0.000841189 -0.00211158 3.53761e-19)
(0.011645 0.0194596 -4.53877e-19)
(0.000223442 0.000767364 4.5906e-20)
(0.108325 -0.016043 -8.19678e-18)
(-6.18285e-05 -0.000884035 -8.3027e-19)
(0.00832081 0.0207792 -5.37624e-19)
(-0.00606966 -0.00305977 -5.21237e-18)
(-0.0666082 -0.204237 -3.61222e-18)
(-0.000553067 -0.00186361 -3.77503e-19)
(0.0101151 0.00562175 -1.41352e-19)
(0.00364723 0.00131109 1.97824e-19)