/*--------------------------------*- C++ -*----------------------------------*\
| =========                 |                                                 |
| \\      /  F ield         | OpenFOAM: The Open Source CFD Toolbox           |
|  \\    /   O peration     | Version:  v2012                                 |
|   \\  /    A nd           | Website:  www.openfoam.com                      |
|    \\/     M anipulation  |                                                 |
\*---------------------------------------------------------------------------*/
FoamFile
{
    version     2.0;
    format      ascii;
    class       surfaceScalarField;
    location    "750";
    object      meshPhiCN_0;
}
// * * * * * * * * * * * * * * * * * * * * * * * * * * * * * * * * * * * * * //

dimensions      [0 3 -1 0 0 0 0];
oriented        oriented;


internalField   nonuniform List<scalar> 
14885
(
-0.000301961
-0.000898282
0.00119495
-0.00503863
0.00276816
0.00236871
-0.000164858
0.00153389
-0.00123758
0.00164147
-0.00225062
0.000475931
8.30775e-05
-0.000613771
0.000792373
0.00302858
-0.000639925
-0.00241711
0.000670681
0.00262651
-0.00312555
-0.0021384
0.00254717
-0.00039705
-0.000999652
0.000730403
0.000337191
-0.00132674
0.000535325
0.000859754
0.000494335
0.00206763
-0.0026063
-0.00239574
-0.00256259
-0.000344252
0.00235571
-0.00188411
0.000508599
-0.00118087
0.000738048
-0.00158266
0.000448287
0.00105022
0.00127965
-0.00071707
-0.00245969
0.00222435
0.000195753
-0.00202326
0.00246796
-0.00078963
0.000201341
0.000723519
0.00141531
-0.000409709
-0.00101888
-0.00204076
0.00181512
0.000819614
-0.00111664
0.0024922
-0.000799602
0.000269526
-0.00271013
0.00242152
-0.00116386
0.000254348
0.000962666
-4.58502e-05
1.39361e-05
5.34918e-05
-0.000986702
-0.00015629
9.43294e-05
-6.89661e-05
9.96893e-07
0.000430944
0.00256329
-0.000709186
-0.00158807
0.00232218
3.93696e-05
3.95643e-05
-0.000100243
-0.00315081
0.000505461
0.00271215
-0.00085377
0.000259887
0.000734411
-0.00023678
-0.000431534
-0.00247125
0.000331065
-0.00234761
0.00208701
0.000235657
0.00162453
-0.000340111
-0.0010754
9.71022e-05
-7.0715e-06
-0.000139223
-4.85748e-06
0.000106362
0.000227298
-0.000241144
8.69511e-06
0.00236871
-0.0030458
-0.000608876
0.00292595
-0.0034735
0.000593254
0.00449469
-0.00386617
-0.000457334
-0.000846383
0.000121218
0.000738817
-0.000392827
-0.00087547
0.000106508
7.0711e-06
-0.000124529
-0.00155787
-0.000202893
-0.00022272
0.00199535
-0.00163216
-0.00396375
0.00427279
-0.000200436
0.0032647
-0.000282209
-5.94968e-07
-0.000140962
0.00010795
-0.00205309
-6.96634e-05
-0.000614422
0.00470601
-0.00427732
-0.000315321
0.00486339
-0.00440944
-0.000347579
-0.00028382
-0.0016795
-0.00307856
0.00102847
0.0022143
0.00023556
-0.0001618
-3.89295e-05
-6.66638e-06
7.12885e-06
6.53644e-07
-0.00189686
0.00183528
-0.00439005
0.00423708
0.000330664
-0.00303714
-0.000369782
-0.00201763
0.00234818
-0.000331907
-0.00100708
0.000140988
0.000880576
0.000129997
-3.46338e-05
-2.74801e-05
0.00112725
-0.000423568
-0.00072744
-0.00114039
0.00145331
-0.000281032
-3.59179e-05
-7.8894e-05
0.000118015
-0.00131766
0.000212884
-0.00323927
0.00342824
-0.000119301
-3.70803e-05
-0.000595785
0.000451779
0.000111626
0.000594367
-0.000651695
2.97809e-05
0.000233198
0.000226861
4.38752e-05
7.88238e-05
0.000442748
-0.000924995
0.000515946
0.000107083
-2.80458e-06
-0.000494827
0.000970917
-0.000716722
0.00105116
0.00409525
0.000497588
0.00262352
1.83895e-05
1.66472e-05
-2.10617e-05
0.000518131
-1.9308e-05
-0.000655306
-5.67309e-05
3.09259e-05
0.00017113
0.00258658
-0.00258171
0.000100845
0.00087746
0.000272666
-0.00157013
0.00153649
0.000412729
-0.00060934
3.26613e-05
0.000314236
0.000708419
-0.00105679
-0.00195068
0.00140374
0.000656457
-0.000738373
0.00113123
-0.00301035
5.12399e-05
-0.000286126
0.00300044
-0.00119969
0.000121685
0.00100414
0.000453356
-0.000649203
5.73017e-05
-0.00330081
0.00325246
0.000970269
-0.00208283
0.00252376
-0.000376725
-5.85298e-05
-1.54733e-05
5.39403e-06
-0.00132439
-0.000488156
-0.00152829
0.00182832
-0.000129121
-0.000116528
-0.000346675
0.000666968
0.00230396
-0.00306894
-0.000894831
9.66348e-05
0.000923167
-0.000868033
0.00082841
5.11146e-08
-0.0015971
0.00441894
-0.00271896
0.000408709
-6.47218e-05
-0.00238966
0.00321207
6.49527e-05
-0.000872968
0.000240046
-0.000387548
5.1667e-05
0.000818793
-0.00305655
-0.00154824
0.00016057
-0.00238313
0.000366461
-0.000142774
-0.000890912
2.26644e-06
-5.35835e-05
2.25448e-05
0.000733718
-0.00184755
0.00121243
-0.000105262
6.00569e-05
0.000132932
-0.00073887
-0.00210714
-1.80073e-05
0.000111719
-0.000124938
-5.53166e-06
-1.55058e-08
-0.00422719
0.00229157
0.00204547
-0.00294088
-0.00120171
-0.000244043
-0.000726297
-0.000471726
0.000756361
0.00033503
-0.000448632
5.25033e-05
0.000526162
-4.57827e-05
0.000328385
0.00449025
-0.00307064
0.00290174
0.000218422
0.00202709
-0.00119782
0.000445985
-0.000431072
2.70525e-05
0.000632222
-0.000496979
-0.000160932
2.98585e-05
-0.000284026
0.000181973
-0.000416594
0.000635384
-0.000271628
-0.0018319
0.00277444
-0.000238748
0.00335232
-0.00300186
0.000415673
-0.000140495
-0.000258675
-0.00268181
-0.00313326
-0.000889345
0.000944459
0.000114298
-0.00252693
0.000490058
-0.000337438
0.00288975
-0.00248101
-0.000150304
2.62496e-05
0.000176902
-0.00507728
0.00360291
2.78225e-06
0.000114762
6.08614e-05
-6.54996e-05
6.26472e-05
1.972e-05
1.19841e-05
-8.42716e-06
0.000105532
-0.000135255
0.000103623
0.00161702
-4.74917e-05
-0.00143596
0.000660932
-0.00249556
0.00189066
0.000283039
8.80748e-05
8.35598e-05
-9.43907e-05
-8.19284e-06
0.00102573
-0.000900825
-0.000172806
-0.00229207
0.00257702
-0.000219132
-0.000171231
-0.00110856
-3.53906e-06
0.000116875
-0.0028035
-0.000220145
0.00394574
0.00100947
0.000298313
-0.000327791
-4.8219e-06
-2.85444e-05
-0.000411175
0.000304948
0.000103495
0.000200127
1.19568e-05
-0.00317611
0.00305299
-6.14571e-06
-1.98096e-05
0.000439928
-0.000198499
-0.00246832
0.00320811
-0.000712504
0.000893506
0.00321156
-0.000816396
-0.000212924
-0.0021276
0.000457542
-0.000132427
-0.000177599
-0.00156451
0.000183903
0.00130221
0.00151167
-0.00308366
0.00290526
0.00063252
-0.00342847
0.000414454
0.000580836
-0.000559044
0.00364752
-0.000628816
-0.000275978
-0.000423584
0.000733121
0.000144649
-0.000203579
0.000212745
0.000447068
6.28451e-05
-0.000126422
-0.000582427
-7.44507e-05
-0.000972143
0.00041147
0.000667739
-9.77093e-06
-9.82436e-06
4.87106e-05
-0.000113316
-0.000287724
8.8517e-05
0.000233991
-0.00127005
-0.000673402
0.0020549
0.000242968
-0.000446702
4.85511e-06
-8.71191e-06
3.74313e-06
-0.00335821
0.000135564
0.00331019
0.00063683
-0.000561634
-0.000103566
-0.000795439
0.00176405
-0.00196933
0.000550487
5.21418e-06
-0.000217787
-0.000688377
0.00481676
-0.00494501
0.000256676
-0.0013188
0.000516943
-0.00208857
0.00368524
-0.00155651
-0.00186477
0.000219454
0.00168421
0.00339329
-0.00314662
-0.000227343
0.000408735
-3.56622e-06
-0.00272029
0.00323865
-0.000453478
0.00302821
-0.00287928
-6.59757e-05
0.00244726
-0.00042391
-0.00201968
-4.35407e-05
-2.54428e-05
-5.08459e-06
0.00222992
0.000365011
-2.74834e-05
-0.000362513
0.000215992
0.002553
-0.00282832
-0.00235916
0.000174429
2.27279e-06
3.77062e-07
-0.000544229
0.000101226
0.000143262
-9.65103e-05
-3.04612e-06
0.00221024
0.000234586
0.00248532
-0.00227298
-0.000155339
-0.000712613
0.00194425
-0.000902893
0.00101782
0.00027749
-0.0012605
1.85079e-05
-0.000284696
0.000247067
0.00042883
-0.00258569
0.00231052
0.00155131
-4.69742e-05
-0.00169663
0.000244708
0.00328215
0.000254735
-0.00350552
-0.000187225
-0.00140301
0.00357544
-0.000246691
-0.000283038
-0.00108427
-0.00132302
0.000100753
-0.000192435
-0.00185108
0.00208305
9.10961e-05
0.000408388
-8.96173e-05
0.000836449
-0.000473354
0.000186714
-0.000176193
3.5827e-05
7.46871e-05
0.00035748
0.000234599
-0.00183501
0.000690849
4.45322e-06
-9.54811e-05
0.000406347
-0.000621687
0.00234538
0.000130635
-5.86226e-05
5.42737e-05
-0.0034772
0.000203943
-9.84346e-06
-1.17055e-05
-0.00250822
-0.000243292
0.000227519
-0.00238283
0.00227749
-0.00252236
0.00031279
0.00235102
-6.13802e-06
4.07664e-07
0.000169001
3.00395e-05
-0.00386575
-0.000251113
0.00424703
-0.000649003
0.000991933
-0.000364991
-0.0020368
3.19742e-05
-4.42783e-06
0.000554631
0.000421822
-0.00044486
1.37642e-05
8.69728e-05
-0.000853384
0.000633375
2.87287e-05
-0.00279182
0.00135413
0.00153297
-0.0011142
-0.00218705
0.0034482
0.00165198
0.000198019
4.99154e-06
0.000195981
7.42064e-05
0.000490517
0.00169738
-0.00118174
-0.000343798
0.00194153
0.00133461
4.41196e-05
-0.00148497
0.00123752
-0.000179948
0.000869765
6.79077e-06
0.000182022
-0.000152337
-0.000302815
0.000265337
-0.000130317
0.00012691
0.000129779
0.00341249
-0.0043138
0.000751114
-0.000950992
-0.00119371
-0.00153722
3.10446e-05
9.28664e-05
-0.000423936
-8.58139e-05
0.000427914
0.000507582
-0.00261025
0.00183875
-0.00356237
-0.000258886
0.00124525
-0.00115621
-6.8782e-06
0.00333723
0.000178637
0.000355085
0.00144703
-0.00252641
0.000691213
0.00203386
-0.00125317
0.000408634
0.00079157
0.00122341
-0.000107479
-0.000999462
-0.000543612
0.000290385
0.000496503
-9.76313e-06
2.72337e-07
-0.000247602
0.00238674
-0.00197149
-0.00337938
0.00132288
-0.000140407
-0.00103082
0.00232371
-0.000735658
-0.000421069
-0.00333647
-9.17144e-05
0.00344886
-0.000633702
-0.00106145
0.001774
-0.000121672
-1.49862e-05
0.000162844
-0.00010757
0.000883157
-0.000750857
5.10142e-06
3.82751e-05
-0.00181474
0.00164305
0.000253065
5.93842e-05
-0.00106356
0.00117445
-1.54297e-05
0.000617163
-0.000281984
-0.00176643
0.00268143
-0.000791372
0.000903455
-0.000630141
0.00118136
-0.000590079
0.00254041
0.000137033
-0.00245535
0.000248421
-4.96658e-05
-0.00202476
0.00230205
-0.000198725
0.0001977
8.73154e-05
0.00206065
6.58749e-06
-3.43245e-06
0.00237953
-0.0020379
0.000905464
-0.00147732
-0.00169766
-0.00255155
-0.00134634
0.001536
-0.000109747
-3.71719e-06
0.000168679
0.00256583
0.000112603
-0.00244151
0.000749526
0.00150522
3.91284e-05
-0.000204019
-0.000183278
0.000277063
-9.42437e-05
0.00051038
0.000472086
-0.00113362
-0.000956772
0.00118624
-0.000796901
0.000711116
-1.15289e-05
-0.000121222
-0.00017058
-0.000105698
0.00275355
-0.000236038
-0.00248634
-6.91051e-05
4.09802e-05
-3.99368e-05
-2.25376e-05
4.26621e-05
0.00340084
2.98338e-05
-0.000647716
-0.00168076
-0.00169384
0.000205418
0.00149093
-0.000428273
0.000397204
4.52432e-05
0.000762643
-0.001159
0.00181683
-0.000200673
-0.00150204
0.000702404
-0.000500415
0.000306337
-0.000224013
-0.0014951
0.000350525
-0.000492922
0.000100709
-0.000349166
2.08448e-05
0.000492193
-0.0013844
3.54429e-05
-3.56683e-05
1.54126e-05
-0.00263017
0.00278263
0.000149506
0.000777387
-0.00523784
0.00355507
0.00185894
-0.00144009
-0.000248595
0.000799189
4.47587e-05
0.00033391
-0.00269116
-0.00263261
0.00236088
0.000261346
-0.00197353
0.00178037
-8.29339e-06
-3.10461e-07
0.00158908
-0.000171673
-0.00135289
0.000494609
-0.000377506
-0.000274599
0.000250792
-0.000253766
0.00106038
-0.00117093
8.05526e-05
0.000291431
-0.000790131
0.000480405
-4.3082e-05
0.000419203
-0.000265484
-4.30046e-05
-0.000533728
0.000497917
-0.000982295
0.00103296
-0.000250407
0.000320212
0.000747365
-0.000889165
0.000187118
-1.80149e-05
0.00441446
0.000207371
0.00168322
-0.00196252
0.00182589
-9.40338e-06
0.000399872
0.00297656
-0.00329269
-2.46788e-05
1.38412e-05
-2.53236e-06
0.000762843
-4.28254e-05
-0.00163347
0.00149768
-1.71431e-05
0.000200019
-0.00269335
0.000351656
0.00240686
-0.00183254
0.00226504
2.22058e-05
-0.000738863
0.00104299
-0.000437533
2.55217e-05
-0.000237721
0.000224392
-0.000214414
-0.0048781
0.00441579
0.000571224
-1.43126e-07
0.000142372
0.000106013
-1.46529e-05
4.9508e-06
-4.9508e-06
-0.00172753
-0.000678392
0.00129554
-0.00124479
-4.71552e-05
0.00266035
-0.00176644
0.000306278
-0.00238027
0.0022362
0.000344617
-0.00373494
0.0036249
-0.00228253
0.000678841
-0.000378392
0.000217807
1.58949e-05
-0.00207514
0.00253252
-0.000506681
0.000692106
0.000597908
0.000124168
-0.00322767
0.00125854
0.0020334
-0.000110917
-0.000111609
3.35225e-05
4.8687e-06
0.000145057
-0.000106443
-5.34488e-05
-0.000114282
1.31635e-06
0.00163362
-0.00116058
0.00364764
-0.00360906
6.99668e-07
-0.000444884
0.000323891
0.000244067
-0.00228115
0.00212304
0.000331546
-0.00214572
-0.00430805
0.00225496
-0.00246423
0.000151824
0.00228903
-0.000384839
-0.00207997
0.00125437
0.00206561
-0.0018201
0.00237765
-0.000257438
4.19189e-05
-0.00335701
0.00362237
-0.000223387
0.000421605
-0.000387312
-2.24379e-05
-0.00413646
0.000931519
0.00313884
-0.00402013
-0.000172069
0.000967827
-0.000177884
-0.00237614
-0.000903675
-0.000124775
0.000993915
-0.000247726
-0.00203255
0.000312032
0.00136645
-0.00306895
0.00148509
0.00159477
0.00025269
-0.000424715
0.000285573
-0.00212125
0.00257592
-3.23243e-05
-0.000578626
-0.00234452
0.00031387
0.00203993
-0.00045449
5.33213e-05
0.000463476
-3.84916e-05
0.000321079
-0.000161125
-0.00443547
-3.25488e-06
-4.02345e-05
5.30475e-05
-0.000175519
-0.000247466
-0.000119081
0.000150433
2.81436e-05
-0.00148113
0.0018367
7.42098e-05
0.000222641
7.18995e-05
-0.000152977
6.77725e-05
-0.000581607
-0.000241441
0.000922593
-0.000424326
3.28075e-05
0.000583314
-0.00130224
-0.00172516
0.000777847
-0.000910628
0.00208834
0.000170252
-0.000661187
6.8327e-05
5.82979e-05
-0.000184199
0.000538121
0.000841678
0.00123998
0.000100459
-0.0010207
6.18793e-06
0.000103645
-0.00328473
-0.000173904
0.00352267
0.00213421
4.57458e-05
1.98581e-05
-3.6784e-05
-0.00388107
-0.000436542
-1.55815e-05
2.21083e-05
-5.34553e-07
0.000262589
-0.000988439
-6.55421e-05
-0.000685041
0.000886426
0.000143082
-9.45706e-05
-0.000314011
1.20657e-05
0.000303499
-0.000498489
-0.00180406
-0.000140679
-0.00294464
0.00197343
1.07295e-05
-0.000128496
5.91603e-05
-0.00235119
0.00188418
-0.00175653
0.00239358
-0.00051324
0.000542819
-0.00220591
-0.00230475
-0.000836439
0.00114501
0.00147131
0.00101318
-5.1225e-06
-0.00115537
0.00394935
-0.000257161
-1.66627e-06
-1.388e-05
0.000156105
-0.000120204
0.000117209
0.000108171
0.00266999
-0.00138011
-0.0012546
0.00170212
-0.00174055
-2.6956e-06
8.97971e-05
0.00158576
-4.59992e-06
0.000159676
1.2402e-05
0.00101384
-0.0012428
0.00127931
-0.000530028
0.000972416
-0.00122527
0.00132754
-0.00300853
0.00296222
0.000741162
-0.000651494
-7.59047e-05
0.0035662
-2.80149e-05
-0.00350708
-0.00346849
0.000268469
-0.00283216
0.00046291
0.0024536
-1.69368e-05
5.50745e-05
-0.00182571
0.00174003
1.91355e-05
-7.32869e-05
-0.00121152
-0.00294652
0.000188181
-0.00164051
0.00123503
-0.00168102
-9.28317e-05
-0.000478532
0.000280435
-0.00211414
-0.000347491
-0.000124799
8.34461e-07
-0.000781689
0.00098325
-7.80035e-05
8.43937e-05
-0.000600872
-0.00157497
-0.000383955
0.00215014
-0.00173677
-6.81997e-05
0.00015629
-0.00028038
0.000165783
9.16237e-06
0.000386705
-0.00272906
-0.00117606
0.00394843
-1.9918e-05
6.33538e-05
0.00179008
-0.0015795
-0.00014554
-0.00175826
0.000166826
0.00173144
0.00243772
-0.00253733
-0.000611258
-0.000216505
0.000162974
0.00235822
0.000379596
-0.00279805
-0.000403906
0.0033122
0.000185514
-0.000345433
3.96649e-06
-0.000252338
0.000410892
-0.00221192
0.00130759
-0.00396835
0.00121052
0.000652047
-0.00170096
-0.000133239
0.00205681
-0.00193482
-0.000736042
-0.000439552
0.00110569
0.000151929
-1.57887e-05
-0.000128065
-6.93664e-06
1.45055e-05
0.000193173
-0.000172479
0.000260758
3.32268e-05
-8.60764e-05
0.000141821
7.72474e-06
-0.000253502
0.00268476
-0.000722321
0.000173413
-0.00288717
0.00236411
0.000613545
0.000558658
1.49263e-05
-0.000543976
-4.21453e-05
0.00243557
-0.000300825
-0.000864909
0.000832866
-0.0022185
0.000965818
0.00138654
0.000379945
-0.000519379
1.5364e-05
0.000810119
-0.000758285
-4.77536e-05
7.77464e-05
5.63844e-06
0.0017139
-0.0018578
0.000548877
-0.000219738
2.06511e-05
0.00010896
-0.00358224
0.00194783
0.00184556
-0.00143589
0.00169235
-0.000196146
7.43547e-05
0.000401186
0.000122282
0.000560499
-0.000299039
3.06319e-05
0.000402083
0.000136583
1.82171e-05
-0.00333826
0.000641313
-0.000516569
-2.51024e-05
8.27236e-05
8.58905e-05
-9.48555e-05
-0.000235593
-0.00146529
-0.0004091
-0.000359481
3.53998e-05
2.25458e-05
3.60367e-05
0.00150518
-4.59093e-05
-0.00123737
-0.000320067
-0.00408418
0.000349097
0.000405693
-0.00125065
0.000100643
-0.00160115
0.000180652
0.00153205
0.000259413
0.00103963
-0.00170473
0.00199216
-0.00201073
0.000137777
0.00157668
-0.000368548
-0.000531989
0.000533072
1.98182e-05
-0.00153626
-0.00192903
-9.44013e-06
5.23498e-07
0.000375767
0.00330683
-0.00351981
0.00195829
-0.000594511
0.000752251
-0.000238542
-0.000449815
0.00196135
-0.00180502
-6.61059e-05
-0.00253679
-0.00260442
0.00250563
-0.000323033
-0.00202316
-0.00148001
5.98362e-05
8.60016e-05
-8.30296e-05
-7.85832e-05
0.000226597
0.000130254
1.02992e-05
-0.000163843
0.000393358
2.37961e-06
-0.00039146
0.00219345
-0.000382045
-0.00161467
0.000682553
0.00285041
-0.000308373
-0.00238137
-0.000695583
0.000801454
-4.30137e-05
-7.06458e-06
4.94305e-06
3.82845e-06
-0.00411247
0.00390552
0.000308918
-0.000708163
0.000926226
0.00176164
-2.97525e-06
-2.1228e-05
0.000446344
-0.000331243
-3.97513e-05
-0.00042568
-0.00356415
-0.00246238
-0.000182117
-0.000229101
-0.00132944
0.00236784
-0.00274
-0.00412164
0.00179756
0.00211398
-0.000262647
0.00217733
-0.00181974
0.000639452
-0.000222029
-0.000361619
0.000327413
0.000467608
0.000319069
-0.000603385
-0.000313115
3.43818e-05
-0.000513786
0.000387626
-1.45883e-05
-0.000233234
0.000441592
-0.000209341
0.00031644
0.000289166
2.21368e-05
-0.000548718
-0.00130126
0.00161537
-0.000126233
-0.00180637
0.000186348
0.00155735
-0.00147824
0.000161887
0.00134705
-0.000135249
0.000122333
5.77365e-05
2.33721e-06
0.00296385
0.000277914
-0.000481164
0.000174194
0.0011238
-0.000310946
-0.00164772
-8.77296e-05
9.38164e-05
0.00402682
-0.00345758
-0.000320374
-0.00060496
-0.000103366
-0.00100721
1.90519e-06
-6.04905e-05
-9.5058e-07
0.000115735
-4.81677e-05
-1.43834e-05
-0.000437047
0.0030652
-0.0025945
-1.85607e-05
-0.00011725
0.00115907
-2.59769e-05
-0.00116195
0.00111795
0.00014646
0.00390538
2.71297e-06
1.71538e-06
-5.34625e-05
-8.49048e-06
-2.02307e-05
-4.44969e-06
-0.00183558
0.00184359
0.000127095
-0.000570412
-0.00182802
5.13772e-06
7.83686e-05
-7.34277e-06
-0.000184924
0.000257438
3.53478e-05
5.00708e-06
-3.01318e-07
0.000356795
-0.000736705
-0.000230574
-0.00121196
0.000348625
0.000307951
0.00290484
-0.0032904
-0.000355068
-0.000530324
-0.00164917
0.00221736
0.00128988
-0.000940257
-0.000189236
0.00095099
-0.00116773
0.000143004
-0.00144929
0.00154233
0.00250182
0.000276677
0.00130883
-0.00212784
0.000863317
-0.00251408
0.00202293
-0.00085321
0.0020715
-0.00231802
-0.00207055
-0.00229777
6.59489e-07
-5.42052e-05
-0.00155528
0.0026836
-0.00116398
-0.00152957
-0.000191944
0.00184743
-0.00193236
-0.00112928
0.00277425
-0.00161836
0.000329581
-0.000469091
-1.96983e-05
0.00253031
-0.00232371
-0.000167216
6.80633e-06
-0.000263156
0.000162626
5.99174e-05
-0.000249293
-8.17672e-06
6.12474e-05
0.000696699
-2.80472e-07
-2.437e-05
-0.000774857
-0.00261962
0.00104206
-0.00096168
0.000880769
8.97127e-05
-5.57012e-05
-0.00374903
0.000147385
0.000853427
-0.000692817
7.21602e-05
-0.00115838
0.00153891
-5.95891e-05
-0.000172877
-5.93687e-05
-0.00103878
5.25812e-05
-0.00118946
0.000378608
-0.00284001
-0.000386331
3.43596e-05
0.000313981
0.000214222
0.00010337
0.000141971
-0.00127993
1.94481e-06
0.000229325
-4.01657e-06
-4.48679e-06
-5.75154e-05
7.75233e-05
5.83561e-05
-0.000971219
0.000816644
-0.000636287
2.49633e-05
0.000503863
0.00151106
-0.00147888
5.14914e-05
7.85863e-05
0.00166938
-0.00291021
-0.000139862
-0.00176378
5.34366e-05
-3.58111e-05
-0.00059263
-0.00101542
0.000882572
1.07105e-05
0.000128659
-0.000734032
-1.64583e-05
-0.00012189
-0.00037034
7.38952e-05
-0.00141082
0.00126366
-2.70802e-05
-0.000381774
0.00253449
0.00175899
0.00259969
0.000239904
-2.36487e-05
-0.000216665
0.000285252
-0.00201367
4.05207e-05
-8.99048e-05
-0.000272469
-0.00387499
0.00204449
0.00187741
0.00181489
0.000609228
5.68787e-05
6.18016e-07
0.000164774
-1.14482e-06
0.000102165
-0.000101968
0.00178101
-0.00334727
0.002182
-0.00247656
-8.04064e-05
-1.21671e-05
8.5529e-05
-0.000109651
5.7771e-05
-4.67809e-05
-0.000382399
-0.00235095
0.000480915
0.00186749
-5.6438e-06
1.23506e-05
0.00182588
-0.000231179
-0.000284127
-0.000353305
0.000582554
-1.64895e-05
-9.37848e-07
0.00141475
-0.00153173
-1.91689e-05
0.000237823
-0.000240119
-0.00030618
0.00338034
0.00264799
0.00106407
-0.000191024
0.000240068
-1.80228e-05
-0.0006884
0.000841416
0.000156543
-0.000202965
4.40294e-06
-3.68301e-05
-0.000260452
-9.79803e-07
-0.000602254
0.00209039
-0.000217332
-1.35765e-05
-0.00310002
0.00332317
-1.46414e-05
5.78759e-05
1.82983e-05
-0.00192654
0.000700212
0.00117791
-0.000162199
0.000464684
-0.000987604
-0.00187356
-2.25619e-05
-0.000405424
1.18198e-07
5.6917e-08
4.45253e-06
0.00137147
-0.00139345
-0.000151873
4.98984e-05
1.03923e-05
0.00217403
-0.000734824
9.67525e-05
-0.00238521
0.000814917
0.00164978
0.00478743
-0.00462268
-0.000444696
0.000126221
-0.000242756
0.000170782
6.6357e-05
0.00127959
0.000205747
-0.000732298
-0.000149696
-0.00205457
0.00186892
0.000159001
0.00112898
-1.54521e-05
-0.00108047
0.000412665
2.2736e-05
-0.000100689
-2.61071e-06
-0.000226694
0.0024838
-0.000497532
0.000189745
0.000197099
0.00110508
2.92469e-05
0.00078284
-0.00462367
-0.00112661
-0.00079155
-0.00203009
-0.00191905
0.000131302
0.00196417
-7.46117e-05
0.00119335
0.000810802
-0.00190636
-0.000102539
6.17434e-05
0.000738303
-0.000155541
-0.00312307
0.00202754
-0.000110053
-0.00270739
-0.000305114
0.00329889
-0.00201807
-0.000165691
0.000682138
-0.00111271
0.00170122
-0.00172878
-0.000176949
-2.9581e-07
-9.62099e-05
0.000249817
-9.48439e-05
-0.000392316
0.000741508
-0.000233573
0.000515427
-0.000533401
5.03881e-05
-0.00159616
0.00132726
0.000291218
0.00296441
-0.00010658
-0.00279311
-2.23787e-05
-2.61581e-08
0.000355562
-1.27487e-05
-0.000344435
-0.000546179
0.00272223
0.000973596
-0.000903685
-0.000155352
-0.000122272
-0.00278548
0.00219222
0.000981953
-0.000985374
-8.31796e-05
3.33618e-05
-0.000743001
0.00210347
-0.000641982
5.90388e-05
0.00057869
-0.000348859
-0.00276188
-3.29378e-06
-1.99923e-05
0.000821741
-0.00109139
-0.00206651
0.00160566
-4.72643e-06
-0.000628296
0.000676194
1.99781e-05
0.00101802
-0.00115799
-0.000137794
1.2274e-05
0.000148641
-4.42986e-05
-0.00020594
9.77787e-06
0.00154255
0.00418149
-5.26089e-06
-0.000168221
0.0016007
-0.00268487
0.000302564
0.00258326
-1.16773e-05
-9.90592e-05
0.000358904
-2.78122e-05
0.000413239
-0.000392141
2.90353e-05
-1.69369e-08
3.46731e-05
-0.00025228
-0.00147813
6.027e-06
1.63241e-05
0.00122808
-2.1579e-05
-0.00119386
-0.00077845
-7.18884e-05
0.000694734
-0.000696882
0.00137219
0.000110323
-0.000695694
0.000364148
-0.00104189
2.98969e-05
0.0010194
0.00211037
-0.00127795
0.000372972
-0.00025188
-0.00144993
0.000222475
0.00112188
0.000116812
-0.000105692
-2.16208e-05
2.33479e-06
-0.000541023
0.00104868
-0.00130887
0.000112859
2.42741e-05
0.000225581
1.23777e-05
-0.000956129
0.000865728
8.06995e-05
0.00127298
-0.000225797
-0.000952047
-0.000849204
0.000709943
0.000120942
0.000116812
-6.9019e-05
0.00216327
-0.000232757
-0.00179628
-0.00277002
0.000323566
-7.70316e-05
-0.00144855
-0.000810316
6.86556e-06
0.000688803
-1.05711e-05
-0.000698027
0.00248917
-0.000116813
0.000114753
-0.000849832
-4.462e-05
-0.000302415
-0.000187823
-0.00149471
0.00186927
-0.00060127
-0.000178963
-0.00354986
0.000232496
-0.000209309
-1.71202e-05
-0.00215895
-0.00281952
-0.000128821
-0.00200484
-0.000604429
0.000641745
2.04613e-05
3.61853e-07
-7.37121e-06
0.000358918
0.00195113
-0.00176661
-5.55361e-05
-0.000108306
0.00115441
-0.00081902
-0.000687773
0.00365783
-7.62556e-05
0.000289714
-0.000878301
0.000658246
-0.00034298
-0.00167693
0.00217341
-0.0025125
0.00108057
6.48509e-05
-0.000923429
0.000424655
-0.00327095
0.00380782
-0.00223221
0.000276272
0.00199925
-0.000461666
0.000134448
-0.000423795
-0.00330287
0.00323143
0.000194878
0.00259627
-0.000493758
-0.00076667
-0.000103926
-7.39103e-07
-0.000185374
0.000219221
0.00210183
-0.0010351
-0.000932754
-1.3832e-06
4.88386e-07
1.71856e-06
-0.0001882
-0.000760927
-0.000118348
0.000950032
0.000322217
-0.00346538
0.00334713
0.000819615
-0.000506842
-4.37081e-05
-2.93299e-06
0.00374708
0.000247875
0.000760845
-0.000780737
-6.48323e-05
0.00162144
-0.00123816
-0.000238085
1.30771e-05
-0.000307999
-0.00126886
-1.63883e-05
-1.20659e-05
1.35565e-05
-5.60404e-06
0.000111805
-0.000676845
-7.2865e-05
0.000692272
-2.92162e-05
0.000300371
-6.22391e-05
0.00114636
-0.000153322
-5.32811e-05
-0.000571383
0.000145466
-0.00357933
0.0035345
0.00103724
-0.00150199
0.00179279
0.000476566
0.000130636
-0.000167476
9.32348e-05
6.5614e-06
0.00243707
-0.00277474
0.000379317
-1.17464e-05
0.000555182
-9.35899e-05
-0.000495046
9.33269e-06
-7.22963e-05
-0.000679948
0.000567429
-0.000429142
0.00133407
0.000115512
0.000264455
-2.04506e-05
9.66048e-05
-0.00105302
-0.000214771
-0.00228471
3.281e-06
-4.14432e-05
5.50513e-05
5.41182e-05
0.00249465
-0.000250141
1.94283e-05
0.000225904
0.000896159
0.00101311
-0.00232282
0.00229451
0.000183084
-0.000331446
0.00147128
-0.00199121
0.00064725
-0.000781074
-0.000643259
-1.78592e-05
0.000830768
0.000203744
-0.0014283
0.000551623
4.01377e-05
8.64567e-05
-0.000817872
-0.00281423
-0.000365302
-0.00335865
0.00057613
-0.00155444
0.000241917
-3.86322e-05
-0.00329726
0.0030933
-0.00358524
0.00383402
-0.00351399
0.0017886
7.05786e-05
1.92782e-05
-6.68839e-05
-0.00138843
0.00114887
0.000446441
6.06063e-06
0.000443332
-0.000666284
-5.61443e-06
-0.00056903
0.00223688
-0.00206637
-0.000134211
0.00133846
-0.00145517
-8.51971e-06
8.63298e-05
0.00266346
-0.000269709
-0.00228837
-0.000562231
-0.00213706
-0.000120736
-0.000106904
-0.000149323
-0.000216519
-1.5289e-05
8.2102e-06
8.62021e-05
1.01989e-05
0.000230663
0.0023087
-8.27853e-05
-0.00165232
3.49387e-05
0.00172675
-0.000856954
-7.9619e-06
0.000886399
-0.00152384
0.00146643
0.000161084
8.3881e-05
-0.00147434
0.00148369
0.000247268
-0.000270986
-0.000246202
0.000266232
-0.000257279
9.96831e-05
0.00347334
-0.00352765
0.000908252
-0.000109088
-0.00086641
0.00194593
-0.000106523
-0.00180057
6.43485e-06
-0.000466675
0.000477478
0.00010331
-0.000317862
0.00133827
-0.00168204
-0.000143546
-0.000855226
-0.00103957
-0.00203692
-0.00018621
0.000255039
-0.00197852
-0.000120814
0.00209566
0.00290521
-0.000464702
0.00245044
-0.0025924
-0.000320271
-0.000507727
2.76713e-05
-0.00346633
0.00361064
-0.00239757
-0.000298502
0.00277087
0.000183526
-0.00233777
0.002059
-0.000287085
-0.00213049
0.00251196
6.39169e-05
5.03989e-05
0.000427481
-0.000471998
0.000349878
0.00253381
-0.00267731
-0.00221159
0.000265928
-0.00038066
-0.000161805
-0.00123453
0.00118144
-0.00236811
0.00122979
4.73809e-05
0.001203
-0.00018029
-0.00124187
0.000428836
-0.00010408
-0.00085957
-1.20275e-05
3.7073e-05
0.000348926
0.00105124
-0.00115017
-0.000775695
0.00313715
-0.00323492
3.25398e-06
-0.00112953
-0.000211412
-0.000981479
0.000359509
0.00138548
-9.28958e-05
-0.00118528
-0.00207328
3.3792e-05
0.00199771
-0.000117486
0.000150939
0.000893463
-0.000679614
0.00299972
-0.00138557
0.00136561
-9.81836e-05
0.00012302
-0.000151269
0.00138299
-0.00109132
0.00235722
-0.00217883
-0.000138594
-0.000725549
4.73719e-05
0.000736216
0.000137318
-0.000909262
0.000816243
-0.000177536
0.00176745
-0.00110044
-0.000121688
-1.17237e-05
-0.000540937
0.000151599
-0.000189329
0.000367702
-0.000308195
-3.23557e-05
-6.93797e-05
-0.00126825
0.000539217
-0.000343084
-8.87725e-05
-0.000833299
-0.00139587
0.0022413
-0.000404643
0.000878409
-0.000107802
0.000616578
-6.76298e-05
-0.000541981
0.00011853
0.00113305
0.00109754
-0.00107682
0.00257779
-9.10189e-05
0.000816493
0.000862714
-0.000744222
-2.53187e-05
0.00151484
-8.81942e-05
-0.00135123
-0.000721171
-7.73615e-05
0.000495974
-0.000488526
3.76414e-05
-0.000945335
0.000106627
-0.000562612
-3.72184e-05
-0.00172353
0.000309118
0.00159748
0.00155914
-0.00173799
0.000378099
-5.21268e-05
0.000627159
-0.000662745
0.00109702
-7.5357e-05
-0.00213949
0.00012529
-0.00136438
-0.00198907
6.77167e-05
-0.000589559
0.000515043
7.60793e-05
1.19305e-05
-0.000154972
0.00138678
9.07406e-05
-0.000812409
8.2322e-05
-0.000167382
-0.00113979
0.000883017
-0.000959024
1.2702e-05
0.00173258
0.000910248
-5.48079e-07
1.77376e-06
0.00143352
-2.42356e-05
-0.00145932
-0.00221249
0.000131121
0.00210916
0.000212831
-0.000206464
-0.00321091
-0.000428011
-2.30542e-06
0.000473329
-3.58642e-05
0.00092524
-0.000754261
0.00057798
0.000196304
0.000107762
0.000946906
0.000189644
0.000531954
-0.000508534
-0.00319674
-0.000229828
0.00125246
-0.000659345
6.85528e-05
-0.000273264
-0.00306621
-0.000603525
-0.00195981
-0.000183894
-0.000124491
0.000266361
-5.84669e-05
-0.000483922
0.002077
-0.00184674
0.00218212
-0.000400637
0.000715166
0.00295533
-0.00263764
-0.000276526
-0.00116082
0.000747395
0.000206797
0.00316902
-5.2492e-05
-0.000696318
-8.61096e-05
5.68631e-07
0.000149306
-0.00015264
-0.00181887
-0.000527695
0.00302843
0.000210176
-4.75707e-05
0.00107941
0.000147584
-0.00123204
0.00226603
0.000147244
-0.00104717
0.000987472
0.00095981
-8.47274e-05
-0.000598825
0.000309189
-0.00223573
-8.04853e-05
-0.000140452
-0.00204737
-0.000267352
-9.12317e-06
0.00044264
0.00161627
-0.00142927
-0.000104978
2.08112e-06
-3.18964e-05
0.000166265
-8.40642e-05
0.000145764
1.86055e-05
0.000291976
-0.00411124
-0.000157853
0.00125557
4.59768e-05
0.00209598
1.39213e-05
0.000956991
-0.000150312
-0.000691508
-0.00245455
-0.000974411
-4.3512e-05
5.35788e-06
0.000198723
2.06795e-06
0.00113206
-0.00119185
4.38901e-05
-0.000118346
-0.000177837
-0.000170324
-3.52333e-05
-4.64938e-07
2.4854e-05
-0.000343534
-0.00331972
0.0037904
0.00280264
-0.000115579
-0.00263239
-0.00183254
0.00163113
-0.0014306
8.57923e-05
0.00149201
2.70833e-05
0.000496031
-0.000506228
-0.00167594
-0.000181945
-0.0021532
2.20945e-05
0.000493482
0.00146493
-4.01144e-05
-0.00147913
-0.000920222
0.000167841
-0.000131836
-3.67056e-05
8.52121e-06
4.62552e-05
4.05876e-05
-0.000524202
-0.000835511
9.93751e-05
0.000728258
0.000262999
0.000831657
8.61505e-05