/*--------------------------------*- C++ -*----------------------------------*\
| =========                 |                                                 |
| \\      /  F ield         | OpenFOAM: The Open Source CFD Toolbox           |
|  \\    /   O peration     | Version:  v2012                                 |
|   \\  /    A nd           | Website:  www.openfoam.com                      |
|    \\/     M anipulation  |                                                 |
\*---------------------------------------------------------------------------*/
FoamFile
{
    version     2.0;
    format      ascii;
    class       pointVectorField;
    location    "750";
    object      pointDisplacement;
}
// * * * * * * * * * * * * * * * * * * * * * * * * * * * * * * * * * * * * * //

dimensions      [0 1 0 0 0 0 0];


internalField   nonuniform List<vector> 
10400
(
(0 0 0)
(0 0 0)
(0 0 0)
(0 0 0)
(0 0 0)
(0 0 0)
(0 0 0)
(0 0 0)
(0 0 0)
(0 0 0)
(0 0 0)
(0 0 0)
(0 0 0)
(0 0 0)
(0 0 0)
(0 0 0)
(0 0 0)
(0 0 0)
(0 0 0)
(0 0 0)
(0 0 0)
(0 0 0)
(0 0 0)
(0 0 0)
(0 0 0)
(0 0 0)
(0 0 0)
(0 0 0)
(0 0 0)
(0 0 0)
(0 0 0)
(0 0 0)
(0 0 0)
(0 0 0)
(0 0 0)
(0 0 0)
(0 0 0)
(0 0 0)
(0 0 0)
(0 0 0)
(0 0 0)
(0 0 0)
(0 0 0)
(0 0 0)
(0 0 0)
(0 0 0)
(0 0 0)
(0 0 0)
(0 0 0)
(0 0 0)
(0 0 0)
(0 0 0)
(0 0 0)
(0 0 0)
(0 0 0)
(0 0 0)
(0 0 0)
(0 0 0)
(0 0 0)
(0 0 0)
(0 0 0)
(0 0 0)
(0 0 0)
(0 0 0)
(0 0 0)
(0 0 0)
(0 0 0)
(0 0 0)
(0 0 0)
(0 0 0)
(0 0 0)
(0 0 0)
(0 0 0)
(0 0 0)
(0 0 0)
(0 0 0)
(0 0 0)
(0 0 0)
(0 0 0)
(0 0 0)
(0 0 0)
(0 0 0)
(0 0 0)
(0 0 0)
(0 0 0)
(0 0 0)
(0 0 0)
(0 0 0)
(0 0 0)
(0 0 0)
(0 0 0)
(0 0 0)
(0 0 0)
(0 0 0)
(0 0 0)
(0 0 0)
(0 0 0)
(0 0 0)
(0 0 0)
(0 0 0)
(0 0 0)
(0 0 0)
(0 0 0)
(0 0 0)
(0 0 0)
(0 0 0)
(0 0 0)
(0 0 0)
(0 0 0)
(0 0 0)
(0 0 0)
(0 0 0)
(0 0 0)
(0 0 0)
(0 0 0)
(0 0 0)
(0 0 0)
(0 0 0)
(0 0 0)
(0 0 0)
(0 0 0)
(0 0 0)
(0 0 0)
(0 0 0)
(0 0 0)
(0 0 0)
(0 0 0)
(0 0 0)
(0 0 0)
(0 0 0)
(0 0 0)
(0 0 0)
(0 0 0)
(0 0 0)
(0 0 0)
(0 0 0)
(0 0 0)
(0 0 0)
(0 0 0)
(0 0 0)
(0 0 0)
(0 0 0)
(0 0 0)
(0 0 0)
(0 0 0)
(0 0 0)
(0 0 0)
(0 0 0)
(0 0 0)
(0 0 0)
(0 0 0)
(0 0 0)
(0 0 0)
(0 0 0)
(0 0 0)
(0 0 0)
(0 0 0)
(0 0 0)
(0 0 0)
(0 0 0)
(0 0 0)
(0 0 0)
(0 0 0)
(0 0 0)
(0 0 0)
(0 0 0)
(0 0 0)
(0 0 0)
(0 0 0)
(0 0 0)
(0 0 0)
(0 0 0)
(0 0 0)
(0 0 0)
(0 0 0)
(0 0 0)
(0 0 0)
(0 0 0)
(0 0 0)
(0 0 0)
(0 0 0)
(0 0 0)
(0 0 0)
(0 0 0)
(0 0 0)
(0 0 0)
(0 0 0)
(0 0 0)
(0 0 0)
(0 0 0)
(0 0 0)
(0 0 0)
(0 0 0)
(0 0 0)
(0 0 0)
(0 0 0)
(0 0 0)
(0 0 0)
(0 0 0)
(0 0 0)
(0 0 0)
(0 0 0)
(0 0 0)
(0 0 0)
(0 0 0)
(0 0 0)
(0 0 0)
(0 0 0)
(0 0 0)
(0 0 0)
(0 0 0)
(0 0 0)
(0 0 0)
(0 0 0)
(0 0 0)
(0 0 0)
(0 0 0)
(0 0 0)
(0 0 0)
(0 0 0)
(0 0 0)
(0 0 0)
(0 0 0)
(0 0 0)
(0 0 0)
(0 0 0)
(0 0 0)
(0 0 0)
(0 0 0)
(0 0 0)
(0 0 0)
(0 0 0)
(0 0 0)
(0 0 0)
(0 0 0)
(0 0 0)
(0 0 0)
(0 0 0)
(0 0 0)
(0 0 0)
(0 0 0)
(0 0 0)
(0 0 0)
(0 0 0)
(0 0 0)
(0 0 0)
(0 0 0)
(0 0 0)
(0 0 0)
(0 0 0)
(0 0 0)
(0 0 0)
(0 0 0)
(0 0 0)
(0 0 0)
(0 0 0)
(0 0 0)
(0 0 0)
(0 -0.000143047 0)
(0 -0.000143508 0)
(0 -0.000109563 0)
(0 -8.7935e-05 0)
(0 -0.000121138 0)
(0 -5.99864e-05 0)
(0 -0.000122881 0)
(0 -0.000124898 0)
(0 -7.51327e-05 0)
(0 -0.000102828 0)
(0 -6.51812e-05 0)
(0 -6.23539e-05 0)
(0 -5.82426e-05 0)
(0 -5.24506e-05 0)
(0 -4.02788e-05 0)
(0 -3.64405e-05 0)
(0 -3.14639e-05 0)
(0 -2.97041e-05 0)
(0 -0.000116817 0)
(0 -0.000101416 0)
(0 -1.92277e-05 0)
(0 -2.0742e-05 0)
(0 -0.000106933 0)
(0 -8.20469e-05 0)
(0 -0.000135086 0)
(0 -0.000143138 0)
(0 -0.000137666 0)
(0 -0.000124359 0)
(0 -6.46713e-05 0)
(0 -8.21931e-05 0)
(0 -5.11157e-05 0)
(0 -6.21699e-05 0)
(0 -5.08135e-05 0)
(0 -9.937e-06 0)
(0 -1.05314e-05 0)
(0 -0.000138539 0)
(0 -0.000141633 0)
(0 -0.000148436 0)
(0 -0.000118685 0)
(0 -0.000114764 0)
(0 -0.000114642 0)
(0 -0.000106438 0)
(0 -9.66603e-05 0)
(0 -2.29011e-05 0)
(0 -5.15299e-05 0)
(0 -8.13777e-05 0)
(0 -6.07353e-05 0)
(0 -2.51532e-05 0)
(0 -3.32493e-05 0)
(0 -3.64473e-05 0)
(0 -6.99907e-05 0)
(0 -4.28945e-06 0)
(0 -0.00172792 0)
(0 -0.00178272 0)
(0 -0.00170168 0)
(0 -0.0017562 0)
(0 -0.00167635 0)
(0 -0.00173246 0)
(0 -0.00165115 0)
(0 -0.00170536 0)
(0 -0.00162545 0)
(0 -0.00167855 0)
(0 -0.00160181 0)
(0 -0.00165544 0)
(0 -0.00158081 0)
(0 -0.00163326 0)
(0 -0.00156143 0)
(0 -0.00161419 0)
(0 -0.00154295 0)
(0 -0.00159748 0)
(0 -0.00152663 0)
(0 -0.00159187 0)
(0 -0.00150971 0)
(0 -0.00156681 0)
(0 -0.00149239 0)
(0 -0.00291917 0)
(0 -0.00294447 0)
(0 -0.002981 0)
(0 -0.00296727 0)
(0 -0.00300251 0)
(0 -0.00303237 0)
(0 -0.00302044 0)
(0 -0.0030494 0)
(0 -0.00307502 0)
(0 -0.00306441 0)
(0 -0.00308917 0)
(0 -0.00309763 0)
(0 -0.00311116 0)
(0 -0.00310045 0)
(0 -0.00312108 0)
(0 -0.00312954 0)
(0 -0.0031384 0)
(0 -0.00315219 0)
(0 -0.00314431 0)
(0 -0.00315734 0)
(0 -0.00316226 0)
(0 -0.00316627 0)
(0 -0.00315871 0)
(0 -0.00316601 0)
(0 -0.00317161 0)
(0 -0.00317052 0)
(0 -0.00316301 0)
(0 -0.00316649 0)
(0 -0.00317153 0)
(0 -0.00316664 0)
(0 -0.00316343 0)
(0 -0.00315924 0)
(0 -0.00315576 0)
(0 -0.0031573 0)
(0 -0.00314903 0)
(0 -0.0031459 0)
(0 -0.003138 0)
(0 -0.00313778 0)
(0 -0.00312719 0)
(0 -0.00312532 0)
(0 -0.00311395 0)
(0 -0.00311419 0)
(0 -0.00310025 0)
(0 -0.00154837 0)
(0 -0.0014783 0)
(0 -0.00308293 0)
(0 -0.00308247 0)
(0 -0.00306443 0)
(0 -0.00304246 0)
(0 -0.003044 0)
(0 -0.00302212 0)
(0 -0.00301801 0)
(0 -0.00299766 0)
(0 -0.0029982 0)
(0 -0.00297329 0)
(0 -0.00296996 0)
(0 -0.00294531 0)
(0 -0.00291498 0)
(0 -0.00291551 0)
(0 -0.0028877 0)
(0 -0.00285681 0)
(0 -0.00285654 0)
(0 -0.00282706 0)
(0 -0.002823 0)
(0 -0.00279443 0)
(0 -0.00279652 0)
(0 -0.00276249 0)
(0 -0.00275723 0)
(0 -0.00272495 0)
(0 -0.0015354 0)
(0 -0.00146567 0)
(0 -0.00272687 0)
(0 -0.00268954 0)
(0 -0.00268557 0)
(0 -0.00265063 0)
(0 -0.00260999 0)
(0 -0.00261332 0)
(0 -0.00257367 0)
(0 -0.00256759 0)
(0 -0.00253231 0)
(0 -0.00253546 0)
(0 -0.00249499 0)
(0 -0.00248929 0)
(0 -0.00245289 0)
(0 -0.00245527 0)
(0 -0.00241361 0)
(0 -0.00240939 0)
(0 -0.00237043 0)
(0 -0.00232573 0)
(0 -0.00232997 0)
(0 -0.00228578 0)
(0 -0.00224028 0)
(0 -0.00224406 0)
(0 -0.00219901 0)
(0 -0.00219375 0)
(0 -0.00152672 0)
(0 -0.00145382 0)
(0 -0.00220072 0)
(0 -0.00215595 0)
(0 -0.00215531 0)
(0 -0.00211128 0)
(0 -0.00151359 0)
(0 -0.00144102 0)
(0 -0.00138211 0)
(0 -0.0013708 0)
(0 -0.00131251 0)
(0 -0.00130367 0)
(0 -0.00124496 0)
(0 -0.00123992 0)
(0 -0.00118023 0)
(0 -0.00118024 0)
(0 -0.00111938 0)
(0 -0.001116 0)
(0 -0.00106176 0)
(0 -0.0010615 0)
(0 -0.00100834 0)
(0 -0.0010095 0)
(0 -0.000958356 0)
(0 -0.000962969 0)
(0 -0.000910919 0)
(0 -0.000921136 0)
(0 -0.00086694 0)
(0 -0.000879291 0)
(0 -0.000826088 0)
(0 -0.000837244 0)
(0 -0.000787432 0)
(0 -0.000799686 0)
(0 -0.00075209 0)
(0 -0.00210846 0)
(0 -0.000764482 0)
(0 -0.000719527 0)
(0 -0.00206525 0)
(0 -0.000732943 0)
(0 -0.000689613 0)
(0 -0.000704204 0)
(0 -0.000660694 0)
(0 -0.00206023 0)
(0 -0.00149889 0)
(0 -0.00100707 0)
(0 -0.00111123 0)
(0 -0.00201762 0)
(0 -0.0020105 0)
(0 -0.00196804 0)
(0 -0.0019593 0)
(0 -0.00199976 0)
(0 -0.000849081 0)
(0 -0.0019467 0)
(0 -0.00198519 0)
(0 -0.00190697 0)
(0 -0.00189306 0)
(0 -0.00185398 0)
(0 -0.000775178 0)
(0 -0.00183892 0)
(0 -0.00180005 0)
(0 -0.0017842 0)
(0 -0.00197301 0)
(0 -0.00174546 0)
(0 -0.00172867 0)
(0 -0.00157326 0)
(0 -0.00155724 0)
(0 -0.00163278 0)
(0 -0.00161622 0)
(0 -0.00169054 0)
(0 -0.00167366 0)
(0 -0.0017445 0)
(0 -0.00173008 0)
(0 -0.00180792 0)
(0 -0.00178306 0)
(0 -0.00185338 0)
(0 -0.00183009 0)
(0 -0.00189712 0)
(0 -0.00187535 0)
(0 -0.00194877 0)
(0 -0.00168994 0)
(0 -0.00167174 0)
(0 -0.00170712 0)
(0 -0.00191762 0)
(0 -0.00198519 0)
(0 -0.00185298 0)
(0 -0.00164894 0)
(0 -0.00168173 0)
(0 -0.00161449 0)
(0 -0.00195366 0)
(0 -0.00202007 0)
(0 -0.00159049 0)
(0 -0.00155661 0)
(0 -0.00153153 0)
(0 -0.00198591 0)
(0 -0.002051 0)
(0 -0.00149814 0)
(0 -0.00147217 0)
(0 -0.00201308 0)
(0 -0.00207758 0)
(0 -0.00143941 0)
(0 -0.00141279 0)
(0 -0.00203625 0)
(0 -0.00210004 0)
(0 -0.00138035 0)
(0 -0.00140457 0)
(0 -0.00135302 0)
(0 -0.00138287 0)
(0 -0.00151104 0)
(0 -0.00205515 0)
(0 -0.00211802 0)
(0 -0.00199003 0)
(0 -0.00132236 0)
(0 -0.00134953 0)
(0 -0.0012932 0)
(0 -0.00206983 0)
(0 -0.00213146 0)
(0 -0.00126207 0)
(0 -0.00123331 0)
(0 -0.00207947 0)
(0 -0.00214056 0)
(0 -0.00120228 0)
(0 -0.00208446 0)
(0 -0.00214551 0)
(0 -0.00117378 0)
(0 -0.0016626 0)
(0 -0.00114286 0)
(0 -0.00208526 0)
(0 -0.00214624 0)
(0 -0.00111504 0)
(0 -0.00108361 0)
(0 -0.002204 0)
(0 -0.00220548 0)
(0 -0.0021422 0)
(0 -0.00220179 0)
(0 -0.0022629 0)
(0 -0.00225922 0)
(0 -0.00219313 0)
(0 -0.00224978 0)
(0 -0.00231594 0)
(0 -0.00230498 0)
(0 -0.00223483 0)
(0 -0.00228761 0)
(0 -0.00235839 0)
(0 -0.00233965 0)
(0 -0.00287818 0)
(0 -0.00105639 0)
(0 -0.00102462 0)
(0 -0.00104936 0)
(0 -0.00226137 0)
(0 -0.00231267 0)
(0 -0.00239787 0)
(0 -0.00236003 0)
(0 -0.00227993 0)
(0 -0.00232781 0)
(0 -0.00240359 0)
(0 -0.00237311 0)
(0 -0.00229233 0)
(0 -0.00233569 0)
(0 -0.00241522 0)
(0 -0.00237639 0)
(0 -0.000644223 0)
(0 -0.00245489 0)
(0 -0.00241585 0)
(0 -0.00233572 0)
(0 -0.00237346 0)
(0 -0.0019228 0)
(0 -0.000990077 0)
(0 -0.0010123 0)
(0 -0.00096617 0)
(0 -0.0024529 0)
(0 -0.00240856 0)
(0 -0.00231813 0)
(0 -0.00236283 0)
(0 -0.00244281 0)
(0 -0.00239449 0)
(0 -0.00231258 0)
(0 -0.00233882 0)
(0 -0.00242519 0)
(0 -0.00237135 0)
(0 -0.00216242 0)
(0 -0.0022812 0)
(0 -0.00231677 0)
(0 -0.0024006 0)
(0 -0.00234622 0)
(0 -0.00226128 0)
(0 -0.00228997 0)
(0 -0.00237286 0)
(0 -0.00231613 0)
(0 -0.00170118 0)
(0 -0.0020243 0)
(0 -0.00108514 0)
(0 -0.00223184 0)
(0 -0.00225743 0)
(0 -0.00234011 0)
(0 -0.00228086 0)
(0 -0.0023612 0)
(0 -0.00230121 0)
(0 -0.00222186 0)
(0 -0.00224136 0)
(0 -0.00231854 0)
(0 -0.00225751 0)
(0 -0.00218202 0)
(0 -0.00219579 0)
(0 -0.000931533 0)
(0 -0.000908227 0)
(0 -0.00227038 0)
(0 -0.00220617 0)
(0 -0.00212431 0)
(0 -0.00214183 0)
(0 -0.00221575 0)
(0 -0.00214933 0)
(0 -0.00206432 0)
(0 -0.00207967 0)
(0 -0.00215707 0)
(0 -0.00208738 0)
(0 -0.00199671 0)
(0 -0.00201637 0)
(0 -0.00209445 0)
(0 -0.00202359 0)
(0 -0.00193598 0)
(0 -0.00195352 0)
(0 -0.00202852 0)
(0 -0.00195845 0)
(0 -0.00188456 0)
(0 -0.00188909 0)
(0 -0.000873893 0)
(0 -0.00202993 0)
(0 -0.000851162 0)
(0 -0.00181316 0)
(0 -0.00181961 0)
(0 -0.000817221 0)
(0 -0.00174217 0)
(0 -0.00174909 0)
(0 -0.000795231 0)
(0 -0.000761487 0)
(0 -0.000781389 0)
(0 -0.00167026 0)
(0 -0.00167776 0)
(0 -0.00175354 0)
(0 -0.00168361 0)
(0 -0.0016624 0)
(0 -0.00160653 0)
(0 -0.00161369 0)
(0 -0.000740064 0)
(0 -0.000773257 0)
(0 -0.000706705 0)
(0 -0.00153538 0)
(0 -0.0015432 0)
(0 -0.00168779 0)
(0 -0.000685574 0)
(0 -0.000653086 0)
(0 -0.00146353 0)
(0 -0.00147205 0)
(0 -0.00139148 0)
(0 -0.00140062 0)
(0 -0.000632184 0)
(0 -0.000600748 0)
(0 -0.00131994 0)
(0 -0.00132983 0)
(0 -0.00140759 0)
(0 -0.00133778 0)
(0 -0.00126071 0)
(0 -0.00126901 0)
(0 -0.00130797 0)
(0 -0.000580226 0)
(0 -0.000549811 0)
(0 -0.000567741 0)
(0 -0.00134362 0)
(0 -0.00127536 0)
(0 -0.00120123 0)
(0 -0.00120825 0)
(0 -0.000517805 0)
(0 -0.000533123 0)
(0 -0.00174537 0)
(0 -0.00165914 0)
(0 -0.00113452 0)
(0 -0.00114232 0)
(0 -0.00089378 0)
(0 -0.000950222 0)
(0 -0.000901098 0)
(0 -0.000956515 0)
(0 -0.000906294 0)
(0 -0.000960774 0)
(0 -0.000909496 0)
(0 -0.000529677 0)
(0 -0.000557446 0)
(0 -0.00134681 0)
(0 -0.00142598 0)
(0 -0.000855177 0)
(0 -0.000857522 0)
(0 -0.00106884 0)
(0 -0.00107709 0)
(0 -0.000963003 0)
(0 -0.00159771 0)
(0 -0.000484355 0)
(0 -0.000497064 0)
(0 -0.00101455 0)
(0 -0.00100422 0)
(0 -0.00101256 0)
(0 -0.000803374 0)
(0 -0.000805041 0)
(0 -0.00050733 0)
(0 -0.000532517 0)
(0 -0.00101571 0)
(0 -0.00106743 0)
(0 -0.000993658 0)
(0 -0.000710345 0)
(0 -0.000737263 0)
(0 -0.000753743 0)
(0 -0.000723633 0)
(0 -0.000768917 0)
(0 -0.000798716 0)
(0 -0.000814801 0)
(0 -0.000845229 0)
(0 -0.000862378 0)
(0 -0.000892931 0)
(0 -0.000912895 0)
(0 -0.000878531 0)
(0 -0.000932273 0)
(0 -0.000967066 0)
(0 -0.000990478 0)
(0 -0.000952106 0)
(0 -0.00101403 0)
(0 -0.00102443 0)
(0 -0.00097131 0)
(0 -0.00103456 0)
(0 -0.000986374 0)
(0 -0.00104905 0)
(0 -0.00099477 0)
(0 -0.00105701 0)
(0 -0.00111381 0)
(0 -0.00112237 0)
(0 -0.0011807 0)
(0 -0.00119087 0)
(0 -0.0011291 0)
(0 -0.00119862 0)
(0 -0.000934997 0)
(0 -0.00113325 0)
(0 -0.00120265 0)
(0 -0.00124959 0)
(0 -0.00113273 0)
(0 -0.00120025 0)
(0 -0.00112518 0)
(0 -0.00119077 0)
(0 -0.00105975 0)
(0 -0.00126658 0)
(0 -0.0012566 0)
(0 -0.00117637 0)
(0 -0.00124155 0)
(0 -0.00108289 0)
(0 -0.00101859 0)
(0 -0.000948762 0)
(0 -0.000954971 0)
(0 -0.000449629 0)
(0 -0.000459654 0)
(0 -0.0008848 0)
(0 -0.000891687 0)
(0 -0.000750948 0)
(0 -0.000752161 0)
(0 -0.00115738 0)
(0 -0.0012225 0)
(0 -0.00205708 0)
(0 -0.00219819 0)
(0 -0.000482858 0)
(0 -0.000505575 0)
(0 -0.00162755 0)
(0 -0.00102257 0)
(0 -0.000821847 0)
(0 -0.000829411 0)
(0 -0.00106742 0)
(0 -0.00111943 0)
(0 -0.000978592 0)
(0 -0.000744883 0)
(0 -0.00133364 0)
(0 -0.00113422 0)
(0 -0.00119952 0)
(0 -0.000413124 0)
(0 -0.000404083 0)
(0 -0.000419599 0)
(0 -0.000467588 0)
(0 -0.000697907 0)
(0 -0.000698779 0)
(0 -0.000751836 0)
(0 -0.000698229 0)
(0 -0.000749954 0)
(0 -0.000696136 0)
(0 -0.000746328 0)
(0 -0.000692268 0)
(0 -0.000740845 0)
(0 -0.000686727 0)
(0 -0.000760931 0)
(0 -0.000768889 0)
(0 -0.0012867 0)
(0 -0.00126377 0)
(0 -0.00117303 0)
(0 -0.00123937 0)
(0 -0.000638153 0)
(0 -0.000632733 0)
(0 -0.000456208 0)
(0 -0.000476552 0)
(0 -0.000753741 0)
(0 -0.00118489 0)
(0 -0.000736614 0)
(0 -0.000644878 0)
(0 -0.00132857 0)
(0 -0.00130804 0)
(0 -0.00120627 0)
(0 -0.00127676 0)
(0 -0.00138788 0)
(0 -0.00134598 0)
(0 -0.00123583 0)
(0 -0.0013078 0)
(0 -0.0014197 0)
(0 -0.00137715 0)
(0 -0.00126432 0)
(0 -0.00133582 0)
(0 -0.000425196 0)
(0 -0.000473886 0)
(0 -0.000369133 0)
(0 -0.000360648 0)
(0 -0.00145954 0)
(0 -0.00140166 0)
(0 -0.00128523 0)
(0 -0.00135148 0)
(0 -0.00111805 0)
(0 -0.00117044 0)
(0 -0.000700956 0)
(0 -0.000709624 0)
(0 -0.00073363 0)
(0 -0.00146774 0)
(0 -0.00141798 0)
(0 -0.00129506 0)
(0 -0.00135976 0)
(0 -0.000834394 0)
(0 -0.00148287 0)
(0 -0.00142398 0)
(0 -0.00129926 0)
(0 -0.00136395 0)
(0 -0.000584029 0)
(0 -0.000578905 0)
(0 -0.000430635 0)
(0 -0.00123643 0)
(0 -0.0013009 0)
(0 -0.00142748 0)
(0 -0.0013652 0)
(0 -0.00149046 0)
(0 -0.00143036 0)
(0 -0.00130235 0)
(0 -0.0013695 0)
(0 -0.00149559 0)
(0 -0.00143558 0)
(0 -0.00130597 0)
(0 -0.00137208 0)
(0 -0.00149915 0)
(0 -0.0014353 0)
(0 -0.00130593 0)
(0 -0.00136849 0)
(0 -0.00052708 0)
(0 -0.00176166 0)
(0 -0.00149624 0)
(0 -0.00142742 0)
(0 -0.00129843 0)
(0 -0.00135654 0)
(0 -0.000642554 0)
(0 -0.000427452 0)
(0 -0.000408324 0)
(0 -0.000445479 0)
(0 -0.000327606 0)
(0 -0.000319276 0)
(0 -0.00148355 0)
(0 -0.00141245 0)
(0 -0.00128378 0)
(0 -0.00133991 0)
(0 -0.00120937 0)
(0 -0.00126516 0)
(0 -0.0013943 0)
(0 -0.00132007 0)
(0 -0.000458666 0)
(0 -0.000442511 0)
(0 -0.000490981 0)
(0 -0.000474278 0)
(0 -0.00052193 0)
(0 -0.000506873 0)
(0 -0.000553422 0)
(0 -0.000542168 0)
(0 -0.000588934 0)
(0 -0.000581001 0)
(0 -0.000635806 0)
(0 -0.000623621 0)
(0 -0.000675734 0)
(0 -0.00066821 0)
(0 -0.000720744 0)
(0 -0.000715977 0)
(0 -0.000663556 0)
(0 -0.000712668 0)
(0 -0.000660375 0)
(0 -0.000710055 0)
(0 -0.000658812 0)
(0 -0.000709831 0)
(0 -0.000657594 0)
(0 -0.000711662 0)
(0 -0.000658154 0)
(0 -0.000714117 0)
(0 -0.000661547 0)
(0 -0.000718399 0)
(0 -0.000666199 0)
(0 -0.000724375 0)
(0 -0.000672442 0)
(0 -0.000732639 0)
(0 -0.000785347 0)
(0 -0.000795046 0)
(0 -0.000742898 0)
(0 -0.00076534 0)
(0 -0.000848831 0)
(0 -0.000806916 0)
(0 -0.000754892 0)
(0 -0.000768002 0)
(0 -0.000820877 0)
(0 -0.000768045 0)
(0 -0.000837298 0)
(0 -0.000786497 0)
(0 -0.000887529 0)
(0 -0.000700381 0)
(0 -0.000856097 0)
(0 -0.000806669 0)
(0 -0.000600662 0)
(0 -0.00144717 0)
(0 -0.00137445 0)
(0 -0.0012465 0)
(0 -0.00130239 0)
(0 -0.00142806 0)
(0 -0.00135638 0)
(0 -0.00122932 0)
(0 -0.00128202 0)
(0 -0.00140712 0)
(0 -0.00133174 0)
(0 -0.00120562 0)
(0 -0.00125509 0)
(0 -0.000871142 0)
(0 -0.00137868 0)
(0 -0.00130236 0)
(0 -0.00117847 0)
(0 -0.00122665 0)
(0 -0.00110202 0)
(0 -0.00115118 0)
(0 -0.00127316 0)
(0 -0.00119849 0)
(0 -0.000478434 0)
(0 -0.000427024 0)
(0 -0.00107615 0)
(0 -0.00112433 0)
(0 -0.0012436 0)
(0 -0.00117035 0)
(0 -0.000788029 0)
(0 -0.000779159 0)
(0 -0.000834018 0)
(0 -0.00061502 0)
(0 -0.00105146 0)
(0 -0.00109854 0)
(0 -0.00116764 0)
(0 -0.00122039 0)
(0 -0.00122208 0)
(0 -0.00127235 0)
(0 -0.00127268 0)
(0 -0.00132349 0)
(0 -0.00132259 0)
(0 -0.0013738 0)
(0 -0.00137157 0)
(0 -0.00142335 0)
(0 -0.00141946 0)
(0 -0.00147192 0)
(0 -0.00146646 0)
(0 -0.00151932 0)
(0 -0.00151227 0)
(0 -0.00156554 0)
(0 -0.00161039 0)
(0 -0.00107029 0)
(0 -0.000287939 0)
(0 -0.000279885 0)
(0 -0.000874876 0)
(0 -0.000383133 0)
(0 -0.000530084 0)
(0 -0.000823389 0)
(0 -0.000878659 0)
(0 -0.00059769 0)
(0 -0.000525221 0)
(0 -0.0003798 0)
(0 -0.00036195 0)
(0 -0.000534602 0)
(0 -0.000979465 0)
(0 -0.00102686 0)
(0 -0.000727951 0)
(0 -0.00129583 0)
(0 -0.00142424 0)
(0 -0.000651739 0)
(0 -0.00058566 0)
(0 -0.000574062 0)
(0 -0.000250486 0)
(0 -0.000242684 0)
(0 -0.000768596 0)
(0 -0.000518468 0)
(0 -0.000255386 0)
(0 -0.00128615 0)
(0 -0.0012164 0)
(0 -0.00166345 0)
(0 -0.00090741 0)
(0 -0.000954688 0)
(0 -0.00107127 0)
(0 -0.000999338 0)
(0 -0.000883037 0)
(0 -0.000927821 0)
(0 -0.00104048 0)
(0 -0.000969487 0)
(0 -0.000857396 0)
(0 -0.000899172 0)
(0 -0.00033357 0)
(0 -0.000317138 0)
(0 -0.000476242 0)
(0 -0.000479408 0)
(0 -0.000471723 0)
(0 -0.000866125 0)
(0 -0.000921806 0)
(0 -0.000431334 0)
(0 -0.000215126 0)
(0 -0.000207842 0)
(0 -0.000530823 0)
(0 -0.00123315 0)
(0 -0.00129984 0)
(0 -0.00127666 0)
(0 -0.00134177 0)
(0 -0.00131268 0)
(0 -0.00137805 0)
(0 -0.0013444 0)
(0 -0.00140903 0)
(0 -0.00137171 0)
(0 -0.00144581 0)
(0 -0.00143189 0)
(0 -0.00139104 0)
(0 -0.00133235 0)
(0 -0.00134835 0)
(0 -0.00128988 0)
(0 -0.00130236 0)
(0 -0.00124433 0)
(0 -0.00125434 0)
(0 -0.00119787 0)
(0 -0.00140464 0)
(0 -0.00120617 0)
(0 -0.00115184 0)
(0 -0.00126168 0)
(0 -0.000788536 0)
(0 -0.000831288 0)
(0 -0.000857718 0)
(0 -0.000504095 0)
(0 -0.000518747 0)
(0 -0.000465868 0)
(0 -0.000418702 0)
(0 -0.000413567 0)
(0 -0.000466116 0)
(0 -0.000288843 0)
(0 -0.000274094 0)
(0 -0.000302819 0)
(0 -0.00121217 0)
(0 -0.00126709 0)
(0 -0.000939114 0)
(0 -0.000882045 0)
(0 -0.000883016 0)
(0 -0.000827583 0)
(0 -0.000823464 0)
(0 -0.000767745 0)
(0 -0.000757356 0)
(0 -0.000699473 0)
(0 -0.000709951 0)
(0 -0.000641437 0)
(0 -0.000653481 0)
(0 -0.000682621 0)
(0 -0.000585883 0)
(0 -0.000601019 0)
(0 -0.000533403 0)
(0 -0.000552886 0)
(0 -0.000480895 0)
(0 -0.000492082 0)
(0 -0.00114353 0)
(0 -0.00109961 0)
(0 -0.000182218 0)
(0 -0.00017538 0)
(0 -0.000523426 0)
(0 -0.00053025 0)
(0 -0.00107885 0)
(0 -0.000198302 0)
(0 -0.000166248 0)
(0 -0.00109224 0)
(0 -0.00105067 0)
(0 -0.00105583 0)
(0 -0.00100884 0)
(0 -0.000721514 0)
(0 -0.000765336 0)
(0 -0.000427758 0)
(0 -0.000438717 0)
(0 -0.000495751 0)
(0 -0.000446591 0)
(0 -0.000145383 0)
(0 -0.00100562 0)
(0 -0.000965355 0)
(0 -0.000478116 0)
(0 -0.000512501 0)
(0 -0.000387316 0)
(0 -0.000574631 0)
(0 -0.00058262 0)
(0 -0.00062703 0)
(0 -0.000907466 0)
(0 -0.000963759 0)
(0 -0.000447497 0)
(0 -0.000186479 0)
(0 -0.000154713 0)
(0 -0.000172194 0)
(0 -0.000967106 0)
(0 -0.000925905 0)
(0 -0.000924184 0)
(0 -0.000886794 0)
(0 -0.000885593 0)
(0 -0.000849197 0)
(0 -0.000848774 0)
(0 -0.000813339 0)
(0 -0.000813688 0)
(0 -0.000779218 0)
(0 -0.00127064 0)
(0 -0.000415332 0)
(0 -0.000875347 0)
(0 -0.000807883 0)
(0 -0.000699248 0)
(0 -0.000739279 0)
(0 -0.000845042 0)
(0 -0.000776082 0)
(0 -0.000673901 0)
(0 -0.000710992 0)
(0 -0.000809001 0)
(0 -0.000745189 0)
(0 -0.000647637 0)
(0 -0.000682722 0)
(0 -0.000634837 0)
(0 -0.000680833 0)
(0 -0.000366174 0)
(0 -0.000361321 0)
(0 -0.000502468 0)
(0 -0.00116271 0)
(0 -0.00121006 0)
(0 -0.000585944 0)
(0 -0.000621613 0)
(0 -0.000742204 0)
(0 -0.000660346 0)
(0 -0.000722889 0)
(0 -0.000634885 0)
(0 -0.000700467 0)
(0 -0.000608666 0)
(0 -0.00067608 0)
(0 -0.000544862 0)
(0 -0.00101482 0)
(0 -0.000687426 0)
(0 -0.000736174 0)
(0 -0.000748017 0)
(0 -0.000675952 0)
(0 -0.000349324 0)
(0 -0.000510796 0)
(0 -0.000427489 0)
(0 -0.000245775 0)
(0 -0.000661304 0)
(0 -0.000779972 0)
(0 -0.00121592 0)
(0 -0.00127129 0)
(0 -0.00132386 0)
(0 -0.00132925 0)
(0 -0.00138293 0)
(0 -0.000365972 0)
(0 -0.000378192 0)
(0 -0.000741385 0)
(0 -0.000793106 0)
(0 -0.00058186 0)
(0 -0.000648939 0)
(0 -0.000848495 0)
(0 -0.000393419 0)
(0 -0.000455769 0)
(0 -0.000401226 0)
(0 -0.000934246 0)
(0 -0.000536301 0)
(0 -0.000487281 0)
(0 -0.000462681 0)
(0 -0.000407848 0)
(0 -0.000299821 0)
(0 -0.000525918 0)
(0 -0.000561463 0)
(0 -0.00138998 0)
(0 -0.00144425 0)
(0 -0.00085864 0)
(0 -0.0013223 0)
(0 -0.000704813 0)
(0 -0.000319059 0)
(0 -0.000332401 0)
(0 -0.000609604 0)
(0 -0.000519852 0)
(0 -0.00047027 0)
(0 -0.000504964 0)
(0 -0.000453333 0)
(0 -0.000492374 0)
(0 -0.000441104 0)
(0 -0.000355335 0)
(0 -0.00014058 0)
(0 -0.000155136 0)
(0 -0.00164046 0)
(0 -0.00127381 0)
(0 -0.00154938 0)
(0 -0.00099628 0)
(0 -0.000925499 0)
(0 -0.000966274 0)
(0 -0.00133901 0)
(0 -0.00140633 0)
(0 -0.00154962 0)
(0 -0.000654049 0)
(0 -0.000593857 0)
(0 -0.000502552 0)
(0 -0.000535258 0)
(0 -0.00147213 0)
(0 -0.00151965 0)
(0 -0.00115551 0)
(0 -0.00120126 0)
(0 -0.0012561 0)
(0 -0.00124596 0)
(0 -0.00130113 0)
(0 -0.0011902 0)
(0 -0.00123402 0)
(0 -0.00136703 0)
(0 -0.00105096 0)
(0 -0.00157102 0)
(0 -0.00084283 0)
(0 -0.00135984 0)
(0 -0.00139861 0)
(0 -0.00147232 0)
(0 -0.00150733 0)
(0 -0.00143416 0)
(0 -0.00158057 0)
(0 -0.00153847 0)
(0 -0.00146648 0)
(0 -0.00154526 0)
(0 -0.00165177 0)
(0 -0.00161684 0)
(0 -0.00100572 0)
(0 -0.00241967 0)
(0 -0.00209918 0)
(0 -0.00209706 0)
(0 -0.00216453 0)
(0 -0.0021596 0)
(0 -0.00222545 0)
(0 -0.00221827 0)
(0 -0.00228231 0)
(0 -0.00227344 0)
(0 -0.00233606 0)
(0 -0.00232538 0)
(0 -0.00226327 0)
(0 -0.00231335 0)
(0 -0.00225207 0)
(0 -0.00238674 0)
(0 -0.00230014 0)
(0 -0.0022397 0)
(0 -0.00239745 0)
(0 -0.0024468 0)
(0 -0.00245789 0)
(0 -0.00228537 0)
(0 -0.00222584 0)
(0 -0.00250518 0)
(0 -0.00251635 0)
(0 -0.00256162 0)
(0 -0.00257207 0)
(0 -0.00254815 0)
(0 -0.00226875 0)
(0 -0.00221032 0)
(0 -0.00261638 0)
(0 -0.00262635 0)
(0 -0.00266887 0)
(0 -0.00267896 0)
(0 -0.00232667 0)
(0 -0.00230717 0)
(0 -0.00271944 0)
(0 -0.00272972 0)
(0 -0.00268732 0)
(0 -0.00273831 0)
(0 -0.00236367 0)
(0 -0.00216592 0)
(0 -0.0021509 0)
(0 -0.00277877 0)
(0 -0.00278721 0)
(0 -0.00274501 0)
(0 -0.00279347 0)
(0 -0.00283328 0)
(0 -0.00283907 0)
(0 -0.00234139 0)
(0 -0.00279724 0)
(0 -0.00284239 0)
(0 -0.00288153 0)
(0 -0.00288396 0)
(0 -0.00284369 0)
(0 -0.00288456 0)
(0 -0.00284365 0)
(0 -0.00288345 0)
(0 -0.00292341 0)
(0 -0.00292198 0)
(0 -0.00288104 0)
(0 -0.00291792 0)
(0 -0.00295689 0)
(0 -0.00295046 0)
(0 -0.00290622 0)
(0 -0.00294076 0)
(0 -0.00297978 0)
(0 -0.00296774 0)
(0 -0.00292074 0)
(0 -0.00295188 0)
(0 -0.00299244 0)
(0 -0.00297627 0)
(0 -0.00293402 0)
(0 -0.00295709 0)
(0 -0.00291359 0)
(0 -0.00293495 0)
(0 -0.00297605 0)
(0 -0.00295383 0)
(0 -0.00290957 0)
(0 -0.00292757 0)
(0 -0.00297358 0)
(0 -0.00294157 0)
(0 -0.00289883 0)
(0 -0.0029105 0)
(0 -0.00294922 0)
(0 -0.00291762 0)
(0 -0.00287846 0)
(0 -0.00288214 0)
(0 -0.00291944 0)
(0 -0.002882 0)
(0 -0.00284359 0)
(0 -0.00284131 0)
(0 -0.00287712 0)
(0 -0.00283498 0)
(0 -0.00279685 0)
(0 -0.00278952 0)
(0 -0.00282488 0)
(0 -0.00277871 0)
(0 -0.0027403 0)
(0 -0.00272725 0)
(0 -0.00276419 0)
(0 -0.0027112 0)
(0 -0.00274742 0)
(0 -0.00269372 0)
(0 -0.00272938 0)
(0 -0.00267416 0)
(0 -0.00263807 0)
(0 -0.00261722 0)
(0 -0.0026507 0)
(0 -0.00259256 0)
(0 -0.00262303 0)
(0 -0.00255622 0)
(0 -0.00259313 0)
(0 -0.00253153 0)
(0 -0.00256205 0)
(0 -0.00249745 0)
(0 -0.00252404 0)
(0 -0.00244962 0)
(0 -0.00248133 0)
(0 -0.00241514 0)
(0 -0.00243873 0)
(0 -0.00237142 0)
(0 -0.00235037 0)
(0 -0.00268763 0)
(0 -0.00246578 0)
(0 -0.00256012 0)
(0 -0.00239373 0)
(0 -0.00232348 0)
(0 -0.00210459 0)
(0 -0.00208954 0)
(0 -0.00213359 0)
(0 -0.00207241 0)
(0 -0.00202687 0)
(0 -0.00201008 0)
(0 -0.00196331 0)
(0 -0.00194579 0)
(0 -0.00189898 0)
(0 -0.00188051 0)
(0 -0.00278153 0)
(0 -0.00270649 0)
(0 -0.00265443 0)
(0 -0.00234629 0)
(0 -0.00183373 0)
(0 -0.00181513 0)
(0 -0.00227362 0)
(0 -0.00241654 0)
(0 -0.00239621 0)
(0 -0.00211407 0)
(0 -0.0025485 0)
(0 -0.00185676 0)
(0 -0.00176788 0)
(0 -0.00175003 0)
(0 -0.00229699 0)
(0 -0.00237119 0)
(0 -0.00252454 0)
(0 -0.00170216 0)
(0 -0.00168496 0)
(0 -0.00222212 0)
(0 -0.0021975 0)
(0 -0.00163654 0)
(0 -0.00162019 0)
(0 -0.00157115 0)
(0 -0.00155584 0)
(0 -0.00150639 0)
(0 -0.00149159 0)
(0 -0.00171758 0)
(0 -0.00144213 0)
(0 -0.00142784 0)
(0 -0.00209323 0)
(0 -0.00224699 0)
(0 -0.00191433 0)
(0 -0.00242436 0)
(0 -0.00147116 0)
(0 -0.00214424 0)
(0 -0.00211921 0)
(0 -0.00244962 0)
(0 -0.0013783 0)
(0 -0.00136455 0)
(0 -0.00239685 0)
(0 -0.00234427 0)
(0 -0.00247592 0)
(0 -0.00250169 0)
(0 -0.00166293 0)
(0 -0.00236737 0)
(0 -0.00231546 0)
(0 -0.00131484 0)
(0 -0.00130191 0)
(0 -0.00206483 0)
(0 -0.00204092 0)
(0 -0.00209557 0)
(0 -0.00201899 0)
(0 -0.00207373 0)
(0 -0.00199833 0)
(0 -0.00205223 0)
(0 -0.0019783 0)
(0 -0.00203166 0)
(0 -0.00125171 0)
(0 -0.00123989 0)
(0 -0.00118894 0)
(0 -0.00117794 0)
(0 -0.0011268 0)
(0 -0.00111609 0)
(0 -0.00106537 0)
(0 -0.00252613 0)
(0 -0.00255277 0)
(0 -0.00116161 0)
(0 -0.00105211 0)
(0 -0.00233577 0)
(0 -0.00228469 0)
(0 -0.00132522 0)
(0 -0.00257496 0)
(0 -0.00260231 0)
(0 -0.00209006 0)
(0 -0.00223025 0)
(0 -0.00301403 0)
(0 -0.00238372 0)
(0 -0.00292104 0)
(0 -0.0027554 0)
(0 -0.00273946 0)
(0 -0.00278641 0)
(0 -0.00276793 0)
(0 -0.00281277 0)
(0 -0.00283051 0)
(0 -0.00285467 0)
(0 -0.00287235 0)
(0 -0.00249736 0)
(0 -0.00291599 0)
(0 -0.00295322 0)
(0 -0.00294563 0)
(0 -0.00298073 0)
(0 -0.00297017 0)
(0 -0.00298795 0)
(0 -0.00301294 0)
(0 -0.00302058 0)
(0 -0.00141502 0)
(0 -0.00249042 0)
(0 -0.000947403 0)
(0 -0.000891161 0)
(0 -0.00100408 0)
(0 -0.00302751 0)
(0 -0.00304736 0)
(0 -0.00305816 0)
(0 -0.00307636 0)
(0 -0.00308512 0)
(0 -0.00310067 0)
(0 -0.00309055 0)
(0 -0.000313356 0)
(0 -0.000306829 0)
(0 -0.000316538 0)
(0 -0.002321 0)
(0 -0.00227195 0)
(0 -0.00234567 0)
(0 -0.00156982 0)
(0 -0.00164089 0)
(0 -0.00168806 0)
(0 -0.00175744 0)
(0 -0.00180226 0)
(0 -0.00186923 0)
(0 -0.00182416 0)
(0 -0.00160996 0)
(0 -0.00166571 0)
(0 -0.00172283 0)
(0 -0.00177479 0)
(0 -0.00182935 0)
(0 -0.00187791 0)
(0 -0.0018224 0)
(0 -0.00192304 0)
(0 -0.00186626 0)
(0 -0.000618972 0)
(0 -0.00113318 0)
(0 -0.00107576 0)
(0 -0.000998319 0)
(0 -0.000938624 0)
(0 -0.000860339 0)
(0 -0.000798235 0)
(0 -0.000876225 0)
(0 -0.000719517 0)
(0 -0.000782737 0)
(0 -0.00154847 0)
(0 -0.000186607 0)
(0 -0.000662505 0)
(0 -0.00141068 0)
(0 -0.00174047 0)
(0 -0.000155792 0)
(0 -0.000157359 0)
(0 -0.000125335 0)
(0 -0.00117145 0)
(0 -0.0011058 0)
(0 -0.00103985 0)
(0 -0.000972363 0)
(0 -0.00090655 0)
(0 -0.000837624 0)
(0 -0.00090358 0)
(0 -0.00077245 0)
(0 -0.000838833 0)
(0 -0.000767088 0)
(0 -0.000836188 0)
(0 -0.000697947 0)
(0 -0.000770954 0)
(0 -0.000884237 0)
(0 -0.00210099 0)
(0 -0.000547715 0)
(0 -0.00112544 0)
(0 -0.000894682 0)
(0 -0.00243774 0)
(0 -0.00249441 0)
(0 -0.00250913 0)
(0 -0.00256383 0)
(0 -0.00257573 0)
(0 -0.00254735 0)
(0 -0.00261492 0)
(0 -0.00259703 0)
(0 -0.00173379 0)
(0 -0.00199423 0)
(0 -0.00211027 0)
(0 -0.000880533 0)
(0 -0.00157727 0)
(0 -0.00156319 0)
(0 -0.00186373 0)
(0 -0.000609398 0)
(0 -0.00177786 0)
(0 -0.00188131 0)
(0 -0.00183138 0)
(0 -0.00193391 0)
(0 -0.00188485 0)
(0 -0.0025288 0)
(0 -0.00256112 0)
(0 -0.00259775 0)
(0 -0.00262732 0)
(0 -0.002662 0)
(0 -0.00268816 0)
(0 -0.00265356 0)
(0 -0.00184498 0)
(0 -0.00177794 0)
(0 -0.0010511 0)
(0 -0.00187562 0)
(0 -0.00123669 0)
(0 -0.0012216 0)
(0 -0.00129392 0)
(0 -0.000785849 0)
(0 -0.000733772 0)
(0 -0.000662406 0)
(0 -0.000974225 0)
(0 -0.000920978 0)
(0 -0.00084427 0)
(0 -0.000788491 0)
(0 -0.000712366 0)
(0 -0.00159048 0)
(0 -0.00292756 0)
(0 -0.00211653 0)
(0 -0.000458781 0)
(0 -0.00171286 0)
(0 -0.0017722 0)
(0 -0.00219056 0)
(0 -0.00211794 0)
(0 -0.000799641 0)
(0 -0.0028887 0)
(0 -0.000911997 0)
(0 -0.00252001 0)
(0 -0.00258404 0)
(0 -0.00252776 0)
(0 -0.00086634 0)
(0 -0.000730873 0)
(0 -0.00176197 0)
(0 -0.00270003 0)
(0 -0.00264691 0)
(0 -0.00265822 0)
(0 -0.00260463 0)
(0 -0.00261474 0)
(0 -0.00256078 0)
(0 -0.00254864 0)
(0 -0.00256941 0)
(0 -0.00262208 0)
(0 -0.00250538 0)
(0 -0.00249223 0)
(0 -0.00257391 0)
(0 -0.0026246 0)
(0 -0.00263243 0)
(0 -0.00104418 0)
(0 -0.00192387 0)
(0 -0.00202103 0)
(0 -0.00196047 0)
(0 -0.00195318 0)
(0 -0.00189296 0)
(0 -0.0018823 0)
(0 -0.00190041 0)
(0 -0.00183347 0)
(0 -0.00184103 0)
(0 -0.001775 0)
(0 -0.00178259 0)
(0 -0.00171804 0)
(0 -0.00172428 0)
(0 -0.00170682 0)
(0 -0.00165079 0)
(0 -0.00178369 0)
(0 -0.00172371 0)
(0 -0.00177734 0)
(0 -0.00171631 0)
(0 -0.00176563 0)
(0 -0.00170497 0)
(0 -0.00174994 0)
(0 -0.00166055 0)
(0 -0.000269397 0)
(0 -0.000346828 0)
(0 -0.000340028 0)
(0 -0.000381885 0)
(0 -0.000375962 0)
(0 -0.00310846 0)
(0 -0.00308638 0)
(0 -0.00309224 0)
(0 -0.00306822 0)
(0 -0.00307253 0)
(0 -0.00304642 0)
(0 -0.00304987 0)
(0 -0.00307547 0)
(0 -0.00302101 0)
(0 -0.00301684 0)
(0 -0.00305228 0)
(0 -0.00307641 0)
(0 -0.00306638 0)
(0 -0.00309153 0)
(0 -0.000468343 0)
(0 -0.000413234 0)
(0 -0.000326183 0)
(0 -0.00294957 0)
(0 -0.00290738 0)
(0 -0.00292995 0)
(0 -0.0028862 0)
(0 -0.00290715 0)
(0 -0.00285426 0)
(0 -0.00160687 0)
(0 -0.000775251 0)
(0 -0.000780468 0)
(0 -0.000830681 0)
(0 -0.000833432 0)
(0 -0.000886552 0)
(0 -0.000780058 0)
(0 -0.000889235 0)
(0 -0.000943379 0)
(0 -0.000941405 0)
(0 -0.000999504 0)
(0 -0.000999476 0)
(0 -0.00105922 0)
(0 -0.00106046 0)
(0 -0.00100084 0)
(0 -0.00106299 0)
(0 -0.00100339 0)
(0 -0.00106759 0)
(0 -0.0011273 0)
(0 -0.00113361 0)
(0 -0.00107357 0)
(0 -0.00114061 0)
(0 -0.00108116 0)
(0 -0.00114719 0)
(0 -0.0010909 0)
(0 -0.00115687 0)
(0 -0.00110286 0)
(0 -0.00116994 0)
(0 -0.00111564 0)
(0 -0.00118326 0)
(0 -0.00112936 0)
(0 -0.00119781 0)
(0 -0.00114327 0)
(0 -0.00121457 0)
(0 -0.00116212 0)
(0 -0.00123373 0)
(0 -0.00118467 0)
(0 -0.00112117 0)
(0 -0.00125435 0)
(0 -0.00120037 0)