/*--------------------------------*- C++ -*----------------------------------*\
| =========                 |                                                 |
| \\      /  F ield         | OpenFOAM: The Open Source CFD Toolbox           |
|  \\    /   O peration     | Version:  v2012                                 |
|   \\  /    A nd           | Website:  www.openfoam.com                      |
|    \\/     M anipulation  |                                                 |
\*---------------------------------------------------------------------------*/
FoamFile
{
    version     2.0;
    format      ascii;
    class       surfaceVectorField;
    location    "550";
    object      Uf;
}
// * * * * * * * * * * * * * * * * * * * * * * * * * * * * * * * * * * * * * //

dimensions      [0 1 -1 0 0 0 0];


internalField   nonuniform List<vector> 
14516
(
(0.960081 0.0829182 -4.42629e-21)
(0.94875 0.0770179 2.77696e-21)
(0.960253 0.0674062 4.15085e-23)
(0.969463 -0.0399725 -4.61538e-21)
(0.957618 -0.0739081 -1.13069e-21)
(0.976057 -0.0684668 -8.0922e-24)
(0.97469 0.0871753 9.27421e-21)
(0.961666 0.0987516 -9.29816e-21)
(1.01346 -0.000763359 6.4792e-22)
(1.01347 -0.000832636 -4.19444e-23)
(1.01355 -0.000786056 -1.7146e-22)
(0.531967 -0.0451101 3.36585e-22)
(0.54484 -0.00578193 1.68548e-22)
(0.526773 -0.104475 -5.40557e-21)
(1.01365 -0.0138993 -1.15715e-21)
(1.01477 -0.0136109 1.12781e-21)
(1.01397 -0.0126217 -7.37521e-22)
(1.00884 -6.43017e-05 1.23049e-22)
(1.00965 -0.000223006 -1.62805e-22)
(1.01035 -0.000316704 -1.1968e-21)
(1.01267 -0.00113216 0)
(1.01258 -0.00107291 5.10744e-22)
(1.01266 -0.00114341 -1.37417e-21)
(1.02676 -0.00229696 1.3737e-22)
(1.02704 -0.00198695 8.97682e-22)
(1.02728 -0.0025484 -2.25445e-23)
(0.539185 -0.00867479 1.26096e-20)
(0.545328 -0.0691883 1.51701e-20)
(1.00813 -0.0981022 1.19514e-21)
(1.00775 -0.105028 -2.88913e-22)
(1.01563 -0.100658 4.24415e-22)
(0.920973 -0.0979224 -1.34073e-21)
(0.926341 -0.111099 -5.91838e-23)
(0.908519 -0.110712 -9.95966e-22)
(1.01338 -0.000686774 1.00508e-22)
(1.01337 -0.000725594 4.19661e-22)
(1.01385 0.00245498 -9.25126e-22)
(1.01358 0.00220032 0)
(1.01376 0.001991 0)
(1.00385 -4.75286e-05 -9.80818e-22)
(1.00387 1.17872e-05 -3.34112e-22)
(1.01418 0.00268823 -6.44722e-22)
(1.01446 0.00277758 -9.58325e-22)
(1.01425 0.00237287 -2.0107e-22)
(1.01378 -0.00372891 8.79022e-22)
(1.01444 -0.00344273 4.73818e-22)
(1.01367 -0.00306141 -6.59467e-22)
(1.01303 -0.00399082 8.59331e-22)
(1.01402 -0.0046811 1.81395e-22)
(0.903584 0.255179 2.58534e-22)
(0.879294 0.264955 3.1864e-21)
(0.889611 0.27537 -3.21724e-21)
(1.01405 0.002995 -1.06581e-21)
(1.07246 -0.116336 1.18983e-21)
(1.09005 -0.117715 4.02878e-22)
(1.07898 -0.102107 1.17043e-21)
(1.02388 -0.00591821 1.60636e-22)
(1.02353 -0.00574018 1.56063e-22)
(1.02361 -0.00617359 -3.3886e-23)
(1.05765 0.059779 3.75201e-22)
(1.04799 0.076986 4.52698e-21)
(1.06071 0.0656246 1.93134e-21)
(1.01809 0.00231613 0)
(1.01789 0.00224693 -2.18711e-23)
(1.01765 0.000717577 -8.57844e-22)
(1.01745 0.00132956 -7.62309e-22)
(1.01842 0.00128196 -2.60886e-24)
(1.01314 -0.000528623 -4.95702e-22)
(1.01334 -0.000605452 1.24635e-21)
(1.01547 0.00357914 4.62873e-23)
(1.01511 0.00362815 2.76893e-21)
(1.01563 0.00411569 7.24281e-22)
(1.01493 -0.00165005 1.02511e-21)
(1.01532 -0.00169329 -8.06452e-22)
(1.01495 -0.00135226 5.68369e-22)
(0.975948 -0.0415914 2.25413e-24)
(0.981897 -0.0435651 -2.72185e-22)
(0.980031 -0.0374773 0)
(1.02624 -0.00205677 -1.04588e-21)
(1.02648 -0.00253451 -1.01285e-21)
(0.989166 -0.028351 7.26338e-23)
(0.987351 -0.0318317 5.91096e-24)
(0.9928 -0.0315837 2.63689e-21)
(1.06557 0.0407287 -4.25074e-22)
(1.05402 0.0525142 -6.91614e-24)
(1.08827 0.00760583 9.05042e-21)
(1.08241 -0.0270747 8.59812e-21)
(1.07269 0.019888 8.02932e-21)
(1.00826 6.55322e-05 8.63727e-22)
(1.00824 3.75098e-05 -1.09212e-21)
(1.00599 3.79925e-05 -1.83594e-23)
(0.970076 -0.0384212 -5.31627e-22)
(0.96466 -0.0345488 -4.56196e-22)
(0.969505 -0.0307796 4.39132e-22)
(1.11648 -0.160388 1.41576e-21)
(1.14374 -0.164566 0)
(1.12445 -0.189374 0)
(1.0079 -4.64346e-05 -5.54877e-22)
(1.00622 4.90917e-05 -2.50506e-21)
(1.02429 -0.00565619 -4.3885e-22)
(1.02409 -0.00610364 0)
(1.01315 -0.00146585 2.03824e-22)
(1.01323 -0.00154361 -7.09092e-22)
(1.01329 -0.00158234 1.04371e-21)
(1.01047 -2.62573e-05 0)
(1.01003 -5.76389e-05 -4.76557e-22)
(1.01086 -6.88501e-06 0)
(0.99171 -0.0244138 -1.83834e-22)
(0.986425 -0.023055 0)
(1.0064 1.67406e-05 -5.60165e-22)
(1.00355 -5.5033e-05 0)
(1.01184 -0.000478892 2.12172e-21)
(1.01251 -0.000404727 8.8516e-22)
(1.01188 -0.000459379 9.02709e-22)
(1.00952 -0.000151294 4.46436e-22)
(1.00872 -0.000194267 3.30649e-22)
(1.01035 -0.000128355 7.26775e-22)
(1.00954 -0.000272733 -9.71308e-25)
(1.01191 -0.000398266 -1.05471e-21)
(1.01296 -0.000467541 -1.18172e-22)
(0.971313 -0.0464366 4.45968e-22)
(1.00595 -0.0549043 1.47474e-21)
(0.998043 -0.0575355 -5.0458e-21)
(0.999595 -0.0475835 -1.44599e-21)
(0.931791 0.0687257 -1.29421e-21)
(0.919009 0.0609944 -2.11322e-21)
(0.937186 0.0553147 -2.39593e-21)
(1.01348 -0.000916562 1.0916e-22)
(1.0134 -0.000879507 -3.07641e-22)
(0.957433 -0.0319614 -4.49063e-22)
(0.959172 -0.0408348 -4.56306e-22)
(0.985815 -0.0962264 4.75386e-21)
(0.989872 -0.10294 1.80074e-21)
(0.993873 -0.0960146 -7.96264e-22)
(1.01796 -0.0144281 -1.85265e-21)
(1.01724 -0.0151121 -4.06848e-22)
(1.01849 -0.0156402 1.19094e-21)
(1.02458 -0.00522403 -4.19547e-22)
(1.02434 -0.00497655 0)
(1.02419 -0.00518753 -6.26346e-22)
(0.84852 -0.0866288 -3.02528e-21)
(0.843109 -0.10319 2.43577e-21)
(0.863013 -0.0944492 2.22684e-21)
(0.995548 -0.215954 8.88877e-23)
(0.988646 -0.237264 0)
(0.972129 -0.222544 -1.62407e-21)
(1.02116 0.000167506 0)
(1.02078 0.000219337 6.77717e-24)
(1.03781 -0.173991 5.46039e-21)
(1.04787 -0.167401 -5.87139e-21)
(1.03596 -0.16354 4.99574e-21)
(0.828053 0.311297 -5.36927e-22)
(0.811888 0.311983 1.87328e-20)
(0.835742 0.334344 -5.27237e-22)
(1.01307 -0.00141699 -8.43064e-22)
(1.01302 -0.00137005 1.65107e-21)
(1.00881 -4.8761e-05 0)
(1.00826 4.19945e-05 1.00782e-21)
(1.00967 -5.75777e-05 1.25578e-21)
(1.02133 -0.0135201 -3.78854e-22)
(1.02092 -0.0142856 1.09732e-21)
(1.0221 -0.0144198 1.03174e-21)
(0.830292 0.147697 0)
(0.806773 0.160902 -2.18384e-21)
(0.815321 0.129835 0)
(1.01431 -0.000373484 0)
(1.01493 -0.000490718 3.27886e-22)
(1.01402 -0.000375795 7.39651e-22)
(0.561728 -0.241686 -9.22503e-21)
(0.537304 -0.211107 8.23141e-21)
(1.09453 0.0328292 -2.60169e-22)
(1.09727 0.00154954 -8.64138e-22)
(1.09675 0.00244592 -9.24854e-22)
(0.854624 0.128988 6.90789e-22)
(0.852758 0.155965 -3.92576e-22)
(0.87472 0.116922 -8.9461e-21)
(0.893287 0.104418 -8.29474e-22)
(0.893156 0.122431 -8.27353e-22)
(0.916021 -0.0854122 -5.42336e-22)
(0.930384 -0.0877033 -5.47388e-22)
(1.00172 -0.0936707 -8.99028e-23)
(1.00995 -0.0897614 5.80336e-22)
(0.832563 -0.077743 4.66183e-22)
(0.852763 -0.0684409 2.0235e-21)
(1.01311 0.000247006 -3.69486e-22)
(1.01356 0.000306275 4.15602e-23)
(1.01434 0.000468442 7.1672e-24)
(1.01512 -0.00354671 -6.00196e-22)
(1.01532 -0.00373847 -4.89394e-22)
(1.01516 -0.003732 -5.47199e-22)
(1.05918 0.00446622 1.70535e-21)
(1.05947 0.00177675 -3.54329e-22)
(1.05844 0.0178745 -8.83139e-23)
(0.953253 -0.0250524 0)
(0.947895 -0.0315157 0)
(0.846795 0.299852 -5.78686e-21)
(0.824839 0.284747 0)
(1.02133 -5.85829e-05 0)
(1.02149 -0.00030528 0)
(1.02105 -0.000202175 0)
(1.02131 0.00306137 1.78506e-22)
(1.02133 0.00268462 -1.42574e-22)
(1.02188 0.0029887 -1.52218e-22)
(1.01875 0.00309203 8.45013e-22)
(1.01786 0.00308002 7.33129e-22)
(1.01799 0.00242156 -4.17206e-22)
(1.01667 -0.00148352 2.31911e-24)
(1.01657 -0.00103976 0)
(1.01607 -0.00137587 -5.342e-22)
(1.09012 0.0592215 -5.36738e-21)
(1.08806 0.0548172 9.68316e-22)
(1.01618 0.00424931 0)
(1.01538 0.00380738 0)
(1.0159 0.00344735 -6.90737e-22)
(0.930769 -0.0788286 1.37867e-21)
(0.923267 -0.108886 6.67952e-22)
(0.91741 -0.0836292 -1.09442e-20)
(1.03681 -0.024451 -1.22351e-21)
(1.03417 -0.0307096 -1.24618e-21)
(1.0307 -0.0239071 3.03496e-22)
(0.994714 -0.0215533 -1.91086e-22)
(0.997158 -0.0249685 -1.91304e-21)
(1.02054 -0.046271 -1.4109e-21)
(1.01356 -0.0516215 9.65487e-22)
(1.01374 -0.0416827 2.7529e-22)
(1.01735 -0.00164467 1.75514e-21)
(1.01674 -0.00204063 -1.61189e-21)
(1.02161 -0.000519238 -1.65343e-22)
(1.02171 -0.000752401 -2.18243e-22)
(1.0213 -0.000640688 -1.61748e-22)
(1.02075 -0.0127493 -1.19331e-21)
(1.02026 -0.0118707 -2.89597e-22)
(1.01978 -0.0124136 -8.79335e-22)
(1.01357 0.00362955 -2.59128e-22)
(1.01409 0.00430188 -5.34069e-23)
(1.01324 0.00443507 -6.42122e-22)
(0.960569 -0.0115209 -1.42871e-20)
(0.978801 -0.00916599 -1.17154e-20)
(0.724408 -0.174584 1.56714e-21)
(0.684863 -0.18287 2.23219e-22)
(0.716818 -0.153168 2.81616e-21)
(1.01467 0.00128675 5.83844e-22)
(1.01487 0.00143098 -1.50191e-23)
(1.01491 0.00127191 6.11219e-22)
(1.07002 0.0230372 4.99834e-21)
(1.07454 0.0261495 -3.91748e-22)
(1.0218 -0.0128454 -1.09137e-21)
(1.04374 -0.0248557 5.57073e-21)
(1.0382 -0.0187244 -7.25267e-21)
(1.00131 -0.196057 8.79221e-23)
(1.01753 -0.207672 2.12714e-22)
(0.943491 -0.0772185 -6.81326e-21)
(0.937481 -0.0429022 3.55121e-21)
(1.01444 0.0012601 5.40964e-22)
(1.01447 0.00115534 -1.73473e-21)
(1.01417 0.000374822 -9.12573e-23)
(1.01432 0.000408215 1.56319e-22)
(1.01409 0.000446175 -5.04461e-22)
(1.01425 0.00029025 -4.2176e-22)
(1.01403 0.000337771 2.23482e-22)
(1.01176 0.000461942 4.54004e-22)
(1.01168 0.0010945 -1.3774e-21)
(1.01126 0.000583331 1.30216e-22)
(1.01288 0.000353693 -6.304e-22)
(1.01296 0.000461725 9.16012e-22)
(1.01295 0.000359589 -6.30311e-22)
(1.0128 0.000351909 -6.01059e-22)
(1.01281 0.000266021 0)
(1.02082 0.00306094 3.71755e-22)
(1.02122 0.00344053 3.43293e-22)
(0.997022 -0.0191198 3.71263e-22)
(0.992837 -0.0175194 0)
(1.02014 -0.011315 -2.69072e-22)
(1.02088 -0.0115311 9.31888e-22)
(1.00837 1.4452e-05 -2.75913e-22)
(1.00892 -9.42514e-05 -1.34259e-21)
(1.00974 -0.000118457 1.70814e-22)
(1.01761 -0.0133357 -5.23478e-22)
(1.01868 -0.0137385 1.06394e-21)
(0.958146 -0.0642982 -1.25785e-21)
(0.944645 -0.0612091 9.46279e-21)
(0.956685 -0.0490375 -5.70041e-21)
(1.01284 0.000258735 -7.0122e-23)
(1.01168 0.000107046 -1.18179e-22)
(1.02231 -0.132199 -3.84568e-22)
(1.00978 -0.126244 2.64174e-22)
(1.00849 -0.141992 -1.10948e-21)
(1.01941 0.000402392 1.4818e-22)
(1.01971 0.000325343 3.25893e-23)
(1.05431 -0.302489 -5.54036e-21)
(1.03075 -0.275473 3.00652e-21)
(1.02022 -0.303908 2.77055e-21)
(0.982542 -0.0895351 2.6676e-21)
(0.977641 -0.0966181 -1.20629e-21)
(1.02162 6.84684e-05 0)
(1.08164 -0.087177 1.08911e-20)
(1.06769 -0.120723 -1.12311e-20)
(1.07487 -0.112458 8.49812e-21)
(0.947978 -0.0185988 0)
(0.957435 -0.0186616 0)
(1.01705 0.00450761 0)
(1.01638 0.00519198 7.56284e-22)
(1.06522 0.0210872 3.26741e-22)
(1.07248 0.00784859 -2.28958e-22)
(0.969262 -0.0664483 2.47642e-21)
(0.960703 -0.0795406 -8.23134e-21)
(1.0081 0.00014385 5.09853e-23)
(1.00503 4.98348e-05 -9.90423e-23)
(1.00518 4.45352e-05 -1.74105e-22)
(1.0195 -0.00218042 1.64312e-22)
(1.01975 -0.00233004 8.51172e-23)
(1.01974 -0.00212529 3.06889e-23)
(1.01238 -0.0137814 -2.34642e-21)
(1.01332 -0.015092 4.21031e-22)
(1.02587 -0.00765661 4.91451e-23)
(1.02555 -0.0078646 -9.13685e-22)
(1.02547 -0.00734796 1.24718e-21)
(1.06223 -0.130488 -1.84026e-23)
(1.05741 -0.115054 -1.44821e-21)
(1.0582 -0.0722693 1.12695e-20)
(1.06131 -0.0684763 -1.25063e-20)
(1.05633 -0.0681201 3.88641e-21)
(1.02606 -0.0412876 7.13141e-22)
(1.02825 -0.0510116 0)
(1.01971 0.00283885 1.55465e-21)
(1.01952 0.00383092 1.45255e-23)
(1.01617 -0.00333642 -8.6878e-22)
(1.01624 -0.00322744 -8.36657e-22)
(1.01602 -0.00318874 8.89109e-23)
(1.01143 0.000166492 -6.49678e-23)
(1.01096 0.000182438 7.98593e-23)
(1.01266 0.000257035 -2.56843e-22)
(1.02191 -0.000409755 0)
(1.01614 -0.00342068 0)
(1.01633 -0.00346826 0)
(1.01143 -0.00244588 5.24337e-23)
(1.01162 -0.00318161 -7.17035e-22)
(1.01197 -0.00274256 1.67603e-21)
(1.0258 -0.00183589 2.41959e-22)
(1.0261 -0.00160657 -1.09508e-21)
(1.0218 -0.000979209 -2.53481e-22)
(1.0219 -0.00123432 4.38208e-24)
(1.0215 -0.00108786 -2.02513e-22)
(1.01238 -0.000215661 -6.4609e-22)
(1.01446 -0.000338765 0)
(1.00893 -5.13399e-05 3.33472e-23)
(1.01032 -0.000198528 1.38298e-22)
(1.01923 0.000235404 0)
(1.01908 0.00042463 0)
(1.01337 0.000396475 1.99504e-22)
(1.01353 0.000441193 2.06231e-22)
(1.01339 0.000416231 -6.07032e-22)
(1.01928 -0.00221776 2.1863e-23)
(1.01926 -0.00203547 -1.04537e-22)
(1.01789 -0.000417334 1.66581e-21)
(1.01787 0.000157569 2.52429e-21)
(1.01863 -0.000119101 1.89095e-21)
(1.01213 -0.000467061 -4.3249e-25)
(1.01234 -0.000457519 -1.20457e-22)
(1.01196 -0.000460272 -6.73105e-22)
(1.01441 1.0593e-05 2.74826e-22)
(1.01427 4.99279e-05 1.04223e-21)
(1.01439 -6.83016e-05 -1.01263e-21)
(1.01331 0.00241972 -6.1978e-23)
(1.01328 0.00186181 2.00061e-21)
(1.01248 0.00220025 -1.01881e-21)
(1.01294 0.00271794 -1.11708e-21)
(1.01244 0.00297705 9.16356e-22)
(1.05154 -0.0373172 -4.99392e-22)
(1.04499 -0.0441364 9.09607e-24)
(1.04212 -0.053513 -8.19226e-21)
(1.01438 0.000102651 -1.11197e-22)
(1.01461 -1.82972e-05 -1.9723e-21)
(1.01381 0.00111885 0)
(1.01401 0.00117714 0)
(1.01392 0.00123142 5.9708e-22)
(0.75036 -0.17746 -1.20305e-21)
(0.724686 -0.199818 -3.26195e-21)
(0.783884 0.375127 -1.3922e-21)
(0.796692 0.35808 1.92734e-21)
(0.798713 0.38427 -7.78211e-21)
(1.01229 0.000297058 -1.19864e-22)
(1.01017 5.20033e-05 -2.59774e-22)
(0.769173 0.358575 -1.32674e-21)
(0.763828 0.383408 8.91388e-21)
(0.550762 0.0666436 -1.90401e-20)
(0.554627 0.0128463 -7.51944e-22)
(1.01361 0.00105071 -6.70922e-22)
(1.01367 0.00103077 2.96164e-22)
(1.01026 0.00020899 -1.67667e-23)
(1.01014 0.00021268 2.9948e-22)
(1.01219 0.000199628 0)
(1.01156 0.000143899 4.04134e-22)
(1.01257 0.000266729 0)
(1.01787 -0.000915051 -1.89576e-21)
(1.01733 -0.000568736 -1.33676e-21)
(1.01433 0.000204497 -1.09854e-22)
(1.01418 0.000193799 -1.0521e-22)
(1.01225 -0.000482746 7.68283e-22)
(1.01193 -0.000372408 8.0183e-22)
(1.01277 -0.00119318 0)
(1.01269 -0.00111946 3.51046e-23)
(1.01458 -0.00155877 -1.38678e-21)
(1.01476 -0.00191384 2.40916e-21)
(1.01542 0.00274369 8.46082e-22)
(1.01561 0.00266118 1.13608e-22)
(1.01585 0.00296162 8.43529e-22)
(0.929886 0.240185 -8.41531e-21)
(0.965119 0.219041 -3.15762e-22)
(0.946098 0.241245 2.20871e-21)
(1.05273 -0.0258698 -4.95689e-21)
(1.05757 -0.00949975 -2.30313e-22)
(1.0543 -0.0271644 6.24608e-22)
(1.10177 -0.136978 -1.47084e-21)
(1.11147 -0.117243 -2.41897e-21)
(1.01358 -0.0627938 -3.05915e-21)
(1.01303 -0.00968243 5.03621e-22)
(1.01486 -0.0100976 1.40284e-22)
(1.01413 -0.00832378 -3.17708e-22)
(1.01536 0.00315102 -7.61735e-22)
(1.01579 0.00344063 -8.83164e-22)
(1.01243 -0.000139986 1.23153e-21)
(1.01243 0.000266041 -1.69668e-21)
(1.01264 0.000198465 1.6661e-21)
(1.01374 -0.00244692 0)
(1.01379 -0.00272106 0)
(1.01385 -0.00238263 9.20033e-22)
(0.791202 -0.0322146 0)
(0.810696 0.00464742 0)
(0.792626 0.0276096 0)
(1.04893 -0.0218033 -3.3318e-21)
(1.04585 -0.0418029 -1.09246e-21)
(0.791131 -0.0925948 -8.97951e-21)
(0.784404 -0.0600104 0)
(1.02645 -0.00721192 1.33936e-21)
(1.02617 -0.0075225 0)
(1.02601 -0.00692858 8.20836e-23)
(0.919471 0.234176 -2.57067e-21)
(1.02212 -0.000877366 -1.89959e-22)
(1.01748 0.00220933 0)
(1.01732 0.00209389 -6.38906e-23)
(1.01726 0.00216971 0)
(1.01616 -0.00386319 5.09975e-22)
(1.01636 -0.004015 -1.40417e-22)
(1.01626 -0.00378434 4.39981e-22)
(1.02026 -0.0315135 6.85939e-21)
(1.0176 -0.0320545 5.52839e-21)
(1.02001 -0.0340362 -5.89665e-22)
(1.08965 -0.400249 -1.97116e-20)
(1.08927 -0.435996 3.36301e-20)
(1.12563 -0.424336 -3.35993e-20)
(1.03445 -0.0107806 -1.46151e-21)
(1.034 -0.0099954 0)
(1.03347 -0.0106891 -4.98629e-21)
(1.01451 0.000214247 2.48048e-22)
(1.01714 0.000327275 2.17014e-21)
(0.897514 0.303741 -5.6678e-21)
(0.882769 0.316478 6.47401e-21)
(0.894198 0.320725 1.30941e-20)
(1.01507 -0.00338752 0)
(1.01494 -0.00335582 0)
(1.02766 -0.179934 0)
(1.04044 -0.186099 0)
(1.01604 -0.00392227 0)
(1.01597 -0.00369272 -1.45492e-22)
(1.01927 -0.00261653 0)
(1.01904 -0.00264407 -1.17276e-23)
(1.01925 -0.00281121 0)
(1.01522 0.00282071 0)
(1.01509 0.00253212 2.31927e-22)
(1.02689 -0.00756418 1.20862e-21)
(1.02675 -0.0069815 -2.26823e-22)
(1.017 -0.000189392 0)
(1.01701 -0.000263628 0)
(1.01715 -0.000196762 -7.12912e-22)
(0.946598 0.0748924 4.3133e-22)
(0.929641 0.0830185 4.33492e-22)
(1.03606 -0.138528 4.56421e-23)
(1.03371 -0.122576 4.64617e-24)
(0.854837 0.104364 2.41088e-21)
(1.02278 -0.0313878 0)
(1.02071 -0.029548 -1.60361e-21)
(0.87276 0.141243 -7.00404e-21)
(0.894557 0.126296 -2.49221e-21)
(0.914701 0.136419 8.09057e-22)
(1.01362 0.00143273 -1.50797e-21)
(1.01336 0.00138349 -9.35885e-23)
(1.0134 0.00112229 -1.52211e-21)
(0.58746 0.146554 -8.07609e-21)
(0.581782 0.128471 -5.95017e-22)
(1.01336 0.000375089 4.39447e-22)
(1.01312 0.000343106 1.14229e-21)
(1.02538 -0.00167914 2.02934e-21)
(1.0256 -0.00205152 3.98926e-22)
(1.00617 0.185966 5.83051e-21)
(1.03357 0.157293 0)
(1.04471 0.14286 0)
(1.0058 -0.253717 9.28647e-21)
(0.981387 -0.25743 0)
(1.0163 -0.00314255 -4.46416e-22)
(1.01616 -0.002987 -5.03707e-22)
(1.01637 -0.00304513 -9.29309e-22)
(1.02197 -0.00145909 2.30109e-22)
(1.02228 -0.00136146 1.94127e-22)
(1.0203 0.00306358 -6.97806e-22)
(1.02042 0.00279191 1.89899e-22)
(1.08896 -0.154207 1.77046e-21)
(1.01379 0.000584706 1.55107e-23)
(1.0138 0.000782789 -1.06004e-21)
(1.01375 0.000760794 -1.09045e-21)
(0.999375 -0.016992 1.08768e-21)
(1.00099 -0.0197447 -1.14998e-22)
(1.02605 -0.0112025 0)
(1.02553 -0.0106804 1.87896e-23)
(1.02615 -0.0105512 0)
(1.00331 -0.0269709 0)
(1.00671 -0.0284541 -2.05766e-21)
(1.00347 -0.0302669 1.24182e-22)
(0.961332 0.0767574 0)
(0.96323 0.0656472 0)
(0.905735 0.050049 3.65788e-22)
(0.899621 0.0668087 4.13777e-21)
(1.02473 -0.00563512 -4.69619e-22)
(1.02501 -0.00536544 -3.17782e-22)
(0.849448 0.155892 3.51709e-21)
(0.827735 0.142414 -1.21848e-21)
(1.01191 0.000218841 -2.66083e-22)
(1.01275 0.000249176 5.93411e-22)
(1.0122 -0.000909116 3.12058e-21)
(1.01218 -0.00136625 9.96196e-22)
(1.01241 -0.00122785 3.21182e-21)
(0.915467 0.297028 5.41225e-22)
(0.902423 0.284773 6.79494e-22)
(1.0199 0.00305305 -1.26594e-22)
(1.02023 0.00332883 -1.87332e-22)
(0.744994 -0.0110925 3.206e-21)
(0.72822 -0.0130301 1.11934e-20)
(0.742069 -0.0555438 2.42777e-21)
(0.932552 0.00628847 5.39431e-22)
(0.939571 0.0145064 2.49385e-21)
(0.927153 0.0175415 -2.92027e-21)
(1.02029 -0.00155984 -6.17985e-24)
(1.02052 -0.00147432 1.10341e-23)
(1.02017 -0.00138977 -6.42781e-23)
(1.02621 -0.00803606 2.73501e-22)
(1.01697 -0.000112836 0)
(1.01687 -0.00018164 -7.58957e-22)
(1.03108 -0.0355929 9.2406e-22)
(1.03856 -0.0378709 4.44518e-21)
(0.984648 0.195254 4.85889e-21)
(1.01589 -0.0145248 8.78548e-22)
(1.01573 -0.0131627 -1.4764e-21)
(1.01346 0.000976111 -1.16284e-22)
(1.01334 0.000901268 5.64626e-22)
(1.0133 0.000893812 -1.51109e-22)
(0.937374 -0.00279792 3.54756e-21)
(0.925667 -0.00108537 5.54902e-21)
(1.00736 -0.0801939 0)
(1.00089 -0.0816001 5.95256e-22)
(1.00357 -0.0757565 -3.69189e-21)
(1.01809 0.00244982 1.25959e-22)
(1.0183 0.00241609 -1.7584e-23)
(1.01769 0.00224042 -2.00976e-23)
(1.01773 0.00211763 -1.37721e-22)
(1.03545 -0.0109847 -3.07984e-21)
(1.03469 -0.0118445 -4.75165e-21)
(1.01295 0.000318523 3.4632e-22)
(1.01321 0.000331531 -4.18119e-23)
(1.01284 0.000304681 3.59456e-22)
(1.04302 -0.086095 7.69725e-21)
(1.04765 -0.0827768 0)
(1.04189 -0.0809474 -1.52948e-21)
(0.765422 -0.011004 0)
(0.749695 0.028154 -7.57393e-22)
(1.01907 0.000101764 -1.53357e-22)
(1.01879 0.000134817 2.43598e-23)
(1.01892 -2.302e-05 -2.84576e-22)
(1.01402 -0.00239488 -1.43281e-21)
(1.01398 -0.00239976 -8.32883e-22)
(1.014 -0.00221333 -2.47124e-24)
(0.98564 -0.184359 0)
(1.00428 -0.177316 6.09813e-23)
(1.01258 0.00177985 -2.64616e-21)
(1.01309 0.00201765 2.76131e-22)
(1.01281 0.00244815 -3.24922e-21)
(1.00116 -0.0152354 1.17057e-22)
(0.998117 -0.0139266 2.53096e-21)
(1.01339 0.00101742 -1.00269e-21)
(1.01334 0.00138483 2.478e-22)
(1.01355 0.00133216 -6.95559e-22)
(1.01405 -0.00194182 0)
(1.01407 -0.00183222 -8.27115e-22)
(1.0141 -0.00179377 1.06542e-21)
(1.09497 0.00210609 0)
(1.08897 0.0429783 6.90066e-21)
(1.01404 -0.00236851 -6.5983e-22)
(1.01403 -0.00221499 -8.07411e-22)
(1.01405 -0.00234596 1.49946e-21)
(1.01421 0.0012285 5.6779e-22)
(1.01406 0.00111546 0)
(1.01249 -0.000988729 -4.2848e-22)
(1.01248 -0.00101119 -1.4476e-21)
(1.01771 -0.00144552 -4.284e-22)
(1.0184 -0.00136901 -2.26098e-21)
(1.01436 0.00136765 -3.97699e-23)
(1.00937 -2.69962e-05 1.06357e-21)
(1.00801 9.00346e-05 9.37848e-22)
(1.02232 -0.00655522 9.81548e-23)
(1.02235 -0.00640532 -1.20624e-22)
(1.02253 -0.00656493 1.64244e-22)
(1.02267 -0.0182009 3.74971e-21)
(1.02411 -0.0184426 3.93469e-21)
(1.02333 -0.0171656 1.63464e-22)
(0.979383 -0.0818612 -6.32593e-22)
(0.986962 -0.0823623 -2.69936e-21)
(1.05517 -0.0760803 7.36396e-21)
(1.05156 -0.0796179 0)
(1.05009 -0.0749493 0)
(1.01399 -0.00185587 3.8008e-22)
(1.01394 -0.00184891 2.53472e-21)
(1.01397 -0.00177604 7.28815e-22)
(1.02612 -0.0052156 -1.33343e-21)
(1.02632 -0.00585066 -4.98458e-22)
(1.02702 -0.00516828 -5.71431e-24)
(1.01386 -0.00296167 0)
(1.01397 -0.00286215 0)
(1.01398 -0.00319992 -9.11047e-22)
(1.02134 -0.0179056 8.75198e-22)
(1.02211 -0.0194592 -2.71038e-22)
(1.00799 -0.00795773 -4.55947e-23)
(1.0082 -0.00942742 5.9692e-22)
(1.00916 -0.00862868 -1.37629e-22)
(1.01388 0.00031138 0)
(1.01383 0.000436598 7.18322e-23)
(1.01382 0.000477884 -8.2842e-22)
(0.942435 -0.200729 0)
(0.929723 -0.197231 -3.19587e-21)
(0.929722 -0.216129 2.85903e-21)
(1.01405 -0.00256339 -1.42292e-21)
(0.971529 -0.0813944 -1.09911e-21)
(0.976924 -0.0747316 1.38854e-21)
(1.00841 0.000127989 -2.44328e-22)
(1.00988 4.40795e-05 3.59478e-22)
(1.00891 3.98717e-05 -4.03957e-22)
(1.01203 -0.0113801 -6.68056e-25)
(1.01096 -0.00916155 5.06461e-23)
(1.019 0.00280395 -1.51946e-23)
(1.0193 0.00283503 -9.87657e-23)
(1.01907 0.00271026 -2.10673e-23)
(1.01885 0.00290413 0)
(1.01872 0.00272661 0)
(1.00007 -0.0254363 0)
(1.00378 -0.0238191 0)
(1.06276 0.117945 0)
(1.02651 0.167902 -3.60249e-21)
(1.01963 -0.0108717 0)
(1.01892 -0.0108337 0)
(1.01919 -0.0101926 -1.08315e-21)
(1.01394 0.000168845 0)
(1.01391 0.000216373 0)
(1.01452 0.00163952 -4.29585e-22)
(1.01445 0.00166167 -4.21878e-22)
(1.01432 0.00154089 1.55585e-23)
(1.02354 0.00294951 0)
(1.02209 0.00161574 0)
(1.02408 0.00145077 5.44804e-22)
(1.02073 -0.00137651 -3.97273e-23)
(1.02097 -0.00128892 0)
(1.02063 -0.00117415 -4.67984e-24)
(1.00534 -0.0151976 8.80835e-22)
(1.00586 0.0138705 1.70201e-21)
(0.993552 -0.00300696 5.34558e-21)
(1.00631 -0.0440091 -2.6772e-21)
(1.0176 -0.0279308 -1.52473e-21)
(1.01645 -0.00328302 5.50086e-22)
(1.05094 -0.144275 -4.3463e-23)
(1.03678 -0.157221 -2.35977e-23)
(1.0165 -0.000346436 0)
(1.01647 -0.000315857 0)
(1.01653 -0.000304403 0)
(1.06041 -0.0768253 -6.91809e-22)
(1.01754 -0.00188673 -2.12807e-21)
(1.01718 -0.00145692 -1.04882e-22)
(1.01828 0.0027076 -1.29279e-22)
(1.0182 0.0025766 8.32403e-23)
(1.01845 0.00265947 -3.84332e-23)
(1.00814 -7.16756e-05 7.93904e-22)
(1.00599 -3.90742e-05 8.9383e-22)
(1.00811 -2.58322e-05 1.4584e-21)
(1.01091 -6.16574e-05 -2.81681e-22)
(1.01014 9.16194e-06 0)
(1.02012 -0.00168071 6.88801e-24)
(1.02039 -0.00173787 3.36254e-24)
(1.0223 -0.00670486 -3.81539e-23)
(1.0221 -0.00653672 -3.52729e-22)
(1.01472 -0.0139581 -7.90135e-22)
(1.01626 -0.0147218 -1.07653e-21)
(1.01583 -0.0130413 0)
(1.01128 -0.000325244 -1.5733e-21)
(1.01101 -0.000235041 -7.71811e-22)
(1.01152 -0.000357244 1.48363e-22)
(1.02169 -0.00155134 3.07191e-23)
(1.02204 -0.00169469 -2.85848e-22)
(1.01938 6.33273e-05 0)
(1.08242 -0.0608303 3.93887e-21)
(1.0909 -0.0600427 -1.49808e-21)
(1.01792 -0.0118006 1.08418e-21)
(1.01729 -0.0122847 7.15858e-22)
(1.01709 -0.0114334 4.20111e-22)
(1.00629 -0.000148992 -3.38633e-22)
(1.01193 0.000137576 2.3816e-22)
(1.01011 0.000200365 7.31638e-24)
(1.01098 0.000145205 0)
(1.01144 -0.00177625 4.07514e-22)
(1.0109 -0.0021026 -2.00229e-21)
(1.0246 -0.00803419 -1.71489e-22)
(1.02431 -0.00801584 7.61511e-22)
(1.02438 -0.00770369 -2.04706e-22)
(1.01288 -0.0130646 -9.05165e-22)
(1.01338 -0.0151679 1.95553e-22)
(1.01616 -0.000557229 2.69933e-22)
(1.01619 -0.000646648 -6.05023e-22)
(1.01625 -0.000573851 2.37523e-22)
(0.928522 0.260556 3.36636e-20)
(0.910582 0.305775 -1.97272e-20)
(0.941107 0.261704 -1.90303e-20)
(1.01355 0.00106046 7.62295e-22)
(0.93638 0.288921 -2.04328e-21)
(0.918615 0.298347 4.07008e-22)
(0.931438 0.281014 -6.15492e-21)
(0.983062 -0.217089 -2.91143e-21)
(0.981704 -0.185127 -1.35451e-20)
(0.963786 -0.223212 1.11233e-20)
(1.00616 2.45048e-05 -3.87128e-24)
(1.00794 3.53133e-05 -1.16327e-21)
(1.00824 -1.87578e-05 -6.14479e-22)
(1.00897 -0.000117849 -6.98429e-22)
(1.00973 -0.000192827 0)
(1.01412 -2.57138e-05 3.00711e-22)
(1.01417 -3.59394e-05 0)
(1.0143 -0.000144411 0)
(1.02509 0.00434385 -1.75172e-21)
(1.02258 0.00467685 0)
(1.01888 -0.00647207 -4.41993e-22)
(1.01851 -0.0074397 -1.80108e-22)
(1.01947 -0.00712293 7.54027e-24)
(1.01726 -0.00224202 -3.51457e-22)
(1.01678 -0.00215243 2.61652e-21)
(1.01697 -0.0025296 1.82482e-21)
(0.951719 0.274186 5.26888e-21)
(0.935357 0.296527 8.19763e-22)
(1.01612 -0.000311837 -2.64281e-23)
(1.01574 -0.000359978 -1.79497e-22)
(1.01629 -0.000167243 -5.75572e-22)
(1.01405 2.69327e-05 6.91517e-22)
(1.01399 0.00011043 -1.22997e-22)
(1.01935 -0.00548771 9.27832e-23)
(1.01808 -0.00557319 -6.07007e-24)
(1.02208 -0.00740743 -4.43114e-22)
(1.02234 -0.00732087 0)
(1.02238 -0.00757067 0)
(1.02213 -0.00552578 0)
(1.02191 -0.0053679 0)
(1.02218 -0.00535761 5.64304e-23)
(1.01374 0.00308045 2.78063e-24)
(1.01309 0.00304518 -1.65717e-21)
(1.02452 -0.0331562 -4.44657e-22)
(1.01457 -0.00139678 0)
(1.0147 -0.00130686 0)
(1.01471 -0.00138638 9.1063e-24)
(1.02119 0.000337539 5.52864e-22)
(1.02187 -0.000808929 -2.82668e-22)
(1.02029 -0.000957046 1.14436e-21)
(1.02593 -0.0117458 1.84253e-21)
(1.0266 -0.0116023 -1.74538e-21)
(1.01408 -0.00156234 1.01393e-21)
(1.01419 -0.00154472 -2.63983e-21)
(1.01415 -0.00155699 2.40359e-24)
(1.05691 0.00966643 1.23345e-21)
(0.844253 0.209532 4.17488e-21)
(0.856183 0.190907 -1.3209e-20)
(0.87912 0.199138 -9.87362e-21)
(1.05912 -0.0107456 5.40966e-22)
(1.05874 0.00139288 6.20187e-21)
(1.01956 0.00294277 1.953e-22)
(1.01947 0.00313279 8.51674e-23)
(1.06687 -0.38493 -2.20696e-21)
(1.09331 -0.379372 2.53166e-20)
(1.02403 -0.00794991 -3.23584e-22)
(1.0238 -0.00785994 -1.62075e-22)
(1.02391 -0.0076329 -4.37525e-22)
(0.802992 0.300756 -2.68092e-21)
(0.788504 0.282419 1.24914e-20)
(0.943306 -0.0119306 0)
(0.937297 -0.0177278 -3.7186e-21)
(1.01523 0.00220988 0)
(1.01507 0.00203819 -2.11881e-22)
(1.01534 0.00212364 -4.47217e-22)
(1.04085 -0.0154363 -3.89081e-21)
(1.04154 -0.0169925 -2.21264e-21)
(0.94859 -0.00442571 8.54392e-23)
(1.01214 0.000394696 -1.79571e-21)
(1.01184 -7.67596e-05 5.86032e-22)
(1.00305 -0.0136989 -9.05403e-22)
(1.00412 -0.0158686 -6.64817e-22)
(0.994475 -0.109782 -2.07955e-21)
(1.0011 -0.109092 -2.94171e-21)
(0.996868 -0.117305 -1.92523e-21)
(1.0124 -0.000897191 3.72757e-22)
(1.01232 -0.00086426 -1.19008e-22)
(1.01233 -0.000822371 1.06948e-21)
(1.01089 -0.000202939 0)
(1.01226 -0.000499662 6.43384e-22)
(1.02506 -0.00142205 -8.10013e-23)
(1.0249 -0.00170949 8.64994e-22)
(1.01041 6.27781e-05 -9.84057e-22)
(1.01046 7.12307e-05 3.18152e-22)
(1.00929 6.37212e-05 -1.47912e-21)
(1.01571 -0.00196865 -2.03445e-21)
(1.01569 -0.00156292 -1.88887e-21)
(0.913652 0.111811 -3.04601e-21)
(0.94511 0.109477 -2.71575e-21)
(0.928598 0.0995216 2.05866e-21)
(1.01591 -0.00395926 3.73128e-22)
(1.01612 -0.00411845 0)
(1.01396 -0.00156986 1.55879e-21)
(1.01402 -0.0015867 7.72608e-22)
(0.952608 0.188141 5.56651e-20)
(1.01215 0.00149891 -1.69024e-21)
(1.01252 0.00121847 -3.46786e-24)
(1.01477 0.00320407 1.05345e-21)
(1.01473 0.00282975 -1.89464e-21)
(1.01963 0.00277434 -5.1965e-23)
(1.02354 -0.0069021 -1.92381e-23)
(1.0235 -0.00682274 5.50306e-23)
(1.02345 -0.00698486 6.51353e-23)
(1.01249 -0.000943905 -9.01976e-22)
(0.875832 0.115221 -3.54265e-21)
(1.02491 -0.00802076 -7.80356e-22)
(1.02523 -0.00794513 -1.35338e-21)
(1.02493 -0.00760749 0)
(1.02087 -0.00312068 -7.69383e-23)
(1.02096 -0.00328359 3.42577e-23)
(1.0207 -0.00324757 4.31628e-23)
(1.02129 -0.00683097 3.72421e-22)
(1.02153 -0.00702968 4.31809e-22)
(1.02125 -0.00708686 -5.18293e-22)
(1.01169 0.00178739 -1.62049e-21)
(0.786342 0.0783678 -1.14713e-20)
(0.799258 0.107758 4.14209e-21)
(0.790064 0.0604297 -7.73812e-22)
(1.02449 -0.0047374 7.2132e-22)
(1.02408 -0.00469395 -1.4929e-22)
(1.05 -0.0172098 0)
(1.04609 -0.0168566 -1.66989e-21)
(1.04815 -0.0208697 -1.44141e-21)
(1.01763 0.00234044 -3.35713e-23)
(1.0026 -0.0532663 -2.30447e-21)
(1.00683 -0.0525475 2.09687e-21)
(1.00333 -0.0500241 -1.0084e-21)
(0.817463 -0.0667121 4.19849e-21)
(0.811275 -0.0860489 3.97436e-21)
(1.0171 -0.185929 1.00979e-20)
(1.01678 -0.173964 0)
(0.997757 -0.0541915 -3.86281e-21)
(1.00214 -0.0573461 3.03426e-21)
(1.0235 -0.00693954 0)
(1.02356 -0.0069071 -2.12054e-22)
(1.01082 -0.00444653 1.62948e-21)
(1.01119 -0.00367266 -8.26455e-22)
(1.01044 -0.00345309 -1.30535e-23)
(0.851863 0.173281 3.90919e-21)
(0.814064 0.180276 9.61663e-22)
(1.00813 -0.000114192 -3.12272e-22)
(1.00946 3.11792e-05 -7.02917e-22)
(0.955433 -0.202419 2.10294e-21)
(0.957617 -0.185349 0)
(1.01387 0.00256992 -6.96338e-23)
(1.01431 0.00296449 1.7474e-23)
(1.01245 0.000291984 6.90826e-22)
(1.01305 0.000338644 0)
(0.983649 -0.238054 -8.99096e-21)
(1.00399 -0.207743 -1.03692e-20)
(1.00456 -0.0123942 -1.7348e-22)
(1.00223 -0.0113049 -1.75004e-21)
(0.842335 0.228855 -5.92456e-21)
(0.815586 0.222025 8.03495e-22)
(1.02073 -0.00296828 -4.03896e-23)
(1.02102 -0.00303689 -6.69431e-23)
(1.03841 -0.0889265 -4.85917e-21)
(1.0445 -0.0914588 -1.44795e-21)
(1.15433 -0.145595 1.02187e-21)
(1.16263 -0.167735 -3.23581e-21)
(1.01137 0.00445256 -2.48642e-21)
(1.01223 0.00567166 2.11734e-22)
(1.0126 0.00440524 -1.24145e-21)
(1.015 -0.00319511 0)
(1.01483 -0.00303571 0)
(1.01493 -0.0030312 -1.14339e-21)
(1.06879 -0.0609214 6.38801e-21)
(1.02901 -0.0300141 -2.58532e-21)
(1.03098 -0.02934 0)
(1.0292 -0.0281039 0)
(1.05556 -0.0236011 -6.5533e-21)