/*--------------------------------*- C++ -*----------------------------------*\
| =========                 |                                                 |
| \\      /  F ield         | OpenFOAM: The Open Source CFD Toolbox           |
|  \\    /   O peration     | Version:  v2012                                 |
|   \\  /    A nd           | Website:  www.openfoam.com                      |
|    \\/     M anipulation  |                                                 |
\*---------------------------------------------------------------------------*/
FoamFile
{
    version     2.0;
    format      ascii;
    class       surfaceVectorField;
    location    "850";
    object      Uf_0;
}
// * * * * * * * * * * * * * * * * * * * * * * * * * * * * * * * * * * * * * //

dimensions      [0 1 -1 0 0 0 0];


internalField   nonuniform List<vector> 
14907
(
(0.996704 0.0115417 -1.61428e-21)
(0.996795 0.0119466 -9.59674e-21)
(0.996394 0.0117681 7.87563e-21)
(0.998643 0.00529947 -7.8037e-21)
(0.998497 0.00551269 -3.2766e-21)
(0.998677 0.00558882 2.45782e-21)
(1.03587 0.0131349 2.72381e-22)
(1.03675 0.0134136 2.2044e-22)
(1.03643 0.0122853 1.25928e-21)
(1.01085 4.18358e-05 0)
(1.01079 7.76678e-05 6.15722e-22)
(0.695479 0.0948221 0)
(0.626468 0.0857791 0)
(0.768957 0.105993 -4.21329e-20)
(0.999253 0.00517182 -1.23717e-21)
(0.999275 0.00486505 -5.25362e-21)
(0.99913 0.0050758 -4.57537e-21)
(0.736585 -0.00497038 -8.77499e-22)
(0.669439 0.0063882 -6.33429e-20)
(0.820686 -0.0127391 -2.97624e-20)
(1.33676 -0.00876082 -2.28678e-21)
(1.33823 -0.000238376 -4.14917e-20)
(1.29305 -0.00562944 -3.08038e-21)
(1.03015 0.0126572 1.55228e-21)
(1.03002 0.013447 -1.89239e-21)
(1.02927 0.0129013 3.37292e-22)
(1.00179 0.00505851 2.06829e-21)
(1.00177 0.00524516 9.30416e-24)
(1.00194 0.00531141 0)
(-0.242993 0.0037462 5.52751e-20)
(-0.261039 0.0055587 2.75761e-20)
(-0.246573 0.00737552 1.16429e-21)
(1.01412 0.000155064 0)
(1.01061 4.50188e-06 -8.62272e-22)
(1.01543 0.00189284 8.53773e-22)
(1.01532 0.00209595 6.1395e-22)
(1.01565 0.00212223 -9.90528e-22)
(1.01568 0.000749456 -1.21054e-21)
(1.01551 0.000722798 -7.75267e-22)
(1.01558 0.000904859 4.02401e-22)
(0.960948 0.0568406 1.36597e-20)
(0.962743 0.0549002 -1.06564e-20)
(0.959896 0.0538984 -7.34749e-22)
(0.999708 0.00651379 -3.40317e-21)
(0.999664 0.00623195 4.01896e-22)
(0.99981 0.0063053 -4.61759e-21)
(0.999798 0.0067851 -8.71244e-21)
(0.999627 0.00674546 3.46727e-21)
(1.00003 0.000312412 3.18717e-21)
(1.00003 0.00032273 0)
(1.00004 0.000430455 0)
(0.996604 0.0110912 7.55378e-21)
(0.997023 0.0113059 8.57812e-21)
(0.66854 0.285169 -1.1875e-20)
(0.692306 0.297757 1.53739e-20)
(0.694321 0.276285 1.49112e-20)
(1.00426 0.0053803 6.03154e-22)
(1.00426 0.00562693 3.49109e-21)
(1.00451 0.00558044 8.49147e-21)
(1.27498 -0.0683898 -2.37956e-20)
(1.26873 -0.0672333 1.24187e-20)
(1.27363 -0.0607343 3.99535e-21)
(1.01436 0.000416473 -6.69879e-22)
(1.01436 0.00042689 1.04701e-21)
(1.01472 0.000570294 1.09492e-21)
(1.01401 0.00443307 2.52885e-21)
(1.01436 0.00448495 8.91707e-22)
(1.01422 0.00415478 -1.19899e-22)
(0.998775 0.00511401 6.88286e-21)
(0.998617 0.00504477 -3.82911e-21)
(1.09618 0.0166479 1.87489e-22)
(1.09825 0.0140855 6.70611e-21)
(1.09459 0.0137465 -1.31996e-21)
(0.998795 0.00184217 -6.5539e-21)
(0.998908 0.00159317 0)
(0.998946 0.00175704 -3.90736e-21)
(0.996843 0.0569301 0)
(0.995002 0.056009 5.44409e-21)
(0.996902 0.0548087 0)
(1.02211 0.0219753 2.06061e-21)
(1.02151 0.0225637 3.81101e-22)
(1.02139 0.021582 6.44736e-22)
(1.00318 0.0487902 3.09224e-21)
(1.00476 0.0495114 3.28356e-21)
(1.00337 0.0508821 -2.74086e-22)
(0.996855 0.00436624 -3.12523e-21)
(0.996579 0.00437109 -1.07216e-20)
(0.996787 0.00408406 4.84273e-21)
(-0.141132 0.0261381 -1.36774e-19)
(-0.154074 0.0260774 2.76063e-20)
(-0.155054 0.0252099 -6.36531e-20)
(1.00182 0.00485416 -5.921e-21)
(1.00165 0.00479356 2.29298e-21)
(1.02153 0.0434828 5.62151e-22)
(1.02179 0.045156 1.1237e-21)
(1.01996 0.0439848 -1.65221e-21)
(1.07207 0.0562839 -3.70248e-21)
(1.07282 0.0533085 0)
(1.06989 0.0540894 -3.06672e-22)
(1.01366 0.00439445 8.96135e-22)
(1.0138 0.00473272 9.31304e-22)
(1.09193 0.0208686 8.18223e-21)
(1.09432 0.0186918 9.46167e-21)
(1.09053 0.0181485 -2.15103e-21)
(1.1067 -0.0145549 -4.73593e-21)
(1.10328 -0.0140466 0)
(1.10549 -0.0113248 6.29309e-22)
(1.01328 0.0042803 -1.42341e-21)
(1.01354 0.00400547 -1.5125e-21)
(1.00771 0.120108 -5.55102e-22)
(1.01026 0.12292 3.54662e-21)
(1.00493 0.122376 8.15311e-21)
(0.648066 0.288246 -5.49227e-20)
(0.654079 0.266885 1.58301e-20)
(0.96968 0.0531893 3.39799e-22)
(0.968444 0.0553464 4.86017e-22)
(0.971065 0.0553535 4.116e-21)
(0.789854 -0.0157384 6.19667e-20)
(0.648721 0.0116445 3.0498e-20)
(0.992948 0.0324406 1.00907e-20)
(0.99376 0.0335208 -1.32175e-21)
(0.99409 0.0319217 -3.17974e-21)
(0.783723 0.107667 9.87251e-21)
(0.602156 0.0879041 3.8774e-20)
(1.16417 -0.0263933 8.70951e-21)
(1.16109 -0.0306772 0)
(1.15815 -0.0249128 1.69724e-20)
(0.977867 0.0367895 3.56352e-21)
(0.978142 0.0381998 6.82701e-21)
(0.976667 0.0374839 7.01483e-21)
(1.18751 -0.0971998 -1.90358e-20)
(1.1805 -0.0937546 2.9284e-21)
(1.18107 -0.102389 -1.9947e-20)
(1.08373 0.0324584 1.62158e-21)
(1.08595 0.0346507 -1.09802e-20)
(1.08645 0.0313748 1.48936e-20)
(1.10285 -0.0784934 0)
(1.09731 -0.0795879 0)
(1.09843 -0.0732197 0)
(1.00037 0.000451573 -4.07218e-22)
(1.00043 0.000541459 -9.55931e-22)
(1.00047 0.000488425 4.70199e-21)
(1.0364 -0.00768069 1.54084e-21)
(1.0372 -0.00816669 2.305e-21)
(0.9614 0.0434324 -1.64208e-22)
(0.959122 0.0440319 7.37832e-21)
(0.959846 0.0415434 -1.74185e-20)
(1.04391 -0.0107062 -5.33417e-21)
(1.04444 -0.00961462 1.97733e-21)
(1.04531 -0.0111847 5.49565e-21)
(1.09376 0.0234572 0)
(1.09003 0.0230358 0)
(0.999199 0.00546874 -4.51052e-21)
(0.999323 0.00526418 9.9891e-21)
(1.02266 0.0215835 -3.55119e-23)
(1.02292 0.0225506 -1.41268e-21)
(0.977516 0.0350879 -5.32994e-22)
(0.979205 0.0359643 -6.50926e-21)
(1.02296 0.0429391 -5.74016e-22)
(1.02128 0.0419338 -1.12477e-21)
(0.963358 0.0423744 0)
(0.962984 0.0446284 2.72304e-21)
(0.997719 0.00482364 -1.00891e-21)
(0.997822 0.00452261 2.90202e-22)
(0.997571 0.0046387 -3.83071e-21)
(0.997099 0.0064845 -2.17226e-21)
(0.997316 0.00661621 -2.39213e-21)
(0.997327 0.00628274 4.60627e-21)
(1.07115 0.0589508 1.56117e-21)
(1.07433 0.058471 -2.21311e-21)
(1.03502 0.0127534 1.69967e-22)
(1.03514 0.0138507 1.41427e-21)
(0.967041 0.0169839 -1.3109e-21)
(0.965717 0.0176913 -1.74558e-20)
(0.966958 0.0186173 -7.31077e-21)
(1.02423 0.0423771 1.56823e-22)
(1.02441 0.0410063 0)
(1.02597 0.041876 -1.98859e-21)
(0.974307 0.0123344 -1.61716e-20)
(0.973777 0.0134355 -1.33557e-21)
(0.975109 0.0129821 -5.98519e-21)
(0.727155 0.211913 -6.20272e-20)
(0.731273 0.192491 5.93522e-20)
(0.74615 0.204777 -1.06682e-19)
(-0.150115 0.00179937 -7.00016e-20)
(-0.11993 0.000858786 1.38725e-20)
(-0.128291 -0.00804048 -1.4097e-20)
(1.00156 0.0267135 0)
(1.00154 0.0276629 5.01011e-21)
(1.00074 0.0270943 0)
(1.0435 -0.012087 -2.8749e-21)
(1.04257 -0.0105418 -7.9864e-21)
(0.639262 0.305381 1.29513e-20)
(0.991785 0.0331295 1.07369e-20)
(0.992079 0.0315216 5.55153e-21)
(0.865511 0.0750518 1.43555e-20)
(0.868831 0.0686197 -1.18508e-20)
(0.860171 0.0682907 1.9638e-20)
(0.974732 0.00897113 8.1549e-21)
(0.975369 0.00985778 -5.91582e-21)
(0.97588 0.00880923 5.31644e-21)
(1.01474 0.00450779 2.43899e-21)
(1.01449 0.00483318 -2.91737e-22)
(0.486305 0.0577741 0)
(0.581152 0.0725054 1.68618e-22)
(0.996547 0.0107287 -1.76272e-21)
(0.996478 0.0103326 1.10062e-21)
(0.99684 0.0104749 -1.32024e-20)
(0.902706 0.0950178 -2.10614e-20)
(0.901464 0.088793 2.1e-20)
(0.907327 0.0921193 -1.71063e-20)
(0.684311 0.0105424 3.55478e-20)
(0.609108 0.0185848 -2.909e-20)
(0.552135 0.0283876 2.85347e-22)
(1.08095 0.0334895 8.5371e-22)
(1.08163 0.0303388 -2.8569e-21)
(0.899365 0.131124 -1.25972e-19)
(0.982246 0.140499 3.47131e-20)
(1.0078 0.0365731 9.33183e-22)
(1.00826 0.0357105 4.9126e-21)
(1.00887 0.0368777 -1.16905e-23)
(0.972253 0.0491492 2.17178e-22)
(0.971339 0.0471555 2.06121e-21)
(0.973614 0.0472256 2.06366e-21)
(0.974802 0.0110652 -2.14554e-20)
(0.973435 0.0114951 1.39835e-21)
(1.00007 0.00146433 -3.47737e-22)
(1.00006 0.00150294 -6.01657e-23)
(1.00004 0.00125495 5.11173e-21)
(0.997429 0.0133487 -8.03198e-21)
(0.99716 0.0130523 -1.5396e-21)
(0.997016 0.0136002 0)
(1.16991 0.273285 1.35678e-20)
(1.15921 0.270119 2.89464e-20)
(1.16817 0.263392 -1.1425e-20)
(0.986829 0.0206375 1.64173e-20)
(0.987191 0.0214662 -4.46426e-22)
(0.986255 0.0213287 -6.10139e-21)
(0.997724 0.0138407 -8.77393e-21)
(0.997876 0.0132343 -5.17854e-21)
(1.03431 0.0323608 2.03191e-22)
(1.03513 0.0312836 -1.00658e-23)
(1.03351 0.0312831 2.04384e-22)
(1.00381 0.155062 -6.3022e-20)
(0.811158 0.118614 -6.86058e-20)
(0.998397 0.0579742 -5.35419e-22)
(0.9965 0.0592898 7.15457e-21)
(1.03651 -0.00677929 1.28973e-21)
(1.00155 0.0482127 1.87931e-22)
(1.00299 0.0470207 -3.13079e-21)
(1.01664 0.0289181 0)
(1.01582 0.0292156 -2.09077e-21)
(1.01677 0.0298 0)
(0.99972 0.0102402 2.07108e-21)
(0.999514 0.0100329 3.89338e-21)
(0.999812 0.00988318 -5.97279e-21)
(1.01062 0.0288971 3.80983e-21)
(1.01107 0.02813 -7.35115e-22)
(1.01015 0.0280909 -6.54303e-21)
(1.0051 0.11563 3.81352e-21)
(1.01083 0.116464 -6.26136e-22)
(1.02641 0.0195509 -2.52272e-22)
(1.02724 0.0198884 -1.6367e-22)
(1.0268 0.0189572 -4.90663e-23)
(0.999999 9.40346e-05 -3.1706e-21)
(1 9.45688e-05 0)
(1.17712 0.200248 1.06635e-20)
(1.17239 0.206706 -3.02291e-21)
(1.18187 0.206183 -9.1475e-21)
(1.31248 -0.0150118 -5.40698e-20)
(1.27267 -0.0243986 -3.77658e-20)
(1.33022 -0.0180449 -2.9979e-20)
(1.00007 0.00169283 -2.47958e-22)
(1.00007 0.00147278 -4.73567e-21)
(0.990201 0.0527196 1.15572e-20)
(0.98877 0.0514151 5.05378e-21)
(0.990649 0.0506451 6.25507e-21)
(1.04483 0.206385 0)
(1.05262 0.207168 4.12203e-21)
(1.0474 0.215122 3.86556e-21)
(0.994281 0.0106922 -5.21262e-21)
(0.994019 0.011029 8.96479e-22)
(0.994433 0.0111651 -3.95322e-21)
(0.999947 0.0104531 7.64708e-21)
(0.999644 0.0106063 -1.80727e-21)
(1.004 0.00515562 4.30599e-22)
(1.00427 0.00509663 -8.02231e-21)
(1.02129 0.000522488 -7.84189e-24)
(1.02088 0.000576134 0)
(1.01008 0.00123751 -2.23942e-21)
(1.0098 0.00108209 3.9498e-22)
(1.00979 0.00142084 -5.10338e-21)
(1.00472 0.0211045 -2.62979e-21)
(1.00529 0.0216372 -5.3439e-21)
(1.00467 0.0220323 6.93783e-21)
(1.04288 0.0809485 0)
(1.04044 0.0823825 5.34857e-22)
(1.04001 0.0794507 0)
(-0.166203 0.0128825 8.84499e-20)
(-0.175167 -0.00361173 -4.67989e-20)
(0.968415 0.0165392 -8.82808e-21)
(0.967257 0.0155241 1.54507e-20)
(1.00236 0.0192859 2.8025e-21)
(1.00239 0.0199878 2.67936e-21)
(1.00177 0.0196368 2.7219e-21)
(0.991407 0.00469582 3.85069e-21)
(0.991874 0.00461808 4.59631e-21)
(0.991681 0.00507706 9.29049e-21)
(0.99624 0.0109557 -4.97529e-21)
(1.0177 0.0285889 0)
(1.01664 0.0279607 0)
(-0.0103666 0.0518382 -3.60222e-20)
(-0.0560876 0.0447683 0)
(-0.00687161 0.0531482 -3.9478e-20)
(0.986472 0.019769 7.74373e-21)
(0.987494 0.0198691 7.65271e-21)
(1.32895 -0.0138939 9.67762e-21)
(1.33992 -0.00900291 1.02394e-19)
(0.996396 0.035892 -1.3266e-21)
(0.997409 0.0366609 -7.14808e-21)
(0.997466 0.0352421 -7.91498e-21)
(0.994047 0.00286368 6.5045e-21)
(0.994153 0.00320862 7.13485e-21)
(0.994419 0.00297321 7.44116e-21)
(1.18187 0.192388 2.35218e-20)
(1.17235 0.192994 4.87122e-21)
(1.00654 0.0364227 2.81797e-21)
(1.00736 0.0380456 -3.27708e-21)
(1.33969 0.00740096 5.22081e-20)
(1.32765 0.00343373 3.55914e-20)
(1.08528 0.0513304 1.44568e-20)
(1.08637 0.0489003 1.87465e-22)
(1.08827 0.0516989 -1.36941e-20)
(1.04102 0.20032 -3.58803e-21)
(1.03604 0.206983 0)
(0.998011 0.014219 6.3489e-21)
(0.998264 0.0146585 2.92539e-21)
(0.998451 0.0140804 -1.54523e-21)
(0.896727 0.0974491 -1.97802e-20)
(0.903554 0.101031 -2.00194e-20)
(0.980736 0.0198463 7.24379e-21)
(0.980735 0.0210931 6.99058e-21)
(0.979582 0.0201787 5.89497e-21)
(-0.158246 0.0316275 -3.49909e-20)
(-0.186328 0.0275213 5.03618e-20)
(-0.188178 0.0283188 0)
(1.26639 0.0328021 0)
(1.26382 0.0277537 -1.48377e-21)
(1.27032 0.0270492 -3.79792e-20)
(1.02595 0.0203466 -2.07319e-22)
(1.02549 0.0193587 -6.71387e-23)
(1.11164 0.183165 2.75804e-20)
(1.10876 0.176146 -2.08684e-20)
(1.11669 0.177583 -7.27403e-21)
(-0.11056 0.0412 0)
(-0.143471 0.0386931 7.34092e-20)
(-0.109099 0.0422609 0)
(1.03528 0.0335511 -7.34138e-22)
(1.03352 0.0334025 0)
(1.19484 -0.099976 4.43193e-20)
(1.19353 -0.0913769 0)
(1.17951 0.276703 1.74893e-20)
(1.17042 0.28443 0)
(0.984873 0.0527887 -6.23364e-21)
(0.983511 0.051328 -6.50135e-21)
(0.982717 0.0535134 -1.66005e-20)
(0.991072 0.00440265 -2.91466e-21)
(0.990958 0.00487946 7.60374e-21)
(0.983675 0.0460058 5.59734e-21)
(0.98481 0.0474964 -1.5554e-21)
(0.985541 0.0455622 -8.45086e-22)
(1.22603 0.165068 -2.08261e-20)
(1.22261 0.172597 -1.2193e-20)
(1.21864 0.164634 -6.70924e-20)
(1.03462 -0.00304368 8.43802e-22)
(1.03395 -0.00344568 -3.33209e-21)
(1.03381 -0.0026645 -1.34586e-21)
(1.00418 0.020888 3.26539e-21)
(1.00478 0.0205103 3.01892e-21)
(1.13862 0.145494 1.82661e-20)
(1.13296 0.143734 -2.27086e-20)
(1.13443 0.150608 -3.35664e-20)
(1.02511 0.00049321 7.69043e-22)
(1.0249 0.000787539 7.34115e-22)
(1.02547 0.000786799 9.04995e-22)
(1.0111 0.0297234 3.41074e-21)
(1.01012 0.0296805 2.92051e-21)
(1.01585 0.0885762 -3.05384e-21)
(1.01257 0.0888214 -4.37483e-21)
(1.01443 0.0857019 4.33478e-21)
(1.03171 0.0119577 -7.06966e-22)
(1.03157 0.0111169 0)
(1.03242 0.0115205 1.13303e-21)
(1.00003 0.000125945 -3.6793e-21)
(1.00004 0.000173309 0)
(1.00002 0.000121658 0)
(0.224636 0.0890221 6.1053e-20)
(0.261954 0.0802784 2.78803e-20)
(0.176934 0.0957461 3.84757e-20)
(-0.0438395 0.0454417 -3.6104e-20)
(-0.088346 0.044054 0)
(-0.0553895 0.0457303 0)
(0.999506 0.00122837 6.1346e-23)
(0.999568 0.00102841 -3.80372e-22)
(0.999581 0.00112163 -3.77888e-22)
(1.01524 0.00173213 2.88804e-21)
(1.01553 0.00171502 1.92773e-21)
(0.952812 0.0122645 9.99591e-22)
(0.954905 0.0127913 -1.0721e-20)
(0.954254 0.0106189 -2.1226e-22)
(0.996888 0.00636059 8.58007e-21)
(0.996897 0.006711 -8.73082e-21)
(1.10612 0.188207 2.68533e-20)
(1.11409 0.189349 1.67975e-20)
(0.0619327 0.0912269 -1.80897e-20)
(-0.115653 0.0341209 2.84189e-20)
(-0.108728 0.0549409 8.2909e-20)
(-0.249211 -0.0042501 -5.09358e-20)
(-0.245952 -0.000886599 -4.57261e-20)
(-0.240808 -0.00895284 0)
(1.23787 0.0502544 -3.30756e-20)
(1.23553 0.0448507 -1.66501e-21)
(1.24183 0.044944 -1.0169e-21)
(0.995746 0.00505845 -7.72172e-21)
(0.995956 0.00521855 -3.65608e-21)
(0.99565 0.00530954 -3.36019e-21)
(1.031 0.0123577 3.59756e-22)
(1.03182 0.0127533 -3.74121e-22)
(1.01207 0.0383799 9.68776e-22)
(1.01156 0.0395037 -5.33297e-21)
(1.01281 0.0395008 0)
(0.980776 0.0184814 6.5668e-21)
(0.981856 0.0194616 -9.43134e-22)
(0.950756 0.251189 1.45635e-21)
(0.947512 0.262943 -1.22782e-21)
(0.960764 0.257943 3.38052e-21)
(0.312751 0.194488 -6.4161e-20)
(0.374271 0.253489 -1.06551e-19)
(-0.156657 0.0292702 0)
(-0.160448 0.0339986 -3.19153e-20)
(-0.0338208 0.0458353 -3.43088e-20)
(0.0125234 0.0513578 -8.0108e-20)
(1.04444 -0.00606817 -1.70421e-21)
(1.0432 -0.00565715 4.81123e-21)
(1.04437 -0.00481577 -4.33042e-22)
(1.00518 0.0115727 3.98016e-21)
(1.00543 0.0120276 3.00543e-21)
(1.00562 0.0116876 -2.6275e-21)
(1.17483 0.193892 6.39887e-20)
(1.05782 0.173463 6.8033e-20)
(0.701801 0.356706 -7.39375e-20)
(0.695575 0.324975 -4.79789e-20)
(0.670127 0.343298 1.65729e-21)
(0.907433 0.162961 1.56333e-20)
(0.91555 0.16346 -8.39135e-21)
(0.911663 0.155382 -1.61829e-20)
(0.769622 -0.0446414 0)
(0.833626 -0.0515116 1.20256e-22)
(0.698316 -0.0204605 0)
(-0.198979 0.16387 0)
(-0.216294 0.120818 0)
(-0.18471 0.12922 0)
(0.995483 0.0351341 7.37483e-21)
(0.994604 0.034309 -2.0791e-21)
(0.995654 0.0337058 1.77406e-21)
(0.729266 0.233245 1.7508e-20)
(0.708701 0.220146 -7.19334e-20)
(1.0684 0.108031 -1.26067e-21)
(1.06761 0.103517 7.68913e-21)
(1.06396 0.106989 7.30052e-21)
(0.950602 0.0116248 -1.14631e-20)
(0.95125 0.0139804 1.21637e-20)
(-0.122443 0.0212309 -7.26899e-20)
(-0.117513 0.0236427 -2.47428e-20)
(0.973162 0.0147383 1.03096e-20)
(0.974216 0.0154897 -1.45227e-20)
(0.972564 0.0159996 1.2663e-20)
(1.08214 0.0516263 1.75955e-20)
(1.08427 0.0544274 -2.00439e-20)
(0.970896 0.0511079 -1.44259e-20)
(0.968511 0.0511007 -1.22393e-20)
(-0.0194831 0.0498883 -3.42899e-20)
(0.0598135 0.0626902 -8.00353e-20)
(1.27297 0.0681415 1.55841e-20)
(1.27236 0.0623078 -2.48036e-21)
(1.26743 0.0663074 1.79309e-20)
(1.02263 0.0374444 -1.03905e-21)
(1.0219 0.0368067 -2.60958e-21)
(1.02148 0.0378519 2.56774e-21)
(-0.219948 -0.0208885 2.9702e-20)
(-0.222125 -0.0227566 -2.58738e-20)
(-0.218036 -0.0248312 1.35851e-22)
(1.05882 0.0409913 5.98761e-21)
(1.057 0.0394892 -3.06972e-21)
(1.05933 0.0387349 -5.05541e-21)
(0.774169 0.776752 -1.39517e-22)
(0.773676 0.712803 -1.39799e-22)
(0.718394 0.750268 1.15068e-20)
(0.982552 0.0447474 -1.22883e-20)
(0.98161 0.0467683 -4.52222e-21)
(0.180111 0.102034 2.94793e-20)
(0.269499 0.0791221 4.7145e-20)
(1.31718 0.220761 -2.24747e-20)
(1.29054 0.205508 3.09003e-21)
(1.22088 0.0049074 -8.41259e-21)
(1.21561 0.00648028 3.39848e-20)
(1.2208 0.0106048 3.21765e-20)
(1.36071 0.163535 -5.89885e-20)
(1.33365 0.150413 5.71308e-21)
(1.34483 0.162539 -5.64709e-20)
(1.07653 0.0242027 0)
(1.07422 0.0232692 5.14651e-21)
(1.07638 0.0214916 -8.02597e-21)
(0.994983 0.00972404 4.72741e-21)
(0.994963 0.0101518 -3.0967e-21)
(0.995349 0.00990545 -1.6815e-20)
(1.01509 0.00151428 -1.25497e-21)
(1.01493 0.00170512 2.94503e-21)
(1.0306 0.060971 2.14424e-21)
(1.03265 0.0604784 8.1623e-22)
(1.0318 0.0633377 1.94613e-22)
(0.884037 0.143582 -1.58387e-20)
(0.892801 0.146088 1.129e-20)
(0.891207 0.13752 -1.39273e-20)
(1.02364 0.0374978 -1.85774e-21)
(1.02297 0.0387526 1.32243e-21)
(1.00601 0.0216617 -2.7314e-21)
(1.00678 0.0218965 0)
(1.0063 0.0209893 2.66553e-21)
(0.726092 0.357677 -1.7701e-21)
(0.708735 0.380526 -2.28464e-20)
(0.972083 0.0140864 1.83061e-20)
(1.01795 0.0121442 1.5901e-21)
(1.01852 0.0120748 -1.70888e-21)
(1.01842 0.012727 -2.10123e-21)
(0.83334 0.872834 0)
(0.856671 0.764184 0)
(0.999289 0.00193892 6.73506e-21)
(0.999264 0.00178981 -4.61338e-21)
(0.999364 0.00169469 -3.48104e-21)
(1.00002 0.000359874 -4.02456e-21)
(1.00002 0.000370977 -3.69969e-21)
(1.00004 0.000495479 -7.37987e-21)
(0.99992 0.000585106 -9.77772e-23)
(0.999909 0.00057862 1.04681e-20)
(0.999895 0.000747347 9.831e-21)
(1.33529 0.163746 -4.82512e-20)
(1.33812 0.15706 1.58392e-20)
(1.01526 0.000297661 -4.96735e-22)
(1.01542 0.000224442 0)
(1.01397 0.000128146 3.07675e-23)
(0.941224 0.244238 -9.46613e-21)
(0.952738 0.240362 -1.19637e-20)
(1.04612 0.430872 1.44521e-20)
(1.02725 0.436858 -9.38125e-21)
(1.04461 0.45312 -2.78416e-20)
(0.956989 0.0132413 0)
(0.955717 0.0148788 2.93603e-22)
(1.27943 0.0689865 -4.73534e-20)
(1.27369 0.0726213 4.25166e-20)
(0.978663 0.00747892 1.27173e-21)
(0.978162 0.00843564 8.74766e-21)
(0.979218 0.00834648 1.92333e-20)
(1.00055 0.00735375 -3.80332e-21)
(1.00039 0.00745027 4.63256e-21)
(1.00057 0.00766674 2.25456e-22)
(1.15914 0.130864 -3.55859e-20)
(1.16186 0.125266 -4.84908e-21)
(1.16617 0.131612 3.04718e-20)
(1.01039 0.0141589 2.98406e-21)
(1.01004 0.0137639 -2.83572e-21)
(1.00991 0.0142665 -5.85137e-21)
(1.04544 0.0797294 -9.1549e-22)
(1.04573 0.0830071 0)
(0.952206 0.0210554 1.26321e-22)
(0.953265 0.0189855 -8.44883e-21)
(0.954505 0.0208299 1.20544e-20)
(1.14271 0.404608 0)
(1.1265 0.397758 -1.49605e-20)
(1.13916 0.387524 0)
(1.11015 -0.0150027 9.33106e-21)
(1.10776 -0.0176802 1.37441e-20)
(0.946276 0.0694174 2.76622e-20)
(0.946535 0.0725386 9.83882e-21)
(0.94332 0.0706828 1.19717e-20)
(1.09978 0.0116492 -5.94448e-21)
(1.10146 0.00887819 4.51683e-21)
(1.0982 0.00876728 -1.39832e-20)
(1.2889 0.0139456 4.47883e-20)
(1.29004 0.0182221 -1.40935e-20)
(1.28759 0.0175821 -2.08577e-20)
(1.00355 0.0206143 3.39547e-21)
(1.00296 0.0202918 0)
(1.00357 0.0199367 -3.01473e-21)
(1.25054 0.0720166 -3.48591e-21)
(1.25539 0.0753991 5.38123e-20)
(1.24903 0.0778796 -5.80683e-20)
(1.04316 -0.0131967 4.19894e-22)
(1.04454 -0.0135262 4.70741e-21)
(1.03012 0.0118511 1.3788e-21)
(0.810347 0.373085 -1.34635e-20)
(0.830184 0.367289 2.95382e-20)
(0.82757 0.388589 1.18352e-20)
(1.00498 0.0111712 2.9109e-21)
(1.00482 0.0114805 2.5685e-21)
(1.04273 -0.0144111 3.37939e-21)
(1.0419 -0.012972 -8.45567e-21)
(1.03758 0.0130819 0)
(1.03714 0.0140187 7.7025e-22)
(1.01861 0.0890437 3.58061e-21)
(1.01675 0.0923333 -7.89585e-21)
(1.01657 0.0139095 -2.70022e-22)
(1.01667 0.0144853 -1.39012e-21)
(1.01715 0.014171 1.72977e-21)
(1.01586 0.000464474 1.62569e-22)
(1.01595 0.00038913 5.45146e-25)
(1.016 0.000558028 -4.59152e-22)
(1.05683 0.0181562 1.22102e-21)
(1.05831 0.0173925 -1.66935e-21)
(1.05826 0.0193369 -4.39071e-21)
(1.05328 -0.0283085 2.72087e-21)
(1.05413 -0.0264924 -5.83521e-21)
(1.05529 -0.0286794 7.82165e-22)
(0.995523 0.004849 3.32365e-21)
(0.995874 0.00475709 -1.16329e-21)
(0.995312 0.036519 3.33332e-21)
(1.01247 0.0372583 -2.47416e-21)
(1.01131 0.0372649 3.26944e-22)
(1.03763 0.0839321 3.94159e-22)
(1.04087 0.0864444 -1.13253e-21)
(1.00229 0.0186411 0)
(1.00288 0.018961 6.15203e-21)
(0.997097 0.00432924 4.80721e-21)
(0.996932 0.00459705 5.071e-21)
(1.01311 0.00101735 -1.27692e-21)
(1.01284 0.000754357 1.25836e-21)
(1.01279 0.0010687 1.14589e-21)
(0.989751 0.0548316 -5.01678e-22)
(0.991735 0.0539004 6.23994e-21)
(1.04434 -0.00849925 0)
(1.04435 -0.00722227 -2.59683e-21)
(1.04308 -0.00809657 0)
(1.00001 0.000198718 2.2157e-22)
(1.00003 0.000299627 5.02855e-22)
(1.01492 0.00113863 6.82678e-22)
(1.01486 0.000954486 1.13262e-21)
(1.01507 0.000999616 2.19193e-21)
(1.00152 0.0257056 0)
(1.00235 0.0262283 0)
(0.994505 0.0773632 -1.01935e-20)
(0.992431 0.0790823 4.85419e-21)
(0.995422 0.0800706 -7.37092e-21)
(1.1479 0.418802 -2.00603e-20)
(1.15984 0.405033 3.46875e-20)
(1.23435 0.0544274 -2.1377e-20)
(1.24027 0.0546447 1.70847e-20)
(-0.213354 -0.0171477 -1.77925e-20)
(-0.219344 -0.0146108 2.72677e-20)
(0.904004 0.171002 1.25403e-20)
(0.899646 0.162524 6.04466e-21)
(0.923716 0.163903 -1.95956e-20)
(0.932081 0.16445 9.8008e-21)
(0.926645 0.156398 0)
(0.958748 0.0586641 1.20148e-20)
(0.961835 0.0593792 -1.70489e-20)
(1.17009 -0.0263806 -6.63814e-21)
(1.17503 -0.030653 9.83079e-21)
(1.17672 -0.0240891 -1.18541e-20)
(0.939124 -0.0516451 -4.22307e-20)
(0.96369 -0.0609716 -5.17869e-20)
(0.835702 -0.0389821 -5.57543e-20)
(1.0552 0.0191299 -4.16386e-22)
(1.05517 0.0172255 4.01363e-21)
(0.994633 0.0104019 2.26604e-21)
(0.994203 0.0102843 -4.31202e-22)
(1.01578 0.000612835 1.15418e-21)
(1.01569 0.000418101 1.67603e-22)
(1.0284 0.0620244 1.10262e-21)
(1.02924 0.0594383 8.27076e-22)
(1.01607 0.0136721 1.13997e-21)
(1.01651 0.0133803 1.57701e-21)
(1.28151 -0.0688876 -2.59494e-20)
(1.27714 -0.0760262 6.16932e-20)
(1.05466 -0.00300722 4.27559e-21)
(1.0537 -0.00217315 4.16665e-21)
(1.05522 -0.00173391 -7.54618e-21)
(0.997542 0.0143922 4.30407e-21)
(0.999945 0.000442435 -1.02831e-20)
(0.999951 0.00059312 -4.18559e-21)
(0.876725 0.138826 -1.40045e-20)
(0.876975 0.147712 -1.2005e-20)
(1.04573 -0.00872107 3.4479e-21)
(1.06338 0.425464 5.22276e-20)
(1.0502 0.414403 2.58425e-20)
(0.921083 0.172321 -4.04859e-20)
(1.19626 0.238334 -3.17703e-20)
(1.20079 0.246413 1.05545e-20)
(1.20726 0.237293 -1.34409e-19)
(1.05836 0.0426259 7.22793e-21)
(1.06071 0.042046 2.97336e-23)
(1.05119 -0.0282096 4.64572e-21)
(1.0522 -0.0305708 3.28133e-21)
(1.01557 0.0134799 2.02736e-21)
(1.01546 0.0129732 -1.41033e-21)
(1.01504 0.0132489 -1.90247e-21)
(1.07046 6.44307e-05 -8.48171e-21)
(1.07157 -0.000608947 -7.13828e-21)
(1.07179 0.00109796 1.19091e-20)
(1.0354 -0.00334238 1.37169e-21)
(1.03514 -0.00254363 -1.27402e-22)
(1.07318 0.108342 -1.31399e-20)
(1.06956 0.112149 -6.82316e-21)
(0.991185 0.021868 -3.20714e-21)
(0.990518 0.0215629 -3.33691e-21)
(0.991241 0.021027 6.34418e-22)
(1.09772 0.0193253 1.28262e-21)
(-0.126595 0.03453 6.46863e-20)
(-0.121661 0.0333615 -1.71845e-20)
(1.01768 0.0116766 2.50202e-21)
(1.01754 0.0122162 2.41455e-21)
(1.03276 0.0164232 -2.51735e-21)
(1.03301 0.0155142 -1.21246e-21)
(1.03388 0.016213 -1.09557e-21)
(0.886547 -0.0397154 8.27582e-21)
(1.04664 -0.0633594 9.8354e-20)
(1.16597 -0.0207909 -3.34617e-20)
(1.0224 0.0355399 5.10925e-22)
(1.021 0.0357622 -1.44161e-21)
(0.997329 0.00426324 4.01085e-21)
(0.997448 0.00445865 4.32463e-21)
(0.997585 0.00418155 -8.25671e-22)
(0.996608 0.0752649 1.49169e-20)
(0.993818 0.0745317 6.62694e-21)
(0.71946 -0.0365187 1.29446e-20)
(0.863183 -0.0732413 -6.64358e-21)
(1.16608 0.0587147 -1.52826e-20)
(1.16106 0.0619233 -2.46658e-21)
(1.16137 0.0558132 8.56653e-21)
(1.22869 0.159834 6.91046e-20)
(1.23264 0.167098 -2.27664e-20)
(1.00035 0.000357362 -9.27605e-21)
(1.0003 0.000394988 -7.17081e-21)
(1.01499 0.00132262 -2.92499e-21)
(1.01525 0.00136081 -2.64088e-21)
(1.00352 0.0214183 -1.06407e-21)
(1.03074 0.0139287 -3.47919e-23)
(1.02979 0.0141546 -1.16446e-21)
(1.28627 0.00801917 -3.28939e-20)
(1.29763 0.0108839 5.572e-20)
(0.99515 0.017427 3.78084e-21)
(0.995359 0.0181062 0)
(0.994686 0.0180248 3.88306e-22)
(0.997832 0.00498703 -8.219e-21)
(0.997585 0.00509922 7.98023e-21)
(1.00511 0.012755 -1.42555e-21)
(1.00541 0.0132055 9.45803e-22)
(1.00499 0.0131469 -3.85796e-21)
(0.979196 0.00650927 -1.61097e-20)
(0.97806 0.00646274 -1.57333e-20)
(1.10327 -0.0263893 2.86293e-21)
(1.10321 -0.030449 8.86948e-21)
(1.09984 -0.0275848 1.46403e-20)
(0.970096 0.064186 -6.4144e-22)
(0.96941 0.0666122 -1.47482e-21)
(0.967422 0.0641668 -6.80411e-21)
(1.1008 0.244985 1.91866e-21)
(1.09206 0.240608 -1.23223e-20)
(1.10131 0.235545 -1.09309e-20)
(0.422647 0.00949807 2.72002e-22)
(0.564966 0.0232133 -4.12097e-20)
(0.476628 0.0166583 -2.77909e-20)
(0.965187 0.0410061 0)
(0.963466 0.0396164 9.96441e-21)
(1.13551 0.0496988 -7.83829e-20)
(1.00573 0.0422481 2.37922e-20)
(1.05084 0.0451658 4.1861e-20)
(1.00222 0.0179677 2.39145e-21)
(1.00217 0.0173171 2.82258e-21)
(1.00269 0.0176297 -6.25143e-21)
(1.06894 0.000117228 -7.39019e-21)
(1.06937 0.00181106 6.01354e-22)
(0.998708 0.00212985 -5.6056e-21)
(0.998637 0.00195585 1.38451e-21)
(-0.245866 0.0269405 6.12381e-20)
(-0.249597 0.0267854 9.32932e-20)
(1.1851 0.185888 6.00979e-21)
(1.18879 0.179082 2.47821e-20)
(1.18057 0.179199 -1.23475e-20)
(1.34421 0.235544 -4.43917e-20)
(1.33167 0.237524 -1.897e-20)
(1.33483 0.227798 -1.8383e-20)
(-0.152755 0.171968 -2.44899e-20)
(1.01511 0.00457678 6.26465e-22)
(1.01525 0.00491874 -1.53001e-21)
(1.01548 0.00463218 1.49284e-21)
(1.05406 -0.00429309 0)
(1.05552 -0.00401255 6.21405e-21)
(1.00141 0.0286721 4.26821e-21)
(1.00226 0.0282393 -5.50246e-21)
(0.978265 0.0731118 -1.77708e-21)
(0.981224 0.0724569 9.61971e-21)
(0.978908 0.0701623 1.50203e-20)
(1.10151 0.0144582 1.58418e-20)
(1.00003 0.000903939 -1.11292e-22)
(1.00002 0.000735036 2.43425e-22)
(1.00001 0.000737022 4.95492e-22)
(1.05484 0.121169 5.34926e-21)
(1.05862 0.11899 -2.25691e-21)
(1.0577 0.124979 6.99444e-21)
(1.01035 0.00113856 6.34391e-23)
(1.01029 0.00148397 0)
(1.01611 0.000308158 -7.95412e-23)
(1.0162 0.000247413 -3.68909e-23)
(1.01596 0.000196389 4.71612e-24)
(0.993461 0.0349399 -3.51141e-21)
(1.10043 0.252764 2.73813e-21)
(1.10964 0.247789 3.19951e-20)
(0.99999 0.000274808 -5.18522e-21)
(0.999992 0.000133254 -1.44256e-22)
(0.999993 0.000132323 -1.45341e-22)
(1.05529 0.0377541 -3.82371e-21)
(1.05466 0.0398002 -2.81422e-21)
(0.980983 0.0174831 8.78974e-21)
(0.981186 0.0164212 9.09734e-21)
(0.981999 0.0171676 1.82169e-22)
(0.970872 0.0618726 -2.33121e-20)
(0.972808 0.063943 -2.38854e-20)
(-0.182963 0.0434265 1.81207e-20)
(-0.176266 0.0700574 -5.18689e-20)
(-0.20463 0.0599673 0)
(1.00174 0.018304 -4.23769e-22)
(0.999415 0.00132651 4.1336e-22)
(0.999432 0.00144591 1.8997e-21)
(1.00255 0.00162923 -1.65217e-21)
(1.00257 0.00185205 4.17306e-21)
(1.0028 0.0017742 -4.16422e-21)
(1.03418 0.0124074 -8.04768e-22)
(1.03482 0.0117584 1.70578e-21)
(1.07902 0.151039 5.91581e-21)
(1.08135 0.157059 0)
(1.0739 0.154713 2.97686e-21)
(1.22025 -0.000848758 -7.97289e-20)
(1.22544 0.00287744 1.67098e-20)
(0.938675 0.163231 1.25858e-20)
(0.937025 0.171183 -1.18195e-20)
(1.31003 0.0622504 -4.25613e-21)
(1.33812 0.0621085 2.61107e-20)
(1.34035 0.0677315 -5.3253e-20)
(1.10362 -0.0232082 -1.77199e-20)
(1.10668 -0.0259337 3.9985e-21)
(1.0788 0.0522538 -8.23364e-21)
(1.07967 0.0494425 1.71673e-21)
(0.979904 0.0177451 1.1782e-20)
(1.01583 0.000796114 9.17871e-22)
(1.03877 0.0303753 9.0334e-22)
(1.0393 0.0292569 3.09985e-21)
(1.03797 0.0293364 4.38251e-22)
(1.00001 0.000215303 0)
(1.00003 0.000334929 -2.34911e-22)
(1.2997 0.05409 0)
(1.29363 0.0571834 4.25219e-20)
(1.30081 0.0590373 -7.1053e-21)
(0.991848 0.0221525 -5.36074e-21)
(0.991152 0.0228605 2.23541e-22)
(1.02443 0.0439342 1.41384e-21)
(1.16674 -0.144536 1.21699e-20)
(1.16047 -0.137854 -1.25758e-20)
(1.15651 -0.148008 -2.82373e-20)
(1.0058 0.0224135 2.19639e-21)
(0.982167 0.0790605 1.1037e-20)
(0.984167 0.0770757 0)
(0.985161 0.0801344 8.24475e-21)
(0.973422 0.0511093 1.34939e-20)
(1.17192 -0.154458 3.62812e-20)
(1.17673 -0.142448 2.86497e-20)
(1.03681 0.00513391 -6.50588e-22)
(1.03718 0.00447405 -2.86692e-21)
(1.03757 0.00538286 -2.63911e-21)
(0.945747 0.0658611 -6.49541e-21)
(0.949282 0.0677179 1.14738e-20)
(1.04505 0.193762 -5.52972e-22)
(1.03649 0.193611 -3.56535e-21)
(1.05029 0.123713 -7.95232e-22)
(1.05146 0.117927 1.77062e-21)
(1.0343 0.0591371 -9.98517e-23)
(1.0363 0.057721 -6.28456e-22)
(1.03374 0.0570274 -7.5558e-22)
(0.994307 0.00884344 3.8394e-21)
(0.99424 0.00926412 5.80941e-22)
(0.99387 0.00900512 -6.06506e-22)
(1.2526 0.0528306 -3.45205e-20)
(1.26221 0.0614787 1.50603e-20)
(1.14271 0.141659 6.35526e-20)
(1.14322 0.1491 7.37947e-21)
(1.04515 0.00833087 -4.24567e-21)
(1.04631 0.00776919 0)
(1.04614 0.00888048 1.45672e-21)
(1.08381 0.146913 5.88978e-21)
(1.07687 0.145482 7.48281e-22)
(1.00155 0.00864495 8.2021e-21)
(1.00137 0.00852379 4.56762e-21)
(1.00145 0.00883462 -5.98065e-22)
(1.00512 0.0108633 -3.55035e-21)
(1.00476 0.0107767 -3.12411e-21)
(1.00177 0.00879798 7.96353e-21)
(1.00167 0.00841066 -1.64552e-21)
(0.979086 0.078015 1.04751e-20)
(0.980076 0.0813203 -4.33922e-21)
(1.31321 0.238638 1.80533e-20)
(1.29473 0.229456 1.77667e-20)
(1.29219 0.239874 7.35505e-20)