/*--------------------------------*- C++ -*----------------------------------*\
| =========                 |                                                 |
| \\      /  F ield         | OpenFOAM: The Open Source CFD Toolbox           |
|  \\    /   O peration     | Version:  v2012                                 |
|   \\  /    A nd           | Website:  www.openfoam.com                      |
|    \\/     M anipulation  |                                                 |
\*---------------------------------------------------------------------------*/
FoamFile
{
    version     2.0;
    format      ascii;
    class       volVectorField;
    location    "700";
    object      ddt0(U);
}
// * * * * * * * * * * * * * * * * * * * * * * * * * * * * * * * * * * * * * //

dimensions      [0 1 -2 0 0 0 0];


internalField   nonuniform List<vector> 
10042
(
(-0.000991645 -0.000128598 -3.51514e-18)
(-0.000470902 -0.000358255 1.62835e-18)
(-0.00252239 0.00128161 7.27865e-19)
(-0.00108699 6.24289e-06 2.80989e-19)
(-0.0119001 0.00361576 5.40311e-17)
(-0.00141388 -0.000411386 1.30452e-17)
(-0.169743 0.053227 -7.12629e-17)
(-0.0438733 0.0427475 -5.50681e-18)
(0.0011574 0.00100815 7.05407e-20)
(-0.00132939 -2.51763e-05 2.53969e-19)
(0.0230349 -5.18089e-05 9.79187e-18)
(-0.00051328 8.26076e-06 -1.44002e-19)
(-0.0015423 9.19725e-05 1.80209e-19)
(-0.00318073 2.89441e-05 -6.65234e-19)
(-0.00260423 -0.00185776 -1.282e-17)
(0.00114252 -0.000210426 3.26765e-18)
(0.000906693 -0.000170043 -4.24695e-18)
(-0.000450778 -3.55202e-05 4.06896e-18)
(-0.000757985 -0.000111339 8.18167e-18)
(-0.00360017 -0.00944498 5.6959e-18)
(0.00313955 0.000122285 8.93195e-19)
(-0.00406609 0.0519424 9.02343e-18)
(-0.00226083 2.18344e-05 -2.01856e-19)
(-0.00406754 0.000147576 -9.87831e-21)
(-0.00058394 -0.000396151 1.33548e-19)
(0.00259498 0.0079221 9.9381e-18)
(0.000762782 -0.000647425 -1.94535e-18)
(-0.00360473 -0.000320894 1.07546e-18)
(0.00072663 0.000881121 8.7415e-19)
(-0.00366411 3.70816e-05 8.06254e-18)
(-0.000368005 -0.0003621 -5.6682e-18)
(-0.000435916 -0.000764727 3.80934e-17)
(-0.00239473 -4.81558e-05 -2.72667e-18)
(-0.00251305 0.0011332 -6.72549e-19)
(-0.00442866 0.00490883 3.46091e-18)
(-0.00432919 0.000138283 2.66949e-19)
(0.00191273 0.00732255 -4.93057e-18)
(0.00813024 0.00946235 2.62714e-18)
(-0.000745755 0.00013999 1.04681e-18)
(-0.00752151 -0.000394219 5.74956e-19)
(-0.00346346 -0.00945938 9.4526e-18)
(-0.00309412 -0.00153889 -6.0116e-18)
(-0.17187 0.058104 2.6917e-17)
(-0.00352798 -0.000737036 -1.35792e-18)
(-0.0105346 0.00363923 -5.40992e-18)
(0.00705717 0.0210341 -2.0808e-18)
(-0.0032874 -0.00135431 3.32912e-18)
(0.0226479 0.0329881 -1.17638e-17)
(-0.000790506 0.006476 2.12643e-18)
(0.0218174 0.00887685 -1.24059e-17)
(0.000120711 -4.14367e-05 -1.42619e-19)
(-0.000655686 -0.00141319 -2.49871e-18)
(-0.00361933 -0.00200516 -6.7533e-19)
(0.00163113 -0.000758736 6.38972e-18)
(0.00146594 0.00729789 1.0536e-17)
(-0.000234225 -0.000374292 -1.59727e-17)
(0.000812171 0.000947394 -1.68355e-19)
(-0.00342875 -0.00136119 -1.07424e-18)
(-0.00284454 0.00116889 8.08181e-19)
(-0.00432796 -0.00195755 -5.14003e-18)
(-8.93929e-05 -0.000413702 2.14459e-18)
(0.000789557 -0.000194366 6.09749e-18)
(-0.00468525 0.00496179 -6.27056e-18)
(-0.00230065 0.00123573 -6.49903e-19)
(-0.000687468 -0.00180812 5.77991e-18)
(-0.0028664 0.00134127 1.87445e-18)
(-0.00120474 -0.00147908 1.00467e-17)
(-0.00358585 -0.00825396 -1.10695e-17)
(0.0235951 -0.00327053 -4.68993e-17)
(-0.00103402 -0.000279353 -1.45947e-18)
(0.00177942 -0.00102532 -5.08578e-19)
(-0.00346049 -0.00979494 1.42108e-17)
(-0.00372355 -0.000761247 2.93537e-18)
(-0.00233902 -0.00470696 1.5659e-17)
(-0.00255497 -0.00146799 -3.70623e-18)
(-0.00666401 0.000148925 -8.194e-19)
(-0.011176 0.00208479 -5.56808e-17)
(-0.000659848 -9.5285e-05 -5.53086e-18)
(-0.00361555 -0.00382577 -1.69229e-17)
(-0.14712 0.0366798 -4.14143e-18)
(0.000259464 0.0062198 -4.75585e-18)
(-0.0126679 0.00609871 2.79213e-18)
(-0.00393782 0.000117685 -2.07107e-18)
(-0.00215733 -0.00146186 -1.85999e-17)
(-0.00152485 -0.00150631 1.70934e-17)
(-0.000412717 -0.000209148 -1.09851e-18)
(-0.00250746 -0.000204145 -5.13036e-18)
(-0.0185659 -0.0023653 -3.34384e-17)
(-0.00357539 -0.00100393 -1.4318e-18)
(-0.001352 -0.000160802 6.03801e-18)
(-0.00152064 0.00188233 -5.13548e-19)
(-0.0107802 0.00615242 1.79289e-17)
(-0.0037165 -0.000265668 7.17445e-19)
(-0.000131705 -0.00127829 -1.04929e-18)
(-0.0036131 -5.26978e-05 1.8136e-18)
(-0.00117555 0.000629238 9.19171e-19)
(-0.0004829 1.95409e-05 -9.70871e-22)
(-0.00131051 0.000234031 -2.15815e-18)
(-0.00714022 -0.000297762 7.15286e-19)
(0.000962114 0.00113923 7.49002e-21)
(5.00455e-07 -5.58772e-06 -4.22585e-18)
(-0.0190191 0.00288429 3.16278e-18)
(-0.074289 0.0515977 -4.01993e-17)
(-0.00156989 -0.00022576 3.81736e-19)
(-0.00260393 -0.000653616 1.92898e-18)
(-0.0105211 -0.00149072 -6.79007e-18)
(-0.00277616 -0.000261045 7.47514e-19)
(-0.000719618 2.22357e-05 -2.02957e-18)
(0.00257816 0.000113979 -1.9396e-18)
(-0.000529649 -0.000156433 -1.21012e-19)
(-0.000383586 1.72074e-05 9.54384e-21)
(-1.84285e-05 -0.000112108 1.49985e-18)
(-0.00559707 0.00225498 -6.90772e-19)
(0.0280237 -0.00408491 1.27852e-16)
(-0.000741699 -0.00179883 3.33995e-18)
(0.000127202 -0.000188611 4.18596e-18)
(-0.000639367 -0.000270876 6.63758e-18)
(-0.000680876 -0.000112689 -1.75639e-17)
(-0.000938974 0.000670175 -4.02149e-19)
(0.00615566 -0.00519313 7.8515e-17)
(-0.003905 -0.000984323 5.85477e-18)
(-0.0241195 0.0468024 -1.64521e-17)
(-0.00266051 -0.000467684 -6.18008e-18)
(9.68355e-06 -0.000242949 -3.29115e-18)
(-0.0185933 0.00362582 1.28954e-17)
(-0.00325995 6.88316e-05 4.76187e-19)
(-0.0237434 0.0415442 3.88079e-17)
(-0.00389288 0.00636348 1.65469e-17)
(-0.0101235 -0.00157362 3.30625e-18)
(-0.000408201 -0.000168627 8.83562e-18)
(-0.00375446 -0.00394659 -1.00532e-17)
(-0.00118985 -0.001241 6.15888e-18)
(0.016442 -0.00339112 1.54881e-17)
(-0.0187651 0.0305778 3.61852e-17)
(0.000644212 0.0010936 -1.58935e-20)
(-0.013593 0.00221534 3.61379e-18)
(0.0043125 -0.00289357 -7.10241e-17)
(-0.00302101 0.00186655 1.26067e-18)
(0.0204357 0.0351558 2.1064e-18)
(-0.0191614 -0.00292337 3.64814e-17)
(-0.00375325 -0.000998522 -1.0774e-18)
(-0.000600975 -0.000295614 -3.52554e-18)
(-0.00324312 -0.000979723 -5.29632e-18)
(-0.0222314 0.0079759 -3.68157e-17)
(-0.00179644 -0.000656646 4.57928e-19)
(-0.000374665 -0.000128402 -2.38959e-18)
(-0.0141058 0.00543516 4.28907e-18)
(0.000143879 -0.000228345 -3.79922e-19)
(-0.000549406 0.000267971 3.69614e-18)
(-0.00480254 0.000606658 8.22344e-19)
(0.000353956 0.000990303 5.57743e-19)
(-0.000614278 -1.24657e-05 6.86148e-19)
(-0.092004 0.000209103 3.34845e-18)
(0.00878646 -0.00646516 -1.40542e-17)
(0.00316464 -0.000488713 -2.31345e-18)
(-0.00253815 7.66939e-05 -4.3945e-20)
(-0.00113663 -0.00225764 1.15121e-17)
(0.00104797 -0.000175243 -7.46588e-18)
(-0.0132772 0.00175966 -6.15535e-18)
(-0.00283516 0.00601361 6.4459e-17)
(0.0238332 0.00236335 3.05946e-17)
(-0.0156944 0.024307 1.09327e-17)
(-0.000792001 -0.000233159 -2.01405e-19)
(0.000296816 0.00103384 -3.95834e-19)
(-0.00452778 0.00037782 2.08967e-18)
(-0.00119617 -0.00121444 -1.52538e-17)
(-0.00830143 -0.00547603 5.17636e-18)
(0.0171011 0.00989554 -1.93895e-17)
(0.00216699 -0.0011108 -1.74685e-17)
(0.0094901 -0.00701988 -4.13912e-17)
(0.000686531 -0.000164151 3.55765e-18)
(-0.00391915 -1.13166e-05 -3.74703e-18)
(-0.0126966 0.00797629 -4.97348e-17)
(-0.00458 -0.0101898 1.56503e-17)
(-0.00570458 -0.00440328 5.83504e-18)
(-0.200696 0.112781 -7.12194e-17)
(0.0439213 -0.0482492 9.69242e-19)
(-0.0033898 -0.000593512 1.3594e-18)
(-0.00365235 -0.00855395 -8.55937e-17)
(-0.00760811 0.00331899 3.68193e-18)
(-0.00114043 -0.00233345 8.29471e-18)
(-0.00167365 -0.0021982 -1.97251e-17)
(-0.0027565 -0.00160957 3.92478e-18)
(-0.00398824 0.00611317 -1.7484e-17)
(-0.00300521 -0.00155743 -7.18698e-18)
(0.00701622 -0.00417403 -6.27964e-17)
(-0.0228229 0.0244172 2.10736e-17)
(-0.00224702 0.00111544 1.98758e-18)
(0.0246207 0.00629363 -7.64734e-17)
(-0.000804662 0.00386602 -8.47651e-19)
(-0.00487846 -0.0151375 -4.084e-19)
(-0.00385415 -0.00112318 5.50391e-18)
(-0.0952821 0.00261526 -3.24533e-17)
(-0.0181743 0.00914339 5.88606e-17)
(-0.00646647 0.0276106 -3.17494e-17)
(-0.0313495 0.0127939 -1.34739e-17)
(0.0010458 0.00534621 6.79811e-18)
(-0.00217604 -0.000174127 -4.5709e-18)
(-0.00251686 7.5016e-05 9.60246e-20)
(-0.00372194 0.00186688 -1.83115e-19)
(-0.00488 -0.00475316 -9.45745e-18)
(-0.00176331 0.00120464 -3.7701e-18)
(-0.00145435 -8.17579e-05 1.59088e-18)
(-0.00482732 -0.0101429 1.57717e-17)
(-0.00133906 -0.00158861 -8.63332e-18)
(0.000337088 0.000480706 -1.97752e-18)
(-0.00563891 -0.0159672 -2.98064e-21)
(0.00367078 -0.000568794 5.31393e-18)
(-0.000989792 -4.36958e-05 3.00822e-18)
(-0.005249 -0.000208414 2.7273e-18)
(-0.0355939 0.0136581 -1.00805e-17)
(0.000467055 1.14947e-05 7.08319e-19)
(-0.00791985 -0.00525729 3.24242e-18)
(-0.0122415 -0.0110125 -2.64133e-17)
(-0.00128957 -0.00220053 -7.45138e-19)
(-0.0229272 0.0240134 -1.5505e-17)
(-0.00254239 -0.00125035 2.42169e-18)
(-0.00296921 -5.18706e-05 -1.27688e-18)
(-0.0140007 0.00846942 1.22786e-17)
(-0.0012861 6.21739e-05 -2.14825e-18)
(-0.00581114 0.00250584 -6.3745e-19)
(-0.00134062 -0.00226824 -8.86535e-18)
(-0.0167285 -0.00955645 8.52427e-18)
(0.00932174 0.0100149 2.90381e-18)
(-0.00466589 -0.00249574 7.57349e-18)
(0.00357002 0.00843032 -1.9077e-18)
(-0.0225208 0.0362192 2.63448e-17)
(0.000148583 -0.00015667 1.52663e-18)
(-0.0206193 0.0212711 6.71778e-18)
(0.00211212 -0.00127914 3.15812e-19)
(0.00118475 0.000994681 1.20614e-20)
(-0.00664728 -0.00979055 1.76631e-18)
(-0.00394547 -8.45836e-07 3.08686e-18)
(0.00196904 -0.00155417 2.07501e-18)
(-0.00376682 0.00130157 9.83721e-19)
(-0.00492497 0.000736348 8.0262e-19)
(0.00144048 0.000445034 -9.25899e-19)
(-0.00155989 1.02681e-05 8.25339e-20)
(0.00107779 0.00325724 1.07145e-18)
(0.008661 -0.00121285 5.20368e-18)
(-0.000204379 -0.000246524 1.14306e-17)
(-0.00328461 -0.000560311 -3.89661e-21)
(-0.00372277 0.000378661 -2.20943e-18)
(-0.00657797 0.00204513 -3.11276e-19)
(0.00188068 -0.000131255 -1.57291e-18)
(-0.00100895 -0.000368858 3.00298e-18)
(-0.00262522 3.33713e-05 -5.71289e-19)
(-0.00273392 -0.00059297 -7.34216e-18)
(0.000529798 -0.000531489 7.20694e-19)
(-0.000283974 -2.5317e-05 -4.37963e-18)
(0.000422491 4.94373e-05 1.2773e-18)
(-0.000831384 -0.000250835 -2.66794e-18)
(-0.00584077 -0.000499639 -7.82617e-18)
(-0.0174492 -0.0100461 -1.0378e-17)
(-0.0161648 0.0233119 6.26293e-19)
(0.0215462 0.00630957 3.33791e-17)
(-0.00550266 -0.00466643 -3.44759e-17)
(-0.0061412 -0.00393198 2.23536e-18)
(-0.00269898 -0.0018656 1.23217e-17)
(0.00610699 0.0235227 3.58517e-18)
(-0.199318 0.0930647 -3.6851e-18)
(0.000184603 0.00305421 -3.09714e-18)
(-0.00260368 -0.00023538 3.51859e-18)
(-0.00161038 1.45355e-05 9.49813e-20)
(-0.00365813 0.00169514 -1.46365e-18)
(0.000912841 0.000404596 1.72671e-18)
(-0.00206626 0.0552906 -4.01477e-17)
(0.0011838 0.00149937 6.36943e-18)
(-0.00151863 -0.000200919 -4.49702e-18)
(-0.00557029 -0.000176391 -2.97236e-18)
(-0.00450804 -0.00496257 -3.29716e-17)
(0.00173841 -0.000531636 -2.65209e-18)
(-0.0127975 -0.0104412 2.3482e-17)
(-0.00572719 -0.00427127 5.278e-18)
(-0.0213143 0.000267862 2.30412e-17)
(-0.000603828 0.00397985 1.6779e-18)
(0.00858665 -0.00180122 -2.30051e-18)
(0.000667695 0.000339644 -9.56608e-19)
(-0.000846779 0.00399395 7.09654e-18)
(-0.00146319 -0.000592351 -1.10079e-18)
(-0.00845246 0.00338125 -5.99853e-18)
(-0.0033899 -0.000797992 2.19954e-18)
(0.00208816 0.00789688 3.13416e-18)
(0.0146765 -0.00391921 1.00836e-16)
(-0.00149991 0.000429755 1.87558e-18)
(-0.00159818 0.00129559 -1.04347e-18)
(-0.19468 0.0857451 1.19788e-18)
(0.00563764 0.0219731 6.38695e-18)
(-0.00383024 0.00103148 -4.11271e-20)
(-0.00129612 -0.000422005 1.7995e-18)
(-0.00543746 -0.000444548 2.48652e-18)
(-0.205449 0.126118 7.11579e-18)
(-0.00933957 0.0143171 5.32461e-18)
(-0.0227548 0.00855491 3.31797e-19)
(-0.000243289 -3.58391e-05 1.32225e-18)
(-0.00229765 6.51576e-05 2.4777e-19)
(6.24354e-07 -0.000141808 8.30474e-18)
(0.000882473 0.00107127 -3.27391e-19)
(-0.0229866 0.0378289 2.04677e-18)
(-0.0011518 -0.000444661 3.09233e-18)
(0.00150857 -0.000367779 -4.99668e-18)
(-0.00146736 -1.30302e-05 -3.28633e-18)
(-0.00208318 -0.00125234 -3.64068e-18)
(0.0113102 0.00888723 1.19459e-17)
(-0.00369338 -0.00157113 -2.14755e-18)
(-0.0137742 -0.00170032 1.1393e-17)
(-0.0372782 0.00222163 7.77332e-18)
(-0.00460499 -0.00191878 1.12373e-17)
(-0.086948 0.019344 -1.28374e-17)
(0.00331456 -8.6279e-05 2.80663e-19)
(0.00283396 0.00379888 -4.61769e-18)
(0.000682385 -0.000644991 -8.94863e-18)
(0.0127545 -0.0017773 -5.1642e-17)
(-0.0184972 0.0051612 -1.78878e-17)
(-0.0387176 0.00409197 -6.39773e-17)
(0.028708 -0.0591179 -4.4645e-18)
(-0.00489168 0.000176096 4.81974e-19)
(0.00141688 0.00138687 -3.63782e-18)
(-0.00105288 -0.000252092 3.04334e-18)
(-0.00468974 -0.00115551 -9.89903e-18)
(0.00304709 0.00842626 -5.73842e-18)
(9.54982e-06 -0.000115311 5.2686e-18)
(-0.00829868 0.00216907 1.9053e-18)
(0.000118193 1.86167e-05 -3.71675e-19)
(-0.00242587 -1.16538e-06 -1.03091e-18)
(-0.00339558 -0.000692146 -5.11571e-18)
(-0.0141423 -0.00202313 1.23263e-17)
(0.000938556 -3.59357e-05 -2.7987e-18)
(-0.00257705 0.00356985 -2.61286e-19)
(-0.00202014 -0.00119881 -7.04856e-18)
(-0.004291 -0.00153079 -3.81084e-18)
(0.0382268 -0.0135483 -1.20821e-17)
(0.0018951 -0.000135349 3.35505e-18)
(0.00316886 -0.00052891 2.91491e-18)
(-0.00168278 1.25708e-05 -1.48703e-18)
(-0.00259366 0.00113211 1.41175e-19)
(-0.0110106 0.00192587 8.01631e-18)
(-0.00646031 0.0286297 1.59139e-17)
(-0.00601201 -0.00369961 -4.55251e-18)
(-0.0393798 0.0291057 2.18159e-17)
(0.0110429 0.00937175 1.48194e-17)
(-0.00386035 0.00580144 5.06096e-18)
(-0.00205547 -0.00124555 1.15624e-18)
(-0.00297069 2.12989e-05 3.95678e-19)
(-0.000842417 0.0021661 1.55265e-18)
(-0.000633978 -2.87591e-05 -7.29649e-19)
(-0.0242465 0.0301582 4.22543e-17)
(-0.00304882 -0.000776396 -2.87368e-19)
(-0.0024269 0.0013083 -1.25881e-18)
(0.0373355 0.0309671 -4.44981e-18)
(-0.0015284 -0.000111151 -1.29917e-18)
(-0.0051859 -0.000999315 -4.48213e-20)
(-0.00226349 -0.00143303 1.6414e-18)
(0.0377378 0.0345026 7.38164e-18)
(-0.00156049 0.000606531 -1.32884e-19)
(-0.00453633 -0.00244233 5.89937e-18)
(-0.00967087 -0.00121478 -2.97447e-19)
(-0.00814065 0.00195727 1.97752e-18)
(-0.0042697 0.00203261 -8.21449e-20)
(-0.00146093 -0.000198202 -8.80609e-18)
(-0.0666113 0.0268242 -7.63383e-18)
(-0.0145383 0.00580203 -5.22644e-18)
(-7.39201e-05 0.00152755 3.07832e-18)
(-0.0107233 0.00229638 -5.67996e-18)
(-0.00427203 3.99349e-05 9.33266e-19)
(-0.0022419 3.23576e-05 -1.08635e-18)
(-0.00325317 5.93542e-05 -7.86269e-18)
(-0.00475649 -0.0010853 -7.57346e-18)
(-0.0334566 0.00355886 7.3348e-18)
(0.00445631 0.0001187 2.90418e-19)
(-0.000689952 -8.92973e-05 2.48902e-18)
(-0.00355992 -0.00180574 2.87765e-18)
(-6.07489e-08 -6.315e-06 4.28274e-18)
(0.000960795 -8.01215e-05 -5.9578e-18)
(-0.0042938 -0.00964623 8.91448e-19)
(-0.00164448 -0.000172692 1.04606e-17)
(0.002204 0.000494394 4.2373e-20)
(0.00448907 -0.0035545 5.68073e-17)
(-0.00154547 5.44505e-05 -4.6473e-19)
(-0.136979 0.0552987 1.21869e-17)
(-0.0231883 0.0292833 1.85658e-17)
(-0.00256783 -0.00475255 -1.02736e-17)
(-0.195769 0.140859 6.04994e-17)
(0.0196094 0.0074841 -2.46994e-17)
(-0.00671098 -5.83369e-05 1.95948e-18)
(-0.00631629 -0.00995712 5.96896e-18)
(0.00278014 -0.000586425 -1.36208e-18)
(0.022318 0.0104411 1.4679e-17)
(-6.35381e-09 -2.49057e-05 1.41688e-18)
(-0.00305258 -0.00139554 6.33425e-18)
(0.0566723 0.0631114 4.29227e-18)
(-0.00074757 -0.000253257 -1.18331e-18)
(-0.00437054 -0.00122058 6.2045e-18)
(-0.000304948 -0.0168911 -2.01549e-17)
(-0.0011151 1.6585e-05 8.07595e-20)
(0.00505693 0.000135041 1.15716e-18)
(-0.00299479 -0.00681737 -1.83964e-17)
(-0.00556787 -0.0153861 -1.25807e-18)
(-0.00173438 0.00133187 -3.33782e-19)
(-0.000829317 -0.000147946 -5.46207e-20)
(0.00227409 -0.0021459 4.19523e-17)
(-0.0191935 0.00436704 2.97948e-17)
(-0.00540282 -4.2641e-05 4.27933e-18)
(-0.00312763 -0.00810471 -1.37221e-17)
(-0.0135025 0.00600659 -6.79145e-17)
(-0.000566839 8.79439e-05 2.62267e-18)
(-0.000776023 -5.94117e-05 4.97456e-18)
(-0.000103077 0.000481557 -1.108e-19)
(0.00144481 -0.000164275 2.38654e-18)
(-0.00115856 1.28188e-06 1.05869e-18)
(-0.00183164 0.000412642 3.38694e-21)
(-0.0849658 0.0226103 2.6261e-17)
(-0.0720418 0.0473634 -2.53514e-17)
(-0.00311952 -0.00140668 3.75713e-18)
(-0.0390646 0.00399812 1.12541e-17)
(-0.000633611 2.84603e-05 2.87758e-21)
(-0.00100052 -0.00040826 2.04403e-18)
(-0.0284566 -0.0026332 -1.05421e-17)
(-0.00302874 0.00118561 1.6272e-18)
(-0.120548 0.0504508 -3.86474e-17)
(-0.0103879 0.0148732 1.10751e-18)
(-0.00203371 -0.00153478 1.29897e-17)
(-0.00222362 0.000305297 -1.75402e-19)
(-0.00161511 -0.000128058 -1.37212e-19)
(-0.0131733 -0.00731668 4.45062e-18)
(0.000566647 -0.000188466 -3.18098e-18)
(-0.00682089 -0.000312225 -4.41008e-19)
(-0.00343409 -0.000386045 -3.1099e-18)
(0.0226152 8.51649e-05 2.16041e-17)
(-0.00127058 -0.00213133 6.84739e-18)
(-0.0223396 0.00800736 1.06311e-17)
(-0.00295073 -0.00176642 1.22907e-17)
(-0.00199477 9.89813e-05 -2.53004e-18)
(6.62525e-05 -0.000180127 -2.53427e-18)
(-0.0203672 -0.00858561 -6.0417e-17)
(-0.00167677 8.30418e-05 -4.85984e-19)
(-0.000872972 -0.00332873 1.30073e-18)
(-0.000852569 -0.000392736 -3.89013e-19)
(-0.000166153 0.000605859 2.20166e-19)
(-0.000241781 0.00344393 -5.22651e-17)
(0.0018425 0.00549569 -2.87781e-18)
(0.000663339 -0.000307579 -7.37982e-18)
(-0.001141 1.31482e-05 1.47966e-18)
(0.00432716 -0.000729155 4.34613e-17)
(0.00115957 -0.000158332 -8.76878e-18)
(0.00136368 0.00570741 3.59317e-19)
(-0.00277378 0.00146954 -6.22853e-19)
(0.000938469 0.000371189 -8.12895e-19)
(-0.043234 0.006595 -9.84326e-18)
(-0.192024 0.125642 -1.15553e-17)
(0.00144047 0.000115794 -2.05939e-18)
(-0.000628139 -0.00171218 6.42947e-18)
(0.00477979 0.000447468 1.48571e-18)
(0.00103356 5.99712e-05 -1.46673e-18)
(0.0018788 -9.1062e-05 -1.75325e-19)
(9.91467e-05 -0.000240872 5.6397e-18)
(0.00490629 -0.00118465 -6.17616e-17)
(-0.000308089 -0.000278594 -7.78493e-18)
(0.00060511 1.41248e-05 -3.57481e-19)
(-0.00481351 -0.00156485 -3.18428e-18)
(-0.0387179 0.0531528 -2.68853e-18)
(-0.0131914 0.00889683 1.44305e-17)
(-0.000849718 -3.22566e-05 -2.64923e-18)
(-0.00768274 0.00359249 -1.34172e-19)
(-0.0308552 0.00985745 4.63908e-17)
(0.0125087 0.00940261 -1.71965e-17)
(0.000340187 -0.000367704 2.71094e-18)
(-0.00147161 -0.000173839 -4.03402e-18)
(-0.0194302 0.0293368 7.39598e-18)
(-0.000823613 0.00146096 3.98614e-18)
(-0.000695599 0.000102662 3.54282e-18)
(-0.00338423 -0.00382984 -1.38034e-17)
(-8.33556e-05 0.00113201 5.28089e-19)
(-0.00284426 0.000369965 -7.23274e-21)
(-0.00138788 -0.0023077 5.22369e-18)
(-0.0014702 0.00020842 5.62611e-19)
(-0.00749956 -0.00341933 -8.42782e-18)
(-0.00286227 -0.00030666 -1.94574e-18)
(-0.00179759 7.4603e-05 4.7381e-19)
(0.0239799 0.000214032 3.97195e-17)
(-0.00244929 2.24562e-05 2.1197e-19)
(-0.000552404 -0.000344878 3.67279e-19)
(-0.00158052 -0.00023701 -2.49088e-18)
(-0.00443015 -0.000389261 5.79115e-18)
(-0.00803187 0.00260735 -5.75712e-18)
(0.00190999 0.000121673 9.15616e-19)
(-0.00130155 0.00110252 3.54386e-19)
(-0.0398698 0.00286741 5.53865e-17)
(-0.00339821 -0.000103736 -2.81034e-18)
(-0.105169 0.0109257 1.20966e-17)
(-0.000322228 0.00302556 2.68982e-18)
(-0.000194556 -1.13051e-05 1.39873e-18)
(0.000317496 -9.61178e-06 9.23824e-19)
(-0.0195806 0.00195258 6.30785e-18)
(-0.00491871 -0.000792568 1.92513e-18)
(-0.000239882 -0.000302738 4.76346e-18)
(0.00133911 8.67613e-07 7.63291e-20)
(0.00156398 0.00144096 -1.07836e-19)
(-0.00469797 -0.00248665 -1.0758e-17)
(-0.158046 0.0427521 9.74669e-19)
(-0.000422742 -0.000197941 -8.31327e-19)
(-0.00718589 -0.00351373 4.41151e-18)
(-0.00341017 -0.0150152 -1.37059e-18)
(0.013014 0.00889856 -3.54725e-20)
(-0.000939348 -5.35449e-05 2.60631e-19)
(0.000183765 -0.000216642 -4.13762e-18)
(-0.00219692 0.000303344 -7.36046e-19)
(-0.000547554 -0.000239895 6.98223e-19)
(0.00255047 -0.000106532 -2.75245e-18)
(-0.00470485 -0.0445316 -4.56464e-17)
(0.0051511 -0.00229945 9.20372e-17)
(-0.000740711 -0.000281358 -4.59032e-18)
(-0.0034682 0.00647204 -1.33218e-17)
(0.00824826 0.00464743 -1.9426e-18)
(0.00946652 0.00443376 -8.54092e-18)
(-0.00154121 -0.00150598 1.70609e-18)
(-0.0010548 3.10568e-05 -1.11881e-18)
(-0.00904079 0.0502026 -7.3044e-18)
(-0.0135601 -0.00682576 -4.25803e-19)
(-0.00427373 -0.0148551 -1.13368e-18)
(-0.00032077 0.000316597 1.40196e-19)
(-0.00202537 0.000421763 3.79781e-18)
(-0.0035577 0.0011553 -1.48704e-18)
(-0.00272223 5.08393e-05 2.43361e-19)
(0.0162074 0.00060395 5.85151e-17)
(-0.00896639 0.00391398 -5.60736e-18)
(0.00134501 0.00155836 -2.41459e-18)
(0.000105175 0.000989818 -4.22168e-19)
(-0.000599169 1.45665e-05 1.33006e-18)
(-0.00236925 -0.00137976 -3.37383e-18)
(-0.00979287 0.0503296 2.81209e-17)
(0.00194697 0.00558953 -9.0654e-18)
(-0.00130956 -0.000653574 5.13184e-18)
(0.00552704 -0.000853673 -1.48074e-17)
(-0.00573438 -0.0143734 -4.4563e-19)
(-0.0112509 -0.0121438 9.63156e-18)
(-0.0110735 -0.00115262 2.75545e-18)
(0.00187914 -0.000126294 2.23678e-18)
(0.000364158 0.00112471 7.71975e-20)
(0.0283053 0.00638234 -8.18267e-18)
(-0.0132186 0.00599655 -3.10723e-18)
(0.000835339 -0.0240621 3.03402e-17)
(0.0313989 0.0120665 -7.99311e-18)
(-0.00377178 -0.00244933 -6.34764e-18)
(-0.000660856 -0.00340374 -6.95835e-20)
(-0.000697152 -0.000176388 1.22522e-18)
(-0.00141779 0.00355692 2.39886e-19)
(-0.00205317 -0.00170833 1.00742e-17)
(-0.00127806 -0.000199317 -9.3317e-19)
(0.0240647 0.00186996 3.95464e-17)
(-0.00292322 3.76772e-05 1.2855e-18)
(0.00325977 -8.85268e-05 -1.29736e-18)
(0.00998104 0.0198262 8.06776e-18)
(0.000605842 -0.000223635 3.3258e-19)
(0.0182805 0.0647004 2.01706e-17)
(-0.000522837 0.00284701 -5.99212e-18)
(-0.00505264 0.0377503 1.81714e-17)
(-0.00694975 0.000520086 8.22854e-20)
(6.16369e-05 -0.000202969 2.36051e-18)
(0.0020446 0.00206175 1.1748e-18)
(-0.00424775 0.00517151 -1.01863e-20)
(0.0214151 -0.000696986 6.86712e-18)
(-0.0113853 -0.000875289 1.15878e-18)
(-0.00910357 -0.00697645 5.40482e-18)
(-0.0029033 -4.64584e-05 -2.36878e-18)
(0.023066 0.0074839 2.51038e-18)
(-0.00454263 0.00190153 7.48027e-20)
(-0.00159025 0.000524038 -1.86504e-18)
(-0.00151238 -0.000195525 -3.90229e-19)
(-0.00193694 0.0021945 -1.02018e-18)
(0.00032609 -0.000428434 2.75373e-18)
(-0.00390903 -0.00249918 -1.53992e-17)
(-0.0125022 0.00937304 -1.79537e-17)
(-0.00412199 -0.00576316 -8.08776e-18)
(-0.0015913 -0.00065466 -1.24698e-18)
(-0.00349071 -0.000138678 3.23367e-18)
(0.000144663 1.67604e-06 1.40448e-18)
(-0.0013821 -0.000386557 -2.68303e-18)
(-0.00600139 -0.00971371 -7.04283e-18)
(0.00127053 9.59002e-05 -3.14423e-18)
(-0.00276727 0.00120565 -2.04421e-19)
(0.00129714 0.0504852 -3.40073e-17)
(-0.00104723 0.000198701 -9.53428e-19)
(-0.0137795 0.00550093 -6.29795e-18)
(0.0386242 0.0108502 3.46901e-19)
(-0.000806547 -0.000409451 -2.41574e-18)
(0.00624143 -0.00231394 -5.19061e-17)
(0.00107303 0.0137814 8.86332e-18)
(0.00149738 -0.000258098 4.19643e-18)
(-0.0241072 0.0211769 2.30572e-17)
(-0.00297777 0.00139101 4.48389e-19)
(-0.00109542 -3.57294e-05 2.82515e-18)
(-0.00119054 -0.0012231 -7.39337e-18)
(0.000891339 -0.00021838 -2.31749e-18)
(4.94519e-07 -1.6925e-05 -3.04363e-18)
(-0.00225904 0.0036519 2.12005e-18)
(-0.00212499 -0.00142911 5.69199e-18)
(-0.00661618 -0.0138594 1.527e-18)
(-0.00337488 -0.000880119 7.83753e-19)
(0.00105814 -0.000202428 9.6383e-18)
(-0.00127965 0.00152352 -9.30106e-19)
(-0.00844142 0.00279418 -5.63613e-18)
(-0.0005092 0.00975194 -3.88334e-18)
(0.000610851 -0.000236966 4.1928e-18)
(0.00465407 0.00274098 -1.21402e-18)
(0.000373693 0.0010745 -2.34769e-19)
(0.00905939 0.00869866 4.54162e-18)
(-0.000618489 -0.00102953 2.39079e-19)
(-0.00778021 0.000142116 6.12818e-20)
(0.00268222 0.000519534 -4.80348e-20)
(-0.00103067 -0.00248609 -5.42046e-18)
(-0.00158902 -4.97478e-05 3.49603e-19)
(-0.00284649 7.72029e-05 3.63501e-18)
(-0.0522745 0.00476446 -1.71696e-17)
(2.43721e-05 0.000483115 3.15399e-19)
(-0.00597046 -0.00938857 1.51611e-17)
(3.00851e-06 -0.000234768 -5.39893e-18)
(0.00266346 0.00161898 1.89843e-18)
(-0.000843196 3.77804e-05 -5.78605e-19)
(0.0036647 0.00999973 -1.71635e-17)
(-0.00151348 -0.000263772 -4.75619e-18)
(0.000279455 0.0143452 5.44e-18)
(-0.0028055 0.00110826 1.06745e-19)
(-0.0232305 0.0206426 -6.42928e-18)
(-0.000120752 -0.000109894 4.75993e-18)
(-0.185409 0.0689331 2.02353e-18)
(0.000360489 -0.000272322 4.0653e-20)
(-0.00412021 -0.00156615 1.38013e-17)
(0.00215089 -9.62651e-05 -7.23319e-19)
(-0.00252233 -0.00133294 -7.86898e-18)
(-0.00372013 3.188e-05 1.94709e-18)
(-0.00247969 0.00356631 -5.80425e-19)
(0.000120839 -0.000423503 -3.48223e-18)
(-0.003116 -0.00939654 1.55737e-17)
(0.0134442 0.00536563 3.37216e-17)
(0.0206869 0.0647778 -2.33385e-18)
(0.00266713 0.00383141 -8.78712e-19)
(-0.0065452 -0.00363323 8.39446e-18)
(-0.00237467 -4.11275e-05 -8.92887e-19)
(-0.00732097 -0.00266632 -4.99341e-18)
(0.00824359 0.0212465 -1.71549e-17)
(-0.000784415 -2.28919e-05 -2.68348e-18)
(-0.00325368 -0.00363216 -2.45734e-17)
(-0.00916037 -0.00749884 -4.01322e-18)
(-0.0026707 -0.0239136 -2.29654e-17)
(0.0396888 0.00864294 -5.32065e-19)
(-0.0128793 -0.0033827 -1.41931e-17)
(-0.00405495 0.00547689 4.86964e-18)
(-0.00249856 -0.000292641 -5.32331e-19)
(7.65458e-05 -0.000147489 2.90047e-18)
(0.00300815 0.00350868 -7.03601e-19)
(-0.001456 0.00386218 1.46661e-18)
(0.0218355 -0.000407162 9.39686e-18)
(-0.00587567 0.000161004 -6.5502e-20)
(-0.00463494 0.0022998 -8.47273e-19)
(-0.0155131 0.022239 6.65836e-18)
(-0.000562652 -1.08762e-05 -1.37473e-18)
(-0.000734865 -0.000372758 4.43727e-18)
(0.00480577 0.00290453 -2.30098e-18)
(-0.0160784 -0.00731696 -5.97159e-17)
(-0.00427952 -0.00149657 -2.52566e-18)
(-0.00674016 0.00355323 -9.30466e-19)
(0.0294269 0.00439271 1.01044e-18)
(-0.00123271 -0.000169319 -2.65482e-18)
(-0.14945 0.0408499 8.03637e-17)
(-0.00303784 0.000185615 5.87508e-21)
(-0.00326923 -3.85053e-05 1.82229e-19)
(-0.00284595 0.000185282 -1.07387e-17)
(-4.97385e-05 0.00117734 -3.59306e-19)
(0.011953 -0.00215397 -3.90327e-18)
(0.0117054 0.0242193 1.64017e-17)
(-0.00523126 -0.0105492 3.02256e-17)
(0.000770051 -1.49857e-05 9.39562e-20)
(-0.0188539 -0.0122647 -2.1849e-17)
(0.0149858 0.000312874 2.62093e-17)
(-0.023737 0.0289006 6.31632e-18)
(0.0215218 0.000231719 -1.14279e-17)
(0.00663212 0.0243401 2.78661e-18)
(-0.0200247 0.0219819 3.64967e-20)
(-0.00797986 -0.0017358 -1.95273e-21)
(-0.00297795 -0.00122724 1.96175e-17)
(0.000208789 -0.000403678 -3.00362e-18)
(-0.0035395 -0.00394625 2.45618e-18)
(0.0176116 -0.00147747 1.00584e-17)
(-0.00247679 2.6783e-05 1.94276e-18)
(-0.00538025 -0.00178943 -4.94407e-18)
(-0.0734878 -0.00202763 3.67719e-18)
(-0.00342727 -0.000358783 -1.78848e-18)
(-0.00255898 8.31795e-05 1.31339e-19)
(-0.00195928 0.000506985 2.12108e-19)
(-0.00393809 -0.000666696 -1.91733e-18)
(-0.00366068 2.51822e-05 -8.75908e-19)
(-0.00145927 0.000511914 1.93876e-18)
(-0.0189077 0.00135299 1.59449e-17)
(-0.0331304 0.0121918 2.30521e-17)
(-0.00086115 0.000501697 -1.05788e-18)
(-0.00305009 -7.15515e-05 4.1513e-18)
(0.0176344 -0.00274916 -3.43658e-17)
(-0.092653 -0.00278124 6.86006e-18)
(-0.00211109 -7.13909e-05 2.17039e-18)
(0.000395245 -0.000323033 -2.32438e-18)
(-4.19628e-05 -4.97137e-05 7.92125e-20)
(0.00117123 -0.00017566 -4.06878e-18)
(-0.0288382 -0.00417407 2.8109e-17)
(0.0134209 0.0241087 -1.75564e-17)
(-0.011532 -0.0107604 5.24462e-19)
(-0.00284959 -0.000772579 2.58784e-18)
(-0.00363355 6.53281e-05 2.0332e-18)
(0.00156613 0.000864333 -1.17674e-18)
(-0.000869966 -0.00238483 -1.18981e-17)
(-0.000191714 -0.000460431 -1.84351e-18)
(0.00580788 0.00951206 8.87176e-18)
(-0.00336033 -0.0017402 -4.43875e-18)
(-0.0287433 0.000540971 5.77878e-17)
(0.000368311 -0.000121281 5.53155e-19)
(-0.002768 -0.000149865 -2.36122e-18)
(-0.00926404 0.000176533 1.52058e-18)
(6.88948e-05 7.25578e-05 1.04686e-18)
(0.0151715 0.00423623 -4.51932e-18)
(-0.00673808 -0.00696213 -7.1481e-18)
(0.0016891 0.00195333 1.05809e-18)
(0.00552331 -0.00159886 3.77666e-17)
(-0.0054568 -0.0166856 4.2813e-17)
(-0.00305121 -0.000391913 -9.63877e-19)
(0.00256582 -0.000110322 -1.20157e-18)
(-0.091691 0.0143451 -1.00124e-16)
(0.0226248 -0.00106238 4.71243e-17)
(-0.00661766 -0.0017846 5.40071e-18)
(-0.00339161 0.00134946 1.45971e-18)
(-0.0488058 0.0392573 -5.2897e-18)
(-0.00554823 -0.0105471 6.28136e-18)
(-0.00163677 -0.00328273 -8.84974e-18)
(-0.00295162 -0.00116694 -6.10436e-18)
(-0.00142664 6.97594e-06 -8.79156e-20)
(0.00257607 0.000109392 2.92812e-19)
(-0.0136677 -0.0106285 -2.32117e-17)
(0.00254248 0.00377886 -4.72835e-18)
(-0.00532746 -0.00895389 1.0888e-17)
(-0.000639756 -3.97193e-05 -6.23417e-19)
(0.0357542 -0.0107319 1.23757e-17)
(-0.0314224 0.00450353 -2.16988e-17)
(0.000725118 -0.000218043 4.15601e-18)
(-0.000973541 -0.000139521 -4.14167e-19)
(-0.00292188 -0.00915056 -4.51547e-17)
(0.00337644 -0.000582117 -1.08078e-17)
(-0.000931963 3.84088e-05 -3.00524e-19)
(-0.00536976 -9.71477e-05 -4.83342e-18)
(0.0141316 -0.00220476 -4.39134e-17)
(-0.0139077 -0.0276763 1.11385e-17)
(-0.0546357 0.00749278 2.59476e-17)
(-0.000663372 -0.000247482 -4.44755e-19)
(0.000306318 0.0204774 -1.49538e-17)
(-0.00756077 -0.00146184 4.98415e-18)
(-0.000672006 0.000129549 -6.52747e-19)
(0.000599023 1.16102e-05 -2.12679e-18)
(0.00145534 -0.000469594 2.03123e-18)
(-0.014182 -0.0100621 2.51091e-17)
(-0.000395717 -0.000146719 8.63483e-19)
(0.000370287 -0.000199126 -1.19198e-18)
(0.00156045 0.020481 2.6574e-17)
(-0.00156928 -0.00145475 -1.42711e-17)
(-0.0137114 0.00781886 -1.92288e-17)
(0.00110017 -4.96385e-05 -9.86253e-19)
(0.00344429 -0.000621532 2.55415e-18)
(-0.000129337 1.74989e-05 1.41326e-18)
(-0.0016868 -0.000638615 -7.50267e-19)
(-0.0173589 0.0304849 -1.5389e-17)
(0.000764912 -0.000164407 -3.02537e-18)
(-0.000791791 -0.000283146 2.56616e-19)
(-0.00211492 0.0128224 1.09686e-17)
(-0.0074519 -0.00548245 -4.19212e-18)
(-0.00674311 -0.0124282 5.70499e-18)
(0.00188679 -0.000237581 -5.03269e-19)
(-0.0153843 0.013426 1.82525e-18)