/*--------------------------------*- C++ -*----------------------------------*\
| =========                 |                                                 |
| \\      /  F ield         | OpenFOAM: The Open Source CFD Toolbox           |
|  \\    /   O peration     | Version:  v2012                                 |
|   \\  /    A nd           | Website:  www.openfoam.com                      |
|    \\/     M anipulation  |                                                 |
\*---------------------------------------------------------------------------*/
FoamFile
{
    version     2.0;
    format      ascii;
    class       surfaceVectorField;
    location    "700";
    object      ddtCorrDdt0(Uf);
}
// * * * * * * * * * * * * * * * * * * * * * * * * * * * * * * * * * * * * * //

dimensions      [0 1 -2 0 0 0 0];


internalField   nonuniform List<vector> 
14907
(
(-0.000392313 -0.00011519 1.66888e-18)
(-0.00040735 -0.000129902 -3.70527e-19)
(-0.000401088 -0.000145901 -6.38898e-20)
(-0.00019369 -0.000376531 8.3661e-19)
(-0.000199426 -0.000349083 2.60526e-19)
(-0.000204788 -0.0003427 1.3922e-18)
(0.000752246 0.00129429 1.73922e-19)
(0.000769461 0.00135316 8.84426e-19)
(0.00083454 0.00127177 2.41767e-19)
(0.000146603 8.17594e-06 6.39667e-20)
(0.000137948 8.63629e-06 3.51995e-19)
(-0.0112783 0.00364809 2.45553e-17)
(-0.0112389 0.00255917 -1.0715e-17)
(-0.0150087 0.00466737 2.18326e-17)
(-0.000185597 -0.000385892 -2.8012e-18)
(-0.000172754 -0.000420061 6.63982e-18)
(-0.000177359 -0.000402996 3.95457e-18)
(-0.17081 0.0555965 -2.18233e-17)
(-0.159886 0.0465951 5.18304e-18)
(-0.174397 0.0562058 -3.08244e-17)
(-0.0350332 0.0441843 -1.2124e-17)
(-0.0330294 0.0419131 1.6151e-17)
(-0.0738117 0.0418315 -3.31668e-18)
(0.000483341 0.000992899 4.03113e-20)
(0.000433415 0.00104112 -1.37535e-19)
(0.000421492 0.000971933 -1.75738e-19)
(-0.000180355 -2.76343e-05 -1.13334e-18)
(-0.000184208 -2.45061e-05 7.36601e-19)
(-0.000182337 -4.62787e-06 2.4967e-18)
(0.0228026 -1.31912e-06 1.56854e-17)
(0.0235109 0.000115362 2.50507e-17)
(0.0226385 -0.00034581 -3.10067e-17)
(0.000167995 1.04004e-05 -5.04715e-19)
(0.000152306 4.97411e-06 1.72244e-19)
(0.000147951 9.03292e-05 7.41079e-20)
(0.000139238 9.81475e-05 7.37888e-19)
(0.000148542 9.97374e-05 -1.44091e-20)
(0.000170657 2.74101e-05 -1.14525e-19)
(0.000164036 3.01867e-05 -3.22966e-19)
(0.000167853 3.68942e-05 5.47506e-19)
(-0.00213037 -0.00183061 8.02794e-19)
(-0.00206592 -0.00177032 -5.81122e-19)
(-0.00201729 -0.00188436 -1.09577e-17)
(-0.000239962 -0.000199703 -3.44343e-19)
(-0.000227554 -0.00023685 -1.10536e-18)
(-0.000233612 -0.000214329 1.4769e-18)
(-0.000244588 -0.00015598 -7.16189e-19)
(-0.000247134 -0.000172329 -3.24422e-18)
(-3.07745e-06 -3.06981e-05 1.61839e-19)
(-3.31037e-06 -3.21525e-05 1.66054e-18)
(-5.33019e-06 -4.40652e-05 6.80504e-19)
(-0.000378566 -0.000108229 -6.2315e-18)
(-0.000383376 -9.60921e-05 4.78414e-18)
(-0.00335798 -0.00940337 7.797e-18)
(-0.00360742 -0.00934083 3.34241e-18)
(-0.00346813 -0.009215 -1.73996e-18)
(-0.00013381 0.000101272 -4.70633e-19)
(-0.000141494 0.000105273 1.05936e-18)
(-0.000132543 0.000102623 1.45236e-18)
(-0.00323349 0.053609 -1.40227e-17)
(-0.00104696 0.0510825 -1.56509e-17)
(-0.00483004 0.0508959 -1.69231e-17)
(0.000128325 1.84295e-05 -4.35436e-20)
(0.000117551 2.22881e-05 -7.13333e-19)
(0.000128306 2.94061e-05 -8.81079e-20)
(4.37834e-05 0.000161485 1.2422e-19)
(5.46584e-05 0.000172598 -4.23021e-19)
(5.75555e-05 0.000161901 4.93416e-19)
(-0.000187168 -0.000399663 1.21425e-18)
(-0.000184786 -0.00040705 1.76042e-19)
(0.00205523 0.00790553 6.41953e-18)
(0.00237905 0.00819018 1.37227e-18)
(0.00244686 0.00767656 9.01178e-19)
(-6.05684e-05 -0.000647738 -5.57075e-18)
(-5.12827e-05 -0.000649176 1.88308e-18)
(-5.73725e-05 -0.000639159 -2.32916e-19)
(-0.00228679 -0.000212958 8.83461e-19)
(-0.00224118 -0.00031551 -6.34277e-20)
(-0.00219054 -0.000220588 1.47131e-18)
(-0.000334014 0.00089141 3.40971e-19)
(-0.000382402 0.000864552 4.66666e-19)
(-0.000340569 0.000832041 1.28838e-19)
(-0.00188412 7.7087e-05 4.93254e-18)
(-0.00191567 0.000190531 -2.46113e-18)
(-0.0019969 0.000106588 3.71622e-18)
(-0.000151236 -0.000362571 -1.4382e-18)
(-0.000149016 -0.000340251 -2.22342e-18)
(-0.00013706 -0.000377735 -1.92439e-18)
(-0.00109277 -0.00140838 7.44599e-18)
(-0.000833123 -0.000305782 -7.34924e-18)
(0.000120324 -0.00118699 1.13297e-17)
(-0.000176363 -2.76291e-05 -2.70253e-18)
(-0.00017607 -5.25081e-05 -1.48126e-18)
(-0.00147679 0.00119299 1.14192e-20)
(-0.00158404 0.00123715 6.58483e-20)
(-0.00152548 0.00109536 -1.64631e-19)
(-0.00223397 0.00504827 -1.76809e-18)
(-0.00197989 0.00516096 1.65277e-18)
(-0.00201596 0.00489827 2.31223e-18)
(3.44255e-05 0.000150342 5.91683e-19)
(3.0565e-05 0.00015957 5.87352e-19)
(0.00151655 0.007304 3.25327e-18)
(0.00178947 0.00764135 -5.30644e-19)
(0.00189433 0.00709958 -3.77127e-18)
(0.00702844 0.00979494 2.75174e-18)
(0.00690857 0.00916274 3.53182e-18)
(0.00642193 0.00949963 -1.04614e-17)
(2.44332e-05 0.000137435 7.81411e-20)
(3.65654e-05 0.000140143 -2.68874e-19)
(-0.0052756 -0.00012349 6.31787e-19)
(-0.0054894 -9.02228e-05 -1.10273e-18)
(-0.00536597 -0.000333276 1.98324e-18)
(-0.00336457 -0.00960028 1.19191e-17)
(-0.0032191 -0.00940471 1.28554e-17)
(-0.00203562 -0.00149249 -6.60023e-18)
(-0.00210695 -0.00154198 -6.63233e-19)
(-0.00212725 -0.00143925 -3.42711e-18)
(-0.179495 0.063104 1.43752e-17)
(-0.164605 0.0541627 6.0804e-17)
(-0.00126931 -0.000659541 9.5011e-19)
(-0.00125602 -0.000633363 -3.39144e-18)
(-0.00125518 -0.000669245 -2.61624e-18)
(-0.0113575 0.00473684 -1.99681e-18)
(-0.00754138 0.00253869 1.99921e-17)
(0.00643577 0.0215524 2.39975e-18)
(0.00749634 0.021144 -9.82767e-18)
(0.00673529 0.0202326 2.35154e-18)
(-0.00140883 -0.00128412 1.41575e-18)
(-0.00146062 -0.00126576 -5.26972e-19)
(-0.00143278 -0.00134526 -2.1548e-18)
(0.0211226 0.0342085 -4.641e-18)
(0.0210271 0.0318418 1.95496e-18)
(0.0232844 0.0328197 2.21278e-18)
(0.000147374 0.00631039 -1.29426e-18)
(-0.000162547 0.00652746 -3.6397e-18)
(0.000222167 0.00658824 4.53834e-18)
(0.0218442 0.00980434 2.56501e-18)
(0.022424 0.00817601 -4.83401e-18)
(0.020706 0.00843565 -1.00643e-17)
(-3.50986e-05 -3.90505e-05 5.98547e-19)
(-3.99475e-05 -4.55574e-05 -2.8188e-20)
(-4.28937e-05 -3.96837e-05 -5.02725e-19)
(0.00204492 -0.00136567 -1.79412e-18)
(0.00221955 -0.00138216 9.21429e-19)
(-0.00161137 -0.00188336 -2.83864e-18)
(-0.00163024 -0.00194037 -1.25264e-18)
(-0.00153062 -0.00193361 -2.84728e-19)
(0.0034848 -0.00090445 3.33784e-18)
(0.00342252 -0.000654143 1.98546e-18)
(0.00371168 -0.000777489 1.42482e-18)
(0.00118908 0.00755394 2.90106e-18)
(0.00128486 0.00704537 -1.83747e-18)
(-0.000204657 -0.00035157 -2.94538e-18)
(-0.000194026 -0.000363816 -4.92809e-18)
(-0.000290767 0.000927343 -1.83381e-19)
(-0.000338126 0.000968458 3.10547e-19)
(-0.00135145 -0.0013158 1.43943e-18)
(-0.00138431 -0.00125029 -4.37882e-18)
(-0.00142821 0.00129467 -3.20543e-19)
(-0.00137623 0.00116364 -2.87109e-19)
(-0.0015797 -0.00180854 3.28844e-18)
(-0.00168645 -0.00182264 -8.60412e-18)
(-0.000165696 -0.000393163 -1.71296e-18)
(-0.000154965 -0.000437283 1.05072e-19)
(-0.000161395 -0.000401828 1.45121e-18)
(-0.000229217 -0.000189794 -1.55663e-18)
(-0.000232325 -0.000187117 4.36834e-18)
(-0.000222382 -0.000221146 1.51752e-18)
(-0.00247596 0.00496408 -2.07722e-18)
(-0.00246312 0.00523095 -4.77774e-19)
(0.000726152 0.00122041 -2.51181e-19)
(0.00066402 0.0013065 -1.33438e-18)
(-0.000658371 -0.00180324 4.62909e-18)
(-0.000675787 -0.00185768 -1.12456e-18)
(-0.000723211 -0.0017932 -7.15988e-19)
(-0.00138916 0.00137842 -1.66532e-20)
(-0.00129344 0.00135729 7.08093e-19)
(-0.00131319 0.00148217 1.44986e-18)
(-0.000487984 -0.00150703 1.32841e-17)
(-0.000530749 -0.00152583 1.25637e-18)
(-0.000494449 -0.00145318 2.35239e-18)
(-0.00337357 -0.00834359 -5.05458e-17)
(-0.00313425 -0.00811264 -1.20749e-17)
(-0.00349405 -0.00797834 3.43935e-18)
(0.0260263 -0.00389759 4.8713e-17)
(0.0214454 -0.00352046 -1.38144e-17)
(0.0229193 -0.00235496 -1.14951e-17)
(-0.000934463 -0.000264596 -2.04503e-18)
(-0.000976555 -0.000262952 9.63281e-19)
(-0.000960035 -0.000306032 1.81758e-19)
(0.00363623 -0.00118927 7.73596e-20)
(0.00329917 -0.00111296 -1.42905e-18)
(-0.0035038 -0.0099368 2.65447e-17)
(-0.00128304 -0.000716855 1.70934e-18)
(-0.00122412 -0.00067967 2.9202e-18)
(-0.00211728 -0.00468858 1.13586e-18)
(-0.00198195 -0.00457914 -1.3279e-18)
(-0.00190538 -0.00479171 -1.4342e-17)
(-0.000336881 -0.00146935 -8.9951e-19)
(-0.000385108 -0.00144391 -9.0656e-18)
(-0.000335248 -0.00141706 -6.79106e-19)
(6.60286e-05 0.000183026 -4.34536e-19)
(5.06278e-05 0.000182364 -1.37057e-19)
(-0.0089198 0.00136585 -4.95358e-17)
(-0.0122504 0.00209736 -1.46428e-17)
(-0.000366606 -0.000101436 -1.20571e-17)
(-0.000353304 -9.56583e-05 -1.46716e-18)
(-0.000356165 -8.13193e-05 -3.34187e-19)
(-0.00295168 -0.00381022 -1.33588e-17)
(-0.00277032 -0.00381046 -6.85073e-18)
(-0.00291181 -0.00366307 5.04862e-18)
(-0.153171 0.039997 -1.0582e-18)
(-0.148476 0.0386541 3.63248e-17)
(-0.138096 0.0315134 1.54997e-17)
(1.98587e-05 0.00605172 1.5388e-18)
(0.000364956 0.00614413 -4.89373e-18)
(-0.0113295 0.00616002 1.12897e-17)
(-0.0154766 0.00766665 -9.85877e-18)
(-0.00130441 0.000178108 -8.05385e-19)
(-0.00124884 0.000203712 1.93269e-19)
(-0.0013115 0.000256745 7.85587e-20)
(-0.00188091 -0.00143041 -8.27719e-18)
(-0.00180884 -0.00148761 -2.23774e-18)
(-0.00181283 -0.00140069 -6.84619e-18)
(-0.000441765 -0.00146605 5.21768e-19)
(-0.000449726 -0.00153588 -7.79656e-20)
(-3.28162e-05 -0.000215522 -3.37492e-19)
(-3.3728e-05 -0.000225807 -1.50217e-19)
(-2.36063e-05 -0.000188346 -2.58013e-18)
(-0.000450247 -0.000160943 -4.88737e-19)
(-0.000434762 -0.00015999 -4.18184e-19)
(-0.000461266 -0.000190383 -1.82305e-18)
(-0.0184892 -0.00256143 3.47391e-18)
(-0.0177301 -0.00243108 -1.85192e-17)
(-0.0183082 -0.00186666 -3.20167e-18)
(-0.000794745 -0.000934017 1.89739e-18)
(-0.000823287 -0.000927343 4.47654e-18)
(-0.000815204 -0.000973437 -6.4059e-18)
(-0.000471102 -0.00017114 3.72528e-19)
(-0.000446699 -0.000133368 -3.38611e-20)
(-0.00056976 0.00193544 2.48127e-19)
(-0.000480139 0.00196752 -4.06648e-19)
(-0.000515654 0.00186766 -3.45595e-19)
(-0.0115863 0.00716051 -1.66982e-17)
(-0.00818573 0.00481589 3.04224e-19)
(-0.00232566 -0.00012944 1.34587e-19)
(-0.00238489 -0.000221206 -5.98412e-18)
(0.00199488 -0.0011728 -9.87777e-19)
(-0.00186272 -2.79776e-05 -4.4114e-19)
(-0.00180366 4.28087e-05 2.86213e-18)
(-0.000797193 0.000653966 3.19896e-19)
(-0.000824438 0.000596313 -4.02929e-19)
(-0.000843608 0.000677332 -1.13145e-18)
(-0.000320526 2.36721e-05 -1.0329e-18)
(-0.000317855 1.99135e-05 -1.84211e-18)
(-0.000316223 2.44977e-05 1.51559e-18)
(-0.000914194 0.000249524 8.46424e-19)
(-0.00087534 0.000264594 -2.11832e-19)
(-0.000887464 0.000211845 -1.73499e-18)
(-0.00503718 -0.000160096 -6.17598e-19)
(-0.00516761 9.90029e-05 -2.81242e-18)
(-6.61385e-05 0.00110116 -4.52652e-21)
(-5.35761e-05 0.00116975 -2.11088e-20)
(-1.35329e-05 0.00111094 -2.87431e-19)
(-1.49799e-08 -7.83981e-06 -1.53054e-18)
(-3.08097e-08 -7.82367e-06 -1.52503e-18)
(-0.0176245 0.00338629 7.4357e-18)
(-0.0174425 0.00271965 5.07292e-18)
(-0.0182438 0.0030524 6.00232e-18)
(-0.0717301 0.0491152 -3.14812e-17)
(-0.0974821 0.0518559 -4.12669e-17)
(-0.0563178 0.0529494 -2.43997e-17)
(-4.06941e-05 -0.000238821 1.25515e-18)
(-3.26797e-05 -0.000208685 1.9979e-18)
(-0.0020798 -0.000591087 -2.81373e-18)
(-0.00202626 -0.000677919 2.25724e-18)
(-0.00199236 -0.000594284 -9.49299e-19)
(-0.00982304 -0.00144442 -2.67188e-18)
(-0.0102054 -0.00120831 -1.80422e-18)
(-0.010171 -0.00179844 -3.72214e-18)
(-0.000371415 -0.00022423 2.00706e-18)
(-0.000381904 -0.000261159 -6.8149e-19)
(-0.000387937 -0.000233043 -8.13739e-19)
(-0.000325043 3.41949e-05 7.7634e-19)
(-0.000330611 2.4021e-05 -9.72223e-19)
(-0.000135547 9.77436e-05 -7.93649e-19)
(-0.000128196 9.6468e-05 -1.46128e-18)
(0.000284651 -0.000157254 -1.01448e-19)
(0.000271626 -0.000146019 -6.32788e-20)
(-1.58386e-05 1.80227e-05 -2.11048e-19)
(-1.61665e-05 1.6029e-05 -1.40875e-19)
(-1.94668e-05 1.8184e-05 3.98175e-19)
(-0.000666477 -0.000130467 -4.98021e-19)
(-0.000670853 -0.000107113 1.05769e-19)
(-0.000696945 -0.000135282 2.89e-18)
(-0.00379243 0.0025337 -6.62637e-19)
(-0.00384291 0.00232228 -4.649e-19)
(-0.00363654 0.00235745 -7.33615e-20)
(0.0289071 -0.00588171 -6.20911e-17)
(0.0298535 -0.00198646 8.94821e-17)
(-0.000631467 -0.00175435 4.84089e-18)
(-0.000598536 -0.00181841 -2.36159e-18)
(-0.000628388 -0.000189607 1.26758e-18)
(-0.000654842 -0.000199068 5.85895e-19)
(-0.000649948 -0.000216312 1.72448e-18)
(-0.000159268 -0.000286546 8.30801e-19)
(-0.000169436 -0.000262217 2.85045e-18)
(-0.000181272 -0.000285395 9.50693e-19)
(-0.000376338 -0.000124273 -2.39509e-18)
(-0.000764145 0.000726878 -5.24502e-19)
(-0.000750657 0.000640325 -3.38216e-19)
(0.00669156 -0.00477265 1.32222e-17)
(0.00582737 -0.00505949 2.27583e-17)
(0.00708414 -0.00572779 1.17406e-17)
(-0.0007605 -0.000938468 2.83215e-18)
(-0.000763252 -0.000886334 4.17481e-18)
(-0.0517624 0.0472563 -1.98329e-17)
(-0.0202726 0.0477694 4.3727e-18)
(-0.00136285 -0.000452465 -3.02793e-18)
(-0.00138945 -0.00039593 -5.40515e-18)
(-0.00133213 -0.000402464 -1.33884e-18)
(-8.83411e-05 -0.000240815 3.83146e-19)
(-0.000101978 -0.000236953 5.91185e-19)
(-9.12236e-05 -0.00025078 9.51044e-20)
(-0.0177543 0.0042269 2.21778e-17)
(-0.0169468 0.00385463 5.37571e-19)
(-0.0013042 0.000109006 1.05807e-18)
(-0.00137549 0.00016674 -1.29963e-18)
(-0.0361834 0.0403589 1.59069e-17)
(-0.0183619 0.0416431 5.17982e-17)
(-0.00194963 0.00634128 1.43029e-18)
(-0.00174516 0.00649896 8.15978e-19)
(-0.00202409 0.00666005 9.45665e-18)
(-0.00949161 -0.0013179 1.60256e-18)
(-0.00950095 -0.00174382 1.54837e-18)
(-0.00047395 -0.000183545 1.91146e-18)
(-0.000499391 -0.00018894 3.97027e-18)
(-0.000464728 -0.000144608 2.4223e-18)
(-0.00294375 -0.00399957 -9.39884e-18)
(-0.00312827 -0.00384228 5.19623e-18)
(-0.000767172 -0.00121967 -4.17931e-18)
(-0.000814578 -0.00123041 5.42575e-18)
(-0.000778357 -0.00128249 -6.23815e-18)
(0.0156337 -0.00366409 5.46022e-17)
(0.0170697 -0.00305735 -1.06759e-17)
(0.0165694 -0.00323311 -3.26326e-18)
(-0.0176941 0.0299048 2.01997e-17)
(-0.0165901 0.0304449 1.07432e-17)
(-0.0175555 0.0315953 -4.93184e-20)
(-0.000132676 0.00110032 1.74645e-20)
(-9.19417e-05 0.00103634 -1.16757e-19)
(-0.0122748 0.00216385 -1.44481e-18)
(-0.0118063 0.00246831 1.16673e-18)
(-0.012346 0.00269494 -5.62609e-18)
(0.00445613 -0.00315951 -8.2799e-18)
(0.00479156 -0.00259647 2.27717e-17)
(0.00402081 -0.00249766 -2.20323e-17)
(-0.000643422 0.00202897 3.34612e-19)
(-0.000658697 0.00190054 6.05732e-19)
(0.0211199 0.0364418 -1.54179e-18)
(0.0187724 0.0350328 -1.34973e-18)
(-0.0191709 -0.0027708 1.47243e-17)
(-0.0185653 -0.00334513 3.57959e-18)
(-0.00207338 -0.000873295 -1.42611e-19)
(-0.00203139 -0.000927272 -1.26163e-18)
(-0.0020947 -0.000935828 -7.61662e-19)
(-0.000152694 -0.000297406 3.71238e-18)
(-0.000164241 -0.000318018 3.79107e-18)
(-0.00178629 -0.00097997 4.29669e-19)
(-0.00187016 -0.000890767 -5.72162e-18)
(-0.00176063 -0.000876149 -2.86877e-18)
(-0.0209725 0.0085141 -1.63602e-17)
(-0.0209386 0.00760645 8.96175e-18)
(-0.0202002 0.0082791 -2.51983e-17)
(0.00148764 -0.00062206 -4.14318e-19)
(0.00143331 -0.000746 1.9246e-19)
(0.00137659 -0.000623102 4.32578e-19)
(-0.000666985 -0.000146078 3.09972e-18)
(-0.000641856 -0.000123681 -6.72697e-19)
(-0.012185 0.00591704 -9.74716e-19)
(-0.0116751 0.00576899 -9.68569e-19)
(-0.0121574 0.0053097 -3.18432e-18)
(0.000483533 -0.000256404 -1.36782e-19)
(0.000470794 -0.000218803 -7.18059e-20)
(0.000510532 -0.000214116 -4.78308e-19)
(-0.000941324 0.00029024 1.287e-18)
(-0.000951197 0.000231574 1.26127e-18)
(-0.00390958 0.000760587 8.14777e-19)
(-0.00387101 0.000597497 8.78168e-20)
(-0.00375708 0.000743917 -7.4257e-19)
(0.000599714 0.00101583 7.04505e-20)
(0.000636789 0.000953419 5.28079e-19)
(0.000661882 0.00101445 -3.92113e-19)
(-2.35843e-06 -1.12159e-05 -3.54856e-19)
(-3.48381e-06 -1.59366e-05 -1.92345e-19)
(-1.72787e-06 -1.06285e-05 -2.02426e-19)
(-0.0937728 0.0013158 -1.29261e-17)
(-0.0952078 0.00266966 -1.30405e-17)
(-0.0851088 -0.00491866 1.76284e-17)
(0.00909339 -0.00675331 -2.70388e-17)
(0.00917323 -0.0058092 2.07746e-17)
(0.00818574 -0.00636499 -9.72736e-18)
(-4.02617e-05 -0.000513673 3.96532e-19)
(-3.20639e-05 -0.000484746 -1.32426e-19)
(-3.29487e-05 -0.000475581 -1.23462e-18)
(0.000142594 8.23886e-05 2.34299e-20)
(0.000155187 7.67984e-05 4.68273e-19)
(-0.00045559 -0.00228697 9.87872e-18)
(-0.000475939 -0.00221928 5.51252e-18)
(-0.000396129 -0.00224373 8.65553e-18)
(-0.000223779 -0.000190642 -4.39829e-19)
(-0.000232094 -0.000170221 -4.4059e-18)
(-0.012162 0.00161778 1.79569e-18)
(-0.0127001 0.00187828 -2.02356e-19)
(0.00588539 0.00825572 2.708e-17)
(-0.000933685 0.0044128 2.94571e-19)
(0.000323001 0.00692278 4.58588e-17)
(0.0239483 0.00211871 3.50069e-17)
(0.0229442 0.00224926 -4.73405e-18)
(0.0239206 0.00287114 1.38764e-17)
(-0.0146525 0.0237995 5.25706e-18)
(-0.0136835 0.0243064 2.11695e-18)
(-0.0146699 0.0251299 -2.30776e-18)
(-0.000172446 -0.000236165 5.42076e-18)
(-0.0001808 -0.000236782 1.0088e-18)
(-0.000185612 -0.000213622 -6.45779e-18)
(0.000545635 0.00101473 -2.16554e-19)
(0.000558333 0.00107491 -3.68616e-19)
(-0.00134073 0.000511972 8.81996e-20)
(-0.00138066 0.000476457 -1.11157e-18)
(-0.00138877 0.000548216 3.81534e-19)
(-0.000718445 -0.00121485 -5.9847e-18)
(-0.000755022 -0.00116701 2.1364e-18)
(-0.00787209 -0.00531291 4.25604e-18)
(-0.00796199 -0.00570436 4.37704e-18)
(-0.00824489 -0.00534318 -1.82534e-18)
(0.0238477 0.0107726 -1.38966e-17)
(0.0221258 0.0102067 6.43673e-18)
(0.00218122 -0.00165911 1.54083e-17)
(0.00292391 -0.000984143 -1.68183e-17)
(0.00973265 -0.00680617 4.70592e-17)
(0.00987997 -0.00712997 -3.10111e-17)
(0.00301723 -0.000138103 -8.53925e-20)
(0.00281007 -0.000299089 1.916e-18)
(0.002768 -1.98108e-05 -8.30138e-19)
(-0.000284496 3.60949e-05 -1.9034e-19)
(-0.000293642 2.42083e-05 4.47759e-19)
(-0.000281555 3.06745e-05 -1.47845e-18)
(-0.0148286 0.00844202 -1.14492e-18)
(-0.00983319 0.00747288 -1.85524e-17)
(-0.00438171 -0.00989802 1.5645e-17)
(-0.0036457 -0.0098992 7.9234e-18)
(-0.00395405 -0.0104694 -2.79377e-17)
(-0.00491279 -0.00441952 -1.46241e-17)
(-0.00506656 -0.00421931 5.593e-18)
(-0.00479306 -0.0041975 -2.32308e-18)
(-0.203113 0.119337 -3.30315e-17)
(-0.206757 0.113253 -4.58175e-17)
(-0.193863 0.106299 -1.05839e-17)
(0.0367003 -0.0546279 -1.98974e-18)
(0.0438638 -0.0380079 2.16895e-17)
(0.0369236 -0.0427442 9.64673e-18)
(-0.00133761 -0.000508354 6.56207e-19)
(-0.0012759 -0.000570257 -1.9341e-18)
(-0.00124909 -0.000489195 3.78233e-18)
(-0.00356664 -0.00846807 -1.08794e-17)
(-0.00331166 -0.00854963 2.18417e-17)
(-0.00611449 0.00353245 -1.46395e-18)
(-0.0058128 0.00364294 1.75829e-18)
(-0.00592043 0.00329632 9.47685e-20)
(-0.000428116 -0.00235256 -1.9513e-18)
(-0.000515367 -0.00232988 1.2135e-17)
(-0.00130478 -0.00142721 -3.94991e-18)
(0.00028225 -0.00355171 1.26019e-17)
(-0.000572249 -0.00156761 -2.60872e-18)
(-0.000610595 -0.00151691 1.48554e-18)
(-0.000634944 -0.00159049 1.02911e-18)
(-0.00193724 0.00605756 -7.04963e-18)
(-0.00224387 0.00619716 -2.02975e-18)
(-0.00195385 -0.0014571 -2.9363e-18)
(-0.00194309 -0.00156522 -7.98874e-19)
(0.00578913 -0.00395869 2.7495e-17)
(0.00959371 -0.00423514 -2.62817e-17)
(-0.0220945 0.0241956 8.0283e-19)
(-0.0215445 0.0251777 -4.52983e-18)
(-0.0210635 0.0240724 3.05737e-17)
(-0.00114346 0.00119626 -1.11801e-18)
(-0.00110687 0.00115006 1.37558e-18)
(-0.00117296 0.00110929 2.12856e-18)
(0.0229892 0.00658942 -2.02634e-17)
(0.0245587 0.0057272 -5.04652e-17)
(0.0255241 0.00644854 -2.92194e-17)
(-0.000839167 0.00391692 7.44087e-19)
(-0.000710611 0.00376469 -5.91158e-19)
(-0.000629772 0.00393307 -1.79776e-18)
(-0.00457302 -0.0155572 3.34365e-19)
(-0.00524557 -0.0152806 -8.34703e-19)
(-0.00455324 -0.0149523 -2.68997e-20)
(-0.00174699 -0.00104104 -3.95966e-18)
(-0.00181513 -0.00104039 -4.28087e-19)
(-0.0915073 0.000392554 5.52523e-18)
(-0.100246 0.00629141 -3.72233e-17)
(-0.0198365 0.00861124 3.13884e-17)
(-0.0205147 0.00934314 2.56927e-17)
(-0.00585963 0.0281371 -6.45602e-18)
(-0.00551809 0.0270887 -2.28948e-17)
(-0.00667243 0.0273422 -1.61195e-17)
(-0.0326673 0.0131324 -1.2025e-17)
(-0.0320049 0.012715 4.66844e-18)
(-0.0302244 0.0109809 2.08807e-17)
(0.00103301 0.00546238 -1.6151e-18)
(0.00112868 0.00517729 1.41411e-18)
(0.00136505 0.0053835 3.72904e-18)
(-0.000337759 -0.000157735 2.95282e-18)
(-0.000351879 -0.000167063 -4.5967e-18)
(-0.000343418 -0.000142055 4.62772e-20)
(0.000141628 7.31691e-05 1.92362e-19)
(0.000132107 8.06144e-05 -4.02454e-19)
(-0.00243383 0.00185789 -7.24279e-19)
(-0.0024525 0.00203988 -1.15332e-20)
(-0.00257177 0.00188583 -1.42616e-19)
(-0.00404586 -0.00476244 -2.18813e-17)
(-0.00425412 -0.00458927 -6.80968e-18)
(-0.0039985 -0.00451058 -4.31023e-18)
(-0.00113102 0.00127875 -2.60884e-18)
(-0.00120471 0.00123271 -2.38426e-18)
(-0.000661489 -7.47862e-05 1.17495e-19)
(-0.00065805 -5.33132e-05 1.9078e-18)
(-0.000631514 -6.42533e-05 9.63358e-19)
(-0.004707 -0.00993626 -7.4373e-18)
(-0.00444525 -0.0102558 9.671e-18)
(-0.000542115 -0.00160849 6.96108e-19)
(-4.23138e-05 0.000455267 4.06564e-19)
(-1.77082e-05 0.00048515 -6.92697e-19)
(-4.73521e-05 0.000488302 -2.59356e-19)
(-0.00397405 -0.0169637 -5.32829e-19)
(-0.00611463 -0.016771 4.10364e-18)
(-6.71129e-05 -0.000583472 -4.16463e-18)
(-5.53653e-05 -0.000591528 3.28614e-18)
(-5.3391e-05 -0.000561402 2.42434e-18)
(-3.0967e-06 -3.75401e-05 2.05215e-19)
(-3.19748e-06 -3.94435e-05 2.91761e-18)
(-5.54066e-06 -5.39476e-05 3.24175e-18)
(-4.78088e-06 -0.000187763 -1.20637e-19)
(-9.21075e-06 -0.00019985 2.53708e-18)
(-1.17318e-05 -0.000235272 4.87769e-19)
(-0.0345738 0.0115359 -5.72242e-18)
(-0.0331142 0.0120483 1.19611e-17)
(0.000166169 1.24413e-05 1.94035e-19)
(0.000169429 9.78374e-06 4.68464e-19)
(0.000179166 7.25092e-06 3.04087e-19)
(-0.00746871 -0.0053334 -7.69405e-19)
(-0.0076897 -0.0049684 -4.49613e-18)
(-0.0124741 -0.0107197 -1.43496e-18)
(-0.0117855 -0.010861 -1.09749e-17)
(-0.0123388 -0.0115005 -6.48515e-18)
(-0.000494612 -0.00215496 3.03793e-18)
(-0.000557699 -0.00218752 1.40438e-18)
(-0.0233564 0.0246177 -1.28154e-17)
(-0.0226935 0.0234252 -3.85406e-18)
(-0.000292605 -0.00123635 -4.81983e-19)
(-0.000328177 -0.00127304 -2.71774e-18)
(-0.000323598 -0.00120676 3.81253e-18)
(-0.000250455 -3.89716e-05 1.23663e-18)
(-0.000254541 -4.25963e-05 -4.87112e-18)
(-0.00025712 -1.7473e-05 -2.04143e-18)
(-0.0127715 0.00824754 -4.22354e-18)
(-0.0126462 0.00891609 -2.9618e-18)
(-0.0134068 0.008651 1.72034e-17)
(-0.000305823 8.57795e-05 5.00905e-19)
(-0.000291337 8.09817e-05 -5.49025e-19)
(-0.000308014 6.85938e-05 -1.1821e-18)
(-0.00374259 0.00274285 2.32963e-19)
(-0.00396889 0.0027052 6.70318e-20)
(-0.000795389 -0.00227708 -1.1778e-18)
(-0.000710428 -0.00226479 -7.34155e-18)
(-0.000787529 -0.00220644 -8.36843e-18)
(-0.016872 -0.00984815 -2.73598e-18)
(-0.0161243 -0.0095419 5.13756e-18)
(-0.0167112 -0.00905347 9.72573e-18)
(0.00701449 0.0103875 -2.51369e-18)
(0.00753826 0.00997658 7.06224e-18)
(-0.00249901 -0.0023165 6.8535e-18)
(-0.00260952 -0.002298 6.9279e-18)
(-0.00252204 -0.0024392 -3.83639e-18)
(0.00271024 0.00842272 -3.87324e-18)
(0.00309903 0.00868443 -2.87531e-18)
(0.0031428 0.00819114 3.72625e-18)
(-0.022111 0.0369497 1.57902e-17)
(-0.0228379 0.0360032 -8.48313e-18)
(-0.0210588 0.0359369 -3.35097e-18)
(-0.000662627 -0.000163751 5.15325e-18)
(-0.000659917 -0.000185225 -6.25763e-19)
(-0.000636061 -0.000158971 4.99288e-19)
(-0.0187146 0.0216935 3.51312e-18)
(-0.019751 0.0215829 -8.58835e-18)
(-0.018985 0.0206855 -1.29207e-17)
(0.00375137 -0.00143482 1.17144e-18)
(0.00398414 -0.00127228 -2.17309e-18)
(0.000521132 0.000948048 6.78316e-20)
(-0.00617044 -0.00972982 4.07057e-18)
(-0.00644695 -0.00951932 -8.60974e-18)
(-0.0065417 -0.00989921 -6.88495e-18)
(-0.000276186 4.75323e-05 1.03308e-18)
(-0.000288046 4.21592e-05 5.77647e-19)
(0.00387714 -0.00170753 5.14519e-19)
(0.00354819 -0.00163231 -2.22466e-18)
(0.000829319 0.00138314 1.23541e-18)
(0.000754231 0.00140759 1.76521e-19)
(-0.00392758 0.000919051 -9.46271e-19)
(-0.00409645 0.000793431 1.11416e-18)
(-0.000152875 0.000405065 4.79654e-19)
(-0.000172032 0.000420283 -1.01022e-18)
(-0.000145918 0.00044143 -2.06642e-19)
(0.000170714 1.33535e-05 9.4383e-20)
(0.000172028 9.61454e-06 -1.73568e-19)
(0.000173135 1.2367e-05 3.02318e-19)
(0.0012626 0.00317423 -7.47033e-19)
(0.00140127 0.00326448 2.17196e-18)
(0.00119328 0.00335406 -3.24609e-19)
(0.00788045 -0.00147054 1.67014e-18)
(0.007567 -0.00107252 -1.26256e-18)
(0.00814775 -0.00104076 9.19306e-19)
(-0.000162695 -0.000236647 2.31324e-18)
(-0.000159433 -0.000260712 2.01174e-18)
(-0.00139885 -0.000502456 1.60443e-19)
(-0.00125531 0.000513267 -1.68612e-18)
(-0.00129215 0.000420773 -1.43864e-18)
(-0.00390451 0.00213789 7.32782e-20)
(-0.00409449 0.00230459 7.27378e-20)
(-0.000600999 -0.0001797 9.20869e-19)
(-0.000603652 -0.000166875 6.90537e-21)
(-0.000151582 -0.000386741 2.02242e-19)
(-0.000161871 -0.000349591 2.06118e-18)
(5.8568e-05 3.9157e-05 4.08302e-19)
(5.47208e-05 2.94247e-05 -5.62172e-19)
(4.76009e-05 3.7849e-05 -1.14156e-18)
(-0.00217319 -0.000600818 -2.24806e-18)
(-0.00213727 -0.000508641 -1.43085e-18)
(0.00327608 -0.000520254 -1.03686e-18)
(0.0030567 -0.000324382 -1.3781e-18)
(0.00307333 -0.000684608 -8.12846e-20)
(-1.21894e-06 -1.838e-05 -1.54184e-18)
(-3.3705e-06 -2.92003e-05 -3.86682e-19)
(0.000139372 5.42844e-05 -1.18853e-19)
(0.000137621 4.54671e-05 5.46301e-19)
(0.000147148 4.71486e-05 7.80653e-19)
(-0.000889443 -0.000269734 -1.14467e-18)
(-0.000902191 -0.000230619 2.15995e-19)
(-0.00319568 -0.000283776 -3.1346e-18)
(-0.0032708 -0.000386614 -1.02861e-17)
(-0.00331873 -0.000237527 1.09378e-19)
(-0.017047 -0.0104651 8.47108e-19)
(-0.0175899 -0.00985983 -1.83468e-19)
(-0.0145138 0.0227632 3.84137e-18)
(-0.0154546 0.023443 2.58253e-18)
(0.0211126 0.00663057 6.34681e-18)
(0.0211717 0.00590438 4.80433e-17)
(-0.00506316 -0.00465482 -1.44578e-17)
(-0.00477966 -0.00463052 -2.0101e-17)
(-0.00525782 -0.00405212 3.71323e-18)
(-0.00543044 -0.00367197 -1.5915e-18)
(-0.00493904 -0.00378012 1.07068e-18)
(-0.0021799 -0.00191114 6.38765e-18)
(-0.00221869 -0.00179415 -3.56762e-18)
(0.00587585 0.0226519 5.0407e-18)
(0.00633419 0.0240124 2.96819e-18)
(0.00493175 0.0237362 -1.04871e-17)
(-0.197823 0.0896509 -2.39358e-18)
(-0.200748 0.0980591 1.19168e-17)
(-0.195437 0.089895 -4.47322e-17)
(0.00110265 0.0030613 7.16317e-20)
(0.00130064 0.00298171 -1.23173e-18)
(-0.000361763 -0.000193401 -7.76842e-19)
(-0.000357408 -0.000214011 2.20413e-18)
(0.000172565 2.04274e-05 2.28924e-19)
(0.000165142 1.71936e-05 -1.48904e-19)
(-0.00248259 0.00171651 -8.79776e-19)
(-0.00234617 0.00178593 1.81253e-19)
(-0.000160357 0.000373701 4.60381e-19)
(-0.000136589 0.000393246 1.45188e-18)
(-0.00309991 0.0558495 1.57257e-17)
(-0.00131757 0.0563364 -2.49247e-17)
(0.0035685 0.00144034 1.23581e-18)
(0.00336204 0.00140017 -6.0325e-19)
(0.00346474 0.00166094 -4.57939e-19)
(-0.000486086 -0.000198172 -1.16733e-18)
(-1.06322e-06 -0.000142415 1.80881e-18)
(-9.00377e-06 -0.000179036 -2.385e-18)
(-0.003836 -0.00488749 -4.02543e-18)
(-0.00406718 -0.00496206 2.72305e-18)
(0.00348401 -0.000406527 1.37803e-18)
(-0.0132137 -0.0105299 -1.43973e-18)
(-0.0126935 -0.0100343 1.11231e-17)
(-0.00535986 -0.00427937 -3.68705e-18)
(-0.0202873 0.000540874 1.25953e-17)
(-0.0207761 -0.000132222 2.82455e-18)
(-0.0212384 0.000801116 3.50685e-18)
(-0.00100758 0.00391501 1.57952e-18)
(-0.0009634 0.00408451 1.06109e-18)
(0.00765861 -0.00193843 -2.12276e-21)
(0.00830137 -0.00194215 -2.76629e-18)
(-0.000165378 0.000342776 -8.79166e-19)
(-0.000149184 0.000330804 -2.33858e-19)
(-0.000170788 0.000310646 -1.0342e-18)
(0.00396715 0.00389799 1.82869e-18)
(0.00417576 0.00400913 -2.30459e-19)
(0.00393184 0.00414582 1.39332e-18)
(0.00158872 -0.000655144 -9.16197e-19)
(0.00155484 -0.000518567 -1.69068e-18)
(-0.00630285 0.00382776 -3.92007e-18)
(-0.00645367 0.00345645 -1.44728e-18)
(-0.000830578 -0.000733081 9.93255e-19)
(-0.000819815 -0.000759123 2.77808e-18)
(-0.0007967 -0.000717755 -1.60264e-18)
(0.00165224 0.0081341 6.91399e-19)
(0.0142178 -0.00420536 2.63441e-17)
(0.0143978 -0.00392265 2.2207e-18)
(-4.43533e-05 0.000422019 8.86755e-19)
(-7.09369e-05 0.000436715 9.33543e-19)
(0.000386624 0.00131946 -4.06154e-20)
(0.000452777 0.00129515 7.30148e-19)
(0.000443448 0.00137536 -7.48486e-19)
(-0.193501 0.0782917 -9.57669e-18)
(-0.189817 0.0888185 9.35275e-18)
(0.00503484 0.0214983 -5.57592e-18)
(-0.0010288 0.00115225 1.87259e-19)
(-0.00107449 0.00106775 -2.24168e-19)
(-0.000152874 -0.000410952 -4.88764e-19)
(-0.000159528 -0.00040414 1.32335e-18)
(-0.000151046 -0.000439688 1.88443e-18)
(-0.00311626 -0.000165916 1.37807e-18)
(-0.0030672 -0.00032239 7.26266e-19)
(-0.200185 0.126419 -2.0152e-18)
(-0.210868 0.130485 -2.09012e-17)
(-0.00701171 0.014735 3.06537e-18)
(-0.00698201 0.0139245 -2.05577e-17)
(-0.00625642 0.0145049 5.54714e-18)
(-0.0210284 0.00925899 1.89909e-17)
(-0.0217032 0.00860317 -1.96464e-17)
(-3.25471e-05 -3.13948e-05 -9.28842e-19)
(-2.87069e-05 -3.58882e-05 -1.05093e-18)
(0.000141097 6.37245e-05 -6.65926e-19)
(0.000151573 6.47462e-05 7.71349e-20)
(-0.000690408 -0.000175816 -4.04847e-19)
(0.000440108 0.00109986 8.53253e-20)
(0.000377776 0.00106801 -2.18392e-19)
(-0.0222899 0.0371607 1.20329e-18)
(-0.0186783 0.0393561 2.19329e-17)
(-0.000637788 -0.000419718 2.60764e-18)
(-0.000661803 -0.000443424 -2.92176e-19)
(-0.000661882 -0.000471524 5.98806e-19)
(-0.000172681 -0.000381318 2.69443e-18)
(-0.000179634 -0.000352194 -2.04709e-18)
(-0.000323041 5.80439e-06 3.81805e-19)
(-0.000332651 -3.66582e-06 -2.43561e-18)
(-0.000340034 -2.98913e-06 -2.58554e-18)
(-0.000251918 -0.00120262 -1.02819e-18)
(-0.000262088 -0.00126891 -7.56286e-19)
(0.0092223 0.00919824 1.37322e-17)
(0.0101009 0.00919811 -3.14422e-18)
(0.00956569 0.0084407 5.38955e-18)
(-0.00247717 -0.00147573 -2.92039e-18)
(-0.00251865 -0.00148893 3.52113e-18)
(-0.00245425 -0.00153021 2.23852e-18)
(-0.0135749 -0.00181112 1.1619e-17)
(-0.0130051 -0.00173151 3.18527e-18)