/*--------------------------------*- C++ -*----------------------------------*\
| =========                 |                                                 |
| \\      /  F ield         | OpenFOAM: The Open Source CFD Toolbox           |
|  \\    /   O peration     | Version:  v2012                                 |
|   \\  /    A nd           | Website:  www.openfoam.com                      |
|    \\/     M anipulation  |                                                 |
\*---------------------------------------------------------------------------*/
FoamFile
{
    version     2.0;
    format      ascii;
    class       volVectorField;
    location    "250";
    object      ddt0(U);
}
// * * * * * * * * * * * * * * * * * * * * * * * * * * * * * * * * * * * * * //

dimensions      [0 1 -2 0 0 0 0];


internalField   nonuniform List<vector> 
10042
(
(0.00310762 9.9432e-06 2.68205e-18)
(0.00578676 0.00065564 -2.31145e-19)
(0.0101001 -0.000472345 -3.01397e-19)
(-0.00335529 -1.12009e-05 4.26053e-19)
(-0.0462618 -0.382069 -5.87213e-17)
(0.000742733 0.000344213 4.10782e-18)
(0.251447 0.348768 -6.38887e-17)
(0.0353292 0.37719 1.64052e-16)
(-0.00142759 -0.000132862 -6.50513e-19)
(0.00129041 0.000196213 1.59762e-18)
(-0.347531 -0.119364 1.31388e-17)
(-0.00476419 -9.50666e-06 -1.04038e-18)
(-0.000160728 -2.97846e-06 4.22362e-20)
(0.00494653 -3.22938e-05 9.49791e-19)
(0.00242906 1.68119e-05 8.68281e-18)
(-0.00709634 0.000536658 1.94095e-18)
(-0.0062087 0.000492475 -3.52928e-18)
(0.000985362 -0.000161764 -5.99892e-19)
(0.00251515 -0.000126472 -7.13897e-18)
(-0.0193638 -0.0108517 3.93497e-17)
(-0.00965566 -0.000182274 2.38171e-19)
(0.140433 0.0370919 -2.85783e-17)
(0.0023565 -3.90215e-07 -8.61996e-19)
(0.00881642 2.20678e-05 -2.29704e-19)
(0.00632193 0.000574686 -5.91573e-18)
(0.00510211 -0.000797097 -4.57543e-20)
(-0.00407893 0.000313317 -2.12111e-18)
(0.00546981 -0.000106979 -2.35853e-18)
(-0.00202315 -0.000436199 2.08289e-19)
(0.00583626 -0.000161328 -7.72388e-19)
(-0.000118492 0.000711852 -3.08023e-18)
(0.055492 0.00261007 2.17151e-16)
(0.00445601 0.000260732 -1.24406e-18)
(0.00431903 -0.000360931 -2.52885e-19)
(0.00951033 -0.000142569 4.82913e-18)
(0.00973322 -2.38025e-05 -2.79922e-19)
(0.00449372 -0.000868651 -3.44646e-18)
(0.00491683 -0.00201826 -6.08125e-18)
(-5.64605e-05 -9.00761e-05 6.92463e-19)
(0.00911318 0.00299588 -3.76015e-19)
(-0.0190075 -0.0117317 -7.78946e-18)
(0.00405444 0.000136073 4.57465e-18)
(0.331466 0.156222 6.54243e-17)
(0.00766134 -0.000320575 1.86395e-18)
(0.0023366 -0.387384 5.8182e-18)
(0.017899 0.00474387 -8.40251e-18)
(0.00726842 0.000100615 6.94341e-19)
(0.0408421 -0.0247113 1.42612e-18)
(0.00678217 -0.00070253 -6.04116e-18)
(0.00437595 -0.0152496 4.52457e-19)
(-0.00231792 4.0436e-05 -1.54368e-19)
(0.00784521 -0.000324475 2.06435e-19)
(0.00608885 7.97685e-05 -7.35604e-18)
(0.0049857 -0.000804089 1.08183e-18)
(0.00451098 -0.000795211 -3.54315e-19)
(-0.0031818 0.000423644 -4.42277e-18)
(-0.00223184 -0.000356088 -7.90677e-20)
(0.00766988 4.62677e-05 5.70209e-18)
(0.00512954 -0.000288231 -2.73036e-19)
(0.00875385 3.5942e-05 2.99222e-18)
(0.000104301 0.000722372 2.49444e-18)
(-0.00227273 0.000198857 -1.83065e-18)
(0.00959911 -0.000181468 -5.18599e-18)
(0.00951269 -0.000380549 3.28944e-19)
(0.00188577 -0.000512219 -2.21899e-17)
(0.00531581 -0.000231078 -2.02345e-19)
(0.00349024 -0.000729202 1.31195e-19)
(-0.0128542 -0.00683791 2.76521e-17)
(0.119175 0.0402737 5.00204e-18)
(0.00108093 -0.000626742 7.47668e-19)
(0.00425085 -0.000740623 -1.95775e-19)
(-0.0201207 -0.0142973 9.35645e-18)
(0.00809768 -0.000302652 8.47542e-19)
(-0.00102935 -0.00161423 6.88904e-18)
(0.00706151 -0.0005552 2.03107e-18)
(0.0154215 8.19982e-05 -3.61056e-20)
(-0.0326262 -0.393202 6.47926e-17)
(0.00228177 -0.000309728 1.5728e-19)
(0.00142348 0.000430246 -2.67569e-18)
(-0.0255623 0.713603 1.32197e-16)
(0.0045441 -0.000591622 -8.67772e-18)
(0.0403657 -0.321077 -2.01613e-17)
(0.00781843 -0.000258488 -9.43854e-19)
(0.00286983 0.000117087 1.26852e-18)
(0.00439702 -0.000687295 -5.31813e-18)
(0.00103396 9.49099e-07 3.72878e-19)
(0.00728304 0.000275179 -1.9308e-18)
(0.0560324 0.00656269 6.19429e-17)
(0.0082241 -0.00057583 4.74701e-18)
(0.00384007 0.000214982 -3.91178e-20)
(0.00352314 0.00012312 3.82191e-18)
(0.0859149 -0.326266 -2.81097e-17)
(0.00549868 -2.23765e-05 -1.54377e-18)
(0.00515672 -0.000242868 2.58121e-20)
(0.00591224 -0.0001747 8.68377e-19)
(0.000489344 -0.000580702 -6.78187e-19)
(0.000398804 -0.000524073 1.73471e-18)
(0.000857849 -0.00038944 -7.99358e-19)
(0.00807835 0.00252166 1.52879e-19)
(-0.00198685 6.54195e-05 -4.72751e-21)
(3.44511e-06 -4.32101e-05 1.49336e-18)
(0.0333088 -0.0234424 6.0582e-18)
(0.19216 0.347945 4.07945e-17)
(0.00358811 8.30431e-05 -6.9086e-19)
(0.00335374 -8.78321e-05 -1.26013e-18)
(0.0106219 0.00902194 1.58676e-18)
(0.00755845 8.20532e-05 -1.29123e-18)
(0.00095345 -0.000429863 -4.57587e-18)
(-0.00833983 -0.000207368 -4.92062e-20)
(0.000696284 0.000141659 2.32157e-19)
(-0.00503069 -4.32521e-05 1.06824e-19)
(-0.00142443 -0.000747217 3.8794e-18)
(0.00972213 0.00119708 1.4442e-18)
(0.077892 0.0534517 1.66814e-18)
(0.00241294 -0.000600079 1.95657e-17)
(-0.0010789 -0.000742945 1.48086e-18)
(0.00150072 -0.000466322 -3.67749e-18)
(0.00229201 -0.000187895 6.38841e-18)
(0.000339474 -0.000585636 9.38025e-20)
(-0.328798 0.245172 -1.41404e-16)
(0.00932962 -0.000520304 -3.99215e-18)
(0.12765 0.331073 -8.15587e-17)
(0.00571516 -0.000214669 1.53223e-18)
(0.000508627 -0.000326791 -7.62822e-18)
(0.0282902 -0.0239396 2.38074e-17)
(0.00576943 -0.000187758 -3.38181e-19)
(0.0111107 0.341308 -8.12097e-17)
(0.00926038 -0.000456916 -1.14388e-18)
(0.0097611 0.00883824 2.15898e-18)
(0.00105178 0.000189605 -1.0789e-18)
(0.00106537 0.00058902 2.16469e-17)
(0.00275363 -0.000657853 3.59608e-18)
(-0.444907 -0.0729675 1.02509e-17)
(-0.0574682 0.0948382 1.16084e-17)
(-0.00121991 2.9893e-05 -6.29545e-20)
(0.0180731 -0.003175 1.473e-18)
(-0.139619 0.203312 1.87748e-16)
(0.00717374 0.000154382 -3.35637e-18)
(0.0480806 -0.023218 3.67844e-19)
(0.0632667 0.0103018 -1.03837e-17)
(0.00708246 0.000112387 3.46351e-18)
(0.00132672 -0.000374511 5.43152e-18)
(0.00579875 6.48006e-05 1.97981e-18)
(0.00951033 -0.0539717 4.13764e-17)
(0.0086179 -4.56072e-05 2.36808e-19)
(-0.000284084 -0.000759466 -3.09689e-18)
(0.0130208 -0.00930584 4.90619e-18)
(0.000159618 0.000146783 -2.12419e-19)
(-0.00115224 -0.000443433 5.89683e-19)
(0.00628481 0.000946314 1.70976e-18)
(0.00113138 -0.000353521 -1.26807e-19)
(-0.00040962 -6.60076e-05 -1.83953e-18)
(0.126628 0.502398 -1.32124e-16)
(-0.30761 0.211498 -3.33062e-17)
(-0.0107719 0.000398995 5.23354e-18)
(0.00304531 -1.36624e-05 5.01046e-20)
(0.00337711 -0.000231176 6.65417e-18)
(-0.00293115 4.12532e-05 4.21801e-19)
(0.0181734 -0.0021483 1.00969e-17)
(0.058078 -0.0810096 -1.88357e-16)
(-0.180372 -0.0596675 2.10722e-18)
(-0.0409766 0.0357549 -1.4947e-17)
(0.00189219 -3.44281e-06 1.17956e-18)
(0.00113625 -0.00026307 5.96934e-19)
(0.00945687 -0.000265744 1.96015e-19)
(0.00285665 -0.000632034 2.58541e-18)
(-0.00415186 0.0135587 4.01903e-20)
(-0.186606 -0.139613 8.2565e-17)
(0.0285427 0.0360945 -1.79497e-17)
(-0.349168 0.202267 9.40541e-17)
(0.00492434 -0.000634856 -4.31363e-19)
(0.00894394 -9.36407e-05 -8.88757e-19)
(0.134032 -0.27146 -3.87638e-17)
(-0.025104 -0.0107195 -1.16137e-17)
(-0.00130974 0.00354266 -1.24608e-17)
(0.192503 -0.364258 -2.94992e-18)
(-0.174168 -0.118125 3.81932e-18)
(0.00749657 -0.000227677 5.65437e-18)
(-0.0139165 -0.00763259 2.57374e-17)
(0.00877208 7.96473e-05 -7.6807e-18)
(0.00329308 -8.60844e-05 -2.09415e-17)
(0.0608447 0.0106524 -1.25231e-17)
(0.00732032 -0.000692367 1.51965e-17)
(0.00926093 -0.000370694 -6.82879e-19)
(0.00415334 0.000119379 -8.57702e-19)
(-0.387032 0.182908 9.21086e-17)
(-0.108148 0.022384 2.55447e-18)
(0.0039195 -0.000350551 2.33876e-19)
(-0.07974 -0.0418677 -1.22453e-17)
(0.00360798 -0.000138802 -1.90701e-18)
(-0.085312 -0.0382557 5.01507e-18)
(0.00748163 0.000152348 -2.65185e-18)
(0.121095 0.569974 -8.40145e-17)
(0.0932226 -0.245693 -1.49351e-17)
(0.0049819 0.0418707 -1.47815e-17)
(-0.0414437 -0.200641 -9.69301e-17)
(0.00423627 -0.00103061 -1.35021e-19)
(0.00652325 -0.000256285 6.1658e-18)
(0.00240266 -7.24864e-06 3.40372e-19)
(0.00587547 0.000328483 3.04972e-20)
(-0.00124975 0.00180615 1.91417e-18)
(0.00271978 -0.00042685 -2.55534e-19)
(0.00204606 -0.000696316 1.55731e-19)
(-0.0278099 -0.00874581 1.32603e-17)
(0.00383252 -0.000738889 -4.19023e-18)
(-0.000329129 -0.000210463 -1.59267e-18)
(-0.108232 -0.0362551 2.07662e-17)
(-0.0121263 0.000491655 -1.1347e-18)
(0.00253393 -0.000199165 -1.83947e-18)
(0.0125718 -0.000397864 2.45514e-18)
(-0.0625691 -0.191821 1.25707e-17)
(-0.00577543 -1.36413e-05 -4.62244e-19)
(-0.00409739 0.0123533 7.30683e-20)
(-0.0274445 0.0612326 -8.60748e-17)
(0.00380937 -0.000408508 -1.89664e-18)
(-0.11979 0.0121316 -1.21378e-17)
(0.00733438 -0.000330153 6.75244e-18)
(0.00624727 4.75221e-05 1.19655e-18)
(0.00230526 -0.0148134 3.89602e-18)
(0.00235252 -0.00048974 -1.41549e-18)
(0.00981667 0.00100427 -1.72669e-18)
(0.00356358 -0.000370954 -8.04194e-19)
(0.0249059 0.0892693 1.39291e-17)
(0.00411408 -0.00203755 -4.24705e-18)
(0.00642653 0.000588517 -9.90475e-19)
(0.00548284 -0.000788082 -1.60209e-18)
(-0.0679821 0.20448 9.27983e-18)
(-0.00145664 -0.000792066 -1.90431e-19)
(-0.0701746 0.0039644 1.60216e-18)
(0.00463183 -0.000867338 1.60784e-19)
(-0.00134491 -0.000222335 -8.84149e-19)
(-0.0292523 0.00681986 -6.97945e-18)
(0.00901067 1.37846e-05 -9.97037e-20)
(0.00475079 -0.000840142 -5.56378e-19)
(0.0132943 -0.000438201 -1.02105e-18)
(0.00631158 0.00109778 8.77785e-19)
(-0.00387634 -0.000423563 -2.75968e-19)
(0.000742119 -1.32048e-05 -3.62326e-19)
(0.00452228 -0.000997525 2.88362e-18)
(-0.0013972 -0.00258086 2.16612e-18)
(-0.000471888 7.219e-05 8.6926e-18)
(0.00692109 -0.000175163 -9.54106e-18)
(0.00741128 -0.000346227 4.43867e-19)
(0.0114154 0.00117733 -5.80299e-19)
(-0.00548898 -0.000777838 -2.58544e-18)
(0.00200073 0.000713557 -1.8384e-18)
(0.00194156 -1.70603e-05 8.47244e-20)
(0.00342848 -0.000106761 2.37221e-18)
(0.00648917 -0.000669351 1.46178e-19)
(0.000740058 -0.000131782 1.56912e-18)
(-0.00515244 -1.80109e-05 8.44654e-20)
(0.000536394 -0.000697955 2.31925e-19)
(0.0101525 0.000743669 -3.92284e-18)
(0.0258828 0.103113 -4.02958e-17)
(-0.04416 0.0286989 -1.79808e-17)
(-0.0935038 -0.024585 1.5384e-17)
(-0.00269815 0.0036337 5.97752e-18)
(0.000221094 0.00443123 -4.42372e-19)
(0.00229961 8.50165e-05 5.32686e-18)
(0.0208391 0.00876205 9.4037e-19)
(0.392138 -0.318237 -3.93145e-17)
(0.005188 -0.000942308 -8.25209e-19)
(0.00725256 -5.08229e-05 -3.30679e-18)
(0.000936013 -3.12578e-05 -6.30143e-19)
(0.00613513 0.000277063 9.41821e-19)
(-0.0024808 -0.000383626 2.18822e-19)
(0.156592 0.0328323 1.95244e-17)
(0.00828965 -0.00123256 -2.07401e-18)
(0.00428875 0.000237831 -4.42098e-19)
(0.0144333 -0.000477366 -1.45965e-18)
(-0.00225245 0.0014735 3.60139e-18)
(0.00416524 -0.000728991 1.28239e-18)
(-0.0180924 0.0627117 7.14028e-17)
(-0.00150482 0.00417767 9.15989e-18)
(0.0617634 -0.0256315 -4.70606e-17)
(0.00257913 -0.000253163 -9.44026e-19)
(-0.00131186 -0.00255786 1.21263e-19)
(-0.000993084 -0.000359505 -1.33482e-18)
(0.0159025 -0.0017525 -7.20469e-18)
(0.00777256 -8.26989e-05 6.98048e-20)
(0.00995144 8.92451e-05 1.09701e-17)
(0.00747651 -0.000571881 4.94408e-18)
(0.00497295 -0.000684634 1.62618e-18)
(-0.314341 -0.0930538 -2.10292e-17)
(0.00420099 -0.000217947 2.03495e-18)
(0.0061415 -6.78501e-05 4.00469e-19)
(0.425676 -0.268342 4.59487e-17)
(0.0191725 0.00638031 8.39842e-18)
(0.00773851 -0.000298634 1.63759e-19)
(0.00288354 0.000729173 1.67856e-18)
(0.00872147 0.000544072 1.60155e-18)
(0.148391 -0.335521 2.48681e-18)
(-0.000657731 0.00281849 3.01566e-17)
(0.00478339 -0.0581901 -7.83499e-18)
(-0.00105044 3.1948e-05 1.64019e-18)
(0.00236545 -1.87957e-05 -6.85726e-19)
(-0.00108037 -0.000805313 2.446e-19)
(-0.00135939 -8.53573e-05 -1.24919e-19)
(-0.0362196 0.21463 -1.37412e-17)
(0.0023352 -0.000169161 -5.483e-18)
(-0.00408967 0.00073325 -4.45756e-19)
(0.00227618 -0.000233429 -1.74934e-18)
(0.00634441 -0.000277721 -1.30151e-18)
(0.00422904 -0.00391685 3.28981e-18)
(0.00431284 0.000176984 -2.06913e-18)
(0.0225993 0.0104346 -1.06299e-17)
(0.385966 0.0506771 -6.99437e-18)
(0.00987704 0.000251123 6.52903e-19)
(-0.0784699 0.0594315 2.75068e-17)
(-0.00930584 -0.000656681 -5.86265e-19)
(0.00691796 -0.00164874 -1.29701e-18)
(-0.00397211 0.000231263 2.03277e-18)
(-0.511436 0.0595952 -3.58495e-17)
(0.0214077 -0.0295084 -1.76581e-18)
(0.0721856 -0.204181 -2.44562e-17)
(-0.233345 -0.199444 9.39995e-19)
(0.0101344 0.000124095 -3.16199e-21)
(0.0082644 -0.00132349 6.87726e-19)
(0.00102846 -0.000565025 3.6462e-19)
(0.00753615 0.000426554 5.06523e-19)
(0.00524466 -0.000642421 2.84171e-18)
(0.000472015 -0.000295081 2.13345e-18)
(0.00898187 0.00096896 -3.72953e-19)
(-0.00661602 -4.33437e-05 -6.56398e-19)
(0.00312943 1.16573e-05 4.24423e-19)
(0.00715486 -0.000237194 -2.55303e-18)
(0.0252477 0.0118011 2.96835e-17)
(-0.00339101 -0.000242208 -8.54242e-19)
(0.00800071 -5.63326e-05 5.37394e-18)
(0.00536455 -0.000549574 -3.40886e-18)
(0.00608196 0.000282078 2.95705e-18)
(-0.0221272 0.0726487 -3.17134e-17)
(-0.00548903 -0.000674935 5.9176e-19)
(-0.0107943 0.000493868 -4.17415e-18)
(2.85791e-05 8.44278e-07 1.80389e-18)
(0.00961246 -0.000404366 4.77216e-20)
(0.0134345 0.000604719 6.55515e-19)
(0.00975228 0.0444401 1.77113e-17)
(-0.000592305 0.00468391 -4.73074e-18)
(-0.285739 1.35194e-05 -4.45379e-18)
(0.00368468 -0.00348597 -2.82589e-18)
(0.00896292 -0.000307326 -9.75841e-19)
(0.00534952 -0.000600852 3.61022e-18)
(0.00451267 -3.02554e-05 8.65919e-19)
(0.00267682 0.000100711 9.78501e-20)
(0.00159278 -0.000148463 -1.05095e-18)
(-0.204798 0.0519712 8.14972e-18)
(0.00641874 -0.000672813 -1.64447e-18)
(0.00418415 -0.000310965 3.31355e-19)
(0.025483 -0.051587 -1.82503e-19)
(0.00246422 -0.000652927 7.8601e-19)
(0.00841268 0.00048871 2.53331e-18)
(0.00301385 0.000147621 -4.74916e-20)
(0.029579 -0.0555745 -5.90488e-19)
(0.00780846 -0.000606625 2.53726e-19)
(0.00651843 0.000461328 1.04599e-17)
(0.00944945 0.00766284 -1.00134e-17)
(0.00891185 0.00126852 -4.62182e-18)
(0.00790154 0.000380336 -2.99912e-18)
(0.00430974 -0.000327228 -3.95488e-18)
(-0.366002 -0.0219922 2.16078e-17)
(0.0127198 -0.0107675 -1.32452e-17)
(0.00475642 -0.000980078 -1.20546e-18)
(0.0121655 0.000157681 1.38702e-17)
(0.00962161 -0.000420879 9.65056e-19)
(0.00573151 -6.19341e-07 1.52798e-18)
(0.00689014 -0.000447966 7.03875e-19)
(0.00650843 0.00117791 7.15134e-19)
(0.118349 -0.155883 -3.96091e-18)
(0.00385495 -0.00167511 1.16517e-18)
(0.00257899 -0.000274336 -1.35984e-18)
(0.00676338 -2.9086e-05 -7.24605e-18)
(-4.59043e-08 -4.57862e-05 -2.8555e-18)
(-0.00348116 -0.000384842 2.23054e-18)
(-0.0224914 -0.00915591 -9.75949e-18)
(0.00509715 -0.00032297 -2.93363e-18)
(-0.00463583 -8.84393e-05 1.62515e-21)
(-0.199929 0.260585 -1.55644e-16)
(0.00355834 -8.83896e-05 4.3506e-18)
(0.235677 0.362306 1.86604e-17)
(-0.217896 0.0868155 -7.06446e-18)
(-0.0010633 -0.00142312 -1.06269e-17)
(0.0848824 -0.323194 -2.3577e-18)
(-0.083815 -0.000856078 -4.90642e-19)
(0.00793389 0.0018838 2.64913e-19)
(-0.0291864 0.00333243 -8.56177e-19)
(-0.00880455 0.000513108 -2.18904e-18)
(0.0053143 -0.0161183 1.97527e-18)
(2.89817e-06 -0.000149886 -3.59658e-18)
(0.00671589 -0.000105976 1.84179e-18)
(0.0384336 -0.118847 -7.93913e-18)
(-0.000854492 0.000302311 -3.11112e-18)
(0.00618761 0.000494 2.79714e-18)
(-0.0900721 -0.0716338 -1.22113e-17)
(-0.000931339 -5.24344e-06 8.2374e-19)
(-0.015127 -0.000241557 -1.16762e-20)
(-0.00485447 -0.00455064 3.1012e-17)
(-0.0846954 -0.017908 -1.24015e-17)
(0.00209686 -0.000333901 5.17833e-19)
(0.00284395 0.000114574 1.85148e-19)
(0.0282525 0.0403259 3.60755e-17)
(0.0272192 -0.0292572 -7.72613e-18)
(0.0125175 -0.000120139 -6.48024e-19)
(-0.0111383 -0.0077842 -2.02197e-17)
(-0.188389 0.0137862 2.00137e-17)
(0.000445437 -0.000446151 1.29176e-18)
(0.00280586 -0.000280141 -2.92451e-18)
(0.00168287 0.000126823 -2.37796e-19)
(-0.00398041 -8.35345e-05 -1.74674e-18)
(-0.000418863 1.22413e-05 -1.85188e-19)
(0.00593977 -0.000165576 3.12024e-19)
(-0.248474 0.0465164 -7.30631e-17)
(0.109704 0.391663 4.0782e-17)
(0.00676841 -3.13684e-05 5.23687e-19)
(0.113811 -0.1097 7.82921e-18)
(-0.00172874 -3.75433e-05 -3.06385e-19)
(0.00208308 -5.59841e-05 2.04581e-18)
(0.143192 -0.0660386 2.88367e-17)
(0.0115321 -0.000771364 2.38525e-18)
(0.128705 0.436262 1.10129e-17)
(-0.000936358 0.00322527 -4.03124e-17)
(0.00190946 -8.12311e-05 -3.41287e-18)
(0.0067384 -0.000231951 2.49276e-19)
(0.00513208 0.000102585 1.11086e-19)
(0.00642632 0.0440714 -1.90347e-17)
(0.00621578 -0.00070924 -3.68515e-20)
(0.0078249 0.00207349 -4.55335e-19)
(0.00542594 -0.000103805 3.53275e-18)
(-0.297304 -0.137466 -6.96957e-17)
(0.00411102 -0.000224265 2.02348e-20)
(0.111347 -0.22402 -1.88957e-17)
(0.00341122 2.02135e-05 -4.99524e-18)
(0.00394272 -0.000367337 4.49085e-18)
(-0.000999542 -0.000800159 1.62385e-18)
(0.101492 0.0943692 -8.78759e-17)
(0.00283367 -0.000369124 2.27747e-18)
(-7.76837e-06 -0.00117839 -5.73834e-18)
(0.00115571 -0.000696409 1.35234e-19)
(0.00447871 -0.000624311 2.78946e-19)
(0.0203882 -0.0646309 1.7225e-16)
(0.00100606 -0.000844557 -5.51015e-18)
(-0.00191552 -0.000306674 -5.69764e-18)
(-0.00389959 -2.72613e-05 4.01305e-19)
(-0.072412 0.0371131 -4.71024e-17)
(-0.00322127 6.79122e-05 -3.7116e-18)
(0.00183874 -0.000860316 -3.11676e-19)
(0.00403654 0.000135471 3.24848e-19)
(-0.00253564 -0.000394758 -5.68807e-19)
(-0.275822 -0.225999 1.83602e-17)
(0.11687 -0.351216 -3.12968e-19)
(-0.00489623 -4.7311e-05 5.51582e-19)
(0.00229449 -0.000563664 4.06358e-18)
(0.00374331 -0.00181978 1.43215e-18)
(-0.00711656 -7.95239e-06 3.96622e-19)
(-0.00809555 0.000277125 -1.73642e-18)
(0.000298877 -0.000597488 -3.36829e-18)
(-0.118143 0.08107 6.8207e-17)
(0.00122891 -3.48321e-06 -3.3869e-18)
(-0.00617649 -7.31596e-06 -1.17846e-19)
(0.0020485 0.00192304 -1.40849e-19)
(0.244745 0.270971 1.50018e-18)
(0.0020975 -0.0112164 -2.52208e-17)
(0.00214557 -0.000164836 1.92052e-18)
(0.00911368 -9.98617e-05 -6.85848e-19)
(-0.216597 -0.0301185 1.84922e-17)
(0.00389949 -0.00451219 -2.50229e-18)
(-0.000206826 -0.000257814 -7.55408e-19)
(0.00437121 -0.000458338 -6.7228e-18)
(-0.0673165 0.0838912 1.09561e-17)
(0.00679844 -0.000906467 -3.99294e-19)
(7.44355e-06 -0.000381233 -3.31805e-18)
(0.00242487 -0.000138369 7.72306e-18)
(0.00167118 -0.0001337 4.76637e-19)
(0.00864394 -0.000171918 -1.06276e-19)
(0.00335227 -0.000238397 1.73456e-18)
(0.00118781 4.23953e-05 6.52748e-19)
(0.00320164 0.00610019 -1.31329e-18)
(0.00747301 0.000179553 9.45927e-18)
(0.00281284 -0.000352963 -2.55184e-18)
(-0.347129 -0.0898288 5.51429e-17)
(0.00696754 -0.000281019 1.05871e-18)
(0.00811365 -0.000527648 4.59066e-19)
(0.00146294 0.000256595 -2.59224e-18)
(0.00764094 -4.30318e-05 -2.05042e-18)
(0.00854501 0.00065536 -1.78849e-18)
(-0.00634934 -0.000116975 -9.2658e-19)
(0.00587135 -0.000338473 -1.12699e-19)
(0.096282 -0.182739 -1.11773e-17)
(0.00530824 -0.000206761 1.86559e-18)
(0.0276802 0.481304 1.79612e-16)
(0.00571582 -0.000871929 3.03479e-18)
(0.000445847 -8.61672e-05 -1.80239e-18)
(-0.000481918 -7.06518e-05 -2.88393e-19)
(0.0419085 -0.0246242 1.27647e-17)
(0.0121243 -0.000211609 1.78371e-18)
(0.000434072 -0.000307277 3.05527e-18)
(-0.00563206 7.74641e-05 1.41741e-18)
(0.00161425 -0.00102439 3.36986e-19)
(0.00308484 0.000990076 1.25887e-17)
(-0.0127729 0.633906 -5.03049e-17)
(0.00104017 0.000140661 1.2218e-18)
(0.00242089 0.00589542 1.36555e-18)
(-0.0794329 -0.0525382 -8.9565e-18)
(0.00399781 -0.00517893 1.48163e-18)
(0.00297675 -0.000238544 -2.08838e-18)
(-0.000263736 -0.000663576 -6.24673e-18)
(0.0112812 -0.000496934 -1.43535e-19)
(-0.000410848 9.19312e-05 -2.13096e-18)
(-0.00727835 -0.000294586 -1.14865e-20)
(0.0640128 -0.245408 -5.882e-19)
(-0.162161 0.165666 3.56009e-17)
(-0.00078056 0.000185403 2.94312e-18)
(0.00876802 -0.000499044 -6.53883e-18)
(0.00297784 -0.00321212 2.63407e-19)
(-0.000233633 -0.00299133 -4.3296e-19)
(0.00446097 -0.000510415 2.49233e-19)
(-0.00239888 -4.26165e-05 1.61609e-19)
(0.170712 0.196188 -1.154e-17)
(0.0114291 0.0420243 1.53514e-17)
(-0.0784558 -0.0452398 -1.25363e-17)
(0.00167589 -0.000239563 -4.20845e-19)
(0.0108069 -0.000583938 -9.8064e-19)
(0.0127228 -0.000738402 -2.57042e-18)
(0.00657947 -4.82796e-05 7.51291e-19)
(0.18327 -0.130575 -4.13944e-17)
(0.0101315 -0.000627795 -5.72053e-18)
(0.00201569 -0.00103363 9.46202e-19)
(-0.00159454 -0.000498962 2.96034e-19)
(-0.0056152 -3.67508e-05 1.7322e-18)
(0.00683991 -0.000466542 -1.159e-17)
(0.192102 0.236874 -1.80189e-17)
(0.00158083 -0.000974499 -4.12635e-18)
(0.00120014 0.000366297 3.83621e-18)
(-0.139654 0.0647181 2.09545e-16)
(-0.073923 -0.0150377 1.78922e-17)
(-0.0422293 0.0547308 4.58658e-17)
(0.0126105 0.00814202 -6.27979e-18)
(-0.00809697 0.000411209 4.23147e-18)
(-0.000544905 -2.16965e-05 9.03035e-19)
(-0.00076525 -0.0212955 -4.5091e-19)
(0.0102745 -0.00815424 5.9791e-18)
(-0.203119 -0.757556 -9.63839e-18)
(-0.37927 -0.18541 -7.83536e-17)
(0.00526303 0.000121937 1.21603e-17)
(-0.000525556 -0.000866101 1.0616e-18)
(0.00283188 2.37511e-05 -2.38464e-19)
(0.00557253 -0.000172513 -3.56583e-18)
(0.00537684 -0.000774559 4.02403e-18)
(0.00351214 8.46334e-05 -5.15052e-19)
(-0.209265 -0.0789341 -2.87933e-17)
(0.00321443 4.22306e-07 2.23224e-20)
(-0.00912202 -0.00052183 4.7541e-18)
(0.0190227 -0.00122069 -5.29384e-18)
(-0.00306232 -9.09671e-06 3.80974e-18)
(0.149994 -0.0604531 -1.55101e-18)
(0.00546707 -0.000799739 2.74183e-18)
(0.0548485 0.0603827 -4.67273e-18)
(0.00812145 0.00211548 2.34053e-18)
(-0.00192843 -0.00044811 -4.06285e-18)
(0.00495871 -0.00127877 -4.97427e-19)
(0.00951541 -0.000228252 -1.87138e-17)
(-0.0085271 -0.00959917 -2.76717e-19)
(0.0142197 0.00727644 2.97008e-18)
(-0.0100323 0.019972 -9.96299e-18)
(0.00757522 -0.000278631 6.24664e-18)
(0.00273274 -0.0160535 -9.00024e-19)
(0.0092999 0.000273296 -2.15729e-18)
(0.00133605 -0.000516497 3.12832e-19)
(0.00473508 6.05198e-05 -3.80053e-18)
(0.00514075 0.000163138 1.31543e-18)
(-0.00115832 0.000787349 -4.29584e-18)
(0.00524902 0.000203346 -1.13358e-17)
(-0.000114631 -0.010623 1.28425e-17)
(-0.00272385 -0.000641322 -1.03743e-17)
(0.00354835 0.000455477 -1.54187e-18)
(0.00616113 -7.69983e-05 -5.13871e-19)
(-0.00386466 5.87205e-05 -1.64712e-18)
(0.00342622 0.000185479 4.88478e-18)
(-0.0267848 0.0016528 -4.66557e-18)
(-0.00495181 -0.000246767 -2.20236e-18)
(0.00382786 5.49472e-05 -2.46572e-19)
(0.124211 0.0305011 -7.12015e-18)
(-0.000699214 5.71986e-05 -3.33364e-19)
(0.012516 -0.00824108 -7.34935e-18)
(-0.00442612 -0.0352808 -2.39962e-18)
(0.00150475 0.000785481 5.09181e-18)
(-0.27174 0.107804 -5.48609e-17)
(0.0076164 0.00284382 2.22781e-18)
(-0.00750518 -2.25346e-06 2.16523e-18)
(-0.110747 -0.0252407 2.71734e-17)
(0.010787 -0.000553087 -1.12057e-18)
(0.00301791 -0.000181534 7.45094e-19)
(0.00345533 -0.000415662 -1.55104e-17)
(-0.00247522 -0.000399568 3.26099e-19)
(4.64213e-06 -0.000107689 3.17188e-18)
(0.00577316 -3.52518e-05 -3.20131e-19)
(0.00630702 -0.000545859 6.51391e-18)
(-0.0723499 -0.00167669 1.27081e-18)
(0.00601996 5.68498e-05 -1.86131e-18)
(-0.0026951 -0.000675496 -2.69847e-18)
(0.00136278 -0.000254545 7.93272e-20)
(0.00919886 0.000374331 3.79603e-19)
(0.00660534 0.000312853 2.58733e-18)
(-0.00113927 -0.000441718 7.24817e-19)
(0.00183094 -0.00161023 -4.28145e-18)
(-0.000677512 -7.44672e-05 3.39298e-19)
(0.00264357 -0.00232345 2.39435e-18)
(0.00251887 2.13484e-05 4.31364e-18)
(0.00972763 0.00243926 2.64145e-18)
(-0.0052411 -0.000137408 6.41782e-20)
(0.00281303 -0.00018624 -2.73492e-18)
(0.0043667 3.55749e-05 6.06188e-20)
(0.00595868 -0.000400403 2.37393e-18)
(0.33171 0.0248109 -2.53463e-18)
(0.0013771 8.9869e-05 -1.82417e-19)
(-0.0234492 0.00200081 9.49601e-18)
(0.000357243 -0.000650804 1.19467e-17)
(0.000521178 -0.00113643 -8.84508e-19)
(0.00191205 -0.000246734 -5.60403e-20)
(0.00512373 -0.000133886 -1.75745e-18)
(0.0012208 0.000161804 1.83055e-18)
(0.00775497 0.00350989 -7.4136e-18)
(0.00545998 -0.000372789 -2.72031e-20)
(-0.0989267 -0.0224806 -2.74362e-17)
(-0.00136309 -0.000451305 -1.95045e-18)
(0.456216 -0.0828022 -3.71177e-17)
(-0.000387112 0.000147232 -3.98575e-20)
(0.00606281 0.000235149 -4.35958e-18)
(-0.00790777 -0.000450143 -7.59023e-19)
(0.00722162 -0.000429359 1.73444e-18)
(0.00837234 -0.000401284 -1.5914e-18)
(0.00605121 0.00011454 2.46277e-19)
(-0.00081813 0.000788676 2.56658e-18)
(-0.017355 -0.0123694 -3.99135e-17)
(-0.266895 -0.114496 1.37926e-17)
(0.135587 -0.0745599 -9.89456e-19)
(0.00226921 -0.00130376 -5.37157e-19)
(0.0018475 0.00480497 -6.2526e-18)
(0.00438355 -0.00056544 -8.51858e-19)
(0.00278151 0.00641673 3.81564e-19)
(0.0195226 0.00244732 -4.41628e-18)
(0.00027429 0.000206091 -4.48512e-18)
(0.00205026 -9.428e-05 8.04498e-21)
(-0.0108273 0.020977 3.20141e-18)
(-0.23476 -0.988418 -5.65035e-18)
(-0.0080357 -0.0337422 1.06407e-18)
(0.376288 -0.0901761 -3.34388e-17)
(0.00900163 -0.00031265 2.13793e-17)
(0.00461749 -0.000194358 3.73851e-19)
(0.000230244 -0.000209569 2.28045e-18)
(0.00599296 -0.00163062 -2.31248e-18)
(0.00445574 -0.000196265 9.4573e-19)
(-0.0118783 -0.00812137 -6.79858e-19)
(0.0130091 0.000117432 4.3729e-19)
(0.00952312 0.000443515 -1.71021e-18)
(-0.039736 0.0214818 7.488e-18)
(-0.000254286 -5.85493e-05 1.42873e-18)
(0.00176464 0.000120851 1.08623e-17)
(0.00206336 -0.00173104 1.61652e-18)
(0.29875 -0.393986 -6.8006e-18)
(0.00705397 0.000242821 2.58047e-18)
(0.00759854 0.000138778 -3.40073e-18)
(-0.00343388 -0.0214418 -7.95384e-19)
(0.00180974 -0.000529424 5.79231e-18)
(0.0403797 0.616017 -1.0791e-16)
(0.00537805 2.14757e-05 -8.09442e-19)
(0.00684454 -0.000350028 -8.41597e-20)
(0.00374889 -0.000376943 1.83389e-18)
(0.0025582 -7.36823e-05 -2.6505e-19)
(-0.474096 0.0809675 1.18797e-18)
(0.0253142 -0.00118147 -2.72833e-18)
(0.30082 -0.404193 -1.10862e-17)
(-0.00507017 3.23217e-05 -5.90327e-18)
(0.275304 0.146606 -5.94201e-17)
(-0.245583 0.069464 -1.4003e-18)
(-0.18963 0.104484 9.46843e-18)
(-0.0117005 -0.0076465 1.04876e-18)
(0.0244517 0.00737574 1.52305e-18)
(-0.0654761 0.0116729 -3.26405e-18)
(0.00487605 0.00685389 5.04911e-18)
(0.00757984 -0.000486977 -3.96942e-18)
(-0.00164943 -0.000793544 4.65223e-19)
(0.00228202 -5.81206e-05 5.05652e-18)
(-0.626324 0.0122425 2.10872e-17)
(0.00463723 -0.000462829 -5.6612e-20)
(0.00326883 0.00230468 1.29907e-18)
(0.0691569 0.317274 -6.6116e-18)
(0.008842 0.000375735 1.80163e-19)
(0.00526713 -0.000176688 -1.36585e-18)
(0.00251497 -0.000459047 -7.20118e-19)
(0.00640726 5.4254e-05 1.09228e-18)
(0.00822763 -0.000378544 -4.97887e-19)
(0.00842134 -0.000571355 2.12697e-18)
(0.0423891 -0.0180265 2.28875e-17)
(-0.0617144 -0.206658 2.52403e-17)
(0.00643812 -0.000533318 1.02846e-19)
(0.00598028 0.00016482 -2.60499e-18)
(-0.478743 -0.0987398 -3.4476e-18)
(0.150892 0.63904 -1.6967e-16)
(0.00357281 -0.000601975 1.0894e-18)
(-0.00031707 -0.000420235 1.53096e-18)
(-0.00173052 4.70152e-05 -5.2174e-19)
(-0.00337441 -3.17095e-05 2.29893e-18)
(0.162304 -0.0605521 2.19772e-18)
(0.0258069 -0.00460091 -5.59886e-18)
(-0.0293454 0.0523144 -1.7908e-17)
(0.00422811 -3.3134e-05 1.40426e-18)
(0.00824299 -8.68908e-05 -5.42166e-19)
(-0.00170442 -0.000466076 -9.59612e-19)
(0.00252559 -0.000248736 1.79076e-17)
(0.000344122 0.000642029 -3.34496e-19)
(0.00501488 -0.000951525 1.77193e-17)
(0.00596859 4.26831e-05 5.72146e-18)
(0.444849 0.0374705 -4.82941e-18)
(-0.00317829 0.000305064 4.65594e-20)
(0.00639214 0.000118692 3.30653e-19)
(0.0088161 0.00408324 9.90158e-18)
(-0.00195455 -0.000602365 1.78712e-19)
(-0.000835686 -0.00634725 2.7812e-18)
(-0.0111694 0.00770923 -8.46647e-18)
(0.00463813 -0.00121867 -1.24661e-18)
(-0.229313 -0.120668 7.7111e-18)
(0.00985523 -0.841715 -4.8132e-18)
(0.00591706 -0.000118114 2.60384e-18)
(-0.0073692 -0.000444438 -2.9362e-18)
(-0.0805022 0.0775453 2.42691e-17)
(-0.490381 -0.0835601 1.1485e-17)
(0.00226502 0.00491099 -3.09904e-18)
(0.0120283 -0.000466012 -2.63083e-19)
(-0.0735989 0.38404 1.12336e-17)
(-0.0319474 -0.00248274 -4.02544e-18)
(0.0016793 -0.000946657 1.36398e-17)
(0.00759244 -0.000414543 3.57067e-18)
(0.000824844 3.10415e-05 -1.97481e-18)
(-0.00832847 -0.000269691 1.89878e-18)
(-0.0149352 0.0734044 4.26121e-17)
(0.00239868 -0.00119975 4.29408e-18)
(-0.0192303 -0.00044643 8.65426e-18)
(0.00184997 -0.000199427 -3.03114e-19)
(0.019442 0.0893812 1.60193e-17)
(0.0953232 -0.155128 8.07929e-17)
(-0.00161367 -0.00064499 2.70909e-18)
(0.00286688 -6.13064e-05 2.71051e-18)
(-0.0155382 -0.0123368 -1.81579e-17)
(-0.0109456 0.00044544 2.46615e-18)
(0.00196719 -0.000219835 -5.62222e-19)
(0.00761456 0.000967704 -8.96669e-19)
(0.173048 -0.211456 -3.37893e-18)
(0.182104 -0.349019 1.67592e-17)
(0.286432 0.0431436 -2.58822e-17)
(0.00781132 -0.000499855 3.66883e-19)
(0.0148905 0.0108359 -3.77572e-17)
(0.00387091 0.00600361 -1.87314e-18)
(-0.000488048 -0.000124893 -2.39599e-18)
(-0.00916877 -2.74012e-05 2.58286e-19)
(-0.00707351 0.00032481 -4.1763e-18)
(-0.00534574 0.0721525 -5.7345e-17)
(0.00156891 1.88335e-05 2.26904e-19)
(-0.000826367 -0.000687124 6.90606e-18)
(0.0155391 0.00999682 2.32214e-17)
(0.00452093 -0.000588846 2.19658e-18)
(0.00420889 -0.0137697 1.82393e-17)
(-0.00535236 6.29005e-06 -1.22985e-18)
(-0.0119861 0.000120921 -1.87474e-19)
(-0.00575375 -3.89834e-05 2.4465e-18)
(0.00363476 0.000533609 -1.77357e-18)
(-0.0430485 0.0897556 1.12523e-17)
(-0.00124528 6.74912e-05 1.82578e-18)
(0.000507976 -0.000756635 1.29824e-18)
(0.00607653 0.00262038 -3.77945e-20)
(-0.00536558 0.0111081 5.39288e-19)
(-0.0539132 0.00412515 2.99045e-18)
(-0.00717537 -7.64454e-06 8.07447e-19)
(-0.0190607 -0.0174358 -7.08869e-18)
(0.1862 0.64135 2.25072e-17)
(-0.00723012 0.541591 -1.06498e-16)
(0.003292 -5.53872e-05 1.39167e-18)
(-0.29993 0.112983 -3.35016e-17)
(0.0357625 -0.0256937 -9.19342e-17)
(0.00927684 0.000309333 -3.09224e-18)
(-0.000607449 2.10455e-05 1.09015e-19)
(0.00676096 9.30302e-05 3.47025e-19)
(0.00207782 -0.000125625 -8.59472e-18)
(0.182943 0.231668 1.47147e-16)
(0.00402957 0.000208131 -1.26927e-18)
(0.00198961 7.73444e-05 1.44263e-18)