/*--------------------------------*- C++ -*----------------------------------*\
| =========                 |                                                 |
| \\      /  F ield         | OpenFOAM: The Open Source CFD Toolbox           |
|  \\    /   O peration     | Version:  v2012                                 |
|   \\  /    A nd           | Website:  www.openfoam.com                      |
|    \\/     M anipulation  |                                                 |
\*---------------------------------------------------------------------------*/
FoamFile
{
    version     2.0;
    format      ascii;
    class       pointVectorField;
    location    "150";
    object      pointDisplacement;
}
// * * * * * * * * * * * * * * * * * * * * * * * * * * * * * * * * * * * * * //

dimensions      [0 1 0 0 0 0 0];


internalField   nonuniform List<vector> 
10232
(
(0 0 0)
(0 6.61177e-06 0)
(0 6.61177e-06 0)
(0 6.61177e-06 0)
(0 6.61177e-06 0)
(0 0 0)
(0 6.61177e-06 0)
(0 6.61177e-06 0)
(0 6.61177e-06 0)
(0 6.61177e-06 0)
(0 0 0)
(0 0 0)
(0 0 0)
(0 0 0)
(0 0 0)
(0 0 0)
(0 0 0)
(0 0 0)
(0 0 0)
(0 0 0)
(0 0 0)
(0 0 0)
(0 0 0)
(0 0 0)
(0 0 0)
(0 0 0)
(0 0 0)
(0 0 0)
(0 0 0)
(0 0 0)
(0 0 0)
(0 0 0)
(0 0 0)
(0 0 0)
(0 0 0)
(0 0 0)
(0 0 0)
(0 0 0)
(0 0 0)
(0 0 0)
(0 0 0)
(0 0 0)
(0 0 0)
(0 0 0)
(0 0 0)
(0 0 0)
(0 0 0)
(0 0 0)
(0 0 0)
(0 0 0)
(0 0 0)
(0 0 0)
(0 0 0)
(0 0 0)
(0 0 0)
(0 0 0)
(0 0 0)
(0 0 0)
(0 0 0)
(0 0 0)
(0 0 0)
(0 0 0)
(0 0 0)
(0 0 0)
(0 0 0)
(0 0 0)
(0 0 0)
(0 0 0)
(0 0 0)
(0 0 0)
(0 0 0)
(0 0 0)
(0 0 0)
(0 0 0)
(0 0 0)
(0 0 0)
(0 0 0)
(0 0 0)
(0 0 0)
(0 0 0)
(0 0 0)
(0 0 0)
(0 0 0)
(0 0 0)
(0 6.61177e-06 0)
(0 6.61177e-06 0)
(0 6.61177e-06 0)
(0 6.61177e-06 0)
(0 6.61177e-06 0)
(0 6.61177e-06 0)
(0 6.61177e-06 0)
(0 6.61177e-06 0)
(0 6.61177e-06 0)
(0 6.61177e-06 0)
(0 6.61177e-06 0)
(0 6.61177e-06 0)
(0 6.61177e-06 0)
(0 6.61177e-06 0)
(0 6.61177e-06 0)
(0 6.61177e-06 0)
(0 6.61177e-06 0)
(0 6.61177e-06 0)
(0 6.61177e-06 0)
(0 6.61177e-06 0)
(0 6.61177e-06 0)
(0 6.61177e-06 0)
(0 6.61177e-06 0)
(0 6.61177e-06 0)
(0 6.61177e-06 0)
(0 6.61177e-06 0)
(0 6.61177e-06 0)
(0 6.61177e-06 0)
(0 6.61177e-06 0)
(0 6.61177e-06 0)
(0 6.61177e-06 0)
(0 6.61177e-06 0)
(0 6.61177e-06 0)
(0 6.61177e-06 0)
(0 6.61177e-06 0)
(0 6.61177e-06 0)
(0 6.61177e-06 0)
(0 6.61177e-06 0)
(0 6.61177e-06 0)
(0 6.61177e-06 0)
(0 6.61177e-06 0)
(0 6.61177e-06 0)
(0 6.61177e-06 0)
(0 6.61177e-06 0)
(0 6.61177e-06 0)
(0 6.61177e-06 0)
(0 6.61177e-06 0)
(0 6.61177e-06 0)
(0 6.61177e-06 0)
(0 6.61177e-06 0)
(0 6.61177e-06 0)
(0 6.61177e-06 0)
(0 6.61177e-06 0)
(0 6.61177e-06 0)
(0 6.61177e-06 0)
(0 6.61177e-06 0)
(0 6.61177e-06 0)
(0 6.61177e-06 0)
(0 6.61177e-06 0)
(0 6.61177e-06 0)
(0 6.61177e-06 0)
(0 6.61177e-06 0)
(0 6.61177e-06 0)
(0 6.61177e-06 0)
(0 6.61177e-06 0)
(0 6.61177e-06 0)
(0 6.61177e-06 0)
(0 6.61177e-06 0)
(0 6.61177e-06 0)
(0 6.61177e-06 0)
(0 6.61177e-06 0)
(0 6.61177e-06 0)
(0 6.61177e-06 0)
(0 6.61177e-06 0)
(0 6.61177e-06 0)
(0 6.61177e-06 0)
(0 6.61177e-06 0)
(0 6.61177e-06 0)
(0 6.61177e-06 0)
(0 6.61177e-06 0)
(0 6.61177e-06 0)
(0 6.61177e-06 0)
(0 6.61177e-06 0)
(0 6.61177e-06 0)
(0 6.61177e-06 0)
(0 6.61177e-06 0)
(0 6.61177e-06 0)
(0 6.61177e-06 0)
(0 6.61177e-06 0)
(0 6.61177e-06 0)
(0 6.61177e-06 0)
(0 6.61177e-06 0)
(0 6.61177e-06 0)
(0 6.61177e-06 0)
(0 6.61177e-06 0)
(0 6.61177e-06 0)
(0 6.61177e-06 0)
(0 6.61177e-06 0)
(0 6.61177e-06 0)
(0 6.61177e-06 0)
(0 6.61177e-06 0)
(0 6.61177e-06 0)
(0 6.61177e-06 0)
(0 6.61177e-06 0)
(0 6.61177e-06 0)
(0 6.61177e-06 0)
(0 6.61177e-06 0)
(0 6.61177e-06 0)
(0 6.61177e-06 0)
(0 6.61177e-06 0)
(0 6.61177e-06 0)
(0 6.61177e-06 0)
(0 6.61177e-06 0)
(0 6.61177e-06 0)
(0 6.61177e-06 0)
(0 6.61177e-06 0)
(0 0 0)
(0 0 0)
(0 0 0)
(0 0 0)
(0 0 0)
(0 0 0)
(0 0 0)
(0 0 0)
(0 0 0)
(0 0 0)
(0 0 0)
(0 0 0)
(0 0 0)
(0 0 0)
(0 0 0)
(0 0 0)
(0 0 0)
(0 0 0)
(0 0 0)
(0 0 0)
(0 0 0)
(0 0 0)
(0 0 0)
(0 0 0)
(0 0 0)
(0 0 0)
(0 0 0)
(0 0 0)
(0 0 0)
(0 0 0)
(0 0 0)
(0 0 0)
(0 0 0)
(0 0 0)
(0 0 0)
(0 0 0)
(0 0 0)
(0 0 0)
(0 0 0)
(0 0 0)
(0 0 0)
(0 0 0)
(0 0 0)
(0 0 0)
(0 0 0)
(0 0 0)
(0 0 0)
(0 0 0)
(0 0 0)
(0 0 0)
(0 0 0)
(0 0 0)
(0 0 0)
(0 0 0)
(0 0 0)
(0 0 0)
(0 0 0)
(0 0 0)
(0 0 0)
(0 0 0)
(0 0 0)
(0 0 0)
(0 0 0)
(0 0 0)
(0 0 0)
(0 0 0)
(0 0 0)
(0 0 0)
(0 0 0)
(0 0 0)
(0 0 0)
(0 0 0)
(0 0 0)
(0 0 0)
(0 6.61177e-06 0)
(0 6.61177e-06 0)
(0 6.61177e-06 0)
(0 6.61177e-06 0)
(0 6.61177e-06 0)
(0 6.61177e-06 0)
(0 6.61177e-06 0)
(0 6.61177e-06 0)
(0 6.61177e-06 0)
(0 6.61177e-06 0)
(0 6.61177e-06 0)
(0 6.61177e-06 0)
(0 6.61177e-06 0)
(0 6.61177e-06 0)
(0 6.61177e-06 0)
(0 6.61177e-06 0)
(0 6.61177e-06 0)
(0 6.61177e-06 0)
(0 6.61177e-06 0)
(0 6.61177e-06 0)
(0 6.61177e-06 0)
(0 6.61177e-06 0)
(0 6.61177e-06 0)
(0 6.61177e-06 0)
(0 6.61177e-06 0)
(0 6.61177e-06 0)
(0 6.61177e-06 0)
(0 6.61177e-06 0)
(0 6.61177e-06 0)
(0 6.61177e-06 0)
(0 6.61177e-06 0)
(0 6.61177e-06 0)
(0 6.61177e-06 0)
(0 6.61177e-06 0)
(0 6.61177e-06 0)
(0 6.61177e-06 0)
(0 6.61177e-06 0)
(0 6.61177e-06 0)
(0 6.61177e-06 0)
(0 6.61177e-06 0)
(0 6.61177e-06 0)
(0 6.61177e-06 0)
(0 6.61177e-06 0)
(0 6.61177e-06 0)
(0 6.61177e-06 0)
(0 6.61177e-06 0)
(0 6.61177e-06 0)
(0 6.61177e-06 0)
(0 6.61177e-06 0)
(0 6.61177e-06 0)
(0 6.61177e-06 0)
(0 6.61177e-06 0)
(0 6.61177e-06 0)
(0 6.61177e-06 0)
(0 6.61177e-06 0)
(0 6.61177e-06 0)
(0 6.61177e-06 0)
(0 6.61177e-06 0)
(0 6.61177e-06 0)
(0 6.61177e-06 0)
(0 6.61177e-06 0)
(0 6.61177e-06 0)
(0 6.61177e-06 0)
(0 6.61177e-06 0)
(0 6.61177e-06 0)
(0 6.61177e-06 0)
(0 6.61177e-06 0)
(0 6.61177e-06 0)
(0 6.61177e-06 0)
(0 6.61177e-06 0)
(0 6.61177e-06 0)
(0 6.61177e-06 0)
(0 6.61177e-06 0)
(0 6.61177e-06 0)
(0 6.61177e-06 0)
(0 6.61177e-06 0)
(0 6.61177e-06 0)
(0 6.61177e-06 0)
(0 6.61177e-06 0)
(0 6.61177e-06 0)
(0 6.61177e-06 0)
(0 6.61177e-06 0)
(0 6.61177e-06 0)
(0 6.61177e-06 0)
(0 6.61177e-06 0)
(0 6.61177e-06 0)
(0 6.61177e-06 0)
(0 6.61177e-06 0)
(0 6.61177e-06 0)
(0 6.61177e-06 0)
(0 6.61177e-06 0)
(0 6.61177e-06 0)
(0 6.61177e-06 0)
(0 6.61177e-06 0)
(0 6.61177e-06 0)
(0 6.61177e-06 0)
(0 6.61177e-06 0)
(0 6.61177e-06 0)
(0 6.61177e-06 0)
(0 6.61177e-06 0)
(0 6.61177e-06 0)
(0 6.61177e-06 0)
(0 6.61177e-06 0)
(0 6.61177e-06 0)
(0 6.61177e-06 0)
(0 6.61177e-06 0)
(0 6.61177e-06 0)
(0 6.61177e-06 0)
(0 6.61177e-06 0)
(0 6.61177e-06 0)
(0 6.61177e-06 0)
(0 6.61177e-06 0)
(0 6.61177e-06 0)
(0 6.61177e-06 0)
(0 6.61177e-06 0)
(0 6.61177e-06 0)
(0 6.6003e-06 0)
(0 6.60527e-06 0)
(0 6.60603e-06 0)
(0 6.57797e-06 0)
(0 6.60703e-06 0)
(0 6.62822e-06 0)
(0 6.61174e-06 0)
(0 6.60537e-06 0)
(0 6.61201e-06 0)
(0 6.61618e-06 0)
(0 6.605e-06 0)
(0 6.65232e-06 0)
(0 6.58945e-06 0)
(0 6.60129e-06 0)
(0 -2.28382e-05 0)
(0 -5.09612e-05 0)
(0 -1.56796e-05 0)
(0 -7.46655e-05 0)
(0 -4.1206e-05 0)
(0 -9.44401e-05 0)
(0 6.62379e-06 0)
(0 6.61e-06 0)
(0 -3.89533e-05 0)
(0 6.60534e-06 0)
(0 6.60353e-06 0)
(0 -2.29265e-05 0)
(0 -3.64501e-05 0)
(0 -3.10869e-05 0)
(0 -1.67159e-05 0)
(0 6.60491e-06 0)
(0 6.60882e-06 0)
(0 6.6119e-06 0)
(0 6.61066e-06 0)
(0 6.60771e-06 0)
(0 6.60972e-06 0)
(0 -1.69925e-05 0)
(0 -8.51349e-06 0)
(0 -8.9256e-05 0)
(0 -7.06825e-05 0)
(0 -5.43117e-05 0)
(0 -2.55229e-05 0)
(0 -1.40709e-05 0)
(0 6.60097e-06 0)
(0 6.60003e-06 0)
(0 6.60314e-06 0)
(0 6.60552e-06 0)
(0 6.63007e-06 0)
(0 6.60842e-06 0)
(0 -9.04911e-06 0)
(0 -7.56201e-06 0)
(0 -8.97863e-05 0)
(0 -5.30728e-05 0)
(0 -2.41226e-05 0)
(0 -4.00443e-05 0)
(0 -3.6693e-05 0)
(0 -2.1329e-05 0)
(0 -1.26595e-05 0)
(0 -2.02392e-05 0)
(0 -3.31148e-06 0)
(0 -0.000690448 0)
(0 -0.000704394 0)
(0 -0.0006625 0)
(0 -0.00067602 0)
(0 -0.000635289 0)
(0 -0.000648912 0)
(0 -0.000610152 0)
(0 -0.00062372 0)
(0 -0.000586955 0)
(0 -0.000600679 0)
(0 -0.000565393 0)
(0 -0.000579769 0)
(0 -0.000545513 0)
(0 -0.000560071 0)
(0 -0.000527182 0)
(0 -0.000511424 0)
(0 -0.000495439 0)
(0 -0.000511098 0)
(0 -0.000481573 0)
(0 -0.000497166 0)
(0 -0.000470434 0)
(0 -0.00047858 0)
(0 -0.000660217 0)
(0 -0.000484825 0)
(0 -0.00045959 0)
(0 -0.000474076 0)
(0 -0.000449083 0)
(0 -0.000464388 0)
(0 -0.000441117 0)
(0 -0.000424578 0)
(0 -0.000418931 0)
(0 -0.000401219 0)
(0 -0.000397505 0)
(0 -0.000414489 0)
(0 -0.00039541 0)
(0 -0.000379195 0)
(0 -0.000488837 0)
(0 -0.000411984 0)
(0 -0.000395525 0)
(0 -0.000411308 0)
(0 -0.00039634 0)
(0 -0.000411005 0)
(0 -0.000397163 0)
(0 -0.000410095 0)
(0 -0.000398195 0)
(0 -0.00038453 0)
(0 -0.000388582 0)
(0 -0.000374309 0)
(0 -0.000381078 0)
(0 -0.000366187 0)
(0 -0.000375016 0)
(0 -0.000358882 0)
(0 -0.000369503 0)
(0 -0.000349735 0)
(0 -0.000364516 0)
(0 -0.000347008 0)
(0 -0.00036141 0)
(0 -0.000342101 0)
(0 -0.000360719 0)
(0 -0.000344391 0)
(0 -0.000363212 0)
(0 -0.000347536 0)
(0 -0.000368506 0)
(0 -0.000382445 0)
(0 -0.000390298 0)
(0 -0.000402476 0)
(0 -0.000412714 0)
(0 -0.000393233 0)
(0 -0.000423162 0)
(0 -0.000435315 0)
(0 -0.000443805 0)
(0 -0.000457386 0)
(0 -0.000463832 0)
(0 -0.000353301 0)
(0 -0.000477879 0)
(0 -0.000482376 0)
(0 -0.000495738 0)
(0 -0.000498537 0)
(0 -0.000510802 0)
(0 -0.00051098 0)
(0 -0.000474079 0)
(0 -0.000331328 0)
(0 -0.00052225 0)
(0 -0.000520003 0)
(0 -0.000510497 0)
(0 -0.000518112 0)
(0 -0.000530664 0)
(0 -0.000509973 0)
(0 -0.000516648 0)
(0 -0.000507992 0)
(0 -0.000513704 0)
(0 -0.000503457 0)
(0 -0.000507709 0)
(0 -0.000893004 0)
(0 -0.00089052 0)
(0 -0.000879721 0)
(0 -0.000876396 0)
(0 -0.000866156 0)
(0 -0.000862121 0)
(0 -0.000495893 0)
(0 -0.000498634 0)
(0 -0.000510864 0)
(0 -0.000500435 0)
(0 -0.000511208 0)
(0 -0.000851716 0)
(0 -0.00084608 0)
(0 -0.000646729 0)
(0 -0.000834517 0)
(0 -0.000499778 0)
(0 -0.00050903 0)
(0 -0.000534513 0)
(0 -0.000543305 0)
(0 -0.000485705 0)
(0 -0.000495604 0)
(0 -0.000503472 0)
(0 -0.000487565 0)
(0 -0.000493603 0)
(0 -0.000827739 0)
(0 -0.000815637 0)
(0 -0.000835193 0)
(0 -0.000475443 0)
(0 -0.000479235 0)
(0 -0.000816686 0)
(0 -0.000820749 0)
(0 -0.000458822 0)
(0 -0.000479315 0)
(0 -0.000802057 0)
(0 -0.000803339 0)
(0 -0.000461165 0)
(0 -0.000438743 0)
(0 -0.000423371 0)
(0 -0.000480786 0)
(0 -0.000784002 0)
(0 -0.000782566 0)
(0 -0.000462713 0)
(0 -0.000480816 0)
(0 -0.000764415 0)
(0 -0.000759732 0)
(0 -0.000764955 0)
(0 -0.000463065 0)
(0 -0.000479757 0)
(0 -0.00074365 0)
(0 -0.000735813 0)
(0 -0.00081658 0)
(0 -0.000798308 0)
(0 -0.000462265 0)
(0 -0.000478337 0)
(0 -0.000483029 0)
(0 -0.00047284 0)
(0 -0.000470005 0)
(0 -0.000460645 0)
(0 -0.000457399 0)
(0 -0.000448737 0)
(0 -0.00044499 0)
(0 -0.000436862 0)
(0 -0.00043343 0)
(0 -0.00042536 0)
(0 -0.000423308 0)
(0 -0.000414139 0)
(0 -0.000414937 0)
(0 -0.000412173 0)
(0 -0.00040354 0)
(0 -0.000407028 0)
(0 -0.000393054 0)
(0 -0.000397438 0)
(0 -0.000721181 0)
(0 -0.000710395 0)
(0 -0.000726356 0)
(0 -0.00069801 0)
(0 -0.000713732 0)
(0 -0.000683331 0)
(0 -0.000698216 0)
(0 -0.000666976 0)
(0 -0.000681145 0)
(0 -0.000648211 0)
(0 -0.000661269 0)
(0 -0.000627319 0)
(0 -0.000639753 0)
(0 -0.000604978 0)
(0 -0.000592495 0)
(0 -0.000570626 0)
(0 -0.000581963 0)
(0 -0.000547299 0)
(0 -0.000557514 0)
(0 -0.000523053 0)
(0 -0.000533023 0)
(0 -0.000499466 0)
(0 -0.000509303 0)
(0 -0.000475789 0)
(0 -0.000485299 0)
(0 -0.000451942 0)
(0 -0.000461437 0)
(0 -0.00042816 0)
(0 -0.000437885 0)
(0 -0.000405085 0)
(0 -0.000415385 0)
(0 -0.000382875 0)
(0 -0.000373306 0)
(0 -0.000351759 0)
(0 -0.000361445 0)
(0 -0.000330915 0)
(0 -0.000340795 0)
(0 -0.000310728 0)
(0 -0.0003017 0)
(0 -0.000282058 0)
(0 -0.000273811 0)
(0 -0.000290894 0)
(0 -0.000263033 0)
(0 -0.000271578 0)
(0 -0.000244758 0)
(0 -0.000253262 0)
(0 -0.000227294 0)
(0 -0.000235711 0)
(0 -0.000211013 0)
(0 -0.000195234 0)
(0 -0.000188885 0)
(0 -0.000466528 0)
(0 -0.000224353 0)
(0 -0.000192259 0)
(0 -0.000214042 0)
(0 -0.00024833 0)
(0 -0.000238091 0)
(0 -0.00020474 0)
(0 -0.000229159 0)
(0 -0.000196864 0)
(0 -0.000221824 0)
(0 -0.000190066 0)
(0 -0.000216006 0)
(0 -0.000185162 0)
(0 -0.000211861 0)
(0 -0.000182154 0)
(0 -0.000208193 0)
(0 -0.000180467 0)
(0 -0.000246526 0)
(0 -0.000205456 0)
(0 -0.000179569 0)
(0 -0.000204474 0)
(0 -0.000178346 0)
(0 -0.000205077 0)
(0 -0.000179385 0)
(0 -0.000207403 0)
(0 -0.000182604 0)
(0 -0.000235854 0)
(0 -0.000210982 0)
(0 -0.000186423 0)
(0 -0.000215977 0)
(0 -0.000192075 0)
(0 -0.000222559 0)
(0 -0.000199311 0)
(0 -0.000230308 0)
(0 -0.000207754 0)
(0 -0.000178018 0)
(0 -0.000187677 0)
(0 -0.000159873 0)
(0 -0.00016947 0)
(0 -0.000141156 0)
(0 -0.000154251 0)
(0 -0.000131652 0)
(0 -0.000143702 0)
(0 -0.000122101 0)
(0 -0.000133666 0)
(0 -0.000109666 0)
(0 -0.000123494 0)
(0 -0.000103429 0)
(0 -0.000115557 0)
(0 -9.72865e-05 0)
(0 -0.000109254 0)
(0 -9.16982e-05 0)
(0 -0.000103793 0)
(0 -8.5066e-05 0)
(0 -9.92058e-05 0)
(0 -8.39879e-05 0)
(0 -9.73389e-05 0)
(0 -8.26236e-05 0)
(0 -9.60099e-05 0)
(0 -8.16037e-05 0)
(0 -9.43993e-05 0)
(0 -8.09224e-05 0)
(0 -9.33036e-05 0)
(0 -8.0666e-05 0)
(0 -9.27969e-05 0)
(0 -8.09246e-05 0)
(0 -9.31724e-05 0)
(0 -8.17173e-05 0)
(0 -0.000110228 0)
(0 -9.40112e-05 0)
(0 -8.30564e-05 0)
(0 -0.000147686 0)
(0 -9.54535e-05 0)
(0 -8.49062e-05 0)
(0 -7.32589e-05 0)
(0 -7.55829e-05 0)
(0 -9.73061e-05 0)
(0 -6.45916e-05 0)
(0 -6.74526e-05 0)
(0 -0.00027452 0)
(0 -5.69305e-05 0)
(0 -6.01441e-05 0)
(0 -0.000216508 0)
(0 -0.00025553 0)
(0 -0.000105433 0)
(0 -6.9211e-05 0)
(0 -4.9971e-05 0)
(0 -5.26614e-05 0)
(0 -0.00015901 0)
(0 -6.45027e-05 0)
(0 -5.8923e-05 0)
(0 -6.99559e-05 0)
(0 -6.42955e-05 0)
(0 -5.39121e-05 0)
(0 -5.93515e-05 0)
(0 -4.92696e-05 0)
(0 -5.54122e-05 0)
(0 -0.000151661 0)
(0 -4.5663e-05 0)
(0 -5.2555e-05 0)
(0 -4.29683e-05 0)
(0 -5.03407e-05 0)
(0 -4.0067e-05 0)
(0 -4.86355e-05 0)
(0 -3.99965e-05 0)
(0 -4.84075e-05 0)
(0 -4.03775e-05 0)
(0 -4.97166e-05 0)
(0 -3.9785e-05 0)
(0 -5.16614e-05 0)
(0 -5.92085e-05 0)
(0 -0.000113073 0)
(0 -7.02828e-05 0)
(0 -4.32222e-05 0)
(0 -5.47572e-05 0)
(0 -6.38217e-05 0)
(0 -6.76826e-05 0)
(0 -7.69284e-05 0)
(0 -8.20471e-05 0)
(0 -0.000556523 0)
(0 -7.5698e-05 0)
(0 -9.10947e-05 0)
(0 -9.78826e-05 0)
(0 -0.00044883 0)
(0 -3.62687e-05 0)
(0 -4.70149e-05 0)
(0 -0.000108099 0)
(0 -0.000115619 0)
(0 -0.00066866 0)
(0 -0.000542385 0)
(0 -0.000127751 0)
(0 -0.000135203 0)
(0 -0.00038041 0)
(0 -0.000383261 0)
(0 -0.000460108 0)
(0 -0.000476962 0)
(0 -0.000440742 0)
(0 -0.000148201 0)
(0 -0.000142313 0)
(0 -0.000156292 0)
(0 -0.000793081 0)
(0 -0.000775056 0)
(0 -0.000104564 0)
(0 -0.000366326 0)
(0 -0.000370304 0)
(0 -0.000361183 0)
(0 -3.26241e-05 0)
(0 -0.000169753 0)
(0 -0.000178575 0)
(0 -0.000352317 0)
(0 -0.000357307 0)
(0 -0.000457267 0)
(0 -0.000476285 0)
(0 -0.000548677 0)
(0 -3.6493e-05 0)
(0 -4.04968e-05 0)
(0 -0.000764528 0)
(0 -0.000747075 0)
(0 -0.000558205 0)
(0 -3.05974e-05 0)
(0 -3.46017e-05 0)
(0 -2.55088e-05 0)
(0 -2.94326e-05 0)
(0 -2.15189e-05 0)
(0 -2.53975e-05 0)
(0 -1.81193e-05 0)
(0 -2.21795e-05 0)
(0 -3.00789e-05 0)
(0 -2.72374e-05 0)
(0 -3.58959e-05 0)
(0 -3.3325e-05 0)
(0 -2.48992e-05 0)
(0 -4.29231e-05 0)
(0 -3.11727e-05 0)
(0 -2.31964e-05 0)
(0 -2.93863e-05 0)
(0 -2.21574e-05 0)
(0 -1.48205e-05 0)
(0 -2.80745e-05 0)
(0 -2.13481e-05 0)
(0 -2.73528e-05 0)
(0 -2.08333e-05 0)
(0 -2.8049e-05 0)
(0 -2.05225e-05 0)
(0 -0.000192017 0)
(0 -0.000202563 0)
(0 -0.000338862 0)
(0 -0.000345495 0)
(0 -0.000363419 0)
(0 -0.000354494 0)
(0 -0.000454859 0)
(0 -0.000475749 0)
(0 -0.000565001 0)
(0 -0.000575151 0)
(0 -1.49734e-05 0)
(0 -1.48597e-05 0)
(0 -2.03471e-05 0)
(0 -1.50107e-05 0)
(0 -0.000335181 0)
(0 -0.000347332 0)
(0 -0.000368106 0)
(0 -0.000364157 0)
(0 -0.000386964 0)
(0 -0.000389993 0)
(0 -0.000411549 0)
(0 -0.000417318 0)
(0 -0.000394806 0)
(0 -0.000423848 0)
(0 -0.000448176 0)
(0 -0.000456949 0)
(0 -0.000479887 0)
(0 -0.000490374 0)
(0 -0.00046596 0)
(0 -0.000499786 0)
(0 -0.000522863 0)
(0 -0.00053226 0)
(0 -0.000554091 0)
(0 -0.000562927 0)
(0 -0.000584733 0)
(0 -0.000593048 0)
(0 -0.000615699 0)
(0 -0.000624179 0)
(0 -0.000598486 0)
(0 -0.00063038 0)
(0 -0.000657296 0)
(0 -0.000665738 0)
(0 -0.000692995 0)
(0 -0.000704874 0)
(0 -0.000731549 0)
(0 -0.000474176 0)
(0 -0.000715768 0)
(0 -0.000215387 0)
(0 -0.000228135 0)
(0 -0.000432143 0)
(0 -1.62176e-05 0)
(0 -0.000730787 0)
(0 -0.00071479 0)
(0 -0.000729849 0)
(0 -0.000698101 0)
(0 -0.000711364 0)
(0 -0.000679939 0)
(0 -0.000693344 0)
(0 -0.000661677 0)
(0 -0.000675593 0)
(0 -0.000644055 0)
(0 -0.000673762 0)
(0 -0.000327286 0)
(0 -3.425e-05 0)
(0 -0.000239833 0)
(0 -0.000254364 0)
(0 -2.07385e-05 0)
(0 -1.5456e-05 0)
(0 -0.000265434 0)
(0 -0.000281338 0)
(0 -0.000292073 0)
(0 -1.00967e-05 0)
(0 -0.000309115 0)
(0 -0.000319702 0)
(0 -0.000452138 0)
(0 -0.000434673 0)
(0 -0.000412794 0)
(0 -0.000405667 0)
(0 -0.00038314 0)
(0 -0.00037336 0)
(0 -0.000350978 0)
(0 -0.000339728 0)
(0 -0.000318119 0)
(0 -0.000329526 0)
(0 -0.000297098 0)
(0 -0.000308831 0)
(0 -0.000274978 0)
(0 -0.000286121 0)
(0 -0.000306779 0)
(0 -0.000327336 0)
(0 -0.000583222 0)
(0 -0.000593234 0)
(0 -0.000601875 0)
(0 -0.000656727 0)
(0 -0.000625441 0)
(0 -0.000429317 0)
(0 -0.000420265 0)
(0 -0.000207299 0)
(0 -4.71578e-05 0)
(0 -0.000337555 0)
(0 -0.000572952 0)
(0 -0.000250497 0)
(0 -0.000259354 0)
(0 -0.000349114 0)
(0 -0.000692372 0)
(0 -0.00064245 0)
(0 -0.000593105 0)
(0 -0.000164185 0)
(0 -0.000243066 0)
(0 -2.15004e-05 0)
(0 -1.63291e-05 0)
(0 -1.0626e-05 0)
(0 -1.21371e-05 0)
(0 -1.73701e-05 0)
(0 -0.000108706 0)
(0 -0.00011019 0)
(0 -0.000122624 0)
(0 -0.000123767 0)
(0 -0.000137095 0)
(0 -0.000138285 0)
(0 -0.000152355 0)
(0 -0.00015357 0)
(0 -0.00016849 0)
(0 -0.000169878 0)
(0 -0.000185411 0)
(0 -0.000184878 0)
(0 -0.000187377 0)
(0 -0.000172622 0)
(0 -0.000202234 0)
(0 -0.000202993 0)
(0 -0.000191677 0)
(0 -0.000177007 0)
(0 -0.000220714 0)
(0 -0.000222878 0)
(0 -0.000196516 0)
(0 -0.000182327 0)
(0 -0.000432382 0)
(0 -0.000426625 0)
(0 -2.73995e-05 0)
(0 -0.000348269 0)
(0 -0.000366451 0)
(0 -0.000294924 0)
(0 -0.000313894 0)
(0 -0.000602506 0)
(0 -0.000588466 0)
(0 -0.000611246 0)
(0 -0.000438784 0)
(0 -0.000223332 0)
(0 -0.00022966 0)
(0 -0.000424323 0)
(0 -0.000400051 0)
(0 -0.000707357 0)
(0 -0.000240883 0)
(0 -0.000243928 0)
(0 -0.000377018 0)
(0 -0.000395794 0)
(0 -0.000201407 0)
(0 -0.000188812 0)
(0 -0.000281982 0)
(0 -0.000299405 0)
(0 -0.000195012 0)
(0 -0.000199724 0)
(0 -0.0006367 0)
(0 -0.000663509 0)
(0 -0.000605437 0)
(0 -0.000589583 0)
(0 -0.000663215 0)
(0 -0.000621524 0)
(0 -0.000331091 0)
(0 -0.00056881 0)
(0 -0.000642814 0)
(0 -0.000405287 0)
(0 -0.000425072 0)
(0 -0.0004154 0)
(0 -7.92692e-06 0)
(0 -1.31465e-05 0)
(0 -9.72605e-06 0)
(0 -1.57053e-05 0)
(0 -1.20353e-05 0)
(0 -2.0056e-05 0)
(0 -1.48651e-05 0)
(0 -2.22959e-05 0)
(0 -1.78203e-05 0)
(0 -1.13574e-05 0)
(0 -1.43438e-05 0)
(0 -2.13254e-05 0)
(0 -1.775e-05 0)
(0 -1.14515e-05 0)
(0 -1.46678e-05 0)
(0 -8.91619e-06 0)
(0 -1.1958e-05 0)
(0 -1.83975e-05 0)
(0 -1.56905e-05 0)
(0 -9.68742e-06 0)
(0 -1.33879e-05 0)
(0 -2.00039e-05 0)
(0 -1.75525e-05 0)
(0 -1.14417e-05 0)
(0 -1.54808e-05 0)
(0 -9.89317e-06 0)
(0 -1.37833e-05 0)
(0 -8.70362e-06 0)
(0 -1.26317e-05 0)
(0 -7.84584e-06 0)
(0 -1.19915e-05 0)
(0 -7.3339e-06 0)
(0 -1.17495e-05 0)
(0 -7.24295e-06 0)
(0 -1.17909e-05 0)
(0 -6.89583e-06 0)
(0 -1.22246e-05 0)
(0 -8.22821e-06 0)
(0 -1.71394e-05 0)
(0 -1.32857e-05 0)
(0 -9.54459e-06 0)
(0 -1.47665e-05 0)
(0 -1.11177e-05 0)
(0 -2.49435e-05 0)
(0 -1.74742e-05 0)
(0 -2.26165e-05 0)
(0 -6.53267e-06 0)
(0 -8.15429e-06 0)
(0 -4.17672e-06 0)
(0 -5.85197e-06 0)
(0 -2.35352e-06 0)
(0 -3.94309e-06 0)
(0 -8.97975e-07 0)
(0 -2.45346e-06 0)
(0 4.26484e-07 0)
(0 -1.38029e-06 0)
(0 7.92612e-07 0)
(0 -6.57896e-07 0)
(0 1.30383e-06 0)
(0 -1.29085e-07 0)
(0 1.71406e-06 0)
(0 2.79633e-07 0)
(0 2.02448e-06 0)
(0 6.00728e-07 0)
(0 2.26425e-06 0)
(0 9.11332e-07 0)
(0 2.4663e-06 0)
(0 1.10713e-06 0)
(0 2.5815e-06 0)
(0 1.24276e-06 0)
(0 2.60793e-06 0)
(0 1.30778e-06 0)
(0 2.63484e-06 0)
(0 1.35105e-06 0)
(0 2.88745e-06 0)
(0 1.45003e-06 0)
(0 2.7045e-06 0)
(0 -2.65601e-07 0)
(0 1.38586e-06 0)
(0 2.56858e-06 0)
(0 1.16357e-06 0)
(0 2.41865e-06 0)
(0 -1.81317e-06 0)
(0 9.33892e-07 0)
(0 2.20798e-06 0)
(0 -4.48145e-06 0)
(0 6.51374e-07 0)
(0 1.90409e-06 0)
(0 -3.7439e-07 0)
(0 3.07797e-07 0)
(0 1.58464e-06 0)
(0 -1.02869e-05 0)
(0 -1.2823e-06 0)
(0 -1.58984e-07 0)
(0 1.18184e-06 0)
(0 3.19792e-06 0)
(0 -0.000432996 0)
(0 -0.000454148 0)
(0 -0.000436885 0)
(0 -0.000428831 0)
(0 -5.09802e-06 0)
(0 -7.78065e-07 0)
(0 6.06087e-07 0)
(0 -0.000267859 0)
(0 -0.000282749 0)
(0 -0.000168462 0)
(0 -0.000548319 0)
(0 -0.000526636 0)
(0 3.84976e-06 0)
(0 -0.000214064 0)
(0 -0.000250957 0)
(0 2.33828e-06 0)
(0 1.8131e-06 0)
(0 -5.49724e-06 0)
(0 3.71081e-06 0)
(0 -0.000392833 0)
(0 -0.000368715 0)
(0 -0.00049607 0)
(0 -0.000801504 0)
(0 -0.00026226 0)
(0 -0.000265945 0)
(0 -0.000247378 0)
(0 -0.000270455 0)
(0 -0.000251634 0)
(0 -0.000275958 0)
(0 -0.000257146 0)
(0 -0.000282925 0)
(0 -0.000264263 0)
(0 -0.000291573 0)
(0 -0.000272758 0)
(0 -0.000301388 0)
(0 -0.00032016 0)
(0 -0.000330552 0)
(0 -0.000312967 0)
(0 -0.000346947 0)
(0 -0.000326158 0)
(0 -0.000358522 0)
(0 -0.00034065 0)
(0 -0.000375002 0)
(0 -0.000357672 0)
(0 -0.00039335 0)
(0 -0.000377229 0)
(0 -0.000415609 0)
(0 -0.000398973 0)
(0 -0.000440516 0)
(0 -0.000423423 0)
(0 -0.000468378 0)
(0 -0.000452819 0)
(0 -0.000499618 0)
(0 -0.000483533 0)
(0 -0.000349625 0)
(0 -0.000453688 0)
(0 -0.000208126 0)
(0 -0.000196856 0)
(0 -0.000380028 0)
(0 -0.000677314 0)
(0 -0.000172456 0)
(0 -0.000201213 0)
(0 -0.000449589 0)
(0 -0.000460345 0)
(0 -0.000482378 0)
(0 -0.000327345 0)
(0 -0.000259034 0)
(0 -0.000581835 0)
(0 -0.000145514 0)
(0 -0.000628209 0)
(0 -0.000216929 0)
(0 -3.72221e-06 0)
(0 3.39378e-06 0)
(0 -0.000394311 0)
(0 -4.10386e-05 0)
(0 -3.82241e-05 0)
(0 -0.000251204 0)
(0 -0.000263075 0)
(0 -1.22558e-07 0)
(0 1.13801e-06 0)
(0 -0.000172476 0)
(0 -0.000295473 0)
(0 -0.000502148 0)
(0 -0.000481089 0)
(0 -0.000665644 0)
(0 -0.000645215 0)
(0 3.27252e-06 0)
(0 3.67577e-07 0)
(0 -0.00043793 0)
(0 -0.000428993 0)
(0 -0.000422627 0)
(0 -0.000448925 0)
(0 -0.000177688 0)
(0 -0.000187251 0)
(0 -0.000206245 0)
(0 -0.000197753 0)
(0 -0.000179404 0)
(0 -0.000191002 0)
(0 -0.000173418 0)
(0 -0.000186388 0)
(0 2.503e-06 0)
(0 -0.000274734 0)
(0 -0.000281129 0)
(0 -0.000174409 0)
(0 -0.000200583 0)
(0 -0.000307365 0)
(0 -0.000359466 0)
(0 -0.00033673 0)
(0 -4.56799e-05 0)
(0 -5.38227e-05 0)
(0 -0.000169478 0)
(0 -0.000183963 0)
(0 -0.000571351 0)
(0 -0.000358775 0)
(0 -0.000231576 0)
(0 -0.000242268 0)
(0 -0.000501216 0)
(0 -0.000640639 0)
(0 -0.000273416 0)
(0 -0.000253122 0)
(0 -0.000221198 0)
(0 -0.000233139 0)
(0 -1.09725e-06 0)
(0 1.7966e-07 0)
(0 -0.000587948 0)
(0 -0.000575568 0)
(0 -0.00044991 0)
(0 -0.000464121 0)
(0 -0.000422482 0)
(0 -0.000418013 0)
(0 -0.000139863 0)
(0 -0.000487466 0)
(0 -0.000509425 0)
(0 -0.000453313 0)
(0 -0.000435016 0)
(0 -0.0004707 0)
(0 -0.0002777 0)
(0 -0.000494002 0)
(0 -0.000120747 0)
(0 -3.31351e-05 0)
(0 -3.0349e-05 0)
(0 -0.000414678 0)
(0 -0.000345385 0)
(0 -0.00031487 0)
(0 -0.000217032 0)
(0 -0.000238394 0)
(0 -0.000863138 0)
(0 -0.000296316 0)
(0 -0.000416908 0)
(0 -0.000442064 0)
(0 -0.000300656 0)
(0 -0.000201064 0)
(0 -0.000200018 0)
(0 -0.000506164 0)
(0 -0.000532791 0)
(0 -0.00066443 0)
(0 -0.000644872 0)
(0 -0.000124895 0)
(0 -0.000883171 0)
(0 -0.000625536 0)
(0 -0.000626092 0)
(0 -0.000199084 0)
(0 -0.0002132 0)
(0 -0.00017445 0)
(0 -0.000465078 0)
(0 -0.000480823 0)
(0 -0.000302732 0)
(0 -0.000282086 0)
(0 -3.58356e-05 0)
(0 -2.81553e-05 0)
(0 -0.000516637 0)
(0 -0.000337948 0)
(0 -0.000684533 0)
(0 -2.35493e-06 0)
(0 -3.98383e-06 0)
(0 -1.05738e-06 0)
(0 1.2676e-06 0)
(0 -0.000598773 0)
(0 -0.00024793 0)
(0 -0.000229344 0)
(0 -0.000193124 0)
(0 -0.000210636 0)
(0 -0.00016732 0)
(0 -0.000679776 0)
(0 -1.90997e-08 0)
(0 2.06711e-06 0)
(0 -2.54204e-06 0)
(0 -0.000506186 0)
(0 -5.68921e-05 0)
(0 -6.605e-05 0)
(0 -0.000532038 0)
(0 -0.000519555 0)
(0 -6.32331e-05 0)
(0 -7.63931e-05 0)
(0 -7.3991e-05 0)
(0 -8.81117e-05 0)
(0 -9.08686e-05 0)
(0 -0.000103649 0)
(0 -0.000106527 0)
(0 -0.000120652 0)
(0 -8.60186e-05 0)
(0 -0.000123269 0)
(0 -0.0001389 0)
(0 -0.000141407 0)
(0 -0.000158309 0)
(0 -0.000161136 0)
(0 -0.000178347 0)
(0 -0.000182454 0)
(0 -0.00020227 0)
(0 -0.000652153 0)
(0 -0.000173488 0)
(0 -0.000192257 0)
(0 5.23562e-07 0)
(0 2.65986e-06 0)
(0 3.65577e-06 0)
(0 4.08369e-06 0)
(0 3.13957e-06 0)
(0 4.38568e-06 0)
(0 3.36244e-06 0)
(0 4.51621e-06 0)
(0 3.40253e-06 0)
(0 4.49287e-06 0)
(0 3.2844e-06 0)
(0 4.30368e-06 0)
(0 2.98475e-06 0)
(0 3.95407e-06 0)
(0 2.50029e-06 0)
(0 3.48926e-06 0)
(0 4.77983e-06 0)
(0 -0.000136818 0)
(0 -0.000404082 0)
(0 -0.000388854 0)
(0 -0.000114302 0)
(0 -0.000406921 0)
(0 -0.000513752 0)
(0 -0.000205196 0)
(0 -0.000226308 0)
(0 -2.5925e-05 0)
(0 -0.000443088 0)
(0 -0.000217386 0)
(0 -0.000217386 0)
(0 -0.00029711 0)
(0 -0.000321505 0)
(0 -0.000417236 0)
(0 -0.000414627 0)
(0 -0.000153017 0)
(0 -3.40766e-05 0)
(0 -2.65006e-05 0)
(0 -0.00033192 0)
(0 -9.78468e-05 0)
(0 -0.000104033 0)
(0 -0.000384543 0)
(0 -0.000396667 0)
(0 -8.51018e-05 0)
(0 -0.000229278 0)
(0 -0.000251373 0)
(0 -0.00025505 0)
(0 -0.00027821 0)
(0 -0.000150907 0)
(0 -0.000415978 0)
(0 -0.000531551 0)
(0 -0.00055809 0)
(0 1.88558e-06 0)
(0 2.92135e-06 0)
(0 4.26957e-06 0)
(0 3.72431e-06 0)
(0 4.84538e-06 0)
(0 4.32552e-06 0)
(0 5.89045e-07 0)
(0 5.30314e-06 0)
(0 4.78881e-06 0)
(0 -0.000774984 0)
(0 -0.000266485 0)
(0 -0.000247306 0)
(0 -0.000481132 0)
(0 -0.000497934 0)
(0 -0.000323272 0)
(0 -0.000493181 0)
(0 -0.00026717 0)
(0 -0.000497042 0)
(0 -0.000697922 0)
(0 -0.000689654 0)
(0 -3.22851e-05 0)
(0 -2.52834e-05 0)
(0 3.7761e-06 0)
(0 4.2947e-06 0)
(0 5.13762e-06 0)
(0 4.72174e-06 0)
(0 3.72782e-06 0)
(0 4.17157e-06 0)
(0 5.17545e-06 0)
(0 4.60074e-06 0)
(0 -0.000729492 0)
(0 -0.000337501 0)
(0 -0.000354186 0)
(0 -0.000411961 0)
(0 -0.000373996 0)
(0 -0.000315344 0)
(0 -0.000336987 0)
(0 3.42564e-06 0)
(0 3.89015e-06 0)
(0 4.94367e-06 0)
(0 4.30835e-06 0)
(0 -0.000478286 0)
(0 -0.000501779 0)
(0 -3.04846e-05 0)
(0 -2.42102e-05 0)
(0 -2.9228e-05 0)
(0 -2.31296e-05 0)
(0 -2.82562e-05 0)
(0 -2.21585e-05 0)
(0 -2.75885e-05 0)
(0 -2.16387e-05 0)
(0 -2.73035e-05 0)
(0 -1.99135e-05 0)
(0 -0.000282067 0)
(0 -0.000306697 0)
(0 -0.000473707 0)
(0 -0.000461255 0)
(0 -8.28173e-05 0)
(0 -8.9301e-05 0)
(0 -0.000816188 0)
(0 9.81291e-07 0)
(0 2.99163e-06 0)
(0 3.47513e-06 0)
(0 4.66684e-06 0)
(0 3.89271e-06 0)
(0 4.94134e-06 0)
(0 4.2087e-06 0)
(0 -0.000426372 0)
(0 -0.000136619 0)
(0 5.3124e-06 0)
(0 -6.95804e-05 0)
(0 -0.000518163 0)
(0 -0.000421036 0)
(0 -0.000415044 0)
(0 -0.000775339 0)
(0 -0.000742883 0)
(0 -0.000154487 0)
(0 -0.000174955 0)
(0 -0.0002113 0)
(0 -0.000196228 0)
(0 1.93827e-06 0)
(0 -0.000326293 0)
(0 -0.000628171 0)
(0 -0.000309708 0)
(0 -0.000740683 0)
(0 -0.00070987 0)
(0 -0.000712203 0)
(0 -0.000680853 0)
(0 -0.000684144 0)
(0 -0.000653895 0)
(0 -0.000657232 0)
(0 -0.000628645 0)
(0 -0.000624027 0)
(0 -0.000631342 0)
(0 -0.000605789 0)
(0 -0.000134674 0)
(0 -0.000150205 0)
(0 -0.000136318 0)
(0 5.11135e-06 0)
(0 -0.000825103 0)
(0 -0.000157484 0)
(0 -0.000179603 0)
(0 -0.000404988 0)
(0 -7.56415e-05 0)
(0 -2.13248e-05 0)
(0 -2.7256e-05 0)
(0 -9.11877e-05 0)
(0 -0.000106907 0)
(0 -0.000277085 0)
(0 -0.00029837 0)
(0 -0.000215867 0)
(0 -0.00020052 0)
(0 -0.000234937 0)
(0 -0.000236036 0)
(0 -0.000219058 0)
(0 -0.000239101 0)
(0 -0.000235808 0)
(0 -0.000608286 0)
(0 -0.000335691 0)
(0 -0.000337131 0)
(0 -2.09304e-05 0)
(0 -0.00035457 0)
(0 -0.000342293 0)
(0 -0.000851369 0)
(0 -0.000143918 0)
(0 -0.000705737 0)
(0 -0.000694706 0)
(0 -0.000148178 0)
(0 -0.000495977 0)
(0 -0.000220055 0)
(0 5.33471e-06 0)
(0 3.58414e-06 0)
(0 -0.00031767 0)
(0 -0.000343688 0)
(0 -0.000294577 0)
(0 -0.000162546 0)
(0 -0.000182952 0)
(0 -0.000136161 0)
(0 -2.20149e-05 0)
(0 -0.000465307 0)
(0 -0.000377294 0)
(0 -0.000332427 0)
(0 -0.0006101 0)
(0 -0.00066529 0)
(0 -0.000510768 0)
(0 -3.91254e-06 0)
(0 -0.000342901 0)
(0 -0.000218925 0)
(0 -0.000201083 0)
(0 -0.000164923 0)
(0 -0.000182318 0)
(0 -6.38223e-06 0)
(0 -0.000140171 0)
(0 -8.59753e-05 0)
(0 -0.000157723 0)
(0 -0.000228301 0)
(0 -0.00041305 0)
(0 -0.000423844 0)
(0 -0.000398986 0)
(0 -0.000446112 0)
(0 -0.000383785 0)
(0 5.38895e-06 0)
(0 -0.000368673 0)
(0 -0.000517914 0)
(0 -0.000519915 0)
(0 -0.000720437 0)
(0 -0.00069584 0)
(0 -0.000706831 0)
(0 -0.000682397 0)
(0 -0.000174723 0)
(0 -0.000728694 0)
(0 -1.71977e-05 0)
(0 -3.39617e-05 0)
(0 -3.42671e-05 0)
(0 -2.75743e-05 0)
(0 -3.49512e-05 0)
(0 -0.000238736 0)
(0 -0.000259198 0)
(0 -0.000317514 0)
(0 -0.000276907 0)
(0 -0.000329312 0)
(0 -0.000289099 0)
(0 -0.000238687 0)
(0 -0.000252189 0)
(0 -0.000206217 0)
(0 -0.000296133 0)
(0 -0.000364312 0)
(0 -0.000365035 0)
(0 -1.66011e-05 0)
(0 -2.09249e-05 0)
(0 -2.31881e-05 0)
(0 -2.83532e-05 0)
(0 -3.10049e-05 0)
(0 -3.70411e-05 0)
(0 -3.97056e-05 0)
(0 -3.46038e-05 0)
(0 -4.4298e-05 0)
(0 -4.21337e-05 0)
(0 -5.26908e-05 0)
(0 -5.13905e-05 0)
(0 -6.47013e-05 0)
(0 -6.22732e-05 0)
(0 -0.000160699 0)
(0 -5.04149e-05 0)
(0 -6.18686e-05 0)
(0 -2.83402e-05 0)
(0 -3.61104e-05 0)
(0 -0.000703929 0)
(0 5.55854e-06 0)
(0 -0.000419341 0)
(0 -0.000498688 0)
(0 -0.000552624 0)
(0 -0.000462979 0)
(0 -5.18589e-05 0)
(0 -0.000464118 0)
(0 -0.000595095 0)
(0 -5.03962e-05 0)
(0 -6.23316e-05 0)
(0 -0.000633506 0)
(0 -0.000198569 0)
(0 -0.000171983 0)
(0 -0.000227789 0)
(0 -0.000282155 0)
(0 -0.000300769 0)
(0 -0.000314363 0)
(0 -2.95231e-05 0)
(0 -2.21504e-05 0)
(0 -5.80074e-05 0)
(0 -4.46805e-06 0)
(0 -2.44828e-06 0)
(0 -1.14026e-06 0)
(0 4.84152e-07 0)
(0 1.42083e-06 0)
(0 2.6009e-06 0)
(0 3.31416e-06 0)
(0 4.16694e-06 0)
(0 3.46101e-06 0)
(0 4.63868e-06 0)
(0 3.88173e-06 0)
(0 5.01132e-06 0)
(0 4.34204e-06 0)
(0 5.30624e-06 0)
(0 4.69587e-06 0)
(0 4.8539e-06 0)
(0 4.4559e-06 0)
(0 -3.45402e-07 0)
(0 5.58093e-06 0)
(0 5.53278e-06 0)
(0 4.96673e-06 0)
(0 -2.53792e-05 0)
(0 -0.000426842 0)
(0 -0.000461096 0)
(0 -0.000362116 0)
(0 -0.000348148 0)
(0 -0.000373745 0)
(0 4.3779e-06 0)
(0 5.24747e-06 0)
(0 -1.99248e-07 0)
(0 -0.000385043 0)
(0 -0.00017564 0)
(0 -0.00037666 0)
(0 -0.000286636 0)
(0 -0.000247452 0)
(0 -0.000267092 0)
(0 -0.000300109 0)
(0 -0.000460471 0)
(0 -0.000149044 0)