/*--------------------------------*- C++ -*----------------------------------*\
| =========                 |                                                 |
| \\      /  F ield         | OpenFOAM: The Open Source CFD Toolbox           |
|  \\    /   O peration     | Version:  v2012                                 |
|   \\  /    A nd           | Website:  www.openfoam.com                      |
|    \\/     M anipulation  |                                                 |
\*---------------------------------------------------------------------------*/
FoamFile
{
    version     2.0;
    format      ascii;
    class       volVectorField;
    location    "150";
    object      U;
}
// * * * * * * * * * * * * * * * * * * * * * * * * * * * * * * * * * * * * * //

dimensions      [0 1 -1 0 0 0 0];


internalField   nonuniform List<vector> 
9793
(
(0.961854 -0.0146528 -1.38283e-20)
(-0.20698 -0.00446753 -1.18181e-19)
(0.992195 -0.0068666 1.11036e-20)
(-0.0400476 0.12647 -4.3556e-20)
(0.999949 -0.00046353 -5.24438e-22)
(1.23259 -0.04778 6.68015e-20)
(1.11152 -0.236514 -2.57092e-20)
(-0.115091 0.0525462 0)
(1.02117 -0.0383579 0)
(-0.0776136 -0.0051032 1.14819e-19)
(1.00002 -0.00174572 9.01212e-21)
(1.00001 -0.00188982 -1.18318e-21)
(1.00202 -0.00937593 3.90686e-21)
(-0.0496027 0.137525 9.49466e-20)
(1.01996 -0.0224691 7.29786e-22)
(1.07166 -0.00143073 -4.83035e-21)
(1.14015 -0.0791517 0)
(0.994374 -0.00913266 -1.03736e-20)
(-0.0762391 -0.0633753 1.32007e-19)
(1.01749 -0.0047765 -6.61548e-23)
(1.02339 -0.00943628 1.70229e-21)
(0.999995 -0.000119784 0)
(-0.039118 0.172962 6.04565e-20)
(-0.105905 0.050154 0)
(-0.0186828 0.133457 5.21097e-20)
(0.920238 -0.0550882 1.44612e-20)
(0.999921 -0.0034304 0)
(1.00002 -0.000467318 -1.06844e-20)
(1.01736 -0.00504863 -1.51015e-22)
(1.15917 -0.150241 0)
(-0.292349 0.018166 7.67623e-20)
(1.26453 -0.0682534 8.74335e-20)
(0.996376 -0.00360434 0)
(0.997107 -0.00930393 -3.91585e-21)
(1.00539 -0.000549605 1.0561e-22)
(1.08514 -0.0356347 -2.43672e-20)
(1.06498 -0.0069516 3.65024e-20)
(0.915367 0.00573874 -3.83044e-20)
(-0.156486 0.062074 -1.2434e-19)
(1.07952 -0.0775023 3.17746e-21)
(1.1494 -0.147097 5.49496e-20)
(0.883955 0.0198678 6.87013e-20)
(-0.110443 0.0110659 7.53141e-20)
(1.00002 -0.000336052 1.23582e-20)
(0.99231 -0.000535819 2.81974e-20)
(0.996609 0.000100239 7.9374e-21)
(-0.227931 0.0438739 2.22218e-19)
(1.00001 -0.000285944 -8.09998e-23)
(1.03203 -0.00712557 7.37174e-21)
(0.994139 -0.00861897 -1.06578e-20)
(1.08527 -0.032708 -2.00603e-20)
(1.00579 -0.000677112 4.10851e-21)
(1.10828 -0.0531208 0)
(0.999998 -0.000562425 0)
(0.90062 -0.116375 -2.26126e-20)
(-0.0477311 0.121003 0)
(1.00234 -0.00849008 0)
(1.16271 0.00781673 -5.43438e-20)
(1.0319 -0.00788845 1.05099e-22)
(1.00001 -0.000153561 7.95627e-21)
(0.900115 -0.0131479 -3.67926e-20)
(0.829683 -0.326053 3.66356e-20)
(0.993852 -0.00668093 0)
(1.09671 -0.00725538 2.22088e-20)
(1.00286 -0.00128547 -2.40825e-21)
(1.02036 -0.0367209 0)
(-0.194442 0.0253612 -1.49896e-19)
(1.05457 -0.0485076 0)
(1.06656 -0.00394077 -1.6788e-20)
(0.00525632 -0.00557117 0)
(0.978584 -0.0102867 1.51864e-20)
(0.585726 0.037548 -3.77066e-20)
(-0.151638 0.0588264 1.72961e-19)
(0.435931 0.180889 5.33945e-21)
(0.0991859 0.0302847 0)
(0.999984 -0.000704658 0)
(0.799297 -0.12683 9.40369e-20)
(0.709932 0.0151391 1.84931e-19)
(0.994616 -0.00360898 1.64756e-20)
(0.999979 -0.000459751 -9.61632e-21)
(0.783554 -0.12899 -9.66603e-20)
(-0.0789764 -0.0606239 -5.64181e-20)
(1.13549 -0.0734339 8.85658e-21)
(0.979574 -0.0693764 -4.10098e-21)
(1.06693 -0.00575965 -3.57094e-20)
(1.2463 -0.169742 3.75973e-21)
(0.999961 -0.000561915 -7.17311e-23)
(1.12108 0.0250056 0)
(-0.162913 0.0701279 6.23179e-20)
(0.815291 -0.307161 -3.50054e-20)
(-0.0535454 0.147706 -1.03256e-19)
(1.34522 -0.201449 1.62474e-19)
(1.34111 -0.213305 7.04088e-20)
(1.08759 -0.126296 -2.11112e-20)
(-0.102311 -0.0046784 -6.32856e-20)
(0.99591 -0.0126769 -8.53743e-21)
(0.140179 0.0290458 9.92576e-20)
(1.13032 -0.0984713 2.3508e-21)
(1.04176 -0.0683761 -1.47778e-20)
(0.999969 -0.000396036 0)
(-0.122878 0.115112 -2.99435e-20)
(1.10412 -0.0534408 0)
(-0.111081 0.136866 -7.92965e-20)
(0.992853 -0.000504951 -1.43568e-20)
(0.0021794 0.078152 5.44886e-20)
(0.408928 0.0413933 2.4758e-19)
(0.543323 0.154502 0)
(1.0046 -0.00728777 4.03897e-21)
(0.994622 -0.00319759 -1.0838e-20)
(0.999987 -0.000212747 0)
(1.00009 -0.000935065 0)
(-0.0449328 0.164426 -1.10993e-19)
(0.0923251 -0.101666 -2.6744e-19)
(-0.282261 0.0119978 0)
(0.979484 -0.0108556 6.52975e-21)
(0.999031 -0.00231573 1.76774e-20)
(1.05909 0.00533567 -9.57027e-21)
(0.996909 -0.000742763 0)
(-0.0627738 0.105472 -8.36995e-20)
(0.996046 0.000544193 -2.21876e-20)
(-0.0754929 0.0959337 0)
(1.12686 0.0268427 -5.16871e-20)
(0.310141 0.0388325 1.99947e-20)
(1.11974 -0.0333859 0)
(1.06526 -0.0089939 1.12961e-20)
(0.996263 0.000712854 1.72632e-20)
(1.14776 -0.0930096 -4.56603e-20)
(-0.273442 0.0186882 0)
(1.12078 0.0894694 -9.87149e-20)
(1.11241 0.0909213 8.89383e-20)
(1.06046 -0.0243089 0)
(1.00692 -0.0148246 -1.86389e-21)
(0.963609 -0.0157849 -2.49339e-20)
(1.04913 -0.0432243 -6.8858e-21)
(1.07989 -0.0374975 0)
(1.1848 -0.241866 -8.0224e-21)
(1.26927 -0.00591274 8.18556e-20)
(1.05995 0.0037582 1.14411e-20)
(1 -0.000527664 -1.78585e-21)
(1.15433 -0.0678367 3.3484e-20)
(-0.0776092 -0.0553175 -1.18327e-19)
(1.08321 -0.0373278 5.27833e-20)
(0.984291 -0.0193053 -4.97042e-21)
(1.11643 0.0120293 1.17217e-20)
(-0.214163 0.0458529 0)
(1.12363 -0.449968 -9.36559e-20)
(0.996313 0.0013227 -1.97758e-20)
(0.12287 0.0277222 -1.25518e-19)
(1.00662 -0.0152009 2.23194e-21)
(0.996124 0.00111562 2.3606e-20)
(0.99906 -0.00375009 -1.01173e-20)
(0.105854 -0.0489906 -1.83187e-19)
(1.03957 -0.0655608 2.38362e-20)
(0.999846 -0.00342494 0)
(0.985403 -0.00310048 -3.02308e-20)
(1.34354 -0.247058 1.2416e-19)
(1.14673 -0.0770497 -5.5482e-21)
(0.993877 -0.00727984 -9.54126e-21)
(1.27915 -0.0651525 -1.09037e-19)
(0.984395 -0.0112582 2.6085e-20)
(1.12132 0.0183057 -2.42236e-20)
(1.0618 -0.0261643 0)
(1.02311 -0.00991351 -1.93775e-21)
(0.579403 -0.415204 9.54784e-20)
(1.03993 -0.0172663 -8.06503e-21)
(0.935098 -0.0119677 5.04754e-21)
(-0.0744527 0.0946218 -4.51921e-20)
(1.04236 -0.0212855 -1.54199e-20)
(1.00464 -0.00667261 1.39126e-21)
(0.999988 -0.00142877 -7.77401e-21)
(0.983313 -0.0187461 6.02964e-21)
(-0.2128 0.0023091 -2.88225e-19)
(0.306863 -0.169975 1.10418e-19)
(-0.226347 0.154391 0)
(1.00228 -0.00980612 -4.19173e-21)
(1.22521 -0.0451238 5.4799e-20)
(1.01191 -0.360957 2.28013e-20)
(0.544896 -0.513076 0)
(0.994139 -0.00454988 0)
(1.05626 -0.0438192 -9.21285e-21)
(0.0572537 0.0866805 -8.91506e-20)
(-0.229732 0.040361 -1.23193e-19)
(1.12685 0.0323327 7.36499e-20)
(0.996284 7.3764e-07 9.20809e-21)
(0.997547 -0.000269254 -3.59181e-23)
(1.00483 -0.00707778 3.44646e-21)
(0.426533 0.0487541 -1.2281e-19)
(-0.172565 0.0551213 -1.79528e-19)
(0.804775 -0.389501 0)
(-0.11036 0.167417 4.16995e-20)
(1.01823 -0.0346893 3.36646e-22)
(-0.0993693 0.327771 -1.45591e-19)
(0.39692 -0.14031 -2.75153e-19)
(0.91303 -0.017455 0)
(1.0341 -0.00455613 -6.16394e-21)
(0.960519 -0.0491667 0)
(0.178891 0.107859 3.04511e-20)
(1.01515 -0.00494902 -7.75395e-22)
(0.99414 -0.00956721 1.33003e-20)
(0.999751 -0.00121589 0)
(0.976124 -0.0105776 1.45437e-20)
(1.0256 -0.0085203 -7.9361e-22)
(1.08863 -0.0281092 -2.34309e-20)
(1.06998 -0.0199422 8.42423e-22)
(-0.0836182 0.0219881 5.00156e-20)
(0.982107 -0.00187399 0)
(1.07018 -0.0711168 0)
(1.04355 -0.0201503 1.87064e-21)
(0.969103 -0.0275569 9.64907e-21)
(0.792897 -0.552012 3.08042e-21)
(1.14825 -0.0687383 -3.95861e-20)
(-0.077371 -0.0529507 0)
(1.01343 -0.0046722 -1.62737e-21)
(-0.0210308 -0.0137492 0)
(0.97515 -0.0694131 5.28389e-21)
(1.08448 0.0176896 8.84643e-21)
(1.01996 -0.023464 1.00535e-21)
(1.18922 -0.230189 -9.03934e-20)
(0.999133 -0.0021543 1.12357e-20)
(0.740779 -0.0455367 -4.95594e-20)
(1.13681 -0.0990718 -6.0204e-20)
(1.02551 -0.00901131 -3.93608e-21)
(0.370997 0.46778 7.42316e-20)
(-0.229455 0.199776 -1.21954e-19)
(1.0806 -0.125058 2.31687e-20)
(0.995136 -0.0145512 0)
(1.1334 -0.028536 1.46077e-20)
(-0.182347 0.216707 -1.74493e-19)
(0.755321 -0.0741141 0)
(0.752654 -0.0848774 1.03179e-21)
(-0.0936708 0.0677129 8.33166e-20)
(1.12788 0.0664093 -5.30942e-20)
(1.08406 0.0169919 0)
(1.09934 -0.00567848 0)
(0.403417 -0.116665 2.48669e-19)
(1.02796 -0.003272 1.53272e-21)
(-0.132317 0.215846 -5.52546e-20)
(-0.262605 0.0102454 0)
(1.01481 -0.00479533 -4.81141e-22)
(0.999818 -0.000861246 3.14999e-22)
(0.978619 0.0168442 -7.70985e-21)
(0.987883 -0.0142652 1.08152e-20)
(1.00007 -0.000870564 4.84269e-21)
(1.16416 0.0249171 1.05986e-19)
(1.1771 0.0203575 -1.78705e-19)
(1.0186 -0.0364981 -7.73029e-23)
(1.05835 -0.0429392 1.19038e-20)
(1.07397 -0.0721718 1.6282e-21)
(0.94442 -0.170751 1.43135e-20)
(1.06112 -0.0362587 1.24286e-20)
(0.994136 -0.00406057 -5.03195e-21)
(1.06222 -0.168298 -1.86314e-20)
(-0.0378049 0.0124203 1.66762e-20)
(1.02461 -0.00906591 4.19613e-21)
(-0.229123 0.174166 -2.41535e-19)
(1.00001 -0.000680066 -2.47958e-21)
(0.999971 -0.00218483 -4.2451e-21)
(1.01171 -0.000884693 1.32711e-22)
(-0.0521709 0.110302 5.47431e-20)
(0.993695 0.000976269 1.3287e-20)
(1.35364 -0.24149 -1.37968e-19)
(-0.0288394 0.0173112 1.09537e-19)
(1.00058 -0.00270151 -3.41136e-21)
(0.999262 -0.00216188 -5.96994e-21)
(1.34144 -0.133679 1.45775e-19)
(1.01165 -0.000547474 0)
(0.999929 -0.000919119 -9.49555e-21)
(1.01224 -0.000513185 0)
(-0.0474279 0.0106998 -1.0261e-19)
(0.582278 -0.379559 0)
(0.933423 -0.0509132 0)
(0.891387 -0.510129 -7.88241e-21)
(1.16355 -0.00298759 1.40591e-20)
(-0.112381 0.133415 1.10923e-19)
(-0.0480972 0.210719 0)
(1.04324 -0.022901 1.43844e-20)
(-0.098535 -0.19978 1.27363e-19)
(1.00001 -0.000647369 -7.84392e-21)
(-0.148846 0.203797 1.63267e-19)
(0.377649 -1.1553 0)
(-0.185347 0.103142 1.28623e-19)
(-0.0570687 0.0861383 0)
(1.13296 0.062668 0)
(1.06137 -0.0221439 0)
(1.12927 -0.0748648 0)
(1.06779 -0.0204711 2.10544e-20)
(1.03496 -0.00313468 5.80599e-21)
(1.04659 -0.0151706 0)
(0.82157 -0.522144 0)
(0.916601 -0.0580366 2.0838e-20)
(0.999341 -0.0020097 0)
(1 -0.000109021 6.74907e-21)
(1.01376 -0.00484601 0)
(1.01631 -0.000103474 0)
(1.02437 -0.00954457 -3.90874e-21)
(-0.0536219 0.185711 9.64836e-20)
(1.00471 -0.00840523 -1.64313e-21)
(1.01793 -0.0220463 4.95382e-24)
(1.01611 -0.000175743 0)
(1.00232 -0.00890714 2.76952e-22)
(-0.0247047 -0.0372255 0)
(1.1388 -0.438396 0)
(0.687677 0.077709 -9.50226e-20)
(0.946972 -0.0119828 0)
(1.11986 0.00954324 -6.26692e-20)
(1.01542 -0.000104433 0)
(0.845994 0.104827 0)
(0.012855 -0.0221493 2.11977e-19)
(0.993151 9.23529e-05 1.04018e-22)
(0.0103894 0.0172061 1.12426e-19)
(1.09559 -0.0131479 0)
(0.991964 -0.00100174 -3.05167e-20)
(-0.125652 0.00223256 6.99485e-20)
(0.732249 0.134363 0)
(0.996681 -0.00366899 0)
(1.06215 -0.175858 -1.90014e-20)
(0.375739 1.05164 -8.08229e-20)
(0.974426 -0.0255074 2.42295e-20)
(0.833843 0.02464 -3.06138e-20)
(1.01903 -0.0217747 -9.41939e-22)
(0.969419 -0.0233235 -1.7336e-20)
(-0.0321878 0.168251 2.51689e-20)
(0.894851 -0.170886 -2.77633e-20)
(0.997193 -0.00871233 -3.56127e-21)
(0.995854 -0.00059403 1.02115e-20)
(0.94967 -0.0114256 0)
(1.07513 -0.365829 4.92409e-20)
(0.0923828 -0.18957 0)
(0.992145 -0.00619347 -2.65838e-20)
(1.00475 -0.00768984 -6.67283e-21)
(1.02889 -0.0148627 -3.3787e-21)
(-0.221755 0.00355075 3.78661e-19)
(-0.109015 -0.103806 -9.26946e-20)
(-0.0517892 -0.0128725 -1.05537e-19)
(1.02721 -0.00418788 -3.13189e-21)
(0.896004 -0.183466 0)
(0.829268 0.0337968 -3.05016e-20)
(0.834074 -0.724911 -2.54644e-20)
(1.15717 -0.0181789 0)
(1.02838 -0.000904071 3.37071e-21)
(1.03025 -0.0029262 -1.89469e-21)
(1.02819 -0.0152547 1.04562e-21)
(1.12546 -0.0700799 -4.0708e-21)
(0.989504 -0.0350415 4.27171e-21)
(-0.0177752 0.00922296 0)
(0.998233 -0.00187604 -1.95072e-21)
(1.00888 -0.0143954 -5.7096e-21)
(-0.181418 0.246081 0)
(-0.060179 0.185366 0)
(-0.0448937 -0.0132892 0)
(1.01606 -9.95352e-05 0)
(-0.122416 0.109589 -6.82317e-20)
(0.98093 -0.0798655 1.71053e-20)
(0.230286 -0.643029 -4.66285e-20)
(-0.0392862 0.0176468 -2.8887e-21)
(-0.0861514 0.0612819 -2.44984e-20)
(0.991853 -0.06793 0)
(1.0817 -0.0808092 -4.16802e-21)
(1.26975 -0.0121671 -5.06015e-21)
(-0.0573031 0.149274 1.80527e-19)
(-0.0470444 0.15432 0)
(0.902448 0.0232715 0)
(1.00003 -0.000525507 1.42461e-21)
(0.928686 -0.0505093 0)
(1.03117 -0.0057829 -2.3395e-21)
(1.00535 -0.00834263 0)
(0.989039 -0.0332268 -4.27368e-21)
(1.00003 -0.00382808 -7.04286e-21)
(1 -4.33049e-05 0)
(0.0367414 0.00214027 9.37685e-20)
(0.999993 -0.00163396 0)
(1.14741 -0.107286 -1.45949e-21)
(1.08101 -0.0695332 -2.48486e-20)
(0.939501 0.0928984 -7.51399e-20)
(1.02827 -0.000379654 3.57339e-21)
(0.98134 -0.0726278 4.59272e-21)
(-0.0217449 0.0751159 0)
(0.358848 -0.0147579 -1.53403e-19)
(-0.057413 0.150914 -2.09654e-20)
(1.15233 -0.0206488 4.27892e-20)
(1.00856 -0.0137056 9.03247e-21)
(0.993959 -0.070394 1.63343e-20)
(0.992754 -0.00702324 2.64869e-21)
(1.20736 -0.336034 -2.77958e-20)
(1.01393 -0.00147635 8.63888e-22)
(-0.0500451 -0.00883538 -8.4168e-20)
(0.957305 -0.403092 -8.92781e-21)
(1.10107 -0.243686 -3.87916e-21)
(-0.100865 -0.00505656 1.2626e-19)
(-0.0239718 0.161032 -1.19391e-19)
(1.00046 -0.00219521 -7.68186e-21)
(0.996328 -0.0146007 7.82797e-21)
(1.27518 -0.000350868 -1.13639e-20)
(1.21598 -0.321975 0)
(0.982508 -0.00103222 -1.80313e-20)
(-0.0952813 0.0194514 2.07388e-19)
(1.00048 -0.00232774 7.63702e-21)
(0.999652 -0.00161442 0)
(0.497505 -0.849237 2.8293e-20)
(1.01344 -0.0044559 8.56475e-22)
(1.16683 0.00263995 0)
(1.02798 -0.00395098 6.59566e-21)
(-0.0340321 0.0886884 -6.63442e-20)
(0.998428 -0.0018729 0)
(1.0405 -0.0162292 -2.97427e-21)
(-0.185419 0.238023 -3.75235e-20)
(0.610135 0.0374298 3.43547e-20)
(1.08592 0.019499 -9.89645e-21)
(0.912658 -0.0218756 -4.05535e-20)
(1.00076 -0.00305673 5.91638e-21)
(1.00123 -0.0198211 5.16138e-21)
(0.24822 0.0353726 9.51989e-20)
(1.12639 -0.105266 -1.12758e-19)
(1.02403 -0.00568112 0)
(0.999615 -0.000914879 0)
(0.891316 -0.114545 -3.41557e-20)
(0.834288 0.0522461 6.01651e-20)
(1.08505 0.0190441 6.63813e-21)
(-0.21456 0.0413667 4.17686e-21)
(0.999683 -0.00122076 0)
(0.996736 -0.0096314 5.15433e-21)
(0.652193 -0.460423 1.47044e-19)
(1.00081 -0.00300559 1.81132e-21)
(-0.0449625 0.0221241 3.34147e-20)
(0.591313 -0.508878 -5.89611e-20)
(0.997288 -0.00032569 9.12103e-21)
(0.99694 -0.00416549 0)
(1.0454 -0.0158785 0)
(1.00057 -0.00254723 3.37906e-21)
(1.02855 -0.0136723 5.85604e-21)
(-0.131123 0.115027 5.43187e-20)
(0.738019 -0.0600282 0)
(1.28862 -0.124301 -1.73127e-19)
(0.885806 0.0373435 6.06891e-22)
(1.05625 -0.00462632 -1.12209e-20)
(1.11987 -0.0375489 0)
(0.919408 0.00636071 3.79349e-20)
(-0.0685522 0.111009 2.59429e-20)
(0.903908 -0.017017 0)
(0.999974 -0.000370596 0)
(1.05661 -0.0472172 2.1991e-20)
(1.14503 -0.408435 0)
(0.980737 -0.0134635 -9.22729e-21)
(0.983364 -0.0112603 -2.76938e-20)
(0.977137 -0.00979969 -1.46879e-20)
(1.01368 -0.00142225 -8.55846e-22)
(0.998812 -0.00684134 1.27176e-20)
(1.01562 -0.0239816 -1.08164e-21)
(0.996716 -0.000526557 0)
(1.00036 -0.00188728 1.09271e-22)
(0.970385 -0.0480625 -2.02828e-20)
(1.06711 -0.0231514 -1.00989e-20)
(1.16062 0.0292174 0)
(1.01478 -0.000305354 0)
(0.215863 0.131216 0)
(0.921582 -0.0443799 -1.51563e-20)
(0.967586 -0.429593 1.14612e-20)
(-0.0544818 0.22513 -1.10523e-20)
(1.03515 -0.00404653 6.04542e-21)
(-0.152965 0.250807 0)
(1.11002 -0.223667 7.19858e-20)
(1.03415 -0.00545555 -3.26377e-21)
(1.01388 -0.00200838 3.10505e-23)
(0.984907 -0.021473 -1.06388e-20)
(-0.0115929 0.140594 7.63778e-20)
(1.167 -0.00816444 4.67766e-20)
(1.01403 -0.00189051 0)
(0.998702 -0.00102168 -6.17412e-21)
(0.999747 -0.00132508 -5.40561e-21)
(0.710896 0.133538 0)
(1.00278 -0.385717 0)
(0.596664 0.0263854 0)
(1.00263 -0.00124777 4.87208e-21)
(0.985557 -0.00232779 2.82094e-20)
(0.859857 -0.0357749 0)
(-0.242215 0.0389371 -1.26466e-19)
(-0.1777 0.100577 8.82973e-20)
(0.936537 -0.0240247 -1.71002e-20)
(1.05636 -0.0193962 3.16884e-20)
(-0.23206 0.183044 2.2137e-19)
(0.998297 -0.0134475 -4.19338e-20)
(1.20009 0.0566675 9.17742e-20)
(0.976775 -0.0304112 -1.50214e-20)
(1.00788 -0.0146629 1.95259e-22)
(-0.0941452 0.0223154 -4.66755e-20)
(0.994409 -0.0120576 9.88799e-21)
(1.03508 -0.356725 -3.06593e-20)
(0.887885 0.074362 0)
(1.02355 -0.00525506 1.40376e-21)
(0.615123 -0.367992 -5.58191e-20)
(1.06613 -0.0658227 1.34082e-20)
(-0.0981357 0.117531 1.39747e-21)
(1.00152 -0.0192413 0)
(-0.0780744 -0.0455004 6.70324e-21)
(1.2579 -0.10567 0)
(1.07031 -0.00304063 0)
(1.35513 -0.125328 -1.38832e-19)
(0.995441 -0.012286 9.70607e-21)
(0.864212 -0.678032 -2.01671e-20)
(0.998256 -0.00140658 3.32061e-21)
(0.997408 -0.0145522 0)
(1 -0.00134041 1.68133e-20)
(0.994532 -0.00790703 1.11962e-20)
(0.0384055 0.0245874 0)
(0.995799 -0.0133914 0)
(1.03073 -0.00879193 -4.29424e-21)
(0.949641 -0.0181569 8.66957e-21)
(1.02713 -0.00481663 2.78194e-21)
(1.00757 -0.015072 1.13e-23)
(1.04872 -0.189148 1.62651e-20)
(0.983085 -0.053867 -9.8322e-23)
(1.09795 -0.0113034 2.79971e-20)
(1.00149 -0.00355756 0)
(1.00137 -0.00341385 1.13879e-20)
(-0.0277087 0.0665718 8.76106e-20)
(0.647861 0.0425491 8.13216e-21)
(0.939219 -0.0234108 3.97947e-20)
(-0.228805 0.163455 1.38702e-19)
(1.06488 -0.0235274 1.16831e-20)
(0.984108 -0.0371268 2.08336e-20)
(0.993961 0.00138896 -6.82134e-21)
(1.02922 -0.0133514 4.64652e-21)
(0.0228544 -0.0186225 8.43787e-23)
(1.0308 -0.00806118 -4.4571e-21)
(1.00132 -0.000504704 -1.35217e-21)
(-0.285286 0.0282024 -1.448e-19)
(0.951963 0.0111611 8.9577e-20)
(0.956339 -0.172968 -5.97526e-22)
(1.00203 -0.00897542 0)
(0.99999 -0.000234171 1.00158e-20)
(1.0347 -0.0286703 1.12799e-20)
(0.99997 -0.00101972 -1.37706e-22)
(-0.21607 0.175202 -1.29846e-19)
(0.972496 -0.0255194 -2.72752e-20)
(-0.0449235 0.192368 6.91673e-21)
(1.06309 -0.0120343 0)
(0.311893 0.455325 0)
(0.999969 -0.000581014 -1.0261e-20)
(-0.279118 0.0302223 1.55867e-19)
(1.00823 -0.000318187 0)
(1.09329 -0.378686 -4.97734e-20)
(0.993467 -0.0111538 6.8546e-21)
(1.09138 0.0421105 -3.04699e-20)
(-0.0258353 0.0117902 6.11866e-20)
(0.998449 -0.00132078 3.14033e-21)
(0.626878 0.0395149 8.0371e-20)
(0.99019 -0.0133153 -6.39114e-21)
(1.00015 -0.000118313 -3.32236e-21)
(1.02284 -0.00877062 1.59256e-21)
(0.203311 0.0851463 5.04085e-20)
(-0.0771096 0.0310104 -6.82199e-21)
(0.983897 -0.0207223 1.26669e-20)
(1.06959 -0.0671744 0)
(1.03105 -0.00654041 0)
(-0.227493 0.191621 6.45952e-20)
(1.01527 -0.000382188 0)
(1.06878 -0.165643 -2.06958e-22)
(-0.0826686 -0.0395145 0)
(0.912961 0.00921963 -1.59076e-21)
(1.00177 -0.000895282 3.0109e-21)
(0.810016 -0.140514 -3.23535e-20)
(1.0001 -0.000552661 7.87876e-21)
(1.03621 -0.0286723 -8.97241e-22)
(1.02785 -0.0168686 2.05784e-21)
(1.15324 0.0291497 0)
(1.00294 -0.00355464 -3.6527e-21)
(-0.233673 0.202432 6.40219e-20)
(1.00122 -0.00336383 -1.39724e-20)
(0.992224 -0.0371508 -1.52996e-20)
(1.09815 0.00253695 -1.52643e-20)
(0.769044 -0.243732 3.41782e-21)
(1.24954 0.0584061 0)
(1.01726 -0.0209909 8.19428e-23)
(-0.260024 0.0288822 1.49529e-19)
(0.99679 -0.0149959 -1.18804e-20)
(1.02101 -0.405105 -7.0169e-21)
(0.986895 -0.00756607 0)
(1.04279 -0.0186608 -1.20261e-20)
(0.994767 -0.0125353 -1.83766e-20)
(1.00116 -0.00340172 -4.57989e-22)
(0.99997 -0.000455405 7.85232e-21)
(1.01602 -0.425197 1.12116e-20)
(1.08496 0.0160987 -2.42111e-20)
(0.558307 0.0377509 -9.05976e-20)
(1.19764 -0.114535 -1.38402e-20)
(0.836582 -0.0565091 1.31904e-19)
(0.911498 -0.131686 3.17517e-20)
(0.56421 -0.820925 -5.23242e-21)
(1.0515 -0.0442856 0)
(-0.208806 0.169318 1.42598e-19)
(-0.124805 -0.052739 -1.02142e-19)
(1.09122 -0.400689 -6.71829e-20)
(1.09855 -0.161091 -6.86213e-20)
(1.05034 0.0702853 -9.34954e-20)
(1.05228 -0.37452 4.67017e-21)
(1.03698 -0.0279472 3.71645e-21)
(0.0620235 -0.16259 -4.90325e-20)
(1.0965 0.00430955 0)
(1.04094 -0.0185271 1.62942e-20)
(1.11012 -0.412403 8.51658e-20)
(1.00006 -0.000495975 -7.64672e-21)
(0.865001 -0.534773 0)
(0.962366 -0.159941 0)
(1.21809 0.0115154 -1.20891e-19)
(0.889726 0.0278354 -1.01745e-20)
(-0.0606076 0.175243 0)
(-0.159398 0.00668297 -7.72073e-20)
(1.09681 -0.000680192 0)
(1.21177 0.0121582 1.08475e-19)
(0.999791 -0.000973136 1.04057e-20)
(1.04175 -0.51806 4.96079e-20)
(0.947719 0.0125706 2.38329e-20)
(0.993765 -0.01069 -2.10739e-20)
(0.987216 -0.0326778 0)
(1.05458 0.00413811 -3.3222e-22)
(1.11953 -0.103945 9.97221e-20)
(-0.103776 0.0642151 -1.09577e-19)
(0.883464 -0.469925 5.13885e-21)
(-0.178234 0.0510342 7.29594e-20)
(1.04714 -0.0449821 0)
(0.959601 -0.0516947 1.80785e-20)
(-0.0981872 0.120422 -3.99651e-20)
(0.418796 0.120201 -1.43692e-19)
(1.05375 -0.0213296 1.41265e-20)
(1.14889 -0.0304246 0)
(0.967722 -0.0287081 -3.91133e-22)
(0.247213 -0.753062 0)
(-0.168734 0.243228 4.30408e-20)
(0.997189 -0.000615899 -9.20306e-21)
(0.692096 0.0909629 1.09649e-19)
(0.675646 -0.421364 -1.5696e-19)
(-0.15605 -0.0183473 0)
(1.00296 -0.00114114 2.21589e-21)
(0.926159 -0.0563968 -3.03709e-20)
(0.218429 0.0322636 -1.03646e-19)
(1.08555 -0.026439 0)
(0.523654 0.0515693 1.73401e-19)
(1.09604 0.0444181 -1.95961e-20)
(0.972529 0.10046 1.68525e-19)
(0.951162 -0.0765074 -2.15516e-20)
(1.05196 -0.0472803 0)
(1.0204 -0.0301073 3.41752e-22)
(0.986046 -0.00363504 2.7135e-20)
(1.10579 0.110368 -3.30845e-20)
(1 -0.000281386 0)
(1.11911 0.11804 1.21558e-20)
(1.21271 -0.0903175 5.27945e-20)
(1.07227 -0.259763 -1.08181e-20)
(1.00003 -0.00024339 0)
(1.00013 -0.000996261 -1.80518e-21)
(1.05751 -0.00184582 1.12156e-20)
(1.04115 -0.000346082 0)
(1.00587 -0.00102179 2.06779e-21)
(0.987377 -0.0133701 -8.24806e-21)
(1.1892 -0.115612 -3.68012e-20)
(0.0111008 0.15473 -3.62148e-20)
(-0.000422255 0.128132 1.48699e-20)
(1.00002 -0.000322726 -5.0683e-21)
(1.18803 -0.341796 0)
(1.00164 -0.00774619 8.47407e-21)
(-0.129846 -0.0714539 -5.25522e-20)
(1.11495 -0.00330909 3.48748e-20)
(0.784075 -0.092623 -7.45508e-20)
(0.836965 0.0427553 -2.80035e-20)
(1.25496 -0.0974823 -3.35819e-21)
(1.0091 -0.00515303 1.14419e-21)
(0.998984 -0.00401914 6.43303e-21)
(0.825095 -0.137727 2.91485e-20)
(0.993731 -0.0119877 0)
(1.03331 -0.027983 3.6415e-21)
(1.15073 -0.054938 -7.66945e-20)
(-0.0810044 0.127793 0)
(1.02612 -0.00833758 -4.71184e-21)
(1.11493 0.104787 1.16669e-19)
(-0.182491 0.0851239 -4.98542e-20)
(1.06237 -0.0384542 -2.09624e-20)
(-0.0973297 0.191026 4.80792e-20)
(-0.181619 0.078807 -1.14097e-19)
(1.0161 -0.0251077 1.20198e-21)
(1.14023 -0.0915516 1.0255e-20)
(1.07372 -0.00144775 2.99391e-20)
(1.01686 -0.034341 0)
(1.02205 -0.00873297 -1.27968e-21)
(0.622561 -0.125688 0)
(-0.189119 0.0969943 7.55854e-20)
(-0.148331 0.0604995 0)
(0.979733 -0.0144102 -3.28542e-21)
(0.995627 -0.000352617 -1.08221e-20)
(1.01973 -0.0117008 0)
(1.06 0.00876526 5.52301e-21)
(0.986103 -0.0537142 1.06226e-20)
(0.973861 -0.0655244 5.94876e-21)
(0.516018 0.437639 1.13899e-19)
(1.11266 -0.000517377 3.54285e-20)
(1.00038 -0.00201346 0)
(1.17498 -0.0323955 -3.75528e-20)
(1.08861 -0.0310772 4.99051e-20)
(0.846631 -0.0588427 -8.98257e-20)
(1.0334 -0.0265153 -6.99481e-21)
(-0.331082 0.0177609 8.76183e-22)
(1.0599 -0.0205912 0)
(1.00383 -0.00271516 0)
(1.08363 -0.257558 -1.46317e-20)
(0.150918 0.117229 -3.78256e-20)
(1.02485 -0.00572255 -1.06866e-21)
(0.996822 -0.000181021 0)
(0.993323 -0.0064915 -2.65501e-21)
(1.0681 -0.0024378 1.82284e-20)
(1.00915 -0.00486124 -1.11144e-21)
(1.09888 -0.0025471 0)
(1.27394 -0.0244391 0)
(0.994537 -0.0405995 -1.48065e-20)
(1.1505 0.0327664 -2.83293e-20)
(1.05187 -0.0214331 0)
(1.03186 -0.0254427 -3.56748e-21)
(1.231 0.0521667 3.71448e-20)
(-0.0977147 -0.075419 1.55754e-19)
(1.19014 0.096136 -1.9911e-20)
(0.999206 -0.00376249 1.17887e-20)
(1.02602 -0.00549831 0)
(0.67795 0.194518 -8.62629e-20)
(0.909211 -0.0144496 0)
(1.05696 0.152243 8.87902e-21)
(1.02444 -0.00451535 -1.81182e-21)
(0.98935 -0.0132707 -9.3449e-22)
(-0.270891 0.0110768 0)
(-0.0721876 0.166161 3.29144e-20)
(1.07499 -0.0774367 -5.58559e-21)
(1.16537 0.0138463 5.95165e-20)
(0.693805 0.0300784 3.6137e-20)
(0.995663 -0.0150432 0)
(1.00002 -0.000208458 -8.21606e-22)
(1.01344 -0.0335593 1.62731e-21)
(-0.100237 -0.0354192 -2.06427e-19)
(1.00144 -0.000622791 5.37377e-21)
(0.999997 -5.23402e-05 0)
(-0.0637058 0.142297 -1.73693e-19)
(0.894842 0.0281681 -3.78985e-20)
(1.25545 -0.163982 -1.21836e-19)
(0.843478 0.0248091 1.09341e-19)
(1.00212 -0.00811043 0)
(-0.0880019 -0.0762832 -1.32075e-19)
(1.00002 -0.000564186 7.60877e-23)
(0.988447 -0.00940644 7.9143e-21)
(1.01227 -0.0329609 1.77837e-21)
(0.923433 -0.109906 -1.6092e-20)
(-0.0308889 0.116161 0)
(1.00003 -0.00231338 4.08671e-21)
(0.993198 0.000955699 -1.4163e-20)
(0.993386 -0.0124103 6.76011e-21)
(0.995187 -0.0137309 0)
(1.00184 -0.00812012 0)
(1.02016 -0.0311864 -3.35051e-22)
(0.995543 -0.146158 -4.19009e-20)
(0.916485 -0.11459 1.60075e-20)
(0.97031 -0.044934 1.95335e-20)
(1.0001 -0.00322212 -9.00386e-21)
(0.907996 -0.109655 -1.01381e-20)
(1.15195 -0.088799 6.25564e-20)
(1.07083 0.000499945 -2.08669e-20)
(0.885543 0.0327909 -7.97776e-20)
(1 -9.54226e-05 0)
(1.01969 -0.0111271 0)
(1.00449 -0.0650037 1.30386e-21)
(-0.0571931 0.0206075 0)
(0.0922954 0.135437 1.85998e-20)
(1.05454 -0.00377942 0)
(-0.159183 0.0545672 1.16097e-19)
(0.999765 -0.00085989 0)
(0.950913 -0.0713518 0)
(1.30552 -0.324003 0)
(0.153689 -0.154391 0)
(1.02136 -0.0211008 0)
(0.999977 -0.0019931 0)
(0.432618 0.217543 -1.76499e-19)
(1.13269 -0.025094 1.94637e-20)
(1.00408 -0.00278897 3.13838e-21)
(0.999941 -0.000784911 6.02259e-22)
(-0.230696 0.194255 -6.13328e-20)
(1.00003 -0.000152173 1.89602e-22)
(1.14203 -0.155478 5.41257e-20)
(0.996651 -0.00411234 5.26251e-22)
(0.350467 0.0236157 1.93999e-19)
(0.999953 -0.000849707 1.0033e-20)
(1.00906 -0.000194882 2.64795e-21)
(0.998828 -0.00115711 7.02245e-21)
(1.05488 -0.101472 0)
(1.04005 6.68181e-05 0)
(0.93561 -0.0456276 0)
(0.906159 0.0207499 3.58546e-20)
(0.540166 0.108064 -1.39506e-19)
(1.00458 -0.00863284 2.53458e-21)
(0.999025 -0.00670652 -1.38427e-20)
(1.00006 -0.000334041 -3.41999e-21)
(0.997799 -0.0149414 -2.00626e-23)
(1.03772 -0.0256415 0)
(1.03885 -0.00987292 -5.8141e-21)
(1.08242 -0.0737546 3.18873e-20)
(0.998523 -0.0010609 -9.47357e-22)
(1.12347 -0.00143269 0)
(-0.0210576 0.146303 0)
(1.11978 -0.070962 -2.98498e-20)
(1.15628 -0.0578771 0)
(0.999708 -0.00109456 0)
(1.02855 -0.0164 2.60079e-21)
(-0.25939 0.0097638 -1.06877e-20)
(0.298343 0.242499 5.07184e-20)
(1.02171 -0.00810371 2.51101e-21)
(-0.128015 0.197754 -1.16071e-19)
(-0.293693 0.0191336 4.89721e-21)
(1.02628 -0.00585185 0)
(0.992918 0.000509902 2.16891e-22)
(1.00137 -0.0132568 0)
(1.13536 -0.223602 -3.68741e-20)
(1.12295 0.00209458 7.78e-21)
(0.134066 -0.112825 2.63669e-19)
(1.00513 -0.0086128 -3.43273e-21)
(1.02152 -0.0824858 -8.55396e-22)
(1.00535 -0.00634933 0)
(0.968292 -0.0247903 -6.6226e-22)
(1.00829 -0.000278383 5.72674e-22)
(1.05493 -0.281139 0)
(1.03808 -0.0244967 -3.78471e-21)
(1.24262 -0.180186 0)
(0.999424 -0.00334907 -4.71063e-21)
(0.920474 -0.250629 -2.44897e-21)
(1.0039 -0.0079079 0)
(0.96396 -0.0482288 0)
(0.986859 -0.00949258 1.84201e-20)
(1.08446 0.0144103 0)
(0.726089 0.133918 -5.24955e-20)
(-0.276067 0.0276061 1.29337e-19)
(0.0846452 0.0754791 -9.28829e-22)
(-0.165172 0.206676 5.70913e-20)
(1.12895 -0.0314244 0)
(0.988928 -0.0142419 9.19716e-22)
(0.579141 -0.76405 0)
(0.0742632 -0.12554 4.46303e-19)
(1.12955 0.00811059 9.35042e-20)
(1.03561 -0.0229633 -1.32188e-20)
(0.999941 -0.00374162 -5.50444e-21)
(0.169123 0.236159 0)
(1.00164 -0.0137631 6.55631e-21)
(-0.0336333 0.123219 5.95548e-20)
(1.02867 -0.00291749 1.83105e-21)
(1.0844 -0.00958818 1.91703e-20)
(1.04064 -0.0239107 1.31741e-20)
(0.999951 -0.000233047 0)
(1.02123 -0.0221671 0)
(0.820661 0.0309046 0)
(-0.0825647 -0.031693 7.04846e-20)
(-0.035573 0.135381 -4.85385e-20)
(0.665198 0.049283 3.24962e-20)
(-0.223083 0.0051859 -1.40907e-19)
(0.994409 -0.00738628 1.0198e-20)
(-0.112528 0.149333 0)
(0.345563 0.0421539 -1.56849e-20)
(1.00002 -0.000107268 0)
(0.991506 -0.0354324 7.31599e-21)
(1.01046 -0.00672198 0)
(1.14202 0.0934855 -9.9299e-20)
(1.02282 -0.00532546 -1.47757e-21)
(-0.115783 0.06351 -2.36044e-19)
(0.852005 -0.0417571 0)
(1.21109 -0.0487729 1.18592e-19)
(1.00632 -0.0443175 0)
(1.25372 -0.356622 -7.00249e-20)
(-0.189753 0.0339264 0)
(0.168258 0.0322893 0)
(0.938048 -0.108114 0)
(1.09137 -0.0623546 -3.95334e-21)
(1.00162 -0.00092631 1.68594e-21)
(0.420678 -0.137287 0)
(1.02393 -0.00363673 -2.28076e-21)
(0.402621 0.312135 0)
(1.23777 -0.0442731 -9.21522e-20)
(0.810041 -0.24534 -4.30564e-20)
(0.477215 0.0450133 5.12552e-20)
(0.0191224 0.00241716 -1.93339e-19)
(1.05854 -0.0362602 -9.96704e-21)
(1.01034 -0.0647234 -1.28131e-21)
(1.00305 -0.00386112 6.37529e-21)
(1.08208 0.042663 1.39087e-20)
(-0.108344 0.0602048 1.23841e-21)
(-0.176678 -0.00270848 3.279e-20)
(1.00973 -0.00640048 1.93976e-21)
(0.211614 0.618195 9.60202e-20)
(1.06869 0.000939169 0)
(1.17232 0.0260217 -6.20599e-20)
(0.566249 0.111829 2.56598e-19)
(-0.0850374 0.12922 0)
(-0.0717544 0.130359 4.99785e-20)
(1.03018 -0.00220484 -2.77888e-22)
(0.918477 -0.0479018 3.90619e-20)
(1.09143 -0.0233414 -6.50534e-21)
(1.0633 -0.0101626 0)
(1.059 -0.000880246 1.35385e-20)
(0.150498 0.115682 0)
(0.999783 -0.00142706 8.83294e-21)
(0.571817 0.0140508 1.41143e-19)
(1.01516 -0.000299157 -5.65492e-22)
(1.02934 -0.00187722 1.14109e-22)
(1.12109 -0.206953 0)
(1.17319 0.0142625 1.20924e-19)
(1.1776 0.0982863 6.2941e-20)
(1.04061 -0.0365393 5.15185e-21)
(0.844174 -0.382549 0)
(1.05181 -0.210754 0)
(1.27423 -0.28766 -2.03311e-19)
(0.898204 0.021671 5.73535e-20)
(1.00012 -0.000498945 -1.05988e-21)
(1.0392 -0.0375151 0)
(1.00014 -0.000510857 0)
(0.985155 -0.0105385 4.73459e-21)
(1.2735 -0.305264 7.47793e-20)
(1.07343 0.144725 0)
(1.02286 -0.0386841 -2.5531e-21)
(0.986053 -0.00803895 -9.65458e-21)
(1.09375 -0.018325 0)
(0.193861 -0.159336 0)
(1.01374 -0.0889373 -2.62394e-22)
(0.987099 -0.000585687 0)
(0.384609 0.108069 8.02854e-20)
(0.993346 -0.00788034 -9.91358e-21)
(0.999982 -0.000196896 -7.06015e-21)
(1.02448 -0.00396015 0)
(1.11685 0.0165787 2.46046e-20)
(0.996188 -0.000438765 1.55389e-22)
(1.06807 -0.0120552 5.29595e-21)
(-0.0306022 0.194927 -9.51189e-20)
(1.15067 -0.102243 1.65474e-21)