/*--------------------------------*- C++ -*----------------------------------*\
| =========                 |                                                 |
| \\      /  F ield         | OpenFOAM: The Open Source CFD Toolbox           |
|  \\    /   O peration     | Version:  v2012                                 |
|   \\  /    A nd           | Website:  www.openfoam.com                      |
|    \\/     M anipulation  |                                                 |
\*---------------------------------------------------------------------------*/
FoamFile
{
    version     2.0;
    format      ascii;
    class       volScalarField;
    location    "1000";
    object      omega;
}
// * * * * * * * * * * * * * * * * * * * * * * * * * * * * * * * * * * * * * //

dimensions      [0 0 -1 0 0 0 0];


internalField   nonuniform List<scalar> 
9793
(
0.131981
0.27939
0.178786
0.0210062
1.88265
0.0225753
0.0218193
0.0207633
0.0215616
1.8185
0.0543107
0.0358222
0.0210509
0.0203319
0.0228435
0.0202591
0.0211271
0.0213983
1.20364
0.0203089
0.0790764
0.0227879
0.377245
0.0195612
0.0216523
0.0211473
0.0202552
0.0207947
0.0405696
0.0215506
0.0327015
0.361625
0.483992
0.0218572
0.045774
0.303155
0.0223632
0.0227693
0.0208255
0.0210204
0.032564
0.0228737
0.0220867
0.0219261
0.0221052
0.0213275
0.0441141
0.0857029
0.629179
0.0209793
0.0474431
0.0590163
0.0228261
0.021576
0.134082
0.105489
0.021429
0.0940961
0.475771
0.020809
0.0216203
0.0227919
0.547714
0.0218681
1.81094
0.465479
0.527468
0.648742
0.0440098
0.0533219
0.134889
0.0207865
0.021122
0.272395
0.0527703
0.386085
0.021422
0.0200382
0.0212812
0.0209167
0.462458
0.0212145
0.273623
0.087633
0.0290928
0.100544
0.021031
0.0214167
0.0223336
0.0213718
0.283248
1.3318
0.0203675
0.360178
0.0225434
0.107609
0.0982847
0.280959
0.0203406
0.0202432
0.0202294
0.0212702
0.0203994
0.0203889
0.0200434
0.0285776
0.0221961
0.0217032
0.0225236
0.172781
0.0209699
0.0700084
0.0214114
0.274633
0.0585122
0.0214309
0.486659
0.0513935
0.0215008
0.340832
0.128915
0.0225999
0.0213281
0.0228266
0.0218349
0.0723226
0.0376499
0.11784
0.0217587
0.0211487
0.0213696
0.0214258
0.0211483
0.0214336
0.0215282
0.021413
0.0221951
0.0217606
0.0214043
0.0199617
0.0213177
0.0215666
0.0211746
0.0202434
0.0204119
0.0205676
0.243647
0.0202482
0.0203449
0.876857
0.57121
0.0213685
0.72592
1.82087
0.0203305
0.0219965
0.0206339
0.0214926
0.0202357
0.0211261
0.0207605
0.020787
0.0201263
1.30738
0.26942
0.109297
0.108061
0.0248548
0.0202187
0.0209941
0.0211766
0.590631
0.26804
0.591864
0.0217845
1.28913
0.0214215
0.0195676
0.021165
0.026348
0.558605
0.0221875
0.0202465
0.0215776
0.313159
0.0211073
0.104192
0.0211585
0.0213019
0.0201414
0.0217934
0.0213305
0.666911
0.0702805
0.655366
0.0260881
1.48414
0.0209031
1.80402
0.0200302
0.0215201
1.39204
0.122425
0.0211562
0.0214204
0.0198654
0.141915
0.0201989
0.0264925
0.022273
0.0291735
0.604087
0.666036
0.0215996
1.54642
0.0205233
0.0210933
0.344878
0.0198516
0.833207
0.0677815
0.0213633
0.0218442
0.0213328
0.110579
1.37036
0.0226004
0.0203311
0.066212
0.0448955
0.0195941
0.0195662
0.0222586
0.0201683
0.0427711
0.823114
0.0213866
0.0211047
0.0861768
0.0211366
0.0261427
0.0203253
0.0210601
0.478513
0.0210708
0.0203333
0.0207507
0.0214812
0.0203499
0.0216891
0.0216739
0.0235178
0.0543319
0.0401991
0.0210162
0.0233578
0.0211622
0.0237652
0.0225821
0.0201815
0.29134
0.0210865
0.0540188
0.0215102
0.0252721
0.0196662
0.0196548
0.0290798
1.39361
0.0219789
0.0202017
0.0200073
0.0254061
0.0213829
0.277
0.276675
0.0211584
0.07874
0.0213673
0.0403021
0.0214152
0.0196272
0.0221228
0.0208998
0.0376156
0.0213604
0.0216695
0.0244861
0.0210603
0.0214118
0.0213931
0.483488
0.022126
0.022462
0.0214196
0.0214119
0.02196
0.0249387
0.0212441
1.1779
0.0203423
0.397675
0.48946
0.022136
0.021912
0.020225
0.0260808
0.0236962
0.0213419
0.414714
0.0217313
0.0202126
0.023832
0.0217866
0.0215085
0.0212534
0.0897735
0.0210669
0.0246932
0.0223286
0.0209884
0.273259
1.48873
0.256986
0.0197318
0.328058
0.022053
0.603614
0.0593974
0.0200508
0.0229591
0.0576967
0.0211422
0.0247725
0.0635566
0.0207244
0.0219723
0.021502
0.0210436
0.0208466
0.989352
0.0211587
0.0209762
1.23249
0.0211462
0.0202336
0.0197189
0.0222215
0.020738
1.39561
0.0218932
0.0213677
0.0216229
0.0212604
0.487573
0.0215538
0.0318195
0.019576
0.0342243
0.125634
0.104309
0.0365052
0.0221684
0.0218142
1.54242
0.0217108
0.286878
0.0211373
0.0202156
0.489162
0.0244796
1.45347
0.0213711
0.0458133
0.427214
0.0224283
0.0210876
0.487105
0.0249283
0.257863
0.0233797
0.0215307
0.522824
0.0212707
0.0221601
0.0217856
0.021263
0.0202942
0.0215561
0.0230254
0.511671
0.0216977
0.439173
0.355421
1.53168
0.0452455
0.210755
0.020928
0.0215014
1.60785
0.35543
0.0203399
0.0217916
1.37829
0.019996
0.443643
0.0211231
0.0230476
0.0199824
0.0304562
0.0211509
0.0254251
0.0839187
0.0202189
0.378395
0.0235458
0.0219658
0.0236354
0.0210454
0.0220352
0.0206541
1.33108
0.0213429
0.0215286
0.0626881
0.0215154
0.0225364
0.0220539
0.0201007
0.0270981
0.0211322
0.0215354
0.0199331
0.394526
0.0204805
0.396039
0.0210163
0.67408
0.022863
0.0210647
0.0222694
0.0216977
0.34093
0.0208829
0.100974
0.0201739
0.0211895
0.0221508
1.39429
0.0356323
0.135729
0.638589
0.0228344
0.0212597
0.0369414
0.0268263
0.0293227
0.277488
0.44249
0.0216314
0.0226058
0.0458727
0.0213328
0.0213305
0.0213121
0.0203862
0.0220425
0.178304
0.0254391
0.419595
0.0204003
0.026419
0.0195532
0.0216836
0.021529
0.0212419
0.0373133
0.021077
0.0222352
0.0199729
0.0213979
0.0228515
0.0752005
0.0211663
0.0212584
0.494312
0.0235613
0.0219005
0.497403
0.677828
0.0215114
0.0219762
0.0222623
0.0229156
0.02155
0.0223349
0.0220829
0.0209452
0.0211801
0.021031
0.207156
0.0602134
0.0206315
0.312052
0.0307287
0.0202926
0.0221418
0.0213127
0.0652587
0.021407
0.0550186
0.0200757
0.0210725
0.0499893
0.0212916
0.0317357
0.457406
0.0253153
0.0202849
0.474408
0.0233303
0.0205429
0.0211717
0.0539666
0.020901
0.0205286
0.0212679
0.0208969
0.473062
0.0428533
0.0298652
0.0223331
0.0211417
0.0210233
0.0214758
0.0208695
0.0212835
0.056155
0.112448
0.0200215
0.0222108
1.65341
0.02133
0.0251604
0.0326886
0.0207259
0.0575059
0.461032
0.0213777
0.14178
0.0196356
0.14919
0.0242955
0.552301
0.0211017
0.0210442
0.0211449
0.290816
0.0218961
0.460689
0.468291
1.77024
0.0328106
0.0912131
0.0292023
0.0228629
0.0291285
0.0220372
0.330058
0.0215432
0.659873
0.0198959
0.247365
0.0219766
0.0219149
0.0210065
0.152744
0.0199359
0.020742
0.0221975
0.0224958
0.0259365
0.0211338
0.0212574
0.0213071
0.0212848
1.19633
0.0209763
0.440946
1.04695
0.0209879
0.0218075
0.0270111
0.0217904
0.0213082
0.0217202
0.0224728
0.0243039
0.0221463
0.0225045
0.0204897
0.0214411
0.0220275
0.023839
0.0217344
0.0223249
0.723212
0.0213201
1.42873
0.0245615
0.0219287
0.0212674
0.0206956
0.0219342
0.0222334
0.021058
0.0206677
0.0195271
0.021045
0.0206483
0.0211687
0.023174
0.0198581
0.0219145
0.0220266
0.0215352
0.0230332
0.0221979
0.0303317
0.0222707
0.0210079
0.0212776
0.0205273
0.0199365
0.0209507
0.0199692
0.020959
0.0213294
0.0199243
0.0319927
0.021027
0.0221761
0.0213436
0.657397
0.0210302
0.0199713
0.0530968
0.0196322
0.0215078
0.162261
0.0216704
0.0223569
0.0214081
0.0945582
0.020706
0.0495174
1.79222
0.390601
0.446632
0.0214529
0.0213506
0.385535
0.0213661
0.0199464
0.221573
0.658409
1.63772
0.0212883
0.0586634
0.0213537
0.0213369
0.238099
0.0211835
0.0455546
0.0215348
0.0599273
0.0209944
0.0229957
0.0219717
0.152592
0.887551
0.0211519
0.0214155
0.0262223
0.0209517
0.0228277
0.0496982
0.236123
0.0210765
0.0204949
0.0213706
0.328645
0.0215971
0.490762
0.349188
0.0209757
0.0272239
0.382925
0.0210308
0.0211547
0.0221415
0.0214367
0.0199217
0.125561
0.0199214
0.456655
0.0228284
0.189491
0.0531455
0.0214915
0.122552
0.541071
0.0217875
0.559128
0.0266328
0.0742454
0.0199334
0.0196229
0.360674
0.0213205
0.857705
0.0209544
0.329766
0.0204818
0.0693284
0.371852
0.0209684
0.734986
0.0214141
0.0222756
0.0338404
0.823271
1.06277
0.0199344
0.0204971
0.0199837
0.42654
1.31173
0.0227138
0.0241342
0.0275999
0.0199587
0.0209883
0.0215494
0.0508907
0.0236379
0.0213913
0.0208665
0.0207838
0.450772
1.59078
0.188428
0.0205332
0.0209226
0.654245
0.0211677
0.52268
0.0399824
0.461959
0.247897
0.343735
0.0208529
0.0214982
0.0230291
0.0220592
0.0240482
0.0212155
0.058233
0.378831
0.0204213
0.558261
0.0207748
0.395733
0.0216243
0.33686
0.0241103
0.0227944
0.0210904
0.0203948
0.0296437
0.380067
0.383789
0.0213927
0.0308734
0.0208537
0.0224307
0.0232261
0.300647
0.0240094
0.0744957
0.0208461
0.0266896
0.0211355
0.0198824
0.0218628
0.0209489
1.63504
0.0211411
0.0225059
0.0223045
0.0218313
0.0199081
0.0507548
0.0215205
0.0220205
0.0208688
0.0209986
0.306507
0.0210425
0.0644275
0.0204313
0.0206145
0.0208565
0.0418456
0.0210498
0.0683261
0.0215707
0.0213532
0.0208824
0.336817
0.310193
0.40029
0.169543
0.647788
0.0213053
0.0228931
0.286471
0.0199424
0.351653
0.305466
0.0502944
0.0993143
0.0224034
0.305657
0.0232402
0.383984
0.288613
0.0223618
0.0215695
0.30348
1.09803
0.023839
0.0231863
0.0211994
0.021852
0.0331329
0.0209227
0.0199212
0.0221161
0.0894823
0.033747
0.0227742
0.374605
0.0208999
0.0199815
0.255078
1.37039
0.0342661
0.0219796
0.0907596
0.0205262
0.0199285
0.490873
0.0199087
0.0222863
0.308418
0.319579
0.0210602
0.48215
0.148149
0.0596208
0.201958
0.280862
0.0223335
0.713491
0.0216694
0.0208339
0.0213377
0.0215919
0.0209407
0.394925
0.0213422
0.492303
0.0203197
0.0361213
0.0217889
0.0341034
0.0224464
0.0211716
0.0400482
0.0203206
0.0199412
0.0742539
0.0219431
0.0277062
0.0211129
0.0200486
0.315003
0.883984
0.0225422
0.0195451
0.0195352
0.0204073
0.0217168
1.34487
0.0732287
0.191693
0.0305795
0.308735
0.0214266
0.0271663
0.0247503
0.0232568
0.100013
0.0211024
0.0210052
0.140906
0.0328038
0.362896
0.0210573
0.360084
0.385569
0.023899
0.0383225
0.0231591
1.34797
0.0214169
0.0242648
0.361494
0.0221146
0.0210693
0.0802441
0.0216205
0.0205024
0.0209877
0.169761
0.0216817
0.0251321
0.313517
0.0367728
0.0243471
0.0307755
0.175297
0.465385
0.157265
0.0199543
0.0214958
0.0219924
0.02253
0.0212304
0.635903
0.351507
0.0231846
0.44334
0.0468595
0.442538
0.0215195
0.342784
0.0212468
0.327558
0.0695477
0.0206167
0.676416
0.427638
0.0208553
0.0214613
0.0213378
0.211657
0.480987
0.0252351
0.0463729
0.0265518
0.0639876
0.320567
0.338212
0.0210512
0.0213875
0.356363
0.237799
0.0210836
0.0212763
0.0199547
0.0217222
0.0215339
0.0242096
1.16901
0.0212653
0.0233441
0.359269
0.0216568
0.0216927
0.0238032
0.649623
0.0215109
0.0224965
0.158348
0.0217843
0.0200257
0.0218378
0.0209114
0.0223088
0.380474
0.454761
0.021512
0.165976
0.0238466
0.161298
0.0213488
0.021921
0.0221676
0.0216838
0.324185
0.021299
0.0220728
0.0252177
0.0218303
0.0204528
0.0248407
0.0212164
0.0923172
0.0214748
0.0210426
0.589973
0.0210812
0.705584
0.0253966
0.0209504
0.0407687
0.0222362
0.0303453
0.0970035
0.0202154
0.338859
0.0209751
0.021376
1.34532
0.495056
0.0202302
0.0214686
0.0206707
0.0216327
0.0784704
0.0220927
0.021441
0.0219323
0.0217254
0.021941
0.0212709
0.0202547
0.0209567
0.0211837
0.425506
0.0236037
0.0200065
0.0383923
0.0214603
0.244663
0.0691022
0.0317113
0.0214536
0.0212368
0.0697622
0.0230211
0.0213505
0.0216271
0.386167
0.125895
0.0213582
0.0198106
0.0638254
0.047717
0.0196008
0.395725
0.0358557
0.0214154
0.0217945
0.0254434
0.0215787
0.0276424
0.453016
0.0214887
0.0546208
0.0264835
0.0299229
0.0198068
0.0213423
0.0198385
0.0198174
0.126705
0.0210762
0.0575352
0.0448798
0.0198267
0.0218416
0.0299455
0.0215599
0.021634
0.0213829
0.0223033
0.445976
0.019829
0.0214837
0.346159
0.0220708
0.0215854
0.0228895
0.0210941
0.0216075
0.0211866
0.0214797
0.0222365
0.0216923
0.095407
0.478778
0.0198198
0.0214139
0.0198231
0.0848812
0.0210088
0.0238207
0.0212826
0.0201839
0.0264943
0.0204117
0.028191
0.021395
0.0204261
0.310086
0.3484
0.0217212
0.0215943
0.0209562
0.077018
0.147353
0.0213851
0.385179
0.710245
0.0218417
0.0282346
0.386488
0.023253
0.376261
0.0400986
0.0407956
0.0211955
0.0293054
0.091968
0.0203668
0.301671
0.382164
0.021381
0.776355
1.6733
0.0234714
0.381532
0.0198036
0.025684
0.0428386
0.0212423
0.312513
0.0198035
0.0390969
0.0624729
0.0198047
0.348608
0.0217481
0.0218918
0.030973
0.0233781
0.231854
0.408206
0.0200648
0.0235195
0.278998
0.0207036
0.0241643
0.020809
0.385247
0.648534
0.0210964
0.021277
0.0244316
0.267576
0.299558
0.027612
0.0198181
0.0208981
0.305083
0.431456
0.0807223
0.0225977
0.0227174
0.0249607
0.020033
0.0221625
0.0239198
0.0228735
0.0208698
0.0238043
0.405201
0.112155
0.0209676
0.168319
0.0236151
0.0880321
0.74135
0.0416373
0.722073
0.0846208
0.0198172
0.115352
0.12309
0.438594
0.322461
0.021247
0.124042
0.327895
0.0400612
0.0241855
0.32449
0.321032
0.0210724
0.0245728
0.0239154
0.0212164
0.0685062
0.0212708
0.0220107
0.0206207
0.0198059
0.0216883
0.0213491
0.0224834
0.0248213
0.338145
0.0239914
0.315589
0.0208219
0.0256509
0.0215391
0.270766
0.612751
0.0211852
0.0429166
0.0212988
0.0202106
0.0212928
0.0201708
0.0210646
0.0914577
0.0215818
0.209376
0.0210277
0.0209459
0.420023
0.0223335
0.0217822
0.0211267
0.0212506
0.372831
0.0682136
0.42028
0.180507
0.657943
0.0215053
0.0217181
0.0213542
0.0236498
0.040382
0.0797226
0.358751
0.0209586
0.0396641
0.0220582
0.166649
0.334885
0.0241794
0.609637
0.790487
0.0224239
0.0373956
0.0209018
0.043875
0.0225608
0.0881911
0.0418699
0.0198173
1.47667
0.466708
0.0216296
0.0226634
0.021838
0.178815
0.0207675
0.0216878
0.44367
0.0208068
0.495317
0.0255929
0.0235893
0.0220502
0.0217574
0.481668
0.0211423
0.432431
0.023919
0.0212909
0.0207138
0.0540043
0.0223956
0.363717
0.0222568
0.0240134
0.0239862
0.0668597
0.0228191
0.0213121
0.328733
0.0216631
0.0204122
0.101492
0.32799
0.0238926
0.0205205
0.0220353
1.38215
0.0596358
0.0211533
0.0317914
0.0204343
0.10084
0.0424302
0.0218822
0.0211124
0.0871266
0.0209598
0.0207359
0.0213668
0.081193
0.619484
0.0217011
0.023847
0.0217503
0.0219809
0.385849
0.030091
0.0215761
0.02169
0.0210344
0.063143
0.454158
0.483789
0.0212263
0.133037
0.0202069
0.0201552
0.0217801
0.0219298
0.0384744
0.0213486
0.0466829
0.347843
1.4785
0.0236615
0.0214897
0.0215216
0.0362781
0.0206083
0.0212497
0.0316898
0.0214796
0.0212582
0.022092
0.0238989
0.0199961
0.584765
0.0408567
0.0235393
0.0231811
0.0263989
0.0229883
1.67666
0.0213628
0.0212565
0.0214759
0.0210461
0.0214558
0.0208689
0.121098
0.0894245
0.0215599
0.0220195
0.0212268
0.0234848
0.0227242
0.0479015
0.0220025
0.251873
0.0213024
0.0217931
0.0207126
0.076965
0.0214804
0.258143
0.021479
0.0215049
0.0195455
0.277376
0.0228836
0.070457
0.31296
0.0218764
0.0214719
0.0211256
0.0213987
0.0212793
0.0219567
0.024258
0.404856
0.0215631
0.0577744
0.207287
0.0231009
0.0987242
0.0215058
0.0231954
0.0209832
0.0203534
0.0202185
0.0213506
0.251305
0.0845866
0.0208314
0.498742
0.0542221
0.0212491
0.469477
0.0203288
0.0315047
0.0220474
0.0210192
0.633984
0.0214685
0.0223753
0.023567
0.0458725
0.0757965
0.0218982
0.0209711
0.0223049
0.619493
0.267311
0.0361976
0.0260901
0.0214475
0.0214023
0.347413
0.0216819
0.0278546
0.0280828
0.430792
0.0214549
0.0347
0.0214684
0.021752
0.0307387
0.0295729
0.0296678
0.0220512
0.0218406
0.025072
0.402581
0.0436372
0.0204053
0.0245189
0.091042
0.0230957
0.0381485
0.0216052
0.0216996
0.0213394
0.0239379
0.649499
0.0547966
0.0214573
0.963804
0.0235256
0.0256649
0.0214974
0.02134
0.0213586
0.0199144
0.0476971
0.0222661
0.0222706
0.0220051
0.0213423
0.0214461
0.164972
0.0214061
0.0213887
0.0217378
0.416077
0.139393
0.0214358
0.0211514
0.0214712
0.314971
0.0219671
0.0993725
0.0214622
0.0471413
0.02144
0.0216215
0.0409332
0.0216645
0.0309551
0.0216902
0.0214368
0.0203417
0.0224008
0.155814
0.0217513
0.0219387
0.32583
0.0215274
0.0222291
0.0219939
0.0215728
0.0212308
0.0219042
0.0314975
0.0207481
0.0208181
0.0209454
0.346059
0.0236343
0.397613
0.021501
0.0216715
0.59613
0.350881
0.314984
0.0252848
0.0293193
0.336238
0.0214916
0.41225
0.0219667
0.114238
0.02097
0.112121
0.339709
0.0195546
0.023249
0.022057
0.0222306
0.0198529
0.439062
0.0208953
0.33321
0.0216568
0.0213878
0.0217429
0.0198688
0.021753
0.115568
0.0213406
0.0211339
0.0211317
0.021569
0.0213696
0.164286
0.688157
0.460359
0.0214872
0.0201935
0.0234283
0.0214718
0.0213187
0.106435
0.03896
0.0223111
0.0213187
0.255125
0.0225201
0.0200483
0.451084
0.022579
0.0203045
0.0212838
0.0264113
0.349788
0.0214671
0.0212167
0.0536511
0.123416
0.0437407
0.620716
0.0212969
0.0236736
0.0234838
0.019897
0.0217229
0.324092
0.325358
0.428559
0.0212668
0.609283
0.0217013
0.0214741
0.0239268
0.0218848
0.0238991
0.0331779
0.0212304
0.0214716
0.0213184
0.0208833
0.0199569
0.0211295
0.0242867
0.315455
0.0260903
0.0195481
0.0199819
0.0212707
0.0218004
0.0213271
0.0785626
0.0219328
0.0219833
0.0218914
0.3299
0.0212475
0.0229252
0.529537
0.0213019
0.0212754
0.374169
0.021204
0.0213585
0.021223
0.185581
0.0269634
0.0369722
0.0217444
0.242527
0.0201636
0.0201458
0.0204176
0.0212473
0.0352292
0.0212665
0.0216402
0.0417785
0.0213465
0.398588
0.022534
0.027937
0.0217219
0.105279
0.0304324
0.021464
0.0211277
0.0219201
0.0215449
0.021318
0.384696
0.0209668
0.0439353
0.0211646
0.021574
1.61799
0.0210645
0.986801
0.0811566
0.0212939
0.0523055
0.0211445
0.0218292
0.0212479
0.0217403
0.0207246
0.0213262
0.021291
0.0213547
0.106495
0.0214864
0.0209625
0.0217955
0.0207939
0.0212057
0.0212064
0.0214132
0.020514
0.0213065
0.0212602
0.02137
0.021253
0.0218538
1.38805
0.0211282
0.0218758
0.0447488
0.322992
0.0199295
0.0254407
0.0209777
0.0210431
0.0212815
0.0214328
0.66111
0.325835
0.0211075
0.0225998
0.320637
0.0215384
0.0198421
0.390976
0.0199265
0.354205
0.0214687
0.0667007
0.0235503
0.237389
1.41294
0.460142
0.0209883
0.021102
0.01997
0.0239707
0.0617197
0.0223922
0.0571598
0.425791
0.0213688
0.249035
0.0451794
0.0205803
0.0203988
0.0307359
0.029585
0.0212907
0.0210235
0.0200986
0.0238589
0.0237822
0.0240775
0.0237126
0.02396
0.400822
0.0210728
0.021242
0.0211528
0.219226
0.0238921
0.0239248
0.158996
0.418419
0.0230833
0.0210403
0.0237498
0.0212188
0.0330512
0.0213517
0.0219865
0.0500767
0.0239736
0.0999229
0.0198197
0.301901
0.0331682
0.0872849
0.327597
0.640833
0.0211135
0.0213404
0.0213305
0.0908351
0.0214054
0.0208836
0.0213319
0.0278541
0.591928
0.271048
0.0236334
0.0228173
0.398947
0.0358681
0.287073
0.0441127
0.0441657
0.0366751
0.531064
0.306193
0.0211084
0.0211219
0.0211323
0.0385952
0.0233157
0.0375349
0.0208363
0.0212347
0.0212199
0.193733
0.021174
0.0211805
0.0210536
0.0324009
0.0209489
0.0211539
0.0203174
0.0246539
1.22377
0.0271431
0.023607
0.0214928
1.10293
0.0255608
0.0199143
0.0213236
0.0199101
0.181004
0.0215334
0.0215754
0.17814
0.021145
0.0210013
0.0209641
0.0214133
0.0834085
0.0209991
0.0215243
0.0211112
0.0216189
0.0212334
0.0211374
0.0210562
0.0212331
0.0213337
0.399222
0.0212422
0.0206812
0.0775382
0.048448
0.0256514
0.0624887
0.0209794
0.212459
0.0212862
0.027608
0.0210802
0.458809
0.0211139
0.0212276
0.0201305
0.318938
0.0240239
0.0211975
0.805347
0.0212073
0.0201266
0.0212126
0.0219586
0.0262714
0.0209589
0.405774
0.0214439
0.0363427
0.0381604
0.0213421
0.0317321
0.0210004
0.0206083
0.0211846
0.344102
0.0246112
0.0246372
0.0385944
0.820002
0.025679
0.0313808
0.024034
0.0213006
0.0197742
0.175903
0.405949
0.0209775
0.0333553
0.0208956
0.0210169
0.391677
0.0205118
0.0212746
0.139444
0.0389119
0.477109
0.0212905
0.0210314
0.0349982
0.020941
0.0200119
0.3996
0.0211957
0.0259945
0.841567
1.3538
0.0213244
0.0221476
0.021121
0.0198272
0.0238883
0.0215677
0.0213985
0.0316726
0.0206744
0.0244259
0.0213465
0.0222981
0.0233545
0.588
0.0239114
0.0216797
0.167136
0.317229
0.0212349
0.267783
0.02162
0.0212619
0.0213261
0.0209803
0.0235597
0.0195075
0.316637
0.0211596
0.0236564
0.0217627
0.0197353
0.0210357
0.0212756
0.0232388
0.0208136
0.0211423
0.0218657
0.0214265
0.368322
0.0213636
0.0219891
0.0469961
0.0221416
0.020216
0.317058
0.242665
0.371728
1.44636
0.063616
0.0205559
0.0220199
0.564913
0.721599
0.025824
0.240719
0.31962
0.0214636
0.282808
0.411101
0.0214944
0.195633
0.0218503
0.570073
0.2625
0.42224
0.0219143
0.0210049
0.0499026
0.0212604
0.0213517
0.13599
0.0867946
0.0213287
0.021407
0.0211045
0.689915
0.021085
0.0210588
0.021227
0.0209988
0.0210121
0.181185
0.0217972
0.0209579
0.0213689
0.0286417
0.260319
0.632775
0.0212786
0.0211268
0.0224885
0.0212725
0.0209901
0.0211224
0.615743
0.0212207
0.0338073
0.0211316
0.0214526
0.0202998
0.0213099
0.454781
0.24188
0.0205351
0.0216587
0.303506
0.415072
0.0396959
0.508541
0.0213052
0.0287228
0.021103
0.0197239
0.0210977
0.020142
0.0210617
0.0212381
0.0215733
0.110224
0.0199103
0.371409
0.600384
0.0198166
0.0294115
0.0419966
0.0218315
0.0211217
0.021204
0.0211144
0.0210326
0.311479
0.0197863
0.0210703
0.213907
0.0210946
0.0212862
0.0209781
0.0292984
0.0213706
0.0213592
0.651594
0.0206626
0.0205972
0.0210856
0.0327872
0.0212414
0.019607
0.0210922
0.0199181
0.517389
0.138885
0.0210279
0.127382
0.0197584
0.0212454
0.0216625
0.261742
0.87054
0.0200044
0.0228154
0.0213072
0.0211406
0.021097
0.0210907
0.27209
0.319739
0.0212793
0.021807
0.0259862
0.0209571
0.0210611
0.0239431
0.0261466
0.658857
0.0212936
0.023403
0.413433
0.0211178
0.0234987
0.292181
1.35436
0.0206578
0.0209453
0.0209146
0.0211174
0.0209687
0.276147
0.021047
0.419114
0.26613
0.021827
0.0235156
0.307228
0.0199965
0.132689
0.344106
0.101771
0.0246903
0.0211758
0.0222187
0.273014
0.0208169
0.0261237
0.0209522
0.0200083
0.0200708
0.0201231
0.0211257
0.412491
0.0215698
0.449761
0.111686
0.0761231
0.479626
0.0197489
0.0213692
0.0225604
0.343851
0.0211636
0.62789
0.0235009
0.0200002
0.0209269
0.268934
0.0209214
0.0251642
0.321819
0.0210422
0.332368
0.0217662
0.0416226
0.156809
0.0213779
0.0205894
0.037547
0.120113
0.0211897
0.0225739
0.0201759
0.0211434
0.0208631
0.397046
0.0209919
0.0198938
0.0543081
0.0200986
0.334768
0.0213959
0.0211711
0.0211143
0.532828
0.0209662
0.0208873
0.507172
0.120928
0.408038
0.0213087
0.0201137
0.0320203
0.731694
0.0764459
0.152596
0.0235403
0.0238401
0.0215257
0.0212639
0.02394
0.0217114
0.0210815
0.0203743
0.0298398
0.0238985
0.0209184
0.0196082
0.0214918
0.0205773
0.0211912
0.0235894
0.100623
0.439311
0.0246728
0.449131
0.4014
0.0206292
0.0209379
0.02193
0.0326349
0.0201963
0.0213713
0.0209043
0.0209915
0.0211362
0.049735
0.0212648
0.0376058
0.0212581
0.0208378
0.0129218
0.0338666
0.0213756
0.0208694
0.0208426
0.642755
0.0678799
0.021463
0.0202222
0.0215503
0.0209295
0.0212273
0.0210049
0.107495
0.0209896
0.0208394
0.0920951
0.0204704
0.0671947
0.0235137
0.0210227
0.0213023
0.252454
0.0412242
0.272755
0.512782
0.0233563
0.0221218
0.0216603
0.0212376
0.0269972
0.0208113
0.699914
0.634735
0.0224845
0.0344474
0.279358
0.0208392
0.463762
0.0229851
0.247369
0.0218171
0.020773
0.0207895
0.0217047
0.0210707
0.0529007
0.395576
0.0330711
0.0211656
0.0209027
0.0208487
0.0653158
0.0230455
0.0135728
0.0208719
0.0212069
0.0317525
0.0210193
0.114004
0.0469765
0.0208674
0.0213671
0.0197121
0.0211659
0.330179
1.4713
0.0208511
0.0210439
0.0206534
0.309502
0.0211426
0.0233978
0.140729
0.109306
1.38698
0.147938
0.509137
0.0212379
0.0261948
0.021527
0.0210695
0.0226937
0.04625
0.020457
0.0210992
0.0356145
0.0212463
0.0201428
0.322949
0.0198647
0.0210524
0.0348901
0.344897
0.0200067
0.0201973
0.0421003
0.317819
0.038151
0.347196
0.0212741
0.654746
0.02097
0.0242054
0.0457331
0.776429
0.413832
0.0244287
0.668319
0.0739186
0.20496
0.0206006
0.0210063
0.0202138
0.0212365
0.104817
0.0207589
0.0471719
0.0199677
0.0214943
0.0213125
0.426939
0.021316
0.168123
0.0231237
0.0257097
0.0276623
0.0214287
0.0582999
0.0197029
0.0344647
0.0212322
0.0652637
0.0214015
0.0367182
0.233662
0.0254317
0.372287
0.0207825
0.389189
0.0234486
0.0244068
0.0213763
0.748996
0.0215143
0.0208814
0.0211954
0.154548
0.0214393
0.0197292
0.0396204
0.0244325
0.064823
0.0208316
0.0199977
0.788795
0.0360997
0.328077
0.504098
0.0208448
0.0190759
0.453221
0.0450547
0.0206666
0.033216
0.328757
0.0207604
0.0215835
0.0197744
0.0655844
0.373984
0.276403
0.0348427
0.0207921
0.0206519
0.0216641
0.0201732
0.022212
0.0236264
0.0219506
0.0203739
0.496893
0.0216871
0.0212034
0.0215636
0.272492
0.141553
0.0214158
0.0230978
0.0236776
0.466657
0.0207748
0.325323
0.0212984
0.0337487
0.530715
0.0213763
0.374031
0.0203956
0.0197874
0.0207904
0.0208255
0.0206402
0.0208163
0.0197538
0.132761
0.0234556
0.0209939
0.477907
0.020869
0.0212735
0.0206314
0.662395
0.0208905
0.0226064
0.03937
0.0361301
0.0208979
0.0197628
0.618694
0.0211898
0.477595
0.283945
0.0212687
0.021632
0.030744
0.233892
0.0260287
0.02017
0.0206286
0.0223539
0.027198
0.0228441
0.0299877
0.0377826
0.0217674
0.0216883
0.0236449
0.0219265
0.0342018
0.492863
0.0205461
0.338749
0.0319072
0.0212755
0.0209154
0.0208759
0.020848
0.0206373
0.020999
0.0207357
0.0215762
0.0275838
0.0224788
0.0210238
0.022998
0.0242256
0.0205828
0.020702
0.0889435
0.0223355
0.0225795
0.0205662
0.021383
0.0205423
0.0199727
0.432626
0.0213311
0.0210535
0.438086
0.527958
0.381868
0.0208749
0.249773
0.0214515
0.10168
0.482088
0.021699
0.535642
0.0206712
0.020288
0.456937
0.0208333
0.0480108
1.38608
0.4497
0.0235491
0.226378
0.0211698
0.0208197
0.021956
0.0206396
0.439238
0.384265
0.0208602
0.454893
0.0731372
0.0197102
0.0206545
0.0244179
0.208659
0.0738884
0.0243785
0.289315
0.489231
0.0212169
0.446832
0.4685
0.15641
0.559544
0.0206976
0.465126
0.0197488
0.297809
0.304467
0.0197868
0.791656
0.398791
0.0374175
0.0196237
0.345026
0.0203869
0.0206599
1.66937
0.703293
0.02067
0.0211083
0.14269
0.0197398
0.0242415
0.0207848
0.0410309
0.121152
0.0220153
0.0214493
0.317298
0.0339125
0.232885
0.330071
0.0207664
0.288034
0.0210174
0.363081
0.0245909
0.0200835
0.400955
0.0213233
0.160171
0.0213457
1.60097
0.0210879
0.0210254
0.0202244
0.0213307
0.0204858
0.0214962
0.15053
0.614648
0.020585
1.1999
0.0712127
0.0203083
0.0205506
0.48796
0.0616494
0.174577
0.45334
0.23843
0.0205536
0.0211857
0.229689
0.0248648
0.361239
0.0288254
0.0206149
0.0212156
0.0205955
0.0197856
0.0205882
0.0328315
0.0205704
0.337117
0.0208926
0.0213437
0.0757909
0.0197528
0.0330502
0.682588
0.0207915
0.0207699
0.020947
0.0276791
0.0196231
0.020153
0.268688
0.369133
0.0258101
0.0213565
0.0297193
0.0205215
0.0209481
0.0212367
0.301167
0.190096
0.315226
0.412012
0.0306577
0.0408181
0.0834652
0.0210089
0.0226996
0.019633
0.0196192
0.0231318
0.0208036
0.416115
0.290241
0.0228702
0.627336
0.0282867
0.421468
0.313398
0.0200113
0.066579
0.0230165
0.0357316
0.0213041
0.020445
0.0201095
0.0292173
0.414451
0.461018
0.445079
0.0209576
0.189755
0.0205738
0.174517
0.412448
0.0204643
0.0217673
0.0208837
0.680144
0.314502
0.021618
0.0196131
0.0326893
0.0223993
0.307782
0.0214353
0.0209689
0.475554
0.301424
0.0205166
0.0237002
0.0206774
0.0233291
0.0214959
0.462655
0.020696
0.0215343
0.0461436
0.0213302
0.020837
0.238746
0.0452332
0.0214388
0.0212533
0.0216371
0.0205827
0.0204906
0.0942004
0.406116
0.0208258
0.0237115
0.0208156
0.0213525
0.0213408
0.0211125
0.418599
0.372287
0.0745072
0.377495
0.020746
0.0241509
0.0208319
0.02113
0.0524286
0.0212706
0.15342
0.0207129
0.284098
0.021405
0.232619
0.318931
0.0202051
0.0208251
0.0464983
0.0343028
0.11108
0.340398
0.216238
0.419169
0.0236557
0.021177
0.302333
0.0207469
0.315896
0.0199217
0.0743803
0.0273733
0.0208148
0.0210068
0.020859
0.036316
0.281393
0.0209538
0.0823846
0.0213682
0.0442551
0.0204646
0.0236903
0.0291052
0.0204317
0.55309
0.0678213
0.0201856
0.388172
0.0616709
0.0712365
0.0204526
0.354591
0.0206526
0.0202141
0.0314761
0.0204505
0.160765
0.019959
0.0207975
0.0204986
0.0233228
0.335716
0.0207359
0.383286
0.019704
0.0248217
0.33562
0.0209237
0.340756
0.0486164
0.0319392
0.0980842
0.0210385
0.0205279
0.930525
0.0204712
0.020355
0.0206584
1.7307
0.33459
0.160855
0.703304
0.0200912
0.0210204
0.020555
0.0321724
0.0206485
0.526138
0.102893
0.0212281
0.367556
0.0223178
0.293929
0.020373
0.0201616
0.0230279
0.0213
0.202732
0.472141
0.0203109
0.0218002
0.0206807
0.431605
0.135248
0.020826
0.423284
0.020967
0.0212919
0.0197199
0.0200403
0.0844975
0.321853
0.0204288
0.355271
0.390309
0.019761
0.440451
0.0205939
0.0208797
0.0633173
0.0203142
0.444551
0.0197916
0.0217676
0.362257
0.0197487
0.0200716
0.0208694
1.93785
0.0245786
0.667354
0.157241
0.0239113
0.0232164
0.161847
0.0204928
0.645114
0.0346971
0.0206259
0.292775
0.622951
0.0442584
0.121678
0.0251896
0.0203596
0.434531
0.0644202
0.289912
0.314969
0.0204622
0.0203081
0.0207299
0.388373
0.0202882
0.0201353
0.274198
0.0250483
0.0212732
0.0203422
0.0208263
0.0202696
0.0202566
0.109581
0.0208142
0.202726
0.329596
0.0208504
0.0227606
0.0206158
0.0203791
0.268467
0.120506
0.504449
0.489919
0.0204951
0.0206603
0.0352509
1.38
0.334672
0.020399
0.550379
0.384119
0.0199081
0.0379163
0.0272146
0.0201299
0.0208315
0.0205873
0.0209155
0.0200774
0.0597247
0.405872
0.020754
0.28778
0.0213192
0.0331834
0.0208961
0.0213233
0.0267171
0.0598954
0.0257774
0.0203193
0.0197973
0.0202752
0.0202708
0.386996
0.0455531
0.390193
0.0707253
0.295868
0.0217109
0.0202949
0.0510864
0.294655
0.0212162
0.354071
0.0220986
0.0197485
0.149469
0.367161
0.0214368
0.0245779
0.0729565
0.619793
0.0281175
0.0202575
0.0234283
0.0206942
0.215616
0.0206472
0.359177
0.35699
0.0343281
0.209117
0.04068
0.0354777
0.303284
0.0208523
0.020306
0.0206517
0.0207256
0.329853
0.0206054
0.0206125
0.0237295
0.0210351
0.0201769
0.237423
0.252047
0.314511
0.0202016
0.350282
0.31817
0.260221
0.0207036
0.0203239
0.021854
0.0201547
0.306931
0.0232201
0.0202642
0.0278923
0.0205618
0.336373
0.0471497
0.0205938
0.583752
0.130258
0.0203402
0.321496
0.38756
0.0948552
0.0207282
0.304424
0.366336
0.0196296
0.0204932
0.36425
0.0199651
0.0208317
0.403804
0.0210695
0.0203583
0.020503
0.0203236
0.289354
0.020162
0.020333
0.317616
0.0817293
0.0204766
0.020732
0.234407
0.30862
0.021047
0.107024
0.0203726
0.662009
0.0701718
0.0215325
0.0202044
0.312688
0.466055
0.0216778
0.0200863
0.385723
0.0231307
0.0201862
0.713852
0.0209066
0.0776509
0.0204584
0.364571
0.326543
0.262655
0.346108
0.0204057
0.284323
0.0208434
0.0284156
0.316188
0.0201416
0.0481859
0.019806
0.385574
0.020678
0.0203309
0.019958
0.0204404
0.0202118
0.0200976
0.0448028
0.0214317
0.0640132
0.0216736
0.0196926
0.0218849
0.380275
0.0205392
0.288236
0.0202553
0.0210703
0.466969
0.0211279
0.317282
0.0233378
0.148562
0.0200596
0.0201181