/*--------------------------------*- C++ -*----------------------------------*\
| =========                 |                                                 |
| \\      /  F ield         | OpenFOAM: The Open Source CFD Toolbox           |
|  \\    /   O peration     | Version:  v2012                                 |
|   \\  /    A nd           | Website:  www.openfoam.com                      |
|    \\/     M anipulation  |                                                 |
\*---------------------------------------------------------------------------*/
FoamFile
{
    version     2.0;
    format      ascii;
    class       volScalarField;
    location    "1000";
    object      ddt0(k);
}
// * * * * * * * * * * * * * * * * * * * * * * * * * * * * * * * * * * * * * //

dimensions      [0 2 -3 0 0 0 0];


internalField   nonuniform List<scalar> 
10042
(
0.000144765
-0.00735039
0.000144858
-1.44881e-07
2.04123e-07
-0.00329427
0.000298868
-0.00296932
2.99962e-08
-1.76818e-06
-0.00317933
-0.00903577
-1.32251e-06
2.36248e-07
-4.7058e-08
1.92462e-07
-0.00440603
-0.00249253
7.11467e-08
1.61479e-06
-1.34901e-06
0.000168524
4.86625e-08
-9.24855e-05
6.94156e-08
-7.74744e-09
1.75359e-07
2.14102e-08
-0.00404394
0.00376385
-1.24819e-08
-2.88431e-06
9.66337e-08
1.42328e-07
-0.000947115
0.000505494
2.1629e-07
-3.62595e-08
5.56219e-08
-2.26806e-06
0.00229082
8.51843e-08
0.00387928
-0.0137729
1.99913e-08
-1.00851e-07
-1.55611e-08
-1.55411e-07
8.01279e-07
0.0699541
0.00945375
-2.57223e-08
-0.00376128
8.17152e-08
-0.0217209
0.000112816
-1.09495e-06
6.21251e-05
2.50834e-07
-5.35993e-09
7.35038e-07
-0.00462252
7.63477e-05
-0.00270405
-2.6104e-05
2.85478e-07
1.41607e-06
0.000474621
-7.96215e-09
0.00041393
0.0561148
7.46293e-07
3.48394e-08
2.21709e-07
3.26367e-07
0.0350275
7.12031e-05
-9.79028e-09
8.95635e-05
9.32178e-08
-0.00917621
0.00100195
4.0258e-08
-1.40636e-07
3.36567e-06
1.25003e-06
9.91778e-07
8.14499e-05
-2.63233e-07
2.33327e-05
-5.55605e-07
-1.76663e-08
5.21927e-05
2.888e-06
0.00010807
-2.55515e-07
0.0120359
1.50836e-06
0.0035634
4.31965e-08
-3.33476e-07
2.74909e-06
5.89348e-07
-1.85577e-06
2.28163e-08
3.4389e-08
-0.0151565
2.56714e-07
0.000172092
2.23603e-07
2.94397e-08
4.61619e-05
-1.71766e-06
-0.00215398
-2.31133e-05
-3.99177e-08
4.48456e-05
8.1529e-08
4.33362e-05
-4.27284e-08
-4.55224e-09
-0.00915248
-0.00968595
-1.2213e-07
3.41514e-05
-1.85812e-07
3.59698e-08
-0.021527
-0.000122053
5.63075e-05
4.25665e-08
7.76296e-08
-3.80178e-07
2.7447e-08
2.20172e-05
0.036419
-2.84918e-07
0.00793077
4.02191e-07
0.00764019
-7.2725e-07
3.50262e-08
-0.00928124
1.87018e-08
4.36024e-07
-5.28341e-08
1.74064e-06
-8.57649e-09
6.64164e-07
0.00783353
9.47184e-08
-2.40725e-08
-6.07338e-08
-2.25499e-06
8.1574e-05
4.75645e-07
-9.16145e-06
0.00247462
-3.43487e-07
-1.59201e-08
1.98897e-08
-3.5733e-06
0.0226546
-8.31714e-08
5.10759e-07
0.00550079
5.25282e-08
-2.12912e-06
0.000146276
1.4556e-07
-0.000277025
0.00418761
-0.00308809
1.57782e-07
6.70936e-08
-0.00611674
6.16327e-08
-5.39736e-08
1.12154e-07
7.39998e-09
5.38161e-07
1.47666e-07
2.18775e-07
-6.96572e-08
-0.0022806
-6.85743e-07
6.13044e-07
-3.01446e-09
0.00823498
-1.6534e-08
-0.00645634
-1.09789e-06
1.05712e-07
6.56989e-08
-0.0175769
-4.6053e-08
-0.0188543
-0.000618617
0.0123991
-1.17542e-07
0.00393712
-3.75105e-05
0.000507151
-7.18183e-08
0.00461357
-3.77961e-07
-0.00376126
-1.93381e-06
-1.65504e-07
4.05542e-08
-2.49975e-06
-5.14327e-08
-0.00313536
0.000111778
2.35653e-07
0.000102624
-1.66775e-08
0.015447
-1.70436e-07
0.00350739
-0.00613945
-0.000191418
-0.00411642
0.000110192
-2.04829e-07
-5.92185e-05
9.91114e-08
-4.76218e-07
6.52916e-07
6.19484e-07
-1.76303e-08
-8.99904e-08
-6.20927e-07
1.07986e-08
1.0045e-07
-0.00155889
-7.90093e-07
0.0136854
3.64584e-07
-0.00079704
0.00458087
0.00195613
-9.04923e-09
-5.74373e-06
-0.00706577
2.02113e-07
0.00182869
4.64321e-07
-1.31714e-07
1.72558e-07
5.62714e-08
1.1725e-07
3.63574e-05
-0.0196725
6.16384e-07
-9.61309e-07
-7.3745e-08
2.20898e-07
0.0139672
-1.81539e-07
3.64296e-05
4.39388e-08
-3.19459e-08
-1.30564e-08
-1.51487e-06
-0.00980466
1.2979e-05
-0.00060333
-2.8942e-07
-2.2291e-07
-3.5419e-07
0.0929965
1.68251e-07
0.0671746
1.13046e-08
2.16356e-06
-1.34569e-07
1.39973e-07
-2.86106e-07
-0.0172655
5.97402e-08
-0.000584324
-0.0262353
1.607e-07
1.01625e-06
-0.00558338
5.89409e-05
3.21198e-08
-0.000280761
-5.33192e-08
-7.22726e-07
1.42204e-05
3.25101e-07
-0.000679124
-3.47583e-05
-1.40463e-08
-0.00184949
-5.92426e-07
-3.21421e-07
-1.46924e-08
1.44551e-07
0.000107706
-4.80522e-09
0.00698676
6.54553e-05
-0.0083939
2.65037e-07
-2.08391e-06
-0.00105645
-0.000940702
3.34292e-08
-4.46203e-08
-1.08452e-07
1.28593e-08
1.26846e-05
-0.000252522
-6.83099e-09
-0.00226847
-0.000432227
-4.34864e-08
-7.89692e-09
0.0544272
5.31996e-06
0.0016446
-0.00304789
2.4864e-07
-5.6175e-06
3.86328e-08
-7.11734e-07
-3.88336e-07
-3.86326e-07
-2.91279e-07
8.22323e-05
2.69291e-08
-0.00413533
-0.000385205
-0.0171398
0.00139764
2.13397e-07
0.00283228
1.33015e-06
-1.1663e-06
-8.7146e-09
1.20455e-05
-9.29043e-08
-2.33678e-08
3.59188e-08
-6.39481e-09
8.27647e-07
0.0139977
-1.20724e-07
0.00011388
8.9582e-07
9.91998e-09
-0.0203149
-1.45361e-05
1.92171e-07
-2.27038e-08
0.0087628
2.45878e-09
-9.2328e-08
2.88644e-07
4.92464e-07
0.00113124
0.00116062
3.95555e-07
-1.23617e-07
8.51776e-08
8.04794e-07
-0.0229467
-2.82438e-09
-2.1654e-07
1.8926e-07
-1.54021e-09
2.16957e-07
1.43649e-07
1.54694e-05
0.00072973
0.00011797
1.7817e-06
-1.82715e-07
0.00102245
1.0947e-06
6.30392e-08
-3.73784e-06
-3.95529e-08
2.27919e-08
-7.47277e-08
9.49985e-08
1.63473e-08
-1.54849e-07
-0.0330072
-1.04305e-07
-2.14537e-05
0.000502766
-0.0262181
-4.16192e-08
-0.0020419
1.06018e-06
-3.1352e-06
-6.91853e-08
-0.00347132
1.2166e-06
-0.0253037
0.0211645
-1.7525e-07
-3.89653e-06
-8.86423e-07
0.00158216
-3.40302e-07
-0.00447987
3.29984e-07
0.00130224
-2.55561e-07
-0.000356621
6.52715e-07
5.48532e-07
-0.0228661
1.35109e-08
5.9729e-07
5.5738e-08
-0.00132693
4.83968e-08
-6.71685e-08
-6.32751e-06
-1.91661e-08
1.58016e-06
-0.00501692
-1.90751e-07
-1.16406e-06
8.56097e-08
1.15384e-08
2.66324e-07
0.000380991
-4.27409e-07
3.54792e-07
0.0227792
9.65655e-06
6.19147e-08
-0.00301893
4.54168e-09
9.59739e-06
-7.51096e-07
0.0155015
0.0697512
-0.000592247
3.67888e-05
0.00752012
-0.00270506
-5.39651e-08
2.16642e-07
-0.00525976
-0.00556576
-3.28353e-06
1.64737e-07
2.55579e-08
3.23876e-06
0.00492667
-8.1956e-08
-8.55449e-08
2.1997e-07
3.20229e-08
5.05539e-07
8.25688e-07
7.73056e-08
4.70182e-08
-0.000355267
1.29158e-07
8.10768e-06
-0.000253995
0.00429347
1.00852e-08
-0.0180058
0.0284634
-0.00650183
1.29741e-08
-1.93262e-07
-2.13362e-09
-0.02173
-2.85424e-07
-0.000331515
-2.52238e-07
0.00533705
1.54749e-08
3.28096e-09
5.70794e-08
4.8975e-06
0.00136851
7.56e-08
-1.05527e-07
3.70728e-08
-0.00921926
4.56139e-08
-6.21209e-05
7.37653e-05
-5.05129e-06
2.49475e-08
-8.00047e-05
-0.000313677
0.00261209
-1.36538e-07
-9.42462e-08
0.000100339
-0.0109199
3.88846e-08
0.00126263
-2.94577e-08
-0.00143296
1.22334e-06
9.45422e-07
5.04203e-07
-0.00368439
-5.36254e-08
1.06107e-07
2.72639e-07
-0.00154764
-3.92944e-07
0.000874142
-3.78712e-07
-1.04709e-07
-4.65562e-08
6.76291e-07
0.00174039
5.81849e-07
3.66445e-07
0.00285194
-0.000671046
-6.83696e-06
4.82899e-07
3.12877e-07
-0.00214486
0.00324044
-2.00066e-07
1.0127e-07
2.56967e-05
-2.8954e-07
1.09729e-07
-0.00546829
3.94028e-08
-0.00668526
-1.23452e-07
-1.0226e-06
3.83506e-06
-0.00225462
-4.24278e-07
-3.77069e-07
-2.9993e-07
3.47461e-08
0.00274191
-9.92556e-09
-0.0112946
1.05847e-08
4.27807e-08
2.29654e-06
-0.0218506
0.00918521
9.66543e-05
6.86562e-08
9.3628e-08
-3.11584e-08
-5.36417e-07
4.40726e-06
2.67314e-07
-0.0115314
2.49821e-08
6.9078e-09
0.000959976
7.11726e-08
2.07516e-06
2.42398e-08
7.89908e-08
0.000242951
0.000459782
3.37488e-06
-0.00299403
-3.00407e-07
-5.72329e-07
1.03091e-07
2.17821e-08
8.9613e-08
-3.54858e-08
-1.34842e-07
-4.59115e-09
-0.00200204
-3.20074e-07
0.000408001
-5.6772e-08
2.00893e-06
-3.78188e-09
1.32492e-06
0.0120161
2.01387e-08
9.45615e-08
-0.00284656
-0.000161706
1.20382e-08
-0.00331017
-1.58407e-07
8.39883e-05
-3.87957e-08
5.63862e-08
9.43276e-08
0.00186414
-1.4344e-09
-5.59002e-08
1.67175e-07
-0.00815473
1.52023e-08
2.47376e-08
-3.94493e-08
0.00236502
5.88181e-08
1.17198e-07
2.96546e-08
5.52198e-08
4.06794e-07
8.01383e-08
1.38277e-06
8.19958e-08
0.018781
-0.014875
0.00939423
-3.66321e-07
-1.37906e-07
-1.83576e-07
-0.00237376
7.09295e-07
-8.10759e-05
-0.00467848
0.0100742
4.90898e-05
0.00190031
-3.73057e-07
-1.94385e-07
0.000315819
0.00149375
-3.01298e-06
-4.12675e-06
-1.31577e-07
0.000498925
-1.24001e-07
-1.80581e-07
1.74222e-08
5.87187e-09
-1.03238e-07
-6.81554e-05
1.38626e-07
-1.63829e-08
-0.0474604
2.30343e-07
-0.00280282
-1.22783e-06
2.7821e-07
1.64993e-05
-6.18107e-08
-0.00253607
-2.58975e-08
1.25822e-07
3.08938e-05
-1.30205e-07
-4.58377e-10
-4.74342e-09
-1.39434e-07
-1.18871e-07
0.00382552
-0.00905946
-0.0163138
-1.21732e-07
-1.00696e-07
-1.55513e-07
0.000850651
7.49967e-07
3.44791e-07
-1.22014e-08
-1.12221e-07
0.00232138
0.049119
4.48787e-05
1.48706e-07
-3.38733e-07
0.0253666
-5.61219e-07
1.12446e-06
6.17584e-10
0.002903
-0.0141219
0.00196474
-1.24631e-07
2.72413e-08
-3.15919e-10
-0.00137421
6.17969e-08
-2.56847e-07
-1.66669e-07
-1.35754e-08
9.34235e-06
-4.18747e-07
0.00734205
-0.013643
2.8101e-08
4.10776e-08
-4.04641e-08
-0.00143812
7.14638e-09
-0.00449087
-6.56907e-07
0.0102062
-1.62339e-09
-1.20499e-07
1.31628e-08
4.20109e-08
-1.04196e-07
-9.38778e-09
-2.89331e-07
-1.14592e-07
-2.45472e-05
1.03803e-07
0.00679562
-2.96358e-07
0.000264639
0.00220929
8.72702e-07
3.60338e-05
-2.46408e-08
6.71517e-08
1.57055e-06
3.08631e-08
-0.0023643
-8.54699e-08
-4.16883e-07
-3.75399e-08
-0.0180239
-1.01646e-07
-0.000832364
-3.4403e-07
-1.07576e-07
4.974e-06
-0.00209973
-8.90373e-07
-3.65011e-08
-4.04275e-06
-2.61403e-07
-0.0058456
-8.16913e-06
7.10712e-05
-2.22692e-05
-1.38828e-07
-1.82964e-07
2.45001e-07
1.65095e-06
-2.89282e-07
0.00104284
2.70261e-05
-1.42896e-08
-4.66395e-08
1.12386e-06
1.69742e-06
-2.78427e-07
-0.00393285
-9.09366e-08
-2.58777e-07
-0.00495674
-5.78606e-08
-5.22721e-06
8.77334e-07
-3.13771e-07
0.000587794
-3.19042e-06
-2.02355e-07
-5.74903e-07
1.0587e-06
2.15899e-07
-0.0212679
-1.86059e-07
1.13957e-06
-3.19971e-07
-0.00641381
-4.83861e-07
8.94348e-07
4.16182e-06
4.85231e-08
2.45513e-08
1.42952e-08
9.17622e-07
1.38391e-08
-2.2433e-07
-1.12206e-07
-1.89836e-07
3.55855e-08
2.93915e-07
3.23513e-08
-4.06236e-08
2.55904e-05
-3.53088e-08
-1.22718e-08
-1.45133e-07
-5.80178e-08
7.92748e-05
4.35875e-07
3.43048e-07
2.11119e-05
0.000644407
-1.2001e-07
4.80126e-05
0.000757724
-6.83832e-08
-3.07008e-07
-3.83566e-08
0.00202284
0.00294009
4.09707e-08
-7.25502e-08
2.63195e-07
0.000921388
-0.0443783
-5.30128e-07
0.00259468
0.00115203
0.00551012
-3.77292e-06
-6.48918e-08
6.09955e-07
0.00649744
-0.000584284
-3.39464e-07
-0.0262314
0.000195364
0.00088811
-0.00135662
1.57363e-08
2.50173e-05
-0.0112778
3.099e-05
-0.00432096
1.42192e-06
-0.0124079
2.18691e-07
0.00185124
-1.43712e-07
1.07665e-05
4.19689e-08
-9.03936e-06
1.36164e-09
-1.92368e-07
8.60381e-08
0.00747279
-7.17019e-08
-2.71011e-08
0.000622002
-8.52791e-08
-1.03179e-07
-3.92388e-07
0.000800027
5.82204e-09
3.03196e-07
-3.68134e-07
-3.97757e-07
2.37983e-07
-3.52436e-07
2.15065e-10
0.0238483
0.000155494
0.000127704
-1.32986e-07
-0.0143399
-7.31261e-08
-5.39898e-06
-0.00226554
-1.2802e-06
7.88097e-08
-2.4263e-08
-3.89603e-07
1.31689e-07
0.0143933
-3.03412e-07
-1.35108e-07
-0.00282123
9.8159e-09
-4.91955e-08
-0.0032958
-1.07681e-08
-9.08044e-08
0.0122188
-1.32736e-07
0.000992944
3.76712e-07
1.48661e-05
-4.94864e-07
4.2212e-06
7.5067e-07
-9.95689e-08
0.0419892
0.038723
9.56514e-08
1.0378e-06
0.00757409
0.039572
9.65066e-06
-2.57256e-08
1.80235e-07
8.1718e-06
-6.33411e-08
-2.19961e-06
0.000504422
-1.12348e-07
-5.88474e-08
-1.61875e-06
-0.00642789
0.00240269
-3.06389e-08
-2.91764e-08
-2.0358e-08
-2.18773e-09
-0.00458944
0.00623388
-5.06027e-08
-1.84226e-07
0.00153537
2.03199e-07
-2.2803e-07
-0.0344693
7.91031e-07
-0.000575836
-1.73599e-06
1.31006e-08
-1.21171e-07
5.47614e-08
-0.000405623
8.83805e-06
2.31417e-07
-0.000578438
0.0202117
-0.00968965
1.73584e-08
6.03198e-07
-0.0308043
-2.46927e-06
3.1095e-05
-1.13219e-06
-2.08827e-07
5.66632e-08
-0.00911089
0.00645638
5.7444e-07
-2.97082e-08
-3.08392e-06
-4.98044e-09
3.44122e-05
4.26313e-07
-2.07733e-07
5.09658e-08
-1.77085e-06
-1.68929e-07
1.14674e-07
0.00264901
9.41847e-08
1.50596e-07
3.95678e-06
-1.99002e-07
-0.000177639
2.43265e-08
-4.17058e-07
-0.0123727
7.32259e-08
-9.52731e-08
2.74875e-07
0.000616557
8.0778e-08
1.99985e-08
-2.02533e-07
-0.00121347
-3.31918e-07
-4.61367e-07
3.51445e-08
-4.2772e-07
-6.024e-08
-0.0170598
2.28678e-07
-9.24623e-05
-1.53646e-07
-3.60291e-06
1.16038e-07
-1.33606e-07
-2.51209e-05
0.00529489
7.98269e-05
8.68583e-08
-2.58859e-07
0.0025782
-0.000184764
7.43172e-07
2.77654e-07
0.00080334
1.65229e-07
4.00749e-06
1.31036e-05
-2.40446e-07
-3.17444e-07
-1.7336e-08
4.84438e-06
-0.0108809
0.000155381
-5.77685e-07
6.78453e-07
-3.66822e-07
2.02625e-05
-8.65819e-08
-1.02979e-07
-2.83856e-06
4.54425e-09
-2.3313e-08
0.000167591
-5.00434e-07
0.00548417
3.93084e-08
-4.60012e-08
4.85686e-08
1.27687e-07
-5.46998e-07
-1.52211e-06
0.00974351
-6.88346e-08
-2.332e-07
0.00983363
-3.34291e-07
2.60553e-06
1.01513e-07
9.96137e-05
-0.00108906
-1.23011e-07
-0.00490903
1.58894e-06
-1.67133e-07
-0.00423768
3.72775e-07
-2.72511e-07
1.2245e-08
9.82474e-08
-2.32793e-07
-0.011009
1.82958e-06
-0.0017561
-0.000580532
-0.00118611
-0.000129017
-0.00197016
2.52571e-08
4.08776e-05
1.30593e-07
-5.84948e-07
-1.24167e-08
1.33039e-07
7.344e-07
0.00212651
-0.000901041
-2.32248e-08
0.00681284
8.41479e-08
3.79613e-06
-4.1815e-08
4.13274e-07
-1.03023e-06
1.57441e-05
0.00770141
-2.67969e-07
2.25623e-10
0.0973143
-3.45749e-05
3.61402e-06
4.12552e-06
0.00358454
-5.54021e-07
0.00338146
-0.00323282
7.30446e-08
-3.93162e-08
-5.22866e-08
5.14623e-07
1.12139e-08
3.36392e-07
-1.70512e-07
8.96129e-07
-5.33556e-07
-3.66236e-07
6.33226e-07
0.000100857
0.000507293
8.13991e-09
-0.0011877
-2.70719e-07
-3.12513e-06
-4.89932e-06
-0.000404233
-7.74484e-08
-1.60504e-06
-1.47834e-05
-3.90563e-08
8.73058e-07
0.00479785
1.60583e-08
-3.02338e-08
-3.18068e-08
0.00236897
0.000124477
-7.94841e-08
-0.00291345
1.30653e-07
7.22218e-08
0.0833727
1.15483e-07
2.83276e-07
1.60376e-07
3.91333e-07
-2.92211e-06
-0.00164272
-1.29913e-07
1.67617e-07
1.96731e-07
-2.86823e-07
-1.97721e-07
-0.00270252
2.82011e-08
2.89413e-07
-0.0201216
0.00391059
2.61073e-07
0.00435295
-3.9051e-08
-0.00152257
9.42947e-07
3.79796e-05
-1.31963e-08
0.000761163
0.0333494
-0.00796571
-1.49996e-07
7.82596e-05
0.000430645
-0.00126079
-2.80358e-07
4.65411e-05
-3.91497e-08
-0.00231256
0.00294259
2.49839e-06
0.0201855
0.00331011
-0.00389909
-0.0117593
3.08224e-05
0.0033102
-1.3803e-07
2.53623e-08
-0.000370438
6.10886e-06
1.90668e-07
0.00120541
4.57218e-07
5.97772e-08
-4.35105e-08
5.32222e-05
1.31314e-06
-1.22765e-06
0.00556526
6.70053e-07
0.000321456
-1.15265e-07
4.25462e-08
-2.56537e-07
-0.00436458
0.00157364
8.39863e-07
0.0027656
6.92527e-07
3.50566e-07
2.0953e-07
0.000517492
8.11887e-07
1.06746e-07
-0.00618578
0.0193029
-4.23931e-07
1.96536e-05
1.83285e-08
-1.54513e-06
1.07417e-05
-4.71462e-08
0.00401183
-0.00257905
-6.6604e-08
6.15537e-08
4.67638e-08
-0.000714272
1.98893e-07
0.0439624
-5.86796e-05
7.62629e-08
1.2878e-07
8.04965e-09
2.51917e-07
-2.47114e-08
4.63373e-06
-9.32402e-07
6.0762e-06
-0.000360375
7.21776e-07
-3.53322e-07
0.00314151
-6.89207e-07
2.32285e-07
2.56356e-08
-1.40489e-07
-0.042678
0.00163026
4.98699e-07
0.0292228
3.49663e-06
0.00169014
1.10759e-07
2.1864e-07
7.25202e-06
2.74934e-07
-3.45792e-06
-0.000316813
-5.53198e-07
-1.17904e-08
0.000862331
5.98616e-07
5.37556e-07
-0.000157403
0.000135637
0.000196267
7.5395e-08
1.63673e-08
-0.00121642
7.67705e-09
0.0100527
-0.00172971
2.60587e-06
0.0027869
6.13571e-07
-5.47272e-07
0.0426722
-0.00223668
-9.60691e-08
0.0729285
8.89772e-08
-4.38791e-09
-6.09034e-06
6.72535e-08
-3.88535e-07
-2.57227e-06
5.34738e-07
3.95903e-08
-2.22219e-07
-3.99128e-07
2.83008e-07
0.000318086
-1.13383e-06
-0.0032976
8.56147e-08
-4.3638e-07
-6.38253e-08
-2.35739e-07
0.00344237
4.30049e-08
-0.000247044
-0.00282895
2.65658e-07
-0.00336035
-1.49451e-06
0.000174907
-4.40909e-08
-0.000559068
-6.86073e-05
-0.00016222
4.67907e-07
2.13237e-08
-7.02073e-08
-5.71005e-05
6.15792e-07
5.9501e-05
-1.99805e-06
2.22729e-07
-0.0043524
-1.32704e-08
0.0109852
-3.07978e-07
-0.0115326
-2.71611e-07
-5.07625e-08
9.07964e-09
0.000515172
-1.19115e-07
-4.8197e-08
-1.67168e-08
-3.30099e-07
-4.4406e-07
1.38476e-05
-0.00489754
-1.44939e-07
-1.76906e-07
-1.64055e-07
-2.99988e-07
1.3167e-07
-9.58851e-05
-0.0284958
-1.93553e-07
-2.69663e-07
5.39573e-08
2.76673e-08
4.95145e-07
-5.19319e-08
7.78584e-08
-0.000668403
-0.0220973
1.54143e-05
-7.60159e-08
-3.31619e-07
1.93535e-07
-1.98874e-07
-1.31796e-07
1.93702e-07
-3.89011e-07
2.04584e-07
-1.18434e-06
-4.33416e-07
-4.96248e-07
-0.0151521
0.0217987
1.14109e-06
-3.32197e-07
4.66084e-08
-0.0161531
-1.35498e-07
-1.40893e-07
-2.93294e-07
-6.72968e-08
-3.19812e-07
7.7549e-08
-0.0102252
1.68936e-07
-0.00214105
0.00191955
-2.69969e-06
6.34465e-08
-8.8503e-08
0.00277549
-6.26792e-08
7.87971e-08
2.14853e-07
-2.1809e-06
1.50407e-07
-1.91584e-07
-7.46371e-06
0.00338241
-7.89243e-08
4.25869e-08
-0.0256785
-1.44247e-07
-2.12751e-06
-5.91254e-08
-0.00129267
-2.30255e-08
-7.88111e-08
0.00014443
-0.00444454
-4.06997e-06
2.2366e-08
1.77291e-07
2.2708e-09
-9.16735e-08
-0.000203422
0.00248484
0.00221125
-4.59396e-08
-0.016685
-5.88718e-08
-0.016907
-0.00333097
1.18209e-07
-0.00743045
-0.000491291
-7.34384e-08
-9.39252e-06
1.99302e-07
-4.15931e-07
-0.000275325
-1.19541e-07
-0.0410563
2.55211e-06
-0.0584618
0.0416601
-2.76505e-06
-3.4553e-07
-3.29067e-07
2.29828e-07
-2.22819e-07
2.06473e-08
5.83801e-08
0.00139339
2.60338e-07
4.50632e-07
-0.00012718
0.0323881
4.91804e-07
-1.75989e-06
-2.002e-08
-0.0501673
2.1069e-09
0.000306969
0.0245896
0.0304785
0.0180273
0.00227972
0.00137276
-1.33917e-08
-3.32123e-07
2.02884e-08
1.35695e-06
1.469e-07
0.0158098
-1.65136e-07
-0.00621897
-2.07235e-07
1.78945e-08
-5.01063e-08
-9.90464e-08
1.47893e-07
-0.000797829
0.0130319
0.00981195
-1.10193e-07
-7.20809e-08
-3.47233e-08
-3.889e-07
-2.73753e-05
-1.83698e-07
0.000682371
-0.000292908
1.68438e-07
1.26565e-06
-0.000147084
-2.14197e-07
-6.733e-05
-0.00092686
2.23058e-08
0.00333339
1.8159e-07
0.00770565
-2.2287e-07
-3.65727e-05
5.90716e-09
-0.00131111
-5.3786e-07
-0.00266723
0.00179932
-0.0218196
-0.000132521
5.42308e-05
6.48872e-07
9.02894e-07
0.00118945
-0.000487625
-5.75801e-05
-5.15942e-07
-0.01932
-2.0602e-05
-0.000421084
-2.85681e-06
-0.0137876
-1.24597e-06
-7.85425e-07
0.0054062
-5.72887e-07
-1.09436e-06
8.34694e-08
7.44599e-09
2.62703e-09
7.42524e-08
9.19475e-08
0.0775386
4.11363e-07
-0.00014822
-2.09377e-05
0.00164058
9.83925e-05
-0.00163495
-3.27473e-08
-1.14573e-07
-0.000781922
0.000132592
1.70983e-06
-0.000365358
-0.0664444
-0.00151049
7.42757e-08
-7.66766e-07
5.85207e-07
-6.92051e-06
-0.000114834
8.86587e-05
0.00326617
-3.5204e-06
-2.87691e-07
-5.29527e-08
8.35599e-07
0.000221918
-4.17035e-06
-0.000664325
-3.60332e-07
-4.58686e-07
-1.36654e-07
-0.000945782
-2.01355e-07
3.97909e-09
3.62073e-08
-3.3421e-07
-0.0104985
0.000918978
-2.2956e-07
-2.12658e-06
0.000342403
9.90188e-07
-0.00329569
-2.26979e-07
4.2631e-07
-4.68451e-07
5.4089e-07
0.00943873
2.97823e-07
-8.08858e-08
1.08591e-08
-8.04187e-06
-2.41696e-05
-9.673e-08
4.28344e-07
1.85139e-07
-2.84612e-07
-0.00102618
7.22023e-07
-2.24847e-07
-2.7517e-07
-0.000626601
2.64454e-07
0.00217502
1.72288e-07
3.03394e-07
-2.1618e-08
0.0195213
-0.00013956
-3.38482e-06
-0.00378923
5.755e-08
6.10166e-07
-0.00183537
1.04677e-07
0.0011856
0.0266093
-1.27504e-07
-8.57082e-08
0.0912353
-2.55052e-07
-0.00335382
6.0653e-08
0.00906146
0.00344356
7.62645e-05
2.02276e-07
-6.60698e-08
-2.98137e-07
8.69329e-08
4.59855e-08
-8.49608e-09
-2.22583e-07
-4.37028e-07
-8.80816e-08
1.00629e-07
1.42005e-07
7.3891e-07
-2.85193e-07
0.0861701
4.7757e-08
-0.00143881
2.50647e-07
8.77484e-08
0.0115942
3.01304e-07
-0.00978299
-0.000822475
-1.69845e-07
2.24691e-07
-2.70814e-06
-0.00231101
-6.41324e-08
0.0229007
1.08829e-07
-6.03362e-07
-0.0204931
-1.14141e-08
-0.0032651
-6.53452e-08
3.9397e-05
1.83151e-08
0.000149138
-0.0336288
-0.00143886
-1.55055e-07
3.56551e-07
-1.06008e-07
8.05561e-08
-0.0009963
-8.98605e-08
-3.63063e-07
-3.44031e-06
-5.16455e-08
-0.0161453
5.42267e-05
3.81781e-07
8.11267e-07
7.2912e-08
-4.5616e-07
9.9307e-09
-1.2077e-07
5.05739e-07
0.080523
-0.0685861
1.79751e-05
3.40461e-07
2.3323e-07
-1.22906e-07
-4.12001e-05
-0.0400904
3.81699e-08
0.00732938
-0.00292469
-3.38025e-07
-2.13256e-07
1.52584e-05
1.24156e-07
8.53878e-08
4.67768e-06
-1.43067e-07
6.26626e-05
-9.4454e-08
-0.000607282
3.28851e-07
1.59513e-07
1.24905e-05
-1.12973e-07
8.69314e-08
-3.13157e-07
5.23033e-07
-0.000523802
-5.4939e-07
9.9503e-07
-3.20709e-07
0.0104167
-0.00258249
-6.49207e-08
-8.77993e-08
1.78744e-07
1.80253e-08
3.63308e-07
-4.93535e-05
4.27765e-08
6.0728e-07
-1.13353e-07
3.73545e-06
-9.85932e-07
-3.0893e-07
-0.00506838
1.36813e-07
1.92707e-07
-0.000104803
3.17697e-07
-5.28956e-08
8.23823e-05
1.54513e-07
-0.00466361
7.63087e-08
1.31361e-07
4.94705e-07
4.57318e-06
-3.96692e-08
0.00208507
2.28321e-07
1.53823e-07
0.00579502
0.00329361
0.00033699
-0.00155342
0.00115102
5.08695e-07
-4.74109e-08
3.24108e-07
0.00216702
1.53042e-07
-0.00877519
2.20091e-07
-1.37325e-06
-7.84933e-06
-0.000157969
4.32185e-08
-0.0105866
0.00105772
-1.8516e-07
6.29581e-07
1.66028e-07
-1.32115e-07
-0.0027756
3.84122e-05
1.31506e-07
2.11913e-07
8.86647e-08
-0.000155879
-3.1085e-07
-0.00337049
-1.74975e-06
-3.04669e-07
-2.32558e-07
2.20293e-07
0.0248984
-0.000231174
5.94315e-08
0.00952345
0.0036562
1.18707e-07
-0.00227131
-1.35158e-07
-1.02821e-07
1.84105e-07
-1.13436e-07
1.03511e-08
4.41323e-07
1.95861e-07
2.04165e-07
9.66615e-08
-9.57775e-06
3.69562e-07
0.00621205
1.13311e-07
-2.36021e-08
8.39607e-07
-4.43928e-09
3.24657e-07
3.03889e-07
-2.47353e-07
-0.00264107
-1.73569e-07
-4.55338e-06
-0.032255
5.74287e-08
0.00111165
0.00101757
-1.92449e-07
2.13881e-07
1.90664e-07
0.000267284
-5.96205e-08
-8.10303e-05
-0.000712363
-4.40855e-09
1.10998e-07
5.03284e-07
-0.00131279
6.26247e-08
0.000175001
-2.62623e-07
-0.000978301
0.000220122
-2.70837e-05
0.00102072
1.12086e-07
-5.30432e-05
-0.00077877
0.000531733
1.23016e-07
-3.83846e-06
3.00937e-07
-3.95439e-06
-6.35818e-08
-2.05351e-07
-0.00520562
8.36864e-08
0.000585797
-0.00136218
-1.84345e-07
0.000393791
2.18286e-07
2.22934e-05
-1.25034e-07
-4.69473e-09
-0.00583008
-6.42373e-05
-0.00459271
-1.85059e-06
-6.18707e-08
-0.0163965
-6.02214e-08
-4.37371e-07
2.02084e-09
2.23792e-07
-4.36028e-07
6.50975e-09
2.40373e-08
-0.00973362
-3.92635e-07
2.36869e-07
-1.16134e-08
2.30559e-07
-1.93273e-07
-6.64026e-06
7.09445e-09
0.0288477
-6.91026e-07
-0.00292292
2.24576e-07
-3.11364e-07
5.83546e-08
-6.439e-06
6.10213e-07
0.0355415
0.0208541
0.00208303
6.45088e-07
4.59434e-07
3.35971e-07
-2.13004e-07
-2.37386e-08
0.00023477
6.69189e-07
1.07614e-07
0.00675903
-1.73223e-07
1.89125e-07
-0.000499282
-3.86087e-07
-0.0109299
7.93864e-07
-0.011314
0.00425703
6.96021e-08
-5.497e-08
-1.03185e-06
0.00714924
0.0107336
-0.000512058
0.000546379
-3.16339e-07
1.4054e-07
-8.44496e-05
9.43691e-07
1.25629e-07
-5.67126e-06
2.05788e-07
-1.7754e-07
0.00120961
0.00242968
-9.7035e-07
-3.83353e-07
-1.10807e-06
-4.43559e-06
-0.0094233
8.77877e-08
-2.10181e-07
-2.4897e-07
1.96661e-05
3.1825e-08
4.00685e-08
-0.00576314
0.000447794
-7.57482e-08
-1.33902e-07
7.94597e-08
-9.65213e-08
6.02084e-08
3.60004e-06
3.33341e-05
2.5548e-07
0.00565133
-0.000199463
0.00112902
-5.96936e-07
6.31255e-07
-2.80716e-07
-4.17846e-07
2.02888e-07
-8.46438e-09
6.23077e-09
-0.00304409
-0.0105446
-3.05982e-07
1.00893e-07
6.13323e-07
-2.63686e-07
-0.0231094
2.78319e-06
-0.00579661
-0.000622995
-0.000156814
-2.34972e-06
5.56009e-07
-2.76981e-08
2.07501e-07
-2.67178e-07
0.0131115
-2.24491e-07
-6.30638e-08
1.9779e-06
-0.00364193
0.000261907
-3.73314e-06
0.0257196
-0.000431373
-3.90446e-07
2.09505e-06
-0.00208028
0.0180556
-2.62544e-07
1.52594e-07
3.00841e-07
-1.73394e-07
-2.57339e-07
-0.0239457
1.0931e-07
7.53208e-08
-0.00435312
-3.29602e-08
-0.0187644
-6.67404e-08
8.17175e-08
2.83227e-06
-2.22107e-07
1.42265e-05
0.00359869
2.10693e-06
-0.0195264
-1.45902e-06
-1.77009e-07
-0.00398099
-1.25542e-07
-3.2612e-10
1.99062e-08
7.19809e-08
-0.0118689
0.0120234
-0.0194979
3.34942e-07
-0.000649991
0.000600521
-0.00538098
9.85928e-08
2.1364e-07
4.06163e-05
-1.11894e-07
1.28704e-07
5.22531e-07
-1.56164e-07
0.00859729
-4.86958e-08
-0.00163474
-0.000119019
1.52429e-07
-0.00292793
-5.4004e-07
-3.11051e-07
8.6346e-07
-1.0766e-06
5.99665e-07
2.32098e-07
-6.55888e-07
-0.000178433
-2.5258e-07
-1.5847e-07
-4.13017e-07
-2.96944e-06
0.000304294
-8.5282e-08
3.6583e-08
-5.1563e-05
0.0101984
4.47634e-08
-9.3031e-08
-5.08498e-08
-9.42501e-09
2.81312e-09
1.09495e-07
0.014545
0.0738186
-1.87315e-07
1.89284e-07
-9.81599e-08
2.21792e-06
-0.000689725
-4.0457e-07
-1.91815e-05
0.0101682
-1.21342e-08
1.96329e-06
-0.00537458
0.0133305
9.47957e-07
2.13535e-08
-1.08618e-07
-0.00398535
-4.75685e-05
-0.0166463
3.18132e-07
0.00930667
-5.80113e-06
0.00191823
-0.00152233
-0.0064118
0.000182637
-0.00850384
0.00283291
0.0212914
1.03326e-06
-0.000104726
4.97424e-07
0.00722187
1.68053e-09
2.45559e-07
-1.81073e-07
-0.0189221
0.000386548
2.20357e-07
-4.04742e-07
-0.000116461
0.0128357
0.00756112
-1.53912e-07
1.71229e-07
5.12128e-08
7.19369e-07
-5.38745e-07
-2.51642e-06
-0.00419997
0.00152367
5.86657e-07
1.62814e-09
-0.000135351
1.39121e-07
-1.3998e-07
0.000769185
1.88194e-08
1.13805e-07
-4.73948e-09
-0.00276887
-4.23776e-06
0.00323382
6.60024e-07
0.00052659
0.00488625
-1.35438e-06
0.000213917
-0.0556481
0.00312654
-0.0110835
5.90972e-08
-1.06637e-07
-5.94505e-06
-1.65719e-07
-4.29168e-07
2.64104e-08
6.64137e-07
2.05208e-06
-1.29215e-06
-2.6184e-07
0.0024414
-9.67865e-07
-0.0027828
4.08814e-07
-0.00990649
-0.0130571
4.71881e-07
0.0874782
-0.0158324
-3.54236e-06
0.000730791
-0.0720814
1.87909e-07
-4.18847e-08
-1.86128e-06
2.37652e-06
0.0107174
-3.32755e-07
7.79028e-07
0.00239497
2.00692e-07
1.61238e-07
-1.8671e-07
-3.43409e-07
0.000341039
7.58493e-08
-2.52495e-07
3.09803e-07
-0.033777
1.43328e-07
-0.0423146
-0.00326708
0.000270894
-0.00534447
-2.79233e-08
6.29412e-08
2.88234e-07
-2.25665e-07
0.0248782
0.000194606
0.000578724
-0.00434413
1.12624e-08
7.95808e-07
6.74324e-07
-1.65072e-07
0.00261791
-1.46268e-08
-3.33535e-08
-0.00711588
-0.00424314
4.79229e-05
1.97539e-07
8.23706e-08
-0.0112869
-2.09627e-06
-7.0748e-05
-0.0014631
0.0132472
-0.00971345
-2.28733e-08
1.90126e-07
3.1314e-08
-1.54442e-07
0.000735298
-2.57543e-07
0.000135728
-1.62075e-07
-1.90764e-07
0.00116525
-4.27916e-07
0.000282245
6.45003e-07
-3.61459e-07
-2.39578e-07
-0.0150277
-8.99571e-08
-4.86254e-07
-0.016058
-1.604e-07
-2.42972e-07
-3.0027e-06
-0.0067496
8.16685e-08
1.39537e-06
-3.15202e-08
-0.0037705
0.00132243
7.27288e-07
-2.82527e-07
1.03314e-09
-2.0222e-07
-3.69935e-07
0.00201625
0.0103561
-0.000503872
0.00552293
-1.64347e-08
-3.81383e-05
4.93845e-08
-2.65626e-05
-2.44552e-07
-0.00416801
0.000338943
-1.45344e-07
0.0252481
-5.76829e-08
-0.0377645
-2.31919e-06
-3.22303e-08
2.78638e-05
-4.34602e-08
-5.7508e-08
-6.00439e-08
9.28639e-09
4.12837e-06
-0.000755147
-1.73938e-07
2.61151e-07
2.97093e-05
4.02023e-08
-1.13534e-07
2.6128e-07
-6.07921e-07
-2.74261e-07
0.00978111
-1.60598e-06
1.03702e-08
-2.98427e-07
2.25657e-07
-1.20292e-07
-0.00414134
0.00974581
-1.40343e-07
9.43917e-08
7.77282e-07
-7.12332e-05
2.06855e-07
6.96653e-07
2.34806e-07
-6.36548e-08
8.51341e-09
4.07826e-07
0.000318542
-2.68806e-07
0.00458326
1.51665e-07
4.3346e-09
-2.80853e-08
-3.09974e-07
4.0225e-08
4.09222e-08
-0.0142668
0.00198326
7.45072e-08
7.86566e-07
1.72748e-06
-0.00288056
-7.07817e-07
4.20193e-07
9.74458e-09
1.22086e-07
-3.04341e-05
5.08873e-07
0.00206033
-1.33145e-06
-1.10213e-07
-1.2981e-07
0.020801
4.75482e-07
-0.0168764
-3.12025e-06
1.46073e-07
0.00831469
0.015156
0.00208098
0.00159863
-0.000108779
-6.73145e-07
-1.39319e-07
-0.00339034
-2.60235e-07
-1.17195e-06
3.49757e-06
-3.40869e-09
-3.35018e-07
0.0390563
-1.73106e-07
0.00497537
0.0158378
2.69199e-07
-1.49653e-07
0.000671433
-3.5036e-07
0.00032679
-1.93397e-08
0.00313373
-0.00247931
-0.00364303
-3.55409e-07
-8.81308e-08
3.64423e-07
0.0181205
-0.0103094
-0.00474662
-0.00816388
5.61858e-06
6.20199e-08
0.000986875
0.0569131
-2.24708e-07
-5.96729e-08
2.42565e-09
6.03778e-08
-0.0430807
-0.000219565
3.20436e-07
0.00558863
-7.74378e-09
7.64352e-09
1.7951e-08
-1.42505e-07
5.54551e-07
0.000114726
-1.34358e-07
0.0122373
1.75392e-07
7.67972e-09
1.79961e-07
-2.99366e-07
-3.21407e-07
7.62791e-08
4.19461e-05
2.7984e-08
0.00043548
0.00324875
4.6449e-05
-3.72355e-07
0.000182693
-1.17257e-06
2.07994e-09
3.40953e-08
2.36091e-07
5.04035e-08
0.0214158
0.00133562
1.23244e-07
2.90276e-07
0.00746723
7.81996e-07
0.000418124
-4.26452e-07
1.44942e-07
-2.80097e-07
1.47899e-05
-0.000399545
-0.0102375
-0.000438577
-3.78338e-08
1.59638e-05
2.99393e-05
1.92898e-07
-1.31414e-07
-6.93829e-08
3.78115e-07
4.1522e-07
0.0101865
0.00157109
5.77281e-07
-3.4162e-08
-1.61285e-06
-6.12242e-07
2.54635e-06
1.81093e-08
0.000218321
4.23943e-07
0.000241153
-1.51237e-06
2.69529e-07
-7.20655e-08
-3.16229e-05
-9.0709e-08
-0.00363402
2.62565e-07
1.43285e-07
-5.41174e-08
-1.48998e-07
0.00697358
6.25932e-08
-1.8337e-07
2.10518e-06
7.14489e-09
-0.000962382
0.00521593
8.54669e-07
-9e-08
-2.50585e-07
-0.00098466
-5.57866e-05
1.15587e-07
2.37664e-07
-0.00462423
5.29453e-07
9.48465e-08
0.00058019
-4.85581e-07
-0.000989435
0.000963221
0.00284511
6.8718e-07
-3.12852e-08
-1.29153e-07
2.21463e-07
1.4617e-07
3.07379e-08
-0.00766954
-0.0244526
5.96552e-07
1.80038e-08
-2.69221e-07
4.95862e-07
0.0357069
3.75577e-08
3.95285e-07
2.55196e-07
1.24539e-08
-1.86542e-08
-8.77319e-06
-6.48756e-07
1.75127e-07
-2.21484e-07
4.65452e-08
-7.62178e-08
1.53426e-08
0.000802779
8.67473e-06
1.04904e-07
-2.31143e-08
-1.00068e-07
4.38758e-08
0.00261499
-9.71559e-08
-0.00442183