/*--------------------------------*- C++ -*----------------------------------*\
| =========                 |                                                 |
| \\      /  F ield         | OpenFOAM: The Open Source CFD Toolbox           |
|  \\    /   O peration     | Version:  v2012                                 |
|   \\  /    A nd           | Website:  www.openfoam.com                      |
|    \\/     M anipulation  |                                                 |
\*---------------------------------------------------------------------------*/
FoamFile
{
    version     2.0;
    format      ascii;
    class       volScalarField;
    location    "1000";
    object      k_0;
}
// * * * * * * * * * * * * * * * * * * * * * * * * * * * * * * * * * * * * * //

dimensions      [0 2 -2 0 0 0 0];


internalField   nonuniform List<scalar> 
10042
(
0.000328476
0.015494
0.000331509
0.000141641
0.000141805
0.00551656
0.000339088
0.00613486
0.000134389
0.000193635
0.0020679
0.0156545
0.000167408
0.000140408
0.000145838
0.000140339
0.00824969
0.00140846
0.000152942
0.000157467
0.000167304
0.000255136
0.000141526
0.00541294
0.000140886
0.000150569
0.000190464
0.000133773
0.00594062
0.00652201
0.00015525
0.000168693
0.000134167
0.000134119
0.00579137
0.00552106
0.000149396
0.000135383
0.000148565
0.000139044
0.00577277
0.000134284
0.00159115
0.0087623
0.000141224
0.000140885
0.000132486
0.000145551
0.000199563
0.0756394
0.0032482
0.000140605
0.0075395
0.00015249
0.0141051
0.000762715
0.000166297
0.000191375
0.000146143
0.00013045
0.000199633
0.00086475
0.000181871
0.00741815
0.000268079
0.000144335
0.000155301
0.000691043
0.000132303
0.000585423
0.0267904
0.000149356
0.000136877
0.000145892
0.00014386
0.0167071
0.000265711
0.000132457
0.000283104
0.000152979
0.00633399
0.00543217
0.00016632
0.000139967
0.00017543
0.000238813
0.000153887
0.000272171
0.000140604
0.000225713
0.000159999
0.00014595
0.00018797
0.000244549
0.000198751
0.000143289
0.0597007
0.000155858
0.00369922
0.000145681
0.000159559
0.000220215
0.000146346
0.000165175
0.00015521
0.000145156
0.0501599
0.000143362
0.000313926
0.000145482
0.000145436
0.000280336
0.000215615
0.00667649
0.000253888
0.000132254
0.000195253
0.000153538
0.000213767
0.000132113
0.00013043
0.021143
0.0220377
0.00014132
0.000238383
0.000141176
0.000141408
0.0117566
5.59467e-05
0.000193201
0.000135239
0.000142329
0.000142646
0.00014269
0.000277764
0.0116236
0.000155202
0.0466618
0.000150349
0.00493517
0.000196512
0.000137607
0.0501693
0.000133819
0.000158592
0.000135404
0.000173104
0.000132202
0.000147515
0.00671279
0.000142799
0.000143478
0.00015128
0.000171113
0.00021508
0.000159083
0.000126508
0.00112217
0.0001427
0.000153389
0.000151701
0.000144279
0.0068427
0.000140864
0.000149228
0.00506114
0.000136784
0.000166278
0.0054405
0.00013389
0.000223579
0.00725848
0.025353
0.00013399
0.000152475
0.024476
0.000141197
0.000135303
0.000141872
0.000132306
0.000150091
0.000155683
0.000145931
0.000131997
0.0052646
0.000159648
0.000149725
0.000130917
0.100578
0.000145006
0.0135126
0.000166286
0.000135392
0.00015519
0.0134249
0.000145879
0.0843281
0.000746016
0.0802645
0.000140107
0.00605667
0.000199262
9.44915e-05
0.000136347
0.00455314
0.000142249
0.00784438
0.000171032
0.000145155
0.000142933
0.000167688
0.000135301
0.000477445
0.000259681
0.000150379
0.000490403
0.000135914
0.00836131
0.000143635
0.00419681
0.126507
0.000238907
0.124162
0.000489176
0.000141615
0.000195301
0.000146145
0.000154117
0.000180242
0.000146602
0.000135323
0.000141781
0.00015979
0.000159582
0.000141164
0.00580448
0.000152668
0.0602641
0.000157094
0.00532589
0.00181376
0.00872739
0.000130358
0.000149791
0.0220456
0.000142484
0.0081375
0.000156416
0.000151528
0.000145872
0.000154483
0.00013549
0.00533416
0.0171037
0.00014704
0.000151852
0.000148229
0.000147017
0.06082
0.000141599
0.000241904
0.000135829
0.000140492
0.000132582
0.000168104
0.0198734
0.000230302
0.00586423
0.000160742
0.000141862
0.000143412
0.0519661
0.000139601
0.0645635
0.000146655
0.000183276
0.000149056
0.000140995
0.000161437
0.0155769
0.000133755
0.00891894
0.0694881
0.000148782
0.000160099
0.0711998
0.000129876
0.000132861
0.000335428
0.000146566
0.000165245
0.000182555
0.000162744
0.0102081
0.000258349
0.000140022
0.0161315
0.000153939
0.000143496
0.000136418
0.000151021
0.000242789
0.000130946
0.00281801
0.00014851
0.00163424
0.000140378
0.000157813
0.0148737
0.00986596
0.000154316
0.000142068
0.000143155
0.00014003
0.000183044
0.000293925
0.000132613
0.00461802
0.00528504
0.000132176
0.000152963
0.0760879
0.000188626
0.00376112
0.00511735
0.00015316
0.000174295
0.000141681
0.00015289
0.000164171
0.000142236
0.000143768
0.000322149
0.000145354
0.00673493
0.000325278
0.054547
0.0029012
0.00013564
0.0039659
0.000195898
0.000168691
0.000130385
0.000174596
0.00015598
0.000135218
0.000138886
0.000143065
0.000158586
0.0722395
0.000147453
0.000242411
0.000157407
0.000137126
0.00284986
0.000173306
0.000146288
0.000165567
0.0927562
0.000157128
0.000144844
0.000150384
0.000149196
0.00577232
0.00360868
0.000149528
0.000140971
0.000152069
0.000153147
0.00423287
0.000130579
0.000168097
0.000139944
0.000150277
0.000226735
0.000141501
0.000199285
0.000302656
0.0210048
0.000222822
0.000144085
0.000474217
0.000180153
0.000141414
0.000175431
0.000132195
0.00014481
0.000132034
0.000142884
0.000132854
0.000146582
0.010367
0.000147431
0.000196439
0.00351357
0.0123319
0.000142096
0.00595576
0.000150129
0.000169164
0.000140714
0.104032
0.00014341
0.00868096
0.0516052
0.000137297
0.000193346
0.000140625
0.000779666
0.00014629
0.011737
0.000160406
0.0093454
0.000147139
0.00788897
0.000148911
0.000162172
0.00592242
0.000132904
0.000147773
0.000143187
0.00367043
0.00013526
0.000131893
0.000198918
0.000153697
0.000180855
0.0113348
0.000141452
0.000168716
0.000153721
0.000132452
0.000160661
0.00539794
0.00013948
0.000148841
0.006034
0.000187111
0.000153103
0.0013071
0.000133978
0.000178422
0.000173057
0.101521
0.0270475
0.00796349
0.00772107
0.00220804
0.00689714
0.000131799
0.000179735
0.0164055
0.0168896
0.000174775
0.000141516
0.000139132
0.000254451
0.00498401
0.00013202
0.000133578
0.000157518
0.0001419
0.000141404
0.000142302
0.000142574
0.000162909
0.000377396
0.000148728
0.000178672
0.000244344
0.00129308
0.000134486
0.0801466
0.00772795
0.00449434
0.000143818
0.000156137
0.000151892
0.0106853
0.000143498
0.00059804
0.00014712
0.00322418
0.00013905
0.000154448
0.000133526
0.000181305
0.0135406
0.000150872
0.00013948
0.000142377
0.0107169
0.00013574
0.000194267
0.000237497
0.000192978
0.000136326
0.000182846
0.011007
0.000819918
0.000144574
0.000156279
0.00900381
0.0118758
0.000177692
0.00406554
0.000146318
0.00215051
0.000168528
0.00016377
0.0001544
0.00880936
0.000136148
0.000141401
0.000146005
0.0110251
0.000141388
0.000597541
0.000141898
0.000144248
0.000134725
0.000161998
0.00442611
0.000146421
0.000148797
0.0061603
0.000760058
0.000181624
0.000146255
0.000143014
0.00251821
0.000936599
0.000144328
0.000133424
0.000207969
0.000143491
0.000143331
0.0039793
0.000135163
0.0207186
0.000140774
0.000183744
0.000160177
0.117031
0.000141472
0.000157128
0.000144726
0.000136456
0.00564582
0.000130346
0.00506001
0.000177402
0.00013441
0.000164276
0.0593136
0.00442666
0.000180082
0.000145061
0.000133387
0.000132123
0.000136895
0.000175286
0.000145623
0.0184546
0.000143064
0.000134615
0.000733721
0.000155397
0.000176013
0.000155564
0.000139185
0.000582946
0.0058241
0.000156189
0.00971879
0.000143374
0.000158261
0.000134208
0.000134469
0.000142769
0.000142118
0.000144698
0.00014535
0.0892761
0.000146768
0.000154033
0.000140698
0.000148908
0.000132685
0.000191495
0.00585298
0.000134481
0.000140893
0.00444263
0.000200957
0.000132823
0.0218066
0.000141249
0.000243635
0.000135486
0.000150782
0.000136323
0.0873413
0.000132741
0.000140815
0.000142029
0.022622
0.000154303
0.000142582
0.000145525
0.00201705
0.000142075
0.000141567
0.00013706
0.000141629
0.000155114
0.000141322
0.000146424
0.000134353
0.0576605
0.00885276
0.0111455
0.000146263
0.000153429
0.000143223
0.00327155
0.000149676
0.00530184
0.00417362
0.00845104
0.000204718
0.00765538
0.000143372
0.000143971
0.012284
0.00131885
0.000170908
0.000183372
0.000145923
0.00638252
0.000139654
0.0001447
0.00013459
0.000135648
0.000151336
0.0121707
0.000148764
0.000149459
0.0261146
0.000142636
0.00354052
0.000137401
0.000148505
0.00017063
0.000144883
0.00593626
0.000141765
0.000141754
0.000228766
0.000144449
0.000132579
0.000156326
0.000140062
0.000139182
0.00794735
0.00660036
0.0133571
0.000145308
0.000140362
0.000140027
0.00635082
0.000149923
0.000143613
0.000137876
0.00013861
0.00724384
0.0811057
0.000204789
0.000146444
0.000159895
0.0618689
0.000157824
0.000165463
0.000179787
0.00753632
0.00244095
0.00671397
0.000139555
0.000145103
0.000142092
0.00762944
0.000139444
0.000154585
0.000142531
0.000130404
0.000171509
0.00014441
0.109167
0.111315
0.000132747
0.00014113
0.000131779
0.00727471
0.00013556
0.0108196
0.000149982
0.0983817
0.000140223
0.000139463
0.000134521
0.000141314
0.000143592
0.000131548
0.00014359
0.000147368
0.000208347
0.000153759
0.0113998
0.000143401
0.000467214
0.00836453
0.000152675
0.000869358
0.000140431
0.000141784
0.00014589
0.000146866
0.0105156
0.000142492
0.000145969
0.000134867
0.0198153
0.000139094
0.0077972
0.00017299
0.000140438
0.000227137
0.00715773
0.000136567
0.000137026
0.000183155
0.000168039
0.000496177
0.00018478
0.000278507
0.00018087
0.00014509
0.000144819
0.000144192
0.000163883
0.000148556
0.00217325
0.000258373
0.000130395
0.000138395
0.000148702
0.000173702
0.000168127
0.00992854
0.000146403
0.000144585
0.00350137
0.00014012
0.000182551
0.000165561
0.000161185
0.00753765
0.000149618
0.000140677
0.000145259
0.000175935
0.000140817
0.00579906
0.000147051
0.000175544
0.000154927
0.0248775
0.000144575
0.000161897
0.000151582
0.000147629
0.000171866
0.000133925
0.000170877
0.000141088
0.000146919
0.000139807
0.000143612
0.000150715
0.000179279
0.000152824
0.000145555
0.00806015
0.000134059
0.000140309
0.00014077
0.0001319
0.000210816
0.000143679
0.000147922
0.000193635
0.00805292
0.000143479
0.000224264
0.000269234
0.000138447
0.00014176
0.000131776
0.0044964
0.00842211
0.000154788
0.000140116
0.000183635
0.000461792
0.0403386
0.000146333
0.00519844
0.000505941
0.0123917
0.000149104
0.0001318
0.000140583
0.00669178
0.000462938
0.000146828
0.0606365
0.000424274
0.00701881
0.0109819
0.000142413
0.000225351
0.00201063
0.000220507
0.0211059
0.000163703
0.0672597
0.000147457
0.00614505
0.000144329
0.000184193
0.000153921
0.000183099
0.00013103
0.000145039
0.000141056
0.0160367
0.000142008
0.000130485
0.0007077
0.000143787
0.000158909
0.000147212
0.0017218
0.000143586
0.000149188
0.000144963
0.000142754
0.000142544
0.000155762
0.000139278
0.00654526
0.000375251
0.000268971
0.00014222
0.0148513
0.000138931
0.000182532
0.00660838
0.000158677
0.000142781
0.00013225
0.000142737
0.000150212
0.00817576
0.000194454
0.000140159
0.0248363
0.000142102
0.000145304
0.00613351
0.000132027
0.000145781
0.0235467
0.000139831
0.0113361
0.000150329
0.000210731
0.000158653
0.00018774
0.000167401
0.000143265
0.0366116
0.0505256
0.000140798
0.000168174
0.110288
0.0110286
0.000268644
0.000154523
0.000137928
0.000156308
0.000144972
0.000144957
0.00573507
0.000153453
0.000132102
0.00016488
0.00456285
0.00863473
0.000132225
0.000131787
0.000150863
0.000146247
0.00765344
0.00836685
0.000135668
0.000155359
0.00131443
0.000144469
0.000155077
0.0735486
0.000151373
0.00363204
0.000140956
0.000145027
0.000145418
0.000142346
0.000177314
0.000207877
0.000143479
0.00995883
0.0134138
0.0210602
0.000154033
0.00015079
0.0734851
0.000167377
0.0113351
0.000161933
0.00014387
0.000141511
0.0230358
0.00277922
0.00014784
0.00015488
0.000169842
0.000141565
0.00022128
0.000147989
0.000141382
0.000151482
0.000165869
0.000140575
0.000141089
0.118778
0.000139262
0.000137766
0.000180983
0.000156685
0.00896788
0.000154238
0.000145949
0.0206928
0.000183311
0.000155228
0.000169855
0.00644142
0.000140622
0.000134382
0.000156252
0.00174658
0.000139781
0.000144326
0.000141407
0.000135751
0.000139772
0.0154423
0.000144653
0.0057336
0.000144455
0.000177898
0.000135534
0.000146753
0.000189717
0.00908972
0.000276131
0.000142906
0.000151818
0.00228483
0.000300974
0.000155276
0.000148526
0.00666365
0.000140777
0.000166487
0.000200329
0.000138871
0.000151067
0.000140762
0.000198947
0.0531652
0.00575957
0.00013759
0.000148426
0.000157271
0.000188389
0.000138673
0.000137033
0.000173336
0.000131168
0.00013816
0.00460123
0.000144491
0.0184438
0.0001352
0.000137242
0.000134611
0.000171284
0.000145371
0.000141463
0.00248994
0.000138312
0.000145296
0.0131207
0.000141791
0.000192347
0.000156075
0.0116762
0.00800313
0.000153128
0.0054594
0.000157929
0.00014443
0.112626
0.000148229
0.000140976
0.000132415
0.000140535
0.000168094
0.0233263
0.000176805
0.00968317
0.0113119
0.00643534
9.96761e-05
0.0072667
0.000153159
0.0038781
0.000133812
0.000158825
0.000145306
0.000146638
0.000147451
0.002243
0.0100479
0.000142935
0.00966469
0.000137497
0.000258126
0.000144337
0.000153487
0.000147944
0.000191055
0.00915113
0.000142068
0.000132951
0.0464706
0.000192688
0.000171893
0.000162787
0.00907658
0.000145467
0.0072623
0.00404874
0.000139065
0.000137907
0.000140216
0.000156371
0.000143098
0.000149129
0.000150549
0.000138963
0.000145582
0.000145637
0.00013817
0.00393498
0.0103164
0.000133163
0.000360571
0.000151085
0.000170282
0.000186015
0.000513046
0.000139029
0.000171848
0.000195587
0.00013552
0.000181948
0.00781017
0.000146282
0.000138043
0.000153128
0.00969732
0.0111893
0.000135407
0.00721547
0.000145517
0.000145608
0.0305828
0.000139348
0.000137091
0.000137628
0.000137672
0.000144372
0.00645352
0.000167536
0.000139012
0.000143015
0.000139555
0.000141412
0.00902763
0.000132742
0.000165879
0.00321586
0.00542289
0.000137653
0.0101358
0.000137843
0.000242315
0.000149021
0.000221064
0.000133749
0.0130799
0.0721337
0.0535663
0.000143943
0.000238147
0.00717384
0.0064078
0.000145058
0.00673675
0.000141233
0.00792764
0.00913289
0.000169684
0.0516894
0.00651208
0.00507052
0.0835464
0.00024179
0.00813039
0.000137785
0.000155632
0.00656163
0.000203294
0.000142915
0.00411827
0.000148506
0.00013934
0.000136733
0.000210496
0.000203723
0.000169928
0.00643273
0.000163687
0.00620763
0.00014913
0.000140931
0.000140547
0.00549409
0.00527706
0.000163466
0.00881875
0.000146608
0.000147196
0.000167217
0.00631212
0.000180316
0.000139342
0.00561294
0.0168515
0.000148347
0.000211657
0.000135864
0.000164962
0.00021104
0.000138964
0.00391114
0.00351567
0.000142657
0.000149087
0.000140169
0.00953158
0.000154911
0.016651
0.00157922
0.000140512
0.00013957
0.000133505
0.000169821
0.000137832
0.000169238
0.000154526
0.00016649
0.00451666
0.000148183
0.000159502
0.00751995
0.000148145
0.000185525
0.000151027
0.000144063
0.0581354
0.00986543
0.000146667
0.051393
0.000154166
0.00436003
0.000139414
0.00013786
0.000177196
0.000154642
0.000185312
0.00390722
0.000146752
0.000153905
0.00123197
0.000180456
0.000153564
0.0101627
0.000267674
0.00718425
0.000140274
0.00013253
0.000242274
0.000138962
0.0102839
0.0058436
0.00020732
0.00493783
0.000147241
0.000137655
0.0131798
0.00621903
0.000140939
0.0366506
0.00016713
0.000142081
0.00018813
0.000149099
0.000145008
0.000175248
0.000154354
0.000137018
0.000152026
0.000140681
0.000153828
0.0063849
0.000161907
0.0083899
0.000143225
0.000158402
0.000140013
0.000142745
0.00757292
0.00014487
0.00792396
0.00367083
0.000149031
0.00513958
0.000163874
0.00216955
0.000131888
0.00732161
0.000192342
2.7836e-05
0.000152786
0.000152927
0.000138814
0.000482821
0.00015349
0.00455145
0.000165541
0.000135761
0.00235157
0.000131622
0.0961725
0.000140638
0.00879168
0.000142267
0.000137433
0.00013448
0.00769451
0.000139341
0.000135428
0.00013398
0.000139885
0.000143336
0.000205598
0.00294303
0.000135795
0.000156687
0.000146007
0.000140517
0.00013868
0.00605453
0.045249
0.000155364
0.000143665
0.000138774
0.00013454
0.00015534
0.000154909
0.000134227
0.00809526
0.00848832
0.00312855
0.000135239
0.000139908
0.000143019
0.000151429
0.000137894
0.000148652
0.000143255
0.000139207
0.000185329
0.000149198
0.000177532
0.0319798
0.0616301
0.000141101
0.000140494
0.000141415
0.0951795
0.000141366
0.000161461
0.000167086
0.000136918
0.000143363
0.000141151
0.0180234
0.000143948
0.00432012
0.00595265
0.000173505
0.000143088
0.000155735
0.0066433
0.000153346
0.000171839
0.000155908
0.000166685
0.000136621
0.000156224
0.000369421
0.00590441
0.000138325
0.000144753
0.0109828
0.000154167
0.000171805
0.0001681
0.00516374
0.000142854
0.000155754
0.00149382
0.00266009
0.00019116
0.000135952
0.000140903
0.000138073
0.000145673
0.000327334
0.0033321
0.0017672
0.000137795
0.104272
0.000155145
0.00527632
0.00750717
0.000141061
0.0334464
0.000769637
0.000138586
0.000208198
0.000167133
0.000145344
0.00668692
0.000139426
0.0268001
0.000155946
0.00857004
0.0119321
0.000175372
0.000143587
0.000155769
0.00014858
0.000139881
0.000135109
0.00013492
0.000574157
0.000147932
0.000172882
0.00606441
0.0539302
0.000172812
0.000167047
0.000136392
0.0428172
0.000132238
0.00618621
0.084971
0.0473781
0.0289819
0.00765897
0.000866727
0.000133879
0.000145058
0.000134508
0.000208671
0.000152054
0.0157714
0.000154117
0.113479
0.00015789
0.000135739
0.000135063
0.000145076
0.00013387
0.00556568
0.00897649
0.0580376
0.000138586
0.000168107
0.0001534
0.000150359
0.000206557
0.00014405
0.00316028
0.0091342
0.000148163
0.000142041
0.00650454
0.00015776
0.00024822
0.00924966
0.000146754
0.00425731
0.000153124
0.106453
0.000140386
0.000206602
0.000142649
0.00127762
0.000198284
0.0245371
0.00971018
0.0925494
0.000108426
0.000232096
0.000139856
0.000139634
0.0108588
0.00730385
0.000195528
0.000157688
0.123139
0.0023143
0.01016
0.000169315
0.0202748
0.00015594
0.000167507
0.00324405
0.000146886
0.000154579
0.000167212
0.000132709
0.000136881
0.000140387
0.000143294
0.0628921
0.000148168
0.00748336
0.000209422
0.0005505
0.00745659
0.00847427
0.000134636
0.000147391
0.00665241
0.000289446
0.000162619
0.00878789
0.0308364
0.00928623
0.000139432
0.000165285
0.000154398
0.000210306
4.60959e-05
0.0101665
0.00794308
0.000175684
0.000144849
0.000151058
0.000292342
0.000239775
0.000175721
0.00559107
0.00014042
0.000167387
0.00015091
0.0197991
0.000152012
0.000136005
0.000139983
0.000150608
0.0195829
0.00836994
0.000146903
0.00019932
0.00778147
0.000149305
0.000853287
0.000167706
0.000165475
0.000165936
0.000167731
0.00263778
0.000141364
0.000138886
0.000151856
0.000254402
0.000207971
0.000168588
0.000148796
0.000151055
0.000146528
0.0160696
0.000170367
0.00015203
0.000146147
0.000407898
0.000156065
0.0096312
0.000150465
0.000163452
0.00014091
0.00616149
0.000342152
0.000173565
0.0599418
0.00013673
0.000163648
0.00323917
0.00015679
0.0057683
0.00791096
0.000145725
0.000150462
0.0375349
0.000143065
0.0206479
0.00014577
0.0235205
0.00812389
0.00145575
0.000151521
0.000140602
0.000141782
0.000142974
0.000154727
0.000132242
0.000145438
0.000140411
0.000138438
0.000152698
0.000151195
0.000144764
0.000150105
0.0355345
0.000144914
0.0502637
0.000147944
0.000144835
0.00307026
0.000141283
0.0492471
0.0085483
0.000144547
0.000148709
0.000169695
0.00436742
0.000167787
0.0687429
0.000162013
0.000148286
0.0164493
0.000138092
0.125228
0.000145319
0.000211003
0.000133469
0.00259295
0.0577765
0.00941894
0.000147234
0.000152759
0.000139096
0.000151747
0.00140288
0.000140275
0.000143171
0.000172745
0.000165587
0.0171501
0.00229772
0.00014823
0.000176188
0.000144151
0.000157891
0.00014945
0.000143202
0.000148499
0.0634031
0.0143931
0.000227059
0.000152074
0.000148486
0.000150246
7.26405e-05
0.0439857
0.000194607
0.00666503
0.00467438
0.000150591
0.000152552
0.000204117
0.000139225
0.000152721
0.000160837
0.00015022
0.00744497
0.000150461
0.00847998
0.000137036
0.000148287
0.000196642
0.000150911
0.000152451
0.000153646
0.000158726
0.00578831
0.000148481
0.000142425
0.000145197
0.0734354
0.00385435
0.00015411
0.000145828
0.000138517
0.000152347
0.000143219
0.000225128
0.000140076
0.000138348
0.000144983
0.000159086
0.000160769
0.000145097
0.0658722
0.000147702
0.000148763
0.000459058
0.000152106
0.000154145
0.000228236
0.000147764
0.0190827
0.000139331
0.00013859
0.000148507
0.000162474
0.000136749
0.00537963
0.000148514
0.000141101
0.00462851
0.00851647
0.00337858
0.00689789
0.00706227
0.000157535
0.00013756
0.000151524
0.00621489
0.000160596
0.00762061
0.000149484
0.000163158
0.000192481
0.000196676
0.000138362
0.111349
0.00310368
0.000140413
0.000157338
0.000147169
0.000148864
0.000343032
0.000261846
0.000144959
0.0001391
0.000133751
0.00751892
0.000146599
0.0028305
0.000166801
0.000146241
0.000140267
0.000141156
0.0387495
0.000188311
0.000139822
0.00264777
0.0021266
0.00014835
0.00925506
0.000145843
0.000137654
0.000138366
0.000145106
0.000134476
0.000143831
0.000146586
0.000150411
0.000145787
0.000189283
0.000151474
0.00654763
0.000164923
0.000142761
0.000342063
0.000133709
0.000137503
0.00019428
0.00014023
0.00568432
0.000141037
0.000210414
0.109348
0.000137977
0.000535786
0.00545143
0.000144591
0.000147655
0.000143232
0.000537537
0.000145448
0.00662488
0.00825699
0.000151164
0.000159332
0.000178439
0.000571034
0.000143904
0.00127886
0.000146441
0.000833484
0.000342991
0.000142687
0.00687842
0.000140449
0.000189203
0.00567012
0.000296499
0.000144836
0.000175805
0.00015096
0.000174917
0.000136777
0.000155301
0.0311616
0.000158199
0.00148483
0.00098259
0.00016805
0.00732336
0.000137416
0.000222823
0.000145186
0.000157025
6.65767e-05
0.00698878
0.123234
0.000166546
0.000156012
0.0241105
0.000167849
0.000140524
0.000137969
0.000148042
0.000149205
0.000155199
0.000141282
0.0202623
0.000156632
0.000141212
0.000134127
0.000142915
0.000142557
0.00026412
0.000138707
0.023756
0.000148972
0.0212171
0.00014407
0.000144735
0.000131526
0.000187935
0.000143181
0.0864331
0.0242326
0.0054859
0.00015634
0.0001485
0.000143649
0.000140167
0.000139732
0.00762558
0.000147221
0.000147885
0.00482665
0.000144099
0.000149545
0.112659
0.000383784
0.0199044
0.000140547
0.0261068
0.00298782
0.000140869
0.000138437
0.000164751
0.0200468
0.00315619
0.00850684
0.00036861
0.000143247
0.00013876
0.00115481
0.000160365
0.000147331
0.000168751
0.000146707
0.000151448
0.010418
0.00252094
0.000173045
0.000157241
0.000154519
0.000178797
0.0170434
0.000145063
0.000140061
0.000143929
0.000976134
0.000139815
0.000154342
0.0196331
0.114229
0.000137006
0.000139987
0.000131671
0.00014527
0.00014395
0.000171482
0.000287671
0.00014913
0.0015942
0.00519997
0.000268177
0.000166383
0.000148028
0.000144475
0.000142028
0.000138973
0.000133688
0.00014502
0.00466685
0.011554
0.000136788
0.000137492
0.000146434
0.000145381
0.00405628
0.000173465
0.0216445
0.00638131
0.000387535
0.000199193
0.000142763
0.000142073
0.000142333
0.000145259
0.0184324
0.000143036
0.000153599
0.000307703
0.0135014
0.0101461
0.000278591
0.00715951
0.00875121
0.000143205
0.000167755
0.0208487
0.00713127
0.000144122
0.000143507
0.000137732
0.000144256
0.000144626
0.0043136
0.000141433
0.000141422
0.00948844
0.000152984
0.0235575
0.000142579
0.000137998
0.000168993
0.000320259
0.000204251
0.0093354
0.000154839
0.0168388
0.000169861
0.000140503
0.00945195
0.000141295
0.00015237
0.000145571
0.00013771
0.126941
0.0125695
0.103422
0.000235014
0.00587352
0.00179728
0.00922794
0.00013945
0.000145871
0.000404343
0.000143113
0.000146382
0.000152746
0.000143793
0.0197304
0.000145495
0.0104167
0.000565021
0.000133772
0.0238754
0.000144698
0.000141761
0.000162699
0.000161924
0.000163983
0.000166355
0.000167131
0.00372169
0.000145421
0.000142643
0.000136401
0.000168545
0.00134309
0.000140028
0.00014637
0.0001795
0.0132672
0.000140962
0.000168014
0.000168329
0.000135284
0.000143365
0.000141815
0.0158905
0.0254663
0.000168279
0.000149867
0.000143489
0.000164297
0.00582891
0.000145032
0.00564508
0.00876054
0.000145186
0.000165383
0.0362037
0.0295188
0.000173501
0.000134557
0.000138746
0.0146171
0.00010284
0.0268594
0.000157925
0.00811914
0.000183991
0.0171955
0.00523693
0.116939
0.000934821
0.0194664
0.0095702
0.0129717
0.00014754
0.0102027
0.000142682
0.0129415
0.00015064
0.000149094
0.00016795
0.0131849
0.00538238
0.000151096
0.000144669
0.00321025
0.0167195
0.00578808
0.00013892
0.000140798
0.000143012
0.000156178
0.000144624
0.000167365
0.0208316
0.00785856
0.000155279
0.000141145
0.000152891
0.000146508
0.00014371
0.00131779
0.000143655
0.000153466
0.000133966
0.00664951
0.000190991
0.00929272
0.000144121
0.0025936
0.00313611
0.000163246
0.00519447
0.038439
0.00198211
0.0142166
0.000140849
0.000144809
0.000208668
0.000144219
0.000145318
0.000141774
0.000146629
0.000162199
0.000166482
0.000140671
0.0025134
0.000139068
0.00182479
0.000146904
0.00540843
0.0168569
0.000175532
0.0473664
0.021263
0.000194399
0.00162004
0.0201397
0.00014758
0.000145606
0.000183243
0.000161195
0.0156452
0.000140587
0.000145989
0.0175453
0.000143129
0.000138885
0.000145957
0.000134081
0.00319541
0.000145414
0.000166299
0.000146138
0.0503353
0.000142487
0.00261041
0.00290233
0.00372785
0.0254436
0.000134206
0.000167481
0.000146026
0.000143164
0.0182148
0.00123685
0.000424474
0.00420753
0.000133318
0.00014949
0.000154292
0.000144312
0.00430059
0.000140321
0.000163028
0.0275692
0.00600576
0.000246687
0.000142498
0.000146003
0.0237553
0.000169585
0.000262994
0.00614635
0.0103964
0.0212408
0.000151674
0.000140398
0.000140211
0.00014573
0.00238669
0.000151021
0.000546964
0.000143959
0.00014553
0.00190967
0.000134789
0.000743117
0.000164727
0.000145107
0.00016798
0.014882
0.000138615
0.000148561
0.0121604
0.000144318
0.000144737
0.000171441
0.101962
0.000154953
0.000185068
0.000136892
0.0199076
0.00655338
0.000216876
0.000144272
0.000138621
0.000166449
0.00014473
0.0016289
0.00957686
0.00808822
0.0228946
0.000142763
0.00013871
0.000140702
0.000239678
0.0001442
0.0122254
0.00490378
0.00014393
0.0106326
0.00014304
0.0629253
0.000168318
0.000136654
0.000235526
0.000139423
0.000140152
0.000137879
0.000132579
0.000157535
0.0256457
0.000144477
0.000137753
0.000203767
0.000134271
0.000146005
0.000149128
0.000141885
0.000143887
0.00694155
0.000175381
0.000133099
0.000150159
0.00015004
0.000143539
0.0226131
0.0156833
0.000143846
0.000140509
0.000145507
0.000400455
0.000145278
0.000147448
0.000149943
0.000202691
0.000133256
0.000150503
0.00512783
0.000144708
0.00310092
0.000142569
0.000144201
0.000140854
0.000141743
0.000138168
0.00014318
0.0179004
0.00610208
0.000137902
0.000145964
0.000152626
0.00161607
0.000164014
0.000190137
0.000142806
0.000148468
0.000184003
0.000148193
0.00930031
0.000166796
0.000141214
0.000139699
0.0111675
0.000148227
0.0167686
0.000255031
0.000141122
0.00665743
0.0237029
0.00585609
0.000918092
0.000327362
0.000163716
0.00014068
0.119961
0.000144364
0.000152464
0.000176088
0.000133961
0.000143224
0.0159505
0.000138871
0.00149154
0.0144863
0.00014821
0.000143942
0.000201654
0.000142461
0.000346167
0.000136427
0.00204916
0.000650004
0.00634868
0.000142607
0.000139801
0.000148811
0.0123896
0.00574053
0.00392061
0.00982827
0.000173366
0.000143119
0.00062853
0.0583199
0.000143556
0.000134196
0.000167546
0.000140945
0.0607485
0.000237923
0.000136726
0.00274826
0.000139689
0.00013925
0.000136313
0.000142849
0.000143124
0.000484911
0.000141929
0.00678021
0.000139437
0.000148179
0.000146143
0.000145657
0.000141833
0.000142869
0.000214719
0.000138076
0.00103374
0.00611439
0.000238837
0.000166455
0.000290729
0.000174023
0.000142552
0.000134138
0.000142641
0.000134509
0.0556539
0.00142528
0.000152544
0.000150941
0.0061474
0.000148534
0.00469435
0.000144783
0.000140935
0.00014476
0.000227056
0.000206125
0.0201146
0.00137137
0.000168155
0.000232023
0.000237051
0.000143567
0.000141293
0.000138844
0.000163309
0.000165292
0.0474794
0.00370313
0.000167554
0.000140071
0.000175171
0.000141963
0.00022302
0.000141953
0.000769662
0.000148804
0.00207885
0.000163824
0.000147954
0.000168192
0.000240786
0.000162076
0.0226669
0.000141027
0.00013866
0.000143677
0.000142967
0.00450525
0.000137601
0.000145664
0.000159442
0.000133131
0.0215712
0.0062539
0.000188267
0.000144087
0.000144898
0.00546176
0.000249141
0.000141123
0.000142753
7.27644e-05
0.000142881
0.000143273
0.00108448
0.000166688
0.00478841
0.00521682
0.00561097
0.000170207
0.000140828
0.000144176
0.000161783
0.00014104
0.000140517
0.0079972
0.0102381
0.000138755
0.000141631
0.000140158
0.000149573
0.0263571
0.000141489
0.000149492
0.000144713
0.000136516
0.000140825
0.000246701
0.000150505
0.000140261
0.000134701
0.000147706
0.000138607
0.000169009
0.00497146
0.00019409
0.000139125
0.0001422
0.000143825
0.000141141
0.00708645
0.000143582
0.00538577
0.00446729
0.000141122
0.000138207
0.0104032
0.000138482
0.000139604
0.000140338
0.00180384
0.000166826
0.000161639
0.000140531
0.000132941
0.000143758
0.00463628
0.00014148
0.000145923
0.000176294
0.00564607
0.000207794
0.000133219
0.00755125
0.00013053
0.00570078
0.000140325
0.000134231
0.000138343
0.000145591
0.00014277
0.00450552
0.000141215
0.00531648
0.000178422
0.000168547
0.0409988
0.000143753
0.00686061
0.00265744
0.000146988
0.00573904
0.000174799
0.00089773
0.000142255
0.00979152
0.000145726
0.00013859
0.000139194
0.000230395
0.00637926
0.000154606
0.00481938
0.0381376
0.000240495
0.000143049
0.000153489
0.000174351
0.00195319
0.00264636
0.000160174
0.0001452
0.000167634
0.00389422
0.000139782
0.0216135
0.000149846
0.000248934
0.000137942
0.000136986
0.000162008
0.000160395
0.0664121
0.0185859
0.000311785
0.000140238
0.000141884
0.00168899
0.00390312
0.0126401
0.00013944
0.00015044
0.00013867
0.000140635
0.000140884
0.00520308
0.000171916
0.000151664
0.00027474
0.00427096
0.00186607
0.000140073
0.000145333
0.000138685
0.000137983
0.000161181
0.000141396
0.000144277
0.000143527
0.000140025
0.000158168
0.00372952
0.000198812
0.000139484
0.000140761
0.00803338
0.000175121
0.000152913
0.000168462
0.00734873
0.00119369
0.00014103
0.000160391
0.00307633
0.00013957
0.00451024
0.00014176
0.000141118
0.000140152
0.0083731
0.000140143
0.000138761
0.000145414
0.000145566
0.000140535
0.000139499