/*--------------------------------*- C++ -*----------------------------------*\
| =========                 |                                                 |
| \\      /  F ield         | OpenFOAM: The Open Source CFD Toolbox           |
|  \\    /   O peration     | Version:  v2012                                 |
|   \\  /    A nd           | Website:  www.openfoam.com                      |
|    \\/     M anipulation  |                                                 |
\*---------------------------------------------------------------------------*/
FoamFile
{
    version     2.0;
    format      ascii;
    class       volScalarField;
    location    "750";
    object      omega;
}
// * * * * * * * * * * * * * * * * * * * * * * * * * * * * * * * * * * * * * //

dimensions      [0 0 -1 0 0 0 0];


internalField   nonuniform List<scalar> 
10042
(
0.0219093
0.0220511
0.0219384
0.0231626
9.24683
0.0220719
5.01476
6.25788
0.0217767
0.0220104
5.28804
0.023099
0.0215355
0.0214994
0.023697
0.0220334
0.0220249
0.0222585
0.0219123
0.135052
0.0219044
0.26388
0.0215863
0.0216192
0.0220582
0.0300679
0.022133
0.0228255
0.021811
0.022471
0.0220207
5.43347
0.0220212
0.022371
0.0267986
0.0216309
0.0291318
0.0351909
0.0216327
0.0302684
0.146614
0.0232891
4.80332
0.022012
9.42374
0.0643766
0.0223638
0.105956
0.0281185
0.0522065
0.022167
0.0223257
0.0232975
0.0230847
0.0291874
0.0220648
0.0218134
0.0223257
0.0223598
0.0230853
0.0220461
0.0220039
0.0270152
0.0219152
0.0222538
0.0223803
0.0220414
0.0747738
4.38201
0.0218836
0.0230056
0.16161
0.0220181
0.0323446
0.0220176
0.0216166
8.71962
0.0219231
0.0303344
4.69173
0.0272781
10.4915
0.0220305
0.0228775
0.0220477
0.0222139
0.0218865
0.173197
0.0219385
0.0218884
0.0222732
10.8254
0.0229185
0.0222453
0.0224139
0.0218933
0.0219341
0.021872
0.0297184
0.0218157
0.0222908
0.118991
6.77755
0.0222026
0.0226814
0.0534656
0.0219105
0.0219275
0.0219129
0.0214543
0.0217106
0.0218277
0.0263031
4.8399
0.0222416
0.0218382
0.0219425
0.0219184
0.0218915
5.09221
0.0219304
6.44162
0.0220547
0.0219838
0.117925
0.0220329
6.25957
0.0289882
0.0514465
0.0218799
0.0313426
0.0220077
4.53479
0.260203
0.0218161
0.0621224
4.82814
0.0222814
0.111601
0.200157
0.0228123
0.0219396
0.0225371
0.172596
0.0219299
0.0218273
0.0618305
0.021544
0.0218881
0.0257489
0.0218013
0.0222555
2.96769
4.7636
0.022186
0.0215311
0.0226187
0.0219954
0.0623909
10.5258
6.42547
0.150872
0.0219872
0.0218027
0.022116
0.0219886
0.0621555
23.3527
5.97447
4.9243
0.0226615
0.0218398
11.832
0.172476
0.038918
4.25898
11.7415
0.0220349
0.0868868
0.0328238
0.0227688
5.26666
0.0220972
0.0288563
0.0231487
5.47136
0.333998
0.0221358
6.59042
0.0241761
2.84904
0.0225343
2.92001
12.1797
0.11529
10.8855
0.0259619
0.0219236
0.0215355
0.0236483
0.0376016
0.0221772
0.0218216
0.178501
0.0220809
0.0216853
4.65078
0.0221575
0.0222603
0.0222428
8.91197
0.0218707
0.0574157
0.351953
0.0225914
0.349566
0.0219659
0.0219905
0.0708153
0.0217693
0.0264229
0.0227565
0.429504
0.0365068
0.0256444
0.0311499
1.00433
0.0218328
0.199299
0.0232667
0.0217759
0.139975
0.0218484
0.0232224
0.0219818
0.0259725
0.021712
0.0214855
0.0234528
0.0265672
0.0219945
0.022058
0.0220597
0.0263919
0.0218385
0.0220298
0.0216201
0.02276
0.0228398
0.0222689
0.021537
0.0218734
0.0245769
0.572947
0.152168
7.98405
0.0394767
0.0382505
0.023889
0.0729797
5.1067
0.0232058
0.0219144
0.0215037
0.0235645
0.0217105
0.375737
0.0234911
0.0218815
0.0222504
0.0394397
0.0228919
0.318366
0.0388429
0.212466
0.0242518
0.0265271
0.0217131
0.02555
0.0219604
0.0341211
0.0219052
0.0301483
4.49392
0.021686
0.0218817
5.31348
0.0662054
0.0220992
0.0220448
0.0242628
4.21809
0.0589409
0.18131
0.022182
0.021532
0.0218336
0.0217929
0.698484
0.0218756
0.0220401
0.0218366
0.0219676
0.0363856
0.0239585
0.0818095
8.00989
0.0228856
8.39576
0.0218413
0.02528
0.0221246
7.83129
0.118314
9.80961
13.7671
0.0216025
0.0235037
0.0218909
0.0242015
0.0312404
0.0222417
0.0339217
0.0217045
0.0215018
0.0220386
0.0875986
0.0222839
0.0238227
0.0219677
0.0237842
6.94162
0.0218411
0.0221766
0.0219894
0.021884
0.043935
0.115554
0.0381187
8.50406
0.0368444
0.0277477
0.021985
0.0214823
0.0223655
0.022268
3.44638
0.0219051
0.0223793
0.115428
0.0218242
0.0249638
0.0230098
0.122957
0.0219326
0.0254331
0.0483523
0.033616
0.0235801
0.0219299
8.64864
0.0628956
0.0223924
0.0435538
0.0219488
0.0218524
0.0219468
0.024903
2.43927
0.0247035
0.0222493
0.0228364
0.0222923
0.0222708
0.133578
0.0219277
0.0216241
4.79876
0.0218384
6.55591
4.06126
0.0330084
3.75334
9.42244
0.0284053
0.14364
0.0221592
0.0541391
0.0222913
0.022257
0.39683
0.0220666
0.0244758
12.511
0.022001
0.0219056
0.0509595
2.21591
0.0222861
0.0215438
5.5163
0.119103
0.0218358
0.0751049
13.009
0.0217683
0.022264
0.0216433
0.0218627
0.0214825
0.0216781
8.49654
6.70734
0.022296
8.63704
0.0215012
0.0218763
0.862693
0.0221028
6.7127
0.0640877
0.0228855
0.0215962
0.0215361
0.152028
0.02278
0.0284034
0.0224491
4.91276
0.0224715
12.5119
0.0234815
0.0219364
0.0218383
0.840326
0.0219523
0.0258339
0.021863
0.021909
6.69636
0.026041
0.0219313
0.0217481
6.07292
0.021871
0.0264463
0.0235339
0.0217148
9.02931
3.77882
0.0218844
0.0221784
0.0248972
0.0215364
0.0220103
0.0219723
5.91155
0.0219959
0.0217382
0.0289957
5.55527
0.0636119
0.0222685
0.032481
19.717
0.0385488
0.0219379
0.0219361
0.265148
0.0223001
0.0219427
0.0295212
0.0218255
0.021679
0.0229127
0.0215678
0.0389573
0.0219072
0.0219564
6.68104
0.0217615
0.022561
0.0220685
0.0223779
0.0337899
0.0218888
0.0218588
6.64719
0.0225991
4.67052
0.0231698
0.022282
0.0222767
0.147069
0.0219001
0.0219362
0.0220137
0.0224795
0.0280844
5.26999
0.0218749
0.0388778
4.46754
0.0384061
0.0222611
0.0219587
0.022101
0.0222034
0.0218526
1.67749
5.13961
0.0220766
0.0290166
0.0296567
0.0289913
0.0220264
0.0216564
2.41064
0.142025
3.27304
0.0215914
0.0221585
0.0220571
0.0218432
5.09837
0.0359542
0.0224851
0.0218788
0.0218065
0.0219943
3.91349
0.0260338
0.0221404
7.15326
1.40418
0.454258
0.0545718
0.0220179
0.0218241
0.0594394
0.0561451
2.1033
24.1958
0.0249194
0.0261355
0.0222107
0.0237535
0.0221708
0.0222
5.86973
0.0216139
0.0218447
0.0610918
0.0222105
0.642178
0.0229603
0.164345
0.0300019
0.0222448
0.0233722
0.026797
0.0404729
0.0544797
0.0860685
0.0222823
0.052106
0.0230969
0.02189
0.0221195
0.0223975
0.0220354
0.0251778
0.0638854
0.0416619
0.0221436
0.0226704
0.0220097
0.0219148
0.132745
0.0219309
0.0234931
0.259096
0.0215694
0.0562189
0.0781994
0.0220422
5.41534
0.0444442
0.0222101
0.369077
0.0220388
0.0222686
0.0219635
0.0219807
0.0222924
0.0242695
0.0220024
1.0097
0.0228092
0.0219638
0.0222846
0.0342934
0.0349674
0.021979
0.0245708
0.0218247
0.0340041
0.0219368
0.030122
0.0216296
0.0229965
0.0215361
0.0219329
8.01357
0.0216494
0.1185
0.0219676
0.0228613
0.0217425
0.0349045
0.0220769
0.0459689
0.0220976
0.307341
0.0222621
5.20102
0.0215383
0.0236061
0.0222715
0.021982
0.0219607
0.0242072
0.0220351
0.12663
31.5971
0.495701
0.0241646
0.0372054
0.0218162
0.0394002
0.0642233
0.0220135
0.0292182
0.0904397
2.19351
0.0785028
13.8601
0.0276955
0.0221559
0.0222314
0.025177
0.0242599
0.0372158
0.0216064
0.0236345
0.134762
0.0222649
0.0219161
0.0249984
4.5701
0.0234401
0.0313096
0.0591857
0.0222515
4.51613
0.021622
0.0218249
0.0224999
0.0218324
6.78274
0.0735581
3.95315
0.0220572
8.57517
8.08738
2.74432
0.0370387
0.0733635
0.197676
0.0416742
0.0219687
0.021867
0.0303795
8.65225
0.0218104
0.0297087
4.69919
0.021901
0.0219084
0.0218957
0.0230032
0.0219525
0.0219765
0.142165
10.6692
0.0219507
0.0220012
4.5668
2.47265
0.0218199
0.0219417
0.0221551
0.0218664
0.934851
0.0733902
0.301879
0.0226791
0.0219021
0.0217766
0.0227942
0.0220548
0.0342124
0.0226521
7.46086
0.0220083
0.0220762
0.0423146
0.0218049
0.0348379
0.0676454
0.0231448
31.3095
3.16682
0.022163
0.0218487
7.86334
6.38456
0.0362996
0.0220108
7.01677
0.194539
0.0257723
0.0219514
0.021996
0.0219245
0.371582
0.0241237
0.0969887
0.0222686
6.39751
1.879
0.0219618
0.0219902
0.119223
0.0221512
0.0217397
0.0254184
4.84194
2.10402
8.42758
0.0224222
0.0638564
0.0399901
0.0216441
0.0218815
0.022194
0.347549
0.0222062
0.0219584
0.063671
0.0220146
0.0696289
0.0221117
0.0221081
0.0216897
0.0221517
0.235162
0.0221993
0.0218659
0.0436409
0.0575838
0.420254
0.0222102
0.0999141
2.16616
4.75504
0.0229997
6.26658
7.65309
0.0219026
0.021547
0.022722
0.0233402
1.56778
0.0236178
0.0221233
0.0222064
2.49341
0.0382149
0.0223504
0.0221427
0.0219369
0.0440457
0.0217539
0.0218394
0.0328299
0.022916
0.0222046
0.0217833
1.4332
0.0218824
0.022843
0.0220295
0.0224284
0.1726
0.0222033
0.0231223
0.0220731
0.0254096
0.828101
0.0222919
0.382853
0.0264031
1.73795
0.0216615
0.0236443
0.0322198
0.0998033
0.0512817
0.0226402
13.7603
5.83591
0.0225166
0.0218005
2.80133
0.0220801
0.0222512
0.0217299
0.0222418
0.0539998
0.0222928
0.0222931
0.0667184
0.0290013
0.0229575
0.0317114
0.0227554
8.42272
0.0233606
0.884219
0.0218588
0.0611805
0.0377064
3.7005
0.024428
4.97017
0.0222695
0.0256263
0.0220431
0.0221032
0.0219062
0.153649
0.0409037
0.0496321
7.99808
0.0221204
11.3833
0.0259361
0.0217832
0.0315599
0.0313521
2.93257
0.0219845
0.0283542
0.0528353
0.0235642
0.0422231
0.0222838
0.0215773
0.0222833
0.351187
0.0221352
0.0220054
0.0217367
0.0217258
0.0219372
0.0219907
0.0223835
0.0218466
0.022152
0.0224699
0.0256305
0.031214
0.0219908
1.95091
0.0219882
6.55206
0.0376287
2.23678
0.0377387
0.0254248
5.85631
0.0354974
0.37287
5.81861
0.0436282
0.0221995
0.0218435
0.0230293
0.178587
0.0218967
4.78348
0.0218759
16.9776
4.96793
0.0560604
0.0229546
5.08426
5.46249
0.023212
0.0219797
0.0222639
0.0245769
0.0215678
0.0216684
0.0610573
0.325828
0.0220793
0.0218877
0.0223647
0.82226
0.0628199
0.0221572
0.0256419
0.0998399
0.0225223
0.0220294
4.63578
0.022317
0.0218731
11.152
0.0242239
0.0219515
5.41499
3.41931
6.98746
0.021911
0.0232598
0.743846
0.0217357
0.0218889
0.0222843
0.0298893
0.0220453
0.0221118
0.023472
0.0466273
0.194032
0.0217818
0.0219334
0.02208
0.0218477
0.0226078
0.0216003
0.166156
0.0291608
0.0219655
0.0219852
0.0217657
0.0219769
0.022537
4.9094
0.029675
0.0215353
0.0219261
0.0415899
3.12412
0.0220435
0.0219838
0.0220297
0.0215441
13.6955
0.0496361
0.0217289
0.0220673
0.030447
0.111523
0.0221697
0.0222828
0.0252245
0.0220504
0.0262841
0.0224037
5.71956
0.0361427
0.0220714
0.0264074
12.3346
0.0285643
0.182735
0.0255199
0.681553
0.0222709
0.0221759
0.0253734
0.0694041
0.0218936
0.0217998
0.0222437
0.0227662
0.110482
0.13004
3.5405
0.022762
0.0219934
0.0287376
0.0219811
0.0219767
6.17524
0.0238805
0.022033
0.0219842
0.31347
6.16822
0.021992
0.0221228
0.101277
0.0218047
0.0221046
0.0219346
0.0981896
0.0232293
0.0263017
9.77339
0.0223141
0.0221689
2.14539
0.021908
0.177118
0.0218991
0.0236303
0.0432355
0.0219907
0.0220904
0.0222561
0.0236828
13.5807
0.0219187
0.0221357
0.232309
0.0258683
0.779445
5.41445
0.048732
0.0222123
0.54313
0.0218693
9.61353
0.0221685
0.0220541
0.0217155
6.63409
0.0222124
0.0223799
0.0221604
0.0348706
1.92728
0.0287397
0.0519344
0.021903
0.0221358
0.0385046
0.0298693
0.0218344
0.0257155
0.0218802
3.52189
4.51511
0.0221399
0.0229512
0.022223
3.63252
0.0221579
15.5728
0.0219787
0.0218518
0.021723
0.0225496
0.0240401
0.0222715
0.0219914
0.0220043
6.83144
0.118749
0.0218891
0.0248428
0.0241911
0.0421705
0.0218749
0.0258953
0.0230662
0.0219633
0.0232392
0.0314504
0.0222802
0.0219147
0.0270351
0.0217656
0.180208
0.023305
0.152926
0.0221217
0.0220394
0.0218314
0.0722745
0.0409758
0.0217681
0.0248686
0.0777035
0.0224836
0.0217712
0.0259629
0.0222247
9.50451
0.240801
0.0253283
7.3485
0.0231439
0.0357096
0.102223
0.0385521
0.0342704
5.50407
0.0304944
0.148839
0.0220669
0.023139
0.0218649
0.0219473
0.0269741
0.0217701
0.207158
0.0220154
0.0219978
0.0790001
0.0219411
0.0572036
0.0260822
0.0258249
0.0218796
0.0432241
0.223299
0.0214246
0.0324942
5.13471
0.0426468
0.0217784
0.030507
0.0219952
0.0217918
11.9104
0.02183
0.0217831
0.0521497
0.0219693
0.0273096
0.0217752
0.0220034
4.037
0.0218837
0.0216685
0.0250616
0.0219092
0.021525
0.0222518
12.633
0.0221642
0.0220854
0.0215814
0.0907122
0.0224224
0.0248753
0.0219276
0.0352303
0.0227577
0.0218965
0.02304
0.0221016
0.0217792
0.125389
0.0436614
0.0296697
0.0235503
0.0476317
0.08017
0.027635
0.0283569
0.0230001
5.13568
0.0219378
0.022025
0.0219252
0.0222384
0.0361612
0.0218955
9.20267
4.64507
8.17863
0.0220853
0.0250808
0.0400448
0.0215393
0.0915968
0.0489611
1.12848
0.0690803
4.75588
0.0803678
0.232234
1.44362
0.0289993
0.0231313
0.0255677
0.0217852
2.48382
0.022708
0.029498
0.0217976
0.025444
0.0220466
5.31714
3.11872
0.0222038
5.25076
0.885399
0.223378
0.0484938
0.0703642
0.0216718
5.01969
0.0219812
7.99591
5.13756
0.0222045
0.0219028
0.0220031
0.0234725
0.0251888
0.036829
0.230858
0.0221256
0.0220411
0.0256206
0.0224758
0.0220369
0.0265606
0.0218336
0.0220608
0.264359
0.0666713
0.0220433
6.08765
0.0230359
0.0222721
0.0234868
0.383744
0.0219397
0.0217318
0.126011
0.211176
0.0218271
0.025688
1.99839
0.0577957
4.572
0.0217796
0.190692
3.97131
8.29617
0.0220846
0.0219155
0.0650632
0.0265588
0.0426874
0.0223742
5.76207
0.0521976
0.226353
0.0220797
0.0219778
5.55176
0.213253
0.0221509
0.0222723
5.02906
0.0219215
0.021608
0.0218006
0.0236867
0.022197
0.0299388
0.0221326
0.0239484
0.0216235
0.0340785
23.0055
0.0623013
0.0359981
12.5725
0.0833973
0.021649
0.0217882
0.0218958
0.0222837
0.145238
0.0300747
0.022117
0.0219992
0.021973
0.0216072
0.0328984
0.0216167
0.0495594
0.0243167
0.0221248
3.57408
5.96877
0.0221034
5.84023
0.0345995
0.0343768
0.0222641
0.0216289
8.11901
0.0812386
0.0219234
0.0217302
0.0219337
0.0270464
0.0222624
0.172263
0.0215269
0.022061
0.0220681
1.71016
5.15881
0.021525
0.0220073
0.164423
0.523994
0.0247716
4.22287
5.97017
0.021768
0.0221423
0.0221466
0.0231342
1.54998
0.0220396
0.0222844
0.213952
0.103592
0.0222123
0.0219452
0.074119
0.0222836
0.0220763
0.120218
0.0892564
4.80337
0.0219844
0.0754383
0.0419266
0.0592867
0.0231459
0.02801
0.0219378
0.0219838
0.126361
0.0262966
0.0219985
0.0252484
5.09627
0.0215456
0.0218109
0.0215379
0.0808607
0.0219474
0.0220873
0.0214467
0.0219457
1.03088
7.64653
0.0222454
8.07721
4.85547
4.52648
0.0219345
0.0219435
0.0218286
0.0218881
0.0221178
0.0221509
0.0216267
0.0220832
0.0217802
0.0244837
12.4189
0.037162
0.654616
0.0308914
0.0220329
0.0232839
0.0332573
0.0222001
0.0218452
0.0415838
0.0329107
0.828567
0.0443204
0.0215056
9.91604
0.0228632
0.0215009
0.0218907
0.246346
0.0458894
0.0227986
0.0263128
0.0220736
0.0220959
0.0327742
0.0433158
0.0288008
7.6479
0.0220854
0.022031
0.854388
0.0386053
0.0255986
0.157864
0.0233706
0.0691454
0.360516
0.071665
8.37506
0.0218494
0.0217326
0.0219414
0.022049
0.0220958
0.0233549
0.0423988
0.052679
12.1772
0.0220746
6.97809
9.43976
0.0247214
2.08902
0.0222669
0.106943
6.26505
0.0219121
0.106396
0.0215669
1.89266
0.0221978
0.287251
0.0218565
5.11602
0.0405288
5.7277
0.0218478
0.210038
0.0216433
0.0233769
0.54753
0.0218384
8.41767
4.9279
1.01621
9.42566
0.106374
4.71816
0.0408724
0.0220183
0.0466309
0.0491678
5.18999
0.022079
0.0220179
0.0228561
0.0511897
0.0219487
0.0222649
0.0222747
13.2116
1.93832
0.0219083
9.10959
0.061107
0.0217278
0.0396598
0.0278545
2.11225
0.0307084
0.0217832
0.725548
0.0220732
0.0219392
0.0220907
0.145037
0.0678528
0.0218269
0.027004
0.0221114
0.0222606
0.0217932
7.33153
0.0222856
0.021815
5.34133
0.317184
0.0244158
0.0218393
1.4373
0.028787
0.0234143
0.0219627
0.0533658
0.0234048
0.027824
0.0252034
7.71533
0.0453081
0.0658308
0.0214998
0.0330099
0.0481421
0.0284853
0.022445
7.41559
0.0222527
0.192534
0.0218843
0.0221939
0.0322487
0.252471
0.0237684
0.0256376
0.022115
0.0381409
0.0712459
0.0963116
0.028618
0.0222924
0.0219663
0.0284118
0.0913167
0.0219376
0.0463717
0.0220166
0.0219392
5.1574
0.0218865
5.82055
0.0219426
0.0273946
0.0777707
0.0219398
0.0292563
0.108005
0.119395
0.0219682
0.0857277
0.0227253
0.0222634
0.0218944
4.81146
2.79953
0.0219036
0.0219295
0.0216262
0.0218158
0.105365
3.41958
0.021943
1.42419
0.0217327
0.0217985
0.0218905
4.3033
0.0229955
0.0241283
0.0219469
0.0220103
0.0219151
0.0222568
0.0222595
0.0336076
14.3398
0.0216366
0.0219232
0.0424369
0.0761071
0.0217956
7.88113
0.0562197
0.0217944
0.021521
0.0222571
0.132243
0.0217519
0.0847238
0.0296687
0.0238207
0.0217902
0.0484912
0.0215308
0.144933
0.0283416
0.022436
5.94924
6.34811
0.021432
0.021855
6.80511
0.142599
0.0852197
0.0244993
0.084726
0.0215567
5.54456
0.0672034
0.0217644
1.53545
3.34446
0.0233795
0.0472551
0.0577951
0.0217752
8.40519
0.022216
0.0275943
0.0310461
0.0223086
0.02205
0.0542501
0.0218672
0.0218902
0.0218665
6.43451
0.0218538
0.0219397
0.0217638
0.0218865
0.021867
0.0222304
0.0569845
0.0463272
0.0238551
0.0222499
2.32052
0.0223322
0.0218386
0.0218938
0.0216246
0.0220868
0.021973
0.0296585
0.101658
0.0222241
0.0319232
0.0515187
0.0217593
0.0282323
2.248
0.0228687
0.0215347
0.022082
0.0863409
0.0222032
0.0222031
0.0247004
0.0252766
8.28115
11.9126
0.0218242
0.0218646
0.0219432
0.0718627
0.0232133
0.0218005
0.0287436
0.0790219
0.0222024
0.0273864
0.0221341
0.122356
0.247329
0.0230623
0.135919
0.0264721
5.23635
0.0222054
0.0218909
5.68163
0.123609
0.0248353
0.206728
0.0956737
28.3088
0.0474856
0.720231
0.0263505
0.0254466
4.95991
0.0272857
0.231293
0.0309664
0.145315
6.41321
0.0222933
0.0221679
0.0219776
0.404048
0.0214542
5.30277
0.0387913
18.615
0.0230757
0.12349
0.256518
0.0219486
0.0222464
0.0826776
0.0306163
0.022089
0.0253097
0.0811892
0.0853492
0.0864974
0.123984
9.20194
0.162914
0.0221157
0.0222015
3.99077
0.0792655
0.0228186
0.0392585
3.14879
0.0223931
0.0241935
0.0219409
0.0294613
0.0220404
0.0221061
0.0396057
0.0221194
0.0227308
5.17362
29.1517
0.0217274
0.0261344
0.0276215
0.218786
0.0446174
0.0225033
0.0219272
0.108905
20.567
0.0219287
0.0253534
0.0221435
5.68012
0.0218273
0.0312153
2.25655
1.37927
0.0222721
0.14857
0.0972569
0.0625588
0.0260944
0.0220219
6.35791
0.0218138
0.0269281
0.0222738
0.0299086
0.0216159
0.0216345
0.0221835
0.0734804
0.0218191
0.0219792
0.0217995
0.0220449
0.0218643
0.0220919
0.101651
9.65516
1.93308
0.0261109
0.0220579
0.0326876
0.0240349
5.52699
0.022285
0.190649
0.0216199
0.0219963
0.0225722
0.0365159
3.25742
0.0219588
5.11057
0.0223587
0.0215269
0.0233493
7.31216
0.0235739
0.0460629
5.48886
0.0222848
0.0222122
7.29436
0.0218811
10.3427
0.0220893
0.0333882
15.1262
0.0227607
0.0220986
0.0218586
7.76241
0.0273529
0.0218648
0.830941
0.0219591
0.0228572
0.0929415
19.2181
0.211957
4.54908
10.466
0.0776541
0.0237609
0.199427
0.314863
0.021843
0.021859
0.0230339
0.0275768
0.0823882
0.0219914
0.0257552
0.0219035
0.0219613
1.79866
0.0222253
6.65023
0.0215649
0.0329556
0.0655238
0.0218268
0.0215207
4.93334
5.30128
0.0709049
0.0220825
0.02551
0.055236
0.0217655
0.0367731
0.116459
0.0423172
0.0233459
5.19485
22.0977
0.021547
0.0221336
0.0216493
0.0221946
0.022941
0.0279633
20.7778
0.0221208
0.0219618
0.0463008
15.9919
0.0215738
6.68329
0.0216012
0.161615
0.0630644
5.57732
0.0709607
0.0557823
0.0583878
0.0215161
0.0215132
0.320145
0.0261793
0.0220893
2.30731
0.0218252
0.0220859
0.0216234
0.0531146
0.239555
0.860997
0.15445
0.0292938
0.0305022
0.0220472
8.20439
0.255513
0.0233068
0.0219737
0.0217644
0.0987785
7.40665
0.0371647
8.53654
0.0229649
0.0217792
4.55324
0.0219531
5.10317
9.30714
0.0216901
0.0308858
0.508518
0.0245699
0.0370525
0.0218337
4.6335
0.0271191
0.174488
5.49023
9.8861
0.028869
0.0288526
0.022137
0.171693
8.30709
0.0231282
0.0243348
4.69378
0.0512123
0.0705569
0.0222636
5.60407
5.07998
0.101202
0.0219453
0.0273272
0.0218941
7.15206
0.0824079
0.0356494
8.84845
5.07945
0.021515
0.190394
0.0221024
10.1169
0.0986811
0.0272447
0.0256639
1.74099
0.0214063
0.0664435
6.57996
3.59096
0.0232637
0.0220325
0.0217883
0.0943162
6.8568
0.20873
5.01367
0.099731
0.0439845
0.0217688
4.95106
0.0891609
0.0292071
0.209265
5.32128
4.80596
4.88937
6.77599
6.94609
4.9627
0.0221057
0.0294546
0.034551
0.0219275
8.21223
1.74398
0.0220207
6.94611
0.0221309
0.0219921
0.0217704
0.0326099
0.0218635
5.52919
0.0634367
0.282848
0.0217004
0.828521
0.0497898
0.854052
5.05294
0.0228349
0.0287121
0.0394361
0.0696169
0.0217795
0.0216324
0.0218892
4.95786
0.0217776
0.0217807
0.201789
0.0235544
16.0717
0.0220462
5.30456
0.0219497
0.0220608
0.0219736
0.0219989
0.0275915
0.0249482
6.10736
0.031924
0.0389977
4.25193
0.0218291
6.09533
0.0217925
5.4725
4.03194
5.09075
0.0734922
0.0219978
0.0222726
5.05883
0.0221003
0.0269431
0.0221131
0.0309401
5.53946
0.0218861
0.0218452
0.0218689
0.0222651
9.81552
9.08587
0.0218417
0.0214465
5.36492
8.06236
0.0218576
4.73798
0.0222642
6.9337
5.26925
0.0741899
0.402068
1.08909
0.0901736
4.66722
0.08551
0.0219735
0.0215464
0.0217831
6.16961
8.6564
0.0232408
0.0287765
4.65508
0.0218319
5.28804
0.0218663
0.0219756
0.0216291
10.0321
0.0795354
0.0217608
4.50141
0.0222527
7.50551
4.05322
0.0217437
0.0221111
0.141234
0.0219528
0.0219366
0.0218294
2.71926
0.0327991
0.0220324
0.0221311
2.65364
0.0219338
0.0428391
0.0219865
4.99458
0.0221022
0.11403
0.023599
4.6006
6.87402
0.0325674
0.0915794
0.0612229
0.0220763
0.0823836
4.84955
0.0217635
0.0939972
0.0217634
0.827874
0.0218896
5.22175
2.76396
0.113559
4.68288
4.51479
0.042024
0.0226806
9.27539
0.0219323
8.35471
0.0257419
2.44004
0.0218686
0.0336318
0.0509669
0.0311394
0.0221269
0.0219416
0.0221957
5.06675
0.0811828
4.54799
1.83649
0.0280352
0.0216219
0.0574548
10.5579
0.0346437
0.0218016
0.0220813
11.4564
9.80512
10.7647
5.59847
0.0380701
0.0223196
0.0217749
0.0563092
0.0554924
1.65683
0.0220004
0.022071
33.7353
0.0735227
0.0222853
0.0683007
2.19838
0.123347
0.0216195
0.0507008
0.843704
2.4751
5.8085
0.323073
0.0218665
0.0222691
0.0220888
0.0222849
0.0219546
0.0220922
0.0344457
0.241859
0.0359982
0.0284569
0.0297695
0.0221878
0.0265815
0.0226765
0.0361157
0.0337627
0.0218295
0.0292554
0.0218883
0.0218413
0.0226286
0.022121
0.477221
0.0215983
0.0822047
1.849
5.81234
6.28882
7.21837
0.0224499
0.0222368
0.0218988
4.72609
0.0218845
0.0214753
0.0221749
5.13446
0.0320338
0.0359986
0.754014
0.0236006
0.0220337
0.0308351
0.0218743
0.0505783
0.0222854
0.0354569
0.0217924
0.0219316
0.0231647
0.023747
0.025682
1.42939
0.0410861
0.123994
0.0663396
0.149456
0.0471525
0.076378
0.0218721
4.97263
0.0246831
0.0271229
0.0219373
0.0228578
0.137321
0.0219836
0.0690173
7.06004
0.0297851
0.385397
0.11935
0.0570427
0.0760877
0.0642086
0.0219285
0.0298369
0.0220919
0.08749
0.0553402
4.33028
0.0217573
0.0515898
0.026761
2.73358
4.77519
0.0497971
0.0220995
0.0567448
0.0215728
0.0753925
0.0229571
3.26323
0.0216557
0.026166
0.0220185
0.0376793
0.14839
0.0319548
9.24536
0.0220407
0.0317062
0.0649031
0.0220175
7.31461
6.5403
0.194501
0.0576121
0.0516512
0.0218361
0.021783
8.88579
0.116523
0.0216339
0.022614
0.0252204
0.0218958
0.525424
0.0217869
5.7116
0.172739
0.179557
0.039325
0.0223803
0.021664
0.021852
0.173616
0.0859402
0.0269684
4.94952
0.0221744
0.0232508
0.0277118
7.0545
0.0215035
2.98417
0.0214065
4.68443
0.021909
0.0218946
0.0390168
0.0219856
0.0222738
0.166551
0.0220961
0.0223695
0.0217923
0.047511
0.0261926
1.42526
0.0219914
0.0221249
0.0218473
0.156416
0.0218016
0.0291149
0.0449413
4.78244
8.95125
11.4138
0.885121
0.522606
0.0440301
0.066156
0.0276799
0.0222512
0.0221214
5.8572
0.0605037
0.0215427
0.0219644
0.021955
0.0287134
0.0913566
0.0222518
0.0307533
0.141238
0.205145
0.128018
0.0219674
0.0222376
2.21245
0.0240507
0.0215903
3.0528
7.19219
0.0216998
0.0214349
0.027428
0.0220565
0.0390316
0.0222485
3.98816
0.0222726
1.42641
0.0220252
5.02602
0.031035
0.0219557
0.0653727
0.0215931
0.0220193
0.0222647
0.034479
0.780046
0.0218569
0.205723
0.0222855
0.0221997
0.120429
0.0217108
0.0221289
0.0221028
0.0214737
0.021983
0.0215086
0.022167
7.83058
0.0218542
0.0217686
0.0608643
0.0216329
0.0219343
0.0221681
0.0222782
8.03064
0.430402
0.0220887
0.023055
0.0219656
0.0222855
0.260503
0.0220559
0.0219848
7.61285
0.0219609
0.0490529
0.0601542
0.0395741
0.0218958
0.279601
0.0219106
0.413276
0.0718767
0.021918
8.09601
1.67817
0.0286658
0.1313
0.0218471
0.0218642
0.0472348
0.288572
0.0217795
0.0218569
0.0223185
0.0436687
0.0221052
0.037866
0.0221124
0.0510979
7.04601
0.0409809
0.22726
0.0218502
0.025232
0.022828
0.0236094
0.0216898
0.0218912
0.023098
0.0234642
0.0721408
0.0224315
0.0995058
0.0219271
4.70093
0.0215241
0.0217734
0.081907
0.0222715
0.12006
0.0923005
0.0392064
0.0219799
0.023113
0.0219964
0.0393712
0.0220931
0.0576974
0.0264209
0.0221988
0.0216811
0.0280518
6.22302
0.0332706
0.0547367
3.67474
2.72926
0.0407707
0.0215744
4.96609
0.0219804
0.0239524
0.0224504
0.118628
0.0219812
0.036786
0.0283386
0.0238234
0.022122
0.0260319
0.0222001
0.0662163
0.0219322
0.0221861
0.0219956
0.0295205
7.87548
0.0220466
6.56846
0.0897421
0.0214564
7.63789
1.10096
0.0218444
0.0236205
0.0919692
0.0217928
0.0218971
2.78284
0.022028
3.50105
0.0257607
0.0251581
0.0227177
0.0225403
0.0219255
0.02186
0.0634124
0.0225797
0.0219614
0.0219181
0.0223459
5.08008
0.0383937
0.022103
0.0295094
0.181519
0.0693592
0.0218788
0.0220879
0.0219541
0.0255927
0.022868
0.0224462
0.0282847
6.25662
0.0218353
0.0233305
2.69133
0.0250834
0.106588
0.173064
0.0218717
0.02227
1.43769
0.0975936
0.192579
4.94137
3.44965
0.251212
7.50674
0.0218042
0.0235571
0.0216796
0.0221871
4.45535
0.0219932
0.060773
0.0682049
0.0309971
0.0253708
1.4419
0.0219002
0.0221179
0.0259528
0.0219342
0.02205
0.0217887
0.0221182
0.0772765
0.0219378
0.0221672
0.0217932
0.0475892
0.0221327
6.08682
0.0219141
0.0233068
0.0218146
0.0222521
0.0229547
0.0220039
0.0400585
0.0230447
0.0219283
0.029194
0.0221088
0.0222646
0.0220164
0.0316833
0.0224796
0.0220349
0.0220483
0.0220615
0.0302882
0.0220214
0.0220088
0.122861
0.0220764
0.0219349
0.0243155
2.60358
0.056203
0.0225377
0.0570603
9.2955
0.137749
0.296858
0.0242646
0.0230324
0.0279526
0.8926
0.0221646
0.370278
0.0227338
0.0218919
0.0293692
0.0220535
0.0788929
0.0868532
0.0715814
0.0232085
0.0219952
0.0296497
0.0279312
0.0229871
0.0248845
0.0238161
0.0460172
0.0787439
0.0793324
0.0219582
0.0244861
1.46959
0.0232345
0.0222853
4.9986
0.662376
0.0219871
0.0225952
0.0235453
0.0835459
7.10256
0.0219572
0.455761
7.08033
0.0393675
0.0650967
0.0216789
0.0240279
0.0229082
0.0929576
0.0222319
0.0300462
0.02385
0.426485
0.0221938
0.0220629
5.89091
0.0239532
0.023093
0.0222656
0.0222127
0.0400886
4.87263
0.02876
0.022044
2.35057
0.0990572
0.0224552
0.0219663
0.0218257
0.0246031
0.0217361
0.246889
0.0218569
0.0248808
0.0253568
0.0647511
0.0268342
0.0218584
0.0280003
0.024732
0.0218447
0.105875
0.0219876
0.0238059
0.0216897
0.0222719
23.4871
0.0298267
0.0224342
4.54024
0.0230434
0.021949
9.54009
0.0737521
4.6402
0.0219327
0.023356
0.0218696
0.022797
0.0232888
5.58433
0.0226897
0.101037
0.0218059
0.0221903
0.0241289
0.0220217
0.0376903
10.0518
0.805607
0.0219509
0.0217187
0.317788
0.0226023
0.0222503
0.0269381
0.0282833
0.527821
0.0933232
0.0230451
5.30226
0.092394
0.022501
0.0217688
0.0223553
0.0290495
4.60958
0.0222839
0.0683195
0.0229953
0.0220919
0.0215804
0.0224642
11.5071
0.0273495
0.0217917
0.0240868
0.022096
0.0256135
0.0214436
0.0235533
0.0220213
0.023211
0.551053
0.0220799
0.0222131
0.111177
0.0216146
0.0215726
6.25093
0.0218754
4.88689
5.5056
8.24673
0.0272065
0.0221683
0.0215107
0.0221393
0.0214839
0.0239934
0.234941
0.0554934
0.550628
0.0950241
0.0245654
0.0216073
0.0232914
0.0228046
0.0222726
0.0221652
0.0215622
0.0788105
0.0227129
22.2639
0.022362
0.0229133
0.0222635
0.0221635
7.45595
0.152266
0.0290397
0.0215089
0.0573579
0.0234618
0.0219723
0.0856697
0.0214563
0.0237432
5.65191
0.0219592
0.0218911
0.0218897
7.0132
4.91949
0.021635
0.0228216
0.0252133
0.0221299
0.0216565
0.0220024
0.0220764
0.0219043
0.0218553
0.0219002
0.0249086
4.95452
0.0391398
0.0219346
0.0219321
0.0224589
0.0222505
0.0221777
0.02647
0.0279081
11.2237
0.026682
0.0222383
0.0228693
0.0219465
0.107113
0.0216092
0.0222237
0.0233883
0.0297861
0.027103
6.64964
0.0221797
0.0323307
0.0228162
0.0227815
0.0221053
0.0216086
0.0232872
0.132181
0.201412
0.0217631
0.0397766
0.0837648
0.0222647
0.042742
0.0405361
3.54797
0.0222494
0.023899
0.0227254
0.0216006
0.0850294
0.0219592
0.0219994
0.0554882
0.284923
0.238513
0.0217944
0.0219156
7.24476
4.50832
0.0215957
8.98625
6.32821
0.0218215
0.0215972
0.0217367
0.0220919
0.0221409
0.0215552
0.0294774
5.49276
0.0218293
0.0219599
0.0217007
0.0221584
0.0217972
0.021867
0.0215456
7.76971
0.0221009
0.375665
0.0222076
0.0218126
0.0232835
0.0218483
0.022176
0.0306349
0.0221558
0.0223481
6.13198
0.0219926
0.0258863
0.022052
0.021983
0.0221415
0.0218131
0.138143
0.0220597
0.0221079
0.0220901
0.243441
0.0345753
0.0222683
0.0221757
0.0219384
0.0233883
4.77598
0.023648
0.0239539
0.0219508
0.0221242
0.0219446
0.0560879
0.023563
0.0231386
0.53484
0.0475873
0.0218248
0.0259577
0.0221042
0.0225704
0.0218554
5.20386
0.0219621
0.0220587
0.021807
0.0302457
0.0238905
0.0230549
0.0219467
0.0217988
0.0677536
6.32076
0.0218417
0.0574745
0.0237721
0.0236426
7.55323
0.0217702
0.0219857
0.0219509
0.0242505
0.0236456
0.0217928
0.0247881
0.0219064
0.111911
0.0215228
0.0217199
0.0259929
0.0221432
0.105628
0.0268323
11.0795
0.071483
0.0222122
0.12115
4.71712
0.0227231
0.0252235
0.0220688
0.0257144
0.0217877
0.0422892
0.0471433
0.0218793
0.0297327
0.0218401
4.84653
0.0223703
0.0241375
5.96056
0.0471833
0.0246134
0.175144
0.022157
0.0219966
5.11513
0.0217759
7.58102
0.0218434
0.0218608
0.0799881
11.2759
0.0219106
0.0445093
10.428
0.0218524
0.0221753
0.0220341
0.0287866
0.026421
0.0230898
0.0220066
4.61828
0.0219642
0.0228386
0.0219382
0.0218976
0.0220384
0.0238596
0.0288895
6.00734
0.0222315
6.03012
0.0219395
0.0229406
0.0250806
0.0228583
0.0639007
0.0686422
0.0226262
0.0219306
0.0218252
0.0992457
0.0217498
0.0218285
0.773013
0.141787
0.0217532
0.0220044
0.0217739
0.0220911
0.0252177
0.0857962
0.0219663
0.0221274
0.0217468
0.0223157
0.0219648
0.0215123
0.0284072
4.41505
0.0217012
0.0223961
6.78484
0.0219042
0.0406307
0.0220708
0.0318847
0.0593126
22.811
0.0222612
0.0220565
0.0217879
0.0222803
0.0220434
0.0214546
0.0221451
0.0221275
0.0236258
0.0597071
0.0258018
0.0239616
5.75903
0.0220298
0.16416
0.0217487
0.0218955
0.0220168
4.09257
0.0218366
0.0595491
0.0233361
0.0228359
0.0219357
0.0217689
0.0218533
0.0225388
0.0218501
0.0218149
0.0513348
0.380939
5.51249
0.0217907
0.0533754
0.0223599
0.0220863
0.0218165
0.0220802
0.310534