/*--------------------------------*- C++ -*----------------------------------*\
| =========                 |                                                 |
| \\      /  F ield         | OpenFOAM: The Open Source CFD Toolbox           |
|  \\    /   O peration     | Version:  v2012                                 |
|   \\  /    A nd           | Website:  www.openfoam.com                      |
|    \\/     M anipulation  |                                                 |
\*---------------------------------------------------------------------------*/
FoamFile
{
    version     2.0;
    format      ascii;
    class       surfaceVectorField;
    location    "750";
    object      Uf;
}
// * * * * * * * * * * * * * * * * * * * * * * * * * * * * * * * * * * * * * //

dimensions      [0 1 -1 0 0 0 0];


internalField   nonuniform List<vector> 
14907
(
(0.996548 0.0137273 7.69667e-21)
(0.99665 0.0141524 3.59421e-21)
(0.996215 0.0139688 3.71343e-21)
(0.998505 0.00615731 9.17273e-22)
(0.998351 0.0064436 3.35435e-21)
(0.998543 0.00651285 -3.64445e-21)
(1.04105 0.0165323 -1.08837e-21)
(1.04207 0.0169424 1.50192e-21)
(1.04181 0.0156246 -2.15969e-21)
(1.01259 5.26215e-05 5.89827e-22)
(1.01252 8.89583e-05 1.89239e-22)
(0.408534 0.0699878 1.33419e-19)
(0.349385 0.0600188 -3.46474e-20)
(0.46608 0.0804119 4.60681e-20)
(0.999167 0.00593224 -1.60064e-21)
(0.999192 0.0055492 -1.68475e-21)
(0.999034 0.00582032 9.3154e-21)
(0.4558 0.0379247 1.50429e-21)
(0.40033 0.0461125 6.19078e-20)
(0.52742 0.0315888 1.29656e-20)
(1.19292 0.0197891 -3.77287e-20)
(1.19976 0.0253888 -2.49471e-20)
(1.0605 0.0175427 -9.04046e-20)
(1.03436 0.0153704 -1.31887e-22)
(1.03415 0.016269 -8.53757e-22)
(1.03329 0.015566 -6.12916e-22)
(1.002 0.00591015 -1.47753e-21)
(1.00198 0.00613379 -1.19609e-21)
(1.00218 0.00622716 -2.8264e-21)
(-0.262537 -0.0404546 -1.25988e-20)
(-0.268635 -0.0361607 -2.61358e-20)
(-0.266639 -0.0354919 5.98681e-20)
(1.01621 0.000178645 -7.95021e-22)
(1.01232 8.32964e-06 -1.35798e-22)
(1.01748 0.00221396 1.05874e-22)
(1.01735 0.00243715 -1.52828e-21)
(1.01773 0.0024853 -1.57743e-21)
(1.01778 0.000884545 9.90714e-22)
(1.01757 0.000853592 6.62367e-22)
(1.01767 0.00106973 6.38872e-22)
(0.957326 0.0592064 3.74719e-20)
(0.959281 0.0572329 1.37164e-20)
(0.956335 0.0560681 7.07588e-21)
(0.999672 0.00759894 -3.59943e-21)
(0.999622 0.00724124 0)
(0.999782 0.00732954 3.83862e-21)
(0.999779 0.00794686 6.00315e-21)
(0.999591 0.00790227 -7.51543e-21)
(1.00003 0.000341102 -4.5221e-21)
(1.00003 0.000352068 5.00282e-23)
(1.00005 0.000471713 -3.61149e-21)
(0.996431 0.0132484 -1.74207e-21)
(0.996887 0.0134694 -1.94971e-21)
(0.653749 0.277082 -7.48882e-20)
(0.676529 0.290378 -2.4738e-20)
(0.679533 0.269194 4.56352e-20)
(1.00492 0.00638363 3.50364e-21)
(1.00492 0.00667611 8.18365e-22)
(1.00522 0.00660928 -1.90926e-21)
(1.29371 -0.035567 6.64786e-22)
(1.28196 -0.0355307 3.645e-20)
(1.28919 -0.0290248 4.2394e-20)
(1.01631 0.000476725 3.67334e-22)
(1.01626 0.000497215 -1.77424e-22)
(1.01664 0.000675959 -5.17704e-22)
(1.01585 0.00491769 1.67552e-21)
(1.01624 0.00499811 0)
(1.01608 0.00463473 0)
(0.998647 0.00591002 6.22009e-22)
(0.998476 0.00584497 2.73569e-21)
(1.1079 0.0299959 1.15906e-20)
(1.11052 0.0276224 2.40977e-22)
(1.10669 0.0266251 1.1231e-20)
(0.998683 0.002066 8.96109e-21)
(0.998808 0.00177317 8.54523e-22)
(0.998848 0.00195052 2.82817e-23)
(0.995175 0.0610376 -3.37116e-22)
(0.993268 0.0599356 6.59158e-21)
(0.995351 0.0587677 1.55953e-21)
(1.02452 0.0247573 5.58249e-22)
(1.02381 0.0253388 6.16689e-22)
(1.02372 0.024239 2.59728e-21)
(1.00239 0.0526649 3.58689e-21)
(1.00407 0.0535486 2.8998e-21)
(1.00248 0.0549352 -3.36453e-22)
(0.996593 0.00536873 -2.56411e-21)
(0.9963 0.00542919 4.68781e-21)
(0.996522 0.00504825 7.99222e-22)
(-0.131421 -0.000995929 2.5833e-20)
(-0.143178 -0.0034112 -5.62863e-20)
(-0.145943 -0.00207078 2.66665e-20)
(1.00204 0.00566812 0)
(1.00185 0.00557806 0)
(1.02257 0.0483682 2.42696e-21)
(1.02273 0.0502373 0)
(1.02082 0.0487783 8.49238e-22)
(1.0763 0.0684538 3.25512e-21)
(1.0774 0.0654583 6.59566e-21)
(1.07422 0.0659011 2.69796e-22)
(1.01546 0.0048549 -7.39124e-22)
(1.01561 0.00522353 1.48816e-21)
(1.10268 0.0337133 -1.90124e-20)
(1.10559 0.0318318 3.70439e-21)
(1.10167 0.0305621 -8.76191e-21)
(1.12485 -0.000721848 -5.0632e-21)
(1.12124 -0.000917249 1.42177e-20)
(1.12294 0.00234202 0)
(1.01503 0.00471226 1.21312e-21)
(1.01532 0.00442937 -8.99396e-22)
(1.00242 0.129032 -3.27289e-21)
(1.00479 0.132151 -4.22977e-21)
(0.999281 0.131103 -7.3133e-21)
(0.633467 0.279429 -4.97668e-20)
(0.640252 0.258674 -6.67814e-20)
(0.966636 0.0557071 3.49192e-24)
(0.965252 0.0579352 -1.07383e-20)
(0.968009 0.0580447 -1.12168e-20)
(0.500168 0.0295957 -3.11801e-20)
(0.380719 0.0515974 -2.95399e-20)
(0.992123 0.0347647 6.60286e-21)
(0.992965 0.0359131 -2.96176e-21)
(0.993369 0.0342528 -8.32368e-22)
(0.482594 0.0835714 5.07474e-20)
(0.338963 0.061707 3.95522e-20)
(1.18398 -0.0024514 1.30532e-20)
(1.18154 -0.00712698 2.85938e-20)
(1.1779 -0.00186384 -2.28252e-20)
(0.97587 0.0387675 9.75492e-21)
(0.976113 0.0402513 1.39686e-20)
(0.974573 0.0394305 1.72791e-20)
(1.21447 -0.0645293 -3.25609e-20)
(1.20802 -0.0625089 3.28865e-21)
(1.20963 -0.0698344 -4.19126e-20)
(1.09205 0.044803 8.02071e-21)
(1.09408 0.0474289 -7.35659e-21)
(1.09509 0.0439873 7.02664e-21)
(1.13645 -0.0638755 1.31427e-20)
(1.13189 -0.0664931 -3.52283e-22)
(1.13121 -0.0603541 2.66652e-21)
(1.00041 0.000504311 -1.6094e-21)
(1.00047 0.000605394 -1.43839e-21)
(1.00052 0.00054679 1.76496e-21)
(1.04468 -0.0106183 3.29169e-22)
(1.04586 -0.0110711 1.88908e-21)
(0.958303 0.0451218 0)
(0.955895 0.0456925 8.52826e-21)
(0.956739 0.043105 0)
(1.05516 -0.0122972 5.07115e-21)
(1.05553 -0.0106895 0)
(1.05695 -0.0124519 -5.00712e-21)
(1.10423 0.0368009 -8.90549e-21)
(1.10034 0.0357029 7.63013e-21)
(0.999103 0.00630514 -5.05728e-21)
(0.999242 0.00604416 0)
(1.02516 0.0243952 -3.7406e-22)
(1.02539 0.0254914 -3.48154e-22)
(0.975546 0.0369727 -9.4472e-21)
(0.977321 0.0379478 3.63789e-22)
(1.02418 0.047926 2.40636e-21)
(1.02243 0.0466503 -1.06933e-21)
(0.960389 0.0440882 -1.25401e-20)
(0.959899 0.0464291 0)
(0.997517 0.00573407 -6.18469e-22)
(0.997628 0.00535118 -9.36668e-21)
(0.99736 0.00554023 9.85601e-22)
(0.996864 0.0078862 0)
(0.997097 0.00800825 0)
(0.997104 0.0075941 0)
(1.07498 0.0712478 -3.33493e-21)
(1.07852 0.0711398 2.91688e-21)
(1.04007 0.0159997 1.58935e-21)
(1.04012 0.0172703 3.00226e-21)
(0.964877 0.017801 1.39949e-21)
(0.963482 0.0184702 1.85726e-20)
(0.964764 0.0194934 7.76687e-21)
(1.02559 0.0474456 0)
(1.0259 0.0459335 1.19381e-21)
(1.02757 0.0470783 -1.0838e-21)
(0.972598 0.0133641 4.55125e-21)
(0.972027 0.014474 -9.5445e-21)
(0.973452 0.0140932 6.36148e-21)
(0.714433 0.206985 -6.68947e-20)
(0.719201 0.187789 1.59892e-20)
(0.733631 0.20067 2.28246e-21)
(-0.227833 0.0152843 -7.87017e-20)
(-0.205276 0.0140692 1.39621e-20)
(-0.215977 -0.00177173 2.94363e-20)
(1.00165 0.0290091 4.0536e-21)
(1.00161 0.0300046 0)
(1.00075 0.0293998 0)
(1.05509 -0.0142443 -1.05324e-21)
(1.05348 -0.0125822 1.02376e-20)
(0.624336 0.295846 5.96882e-20)
(0.990857 0.0354417 -5.27489e-21)
(0.991227 0.0337984 0)
(0.858578 0.0748314 9.23968e-21)
(0.862159 0.0684032 2.4273e-20)
(0.853412 0.0677783 1.45193e-20)
(0.973077 0.0099333 8.7594e-21)
(0.973742 0.0108886 8.59969e-21)
(0.974289 0.00984346 -1.02283e-20)
(1.01667 0.00504965 1.53767e-21)
(1.01639 0.0053828 6.67924e-23)
(0.243164 0.0343941 -6.65755e-20)
(0.310422 0.0473477 -6.69e-20)
(0.996363 0.0128598 -1.11245e-20)
(0.996279 0.0124313 -5.80542e-21)
(0.996673 0.0125758 -7.69865e-21)
(0.895638 0.0966037 2.13499e-20)
(0.894625 0.0901579 -2.21761e-20)
(0.900485 0.0938173 -1.82507e-20)
(0.413484 0.0497444 0)
(0.351619 0.0559593 3.13109e-20)
(0.305677 0.063569 1.914e-20)
(1.08891 0.0455593 0)
(1.0901 0.0423305 0)
(0.579543 0.105434 -1.5245e-19)
(0.646347 0.113093 -4.18893e-20)
(1.00801 0.0396963 5.11873e-21)
(1.00856 0.038791 -5.67014e-21)
(1.00915 0.0400883 1.78579e-22)
(0.969497 0.0515393 -1.97166e-20)
(0.968609 0.0493967 8.69275e-21)
(0.971003 0.0495616 6.31302e-21)
(0.973133 0.0121032 6.40383e-22)
(0.971692 0.0124616 -2.60623e-21)
(1.00007 0.00160471 0)
(1.00006 0.00164579 -5.51719e-21)
(1.00003 0.00137067 -5.42612e-21)
(0.997367 0.0155873 -1.05239e-20)
(0.997066 0.0152879 -4.60935e-21)
(0.996914 0.0158462 -2.46308e-21)
(1.15061 0.3023 1.92294e-20)
(1.14056 0.297855 3.31689e-20)
(1.15031 0.292395 1.34179e-20)
(0.985856 0.0225339 1.13717e-20)
(0.986227 0.0233815 4.05513e-21)
(0.985235 0.023196 -2.70087e-21)
(0.997688 0.0160883 4.222e-21)
(0.997849 0.0154713 -2.6547e-21)
(1.03752 0.0376715 4.64498e-22)
(1.03852 0.0365884 4.87329e-22)
(1.03671 0.0364051 7.04019e-22)
(0.666607 0.126779 1.01265e-20)
(0.511336 0.0920258 2.46624e-20)
(0.996786 0.0622465 -1.03556e-20)
(0.994693 0.0635442 7.39387e-21)
(1.04463 -0.0092524 1.71544e-21)
(1.00068 0.0519335 -2.17607e-22)
(1.00228 0.0507341 -2.16273e-22)
(1.01808 0.0318963 2.96381e-21)
(1.01716 0.0321595 2.39347e-21)
(1.01817 0.0328747 -4.36698e-21)
(0.99981 0.0122033 -2.2091e-21)
(0.999574 0.0119747 -5.51708e-21)
(0.999898 0.0117878 -1.01854e-20)
(1.01146 0.0315156 1.41571e-21)
(1.01198 0.0307005 -2.51143e-22)
(1.01098 0.030626 7.38315e-21)
(1.00002 0.124113 -1.52288e-20)
(1.00594 0.12548 8.65295e-22)
(1.02953 0.0225941 -3.24292e-22)
(1.03046 0.02308 0)
(1.03002 0.0220004 -6.15283e-23)
(0.999999 0.000101797 3.74567e-22)
(1 0.000102468 -4.03283e-21)
(1.16735 0.230193 -1.77674e-20)
(1.16163 0.236101 0)
(1.17127 0.236984 0)
(1.07725 0.0139591 0)
(0.998032 0.0113497 -4.73193e-21)
(1.13422 0.00850109 3.05369e-20)
(1.00007 0.00185899 0)
(1.00007 0.00161624 5.49908e-21)
(0.98834 0.0561489 -1.24075e-20)
(0.986878 0.0546801 4.82229e-22)
(0.988908 0.0539491 7.08933e-21)
(1.03311 0.22116 1.00877e-21)
(1.04066 0.222851 3.69939e-21)
(1.03481 0.229893 2.00037e-21)
(0.993926 0.0128475 9.80694e-22)
(0.993647 0.0131935 4.69661e-22)
(0.994092 0.0133406 -5.29138e-21)
(1.00007 0.012438 -5.47291e-22)
(0.999736 0.0126242 3.24398e-21)
(1.00462 0.00612428 5.39373e-21)
(1.00493 0.00604808 2.12716e-21)
(1.02425 0.000132906 -4.64685e-23)
(1.02377 0.000229983 -3.98777e-23)
(1.01151 0.00136466 -3.03032e-21)
(1.01121 0.00120221 2.02292e-21)
(1.0112 0.00156662 3.83723e-21)
(1.00529 0.0231872 -3.12277e-22)
(1.00591 0.0237188 2.84898e-21)
(1.00521 0.0241447 2.41004e-21)
(1.04251 0.0911422 -2.55545e-22)
(1.0398 0.0923527 1.43908e-22)
(1.03963 0.0892165 -4.94981e-22)
(-0.237308 0.0328192 6.73347e-20)
(-0.248007 0.00529786 -7.50916e-20)
(0.966333 0.0174064 9.39661e-21)
(0.965126 0.0162876 -3.61857e-20)
(1.00275 0.0214114 3.88593e-21)
(1.00276 0.0221214 1.06249e-21)
(1.00209 0.0217855 -6.96241e-21)
(0.990796 0.00648344 -2.02938e-21)
(0.991288 0.00637689 -2.85927e-22)
(0.991088 0.00687755 8.84552e-21)
(0.996035 0.0131112 -8.89251e-21)
(1.01926 0.0316238 2.32591e-21)
(1.01813 0.0308445 -6.30161e-22)
(-0.0540399 0.0322227 6.77058e-20)
(-0.0897797 0.0264413 3.15986e-20)
(-0.0521173 0.0343807 -3.54429e-20)
(0.985486 0.0216492 1.20911e-20)
(0.98658 0.0217953 -1.88883e-20)
(1.13528 0.0164094 0)
(1.2536 0.0195931 -2.54511e-20)
(0.995718 0.0384864 -4.8091e-21)
(0.996771 0.0393382 -2.3263e-20)
(0.996892 0.0378435 -6.49266e-21)
(0.993596 0.00422941 6.50037e-21)
(0.993711 0.00459547 -1.56998e-20)
(0.993994 0.00428693 -7.9098e-21)
(1.1732 0.222976 -1.26515e-20)
(1.1637 0.222321 2.94647e-20)
(1.00665 0.0394909 -6.94526e-21)
(1.00747 0.0412679 7.09492e-21)
(1.1827 0.0295853 3.59449e-20)
(1.28367 0.0331401 4.32741e-20)
(1.09105 0.0650451 3.49902e-21)
(1.09252 0.0626318 2.85601e-21)
(1.09424 0.0659069 -1.71191e-21)
(1.0298 0.214623 -1.55708e-21)
(1.0241 0.220899 -1.11529e-21)
(0.998009 0.0164652 6.62927e-22)
(0.998287 0.0169015 -1.50311e-20)
(0.998486 0.0163228 -3.66653e-21)
(0.889461 0.098864 4.05527e-21)
(0.896254 0.102801 -3.08664e-20)
(0.979345 0.0214241 1.57004e-20)
(0.979324 0.0226856 0)
(0.97811 0.0216976 6.31394e-21)
(-0.203417 0.000702919 0)
(-0.227699 -0.00509157 0)
(-0.227443 -0.00222833 -2.62519e-20)
(1.28343 0.0679107 3.25974e-20)
(1.28067 0.0620239 -2.47005e-20)
(1.28853 0.0617851 1.24792e-20)
(1.02895 0.0234255 -3.07985e-22)
(1.02848 0.0222696 -9.73267e-23)
(1.1033 0.204827 -3.51635e-21)
(1.10116 0.197259 -3.31991e-21)
(1.10914 0.199564 -9.58024e-21)
(-0.129961 0.0205956 -1.88474e-20)
(-0.158456 0.0166117 -6.18448e-20)
(-0.126877 0.0209203 -2.41261e-20)
(1.03849 0.0391125 7.54022e-23)
(1.03655 0.0387183 -3.23019e-22)
(1.22091 -0.0661834 -1.16438e-20)
(1.21895 -0.0589276 -3.86419e-20)
(1.15952 0.306675 1.37714e-20)
(1.14973 0.313098 3.14513e-21)
(0.982687 0.0559193 -8.99452e-21)
(0.981282 0.054326 7.22457e-21)
(0.980371 0.0566239 9.14201e-21)
(0.990438 0.00617634 0)
(0.990323 0.00668756 8.07808e-21)
(0.9817 0.0486847 0)
(0.982846 0.0503283 0)
(0.983714 0.0482936 8.69857e-22)
(1.222 0.201348 -1.23753e-20)
(1.21746 0.208621 2.72416e-20)
(1.21442 0.199964 -2.48563e-20)
(1.04143 -0.00425769 2.23331e-21)
(1.0406 -0.00499011 -2.41299e-21)
(1.04034 -0.00386188 -2.03509e-21)
(1.00471 0.022986 -2.94484e-21)
(1.00538 0.0225786 3.92553e-22)
(1.13502 0.169641 8.49589e-21)
(1.12943 0.167265 1.38378e-20)
(1.13025 0.174306 8.03928e-21)
(1.02891 -3.04353e-06 -3.4223e-22)
(1.02866 0.000431873 5.43511e-22)
(1.02936 0.0004456 1.61127e-22)
(1.01195 0.0324352 3.79342e-21)
(1.01087 0.0323444 -3.5147e-21)
(1.01332 0.0965611 1.47391e-20)
(1.0097 0.0964219 1.0683e-20)
(1.01206 0.0932278 5.26549e-21)
(1.03625 0.0147402 8.54177e-23)
(1.03616 0.013765 -6.32297e-23)
(1.03714 0.0143107 0)
(1.00003 0.000137909 3.78864e-21)
(1.00004 0.000190221 3.06627e-21)
(1.00002 0.00013296 -2.57852e-21)
(0.0532895 0.109609 -1.17159e-20)
(0.0803976 0.105224 8.17212e-21)
(0.0224901 0.112999 -4.92734e-20)
(-0.0874594 0.0281867 1.79124e-20)
(-0.124606 0.0242189 9.5912e-20)
(-0.0943456 0.0273848 8.72965e-20)
(0.999456 0.00132312 0)
(0.999524 0.00109886 0)
(0.999539 0.00120206 0)
(1.01726 0.00202467 2.51872e-21)
(1.01759 0.00201189 2.95954e-21)
(0.950045 0.012401 1.0222e-20)
(0.952221 0.013009 1.17316e-21)
(0.951574 0.010734 -3.95611e-22)
(0.996641 0.00777118 3.83055e-23)
(0.996658 0.00819133 0)
(1.09702 0.209235 -1.1927e-20)
(1.1049 0.211371 -4.51683e-21)
(0.0249462 0.0270294 -8.08303e-20)
(-0.109974 -0.0100309 7.09233e-21)
(-0.108878 -0.000432629 -1.00538e-19)
(-0.238007 -0.0514649 0)
(-0.215149 -0.0456384 0)
(-0.236302 -0.0574451 0)
(1.25006 0.0836123 -5.92324e-20)
(1.24813 0.0775519 5.70764e-21)
(1.25478 0.0783895 -3.04311e-20)
(0.995416 0.00641471 3.37886e-21)
(0.995639 0.00656483 -3.65367e-21)
(0.995312 0.00672837 1.4754e-21)
(1.03539 0.0151226 6.12814e-22)
(1.03631 0.0156607 -6.18314e-22)
(1.01256 0.0419566 -5.68467e-21)
(1.01196 0.0431284 -1.0986e-20)
(1.0133 0.0432096 -6.12099e-22)
(0.979411 0.020047 2.26932e-21)
(0.980539 0.0210995 6.58832e-21)
(0.934823 0.2582 4.04622e-21)
(0.930811 0.269671 0)
(0.94441 0.265598 0)
(0.191888 0.108579 6.60015e-22)
(0.250254 0.166823 1.80638e-20)
(-0.151588 0.00347278 -1.09467e-19)
(-0.156828 0.00729341 -1.81719e-20)
(-0.0813155 0.0287524 -4.14567e-20)
(-0.0442477 0.034139 -6.17503e-20)
(1.05458 -0.0061166 -3.9084e-21)
(1.05292 -0.00586988 1.06039e-20)
(1.05418 -0.00451398 1.0248e-20)
(1.00599 0.0132804 3.705e-21)
(1.00627 0.0137368 1.93463e-21)
(1.00649 0.0133532 0)
(0.82041 0.16116 1.21226e-19)
(0.716143 0.140912 1.67753e-20)
(0.683543 0.348518 4.62774e-20)
(0.678845 0.317206 6.72116e-20)
(0.652994 0.334119 -1.13558e-20)
(0.896966 0.166325 -5.11818e-21)
(0.905123 0.167258 -2.91838e-20)
(0.901653 0.158892 -1.08633e-20)
(0.461899 0.0233647 -1.99652e-22)
(0.522757 0.0152325 5.14101e-20)
(0.402031 0.0371952 -2.83893e-21)
(-0.233016 0.206127 4.82001e-20)
(-0.245518 0.158184 -7.98218e-20)
(-0.231064 0.180233 7.72422e-20)
(0.994751 0.03766 1.61721e-20)
(0.993862 0.0367575 -5.61073e-22)
(0.99501 0.0361847 1.35545e-20)
(0.715716 0.22823 -4.15815e-20)
(0.695811 0.214483 3.86326e-20)
(1.06677 0.12251 -2.82866e-21)
(1.06636 0.117731 1.39211e-22)
(1.06221 0.120947 -1.94484e-21)
(0.947756 0.0116808 0)
(0.948394 0.0141419 0)
(-0.114417 -0.00528271 8.11407e-20)
(-0.113487 0.00141653 5.0561e-20)
(0.971367 0.0157746 -2.54117e-21)
(0.972467 0.0166094 1.31876e-20)
(0.970716 0.0170438 1.34907e-20)
(1.08765 0.0649448 7.11173e-21)
(1.08955 0.0681926 -1.59052e-20)
(0.967992 0.0535549 -5.58168e-21)
(0.965488 0.0534502 2.17286e-20)
(-0.0591889 0.0303917 5.03069e-20)
(-0.00662979 0.0400626 -3.80741e-21)
(1.28687 0.107711 1.52307e-20)
(1.28707 0.10117 -2.50049e-21)
(1.28055 0.104727 1.75245e-20)
(1.02419 0.0418721 -3.7357e-21)
(1.02344 0.0410711 -2.85803e-21)
(1.02284 0.0421762 -1.40137e-21)
(-0.211201 -0.066324 -4.63251e-20)
(-0.235417 -0.068509 -1.53299e-19)
(-0.240238 -0.0669076 -3.27571e-20)
(1.06378 0.0503213 0)
(1.06204 0.0485025 -2.30661e-21)
(1.06463 0.048039 -4.54087e-21)
(0.732811 0.753752 0)
(0.736499 0.694416 1.31585e-21)
(0.6836 0.725414 -1.91298e-21)
(0.980543 0.0473003 0)
(0.979469 0.0494288 4.97619e-21)
(0.0207343 0.116986 -6.27854e-20)
(0.083953 0.102023 7.16501e-20)
(0.988422 0.193637 -2.63413e-21)
(0.954922 0.176964 3.28232e-20)
(1.23656 0.0347224 2.55883e-20)
(1.23114 0.0359841 -1.61119e-20)
(1.23612 0.0405146 -4.2437e-20)
(1.14682 0.174736 -6.53767e-21)
(1.00466 0.147892 -3.4213e-21)
(1.03004 0.155239 6.75246e-20)
(1.08551 0.0348349 -1.41136e-21)
(1.08315 0.0334503 1.51138e-20)
(1.08579 0.0318618 6.15241e-21)
(0.994663 0.0118111 5.09576e-21)
(0.994649 0.0122703 -4.96728e-21)
(0.995059 0.011998 0)
(1.01709 0.00177003 -1.25037e-21)
(1.0169 0.00198138 1.6048e-21)
(1.03109 0.0683454 3.36077e-21)
(1.03332 0.0680961 7.15311e-22)
(1.03222 0.0710067 2.93094e-21)
(0.874414 0.145385 -1.24044e-20)
(0.883138 0.148343 -1.31619e-20)
(0.881997 0.139556 2.97001e-21)
(1.02528 0.042052 2.34205e-22)
(1.02446 0.0433187 3.52646e-23)
(1.0067 0.0237335 -2.50147e-21)
(1.00754 0.0239672 -2.52837e-21)
(1.00704 0.0230313 -5.75862e-21)
(0.707175 0.350534 -5.92403e-20)
(0.689271 0.372165 -2.75349e-20)
(0.970238 0.0150521 -3.02465e-20)
(1.02023 0.0135634 -1.04268e-22)
(1.02087 0.0135431 0)
(1.02074 0.0142338 1.19311e-21)
(0.78387 0.847283 2.18105e-20)
(0.814431 0.747862 0)
(0.999216 0.00212574 -4.29772e-21)
(0.999191 0.00195857 8.14107e-21)
(0.9993 0.00184641 7.22558e-21)
(1.00002 0.000391717 -3.84993e-21)
(1.00002 0.000403437 4.24028e-21)
(1.00004 0.000541376 -2.75979e-23)
(0.999911 0.000615657 2.0441e-23)
(0.999898 0.000608018 -1.10985e-20)
(0.999883 0.000792505 -1.05179e-20)
(1.28779 0.204221 -1.2551e-20)
(1.27005 0.192498 -3.55313e-20)
(1.01737 0.000345292 0)
(1.01755 0.000260451 0)
(1.01606 0.000148882 5.95187e-22)
(0.925802 0.250439 4.05461e-21)
(0.937603 0.247487 8.80589e-21)
(1.01375 0.441873 4.24751e-21)
(0.995149 0.446245 1.38326e-20)
(1.01085 0.463279 6.89045e-21)
(0.954391 0.0135397 -1.91849e-20)
(0.953035 0.0152029 -9.9167e-21)
(1.2904 0.108742 2.32493e-20)
(1.28673 0.112525 6.11638e-20)
(0.977247 0.00867365 1.34606e-21)
(0.976717 0.00962327 1.41213e-20)
(0.977836 0.00960939 2.04276e-20)
(1.00063 0.00867179 0)
(1.00045 0.00879419 2.08578e-23)
(1.00066 0.00906631 0)
(1.15813 0.157317 0)
(1.16161 0.151962 1.42188e-20)
(1.16525 0.159001 -3.16878e-20)
(1.01177 0.0155734 -2.50049e-21)
(1.0114 0.0151529 2.37603e-22)
(1.01123 0.0157155 -1.58019e-21)
(1.04536 0.0901498 6.93552e-23)
(1.04534 0.0936643 -5.2514e-22)
(0.949261 0.0215162 0)
(0.950407 0.0193875 2.68948e-22)
(0.951669 0.0213462 -4.76531e-23)
(1.10863 0.425983 0)
(1.09391 0.417782 3.66792e-20)
(1.10716 0.409506 7.66303e-21)
(1.12843 -0.000431419 -4.89426e-21)
(1.12664 -0.00366727 1.51041e-20)
(0.94153 0.0718457 4.08064e-21)
(0.941673 0.0751232 4.87318e-20)
(0.938415 0.0730277 8.17609e-21)
(1.11257 0.02533 1.88199e-23)
(1.11483 0.022708 -1.2692e-21)
(1.11141 0.0219942 -2.1403e-22)
(1.32822 0.0530628 2.29832e-20)
(1.30609 0.0562806 5.79238e-21)
(1.34694 0.0598743 -1.31255e-20)
(1.00402 0.0227217 5.43557e-21)
(1.00338 0.022412 9.31043e-21)
(1.00407 0.0220284 -1.00796e-21)
(1.2609 0.108319 0)
(1.2655 0.112585 -7.32942e-20)
(1.25846 0.114327 1.48812e-20)
(1.055 -0.0158484 5.03691e-21)
(1.05679 -0.0158094 -1.03987e-20)
(1.03438 0.0144617 6.87221e-22)
(0.788862 0.369792 -5.00765e-20)
(0.808632 0.365062 1.39189e-20)
(0.804877 0.385861 1.40555e-21)
(1.00577 0.0128746 5.94588e-22)
(1.00558 0.0132277 -4.32932e-22)
(1.05488 -0.0176078 1.03319e-21)
(1.05337 -0.0160894 -1.11553e-21)
(1.04308 0.0166826 2.90677e-21)
(1.04245 0.0176867 3.73075e-21)
(1.01621 0.0972981 -3.14432e-21)
(1.01398 0.100596 -3.11987e-21)
(1.01862 0.015373 3.53455e-21)
(1.01872 0.0160125 2.26619e-22)
(1.01927 0.0157018 6.31157e-22)
(1.01798 0.000543855 -8.76539e-22)
(1.0181 0.000449169 -4.9917e-22)
(1.01815 0.000648569 9.62502e-24)
(1.06462 0.0250805 -2.83967e-21)
(1.06643 0.0244207 -2.96888e-21)
(1.06606 0.0266066 -3.64584e-21)
(1.07219 -0.0303065 2.52334e-20)
(1.07252 -0.0278748 8.40333e-21)
(1.07453 -0.0299294 5.31242e-21)
(0.995179 0.006208 4.39342e-21)
(0.995553 0.00603977 -1.23382e-21)
(0.994518 0.0391224 1.72496e-20)
(1.01308 0.040755 4.33112e-21)
(1.0118 0.0406668 1.53772e-22)
(1.03668 0.093728 1.07783e-21)
(1.0399 0.0967374 8.54129e-23)
(1.00268 0.0207677 3.1743e-21)
(1.00333 0.0210672 -1.81057e-22)
(0.99685 0.00526964 6.07626e-21)
(0.996675 0.00562904 -2.584e-21)
(1.0148 0.00113658 4.95252e-22)
(1.01453 0.000842554 -3.17943e-25)
(1.01445 0.00118827 8.90709e-24)
(0.987756 0.0583702 -7.07183e-21)
(0.989907 0.057485 -1.37321e-22)
(1.05507 -0.00931024 0)
(1.05469 -0.00764403 -9.18189e-21)
(1.05342 -0.00917978 0)
(1.00001 0.000216227 -2.97577e-23)
(1.00003 0.000327503 -3.30877e-21)
(1.01689 0.00132799 1.22705e-21)
(1.01682 0.00111106 -1.04758e-21)
(1.01706 0.00117021 -1.02988e-21)
(1.00165 0.0279708 4.00465e-21)
(1.00253 0.0285105 9.55061e-22)
(0.991544 0.082787 2.13269e-21)
(0.989231 0.0844799 -1.15849e-20)
(0.992343 0.0857532 -4.23481e-21)
(1.11168 0.439694 0)
(1.12446 0.42798 -3.06854e-20)
(1.24587 0.0875613 -3.51147e-22)
(1.25206 0.0886455 7.77007e-21)
(-0.178804 -0.062267 3.08118e-20)
(-0.178776 -0.0590268 -6.64516e-21)
(0.893091 0.174248 1.22105e-20)
(0.889171 0.165431 1.34482e-20)
(0.913306 0.168057 -1.02524e-20)
(0.92177 0.169509 0)
(0.91716 0.160681 0)
(0.954953 0.0610388 3.19195e-20)
(0.958158 0.0619184 -1.25767e-20)
(1.18968 -0.00167047 0)
(1.19498 -0.00518036 0)
(1.19578 0.00140856 -1.62347e-20)
(0.63116 0.00555403 0)
(0.652765 0.000607598 2.87085e-20)
(0.535127 0.0174039 0)
(1.06263 0.0259153 2.95069e-21)
(1.0629 0.0238004 -1.38385e-21)
(0.994299 0.0125406 -8.95354e-22)
(0.993835 0.0124196 4.40513e-21)
(1.0179 0.00072147 2.39726e-22)
(1.01779 0.000494609 -7.99204e-22)
(1.02869 0.069257 2.22125e-21)
(1.02976 0.0665961 -3.68463e-22)
(1.01807 0.0150795 2.23922e-21)
(1.01857 0.0147879 -6.6307e-24)
(1.31629 -0.0375085 -4.04227e-20)
(1.30246 -0.043579 -3.78355e-20)
(1.06609 0.000128552 7.77496e-21)
(1.06474 0.000922219 -2.4e-22)
(1.06649 0.0018217 -6.74857e-21)
(0.997498 0.0166519 3.67584e-21)
(0.999938 0.000460657 1.09178e-20)
(0.999944 0.000624406 9.61913e-21)
(0.867226 0.1402 0)
(0.867024 0.149283 0)
(1.05687 -0.00923418 4.22734e-21)
(1.03086 0.438327 -1.47679e-20)
(1.01934 0.426319 -3.88257e-21)
(0.910319 0.176453 4.31677e-21)
(1.18164 0.271342 0)
(1.18497 0.279971 -1.90185e-20)
(1.1927 0.271785 -7.54973e-20)
(1.06306 0.0520448 -2.63473e-21)
(1.06567 0.0517234 0)
(1.06987 -0.0310349 5.59436e-21)
(1.07187 -0.0332703 1.20733e-20)
(1.01752 0.0148394 1.25597e-21)
(1.0174 0.014278 0)
(1.01693 0.0145596 1.21841e-21)
(1.08314 0.00721911 2.06165e-21)
(1.08462 0.00660291 -4.70356e-22)
(1.08457 0.00864208 1.14333e-20)
(1.04249 -0.00455714 3.03157e-21)
(1.04203 -0.00344673 2.90291e-21)
(1.07171 0.123387 -2.72954e-21)
(1.06753 0.126907 2.22877e-21)
(0.990516 0.0239296 4.06288e-21)
(0.989814 0.0236114 -3.62532e-21)
(0.990591 0.0231047 -7.95479e-21)
(1.10904 0.0331156 1.84325e-20)
(-0.175242 0.00647466 -4.26549e-20)
(-0.173757 0.00346643 -3.49462e-20)
(1.01992 0.0130093 1.62184e-21)
(1.01974 0.0136063 1.08042e-21)
(1.03708 0.0199381 -2.6694e-21)
(1.03745 0.0189109 -1.34011e-21)
(1.03845 0.0198167 4.05451e-22)
(0.58375 0.0122375 1.4868e-20)
(0.735592 -0.00551905 -4.46712e-20)
(1.18484 0.0032759 0)
(1.02403 0.0397438 2.38271e-21)
(1.02252 0.0398687 2.08232e-21)
(0.997097 0.005143 4.80456e-22)
(0.997228 0.00535498 -4.30678e-21)
(0.997373 0.00499202 -3.57001e-21)
(0.993881 0.0807049 6.24807e-21)
(0.990983 0.0797202 -6.2227e-21)
(0.413133 0.0329579 -7.9426e-21)
(0.543256 0.00458089 2.76903e-21)
(1.17436 0.0837925 -5.21669e-20)
(1.16876 0.0864308 -1.66144e-20)
(1.16996 0.0802565 9.78874e-21)
(1.22555 0.196584 0)
(1.22873 0.204535 3.91723e-20)
(1.00039 0.000398745 1.7707e-21)
(1.00033 0.000440089 9.40929e-21)
(1.01697 0.00154383 6.82435e-22)
(1.01727 0.00159747 -1.83988e-21)
(1.00397 0.0235498 -4.55324e-21)
(1.03495 0.0168803 1.24095e-21)
(1.03381 0.0170314 5.2832e-22)
(1.32332 0.0463486 -3.56033e-20)
(1.33487 0.0458425 4.97369e-20)
(0.994878 0.0196497 0)
(0.995101 0.020317 4.84588e-22)
(0.99437 0.0202289 6.74498e-21)
(0.997638 0.00590995 -3.83209e-21)
(0.997372 0.00609097 2.57454e-21)
(1.00591 0.0145463 -2.60617e-21)
(1.00624 0.0149924 -4.59044e-21)
(1.00577 0.0149697 -3.29547e-21)
(0.977814 0.0077096 -1.70875e-20)
(0.976605 0.00758005 -1.27816e-20)
(1.12395 -0.0136022 -1.68402e-20)
(1.12485 -0.0176817 -7.37316e-21)
(1.12087 -0.0156146 -2.00991e-20)
(0.966589 0.0673368 -1.4397e-21)
(0.965826 0.0699015 8.42165e-21)
(0.963775 0.0672704 -1.16351e-20)
(1.08547 0.265754 6.00876e-21)
(1.07711 0.260557 -9.15821e-21)
(1.08688 0.256447 5.56118e-21)
(0.131876 0.00241067 -1.64294e-22)
(0.237372 0.0161403 0)
(0.16788 0.0124484 0)
(0.962354 0.0427187 -1.3748e-21)
(0.960594 0.0412118 -1.22603e-20)
(0.761188 0.0628628 2.56117e-20)
(0.641124 0.0585515 3.14338e-20)
(0.681157 0.0571547 4.04242e-20)
(1.00262 0.0200923 2.50958e-21)
(1.00258 0.0194399 1.02634e-22)
(1.00315 0.019732 6.0398e-21)
(1.08158 0.00699246 3.30083e-21)
(1.08167 0.00891641 5.72772e-21)
(0.998588 0.00239848 0)
(0.998516 0.00221476 0)
(-0.262706 0.00109283 5.242e-20)
(-0.267166 0.000613236 8.02581e-20)
(1.17736 0.216869 2.48794e-20)
(1.18203 0.210449 3.10126e-20)
(1.17372 0.209471 1.10291e-20)
(1.12777 0.235881 0)
(1.25845 0.27202 1.21089e-21)
(1.25629 0.260258 -1.90095e-20)
(-0.187496 0.206382 0)
(1.01709 0.00515201 1.38239e-21)
(1.01724 0.0055279 2.81637e-22)
(1.0175 0.00523414 -1.44883e-21)
(1.06564 -0.00156685 1.05855e-20)
(1.06737 -0.000814197 4.85365e-21)
(1.00143 0.0310656 6.38047e-21)
(1.00239 0.0306135 2.08791e-21)
(0.97474 0.0772675 -4.74938e-21)
(0.977866 0.0767056 -2.09342e-20)
(0.975546 0.0741802 -1.66761e-20)
(1.11389 0.0285824 2.111e-22)
(1.00003 0.000982854 8.41376e-21)
(1.00002 0.000796789 3.87584e-21)
(1.00001 0.000797985 3.2799e-21)
(1.05122 0.134649 2.14272e-21)
(1.05542 0.132805 2.72854e-21)
(1.05391 0.138995 1.82942e-21)
(1.0118 0.0012558 -2.00476e-21)
(1.01173 0.00162899 -3.54257e-21)
(1.01828 0.000340483 -7.88551e-24)
(1.01837 0.000262511 3.98148e-22)
(1.01813 0.000213754 8.79496e-22)
(0.992601 0.0374002 -7.61537e-21)
(1.08408 0.273442 1.23053e-20)
(1.09384 0.269603 -6.54403e-21)
(0.999989 0.000287142 0)
(0.999992 0.000137887 0)
(0.999993 0.000136664 -4.77186e-21)
(1.0603 0.0463732 9.08794e-22)
(1.05937 0.0485253 -7.00631e-21)
(0.979648 0.0190386 -1.07873e-20)
(0.979873 0.0179791 -1.02374e-20)
(0.980734 0.0187816 0)
(0.967523 0.0649421 6.18125e-21)
(0.96942 0.0672325 1.03241e-20)
(-0.243387 0.0778982 9.07632e-20)
(-0.23271 0.116691 -1.05657e-19)
(-0.250042 0.095088 1.36031e-20)
(1.00209 0.0204498 -6.94756e-21)
(0.999359 0.00143383 0)
(0.999374 0.00156377 -1.58133e-21)
(1.00292 0.00191783 5.57684e-21)
(1.00293 0.00217954 -1.26756e-21)
(1.00321 0.002096 3.02922e-21)
(1.03912 0.0155098 -1.31169e-22)
(1.03996 0.0148361 -1.92676e-21)
(1.07326 0.168167 -2.57844e-21)
(1.07498 0.174648 0)
(1.06759 0.171424 3.74679e-21)
(1.23628 0.0289514 6.06339e-20)
(1.24143 0.0331022 -1.64945e-20)
(0.928539 0.168509 2.2779e-20)
(0.926583 0.176561 0)
(1.00336 0.0772022 2.49852e-20)
(1.13238 0.0829711 8.38555e-21)
(1.14438 0.09077 4.34128e-20)
(1.12366 -0.0102555 8.45218e-21)
(1.1272 -0.0122901 -2.07043e-20)
(1.08392 0.0651598 6.97629e-21)
(1.08527 0.0622529 1.61122e-21)
(0.978484 0.0192417 2.63161e-21)
(1.01796 0.000937149 5.55315e-22)
(1.04268 0.0360911 7.50695e-22)
(1.0434 0.0349356 1.52965e-22)
(1.04189 0.0348372 -2.7508e-21)
(1.00001 0.00023392 3.67301e-23)
(1.00003 0.000365125 7.87296e-21)
(1.33344 0.09989 -4.34251e-20)
(1.32699 0.0994899 -4.39044e-20)
(1.33122 0.104121 9.08908e-21)
(0.991228 0.0242312 1.87064e-20)
(0.990467 0.0249258 7.6246e-21)
(1.0257 0.0491685 -1.36063e-21)
(1.2038 -0.106422 -4.80044e-20)
(1.19777 -0.102106 -1.18713e-20)
(1.19635 -0.110956 9.4084e-21)
(1.00644 0.0245283 3.56597e-21)
(0.978475 0.0837853 5.7597e-21)
(0.980695 0.0817624 5.5718e-21)
(0.981559 0.0850732 -4.91086e-21)
(0.970654 0.0536515 -4.80405e-21)
(1.2092 -0.113251 -1.90571e-20)
(1.21108 -0.10343 -1.61048e-20)
(1.0431 0.00706321 -5.05063e-22)
(1.04364 0.00628777 1.6131e-21)
(1.044 0.00746203 3.04709e-21)
(0.941126 0.0680945 -1.32685e-20)
(0.944731 0.0701722 -1.13489e-20)
(1.03449 0.208286 5.24476e-22)
(1.02581 0.207386 0)
(1.04631 0.136828 0)
(1.04802 0.130978 0)
(1.03524 0.0668026 -1.07976e-21)
(1.03755 0.0655054 6.89354e-23)
(1.03485 0.0644577 0)
(0.993927 0.0108729 -8.28148e-21)
(0.99386 0.0113317 -3.61921e-21)
(0.993461 0.0110595 -7.47092e-21)
(0.887567 0.0653959 -1.46325e-20)
(0.902856 0.0731806 -3.17242e-20)
(1.13964 0.166373 0)
(1.13946 0.173941 5.60468e-22)
(1.05267 0.0120557 4.68884e-21)
(1.05415 0.0115397 0)
(1.05372 0.0128212 0)
(1.07863 0.164508 8.86956e-21)
(1.07171 0.162257 -2.88958e-21)
(1.0018 0.0102784 -1.97082e-21)
(1.0016 0.010131 -1.87932e-21)
(1.0017 0.0105074 -1.54093e-20)
(1.00593 0.0125261 -2.98596e-21)
(1.00552 0.0124734 -3.46798e-21)
(1.00206 0.0104573 7.94386e-21)
(1.00193 0.00999842 2.73916e-21)
(0.975315 0.0825256 7.45081e-21)
(0.976139 0.0860697 -8.49726e-21)
(1.29211 0.286642 4.62324e-20)
(1.29788 0.282025 4.7185e-20)
(1.29388 0.292027 9.72745e-20)
(1.07041 -0.0152348 4.44802e-21)
(1.06886 -0.0166506 -5.43323e-21)
(1.06848 -0.0145248 -5.3848e-21)
(1.00002 0.000617152 -3.86413e-24)
(1.00003 0.000794677 2.75488e-22)