/*--------------------------------*- C++ -*----------------------------------*\
| =========                 |                                                 |
| \\      /  F ield         | OpenFOAM: The Open Source CFD Toolbox           |
|  \\    /   O peration     | Version:  v2012                                 |
|   \\  /    A nd           | Website:  www.openfoam.com                      |
|    \\/     M anipulation  |                                                 |
\*---------------------------------------------------------------------------*/
FoamFile
{
    version     2.0;
    format      ascii;
    class       volScalarField;
    location    "200";
    object      nut;
}
// * * * * * * * * * * * * * * * * * * * * * * * * * * * * * * * * * * * * * //

dimensions      [0 2 -1 0 0 0 0];


internalField   nonuniform List<scalar> 
9793
(
0.00224119
0.0276587
0.00159888
0.00670922
0.017534
0.00681555
0.00690278
0.00671395
0.00678027
0.019191
0.000624174
0.0032932
0.0067181
0.00679788
0.00702763
0.00678329
0.00685239
0.00688078
0.0275367
0.00679669
0.00278523
0.00663251
0.0190043
0.0066929
0.00680731
0.00673391
0.00679298
0.00680468
0.000769753
0.0067802
0.00314511
0.017156
0.0203316
0.00699624
0.000886113
0.00446976
0.00695291
0.00663693
0.00673697
0.00682277
0.00340629
0.00703803
0.00686351
0.00690917
0.00686541
0.00676274
0.000744834
0.00966641
0.0121711
0.00670541
0.000717452
0.000650929
0.00649557
0.00679627
0.00157455
0.00359558
0.0067282
0.000572647
0.00859218
0.00673499
0.0069513
0.00674182
0.0073526
0.00681361
0.0264154
0.0166524
0.0067963
0.00912337
0.00218685
0.000585388
0.00159644
0.00690418
0.00673375
0.021688
0.000826081
0.00721833
0.00673062
0.0069036
0.00687278
0.00682229
0.0160186
0.00689115
0.0258781
0.00593123
0.00315157
0.00728773
0.0068388
0.00673383
0.00679859
0.00694262
0.0292318
0.0105656
0.00675683
0.0159855
0.00677368
0.0058248
0.0034847
0.0277443
0.00674653
0.00673358
0.00673115
0.00691306
0.00672359
0.0067185
0.0068635
0.00356074
0.00681054
0.00693548
0.00679782
0.00350502
0.00692597
0.00318109
0.00672149
0.00418085
0.000651349
0.0067312
0.0213547
0.000826444
0.00690138
0.0142742
0.00701355
0.00707478
0.00673218
0.00669887
0.00678878
0.00281983
0.000685761
0.00750163
0.00693566
0.00672264
0.00696309
0.00673434
0.00672518
0.00692884
0.00677045
0.00673726
0.00685193
0.00688662
0.00672056
0.00670148
0.00673038
0.00681377
0.00675854
0.00675057
0.00681377
0.00687273
0.0151348
0.00675245
0.00673472
0.00461965
0.00269558
0.00696266
0.00274269
0.018798
0.00672961
0.0070589
0.00683193
0.00682073
0.00674041
0.00675207
0.00671721
0.00680716
0.00675641
0.0304895
0.0205871
0.0032197
0.00920951
0.00293182
0.0067797
0.00683298
0.00678167
0.019375
0.021253
0.018809
0.00679401
0.0293593
0.00673734
0.00668519
0.00673271
0.00139698
0.00171851
0.00415989
0.00674221
0.00681213
0.00633403
0.00673135
0.000636183
0.00673222
0.00673285
0.00675573
0.00679334
0.00671185
0.012418
0.00323211
0.0084545
0.0017597
0.0144693
0.00681107
0.0135213
0.00671604
0.00677036
0.0285229
0.00353661
0.00672073
0.006741
0.00680874
0.00367045
0.00676405
0.00354129
0.00637614
0.00122312
0.0115868
0.012476
0.00679921
0.0218268
0.00682131
0.00685421
0.00643214
0.00678625
0.0115544
0.000972628
0.00673237
0.00678824
0.00671159
0.00699846
0.0301662
0.00680111
0.00672297
0.000953241
0.000636218
0.0066987
0.00669023
0.00363392
0.00674699
0.000615909
0.0112047
0.00671939
0.00676227
0.00335533
0.00687519
0.00395101
0.00680107
0.00675783
0.0187391
0.00675
0.00673687
0.00671192
0.00682288
0.00674455
0.00696554
0.00680468
0.00310398
0.000659574
0.000660607
0.00674184
0.00655285
0.00677393
0.0028447
0.00684702
0.00675052
0.0134577
0.00675552
0.000661672
0.00695828
0.00240945
0.00672916
0.00672719
0.00122692
0.0287497
0.00683353
0.00675528
0.0067121
0.00344921
0.00673336
0.0283112
0.0280502
0.00672281
0.00332317
0.00672722
0.000672297
0.00682937
0.00670449
0.0069892
0.00680255
0.000675261
0.00673149
0.00680693
0.00308584
0.00676265
0.00674148
0.00672047
0.0207474
0.00683664
0.00698433
0.00696807
0.00692936
0.00677181
0.00226013
0.00671208
0.0268093
0.0067275
0.012526
0.0241969
0.00698637
0.00693686
0.00675543
0.00286121
0.0052219
0.00683399
0.0127141
0.00678266
0.00675188
0.00503526
0.00680675
0.0067993
0.00692036
0.00710629
0.00677453
0.00416566
0.00639855
0.00674986
0.0228007
0.02727
0.0181035
0.00675601
0.00110861
0.00675704
0.00974647
0.000904765
0.00673235
0.00237858
0.000867365
0.00687743
0.00417116
0.000576297
0.00670903
0.00685513
0.00676184
0.00686488
0.00681471
0.00272475
0.00673468
0.00674324
0.0279924
0.00687921
0.00677925
0.00675247
0.00672958
0.00671135
0.00924519
0.00678124
0.00674929
0.00681493
0.00691144
0.0162897
0.00679383
0.00235264
0.00668863
0.000971132
0.00139528
0.00065779
0.000798198
0.00673939
0.00699096
0.0251544
0.00694656
0.0128636
0.00687934
0.00675796
0.0233059
0.00460607
0.0274524
0.00674957
0.000599061
0.00506537
0.00683004
0.00672512
0.0211068
0.00177537
0.0164635
0.00654336
0.00678893
0.0125682
0.0067202
0.00673837
0.00695924
0.00687057
0.00679743
0.00679231
0.00659942
0.0169485
0.00679807
0.00162798
0.0152968
0.0259821
0.000663117
0.0123504
0.00682596
0.00676065
0.0206555
0.014319
0.00680763
0.00593841
0.0263298
0.00671165
0.00511743
0.00676793
0.00659273
0.00670778
0.00116021
0.00673429
0.00167367
0.00318854
0.00676604
0.019574
0.00695326
0.00677168
0.006943
0.00684625
0.00682345
0.00686956
0.0140898
0.00672375
0.00680095
0.000609642
0.0067826
0.00685817
0.00675673
0.00674873
0.00133302
0.00675911
0.00680389
0.00670057
0.0217066
0.00684257
0.0217765
0.0068363
0.012856
0.00694831
0.00685484
0.00697982
0.00679793
0.00653116
0.00680737
0.000877981
0.00676566
0.00678451
0.00673993
0.0220167
0.00309488
0.00140866
0.0121725
0.00635997
0.00671506
0.00192148
0.00145795
0.00130074
0.0266103
0.0237109
0.00677137
0.00691116
0.000586806
0.00673567
0.00693189
0.00673326
0.00672384
0.00699645
0.0037291
0.0016812
0.0098449
0.00672998
0.00301596
0.00668038
0.00696414
0.00694699
0.00689959
0.00231827
0.00685356
0.00687306
0.00671417
0.00675176
0.0064177
0.00941789
0.00677854
0.00671429
0.0247938
0.00503544
0.00678111
0.00761432
0.0124072
0.00693616
0.00696252
0.00672039
0.00643405
0.00680608
0.00688662
0.00683513
0.00682412
0.00678013
0.00674608
0.0119872
0.000705859
0.00683697
0.00604033
0.00139628
0.00673662
0.00682899
0.00687868
0.00307709
0.00683035
0.00224524
0.00673958
0.00675693
0.00062923
0.00673078
0.00100549
0.0209275
0.00358732
0.00673702
0.00135705
0.00575491
0.00672079
0.00678671
0.000503022
0.00674235
0.00671745
0.0067115
0.00673888
0.0184068
0.000615175
0.00162265
0.00682095
0.00678228
0.00676234
0.00677419
0.00689134
0.00671525
0.00308142
0.000671338
0.0067166
0.00698427
0.0229133
0.00678509
0.00981918
0.00230124
0.00688264
0.000561608
0.0108291
0.00673295
0.000577816
0.00670807
0.00342932
0.00293354
0.0118199
0.00672734
0.00675226
0.00685429
0.0297132
0.00699095
0.0073295
0.0164631
0.0261581
0.000866197
0.00434813
0.00130135
0.00703253
0.00104302
0.00697379
0.017279
0.00679683
0.0127333
0.00670639
0.00566996
0.00695478
0.004827
0.0067557
0.000692669
0.00671122
0.00684071
0.00459595
0.0061538
0.00153988
0.00673536
0.00672389
0.00677667
0.0067696
0.024876
0.00670416
0.0233091
0.00981032
0.00670492
0.00694015
0.00248933
0.00610768
0.00672986
0.00680694
0.006834
0.00273248
0.00370246
0.00560542
0.00670461
0.00689093
0.00676341
0.00324656
0.00681145
0.00671154
0.0195346
0.00676867
0.0183154
0.00182218
0.00690352
0.0067256
0.00671227
0.00702556
0.00705225
0.00675038
0.00682217
0.00667766
0.0067693
0.00682316
0.00670749
0.00660057
0.00668414
0.00488447
0.00701892
0.00678675
0.00663257
0.00380097
0.000992655
0.00697287
0.00673198
0.00672629
0.00670926
0.00673646
0.0068737
0.00674562
0.00673941
0.00676902
0.00671107
0.00104206
0.00684125
0.00698481
0.00673371
0.0131701
0.00670603
0.0067076
0.000551836
0.00670344
0.00683329
0.000678702
0.00680578
0.00691764
0.00694226
0.000550462
0.00671308
0.000574546
0.0276561
0.0172455
0.014397
0.00682683
0.00673725
0.0160789
0.00687471
0.006704
0.0127248
0.0117066
0.020587
0.00672757
0.000496795
0.00673697
0.00673227
0.0040044
0.00670807
0.00665219
0.00712927
0.000716225
0.00672897
0.0065968
0.0067723
0.000624294
0.0151449
0.00677565
0.00708078
0.00131319
0.00673417
0.00642624
0.000612433
0.00121612
0.00672423
0.0103469
0.00687891
0.014537
0.00925586
0.0227347
0.0200715
0.00682812
0.00314395
0.0124808
0.00670661
0.00670735
0.00700154
0.00687766
0.00670567
0.00372625
0.00670061
0.0252974
0.00255974
0.00834544
0.000631588
0.00677939
0.00119613
0.0149834
0.00679192
0.0126712
0.00349624
0.000505097
0.00670581
0.00670076
0.021588
0.00679512
0.0145049
0.0067274
0.0195052
0.00672812
0.0114338
0.0227765
0.00682733
0.00199706
0.00673625
0.00414097
0.00086762
0.00790662
0.00928903
0.00676286
0.00673453
0.00671341
0.0190987
0.0279632
0.00690406
0.00474835
0.0101997
0.00670954
0.00671197
0.00693879
0.00575308
0.00607349
0.00681465
0.00684571
0.0067253
0.0142479
0.0186169
0.00285436
0.0067131
0.00670888
0.0148673
0.00670794
0.0121782
0.000771783
0.0259345
0.00699443
0.0204417
0.00672554
0.00677752
0.00315417
0.00517546
0.00263199
0.00670925
0.000501486
0.0156695
0.0067182
0.0155909
0.00672295
0.0103652
0.00679505
0.0166125
0.0053797
0.00719295
0.00673375
0.00703103
0.00802533
0.0166538
0.0128243
0.00680099
0.00120072
0.00682925
0.00669369
0.00570223
0.00112898
0.00698541
0.000511394
0.00672053
0.00121914
0.00676676
0.00668799
0.00698711
0.00671157
0.0193471
0.00670762
0.00667714
0.00697327
0.00699175
0.0067068
0.000957796
0.0069576
0.00426353
0.00672895
0.00671322
0.0162927
0.00670556
0.00281318
0.00672345
0.00887535
0.00684128
0.00584935
0.00688234
0.00100544
0.00681413
0.00680507
0.00670446
0.0223498
0.0164849
0.0105741
0.00141213
0.0166473
0.00679443
0.00350119
0.029173
0.00672636
0.0199637
0.0145809
0.000933228
0.00111756
0.00669606
0.0165772
0.0057242
0.0208563
0.0295677
0.00670351
0.00679888
0.0156995
0.0234669
0.00692119
0.0065914
0.0067087
0.00689481
0.000795744
0.00687731
0.00673874
0.00479537
0.00415848
0.000845995
0.00675496
0.0164924
0.00670614
0.00674338
0.00615889
0.0116096
0.000761394
0.00681852
0.00389022
0.00673372
0.00672667
0.0222006
0.0067125
0.00671627
0.0171995
0.0194607
0.00683982
0.0133647
0.00173691
0.00309446
0.0018035
0.00110799
0.00688029
0.0120636
0.00681306
0.00671855
0.00675648
0.00695245
0.00683676
0.00139665
0.00689007
0.0235144
0.00689416
0.00124124
0.00680419
0.000779634
0.00720831
0.0068743
0.00083698
0.00689846
0.00673349
0.00085037
0.0070198
0.00133603
0.00684551
0.00672321
0.0185544
0.00724523
0.00753716
0.00668131
0.00667589
0.00677259
0.00691715
0.0277675
0.000828336
0.00410979
0.0011387
0.0151579
0.00681164
0.00298116
0.0040736
0.0030903
0.00108715
0.00673473
0.00673673
0.0034401
0.000956735
0.00131347
0.00672489
0.0155472
0.0234272
0.0069372
0.000676759
0.00232027
0.0260743
0.00682143
0.00201193
0.0211654
0.00709496
0.0067269
0.00393135
0.00681786
0.00670651
0.00672483
0.00136594
0.00682079
0.00144681
0.00768077
0.000724802
0.00482446
0.00121509
0.0065057
0.0161318
0.0059901
0.00673404
0.00678978
0.00537483
0.0071786
0.00688261
0.0143208
0.019843
0.00230386
0.0121104
0.00677088
0.0155174
0.00679347
0.0202793
0.00672301
0.0203818
0.000519094
0.00671401
0.00691433
0.0217621
0.00670227
0.00676854
0.00679363
0.00113157
0.0133504
0.0030539
0.00139997
0.00829735
0.00581035
0.00126836
0.0167052
0.00685129
0.00671831
0.00136248
0.00874234
0.0067216
0.00678513
0.00675801
0.00680528
0.0068123
0.00190514
0.00816461
0.00676236
0.00576053
0.0104667
0.00679805
0.00701193
0.00616266
0.0169681
0.00678462
0.00707194
0.00733505
0.00679216
0.00672328
0.00678627
0.00672041
0.0067211
0.0238786
0.0147658
0.00679967
0.0077354
0.00607643
0.0032452
0.00672142
0.00702645
0.00674286
0.00681758
0.0195451
0.0069241
0.00693846
0.00285736
0.00682206
0.00700426
0.00157006
0.00671916
0.000674939
0.00678491
0.00670584
0.0130822
0.00672791
0.0166046
0.00439288
0.00672963
0.00476269
0.0070541
0.000994559
0.00326942
0.00671216
0.00846759
0.0067229
0.00671946
0.0289873
0.00879467
0.00671625
0.00677592
0.00671644
0.00679637
0.000516181
0.00675669
0.00681805
0.00692699
0.00689585
0.005871
0.00676895
0.00676018
0.00671195
0.00670804
0.0137029
0.00622227
0.00671442
0.000673457
0.00689194
0.00893204
0.00406199
0.000840055
0.00677071
0.00672129
0.000535013
0.00664124
0.00679268
0.00682245
0.0239291
0.000922118
0.00672238
0.00668802
0.000508593
0.000996192
0.00669978
0.0219196
0.000861719
0.006811
0.00678987
0.00751341
0.00679457
0.00266954
0.0157495
0.00689836
0.00363117
0.0075814
0.00798182
0.00669232
0.00673756
0.00668198
0.00668387
0.000854925
0.00673109
0.00393703
0.00139646
0.00668117
0.00678594
0.0045933
0.00696231
0.00679674
0.00671321
0.00680928
0.0150862
0.00668541
0.00676359
0.0195818
0.00687157
0.00679127
0.00716538
0.00673006
0.00679455
0.00672151
0.00675263
0.00721893
0.00698452
0.00112488
0.00893443
0.00669337
0.0067292
0.00668957
0.000991679
0.00671179
0.00648339
0.00673971
0.0067264
0.00674094
0.00671111
0.00111484
0.00673491
0.00671404
0.0100342
0.0143572
0.00677554
0.00675363
0.0067099
0.00501237
0.00193135
0.00671235
0.0212391
0.0175036
0.00698271
0.00803461
0.024097
0.00653917
0.0229592
0.0025937
0.00618856
0.00671977
0.00308281
0.000752803
0.00671081
0.0105706
0.0013826
0.00671718
0.00198724
0.0035849
0.00704837
0.023349
0.00670223
0.00166983
0.000853878
0.00671319
0.0177193
0.00670574
0.000688003
0.000980554
0.00669731
0.00714559
0.00682394
0.00679959
0.000962496
0.00224544
0.00110433
0.00138772
0.00672921
0.00289365
0.00124927
0.00670983
0.00179388
0.00671522
0.0241959
0.0125677
0.00683752
0.00687201
0.00165886
0.00121125
0.00126137
0.00119656
0.00669771
0.00671837
0.00134917
0.0114892
0.00431613
0.00667278
0.0066758
0.00169805
0.00671745
0.00690251
0.00701913
0.00667182
0.00674488
0.00703274
0.0215008
0.00286767
0.00671319
0.00089167
0.00653613
0.0024639
0.00198872
0.00144026
0.0208401
0.0013953
0.00670289
0.000541874
0.000526801
0.0148092
0.0132758
0.00675662
0.000572998
0.0175837
0.000858004
0.00473902
0.0129451
0.0140167
0.00671987
0.00179861
0.00197646
0.00671738
0.000493252
0.0067361
0.00699199
0.00670783
0.00671719
0.00682601
0.00674718
0.00670287
0.00157124
0.0113891
0.00519264
0.0165648
0.00671742
0.00138235
0.00678531
0.00213389
0.0139199
0.00671848
0.000798246
0.00690753
0.00670334
0.00671673
0.00671858
0.00673018
0.00102462
0.00679266
0.0130874
0.00683944
0.0067082
0.0218352
0.00686818
0.00559268
0.00670865
0.00676235
0.00952037
0.000495327
0.0183995
0.000848442
0.0184224
0.00677549
0.0062798
0.00688138
0.00218203
0.00257711
0.000488158
0.00135181
0.0067266
0.000901147
0.00538742
0.00831748
0.00133262
0.00177343
0.00184166
0.00400878
0.0069545
0.000973242
0.00674498
0.000631338
0.00685437
0.000573297
0.000665503
0.00670715
0.00302733
0.0168587
0.00679743
0.00269245
0.00679194
0.00094102
0.00683533
0.0067988
0.0146282
0.00671244
0.00580628
0.00445744
0.00689894
0.00467147
0.00679667
0.0100738
0.00671691
0.0142136
0.00193374
0.00674443
0.00671071
0.00399719
0.00672275
0.00151724
0.00687549
0.00696689
0.00604683
0.000761018
0.00266917
0.0067623
0.0156845
0.00679482
0.00670421
0.00501709
0.0152382
0.0069862
0.006713
0.0068699
0.012255
0.00105833
0.00670791
0.00823311
0.00677912
0.0012698
0.00642251
0.00608987
0.0067185
0.000679397
0.00671788
0.00670694
0.00672076
0.0005265
0.00169157
0.00743846
0.00692454
0.00602318
0.00486223
0.0230387
0.0046859
0.00693973
0.00679503
0.00672217
0.00297345
0.00233233
0.00405462
0.00672045
0.000647098
0.00670757
0.00671437
0.00699272
0.00541613
0.000881284
0.00671958
0.00618616
0.0146767
0.0030203
0.00215798
0.00677038
0.00678055
0.000923073
0.00670596
0.0067757
0.00162839
0.00678344
0.00673382
0.00676062
0.00400433
0.00670695
0.00172234
0.000655187
0.00703738
0.00250638
0.00716773
0.00256193
0.023408
0.00672814
0.00672108
0.0067649
0.00672399
0.00676174
0.00674504
0.00140335
0.000965004
0.0067891
0.00681552
0.00676809
0.00704435
0.00666956
0.00137873
0.00638812
0.00124551
0.00672005
0.00679037
0.00682534
0.000619123
0.00675771
0.00128612
0.00674788
0.00678655
0.00667517
0.00131891
0.00365181
0.00531955
0.00139129
0.00678457
0.00675849
0.0067202
0.00673139
0.00734768
0.00681054
0.00201986
0.00637299
0.00678763
0.000692665
0.000717194
0.00347711
0.000772086
0.00680381
0.00242354
0.00672891
0.00670817
0.0067074
0.00672427
0.0160411
0.000738482
0.00671517
0.0133032
0.00164475
0.0067154
0.00298032
0.00670554
0.00161906
0.00684294
0.00671219
0.00233382
0.00678687
0.00693813
0.0064782
0.0012389
0.000561032
0.00677949
0.00671936
0.00672495
0.00170146
0.00593188
0.000732849
0.00129427
0.00676383
0.00673503
0.0137437
0.00683079
0.0013901
0.00706679
0.0143225
0.00677972
0.000769078
0.00680121
0.00679456
0.00179263
0.0010324
0.00170582
0.00460905
0.00655179
0.00177398
0.0137391
0.00263545
0.00670726
0.00170426
0.000475947
0.00358182
0.000820193
0.00679509
0.00679767
0.00672105
0.00770001
0.0161173
0.00115531
0.00679029
0.00229657
0.00704604
0.00172581
0.00676824
0.00672321
0.00671844
0.00677208
0.00146947
0.00709429
0.00673319
0.00589404
0.00674786
0.0067721
0.000882194
0.00671945
0.00673011
0.00679609
0.0082924
0.00114405
0.0067587
0.00676738
0.00674877
0.0119412
0.00677574
0.00101276
0.00677794
0.0015278
0.00676496
0.00682602
0.00276
0.00679865
0.00101748
0.00679813
0.00674213
0.00670793
0.00670016
0.000785541
0.00681952
0.00615831
0.0200047
0.00681507
0.00674512
0.00522748
0.00680889
0.00678294
0.00677799
0.00295616
0.00670907
0.006713
0.00670652
0.0128866
0.00338363
0.0253656
0.0067878
0.00681067
0.0114994
0.0188227
0.0259144
0.00147587
0.00237872
0.0284813
0.00679131
0.0224234
0.00683837
0.000559059
0.00672637
0.00484301
0.00839444
0.00667689
0.00653889
0.00703149
0.00674084
0.00675605
0.0135986
0.00671533
0.0284162
0.00679797
0.00672711
0.0067949
0.00675596
0.00679346
0.000889176
0.00674229
0.00671029
0.00671561
0.00682089
0.00672571
0.00218364
0.02353
0.0160158
0.00679337
0.00677642
0.00236919
0.00675323
0.00673894
0.000509205
0.000694419
0.00683257
0.00671344
0.00547938
0.00668639
0.00103028
0.0156911
0.00667776
0.00670306
0.0067114
0.00666374
0.00987983
0.0068337
0.0067223
0.00273531
0.000591774
0.000641432
0.0160249
0.00673588
0.00690235
0.00689728
0.00671997
0.00679755
0.011306
0.0137193
0.00511329
0.00672165
0.0142507
0.00679731
0.00679887
0.00700743
0.00574304
0.00702707
0.00429966
0.00672742
0.00674389
0.00675749
0.0067139
0.00670377
0.00676015
0.00308528
0.0129099
0.00713116
0.00667512
0.00670323
0.00671105
0.00679406
0.00674414
0.00504669
0.00509345
0.00477393
0.00678604
0.0278157
0.00671963
0.00660355
0.0118066
0.00671838
0.00673286
0.00400975
0.0067746
0.00671978
0.00671193
0.0016018
0.00699467
0.000961433
0.00679446
0.0040471
0.00676575
0.00670941
0.00670778
0.00673284
0.00259928
0.00671957
0.00679293
0.000666397
0.00675081
0.0212622
0.0070714
0.00142137
0.00679794
0.00185379
0.000911141
0.00678838
0.00670816
0.00682591
0.00678359
0.00674398
0.0185302
0.00670406
0.00263162
0.00671904
0.00684985
0.0186027
0.00672225
0.00872635
0.000539744
0.00674007
0.000923361
0.00671912
0.00679398
0.00671794
0.00679569
0.00670642
0.00674877
0.00676271
0.00679308
0.00127547
0.00678144
0.00670391
0.00678171
0.00671022
0.0067184
0.00672065
0.00672609
0.00670713
0.00671141
0.00675104
0.00671744
0.0067302
0.00678392
0.0202569
0.00683763
0.00681343
0.000965597
0.0172371
0.00679832
0.00698413
0.00671155
0.00683719
0.00673713
0.00682446
0.0166085
0.0182526
0.00670739
0.00670637
0.0175241
0.00680645
0.00385633
0.00541655
0.00671866
0.00941974
0.00676713
0.00224529
0.00648155
0.00518535
0.0233306
0.0155835
0.00671017
0.00671764
0.00677518
0.0060074
0.00115628
0.00672749
0.00400604
0.0137706
0.00673074
0.00139803
0.00176695
0.00694126
0.00670169
0.00178914
0.0017672
0.00675252
0.00672141
0.00680662
0.00425325
0.00363174
0.0056247
0.00311092
0.00491528
0.00702506
0.00673463
0.00676799
0.00671577
0.00104224
0.00700667
0.00702974
0.00135149
0.00620965
0.00845502
0.00672695
0.00703296
0.00672535
0.000813421
0.00671724
0.00676553
0.00344214
0.00450443
0.00070929
0.0067156
0.024673
0.00274103
0.00057218
0.0198627
0.0147841
0.00672192
0.00671853
0.00671994
0.00350255
0.00672861
0.0067029
0.00672518
0.00218873
0.00652901
0.0213009
0.00703883
0.00726711
0.00732693
0.000904941
0.0225408
0.0039151
0.00263998
0.000726248
0.00974697
0.0252609
0.00670685
0.0067071
0.00672803
0.00290103
0.00736336
0.00174078
0.00686331
0.00673066
0.0067749
0.000980306
0.00671768
0.00676714
0.00672142
0.00112665
0.00671724
0.00671777
0.00670545
0.0040865
0.00692499
0.00283398
0.00383028
0.00676201
0.00476741
0.00645759
0.00676676
0.0067127
0.0108198
0.00244699
0.00680949
0.00681788
0.00161191
0.00676018
0.00671907
0.00672226
0.00682471
0.00176965
0.00670895
0.00679204
0.00671617
0.00680849
0.00675558
0.00672531
0.00670532
0.00674592
0.00679511
0.00976846
0.00671269
0.0067053
0.000788898
0.00168472
0.00281579
0.000481754
0.00671698
0.00411774
0.00671079
0.00629824
0.00671558
0.00814762
0.00675389
0.00671652
0.00670587
0.00742314
0.00548806
0.00672241
0.00327912
0.00676045
0.00670964
0.00676723
0.00681974
0.00164313
0.00672581
0.00510948
0.00675771
0.00677553
0.00267832
0.00680508
0.000873566
0.0067057
0.00672797
0.00671659
0.00457489
0.00702509
0.00834248
0.00328369
0.00102109
0.00134832
0.00234586
0.00653346
0.0067532
0.00669735
0.00151797
0.00674659
0.00670706
0.00280828
0.00674566
0.00672416
0.0171068
0.00672748
0.00675724
0.00313099
0.00295595
0.00649211
0.00678516
0.006719
0.0063987
0.00671985
0.00678243
0.00179372
0.00676738
0.0107093
0.00586413
0.0257924
0.00672756
0.00676127
0.00671495
0.00675366
0.00713185
0.0067862
0.00671802
0.0022641
0.00671001
0.00804853
0.00679498
0.00674756
0.00704538
0.013429
0.00471331
0.00683631
0.000773285
0.0205227
0.00677568
0.00565067
0.00683023
0.00675654
0.00680401
0.00673343
0.00704526
0.0084563
0.0042176
0.00676032
0.0070367
0.00684169
0.00668518
0.00673067
0.00679277
0.00679947
0.00670091
0.00677678
0.00684535
0.00682479
0.00522232
0.00671628
0.00684649
0.00097771
0.00684611
0.00669928
0.014328
0.00732684
0.00619383
0.012405
0.000509632
0.00673244
0.0067733
0.0100963
0.0147626
0.0119579
0.0107049
0.0172171
0.00676054
0.0150979
0.00547899
0.00680817
0.00370109
0.00678497
0.0109042
0.00545166
0.00538844
0.00678366
0.00674229
0.00146226
0.00678414
0.00681255
0.00596713
0.00325717
0.00673948
0.00673182
0.00677123
0.0075856
0.00674842
0.00673849
0.00671797
0.00671034
0.00671974
0.00303002
0.00658996
0.00671507
0.00681436
0.00251347
0.00620441
0.0162371
0.00676306
0.00675394
0.00669841
0.00675191
0.00671761
0.00670661
0.0026188
0.00676149
0.00098817
0.006714
0.00683276
0.0066996
0.00676959
0.00591569
0.00466464
0.00670639
0.00685673
0.025238
0.00779925
0.00519358
0.00721305
0.00678587
0.00268688
0.00672023
0.00668455
0.00674311
0.00671336
0.00671909
0.00672525
0.00681111
0.00129191
0.00671962
0.0117086
0.0139636
0.00675631
0.00651383
0.00138287
0.00678984
0.00671692
0.00671007
0.00684029
0.00675291
0.0190391
0.00670166
0.00676643
0.00555456
0.00672246
0.00673372
0.00670847
0.00114414
0.00672846
0.00672458
0.018733
0.00670825
0.00670569
0.00674257
0.0066017
0.00672824
0.00668326
0.00671939
0.00672692
0.0110112
0.00228572
0.00672493
0.00537134
0.00669329
0.00674714
0.00692442
0.0104761
0.0144218
0.00669487
0.00682602
0.0067366
0.00672809
0.00674845
0.00671628
0.0210774
0.0198468
0.00677651
0.00679044
0.00712084
0.00670566
0.00673409
0.00695021
0.00306274
0.0193555
0.00677732
0.00658738
0.0137025
0.00672511
0.00704766
0.00731392
0.0109417
0.0068353
0.00672375
0.00681909
0.00676097
0.00671565
0.0210198
0.00673113
0.0140508
0.00877683
0.00536618
0.00703363
0.0246565
0.00680052
0.00524686
0.0129421
0.00312679
0.0042024
0.00671989
0.00689144
0.0204219
0.00670127
0.00865898
0.00672059
0.00670313
0.00668619
0.00670122
0.00672296
0.0113332
0.00682426
0.0196747
0.0113748
0.000567824
0.00612248
0.00668854
0.00671834
0.00297592
0.010164
0.00671653
0.0128008
0.00765066
0.00669858
0.00671523
0.0194504
0.00672084
0.00807062
0.0184403
0.00671973
0.0268753
0.00679454
0.00400706
0.00200176
0.00672605
0.00670821
0.00313981
0.00136109
0.00677451
0.00668135
0.0066878
0.00684323
0.00671529
0.0206238
0.00673342
0.00678283
0.00157861
0.00670519
0.0277632
0.0067275
0.0067091
0.0067694
0.0111808
0.00673085
0.00671775
0.0125204
0.0011897
0.0102827
0.00679922
0.00670855
0.00413514
0.0135907
0.0073335
0.000841768
0.0032299
0.00381727
0.00681748
0.00673113
0.00702184
0.00679757
0.00676491
0.00669896
0.00642138
0.00703735
0.00671753
0.00667538
0.00681054
0.00670639
0.00684903
0.00705949
0.00512624
0.0110709
0.00771048
0.0053475
0.0261126
0.00671619
0.00671587
0.00677433
0.00113166
0.00674918
0.00679507
0.00671326
0.00673874
0.00672108
0.00064882
0.00677661
0.00629435
0.00671839
0.00673498
0.00558838
0.00140136
0.0068094
0.00673431
0.00671596
0.0168262
0.00135681
0.00680296
0.00670312
0.00705586
0.00671823
0.00672322
0.00672235
0.000790405
0.00670701
0.0067128
0.00308149
0.00670722
0.000782202
0.00704387
0.00672805
0.00674481
0.0175599
0.00605406
0.00532145
0.0129824
0.00704873
0.00689041
0.00679576
0.00671555
0.00797995
0.00672409
0.0122202
0.0148866
0.00673073
0.00393742
0.0222815
0.00672872
0.0175035
0.00694575
0.00254913
0.00712049
0.00671172
0.00671696
0.00679688
0.00671716
0.00539833
0.0176529
0.00626466
0.00676685
0.00673737
0.00671082
0.00527552
0.00694467
0.00744297
0.00671312
0.00682008
0.00641047
0.00674876
0.00480638
0.00592673
0.00671909
0.00680502
0.00668169
0.00678199
0.0199804
0.027773
0.0067136
0.00673513
0.00671919
0.0247079
0.00671442
0.00222282
0.000773601
0.00301567
0.011183
0.00437464
0.00917007
0.00671692
0.00168698
0.00677894
0.00674382
0.00285812
0.00630872
0.00670475
0.00675482
0.00627463
0.00678378
0.00676476
0.0212561
0.00676571
0.0067609
0.00623546
0.0086597
0.00670725
0.00670043
0.000959152
0.0113312
0.00270683
0.00591555
0.00700719
0.0163492
0.00670536
0.00815702
0.00478989
0.00452683
0.0135814
0.00694685
0.0207123
0.00549034
0.00113538
0.00670867
0.00670474
0.00673249
0.00676134
0.00270908
0.00670715
0.000849587
0.00680042
0.00690516
0.00680254
0.0219131
0.00671205
0.0105193
0.00681821
0.0073459
0.00731492
0.00849502
0.0072821
0.00667581
0.00145408
0.00675038
0.00728668
0.0068225
0.00214786
0.00512367
0.00671276
0.0115636
0.00670979
0.0123252
0.00704916
0.00694589
0.00675588
0.0133204
0.00684141
0.00671118
0.00671731
0.0061313
0.0067952
0.00518312
0.00639986
0.00666845
0.00248938
0.00670131
0.00670259
0.011025
0.00283386
0.0225253
0.0143319
0.00673418
0.000998517
0.0248792
0.000909167
0.00671255
0.00660527
0.0200228
0.00670961
0.00706979
0.00668086
0.00751612
0.0148964
0.0139821
0.00649329
0.00670777
0.00670772
0.00679872
0.00669748
0.00701775
0.00703929
0.00677945
0.00671523
0.0142423
0.0069444
0.00682122
0.00705194
0.00528693
0.00527186
0.00786163
0.00709083
0.00686053
0.0104595
0.00671402
0.0123885
0.00671146
0.000882368
0.0072527
0.00690087
0.0112733
0.00669831
0.00674491
0.00672072
0.00670839
0.00671679
0.00672984
0.00667782
0.0059774
0.00704177
0.00672166
0.0135704
0.00672404
0.00683642
0.00670831
0.017678
0.0068077
0.00670053
0.00613613
0.0073973
0.00670283
0.0066798
0.016268
0.00676068
0.0196584
0.00121872
0.00683777
0.00679888
0.00449622
0.00538497
0.002169
0.00672624
0.00670551
0.0069655
0.00421308
0.002826
0.00309312
0.00654119
0.00692084
0.00679661
0.00698704
0.00677645
0.00649172
0.0138669
0.00670687
0.0154127
0.00646837
0.00671268
0.00671393
0.00673455
0.00672972
0.00670329
0.00672533
0.00670452
0.00697847
0.00174631
0.00682746
0.00684483
0.00251593
0.0018712
0.00671111
0.00670373
0.00103597
0.00683698
0.00701912
0.00670604
0.00689715
0.00670373
0.00669882
0.0132745
0.0067229
0.00670536
0.0115355
0.0150248
0.00941817
0.00671614
0.00406722
0.00679178
0.00415705
0.0134961
0.00682585
0.0155792
0.00670594
0.00669733
0.00516852
0.00670126
0.000864894
0.0163215
0.0119309
0.00704401
0.00808177
0.0068611
0.00672535
0.00697389
0.00670584
0.0112335
0.00964264
0.00671147
0.0126109
0.00613113
0.00667736
0.00671081
0.0042664
0.00515281
0.00146977
0.00692158
0.0239059
0.0219895
0.00675578
0.0126806
0.0179274
0.00394144
0.0162184
0.00725733
0.0127237
0.0066758
0.00841104
0.00788926
0.00669776
0.014753
0.0130469
0.0021359
0.00667467
0.00850533
0.00670136
0.00670552
0.0271441
0.0235594
0.00670349
0.00686022
0.00339683
0.00672244
0.00714454
0.0067122
0.00577825
0.0069003
0.00677079
0.00678141
0.0128765
0.00577213
0.0101829
0.00886489
0.00680666
0.0162033
0.00670482
0.020566
0.00495612
0.00675771
0.0133123
0.00681332
0.00487732
0.00673044
0.020855
0.00673797
0.00684678
0.00669504
0.00677617
0.00671822
0.00679729
0.00131305
0.0126332
0.00670373
0.0074331
0.00928633
0.00669613
0.00670097
0.0231848
0.00634244
0.000980868
0.016436
0.00900982
0.00670406
0.00675489
0.00893404
0.007383
0.0122617
0.00538827
0.0067008
0.00675077
0.00683425
0.00668343
0.0067151
0.00131399
0.00670929
0.0242341
0.00671182
0.00672661
0.00105214
0.0066767
0.00168666
0.0226258
0.00673754
0.00670758
0.00671384
0.00620959
0.00667455
0.00672008
0.0071712
0.016524
0.00654295
0.0068551
0.00202633
0.00670431
0.00682471
0.00671911
0.00840353
0.00668283
0.0145816
0.0124793
0.00237845
0.00679458
0.000977531
0.00671381
0.00695191
0.00667638
0.0066862
0.00709511
0.00670828
0.0173379
0.024286
0.00682738
0.00750527
0.007458
0.013635
0.0087291
0.00669924
0.00671248
0.00274921
0.00232432
0.00674082
0.00670425
0.00669784
0.00293443
0.0134915
0.0169994
0.0243071
0.00670651
0.0017256
0.00670349
0.000836287
0.0102304
0.0067105
0.00701886
0.00680578
0.0232308
0.0189754
0.00678991
0.00667627
0.0064381
0.00712432
0.00895057
0.00678453
0.00683191
0.0197567
0.0249566
0.00671739
0.00615829
0.0067134
0.0070385
0.00683928
0.0169509
0.00669813
0.0069266
0.00747634
0.00671838
0.00670893
0.0127006
0.00738694
0.00677417
0.00680379
0.00679422
0.00670081
0.00671394
0.00201264
0.0190662
0.00674262
0.00697197
0.00671031
0.00671658
0.00671742
0.00672825
0.0156252
0.0152187
0.00316041
0.0179581
0.00669904
0.00573775
0.00670156
0.006867
0.00600563
0.00688776
0.00715626
0.00670419
0.0100165
0.00680014
0.00259857