/*--------------------------------*- C++ -*----------------------------------*\
| =========                 |                                                 |
| \\      /  F ield         | OpenFOAM: The Open Source CFD Toolbox           |
|  \\    /   O peration     | Version:  v2012                                 |
|   \\  /    A nd           | Website:  www.openfoam.com                      |
|    \\/     M anipulation  |                                                 |
\*---------------------------------------------------------------------------*/
FoamFile
{
    version     2.0;
    format      ascii;
    class       surfaceVectorField;
    location    "200";
    object      Uf_0;
}
// * * * * * * * * * * * * * * * * * * * * * * * * * * * * * * * * * * * * * //

dimensions      [0 1 -1 0 0 0 0];


internalField   nonuniform List<vector> 
14516
(
(0.980714 0.0741808 3.07489e-22)
(0.969745 0.0710346 0)
(0.979331 0.0605613 4.19584e-21)
(0.982764 -0.023279 -3.86465e-21)
(0.971466 -0.0610925 -1.38891e-21)
(0.989309 -0.05597 5.79175e-23)
(0.994501 0.0758602 8.4331e-21)
(0.986826 0.08912 -9.30744e-21)
(1.0131 -0.000740941 -4.43776e-22)
(1.01311 -0.000808656 -2.30425e-22)
(1.01319 -0.000770815 -1.19763e-21)
(0.537051 0.013857 -9.52509e-23)
(0.552191 0.0638 1.1722e-22)
(0.522172 -0.043649 0)
(1.01018 -0.0134957 1.54281e-21)
(1.01137 -0.0135059 -4.64352e-23)
(1.0108 -0.0122717 5.42154e-22)
(1.0091 -1.20754e-07 -7.83669e-22)
(1.00989 -0.000148828 1.05904e-21)
(1.01064 -0.000219692 7.65257e-22)
(1.01255 -0.000561784 1.04355e-21)
(1.01248 -0.000518621 6.51373e-22)
(1.01254 -0.000600736 1.06816e-21)
(1.02721 -0.00247576 -1.38962e-22)
(1.02748 -0.00213694 0)
(1.02776 -0.00271852 -1.5613e-21)
(0.552398 0.0446853 -9.57938e-23)
(0.548862 -0.0178399 7.42539e-21)
(1.01305 -0.0939486 -2.10094e-21)
(1.01263 -0.100605 -1.71673e-21)
(1.02023 -0.096492 6.50894e-21)
(0.902046 -0.0856005 8.1662e-22)
(0.907006 -0.0989954 1.7477e-21)
(0.886817 -0.099417 5.05674e-22)
(1.01303 -0.000666541 -2.02171e-22)
(1.01301 -0.000696725 -7.85637e-22)
(1.01282 -0.00193162 -3.5429e-23)
(1.0128 -0.00230048 -6.17958e-23)
(1.01295 -0.00223577 -2.21173e-22)
(1.00432 -2.65723e-05 -9.02813e-22)
(1.00432 3.41728e-05 2.01074e-21)
(1.0129 -0.00158871 1.11861e-22)
(1.01295 -0.00133984 0)
(1.01298 -0.00160704 -8.02212e-22)
(1.01805 -0.000770446 0)
(1.01837 -0.000460054 2.24554e-23)
(1.01778 -0.000364941 -3.26863e-22)
(1.01765 -0.00109353 0)
(1.01846 -0.00142873 0)
(0.941146 0.223941 -1.04948e-21)
(0.909239 0.243559 -2.09591e-22)
(0.920817 0.248763 4.35488e-22)
(1.01277 -0.00157255 5.3427e-24)
(1.04704 -0.118188 7.95426e-23)
(1.06178 -0.120704 -2.24509e-22)
(1.05459 -0.10657 -3.16337e-22)
(1.02459 -0.00916626 0)
(1.02449 -0.00899206 -5.23775e-26)
(1.02441 -0.00917901 0)
(1.07442 0.0450986 -7.7996e-23)
(1.06539 0.0635066 -3.92303e-21)
(1.07516 0.0480283 -9.15866e-22)
(1.01742 0.00463522 -2.67302e-22)
(1.01724 0.0044775 -3.85027e-22)
(1.01818 0.00146824 2.51956e-21)
(1.01802 0.00221417 5.27152e-22)
(1.01912 0.0020384 4.73005e-22)
(1.01279 -0.000510775 1.25359e-22)
(1.01298 -0.000592558 -7.76029e-22)
(1.01319 -0.000619293 4.30664e-23)
(1.01306 -0.00076397 8.23489e-22)
(1.01325 -0.000431831 8.10707e-22)
(1.0177 0.000981981 -4.75082e-22)
(1.01794 0.00113742 4.36053e-22)
(1.01747 0.0012289 -1.66232e-21)
(0.983617 -0.0394731 1.99837e-22)
(0.989062 -0.0414744 -7.15359e-22)
(0.98755 -0.0357487 7.64988e-22)
(1.02665 -0.0022427 1.8925e-23)
(1.02693 -0.00274429 1.20194e-21)
(0.982147 -0.0228051 0)
(0.979725 -0.0259614 0)
(0.985281 -0.0266848 0)
(1.08112 0.0250146 1.16768e-21)
(1.07188 0.0402946 1.4804e-20)
(1.08011 0.0538101 -1.07022e-20)
(1.07603 0.0190516 -7.60483e-21)
(1.06272 0.0702663 -1.79894e-20)
(1.00899 -3.94123e-05 5.63814e-22)
(1.00892 -7.53454e-05 0)
(1.00657 -1.58124e-05 -2.75522e-24)
(0.978308 -0.0361896 -5.35875e-22)
(0.973519 -0.0322818 0)
(0.978237 -0.029032 0)
(1.07866 -0.158065 0)
(1.10235 -0.165979 -7.60936e-22)
(1.08306 -0.184144 4.53635e-22)
(1.00817 2.28691e-06 -1.69758e-21)
(1.00642 8.60258e-05 -2.35178e-21)
(1.02484 -0.00913166 1.12063e-22)
(1.02455 -0.00929919 0)
(1.01288 -0.00085958 1.62346e-21)
(1.01293 -0.00093494 0)
(1.01301 -0.000999624 0)
(1.01188 1.27377e-05 -1.2026e-21)
(1.01141 -1.78709e-05 -1.15812e-21)
(1.01228 5.63954e-05 -4.03223e-22)
(0.985394 -0.019308 0)
(0.980135 -0.0169166 2.08616e-21)
(1.0071 6.04695e-05 2.39312e-22)
(1.00401 -3.82632e-05 -8.38769e-23)
(1.01149 -0.000468135 1.23535e-21)
(1.01216 -0.000390437 7.3864e-22)
(1.01153 -0.000445289 -4.37429e-22)
(1.00988 -6.93228e-05 9.54975e-22)
(1.00904 -0.000136111 3.63492e-22)
(1.0107 -2.36619e-05 -4.59642e-22)
(1.0092 -0.000266245 1.31821e-22)
(1.01156 -0.000392516 -5.57304e-22)
(1.01261 -0.000447634 -4.56548e-22)
(0.979068 -0.0437751 1.38105e-21)
(1.00451 -0.0605155 -7.55752e-22)
(0.996128 -0.0623755 6.32791e-21)
(0.998984 -0.0526252 -1.08215e-21)
(0.935624 0.0829864 0)
(0.921469 0.0777749 0)
(0.939504 0.0702873 1.79541e-21)
(1.01312 -0.000897353 0)
(1.01304 -0.000850016 1.86659e-22)
(0.966953 -0.0294693 0)
(0.968002 -0.0378979 5.06346e-22)
(0.991397 -0.0917434 5.97577e-21)
(0.99519 -0.0983521 -1.56554e-21)
(0.999221 -0.0917383 6.08056e-21)
(1.01448 -0.0151555 -3.0279e-22)
(1.01356 -0.0156173 -2.63803e-23)
(1.0147 -0.0164737 1.51276e-21)
(1.02508 -0.00588018 7.59032e-22)
(1.02479 -0.00560638 -4.60024e-22)
(1.02463 -0.0058831 -7.66252e-22)
(0.856882 -0.0740014 0)
(0.850167 -0.0900489 -4.47672e-22)
(0.870855 -0.0831468 0)
(0.971462 -0.203936 0)
(0.964962 -0.222985 1.94609e-21)
(0.950343 -0.210457 -1.75875e-21)
(1.02126 2.46776e-05 0)
(1.02086 7.94188e-05 0)
(1.04241 -0.169098 -4.22315e-21)
(1.05246 -0.162427 0)
(1.04047 -0.158633 1.15281e-20)
(0.8553 0.316361 -5.09788e-22)
(0.839824 0.328819 1.99411e-21)
(0.861765 0.338351 7.69063e-21)
(1.01284 -0.00082 7.97008e-22)
(1.01278 -0.000751812 4.18303e-22)
(1.01014 -5.91164e-05 1.2678e-21)
(1.00954 3.85675e-05 -4.76427e-22)
(1.01106 -7.75335e-05 1.48658e-22)
(1.01816 -0.0152019 3.22192e-22)
(1.01753 -0.0158143 -1.06523e-21)
(1.01867 -0.0162847 -1.30284e-21)
(0.844386 0.167339 9.981e-23)
(0.822902 0.183658 -1.78054e-22)
(0.82715 0.156728 2.33094e-21)
(1.01405 -0.000400014 -4.7778e-22)
(1.01467 -0.00052546 -4.568e-22)
(1.01375 -0.000399853 -6.28052e-22)
(0.540293 -0.203439 9.4435e-22)
(0.520899 -0.161711 -3.91353e-21)
(1.08618 0.070443 3.75794e-21)
(1.09166 0.040735 -1.29606e-20)
(1.09158 0.0381386 4.20626e-21)
(0.866498 0.146279 -3.7755e-21)
(0.867211 0.168206 -4.92696e-21)
(0.884513 0.132773 5.98469e-21)
(0.901594 0.119457 3.48699e-22)
(0.902877 0.133882 -7.12702e-22)
(0.897661 -0.0722725 0)
(0.91358 -0.0750268 -8.0673e-23)
(1.00685 -0.0895944 0)
(1.01485 -0.0858663 0)
(0.8418 -0.0632986 0)
(0.86292 -0.0563223 6.10945e-22)
(1.01279 0.000481547 2.05436e-23)
(1.01332 0.000572785 2.89236e-23)
(1.01398 0.000797097 3.3568e-22)
(1.01441 -0.00362331 -3.64364e-22)
(1.01459 -0.00384949 -8.04156e-22)
(1.0144 -0.00380088 -1.88974e-21)
(1.06301 0.0175787 -1.00924e-21)
(1.06282 0.0134682 3.82564e-22)
(1.0608 0.032465 5.61243e-22)
(0.963439 -0.0227865 0)
(0.957974 -0.0283662 1.49045e-21)
(0.873168 0.29942 5.74705e-21)
(0.851662 0.29055 3.34015e-22)
(1.02143 -0.000212714 0)
(1.0216 -0.000472446 -1.21566e-24)
(1.02114 -0.000362721 -1.46464e-22)
(1.02052 0.00649089 9.39819e-24)
(1.02066 0.00608166 5.1449e-23)
(1.02119 0.00653245 1.54106e-26)
(1.01879 0.00741537 0)
(1.01772 0.00709225 0)
(1.01818 0.00641925 0)
(1.01892 0.0018848 1.03078e-21)
(1.01852 0.00222183 -3.01968e-23)
(1.01829 0.00172236 -7.34058e-23)
(1.07889 0.0986044 6.05135e-21)
(1.07728 0.0901111 0)
(1.01519 0.0078352 7.16016e-22)
(1.01432 0.00706341 -3.08863e-22)
(1.01517 0.00680818 2.15565e-21)
(0.945307 -0.0656287 6.48756e-21)
(0.937574 -0.0996365 -2.01805e-21)
(0.931557 -0.070621 -1.91433e-21)
(1.0393 -0.0327348 -1.64835e-22)
(1.03595 -0.0391718 8.41237e-23)
(1.03279 -0.0315271 -7.432e-23)
(0.989028 -0.0169271 0)
(0.990833 -0.0208655 5.12735e-23)
(1.02032 -0.0534163 -1.24831e-22)
(1.0128 -0.0579762 -3.77769e-21)
(1.01397 -0.0478906 2.01832e-21)
(1.0196 0.00204235 0)
(1.0193 0.00143289 0)
(1.02172 -0.000699294 5.00856e-23)
(1.02183 -0.000946568 -5.88405e-22)
(1.0214 -0.00082718 3.21383e-22)
(1.01783 -0.0142784 1.04751e-21)
(1.01759 -0.0132729 -1.07986e-22)
(1.01693 -0.0136609 -8.38359e-22)
(1.01196 0.00627537 -1.00018e-21)
(1.01245 0.00727272 -1.41911e-21)
(1.0113 0.00720251 5.59829e-22)
(0.97436 0.00865214 -7.70872e-21)
(0.991277 0.0107073 -2.06919e-21)
(0.714248 -0.157578 -1.07662e-22)
(0.671824 -0.163656 -1.56949e-21)
(0.709815 -0.13403 8.68115e-22)
(1.01757 -0.000321162 -1.17608e-21)
(1.01793 -0.000226941 9.47003e-23)
(1.01783 -0.000515908 5.81895e-22)
(1.08394 0.0064788 0)
(1.0867 0.00666736 -4.02417e-21)
(1.01885 -0.0146478 1.05944e-21)
(1.04714 -0.0340869 -5.09774e-21)
(1.04131 -0.0268099 7.41308e-21)
(0.976831 -0.186167 4.12175e-23)
(0.991223 -0.196346 -2.30326e-21)
(0.957794 -0.0641286 2.48763e-21)
(0.952018 -0.0258341 7.18478e-22)
(1.01731 -0.000189198 -6.07023e-22)
(1.01722 -0.000419098 -7.36536e-23)
(1.01588 -0.00183205 -4.81335e-22)
(1.01617 -0.0018445 1.32941e-21)
(1.01585 -0.00162942 1.40243e-24)
(1.01589 -0.00207243 -4.65097e-22)
(1.01559 -0.00184588 -4.44703e-22)
(1.01014 0.00176997 -1.98784e-21)
(1.00993 0.00258619 1.51976e-21)
(1.0094 0.00185147 -3.67389e-22)
(1.01549 0.000656424 0)
(1.01566 0.000676711 -5.03375e-22)
(1.01567 0.00071838 5.96831e-22)
(1.01531 0.000602212 5.68691e-22)
(1.01533 0.00064147 0)
(1.01997 0.00636216 9.21073e-24)
(1.02031 0.00688131 4.49752e-22)
(0.991866 -0.0149806 3.07925e-21)
(0.987763 -0.0125555 -4.22031e-21)
(1.01768 -0.0126484 0)
(1.01834 -0.0130939 1.52851e-21)
(1.00948 7.58539e-05 4.59455e-22)
(1.01004 -2.95859e-05 -7.17638e-22)
(1.01094 -3.29661e-05 -5.35066e-22)
(1.01443 -0.0139733 -8.8562e-22)
(1.01542 -0.014654 1.00581e-21)
(0.958551 -0.0619785 1.07794e-21)
(0.946883 -0.0562555 -1.20127e-22)
(0.959391 -0.0471932 -1.23539e-21)
(1.01243 0.000468093 -1.28435e-22)
(1.0114 0.00026766 5.10665e-23)
(0.999906 -0.127765 2.86712e-22)
(0.988582 -0.121006 6.22048e-22)
(0.98612 -0.135873 3.26992e-23)
(1.01944 0.00028379 5.82934e-23)
(1.01975 0.000200158 -6.49076e-24)
(1.01854 -0.274312 0)
(0.999056 -0.250749 -2.9837e-21)
(0.991219 -0.273404 -2.13211e-23)
(0.988408 -0.085184 -2.63265e-21)
(0.983456 -0.0919352 2.65151e-21)
(1.02174 -8.01376e-05 3.70023e-22)
(1.0804 -0.0500228 -1.70873e-21)
(1.06655 -0.0863007 8.32841e-21)
(1.07546 -0.0799973 -6.89218e-21)
(0.959092 -0.0163698 0)
(0.967753 -0.0173179 1.01293e-21)
(1.01616 0.00844646 0)
(1.0151 0.00904132 1.21592e-21)
(1.07968 0.0069867 0)
(1.08445 -0.0089118 0)
(0.968342 -0.066676 1.28061e-22)
(0.958285 -0.0765949 9.47381e-24)
(1.00787 0.000195918 -9.56684e-23)
(1.0049 7.89799e-05 3.38161e-23)
(1.00501 7.43716e-05 1.32421e-23)
(1.01942 -0.00248466 4.63115e-23)
(1.01968 -0.00265739 -2.7242e-24)
(1.01968 -0.00242655 -2.53234e-24)
(1.00887 -0.0130678 2.60074e-21)
(1.00951 -0.0146047 -2.65879e-21)
(1.02689 -0.00845981 -1.60064e-21)
(1.0266 -0.00876818 -1.41526e-21)
(1.0264 -0.00820991 -1.25939e-21)
(1.03664 -0.129802 -1.44167e-22)
(1.03392 -0.115528 1.40205e-21)
(1.06121 -0.0686551 1.13606e-20)
(1.06413 -0.0649459 -3.70078e-21)
(1.05931 -0.0646947 -4.64891e-21)
(1.02651 -0.0491355 -3.8268e-22)
(1.02798 -0.0593597 2.67637e-24)
(1.01993 0.00747545 -2.22476e-21)
(1.01934 0.00852338 7.22192e-22)
(1.01564 -0.00359664 -5.93984e-23)
(1.01574 -0.00349113 -6.03337e-22)
(1.01551 -0.0034319 -2.62892e-22)
(1.01082 0.000307612 -1.78533e-22)
(1.01045 0.000305664 1.49224e-22)
(1.01204 0.000465724 1.00352e-23)
(1.02205 -0.000583071 -1.03693e-24)
(1.01558 -0.00368149 -6.41159e-23)
(1.01579 -0.00375085 2.20676e-22)
(1.00982 -0.00202026 -1.69613e-21)
(1.01007 -0.00294587 0)
(1.01057 -0.00236802 -2.19976e-22)
(1.02618 -0.00202729 1.37867e-22)
(1.02648 -0.00177368 -5.86012e-22)
(1.02192 -0.00118932 -3.50185e-22)
(1.02203 -0.00146267 -5.97621e-23)
(1.02161 -0.00130594 2.86631e-22)
(1.01215 -0.000232179 5.56575e-22)
(1.01421 -0.000365298 0)
(1.00932 2.16107e-05 0)
(1.01073 -8.83932e-05 1.61894e-21)
(1.01925 0.000113487 6.55932e-23)
(1.0191 0.00031164 -1.54686e-22)
(1.01182 0.000164251 2.13966e-22)
(1.01194 0.0001693 -5.85724e-22)
(1.01186 0.000143487 -9.74852e-22)
(1.01918 -0.00252203 1.85748e-23)
(1.01917 -0.00231887 1.524e-23)
(1.0183 0.0001119 -2.05895e-21)
(1.01835 0.000799884 -7.91685e-22)
(1.01919 0.000387782 -1.94766e-21)
(1.01197 -0.000379237 6.42027e-22)
(1.01216 -0.000359506 -1.08013e-21)
(1.01178 -0.000387702 8.4261e-22)
(1.01581 -0.00282102 -8.11736e-22)
(1.01555 -0.00272266 0)
(1.0157 -0.00304332 -7.56833e-22)
(1.01256 -0.002381 9.14353e-22)
(1.01275 -0.00275313 -9.32545e-22)
(1.01209 -0.00300148 9.45494e-24)
(1.01225 -0.00240133 1.24343e-21)
(1.01182 -0.00245377 -1.45043e-21)
(1.05758 -0.0323289 0)
(1.05073 -0.0421742 -2.03834e-22)
(1.0487 -0.0513327 0)
(1.01588 -0.00257917 -8.68597e-22)
(1.01618 -0.0028957 -8.64154e-22)
(1.01659 0.000149838 1.52702e-21)
(1.01682 4.27046e-05 -1.35117e-22)
(1.01684 0.000267018 -5.98146e-23)
(0.743912 -0.1604 1.40814e-21)
(0.712048 -0.18496 -5.06279e-21)
(0.796253 0.345193 9.78576e-22)
(0.805884 0.329375 -2.44029e-21)
(0.805233 0.351655 6.14894e-21)
(1.01154 0.00046961 0)
(1.00957 0.000146459 0)
(0.785603 0.33337 -7.24582e-22)
(0.779821 0.35947 0)
(0.569729 0.113364 0)
(0.570597 0.0563894 0)
(1.01635 0.000234614 9.63848e-22)
(1.01632 6.29163e-05 1.86725e-22)
(1.00992 0.000306015 -8.36321e-23)
(1.00987 0.000308844 -3.17755e-22)
(1.01063 0.000179178 -5.96437e-22)
(1.01007 0.00011919 2.85282e-22)
(1.01098 0.000221657 4.96371e-22)
(1.01821 -0.00046754 1.74786e-22)
(1.01763 -5.38067e-06 1.68862e-21)
(1.01591 -0.00231344 2.14433e-24)
(1.01562 -0.00229088 1.94735e-21)
(1.0121 -0.000378082 -2.0736e-22)
(1.01178 -0.000293095 -2.10286e-22)
(1.01262 -0.000616082 -1.09805e-21)
(1.01256 -0.000526663 0)
(1.01742 0.000861902 -1.32288e-21)
(1.01775 0.000717548 4.18187e-22)
(1.01311 -0.000690423 -7.13861e-23)
(1.01312 -0.000591663 1.972e-22)
(1.01324 -0.000545423 9.20664e-22)
(0.97486 0.19843 -9.37839e-22)
(1.01674 0.164844 1.0892e-21)
(0.992273 0.188715 1.04619e-20)
(1.05896 -0.0163911 7.49318e-22)
(1.06254 0.00198405 3.36549e-22)
(1.05994 -0.0193031 0)
(1.06917 -0.137966 2.74903e-22)
(1.07931 -0.122045 2.65349e-22)
(1.01148 -0.0692578 -6.19403e-22)
(1.01731 -0.0119463 2.34578e-22)
(1.01878 -0.0122956 -6.24315e-22)
(1.01821 -0.0108744 1.14297e-22)
(1.01316 -0.000736898 1.51099e-22)
(1.01328 -0.000543161 -8.42489e-22)
(1.01131 0.0010529 0)
(1.01123 0.00159349 1.21166e-21)
(1.01162 0.00152757 0)
(1.01304 -0.00173738 1.67877e-21)
(1.01302 -0.00209181 -3.17238e-22)
(1.01317 -0.00172797 -1.60581e-22)
(0.809034 -0.0794757 7.27486e-21)
(0.83004 -0.0444948 4.52002e-21)
(0.806059 -0.0174028 0)
(1.05564 -0.0101396 3.10038e-21)
(1.0532 -0.0340531 4.91131e-22)
(0.811781 -0.138965 1.76142e-20)
(0.800164 -0.104435 8.39633e-21)
(1.0274 -0.00785926 0)
(1.02716 -0.00824869 1.02413e-21)
(1.02689 -0.00762542 -9.74301e-23)
(0.964672 0.199992 -1.32398e-21)
(1.02227 -0.00107902 -8.9607e-23)
(1.01664 0.00421601 -5.19767e-23)
(1.01652 0.00400049 8.13898e-23)
(1.01634 0.00407409 7.57775e-23)
(1.01551 -0.00413752 -5.24659e-22)
(1.01571 -0.00431734 0)
(1.01565 -0.00407219 1.74341e-22)
(1.02424 -0.0308384 1.0063e-21)
(1.02183 -0.0313686 1.92999e-21)
(1.02407 -0.0331471 -4.73476e-21)
(1.10825 -0.407249 4.82203e-20)
(1.10576 -0.44407 -1.2196e-20)
(1.14282 -0.428361 1.19243e-20)
(1.03583 -0.0105863 9.83589e-22)
(1.0353 -0.00983985 -2.61206e-21)
(1.03485 -0.0105761 -2.60196e-21)
(1.01624 -0.00234438 9.06454e-22)
(1.01752 0.0010802 -2.38699e-21)
(0.91866 0.302138 0)
(0.90454 0.311285 -1.25544e-20)
(0.91388 0.317453 -4.43169e-22)
(1.01439 -0.00346774 9.38498e-22)
(1.01425 -0.00339726 2.08323e-21)
(1.03226 -0.175136 9.39258e-22)
(1.04521 -0.181296 7.00872e-21)
(1.01536 -0.00417879 -5.14403e-22)
(1.01534 -0.00393552 1.67968e-22)
(1.01913 -0.00296801 -3.43749e-23)
(1.01888 -0.00299286 -6.44142e-24)
(1.01909 -0.00318704 0)
(1.0131 -0.000795823 -1.9548e-22)
(1.01304 -0.000830478 -1.1857e-21)
(1.02791 -0.00815859 1.16939e-21)
(1.02766 -0.00755243 -6.41158e-22)
(1.01692 -0.000263182 1.56408e-22)
(1.01693 -0.000340497 -2.55347e-22)
(1.01707 -0.00027704 0)
(0.951013 0.0868242 1.31606e-21)
(0.934956 0.0961592 0)
(1.0121 -0.134796 5.42992e-23)
(1.01149 -0.119895 2.25868e-22)
(0.86433 0.126028 -6.76463e-22)
(1.02653 -0.030635 1.1547e-21)
(1.02457 -0.0290267 1.12987e-21)
(0.920272 0.137735 -4.99817e-21)
(0.938518 0.124046 -1.07978e-21)
(0.960924 0.129988 8.57855e-21)
(1.01292 0.00344396 -1.50178e-21)
(1.0125 0.00329268 0)
(1.01271 0.00294869 -1.45676e-21)
(0.609878 0.193196 -4.27988e-22)
(0.606121 0.165562 1.94819e-21)
(1.01178 0.000175831 7.72551e-22)
(1.01159 0.000141486 4.30509e-22)
(1.02573 -0.00187533 -1.0608e-21)
(1.02598 -0.00226699 -7.40978e-22)
(1.06251 0.123531 1.52316e-21)
(1.09045 0.0838505 1.54481e-21)
(1.1027 0.0728875 -7.52159e-21)
(0.979777 -0.235147 -8.35482e-22)
(0.95906 -0.240278 -4.81048e-21)
(1.01582 -0.00340775 1.118e-22)
(1.01569 -0.00323366 8.32928e-22)
(1.01591 -0.00331003 1.20336e-21)
(1.02211 -0.00170629 3.61789e-22)
(1.02243 -0.00159833 -3.13043e-22)
(1.01941 0.00625805 0)
(1.01964 0.0059946 0)
(1.05659 -0.15167 6.2039e-22)
(1.01383 -0.00297007 9.98529e-22)
(1.01366 -0.00267506 9.71367e-22)
(1.01364 -0.00291972 -5.95546e-23)
(0.994711 -0.0132426 -1.01034e-21)
(0.995786 -0.0164023 2.75146e-21)
(1.02781 -0.0119859 7.7221e-22)
(1.02724 -0.0115816 1.18701e-21)
(1.02779 -0.0113278 1.19664e-21)
(1.00893 -0.0268817 -7.70473e-23)
(1.01196 -0.0282285 2.21619e-21)
(1.00907 -0.029835 2.80123e-23)
(0.96636 0.086712 2.24556e-21)
(0.967612 0.0766925 5.48452e-21)
(0.906577 0.0691906 -1.83416e-21)
(0.903284 0.0860634 0)
(1.02529 -0.00633932 1.51622e-21)
(1.02556 -0.005992 2.60628e-22)
(0.896276 0.15087 1.44894e-20)
(0.872644 0.141728 -2.00906e-21)
(1.01038 0.00020966 2.90917e-22)
(1.01114 0.000235555 2.54115e-22)
(1.01097 1.05084e-05 -8.44197e-22)
(1.01092 -0.000592964 0)
(1.0113 -0.000398299 3.94419e-22)
(0.935742 0.298191 5.71733e-21)
(0.9239 0.284506 0)
(1.01896 0.00614888 2.97561e-23)
(1.01923 0.00651693 -2.70303e-22)
(0.737933 0.0464978 3.81341e-22)
(0.723165 0.052282 7.67067e-21)
(0.729152 0.000737541 2.208e-21)
(0.946924 0.00803789 6.59467e-22)
(0.9542 0.014966 5.33911e-21)
(0.94318 0.0190403 -1.06699e-20)
(1.0203 -0.00181135 -2.36485e-22)
(1.02055 -0.00172019 -6.15968e-23)
(1.02019 -0.00162375 -1.77388e-22)
(1.0273 -0.00878733 -1.42731e-22)
(1.0169 -0.000182584 1.7529e-22)
(1.01678 -0.00024829 4.57499e-22)
(1.03212 -0.0438512 -2.68066e-22)
(1.04013 -0.0472686 -2.34749e-21)
(1.04093 0.141698 -1.80469e-22)
(1.01234 -0.0147003 -2.42161e-22)
(1.0125 -0.013331 -1.32317e-21)
(1.01616 0.00029579 -5.0694e-22)
(1.01592 0.000215077 -7.98818e-22)
(1.01596 0.000341672 -1.11793e-21)
(0.950557 -0.000828908 -1.66648e-21)
(0.939798 0.00191666 2.19461e-22)
(1.01241 -0.0766206 1.15634e-22)
(1.0062 -0.0779237 -1.58857e-21)
(1.00882 -0.0723361 -2.14471e-22)
(1.01728 0.00480657 1.09113e-22)
(1.01761 0.00488898 -1.89016e-24)
(1.01691 0.00435178 -1.18765e-22)
(1.01712 0.00422374 -2.96154e-22)
(1.03681 -0.0107175 2.53213e-21)
(1.03615 -0.0116141 -1.05027e-21)
(1.01138 0.000186204 0)
(1.01163 0.000171283 0)
(1.0113 0.000161952 -4.23696e-23)
(1.04678 -0.0822701 6.25756e-21)
(1.05122 -0.0789932 -2.1017e-21)
(1.0456 -0.0773029 -9.02737e-22)
(0.757247 0.0391091 0)
(0.748949 0.0822819 -1.36024e-21)
(1.01908 -2.20286e-05 2.48124e-24)
(1.01879 1.80035e-05 -2.38679e-24)
(1.01892 -0.000148503 -2.86696e-23)
(1.01339 -0.00190781 -1.38906e-21)
(1.01333 -0.00186219 1.12567e-21)
(1.0134 -0.00167379 -1.37333e-21)
(0.962655 -0.174692 -1.04876e-22)
(0.980346 -0.168845 9.29962e-24)
(1.01113 0.00365209 -4.26552e-21)
(1.01182 0.00406689 7.96376e-22)
(1.01127 0.00455687 -1.69072e-21)
(0.996908 -0.0118857 -5.9091e-21)
(0.993954 -0.00991279 -2.84681e-21)
(1.01322 -0.00327952 1.0071e-21)
(1.01299 -0.00305799 -1.04707e-21)
(1.01316 -0.00285591 -3.49305e-24)
(1.01354 -0.00140823 0)
(1.01359 -0.00130254 -9.25766e-23)
(1.01363 -0.00121915 -1.06135e-21)
(1.08829 0.0446004 -1.08012e-20)
(1.07821 0.0883422 -4.17194e-21)
(1.01342 -0.00192454 -6.79504e-22)
(1.01345 -0.0017662 -6.71889e-22)
(1.01344 -0.0019433 1.10068e-22)
(1.01706 -5.17347e-05 -5.75944e-22)
(1.01676 -0.000153687 -5.54649e-22)
(1.01242 -0.000426035 -1.53909e-21)
(1.01241 -0.000478839 -2.45192e-21)
(1.01798 -0.00108318 -4.36942e-22)
(1.01878 -0.00105638 3.1264e-22)
(1.01736 6.73032e-05 -5.53168e-22)
(1.01018 -0.000183281 5.01488e-22)
(1.00879 -1.28606e-07 -2.70682e-22)
(1.02212 -0.00802833 -7.40057e-24)
(1.02222 -0.00780732 -4.41658e-23)
(1.02241 -0.0080754 5.33212e-24)
(1.02572 -0.0186898 -1.2067e-21)
(1.027 -0.0188009 -1.95815e-21)
(1.0262 -0.0177232 -4.21257e-21)
(0.985549 -0.077702 -3.45808e-21)
(0.992814 -0.078401 -1.87695e-21)
(1.05838 -0.0723989 2.22398e-20)
(1.05496 -0.0758802 5.62797e-21)
(1.05344 -0.0713994 6.64447e-21)
(1.01352 -0.00139612 5.36494e-22)
(1.01347 -0.00141774 -1.50198e-21)
(1.01353 -0.0013145 -2.6766e-23)
(1.02614 -0.00944284 0)
(1.02603 -0.00996834 1.19173e-23)
(1.02677 -0.00967715 0)
(1.01305 -0.00240124 -8.76023e-22)
(1.0132 -0.00234985 1.3056e-23)
(1.01313 -0.00271499 8.96001e-22)
(1.02454 -0.0185149 1.341e-21)
(1.02531 -0.019839 1.12192e-21)
(1.00559 -0.00597294 1.1316e-21)
(1.0055 -0.00751221 -1.3661e-22)
(1.0067 -0.00696919 1.84001e-22)
(1.0142 -0.00298847 1.64156e-22)
(1.014 -0.00300231 1.77149e-21)
(1.01397 -0.00273303 -7.70134e-22)
(0.917389 -0.191502 -9.1928e-22)
(0.906861 -0.184015 -3.61053e-21)
(0.903446 -0.20321 -6.88464e-21)
(1.01339 -0.00213289 -1.48236e-21)
(0.978015 -0.0770092 -1.02916e-21)
(0.983408 -0.0707678 -2.54936e-21)
(1.00789 1.53059e-05 1.96309e-22)
(1.00928 -0.000133548 1.02166e-21)
(1.00842 -9.32669e-05 0)
(1.0165 -0.0133503 5.72864e-22)
(1.01563 -0.0115094 1.05632e-22)
(1.01809 0.00559353 1.15291e-22)
(1.01844 0.00571512 -1.89936e-22)
(1.01825 0.005532 -5.39489e-23)
(1.01785 0.00563171 3.58501e-23)
(1.01781 0.00538595 -1.39458e-22)
(1.00606 -0.0254589 -2.83182e-22)
(1.00938 -0.0240555 -1.87555e-22)
(1.11654 0.0356871 -6.07911e-21)
(1.08093 0.0882716 0)
(1.01729 -0.0120987 0)
(1.01653 -0.0118406 8.2393e-22)
(1.01701 -0.0112933 0)
(1.0144 -0.00324344 -1.30076e-22)
(1.01435 -0.00298289 -4.6381e-22)
(1.01264 -0.000582148 0)
(1.0127 -0.000695641 -4.38273e-22)
(1.01263 -0.000648866 -2.15336e-22)
(1.02601 -0.00305182 -1.24017e-21)
(1.02472 -0.00387105 1.23177e-21)
(1.02614 -0.00427698 4.07051e-23)
(1.02078 -0.00161569 1.67175e-22)
(1.02104 -0.00152154 0)
(1.02068 -0.00139488 0)
(1.01586 0.00270333 0)
(1.01543 0.0351143 0)
(1.00475 0.016925 0)
(1.01793 -0.0299424 0)
(1.02773 -0.0124836 7.53783e-22)
(1.01596 -0.00356777 -2.33634e-22)
(1.02511 -0.141227 -7.83301e-22)
(1.01136 -0.151927 1.44707e-22)
(1.01637 -0.000387459 2.52214e-22)
(1.01634 -0.000351657 2.0612e-22)
(1.01641 -0.00035019 8.01678e-23)
(1.06346 -0.0730252 6.96163e-21)
(1.01772 -0.00158546 1.09365e-21)
(1.01735 -0.00104611 0)
(1.01726 0.00516872 3.63485e-23)
(1.0173 0.0049939 1.96845e-22)
(1.01754 0.00520548 1.21933e-22)
(1.00911 -1.26862e-05 0)
(1.00678 -8.39651e-06 -1.14879e-21)
(1.00905 3.74289e-05 -7.34223e-22)
(1.01235 -2.76068e-05 1.03062e-21)
(1.01154 3.49352e-05 -4.1616e-22)
(1.02012 -0.00194109 1.39838e-22)
(1.0204 -0.00200866 -1.17684e-22)
(1.02201 -0.00825193 0)
(1.02182 -0.00796989 0)
(1.01877 -0.0154763 1.98406e-21)
(1.02005 -0.016078 1.03813e-21)
(1.01964 -0.0146849 1.13799e-21)
(1.01144 -0.000202275 -1.563e-21)
(1.01119 -0.000123004 -7.67121e-22)
(1.01171 -0.000210715 4.56684e-22)
(1.0218 -0.00180774 3.63919e-22)
(1.02218 -0.00196227 2.51385e-22)
(1.0194 -6.71148e-05 -1.92403e-23)
(1.07878 -0.0191608 -4.94594e-21)
(1.08905 -0.0216031 -1.41377e-21)
(1.01517 -0.0125415 9.97517e-22)
(1.01437 -0.012862 -4.1613e-23)
(1.01442 -0.0119545 1.16319e-22)
(1.00654 -0.000117523 -9.32118e-22)
(1.01108 0.000300262 2.19031e-22)
(1.0094 0.000286525 -1.18953e-22)
(1.01013 0.000259195 5.55536e-22)
(1.00982 -0.00117054 4.94828e-22)
(1.00908 -0.00162328 -5.57817e-23)
(1.0257 -0.00925429 1.98755e-22)
(1.02542 -0.0093588 6.05646e-22)
(1.02538 -0.00898992 -3.0673e-22)
(1.01723 -0.0147372 1.26192e-21)
(1.01767 -0.016507 -1.10793e-21)
(1.01597 -0.000613929 -1.00003e-22)
(1.01601 -0.000713845 -1.74122e-22)
(1.01608 -0.000633781 -1.85123e-22)
(0.96084 0.165627 3.97251e-20)
(0.940835 0.232265 -1.524e-20)
(0.976266 0.172608 1.48991e-20)
(1.01638 0.000399931 -3.72623e-24)
(0.925163 0.312849 4.62198e-21)
(0.90951 0.318864 -4.31384e-22)
(0.917542 0.303302 5.23836e-21)
(0.974292 -0.189297 -7.99737e-21)
(0.972429 -0.15033 2.15554e-20)
(0.953117 -0.195347 6.12176e-21)
(1.00709 5.93368e-05 2.04024e-21)
(1.00904 8.80606e-05 1.99265e-21)
(1.00891 5.04148e-05 4.44737e-22)
(1.00963 -3.96989e-05 -1.68101e-21)
(1.01046 -9.15278e-05 -8.6921e-22)
(1.015 -0.00314267 1.12465e-21)
(1.01517 -0.00307505 -4.52599e-22)
(1.01533 -0.00337703 5.07579e-22)
(1.02739 -0.00220477 -1.64202e-21)
(1.02553 -0.00158313 3.3494e-22)
(1.02177 -0.00942359 3.69503e-22)
(1.02153 -0.010155 1.23165e-22)
(1.02218 -0.00988284 8.63852e-22)
(1.01736 -0.00198646 1.02713e-21)
(1.01681 -0.00184045 0)
(1.01699 -0.00230375 0)
(0.938833 0.301917 0)
(0.926643 0.321343 8.35396e-21)
(1.01602 -0.000334148 -2.26662e-22)
(1.01565 -0.000376519 2.54391e-22)
(1.01619 -0.000195187 4.82357e-22)
(1.01482 -0.00315362 4.96308e-22)
(1.01472 -0.0028774 -4.62038e-22)
(1.02212 -0.00870925 -9.06088e-23)
(1.02119 -0.00876709 -1.49427e-22)
(1.02134 -0.00912712 -3.36734e-22)
(1.02171 -0.00910131 0)
(1.02161 -0.00942723 0)
(1.02211 -0.00653159 -3.55345e-23)
(1.02186 -0.00632297 1.3585e-22)
(1.0222 -0.00630551 -1.30397e-22)
(1.0124 0.00563581 -7.7913e-22)
(1.01149 0.00542371 -1.46556e-22)
(1.02554 -0.0405511 4.63599e-22)
(1.0143 -0.000792543 -1.91687e-22)
(1.01446 -0.00067659 -1.87929e-22)
(1.01448 -0.000786219 8.63023e-22)
(1.0239 -0.00469829 4.29353e-22)
(1.0242 -0.00561846 -4.50642e-22)
(1.02307 -0.00556058 -4.73583e-22)
(1.02781 -0.0125165 1.73969e-21)
(1.02839 -0.012272 2.53397e-23)
(1.01375 -0.00104975 -3.83054e-22)
(1.01388 -0.00101178 -1.31511e-21)
(1.01385 -0.00103505 -2.27214e-21)
(1.06116 0.024574 3.1093e-21)
(0.884423 0.195816 8.37019e-22)
(0.902635 0.178629 -1.61199e-20)
(0.92712 0.182544 1.47846e-21)
(1.06323 -0.00189347 2.93918e-22)
(1.06163 0.0119643 4.35136e-24)
(1.01866 0.00593194 1.66314e-22)
(1.01846 0.00611327 -9.95067e-23)
(1.08258 -0.391134 2.89534e-20)
(1.11128 -0.383842 1.64233e-20)
(1.02515 -0.00942681 2.07792e-21)
(1.02492 -0.00947964 5.94201e-22)
(1.0249 -0.00917968 6.62521e-22)
(0.829047 0.332525 -5.37162e-21)
(0.815333 0.311838 1.09089e-20)
(0.955247 -0.00981504 -2.14292e-21)
(0.949117 -0.0146542 -3.85328e-21)
(1.01293 -0.000602053 6.58104e-22)
(1.01284 -0.000580667 2.62545e-22)
(1.01289 -0.000518344 1.30178e-21)
(1.04241 -0.0147052 1.08889e-21)
(1.04318 -0.0161675 3.98872e-21)
(0.960738 -0.00335738 1.07292e-21)
(1.01075 0.0017289 3.26274e-23)
(1.01034 0.0010758 -6.18098e-22)
(0.99918 -0.0106839 5.54956e-22)
(0.99982 -0.0131606 -2.63212e-21)
(0.999569 -0.105113 -7.60592e-21)
(1.00607 -0.104543 -2.32816e-21)
(1.00182 -0.112512 -3.05375e-21)
(1.01237 -0.000328042 -9.19576e-22)
(1.01231 -0.000322385 1.28616e-21)
(1.01233 -0.000250056 0)
(1.01055 -0.000192425 1.33159e-21)
(1.01192 -0.000481327 -3.41658e-22)
(1.02539 -0.00161105 1.54954e-22)
(1.02522 -0.00192148 -4.66974e-22)
(1.01077 -0.000184964 -8.70499e-22)
(1.01089 -0.000176942 -2.75432e-22)
(1.00969 -0.000107958 -8.62214e-22)
(1.01842 0.00107786 1.04792e-21)
(1.01812 0.00139566 -3.95272e-22)
(0.950863 0.109086 4.58019e-21)
(0.9761 0.102861 -4.85013e-21)
(0.958 0.0958709 0)
(1.01521 -0.00419371 3.46212e-22)
(1.0154 -0.00438016 0)
(1.01363 -0.00107777 1.65551e-21)
(1.01367 -0.00108809 7.76307e-22)
(0.983151 0.0763547 -7.77663e-21)
(1.01054 0.00318203 -1.22229e-21)
(1.01117 0.00288892 -1.00416e-21)
(1.01299 -0.00105248 0)
(1.01301 -0.0011211 -9.1484e-22)
(1.01882 0.00575421 -9.08719e-23)
(1.02407 -0.00920716 2.23265e-22)
(1.02417 -0.00925629 1.18646e-22)
(1.02413 -0.00923038 1.36656e-22)
(1.01243 -0.00035049 1.52998e-21)
(0.917082 0.116708 7.69688e-21)
(1.026 -0.00912806 1.19042e-21)
(1.0263 -0.00894265 2.20293e-21)
(1.02591 -0.00866689 4.9137e-23)
(1.02085 -0.00356782 0)
(1.02095 -0.0037611 -4.95551e-23)
(1.02066 -0.00371615 0)
(1.02064 -0.0081933 -3.08359e-22)
(1.02086 -0.0084982 2.97694e-22)
(1.02048 -0.00849489 -7.29586e-22)
(1.00981 0.00347336 4.11659e-21)
(0.781696 0.0483791 0)
(0.788194 0.0845629 -1.14157e-21)
(0.780934 0.0319957 0)
(1.02494 -0.00531181 8.20831e-22)
(1.02447 -0.00530405 -5.66558e-22)
(1.04319 -0.0258242 -4.20704e-22)
(1.03976 -0.0245666 -2.05702e-22)
(1.04075 -0.0285346 0)
(1.01673 0.00444769 -4.6077e-23)
(1.00813 -0.0510357 0)
(1.0121 -0.0503924 -7.03294e-21)
(1.00884 -0.0479941 -1.98995e-21)
(0.827861 -0.0505358 0)
(0.819485 -0.0690288 -1.68895e-22)
(1.02159 -0.181244 3.42553e-22)
(1.02127 -0.169166 4.58059e-21)
(1.00359 -0.0518104 0)
(1.00761 -0.0548366 0)
(1.0239 -0.00907618 -7.77564e-23)
(1.0239 -0.00922751 -1.2595e-22)
(1.00898 -0.00456508 -2.46746e-21)
(1.00948 -0.00357758 8.73685e-22)
(1.00849 -0.00335497 2.80712e-23)
(0.898289 0.16486 9.60166e-22)
(0.855568 0.175457 -1.42711e-21)
(1.0094 -0.000127448 4.49835e-22)
(1.01082 3.76621e-05 1.09374e-21)
(0.928321 -0.197818 2.1213e-21)
(0.934516 -0.179787 -2.34913e-21)
(1.01277 0.00500607 -1.71121e-22)
(1.01324 0.00566287 -1.49619e-21)
(1.01092 0.000189593 -6.8183e-22)
(1.01146 0.000223906 0)
(0.97576 -0.216803 -3.2771e-21)
(0.997435 -0.18023 -1.24597e-20)
(1.00102 -0.00971429 2.42266e-21)
(0.998767 -0.00809921 2.6418e-21)
(0.874546 0.214088 8.0237e-21)
(0.847069 0.210012 -6.50606e-22)
(1.02071 -0.00338924 -1.32271e-22)
(1.02102 -0.00346937 -2.37418e-22)
(1.04237 -0.0850458 6.55854e-21)
(1.0483 -0.0874541 9.09854e-21)
(1.11498 -0.152685 -1.14809e-20)
(1.12523 -0.177864 7.32158e-21)
(1.01177 0.00682145 -1.27901e-21)
(1.0129 0.00804565 1.51321e-22)
(1.01309 0.0065425 0)
(1.01435 -0.00327091 -5.42062e-22)
(1.0142 -0.00308239 3.87532e-23)
(1.01431 -0.00310661 6.62969e-24)
(1.06284 -0.0156992 9.36906e-21)
(1.03219 -0.0291537 -2.76617e-21)