/*--------------------------------*- C++ -*----------------------------------*\
| =========                 |                                                 |
| \\      /  F ield         | OpenFOAM: The Open Source CFD Toolbox           |
|  \\    /   O peration     | Version:  v2012                                 |
|   \\  /    A nd           | Website:  www.openfoam.com                      |
|    \\/     M anipulation  |                                                 |
\*---------------------------------------------------------------------------*/
FoamFile
{
    version     2.0;
    format      ascii;
    class       volVectorField;
    location    "950";
    object      ddt0(U);
}
// * * * * * * * * * * * * * * * * * * * * * * * * * * * * * * * * * * * * * //

dimensions      [0 1 -2 0 0 0 0];


internalField   nonuniform List<vector> 
10042
(
(0.00775392 0.00667884 5.71037e-19)
(0.119958 0.0476697 -7.57002e-18)
(0.00529943 0.0175306 -4.52946e-19)
(-0.0134093 2.38596e-05 -2.16882e-19)
(-0.00497678 1.50219e-05 8.19868e-20)
(0.0219501 -0.103721 -4.95172e-18)
(0.0634644 0.124215 -2.43032e-19)
(-0.0380373 -0.00739447 5.48591e-19)
(-0.000543814 -0.00020398 3.10552e-19)
(-0.0243311 -0.0180465 1.31969e-18)
(-0.0246731 -0.00814004 -1.44021e-19)
(0.091511 0.0978534 -1.30403e-18)
(0.00090694 0.00121718 -3.74363e-19)
(-0.000989954 -0.00102612 -1.60352e-19)
(-0.00763176 0.000426405 3.69178e-19)
(-0.00123882 -0.000945688 4.71568e-19)
(0.0863305 -0.109058 -1.78158e-18)
(-0.0276053 -0.00362459 -3.55861e-20)
(0.00209774 0.00206756 -2.36576e-20)
(0.0027361 -0.0040794 -1.18933e-19)
(0.0010847 0.00181879 -1.76824e-18)
(0.00641096 0.00772561 7.39824e-19)
(-0.00913772 3.30952e-05 3.12309e-19)
(-0.0154032 0.0567799 -1.3139e-18)
(-0.00508611 -5.59382e-05 6.66678e-20)
(-0.000751797 5.00501e-06 2.57983e-19)
(-0.0173229 -0.0179042 7.70735e-19)
(-0.00082516 4.89101e-05 -4.9735e-19)
(0.047013 -0.130351 3.55123e-18)
(-0.0139528 0.160265 4.34551e-19)
(-0.00903702 -1.45054e-05 -1.23108e-19)
(-0.00971854 0.00611493 4.43511e-19)
(0.000311731 -0.000131208 3.78611e-19)
(0.000979403 -0.000100873 -9.46268e-19)
(-0.0312648 -0.0273559 -9.22087e-19)
(-0.0205584 -0.0380142 3.61191e-18)
(-0.00870551 2.32713e-05 -4.97388e-20)
(-0.00300599 -0.000191506 6.98797e-19)
(-0.0069658 -1.89038e-05 5.4446e-19)
(-0.00237709 -0.00769549 -8.64261e-20)
(-0.0142423 0.133138 3.30658e-19)
(0.000109673 -0.000180603 4.25594e-20)
(0.0545078 -0.0859164 1.4792e-18)
(-0.0123188 0.350159 2.4242e-18)
(-0.00822579 3.85676e-05 -1.11372e-19)
(-0.00868582 -5.5572e-05 -6.88745e-20)
(-0.0011404 0.00034032 -6.04899e-19)
(-0.00935775 0.000374589 -1.88097e-19)
(-0.0200031 0.0204984 3.19064e-18)
(0.285693 0.0153917 -1.32881e-18)
(0.0823521 -0.0836206 -1.55463e-18)
(-0.00967489 1.62372e-06 1.37153e-19)
(0.0753782 -0.110715 1.01846e-18)
(0.00109968 0.00190666 -2.60335e-19)
(-0.0650366 0.0957676 1.18902e-17)
(0.0229039 -1.0907 -5.76251e-17)
(-0.00108147 0.00233846 1.4394e-18)
(-0.00925005 -0.00147696 7.00899e-20)
(-0.00391299 1.27165e-05 1.23395e-19)
(-0.000180024 -0.00044643 2.0732e-20)
(-0.0244105 0.0168362 -3.20909e-18)
(-0.121276 0.0324047 -2.58232e-18)
(0.0391559 -0.0633663 -7.94609e-19)
(-0.022878 0.00141404 2.87476e-19)
(-0.0277939 -0.0133865 -1.41218e-19)
(-0.00245127 0.000523315 3.08507e-19)
(0.00219383 -0.00261965 -9.27447e-19)
(0.0121222 -0.00058359 1.2859e-19)
(-0.00124432 0.000434714 -1.74675e-19)
(0.0124765 0.00138195 1.009e-19)
(0.142287 -0.115366 3.1347e-18)
(-0.00657833 -0.00264173 -1.39917e-19)
(-0.00170057 9.88083e-07 1.80285e-19)
(-0.00498769 7.68765e-05 -1.07243e-19)
(-0.0017882 0.000536448 -1.94813e-19)
(0.104597 -0.123733 -3.86205e-18)
(0.00159165 0.00604587 6.05497e-20)
(-0.00122152 0.000365174 6.81494e-19)
(0.00239184 0.00355606 1.69876e-19)
(0.00255008 0.0022111 -2.51747e-19)
(-0.00384785 0.338016 1.5335e-18)
(-0.0149864 0.108464 9.65524e-19)
(-0.00862097 -2.95621e-06 1.35967e-21)
(-0.0120161 3.55683e-05 -5.49837e-19)
(-0.000113405 -0.0177344 -8.07569e-19)
(-0.0407295 0.0435153 -2.45165e-18)
(0.00278433 -0.00220329 -3.59722e-20)
(0.00126073 0.0170664 4.92608e-19)
(-0.00877246 -3.12875e-05 -5.37606e-19)
(-0.0169011 0.0112186 4.48444e-19)
(0.000422704 0.00233405 -2.68016e-19)
(-0.00647011 0.000477734 -3.6499e-19)
(0.0464588 -0.0500366 7.9213e-19)
(-0.0342656 0.0393126 2.89246e-18)
(0.000243051 -0.0298844 -1.52492e-19)
(-0.00818863 -0.000286589 2.6322e-19)
(-0.216024 0.519058 6.2204e-17)
(0.00189105 -0.00347162 -1.31568e-19)
(0.0692526 -0.150683 5.31156e-18)
(-0.00635115 0.000239746 -1.74952e-22)
(0.00125308 0.00240665 1.98756e-19)
(-0.044016 -0.0304486 1.42195e-18)
(0.00227628 -0.00135743 2.31792e-19)
(-0.00457514 0.00665971 -1.28137e-18)
(0.00101161 0.00207582 8.03212e-20)
(-0.00638576 -0.000924718 5.88733e-19)
(0.144407 0.00970138 3.06995e-17)
(-0.00210217 0.000394674 2.02428e-20)
(0.0494133 0.119677 -3.96884e-18)
(-0.00274594 -0.00101614 -5.09952e-19)
(-0.00720599 -0.000179215 8.13925e-20)
(0.0290473 0.0933842 3.83974e-18)
(-0.0370379 -0.0312159 -1.11971e-18)
(-0.0139501 -0.0126447 -5.36255e-19)
(-0.022071 -0.0108701 1.22795e-20)
(-0.00161003 0.00059734 -8.30564e-19)
(0.000564943 0.00463257 -2.69622e-19)
(-0.00659081 -1.62074e-05 9.17134e-19)
(-0.0069787 -0.00168035 -1.47526e-20)
(-0.00167815 0.000643576 -7.98206e-19)
(-0.000232847 -0.000512201 -4.28327e-21)
(0.080708 -0.11083 2.19437e-17)
(0.0469338 -0.105591 4.12234e-18)
(-0.00986087 3.71493e-05 -2.06683e-19)
(-0.015301 0.013617 -8.16396e-20)
(-0.00611663 5.51158e-06 -1.33971e-18)
(-0.00143792 4.52913e-05 4.07516e-19)
(-0.0421266 0.059106 1.48839e-17)
(-0.0788177 -0.0738222 7.8888e-18)
(-0.000253068 0.00472734 -1.36355e-18)
(-0.00219918 -0.000221975 -3.70869e-19)
(-0.00575655 0.000526288 -9.97214e-19)
(-0.00515927 3.42111e-05 4.69215e-21)
(-0.00543602 6.23621e-05 -1.35202e-18)
(0.0177029 0.0832978 1.38804e-18)
(0.158463 -0.00190583 1.83566e-18)
(0.00200949 -8.50087e-05 7.34805e-20)
(-0.00102896 0.151733 2.18769e-17)
(0.00084089 0.00111607 -2.04813e-19)
(0.036044 -0.0764716 -5.80046e-19)
(0.0172819 -0.020103 -6.32643e-19)
(-0.00135636 -4.33141e-05 -7.53604e-19)
(0.207601 -0.0105975 -9.32045e-17)
(-0.00102279 3.05232e-05 4.62471e-19)
(-0.00529242 0.000326433 1.95037e-19)
(-0.00316638 -0.000212346 -4.20496e-19)
(0.000320978 -0.0163614 7.81476e-19)
(-0.00128285 0.000427031 -1.09743e-19)
(0.00218773 -0.00177266 2.86571e-19)
(-0.0718264 -0.00851098 1.6224e-18)
(-0.00491485 0.000396677 8.10824e-20)
(-0.00259623 -2.53293e-05 -3.39561e-19)
(-0.00632272 0.00129535 -1.53808e-19)
(0.00053352 -0.00117791 -1.01453e-18)
(-0.00138361 -0.0222071 6.20991e-19)
(-0.00587491 -0.000122676 -7.06162e-21)
(-0.0624926 -0.0703485 -9.29939e-18)
(0.0806977 -0.9774 1.15393e-17)
(-0.00494579 0.000118136 -3.81705e-19)
(-0.00066253 6.64933e-06 -2.67223e-19)
(-0.00975375 2.06743e-06 2.69235e-19)
(-0.00142662 -0.00915687 9.28518e-20)
(0.154394 0.0258035 -7.45172e-18)
(-0.00450701 7.26954e-06 1.03421e-18)
(0.00107319 0.000863606 -1.9623e-19)
(-0.0615414 -0.0505499 4.92894e-18)
(-0.00162701 -2.01561e-05 -6.37639e-20)
(-0.0057683 0.00578384 -1.35324e-18)
(-0.0268345 -0.034978 -3.88764e-18)
(0.00112158 -3.33162e-05 -4.51595e-19)
(0.0191321 -0.0180099 -1.09306e-18)
(-0.0122899 0.164688 -1.03267e-18)
(0.0391621 -0.337621 -7.44997e-18)
(0.00119458 -4.98552e-05 6.9486e-19)
(0.000611114 0.00181983 -4.98449e-20)
(0.0386562 -0.238601 1.15983e-17)
(-0.00541202 2.29254e-06 2.04986e-20)
(-0.00325608 -0.000224091 -6.76824e-20)
(-0.00446671 0.000484759 5.07052e-20)
(-0.000971276 0.000406478 -2.09701e-19)
(0.00264888 0.00100357 1.02655e-19)
(0.000539545 0.00204844 2.00822e-20)
(-0.00528652 0.000208296 1.93697e-20)
(-0.00209971 0.000457409 1.23336e-19)
(0.0104371 -0.0881651 6.70621e-19)
(0.000581019 0.00290647 -1.15749e-19)
(-0.00706701 -0.00273559 9.69729e-20)
(-0.000248166 -0.000344985 5.98089e-20)
(0.233021 -0.298616 6.38424e-19)
(-0.0061647 -5.10585e-05 -3.11897e-20)
(0.0849418 0.196167 1.15176e-17)
(-0.00101708 0.00295988 -1.11475e-19)
(-0.0011373 -0.0002462 1.62216e-20)
(-0.00159069 0.00205399 -1.46585e-19)
(0.0183315 0.0318337 -7.00391e-20)
(-0.00628143 0.000512441 7.20546e-19)
(-0.266268 0.0302501 1.45248e-17)
(0.0163504 -0.00026317 9.46717e-19)
(-0.399495 0.312955 -6.28381e-18)
(-0.0111363 2.8441e-05 -3.07698e-19)
(-0.115838 -0.112043 -4.89067e-18)
(0.0300759 -0.0330543 9.50099e-19)
(0.0115125 0.0143603 -4.50784e-19)
(-0.00278193 0.000114339 -2.55059e-20)
(0.0802931 -0.132258 -1.78885e-17)
(-0.00653604 -3.26157e-05 -2.0664e-19)
(-0.00406733 -0.071897 4.26024e-19)
(0.00204962 -0.000156693 8.11737e-19)
(-0.0104063 -0.000242901 -1.15478e-19)
(-0.00516611 1.07221e-05 1.01134e-18)
(-0.0071675 0.00689753 3.62372e-19)
(-0.00232138 0.000141966 3.2674e-20)
(0.0108385 0.017715 2.91363e-18)
(0.0159093 0.0082002 2.46536e-19)
(-0.00676071 -8.14755e-06 1.04804e-19)
(0.0111199 -0.000308248 -1.70791e-19)
(-0.0016489 0.000144507 6.60812e-19)
(0.0208337 -0.305495 -6.79309e-19)
(-0.0148921 -9.41617e-06 6.45856e-19)
(-0.0905718 -0.110154 3.3494e-18)
(-0.314468 -0.0057359 -1.75572e-18)
(0.0123437 -0.0131468 7.32141e-19)
(-0.322658 -0.0284967 1.45562e-18)
(0.0115909 0.000992815 -2.13183e-19)
(-0.0121559 6.37614e-06 -5.94259e-21)
(0.0291033 -0.0427334 -1.14054e-18)
(-0.00178876 -0.00111611 -3.41082e-19)
(0.00333968 -3.13834e-06 -1.51901e-19)
(-0.0092181 -0.0135781 -5.61681e-19)
(0.00147509 -0.00145896 -7.11433e-19)
(-0.00283361 -0.000239363 -2.83115e-19)
(-0.00309944 7.95215e-05 2.827e-19)
(0.00135245 0.0027507 3.09778e-19)
(-0.00827133 -1.37179e-05 -3.26135e-19)
(-0.00483102 -3.25115e-05 -2.84931e-19)
(-0.0355738 -0.0109026 -9.00248e-19)
(0.00352898 0.000907836 -2.35973e-19)
(-0.303285 0.33965 -5.89506e-17)
(-0.00488678 8.76864e-05 -2.30391e-19)
(-0.0154667 0.034822 -2.63768e-19)
(0.101125 -0.153489 -2.00104e-19)
(0.042648 0.100528 1.29463e-18)
(-0.000159802 -0.000577469 5.01371e-20)
(-0.00279268 -0.0106773 -7.91765e-20)
(-0.110797 -0.0471823 -1.1989e-17)
(-0.00496637 1.91416e-05 -4.91572e-19)
(0.0569661 0.104915 3.36471e-20)
(-0.0054054 -0.000347494 -3.62857e-19)
(-0.00730187 0.00133847 -1.70896e-19)
(-0.00553738 1.49098e-05 8.96874e-20)
(0.00110401 0.00204424 -4.25312e-19)
(-0.00119342 -0.000248348 3.27285e-19)
(-0.0173871 0.00369751 5.35765e-19)
(-0.162199 0.0471748 1.34321e-18)
(0.00366203 -0.00153295 -2.49624e-19)
(0.00149884 0.000780479 -4.58053e-20)
(-0.0074151 -3.57137e-05 -8.07795e-21)
(0.00248063 -0.00118017 -1.08797e-19)
(-0.154649 0.399386 -3.20808e-17)
(-0.0138367 -9.9108e-07 1.2904e-19)
(-0.0292348 0.0118174 2.20228e-19)
(-0.00172958 -9.35013e-05 -6.74842e-19)
(-0.00981014 -1.13524e-05 -1.29738e-19)
(-0.00107901 0.000364318 -5.99103e-19)
(0.00268134 0.00051806 5.0336e-19)
(-0.188627 -0.0174623 3.66812e-18)
(-0.0287791 0.00505604 -2.0606e-19)
(-0.0141678 0.00360053 3.15581e-19)
(-0.0138645 -7.52813e-07 2.85028e-19)
(-0.00540989 4.62798e-05 -3.42485e-19)
(-0.01435 0.00016442 1.63761e-20)
(0.230488 0.0293669 4.51043e-20)
(-0.00155701 -0.000781263 7.74358e-19)
(0.167903 -0.178973 1.56287e-19)
(0.000618566 -0.00101155 3.20824e-19)
(-0.00433328 -0.00428237 2.38302e-19)
(-0.00590807 0.0013941 4.41861e-19)
(-0.00473715 5.29964e-05 -1.57153e-19)
(-0.0138018 -3.95013e-06 1.19783e-19)
(0.0548059 0.0380756 9.81856e-18)
(-0.000326398 3.87266e-05 4.02687e-19)
(0.0991683 -0.0881022 -3.09793e-18)
(-0.253745 0.0643379 -1.36349e-17)
(-0.0015463 0.00123603 -1.61965e-19)
(0.00662888 5.26212e-06 3.48929e-20)
(-0.259455 -0.036253 -7.01095e-18)
(-0.0019874 0.00337603 6.7891e-19)
(-0.000618485 0.000579125 5.27641e-19)
(0.00318663 0.008553 1.77482e-19)
(-0.00318974 -2.06556e-05 1.11334e-18)
(-0.001311 0.00372804 6.28083e-20)
(-3.64975e-05 0.00199906 -7.19999e-19)
(-0.00735464 -1.45689e-05 4.85253e-20)
(0.0459017 -0.0319418 -7.79631e-19)
(-0.0348017 -0.00392721 1.97867e-19)
(-0.0028531 -0.00043725 -2.02403e-19)
(0.0760171 -0.0207402 -2.65929e-19)
(0.00311611 0.000592459 -2.17214e-19)
(-0.0139141 0.000144294 -9.57613e-20)
(-0.00163041 0.000142993 1.35953e-19)
(-0.00282789 0.00118439 1.82028e-19)
(0.0152784 0.0122121 -1.15242e-18)
(-0.000206048 -0.000327565 -4.04288e-20)
(0.0716267 -0.215546 -1.13736e-18)
(-0.00187715 0.00361418 -1.94716e-19)
(-0.117327 0.0489918 -6.04079e-18)
(-0.00165562 -0.000962507 1.46478e-18)
(-0.000781021 -0.013056 1.05447e-19)
(0.0825566 -0.0132735 8.2982e-19)
(0.0721185 -0.0918893 5.5359e-18)
(-0.0141795 2.31675e-05 6.54718e-20)
(-0.00688813 9.57687e-05 -4.26304e-19)
(-0.00587114 -0.000243438 -1.11829e-19)
(-0.00267276 -0.000520063 -4.28616e-20)
(-0.000137674 0.00178046 2.43915e-19)
(0.00181938 0.00817261 7.12214e-19)
(-0.00104098 0.000339209 7.57769e-19)
(0.0102211 -0.0827042 1.59799e-18)
(-0.0138087 0.0468974 1.48335e-18)
(-0.0017046 0.000590964 1.8862e-19)
(-0.0022508 1.0833e-05 -7.12184e-20)
(0.214872 -0.16709 9.18589e-19)
(-0.00303116 -0.00395129 -5.81323e-19)
(0.000735496 -0.00656184 -1.47381e-20)
(0.00323972 -0.0885741 -2.14986e-19)
(-0.00683276 9.33259e-07 -1.83975e-19)
(0.0044831 -0.000436038 1.2839e-18)
(-0.00515937 0.000467544 -4.57696e-19)
(0.00364079 0.000537967 4.00638e-20)
(-0.00133803 0.00371115 1.64571e-19)
(-0.00671383 -0.000103649 -2.57466e-19)
(-0.0114427 -0.000500624 3.55268e-20)
(0.00815697 0.00427842 -6.18027e-19)
(-0.00256663 -2.50188e-05 1.83199e-19)
(-0.00991736 -0.0347681 4.19532e-19)
(0.00387115 0.0102517 -1.14535e-18)
(0.300377 0.065916 1.76285e-17)
(0.00285554 -0.00686429 -4.41124e-19)
(0.000173294 -0.00027076 -5.86835e-19)
(-0.0608377 -0.0626122 -3.99259e-18)
(0.0221871 -0.0145154 8.14559e-19)
(-0.00111772 0.00429422 -7.60589e-19)
(-0.00029295 -0.000646566 -6.59287e-20)
(0.00367937 -0.00330699 -8.54631e-19)
(-0.0130822 -1.15257e-05 5.27786e-19)
(-0.0028775 -0.000233079 5.31613e-19)
(-0.00390317 -0.000490816 -4.42564e-19)
(-0.0099214 1.04663e-05 1.02854e-19)
(-0.000871179 0.000889519 -1.62049e-19)
(-0.332888 0.461598 3.20406e-17)
(-0.00769109 0.000750122 -4.24507e-19)
(-0.0095842 -0.0287672 -1.42578e-19)
(-0.000775025 0.000772089 7.40158e-20)
(0.00135034 0.000336462 -3.29898e-19)
(-0.101605 0.0393497 4.64818e-18)
(0.00440792 -0.000483419 -9.10095e-19)
(-0.00150149 -0.00120707 1.48554e-20)
(-0.00895279 1.30071e-05 -9.26958e-20)
(-0.23734 -0.195894 -1.27637e-18)
(-0.00226079 2.61451e-06 -4.25568e-19)
(-0.00788671 -0.000850427 6.22378e-21)
(-0.00843278 2.02596e-05 6.79234e-20)
(0.000666404 0.000792324 -2.81314e-19)
(-0.00472442 0.126337 8.99529e-19)
(-0.0425524 -0.100741 1.63322e-18)
(0.00018946 0.000940642 2.99738e-19)
(-0.0125071 9.03541e-06 -3.23998e-19)
(-0.00331961 0.000590691 4.56221e-19)
(-0.00330199 0.000686103 -7.51194e-19)
(-0.050091 -0.0306004 -2.5724e-17)
(-0.000280747 -0.000397107 -2.40162e-20)
(-0.0151663 -8.16144e-06 -3.17801e-19)
(-0.00172823 -0.000812941 -8.45063e-19)
(1.47229e-05 -5.99484e-05 -6.6869e-21)
(-0.0474354 0.0331601 3.08386e-18)
(-0.00347763 -0.000878644 -4.48073e-19)
(-0.00522833 -0.00322403 -6.55632e-19)
(0.0990882 0.0417724 1.78285e-18)
(-0.1338 -0.411457 7.71392e-18)
(-0.0457661 0.0360346 -4.97011e-18)
(-0.00874263 -0.00063335 1.60736e-19)
(0.11372 0.00478141 -6.56255e-19)
(-0.00694194 -0.0159216 4.93902e-19)
(-0.00420082 0.00042443 -7.14143e-20)
(-0.0031843 -0.00783728 1.47928e-18)
(-0.00154516 0.000657459 3.13939e-20)
(-0.0094186 1.6241e-05 3.22393e-19)
(-0.00219972 0.000574457 1.40472e-19)
(-0.00484288 0.000386819 -9.44276e-20)
(-0.000768854 0.000531209 -2.61828e-19)
(0.000973528 -0.000806007 3.88719e-19)
(-0.123057 -0.768335 2.48542e-17)
(-0.00769254 0.000685369 -2.97702e-19)
(0.00365486 0.000908502 1.57806e-18)
(-0.03805 -0.0944936 -6.36729e-19)
(-0.155356 0.0490907 9.77946e-19)
(-0.00862358 -7.43191e-05 -2.13085e-19)
(-0.0268153 -0.0220939 1.56916e-18)
(0.0100516 2.11053e-05 1.4939e-19)
(-0.00971109 0.00420246 -3.00827e-19)
(-0.0112117 6.71326e-06 1.298e-19)
(-0.309233 -0.0250738 -4.1436e-18)
(-0.0027777 0.00381823 1.52397e-18)
(-0.0965733 0.0741226 -3.17046e-18)
(-0.0384823 -0.133523 3.1187e-18)
(0.0014295 0.000214352 4.08408e-19)
(0.0208934 -0.00809401 -2.8538e-18)
(0.00098636 -8.49593e-05 -3.5669e-19)
(0.091341 -0.0941656 -1.76617e-19)
(-0.00115748 -0.00069205 -3.53162e-19)
(0.0451859 0.105175 1.73475e-19)
(-0.0029002 0.00232877 9.56506e-20)
(0.0591815 0.0422506 2.6514e-19)
(-0.0105879 0.000603924 5.25375e-19)
(-0.00280146 0.0118109 -6.91746e-20)
(-0.00170782 0.00117415 8.71668e-19)
(-0.00500584 0.00022657 5.71768e-19)
(-0.062433 0.0134926 4.23639e-18)
(-0.00109181 0.000366964 -1.21622e-18)
(-0.00208448 0.00112647 -1.49708e-18)
(-0.00185803 -4.21192e-05 2.31386e-19)
(-0.0155149 -0.117374 3.35708e-18)
(-0.00212866 -0.000240347 -7.66708e-19)
(-0.00214826 0.000430415 2.54552e-20)
(0.0161876 -0.026794 6.57396e-19)
(0.000494519 0.00069669 9.09781e-19)
(-0.00464426 -0.019209 -1.60164e-19)
(0.0462106 0.0928747 -3.27082e-19)
(-0.0139773 7.96523e-06 9.28981e-19)
(-0.00116109 0.00338191 -1.73123e-18)
(-7.53944e-05 0.00086785 -8.57944e-19)
(-0.00113557 0.000427803 -7.00839e-19)
(-0.00388783 0.00213899 -1.52216e-18)
(-0.0188031 -0.0257576 -3.47161e-19)
(0.000936251 -0.000160772 2.34335e-19)
(-0.00228303 0.000699966 1.98211e-19)
(0.0743678 0.480879 7.06351e-18)
(-0.00615115 -0.00329162 2.45599e-19)
(-0.00126261 1.70235e-05 4.82085e-19)
(-0.00845063 -0.986633 2.18097e-17)
(-0.00125232 -1.6739e-05 -1.01139e-18)
(0.00139634 0.00141137 -2.29397e-19)
(0.00468362 0.0064408 -3.65027e-19)
(0.181537 -0.287734 -6.09185e-18)
(0.197411 -0.0162133 4.09489e-18)
(0.0100672 -0.0937131 5.6107e-19)
(0.00088133 0.0103715 -1.13032e-19)
(0.122402 0.0339398 8.96197e-18)
(-0.0311935 -0.0022563 -9.32024e-19)
(-0.00200557 0.000414987 -2.46658e-19)
(-0.00232858 -0.00457842 -6.15342e-19)
(0.0762744 0.0125458 1.43237e-19)
(0.0726369 0.0177558 2.6434e-20)
(-0.00156917 -0.00619056 -2.28651e-18)
(-0.00637339 2.19641e-05 -2.19637e-19)
(-0.00464866 -0.000490911 1.13742e-18)
(-0.0156885 -0.0162567 3.5118e-20)
(-0.066955 -0.632017 -3.09281e-17)
(-0.00240059 0.000520695 -2.87206e-21)
(-0.000841412 -0.00413574 -7.50412e-20)
(-0.00501177 -8.8745e-06 5.88926e-19)
(-0.00727965 -2.98278e-05 -8.1758e-20)
(-0.00275722 -0.000573295 -6.9147e-19)
(-0.00258406 -0.000520115 -3.93872e-20)
(-0.00386332 0.000306947 -5.74354e-20)
(-0.0121371 -2.92983e-06 -9.96423e-20)
(0.00566097 0.0102939 2.83221e-19)
(-0.00140975 0.00154107 -1.29818e-18)
(0.00115167 0.00123974 3.03976e-19)
(0.0161727 -0.0239068 -3.59629e-19)
(0.117254 0.055442 1.4251e-18)
(-9.57152e-05 0.000192231 9.9329e-19)
(-0.317069 -0.298422 -6.16246e-18)
(0.126786 0.402686 1.5736e-18)
(0.0884331 -0.269191 1.97808e-17)
(-0.00272287 -2.89841e-05 2.23194e-20)
(0.0027014 0.00431862 -4.32243e-19)
(-0.00222349 1.20351e-05 1.38846e-19)
(-0.149397 0.0366496 9.46802e-19)
(-0.0124786 0.000210144 1.06653e-19)
(0.0121403 -0.000924213 -7.76603e-19)
(-0.0105225 0.00056983 -2.70056e-19)
(0.0188408 -0.0891673 -1.39526e-17)
(-0.00170342 -3.44188e-05 1.00411e-18)
(0.00124726 0.00208715 4.75556e-20)
(-0.000311255 -0.00421404 4.60761e-20)
(-0.00125412 -0.00414344 8.95435e-20)
(-0.0120239 0.176161 -8.93927e-19)
(-0.00106725 3.18749e-05 -4.62967e-20)
(-0.00939771 -5.14448e-05 -2.90972e-19)
(-0.00537632 4.0159e-05 2.48772e-19)
(-0.0907322 0.523423 1.02843e-17)
(-0.00170595 -0.000120485 8.9106e-19)
(0.00641984 -0.00324732 -3.63925e-20)
(-0.00932477 0.00943384 -1.0396e-18)
(0.022809 -0.00237457 1.57619e-19)
(0.001545 0.000343078 1.60392e-19)
(0.00866855 -0.00425879 -3.96148e-19)
(0.015206 -0.00214936 4.13286e-19)
(0.100723 0.200297 -6.15899e-18)
(-0.00927349 -0.000200816 1.13089e-19)
(-0.0126437 -8.50806e-06 -2.73052e-19)
(0.0886128 -0.016549 -1.92815e-18)
(-0.123244 0.501692 -4.30792e-18)
(-0.00473879 0.0108541 2.94488e-18)
(-0.036223 0.00600632 -2.11828e-19)
(-0.00772234 -2.1303e-05 -1.16138e-19)
(0.0100718 -0.0658355 -5.64007e-20)
(-0.00385271 -0.011322 -7.51541e-19)
(-0.00682906 -0.00534334 5.8508e-19)
(-0.00366447 -0.000529193 -5.78029e-19)
(-0.00659647 -0.0945223 -2.95398e-19)
(0.0013095 0.000254183 -9.03216e-20)
(-0.00855459 6.46389e-06 1.84458e-19)
(-0.00335984 -0.00103334 3.51293e-19)
(0.0014838 -0.0404615 5.13146e-18)
(-0.0147114 1.09489e-05 -5.35715e-20)
(0.101587 -0.0397872 9.97438e-19)
(-0.0163912 -1.82558e-05 -5.74913e-20)
(-0.00863604 7.61278e-05 -7.73913e-20)
(-0.000290067 -5.49828e-05 -5.6285e-19)
(-0.00478192 -0.000768932 -1.4289e-18)
(-0.0381745 0.012286 -4.01935e-19)
(0.0011132 -0.00136349 5.5921e-19)
(-0.00242677 0.00059628 -8.30018e-20)
(-0.0505032 0.0312759 2.17462e-18)
(0.0198737 -0.00425232 -1.37839e-18)
(0.0143669 -0.0155935 -4.1204e-19)
(-0.000676731 -0.00124729 -1.87583e-19)
(-0.00137484 0.000569763 -9.48054e-20)
(0.0092593 -0.0708578 1.39252e-21)
(0.118733 0.158507 6.99712e-18)
(-0.00958315 -0.000702656 1.66717e-19)
(0.000519064 0.000585984 -3.16412e-19)
(-0.00935502 0.00597517 6.53602e-19)
(-0.00888525 -0.000323162 3.35792e-19)
(-0.00359168 -0.000425017 4.7899e-20)
(0.041033 -0.0324038 7.33449e-19)
(-0.0021174 -0.000222328 -2.90321e-19)
(-0.148358 -0.00545238 2.4287e-17)
(-0.0121813 -6.11353e-06 1.49422e-19)
(-0.0139828 -0.013837 3.67142e-19)
(0.0015422 -0.00319144 -3.53784e-19)
(-0.324343 0.00523987 7.54396e-19)
(-0.015466 -5.69268e-07 6.13747e-21)
(0.00174319 0.00388838 1.24923e-18)
(-0.0169758 -4.15379e-06 -3.75713e-19)
(-0.00193587 -5.67583e-05 4.77425e-19)
(-0.0463448 0.0279599 8.73372e-20)
(-0.000208457 -0.000728456 -6.97701e-20)
(0.0530177 0.152465 5.02561e-18)
(-0.00255316 0.0117187 7.68587e-19)
(-0.000694029 -0.000203249 -9.00406e-20)
(0.0026887 0.000429738 -4.50987e-20)
(0.355431 0.0940264 -8.87781e-19)
(-0.0246718 -0.195118 5.15469e-19)
(0.00373496 -0.0208012 2.27427e-19)
(-0.00183987 -3.91089e-05 -2.4407e-20)
(0.000420916 0.000640456 5.7615e-19)
(-0.00152766 0.000371987 -1.1319e-19)
(-0.00120268 0.00274344 6.83124e-19)
(0.000642958 -0.0040165 1.53658e-19)
(-0.00278769 -0.000995503 -1.78237e-19)
(0.068657 0.141726 -7.52541e-19)
(-0.00390524 -0.000244134 3.55374e-19)
(-0.00015902 -0.000188873 -4.60174e-20)
(-0.232653 -0.0335748 4.36214e-18)
(0.000865569 0.00211448 2.77777e-20)
(-0.000418636 -0.00447484 -4.75156e-19)
(-0.0018136 8.35753e-06 2.114e-19)
(-0.00694733 -2.9042e-05 -2.059e-19)
(-0.238827 -0.0634518 1.21149e-17)
(-0.00711486 0.108504 -1.68911e-18)
(0.000448072 -0.0028342 4.99008e-19)
(-0.00151902 -0.110535 -1.75849e-18)
(-0.0143607 9.68078e-05 -5.3412e-20)
(0.000113884 0.00338578 8.37898e-19)
(0.000601251 0.000540672 1.22719e-18)
(-0.000914503 -0.000223189 1.20146e-18)
(-0.00456423 0.000167912 4.98699e-19)
(-0.00680307 0.00016724 1.34205e-19)
(-0.00892202 -0.00073316 -1.22232e-20)
(-0.00506891 -1.96076e-05 -6.54086e-19)
(-0.293742 -0.0205577 1.29275e-17)
(-0.0118774 0.000498012 5.58582e-19)
(0.00395734 -0.0530132 1.07612e-19)
(-0.00900768 6.23003e-06 -2.44502e-19)
(0.000943611 -0.00207966 1.61628e-19)
(-0.00095447 0.000364549 -1.27522e-19)
(0.0139882 -0.0186824 -2.30674e-19)
(0.0734556 -0.285046 -1.19189e-19)
(-0.0012004 -0.000178416 4.89038e-19)
(-0.00583086 4.57898e-05 -1.2348e-19)
(0.00282584 -0.0877924 -1.2423e-18)
(0.0123836 -0.00913547 2.30392e-18)
(-0.00113401 0.000371728 -3.25064e-19)
(-0.158521 -0.279033 3.01965e-17)
(-0.0132519 1.38819e-05 1.73696e-19)
(0.00535005 0.00658546 -9.61305e-21)
(-0.00302722 -0.000169598 -1.21199e-19)
(-0.00954309 -5.53648e-06 2.97185e-19)
(-0.000345609 -7.5122e-05 -3.5283e-19)
(-0.261516 -0.139713 -4.03274e-18)
(-0.00107251 0.000332801 -2.39808e-19)
(-0.00555849 -0.000326202 1.15365e-19)
(-0.00376549 -0.00103565 6.56213e-19)
(-0.126102 -0.208887 9.49908e-18)
(-3.97883e-05 -4.19501e-05 1.24187e-20)
(-0.00586613 0.000245354 -2.15469e-19)
(-0.00508978 -1.20251e-05 6.95615e-20)
(0.0126969 0.0333437 1.82692e-19)
(-0.00751971 -8.26549e-05 3.1278e-19)
(-0.00424193 8.80502e-05 4.35224e-19)
(-0.00145513 -4.41793e-05 3.15479e-19)
(-0.00556198 4.88049e-05 -4.49982e-19)
(-0.00398624 -0.000175314 6.01621e-19)
(-0.00475901 3.33551e-05 -8.87778e-20)
(0.000979563 -0.00178785 -3.30779e-19)
(6.94162e-05 0.000539855 -3.57842e-19)
(-0.0439438 0.120771 5.20244e-17)
(0.0511227 0.235302 -4.30521e-18)
(0.0207121 0.0922432 -9.05452e-20)
(-0.00118401 -0.000493269 -1.38034e-19)
(0.000932516 0.00330186 1.54187e-18)
(-0.0149659 -7.59952e-06 3.92605e-19)
(0.0441292 -0.0125261 -7.40116e-20)
(0.00269848 4.55891e-05 -3.62109e-19)
(-0.0148765 0.06793 -2.83588e-19)
(0.00131913 0.0144298 -8.7714e-19)
(0.0357337 0.0158404 -7.1882e-18)
(0.0039756 0.00699911 -1.12141e-20)
(0.0413015 0.128458 -8.57311e-19)
(-0.0169056 0.00010584 5.56204e-20)
(-0.00948366 -0.000570803 3.1552e-20)
(-0.0417145 0.0866182 -6.5834e-19)
(0.00558854 0.0284508 -2.31757e-19)
(0.00420173 7.45997e-05 9.21123e-19)
(-0.037305 -0.0186701 1.11989e-18)
(-0.00966526 0.00041497 8.23502e-20)
(0.000651972 0.0914009 1.3339e-18)
(-0.00773775 -2.36645e-05 -8.99767e-20)
(-0.0102223 -0.000445036 -3.48371e-21)
(6.48821e-06 0.000221809 -9.00689e-19)
(-0.00235756 -0.000132134 -1.15085e-18)
(-0.0125715 -7.1998e-06 9.98878e-20)
(-0.0382311 0.0600497 -2.04991e-19)
(-0.00209297 0.00112573 3.60245e-19)
(-0.000757237 1.55632e-05 -3.16776e-19)
(-0.194258 -0.623662 -2.8093e-17)
(0.00106945 -0.000140388 9.55621e-20)
(0.0414201 -0.0187453 9.504e-21)
(-0.00129841 -0.00688434 -1.18793e-19)
(0.000642324 0.00136824 3.64351e-20)
(0.00437385 -0.0043614 1.46706e-18)
(-0.00781276 -4.06342e-05 1.00778e-19)
(-0.00972323 -0.00264401 -4.627e-19)
(-0.0051437 0.000275327 -1.3128e-19)
(-0.00331461 0.000105614 6.49783e-19)
(-0.00115837 -0.0455965 -4.04235e-20)
(-0.00931432 1.38362e-05 1.63933e-19)
(-0.000210003 -0.000236062 3.01885e-21)
(-0.00863759 -6.62065e-07 9.72198e-20)
(-0.0079352 2.11115e-05 -1.76105e-18)
(-0.0087107 -3.27631e-05 2.02528e-19)
(-0.00427073 0.00884792 3.07612e-19)
(0.046249 -0.0399185 -4.37324e-19)
(0.0385843 0.24661 1.34465e-18)
(-0.0089496 0.000366637 3.55241e-19)
(-0.00569897 -3.67064e-05 9.22014e-19)
(-0.00833634 4.46213e-05 -6.4819e-19)
(0.00326639 0.110612 4.52399e-19)
(-0.00684394 -0.00290632 -1.89028e-19)
(-0.0015528 0.000620981 5.75557e-19)
(-0.00148553 0.000118809 -6.9193e-19)
(-0.00670172 -0.000295562 1.10606e-18)
(0.0255301 0.144696 7.91745e-19)
(0.313647 0.0613867 -5.48295e-19)
(-0.0083887 -0.0314605 -4.06397e-20)
(0.000704346 -0.00116768 -9.49567e-20)
(-0.0191201 1.24003e-05 -3.75354e-20)
(0.0937905 0.141074 3.79111e-17)
(0.000338152 0.00376092 -5.61481e-19)
(0.00158167 0.00100943 9.32186e-20)
(0.00233264 -0.0192801 -3.33362e-20)
(-0.0068524 -0.0439509 -5.60004e-20)
(-0.118882 0.0578939 5.12831e-18)
(0.0154214 0.14154 -3.53037e-19)
(-0.00779106 -3.6887e-05 -3.94691e-20)
(-0.00297387 -1.72812e-05 4.79917e-19)
(-0.00553821 0.000340314 -3.81591e-19)
(-0.00716685 0.00468672 2.34957e-19)
(-0.00400882 -5.56869e-05 -2.651e-19)
(0.000348402 0.00362326 1.09302e-18)
(-0.00558538 0.000252717 -2.49647e-19)
(-0.000385487 -0.000809245 1.70633e-19)
(0.00364122 -0.00220557 -1.70302e-19)
(-0.00426174 0.000351389 5.19294e-19)
(-0.256381 -0.258688 2.05599e-18)
(-0.281259 0.0362182 -9.41267e-18)
(-0.000595676 0.000612331 2.3028e-19)
(-0.00783585 5.57037e-05 -1.2729e-18)
(-0.00179671 0.000327509 -7.3942e-20)
(0.0116948 -0.095116 7.35276e-20)
(-0.00235135 -0.000160219 2.87387e-19)
(0.066709 0.0649033 -1.38066e-19)
(-0.00352727 0.000509575 2.41334e-19)
(0.301492 -0.157346 -6.67271e-19)
(-0.00435117 -6.98128e-06 3.51134e-19)
(-0.00284201 8.58964e-06 6.00812e-19)
(-0.00137211 -0.000181717 -5.12034e-19)
(-0.00940818 8.07739e-06 2.20742e-21)
(-0.00791381 -0.000468644 1.8864e-20)
(-0.000201844 -0.00223929 9.86694e-20)
(-0.0126626 0.000204492 5.88311e-20)
(-0.0084863 0.000590093 -2.25604e-19)
(0.00394357 0.000663144 -3.63619e-19)
(0.00234243 0.00202785 -2.98537e-19)
(-0.0423159 0.15007 4.00479e-19)
(-0.0165318 5.79473e-05 1.2775e-19)
(0.00814775 0.0212445 5.04361e-19)
(0.0114791 -0.0223108 -7.92991e-21)
(0.00532062 3.73495e-05 8.09046e-20)
(0.069465 -1.05708 4.55996e-17)
(-0.00780297 -5.53741e-05 5.96217e-19)
(-0.00386863 -0.000502364 4.85829e-19)
(-0.00255659 0.00426729 -9.98143e-19)
(-0.00243559 -3.15154e-05 -4.83086e-19)
(-0.00649145 -0.118812 1.4008e-18)
(-0.00479095 0.000256454 3.92864e-19)
(-0.00226147 -0.000405766 7.66937e-19)
(-0.000300207 -4.14503e-05 4.16541e-20)
(0.0950413 0.060679 3.33455e-18)
(-0.00176811 2.31879e-05 1.48818e-19)
(-0.000387173 0.00725043 2.02022e-19)
(-0.000362213 0.00873279 -4.46111e-19)
(-0.00572429 6.66965e-06 -3.2209e-19)
(-0.0511911 -0.0352325 -9.93857e-19)
(-0.00670759 -0.00651054 -3.95075e-19)
(-0.000106888 -0.00667349 -5.03809e-20)
(-0.00268363 1.53179e-05 1.65763e-19)
(-0.0305007 -0.0230664 -1.66688e-18)
(-0.0152464 -6.43032e-06 -2.66022e-19)
(0.0903667 0.123338 -7.02182e-19)
(0.0035401 0.000745277 -3.22575e-19)
(0.00410642 -0.000441169 -3.23329e-19)
(0.00489876 -0.00135264 5.93161e-19)
(-0.00949749 0.000307027 1.75618e-19)
(-0.00924181 -0.000150205 1.42393e-20)
(-0.00202496 0.000300587 6.19245e-20)
(0.00248302 -0.0104331 7.56203e-19)
(-0.00293989 0.00422768 1.32395e-18)
(0.00358403 -0.00848982 -3.96453e-19)
(0.0179252 0.094919 -1.50856e-18)
(-0.000282071 -0.000906134 -7.3424e-20)
(-0.00163611 0.00297615 1.13232e-18)
(0.011308 2.6456e-05 -7.40785e-20)
(0.00327616 0.0064628 7.34767e-20)
(-0.0157437 -2.80099e-06 1.93677e-19)
(0.0835962 -0.00234936 -9.91105e-20)
(-0.00672617 0.000545909 -5.64096e-19)
(-0.010755 -0.000772241 -3.19909e-19)
(0.00402846 0.0158545 2.68251e-18)
(-0.00600961 1.0177e-05 -6.1562e-19)
(-0.0257225 -0.0197318 -2.28475e-19)
(-0.00671036 -0.0050251 1.20118e-18)
(-0.0187484 3.35634e-06 3.84352e-19)
(-0.00222812 0.00941639 7.13717e-20)
(0.00148633 0.0030653 5.05313e-19)
(-0.00757432 -0.00028105 -6.70991e-19)
(-0.00335653 0.000182899 -3.69241e-19)
(-0.00472591 -0.0148646 -5.58128e-19)
(-0.00306977 -0.00100056 -8.18824e-19)
(-0.126983 0.07135 -7.00878e-18)
(-0.00914732 0.000538989 -1.75482e-19)
(-0.00190791 -0.0160651 -2.10485e-19)
(-0.0001481 0.00392361 7.63495e-19)
(-0.172621 0.206775 3.08053e-18)
(-0.00332253 9.71695e-05 -5.15466e-19)
(-0.00715523 -0.00426578 -2.22611e-18)
(-0.010631 0.00139688 -2.06878e-19)
(-0.00565839 0.000626972 -2.63333e-19)
(-0.00180549 0.00767881 -1.32401e-18)
(-0.0010379 -5.92242e-06 7.06114e-19)
(-0.00436258 -0.0119643 9.513e-19)
(-0.00469328 -0.000338378 4.91557e-19)
(-0.00956331 0.00064719 -5.57549e-19)
(-0.00216992 -6.35399e-05 -5.88683e-19)