/*--------------------------------*- C++ -*----------------------------------*\
| =========                 |                                                 |
| \\      /  F ield         | OpenFOAM: The Open Source CFD Toolbox           |
|  \\    /   O peration     | Version:  v2012                                 |
|   \\  /    A nd           | Website:  www.openfoam.com                      |
|    \\/     M anipulation  |                                                 |
\*---------------------------------------------------------------------------*/
FoamFile
{
    version     2.0;
    format      ascii;
    class       surfaceScalarField;
    location    "950";
    object      phi;
}
// * * * * * * * * * * * * * * * * * * * * * * * * * * * * * * * * * * * * * //

dimensions      [0 3 -1 0 0 0 0];
oriented        oriented;


internalField   nonuniform List<scalar> 
14885
(
0.75474
-0.510952
-0.243766
0.236666
-0.446943
0.210457
0.48114
-0.278339
-0.202552
0.418227
0.054104
-0.472449
-0.678475
0.375655
0.303544
0.340961
-0.606833
0.265732
0.338836
-0.212186
-0.126325
-0.294618
-0.169634
0.464336
0.258457
0.348604
-0.606955
0.163493
-0.342947
0.179605
-0.632689
0.410504
0.222158
0.44363
-0.206827
0.354284
-0.178786
-0.175267
0.736769
-0.265925
-0.470681
0.151197
-0.420898
0.269592
0.237522
0.499374
-0.3201
-0.203147
0.523052
-0.389652
-0.243078
0.181968
-0.425788
0.244188
0.188361
-0.452698
0.264393
0.146308
0.20819
0.455981
0.298798
-0.0700508
0.488586
-0.447496
0.220066
0.227406
0.22878
-0.585694
0.357207
0.309486
-0.648951
0.339507
-0.219349
0.383206
-0.449755
-0.177281
0.627071
0.56346
-0.222664
0.441112
-0.396648
-0.044395
-0.105454
0.524924
-0.41949
-0.186555
0.284184
-0.0975146
0.254817
-0.556855
0.302266
0.542737
-0.287611
0.168933
-0.463515
0.258015
0.156865
-0.414885
0.371228
-0.67246
0.302202
0.307643
-0.615308
0.307626
0.379173
-0.484416
0.447738
0.181365
-0.629112
0.261489
0.179714
-0.298187
0.303872
-0.0371217
-0.266682
-0.20107
-0.220448
0.421867
-0.267781
0.565172
-0.297272
0.465125
-0.236542
0.566791
-0.640146
0.0733329
-0.322599
0.473515
0.38379
-0.19142
-0.192112
0.123897
0.176473
-0.300178
-0.00112683
0.305087
0.660386
-0.419056
-0.241189
0.24324
0.377602
-0.195337
-0.266919
-0.0574027
0.324432
-0.123714
-0.0672624
0.191093
0.340814
-0.194367
0.196079
-0.596901
0.401148
-0.223689
-0.191698
0.41557
-0.336529
-0.360178
0.696706
0.205852
0.178235
0.176988
0.109313
-0.28605
0.235864
-0.27287
-0.347063
-0.170739
0.517847
0.297569
-0.634034
0.336531
0.274413
-0.565078
0.290862
0.156583
-0.420768
0.264234
0.485766
0.0473075
-0.533001
0.612222
-0.547144
-0.0650861
-0.0579898
0.543835
-0.27767
-0.00292197
0.280705
-0.54192
0.331444
0.21022
0.699435
-0.408342
-0.291035
-0.437411
0.21386
-0.270597
0.545413
-0.278721
-0.575344
0.102804
0.472651
-0.0606489
0.627423
-0.499892
-0.0753542
-0.292837
-0.132598
0.185482
-0.38637
-0.18602
0.572865
-0.0520189
-0.520553
-0.36872
0.642977
-0.274541
-0.117226
0.370503
-0.253001
0.268692
0.0353237
-0.303796
-0.271864
0.428581
0.22979
0.251593
-0.289379
-0.249609
0.538575
-0.596678
0.38862
0.208028
0.0920202
0.188693
-0.280478
-0.417459
-0.00348118
-0.0501027
0.286101
0.344609
-0.0756777
0.271745
-0.620216
0.348324
-0.377488
-0.114248
0.491552
0.197876
-0.109079
-0.232363
-0.224271
-0.274626
0.498974
0.244827
-0.445025
0.200237
-0.209923
0.302236
0.320719
0.0248518
-0.34523
-0.456391
0.345818
0.111201
0.240603
0.00821673
-0.238694
0.384401
-0.145387
-0.227797
-0.240039
0.467748
0.155129
0.136101
-0.29114
0.321125
-0.5914
0.197719
0.141404
-0.45773
0.230158
0.307483
0.156316
-0.463855
0.331591
-0.133577
-0.115032
0.436019
0.169052
-0.516084
0.624025
-0.326499
0.665474
-0.409989
-0.255553
0.63537
-0.254674
-0.380476
-0.322642
0.652908
-0.32994
0.559926
-0.363469
-0.66907
0.32512
0.34389
0.266175
-0.6027
0.226152
-0.410994
0.18506
-0.135941
0.362245
-0.58243
0.314526
-0.466456
-0.130253
-0.373248
-0.257031
0.630122
0.0860513
-0.45895
-0.302191
0.0353795
0.161786
0.0601255
-0.22185
0.221207
0.414375
-0.311146
-0.276406
0.587538
0.179122
0.299319
-0.47849
-0.669636
0.333769
0.335745
-0.439277
0.00638602
0.432854
0.219435
0.112398
0.312912
-0.131733
-0.180981
0.163702
-0.428087
0.264431
-0.296615
-0.00662148
0.251006
0.138819
-0.38942
0.337456
-0.561685
0.329317
-0.184081
-0.145098
-0.363439
0.661185
-0.297673
-0.138973
0.294211
-0.655335
0.205621
0.372404
-0.0664842
-0.305727
0.604647
-0.297085
-0.366252
0.249314
0.200553
0.41166
0.275079
-0.435123
0.160453
0.516624
-0.159589
-0.356907
-0.240242
0.561332
-0.312481
-0.311123
0.623542
0.0920905
0.246256
-0.338397
0.213586
0.0361497
-0.249599
0.620759
-0.349184
0.366123
0.00648284
-0.0996602
0.26151
0.0700728
-0.193681
-0.208612
-0.461122
0.487144
-0.177631
0.0206858
-0.533744
0.513235
-0.169338
0.617051
0.105953
0.207166
-0.546336
0.440167
-0.234732
-0.204995
0.339465
0.177341
0.40136
0.298156
-0.0782478
0.319014
0.494408
-0.236317
-0.163229
0.479588
-0.316111
0.272331
-0.62398
0.351464
-0.20392
-0.192682
-0.490222
0.400867
0.0895847
0.379831
0.221296
0.15657
-0.133927
-0.356043
0.570123
-0.47987
-0.0900631
0.323868
0.28067
0.528527
-0.349294
-0.342801
-0.204329
-0.157128
0.408691
-0.0919042
0.285548
-0.193371
-0.192478
0.670518
-0.326954
-0.343693
0.156405
-0.597245
0.440892
0.332592
-0.280564
-0.0518067
-0.36215
-0.180016
0.591737
-0.169801
-0.421942
-0.278855
0.332462
-0.0534706
-0.305316
-0.290091
0.595374
-0.413779
0.180306
0.16065
0.274362
-0.585367
-0.306726
0.215029
0.0259992
0.270595
-0.296452
-0.0891831
-0.328335
-0.170132
0.000690164
0.169475
0.297908
-0.613825
0.31597
-0.15242
0.0448552
0.107575
0.139547
-0.508453
0.220926
-0.0102422
-0.21061
-0.220247
-0.0798982
0.300297
0.233845
-0.442915
0.209054
0.325468
0.191156
-0.516776
0.210615
-0.485141
0.58553
-0.251971
-0.462504
0.265874
0.196498
-0.100624
0.314429
-0.213166
0.520286
-0.0102685
-0.429007
-0.264656
-0.190043
0.515398
-0.182465
0.416289
0.271413
0.173782
-0.445048
-0.568777
0.0639937
0.50605
0.55227
-0.574661
0.0224762
-0.649633
0.41416
0.235428
0.580575
-0.2119
-0.368368
-0.40946
0.621075
-0.211822
0.281122
0.136737
-0.179472
0.0427686
0.608202
-0.335956
-0.105765
0.242545
0.49433
-0.348817
0.402721
-0.270201
-0.493747
0.280147
0.21377
0.414162
-0.250259
0.451251
-0.226069
-0.224589
-0.377424
-0.0785402
0.593314
-0.269517
0.506829
-0.420617
0.0671696
0.265676
-0.485399
0.162882
0.449808
0.12057
0.32486
0.129293
-0.390358
0.261425
0.0799036
0.117989
0.264466
-0.330781
-0.241361
0.461349
-0.558058
0.211841
0.34642
0.11954
-0.474996
0.355731
-0.351876
0.618054
0.405312
-0.574653
-0.117549
0.398123
-0.280425
-0.475855
-0.201897
0.517003
-0.39714
-0.187553
0.452187
-0.199056
0.291058
-0.153703
0.529861
-0.368147
0.129791
-0.30364
0.578103
-0.00208993
0.365882
-0.36365
0.39858
-0.224925
-0.173469
-0.264129
0.539864
0.4012
-0.271682
-0.481154
0.175714
0.193822
0.273918
-0.467288
0.00770556
-0.116768
0.630393
-0.243477
-0.387188
0.635918
-0.247302
0.639518
-0.33032
-0.309077
0.278113
0.382387
-0.519282
-0.120885
-0.279153
0.146416
0.252447
0.382218
0.253697
-0.354676
0.352663
0.743873
-0.445083
-0.299554
0.498017
0.00878016
-0.505349
0.168651
0.336264
-0.150016
0.274186
-0.307693
-0.260549
0.568454
0.284965
-0.287748
0.489675
-0.295526
0.239164
-0.574228
0.335358
0.123583
-0.383926
0.260254
0.263236
-0.552451
0.28962
0.29184
0.451309
0.2714
0.341241
-0.518431
0.555511
-0.197414
-0.357794
-0.0184404
-0.151662
0.397873
-0.274094
-0.0676315
0.559376
-0.488273
-0.0268929
0.189748
-0.162844
-0.554072
0.334225
0.220007
-0.367826
0.539477
-0.171625
0.633646
-0.245902
-0.387672
-0.490453
0.177874
0.149257
0.186035
-0.335132
0.581093
-0.269039
-0.311689
-0.572282
0.0440572
0.529506
-0.590003
0.210536
0.379699
-0.251761
-0.589595
0.164759
0.424743
0.262235
-0.378404
0.11665
0.124727
0.289683
-0.310435
-0.195279
-0.424881
-0.224798
0.385241
-0.171531
0.0936319
0.498096
-0.255044
-0.302825
-0.396358
-0.157598
0.290642
-0.113442
-0.236251
-0.349296
0.585766
0.624806
-0.219501
-0.113812
0.376352
-0.224944
-0.364925
-0.137314
0.508706
-0.454266
0.507187
-0.0530996
-0.564496
0.187079
-0.460992
-0.128681
0.300649
0.280811
0.288335
0.345378
-0.484099
-0.0351849
-0.362499
0.518921
-0.247628
0.471493
-0.223789
0.393619
0.271786
-0.544715
0.573902
-0.0292692
-0.0120864
0.297221
0.555253
-0.315734
0.180227
-0.516736
0.3365
0.270203
0.324643
-0.594824
-0.549782
-0.0177885
-0.259863
0.582361
-0.322276
0.238511
0.290019
-0.265292
0.327283
-0.177848
0.293824
0.291476
0.264466
0.227062
-0.491946
-0.528105
0.0171919
-0.565303
-3.50432e-06
0.565399
-0.230981
-0.231664
-0.63431
0.388509
-0.203913
0.290549
-0.0864076
-0.335129
0.515356
0.295365
-0.598727
0.602881
-0.263137
0.136601
0.192843
-0.337255
0.150964
0.18641
0.262394
-0.614271
-0.296854
0.605273
-0.308302
-0.0107901
0.54721
-0.536647
0.296652
0.296581
-0.293727
-0.264448
0.558154
0.478589
0.0395982
-0.518085
0.540554
-0.269111
-0.271127
0.42528
-0.259962
-0.165473
-0.323972
-0.296387
0.264339
0.276538
-0.525886
-0.0319715
0.557938
0.351283
-0.241766
-0.604677
0.344929
-0.212758
-0.280781
0.573027
-0.264216
0.149583
0.114736
0.0149542
-0.488781
0.473737
0.243043
-0.483246
-0.263559
-0.40798
0.185693
0.254876
0.226751
-0.477978
0.25142
0.36432
0.238807
-0.391502
-0.516452
-0.0141908
0.530436
-0.556548
0.276267
0.28035
-0.292146
0.260185
0.0461762
-0.306289
-0.529983
-0.543338
0.53209
-0.543744
-0.380299
-0.225969
-0.319256
0.354942
0.25375
0.266154
-0.519886
-0.225561
-0.348354
-0.483341
0.1311
0.352535
-0.431857
0.259815
0.172447
-0.0355093
-0.283491
-0.255151
-0.252992
0.507945
-0.361679
-0.121395
0.189465
0.262389
-0.294197
0.532803
0.0374192
-0.201553
0.164262
-0.275499
0.499428
-0.313438
0.638428
0.218756
0.265726
-0.484521
0.174153
-0.541967
0.217739
0.272308
-0.192384
-0.0253148
0.217725
0.168625
0.256501
-0.594572
0.278769
0.315974
0.614201
-0.24986
0.0358097
-0.260579
0.313989
-0.528683
0.214963
0.48786
-0.318864
-0.418579
0.353828
0.176438
0.107837
0.0989788
-0.518005
-0.0682234
-0.130832
0.199097
-0.261496
-0.304776
0.566291
0.294083
-0.209361
-0.025243
0.234636
-0.530399
0.00460648
0.307034
-0.170239
-0.42941
0.581683
-0.152319
0.558197
-0.346213
0.494669
-0.276733
-0.112067
-0.29763
0.409656
0.402261
-0.0879992
-0.314001
-0.424939
-0.049801
0.441582
-0.273308
0.181143
-0.535262
0.354131
-0.146061
0.401817
-0.255623
0.468798
-0.145402
-0.323038
-0.0418919
0.59766
-0.364913
-0.232758
-0.398431
0.252444
0.322115
0.276903
-0.598904
0.369403
0.244837
0.573883
-0.277225
0.346394
0.324001
-0.263878
0.478169
-0.42945
-0.048479
-0.304242
0.487704
-0.183059
0.319589
-0.431571
0.351652
0.278497
-0.156842
0.455484
0.0228854
0.513116
-0.573764
0.283266
0.119234
0.371208
-0.2143
-0.551487
0.122058
0.429296
-0.243392
-0.121164
0.152529
-0.0313111
0.334706
0.557049
-0.612689
0.0556629
0.138354
-0.205518
0.309086
0.29137
-0.60044
0.531309
-0.230124
0.486865
-0.261923
-0.224674
-0.290787
-0.281534
-0.373005
0.593299
-0.220291
0.528914
-0.347747
0.283975
-0.177871
0.317185
-0.652212
0.312729
0.339388
0.223139
0.332418
0.347766
0.0160996
-0.3636
0.390599
-0.0426343
-0.194195
0.231783
-0.391635
0.322092
0.267701
-0.561522
0.300006
-0.0128123
-0.179536
-0.640549
0.606087
-0.318477
-0.287578
-0.454373
0.403022
-0.0772649
0.423988
-0.346404
-0.320638
-0.262649
0.583212
-0.598118
0.277455
0.451796
-0.233002
-0.571731
-0.178227
0.231553
0.140799
0.394833
0.136896
-0.343315
-0.280861
0.111311
0.172821
0.293956
0.250613
-0.544541
0.0511982
-0.230658
0.179485
0.0374586
-0.158521
0.226225
-0.505885
0.279806
-0.453319
-0.111922
0.123234
0.181466
-0.439754
-0.105026
-0.225295
0.261294
-0.502754
0.188908
0.313517
-0.259754
0.557833
0.203751
0.237482
-0.223702
0.561251
0.156745
-0.520157
-0.2614
-0.106445
0.315581
0.290536
0.547926
-0.324429
0.59867
-0.293702
-0.304934
0.512407
0.044691
-0.314205
-0.239219
0.55321
-0.447881
0.455536
-0.353346
-0.102169
0.363772
0.275864
-0.332665
-0.250029
0.582785
0.205593
-0.483092
0.277777
0.17812
0.129109
-0.540397
0.508545
-0.592328
-0.175749
0.386384
-0.197374
0.245898
-0.0483493
-0.247227
-0.247789
0.494775
-0.531558
-0.00239741
0.13085
0.329409
0.126207
-0.343697
0.269382
0.0746594
-0.589072
0.292848
0.296115
0.538023
-0.592567
0.0544065
-0.383904
0.655591
-0.271672
-0.176528
0.413982
-0.237035
-0.171922
-0.234678
0.406883
-0.221411
-0.199981
0.421632
0.470173
-0.204568
0.0673944
-0.607671
0.147155
0.332592
-0.479341
0.220518
-0.468733
0.24841
-0.427651
0.251992
-0.588852
0.34997
0.238284
0.196665
0.36287
-0.440834
0.263434
0.213958
-0.477545
0.310333
0.240711
-0.551021
0.285761
0.183406
-0.323537
-0.265637
-0.166586
-0.21039
0.245601
0.1839
0.0331459
0.331821
-0.364515
-0.346168
-0.267604
-0.175046
0.457384
-0.281761
-0.457786
0.291655
-0.238387
0.528473
-0.289718
0.144997
-0.528896
-0.012016
-0.185184
0.23742
-0.492841
0.633238
-0.440049
-0.193061
0.494076
-0.288431
-0.415868
0.301426
-0.234441
0.502223
-0.267428
-0.176851
0.427017
-0.249766
0.297483
0.267172
-0.384572
-0.415623
-0.100981
-0.444908
0.214251
-0.545099
0.33105
-0.173949
-0.333887
-0.25564
0.179666
0.113161
-0.292591
0.135341
-0.545396
0.344648
0.209565
-0.554142
0.377573
-0.344206
-0.365903
0.628295
-0.39005
0.297215
0.0932222
-0.0569225
-0.286436
0.0591275
-0.462805
0.403777
-0.262413
-0.28911
0.551693
0.0311259
-0.234924
-0.289987
0.559896
-0.26961
0.277268
-0.567755
0.565906
0.00200277
0.450171
0.183183
0.362565
-0.643884
0.281278
0.358415
-0.600702
0.242281
-0.227927
0.568004
-0.339661
-0.236995
-0.139751
0.40477
-0.264667
0.293159
0.215777
-0.508652
-0.00550533
0.544131
-0.538618
0.258028
-0.0454326
-0.212512
0.208891
0.175821
0.320336
0.428013
-0.413093
0.297981
0.282571
-0.580357
0.253527
0.00464702
-0.249394
0.476297
0.551204
-0.336895
0.279628
0.190282
-0.12216
0.415772
-0.293968
-0.295973
0.129976
0.166198
-0.0635369
0.451877
-0.388243
0.453499
-0.394318
0.497029
-0.0641079
0.000439331
0.50659
0.242117
0.237187
-0.479523
0.556229
0.00561791
-0.561835
-0.157699
0.265437
-0.453911
0.188011
-0.271867
-0.159449
0.431719
-0.273752
0.553155
-0.279468
0.218148
-0.537265
0.319149
-0.343706
-0.140392
0.272376
-0.446897
0.325836
-0.60253
0.139766
0.551726
-0.288199
-0.326999
0.261953
0.258984
0.338667
-0.294681
-0.136795
0.387528
-0.348182
0.655652
-0.356809
-0.315887
-0.29946
0.0179863
-0.531301
0.513764
0.588795
-0.243908
-0.146368
-0.11776
-0.550961
0.207258
0.302661
-0.576628
0.273852
-0.237712
0.491433
0.103592
0.161667
-0.541965
0.497394
-0.556427
0.0173321
0.539003
0.275789
0.100437
-0.375894
0.557544
-0.243282
-0.466539
0.0780411
0.388786
0.413293
0.24795
-0.0660616
-0.400325
-0.408744
-0.357988
-0.121703
0.530579
-0.312386
0.356887
-0.420394
-0.201637
0.135593
-0.355573
0.540233
-0.27369
-0.266506
0.208129
0.286725
0.330041
0.38581
0.235077
-0.451399
0.179968
0.271869
0.179343
-0.488904
-0.454308
0.0635768
0.390792
0.339334
0.200935
0.268013
0.381818
0.135508
-0.399083
0.276435
0.494388
-0.230154
-0.444086
0.223336
0.220646
-0.198528
0.474585
0.317159
0.265426
0.282698
-0.056318
-0.226353
0.24336
0.207159
-0.450764
-0.235369
-0.2642
0.49968
0.571616
-0.287243
-0.284598
-0.216596
-0.268428
0.484698
0.533886
-0.2399
0.632978
-0.269161
0.0154557
-0.212733
-0.231416
0.16184
0.23618
-0.212912
-0.435999
0.19195
-0.217285
-0.338803
-0.175195
0.514803
-0.261781
-0.189178
0.515016
-0.333636
0.445498
-0.213615
-0.546807
0.0864097
0.451474
0.240575
-0.25303
0.508933
-0.255979
-0.353197
0.300315
-0.413464
0.141947
0.482695
-0.21948
-0.527542
0.522036
0.560779
-0.0358819
-0.547194
0.254315
0.292635
-0.277751
0.580179
-0.302608
0.283061
0.235199
-0.51805
-0.426355
0.249975
-0.240071
0.376202
0.192221
-0.51505
-0.520319
0.27063
0.270777
0.279024
-0.550051
-0.484572
-0.119083
0.450343
0.307401
-0.1168
0.530921
0.320593
0.254757
-0.575689
0.500835
-0.118768
0.265995
-0.0893901
-0.337406
0.644098
-0.306691
0.489846
-0.20933
0.696058
-0.435573
-0.260897
0.130314
0.0851075
-0.215407
-0.116126
0.305911
-0.574407
0.423618
-0.0528618
-0.484697
0.291919
0.192776
0.256775
0.0340444
0.327892
0.173197
0.301717
0.269664
0.561626
-0.00109475
-0.5604
-0.49895
0.245814
0.176429
-0.520225
0.343807
0.584071
-0.28212
-0.139909
0.322665
-0.547053
0.407014
0.139912
0.240342
-0.606258
0.344005
0.261364
0.555105
-0.264291
-0.290811
0.291048
-0.141337
-0.125487
0.1262
-0.39341
-0.174291
0.567737
0.304648
0.260685
0.283671
0.319006
-0.602742
-0.571307
0.198324
0.31714
-0.536423
0.238737
-0.252854
0.529165
0.0998545
0.232743
0.241937
-0.513408
0.271597
0.0346603
-0.436535
0.401756
-0.473707
-0.128791
0.386842
-0.239398
0.497777
-0.270778
-0.3286
0.615486
-0.286879
-0.196324
-0.306752
0.173672
0.246743
-0.420613
-0.277248
0.134442
-0.395468
0.301575
-0.557031
0.255635
0.233328
0.272305
-0.506294
-0.47663
-0.0755468
-0.307833
0.383389
-0.480962
0.54948
-0.0662979
0.16235
-0.262879
-0.298999
0.561893
0.277417
-0.535395
0.258005
0.315466
-0.576941
-0.171458
0.493594
0.467765
-0.188386
-0.13313
-0.413975
0.486368
-0.278127
0.533447
-0.223101
0.29617
-0.374109
0.408787
-0.35882
0.210511
-0.326681
0.116548
-0.278466
0.286929
-0.261699
-0.351156
0.147608
0.367437
0.00873853
-0.417112
0.115346
0.167388
-0.543816
-0.347895
0.437859
-0.0892794
-0.28933
0.568294
-0.281852
-0.217885
-0.260544
-0.271902
0.463886
-0.460631
-0.550235
0.171732
0.378648
-0.399878
0.0476973
0.352474
0.310102
0.249716
-0.559763
0.161662
0.351889
-0.513521
-0.159163
0.312734
-0.153444
-0.347518
0.587848
0.327013
-0.584232
0.257209
-0.446375
-0.0320304
0.254193
0.232938
0.545324
-0.545861
-0.354959
-0.181523
-0.044829
-0.379689
0.424427
0.48009
-0.404907
-0.0492884
0.239085
-0.535283
0.29614
0.271253
-0.155901
-0.408278
0.236731
0.438964
0.256722
0.164015
0.36492
0.650511
-0.336325
-0.314126
0.571548
-0.291295
-0.280576
0.255597
-0.558081
0.302586
0.446839
-0.256812
-0.509974
0.160732
-0.00360511
0.438861
0.143258
0.172216
0.268639
-0.459327
0.191142
0.572241
-0.316522
0.174749
-0.409205
0.305341
0.220825
-0.526092
0.427815
-0.181089
0.375041
-0.164132
-0.346217
-0.432798
0.293207
-0.557423
0.264188
-0.319723
0.467827
-0.148417
-0.603584
0.167002
0.48155
0.101435
-0.583264
0.177638
-0.36122
0.183626
0.0383436
0.231418
0.217978
0.435176
0.208479
-0.471109
0.262521
0.355846
0.237452
-0.301851
0.593145
-0.274238
-0.281101
-0.277126
0.557977
-0.305913
0.260737
-0.598142
0.201818
0.311499
-0.513331
0.206573
-0.480921
0.274624
0.287864
0.311009
-0.598882
-0.205731
0.263266
-0.300724
0.608519
-0.307519
0.105786
-0.453081
0.593264
-0.272892
0.306603
-0.57369
0.266815
0.596346
-0.54077
0.217352
-0.268535
-0.216164
-0.0976151
-0.543014
0.228707
0.370139
-0.186534
-0.183205
-0.224008
0.238544
-0.0465935
-0.274377
-0.275047
0.549485
-0.16308
-0.168413
0.279824
0.325009
0.320171
0.330398
0.272607
-0.601177
0.576368
-0.249369
-0.360217
-0.223752
0.584262
0.453712
-0.191093
-0.262195
-0.250612
-0.178415
0.229607
0.536917
-0.228901
-0.307855
0.540181
-0.376137
0.318571
0.148942
-0.248097
0.525552
-0.144699
-0.321797
-0.337929
-0.0517468
0.214111
-0.491854
0.277808
0.413909
-0.357405
-0.0421958
0.172602
0.0171559
0.480763
-0.149895
0.234685
-0.288931
0.576777
0.637826
-0.270196
-0.367431
0.00407296
-0.350931
0.347181
-0.582632
0.169442
0.413189
0.303309
0.301166
-0.56233
0.261422
-0.462838
0.219856
0.243382
-0.0928332
-0.327611
0.28048
-0.628035
-0.308365
0.262963
-0.21998
-0.265732
0.485624
-0.116804
-0.204063
0.321182
-0.527188
0.51774
-0.356044
0.568017
-0.521809
-0.0462278
0.422994
-0.177226
0.293121
-0.499421
0.206249
0.591364
-0.297687
-0.524463
0.186386
0.295599
-0.572927
0.295253
-0.132046
0.0763398
0.0558169
0.255226
-0.268319
-0.214532
0.314205
-0.379392
-0.278051
-0.298963
0.576927
0.153573
0.117685
-0.246637
0.552021
-0.241868
-0.502159
0.327349
-0.613782
0.203753
0.286107
0.305102
-0.438991
-0.110113
-0.501479
0.179045
-0.447505
0.269198
-0.27666
0.471013
-0.201975
-0.620335
0.277022
0.343304
0.49964
0.229599
0.305096
-0.578488
0.273394
0.401664
-0.337524
0.280333
0.191082
0.274574
0.368176
-0.345426
0.025663
0.320026
-0.211431
-0.313896
0.439059
-0.124732
-0.352455
0.14274
-0.267773
0.447518
-0.551451
-0.271241
-0.0538429
0.204076
0.142505
-0.196345
0.278271
0.140155
0.274225
0.140231
0.150949
-0.111066
-0.0208652
0.0621631
0.157491
0.371843
-0.424905
0.0531061
0.144751
0.278321
-0.422653
0.538051
-0.232658
-0.241292
0.645642
-0.325438
-0.233786
-0.301949
0.535801
0.203838
0.126385
0.608802
-0.246329
-0.114182
0.290531
-0.176149
0.516268
-0.289777
-0.354105
0.278589
-0.443375
-0.298445
0.61741
0.568012
-0.196122
0.442033
-0.198778
0.297964
-0.501172
-0.259252
0.527698
-0.268178
-0.328277
0.55097
-0.222651
0.126179
0.191888
-0.317844
-0.60615
0.334265
0.272135
-0.340559
-0.209502
0.531986
-0.00763491
-0.52464
-0.284713
0.148227
0.136527
-0.265259
0.402418
-0.137251
-0.236951
0.5591
-0.322077
-0.627332
0.280467
0.346878
0.444878
0.111419
0.28156
0.191747
0.516983
-0.315227
0.192356
-0.266209
0.480326
-0.419453
-0.212425
0.449303
-0.236851
-0.000624803
-0.367449
0.255296
0.149841
-0.242819
0.145295
-0.384565
-0.101666
-0.183008
-0.150604
0.287366
-0.136626
-0.447228
0.118249
0.328768
0.283829
-0.155328
-0.128314
0.241163
0.513115
-0.262386
-0.250668
-0.42913
0.22806
0.201519
0.257353
-0.465557
0.0672829
0.329871
-0.203406
0.284124
-0.0772488
-0.206801
0.546957
-0.253774
0.488808
-0.258729
-0.0823391
-0.383048
-0.27362
0.580025
-0.184669
-0.264634
0.287718
0.28351
-0.250948
-0.0144459
0.106812
-0.561013
0.30055
0.449286
-0.304128
0.235026
-0.132866
0.33348
-0.200376
-0.333053
0.565407
-0.232418
0.285668
0.352363
0.198875
0.287615
-0.173404
0.176073
0.194429
-0.52932
-0.00194351
0.347423
-0.152636
-0.194466
-0.222004
-0.289621
0.511707
-0.266198
0.55766
-0.291315
-0.604936
0.28128
0.323736
0.326578
-0.134429
-0.27654
0.456952
-0.553565
0.265626
0.29959
0.255526
0.253297
0.259885
0.481997
-0.334387
-0.165811
-0.437839
0.306096
-0.186296
0.51153
-0.293884
-0.217668
0.2261
0.185436
-0.452755
-0.263431
0.594403
-0.330937
-0.364683
0.31051
-0.306141
-0.403719
0.199767
-0.285364
-0.286002
0.202762
0.25122
-0.45372
-0.272525
0.556112
-0.283369
-0.28523
0.573587
0.304021
0.230714
-0.534663
0.171736
-0.48603
0.290721
-0.556587
0.218659
-0.553727
0.33543
0.293439
0.200687
-0.225828
0.362535
-0.151001
-0.211699
0.278779
-0.559788
0.207838
-0.474037
0.151753
0.156895
-0.609641
0.275291
0.334362
-0.35349
0.405379
-0.051971
0.186402
-0.319074
0.292417
-0.577635
-0.544502
0.279793
-0.2895
-0.283875
0.573261
0.24815
-0.211857
-0.0680004
-0.514628
-0.296579
0.58436
-0.287868
0.248655
-0.55617
0.307577
0.31813
0.254215
-0.202632
-0.315052
0.559764
-0.24468
-0.579819
0.290357
-0.260008
-0.2244
0.484442
0.449897
-0.264069
-0.258383
-0.298416
-0.328904
-0.14701
0.184482
0.296488
-0.20512
0.498493
0.47596
-0.255844
-0.282492
-0.272669
0.4805
0.507946
0.0130227
-0.520546
-0.342045
-0.00312745
-0.361093
-0.165103
0.526049
-0.226458
-0.1611
-0.224741
0.385884
-0.172588
-0.280058
-0.255906
0.110343
-0.256663
-0.22638
0.398504
-0.56534
0.170329
-0.554544
0.291957
0.00100697
-0.230835
0.133711
0.290197
0.417347
-0.576681
0.15931
-0.128858
-0.58556
0.231361
0.354371
-0.185758
0.453239
-0.266963
-0.566595
0.205306
0.355959
0.558893
-0.310175
-0.248916
0.58374
-0.334547
-0.150363
-0.255889
0.464308
0.595599
-0.31013
-0.285068
-0.107059
-0.36069
0.468008
-0.174598
0.152582
0.552837
-0.135474
0.514701
0.25049
-0.610336
-0.146617
0.439565
-0.292711
-0.186271
0.248581
-0.114398
-0.442111
0.199886
-0.399641
0.29525
0.256655
-0.551926
0.60342
0.552345
0.452623
0.227511
-0.574231
0.346714
0.247086
-0.204623
-0.0422213
-0.128167
0.253008
-0.124752
0.228465
0.339915
-0.326238
0.520502
-0.237258
-0.55899
0.315905
0.243186
-0.211366
0.430704
-0.237553
0.576123
-0.277951
-0.291809
0.591126
-0.299418
-0.281034
0.193512
0.258859
0.129809
0.438193
0.174916
0.248262
0.00249746
0.241732
-0.585968
0.344251
-0.240745
-0.292117
0.491108
0.599526
-0.35774
0.253291
0.305668
0.551159
-0.280337
-0.270898
0.317494
-0.604204
0.286758
0.440936
-0.149564
-0.291009
0.144249
0.218123
0.232815
0.0513704
0.329433
-0.382063
0.181375
-0.458472
0.277651
-0.573182
0.295038
0.243072
-0.100437
-0.0887941
0.418601
0.066654
0.378643
-0.445344
-0.212739
0.251489
0.261437
-0.383183
0.292461
0.516494
0.0136929
-0.530163
0.282472
0.268611
0.432181
-0.31415
-0.553208
0.224949
-0.32937
0.544771
-0.215131
0.325807
0.380275
-0.223998
0.0625478
0.184776
0.276297
-0.593504
0.317375
-0.249618
0.595323
-0.345657
0.303067
0.349958
0.347259
0.639251
-0.529569
0.521913
0.323701
0.250954
-0.574623
0.312256
0.232433
-0.544053
0.296378
-0.563166
0.266737
-0.232719
-0.161765
-0.414934
0.146098
-0.18654
0.45405
-0.267289
0.0683219
-0.293462
-0.281321
0.516598
-0.593802
0.282218
0.312176
-0.17322
-0.230552
-0.385983
0.452584
0.152262
0.289037
0.0839478
0.317988
0.490616
-0.197076
0.238383
0.293603
-0.532027
-0.387252
-0.169617
0.00260446
0.211638
-0.214116
-0.106339
0.258272
-0.476077
0.2559
-0.663798
-0.589615
0.358
0.231678
-0.497729
0.244287
0.253583
-0.539307
-0.594456
0.35183
0.242726
-0.254788
-0.227518
0.480695
-0.253011
0.598755
-0.316318
-0.110652
0.417041
0.311328
-0.196479
-0.610653
0.267342
0.343308
-0.254173
-0.345938
0.600333
-0.0580339
-0.117051
0.283996
-0.166865
0.270197
0.328521
-0.59582
0.30315
0.292371
0.287957
-0.475101
0.187142
-0.358217
-0.236133
-0.30935
0.177523
0.132061
-0.537799
0.296965
0.241437
0.434566
-0.223836
-0.231961
0.394241
0.309714
0.274568
-0.328954
0.552188
-0.223217
0.260427
-0.131005
0.263759
-0.322305
0.422966
0.426983
-0.140882
0.536423
-0.250197
-0.286125
-0.303304
-0.0806535
-0.20092
-0.384644
0.546804
-0.250555
-0.583303
0.168388
0.354645
-0.523004
0.188268
0.239089
-0.559558
0.388363
0.171142
-0.117208
0.463584
-0.331169
-0.135591
0.348901
-0.164021
-0.184538
-0.523299
-0.211538
0.388101
0.278006
-0.573928
0.296183
0.238266
-0.205147
0.485769
0.268045
0.184736
-0.452442
0.291973
0.198731
0.312052
0.26232
-0.574298
0.178293
0.112449
-0.371085
0.57901
0.562297
-0.286155
0.265954
-0.538352
0.583958
-0.20969
-0.37406
-0.242546
0.528971
-0.28632
-0.390806
0.163973
0.226898
-0.267526
0.560379
-0.292651
0.176109
-0.46078
0.284655
-0.000630909
0.607467
-0.606064
0.184128
0.096681
-0.255834
0.572697
-0.316904
0.26933
0.28848
0.310658
0.257111
-0.567763
0.239101
0.300574
-0.539678
0.190316
0.157416
0.138787
-0.563741
-0.324907
0.554163
-0.25889
-0.23292
0.537012
-0.559816
0.322956
-0.460526
0.185685
-0.340456
0.272304
0.179599
-0.451726
0.204267
-0.476851
-0.0156658
0.523824
-0.262319
-0.129416
0.277713
0.137227
-0.54495
0.407732
-0.476415
0.156602
0.154851
-0.584261
0.361635
0.222678
-0.348364
-0.293228
-0.299427
-0.30461
0.604099
0.28464
-0.394022
0.266304
0.191684
0.313576
0.245598
-0.563316
0.312059
0.251294
-0.00268206
0.550481
-0.54788
-0.297209
0.591082
-0.293902
-0.274884
0.479391
-0.197211
0.415226
-0.217768
0.428001
0.124847
-0.28538
-0.237724
0.290374
-0.55767
-0.442813
-0.130948
0.615746
-0.284285
-0.331131
0.542625
-0.230515
0.163793
0.312429
-0.361185
-0.224207
0.205863
-0.320742
-0.61811
0.250883
0.367228
-0.477562
-0.356741
-0.252884
0.277216
-0.0698222
-0.367631
0.587579
-0.219792
-0.289023
-0.0972091
-0.52052
0.520233
0.296761
-0.566136
0.269438
-0.118673
0.272273
-0.154556
-0.204353
-0.295156
-0.312272
0.131287
0.181196
0.224651
0.258573
-0.215506
0.372033
-0.286346
0.564235
-0.0550274
0.562304
0.261832
0.237951
0.172901
0.111118
-0.254979
0.451404
0.234715
0.267823
-0.165829
0.273478
0.279115
-0.552649
-0.518831
0.276022
0.516096
-0.392746
-0.123307
0.463414
-0.199238
-0.264152
0.267662
0.327819
-0.595543
0.602945
-0.192446
0.189356
-0.425501
0.236235
0.219701
-0.380787
0.198186
0.252643
-0.569824
0.317165
-0.278805
0.602878
-0.335173
-0.227768
-0.461853
0.411195
-0.211054
0.538278
-0.250329
-0.289982
0.202922
0.0345558
-0.237326
0.223798
0.19168
-0.242535
-0.110697
-0.153756
-0.276463
0.572076
-0.27956
-0.344692
0.624585
-0.608598
0.275444
0.333132
0.123185
0.575038
-0.269456
-0.306206
-0.418305
0.19541
0.552857
-0.29115
0.582326
-0.291212
-0.256257
-0.610993
0.267256
0.343754
-0.572366
0.274799
0.297398
0.403313
-0.579509
0.176222
-0.286142
-0.261096
0.547192
-0.275226
0.40879
-0.17608
0.220792
-0.625203
0.254856
-0.592694
0.337836
0.197074
0.136646
0.310058
0.12366
0.30449
0.26994
-0.280344
0.576064
-0.295352
-0.260605
0.597806
-0.337152
0.0199696
-0.1984
-0.122846
-0.19479
-0.508553
0.0925092
0.29373
-0.573878
0.273911
0.418304
0.195594
0.134571
0.583726
-0.200347
0.498342
-0.297909
-0.311399
0.564716
0.594188
-0.339275
0.557528
-0.224943
-0.36655
-0.30908
-0.287035
0.42913
-0.239704
0.517147
-0.293192
-0.224499
0.574931
-0.296445
-0.257174
-0.320474
0.577605
0.23678
-0.456175
0.219644
0.291255
-0.580149
0.300758
-0.0470307
-0.253602
-0.0713114
-0.580628
0.275836
0.269916
0.29986
-0.570485
0.28422
0.262706
0.259344
-0.0798214
0.313204
0.255691
-0.568834
0.143921
0.187333
-0.330993
-0.530007
0.529729
-0.000136932
0.298418
-0.582345
-0.205019
0.506702
-0.301943
-0.257437
0.0624636
0.381268
0.140175
-0.480538
0.209956
-0.318565
0.556417
-0.237837
-0.141854
0.247853
-0.105913
-0.280561
0.515579
-0.329429
0.129349
0.146955
0.36919
0.367315
-0.204336
-0.162951
0.222777
-0.00439202
0.518959
0.208478
0.611163
0.133542
0.1933
0.158154
0.0967151
-0.254745
-0.350766
0.283402
0.290369
-0.573885
0.261243
0.202195
0.395396
-0.133879
-0.332058
0.128854
0.10129
0.515984
-0.52029
0.58927
-0.35775
-0.23361
0.514807
-0.281059
0.568475
-0.315826
0.222085
-0.153589
0.304042
-0.17473
0.314628
-0.578042
-0.243772
0.606053
-0.35732
-0.248743
-0.189721
-0.264696
0.446569
0.386166
-0.618298
0.232185
-0.301955
-0.303945
0.281941
-0.157718
0.285943
-0.128147
0.461487
0.0174821
-0.47883
-0.281684
-0.482373
0.107315
0.342709
0.217107
0.0837906
-0.276232
-0.181695
0.283942
0.287007
-0.571146
-0.402237
0.154781
-0.282443
0.49653
-0.214168
-0.530762
0.2413
0.289601
-0.294889
-0.277637
-0.197334
-0.219857
-0.364352
-0.0776958
0.216113
-0.18275
0.245525
-0.0639291
0.299006
-0.504318
0.172904
0.195863
0.233334
-0.280556
0.553617
-0.544636
0.229562
-0.469964
0.534071
-0.06408
0.135472
0.110612
-0.390813
0.164695
0.36152
-0.17092
-0.235752
0.227634
0.158938
0.20288
0.565205
-0.273883
-0.558372