/*--------------------------------*- C++ -*----------------------------------*\
| =========                 |                                                 |
| \\      /  F ield         | OpenFOAM: The Open Source CFD Toolbox           |
|  \\    /   O peration     | Version:  v2012                                 |
|   \\  /    A nd           | Website:  www.openfoam.com                      |
|    \\/     M anipulation  |                                                 |
\*---------------------------------------------------------------------------*/
FoamFile
{
    version     2.0;
    format      ascii;
    class       volVectorField;
    location    "800";
    object      ddtCorrDdt0(U);
}
// * * * * * * * * * * * * * * * * * * * * * * * * * * * * * * * * * * * * * //

dimensions      [0 1 -2 0 0 0 0];


internalField   nonuniform List<vector> 
9793
(
(-0.0702518 -0.04372 8.65514e-19)
(0.0053791 0.106557 -1.53135e-19)
(-0.0798994 -0.0362103 -5.79182e-18)
(7.96258e-05 -3.40732e-05 1.1506e-20)
(-0.0100726 -0.397615 -5.04546e-19)
(0.0042657 -0.00112066 3.52377e-19)
(5.6913e-05 -1.11824e-05 6.52014e-19)
(0.00015216 -7.29535e-05 9.53339e-19)
(0.000497556 -0.000652042 2.69357e-19)
(-0.000434748 -0.350282 3.98434e-18)
(0.0289618 -0.0197844 3.52843e-19)
(0.060694 -0.0445896 8.47089e-19)
(7.59137e-05 -2.8275e-05 1.36184e-19)
(-0.000696125 -0.00118441 -8.12704e-19)
(2.85887e-05 4.31366e-07 1.71836e-19)
(-0.000892811 -0.000789698 -7.68749e-19)
(0.00228315 -0.000856455 -4.63138e-19)
(0.00279478 -0.00109897 -1.22946e-18)
(-0.0800884 0.00807779 1.78132e-18)
(-0.000947464 -0.0010239 4.3244e-19)
(0.0708141 0.0303646 3.00691e-19)
(-0.00482889 0.000875985 1.6849e-19)
(-0.0412767 0.0565433 -7.82633e-19)
(0.000182787 0.000169194 -1.52035e-20)
(-0.00204601 0.00206133 -4.44899e-19)
(7.61734e-05 -2.60158e-05 1.72223e-19)
(-0.00144043 -0.000269549 6.3849e-20)
(0.00108643 0.000476226 -1.34103e-19)
(0.00361687 -0.0310976 1.02777e-19)
(0.000493876 -0.000634776 -3.02489e-19)
(0.014929 -0.0151141 2.26554e-18)
(-0.0331612 0.0519546 -5.459e-20)
(-0.00357751 0.16233 1.35457e-17)
(1.32635e-05 3.51653e-06 -9.44796e-19)
(-0.000163551 -0.0361467 -1.97165e-19)
(0.118379 0.0370399 3.65838e-18)
(6.10991e-05 -7.30764e-06 -1.37631e-18)
(-0.00464319 0.00149434 -5.16046e-19)
(0.000286861 -9.8582e-05 -9.21644e-19)
(3.52866e-05 -1.50377e-05 2.25264e-19)
(0.0126236 -0.0156299 -3.40227e-18)
(4.53475e-05 5.09369e-07 -1.55452e-18)
(7.53371e-05 -1.41757e-05 6.85905e-19)
(4.55055e-05 -1.29945e-05 1.26378e-18)
(8.22296e-05 -9.4802e-06 -1.26084e-18)
(7.06963e-05 -1.67183e-05 -4.91012e-19)
(0.00418941 -0.0334633 -6.57126e-20)
(0.0292108 -0.0142846 -8.44503e-20)
(-0.0312113 -0.0458565 1.76065e-18)
(7.67184e-05 -4.22143e-05 3.99537e-19)
(-0.000273885 -0.0387668 -5.94277e-19)
(0.0280372 -0.0276466 -3.2392e-18)
(0.0046293 0.00106124 7.15845e-19)
(-0.000301262 -0.000709909 -7.06517e-19)
(0.0348599 -0.0836297 4.96808e-18)
(0.0906792 -0.0297124 -1.126e-18)
(0.000253749 -0.0001685 5.83101e-20)
(0.0527146 -0.00908161 2.80947e-18)
(-0.0887086 -0.0352501 -3.08313e-19)
(0.000253035 -0.000110923 1.07304e-18)
(1.50862e-05 -1.0229e-05 -7.1756e-20)
(0.00348876 0.00303809 -8.105e-19)
(-0.0783845 -0.0819408 -6.14729e-19)
(0.00013645 2.31469e-06 -6.60171e-19)
(0.129379 -0.185632 1.47578e-18)
(-0.00991073 0.1058 6.3115e-18)
(-0.0793004 -0.0568124 4.49153e-19)
(-0.0612004 -0.0466369 4.24516e-19)
(0.0520568 -0.0453019 -1.27933e-18)
(0.0263743 -0.0209798 -1.04159e-18)
(0.0292245 -0.0896797 -3.71217e-18)
(4.86132e-06 4.81816e-06 6.52767e-21)
(0.000253529 -0.000225495 -7.91749e-19)
(-0.0035599 0.0521028 3.91968e-19)
(-0.00331103 -0.0434197 7.84874e-20)
(-0.0997811 -0.00548379 5.02198e-19)
(0.000242305 -0.000208519 -1.78644e-20)
(0.00100008 0.00153377 -7.62647e-20)
(-0.00163323 0.00206371 1.48674e-18)
(0.00088815 0.00121714 -1.396e-18)
(-0.0265293 0.10328 -5.66414e-19)
(-0.00232134 0.000589853 -8.73574e-19)
(0.00342403 0.113937 -1.19933e-18)
(0.0176245 0.00778384 2.84932e-19)
(0.0111594 -0.0123176 -1.08302e-18)
(0.028374 -0.00235358 -1.93867e-19)
(0.00117617 0.00144362 -4.75759e-19)
(0.00021801 -0.000236384 1.86901e-19)
(0.00272207 0.00213018 3.35431e-19)
(-0.00262259 -0.000890739 -1.92484e-18)
(-0.000490343 0.115771 -3.33149e-18)
(0.15128 -0.0469511 -1.39162e-19)
(-0.000347359 0.000404909 -1.17935e-18)
(-0.0213801 0.057019 -3.11164e-19)
(0.00289181 0.00278192 5.09313e-19)
(0.0160691 0.011567 -4.71125e-19)
(0.0931807 -0.0213376 -7.90593e-19)
(0.00239751 0.117365 1.01252e-18)
(-0.000299481 0.00031164 5.346e-20)
(0.000150576 0.000310579 6.52163e-19)
(0.000184218 0.000271015 -1.01197e-18)
(-0.000704088 -0.00211047 1.84923e-20)
(-2.67444e-05 -0.000340794 -4.66392e-19)
(-4.60169e-06 -0.00029628 -5.14823e-19)
(0.000699665 0.00139673 6.44473e-20)
(0.00905952 -0.0123239 1.68715e-18)
(0.00224656 0.00205554 1.74664e-19)
(4.88562e-05 1.81e-06 -1.72744e-19)
(0.00390816 0.00105012 2.47648e-20)
(0.0387978 -0.0251651 -3.79415e-19)
(2.75221e-06 3.84565e-06 -4.20567e-21)
(0.0684462 -0.00486339 6.10188e-20)
(0.000223504 -0.000114178 -5.59816e-20)
(0.134521 -0.0653957 -2.00332e-18)
(0.0261687 -0.0306955 -7.25064e-19)
(0.000263544 -0.000199373 2.5696e-20)
(0.0354908 0.115557 5.92439e-18)
(-0.00781248 -0.0427201 2.16867e-18)
(-0.00285181 0.00093032 2.81271e-19)
(-0.0139207 0.0507358 -1.11775e-20)
(0.0419971 -0.0235742 4.00257e-19)
(1.98759e-05 1.32443e-06 4.74157e-20)
(4.25888e-05 -4.92827e-05 4.47063e-20)
(0.00481759 -0.00166164 8.89212e-19)
(-0.000663103 -0.00159198 1.43731e-18)
(0.0700354 0.0209702 -3.35357e-20)
(0.0193249 -0.0029516 1.4791e-18)
(0.0287868 0.00256597 -5.28422e-19)
(-0.00188344 0.00269934 -1.66755e-18)
(0.000203191 5.35631e-06 -4.16007e-20)
(7.69709e-07 -1.64408e-07 1.80811e-19)
(0.000237944 -0.000234744 2.55984e-19)
(0.00021191 4.13296e-06 -1.02479e-19)
(0.00122564 -0.00205084 9.55146e-20)
(0.000433072 -0.00054559 -3.81727e-19)
(0.000187916 -0.000261573 -1.1315e-19)
(0.000136431 4.95655e-06 3.32608e-19)
(3.92148e-05 -1.29964e-05 4.75801e-19)
(0.000208437 -0.000108557 3.12499e-20)
(7.4114e-06 3.42424e-05 2.42599e-19)
(4.52092e-05 -2.95323e-05 -1.2711e-19)
(-0.00119008 0.00227015 -2.2952e-18)
(7.49892e-05 9.87553e-06 -1.1425e-18)
(0.000413505 0.000135516 1.8599e-19)
(-0.000673582 -0.00146855 3.97967e-19)
(-0.000942936 -0.00216962 -1.21179e-18)
(0.0210005 0.0356589 -1.79029e-19)
(0.000399993 0.000220015 1.2294e-19)
(-0.00032197 5.48583e-05 -1.7541e-19)
(0.131448 -0.0591863 1.01372e-18)
(-0.0457087 0.108712 -2.39865e-18)
(-3.77414e-07 -1.9921e-06 -2.2224e-20)
(-0.0891994 0.0579183 6.07208e-19)
(-0.0422661 -0.339084 -2.10088e-18)
(-0.000268146 2.08636e-05 -1.42297e-18)
(6.90202e-06 -1.42656e-06 -3.35862e-20)
(2.99952e-05 9.53098e-06 2.93767e-19)
(-0.000824326 0.00209527 9.76171e-19)
(0.000293148 0.000232119 -6.68641e-19)
(7.97288e-05 9.78365e-06 8.05568e-19)
(0.00016441 -9.12826e-05 9.78601e-19)
(0.00115864 0.000228782 -7.52644e-20)
(-0.000813852 0.000156096 -3.21037e-19)
(-0.124441 0.0775714 -2.88683e-18)
(0.00939049 0.0551716 -5.09015e-19)
(0.0873751 0.0367189 2.11141e-19)
(0.032005 -0.00691797 -3.72927e-19)
(-0.00740133 -0.00825549 6.3421e-20)
(-0.00122898 -8.47431e-05 -2.924e-20)
(-0.000334776 -0.00126325 3.30879e-20)
(-0.000307241 -0.000712474 -1.1394e-18)
(-0.00683176 -0.24552 -3.62596e-18)
(0.0120204 0.0614605 -1.71778e-19)
(0.0121804 -0.228985 1.80011e-18)
(-0.000330187 -0.00151702 8.01372e-19)
(-0.104687 0.0310587 -5.64451e-19)
(0.0002132 -0.000262561 -2.80395e-19)
(6.29213e-05 0.000156757 -4.1549e-20)
(0.000260688 -7.71794e-06 -3.3433e-19)
(0.00401785 -0.0119058 -5.22258e-18)
(0.159821 0.00654599 3.6663e-18)
(0.00181882 -0.00220634 -4.72119e-19)
(0.000262783 0.000296945 -1.45374e-20)
(-0.00159943 0.00194455 -4.8143e-20)
(-0.0648147 0.0180119 -1.35919e-18)
(0.000226832 -0.000223591 9.84717e-20)
(0.0566806 -0.0100822 3.93068e-18)
(0.000262202 -3.90161e-05 3.21252e-19)
(2.70884e-05 3.92993e-05 4.89371e-20)
(-0.000819326 -5.74673e-05 -2.47416e-19)
(-0.000177497 -0.00160056 -7.68555e-21)
(0.000134823 -4.4621e-05 2.03042e-19)
(-0.0381923 -0.037718 -1.90189e-18)
(0.0693802 0.00270017 -2.03103e-19)
(-0.0644944 -0.0627841 -4.8742e-19)
(0.00378416 -0.0111432 -2.97286e-18)
(-0.0748087 -0.0498432 -2.88997e-18)
(-0.000914471 -0.000573955 1.94858e-18)
(-0.118497 -0.389714 1.83392e-18)
(1.09312e-05 3.11297e-05 1.69444e-19)
(0.000422974 -0.000520856 4.60921e-19)
(-0.159508 0.158508 -8.91636e-18)
(0.100502 -0.0428286 3.36439e-18)
(0.000187618 3.08461e-05 -1.8114e-19)
(0.000176144 -0.000288593 1.0157e-19)
(0.000698657 0.00103841 4.9749e-20)
(0.102105 0.0249762 -4.42286e-19)
(9.44788e-05 -0.000697912 1.45913e-19)
(0.00806588 -0.00974732 -1.79814e-19)
(-0.000807945 -0.00312854 7.25588e-19)
(0.00016003 -0.0175461 1.34922e-19)
(-0.038058 -0.0288999 1.31787e-18)
(-0.0285705 -0.0571882 -1.94881e-18)
(-0.000287825 -0.000826023 3.93749e-19)
(-0.0756235 -0.0569319 -6.88184e-19)
(3.32219e-05 7.83862e-06 -5.81271e-19)
(0.000307761 -0.00148187 2.69524e-18)
(-0.0711538 -0.00270145 -1.77763e-18)
(0.000488432 0.000952162 -4.02419e-20)
(0.0279934 -0.218914 5.36568e-19)
(-0.025682 -0.0545153 -2.02121e-18)
(0.000104466 -0.000162814 5.19667e-20)
(-0.000487482 -0.00169728 -1.06051e-18)
(0.000140339 -3.84573e-05 -1.6915e-19)
(0.0221456 0.00755385 -3.46967e-19)
(-0.147468 0.104019 3.01703e-18)
(0.00434072 -0.00036798 9.802e-20)
(-0.000221002 -8.1947e-05 6.2877e-19)
(-0.0186017 -0.0552716 -3.3997e-18)
(0.0206995 -0.021947 -2.28649e-18)
(0.000181289 0.000241699 -1.22224e-20)
(0.000129525 0.00017574 -1.10612e-20)
(0.00206188 -0.00226124 6.99945e-20)
(1.69399e-05 2.38871e-05 6.24557e-20)
(0.0233318 -0.00787967 -8.31816e-19)
(0.010031 -0.197889 1.017e-18)
(0.000186033 -0.000107431 -8.05392e-21)
(-0.000231416 -0.000429745 1.02081e-18)
(0.0842537 -0.0171095 3.43345e-19)
(-0.00139974 -0.00122724 -3.66209e-19)
(0.00643562 -0.00968044 -4.10708e-19)
(-0.000182942 -0.00128032 1.44297e-18)
(-0.000306389 -0.000168232 -1.03111e-19)
(-0.0114821 0.141783 -1.15247e-17)
(-0.000152432 -0.000326461 3.44763e-19)
(-0.000298118 0.000154749 -2.77211e-19)
(0.000138434 -8.47266e-05 -1.05757e-18)
(-0.000388213 0.00223785 -1.54913e-19)
(-0.000350468 0.000212171 1.80642e-19)
(1.08039e-05 4.87416e-06 9.58474e-19)
(-0.00097793 0.000613199 4.72004e-20)
(-4.51387e-05 -0.00684936 -1.60763e-19)
(0.0223452 -0.0302136 3.56996e-19)
(0.0213012 -0.00530877 -2.14917e-18)
(-0.000181667 -7.23715e-05 1.1376e-18)
(-0.00510358 0.00432053 6.67417e-19)
(-8.30501e-05 -0.000691632 -1.20049e-18)
(-0.00021574 -0.007483 6.17128e-19)
(0.0022769 -0.00441219 1.82984e-18)
(0.000209276 -0.000500896 3.20419e-20)
(0.0563887 -0.0197057 4.14851e-18)
(-0.000152175 -0.000400834 -1.41573e-18)
(0.0199745 -0.0330379 -2.81397e-18)
(-4.28275e-07 -5.85164e-06 3.30905e-19)
(-0.0073274 -0.00952535 1.37147e-19)
(0.000375291 0.000497695 1.36459e-20)
(0.000269803 0.00047563 4.07506e-22)
(-0.00157732 -0.0177469 3.70494e-19)
(-0.152212 0.184808 7.18097e-18)
(0.00201437 0.00141176 -7.51526e-19)
(0.000299505 -0.000439851 1.30789e-19)
(-0.000273122 -1.07979e-05 -7.26332e-20)
(-0.0126793 0.00201888 8.82021e-19)
(0.00013516 -0.000201137 6.24428e-21)
(-0.00114327 0.104497 1.31106e-18)
(0.00439628 0.0985381 -1.42953e-18)
(0.000195356 3.21516e-05 -5.02272e-19)
(0.0784616 0.0051861 -2.71495e-19)
(0.000124116 -1.2563e-05 -3.33086e-19)
(0.0210835 -0.00332671 -1.80544e-18)
(-0.000136971 0.00198809 8.72941e-19)
(0.000160372 0.000328098 6.51132e-20)
(4.31859e-05 3.35796e-06 -7.79925e-19)
(2.90961e-05 -1.69713e-05 5.39591e-19)
(0.0186506 -0.00146165 -1.90396e-18)
(9.56695e-05 -0.000149466 5.22748e-20)
(-0.000895228 0.000756391 -4.11119e-21)
(-0.00445258 -0.00916667 -2.25592e-19)
(7.3684e-05 -1.58057e-05 1.443e-18)
(0.000147349 -0.000280085 1.63287e-19)
(0.000193688 -0.00011215 7.22117e-20)
(0.0235707 0.130446 -2.97026e-18)
(0.00298616 0.000587048 -3.34261e-19)
(5.29738e-05 -7.49868e-06 -1.19465e-18)
(3.58307e-06 -1.78454e-06 3.1775e-20)
(0.000854201 -0.00230749 8.82774e-19)
(-0.00151321 -0.00152417 4.08219e-19)
(-0.00467209 -0.00978884 -3.97429e-19)
(0.000130452 8.32172e-06 5.15587e-20)
(-0.0888958 0.216055 2.1461e-17)
(-0.000268074 -7.12881e-05 -3.57784e-19)
(-0.063789 0.017969 2.91458e-18)
(0.0259624 0.137608 7.78004e-18)
(4.85514e-05 7.83261e-07 1.98451e-19)
(1.99177e-05 -7.48023e-07 2.24025e-19)
(0.000441859 -0.000115529 1.33996e-18)
(-0.014223 0.00249442 -3.60775e-19)
(-0.00690218 -0.0040659 3.89352e-23)
(0.000374535 0.0017141 8.51601e-19)
(-0.0608914 0.0376288 -2.16382e-18)
(0.000126429 -1.44836e-05 6.77981e-20)
(0.000395292 -0.000190993 2.48461e-19)
(-0.00757219 -0.00383303 -2.41882e-20)
(-0.000738563 0.00151723 2.55841e-20)
(-0.000530143 0.000128196 3.04761e-20)
(-0.00206125 -0.000873603 4.54279e-19)
(0.0232257 0.00355618 1.16454e-18)
(-0.000403109 0.000388119 6.00598e-19)
(-0.0109665 -0.000201349 -5.297e-19)
(-0.000580303 -0.00346785 -1.84614e-18)
(-0.00017093 0.000242283 -7.01689e-19)
(-0.000241443 0.0599365 5.56013e-19)
(-0.0967958 -0.0270449 -8.39284e-19)
(0.0018947 0.0449764 1.32868e-21)
(0.000398976 0.000763632 5.09771e-22)
(0.141366 0.00267972 -2.17287e-19)
(-0.00203592 -0.00135363 2.26353e-19)
(-0.0835301 -0.109783 2.36647e-18)
(-0.00952627 -0.0488339 -7.01489e-19)
(-0.000454925 0.000169027 -5.60064e-19)
(0.00392792 -0.00218283 2.18976e-18)
(-0.0146387 -0.0483886 2.54968e-18)
(-0.000451377 -0.00178208 -1.73165e-18)
(0.00582183 -0.00768145 1.35925e-18)
(0.0328299 -0.0248587 -2.97916e-20)
(0.000112057 -0.000113828 -6.54666e-19)
(6.71885e-05 -1.07484e-05 -6.63572e-20)
(0.000382411 -0.000485643 2.16151e-19)
(2.85264e-05 4.36595e-06 -2.48332e-19)
(0.00114695 0.00069106 -4.55554e-19)
(-0.0740298 -0.0527023 4.14844e-18)
(0.000282619 -6.36059e-05 1.52396e-19)
(-0.000146034 0.000187426 6.37055e-19)
(-0.0795839 0.285162 -2.62433e-17)
(-0.00112162 -0.00149143 2.6846e-18)
(-0.00102861 -0.000582808 -7.20063e-19)
(0.000483208 0.000648737 3.0647e-20)
(-0.00300222 0.000257774 3.72562e-20)
(0.00012746 -0.000113181 -1.47145e-18)
(-0.0627249 -0.0574199 -3.84321e-18)
(-0.00105061 -0.00160689 -1.19554e-19)
(-5.90193e-05 -7.51523e-05 -1.22194e-20)
(-0.000377548 0.00111027 1.69157e-19)
(-0.00111252 -0.00193661 -2.63886e-19)
(-0.031812 -0.171474 2.77467e-19)
(-0.000209397 -0.000670398 -1.46706e-20)
(0.00459701 0.0218655 -1.38976e-18)
(9.55609e-05 0.000191735 -4.44231e-20)
(0.0096383 -0.0207369 -2.09315e-18)
(0.0314487 -0.104895 4.10811e-18)
(0.0570261 -0.0154716 1.54409e-17)
(0.0108475 -0.0218058 8.54098e-20)
(-0.00272693 0.000497972 -2.45689e-20)
(0.00191258 -0.00281805 2.64657e-18)
(-0.0858127 -0.0524263 -2.97774e-19)
(1.9358e-05 -1.00765e-05 1.36671e-18)
(0.0588507 -0.010501 -1.01045e-18)
(-0.00180744 -0.000489142 9.9493e-19)
(2.22411e-05 2.24958e-05 5.91322e-19)
(0.0390017 0.110258 -5.675e-18)
(0.00459379 -0.00751347 -2.95724e-19)
(-0.0913033 -0.0278354 -9.16738e-19)
(-5.37152e-05 -9.06463e-05 2.21545e-20)
(0.0250784 -0.00865616 5.07644e-18)
(0.10223 0.0731477 -2.58259e-18)
(-0.0047799 -0.00187502 1.00842e-18)
(0.000194721 -0.000193046 9.97842e-19)
(0.0142806 0.153164 3.87803e-18)
(0.00482275 -0.00763052 -2.31767e-19)
(0.0152457 0.0444217 -2.78659e-19)
(-0.00558241 0.0035602 -2.19554e-19)
(-5.48453e-05 -0.000661417 -7.86946e-19)
(-0.0511073 0.00505732 7.07022e-18)
(0.000130127 8.77538e-06 -2.17137e-19)
(-0.00260187 -0.00104274 -1.82377e-19)
(-7.29528e-06 1.1997e-06 -4.05491e-20)
(3.716e-05 -9.47439e-06 -2.35317e-19)
(-0.00135541 -0.000579745 -4.927e-19)
(-0.000115699 -0.000728279 -9.37305e-20)
(-0.00496375 0.00277596 2.10259e-19)
(-0.0252366 -0.186518 -2.04708e-18)
(-6.46368e-05 -0.00131366 -1.24963e-18)
(0.103433 -0.0879319 1.65472e-18)
(0.0148003 0.06436 -5.21631e-19)
(-0.0940722 -0.0373868 1.00472e-18)
(0.0216355 -0.0195332 -1.17917e-18)
(0.00974721 0.0273721 3.05605e-20)
(-3.9026e-06 -9.56723e-06 -6.5318e-19)
(0.0003851 -0.000449633 -3.68432e-20)
(0.0203973 -0.118611 8.90182e-20)
(0.0243969 0.0560581 -5.74868e-19)
(6.56642e-05 -0.00128218 9.19942e-19)
(0.00105868 -0.00120627 1.87156e-18)
(-0.0833278 0.39509 -4.16036e-17)
(-0.00026434 6.79431e-05 2.85837e-19)
(0.13984 -0.0249898 5.55746e-18)
(-0.000227194 -0.000521277 -7.85965e-19)
(-0.00526121 0.00208156 -8.70632e-20)
(-0.000217373 9.22e-05 -2.33502e-19)
(-0.00427532 -0.0202483 1.74657e-19)
(0.000280386 -9.37522e-05 -2.18296e-19)
(0.00516805 -0.00838995 -3.15783e-18)
(0.0809496 0.0131292 4.10849e-19)
(0.000212722 -0.000659113 1.30506e-18)
(-0.0504597 0.0486281 -1.77305e-19)
(0.00416447 0.00599515 -6.24653e-19)
(-0.00129817 -0.00174085 -3.4693e-19)
(0.00304192 0.00677932 7.4194e-19)
(-0.00145275 -0.000545361 -1.35331e-18)
(0.00194808 0.00175777 7.84218e-19)
(-0.00045728 -0.0022805 3.38857e-19)
(-0.146651 0.123965 -7.87683e-19)
(0.000127253 -1.03413e-05 -2.68447e-19)
(-0.000602761 0.000161997 -1.68033e-20)
(0.0316589 -0.0277402 6.03807e-18)
(7.6612e-05 -0.000639234 2.85786e-19)
(0.00154135 -0.00478299 1.39646e-18)
(-0.00182311 -0.00163386 -5.02481e-19)
(-0.00066878 0.000226533 3.21081e-19)
(0.00342006 -0.0130412 2.14166e-18)
(8.79868e-05 6.14397e-06 1.81661e-19)
(-0.000600799 0.000303073 1.57434e-20)
(-7.55856e-05 0.000199507 6.73827e-20)
(-0.0679171 -0.0305744 7.17777e-20)
(-0.000996552 -0.00174804 2.35132e-21)
(-0.0628176 -0.0489096 -4.47932e-19)
(-0.000101701 -0.00132239 -4.72273e-19)
(-0.050182 -0.0121877 -3.94773e-20)
(7.53074e-05 -6.71044e-06 2.01916e-19)
(-0.000542262 -0.00147227 1.72403e-18)
(2.76058e-05 -4.44634e-06 5.76906e-19)
(-0.000148299 -0.00122376 1.93143e-18)
(-0.0938201 0.0179864 -3.01618e-18)
(-0.00100824 -0.000334387 -5.03554e-19)
(0.0240347 -0.112762 -5.36265e-19)
(-0.00096106 -0.000179277 2.69258e-19)
(-0.000389755 -0.000773921 7.43542e-20)
(-0.00240564 -0.00141558 -3.23732e-19)
(-0.0621995 0.411773 -1.59824e-18)
(0.0166923 -0.0169977 -8.88594e-19)
(0.0508829 -0.0801447 -3.31649e-19)
(-0.0421328 -0.0209858 1.06635e-18)
(0.00487388 0.000169849 2.42303e-19)
(0.000104789 -2.20693e-07 -6.61785e-21)
(0.00930225 0.0293999 -1.74064e-18)
(0.00222028 -0.0133861 -8.47362e-19)
(-0.00513106 -0.0180857 -1.82792e-19)
(0.00655764 0.105389 -9.83168e-19)
(0.0381817 -0.119693 5.56625e-18)
(0.000120369 -1.14897e-05 -7.06016e-19)
(0.00225781 0.00478085 8.23537e-19)
(0.0249693 -0.0110957 1.45649e-18)
(2.30598e-05 -3.97789e-05 -1.3457e-20)
(-0.0027684 -0.00031116 1.51046e-18)
(2.63536e-05 1.14936e-05 4.10622e-20)
(-8.49513e-05 -0.0003261 -8.72235e-19)
(1.66333e-05 -6.38803e-06 3.81168e-20)
(0.0990857 -0.0739537 -4.91543e-19)
(0.00449772 -0.00923154 -2.63368e-18)
(-0.0667102 -0.0126563 3.88942e-19)
(-0.000128233 -0.000369712 -9.3502e-19)
(-0.0143046 0.00491556 1.30743e-18)
(7.06416e-05 0.000137268 -3.38102e-20)
(1.63956e-05 4.65045e-06 1.65054e-18)
(2.44937e-05 -3.44671e-06 -2.43146e-19)
(-0.00235634 6.85926e-05 -7.31913e-19)
(0.0121012 0.0270147 1.19581e-18)
(3.76585e-05 -0.00153552 1.35902e-19)
(0.00155131 0.00412915 6.26144e-21)
(-0.00016213 0.000285658 -1.18749e-18)
(0.000144861 4.63932e-06 6.7011e-20)
(0.000489539 -0.00595505 -3.41464e-19)
(0.0371507 -0.0230217 -7.13863e-19)
(7.73969e-05 -1.26877e-05 1.30219e-18)
(0.000108732 3.92579e-06 -1.74387e-19)
(0.0161858 0.170668 1.24895e-17)
(0.00420324 -0.00598914 -1.46635e-18)
(-0.000867935 -0.00176323 -3.30948e-19)
(-0.0902697 -0.0916085 4.59157e-19)
(-0.047419 -0.0203043 -7.32307e-19)
(-8.64038e-06 2.80028e-06 -4.32786e-19)
(-3.07292e-07 -3.25587e-06 -1.8208e-19)
(-0.00301342 -0.00104114 1.37614e-19)
(0.00145992 -0.00579173 -3.77913e-18)
(-0.000675493 0.000335079 -6.95048e-21)
(0.00010925 -9.05619e-06 1.38579e-19)
(0.000120907 -6.58346e-08 -4.32137e-19)
(-0.000989029 -0.00078675 -1.81906e-18)
(-0.000149805 -0.000777108 7.73916e-19)
(-0.000206739 -0.000123545 -4.61622e-19)
(0.0246644 0.019966 -7.76399e-20)
(0.0217695 -0.0368103 1.26905e-18)
(2.14238e-05 1.27605e-05 6.95386e-20)
(-0.0737428 0.0329414 -5.34461e-18)
(-0.0251424 -0.00347457 -3.97668e-19)
(-8.76244e-05 0.000353488 4.96091e-19)
(0.00278837 0.00110569 -1.26972e-18)
(-0.00198941 0.00163986 8.97682e-19)
(0.0618053 -0.00758337 6.40817e-19)
(0.000256598 0.00198636 -1.93419e-18)
(0.0859617 -0.0301995 8.6967e-19)
(-0.000549177 0.000114848 5.69283e-19)
(-0.000270659 -0.000259998 4.43374e-19)
(0.0225764 -0.024441 1.90363e-18)
(3.79451e-05 5.26193e-05 1.18796e-20)
(0.0112732 -0.0145985 -4.23461e-18)
(0.0464563 0.0745366 8.96006e-18)
(-0.0125193 5.57111e-05 1.27125e-18)
(-2.85787e-05 0.000376117 3.9194e-19)
(0.117807 -0.0809683 6.93929e-18)
(0.00326205 -0.00580643 6.55921e-19)
(9.03893e-05 0.000217438 -1.06255e-18)
(-0.000822198 -8.87693e-05 6.6719e-20)
(0.0291565 0.00033175 4.06222e-18)
(0.000152855 0.000259962 6.39237e-19)
(0.000102944 0.000184641 6.07076e-19)
(0.00012383 -5.24896e-07 1.62668e-19)
(0.000133241 0.000237119 1.26606e-18)
(-0.000173554 0.123824 -5.03256e-18)
(0.0231723 -0.00582602 -3.77719e-19)
(-0.0228719 -0.00263403 -1.61286e-18)
(0.00355928 0.000513713 8.10398e-19)
(-0.000710634 1.22656e-05 -7.72494e-19)
(-0.000267633 0.000307543 -2.32685e-19)
(-4.28646e-05 -0.00046515 2.09087e-19)
(-2.47647e-06 -2.43814e-06 4.56987e-20)
(0.000125408 -2.51351e-06 -5.28425e-19)
(0.0504314 -0.0056761 -3.24542e-19)
(0.0614133 -0.0177215 -1.38069e-18)
(-0.000314783 -5.40698e-05 7.12292e-20)
(0.00407081 -0.00108427 1.02561e-18)
(0.0380771 -0.131299 -3.8988e-18)
(0.000489394 0.000317079 9.96061e-19)
(0.00486124 -0.0158249 -2.04624e-20)
(0.00257052 0.0246299 1.31889e-18)
(-4.2715e-06 -9.30741e-07 6.72308e-20)
(0.0308886 -0.0217369 -7.54714e-19)
(-0.0511398 -0.0160078 5.26508e-18)
(0.00011699 -0.000189738 3.97893e-20)
(0.0652624 0.0198534 -5.61154e-18)
(0.000109325 0.000353873 -2.7873e-19)
(0.119158 -0.0513319 -5.26826e-18)
(-0.00310184 -0.00858584 9.57673e-19)
(-0.0836232 0.0337277 3.0301e-18)
(0.000219928 -0.000191972 -2.52398e-19)
(-0.00026956 -0.000104455 -3.05161e-19)
(0.00226339 -0.00021523 1.72435e-18)
(-0.00863854 0.121721 -1.34501e-18)
(0.00241088 -0.00279686 -2.36198e-18)
(-0.101006 -0.0727658 5.80415e-20)
(-0.0377937 0.116266 -5.20683e-19)
(0.186892 -0.0533375 -7.40989e-18)
(0.0121653 -0.0155982 -1.67949e-18)
(0.0915361 -0.0255469 1.66089e-18)
(-0.00736582 -0.0178058 1.08539e-19)
(4.04415e-05 7.10641e-07 2.56005e-20)
(0.0108621 -0.00903953 5.36038e-18)
(0.00352158 -0.00137963 -5.86274e-19)
(0.0509827 -0.0509321 2.29759e-19)
(-0.000460781 -0.000406648 -3.05592e-19)
(-0.057491 -0.00379455 -5.67118e-20)
(0.000172209 0.000261751 8.05076e-19)
(0.00889585 -0.0324033 -4.18327e-19)
(4.42159e-05 3.68751e-06 6.8808e-19)
(0.00154174 -0.00123092 -2.1481e-18)
(-0.00023477 0.000234569 4.57215e-19)
(0.0739834 0.0127784 -2.68221e-17)
(6.14187e-05 0.000352507 -3.43607e-19)
(-1.79439e-05 -3.07357e-06 -2.15816e-20)
(0.00117219 -0.00275579 -1.51831e-19)
(-0.00153365 -0.00370214 -1.0273e-18)
(0.00478496 -0.0100331 2.38143e-18)
(0.000273771 -0.000193806 5.35229e-19)
(7.37316e-05 6.96169e-05 2.75365e-19)
(0.000414131 0.000296257 -6.79148e-19)
(0.000410618 0.000219364 4.3717e-19)
(-0.0662836 -0.013355 -1.17688e-18)
(8.41491e-05 -4.98896e-05 6.56161e-19)
(0.0437114 -0.111486 -3.56224e-18)
(0.0481335 0.210034 2.09938e-18)
(8.45413e-05 -4.57013e-05 -4.05157e-19)
(4.73502e-05 2.94793e-06 4.70654e-19)
(-0.0160574 0.00535997 7.56242e-19)
(0.000955278 -0.00130129 3.95812e-19)
(4.21205e-05 -1.59117e-06 -1.57805e-20)
(-0.000865059 0.00110925 3.6593e-19)
(-0.00446249 -0.00273305 -6.11761e-19)
(-0.00227588 -0.00897477 -1.06144e-18)
(0.00204665 -0.00171591 1.51848e-19)
(-0.00118119 -0.0039507 1.56827e-18)
(7.83219e-05 0.000106208 -1.06212e-18)
(-0.00260269 0.00155295 1.97875e-19)
(-0.00232629 0.000317606 -7.4394e-21)
(-0.00119814 -0.00779323 -3.98884e-19)
(-0.000543627 0.00141573 7.60391e-20)
(-0.00343475 0.000283271 1.32902e-20)
(0.0518539 0.174471 2.80636e-18)
(0.000135756 0.000391269 1.86901e-19)
(-0.156523 0.105808 -2.01564e-18)
(0.00507329 -0.00625939 -3.15767e-18)
(6.40267e-05 -1.01001e-05 1.14609e-19)
(6.50855e-05 6.55875e-05 9.66429e-20)
(5.44282e-05 -0.000187862 1.70075e-18)
(8.85278e-05 -0.00377916 1.8722e-18)
(0.000582332 -0.00433678 -1.95658e-18)
(-0.000197232 -0.000258657 -2.09187e-18)
(-0.00158596 0.000270877 4.11643e-19)
(9.36126e-05 9.85449e-05 8.51548e-21)
(-0.000354601 0.000292139 -1.07931e-19)
(-0.00152906 0.000564534 3.34486e-19)
(0.000141619 2.64119e-05 -4.23726e-19)
(-0.00362497 0.00485434 2.19542e-19)
(2.51332e-05 4.73344e-05 1.96491e-19)
(0.00146775 -0.00138994 -5.63027e-19)
(4.18988e-06 -4.2863e-08 1.38375e-19)
(3.5154e-05 -0.000700465 6.45903e-20)
(-0.00283446 0.00462878 2.1012e-19)
(0.00218192 -0.00183682 -1.16101e-18)
(0.0116813 -0.0100045 3.80331e-18)
(2.67301e-05 -4.13133e-07 -3.6043e-19)
(-7.89749e-05 -0.000147794 4.76486e-19)
(6.28002e-05 4.66142e-05 -1.40627e-19)
(4.2999e-05 0.000150168 -1.05427e-19)
(0.000569885 -6.95078e-05 -8.33709e-20)
(2.10686e-05 1.05117e-05 2.40586e-19)
(0.000687016 -7.21751e-07 -8.93629e-20)
(-0.000100702 0.000190794 -5.63399e-19)
(9.55079e-05 0.000396569 2.31983e-20)
(0.000119471 0.000343096 1.43487e-19)
(0.00107781 -0.0212313 4.82158e-19)
(-1.84509e-06 -1.20154e-05 -9.1839e-19)
(3.9941e-05 2.72572e-06 -8.02884e-19)
(5.18802e-05 -9.58903e-05 1.87569e-20)
(-0.0562797 0.00342733 5.33056e-19)
(0.00012493 -8.23664e-05 -5.32839e-19)
(-0.000190651 0.000155441 6.0858e-19)
(0.0289729 -0.0161895 -5.55265e-18)
(4.41553e-05 0.000308468 4.84262e-19)
(0.000205982 -0.00195949 -2.85563e-19)
(0.0797671 0.0127316 -1.03049e-17)
(-0.00233209 0.0016483 -7.96222e-19)
(7.33773e-05 -5.5292e-07 -6.47271e-20)
(2.2896e-05 -3.93176e-06 -2.03634e-19)
(0.0513486 -0.00422124 4.0912e-18)
(7.62276e-05 -0.000183945 -8.92441e-19)
(0.0270383 -0.0120815 -4.77544e-19)
(0.175614 -0.104236 -2.13566e-19)
(0.0416986 0.0269083 1.5446e-17)
(-0.0221045 0.0741698 -4.98475e-18)
(0.000291363 -0.0017277 7.31255e-19)
(2.40584e-05 -9.55113e-05 9.30364e-21)
(0.0570481 -0.0545193 2.53435e-19)
(0.00025136 -0.00303994 -1.48026e-18)
(-0.000111017 0.000208068 2.62674e-19)
(0.0139646 0.0307858 6.41795e-21)
(-0.0542998 -0.0109295 -1.58772e-20)
(0.0786491 -0.120937 1.21393e-18)
(5.16794e-05 3.83541e-05 1.32429e-19)
(0.0316742 7.11069e-05 -1.03578e-17)
(3.21946e-05 -0.000106821 -2.26423e-24)
(5.10514e-05 -7.42965e-05 -1.32041e-20)
(0.112791 -0.0864054 1.04928e-17)
(0.000137081 2.83117e-05 2.32159e-19)
(0.029716 -0.0253521 -2.11597e-19)
(0.00120448 0.00379437 -1.04126e-18)
(0.0190614 -0.0397091 -1.35873e-18)
(-7.04531e-05 -0.000107631 2.37572e-20)
(-0.00423973 -0.00382466 4.0495e-19)
(-0.00206021 0.00049757 4.25691e-20)
(0.0709682 0.0196692 2.46428e-17)
(0.0610182 -0.204973 1.25797e-19)
(-0.000340638 -0.000580516 5.05847e-19)
(0.000707508 0.0033433 8.82319e-19)
(0.00864078 -0.00431541 -4.01997e-18)
(-8.63088e-05 0.000149201 -1.62756e-19)
(0.0030233 -0.00468832 -1.33819e-18)
(0.0267728 -0.0151052 6.91097e-18)
(0.115366 -0.0200987 -1.92187e-17)
(0.000174339 -0.000211745 8.77648e-20)
(0.00173213 -0.0170007 -2.70774e-19)
(0.000701281 -0.00294156 -2.29469e-19)
(0.066534 -0.00460951 3.25998e-18)
(-0.000295412 -0.0149329 -3.91624e-19)
(0.030908 0.144597 4.70345e-18)
(-0.0492636 -0.0390555 -4.23992e-19)
(0.000192599 0.00167066 -2.56801e-19)
(0.0134158 -0.000854577 -3.94506e-19)
(-0.0544005 0.00126891 3.28587e-18)
(0.00012413 -9.14538e-05 5.92852e-19)
(0.00014803 2.51043e-05 -5.73874e-20)
(4.67023e-05 -2.69658e-06 8.16106e-20)
(-0.000243992 0.00288072 1.09328e-18)
(2.72667e-05 0.000293661 -6.95152e-19)
(0.091623 -0.0484963 -1.1981e-18)
(-3.76526e-05 0.000225457 -1.7444e-19)
(0.0146765 -0.169165 -2.62621e-18)
(0.00355261 -0.00226594 -8.69437e-21)
(0.0298988 0.0134866 -2.01014e-19)
(0.0257371 -0.0242439 -1.96309e-18)
(-2.37641e-05 -0.000533148 -2.39152e-19)
(0.0457545 -0.0755947 -3.55374e-19)
(0.0836259 -0.0659843 3.97735e-19)
(-0.000691774 -0.00136135 -1.03052e-18)
(-0.0651444 0.0251023 4.38759e-18)
(0.0122983 9.14514e-05 -2.91361e-19)
(0.0404015 -0.00182159 -4.09687e-18)
(-2.22279e-05 0.000282437 -6.67258e-19)
(4.79153e-05 0.000275707 -1.34e-19)
(0.0356965 -0.0756635 3.36309e-18)
(0.000767077 -0.000136449 -1.46724e-19)
(0.0817306 -0.13901 -5.64541e-18)
(8.57702e-05 1.24458e-05 -5.87598e-19)
(-0.0525614 -0.0506514 -5.70012e-19)
(0.000259681 -0.000114734 1.20855e-18)
(0.0313703 -0.0195545 8.5654e-19)
(0.026955 -0.101955 3.85279e-19)
(0.000480593 0.00166746 4.14206e-20)
(0.153533 -0.0868565 -1.55783e-17)
(0.000118416 -1.22579e-05 2.66991e-19)
(0.001425 -0.00288241 -1.83822e-18)
(0.0103832 -0.0179439 3.94301e-18)
(0.069679 0.0829918 -2.92044e-18)
(0.0426894 0.230449 1.56758e-17)
(0.000525468 -0.000485835 -3.09094e-19)
(0.000296767 -0.000158693 -6.68992e-19)
(-0.000212995 0.000222563 3.86308e-19)
(0.0382866 0.0617956 -4.07171e-18)
(-0.0790202 0.360488 -2.30322e-17)
(0.000123064 1.10727e-07 4.81402e-19)
(0.0078283 0.000107141 -1.24293e-19)
(0.00765358 -0.017101 4.92769e-19)
(-0.000113109 0.000273131 6.49942e-19)
(6.34582e-05 -0.000119417 1.42232e-19)
(0.00161883 -0.00216355 -7.2269e-19)
(0.0321167 -0.0207838 -8.8691e-19)
(-0.00840832 -0.00107121 -4.42455e-19)
(0.00097346 -0.00011659 -3.2853e-19)
(3.03563e-05 2.25477e-06 2.04304e-19)
(0.000205325 -0.000129257 2.00712e-19)
(-0.0319689 0.0764868 5.36582e-18)
(0.0582231 -0.11486 -1.06943e-19)
(-0.0191477 -0.00260092 3.50827e-19)
(5.50747e-05 0.000172654 4.64851e-19)
(5.98799e-05 2.77495e-06 -1.00926e-18)
(-0.0600223 0.0139854 -2.14362e-21)
(0.000143878 2.83704e-05 -1.57206e-19)
(-0.0762864 0.0129117 -6.31256e-18)
(0.00587494 -0.0288877 -2.09767e-21)
(0.00340295 -0.190779 2.62483e-18)
(0.0377497 -0.0332525 -3.37207e-19)
(-0.0510711 -0.0544932 -2.10799e-19)
(0.000131884 0.000142379 -3.39234e-19)
(4.25936e-05 -0.000569268 -5.32649e-19)
(0.00142869 -0.0052346 -1.09451e-18)
(0.000965613 -0.00236898 1.21349e-18)
(-0.0013683 -0.00838404 5.95083e-19)
(0.000129251 1.81464e-05 -1.2447e-19)
(0.0323521 -0.00246599 -7.32002e-19)
(0.06402 -0.0501623 -2.26943e-19)
(0.000121552 -0.000239118 -3.31463e-19)
(0.0748721 -0.101047 -5.74024e-18)
(0.000187102 -0.000143783 -5.41476e-19)
(0.0435642 -0.0550972 4.04662e-19)
(0.000527464 -0.000912166 -6.99358e-19)
(0.0290981 -0.0625191 -5.26705e-19)
(-0.00308122 0.00766842 2.09003e-19)
(0.00233397 0.00581273 1.83543e-18)
(0.000171513 -0.000306643 2.4019e-19)
(0.000574577 -0.00245436 -1.58945e-20)
(-0.00765502 -0.00938615 -2.0848e-19)