/*--------------------------------*- C++ -*----------------------------------*\
| =========                 |                                                 |
| \\      /  F ield         | OpenFOAM: The Open Source CFD Toolbox           |
|  \\    /   O peration     | Version:  v2012                                 |
|   \\  /    A nd           | Website:  www.openfoam.com                      |
|    \\/     M anipulation  |                                                 |
\*---------------------------------------------------------------------------*/
FoamFile
{
    version     2.0;
    format      ascii;
    class       volScalarField;
    location    "800";
    object      nut;
}
// * * * * * * * * * * * * * * * * * * * * * * * * * * * * * * * * * * * * * //

dimensions      [0 2 -1 0 0 0 0];


internalField   nonuniform List<scalar> 
9793
(
0.00331201
0.0251695
0.00157669
0.00670971
0.0189192
0.00680549
0.00689871
0.00671469
0.00677829
0.020358
0.000605058
0.0010392
0.00671861
0.00680073
0.00700238
0.00678884
0.00687723
0.00692775
0.0216113
0.00680398
0.00319915
0.00663129
0.0166896
0.00669195
0.00679319
0.00673438
0.00680123
0.00680869
0.000724778
0.00677819
0.00312225
0.0149533
0.0205649
0.00697375
0.00084221
0.00643144
0.00694786
0.00663534
0.00673768
0.00681649
0.00338465
0.00700935
0.00686329
0.00690404
0.00686522
0.00676313
0.000707379
0.0100941
0.0112977
0.00670589
0.000690441
0.000633818
0.00670286
0.00679309
0.00153779
0.00352012
0.00672834
0.000570237
0.00971303
0.00673583
0.0069304
0.00673303
0.00858221
0.00681214
0.0266155
0.0178202
0.00798558
0.0105192
0.00173716
0.000569971
0.00163138
0.00692619
0.00673574
0.019244
0.000792601
0.00823859
0.0067307
0.00685544
0.00683665
0.00682204
0.0169122
0.00683895
0.0233625
0.00616951
0.00318129
0.0074878
0.00683429
0.00673378
0.00679145
0.00688405
0.0271547
0.00770993
0.00674874
0.0140985
0.00676592
0.00594067
0.00364849
0.0253898
0.00674016
0.00672576
0.00672298
0.00686663
0.0067212
0.00671605
0.00682844
0.00358994
0.00680339
0.00692514
0.00678846
0.00289391
0.0069539
0.00333799
0.00672179
0.00622448
0.000634086
0.00673127
0.021025
0.00080414
0.00684895
0.0126916
0.00471556
0.00710464
0.00673235
0.00677618
0.00678628
0.002955
0.000662293
0.00724662
0.00686254
0.0067236
0.00700798
0.00673429
0.00672614
0.00688473
0.00676883
0.00673714
0.00684981
0.00688463
0.00672086
0.00670191
0.00673056
0.00679962
0.00675817
0.0067389
0.006817
0.00687775
0.0136107
0.00674122
0.00673102
0.00321912
0.00290237
0.00700244
0.0031132
0.0193385
0.00672493
0.00708875
0.00685117
0.00680712
0.00673068
0.00675169
0.00671809
0.00681266
0.00676305
0.0288541
0.0183404
0.0041371
0.00956592
0.00237322
0.00678866
0.00681438
0.00678441
0.0187871
0.0189935
0.0187998
0.00679145
0.0260713
0.00673719
0.00668346
0.0067343
0.00128575
0.00135174
0.0041263
0.00673296
0.00679845
0.0068513
0.00673313
0.000630511
0.00673373
0.00673303
0.00676339
0.00679149
0.00671211
0.0122781
0.00321888
0.0100502
0.00160877
0.0186259
0.00679589
0.0139208
0.00671769
0.00676875
0.0304773
0.00372897
0.00672151
0.00674074
0.00678502
0.00466871
0.00675063
0.00369646
0.00618517
0.00110308
0.0109869
0.0120164
0.00679571
0.024597
0.00683709
0.00683411
0.00661401
0.00676512
0.0133044
0.000979489
0.00673245
0.0067863
0.00671185
0.00704247
0.0303886
0.00679181
0.00671865
0.000938933
0.000611448
0.00669801
0.00668942
0.00359123
0.00675176
0.000596839
0.0130947
0.0067197
0.0067645
0.00354828
0.00683041
0.00411481
0.00680366
0.00675944
0.0193065
0.00675206
0.00673292
0.00671266
0.00680863
0.00673909
0.0069429
0.00680007
0.00276953
0.000638508
0.000639069
0.00674335
0.00655509
0.00677721
0.00251986
0.00683724
0.00674095
0.0130292
0.00675768
0.000643175
0.00697013
0.00198683
0.00672745
0.00672148
0.00110151
0.0308298
0.0068271
0.00674402
0.00670955
0.00265856
0.00673341
0.0267623
0.0260088
0.00672367
0.00347846
0.00672757
0.000650806
0.00681565
0.0067052
0.00696855
0.00679838
0.000653084
0.00673156
0.00680227
0.00254464
0.00676147
0.00674121
0.00672078
0.0209799
0.00682804
0.00697771
0.00701277
0.00688502
0.00676908
0.00192045
0.00671223
0.023496
0.00672345
0.0129763
0.0222703
0.00695536
0.00692931
0.00674309
0.00225182
0.00387198
0.00682119
0.0137389
0.00678383
0.00674007
0.0036467
0.00680177
0.00679656
0.00685878
0.00693827
0.00677427
0.00309009
0.00613847
0.00675068
0.0203256
0.0273489
0.0160986
0.00674317
0.00107473
0.00675415
0.0109469
0.000884898
0.00673496
0.00231222
0.000840487
0.00684617
0.0043598
0.000564699
0.00670977
0.00685418
0.00676065
0.00685971
0.00681845
0.00525639
0.00673644
0.00674412
0.0256116
0.00683909
0.00679007
0.00674517
0.00672577
0.00671211
0.0121069
0.0067789
0.00674918
0.00681098
0.00685951
0.0156921
0.00679096
0.00221143
0.00668761
0.000905939
0.0012914
0.000656387
0.00075388
0.00673444
0.00692755
0.0261864
0.00691721
0.0126839
0.00683261
0.00676388
0.0203577
0.00483291
0.0254421
0.00674941
0.000580879
0.00735403
0.0068253
0.00672667
0.0213396
0.00165704
0.014617
0.00654465
0.00678633
0.012535
0.00672027
0.00673575
0.00699096
0.00686135
0.00680331
0.00678955
0.00659859
0.0163242
0.00679541
0.00157689
0.0146404
0.0268873
0.000637474
0.0109445
0.0068183
0.00675951
0.0218134
0.0136962
0.00680114
0.00613052
0.0302065
0.00671019
0.00744821
0.00677032
0.00659235
0.00670616
0.00103959
0.00673607
0.00155631
0.00355987
0.00675293
0.0171845
0.00689444
0.00676941
0.0068962
0.00681083
0.00681704
0.00687435
0.0195053
0.00672408
0.006798
0.000596039
0.00678045
0.006849
0.00675441
0.00675375
0.00122718
0.00675834
0.00680084
0.00670003
0.0190181
0.00684874
0.0191043
0.00681875
0.0130624
0.00694797
0.00682944
0.00696834
0.00679494
0.00742369
0.00679272
0.000782748
0.0067761
0.00678702
0.0067382
0.0287987
0.00316605
0.00132373
0.0119322
0.00662987
0.00671524
0.00184552
0.00132424
0.00115014
0.0238138
0.0209211
0.00677239
0.00685887
0.000569497
0.00673572
0.0068716
0.00673341
0.006721
0.00695697
0.00469365
0.00155662
0.00971033
0.00672756
0.00240889
0.00667922
0.00694372
0.00699311
0.00684483
0.00223599
0.00683153
0.00683432
0.00671539
0.0067513
0.00683069
0.00758209
0.00677708
0.00671451
0.0235757
0.00532117
0.00677904
0.00843374
0.0127219
0.00697147
0.00698227
0.0067188
0.00681295
0.00680272
0.0068857
0.00683368
0.00680498
0.00678275
0.00674766
0.0108017
0.000687624
0.006854
0.00685659
0.00119447
0.0067297
0.00682203
0.00683793
0.00326268
0.00681661
0.00166734
0.00674314
0.00675873
0.000608711
0.006731
0.000944264
0.0179267
0.002727
0.00672997
0.00132311
0.00610387
0.00672104
0.00678809
0.000492821
0.00674289
0.00671781
0.00671166
0.00673937
0.0192709
0.000596445
0.00138034
0.00681237
0.00678337
0.0067628
0.00677268
0.0069231
0.00671546
0.00305768
0.000668433
0.00671384
0.00691513
0.0232811
0.00678754
0.0123874
0.00213237
0.00691077
0.000548603
0.0106376
0.00673297
0.000577102
0.00670778
0.00424058
0.00248455
0.0120682
0.00672897
0.00675381
0.00687466
0.0293863
0.00692659
0.00816596
0.016753
0.0245314
0.000818538
0.00244691
0.00114686
0.00700772
0.000988731
0.00691491
0.0179316
0.00679366
0.013042
0.00670799
0.00886595
0.00693571
0.00487118
0.00675638
0.000689331
0.00671286
0.00684925
0.00454948
0.00559618
0.00142328
0.00673734
0.00672419
0.00677914
0.00677198
0.0183183
0.00670468
0.0205953
0.0139121
0.00670542
0.00692205
0.00200789
0.00632157
0.0067301
0.00680225
0.00683892
0.00237206
0.0037142
0.0053093
0.00670494
0.00684555
0.00675807
0.00283857
0.00680632
0.00670835
0.0201765
0.00676996
0.0256863
0.00171895
0.00689905
0.00672588
0.0067132
0.00694532
0.00696697
0.00675224
0.00682256
0.00667587
0.00676973
0.00682179
0.0067077
0.00659985
0.00668402
0.00492821
0.00698494
0.00678433
0.00662857
0.0037833
0.000940314
0.00695916
0.00673351
0.00672653
0.00670985
0.00674148
0.00689986
0.00675085
0.00674035
0.00677004
0.00671305
0.0009518
0.00683006
0.00696562
0.0067338
0.0132361
0.00670661
0.00670689
0.000538784
0.0067024
0.00683637
0.000675175
0.0067917
0.00691728
0.00699209
0.000547982
0.00671401
0.00055907
0.0268808
0.0148622
0.0156705
0.00683157
0.00673723
0.015549
0.00692836
0.00670365
0.0112835
0.0122328
0.0206666
0.00672782
0.000486945
0.00673692
0.00673239
0.00553732
0.00670826
0.00658883
0.0070506
0.000695045
0.00673042
0.00596302
0.0067664
0.000617418
0.0152283
0.00677796
0.00701015
0.00125591
0.00673511
0.00680926
0.00059543
0.00122804
0.00672578
0.0124832
0.00693227
0.0125181
0.0114052
0.0222262
0.022999
0.00682152
0.00313998
0.0122724
0.00670728
0.00670761
0.00696471
0.00684507
0.00670653
0.0037389
0.00670045
0.0225013
0.00249038
0.00791951
0.00061279
0.00677756
0.00120649
0.0159526
0.00678878
0.012781
0.00353768
0.000499526
0.00670615
0.0066994
0.0225549
0.0067988
0.0151515
0.00672715
0.0216054
0.00672688
0.0112559
0.0244247
0.00682248
0.00147118
0.00673677
0.00407164
0.000811676
0.0109608
0.0129677
0.00674675
0.00673345
0.00671382
0.0161871
0.0279144
0.00690187
0.00486977
0.0124723
0.00671002
0.00671299
0.00689207
0.00592301
0.0064788
0.00681763
0.00684224
0.00672618
0.0154651
0.0192883
0.00415921
0.0067137
0.00670916
0.0146991
0.00670814
0.0122143
0.000725658
0.0234583
0.00976371
0.0229721
0.00672626
0.00677568
0.00294405
0.00517154
0.0023062
0.00670941
0.000491886
0.0152479
0.00671635
0.0164741
0.00672384
0.0101238
0.0067927
0.0192026
0.00477316
0.00715182
0.00673584
0.00691154
0.00557327
0.0153769
0.012379
0.00680234
0.00106483
0.00685539
0.00669108
0.00442687
0.0011179
0.0069791
0.000506495
0.00672123
0.00116784
0.00676957
0.00668792
0.00695578
0.00671188
0.0171508
0.00670791
0.006678
0.00696285
0.00704013
0.00670816
0.000919654
0.00695592
0.00428222
0.00672964
0.00671431
0.0187037
0.00670611
0.00283112
0.0067218
0.00957045
0.00683665
0.00581562
0.00689859
0.0034326
0.00681033
0.00680864
0.00670467
0.0258256
0.0187865
0.0106814
0.00144353
0.0164583
0.00679851
0.00327442
0.0288526
0.0067292
0.0209827
0.0145592
0.000895869
0.00109055
0.0066945
0.0194805
0.00619568
0.0186534
0.0283465
0.00670375
0.00679543
0.0181005
0.0198961
0.00691756
0.00658965
0.00670886
0.00685943
0.00076627
0.00690413
0.00673936
0.00475619
0.00278066
0.000797573
0.00674591
0.0141189
0.00670639
0.0067516
0.00985915
0.0188967
0.000734349
0.00681814
0.0024381
0.00673307
0.00672849
0.0215199
0.00671409
0.00671425
0.0205426
0.022866
0.00682494
0.0138454
0.00170311
0.00303764
0.00329888
0.00113311
0.00687856
0.0129515
0.00680859
0.00671922
0.0067566
0.006947
0.00686762
0.00127776
0.00687223
0.0227393
0.00686554
0.00113122
0.00679863
0.000750918
0.00707918
0.00684827
0.000786134
0.00687312
0.00674044
0.000829006
0.00705886
0.00120363
0.00684146
0.00671851
0.0207344
0.0106053
0.00695152
0.00667931
0.00667411
0.00678149
0.00684976
0.0233752
0.000809129
0.00334032
0.00102721
0.0147371
0.00681537
0.00271762
0.00409277
0.00283689
0.00106832
0.00673676
0.00673814
0.00454708
0.00087908
0.00120129
0.00672648
0.0135734
0.0264763
0.00693126
0.000652502
0.00224281
0.0213117
0.00681892
0.00189059
0.0239598
0.00698579
0.00672858
0.00315642
0.00681378
0.00670687
0.00672621
0.0013557
0.00681619
0.00139217
0.00669614
0.000696211
0.0041816
0.00107203
0.0063685
0.0161452
0.00607913
0.00673968
0.00678749
0.00542903
0.00710162
0.006866
0.0142158
0.0230086
0.00223743
0.0118782
0.00543354
0.0149276
0.00679074
0.0229702
0.00672334
0.0239236
0.000512363
0.00671499
0.00935614
0.0195048
0.00670246
0.00676737
0.00679233
0.00113163
0.0135069
0.00236331
0.00149699
0.00586695
0.00495957
0.00120818
0.0201247
0.00681871
0.00671865
0.00127131
0.00890217
0.00672296
0.00678905
0.00674798
0.00680002
0.00680983
0.00180922
0.0126638
0.00676458
0.00622455
0.0107952
0.00679591
0.00704453
0.00512709
0.01672
0.0067824
0.00697948
0.00728136
0.00678859
0.00672463
0.00678283
0.00672134
0.0067162
0.0259415
0.0159665
0.00679039
0.00743068
0.00647129
0.00517194
0.00672164
0.00694576
0.00673788
0.00681297
0.0215824
0.00686406
0.00693034
0.00224075
0.00682311
0.00692065
0.00151039
0.00671951
0.000668809
0.00678315
0.00670638
0.0134356
0.00672957
0.0171191
0.004677
0.00672924
0.00486615
0.00696644
0.000939749
0.00330953
0.00670714
0.00778964
0.00672419
0.00671976
0.0302048
0.00968025
0.00671047
0.00677443
0.00671748
0.00679398
0.000511252
0.00675057
0.00682206
0.00691868
0.00686482
0.0059816
0.00677163
0.00676534
0.0067129
0.00670822
0.0132231
0.00553258
0.00671598
0.000650381
0.00685123
0.0090578
0.00416947
0.0008083
0.0067695
0.00672162
0.000528309
0.00663861
0.00679153
0.00681892
0.0266564
0.000915351
0.00672259
0.0066892
0.000499929
0.000957127
0.00669919
0.0193328
0.000798981
0.00681233
0.0067857
0.00780461
0.0067916
0.00242181
0.0166422
0.00686831
0.00302473
0.00789949
0.00838883
0.00669386
0.00673751
0.00668236
0.00668465
0.000850698
0.00673296
0.00428383
0.00136934
0.00668143
0.00678271
0.00510608
0.00701099
0.00679455
0.00671356
0.00680104
0.0146153
0.00668619
0.00676239
0.020071
0.00686614
0.0067888
0.00713775
0.00673186
0.00679202
0.00672211
0.00675191
0.006861
0.00703712
0.00112748
0.00577534
0.00669479
0.00672934
0.00669056
0.000974672
0.00671277
0.00536732
0.00673953
0.00671855
0.00676811
0.00670981
0.00106072
0.00673487
0.00671257
0.0153724
0.0131263
0.0067773
0.0067548
0.00671078
0.00138899
0.00122057
0.0067127
0.0189204
0.0180442
0.00698968
0.00503735
0.0270783
0.00574206
0.0250363
0.00253112
0.00621505
0.00672023
0.00314599
0.000744733
0.00670858
0.015192
0.00123106
0.00671752
0.00152111
0.00241123
0.0070509
0.0258637
0.00670178
0.00152886
0.000797234
0.0067134
0.0198595
0.00670754
0.000661013
0.000983323
0.00669725
0.00558554
0.00681888
0.00680153
0.00090265
0.0021542
0.00108333
0.00132079
0.00672702
0.00263983
0.00127222
0.00671067
0.00172182
0.00671586
0.0266823
0.0126236
0.00718471
0.00684863
0.0015997
0.00123383
0.00129662
0.0011344
0.00669862
0.0067192
0.00138574
0.0110754
0.000796009
0.00666924
0.00667212
0.00159887
0.00671354
0.00690101
0.00701485
0.00666607
0.00674532
0.00703062
0.0200653
0.00398202
0.00671422
0.000892672
0.00590484
0.00339419
0.00152878
0.00145306
0.021446
0.00365348
0.00670261
0.000541116
0.000528368
0.0156308
0.0184792
0.00675861
0.000572582
0.0200193
0.000798344
0.00340766
0.0185845
0.0177224
0.00672117
0.00170069
0.0018922
0.00671765
0.000486916
0.00673652
0.00705704
0.00670875
0.00671176
0.00682195
0.00674707
0.00669821
0.00150836
0.0120103
0.00511011
0.0189179
0.00671809
0.00132363
0.00678298
0.00300608
0.014301
0.00671893
0.000751513
0.00686826
0.00669929
0.00671696
0.00671166
0.00673207
0.00100375
0.00678999
0.00881648
0.0068402
0.00670902
0.0210194
0.00686583
0.00573443
0.00670904
0.0067649
0.00884245
0.000488194
0.0156448
0.000858147
0.0181869
0.00677376
0.00649152
0.00685595
0.00207773
0.00254259
0.000486368
0.0015449
0.0067264
0.000838486
0.00539853
0.00312935
0.00124178
0.00170908
0.00141408
0.00352553
0.00695254
0.000893656
0.00674537
0.000609011
0.00684859
0.0005696
0.000639904
0.00670858
0.00199245
0.0166514
0.00679476
0.00263738
0.00679224
0.000953573
0.00684089
0.00679662
0.0143599
0.00671303
0.00788257
0.00470707
0.00689886
0.00467468
0.00679549
0.00945661
0.00671754
0.012828
0.00185491
0.00674491
0.00671156
0.00429347
0.00671645
0.00147736
0.00686826
0.00696026
0.00415244
0.000742619
0.00259602
0.00676323
0.0206562
0.0067938
0.00670334
0.00491449
0.0206247
0.00698006
0.00671338
0.0068652
0.014671
0.00105544
0.00670814
0.00874956
0.00678477
0.00126011
0.00477395
0.00624637
0.0067195
0.000674607
0.00671901
0.00670759
0.00672102
0.000522237
0.00160773
0.00736808
0.00691919
0.00620847
0.00490102
0.0264281
0.00513306
0.0069706
0.00679473
0.00672362
0.0028674
0.00203219
0.00106214
0.0067208
0.000649198
0.00670299
0.00670817
0.00693226
0.00548627
0.000818193
0.00671983
0.00457213
0.0134841
0.0021585
0.00206353
0.00676892
0.00677847
0.0008486
0.00670684
0.0067794
0.00140089
0.00678159
0.0067342
0.0067549
0.0039844
0.00670483
0.00143581
0.000633026
0.00704017
0.00239794
0.0063676
0.00247476
0.0210748
0.00672826
0.00672134
0.00676375
0.00672555
0.00676082
0.00674548
0.0014135
0.00094382
0.00678659
0.00681774
0.00677151
0.007048
0.00666431
0.00115064
0.00646115
0.0012649
0.00672026
0.00678623
0.00683394
0.000611679
0.00675677
0.00131672
0.00674729
0.00678426
0.00667347
0.0013308
0.00337872
0.00433283
0.00135782
0.00677962
0.00675753
0.0067212
0.00673143
0.00748549
0.00681105
0.00188842
0.00712975
0.00678526
0.000992959
0.00362933
0.00317593
0.000764721
0.00680145
0.00232826
0.00673025
0.00670604
0.0067031
0.00672447
0.0140708
0.000728095
0.00671582
0.0135492
0.0033944
0.00671556
0.00450387
0.00670311
0.00139558
0.00684194
0.00671323
0.00574879
0.00678516
0.00693712
0.00471972
0.000850764
0.00055437
0.00677598
0.00672057
0.00672006
0.00142508
0.00516026
0.000706509
0.00124308
0.00676288
0.006735
0.0128654
0.00682664
0.00125581
0.00607481
0.0140992
0.00677826
0.000738581
0.00679975
0.00678984
0.00154874
0.000968789
0.00146024
0.00460707
0.00679176
0.00162537
0.0114972
0.00265752
0.00670601
0.00163353
0.000474719
0.00323739
0.000758961
0.00679239
0.00679381
0.00672127
0.00818068
0.0158686
0.00120658
0.00678871
0.00516427
0.00704917
0.00155825
0.00676683
0.00672341
0.00671873
0.00676062
0.00111569
0.00698056
0.00673777
0.00597245
0.00674791
0.00677096
0.000883281
0.00671979
0.00673021
0.00679258
0.00792689
0.0019666
0.00675798
0.00677026
0.00674813
0.0172143
0.00677034
0.000951829
0.00677645
0.00134935
0.00676406
0.00682237
0.00275682
0.00679519
0.000949554
0.00679622
0.00674236
0.0067054
0.00669771
0.000783767
0.00681421
0.00627904
0.0225745
0.00681254
0.00673902
0.00526907
0.00680509
0.00678703
0.00677442
0.00120522
0.00670973
0.0067136
0.00670718
0.0122126
0.00288142
0.0247677
0.00678555
0.00680576
0.0110759
0.0215207
0.0249577
0.00141191
0.00219064
0.0290773
0.00678905
0.0204733
0.00683116
0.000559224
0.00672767
0.00509416
0.00736585
0.00667543
0.00571346
0.007091
0.00673449
0.00675069
0.0147369
0.00671613
0.0282975
0.00679551
0.00672726
0.00679081
0.00674644
0.00678877
0.000878751
0.00674229
0.00671067
0.00671634
0.00681796
0.00672589
0.00118156
0.0235199
0.0160261
0.00679116
0.0067878
0.00225553
0.00675246
0.00673905
0.000507561
0.000666285
0.0068229
0.00671369
0.00451494
0.00669341
0.00127282
0.0139681
0.00667471
0.00670041
0.00671157
0.00671447
0.0102001
0.00683605
0.00672274
0.00428944
0.000593283
0.000619866
0.0161122
0.00673609
0.00690116
0.00689964
0.00672043
0.00679559
0.0109908
0.0121359
0.00739061
0.0067219
0.0140621
0.00679364
0.00679728
0.00700214
0.00586737
0.00702453
0.00414715
0.0067279
0.00674344
0.00675806
0.00671462
0.00670285
0.00676296
0.00250305
0.0181136
0.00698978
0.00667327
0.00670123
0.00671121
0.00679356
0.00674422
0.00429544
0.00516218
0.00480701
0.00678725
0.02709
0.00671991
0.00640114
0.00897557
0.0067186
0.00673318
0.00116739
0.00677847
0.00672004
0.00671206
0.00164606
0.0068515
0.000875091
0.00679044
0.00548708
0.00677708
0.00670369
0.00670679
0.00673328
0.00256211
0.00671979
0.00679139
0.000638953
0.00675073
0.0185646
0.00698052
0.0012547
0.00679668
0.0019294
0.000877445
0.00678666
0.00670851
0.00682422
0.00678131
0.00674417
0.0163097
0.0067046
0.0026907
0.00671965
0.00685035
0.0182035
0.00672371
0.0120299
0.000536244
0.00674041
0.00274312
0.00671991
0.00679432
0.00671813
0.00679266
0.00670713
0.00674887
0.00676426
0.0067954
0.0012505
0.00677954
0.00670442
0.00679468
0.0067108
0.00671877
0.00672108
0.00672626
0.00670767
0.00671161
0.00675241
0.00671776
0.00673059
0.00677959
0.0279214
0.00682585
0.00681201
0.000810686
0.0218007
0.00677473
0.00696968
0.00671252
0.00682488
0.00673748
0.00682671
0.016943
0.0224334
0.00670775
0.00670134
0.0198278
0.00680345
0.0110634
0.00626809
0.00672025
0.00457192
0.00676593
0.00413444
0.00504536
0.00892581
0.0291015
0.0150135
0.00671107
0.00671864
0.00676422
0.00413018
0.00111959
0.00672138
0.00342989
0.0136528
0.00673097
0.00138441
0.00349008
0.00699415
0.00670074
0.00155148
0.00150098
0.00675338
0.00672281
0.00680601
0.00422349
0.00362463
0.00550484
0.00311584
0.00484938
0.00672619
0.00673666
0.00677124
0.00671631
0.00105369
0.00700173
0.00702675
0.00138545
0.00554969
0.00852282
0.00672867
0.00703213
0.00672586
0.000781872
0.00671753
0.00676162
0.00430393
0.00465075
0.00203108
0.00671367
0.0234421
0.00273338
0.000569016
0.022346
0.0145558
0.00672312
0.00671879
0.00672017
0.000706502
0.00672873
0.00670324
0.00672536
0.00183492
0.00901667
0.0190331
0.00704138
0.00716937
0.00662286
0.000827568
0.0213993
0.00334634
0.00393008
0.00069695
0.00880068
0.0259108
0.00670724
0.00670742
0.00672946
0.0020439
0.00726159
0.00280329
0.00689527
0.00673123
0.00677867
0.00101068
0.00671816
0.00677059
0.00672286
0.000999626
0.00671831
0.00671841
0.00670267
0.00399825
0.0108635
0.0026189
0.00382653
0.00676084
0.0049648
0.00652175
0.0067612
0.00671294
0.0139533
0.00384058
0.00680641
0.0068148
0.00164695
0.00676328
0.00672036
0.00672348
0.00682818
0.0012884
0.00670978
0.00678938
0.00671704
0.00680451
0.00675793
0.0067265
0.00670583
0.00674744
0.00679844
0.00956754
0.00671289
0.00670522
0.000249852
0.00142562
0.00311764
0.000473386
0.00671817
0.00266455
0.00671097
0.0065508
0.00671661
0.00591784
0.00675655
0.00671673
0.00670049
0.00646098
0.00538654
0.00672295
0.00497424
0.00676354
0.00670386
0.0067707
0.00682137
0.00148038
0.00672701
0.00591021
0.00675693
0.00567205
0.00273456
0.00680897
0.000840185
0.00670631
0.00672851
0.00671699
0.00651054
0.00697836
0.00747523
0.00322405
0.00385122
0.00129577
0.00227757
0.00635608
0.00675381
0.00669717
0.0015155
0.00508208
0.00670776
0.00277487
0.00674608
0.00672567
0.0147858
0.00672679
0.00675865
0.00287273
0.00355178
0.00728865
0.00678885
0.00672031
0.00630586
0.00672092
0.00678029
0.00317879
0.00677089
0.00892673
0.0088576
0.0277799
0.00672774
0.00675431
0.00671564
0.0067405
0.00691906
0.00678389
0.00671838
0.00210733
0.00671093
0.0084401
0.00679776
0.00674029
0.00704542
0.0137058
0.00466062
0.00683264
0.000772926
0.0234087
0.00677947
0.00465875
0.00682745
0.00675828
0.00680834
0.00673464
0.00704837
0.00808537
0.0033023
0.00676346
0.00703942
0.00683696
0.00668507
0.00673247
0.00679716
0.00680026
0.00670106
0.00677882
0.00683967
0.00682751
0.00599121
0.0067166
0.00683919
0.000943144
0.00683732
0.00669565
0.0192678
0.00756623
0.00705088
0.0176828
0.000501511
0.00673224
0.00676691
0.00970402
0.0144219
0.00746984
0.0103781
0.0215657
0.00675957
0.0163634
0.00605147
0.00680631
0.00304117
0.00678092
0.0110639
0.00492618
0.00792676
0.0067777
0.00674357
0.00144226
0.00678821
0.00681706
0.00672493
0.00348488
0.0067395
0.00673188
0.00677243
0.0102629
0.00675075
0.00674045
0.00671826
0.00671128
0.00672108
0.00236764
0.00679426
0.00671612
0.00681829
0.00237824
0.00592212
0.0161052
0.00676492
0.00675673
0.00669343
0.00675298
0.00671885
0.00670695
0.00223149
0.00676442
0.000900135
0.00671458
0.00683609
0.0066972
0.00677125
0.006983
0.00417751
0.00670708
0.00685524
0.0259088
0.00867418
0.0050353
0.00780887
0.00678917
0.00249352
0.0067214
0.00668403
0.0067455
0.00670699
0.00672037
0.00672567
0.00680796
0.00125623
0.00672112
0.0097312
0.0140134
0.00674294
0.00657104
0.00151048
0.00678447
0.00671776
0.00671021
0.00682895
0.00675422
0.0217598
0.0067027
0.00676718
0.00536001
0.00672383
0.00673397
0.00670933
0.00112626
0.00672858
0.00672476
0.0185572
0.00670914
0.00670658
0.00674485
0.00655513
0.0067287
0.00668147
0.00672058
0.0067306
0.0108219
0.00283773
0.00672648
0.00579289
0.00669306
0.00674838
0.00688397
0.0102835
0.01521
0.00669176
0.00682153
0.00673673
0.00672951
0.00675091
0.00671729
0.0185939
0.0224327
0.0067797
0.00678578
0.00662378
0.00670628
0.00673607
0.0069439
0.00252772
0.0191238
0.00678019
0.00627509
0.0136972
0.0067265
0.00705063
0.00150119
0.0182786
0.00685287
0.00672483
0.00681473
0.00676345
0.00671676
0.019844
0.00673298
0.0138253
0.00757637
0.00547522
0.00703699
0.0261616
0.00681896
0.00507844
0.0120332
0.00264418
0.00408585
0.00672045
0.00689146
0.0184197
0.00670145
0.00748001
0.00672172
0.00669987
0.00668437
0.00669628
0.00672414
0.0114174
0.00682192
0.016837
0.0113623
0.000562071
0.00726412
0.00668807
0.00671864
0.00292364
0.0086457
0.00671705
0.0115533
0.00794355
0.00669536
0.00671616
0.0187387
0.0067218
0.0077762
0.0225256
0.00672107
0.0282355
0.00678932
0.00347872
0.00115902
0.00672622
0.0067091
0.00333286
0.00256773
0.00677791
0.00669069
0.00668625
0.00718342
0.00671598
0.0179551
0.0067348
0.0067639
0.00146694
0.00669976
0.0286264
0.00672764
0.00670931
0.00677152
0.0108329
0.00673208
0.00671854
0.00905411
0.00474511
0.011229
0.00679431
0.00670284
0.00386381
0.0139116
0.00749085
0.000841553
0.00323653
0.00380433
0.0068154
0.00673144
0.00701776
0.00679254
0.00676624
0.0066977
0.00646389
0.00703467
0.00671846
0.00667432
0.00680906
0.00670726
0.00683502
0.00719463
0.00499261
0.00757099
0.00761825
0.0048006
0.0253858
0.00671722
0.00671686
0.00676947
0.00100846
0.00675349
0.00679084
0.00671406
0.00674006
0.00672205
0.00062599
0.00678012
0.00636261
0.00671862
0.00673565
0.00210846
0.00123874
0.00680058
0.00673489
0.0067166
0.0166944
0.0020664
0.00680198
0.00669945
0.0070372
0.00671923
0.00672364
0.00672375
0.000785645
0.00670779
0.00671342
0.00183979
0.00670711
0.000764954
0.00704753
0.00672969
0.0067451
0.0146539
0.00605852
0.00789789
0.00917543
0.00704742
0.0068892
0.00679432
0.00671565
0.00764609
0.0067249
0.0128256
0.0151281
0.00672374
0.00325661
0.0200895
0.00672946
0.0145167
0.00688723
0.00206291
0.00708368
0.00671237
0.00671769
0.00679252
0.00671831
0.00534507
0.0163841
0.00628926
0.00677018
0.00673793
0.00671144
0.00519122
0.0068877
0.00179165
0.00671381
0.00681205
0.00644915
0.00675002
0.00140912
0.00592011
0.0067198
0.00680796
0.00668135
0.00678344
0.0233244
0.0278313
0.00671421
0.006737
0.00672031
0.026339
0.00671502
0.00214518
0.000776222
0.00255812
0.00858909
0.0039709
0.00914348
0.00671716
0.00150666
0.00677696
0.00674596
0.00278572
0.005076
0.00670459
0.00675722
0.00630913
0.00678789
0.00678542
0.0243521
0.00675073
0.00676183
0.00631179
0.00774425
0.00670448
0.00669681
0.000908856
0.0107372
0.00268118
0.0066328
0.00712349
0.0163179
0.00670597
0.00898713
0.00457904
0.0068739
0.013583
0.00726652
0.0205274
0.00500957
0.00114319
0.00670959
0.00670531
0.00672419
0.00676415
0.00309229
0.00670776
0.000802008
0.00677159
0.00687489
0.00680701
0.0196066
0.00671227
0.00960346
0.00681257
0.00721093
0.00752781
0.00892778
0.00694945
0.00667584
0.00128726
0.00675227
0.00708833
0.00682646
0.0025455
0.00345832
0.00713654
0.0119714
0.00671037
0.0109521
0.00705082
0.00721172
0.00675571
0.013885
0.00684338
0.00671188
0.0067177
0.00713715
0.00679436
0.00562614
0.00640092
0.00668617
0.0024942
0.00670149
0.00669984
0.0133632
0.00288246
0.0256199
0.0144182
0.00673483
0.0137066
0.0219723
0.000862671
0.00671354
0.00667549
0.0235994
0.00671024
0.00708029
0.00668146
0.00756977
0.0146178
0.01527
0.00655064
0.00670835
0.00670862
0.00679487
0.00669354
0.0071193
0.00704262
0.00678081
0.00671295
0.0141349
0.00689774
0.00681378
0.0071823
0.00745499
0.00616221
0.00719384
0.007258
0.00706806
0.0103959
0.00671475
0.0121626
0.00671165
0.000821278
0.00263133
0.00687085
0.0113967
0.00669729
0.00673278
0.00672152
0.00670898
0.0067178
0.00673063
0.00667824
0.00592202
0.00704585
0.00672299
0.0133315
0.00672475
0.00682459
0.00670923
0.0179707
0.00679107
0.00669461
0.00621555
0.00694636
0.00670319
0.00668041
0.0163061
0.00676386
0.0164051
0.0019043
0.00682612
0.00679532
0.00426731
0.00365091
0.00206668
0.00671801
0.00670641
0.00696174
0.00451073
0.00273444
0.00444765
0.00658018
0.0069476
0.0067959
0.00692844
0.00677175
0.00658502
0.0137726
0.00670765
0.0131808
0.00657714
0.00671286
0.00671477
0.00673511
0.00673036
0.00670412
0.00672679
0.00670514
0.00691691
0.00430546
0.00680685
0.0068068
0.0024326
0.00178447
0.00671201
0.00670445
0.000919604
0.00682737
0.00699834
0.00670687
0.00686875
0.00670445
0.00669682
0.0131003
0.00672309
0.00670588
0.0110691
0.0154933
0.00879983
0.00671685
0.00551768
0.00679049
0.0036126
0.0132671
0.0068255
0.0158696
0.00670673
0.00669492
0.00621491
0.00670141
0.000827934
0.0237003
0.0116414
0.00704749
0.00704953
0.00684415
0.00672608
0.00695104
0.0067067
0.0110384
0.00892485
0.0067121
0.0124464
0.00616807
0.00667755
0.00671177
0.00480943
0.00379238
0.000998465
0.00690522
0.0227333
0.0193719
0.00675828
0.01312
0.0178005
0.00417444
0.0168303
0.0073913
0.0124575
0.00667624
0.00700482
0.00602376
0.00669743
0.0150174
0.0132141
0.00213174
0.00667388
0.0075064
0.00670024
0.00670635
0.026364
0.0237314
0.00670426
0.00682414
0.00388927
0.00671308
0.00727467
0.00671285
0.00576192
0.00672398
0.00677246
0.00678005
0.0168334
0.00577983
0.0105724
0.00682576
0.00681273
0.0174078
0.00670538
0.0236413
0.00529017
0.00677364
0.0132223
0.00680437
0.00474624
0.00673058
0.0171115
0.00674016
0.0068223
0.00669199
0.00677789
0.00671763
0.00679445
0.00130596
0.012763
0.00670457
0.00581326
0.00996264
0.00669398
0.00670167
0.0212262
0.00579612
0.000989228
0.0135629
0.00878144
0.00670483
0.00675768
0.00799732
0.0072191
0.0103697
0.00583629
0.00670153
0.0067528
0.00681321
0.00668432
0.00671601
0.00115105
0.00671015
0.0272509
0.00671255
0.00672677
0.00180661
0.00667714
0.00148389
0.0225711
0.00673836
0.00670816
0.00671481
0.00652762
0.00667373
0.00671291
0.00681593
0.0146914
0.00708449
0.00683755
0.00175438
0.00670492
0.00680056
0.00671936
0.00891021
0.00587092
0.0189479
0.0110664
0.00226216
0.0070074
0.000960864
0.00671493
0.00689437
0.00667584
0.00668409
0.00725914
0.00670885
0.0150311
0.0235299
0.00680865
0.00910659
0.00730633
0.0135585
0.00749296
0.00669579
0.00707132
0.00263423
0.00190102
0.006741
0.00670391
0.00669327
0.00289503
0.0135961
0.017732
0.021507
0.00670726
0.00175243
0.00670431
0.00193264
0.0102417
0.00671009
0.00691937
0.00679123
0.0230976
0.0213157
0.00678807
0.00667531
0.00651421
0.00708363
0.00769068
0.0067834
0.0068342
0.016349
0.0249055
0.00671743
0.00670011
0.0067144
0.00703858
0.00684238
0.0154146
0.00669829
0.00688472
0.00723244
0.00671863
0.00670952
0.0122261
0.00734122
0.00677306
0.00679894
0.00679248
0.00670157
0.00671376
0.000792967
0.0175894
0.00674321
0.00692211
0.00671089
0.00671687
0.00671769
0.00672988
0.0133929
0.0146522
0.00332044
0.0156409
0.00669913
0.0064604
0.00670176
0.00682465
0.00604923
0.00686031
0.00673361
0.00670482
0.00835894
0.00680077
0.00505935