/*--------------------------------*- C++ -*----------------------------------*\
| =========                 |                                                 |
| \\      /  F ield         | OpenFOAM: The Open Source CFD Toolbox           |
|  \\    /   O peration     | Version:  v2012                                 |
|   \\  /    A nd           | Website:  www.openfoam.com                      |
|    \\/     M anipulation  |                                                 |
\*---------------------------------------------------------------------------*/
FoamFile
{
    version     2.0;
    format      ascii;
    class       surfaceScalarField;
    location    "950";
    object      meshPhi;
}
// * * * * * * * * * * * * * * * * * * * * * * * * * * * * * * * * * * * * * //

dimensions      [0 3 -1 0 0 0 0];
oriented        oriented;


internalField   nonuniform List<scalar> 
14470
(
0.0144261
-0.00452006
-0.00991584
0.0017884
0.00117805
-0.020061
0.019947
6.09991e-05
0.000876789
0.0011708
-0.00204759
0.00428981
-0.00453832
0.000220261
0.00555779
-0.00557206
1.52418e-05
-0.00389759
0.00770823
-0.00380994
0.000776447
0.00210747
-0.0028839
0.0157721
-0.00266938
-0.0131285
-0.000646776
-0.00648322
0.00701086
-0.00701645
0.00626868
0.000133618
0.0160275
-0.0163947
-0.00567333
0.00261004
0.00306253
-0.022461
0.016193
0.00616484
0.0113899
-0.0138755
0.00248003
0.00839577
-0.00837602
-1.64498e-05
-0.019721
0.00626836
0.0133802
0.00316105
-0.00265966
-0.000501363
-0.00712062
0.0150589
-0.0083661
-0.00912576
-0.0102763
0.019195
-0.00143883
0.00143883
0.000499606
-0.00247834
0.00197873
0.00252361
-0.00174715
-0.00366564
-0.0020085
-0.00261781
0.0105094
-0.00789421
-0.0169395
0.00522821
0.0115663
0.00174451
-0.0024948
0.000601581
0.00555739
-0.0130327
0.00668234
-0.00166905
-0.00501238
0.0016032
0.000662951
-0.00226615
-0.00540502
0.00487733
0.000528293
0.0184626
-0.0182844
-0.000236763
-0.00345858
-0.0143061
0.0176546
-0.00147204
-0.00132256
0.00182781
0.0053637
0.00420097
-0.00956431
-0.010655
-0.00143847
0.0120819
-0.00132599
-0.007169
0.00849229
-0.00163329
-0.0021306
0.00376387
-0.0113037
0.00791225
0.00339222
6.66967e-05
0.00661673
0.00273979
0.00149783
-0.0042374
-0.000979545
0.00258092
-0.00160134
-4.987e-05
0.00170524
0.00227198
0.0145446
-0.0168457
0.00252014
0.014423
-0.016982
-0.00141019
-0.00117062
0.00258081
0.000233321
-0.00136047
0.00112461
-0.00422718
0.0158432
-0.0117276
-0.00109963
-0.0187024
-0.00700226
0.0123669
-0.00384445
0.00144537
0.0116237
-0.00808847
-0.00353318
0.00383413
-0.00361174
-0.00975781
0.00665854
0.00309983
0.00312201
-0.00224522
-0.016695
-0.000396975
0.0168127
-0.000555552
-0.00655898
0.00711759
0.0100002
-0.014327
-0.00136047
0.00969392
-0.00178648
-0.00791033
-0.00268584
0.00516601
-0.00247988
0.019086
-0.0192882
0.000147233
-0.012809
0.00226464
0.0105439
-0.00091188
0.0048764
-0.0047194
0.000448272
0.0152918
0.00116975
0.00118634
-0.000157496
0.0107636
-0.0106098
-0.000955128
-0.0111033
0.0120483
-0.0041286
0.00123571
0.00289306
0.0192681
-0.00843843
-0.010851
-0.000510052
-0.00341341
0.00392337
-0.00172698
0.00309445
-0.00136746
0.009558
-0.00921061
-0.000347
0.00331732
-0.00509551
0.00177853
0.00269972
-0.00337747
0.000617032
-0.00590286
0.00715973
-0.00125702
0.00464107
-0.00187282
-0.00276814
-0.0196878
0.00507245
0.0146016
-0.0035476
0.00363813
-0.000100667
-0.00039399
-0.00550889
0.00245178
0.000709291
0.0074524
0.000946597
-0.0113791
0.00251943
0.00886002
-0.0116199
-0.00433317
-0.000428787
0.00476243
-0.00410626
0.000600048
-0.00971659
0.00809288
0.00162811
0.00204958
-0.00368291
0.00154888
-0.00423444
-0.00216739
-0.000692401
0.00285978
-0.000173443
0.0030943
-0.00292073
-0.00390948
0.0037362
0.00492478
-0.00831705
0.0033942
-0.00301889
0.00203939
-0.0192403
0.00365772
0.0154982
-0.00141879
0.00473646
-0.00740075
0.000190673
0.00721229
0.0116387
-0.00204363
-0.00959781
0.000308062
0.00391755
0.00201381
0.00185392
-0.00386793
0.0023871
0.00923821
0.00798226
-0.008951
0.000966486
-0.015805
0.0180434
0.00604711
-0.00469818
-0.00134848
0.00371593
-0.00175582
-0.00196005
0.00886214
0.00069529
0.0156938
-0.014767
-0.00127219
-0.0162322
-0.00349308
-0.00120274
-0.0039181
0.00382217
-6.5922e-05
0.00259754
-0.00209794
0.000771785
0.00202787
-0.00279966
0.00184281
0.000485962
-0.00232878
0.00482912
0.0144125
-0.00431705
0.0135559
-0.0092952
-0.00533253
0.0149984
-0.00967585
-0.0149484
0.000276035
0.0146245
-0.000839713
-0.00206635
0.00290606
-0.0139834
0.0165785
-0.00262101
0.00223452
0.0028804
-0.00511487
-0.00941585
-0.00029527
0.00499195
-0.00459627
-0.000395398
-0.000997786
-0.0076469
0.00864735
0.0125511
-0.0140035
-0.0161236
0.00210493
0.00844386
-0.00290936
-0.00553224
-0.00125429
0.0028575
-0.00564919
0.00804378
-0.00239232
-0.00873526
0.00308865
-0.0122673
-2.61813e-05
0.012282
-0.0223114
0.00720184
0.0149289
0.0011272
0.0132862
-0.0114382
-0.000875252
0.0123061
-0.0123358
0.0107573
0.00157683
0.00237972
0.00245495
-0.00483426
0.00012837
-0.00478703
0.00465952
-0.0120705
0.00672918
0.00283172
-0.000184181
0.0079561
-0.00298996
-0.00496411
0.00370266
-0.00269702
-0.00100558
-0.00813461
-0.0196718
0.00599149
0.013641
-0.00114932
-0.00799911
0.00915205
-0.00110027
-0.00157414
0.00267441
0.00142305
0.00221856
-0.00364148
0.0167491
-0.000635453
0.00118777
-0.00260642
-0.0112586
-0.0111961
0.000619209
-0.00430841
0.0174868
-0.013338
-0.0027583
0.00361339
-0.00085508
-0.000434892
0.0120681
-0.00811517
-0.00898066
-0.016879
0.0158296
0.00102349
-0.00302092
0.00436382
-0.00134277
-0.000355913
-0.00801715
0.0186033
0.000420884
-0.0011296
-0.00427496
-0.0126933
-0.00286003
0.0155205
0.00894521
-0.000847836
-0.0109054
-0.00137138
-0.0152583
0.00596696
-0.000542014
0.00272355
-0.0021815
0.00392141
-0.0168748
0.0128987
0.00201908
0.00262213
0.00857578
-0.00759514
-0.000985313
0.00171928
-0.0152779
0.0135212
-0.0145979
0.0163025
-0.00209464
-0.000540566
0.00632484
-0.00594795
-0.0106346
-0.00906759
-0.00195225
0.00304054
-0.00108829
0.00335329
-0.00209908
-0.0012542
0.00190991
-0.00539065
0.00347999
-0.0149567
0.014879
0.00528978
0.000269162
-0.00549328
0.00241987
0.00307381
0.00388674
-0.000919368
-0.00296735
-0.0220972
0.0165593
0.00548903
-0.00274382
-0.00906794
0.011807
0.00419062
0.00185681
-0.00251045
-0.00185127
-0.00756022
0.0151762
-0.0126916
-7.70754e-05
-0.0136448
0.013674
0.000739687
0.00351876
0.00147367
0.00113518
-0.00286215
0.00170257
0.00165074
0.00843556
-0.000456176
-0.0155846
0.0033116
0.0122378
-0.00053528
0.001983
-0.00144773
-0.00328528
0.000547092
0.00273817
0.0100369
-0.00974504
-0.000296138
-0.0133559
-0.00225168
0.0155086
-0.000995757
0.0120141
-0.0110197
-0.00245899
-0.000291333
0.00275032
0.0158265
-0.00672308
-0.00951931
-0.00833684
0.0145469
-0.00926234
0.00988738
-0.000675387
-0.00635142
-0.00932534
0.0156544
-0.00528363
-0.00742306
0.0125803
0.010099
-0.0021673
-0.0079306
0.0133511
-0.0103573
-0.00300005
0.00106338
-0.0031839
0.00212052
-0.0176891
0.00378903
0.0138767
-0.00903322
0.0100623
-0.00102936
0.0142522
-0.0125671
-0.00327923
-0.0110948
0.0143614
0.0044049
-0.00326018
-0.00114464
0.00760301
0.00279847
0.000904233
-0.0133574
0.0136336
-0.000719107
-0.00320261
-0.000925835
-0.00242163
-0.00895696
0.0105434
-0.0119902
0.00144411
-0.0114076
-0.0111274
-0.00322258
0.00560275
0.00941929
-0.0137798
0.00652399
-0.00128312
-0.00524107
-0.00104208
-0.00635656
0.0105171
-0.0159588
0.00249139
0.000180428
-0.00267185
-0.00270949
0.0065789
-0.00387023
-0.00283662
0.00776284
0.0198912
-0.00474771
-0.0152196
-0.00150866
0.00898816
-0.00747564
-0.00707948
-1.74085e-05
0.00709527
0.00547619
-0.00563745
0.000161151
4.9976e-05
0.00542602
0.001984
0.00123418
-0.0032182
0.00503011
0.00253739
-0.0075643
-0.000984219
0.0115272
-0.00479407
-0.00801433
-0.000627162
-0.00265813
-0.00104764
-0.0148848
0.0157659
0.0017708
0.00291322
-0.00107041
0.00479965
0.0105776
0.00835881
-0.00823107
-0.00014145
-0.00232238
0.00506247
-0.0206435
0.0181719
0.00242238
-0.00113294
-0.00286261
-0.00135972
-0.00542428
0.00678658
-0.000490512
0.00667986
-0.00618667
-0.015168
0.00670156
-0.00944961
-0.00950129
0.000467836
0.00778943
0.000151668
-0.00793979
-0.0112497
0.00974049
0.00150285
-0.0170473
-0.00864242
0.00496019
0.00368354
-0.00242834
-0.000234023
0.00266237
-0.00553748
0.0158776
0.00292004
0.00356269
-0.00648335
0.000938771
0.00293811
0.0103067
-0.000887759
-0.00952128
0.00484246
-0.00299767
-0.00271956
0.00228229
-0.0165033
0.000315233
0.016168
0.00070825
-0.00372907
-0.00303416
0.00458706
-0.00155262
0.0120374
-0.0100975
-0.00225184
-0.00362144
0.0129679
-0.00448605
0.00194049
0.00254573
0.00194188
0.00171851
-0.00582265
0.00578701
-2.60552e-05
-0.00172485
-0.00164539
0.00223023
-8.11435e-05
-0.00295287
0.00298235
-0.00352431
-0.00987325
-0.000677918
0.010547
-0.00429766
0.0023386
0.00195919
-0.00606207
-0.000837927
0.00690289
-0.000377926
-0.00247713
0.00208954
0.000387589
-0.00369383
-0.0116128
0.000772095
-0.00204044
0.00126835
0.00365587
-0.000403079
-0.00338039
-0.00748523
0.000403725
0.000731693
-0.00196978
0.00123809
-0.00233208
0.00517127
-0.00283929
-0.00246351
0.00761724
-0.00258404
0.0122609
-0.0122985
0.00795
-0.000494971
0.00132615
0.0120164
-0.0014081
-0.0143637
0.0156703
0.00961388
-0.0150643
0.00541767
0.00229249
0.00211252
0.00509534
-0.0077153
-0.0107174
0.00702283
-5.01312e-05
0.000363148
-0.000377162
-0.00367433
-0.0100483
-0.000469024
0.00279887
-0.00330505
-0.0159914
-0.00283745
0.00112127
0.00171617
-0.0189847
0.0050516
0.0136104
0.00105346
0.015674
-0.0168297
0.00192822
0.000673852
-0.00338215
-0.0174521
0.000483756
0.00249232
-0.0025966
0.000104279
0.00357381
-0.00215065
-0.00568896
0.00321684
0.00247184
0.00175141
0.00847444
-0.0102345
-0.00843224
0.00728629
0.00195206
-0.00894229
0.00797351
0.000969708
-0.00306405
0.000305764
-0.0159013
7.43869e-05
0.00241605
0.00217134
-0.011667
0.000777281
0.0108894
0.0193244
-0.00480822
-0.000567696
-8.00156e-05
0.0174146
0.000987936
-0.00351065
-0.00513041
0.00117805
0.00199296
-0.0135519
0.0154648
-0.00193326
-0.00574712
-0.000998676
0.00674396
0.0171409
0.000581468
0.0122388
-0.0128349
0.000746621
0.00581017
-0.00655809
-0.000601241
0.00670504
-0.00610247
0.0156498
-0.0192252
-0.0150231
-0.000116872
0.015098
-0.00952387
0.011266
-0.0028149
-0.00222674
0.00504194
-0.00212647
3.68559e-05
0.00208961
-0.0151418
-0.00496237
0.000955952
-0.0160624
0.00204622
0.0107806
-0.0129105
-0.00239327
0.000441027
-0.00177072
0.00254282
-0.00278307
0.00347364
-0.000690562
-0.0144538
-0.000605213
0.0148876
0.00540411
-0.00600419
-0.00696784
0.00121896
0.00378941
-0.00217156
-0.00161782
0.00841323
-0.00353947
-0.00487083
-0.00123503
-0.0138411
0.0149191
0.000671928
0.0145633
-0.0153713
-0.0124729
0.0144252
0.0074686
0.000483974
-0.00225481
0.0151927
-0.0129596
0.00254894
-0.00033768
-0.00221125
0.0104298
-0.0143551
0.003874
0.0172529
-0.0211515
0.00369556
0.00671453
-0.00180833
-0.00490629
-0.00135375
-0.00148372
-0.00152255
-0.00167994
0.00269048
-0.00425567
0.00384024
-0.00182654
-0.0083649
-0.00263904
0.0110051
0.00243919
-0.000828867
-0.00161032
-0.00340196
0.00198967
0.00141231
-0.00116368
0.00314768
0.000639058
0.0100744
-0.0107145
-0.00566819
-0.00563429
0.00459018
-0.00446098
0.000861147
-0.00302856
0.00190513
0.00140743
0.0051053
-0.0065152
0.00109232
-0.00305081
0.00187584
-0.000722845
-0.00915343
-0.00282855
-0.0129073
0.0156175
-0.0181943
0.0160376
0.00181423
-0.0150489
0.0127728
-0.0162648
0.0137805
0.0022674
-0.000322243
0.000322243
-0.000780064
0.00332903
-0.00717175
-0.000107091
0.00654275
-0.00643373
-0.0105229
0.00943641
0.00108677
0.0016072
0.00440649
-0.00601287
0.0114152
-0.0127833
-0.00771857
0.0102383
0.00248936
7.65638e-05
-0.00256592
-0.00376525
0.00138924
0.00237599
-0.00436854
-0.000680168
0.00504784
0.00101958
0.00739727
0.0183637
-0.00132795
0.00986382
-0.0092257
0.00230665
0.0175782
0.00286809
0.00171615
-0.00458411
0.00516106
-0.00805935
0.00199661
0.00199952
-0.00352193
-0.0037572
0.00575649
-0.00199895
-0.00524388
0.00134677
-0.000462231
-0.00232083
-0.00612566
0.00687105
-0.00957419
0.000951488
0.00833308
0.0193883
-0.0181983
-0.0012835
-0.0050647
0.000278438
0.00483098
-0.00196275
-0.0148648
-0.0028482
-0.00195528
-0.00144667
-0.000902327
-0.00897709
-0.0115865
0.00873133
0.00276692
0.00257293
-0.00184123
0.00346538
0.00971545
-0.0066148
-0.0156651
-0.00740487
-0.000192973
0.0141684
-0.00379438
0.0141948
-0.0103184
0.00364422
-0.00577657
0.00213196
-0.00381816
0.00330801
0.00222152
-0.0094333
0.00720994
0.00811571
0.00191636
0.0150919
-0.0074141
-0.0079614
0.0164896
-0.000436063
-0.0161284
-0.00186641
-0.00272949
0.00733034
-0.00713748
0.0178389
-0.0181381
3.26613e-05
-0.00975287
0.00964836
7.79059e-05
-0.00521397
-0.0045432
0.00621268
0.000100733
-0.00631559
-0.00828797
0.0105074
0.000739533
-0.00231367
-0.00978173
0.000450785
-0.0185985
0.00421478
0.00234692
-0.00422595
0.00187909
0.00715043
0.00767831
0.000289859
-0.0027182
0.00150234
0.00238444
0.0134153
-0.0135375
-0.0177535
0.000831907
0.016861
-0.00447253
0.0140555
0.0107943
-0.00588965
0.0165657
0.00452446
-0.00267073
0.000886368
-0.00100729
-0.00347863
0.00901765
0.0145278
-0.0147423
0.000195617
0.00701484
-0.00801027
0.00704706
-0.00837561
0.00104033
-0.0031067
0.00113081
0.00856074
-0.00339271
-0.00112756
-0.00922866
-0.000108194
0.00368215
0.00186101
0.0130571
-0.0149453
-0.0167632
0.00404666
-0.0148098
0.00650811
-0.00224752
0.0198531
-0.00477233
-0.0152366
-0.0149585
-0.000718654
0.0155989
-0.0149889
-4.79962e-06
-0.00838063
0.00819717
-5.7219e-05
-0.00149684
-0.0108169
0.0123083
0.0118282
-0.0105095
0.00452472
-0.00588227
-0.00213703
0.00210718
-0.0010194
-0.00316733
0.00070834
0.000448387
0.00862955
-0.00908154
-0.00436132
0.000604355
-0.00267309
0.00019595
-0.0148589
0.000666057
0.00604805
0.00231651
0.00539247
-0.0150899
0.0127425
0.00715515
-0.00921224
0.0013155
-0.0166647
0.0126374
0.00399306
0.00241556
-0.00625474
0.00383923
0.00530341
-0.00613881
-0.00169238
0.0127508
-0.000800528
-0.0119788
0.00110502
0.00870907
-0.00366273
0.00534398
-0.00168161
-0.00279897
-0.00269392
0.0018432
0.00384292
-0.00550659
-0.00766666
-0.00923229
0.00115741
-0.00755584
0.00639787
-0.00239364
0.00122302
-0.00427061
0.0019384
0.00249241
0.0051766
-0.00767438
0.000451519
0.0113566
-0.0118186
-0.0033604
0.00628
0.00454263
-0.00252341
0.00273874
0.00337071
-0.00610739
0.011386
-0.015688
0.00428585
-0.0212518
0.00719107
0.0138954
-0.00211744
0.00318083
0.0187867
-0.0178931
-0.000975015
-0.00304732
0.00546759
0.00540913
-0.0016423
-0.00376623
0.0150786
0.00246741
-0.00153052
0.00451296
-0.00912599
0.0100837
-0.000958351
-0.00204265
-0.00105374
0.00309633
0.0167031
-0.000299548
0.00150888
0.00147214
-0.00298102
0.00240685
-0.00460232
0.00219602
0.0124279
-0.00104198
-0.00252671
0.00446739
-0.0171196
-0.00220893
0.00177331
0.00201615
0.00225347
-0.014108
0.0118056
-0.0171747
0.0160671
0.001009
-3.52861e-05
0.0062669
-0.0179943
0.016821
-0.00267908
-0.0132062
0.0167909
0.0059579
-0.0161233
0.0100401
-0.00181885
-0.00936496
0.0111749
-0.0158888
0.0151031
-0.0142142
0.00821814
-0.00500333
-0.00321376
0.0168025
-0.00669073
-0.0101156
-0.00940293
0.00417658
0.00549782
-0.00990842
-0.00730862
0.011206
0.000517005
0.00197235
-0.00376342
0.00494674
-0.00118346
-0.00781104
0.0102964
0.00547193
-0.000200175
0.0120196
-0.000469015
0.0140882
-0.0136363
-0.00112453
0.00822969
-0.0142129
0.00135178
0.00212187
0.0158421
-0.00156924
-0.00121942
0.00217234
0.00142733
0.000928766
-0.00235609
-0.00212585
0.00362384
0.00797387
-0.000182931
-0.00166875
0.000157318
0.00132502
-0.00463122
0.0165775
-0.0119753
-0.00569446
0.00563758
-6.03002e-05
-0.00312613
-0.00335829
-0.0135922
2.37901e-05
-0.00721218
0.00922962
-0.00201837
-0.000506344
-0.0107656
0.0112609
-1.97874e-05
0.00251117
0.000124056
0.00348591
0.00235843
-0.00118867
0.000655542
-0.0023418
0.000519305
-0.0048336
0.00201894
0.00380297
0.0113832
-0.0152464
-0.00355566
-0.00605596
0.00961607
-0.00239895
0.00216492
-0.011832
0.0140319
-0.00211998
0.00454901
-0.00242875
-0.0177414
0.0173881
0.000307921
0.000582491
-0.00081275
-3.18905e-05
0.0159183
0.00304309
0.00371294
-0.00587506
0.00216267
-0.000139023
-0.00304489
-0.0107048
0.000935739
0.0128958
-0.00607053
0.000909196
-0.00393638
-0.00145803
0.00641926
-0.00190979
0.0034187
0.00161156
-0.0087822
-0.00288943
0.00376878
-0.00152644
0.00573544
0.00142442
-0.00180534
-0.000419046
0.0021246
0.00766903
-0.012326
0.000139115
0.0142897
-0.0145212
-0.00293317
0.00746072
-0.00993256
-0.000410392
0.00988673
0.00447628
0.00210114
-0.0157243
0.00812485
-0.0020491
-0.0124109
0.0144385
0.00260188
0.0062077
-0.00880878
0.00508655
-0.00492099
-0.000165329
-0.00215987
-0.00376138
0.0059223
0.0168066
-0.00123308
-0.0012073
0.00213986
-0.00539325
0.00259458
-0.00102827
0.016605
-0.015611
0.0148351
-0.00062572
0.00157592
-0.00738198
-0.00865291
-0.00391072
-0.00341017
-0.00198289
0.0108001
-0.0117845
0.00228804
-0.0044078
0.00578547
-0.000466687
-0.00531802
0.00636593
0.00160483
-0.00797131
-0.00914589
0.00802247
0.00112488
0.000896032
0.00167691
-0.0116422
0.000197464
0.00196687
-0.00509386
-0.00277269
0.00171975
0.00105296
-0.0030146
-0.00181877
-0.00268428
-2.53961e-05
0.00270974
0.001737
0.00367283
-0.00527374
0.0147662
-0.00712311
-0.00250498
0.000378511
0.0103058
-0.00770305
-0.00209134
0.000783196
-0.00379763
-0.00229621
0.000416169
-0.00200507
0.00741618
0.00055943
0.00551036
-0.00514109
-0.000367938
-0.00424684
-0.00275532
0.00699949
0.000992225
-0.002346
-0.00195002
0.0033962
-0.00144615
-0.00449384
0.0107026
0.00569184
-0.00017993
0.000738834
0.00762587
0.00454077
-0.00131188
-0.00322878
0.00972462
0.0146283
-0.0108828
-0.00235022
-0.0127226
-0.0147853
0.00190736
0.0128575
-0.000279649
0.00761212
-0.00213149
0.00336567
0.00444872
-0.00210997
0.00277445
-0.000951066
-0.00182338
-0.011717
0.0108346
0.00763637
-0.00863318
0.0011271
-0.00316988
0.00239623
-0.00423682
0.00184055
0.0123043
-0.0123463
3.15141e-05
-0.00710742
4.93229e-05
0.00706142
0.00718259
-0.010471
0.00245895
-1.97642e-05
-0.00426613
0.00790967
0.0136453
-0.00409252
-0.00159671
-0.00210939
0.00445642
0.000702721
-0.00265272
0.00393901
0.000327955
0.00978328
0.0041765
-0.00208107
-0.00209525
0.00168484
0.00841434
0.00489224
-0.00137305
-0.00844895
0.00489699
0.00596021
-0.00435203
-0.00256977
-0.00763055
0.0102002
-0.000883629
-0.0180989
0.0130736
0.00497499
-0.000450726
0.0162532
-0.00850683
0.00182167
0.00668709
-0.00020674
-0.00123383
-0.00476772
-0.00373668
0.00635794
-0.00419102
-0.002166
0.00116035
-0.00506668
0.00390685
-0.000927367
-0.000210527
0.00102044
-0.000482921
-0.00377565
0.00414492
-0.0156543
0.00265548
0.01298
0.0140122
-0.000705922
-0.0133547
-0.00365123
-0.00103122
-0.0132292
-0.00745736
0.00637908
-0.000592751
0.00622033
-0.00380452
-0.000303595
0.00139375
-0.000348394
0.00564089
-0.00392459
-0.000128887
-0.0145882
0.0144592
-0.00184992
-0.000922761
0.00024986
-0.00840252
0.00815653
0.00618689
-0.00627155
8.44564e-05
-0.000757374
0.00518629
-0.00277888
0.0149605
-0.00459248
-0.0108
-0.0141082
0.00967041
-0.0010917
0.0068272
-0.00658371
0.0158246
0.000708342
-0.00854854
0.0074477
0.00110451
0.000832676
0.00285298
-0.00368603
0.00588305
-0.0134019
-0.00691119
0.00481863
-0.00333497
-0.00148366
-0.00878202
-0.00247154
-0.00167643
0.0016993
0.00311927
0.000508578
-0.0155409
0.00740429
-0.00529558
-0.00858348
0.0120559
-0.00877199
0.0168655
-0.00118699
0.00428186
5.37675e-05
-0.00433565
0.00183612
-0.00184159
0.00315087
-0.00130926
-0.0124276
0.014262
0.000398005
-0.015456
0.0169102
-0.00150888
-0.0155764
0.0136796
-0.00262416
-0.0110655
0.0121397
0.00465679
-0.0115193
0.00909813
0.00177848
0.00143819
-0.00321674
-0.0087476
0.00900163
-0.00771887
0.00191307
0.00262972
-0.00916864
0.00738615
-0.00102059
0.0146805
0.00109213
0.00275742
-0.00120501
-0.00155241
0.000782031
0.0114676
0.000277861
0.00641772
-0.00722994
-0.00312137
0.00428216
-0.00225527
0.00196393
-0.00458489
-0.0137849
-0.000603076
-0.0170456
0.00131803
0.00498958
0.00954701
-0.00928742
0.00477306
0.000189957
-0.0049624
0.000235819
0.012914
-0.013167
0.00336872
-0.00629911
-0.000548257
0.0128414
0.0154303
-0.000800771
-0.00562653
0.00346759
-0.0026197
-0.000692917
0.00331265
-0.00676344
0.00599972
0.000765846
0.0022722
0.0150473
-0.0114323
0.013935
-0.00266265
0.00422658
-0.00651051
0.00228449
-0.00861668
0.00503434
0.00129396
-0.00632804
0.00335202
-0.0183585
0.0147604
-0.000712773
-0.0170792
-0.00224347
0.00272943
0.0012207
-0.00158866
-0.00677386
0.000217924
-0.000875992
0.00584536
-0.00496963
0.0016073
-0.00103621
0.00327028
0.00863509
-0.0119374
0.0020485
0.000596366
-0.00264483
0.0016461
-0.0038702
0.000363148
-0.0022163
0.00307743
0.00361368
-0.00786316
-0.00495696
0.000624213
0.0060776
-0.00707826
-0.0142822
0.0136491
0.000245219
-0.0028649
0.00268962
0.000837865
-0.0166841
0.000754835
0.0158859
-0.0122844
0.0155136
-0.00785449
0.00889221
-0.00103652
-0.00241839
0.00224176
0.000176628
-0.000380202
0.0105238
0.0161205
-0.0158248
0.00906173
-0.0157065
-0.0180192
-0.0146629
-0.00902254
-0.00911126
0.000437146
-0.00312138
-0.00873426
0.000881223
-0.012317
0.0108145
-0.0134623
0.0130062
0.000212513
-0.00207498
0.0029924
-0.00590003
0.0124986
-0.0100232
0.00625955
-1.35245e-05
0.0158945
0.000833755
0.00481067
-0.0145628
0.00974601
-0.00245029
0.00274015
-0.00371188
-0.0021658
0.00587606
0.0125658
0.00194164
0.000932876
-0.000490104
-0.00781561
0.00759217
-0.0101621
0.00422585
-0.00211522
-0.00211052
-0.00285031
0.000710262
0.00214004
-0.0194678
0.00264064
0.0167262
-0.00798399
-0.00190227
0.00287165
-0.000969409
0.00516626
-0.00667211
-0.00705245
0.00679742
-0.00572984
0.00704765
-0.00257258
0.000822655
-7.88964e-06
-0.000876231
0.00627469
-0.00620697
-0.000395062
-0.000597929
-0.00316732
0.000584604
0.00510122
0.000130991
0.000643883
-0.00187314
0.000350551
0.0123705
-0.00985279
0.00856205
0.00129186
0.000530685
0.0134288
0.00954879
-0.0102307
-0.00527219
0.00667712
-0.00213339
-0.00192787
0.00406118
-0.00925415
-0.00997064
0.00216421
0.0175233
0.00132803
-0.00165069
0.0179759
-0.00198259
0.00888407
0.00128938
-0.010199
-0.0131254
0.013081
-7.28233e-06
-0.00712958
-0.0126585
-0.0044688
0.00841613
-0.00394464
-0.00591258
0.00154295
-0.000544737
0.00801549
-0.00576657
-0.00277909
-0.00904016
-0.0124135
0.00250243
-0.00149375
-0.00100868
0.00249095
0.00414147
-0.00663228
0.0152625
0.00136013
0.00806908
-0.00353434
-0.00453561
0.00118089
-0.00243518
0.00248309
-0.0140426
0.000201159
0.000896696
0.0152742
-0.0163004
0.00433928
-0.00583956
0.00150088
-0.00706754
0.00260195
-0.00207852
-0.0134437
-0.00910265
-0.00231859
0.0114214
-0.0168839
0.012923
0.00353303
-0.010526
-0.00164441
0.000718471
0.00234355
0.00302756
-0.00537056
0.0143757
-0.00551773
0.00380902
-0.00423739
-0.0158739
0.0151104
0.000626559
-0.000329635
0.00573713
-0.00540658
-0.0167581
-0.00120164
0.0176295
0.0135119
-0.00150172
0.000880946
0.0144503
-0.0153683
0.000424317
0.0103776
-0.000191208
-0.003472
0.00277759
-0.00135026
-0.00867237
0.00834759
0.00491996
0.00314759
0.00963866
-0.000646574
0.0174082
0.00280987
-0.00191383
-0.000477107
0.000971005
0.00718532
-0.00815251
-0.0123141
-0.00281086
0.0150731
-0.011181
-0.00187035
0.00277655
-0.000906194
-0.0150164
0.0157876
-0.00124759
-0.0156407
0.000596675
-0.0107324
0.00109805
0.00963134
-0.00618481
-0.00878336
0.0149372
0.00176225
0.00145339
-0.00317462
-0.013386
0.00205119
0.00249815
0.00330927
-0.00126072
-0.00273647
0.000688877
0.000520976
-0.00428458
0.00118789
0.00131454
0.00053835
0.00419971
-0.0061268
0.00192664
-0.00338682
0.00163106
-0.000607925
0.0005938
-3.63298e-05
0.0131214
-0.00358333
0.0143572
-0.0111475
0.00228892
0.00367234
-0.00121621
0.0160318
0.00136054
0.00179035
-0.00630183
0.00745876
-0.00603999
0.000776373
0.00526485
-0.0167879
0.0142975
0.00246531
0.00205414
-0.00424078
0.00218676
0.0018453
-0.00229007
0.000444768
-0.000868392
0.00293775
-0.00206936
-0.00779126
0.00923067
-0.0014379
0.00975966
-0.00908599
-0.00067269
0.0012623
-0.00467268
0.00149778
0.00211564
-0.0165624
0.00220028
0.0141266
0.000707792
-0.00285147
0.00214364
-0.00228197
-0.00328938
-0.00463902
-0.000425205
0.00506457
0.000196893
0.00296974
-0.00316654
-0.00295391
0.00418985
0.0122983
-0.00256476
-0.0144292
0.0115617
0.00285978
0.000623339
-0.0110106
-0.00238491
0.00980079
-0.0074121
0.00148429
0.00161017
0.00173665
0.00130389
-0.0039319
-0.00973145
0.0133161
0.00230515
-6.91734e-05
-0.00223598
0.00151786
0.0109738
-0.00591245
0.00196653
-0.00410006
-0.00338805
0.00422029
0.00150758
-0.00489634
0.0141144
-0.0135678
-0.00744895
-0.00867655
-0.00121409
0.00989151
0.0120326
-0.0119794
-0.00368683
0.00136546
0.000640259
-0.00879567
0.00806273
-0.0023062
-0.00119084
0.0034971
0.00277386
-0.000401167
-0.00332381
-0.000324232
0.0142939
-0.00665644
0.00484757
0.00180958
-9.12632e-05
-0.00392596
0.00621612
1.17881e-05
-0.0100599
0.0100383
0.00332969
-0.0016271
-0.00258413
0.00387426
-0.00129008
-0.00206664
0.00485284
-0.00278607
0.00871654
0.00179064
0.000187548
-0.00208549
0.0108441
-0.0108429
0.00173042
-5.89321e-05
-0.0175569
0.0146614
0.00215933
0.00577786
-0.000743052
0.00742949
-0.0101159
0.0149379
-0.0159985
-0.000605236
-0.00926149
0.00986708
-0.00202042
0.00273068
0.0111972
-0.0098633
-0.00133196
-0.00143423
0.0148507
-0.0134365
-0.00120197
0.00359819
0.0193862
-0.0190276
0.00229706
-0.000529434
-0.0134267
0.000949509
0.0150161
0.00381266
0.0078772
-0.011699
0.0020953
-0.00210233
7.02599e-06
-0.00563766
-0.000550826
0.00234446
-3.93197e-05
-0.00463373
0.00122022
0.000613081
0.0136852
-0.00114173
-0.0102001
0.0014029
0.00879838
0.00010726
0.00094583
-0.0153672
0.0141815
-0.0158634
-0.00158734
0.017332
-0.00187877
-0.00161969
0.00349852
0.00890594
-0.000930076
0.0112746
-0.0110534
-0.00781174
0.00649129
-0.00527391
0.00168864
0.00285226
0.0180189
-0.0132148
-0.0031922
0.00607278
0.0166376
-0.0126639
0.00841717
-0.00313175
0.00351079
-0.000379043
0.00592282
-0.000160283
-0.00576129
-0.00608484
0.0124749
-0.0148485
-0.0158568
0.0155691
0.000154696
-0.00201476
0.00275429
-0.00139269
-0.00278565
0.00417818
0.00329645
0.00234465
0.00134865
-0.00217752
-0.0135835
-0.000154082
-0.00268884
-0.0121121
-0.00401287
-0.0142964
-0.000152205
-0.00209127
-0.000974854
0.0105195
0.00434667
0.00203664
-0.00638197
0.000777085
-0.0103078
-0.00341666
0.0161171
-0.0127463
-0.0121039
0.00291168
-0.00387987
-7.87409e-05
0.00428879
0.0116554
0.00519229
-0.00552103
0.00273518
0.0154197
-0.00205519
0.00123369
-0.00385731
-0.00137117
-0.00916612
-0.00937932
-0.0102006
-0.00381872
0.00313793
-0.00142259
-0.00131388
0.00124182
0.00791324
0.00274046
-0.00120202
-0.00153844
0.0141996
0.00128812
-0.015707
0.00875772
-0.0013402
-0.0102456
0.0106876
0.0031735
0.00171922
0.00194398
-0.0163921
-0.0012171
-0.00784271
-0.000644887
0.00848558
-0.00604533
-0.00115078
-0.00630754
0.0074575
-0.00220247
0.00679343
-0.00405243
0.00214461
-0.00446671
-0.00409872
0.00352764
0.000571211
-0.00320219
0.0145697
-0.000313459
0.00401867
-0.00370556
-0.00245542
0.00263582
-0.0113248
0.0101944
0.0011288
0.00124503
0.00311894
0.00536654
0.000992437
0.0149888
-0.0174667
0.0023769
0.0107076
-0.00993763
-0.0074572
0.000447825
-0.00176931
0.0157401
-0.00843762
-0.0136611
-0.0105608
-0.0124105
0.0119264
0.00145112
0.0152038
-0.0167609
0.0175653
-0.0136722
-0.00391735
0.0157805
0.00322863
-0.0014502
0.00187476
-0.0109768
0.0112674
0.000192068
-0.011468
0.00470863
0.0167916
-0.00318297
-0.013783
0.0167754
-0.0163986
-0.000400798
-0.00779468
-0.000650692
0.00844703
-0.00276063
0.00473625
-0.00197525
-0.000596334
0.00487816
0.00645886
-0.000183093
0.00565461
-0.00312721
0.00254015
-0.00207306
0.00317807
-0.00110499
-0.00635265
-0.00354224
0.00989752
0.00165298
0.00116806
-0.00282104
-0.00744063
0.00363292
0.00380866
-0.000834691
-0.0089145
0.00201707
-0.0108862
0.0121507
-0.00127368
-0.00156648
-0.00164812
0.00321462
-0.002601
0.000730648
-0.00714107
0.00213861
0.00306295
0.017051
-0.00136493
-0.0146876
0.0153035
-0.000648379
-0.00472648
0.00908979
0.00155029
-0.00235609
0.000805809
-0.00152154
-0.00885029
0.010371
0.0144723
0.000901862
-0.000749095
-0.00364485
0.00174253
-0.00542673
0.00334262
0.00208464
0.0116786
-0.000420829
-0.00830181
0.00444282
-0.00531909
0.00190949
-0.00792138
0.00601387
-0.00981455
-0.00151033
-0.00225904
0.0029668
-0.00175695
0.00505365
0.00542903
-0.0176891
0.0122347
0.0045991
-0.0030921
-0.00482965
-0.000310104
-0.00713556
0.00243662
0.00469852
-0.00129113
-0.00280743
0.00199501
-0.0117258
0.000412268
8.20684e-05
-0.0158439
0.00269048
-0.0061238
0.00433561
-0.00312703
0.00224348
0.000883555
0.00976194
-0.00459297
0.00143842
-0.0036785
-0.000309949
0.00439045
-0.00407988
0.00107136
0.0114016
-0.0127158
0.000494335
0.00199798
-0.00179228
-0.000166963
0.00195924
-0.0138683
0.000166788
-0.00226586
-0.00439459
0.00167961
0.0174072
-0.00252707
-0.0135501
0.000377811
0.00203315
-0.00418907
0.00215538
-0.00322819
0.000644106
1.73976e-05
-0.00610295
-0.00145332
0.00246671
-0.0154862
0.00294334
0.00190967
0.000441623
-3.76767e-05
0.00258849
-0.0100227
0.00743537
0.0133686
0.00242889
-0.011613
0.00917273
-0.00138687
0.0157998
0.00369596
0.00217333
-0.00586875
-0.00187689
-0.0104457
-0.00244444
-0.00469147
0.00311807
-0.00946818
0.00490891
-0.00472195
-0.000344089
0.0053279
-0.00121055
-0.00411686
0.000729148
-0.0106593
0.00229597
0.00140281
-0.00319307
0.00128331
-0.00607478
-0.00416106
-0.0116305
0.0157292
0.0169004
-0.0155565
0.00691506
-0.011123
0.0159999
-0.0051273
-0.0108774
0.0023557
-0.000501032
-0.00185466
-0.00342166
0.00154296
0.00462939
0.000133584
-0.00736801
-0.00328932
-0.0141268
-0.0026508
0.00404819
-0.00139731
0.00621347
-0.0019869
-0.00344711
0.0147032
0.00330267
-0.00178838
-0.00151427
-0.00211913
-0.0121971
0.0141053
0.00564232
0.000733879
-0.00637509
-0.00205814
-0.00106889
0.00189594
0.0143358
-0.0164501
-0.000492246
0.00233755
-0.0028531
0.00469947
0.000628981
-0.0012852
0.00246609
-0.0021622
0.00585889
-0.0121018
-0.00200827
0.0140638
0.0102992
-0.0121817
-0.00172802
0.00307667
0.00115961
-0.00329112
-0.00246003
0.012751
0.00163776
0.0011027
0.00640969
-0.00845536