/*--------------------------------*- C++ -*----------------------------------*\
| =========                 |                                                 |
| \\      /  F ield         | OpenFOAM: The Open Source CFD Toolbox           |
|  \\    /   O peration     | Version:  v2012                                 |
|   \\  /    A nd           | Website:  www.openfoam.com                      |
|    \\/     M anipulation  |                                                 |
\*---------------------------------------------------------------------------*/
FoamFile
{
    version     2.0;
    format      ascii;
    class       volVectorField;
    location    "950";
    object      U;
}
// * * * * * * * * * * * * * * * * * * * * * * * * * * * * * * * * * * * * * //

dimensions      [0 1 -1 0 0 0 0];


internalField   nonuniform List<vector> 
9793
(
(0.970501 -0.0151586 0)
(-0.166451 -0.0858699 0)
(0.994685 -0.00585219 -1.61694e-20)
(-0.151334 -0.32648 -4.57794e-20)
(0.999963 -0.000547843 4.04397e-22)
(1.27241 0.15979 6.19687e-20)
(1.18501 -0.20345 0)
(0.201212 0.046345 2.04632e-19)
(1.02124 -0.0237094 2.72141e-21)
(-0.179676 0.00315224 1.34038e-19)
(1.00009 -0.00201218 -5.89003e-21)
(1.0001 -0.00228201 0)
(1.0025 -0.00665068 -8.16893e-23)
(-0.382876 0.00432582 0)
(1.01599 -0.0131996 -1.06618e-21)
(1.02359 0.0172152 2.22562e-21)
(1.15503 0.0131975 -5.7433e-20)
(0.996682 -0.00742086 -7.30177e-21)
(0.205418 -0.108285 -3.23827e-20)
(1.01165 -0.00325907 0)
(1.01508 -0.00542164 -9.3798e-22)
(0.999994 -0.000151592 -6.52975e-21)
(-0.257271 -0.0606562 -7.81516e-20)
(0.235647 0.0233242 -3.31867e-19)
(-0.323848 -0.0416918 -9.81348e-21)
(0.939069 -0.0582134 9.68607e-21)
(1.00034 -0.00369507 0)
(1.00002 -0.000419688 -5.7578e-21)
(1.01158 -0.00335703 -1.68847e-24)
(1.22512 -0.0747524 7.42073e-20)
(-0.437256 -0.0845138 1.76444e-19)
(1.37896 0.149967 -7.07355e-20)
(0.997684 -0.00428276 6.37456e-21)
(0.998876 -0.00760321 -5.37358e-21)
(1.00412 -0.000348396 -2.51193e-21)
(1.06131 0.0127476 -9.07306e-21)
(1.02713 0.0109189 8.91766e-21)
(0.927534 -0.00336764 2.09111e-20)
(0.335351 -0.0798165 1.18729e-19)
(1.08677 -0.0280639 2.82914e-21)
(1.21019 -0.0739544 -5.57716e-20)
(1.37652 0.390474 0)
(0.469783 0.281196 0)
(1.00001 -0.000307607 8.88654e-21)
(0.994089 -0.0016677 -7.15192e-21)
(0.997456 -0.00137656 -6.17351e-21)
(-0.461008 -0.00264172 1.6555e-19)
(1.00002 -0.000307991 0)
(1.01836 -0.00349804 -1.47437e-21)
(0.996432 -0.0071313 6.81421e-21)
(1.05862 0.0148224 -6.75484e-22)
(1.00436 -0.000420967 2.86107e-21)
(1.09787 0.0161475 3.17259e-20)
(1.00001 -0.000581929 0)
(0.929634 -0.11919 0)
(-0.177781 -0.327798 -2.98767e-20)
(1.00265 -0.00604905 -1.67546e-22)
(1.08734 0.14832 0)
(1.01847 -0.0037643 -1.56732e-21)
(1.00001 -0.000169918 -6.048e-21)
(0.915357 -0.0220627 3.43654e-20)
(0.884783 -0.346173 -3.04584e-20)
(0.996011 -0.00605998 -7.32465e-21)
(1.03974 0.0436613 -6.57068e-21)
(1.00244 -0.00095836 0)
(1.02016 -0.0227552 -3.06572e-21)
(-0.499 -0.040151 -2.1338e-19)
(1.04865 -0.0174058 -1.4608e-20)
(1.02501 0.0124888 1.15619e-20)
(1.06016 0.380742 -1.30679e-19)
(0.983937 -0.00888824 1.04996e-20)
(0.603711 0.00737794 -8.48352e-20)
(0.076549 0.0781501 0)
(0.601171 0.0632175 1.42393e-20)
(1.20452 0.420749 2.38339e-20)
(0.999987 -0.000666123 -1.44861e-21)
(0.830223 -0.14269 2.46e-20)
(1.52005 0.262302 0)
(0.996281 -0.00438438 0)
(0.999986 -0.000513135 -7.78821e-21)
(0.814665 -0.14634 -6.0563e-20)
(0.214372 -0.0517972 -5.26426e-20)
(1.14473 0.0170657 0)
(0.995482 -0.0604215 6.73353e-21)
(1.02656 0.0126621 1.57028e-21)
(1.37429 -0.0813013 9.23869e-20)
(0.999978 -0.000615236 7.23074e-21)
(1.01426 0.110048 1.69221e-20)
(0.319766 -0.0395442 0)
(0.867981 -0.328071 1.96735e-20)
(-0.332012 -0.165338 -5.23998e-20)
(1.50882 -0.143924 1.02821e-19)
(1.4977 -0.163212 -1.00109e-20)
(1.12177 -0.0764301 -6.12275e-20)
(0.474967 0.280541 -1.33944e-19)
(0.998217 -0.00936146 -8.93911e-21)
(1.19243 0.413243 -4.79214e-20)
(1.1571 -0.0188872 7.19436e-20)
(1.04847 -0.0391892 1.14169e-20)
(0.999976 -0.000473947 0)
(-0.423257 -0.218901 -4.97219e-20)
(1.09443 0.0126454 -1.15912e-21)
(0.276522 0.0195932 8.6397e-20)
(0.994522 -0.00183033 -6.56602e-21)
(1.22164 0.551833 0)
(1.31872 0.284052 -1.76602e-19)
(0.634859 0.030917 -1.01599e-20)
(1.00399 -0.00470363 1.59777e-21)
(0.996239 -0.00410271 -4.04564e-21)
(0.999992 -0.000269597 0)
(1.00009 -0.000864126 -5.6229e-21)
(-0.304342 -0.0810107 7.95492e-20)
(0.101305 -0.153196 -1.57423e-19)
(-0.321805 -0.0726263 0)
(0.98478 -0.00935719 2.32538e-20)
(0.999549 -0.00350775 -8.89792e-21)
(1.01789 0.00813927 5.92076e-23)
(0.997781 -0.00198786 0)
(-0.186063 -0.369028 6.7596e-20)
(0.996985 -0.00113942 1.83755e-20)
(1.18356 0.619495 5.01338e-21)
(1.01758 0.119802 2.26398e-20)
(1.17224 0.405416 0)
(1.08895 0.0477214 -3.37907e-20)
(1.02873 0.0106829 0)
(0.997126 -0.000968056 -1.7259e-20)
(1.17664 -2.88511e-06 0)
(-0.398757 -0.0906315 2.38503e-21)
(0.927547 0.195075 0)
(0.910637 0.189281 -2.48987e-21)
(1.03774 0.0013759 0)
(1.00619 -0.00934764 0)
(0.972118 -0.0158294 0)
(1.04208 -0.0162556 0)
(1.05961 0.00713241 1.28279e-20)
(1.28264 -0.200665 0)
(1.22726 0.281838 0)
(1.01876 0.00859224 5.3673e-21)
(1 -0.0005067 0)
(1.16473 0.0387456 0)
(0.297391 0.0967631 -5.38174e-20)
(1.06187 0.00917155 -1.82128e-20)
(0.989708 -0.015491 0)
(1.02789 0.0884526 3.44296e-22)
(-0.415834 0.0133311 0)
(1.2192 -0.454051 -1.65945e-19)
(0.9971 -0.000493627 -1.5515e-20)
(1.19986 0.417295 -4.74105e-20)
(1.00606 -0.00963301 0)
(0.996982 -0.000698013 1.68736e-20)
(0.999757 -0.00391457 3.75305e-21)
(0.3665 -0.146094 -9.30707e-20)
(1.04533 -0.037662 -1.30974e-20)
(1.00028 -0.00374295 0)
(0.988749 -0.00262837 8.61863e-21)
(1.47818 -0.21554 -4.49765e-20)
(1.16221 0.0207315 9.39202e-20)
(0.996096 -0.00637478 7.02967e-21)
(1.39032 0.169319 1.16853e-19)
(0.988824 -0.00916316 0)
(1.02259 0.102925 -1.16119e-20)
(1.03957 0.0011535 1.73486e-20)
(1.01501 -0.00560434 0)
(0.626611 -0.464465 0)
(1.02464 -0.00533708 -1.73795e-21)
(1.59105 0.252249 0)
(0.394182 -0.0334953 1.34133e-19)
(1.02748 -0.00629602 -9.46871e-21)
(1.00396 -0.00429388 4.98493e-21)
(1.00002 -0.00151254 8.401e-23)
(0.988819 -0.0151906 1.68254e-20)
(-0.179619 -0.0908654 -3.53455e-20)
(0.670747 -0.325355 0)
(0.538779 0.808292 -9.38882e-20)
(1.00271 -0.00680456 2.97438e-21)
(1.25312 0.155957 6.16447e-21)
(1.08644 -0.361989 1.86309e-21)
(0.597548 -0.571967 0)
(0.996015 -0.00491823 0)
(1.04729 -0.0131013 0)
(1.16115 0.522661 0)
(-0.510611 -0.00674829 0)
(1.00867 0.126607 -4.53872e-20)
(0.997218 -0.00150394 0)
(0.998216 -0.00172313 6.60833e-21)
(1.00412 -0.00453393 -6.27591e-21)
(1.15947 0.392602 0)
(-0.0701013 0.039958 -4.04594e-20)
(1.08713 -0.491979 0)
(0.251581 0.115333 -9.24508e-20)
(1.01813 -0.022097 0)
(-0.326679 0.55348 -6.2628e-20)
(0.417305 -0.184657 7.15865e-20)
(0.92765 -0.0246513 0)
(1.0185 -0.00235478 -8.36522e-22)
(0.974578 -0.0464117 0)
(0.185809 0.0674125 -2.40315e-20)
(1.01029 -0.00309866 2.6569e-22)
(0.996557 -0.00758684 -4.80754e-21)
(0.999853 -0.00181549 -7.87534e-21)
(0.981986 -0.00934621 -2.07392e-20)
(1.01595 -0.00489507 0)
(1.05711 0.0212131 0)
(1.03921 0.00982928 3.13142e-20)
(0.13144 -0.402499 7.14076e-20)
(0.985981 -0.0018278 -1.42091e-20)
(1.07441 -0.0274411 -9.48155e-21)
(1.02753 -0.00541258 0)
(0.978379 -0.0253447 0)
(0.86852 -0.591592 -1.79618e-21)
(1.15774 0.0337468 -3.76766e-20)
(0.34817 0.133693 5.32398e-20)
(1.00925 -0.00295302 1.13392e-21)
(0.948836 0.334487 1.27351e-19)
(0.99155 -0.0614193 -7.98612e-21)
(0.992494 0.0235738 0)
(1.01623 -0.0138506 0)
(1.28825 -0.183536 0)
(0.999585 -0.00349926 -8.35345e-21)
(0.764488 -0.0671876 3.94166e-20)
(1.16606 -0.0156886 -1.0665e-19)
(1.016 -0.00508135 1.59015e-21)
(0.374853 0.437974 1.881e-19)
(0.530377 0.875946 -2.86331e-20)
(1.11351 -0.0779504 7.44677e-20)
(0.99778 -0.0107036 -6.3433e-21)
(1.0984 0.0675577 0)
(0.49622 0.660575 0)
(0.781238 -0.0941424 0)
(0.779421 -0.104881 0)
(-0.045476 -0.416257 -1.30955e-19)
(0.961373 0.173395 -3.61892e-21)
(0.995523 0.0255793 0)
(1.03892 0.0469575 0)
(0.423005 -0.159219 -6.43475e-20)
(1.01632 -0.00279257 1.75041e-21)
(-0.484424 0.330339 -4.5985e-20)
(-0.279673 -0.0769667 0)
(1.01008 -0.00301748 0)
(0.999872 -0.0012112 -2.42083e-22)
(1.33567 0.373854 0)
(0.99201 -0.0111813 2.48831e-21)
(1.00007 -0.000800367 0)
(1.06386 0.170614 0)
(1.08568 0.182469 0)
(1.01887 -0.0232798 7.53413e-23)
(1.04819 -0.011553 1.81519e-20)
(1.07853 -0.0262159 0)
(0.982948 -0.166049 -6.35816e-21)
(1.04582 -0.00525381 0)
(0.995942 -0.00461096 0)
(1.10807 -0.133514 0)
(0.0563959 -0.457025 1.78674e-19)
(1.0156 -0.0052099 -1.50387e-22)
(0.512938 0.910606 9.04531e-20)
(1.00003 -0.000682184 -1.85598e-21)
(1.00011 -0.0028232 6.93775e-21)
(1.00808 -0.000526764 1.43656e-21)
(-0.159485 -0.367486 -3.29219e-20)
(0.995048 -0.000878462 0)
(1.51759 -0.2163 5.6356e-20)
(1.10288 0.363304 -1.60602e-19)
(1.00076 -0.00274294 0)
(0.999673 -0.00350177 4.567e-21)
(1.57995 -0.00287419 -1.81124e-19)
(1.00798 -0.000304606 -8.0116e-23)
(0.999956 -0.000989717 2.23993e-23)
(1.0083 -0.000288514 -8.74948e-22)
(0.980268 0.307253 4.66493e-20)
(0.627347 -0.425411 1.40548e-20)
(0.950518 -0.0525428 0)
(0.970232 -0.536937 1.96078e-20)
(1.10282 0.13589 -3.62961e-20)
(0.325595 0.0790264 -1.26302e-19)
(-0.264293 0.160256 0)
(1.02855 -0.00675698 4.81086e-21)
(-0.102113 -0.133731 -9.96574e-20)
(1.00002 -0.000637049 0)
(0.510327 0.659248 -9.75127e-21)
(0.431672 -1.29188 1.37494e-19)
(0.203857 0.158232 0)
(1.19772 0.566751 -8.83727e-20)
(0.974348 0.174092 -9.15644e-21)
(1.03676 0.00293729 1.27317e-20)
(1.13822 0.00979094 -3.63291e-21)
(1.03864 0.00803477 -1.50691e-20)
(1.01841 -0.00187251 -4.12673e-21)
(1.02658 -0.0020636 7.33589e-21)
(0.896344 -0.556666 8.75283e-21)
(0.936156 -0.0613258 1.41355e-20)
(0.999694 -0.00340394 1.85569e-23)
(1 -0.000102681 4.26816e-21)
(1.00946 -0.00304173 0)
(1.01149 -0.000171471 0)
(1.01555 -0.00540235 -1.35138e-21)
(-0.342658 0.130802 -6.1317e-20)
(1.00415 -0.00541665 -3.31391e-21)
(1.01466 -0.0134608 -7.38759e-23)
(1.01136 -0.000244636 0)
(1.00266 -0.00628292 1.90599e-22)
(0.0768591 -0.384938 -8.33758e-20)
(1.23701 -0.441394 1.29867e-19)
(0.704244 0.0523397 6.98993e-20)
(0.957422 -0.0153043 -3.28019e-20)
(1.03534 0.0913066 0)
(1.01079 -0.000169853 -3.54965e-23)
(0.720015 0.0355595 0)
(0.217946 -0.10115 2.16149e-19)
(0.994707 -0.00144427 2.06485e-20)
(1.18498 0.392852 0)
(1.04609 0.0384253 2.55482e-20)
(0.993872 -0.00189998 0)
(-0.0246255 -0.0639491 0)
(0.688325 0.0563557 0)
(0.997929 -0.00426394 0)
(1.11112 -0.14228 -2.34284e-20)
(0.357801 1.00724 -1.71197e-19)
(0.982494 -0.0224826 5.23683e-21)
(0.850052 0.00834427 2.28595e-20)
(1.0153 -0.0129803 2.07494e-21)
(0.978057 -0.021457 -1.17214e-20)
(0.575296 0.636185 3.70837e-21)
(0.932765 -0.174534 0)
(0.998881 -0.00736352 0)
(0.996945 -0.00206949 -1.23474e-22)
(0.959714 -0.0144016 -5.53029e-21)
(1.15746 -0.361297 0)
(0.0995124 -0.24339 -6.26607e-20)
(0.994566 -0.0054462 9.62451e-21)
(1.00412 -0.0049405 -2.30651e-21)
(1.01889 -0.00717695 -1.49409e-21)
(-0.177304 -0.0913816 0)
(-0.0612961 -0.0921811 7.76079e-20)
(0.140811 -0.108751 -2.3797e-19)
(1.01614 -0.0030971 -1.56671e-23)
(0.93591 -0.187421 0)
(0.845068 0.01685 -2.29645e-20)
(0.929485 -0.771866 -3.5022e-20)
(1.11452 0.106232 3.87182e-20)
(1.01629 -0.00221073 1.90614e-21)
(1.01704 -0.00250558 -1.01391e-21)
(1.01866 -0.00744092 0)
(1.12998 0.0128915 3.35269e-21)
(0.996483 -0.0282988 0)
(0.291011 -0.132706 3.14045e-19)
(0.998903 -0.00299042 8.79857e-21)
(1.00739 -0.00893613 -3.54448e-21)
(0.469041 0.544677 3.00473e-20)
(-0.387578 0.145983 1.76103e-19)
(0.829734 0.27695 -1.20217e-19)
(1.01123 -0.000153371 -1.41958e-22)
(-0.389824 -0.246297 -1.18312e-19)
(0.999209 -0.0693222 -1.29258e-20)
(0.259172 -0.736831 3.08916e-20)
(0.299019 -0.109554 0)
(-0.0190959 -0.426393 2.6133e-19)
(1.00578 -0.0561451 -4.35626e-21)
(1.09113 -0.0299947 -3.52271e-20)
(1.24551 0.279209 0)
(-0.387741 -0.140783 0)
(-0.293267 -0.148809 1.19165e-19)
(0.914363 0.0116223 -1.32523e-20)
(1.00003 -0.000478784 -1.03907e-21)
(0.946166 -0.0527698 -1.33406e-20)
(1.01779 -0.00319146 0)
(1.00454 -0.00530416 0)
(0.99576 -0.0267533 0)
(1.0005 -0.00374991 0)
(1 -4.10331e-05 0)
(0.378725 -0.13407 -3.59675e-19)
(1.00005 -0.0018526 0)
(1.18536 -0.0196365 1.35245e-21)
(1.08321 -0.019226 0)
(1.08477 0.37 4.01335e-20)
(1.01623 -0.00212552 -2.00057e-21)
(0.99784 -0.0628385 -2.26644e-21)
(-0.0261369 -0.485678 5.64082e-21)
(0.373506 -0.0551137 0)
(-0.195247 0.296375 7.71654e-21)
(1.11237 0.0989251 -1.79362e-21)
(1.00711 -0.00846107 3.60435e-21)
(1.0084 -0.0575443 0)
(0.995166 -0.00604494 1.5546e-20)
(1.31497 -0.324946 -1.50162e-19)
(1.00961 -0.000970862 3.01726e-22)
(0.827581 0.261226 7.62833e-20)
(1.0314 -0.414253 4.22636e-20)
(1.17353 -0.214856 4.50916e-21)
(0.0699034 -0.104102 2.95156e-19)
(0.577308 0.644752 5.49288e-20)
(1.00057 -0.0024059 -5.5233e-21)
(0.998694 -0.0106181 6.11757e-21)
(1.22067 0.29768 0)
(1.32857 -0.308356 8.48781e-20)
(0.986193 -0.00112545 -8.89696e-21)
(0.141319 -0.117566 3.20841e-19)
(1.00061 -0.00254123 5.49073e-21)
(0.999835 -0.00264162 0)
(0.593998 -0.940181 -2.58313e-20)
(1.00924 -0.00281646 -1.26437e-21)
(1.0995 0.14755 3.71705e-20)
(1.01639 -0.0029656 3.61341e-21)
(0.477094 0.0553946 -1.0088e-19)
(0.99907 -0.00309435 -1.32921e-20)
(1.02443 -0.00474502 -2.13461e-21)
(0.56447 0.578264 1.5689e-20)
(0.628403 0.00838206 -2.66212e-20)
(0.979046 0.0345024 3.7824e-21)
(0.927824 -0.028652 -1.3675e-20)
(1.00094 -0.0027994 -1.38552e-21)
(1.00293 -0.0135993 2.9015e-21)
(1.1758 0.407224 -7.1138e-20)
(1.15631 -0.0300773 6.71162e-20)
(1.01496 -0.00378782 0)
(0.999728 -0.00184621 1.37637e-22)
(0.920148 -0.118917 0)
(0.848778 0.0347311 -4.35664e-20)
(0.979384 0.0293703 0)
(-0.465122 0.00579195 0)
(0.999802 -0.00201233 8.25507e-21)
(0.998589 -0.00773405 -3.65032e-21)
(0.707902 -0.506324 -2.79762e-20)
(1.00098 -0.00274337 6.64902e-21)
(0.0503939 -0.458197 -1.48225e-19)
(0.647021 -0.563894 -8.36505e-20)
(0.99803 -0.00170546 -7.0505e-21)
(0.998188 -0.00458677 1.87855e-20)
(1.02639 -0.00273009 -8.81062e-21)
(1.00072 -0.00263126 0)
(1.01845 -0.00668143 6.60914e-21)
(-0.391282 -0.180085 1.85832e-19)
(0.763 -0.0821336 0)
(1.62712 -0.0113913 5.47761e-20)
(0.898084 0.023412 0)
(1.02382 0.00572209 0)
(1.09392 0.0443104 0)
(0.931137 -0.00241756 3.45838e-20)
(-0.234306 -0.345163 -3.28894e-20)
(0.919222 -0.0252878 -3.52056e-20)
(0.999993 -0.000463436 6.48426e-21)
(1.04924 -0.0153754 0)
(1.24197 -0.407229 -5.90761e-20)
(0.986117 -0.0112201 0)
(0.987965 -0.00922505 4.87649e-21)
(0.982722 -0.0086094 0)
(1.00943 -0.000918571 -3.60951e-22)
(0.999918 -0.00619185 0)
(1.0136 -0.0153025 1.45799e-23)
(0.997607 -0.00184314 0)
(1.00042 -0.00210269 2.48706e-21)
(0.982994 -0.0436049 -1.83477e-20)
(1.04016 0.00636171 0)
(1.05286 0.171605 -2.96098e-20)
(1.01002 -0.000231214 0)
(0.223565 0.0922735 4.44493e-20)
(0.938848 -0.0481863 -1.12782e-20)
(1.04524 -0.442247 -3.12791e-20)
(-0.251682 0.255665 0)
(1.01867 -0.00200397 -4.123e-22)
(0.478316 0.509921 -1.81775e-20)
(1.18088 -0.18784 -2.89668e-20)
(1.0187 -0.00255845 8.68727e-22)
(1.00952 -0.00132805 0)
(0.990535 -0.0171972 7.36569e-21)
(1.0162 0.62407 -5.19792e-20)
(1.11395 0.134153 4.26866e-20)
(1.00964 -0.00127569 1.52772e-22)
(0.999148 -0.00284579 -4.97279e-23)
(0.999866 -0.00202434 -4.0979e-21)
(0.72498 0.108725 -4.37513e-20)
(1.07872 -0.390694 -8.96866e-21)
(1.47282 0.297048 0)
(1.00227 -0.000946088 3.45294e-21)
(0.9888 -0.00200828 2.07139e-20)
(0.880007 -0.0471534 0)
(-0.531661 -0.0165175 -1.84499e-19)
(0.126939 0.073396 -1.24626e-19)
(0.949613 -0.0276115 -1.19319e-20)
(1.03273 0.00123968 1.04758e-20)
(0.565292 0.942221 -5.91684e-20)
(1.57273 0.279577 0)
(1.06148 0.258555 0)
(0.985218 -0.0264897 9.82073e-21)
(1.00678 -0.00915609 0)
(0.165496 -0.375205 -6.5283e-20)
(0.996977 -0.00909691 -6.90513e-21)
(1.11165 -0.354634 9.20468e-21)
(1.11826 0.365473 6.93793e-20)
(1.01471 -0.00362745 0)
(0.66082 -0.410295 0)
(1.0677 -0.0250624 -3.82797e-21)
(-0.452238 -0.285259 -1.38394e-19)
(1.00306 -0.013157 -5.36973e-21)
(0.293912 -0.174804 0)
(1.3855 0.0531198 9.97766e-20)
(1.0248 0.0159084 1.22909e-21)
(1.56586 0.0256554 1.7216e-19)
(0.997821 -0.00917275 6.76411e-21)
(0.957594 -0.719051 0)
(0.998872 -0.002771 1.25184e-20)
(0.999537 -0.0104597 -3.03627e-21)
(1.00002 -0.00137509 6.2381e-21)
(0.996689 -0.00679078 0)
(1.21425 0.409672 -2.57037e-20)
(0.99819 -0.00982455 -3.47127e-21)
(1.01824 -0.00430816 1.25239e-21)
(0.960408 -0.0204454 0)
(1.01616 -0.00329075 3.12502e-21)
(1.00663 -0.00946027 2.35142e-21)
(1.09928 -0.161439 -3.28126e-21)
(0.995077 -0.0461513 2.09785e-22)
(1.04511 0.0422961 -3.965e-20)
(1.00157 -0.0028464 0)
(1.00146 -0.00275682 2.67399e-21)
(-0.0209863 -0.484561 -4.31869e-20)
(0.66621 0.0153596 0)
(0.951932 -0.0267549 2.76933e-20)
(0.584673 0.883537 0)
(1.03938 0.00461076 0)
(0.992483 -0.0311652 -6.81079e-21)
(0.995217 -0.000590441 6.62796e-21)
(1.0187 -0.00647337 1.49178e-21)
(0.264688 -0.11664 -1.11416e-19)
(1.0181 -0.00403808 -2.77639e-21)
(1.00125 -0.000417531 0)
(-0.589161 -0.057741 0)
(1.40409 0.375869 1.0035e-19)
(0.99546 -0.165978 -2.86424e-21)
(1.00246 -0.00643982 0)
(0.999993 -0.000282749 6.89891e-23)
(1.02662 -0.0128698 4.47049e-21)
(0.999995 -0.00102685 0)
(0.388811 0.892107 0)
(0.980913 -0.0228266 -6.23561e-21)
(0.296935 0.111235 -1.1939e-20)
(1.03026 0.00859058 -6.10602e-22)
(0.314903 0.424228 -2.44341e-19)
(0.999981 -0.000619535 -7.3226e-21)
(-0.700968 -0.0361667 5.32403e-20)
(1.00576 -0.000161905 0)
(1.1792 -0.374486 2.10866e-21)
(0.996155 -0.00851426 4.84845e-21)
(0.946147 0.0886797 0)
(0.0395745 -0.478562 8.1069e-20)
(0.999004 -0.00285704 2.29825e-21)
(1.26808 0.420295 -1.75654e-20)
(0.99373 -0.0102645 4.73854e-21)
(1.00013 -0.000106084 2.10001e-21)
(1.01471 -0.00513968 1.01636e-21)
(1.1115 0.462434 2.85876e-20)
(0.0825056 -0.418921 -1.39259e-19)
(0.98961 -0.0167202 -1.6753e-20)
(1.07144 -0.0240913 4.55301e-21)
(1.01788 -0.00343422 0)
(0.507002 0.917695 -8.92848e-21)
(1.01043 -0.000289396 0)
(1.1144 -0.128725 2.38335e-22)
(0.354364 -0.117726 0)
(0.925049 -0.000439591 0)
(1.00161 -0.000700629 0)
(0.842659 -0.155372 2.35691e-20)
(1.00009 -0.000489869 5.65575e-21)
(1.02738 -0.0123315 0)
(1.01894 -0.00824478 4.71142e-23)
(1.04515 0.159733 1.20876e-21)
(1.00262 -0.00262278 2.85336e-22)
(0.603144 0.852628 8.17519e-20)
(1.00133 -0.00276417 5.14478e-21)
(0.999101 -0.0296854 0)
(1.02635 0.0521278 7.48306e-21)
(0.811814 -0.265888 -2.36445e-21)
(1.10238 0.32163 -4.0443e-20)
(1.014 -0.0129026 -1.17418e-23)
(-0.674845 -0.0370105 2.07312e-19)
(0.999115 -0.0108603 -3.34214e-21)
(1.10068 -0.411037 2.53938e-20)
(0.990445 -0.0060908 0)
(1.02653 -0.00501109 -7.49143e-21)
(0.997315 -0.00936771 1.66769e-22)
(1.00129 -0.00280067 -5.2786e-21)
(0.999979 -0.000520498 0)
(1.0971 -0.432778 7.65532e-20)
(0.99673 0.0289534 3.2403e-21)
(1.2997 0.438508 -6.75151e-20)
(1.2673 0.000937557 -5.55164e-20)
(0.859526 -0.0692359 0)
(0.942938 -0.132635 1.07773e-20)
(0.658959 -0.903791 -1.13368e-20)
(1.04425 -0.0158835 4.08382e-22)
(0.287396 0.817338 -7.91704e-20)
(0.0784804 0.114726 -1.55774e-19)
(1.17889 -0.400069 -2.2025e-21)
(1.48102 -0.197927 8.66253e-20)
(1.11436 0.353481 2.69627e-20)
(1.13246 -0.372955 0)
(1.02739 -0.0117869 -2.55208e-21)
(0.0670099 -0.215144 9.83835e-21)
(1.02252 0.0503939 1.16412e-20)
(1.02566 -0.00561509 5.62751e-21)
(1.20038 -0.411321 -2.70959e-20)
(1.00006 -0.00044104 -5.48712e-21)
(0.944474 -0.565804 -9.92797e-21)
(0.999483 -0.151276 2.32457e-21)
(1.15436 0.238165 8.52767e-20)
(0.902447 0.015032 -2.28425e-20)
(-0.434534 0.115442 0)
(0.0580667 0.164294 0)
(1.02971 0.0482353 -1.25269e-20)
(1.14362 0.226597 -3.0009e-21)
(0.999863 -0.00139673 0)
(1.13342 -0.531195 5.95059e-20)
(0.955696 0.00615726 0)
(0.996343 -0.00822904 9.91191e-21)
(0.994186 -0.0265723 0)
(1.01869 0.00566189 4.2981e-21)
(1.14698 -0.0326188 -6.2572e-20)
(-0.0200031 -0.39343 -3.59763e-20)
(0.957985 -0.49433 0)
(-0.126178 0.102448 0)
(1.04157 -0.0184188 0)
(0.974303 -0.0488813 0)
(-0.487621 -0.265875 2.99485e-20)
(0.433008 0.0843669 2.08728e-19)
(1.03273 -0.00112122 3.515e-23)
(1.1188 0.0828282 -3.19051e-20)
(0.97742 -0.0266117 0)
(0.283664 -0.856719 2.34964e-20)
(0.550252 0.550433 0)
(0.997994 -0.00189167 7.11313e-21)
(0.70805 0.0656923 0)
(0.730184 -0.462154 4.8941e-20)
(0.0183341 0.14048 0)
(1.00251 -0.000847238 5.10198e-22)
(0.944656 -0.0586641 -1.79746e-20)
(1.25523 0.488504 -8.8921e-20)
(1.05355 0.0195627 0)
(1.16646 0.387449 -2.45296e-20)
(0.949368 0.0991434 0)
(1.06546 0.365891 -1.08487e-19)
(0.971161 -0.072833 0)
(1.04613 -0.0177872 1.45935e-20)
(1.01825 -0.0181861 0)
(0.989336 -0.00303963 -6.73802e-21)
(0.875604 0.196967 0)
(1.00001 -0.000308017 7.30492e-21)
(0.85799 0.201657 0)
(1.27645 0.0553794 -5.10035e-20)
(1.14131 -0.238501 1.48679e-20)
(1.00003 -0.000215914 3.49057e-21)
(1.00013 -0.000946078 -5.22154e-21)
(1.02231 0.00673001 -2.80503e-22)
(1.01903 6.49129e-05 2.58559e-22)
(1.0044 -0.000635695 0)
(0.991533 -0.0105764 0)
(1.25426 -0.00544674 1.22525e-20)
(0.956184 0.603523 -5.623e-20)
(-0.336012 -0.0963442 0)
(1.00001 -0.000301763 5.14473e-21)
(1.28894 -0.328933 0)
(1.00211 -0.00592972 9.24203e-23)
(-0.0348052 0.0438766 1.00433e-19)
(1.0489 0.0720014 0)
(0.811682 -0.110021 0)
(0.85186 0.0258007 2.09453e-20)
(1.37394 0.0707651 -4.07531e-21)
(1.00654 -0.00310083 7.2239e-22)
(0.999739 -0.00404617 -4.76792e-21)
(0.857422 -0.15073 0)
(0.996433 -0.00905926 8.4204e-21)
(1.02548 -0.0127924 2.49061e-21)
(1.14705 0.0539085 -4.60472e-20)
(-0.584124 -0.195287 -3.93198e-20)
(1.01619 -0.00477679 0)
(0.897359 0.206548 -2.01762e-20)
(0.411823 0.146916 -9.62914e-20)
(1.04802 -0.00595075 -1.61711e-20)
(0.53045 0.651252 1.62006e-20)
(0.550541 0.197204 3.12109e-19)
(1.01418 -0.0159817 -3.50262e-23)
(1.1659 -0.00267946 0)
(1.024 0.0191367 0)
(1.01702 -0.0223434 0)
(1.0143 -0.00515618 -7.04383e-22)
(0.650458 -0.156764 8.95617e-20)
(0.344015 0.194428 0)
(0.161509 0.161053 -6.76607e-20)
(0.985375 -0.0120987 -9.13133e-21)
(0.996738 -0.00193679 -5.61249e-22)
(1.01355 -0.00660322 0)
(1.01613 0.00838593 -2.27654e-21)
(0.997578 -0.0453703 0)
(0.989564 -0.0583497 9.0965e-21)
(0.521947 0.409698 9.0916e-20)
(1.04217 0.0712757 -1.77815e-20)
(1.00046 -0.00226623 -2.81641e-21)
(1.53099 0.262127 1.94634e-19)
(1.05978 0.019167 1.65822e-20)
(0.8695 -0.0705683 -7.73227e-21)
(1.02491 -0.0120011 -5.58575e-21)
(-0.473884 -0.0614934 7.35011e-21)
(1.03498 0.00285816 1.34492e-21)
(1.00318 -0.00183471 -2.23972e-21)
(1.1547 -0.234336 -1.93908e-20)
(0.157095 0.0776228 -9.08643e-20)
(1.01533 -0.00376963 6.07731e-22)
(0.99765 -0.00157562 -8.95843e-22)
(0.995574 -0.00584617 0)
(1.02416 0.0139161 -9.28179e-21)
(1.00655 -0.00293001 -2.16322e-21)
(1.03409 0.0498139 -7.79358e-21)
(1.28781 0.262587 3.34839e-21)
(1.00166 -0.0323043 -3.67907e-21)
(1.0356 0.160894 1.39188e-20)
(1.03194 -0.00219762 0)
(1.02374 -0.011841 0)
(1.11872 0.326244 -2.21486e-20)
(0.0822452 0.0249448 1.13074e-19)
(0.991073 0.278606 0)
(0.999853 -0.00394202 6.42669e-21)
(1.01576 -0.00360987 0)
(0.82939 0.358256 -1.56722e-20)
(0.923818 -0.0223581 -1.6719e-20)
(0.838578 0.265604 0)
(1.01508 -0.00331851 0)
(0.993054 -0.0103239 6.49508e-22)
(-0.307756 -0.0787442 0)
(0.254074 0.0493435 0)
(1.0822 -0.0307149 -5.02508e-21)
(1.08231 0.159348 0)
(0.71263 0.00524485 1.15026e-19)
(0.998247 -0.0110002 0)
(1.00002 -0.000188975 -4.68714e-21)
(1.0145 -0.0226654 -7.82977e-23)
(0.378026 0.232587 1.77031e-19)
(1.00134 -0.000499273 3.7988e-21)
(0.999997 -4.96751e-05 -8.60512e-21)
(-0.417018 -0.176091 -8.95736e-20)
(0.90715 0.0155273 5.59723e-20)
(1.39459 -0.0710553 -1.89615e-19)
(0.859217 0.00914579 4.05327e-20)
(1.00247 -0.00594529 -2.9741e-21)
(0.0899332 -0.0110918 -1.39029e-19)
(1.00002 -0.000566577 4.12871e-21)
(0.991895 -0.00743674 1.10847e-20)
(1.01348 -0.0224801 2.97121e-22)
(0.95093 -0.109191 1.49792e-20)
(-0.096721 -0.384501 1.12567e-20)
(1.00019 -0.00298466 -6.9475e-21)
(0.994651 -0.000759819 -1.0582e-20)
(0.996191 -0.00933214 -1.4054e-20)
(0.997739 -0.0101106 6.63788e-21)
(1.00228 -0.00605492 -9.45524e-23)
(1.01843 -0.0189627 0)
(1.41664 -0.208454 -2.24362e-19)
(0.944985 -0.114967 6.85822e-21)
(0.982342 -0.0408849 0)
(1.00045 -0.00353255 6.34241e-21)
(0.935931 -0.111623 -6.38261e-21)
(1.17852 0.00803557 0)
(1.02179 0.016537 2.42443e-21)
(0.898244 0.0191499 2.85984e-20)
(1 -8.91199e-05 4.53099e-21)
(1.01343 -0.00629024 4.67686e-22)
(1.01593 -0.0500513 0)
(0.0739126 -0.436838 1.54981e-19)
(0.471762 0.467124 -4.18005e-21)
(1.02296 0.0051033 0)
(0.0754334 0.151336 0)
(0.999825 -0.00132817 -8.41966e-21)
(0.969916 -0.0681623 0)
(1.40699 -0.309299 -8.96004e-20)
(0.164204 -0.206207 5.1688e-20)
(1.01648 -0.0119017 0)
(1.00008 -0.00250706 -8.03963e-21)
(0.442012 0.184336 7.32827e-20)
(1.0925 0.0710231 0)
(1.00334 -0.00184578 -4.35995e-21)
(0.999964 -0.000848622 7.84223e-23)
(0.660224 0.883505 -9.56402e-20)
(1.00002 -0.000136417 -4.18409e-21)
(1.20316 -0.0889548 5.60416e-20)
(0.997957 -0.00461304 -1.19439e-20)
(0.363111 -0.0163848 0)
(0.999972 -0.000899595 7.58765e-21)
(1.00618 -8.6222e-05 -1.46252e-21)
(0.999254 -0.00295924 -1.04119e-20)
(1.07514 -0.0641995 -9.54874e-21)
(1.01872 -0.000148428 -5.4924e-21)
(0.95178 -0.047357 0)
(0.917916 0.00947405 1.34645e-20)
(0.554774 0.0769359 1.09383e-19)
(1.00408 -0.00557678 -1.72679e-21)
(1.00008 -0.00604257 0)
(1.00006 -0.000295288 1.22094e-21)
(0.999888 -0.0107077 9.16943e-22)
(1.02696 -0.0101974 -7.99728e-21)
(1.02153 -0.00281633 -3.32055e-24)
(1.08702 -0.0223827 -2.7499e-20)
(0.999031 -0.00275992 1.16601e-20)
(1.05377 0.0832807 0)
(-0.0980521 0.254503 0)
(1.12426 0.00712589 0)
(1.15731 0.0554867 0)
(0.999811 -0.00178307 0)
(1.01913 -0.00790431 -1.91671e-21)
(-0.26459 -0.0737708 -8.56236e-20)
(0.667026 0.324807 0)
(1.01407 -0.00488955 9.66984e-23)
(0.486144 0.660767 0)
(-0.468571 -0.0827131 -2.02577e-19)
(1.01594 -0.00370205 5.55674e-22)
(0.994472 -0.00103925 -1.15814e-22)
(1.00234 -0.00907794 6.56108e-22)
(1.21362 -0.182615 4.67101e-20)
(1.04842 0.08762 -4.31256e-21)
(0.143103 -0.163607 2.10198e-19)
(1.00443 -0.00550881 -2.32479e-21)
(1.03628 -0.0595352 -9.07233e-21)
(1.00437 -0.00401393 0)
(0.977351 -0.0230237 -9.30305e-22)
(1.00567 -0.000151571 7.89954e-22)
(1.12516 -0.266475 -2.78523e-20)
(1.02668 -0.00951845 2.9454e-21)
(1.36913 -0.100921 9.49476e-20)
(0.99997 -0.00381176 4.99213e-22)
(0.971651 -0.253895 -1.96964e-21)
(1.0036 -0.00522893 6.62595e-21)
(0.977364 -0.0449992 0)
(0.990608 -0.00759807 6.68424e-21)
(1.00049 0.0291082 3.47032e-21)
(0.739944 0.10977 4.06997e-20)
(-0.539154 -0.0665212 0)
(0.429538 -0.26783 -5.78718e-21)
(0.485576 0.681104 -1.15526e-20)
(1.09747 0.059567 4.52244e-21)
(0.992837 -0.0110917 4.41989e-21)
(0.656389 -0.847223 9.95306e-21)
(0.0818337 -0.175223 -8.00453e-20)
(1.04706 0.102609 0)
(1.02482 -0.00945949 -9.68455e-21)
(1.00041 -0.00377556 -4.00367e-21)
(0.172892 0.199755 1.17681e-19)
(1.00257 -0.00937601 3.72403e-21)
(-0.121585 -0.352751 5.71106e-20)
(1.01653 -0.00264177 -1.83026e-21)
(1.03556 0.0280915 2.35775e-20)
(1.02771 -0.00835131 1.40369e-20)
(0.999955 -0.000344717 -1.36437e-20)
(1.01664 -0.0126565 -6.76281e-22)
(1.26162 0.388819 1.49813e-20)
(0.527453 0.275625 -1.38359e-19)
(-0.155912 -0.30086 -4.65495e-20)
(0.683041 0.0231741 -1.22638e-20)
(-0.181494 -0.0865547 -1.88384e-19)
(0.996534 -0.00653303 0)
(1.01314 0.734627 -5.99617e-20)
(1.22366 0.23536 2.20247e-19)
(1.00002 -9.64507e-05 1.29521e-23)
(0.99818 -0.0283179 -4.32343e-21)
(1.0075 -0.00416752 -1.08645e-21)
(1.0591 0.345681 0)
(1.0144 -0.0036873 0)
(0.36732 0.207671 6.12585e-20)
(0.873103 -0.0534707 3.39592e-20)
(1.23171 0.130461 0)
(1.01183 -0.0326878 -3.91605e-22)
(1.35367 -0.345565 1.49321e-19)
(-0.366974 0.0265404 -3.99726e-20)
(0.173536 -0.0123049 -8.33402e-22)
(0.964699 -0.104875 -1.27145e-20)
(1.08818 -0.00564688 -2.55749e-20)
(1.00149 -0.000728622 1.19286e-21)
(0.751264 -0.246342 0)
(1.01484 -0.00300881 0)
(0.409485 0.28026 0)
(1.28104 0.173125 -8.12845e-20)
(0.854894 -0.262856 -3.51722e-21)
(1.42805 0.419643 0)
(1.11732 0.39327 1.1611e-19)
(1.04416 -0.00673052 -1.47255e-20)
(1.02078 -0.0479356 0)
(1.00272 -0.00281764 -2.25334e-21)
(0.929103 0.0744588 -1.77317e-21)
(0.296404 0.110826 0)
(-0.118965 -0.0975156 3.72676e-20)
(1.00702 -0.00389112 -2.61983e-21)
(0.212057 0.587239 4.9857e-21)
(1.02135 0.0147574 4.4355e-21)
(1.07221 0.18404 0)
(0.580956 0.0817058 -1.34954e-19)
(-0.572546 -0.175571 -1.24267e-21)
(-0.557796 -0.15537 -5.07061e-20)
(1.01693 -0.00236057 -2.50516e-21)
(0.936534 -0.0518761 2.6872e-20)
(1.05447 0.0272906 1.25701e-20)
(1.02898 0.00895536 5.55179e-22)
(1.02198 0.00769336 -5.76689e-23)
(0.539717 0.448066 0)
(0.999887 -0.00202936 7.54276e-21)
(1.3327 0.114379 -2.01197e-19)
(1.01036 -0.000222048 1.91661e-22)
(1.01664 -0.00235369 5.85826e-23)
(1.19132 -0.164047 0)
(1.09064 0.169673 -1.17965e-21)
(1.0414 0.338398 0)
(1.03331 -0.0155315 -4.73263e-21)
(1.15293 -0.489076 1.74932e-19)
(1.40056 -0.283275 5.69574e-20)
(1.39398 -0.267178 0)
(0.910627 0.00976952 -2.82094e-20)
(1.00011 -0.000449865 9.85227e-21)
(1.03283 -0.0167376 7.41068e-21)
(1.00013 -0.000466068 -7.09873e-21)
(0.989357 -0.0085451 6.41442e-21)
(1.38621 -0.288792 -8.00143e-20)
(0.833105 0.24596 -1.79096e-21)
(1.02256 -0.0235138 -1.53199e-21)
(0.989809 -0.00651605 0)
(1.05079 0.0330756 -7.42704e-22)
(0.205646 -0.210805 1.58244e-19)
(1.03155 -0.0679462 -9.97594e-22)
(0.989888 -0.000605789 8.44637e-21)
(0.396929 0.0751433 -1.84793e-19)
(0.995727 -0.00662922 7.15419e-21)
(0.999995 -0.00029856 1.0785e-20)
(1.01507 -0.00312447 0)
(1.02102 0.0940018 -3.40453e-20)
(0.997192 -0.0018761 1.19565e-22)
(1.03186 0.0117186 0)
(-0.179928 0.0247941 -1.44579e-19)
(1.18576 -0.0101609 -1.53897e-21)
(1.0037 -9.85993e-05 0)
(0.137053 0.561664 4.95479e-20)
(0.589875 0.0303114 0)
(0.995898 -0.00701622 -6.2611e-21)
(1.02327 0.00406491 5.59277e-21)
(1.09179 0.00306411 -1.42698e-20)
(1.00004 -0.00014386 1.51774e-23)
(1.00177 -0.00585239 1.03942e-20)
(1.01341 -0.0117886 -5.3926e-23)
(1.38395 -0.0994133 -7.90706e-20)
(0.755397 0.0554963 1.24136e-20)
(1.00286 -0.0335583 -4.06476e-21)
(1.09628 0.00548607 -1.65022e-20)
(0.835398 0.0187502 0)
(1.14182 -0.508355 4.55899e-20)