/*--------------------------------*- C++ -*----------------------------------*\
| =========                 |                                                 |
| \\      /  F ield         | OpenFOAM: The Open Source CFD Toolbox           |
|  \\    /   O peration     | Version:  v2012                                 |
|   \\  /    A nd           | Website:  www.openfoam.com                      |
|    \\/     M anipulation  |                                                 |
\*---------------------------------------------------------------------------*/
FoamFile
{
    version     2.0;
    format      ascii;
    class       volScalarField::Internal;
    location    "950";
    object      V0;
}
// * * * * * * * * * * * * * * * * * * * * * * * * * * * * * * * * * * * * * //

dimensions      [0 3 0 0 0 0 0];


value           nonuniform List<scalar> 
9793
(
0.0334288
0.00144294
0.0892419
0.00114519
0.186518
0.00698906
0.00914702
0.00216155
0.0527601
0.0015463
0.161509
0.136433
0.140711
0.00495633
0.088971
0.0379354
0.0166858
0.0865067
0.00167731
0.118889
0.103451
0.179901
0.00189874
0.0017151
0.00449414
0.0228238
0.140669
0.203621
0.0983959
0.00864768
0.00129543
0.00616852
0.10228
0.101985
0.167561
0.0217367
0.0388214
0.0205791
0.00363617
0.0220462
0.0106062
0.00413911
0.00176045
0.175154
0.081939
0.113167
0.00153425
0.170278
0.0768022
0.0974626
0.0281205
0.151605
0.018712
0.173865
0.0170186
0.00197648
0.134735
0.0120102
0.0682201
0.179812
0.0179949
0.00547073
0.0927375
0.0274682
0.168223
0.0603848
0.00131352
0.0331032
0.0386192
0.00337025
0.0469164
0.00431814
0.00185632
0.0166362
0.00494635
0.162011
0.0113844
0.00367755
0.0852508
0.156591
0.00738897
0.00200836
0.0146382
0.0320253
0.0369565
0.00587807
0.158964
0.018935
0.00359551
0.00578029
0.00205331
0.00336393
0.00433448
0.0159365
0.00216687
0.0941961
0.00461047
0.0129303
0.0285603
0.187421
0.00364439
0.0201718
0.0156431
0.0877428
0.0054825
0.00275568
0.0194768
0.125298
0.0863938
0.180396
0.143494
0.00201184
0.00182106
0.00118391
0.0518543
0.130103
0.0499033
0.0990594
0.00185309
0.0824164
0.00669078
0.0192406
0.00367373
0.018205
0.0457499
0.0929182
0.012751
0.00150597
0.0109371
0.0123131
0.0340528
0.102108
0.0363004
0.036655
0.0295332
0.00596608
0.00638338
0.041109
0.178199
0.00888606
0.00193523
0.0206107
0.0603906
0.0182459
0.00147082
0.00356579
0.0956738
0.00210634
0.085038
0.0826031
0.144184
0.00245561
0.0350236
0.116335
0.0576547
0.00368499
0.012839
0.0965874
0.00486703
0.058441
0.0180263
0.0332306
0.078848
0.00233488
0.0595269
0.00411508
0.0156356
0.0517367
0.134832
0.169327
0.0495931
0.00171435
0.00186485
0.00644661
0.127151
0.00794281
0.00588021
0.00231204
0.0995328
0.0337713
0.00699734
0.00142879
0.0165694
0.0985579
0.100909
0.128158
0.00489905
0.0017978
0.00228924
0.0146019
0.0568179
0.00107129
0.00208502
0.0203642
0.0679373
0.032117
0.00197699
0.105623
0.0664616
0.14807
0.0496847
0.0637287
0.0248577
0.0312784
0.00217886
0.0512939
0.0209512
0.04839
0.0417154
0.00287902
0.012364
0.00196973
0.109179
0.00259827
0.0295367
0.0289656
0.0709221
0.00642351
0.13687
0.00880297
0.0109168
0.0796056
0.00192831
0.0081353
0.012399
0.0918586
0.0170136
0.0114141
0.00866053
0.0064144
0.00240018
0.0124138
0.0316883
0.0225647
0.00232356
0.0807458
0.00124816
0.00139931
0.102177
0.153888
0.00467573
0.0765517
0.116402
0.0123746
0.0119595
0.0599242
0.0274962
0.0192562
0.0146394
0.0281686
0.0937083
0.0121892
0.00176537
0.0925905
0.00848078
0.142116
0.156854
0.133051
0.00199699
0.0765167
0.00317847
0.00312254
0.162546
0.125886
0.00421542
0.161615
0.155116
0.159775
0.0024873
0.00329659
0.0242958
0.00356167
0.0115024
0.015851
0.00149767
0.0523513
0.00123927
0.176252
0.0124591
0.00109339
0.00462618
0.00537909
0.0117256
0.0340223
0.0141557
0.0321977
0.0742133
0.0419014
0.00363201
0.0170132
0.109006
0.170719
0.086323
0.135784
0.0915551
0.000958625
0.126058
0.0826676
0.110246
0.116151
0.00136794
0.00311976
0.00555165
0.030173
0.0170884
0.149935
0.0163015
0.00212915
0.0745976
0.00462859
0.0270077
0.0762784
0.00124248
0.0155579
0.0998887
0.0121103
0.001243
0.045456
0.0106514
0.085552
0.0423762
0.010689
0.0140137
0.110262
0.0885091
0.0330234
0.00501212
0.00144877
0.0751941
0.119588
0.0636114
0.0014406
0.00162881
0.00200316
0.0802103
0.0125694
0.0106725
0.00211395
0.0105627
0.0790931
0.0743007
0.0715263
0.0144519
0.0554885
0.00156862
0.104906
0.106471
0.00918019
0.0013057
0.00255116
0.152475
0.00305824
0.029947
0.00119794
0.00204944
0.00203
0.031342
0.0167071
0.00614727
0.00201414
0.001764
0.0116785
0.199245
0.0212153
0.0706138
0.130616
0.055454
0.137044
0.172335
0.0021686
0.154505
0.0122152
0.0214369
0.00758688
0.0668954
0.0283049
0.00128477
0.00274262
0.00582004
0.0134702
0.104439
0.0288923
0.0911866
0.00416299
0.146329
0.00316093
0.00556369
0.00710953
0.00159493
0.0111291
0.144062
0.0872469
0.00561798
0.00421336
0.0556862
0.0017648
0.144976
0.137952
0.00143537
0.097565
0.0112082
0.0789865
0.0132244
0.110224
0.0506207
0.0082305
0.00407866
0.0217126
0.0191876
0.140646
0.0619467
0.00292282
0.0127991
0.100361
0.138427
0.0126596
0.0109858
0.0236461
0.00126539
0.141195
0.0766121
0.00351697
0.145711
0.00167496
0.00260002
0.0953334
0.103864
0.0422675
0.162389
0.0737151
0.00419898
0.00719967
0.0037995
0.0135086
0.0450448
0.0168127
0.0196753
0.00195276
0.0175968
0.187775
0.028412
0.00382813
0.0516988
0.0452147
0.0477226
0.147749
0.111877
0.0695817
0.0955214
0.158601
0.0371846
0.0284987
0.0107482
0.137546
0.00204407
0.022044
0.00439549
0.00148096
0.0691294
0.00969107
0.00948121
0.0652971
0.121241
0.0528912
0.00767513
0.0101328
0.136343
0.11513
0.139128
0.00398154
0.00609055
0.00304562
0.167595
0.0429386
0.0128063
0.00136776
0.0038366
0.0176427
0.0351729
0.00795927
0.00374068
0.00899604
0.0461663
0.0928398
0.00231051
0.0878724
0.00556956
0.00510197
0.108624
0.00414641
0.0233319
0.00212848
0.0693305
0.00209515
0.00531512
0.0372884
0.00449412
0.0874282
0.00226391
0.125926
0.0851243
0.155885
0.0895513
0.00458297
0.0827766
0.0770549
0.0313077
0.0844209
0.0906201
0.011532
0.0432641
0.0236599
0.10686
0.132126
0.00137668
0.00436887
0.0230651
0.00726564
0.0317656
0.0515783
0.0722616
0.0646072
0.00208514
0.073566
0.16629
0.00129687
0.00300574
0.0141934
0.118655
0.170869
0.0444912
0.159424
0.00772274
0.041112
0.0146025
0.0366977
0.00158855
0.153491
0.00123398
0.163233
0.00474271
0.0667774
0.0205904
0.00153691
0.131073
0.00361179
0.0740488
0.166233
0.0957463
0.00610402
0.00188726
0.0472486
0.0220341
0.0706867
0.00754733
0.116912
0.00958155
0.00228242
0.0156815
0.153701
0.0101797
0.132585
0.0397153
0.0702401
0.0120223
0.130344
0.00789146
0.142307
0.0561354
0.0205656
0.00620252
0.0071375
0.0803467
0.00126013
0.0820174
0.00562559
0.0644513
0.0573403
0.0933939
0.141645
0.169388
0.00341581
0.0320858
0.0035798
0.00701416
0.0116905
0.0166496
0.00144868
0.0347299
0.00626853
0.00127947
0.00454849
0.00233494
0.00572367
0.00516844
0.042435
0.00120346
0.0236751
0.0623831
0.00336947
0.136874
0.0031257
0.0167754
0.00718655
0.011595
0.00144019
0.00185711
0.0238866
0.00809146
0.147618
0.00303124
0.0241463
0.0631985
0.0522294
0.0454733
0.0137926
0.00236918
0.00371948
0.00155225
0.0348213
0.0234495
0.00246167
0.00340993
0.0382647
0.0123615
0.0309034
0.00146759
0.0107739
0.0945184
0.00456854
0.00443049
0.00172091
0.135446
0.022976
0.00282235
0.0245536
0.00430031
0.0182683
0.00800579
0.021086
0.0332707
0.0625347
0.0667074
0.011987
0.167536
0.0105627
0.00765479
0.00726006
0.156255
0.151391
0.0428895
0.0473059
0.146192
0.0665343
0.00743195
0.00792567
0.00388849
0.136929
0.00458436
0.127716
0.00135784
0.0214183
0.0102464
0.0113713
0.00560934
0.105511
0.112514
0.0101195
0.0749915
0.0612978
0.0148702
0.00342913
0.0478022
0.0122951
0.00485679
0.0250038
0.0109082
0.00432019
0.0682083
0.0130298
0.0311601
0.0441824
0.0955971
0.00504877
0.004905
0.00184275
0.0501502
0.0794794
0.0873457
0.0421825
0.0453582
0.0301403
0.00232108
0.0230245
0.143079
0.00385052
0.0227733
0.0134848
0.0671392
0.00114292
0.03665
0.117743
0.0058924
0.00156945
0.0921756
0.0955988
0.0909509
0.0356351
0.102953
0.0218716
0.00558185
0.0496494
0.0105705
0.0397735
0.0580992
0.00668685
0.00205106
0.0103802
0.123917
0.0698023
0.00972784
0.0174014
0.00856742
0.0962244
0.0704341
0.00134988
0.0164022
0.021958
0.0109273
0.00696632
0.0804882
0.154725
0.0463532
0.00150894
0.16578
0.16897
0.00204529
0.0118335
0.00512888
0.0111782
0.113843
0.00186516
0.123364
0.0700703
0.059885
0.0185626
0.00114466
0.139396
0.0733189
0.06747
0.0858033
0.124735
0.0458619
0.0020029
0.016163
0.0369085
0.142327
0.0173415
0.00884934
0.0325605
0.0124809
0.160103
0.0831892
0.0364189
0.00168391
0.00718714
0.0427884
0.00158497
0.143596
0.0214308
0.00341488
0.00175797
0.0779166
0.136721
0.00189167
0.0127879
0.117613
0.15459
0.00793647
0.165394
0.00994466
0.101808
0.00220238
0.146512
0.151449
0.115895
0.0199883
0.0473855
0.0235029
0.0114748
0.00352933
0.0813888
0.115839
0.147907
0.0676306
0.0336236
0.0488692
0.0183514
0.10788
0.0130317
0.00668571
0.0145548
0.0118509
0.140697
0.0605213
0.00121524
0.011216
0.0920973
0.00860289
0.00127004
0.057312
0.0733305
0.0904892
0.0071104
0.0146098
0.00181209
0.113595
0.031358
0.135938
0.0363193
0.146714
0.00725425
0.0380871
0.00517029
0.132128
0.00905403
0.135033
0.0362885
0.0616916
0.0271407
0.00414961
0.00144057
0.0172008
0.00861651
0.0191904
0.0716355
0.00169237
0.00134114
0.015622
0.0638574
0.119507
0.00151134
0.0878219
0.00084372
0.0771576
0.0266671
0.0516366
0.114031
0.0694115
0.00426278
0.00179569
0.00105782
0.00404464
0.00134191
0.0902699
0.00633842
0.00244567
0.154019
0.0581648
0.114882
0.0077797
0.0910072
0.00193891
0.012635
0.00860771
0.0515542
0.00362225
0.00117979
0.0018286
0.018942
0.0196881
0.131281
0.00237974
0.0883565
0.0021478
0.00495076
0.00664078
0.00297678
0.00378812
0.0316986
0.0382342
0.131675
0.0210178
0.00209312
0.00165541
0.107595
0.00132572
0.0354601
0.0106873
0.00381795
0.00414809
0.00465098
0.0683478
0.018959
0.022772
0.0405964
0.0379916
0.00713848
0.147454
0.0025071
0.128177
0.0763677
0.0084902
0.011681
0.00818788
0.0339673
0.00210153
0.00258108
0.00413895
0.0118774
0.118919
0.0366578
0.101148
0.0648842
0.00352702
0.00971329
0.0346141
0.0615861
0.0228659
0.00169045
0.0290544
0.0515454
0.00257451
0.0968001
0.11897
0.0843878
0.0177484
0.0915283
0.0345626
0.00127566
0.0105507
0.169816
0.00122373
0.00410208
0.106038
0.0417232
0.018755
0.150087
0.12449
0.0826392
0.00278502
0.0161232
0.0423698
0.0174703
0.00994341
0.00320944
0.0462698
0.00699269
0.125166
0.0976237
0.002208
0.00741353
0.0110415
0.0515228
0.0847553
0.00147329
0.00368707
0.00525914
0.0013258
0.135581
0.0406245
0.080768
0.00106592
0.0250143
0.0100329
0.0262885
0.0614448
0.0397633
0.140135
0.119494
0.00882496
0.0976393
0.00653319
0.125502
0.0417722
0.0724226
0.0396049
0.00409304
0.00139318
0.0194861
0.00125256
0.118914
0.0123167
0.0316848
0.00467736
0.0629604
0.0735174
0.014452
0.0143517
0.0125429
0.137571
0.00897553
0.00427476
0.00311694
0.0441028
0.0071611
0.00193481
0.0268375
0.00417396
0.00830192
0.00773976
0.0721334
0.0270968
0.0160924
0.00683915
0.118327
0.0184168
0.107776
0.144019
0.0457552
0.0794653
0.0405781
0.0760572
0.00217104
0.0248931
0.0358501
0.0112974
0.0863393
0.0615789
0.0145625
0.00462159
0.00535575
0.0103036
0.00641086
0.135475
0.00201677
0.0202531
0.0014673
0.00973578
0.132912
0.0506672
0.0333472
0.00195527
0.00151451
0.0105048
0.00605319
0.091729
0.0599662
0.139408
0.135984
0.0012427
0.0237798
0.0615987
0.00789321
0.00261311
0.0056959
0.0366446
0.0144103
0.00630028
0.0171452
0.0243959
0.00239171
0.005397
0.0520332
0.00431382
0.0072471
0.00795233
0.0031187
0.019539
0.0371148
0.140804
0.0675842
0.0411303
0.0112808
0.00136373
0.0122934
0.162757
0.00542938
0.114256
0.00123282
0.00115934
0.117021
0.00131664
0.146308
0.0721603
0.0485971
0.00377478
0.00225593
0.0174634
0.0124221
0.06837
0.00444124
0.149951
0.0186837
0.12724
0.0371736
0.0617847
0.00711242
0.0360776
0.00699888
0.0193016
0.128442
0.0028578
0.00647214
0.0244726
0.0247466
0.0329712
0.00209851
0.00907738
0.0545049
0.0807725
0.0390674
0.0329247
0.00113176
0.00286419
0.00575362
0.0258034
0.09314
0.00259501
0.00907448
0.0509561
0.00205793
0.0943858
0.00806831
0.00146625
0.0922745
0.0012183
0.0018711
0.00655906
0.00124577
0.00700192
0.0607132
0.035756
0.00183837
0.00226175
0.0388325
0.00143524
0.0214709
0.0726265
0.108639
0.0370288
0.0185897
0.0265251
0.00306772
0.00136356
0.0038007
0.0120308
0.166022
0.0090901
0.0014731
0.081306
0.00128717
0.00953326
0.137174
0.0272603
0.140236
0.04575
0.0127687
0.00163425
0.0354458
0.101038
0.00146624
0.00394445
0.0148165
0.157824
0.0113443
0.0730071
0.126927
0.0075365
0.00346897
0.121491
0.103223
0.00649264
0.00113129
0.00936151
0.0435685
0.00251463
0.0391256
0.115125
0.0446382
0.125842
0.0936032
0.101537
0.00205952
0.0158735
0.0195102
0.00177629
0.0157725
0.00392766
0.00313117
0.00415009
0.00880353
0.0442409
0.144278
0.0438809
0.134986
0.00711068
0.111828
0.0041498
0.0200027
0.00763351
0.0977984
0.00209793
0.0089181
0.0017805
0.128627
0.00172358
0.025153
0.00847164
0.00582931
0.0179292
0.111874
0.00284263
0.0150089
0.0037403
0.091842
0.0074608
0.0992506
0.00168522
0.00275541
0.010801
0.0727522
0.0942375
0.00432225
0.00130859
0.0215216
0.0723854
0.0082759
0.0062242
0.0157413
0.0168908
0.00446168
0.0584368
0.0117948
0.0684031
0.0212647
0.0856878
0.00309962
0.0778082
0.0441826
0.00601201
0.00131961
0.129662
0.0116101
0.0259994
0.00595153
0.133031
0.00381692
0.0182716
0.00890485
0.0569933
0.133843
0.00155762
0.0255892
0.00178156
0.0134086
0.00127273
0.0310977
0.0676415
0.0803044
0.0250492
0.0193866
0.0200419
0.00116018
0.0340441
0.0155514
0.00778171
0.117698
0.0594591
0.0161629
0.00600195
0.00110308
0.0614841
0.00193391
0.127155
0.00526882
0.00182585
0.0154478
0.0747038
0.0749583
0.0134594
0.00361658
0.0301725
0.16553
0.0425447
0.0161801
0.0415523
0.00246711
0.0015866
0.00136221
0.121517
0.0228435
0.00246097
0.136585
0.00553467
0.0794782
0.00406771
0.0141715
0.0614104
0.00903569
0.00360975
0.046127
0.0134072
0.0705603
0.00843173
0.0042354
0.00573697
0.00272048
0.0975217
0.02849
0.0021719
0.0551147
0.00914268
0.0124676
0.0340086
0.0860176
0.00262236
0.0153426
0.00306134
0.0456868
0.00608212
0.0445187
0.00250126
0.0209375
0.027843
0.0133806
0.0020365
0.121028
0.143558
0.00475099
0.00399552
0.00157624
0.00275693
0.0257427
0.0496304
0.0731557
0.00433451
0.118765
0.00678464
0.00657237
0.0112928
0.133375
0.0962687
0.0986516
0.0141418
0.0213485
0.00139146
0.00404304
0.00379151
0.00777344
0.116827
0.00149258
0.0433519
0.0165062
0.0391052
0.0143738
0.00761627
0.0676653
0.0905685
0.0168232
0.0974678
0.00989542
0.00427711
0.00134738
0.00532514
0.0242798
0.00389577
0.0733071
0.0520539
0.138877
0.00334989
0.00711952
0.0129409
0.0077735
0.00422483
0.0147524
0.00492276
0.0656617
0.13086
0.00190881
0.0602602
0.00428552
0.0946724
0.07137
0.00689915
0.00308073
0.0701544
0.0059659
0.001415
0.00431188
0.0129789
0.032432
0.0159269
0.0216467
0.00366017
0.0538424
0.00605377
0.00149877
0.017768
0.0344991
0.0942269
0.00223204
0.0692449
0.0745539
0.00422362
0.0423987
0.0898653
0.00569085
0.0185432
0.00387184
0.00387606
0.00135313
0.00193167
0.0756103
0.0365574
0.0680247
0.139758
0.00438956
0.0505916
0.00201272
0.0426139
0.00173429
0.0169179
0.0390061
0.102735
0.0282868
0.0178372
0.0709695
0.0872589
0.00629819
0.0803962
0.0191478
0.0388062
0.000910716
0.0152203
0.0924503
0.0466305
0.0137228
0.121451
0.107731
0.119082
0.134405
0.0406122
0.0585658
0.0333079
0.0123139
0.0101737
0.00111215
0.00164314
0.00173915
0.0904008
0.140767
0.0452859
0.107876
0.0718994
0.0858673
0.015599
0.0728109
0.12512
0.138573
0.0954188
0.0484036
0.00134143
0.0442486
0.114354
0.00203913
0.0183015
0.0975932
0.00215119
0.00119805
0.120158
0.00350304
0.0029645
0.0544548
0.00806697
0.0185909
0.114849
0.0198392
0.128505
0.0234903
0.140938
0.160598
0.0881294
0.00121228
0.024105
0.00898364
0.140289
0.148048
0.0017095
0.0167881
0.120039
0.0316422
0.0316826
0.193114
0.00420544
0.00175639
0.00377757
0.00276289
0.00370377
0.0143449
0.183138
0.00204662
0.00592888
0.0397188
0.0122582
0.166028
0.0670697
0.145987
0.0110039
0.00674496
0.11768
0.0998445
0.00816645
0.0931158
0.00340162
0.0533443
0.00167561
0.00614038
0.00787823
0.0973135
0.0213992
0.0128477
0.015565
0.0457955
0.0121123
0.00476267
0.00659477
0.122605
0.00224849
0.00238744
0.0894714
0.00397001
0.00969269
0.00285265
0.00712979
0.0713281
0.0216605
0.0180105
0.103091
0.0264855
0.117005
0.0095056
0.00346482
0.0163213
0.128743
0.00709818
0.00412294
0.00153991
0.00393831
0.0286964
0.0252351
0.0520188
0.0596438
0.0174956
0.00780384
0.00189516
0.0763343
0.00270956
0.147715
0.00265143
0.00640125
0.00635478
0.115608
0.0212068
0.0017416
0.00150979
0.0111833
0.00143012
0.0429986
0.00371371
0.12262
0.0749845
0.001453
0.0117521
0.0382529
0.0973182
0.00704979
0.00172752
0.00328853
0.00670932
0.0926277
0.115386
0.0925575
0.00148349
0.00156384
0.0799638
0.0156283
0.00589429
0.00893407
0.00449063
0.00191349
0.00134393
0.010509
0.0802958
0.0448614
0.00224934
0.0897251
0.008333
0.00173381
0.00210667
0.0205466
0.0124641
0.000848761
0.00193913
0.00157534
0.00186964
0.00379095
0.00371528
0.134325
0.155722
0.0749835
0.0350544
0.00170219
0.00662738
0.00262665
0.00235873
0.00740813
0.0559459
0.0157984
0.0710473
0.0212107
0.113223
0.0100851
0.00144768
0.00321599
0.139684
0.0946669
0.026253
0.0129922
0.00541312
0.00182476
0.00931243
0.052768
0.00504961
0.0914298
0.00436362
0.0110576
0.0571349
0.0145275
0.00358514
0.00386868
0.00947189
0.041843
0.0725178
0.00273963
0.0129855
0.0963598
0.119304
0.145007
0.132605
0.00134656
0.00357331
0.00171265
0.00175553
0.001966
0.0241053
0.06055
0.0112667
0.0293915
0.0198283
0.00660347
0.129993
0.00197784
0.00150795
0.0107139
0.011895
0.00182969
0.0321534
0.00177614
0.0160951
0.00200135
0.0816297
0.0374448
0.0109213
0.00126911
0.0077685
0.00625545
0.00144269
0.01139
0.00551375
0.0078638
0.00144383
0.0381369
0.0025657
0.00120261
0.0139715
0.00703284
0.00668265
0.0239371
0.0143903
0.131943
0.018312
0.0182246
0.0101721
0.119157
0.00392296
0.00368554
0.00199061
0.00150088
0.001584
0.0136883
0.00167273
0.00367722
0.123899
0.0163412
0.0093541
0.00434862
0.0233387
0.0172611
0.00319938
0.00433194
0.090845
0.00345034
0.0902444
0.111687
0.000987754
0.0105025
0.00148292
0.00421151
0.00230309
0.00421398
0.115429
0.0185113
0.0399055
0.123966
0.00441533
0.0129801
0.0243257
0.0014667
0.00182361
0.143565
0.0263332
0.00180599
0.0400743
0.00371416
0.00748157
0.0024412
0.00256879
0.00380053
0.00340086
0.00124718
0.00179085
0.00284488
0.00189626
0.0271664
0.0182825
0.00550067
0.00599871
0.00548105
0.00443435
0.14534
0.139956
0.0016943
0.00168727
0.0276776
0.00149648
0.0459556
0.00183895
0.00672815
0.00900189
0.11799
0.00189252
0.00174765
0.0229872
0.0165884
0.00198383
0.00183552
0.00153407
0.00153172
0.0569715
0.00314514
0.00191374
0.0106141
0.00477779
0.00366221
0.108088
0.0230408
0.00100663
0.00410805
0.0295511
0.155674
0.00234582
0.00482151
0.0017969
0.00854634
0.00180472
0.00359001
0.0753804
0.00214457
0.166994
0.0251914
0.046968
0.142446
0.135816
0.0140184
0.00403051
0.0928046
0.00225384
0.0193139
0.00389473
0.00189493
0.00194391
0.121921
0.00633812
0.00174158
0.00170492
0.0185567
0.0570893
0.00315888
0.00445549
0.00431056
0.00681975
0.0194132
0.131743
0.00328247
0.00161203
0.0166542
0.00252278
0.0114485
0.047681
0.00338352
0.00682914
0.00223054
0.059073
0.0350735
0.00194916
0.00154087
0.00236719
0.00704489
0.00240863
0.00192938
0.00384362
0.10078
0.0017061
0.0090109
0.0701715
0.0919354
0.0677523
0.00136631
0.00718281
0.00268207
0.00226562
0.0258989
0.00360222
0.0204103
0.00163807
0.00277266
0.00237912
0.00146843
0.0017056
0.00321735
0.0752281
0.00823637
0.00726447
0.0186671
0.00311255
0.0044059
0.00165057
0.0975535
0.0309026
0.00568875
0.123258
0.0515001
0.0223744
0.00323887
0.0319031
0.0372559
0.00228342
0.0174124
0.0066149
0.00221381
0.00403618
0.00398788
0.00443163
0.00171368
0.00151923
0.00593917
0.0189479
0.0419725
0.00176919
0.00682584
0.00620773
0.00663633
0.00610244
0.129838
0.00732319
0.00711579
0.0328066
0.137366
0.0352406
0.0037992
0.0833626
0.0859314
0.00940936
0.00200629
0.0220482
0.00628164
0.0040983
0.0132582
0.0117019
0.0650923
0.094895
0.0148763
0.00719071
0.0431167
0.0177242
0.00267019
0.00466601
0.0381627
0.00229418
0.125703
0.00375662
0.0215631
0.0210409
0.114841
0.00685139
0.0238122
0.00139642
0.00172857
0.00547228
0.1197
0.0518227
0.00409578
0.00384939
0.0573956
0.00491181
0.0022371
0.0105558
0.00507616
0.103654
0.0385468
0.0725584
0.0035165
0.0136512
0.119878
0.00202126
0.02812
0.00594493
0.0065167
0.0859418
0.0046441
0.010324
0.00229248
0.0245443
0.0156347
0.0192529
0.0105837
0.113615
0.0910171
0.00763136
0.00417905
0.0100156
0.153461
0.00393756
0.0400537
0.0299511
0.138523
0.00428478
0.00182131
0.0337442
0.00246825
0.00389538
0.0088541
0.00146676
0.00383179
0.00165033
0.00374003
0.0195585
0.0172322
0.00625345
0.0111815
0.135878
0.0122732
0.0246478
0.00199192
0.113728
0.00429758
0.0776857
0.00204123
0.0073664
0.0387537
0.17797
0.00221436
0.00166063
0.00122176
0.00202233
0.112253
0.0193006
0.00151884
0.0262753
0.00353265
0.00993273
0.00395002
0.00317673
0.0284363
0.114843
0.0068094
0.00717089
0.0583182
0.00208161
0.00474673
0.10258
0.145065
0.152902
0.120019
0.00182604
0.0497829
0.0119433
0.116433
0.0468255
0.0117979
0.0606101
0.0037356
0.00796364
0.0554759
0.0956111
0.00849077
0.0351284
0.00658906
0.00133956
0.00148879
0.00983036
0.00254233
0.0101686
0.0734952
0.00758316
0.00204446
0.0167575
0.00261275
0.00773996
0.00504181
0.0148602
0.0332425
0.0116002
0.013249
0.00204927
0.118602
0.0494683
0.0590945
0.0042464
0.00379068
0.0146719
0.0187247
0.0616514
0.033334
0.0105613
0.00511522
0.0592278
0.00881642
0.00271939
0.00413124
0.0758448
0.0540375
0.00223496
0.00125165
0.0706919
0.00425645
0.0250571
0.006484
0.00938015
0.0852073
0.00150399
0.0244114
0.137642
0.00912831
0.00644414
0.0716125
0.12106
0.00529675
0.082389
0.100337
0.0160427
0.00924663
0.00838749
0.00120893
0.0257274
0.0210669
0.00319251
0.125305
0.00361616
0.00169869
0.0271799
0.0188769
0.00753591
0.0407559
0.0076827
0.112898
0.0115739
0.00180311
0.114638
0.0045896
0.00323774
0.0498548
0.0364065
0.00204584
0.0238424
0.00196179
0.00200574
0.102368
0.0134782
0.00169008
0.0283219
0.0159868
0.0181645
0.0160644
0.0100923
0.00920041
0.0420233
0.00557232
0.00384328
0.00772182
0.0172874
0.121391
0.114587
0.137702
0.00855015
0.00759986
0.141507
0.024768
0.00221393
0.00151127
0.14301
0.0173453
0.00155874
0.0040832
0.148224
0.00343091
0.0165367
0.00777708
0.0185364
0.0389708
0.0241715
0.0433516
0.0684114
0.00751151
0.133443
0.00706183
0.0878296
0.00256998
0.0433097
0.044167
0.0818473
0.035685
0.106359
0.0137223
0.00154079
0.0130898
0.0165153
0.00804244
0.135373
0.0133108
0.0143179
0.0133686
0.00165357
0.12274
0.00321404
0.0672915
0.00168348
0.0022978
0.00107876
0.111263
0.00613813
0.0147147
0.00180825
0.00289929
0.0522501
0.0117489
0.00250641
0.0102548
0.0132174
0.0506608
0.036827
0.0111124
0.00763972
0.0533887
0.00551072
0.00980282
0.00321844
0.00466266
0.155705
0.0118125
0.0216737
0.0458951
0.00658506
0.0513881
0.00151771
0.00341923
0.00901913
0.0164858
0.00346081
0.0503075
0.00738558
0.0126213
0.00304907
0.038763
0.0502317
0.0252613
0.0220122
0.0157338
0.00714002
0.0188761
0.0102057
0.00284245
0.0710514
0.0177623
0.00449202
0.00500844
0.0584063
0.135746
0.0444234
0.0117467
0.0361755
0.0241307
0.0117341
0.0131229
0.0414417
0.00302172
0.0126379
0.0877026
0.033173
0.00700414
0.00175599
0.00914775
0.0130131
0.00423464
0.00396051
0.0130129
0.0236657
0.03381
0.0304067
0.0158362
0.00655301
0.0146212
0.0253035
0.0136034
0.00219412
0.0170262
0.0747895
0.00147834
0.0042383
0.00195464
0.00988254
0.0270337
0.0184423
0.0230272
0.078909
0.0618991
0.0164288
0.0917691
0.0220314
0.156005
0.0381331
0.0325257
0.0737598
0.0104006
0.0239193
0.0728475
0.0657405
0.13986
0.0236037
0.0281236
0.00292378
0.0869936
0.0196284
0.00172275
0.0696698
0.0351559
0.0296158
0.0311929
0.00163384
0.00200105
0.00149107
0.00654161
0.0115865
0.00741671
0.0769872
0.0106031
0.0573372
0.00488869
0.041185
0.0194541
0.0316186
0.0134456
0.0937241
0.0189156
0.0984589
0.00804715
0.00624261
0.127877
0.00236177
0.0104223
0.0558396
0.0201695
0.0857227
0.0937281
0.00126273
0.0506345
0.0106503
0.00661394
0.10451
0.0940611
0.00999056
0.00202281
0.0168814
0.033725
0.00207509
0.0698956
0.0014262
0.0139004
0.00215447
0.0923629
0.00198911
0.0710817
0.0442368
0.00681984
0.0129721
0.00170196
0.00104616
0.00130065
0.00970231
0.0145414
0.00705675
0.136785
0.0147684
0.0501248
0.111081
0.00406408
0.0879431
0.074508
0.0946278
0.0677437
0.0185934
0.0143322
0.00198122
0.00294861
0.00300782
0.0334644
0.0131648
0.0410712
0.0307019
0.0104021
0.0543388
0.0703293
0.078131
0.0393147
0.0208358
0.00322038
0.019183
0.0135593
0.113992
0.00649239
0.00678594
0.00203663
0.00142746
0.0324109
0.0184314
0.10189
0.00137989
0.00340932
0.0707696
0.123931
0.0282964
0.124787
0.00886735
0.00590115
0.00160531
0.0408951
0.017545
0.0517836
0.00143782
0.0148446
0.124095
0.022346
0.00899952
0.0186244
0.0220321
0.0237211
0.00891056
0.00746342
0.0662083
0.122757
0.0198309
0.017217
0.0535801
0.00168066
0.0174879
0.0444581
0.110262
0.00130596
0.0190638
0.0557404
0.00199113
0.00243548
0.0119179
0.0174814
0.02597
0.00160624
0.125572
0.00141995
0.010461
0.00278263
0.0193479
0.0328958
0.00144398
0.0283988
0.0817819
0.127633
0.0173801
0.0997641
0.00421997
0.043933
0.0506059
0.0233864
0.00217158
0.0321771
0.038382
0.145566
0.00309486
0.00105395
0.00285733
0.00419844
0.0210175
0.051222
0.0172094
0.0124813
0.00391461
0.0817195
0.019445
0.0177137
0.0127959
0.0594969
0.00134052
0.00151722
0.0223436
0.138394
0.032286
0.0696728
0.0676073
0.0691312
0.0979154
0.0443177
0.00493602
0.114553
0.0168272
0.025194
0.0404316
0.00146735
0.0195743
0.0453368
0.0396067
0.00150047
0.107059
0.169766
0.0243344
0.122255
0.011203
0.0234985
0.0402342
0.00887635
0.050158
0.0210196
0.0621636
0.00869732
0.0961348
0.0597662
0.00783861
0.0418047
0.00997088
0.018982
0.0230143
0.012626
0.118925
0.103481
0.0406137
0.0019053
0.0340516
0.0614392
0.00157116
0.0587947
0.0980888
0.124967
0.00401344
0.0128077
0.0127036
0.0104219
0.0133612
0.00679485
0.0320706
0.023387
0.00722127
0.00148327
0.0431495
0.0208625
0.0702013
0.00395149
0.00707746
0.127657
0.0293128
0.00876804
0.0136615
0.0921822
0.00217697
0.0269445
0.00603799
0.00132131
0.0250692
0.0604824
0.0213485
0.063621
0.0427744
0.119812
0.0329277
0.0262489
0.139907
0.147147
0.0117108
0.0455019
0.00819235
0.06115
0.0167705
0.0636345
0.0244802
0.00195013
0.0527747
0.0562737
0.00422903
0.0421502
0.0602833
0.0103004
0.00198606
0.00111628
0.0329916
0.0302014
0.0232922
0.148658
0.117994
0.0186718
0.00377394
0.116881
0.00763758
0.0411976
0.0880074
0.0669216
0.094464
0.0370155
0.0137984
0.0189406
0.0253834
0.00200207
0.0307869
0.0177236
0.0736817
0.00650233
0.0172379
0.0118128
0.0408888
0.0145433
0.0222885
0.0506039
0.121036
0.0101175
0.00226126
0.00177516
0.0529803
0.0258022
0.00212486
0.0228164
0.00670548
0.00337621
0.00214472
0.0246735
0.04019
0.0145121
0.0186037
0.0177741
0.00292695
0.00455684
0.00221774
0.0389261
0.141002
0.053456
0.00818009
0.0587256
0.0897245
0.0183042
0.0595832
0.0609546
0.124347
0.00644486
0.0540263
0.110463
0.0947973
0.00137952
0.0923805
0.0374361
0.113719
0.0416947
0.125429
0.00529461
0.015619
0.004829
0.0790996
0.020794
0.0140999
0.00142537
0.00167296
0.0415321
0.14119
0.00569622
0.00504469
0.0250704
0.00280654
0.0601253
0.0175315
0.148373
0.00344799
0.0392398
0.0555256
0.0212939
0.0457587
0.0452941
0.040043
0.00302919
0.0305441
0.0266157
0.144168
0.0429011
0.0182621
0.0525353
0.0938973
0.0249364
0.0032378
0.0362665
0.0573619
0.00254014
0.00532227
0.0574053
0.0116645
0.12138
0.0327269
0.00823585
0.00799826
0.0350299
0.0369176
0.0349613
0.00323166
0.0246088
0.0512952
0.06922
0.0331989
0.0182474
0.0507168
0.0237596
0.0313068
0.0100261
0.00623547
0.0183588
0.00566928
0.000997051
0.027764
0.117755
0.00113206
0.00543222
0.159198
0.128724
0.0876445
0.038804
0.0619158
0.0317902
0.0922594
0.0964929
0.00346303
0.00400588
0.0255597
0.0476088
0.00585742
0.0324377
0.131848
0.00161888
0.0354778
0.0715793
0.0990796
0.0927097
0.0235666
0.0538377
0.0100829
0.0583235
0.0992923
0.0432871
0.0189943
0.0185752
0.0938588
0.0182798
0.00209439
0.021063
0.0914006
0.00576408
0.0754477
0.0572181
0.0779868
0.0235024
0.124282
0.00134844
0.0407365
0.00264404
0.00105885
0.0120863
0.0365101
0.0410107
0.0551518
0.0709564
0.0171985
0.00792819
0.00805741
0.111968
0.0177197
0.00159796
0.0696184
0.0044359
0.0994694
0.0441948
0.0198362
0.00711566
0.116989
0.0252842
0.0196804
0.00673092
0.00305778
0.00270039
0.0568932
0.122794
0.0108319
0.0435765
0.043348
0.0124388
0.0368376
0.0133482
0.112485
0.00527935
0.133158
0.00503456
0.00969407
0.00248531
0.00139019
0.0994763
0.0100948
0.00236639
0.00605718
0.0911835
0.0623497
0.00785371
0.0725846
0.0578702
0.0921793
0.0951679
0.00611887
0.0199475
0.00213255
0.124105
0.020636
0.120869
0.0941142
0.0375057
0.00188116
0.00936536
0.0696388
0.0327218
0.0795292
0.00161898
0.153204
0.0453986
0.0257057
0.0422686
0.00958573
0.124184
0.00175547
0.0940772
0.0412857
0.0393972
0.0620969
0.0788036
0.0989427
0.00164199
0.108658
0.047236
0.00591893
0.0612337
0.0946427
0.119408
0.11889
0.0147219
0.0620947
0.0854162
0.00115829
0.0356257
0.153178
0.0286888
0.0808068
0.00295212
0.0217283
0.0335947
0.0616324
0.0257519
0.0957107
0.00488761
0.124545
0.0944986
0.00205584
0.14116
0.00975483
0.0305628
0.110669
0.0863331
0.0116886
0.0137878
0.0638813
0.142987
0.0341048
0.0690021
0.102618
0.0385924
0.0562234
0.0663878
0.0609979
0.00800333
0.109052
0.0747553
0.00219279
0.0460254
0.0220199
0.00772744
0.00417272
0.076546
0.0416839
0.084082
0.093545
0.0213295
0.0141448
0.0241162
0.0264225
0.0792176
0.0347701
0.0589944
0.100946
0.0333589
0.00920857
0.0330243
0.032803
0.123605
0.0872685
0.14991
0.00450509
0.0398399
0.106812
0.00139911
0.0434544
0.00176178
0.0878075
0.0667455
0.0796913
0.00428849
0.0587381
0.0289548
0.0384567
0.0928556
0.0820337
0.0979309
0.0552823
0.0313781
0.0639044
0.0102345
0.14102
0.0182089
0.0846793
0.0998708
0.0337282
0.0037774
0.123355
0.101457
0.0243951
0.0510411
0.0310054
0.00607834
0.0234806
0.0212183