/*--------------------------------*- C++ -*----------------------------------*\
| =========                 |                                                 |
| \\      /  F ield         | OpenFOAM: The Open Source CFD Toolbox           |
|  \\    /   O peration     | Version:  v2012                                 |
|   \\  /    A nd           | Website:  www.openfoam.com                      |
|    \\/     M anipulation  |                                                 |
\*---------------------------------------------------------------------------*/
FoamFile
{
    version     2.0;
    format      ascii;
    class       volScalarField;
    location    "1000";
    object      ddt0(k);
}
// * * * * * * * * * * * * * * * * * * * * * * * * * * * * * * * * * * * * * //

dimensions      [0 2 -3 0 0 0 0];


internalField   nonuniform List<scalar> 
10042
(
-4.01257e-07
-1.66973e-07
-1.3919e-06
1.23272e-06
-0.00257291
-2.75587e-07
0.0132329
1.53332e-05
-8.68375e-08
-1.84067e-07
-0.0250246
1.3531e-06
2.26214e-07
-1.19495e-07
-2.34914e-07
4.09654e-07
3.52163e-07
-5.89715e-08
-3.51907e-07
-2.09303e-06
1.0711e-06
-3.12906e-05
1.06404e-07
-6.82267e-07
-1.95492e-07
-1.33022e-06
3.29582e-07
-5.19182e-07
-2.46009e-07
-6.99817e-07
-1.47707e-07
0.0018097
-5.30047e-07
-8.33415e-07
-1.45165e-06
-7.22669e-07
-1.13976e-06
-1.20746e-06
2.24011e-07
-1.29636e-06
-2.93445e-06
-4.26062e-07
0.0479301
-1.25078e-06
-0.00475948
-1.52007e-06
-1.05545e-06
-8.50184e-06
-1.23904e-06
9.27999e-07
2.29903e-07
-1.47564e-06
-7.4932e-07
-1.13922e-06
-1.16005e-06
3.84711e-08
-2.31735e-07
-1.14956e-06
-9.79648e-07
-1.056e-06
-2.19336e-08
2.65435e-07
-1.47682e-06
-1.414e-06
-4.49962e-07
-1.06702e-06
-6.29141e-07
-6.89581e-07
0.0562914
-5.57823e-07
-1.08713e-06
4.51412e-06
-1.37497e-06
-3.17951e-07
-9.82863e-07
-1.36504e-06
-0.000671016
-3.51872e-07
-6.00524e-07
-0.0100389
-1.12554e-06
-0.00106458
-1.04377e-06
-2.13688e-07
-7.03751e-07
1.04293e-08
-6.85023e-07
-1.42693e-06
-1.13963e-06
-3.18725e-07
-8.6929e-07
-0.0026871
-5.52826e-07
-9.94761e-07
-6.99771e-07
-4.64409e-07
-9.1529e-08
-3.60161e-07
-1.17036e-06
-3.21721e-07
1.80393e-10
-7.54899e-07
-0.000504127
-3.30159e-07
-3.22865e-07
-5.89353e-07
-9.09287e-07
-1.68398e-07
8.7948e-07
-9.41888e-08
5.32737e-07
-1.7679e-07
-1.44025e-06
0.0219847
-5.01636e-07
-1.08182e-08
-3.51261e-07
-3.42628e-07
-3.6058e-07
-0.00860972
-1.19401e-06
0.000155275
-8.60533e-07
-6.34145e-08
-7.88687e-07
-7.57056e-07
-8.89001e-05
-1.48622e-06
-5.89111e-07
4.87236e-08
-6.40867e-07
-4.63451e-07
-0.0110621
1.02532e-05
-4.02578e-07
-9.37202e-07
-0.00578213
-1.27184e-06
-7.36477e-06
-1.36962e-06
-7.46504e-07
-3.60983e-07
-7.92838e-07
8.94361e-10
-1.24452e-06
-2.71382e-07
-1.11378e-06
-9.04233e-08
-1.47046e-07
-9.74538e-07
-4.30577e-07
-2.89584e-08
-0.00180143
-0.0127501
1.02321e-06
-3.06779e-08
-4.6762e-07
3.24568e-07
-7.07215e-07
0.00323149
-0.0391456
2.10464e-06
-2.74718e-07
-4.25187e-07
-1.27181e-06
-4.44577e-07
-5.37869e-07
0.00443853
-0.000184499
-0.0124262
-1.22885e-06
-1.02484e-06
0.00532774
-5.57142e-06
-6.28326e-07
0.00970985
-0.0301717
-1.14955e-06
-4.78263e-07
-1.11568e-06
-4.45098e-07
0.0020091
-1.17692e-06
-1.43904e-06
-4.43159e-07
-0.00389121
1.88204e-05
-9.07562e-07
-0.0421476
-7.11289e-07
-3.03237e-05
-9.73324e-07
-0.0109815
0.00699103
-2.04942e-06
1.25127e-05
-9.63537e-07
-8.29152e-07
-1.39754e-08
-1.14193e-06
-6.04921e-07
-7.94572e-07
-7.35414e-07
6.11577e-06
-7.0325e-07
-2.31574e-08
-6.83618e-05
1.189e-06
-2.20934e-07
-1.35798e-06
-0.00156614
1.0778e-06
-4.81888e-07
-4.35498e-06
-5.73241e-07
1.78102e-05
-9.69781e-07
-7.0138e-07
-7.34281e-07
-5.04552e-07
-1.46158e-06
-5.05165e-07
-1.00275e-05
-9.97817e-07
-9.7355e-07
-1.40619e-06
2.92415e-05
-4.54509e-09
5.34781e-06
-1.09316e-06
-9.94131e-08
-2.9066e-06
-1.03492e-06
-1.12707e-06
-2.03966e-06
-9.74226e-07
2.33245e-07
2.33448e-07
-9.14618e-07
-9.4292e-07
-5.6283e-08
-1.04724e-06
-9.78452e-07
-1.68858e-06
5.62434e-07
-2.95725e-07
4.30842e-08
-3.42128e-07
-1.35641e-06
-4.21491e-08
9.31567e-07
-4.33118e-07
-1.35749e-06
-1.72164e-05
3.87286e-06
-0.0447187
-4.63421e-07
-7.3639e-07
-2.47895e-07
-2.0188e-06
0.0112012
-8.88983e-07
-8.87389e-07
2.14223e-07
-1.15396e-06
1.04024e-07
-4.06778e-05
-1.74641e-06
-3.13592e-07
-1.47189e-06
-4.84695e-07
-1.08747e-06
-2.30918e-06
-5.44819e-07
-2.26642e-06
-5.60039e-07
-9.93843e-07
3.28702e-08
-3.08794e-06
-1.2132e-06
-1.25099e-06
-9.86667e-07
-1.32482e-06
-0.0090229
-5.41637e-07
-1.1388e-06
0.0128243
-1.60149e-06
-1.35239e-06
-3.58422e-07
-1.0706e-06
0.00547427
-1.55734e-06
4.16322e-07
8.52475e-08
1.04775e-07
-8.10545e-08
-1.14137e-07
1.84033e-05
-9.6373e-08
4.15281e-07
-3.77057e-07
-8.43183e-07
-9.0103e-07
-4.93918e-07
-4.16698e-07
0.0894286
-1.27479e-06
-0.000434551
1.06288e-06
-1.68716e-06
3.0723e-07
-0.0131959
-4.63412e-07
0.00124656
-0.00943259
-9.99529e-07
-1.69795e-06
-5.43449e-07
-8.51227e-07
-1.39169e-06
5.0189e-08
-1.05525e-06
7.104e-07
-4.52372e-08
-1.15979e-06
-5.99943e-07
2.06961e-07
-1.34e-06
-6.96547e-07
-6.93486e-07
-0.0466781
6.06526e-07
1.03593e-06
-4.59338e-07
-1.31912e-06
-1.12677e-06
-2.38152e-06
-5.83407e-07
-0.000120745
-7.81412e-07
-1.46177e-06
-7.49575e-07
-1.05866e-07
-6.66505e-07
-1.37749e-07
0.000148853
-8.95329e-07
-9.01532e-07
-6.6323e-06
-6.82688e-07
-9.99244e-07
-1.98741e-07
-4.75439e-06
-1.05476e-06
-9.24212e-07
-5.5311e-07
-1.05713e-06
-1.43402e-06
-5.72563e-07
-0.000141512
-1.19613e-06
-1.02763e-06
-1.03362e-06
-1.14988e-06
-5.30816e-07
-8.8089e-07
-7.92793e-07
0.000234574
-1.18564e-06
-1.85621e-07
-8.17552e-07
-1.68549e-11
2.13552e-07
-6.85415e-07
-6.6719e-07
3.99011e-07
-0.00676932
-1.78539e-07
0.0019757
0.000186866
-3.91262e-07
0.00261552
-0.0476148
-1.17488e-06
3.46336e-07
1.00486e-06
7.31832e-07
1.84184e-10
-1.05516e-06
-0.000149601
-2.45655e-08
-7.17853e-07
-0.000930546
4.97426e-07
1.65992e-06
-4.83125e-07
-2.01915e-05
-6.26657e-07
-3.66682e-07
0.000934797
-6.13848e-07
-1.48873e-06
-5.46754e-08
-0.02684
-3.08217e-07
-2.068e-07
-1.47868e-07
6.3111e-07
3.32839e-07
-6.47601e-07
-0.000328883
0.000251258
-1.03462e-06
0.0879166
5.3169e-07
-7.5046e-08
-3.53962e-05
-1.8534e-06
-0.00793542
-1.80215e-06
-2.2713e-07
-8.42903e-07
-5.60343e-07
-1.07386e-06
-1.32201e-06
-1.23706e-06
-6.08742e-07
-0.0226536
-5.93913e-07
-0.00107703
-3.81555e-07
-4.16171e-07
-4.16204e-08
-2.80906e-05
-2.84927e-07
-9.5943e-08
-1.48416e-07
-7.51611e-07
0.000911159
-5.45119e-07
4.72554e-08
5.65949e-07
-0.000624799
5.52417e-07
-6.93976e-07
-7.83282e-07
1.07298e-07
0.0705036
0.00427267
6.60317e-07
-5.14913e-07
-1.23506e-06
1.04152e-06
6.38242e-07
-7.724e-08
-0.000566117
-2.20835e-07
1.10673e-06
-5.09741e-07
-0.000423735
-1.11252e-06
-1.93858e-07
-1.20436e-06
-0.0102922
-5.04897e-07
-1.31176e-07
-5.78531e-07
1.0884e-05
-1.20455e-06
-5.79443e-09
-6.7476e-07
-4.60362e-07
-9.31036e-07
-4.69226e-07
-6.48513e-07
-9.06555e-07
-8.55746e-07
-3.04273e-07
-0.0302222
-4.20675e-07
-1.59212e-06
-3.74336e-07
-9.21713e-07
-1.03796e-06
7.86016e-07
-9.50488e-07
-0.00129391
-5.75392e-07
-0.0300164
-9.30544e-07
-1.10363e-08
7.46182e-08
-8.77391e-07
-1.36847e-06
-2.17149e-07
5.44158e-07
-6.82373e-07
-5.27524e-07
-0.00271145
7.97363e-08
-8.86343e-07
5.61093e-05
-6.28409e-07
-2.50901e-07
-6.52664e-08
-1.65897e-06
6.40201e-08
9.1339e-07
-0.00341785
-0.00740952
-1.30032e-08
-1.40881e-06
-1.09261e-06
-6.37075e-07
-6.43052e-07
4.13291e-07
3.55857e-05
-1.03956e-06
2.48427e-06
-3.94847e-07
-1.67858e-06
-1.96379e-06
-4.98005e-07
0.0255167
-1.27574e-06
-7.09723e-07
-2.90459e-07
6.26758e-07
-9.20536e-07
0.000100165
-6.67486e-07
-1.7559e-07
-0.0014844
-8.07189e-07
-4.01363e-06
-6.36053e-07
6.22728e-07
-5.34671e-07
1.98003e-06
-1.14263e-06
-0.109268
-0.00501152
-7.12571e-07
-4.68817e-08
-1.84279e-07
-9.94032e-07
-9.37473e-07
-3.09798e-07
-0.0353459
-3.85602e-08
1.07086e-06
-1.19046e-06
3.10864e-07
-5.445e-05
-9.18116e-07
-1.00593e-05
-1.16483e-06
6.30935e-08
-1.29391e-06
-1.47541e-06
1.4612e-07
-7.81164e-07
-5.63612e-07
-8.04835e-07
9.94534e-07
-1.62055e-06
-5.75597e-07
-3.80554e-07
-1.00361e-06
-6.72651e-08
-7.44922e-07
-9.91155e-07
-5.83425e-07
-2.59294e-07
-6.72901e-07
4.10942e-08
-4.40951e-07
1.65028e-06
4.94848e-07
-7.28203e-07
-2.64739e-05
-2.25769e-07
-1.30748e-06
1.42075e-06
-2.55776e-07
0.00337279
-1.46929e-06
3.583e-07
2.01143e-05
-1.71099e-06
-2.83982e-07
-4.46704e-07
2.15737e-07
-1.89882e-10
-9.38672e-07
-8.58289e-07
-9.49678e-06
-6.09976e-07
2.45656e-07
-6.54097e-07
-1.12925e-06
-1.57229e-06
8.76194e-08
-9.14563e-07
-5.18877e-07
-8.63225e-07
-3.25741e-07
-1.42399e-06
4.89279e-07
-3.52029e-07
-5.11857e-07
-7.60374e-07
0.0219709
-1.12809e-07
-5.149e-08
-1.0254e-07
-7.73852e-07
-7.7003e-08
-1.44533e-06
-3.67942e-07
-1.41333e-06
-1.1716e-06
1.80402e-05
-9.40192e-08
0.0319239
-4.25069e-08
-6.7402e-07
7.3295e-07
-9.64421e-07
-9.92371e-07
-9.89233e-07
-8.39533e-08
-6.0642e-06
-0.00406333
-5.54086e-05
-8.17956e-07
-8.60523e-07
-9.48114e-07
-6.2434e-07
-1.54329e-06
-6.91677e-08
-5.80816e-07
-5.14093e-07
-0.13752
1.00703e-06
-0.0305701
-1.45871e-06
-5.70316e-07
6.71106e-08
-1.53057e-06
-7.76176e-07
2.81031e-07
-1.16708e-06
-1.61066e-06
2.65846e-06
-1.08351e-07
-2.36951e-07
-9.673e-07
0.0314347
-7.74639e-07
-9.4555e-07
2.22319e-06
-2.74117e-07
-0.0015225
-4.94286e-07
-9.25528e-07
-4.19784e-07
-6.65433e-07
-0.0144313
-1.94263e-06
0.0453764
6.17017e-07
-0.00214288
0.0139187
0.000118044
6.92041e-07
-2.43744e-06
6.84271e-06
-5.67102e-07
-9.52069e-07
1.60129e-07
-7.15925e-07
-0.0166431
-9.4404e-07
-6.8342e-07
-0.14401
-9.66646e-07
-6.67032e-07
-6.01135e-07
-6.86161e-07
-9.18151e-07
-1.24519e-06
-1.00039e-06
0.0267954
-9.39795e-07
-7.23976e-07
-0.0110531
-0.029161
-8.65743e-07
-1.24805e-07
1.4546e-07
5.72212e-07
-4.98445e-05
-2.09322e-06
-5.12478e-06
-5.12244e-07
-9.80738e-07
-8.61441e-08
-3.03043e-07
-4.29969e-08
-1.37103e-06
-8.24586e-07
0.0980499
2.29991e-07
-6.46677e-07
-6.52799e-07
-1.83703e-07
-2.62658e-07
-3.87792e-07
-1.2308e-06
-0.00139073
0.00134082
-7.3003e-07
9.02578e-07
0.000975458
-0.0222587
-4.59916e-07
-1.94805e-06
-4.55916e-05
-8.13708e-07
-2.97812e-07
-9.20478e-07
-1.88521e-07
8.82771e-07
-8.90324e-06
-7.69145e-07
-1.45661e-06
-1.63212e-07
-0.0315953
0.000134319
1.17646e-07
-2.07248e-07
1.31089e-06
1.06398e-06
-7.22461e-08
-1.11849e-06
-0.00234354
-0.0500567
0.0144619
-1.54169e-06
-1.78372e-06
-4.40158e-07
2.67158e-07
9.21732e-07
5.60882e-07
9.72731e-07
-7.34392e-08
3.04582e-08
-1.77525e-06
-6.7465e-07
-7.33719e-07
5.3837e-07
1.0629e-06
6.68373e-07
-2.80196e-07
6.12326e-06
2.57226e-07
-4.45076e-07
-1.50155e-06
-4.62562e-07
-9.42032e-06
4.64882e-07
-2.69623e-07
-0.0282999
-0.0288694
-4.27117e-07
-0.0100965
0.00198345
-1.02832e-06
2.76498e-07
-7.2309e-07
-2.77072e-07
0.0242913
-7.92158e-07
-1.2845e-07
-1.84986e-07
-0.0149879
-5.59817e-07
-1.44699e-06
2.41447e-07
-9.42309e-09
-1.06812e-06
-4.34128e-07
1.49813e-08
-6.13959e-07
-6.9619e-07
5.50093e-07
-1.98002e-07
-5.61098e-06
-1.13964e-06
-4.26852e-07
-3.81446e-07
-8.19494e-07
-1.0895e-06
4.09825e-07
-8.81213e-07
-1.48468e-07
-3.07031e-07
-1.14383e-05
7.89302e-13
-5.30496e-06
-1.17293e-06
0.0351829
1.64098e-07
-1.42796e-06
-5.23406e-07
-2.83795e-07
-5.29998e-07
-7.55413e-07
-0.0299186
0.00518192
-2.6104e-07
3.67701e-07
0.000109105
4.58592e-07
-2.49916e-07
-4.83073e-08
-1.25372e-07
-1.28623e-06
1.90512e-11
-3.17872e-10
-4.52391e-07
-1.08347e-06
7.81515e-07
-8.18832e-07
-5.14891e-07
0.0766885
-7.50478e-07
-4.39013e-06
6.47427e-07
-1.2697e-06
-4.07657e-07
-0.0231469
-2.34619e-07
0.0162156
-3.93338e-08
-7.60661e-07
1.16786e-08
-6.39876e-07
-1.04742e-06
-9.98553e-06
-5.21493e-07
1.28227e-06
-0.0377758
-1.82494e-07
-0.000116542
-7.89808e-07
-3.7314e-07
-2.99167e-07
-7.84895e-07
-0.11005
-8.42303e-08
-6.76163e-07
-4.55493e-07
-7.35448e-07
-6.32743e-07
-1.92146e-07
4.58198e-07
-1.30052e-07
-2.87111e-06
-1.28343e-06
-1.81359e-07
2.65377e-07
-1.19565e-08
-9.95058e-07
-6.40437e-09
-1.17499e-06
6.87376e-07
1.51199e-06
-6.17149e-07
-1.13264e-06
-7.87603e-07
-1.38168e-07
0.037657
-5.87675e-07
-0.00167371
-5.48639e-07
-0.08265
-1.467e-06
-1.14221e-06
-0.00129574
-1.65622e-06
-1.02399e-05
-0.0986501
-7.97265e-07
-1.3835e-07
-8.09965e-07
-9.43017e-07
-3.97727e-07
-3.18157e-07
-0.00760395
-4.62644e-07
-0.0141275
0.0260776
2.04996e-06
-9.39905e-07
-0.00358054
-0.0549225
-3.54921e-07
1.61967e-07
1.02145e-06
-9.17511e-07
5.07486e-07
7.86197e-07
-7.52598e-07
0.000171124
2.20433e-08
-4.30552e-07
-6.24247e-07
-1.96919e-05
1.75214e-06
-5.13781e-07
-1.09357e-06
7.51803e-07
-5.96085e-07
-2.47913e-07
-0.00816538
-8.83807e-07
-3.2861e-07
-0.000342441
-1.1132e-06
-8.46187e-07
0.000123313
0.0292355
0.00904865
-7.10204e-07
-8.66628e-07
0.000100217
-5.61135e-08
-1.92219e-07
2.793e-07
-1.227e-06
5.89286e-07
7.32225e-07
-1.18941e-06
-5.38015e-07
-1.67049e-07
-7.0711e-07
-6.53246e-07
2.56141e-07
-2.09469e-07
-7.74263e-07
6.6012e-07
4.85716e-06
-1.1801e-06
-8.84154e-07
6.02513e-07
-1.99837e-07
5.23111e-07
-8.85795e-07
-0.00333957
-1.00668e-06
-2.99307e-07
-7.74514e-07
-4.6665e-07
0.0304177
-7.66252e-08
4.60006e-07
-3.4353e-07
-5.74706e-07
-0.0277467
1.17134e-06
-1.58956e-07
6.24093e-07
-1.18655e-06
-5.12212e-07
-1.32279e-07
-3.97877e-07
-1.37354e-06
-3.98204e-08
-1.82342e-06
-9.15364e-07
0.0135073
-1.36232e-06
-3.11807e-07
-1.13391e-06
-0.00474773
-4.95579e-07
-1.76733e-05
-1.67184e-06
9.52443e-05
-6.07898e-08
-1.64288e-06
-3.37718e-07
-1.51969e-06
-1.20774e-06
-5.14034e-07
6.90331e-07
-8.314e-07
-1.31604e-06
-7.12885e-07
0.000345246
-8.44972e-07
1.53018e-07
-7.2432e-07
-1.01416e-06
-1.4391e-06
-0.0107829
-1.17568e-06
-1.1956e-06
8.33707e-09
-1.55193e-06
0.00498934
8.21384e-07
-1.35877e-06
-1.69343e-06
-1.93565e-07
7.36454e-07
-2.92826e-08
-2.06604e-06
-2.08533e-06
-1.8267e-06
-7.23192e-05
-9.40298e-07
1.01289e-06
-0.0367317
-6.17759e-07
-2.24873e-06
6.92235e-07
-1.43116e-06
-5.5861e-07
-1.19399e-06
-3.55875e-07
-1.4539e-06
-9.84309e-07
-0.0245565
-8.07917e-07
-4.83378e-07
-2.2492e-06
-1.0396e-06
-6.55948e-05
0.0230237
-6.77076e-07
-3.6251e-08
-4.06589e-05
-5.85919e-07
0.0251058
1.18575e-06
-1.16495e-06
9.75582e-07
-0.00045654
-8.64483e-08
-1.11215e-06
-1.36886e-07
-1.50141e-06
-0.0324422
-1.26578e-06
-9.39953e-07
-7.07163e-07
-2.10752e-07
-1.30187e-06
-1.56436e-06
-2.92395e-07
-8.95062e-07
-7.3506e-08
0.0100202
-0.00909155
-1.63221e-06
-2.89338e-07
3.52899e-07
-0.00057109
-3.43584e-07
0.00370466
-7.46753e-08
-8.75485e-07
-2.47479e-07
-1.03755e-06
-5.91206e-07
2.54779e-07
7.16808e-07
-5.39246e-07
-6.96344e-07
-4.55163e-06
-1.99236e-07
1.9662e-09
-7.76216e-07
-5.09323e-07
-1.20695e-06
-6.78178e-08
-1.60958e-06
-5.64339e-07
-3.81906e-07
-1.0794e-06
1.88863e-07
3.00367e-07
-5.39713e-07
-1.18423e-07
-1.1328e-06
-1.35647e-06
-1.15098e-06
-4.95617e-07
-2.60684e-09
-9.25613e-07
1.67708e-06
-7.01831e-07
6.18989e-08
-1.53195e-08
-1.54665e-06
-9.26183e-07
-4.02646e-07
-8.00601e-07
-3.04261e-08
-0.00607618
-2.86908e-06
-1.04713e-06
-0.0186245
-1.34936e-07
-1.33105e-06
-1.69548e-07
-4.45535e-07
1.02378e-07
-0.000640746
-1.28476e-06
-1.0151e-05
1.05569e-07
-1.83665e-06
-6.57636e-07
-3.4636e-07
-9.16461e-07
-7.61561e-07
1.40318e-06
-4.8998e-07
-1.23839e-06
-4.13747e-07
-4.73485e-07
-1.57296e-06
-8.86527e-07
-1.09169e-06
-5.39284e-07
-4.56652e-07
0.000191298
-4.87295e-07
-1.45009e-06
-0.00945399
-5.81342e-07
-9.49422e-08
-1.19185e-06
4.38837e-07
-4.60619e-07
0.011746
-4.45702e-07
-1.42624e-07
-1.18596e-06
-8.42025e-07
-1.37288e-06
-6.4891e-07
2.34606e-07
0.0428238
-1.83224e-07
-6.67924e-07
-1.02075e-06
-5.25751e-07
9.8245e-08
6.50693e-09
-0.00568325
-1.09227e-06
-6.5979e-07
-6.14985e-07
-3.45868e-06
-3.05477e-07
-1.412e-06
-2.09999e-09
-4.65487e-07
-3.9951e-07
-1.10829e-06
-8.62482e-07
7.83306e-07
-4.34944e-07
-7.46088e-07
-6.7941e-07
-1.58013e-06
-2.73155e-07
-7.27007e-07
-1.46782e-06
-6.46663e-07
-5.45004e-07
-6.82115e-07
-0.142298
-8.92231e-08
-1.46594e-06
6.48206e-07
-5.74417e-08
-7.33088e-07
8.15719e-07
0.0862585
-0.0119719
-0.000123948
-2.86695e-07
-9.22868e-07
-5.16649e-07
-4.06171e-07
-8.02718e-07
-5.30081e-07
-5.09374e-05
-1.517e-06
-0.00411399
-1.30401e-06
-1.45895e-05
0.0196664
-9.59418e-07
-1.03519e-06
-2.14125e-06
-4.23799e-07
-0.0621227
-1.03193e-06
-4.86457e-07
-7.94012e-07
-1.45275e-06
9.41489e-07
-0.0229792
-0.173308
3.11049e-07
0.00115947
-7.03343e-05
-2.64004e-05
-1.52251e-06
-8.04953e-07
-7.38774e-07
-0.00605832
-1.06174e-06
8.89207e-05
-0.0174487
2.94826e-07
-9.14408e-07
-6.70669e-08
-4.83625e-07
-1.51885e-06
-1.31032e-06
7.33712e-06
8.89481e-09
6.96562e-07
-8.25744e-07
-9.31269e-07
1.95524e-07
-1.30731e-06
-4.75099e-07
-3.52598e-07
0.000173423
-1.10864e-06
-1.95802e-07
-0.0706553
-1.26903e-06
5.35413e-07
-3.83616e-07
1.48864e-05
-2.97542e-07
2.71352e-09
2.33119e-07
-2.26073e-06
-4.82343e-07
-8.96292e-07
0.000153997
-1.80622e-06
-0.00808682
-6.74875e-07
-2.31876e-05
0.0656572
0.0781713
6.12441e-07
-9.9727e-07
-1.29535e-06
-5.96609e-07
-8.24016e-07
-8.44162e-07
0.00179749
-1.24976e-06
6.92852e-06
-8.26272e-07
5.55292e-07
-0.000159467
-5.14973e-05
4.68964e-08
3.22406e-07
-0.0122784
-2.28181e-07
-3.62794e-07
-4.96612e-07
-1.0011e-06
5.32952e-07
-6.32257e-07
-1.25568e-06
-4.64863e-07
1.55508e-07
-1.31426e-06
0.00309625
-6.14547e-07
-1.28634e-06
-0.0303239
-9.72896e-07
-2.77453e-07
-4.31652e-07
-2.97512e-07
7.64458e-08
6.0581e-08
-5.00676e-07
-1.17287e-06
-9.86549e-07
1.90798e-07
9.68384e-07
-6.83138e-07
-4.64709e-07
-3.97112e-07
-6.01092e-07
-2.22725e-07
-0.176145
-0.0353306
-1.39651e-07
-0.0108721
-5.57082e-07
-1.29128e-06
1.0135e-06
6.4773e-07
0.00611613
-1.03988e-06
-5.8022e-07
-2.68178e-08
9.85456e-08
-1.52259e-06
-1.03892e-07
-2.38188e-05
9.35089e-07
-3.5799e-07
-1.45857e-06
-0.00742162
-0.0117255
-7.0969e-07
-7.75621e-07
-1.20011e-06
-7.08289e-06
-7.1276e-07
0.0332386
0.0125063
-1.92955e-07
-1.84041e-07
-7.99221e-07
-5.88109e-07
0.0310143
7.95773e-07
-1.74872e-07
-2.00292e-06
-4.00211e-07
-7.25665e-08
-3.96073e-07
6.27001e-07
-2.81752e-07
-5.03528e-07
-3.62374e-07
-1.49562e-06
-0.012046
2.69353e-07
1.27963e-06
-4.93042e-07
-1.66832e-06
-2.33988e-07
-1.13135e-06
1.57628e-07
1.34719e-06
-8.02028e-07
-1.30022e-06
-1.97594e-07
-1.62313e-06
-0.0168797
-7.96659e-07
-4.48086e-08
-7.89517e-07
-4.63151e-07
-5.46808e-07
-8.38076e-07
-1.00034e-07
1.9755e-07
-5.96486e-05
0.0684078
-1.05366e-06
-0.00031259
0.0434166
-0.00694151
-2.34535e-07
-6.69084e-07
-1.47421e-06
-1.75782e-07
1.09155e-06
-3.07027e-07
-9.95153e-07
-7.62999e-07
7.56676e-08
-6.89277e-07
-0.0329497
-4.59791e-07
-7.38664e-05
-5.00541e-07
-6.29685e-07
-7.62339e-07
-1.17718e-06
-1.05834e-06
1.14611e-06
-5.24921e-07
-1.27841e-06
-3.71085e-05
-1.52095e-06
-1.31185e-06
0.0500302
-8.42584e-07
-5.07659e-07
-1.45056e-07
1.75828e-05
-1.50685e-06
-4.68639e-07
-1.75747e-06
3.63491e-07
3.6106e-07
-8.5965e-07
-1.93635e-06
-1.3957e-06
0.000304643
3.31805e-07
1.05197e-06
-8.66698e-05
-6.43387e-07
-1.13111e-06
1.64848e-06
-1.27519e-06
-3.62451e-07
1.71689e-05
-8.68452e-07
-0.00234308
-6.34037e-07
-3.21718e-07
-2.99979e-07
-4.20923e-09
7.35776e-07
-1.36544e-06
-1.55294e-06
1.5231e-06
0.00867754
1.20603e-07
-0.00220633
0.00526725
-1.20789e-06
-0.000118378
-8.99836e-07
-6.17081e-08
0.00600498
-4.66103e-07
-9.23186e-07
-1.87943e-07
-8.71569e-06
4.82872e-07
9.8606e-07
9.20083e-07
2.98167e-05
-5.7793e-07
-0.0349286
-3.39457e-07
4.84681e-06
9.59191e-08
-1.2679e-06
-4.74043e-05
-4.07686e-07
-0.00560186
0.0487168
-5.79569e-05
0.0251085
-3.62837e-06
-0.00680363
-7.49039e-07
-1.86303e-07
-5.71242e-07
-1.29231e-06
0.00645103
2.2287e-07
1.04462e-06
-1.06661e-06
-8.49865e-07
-4.49718e-07
-1.07782e-06
-1.16408e-06
-0.0110605
-0.0200701
-1.1249e-06
0.030643
-3.41243e-07
-4.45305e-07
-1.17994e-06
-5.28532e-07
-0.0353258
-7.28701e-07
-6.74565e-07
-5.26667e-06
2.64203e-07
-3.54326e-07
-5.69208e-07
2.58068e-07
-1.621e-06
-4.94033e-07
-3.89922e-07
7.08548e-07
-3.5825e-07
-1.42973e-07
-0.00116488
-7.63691e-07
8.78217e-07
0.000148164
8.18969e-07
-1.52087e-07
-3.50166e-07
0.011103
-4.96792e-07
-9.30206e-07
-7.99384e-07
-3.876e-07
-1.3646e-06
-1.08271e-06
-1.07267e-06
-0.000262688
-5.50305e-07
-1.48535e-06
-1.28901e-06
-1.17955e-06
5.20246e-07
-1.08725e-06
-1.16005e-06
0.0171605
-9.23592e-08
-2.43227e-05
6.70095e-07
1.14031e-06
-1.74448e-06
-2.51928e-06
-9.99302e-07
-4.66891e-07
-1.90195e-07
-8.75065e-07
-1.49024e-06
-2.20967e-06
-9.08204e-07
-3.00074e-10
4.12761e-07
-6.52946e-07
-1.27314e-06
-2.14715e-07
-1.35492e-06
-2.73848e-07
1.57193e-07
-0.0271002
-3.05506e-07
-0.013143
-5.50851e-07
-6.14851e-07
-2.34003e-06
-9.66116e-07
-7.74262e-07
-1.20636e-05
2.72539e-07
-8.72136e-08
-1.31709e-06
-9.64865e-07
6.23249e-07
-8.99302e-07
-0.00985897
-0.0540785
-5.21208e-07
-1.7794e-07
5.49614e-08
-8.22143e-07
-1.046e-06
-0.0289532
-4.26051e-07
-7.86242e-06
2.07289e-07
-1.26979e-07
-4.09743e-07
-1.86863e-05
-8.00272e-07
-1.13578e-06
-4.76133e-07
-3.82542e-07
-1.02784e-06
3.58625e-08
-1.06773e-07
-1.08445e-06
0.00862205
-2.64804e-07
-7.05659e-07
-5.8961e-07
-1.15617e-06
-1.52983e-06
0.000109984
-1.23971e-06
-5.88128e-07
1.7448e-07
-1.46835e-06
-7.71058e-06
-5.36878e-07
-1.7814e-06
-8.73737e-07
-1.78201e-06
-1.89708e-07
-1.41792e-06
9.23948e-07
-1.36698e-06
-5.42036e-07
-1.24087e-06
0.000727029
0.000129694
-2.7325e-07
3.74356e-07
-0.0100185
6.33862e-06
-1.77046e-06
-1.07796e-06
-1.87178e-06
-3.50902e-07
0.0129602
1.05706e-06
-1.94365e-07
-0.00406549
0.0210803
-8.6194e-07
-6.85355e-07
-1.68834e-06
-1.02632e-06
0.100475
-1.17488e-06
-1.12822e-06
-1.15322e-06
-8.81495e-07
4.64148e-07
-4.17121e-07
5.78096e-07
5.50861e-07
-3.40374e-07
0.0852748
-5.08324e-07
2.96049e-07
-8.15803e-07
2.99269e-07
-3.14126e-07
7.04506e-07
-1.56412e-06
-4.97176e-07
-4.12848e-07
6.23113e-07
-0.000259727
-1.12475e-06
3.15076e-07
-6.28709e-07
-2.46475e-07
-4.7809e-07
1.93244e-09
-1.00596e-06
-3.86893e-06
-6.91665e-08
-9.97401e-07
-5.05065e-07
-6.53863e-07
-7.07581e-07
-0.113827
-2.01828e-06
6.37423e-07
-1.73978e-07
-6.42913e-07
2.98248e-07
1.9657e-07
-1.01756e-06
-1.3508e-06
-0.000148908
0.00216028
1.26937e-07
7.26895e-07
-7.2529e-07
-4.07234e-07
1.48761e-06
-5.7197e-07
-4.51308e-07
-6.0987e-07
-1.16893e-06
-7.4306e-07
-5.19739e-07
4.57452e-08
-4.15511e-05
-9.73209e-07
-7.94198e-07
-1.33862e-06
-0.0114609
1.13644e-06
-1.81476e-07
0.030853
-7.96517e-07
-1.17414e-06
-3.12312e-05
-3.25189e-07
-0.00779737
-3.64381e-07
5.07671e-06
-6.95242e-07
-1.1997e-06
0.00287304
-7.6145e-07
-8.79126e-05
-1.12958e-06
-6.07591e-07
-0.0393965
-3.66386e-10
-1.39988e-06
-4.45678e-07
-1.8272e-06
-4.29979e-07
0.00330107
-1.63797e-06
-0.000511212
-7.50341e-07
-7.642e-07
5.17931e-06
2.63526e-07
-1.32592e-06
-5.11888e-07
-1.11249e-06
2.61439e-07
-9.82627e-07
-5.16399e-07
-6.33202e-07
-5.58642e-07
-7.47834e-06
0.00393858
-1.4674e-06
-4.04555e-07
8.61251e-08
-0.0453815
-7.45042e-07
-6.61946e-07
-4.11883e-07
-0.0413108
-1.10339e-06
-6.06063e-07
-5.55396e-07
-7.5131e-07
-6.4303e-07
-3.01685e-07
-4.87702e-07
-9.13912e-07
1.05808e-06
-0.0195605
-0.0012619
1.47291e-06
-9.17179e-07
-1.03925e-06
-1.63953e-06
-6.43407e-07
-1.08487e-06
-2.73442e-07
-7.42684e-07
-0.00276477
-2.29605e-07
-6.47111e-08
-9.85607e-07
0.0127756
5.7984e-07
-9.02901e-07
1.10564e-07
-3.46236e-05
-8.09129e-07
-1.21944e-06
-5.13473e-07
-1.70588e-06
-5.50564e-07
-1.92968e-08
0.0217404
6.4028e-09
-1.45361e-06
-9.83435e-07
-3.90561e-07
1.9248e-08
-2.07052e-07
-9.41461e-07
-1.22055e-06
-1.15622e-07
5.49616e-07
-3.28577e-07
-1.14793e-06
9.47871e-07
-1.45128e-06
-6.2461e-07
0.0374712
-0.0153529
-5.30603e-07
8.62059e-09
-6.98404e-07
-5.43522e-07
-0.0121943
3.86362e-07
-2.41291e-06
1.06911e-08
-2.0435e-07
-9.16189e-07
-1.53083e-06
-0.0411019
-8.90232e-08
-0.0279832
-4.64003e-07
3.70258e-07
-1.36859e-06
0.000146702
-7.26775e-07
-6.83816e-07
-0.0113604
6.82649e-07
-1.02467e-06
-0.00531866
-1.044e-07
0.0575063
4.67266e-07
-1.64963e-06
-0.0190493
-8.15896e-07
-6.25285e-07
5.34497e-07
0.00373779
-1.036e-06
1.0837e-06
-2.1696e-05
-1.04187e-07
-9.8021e-07
-2.47941e-07
-0.0261993
-1.09639e-06
0.054642
0.0269904
-5.01835e-07
-1.05838e-06
-8.05023e-07
1.45962e-05
-3.91559e-07
-6.05158e-07
-1.06103e-06
-1.39195e-06
-8.26153e-07
-3.87959e-07
-8.08712e-07
-8.6723e-07
-3.52202e-07
-0.00541462
5.47226e-10
0.00919432
-4.18309e-07
-7.27962e-07
1.19386e-06
8.44455e-07
3.76042e-07
0.0242318
-0.00789211
-7.6666e-07
-3.68376e-07
-1.12209e-06
1.31018e-06
-1.2956e-07
-1.55214e-06
1.10909e-06
-1.63484e-06
1.45449e-06
0.00804632
-0.0260967
1.42176e-06
-5.71322e-07
2.09185e-07
6.33195e-08
-1.1478e-06
-1.50387e-06
-0.0131176
-4.09433e-07
9.84123e-08
4.47774e-07
-0.0170636
-6.21025e-07
-0.00244492
-7.63607e-07
3.06502e-06
-1.6122e-06
0.00998869
1.01468e-06
-3.78535e-07
-3.77635e-07
-7.12809e-07
9.90108e-07
5.42775e-06
-1.81884e-06
-6.32557e-07
7.23943e-05
5.50726e-07
-2.93561e-07
5.4344e-08
-1.55597e-06
-2.23873e-06
-5.36235e-05
-3.93645e-07
-7.94159e-07
-1.00071e-06
-1.16429e-06
0.0131339
-5.24674e-05
-8.15896e-07
5.13948e-08
-1.16792e-07
-4.28716e-06
0.0374769
-7.42428e-07
0.0653227
-4.42455e-07
-3.41064e-07
-0.0113526
-8.76083e-07
0.0405868
0.0552022
-1.58175e-07
-8.75264e-07
-0.000126737
-1.18789e-06
-8.7991e-07
-1.0373e-06
-0.00485574
-1.16823e-06
-6.43914e-07
-0.00126491
0.00386049
-4.86195e-07
-1.35139e-06
-8.84629e-08
-1.5389e-06
0.0101138
-1.36218e-06
-4.7536e-07
-0.00906055
-4.04095e-07
-4.92739e-07
-1.43042e-10
7.36283e-05
0.000752921
-4.29397e-07
-7.35059e-07
-1.1513e-06
-6.76826e-07
-0.00273954
-9.21092e-07
-1.14468e-06
0.00764269
-0.0200827
-9.34398e-07
4.56617e-06
1.25847e-07
0.0226338
-7.19869e-07
-1.26466e-06
-1.52196e-06
8.45694e-05
-1.01102e-06
6.86298e-07
-0.00467943
0.0538106
-7.1131e-07
-3.62035e-07
2.37539e-07
-5.5267e-07
-0.0114608
1.52216e-06
0.0331764
-9.26231e-06
-8.15503e-07
3.43032e-07
0.00801788
-1.3415e-06
-9.39787e-07
-2.89955e-07
0.000825067
-0.010834
0.00171929
0.00960313
-0.0353537
0.00439484
-7.42614e-07
-6.35449e-07
-1.42584e-06
-1.27498e-06
0.013093
-4.17562e-05
-2.93734e-07
-0.00378141
-2.58699e-07
1.71187e-08
7.32791e-08
-9.41555e-07
1.6313e-07
-0.0206813
-2.87798e-07
-5.59372e-05
-3.0165e-07
-3.72631e-05
-3.41046e-07
0.000151414
0.0015568
-1.10453e-06
-1.1166e-06
-4.84363e-07
-6.46703e-07
-2.97787e-07
-3.56602e-07
-8.47895e-07
-0.0231448
-1.61521e-07
-2.12744e-07
-0.000289637
-8.06418e-07
-0.00278174
4.02803e-07
-0.0112041
-1.68638e-07
2.74404e-07
-6.893e-07
-9.85671e-07
-1.40549e-06
-9.52228e-07
-0.0125799
-6.56885e-07
-8.31515e-08
0.0178128
-9.34038e-07
0.00589528
-7.96547e-07
0.0400958
0.0024238
-0.00744241
-1.47305e-06
-6.46688e-07
-4.71181e-08
-0.185539
-1.64651e-06
-1.38353e-06
1.70135e-07
-4.27651e-07
-0.00678596
5.33988e-07
-5.52921e-07
-5.17009e-07
-2.22491e-07
0.0391469
0.0751075
-2.17371e-07
4.5659e-07
-0.00389165
0.0425447
9.55036e-07
0.00676896
5.69604e-07
0.0214316
0.00933788
-1.44636e-06
-7.98483e-06
-1.29679e-05
-7.52825e-07
-0.0135363
-1.416e-06
-9.17134e-07
-7.126e-07
4.89528e-08
0.0304692
0.0865104
-7.97041e-07
-4.28737e-07
-0.0135971
7.63981e-07
-0.0172878
-5.99935e-07
-9.03183e-07
4.11412e-07
-0.00188366
-1.344e-06
-6.34504e-07
-0.00710072
-2.41122e-08
-0.000116979
-0.0281725
-6.01699e-07
7.18595e-07
2.49429e-06
2.72978e-08
8.28662e-07
2.73848e-07
-0.0564279
-5.54539e-07
-1.22536e-07
-6.85477e-07
0.0476897
-7.19688e-07
-5.44874e-07
-4.27671e-07
-0.0101911
-5.57519e-07
-7.81649e-07
1.55062e-06
-0.0100873
0.00338959
-1.12274e-06
-2.06064e-06
-1.32251e-06
-3.21961e-07
-5.24598e-07
-0.00579923
-7.54005e-07
-7.82095e-07
1.99346e-07
-3.12493e-05
6.50103e-07
-0.0060813
0.00187736
-8.37346e-07
-0.0140596
-0.00658627
-6.99989e-07
-1.02939e-06
0.00244718
4.6253e-07
0.00339777
-1.07795e-06
0.000182235
-3.80603e-07
-5.68244e-07
-9.16114e-07
-7.10033e-07
-1.29497e-06
-5.75557e-07
2.61172e-07
0.00235965
-1.01967e-06
-0.0122936
0.0272698
-3.88206e-07
6.29153e-07
-3.61078e-07
0.0227091
-7.59712e-07
-3.30933e-07
2.73555e-07
-0.00507609
-0.00382569
0.0320403
-0.0238193
-1.403e-06
-1.05729e-06
8.03534e-08
-1.13641e-06
-1.19505e-06
-0.00104815
-4.02523e-07
-3.30283e-07
-0.00156964
-1.17663e-06
-7.03784e-08
-1.60087e-06
-0.00126049
9.70927e-07
-2.07677e-07
-3.92548e-07
-3.6266e-05
4.7451e-05
-0.0685066
-1.2936e-06
-4.0008e-07
-3.33889e-07
1.1021e-06
-4.1409e-08
-8.66754e-07
-4.17371e-07
-5.57354e-07
-2.65158e-06
-1.52089e-06
-9.36469e-07
-1.36355e-06
-1.48612e-07
-9.2532e-07
-1.02412e-06
-4.74288e-07
-5.77547e-07
-9.15619e-07
-9.67052e-07
-8.85822e-07
-6.00485e-09
-6.15558e-07
7.18331e-07
-1.04124e-05
-4.14449e-07
-4.72503e-07
-0.000182788
0.00286009
-0.0139282
-0.0440073
-3.89884e-07
1.32355e-07
-4.52669e-07
0.0132588
-7.97374e-07
1.29739e-07
-6.97106e-07
-0.0569563
-7.32848e-07
-1.33855e-06
0.00011646
-9.63191e-07
-2.86161e-07
-1.03422e-06
-3.75436e-07
-3.90843e-07
3.22554e-07
-5.59624e-07
-2.01018e-07
-6.76077e-07
-8.15904e-07
-7.91502e-07
-1.53226e-06
0.000206119
-1.96053e-06
-9.12925e-07
-1.26967e-06
-1.08013e-05
-7.0197e-07
-6.65819e-07
-9.67157e-07
-0.020192
-1.69037e-07
-7.42911e-07
-9.86641e-07
-7.54536e-07
-1.02772e-06
-1.43681e-07
-3.93369e-07
-0.00102039
-4.86661e-07
-2.60292e-06
-2.61703e-07
-2.92255e-07
-5.25033e-07
-3.81291e-07
-5.33459e-07
-1.44437e-06
-3.6151e-07
-8.15222e-07
-1.17632e-06
-0.00582833
-2.18557e-07
-1.01858e-06
-5.60426e-07
0.0102833
-2.25669e-05
-1.09855e-06
5.83823e-09
-1.15551e-06
2.41427e-07
-1.63032e-06
-5.6235e-07
-0.130923
-1.46923e-07
-5.64791e-07
2.13909e-07
-6.93992e-07
-1.50415e-05
-1.00764e-06
0.000197622
-2.92037e-07
-9.72351e-07
-3.58558e-07
-4.11416e-07
-0.000421722
0.0423414
4.91572e-06
1.12535e-06
-9.45725e-07
-2.53484e-07
-1.80436e-07
0.00208528
-6.67421e-07
5.18911e-09
-4.5823e-07
-2.42579e-07
-1.33384e-06
-1.37151e-05
-3.7073e-07
0.0514393
3.93913e-07
1.30073e-06
-1.16756e-06
-1.16738e-06
-1.75638e-07
-9.23208e-07
-1.69139e-06
-6.51231e-07
-5.67993e-07
-0.0163741
-3.55496e-07
-6.41328e-07
-3.46259e-07
0.00613197
-1.26627e-06
-2.52758e-05
2.55679e-07
0.0650273
-6.31474e-07
2.84492e-07
-5.90288e-07
3.34366e-08
-1.14949e-06
3.92151e-06
-1.57829e-06
-8.50519e-07
-9.28526e-08
-8.3707e-07
-1.22761e-06
0.0392926
-5.94085e-08
-1.4454e-06
6.59663e-07
1.84257e-06
-1.52017e-06
-4.55226e-07
-1.40243e-06
-0.0967444
0.0236211
-0.00073024
-1.25327e-05
-2.89929e-05
-6.84925e-07
-5.38559e-07
-5.68091e-07
8.50808e-07
7.1316e-07
-0.00152548
-4.24766e-07
3.40334e-07
-6.19989e-07
6.80969e-09