/*--------------------------------*- C++ -*----------------------------------*\
| =========                 |                                                 |
| \\      /  F ield         | OpenFOAM: The Open Source CFD Toolbox           |
|  \\    /   O peration     | Version:  v2012                                 |
|   \\  /    A nd           | Website:  www.openfoam.com                      |
|    \\/     M anipulation  |                                                 |
\*---------------------------------------------------------------------------*/
FoamFile
{
    version     2.0;
    format      ascii;
    class       volScalarField;
    location    "1000";
    object      ddt0(omega);
}
// * * * * * * * * * * * * * * * * * * * * * * * * * * * * * * * * * * * * * //

dimensions      [0 0 -2 0 0 0 0];


internalField   nonuniform List<scalar> 
10042
(
-5.57296e-05
-1.97404e-05
-0.000214461
0.000165946
-2.62294
-3.78077e-05
2.80894
-0.0115265
-1.8848e-05
-2.72676e-05
2.80094
0.000182905
3.18956e-05
-1.91096e-05
-1.32996e-05
6.48519e-05
5.50966e-05
-8.77717e-06
-4.71786e-05
-0.0110145
0.000160648
-0.106955
8.05836e-06
-0.000104203
-2.40774e-05
-0.000408809
4.84073e-05
-7.88864e-05
-3.8882e-05
-0.000104613
-1.88276e-05
-0.17092
-7.78143e-05
-0.000130221
-0.000309271
-0.000110453
-0.000340974
-0.000651808
3.08534e-05
-0.000461819
-0.0512982
-7.47493e-05
2.77434
-0.000178293
-2.61708
-0.00277023
-0.000158465
-0.0233112
-0.000335994
-0.000295683
3.43082e-05
-0.000260674
-0.000114311
-0.00024651
-0.000362242
1.07351e-05
-3.68857e-05
-0.000171944
-0.000152761
-0.000124263
2.35936e-06
3.7165e-05
-0.000308196
-0.000218766
-7.0968e-05
-0.00016347
-9.05826e-05
-0.00166331
-2.3349
-6.62907e-05
-0.000242093
0.0220389
-0.00019807
-0.000251451
-0.000144548
-0.00020587
-2.67987
-4.50433e-05
-0.00024359
0.861961
-0.000270047
-1.56891
-0.000165804
-3.22691e-05
-0.000101048
2.31414e-06
-0.000110402
-0.0257285
-0.000166703
-5.74108e-05
-0.00013157
-1.49865
-7.52732e-05
-0.000183309
-0.000102442
-7.89482e-05
-9.48183e-06
-5.9401e-05
-0.000454088
-4.74161e-05
2.59468e-08
-0.00851229
0.265272
-4.84586e-05
-5.01342e-05
-0.00195496
-0.000133809
-1.97944e-05
0.000132036
-1.38543e-05
7.90513e-05
-1.42258e-05
-0.000331299
-2.33978
-7.747e-05
1.55679e-06
-4.71164e-05
-4.45287e-05
-6.65255e-05
-0.156541
-0.000181622
0.385952
-0.00012762
-1.29389e-05
-0.00739099
-0.000121106
0.201431
-0.000368401
-0.00177658
-5.87031e-06
-0.000357017
-6.44075e-05
2.23855
0.0605964
-5.96787e-05
-0.00203894
-0.885564
-0.000191663
-0.0264123
-0.029955
-0.000111068
-4.74158e-05
-0.00012479
-0.000581293
-0.000199341
-2.9868e-05
-0.000286558
-1.47805e-05
-3.08845e-05
-0.000237475
-7.10314e-05
-4.3024e-06
0.175032
0.305278
0.000152096
-6.28523e-06
-7.45063e-05
4.38395e-05
-0.00218933
-1.20492
2.23435
0.0230603
-4.43518e-05
-7.09693e-05
-0.000198981
-6.02252e-05
-0.00280994
2.39541
-0.959015
0.013388
-0.000213446
-0.000158878
-0.920838
-0.0872188
-0.000763598
3.45097
0.626647
-0.000170774
-0.00622058
-0.000405901
-7.21975e-05
2.11582
-0.000174576
-0.000335362
-7.81121e-05
0.211119
0.105876
-0.000136297
-0.174472
-0.000162026
-0.169308
-0.000154502
-0.74578
-0.274565
-0.00299766
10.4293
-0.000253902
-0.000116351
-3.82647e-06
-0.000204553
-0.000568563
-0.000118882
-9.3588e-05
0.0862614
-0.000101618
-7.07532e-06
-0.42551
0.000175168
-3.2858e-05
-0.000201723
3.22778
0.000153729
-0.00218662
-0.0935717
-9.10122e-05
0.114346
-0.000146801
-0.000107394
0.000735549
-7.19466e-05
-0.000329993
-8.37526e-05
-0.114253
-0.000677676
-0.000141773
-0.000453884
0.108687
3.91617e-06
0.0469014
-0.000266311
-2.13226e-05
-0.0155046
-0.000159996
-0.00027454
-0.000313618
-0.000256143
3.04153e-05
3.4311e-05
-0.000174018
-0.000535386
-1.15673e-05
-0.000156233
-0.000156672
-0.000393409
8.13297e-05
-4.10511e-05
4.39235e-06
-4.29018e-05
-0.000254592
-6.26296e-06
0.000136676
-4.90224e-05
-0.000226056
-0.28674
0.0222609
0.296765
-0.000722198
-0.000708641
-6.51252e-05
-0.00484195
3.93108
-0.000168488
-0.000128174
3.13045e-05
-0.000209298
1.10465e-05
-0.11377
-0.000294507
-5.89937e-05
-0.000219158
-0.000579275
-0.000216674
-0.054349
-0.00071975
-0.0369808
-0.000127722
-0.000552755
7.0583e-07
-0.000569694
-0.00019258
-0.000556272
-0.000145473
-0.000419336
1.63305
-8.37301e-05
-0.000177446
2.8246
-0.00273259
-0.000208451
-4.78567e-05
-0.000186672
2.63955
3.34291e-05
0.00209602
1.27206e-05
1.3296e-05
-6.78924e-06
-2.48095e-05
0.0958062
-3.349e-05
6.66925e-05
-6.32695e-05
-0.000127969
-0.000767469
-9.7314e-05
-0.0046703
4.23699
-0.000178734
0.0209755
0.00015081
-0.000353803
4.53184e-05
-1.20072
-0.00274169
0.251828
5.21169
-0.000151363
-0.000293471
-6.42508e-05
-0.000156537
-0.000454487
7.65481e-06
-0.000464113
0.000105082
-5.30258e-06
-0.000165096
-0.00542087
3.07553e-05
-0.000240949
-0.000104279
-9.14831e-05
-0.935303
8.38052e-05
0.00015318
-6.8033e-05
-0.00020388
-0.000887867
-0.00506479
-0.000657325
0.127213
-0.00072032
-0.000314398
-0.000108231
-1.62175e-05
-0.000107912
-2.04668e-05
0.262887
-0.000131211
-0.000141445
-0.0225747
-8.73594e-05
-0.000165219
-2.23671e-05
-0.0286035
-0.00015035
-0.000137238
-0.00160718
-0.000465014
-0.000249606
-7.95742e-05
0.0748563
-0.000305176
-0.000145575
-0.00073402
-0.000170669
-8.46036e-05
-0.000130504
-0.000122068
-0.272575
-0.000358134
-2.75752e-05
-0.000126669
-2.51407e-09
3.17518e-05
-0.0077365
-9.18421e-05
5.52702e-05
-0.42818
-2.90342e-05
-1.09758
0.283312
-0.000282049
0.66658
1.15675
-0.000376432
0.0154604
0.000147898
-0.000385981
1.36385e-08
-0.000159037
-0.22605
-1.23537e-06
-0.000106211
-5.00278
6.2057e-05
0.000248508
-0.00080259
-0.0913865
-9.3323e-05
-5.65385e-05
-0.518579
-0.00577022
-0.000227039
-0.00234953
5.27887
-4.16829e-05
-3.07381e-05
-2.60665e-05
7.89185e-05
4.92401e-05
-9.95239e-05
0.000193398
0.1337
-0.000158976
4.79021
7.8172e-05
-2.68767e-05
-0.285822
-0.000269582
-1.44113
7.01612e-05
-3.09797e-05
-0.00013079
-8.66748e-05
-0.020781
-0.000232461
-0.000394121
-8.98316e-05
2.12014
-9.32684e-05
0.927829
-3.12729e-05
-6.06801e-05
-1.10083e-06
-0.252592
-4.26215e-05
4.01826e-05
-2.23221e-05
-0.000106372
2.05982
-0.000171284
1.20121e-05
8.20825e-05
-0.931364
6.63943e-05
-0.000180089
-0.000142899
1.16292e-05
8.07653
1.2917
9.87225e-05
-7.26905e-05
-0.000369656
0.000152855
9.47686e-05
-1.33288e-05
-2.07737
-3.48615e-05
0.00015705
-0.000320792
0.0668568
-0.000429852
-2.88302e-05
-0.000456591
13.1533
-0.000792373
-1.48838e-05
-7.96636e-05
0.0551908
-0.000173593
-4.10609e-07
-0.000160665
-7.71287e-05
-0.000142094
-7.86294e-05
-9.92559e-05
-0.000663235
-0.000128255
-4.61487e-05
2.77523
-6.33008e-05
-0.00027369
-5.37829e-05
-0.000142612
-0.000441306
0.000118022
-0.000149991
-2.27719
-9.13229e-05
-0.651257
-0.000177415
-1.65446e-06
1.10983e-05
-0.012752
-0.000212849
-2.6679e-05
8.14503e-05
-9.19505e-05
-0.000120552
0.652937
-3.14909e-06
-0.00120569
-0.143359
-0.000853739
-3.72989e-05
-8.55232e-06
-0.000237159
1.02286e-05
0.00012289
-0.654888
-1.29892
-3.4283e-08
-0.000323313
-0.000521392
-0.000446237
-9.38587e-05
5.99764e-05
-0.0382195
-0.0174768
-0.230995
-6.31057e-05
-0.00023711
-0.000290834
-7.69518e-05
-1.5838
-0.000436564
-9.93653e-05
-4.76973e-05
9.70405e-05
-0.00013677
0.0459165
-0.000202256
-2.69334e-05
-2.38418
-0.0190321
-0.117126
-0.00192533
9.38499e-05
-7.91083e-05
0.000534348
-0.00014077
-8.39165
1.85669
-9.6811e-05
3.03962e-05
-2.68341e-05
-0.000188575
-0.000137057
-4.55627e-05
2.00945
-8.37341e-06
0.000149329
-0.00212927
4.72053e-05
-0.133881
-0.000170363
-0.02943
-0.000467761
9.34829e-06
-0.000208215
-0.00031249
-0.00110252
-0.00165307
-0.0055231
-0.00011957
-0.000219858
-0.000254681
-9.69264e-05
-5.71254e-05
-0.000154725
-6.7159e-06
-0.000103801
-0.000591064
-0.000528376
-3.93975e-05
-0.000105787
6.60149e-06
-6.63861e-05
0.0129944
7.43419e-05
-0.00013304
-0.0912417
-3.63812e-05
-0.001148
-0.00176838
-3.26775e-05
0.712232
-0.000939094
5.43619e-05
0.113673
-0.000262086
-4.2222e-05
-7.01247e-05
2.89308e-05
-5.31685e-09
-0.000177721
-0.00012749
-0.0340031
-8.27388e-05
3.56388e-05
-9.94594e-05
-0.000470426
-0.000551906
9.98778e-06
-0.00021981
-7.71886e-05
-0.000571539
-5.42806e-05
-0.000443824
6.89785e-05
-6.14945e-05
-8.02535e-05
-0.000110192
7.74147
-2.03077e-05
-0.0130319
-1.64408e-05
-0.000114143
-1.17018e-05
-0.000596322
-5.30134e-05
-0.000817849
-0.000179411
0.101361
-1.42617e-05
4.25577
-6.10129e-06
-8.61918e-05
0.000108884
-0.000145157
-0.000148872
-0.000192855
-8.46683e-06
-0.108939
-2.99824
-0.133111
-0.0001761
-0.000780729
-0.000129177
-0.000747069
-0.00259974
-9.60115e-06
-0.000265688
-0.00543668
-10.6223
-0.00198495
-3.56763
-0.000325908
-9.08671e-05
1.05231e-05
-0.00033465
-0.00014185
-0.000986087
-0.000176553
-0.000275842
0.0173266
-1.61047e-05
-3.61184e-05
-0.000247404
1.6236
-9.37763e-05
-0.000203261
0.00060823
-4.11663e-05
0.583981
-7.63195e-05
-0.000142046
-6.7468e-05
-0.000107622
-0.620075
-0.00525496
1.65358
9.19726e-05
-4.87666
6.93148
0.251294
-0.000852002
-0.00491461
0.0471375
-0.000860477
-0.000142435
2.14834e-05
-0.000294391
-0.195395
-0.000132742
-0.00037213
-9.6599
-0.000148523
-9.56377e-05
-9.73092e-05
-9.72118e-05
-0.000137613
-0.000173884
-0.0144238
6.52413
-0.000130456
-0.000109173
2.4793
-2.43295
-0.00011805
-1.33224e-05
2.16858e-05
6.95841e-05
-0.357771
-0.00542951
-0.0725453
-7.70006e-05
-0.000143319
-1.8639e-05
-5.06091e-05
-1.52453e-06
-0.000580883
-0.000127219
0.808851
3.38943e-05
-9.54015e-05
-0.00101804
-1.5866e-05
-0.000819403
-0.00264941
-0.00019074
-5.42874
-6.81719
-0.00011433
0.000123457
0.23819
3.06259
-0.000416902
-0.0002964
0.186008
-0.00485293
-6.50432e-05
-0.000140147
-2.7545e-05
0.000132386
-0.0656908
-0.000171334
-0.00658794
-2.42789e-05
-1.2786
-0.0841061
1.68132e-05
-3.47392e-05
0.0395226
0.000156569
-1.09662e-05
-0.00024307
-0.806787
-5.13437
7.26621
-0.00024839
-0.00194251
-0.000835358
3.72662e-05
0.000149059
8.41559e-05
-0.0526878
-1.04843e-05
4.6297e-06
-0.00205097
-9.77367e-05
3.54594e-05
8.01844e-05
0.000157384
9.83234e-05
-4.28522e-05
0.0323552
3.86615e-05
-4.78944e-05
-0.000583481
-0.0022252
-0.203897
7.02086e-05
0.00320328
-2.43726
-0.629885
-7.27788e-05
-1.73422
3.29241
-0.000158283
3.92982e-05
-9.91063e-05
-4.45581e-05
2.35744
-0.000156386
-1.94596e-05
-2.69564e-05
-1.66944
-0.000700138
-0.000241041
3.55833e-05
4.04954e-06
-0.00112316
-6.50243e-05
4.35095e-06
-0.000481697
-0.00010265
8.31219e-05
-3.14302e-05
-0.0380753
-0.000177697
-5.17399e-05
-5.41365e-05
-0.000116222
-0.0113752
6.17695e-05
-0.000111148
-2.05634e-05
-0.000125157
-0.355751
-2.84612e-10
-0.0948484
-0.000266769
10.6228
1.47071e-05
-0.000258411
-0.00045703
0.00312801
-0.00100871
-0.000118981
-2.91478
2.1943
-4.95549e-05
5.12791e-05
0.261696
6.84081e-05
-3.71172e-05
-9.78781e-06
-1.83639e-05
-5.12546e-05
5.67776e-09
-2.23489e-08
-0.00255463
-0.000375297
9.53043e-05
-0.00040028
-8.31626e-05
5.27801
-0.000143891
-0.046522
8.12309e-05
-0.00219527
-0.000544156
2.16812
-9.52502e-05
-1.31729
-5.86374e-06
-0.000383706
2.49188e-06
-9.98901e-05
-0.00016031
-0.0320211
-0.000612242
-0.000327126
2.4527
-2.7472e-05
-1.75854
-0.000445885
-5.63012e-05
-0.000201267
-0.000233861
-12.7008
-1.79282e-05
-0.00017015
-0.00165897
-0.000135204
-0.000594567
-2.85829e-05
6.65115e-05
-1.93354e-05
-0.0655935
-0.000191916
-2.65686e-05
3.82921e-05
-2.04072e-06
-0.000146071
-3.91026e-06
-0.00017837
9.24485e-05
0.000223359
-9.51101e-05
-0.000303233
-0.000385236
-2.33691e-05
12.9078
-9.33545e-05
3.50627
-0.000546146
-7.25591
-0.000571369
-0.000433118
-0.792608
-0.000501659
-0.0869261
-8.25892
-0.000788225
-2.01684e-05
-0.000127258
-0.000150415
-0.00723697
-5.96934e-05
0.0753376
-5.98908e-05
-2.95143
4.91646
0.000199317
-0.000175709
-0.0958689
-1.7009
-6.44009e-05
2.08166e-05
0.000151371
-0.000202223
7.40217e-05
0.000114707
-0.00293393
-0.188083
3.58029e-06
-7.7238e-05
-9.56936e-05
-0.249764
0.000617388
-7.83784e-05
-0.000224248
0.00624223
-9.56163e-05
-3.41188e-05
0.804647
-0.000141075
-6.21974e-05
-1.57402
-0.00019368
-0.000129049
0.16377
7.3708
2.90571
-0.000111249
-0.000108261
0.249862
-1.05112e-05
-3.49082e-05
4.1511e-05
-0.000769454
9.29769e-05
0.000108864
-0.000311023
-0.000755188
-0.0178695
-0.00010111
-0.000104527
3.77581e-05
-3.50042e-05
-0.000115481
9.62637e-05
0.0334143
-0.000380501
-0.000117826
8.46041e-05
-2.64505e-05
7.73167e-05
-0.000138533
-1.16503
-0.000355104
-4.7152e-05
-0.000107446
-0.000544095
6.98165
-7.09663e-06
6.81333e-05
-4.81145e-05
-8.91418e-05
-2.73272
-0.00036106
-3.01163e-05
9.29609e-05
-0.00033176
-0.0106328
-2.08974e-05
-5.89031e-05
-0.000250402
-1.13931e-05
-0.000403636
-0.000143402
4.18845
-0.000517019
-4.34769e-05
-0.000206418
-0.644737
-0.000221171
-0.049102
-0.000366625
0.269576
-9.07285e-06
-0.000244449
-0.000142887
-0.00388589
-0.000196664
-8.31791e-05
0.000102938
-0.000121231
-0.0170675
-0.013625
-0.144708
-0.000156124
2.31465e-05
-0.000345468
-0.000143917
-0.000205232
0.594012
-0.000187764
-0.000180247
-2.28443e-06
-0.027381
2.33165
0.00012273
-0.000210757
-0.00248847
-3.4898e-05
0.000109273
2.86651e-07
-0.00506095
-0.000336959
-0.00040597
4.91347
-0.000142697
0.000149212
-2.98685
-9.00202e-05
-0.0180607
0.000105277
-0.00025302
-0.000798378
-0.000167802
-5.28939e-05
-0.000229321
-0.000195843
-1.61024
-0.000114942
-7.22862e-05
-0.0186073
-0.000134955
-0.107105
-1.83839
-0.00145975
-4.77331e-06
-0.191226
-8.42098e-05
10.0132
0.000174887
-0.000185099
0.000140128
-1.38149
-1.21737e-05
-0.000175793
-2.17074e-05
-0.000585651
-2.60111
-0.00039573
-0.00064507
-9.32468e-05
-3.18038e-05
-0.000495397
-0.000399802
-4.82985e-05
-0.000188817
-2.89278e-05
0.754065
1.42758
-0.000244303
-5.2565e-05
5.35101e-05
-0.537052
-5.27816e-05
11.5789
-1.36014e-05
-0.000137508
-4.81284e-05
-0.0001619
-0.000142749
3.7885e-05
0.00010205
-8.0063e-05
-0.0847532
-0.0143307
-4.21436e-05
-8.11087e-05
-0.000160782
-0.00104808
-0.00018822
-2.97733e-06
-0.00025662
-8.62425e-05
-6.61663e-05
-0.000727455
2.80744e-05
4.65878e-05
-0.00017092
-1.96076e-05
-0.0210828
-0.00022565
-0.0216283
-6.92754e-05
4.68616e-06
-0.000145186
-0.000213835
-0.00111789
1.22243e-05
-6.63012e-05
-0.002596
-0.000143765
-5.60125e-05
-0.000172094
-4.47578e-06
-3.48447
-0.0445794
-0.000202544
0.68324
-1.87082e-05
-0.000655557
0.00739191
-0.00075187
-0.000790425
-0.57139
-0.000766864
-0.0362298
1.41791e-05
-0.000306016
-0.000103894
-5.63098e-05
-0.000251086
-0.000120901
0.00378982
-7.7893e-05
-0.000175143
-0.00440594
-6.49289e-05
-0.00182635
-0.000450215
-0.00029167
-6.74089e-05
-0.000902398
0.0625773
-7.17041e-05
-0.000511209
-0.802416
-0.000827672
-2.05693e-05
-0.000769104
6.49293e-05
-7.57933e-05
1.59202
-7.15476e-05
-2.25263e-05
-0.000186169
-0.000116876
-0.000432927
-9.79969e-05
3.3628e-05
1.81634
-3.70115e-05
-0.000102729
-0.000184836
-8.66071e-05
1.44809e-05
9.70456e-07
-0.892823
-0.0001601
-9.77025e-05
-9.60637e-05
-0.00987431
-5.42571e-05
-0.000284984
1.94228e-06
-0.000696286
-5.43028e-05
-0.000181697
-0.000134968
0.000115806
-6.57298e-05
-0.0137982
-0.000513377
-0.000500313
-4.69936e-05
-0.000467891
-0.00165557
-8.62632e-05
-0.000160796
-0.000107453
-6.81726
-1.92015e-05
-0.000228934
9.74287e-05
-8.52293e-06
-0.000647576
0.000122439
6.44701
2.69564
0.115095
-4.19796e-05
-0.000164545
-0.000542652
-6.48959e-05
-0.00469344
-0.00156499
-0.359611
-0.00385556
-0.459564
-0.00129455
-0.0524764
1.88585
-0.000306423
-0.000182406
-0.000395818
-7.13638e-05
-5.18186
-0.000168413
-0.000214562
-0.000113848
-0.000293087
0.000145599
-0.123095
-10.4015
4.65782e-05
-0.264909
-0.362109
-0.0570182
-0.000363006
-0.00047416
-0.000113326
-1.29659
-0.00014988
0.2596
3.74511
4.42271e-05
-0.000123343
-9.93437e-06
-8.14083e-05
-0.000330686
-0.000173246
0.0252951
8.72579e-07
0.000109182
-0.000177635
-0.000155436
2.98589e-05
-0.000334983
-7.73305e-05
-4.7987e-05
-0.145973
0.000306612
-2.37912e-05
-6.75346
-0.000194397
7.94814e-05
-6.1204e-05
0.0945116
-3.87385e-05
-1.34462e-06
0.0166586
-0.039051
-7.58193e-05
-0.000187882
0.0201281
-0.000104205
0.878435
-9.59134e-05
-0.0749355
-1.70944
-1.83766
9.20995e-05
-0.000150102
-0.00294259
-0.000208473
-0.00109977
-0.000132979
-1.96129
-0.000209364
0.049774
-0.000125411
8.2305e-05
-1.63245
-0.0430014
5.15119e-06
4.77768e-05
-0.0613784
-2.94806e-05
-5.85238e-05
-8.37658e-05
-0.00019771
7.95183e-05
-0.000263055
-0.000185845
-0.000101515
1.9901e-05
-0.000569462
-4.69146
-0.00263381
-0.000316954
0.0173744
0.0025835
-4.47853e-05
-7.26366e-05
-5.42941e-05
1.13534e-05
0.00108994
-0.000268869
-0.000180491
-0.000142577
2.60361e-05
0.0001421
-0.00047415
-7.19557e-05
-0.00134351
-0.000136649
-3.39716e-05
-13.8613
-0.130815
-2.10466e-05
-7.30085
-0.000412387
-0.000392402
0.000150279
9.25349e-05
5.55195
0.0024519
-8.44683e-05
-7.79226e-06
2.00751e-05
-0.000307217
-1.54201e-05
-0.0691519
0.000137196
-4.92504e-05
-0.000225526
0.0280467
-0.483326
-0.000108608
-0.000114927
-0.0236673
-0.115329
-0.000108743
1.83771
-1.90625
-3.3278e-05
-2.7647e-05
-0.000117866
-9.81824e-05
2.1465
0.000123655
-2.60018e-05
-0.0373754
0.00409669
-9.52474e-06
-5.47564e-05
0.00889677
-4.18911e-05
-7.30328e-05
-0.00192989
-0.00246927
0.257361
3.98752e-05
-0.00164569
-0.000883131
-0.00194749
-3.46499e-05
-0.000377017
2.65405e-05
0.000191593
-0.00799834
-0.000322814
-3.31454e-05
-0.000327112
2.82999
-0.000122376
4.71187e-06
-0.000121397
-0.00516317
-8.12858e-05
-0.000124513
-1.42529e-05
3.05967e-05
-0.409987
-2.05049
-0.000159954
0.143389
-1.64721
0.89739
-2.87501e-05
-0.000104931
-0.000224704
-4.04148e-05
0.000162187
-4.75051e-05
-0.00015098
-0.000113276
1.03977e-05
-9.39345e-05
-1.50391
-0.000691322
-0.0448231
-0.000373267
-9.0299e-05
-9.99619e-05
-0.000501998
-0.000157382
0.000160222
-0.000857838
-0.000568906
-0.190109
-0.000952164
-0.000196725
1.79704
-0.000126742
-7.80114e-05
-2.91967e-05
0.0950894
-0.00069275
-7.63986e-05
-0.000402655
5.49566e-05
5.38361e-05
-0.000473903
-0.00109276
-0.000685566
-0.282253
5.03972e-05
0.000156867
-0.361403
-0.000675506
-0.000269134
0.0228859
-0.000228935
-0.00407021
0.0646997
0.00304876
-3.08257
-9.83787e-05
-5.21334e-05
-4.42227e-05
3.59145e-06
0.00010877
-0.00022617
-0.000729667
-0.000160172
8.23827
1.89766e-05
0.566909
7.34946
-0.00036759
-1.40589
-0.000131235
0.0069426
4.67194
-6.7382e-05
0.00197807
-3.11557e-05
0.0719182
7.20998e-05
0.0250991
0.00012351
0.204341
-0.000914199
0.682075
-5.60196e-05
0.0137429
1.06713e-05
-0.000229397
-0.0521238
-6.5969e-05
-3.50223
-1.73068
-0.0984549
10.1325
-0.0103153
0.338497
-0.000494558
-2.53511e-05
-0.00102498
-0.000275573
3.46368
3.51007e-05
0.000155891
-0.000166024
-0.000781547
-7.14839e-05
-0.000163799
-0.000179429
6.85182
-1.23666
-0.000169502
7.25197
-0.00275465
-6.66507e-05
-0.000954499
-0.000259653
-3.0579
-0.000345937
-0.000107731
-0.285094
4.05591e-05
-5.17239e-05
-8.45703e-05
0.00440939
-0.000306424
-7.6681e-05
-0.000175861
0.000105492
-5.32551e-05
-2.28162e-05
1.43749
-0.000113642
0.000129666
0.00072358
0.0323607
-9.48183e-05
-5.70703e-05
2.44117
-0.000234898
-0.000131526
-0.000114699
-0.00173427
-0.000238971
-0.000421856
-0.000256064
0.066472
-0.000761306
-0.0009972
-0.000193751
-0.000951701
-0.000509159
-0.000487606
-0.000181062
7.1186
-1.37175e-05
-0.074679
9.1495e-05
0.000170404
-0.00102578
0.0159163
-0.00019257
-0.000146595
-2.89043e-05
-0.000880612
-0.00152157
-0.0105593
-0.000377086
-2.8899e-08
6.16005e-05
-0.00020507
-0.00939702
-2.89008e-05
-0.000718075
-3.97848e-05
2.74937e-05
0.570278
-6.19556e-05
-1.15274
-8.49896e-05
-0.000173281
-0.00651189
-0.000130526
-0.000317783
-0.0227402
0.0148972
-1.41056e-05
-0.00699575
-0.000173363
9.25977e-05
-0.000139838
-0.438697
-3.80799
-7.86581e-05
-2.22194e-05
4.36686e-06
-0.00011283
0.00065832
-3.14642
-5.71666e-05
-0.0323374
2.98228e-05
-2.0587e-05
-6.04484e-05
-0.0421867
-0.000127095
-0.000184612
-6.7389e-05
-6.84703e-05
-0.000154335
5.36779e-06
-1.58633e-05
-0.000266342
-3.96801
-4.55993e-05
-9.09367e-05
-0.000843599
0.00154763
-0.000225913
-0.85591
0.000366177
-8.35647e-05
2.68868e-05
-0.000229314
-0.0255828
-8.43281e-05
-0.00767067
-0.000390622
-0.000375016
-2.19815e-05
-0.000329025
0.000135294
-0.0134532
-0.000262223
-0.000191598
0.345433
0.199478
-3.95801e-05
4.19662e-05
-2.02356
0.0181606
-0.00392677
-0.000352586
-0.0077635
-5.63063e-05
-1.86913
-0.000134209
-3.55514e-05
0.354964
5.83059
-0.000105339
-0.000397082
-0.000152905
-0.000162112
0.0819542
-0.000177519
-0.00030348
-0.000272733
-0.000125616
6.94737e-05
-0.00192703
7.83811e-05
8.2876e-05
-5.73622e-05
-1.69893
-7.17963e-05
4.4482e-05
-0.000128724
4.21522e-05
-4.51507e-05
0.000105448
-0.00176868
-0.000542708
-9.5063e-05
9.27001e-05
-0.988854
-0.000174404
4.72172e-05
-9.65496e-05
-4.23635e-05
-7.03644e-05
3.84801e-07
-0.000347134
-0.0109047
-9.27369e-06
-0.00033994
-0.00148527
-9.97351e-05
-0.000308087
-7.63419
-0.000308715
9.37353e-05
-2.4631e-05
-0.00576992
4.52276e-05
2.94971e-05
-0.000204062
-0.000242677
-0.00823151
3.30194
1.64974e-05
0.000108356
-0.000106766
-0.00298762
0.000209715
-7.64474e-05
-0.000176952
-0.00524434
-0.000172586
-0.000177707
-7.80796e-05
0.00219706
-0.0923689
-0.000166814
-0.0158838
-0.000293343
-0.517282
0.000170199
-2.73915e-05
-1.96559
-0.00845756
-0.000230397
-0.078587
0.0010829
0.815513
-0.00128191
0.28397
-0.000185185
-0.000316596
-0.100303
-0.000223351
-0.0894645
-0.000731262
-0.00793476
-0.456064
-2.38595e-08
-0.000210011
-7.123e-05
-0.0924703
-6.39847e-05
4.04392
-0.000851898
4.05964
-8.85271e-05
-0.00631364
0.040406
3.95064e-05
-0.000202408
-0.00304267
-0.000449068
3.8234e-05
-0.000437517
-0.00424296
0.000780641
0.0021392
-0.0242279
7.1274
-0.0234757
-6.04507e-05
1.30261e-05
-2.41107
-0.00355644
-0.00010385
-0.000771847
-5.54726
-0.00016556
-0.000138095
-8.03019e-05
-0.000296585
-9.40172e-05
-4.51425e-05
-0.000587992
-0.000130813
0.000137379
2.9153
0.911757
0.000219058
-0.000170914
-0.000304927
-0.0358277
-0.00145786
-0.000176362
-3.90496e-05
-0.00541026
-7.2122
-2.75838e-05
2.87228e-05
-0.0001529
1.21386
9.21201e-05
-0.000316548
-0.0988826
-0.0864388
-0.000120282
-0.0141035
-0.00407561
-0.000339413
-0.000171477
-2.29557e-06
-2.28123
8.98635e-06
-0.000410326
-0.00015624
-0.000317885
-1.43698e-06
-3.65e-05
-0.000141473
0.00123751
-7.50984e-06
8.15661e-05
-4.79486e-05
-0.000171336
0.000131414
-0.000226228
0.00660937
7.55768
-0.595842
-0.000140217
4.74135e-06
-0.000291997
-0.000139286
-0.148795
5.74448e-05
-0.0300966
-2.72429e-06
-3.35312e-05
-0.000160067
-0.000492471
-4.22717
-1.22746e-05
1.45209
-8.39539e-05
5.21838e-05
-0.000221625
0.452652
-7.95633e-05
-0.00100903
-1.68355
0.000101754
-0.000156119
-3.33135
-3.38827e-05
2.45984
6.90364e-05
-0.000550083
-0.692353
-0.000119289
-9.28909e-05
7.9484e-05
6.92334
-0.000304324
0.000147071
-0.415672
-1.76742e-05
-0.000161159
0.00465908
2.73739
-0.0320735
-1.90492
7.95487
-0.0040855
-0.000164684
-0.0195247
0.0780747
-5.61537e-05
-7.49425e-05
-0.00016001
-0.00053252
-0.00433825
-6.1593e-05
-0.000187067
-0.000126181
-5.495e-05
0.433453
9.07089e-07
5.21157
-6.72016e-05
-0.000911336
-0.000690017
0.000124792
5.31041e-05
-1.34931
-2.03246
-0.000510981
-5.28955e-05
-0.000226403
-2.27026e-05
-1.6837e-05
-0.000695632
0.0131478
-0.000855577
0.000211859
1.81875
1.56482
0.000209791
-8.52786e-05
2.89685e-05
9.59869e-06
-0.000180995
-0.000639145
-2.5187
-6.10778e-05
1.45802e-05
-0.000668734
6.29163
-9.7327e-05
1.9621
-0.000120752
0.028744
-1.17566e-05
2.29378
-0.000991576
-0.00188819
-0.00167919
-0.000108476
0.00014521
0.0400072
-0.000415648
-9.33776e-05
0.190035
8.69108e-05
-4.27142e-05
4.75768e-06
-0.000130594
-0.0323179
-0.239671
-0.00507721
-0.000333526
-0.000469516
-0.000171003
4.9454
-0.128302
-0.00014309
3.64849e-06
-1.88753e-05
-0.0129825
-2.53938
-0.000611753
-1.60259
-7.44133e-05
-5.67528e-05
1.7263
-0.000121262
-1.7367
3.29726
-2.97466e-05
-0.000376233
-0.0993453
-0.00020559
-0.00078796
-0.000155066
0.328161
-0.000334396
-0.0169324
-0.488401
8.16445
-0.000270441
-0.000693022
-1.45803e-05
-0.0226276
3.62658
-0.00022682
-0.000134757
0.477676
-0.00145054
-0.00304243
-3.16351e-08
0.116627
0.180868
-0.00241683
-0.000112568
-0.000312351
-9.91893e-05
-4.35681
9.65497e-05
-0.000297259
8.21285
0.16771
-0.000140281
0.0420499
1.85309e-05
5.45894
-0.00643134
-0.000529311
-0.000377896
-0.659352
-0.000150222
-0.000899219
-3.22593
-1.78242
-0.000122619
-5.23772e-05
3.44222e-05
-0.00682534
1.25829
0.0153664
-1.54416
-0.0156713
-0.000712387
4.48961e-05
-0.916506
-0.00245887
-0.000355985
-0.0169684
-0.332803
-0.17703
-1.46898
4.12003
-1.14169
1.19054
-0.000115508
-0.000243719
-0.00041147
-0.000204347
5.97491
0.243896
-4.27207e-05
3.12813
-3.96831e-05
-6.53743e-07
1.03265e-05
-0.000243426
1.54444e-05
-0.623243
-0.00147476
-0.139981
-4.59084e-05
-0.218557
-0.00139035
0.290567
-1.06873
-0.000173842
-0.000336742
-0.000755474
-0.00258322
-4.44852e-05
-6.00218e-05
-0.000125891
0.945745
-2.23662e-05
-3.3301e-05
0.0158786
-0.000144505
2.93997
6.03925e-05
-0.992373
-2.13659e-05
4.14397e-05
-0.000102765
-0.000138569
-0.000532473
-0.000196002
-0.504768
-0.000402267
-0.000800615
-2.1874
-0.000142144
-2.06693
-0.000113198
-1.84479
-4.53034
-1.45722
-0.0006626
-9.51278e-05
-7.17618e-06
-15.0166
-0.000237431
-0.000411646
2.44601e-05
-0.000375185
-2.26477
8.02102e-05
-8.98696e-05
-9.34886e-05
-3.36158e-05
7.24586
-0.529374
-4.4872e-05
6.88918e-05
-1.05713
-2.50865
0.000131977
2.58613
8.42804e-05
-2.59162
-1.91152
-0.004763
-0.100317
-0.123494
-0.00483065
2.66057
-0.00658009
-0.000129532
-0.000110216
7.23054e-06
-2.17581
0.306495
-0.000134664
-0.000163977
2.09819
0.000119259
1.90268
-8.84122e-05
-0.000130603
5.75186e-05
5.83117
-0.00561425
-9.89575e-05
1.1853
-3.602e-06
1.3724
-1.06903
-9.34546e-05
0.000106752
0.0148721
6.09261e-06
0.000120725
3.85452e-05
-5.03455
-0.000445324
-1.68804e-05
-0.00010277
5.29983
-0.000110495
-0.00139169
-6.82294e-05
-0.11651
-8.31218e-05
-0.0116942
0.000233246
1.02985
-1.59857
-0.000432793
-0.00957644
-0.000247616
-4.60354e-05
-0.0109799
-0.516028
-0.000113038
0.00140914
3.22634e-05
-0.166622
9.24561e-05
-1.85491
0.885668
-0.00890884
2.52593
1.19618
-0.00078402
-0.000152808
0.73682
6.94368e-05
2.66116
-0.000148993
-0.634463
-4.10078e-05
-0.000449386
-0.000689269
-0.00037644
-0.000191973
-8.89502e-05
3.90666e-05
3.17504
0.00302934
1.76712
8.07172
-0.000137258
9.01143e-05
-0.00229024
-1.29074
-0.000583106
-4.88796e-05
4.14442e-05
4.50187
2.96209
0.604192
3.05433
-0.00069365
-0.000166243
1.50364e-05
-0.000221506
-0.000927614
0.371805
-6.18995e-05
-4.57127e-05
-1.68001
0.00136776
-1.04616e-05
-0.00386768
1.2656
0.012241
-3.80496e-05
-0.00159037
-0.179584
-0.86167
-3.79142
0.0429308
-6.75238e-05
-4.99142e-05
0.000172194
-6.17929e-06
-0.000128427
-6.1911e-05
-0.000500673
-0.0657462
-0.000596924
-0.000446029
-0.000508212
-2.20886e-05
-0.000129425
-0.000152529
-0.000557884
-0.000457941
-0.000139661
-0.000312151
-0.000138735
-2.1069e-06
-9.20321e-05
0.000107206
-0.143102
-6.59292e-05
-0.00412215
-0.221646
0.67638
-1.18248
-0.824468
-5.89694e-05
1.96927e-05
-6.51675e-05
2.71454
-0.000132549
1.83327e-05
-0.000104672
-1.44352
-0.000439461
-0.000313934
0.238489
-0.000131362
-3.81971e-05
-0.00039025
-6.11886e-05
-0.00160069
4.80334e-05
-0.000584043
-3.5661e-05
-8.63277e-05
-0.000132533
-9.7452e-05
-0.000363864
-0.0391056
-0.000927645
-0.0151834
0.00078003
-0.0369176
-0.000523336
0.00215205
-0.000154252
2.4936
-4.82845e-05
-9.45161e-05
-0.000130592
-0.000112405
-0.0184269
-2.44771e-05
-0.00306957
-1.34887
-0.000172822
0.102684
-0.000874112
-0.0022545
-0.00243475
-0.0028738
-7.22048e-05
-0.000405337
-5.37082e-05
-0.0110033
-0.00108432
-9.84034
-3.01623e-05
-0.00068766
-0.000137993
-6.4859
-0.0484493
-0.000233115
5.75739e-07
-0.00103526
3.35364e-05
0.000370024
-8.81098e-05
-7.60581
-2.55316e-05
-0.000111942
3.33478e-05
-0.000672978
-0.0479111
-0.000381642
2.38431
-3.8029e-05
-0.000861089
-0.00315231
-6.01812e-05
1.22811
-2.39166
0.0268834
-0.000440892
-0.000344172
-3.79059e-05
-2.97546e-05
5.89245
-0.00618701
-4.8393e-06
-6.06284e-05
-6.2313e-05
-0.000211015
-0.192185
-6.3868e-05
-2.02855
0.00524066
0.0101572
-0.000781082
-0.00016871
-2.94414e-05
-0.000143997
-0.0283523
-0.00473696
-0.000104548
2.55908
-5.37913e-05
-0.000104313
-0.000143669
5.20385
-0.000189183
-0.0852503
3.88665e-05
-1.56083
-9.07833e-05
3.99975e-05
-0.000381337
4.91839e-06
-0.000175557
0.0317588
-0.000230008
-0.000138769
-1.51835e-05
-0.000737524
-0.000286592
2.22652
-1.22809e-05
-0.000214333
9.73799e-05
0.0211614
-0.000225881
-0.000207153
-0.000718264
-1.66656
7.81239
-4.52737
-0.243486
-0.128339
-0.000389042
-0.00304529
-0.000112944
0.000126552
0.000106172
-2.32158
-0.0024311
4.8548e-05
-9.53225e-05
5.79182e-07
-0.000324615
-0.00435327
-3.34501e-05
-0.000200009
0.0188179
0.0172894
-0.0143061
4.35301e-06
-4.37542e-06
0.60269
-0.000149345
-0.000175004
-4.00414
1.96195
3.39817e-05
0.00016787
-0.000253853
-4.52654e-05
-0.000609049
4.60925e-05
0.650606
1.34785e-05
2.33853
-0.000119748
1.40146
-0.000346687
-0.000135956
-0.0016479
-6.42868e-05
-0.000195818
2.26648e-05
-0.000384432
0.0133104
-4.84357e-05
0.0400852
-3.58011e-05
-8.44516e-06
-0.00978228
-4.33417e-05
4.47777e-05
-6.85419e-05
1.52365e-05
-0.000109754
-0.000195094
-1.23599e-05
-0.12877
-0.000118939
-1.24352e-05
-0.00278671
1.16237e-05
-7.1986e-05
-7.10129e-05
-0.000123164
7.95882
-0.100352
-0.000130539
-0.000195881
-0.000239051
-6.70357e-06
-0.092068
2.67871e-05
5.78513e-05
-1.22591
-3.80291e-05
-0.000288578
-0.000172389
-0.000983165
-0.000164137
0.0364417
-8.94658e-05
0.0358633
-0.0022149
-0.000210469
0.485586
0.5455
-0.000130744
-0.012394
-0.000101202
-9.83175e-05
-0.00126591
-0.0139382
-4.79664e-05
2.46265e-05
-0.000153629
-0.000365813
-6.8837e-05
-0.000445912
0.000104115
-0.000271571
0.20919
-0.000870922
-0.0902495
-7.46283e-05
-0.00041791
6.74277e-05
0.000372746
-0.000185714
-9.06052e-05
-0.00015096
0.000228075
-0.00381526
-0.000102997
-0.0205733
-8.89743e-05
-1.65502
6.01253e-05
-1.28658e-05
0.00324535
6.76927e-05
-0.000736744
-0.00919944
-0.000656633
-0.000129027
-0.000148951
-0.000263977
-0.000804264
-0.000188529
-0.00136896
-0.000326948
-0.000201891
3.41163e-05
-0.000249599
-4.33625
-0.000567791
-0.00199995
-2.32321
-4.40167
-0.000925607
-7.15128e-05
-1.78585
-5.00488e-05
-0.00014857
-9.01578e-05
-0.0151551