/*--------------------------------*- C++ -*----------------------------------*\
| =========                 |                                                 |
| \\      /  F ield         | OpenFOAM: The Open Source CFD Toolbox           |
|  \\    /   O peration     | Version:  v2012                                 |
|   \\  /    A nd           | Website:  www.openfoam.com                      |
|    \\/     M anipulation  |                                                 |
\*---------------------------------------------------------------------------*/
FoamFile
{
    version     2.0;
    format      ascii;
    class       volVectorField;
    location    "1000";
    object      ddtCorrDdt0(U);
}
// * * * * * * * * * * * * * * * * * * * * * * * * * * * * * * * * * * * * * //

dimensions      [0 1 -2 0 0 0 0];


internalField   nonuniform List<vector> 
10042
(
(-0.000908027 -0.00162371 6.19599e-18)
(-0.000290943 -0.00109947 -2.04834e-18)
(-0.000649005 0.00252886 -9.69164e-19)
(0.000161254 3.18195e-05 -1.12995e-18)
(-0.199639 0.251987 6.39874e-17)
(-0.000274706 -0.000628991 -4.7738e-18)
(0.147457 0.656959 -1.69686e-17)
(-0.177256 0.105175 4.07247e-17)
(-0.000615698 0.00195777 -6.21286e-19)
(-0.000373904 -0.000656527 5.81621e-18)
(-0.0203344 0.100208 8.46722e-17)
(0.000307653 4.71164e-05 2.89385e-18)
(0.000187055 0.000388579 7.20506e-19)
(0.000359578 0.000214462 1.14077e-18)
(-0.00352677 -0.00366562 -2.07028e-18)
(-0.000368205 -0.00111145 2.8481e-19)
(-0.000413568 -0.00120656 2.68849e-18)
(1.03558e-05 2.59327e-05 -8.2265e-18)
(-0.000909239 -0.00156246 -7.79011e-18)
(0.00268219 -0.0142024 2.93137e-18)
(-0.000532134 -0.000283857 2.57549e-18)
(0.0632651 0.0775958 1.49625e-18)
(0.000210764 0.000100264 -4.15166e-19)
(-0.000146715 0.000507771 8.80344e-19)
(-0.000268498 -0.000930635 5.5877e-18)
(7.41525e-05 0.00420724 4.94511e-19)
(-9.24417e-05 -0.000838132 4.11612e-18)
(-0.00400451 -0.000875189 -7.20449e-18)
(-0.00144398 0.00146311 -1.76104e-18)
(-0.00354979 -0.000299345 6.63649e-19)
(-0.000216601 -0.00171495 -7.9383e-18)
(-0.0329078 0.0137174 -2.557e-17)
(-0.000338957 -0.000620613 -6.02142e-18)
(-0.00311247 0.00150831 3.27856e-18)
(-0.00312505 0.00499836 -3.53099e-20)
(-0.000189343 0.000510989 -1.44551e-18)
(-0.000272314 0.00450853 -2.4076e-19)
(0.000712818 0.000840023 1.08812e-18)
(-0.000186483 0.000468668 2.67079e-19)
(-0.00943117 -0.0011364 -2.39969e-19)
(0.00348513 -0.0134661 -5.91907e-17)
(-0.00359579 -0.00311582 -3.73857e-18)
(0.231656 0.632317 5.75495e-17)
(-0.00228109 -0.00132244 3.7031e-19)
(-0.190563 0.221193 2.88905e-17)
(0.0117905 0.000967208 4.64103e-18)
(-0.00252009 -0.00277571 -1.90317e-19)
(0.0393257 -0.0256939 6.7223e-19)
(-0.0011564 0.00516228 -2.12592e-19)
(-0.0103594 -0.014016 2.17888e-18)
(-8.45159e-05 -0.000118351 -3.965e-18)
(0.00110477 0.00355503 3.40789e-18)
(-0.00284975 -0.00385467 1.13834e-17)
(-2.65087e-05 0.00384405 -1.97074e-18)
(-0.000370127 0.00474813 -8.0085e-19)
(-0.000257279 -0.000744142 4.02217e-18)
(-0.00141132 0.00153323 3.58404e-18)
(-0.00250588 -0.00268901 -5.88844e-19)
(-0.00298369 0.00155047 -4.45438e-18)
(-0.00279728 -0.00377566 8.05789e-18)
(-0.000245236 -0.00131476 7.38002e-20)
(-0.000384018 -0.00168305 7.24318e-18)
(-0.00331482 0.00519337 1.28445e-19)
(-0.000682458 0.00244695 2.37576e-18)
(-0.00103979 -0.00313433 -8.743e-18)
(-0.00293296 0.00177553 2.43966e-18)
(-0.000848061 -0.00211771 -7.5779e-18)
(-0.000181245 -0.0129662 -2.40898e-17)
(-0.258578 0.337059 3.17502e-17)
(-0.00201736 -0.000498566 3.38096e-19)
(0.000112457 0.00399589 2.86057e-18)
(0.00382823 -0.0134289 3.47251e-17)
(-0.00243791 -0.00146316 -5.88298e-18)
(-0.00248129 -0.00814394 3.45325e-17)
(-0.000577356 -0.00199895 -9.84881e-18)
(-0.000145356 0.00054425 1.16171e-18)
(-0.171859 0.265382 6.36975e-17)
(-0.000749082 -0.00139962 -1.14452e-18)
(-0.00421386 -0.00691651 -3.15253e-17)
(0.007179 0.7113 1.34254e-17)
(-0.00119087 0.00487718 9.97266e-19)
(-0.23038 0.216078 -1.76318e-16)
(-0.00261751 -0.000165092 -6.12067e-18)
(-0.0032032 -0.00306038 1.68445e-18)
(-0.000776615 -0.00212111 -1.57323e-18)
(-3.73625e-05 -0.000589139 -2.25331e-19)
(-0.0010942 -0.00151077 5.11091e-19)
(-0.0620408 0.00514978 3.6859e-18)
(-0.00160541 -0.00113751 -4.87111e-18)
(-0.00107337 -0.00144771 -7.89331e-18)
(-0.00204854 0.00224034 -3.38972e-18)
(-0.21677 0.182016 1.08014e-17)
(-0.00411643 -0.000767251 3.14878e-18)
(0.00113206 0.00333335 -1.6739e-18)
(-0.00345191 -0.000472157 6.26359e-18)
(-0.0020912 0.000842455 -9.74982e-18)
(-0.000744481 -0.000985561 5.10849e-19)
(-0.00206995 -1.91576e-05 8.32323e-19)
(-0.00891955 -0.000899511 1.30978e-18)
(-0.00116464 0.00171183 2.03403e-18)
(-2.02293e-06 2.75265e-05 2.66969e-18)
(-0.039656 0.0317613 -7.56634e-18)
(-0.134417 0.209837 -1.39133e-17)
(-4.02696e-05 -0.000656321 -5.9511e-19)
(-0.00367385 -0.00154984 7.56517e-18)
(-0.021353 -0.00360729 5.27711e-19)
(-0.000806016 -0.00188043 3.93382e-20)
(-0.000768798 -0.00101677 -3.13111e-18)
(-0.000505923 -0.000257129 -1.62019e-18)
(0.000819678 0.000654864 -2.3284e-18)
(-0.000277276 4.75211e-05 -3.46853e-18)
(-0.00156586 -7.17346e-06 7.35106e-20)
(-0.00602737 0.0026908 -8.97411e-19)
(-0.32589 0.311835 2.50507e-17)
(-0.00102662 -0.00300358 6.09758e-18)
(-0.00151536 4.34457e-05 6.97693e-18)
(-0.000286062 -0.00187709 -2.09629e-18)
(-0.000834099 -0.0015537 1.71298e-18)
(-0.00200134 0.000911732 2.08673e-18)
(0.0938519 -0.0846356 4.9964e-17)
(-0.00154047 -0.00120758 6.17468e-18)
(-0.142823 0.131742 -1.18238e-17)
(-0.00273319 -0.00122951 4.94991e-18)
(-0.000139198 -0.00182677 -6.78792e-18)
(-0.0347887 0.033026 -5.54867e-18)
(-0.0026936 -0.000238345 -3.48034e-18)
(-0.161276 0.0630873 -2.14684e-17)
(-0.00224252 0.00601261 1.72183e-18)
(-0.0202643 -0.00377517 3.93156e-19)
(-0.0011585 -0.00128786 6.70737e-18)
(-0.0043015 -0.00719426 5.18704e-18)
(-0.00132909 -0.00162326 5.98003e-18)
(0.172516 0.0592802 8.74865e-17)
(-0.018688 -0.0125751 -1.08273e-17)
(-0.00119995 0.00168715 -2.29091e-18)
(-0.023197 0.0113732 1.92846e-17)
(0.10044 -0.0891936 6.55163e-18)
(-0.00215895 0.00229853 -1.59833e-18)
(0.0449297 -0.0217076 -2.37719e-19)
(-0.0677415 0.00245081 1.83417e-17)
(-0.00374484 -0.00218068 4.93467e-18)
(-0.00030997 -0.00197131 3.65468e-18)
(-0.00327818 -0.0021601 -9.50308e-18)
(-0.0171872 0.064365 -1.91388e-17)
(0.000919346 0.0024201 -2.64396e-18)
(-0.00158457 6.76489e-05 1.1427e-18)
(-0.0152017 0.0182713 -2.24403e-17)
(0.000874405 0.00108462 -4.33642e-18)
(-0.00213912 -1.91532e-05 -2.20097e-18)
(-0.00652963 0.000524017 -1.20812e-18)
(-0.000479287 0.00219312 3.28501e-18)
(7.75265e-06 1.8282e-05 3.88495e-18)
(-0.0116993 0.500677 3.63229e-17)
(0.143576 -0.0449367 1.47639e-16)
(-6.12157e-05 -0.00137918 -1.95293e-18)
(0.000204573 0.000358684 -4.28966e-19)
(-0.000618176 -0.00420232 1.17651e-17)
(-0.00040613 -0.0016773 -5.49007e-18)
(-0.0249441 0.0103952 -2.16027e-17)
(-0.0138018 0.0733679 3.93795e-17)
(-0.199717 0.0943357 8.25036e-19)
(0.0098063 0.00121686 1.7159e-17)
(-0.000295776 -0.00181018 1.86136e-18)
(-0.000553252 0.00212426 -1.79983e-18)
(-0.0028083 0.00041894 -2.08982e-18)
(-0.00149976 -0.00166187 -1.04658e-17)
(-0.0136661 -0.0154675 6.84163e-18)
(0.164924 0.109761 -2.33325e-17)
(-0.019937 -0.0177971 3.20733e-17)
(0.13651 -0.0455598 -8.40507e-17)
(8.35168e-06 0.00320372 2.78675e-18)
(-0.000980738 -8.97363e-05 -3.35705e-19)
(-0.232195 0.1834 -7.73844e-17)
(0.00475903 -0.015562 -3.3468e-17)
(-0.00743834 -0.0091124 -1.81159e-18)
(0.576641 -0.112835 -2.00579e-17)
(-0.71195 0.335589 -2.00159e-18)
(-0.00248569 -0.00131628 -8.52879e-18)
(0.000320952 -0.0134493 1.36547e-17)
(-0.00862447 0.00540499 1.48323e-18)
(-0.000646618 -0.00439008 1.63994e-17)
(-0.034208 0.00536515 2.186e-17)
(-0.00101335 -0.00230802 7.24874e-20)
(-0.00248261 0.00589995 -1.24897e-18)
(-0.00340773 -0.0031666 1.3199e-17)
(0.0842849 -0.0966838 -4.84599e-17)
(0.037088 -0.0324632 8.4493e-18)
(-0.00262042 0.00151488 -5.0622e-18)
(-0.295169 0.15598 -1.61386e-17)
(-0.00241867 0.00369474 -1.19152e-19)
(0.0367667 -0.01971 -8.35727e-19)
(-0.00324079 -0.00237338 3.63503e-18)
(0.0639815 0.628348 -8.59465e-17)
(-0.230516 0.20234 4.86263e-17)
(0.00651475 0.0132682 2.45558e-18)
(-0.0282258 0.332512 -1.23142e-17)
(-0.00111515 0.0043255 -2.18201e-19)
(-0.000743985 -0.00164949 2.98404e-19)
(0.00018868 0.000314838 -3.46059e-19)
(-0.0043212 0.00197503 -3.94046e-18)
(-0.00577182 -0.00914814 -7.28414e-19)
(-0.00260103 0.00159787 7.76094e-18)
(-0.00160215 4.66903e-05 1.06147e-17)
(0.00503257 -0.0169018 -1.76699e-17)
(-0.000944731 -0.00231276 -3.23795e-18)
(-0.000685132 0.00111008 -2.69095e-18)
(0.0486521 -0.0286534 -5.47257e-19)
(-0.000109939 -0.0011954 2.72187e-19)
(9.51367e-06 3.76218e-05 3.01583e-18)
(-4.79501e-06 -0.000252252 1.27406e-17)
(0.0839587 0.299556 1.87274e-17)
(0.000430678 8.3776e-05 -1.2015e-18)
(-0.0129788 -0.0142604 -3.022e-18)
(-0.0188478 -0.0475794 -2.30031e-18)
(-0.000738084 -0.00407151 -9.1258e-18)
(0.048037 -0.0356485 -1.039e-18)
(-0.000525145 -0.00185161 1.13722e-17)
(-0.000510573 -0.00109264 4.0032e-18)
(-0.00765571 0.0245722 4.74607e-18)
(-0.00101491 0.000274324 3.82953e-18)
(-0.0061458 0.00304361 -2.76669e-18)
(-0.00120387 -0.0042715 3.65411e-18)
(-0.049742 -0.0518827 1.78123e-17)
(0.001061 0.000393554 -8.58591e-19)
(-0.00405801 -0.00448281 -6.87166e-18)
(0.000422901 0.00374047 -1.36202e-19)
(-0.0866519 -0.0146393 -1.66743e-17)
(-0.00155977 7.23579e-05 -1.44134e-18)
(0.0341958 -0.000535442 -1.75722e-17)
(1.75164e-05 0.0043141 -6.25651e-19)
(-0.000534387 0.00202312 1.74131e-18)
(-0.000256202 -0.0231332 6.3544e-17)
(-0.000960096 -0.000262825 -2.59983e-18)
(0.000144816 0.00452723 2.37044e-19)
(-0.000741352 0.00260949 3.32641e-18)
(-0.00665229 0.000617679 2.1428e-18)
(-0.000911463 0.0009409 -4.32204e-18)
(0.000438135 0.000151002 1.62063e-18)
(-0.00124354 0.00359158 -7.83949e-19)
(-0.0029636 0.0051674 -3.92716e-18)
(-0.000271363 -0.00184909 -2.79282e-18)
(-0.00276021 -0.00129246 9.22643e-19)
(-0.0027169 0.00036701 4.8452e-18)
(-0.00632983 0.00259642 9.11123e-19)
(-0.00143828 4.25823e-05 -8.21124e-18)
(-0.000219137 -0.00165264 2.87013e-18)
(-2.80894e-05 0.000129779 5.30299e-19)
(-0.00384057 -0.00146481 1.20231e-18)
(3.62588e-05 0.00347637 -1.7083e-18)
(7.04559e-06 3.90429e-05 4.68974e-18)
(0.00022238 0.000219826 8.15246e-19)
(-0.0019743 -0.000381285 -4.24272e-18)
(-0.00560936 -0.000944453 -4.48097e-19)
(-0.052053 -0.0565693 1.32087e-18)
(0.0132543 0.00163082 6.03072e-18)
(-0.358233 0.117008 7.19873e-17)
(-0.00716976 -0.00978554 2.08268e-17)
(-0.00848895 -0.00852397 4.89985e-18)
(-0.0036418 -0.0036577 -4.41456e-18)
(0.0140699 0.00322096 7.71241e-20)
(0.488618 0.188888 2.11684e-17)
(-0.00125118 0.00351068 -1.42527e-19)
(-0.000772043 -0.00178909 -5.69579e-18)
(0.000411233 0.000162952 -1.94288e-19)
(-0.00445093 0.0019869 -7.69435e-19)
(-0.000871469 0.000862549 5.19453e-18)
(0.0783556 0.0946081 -4.62705e-18)
(-0.000806219 0.00319281 -9.2025e-19)
(-0.00117843 -0.00137485 -5.36167e-18)
(3.20192e-05 -7.34569e-05 -1.40817e-17)
(-0.00536401 -0.00956538 2.03452e-18)
(2.43149e-05 0.00359153 1.54884e-18)
(-0.023518 -0.0459331 4.51647e-18)
(-0.00813523 -0.00921853 2.12615e-18)
(-0.0683216 0.0316459 5.28489e-18)
(-0.00257655 0.00385622 1.67245e-18)
(-0.00299364 0.00575417 1.33608e-18)
(-0.000861032 0.000698401 -3.19211e-18)
(-0.00101874 0.00311991 -8.5274e-20)
(0.000848824 0.0024678 2.27607e-18)
(-0.00912423 0.00568693 -2.62263e-18)
(-0.0016554 -0.000877805 1.91093e-18)
(2.53399e-05 0.00451678 6.04566e-19)
(0.188291 0.075497 -7.76067e-17)
(-0.000681129 0.00108039 3.76903e-18)
(-0.00091256 0.0021314 1.01522e-18)
(0.442174 0.276393 -1.37348e-17)
(0.0121215 0.00219347 -4.79479e-18)
(-0.00252608 0.00153692 -1.42652e-19)
(-0.000216454 -0.00136157 -1.91525e-18)
(-0.00538277 -0.000879751 5.50939e-18)
(0.53962 -0.150899 -5.37556e-18)
(0.00375918 0.0127633 8.27439e-19)
(-0.010928 0.0659569 1.9483e-17)
(-6.12664e-05 -0.000113392 2.2228e-18)
(0.000212485 0.000290168 2.28077e-18)
(-0.0015848 4.97997e-05 6.43662e-18)
(-0.000679577 0.00195665 4.57184e-20)
(-0.0928282 0.00688908 -1.32877e-17)
(-0.00141743 -0.000907799 -1.19548e-18)
(-0.000252511 -0.00140322 1.57906e-18)
(-0.00105599 -3.63464e-05 -2.37235e-18)
(-0.000451883 -0.00190556 -5.52471e-18)
(-0.000721887 -0.00126801 -2.29361e-19)
(-0.00425957 -0.00312867 -2.52446e-18)
(-0.033966 -0.00113971 -6.65619e-18)
(-0.177726 0.34826 8.92429e-17)
(-0.00262532 -0.00378403 2.60694e-19)
(0.0782197 -0.331018 1.2e-17)
(-0.00141338 -3.62565e-05 -1.03585e-17)
(-0.00106862 0.00312754 -5.19397e-19)
(-0.000110168 -0.000676892 5.15878e-18)
(0.20939 -0.0121963 8.18627e-18)
(-0.0284882 0.0385084 -2.29802e-17)
(-0.215755 0.18007 -4.82415e-17)
(-0.885166 0.148912 -1.11286e-17)
(-0.000107029 0.000567105 6.714e-19)
(-0.000837353 0.00324687 -7.96275e-20)
(-0.0020465 -0.000582702 1.14623e-18)
(-0.00509188 -0.00216517 -1.30159e-17)
(0.000420143 0.00412278 -1.69044e-18)
(7.09158e-06 -0.000113503 -2.39633e-18)
(-0.0105565 0.00384976 -5.67205e-19)
(-0.000257236 5.53823e-05 3.10708e-18)
(0.000501537 0.000106724 2.00738e-19)
(-0.00235682 -0.00137006 9.73623e-18)
(-0.0367048 -0.00230645 1.49169e-17)
(1.58477e-07 0.000137153 -3.54365e-18)
(-0.00242748 0.0035612 4.30083e-19)
(-0.00124068 -0.00158678 -1.20829e-18)
(-0.00426831 -0.00295761 -1.92804e-18)
(-0.563925 0.265592 7.78316e-17)
(-0.00141677 -3.71676e-05 9.1532e-18)
(-7.97123e-05 -0.00138196 -1.54905e-18)
(-0.000300246 -0.000166094 2.77467e-18)
(-0.000577572 0.00243391 -9.44862e-19)
(-0.015837 0.00601798 6.91022e-18)
(0.00653665 0.0148553 -4.00235e-18)
(-0.00897038 -0.0082783 2.23736e-18)
(0.0690031 -0.200665 2.18665e-18)
(2.18781e-05 -0.000933337 -9.86845e-19)
(-0.00254574 0.00558258 -1.00172e-19)
(-0.00132743 -0.00168111 7.90636e-18)
(0.000393802 0.000203701 -1.46699e-18)
(-0.0018831 0.00244253 4.00578e-18)
(5.68896e-06 4.59301e-05 3.7671e-18)
(0.0172904 -0.129425 -3.23476e-17)
(-0.00163043 -0.000794768 9.26102e-19)
(-0.00306203 0.00174374 -1.81196e-18)
(0.0278071 -0.073743 5.32864e-19)
(-0.00165107 -4.36235e-06 -6.3119e-18)
(-0.00548212 -0.0017798 -4.24015e-18)
(-0.00338554 -0.00303067 -1.3268e-17)
(0.0389062 -0.0763755 -6.39088e-18)
(-6.53742e-06 0.00252635 8.07859e-19)
(-0.00401871 -0.00434202 1.90254e-18)
(-0.0193619 -0.00285121 2.36142e-19)
(-0.0104479 0.00334556 5.18539e-20)
(-0.00406545 0.0023296 4.6911e-18)
(-0.000655055 -0.00171369 8.41102e-18)
(0.103306 -0.246194 -5.99001e-18)
(-0.0145438 0.0197527 3.14541e-17)
(-0.000573459 0.00308882 -2.49076e-19)
(-0.0148847 0.00640274 -5.3797e-18)
(-0.000682219 -0.000741558 -9.49033e-18)
(-0.00093402 -0.00030459 2.44289e-18)
(-0.000643485 -0.000665441 -4.95449e-19)
(-0.00549188 -0.0020639 3.99745e-19)
(-0.170694 0.141075 -4.84767e-17)
(-0.00144879 0.00391737 -1.85046e-18)
(5.2519e-06 -4.26819e-05 -2.75861e-18)
(-0.00268384 -0.00346616 -1.48053e-17)
(6.86365e-08 2.88804e-05 -3.24769e-18)
(4.96268e-06 0.000123025 4.02556e-18)
(0.00321679 -0.0153021 -4.3925e-18)
(-0.000707858 -0.00164113 -4.6847e-19)
(-0.000119631 0.0013752 -4.5906e-20)
(0.101224 -0.0833352 -3.59966e-18)
(-0.000702328 -3.02746e-06 -3.40803e-18)
(-0.136749 0.327622 1.65312e-17)
(-0.0103123 -0.137178 1.15414e-17)
(-0.00265944 -0.00824351 -4.47218e-17)
(0.498573 -0.234655 -4.51039e-18)
(-0.426774 0.116524 4.24701e-19)
(-0.00805273 -0.000425713 6.77866e-18)
(0.00121841 -0.0222639 -6.5434e-17)
(-9.5257e-05 -0.00123934 6.13982e-18)
(-0.00811111 -0.0162472 -2.02931e-18)
(-2.20824e-06 8.25733e-05 -4.33536e-20)
(-0.00225566 -0.00265597 2.34612e-18)
(0.145432 -0.153719 -1.54573e-17)
(-0.000285266 -0.000486609 -1.70071e-19)
(-0.00513472 -0.00231903 5.28205e-18)
(0.0588652 -0.0103374 -1.573e-17)
(0.00018842 8.09044e-05 7.04374e-19)
(-0.000534605 -0.000284436 -5.29103e-18)
(-0.00142823 -0.0109323 -6.21779e-18)
(0.031743 -0.0327411 3.32902e-18)
(-0.0027278 0.00171747 -3.9883e-19)
(0.000774959 0.00104666 -1.45476e-18)
(-0.0215663 -0.0180418 1.38506e-17)
(-0.0333671 0.0383732 2.15633e-17)
(-0.00101286 -2.53409e-05 2.03992e-18)
(-7.5333e-05 -0.0122969 -1.29614e-17)
(-0.687254 0.0512542 4.60539e-17)
(-0.00101227 0.000220732 -3.31843e-18)
(9.70199e-06 7.32114e-05 1.83254e-18)
(-0.000367524 0.00107761 7.44349e-18)
(-0.00130446 -0.000785689 -3.15799e-18)
(0.000480839 0.000108644 -3.62293e-19)
(-0.000621506 0.00104677 3.22119e-18)
(0.0497551 -0.286004 2.59276e-18)
(-0.173366 0.183268 1.5862e-18)
(-0.00231741 -0.00276321 6.49058e-18)
(-0.171158 0.417163 -7.29558e-17)
(0.000342441 0.000182669 -3.50553e-19)
(-0.00137263 -0.00105793 7.82007e-19)
(-0.141377 0.0467532 -1.75645e-17)
(-0.000471089 0.00281899 -6.22544e-20)
(-0.191538 0.275005 -9.83008e-18)
(0.0045632 0.0132036 5.46676e-18)
(-0.00311564 -0.00321186 -8.33342e-18)
(0.000150356 0.0014346 1.81891e-18)
(0.000743488 0.000978133 2.95083e-18)
(-0.0319137 -0.0295992 7.25975e-19)
(-7.45079e-05 0.00331463 -8.53021e-19)
(-0.00810147 -0.000837319 -2.11148e-17)
(-0.00347691 -0.00109859 -6.22228e-18)
(-0.0213676 0.122831 -1.11793e-16)
(-0.000708328 -0.00388104 -8.4614e-18)
(-0.192443 0.1897 3.54423e-17)
(-0.00350446 -0.0034653 -5.20882e-18)
(-0.000592626 -0.000450358 -1.97838e-18)
(-0.00154294 6.2225e-05 -3.47242e-18)
(-0.0903174 -0.0526077 4.38132e-17)
(-0.000569324 -0.000522559 3.51839e-18)
(-0.00115828 -0.00561433 1.27287e-17)
(-0.00166286 -0.000301527 2.99024e-18)
(-1.36732e-05 0.00247725 3.94512e-19)
(0.0426922 0.0708199 1.73871e-17)
(-0.00126227 0.00447525 1.87415e-19)
(-0.000391814 -0.0020093 4.68e-18)
(-0.000250507 3.91777e-05 -2.97361e-19)
(0.0373915 -0.0228348 3.07583e-17)
(-0.00123814 -0.00106056 6.67046e-18)
(-0.00128582 0.00466642 4.39798e-20)
(-0.00449304 0.00170048 7.18062e-18)
(-0.000893055 0.000753387 -1.81091e-18)
(-0.0494856 0.33731 -3.90517e-17)
(0.539443 -0.234341 2.52007e-18)
(-0.000612008 -0.000356372 -2.86935e-18)
(-0.00109322 -0.0027477 -4.28142e-18)
(-0.0015858 0.00378415 3.60365e-19)
(0.00019675 0.000240703 -4.06597e-18)
(-0.000460048 -0.00125114 -1.50728e-18)
(-5.87867e-05 -0.0017898 -2.78719e-18)
(0.0829563 -0.0693821 4.09857e-17)
(-6.04769e-05 -0.0019704 -5.55102e-18)
(0.000403898 0.000100226 -2.89542e-19)
(-0.00747717 -0.00337605 4.76611e-18)
(-0.0850335 0.196151 6.54688e-18)
(-0.00553668 0.0213409 6.80287e-18)
(5.37235e-06 5.13251e-05 -3.93944e-20)
(-0.00792046 0.00566765 -5.01137e-20)
(-0.821476 0.207308 1.27028e-17)
(-0.000613387 -0.00226331 5.16235e-19)
(-0.000111369 -0.00214907 -5.58227e-18)
(-0.000618568 -0.00161747 -1.52939e-18)
(-0.0115438 -0.0181438 -3.96719e-18)
(-0.000562941 0.00299494 -1.72504e-18)
(-0.000570425 -0.000439726 7.2222e-19)
(-0.00358454 -0.00670283 -6.10431e-18)
(-0.000733807 0.00207931 4.39495e-19)
(-0.000622225 0.00100463 -3.50631e-18)
(-0.00116917 -0.00430572 -3.97349e-18)
(6.68002e-05 0.000721176 3.42826e-18)
(-0.0106638 -0.00767331 2.18929e-18)
(-0.000856278 -0.00191367 2.95277e-18)
(-0.000569044 -0.000563616 -9.80328e-19)
(-0.0557396 0.0751379 -2.0656e-17)
(-0.000481108 0.000259679 6.60435e-19)
(0.000168378 0.003164 -9.73147e-19)
(-0.00026727 -0.000428043 5.34755e-18)
(-0.0033624 -0.00102959 -1.69061e-18)
(-0.0100036 0.0043756 -3.04774e-19)
(-0.000594074 -0.000329055 -1.16787e-18)
(-0.00058602 0.00230726 1.35218e-18)
(-0.198582 0.140922 1.07395e-16)
(-0.00379057 -0.000520217 -3.24982e-18)
(-0.208841 0.183437 -3.90502e-17)
(-0.0013305 0.00350854 4.44295e-19)
(1.20442e-06 5.14446e-05 3.27525e-18)
(4.97656e-06 4.23732e-05 -3.19243e-18)
(-0.0500743 0.0334751 8.13581e-18)
(-0.00142177 -0.0011318 -5.20109e-19)
(-0.00037431 -0.0020109 -2.79223e-18)
(-0.000255234 -0.000215889 4.63308e-18)
(-0.000556391 0.00311548 -7.13315e-19)
(-0.00591785 -0.00442166 -2.20644e-18)
(-0.0535836 0.620429 -3.07607e-19)
(-0.00123768 -0.00115942 1.17906e-18)
(-0.0100774 -0.00794119 -6.91104e-18)
(0.0394974 -0.00399156 -6.16725e-18)
(-0.00121457 -0.0026559 2.89368e-20)
(7.19835e-06 4.51295e-05 -1.45388e-18)
(-0.00027019 -0.00169439 7.52683e-18)
(0.000136951 0.00257738 6.93416e-19)
(-4.05518e-05 -0.000712482 -2.33076e-18)
(-0.00132149 -0.000447283 2.30533e-18)
(-0.513312 -0.382078 -1.16919e-17)
(0.114497 -0.0771819 2.67826e-17)
(-0.00026166 -0.000363564 -1.61277e-18)
(-0.00198811 0.00596438 -3.4818e-19)
(-0.00219953 0.00149203 3.66975e-19)
(-0.00224832 0.00160769 -3.33856e-19)
(-0.000533452 -0.00207097 8.39585e-18)
(-0.000157179 0.000112127 9.51331e-18)
(-0.0518173 0.140878 -1.64962e-17)
(-0.0345875 -0.0272964 9.82115e-19)
(0.0348549 -0.0124822 -2.92056e-18)
(0.000131947 0.0013858 1.35832e-18)
(4.07723e-05 0.00268169 -4.41275e-18)
(-0.000478097 0.00281295 3.39928e-19)
(-0.000714725 -5.3305e-05 1.56558e-18)
(-0.0458262 0.313544 1.8861e-16)
(-0.00915387 0.00694847 -1.26096e-19)
(-0.000614291 0.00312513 1.72155e-19)
(-0.00173358 0.00152443 -2.43139e-18)
(-0.000332704 3.25688e-05 1.93456e-18)
(-0.00041323 -0.00193119 -7.13198e-18)
(-0.0797965 0.148571 2.60108e-17)
(-0.00113644 0.00449086 -3.55577e-19)
(-8.44179e-05 -0.000940485 -8.76659e-18)
(0.0804784 -0.0488237 -8.52313e-17)
(0.0259047 -0.0270042 -4.74103e-18)
(-0.00988481 -0.0494353 3.03608e-18)
(-0.0223532 -0.00189675 -2.63096e-18)
(-0.000424952 -0.00122634 -2.6086e-18)
(-0.00127643 0.0017235 5.15857e-18)
(-0.0230989 -0.0200473 -2.07272e-18)
(-0.0119536 0.0173337 -3.64669e-18)
(-0.306191 -0.18073 8.54301e-18)
(0.286315 0.142541 -2.9975e-17)
(-0.00353787 -0.00443038 -1.27426e-17)
(-0.000967765 -0.0059656 -1.602e-17)
(-3.54319e-05 -0.000514433 -8.31301e-19)
(-0.00228774 0.00352621 -3.44847e-19)
(-0.00112287 -0.00265103 3.60162e-18)
(-6.23176e-05 -0.000589499 -3.92702e-19)
(-0.158711 0.109763 4.21777e-17)
(7.28796e-06 0.000132784 -4.32114e-18)
(-0.00135988 -0.000177114 -7.53452e-18)
(0.0108125 -0.00381531 -1.42072e-18)
(-3.4174e-05 -0.000624621 3.39293e-19)
(0.163515 0.0373776 -7.26978e-19)
(-0.00131514 0.00340053 -1.78172e-18)
(0.0135972 0.0354024 5.70859e-18)
(-0.00899258 0.000466797 -3.71428e-18)
(1.9206e-05 -0.000222772 3.49101e-18)
(-0.000793074 0.00326017 4.14151e-19)
(-0.00289569 0.00514152 -6.85884e-20)
(-0.0157376 0.00140802 5.6376e-19)
(-0.0223234 -0.00075273 6.76658e-19)
(-0.013974 -0.0210617 3.39547e-18)
(-5.56315e-06 0.000147272 -4.6533e-19)
(-0.0136815 -0.0138271 -3.07554e-18)
(-0.00359681 0.00224801 -1.66919e-18)
(-0.00207063 0.000625133 -6.10164e-18)
(-0.000193092 -0.000209985 1.10377e-18)
(-0.00198112 0.00246026 -4.31575e-18)
(-5.20502e-05 -0.00167413 2.65147e-18)
(-0.00368209 -0.00451533 5.59169e-18)
(-0.00423312 0.0209851 -2.98623e-18)
(-0.00368784 -0.0102302 8.92488e-18)
(-7.09314e-05 -0.00103238 -8.71657e-18)
(-0.00396133 -0.000584259 7.8163e-18)
(-0.000266401 -0.000199837 -3.42646e-18)
(-0.000655818 -0.00219885 -3.41556e-18)
(0.0010058 -0.0206148 -3.53737e-18)
(-0.000466921 -0.000231447 1.69483e-18)
(-0.00458979 0.00140255 2.79369e-18)
(0.0644803 0.0667073 -8.2329e-18)
(5.70297e-05 0.000671463 -1.29997e-18)
(-0.0137953 0.0173564 7.99135e-18)
(-0.0337123 -0.0494255 -7.88416e-18)
(-0.000197458 -0.00147503 4.23353e-18)
(0.0817386 -0.109475 4.16941e-17)
(0.00401893 0.00490116 -1.47308e-18)
(-4.20981e-05 -0.000722501 3.218e-18)
(0.0767445 -0.00994944 1.24124e-18)
(-0.000695527 0.00272124 -1.11607e-19)
(4.23942e-06 5.77768e-05 1.13608e-18)
(-0.000859838 -0.00173628 -2.20744e-18)
(-0.000228359 -0.00179862 2.65672e-18)
(-2.81225e-06 6.36859e-05 -3.21023e-18)
(-0.00290793 0.0036921 1.45726e-19)
(-0.000425395 -0.00199013 7.8489e-18)
(0.0209104 -0.0339697 -2.06949e-17)
(-0.00360101 -0.00189186 -1.21963e-18)
(-0.000294416 -0.00168645 1.38925e-18)
(-0.00260607 0.00191447 4.95463e-20)
(-0.0100486 0.00484716 -3.88174e-20)
(0.000784541 0.00581798 -1.46268e-18)
(-0.000124111 -0.00179382 1.26006e-17)
(-0.00111402 0.00316012 9.91385e-19)
(-0.00130267 0.00168165 4.89056e-19)
(0.000211705 0.000792081 -1.44744e-18)
(-0.000424199 -0.00202519 7.79244e-18)
(-0.00915265 -1.05265e-05 2.26682e-18)
(-0.000121309 0.00145688 2.14134e-18)
(-0.000718409 -0.00474869 -3.90502e-18)
(0.000650781 0.00098151 3.67431e-18)
(-0.000671585 -0.000660234 1.18346e-17)
(0.216275 -0.26982 -2.14622e-18)
(-0.000405564 0.00106821 1.94375e-18)
(-6.91094e-05 -0.0195235 -1.06913e-18)
(-9.28627e-05 -0.00175646 5.95197e-18)
(-0.000645433 0.0031939 4.88117e-19)
(-0.000430857 0.00021478 7.87504e-19)
(0.00141375 0.00380387 3.26839e-18)
(-0.000251515 -0.000329059 5.23492e-18)
(0.00436165 0.00537884 -2.67624e-18)
(-0.00241305 0.00163235 4.49255e-18)
(0.0659588 -0.00107327 6.62916e-19)
(1.83797e-06 8.73816e-05 -1.25682e-18)
(0.311082 0.495201 -4.00683e-17)
(0.000936324 0.00111702 -2.14961e-18)
(-0.004039 -0.00294423 -2.7805e-18)
(1.74813e-05 0.000146257 4.51301e-18)
(-0.000593229 -0.00187816 7.45114e-18)
(-0.000632024 -0.000771777 -9.02792e-18)
(-0.00301173 0.00356286 1.78477e-19)
(-8.76088e-05 -0.00166723 -1.11227e-17)
(0.00352945 -0.0127383 4.49674e-18)
(0.195969 0.045651 6.07957e-17)
(0.167572 0.0143588 2.95448e-19)
(-0.00109075 0.00373301 1.94184e-19)
(-0.00898308 -0.00777413 1.00326e-19)
(-0.00158629 1.00514e-05 4.80805e-19)
(-0.0121684 -0.00657721 -9.89225e-18)
(0.012316 -0.000688312 2.22574e-18)
(-0.000349391 -0.00060384 -3.81789e-18)
(-0.00380307 -0.00641914 8.70951e-18)
(-0.0135951 -0.0227935 -7.44738e-18)
(-0.222507 -0.334901 -6.37728e-18)
(-0.0417401 -0.0444631 9.05109e-18)
(-0.0257574 0.0669829 9.6813e-17)
(-0.00287101 0.00546199 -9.93925e-19)
(-0.0029363 -0.00102023 5.78411e-18)
(-1.22844e-06 -0.000289305 -3.45759e-18)
(-0.00113454 0.00310545 -2.65053e-20)
(-0.00265602 0.00381678 -8.26057e-19)
(-0.0124908 0.00208922 1.73764e-18)
(-0.000100734 0.000535665 5.48332e-18)
(-0.00382719 0.00258469 1.82849e-18)
(0.0145106 0.00593222 -4.53536e-18)
(5.30675e-06 1.65936e-05 2.24783e-18)
(-0.000622645 -0.00219861 -2.65375e-18)
(-0.001197 0.00310501 9.36488e-20)
(-0.0869538 -0.465947 1.00134e-17)
(-0.00392676 -0.00282929 3.90019e-19)
(-0.00754504 0.00510106 -6.47514e-19)
(-0.0282636 -0.0176883 2.32421e-19)
(-1.27903e-05 -2.90601e-05 -3.89078e-18)
(0.0848012 0.743157 -4.9329e-17)
(-0.000180067 0.000606258 3.9212e-18)
(-0.00105261 0.000175552 1.25623e-18)
(-0.00358678 -4.81112e-05 2.428e-18)
(-0.000792118 0.0020676 4.14591e-19)
(0.188395 -0.0175006 2.83036e-17)
(0.0175503 -0.00454219 -2.68498e-19)
(-0.159336 -0.422009 -1.1285e-17)
(-0.00017455 -4.95749e-05 -7.49488e-18)
(-0.104491 -0.0803879 -1.14329e-17)
(0.159375 -0.0351348 -3.70796e-17)
(-0.0218181 -0.115106 -4.15862e-18)
(-0.0114125 0.00164848 -2.10088e-18)
(0.0158309 0.00245373 -2.93531e-19)
(0.027985 -0.00235677 1.05206e-17)
(-0.0147052 -0.00456474 6.16273e-18)
(-0.00114485 -0.00162594 7.75172e-18)
(-0.00171213 -0.000332944 -3.72979e-18)
(-0.00375886 -0.00696736 1.12472e-17)
(0.209179 0.0120726 -1.04266e-17)
(-0.00157539 1.19113e-06 1.09257e-18)
(-0.00775606 -0.00376126 -1.61179e-18)
(-0.147052 -0.411671 -7.55839e-18)
(-0.00093544 -0.00193628 2.32214e-18)
(-0.000780943 -0.000681222 2.33377e-18)
(-0.00217145 0.000543916 2.81737e-18)
(-0.00413808 -0.00150231 -2.46641e-18)
(-0.000636765 -0.000808287 6.2315e-19)
(7.40948e-05 0.00252577 -3.07373e-18)
(-0.0495932 0.0268843 2.77726e-18)
(-0.0885409 0.365049 -2.74484e-18)
(5.9042e-05 0.00246673 -5.65242e-19)
(-0.000477539 -0.00109442 1.80654e-18)
(0.163905 0.0740177 5.45142e-17)
(0.166856 0.810199 -2.97556e-17)
(-0.00166648 -8.11066e-06 9.35548e-19)
(-0.000100038 -0.00201345 2.09549e-18)
(-9.02286e-05 -0.000136779 2.36516e-18)
(-0.00130368 -0.00089751 2.15079e-18)
(-0.154448 0.0348959 4.91993e-17)
(0.0176431 -0.00772513 1.02317e-19)
(-0.0157613 -0.0440731 -6.57096e-19)
(-0.00371271 -0.00173332 -2.86235e-18)
(-0.000802774 -0.000736389 -7.58516e-18)
(-0.000323139 0.00221984 -1.23684e-18)
(-0.000517902 -0.00449969 -6.01496e-18)
(-0.000224789 -0.00108702 -7.05759e-18)
(0.00110189 0.00248622 -1.62331e-18)
(-0.00243428 -0.00342666 5.61175e-18)
(-0.249046 0.422336 1.91719e-17)
(-0.000454601 -0.00132515 -4.57548e-18)
(-0.000224452 -0.000206685 -1.14236e-18)
(-0.0161865 0.000687264 -5.00512e-19)
(-0.00151397 4.86615e-05 1.74416e-19)
(-0.00582063 -0.000856329 -1.73723e-19)
(-0.0073378 -0.0164923 -1.24343e-17)
(-0.000765368 0.00324285 -7.13732e-19)
(0.146581 0.038475 5.21613e-18)
(-0.180301 -0.456924 2.95202e-19)
(-0.0029225 -0.00118378 -1.0572e-18)
(-0.00136851 -0.000277443 -3.29987e-18)
(-0.0458739 -0.378172 9.4968e-18)
(0.0623022 0.0514496 -1.04389e-18)
(-0.0115404 -0.00455274 -4.88354e-18)
(-0.000714385 0.00260602 -3.5319e-19)
(-0.203288 0.0348877 3.58732e-18)
(0.00449437 -0.0206542 2.11812e-18)
(-0.00149866 -0.00582539 -8.79467e-18)
(-0.00107724 -0.00158813 4.16557e-18)
(-0.000281313 -0.000158171 -2.90021e-18)
(-0.000486407 -0.000243215 -3.98819e-18)
(-0.0272579 -0.0502478 1.36779e-17)
(-0.00114536 0.00373999 1.32587e-20)
(-0.000566643 -0.0173437 -1.09056e-17)
(3.72375e-06 6.14191e-05 -1.82498e-18)
(-0.495516 0.297111 -1.08761e-16)
(-0.141016 0.152767 1.29099e-17)
(-0.000241473 -0.00171223 -4.91575e-18)
(-0.000470766 -0.001537 4.54903e-18)
(0.00306736 -0.0126747 2.13167e-17)
(-0.000103521 -0.00106592 -4.2654e-18)
(-0.000420088 0.000183677 4.32339e-18)
(-0.00630579 -0.000461053 -2.90152e-18)
(0.13371 0.200119 -1.08421e-16)
(-0.351517 -0.664986 1.3226e-18)
(0.313749 -0.251572 -1.4693e-17)
(0.000214517 0.00303151 -7.8629e-19)
(0.00924911 0.0059274 2.33034e-18)
(-0.0139847 -0.00389981 -7.05296e-18)
(-0.000227218 0.000452773 -7.47078e-18)
(-0.000348908 1.74925e-05 -4.92172e-19)
(-4.76954e-05 -0.00133487 -2.87037e-18)
(-0.0322308 -0.0479429 -1.2772e-17)
(-3.77292e-05 -0.000434438 1.32156e-18)
(-0.00032964 -0.00166039 -3.22517e-18)
(0.00974476 0.00531765 3.13177e-18)
(-0.000684803 -0.00199267 -9.28067e-18)
(-0.00937269 0.023333 6.92864e-18)
(-0.000138253 -6.11717e-05 -7.33651e-18)
(-0.000127511 -0.0005036 2.77394e-18)
(-0.000253593 5.55109e-05 -6.3741e-18)
(-6.48467e-05 -0.00121162 8.29943e-19)
(-0.0153349 -0.00394959 8.23143e-18)
(-5.91801e-05 -0.000506663 4.68517e-19)
(-0.00187836 -0.000324352 -3.91705e-18)
(0.00289912 0.00726869 3.47511e-18)
(-0.0115964 -0.0144781 4.53954e-18)
(0.0105841 -0.030113 -1.22146e-17)
(-3.93599e-05 -0.000676416 1.7175e-18)
(0.00913369 0.0281989 -6.38693e-19)
(0.161046 0.845448 -1.64659e-17)
(-0.200566 0.272336 5.62302e-17)
(-0.00304331 -0.00333999 1.48329e-18)
(0.160551 -0.0361061 -1.98805e-17)
(-0.000992462 0.0624493 -5.14222e-17)
(-0.000934927 -0.00191001 -1.03312e-18)