/*--------------------------------*- C++ -*----------------------------------*\
| =========                 |                                                 |
| \\      /  F ield         | OpenFOAM: The Open Source CFD Toolbox           |
|  \\    /   O peration     | Version:  v2012                                 |
|   \\  /    A nd           | Website:  www.openfoam.com                      |
|    \\/     M anipulation  |                                                 |
\*---------------------------------------------------------------------------*/
FoamFile
{
    version     2.0;
    format      ascii;
    class       surfaceScalarField;
    location    "1000";
    object      phi;
}
// * * * * * * * * * * * * * * * * * * * * * * * * * * * * * * * * * * * * * //

dimensions      [0 3 -1 0 0 0 0];
oriented        oriented;


internalField   nonuniform List<scalar> 
14907
(
-0.454692
0.299152
0.155523
-0.578068
0.381317
0.196833
-0.241837
-0.0013067
0.242901
0.588111
-0.585274
-0.0782605
0.039688
0.0385717
0.40606
-0.532704
0.126557
0.209633
-0.093822
-0.115811
0.141451
-0.149257
0.00779941
0.395949
-0.203582
-0.192173
-0.394666
-0.078665
0.473595
-0.024338
-0.00785595
0.0321939
0.0710091
0.520222
0.332846
-0.606053
0.274521
0.643097
-0.353868
-0.288097
0.233175
-0.133785
-0.0994264
0.547326
-0.344446
-0.202326
0.287922
0.259942
-0.295268
-0.296208
0.591554
-0.236449
-0.218225
-0.00452312
0.0652035
-0.0606843
-0.417593
-0.109127
0.528581
0.119635
0.0283639
-0.148014
0.389522
-0.620986
0.233138
-0.550615
0.312321
0.23851
-0.353338
-0.224688
-0.252806
0.14545
0.107294
0.628902
-0.34912
-0.279385
0.266286
-0.136698
-0.129678
0.397525
-0.182288
-0.215119
-0.300485
0.182642
0.1177
-0.202413
0.417775
-0.21535
-0.00110392
0.0058534
-0.00474954
0.186635
-0.581363
0.100811
0.141858
-0.242766
-0.0885096
0.229197
-0.140838
-0.334613
-0.215833
-0.286444
0.16238
0.124003
0.0921292
0.11168
-0.203819
-0.584226
0.250818
-0.106904
0.151111
-0.0442759
0.0399246
-0.0444493
-0.229378
0.140772
0.0885447
0.108191
0.101445
-0.119236
0.281038
-0.162034
-0.0416195
-0.0366419
-0.130184
0.219224
-0.0890763
-0.283963
0.199802
0.0840356
-0.0873183
-0.0811255
0.168445
-0.073461
-0.136912
0.210276
-0.157896
0.256905
-0.0990431
-0.585514
0.121861
0.464405
-0.0953424
-0.180792
-0.0461045
0.170613
-0.124609
0.363999
-0.269315
-0.0948335
-0.0995958
-0.186903
0.437063
-0.0307985
0.289951
0.107693
-0.157947
-0.126191
0.267264
-0.1666
-0.183611
0.137352
0.271436
-0.493243
0.221927
0.326318
0.115846
-0.441866
-0.216926
0.128286
0.0629119
-0.305045
-0.263343
0.219648
0.0436647
-0.11928
-0.135555
0.254677
-0.0645508
0.227616
-0.163171
0.0880878
-0.0727722
-0.0153211
0.0203803
-0.0158608
-0.00451993
-0.189069
0.35264
-0.163538
0.226882
0.136972
0.059534
0.157702
-0.277176
0.126486
-0.159757
0.0332591
0.198612
0.0640993
-0.262919
0.499147
-0.187243
-0.0111141
0.0508013
0.416138
-0.193663
-0.222449
0.169379
-0.0885549
-0.0808567
-0.0916292
0.190654
-0.0990229
-0.185466
0.111937
-0.101762
0.060141
-0.106825
-0.162261
0.268855
0.2419
-0.113059
-0.128867
-0.253548
0.188869
0.509875
0.0949317
-0.604692
0.0567087
-0.27501
0.218125
0.00148234
-0.105336
0.103849
-0.321641
0.0916171
0.229804
0.344758
-0.288088
-0.12684
0.271755
-0.144995
-0.0522925
-0.0494708
0.174831
0.0913735
-0.286141
-0.148111
-0.15252
0.109748
-0.277233
0.167453
0.479464
-0.169922
-0.309401
0.185011
0.136166
-0.32117
-0.195907
0.0889154
-0.399745
0.145911
0.253929
0.397326
0.199689
0.104071
-0.129838
0.0257488
-0.144813
0.0759913
0.0688139
0.547098
-0.0374601
0.258264
-0.132081
-0.126241
-0.130658
0.129811
0.000837016
-0.385182
0.324583
0.0603569
0.131031
0.348549
-0.588687
0.172904
-0.217861
-0.285252
0.572647
-0.308831
-0.262077
-0.473816
0.307882
0.166118
0.220534
-0.117741
-0.102909
-0.00107888
0.0214589
-0.214351
-0.0490336
-0.269794
0.440455
-0.170455
0.282461
-0.347339
0.0648134
0.179711
0.293867
-0.18412
-0.000917955
-0.00698945
0.00790697
-0.107675
-0.21426
0.0894992
0.0519443
-0.123979
0.283085
-0.159222
0.215743
0.162936
-0.378677
0.145141
-0.0410927
-0.258978
0.152017
-0.104073
-0.0451911
-0.223308
0.170517
0.0526891
-0.0242287
-0.106443
-0.129385
0.364213
-0.234723
0.0566808
0.112666
-0.37015
0.200012
0.170093
0.0143755
-0.0231123
0.00873663
-0.159791
0.0700117
0.0897533
-0.202791
-0.196877
-0.0852709
-0.0724954
0.157732
0.00141853
-0.0070741
0.00565534
0.142526
-0.269531
0.0694266
-0.156751
0.0965415
-0.095064
0.13054
-0.251873
0.121206
0.0350885
0.24732
-0.116587
0.247629
-0.131176
0.131259
-0.10818
-0.0230991
-0.21617
0.351996
-0.136092
-0.261365
-0.212319
0.145763
-0.0291192
-0.11669
0.447832
-0.245866
-0.20166
0.314952
-0.129882
0.235818
-0.118768
-0.117112
-0.360718
0.136426
0.224336
-0.00992013
0.529843
-0.519836
0.151645
-0.0629928
-0.0886522
0.0105435
-0.00922988
-0.00131391
0.582407
-0.291309
-0.290049
-0.212626
0.546597
0.248
-0.130608
-0.117454
-0.024827
0.351413
-0.137919
0.0526256
0.00408038
-0.00496962
0.000889008
0.0440991
-0.0174271
-0.0266721
-0.171697
0.070065
0.101604
-0.10934
-0.235699
0.344999
-0.21301
-0.147665
-0.160482
-0.11435
0.274584
-0.173251
-0.196949
-0.112733
0.00649579
0.106231
0.0310502
-0.0269703
0.00420153
-0.00558267
0.00105021
0.00949289
0.146012
0.141208
-0.2874
-0.463662
0.316586
0.146674
0.0173929
-0.069687
0.0629516
-0.0662753
0.00331966
0.0355719
0.0837843
-0.119374
0.159125
-0.131998
-0.027123
-0.0073364
0.0247823
-0.0174459
0.277875
-0.128601
-0.149449
0.0574145
0.0306681
0.119042
0.070984
-0.19009
0.124611
0.123329
0.00332622
-0.00443024
-0.0755853
-0.171207
0.246542
-0.104953
-0.118482
-0.13425
-0.0951902
-0.00687864
0.00596023
-0.0852053
0.130525
-0.045336
0.269892
-0.128442
-0.141548
-0.00360595
0.0327691
-0.0291632
-0.091914
-0.14487
0.236728
0.0566778
0.01157
-0.068248
-0.258217
0.141468
0.04369
0.107954
-0.0846394
0.10203
0.163671
-0.0377702
-0.125916
-0.0155109
0.102835
-0.0873272
-0.111939
-0.114768
0.22665
-0.192546
0.388194
-0.195875
0.347732
-0.55911
-0.294061
0.202709
0.0912562
0.0235397
0.0980219
-0.121585
0.248975
0.0208587
-0.0635917
0.315017
-0.251457
0.00238729
0.060561
0.151904
-0.424244
0.444974
-0.020384
0.00738437
0.0492932
0.401272
0.156791
-0.556904
-0.302486
-0.288182
0.590535
-0.535026
-0.00279919
0.536528
-0.124232
0.108717
-0.608732
0.605992
0.00588684
-0.105905
-0.0068336
0.0824988
-0.0923285
0.00982911
-0.258065
0.127376
0.0421338
-0.127345
-0.0989321
0.298306
-0.19963
-0.334096
-0.127077
0.460886
-0.182093
0.138422
0.0436402
0.488621
-0.23746
-0.251081
0.128361
0.0920619
0.237837
-0.102178
-0.135725
0.0156253
-0.0998689
0.0842419
-0.097147
0.189286
-0.198016
0.149288
0.0486462
-0.217055
0.123296
0.0937028
0.159915
-0.0923864
-0.0675355
0.463407
-0.231752
-0.231419
0.124233
0.00509924
-0.129353
0.360018
-0.133249
0.183112
-0.0532959
-0.0110249
0.064318
-0.294818
-0.16922
0.214106
0.145786
0.197484
-0.199106
0.166718
0.0690433
-0.204988
-0.182251
0.387669
-0.729976
0.468402
0.2634
-0.113087
0.24439
-0.131358
0.281903
-0.165077
-0.116808
0.248039
-0.357365
0.153748
0.120095
-0.280773
-0.225002
0.107125
-0.389036
0.119687
-0.422284
0.219852
0.559638
-0.00979927
-0.548317
0.119323
0.138882
0.103556
-0.272496
0.168724
-0.693186
0.397954
-0.313531
-0.224197
0.539863
-0.343249
0.154248
-0.144313
-0.0473339
0.191518
-0.0659287
0.0815522
-0.102715
-0.0690034
-0.0346115
0.0310055
0.115753
-0.0801918
0.0350089
0.085906
-0.120939
0.0870215
0.146122
-0.035554
0.192238
-0.156709
-0.208342
0.125831
0.0825139
-0.27592
0.162754
-0.248296
-0.137163
-0.38462
-0.343707
-0.14964
-0.144532
-0.383344
0.17871
-0.0578088
0.177437
0.260784
-0.0675933
-0.193343
0.215322
-0.520845
-0.0156087
-0.0867455
0.11027
-0.165896
0.0892237
-0.00672554
0.11878
-0.0212069
-0.0921894
0.113389
-0.209108
0.117169
0.15811
0.123806
0.224063
0.173044
-0.39675
-0.0160752
0.142599
-0.126704
0.0694965
-0.285863
0.175873
-0.0569121
0.241806
0.0281224
-0.270127
-0.0904854
0.0160302
-0.00165492
-0.0206026
-0.403549
-0.373359
0.219212
0.153903
-0.102016
-0.106319
-0.165779
0.175904
-0.304611
0.208721
0.243744
-0.45259
0.0873151
-0.231757
0.147397
0.0117321
0.0600153
-0.162434
0.102332
0.12744
0.00380286
0.00430895
-0.589316
-0.190593
0.539616
0.202226
0.129423
-0.332833
0.0744489
0.0854574
-0.366367
0.220751
0.14561
-0.143486
0.415331
-0.348401
0.394831
-0.0464037
-0.314345
0.215178
-0.225639
0.14043
0.0852108
-0.137135
0.188263
-0.0511761
0.0260918
-0.112797
0.0866987
-0.001822
-0.0725178
0.074337
-0.0777108
-0.106066
-0.00104199
0.0702192
-0.0691819
0.251295
-0.405442
0.154809
0.147484
-0.163641
0.240497
0.388757
0.0181784
-0.0168334
-0.107946
0.139755
-0.0318251
0.00837008
-0.108505
0.100132
-0.0138766
-0.200334
-0.274392
0.474598
0.215736
0.0449089
0.145214
0.207455
0.11012
0.091552
-0.201773
-0.0716581
0.644912
-0.348642
-0.296039
-0.212357
0.133392
0.0789177
0.388227
0.186062
-0.575645
0.601899
-0.0247478
0.152263
-0.0782115
0.104298
0.587746
-0.348698
-0.238741
0.134504
-0.279554
0.306061
-0.147102
-0.159098
-0.20998
0.0727598
0.00277009
-0.0229041
0.0201339
-0.137307
0.271726
0.311657
-0.356683
-0.214757
0.571927
-0.24067
0.303308
0.0862046
0.0700085
-0.156263
0.127672
0.0359827
-0.0308592
0.116751
0.0208359
0.0795658
-0.100407
-0.179211
-0.046413
-0.230037
0.124937
0.132679
0.259541
-0.126067
0.272917
-0.14689
-0.596059
0.299743
0.124883
-0.0421672
-0.0827215
-0.0237366
0.265385
0.147882
-0.0640665
-0.102188
0.166216
0.244262
-0.0190114
-0.130166
0.149082
0.107624
0.0993585
-0.163451
-0.151994
0.256884
-0.104993
-0.121674
-0.0764444
0.11324
-0.137481
-0.117704
-0.0947113
-0.0524897
0.224123
-0.171796
-0.387218
0.200306
0.186792
0.0800213
-0.0591907
0.127629
0.0180941
-0.00999517
0.197107
-0.187185
0.165522
-0.0793707
0.108934
-0.354866
0.245498
0.149847
-0.444715
0.385702
-0.277097
-0.149034
0.12995
0.0117859
0.102207
-0.113997
-0.140681
0.242018
-0.101408
-0.602074
0.345275
0.256691
-0.191769
0.113947
0.3021
0.294915
0.343015
0.245022
-0.00107567
0.188949
-0.381651
0.210261
-0.413828
0.204094
0.00678137
-0.0053631
-0.169495
-0.285145
0.45491
-0.156313
0.0791939
0.0771118
0.0802842
0.0445943
0.115315
0.0111582
-0.153636
0.14872
0.00492419
-0.0328371
-0.097054
0.186546
-0.0895619
-0.0745275
0.0212281
0.319153
-0.572181
0.253963
0.0352846
-0.193195
0.327686
0.269329
0.293656
-0.156377
-0.137425
0.171611
-0.0784591
-0.0931582
-0.640667
0.245955
0.394983
0.210029
-0.0999813
-0.0256134
0.075159
-0.153315
0.54465
0.385818
-0.492897
0.0692584
-0.0903288
0.0210595
-0.0372188
0.0487887
0.134907
-0.270506
-0.237195
0.416432
-0.179091
-0.000966147
0.00516762
0.0371767
-0.114866
0.430814
-0.00385231
-0.0689236
0.00388234
0.334357
0.15443
-0.320381
-0.281827
-0.442969
0.214741
0.228536
-0.146162
0.362523
-0.215994
-0.563968
-0.00980638
-0.382814
0.362218
0.0789743
-0.0553194
0.135568
-0.0573928
0.105694
-0.0483041
-0.579757
0.227827
-0.161131
-0.205227
-0.0849299
-0.0281239
0.113048
-0.265286
0.294289
-0.0293805
-0.0803275
-0.0897678
0.149701
0.108839
-0.221922
-0.245676
-0.135515
0.381065
-0.426385
0.189236
0.0881792
-0.0970702
0.00888865
-0.126658
0.0889909
-0.18612
-0.134478
0.255962
-0.121588
0.00865559
-0.0329936
-0.119645
-0.138501
-0.0762724
0.0908828
-0.22473
-0.296913
-0.171439
0.468422
0.208878
0.118862
-0.0422213
-0.0766438
-0.160752
0.459789
-0.298905
0.146297
0.0473332
-0.193636
0.21277
-0.311366
0.0986574
0.139611
-0.291654
-0.00478014
-0.000189661
-0.078589
0.22246
-0.143872
-0.0751043
-0.199781
0.274966
0.0143217
0.540401
-0.552273
-0.00337011
9.30083e-05
0.00327703
-0.14221
0.369164
-0.226606
-0.186077
0.107469
0.259655
-0.139981
-0.119716
-0.158918
-0.116234
0.0588401
-0.00623128
-0.525022
0.403127
0.122711
-0.0485593
-0.165835
0.0936403
-0.234389
-0.501957
-0.501754
0.223842
0.278536
0.156548
-0.387864
-0.00542621
0.00642336
-0.000997238
0.166651
-0.395941
-0.469412
-0.13684
0.0855068
-0.158618
0.0731013
-0.0865418
0.155349
0.15537
-0.00106417
-0.154348
-0.593215
0.29055
-0.114369
0.185279
-0.0122225
0.232553
-0.0920999
-0.358355
0.162535
0.195837
-0.172195
-0.215146
-0.102974
-0.0568385
0.197116
-0.20723
0.169553
-0.466089
-0.0847618
0.169295
-0.0845807
-0.230197
0.359641
0.0437671
-0.426751
0.181496
0.0562875
-0.244989
0.430621
-0.185517
-0.117819
0.0270134
0.0907813
0.217207
0.107157
0.285112
-0.445777
0.0280588
-0.0359148
0.538976
-0.280619
-0.258033
-0.151726
0.292668
-0.582588
0.179356
0.403219
-0.276087
0.141434
0.201906
-0.0685659
-0.343005
-0.181063
0.121189
-0.362034
-0.0967226
0.0983081
0.167998
-0.266418
0.144776
-0.10958
-0.0351958
-0.130069
-0.145932
-0.295773
-0.399006
0.59887
-0.136115
0.0330356
0.103069
0.186648
-0.312281
0.125226
-0.307979
0.232885
0.21223
-0.579327
0.368616
-0.302326
0.129238
0.173088
0.00565742
0.118041
-0.12373
0.0834881
-0.175118
0.222107
-0.133639
0.0157903
0.0211983
0.129573
0.102999
-0.332474
-0.260595
0.5929
-0.2182
-0.147544
0.365787
-0.146922
0.320837
-0.174218
-0.434417
0.529612
0.381289
-0.166398
-0.214349
0.00473483
0.00466097
-0.00941337
0.00233917
-0.360483
-0.279899
0.0377921
0.13263
-0.00640757
-0.150823
0.157208
-0.165247
0.158878
0.252968
-0.0544689
-0.319527
-0.271687
0.592964
-0.068841
-0.0782973
0.147131
-0.0100379
0.0982134
-0.0470499
0.193869
-0.439361
-0.321044
0.173825
-0.336437
0.070699
0.27019
-0.439633
0.00740341
-0.00706188
-0.000341979
-0.0801375
-0.095362
0.175429
-0.105226
-0.128454
-0.208558
0.337095
-0.307404
-0.254745
0.564042
0.269572
0.0517242
-0.321554
-0.155389
0.110512
0.148552
-0.497803
-0.00557925
0.000152995
0.0229516
-0.0601708
-0.0212655
-0.0558776
0.0771423
0.0753241
0.0544724
-0.213199
-0.355462
0.152699
0.232286
-0.118913
-0.113403
-0.106245
-0.0710123
0.177198
-0.0047527
-0.0133654
0.0181176
0.00409634
0.0269534
0.208757
-0.113757
-0.0950822
0.174071
0.450353
0.126296
-0.576588
-0.115023
0.249421
-0.202797
0.154102
0.536749
-0.0864767
0.00958165
0.0345174
0.438001
0.122666
-0.168038
-0.236751
-0.208563
0.121824
0.0867065
0.138016
-0.571926
0.177948
-0.0352671
-0.14267
-0.267369
0.13722
0.0647521
0.0677382
-0.132518
-0.0815705
-0.096013
0.177526
-0.505053
0.502313
-0.112789
-0.136974
0.249682
0.115873
0.113184
-0.150205
-0.0270486
0.128281
-0.0529777
0.00609157
-0.0869196
0.0808237
-0.280695
0.607361
0.126171
0.130698
-0.262208
0.159155
0.102851
-0.0421144
-0.235199
-0.291493
-0.275959
0.56744
-0.265959
0.139789
0.305882
0.132036
-0.437877
0.087005
0.0295097
0.125828
0.0576314
0.059641
-0.117292
-0.581088
0.338828
0.242061
-0.120949
0.219167
0.530632
-0.317412
-0.117705
-0.195521
0.313132
-0.0608318
-0.0136996
0.327107
0.206832
-0.532771
0.254651
-0.137934
-0.116756
0.120183
-0.0918201
0.175254
-0.419928
-0.135416
0.22741
-0.177588
-0.0498155
-0.213537
9.76365e-05
0.00458798
-0.00468597
-0.0580673
0.189655
-0.131643
-0.563125
0.308256
0.255397
-0.048026
-0.0647496
0.11277
-0.0108884
-0.195595
0.206217
-0.59682
0.308342
0.14103
-0.309638
0.168509
-0.166724
0.374884
-0.208022
0.338782
0.258233
-0.235893
0.0984833
0.137345
0.0480781
0.221322
-0.035064
0.0580151
-0.11082
0.241259
0.164828
-0.382854
0.16465
-0.298665
0.133975
0.154911
0.0469408
-0.0919459
-0.0986677
0.190547
-0.165008
0.380815
0.117995
-0.235526
0.117528
-0.187932
-0.167502
-0.102155
0.213856
0.320983
-0.136311
-0.184761
-0.178917
0.0972676
0.403489
-0.192693
0.243814
-0.119167
0.213021
0.216305
-0.429235
-0.149097
-0.247266
0.396178
-0.0491976
0.0735025
-0.0243067
-0.275935
-0.166729
-0.0706135
0.00977566
0.3863
-0.229773
0.123423
0.149219
-0.272642
0.554419
-0.289402
-0.264316
0.226573
-0.137553
-0.0890725
-0.28118
-0.301413
-0.174825
0.116701
-0.153202
0.328903
0.0621269
-0.110157
-0.209422
0.552385
0.205946
-0.0977514
0.270669
0.177412
-0.144544
-0.0655208
0.466907
0.176699
-0.642692
0.211422
0.0866352
-0.0119275
-0.343339
-0.169278
-0.0666841
-0.416633
0.251115
0.165551
-0.0615192
0.0163388
0.0321917
-0.0485309
0.0684859
0.109474
-0.234789
0.185836
0.0489395
0.0919412
-0.122829
-0.113954
0.338497
-0.224689
-0.0616232
-0.069856
0.131466
0.0936041
0.125587
0.506485
-0.319447
-0.157137
0.0723402
-0.0781014
0.0841881
-0.0238602
0.0191069
0.0656984
0.087768
-0.00965804
-0.0781123
-0.114298
-0.123555
-0.144041
0.267519
0.345495
0.299653
0.245373
-0.097989
-0.199952
-0.00919761
-0.194374
0.00227949
0.192231
0.298563
-0.096718
-0.132756
0.229291
0.00362606
-0.106359
0.51099
-0.520911
-0.290609
0.172883
-0.125736
0.243719
0.0168123
0.0386149
-0.0554292
-0.222785
0.078137
0.0895846
-0.204014
0.120178
0.112075
-0.0290695
-0.476272
0.0968358
0.512619
-0.29279
-0.21958
-0.151606
-0.261018
0.412357
0.215963
-0.0333767
0.083061
-0.313292
0.00688247
0.0112959
0.176787
-0.068804
-0.108002
0.0404927
-0.0236821
-0.630847
0.266635
0.365582
0.0575348
-0.0878065
0.0302701
-0.00319239
0.000558985
0.00263312
0.134757
-0.0544798
-0.0189914
-0.175229
0.15091
0.0412999
-0.0212277
0.145434
-0.0618257
0.133737
-0.0719206
-0.301652
0.154344
0.297121
-0.0841973
0.080698
0.0254399
-0.0219659
-0.218443
-0.130023
0.348331
-0.0687852
0.154268
0.0763485
0.00553905
-0.0818878
-0.362441
0.26616
0.0960374
0.27762
0.151351
-0.429092
-0.247186
0.204984
-0.249061
0.11974
0.129214
-0.31258
0.300334
-0.0567588
0.230694
-0.174091
-0.0860872
-0.0500368
-0.0317177
0.134551
0.200037
-0.54603
0.211574
-0.0186051
-0.00450726
0.0344644
-0.120443
0.0859756
0.200966
-0.163699
-0.194633
-0.391961
0.514442
0.223325
-0.116048
0.0311138
0.0764473
0.100321
-0.047668
-0.0446609
-0.242983
-0.153206
0.430514
0.204098
-0.357136
0.153214
-0.248279
-0.244872
0.109816
-0.212639
0.102793
-0.216375
0.0244944
-0.051353
0.0495288
0.245809
-0.506846
0.261397
-0.592323
0.24543
0.346615
-0.168924
0.148759
0.0201475
0.131033
-0.34929
0.126376
-0.207861
0.081527
-0.0555068
0.0844124
-0.0289096
0.153228
-0.26611
-0.0166073
-0.0286078
0.0452148
0.0418245
-0.0013326
-0.271667
0.148003
0.213781
0.0648731
0.0440489
-0.108927
-0.0206941
0.0391889
-0.0184948
0.062726
-0.148952
0.0862214
0.186301
-0.149009
0.0449304
-0.00134858
0.0537464
-0.0524015
0.102565
0.0666715
-0.169263
-0.143781
-0.15809
-0.558042
0.202035
-0.259861
0.086626
0.00259717
-0.207219
-0.02758
0.0694103
-0.00274562
-0.066671
-0.591662
0.259076
-0.0122134
0.0149834
-0.0192974
0.121501
0.2157
-0.363132
0.265541
0.143326
-0.408883
-0.00736088
0.0260908
0.375916
0.21148
0.343484
0.206509
-0.0998993
-0.106691
0.0111077
-0.00665302
-0.00445489
0.015749
-0.0296528
0.0139034
0.0438234
-0.0930235
0.14592
-0.297899
0.182819
-0.136256
-0.046616
-0.149406
0.0875763
-0.421504
-0.161693
0.162887
-0.468295
-0.584543
0.293819
0.0884995
-0.00187454
0.394408
0.231686
-0.625919
0.369916
-0.205003
0.139174
0.0435952
-0.18957
-0.121068
-0.0610529
0.276437
0.266207
-0.541638
0.28031
-0.491254
0.211788
0.404441
-0.314512
-0.2668
0.146424
-0.0764387
-0.145557
0.540511
-0.205598
-0.137588
0.0791049
0.100054
-0.179224
-0.10704
0.00113062
-0.000145396
-0.0467983
0.0469425
0.395946
0.209956
-0.605173
-0.158506
0.115046
0.0434486
0.109323
-0.0748582
0.0760519
0.0687251
-0.118888
0.227667
0.00353723
-0.0120503
0.00851302
-0.00145409
-0.145519
-0.178648
-0.426339
-0.138047
-0.113945
0.223427
-0.117088
-0.106375
-0.0422142
0.0376219
0.00458979
0.109977
-0.564957
0.273717
0.439167
-0.584738
-0.0767552
0.0798009
-0.141437
-0.161335
0.307016
0.283637
0.280384
-0.563375
0.188343
0.157683
-0.345964
0.0913228
0.0741503
0.249866
-0.548284
0.00191645
0.547672
0.106712
-0.208819
-0.129852
-0.28686
-0.297073
-0.191582
0.372839
-0.181093
-0.0340021
-0.026169
-0.225063
-0.148514
-0.259325
0.122558
0.395728
-0.280128
0.131853
0.131253
-0.0287017
-0.102571
0.534547
0.228554
-0.104372
-0.124319
-0.30908
0.440029
-0.130976
-0.226132
0.111403
-0.0566363
0.0369727
0.0196631
0.305609
0.291406
-0.0593726
0.0592251
-0.0841505
0.212432
0.0457852
-0.0340069
-0.0117782
-0.256839
-0.362809
0.150085
-0.102752
0.209515
-0.0972353
-0.0612816
0.0866632
-0.0174148
-0.202311
-0.0141573
0.0833694
0.00439656
-0.0732463
-0.110444
0.183694
-0.258117
0.111128
0.146982
-0.0126899
0.554953
0.0518885
0.0828616
0.191591
0.274198
-0.465413
0.269818
-0.618637
-0.407103
0.233092
0.174319
0.615125
0.0756553
0.0970525
-0.172774
0.383386
0.213629
0.248317
0.0239543
-0.0794679
0.0940617
-0.190125
-0.150239
-0.433125
-0.057019
0.140902
-0.0839192
0.156098
-0.25836
0.0331745
-0.165499
0.248509
-0.0830277
-0.0559351
0.0208705
0.152445
0.210446
-0.114991
0.142524
-0.00624268
-0.0667611
0.0730017
0.121913
-0.239397
0.117525
-0.000676485
0.00807955
0.338824
-0.599407
-0.061611
0.198057
-0.136433
0.485723
-0.573551
0.0885035
0.141875
-0.286
-0.134061
0.320437
0.125733
-0.0610132
0.0337245
-0.110015
0.0762787
-0.228483
0.116046
0.112412
-0.0325396
-0.292714
-0.316962
0.609907
-0.0599952
0.0433877
-0.268203
0.10315
0.145311
0.212994
-0.358185
-0.0860081
-0.0737614
-0.0378857
0.158196
-0.120336
0.0248674
0.016956
-0.130387
0.395973
-0.101843
0.107463
-0.0948143
-0.0122312
0.114636
-0.0259728
0.0835878
-0.291293
0.539712
-0.410907
-0.127661
-0.301242
-0.0898147
0.0594747
0.030338
-0.415265
0.497198
-0.0827789
-0.390667
0.31219
0.251329
0.170407
-0.421216
0.151964
-0.45976
0.236249
-0.397147
0.27021
0.275369
-0.110873
0.228632
0.169529
-0.397683
0.47723
-0.252718
0.13299
0.0922593
0.11417
0.0894225
-0.146481
0.398939
-0.232356
0.0457362
4.75715e-05
0.317945
-0.153609
-0.164408
-0.0389581
0.0964911
0.132638
-0.0346351
-0.00107652
-0.0186814
0.0197578
-0.0242751
-0.117394
0.14159
0.167543
-0.229204
0.00460706
0.000401495
-0.00500863
0.0908395
-0.18286
-0.0689338
0.123978
-0.00301626
-0.120964
0.167921
-0.0766327
0.565554
-0.463529
-0.139295
-0.0855806
0.224757
0.0230563
-0.352005
0.104809
-0.00640219
0.0119727
-0.00557077
0.272812
-0.296343
0.0235656
0.0715191
-0.0551808
0.103934
-0.121012
-0.131419
-0.136044
-0.00128447
-0.0216198
0.13676
-0.209788
0.372838
0.508198
-0.0402654
-0.112974
-0.122554
0.436615
0.104285
0.155894
-0.473606
-0.0693737
-0.0685666
0.083278
0.088332
0.187624
-0.496658
-0.206333
-0.145717
-0.130004
-0.122799
0.0483188
0.0705399
0.100905
-0.219852
0.158606
0.407501
-0.566512
0.151889
-0.236111
-0.0958198
-0.0692739
0.165075
0.121185
0.134674
-0.230673
0.473289
-0.242534
-0.0131196
0.0067172
0.193871
-0.297575
0.10355
-0.0301879
0.250881
-0.052611
-0.121162
0.208362
-0.191164
-0.12342
-0.00551095
0.00660904
0.179732
-0.0455301
-0.134195
0.0121612
-0.00757372
0.188221
-0.316763
0.128349
0.136424
0.091998
0.128716
-0.0875218
-0.0411998
-0.155454
-0.295498
0.167122
0.587513
-0.128738
-0.107798
0.236522
0.336132
-0.479013
0.453651
-0.176122
-0.127008
-0.0716053
-0.0187354
0.00680759
-0.0609561
0.0541466
0.495167
-0.284728
-0.210506
0.30961
-0.118428
-0.191354
0.251036
-0.486159
0.0509592
-0.259404
0.109464
-0.271262
-0.217443
0.490102
0.107165
-0.128418
-0.106988
0.0718727
-0.262519
0.190573
-0.386627
0.231156
0.155772
-0.252837
-0.158112
0.411262
-0.308499
-0.201678
0.511118
-0.133471
-0.106628
0.240039
0.00965875
0.00144869
0.232681
-0.125403
0.170736
0.389055
0.0933555
-0.0671005
0.0608559
-0.248303
-0.16829
0.202159
-0.509772
0.383029
-0.213338
0.0729396
0.010427
-0.102332
0.559413
-0.547451
-0.0105964
-0.363425
-0.266277
-0.142152
0.104209
0.0918836
-0.00846492
-0.0834218
0.565453
-0.29734
-0.268206
0.627079
-0.358273
0.199369
-0.0975694
-0.101918
-0.137097
-0.152134
0.289352
-0.226678
0.132692
0.0938741
-0.210637
0.162227
0.0483082
-0.170997
0.0821605
-0.162361
0.470081
-0.245125
-0.225063
-0.0497189
-0.12801
0.177644
-0.0152109
0.0735294
-0.0583204
0.156849
-0.0388296
0.0306622
-0.12934
0.0986568
0.111451
-0.207382
0.095795
0.0865442
0.286135
-0.606508
0.148753
0.166644
-0.31568
-0.113507
-0.112593
0.194228
-0.117811
0.172724
0.146316
-0.319407
-0.17324
0.334664
-0.161402
0.582926
-0.275673
-0.306368
0.278611
-0.155204
-0.00120862
-0.095307
0.0831878
0.0121166
-0.132005
0.118554
0.0134353
0.133639
-0.265137
0.316899
0.0926622
-0.173133
0.0804429
0.139027
-0.301193
-0.143864
0.215562
0.10412
-0.175355
0.0712295
0.0917382
-0.213032
0.139915
-0.29332
-0.37648
-0.0462876
-0.0435285
-0.0303977
-0.0938378
0.0340355
0.439476
-0.471942
0.154083
-0.268692
0.104677
-0.142457
0.346689
-0.14247
0.502635
-0.252144
-0.249901
0.350928
-0.0820558
0.186717
-0.075181
0.19869
-0.123734
-0.157652
-0.0691194
0.0012129
0.000425153
-0.00163811
-0.128368
-0.147895
-0.299536
0.0373712
0.0719511
-0.284129
-0.190997
0.475112
-0.0669765
0.0737822
-0.52889
-0.0222289
0.553123
0.127271
0.0826095
0.0511189
0.302037
-0.27208
-0.0301566
0.408003
0.147285
-0.555238
-0.309612
0.148034
0.254613
-0.133347
-0.121369
0.0852302
-0.0122935
0.139699
-0.284605
0.568114
0.00329182
-0.05984
0.056546
0.0478049
0.101413
0.0683627
-0.146666
-0.012474
0.00541154
-0.0406737
0.153895
0.664475
-0.318752
0.100678
-0.128808
0.146889
-0.317981
0.171088
0.0526026
0.071132
-0.123735
-0.24401
-0.159196
0.279052
0.515388
0.0934851
-0.00162581
-0.00174437
0.319741
0.344813
0.0578623
-0.268639
0.250842
0.11351
0.113012
0.0900921
0.0963781
-0.159504
0.0884523
-0.247979
0.0246337
0.223288
-0.284396
0.112621
-0.136958
-0.193652
0.100311
0.0932352
-0.154932
0.424435
-0.26937
0.165583
-0.2093
0.0436614
-0.345171
0.184034
0.0622445
-0.125235
0.00291048
-0.0254864
-0.390732
0.168853
0.0126164
-0.271072
-0.291532
-0.0158909
-0.11613
0.332292
-0.563009
0.230515
-0.000758301
0.00197115
-0.233861
-0.344534
0.119356
0.129894
0.430484
0.113734
-0.247292
0.122239
-0.243427
0.121166
-0.500388
-0.15258
0.653354
-0.119324
-0.266996
0.169541
-0.310138
-0.0878465
-0.061168
-0.0806414
0.147698
-0.0670703
-0.118211
0.286414
-0.168159
0.230843
-0.108853
-0.245361
0.132401
-0.150557
0.0786281
0.302071
0.149893
-0.143367
-0.119034
-0.157729
0.298639
0.208591
-0.0718725
0.127681
-0.220916
0.0932056
0.00552254
-0.505707
-0.501576
0.218243
0.0830148
-0.171287
0.0882434
-0.346868
0.15547
0.0852723
-0.106485
-0.0714643
0.230493
-0.010228
0.0990279
-0.0888022
0.153733
0.109796
-0.263544
0.465777
0.154655
-0.328026
0.0698519
-0.188169
0.118313
-0.106718
-0.0622258
0.16657
-0.418971
0.117414
-0.0846951
-0.0837692
0.168445
-0.096087
-0.395384
0.115822
-0.555121
-0.0329631
0.588308
0.00834875
-0.0773315
0.067871
0.00945953
-0.215935
0.0871307
0.128739
0.00744125
0.0179986
-0.0924629
-0.0897783
0.18223
-0.0942961
0.204086
-0.153163
0.0573232
-0.0668499
-0.0825604
-0.078903
0.205345
-0.000975674
-0.228521
0.0997453
-0.0681021
0.156503
-0.088426
0.147727
-0.284668
0.146381
-0.221795
-0.20922
0.345296
0.129732
0.00380263
-0.189312
-0.196796
0.373043
-0.176344
-0.0438436
0.0424923
0.22503
0.0928651
0.0462953
0.255544
-0.0500108
0.0966455
-0.0466354
-0.371347
0.199066
-0.0927571
0.195514
-0.102819
-0.0701419
-0.21584
0.0969998
0.0147624
0.258056
-0.0288897
-0.0738807
0.102763
-0.181826
0.0860308
0.0958045
-0.251245
-0.272584
0.524306
-0.0737462
0.196997
0.0165111
-0.00453871
-0.0823302
0.0982903
-0.0159764
-0.220535
-0.132998
-0.0955627
-0.191938
0.505098
-0.312295
-0.378576
0.315183
0.0633985
-0.0205686
0.122595
0.24322
0.25815
-0.507275
0.249584
-0.182376
0.0891495
0.0931741
0.159023
0.132367
-0.291462
0.0152613
-0.173552
0.158241
-0.206441
0.35175
0.470015
-0.191536
0.0819712
0.109564
-0.118896
-0.176523
-0.317779
0.361572
0.18583
-0.0252488
-0.160628
-0.126783
0.314856
0.404896
-0.133856
0.436472
0.0934806
-0.0914863
-0.157124
0.261783
-0.104801
-0.252558
-0.340043
0.421253
-0.227348
0.0763165
0.0840921
-0.160421
-0.118155
-0.139972
0.11482
0.0999252
-0.214863
-0.166921
-0.140276
0.307245
-0.0842062
-0.0647508
-0.120517
0.312617
-0.140227
-0.250242
0.142241
0.107925
0.439944
-0.159073
-0.228208
0.486572
-0.00342552
-0.0759647
-0.0919528
0.16789
-0.0955705
-0.098188
0.0774438
0.145949
0.0734643
0.0928798
-0.166374
-0.156437
0.0717193
0.159737
-0.0821287
-0.0776539
-0.0779004
-0.0792728
0.0805879
-0.199564
0.0901677
-0.0138171
0.18123
-0.317555
0.157397
0.134473
-0.292172
-0.309469
0.517562
-0.517227
-0.0377513
-0.0576952
0.154187
-0.0965192
-0.112192
-0.414746
-0.063632
0.00271691
0.0180742
-0.0207911
0.116207
-0.0714018
-0.0448117
0.0154479
0.392631
0.0317174
0.154073
0.156561
-0.0652207
-0.0913491
-0.234006
-0.215758
0.449972
0.0722149
-0.0749658
-0.0351842
0.123079
-0.0879019
0.0410792
-0.0833022
0.114099
0.0800975
0.0109718
0.000540984
-0.011513
-0.0765332
-0.0799275
0.106309
-0.0756501
-0.0355978
-0.00661753
0.185199
-0.0911725
0.130092
-0.295687
0.150532
-0.0391958
-0.206472
0.369136
-0.162646
-0.0231316
0.0388803
0.107371
-0.232481
0.125022
0.0773865
-0.151977
0.0745718
0.390821
-0.238696
-0.152207
0.0993553
0.410838
0.0812485
-0.491259
-0.00527077
-0.0255553
0.0308259
0.0288112
-0.0519436
0.32644
0.257702
-0.583543
-0.00477714
0.00487002
-0.113252
0.0932986
0.0199498
-0.102638
-0.0611194
0.163753
-0.0932181
0.178253
-0.0850988
0.137333
-0.449912
0.132092
0.0109006
7.08624e-05
0.288107
-0.149216
-0.0397324
0.104599
-0.0177133
0.0204302
0.22461
0.349388
-0.573433
-0.0150535
-0.23304
0.314939
0.231583
0.119535
0.050471
-0.136326
0.0857942
0.0680896
0.0783107
-0.568291
0.0524375
0.358936
-0.0504651
-0.158876
-0.129708
-0.144386
0.273984
-0.00818519
0.494603
-0.199659
0.0895069
0.110064
-0.302437
0.255996
-0.468078
0.219687
-0.0985391
0.0236784
0.115308
-0.139026
0.462638
0.146322
-0.0223455
0.302336
0.378954
0.21528
-0.593665
0.100357
0.108192
-0.0613335
0.103437
-0.0421089
-0.230901
0.265961
-0.24971
0.420505
-0.110318
0.113932
0.113008
-0.0715184
-0.0414957
-0.319025
0.196616
0.122446
-0.0248183
0.176673
0.0931057
-0.123508
-0.086861
-0.0106699
-0.00882672
0.0194964
0.244045
0.0741331
-0.152216
0.0780587
0.0103703
-0.0262316
0.0329285
-0.0811989
0.0482685
0.312892
-0.542418
0.230241
-0.223773
0.251707
-0.0748622
0.196658
0.088226
-0.177652
0.0893923
0.0280615
0.120677
0.242062
0.0166876
-0.0158212
-0.000866928
-0.0861986
-0.0962313
0.0907458
-0.0856554
0.137045
0.145926
-0.313604
0.516781
0.00479746
-0.0728565
0.166001
-0.0931082
0.491043
0.321649
-0.582058
0.260763
-0.0104492
0.00162383
0.00882508
-0.238874
-0.0517341
-0.29071
0.155312
0.189021
0.145667
0.129258
0.125256
0.551907
-0.0723368
0.149694
0.106823
-0.264126
0.10719
0.129327
-0.236467
0.241622
0.216295
-0.457255
-0.0991596
-0.0570012
0.061097
-0.116148
0.0467638
0.157873
-0.107483
0.0326937
-0.0125598
0.0778148
0.0720732
-0.149916
-0.41577
0.140079
-0.0913457
-0.287218
0.175679
-0.160073
0.54359