/*--------------------------------*- C++ -*----------------------------------*\
| =========                 |                                                 |
| \\      /  F ield         | OpenFOAM: The Open Source CFD Toolbox           |
|  \\    /   O peration     | Version:  v2012                                 |
|   \\  /    A nd           | Website:  www.openfoam.com                      |
|    \\/     M anipulation  |                                                 |
\*---------------------------------------------------------------------------*/
FoamFile
{
    version     2.0;
    format      ascii;
    class       volScalarField;
    location    "1000";
    object      ddt0(omega);
}
// * * * * * * * * * * * * * * * * * * * * * * * * * * * * * * * * * * * * * //

dimensions      [0 0 -2 0 0 0 0];


internalField   nonuniform List<scalar> 
9793
(
0.00171211
-0.0558058
0.0019497
-6.64299e-06
1.81956
-7.57195e-05
1.44005e-05
-1.21247e-05
-1.53719e-05
1.2205
-0.00237333
-0.0317395
-1.64113e-05
1.72851e-05
1.78849e-05
2.06399e-05
0.000108455
0.000188937
-0.0464542
3.91082e-05
-0.78096
0.000194827
0.0395698
1.11579e-05
-2.88727e-05
-2.30938e-05
-1.8743e-05
-5.28266e-06
-6.45192e-05
-2.20388e-05
0.000750659
0.014725
-0.05918
-1.90394e-06
2.07541e-05
-0.286707
-3.40156e-07
0.000201134
1.79893e-05
-1.70313e-05
0.000384287
1.69357e-05
-2.3062e-05
1.30365e-06
-2.8565e-05
-1.81012e-05
-0.000194225
-0.0155533
0.330333
-4.10864e-06
-3.92459e-05
-0.00196219
-3.16759e-05
2.05157e-05
0.0230634
0.235926
-4.93251e-06
-0.00364536
-0.174762
-8.942e-06
5.47991e-06
4.63349e-05
-0.110982
-4.60679e-07
0.428872
-0.0575812
-0.0829292
0.0171997
-0.0409735
-0.00204369
0.0159356
8.53793e-06
-5.12215e-05
0.056066
0.000127025
-0.146725
-1.7255e-05
-4.77645e-05
0.000114445
-2.17567e-05
-0.0642949
-5.76636e-05
-0.043004
-0.00336296
-0.000605746
-0.0107575
1.56418e-05
-2.19485e-05
2.05311e-05
-0.000187104
-0.0366212
2.2787
1.45796e-05
0.00793247
2.80896e-05
-0.00390232
0.06073
-0.045368
1.95711e-05
-3.6981e-06
-4.52617e-06
-1.01613e-05
2.3196e-05
1.9502e-05
-0.000234531
-1.43173e-05
-5.76612e-06
-1.19366e-05
-1.65455e-05
-0.0217032
9.74956e-06
-0.0904953
5.10964e-05
0.245498
-0.00185014
-1.41988e-05
-0.0327585
0.000201532
-3.0011e-05
0.00156388
-0.0227706
1.0859e-05
1.21538e-05
-0.000106453
4.90937e-05
-0.500575
-0.00151467
-0.0105313
0.000692112
-3.40186e-05
1.2881e-05
-2.19968e-05
-3.70301e-05
-6.63602e-05
-1.06733e-05
-1.76676e-05
-1.39632e-05
6.88298e-07
3.58775e-05
-7.74104e-07
3.80848e-07
-6.63906e-06
-2.06247e-06
-1.53033e-05
3.73552e-05
5.15132e-05
-0.1175
-1.39635e-05
1.9916e-05
1.12538
0.0507364
1.12429e-05
0.0613264
0.684217
1.75709e-05
1.18859e-05
2.06319e-06
1.01786e-05
-8.25113e-06
-2.46803e-06
-2.35458e-05
-3.83515e-06
2.129e-05
0.00433413
-0.0625321
-0.678435
-0.0142196
0.000294245
-2.66319e-05
-2.83125e-05
-1.65341e-05
0.136784
-0.101503
0.0510975
2.87085e-05
-0.0285207
-1.77658e-05
7.29528e-06
-1.87246e-05
-8.02854e-05
-0.180881
1.44153e-05
-7.72872e-06
-1.05551e-05
-0.0568206
-3.83443e-05
0.00105232
-1.91375e-05
1.53174e-05
2.6628e-05
2.63441e-05
-3.32919e-05
0.516836
-0.141634
-0.0710204
-6.78208e-05
0.0019767
-3.79755e-05
0.524382
7.43637e-07
-7.50376e-06
0.0347139
0.31235
-2.78642e-05
-1.28665e-05
-0.000111568
-0.318387
-1.69143e-05
-0.000105027
6.04935e-05
8.28301e-05
0.398348
0.175742
1.329e-05
0.00263688
2.29597e-06
-2.25307e-05
-0.0573602
-0.000103662
-0.177217
0.0012091
-2.00189e-05
4.6105e-05
-3.66781e-05
-0.00706745
0.035784
-7.32085e-05
1.35489e-05
0.00102597
-0.00135447
4.22267e-06
4.37525e-06
-5.15085e-06
2.35156e-06
-0.0018289
-0.170875
1.52413e-05
-8.86584e-06
0.0548267
-1.6856e-05
-0.000180211
-1.18442e-05
-2.81545e-06
-0.0629121
-1.93692e-05
1.8058e-05
-1.82346e-05
1.76969e-05
2.04894e-05
-1.04679e-06
4.20823e-05
0.000113375
-0.00142947
-0.0016752
1.46989e-05
0.000254157
-2.70361e-05
0.000113867
-0.00016757
-1.9278e-05
-0.0225315
-2.75308e-05
-0.00135888
-1.9537e-05
0.000298709
5.30453e-05
3.03713e-05
0.000102046
0.00151123
4.3287e-06
-2.0336e-05
9.26174e-06
0.000471374
-2.52969e-05
-0.00873621
-0.0711584
-4.76674e-05
-0.12705
-4.00472e-05
-0.00175795
2.63134e-05
1.74785e-05
-7.3573e-06
-1.58639e-05
-0.00145097
-2.28057e-05
3.8283e-05
0.000245777
1.08118e-05
-1.36072e-05
3.34235e-05
-0.0406064
-5.33812e-08
-3.00094e-06
1.09461e-05
-9.96264e-05
7.11629e-05
0.000227294
-4.54431e-05
-0.574859
1.98613e-05
-0.150624
-0.0136074
-7.32184e-06
-1.02577e-05
-1.88374e-05
0.0005009
0.000271753
3.18925e-05
-0.133975
-5.5728e-05
-1.90429e-05
0.00029293
4.20363e-05
1.08603e-05
-6.32469e-05
-0.00566158
-1.23274e-05
0.000416356
5.85304e-05
-1.0489e-05
0.0276001
0.00167343
0.0348454
-4.7678e-05
-0.191754
8.49544e-05
-0.203194
0.000409616
1.58177e-05
-4.80974e-05
0.000614345
-5.23706e-05
-0.000226439
-0.00249602
-2.20546e-05
-2.98762e-05
2.16214e-05
-6.32725e-06
-1.6043e-05
0.00241532
-3.67272e-05
-3.55151e-06
-0.4234
-1.87558e-05
4.18392e-05
3.65405e-06
0.000109186
-1.85534e-05
0.00249561
6.50469e-05
-4.38341e-06
2.04425e-05
9.45491e-07
0.210606
9.28118e-06
0.000615305
9.83834e-07
-0.000345277
0.0596702
-0.00295546
-0.000518392
0.000106546
-4.32779e-05
0.00180567
5.23115e-06
-0.0263766
-5.60999e-05
2.69866e-06
-0.0144862
-0.000234825
-0.00635864
-9.53652e-06
-0.00209048
-0.43329
-0.000176946
-3.73136e-05
-0.0515484
-6.97136e-05
-0.110908
0.00026264
-1.01848e-05
0.522908
-6.49867e-05
9.47328e-05
-9.63624e-06
-1.65616e-05
-8.32459e-06
1.82193e-06
0.000226477
0.208596
4.6563e-06
-0.33165
-0.0216792
0.00201584
-0.00141995
0.0317267
4.9648e-06
1.6813e-05
0.0132712
-0.0461184
-8.59364e-06
1.67048e-05
-0.238072
9.18936e-06
-0.0271016
-3.83203e-06
0.000227027
9.05209e-06
0.000138373
-4.10591e-05
-9.31976e-05
-0.212182
-1.97516e-05
0.0456625
-8.1732e-05
6.67458e-05
-5.23304e-05
-2.82664e-05
4.81229e-06
4.6361e-05
-0.0189508
-4.23662e-05
9.74996e-06
-0.0023812
-2.12985e-05
-0.000169188
7.72765e-05
2.08691e-05
-7.92345e-05
4.567e-06
9.18729e-06
5.69327e-07
0.0140704
2.5728e-05
0.0049464
-2.49151e-05
0.352087
-1.46101e-05
-3.68663e-05
-4.80873e-06
5.21793e-06
-0.104351
-3.82459e-05
0.0340825
3.3075e-05
-4.47623e-05
8.81208e-05
-0.17033
-0.000183766
0.128884
0.300328
-5.39887e-05
1.5878e-05
-0.00222789
-6.04062e-05
0.000268794
-0.0490882
-0.259238
-5.60186e-05
7.44755e-06
-0.00206307
9.56816e-06
-0.000161887
1.61954e-05
2.35153e-05
1.25853e-05
0.45537
-8.07934e-05
0.278225
3.01099e-05
0.000543874
5.71802e-06
-2.88721e-06
4.237e-06
-6.74072e-05
-0.00223613
-2.7404e-05
8.52637e-05
7.50916e-06
-9.82858e-06
-0.000216748
-0.0203233
1.0502e-05
2.92331e-05
-0.0186768
-0.000194301
6.10073e-05
-0.141407
0.465072
-1.12401e-05
-1.96741e-05
0.000103361
-0.000213546
1.76007e-05
6.00919e-06
-5.64205e-05
-3.48847e-05
-1.80432e-05
4.51341e-06
-0.0994741
-0.00131237
1.99092e-06
-0.078564
0.000602001
5.56158e-06
2.71695e-06
0.0001385
-0.108379
2.97212e-05
0.013494
2.2069e-05
-5.4856e-06
-0.00154497
4.73079e-06
-0.000528193
0.0218115
0.000457211
4.11024e-06
-0.289123
-0.000211013
-1.3992e-05
-4.13435e-05
-0.00290809
1.01032e-05
-1.00194e-05
-2.60635e-05
1.84459e-05
-0.0566373
-0.00191921
0.00063319
-2.79953e-05
-3.94338e-05
-8.13361e-06
-1.55769e-05
7.0978e-06
-4.06028e-05
-0.27099
-0.0136351
9.80148e-06
-0.00018125
0.0248325
-3.64242e-05
0.0682501
0.0013017
7.06178e-06
-0.00251037
0.404524
-2.72398e-05
-0.0117103
-6.84799e-06
0.263771
0.000176045
0.554097
-4.40892e-05
6.25198e-06
0.000112574
0.018005
-0.000137762
-0.145598
-0.0734343
-0.152589
-0.000613307
-0.0352339
0.000281505
1.1202e-05
-0.000481268
-0.000226575
-0.0229264
2.28076e-05
0.363466
-1.14614e-05
0.101252
-9.88593e-06
-7.01848e-06
3.18132e-06
0.0266745
-1.06099e-06
-9.36952e-06
3.36963e-05
8.5697e-05
-0.000101204
-5.01135e-05
-2.7385e-05
-4.36705e-05
-4.94264e-05
-0.00483748
-8.95823e-06
-0.211399
-0.132118
-3.56735e-06
-1.22596e-05
0.000507596
1.92195e-05
2.76023e-07
4.1667e-05
-0.000173733
0.000173188
-1.36939e-05
8.40706e-05
4.29931e-06
0.000285551
9.5864e-05
0.000145495
3.02026e-05
0.000116331
-0.178429
-1.39823e-05
-0.00448893
-7.73498e-05
1.42151e-05
-2.35625e-05
-2.02964e-05
-0.000141952
-6.80673e-06
-1.76257e-05
6.85236e-05
2.22788e-06
-1.07157e-05
0.000107027
8.44198e-07
0.00022214
-1.96613e-06
-6.87503e-06
2.15545e-05
-8.68424e-06
0.000206376
-1.51363e-05
-0.000541309
-1.23926e-05
-2.17783e-05
-2.35378e-05
-3.60211e-06
-5.08762e-05
-1.51915e-06
-6.35363e-05
-1.42202e-05
-1.4951e-05
-4.0055e-06
-1.47861e-05
5.59307e-06
-7.76758e-06
1.81989e-07
0.206051
-2.21495e-05
8.17964e-06
-0.00224877
-4.42529e-06
-9.01475e-05
0.157184
-3.08012e-05
4.26294e-06
3.51988e-06
-0.00348223
-1.95261e-05
-0.00226293
0.118847
0.185381
-0.0432708
-8.27032e-05
-4.55661e-06
0.0276373
0.000283035
5.16011e-06
-0.0551104
0.482688
0.0822936
-1.58474e-05
-0.00350325
-6.91272e-06
1.17091e-05
0.475364
-1.19266e-07
-0.320584
5.3708e-06
-0.00122035
-1.4539e-05
0.000202052
9.49371e-05
0.00414897
-0.447341
5.51289e-07
0.000556977
-0.000273346
-1.32764e-05
-0.000152824
-0.00217521
-0.121097
-3.76196e-05
0.0570562
0.000228482
0.239499
0.0386369
-0.0284444
-0.0161218
-2.47588e-05
-0.000292562
-0.181483
2.37501e-05
-1.65574e-05
1.46376e-06
0.000227522
-2.63405e-07
0.418294
-8.17199e-07
-0.16757
-3.96135e-05
-0.0157629
-0.00210849
-1.47302e-05
0.0261408
-0.0334123
4.19725e-05
0.589238
-0.000339932
-0.00443922
-2.56925e-07
-2.09753e-06
-0.0131701
-2.94308e-05
-0.491165
-1.29514e-05
-0.126419
9.90975e-07
-0.0162884
-0.011049
-2.62815e-05
-0.194086
-2.77506e-05
1.91981e-05
-0.000552194
0.0118703
-0.14572
-7.99422e-05
3.62188e-06
8.22191e-06
0.0712453
-0.260248
-3.93958e-05
-7.67177e-05
0.0777679
5.70739e-06
7.33379e-06
-5.31944e-05
-0.373899
-0.000104861
-2.80653e-05
-6.92822e-06
-1.76432e-05
-0.0516374
0.0376932
0.00364783
-8.37586e-06
-2.23395e-05
0.135849
-2.44837e-05
0.573541
-0.000258006
-0.129695
-0.0143932
-0.0324518
-6.80297e-06
-1.53493e-05
4.60588e-05
3.54541e-05
0.000128221
-4.45724e-05
-0.0032909
0.0647064
1.45743e-05
-0.0191939
-2.1535e-05
0.00807621
-8.29118e-06
0.00127885
0.000302206
-1.00858e-05
-3.24186e-05
-0.000329498
0.008858
0.225298
-0.152399
-2.91381e-05
0.000343037
0.000126089
0.000138546
0.000229086
-0.192251
1.08912e-05
-0.0044116
-1.52782e-05
-0.000332357
-4.54427e-06
-1.7738e-06
1.83074e-05
-2.2881e-05
1.45481
-4.10601e-06
0.00014066
-8.98297e-06
1.219e-05
-5.44701e-06
0.000904471
-1.86598e-05
-2.76117e-06
9.12844e-06
-1.65913e-05
-0.0818486
-1.00035e-05
-0.521713
1.32967e-05
0.0296895
-4.16409e-06
-0.0796866
-1.01789e-05
-0.0189357
2.26721e-05
-2.16576e-05
-2.42733e-05
-0.0168309
-0.0834997
0.0118701
2.06374
0.118648
-3.40552e-05
6.17303e-05
0.0352373
-3.63589e-06
-0.0202942
-0.023338
0.000936537
0.0020622
0.000132832
-0.042036
-0.000247345
-0.0111481
-0.0020514
0.000119253
2.23085e-05
-0.0588538
-0.75815
-7.35462e-06
0.000229983
-1.68166e-05
4.14141e-05
-0.000960288
-6.87551e-07
-4.92855e-05
3.23624e-05
0.0345003
-0.000553545
-1.31665e-06
0.191519
-2.4532e-05
-6.34556e-05
0.11797
-1.02213
-0.0011068
-6.84424e-05
-0.00043311
-5.43545e-06
-4.30732e-06
-0.0245774
-1.26012e-05
0.00011423
-0.031847
-0.02473
-2.52609e-05
0.0520636
0.0745354
-0.250613
0.064495
-0.222215
-5.38758e-06
0.108977
2.96296e-05
-2.07148e-05
-2.92672e-05
-1.67265e-05
0.000152393
-0.270499
0.000121042
-0.0201048
-0.000114242
0.000637614
4.83655e-05
-0.00111985
-2.77862e-06
-1.52724e-05
-0.000256742
-0.000126456
-1.9046e-05
-0.000296561
-0.000153137
3.54376e-05
2.12921e-05
2.65993e-06
-0.0804248
-0.0998571
0.000182638
4.40124e-06
2.562e-06
-8.40921e-05
0.000743605
0.0131895
-6.42591e-05
0.0950883
0.000136462
-0.0218654
-0.000102863
0.000306006
-2.26935e-05
7.48838e-05
0.00102024
-3.14116e-05
5.05344e-06
-0.891537
-0.000167391
-0.223044
-4.22303e-05
0.256349
0.0272966
2.4869e-05
-0.00140867
-6.27625e-05
-0.0092095
1.79749e-05
-3.68071e-05
0.12885
-0.00114237
-3.71842e-05
0.00502672
1.58433e-05
3.5566e-06
-2.24483e-05
1.19597
1.00932e-05
-0.000210454
-0.00855827
-0.00119181
0.000350786
0.000359315
-0.00369505
-0.0787869
-0.00538092
-1.29173e-05
1.30058e-05
2.23102e-05
1.83238e-05
1.5219e-05
0.184879
0.0484685
-6.40822e-05
0.0673997
0.0448287
-0.0394969
1.78455e-05
-0.123566
-2.70906e-05
-0.0212501
-0.00404692
-9.68006e-06
0.260053
-0.237258
-2.75849e-05
-1.07901e-05
1.03336e-05
0.0327342
0.0642646
0.000415603
0.000403601
0.0144776
0.0237225
-0.24656
0.117392
-3.00754e-05
2.5302e-05
-0.301945
-0.403493
-3.32713e-05
-4.57474e-05
-7.39258e-05
4.8084e-05
7.62356e-06
-6.45399e-05
-0.684655
-4.13907e-05
-0.000235518
-0.523899
2.06536e-05
1.10917e-05
0.000300618
0.0498008
-3.64411e-06
0.00048013
-0.0116262
4.59261e-05
6.33189e-06
6.0139e-05
-1.29956e-05
0.000125085
-0.00869838
-0.0582261
-5.1318e-05
-0.0169177
-9.82301e-05
0.00469723
6.0833e-06
-0.000100619
0.000108676
1.61027e-05
-0.112063
-7.17165e-05
-7.3704e-06
0.000424429
-0.000143331
-0.000410453
-0.000164488
-2.38045e-05
-0.00175809
5.27513e-06
-1.37029e-05
0.438627
-3.65436e-05
-0.136481
-0.000369796
-9.07231e-06
-0.238832
-7.24285e-05
-0.00049898
0.0893603
-6.36052e-06
-0.0123706
-1.34201e-05
1.53877e-05
-0.313726
-0.185212
-6.43067e-06
-1.38204e-05
-1.53505e-05
-7.90075e-07
-0.00466339
0.000110218
-0.000106281
-8.58259e-06
5.41675e-05
2.02391e-05
-5.16528e-05
8.26542e-07
-1.19511e-05
-1.4225e-05
-0.0289642
0.000258946
1.00155e-06
-0.00142548
0.000245913
0.0469501
0.0212734
-0.000889759
-1.11847e-05
-1.52144e-05
-0.00388492
0.000190427
4.59141e-06
2.15869e-06
-0.00722726
0.0157558
-4.75371e-06
-5.49979e-06
-0.00387102
0.000823914
2.8631e-06
-0.0179755
-5.77504e-05
-2.49644e-05
3.8293e-05
0.000139947
-4.27763e-06
0.000504923
-0.0407972
5.32505e-05
-0.0847211
-0.000529148
0.0252189
-8.18913e-06
-7.94115e-06
-3.23662e-06
-3.79526e-06
0.112871
-2.41055e-05
0.00847524
6.22288e-05
-3.30363e-06
5.60514e-05
0.000569908
-3.40331e-07
6.51689e-06
-0.000100834
1.24388e-05
0.139322
-3.59182e-06
-4.0474e-06
-0.0170371
-0.000163901
-2.01828e-05
0.000179551
-3.81685e-05
-1.71554e-05
-3.32823e-05
1.98097e-05
0.000171699
1.10389e-05
0.00195399
0.404122
-7.35241e-06
-9.8242e-06
-5.07974e-06
0.00136361
4.91381e-06
0.000306112
-3.21076e-05
-1.31576e-05
0.00062169
7.75542e-06
-0.000433066
-2.20511e-05
1.13873e-05
-0.0291359
0.278793
-1.16263e-05
-1.90603e-05
3.24016e-06
0.038595
0.00123031
-5.93078e-05
0.0506735
0.0113077
-2.30501e-05
0.00636281
0.0341153
0.000247202
-0.0107248
0.00318635
-0.0293637
-2.2867e-05
0.000290205
-0.00152255
1.21725e-05
0.0269905
-0.251643
3.46105e-05
-0.198253
-0.144873
3.98999e-05
-0.00628105
-9.0553e-06
1.1799e-05
0.000278517
5.87479e-06
-0.091381
-1.4981e-05
-0.00127943
0.00125738
-8.7355e-06
0.287126
1.81307e-05
-1.29652e-05
-0.000436747
-5.80807e-05
-0.0488442
-0.293273
-1.31339e-06
8.87067e-05
-0.283807
-2.01769e-05
-0.000120977
-2.00484e-05
-0.00414702
0.201673
0.000477669
4.54399e-05
-0.00015343
-0.204245
-0.318402
-0.000379487
-8.45164e-06
-9.91661e-06
-0.357909
0.0675798
0.0102342
0.000161557
0.000164628
-7.98281e-05
7.69405e-06
8.04584e-06
1.93932e-05
0.00017066
2.61768e-05
-3.50413e-06
-0.0372583
0.0915789
-2.86148e-06
0.517956
0.000271393
-0.0284343
-0.181475
0.000496821
-0.0276464
0.077285
-8.62591e-06
-0.0041499
-0.00979645
-0.107814
-0.17071
-5.32625e-05
-0.017127
0.0242987
0.00040724
0.00036347
-0.139691
0.120131
-2.16633e-05
-7.85921e-05
-7.3307e-05
-3.67834e-05
-0.00437781
1.07184e-05
3.32649e-06
-1.87058e-05
-2.28344e-05
2.06837e-05
-4.84995e-06
0.000139356
-0.000161106
0.0700126
3.35051e-05
-0.0220799
-2.11375e-05
-0.000241808
-2.37258e-05
1.56576
0.312928
-2.0724e-05
0.000365257
-6.75503e-05
-7.83446e-06
-5.03541e-05
-3.82776e-06
-2.52214e-05
0.00134808
-1.73216e-05
-0.000726796
1.49579e-05
-3.15903e-06
-0.0457322
1.45228e-05
3.66233e-06
-1.38279e-06
-5.71018e-05
-0.00139672
-0.00430467
0.0812912
0.583221
0.0288259
-2.18811e-05
8.90354e-06
5.01485e-05
-4.59357e-05
0.0135627
-0.00497673
-0.380959
-1.82043e-05
0.000431802
3.71296e-05
-0.00266837
-0.274498
-0.000123016
-0.22199
0.0125682
1.56578e-05
0.000442814
1.2625e-05
-0.00169676
-0.000195003
-0.00364043
-0.00137811
-1.36865e-05
-0.165281
-0.0791346
1.73078e-06
-3.28045e-05
1.47844e-05
0.730425
0.00018636
2.43645e-05
0.10087
-9.75275e-06
0.675709
-0.000214016
-6.52584e-05
1.56466e-05
2.9044e-05
0.0489629
-2.59371e-07
-0.0346034
-7.56586e-05
-1.43078e-05
-1.98727e-05
0.0711617
0.00013015
-0.329182
-0.000166429
4.46185e-05
0.000336254
-0.00109682
-4.15141e-05
-3.03374e-05
-0.100489
3.82844e-06
1.64513e-05
-0.0631451
-0.071819
-2.83929e-06
-7.23618e-06
-0.000165338
0.00167536
0.00118611
-4.3211e-06
0.0354698
-7.25698e-05
0.00272168
0.00491139
1.79066e-06
-1.41574e-05
-0.000922832
-7.69438e-06
-1.72897e-05
-3.42726e-06
-0.00465193
-0.232774
-0.00331491
1.35147e-05
1.49075e-05
4.69893e-07
0.0741112
0.000480866
-1.33047e-05
1.36791e-05
-4.78525e-05
-0.354873
0.0208343
-0.00399314
-1.53091e-05
9.02452e-05
-8.17533e-06
-5.07204e-06
6.38513e-05
3.46635e-06
5.83395e-05
1.43431e-05
0.00893928
-0.00817495
-0.150721
-4.57998e-05
-1.65302e-05
-2.11388e-05
0.000196209
-8.23627e-06
-2.8498e-05
0.000618242
-2.77825e-06
-2.7302e-06
0.000108206
-1.65448e-05
1.20733e-05
-0.202778
-0.00157411
2.04256e-05
-4.09895e-05
0.00770575
-5.18657e-05
0.0156917
-3.12301e-05
-5.58919e-05
-3.52348e-06
-4.25629e-05
5.60124e-06
2.75082e-05
0.0102311
0.000674993
-1.27575e-05
1.09897e-05
-4.42382e-05
5.043e-05
0.000168138
0.000445674
3.51229e-05
-0.281596
-5.86171e-05
4.15324e-05
8.86736e-05
-0.00297465
1.01469e-05
-0.307542
1.34608e-06
-1.31368e-06
2.84503e-06
-0.348492
6.13592e-05
-0.0778225
-0.382517
7.73144e-05
1.08617e-05
-2.14135e-05
-1.9074e-05
-0.00208937
-3.89279e-05
-3.21294e-05
-0.116088
-3.10991e-05
0.000258459
0.0080074
9.26367e-05
-0.00537057
1.02027e-05
-4.01338e-05
-1.06045e-05
9.37308e-06
-7.00438e-06
-1.77779e-05
-0.0160952
-0.00195841
-7.18714e-06
-0.295882
-0.00471398
-6.06117e-06
-0.00659716
6.94317e-06
0.000753704
4.07778e-06
4.91922e-06
0.000889165
5.29123e-06
2.266e-06
0.000273611
0.000531387
-0.00396644
6.85374e-05
-3.88659e-06
0.000120854
-0.230217
-0.0253875
-0.00129688
-0.000295748
-1.19645e-05
-2.12949e-05
-0.0101887
1.15698e-05
1.85802e-05
0.00195313
0.0616944
-3.44559e-06
-0.0010933
5.59188e-06
3.72804e-05
0.000609666
-0.000382678
0.000588089
1.56503e-05
1.33525e-05
-1.37824e-05
0.00104156
-0.026778
1.31288e-05
-0.000109549
-0.00797208
9.23847e-05
3.91461e-05
-1.07859e-05
2.26408e-05
5.02088e-06
-0.00409875
0.0359189
-0.000213422
1.52234e-05
0.00152957
1.93005e-05
1.51326e-05
-3.47714e-06
-2.17723e-05
2.03257e-05
-1.0113e-05
0.000632856
-0.00170336
6.22184e-05
3.57491e-05
-3.6239e-06
-9.12503e-06
1.19405
3.6492e-05
-2.57516e-05
2.2919e-05
0.00343674
0.00598224
4.79236e-06
-3.45989e-05
3.05563e-06
-0.0440792
9.31926e-05
0.0185147
-4.50372e-06
0.00105416
-1.04062e-05
-2.58445e-06
-0.0144202
1.50076e-05
-0.000388769
2.42208e-05
-5.79435e-05
9.54491e-06
0.000132113
0.333716
2.12334e-05
1.99254e-05
-0.0730506
3.02723e-06
0.000115149
2.154e-05
2.33268e-05
-6.47494e-05
6.46336e-05
-0.00867747
-1.68053e-05
-8.96974e-06
1.21431e-05
-0.222517
0.000169333
0.00691491
1.22328e-05
3.47608e-05
0.109365
0.04397
-0.00464514
-0.000179866
-0.000432652
-0.011448
9.9369e-06
-0.0484124
5.76537e-06
-0.00744554
-1.07767e-05
-0.0817894
-0.00264494
2.75451e-06
0.00025677
-0.000165085
0.000121298
-2.60362e-05
-0.0335216
-8.22096e-06
-0.00884806
-2.13007e-06
-5.58194e-06
3.17139e-05
-2.35181e-05
3.47815e-05
-0.00251938
-6.62076e-06
3.64157e-06
6.05572e-06
-5.05825e-06
-1.44506e-05
-0.0493901
0.00404297
-0.0865092
8.85896e-06
-4.5707e-05
-1.33603e-05
2.12981e-05
1.21907e-05
-0.00270524
-0.00126299
-3.38428e-05
8.39852e-06
-0.0247014
0.000115875
-0.167772
-0.0430412
0.000160601
2.52013e-07
-4.68881e-07
0.000219251
-0.166679
-4.73756e-05
-1.43231e-05
0.181275
-0.0180496
-0.00172035
0.184092
2.35432e-05
-3.31787e-05
3.02959e-05
-9.44651e-06
1.98656e-05
-0.224762
0.249111
-0.688839
-5.58207e-05
0.0154442
1.95715e-05
6.07058e-06
3.64609e-06
2.35632e-06
1.72308e-05
-0.00173009
-1.63104e-05
-3.37462e-05
-3.18063e-05
-9.12885e-06
6.67029e-06
-2.61577e-05
0.000258512
-0.0650998
0.00278106
2.17699e-06
8.23903e-06
-7.55759e-07
2.48642e-05
9.75966e-06
-0.0408532
3.83024e-06
2.88176e-07
2.75631e-05
-0.00674303
-3.42498e-05
0.000206563
-0.0505802
-2.1632e-05
1.03719e-05
-0.0358522
-5.24912e-05
1.43924e-05
-5.23798e-05
1.61034
0.00296569
0.000448791
2.84516e-05
-0.991995
-4.26362e-05
-9.95966e-07
1.00639e-05
-2.6028e-06
-0.004466
-5.22607e-05
-3.25453e-07
-0.00137313
-2.57783e-05
-0.0443642
0.000543623
0.000194718
4.02901e-05
-0.0581015
-0.000750076
1.59637e-05
-8.88516e-07
5.61869e-06
-2.61792e-05
9.46045e-06
-0.127316
-5.06567e-06
-0.0242013
-1.93646e-05
-3.81058e-05
0.358861
-3.37267e-05
-0.130809
-0.00484635
1.66638e-05
-0.041113
-1.30354e-05
-5.42729e-05
-2.85583e-05
1.89206e-05
-1.72752e-05
-2.26778e-05
-2.85757e-05
-3.56417e-05
0.00421364
-4.69912e-06
-8.81562e-06
1.6127e-05
-1.30602e-05
-2.32904e-05
-2.25556e-05
-1.49192e-06
2.35905e-06
-3.41849e-05
-2.43492e-05
3.49843e-05
-3.14312e-06
5.75731e-05
-0.177571
2.90914e-05
-2.1549e-05
0.00172529
-0.00354532
4.72405e-06
-0.00152294
7.33955e-06
-2.9452e-05
1.29745e-05
-2.468e-05
0.339721
-0.0112361
-2.60442e-05
0.000142454
-0.029156
1.50375e-05
0.0247504
-0.100092
-1.02761e-05
0.236756
-1.08877e-05
-0.0370461
0.000286024
0.0324338
0.00249771
0.179423
2.32618e-05
-1.44822e-05
2.90182e-05
0.000344293
0.00129284
0.000122867
-0.0667852
0.0146971
-5.82585e-05
-0.316422
0.162292
-0.000505923
9.65543e-06
0.000622872
0.000564739
-3.66351e-05
-4.70963e-05
0.000271413
1.23377e-05
-4.04544e-05
4.81795e-05
1.365e-06
2.53963e-05
0.0028105
-1.95925e-05
-3.88898e-05
-1.34389e-05
-0.0888022
-2.96461e-06
2.9538e-05
1.50198
0.00767538
0.0186711
-3.09642e-05
-1.56584e-05
-2.89673e-05
-0.000951824
3.19024e-05
8.03153e-05
0.121147
-7.87882e-05
0.000954418
-2.26145e-05
-0.00374391
-0.00390634
-0.00381485
-0.10401
0.0596696
-3.99472e-05
2.40157e-05
-3.29894e-06
-0.0224501
-1.02586e-05
-1.30016e-05
-3.6069e-05
0.000547615
0.147487
-0.0838318
4.13275e-05
0.00150056
0.0126111
0.00016495
0.00197433
0.0495429
0.0917254
-0.00117125
0.0295536
-0.0072649
-1.36348e-05
-1.51652e-05
-3.08339e-05
0.0483086
0.00271722
0.0821802
1.99705e-06
-1.52885e-05
-6.291e-05
0.206122
-2.29134e-05
-6.17367e-05
-3.44146e-05
0.000393886
-4.69913e-06
-2.54547e-07
6.05863e-06
0.000139504
0.00252669
0.000264304
-8.90622e-05
1.7527e-05
0.0570051
3.10683e-05
-6.81704e-06
-2.08599e-05
0.0150612
0.103362
1.36539e-05
1.2053e-06
1.6365
-4.66992e-05
-3.79852e-05
-9.52583e-06
-3.89162e-05
0.0137652
3.40256e-05
1.52975e-05
-5.77197e-08
3.49462e-05
-5.45092e-05
-2.40933e-05
-1.29446e-05
-1.98134e-05
-2.22559e-05
-0.0114102
1.88283e-05
1.18296e-05
0.00724439
-0.000796267
0.000488261
-0.00412912
-1.54409e-05
-0.033682
-4.50027e-05
0.000311261
-7.06097e-06
0.210494
-3.60262e-05
-2.59364e-05
-3.60259e-07
0.11117
5.04142e-05
-3.21512e-05
-0.00533158
-5.11962e-05
-4.07441e-06
-4.53665e-05
-7.27637e-05
5.15696e-05
-8.07991e-06
0.321081
4.84587e-06
-0.0428511
0.0111052
-4.85479e-05
-0.000868472
1.75703e-05
-2.17212e-05
-3.30812e-05
0.64525
-0.00113137
0.00600013
-0.00279775
0.000818089
-0.000243953
0.0270549
4.16963e-06
-3.5969e-05
-6.90349e-06
1.10955
0.0696889
2.19778e-05
-0.00248474
1.2952e-05
-3.36202e-05
0.158811
-2.95703e-06
-3.06118e-05
-0.0434833
0.0398009
0.620554
-2.46195e-05
-3.84181e-05
0.0190838
-8.1999e-06
0.000114777
-0.003543
-5.84456e-05
0.0171731
0.00271175
-0.182192
-1.84058e-05
0.000101191
8.52018e-06
-2.05084e-05
-0.00911096
-3.30593e-05
2.5556e-05
0.000744693
-1.15018e-05
0.00552322
-1.72528e-05
0.000105822
3.46574e-06
0.327372
9.10612e-06
8.98618e-06
0.440278
-0.020008
-6.15423e-05
0.0299563
2.22075e-05
-3.27112e-05
-4.7851e-05
6.40444e-06
8.47767e-06
-0.00108925
0.0171506
-4.41508e-05
5.01488e-05
-5.78496e-06
-5.96206e-06
-2.42813e-05
-6.25373e-05
-8.26454e-05
-2.5715e-05
2.85922e-06
-1.26768e-05
-3.70636e-05
-0.0672036
3.80899e-05
-2.31921e-05
0.000808107
-5.37812e-05
-8.7525e-06
-0.0234562
-0.149156
-0.117635
-0.000151927
-0.00381773
-1.40939e-05
9.79959e-05
0.00769816
0.067409
0.0990997
-0.0253719
0.0112222
5.52389e-06
0.0125927
0.550978
4.93971e-06
0.00776225
6.12184e-05
0.397066
0.00380744
0.538016
8.822e-05
1.5983e-05
8.53674e-06
-4.74433e-05
-5.91885e-05
-0.00962179
0.0608976
1.15376e-05
-1.9381e-05
-4.88832e-06
-0.0233296
-3.11166e-05
-2.16308e-05
-3.69219e-05
2.35118e-05
-3.84942e-05
0.00466599
1.52009e-05
-6.26754e-06
-6.06619e-05
0.000181773
0.00174295
0.137867
-3.96109e-05
-3.56213e-05
0.000143766
-2.23923e-05
-1.55797e-05
-4.33955e-06
0.0115749
-4.99181e-05
8.82192e-05
-5.14634e-07
-4.68722e-05
4.08552e-06
-2.96749e-05
-0.0887912
0.00176807
-6.12608e-06
-5.69307e-05
-0.0135244
-0.156382
0.00135135
0.567525
-2.11802e-05
1.38063e-05
-3.10578e-05
-6.08824e-06
-2.86824e-05
-5.60234e-06
-2.14455e-05
-1.2521e-05
2.49687e-05
0.0060738
-9.81836e-06
0.0296856
0.288355
-2.35789e-05
-0.00185621
0.00101426
6.61809e-05
-2.24469e-06
-4.74352e-05
2.48498e-05
8.47011e-06
-0.0336519
-1.08112e-05
-9.51725e-06
0.0019954
-3.31557e-05
1.23313e-05
1.58374e-05
0.0682375
-2.87355e-05
-1.56132e-05
0.08338
-2.16007e-05
-7.51478e-06
-2.82394e-05
0.0226743
-1.63919e-05
9.40326e-07
-3.2282e-05
-1.7868e-05
0.00461817
-0.00394371
-3.45949e-05
-0.0273066
-7.03429e-06
-1.89932e-05
2.58084e-05
-0.0245953
-0.289636
4.72276e-06
-0.000145452
2.36248e-05
-3.0452e-05
-3.18411e-05
-5.58065e-06
0.0141452
-0.0434199
-3.77911e-05
5.43932e-05
-0.00914344
1.33582e-05
-1.90078e-05
3.69796e-05
0.000497375
0.0309825
-3.61074e-05
0.000230159
0.0016407
-4.33839e-05
4.10437e-05
-0.0396671
-0.0178778
8.36989e-07
-1.29533e-05
-2.6387e-05
-2.67045e-05
-7.96509e-06
0.00339747
-2.49194e-05
0.0459085
0.0984814
3.89873e-06
1.02212e-05
-0.00671535
-3.11113e-06
0.00134354
-0.17224
0.0117467
0.000151698
-1.60668e-05
4.38958e-06
-0.000733466
-1.70683e-05
0.0114709
-1.09196e-05
8.32817e-06
-2.10698e-06
-9.5829e-07
-3.97017e-05
-0.221669
6.02676e-06
0.0400272
-0.020017
-0.00414528
0.0043687
-6.02566e-06
2.01362e-05
-2.26274e-05
0.0120176
-1.17776e-05
-0.0639828
-0.00276001
7.10996e-06
-2.07683e-05
0.00237738
-9.49267e-06
-0.00540149
0.00256308
-3.78604e-05
-0.0155968
4.2658e-05
0.0270575
0.000309207
-1.33992e-05
-5.23909e-06
-0.00239658
0.000774928
-5.5415e-05
0.000109428
-4.57372e-06
0.000521236
-1.36587e-05
-0.084029
4.55266e-06
5.46539e-07
0.00358059
-1.85441e-06
-0.0131411
-6.6128e-06
-1.28429e-05
-7.03527e-06
0.0152551
-1.0979e-05
-8.94672e-06
0.231757
0.000356292
-0.025865
-2.9829e-05
-4.32909e-06
-0.00260161
-0.0822815
0.0867881
0.757467
6.39024e-05
-2.33621e-05
-6.99477e-06
-2.07401e-06
1.38158e-05
2.72068e-05
-1.12152e-05
-1.00017e-07
-0.00129743
8.84192e-06
-1.16289e-05
-9.94066e-07
-7.56714e-06
-7.88116e-06
3.71044e-05
0.00141404
-0.000277125
-0.0603249
-0.0035523
0.00349795
0.0247709
-6.68066e-06
-2.19933e-05
8.15818e-05
0.000401902
1.63906e-06
-4.60167e-05
-1.63487e-05
2.9216e-06
-2.8275e-05
-0.00156959
-2.58136e-05
0.00671672
-2.89307e-05
2.08842e-05
0.00381214
0.000210692
-5.02708e-06
1.50012e-05
-7.681e-06
0.0104996
-0.00266595
-4.30366e-06
-7.2684e-06
-3.44781e-05
-1.04555e-05
-1.47167e-05
-2.03492e-05
-0.011331
2.37704e-05
-1.13284e-05
0.0576572
-3.81686e-07
-0.00133979
3.67273e-05
-3.0966e-05
-1.34057e-05
-0.00190373
0.000665822
0.0647615
-0.137965
5.90476e-06
2.85484e-06
1.12426e-05
-6.75321e-05
-0.0128845
-2.99723e-06
0.35895
0.44756
0.00011913
0.0132899
0.0456182
5.43893e-06
-0.0269491
0.000135111
-0.417061
-0.000195611
-1.62202e-05
-1.18103e-05
2.43965e-05
-1.82524e-05
-0.0020856
0.159904
-8.39124e-05
-3.34651e-05
1.72304e-05
-1.12751e-05
-0.00120666
2.01664e-05
0.0189
-8.00928e-06
2.03447e-05
0.00236843
8.44884e-06
0.108615
0.00396749
-1.19148e-05
-1.69775e-05
-4.57408e-06
-3.0358e-05
-0.0285192
-0.00380198
-1.21932e-05
-2.56885e-05
-8.82459e-06
-0.00418463
-8.77433e-07
-5.97872e-05
0.0964325
0.00248392
0.0208198
0.00124542
0.00159282
-2.53795e-05
5.00335e-05
-1.86944e-05
-2.60612e-05
-2.62423e-05
-0.0712839
2.5106e-06
-2.88279e-05
0.0010468
-6.34484e-05
-8.1967e-05
-0.0169048
-2.07274e-05
-2.48564e-06
-0.0112862
-0.00927706
9.43577e-06
-8.13984e-06
0.000634795
-0.171161
0.004884
-0.0975996
0.00289186
0.00430321
1.40833e-05
0.00971827
0.000590004
-0.00102322
-0.0682687
0.00164658
0.0189495
-0.0666493
-0.0802106
-4.48541e-06
-1.8707e-05
-9.07726e-06
-5.90677e-05
-0.0049137
-3.02097e-05
0.000537259
3.36271e-06
5.9025e-05
-6.7457e-05
-0.293426
-3.41124e-05
0.0160498
-8.35667e-05
0.00294293
0.008171
0.00383578
0.0309919
-2.92076e-06
0.000484717
-3.57933e-05
0.0153107
-6.6445e-05
0.00093003
-0.0258049
0.00612592
-0.363
-1.4438e-05
-0.0145599
1.94217e-05
0.00381215
8.08138e-06
-0.0717832
-5.48245e-05
6.93776e-07
-3.21904e-05
-0.0140286
-3.06385e-06
-0.0405074
-0.2693
1.61369e-05
-0.248801
-3.73863e-05
1.16023e-05
-0.133388
0.00476255
-0.0125944
0.119333
2.02309e-05
-0.00383642
-0.236128
0.000638279
-1.75335e-05
0.0395571
-0.0146482
-1.70459e-05
4.14314e-05
-4.15801e-06
0.0913318
0.167047
0.00655121
0.00532956
-1.60359e-05
-2.24258e-05
2.05851e-05
-7.65579e-06
-0.0016438
3.92348e-05
3.55403e-05
1.42725e-05
0.110264
3.26069e-06
3.03153e-05
0.00349888
0.063924
-0.0388994
-4.90971e-05
-0.00173717
0.000999912
0.568815
-1.31683e-05
-0.0394773
-4.46852e-05
-0.000290886
-0.00504281
3.30664e-05
-0.2482
1.37035e-05
-1.894e-05
-1.29445e-05
-1.12642e-05
-5.71266e-06
1.58188e-06
-5.88929e-06
0.000533192
3.44604e-05
-2.07162e-05
0.104023
-4.97708e-06
4.03864e-05
-1.82538e-05
0.155547
-5.54087e-05
0.000149133
-0.0731841
-0.269205
-3.17484e-05
-4.03173e-06
0.194283
-4.98676e-05
-0.0143162
-0.0142058
4.65793e-05
2.06377e-05
0.000377685
-0.0231749
-0.132571
-1.42187e-05
-2.16955e-05
2.02151e-05
0.000478391
-2.42381e-05
-0.222214
-0.142375
-0.000687245
1.4276e-05
-4.46954e-05
8.57278e-05
0.0171967
0.114511
-6.15108e-06
0.203389
0.029348
3.98716e-05
-1.51537e-05
1.49159e-05
5.51249e-06
-2.51854e-05
-2.31412e-05
-3.18426e-05
5.29174e-05
-0.0878948
-0.000111865
-6.69986e-05
-5.14938e-05
-6.53074e-05
-1.33598e-05
-1.07894e-05
0.00352037
-9.02058e-05
0.000885139
-8.74547e-06
3.64672e-05
-6.86794e-06
6.43442e-06
0.0288793
-2.28485e-05
2.4107e-05
0.0561531
0.0715063
-0.00442058
-1.54074e-05
0.561793