/*--------------------------------*- C++ -*----------------------------------*\
| =========                 |                                                 |
| \\      /  F ield         | OpenFOAM: The Open Source CFD Toolbox           |
|  \\    /   O peration     | Version:  v2012                                 |
|   \\  /    A nd           | Website:  www.openfoam.com                      |
|    \\/     M anipulation  |                                                 |
\*---------------------------------------------------------------------------*/
FoamFile
{
    version     2.0;
    format      ascii;
    class       volVectorField;
    location    "1000";
    object      ddtCorrDdt0(U);
}
// * * * * * * * * * * * * * * * * * * * * * * * * * * * * * * * * * * * * * //

dimensions      [0 1 -2 0 0 0 0];


internalField   nonuniform List<vector> 
9793
(
(0.0435008 0.00153759 1.96714e-18)
(0.0271049 -0.0126271 -1.79866e-19)
(0.0443333 -0.00176725 -2.28162e-18)
(0.000106612 -5.00447e-06 2.22808e-21)
(0.0248241 0.108941 4.33316e-18)
(-0.00670467 -0.00206233 2.22538e-19)
(2.39571e-05 -1.95355e-05 1.3074e-19)
(0.000158375 -0.000466779 -2.53641e-19)
(0.000377085 0.000958121 6.88446e-20)
(0.115908 0.0264727 -7.73807e-19)
(-0.00510494 0.0312246 7.41344e-18)
(-0.0457481 -0.022128 -1.85156e-19)
(0.000105365 -4.70518e-06 -7.69478e-20)
(0.00187654 0.00029217 1.12923e-19)
(-4.52774e-06 2.32253e-07 6.20681e-19)
(0.00166948 -0.000233892 -9.01346e-19)
(0.00517952 0.00203274 6.67715e-19)
(0.00616612 0.00211739 4.63834e-19)
(0.0578237 -0.029738 -3.16415e-19)
(0.00196348 -7.26864e-05 6.54529e-19)
(0.004778 -0.0624945 -1.47352e-18)
(0.00603775 -0.002193 -1.47456e-19)
(-0.0307455 -0.0251759 1.14865e-19)
(0.000437896 -0.000811679 2.97186e-22)
(0.00517865 0.00290947 2.17611e-19)
(0.000108432 1.0955e-06 2.79672e-20)
(0.0017972 -0.00119627 -1.32046e-19)
(0.00205908 0.00270918 1.80136e-19)
(0.0147565 0.0221305 -3.65843e-18)
(0.000412145 0.000911072 1.76922e-20)
(-0.0281421 0.00331214 1.45239e-19)
(-0.0278157 -0.021477 -1.37549e-18)
(-0.0174232 0.146694 1.86845e-18)
(3.52291e-05 -1.20185e-05 -1.0596e-18)
(0.0192477 0.0226774 6.38125e-18)
(0.0495573 -0.074028 -2.53655e-18)
(2.62346e-05 -1.35768e-05 -5.51986e-20)
(0.00577695 -0.00275376 -1.51944e-18)
(0.000304155 -0.000994926 -5.44151e-19)
(0.000131981 2.36359e-05 1.31646e-19)
(-0.0265616 0.00596068 -1.81905e-19)
(1.2333e-06 2.131e-06 -4.09737e-19)
(0.00011495 3.93408e-06 -5.22566e-19)
(5.61558e-06 -1.81305e-05 1.35838e-19)
(0.00011934 -6.85585e-07 5.85998e-19)
(0.00011044 -1.88754e-06 -2.81143e-20)
(0.0162449 0.0237403 -2.32597e-18)
(-0.0179372 0.0365149 4.61749e-19)
(-0.0472085 0.093334 -2.50374e-19)
(0.000105318 -7.60205e-07 6.10993e-20)
(0.020989 0.0240009 6.95147e-19)
(-7.55021e-05 0.0349447 -9.40708e-18)
(-0.00580007 -0.00462358 8.3077e-19)
(0.00141564 0.000703475 -3.27298e-19)
(0.0472448 0.0628681 3.94714e-18)
(-0.096368 -0.0985241 -1.51235e-19)
(0.000122646 0.000256464 -1.35415e-19)
(-0.0280654 0.0377454 1.16038e-18)
(-0.0495115 0.226466 1.18662e-18)
(0.000220505 -0.000903613 -5.96148e-19)
(0.000131071 3.71224e-06 1.13439e-21)
(-0.00354718 -0.00598452 -5.55311e-20)
(-0.097173 0.155817 -7.23911e-18)
(0.000152935 1.52601e-07 1.27382e-19)
(-0.275393 0.361131 -6.28414e-18)
(-0.0279449 0.105124 -2.26303e-18)
(-0.098279 0.169514 6.27488e-18)
(-0.0917945 0.158218 -6.20303e-18)
(-0.0528757 -0.0162349 3.03775e-19)
(-0.00290495 0.0301037 -5.54779e-18)
(0.0487287 0.0583762 2.51028e-18)
(1.56389e-05 -3.17342e-05 -1.30716e-20)
(-0.000366072 -5.11913e-05 7.16401e-20)
(0.0319723 -0.0126562 3.5979e-20)
(0.0245394 0.0243195 -1.5097e-18)
(-0.0552437 0.246262 -1.27119e-18)
(0.000161432 0.000296521 -6.75213e-19)
(0.00345864 -0.0027729 8.16121e-20)
(-0.00423572 0.00504316 -4.56714e-19)
(0.00110535 0.00391226 -1.58153e-20)
(-0.0375214 0.0903591 1.22995e-19)
(-0.00589655 0.00243649 9.49584e-19)
(0.011046 -0.0180762 -2.47292e-19)
(-0.0188294 0.0117208 6.09724e-20)
(-0.0226245 0.00398573 -7.36676e-19)
(-0.0205319 0.0261137 -1.72089e-19)
(0.00156825 0.00450211 -1.34497e-18)
(0.000232492 0.000332567 8.61236e-19)
(-0.00300241 -0.00459306 8.91816e-20)
(-0.00709287 -6.79351e-05 4.74245e-19)
(0.0271725 -0.00920744 -1.67544e-19)
(-0.148464 0.211616 2.14568e-18)
(-0.000636823 -0.00109863 -5.80155e-19)
(-0.0300728 -0.0146147 7.1665e-19)
(-0.00296523 -0.00540031 2.12182e-19)
(-0.0193658 0.00841292 7.13114e-20)
(-0.062707 -0.105224 6.10072e-19)
(0.0163015 -0.0136107 2.33623e-19)
(-0.00047566 -0.000986694 -6.24279e-19)
(-0.000534183 -0.000188217 -3.67553e-19)
(-0.00050129 -0.000118322 2.32325e-20)
(-0.00453482 -0.00347064 -3.73782e-19)
(0.000839123 -0.000272682 -2.32228e-19)
(0.000763602 -0.000181427 1.02372e-18)
(0.00338213 -0.00221436 -7.21002e-20)
(-0.020683 0.00556416 9.33141e-19)
(-0.00242845 -0.00426241 -2.04861e-19)
(4.87125e-05 2.02313e-05 8.20609e-19)
(-0.00494396 -0.00416658 -1.93924e-19)
(0.00107633 0.0590214 -7.23002e-19)
(1.52814e-05 -2.37121e-05 1.84507e-20)
(-0.017167 -0.0543736 3.61754e-19)
(7.95211e-05 0.000176371 1.15084e-19)
(-0.0846377 -0.227211 -3.07118e-18)
(0.00271032 0.0353649 -8.5573e-18)
(0.000143462 0.000293954 4.10881e-19)
(0.00856729 0.145106 -4.81278e-18)
(0.0261062 0.0219272 -1.4942e-18)
(-0.00672541 0.00322625 -3.80413e-19)
(-0.0276082 -0.0114095 -5.95634e-20)
(-0.00389885 0.0600479 2.28548e-18)
(-1.90486e-05 -4.68506e-06 1.11669e-20)
(0.000387579 0.000143627 -1.42265e-19)
(-0.00773207 -0.00188356 1.39405e-19)
(0.00241824 0.00143652 -1.45547e-18)
(0.00298174 -0.0609295 1.88519e-18)
(-0.0101055 0.0145773 -1.12977e-17)
(-0.0225942 0.0214551 4.42999e-21)
(-0.00472464 0.0062077 2.69249e-19)
(-2.07628e-05 -0.000189539 -2.03736e-22)
(3.5273e-05 -1.24428e-05 -2.1329e-20)
(0.000206284 0.000330033 -6.64326e-19)
(-4.7673e-05 -0.000205834 -5.66407e-20)
(-0.00159105 -0.00552531 -1.98697e-19)
(0.000361784 0.000815154 4.85894e-19)
(0.000308415 0.000357185 6.92242e-19)
(0.000150896 -9.19117e-07 -5.07424e-20)
(-6.08633e-06 -1.73967e-05 1.46832e-20)
(8.55497e-05 0.000165292 7.38036e-19)
(-8.64011e-05 2.78289e-05 -9.56425e-19)
(0.00035815 0.00012345 -5.66277e-19)
(0.00523782 0.00164001 4.03856e-20)
(0.000122612 -7.94265e-06 4.93862e-21)
(-0.000511654 0.000318415 2.22941e-19)
(0.00215557 0.000569814 -3.53073e-19)
(0.00308664 0.000897168 2.26952e-19)
(0.0352337 -0.0124639 -2.75283e-19)
(-0.000588012 0.00024109 2.16859e-19)
(-3.19439e-05 -0.000943185 3.05198e-19)
(-0.224822 0.241448 5.66303e-18)
(0.0711989 -0.0474929 2.20951e-19)
(4.13145e-05 -8.60431e-06 1.50381e-19)
(0.0785487 -0.04688 2.91959e-18)
(0.137395 -0.0120359 3.49028e-18)
(4.06294e-05 -0.000821334 -2.52095e-19)
(1.43622e-06 -7.78816e-06 -7.91698e-20)
(-3.86441e-05 2.46798e-05 1.92307e-19)
(0.0048267 0.00120471 -3.17035e-19)
(-0.000536521 7.75463e-05 7.93724e-20)
(0.00011687 -9.66416e-06 -8.92147e-20)
(0.000139366 -0.000545399 7.10432e-19)
(0.00240229 0.00239404 8.51427e-19)
(0.000750397 -0.00109182 -1.0724e-18)
(0.0565388 -0.0349177 -3.13449e-19)
(0.0365767 -0.0124628 -2.65294e-19)
(0.0205742 -0.0650328 1.26096e-18)
(-0.02163 0.0314261 -2.59701e-19)
(0.0108018 0.004478 3.53158e-18)
(0.00141821 -0.00119347 -1.53796e-19)
(-0.00295119 -0.00235662 -1.05733e-18)
(-0.000266883 0.00163824 2.1973e-19)
(-0.0222912 -0.163887 -3.42569e-18)
(0.0386896 -0.011382 1.4764e-20)
(-0.0170274 -0.195528 6.89635e-18)
(0.00201212 0.0015045 2.49681e-19)
(0.0568603 -0.0303127 1.33951e-19)
(0.0002708 0.000366354 -1.52004e-18)
(0.000534462 -0.000429402 -8.56356e-20)
(-0.000178767 -0.00028003 2.72762e-21)
(0.00458056 0.0115403 6.45745e-18)
(-0.111771 -0.0453977 -5.10476e-18)
(0.00052791 0.00327568 -2.69736e-18)
(-0.000593904 -4.08098e-06 -1.19791e-19)
(0.00485272 0.00232999 5.437e-19)
(-0.0267674 0.290981 4.24042e-19)
(-0.00030491 -2.22952e-05 -1.09582e-19)
(-0.0317482 0.0406863 -3.75504e-18)
(-0.000203417 -0.000255361 -5.87087e-20)
(0.000386311 3.75301e-05 9.24113e-20)
(0.00092301 -0.000872998 4.80513e-19)
(0.00189005 0.00164748 2.66936e-18)
(8.4387e-05 7.98123e-05 -4.15729e-20)
(-0.0242965 0.0910111 -1.11765e-18)
(-0.00876031 -0.057965 8.27854e-19)
(-0.102233 0.153383 5.59337e-18)
(0.00422826 0.0109428 -1.35724e-19)
(0.0547457 -0.0072933 -1.5453e-18)
(-0.00348307 -0.00050667 5.46964e-19)
(0.138894 -0.0304906 1.06894e-18)
(-8.08496e-05 2.65165e-05 1.38775e-18)
(0.000384389 0.000769093 3.81441e-19)
(0.0541078 -0.0433481 -1.51746e-18)
(-0.107926 -0.12739 7.90709e-20)
(3.65853e-05 -0.000167005 -8.22085e-20)
(0.000354237 0.000391133 2.15491e-21)
(0.00262715 -0.00215825 1.10719e-19)
(0.0338076 -0.0684707 1.52041e-18)
(0.000643987 0.000603025 2.78396e-19)
(-0.0174954 0.00379593 3.96818e-19)
(0.00338023 0.00287001 1.1566e-18)
(0.00986174 0.0132588 -1.07204e-19)
(0.00907156 0.0679085 1.38057e-18)
(-0.0807281 0.104455 -1.16434e-18)
(0.00147961 0.000810766 -1.56242e-19)
(0.0577217 -0.00953282 1.68871e-18)
(-3.10845e-05 2.64399e-05 1.64945e-19)
(-0.00207647 -0.00350273 -4.22136e-20)
(-0.0268239 0.281454 1.43839e-17)
(0.00252689 -0.00173524 -1.09492e-19)
(-0.0437913 -0.0029717 1.77739e-18)
(0.0368396 0.0176096 -6.73379e-19)
(0.00033167 0.000251388 -4.49134e-19)
(0.00227903 0.0016188 -7.33055e-20)
(7.49749e-05 6.68117e-05 3.07053e-20)
(-0.0213543 0.0140324 -7.10041e-20)
(0.0560325 -0.036305 1.57078e-19)
(-0.00630679 -0.00292493 -8.79282e-19)
(0.000230595 -0.00068892 4.82818e-19)
(0.0352304 0.020654 1.69384e-18)
(0.000639113 0.0268851 -8.26176e-19)
(0.000684829 -0.000840847 4.65774e-20)
(0.000529341 -0.000632945 -3.30002e-20)
(0.000379576 0.00344601 2.23602e-18)
(-6.7485e-05 2.59996e-05 5.49969e-20)
(-0.00944904 0.0200491 -8.00465e-18)
(-0.0618435 0.0187765 -3.70697e-18)
(0.000104171 0.000159917 -1.74569e-19)
(1.08739e-05 0.00114781 6.57498e-19)
(-0.054135 -0.0826929 1.59418e-18)
(-0.00500679 -0.00138777 9.01269e-19)
(-0.0158311 0.00503084 -1.30482e-18)
(0.00154519 0.000864834 -1.70476e-18)
(0.000475939 0.00105727 6.39519e-20)
(-0.024447 0.127285 -1.69486e-18)
(6.28254e-05 0.000864543 5.37361e-19)
(-0.000199603 -0.000922197 3.60006e-19)
(0.000106144 -0.000429998 1.60383e-19)
(0.00499767 0.000498642 -8.33476e-20)
(-0.000311298 -0.00104688 -3.60402e-19)
(4.29336e-05 -1.60007e-05 7.74978e-19)
(0.00181215 -0.00112513 -2.27903e-19)
(0.00476516 0.00612932 -1.73004e-18)
(0.00461368 0.0329482 3.55417e-18)
(-0.00998614 0.0172138 1.16739e-18)
(0.000459174 0.000688471 -1.24499e-19)
(0.00602102 -0.00545919 -1.95171e-21)
(-0.000522361 0.00121705 -4.61382e-19)
(0.00524368 0.00652955 2.39369e-18)
(-0.0071353 0.00313511 3.58298e-19)
(0.000329789 0.00057241 1.57647e-19)
(-0.0211523 0.115206 -3.39708e-19)
(-4.19258e-05 0.000958067 -3.30074e-19)
(0.00782256 0.0330117 -3.27455e-18)
(-7.97128e-05 -6.88284e-06 1.07144e-19)
(0.0112487 0.00529588 -2.45149e-18)
(0.00140709 -0.00138298 1.84375e-20)
(0.00139221 -0.0011403 -2.21953e-20)
(0.0110628 0.0126411 4.31135e-20)
(0.0540247 -0.0487361 1.37188e-18)
(-0.00237713 -0.00342119 1.03707e-19)
(0.000209522 0.000629091 -8.36545e-19)
(0.000189492 -0.000352813 1.1128e-20)
(0.012356 -0.0041824 -9.45393e-19)
(0.000314777 0.000288419 -5.58082e-19)
(0.035347 -0.00935894 3.33663e-20)
(0.0365297 -0.0104087 2.46252e-20)
(1.35546e-05 -0.000189531 9.77801e-21)
(0.0002357 -0.0685148 -4.36618e-18)
(8.77956e-05 2.97613e-05 1.05939e-19)
(-0.0109297 0.0158091 2.83943e-19)
(0.00455371 0.000144843 3.6292e-20)
(0.00103263 -0.000822005 -2.75601e-20)
(1.42258e-05 9.72195e-06 8.21932e-19)
(0.000139601 1.98922e-05 -1.34796e-19)
(-0.0104465 0.0132893 4.71723e-18)
(0.00034302 0.000240166 -1.7871e-19)
(0.00166888 -0.00129877 3.17197e-20)
(0.00892502 0.00599838 -3.88245e-19)
(5.07384e-05 -3.5862e-05 1.68299e-19)
(0.000388549 0.000380181 8.18924e-19)
(0.000105658 0.000169852 1.42974e-19)
(-0.000950198 0.146278 -1.60393e-18)
(-0.00403876 -0.00307509 3.93682e-19)
(1.90788e-05 -1.06605e-05 -4.4565e-20)
(4.78099e-05 -5.31872e-06 1.35376e-19)
(-0.00242284 -0.00542127 3.88253e-20)
(0.00329421 0.00100665 -8.28242e-19)
(0.00952304 0.00629969 -1.77993e-18)
(0.000139444 3.1205e-05 -3.58925e-20)
(0.108038 0.0283611 -6.99007e-18)
(0.000194901 -0.000804409 -6.11263e-19)
(-0.0342379 -0.0104 3.40155e-18)
(0.0160772 0.16911 -1.42466e-17)
(4.97035e-05 1.23026e-05 -4.48605e-19)
(-3.39619e-05 7.41523e-07 -3.20657e-19)
(-0.000226941 0.000564837 6.05065e-19)
(0.0133369 -0.00467508 -5.21195e-19)
(0.00910655 0.00158146 5.5108e-19)
(0.00410431 -0.000693101 7.03352e-19)
(-0.0334025 -0.00828798 -2.79647e-18)
(7.18434e-05 1.60698e-05 2.1828e-20)
(-0.00012101 0.000550482 -2.00795e-20)
(0.00954802 0.00115139 6.28129e-19)
(0.00138316 -0.00234735 4.22046e-20)
(0.00131698 -0.000337664 -4.95138e-22)
(-0.00607549 -0.000335943 -3.37115e-19)
(-0.0203874 0.0179626 1.33813e-20)
(0.00156338 0.000917114 3.22253e-19)
(0.0114084 -0.00234519 -7.449e-19)
(0.00333963 0.00320918 1.61146e-18)
(0.00103198 0.000496532 -1.65024e-19)
(0.0348003 -0.0134582 2.01716e-19)
(0.0567983 -0.0210999 8.24365e-19)
(0.0285588 -0.0143647 -1.65373e-19)
(0.00201087 -0.00154957 -7.97015e-20)
(-0.126745 -0.0325484 7.07927e-18)
(0.00379172 0.00065658 -2.5953e-18)
(-0.0488048 0.173511 -5.27317e-19)
(0.0295038 0.022843 6.12247e-18)
(0.000280079 -0.000752613 -2.6232e-20)
(-0.00102718 0.00461219 -8.81469e-19)
(0.0310762 0.0203986 1.80269e-18)
(-0.00377384 -0.0031781 -2.86181e-19)
(-0.0135667 0.00353567 -1.45062e-18)
(-0.00484334 0.0364222 -5.14236e-18)
(1.6144e-06 -0.000396209 -3.07993e-19)
(0.000117841 3.31347e-06 6.29988e-19)
(0.000353657 0.000714036 -4.10458e-20)
(-2.28631e-05 -2.60892e-05 -7.90238e-20)
(0.00199337 0.00319194 -1.82307e-19)
(0.0514586 -0.000798439 1.81414e-19)
(-0.000273731 -0.000260585 3.88726e-20)
(0.000886921 0.000464848 3.09875e-19)
(0.113027 0.0251134 2.65178e-18)
(-0.00467944 -0.00207446 -4.36689e-19)
(0.00162513 -0.0005386 -3.10602e-19)
(0.00173343 -0.0016476 7.07318e-20)
(0.00434108 -0.00122836 -8.59496e-19)
(2.94494e-05 -0.000448689 6.68471e-19)
(0.0553706 -0.00231319 -1.98513e-18)
(0.00285434 0.00128491 -1.88423e-18)
(0.000613063 0.000133992 -1.23113e-19)
(0.00091879 -0.00179889 -1.44822e-19)
(-0.00505807 -0.00284451 -4.91009e-19)
(-0.0659332 -0.0625435 -2.55334e-18)
(0.0012571 0.000691684 1.38021e-18)
(0.00280359 -0.0216653 -7.51043e-19)
(0.000609578 -0.000534727 1.02521e-19)
(0.0057881 0.0201863 -1.31638e-18)
(0.0655168 0.0591351 -2.42027e-18)
(-0.0290544 0.0453109 -3.45361e-18)
(0.00602647 0.0211484 1.13351e-18)
(0.00397446 -0.00140521 3.85992e-19)
(-0.00167896 -0.00726853 1.91263e-18)
(0.0580309 -0.0142412 -1.52646e-18)
(0.000126815 5.84347e-06 -2.83759e-19)
(-0.027679 0.101646 3.48885e-18)
(-0.00533053 0.00021771 9.56758e-19)
(-6.3741e-05 2.53607e-05 -3.40481e-19)
(0.0216421 0.155522 1.2409e-17)
(-0.0122046 0.00435282 2.19912e-18)
(0.0588075 -0.0227102 -1.00245e-18)
(0.000605571 0.000156271 1.42441e-19)
(-0.0101152 0.0215912 2.44564e-17)
(0.0586552 -0.0631836 4.68164e-18)
(0.00210531 0.00864621 -2.09e-19)
(-0.00019672 -2.69417e-05 -2.10869e-19)
(-0.00501658 0.154082 8.89512e-19)
(0.00172358 0.00915612 -2.3539e-19)
(0.0345655 -0.0122464 4.94665e-19)
(0.00647076 -0.00476003 -2.73391e-19)
(0.00104234 0.000738404 -8.92384e-19)
(0.00776619 0.132378 -2.41e-18)
(0.000140909 2.24911e-05 4.94071e-20)
(0.00427889 0.000187193 -1.62579e-18)
(-7.62526e-05 -7.71362e-07 2.57513e-19)
(0.00011885 1.74581e-05 1.77427e-19)
(0.00195697 -0.000824239 -8.36972e-19)
(0.00117692 0.000783175 6.57211e-19)
(0.00594443 -0.00399918 6.2466e-19)
(-0.0569825 -0.0760946 -3.18199e-18)
(0.00153966 0.00140035 -6.56018e-19)
(-0.126701 0.0565334 4.65222e-18)
(-0.0391665 -0.00193127 -8.26204e-20)
(0.0562357 -0.0167344 -1.40539e-18)
(-0.00142526 0.0262051 1.42046e-18)
(0.0218003 -0.0151377 -4.19398e-19)
(0.000137123 -1.44036e-05 -4.17898e-19)
(0.000315854 0.000673287 2.68674e-19)
(0.0755916 0.0139539 -1.70998e-18)
(-0.0407416 0.00272971 -1.60023e-19)
(0.00134406 0.00111067 -2.56097e-19)
(0.000398853 0.00188773 1.86571e-18)
(0.125213 -0.0341542 -1.50639e-19)
(0.000108313 -0.000414912 -9.48268e-19)
(-0.0431574 -0.24677 1.39096e-18)
(-0.000117077 0.00125423 -1.53513e-18)
(0.00627313 -0.00337682 1.80577e-18)
(2.43579e-05 -0.00037267 6.10984e-19)
(0.013732 0.0127761 1.80126e-18)
(-0.000287615 -0.000225233 1.25652e-20)
(0.00191947 0.00984333 -3.4982e-18)
(0.010464 -0.0679943 5.39557e-19)
(0.000513007 0.000705768 -6.00691e-19)
(-0.029132 -0.0337608 9.37549e-20)
(0.0106399 -0.00470117 5.02014e-19)
(0.0031693 0.00130864 3.21097e-18)
(0.0111565 -0.00330775 4.5734e-20)
(-0.00464389 -9.48319e-05 -1.146e-18)
(-0.00216633 -0.00382237 -2.52917e-20)
(0.00280013 0.00141804 1.01784e-19)
(0.0431441 -0.0360614 -1.49558e-18)
(8.7735e-05 3.17065e-05 -3.35004e-19)
(0.00141026 -0.000404009 -1.03317e-18)
(-0.00222451 0.0372013 -1.13169e-18)
(0.000845566 0.000758007 1.02877e-18)
(-0.00671934 0.00423643 -1.65011e-19)
(0.00367791 0.000997913 1.27125e-18)
(0.000513498 -0.00103036 1.03169e-18)
(0.00555072 0.0121895 -2.7627e-18)
(0.0001144 -1.98643e-05 2.15808e-19)
(0.00136581 -0.000594172 -4.94121e-19)
(-0.000249069 -0.000286657 1.87382e-19)
(0.00116471 -0.0749734 -5.1172e-20)
(0.00270367 0.000503845 2.25325e-19)
(0.00841048 -0.0759589 -2.59648e-20)
(-0.002567 -0.00272017 -2.19557e-19)
(0.0436621 0.0536308 -2.39937e-19)
(0.000126615 -2.46117e-07 -4.02363e-19)
(-0.00356734 -0.0025258 -2.49615e-19)
(-1.99188e-05 -6.65637e-06 4.51531e-19)
(0.00159803 0.00127735 -9.98892e-19)
(-0.048433 0.270021 -9.73491e-19)
(-0.00353709 3.18014e-05 -8.10381e-19)
(0.0657401 0.0538072 -5.68992e-19)
(0.00120021 -0.000875934 -4.20307e-19)
(-0.000238035 0.00184087 2.03166e-19)
(0.00419875 0.000605162 2.94481e-18)
(0.114514 -0.0738147 6.4689e-18)
(-0.0314215 0.00340467 2.90749e-18)
(0.0549305 0.0740688 7.06355e-18)
(0.0288214 0.0557715 -4.32217e-19)
(-0.00659194 -0.00387451 7.62092e-19)
(0.000185309 8.88523e-05 -2.65068e-20)
(0.00305974 -0.0278542 4.67603e-19)
(0.00647175 0.011712 -1.94843e-18)
(0.0134408 0.0112375 6.23382e-19)
(0.022296 -0.0160519 -3.18506e-20)
(0.0479327 -0.0147252 -6.41804e-19)
(7.31611e-05 1.60769e-05 3.94654e-19)
(0.00879917 -0.00287757 -9.65921e-19)
(-0.00856345 0.0231178 6.35488e-20)
(0.000428948 0.000136916 2.31515e-19)
(-0.00707741 0.00101321 8.33872e-19)
(0.000390927 7.71988e-05 -3.30358e-19)
(0.000763625 -0.000406292 -9.63304e-19)
(0.00011439 2.37774e-06 9.30706e-21)
(-0.115929 -0.131588 2.56027e-18)
(0.00279804 0.00998866 9.80302e-18)
(-0.00917805 0.2366 3.19227e-18)
(0.000822752 -0.000536485 1.77107e-19)
(0.0132138 -0.00634777 6.34427e-20)
(0.000428422 -0.000422388 -1.56342e-20)
(2.41878e-05 -1.6377e-05 -3.52831e-19)
(2.29109e-05 1.08756e-05 -4.09958e-19)
(-0.00613702 0.00149471 -8.30495e-19)
(0.000706239 -0.0278326 -1.54907e-18)
(-0.00259722 -0.00327625 3.96108e-19)
(0.00789097 -0.00215945 6.66573e-19)
(-0.000209632 -0.000536787 -5.58271e-19)
(0.000155209 -2.85156e-08 -2.39443e-20)
(-0.00671741 0.00642288 -6.06564e-19)
(-0.00879583 0.053334 -1.36027e-18)
(6.24138e-05 -3.38287e-05 2.6989e-19)
(0.00017313 8.1407e-05 -1.34707e-19)
(0.0107932 0.185887 -2.38415e-18)
(-0.0104526 0.00316424 -5.53669e-19)
(0.00272002 0.00150706 2.2337e-18)
(-0.0917402 0.155085 -7.9241e-19)
(0.02251 0.0726098 1.83606e-18)
(-8.10874e-05 1.84066e-06 -3.41733e-19)
(-6.79533e-05 -5.64789e-06 -3.67024e-19)
(0.00470398 6.32217e-05 1.37115e-18)
(-0.00753734 0.00534736 -1.40951e-18)
(0.00145635 -0.000662921 -4.66738e-19)
(0.000129839 -4.42104e-06 -1.56727e-19)
(0.000143284 7.93443e-06 -7.95248e-20)
(-0.00383161 -0.000869348 -6.46863e-19)
(-0.000559498 0.0014322 -1.80661e-19)
(0.000414681 0.000787956 3.82492e-19)
(0.0314409 -0.0148919 2.43613e-20)
(0.00945701 0.0360039 -6.68046e-18)
(-5.37795e-05 2.07228e-05 -4.60281e-19)
(-0.0366943 0.290596 -1.05197e-17)
(0.0205941 -0.00252687 -7.18712e-19)
(-0.000527507 -0.000605999 -5.95952e-19)
(-0.00351603 -0.0035308 2.60688e-19)
(-0.00496392 0.00428724 -8.2196e-19)
(-0.0237094 -0.0455488 -9.43964e-19)
(0.00457533 -0.000478794 -1.07337e-19)
(-0.0568115 0.0114786 -1.23468e-19)
(0.000447169 -0.0007963 -3.02375e-19)
(0.000299671 0.00105778 -7.36448e-19)
(0.00132686 0.0296428 -3.1887e-18)
(0.000352223 2.93733e-05 -7.75668e-19)
(0.00139553 0.0169502 6.14117e-19)
(0.0252455 0.13089 -7.83158e-18)
(0.0124638 -0.00273692 1.64243e-18)
(-0.000577406 -0.000514147 1.9206e-19)
(-0.119477 0.0300126 8.32416e-18)
(-0.00936723 0.00374886 6.98327e-19)
(-3.20726e-05 0.000792621 1.17082e-18)
(0.00116953 0.0019901 -7.32429e-19)
(-0.0179501 0.0182913 -2.05077e-18)
(0.000978711 -0.000317541 1.54571e-19)
(3.83022e-05 0.000717658 -6.41923e-19)
(0.000127339 4.34945e-05 -1.0418e-19)
(0.000904674 -0.00027263 -4.68524e-19)
(-0.0197824 0.124164 -2.43487e-18)
(-0.0107067 0.0185554 2.22409e-18)
(0.0192514 -0.00259548 -8.76622e-19)
(-0.00479189 -0.00335926 3.57153e-19)
(0.00121025 0.0017197 5.39648e-19)
(0.00126708 0.000678759 7.22143e-19)
(0.000863625 0.000538383 2.53708e-18)
(6.13997e-05 -9.71186e-06 -9.67201e-20)
(0.000120628 3.3663e-05 -2.02279e-21)
(-0.0343514 -0.0363269 -4.27846e-18)
(-0.0302257 0.049227 5.62801e-18)
(0.000285645 -0.000371447 -6.78162e-19)
(0.00249024 -0.00809161 1.35325e-20)
(0.0823644 0.0176417 6.80773e-18)
(-0.000558735 -0.000977887 2.23254e-20)
(0.0112971 0.014726 3.01479e-20)
(0.00488953 -0.0227566 9.05687e-20)
(5.99157e-05 -1.39713e-05 -3.50627e-20)
(-0.00578384 0.0334001 3.17156e-18)
(-0.00597331 0.222338 -1.35045e-18)
(0.000339126 0.000278454 1.75728e-19)
(-0.0495606 0.0235692 5.36408e-18)
(0.00118108 -0.000699313 -4.12883e-20)
(-0.0864445 -0.186798 1.25812e-18)
(0.0078824 0.00614553 2.30354e-18)
(0.0544727 0.0177607 -4.18878e-18)
(-0.000247816 -5.30076e-05 1.62454e-19)
(0.000524716 0.00091839 -4.20333e-19)
(0.00464288 0.00282225 -4.33763e-19)
(0.0208548 -0.002879 -9.60688e-20)
(-0.00104762 -0.00787184 -1.79039e-18)
(-0.0851554 0.177945 -3.65762e-18)
(-0.0416313 0.0909364 3.62298e-20)
(-0.296752 0.334794 8.56231e-18)
(0.00162153 0.0179783 7.7366e-18)
(-0.0386075 0.0143454 2.92563e-20)
(0.0145369 0.0102203 2.10311e-18)
(-2.79721e-06 1.09177e-06 -1.22054e-18)
(-0.00132215 0.0134872 -2.31163e-18)
(0.00166624 -0.00762931 4.70454e-19)
(0.00475639 0.108166 1.08874e-18)
(0.00143192 0.000321689 -1.17114e-18)
(0.0612277 0.040885 1.642e-18)
(-0.000714457 -0.000122048 7.69192e-19)
(0.0269058 0.0180714 9.76861e-21)
(2.03371e-05 1.56791e-05 -4.00329e-19)
(4.36543e-05 0.00222593 3.36687e-18)
(0.00108816 0.000641373 -1.1705e-18)
(-0.051042 0.0334789 -3.06677e-17)
(-0.000592395 -0.00037565 3.41597e-20)
(-9.54198e-05 -1.93137e-06 -5.71871e-19)
(0.00140118 0.00338113 -3.55035e-18)
(0.00431939 0.00305591 5.47583e-19)
(0.00306794 0.0107095 -4.84515e-18)
(-0.000369144 -0.00011303 -1.42436e-19)
(0.000269334 1.14262e-05 -1.42939e-19)
(-0.000418061 -0.000874576 -2.55615e-20)
(-0.000430623 -0.00076217 -4.4221e-20)
(0.0575333 -0.0296108 -3.74241e-19)
(0.000103733 -1.04008e-05 -4.58463e-21)
(0.0441225 -0.0179612 2.38191e-18)
(0.0489785 -0.189623 3.49198e-18)
(0.000104056 -9.61863e-06 1.78918e-19)
(3.81649e-05 1.92866e-05 7.12926e-19)
(0.0142556 -0.00677758 4.94034e-20)
(0.00055247 0.00192714 -1.63216e-18)
(0.000355098 9.4944e-05 2.07709e-19)
(0.00157924 -0.0017798 1.478e-19)
(0.00091749 0.00888265 9.68595e-20)
(0.00741727 0.00675302 -2.03278e-18)
(-1.488e-05 0.00301009 6.0588e-18)
(0.00411758 0.00338893 1.26851e-18)
(3.69936e-05 0.00042604 5.20368e-19)
(-0.00613691 0.00428558 -1.23582e-19)
(0.00358121 -0.00112596 -1.44767e-19)
(0.00605249 0.00631117 1.16119e-18)
(0.00112302 -0.0022174 2.21159e-19)
(0.00477932 -0.00134614 1.25589e-18)
(0.0313215 0.00272924 5.89527e-19)
(0.000137051 -0.000745064 -2.71311e-19)
(0.0463773 -0.034318 1.75937e-18)
(0.000758513 0.00831778 -4.17735e-18)
(3.63321e-05 -1.95439e-05 -4.92251e-19)
(0.000292563 1.62533e-05 -4.4097e-19)
(-0.000311727 -0.000478685 -1.0555e-18)
(-0.00505147 -0.00667405 1.23616e-18)
(-0.00503016 -0.00787648 -4.42328e-19)
(0.000210574 0.000888931 2.35113e-19)
(-0.000809282 -0.00316268 1.97764e-18)
(0.00022855 -0.000476882 -6.47532e-21)
(0.00132852 0.000864702 -9.86303e-20)
(-0.00124699 -0.00311355 -1.91816e-18)
(0.000164291 1.01769e-05 1.01559e-19)
(0.00464189 -0.00600043 8.09372e-20)
(-0.000102496 4.4907e-05 3.25165e-19)
(0.000214067 0.00231856 -2.2056e-19)
(8.53213e-05 -8.61366e-06 -1.5368e-19)
(0.000955721 0.00080638 -7.34866e-19)
(0.00384564 -0.00582678 -5.47648e-20)
(-9.51981e-06 0.00316939 4.71766e-18)
(-0.00128095 0.0145682 1.40035e-17)
(-2.28471e-05 -2.76311e-07 4.14578e-19)
(0.000210619 0.000495798 1.00898e-20)
(0.000301416 4.52483e-05 -1.8573e-19)
(-0.00012768 0.000490263 -6.61622e-19)
(-0.00153395 0.000564771 4.40627e-19)
(-4.93263e-05 1.53239e-05 9.80238e-20)
(-0.00179648 0.000456724 -3.22956e-20)
(0.000834709 0.000358645 4.63215e-19)
(0.000210296 -0.000718763 -9.49489e-21)
(-0.000685359 -0.000309445 4.97261e-20)
(0.0112512 0.0159225 -2.24608e-18)
(0.00014224 -9.45393e-06 -6.0546e-19)
(-5.45186e-06 6.32864e-06 -1.9565e-19)
(0.000386604 0.000178491 -6.09941e-19)
(0.061623 0.0257856 -3.20223e-18)
(7.53004e-05 -3.32355e-05 1.12043e-20)
(-6.51406e-05 -0.000403881 5.91359e-20)
(-0.00761921 0.0284344 -4.16028e-18)
(0.00110831 -0.000517629 1.9754e-19)
(-0.00245539 0.0024472 1.31385e-19)
(-0.060939 0.0353314 5.32447e-18)
(0.00474985 0.00350099 -3.73412e-19)
(0.000140369 -3.82361e-06 -3.97511e-19)
(3.12549e-05 1.08235e-05 2.39089e-19)
(-0.0294352 0.0336701 -6.17355e-18)
(-0.000241754 -0.000501505 -2.0945e-19)
(-0.00909323 0.0250258 1.4255e-17)
(-0.270021 0.334236 -9.30933e-18)
(0.0174622 0.0776553 5.44662e-18)
(-0.0396588 0.0760021 -2.35796e-18)
(-0.00228448 0.00206825 -5.26091e-19)
(0.000435706 0.000195301 -4.39946e-19)
(0.0463083 -0.0263976 -1.3071e-18)
(0.00511414 -0.00253138 -6.16145e-19)
(-0.000213241 -0.000352269 -6.66584e-19)
(0.0268781 -0.0149446 1.86127e-19)
(0.0420312 0.065489 -3.01233e-18)
(0.0962978 0.0278161 -5.09845e-18)
(0.000325635 5.34785e-05 8.68996e-19)
(-0.0193597 0.0199891 -1.73386e-18)
(0.000425493 0.000205602 2.57956e-19)
(0.000373768 0.000165436 6.62888e-19)
(-0.113435 -0.222516 2.2169e-18)
(0.000165264 1.86474e-05 7.67218e-20)
(0.0230087 -0.0395959 -1.20129e-19)
(-0.00571825 0.000135371 -8.49877e-19)
(0.0125722 0.0354414 3.96424e-18)
(0.000249543 0.000434908 6.38077e-20)
(0.00678113 0.0021372 -8.50869e-19)
(0.00322996 -0.00125885 -2.70975e-19)
(-0.0532337 0.0265248 1.52138e-17)
(0.00191355 -0.0299716 -3.02687e-18)
(-5.29047e-05 0.00152762 5.34949e-19)
(-0.0050352 -0.000309405 1.21131e-18)
(-0.00275821 0.00905022 5.12527e-18)
(0.000719732 0.000337766 1.41367e-19)
(-0.00814806 0.00281238 -1.08516e-18)
(-0.00721298 0.0264448 4.83299e-18)
(-0.192367 0.0198931 2.53565e-18)
(-0.000188657 2.07584e-05 6.15925e-20)
(0.0147497 0.0118898 -8.87451e-21)
(0.00542553 -0.00191665 8.87434e-19)
(0.0352267 0.0437894 -4.20971e-18)
(0.01432 0.00880341 -9.53808e-20)
(0.0107511 0.1649 -2.04412e-18)
(0.042223 -0.0186198 -3.6861e-19)
(-0.000505324 0.00436586 6.41765e-19)
(-0.0160765 -0.00856188 2.7693e-18)
(-0.0266915 -0.00287259 -1.55926e-18)
(6.44419e-05 -3.33574e-05 -1.63477e-19)
(0.000160784 -5.68497e-06 1.04344e-20)
(7.84661e-05 9.66896e-06 -8.05133e-19)
(-0.00163481 0.00662843 -4.48508e-19)
(-0.000486034 -0.000305271 1.47632e-19)
(-0.115281 -0.0904268 -3.47856e-19)
(-0.000325273 -0.000269916 -9.48395e-19)
(0.0432701 -0.012129 1.29608e-20)
(-0.000703378 0.00442152 -9.96088e-20)
(-0.0271276 0.0147119 -6.12426e-21)
(-0.000701203 0.0315038 1.54201e-17)
(0.000892789 0.000615573 -1.46478e-18)
(0.0370793 0.0706294 4.14907e-18)
(0.0294727 -0.192847 2.82504e-18)
(0.00230552 0.00120839 -1.41165e-18)
(0.0278239 0.0571328 -2.38485e-18)
(-0.0143011 -0.00859792 -1.82376e-18)
(-0.0237178 0.0262548 1.47215e-18)
(-0.000399543 -0.000344029 -2.83543e-19)
(0.000968752 -0.000495017 1.25329e-19)
(0.00221763 0.135687 5.92127e-18)
(-0.00130263 -0.000618999 1.40045e-19)
(-0.00412468 -0.0245404 2.35657e-18)
(0.000120794 -1.76174e-05 -5.14215e-19)
(0.051725 -0.0166148 3.50775e-20)
(0.000903184 0.000595829 3.04284e-19)
(-0.0167883 0.0429866 2.08961e-20)
(0.00992587 0.12654 1.44747e-18)
(8.51818e-05 0.00449528 -2.17234e-19)
(-0.0976287 -0.0305556 4.30335e-18)
(8.33942e-05 2.39337e-05 -1.90418e-19)
(0.0012809 0.00362659 1.17536e-18)
(0.00412437 0.0188801 -1.33822e-18)
(-0.0726586 -0.367413 1.92745e-19)
(-0.0318939 -0.342023 3.01132e-18)
(-0.00155462 0.00129981 5.94857e-19)
(0.00106197 0.000613136 1.30162e-19)
(-8.82908e-05 -0.000517973 -2.11825e-19)
(0.0185396 0.118174 2.91453e-18)
(0.116812 0.00053485 8.24094e-18)
(0.00015282 3.60363e-06 7.22578e-20)
(-0.0100115 -0.00575475 -3.09168e-21)
(0.00855155 0.019501 -8.27172e-21)
(-0.000265473 -0.000448378 8.89664e-19)
(6.6001e-05 7.66037e-05 -2.24183e-20)
(-0.00124626 -0.00617621 -1.50098e-19)
(0.0257145 -0.0349738 9.64816e-20)
(0.00531176 0.0120034 -5.77608e-19)
(-0.00165913 -0.000820846 3.93749e-20)
(-3.51629e-05 -2.77797e-05 -3.53041e-19)
(0.000131515 -0.000755177 -8.56799e-19)
(-0.0422971 0.0687375 2.90988e-18)
(0.0836379 0.0253751 -1.13191e-18)
(0.0150317 -0.00922319 -2.43823e-18)
(-0.000106079 0.000583305 3.84074e-19)
(0.000116002 4.62165e-06 1.11072e-19)
(0.0623292 0.0167457 3.79092e-20)
(0.000163215 3.38464e-06 2.45996e-20)
(0.0306209 0.0890959 5.2262e-18)
(0.012614 0.0223501 -3.16406e-18)
(0.0386028 -0.0125175 7.39733e-19)
(0.00757686 0.064125 3.2245e-19)
(0.0488892 -0.0175764 -9.18367e-20)
(0.000628329 -0.000255681 7.89013e-19)
(0.000826333 0.00067259 -2.99526e-18)
(0.00274023 0.00557484 1.9295e-18)
(0.00131638 0.00291874 -5.13101e-18)
(0.00653168 0.00667724 -6.03342e-18)
(0.000156639 2.87607e-05 3.45523e-20)
(-0.0183657 0.0219612 -8.91659e-18)
(0.0477263 -0.0309467 1.34029e-18)
(0.000820333 0.000161949 -6.88328e-19)
(0.0163559 -0.215983 4.32276e-18)
(6.74607e-05 -0.000713649 1.51267e-18)
(0.00405154 -0.0929914 -1.28424e-20)
(0.000614065 0.00126705 6.22757e-19)
(0.022679 0.0659698 -7.82386e-19)
(0.0043677 -0.00870191 8.85437e-20)
(0.00169442 0.0122962 6.78976e-19)
(-0.000323851 0.000169775 7.35771e-20)
(-0.00262601 0.00440913 -9.51355e-19)
(0.0121671 0.000935547 1.05279e-19)
(0.0290526 -0.0304438 -1.10112e-18)
(-0.029134 0.00841179 -8.48381e-19)
(-0.000342661 -0.0012747 2.52264e-20)
(0.0162524 0.0107534 2.9183e-18)
(0.00354555 -0.00169034 3.41002e-19)
(0.00497815 -0.00174946 -8.71838e-19)
(0.0072144 0.00225103 3.82843e-19)