/*--------------------------------*- C++ -*----------------------------------*\
| =========                 |                                                 |
| \\      /  F ield         | OpenFOAM: The Open Source CFD Toolbox           |
|  \\    /   O peration     | Version:  v2012                                 |
|   \\  /    A nd           | Website:  www.openfoam.com                      |
|    \\/     M anipulation  |                                                 |
\*---------------------------------------------------------------------------*/
FoamFile
{
    version     2.0;
    format      ascii;
    class       volVectorField;
    location    "1000";
    object      U_0;
}
// * * * * * * * * * * * * * * * * * * * * * * * * * * * * * * * * * * * * * //

dimensions      [0 1 -1 0 0 0 0];


internalField   nonuniform List<vector> 
9793
(
(1.02308 -0.135841 5.02622e-21)
(0.929933 -0.180951 4.03584e-22)
(1.01409 -0.137334 -3.34904e-22)
(1.01571 -0.00111842 -1.93571e-23)
(1.08399 -0.353645 0)
(1.01601 0.00398887 -1.61651e-21)
(1.01072 -0.000307929 -1.70357e-22)
(1.01271 -0.00179747 0)
(1.03475 -0.000638126 5.41169e-22)
(1.09572 -0.348164 0)
(1.12533 -0.0456985 0)
(0.883306 0.15091 2.95374e-22)
(1.01558 -0.00103648 0)
(1.01502 -0.00163792 1.85859e-21)
(1.00305 -2.65168e-05 0)
(1.01393 -0.00118615 0)
(1.02121 -0.0111679 -1.60036e-21)
(1.02157 -0.0129818 0)
(0.891908 -0.184268 -1.98323e-22)
(1.01435 -0.00170781 -2.01129e-22)
(0.877825 0.0302652 3.81365e-21)
(1.02319 -0.0286665 4.55226e-22)
(0.928831 0.0731972 0)
(1.01548 0.00137628 0)
(1.02227 -0.0149844 2.15998e-21)
(1.01556 -0.000841965 0)
(1.01231 -0.00119251 2.49065e-23)
(1.02137 -0.00419425 2.46086e-21)
(1.08719 -0.0739488 0)
(1.0341 -0.000957061 -5.34301e-22)
(1.02568 0.0456534 7.45345e-21)
(0.942626 0.067663 -6.10659e-22)
(1.06483 0.0798445 8.98661e-21)
(1.00708 1.49213e-05 -1.51946e-21)
(1.08523 -0.0836344 5.50337e-21)
(0.790512 -0.00898898 4.11112e-21)
(1.00868 -1.11636e-05 0)
(1.02131 -0.0278739 -4.08972e-22)
(1.01208 -0.00246794 0)
(1.01087 -0.000192424 0)
(1.03058 0.0418151 -5.34637e-21)
(1.00511 -5.33591e-05 0)
(1.01424 -0.000573206 6.75876e-23)
(1.01038 -0.00023018 0)
(1.01366 -0.000503306 4.20311e-22)
(1.01512 -0.000682326 -2.37425e-22)
(1.09014 -0.0774083 0)
(1.05579 0.0219537 -1.29327e-21)
(1.13918 0.00863914 0)
(1.01565 -0.00122745 -1.37054e-22)
(1.08685 -0.0877101 -5.66369e-21)
(1.12598 -0.0574974 -3.49092e-20)
(1.01128 0.00128611 3.48895e-21)
(1.03183 -0.00846821 -7.41647e-21)
(1.15102 -0.14393 4.82527e-21)
(0.764995 0.16738 0)
(1.02537 0.00143863 0)
(1.15603 -0.0280334 1.00851e-20)
(0.957878 0.143257 0)
(1.01218 -0.00224296 1.02781e-21)
(1.00913 -0.000158388 0)
(1.00892 -0.00425159 3.70049e-22)
(1.03748 0.111328 -2.68726e-20)
(1.01757 -0.000491077 2.60175e-22)
(0.926577 -0.16795 0)
(1.07755 0.0761851 1.00212e-20)
(1.06986 0.0688859 1.60488e-20)
(1.11625 0.0145522 1.28996e-20)
(0.91123 0.142909 0)
(1.12165 -0.0478604 0)
(1.14209 -0.151092 -5.62482e-21)
(1.01286 0.000249779 0)
(1.01843 -0.0038214 2.4987e-22)
(0.994913 -0.0814302 0)
(1.08431 -0.0957639 0)
(0.990644 0.0957341 0)
(1.02587 0.000804713 3.94967e-22)
(1.01226 -0.0035586 -2.49421e-26)
(1.02728 0.00894241 1.89214e-23)
(1.02441 -0.00227031 0)
(1.06791 0.109209 0)
(1.02168 0.0118789 0)
(0.923077 -0.20065 0)
(1.03241 0.0332908 5.87665e-22)
(1.02709 0.0342544 -1.05931e-21)
(1.04696 0.0297579 0)
(1.02585 -0.00297774 -1.47888e-21)
(1.02635 9.82335e-05 0)
(1.01184 -0.00467618 -5.43036e-22)
(1.01655 0.0141254 0)
(0.939892 -0.187164 2.69841e-22)
(1.1587 -0.201494 0)
(1.01178 0.000558753 -2.12192e-21)
(0.953579 0.0743144 6.02817e-22)
(1.01024 -0.00527124 6.19201e-22)
(1.02609 0.0370333 2.18934e-23)
(0.751252 0.122798 8.52537e-23)
(0.926104 -0.199265 0)
(1.01187 0.000268695 -1.09423e-21)
(1.01312 0.00106899 9.30579e-22)
(1.01326 0.00108139 0)
(1.00858 0.00847839 0)
(1.01302 -0.0023109 -2.04458e-21)
(1.01305 -0.00209962 0)
(1.01337 -0.00333699 -1.39153e-23)
(1.0303 0.0305531 0)
(1.01265 -0.00564267 3.55328e-22)
(1.00969 -0.000148835 -5.02477e-23)
(1.01229 -0.000289878 -2.92808e-21)
(1.06944 -0.0170027 0)
(1.01198 0.000143012 0)
(0.851802 0.0888557 -6.17284e-21)
(1.02338 0.00139678 0)
(0.698767 0.111979 -3.32289e-21)
(1.12421 -0.0629661 -2.27648e-20)
(1.02592 0.00121043 -4.09931e-22)
(1.07472 -0.0369326 1.4349e-20)
(1.07832 -0.0974895 -9.70239e-21)
(1.02356 0.0137801 0)
(0.965298 0.0689181 0)
(1.06995 -0.000139786 0)
(1.00602 7.52519e-05 8.95122e-23)
(1.02372 -0.00300988 -1.26062e-21)
(1.01628 0.00599872 1.86381e-21)
(1.03699 -0.0138792 -6.02146e-21)
(0.871466 0.0458271 0)
(1.11058 -0.0146096 1.79209e-20)
(1.04058 0.0377967 2.71446e-22)
(1.02976 0.00995428 -1.0759e-21)
(1.01892 -0.00379119 -7.85693e-23)
(1.01113 0.000127568 5.11016e-23)
(1.02647 0.000509549 0)
(1.01896 -0.00389356 0)
(1.00367 0.00176674 0)
(1.03318 -0.000349208 5.87305e-22)
(1.02672 -0.000661234 2.03461e-21)
(1.01688 -0.00036111 -3.0994e-22)
(1.01058 -0.000211629 6.83211e-22)
(1.023 0.00124255 0)
(1.01321 0.000531279 -1.08888e-21)
(1.02327 -0.00291128 -1.24049e-21)
(1.01924 -0.0147474 -2.2275e-21)
(1.01367 -0.000728307 1.34029e-22)
(1.01439 0.0014648 -4.62149e-21)
(1.01565 -0.00213841 -1.48648e-21)
(1.01662 -0.00378267 -1.69176e-21)
(0.956921 -0.0682641 0)
(1.01427 0.00154656 7.97718e-22)
(1.01177 -0.000657416 2.78017e-21)
(1.10996 -0.152659 0)
(0.920439 -0.294928 -2.00399e-21)
(1.01073 0.000100075 -1.61742e-22)
(0.936597 -0.296275 0)
(1.07073 -0.326468 0)
(1.01188 -0.000750492 -1.87845e-21)
(1.00894 0.000193203 -1.93929e-22)
(1.01189 0.000230214 6.6207e-22)
(1.01806 -0.0138186 2.31128e-21)
(1.01378 0.00133287 -1.50105e-21)
(1.01364 -0.000709357 -8.02952e-22)
(1.0126 -0.00179874 0)
(1.02079 -0.00503925 0)
(1.01238 0.000647407 1.9657e-22)
(0.877328 -0.162796 0)
(0.971641 -0.0859809 7.81332e-23)
(0.855853 0.0155956 0)
(1.05013 0.0332728 0)
(1.04336 -0.0466678 1.0005e-20)
(1.01225 -0.000505258 0)
(1.01041 0.00502637 -5.60606e-22)
(1.02076 -0.00431438 -7.22153e-22)
(0.855776 0.20882 0)
(0.961656 -0.0968187 1.43368e-22)
(0.837786 0.161376 -1.55212e-20)
(1.03754 -0.0117053 0)
(0.892755 -0.171456 0)
(1.02687 -0.00022722 0)
(1.0157 0.000926889 -1.2287e-22)
(1.01896 -0.00425653 2.44193e-24)
(1.07328 -0.0366688 6.82726e-22)
(0.386925 0.0385996 2.1005e-20)
(1.05167 -0.00659144 -1.47198e-20)
(1.01362 0.00135819 0)
(1.02085 -0.0140846 -1.1661e-21)
(0.989608 -0.0785938 0)
(1.01828 -0.00369921 -4.90271e-22)
(1.15967 -0.0282476 0)
(1.01881 -0.00416287 -2.53111e-24)
(1.02286 -0.00377835 7.10637e-23)
(1.0127 0.000250048 -2.02103e-22)
(1.03842 -0.0110984 -6.17297e-21)
(1.02033 -1.79375e-05 -1.80396e-23)
(1.14918 -0.0176621 3.07863e-21)
(0.855571 0.0738727 3.42983e-21)
(1.08492 0.0536196 -3.72486e-21)
(1.07187 -0.0348858 -1.10121e-20)
(0.997892 -0.168563 -1.66893e-21)
(1.0145 0.00648432 0)
(1.04645 -0.327167 1.51475e-20)
(1.01308 0.000492654 6.60258e-22)
(1.03264 -0.000596436 0)
(0.86809 -0.135088 -3.12077e-21)
(0.748747 0.171577 -3.92058e-22)
(1.01907 -0.00365379 0)
(1.02723 -0.00104939 -2.32725e-21)
(1.0135 -0.00192379 0)
(0.817373 0.011585 0)
(1.01523 0.000141859 1.78244e-21)
(1.02677 0.0250294 0)
(1.04367 -0.0193107 -9.60941e-21)
(1.0706 -0.0529341 -1.21423e-20)
(1.1421 -0.0296756 -2.91288e-21)
(1.12315 0.0338084 -5.68091e-21)
(1.0327 -0.00885976 2.05212e-21)
(0.991725 -0.177148 5.98136e-21)
(1.01214 0.000240455 1.02141e-21)
(1.00784 0.00296818 2.56898e-21)
(1.02116 -0.128969 -2.7148e-21)
(1.01424 -0.00184055 0)
(0.916954 0.229758 0)
(1.06482 -0.122241 0)
(1.02474 -0.00166555 -1.39934e-21)
(1.03803 -0.0132476 4.10588e-22)
(1.02019 6.00769e-05 -6.96306e-24)
(1.03244 0.0387737 -6.60364e-22)
(0.876292 -0.151257 0)
(1.01455 0.0028519 -1.31453e-21)
(1.012 -0.00111197 0)
(1.07227 -0.119117 0)
(1.11234 -0.0503568 0)
(1.01548 0.000989207 6.93885e-23)
(1.01559 0.00111201 0)
(1.05317 -0.0064642 8.21421e-21)
(1.01281 0.000400326 0)
(1.11624 -0.0252974 -4.66258e-22)
(0.933079 0.215677 -1.11279e-21)
(1.02266 0.000749422 9.40617e-22)
(1.01946 -0.00437007 7.60973e-22)
(0.774333 0.121935 4.162e-21)
(1.01312 0.00968063 -1.0275e-21)
(1.02914 0.0220689 -1.18271e-21)
(1.01613 -0.00116585 1.50075e-21)
(1.01868 -0.00483294 8.00104e-22)
(1.07012 0.0893978 -8.13802e-21)
(1.01871 -0.00417535 -1.40037e-21)
(1.01183 -0.000282738 -1.04096e-21)
(1.01269 -0.00161271 7.04169e-22)
(1.01642 -0.0140525 0)
(1.01172 -0.000107686 1.97831e-21)
(1.00808 1.09367e-06 8.97303e-22)
(1.02385 -0.0133875 -1.35195e-21)
(1.05549 -0.0290127 7.78601e-21)
(1.11789 -0.0634502 1.01876e-20)
(1.11366 -0.0197327 8.40008e-21)
(1.0176 -0.00434033 -1.9722e-22)
(1.01341 -0.0289046 9.84498e-23)
(1.02018 -0.00392479 0)
(1.05629 -0.031017 4.29549e-21)
(1.02549 0.0062788 3.09498e-21)
(1.01498 0.000552279 0)
(1.04651 0.0749438 -3.34396e-21)
(1.01908 -0.00418557 2.25669e-21)
(1.11519 -0.0687213 -9.84775e-21)
(1.00857 7.26687e-05 -7.50454e-22)
(1.04579 -0.0487312 -5.20307e-21)
(1.01474 4.31915e-05 1.64797e-22)
(1.01513 -2.27908e-05 -1.20977e-22)
(1.06778 -0.0554283 -8.98629e-21)
(0.856693 -0.132058 4.56575e-21)
(1.01443 -0.00517466 9.45659e-22)
(1.0151 0.000705953 -2.90944e-21)
(1.01311 0.00115905 1.51976e-21)
(1.01683 -0.0475699 1.56591e-21)
(1.02538 -0.00121988 0)
(0.954812 -0.166017 5.54229e-22)
(0.947128 -0.156907 4.4221e-23)
(1.0191 -0.00379572 -1.58995e-22)
(0.823123 0.0640684 -1.17836e-20)
(1.01966 -0.00031571 -9.58305e-23)
(1.11368 -0.0160572 -8.3467e-21)
(1.01553 -0.0129684 0)
(1.01554 0.000459502 -6.71806e-23)
(1.00814 -7.58732e-05 0)
(1.01096 -0.000209793 0)
(1.11009 -0.011632 -2.37703e-20)
(1.02464 -0.00193214 -1.8227e-21)
(1.02307 -0.0131446 2.18345e-21)
(1.04974 -0.042865 -8.26486e-22)
(1.0124 -0.000450545 -1.26754e-21)
(1.02704 -0.00148549 2.40365e-21)
(1.02304 0.000913135 0)
(1.07704 0.00568243 7.10745e-21)
(1.01454 -0.00157154 1.15693e-21)
(1.00868 -0.000165613 0)
(1.01061 8.74653e-05 -7.37161e-22)
(1.00399 0.0036626 0)
(1.03483 -0.0180833 2.22321e-21)
(1.05085 -0.0444571 7.65548e-21)
(1.0193 -0.00070821 0)
(0.789914 -0.226403 -1.42958e-20)
(1.01191 -0.00109368 1.05054e-21)
(0.951839 0.253201 -7.77167e-21)
(0.974957 -0.119 -1.06132e-20)
(1.00802 -1.22314e-06 0)
(1.00981 -0.000178022 0)
(1.01494 0.00125443 -1.04196e-21)
(1.01485 -0.0502235 -1.89098e-21)
(1.03531 -0.0392871 0)
(1.01351 -0.0117668 0)
(0.957737 0.258945 -4.79136e-21)
(1.01919 -0.000288563 -5.99589e-22)
(1.01486 0.00110311 1.52895e-21)
(1.03363 -0.0406962 2.47363e-22)
(1.01964 -0.0135049 0)
(1.02576 -0.00993948 3.17333e-21)
(1.01561 0.0120159 0)
(1.03908 0.033098 -9.11092e-22)
(1.01761 -0.00661689 9.36629e-22)
(1.02255 -0.0456241 0)
(1.04534 -0.0196384 1.09355e-20)
(1.01646 -0.00511963 -1.74182e-21)
(0.987096 -0.0901227 -5.90367e-22)
(0.951925 -0.180712 1.78994e-21)
(0.991047 -0.0698231 -5.06419e-22)
(1.01465 -0.0011073 2.06631e-22)
(0.506352 0.0247862 1.22021e-20)
(1.03326 -0.0201202 -8.95699e-23)
(0.9432 0.200968 -3.86757e-20)
(1.0792 -0.106953 0)
(1.01282 0.00129223 0)
(1.06364 -0.00440746 0)
(1.07306 -0.109552 0)
(1.00897 0.00677097 2.46874e-21)
(1.02631 0.0178207 1.18747e-21)
(1.13262 -0.0518294 -2.47021e-20)
(1.01263 -0.00124653 -4.2818e-22)
(1.01408 -0.000556795 -7.42007e-22)
(1.03183 -0.000394575 2.1712e-21)
(1.00952 5.75502e-05 -1.49858e-21)
(1.02259 -0.00420265 -1.93126e-21)
(1.01748 -0.157429 4.28258e-21)
(1.01882 -0.00421782 0)
(1.0164 -0.00476901 9.04579e-22)
(0.771696 -0.24103 1.49171e-20)
(1.01157 0.00885401 -3.30695e-21)
(1.01337 -0.00102097 2.38421e-23)
(1.01437 -0.000434698 -1.75448e-22)
(1.02609 -0.0227925 -3.65411e-21)
(1.01261 -0.00138956 1.35867e-21)
(1.01331 -0.167905 -5.01749e-21)
(1.03609 -0.0160151 3.82663e-22)
(1.02518 -0.00476461 2.37963e-21)
(1.02041 -0.0112985 -1.14755e-21)
(1.01011 0.00969074 0)
(0.830675 0.216741 0)
(1.03163 -0.00761996 3.8222e-21)
(0.973046 -0.0196407 0)
(1.01566 0.00091263 1.18687e-22)
(1.09173 -0.0519397 1.81274e-20)
(1.14926 -0.170629 1.44194e-20)
(1.16145 -0.0337983 1.8706e-20)
(1.09453 -0.053397 1.04863e-21)
(1.02506 -0.0214299 3.01109e-21)
(1.00015 0.00214835 2.87096e-21)
(0.976616 -0.183011 -2.7316e-21)
(1.00889 -0.000153964 0)
(1.0496 0.0939943 -7.12699e-22)
(1.0166 0.0105701 -2.38488e-21)
(1.01267 0.000400354 3.04892e-22)
(0.995526 -0.143612 0)
(1.0279 0.0154028 0)
(0.945124 -0.188727 -1.791e-21)
(1.02532 -0.00452933 -2.32986e-21)
(1.11933 -0.0270453 3.50781e-20)
(0.802818 -0.0264868 -4.6391e-21)
(1.03495 -0.00960434 4.29135e-24)
(1.01802 -0.00350837 2.93522e-22)
(1.06675 0.03465 -2.01836e-20)
(1.07164 -0.0247285 -3.03658e-21)
(0.967629 -0.0723394 6.81396e-22)
(1.01541 -0.0302119 1.99521e-21)
(1.03187 -0.00616205 -8.17888e-22)
(0.988736 -0.274648 -4.67574e-21)
(1.01919 -0.000638282 -3.1485e-22)
(1.03132 -0.022093 0)
(1.00771 8.87254e-05 2.05352e-23)
(1.01008 -0.000165647 6.75213e-22)
(1.01297 -0.00156164 -1.6678e-21)
(1.03231 -0.00700387 -3.92638e-21)
(1.01757 -0.0286073 -1.94126e-21)
(0.829401 0.226512 1.13212e-20)
(1.03687 -0.00916778 -1.8274e-21)
(0.29226 0.246829 1.67651e-21)
(0.982364 0.0984223 0)
(0.96731 -0.176322 -1.78688e-21)
(1.11351 -0.0458077 -1.33402e-20)
(0.987543 -0.0485482 -4.59401e-22)
(1.01041 -0.000169742 -7.27228e-22)
(1.03159 1.93763e-05 0)
(1.06123 -0.213292 0)
(0.994271 0.0994006 0)
(1.0166 -0.000898546 -1.525e-21)
(1.04332 -0.00237798 4.27362e-21)
(0.724328 -0.189976 3.7064e-21)
(1.01309 0.00135197 -7.50718e-22)
(0.675242 0.0433888 1.70363e-21)
(1.01984 -0.00432451 -2.52174e-21)
(1.01952 -0.0296422 2.64859e-21)
(1.01311 0.00144262 -1.44797e-21)
(1.06556 -0.0624636 0)
(1.01869 -0.00412087 6.78814e-23)
(1.07328 -0.0265963 -8.17401e-21)
(0.831611 0.0463328 0)
(1.01541 0.000309721 -1.91102e-21)
(0.917664 0.0672071 0)
(1.00455 -0.0263479 -1.43218e-21)
(1.03619 -0.0175449 4.23996e-21)
(1.00777 -0.0277036 0)
(1.01574 0.00900378 2.69162e-21)
(1.01385 -0.00579995 -1.73588e-21)
(1.01762 -0.00335975 1.72272e-21)
(0.90722 -0.112445 -2.24016e-21)
(1.01967 -0.000351541 -3.22088e-22)
(1.02567 -0.0104824 -1.63141e-21)
(1.1313 -0.0568136 4.33721e-20)
(1.03197 -0.00474636 0)
(1.02741 0.00568016 1.9733e-22)
(1.03475 -0.0196593 -3.064e-21)
(1.01246 0.00102906 1.94978e-22)
(1.07294 -0.0401147 6.19995e-21)
(1.01315 -0.000576733 1.03788e-21)
(1.02486 -0.0107497 -2.22162e-21)
(1.0134 0.00185428 2.70602e-21)
(0.867124 -0.000746564 0)
(1.01568 -0.00309049 0)
(0.867084 -0.0198216 0)
(1.00955 0.00412398 5.93035e-22)
(1.13957 -0.0800634 1.14291e-21)
(1.0119 -0.000201751 7.47324e-22)
(1.0103 0.0064178 -2.4516e-21)
(1.00846 -0.000118795 1.54575e-21)
(1.03607 -0.00931315 3.51308e-21)
(1.00557 0.0253704 2.29358e-20)
(1.0157 0.00668953 0)
(1.13607 -0.178532 4.69379e-21)
(1.01274 -0.000199657 2.0213e-22)
(1.02117 -0.00437565 -1.05444e-21)
(1.03301 -0.0217734 2.86705e-21)
(0.699925 -0.18417 6.36609e-21)
(1.02663 0.0518982 0)
(1.18185 -0.13747 1.55131e-20)
(1.13869 -0.0472574 -2.18617e-21)
(1.01266 0.00322379 0)
(1.02071 -0.00141557 7.40907e-22)
(0.960006 -0.0187598 -2.14195e-21)
(1.07044 -0.0421922 -1.01291e-20)
(1.06153 -0.060273 0)
(0.923561 -0.186793 -5.26683e-22)
(0.922836 -0.18376 -4.93073e-21)
(1.01944 -0.000292057 -3.76894e-22)
(1.00879 -0.0221861 -1.02279e-24)
(1.11898 -0.0311162 1.60807e-20)
(1.02389 -0.00347625 1.22048e-21)
(1.01893 0.0142644 0)
(1.02316 -0.00357002 -7.10719e-23)
(1.01274 -0.00218701 -1.8395e-21)
(1.00746 -1.34102e-05 -7.82736e-22)
(0.756667 0.233384 -7.70829e-21)
(1.0719 -0.029329 6.3898e-21)
(1.02322 -0.197654 2.37707e-20)
(1.01262 -0.00237396 0)
(1.01015 -0.0498392 -2.07968e-21)
(1.01566 0.00105612 0)
(1.00814 5.72186e-06 -1.03883e-21)
(1.00981 7.54939e-05 0)
(1.01971 0.0122946 0)
(0.959904 -0.0131134 2.41273e-21)
(1.00847 0.00416395 0)
(1.01049 -0.0201649 -1.44344e-21)
(1.01321 0.00203543 1.44611e-21)
(1.01809 -0.000671593 1.41671e-22)
(1.03136 0.00603459 1.76564e-21)
(1.06689 0.010053 0)
(1.01234 -0.000469117 0)
(1.02052 -0.00134614 0)
(0.981009 -0.0630497 2.70846e-20)
(1.02545 0.0122143 0)
(1.03729 -0.0154138 -4.07387e-22)
(1.01987 0.131831 0)
(1.14739 -0.0624288 0)
(1.00891 0.000113075 -1.11622e-21)
(1.00704 0.000131846 1.32532e-24)
(1.03091 -0.0237427 -2.7159e-21)
(1.02945 0.00727958 -1.88719e-21)
(1.0248 -0.0112433 0)
(1.01409 -0.000401355 -2.37316e-23)
(1.01799 -0.00052165 -4.66266e-22)
(1.01385 0.00717166 0)
(1.02063 -0.00393093 1.27621e-23)
(1.01799 -0.00444133 0)
(0.952609 -0.0517811 -1.73542e-22)
(1.11931 -0.0740465 1.31322e-20)
(1.01172 0.00021557 0)
(0.981615 0.000205907 9.90324e-22)
(1.01821 -0.071705 3.05153e-21)
(1.01237 0.000652583 2.10561e-21)
(1.01383 -0.00287245 0)
(1.02562 0.0102581 -3.07567e-21)
(0.88273 0.0936055 9.31118e-21)
(1.01402 -0.0128844 0)
(0.840234 0.2029 1.65405e-21)
(1.01278 0.00103655 0)
(1.01888 -0.00459761 1.56374e-21)
(1.11634 -0.0541874 2.70172e-21)
(1.02247 -0.00361282 -1.08089e-21)
(1.09176 -0.0380165 -4.95053e-21)
(0.986365 -0.18814 -1.13635e-20)
(1.02079 -0.0482453 0)
(1.01256 0.00083523 -1.0137e-21)
(0.258265 0.241539 -1.62024e-20)
(1.02664 0.01031 0)
(1.01552 -0.000181433 -9.79379e-22)
(1.02066 -0.006582 6.65871e-23)
(1.12891 -0.0143034 2.26407e-20)
(1.01381 -0.0043024 1.21449e-21)
(1.0152 -0.000321065 4.82465e-22)
(1.01957 -0.000602655 -4.53435e-22)
(1.01392 -0.00411651 0)
(1.07915 0.0608947 -4.64859e-21)
(1.11668 -0.0213518 -1.79528e-20)
(1.01833 -0.0688434 2.58924e-21)
(1.01387 -0.000226488 1.38458e-21)
(1.01994 -0.00649262 -1.06329e-21)
(1.01699 -0.00582228 1.87816e-21)
(1.02985 -0.00520462 0)
(1.01212 0.000143752 3.87778e-22)
(1.01956 -0.000524207 -8.70162e-22)
(0.939761 0.0878194 -2.71247e-21)
(1.16503 -0.0348199 -1.93277e-20)
(1.01314 0.00102983 -1.5665e-21)
(0.997666 -0.00702411 -1.15647e-22)
(1.0717 -0.224816 0)
(1.01906 -0.00584011 0)
(1.0466 -0.019006 -5.38034e-22)
(0.970437 -0.0241719 0)
(1.01248 0.000219628 2.39086e-22)
(1.12973 -0.0476815 0)
(0.993934 -0.22988 5.78795e-21)
(1.02527 -0.00156834 0)
(1.16434 -0.00558352 -2.6314e-20)
(1.01572 0.000157263 1.27347e-22)
(0.712648 0.11753 -1.10474e-21)
(1.05148 -0.0391137 0)
(1.04621 -0.267398 0)
(1.01819 -0.00365747 -4.50846e-22)
(1.01824 -0.00473373 0)
(1.02265 -0.00972359 -3.15431e-23)
(0.949946 -0.201536 -5.05265e-22)
(0.998978 0.000816554 -4.48944e-21)
(1.01986 0.125544 0)
(1.06026 0.133039 0)
(0.890341 -0.0899811 1.52414e-21)
(1.0939 -0.0398125 6.06277e-21)
(0.855353 0.199816 0)
(1.05785 -0.0624206 0)
(1.00487 -3.13777e-05 -8.8021e-22)
(1.08942 -0.0262167 -1.46734e-20)
(0.998702 -0.00519505 -1.68092e-21)
(1.06522 -0.0147223 -9.95889e-21)
(1.02941 -0.00923263 1.39704e-21)
(1.13056 -0.11452 4.22062e-21)
(1.01461 0.0028851 2.88033e-21)
(1.04645 -0.0583194 1.68979e-22)
(1.00908 -7.94472e-05 -4.62592e-22)
(1.04713 -0.00115894 0)
(1.01693 -0.00540628 -1.79089e-21)
(1.18497 -0.00694002 -3.65802e-20)
(1.01389 0.00272852 -1.43739e-21)
(1.01077 0.000169831 -1.24219e-21)
(1.04971 -0.0110352 -7.94195e-21)
(1.04354 -0.0236165 -1.01995e-20)
(1.07355 -0.0313358 0)
(1.01852 -0.00389925 0)
(1.02141 -0.00315331 3.6427e-23)
(1.01929 -0.00583792 0)
(1.01927 -0.00554385 1.07185e-22)
(0.905132 -0.191415 6.9415e-22)
(1.01584 -0.00141714 -3.12996e-22)
(0.927375 -0.198951 8.1181e-21)
(0.666487 -0.0726218 0)
(1.01582 -0.00133267 9.29294e-23)
(1.00945 -0.000142796 5.9071e-23)
(1.00859 -0.0522021 0)
(1.04311 -0.00344172 1.3643e-21)
(1.02302 -0.00315154 0)
(1.02147 -0.0134587 0)
(1.03551 -0.00740779 0)
(1.0538 -0.0384845 -1.16493e-20)
(1.05204 -0.00329718 7.74543e-21)
(1.04504 -0.0231763 2.9434e-21)
(1.01401 -0.000324363 6.86717e-22)
(1.02583 0.0126715 2.17875e-21)
(1.02592 -0.0197704 -3.23031e-21)
(1.05423 -0.0334991 -4.04618e-22)
(1.01966 -0.0125711 0)
(1.02575 -0.0240675 0)
(0.934136 -0.197799 0)
(1.02061 -0.0066174 1.76693e-22)
(0.907541 -0.125427 1.93743e-21)
(1.07132 -0.0200211 3.63611e-21)
(1.01056 -0.000281534 2.18932e-22)
(1.02174 -0.00328363 -8.26554e-22)
(1.01259 -0.000483724 -9.66405e-22)
(1.00221 0.00956875 3.09041e-21)
(0.999564 0.00948656 -3.04494e-21)
(1.01857 -0.00434769 0)
(1.00858 4.26962e-05 0)
(1.01569 0.00138717 0)
(1.01754 -0.00610962 -2.34155e-22)
(1.00879 0.000883719 1.24745e-21)
(1.01875 -0.00142708 0)
(1.01167 -0.0248618 -1.59897e-23)
(1.01355 0.000725555 -1.13824e-21)
(1.04706 -0.00238989 3.6329e-21)
(1.00686 -5.94886e-05 0)
(1.03243 -0.00545856 -3.37503e-21)
(1.01191 -0.0226248 4.03092e-22)
(1.05334 -0.00379779 1.08921e-20)
(1.09161 -0.028362 2.43372e-20)
(1.00801 4.0134e-05 -2.14707e-22)
(1.01739 -0.00378257 0)
(1.02199 -0.00311665 -1.45044e-23)
(1.01444 -3.09835e-05 0)
(1.01749 0.00485272 1.2501e-21)
(1.01079 0.00026783 -6.14678e-22)
(1.01741 0.00544107 -1.58356e-21)
(1.01602 -0.0045001 8.38408e-22)
(1.02086 -0.00675395 -7.04708e-22)
(1.01417 0.00291607 0)
(1.07583 -0.0591637 1.19682e-20)
(1.01032 -0.000171361 -1.59048e-21)
(1.00841 -3.40044e-05 7.76987e-22)
(1.02427 -0.00278133 3.62493e-21)
(1.11111 -0.105554 -7.44384e-21)
(1.01678 -0.00210403 1.68778e-22)
(1.01316 0.00163848 2.06326e-23)
(1.12481 -0.0396488 -2.92287e-20)
(1.01595 0.000161492 0)
(1.02344 -0.00153579 -7.20522e-22)
(1.19119 -0.00588369 1.60868e-20)
(1.02353 -0.0141611 -1.40547e-21)
(1.01193 -0.000384602 -8.57067e-22)
(1.01021 0.000104809 0)
(1.1542 -0.0237362 -1.39119e-20)
(1.01253 -0.000684988 1.0053e-21)
(1.12216 -0.033116 9.02414e-21)
(0.950311 -0.162149 0)
(0.950143 -0.243166 2.66402e-21)
(1.06931 0.0835125 3.04811e-21)
(1.02269 -0.00183421 0)
(1.02465 -0.00337287 -5.37624e-22)
(0.96105 -0.148927 0)
(1.01135 -0.0119766 1.35721e-21)
(1.01332 0.00186704 -1.39643e-21)
(0.978939 -0.0528466 0)
(1.14375 -0.100009 -4.54006e-21)
(1.10293 -0.23284 1.02545e-20)
(1.02236 -0.00324214 1.06848e-21)
(1.13211 -0.0158791 -4.4582e-20)
(1.02468 -0.00312467 0)
(1.02387 -0.00273532 -2.18486e-21)
(0.723493 0.185316 -3.8664e-21)
(1.01891 -0.00139283 0)
(0.909491 -0.0189094 -3.03943e-22)
(1.01539 0.0106417 -2.26617e-21)
(1.11615 -0.0796554 -2.52079e-21)
(1.01707 -0.00367305 6.51337e-22)
(1.03828 -0.0323719 2.53595e-21)
(1.02514 -0.0185663 1.64196e-21)
(1.18017 -0.00395762 2.51481e-20)
(0.897931 0.233392 0)
(1.02037 -0.00450942 9.06847e-22)
(1.0143 0.00934266 2.50356e-21)
(1.08273 -0.0128532 -7.30037e-22)
(1.01599 -0.00421461 0)
(1.02481 0.00797535 -3.79793e-21)
(1.12161 -0.0376594 4.14077e-20)
(0.713488 0.0312714 1.98993e-20)
(1.01792 -0.00345809 -3.44509e-23)
(1.04255 -0.0241765 0)
(1.01264 -0.0125107 1.62312e-21)
(0.99553 -0.235647 1.69725e-21)
(1.03601 -0.0225361 0)
(1.0495 -0.0338827 3.41038e-20)
(0.975504 -0.0948869 0)
(1.02543 0.00124177 9.91656e-22)
(1.00303 0.0208521 4.7368e-21)
(0.939887 0.259506 -2.02397e-22)
(1.01682 -0.00224452 0)
(1.01861 -0.00165172 0)
(1.00765 -8.09506e-05 1.69283e-21)
(1.0307 0.00395018 0)
(1.01382 0.00242384 2.25772e-23)
(0.76996 0.224421 3.93891e-22)
(1.01355 0.00200912 0)
(0.90194 -0.206908 -1.0785e-21)
(1.06169 -0.00493162 0)
(1.02669 0.054734 -7.61211e-23)
(1.12131 -0.0531382 1.14149e-20)
(1.03063 -0.00532475 0)
(1.16816 -0.124966 0)
(0.805662 -0.0822374 1.37685e-20)
(1.03565 -0.0131691 5.89044e-21)
(1.00887 -0.287522 0)
(1.00275 0.0173472 -3.51341e-21)
(1.14216 -0.0205469 -2.49184e-20)
(1.01361 0.00224999 0)
(1.01589 0.000334501 0)
(1.02325 -0.0276296 0)
(1.01877 -0.00425343 -4.37035e-22)
(0.895251 0.228855 0)
(1.01361 -0.000742333 6.8044e-22)
(0.955045 -0.138993 2.97354e-22)
(1.01514 -0.00217951 1.09135e-21)
(1.05999 0.0218875 1.1397e-21)
(1.0198 -0.070977 1.52907e-20)
(1.02571 8.34358e-05 6.52994e-24)
(0.161 0.206274 3.44966e-20)
(1.01957 -0.000271458 0)
(1.05133 -0.0110184 0)
(1.09166 -0.046431 9.45221e-21)
(0.69948 0.068913 0)
(0.677836 -0.0283651 6.19039e-21)
(1.0196 0.00496056 0)
(1.01532 -0.0025385 0)
(1.01312 0.00178019 -1.45254e-21)
(0.958508 -0.214092 8.75553e-21)
(0.743323 -0.230172 0)
(1.01682 -0.000357681 7.25809e-22)
(1.00916 0.00936144 1.8582e-24)
(1.05261 -0.0181588 0)
(1.01333 0.00206388 0)
(1.01644 -0.00264028 -5.42851e-23)
(1.00235 0.0010482 0)
(0.915672 -0.0280875 0)
(1.04201 -0.0157481 -1.18763e-21)
(1.01852 -0.00404054 5.68059e-22)
(1.01002 5.60454e-05 0)
(1.01235 -0.00186002 -2.46302e-21)
(1.05857 0.105725 -1.87432e-21)
(1.08918 -0.220575 -8.26531e-21)
(0.996939 -0.0274813 -2.15544e-21)
(1.01477 -5.96417e-05 4.85251e-22)
(1.01458 -0.000994635 9.72789e-22)
(1.09504 -0.112666 0)
(1.01877 -0.00161873 -2.9643e-22)
(1.03806 -0.267336 0)
(1.08963 -0.0687058 1.00216e-20)
(0.896271 -0.217773 8.21689e-21)
(1.06924 -0.0341111 -2.13205e-21)
(0.969324 -0.125002 1.54684e-22)
(1.0137 -0.00327366 -2.86627e-21)
(1.03109 -0.00472333 0)
(1.05685 -0.0208981 -9.05024e-21)
(1.0474 -0.00973425 -6.7647e-21)
(1.05503 -0.0353284 1.3282e-20)
(1.01914 -0.00094158 0)
(1.13219 -0.0193939 1.96597e-20)
(0.965219 -0.167185 0)
(1.01383 -0.00210315 5.05754e-22)
(0.802443 -0.0285887 -1.27559e-20)
(1.01237 -0.00166347 2.71404e-21)
(0.82513 0.022454 -1.30382e-21)
(1.03716 -0.00276348 -4.44741e-21)
(1.06421 -0.0728938 0)
(1.00445 -0.0245139 -2.88163e-22)
(1.04238 -0.00295885 -1.67723e-21)
(1.01827 -0.00363297 8.96146e-22)
(1.02756 0.00765002 1.1171e-21)
(1.0177 -0.0212926 7.67362e-22)
(0.953757 -0.245809 0)
(0.933856 0.256281 5.18533e-21)
(1.01916 -0.00687673 -3.55524e-23)
(1.05797 -0.0673799 -8.37485e-21)
(1.01216 -0.00877701 -1.31256e-21)
(1.02433 -0.0250274 0)
(1.03884 -0.0336065 -2.43725e-21)
(0.578776 0.0223387 -1.61217e-21)
(1.01174 -0.00022414 -5.6314e-23)
(1.14273 -0.0243501 -4.70988e-20)
(1.0138 -0.00309928 8.72524e-22)
(1.08518 -0.0121118 -1.25623e-20)
(1.01981 -0.00405781 0)
(1.01348 0.000634008 0)
(1.0077 -4.24539e-05 -9.98146e-22)
(1.01469 -0.00101795 -8.54134e-22)
(1.09603 -0.193628 0)
(1.01846 -0.00188225 0)
(1.0318 -0.0269682 -2.89557e-21)
(1.0088 -6.72952e-05 -7.33771e-22)
(1.00874 0.000219852 2.37765e-22)
(1.01431 0.00275835 -3.30895e-22)
(1.05394 -0.103404 8.47398e-21)
(1.00848 -5.61171e-06 -1.55049e-21)
(1.04944 -0.00142139 4.64618e-21)
(1.01384 -0.00358493 1.86677e-21)
(1.01665 -0.0027773 4.293e-22)
(0.923599 -0.197145 -1.34906e-21)
(1.01692 -0.00198196 5.8486e-24)
(0.895021 0.0544314 9.57912e-22)
(1.01388 -0.00237422 -2.1237e-21)
(1.0311 -0.0254278 -1.41386e-21)
(1.01004 3.93732e-05 1.96145e-21)
(0.933073 -0.0261759 0)
(1.00988 0.000203705 -8.08248e-22)
(0.875064 0.144635 0)
(1.02106 -0.0108525 1.2156e-21)
(1.01861 -0.00436481 4.05636e-22)
(1.01436 -0.00109342 1.02561e-21)
(0.894665 -0.151925 0)
(0.93987 -0.201962 -4.76282e-21)
(0.809605 0.00359619 -6.93884e-22)
(1.20167 -0.0872575 1.18371e-21)
(1.07554 -0.136642 0)
(1.01891 -0.0039474 -5.56637e-22)
(1.05468 -0.0207981 1.10615e-20)
(0.960022 -0.194118 0)
(1.01486 0.00395937 2.62919e-21)
(1.05289 -0.0325439 0)
(1.06471 0.0212201 0)
(1.04677 -0.10578 -8.6104e-22)
(1.13285 -0.125884 -4.66582e-21)
(1.02841 -0.0255297 -2.45238e-21)
(0.901757 -0.200473 -1.72929e-21)
(1.03591 0.00537942 -4.76041e-22)
(0.840605 -0.0691331 0)
(0.940295 -0.19965 -5.88647e-22)
(1.03231 -0.0250723 4.1569e-21)
(1.02948 -0.0100722 -1.9593e-21)
(0.915395 -0.20882 -5.47432e-21)
(0.804056 -0.230644 -3.28524e-22)
(1.01539 -0.00018954 0)
(1.01366 -0.0263275 1.68652e-23)
(1.01915 -0.00103276 -3.89929e-22)
(1.00577 -0.0139849 0)
(1.10226 -0.0157959 0)
(1.01085 0.000172524 5.96067e-22)
(1.01813 0.00471285 1.17331e-21)
(1.04889 -0.00963175 1.56431e-20)
(1.02529 -0.0342477 0)
(1.09399 -0.0442189 -2.95779e-20)
(1.00962 -0.0023272 -1.97996e-21)
(0.987036 -0.232476 -1.14022e-20)
(1.01448 -0.00111163 -1.00874e-21)
(1.01668 0.00543565 1.69468e-21)
(1.05316 -0.0598063 0)
(0.841586 -0.0820335 4.62345e-21)
(1.10496 -0.0113753 0)
(1.01812 -0.000287706 -5.76689e-22)
(1.00645 -0.0250563 0)
(1.01607 -0.0017167 2.13574e-21)
(1.01534 0.0041022 1.28747e-21)
(1.06129 -0.0596123 -3.05468e-20)
(1.01482 0.00324346 -2.74577e-21)
(1.02904 -0.0238772 0)
(0.899988 -0.207058 -9.37942e-21)
(0.891048 -0.188567 9.59214e-21)
(1.0262 0.00380348 1.96009e-21)
(0.780208 -0.0125194 5.00087e-21)
(1.17025 -0.150239 -1.63808e-20)
(0.916522 0.0861469 -3.42841e-21)
(0.995478 -0.118535 1.39383e-21)
(0.560821 0.0370305 9.0297e-21)
(1.01507 -0.000438268 -7.75981e-23)
(1.12948 0.0101717 -3.80306e-21)
(1.0205 -0.0121164 1.65762e-22)
(1.01367 -0.00284669 -2.08227e-22)
(1.02283 -0.00622686 1.42703e-21)
(1.00823 -1.83999e-05 0)
(1.0121 -0.00943761 -1.36634e-21)
(0.301847 0.146658 -1.49097e-20)
(1.02945 -0.00320485 4.96634e-22)
(1.02841 -0.062556 -2.82842e-20)
(1.02452 0.00820568 0)
(0.999449 -0.0769825 -8.71364e-22)
(1.02057 -0.0140422 0)
(1.10512 -0.0145967 0)
(1.039 0.00224039 -1.6317e-21)
(1.00664 0.00271868 -3.27163e-21)
(1.09284 -0.0668191 -9.39627e-21)
(1.02327 0.00906219 1.30417e-21)
(1.01622 0.00477523 -1.62729e-22)
(1.11469 -0.105848 -2.56125e-20)
(1.00614 -0.0157158 1.23134e-21)
(1.06948 -0.0486451 0)
(1.02757 -0.0020105 1.62128e-21)
(1.01332 0.000715577 2.01833e-21)
(0.922068 -0.14787 1.01454e-21)
(0.6734 -0.0577214 0)
(1.0366 0.0082888 0)
(1.01564 0.00121681 0)
(1.01565 0.0011973 0)
(1.01062 0.000630664 2.27133e-21)
(1.03124 0.00798415 3.15193e-21)
(0.917809 -0.184051 7.21769e-22)
(1.11976 -0.0989787 9.28083e-21)
(1.00129 -0.13441 -2.738e-22)
(1.0689 -0.0600928 0)
(1.05283 0.0390542 3.41437e-21)
(1.02437 -0.00355818 1.38148e-21)
(0.988664 -0.0218238 -3.8452e-21)
(1.00658 0.011173 -2.92445e-21)
(1.05652 -0.0246206 -8.57248e-21)
(1.12649 -0.135182 2.15177e-20)
(1.01833 -0.00366751 3.60204e-22)
(1.01739 -0.00409586 -1.76316e-22)
(0.86534 -0.0004903 6.16319e-21)
(1.07944 -0.0601463 -1.64686e-20)
(0.440303 0.0580085 0)
(1.01772 -0.00338401 0)
(0.963681 -0.25066 9.173e-21)
(0.99453 -0.178992 3.16418e-21)
(1.01383 -0.000160092 -3.9127e-22)
(1.10984 -0.0249395 -3.05394e-20)
(1.06486 -0.00763667 1.31789e-20)
(0.930061 -0.191642 2.00783e-21)
(1.01166 -0.00030845 1.88829e-21)
(1.06875 -0.0205436 6.802e-21)
(1.00456 -0.141647 0)
(1.00536 0.0167317 -2.95299e-21)
(1.01793 -0.00349118 0)
(1.01138 -0.0259173 0)
(1.01971 -0.0108304 -8.92995e-22)
(1.01424 -0.000258684 1.13003e-21)
(1.01691 -0.00349621 -4.89354e-22)
(1.18031 -0.0676711 -3.76279e-22)
(1.01831 -0.0105272 -4.93868e-22)
(1.07918 -0.00711033 6.89779e-22)
(0.886634 0.0555299 -1.43309e-21)
(1.1066 -0.0262663 3.96849e-22)
(1.00359 -0.0273319 2.40152e-22)
(1.05359 -0.0692994 -7.14408e-21)
(1.01151 0.0463646 -1.22676e-21)
(1.04721 0.157844 -1.26271e-20)
(1.01842 0.045032 0)
(1.01563 0.00468701 1.66398e-22)
(1.02859 -0.00809718 3.0772e-21)
(1.04653 -0.0085204 0)
(1.0384 0.00553188 7.40349e-22)
(1.00952 -9.15864e-05 0)
(1.09352 -0.133325 0)