/*--------------------------------*- C++ -*----------------------------------*\
| =========                 |                                                 |
| \\      /  F ield         | OpenFOAM: The Open Source CFD Toolbox           |
|  \\    /   O peration     | Version:  v2012                                 |
|   \\  /    A nd           | Website:  www.openfoam.com                      |
|    \\/     M anipulation  |                                                 |
\*---------------------------------------------------------------------------*/
FoamFile
{
    version     2.0;
    format      ascii;
    class       volVectorField;
    location    "100";
    object      ddtCorrDdt0(U);
}
// * * * * * * * * * * * * * * * * * * * * * * * * * * * * * * * * * * * * * //

dimensions      [0 1 -2 0 0 0 0];


internalField   nonuniform List<vector> 
10042
(
(-0.017094 0.0403408 1.9411e-19)
(0.0508525 -0.0580937 -1.59476e-17)
(-0.0464781 -0.0282046 3.82504e-19)
(-0.000161203 -7.18704e-05 1.58512e-20)
(0.000285366 -5.57159e-05 -5.65337e-19)
(-0.0733588 0.0020859 -6.51656e-19)
(0.114831 -0.0203369 8.20455e-18)
(-0.0194347 -0.0266961 -7.88545e-19)
(-0.000950832 -0.000176365 6.68084e-20)
(0.0336962 0.0235409 2.04262e-18)
(3.647e-05 0.0219595 1.15126e-19)
(0.026332 -0.0603 1.03269e-17)
(-0.00173505 -0.0249264 9.17611e-19)
(0.000376023 0.00237771 -4.87475e-19)
(-0.000321265 -0.000756008 7.92919e-19)
(0.000245659 0.00241061 4.63275e-19)
(-0.0552511 -0.0553484 1.6713e-18)
(0.00375894 0.022764 -1.35766e-19)
(-0.00178582 -0.00589405 -1.49362e-19)
(-0.0111024 0.00917293 8.1522e-19)
(0.00101858 -0.0249622 3.60897e-18)
(-0.0225957 0.0386004 -4.18091e-19)
(-0.000150518 -7.2414e-05 -3.93906e-20)
(-0.00971543 -0.02842 -1.7857e-18)
(0.000119467 -0.000476511 1.93217e-19)
(0.000751407 -7.56252e-05 4.21494e-20)
(0.0300279 0.0231246 -1.0881e-18)
(-0.000775887 -0.000178439 1.59029e-20)
(-0.0644362 -0.0057408 9.68815e-19)
(-0.0165579 0.0789412 -6.91943e-18)
(0.000425975 -4.65514e-06 -2.94232e-19)
(-0.0284383 -0.0138867 -2.69446e-18)
(-0.000891941 -0.000188259 -2.64039e-19)
(-0.000873261 -0.000178617 5.68701e-21)
(-0.0211069 -0.0206701 -4.29451e-19)
(-0.0246846 -0.021438 -2.99233e-19)
(-0.000206221 -1.56163e-05 3.97903e-20)
(-0.000842251 0.000213753 5.85309e-20)
(0.000444354 -3.08688e-06 3.47935e-19)
(0.00461439 0.00288142 1.02666e-20)
(-0.0187485 0.0392462 2.23242e-19)
(-0.000923797 -0.000164457 -6.7898e-20)
(-0.0190633 -0.139775 -2.57395e-18)
(-0.0677322 0.0377597 -2.37805e-18)
(-0.000155079 -0.000235362 7.23932e-20)
(0.000149889 -0.000514611 -1.3986e-19)
(-0.000224587 -0.000681132 1.71159e-20)
(-0.000266425 -0.000684919 8.53126e-19)
(0.0465407 -0.00765556 1.49083e-19)
(-0.404899 -0.402023 -3.17008e-17)
(-0.0530124 -0.16792 2.15854e-18)
(4.38081e-05 -0.000125387 -5.48681e-20)
(-0.0669745 -0.0417903 -3.14151e-18)
(-0.00131204 -0.0054622 -5.988e-19)
(0.0571349 -0.0492267 8.44802e-18)
(0.0881673 -0.035551 -7.77636e-18)
(0.0021684 -0.0224978 -2.15984e-18)
(-0.00729078 0.0123217 6.34928e-19)
(0.000804619 -0.000267695 4.20845e-19)
(0.00153963 0.000203292 1.46861e-20)
(0.0467844 -0.0031726 9.79556e-20)
(0.0617009 0.0167026 -7.2834e-18)
(0.00283421 -0.122234 -5.29002e-19)
(-0.0203041 -0.0390216 -1.17265e-19)
(0.0172709 0.00994108 7.74654e-20)
(0.00121008 -0.0011393 1.62448e-19)
(-0.0114574 0.00584039 1.56773e-18)
(0.00575026 0.0407352 -8.75787e-20)
(-8.50268e-05 -0.000937507 4.14881e-20)
(0.00130669 0.041562 8.75645e-20)
(-0.292791 -0.246867 2.1904e-18)
(-0.000191745 0.00415697 -2.6066e-19)
(-0.000943739 0.000708669 1.33094e-19)
(0.000678976 -0.000295224 -4.12631e-19)
(0.001097 -0.00100819 4.95756e-19)
(-0.233103 -0.208192 -3.24993e-18)
(0.0126569 -0.00866112 1.66123e-20)
(-0.000203049 -0.000743437 -2.87418e-23)
(0.0118533 -0.0111259 -2.09676e-19)
(-0.00243228 -0.00572413 2.42651e-19)
(-0.0642212 0.0346435 4.66309e-18)
(-0.0070229 0.0124249 3.52285e-19)
(0.000212237 -5.38033e-06 -3.17772e-19)
(0.000199887 -0.000105297 -1.3547e-19)
(0.00706783 0.0282078 1.41155e-18)
(0.0706969 0.000672761 -2.87032e-19)
(-0.0104869 0.00467491 4.36413e-19)
(-0.0412252 -0.0354837 -2.18519e-19)
(0.000952652 -0.000455478 -7.23373e-19)
(0.0146976 -0.000246327 -1.05779e-19)
(-0.00210101 -0.0149773 -2.08005e-18)
(-0.000403358 -0.00076629 9.1906e-19)
(0.0124802 -0.116815 1.16447e-18)
(0.0723645 0.00485176 1.60362e-19)
(0.00950732 0.0171137 1.01814e-18)
(-0.000677886 0.000124002 -1.36857e-19)
(-0.0818431 0.270898 8.14162e-18)
(-0.0104245 0.00763928 -4.69896e-19)
(0.0396298 0.0132972 -1.3569e-18)
(0.000526952 -0.000422913 1.02065e-19)
(-0.00124436 -0.013845 -6.31288e-19)
(0.0491786 0.0285808 6.6338e-19)
(0.000205673 0.0016219 4.08405e-20)
(-0.0215506 -0.0103101 -3.1962e-18)
(0.000850735 -0.00847341 -6.24042e-19)
(0.000164684 0.000865834 2.49746e-20)
(0.059867 -0.136226 -4.13212e-18)
(0.000879944 -0.00105825 -8.85791e-19)
(0.111814 -0.0107143 1.43707e-18)
(0.000308999 0.000935611 -6.58902e-21)
(0.00061662 -3.28451e-05 -2.80886e-19)
(0.0987975 -0.0088996 3.26196e-19)
(0.0451464 0.0299748 -9.77548e-20)
(-0.0202921 -0.0317917 2.88314e-19)
(0.0141951 0.00962018 -2.04442e-19)
(-8.82489e-06 -0.00126591 -8.17984e-20)
(0.00486108 0.0128983 -1.88668e-19)
(0.000396953 -1.67812e-05 -7.36731e-20)
(-0.00967387 0.0104029 1.28515e-18)
(0.000306559 -0.00146997 -1.32256e-19)
(0.00160387 0.000203271 -2.0976e-20)
(-0.0191807 -0.182913 -8.9922e-18)
(-0.0353351 -0.193235 -3.50063e-18)
(-0.000184983 -0.000243261 4.59953e-22)
(0.015363 -0.0027637 1.1023e-19)
(0.000981249 -0.000548352 -4.33032e-19)
(0.000953651 -0.000587441 8.04668e-19)
(0.0429343 -0.0411729 -1.37699e-19)
(-0.115343 -0.0835331 -5.01007e-19)
(0.00283508 0.0135859 -4.21402e-19)
(-0.00109148 0.000162557 -7.43392e-20)
(0.000878879 -0.000658317 1.18705e-18)
(0.0011163 -0.000841367 -4.83746e-19)
(0.000373717 -0.00109905 -3.50372e-19)
(0.0960906 -0.00262545 -1.49665e-18)
(-0.0592601 -0.222845 -7.05651e-19)
(-0.01286 2.00378e-05 1.07485e-19)
(0.0398327 -0.276142 -2.1091e-17)
(0.00147352 -0.00322721 1.48903e-18)
(0.0449162 -0.00791249 1.39996e-18)
(-0.00387576 -0.0724438 1.35278e-18)
(-0.000780436 -1.09766e-05 3.05647e-19)
(-0.0097381 -0.253465 1.36818e-17)
(-0.000779274 -0.000157748 -1.01628e-19)
(0.0112719 -0.0021398 -9.1995e-20)
(-0.000885799 0.000226173 -7.46623e-20)
(0.00627075 0.0259773 -1.31468e-18)
(1.11534e-05 -0.000942093 9.49469e-20)
(-0.00260421 0.00287181 -3.66835e-19)
(-0.0539195 0.170887 -5.69303e-18)
(0.000820371 -0.000948978 3.03742e-19)
(-0.000734448 2.52132e-06 -4.37741e-19)
(0.00175718 -0.00402019 -1.7084e-18)
(-0.00504397 -0.0321785 -4.98974e-20)
(0.00743854 0.0151755 -1.41936e-18)
(0.0121759 -0.00132106 -6.35011e-21)
(-0.0906955 -0.0832792 5.08282e-19)
(0.0645733 -0.0668315 1.0606e-17)
(0.000997626 -0.000841665 -1.72274e-19)
(0.000649995 -5.30218e-05 3.56266e-20)
(0.000200479 -2.99367e-05 -2.9174e-19)
(0.00446569 0.00325239 -1.75227e-20)
(0.0337727 -0.17024 -1.40319e-17)
(0.000944214 -0.000498233 4.81611e-19)
(0.00120917 -0.00232841 7.59908e-19)
(-0.0613997 0.126628 -1.30425e-18)
(-0.0010074 0.000666692 -2.46218e-19)
(-0.0229392 -0.0125154 -1.47576e-18)
(-0.0219732 -0.0191919 -5.06544e-19)
(-0.000835445 -0.000184492 1.88165e-19)
(-0.000210789 0.019179 -2.03326e-19)
(-0.0248836 0.107007 8.48303e-18)
(-0.0334785 -0.283567 2.12767e-17)
(-0.000848776 -0.000196652 6.95871e-20)
(-0.000680054 -0.00558592 -2.41845e-18)
(-0.0369507 -0.254415 -1.74649e-17)
(-6.90993e-05 -0.000484262 3.46513e-20)
(-0.00090232 0.000205931 -7.6224e-20)
(0.000796973 -0.000622595 -4.57196e-19)
(-0.000124923 -0.00086584 6.14461e-20)
(0.00156087 -0.00288217 -1.16194e-18)
(0.00394061 -0.00810064 2.61365e-18)
(0.000641564 -0.000433874 -1.25348e-19)
(0.000395392 -0.00109513 -6.89096e-20)
(-0.00037111 0.00357801 -5.18674e-21)
(-0.00763444 -0.0126619 -7.47256e-18)
(0.000438934 0.00418329 3.33004e-19)
(0.00147452 0.000143899 1.58458e-20)
(-0.312399 -0.228461 -8.73371e-19)
(3.35358e-05 0.00013356 5.6042e-20)
(0.0591311 -0.014601 1.55469e-17)
(0.0046767 -0.0221752 -6.84268e-19)
(-0.00112979 0.000189818 -2.34879e-19)
(0.00354889 -0.00750446 -2.94218e-18)
(0.019142 -0.0474078 1.71843e-18)
(-0.000445417 -0.000699405 -3.9398e-19)
(-0.125324 0.0880199 3.39981e-18)
(-0.00938411 0.0145997 -9.22618e-19)
(-0.0377558 0.262989 -1.64862e-18)
(0.000192185 -9.21091e-05 3.59868e-19)
(-0.228325 -0.0683964 3.31906e-18)
(-0.00728098 -0.0918182 8.84759e-19)
(0.036769 0.0318913 5.46418e-19)
(-0.000504669 -0.000183894 -1.09488e-20)
(0.0274649 -0.00503837 -7.61582e-20)
(0.00116426 -0.000736341 5.72342e-19)
(-0.0276239 -0.134186 2.03124e-18)
(-0.00247256 -0.0304984 3.64059e-19)
(0.00053081 4.26005e-05 4.30056e-19)
(0.000283942 -0.00120295 6.58357e-19)
(-0.0261974 -0.0120764 2.27957e-18)
(-0.000491333 -0.00021842 3.67974e-21)
(0.0365302 0.039375 -8.57723e-19)
(0.0410894 0.020867 -4.82413e-19)
(-0.000174507 -9.23003e-06 6.60725e-20)
(0.00744681 0.024669 -1.62882e-19)
(-0.000291635 -0.000259237 -1.03206e-20)
(-0.00142483 -0.251152 4.95998e-18)
(-9.76064e-05 -5.07134e-05 -9.03897e-20)
(-0.191467 -0.0816472 -2.71628e-18)
(-0.104652 0.118854 2.83246e-18)
(-0.00113322 0.0163278 5.27029e-19)
(-0.101789 0.11786 -1.60991e-18)
(0.00233275 0.0323875 1.58708e-19)
(-0.000166213 -8.31234e-05 -8.94089e-21)
(-0.0130877 -0.0979489 -4.04107e-19)
(-0.00227111 0.00139415 -2.18395e-19)
(-0.0114111 -0.000589421 -6.81063e-19)
(0.0242272 0.0190049 -4.31781e-20)
(0.000455423 0.00161727 1.54015e-19)
(-0.000950286 0.000216242 2.80642e-19)
(0.000969676 -0.000639574 5.10046e-19)
(-0.00669276 -0.012894 5.24643e-18)
(0.000352658 -5.99716e-06 2.1064e-19)
(-4.05176e-05 -0.000506668 -1.43447e-20)
(-0.0191792 -0.0252519 2.77688e-19)
(-0.00867826 -0.00412604 1.05758e-19)
(-0.0674121 0.262768 -9.80586e-18)
(0.00990117 -0.00175727 7.82707e-20)
(-0.0228108 -0.0480733 1.41219e-18)
(0.0432453 -0.174011 2.80384e-18)
(-0.0154154 0.152895 1.73604e-20)
(0.00163725 0.000267916 2.58474e-20)
(0.00486372 0.00355584 5.45275e-21)
(0.0665614 0.023833 9.30045e-18)
(0.0002685 -5.87877e-05 1.63649e-19)
(-0.017027 0.136318 -3.81041e-18)
(0.00928502 -0.000959676 -8.76735e-20)
(0.00202436 -0.00432689 1.06906e-18)
(0.000296174 -4.08438e-05 -9.94694e-20)
(0.00039306 -0.0076484 -1.97897e-18)
(-0.00119907 0.000179393 -2.52358e-19)
(-0.0383557 0.0271892 -2.48742e-19)
(0.104037 -0.0326832 2.33797e-18)
(-0.00260495 0.0023723 1.00473e-18)
(-0.00759399 -0.00404978 -7.79623e-21)
(6.51536e-05 9.81153e-05 -1.61512e-19)
(-0.00383038 0.00128023 3.04993e-19)
(-0.0911307 0.264954 -2.93482e-17)
(-5.62857e-05 -8.85727e-05 -8.46493e-20)
(0.0175119 0.00194005 1.92333e-19)
(-0.000785736 0.000358345 6.92718e-21)
(5.92804e-05 -0.000123417 6.5478e-20)
(-0.000310057 -0.000668356 1.79806e-19)
(-0.00344057 -0.0268125 -1.05726e-18)
(0.113994 -0.0119456 -1.30072e-17)
(0.0165946 0.00453031 -5.00561e-20)
(-0.0342691 0.0237774 3.63774e-19)
(0.000273153 -5.49926e-06 -8.13083e-20)
(0.00101057 -0.000677086 -6.91465e-19)
(-0.000198992 -0.000176383 -4.07143e-19)
(-0.352678 -0.398135 2.07054e-17)
(0.000946473 0.00160562 7.14499e-19)
(-0.392917 -0.251671 3.83408e-18)
(-0.00347705 0.000892312 1.60715e-19)
(-0.0149635 0.00293613 -1.25655e-19)
(-0.00117294 -0.00233521 -7.40464e-19)
(-8.74317e-05 -0.000326636 -5.74968e-19)
(0.000278942 1.78181e-06 -1.83241e-19)
(0.00778537 -0.056746 6.88248e-18)
(-0.000793359 -0.000184008 -1.55634e-21)
(0.0377668 0.0900255 -4.04714e-20)
(-0.111963 0.086451 -2.54822e-18)
(-0.000959477 -0.00217521 -1.61526e-18)
(-0.000309618 -3.64551e-06 4.66675e-19)
(0.00726938 0.0905639 -1.12099e-18)
(-0.00499502 0.0101901 -1.33553e-18)
(-0.000640469 -0.000738099 -6.49592e-20)
(-0.0315434 0.0287702 1.39183e-18)
(-0.000701671 1.70842e-06 3.39326e-19)
(0.0076024 -0.0193104 1.15821e-18)
(-0.00298466 0.00490772 -8.39501e-20)
(-0.000231214 8.8543e-07 -7.89763e-20)
(0.0151563 0.136333 1.57731e-18)
(0.0190285 0.00720944 3.25295e-19)
(-0.000294159 0.00216996 -1.87849e-21)
(-0.0693921 0.0711379 -2.5231e-19)
(-0.0108868 -0.00245088 1.60535e-18)
(-0.000202114 -0.000183265 1.77574e-19)
(-0.00033717 -0.00024346 2.39153e-20)
(0.00194585 -0.0035878 -5.54971e-19)
(0.0434767 0.026683 1.78086e-19)
(0.00145267 0.000162525 8.9685e-21)
(0.0198352 -0.219519 6.37658e-18)
(-0.00303502 0.010848 2.20657e-18)
(0.0709628 0.0151975 3.89662e-18)
(0.0011063 0.00185585 4.02231e-19)
(0.00468026 0.00392771 -2.55064e-22)
(-0.0792702 0.056898 -7.30816e-20)
(0.032818 0.104415 2.93485e-19)
(-0.000203112 -3.09706e-06 9.85057e-20)
(0.000417532 -0.00088572 2.39348e-19)
(-0.000585524 0.000129593 1.20274e-19)
(-0.000187243 0.00219041 2.15037e-19)
(-0.00392817 0.00387503 -4.50604e-19)
(-0.0339145 0.0200635 6.17967e-19)
(-0.000324358 -0.000608872 -2.93493e-19)
(0.000845907 0.00412949 -1.942e-20)
(-0.0459271 -0.0409991 3.02847e-18)
(0.000119953 -0.00129132 7.63847e-20)
(-0.000438718 -3.20343e-05 -2.54831e-22)
(-0.386558 -0.261651 -4.10356e-18)
(-0.0147128 0.0012169 -8.67474e-20)
(0.0218891 -0.00553129 -1.87547e-19)
(-0.00423858 0.00533716 1.82367e-20)
(-0.000190915 -2.04277e-06 -4.37837e-20)
(-0.00429336 0.00390426 -7.87113e-19)
(0.000812008 -0.000567445 7.48945e-19)
(-0.00950648 -0.00268363 -1.83775e-18)
(0.00781825 -0.0172705 -1.71201e-19)
(0.00128032 -0.000690283 -9.46805e-20)
(5.40282e-05 0.000235832 -2.66986e-19)
(-0.0107756 0.0327132 -3.19546e-19)
(-0.000594301 5.34814e-05 5.51704e-20)
(-0.0324771 -0.104766 1.77315e-19)
(-0.0310946 0.0348689 -3.16713e-18)
(-0.0862374 -0.301587 1.36233e-17)
(0.0264148 0.00533796 -1.00371e-19)
(-0.00125141 0.000220066 1.99985e-20)
(-0.071172 0.0906084 -1.00115e-18)
(0.00542887 -0.0716149 -1.65923e-18)
(0.00936931 -0.0236114 -2.09605e-19)
(0.00171053 0.000264222 -1.30472e-20)
(-0.0028297 0.0073613 6.78143e-19)
(0.000151085 -2.65027e-05 3.41449e-19)
(-0.0009707 0.000189362 -2.77624e-19)
(0.000878028 0.0011628 1.0199e-18)
(0.000182816 -5.82002e-05 -6.37619e-20)
(-0.00164353 -0.000159865 -1.76732e-20)
(-0.0455672 0.274659 6.54562e-18)
(-0.000431779 -0.00139644 1.37513e-19)
(0.0125316 0.0155731 -9.2416e-20)
(-0.00164064 -0.000903229 -3.09122e-19)
(-7.07803e-05 0.000289826 -3.51751e-20)
(0.05681 -0.000868421 6.27034e-18)
(-0.00521393 0.00465035 9.52563e-19)
(-0.00201183 0.00171893 -4.15165e-19)
(0.000130404 -9.83023e-07 1.2539e-19)
(-0.247566 -0.00920806 -3.28384e-18)
(-0.000244175 -1.81361e-05 3.71139e-20)
(0.0001667 0.000709869 1.88418e-20)
(-0.000216041 -2.31869e-05 -2.64113e-19)
(0.00147743 -0.00211395 8.72658e-21)
(-0.063288 0.0518184 -9.46829e-19)
(-0.0709368 0.0576208 -1.55925e-18)
(0.00115584 -0.00263367 -5.37186e-19)
(0.000154481 -7.57938e-05 1.82478e-19)
(-0.000879378 -0.00169923 6.67493e-19)
(-0.00108478 -0.00114219 3.01257e-19)
(0.0224181 -0.000774811 -1.54272e-17)
(0.00151856 0.000153016 -1.67241e-20)
(0.000126404 -1.15592e-05 7.12028e-20)
(0.00108859 0.00163667 5.00369e-19)
(0.000997188 4.17927e-05 9.54442e-21)
(0.0636642 0.0018008 -2.57762e-19)
(0.0016249 0.00167691 6.6167e-19)
(-0.013043 0.00609994 -8.85181e-19)
(0.100161 0.0363408 -3.928e-19)
(0.0567231 0.278356 5.68903e-20)
(0.0613861 -0.00224041 3.72877e-19)
(-1.42384e-05 0.000456262 6.3131e-20)
(0.0936565 -0.0180951 1.70707e-18)
(0.0218584 0.0221051 7.01542e-20)
(0.00075488 -0.00053806 -6.3086e-19)
(-0.0193366 -0.0395664 -6.92527e-19)
(0.000154379 -0.00144494 9.35548e-20)
(0.000200525 -4.71995e-05 7.17519e-19)
(0.000387156 -0.00134868 1.49485e-19)
(0.000853104 -0.000369334 -4.77492e-20)
(-0.000619098 -0.000672552 6.94444e-22)
(-0.00360489 0.000313894 3.96823e-19)
(0.166514 -0.0255316 -5.51868e-20)
(-0.000272709 -0.00140148 -1.28961e-18)
(-0.00425467 0.000701351 -4.14965e-19)
(-0.0742873 0.0454037 -2.49425e-20)
(0.100583 -0.0269126 -2.5272e-18)
(-0.000178983 -4.07653e-05 3.84605e-20)
(-0.0197548 -0.022636 5.00948e-19)
(-0.000269418 -4.5111e-06 -5.50892e-20)
(-0.0278192 -0.016741 7.50047e-19)
(3.80217e-05 -0.000112795 2.26953e-20)
(-0.0609992 0.122659 -1.1432e-18)
(0.00490936 -0.0110281 7.30954e-19)
(0.0659352 -0.0279381 4.36945e-18)
(-0.0605399 0.158522 -2.33029e-17)
(0.000102045 0.000226613 2.88988e-20)
(0.00831935 -0.0639768 6.51558e-19)
(0.00140108 0.000410732 -2.85911e-20)
(0.0619408 -0.1148 4.8182e-18)
(-0.0032447 5.50853e-05 9.56646e-20)
(-0.0428349 -0.166714 2.36495e-18)
(0.0115929 -0.00681532 -1.40427e-19)
(0.00372819 0.145211 -1.45693e-18)
(-0.000202244 -0.00127182 2.52926e-19)
(-0.029376 -0.0755103 -7.14353e-20)
(0.00255316 1.99168e-05 -8.20509e-19)
(0.0151718 -0.00123775 -6.67832e-20)
(0.0358914 -0.0127698 3.84643e-18)
(-0.00052914 -0.000492965 2.6923e-20)
(0.00234383 -0.000193812 -3.93618e-19)
(-0.000702011 2.67806e-05 -3.53061e-19)
(-0.0706478 0.0310789 -6.16827e-18)
(-0.0010198 0.000194385 -2.51528e-19)
(0.000518521 -0.00109618 -3.15661e-20)
(-0.0104321 -0.0786356 -2.05789e-18)
(0.00444478 -0.00253699 -2.96093e-19)
(0.0153128 0.0276883 -5.21461e-18)
(-0.0429572 -0.158431 8.78218e-18)
(-4.55032e-05 -9.00063e-05 -1.21103e-19)
(0.00665329 -0.0245681 1.03627e-18)
(0.00435934 -0.00198046 -4.89341e-20)
(-0.000274931 -0.000826913 -1.90896e-19)
(0.0124774 -0.00606537 -3.78392e-19)
(-0.0206618 -0.0278059 3.94431e-18)
(0.00109543 1.16556e-05 6.71371e-21)
(0.00142382 -0.00179742 -8.76244e-19)
(0.137412 0.00653481 4.18532e-17)
(-0.0119558 0.00794794 1.99074e-19)
(-0.000348927 -4.31495e-05 2.44416e-20)
(0.0842223 -0.0379824 8.54122e-18)
(-0.000792901 -0.00011232 -6.70253e-20)
(-0.00344337 0.00243949 3.72021e-19)
(-0.021198 -0.013797 -2.34223e-19)
(-0.34215 -0.22415 3.50171e-18)
(-0.252794 -0.315855 -1.05088e-17)
(-0.00111931 -0.00220534 -4.08184e-20)
(-0.0294773 -0.0805531 1.45129e-18)
(0.104286 -0.114994 7.98314e-18)
(-0.0195661 -0.0335887 -1.95628e-18)
(0.000732213 -0.00120861 2.85082e-20)
(-0.0153749 -0.00209125 -3.46854e-19)
(-0.0612403 0.0171353 3.72412e-19)
(-0.0575081 0.0159134 -2.46077e-19)
(-0.016632 -0.0374085 -3.5969e-18)
(-0.000144195 -6.94646e-05 2.07544e-20)
(0.000992799 0.00116273 -8.11338e-19)
(0.0122975 0.0117259 2.96429e-19)
(0.0835978 -0.0808904 1.13796e-18)
(0.000322217 -0.00120385 6.0199e-20)
(0.00376116 0.00167265 1.13643e-20)
(0.000293181 -1.26817e-05 -7.02124e-19)
(-0.000179694 -5.77182e-05 3.8369e-20)
(-0.00354112 0.000267259 3.03407e-19)
(-0.00379127 0.000556446 1.1161e-19)
(0.000847413 -0.000418335 1.98309e-19)
(-0.000168886 4.50517e-06 -2.8396e-20)
(-0.0268631 0.0419116 9.34212e-19)
(-0.00141769 -0.00185771 2.3935e-18)
(-0.00406062 0.00152465 -1.63037e-19)
(0.00323093 0.019427 -4.09465e-20)
(0.127984 -0.0895076 5.83433e-18)
(-0.000731913 -0.000324457 -2.95544e-20)
(0.00146512 0.0299235 -4.05476e-19)
(0.136377 -0.0335915 -2.15415e-17)
(0.0552073 0.0286854 -4.36589e-18)
(-0.000594285 6.42793e-05 1.71396e-19)
(-0.00825062 -0.00580889 -5.26351e-18)
(-0.00050997 -4.11063e-05 -8.42251e-21)
(0.101735 -0.0146682 -2.52278e-18)
(-0.000122461 -0.000184049 -5.17418e-20)
(-0.00865336 0.0116158 5.83016e-19)
(-6.55597e-05 -0.00125838 1.26349e-18)
(0.0545502 0.0123036 -5.61699e-18)
(-0.000766549 -7.97824e-06 -2.25857e-19)
(-0.000600386 -0.00768451 -2.04657e-18)
(0.00359094 0.00184218 4.11787e-20)
(-0.0136777 -0.00307542 -7.95158e-19)
(0.00916267 -0.154278 -6.94989e-18)
(-0.000371042 -6.83167e-05 2.58228e-20)
(0.000443467 -3.37281e-05 -1.24876e-19)
(0.000341273 -0.000993949 -3.87959e-19)
(-0.0505855 0.0320992 -2.41552e-17)
(-0.000818981 0.000331342 -8.54956e-19)
(-0.00508844 0.0092008 2.53822e-19)
(-0.0148217 -0.0475441 -3.34921e-20)
(0.0155111 -0.0616812 2.94305e-18)
(-0.000296904 9.90863e-05 -2.1637e-20)
(-0.00546022 0.0111036 -4.35893e-19)
(-0.00222684 0.157833 4.91679e-18)
(0.161987 0.0146257 -1.49688e-18)
(0.000342257 1.31879e-05 -2.59699e-19)
(0.000179196 -2.26859e-05 4.08706e-19)
(0.022646 0.114726 -1.53198e-18)
(-0.0576262 0.0157766 1.84548e-17)
(0.029078 -0.0132618 -5.5312e-19)
(-0.0444689 0.054791 -2.52746e-19)
(0.000273127 8.70204e-05 1.31003e-19)
(0.00275132 0.00526113 4.1018e-21)
(0.0139124 0.0171184 1.68579e-19)
(0.0150783 0.00813937 7.87123e-19)
(0.00726713 -0.000632417 -3.48247e-19)
(-0.0177002 -0.158022 -6.27759e-19)
(-0.000303838 -4.68294e-05 8.4844e-21)
(-0.000132279 -8.40035e-05 -1.49199e-20)
(0.000659034 0.000875157 3.07989e-20)
(-0.00272097 0.146299 -1.37995e-18)
(-0.00018986 -0.000198589 -1.37716e-19)
(0.0842072 -0.050058 -1.08198e-19)
(-0.00017715 -5.4469e-05 1.31604e-20)
(0.000198234 -0.000155174 7.25451e-19)
(-0.000765 -0.000369901 1.07027e-19)
(0.014934 0.000541097 3.24185e-19)
(-0.0363941 0.0653048 -1.01878e-18)
(0.000577559 0.00139959 -1.71132e-19)
(0.00161149 -0.00155947 4.48265e-19)
(-0.00659649 0.117702 3.76765e-20)
(-0.00666985 0.0171319 -2.42901e-20)
(-0.0084689 0.0307485 2.17009e-18)
(0.000553378 0.00122832 9.19359e-21)
(0.00102738 -0.000779693 -4.10212e-19)
(0.00206051 0.00511587 -2.44152e-21)
(0.160611 -0.00663092 4.87616e-18)
(7.00768e-05 0.000508268 1.5941e-20)
(-0.000813623 -0.000533311 7.39328e-20)
(-0.00548754 -0.0398187 2.08327e-19)
(-0.000728832 0.000194534 6.51208e-19)
(-0.000103458 0.000207322 -4.36412e-20)
(-0.017274 0.0723506 -1.94494e-18)
(-0.00103616 0.0001636 1.43011e-20)
(0.0862249 -0.00863837 -1.77765e-17)
(0.000143925 -8.49038e-05 -1.81237e-20)
(0.0280489 0.0191207 -2.24532e-18)
(-0.00200679 -0.00711845 6.82484e-20)
(-0.072846 0.138944 -3.84391e-19)
(-0.000201744 -0.000184924 8.59861e-21)
(-0.0081093 -0.00779488 4.25801e-18)
(-0.000100068 -3.69234e-05 3.79538e-20)
(-0.000928967 0.000562503 -3.55048e-19)
(-0.00889947 0.107159 -1.68007e-18)
(0.00175549 0.000349587 3.52886e-21)
(0.0768119 0.0960094 4.81151e-18)
(0.0284879 -0.0160479 5.77544e-19)
(-0.000970395 -0.000103143 -2.59617e-19)
(-0.00250812 0.00159926 1.588e-18)
(-0.136311 -0.349339 1.24792e-17)
(-0.0209196 -0.217249 -2.53158e-18)
(0.00472123 0.0158812 1.50708e-19)
(-0.000647158 3.77158e-05 -1.04566e-19)
(-0.000829829 -0.000580028 -5.13055e-20)
(0.000191284 -0.00086573 -1.86758e-19)
(-0.00240484 -0.00601027 2.2171e-19)
(-0.0104825 -0.00587747 -5.71828e-19)
(0.000481289 0.000842201 -9.88334e-21)
(-0.0741914 0.0233613 4.03353e-18)
(-0.000440288 0.000172712 -5.98564e-20)
(0.00137281 8.29878e-05 4.78722e-21)
(0.0330444 0.0793932 -4.00205e-18)
(0.00177283 -0.00835697 -1.813e-19)
(-0.0128049 -0.00572223 2.19312e-21)
(-0.000374428 -2.77917e-05 -6.13665e-20)
(0.000362202 -9.31986e-05 4.86552e-19)
(0.03716 0.0531604 1.08549e-18)
(-0.0687959 0.0316459 -2.12794e-18)
(-0.0013842 -0.00614536 -1.09985e-21)
(-0.00862359 -0.1757 -5.00548e-18)
(-0.00023112 -0.000149591 4.445e-20)
(-0.0077547 -0.0100541 -2.78159e-18)
(-0.000854295 -0.000324678 3.1901e-21)
(-0.000994545 -0.00012178 -1.12838e-19)
(0.000540872 -0.00107553 1.03691e-19)
(0.000510701 -0.000876163 -5.6923e-19)
(0.000275573 0.000484248 -3.86648e-20)
(-0.000123107 0.000119795 -1.79627e-19)
(-0.0328156 0.12915 1.26269e-18)
(0.000105609 -0.00108898 -1.76686e-19)
(0.0321503 0.0611834 1.32055e-18)
(-1.11091e-06 -0.000281585 3.00985e-19)
(0.00107918 -0.00450612 -2.08023e-20)
(-0.000392246 -0.0005953 -7.23154e-21)
(-0.00672851 0.0351621 8.24883e-19)
(0.0173266 -0.242341 -6.1736e-18)
(-0.000976693 -5.80429e-05 -1.67506e-19)
(-5.74298e-05 -0.000303462 4.23935e-19)
(-0.00201778 0.00495023 1.17581e-20)
(-0.00372488 0.0151917 1.59774e-19)
(-0.000486862 -0.000524415 9.30446e-20)
(0.0766197 0.151487 5.86055e-18)
(0.000183291 -7.04658e-05 5.98056e-20)
(-0.0227873 0.0324238 1.77104e-20)
(-0.000817026 0.000236337 -1.69876e-19)
(-1.59852e-05 -3.98479e-05 -2.86093e-19)
(-0.000919512 0.000508036 2.94257e-19)
(-0.220983 0.0173583 2.77168e-18)
(-0.000388666 -0.000536737 -7.99047e-21)
(0.0014589 3.88225e-05 5.59373e-20)
(0.00170034 0.00189452 -6.48814e-20)
(0.0568139 0.118028 -1.88646e-17)
(0.000864291 2.87354e-05 -1.93681e-20)
(0.000597468 -0.000974731 -2.48757e-20)
(-0.000358453 0.000102871 3.22132e-20)
(-0.0748185 -0.0267386 1.54704e-19)
(-0.000181326 -4.23317e-05 -2.88011e-20)
(-0.000264558 -0.000404053 1.45266e-19)
(-0.000781648 -1.8772e-05 -3.62024e-19)
(-0.000292183 -0.000403195 -6.46621e-20)
(0.00792879 -0.00129743 2.71351e-19)
(-0.000108244 -0.000505542 6.18727e-20)
(0.00112154 -0.00368608 -2.33887e-19)
(-0.000835161 -0.000295573 -3.07774e-20)
(-0.0840076 0.229655 5.49888e-17)
(-0.0711749 0.0349338 -3.0179e-18)
(0.0171409 -0.117385 1.72338e-18)
(-0.00322786 -0.00044512 -2.91822e-19)
(-0.00508398 -0.00432026 -3.50551e-19)
(-8.83731e-05 -5.30224e-05 6.79908e-21)
(-0.0405527 0.0475811 -1.71715e-18)
(-0.000273472 -5.3438e-06 -2.6846e-20)
(-0.0349702 -0.0225637 -1.52372e-18)
(0.0151304 0.042609 1.13457e-18)
(0.02747 -0.0738707 -2.64766e-18)
(-0.0274984 0.0285569 3.55163e-19)
(-0.0336973 0.127452 2.58474e-18)
(-0.000233117 -0.000129326 1.65129e-19)
(6.9906e-05 0.000317468 1.46798e-20)
(-0.0312713 0.200627 2.27925e-17)
(-0.06921 -0.0325883 -2.15004e-20)
(-0.00418002 0.00281702 7.19729e-19)
(-0.059707 -0.0428375 3.41871e-19)
(0.000315458 -0.000728517 1.80033e-18)
(-0.0682224 0.0298139 7.87823e-19)
(0.00064427 -0.000345902 7.3129e-19)
(0.000384777 0.000193355 4.25559e-20)
(-0.000703936 -0.000307966 -6.70467e-21)
(-0.000803561 0.000292547 7.38988e-19)
(0.000170444 -3.3802e-05 -4.97354e-19)
(-0.0322734 0.198197 -1.07356e-17)
(-0.000686819 -0.00225602 2.22598e-18)
(0.000698935 -9.15336e-05 1.69906e-20)
(0.224338 -0.0262047 2.83885e-18)
(-0.000447856 -2.00543e-06 -7.35542e-20)
(-0.0336175 0.0563742 -2.22677e-18)
(0.00425927 0.0026789 -1.45967e-20)
(-0.00120628 -0.00177566 -2.38906e-18)
(-0.00300643 0.0086787 -2.02024e-19)
(0.000241894 0.000110594 -1.55899e-19)
(-0.0432919 -0.0797017 1.37005e-18)
(0.000870091 -0.000441113 -4.89053e-19)
(0.000390544 -0.000801923 1.39902e-19)
(0.0308023 0.0530174 -1.11081e-18)
(0.000271044 -0.000123329 -1.05382e-19)
(0.00141307 0.000101145 4.66867e-21)
(0.00038451 -2.96474e-06 1.05828e-19)
(0.000709927 -0.0004051 9.61639e-19)
(0.000451554 -0.000225311 -1.24802e-19)
(-0.0104581 -0.0647473 2.71814e-18)
(-0.00839151 0.0834061 1.94023e-18)
(-0.0749667 0.0330782 -1.80058e-18)
(-0.000307601 -0.000607597 -1.39734e-18)
(0.000910222 -0.000428533 -6.59105e-20)
(0.000652668 -0.000394835 -5.19418e-19)
(-0.0675344 0.0489954 -2.1189e-19)
(-0.000490503 0.00480262 3.69474e-19)
(0.00114792 -0.000861304 -6.24177e-19)
(-0.000244412 -0.000224647 1.14506e-20)
(0.000871822 0.000831137 -5.48518e-19)
(-0.044952 0.131547 -8.47284e-19)
(-0.377884 -0.409656 1.90539e-17)
(0.00491646 0.00567012 5.81013e-20)
(-0.00276294 0.00144216 3.51163e-19)
(-0.00023385 -1.84193e-05 -1.59753e-19)
(-0.0865899 0.193473 -1.23733e-17)
(-0.00863666 -0.0087965 -1.06293e-18)
(-0.00218406 0.000420356 6.7085e-19)
(0.00463014 0.0315275 -3.24816e-19)
(-0.0309847 -0.0468686 1.01207e-19)
(0.0747538 0.00492215 1.21907e-18)
(-0.0554892 0.104852 -1.06543e-18)
(0.000667988 -0.00033365 -6.6734e-19)
(-0.000470005 8.15207e-05 1.71528e-19)
(0.000907797 -0.000423361 -1.47845e-19)
(-0.0249145 -0.0534118 -9.67077e-19)
(0.000654378 -0.000308681 -3.16335e-19)
(-0.00615564 -0.00514466 -3.32118e-18)
(0.000808767 -0.000625473 -9.44748e-19)
(0.00184502 0.000346624 8.885e-21)
(-0.0035375 0.00629646 -4.97386e-19)
(0.000578578 -0.00106408 -3.15107e-20)
(-0.230645 -0.00459714 3.21208e-18)
(-0.113048 0.108324 4.85449e-18)
(-0.000597833 -0.000890547 5.00892e-20)
(-0.000134339 -0.000247542 -3.08504e-19)
(0.000696441 -0.000982956 -1.28317e-19)
(-0.00198757 0.000510595 3.489e-20)
(-0.000834304 0.000266063 -2.00398e-19)
(-0.0561892 -0.157726 -5.95027e-18)
(-0.000376045 -0.00175732 -8.03521e-19)
(-0.340594 -0.291655 -1.5102e-17)
(0.000835929 -0.000424444 -1.72826e-19)
(-0.000730137 0.00165827 -3.7465e-19)
(-0.000994079 -4.71541e-05 2.23311e-19)
(-0.000125385 -9.12114e-05 4.28739e-20)
(-4.54006e-06 0.000214596 4.21558e-19)
(0.00273911 0.00110823 2.73166e-20)
(-0.000139967 -0.00020564 4.2585e-20)
(0.000200392 -0.00134282 -4.43168e-19)
(-0.00490956 0.00174751 -1.56875e-18)
(-0.000905371 -0.00686575 2.84402e-19)
(0.0245411 -0.11653 -9.64097e-18)
(-0.000277495 -9.69727e-05 -2.92737e-19)
(-0.0572044 -0.0270413 5.67314e-20)
(-0.0344856 -0.0443238 -2.19578e-20)
(-0.000254693 -2.74161e-06 5.35125e-20)
(0.0763339 -0.0664857 -5.59781e-18)
(9.06634e-05 -0.00027476 -7.76454e-19)
(0.00189526 0.000944183 3.289e-19)
(0.00538702 -0.0130291 -1.85422e-19)
(-0.000676555 2.26968e-05 4.58523e-19)
(0.00103711 -0.195859 2.41317e-18)
(0.000804164 -0.000565968 8.28974e-19)
(-0.00283179 -0.000613527 1.0328e-19)
(-0.000716534 -0.000384288 -6.85046e-20)
(0.00155866 -0.0394586 1.33779e-17)
(-0.000738343 0.00159187 5.97888e-20)
(-0.0280345 -0.0616835 5.14146e-19)
(0.0222629 -0.0176234 1.70915e-18)
(0.000869964 -0.000447515 -1.17356e-19)
(0.0534301 0.0304953 -4.81123e-19)
(-0.0220512 -0.0379833 4.20743e-19)
(0.00390403 0.00279709 -1.58204e-20)
(-0.000928195 0.000782351 1.50225e-19)
(-0.0540343 -0.0489991 1.40951e-18)
(5.83799e-05 -8.3737e-06 6.73514e-20)
(0.0878121 0.080511 -9.04668e-18)
(-0.00338974 0.000782889 1.00566e-18)
(0.00894937 -0.0114643 1.97855e-19)
(-0.00505576 0.00610937 -2.50186e-19)
(-0.000269036 -0.000553862 2.01984e-19)
(0.000418856 -3.04783e-05 1.83829e-19)
(0.000923631 -0.00135399 7.35109e-20)
(0.00139671 0.0182503 -1.09641e-18)
(0.01074 -0.0122561 -2.72404e-19)
(0.0229477 0.038124 -1.35805e-19)
(0.0916349 -0.0265588 -1.49768e-20)
(0.00190016 0.000444185 -3.32917e-20)
(-0.00157475 -0.00742717 4.53461e-19)
(-0.000246297 -7.74788e-06 -1.42028e-20)
(-0.0188179 -0.0167839 -1.00172e-19)
(4.22376e-05 -1.00386e-05 2.47603e-19)
(-0.0630942 -0.125268 2.92054e-18)
(-0.000388606 -0.000925601 3.52037e-19)
(5.8398e-05 0.000642688 -2.52081e-20)
(0.0202974 0.0444581 7.58444e-19)
(0.00077148 -0.000415223 2.83213e-20)
(-0.046514 -0.047251 7.84991e-19)
(0.0172421 0.00785002 -8.07143e-19)
(-0.00022566 -1.27033e-05 -6.15939e-20)
(-0.0263691 -0.0841693 1.0804e-18)
(-0.00828302 0.00187307 -2.10689e-20)
(0.00125019 -0.000233839 1.07209e-19)
(0.000999774 -0.00156108 2.62628e-19)
(0.0181362 0.0212973 -4.25737e-18)
(0.00127621 0.00189201 -9.94029e-19)
(0.0824796 -0.0178873 1.1371e-17)
(0.000231989 -0.00118873 8.06758e-19)
(0.0148366 0.0236009 2.14589e-18)
(-0.00688272 -0.0050633 4.00866e-18)
(-0.0825934 -0.0993152 4.54557e-19)
(0.00116912 -0.00137854 9.7772e-20)
(0.0137966 0.00629236 -1.97823e-19)
(0.00992659 0.00110289 -2.71846e-19)
(0.000356351 -0.0014724 -9.688e-20)
(0.0216719 -0.0149927 -1.1792e-18)
(-0.000799105 -0.000133407 -2.07441e-19)