/*--------------------------------*- C++ -*----------------------------------*\
| =========                 |                                                 |
| \\      /  F ield         | OpenFOAM: The Open Source CFD Toolbox           |
|  \\    /   O peration     | Version:  v2012                                 |
|   \\  /    A nd           | Website:  www.openfoam.com                      |
|    \\/     M anipulation  |                                                 |
\*---------------------------------------------------------------------------*/
FoamFile
{
    version     2.0;
    format      ascii;
    class       volVectorField;
    location    "400";
    object      ddt0(U);
}
// * * * * * * * * * * * * * * * * * * * * * * * * * * * * * * * * * * * * * //

dimensions      [0 1 -2 0 0 0 0];


internalField   nonuniform List<vector> 
10042
(
(0.037334 -0.00134876 -4.21881e-19)
(0.00562747 -0.24228 -5.94454e-19)
(-0.0187452 -0.0865951 -4.42055e-19)
(0.00794843 -0.000136795 -1.97079e-19)
(-0.00013271 2.72074e-05 7.82133e-20)
(0.0290575 0.0881323 -1.37802e-19)
(0.0732388 0.167432 1.72243e-19)
(-0.0378942 0.0120866 -2.19745e-20)
(-0.00133753 0.000243676 -5.39986e-20)
(-0.0147294 0.0129474 1.87396e-18)
(0.0164648 0.00853563 -3.93483e-20)
(-0.00647819 -0.272715 7.14721e-18)
(0.0198291 -2.04876e-05 -4.31766e-19)
(-0.000730486 -0.00112992 -2.37589e-20)
(0.00750853 0.000809111 -1.42593e-19)
(-0.000443963 -0.00129843 -6.35914e-21)
(0.0202869 0.106329 7.98852e-19)
(0.0153119 0.00832434 -6.24866e-21)
(0.00302303 0.000206754 4.22308e-19)
(-0.0155557 -0.000792811 -1.72824e-18)
(0.020308 0.00268643 -5.66853e-19)
(0.0358071 0.0101126 -9.72986e-19)
(0.00479819 -0.000141876 1.04021e-19)
(0.0391875 -0.0973869 6.55456e-18)
(0.00328535 -0.000376298 1.17937e-19)
(0.000291628 -1.92455e-05 1.5461e-19)
(-0.0154533 0.0131149 1.18831e-18)
(-0.000585591 -0.000278036 3.4497e-19)
(0.0357881 0.0896674 -3.47605e-19)
(0.0502667 0.0198655 4.1076e-18)
(0.00277557 2.58488e-05 1.12836e-19)
(0.00734181 -0.0281059 -1.53224e-18)
(-0.00190901 1.52305e-06 -4.45412e-19)
(-0.00230452 -5.06315e-05 6.03789e-19)
(-0.0485364 0.0234865 1.39268e-19)
(-0.0475259 -0.00342568 -1.09913e-20)
(0.00430874 1.90439e-05 2.78278e-19)
(0.00146535 0.000456036 -1.09245e-19)
(0.00177446 2.85134e-05 4.54194e-20)
(-1.24583e-05 -0.00100734 -9.46237e-22)
(0.0483449 -0.0272033 1.12676e-17)
(-0.00177445 0.000176146 1.10042e-19)
(0.125768 0.0130047 -8.59285e-19)
(-0.0538762 -0.336421 6.74489e-18)
(0.00441127 -0.000333364 2.08521e-19)
(0.00574687 -0.000378504 1.64984e-19)
(0.000392471 -0.000471745 1.76849e-20)
(0.00843646 0.000816478 7.04391e-19)
(-0.00889663 0.0429994 8.78975e-20)
(0.12483 0.064326 -2.25792e-18)
(0.126886 0.0250541 1.99582e-18)
(0.00439895 -0.000145118 1.39336e-19)
(0.0250613 0.0902268 4.90686e-20)
(0.00433731 0.000611692 7.17596e-20)
(-0.126849 -0.125027 9.99206e-18)
(-0.210235 0.187594 -1.03051e-17)
(0.0191285 0.00382625 3.90844e-19)
(0.0137757 0.0100638 1.02737e-19)
(0.00361588 0.00151029 -1.59275e-19)
(0.000479611 -8.41631e-05 5.82523e-21)
(-0.0143174 0.0400117 3.11939e-18)
(-0.139603 -0.101136 4.22314e-18)
(0.10859 0.00683971 -8.67352e-18)
(-0.00474279 0.0675838 5.72156e-19)
(-0.00512055 0.00156263 1.47628e-19)
(0.0033866 -0.000127939 2.9657e-21)
(-0.0131168 -0.00414575 1.65714e-18)
(0.00210815 -0.107903 5.20469e-19)
(0.000431964 -0.00042181 2.9028e-20)
(0.0150244 -0.0856587 1.05593e-18)
(0.141124 0.0395896 4.21546e-18)
(0.00013652 0.00202584 -5.85945e-19)
(0.00121541 3.06488e-05 -4.33e-20)
(0.00379597 0.00137974 -2.59776e-20)
(0.00247267 -3.46132e-05 -3.78716e-19)
(0.143886 0.0280945 -2.29845e-18)
(-0.00499517 0.00465365 3.30126e-20)
(0.000387046 -0.000472995 3.47778e-20)
(-0.0048164 0.00537125 -1.49699e-19)
(0.00257506 -0.000378489 -1.31479e-18)
(0.00147393 -0.252673 2.05361e-18)
(0.0461045 -0.0565452 -1.03509e-17)
(0.00276664 -2.05202e-06 -1.53567e-19)
(0.00529906 -1.179e-07 -4.19772e-19)
(-0.0128069 0.0143859 -3.63537e-18)
(-0.0457442 0.0742624 4.9548e-18)
(-0.0125633 -0.00466209 7.17453e-19)
(-5.61843e-05 -0.0838943 -7.61925e-19)
(0.00470166 0.000849422 -1.45029e-19)
(-0.00429031 0.00269443 3.53649e-21)
(0.0104398 -9.74788e-05 2.32393e-19)
(0.00655965 0.0007268 7.13451e-19)
(0.0994016 0.0111544 9.11661e-18)
(-0.0643521 0.0770584 -3.75132e-18)
(-0.00455048 0.00303992 2.62654e-19)
(0.00485299 -0.000567759 4.67374e-20)
(-0.11206 -0.938683 1.60836e-16)
(-0.0133353 -0.00175936 1.5821e-19)
(-0.0548246 -0.0501077 -2.27134e-19)
(0.0047877 0.00123034 4.40276e-19)
(0.00905443 0.000479695 -2.29971e-20)
(-0.0308655 0.00341364 7.1384e-19)
(-0.00455346 0.0011884 -2.51638e-19)
(0.00403621 -0.0193515 -1.60785e-19)
(0.00571468 0.00245328 2.52438e-18)
(0.00242621 0.000817618 8.73028e-20)
(-0.0555844 -0.0020631 2.21859e-17)
(0.00232812 -0.000270816 4.74613e-20)
(0.0441415 0.200708 -3.85856e-19)
(-0.000108174 0.00106287 -1.58989e-19)
(0.0049016 0.00129359 2.0673e-19)
(0.00487484 0.170014 -9.52189e-20)
(-0.0229498 0.00335497 -6.71299e-19)
(-0.0129111 0.0760603 -5.71634e-19)
(-0.00439814 0.00159106 1.6505e-19)
(0.000907515 -0.000382895 -4.88755e-20)
(-0.00248252 0.00863138 1.83419e-20)
(0.00170203 2.55964e-05 -6.83497e-21)
(0.0128691 0.0101748 2.5225e-19)
(0.00102533 -0.000226096 1.63065e-20)
(0.000493364 -9.34171e-05 -5.87722e-21)
(-0.107002 -0.339382 7.18846e-18)
(-0.116411 -0.354078 -2.77426e-17)
(0.00593318 -0.000367676 -4.47306e-20)
(-0.00433516 0.00314375 1.36726e-20)
(0.00281301 0.00104865 -3.72203e-19)
(-0.000407437 0.00113415 -2.09643e-20)
(-0.0713609 -0.0529282 1.41129e-17)
(0.126768 -0.102693 -1.21549e-18)
(-0.00254563 0.00712851 1.75282e-19)
(0.00010651 0.000958624 -4.65056e-19)
(0.00441595 0.000317468 -9.67036e-20)
(0.00189106 0.00165599 1.59664e-19)
(0.00441818 -0.000843648 -1.87705e-19)
(-0.0270049 0.176732 -7.27209e-20)
(0.115972 0.0572311 -3.01837e-18)
(-0.0119072 -0.0112765 -7.42561e-19)
(-0.114613 -0.0489491 8.31611e-18)
(0.000652897 0.00261874 1.07489e-18)
(-0.0582129 -0.026909 -1.52603e-20)
(0.0668312 0.00258205 -2.92934e-20)
(-0.000423505 7.71961e-05 -5.6333e-19)
(-0.0480748 -0.048502 -2.31196e-17)
(-0.000432966 -0.000226222 -4.28861e-19)
(0.00210262 0.0106193 -3.39292e-19)
(0.00163682 0.000529453 -3.83284e-20)
(-0.013494 0.0137881 4.35567e-18)
(0.000433708 -0.000359117 1.14557e-19)
(-0.00605166 -0.000720299 1.6926e-19)
(0.0311726 -0.265094 -1.05896e-17)
(0.00433011 -0.000183781 -5.66713e-20)
(0.000431071 7.78476e-05 -3.29749e-19)
(0.00710958 0.00297101 -9.17879e-19)
(0.0271846 -0.00295027 1.56216e-20)
(-0.0048217 0.00261863 3.30089e-20)
(0.00183391 0.0112219 2.71831e-19)
(0.120584 -0.0873136 -5.4686e-18)
(-0.266888 0.1075 1.72184e-18)
(0.00194683 0.00163107 8.39744e-21)
(0.0002808 -1.85351e-05 -6.92456e-21)
(0.00318636 -7.90872e-06 1.04791e-19)
(7.70658e-05 -0.00118247 -6.58594e-22)
(0.112869 0.0640177 2.62916e-18)
(0.0017602 0.00091713 2.56413e-19)
(-0.000947334 0.0022865 -4.22183e-19)
(0.037267 -0.207158 8.61155e-18)
(0.0012157 0.000150148 2.02373e-19)
(0.00628245 -0.0216604 1.37238e-18)
(-0.053017 0.00133688 8.51391e-21)
(-0.00225853 -0.000194568 -3.81794e-19)
(-0.00547798 0.000315946 -2.52031e-19)
(0.0466153 0.0578144 -5.706e-18)
(-0.138362 -0.224806 -1.49094e-17)
(-0.00244271 -0.000177547 1.02265e-19)
(0.00466357 0.00116624 3.09901e-19)
(-0.142677 -0.28888 2.38646e-17)
(0.00322443 -0.000688888 2.03718e-19)
(0.00158814 0.000598237 2.79916e-19)
(0.00364585 0.000296097 9.47896e-20)
(0.000221439 -0.00044318 1.00035e-19)
(-0.00115913 0.00259327 -5.95029e-19)
(0.00491974 0.00485459 5.77171e-19)
(0.00396538 0.00135406 -7.07979e-19)
(0.00122527 -0.00020216 7.50054e-20)
(0.0010726 -0.00676203 1.0518e-20)
(0.00780821 -0.00563571 1.00977e-19)
(0.000528946 0.00261139 -5.18754e-19)
(0.000483802 -6.26371e-05 4.63604e-21)
(0.138574 0.083707 3.63798e-18)
(0.00172394 5.93891e-06 3.93824e-20)
(0.0493823 -0.215244 2.58618e-20)
(0.0187367 0.00612524 4.43214e-19)
(-0.000459837 0.00103786 4.41971e-19)
(0.00645336 0.00450806 1.48192e-19)
(0.0205952 -0.0193057 -2.25805e-17)
(0.00635765 0.000610214 -1.22335e-18)
(0.0544744 -0.550278 4.60326e-17)
(-0.014625 0.000442737 -1.86185e-19)
(-0.342435 -1.19391 3.68284e-17)
(0.00490751 -9.77139e-06 3.50142e-19)
(0.176998 -0.116359 8.05777e-18)
(0.0825444 0.00516583 -9.80362e-19)
(-0.00789748 0.0553514 2.28598e-20)
(0.00103052 -0.000220924 -1.8914e-19)
(-0.0632459 -0.054588 -1.30575e-18)
(0.00260236 0.00152259 -7.27198e-20)
(0.00488493 -0.200871 -1.52346e-18)
(0.0247728 -0.000668626 -1.9807e-19)
(0.00719299 0.00116689 -8.50805e-20)
(0.00444575 -0.00102819 4.00075e-20)
(0.00457808 -0.0250376 8.99989e-19)
(0.000781014 -0.000264318 1.2321e-19)
(-0.0166477 0.0689911 4.31873e-19)
(0.00724034 0.0493249 4.59431e-19)
(0.0028375 9.19131e-06 -1.39489e-19)
(0.0114664 -0.0816339 1.86986e-18)
(0.000491635 -0.000250971 -6.39727e-20)
(0.0398542 0.10478 2.62773e-18)
(0.00865416 -4.00023e-05 2.43473e-20)
(0.16396 -0.0951563 -7.66242e-18)
(-0.010821 -0.712154 -8.00668e-18)
(-0.00666756 -0.000447654 1.00243e-19)
(0.00203952 -0.725235 -1.79905e-17)
(0.0189931 -0.0721083 -1.99262e-18)
(0.00756767 -0.000115801 -1.75508e-19)
(0.0889772 0.000843202 2.49649e-19)
(-0.00283989 -0.00130187 4.5037e-19)
(-0.0113689 -0.0109017 6.72301e-19)
(-0.0148941 0.0141865 1.30645e-18)
(-0.00348034 0.00156442 5.62579e-20)
(0.00113097 0.000684515 9.49787e-20)
(0.000513694 0.00127865 1.12714e-19)
(0.0077015 -0.00470727 8.78177e-19)
(0.00245847 1.44594e-05 5.30948e-20)
(0.00300492 -0.000644756 -2.80613e-19)
(-0.0406756 -0.00115873 -8.70162e-21)
(-0.00629433 -0.0125263 -1.30523e-18)
(-0.222316 -1.12637 -1.23133e-16)
(0.00248456 0.00958665 6.42296e-20)
(0.0361791 -0.124091 -2.74419e-18)
(0.059915 0.112592 2.84513e-18)
(-6.24308e-05 0.121669 -2.06893e-18)
(0.000493406 -0.000111391 -5.75284e-21)
(-0.000124117 -0.00126789 1.91044e-21)
(-0.109763 -0.624237 8.71989e-19)
(-0.000111584 2.75465e-05 1.10958e-19)
(-0.0139703 0.113511 9.4428e-19)
(0.00242049 0.0089474 5.528e-20)
(0.00870583 0.00325391 -1.77204e-19)
(0.000217445 1.01014e-05 9.45581e-20)
(0.00485851 0.00206361 -2.49465e-18)
(-0.000570637 0.00117258 -2.75661e-19)
(0.0315153 -0.0141124 2.54078e-19)
(-0.173015 -0.312569 -2.30876e-18)
(-0.00774514 -0.000956606 -1.28273e-19)
(-0.00392935 -0.0115561 -2.12683e-20)
(0.00255692 6.62618e-06 1.543e-19)
(-0.00684866 -0.00266365 -2.44201e-19)
(-0.00132856 -0.927352 -1.34506e-16)
(0.00792913 -7.39098e-05 6.95363e-20)
(-0.00496217 0.00236853 -2.11744e-20)
(0.00069956 0.000218812 -1.34144e-19)
(0.00449578 -0.000131442 1.05131e-19)
(0.000342757 -0.000548076 -4.82411e-20)
(0.0198713 -0.00159534 5.99284e-19)
(-0.131328 -0.389389 -1.1233e-18)
(-0.00490513 0.00214674 -1.25817e-19)
(0.0250712 -0.00840211 1.20178e-19)
(0.00607672 1.91406e-05 1.26019e-19)
(0.00192212 0.001346 3.73851e-20)
(0.0106392 0.000356136 -1.51576e-19)
(0.121783 0.0619538 4.78472e-18)
(-0.000526247 -0.0003018 -4.14939e-20)
(0.15338 0.0485698 9.39331e-18)
(-0.00456248 -0.00269341 5.1464e-19)
(0.0110613 0.0152761 -3.05515e-19)
(0.00700477 0.000435313 5.73676e-19)
(0.00194495 -0.0005167 -8.26763e-20)
(0.00605509 1.40722e-05 -1.70909e-19)
(0.0527974 -0.0529962 -3.02747e-18)
(-0.00109739 -0.000284396 1.71279e-19)
(0.0271776 0.0327476 1.90721e-19)
(-0.0295666 -0.56493 -3.46142e-17)
(0.00285019 0.000560488 4.12686e-19)
(-0.00597716 1.53484e-05 2.56121e-19)
(-0.236987 -1.02098 -4.90817e-17)
(-0.000858259 0.00270285 -1.52519e-19)
(0.000144724 -0.00104172 9.62371e-20)
(0.0244833 0.0181004 -4.66138e-19)
(0.000792648 6.13376e-05 5.99954e-21)
(0.014705 0.0084684 1.00041e-19)
(-0.000794056 0.00371293 -1.21984e-19)
(0.00309278 2.70614e-05 1.8567e-19)
(0.0423439 0.0676208 4.8417e-19)
(-0.0052622 0.00165886 2.2938e-19)
(0.0014827 -0.00166981 1.85164e-20)
(-0.0988992 0.260308 3.62064e-19)
(-0.00973406 -0.0124232 1.19331e-18)
(0.0103159 0.000394295 3.11632e-19)
(0.000448612 -0.000252536 -1.72032e-19)
(0.00394077 0.00300079 4.26441e-19)
(0.00645305 0.0577463 -4.2156e-19)
(0.000502349 -6.56372e-05 1.77517e-22)
(0.064232 0.126614 -1.1287e-18)
(-0.00124191 0.00354072 -4.41554e-20)
(-0.178255 -0.087964 5.38834e-18)
(-0.000832127 -0.000358441 -2.18833e-20)
(-8.07947e-05 -0.00148025 -1.86522e-21)
(-0.110157 0.286473 -6.99209e-19)
(0.0521433 0.029294 -1.72185e-19)
(0.00757839 4.92735e-06 -1.75782e-19)
(0.00535172 -0.000516267 -4.90614e-20)
(0.00335031 -0.000510612 9.8861e-20)
(0.00124667 -0.00155618 8.76152e-21)
(-0.000695588 0.00355805 1.28277e-19)
(0.0191476 0.017211 -3.28682e-19)
(0.000281985 -0.000526898 1.89157e-19)
(0.00152784 -0.00577215 -1.84275e-20)
(0.024536 -0.13359 -3.00451e-18)
(0.000936841 -0.000316079 -3.37886e-20)
(0.000321689 -3.98904e-05 -3.7917e-21)
(0.145994 0.0596835 -1.16383e-17)
(0.00914558 0.015155 5.42103e-19)
(-0.0229735 -0.0875195 3.12648e-18)
(-0.00258558 -0.0100412 -1.25261e-19)
(0.00280815 7.91625e-06 2.44209e-19)
(-0.00586277 -0.00753976 7.56781e-19)
(0.00398869 0.000452199 2.90268e-19)
(-0.00815372 -0.0116841 -2.94656e-19)
(0.0126935 0.00853221 -1.88e-19)
(0.00255345 0.00154882 -1.63815e-21)
(0.00750736 0.000539526 2.41408e-19)
(0.0368672 -0.0134635 5.65147e-19)
(0.000806021 4.80429e-05 2.70978e-19)
(0.0163879 -0.185389 8.78503e-18)
(0.0278045 0.023789 6.3527e-19)
(0.00900733 -0.0175631 -4.61898e-18)
(-0.036642 -0.109722 -2.17443e-19)
(-0.00150196 0.00126498 -8.56038e-20)
(0.0322365 -0.138939 -6.36647e-18)
(0.0660692 0.0105774 2.6851e-19)
(0.0201495 0.0105702 -1.58625e-19)
(0.000530774 -0.000118775 7.67971e-21)
(-0.0067907 -0.00411318 3.54694e-20)
(0.00510191 -9.90458e-06 -6.04938e-21)
(0.00107322 0.000737961 2.62282e-19)
(0.0013997 -0.000123894 5.71815e-20)
(0.00347089 -1.92172e-05 -3.33272e-19)
(-7.58155e-05 0.00323505 -7.87894e-20)
(-0.283897 -1.07845 3.2669e-17)
(0.00734986 0.000923381 8.10814e-19)
(-0.00405552 0.00248483 -7.49342e-20)
(-0.000401767 0.00327006 4.77285e-20)
(-0.00361406 -0.00493831 2.37407e-19)
(-0.114993 -0.0456598 -8.12592e-18)
(-0.00650787 -0.00759727 3.12892e-19)
(-0.0033157 -0.00089393 4.56278e-19)
(0.00314489 -2.28168e-05 1.23656e-19)
(0.34645 -0.0809282 1.41961e-17)
(0.0003384 -1.8749e-05 -3.37469e-19)
(0.00403949 0.000787259 -6.9511e-20)
(0.0042184 3.67509e-05 -1.25865e-19)
(-0.00082003 0.00245124 7.08538e-20)
(-0.0136085 0.00368344 -8.34176e-18)
(0.0342406 -0.0527919 1.16523e-18)
(0.000229644 0.00235123 -4.53906e-19)
(0.00541637 -5.43467e-05 -1.7721e-19)
(0.00121794 0.003163 -7.61887e-20)
(0.00150747 0.00309363 2.37806e-20)
(0.0214575 -0.00599394 -7.72535e-18)
(0.000486251 -7.08578e-05 -2.4114e-21)
(0.00610445 -3.02998e-06 -2.33359e-20)
(-0.000797587 -0.000261656 1.37994e-20)
(0.000416043 -1.61502e-05 -1.01532e-20)
(-0.0405065 0.0586638 -5.19951e-19)
(-0.000749028 -5.85527e-05 -4.82942e-20)
(0.0118886 0.0124483 -3.52939e-19)
(0.0733813 0.0689516 -1.50433e-18)
(0.0697462 -0.537818 -1.22791e-17)
(-0.029234 0.0591634 2.32791e-19)
(0.00485796 0.000445284 -1.29368e-19)
(0.0691249 0.070518 2.23329e-18)
(-0.0144958 0.013518 1.23213e-18)
(0.00302836 0.000461976 -4.82162e-20)
(0.0358979 -0.0170548 -7.79811e-19)
(0.000977883 -0.0002868 8.15163e-20)
(0.00306113 -2.09579e-05 2.67809e-19)
(0.00133804 -0.000201763 -6.59176e-21)
(0.00308303 0.00165783 -2.05221e-19)
(0.000240242 -0.000971601 2.20854e-20)
(-0.00436441 -0.00325639 3.88838e-19)
(-0.105961 0.0755925 8.2856e-17)
(0.00721111 0.00109641 -8.20939e-19)
(-0.0037791 -0.0111522 -2.72989e-19)
(0.0351384 0.00176387 -1.5571e-18)
(-0.177939 -0.211522 -2.58205e-19)
(0.00528482 -6.37724e-05 -3.83225e-20)
(-0.0386775 0.0393018 -1.88909e-19)
(-0.00819255 2.00866e-05 8.93897e-20)
(0.0109452 -0.0275693 1.30241e-18)
(0.00546831 -0.000136649 -1.16029e-19)
(-0.140202 -0.906054 2.20003e-17)
(0.000645842 0.00237451 3.38092e-21)
(-0.148811 -0.0931748 1.22262e-17)
(-0.103716 -1.23511 -9.98481e-18)
(-0.0044489 -0.00506944 -2.16486e-19)
(0.0577035 0.0126349 7.51993e-20)
(-0.00702912 -0.00774016 -2.24602e-19)
(0.0673333 0.0991082 -1.10806e-18)
(-0.00230165 -0.00314825 5.79592e-19)
(-0.037217 0.064441 5.69133e-19)
(0.00339793 0.0107898 6.21803e-19)
(0.0146872 0.101447 1.02627e-18)
(0.00959392 0.00113071 1.32521e-18)
(0.0307608 0.105806 -1.60031e-18)
(0.00391246 0.00202686 8.82109e-20)
(-0.000360194 0.0134546 8.56529e-19)
(-0.0330883 0.00944191 -9.79464e-18)
(5.74817e-05 -0.000663485 -3.32927e-21)
(0.0041733 0.0017246 1.00271e-19)
(-9.31253e-06 0.000114133 3.54059e-19)
(0.0332228 0.0528424 6.29957e-19)
(0.000195805 0.000832102 -4.02508e-19)
(0.00122403 -0.000167391 3.74529e-20)
(0.0738768 -0.000893319 9.15765e-19)
(0.00612968 0.000708567 -9.08216e-20)
(-0.0114464 0.0130015 3.36231e-19)
(-0.0295621 0.0551324 -5.4329e-19)
(0.00805747 -9.66954e-05 8.14059e-20)
(0.0213679 0.00816503 -3.51914e-19)
(0.00569653 0.000966202 5.51424e-20)
(0.000192917 -0.000572237 3.64776e-20)
(0.00340842 0.0115642 -1.08301e-18)
(-0.0294504 -0.0128851 -7.98624e-20)
(-0.00704411 -0.00604998 9.34068e-20)
(0.00104529 0.00236618 -1.99032e-19)
(0.135049 0.478488 -5.67371e-18)
(0.0127531 0.0121949 2.32542e-19)
(-0.000126524 -4.79591e-05 -4.00952e-20)
(-0.198671 0.159973 -2.82047e-18)
(-0.000255836 -0.000119021 1.72372e-19)
(-0.00193172 0.00353345 -2.5496e-19)
(-0.0119164 -0.0376955 -1.26463e-20)
(0.152118 0.0745472 -1.94592e-18)
(0.12176 0.058666 -2.70473e-18)
(-0.00479357 -0.00817301 1.32602e-19)
(0.027603 0.110133 -1.95661e-18)
(0.105057 0.0648877 -5.47898e-18)
(-0.0183807 0.0464457 2.53802e-19)
(0.00117677 -0.000116956 8.57256e-20)
(0.00835523 0.017989 1.70373e-19)
(-0.200962 0.0528833 2.99995e-18)
(-0.219509 -0.0136015 2.19441e-19)
(0.0324619 -0.0146757 2.6955e-18)
(0.0029172 -0.00011136 -2.0029e-20)
(0.00164189 -8.91868e-05 -1.20164e-19)
(-0.00451185 0.00168444 1.17195e-19)
(-0.195451 -0.130262 -3.80061e-17)
(0.00132728 -0.000229218 -3.4975e-20)
(4.84061e-06 -0.000580613 -3.93718e-21)
(4.17567e-05 1.48091e-05 1.21417e-20)
(0.00487869 -0.000134579 9.37981e-20)
(0.00261409 0.00559031 -2.38881e-19)
(0.00326204 0.00582593 3.30954e-19)
(0.0024328 0.00152763 4.62567e-20)
(0.00694523 6.66733e-06 -9.69332e-20)
(0.032151 0.0207213 7.17125e-19)
(0.00319332 -3.96407e-05 -7.14195e-19)
(-0.00175382 0.00352489 1.22811e-20)
(-0.00474223 0.00154367 7.05447e-20)
(0.100447 0.07657 3.29759e-19)
(-0.00160806 -0.0013648 -5.92223e-20)
(0.069491 -0.348405 -2.96871e-17)
(0.192367 0.333461 -2.85753e-17)
(-0.00676417 -0.0555551 1.32294e-18)
(0.0009474 5.25712e-05 -3.22746e-19)
(0.000773473 -0.00574389 5.72109e-19)
(0.000251041 -4.94022e-05 -1.70363e-20)
(-0.177647 -0.200009 1.58274e-18)
(0.00945968 0.000392336 -2.02278e-19)
(-0.0136307 -0.00207006 -2.81954e-20)
(0.00945879 0.00126063 -7.50839e-19)
(-0.0481073 -0.0236059 -7.25052e-19)
(-0.000168985 6.86315e-05 3.23762e-19)
(0.0048511 0.00124312 -3.19674e-19)
(6.15356e-05 -0.000645481 -1.95516e-21)
(0.00581092 0.0181173 4.30429e-19)
(-0.0736378 0.0254172 -5.13612e-19)
(-0.000248026 -7.43302e-05 1.51888e-19)
(0.00406876 5.85748e-05 1.80173e-21)
(0.00441192 -0.00072893 5.62642e-20)
(0.0209989 -0.378955 -1.27988e-17)
(0.000665458 0.000286884 6.87294e-20)
(-0.00836691 -0.00441148 3.73635e-20)
(0.0455441 -0.0618719 -7.20396e-19)
(0.0551616 0.0191531 -3.18145e-19)
(-0.00345747 -0.00402933 -7.1191e-20)
(-0.00896202 -0.00352182 2.24575e-19)
(0.0450443 0.0849677 4.00774e-19)
(0.149699 0.239673 -2.0443e-19)
(0.00644801 0.000930287 -1.1708e-19)
(0.00497733 -6.74576e-06 -1.58915e-20)
(0.018141 0.0675183 3.31126e-19)
(-0.0240558 -0.462919 3.6252e-18)
(0.00338722 0.0267626 2.38839e-18)
(0.0203114 -0.0780967 -5.63296e-19)
(0.00277242 -3.50027e-08 5.59531e-22)
(0.000667786 -0.00406011 1.45386e-20)
(-0.0122522 0.0126109 -4.53942e-19)
(-0.00640868 0.0129554 -1.49424e-18)
(0.00135761 0.00743945 7.95789e-19)
(-0.00569621 -0.189037 4.98919e-18)
(-0.00357224 -0.00350562 9.66481e-20)
(0.00417141 -7.15864e-05 -1.55751e-19)
(0.000665105 0.00150659 2.04739e-19)
(0.0508022 0.0564669 2.11006e-19)
(0.00954252 -0.0002747 -2.16323e-19)
(0.0630742 0.087251 2.84013e-19)
(0.0103267 -0.000143529 9.81497e-20)
(0.00635236 0.000738875 -2.28359e-19)
(-0.0019444 -0.000718277 -8.41795e-20)
(-0.00156725 0.0132037 -3.20342e-18)
(0.00212256 -0.105237 -1.30542e-18)
(-0.0030925 0.00165093 4.51665e-19)
(0.000922195 0.00247357 1.64983e-19)
(-0.0661371 -0.151243 2.27884e-18)
(-0.0115366 0.00104249 1.61435e-19)
(-0.0244807 0.0193468 3.33445e-18)
(-0.00210361 0.00147649 -4.81993e-19)
(0.0017322 0.000257906 1.9325e-19)
(0.000968592 -0.0044954 -1.72331e-20)
(0.143546 0.177965 -9.62614e-19)
(0.00544727 0.000598811 -2.91688e-20)
(-0.000606352 -0.00140995 4.47549e-19)
(0.0396208 -0.0485023 -1.01979e-18)
(0.00519787 -0.000608888 4.94214e-20)
(0.00120845 0.000231042 -3.48966e-20)
(0.00293339 0.0984235 -3.8796e-18)
(0.000155886 0.000858819 2.53519e-19)
(-0.130817 -0.507004 1.7397e-17)
(0.0054169 -5.34354e-05 2.05943e-19)
(-0.0152236 0.0148093 -1.6441e-18)
(-0.012546 0.0161649 -2.89646e-19)
(-0.121038 -0.907878 -4.53906e-18)
(0.010129 -0.000247814 3.3049e-19)
(0.00285903 -0.005719 -1.50425e-18)
(0.0104553 -3.95661e-05 -1.4395e-19)
(0.00140168 0.000192422 1.1343e-19)
(-0.0646184 -0.140285 -2.24133e-18)
(0.000499331 -0.000141546 -1.67648e-20)
(0.0369184 0.187994 -7.58683e-18)
(0.00588622 0.0275927 -3.34163e-18)
(-0.00115002 0.000422883 3.97248e-20)
(-0.00108461 -0.00804106 4.12925e-19)
(0.034685 -0.0117765 3.28597e-18)
(0.0983402 0.100546 6.05757e-18)
(-0.00536303 0.00209636 -3.22077e-20)
(0.000158678 8.42575e-05 -3.73834e-19)
(-0.000434124 -0.00145898 -3.32589e-19)
(0.000726435 -0.000260775 -2.25193e-19)
(0.00268518 0.00105649 3.36881e-20)
(0.00146718 0.0192984 4.91172e-19)
(4.14128e-05 0.00127647 -3.79564e-20)
(-0.184734 -0.353981 8.20668e-18)
(0.00156988 -0.00035054 -7.26106e-20)
(0.000476884 -3.46679e-05 -7.67573e-21)
(0.0290632 0.262107 3.96267e-17)
(0.00569795 0.00321304 -5.12007e-19)
(0.00436232 0.0201549 -2.33792e-19)
(0.000131317 -3.15584e-05 -7.4482e-20)
(0.00170265 6.51734e-05 -1.14145e-19)
(-0.0168129 0.164476 -2.07706e-17)
(-0.0293165 -0.0205478 2.9111e-18)
(-0.0120712 0.0131913 -6.07915e-19)
(-0.0179649 -0.176262 -1.28059e-17)
(0.0104102 0.000335618 1.513e-19)
(0.00594386 -0.00542215 1.88123e-18)
(-0.0012214 -0.00204454 -1.10574e-19)
(-0.0010261 0.000466652 -1.05946e-19)
(0.0040696 -0.000617016 1.73241e-19)
(0.00544621 -0.000397411 2.33457e-20)
(0.00513337 0.000929497 3.91085e-20)
(0.00130635 -9.52129e-06 8.45302e-20)
(-0.222523 -1.03043 9.33229e-17)
(0.0108596 0.00133557 -2.41844e-19)
(0.00931223 -0.000657287 -2.26483e-18)
(0.00518613 -0.000379994 -1.76828e-19)
(-0.0155182 0.00577992 -1.72687e-19)
(0.000207092 -0.000598542 -1.9084e-19)
(-0.0219942 0.0222068 -2.74017e-18)
(0.0369078 0.128175 -7.59257e-21)
(-0.000720967 0.000472274 -4.96321e-20)
(0.00295078 -0.000469316 -1.05855e-19)
(-0.000732119 -0.00832015 2.03911e-19)
(-0.00747923 -0.00153432 -5.18094e-19)
(0.00012708 -0.000652498 -1.29111e-19)
(-0.00959736 -0.613925 -3.98849e-18)
(0.00572243 -1.55929e-05 -1.65273e-19)
(0.032135 0.00892466 3.52086e-19)
(0.00154482 0.000386772 -1.32995e-19)
(0.00425901 -3.97225e-05 -1.09526e-19)
(0.000542496 0.000234528 4.53864e-21)
(0.356759 -0.141809 3.37923e-17)
(0.000259407 -0.000553642 1.81983e-19)
(0.00111995 0.00101205 1.02694e-19)
(-0.000368595 -0.00011685 4.35091e-20)
(-0.0511536 -0.662 -2.56399e-17)
(0.000392612 -9.51519e-06 9.35418e-21)
(0.00489541 -0.000496401 -1.4999e-19)
(0.00172041 1.57765e-05 -1.93849e-19)
(-0.0517319 -0.160903 -2.66843e-18)
(0.00423077 -6.72935e-05 -1.23806e-19)
(0.001321 -0.000774821 -4.05378e-19)
(-0.00037535 5.60178e-05 -1.76541e-19)
(0.0019948 -0.000735235 3.48876e-19)
(0.00211843 0.00796685 -6.01357e-19)
(0.00257722 -0.000786342 -6.04134e-20)
(-0.0141048 0.00371137 7.71596e-19)
(-0.000997071 -0.00218437 4.00799e-20)
(-0.0189827 -1.06031 4.59102e-17)
(-0.0977897 -0.280472 -2.65949e-17)
(-0.0816603 0.00406158 3.19751e-19)
(-0.00169477 -0.00359979 2.79744e-19)
(0.00337955 -0.00287906 -2.04825e-18)
(0.0087314 -4.82014e-05 -4.52192e-20)
(-0.0946621 0.104527 -1.57145e-18)
(-0.00282103 1.02025e-05 8.38558e-20)
(0.0363513 -0.104348 -2.76593e-18)
(-0.0505938 0.0150627 2.05468e-19)
(-0.076607 -0.0127871 -5.12769e-19)
(0.026903 0.0118341 -3.35719e-19)
(-0.0294301 0.111936 1.80235e-18)
(0.0117427 0.000318688 3.12955e-19)
(0.00561591 0.000577063 -6.90276e-23)
(0.0467637 0.160095 5.19022e-19)
(-0.0240881 -0.139273 1.09828e-18)
(-0.00488901 -0.00849385 -5.59075e-19)
(0.0515783 -0.0673412 2.28869e-18)
(0.00871823 0.00123064 -1.29949e-19)
(-0.0616364 -0.00361563 1.82449e-18)
(0.00390261 0.000391526 6.04032e-20)
(0.00688617 0.00103978 -8.15414e-21)
(-0.0017713 -0.00160291 6.47603e-20)
(0.00107786 0.000302986 9.30919e-20)
(0.00496599 -8.72835e-06 -4.65256e-20)
(0.0516891 0.141249 1.71062e-19)
(0.00322611 0.000847562 -1.02279e-19)
(0.000284888 -2.25037e-05 1.65737e-20)
(-0.060748 -0.0386145 8.53629e-18)
(-0.00153523 -0.000412161 2.09877e-19)
(-0.0557986 0.108253 -2.66439e-18)
(5.63107e-05 -0.000949759 8.56732e-22)
(0.000973991 0.000134186 1.6747e-18)
(-0.00730212 -0.00376235 4.97542e-21)
(0.00291249 9.9475e-06 -9.5541e-20)
(0.0180755 -0.176464 -5.3318e-18)
(0.00348548 0.00116924 2.97186e-20)
(0.00257628 -0.000433003 -2.87142e-19)
(0.00126669 0.00252287 3.50917e-18)
(0.00665279 0.000826393 1.32166e-19)
(0.000502828 -4.27715e-05 -6.14679e-21)
(0.00266257 7.23061e-06 -6.13627e-20)
(0.00403096 0.000570836 -1.20366e-19)
(0.00466 0.000193412 -1.13396e-19)
(-0.0123882 0.0166552 2.0537e-19)
(0.0268798 0.0996572 3.2157e-18)
(-0.133835 -0.367818 5.79379e-17)
(0.00796437 0.000721395 -3.612e-19)
(0.00241736 0.000754576 1.60426e-19)
(0.00465929 0.000529802 -2.75572e-19)
(-0.0518841 0.0185599 -6.41749e-19)
(0.000330911 0.00209696 -7.57167e-20)
(0.00228552 0.000184897 1.96212e-19)
(0.000388026 -0.000207955 -6.53578e-20)
(0.00372034 1.5699e-05 -1.43756e-21)
(-0.0254504 0.117053 -3.74203e-19)
(0.11841 0.0639895 7.51075e-18)
(-0.000894401 -0.00236843 -1.15036e-21)
(-0.00494362 -0.00167165 -5.41709e-19)
(0.0125937 2.53228e-05 -6.58508e-20)
(0.244275 -0.691878 -1.32887e-17)
(0.0047975 -0.00615102 -1.17038e-19)
(-0.00201016 0.0033892 4.16503e-19)
(-0.0128265 0.0162246 -1.28473e-18)
(-0.0367932 0.00442811 8.46034e-21)
(-0.18923 -0.0907917 -8.80238e-18)
(-0.0329809 0.0880135 -3.67504e-18)
(0.00388416 0.000371139 1.07134e-19)
(0.000845413 2.74725e-05 -1.35396e-19)
(0.00366561 0.0012639 -7.33319e-22)
(0.0147752 0.100378 -3.72243e-19)
(0.00124327 0.000320016 -9.94145e-20)
(0.0034252 -0.00379408 6.14933e-19)
(0.00275521 0.0014978 -2.22424e-19)
(0.000567899 -0.000148024 2.69266e-20)
(-0.00625545 -0.00532398 -2.82206e-19)
(0.00182738 0.00213853 9.738e-20)
(0.364334 -0.00875581 -1.06555e-17)
(-0.017037 -0.677425 -2.83076e-18)
(0.000258132 -0.000980917 -2.41684e-19)
(0.00412247 -0.000374907 -7.01806e-21)
(0.00102161 -0.000122454 -6.58956e-21)
(-0.00213921 -0.00857159 -7.22476e-20)
(0.00103016 0.000374648 1.8103e-19)
(-0.0281327 0.0849019 -3.8326e-19)
(0.00130886 0.00298718 1.03237e-19)
(0.128465 0.0762508 2.55511e-19)
(0.00137383 0.000658655 -2.68168e-20)
(0.00225998 -0.00146461 2.40301e-20)
(-0.000588605 0.000556084 3.98941e-19)
(0.00528704 -9.7389e-05 5.62989e-20)
(0.00469773 0.000432729 -1.98974e-19)
(0.000384116 -0.000394309 7.3347e-21)
(0.00964443 0.000427771 -3.06429e-19)
(0.00736662 0.00147143 3.02577e-19)
(-0.00529929 -0.0101019 2.94649e-19)
(0.00318448 0.000962304 2.05042e-19)
(-0.0502392 0.0122817 2.88315e-20)
(0.0112032 0.000255145 8.1308e-20)
(-0.0333529 -0.101603 4.06883e-19)
(-0.0195567 0.00885187 -1.91931e-20)
(-0.00530328 9.057e-07 -6.91989e-20)
(-0.258347 0.131787 -1.60009e-18)
(0.00464744 -0.00023592 -2.24847e-19)
(-0.000772465 0.000470106 4.5356e-20)
(0.000727013 0.0027988 -2.30186e-21)
(0.000349034 8.56073e-05 -4.37447e-19)
(-0.0328269 -0.150748 1.61253e-18)
(0.00242091 0.00147598 2.14083e-19)
(-0.00061474 -0.00340274 -3.23922e-20)
(-0.00214143 -0.000909668 2.53289e-19)
(0.0211034 -0.253227 1.089e-17)
(0.00154968 -0.00131564 -1.47377e-20)
(0.018601 0.113232 4.25665e-19)
(0.00918691 0.0216857 4.51605e-20)
(0.00255986 0.000728655 2.61196e-19)
(-0.0357336 -0.00175793 1.81997e-18)
(-0.00159107 0.0942819 4.96979e-19)
(0.000129386 -0.00103448 -1.78192e-21)
(0.00220135 -4.3137e-05 1.49474e-20)
(0.0572891 -0.0583305 2.43744e-18)
(0.00626404 2.93607e-06 5.50813e-21)
(0.063077 0.10254 -3.63828e-18)
(-0.00228012 -0.0103658 7.92729e-19)
(-0.00470419 0.00576756 2.57608e-19)
(-0.00727512 -0.00637995 8.53626e-19)
(0.0082133 0.000738224 -4.46144e-19)
(0.0066332 0.00103884 -7.35797e-20)
(0.00304282 -0.000625712 1.15488e-19)
(-0.0135394 0.0100147 1.95345e-18)
(-0.000278885 0.00267101 -6.55599e-21)
(-0.015701 -0.17418 -6.12169e-18)
(0.0326445 0.12579 2.14998e-18)
(0.000535671 -0.000173648 -1.92208e-20)
(0.00227536 0.00156401 -1.55725e-22)
(-0.00966645 2.52483e-05 1.3218e-20)
(-0.0052565 -0.038177 -6.16726e-20)
(0.00692783 -2.24586e-06 -5.32462e-20)
(-0.0110534 0.0881597 1.59748e-19)
(0.00677797 0.000802307 5.33537e-20)
(0.00616844 0.000603509 7.90905e-20)
(-0.0499563 0.0305601 -2.08598e-19)
(0.00246063 0.00060081 1.79951e-19)
(0.0539043 -0.0483621 8.49219e-20)
(-0.00726298 0.0141339 6.68977e-20)
(0.0123002 1.57001e-05 -1.44519e-21)
(0.0332253 0.0908527 1.51862e-18)
(0.00756462 -0.00173536 -1.48166e-19)
(0.00291617 0.00109122 2.64293e-19)
(0.000402771 0.00245297 4.41728e-20)
(-0.0138015 0.0131363 3.36065e-18)
(-0.000368241 -0.000308165 3.69607e-20)
(-0.195335 -0.1464 -6.56888e-19)
(0.00854473 0.00143486 4.71858e-20)
(-0.0140777 0.0131739 -1.91874e-18)
(0.00378959 -0.00440732 -5.847e-19)
(-0.0765962 -0.45065 2.46983e-17)
(0.000235494 0.00227117 4.37072e-20)
(-0.003667 0.0123051 5.69405e-19)
(-0.00173612 -6.2681e-05 2.05692e-21)
(0.00468142 0.00158697 2.42357e-19)
(0.00688576 0.020395 2.15942e-19)
(-0.000455886 -0.000165069 -1.34426e-19)
(-0.0128836 0.0133377 -8.0939e-19)
(0.000285519 0.000886204 -1.85723e-19)
(0.00885972 0.000866233 8.0708e-20)
(0.00175358 -0.00171889 1.03855e-20)
(0.00823259 -8.46217e-05 1.19233e-19)
(0.0055509 0.0023377 4.1645e-19)
(-0.00129973 0.0290926 3.18919e-18)
(0.00190779 2.37604e-05 -4.37409e-20)
(0.0070536 0.00102171 -1.69752e-20)
(-0.0036683 -0.00608352 -4.69373e-20)
(0.000219711 -0.000134446 1.02583e-19)
(0.00176877 0.000660999 6.99225e-20)
(0.0061327 -0.000381978 -1.55842e-19)
(0.00119375 -0.000146592 -7.23724e-20)