/*--------------------------------*- C++ -*----------------------------------*\
| =========                 |                                                 |
| \\      /  F ield         | OpenFOAM: The Open Source CFD Toolbox           |
|  \\    /   O peration     | Version:  v2012                                 |
|   \\  /    A nd           | Website:  www.openfoam.com                      |
|    \\/     M anipulation  |                                                 |
\*---------------------------------------------------------------------------*/
FoamFile
{
    version     2.0;
    format      ascii;
    class       pointVectorField;
    location    "400";
    object      pointDisplacement;
}
// * * * * * * * * * * * * * * * * * * * * * * * * * * * * * * * * * * * * * //

dimensions      [0 1 0 0 0 0 0];


internalField   nonuniform List<vector> 
10400
(
(0 0 0)
(0 0 0)
(0 0 0)
(0 0 0)
(0 0 0)
(0 0 0)
(0 0 0)
(0 0 0)
(0 0 0)
(0 0 0)
(0 0 0)
(0 0 0)
(0 0 0)
(0 0 0)
(0 0 0)
(0 0 0)
(0 0 0)
(0 0 0)
(0 0 0)
(0 0 0)
(0 0 0)
(0 0 0)
(0 0 0)
(0 0 0)
(0 0 0)
(0 0 0)
(0 0 0)
(0 0 0)
(0 0 0)
(0 0 0)
(0 0 0)
(0 0 0)
(0 0 0)
(0 0 0)
(0 0 0)
(0 0 0)
(0 0 0)
(0 0 0)
(0 0 0)
(0 0 0)
(0 0 0)
(0 0 0)
(0 0 0)
(0 0 0)
(0 0 0)
(0 0 0)
(0 0 0)
(0 0 0)
(0 0 0)
(0 0 0)
(0 0 0)
(0 0 0)
(0 0 0)
(0 0 0)
(0 0 0)
(0 0 0)
(0 0 0)
(0 0 0)
(0 0 0)
(0 0 0)
(0 0 0)
(0 0 0)
(0 0 0)
(0 0 0)
(0 0 0)
(0 0 0)
(0 0 0)
(0 0 0)
(0 0 0)
(0 0 0)
(0 0 0)
(0 0 0)
(0 0 0)
(0 0 0)
(0 0 0)
(0 0 0)
(0 0 0)
(0 0 0)
(0 0 0)
(0 0 0)
(0 0 0)
(0 0 0)
(0 0 0)
(0 0 0)
(0 0 0)
(0 0 0)
(0 0 0)
(0 0 0)
(0 0 0)
(0 0 0)
(0 0 0)
(0 0 0)
(0 0 0)
(0 0 0)
(0 0 0)
(0 0 0)
(0 0 0)
(0 0 0)
(0 0 0)
(0 0 0)
(0 0 0)
(0 0 0)
(0 0 0)
(0 0 0)
(0 0 0)
(0 0 0)
(0 0 0)
(0 0 0)
(0 0 0)
(0 0 0)
(0 0 0)
(0 0 0)
(0 0 0)
(0 0 0)
(0 0 0)
(0 0 0)
(0 0 0)
(0 0 0)
(0 0 0)
(0 0 0)
(0 0 0)
(0 0 0)
(0 0 0)
(0 0 0)
(0 0 0)
(0 0 0)
(0 0 0)
(0 0 0)
(0 0 0)
(0 0 0)
(0 0 0)
(0 0 0)
(0 0 0)
(0 0 0)
(0 0 0)
(0 0 0)
(0 0 0)
(0 0 0)
(0 0 0)
(0 0 0)
(0 0 0)
(0 0 0)
(0 0 0)
(0 0 0)
(0 0 0)
(0 0 0)
(0 0 0)
(0 0 0)
(0 0 0)
(0 0 0)
(0 0 0)
(0 0 0)
(0 0 0)
(0 0 0)
(0 0 0)
(0 0 0)
(0 0 0)
(0 0 0)
(0 0 0)
(0 0 0)
(0 0 0)
(0 0 0)
(0 0 0)
(0 0 0)
(0 0 0)
(0 0 0)
(0 0 0)
(0 0 0)
(0 0 0)
(0 0 0)
(0 0 0)
(0 0 0)
(0 0 0)
(0 0 0)
(0 0 0)
(0 0 0)
(0 0 0)
(0 0 0)
(0 0 0)
(0 0 0)
(0 0 0)
(0 0 0)
(0 0 0)
(0 0 0)
(0 0 0)
(0 0 0)
(0 0 0)
(0 0 0)
(0 0 0)
(0 0 0)
(0 0 0)
(0 0 0)
(0 0 0)
(0 0 0)
(0 0 0)
(0 0 0)
(0 0 0)
(0 0 0)
(0 0 0)
(0 0 0)
(0 0 0)
(0 0 0)
(0 0 0)
(0 0 0)
(0 0 0)
(0 0 0)
(0 0 0)
(0 0 0)
(0 0 0)
(0 0 0)
(0 0 0)
(0 0 0)
(0 0 0)
(0 0 0)
(0 0 0)
(0 0 0)
(0 0 0)
(0 0 0)
(0 0 0)
(0 0 0)
(0 0 0)
(0 0 0)
(0 0 0)
(0 0 0)
(0 0 0)
(0 0 0)
(0 0 0)
(0 0 0)
(0 0 0)
(0 0 0)
(0 0 0)
(0 0 0)
(0 0 0)
(0 0 0)
(0 0 0)
(0 0 0)
(0 0 0)
(0 0 0)
(0 0 0)
(0 0 0)
(0 0 0)
(0 0 0)
(0 0 0)
(0 0 0)
(0 0 0)
(0 0 0)
(0 0 0)
(0 0 0)
(0 0 0)
(0 0 0)
(0 0 0)
(0 0 0)
(0 0 0)
(0 0 0)
(0 0 0)
(0 0 0)
(0 0 0)
(0 0 0)
(0 -0.000277404 0)
(0 -0.000282715 0)
(0 -0.000206204 0)
(0 -0.000162385 0)
(0 -0.000233255 0)
(0 -0.000103275 0)
(0 -0.000247612 0)
(0 -0.000239834 0)
(0 -0.000136307 0)
(0 -0.000200573 0)
(0 -0.000111519 0)
(0 -0.000121278 0)
(0 -0.000103726 0)
(0 -9.05166e-05 0)
(0 -7.10305e-05 0)
(0 -6.30559e-05 0)
(0 -5.53953e-05 0)
(0 -5.20048e-05 0)
(0 -0.000223065 0)
(0 -0.000189081 0)
(0 -3.39707e-05 0)
(0 -3.64661e-05 0)
(0 -0.000210677 0)
(0 -0.00017169 0)
(0 -0.000266573 0)
(0 -0.000281281 0)
(0 -0.000267302 0)
(0 -0.000241225 0)
(0 -0.000116399 0)
(0 -0.000150254 0)
(0 -8.78769e-05 0)
(0 -0.00010658 0)
(0 -8.96848e-05 0)
(0 -1.7685e-05 0)
(0 -1.85833e-05 0)
(0 -0.000272574 0)
(0 -0.000275875 0)
(0 -0.000285213 0)
(0 -0.000229344 0)
(0 -0.000219775 0)
(0 -0.000216741 0)
(0 -0.000199293 0)
(0 -0.000179431 0)
(0 -4.04549e-05 0)
(0 -8.89307e-05 0)
(0 -0.000148001 0)
(0 -0.000104216 0)
(0 -4.41002e-05 0)
(0 -5.79334e-05 0)
(0 -6.41286e-05 0)
(0 -0.000126477 0)
(0 -7.62208e-06 0)
(0 -0.0034931 0)
(0 -0.00359789 0)
(0 -0.00343717 0)
(0 -0.00354197 0)
(0 -0.00338377 0)
(0 -0.00349221 0)
(0 -0.0033314 0)
(0 -0.00343551 0)
(0 -0.00327786 0)
(0 -0.00337979 0)
(0 -0.00322834 0)
(0 -0.00333171 0)
(0 -0.00318475 0)
(0 -0.00328582 0)
(0 -0.00314482 0)
(0 -0.00324633 0)
(0 -0.00310664 0)
(0 -0.00321211 0)
(0 -0.00307285 0)
(0 -0.00320066 0)
(0 -0.00303867 0)
(0 -0.00315112 0)
(0 -0.00300404 0)
(0 -0.00576567 0)
(0 -0.00580773 0)
(0 -0.00587245 0)
(0 -0.00584407 0)
(0 -0.00590634 0)
(0 -0.0059579 0)
(0 -0.00593298 0)
(0 -0.00598197 0)
(0 -0.00602372 0)
(0 -0.00600158 0)
(0 -0.00604145 0)
(0 -0.00605954 0)
(0 -0.00607677 0)
(0 -0.00605494 0)
(0 -0.00608809 0)
(0 -0.00610578 0)
(0 -0.00611489 0)
(0 -0.00613505 0)
(0 -0.00611818 0)
(0 -0.00613617 0)
(0 -0.00614776 0)
(0 -0.00614601 0)
(0 -0.00612986 0)
(0 -0.00613585 0)
(0 -0.00614795 0)
(0 -0.00613595 0)
(0 -0.00612066 0)
(0 -0.00611898 0)
(0 -0.00612913 0)
(0 -0.00611059 0)
(0 -0.00609569 0)
(0 -0.00608779 0)
(0 -0.00607162 0)
(0 -0.0060748 0)
(0 -0.00604948 0)
(0 -0.00604314 0)
(0 -0.0060189 0)
(0 -0.00601891 0)
(0 -0.00598888 0)
(0 -0.00598494 0)
(0 -0.0059531 0)
(0 -0.00595337 0)
(0 -0.00591564 0)
(0 -0.00311384 0)
(0 -0.00297503 0)
(0 -0.0058718 0)
(0 -0.00587157 0)
(0 -0.00582641 0)
(0 -0.00577345 0)
(0 -0.00577723 0)
(0 -0.00572499 0)
(0 -0.00571668 0)
(0 -0.00566896 0)
(0 -0.00567025 0)
(0 -0.0056138 0)
(0 -0.00560734 0)
(0 -0.00555095 0)
(0 -0.00548385 0)
(0 -0.00548328 0)
(0 -0.0054215 0)
(0 -0.00535345 0)
(0 -0.0053516 0)
(0 -0.00528652 0)
(0 -0.00527982 0)
(0 -0.00521585 0)
(0 -0.00522019 0)
(0 -0.00514672 0)
(0 -0.00513648 0)
(0 -0.0050666 0)
(0 -0.0030869 0)
(0 -0.00294909 0)
(0 -0.00507047 0)
(0 -0.00499067 0)
(0 -0.00498288 0)
(0 -0.00490833 0)
(0 -0.00482332 0)
(0 -0.00482983 0)
(0 -0.00474701 0)
(0 -0.00473485 0)
(0 -0.00466041 0)
(0 -0.00466691 0)
(0 -0.00458229 0)
(0 -0.00457081 0)
(0 -0.00449526 0)
(0 -0.00450034 0)
(0 -0.00441495 0)
(0 -0.00440667 0)
(0 -0.0043272 0)
(0 -0.00423673 0)
(0 -0.00424507 0)
(0 -0.00415561 0)
(0 -0.00406455 0)
(0 -0.0040721 0)
(0 -0.00398245 0)
(0 -0.0039722 0)
(0 -0.00306929 0)
(0 -0.00292588 0)
(0 -0.00398631 0)
(0 -0.0038975 0)
(0 -0.00389722 0)
(0 -0.00380969 0)
(0 -0.00304366 0)
(0 -0.00290073 0)
(0 -0.00278444 0)
(0 -0.00276179 0)
(0 -0.0026469 0)
(0 -0.00262915 0)
(0 -0.0025137 0)
(0 -0.00250359 0)
(0 -0.00238581 0)
(0 -0.00238559 0)
(0 -0.00226506 0)
(0 -0.00225834 0)
(0 -0.00215007 0)
(0 -0.00214988 0)
(0 -0.00204361 0)
(0 -0.00204649 0)
(0 -0.00194527 0)
(0 -0.00195516 0)
(0 -0.00185277 0)
(0 -0.00187372 0)
(0 -0.00176687 0)
(0 -0.00179211 0)
(0 -0.00168673 0)
(0 -0.0017099 0)
(0 -0.00161099 0)
(0 -0.00163651 0)
(0 -0.00154153 0)
(0 -0.00380557 0)
(0 -0.00156704 0)
(0 -0.00147719 0)
(0 -0.0037193 0)
(0 -0.00150489 0)
(0 -0.00141896 0)
(0 -0.00144905 0)
(0 -0.00136322 0)
(0 -0.00371135 0)
(0 -0.00301451 0)
(0 -0.00204129 0)
(0 -0.00224893 0)
(0 -0.00362639 0)
(0 -0.00361479 0)
(0 -0.00353078 0)
(0 -0.0035164 0)
(0 -0.00359665 0)
(0 -0.00173472 0)
(0 -0.00349511 0)
(0 -0.00357188 0)
(0 -0.0034166 0)
(0 -0.00339308 0)
(0 -0.00331612 0)
(0 -0.00158567 0)
(0 -0.0032906 0)
(0 -0.00321441 0)
(0 -0.0031876 0)
(0 -0.00353846 0)
(0 -0.00311212 0)
(0 -0.00308383 0)
(0 -0.00316039 0)
(0 -0.00312835 0)
(0 -0.00327639 0)
(0 -0.00324312 0)
(0 -0.00338844 0)
(0 -0.0033546 0)
(0 -0.00349289 0)
(0 -0.00346378 0)
(0 -0.00361608 0)
(0 -0.00356627 0)
(0 -0.00370393 0)
(0 -0.00365727 0)
(0 -0.00378844 0)
(0 -0.00374431 0)
(0 -0.00388733 0)
(0 -0.00300891 0)
(0 -0.00297816 0)
(0 -0.003047 0)
(0 -0.00382416 0)
(0 -0.00395505 0)
(0 -0.00369824 0)
(0 -0.00293907 0)
(0 -0.00300342 0)
(0 -0.00287197 0)
(0 -0.00389152 0)
(0 -0.00402007 0)
(0 -0.00283076 0)
(0 -0.00276479 0)
(0 -0.00272191 0)
(0 -0.00395155 0)
(0 -0.0040773 0)
(0 -0.00265708 0)
(0 -0.00261281 0)
(0 -0.00400142 0)
(0 -0.00412583 0)
(0 -0.00254948 0)
(0 -0.00250393 0)
(0 -0.00404324 0)
(0 -0.00416593 0)
(0 -0.00244171 0)
(0 -0.00248319 0)
(0 -0.00239477 0)
(0 -0.00245269 0)
(0 -0.0030472 0)
(0 -0.00407654 0)
(0 -0.00419639 0)
(0 -0.00395203 0)
(0 -0.00234216 0)
(0 -0.00239563 0)
(0 -0.0022858 0)
(0 -0.00410046 0)
(0 -0.00421688 0)
(0 -0.0022325 0)
(0 -0.00217699 0)
(0 -0.00411415 0)
(0 -0.00422952 0)
(0 -0.0021242 0)
(0 -0.00411929 0)
(0 -0.0042353 0)
(0 -0.00206941 0)
(0 -0.00333955 0)
(0 -0.00201685 0)
(0 -0.00411725 0)
(0 -0.00423363 0)
(0 -0.00196386 0)
(0 -0.00191018 0)
(0 -0.00434668 0)
(0 -0.00434638 0)
(0 -0.00422321 0)
(0 -0.00433581 0)
(0 -0.00445442 0)
(0 -0.00444264 0)
(0 -0.00431399 0)
(0 -0.00441923 0)
(0 -0.00454804 0)
(0 -0.00452213 0)
(0 -0.00438478 0)
(0 -0.00448316 0)
(0 -0.00462148 0)
(0 -0.00457975 0)
(0 -0.0056908 0)
(0 -0.00185883 0)
(0 -0.00180446 0)
(0 -0.0018511 0)
(0 -0.00442708 0)
(0 -0.00452143 0)
(0 -0.00468694 0)
(0 -0.00460825 0)
(0 -0.00445258 0)
(0 -0.00454139 0)
(0 -0.0046891 0)
(0 -0.00462563 0)
(0 -0.00446798 0)
(0 -0.0045482 0)
(0 -0.00470307 0)
(0 -0.00462185 0)
(0 -0.00132947 0)
(0 -0.0047742 0)
(0 -0.00469134 0)
(0 -0.00453621 0)
(0 -0.00460116 0)
(0 -0.00383992 0)
(0 -0.00174488 0)
(0 -0.00178692 0)
(0 -0.00169981 0)
(0 -0.00475516 0)
(0 -0.00466112 0)
(0 -0.00448541 0)
(0 -0.00456476 0)
(0 -0.00471957 0)
(0 -0.00461902 0)
(0 -0.00446054 0)
(0 -0.00450496 0)
(0 -0.00467085 0)
(0 -0.00456003 0)
(0 -0.00428457 0)
(0 -0.00438678 0)
(0 -0.00444637 0)
(0 -0.0046071 0)
(0 -0.00449302 0)
(0 -0.00433049 0)
(0 -0.0043764 0)
(0 -0.00453446 0)
(0 -0.00441795 0)
(0 -0.0030268 0)
(0 -0.004001 0)
(0 -0.00190782 0)
(0 -0.00425783 0)
(0 -0.00429977 0)
(0 -0.00445673 0)
(0 -0.0043381 0)
(0 -0.00449046 0)
(0 -0.00437044 0)
(0 -0.00422059 0)
(0 -0.00425123 0)
(0 -0.00439645 0)
(0 -0.00427521 0)
(0 -0.00413351 0)
(0 -0.00415344 0)
(0 -0.00164014 0)
(0 -0.00159629 0)
(0 -0.00429303 0)
(0 -0.00416651 0)
(0 -0.00401349 0)
(0 -0.00403957 0)
(0 -0.00417723 0)
(0 -0.00404651 0)
(0 -0.00388864 0)
(0 -0.00391026 0)
(0 -0.00405354 0)
(0 -0.00391741 0)
(0 -0.0037493 0)
(0 -0.00377874 0)
(0 -0.00392234 0)
(0 -0.00378377 0)
(0 -0.00362225 0)
(0 -0.00364652 0)
(0 -0.00378384 0)
(0 -0.00364694 0)
(0 -0.00351152 0)
(0 -0.00351128 0)
(0 -0.00153725 0)
(0 -0.00377726 0)
(0 -0.00149472 0)
(0 -0.00337216 0)
(0 -0.00337589 0)
(0 -0.00143635 0)
(0 -0.00323468 0)
(0 -0.00324018 0)
(0 -0.00139548 0)
(0 -0.00133733 0)
(0 -0.00137442 0)
(0 -0.00309725 0)
(0 -0.00310382 0)
(0 -0.00324125 0)
(0 -0.00310712 0)
(0 -0.00308974 0)
(0 -0.0029672 0)
(0 -0.00297291 0)
(0 -0.00129774 0)
(0 -0.00135479 0)
(0 -0.00124015 0)
(0 -0.00283077 0)
(0 -0.00283815 0)
(0 -0.0031074 0)
(0 -0.00120129 0)
(0 -0.00114516 0)
(0 -0.00269379 0)
(0 -0.00270244 0)
(0 -0.00255666 0)
(0 -0.00256649 0)
(0 -0.00110695 0)
(0 -0.00105265 0)
(0 -0.00242103 0)
(0 -0.00243266 0)
(0 -0.00257273 0)
(0 -0.00244128 0)
(0 -0.0023032 0)
(0 -0.00231284 0)
(0 -0.00240601 0)
(0 -0.00101547 0)
(0 -0.000963028 0)
(0 -0.000995467 0)
(0 -0.00244653 0)
(0 -0.00231915 0)
(0 -0.00218666 0)
(0 -0.00219421 0)
(0 -0.000907695 0)
(0 -0.00093535 0)
(0 -0.00351124 0)
(0 -0.00332534 0)
(0 -0.00206245 0)
(0 -0.00207163 0)
(0 -0.0015498 0)
(0 -0.00164958 0)
(0 -0.00156291 0)
(0 -0.00166129 0)
(0 -0.00157277 0)
(0 -0.0016696 0)
(0 -0.00157923 0)
(0 -0.000926785 0)
(0 -0.000974474 0)
(0 -0.00244691 0)
(0 -0.00287306 0)
(0 -0.00148292 0)
(0 -0.00148789 0)
(0 -0.00194007 0)
(0 -0.00194999 0)
(0 -0.00167428 0)
(0 -0.00322848 0)
(0 -0.000849751 0)
(0 -0.000872657 0)
(0 -0.00176534 0)
(0 -0.00181927 0)
(0 -0.00182948 0)
(0 -0.00139209 0)
(0 -0.0013958 0)
(0 -0.000886663 0)
(0 -0.000929763 0)
(0 -0.00176803 0)
(0 -0.00185975 0)
(0 -0.0018047 0)
(0 -0.00144976 0)
(0 -0.00150452 0)
(0 -0.00153391 0)
(0 -0.00147192 0)
(0 -0.00155942 0)
(0 -0.00162004 0)
(0 -0.00164686 0)
(0 -0.00170801 0)
(0 -0.00173873 0)
(0 -0.00180126 0)
(0 -0.00183958 0)
(0 -0.00177061 0)
(0 -0.00187814 0)
(0 -0.00194832 0)
(0 -0.00199404 0)
(0 -0.00191621 0)
(0 -0.0020382 0)
(0 -0.00206241 0)
(0 -0.00195032 0)
(0 -0.00207452 0)
(0 -0.00197564 0)
(0 -0.00209879 0)
(0 -0.00198983 0)
(0 -0.00211205 0)
(0 -0.0022261 0)
(0 -0.00224046 0)
(0 -0.00235732 0)
(0 -0.00237472 0)
(0 -0.00225276 0)
(0 -0.00238951 0)
(0 -0.00187169 0)
(0 -0.00226135 0)
(0 -0.00239792 0)
(0 -0.00249373 0)
(0 -0.00225987 0)
(0 -0.00239097 0)
(0 -0.00224232 0)
(0 -0.00237014 0)
(0 -0.00211594 0)
(0 -0.00252164 0)
(0 -0.00250092 0)
(0 -0.00234286 0)
(0 -0.00247198 0)
(0 -0.00195532 0)
(0 -0.00183559 0)
(0 -0.00171089 0)
(0 -0.00171768 0)
(0 -0.000789534 0)
(0 -0.000807536 0)
(0 -0.00159259 0)
(0 -0.00160113 0)
(0 -0.00130034 0)
(0 -0.00130313 0)
(0 -0.00230743 0)
(0 -0.00243457 0)
(0 -0.00409367 0)
(0 -0.00398266 0)
(0 -0.000842816 0)
(0 -0.000881575 0)
(0 -0.00326992 0)
(0 -0.00183812 0)
(0 -0.0014767 0)
(0 -0.00148697 0)
(0 -0.00186039 0)
(0 -0.00195301 0)
(0 -0.00198666 0)
(0 -0.00152985 0)
(0 -0.00265362 0)
(0 -0.00226098 0)
(0 -0.0023873 0)
(0 -0.000725966 0)
(0 -0.000709552 0)
(0 -0.00073759 0)
(0 -0.000821858 0)
(0 -0.00120767 0)
(0 -0.00120975 0)
(0 -0.00130316 0)
(0 -0.00120932 0)
(0 -0.0013005 0)
(0 -0.00120618 0)
(0 -0.00129488 0)
(0 -0.00120002 0)
(0 -0.00128608 0)
(0 -0.00119104 0)
(0 -0.00136538 0)
(0 -0.00137672 0)
(0 -0.00255764 0)
(0 -0.00250963 0)
(0 -0.00232994 0)
(0 -0.00245632 0)
(0 -0.00110524 0)
(0 -0.0010964 0)
(0 -0.000795276 0)
(0 -0.000829864 0)
(0 -0.00135582 0)
(0 -0.00239544 0)
(0 -0.00149365 0)
(0 -0.00111563 0)
(0 -0.00263176 0)
(0 -0.00258629 0)
(0 -0.0023867 0)
(0 -0.00252207 0)
(0 -0.00273935 0)
(0 -0.00265589 0)
(0 -0.00243968 0)
(0 -0.00257983 0)
(0 -0.00279923 0)
(0 -0.00271391 0)
(0 -0.00249292 0)
(0 -0.00263065 0)
(0 -0.00074763 0)
(0 -0.000833718 0)
(0 -0.000648431 0)
(0 -0.000633071 0)
(0 -0.00287202 0)
(0 -0.00275669 0)
(0 -0.00253018 0)
(0 -0.0026566 0)
(0 -0.00195123 0)
(0 -0.0020449 0)
(0 -0.00125659 0)
(0 -0.00126962 0)
(0 -0.00127414 0)
(0 -0.00288329 0)
(0 -0.00278273 0)
(0 -0.00254319 0)
(0 -0.00266565 0)
(0 -0.00149283 0)
(0 -0.00290584 0)
(0 -0.00278668 0)
(0 -0.00254375 0)
(0 -0.00266599 0)
(0 -0.00101071 0)
(0 -0.00100222 0)
(0 -0.000757906 0)
(0 -0.00241712 0)
(0 -0.00254173 0)
(0 -0.00278866 0)
(0 -0.00266615 0)
(0 -0.00290977 0)
(0 -0.00278929 0)
(0 -0.00254055 0)
(0 -0.00266573 0)
(0 -0.00291031 0)
(0 -0.00278834 0)
(0 -0.00253759 0)
(0 -0.00266123 0)
(0 -0.00290718 0)
(0 -0.0027797 0)
(0 -0.00252907 0)
(0 -0.00264678 0)
(0 -0.000918217 0)
(0 -0.00352685 0)
(0 -0.00289336 0)
(0 -0.00275645 0)
(0 -0.00250781 0)
(0 -0.00261543 0)
(0 -0.00115099 0)
(0 -0.000744161 0)
(0 -0.000711641 0)
(0 -0.000774677 0)
(0 -0.000575141 0)
(0 -0.000560286 0)
(0 -0.00285956 0)
(0 -0.00271862 0)
(0 -0.00247131 0)
(0 -0.00257561 0)
(0 -0.00232522 0)
(0 -0.00242962 0)
(0 -0.00267624 0)
(0 -0.00253131 0)
(0 -0.000951643 0)
(0 -0.000918665 0)
(0 -0.00101563 0)
(0 -0.000981898 0)
(0 -0.00107727 0)
(0 -0.001047 0)
(0 -0.00114003 0)
(0 -0.0011175 0)
(0 -0.00121096 0)
(0 -0.00119539 0)
(0 -0.00130492 0)
(0 -0.0012814 0)
(0 -0.00138523 0)
(0 -0.00137168 0)
(0 -0.00147629 0)
(0 -0.0014682 0)
(0 -0.00136364 0)
(0 -0.00146249 0)
(0 -0.0013579 0)
(0 -0.00145804 0)
(0 -0.00135561 0)
(0 -0.00145879 0)
(0 -0.00135422 0)
(0 -0.00146362 0)
(0 -0.00135599 0)
(0 -0.00146933 0)
(0 -0.00136318 0)
(0 -0.00147845 0)
(0 -0.00137303 0)
(0 -0.00149121 0)
(0 -0.00138663 0)
(0 -0.00150896 0)
(0 -0.00161482 0)
(0 -0.00163545 0)
(0 -0.00153118 0)
(0 -0.00157062 0)
(0 -0.00174283 0)
(0 -0.00166064 0)
(0 -0.00155718 0)
(0 -0.00157292 0)
(0 -0.00169027 0)
(0 -0.00158566 0)
(0 -0.00172485 0)
(0 -0.00162447 0)
(0 -0.00182394 0)
(0 -0.0014488 0)
(0 -0.00176397 0)
(0 -0.00166658 0)
(0 -0.00123402 0)
(0 -0.00277388 0)
(0 -0.00263171 0)
(0 -0.00238698 0)
(0 -0.00248939 0)
(0 -0.00273038 0)
(0 -0.00258831 0)
(0 -0.00234573 0)
(0 -0.00244304 0)
(0 -0.00268143 0)
(0 -0.00253472 0)
(0 -0.00229508 0)
(0 -0.00238541 0)
(0 -0.00176272 0)
(0 -0.00261968 0)
(0 -0.00247033 0)
(0 -0.00223622 0)
(0 -0.0023225 0)
(0 -0.00208857 0)
(0 -0.00217638 0)
(0 -0.00240562 0)
(0 -0.00226144 0)
(0 -0.000843023 0)
(0 -0.000752722 0)
(0 -0.00203298 0)
(0 -0.00212036 0)
(0 -0.00234368 0)
(0 -0.00220454 0)
(0 -0.00136969 0)
(0 -0.0013549 0)
(0 -0.00145126 0)
(0 -0.00126991 0)
(0 -0.00198186 0)
(0 -0.00206689 0)
(0 -0.00204052 0)
(0 -0.00213527 0)
(0 -0.00213764 0)
(0 -0.00222885 0)
(0 -0.00222875 0)
(0 -0.00232105 0)
(0 -0.00231875 0)
(0 -0.00241195 0)
(0 -0.00240729 0)
(0 -0.00250171 0)
(0 -0.0024941 0)
(0 -0.00259018 0)
(0 -0.00257967 0)
(0 -0.00267727 0)
(0 -0.0026639 0)
(0 -0.00276283 0)
(0 -0.00284637 0)
(0 -0.00213522 0)
(0 -0.000505363 0)
(0 -0.000491174 0)
(0 -0.00180329 0)
(0 -0.000673715 0)
(0 -0.000916601 0)
(0 -0.00143364 0)
(0 -0.00153093 0)
(0 -0.00123353 0)
(0 -0.000908545 0)
(0 -0.000661058 0)
(0 -0.000630684 0)
(0 -0.00110268 0)
(0 -0.001844 0)
(0 -0.0019288 0)
(0 -0.00148937 0)
(0 -0.00261392 0)
(0 -0.00250416 0)
(0 -0.00116526 0)
(0 -0.00104816 0)
(0 -0.00102942 0)
(0 -0.000439681 0)
(0 -0.000426031 0)
(0 -0.00133721 0)
(0 -0.000928876 0)
(0 -0.000448171 0)
(0 -0.00242133 0)
(0 -0.00212882 0)
(0 -0.00294591 0)
(0 -0.00170607 0)
(0 -0.00179049 0)
(0 -0.00200736 0)
(0 -0.00186986 0)
(0 -0.00165445 0)
(0 -0.0017344 0)
(0 -0.00194327 0)
(0 -0.0018088 0)
(0 -0.00160136 0)
(0 -0.00167566 0)
(0 -0.000580478 0)
(0 -0.000552524 0)
(0 -0.000822949 0)
(0 -0.000828223 0)
(0 -0.000815522 0)
(0 -0.00151011 0)
(0 -0.00160845 0)
(0 -0.000895954 0)
(0 -0.000377751 0)
(0 -0.00036501 0)
(0 -0.00094922 0)
(0 -0.0024645 0)
(0 -0.00259746 0)
(0 -0.00255402 0)
(0 -0.0026839 0)
(0 -0.0026289 0)
(0 -0.0027589 0)
(0 -0.00269488 0)
(0 -0.00282213 0)
(0 -0.00275079 0)
(0 -0.00289304 0)
(0 -0.00286847 0)
(0 -0.00279109 0)
(0 -0.00267591 0)
(0 -0.00270981 0)
(0 -0.00259385 0)
(0 -0.00262032 0)
(0 -0.00250457 0)
(0 -0.00252551 0)
(0 -0.00241308 0)
(0 -0.00282024 0)
(0 -0.0024301 0)
(0 -0.00232335 0)
(0 -0.00254068 0)
(0 -0.00147066 0)
(0 -0.00154673 0)
(0 -0.00161632 0)
(0 -0.000904846 0)
(0 -0.000897986 0)
(0 -0.000805872 0)
(0 -0.000723469 0)
(0 -0.000714958 0)
(0 -0.000834368 0)
(0 -0.000502612 0)
(0 -0.000477517 0)
(0 -0.000526359 0)
(0 -0.00244302 0)
(0 -0.00255249 0)
(0 -0.00188013 0)
(0 -0.00176531 0)
(0 -0.00176801 0)
(0 -0.00165375 0)
(0 -0.00164626 0)
(0 -0.0015311 0)
(0 -0.00151139 0)
(0 -0.00139372 0)
(0 -0.00141429 0)
(0 -0.00127652 0)
(0 -0.00130071 0)
(0 -0.00136121 0)
(0 -0.00116282 0)
(0 -0.00119429 0)
(0 -0.00105422 0)
(0 -0.00109853 0)
(0 -0.000948325 0)
(0 -0.00097991 0)
(0 -0.00230619 0)
(0 -0.00222218 0)
(0 -0.000320155 0)
(0 -0.000308182 0)
(0 -0.000921769 0)
(0 -0.00093549 0)
(0 -0.00201135 0)
(0 -0.000348184 0)
(0 -0.000292017 0)
(0 -0.00220627 0)
(0 -0.00212662 0)
(0 -0.00213711 0)
(0 -0.0020444 0)
(0 -0.00134285 0)
(0 -0.00142101 0)
(0 -0.000845435 0)
(0 -0.00087925 0)
(0 -0.00099627 0)
(0 -0.000903013 0)
(0 -0.000255721 0)
(0 -0.0020382 0)
(0 -0.00195956 0)
(0 -0.000853965 0)
(0 -0.00101349 0)
(0 -0.000783277 0)
(0 -0.00101326 0)
(0 -0.00102931 0)
(0 -0.00110723 0)
(0 -0.00158441 0)
(0 -0.00168404 0)
(0 -0.000770038 0)
(0 -0.000327094 0)
(0 -0.000271418 0)
(0 -0.000301512 0)
(0 -0.00196145 0)
(0 -0.00188165 0)
(0 -0.00187989 0)
(0 -0.0018066 0)
(0 -0.00180481 0)
(0 -0.00173423 0)
(0 -0.00173267 0)
(0 -0.00166477 0)
(0 -0.00166401 0)
(0 -0.00159862 0)
(0 -0.00222438 0)
(0 -0.000742533 0)
(0 -0.00162509 0)
(0 -0.00149637 0)
(0 -0.00129524 0)
(0 -0.00136571 0)
(0 -0.00156121 0)
(0 -0.00142978 0)
(0 -0.00124179 0)
(0 -0.00130683 0)
(0 -0.00148676 0)
(0 -0.00136652 0)
(0 -0.0011884 0)
(0 -0.00124962 0)
(0 -0.00112309 0)
(0 -0.00120385 0)
(0 -0.000632436 0)
(0 -0.000624448 0)
(0 -0.00105357 0)
(0 -0.00203245 0)
(0 -0.00211845 0)
(0 -0.00107362 0)
(0 -0.00113567 0)
(0 -0.00148261 0)
(0 -0.00132075 0)
(0 -0.00144765 0)
(0 -0.00127521 0)
(0 -0.00140646 0)
(0 -0.00122404 0)
(0 -0.00135728 0)
(0 -0.00109731 0)
(0 -0.00176718 0)
(0 -0.00121765 0)
(0 -0.0013032 0)
(0 -0.00129461 0)
(0 -0.0012611 0)
(0 -0.000612692 0)
(0 -0.000884859 0)
(0 -0.000762122 0)
(0 -0.000427769 0)
(0 -0.00131967 0)
(0 -0.00159822 0)
(0 -0.00245186 0)
(0 -0.00256181 0)
(0 -0.00266497 0)
(0 -0.00267612 0)
(0 -0.00278153 0)
(0 -0.000653156 0)
(0 -0.000672879 0)
(0 -0.0013147 0)
(0 -0.0014056 0)
(0 -0.00116563 0)
(0 -0.00129776 0)
(0 -0.00173155 0)
(0 -0.00067642 0)
(0 -0.000784254 0)
(0 -0.000689995 0)
(0 -0.00162898 0)
(0 -0.00112182 0)
(0 -0.00102132 0)
(0 -0.000796493 0)
(0 -0.000701705 0)
(0 -0.000523064 0)
(0 -0.000962016 0)
(0 -0.00102395 0)
(0 -0.00279543 0)
(0 -0.00290237 0)
(0 -0.00174997 0)
(0 -0.00266709 0)
(0 -0.00144724 0)
(0 -0.000568065 0)
(0 -0.000589989 0)
(0 -0.0012561 0)
(0 -0.00108685 0)
(0 -0.000985706 0)
(0 -0.0010553 0)
(0 -0.00094977 0)
(0 -0.00102803 0)
(0 -0.000923157 0)
(0 -0.000636021 0)
(0 -0.000246213 0)
(0 -0.0002713 0)
(0 -0.00331975 0)
(0 -0.00255636 0)
(0 -0.00312737 0)
(0 -0.00200789 0)
(0 -0.00187947 0)
(0 -0.00195967 0)
(0 -0.00266652 0)
(0 -0.00279806 0)
(0 -0.00302599 0)
(0 -0.00119168 0)
(0 -0.00108023 0)
(0 -0.000914684 0)
(0 -0.000971584 0)
(0 -0.00296737 0)
(0 -0.00291535 0)
(0 -0.00202072 0)
(0 -0.00210418 0)
(0 -0.00220289 0)
(0 -0.00218627 0)
(0 -0.00228571 0)
(0 -0.0020863 0)
(0 -0.00216669 0)
(0 -0.00273093 0)
(0 -0.00211679 0)
(0 -0.00277368 0)
(0 -0.00146583 0)
(0 -0.00256172 0)
(0 -0.00263146 0)
(0 -0.0027727 0)
(0 -0.00283411 0)
(0 -0.00269404 0)
(0 -0.00297539 0)
(0 -0.00288749 0)
(0 -0.00274919 0)
(0 -0.00291439 0)
(0 -0.00311544 0)
(0 -0.00305557 0)
(0 -0.00174836 0)
(0 -0.00460825 0)
(0 -0.00391239 0)
(0 -0.00389957 0)
(0 -0.00403177 0)
(0 -0.00401354 0)
(0 -0.00414311 0)
(0 -0.00411995 0)
(0 -0.00424608 0)
(0 -0.00421952 0)
(0 -0.00434297 0)
(0 -0.00431336 0)
(0 -0.00419119 0)
(0 -0.0042812 0)
(0 -0.00416107 0)
(0 -0.00443475 0)
(0 -0.00424686 0)
(0 -0.00412888 0)
(0 -0.00446463 0)
(0 -0.00455423 0)
(0 -0.00458516 0)
(0 -0.00421026 0)
(0 -0.00409429 0)
(0 -0.00467122 0)
(0 -0.00470247 0)
(0 -0.00478498 0)
(0 -0.00481518 0)
(0 -0.00474956 0)
(0 -0.00417072 0)
(0 -0.00405683 0)
(0 -0.00489595 0)
(0 -0.00492554 0)
(0 -0.00500338 0)
(0 -0.00503342 0)
(0 -0.00428424 0)
(0 -0.00423909 0)
(0 -0.00510783 0)
(0 -0.00513858 0)
(0 -0.00506001 0)
(0 -0.00516594 0)
(0 -0.00435042 0)
(0 -0.00397757 0)
(0 -0.00394093 0)
(0 -0.00524074 0)
(0 -0.00526761 0)
(0 -0.00518895 0)
(0 -0.0052894 0)
(0 -0.00536294 0)
(0 -0.00538383 0)
(0 -0.00429986 0)
(0 -0.00530627 0)
(0 -0.00540018 0)
(0 -0.00547238 0)
(0 -0.00548711 0)
(0 -0.00541216 0)
(0 -0.00549799 0)
(0 -0.00542102 0)
(0 -0.00550553 0)
(0 -0.0055805 0)
(0 -0.00558771 0)
(0 -0.0055101 0)
(0 -0.00558921 0)
(0 -0.00566362 0)
(0 -0.00566145 0)
(0 -0.00557683 0)
(0 -0.00565245 0)
(0 -0.00572748 0)
(0 -0.00571313 0)
(0 -0.00562223 0)
(0 -0.0056907 0)
(0 -0.00576835 0)
(0 -0.00574535 0)
(0 -0.00566373 0)
(0 -0.00571578 0)
(0 -0.00563121 0)
(0 -0.00568017 0)
(0 -0.0057592 0)
(0 -0.00572312 0)
(0 -0.0056388 0)
(0 -0.00568035 0)
(0 -0.00576863 0)
(0 -0.00571569 0)
(0 -0.00563272 0)
(0 -0.0056632 0)
(0 -0.00573879 0)
(0 -0.00568495 0)
(0 -0.00560855 0)
(0 -0.00562315 0)
(0 -0.00569546 0)
(0 -0.00562948 0)
(0 -0.00555497 0)
(0 -0.00555714 0)
(0 -0.00562652 0)
(0 -0.00555073 0)
(0 -0.00547648 0)
(0 -0.00546724 0)
(0 -0.00553659 0)
(0 -0.00545169 0)
(0 -0.0053759 0)
(0 -0.00535669 0)
(0 -0.00543025 0)
(0 -0.00533204 0)
(0 -0.00540483 0)
(0 -0.00530408 0)
(0 -0.00537638 0)
(0 -0.00527162 0)
(0 -0.00519924 0)
(0 -0.00516344 0)
(0 -0.00523173 0)
(0 -0.00512091 0)
(0 -0.00518337 0)
(0 -0.00505591 0)
(0 -0.00512971 0)
(0 -0.00501217 0)
(0 -0.00507324 0)
(0 -0.00494986 0)
(0 -0.00500347 0)
(0 -0.00486099 0)
(0 -0.00492462 0)
(0 -0.00479716 0)
(0 -0.00484559 0)
(0 -0.00471537 0)
(0 -0.00467169 0)
(0 -0.00527799 0)
(0 -0.00488641 0)
(0 -0.00505531 0)
(0 -0.00476146 0)
(0 -0.00462504 0)
(0 -0.00385832 0)
(0 -0.00382154 0)
(0 -0.00389971 0)
(0 -0.00378091 0)
(0 -0.00370056 0)
(0 -0.00366098 0)
(0 -0.00357845 0)
(0 -0.00353778 0)
(0 -0.00345501 0)
(0 -0.00341325 0)
(0 -0.00547399 0)
(0 -0.00507235 0)
(0 -0.00524666 0)
(0 -0.00467233 0)
(0 -0.00333059 0)
(0 -0.00328905 0)
(0 -0.0045307 0)
(0 -0.00480856 0)
(0 -0.00440843 0)
(0 -0.00385478 0)
(0 -0.00505254 0)
(0 -0.00336196 0)
(0 -0.00320594 0)
(0 -0.00316594 0)
(0 -0.00457897 0)
(0 -0.0043528 0)
(0 -0.00472856 0)
(0 -0.00308191 0)
(0 -0.00304343 0)
(0 -0.00443261 0)
(0 -0.00438177 0)
(0 -0.00295853 0)
(0 -0.00292214 0)
(0 -0.00283599 0)
(0 -0.00280159 0)
(0 -0.00271452 0)
(0 -0.00268107 0)
(0 -0.00311717 0)
(0 -0.00259393 0)
(0 -0.00256191 0)
(0 -0.00388398 0)
(0 -0.00448429 0)
(0 -0.00349136 0)
(0 -0.00445849 0)
(0 -0.00263799 0)
(0 -0.00428062 0)
(0 -0.00422926 0)
(0 -0.00451522 0)
(0 -0.00247478 0)
(0 -0.00244461 0)
(0 -0.00439829 0)
(0 -0.00429422 0)
(0 -0.00456184 0)
(0 -0.00461972 0)
(0 -0.0029966 0)
(0 -0.00433494 0)
(0 -0.00423236 0)
(0 -0.0023573 0)
(0 -0.00232953 0)
(0 -0.00412588 0)
(0 -0.00407717 0)
(0 -0.00418179 0)
(0 -0.00403345 0)
(0 -0.00413882 0)
(0 -0.00399264 0)
(0 -0.00409668 0)
(0 -0.00395312 0)
(0 -0.00405568 0)
(0 -0.00224114 0)
(0 -0.00221567 0)
(0 -0.0021258 0)
(0 -0.00210185 0)
(0 -0.00201187 0)
(0 -0.00198885 0)
(0 -0.00189986 0)
(0 -0.00466282 0)
(0 -0.00472268 0)
(0 -0.00206848 0)
(0 -0.00187196 0)
(0 -0.00426796 0)
(0 -0.00416718 0)
(0 -0.00238098 0)
(0 -0.00476171 0)
(0 -0.00482337 0)
(0 -0.00417809 0)
(0 -0.00416196 0)
(0 -0.00581754 0)
(0 -0.00439717 0)
(0 -0.00555558 0)
(0 -0.0051737 0)
(0 -0.00513257 0)
(0 -0.00523011 0)
(0 -0.00518489 0)
(0 -0.00527776 0)
(0 -0.00532257 0)
(0 -0.00536549 0)
(0 -0.00541079 0)
(0 -0.00459965 0)
(0 -0.00553555 0)
(0 -0.00561501 0)
(0 -0.00558979 0)
(0 -0.00566552 0)
(0 -0.00563473 0)
(0 -0.00569057 0)
(0 -0.00573656 0)
(0 -0.00576205 0)
(0 -0.00257477 0)
(0 -0.00484873 0)
(0 -0.00165633 0)
(0 -0.00155671 0)
(0 -0.00175695 0)
(0 -0.00583449 0)
(0 -0.00588046 0)
(0 -0.00589208 0)
(0 -0.0059352 0)
(0 -0.00594285 0)
(0 -0.00598149 0)
(0 -0.00597082 0)
(0 -0.000541111 0)
(0 -0.000530203 0)
(0 -0.000546238 0)
(0 -0.00462869 0)
(0 -0.00453652 0)
(0 -0.0046801 0)
(0 -0.00300835 0)
(0 -0.00314618 0)
(0 -0.00323341 0)
(0 -0.0033676 0)
(0 -0.00344912 0)
(0 -0.00357974 0)
(0 -0.00349893 0)
(0 -0.00314106 0)
(0 -0.00325091 0)
(0 -0.00335968 0)
(0 -0.00346334 0)
(0 -0.00356688 0)
(0 -0.00366459 0)
(0 -0.00355991 0)
(0 -0.00375658 0)
(0 -0.0036491 0)
(0 -0.00109115 0)
(0 -0.00217718 0)
(0 -0.00206937 0)
(0 -0.00191911 0)
(0 -0.00180693 0)
(0 -0.00165459 0)
(0 -0.0015372 0)
(0 -0.00168872 0)
(0 -0.0013839 0)
(0 -0.00150267 0)
(0 -0.00284054 0)
(0 -0.000327686 0)
(0 -0.00115922 0)
(0 -0.00250755 0)
(0 -0.00311279 0)
(0 -0.00027385 0)
(0 -0.000276382 0)
(0 -0.000219963 0)
(0 -0.00228832 0)
(0 -0.0021615 0)
(0 -0.00203055 0)
(0 -0.00190149 0)
(0 -0.00176867 0)
(0 -0.00163744 0)
(0 -0.00177117 0)
(0 -0.00150361 0)
(0 -0.00163218 0)
(0 -0.00150371 0)
(0 -0.0016405 0)
(0 -0.00136966 0)
(0 -0.00151266 0)
(0 -0.00155135 0)
(0 -0.00379326 0)
(0 -0.0010061 0)
(0 -0.00205094 0)
(0 -0.00157645 0)
(0 -0.00463595 0)
(0 -0.0047508 0)
(0 -0.0047711 0)
(0 -0.00488249 0)
(0 -0.0048971 0)
(0 -0.00485953 0)
(0 -0.004988 0)
(0 -0.00496278 0)
(0 -0.0033173 0)
(0 -0.00362256 0)
(0 -0.00380704 0)
(0 -0.00158914 0)
(0 -0.00280011 0)
(0 -0.00278378 0)
(0 -0.00333188 0)
(0 -0.00113431 0)
(0 -0.00346424 0)
(0 -0.00366438 0)
(0 -0.00356489 0)
(0 -0.00376222 0)
(0 -0.00366503 0)
(0 -0.00491685 0)
(0 -0.00498487 0)
(0 -0.0050486 0)
(0 -0.00511069 0)
(0 -0.00517054 0)
(0 -0.00522624 0)
(0 -0.00516545 0)
(0 -0.00352616 0)
(0 -0.00339655 0)
(0 -0.00199679 0)
(0 -0.00336327 0)
(0 -0.00227156 0)
(0 -0.00225068 0)
(0 -0.00238743 0)
(0 -0.00147922 0)
(0 -0.00138406 0)
(0 -0.00124833 0)
(0 -0.00185 0)
(0 -0.001753 0)
(0 -0.00160701 0)
(0 -0.00150437 0)
(0 -0.00135945 0)
(0 -0.00295297 0)
(0 -0.00577292 0)
(0 -0.00420299 0)
(0 -0.000801581 0)
(0 -0.00306535 0)
(0 -0.00317634 0)
(0 -0.00432821 0)
(0 -0.00389165 0)
(0 -0.00141984 0)
(0 -0.00557576 0)
(0 -0.00183344 0)
(0 -0.00478387 0)
(0 -0.00490493 0)
(0 -0.00479055 0)
(0 -0.0016512 0)
(0 -0.00139606 0)
(0 -0.00352404 0)
(0 -0.00529615 0)
(0 -0.00519705 0)
(0 -0.00521349 0)
(0 -0.00511422 0)
(0 -0.00512899 0)
(0 -0.00503042 0)
(0 -0.00501115 0)
(0 -0.00504203 0)
(0 -0.00513818 0)
(0 -0.00492824 0)
(0 -0.00490621 0)
(0 -0.00504576 0)
(0 -0.0051394 0)
(0 -0.00510731 0)
(0 -0.00208064 0)
(0 -0.00383155 0)
(0 -0.00399184 0)
(0 -0.00387514 0)
(0 -0.00385894 0)
(0 -0.00374137 0)
(0 -0.00371947 0)
(0 -0.00375867 0)
(0 -0.00362624 0)
(0 -0.00364536 0)
(0 -0.00351529 0)
(0 -0.0035349 0)
(0 -0.00340692 0)
(0 -0.00342282 0)
(0 -0.00338094 0)
(0 -0.00327277 0)
(0 -0.0035419 0)
(0 -0.00342532 0)
(0 -0.0035342 0)
(0 -0.00341509 0)
(0 -0.00351574 0)
(0 -0.00339666 0)
(0 -0.00348827 0)
(0 -0.00330624 0)
(0 -0.000472649 0)
(0 -0.000725757 0)
(0 -0.000712017 0)
(0 -0.000796229 0)
(0 -0.000784535 0)
(0 -0.00606292 0)
(0 -0.00602724 0)
(0 -0.00603165 0)
(0 -0.0059927 0)
(0 -0.00599446 0)
(0 -0.00595163 0)
(0 -0.00595207 0)
(0 -0.00599263 0)
(0 -0.00590379 0)
(0 -0.00590084 0)
(0 -0.00594895 0)
(0 -0.00598663 0)
(0 -0.0058988 0)
(0 -0.00594564 0)
(0 -0.000806647 0)
(0 -0.000711338 0)
(0 -0.00065643 0)
(0 -0.00580782 0)
(0 -0.00573155 0)
(0 -0.0057683 0)
(0 -0.00568871 0)
(0 -0.00572343 0)
(0 -0.00563325 0)
(0 -0.00322657 0)
(0 -0.00158479 0)
(0 -0.00159428 0)
(0 -0.00169515 0)
(0 -0.00169995 0)
(0 -0.00180596 0)
(0 -0.00159324 0)
(0 -0.00181079 0)
(0 -0.0019183 0)
(0 -0.00191493 0)
(0 -0.00202947 0)
(0 -0.00202998 0)
(0 -0.00214781 0)
(0 -0.00215098 0)
(0 -0.00203355 0)
(0 -0.00215709 0)
(0 -0.0020398 0)
(0 -0.00216793 0)
(0 -0.00228496 0)
(0 -0.00229984 0)
(0 -0.00218211 0)
(0 -0.00231637 0)
(0 -0.00219941 0)
(0 -0.00233148 0)
(0 -0.00222052 0)
(0 -0.00235232 0)
(0 -0.00224583 0)
(0 -0.00238001 0)
(0 -0.00227265 0)
(0 -0.00240811 0)
(0 -0.00230112 0)
(0 -0.0024388 0)
(0 -0.0023309 0)
(0 -0.00247433 0)
(0 -0.00237094 0)
(0 -0.00251485 0)
(0 -0.002418 0)
(0 -0.0022706 0)
(0 -0.00255863 0)
(0 -0.00245232 0)
(0 -0.00266201 0)
(0 -0.00391224 0)
(0 -0.00309939 0)
(0 -0.00594499 0)
(0 -0.00187427 0)
(0 -0.00383697 0)
(0 -0.0036911 0)
(0 -0.00380835 0)
(0 -0.00365468 0)
(0 -0.00376954 0)
(0 -0.00354011 0)
(0 -0.00360842 0)
(0 -0.00336575 0)
(0 -0.00344551 0)
(0 -0.000799301 0)
(0 -0.000809056 0)
(0 -0.000866121 0)
(0 -0.00522751 0)
(0 -0.00554242 0)