/*--------------------------------*- C++ -*----------------------------------*\
| =========                 |                                                 |
| \\      /  F ield         | OpenFOAM: The Open Source CFD Toolbox           |
|  \\    /   O peration     | Version:  v2012                                 |
|   \\  /    A nd           | Website:  www.openfoam.com                      |
|    \\/     M anipulation  |                                                 |
\*---------------------------------------------------------------------------*/
FoamFile
{
    version     2.0;
    format      ascii;
    class       surfaceScalarField;
    location    "350";
    object      meshPhiCN_0;
}
// * * * * * * * * * * * * * * * * * * * * * * * * * * * * * * * * * * * * * //

dimensions      [0 3 -1 0 0 0 0];
oriented        oriented;


internalField   nonuniform List<scalar> 
14516
(
-0.00122722
-0.0036664
0.00502029
-3.29291e-06
-9.99556e-05
0.000118275
0.00413953
-0.00522725
0.00162819
-0.00207821
0.000347484
0.00641424
-0.00438252
-0.00194332
-0.00552155
0.000688687
0.00484233
8.33743e-06
1.26367e-05
0.000142797
-0.000617895
0.00033792
8.12405e-05
0.00546768
0.000534333
-0.00613865
0.00266697
0.00385249
0.00505474
-0.0062566
0.00124356
0.00408105
-0.000299048
-0.00376924
0.00168702
-0.000278348
-7.8517e-05
-0.00123543
0.00125456
0.000150675
0.00010511
-0.00113336
-2.40046e-05
0.00111986
-0.00390468
0.00127875
0.00249616
-0.00134781
-0.00254093
0.00557222
-0.000559694
-0.00494494
-0.00127187
-0.000407507
-0.00479033
0.00520828
0.000729589
-0.0062715
0.00540517
0.00246337
-0.000836649
-0.00162954
2.1736e-05
-2.1736e-05
0.0029085
-0.000399273
-0.00251178
0.00107291
0.000313811
0.00102821
8.81484e-06
-0.00105908
-7.54123e-05
-0.00237091
0.00234556
-0.00750367
0.00252093
0.00504587
0.00571042
-0.000437749
0.00459533
-0.00541766
0.000880629
0.000483148
0.0019887
0.00277459
-0.000580828
-0.00209428
-3.62556e-05
-4.65561e-05
2.82388e-05
0.00277209
-0.00850834
0.00576884
0.00541038
-0.000605382
-0.00475543
6.99928e-07
2.37756e-05
-0.0054328
0.00602331
0.00187034
-0.00135688
-0.000467082
-0.000152068
0.000644279
-0.000774982
0.00591489
-0.00129
0.000501058
-0.000102116
0.000646606
-0.0011591
0.000226313
-1.025e-06
4.03493e-05
1.36714e-06
0.000482192
-0.000257519
-0.00030439
-0.0047119
0.000124355
-0.0013029
0.00116219
-0.000587152
-0.00391362
0.00441978
-0.000506937
-0.00163217
-0.00389656
-0.00456947
9.59134e-05
-0.0050764
0.00499021
0.00563223
-0.00133798
-0.00434702
-0.00743184
0.00768361
-0.000297885
0.000646199
-0.00405907
0.00343203
0.00471251
-0.00477866
0.000141742
-0.00371414
0.0039148
-0.00505362
0.00129113
0.00377735
0.0036524
0.000126818
-0.00367593
0.00116492
0.000549612
1.15162e-05
0.000229308
-0.000365418
0.00593668
-0.000925914
-0.00506534
0.00390132
-0.00446464
0.000552611
0.000195226
-0.000335472
6.44733e-06
0.0037396
0.00195086
-0.000331346
-0.00257123
0.00289059
0.00490224
-0.000979309
-0.00420128
0.00463876
-0.000483527
0.000558447
0.00354561
-0.000405062
0.00546647
-0.00398574
0.00464992
2.80108e-05
5.04177e-14
-2.97831e-05
0.00342343
-0.00070177
-0.00307785
-0.000347141
0.000285918
4.53e-05
0.00176723
-0.00559135
-8.04006e-05
0.00382245
-0.000571951
-0.00448223
0.00488001
-4.82704e-06
-5.11285e-10
9.2156e-06
-0.00211835
0.000484
0.0015012
-0.00337838
0.00100106
0.00231377
-0.00214577
0.00181331
-0.00214819
0.000483445
0.00162249
7.15383e-05
1.51437e-07
-5.8144e-05
-1.96134e-05
-0.00157277
0.00158147
0.00546741
0.000456921
0.000104936
-0.00134354
0.00124144
-0.00238856
-0.00110599
1.14217e-05
-0.00502308
0.00482812
-0.0053305
0.00559064
-0.000240072
0.00210171
-0.000480358
-0.00160584
-0.000205962
0.000215938
-0.000531702
-0.00446994
0.0050338
0.00201232
-0.00163236
-0.000411659
0.00246706
-0.00197877
0.00054939
-0.0016686
0.0016383
0.00483236
-0.000103512
8.76478e-05
6.44187e-06
0.00058934
0.00142357
0.000220845
-0.00100344
0.000761924
-0.000805675
0.00100817
0.00241735
-0.000434512
-0.00199122
0.00273277
-0.000564624
-0.00214273
0.00215986
0.000596275
2.01701e-05
2.41047e-07
0.00580818
-0.000387497
0.00641597
-0.000900136
0.000215008
-4.63041e-06
-0.000350649
0.00471659
0.000944477
-0.000225412
-0.00105035
0.00122554
1.16562e-07
2.51828e-05
0.000170716
0.00434304
-0.00455885
0.00605743
-0.00462532
-0.00111873
0.00550461
-0.00427034
0.00485194
-0.00474658
-0.00443126
0.00040482
-0.00244691
0.00212856
-0.00375732
0.00559519
-0.000387765
-0.00179977
0.00211241
0.000402397
0.000889171
-0.00116058
-1.93243e-05
4.45027e-06
4.72689e-06
0.00602622
-0.00619115
0.000194702
-0.000192212
-0.00533074
-0.000325448
-0.00595307
0.00622708
-0.0048436
0.00444616
-0.00493112
0.00117154
0.00380793
0.0014695
-0.00136198
-0.000358958
-0.00186981
-0.00479085
0.00118673
0.00335793
3.49919e-06
2.75581e-05
-3.33083e-05
-0.00464477
-0.00239706
-0.00261629
-0.000262289
-0.00227991
0.002448
0.00442484
0.00117422
0.000211753
-0.0051914
0.00482302
0.000102837
-0.000165624
8.41294e-05
-5.35932e-05
0.000663093
0.00563818
0.000238403
-0.000257804
-4.59302e-06
3.64163e-05
0.00594707
0.00285593
-0.000282576
-0.00261483
-1.53648e-05
0.000157824
-0.000157643
-0.000212868
0.000923009
-0.000780196
-0.00135464
5.26153e-05
0.000104571
0.00134532
-0.0014859
2.90521e-06
5.83028e-05
-4.3934e-05
0.000863272
-0.00115376
0.00267302
-0.000756468
-0.00190518
0.00408885
-0.00459269
0.00354369
0.000811427
-0.00427163
-2.06633e-05
2.15513e-05
0.00470402
-0.0010548
-0.00195741
0.00473513
0.000723722
0.00196227
-1.49001e-05
-1.07617e-05
-2.23474e-05
0.000225896
-0.0001891
0.000382394
0.00242236
-0.000229923
0.00105125
0.000417403
-0.000451217
-0.000747762
-0.000142888
0.00207735
-0.00224355
6.83303e-05
0.000874751
-0.000993856
-0.00105325
0.00636089
-0.00528618
-0.00021104
7.69607e-05
0.000160278
-0.0056248
0.000926874
-0.00123349
-0.00798092
0.00733592
0.000635308
0.00106936
-7.14422e-05
0.000356182
-0.00231894
0.00187901
-0.00395975
0.00125832
0.00285826
0.00121871
-0.00238204
0.00120068
-0.000126745
-4.32346e-05
-0.000977387
0.00226546
-0.000681933
-0.00544572
0.0060387
0.00453489
-0.00496464
2.89178e-05
-1.62453e-05
-3.70329e-06
0.000768358
-0.00382687
0.00291357
0.0085403
-0.00394005
-0.00461979
0.00441193
-0.00330532
-0.00108461
-0.00631595
0.00581568
0.000438985
-0.00107664
0.00257977
0.00366622
7.63053e-05
-0.00365357
0.00314122
1.88883e-06
-0.00110835
-0.00391072
-0.00265819
0.0032898
-0.000142352
0.00585994
-0.00567243
-0.000943332
0.000962215
-0.00636849
0.00560151
0.00511282
-8.04097e-05
-0.00535851
0.00390787
-0.00458308
-0.00434373
0.00447358
0.000634307
0.00205605
0.00643729
-0.00687124
0.00174515
0.00518409
-0.000192695
-0.00179774
0.00194846
-0.00491953
0.00308455
1.42261e-05
0.000219527
0.00519201
-0.00084578
-0.00195398
-0.00360541
0.00560965
-8.01149e-06
-0.0046559
-0.00385329
0.00285357
0.000808904
-0.000359651
-0.00494394
2.93917e-05
5.2956e-07
-0.000214325
4.04685e-05
0.00104094
-0.00114572
0.00513824
0.000563357
-0.00686879
-0.000162951
0.00686321
0.000364238
0.00567592
-0.00600065
-0.000278781
0.0040653
0.000444512
-0.00440067
-0.00559708
-0.00196075
-0.00304736
-0.00378291
0.000225248
-0.000233385
-0.000275661
-0.00190946
0.0020556
-0.000217285
0.00394673
3.80514e-05
-1.80672e-06
0.00429843
-0.00402685
-0.000228458
-0.000349987
0.0055296
-0.00502154
-0.00205015
-0.00390028
0.00577001
-0.0058163
1.72308e-05
0.00464465
-6.11627e-05
-0.00152319
0.00443855
-0.00494533
0.00564515
-0.00252492
0.00187099
0.0006266
0.00463297
-0.00484265
0.000537805
-0.00512481
0.00458883
8.60778e-06
6.65786e-06
-6.20862e-06
-6.94789e-06
-0.00164087
-0.00477693
9.4604e-05
-0.000172451
9.09743e-05
-0.0053858
0.00102839
0.00437267
0.00394712
0.000369368
-0.00546138
0.00547282
5.52587e-05
0.00360574
-0.0034049
-8.04368e-05
0.000150092
0.00470037
0.000504738
0.00167912
-0.002166
0.00538549
-0.000394555
7.60441e-05
-0.00129741
0.00117085
1.79138e-05
0.00249552
-0.00241552
0.00257435
0.000210753
-0.00338756
-6.90586e-06
0.00336487
-0.00231452
0.00158029
-4.39753e-07
7.22632e-05
0.00300878
-0.00265545
-0.00172895
-0.000113276
2.39367e-05
0.000700147
0.00433489
-0.00507761
-0.0080442
0.000930493
0.00709218
-0.000421731
0.00527354
0.000777858
-0.00490447
0.00414051
-0.00264099
0.00307243
-0.000260281
-0.000281516
0.0062303
-0.00605216
-0.00424568
0.0035648
0.000702123
-0.00223279
-0.00583333
-0.00031803
-0.00442475
0.00479038
-0.000182102
-0.00104239
0.00113616
0.00107495
0.000363236
-0.0014769
0.000148456
-0.00500997
0.00458635
0.000163162
-0.000212697
-9.72091e-06
-0.00180689
-0.00617263
1.85783e-05
-2.60202e-05
2.72527e-06
-1.35492e-06
5.17177e-06
-0.00526846
0.00566934
0.00183263
-0.00539474
-0.00535326
-0.00116515
0.00661141
-0.000982325
0.000730886
-0.000104222
-0.000781643
0.00090744
-0.00870826
0.00241191
0.00633162
-0.000685482
-0.00447724
0.00495952
0.000134502
9.8102e-05
-0.000247406
-5.14223e-05
0.000175623
-0.00294065
0.000202699
-0.00458903
-0.000114633
0.00184141
-0.00222668
-0.00413777
0.000244876
0.0027569
4.82267e-06
-2.64789e-05
6.30306e-06
-2.85954e-05
-6.89163e-05
2.81376e-05
-0.000900348
0.000497466
0.00258208
-0.00478303
-0.00470502
0.00536427
-0.00968881
0.00411152
0.00556976
-2.52581e-05
-0.000589385
0.000718902
0.00476228
-0.00523822
-0.00461612
-0.00177363
0.00225199
0.000787357
-0.0057957
0.00517274
5.70633e-05
2.63336e-06
4.1264e-06
8.2043e-07
0.00217046
-0.0025178
0.000424906
-0.0064792
0.00596899
-0.00453465
-0.00518588
0.00296847
-0.0036131
0.000118479
-0.00322498
-0.00160802
0.00498363
-0.00179525
-0.00136934
-0.00168562
0.00300774
0.00231066
0.000166331
-0.00256743
0.000113739
-2.32465e-05
0.00014516
-1.35565e-05
-0.000179889
0.000314435
0.00062597
-0.00101237
-0.00279723
-0.00588739
-0.00412262
-0.00231569
0.00641577
-0.00275396
0.00271081
4.24286e-05
0.00110466
-0.0025104
-5.17475e-05
0.00220786
-0.00278237
-0.000655518
0.000899662
0.00206505
-0.00621385
0.00581964
-0.000283675
-0.00560833
-0.0063946
0.0051
0.001234
0.00180927
0.000311235
0.00139748
0.00264181
-0.00246301
-0.000251421
-0.00805841
0.00687848
0.00117689
-0.00773317
0.000732506
0.00238134
-0.00228307
-0.000184939
-0.000247046
-0.00697542
0.00314913
0.0038615
-8.05519e-06
0.000285887
2.1179e-05
1.33636e-05
0.00173284
0.00270784
0.000655292
-0.00673497
0.00597324
-0.00349003
0.00371765
0.00122096
-0.00487545
-0.000762274
0.000856222
-0.000112662
0.0056463
-0.00497456
0.0059856
0.00209973
0.000235595
0.00479661
0.000432807
0.000838402
0.00302275
-0.00381878
0.000434414
-0.000598936
-9.56595e-05
0.000630223
-0.000693779
0.00365485
0.00159481
-0.000151454
-0.000161599
0.000275743
-0.0027182
0.000272027
-0.00628485
0.00391039
0.00246658
0.00113147
-0.0040139
0.00221449
0.000140228
0.00192468
-0.00174846
0.00227257
-0.0010412
0.000981637
-7.52469e-06
0.00566191
-0.00671874
0.000887225
0.00015158
-0.00448985
-0.00621204
0.000206628
0.00596515
0.0047511
-0.00604702
0.00125039
0.00592072
-0.0059186
-5.54022e-05
-0.00218122
-0.00281168
0.000575868
0.00213774
0.00169544
0.00591482
-0.00605123
0.00637562
-0.000330123
3.13742e-05
-0.00712542
0.00311412
0.00408993
0.000475176
-0.00443044
-0.00468474
0.00360224
-0.00329071
-0.00374989
0.00655645
-0.00103814
-0.00188409
0.00259117
-0.000694242
0.00208356
-0.00508952
0.000286674
-0.000379104
-0.000428579
0.00147381
0.00207836
-0.000298582
0.000166224
-5.7408e-05
-0.000179725
0.00239182
0.00499612
-0.000326112
-0.00324939
-0.00369292
0.00568917
-0.00101754
-0.00136717
-0.00398908
0.00348249
-0.00404282
0.000158266
-0.00330526
0.00309521
-0.0023558
-0.000137218
0.00223703
-0.00226208
-0.00642043
0.000846656
0.00557235
0.000181186
0.00540859
-0.00578488
-0.00727473
0.00129722
0.00580829
0.000202806
0.00377515
-0.000390826
0.00268549
0.0007627
-0.00695799
0.00605237
-5.98919e-05
-3.43511e-05
8.85401e-05
0.000378241
3.09394e-05
-0.00105342
-0.00567826
-0.000742281
0.00601923
-0.00115411
-0.00164189
0.00380165
-0.00622945
0.00228871
0.000272641
0.00387863
5.43775e-05
0.00153622
-0.00158824
0.00528
0.00501419
-0.00447797
-0.000164687
0.000128507
1.19433e-05
-5.02007e-06
-0.000198929
0.000139065
0.00472494
-0.00104029
-0.00453779
0.00477688
-0.000219564
-0.00151111
0.0015676
0.00125551
-0.0012287
-0.000700092
0.00499735
-0.00433483
-0.00250006
-0.00203826
0.00458861
0.000772557
-0.000856129
-0.00494706
0.00392951
-0.00324454
-2.03206e-05
-0.00631604
-8.52891e-05
0.00088169
0.00575133
0.000297789
-0.00597952
-0.00206177
0.00297932
-0.00172344
-0.00471919
-0.00468061
-0.00106248
-0.00177284
0.00093814
0.000155613
0.00173047
-0.00190168
-0.00586694
-0.00204029
0.00218128
0.000365379
0.00171285
0.0010602
-0.0013693
0.00143767
-0.00468381
0.00549547
-0.000756593
0.00148462
-0.00206309
-0.0021044
-0.00435864
-0.00418803
-0.0066026
0.00585663
0.000538176
-0.00431629
0.00404091
-0.00593123
0.000921226
-7.69267e-05
0.00170036
-0.00563553
-0.000517277
0.00103608
-0.000467113
-0.00713912
0.00494248
-0.000866675
-7.84573e-05
0.000916263
-0.00101689
0.00208825
-0.0010598
-5.92807e-05
0.00100761
-0.0020379
-0.00173767
0.00201217
0.000232263
-0.00400773
0.00370135
3.19801e-05
0.000390632
-0.000263677
-0.000106596
0.000161041
-4.49482e-05
-0.00197324
0.00562968
-0.00367069
0.00367944
0.0015982
-0.00183075
0.00465881
-0.00414803
8.59677e-05
-0.00241381
-0.00161375
-0.00611557
-0.00568494
0.00323141
-0.00376441
-0.00161736
0.00506442
-0.000525752
-0.0045144
-0.00410192
0.00370375
-0.00635812
0.00533348
-0.00276561
-0.00251915
0.00354813
-0.00621198
0.00266662
-0.00503771
0.00674225
-0.000233295
0.00607736
1.45505e-07
-0.00201861
0.00236665
-0.000334692
0.00153664
-0.00215087
0.0022238
-0.00192551
-0.000207817
-0.00547711
0.00413711
-0.00651957
0.0003455
0.0014752
-0.00195519
0.00605457
-0.00614771
-0.00281542
0.00228113
0.000169062
-3.03682e-05
9.65501e-06
0.00422213
-0.00405939
-0.00706447
0.00530595
-0.00387032
0.0037149
-0.00204637
-0.000714275
-0.00845359
0.00569545
2.36475e-07
-1.1373e-05
-0.000169988
6.6753e-05
-3.62416e-06
4.10398e-05
-4.97782e-05
0.00191765
0.00616167
-0.00264064
-0.00214486
0.000218294
0.00210379
8.04288e-05
0.000829267
-0.000894293
-0.000448334
-9.49514e-05
0.000428783
-0.00398556
0.00356576
0.00133158
-0.000476112
0.000467694
-0.000393677
0.00244668
0.0030048
-0.00229105
0.00236913
0.00451237
0.000472537
-0.00578274
-0.00361132
-0.000793722
-0.0039461
9.49933e-05
-0.000184184
-3.0677e-05
0.000135995
-0.00619375
-0.000941155
-0.00387085
-0.00356165
-0.00362118
0.00014097
-0.000146776
-6.91493e-05
0.000591439
-0.000988433
-0.000178146
-0.00205286
0.000236021
-0.00288329
-0.00274721
0.000206799
5.83028e-05
-0.000412419
-0.00454404
0.000193486
-3.66613e-05
-0.000148627
-0.00350763
0.00830755
-0.00434821
-0.00395414
-0.000413726
0.00158346
-0.0011965
-0.00555567
0.00651426
-0.00176048
0.002112
0.00451483
-0.00021368
-0.00251411
7.30207e-06
0.00389668
-0.00390004
0.000120352
0.00298769
-0.0028748
-0.00459425
-0.000534365
0.00575514
0.000106402
-0.00651401
0.00547676
0.00108274
-0.0025383
0.00226163
-0.00562014
0.00106167
-0.0015007
0.00394637
0.00488669
-0.000356118
0.00143365
0.000281534
-0.00175806
0.0021985
6.42784e-05
-0.0023686
-0.00399583
0.00370216
0.00214744
-0.00089343
-0.00127409
0.0017239
-0.00031036
0.00429317
-0.00134639
-0.00322244
0.000464839
0.00172334
2.34363e-05
-0.00385917
0.00344732
0.0048889
-0.000952459
0.00208405
-2.74168e-07
0.00251086
-0.00238386
-0.000181043
-0.005908
0.00601928
-0.000267665
-4.25827e-07
8.83003e-06
0.00229913
0.00153702
-0.00433981
-0.000376395
0.00473306
-0.0039052
-0.000738889
7.23174e-05
-0.00082345
0.00202656
-0.00210307
5.09508e-05
0.000226527
-0.00473902
0.00615787
-0.00616352
-0.000189705
-0.000168128
-0.00109988
0.0012798
0.00102237
-0.00701527
-1.45553e-05
-0.00319615
-0.0036483
-0.00478142
-0.00434485
0.00398312
-1.30582e-05
4.95612e-06
0.0056262
-0.00342245
0.00751485
-0.00372555
-0.000286194
0.00394851
0.000452374
-0.000100132
-0.00152033
0.00271229
0.000335862
-3.02731e-05
-0.000286178
-0.00262471
0.000733716
0.0004791
-0.00400312
0.000178589
-0.00236226
0.000721646
0.00425198
-0.00494416
-0.00276831
-0.00371461
0.00376053
-0.00374931
-0.00621052
0.00607542
0.000296257
-3.47194e-05
-0.00547874
0.00494377
0.000552219
0.00216681
-0.000181549
-0.00156797
7.5644e-05
0.00142523
-0.00610616
0.00547514
0.000605577
0.0035534
0.000295341
-0.00391
0.000107137
-0.00084355
0.000686619
-0.00108122
0.00125921
-0.000212001
6.32941e-05
-0.00016504
-0.000435508
0.000253491
-0.00433366
0.000781419
0.00357397
-9.4877e-05
0.000935556
-0.000865904
0.000259802
-0.000305802
-1.02374e-05
-0.00550327
0.00534259
0.000109152
-0.00449511
-0.00326518
0.00761965
-0.00505617
-0.00319883
0.00223463
-0.00518918
7.08751e-05
0.00489412
0.00554748
0.000361324
0.00556211
-0.000303235
0.00429562
-0.00479549
0.00192802
-0.00112382
-0.000865326
-0.00236415
0.000344899
0.00543832
-0.00330659
-0.00210229
0.00136724
0.000178101
-0.000300073
-0.00476524
-0.0036748
0.00446637
-0.00519877
0.00604738
-0.00549812
-0.000801202
0.00624869
-0.00324234
0.00335057
0.00365514
-0.00708294
-0.00665764
0.00486305
-0.00735686
0.00274692
-0.00166554
0.00191534
-0.00017543
-0.00219156
0.00588185
0.000589312
-0.00863134
0.00638329
0.00560712
0.000135595
-0.00403925
-0.0028004
0.00327878
-0.000451594
-0.00282133
-0.000446661
0.00425437
-0.00391588
-0.0053326
0.000699172
0.0053966
-0.00639505
0.000999149
-0.000163096
0.000304546
4.32297e-05
-0.00542001
-3.98357e-06
-0.000973964
0.000779225
-0.00210562
-0.000192875
0.00238232
0.000266383
-0.0022206
0.00295274
-0.00115396
-0.000807078
0.00195078
1.7012e-06
-1.7012e-06
0.000197692
-0.00214742
0.00101114
-0.000489428
-0.00160736
0.00203916
0.00643278
7.20192e-05
-0.00660128
0.000226625
-3.48538e-05
-0.000227634
-0.00491348
0.00438769
0.000158882
-0.000179408
8.11016e-05
-0.00544871
-0.00025615
0.00661398
-0.00319531
-0.00356658
-0.000916432
-0.00452129
9.13104e-05
4.02044e-06
0.00287101
0.000371586
-0.00337389
-0.00570148
0.00556267
-0.0014795
0.00135121
0.000149201
-0.000670498
-7.67596e-05
0.000726415
8.43138e-07
0.000182576
8.13721e-05
-0.000763046
0.00223651
-0.00015502
0.00309555
-0.00363919
0.000809337
-0.000927344
-0.00530549
0.00575021
-0.000388264
-1.15631e-05
-5.08301e-05
0.000339593
0.00013134
-0.00536133
0.00511995
0.000206325
-0.000310564
0.00382654
-0.00169721
0.000299911
0.00124481
-0.000850694
0.000785396
0.00556263
-0.00429329
-3.18591e-05
8.95064e-06
0.00498867
-0.00408115
-0.000900116
-0.00117092
-0.00314662
0.00191986
-0.00232318
-0.000553585
0.000307866
0.000304404
7.83477e-07
-1.44329e-05
-0.00205063
0.0033491
0.00037348
-0.000567602
-0.00127048
-0.00417387
0.00448945
0.000218098
0.00229901
-0.00199726
-0.000558062
0.00256631
0.00416289
0.000801126
0.00380831
0.00132572
-0.00519308
-0.00217349
0.00244569
-0.000274971
0.000558771
-0.00220605
0.00168387
-0.000942357
9.24273e-05
-0.000165685
-1.5906e-06
-0.00377158
0.00464263
-0.00439118
-0.000233825
-8.53348e-05
-0.000258736
-0.00372687
-0.00163521
0.00533808
-0.00409455
0.00287852
-0.00344095
-0.000122232
0.00189379
-0.00184657
0.00157928
-0.000127114
-0.00147979
-0.00507251
0.00471167
0.00315077
-0.000358973
-0.00894006
0.00388703
0.00499656
0.00630751
-0.000471333
0.00263967
0.000861292
-0.000163657
0.00164255
-8.4303e-05
-0.00467645
0.00486846
-0.000169786
0.000174289
0.00195067
0.000570834
0.00432809
0.00328466
-0.00354521
0.000291514
-0.00224995
0.00185461
0.00107166
-0.00123436
-0.00130603
0.0018975
-0.00227982
-0.000174593
0.00241791
-0.000134457
0.00121666
0.00208483
-0.00222535
0.000180268
0.000113669
-0.00142909
0.00128871
-0.000710953
-0.00137929
0.00204916
0.00463901
-0.00491349
0.000275034
0.00150755
-0.00318215
-0.00128256
-0.000252456
-0.000211859
-0.00164131
0.00166233
-3.64364e-05
2.41738e-06
-5.62248e-05
0.000432585
-0.00210135
0.00156374
7.64721e-05
0.000827349
-0.000275442
-0.000919018
0.000812715
-0.00226089
0.000249211
0.00200379
0.00558198
-1.99879e-05
0.0017143
-0.000178879
-0.00154236
5.18671e-05
-0.00611226
-3.31677e-05
0.00508227
9.2024e-05
-0.00230207
0.0022354
-0.000127325
0.00630843
0.00404138
-0.000287171
-0.000372184
0.00502548
-0.000137725
-0.00371978
0.00389806
-0.000875904
-1.72707e-05
-2.28683e-05
-0.000202704
0.00172911
-0.00159099
-0.00579952
-0.000411869
0.00614414
-0.000801389
0.00345501
0.000224205
0.000478242
-0.000807504
0.00149495
-0.00018866
-0.00132422
-0.00195687
0.00150402
0.000419816
-0.00108614
-0.000250086
-0.00178464
0.0015177
0.00123675
-0.00198622
-9.14275e-05
0.00392587
-2.00795e-05
0.00154726
-0.00544059
-0.000133627
-0.00286898
0.00605022
0.000340594
-0.00417934
0.0039799
-0.00411382
0.00459262
7.82188e-05
-0.000568526
0.000477135
-0.000310493
-0.00166784
-0.000754098
0.00612787
-0.00409298
6.26333e-06
0.000216736
-0.00650181
0.00295913
0.00336465
0.000162672
-0.00123392
-0.000103104
-0.00116005
-5.27128e-05
0.00128006
0.000258747
0.0016167
-0.00180411
0.000242399
0.00317863
-0.00348353
0.00612859
-0.00553302
-0.00059466
-0.000450916
0.000262693
0.00054917
0.000222663
-0.000947513
-0.00258626
0.000641765
0.00489451
0.000152
-0.00123617
0.00106208
-0.000182342
-0.00130847
-1.4334e-06
-5.91686e-05
-0.000141443
-0.00381565
0.0034645
-0.0020628
0.000319396
-0.00244572
0.00501402
-0.00193215
-0.000312737
-0.00150187
0.000400113
0.00123012
0.000247886
0.00164369
-0.00168103
-8.93277e-05
0.0057547
0.00590609
0.000693855
-0.00663431
-0.00560356
0.00608506
-0.00052042
-0.00498124
-0.00518168
0.00379473
0.000906918
-0.00405914
0.00381175
-0.00257791
0.000399241
-0.00253196
0.000431102
0.0021393
-0.00218782
0.00230434
0.000517636
-0.000147515
-0.00243184
-0.000264309
0.00261787
-0.00702823
0.00404323
0.00288517
-0.000783077
-0.000667583
0.00141338
-0.00600494
0.00635806
-0.000395994
0.000212725
0.00221556
-0.00244396
0.000115979
0.00237257
-0.00267293
5.65418e-05
-0.00044535
0.000368307
-0.00123321
-0.000109398
0.00134661
0.000208179
0.00225719
-0.00243781
-0.000805122
0.00231427
-0.000321493
-0.00556861
0.00572349
-0.000413582
-0.00573623
-0.00299246
0.00104122
0.00194798
0.00156921
-0.00576906
-0.00462601
-0.00434805
-0.00143791
0.00319851
-0.000328989
0.000106576
4.93737e-05
0.00379926
-0.00389644
0.00148201
-2.52522e-05
-0.00484819
0.000205039
0.00368781
2.23136e-05
0.0001721
-6.22916e-05
0.000256669
-0.00037308
0.000153432
3.54185e-05
-0.00447235
-3.09477e-05
0.00207672
-0.0021232
0.00742505
-0.00649361
-0.00107565
7.80173e-05
-3.32868e-05
-2.82849e-07
2.82654e-06
0.00086777
-0.000523775
0.00637975
-0.00573068
3.32144e-05
0.000238349
-0.000347677
-0.000298997
-0.00191333
0.000232259
4.9934e-05
-0.00133037
0.000174083
-0.00163546
0.00143368
-0.00109081
0.000880467
0.00011378
-0.00027388
0.00473804
-0.00191745
-0.000603093
-0.00123752
0.00110853
9.02635e-05
-0.000272812
-0.000867928
0.00239511
-5.41337e-06
0.000229754
-0.00410559
0.00381567
0.00570347
0.000202167
0.000323941
-5.48411e-06
-6.31385e-05
-0.000165829
0.000161291
0.00113766
-0.00151304
0.00165934
-0.00260347
0.000125336
0.000241688
0.00434039
-0.00454778
0.000342088
0.0033145
-0.00367377
0.00556665
-0.00604704
-0.000793374
0.00664251
4.09817e-05
0.000298266
-7.33365e-05
0.000918949
-0.000884107
-0.00142064
-0.000200363
-0.00160004
0.00160438
0.00572445
-0.00612324
-0.000588298
0.00494078
-0.00433855
0.00742069
-0.00545823
-0.00210622
0.00019347
-0.00154165
0.00133298
0.000351868
-0.00389513
0.00349995
0.00229245
-0.000368654
-0.00187777
-0.000214018
0.00104968
-0.00537791
-0.000774158
-0.00146025
0.00358096
-0.000440421
0.000141277
7.39871e-05
0.00621092
-0.00255183
-0.00282587
0.00193025
-0.00183983
-1.27904e-05
-0.00430598
0.00483345
-0.000486666
0.000216524
-0.000654229
0.000557975
-0.000289853
0.000150373
0.00115582
-0.00129253
-0.00557865
-0.00577804
0.0047983
-0.00259003
0.000241823
-0.000290455
0.000819295
-0.000748165
0.000139289
-0.00126946
0.00562371
-0.0053898
-0.000204895
-0.000211083
-0.000516309
-0.000690771
0.000145404
-0.00127002
0.00112081
0.00178026
-0.00145572
-0.000338609
-0.00085813
0.000747916
-0.000314036
-0.000805335
-8.85943e-05
0.0062957
-0.000180872
-0.00136138
-0.00140259
0.00121924
-0.000451797
0.00184581
-0.00147986
0.00231604
-0.00258335
0.000288183
-0.00456033
0.000189139
-0.00214526
0.00239881
-0.00027353
-0.00406051
0.00266516
-0.000338029
-0.00018519
0.0041844
0.000392815
-0.00034696
-0.000116861
0.00135597
-0.00293455
0.00522216
-0.00246997
0.000275882
-0.000310719
-0.00187743
-0.00110846
-0.000192167
0.00383681
-0.00360957
0.00264711
-0.00216492
-0.00053138
-0.000177145
-0.00209842
6.04903e-05
-0.000506496
0.000436846
-0.00614626
0.0055529
0.000690321
-0.00585042
-0.00446181
0.00020357
-0.00233721
0.00209808
-0.00234504
0.00028198
-0.00605785
0.00366794
-0.00055179
0.00060353
7.29655e-05
0.000720827
0.000581522
-0.00522259
0.00474765
0.000248232
0.0019098
-0.00212665
-0.000361937
0.00605817
0.000232115
-0.000847761
0.000726943
9.92516e-05
0.00153019
-0.00136915
-0.000181189
0.00136908
0.00411747
5.65539e-05
-0.000430167
0.000358746
6.94789e-06
-1.07562e-07
-9.00488e-07
0.00010862
0.000829527
-0.000953065
0.00180564
-0.00227297
-0.00126517
0.00559604
0.00512226
-0.00443869
-0.00249116
0.000332268
-0.00491152
-0.00128217
-0.00215657
-0.00136609
0.00343521
-0.00573612
-0.000735566
0.00646584
-0.00443793
-0.00216535
-0.00758756
0.00631694
0.00124271
0.00461026
-0.0051762
0.00265677
-0.00272111
0.00292562
0.000223984
0.00546563
-0.00446269
-0.00570499
0.000454115
-0.000431935
-0.0035921
-0.00210124
-8.3293e-05
0.00189993
-0.000303615
0.000229932
-0.00168193
0.00145059
1.20259e-05
3.9637e-05
0.00439309
0.000597044
-0.0049695
-2.57944e-06
-0.0053074
0.00522882
-0.0044831
-0.000499322
7.30923e-05
-0.000725166
0.00611261
-0.000836388
-0.000652188
0.00144756
0.000195593
0.00191479
-0.00201808
7.2322e-05
-0.00240841
0.00128903
-0.0011505
-0.00566628
0.00555835
8.96146e-05
-0.00167826
0.00272425
0.000268958
0.00435517
-0.00408187
0.000189332
0.00536425
-0.00564311
0.00499068
-0.00480458
-0.00207072
-0.000220247
0.00215066
0.00483185
-0.000438888
-0.00642003
0.000374196
-0.00630696
0.00595808
-0.000113214
-0.00167646
0.00176037
-0.00144757
0.00160114
-0.00181161
-0.000808828
-0.00626091
0.00581136
0.000397953
0.00560957
0.000414773
-0.00214759
0.00231698
-0.000233598
6.2375e-05
-0.00349652
0.00140177
-0.00131374
-0.00505537
0.00229677
-0.00263982
-0.00107386
-0.00239663
0.00259016
-0.000258713
-0.000820729
-0.000209215
0.00451449
-0.00466696
-0.000295252
0.00413037
-0.000717735
0.000734962
-4.86326e-05
-0.000247843
0.00198392
0.000394732
5.7902e-05
1.69697e-06
-0.000325645
0.00555669
0.000343236
0.000264418
-0.000659085
0.00342385
-0.000115956
-0.000273233
-0.00351036
-0.00257045
0.00612805
0.000598563
0.0054465
-0.00597722
-0.00137007
0.000155882
6.89489e-07
1.62338e-05
-2.05098e-05
-0.00377392
0.00337693
0.00163145
-0.000771871
-0.000928406
0.00568805
-7.97848e-05
-0.00386037
0.00370315
0.00274228
-0.00262052
-0.000171304
0.00182566
0.000166132
0.00576281
-0.000371512
-0.000590147
-0.00554329
-0.000441267
0.00606205
-0.00581623
0.000618794
0.00520814
0.00170796
0.00393868
0.0049763
0.000333972
-0.0036763
0.00300452
-0.000560388
-0.00251338
0.00652464
-0.00592654
-0.000622899
2.94863e-05
-1.0802e-05
3.2834e-05
0.00631073
-0.00640179
-0.000344132
0.00365626
-0.000419683
0.00248591
-8.80285e-05
-0.00222959
0.000171821
-0.00626407
0.00608932
0.00075974
9.47937e-05
0.00606906
0.000338099
-0.0064504
0.00151085
0.000202808
-0.00182121
0.00708597
-0.000297916
-0.00694485
-0.000206572
-0.00163336
-0.000720851
-0.00103083
0.00289694
-0.00154549
-0.00330039
0.00348003
-0.00114098
-0.00410983
0.00435992
-0.000249953
-0.00219429
0.00208296
0.00589264
-0.00556619
0.00131897
-0.00182239
0.000113931
-0.000237094
-0.00748272
0.00402062
-0.00348088
0.000694928
0.00269438
-0.000469701
0.00538274
-0.000356226
0.0039664
-0.00399448
-0.000176113
6.3877e-05
0.003769
-0.00375237
-0.000365212
0.00610764
-0.000898438
0.00361978
-0.00396968
-0.00241213
0.00313476
-0.00289783
-0.000286965
0.000342144
0.00365957
-0.00408931
0.000336089
0.000628243
-4.9864e-05
-0.00217455
0.00211754
0.00292958
-0.00584933
0.0049747
0.000138374
0.00411854
-0.00423884
-0.00109011
0.00120245
-0.000176248
-0.00246602
0.000217526
0.00291149
-0.00027667
0.00493913
-0.00482142
0.00416642
-0.000164612
0.00384598
-0.00359055
0.000190686
-0.00135281
0.00592183
-0.00633829
0.0011274
-0.00121392
-2.49694e-05
0.00670018
-0.00029443
-0.00389591
0.000216165
-0.000364285
0.00621258
-0.00351441
0.00127633
0.00024968
-0.000297572
0.00204499
-7.88403e-05
0.00587664
-0.00034001
0.00546238
-0.00604882
-5.61089e-05
0.000267512
-0.000210863
0.00232265
-0.00225426
-0.000167955
-0.00113446
0.00378406
-0.000373735
-0.00222862
0.0025947
0.000329118
0.00599275
-0.000160872
0.00475863
0.00212045
0.000120117
0.00260398
-0.000202712
0.00063823
0.00422172
-0.000340094
0.00613403
-8.65066e-05
0.00445574
-0.00418726
0.00392629
0.00609141
-0.00641904
-0.000881968
0.000490664
-0.000459498
0.00572843
0.00166307
-0.0014291
0.000174874
0.00408238
-0.00424389
-0.00439949
0.000219137
-0.000449054
3.81072e-05
0.000397173
-0.00374015
-0.000294384
-0.000559491
0.00636699
-2.46975e-05
0.000261682
0.00206851
-0.0015509
-0.00410323
0.00600725
-0.000174265
-0.00596301
-0.000343564
0.00629639
-0.00185854
-0.000233611
0.00208626
0.000976921
-0.00680131
-0.00646774
0.000745744
-0.00294159
0.00192823
-0.00019449
-0.00175723
-0.00047701
0.00396981
-0.00346115
0.000221544
-0.00207692
-0.00111027
0.0012463
-0.000140307
3.96863e-05
-0.000443098
0.00039097
-0.00527181
-4.10349e-05
-0.000454319
0.000460504
3.9267e-05
-0.000470771
0.000408883
-0.00397979
0.00416747
-0.000162728
0.00426154
-0.00452093
0.000313642
-0.00547937
-0.000480632
0.000405424
0.000254949
0.00338966
-0.00367495
5.9783e-05
-9.50153e-05
-2.83669e-06
-0.00338808
-0.00369466
0.00309245
-0.0037749
-0.000138825
-0.00577364
-0.00236324
0.00212457
0.000137001
-0.000464204
-0.000252978
0.00546576
-0.00527749
0.000245105
-0.00377609
-0.000479326
0.00425033
-0.00552234
-0.000321079
0.00566097
-0.00213367
0.000997656
0.000389658
0.00278231
-0.00341932
0.00585632
-0.000659045
-0.00512651
0.000499475
-0.000457745
-4.59361e-05
3.14568e-05
2.84225e-05
-0.000513941
0.00520524
0.00389594
0.000491633
-0.000420589
0.00470567
6.17064e-05