/*--------------------------------*- C++ -*----------------------------------*\
| =========                 |                                                 |
| \\      /  F ield         | OpenFOAM: The Open Source CFD Toolbox           |
|  \\    /   O peration     | Version:  v2012                                 |
|   \\  /    A nd           | Website:  www.openfoam.com                      |
|    \\/     M anipulation  |                                                 |
\*---------------------------------------------------------------------------*/
FoamFile
{
    version     2.0;
    format      ascii;
    class       volScalarField;
    location    "400";
    object      ddt0(omega);
}
// * * * * * * * * * * * * * * * * * * * * * * * * * * * * * * * * * * * * * //

dimensions      [0 0 -2 0 0 0 0];


internalField   nonuniform List<scalar> 
10042
(
-3.93031e-06
-1.7736e-06
-2.00533e-05
-1.72602e-05
-0.558659
-1.51932e-05
-0.542637
2.82095
1.51631e-05
-1.32115e-05
-0.334075
-1.32604e-05
-1.54833e-05
-3.56689e-05
-1.27914e-05
2.0246e-05
1.70067e-05
-6.35074e-06
-1.14959e-06
-0.00450032
4.56096e-05
0.00564385
-2.65256e-05
-4.71376e-05
-3.67814e-06
0.000466197
1.14338e-05
-1.20729e-05
1.13436e-05
-1.44108e-05
-2.60875e-06
-0.158719
-2.80596e-05
1.13244e-06
0.000190719
-5.02778e-05
0.000415162
0.000868315
-4.1475e-06
7.67338e-05
-0.00512591
-1.96758e-05
-0.63465
-3.81212e-05
-0.549497
0.00150792
-3.53483e-05
0.00419019
0.000321849
0.00185488
3.22646e-06
3.6729e-05
-3.30963e-05
0.000127227
0.000416411
1.70199e-06
1.27139e-05
-4.02212e-05
-4.02003e-06
-4.33184e-05
2.07297e-06
1.55764e-05
0.000191916
-1.62619e-05
-1.08058e-05
-7.75553e-08
-1.18712e-05
-0.000853767
-0.642162
-9.48644e-06
0.00012121
0.0188094
-3.39765e-05
-8.74711e-06
-3.28622e-05
-8.09363e-05
-0.600701
6.86848e-07
-1.35272e-05
-0.714842
0.000311808
-0.44331
-3.55621e-05
-1.36445e-05
-1.87918e-05
-3.86972e-06
-2.37049e-05
-0.0027088
-3.69724e-05
-1.05644e-05
1.65485e-05
-0.449587
-8.21919e-06
4.18906e-05
-1.80683e-05
-6.10837e-06
-3.52814e-06
-8.10419e-06
1.43875e-05
1.84184e-05
3.04205e-09
-0.00168169
3.55649
-2.00698e-05
-1.67376e-05
-6.32448e-06
-2.7388e-05
-5.90415e-06
3.85583e-05
-6.34922e-06
3.04123e-07
6.35622e-06
8.1864e-05
-0.578507
-1.11537e-05
3.26176e-06
-3.98719e-06
5.59032e-07
-3.06538e-06
-0.213437
-4.11035e-05
1.96728
-2.83663e-05
1.88204e-06
-0.00113337
-2.71459e-05
2.01226
0.000267239
0.000426214
7.33811e-07
-2.17265e-05
-1.64474e-05
-0.298969
0.00697788
1.49952e-05
-6.37568e-05
-0.181023
-2.31423e-08
0.00444063
-0.000368369
-3.21207e-05
-6.1592e-06
-2.48169e-05
-0.00221961
4.71329e-08
2.13365e-06
1.82713e-05
-1.74093e-06
-2.04803e-06
4.36544e-05
7.70254e-06
-8.61777e-06
-0.707966
-0.245946
4.46609e-05
-2.86413e-05
-1.94858e-05
1.93761e-05
-0.000146362
-0.0473075
-0.419095
0.00179077
-6.04173e-06
7.54223e-06
-3.05117e-05
-1.60182e-05
-0.000312489
-0.0588247
-0.216218
-0.262286
8.35175e-05
-4.2965e-05
-0.373742
-0.0214911
-2.52203e-05
-0.483246
-1.80442
-3.35974e-05
-0.000905368
0.000156559
-1.87266e-05
-0.0673495
-3.09068e-05
0.000256221
-2.77e-05
-0.214586
0.0145664
-9.86545e-06
-0.456651
0.00012787
0.247629
-3.19708e-05
-0.659773
0.169847
0.00260766
1.80489
0.000263717
-2.1399e-05
-2.79236e-05
3.74753e-05
-3.80424e-05
-2.83741e-06
-1.14481e-05
0.0331539
-1.4869e-05
1.04081e-05
-0.0713437
5.23503e-05
-1.42521e-05
-7.33316e-05
1.72198
4.1943e-06
-0.000203205
-0.0419987
-2.09582e-05
0.0137102
-3.16249e-05
-3.3862e-05
0.000392209
-1.07899e-05
8.84251e-05
-1.88872e-05
-0.0175524
0.00094013
-2.69536e-05
0.000534621
-0.0532894
8.97349e-06
0.00231482
0.000150106
1.51007e-05
-0.0229242
-4.33998e-05
0.000146122
-2.42467e-05
5.66778e-05
2.19849e-05
-1.43981e-05
0.000116185
0.000492976
7.42177e-07
-3.35926e-05
-3.15096e-05
7.50941e-05
2.29353e-05
-1.07195e-05
-3.01137e-05
-1.58191e-05
9.56528e-05
-3.99566e-06
1.47079e-05
-7.84318e-06
-1.77702e-05
0.428987
0.00224885
-0.569504
-3.36016e-05
-1.20851e-05
-2.51495e-05
0.00174745
-0.141672
9.45862e-05
-2.57608e-05
-1.57331e-05
3.18192e-05
1.45829e-05
0.0219934
0.000142138
-1.20898e-05
-7.80993e-05
-1.80788e-05
0.000111419
-0.00966735
-1.9436e-05
-0.00501457
0.000112233
0.000488642
8.58722e-06
0.000247957
-3.2376e-07
0.000203534
-3.24116e-05
0.00047517
-0.305041
-7.58203e-06
-7.72455e-06
-0.00775536
0.00151022
-2.39632e-05
-1.51886e-05
-1.4148e-05
-0.505379
0.000662325
-0.00232356
-2.00062e-06
-2.40447e-05
6.99457e-06
1.42756e-05
0.0362265
-8.87364e-06
2.44309e-05
-1.40534e-05
-2.60682e-05
0.000966815
-3.85922e-05
-0.000782353
-0.700732
-4.761e-05
-0.175814
4.02745e-05
0.00026683
1.04689e-05
-0.319185
-0.00088945
0.993351
-1.03269
-5.734e-05
0.000143338
-9.96382e-06
-3.98372e-06
0.000544871
1.66992e-06
0.000163447
7.507e-06
-2.57094e-05
-3.25175e-05
-0.00149584
1.35006e-05
9.71499e-05
-2.56636e-05
-3.92813e-05
-0.675692
2.33019e-05
4.47695e-05
-1.32918e-05
-1.7739e-05
0.000297461
0.0028557
1.6371e-05
3.45408
0.00100217
0.000224818
-2.65446e-05
-3.27735e-05
2.88645e-05
-9.16779e-06
0.642728
-2.81157e-05
1.47583e-06
0.00492892
-1.16325e-05
-1.95122e-05
-1.75635e-05
0.0054589
-8.58035e-06
-2.94506e-05
-0.000508863
0.000166407
3.94471e-05
-1.40286e-05
1.60045
1.60312e-05
4.4839e-05
0.000157169
-4.90977e-05
-2.27386e-05
-3.61679e-05
-1.02667e-05
0.166854
0.000276531
-9.15874e-06
-3.71305e-05
-1.98029e-09
1.38179e-05
-0.00173204
-1.56311e-05
2.56184e-05
-0.184708
-1.57576e-05
1.10634
0.736439
-1.56346e-05
-0.517741
-0.706377
6.94415e-05
-0.0161036
3.91607e-05
0.00187445
-2.76511e-08
-3.4933e-05
0.0566295
-5.12077e-06
-1.81089e-06
-0.294748
-1.25883e-05
7.12338e-05
-2.45284e-05
-0.381905
9.10622e-06
-1.39675e-05
-0.17018
-0.00107875
-6.1778e-05
-0.000981338
-1.29823
-2.57923e-06
-1.0426e-05
5.52673e-06
2.21631e-05
-7.16345e-06
-1.13293e-05
0.36671
1.71151
-3.54707e-05
-0.55672
3.04023e-07
-6.6854e-06
-0.0444616
-1.22277e-05
1.42707
0.000703994
-1.52356e-05
-2.60254e-05
-2.57332e-05
-0.0072621
8.96678e-05
5.77804e-05
-2.38388e-05
-0.325809
-2.09941e-05
0.761138
-3.94845e-05
-2.09896e-05
3.01626e-06
-1.18543
-1.6405e-05
-2.84167e-06
-3.76359e-06
7.09677e-06
0.0727452
0.000266396
1.45343e-05
-6.81784e-06
-0.237317
1.96271e-05
0.0002746
3.27012e-05
1.51773e-05
-0.469889
-0.506951
2.32582e-05
-1.02074e-05
0.000292358
2.17825e-05
3.07058e-05
2.63658e-06
-0.225075
-3.68336e-06
8.6019e-06
2.00997e-05
2.24465
0.000417182
-1.22889e-05
0.000176916
-0.571472
0.00115177
2.60723e-06
-1.41221e-05
0.0106096
2.77058e-05
-4.00314e-06
-2.03509e-05
6.10766e-06
-2.53691e-05
-1.94922e-05
-8.77927e-06
-0.000228146
-2.79325e-05
-1.78801e-05
-0.396777
-2.59932e-05
6.27758e-05
-1.84784e-05
-2.80242e-05
0.00014857
3.0025e-05
-4.40185e-06
0.544813
-1.41902e-05
-0.845862
8.74572e-05
-2.73965e-06
4.88227e-06
-0.00184808
-5.20827e-05
1.64074e-06
2.26119e-05
6.44758e-05
5.15958e-06
-0.658963
8.67033e-07
-0.000850228
-0.0874495
0.00115054
-1.30735e-05
6.24604e-06
2.5924e-06
-6.07501e-06
3.35175e-05
-0.0475277
-0.192892
-5.32128e-06
0.000273027
0.000646116
0.000580736
-2.07015e-05
-9.08279e-06
0.414703
-0.00548917
-0.140743
-2.62396e-06
7.65242e-06
-1.94209e-05
-3.15881e-05
-0.632362
0.000240824
6.27335e-05
7.43566e-06
1.39177e-06
-2.92532e-05
0.900378
0.000261178
-1.7179e-05
-0.258609
-0.0429188
-0.168172
-0.000359088
3.05991e-05
1.21122e-05
0.00216978
0.000183351
-0.428102
-0.319573
-2.92467e-05
-1.32681e-06
-9.01235e-06
0.00010638
-2.57353e-05
-1.734e-05
-0.375282
-3.41256e-05
3.98329e-05
0.00146043
1.0203e-05
0.224883
7.07201e-05
0.00733297
8.86911e-05
5.16128e-07
0.000137652
0.000191913
0.00147226
-0.000554264
-0.000791862
-4.09133e-05
0.00183594
1.37217e-05
-9.91292e-06
-2.24363e-05
1.84641e-05
5.62737e-06
-2.99839e-05
0.000355145
-3.33539e-05
-2.16724e-05
-1.20795e-05
1.01992e-05
-1.33496e-05
0.0336567
2.13305e-05
3.12816e-05
0.0242857
-2.93963e-06
0.000218391
0.00269236
-7.87919e-06
-0.180816
0.000878668
2.3543e-05
0.0045835
-1.27755e-05
-1.57852e-05
-1.36737e-05
1.36555e-05
-1.20621e-08
9.66113e-05
-2.62497e-05
0.0772349
-2.96421e-05
1.52381e-05
9.66774e-06
0.000109872
0.00058454
7.27044e-06
0.000241414
1.21799e-05
0.000840183
-9.79455e-06
6.60401e-05
3.07608e-05
-1.7236e-05
-2.4055e-05
-3.09815e-05
-0.652613
7.07409e-06
0.0203602
1.18579e-06
0.000104944
-4.28901e-06
0.000721646
-1.78751e-05
0.000783596
-1.16993e-05
0.00650594
-1.36132e-06
-0.415221
-5.58431e-07
-3.90692e-05
3.05429e-05
-3.30334e-05
-4.25593e-05
9.50069e-05
2.5877e-06
0.000809688
-0.571229
-0.0750151
0.000182292
-1.42845e-05
-2.00059e-05
-9.3034e-05
0.00145724
-6.62266e-06
-1.62857e-05
-0.000864233
-0.550071
0.00260814
2.65655
0.000222186
-2.18576e-05
2.67548e-06
0.000268176
0.000117509
0.00133511
-7.04195e-05
2.86897e-05
0.00135377
-7.76932e-06
-5.74026e-06
0.000278988
-1.21067
-2.29121e-05
0.000218744
0.00217208
-1.80514e-05
-0.750425
-3.38932e-05
-3.60109e-05
-6.47422e-06
2.19396e-06
-0.292088
0.00208408
-1.02773
1.29546e-05
0.732843
0.0411059
0.423555
0.0012927
0.00175057
0.00222091
4.59185e-05
-3.554e-05
7.82936e-06
-2.12279e-05
-0.398941
-2.1821e-05
6.24867e-05
-0.993766
-3.44206e-05
-2.72463e-05
-1.39359e-05
-1.67493e-05
-3.84835e-05
-4.3374e-06
-0.00262683
0.955139
-8.39097e-07
-3.51607e-05
-0.299849
-0.481191
-1.74727e-05
3.2854e-06
1.4701e-06
1.98417e-05
-0.0333376
0.00204814
-0.0899531
-1.94045e-05
-4.02916e-05
1.78502e-05
-1.53542e-05
6.99056e-07
0.000763174
-3.15851e-05
-0.839608
1.0812e-05
-3.6601e-05
-0.000255183
6.6184e-06
0.00102244
-0.000307617
0.000113345
-1.99023
-0.828732
-2.60359e-05
3.37053e-05
-0.409715
-0.434064
0.000332184
-1.79472e-05
2.90664
0.02065
-6.42082e-06
-3.50602e-05
-1.58251e-05
3.86369e-05
0.00864317
0.000173791
-0.0143753
-8.92528e-06
-0.686632
0.124218
1.20274e-05
-6.55778e-06
0.000116306
4.89415e-05
-5.20565e-06
-1.97956e-06
-0.431338
-0.523502
-0.537343
4.74861e-05
0.00120419
-4.59513e-05
-2.82165e-06
1.89518e-05
2.07176e-05
-0.022171
-5.25247e-06
6.47331e-06
0.00118967
-2.35105e-05
0.00019194
1.80064e-05
4.8764e-05
4.03306e-06
-2.29996e-05
0.00779476
1.1229e-05
-7.88725e-06
0.000695276
-0.000213303
0.0578689
2.92347e-05
0.000111574
-0.360123
-0.83451
-2.9603e-05
-0.244565
0.145454
-3.66759e-05
-1.30393e-05
-2.38024e-05
-9.49557e-06
-0.319963
3.30557e-05
-7.5582e-06
-1.09376e-05
-0.523751
-9.65206e-05
4.2835e-05
1.28255e-05
7.44689e-06
0.000261643
-2.66245e-05
-2.88847e-05
0.000774291
-2.80453e-05
2.05732e-05
1.54401e-05
-0.094412
-8.11021e-06
-1.24018e-05
-7.21871e-06
-2.27102e-05
-0.00263631
1.50338e-05
-2.55851e-05
-5.14607e-06
0.000237715
-0.0697506
-4.9229e-09
-0.0680912
0.000114551
-0.372091
-2.57112e-05
3.16036e-05
0.000764674
0.000214283
-6.41134e-05
-3.09603e-05
0.769728
0.769119
-1.44167e-05
-1.67921e-05
0.249908
2.31809e-05
-1.31357e-05
3.8126e-06
-5.09006e-06
0.000500968
1.06507e-09
-1.48614e-08
-0.000280838
5.989e-05
-3.38588e-05
-2.46784e-08
-1.84208e-05
-0.546174
0.000122833
-0.0648171
2.27063e-05
0.00148653
4.01567e-05
-0.875587
0.000173087
-0.555962
-2.96492e-08
0.000390425
2.39834e-06
-1.8403e-05
-3.71623e-05
0.00693272
-1.77836e-05
0.00185472
-0.491022
-5.97503e-06
-1.56441
0.000423762
6.76731e-06
2.58878e-05
0.000420488
-0.768275
-1.76828e-07
-9.82822e-07
-0.000109374
3.50864e-05
-5.47711e-05
-1.22889e-05
-1.54667e-06
-8.91851e-06
-0.0379886
-6.02421e-05
-1.06963e-05
1.80052e-05
-3.10293e-05
-4.05947e-05
-1.7553e-06
5.60016e-07
2.90181e-05
6.78765e-05
-2.24962e-05
1.38618e-05
-3.36706e-06
-1.26031e-06
-0.452609
-1.75101e-05
24.9824
-3.20841e-05
-0.300772
0.000324765
0.000359681
-0.226759
0.000543311
0.0472335
-0.784591
0.000260025
-8.64111e-06
-3.42324e-05
-7.6093e-06
-0.00289298
-5.07308e-06
-0.345619
-9.3822e-06
-17.1461
-0.35266
0.00214638
6.95601e-05
-0.196405
-0.716788
-1.80289e-05
1.14978e-05
4.72786e-05
0.000242614
1.6672e-06
5.99461e-06
0.000149178
0.0292718
1.63312e-06
-9.436e-06
-2.06865e-05
0.104031
0.00214043
-2.063e-05
0.000100185
0.00090814
-2.10196e-05
-9.98698e-06
-0.316951
-3.13922e-05
-1.68797e-05
-0.30695
5.56279e-06
-2.66156e-05
-0.102861
-0.533199
-0.206989
-2.5578e-05
-5.48629e-05
0.0112092
3.81094e-06
9.11244e-06
1.57187e-05
0.000732742
3.43317e-05
2.39271e-05
0.000174838
-0.000307055
0.00174375
-2.02664e-05
-2.27165e-05
1.26163e-05
1.31881e-05
-1.93432e-05
1.58108e-05
0.00175955
5.37719e-05
-1.86317e-05
3.02944e-05
2.8052e-06
2.03318e-05
2.52706e-05
-0.437804
0.000479539
-1.19323e-05
-1.98432e-05
-2.58168e-05
-0.772296
2.98758e-06
1.94395e-05
-7.03916e-06
-2.62828e-05
0.076462
0.00185211
-4.87574e-05
1.34295e-05
0.000367969
-0.00313052
-1.52053e-05
-1.77869e-05
-1.58144e-05
3.4409e-05
0.000325946
-3.4969e-05
-0.229222
0.000195942
-1.56967e-05
0.000129722
-0.372289
8.88906e-06
0.00549829
4.18636e-05
-0.00618448
-2.58899e-06
1.33173e-05
0.000232065
0.00192584
-4.87145e-05
-8.14925e-07
4.15325e-05
9.66752e-05
-0.00919393
0.00127256
1.1937
5.7125e-05
1.43332e-05
-5.04733e-05
-2.7028e-05
-3.34916e-05
-0.0533517
-3.01489e-06
-1.93355e-05
5.56381e-06
-0.033052
0.314508
1.29468e-05
-3.63066e-05
0.00213365
1.61879e-05
3.52901e-05
8.95736e-06
0.00225003
2.66685e-05
0.000329992
-0.011456
-2.82694e-05
3.96829e-05
-0.33393
-3.42007e-05
-0.00379122
7.82791e-06
4.02127e-05
0.000820403
-3.91707e-05
-1.47605e-05
3.13326e-05
0.000103125
-0.289288
-2.13879e-05
-2.43566e-05
0.0337947
-2.72248e-05
-0.0376587
-0.685471
-0.000236597
-2.38059e-06
-0.0129719
1.29243e-05
-0.267489
5.3046e-05
-3.26346e-05
1.733e-06
-0.263161
-4.74922e-06
-4.48741e-05
-1.55493e-05
0.000720095
-0.263384
5.32461e-05
0.000190043
-2.07518e-05
-1.21109e-05
0.000368044
0.000119548
-1.04596e-05
0.000126181
-6.76661e-06
-0.787955
-0.298353
-7.73517e-05
-1.45802e-05
2.32526e-05
1.49917
-2.20531e-05
0.332146
2.50238e-06
-2.20885e-06
-5.70578e-05
2.03031e-05
0.000142065
9.07031e-06
3.5828e-05
-1.65792e-05
2.36915
0.00357491
3.10653e-06
0.000209763
0.000210368
-6.80889e-05
-7.2972e-06
-3.14417e-05
1.03612e-05
-1.8776e-05
-2.09498e-05
0.000764889
9.15538e-06
8.39127e-06
1.30891e-05
1.77207e-05
-0.00275933
3.31905e-05
0.000112002
-1.72386e-05
2.87087e-06
-6.74423e-06
0.00245552
-0.000568669
1.33291e-05
0.000215136
0.00134124
-3.41553e-05
-5.35541e-06
0.000130541
-4.14382e-06
-0.33271
-0.0021104
4.83874e-05
-0.36977
-1.07135e-05
0.000816056
0.000780219
0.000281176
0.0010229
-0.199982
0.000750402
0.00620171
3.89347e-05
3.16058e-05
-1.43633e-05
-9.83217e-06
0.000283209
-2.09477e-05
-0.0281588
-1.53091e-05
-3.93791e-05
-0.000682708
-1.00534e-05
0.00132591
0.000428947
4.89909e-05
-1.168e-05
-4.2649e-05
0.00333049
-3.02614e-05
0.000634039
-0.391985
-1.8022e-07
1.69791e-05
0.000751116
1.68564e-05
-6.65485e-06
0.326333
-1.69121e-05
-1.95676e-05
0.000636695
-1.74354e-05
0.000426227
-4.95567e-06
1.23788e-05
-0.705072
7.58155e-06
-1.08824e-05
9.13318e-05
-1.80924e-05
4.69143e-06
-5.90447e-06
-0.313107
-3.65913e-05
-3.74709e-05
-1.3404e-05
0.00244523
-1.22817e-05
7.02865e-05
6.1554e-06
-2.65517e-05
-1.75425e-05
-4.55142e-05
1.66735e-05
3.43409e-05
-3.9773e-05
-0.00441535
0.000257641
0.000128925
-9.10373e-06
0.000217603
0.00113094
-2.11434e-05
-1.86674e-05
-3.62373e-05
-0.926453
-1.45305e-06
-3.5893e-05
3.11256e-05
-6.54223e-06
0.000132814
9.80883e-06
-0.477705
-0.304203
1.96344
-1.20984e-05
9.83428e-05
0.000949655
-3.21197e-05
-0.00117827
0.000229692
0.0205242
0.00187891
-0.39274
0.00117559
0.0144526
-0.212849
5.37822e-05
9.56059e-05
4.19349e-05
-7.32962e-06
-0.630297
3.39175e-05
6.57295e-07
-2.29666e-05
1.82882e-05
5.15155e-05
-0.430529
-0.804567
1.53434e-05
-0.194981
0.0430176
0.0138559
0.000557061
0.000150514
-2.00236e-05
-0.439072
-2.33192e-05
-0.210736
-0.341751
1.44449e-05
-2.89001e-05
-6.57713e-06
-1.28732e-05
0.000267301
0.000385526
0.00599953
9.33422e-07
3.94407e-05
0.000118306
2.85341e-05
1.12964e-05
4.82792e-05
-1.8296e-05
-1.56008e-05
0.00932566
0.000295715
-1.80819e-06
-0.654825
0.000107275
2.05143e-05
-2.1367e-05
0.00877495
-5.552e-06
7.91029e-06
0.00131203
-0.003895
1.10065e-05
0.000113896
-0.267878
0.000599269
-0.356223
-1.88114e-05
0.00915947
-0.712039
-0.662192
2.01282e-05
-3.32983e-05
0.00168315
8.18019e-06
-0.000232222
-3.43498e-05
-0.659361
0.000624071
0.00481135
-2.43261e-05
2.32322e-05
-0.204985
0.0186627
1.73906e-06
1.26858e-05
-0.304669
-1.9972e-06
-4.00609e-06
-8.30549e-07
0.000103968
2.71373e-05
-7.13604e-06
-4.22505e-05
0.000190014
5.47975e-06
0.000713272
-0.592212
0.000405847
0.000356125
-1.35081
0.00037324
8.18935e-07
-5.34832e-06
1.06357e-06
1.78761e-06
-0.00145919
-1.05017e-05
2.23596e-05
-2.46231e-05
1.31263e-05
3.16609e-05
1.43035e-05
-3.25541e-05
-0.000100849
0.00021862
-5.36671e-06
-0.900831
-0.42928
2.3928e-08
-0.954486
0.000129068
0.000198699
4.11496e-05
3.34266e-05
0.12189
0.000504246
-3.07429e-05
4.43787e-06
1.32491e-05
0.000179506
-4.55055e-06
0.0084788
4.13191e-05
-1.70913e-05
-3.41129e-05
-0.236852
-0.352472
-3.48032e-05
-2.33975e-05
-0.0061031
0.0225472
-3.52331e-05
-0.693155
-0.701979
8.75319e-06
-1.02204e-05
-2.49973e-05
-3.0241e-05
-0.274659
4.39786e-05
-9.9067e-06
-0.00450441
-3.83098e-06
-1.18031e-05
-7.69404e-06
-0.000959508
-1.55702e-05
-2.58138e-05
-0.00116511
0.00175435
-0.272394
1.16407e-05
0.00263721
-6.15362e-05
0.00129131
-1.56e-05
-2.08175e-05
1.2551e-05
1.52736e-05
-0.00217244
3.0855e-05
-5.15471e-06
3.55836e-05
-0.307853
-4.90543e-05
1.31454e-05
-5.26369e-05
-0.00040084
-2.47776e-05
-4.2266e-05
-2.9085e-05
1.34639e-05
-0.107771
-0.753486
-3.53811e-05
1.18015
-0.639701
-0.321332
4.43759e-06
-2.28197e-05
-6.08638e-05
-7.99972e-06
5.0422e-05
-1.25409e-05
-6.30361e-05
-3.88808e-05
-1.08165e-05
-3.26302e-05
-1.27856
-0.000358642
-0.10696
0.000651656
-3.09943e-05
-2.33266e-05
0.000109807
-3.39646e-05
4.81537e-05
0.000189095
4.66762e-05
0.0229277
0.000882485
-6.35358e-05
-0.492572
-1.29921e-05
-2.67608e-05
8.42234e-06
-0.0143542
0.000693367
-1.89706e-05
6.67776e-05
1.96724e-05
1.04335e-05
-5.38325e-06
0.000934366
0.000629676
-0.139217
9.85066e-06
2.74041e-05
0.0118937
-0.000453925
1.13655e-05
0.00334193
6.85621e-05
-0.000361262
0.0217872
0.000237486
-0.302514
-1.67976e-05
1.41235e-06
-1.69325e-05
3.99925e-06
3.50635e-05
3.22537e-05
0.000715404
0.00199705
0.0597473
1.18291e-05
-0.704442
0.411825
0.000280424
-3.79527
-3.17434e-05
-0.000216824
-0.0275928
-2.53367e-05
0.00205911
-6.97622e-06
-0.00561557
2.39059e-05
0.0129775
3.33934e-05
0.549798
0.00127697
-0.384735
-1.28581e-05
0.00754372
1.62494e-05
6.93824e-05
0.0113362
-1.61465e-05
-0.286775
-0.728426
0.328929
-0.0836175
0.00261504
-0.350334
0.000243071
-4.10535e-06
0.00109761
0.000556348
-0.208078
1.70181e-06
2.73498e-05
4.10561e-05
0.000265538
-1.41868e-05
-3.75351e-05
-3.81852e-05
0.200288
-0.286734
-3.78024e-05
-0.356407
-0.000267812
-3.51998e-05
6.35973e-05
-3.39251e-05
-0.310373
0.000126542
-1.69986e-05
0.0704177
1.48131e-05
-1.97827e-05
-2.6674e-05
-0.00115611
0.000909257
1.01793e-05
2.52689e-05
3.67374e-05
-1.99576e-05
-1.9788e-05
-0.32059
-4.08205e-05
3.07699e-05
1.32866
0.0513729
0.000174826
4.71056e-06
-0.205003
5.40794e-06
-3.37484e-05
-1.56431e-05
-0.000137859
6.88438e-05
0.0004882
5.21149e-05
0.654748
0.00035313
0.000933363
-6.29844e-05
0.000975616
0.00174128
0.000534139
-4.59041e-05
-0.839015
-7.71427e-06
0.0113091
2.78613e-05
5.60421e-05
0.000945867
0.012536
0.000109523
0.000216763
-3.13486e-06
0.000203098
0.00116454
0.00338363
2.9984e-06
-6.59318e-09
1.81564e-05
-2.53876e-05
0.0032268
-7.47016e-06
0.000850109
-1.20482e-05
1.74915e-05
-0.385923
-1.34144e-05
-0.418038
-1.52528e-05
-1.89973e-05
0.00226791
-2.50215e-05
0.000496446
0.00437527
0.00115093
-3.30732e-06
0.00297707
5.91571e-05
3.54608e-05
-3.37703e-05
-0.192792
-0.567761
-1.17767e-05
-4.86113e-07
5.8182e-06
-1.71197e-05
0.00223828
-0.711776
-5.34571e-06
-0.07432
1.79378e-05
-1.51143e-05
-1.4544e-05
1.8429
1.39481e-05
-1.29308e-05
-1.10061e-05
-1.16482e-05
-3.44356e-05
-6.10813e-07
-8.75007e-06
0.000380073
-1.08831
-3.06737e-06
-1.64662e-05
5.47029e-05
0.000589194
-5.6903e-05
0.0454399
0.000416797
-1.28727e-05
9.59764e-06
3.13935e-05
0.00489347
-1.00494e-05
0.00282468
0.000157421
0.000176383
2.8063e-06
0.000559211
3.73999e-05
-0.00104222
7.10115e-05
-4.58597e-05
1.69359
2.01598
-1.89675e-05
1.3234e-05
-0.283119
0.00142264
0.0018258
0.000273909
0.00281634
-1.46857e-05
-0.662194
0.00216976
8.44399e-06
-0.0395489
-0.511087
-4.58111e-05
0.000266792
0.00070161
-3.24167e-05
-0.624596
-3.95054e-05
0.000352244
0.000161228
-2.86909e-05
1.37182e-05
-0.000176271
2.44882e-05
2.60715e-05
-1.48961e-05
25.7214
-1.30341e-05
-7.98692e-06
-2.36731e-05
1.58184e-05
-5.25663e-06
4.27007e-05
0.00130206
-0.000428039
0.00018932
3.52924e-05
-1.33345
-3.35947e-05
-1.34077e-05
-1.84383e-05
-7.4807e-06
-2.55538e-05
-2.45001e-06
0.0004738
0.00259381
-1.17181e-05
0.000440515
-8.0854e-05
-1.11802e-05
7.4633e-05
-0.585885
-4.6851e-06
-3.1074e-07
-1.00983e-05
-0.000893057
1.9299e-05
8.22076e-06
3.47182e-05
-1.73675e-05
0.579502
-0.0520234
3.5932e-07
3.05614e-05
-3.08649e-05
-0.000225711
-1.23984e-05
-1.06273e-05
-2.2051e-06
-0.000637318
-3.68563e-05
-2.65673e-06
-3.2751e-05
-0.000719667
0.00815054
9.86732e-05
0.00462307
6.80694e-05
-0.456699
5.61288e-05
-4.83581e-06
-0.766261
-0.00330356
6.74015e-05
0.0200637
0.00551549
-0.335546
-9.77833e-05
0.062645
0.000259934
0.000317476
-0.17117
-4.26641e-06
0.00547869
0.000766115
-0.00192257
-0.487453
-1.452e-08
-4.49372e-05
-1.97854e-05
-0.0404431
-4.44555e-05
0.0237768
0.000949576
0.110842
-3.89453e-05
-0.00255926
-0.000315359
-9.59763e-06
-4.55431e-05
-0.000801867
0.000121116
1.26039e-05
0.000372106
-0.000598173
0.00100847
0.000253323
0.00457438
0.185716
-0.000849915
-2.26139e-05
2.79525e-06
-0.912745
-0.000396087
1.08917e-05
0.000140138
-0.426611
6.92457e-06
0.0002146
-2.43087e-05
1.88037e-05
-3.3411e-05
-1.82301e-05
-6.70655e-05
-3.11192e-05
5.95899e-06
-0.32984
-0.709715
5.36928e-05
-1.92026e-05
0.000347435
-0.00254358
-0.000435783
2.61599e-05
-1.58236e-05
0.000395362
-1.07298
4.80645e-06
-1.6833e-07
-1.65584e-05
-0.343073
3.30951e-05
0.00016467
0.364939
0.227454
-4.34034e-05
-0.00267427
-0.000479177
0.0007205
-4.95625e-06
-1.91615e-06
-0.77582
1.42533e-05
0.00040909
-3.564e-05
0.000569727
1.04081e-05
1.2174e-06
6.5686e-06
0.000540115
1.1764e-05
2.49725e-05
1.13998e-05
1.14338e-05
3.96589e-05
-3.25422e-05
0.000548265
0.178372
-0.297717
0.000250341
4.04274e-06
-3.02864e-05
0.000138295
-0.30012
2.20429e-05
-0.0634659
-2.9199e-05
-3.98497e-06
4.67262e-05
0.000251391
-0.668078
4.64792e-06
-0.356471
3.78097e-05
2.51549e-05
4.00666e-05
-0.605211
-6.11263e-06
-3.98144e-05
-0.47301
2.74667e-05
-3.58337e-05
-0.292026
-7.87313e-06
-0.361016
2.31142e-05
0.000633407
-1.50295
9.57023e-05
-3.43201e-05
1.8884e-05
0.17521
0.00035648
3.93634e-05
-0.0420612
-2.56956e-06
7.97015e-05
0.000272009
-0.104602
-0.012568
-0.670681
-0.176033
-0.000568218
-1.30627e-05
0.00243167
0.00460578
1.5162e-05
-1.51604e-05
-1.24001e-05
0.000487975
-0.00168534
-1.60642e-05
-2.49271e-05
-3.63823e-05
-1.72044e-05
-0.279158
-4.22209e-06
-0.0469223
-1.01295e-05
0.000976258
0.00211736
2.89232e-05
2.4712e-05
-0.573859
-0.500771
0.000554173
-2.00951e-05
7.77285e-05
0.00201559
3.03814e-06
0.000845684
0.00102077
0.000811703
-2.24002e-05
-0.117308
-0.288836
3.95373e-05
-2.98984e-05
-5.1262e-06
2.00746e-06
0.000104747
0.000547674
-1.92018
-2.3011e-05
1.0376e-05
0.00171154
0.190899
-1.36884e-05
1.28094
-3.60932e-05
0.00205402
0.00085462
-1.22526
0.00235245
-0.000157022
-0.000157698
-3.48555e-05
4.80085e-05
0.000299852
3.85454e-05
-3.42053e-05
0.113154
2.9026e-05
-1.2751e-05
1.2201e-06
0.000537177
0.02737
-0.0428946
-0.00296811
0.000490158
0.000104496
1.22126e-05
-0.126603
0.000559469
2.78751e-05
8.76225e-06
1.6972e-05
0.00376817
-0.767116
0.000118751
-0.628482
-2.01746e-05
-6.64894e-06
-0.282863
-1.92707e-05
-0.728078
-0.493091
-5.48314e-05
0.000124422
0.0632791
-8.08089e-06
0.000284326
-3.05033e-05
-0.355943
0.000363456
0.00023841
-0.205595
-0.0492169
0.000501014
0.000635644
1.42634e-05
-0.00359036
-0.257194
0.000117949
0.000170557
-0.308601
-8.47698e-05
-0.000403388
-3.66511e-06
1.45218
-0.17573
0.000614635
-2.56722e-05
0.000360755
-2.99188e-05
-0.599238
0.00133597
0.000390887
-0.398884
-0.407882
-4.37298e-05
0.00179494
3.44291e-06
1.75757
-0.00097658
0.000496557
0.000316682
0.0866291
-5.71622e-05
0.00202486
-0.256141
-0.636537
2.68549e-05
-1.92568e-05
1.03389e-05
-0.000946227
0.224658
-0.0024026
-0.646514
0.00394354
0.000256085
-3.28823e-05
-0.508336
0.00153108
0.0001157
-0.0242617
-0.109232
-0.198321
-0.171396
-0.0979393
-0.548571
-0.143957
-2.26835e-05
-3.42892e-06
0.000259969
-5.02024e-07
-0.0578642
0.0589122
-1.61485e-05
-0.619301
-5.48834e-06
6.10744e-06
-1.08943e-05
0.000442056
6.96539e-06
-0.475408
-4.07975e-05
0.0201101
-3.70939e-06
-0.00460367
-9.82338e-05
-0.0294386
-0.182236
9.51494e-05
0.000417612
-0.000440356
-0.000253869
1.15667e-05
-4.07354e-06
-3.64191e-05
-0.368173
9.10132e-07
1.40912e-05
0.0165023
0.000148501
-0.0274313
1.35539e-05
-0.403216
2.1449e-06
1.44055e-05
-1.53977e-05
-2.31316e-05
0.000491929
8.56772e-05
-0.369905
7.53104e-06
0.00124044
-1.08667
-2.41766e-05
-0.700371
-2.29294e-05
-0.787416
2.22725
-0.438961
0.00112602
-1.47835e-05
-7.99248e-07
-1.02294
3.23361e-06
0.000419708
5.12025e-06
0.000659979
-0.573976
3.65263e-06
-2.17771e-05
-2.66732e-05
-1.06702e-05
-0.299417
-0.578303
-2.1686e-06
1.38348e-05
-0.502827
-0.695761
3.94689e-05
-0.232261
2.0599e-05
-0.783112
-0.588061
0.0022222
-0.0263636
-0.0142428
-0.00143636
-0.290009
0.0029816
-3.18327e-05
-4.99081e-05
6.67539e-06
-0.788072
-0.578384
2.24596e-05
-9.92916e-07
-0.280257
3.6926e-05
-0.286901
1.18654e-05
9.76066e-06
2.66063e-05
1.46164
0.00257355
-1.17637e-05
-0.332397
-4.62073e-06
0.168143
-0.776992
-1.118e-05
2.91839e-05
0.00204764
7.20886e-06
-1.10323e-05
4.89908e-06
-0.5303
4.72475e-05
-7.00804e-06
-3.13289e-05
-0.389249
-2.5949e-05
-0.000212007
-1.86914e-05
-0.343466
-2.64584e-05
-0.00343551
-2.4675e-05
-0.286869
-0.486281
0.00017358
0.00325499
0.000853422
-1.32456e-05
-0.000811263
-0.390284
-9.65044e-06
0.00147194
1.84039e-05
0.0162983
2.86325e-05
-0.497402
-0.388812
-0.00163381
-0.313489
-0.326323
-0.000115524
8.30935e-05
0.878441
2.1276e-05
-0.32432
-3.53853e-05
0.12522
-6.28362e-06
-3.79074e-05
0.00027566
3.59531e-06
-4.23111e-05
-1.62819e-05
1.20867e-05
-0.0937837
0.000444107
-0.320557
-0.406818
-5.67026e-06
3.26328e-05
-0.000234499
-0.388681
-5.2031e-05
1.10008e-05
1.847e-05
-0.353515
0.150007
-0.297589
-0.359982
0.000323895
-3.29423e-05
1.41295e-05
0.000747611
0.000393912
-0.000781889
-1.56449e-05
-1.55204e-05
-0.795832
0.000526326
-3.34181e-06
0.00174243
0.00941328
0.00150654
-6.55417e-06
-0.000138823
0.0047708
-0.0357317
-0.731744
0.0389171
-1.89206e-05
-1.48297e-05
-4.43579e-06
-2.55748e-07
-3.15008e-05
-2.05106e-05
0.00013502
-0.0150869
0.000216635
0.000534816
3.77506e-05
-1.41018e-05
2.80424e-06
8.32602e-05
-7.75522e-05
2.13459e-05
-2.55216e-05
6.80863e-05
-3.31935e-05
-4.1223e-06
-1.51412e-05
3.74055e-05
-0.0263308
-3.80296e-06
-0.000620394
0.0759828
0.333269
-0.437815
-0.520155
-4.00256e-05
2.12834e-06
-1.53525e-05
-1.14467
1.12636e-05
4.89472e-06
-3.82083e-05
-0.84932
1.21815e-05
0.000355048
0.00450332
-2.28849e-05
-9.2519e-06
0.00014242
-1.55016e-05
-0.00013012
1.27074e-05
-9.2353e-05
1.40087e-06
-1.69266e-05
5.83447e-06
3.29129e-06
0.000317493
0.0310077
0.000868355
-0.000762869
0.00037428
0.00639625
0.000170974
0.00044364
-1.28857e-06
-0.320124
-1.0824e-05
-3.10091e-07
-2.15367e-05
0.000104323
0.000773454
-1.66039e-06
-0.000337227
-0.277231
-2.39728e-05
-0.00365375
-0.00108719
-0.000104453
-0.000145197
-0.000274881
-1.33636e-05
0.000137765
-1.45417e-05
-0.000621066
0.000400389
-1.0441
3.07281e-07
0.000299289
-2.33936e-05
-0.487466
0.939699
0.000558781
1.5341e-06
0.000378337
2.03709e-05
0.00106622
5.38896e-06
-0.80736
8.11276e-06
-2.40932e-05
1.10232e-05
-0.000362898
0.00646165
0.000122903
0.0880483
-8.93189e-06
0.000849806
-0.00031366
-1.76238e-05
0.41778
-0.841211
0.00509802
0.00197722
0.000223804
1.89261e-05
1.57176e-05
-0.357474
-0.00138806
8.58601e-06
8.74377e-05
-1.59391e-05
-5.17433e-05
-0.0210393
-5.70708e-06
-0.883464
-0.00120044
0.00543255
0.000461423
-3.79482e-05
1.32517e-06
-3.7191e-06
-0.00374319
-0.000660135
-2.17685e-05
-0.290618
-1.6862e-05
-2.77333e-05
-7.61801e-06
-0.913397
-5.99801e-05
0.469911
5.41869e-06
-0.796681
-2.70652e-05
1.65115e-05
-3.92302e-05
1.06649e-06
-3.8868e-05
0.000970018
-5.05321e-05
-2.99698e-05
2.27366e-05
0.000167687
4.59513e-05
-0.151789
2.10806e-06
-4.57479e-05
3.05097e-05
0.00322328
-5.71736e-05
-6.48775e-06
0.000738505
-0.922004
-0.445841
-0.277708
-0.183285
0.00465664
0.000243496
-0.000358609
-2.01976e-05
4.74773e-05
2.90096e-05
-0.66214
-0.000258343
3.35548e-06
-2.62031e-05
-3.82465e-06
0.000419377
-0.000145986
-1.06669e-05
-1.86776e-05
0.00233282
0.00687549
-0.00444055
1.54249e-06
-4.46685e-06
-0.410083
0.000185384
-5.06921e-05
-0.583945
-0.371463
2.28593e-05
5.59704e-05
3.75694e-05
-1.44962e-05
-0.000103681
1.35755e-05
1.44553
3.53124e-06
-0.142507
-3.44235e-06
-0.142111
0.000126229
-2.4625e-05
0.00201357
-6.54934e-06
-3.90039e-06
1.50244e-06
0.000320333
0.00417353
-8.15717e-06
0.00452587
-1.3028e-05
-5.47522e-06
0.000104726
6.90801e-06
1.19702e-05
-3.16848e-05
-1.97443e-05
-1.46025e-05
-6.3433e-05
-1.85999e-06
2.09587
-3.19347e-05
1.88058e-05
-0.000182652
1.06369e-05
-7.57641e-06
-1.90857e-05
1.23762e-05
-0.665913
-0.046829
1.56005e-06
0.000108839
-1.47038e-05
-6.0524e-07
0.0262095
1.10977e-05
1.46227e-05
-0.0952131
-8.90377e-06
0.000548343
0.00197825
-7.37838e-05
-2.71353e-06
0.0157911
-1.73716e-05
-0.0658499
-0.000329107
-1.3684e-05
-0.284046
-0.0581783
-1.27071e-05
-0.00203261
-1.82835e-05
-2.78638e-05
-9.61709e-05
0.0190118
1.04961e-05
5.50467e-06
8.96956e-06
0.000271099
-3.26879e-05
0.000649349
2.62558e-05
0.000334756
2.21375
0.000118837
0.0205225
-1.27432e-05
0.000343631
-1.70007e-05
1.13628e-05
-4.09886e-05
-2.27477e-05
-8.0154e-07
-1.39841e-05
-0.000432708
-3.08899e-05
0.00391585
9.01847e-06
-0.902577
-4.50245e-06
4.29319e-06
0.000328987
2.54552e-05
-0.0010306
0.00346324
0.000492624
9.76809e-06
-1.99193e-07
-1.91883e-05
-5.42616e-05
-4.24696e-05
-0.000254041
0.000310787
-4.85787e-05
2.4798e-05
2.46615e-05
-0.924827
6.81216e-05
-0.000162435
-0.714403
1.14768
0.00019699
-2.00991e-05
-0.815371
-1.10605e-05
0.000138246
-2.60452e-05
0.00350835
2.41704e-05