/*--------------------------------*- C++ -*----------------------------------*\
| =========                 |                                                 |
| \\      /  F ield         | OpenFOAM: The Open Source CFD Toolbox           |
|  \\    /   O peration     | Version:  v2012                                 |
|   \\  /    A nd           | Website:  www.openfoam.com                      |
|    \\/     M anipulation  |                                                 |
\*---------------------------------------------------------------------------*/
FoamFile
{
    version     2.0;
    format      ascii;
    class       volScalarField;
    location    "400";
    object      k_0;
}
// * * * * * * * * * * * * * * * * * * * * * * * * * * * * * * * * * * * * * //

dimensions      [0 2 -2 0 0 0 0];


internalField   nonuniform List<scalar> 
10042
(
0.00014726
0.00014821
0.000148131
0.000158809
0.085174
0.00014836
0.0807286
0.00382897
0.00014728
0.000147909
0.0326937
0.000158691
0.000144723
0.000144494
0.000151625
0.00014808
0.000148019
0.000149697
0.000147283
0.000171444
0.000147152
0.000224047
0.000145564
0.000145282
0.000148261
0.000159475
0.000148794
0.000150304
0.000147263
0.000149566
0.000148009
0.00667579
0.000147985
0.000149374
0.000155847
0.000145357
0.000158568
0.000163907
0.000145353
0.000157915
0.000172297
0.000151037
0.0820391
0.000148173
0.0850596
0.000177396
0.000149272
0.000190604
0.000157404
0.00017591
0.000149029
0.000149794
0.000151008
0.000151571
0.000158581
0.000148308
0.000147298
0.000149162
0.000149339
0.000150675
0.000148176
0.000147876
0.000156058
0.00014804
0.00014899
0.000149382
0.000148332
0.00016595
0.0619649
0.000147514
0.000151448
0.000173886
0.00014819
0.000157597
0.000148241
0.000145283
0.0881228
0.000147344
0.000156866
0.0840494
0.00015666
0.0780377
0.00014828
0.000150354
0.000148357
0.000149376
0.000147153
0.000183438
0.000147807
0.000147144
0.000149157
0.0756377
0.000150488
0.000149536
0.000149429
0.000147696
0.000147381
0.000147513
0.000157285
0.000147391
0.000149933
0.000178426
0.00744065
0.000149294
0.00014999
0.000165206
0.000147315
0.000147338
0.000147212
0.000144541
0.000145854
0.000147006
0.000154985
0.0539262
0.000148955
0.000146999
0.000147559
0.000147314
0.00014766
0.0369706
0.000147761
0.000812507
0.000148345
0.000147775
0.000178485
0.000148282
0.0015601
0.000157973
0.000164896
0.000147096
0.000157334
0.000148168
0.0392677
0.000205256
0.000147384
0.000168578
0.0256712
0.000149201
0.000191412
0.000185641
0.000150238
0.000147547
0.000149668
0.000188128
0.000148374
0.00014699
0.000169551
0.000145588
0.000147614
0.000154224
0.000147481
0.000149676
0.0644409
0.0403325
0.000149174
0.000144691
0.000149832
0.000147817
0.000168511
0.0139077
0.0284131
0.000190247
0.000147778
0.00014746
0.000148597
0.000148086
0.00016554
0.015973
0.00639034
0.0446218
0.00015055
0.000146748
0.06405
0.000174288
0.00016026
0.0796165
0.0230744
0.000148262
0.000167271
0.000160006
0.000150116
0.00974127
0.000148552
0.00015781
0.000150808
0.0382439
0.000211982
0.00014874
0.0320751
0.0001528
0.000312295
0.000149671
0.0647259
0.0324421
0.000186525
0.0081198
0.00015527
0.00014737
0.000144706
0.000151832
0.000159706
0.00014884
0.000146992
0.000174793
0.000148476
0.000146055
0.000377112
0.000148971
0.000149711
0.000149584
0.00112562
0.000148797
0.0001647
0.00019035
0.000149775
0.000212721
0.000148
0.000147771
0.000172519
0.000146392
0.000155146
0.000150097
0.000200954
0.000164824
0.000153791
0.000160453
0.000168173
0.000146992
0.000195872
0.000152019
0.000147301
0.000172662
0.000146799
0.000151958
0.000148299
0.000154506
0.00014623
0.000144489
0.000151843
0.00015718
0.00014783
0.000148362
0.000148418
0.000155055
0.000146966
0.000148065
0.000145352
0.000150175
0.000151003
0.000149772
0.000144735
0.000147432
0.000152804
0.000211573
0.000190382
0.0245391
0.000160415
0.00016023
0.000151863
0.000179427
0.0641895
0.000151406
0.000147331
0.000144661
0.000151708
0.00014618
0.000213732
0.000152176
0.000147123
0.00014964
0.000160256
0.000151134
0.000187692
0.000160326
0.000189088
0.000152898
0.000157135
0.000146137
0.000155123
0.000148475
0.000160621
0.000147593
0.000159511
0.0440746
0.000146027
0.000147842
0.0633905
0.000177628
0.000148578
0.000148169
0.000152493
0.0808516
0.000172268
0.000189369
0.000149137
0.000144695
0.00014702
0.000147373
0.000167707
0.000147263
0.000148133
0.000146753
0.000148008
0.000165018
0.00015199
0.000170562
0.104337
0.000150327
0.0611493
0.00014692
0.000154798
0.000148735
0.016325
0.000179179
0.000842806
0.0211656
0.000145221
0.000152223
0.00014757
0.000152324
0.000160481
0.000149577
0.000160264
0.000145804
0.000144836
0.000148284
0.000171699
0.000149883
0.000152276
0.00014799
0.000151768
0.0350857
0.000146952
0.000149107
0.00014775
0.000147893
0.000164117
0.000186831
0.0001602
0.00479598
0.000165282
0.000156857
0.000148071
0.000144359
0.000149453
0.000149767
0.000206283
0.000147609
0.000149397
0.000196667
0.000147021
0.000153223
0.000150581
0.000197454
0.00014821
0.00015356
0.000164245
0.000160015
0.000151762
0.000147421
0.0196288
0.000169819
0.000149661
0.000163837
0.000147475
0.000146822
0.00014746
0.000153193
0.000329729
0.000154419
0.000149631
0.000150258
0.000149943
0.000149788
0.000171422
0.000147398
0.000145839
0.0287854
0.000146703
0.0268412
7.02096e-05
0.000157909
0.0852741
0.0201517
0.00015638
0.000172876
0.000148983
0.000176502
0.000149937
0.000148991
0.000210957
0.000148319
0.000152692
0.000789691
0.000149347
0.000147163
0.000162499
0.000281208
0.000149186
0.000145501
0.00732703
0.000179142
0.00014673
0.000165918
0.00347803
0.000146395
0.000149738
0.000145763
0.000147017
0.000144566
0.000145941
0.0410817
0.0105652
0.000149099
0.0964842
0.000144514
0.000147235
0.0002571
0.000148798
0.0280677
0.000173654
0.000150352
0.000145681
0.000145387
0.000176423
0.000150831
0.000156442
0.000149501
0.0364666
0.000149521
0.0114074
0.000151289
0.000147382
0.000147025
0.000242601
0.000147494
0.00015379
0.000147262
0.000148106
0.0110846
0.00015537
0.000147493
0.000146438
0.01117
0.000147052
0.000155722
0.000151626
0.000146183
0.0852087
0.0843294
0.000147018
0.00014878
0.000154672
0.00014472
0.000147914
0.000147718
0.015286
0.000147853
0.000147265
0.000156524
0.0036075
0.000171161
0.00014977
0.000159767
0.0068216
0.000166675
0.000147589
0.00014745
0.000205526
0.000149414
0.000147428
0.000156412
0.000147551
0.000145924
0.000150377
0.000145049
0.00016069
0.000147307
0.000147525
0.0268169
0.000146171
0.000150333
0.000148331
0.000149321
0.000160362
0.000147046
0.00014777
0.000701747
0.000149851
0.0841863
0.000151315
0.000149868
0.000149831
0.000181863
0.000147518
0.000147534
0.000147926
0.00014992
0.000155776
0.0831822
0.000147078
0.000160624
0.000384235
0.000166584
0.000149717
0.000147627
0.000148881
0.000149301
0.000146949
0.031582
0.0218667
0.000148388
0.00015801
0.000159799
0.000159183
0.00014828
0.000145517
0.00019061
0.000175805
0.000324232
0.000145588
0.000149062
0.000148634
0.000146738
0.0683189
0.00016166
0.000149925
0.000147651
0.000146912
0.000148146
0.000679728
0.000155396
0.000148846
0.0109504
0.000234584
0.00019468
0.000165711
0.000147968
0.000147418
0.000180244
0.000168362
0.045069
0.0264499
0.000153047
0.00015405
0.000149352
0.000152162
0.00014879
0.000149275
0.0303808
0.000145293
0.00014692
0.000176848
0.000149352
0.00018241
0.000150932
0.000196059
0.000157587
0.000149598
0.000151885
0.0001559
0.000169628
0.000165782
0.000168753
0.000149871
0.000175979
0.000150945
0.000147653
0.000148692
0.000149534
0.000148107
0.000153316
0.000171246
0.000160659
0.000148868
0.000150038
0.000147895
0.00014743
0.000171853
0.000147339
0.000151538
0.000217476
0.000145048
0.000168438
0.000188061
0.000148148
0.0340782
0.000168664
0.00014935
0.000215778
0.000148536
0.000149771
0.000147962
0.000147748
0.000149944
0.000152878
0.000148182
0.000219207
0.000150237
0.00014765
0.00014919
0.000160573
0.000162946
0.000147748
0.000153904
0.00014741
0.000163127
0.000147822
0.000157642
0.000145935
0.000150519
0.000145309
0.000147361
0.104526
0.000145791
0.000170767
0.000147691
0.000150867
0.000146048
0.000163182
0.000148392
0.000169434
0.000148557
0.000208376
0.000149725
0.0732696
0.000145563
0.000151507
0.000149792
0.000148082
0.000147558
0.000152791
0.000148106
0.000170916
0.012808
0.000197821
0.00015304
0.000159999
0.000146982
0.000161015
0.000177438
0.00014793
0.000156214
0.000169056
0.0474186
0.000188316
0.0126773
0.000156754
0.000148698
0.000149503
0.000154638
0.000152896
0.000167266
0.000145222
0.000151815
0.000187491
0.000149742
0.000147435
0.000154458
0.082074
0.000151284
0.000159192
0.000180367
0.000149648
0.0838938
0.000145336
0.000146682
0.000149624
0.000147594
0.0187143
0.000180949
0.0720933
0.000148237
0.00152472
0.0270644
0.000154704
0.000166965
0.000179975
0.000195876
0.000162061
0.00014799
0.000147303
0.000156839
0.0179473
0.000146971
0.000156984
0.0830202
0.000147294
0.000147193
0.000147722
0.000150635
0.0001475
0.000148427
0.000180901
0.0264674
0.0001483
0.000147846
0.0376852
0.0600209
0.00014702
0.000147593
0.000148945
0.000147036
0.0002631
0.00018092
0.000185673
0.000150004
0.00014715
0.000147371
0.000150166
0.000148237
0.000162962
0.000149909
0.104267
0.000147899
0.000148381
0.000162973
0.000146893
0.000164746
0.000165548
0.000151453
0.00690303
0.0605945
0.000148713
0.000146945
0.0807152
0.0258955
0.00016022
0.000148426
0.00397376
0.000175916
0.000153719
0.000147904
0.000147799
0.000147294
0.000193142
0.000152962
0.000168838
0.000149771
0.0403119
0.000324501
0.000147644
0.000147778
0.000170285
0.000148926
0.00014603
0.000153758
0.0582076
0.0451911
0.0967783
0.000149957
0.000176129
0.000161649
0.000145424
0.000147853
0.000149231
0.000191526
0.000149319
0.000147614
0.000176155
0.000148229
0.000171917
0.000148632
0.000148618
0.000145762
0.000148926
0.00020288
0.000149268
0.000147371
0.000167802
0.000164603
0.000189401
0.000149351
0.000179488
0.0562786
0.0855482
0.000150557
0.017081
0.0133048
0.0001473
0.0001448
0.000150058
0.00015106
0.0385689
0.000151758
0.000148719
0.00014932
0.059097
0.000160731
0.00014976
0.000148858
0.000147574
0.000164413
0.000146122
0.000146884
0.000162215
0.000150443
0.000149307
0.000147226
0.000236675
0.000147831
0.000150339
0.000148066
0.000149453
0.000187456
0.0001493
0.000150779
0.000148366
0.000154636
0.000207314
0.000149941
0.000188938
0.000155143
0.0400425
0.000146245
0.000151862
0.000161887
0.00017922
0.000162583
0.000149881
0.0213006
0.0367925
0.000149625
0.000147124
4.67605e-05
0.000148417
0.000149645
0.000146185
0.000149577
0.000170539
0.000149948
0.000149949
0.000165483
0.000157072
0.00015737
0.000157678
0.000150093
0.09907
0.000151739
0.000214002
0.000147009
0.000176708
0.000160697
0.0687997
0.000153288
0.0625752
0.000149778
0.000155773
0.000148139
0.000148532
0.00014758
0.000195051
0.000160552
0.000175067
0.0229319
0.000148699
0.000205407
0.00015626
0.000147109
0.000157288
0.000160028
0.0570725
0.000147738
0.000155963
0.000163763
0.000151656
0.000160782
0.000149882
0.000144986
0.000149878
0.000187396
0.000148812
0.000147874
0.000146185
0.000146
0.000147394
0.000147772
0.000149412
0.000146838
0.000148931
0.000149519
0.000154094
0.000157458
0.00014782
0.0428241
0.000148101
0.00120501
0.000159803
0.0421169
0.000163431
0.000155479
0.00831662
0.000163338
0.000190208
0.0894205
0.00016418
0.000149271
0.000146784
0.000150723
0.00018837
0.000147687
0.0537274
0.000147486
0.00697952
0.0766596
0.000179187
0.000150871
0.0332336
0.0376505
0.000150845
0.000147746
0.000149737
0.00015383
0.000144924
0.000145689
0.000167829
0.000208575
0.000148412
0.000147646
0.00014928
0.000243257
0.000181297
0.000148971
0.000154363
0.000181191
0.000149677
0.00014805
0.0492594
0.000149149
0.000147254
0.000556381
0.00015239
0.000147923
0.00509143
0.0849752
0.0400298
0.000147409
0.000151014
0.000237588
0.000146209
0.00014771
0.000149886
0.000160736
0.00014817
0.000148629
0.000152504
0.000161668
0.000177112
0.000146459
0.000147791
0.000148415
0.000147511
0.000149844
0.000145127
0.000191615
0.000156971
0.000147944
0.000147753
0.000146343
0.000147667
0.000149819
0.0601237
0.000159171
0.000145462
0.00014739
0.00016068
0.0600479
0.00014816
0.000147717
0.000148066
0.000145422
0.0136405
0.000174871
0.000146835
0.00014831
0.000159209
0.000171955
0.000149054
0.000149875
0.000153527
0.000148478
0.000156057
0.000149384
0.0596953
0.000161669
0.000148354
0.000155394
0.059259
0.000156157
0.000199804
0.000154154
0.000238135
0.000149789
0.000149176
0.000154505
0.000180299
0.000147412
0.000147762
0.000149591
0.000150641
0.000169997
0.000174095
0.00195222
0.000150504
0.000147781
0.00015652
0.000148034
0.000148013
0.0568621
0.000152032
0.000148354
0.000147771
0.000184687
0.000748615
0.00014777
0.000148623
0.000184033
0.00014752
0.000148589
0.000147579
0.000183805
0.000151289
0.000156043
0.00599792
0.000149159
0.000149051
0.0574422
0.000147181
0.000176157
0.00014722
0.000151849
0.00016264
0.000148079
0.000148484
0.000149464
0.000152097
0.0241087
0.000147346
0.000148807
0.000178917
0.000154001
0.000177332
0.0746315
0.00016436
0.000149365
0.000224194
0.000147914
0.0580779
0.00014905
0.000148389
0.000147128
0.0107687
0.000149365
0.000149314
0.000148988
0.000163352
0.0550676
0.000156778
0.000167541
0.000147595
0.000148809
0.000163751
0.00015824
0.000146702
0.00015456
0.000147254
0.0717891
0.0447226
0.000148847
0.000150445
0.000149442
0.00362947
0.000148976
0.00885229
0.000147752
0.000147673
0.000146853
0.00014987
0.000152709
0.000149792
0.000147794
0.000148193
0.00478075
0.000188419
0.000147667
0.000153803
0.000153285
0.00016212
0.000147803
0.000153917
0.000150846
0.000147968
0.000150895
0.000161811
0.000149855
0.000147227
0.000155043
0.000147109
0.000185913
0.000151281
0.000177495
0.000148587
0.000148127
0.000147902
0.000185216
0.000162469
0.000146339
0.000153916
0.000179075
0.00014956
0.000146378
0.000154898
0.000149448
0.0118231
0.000181347
0.000153877
0.0205136
0.000150763
0.000163976
0.000181408
0.000161158
0.000164325
0.00872476
0.000161182
0.000194929
0.000148554
0.000151097
0.000147479
0.00014789
0.000156282
0.000146865
0.000177064
0.000148215
0.000148116
0.000169495
0.000147484
0.000174965
0.000156407
0.00015433
0.000147511
0.000161369
0.000224966
0.000143976
0.000161526
0.0585077
0.000160791
0.000147351
0.000161133
0.000147798
0.000147046
0.0215122
0.000146716
0.000146319
0.000170688
0.000147994
0.000157322
0.000147045
0.000147864
0.0832477
0.000147659
0.000145832
0.000153744
0.000147424
0.000145436
0.000149649
0.0257931
0.00014872
0.000148448
0.000145492
0.000184484
0.000149416
0.00015342
0.000147554
0.000159769
0.000150157
0.000147452
0.000150792
0.00014857
0.000146295
0.000173223
0.000164469
0.000157863
0.000151365
0.000166155
0.000179286
0.00015525
0.000155723
0.000150534
0.0882896
0.000147829
0.000148295
0.000147297
0.000149549
0.000159735
0.000147146
0.0777601
0.0365
0.0218665
0.000148447
0.000153805
0.000162008
0.00014506
0.00016812
0.000164042
0.000268238
0.000180256
0.0564713
0.000179117
0.000202149
0.0365548
0.000156916
0.000151321
0.000154355
0.000146911
0.0497508
0.000150236
0.000156488
0.000146577
0.000153868
0.000148178
0.0422111
0.0587889
0.0001493
0.0148905
0.000259414
0.000216665
0.00016887
0.000172597
0.000145838
0.0615794
0.000148033
0.0620381
0.0319467
0.000149305
0.000147587
0.000147855
0.000151303
0.00015475
0.000163185
0.000202749
0.000148737
0.000148137
0.000154448
0.000149754
0.000148093
0.000155036
0.000146739
0.000148281
0.000220235
0.000172682
0.000148154
0.0861395
0.000151217
0.000149796
0.000151248
0.000217019
0.000147559
0.000146146
0.000185976
0.000187903
0.000147514
0.000154406
0.000303085
0.000171546
0.0487019
0.000146459
0.000202725
0.0663019
0.0978903
0.000148449
0.000147654
0.000178499
0.000154686
0.000163155
0.000149295
0.076056
0.000170353
0.000199218
0.000148445
0.000147673
0.0154113
0.000221228
0.000148926
0.000149797
0.0495875
0.000147443
0.000145815
0.000147794
0.000152149
0.000149251
0.000156696
0.00014861
0.000152823
0.000145409
0.000162734
0.0180825
0.000168017
0.000162534
0.0208702
0.000177054
0.000145749
0.00014701
0.000147721
0.000149877
0.000184436
0.000156723
0.00014899
0.000148116
0.000147702
0.000145166
0.000158401
0.000145312
0.000162925
0.000153348
0.000148736
0.0651037
0.0350318
0.000148581
0.0952475
0.000159316
0.000160973
0.000149738
0.000145598
0.0211406
0.000176714
0.000147289
0.000146221
0.000147561
0.000156064
0.000149726
0.000201319
0.000144732
0.000148283
0.000148462
0.0467919
0.054385
0.000145191
0.000148205
0.00017931
0.000198684
0.000152874
0.083333
0.0806859
0.000147645
0.000148855
0.000148675
0.000150806
0.0388064
0.000148128
0.000149886
0.000188897
0.000180661
0.000149363
0.000147612
0.00016582
0.000149881
0.000148392
0.00017991
0.00018155
0.045036
0.000147721
0.000186094
0.000161047
0.00017547
0.000150766
0.000156065
0.000147412
0.000149842
0.000171643
0.000154608
0.000147836
0.00015386
0.0311651
0.000145012
0.000146829
0.000145004
0.000169799
0.000147468
0.000148457
0.000144108
0.000147462
0.000268072
0.0986571
0.000148961
0.0225904
0.063439
0.0484113
0.000147413
0.000147844
0.00014669
0.00014722
0.000148686
0.000148926
0.000145355
0.00014843
0.000146308
0.000152572
0.0183733
0.000160657
0.000172738
0.000160741
0.000148076
0.000151044
0.000159683
0.00014883
0.000146839
0.000162558
0.000159365
0.000259272
0.000168899
0.000145031
0.0675728
0.000150407
0.000144668
0.000147711
0.000265592
0.000168837
0.000150169
0.000154951
0.000148369
0.000148531
0.000158172
0.000168303
0.000159536
0.0618869
0.000148456
0.00014805
0.000252066
0.000161502
0.000154
0.000192138
0.000151575
0.000167648
0.000226911
0.00017381
0.0101874
0.000147376
0.000147488
0.000147419
0.000148201
0.000148526
0.000151388
0.000167216
0.000177025
0.0393876
0.000148376
0.0957101
0.0357529
0.000154486
0.000357091
0.000149017
0.000181244
0.020718
0.000147211
0.000184402
0.000145787
0.000254572
0.000149257
0.000207147
0.000146973
0.000106643
0.000168221
0.0333191
0.000146788
0.000200493
0.000146709
0.000151608
0.000194767
0.000146733
0.0105638
0.0709541
0.000114709
0.0528003
0.000185991
0.0533501
0.000163544
0.000147987
0.000163539
0.000169084
0.0624471
0.000148408
0.000147959
0.000150527
0.000166929
0.000147897
0.000149022
0.000149052
0.0355787
0.0523904
0.000147605
0.0746226
0.0001658
0.000145985
0.000162194
0.000155795
0.0601682
0.000158333
0.00014692
0.000199061
0.000148366
0.000147401
0.000148485
0.000184612
0.000175629
0.000147492
0.000155045
0.000148637
0.000149713
0.000146384
0.0513491
0.000149895
0.000146511
0.00795872
0.000219899
0.000153202
0.000147478
0.0361316
0.000156297
0.000151267
0.000147968
0.000163772
0.000151629
0.00015785
0.000153665
0.0413929
0.000163695
0.000175248
0.000144931
0.000163805
0.000173604
0.000158652
0.000149453
0.105737
0.000149651
0.000203191
0.000147094
0.000149232
0.000163236
0.000205192
0.000152229
0.000154784
0.000148665
0.000160514
0.000177296
0.000188217
0.0001565
0.000149945
0.000147588
0.000155712
0.000187672
0.000147407
0.000169336
0.000147958
0.000147437
0.0395645
0.000147242
0.0595606
0.000147863
0.000155075
0.000181652
0.000147838
0.000158853
0.000193408
0.000184511
0.000148003
0.000186819
0.000150394
0.000149734
0.000147492
0.0288008
0.0660755
0.000147234
0.000147546
0.000146519
0.000147018
0.000184357
0.0725166
0.000147869
0.000233791
0.000146129
0.000146418
0.000147086
0.00123574
0.00015068
0.000152222
0.000147516
0.000148217
0.000147651
0.000149684
0.000149705
0.000161572
0.00496518
0.000146282
0.000147748
0.000160735
0.000175068
0.000146518
0.0513006
0.000169656
0.000146845
0.000145414
0.000149442
0.000191412
0.000146799
0.000185153
0.000157812
0.000152948
0.000146775
0.000169165
0.000144762
0.000173542
0.000156177
0.000149456
0.0152868
0.000776611
0.00014404
0.00014699
0.0169431
0.000188317
0.000181127
0.000154217
0.000185087
0.000145636
0.0751896
0.000182688
0.000147658
0.0315966
0.0860036
0.000151209
0.00016605
0.000171982
0.000146857
0.0997291
0.000148867
0.000157148
0.00015888
0.00014913
0.000148186
0.000164153
0.000146946
0.000147051
0.000146935
0.00160273
0.000147359
0.000147399
0.000146769
0.000147063
0.000147447
0.000149496
0.000175106
0.000161592
0.000152672
0.000149637
0.000411116
0.000149204
0.000146811
0.000147177
0.000146425
0.000148465
0.000147636
0.000159212
0.000185516
0.000149448
0.000160529
0.000163187
0.00014692
0.000156144
0.0477797
0.000150499
0.000145061
0.000148433
0.000167203
0.0001493
0.000149295
0.000153165
0.000153663
0.0344382
0.0129453
0.000146606
0.000146867
0.000147436
0.00016644
0.000159583
0.000146859
0.000156025
0.00016852
0.000148844
0.000155324
0.000148799
0.000181397
0.000220871
0.000151154
0.000174654
0.000155029
0.0471379
0.000149314
0.000147095
0.0805972
0.000171493
0.000153375
0.000206695
0.000168206
0.0183927
0.000162569
0.000200722
0.000155617
0.000155124
0.0183945
0.000155382
0.000222095
0.000161369
0.000183719
0.0359722
0.000149951
0.000148725
0.000147688
0.000197321
0.000144155
0.0117457
0.000165946
0.0225062
0.000150688
0.000170841
0.00020073
0.000147462
0.000148969
0.000166785
0.000158224
0.000148478
0.000155609
0.000167764
0.00017962
0.000176801
0.00019055
0.0192045
0.00018141
0.000148662
0.000149282
0.0725373
0.000166685
0.000150369
0.000161198
0.0492181
0.000149447
0.000153226
0.000147424
0.000156934
0.000148123
0.000148596
0.00016001
0.000148582
0.00015578
0.0317392
0.0143654
0.000145919
0.000154295
0.000157136
0.000188356
0.00016255
0.00014984
0.000147318
0.000169862
0.00860804
0.000147377
0.000153423
0.00014874
0.0708322
0.00014692
0.000158991
0.00013311
0.00014819
0.000149797
0.0001737
0.000174809
0.000173595
0.000154296
0.000147985
0.0863442
0.000146813
0.000156806
0.000149024
0.000159722
0.000145828
0.00014628
0.000148896
0.00017496
0.000146926
0.000147682
0.000147235
0.000148733
0.000146934
0.000148542
0.000180897
0.0402192
0.0511344
0.00015535
0.000148259
0.000157884
0.000152636
0.0492966
0.000149891
0.000175947
0.000145617
0.000147849
0.000150065
0.000162471
0.071964
0.000147635
0.0367242
0.000149464
0.000144792
0.000151391
0.0943472
0.000151501
0.000161552
0.0636611
0.000149889
0.000148858
0.0134082
0.000147234
0.0582801
0.00014848
0.000162157
0.0159305
0.000150674
0.000148552
0.000146825
0.0161547
0.000156931
0.000147007
0.000206151
0.000147554
0.000150775
0.00017892
0.0470553
0.000179771
0.0658738
0.0257008
0.000167504
0.000151842
0.000177261
0.000208806
0.00014779
0.000147301
0.000150742
0.000157897
0.000167345
0.000147785
0.000153925
0.000147157
0.000147564
0.0472478
0.000149458
0.0257605
0.000145365
0.000163625
0.000181508
0.000146596
0.000144752
0.0600574
0.0665464
0.000172089
0.000148437
0.000154192
0.000178008
0.0001463
0.000164782
0.000183633
0.000167617
0.000160641
0.0254294
0.0404401
0.00014484
0.000148791
0.000145457
0.000149233
0.000151095
0.000158543
0.0118276
0.000148698
0.000147655
0.000172746
0.0312186
0.000145453
0.00106201
0.00014599
0.000191147
0.000174115
0.0941093
0.00018406
0.000164052
0.000164327
0.000145142
0.000144667
0.000208315
0.000154773
0.000148485
0.000318682
0.000146865
0.000148459
0.000145429
0.000170297
0.000182452
0.000258522
0.000173139
0.000158981
0.000158104
0.000148727
0.0377008
0.000223324
0.000151258
0.000147683
0.000147068
0.000190407
0.0951025
0.000160238
0.0954966
0.000150464
0.000146831
0.0408645
0.00014791
0.0728778
0.0808369
0.000146392
0.000158561
0.00019335
0.000152854
0.000159998
0.000147236
0.0527783
0.00015673
0.000176219
0.0114514
0.0454667
0.000158581
0.000159565
0.000148827
0.00018506
0.0478534
0.0001515
0.000153155
0.0495174
0.000163179
0.000166327
0.000149739
0.0247041
0.0147742
0.000168769
0.00014786
0.000156989
0.000147092
0.00144283
0.000179091
0.000162479
0.0789394
0.0442305
0.000145208
0.000194314
0.000148578
0.014164
0.000169076
0.0001576
0.000155459
0.00032458
0.000143827
0.000181252
0.0142507
0.0622137
0.000151172
0.000148066
0.000146385
0.000169978
0.000916259
0.000193728
0.0671405
0.000192436
0.000164625
0.000147178
0.0545524
0.000181471
0.000156913
0.000178656
0.00640953
0.0326951
0.0221581
0.0303208
0.0369267
0.0214068
0.00014853
0.000156478
0.000161379
0.000148381
0.0328062
0.000310504
0.000147982
0.0913423
0.000148782
0.000147818
0.000146248
0.000161079
0.000146918
0.044568
0.000164435
0.000226091
0.000147313
0.000255215
0.000162964
0.000241077
0.0185676
0.00015084
0.000158271
0.000161604
0.000165447
0.000147137
0.000146274
0.000147059
0.0411491
0.000146373
0.000147098
0.000225702
0.000152167
0.0474726
0.00014816
0.0589944
0.000147575
0.000148266
0.000148031
0.000148116
0.000157875
0.000153581
0.0551782
0.000157889
0.000167322
0.0764349
0.000147197
0.0809233
0.00014656
0.079607
0.00443466
0.0621844
0.000177144
0.000148135
0.000149799
0.0873712
0.000148892
0.000156879
0.000148655
0.000160698
0.0711669
0.000147031
0.0001468
0.000147192
0.000149745
0.0624586
0.0888262
0.000147373
0.000144126
0.049818
0.0962971
0.0001469
0.0728149
0.000149739
0.090896
0.0692181
0.000182238
0.000197079
0.000217872
0.000168031
0.0359616
0.000186795
0.000148012
0.000145061
0.000146358
0.0860641
0.09611
0.000151131
0.000156034
0.0366427
0.000146955
0.0283724
0.000147873
0.000148461
0.000145853
0.0169992
0.000184351
0.000146903
0.0473754
0.000149657
0.050914
0.0802642
0.000146729
0.000148636
0.000189088
0.000147584
0.000149549
0.000146639
0.0664703
0.000158364
0.000148065
0.000148781
0.0795731
0.000147793
0.000162569
0.000147748
0.0540117
0.000148568
0.000173023
0.000162133
0.0451836
0.086231
0.000159648
0.000187643
0.000173988
0.000148392
0.000170403
0.057456
0.000147026
0.000181735
0.000146301
0.000256165
0.000147125
0.0658506
0.0858268
0.000170682
0.0369129
0.0480267
0.000160644
0.000150466
0.000379931
0.000147348
0.0532463
0.000153925
0.000337577
0.000147413
0.000158858
0.000166548
0.000157449
0.000148598
0.00014786
0.000149241
0.0127854
0.000177038
0.0410592
0.0416473
0.000155545
0.00014556
0.000164957
0.07215
0.00015911
0.00014724
0.000148422
0.0165205
0.0121175
0.0568432
0.0302775
0.000163291
0.000149153
0.000146367
0.000171881
0.000168644
0.000304605
0.000147847
0.000148353
0.0101635
0.000174721
0.000149893
0.000179046
0.000326201
0.000186047
0.000146282
0.000163329
0.000259012
0.000355796
0.086818
0.00022028
0.000147223
0.000149775
0.00015108
0.00014989
0.000147919
0.000148505
0.000159316
0.000179435
0.000162137
0.000158585
0.000157339
0.000149184
0.000154653
0.000150503
0.0001602
0.000158872
0.000147235
0.000157338
0.000147432
0.000146709
0.000149898
0.000148705
0.00020848
0.000145627
0.000167722
0.000262341
0.000519213
0.0605028
0.0320533
0.000153579
0.000149533
0.000147137
0.0826651
0.000148228
0.000144469
0.000149097
0.0879572
0.000157931
0.000162985
0.000237539
0.000151532
0.00014809
0.000158491
0.000146978
0.000163439
0.000149893
0.000159772
0.000146933
0.000147774
0.000150962
0.000151748
0.000155364
0.000291591
0.000166908
0.000174657
0.000172984
0.000194886
0.000165667
0.000174941
0.000148112
0.0344257
0.000152699
0.000155098
0.000147812
0.000150808
0.000176253
0.000147779
0.000167784
0.00562687
0.000156465
0.000186666
0.000179917
0.000164948
0.000169413
0.000166602
0.000147453
0.000158162
0.000148503
0.000172252
0.000167158
0.0765721
0.000146328
0.00016674
0.000154593
0.0524364
0.000315238
0.000168937
0.000148559
0.00016896
0.000145041
0.000177358
0.000150608
0.0603062
0.000145787
0.000154103
0.000147973
0.000161021
0.000196877
0.000159067
0.0471145
0.000148143
0.000162349
0.000166651
0.000147965
0.0397883
0.0913244
0.000197498
0.000178146
0.00016783
0.000147735
0.000147262
0.0648792
0.000177668
0.000146577
0.000150289
0.000153208
0.000147477
0.000217664
0.000146945
0.0852846
0.0001888
0.000195813
0.000161999
0.000149308
0.000145743
0.000147656
0.000183408
0.000167641
0.000154769
0.0317305
0.000149094
0.000150935
0.00015536
0.104054
0.000145085
0.000340372
0.000143817
0.0736496
0.000147194
0.00014716
0.000159884
0.000147729
0.000149016
0.000191106
0.000148488
0.000149287
0.000147292
0.00016583
0.000154779
0.0372963
0.000147818
0.000148595
0.000146751
0.000192061
0.000146545
0.000156193
0.00016874
0.084749
0.0831077
0.000528759
0.000211954
0.000224152
0.000164854
0.000165976
0.000155218
0.000149646
0.000148708
0.0765178
0.000164963
0.000144816
0.000147591
0.000147514
0.000158178
0.000173262
0.000149647
0.000156983
0.000189108
0.000200421
0.000174729
0.000147606
0.000149549
0.0527289
0.000152874
0.000145829
0.0721009
0.081679
0.000146182
0.000144247
0.000155428
0.000148248
0.000159832
0.000149627
0.00728294
0.000149799
0.0378851
0.000148302
0.0120773
0.00015875
0.000147924
0.000180391
0.00014553
0.000148594
0.000149742
0.000161666
0.000254925
0.000147313
0.000198508
0.000149895
0.000149269
0.000170697
0.000147135
0.000148761
0.000148572
0.000144549
0.000148063
0.000144989
0.000149041
0.0139524
0.00014685
0.000147159
0.000165806
0.000145739
0.000147421
0.000149048
0.000149178
0.104707
0.00018955
0.000148547
0.000151305
0.000148288
0.000149894
0.000216904
0.000148231
0.000147724
0.00922225
0.000147562
0.000168748
0.000178953
0.000161042
0.000147985
0.000208022
0.00014767
0.000199182
0.00016565
0.000148091
0.0748027
0.032923
0.000155843
0.000172503
0.000147336
0.000147186
0.000162627
0.000214627
0.00014718
0.000146818
0.000149281
0.000164783
0.000148599
0.000161077
0.000148649
0.000167702
1.76472e-05
0.000161643
0.000212838
0.000147309
0.000155305
0.00015659
0.000162629
0.000145937
0.000147482
0.000150848
0.000161123
0.000167013
0.000149448
0.000192384
0.00014823
0.0786619
0.000144975
0.000146338
0.000175773
0.000149793
0.00018061
0.000189471
0.000161893
0.000148465
0.000150866
0.000148385
0.000162185
0.000148485
0.000163927
0.000155992
0.000148828
0.000146162
0.000155807
0.0966813
0.000159694
0.000164353
0.0778296
0.00197294
0.000162103
0.000145035
0.0764631
0.000148062
0.000152571
0.00014947
0.000188502
0.000148208
0.000160619
0.0001558
0.000151873
0.000148708
0.00015459
0.000149271
0.000175621
0.00014737
0.000149178
0.000148133
0.000157545
0.0138693
0.000148343
0.016632
0.000167594
0.000144375
0.104426
0.000119661
0.000147825
0.000152031
0.000189484
0.000146757
0.000147377
0.0569995
0.000148028
0.0661354
0.000153779
0.000153722
0.000150017
0.000150105
0.000147779
0.000147826
0.000164637
0.000149745
0.00014756