/*--------------------------------*- C++ -*----------------------------------*\
| =========                 |                                                 |
| \\      /  F ield         | OpenFOAM: The Open Source CFD Toolbox           |
|  \\    /   O peration     | Version:  v2012                                 |
|   \\  /    A nd           | Website:  www.openfoam.com                      |
|    \\/     M anipulation  |                                                 |
\*---------------------------------------------------------------------------*/
FoamFile
{
    version     2.0;
    format      ascii;
    class       surfaceScalarField;
    location    "400";
    object      meshPhiCN_0;
}
// * * * * * * * * * * * * * * * * * * * * * * * * * * * * * * * * * * * * * //

dimensions      [0 3 -1 0 0 0 0];
oriented        oriented;


internalField   nonuniform List<scalar> 
14907
(
3.50899e-05
5.65744e-05
-0.000103732
-0.00019027
-0.000943814
0.00111947
0.000964012
-0.00114927
0.000113272
-2.00568e-05
-1.44981e-05
6.23063e-05
-0.000563877
0.000501317
0.000968207
0.000180296
-0.0012364
-0.000393979
-0.00079102
0.00118599
0.000489644
0.000363359
-0.000854375
4.53025e-05
-0.000760742
0.000728326
-0.000336798
0.000359513
-9.84611e-05
0.000357471
-0.000542332
0.000184851
5.48222e-05
-4.26479e-05
0.000863067
-0.000224893
-0.00073302
1.78978e-05
-0.000375175
0.000108454
-0.000160772
0.00136736
-0.00122082
-0.000121751
-0.000421545
0.000631699
0.000482392
-0.000525086
-0.000258846
0.000198017
1.03957e-05
-0.000167127
0.000196028
-0.000849384
0.000655223
0.000193359
-0.00129108
0.00162953
-4.574e-05
-0.00121376
0.0012302
-1.75673e-05
0.000856303
-6.39829e-05
-0.000968057
0.000197707
-0.00114173
0.000659575
0.000843507
-0.00105482
-8.72796e-05
-0.00115937
0.00123993
0.00011567
-0.00102748
0.000985021
-3.37607e-05
-0.00102481
0.0010338
-0.000140354
-0.000599754
0.000759761
2.34512e-05
0.000990213
-0.00104884
0.00061373
-0.000169361
-0.000458607
0.000568833
-0.000308933
-0.000259913
-0.000579748
6.06365e-05
0.00127549
-0.00082204
-0.000483609
-0.00121409
8.21544e-05
0.00110218
0.000394467
-0.000499716
-0.000225771
-0.00103815
0.00125611
-0.00150728
0.00129648
0.000213794
6.47653e-05
0.000313456
0.00162172
-0.000395347
-0.0012429
-0.000394481
-0.000455294
-0.000135865
-0.00118869
0.00130671
0.000711181
-0.00110423
-0.000717305
0.000153069
0.00050716
0.000568959
-0.000506917
-0.00133482
3.18923e-05
0.00129797
0.000334939
0.000613772
-0.00098132
-0.00143322
0.0015866
-0.000151257
0.00149617
-0.00093306
-0.000582519
-0.00178606
-0.000115179
0.0019007
-9.90827e-05
0.00022721
-0.000102232
0.00289899
-0.00214525
0.00173507
-0.0008138
-0.000946884
0.000855347
0.00138149
-0.00227466
-0.00108829
0.000855064
-0.000148673
0.00112087
0.000586894
-0.00070727
-0.00087893
0.00116995
0.00036551
0.000866376
0.000501106
0.00119695
0.000428612
-2.31058e-05
-0.00040082
-0.00118609
0.00151662
-0.000273317
-0.000332687
-0.000909148
0.000998701
-0.000114721
-0.000613915
-0.000532325
0.00113866
-0.0010729
0.00104048
-9.14697e-06
-0.00118495
0.000405015
0.000765502
-8.22737e-05
-0.000852903
0.00093403
-0.000685285
0.000449053
0.000236123
0.000305471
-5.34161e-05
-0.000263842
-0.00170898
0.00253065
0.000243732
-0.00056405
-0.000205595
0.00104784
0.000178044
-0.00122871
-0.000842468
0.000999158
-0.000204649
-0.00037149
-0.00122027
-0.000585255
2.11873e-05
-4.0315e-06
-0.000326245
0.000329595
-0.000233431
-0.000991626
0.00121654
0.00111519
-0.000374129
-0.000740082
0.000515156
0.000970799
-5.96848e-05
0.000628235
-0.000872379
0.00067709
0.000133217
0.000158026
-0.00133311
0.00116114
-0.000177902
-0.00103582
0.00029666
-0.00032314
-2.03297e-06
-0.000296967
8.16237e-05
0.000158103
-0.0010414
0.000304609
0.000735187
-9.27227e-05
0.000268914
-0.000228057
-0.000106203
-0.000224202
-0.000888086
0.000110629
0.000749203
0.000438157
-0.000498172
0.000900902
-0.000956903
0.000398819
-0.00101644
0.00100439
0.000575541
-0.000168438
-0.000423542
0.000406092
-0.00124509
0.000819897
-0.000604003
0.000547155
4.34172e-05
0.000150044
0.00144987
0.000146754
-0.000818378
0.000694363
0.000175397
-0.000175397
0.000991019
-9.44635e-05
-0.00090102
-3.83722e-05
-0.000919599
0.000956228
-5.94159e-06
0.000159891
6.73377e-05
-0.00115028
0.00106602
0.000608644
0.000418322
-0.00103024
-0.000137877
-0.000272986
0.00034533
0.00108899
-0.000709505
8.10354e-06
-0.00102903
-0.00138485
0.00125118
-0.000121567
0.000376318
-0.000250247
3.62095e-05
0.000128715
-0.000137966
0.00014972
-0.00137895
0.00119926
-0.000390379
-0.000294964
0.000598103
-0.00122142
-0.000450403
3.18381e-05
0.000436383
-0.000689721
-0.000213113
0.000891549
-0.000171944
4.87451e-05
0.000513881
0.000280945
-0.000550886
0.000269844
-0.000350288
0.000189027
-0.000632071
0.00112048
-0.00064687
7.9829e-05
0.000533452
-0.000640613
0.000660199
-1.57101e-05
-9.15498e-05
0.00107771
-0.000346805
-0.000565427
-0.000649651
0.00101174
0.000234673
0.000681138
-0.000936861
0.00135823
-0.000753837
0.000518095
-0.000145696
-0.000369228
-0.00110868
0.000867219
9.15762e-05
0.000667946
-0.000781744
0.00069215
-0.000295152
-0.00039703
-0.000248877
0.00106776
-0.000823629
-0.000809107
0.000974418
-0.00120639
0.000993329
0.000205898
0.000449365
-0.000577201
0.000127782
-0.000578738
-0.000354521
-0.0016136
0.000179785
-0.000504003
-0.00053877
0.00121141
-0.00017605
-0.00106803
-0.000925008
0.000220739
-0.00127964
0.000163391
0.0010843
-0.000563169
-0.000482781
0.00104192
-0.00195921
-0.000325185
0.00221548
8.11672e-06
4.21646e-05
-0.000621454
0.00120333
-0.000591094
-0.000653331
0.00245288
-0.00180864
-6.54425e-05
-0.00053903
-8.33448e-05
-0.0011189
0.00118325
-1.35936e-05
0.000736382
-0.00073449
2.67708e-05
-2.4681e-05
-6.88078e-05
-0.000235016
0.000900704
-0.000665144
0.000621833
-0.000545425
-7.64869e-05
-3.07048e-05
-0.000474628
0.000771831
0.000672791
4.23104e-06
-4.44119e-05
0.0013952
-0.00136654
-0.00133118
0.000202109
-5.9014e-05
-0.00115314
0.000610534
-0.000224535
-0.000386046
0.000137765
-0.000509246
0.00037147
-0.000222382
0.00106845
-0.000851841
-0.000790184
0.000502378
0.000266601
0.000678202
-0.000702934
0.000702328
-0.000811115
4.91133e-05
-0.000614604
0.000681525
0.000498786
-0.000981766
0.000480866
0.000493016
0.000117429
0.000224131
0.00032834
-2.12581e-05
0.000642998
-0.0026715
0.00224133
0.000389595
-8.92249e-06
0.000126068
-0.000310858
0.000825183
-0.000387425
0.000756035
0.000163638
-0.000920488
-0.00125562
0.00109383
0.000157137
-5.25916e-05
0.00112126
-0.0010637
-0.000366144
-0.000108399
0.000474534
0.000111139
-0.000627591
0.000470249
0.000767427
-0.000850761
-0.00132198
0.00126958
3.51259e-05
-0.00143661
0.00137697
0.000288125
0.000280686
-0.00145181
0.000938866
0.000465587
0.00117885
-0.000970378
0.00114458
-0.00129855
-0.000364141
0.000644981
-0.000790919
-0.000171508
0.000959029
-0.000443917
0.000938596
-0.00052399
-0.000538467
0.000180586
0.000357866
-0.00125848
0.00113309
0.000113335
2.6763e-05
0.000551102
-0.000577931
-0.000465861
-0.00085228
-0.00101304
0.000778438
0.00033274
0.000491784
-0.000615101
0.00110448
-0.000492619
0.000851225
-0.00053045
-0.00032142
-0.00137316
0.00138617
-2.17428e-05
-0.000474419
5.08948e-05
0.000359554
0.000462307
2.82631e-05
0.000413043
0.000681887
-0.00111878
-0.00129119
0.00103427
0.000251125
0.000197294
-0.000660197
-0.000279594
8.36201e-05
0.000170317
0.000751304
4.08573e-06
-0.00106487
0.00124088
0.000200751
-0.0013982
-0.000401663
0.000428376
0.0016018
-0.00167722
0.000371558
3.60235e-05
-0.000140667
-3.54304e-06
0.00075832
-0.0013644
0.000131828
0.000345066
0.000505235
0.000139243
0.000120622
-0.000129456
-0.000671424
0.00116785
0.000732415
-8.38617e-05
-0.00064896
1.66988e-05
0.00136
-0.000755766
-3.67787e-05
-0.000932266
0.000187887
0.000687901
0.000811455
-0.00106129
8.32295e-05
0.000268445
0.000787101
-0.00106207
-5.63823e-05
7.8354e-05
-5.96537e-05
0.0012505
-0.00112919
0.000200153
-0.00152384
0.00130778
-0.00078857
0.000107598
0.000680365
-0.00124626
-0.000255108
0.000361057
0.000715259
-0.00109511
-1.55701e-05
-0.00126565
0.00127604
0.000122727
0.000617506
-0.000741668
3.56522e-05
0.000218486
-0.000218525
0.000646469
-0.0010721
0.000421321
0.000434656
-0.00217448
0.000734207
-0.000794605
0.000785896
8.00879e-06
-0.000521311
0.000332088
-0.00195598
0.00235626
-0.000505329
-0.000718333
0.00098302
-0.00108315
0.000969615
-0.000761608
-0.000136909
-3.38949e-05
-0.000178881
0.00010246
0.00169737
-0.000575175
-0.00113911
0.000247112
0.00185943
-0.00210205
-0.000619178
-0.000172428
-0.000575216
0.000742249
-9.16141e-05
-0.000462337
-0.00094938
8.18537e-06
-0.00038598
0.00011886
0.000447025
-0.000401751
0.000492786
-0.000305924
-0.00104602
0.00109694
-0.00310089
0.00084307
0.00220364
-2.17993e-05
-0.000274036
-0.000388085
0.000492725
-2.44295e-06
-1.77584e-06
0.000298627
0.00109979
-0.00129155
0.00016002
-0.000716929
-7.2195e-05
0.000665766
-0.000892864
-0.000220994
-0.000317478
-0.000217282
-0.00104141
-0.00144627
0.00105519
0.000385183
-0.00117879
0.00100598
0.00161338
-0.000803198
-0.000812484
0.000636445
0.000447265
-0.00108176
0.000341515
0.0013291
0.00034643
-0.000558496
0.000194336
-0.000337349
-0.000886676
0.00127177
0.000223576
0.000791246
-0.00109474
-0.000117923
-0.000998114
0.00178597
-0.000817995
0.000379159
-5.7796e-05
0.000322279
-0.000850118
-0.000445391
-0.00174967
-5.71745e-05
0.000789149
-0.00035637
0.00102589
-0.000875536
-0.000152142
-0.000546557
-0.000717247
0.00246769
-0.002217
-0.000929479
0.000868851
9.31112e-05
0.0016238
-0.00112388
-0.000532585
-0.0022195
0.000199758
7.30249e-05
-0.00141312
-8.07756e-06
-3.38764e-05
-8.15527e-06
-0.00113201
0.00021924
0.000472862
0.00128234
-6.29333e-05
-3.8642e-05
0.000780387
-0.000799571
-0.000738079
0.00137698
0.000271914
0.00072069
0.00015381
-0.000524525
0.000434721
1.61526e-05
0.00122269
-0.000156098
-0.00117816
0.00113089
-0.00153099
0.000367018
0.00115053
0.000221362
-0.000787772
-0.000179224
6.51299e-05
0.000316317
-3.3808e-06
6.90228e-05
-0.000770968
1.88146e-05
0.000969653
-0.000848747
-3.03849e-05
-0.00032832
0.000342745
0.000510769
9.12163e-06
0.000248303
9.0002e-05
-0.000390039
-0.000140797
-0.000841221
-0.00050387
-0.00128371
0.00179233
0.00119109
-3.62387e-05
-0.00116877
-0.00112906
0.000327156
0.000799988
-0.000714783
0.000747727
-3.347e-05
0.00163684
-0.00117519
0.00103572
-0.000656592
-0.000379973
0.000493661
1.67829e-05
-0.000386027
0.00139808
0.000212395
0.00118446
-0.00100664
0.000297405
0.000164277
-0.000785706
-0.000178794
0.000960831
-0.000864612
0.000283014
0.000580737
0.000108716
0.00183677
-0.00141002
-0.000703511
0.000678652
-0.00170599
-0.000344229
0.000280705
-0.00136092
0.00130998
2.53841e-05
-0.00117985
-4.89198e-05
0.000874224
-0.000812042
0.000277879
0.000748939
-0.00103851
0.00051764
-0.000595852
-0.00011079
-7.07532e-05
-8.82561e-06
-0.000516286
-0.000970302
-0.00016055
-1.13751e-05
-0.000321544
0.000432965
0.00119319
-9.47811e-05
-1.61721e-07
-0.000573131
0.000535582
-1.8409e-05
0.00118869
0.000463793
3.02821e-05
-0.000494109
0.000572644
-0.000856748
0.00107448
-0.00031783
0.00021016
4.14033e-07
0.000865557
5.4918e-05
0.00146399
-0.00101546
-0.000460817
0.000378142
-0.000996524
0.00123244
-0.000181182
-0.000989938
0.000709701
0.00027922
0.000879268
-0.00137732
-2.58187e-05
0.0011774
-0.000650451
-2.33997e-06
-0.000697712
6.91672e-05
0.000613494
-3.48951e-06
0.000129188
-0.00023322
0.000866957
-0.000635054
-4.51167e-05
-3.58584e-06
-0.000738911
-0.00203275
0.00193251
9.2694e-05
-0.000175799
-0.00168207
0.000978645
0.000679836
0.00128905
-0.00146046
-0.000573452
0.00157865
-0.000450621
-0.00118458
-0.00104361
0.00138107
0.00110506
0.000248352
-0.000970944
0.00123455
-0.00151687
0.000340368
0.00113689
-1.83383e-05
0.000567302
-0.00059175
-0.000499041
-0.000491911
0.000330779
-0.00096017
0.00199133
-0.00086948
-0.00115069
0.000236026
0.00121546
-0.000135588
-4.30104e-05
-8.89398e-06
-0.000660385
4.12894e-05
-0.000114785
-0.000175085
-0.000768315
-0.000932853
-0.000861793
0.000654678
0.000206166
-0.00203265
-0.000238542
0.00224553
3.18837e-05
-0.000746042
0.000647515
0.000528374
0.00108218
5.31644e-05
-5.31644e-05
0.000897852
-0.000815118
0.000818067
-0.000485345
-3.69433e-05
-0.000809167
7.24089e-05
0.000813383
0.000550294
-0.000100988
0.00115426
-0.00102296
-0.000199151
6.57797e-05
-0.00101724
0.00095032
0.000622085
-0.00085652
-0.000244462
0.00128889
0.000135273
-0.0012867
0.00115649
0.000372301
-0.00123427
3.60512e-05
0.00118098
-0.000316437
-0.000478925
0.00125113
-3.49827e-05
-0.000989151
-0.00204667
0.000262724
0.000384871
-0.000384871
-0.000117439
-0.000876912
0.000956449
-0.000449179
0.00159457
-0.00114239
0.000125062
-0.000743097
0.000584018
-0.000347721
-0.00103272
0.000196089
0.000438058
0.000777371
1.23891e-05
0.00132948
0.000694893
0.000781229
0.000256158
-0.00103959
0.000235875
0.00031517
0.000626672
0.000393246
0.00225553
-0.00046996
-0.00184162
0.000473935
-0.000249816
-0.000881207
-0.000116379
-7.77561e-06
-0.00108587
0.000232069
0.000491865
4.9989e-05
-0.00011057
0.000588321
-0.000632904
-0.000232841
0.0012847
-0.00102964
0.000663652
-7.97912e-05
-0.000520485
-2.55307e-05
-0.000133358
0.00122474
2.78405e-05
0.00053568
-0.000671661
-0.00103329
0.000806869
-0.000211
-0.000596397
-9.14488e-06
-0.000355863
0.000348425
-0.000393613
-0.000694401
0.000804004
-0.00011085
0.00147921
-5.54408e-05
-0.00151876
-0.000854798
-0.000985471
-0.000558376
-0.00121977
-0.000124775
0.0010957
-0.00126052
6.56875e-05
0.000481755
0.00167523
0.00101713
-0.000271238
-0.000746719
-0.00187243
-0.00129288
4.06661e-05
0.00103252
-3.75091e-05
-0.00102304
0.000528171
-0.000170712
-0.00130864
0.00130659
-0.000532628
0.00139562
-4.63791e-05
-0.00149005
0.00157174
-0.000187986
0.000265269
0.000523372
-0.000807656
0.000283504
0.00117581
-0.000159386
-0.00109452
-0.00146094
0.00145599
2.99235e-06
0.000272347
2.43388e-05
-0.000297308
0.00133965
0.000203399
0.000236727
-0.0004613
-0.00136833
0.000254227
0.0011161
-0.000991402
0.000606616
0.000414719
-0.00114369
0.000553404
0.000517247
-0.000109181
0.000515197
-0.000406032
0.000673682
-0.000114601
-0.00049872
-0.000446755
-0.000922564
-0.000165595
-0.000943639
0.00109268
-0.000658125
0.000281023
0.000525516
-0.00103817
-0.000881279
-0.000863291
0.00183448
0.00148413
-0.000894705
-0.00225422
0.000201454
6.80962e-05
6.68783e-05
-0.000595269
0.000653487
0.000614441
-7.24826e-06
-0.000493186
0.000103827
0.000389338
0.000771304
-9.99735e-06
-0.000120456
0.000364535
-0.00114265
-4.63862e-05
0.00118315
0.000952976
1.61339e-06
0.000722047
-0.00107298
0.000342696
-1.4485e-07
-5.87081e-05
0.00130821
-5.6452e-05
0.000521516
0.00018172
-0.00145973
-4.98924e-05
0.000817098
-0.00076011
-0.000601231
0.000539172
0.000608499
-0.000861326
0.00115492
0.00079853
-0.00170405
0.000190075
0.00122431
-7.31066e-05
-0.00116218
-0.000792677
2.62768e-06
0.00113003
1.34748e-05
-0.00108088
0.00126781
0.000980832
2.24886e-06
-0.00101045
-0.000871286
0.00121685
-0.000351118
0.00023217
-0.000566783
0.000923377
0.000171709
-0.00039091
-0.000151427
0.000106473
-0.00123502
0.000999038
0.00221545
-2.87563e-05
-0.000135663
0.000510708
-0.000474226
4.31859e-06
0.000985807
-0.000584413
0.00131993
0.00115434
-0.00191194
0.00077573
4.03887e-05
-0.000579663
-0.00119865
0.00110436
6.36062e-05
0.000351393
0.000555892
-0.00090733
0.00135763
-0.00104105
0.00012734
-6.13199e-05
-7.58701e-05
0.000219553
-0.000945669
0.000723239
-0.000182791
1.06965e-05
7.02816e-05
-0.000157296
-0.00083063
-0.000908183
0.00040556
0.000676476
-0.000435069
0.00185094
-0.00143071
-0.00165636
0.000602287
0.00104498
0.000814712
0.000301045
0.000531891
0.000292718
-0.00117131
0.000613552
-0.00144263
0.00162943
0.000492864
-0.000562794
-3.04282e-05
0.000710677
-0.00076353
6.96506e-05
-0.00180224
0.000103865
0.00161488
-0.000344087
-1.81249e-05
-3.0324e-05
0.000496565
-0.00036744
-0.000192188
0.000627183
-0.000283934
-0.00029329
-0.000856473
0.00094535
0.00123762
-0.000575601
0.00253161
-0.00132632
-0.00120668
0.00108778
0.00145101
0.000147464
-0.00101671
0.000499703
-0.000483474
-6.87305e-05
-0.00114841
0.00116185
-1.51718e-05
0.0010114
4.565e-06
3.55425e-05
0.000995844
8.78617e-05
-0.000274639
-0.0016034
6.56751e-05
0.00130099
0.000817423
0.000206559
-0.000430701
0.000585461
-0.000154851
-0.00120422
0.00118212
7.03104e-06
-0.00131602
-0.000659379
0.000600877
6.26236e-05
-0.000894924
0.000762975
0.000129741
-0.000816121
0.00102888
-0.000268993
-0.000196896
-0.00111832
-0.00114849
2.82186e-05
-0.000146464
-0.000346731
0.000480551
-0.000244771
0.000527113
-0.000564153
3.67301e-05
0.00133566
-0.000921307
0.000674759
-5.56729e-05
-0.000743551
-9.57028e-05
-0.00179322
0.0018924
-0.00101159
0.00117596
-0.000175628
0.000425267
0.000240042
-0.000665425
0.000574013
-8.1097e-05
-0.000183972
-0.00112077
0.001284
8.16575e-06
0.000159734
-0.000221187
5.14147e-07
0.0011151
5.634e-05
0.000553495
0.000906031
3.69974e-06
4.42495e-05
0.00050024
-0.000362486
0.00018342
-0.000765256
0.000504834
-0.000365748
9.89891e-06
-0.00138694
0.00137245
-0.000271692
-7.63008e-07
0.000163798
-0.00109611
0.000935096
0.000188031
0.00114323
0.00125032
-0.00131994
6.35493e-05
-0.00126473
0.00117259
7.64261e-05
-0.00089928
-0.000461071
0.0018046
-0.0013582
-0.000465507
-0.0010473
0.00110197
0.00085081
-0.00209111
0.000283339
0.00104706
-0.00091589
0.000197167
0.000717433
-4.02987e-08
5.70315e-05
0.00177324
-0.0018892
2.18284e-05
-0.00115252
0.0010856
-0.000734594
0.000541575
0.00116082
-0.00118429
-0.000122691
-6.54006e-05
-0.000662336
-0.000676151
0.000671161
2.47966e-05
-0.00124719
0.00113249
-0.000416826
-0.00104677
0.000965138
7.72368e-05
0.000154542
0.000993162
-0.00126204
-0.000923771
-0.000301354
-0.000141614
-0.000693533
-0.000905155
0.000817176
5.72971e-05
0.000354857
-0.000672131
0.000693409
-0.000575716
9.851e-06
-6.97155e-05
0.00108651
-0.00103408
0.000534699
0.000695758
0.000967549
8.61413e-06
0.000181942
0.00116766
0.000763038
-0.00192699
-0.000440005
-0.000186068
0.00057512
-0.000389132
-0.00136155
7.7022e-05
0.0012745
9.14965e-06
-0.000151561
0.000292557
0.000845929
-0.000756712
-9.08051e-05
0.00139817
-0.000682616
-0.000778274
-3.44903e-06
-0.00025521
0.000711027
-6.79692e-05
-0.000664283
-0.000719944
6.11018e-05
0.000697729
0.000213815
-0.000213815
-0.000347211
0.000985049
-0.000652396
-0.00110291
0.000250084
0.000361607
0.000118803
0.00109529
8.92281e-05
0.000813911
-5.9897e-05
-0.000836438
0.000117075
0.000700818
0.000567069
-0.00116449
-0.00119281
0.0010472
0.00013375
-0.000664928
4.61372e-05
-0.00177085
0.000108671
0.00165789
0.000625222
-0.000671645
0.00164649
-0.000342013
0.000105369
-0.000881023
0.000758194
-0.000116941
-0.00116681
-0.000110428
-0.000612552
-0.000141203
0.00146378
-0.00167578
0.00142335
0.000154138
0.00060214
-0.000606544
-0.000130901
0.000770698
-0.000220599
-0.000550463
0.0011283
-0.00133418
-0.000582376
0.000935958
4.76519e-05
0.000569926
0.00158268
-0.00162702
4.3211e-05
0.00037244
0.00108381
-0.00147761
-8.31511e-05
0.00126149
-0.00118144
-0.000842998
0.000604701
-0.000341556
-0.00102909
0.000725041
-5.05029e-05
0.000617338
0.000227112
0.000951313
-6.17634e-05
-0.000465976
0.00117869
0.0013383
-0.00199482
0.00114899
-0.00118803
0.000374034
-0.00019334
4.95801e-05
-0.000772646
0.000905068
-0.000364177
0.000141078
0.000602661
-0.000965628
1.76982e-05
-0.000622046
0.000611233
0.000234352
0.00061478
-5.29495e-05
-0.000561905
0.00137925
-0.00121222
0.000868534
0.000432278
-0.00130437
0.00103264
0.000192693
-0.000211708
2.54197e-05
0.000135286
0.0011073
-0.00107825
-3.31452e-05
0.0012841
-0.00125677
-5.70153e-05
-0.000562898
1.75398e-05
0.00119744
-0.000725295
-0.00019187
0.0006115
-0.000186375
0.00212661
-0.000281741
0.000694496
-0.000413298
-0.00109784
-0.000814107
0.000730095
5.92088e-05
0.000381422
-0.000411407
-0.000325683
0.00170371
0.000284204
-0.000839491
0.00175392
-0.00214274
0.000422461
0.00108626
-0.00128514
0.00116092
8.00608e-05
0.00115533
-0.000493629
-2.54266e-05
-6.77303e-06
-0.000160542
-0.0007562
-0.00164115
-0.000135751
-0.000832223
0.000341026
0.000490814
-8.32604e-05
0.00120712
0.00121343
7.73502e-05
0.00185803
-0.00195057
-0.00127815
0.000277699
-0.00116395
-0.000187113
0.00154733
-0.00152244
-0.000440913
0.000286
1.93773e-05
-3.98518e-05
0.0010134
-0.000754962
-6.12087e-05
0.000564759
-0.000267363
2.53355e-05
-0.0013208
0.00129495
-0.000550143
-0.00028242
-4.67407e-05
0.000820433
-0.000683287
0.000782778
-0.000303517
-0.000479655
0.000571357
-0.000515844
-5.55817e-05
-0.000284879
0.000905394
0.00230378
-0.000516826
0.000449899
-0.0012563
0.00103692
-0.000395499
0.00116182
-8.56906e-05
-0.00107996
-3.84046e-06
-0.000622611
-1.01374e-05
0.00030482
-0.00107426
0.00029534
0.000175877
5.53567e-05
-0.000114708
9.15314e-06
-0.00118676
3.64449e-05
0.000580059
-0.000945649
0.000365383
0.000182374
0.000117508
-0.000368354
0.000810815
-0.00108267
0.000160003
-0.00034346
-0.000417668
-7.41522e-05
0.00109101
-0.00104435
-0.000294434
-0.000213481
0.00187873
-0.000937246
-0.000998477
-0.000695195
0.000912118
-0.000557355
2.63299e-05
0.00137172
-3.23387e-05
0.000647869
0.000245485
-0.000540665
-0.00104436
0.000315291
0.000729022
-0.000165818
-0.000893792
0.000852874
0.000156679
8.14207e-05
0.000605354
-0.000217503
-0.000477758
0.00141675
-0.00139192
-0.000547427
0.00046325
-7.46532e-05
0.000738045
-8.57231e-05
-0.000787407
-1.6502e-05
0.000817127
-0.000429757
0.000405508
-0.00132175
0.000118584
0.00120268
-0.000870831
0.00137228
-0.000177402
-0.000537806
0.000518802
8.21247e-06
-0.00048596
-2.67797e-05
6.16151e-06
-0.000196255
0.000179529
0.000916725
-0.00110197
9.18475e-05
-1.17506e-05
0.00199057
-4.86065e-05
-0.0019341
-0.00116258
0.000268337
0.000893072
0.00165207
0.000132752
0.000350789
-0.000516701
0.000165863
-9.63521e-05
-0.000453998
-6.89246e-05
-0.000777322
0.000571149
0.0007501
-0.000822164
7.1203e-05
0.000442417
3.84226e-05
-0.00048085
-0.00116778
4.59644e-07
0.0011641
0.000825214
0.000297594
-0.000948342
-0.000755236
0.000683748
7.07762e-05
-0.00133971
0.00137991
-4.59767e-05
-0.000594634
0.000534183
-3.95677e-05
-0.000396481
0.000958157
0.000631706
-0.000689264
-0.000357422
0.00122272
-0.000232846
0.000897066
-0.000665556
2.07504e-05
0.000403799
0.000397625
6.61478e-05
0.000811443
-0.000157762
-0.000685675
-4.46571e-05
-0.00122344
0.0013719
-0.000177043
0.000714938
0.00225924
-0.000459832
0.00101497
-0.00066309
5.98698e-05
-0.00118221
0.00110084
0.000314643
-0.000513278
0.000198576
0.000478887
0.00020355
-0.00068256
0.000527685
0.000242539
0.00203579
0.000126646
0.000780966
0.000442249
-0.00123159
3.21033e-05
0.00112666
-9.93046e-05
0.000157564
-0.000781151
-2.16458e-05
3.28732e-06
-0.000354494
-0.000133952
0.000765188
0.000302249
-0.000319271
-2.09941e-05
5.53758e-05
0.000774983
-0.000547105
0.00132026
0.000793999
-0.000728123
0.000990708
-0.000656382
0.000678075
9.03127e-05
-0.00121827
-7.31402e-05
0.00151199
-0.00059612
-0.000921638
0.000951222
2.10246e-05
0.00104146
0.000365953
1.10545e-05
0.000177411
-0.000187092
-0.00112498
0.0010202
9.43269e-05
0.000313956
-0.000987219
0.000672048
-0.000586638
-8.56889e-05
0.000177256
3.10703e-05
3.46758e-06
-0.000172013
-0.000619756
0.000788863
-0.000340914
-0.000703197
-0.000523928
0.000875416
-0.00131132
7.48747e-05
-0.000442717
3.97877e-05
0.000402919
0.000524817
0.000334178
-0.000976461
0.000690206
0.000991114
-0.00119819
-0.000156328
0.00137822
-0.00123018
-0.000615638
-0.000192885
0.000808188
-0.00106768
0.000165064
0.000947806
0.00028874
5.60636e-07
-0.000697727
0.00116172
-5.87052e-05
0.00209397
-0.00010994
0.00110415
-0.00108084
6.55735e-05
-0.000766563
0.000779809
4.34304e-06
0.00125554
-0.00103065
0.00106621
-0.000101158
-0.000133427
8.39105e-06
0.00148963
0.000169902
-0.0011494
7.30112e-05
5.83964e-05
0.000947692
6.86353e-06
-0.000934817
-0.00058404
0.000339158
0.000612581
-0.00070268
-3.28661e-05
-0.00101232
3.28945e-06
3.26841e-05
-0.00108873
-0.000301566
0.000896886
-0.000599191
4.0628e-06
0.000126297
-0.00129729
0.00113534
-0.00105303
-8.47432e-05
0.00111322
0.000224156
0.00116587
-0.00027924
0.000674667
-0.000395565
-0.000167486
0.000167486
0.000136857
0.000534729
0.00117267
5.69092e-05
0.000512577
0.000246797
-0.000759448
-0.00110895
0.000912952
-0.000867202
0.0016403
-0.000135316
0.000574844
-0.000749471
-0.000215695
0.000994896
0.000397307
-0.00129206
0.000260897
-0.000543101
-0.000990532
0.00120934
-0.000217014
0.000103125
-0.00120241
0.00109432
0.000785775
-0.000385727
-0.000948916
0.00066228
-0.000936145
0.0010078
2.91465e-05
0.000738478
3.97658e-05
-9.41545e-07
-0.00052392
0.000541426
-4.44517e-05
-0.00136921
0.00117865
0.000178921
-4.1674e-05
4.1674e-05
-0.000321544
-0.000825806
-0.000338156
0.00129768
-0.000139579
-0.000301645
0.00014592
0.00129157
-0.000305789
-0.000994364
-0.00156512
2.32246e-05
0.000536268
0.0015341
-2.80667e-05
-0.00151759
-0.000237458
0.000598897
-0.000657703
0.000641977
0.00128962
-8.80806e-06
-0.000940174
0.000417404
0.0005224
-0.00139757
0.000159019
0.00123987
-0.000551712
0.000120937
-0.000570037
7.25632e-06
0.0027863
-0.0013127
-0.00147329
-0.00107171
-0.000540142
0.00162817
0.000766134
-6.13248e-05
-0.000201995
-4.76425e-05
0.000143892
0.00109782
-0.0010495
0.000230481
0.000815664
0.000113238
-0.0019204
0.00180639
-0.000107237
0.00130301
-0.00113722
-0.000206595
-0.000238629
0.000589371
-0.000827552
0.00269013
0.000935684
-0.000950929
2.53568e-05
-0.00104152
0.00121674
0.00130309
-0.000193171
-0.00111932
-0.000638799
0.000542191
-0.00141597
0.000186541
-0.000731831
-0.000933431
-0.000773793
0.00108561
-0.00102901
-0.00107971
2.9421e-05
-4.23175e-05
0.000418125
0.000345239
-0.000762338
-0.00012734
-0.000193882
0.000701476
-0.000508172
0.001681
0.000288673
-0.00225066
0.00012793
0.000183212
-0.000350021
0.000423269
-5.88196e-06
0.000196278
6.37076e-06
0.000328635
-0.000472935
-0.000599453
-5.99124e-05
-0.000817003
-0.000291799
0.000347982
2.68009e-05
-8.13449e-05
4.57793e-06
-0.00133289
-0.00112031
0.00115917
0.00122689
5.53536e-05
5.68595e-05
0.000708623
-0.000279142
0.000791482
-0.000112468
0.000631348
-0.000544517
0.000423469
0.00035889
-0.000138204
0.00116748
-0.000253179
0.000577664
-0.00032454
-0.00144968
0.000896705
0.000537339
0.00245328
0.000319105
0.00013964
-0.000468485
0.000328829
-0.00107229
-0.000133517
-2.05586e-05
0.00077851
-0.00110498
0.000325897
0.00012432
0.00112225
1.03366e-05
-9.56699e-06
0.000898481
-0.00109537
0.000167432
-0.000787792
0.000210649
-0.000562353
-0.000437849
0.000599491
-0.000161704
0.00030349
9.86968e-05
-0.000411882
0.00047656
0.000138114
-0.00120226
0.00201564
0.00125805
-0.00109881
-0.000376815
0.00040707
0.00122601
0.000663379
2.94028e-05
-6.00471e-05
0.000715195
0.00164823
-0.00154372
-0.00044111
0.000875625
0.000520955
1.96041e-05
-0.00120315
0.00113842
0.00127714
-0.00172266
-0.0010958
4.85399e-05
0.000757217
-0.000565726
0.00125122
-0.0012668
0.000744617
-0.000221926
-0.00186417
7.31872e-05
0.0011642
-0.00109498
-0.00018751
0.00109262
5.98049e-05
-0.00118956
0.00112808
5.65787e-05
-0.0011196
0.00105415
0.000896229
-9.58925e-05
-0.000851521
-0.000595281
0.000157374
-0.000948528
-0.000145333
0.00105385
-0.000404648
5.01543e-05
-0.000640333
0.00110857
8.54143e-05
0.000752349
-0.000943733
0.000313692
0.000178295
-0.000429021
-0.00084205
0.00127454
0.000410072
0.00016493
-0.000634214
-2.58764e-05
0.000603823
-0.00116527
0.00125732
-0.00026847
-0.000579325
0.000846169
-0.000333811
-9.98739e-05
-0.000552505
8.38801e-06
-0.00195919
0.00218007
-0.000223468
0.000584248
7.03862e-05
-3.03931e-05
-0.000494328
-0.00235149
-0.00081825
0.00107198
0.000797107
-0.000581072
-0.000216559
-8.43717e-06
-2.71332e-05
-3.56141e-05
3.24281e-05
-0.000681537
0.000609278
0.00082767
-3.91189e-06
0.000740752
-0.000123957
0.00112586
0.000949676
-0.000688772
-0.000169079
0.000708795
0.00032336
-0.00116065
-0.000497343
6.3455e-05
0.000411666
-0.000256876
-0.000629587
0.000966851
6.72921e-05
-6.1523e-05
8.36926e-06
-0.000377167
0.000529284
-4.50368e-05
-0.000732254
0.000753466
-3.88537e-05
0.000635811
-0.000321239
-4.95408e-06
0.00124338
0.00194111
2.21733e-05
-8.72023e-05
-0.000576856
-0.00036352
0.000739683
-0.000713387
-0.000298499
2.40869e-05
2.32928e-05
-0.00129537
-0.000475307
0.000735563
0.00188634
-0.000423813
-0.000244717
0.000310665
-0.000514878
0.000546104
0.000463464
0.000826236
-0.000341905
0.000940467
-0.000599519
-0.000110309
-0.000722448
0.000750916
-0.000103767
-0.000432965
7.7598e-05
-0.0012353
0.00112955
-0.000757899
0.00078572
-9.78568e-06
-0.000590451
-0.00117285
0.00174648
-0.000687754
-0.000382564
0.00104523
0.000189386
-0.00111954
-9.83999e-05
-4.20445e-05
0.000904369
-0.000932054
0.00130061
-0.00106637
-0.000256381
0.000755688
-0.000196814
-0.000559318
-0.000767334
0.00136202
-0.00131915
0.000253692
0.00106161
-0.00133234
8.68388e-05
0.00121306
0.000597153
0.000543289
2.62157e-05
0.00176623
-0.00184981
1.32292e-05
0.00142445
-0.0011972
-3.13964e-08
0.00141643
-0.000135035
3.76217e-05
4.95522e-06
-0.00177711
-9.91634e-05
0.00183539
-1.62836e-05
0.000379611
-9.0907e-05
4.73334e-05
0.00152982
-0.000816412
-0.000460958
-0.000512817
0.000972902
-4.23029e-05
-0.00140886
0.00145586
0.00112849
0.000102333
0.000162905
0.00118021
6.9086e-07
-0.00119062
0.00050674
-3.73975e-05
-0.000280649
-0.000255264
-0.00108451
0.000146933
0.00093714
0.00114993
-7.21444e-05
0.000682969
-8.41561e-06
-4.18056e-05
0.00037985
-0.000574166
0.000883575
-0.000539389
0.000507207
-0.000126823
-0.000301524
-0.000791482
-8.21185e-05
0.00104095
6.1079e-05
-4.93799e-06
-0.000777265
-2.01426e-05
-0.000851945
0.00103557
7.36116e-05
0.00116571
-0.000128421
0.00112428
-0.000464127
-0.000702462
0.000735775
-0.00134018
-0.000152274
0.000447504
-0.000295243
-0.000951906
0.000913707
-0.000667527
-0.00110351
0.000762691
-0.00242729
0.00231591
-6.16071e-05
0.000223873
0.000572686
0.00025328
-0.000378872
0.000176462
-0.00097822
0.00105889
-0.00114832
-0.000465775
-0.00020697
0.000619772
-0.000841856
0.000867305
-0.000105832
5.93573e-05
0.00197889
-2.64511e-05
0.00116336
-0.00115871
0.000117032
-0.000592975
0.000341459
0.00092496
1.7287e-05
0.000731828
-0.000611431
-0.000120895
0.00127342
-0.000573846
0.00100461
0.000155707