/*--------------------------------*- C++ -*----------------------------------*\
| =========                 |                                                 |
| \\      /  F ield         | OpenFOAM: The Open Source CFD Toolbox           |
|  \\    /   O peration     | Version:  v2012                                 |
|   \\  /    A nd           | Website:  www.openfoam.com                      |
|    \\/     M anipulation  |                                                 |
\*---------------------------------------------------------------------------*/
FoamFile
{
    version     2.0;
    format      ascii;
    class       volScalarField;
    location    "400";
    object      nut;
}
// * * * * * * * * * * * * * * * * * * * * * * * * * * * * * * * * * * * * * //

dimensions      [0 2 -1 0 0 0 0];


internalField   nonuniform List<scalar> 
10042
(
0.00672191
0.00672152
0.00331623
0.00317806
0.00783014
0.00672189
0.0138084
0.00129072
0.00476838
0.00672014
0.00588313
0.00687844
0.0067195
0.00671967
0.000892251
0.00672101
0.00672085
0.0067254
0.00672204
4.9194e-05
0.00671824
0.000825217
0.00674205
0.00671993
0.00672164
0.000761547
0.00672276
0.00128364
0.00435791
0.00157542
0.00672167
0.00119418
0.00672029
0.00188815
0.000840781
0.00671989
0.000820857
0.000699917
0.00671911
0.000468991
4.76323e-05
0.00100596
0.0144701
0.00260754
0.0076835
0.000468524
0.00174647
0.000421559
0.000831412
0.000552824
0.00672298
0.00291739
0.000954405
0.00195786
0.000852227
0.00672173
0.00433931
0.00171987
0.00192341
0.00114475
0.00672147
0.00672082
0.000792516
0.00349757
0.00176957
0.00194889
0.00254248
7.84537e-05
0.0122002
0.0039707
0.00212494
5.02441e-05
0.00247061
0.000259605
0.00277173
0.00672083
0.00624676
0.00672149
0.000320934
0.0149088
0.000812477
0.00646841
0.00284942
0.00118241
0.00253783
0.00672443
0.00672407
0.000138562
0.0034857
0.00672303
0.00217399
0.0061565
0.00119283
0.00327661
0.00173288
0.00353106
0.00671974
0.00373495
0.000491815
0.00427397
0.00672622
0.00018287
0.0016286
0.00672417
0.00137971
0.000184557
0.006724
0.00671985
0.00671837
0.00673638
0.00671839
0.0052639
0.00079303
0.0103307
0.00197995
0.00651699
0.00672512
0.00672158
0.00333197
0.00646526
0.00360908
0.000427384
0.00241248
0.00672227
0.00018834
0.00241083
0.000777884
0.000732561
0.000214354
0.00672354
0.000303458
0.00286747
0.00802859
0.000377573
0.00403167
0.00023492
0.00505697
0.00212586
0.000412371
0.000129038
0.00125273
0.00672549
0.00147181
0.000194381
0.00423223
0.00673526
0.000263292
0.00675939
0.00351328
0.00070573
0.00434324
0.00672535
0.0166475
0.00775379
0.00672378
0.00671929
0.00126814
0.00672078
0.000229318
0.000662226
0.0043508
0.000324557
0.00672142
0.00438157
0.00238244
0.00276614
0.000118963
0.000635922
0.00104868
0.00811694
0.00229614
0.00671987
0.00497596
4.25874e-05
0.000205507
0.0163775
0.00187058
0.00253131
6.58695e-05
0.000482883
0.00117615
0.00174247
0.00239295
0.00071994
0.00106469
0.00602521
0.000400653
0.00247462
0.00503201
0.00121266
3.6311e-05
0.00139451
0.0171309
0.00267253
0.00035277
0.000853376
0.00101544
0.00672248
0.00671857
0.00106529
0.000197117
0.00205029
0.00540986
4.66667e-05
0.0022539
0.00673628
4.21674e-05
0.00672327
0.00672545
0.00672505
0.000363905
0.00680103
0.00013932
6.20326e-05
0.00134574
0.000338914
0.00322288
0.00672011
0.000274599
0.00672546
0.000751184
0.00122171
9.66933e-05
0.000688425
0.00061727
0.000747498
0.000478623
0.00654537
0.000294336
0.00197438
0.00449709
5.55993e-05
0.00671957
0.0020768
0.0032998
0.000665983
0.00673617
0.00672361
0.00150883
0.00117953
0.00672159
0.00242781
0.00248595
0.000715789
0.00673048
0.0067214
0.00672276
0.00131599
0.00225616
0.00672563
0.00671942
0.00399987
0.000803615
0.000116083
0.000335228
0.00320072
0.000196608
0.0002117
0.000849689
0.00043659
0.0115998
0.00160952
0.00672353
0.00672583
0.00118343
0.00673423
0.000836472
0.00177854
0.00672419
0.00672526
0.000201287
0.00223186
7.36283e-05
0.000206878
0.000147951
0.00110735
0.00116452
0.00673133
0.00116096
0.00368107
0.00047941
0.00403143
0.000804299
0.00903778
0.00673473
0.00362688
0.0111974
0.000412962
0.0025407
0.00672152
0.000878037
0.0166736
0.000368913
0.00020885
0.00672333
0.00671912
0.00549099
0.0044628
0.000297764
0.00577245
0.00672139
0.00672109
0.00315516
0.000675593
0.000819594
0.000158408
0.00790298
0.00107826
0.00697241
0.00672749
0.00119272
0.00672263
0.00202531
0.000193862
0.00017327
0.0013763
0.00672233
0.00172788
0.00358484
0.000793029
0.000749613
0.00672506
0.000409532
0.00671796
0.00673396
0.00252395
0.000161475
0.00672607
0.00126177
0.00305609
0.000878266
0.00486373
0.00672898
0.0067236
0.00671924
0.00371713
0.000299183
0.000356449
0.000219996
0.000938354
0.000660718
0.000783172
0.00292248
0.00671874
0.00220589
0.00672563
0.000212217
0.00398228
0.00198375
0.000509669
0.00553207
0.000711574
0.00111028
0.00048284
0.00351262
0.000626461
0.000227427
0.000415919
0.00120651
0.00672294
0.00248894
0.000257589
0.00219292
0.000310784
0.00671939
0.00671935
0.00671934
0.000714915
0.000260713
0.00146191
0.00672521
0.00114527
0.00672625
0.00672572
5.01524e-05
0.0067225
0.00674565
0.00564137
0.00671816
0.00432839
7.39316e-05
0.000228201
0.0196508
0.00224691
0.000529381
4.63642e-05
0.00672327
0.000516893
0.00672625
0.00185947
0.000874171
0.00672156
0.000847548
4.75714e-05
0.00679084
0.00671834
0.000116948
3.89912e-05
0.00197954
0.00675518
0.00128636
0.000190498
0.00672032
8.05613e-05
0.000199178
0.00672589
0.00672556
0.00673563
0.00672518
0.00672786
0.0067331
0.00484928
0.0024455
0.00174331
0.00883253
0.00672003
0.00617583
0.000367267
0.00291408
0.00478745
0.000357573
0.00119308
0.00674703
0.0067519
9.75483e-05
0.00220346
0.000513948
0.00162003
0.00707358
0.00140525
0.00103902
0.000913284
0.00671894
0.00585551
0.000259503
0.00671918
0.000512338
0.00508513
0.00369212
0.00150391
0.00104093
0.00672564
0.00673456
0.00179767
0.00672423
0.000922997
0.00114721
0.00673304
0.00856389
0.0192446
0.00671832
0.00194833
0.00141637
0.00671893
0.00672056
0.00672311
0.00252933
0.00672204
0.00677305
0.000436415
0.00143346
0.000322216
0.00672565
0.000498865
0.000348309
0.000655557
0.00672784
0.00672234
0.000443299
0.00239853
0.00671912
0.000342903
0.00405444
0.00673205
0.00108733
0.00672495
0.000215277
0.00672466
0.00671931
0.00382193
0.00671736
0.00246999
0.00672154
0.00169284
0.000453258
0.00671825
0.00389877
0.000223262
0.00144814
0.0143836
0.00160608
0.00672598
0.00672591
0.000169289
0.00427101
0.00672599
0.00671982
0.00225561
0.000426024
0.0134355
0.00672423
0.000220462
2.32536e-05
0.000658232
0.00672548
0.0067232
0.00317973
0.00672421
0.00672521
0.0168798
0.00410993
0.00672166
0.000723793
0.000879891
0.000872675
0.00256579
0.00671943
0.000409599
9.68258e-05
4.44243e-05
0.00674391
0.00300929
0.00302167
0.00671825
0.0117109
0.000435779
0.00247594
0.00334097
0.00673866
0.00283556
0.00139622
0.000972957
0.00672285
0.00149912
2.6414e-05
5.30439e-05
0.0002113
0.00672069
0.00404188
0.000525228
0.000291867
0.0133587
0.00104536
0.000673088
0.000529854
0.0067243
0.00128647
0.00226665
0.00672408
0.00507434
0.00672189
0.00672633
0.00046431
0.00672437
0.000646699
0.00171598
0.000386534
0.000482596
0.00672508
0.00174589
0.000851284
0.000624645
0.000220046
9.61724e-05
0.00672598
0.000564517
0.0013837
0.0035044
0.00672223
0.00205831
0.00672152
0.000630464
0.000306434
0.000156902
0.00672287
0.00152235
0.00671965
0.00672788
5.5384e-05
0.00671859
0.00113006
0.000667258
0.00672439
0.000285859
0.000449405
0.00672138
0.00542302
0.000557149
0.00672438
0.000383008
0.00265809
0.00672566
0.00319749
0.006722
0.00672626
0.00107974
0.002669
2.89415e-05
0.00127088
0.00672278
0.00198765
0.000400112
0.000641722
0.00672249
0.00134784
0.00441491
0.000697191
0.00381797
0.000474294
0.0067487
0.00102241
0.00674801
0.00671915
0.00838396
0.00673503
6.33388e-05
0.00672334
0.00200622
0.00671758
0.000673129
0.00672171
0.000520621
0.0024276
0.000337255
0.00672554
0.0125698
0.00675988
0.000917856
0.00672573
0.00300204
0.00671953
0.0010895
0.00672155
5.067e-05
0.000398127
0.000612719
0.00132899
0.000238076
0.00524064
0.000229514
0.00045774
0.00672012
0.000362572
8.91652e-05
0.0143628
0.000503617
0.00103078
0.000764264
0.0021247
0.00672481
0.0012793
0.00108996
0.000722471
0.00672108
0.001146
0.000284654
0.00672547
0.00672775
0.00129749
0.0111439
0.000962185
0.000529248
0.000515038
0.00672526
0.0154142
0.00672168
0.00672149
0.00163058
0.00409511
0.0026713
0.000430359
0.0105492
0.00672058
0.000257927
0.00280987
0.000240296
0.000810792
0.000423729
0.00030976
0.000238711
0.00304707
0.00476195
0.000326906
0.00199889
0.00546721
0.000410804
0.0129191
0.00672604
0.00671901
0.0035599
0.00117076
0.00671945
0.00321991
0.000161334
0.00267642
0.00360645
0.00672027
0.00767065
0.0183285
0.00581897
0.00672681
0.00672283
0.00672496
0.000334232
0.000429263
5.43591e-05
0.00134534
0.00671901
0.00461572
0.00115127
0.00672155
0.000692477
0.00128978
0.00837465
0.00672052
0.00672138
0.000268525
0.00580397
0.000735752
9.92668e-05
0.00173138
0.000223116
0.0137293
0.00210679
0.00672629
0.00935016
0.00381058
0.000280561
0.00339809
0.00100992
4.628e-05
0.000552027
0.00330186
0.00671944
0.00671853
7.38253e-05
0.00123357
6.72183e-05
0.00672567
0.00627055
0.000276325
0.00672306
0.00672062
5.77855e-05
0.00672318
0.00671761
0.000709154
0.0109286
0.0154146
0.00917958
0.00264112
0.000444623
0.000253738
0.00671892
0.00675986
0.00672391
7.66498e-05
0.00672418
0.00672287
0.000432033
0.00262755
0.000274527
0.00672186
0.00672245
0.00672059
0.006723
0.000392607
0.006724
0.0041875
0.000506863
0.00012904
3.4016e-05
0.00672438
0.000266019
0.0203783
0.0145273
0.00111972
0.00266011
0.00154981
0.00672577
0.00671951
0.00131314
0.00091603
0.0195019
0.00106137
0.00672231
0.0067242
0.0176233
0.000257958
0.00284584
0.00672269
0.00672744
0.000317069
0.00671747
0.00672666
0.000748378
0.00123295
0.00672414
0.00459132
2.97613e-05
0.00373241
0.00127721
0.00672143
0.0016789
0.000191006
0.0067242
0.00109344
0.00672175
0.00111406
2.84748e-05
0.00672626
4.14247e-05
0.000753779
0.0172748
0.0067508
0.00115981
0.000782139
0.000302773
0.000115229
0.00146586
0.00170079
0.00669071
0.00141956
0.00675081
0.00011497
0.00672186
0.00672526
0.00672824
0.00672504
0.000385407
0.0067263
0.00672627
9.33719e-05
0.000519488
0.00686457
0.000319743
0.00122258
0.00967253
0.00162543
3.66366e-05
0.00672608
0.000470411
0.000268009
0.013905
0.00120424
0.0112462
0.0067257
0.00128556
0.00672045
0.00228366
0.0043389
0.00037332
0.000171994
0.000580491
0.00279925
0.00672228
1.92532e-05
0.00122574
0.00540915
0.000278972
0.000663229
0.013705
0.00672058
0.000437709
0.000141752
0.0010688
0.000152301
0.00672605
0.00671893
0.00672604
5.31829e-05
0.00672292
0.0067201
0.00672604
0.00672051
0.0067193
0.00672017
0.00188699
0.00672197
0.00672314
0.00144696
0.000681355
0.000323634
0.00672208
0.0159103
0.00275641
0.000248345
0.000213781
0.0107196
0.000554914
0.00129602
0.00138776
0.000610162
5.53529e-05
0.0128724
0.000321873
0.00672405
0.00672037
0.00124125
0.000189372
0.00321459
0.0100811
0.00333803
0.000431617
0.0134668
0.000539485
0.00173634
0.00583439
0.0042643
0.000965646
0.0067222
0.00672553
0.00138111
0.00671897
0.00672379
0.000230625
0.00092822
0.0067219
0.00362384
0.00153314
0.000268313
0.000488857
0.00672338
0.000822892
0.000326675
0.00155025
0.00672086
0.00966059
0.00173157
0.00558167
4.91414e-05
0.000874877
0.00340873
0.000898716
0.0211802
0.00481948
0.00672816
0.00103485
0.00055496
0.00672749
0.00336247
0.00672608
0.000926423
0.00672144
0.00672172
0.00189218
0.000127494
5.43522e-05
0.00672467
0.00378531
0.0067218
0.00414469
0.00144417
0.00671844
0.000302911
0.000470595
0.00279439
0.00672101
0.00672427
0.00671943
0.00180303
0.0110472
0.000804154
0.00675581
0.00672266
0.000157094
0.0135833
0.00672145
0.00671955
0.00672142
0.00675115
0.00110646
0.00057672
0.00675801
0.00672081
0.000699944
9.01379e-05
0.00672333
0.00672603
0.000735436
0.0028081
0.00103404
0.00162541
0.00996205
0.000400651
0.00672177
0.00081619
0.00447609
0.000498485
0.000388497
0.000870741
0.000311721
0.00672574
0.00308811
0.00103263
0.000445077
0.00532372
0.00490625
0.00672509
0.00210755
5.92478e-05
9.81537e-05
0.00142236
0.00183654
0.00671942
0.000475031
0.00288383
0.00286836
0.0087938
0.000918213
0.00254328
0.00672201
4.41377e-05
0.000591763
0.00671935
0.00223177
0.000322474
0.00436786
0.00672212
0.0067284
0.000375812
0.00134321
0.00111102
0.00056935
0.00178659
0.00672342
0.0216121
0.00671848
5.70566e-05
0.0067232
0.00116019
0.000233698
0.00251796
0.00672173
0.00296271
0.00136396
0.00189021
0.0067229
0.00672252
4.53534e-05
0.000560146
0.000380959
0.0119153
0.000216139
0.0067244
0.000252229
0.00395707
0.00573432
0.00672348
0.00249953
0.00677302
0.00158985
0.00672439
0.0016771
0.00672315
0.00066561
0.0243049
0.000494527
0.000304541
0.00378652
0.00672257
0.000444188
0.000585013
0.00671944
0.000872733
0.0061434
0.013954
0.00911949
0.00672304
0.00106884
0.00672464
0.00191659
0.00672339
0.00022661
0.00672268
0.00378943
0.00676038
0.00175882
0.00126893
0.00672573
0.00672098
0.002983
0.00155489
0.000372257
0.00356567
0.0011189
0.00142848
0.000248814
0.00354211
0.000517618
0.00139347
0.00312075
0.000922426
0.000832288
0.00672592
0.00671852
0.000500542
0.00475533
0.000153019
0.00129303
0.000100825
0.00215641
0.0067213
0.00466321
0.00053554
0.000281258
0.00672333
0.00113367
0.000381273
0.00151253
0.00672422
0.000899356
0.00672442
0.00121607
5.7297e-05
0.000835287
0.00267327
0.000977232
0.000670081
0.000299333
0.00027144
0.000767586
0.00154023
0.000885836
0.00041323
0.00270854
0.00160306
0.00385945
0.00355507
0.000853943
0.00531181
4.50231e-05
0.00241958
0.00272202
0.00015291
0.00672235
0.0004835
0.00116269
0.000665453
0.00388775
0.000165241
0.000918643
0.00671891
0.000717561
0.00997442
0.000144781
0.00463622
0.000891053
0.00671977
0.00466966
0.00195652
0.00672146
0.00671752
0.000431535
0.00294145
0.000994913
0.00479987
0.00672043
0.0171593
0.0033403
0.00673086
0.00092597
0.00670337
0.00675779
0.00672522
0.00213493
0.00200423
0.00672157
0.00674243
0.00040152
0.00152467
0.000874578
0.00672951
0.000293573
0.00133506
0.00503548
0.00131847
0.00672223
0.00671765
8.39637e-05
0.00033602
0.00059009
0.000938546
0.000323108
0.000361113
0.000416567
0.000384006
0.00108349
0.0127638
0.00391223
0.00267652
0.00671844
0.00672481
0.000260854
0.00672077
0.00771373
0.00734074
0.00327111
0.00672161
0.000875432
0.000274075
0.00673457
7.10263e-05
0.000205274
0.000244574
0.000445054
0.0107653
0.000372927
0.000384429
0.0213046
0.000529398
0.00168422
0.000684442
0.00543867
0.0142569
0.00167935
0.000367387
0.00672523
0.000688867
0.00672142
0.00774934
0.0135407
0.00672407
0.00274066
0.000306281
0.000712582
0.000442789
0.000281534
0.00673008
0.0109408
0.00289326
0.00736001
0.0058123
0.00672411
0.00392911
0.00671993
0.000964491
0.00123868
0.000492892
0.000385495
0.0067224
0.00672128
0.000891965
0.00205272
0.00672031
0.000624025
0.00672144
0.00672171
0.00102128
0.000315114
0.00672137
0.0121849
0.00190758
0.00672572
0.000890444
0.00036701
0.00672596
0.00672575
0.000305379
0.000151213
0.00418629
0.000861696
0.000341844
0.000360352
0.00987597
0.00672536
0.000459191
0.013426
0.00825413
0.00672199
0.00362277
0.000453936
0.000548026
0.000285635
0.00164852
0.0114657
0.000428498
0.000283707
0.00232242
0.00671941
0.00270501
0.000865061
0.00672329
0.00672572
0.00869679
0.00672644
0.00674986
0.00501437
0.00134329
0.00672392
0.000350097
0.00211536
0.00144062
0.00672473
0.000688782
0.000805693
0.000220158
0.000568807
0.00169882
0.000305978
0.00673309
0.00471779
0.00352183
0.00672586
0.000201391
0.000341354
0.00326796
0.00273206
0.00672229
0.00671813
0.000305406
0.00672216
0.000145714
0.00137814
0.00672263
0.0130455
0.00592595
0.00672218
0.0127324
0.00028401
0.000459728
0.00672553
0.00673219
0.00223127
0.000311845
0.00671869
0.00672983
0.00672788
0.000785817
0.00672551
0.000458801
0.0067226
0.00672173
0.00250759
0.023215
0.00896999
0.00674576
0.00277202
0.000107572
5.57489e-05
0.000665655
0.0164285
0.0116694
0.00545816
0.00672264
0.00205915
0.00107113
0.02013
0.00672131
0.00672605
0.000150058
0.000266748
0.00672428
0.00672658
6.78233e-05
0.00672604
0.00672196
0.000198627
0.000376978
0.00847854
0.00671951
0.000480498
0.000174503
0.000470851
0.000989124
0.00051635
0.00672005
0.00681468
6.38274e-05
0.000645849
0.00672074
0.000815495
0.00573038
0.00673022
0.00673287
0.00673226
0.000155149
0.00671966
0.00672148
0.00671819
0.0067199
0.000327864
0.00853755
0.00185213
0.00310388
0.0115498
0.00980078
0.00672111
0.00357353
0.00672072
0.00672666
0.00672252
0.00672324
0.00672112
0.00672143
0.00671799
0.000719998
0.00151477
0.000288153
0.000613655
0.000797184
0.00672091
0.0010147
0.000419399
0.00193029
0.00672248
0.000255039
0.000409857
0.000400909
0.000525711
0.00674407
0.00623478
0.00134983
0.00672775
0.00345855
0.000738639
0.000516408
0.00112662
0.000615266
0.00672169
0.00672224
0.000288137
0.000550671
0.000978405
0.00764675
0.00672205
0.00672012
0.000337492
0.000295698
0.000699788
0.00032665
0.00146789
0.000152205
0.000692513
0.000286958
0.00118963
0.00412568
0.00596715
0.00671912
0.00672162
0.00672203
0.0012493
0.000512351
0.000557731
0.00274988
0.00672163
0.0116044
0.00384801
0.00141405
0.000213729
0.00186779
0.000277777
0.00284738
0.00671863
0.000372982
0.00676197
2.0831e-05
0.00672395
0.000377538
0.00672512
0.000104534
0.000632866
0.00577249
0.00671923
0.000388977
0.00678363
0.00143062
0.000676367
0.00671959
0.00123246
0.0122049
0.000322048
0.00540096
0.000376421
0.0102084
0.00035398
0.00672142
0.000218684
0.000424405
0.0114087
0.00672183
0.00672001
0.00161706
0.000300335
0.00343988
0.00189493
0.0018487
0.00227982
0.0226785
0.00378878
0.00758099
0.000144088
0.00671928
0.000321895
0.000498784
0.0229206
0.000512932
0.00489133
2.54797e-05
0.0067217
0.00671895
0.00672167
0.000222331
0.000385837
0.00393466
0.00051237
0.00672223
0.00672546
0.00671739
0.00585144
0.00672607
0.00671639
0.00252087
0.000484356
0.0011937
0.0041555
0.0212355
0.000437055
0.000955268
0.00295311
0.000141915
0.0014089
0.000939161
0.000796624
0.00541356
0.000243322
0.000391794
0.00674094
0.000802008
0.00057127
0.000942202
0.00150121
0.00952053
0.00672508
0.000462405
0.00672209
0.00672395
0.000854893
0.000402455
0.00128358
0.00102198
0.00672243
0.000241239
0.000399052
0.000420948
0.000480684
0.00672627
0.006719
0.000389671
0.000425532
0.00671987
0.000491584
0.00672062
0.0067208
0.00745135
0.00672819
0.00856326
0.00380789
0.000443532
0.00041365
0.00322114
0.000843479
0.000479277
0.000314944
0.00296112
0.000437545
0.00192338
0.00672556
0.00409975
0.00567105
0.0169959
0.00672249
0.00672856
0.00677945
0.00549868
0.000348853
0.016195
0.00309254
2.51159e-05
0.00672463
0.00671733
0.00671973
0.000899361
0.00136023
0.000849167
0.00672204
0.00265183
0.00376661
0.00672532
0.00672544
0.000587582
0.00032825
0.00676387
0.00337068
0.00015199
0.000308335
0.00672305
0.00633179
0.000318084
0.00596881
0.00675802
0.00293609
0.000380941
0.0056028
0.000425276
0.000540599
0.00168359
0.00632569
0.000443598
0.00672281
6.04044e-05
0.000480219
0.00147941
0.00310857
0.000342167
0.00671964
0.00672638
0.00242668
0.000290175
0.000378595
0.0015286
0.000428656
0.00675765
0.0117985
0.000496194
0.00552454
0.0194312
0.0220034
0.00102371
0.00033864
0.00041947
0.00566827
0.00813686
0.00194459
0.000878596
0.000560037
0.00172493
0.00672052
0.000148098
0.00672055
0.00671796
0.0067202
0.000206227
0.0041034
0.00671854
0.00576672
0.0067199
0.00382503
0.00672481
0.000475059
0.000132742
0.00148667
0.00672525
0.000225481
0.00175947
0.00672336
0.00672292
0.00677509
0.00672204
0.00671912
0.000816442
0.000373972
0.00672456
0.000706898
0.000139838
0.00510795
0.000488503
0.0150055
0.00147247
0.00673473
0.00672207
6.63808e-05
0.00672423
0.00672403
0.000845681
0.000690801
0.0042743
0.000389708
0.0067181
0.00671745
0.00671946
0.000118942
0.00688068
0.00594463
0.000386443
0.000127776
0.00186615
0.000477481
0.00672267
0.00022006
0.000799048
0.00174896
8.60453e-05
0.000721495
0.00868258
0.00672418
0.00672002
0.0120519
6.41592e-05
0.000875419
0.000519792
6.63676e-05
0.000624425
0.000160097
2.74469e-05
0.000877431
0.00123361
0.00353143
0.000528692
0.000896099
0.000839976
0.000196037
0.00576645
0.00672628
0.00203786
0.00672041
8.24717e-05
0.006718
0.00202941
0.000622985
0.00107633
0.00108278
5.69036e-05
0.00026331
0.0067187
0.00184047
7.3102e-05
0.000481583
0.00672186
0.00139276
9.16504e-05
0.000328214
0.000277808
0.000391396
0.00172554
0.000135461
0.00672201
0.00672397
0.0123278
7.82408e-05
0.00143376
0.000252095
0.0090208
0.00188198
0.00143242
0.00671966
0.000450113
0.00672066
0.00672198
0.000168218
0.00210605
0.0068686
0.00578112
0.000476555
0.00671614
0.000559856
0.000943579
0.000140654
0.000198676
0.00196202
0.00671884
6.64602e-05
0.000416458
0.00672131
0.000559118
0.00224493
0.0111977
0.00626585
0.000500354
0.000236822
0.000428762
0.00672578
5.76672e-05
0.000194732
0.000386386
0.000591368
0.00671999
0.011153
0.00673122
0.00108406
0.00171695
0.000841943
0.00674793
0.00676446
0.00258548
0.000323748
0.0060784
0.00671937
0.00435743
0.00345708
0.00672087
0.00239099
0.000298201
0.00413669
0.0219236
0.000904602
0.00672155
0.000277452
0.00127087
0.00765169
0.00672608
4.31721e-05
0.00673481
0.00672184
0.00201256
0.000470438
0.0175538
0.00672359
0.00695703
0.0021447
0.00672548
0.00126331
0.0111223
0.000951732
0.000134569
0.00922641
0.00672606
0.00190669
0.00180154
0.00653116
0.00531446
0.00672192
0.000685231
0.00106372
0.00205184
0.00672239
0.00671738
0.00182792
0.000929032
0.00672405
2.81137e-05
0.00672
0.00185126
0.000308435
0.00188851
6.12093e-05
0.0123175
0.00253054
0.000108163
0.000915768
5.07204e-05
0.000331488
0.00417975
0.00460013
0.00117234
0.00103741
7.31454e-05
0.0067206
0.000587967
0.0067189
0.00671977
0.0218134
0.00672468
0.00329067
0.00674143
0.000809118
0.000478264
0.00671669
0.00672551
0.0109612
0.0110222
0.000261115
0.00672209
0.000804528
0.000537858
0.00672228
0.000642283
0.000287548
0.00055658
0.00688447
0.00433905
0.00156118
0.00672118
0.00672242
0.00671885
0.00672382
0.00202196
0.00102683
0.000600789
0.0067221
0.00672349
0.000599819
0.00169111
0.00674292
0.000364462
0.00676096
0.000294826
0.000391541
0.0120701
0.000495477
0.00012228
0.000121291
0.00674614
0.00672375
0.000294706
0.000700268
0.0067222
0.000279987
0.00673002
0.00672207
0.00672569
0.000418276
6.69303e-05
0.000370076
4.69217e-05
0.000845011
0.000504891
0.00342131
0.00362911
0.000919734
0.00121591
0.00672131
0.00482521
0.000442532
0.0088683
0.000278939
0.00798623
0.001141
0.00588744
0.00829975
0.00302228
0.0121358
0.00783075
0.00674952
0.000521888
0.000724209
0.000743049
0.000252663
0.0044371
0.0103725
0.000961583
5.94564e-05
0.00203436
0.00447744
0.000873801
0.000979859
0.006723
0.000167357
0.00427913
0.00196499
0.00126067
0.00954773
0.000135493
0.000101122
0.00672577
0.00537191
0.00279049
6.1617e-05
0.00337371
0.000918567
0.00671882
0.00037031
0.000359679
0.000538561
0.00829017
0.0083884
0.0067498
0.000281995
0.00672238
0.00183328
7.18763e-05
0.0010711
0.00119262
0.000263908
0.00671773
0.00047236
0.00212133
0.0133789
0.00121402
0.00672048
0.00671906
0.000100809
0.000262038
0.000222627
0.0116868
0.000468327
0.000323653
0.00676202
0.0101696
0.000362548
0.000464363
6.29868e-05
0.00115889
0.00632581
0.0042992
0.00379244
0.00557132
0.00398137
0.00230171
0.000362656
0.000493812
0.00435847
0.00330001
0.000287226
0.0067203
0.0113126
0.00672289
0.00672171
0.00671819
0.000605132
0.00672036
0.00792689
9.30198e-05
0.000808531
0.006298
0.000380959
0.000139563
0.000275414
0.0035343
0.00211622
0.000863154
0.000267342
8.71782e-05
0.00473683
0.00676487
0.00671884
0.00796594
0.00672191
0.00382413
0.000950403
0.0015681
0.00209694
0.00672049
0.00919117
0.00672366
0.00672085
0.0028195
0.0026567
0.00102892
0.000891368
0.00671619
0.000315592
0.000656503
0.0132285
0.00454324
0.0114281
0.00672603
0.0122296
0.00211347
0.0108014
0.000391686
0.00266863
0.00672572
0.0119786
0.00325739
0.00105578
0.00672257
0.000815987
0.0112072
0.00671833
0.00672057
0.00636443
0.00672554
0.00597467
0.00830355
0.00413534
0.00671912
0.00893671
0.0083336
0.00672142
0.0138802
0.00672553
0.0105897
0.0116219
0.000436328
9.1645e-05
2.57519e-05
6.80136e-05
0.00716969
0.000444827
0.00296474
0.0067323
0.00671942
0.0118519
0.00809176
0.0012303
0.000393164
0.00732908
0.00662466
0.00507299
0.00391598
0.00361624
0.00674474
0.00190053
0.000439336
0.00532493
0.00972119
0.00672535
0.00659415
0.0158296
0.00584084
0.00672228
0.000331339
0.00672324
0.0068136
0.00671798
0.0183552
0.000313335
0.00672044
0.00672274
0.0255083
0.00355214
0.000245089
0.0067204
0.00955688
0.00672189
0.000103501
0.00291597
0.00900043
0.0109705
0.000476
0.000432279
0.000402005
0.00672195
0.000146636
0.0106301
0.00491454
0.000333562
0.006723
0.000396071
0.00672185
0.0111787
0.0268109
6.67388e-05
0.00739168
0.00977121
0.000167438
0.00217667
9.07203e-05
0.00671856
0.00466015
0.000580941
0.000251865
0.0041686
0.000308286
0.000292204
0.000343273
0.00209938
0.00373036
0.00672387
0.00236449
0.000308614
0.00844063
0.0168885
0.000412325
0.00673258
0.000155619
0.00614525
0.000267254
0.00392032
0.00672175
0.00172155
0.00178471
0.00492904
0.00510883
0.000434165
0.00174207
0.00672248
0.000417169
0.000308173
0.000318549
0.00672062
0.00672181
0.000296604
0.000318713
0.00672608
0.000442261
0.000316978
0.000309638
0.00676966
0.000150642
0.000375512
0.000245495
0.0126994
0.00071437
0.00561005
0.00672569
0.0068332
0.00672607
0.00311015
0.00672221
0.000307694
4.33071e-05
0.000473567
0.000973701
0.000462518
0.00672368
0.000532687
0.00221356
0.000293038
0.000301586
0.00435242
0.000523775
0.00445079
0.00671743
0.00148753
0.00672236
0.000143356
0.00674363
8.20629e-05
0.000336841
0.000433348
0.00680564
0.00468894
0.00685471
0.00672458
0.00671947
0.0125149
0.0046307
0.00672629
0.00672368
0.013877
0.000318721
0.000529268
0.000527119
0.00093553
0.00672138
0.000487063
0.00671972
0.000152038
0.00672608
0.00027659
0.00538161
0.00321904
0.0012275
0.000936303
0.00121336
0.000352518
0.000570811
0.000109054
0.000326318
0.000396145
0.000322325
0.000311462
0.00443833
0.00655458
0.00067124
0.000538431
0.00306801
0.00201215
0.000106937
0.00672244
0.000149835
0.000777202
0.000329508
3.22241e-05
0.000207311
0.000147696
0.000152525
0.000151722
0.00672473
0.000565512
0.00672221
0.000177972
0.000252389
0.0131706
0.00672626
0.000284008
0.000477726
0.0111943
0.000252445
0.000406599
0.0067224
0.000299083
0.00672299
0.000380109
0.00130708
0.0134116
0.00673276
0.000518948
0.00672072
0.000300244
0.000430629
0.000461614
0.00499129
0.00672157
0.00084545
0.000146148
0.00672073
0.0054593
0.01083
0.000344762
0.000544633
0.000320832
0.00412561
0.0043374
0.00693745
0.000177695
0.00663825
0.00215996
0.000572425
0.00459522
0.000226448
0.00485758
0.0123193
0.000217211
0.000356896
0.000310939
0.0014772
0.00672801
0.00401798
0.000141356
7.85222e-05
0.000448326
0.00600747
0.00672367
0.000905299
0.000438824
0.00998326
0.00674743
0.000396212
0.00671719
0.0127971
0.00671888
0.00672185
0.000178668
0.00671948
0.00176218
0.000283505
0.00225043
0.00173483
0.00499564
0.000304929
0.000632977
0.022641
0.0067219
0.00211371
0.00671747
0.000328509
0.0067224
0.000364442
0.000481709
0.0137818
0.00856227
4.66966e-05
2.79187e-05
0.000272912
0.000341128
0.000117457
0.000424614
0.00672528
0.00672241
0.0110847
0.000120897
0.00672164
0.00672004
0.00671921
0.000832872
0.000185276
0.00672518
0.000292853
0.000329708
0.000383721
0.000104171
0.00671982
0.00672507
0.0191915
0.00144336
0.00675634
0.018731
0.0101222
0.00673782
0.00672845
0.000516718
0.00672155
0.000172041
0.00672524
0.00289759
0.00672573
0.0232229
0.00270226
0.00228639
0.000515047
0.00301583
0.000523864
0.00674047
0.00337401
0.00672554
0.000543717
0.00042702
0.00439723
0.000320467
0.0067261
0.00672391
5.30941e-05
0.00567541
0.00672252
0.00672188
0.00672962
0.00278742
0.00674098
0.00672355
0.00217307
0.00672009
0.00463145
0.00014968
0.00673783
0.00672152
0.00672353
0.00211174
0.00868389
2.89989e-05
0.00255039
0.00193682
0.00335572
0.00672608
0.000631611
0.00672075
0.00671958
0.0011783
0.0067198
0.000424141
0.000511329
0.000228227
0.00370394
0.000394708
0.00354255
0.00045992
8.22704e-05
0.00350095
0.00853859
0.0155688
0.000375638
6.68118e-05
0.00417281
0.00602009
0.000159777
0.00044639
0.00479606
0.0067176
0.00203755
0.000353075
0.00672247
0.000285967
0.00672252
0.000338395
0.00102366
0.000233344
0.000560179
0.00417454
0.00143588
0.0068748
0.00688603
0.00672916
0.00465921
0.00119053
0.00295111
0.00011469
0.00160386
0.000477395
0.00378108
0.0131322
0.00673358
0.00672158
0.000273195
0.00672576
0.000215912
0.000452705
0.000308618
0.00364605
0.00121589
0.0030112
0.000317684
0.0022381
0.000108289
0.00100863
0.00198747
0.00674297
0.000470509
0.0115268
0.000394522
0.000151069
0.0170486
0.001673
0.00026056
0.00672219
0.0126146
0.00303481
0.00132025
0.00144236
0.000371427
0.00303101
0.000296125
0.000400438
0.000878523
0.00672218
0.00079284
0.00672391
0.000402981
0.00671983
0.00672391
0.00283717
0.000569639
0.00256249
0.00249821
0.0022142
6.21158e-05
0.00672782
0.0099657
0.000403032
0.00416845
0.00139907
0.000454666
0.00652577
0.006027
0.0154564
0.00672006
0.0122959
0.000534485
0.000783941
0.00121824
0.00224801
0.00324638
0.00385647
9.08137e-05
0.00135696
0.00671937
0.00340304
0.0028444
0.00192429
0.00030281
0.00679584
0.000342959
0.000339466
8.48379e-05
0.00672024
0.00258964
0.00334495
0.000790804
0.00115173
0.00145392
0.000880433
0.00806225
0.0040927
0.00149862
0.0261157
0.000790231
0.000540918
0.000221357
0.00424715
0.00672572
0.000772554
0.000370893
0.00090894
0.00331924
0.0130519
0.000376248
0.00470414
0.00432144
0.00158193
0.00671696
0.00672387
0.0153049
0.00274602
0.000400508
0.000504259
0.000891184
0.000620566
0.000346448
0.00672141
0.00672262
0.000722975
0.00672078
0.00672153
0.00434141
0.00326448
0.000383214
0.00672403
0.00199118
0.00513425
0.000142568
0.00672231
0.010103
0.00672699
0.00187274
0.00671726
0.0067252
0.00134408
0.00275533
0.000342637
0.00107867
0.00672193
0.000539391
0.0024596
0.00672558
0.00264406
0.000274358
0.00202786
0.00672138
0.00672154
0.0067217
0.000815083
0.00672141
0.00672156
0.0003778
0.00672193
0.00314239
0.00137759
0.0195973
0.000408977
0.00232073
0.000509743