/*--------------------------------*- C++ -*----------------------------------*\
| =========                 |                                                 |
| \\      /  F ield         | OpenFOAM: The Open Source CFD Toolbox           |
|  \\    /   O peration     | Version:  v2012                                 |
|   \\  /    A nd           | Website:  www.openfoam.com                      |
|    \\/     M anipulation  |                                                 |
\*---------------------------------------------------------------------------*/
FoamFile
{
    version     2.0;
    format      ascii;
    class       volScalarField;
    location    "400";
    object      omega;
}
// * * * * * * * * * * * * * * * * * * * * * * * * * * * * * * * * * * * * * //

dimensions      [0 0 -1 0 0 0 0];


internalField   nonuniform List<scalar> 
10042
(
0.0219075
0.0220501
0.0218971
0.0231302
10.8725
0.0220712
5.85803
3.13754
0.0217562
0.0220098
5.55129
0.0230702
0.0215377
0.021503
0.023642
0.0220325
0.0220239
0.0222585
0.0219104
0.133911
0.0219033
0.24285
0.0215903
0.0216195
0.0220573
0.0292045
0.0221329
0.0227813
0.0217992
0.0224345
0.0220197
5.58824
0.0220207
0.0223228
0.0263682
0.0216308
0.0283908
0.033673
0.0216328
0.0299424
0.146026
0.0232475
5.67795
0.0220042
11.0648
0.0602767
0.0223465
0.095654
0.0274936
0.0492242
0.0221671
0.0222051
0.0232622
0.0228655
0.0284277
0.022064
0.0218008
0.0223097
0.022314
0.0230543
0.0220452
0.0220026
0.0265695
0.0218795
0.0222441
0.0223309
0.022036
0.074197
5.06892
0.0218779
0.0227968
0.160643
0.0220085
0.0322093
0.0220137
0.0216167
10.3298
0.0219213
0.0301929
5.64052
0.0267168
12.0629
0.0220138
0.0228445
0.022043
0.022214
0.0218845
0.165263
0.021934
0.0218866
0.0222182
12.2857
0.022867
0.0221376
0.0223814
0.0218799
0.0219325
0.0218632
0.0294109
0.0217988
0.0222908
0.112592
4.72218
0.0222026
0.0226476
0.0522297
0.0219088
0.0219259
0.0219119
0.0214567
0.0217096
0.0218242
0.0260099
5.20955
0.0222321
0.0218354
0.0219416
0.0219166
0.0218781
5.7131
0.0219266
2.20746
0.0220438
0.021983
0.111343
0.0220162
2.02057
0.0283358
0.0503754
0.0218778
0.0311899
0.022002
4.88623
0.216732
0.0217995
0.0599813
5.0721
0.0222265
0.100173
0.190299
0.02277
0.0219385
0.022512
0.159672
0.02187
0.0218239
0.0594756
0.0215386
0.0218784
0.0255527
0.0217771
0.0222555
3.86526
5.19696
0.0221861
0.0215336
0.0226072
0.0219941
0.0603967
10.9527
6.52118
0.135905
0.0219861
0.0217792
0.0220932
0.0219835
0.0611546
25.108
6.09
5.49224
0.0225006
0.021838
12.8786
0.173602
0.0385869
4.87554
12.3397
0.0220241
0.0861777
0.0322238
0.0227558
5.58871
0.0220911
0.0282313
0.0231118
6.34141
0.274693
0.0221051
6.36149
0.0239409
2.87704
0.0225076
3.73722
12.1931
0.104323
9.44178
0.0255054
0.021922
0.0215381
0.0235221
0.0373221
0.0221449
0.0218179
0.178584
0.0220754
0.0216818
4.57275
0.0221575
0.0222603
0.0222429
3.48241
0.0218784
0.0565941
0.333043
0.0225797
0.286703
0.0219622
0.0219894
0.0674554
0.0217668
0.0261138
0.0227401
0.406696
0.0348586
0.0255532
0.0301548
0.352172
0.0218296
0.175823
0.0230217
0.0217549
0.137706
0.0218466
0.0229822
0.0219346
0.0257574
0.0217081
0.0214898
0.0232466
0.0259487
0.0219933
0.0220477
0.0220429
0.0260931
0.0218358
0.0220289
0.0216208
0.0227204
0.0226544
0.0222689
0.0215397
0.0218685
0.0244629
0.544481
0.136371
7.64951
0.0391448
0.0378902
0.023832
0.0679152
5.56847
0.0230272
0.0219127
0.0215082
0.0234472
0.0217069
0.253835
0.0232356
0.0218797
0.0222504
0.0391744
0.0226993
0.306423
0.0385006
0.200129
0.0240272
0.0259107
0.02171
0.0250864
0.0218969
0.0334468
0.0219017
0.0292774
4.87183
0.0216826
0.0218524
5.6984
0.0619165
0.0220683
0.0220439
0.024158
4.86211
0.0560152
0.167401
0.022182
0.0215348
0.0218304
0.0217722
0.314376
0.021873
0.0220391
0.0218347
0.0219644
0.0347072
0.0238833
0.0792812
9.33085
0.022861
8.82812
0.0218388
0.0248494
0.0221245
8.05574
0.111561
4.93175
14.1861
0.0216027
0.0232484
0.021885
0.0241113
0.0302345
0.0222417
0.0333378
0.0217036
0.0215083
0.0220307
0.085326
0.0222839
0.0236161
0.0219635
0.0237303
6.88682
0.0218386
0.0221766
0.0219891
0.0218499
0.0428925
0.104331
0.0377435
5.19897
0.0351387
0.0272269
0.0219803
0.0214859
0.0222968
0.022268
0.912669
0.0219018
0.022331
0.104373
0.0218205
0.0248455
0.022973
0.111095
0.0218836
0.0253482
0.0473981
0.0330606
0.0234415
0.0219281
8.00537
0.0604464
0.0222877
0.0425074
0.0219477
0.0218507
0.0219456
0.0247885
1.26453
0.0242935
0.0222493
0.0228086
0.0222923
0.0222709
0.131904
0.0219261
0.0216197
5.09813
0.0218368
6.32148
0.809334
0.0328639
4.34653
8.94478
0.0281406
0.140816
0.0221593
0.0509538
0.0222913
0.0222434
0.23997
0.0220661
0.0243795
12.5586
0.0219921
0.0219047
0.0506717
2.21956
0.0222428
0.0215393
5.69287
0.112482
0.0218338
0.0745887
14.9533
0.0217658
0.0222641
0.0216406
0.0218606
0.0214876
0.0216752
8.57614
4.39844
0.0222818
9.67778
0.0215049
0.0218737
0.699608
0.0220357
6.00845
0.0606421
0.0228553
0.021592
0.0215327
0.146236
0.0226048
0.0281422
0.0224177
5.14947
0.0224614
11.0001
0.0234329
0.0219353
0.0218354
0.72205
0.0219512
0.0257765
0.0218599
0.0218637
7.36854
0.0255883
0.02193
0.0217443
6.20943
0.0218689
0.0259666
0.0234252
0.0217113
9.92188
4.38896
0.0218832
0.0221709
0.0244697
0.021539
0.0220092
0.0219717
6.03904
0.0219953
0.0217425
0.0287807
2.75709
0.0606803
0.0222685
0.0318389
19.5652
0.0366497
0.0219371
0.0219344
0.218808
0.0222089
0.0219416
0.0294087
0.0218008
0.021676
0.0228942
0.0215688
0.0386472
0.0219054
0.0219553
7.00941
0.0217603
0.0224119
0.0220681
0.022348
0.0331863
0.0218876
0.0218284
3.17509
0.0225592
5.84607
0.0229973
0.022282
0.0222767
0.138135
0.021897
0.021935
0.0220134
0.0223624
0.0279497
6.20137
0.0218728
0.0383622
4.54177
0.0365054
0.0222612
0.0219578
0.0220233
0.0222034
0.0218504
1.78564
5.31615
0.0220761
0.0283591
0.0287011
0.0281246
0.0220224
0.0216561
0.566618
0.137283
3.28906
0.0215881
0.0220763
0.0219989
0.0218417
5.82498
0.0351899
0.0223682
0.0218623
0.0218014
0.0219908
0.811167
0.0255804
0.0221403
7.30063
1.39687
0.438337
0.0532795
0.0220168
0.0218079
0.0559921
0.054141
2.7361
25.2728
0.0248457
0.0260801
0.0222108
0.0235541
0.022164
0.0222001
5.97915
0.0216148
0.0218424
0.0573298
0.0222106
0.281289
0.0228106
0.143506
0.0296637
0.0222449
0.0231397
0.0263658
0.038473
0.0532357
0.0846429
0.0222823
0.0491471
0.0229928
0.0218775
0.0221194
0.0223272
0.0220348
0.025102
0.0609516
0.041438
0.0221436
0.0226247
0.0220094
0.0219133
0.129745
0.0219301
0.0233904
0.209541
0.0215704
0.054209
0.0731835
0.0220413
6.27835
0.0423198
0.0222102
0.305793
0.0219883
0.0222686
0.0219597
0.0219797
0.0222924
0.024043
0.0219987
1.01257
0.0227709
0.0219627
0.0222403
0.0336665
0.0336522
0.0219782
0.0242045
0.0218087
0.0326027
0.0219346
0.0297842
0.0216242
0.0229802
0.0215336
0.0219315
9.30326
0.0216467
0.117
0.021967
0.022697
0.0217412
0.0334918
0.0220765
0.0437881
0.0220669
0.261128
0.0222622
5.85564
0.0215333
0.023545
0.0222715
0.021979
0.0219596
0.0239874
0.0220345
0.125889
32.1464
0.24396
0.0238752
0.0368348
0.021812
0.0389417
0.0601552
0.022013
0.0290946
0.0889519
3.00579
0.0735941
12.277
0.027181
0.022139
0.0222315
0.0247508
0.0240332
0.0355793
0.0216068
0.0234925
0.12251
0.0222649
0.0219145
0.02458
6.24899
0.0233905
0.0307265
0.0557429
0.0222516
5.44566
0.021622
0.0218228
0.0224628
0.0218079
7.00135
0.0682848
5.43959
0.0220571
5.80845
9.6268
0.641577
0.0353814
0.068175
0.174179
0.0410702
0.0219646
0.0218637
0.030245
8.97307
0.0218063
0.0294659
6.13391
0.0218991
0.0219069
0.0218836
0.022957
0.0219512
0.0219187
0.134773
9.99084
0.0218987
0.0220001
4.90811
3.05201
0.021816
0.0219409
0.0221551
0.0218642
0.75545
0.0681451
0.28812
0.0226448
0.0219006
0.0217534
0.0227812
0.022054
0.0328291
0.0226296
8.93568
0.0220071
0.0220761
0.041498
0.021801
0.0333673
0.0668958
0.0229476
30.8618
4.40452
0.0221445
0.0218464
8.66185
6.79023
0.0358763
0.0219594
4.07357
0.189987
0.0257242
0.0219475
0.0219957
0.0219236
0.356315
0.0238428
0.0956498
0.0222686
6.31896
1.17362
0.0219608
0.0219888
0.118519
0.0221511
0.0217384
0.0252553
5.31987
2.92737
9.38475
0.0222946
0.0599064
0.0393588
0.0216439
0.0218724
0.0221941
0.33495
0.0222062
0.021957
0.0598134
0.0220112
0.0663303
0.0221117
0.0221078
0.0216888
0.0221517
0.198179
0.0221993
0.0218615
0.0417719
0.0567721
0.415113
0.0222103
0.0935625
2.61338
5.88363
0.0229664
6.41693
8.58324
0.0219008
0.0215491
0.0226881
0.0233146
1.97651
0.0234983
0.0221232
0.0222064
3.12625
0.0377691
0.0222321
0.0221427
0.021936
0.0429255
0.0217526
0.0218361
0.0315926
0.0228753
0.0222046
0.0217667
1.42819
0.0218535
0.0227974
0.022029
0.0223958
0.160827
0.0222033
0.0230719
0.0220725
0.0250157
0.811882
0.0222919
0.388676
0.0260837
2.31576
0.0216631
0.0235125
0.0310513
0.0934175
0.050956
0.0226181
12.5292
5.57614
0.0225039
0.0217936
0.506797
0.0220797
0.0222512
0.021727
0.0222419
0.0515671
0.0222928
0.0222931
0.06598
0.0286764
0.0229244
0.0315053
0.0227406
9.52061
0.0231554
0.88783
0.0218566
0.0573988
0.0373004
4.93734
0.0241414
5.55589
0.0222695
0.0251102
0.0220429
0.0220875
0.0219028
0.135103
0.0405814
0.0468696
8.17997
0.0221203
11.1742
0.0253851
0.0217719
0.0314277
0.030438
4.0908
0.021983
0.0282342
0.0521673
0.0234528
0.0419841
0.0222838
0.0215787
0.0222833
0.332121
0.0221351
0.0220047
0.0217341
0.0217245
0.021936
0.0219894
0.0223312
0.0218445
0.022152
0.0224601
0.0254586
0.0310152
0.0219902
2.68846
0.0219762
4.92791
0.0373611
2.6625
0.0366584
0.0249313
5.98886
0.034164
0.347652
6.95015
0.0424872
0.0221996
0.0218416
0.0229643
0.165853
0.0218852
5.32406
0.021869
16.8768
5.71166
0.0529353
0.0228068
5.69098
5.71085
0.0231923
0.0219788
0.0222639
0.0242107
0.0215693
0.0216676
0.0592262
0.222743
0.0220789
0.0218772
0.022356
0.754483
0.0590799
0.0221572
0.0253839
0.0926361
0.0224881
0.0220285
5.09393
0.0222993
0.0218706
11.3236
0.0241182
0.0219489
5.6629
4.01409
8.29853
0.0219092
0.0232064
0.430202
0.021733
0.0218723
0.0222844
0.0289215
0.0220445
0.0221118
0.0232
0.0463835
0.189004
0.0217793
0.021931
0.0220797
0.0218336
0.0225751
0.0216012
0.148717
0.0288792
0.0219588
0.0219838
0.0217633
0.0219762
0.022464
5.43598
0.0288345
0.0215314
0.0219244
0.041318
4.20054
0.0220429
0.0219831
0.022029
0.0215404
12.3783
0.046874
0.0217274
0.0220673
0.0296183
0.109151
0.0221697
0.0222828
0.0250883
0.0220101
0.0257478
0.022378
6.04718
0.0353958
0.0220708
0.026047
13.2415
0.028385
0.158772
0.0252901
0.409617
0.022271
0.0220863
0.0249861
0.0647061
0.021891
0.0217599
0.0222437
0.0226099
0.110686
0.126759
1.39982
0.0226361
0.0219931
0.0284849
0.0219741
0.0219688
6.52037
0.0237819
0.0220072
0.0219832
0.303705
2.13956
0.0219917
0.0220993
0.0926443
0.0217772
0.0221044
0.0219337
0.0898788
0.0230903
0.0257609
10.5266
0.0222894
0.0221689
2.56089
0.0219069
0.172977
0.0218974
0.0234872
0.0426251
0.0219857
0.0220902
0.0221535
0.0234809
12.7826
0.0219171
0.0221356
0.226599
0.0257718
0.295805
6.2546
0.047841
0.0222124
0.485723
0.021831
10.1621
0.0221685
0.0220357
0.0217224
6.76907
0.0222125
0.0223599
0.0221605
0.0334483
2.2651
0.0284431
0.0501378
0.0218991
0.0221357
0.037426
0.0293364
0.0218325
0.0254009
0.021878
4.55888
4.89921
0.0221398
0.0229324
0.0222231
1.93959
0.0221579
17.4775
0.0219781
0.0218266
0.0217224
0.0224759
0.023792
0.0222715
0.0219901
0.0220009
3.14097
0.106516
0.0218741
0.0245167
0.0238704
0.0415747
0.0218452
0.0258365
0.0229728
0.0219592
0.0232184
0.0303539
0.0222802
0.0219136
0.0268835
0.0217518
0.170507
0.0231941
0.148158
0.0221133
0.0220385
0.0217877
0.0678284
0.040192
0.0217658
0.0245355
0.0722044
0.0224617
0.0217688
0.0256415
0.0222247
9.71677
0.23376
0.0251285
7.66891
0.0231225
0.0341927
0.0949728
0.0380899
0.0328842
5.66092
0.0294727
0.13041
0.0220256
0.0230111
0.0218562
0.0219447
0.0264551
0.0217634
0.202619
0.0220018
0.0219925
0.0770882
0.0219393
0.0538333
0.0255182
0.0256444
0.0218732
0.042847
0.192979
0.0214285
0.0313266
5.85978
0.0423903
0.021756
0.0294852
0.0219946
0.0217837
10.9826
0.021828
0.0217817
0.0496975
0.0219606
0.026649
0.0217641
0.0220022
4.85434
0.0218681
0.0216662
0.0248199
0.0219076
0.0215212
0.0222519
12.1186
0.0221543
0.0220853
0.0215786
0.0830414
0.0224107
0.0246897
0.0219265
0.0349248
0.0227196
0.0218939
0.022957
0.0221013
0.0217778
0.122093
0.0424579
0.0291632
0.0235132
0.046144
0.0744306
0.027545
0.0282517
0.0229674
6.54201
0.0219355
0.0220035
0.0219244
0.0222384
0.035801
0.0218942
10.0975
4.96734
6.77818
0.0220851
0.0248287
0.0395283
0.0215396
0.0904072
0.0480778
0.92788
0.064455
5.23967
0.0746452
0.169741
1.71517
0.0286595
0.0229541
0.0253206
0.0217795
3.4835
0.0226212
0.0293496
0.0217951
0.025278
0.0220457
5.43785
4.33259
0.0222038
5.42888
0.749154
0.187706
0.0464097
0.0669482
0.0216695
5.62193
0.0219721
8.48442
5.49136
0.0222045
0.0218989
0.0220025
0.023426
0.0247589
0.0357443
0.19782
0.0221255
0.0220401
0.0253223
0.0223919
0.0220367
0.0263375
0.0218315
0.02206
0.201139
0.0634098
0.0220423
7.08368
0.0228462
0.0222722
0.0234636
0.3192
0.0219387
0.0217293
0.115014
0.199278
0.0218057
0.0254284
0.884757
0.0550113
4.92574
0.021777
0.158314
4.92855
9.54579
0.0220841
0.0219113
0.0608904
0.0264148
0.0419012
0.0223525
6.62477
0.049759
0.196847
0.0220675
0.0219771
5.69292
0.180909
0.0221508
0.0222723
5.68872
0.02192
0.0216027
0.0217598
0.0234809
0.0221971
0.0297909
0.0221223
0.0236655
0.021623
0.0327441
22.5853
0.0605274
0.0349317
12.2815
0.0784885
0.0216466
0.0217805
0.0218807
0.0222837
0.135159
0.029932
0.0220336
0.0219891
0.021972
0.021608
0.0326367
0.0216167
0.049017
0.0239908
0.0221246
4.89397
5.90101
0.0221031
7.35375
0.0342652
0.033676
0.0222642
0.0216271
9.47113
0.0763428
0.0219223
0.0217272
0.0219327
0.0266078
0.0222624
0.147201
0.0215291
0.0220603
0.0220441
2.01523
5.91316
0.0215233
0.0220036
0.157898
0.502247
0.0247097
5.07505
6.90557
0.0217314
0.0221423
0.0221372
0.0230939
1.92682
0.0220386
0.0222844
0.20099
0.0964556
0.0222124
0.0219445
0.0736235
0.0222837
0.0220757
0.113276
0.0823815
5.30685
0.0219839
0.0705112
0.0415373
0.0557731
0.0231268
0.0277677
0.0219362
0.0219878
0.124206
0.0261114
0.021997
0.0250315
5.43401
0.0215463
0.0218077
0.0215386
0.0785175
0.0219458
0.022087
0.0214504
0.0219442
0.817109
8.93999
0.0222336
7.45419
5.48264
4.93441
0.0219328
0.0219398
0.0218265
0.021886
0.0221176
0.0221509
0.0216266
0.0220831
0.0217786
0.024423
12.1216
0.0366425
0.28014
0.0298939
0.0220321
0.0232405
0.032749
0.0221887
0.021843
0.0407354
0.0324364
0.641404
0.0422004
0.021505
10.86
0.0228077
0.0215031
0.0218749
0.36095
0.0438706
0.0227842
0.0260265
0.0220732
0.0220955
0.0325517
0.0412165
0.0279339
8.15421
0.0220849
0.0220308
0.728494
0.0379891
0.025415
0.139775
0.0232036
0.0675323
0.328366
0.0679752
8.55871
0.0218422
0.0216998
0.0219402
0.0220484
0.0220955
0.0232343
0.0405444
0.0497292
14.3172
0.0220744
8.25334
9.3641
0.0243091
1.63852
0.0222509
0.0994424
7.2714
0.021911
0.0972111
0.0215599
1.86511
0.0221978
0.217562
0.0218543
1.16264
0.0384314
5.76301
0.021846
0.180537
0.0216271
0.023207
0.287997
0.0218366
8.56662
5.80358
0.332199
9.83752
0.0966591
5.22063
0.0398474
0.0220173
0.045798
0.0470678
5.51471
0.0220785
0.0220177
0.0227572
0.0494955
0.0219456
0.0222493
0.0222545
15.6009
2.30942
0.0219046
9.86934
0.0600182
0.0217263
0.0388565
0.0276666
2.49624
0.0302381
0.0217766
0.686515
0.0220727
0.0219382
0.0220905
0.134517
0.0638538
0.0218062
0.0268527
0.0221113
0.0222607
0.0217918
8.76674
0.0222856
0.021814
3.25883
0.269253
0.0241322
0.0218255
1.7008
0.0286105
0.0233713
0.021955
0.0527006
0.0232402
0.0270792
0.0250248
7.7284
0.0445717
0.0619601
0.0215001
0.0317862
0.0454375
0.0276733
0.0224253
9.03044
0.0222527
0.15988
0.0218822
0.022194
0.031098
0.201605
0.0235606
0.0252458
0.0221148
0.0377142
0.0666427
0.0879774
0.0283773
0.0222924
0.0219658
0.0283054
0.0836583
0.0219361
0.0441699
0.0220156
0.0219374
5.30174
0.0218844
6.94792
0.0219402
0.0273057
0.0718982
0.0219345
0.0284409
0.0977377
0.109654
0.021957
0.0789314
0.0226004
0.0222634
0.0218911
5.07419
3.50558
0.0219017
0.0219284
0.0216124
0.0218116
0.0962066
4.32229
0.0219345
1.41042
0.0217304
0.0217971
0.0218887
1.49922
0.022919
0.024033
0.0219452
0.0219912
0.0219115
0.0222568
0.0222595
0.0325942
13.494
0.0216271
0.0219173
0.0421919
0.0719243
0.0217933
8.17202
0.0538761
0.02179
0.0215173
0.0221547
0.116548
0.0217442
0.0777946
0.0292213
0.0235149
0.0217862
0.0463917
0.0215329
0.142005
0.0281322
0.0224172
4.99255
2.46435
0.0214357
0.0218527
6.97767
0.129178
0.078651
0.0241089
0.0778549
0.0215513
6.36412
0.0631239
0.0217272
1.62606
3.91129
0.0233221
0.0457394
0.0548896
0.0217691
9.61977
0.0222022
0.0269552
0.030445
0.0222895
0.0220498
0.0534771
0.0218652
0.0218892
0.0218647
6.41624
0.0218475
0.0219392
0.0217577
0.0218847
0.0218601
0.0222304
0.0536401
0.0461284
0.0235777
0.0222499
1.81499
0.0223075
0.0218359
0.0218919
0.0216125
0.0220863
0.0219725
0.0288232
0.0925393
0.0222242
0.0309535
0.0509456
0.0217504
0.0280131
3.17899
0.0227831
0.0215391
0.0220814
0.0855559
0.0222033
0.0222032
0.0245485
0.0251214
8.18471
12.3796
0.0218226
0.0218635
0.0219417
0.0710813
0.0231924
0.0217966
0.028616
0.0771045
0.0221886
0.0272402
0.0221339
0.114636
0.210543
0.0228884
0.132164
0.0262085
5.41962
0.0222055
0.0218891
6.678
0.121594
0.024641
0.160406
0.0942045
29.438
0.046921
0.701616
0.0258851
0.0249749
5.20446
0.0270823
0.197693
0.0299039
0.135626
6.22586
0.0222933
0.0221554
0.0219761
0.386093
0.0214579
5.78558
0.0369661
20.891
0.0230433
0.122176
0.227505
0.0219481
0.0222296
0.081821
0.0302002
0.0220888
0.0248252
0.0800504
0.0794963
0.0813667
0.110163
10.5312
0.155962
0.0221156
0.0222015
5.3129
0.0783317
0.0227484
0.0387167
3.67881
0.0223372
0.0238737
0.0219393
0.0292171
0.02204
0.022106
0.0393873
0.0221107
0.02268
5.48484
30.1385
0.0217265
0.0260383
0.0269866
0.205932
0.043871
0.0224179
0.0219261
0.107218
19.7984
0.0219269
0.0253097
0.0221138
6.35691
0.0218243
0.0306849
0.435553
0.36569
0.0222721
0.145652
0.0924191
0.059163
0.0259629
0.0220216
7.4527
0.0218107
0.0263089
0.0222596
0.029003
0.0216108
0.021625
0.0221399
0.0693565
0.0218157
0.0219786
0.0217861
0.0219714
0.0218623
0.0220646
0.0946401
9.79067
2.33156
0.0256695
0.0220573
0.0325299
0.0237916
6.4363
0.022285
0.188549
0.0216215
0.0219954
0.0224657
0.0356148
4.09508
0.0219578
5.27175
0.0222865
0.0215288
0.0232229
8.49517
0.0235217
0.0457673
6.43482
0.0222848
0.0222004
7.43846
0.0218789
10.9914
0.022089
0.0321292
14.9725
0.022605
0.0220982
0.0218575
8.83528
0.026732
0.0218628
0.807664
0.0219575
0.0227085
0.0870766
21.4278
0.207473
5.3377
10.2786
0.0764666
0.0236772
0.194306
0.268985
0.0218063
0.0218547
0.0229701
0.0268586
0.0815707
0.0219899
0.0256551
0.021902
0.0219598
2.16531
0.0222253
7.82289
0.0215629
0.0317226
0.0614735
0.0218257
0.0215228
5.46985
6.03037
0.0675626
0.022082
0.0252675
0.0519945
0.0217634
0.0351399
0.107091
0.0404041
0.0233332
5.8557
23.6848
0.0215497
0.0221336
0.021649
0.0221946
0.0227602
0.0271942
20.4769
0.0221207
0.021961
0.043757
18.4469
0.0215713
2.89409
0.0215932
0.144986
0.059602
7.33368
0.0664654
0.0550791
0.0578014
0.0215149
0.0215157
0.276801
0.025923
0.0220888
1.13862
0.0218223
0.0220854
0.0216228
0.0506982
0.231755
0.690477
0.151525
0.0284679
0.0300782
0.0219743
9.75336
0.206596
0.0232073
0.0219724
0.0217515
0.0901592
8.70478
0.0367588
9.75446
0.022948
0.0217738
4.91898
0.0219467
5.99551
10.3321
0.0216891
0.0303687
0.266599
0.0244522
0.0366247
0.0218271
5.0827
0.0265098
0.170763
5.62495
10.1942
0.0280736
0.027986
0.0221369
0.16263
9.85201
0.0229202
0.0240497
5.18122
0.0506405
0.0696078
0.0222635
4.67192
5.29021
0.0999809
0.0219414
0.0267041
0.0218926
3.92177
0.076639
0.034514
9.54738
5.2646
0.021513
0.169209
0.022102
7.80424
0.0970775
0.0265619
0.0251729
1.23324
0.0214101
0.0622903
6.71353
4.47981
0.0231735
0.0220321
0.0217866
0.0925562
2.98054
0.189902
5.73585
0.0910478
0.0427826
0.0217653
5.35542
0.0822823
0.0289347
0.203341
5.52888
5.16394
5.14959
7.98901
6.61443
5.37226
0.0220902
0.0293016
0.0337575
0.0218677
9.72822
1.06828
0.0220202
8.08557
0.0221307
0.0219911
0.0217689
0.0315929
0.0218616
5.61187
0.0629309
0.224767
0.0216724
0.669742
0.049241
0.442746
5.24919
0.0226642
0.0279699
0.0388784
0.0688851
0.0217658
0.0216227
0.0218876
5.15842
0.0217754
0.0217694
0.177283
0.0233169
18.4496
0.022046
6.147
0.0219486
0.0220606
0.0219641
0.0219883
0.0268718
0.0247332
7.32912
0.0316902
0.0370522
5.76463
0.0218221
7.0723
0.02179
6.49967
2.15609
5.75061
0.068698
0.021986
0.0222726
6.56052
0.0220219
0.0263189
0.0221128
0.0299266
6.34228
0.0218851
0.0218433
0.0218664
0.0222651
10.4792
10.2721
0.0218319
0.0214502
5.56402
9.39353
0.0218555
5.27055
0.0222642
8.16082
5.94783
0.0688801
0.38817
1.07086
0.0889781
5.01118
0.0787514
0.0219689
0.0215469
0.0217813
7.25233
9.76276
0.0231498
0.0286516
4.99519
0.0218289
5.58844
0.0218291
0.0219155
0.0216247
8.9637
0.0734952
0.0217524
4.8681
0.0222526
7.79907
5.06509
0.0217365
0.0221109
0.127263
0.0219513
0.0219484
0.0218279
3.36287
0.032535
0.022032
0.0221309
3.11933
0.0219303
0.0421141
0.021985
5.64602
0.0221021
0.110947
0.0235911
5.01539
7.87837
0.0319641
0.0838688
0.0578137
0.0220757
0.0798696
5.39909
0.0217519
0.08689
0.0217611
0.646715
0.0218875
5.88365
3.20205
0.111483
4.98884
4.90993
0.0417699
0.0225306
4.36775
0.0219316
9.94959
0.0256449
1.33863
0.0218635
0.033368
0.0494262
0.0309375
0.0221169
0.0219392
0.0221957
5.40414
0.0762807
4.85931
2.46362
0.0279275
0.0216202
0.0565459
11.7494
0.0343201
0.0217882
0.0220809
10.0243
6.84784
11.5494
5.92078
0.0370708
0.0223055
0.0217727
0.0534498
0.0533502
0.96894
0.021999
0.0220704
34.2265
0.0694456
0.0222854
0.0637966
1.03911
0.112317
0.0216087
0.0500288
0.667505
1.44887
6.84528
0.278039
0.0218635
0.0222692
0.0221097
0.0222849
0.0219504
0.0220917
0.0341212
0.23979
0.0350958
0.0276495
0.0294556
0.0221879
0.0264536
0.0225266
0.0356574
0.033462
0.0218221
0.028898
0.0218852
0.02184
0.0225865
0.0221209
0.442684
0.0215948
0.0810471
0.788198
2.18671
7.63876
6.82122
0.0224052
0.0222368
0.0218972
6.29294
0.0218306
0.0214782
0.0221749
6.3353
0.031803
0.0349049
0.442898
0.023544
0.0220328
0.0303742
0.0218727
0.0498881
0.0222854
0.0350415
0.0217871
0.0219261
0.0230836
0.0236745
0.0251881
0.834721
0.0391901
0.120214
0.0629995
0.12992
0.0457361
0.0722166
0.0218219
5.24667
0.02465
0.0270125
0.0219314
0.0226941
0.133114
0.0219829
0.0673327
7.23597
0.029682
0.390851
0.112363
0.0560699
0.0734738
0.0628678
0.021927
0.0293323
0.0220914
0.083704
0.0537194
5.80049
0.0217547
0.0500641
0.0266844
3.47806
1.21464
0.0477423
0.0220991
0.0545605
0.0215738
0.070438
0.0228893
4.48719
0.0216534
0.0260993
0.0220174
0.0370301
0.132235
0.0314792
9.50315
0.0220399
0.0305802
0.0635957
0.0220163
7.38982
7.76668
0.169604
0.0540463
0.0497849
0.0218034
0.0217663
9.39596
0.110289
0.0216203
0.022479
0.0251781
0.0218929
0.471101
0.021781
6.91256
0.158201
0.156325
0.0386119
0.0223621
0.0216621
0.0218274
0.165693
0.0847397
0.0268908
5.2774
0.0221745
0.0232173
0.0275967
8.73285
0.0215022
0.773866
0.0214103
5.74469
0.0219075
0.0218928
0.0388545
0.0219852
0.0222568
0.149617
0.0220867
0.0223476
0.0217763
0.0461175
0.0259602
1.64695
0.0219906
0.0221138
0.0218462
0.138466
0.0217995
0.0289887
0.0429222
6.13194
9.725
11.3242
0.889266
0.457526
0.0427679
0.0650956
0.0275898
0.0222512
0.0221212
6.77135
0.0596415
0.0215447
0.0219628
0.021954
0.0279713
0.0869586
0.0222518
0.0306351
0.126803
0.18051
0.124111
0.0219659
0.0222376
2.74562
0.0237662
0.0215841
3.76656
8.09823
0.0216957
0.0214383
0.0272604
0.0220557
0.0388012
0.0222485
2.5713
0.0222726
1.63114
0.0219994
5.27858
0.0305386
0.021949
0.0612255
0.0215905
0.0219548
0.0222647
0.033605
0.596774
0.0218523
0.179163
0.0222855
0.0221997
0.119642
0.0216885
0.0221288
0.0221027
0.0214796
0.0219723
0.0215085
0.022167
6.52396
0.0218524
0.0217521
0.0597052
0.0216299
0.0219328
0.0221682
0.0222294
9.31969
0.441093
0.0220565
0.0228652
0.0219173
0.0222855
0.201614
0.0220557
0.0219842
7.8231
0.0219594
0.0470015
0.0565171
0.0390828
0.0218566
0.222789
0.021906
0.300837
0.0712043
0.0218779
8.79675
1.81169
0.0285763
0.128528
0.0218402
0.0218613
0.0466837
0.241199
0.0217659
0.0218558
0.0222645
0.0424109
0.0221048
0.0373066
0.0221121
0.049219
2.44007
0.0404387
0.183733
0.0218441
0.0247609
0.0227772
0.0236169
0.0216873
0.0218881
0.0230268
0.0234466
0.0708346
0.0224096
0.0909468
0.0218765
5.97911
0.02153
0.0217713
0.0775077
0.0222716
0.112981
0.0847323
0.038527
0.0219194
0.023041
0.0219452
0.0385628
0.0220848
0.0572346
0.0258952
0.0221837
0.0216762
0.0278664
7.72073
0.0327747
0.053909
4.56126
1.21548
0.0401651
0.0215755
6.05103
0.021968
0.0237112
0.0224346
0.106511
0.0219455
0.0364288
0.0282029
0.0237396
0.022122
0.0257914
0.0222001
0.0622907
0.0219306
0.0221862
0.0219814
0.0290748
5.50335
0.0220285
7.50831
0.0890252
0.0214594
9.0623
0.298239
0.021807
0.0234197
0.0845976
0.021789
0.0218948
3.68176
0.0220278
4.59257
0.0257076
0.0249611
0.0227006
0.0224101
0.0219189
0.0218267
0.0628778
0.0225662
0.0219604
0.0219125
0.0222286
5.40117
0.0378439
0.0220775
0.0293968
0.158286
0.0686028
0.0218769
0.0220519
0.0219501
0.0253424
0.0228495
0.0224361
0.0275556
6.5556
0.0218033
0.0231621
3.13737
0.024912
0.0979416
0.15793
0.0218673
0.0222701
0.508328
0.0894323
0.172135
5.29318
4.76686
0.196249
7.15472
0.0217764
0.0233194
0.021679
0.0221872
5.46099
0.0219897
0.0574732
0.064075
0.0299345
0.0252834
0.73922
0.0218984
0.0221177
0.0257069
0.0219324
0.0220495
0.0217692
0.0220334
0.0717998
0.0219363
0.0221574
0.0217874
0.0471267
0.0221327
7.9618
0.0219125
0.0230684
0.0218133
0.0222521
0.0228871
0.0219857
0.0391983
0.0230218
0.0219268
0.02883
0.0220753
0.0222646
0.0220052
0.0315426
0.0223936
0.022034
0.0220475
0.0220609
0.029361
0.0220206
0.0220079
0.109315
0.0220758
0.0219263
0.023989
3.16249
0.0533297
0.0224073
0.0536122
10.5981
0.120888
0.243445
0.0241732
0.0229454
0.0272253
0.371711
0.0221223
0.233272
0.022558
0.0218909
0.028965
0.0220527
0.0740611
0.0810343
0.0675539
0.0231269
0.0219792
0.0291714
0.0277348
0.0229687
0.0246606
0.0235094
0.0455569
0.0777822
0.0733175
0.0219471
0.0240955
1.58765
0.0232052
0.0222853
5.49166
0.586089
0.0219738
0.0224923
0.0232748
0.0786823
8.42658
0.0219556
0.378148
7.83294
0.0391686
0.0617349
0.0216552
0.0238252
0.0227607
0.0852696
0.0222319
0.0299479
0.0235718
0.277683
0.0221939
0.0220624
7.25441
0.0236719
0.0230694
0.0222249
0.0222127
0.0392287
5.21141
0.0284554
0.0220434
2.82053
0.0910539
0.0223698
0.0219586
0.0218224
0.0244408
0.0217092
0.201421
0.0218536
0.0246802
0.0252631
0.0606477
0.0266733
0.0218467
0.0277659
0.0245548
0.0218369
0.0958487
0.0219173
0.0236074
0.0216873
0.022272
23.9291
0.0290853
0.0223468
4.90172
0.0228977
0.0219483
4.96962
0.0685416
4.92004
0.0219251
0.0231494
0.0218676
0.0226736
0.0231869
5.89821
0.0225636
0.0920662
0.0217856
0.0220959
0.0237832
0.0219919
0.0374609
9.92719
0.620233
0.0219493
0.0217172
0.271484
0.0225896
0.0222021
0.0267684
0.0275611
0.469217
0.0890176
0.0229464
6.31072
0.0849736
0.0224762
0.0217517
0.0222848
0.0288941
5.03837
0.0222839
0.0642888
0.0228245
0.0220915
0.0215749
0.0223268
13.4712
0.0272587
0.0217782
0.0239902
0.0220957
0.0255551
0.0214467
0.0232824
0.0219977
0.0230109
0.495044
0.022067
0.0222132
0.100436
0.0216106
0.0215682
7.46284
0.0218735
5.46559
5.64867
9.82657
0.0270203
0.0221563
0.0215128
0.0221393
0.0214865
0.0238835
0.214734
0.0523698
0.490685
0.0880658
0.0244229
0.0216001
0.0230867
0.0227336
0.0222726
0.022153
0.0215585
0.0773546
0.0226191
23.1277
0.0223341
0.0228488
0.0222635
0.0221171
8.84603
0.148771
0.0289407
0.021511
0.0541268
0.0232287
0.0219707
0.0791134
0.02146
0.023474
6.6666
0.0219576
0.021888
0.0218869
6.71287
5.13867
0.021618
0.0227457
0.0247443
0.022119
0.0216359
0.021986
0.0220763
0.0219004
0.0218496
0.0218993
0.0244674
5.44365
0.0389389
0.021933
0.0219306
0.0223713
0.0221916
0.0221777
0.026324
0.0278296
13.1922
0.0262307
0.0222212
0.0226748
0.0219448
0.0972505
0.0216061
0.0222237
0.0233529
0.0293235
0.0270059
7.81372
0.0221559
0.0311464
0.0227641
0.0227177
0.0221051
0.0215974
0.0230817
0.116771
0.177379
0.0217521
0.0380501
0.0781176
0.0222647
0.0404518
0.0395605
4.18836
0.0222495
0.0237977
0.0225991
0.0215979
0.0784567
0.0219576
0.0219983
0.0522495
0.23111
0.205708
0.0217839
0.0219103
7.41882
4.85825
0.0215876
3.94146
5.05231
0.0218196
0.0215909
0.0217053
0.0220823
0.0221409
0.0215526
0.0290609
6.25358
0.021806
0.0219584
0.0216967
0.0221584
0.0217934
0.0218564
0.0215437
7.29892
0.0220651
0.230178
0.0221931
0.0218066
0.0231122
0.0218419
0.022176
0.029686
0.0221557
0.0223393
6.99357
0.0219914
0.0253804
0.0220434
0.0219805
0.0221415
0.0218095
0.120094
0.0220589
0.0221076
0.0220554
0.214072
0.0332057
0.022224
0.0221757
0.0219366
0.0232287
5.0731
0.0235755
0.0238743
0.0219491
0.0221241
0.021941
0.0537766
0.0233599
0.0229621
0.465773
0.0460069
0.0218174
0.025498
0.0220696
0.0224659
0.021843
5.46801
0.0219606
0.0220583
0.0218032
0.0301292
0.0236475
0.0228339
0.0219367
0.0217936
0.0637329
7.41388
0.0218323
0.0570741
0.0236855
0.0235705
9.0493
0.0217617
0.0219842
0.0219493
0.0239654
0.0234046
0.0217915
0.0246213
0.021905
0.100893
0.0215203
0.0217175
0.0254508
0.0221432
0.0971495
0.0262057
12.9748
0.0668456
0.0222123
0.113811
5.05933
0.0225526
0.0248405
0.0220687
0.0256032
0.021783
0.0403667
0.0455727
0.0218773
0.0295467
0.0217928
5.15111
0.0222999
0.0237909
6.33659
0.0445548
0.0242875
0.166325
0.022157
0.0219961
5.3098
0.0217646
9.15321
0.0218413
0.0218588
0.0740228
10.6861
0.0219087
0.0440342
11.4082
0.0218506
0.0221754
0.0220209
0.0279337
0.0258966
0.0229431
0.0220053
4.90941
0.0219626
0.0227129
0.0219367
0.0218944
0.0220375
0.0236606
0.0287979
7.23803
0.0222315
7.08014
0.0219379
0.0227597
0.0249108
0.0227108
0.0602497
0.0640658
0.0225215
0.0219286
0.0218233
0.0904289
0.0217383
0.0218258
0.591671
0.13265
0.0217371
0.0220031
0.0217686
0.0220906
0.025032
0.0840041
0.0219649
0.0221273
0.0217442
0.0222427
0.0219633
0.0215146
0.0275919
5.20159
0.0216986
0.0222861
7.65267
0.0219024
0.0396633
0.0220702
0.0307797
0.0557956
22.1493
0.0222613
0.0220558
0.0217858
0.0222229
0.0220426
0.0214577
0.022145
0.0221274
0.023421
0.0561321
0.025352
0.0237159
6.72763
0.0220289
0.156758
0.0217396
0.0218469
0.0220159
5.37249
0.0218341
0.0567091
0.0231643
0.0227608
0.021935
0.0217616
0.0218116
0.0224328
0.0218482
0.0218127
0.0498861
0.290007
6.39644
0.0217884
0.0503754
0.0223515
0.0220858