/*--------------------------------*- C++ -*----------------------------------*\
| =========                 |                                                 |
| \\      /  F ield         | OpenFOAM: The Open Source CFD Toolbox           |
|  \\    /   O peration     | Version:  v2012                                 |
|   \\  /    A nd           | Website:  www.openfoam.com                      |
|    \\/     M anipulation  |                                                 |
\*---------------------------------------------------------------------------*/
FoamFile
{
    version     2.0;
    format      ascii;
    class       volVectorField;
    location    "750";
    object      cellDisplacement;
}
// * * * * * * * * * * * * * * * * * * * * * * * * * * * * * * * * * * * * * //

dimensions      [0 1 0 0 0 0 0];


internalField   nonuniform List<vector> 
9793
(
(0 -0.0016314 0)
(0 -0.000109432 0)
(0 -0.00166224 0)
(0 -0.000634385 0)
(0 -0.00129584 0)
(0 -0.00254496 0)
(0 -0.000272185 0)
(0 -0.00173369 0)
(0 -0.00157489 0)
(0 -0.00131448 0)
(0 -0.000964065 0)
(0 -0.00272807 0)
(0 -0.000574714 0)
(0 -0.00118643 0)
(0 -5.09921e-05 0)
(0 -0.00112735 0)
(0 -0.00219558 0)
(0 -0.00222887 0)
(0 -0.00188109 0)
(0 -0.00116542 0)
(0 -0.00241788 0)
(0 -0.00198772 0)
(0 -0.0021717 0)
(0 -1.59909e-05 0)
(0 -0.00274924 0)
(0 -0.00046987 0)
(0 -0.00110069 0)
(0 -0.0021104 0)
(0 -0.00131522 0)
(0 -0.00158565 0)
(0 -0.00271052 0)
(0 -0.00214967 0)
(0 -0.00289396 0)
(0 -0.00012617 0)
(0 -0.00134246 0)
(0 -0.0023715 0)
(0 -0.000193096 0)
(0 -0.00201457 0)
(0 -0.00208115 0)
(0 -0.00031097 0)
(0 -0.00272358 0)
(0 -9.46675e-05 0)
(0 -0.000297323 0)
(0 -0.000272297 0)
(0 -0.000236861 0)
(0 -0.000402634 0)
(0 -0.001305 0)
(0 -0.00178791 0)
(0 -0.00294373 0)
(0 -0.000716534 0)
(0 -0.0013314 0)
(0 -0.00102076 0)
(0 -0.00248577 0)
(0 -0.00178863 0)
(0 -0.0011537 0)
(0 -0.00255339 0)
(0 -0.00137224 0)
(0 -0.000721067 0)
(0 -0.00299615 0)
(0 -0.00202501 0)
(0 -0.000205826 0)
(0 -0.00240719 0)
(0 -0.00297257 0)
(0 -0.000266323 0)
(0 -0.00117194 0)
(0 -0.00287381 0)
(0 -0.00298239 0)
(0 -0.00298182 0)
(0 -0.00273887 0)
(0 -0.000999586 0)
(0 -0.00118757 0)
(0 -9.24139e-06 0)
(0 -0.00194901 0)
(0 -0.00017537 0)
(0 -0.00135235 0)
(0 -0.00300745 0)
(0 -0.00142086 0)
(0 -6.5952e-05 0)
(0 -0.00245136 0)
(0 -0.00221624 0)
(0 -0.00289285 0)
(0 -0.00248505 0)
(0 -8.77445e-05 0)
(0 -0.00185517 0)
(0 -0.00270768 0)
(0 -0.00181412 0)
(0 -0.00225239 0)
(0 -0.00146782 0)
(0 -0.00239528 0)
(0 -0.00254587 0)
(0 -0.000151469 0)
(0 -0.0011113 0)
(0 -0.00151933 0)
(0 -0.00211785 0)
(0 -0.00238917 0)
(0 -0.00188231 0)
(0 -0.00253816 0)
(0 -0.000110223 0)
(0 -0.00148559 0)
(0 -0.00126305 0)
(0 -0.00124199 0)
(0 -0.00255244 0)
(0 -0.00152635 0)
(0 -0.00148359 0)
(0 -8.14648e-05 0)
(0 -0.00271725 0)
(0 -0.00237314 0)
(0 -0.000227803 0)
(0 -0.00246683 0)
(0 -0.0017331 0)
(0 -9.69662e-06 0)
(0 -0.00255629 0)
(0 -0.00124521 0)
(0 -0.00245976 0)
(0 -0.0010528 0)
(0 -0.00140696 0)
(0 -0.00283787 0)
(0 -0.0013861 0)
(0 -0.00251902 0)
(0 -0.00209274 0)
(0 -0.00176272 0)
(0 -3.62429e-06 0)
(0 -0.00156231 0)
(0 -0.00256697 0)
(0 -0.00176173 0)
(0 -0.00245306 0)
(0 -0.000864918 0)
(0 -0.00184001 0)
(0 -0.00248476 0)
(0 -0.00167679 0)
(0 -1.86517e-05 0)
(0 -0.00145539 0)
(0 -0.00172303 0)
(0 -0.0026244 0)
(0 -0.00157507 0)
(0 -0.00151272 0)
(0 -0.000218224 0)
(0 -0.000277311 0)
(0 -0.00121298 0)
(0 -0.000232819 0)
(0 -0.00153581 0)
(0 -0.00272658 0)
(0 -0.000439938 0)
(0 -0.00126528 0)
(0 -0.00122589 0)
(0 -0.00128099 0)
(0 -4.32924e-05 0)
(0 -0.00128663 0)
(0 -0.00147645 0)
(0 -0.00106835 0)
(0 -0.00158888 0)
(0 -2.07343e-05 0)
(0 -0.00156618 0)
(0 -0.00136105 0)
(0 -0.00144046 0)
(0 -6.78045e-06 0)
(0 -0.000109473 0)
(0 -0.00270021 0)
(0 -0.0012562 0)
(0 -0.000437724 0)
(0 -0.00179848 0)
(0 -0.00209404 0)
(0 -0.000990087 0)
(0 -0.00195486 0)
(0 -0.000116357 0)
(0 -0.00238772 0)
(0 -0.00181378 0)
(0 -0.00167898 0)
(0 -0.00106364 0)
(0 -0.00243199 0)
(0 -0.00240998 0)
(0 -0.00313102 0)
(0 -0.000106589 0)
(0 -0.0031358 0)
(0 -0.00173049 0)
(0 -0.0019068 0)
(0 -0.00149835 0)
(0 -5.85096e-05 0)
(0 -0.00184623 0)
(0 -0.00134664 0)
(0 -0.00049902 0)
(0 -0.00143729 0)
(0 -0.00127556 0)
(0 -0.00272329 0)
(0 -0.00304458 0)
(0 -0.00190624 0)
(0 -0.000715204 0)
(0 -0.0018493 0)
(0 -0.00160702 0)
(0 -0.0010103 0)
(0 -0.00170565 0)
(0 -0.000779057 0)
(0 -0.00296325 0)
(0 -0.00252243 0)
(0 -0.00297194 0)
(0 -0.00135732 0)
(0 -0.00165866 0)
(0 -0.00235819 0)
(0 -0.00139409 0)
(0 -0.000206569 0)
(0 -0.00158445 0)
(0 -0.00202648 0)
(0 -0.00252827 0)
(0 -0.00160898 0)
(0 -0.00154138 0)
(0 -6.26682e-05 0)
(0 -0.00239768 0)
(0 -0.00117113 0)
(0 -0.00269883 0)
(0 -0.00167277 0)
(0 -0.00141573 0)
(0 -0.00296732 0)
(0 -0.0029353 0)
(0 -0.00177947 0)
(0 -0.00165551 0)
(0 -0.000108147 0)
(0 -0.00249121 0)
(0 -0.00305366 0)
(0 -7.82395e-05 0)
(0 -0.00287841 0)
(0 -0.0014679 0)
(0 -0.00149889 0)
(0 -0.00173606 0)
(0 -0.000723473 0)
(0 -0.00186026 0)
(0 -0.00197795 0)
(0 -0.00251964 0)
(0 -0.0014179 0)
(0 -0.00143256 0)
(0 -0.00107175 0)
(0 -2.85199e-05 0)
(0 -2.73196e-05 0)
(0 -0.00141343 0)
(0 -0.000170821 0)
(0 -0.000900545 0)
(0 -0.0028898 0)
(0 -0.00118864 0)
(0 -0.00229918 0)
(0 -0.00256078 0)
(0 -0.00248951 0)
(0 -0.00270639 0)
(0 -0.00123227 0)
(0 -0.00227227 0)
(0 -0.00289466 0)
(0 -0.00220491 0)
(0 -0.00146319 0)
(0 -0.00166776 0)
(0 -0.00269978 0)
(0 -0.00149835 0)
(0 -0.000154393 0)
(0 -0.00203717 0)
(0 -0.00153338 0)
(0 -0.0010907 0)
(0 -0.000879912 0)
(0 -0.00212971 0)
(0 -0.00208765 0)
(0 -0.00234981 0)
(0 -0.00152974 0)
(0 -0.00265237 0)
(0 -0.0011696 0)
(0 -0.00188235 0)
(0 -0.00224669 0)
(0 -0.00112372 0)
(0 -0.00011473 0)
(0 -0.00165101 0)
(0 -4.60416e-05 0)
(0 -6.03595e-05 0)
(0 -0.00144242 0)
(0 -0.00205403 0)
(0 -0.00237144 0)
(0 -0.00119135 0)
(0 -0.000840429 0)
(0 -0.00193242 0)
(0 -0.00149682 0)
(0 -0.00016748 0)
(0 -0.000137926 0)
(0 -0.0016574 0)
(0 -0.00249917 0)
(0 -0.000408119 0)
(0 -0.000852081 0)
(0 -0.00266982 0)
(0 -6.23902e-05 0)
(0 -0.000172015 0)
(0 -0.000314854 0)
(0 -0.000846682 0)
(0 -0.0015171 0)
(0 -0.00205534 0)
(0 -0.00161644 0)
(0 -0.000421195 0)
(0 -0.00155641 0)
(0 -0.00122386 0)
(0 -0.00285571 0)
(0 -0.00245042 0)
(0 -0.000191366 0)
(0 -2.6115e-05 0)
(0 -0.00262083 0)
(0 -0.00182591 0)
(0 -0.00160367 0)
(0 -0.000547733 0)
(0 -0.00203432 0)
(0 -0.00145474 0)
(0 -0.00303103 0)
(0 -0.0028447 0)
(0 -0.000169725 0)
(0 -0.000238746 0)
(0 -0.00124428 0)
(0 -0.00193036 0)
(0 -0.0017912 0)
(0 -0.00263859 0)
(0 -0.0030205 0)
(0 -0.000249993 0)
(0 -0.00121548 0)
(0 -0.0018043 0)
(0 -0.00213591 0)
(0 -0.0019395 0)
(0 -0.00251316 0)
(0 -0.00183332 0)
(0 -0.00238243 0)
(0 -0.0018981 0)
(0 -0.00164644 0)
(0 -0.00220063 0)
(0 -0.000161844 0)
(0 -0.00175833 0)
(0 -0.000149029 0)
(0 -7.13928e-05 0)
(0 -0.000513962 0)
(0 -0.00185946 0)
(0 -0.00297666 0)
(0 -0.00139486 0)
(0 -0.000900633 0)
(0 -0.00125722 0)
(0 -0.00142767 0)
(0 -0.00251695 0)
(0 -0.0026871 0)
(0 -0.00096029 0)
(0 -0.00158853 0)
(0 -0.000267282 0)
(0 -0.00157718 0)
(0 -0.000192436 0)
(0 -0.00215785 0)
(0 -0.0016171 0)
(0 -0.00189806 0)
(0 -0.0021504 0)
(0 -0.00206343 0)
(0 -0.00249636 0)
(0 -0.00110618 0)
(0 -4.99705e-05 0)
(0 -0.00198105 0)
(0 -0.00166276 0)
(0 -0.00161278 0)
(0 -0.00179293 0)
(0 -0.00171272 0)
(0 -0.00212019 0)
(0 -0.00254341 0)
(0 -0.00310334 0)
(0 -0.00177422 0)
(0 -0.00228799 0)
(0 -5.24166e-05 0)
(0 -0.00122656 0)
(0 -0.0011966 0)
(0 -0.000748454 0)
(0 -0.00121025 0)
(0 -0.00200233 0)
(0 -0.00270009 0)
(0 -0.00168674 0)
(0 -0.000204797 0)
(0 -0.00189727 0)
(0 -0.00246826 0)
(0 -0.00015624 0)
(0 -0.00282909 0)
(0 -0.00269171 0)
(0 -0.00175008 0)
(0 -0.00169156 0)
(0 -0.00089133 0)
(0 -0.00233358 0)
(0 -0.00279596 0)
(0 -0.00180609 0)
(0 -0.00287554 0)
(0 -0.00131391 0)
(0 -8.64651e-05 0)
(0 -0.00205885 0)
(0 -0.0017375 0)
(0 -0.00308607 0)
(0 -0.000476363 0)
(0 -0.00189372 0)
(0 -7.39268e-05 0)
(0 -0.000251414 0)
(0 -0.00112244 0)
(0 -0.00174933 0)
(0 -0.00205047 0)
(0 -0.00311064 0)
(0 -0.0017108 0)
(0 -0.000767857 0)
(0 -0.00203624 0)
(0 -0.00172558 0)
(0 -0.00104307 0)
(0 -0.000101788 0)
(0 -0.000278977 0)
(0 -0.00156181 0)
(0 -0.00143244 0)
(0 -0.00201086 0)
(0 -0.00125528 0)
(0 -0.00151284 0)
(0 -0.00218218 0)
(0 -0.000823869 0)
(0 -0.00241682 0)
(0 -0.00233413 0)
(0 -0.0020224 0)
(0 -0.000786215 0)
(0 -0.00146852 0)
(0 -0.00189482 0)
(0 -0.00130674 0)
(0 -0.00246317 0)
(0 -0.00119186 0)
(0 -0.00219976 0)
(0 -0.00290435 0)
(0 -0.00179735 0)
(0 -0.00290287 0)
(0 -0.00243411 0)
(0 -0.00236219 0)
(0 -0.00130446 0)
(0 -0.00201928 0)
(0 -0.000414836 0)
(0 -0.00195572 0)
(0 -0.000987413 0)
(0 -0.00169968 0)
(0 -0.00267049 0)
(0 -0.00183022 0)
(0 -0.00095372 0)
(0 -0.00136051 0)
(0 -0.000419021 0)
(0 -0.00198024 0)
(0 -0.000682097 0)
(0 -0.00233887 0)
(0 -0.00124224 0)
(0 -0.00236222 0)
(0 -0.00243932 0)
(0 -0.00301427 0)
(0 -0.000188776 0)
(0 -0.00246982 0)
(0 -0.000187381 0)
(0 -0.001729 0)
(0 -0.00302352 0)
(0 -0.00234855 0)
(0 -0.00123356 0)
(0 -0.00104736 0)
(0 -0.00244826 0)
(0 -0.00186364 0)
(0 -0.00221457 0)
(0 -0.00271555 0)
(0 -0.00108498 0)
(0 -0.00298381 0)
(0 -0.00251278 0)
(0 -0.0011167 0)
(0 -0.00229472 0)
(0 -0.00138919 0)
(0 -0.0015024 0)
(0 -8.71964e-05 0)
(0 -0.00259386 0)
(0 -0.000257872 0)
(0 -0.00285282 0)
(0 -0.000921445 0)
(0 -0.00160157 0)
(0 -0.00253666 0)
(0 -0.00159133 0)
(0 -0.00151664 0)
(0 -0.000151021 0)
(0 -0.00251379 0)
(0 -0.00133467 0)
(0 -0.00306764 0)
(0 -0.0015569 0)
(0 -0.00196451 0)
(0 -4.36714e-05 0)
(0 -0.000152272 0)
(0 -4.68473e-05 0)
(0 -0.00249264 0)
(0 -0.00232376 0)
(0 -0.00248652 0)
(0 -0.00282511 0)
(0 -0.000773322 0)
(0 -0.000365191 0)
(0 -0.00270925 0)
(0 -0.00177348 0)
(0 -0.000416131 0)
(0 -0.00106473 0)
(0 -0.00286435 0)
(0 -0.00267173 0)
(0 -0.00176585 0)
(0 -0.00297389 0)
(0 -0.00299816 0)
(0 -8.99438e-05 0)
(0 -8.4055e-05 0)
(0 -0.00189812 0)
(0 -0.00269204 0)
(0 -0.00199279 0)
(0 -0.000220711 0)
(0 -0.000249238 0)
(0 -0.00240292 0)
(0 -0.00239121 0)
(0 -0.00217419 0)
(0 -2.12901e-05 0)
(0 -0.00111953 0)
(0 -0.000115108 0)
(0 -0.00302875 0)
(0 -0.00180587 0)
(0 -0.00136981 0)
(0 -0.00242368 0)
(0 -0.00246235 0)
(0 -0.00257652 0)
(0 -0.00267088 0)
(0 -0.00265027 0)
(0 -0.000936746 0)
(0 -0.00226469 0)
(0 -0.00106346 0)
(0 -0.00157724 0)
(0 -0.00117547 0)
(0 -0.00280793 0)
(0 -0.00189765 0)
(0 -0.00135389 0)
(0 -0.00073016 0)
(0 -0.00267402 0)
(0 -0.0016661 0)
(0 -0.00248764 0)
(0 -0.00073149 0)
(0 -0.00212603 0)
(0 -0.00160614 0)
(0 -0.000588945 0)
(0 -0.00207896 0)
(0 -0.00287316 0)
(0 -0.000869941 0)
(0 -0.00182043 0)
(0 -0.00247172 0)
(0 -0.00245242 0)
(0 -0.00229608 0)
(0 -0.00172864 0)
(0 -3.37567e-05 0)
(0 -0.000513806 0)
(0 -0.00258412 0)
(0 -0.000745853 0)
(0 -0.000878288 0)
(0 -0.00278373 0)
(0 -0.00140064 0)
(0 -0.00213509 0)
(0 -0.00159956 0)
(0 -0.00226054 0)
(0 -3.06172e-05 0)
(0 -0.000949656 0)
(0 -0.00307222 0)
(0 -0.00151445 0)
(0 -0.000517434 0)
(0 -8.47957e-05 0)
(0 -0.00248424 0)
(0 -0.00159747 0)
(0 -0.00309648 0)
(0 -0.00185153 0)
(0 -0.00222662 0)
(0 -0.0022011 0)
(0 -0.000215008 0)
(0 -0.00272787 0)
(0 -0.00298461 0)
(0 -0.00291232 0)
(0 -0.00110714 0)
(0 -0.00116402 0)
(0 -0.00267826 0)
(0 -0.00153254 0)
(0 -8.8198e-05 0)
(0 -0.00113561 0)
(0 -0.00275524 0)
(0 -0.00180521 0)
(0 -0.00184608 0)
(0 -0.00304039 0)
(0 -0.000620021 0)
(0 -0.00158694 0)
(0 -0.000209892 0)
(0 -0.00143926 0)
(0 -0.00224942 0)
(0 -0.000546467 0)
(0 -0.000687558 0)
(0 -0.000152628 0)
(0 -0.00150966 0)
(0 -0.00168937 0)
(0 -0.00132635 0)
(0 -0.00194651 0)
(0 -0.00147791 0)
(0 -0.00209735 0)
(0 -0.00207917 0)
(0 -0.00183709 0)
(0 -0.000817083 0)
(0 -0.0026144 0)
(0 -0.00233426 0)
(0 -0.000752107 0)
(0 -0.000228844 0)
(0 -0.00195689 0)
(0 -0.00153071 0)
(0 -0.00154981 0)
(0 -0.00209559 0)
(0 -0.00278545 0)
(0 -0.00156757 0)
(0 -0.00139299 0)
(0 -0.00166298 0)
(0 -0.00136967 0)
(0 -0.00250701 0)
(0 -0.0019949 0)
(0 -0.00155856 0)
(0 -0.0021394 0)
(0 -0.00197975 0)
(0 -0.00316841 0)
(0 -0.00199432 0)
(0 -0.0019845 0)
(0 -0.00129101 0)
(0 -0.000275242 0)
(0 -0.00151324 0)
(0 -0.0017002 0)
(0 -0.0026822 0)
(0 -0.00272087 0)
(0 -0.00221149 0)
(0 -0.00180466 0)
(0 -1.03733e-05 0)
(0 -0.00233967 0)
(0 -0.0017944 0)
(0 -0.000817026 0)
(0 -0.00213756 0)
(0 -0.000274088 0)
(0 -0.00145681 0)
(0 -0.000125333 0)
(0 -0.00171306 0)
(0 -0.00215638 0)
(0 -0.00138135 0)
(0 -0.00112768 0)
(0 -0.000170019 0)
(0 -0.0020081 0)
(0 -0.00149989 0)
(0 -0.00150257 0)
(0 -0.000612461 0)
(0 -9.29634e-05 0)
(0 -0.000642467 0)
(0 -0.00209747 0)
(0 -0.00198163 0)
(0 -0.000670382 0)
(0 -0.00137907 0)
(0 -0.000278772 0)
(0 -0.000182631 0)
(0 -0.00155898 0)
(0 -0.0030413 0)
(0 -0.00114215 0)
(0 -0.000769895 0)
(0 -0.000935658 0)
(0 -0.000101105 0)
(0 -0.00256044 0)
(0 -0.000544471 0)
(0 -0.00274693 0)
(0 -0.000217465 0)
(0 -4.62302e-05 0)
(0 -0.000696864 0)
(0 -0.00170412 0)
(0 -0.000912292 0)
(0 -0.00114873 0)
(0 -0.00278121 0)
(0 -0.00286139 0)
(0 -0.00253199 0)
(0 -0.00161457 0)
(0 -0.00259732 0)
(0 -0.00210571 0)
(0 -0.000717816 0)
(0 -8.33602e-05 0)
(0 -0.00302638 0)
(0 -0.00133083 0)
(0 -0.00153272 0)
(0 -0.000724076 0)
(0 -0.00159296 0)
(0 -0.00154209 0)
(0 -0.00247508 0)
(0 -0.000822796 0)
(0 -0.00307593 0)
(0 -0.00175563 0)
(0 -0.00115273 0)
(0 -0.00195914 0)
(0 -0.00177038 0)
(0 -0.00201241 0)
(0 -0.000516561 0)
(0 -0.00280238 0)
(0 -0.00238237 0)
(0 -0.00174716 0)
(0 -0.00111286 0)
(0 -0.00204515 0)
(0 -0.00265305 0)
(0 -0.000943385 0)
(0 -0.000618653 0)
(0 -0.00181511 0)
(0 -0.0015723 0)
(0 -0.00211964 0)
(0 -0.00275078 0)
(0 -0.00153858 0)
(0 -0.00285504 0)
(0 -0.00146148 0)
(0 -0.00228123 0)
(0 -0.00258222 0)
(0 -0.00304667 0)
(0 -0.00121109 0)
(0 -0.000895644 0)
(0 -0.000154194 0)
(0 -0.00241388 0)
(0 -0.000669843 0)
(0 -0.00253989 0)
(0 -0.000666691 0)
(0 -0.00258324 0)
(0 -0.00128554 0)
(0 -0.00189881 0)
(0 -0.00102606 0)
(0 -0.00172699 0)
(0 -0.00107725 0)
(0 -0.00315555 0)
(0 -0.00178169 0)
(0 -0.00309434 0)
(0 -0.0025663 0)
(0 -0.00071023 0)
(0 -0.000686348 0)
(0 -9.6191e-05 0)
(0 -0.00181323 0)
(0 -0.00224905 0)
(0 -0.00278814 0)
(0 -0.00051068 0)
(0 -0.00148022 0)
(0 -0.00164974 0)
(0 -0.00178763 0)
(0 -0.00178218 0)
(0 -0.00227395 0)
(0 -0.000625035 0)
(0 -0.000338733 0)
(0 -0.0014854 0)
(0 -0.00121039 0)
(0 -0.00237864 0)
(0 -0.00233746 0)
(0 -0.000577948 0)
(0 -0.00169348 0)
(0 -0.000790221 0)
(0 -0.0028026 0)
(0 -0.00211602 0)
(0 -0.000171618 0)
(0 -0.00254748 0)
(0 -0.00163249 0)
(0 -0.000737637 0)
(0 -0.00149237 0)
(0 -0.00266108 0)
(0 -0.00308114 0)
(0 -0.00286293 0)
(0 -0.00230081 0)
(0 -0.000210766 0)
(0 -0.0019268 0)
(0 -0.00288332 0)
(0 -0.00136039 0)
(0 -0.00134291 0)
(0 -0.00155756 0)
(0 -0.00061214 0)
(0 -0.0030532 0)
(0 -0.000896265 0)
(0 -0.00308907 0)
(0 -0.00129146 0)
(0 -0.00257595 0)
(0 -0.00172254 0)
(0 -0.00148462 0)
(0 -0.00191814 0)
(0 -0.00170428 0)
(0 -0.00148039 0)
(0 -0.00153577 0)
(0 -0.00154927 0)
(0 -0.0006419 0)
(0 -0.000751299 0)
(0 -0.00262081 0)
(0 -0.00151644 0)
(0 -0.00315077 0)
(0 -0.00188492 0)
(0 -0.00309562 0)
(0 -0.0015996 0)
(0 -0.00168999 0)
(0 -0.00218688 0)
(0 -0.00250693 0)
(0 -0.00198317 0)
(0 -0.000599481 0)
(0 -0.00141595 0)
(0 -0.00270142 0)
(0 -0.0030558 0)
(0 -0.00214261 0)
(0 -0.00153039 0)
(0 -0.00201335 0)
(0 -0.00199511 0)
(0 -0.00175995 0)
(0 -0.000542813 0)
(0 -0.00010104 0)
(0 -0.000736888 0)
(0 -0.00185587 0)
(0 -0.00108125 0)
(0 -0.00231827 0)
(0 -0.000251598 0)
(0 -0.00015179 0)
(0 -0.000614535 0)
(0 -0.00112348 0)
(0 -0.000980961 0)
(0 -0.00187515 0)
(0 -0.000203589 0)
(0 -1.72866e-05 0)
(0 -0.000636952 0)
(0 -0.00153173 0)
(0 -0.000139725 0)
(0 -0.00140802 0)
(0 -0.00197595 0)
(0 -0.00155511 0)
(0 -0.00147989 0)
(0 -0.00105941 0)
(0 -0.002477 0)
(0 -0.00156038 0)
(0 -0.00151098 0)
(0 -0.000219518 0)
(0 -0.00307012 0)
(0 -0.000123283 0)
(0 -0.00270103 0)
(0 -0.00209746 0)
(0 -0.00226616 0)
(0 -0.000699259 0)
(0 -0.00134612 0)
(0 -0.00151274 0)
(0 -0.00310978 0)
(0 -0.000907581 0)
(0 -0.0030765 0)
(0 -0.00226619 0)
(0 -0.00151012 0)
(0 -0.000231577 0)
(0 -0.000680367 0)
(0 -0.00179837 0)
(0 -0.0018358 0)
(0 -0.00156826 0)
(0 -0.00118394 0)
(0 -0.00193142 0)
(0 -0.00143626 0)
(0 -0.00274545 0)
(0 -0.0024231 0)
(0 -0.000173288 0)
(0 -0.00187138 0)
(0 -0.00186079 0)
(0 -0.00146933 0)
(0 -0.00198718 0)
(0 -0.0001041 0)
(0 -0.00210713 0)
(0 -0.000714464 0)
(0 -0.00276461 0)
(0 -0.000947265 0)
(0 -8.94692e-05 0)
(0 -0.000591817 0)
(0 -0.00151027 0)
(0 -0.00148849 0)
(0 -0.00117958 0)
(0 -0.00243278 0)
(0 -0.00276905 0)
(0 -0.000701543 0)
(0 -0.000663322 0)
(0 -0.00161624 0)
(0 -0.00217652 0)
(0 -0.00088718 0)
(0 -0.000206423 0)
(0 -0.00136694 0)
(0 -0.00172396 0)
(0 -0.000660593 0)
(0 -0.00283612 0)
(0 -0.000634427 0)
(0 -0.00192804 0)
(0 -0.00142494 0)
(0 -0.00139152 0)
(0 -0.00234217 0)
(0 -0.00312868 0)
(0 -0.00112285 0)
(0 -0.00256355 0)
(0 -0.00258858 0)
(0 -0.000564923 0)
(0 -0.000204629 0)
(0 -0.00296932 0)
(0 -0.00211915 0)
(0 -0.00179205 0)
(0 -0.00184122 0)
(0 -0.000139393 0)
(0 -0.00204691 0)
(0 -0.000642606 0)
(0 -0.00233002 0)
(0 -0.00285283 0)
(0 -0.000623707 0)
(0 -0.00189188 0)
(0 -0.00211315 0)
(0 -0.000912217 0)
(0 -0.00249885 0)
(0 -0.00253697 0)
(0 -0.00125846 0)
(0 -0.000649281 0)
(0 -0.000652784 0)
(0 -0.00122096 0)
(0 -0.0021769 0)
(0 -0.00141855 0)
(0 -0.00230025 0)
(0 -0.000933759 0)
(0 -0.0014408 0)
(0 -0.00234956 0)
(0 -0.000597975 0)
(0 -2.19475e-05 0)
(0 -1.91979e-05 0)
(0 -0.0010332 0)
(0 -0.00247219 0)
(0 -0.00181972 0)
(0 -0.00118565 0)
(0 -0.00261495 0)
(0 -0.00143997 0)
(0 -0.00185441 0)
(0 -0.00258335 0)
(0 -0.00225842 0)
(0 -0.00255127 0)
(0 -0.00150444 0)
(0 -0.00122027 0)
(0 -0.00197141 0)
(0 -0.00207478 0)
(0 -0.00234888 0)
(0 -0.00134725 0)
(0 -0.000565773 0)
(0 -0.00183366 0)
(0 -0.00276408 0)
(0 -0.00168657 0)
(0 -0.000108156 0)
(0 -0.000946275 0)
(0 -0.00127354 0)
(0 -0.00177902 0)
(0 -0.000346629 0)
(0 -0.00132469 0)
(0 -0.00156638 0)
(0 -0.00269064 0)
(0 -0.00188229 0)
(0 -0.00139447 0)
(0 -0.00214183 0)
(0 -0.00143293 0)
(0 -0.001898 0)
(0 -0.000870491 0)
(0 -0.00218514 0)
(0 -0.00110622 0)
(0 -0.00304166 0)
(0 -0.000982046 0)
(0 -0.00216504 0)
(0 -0.00156307 0)
(0 -0.0019451 0)
(0 -0.00292735 0)
(0 -0.00191738 0)
(0 -0.000673054 0)
(0 -0.00183268 0)
(0 -0.00153762 0)
(0 -0.00251499 0)
(0 -0.000225678 0)
(0 -0.00306456 0)
(0 -0.0014914 0)
(0 -0.0012497 0)
(0 -0.00308788 0)
(0 -0.00151642 0)
(0 -0.00281669 0)
(0 -0.00185107 0)
(0 -0.00145767 0)
(0 -0.00148837 0)
(0 -0.0013794 0)
(0 -0.000768674 0)
(0 -0.00166168 0)
(0 -0.00238768 0)
(0 -0.00259611 0)
(0 -0.000788587 0)
(0 -0.00170607 0)
(0 -0.000363505 0)
(0 -0.000643698 0)
(0 -0.00311664 0)
(0 -0.00175192 0)
(0 -0.00193194 0)
(0 -0.00144964 0)
(0 -3.61352e-05 0)
(0 -0.000596857 0)
(0 -0.00159546 0)
(0 -0.0024418 0)
(0 -0.00113759 0)
(0 -0.000676691 0)
(0 -0.00314639 0)
(0 -0.00174844 0)
(0 -0.00224478 0)
(0 -0.000600028 0)
(0 -0.00207388 0)
(0 -0.00209573 0)
(0 -0.00127166 0)
(0 -0.00219954 0)
(0 -0.0020394 0)
(0 -0.0027288 0)
(0 -0.00315893 0)
(0 -0.00162474 0)
(0 -1.19851e-05 0)
(0 -0.00212612 0)
(0 -0.00307618 0)
(0 -0.00174496 0)
(0 -0.00276878 0)
(0 -0.00189396 0)
(0 -0.00180725 0)
(0 -0.000882019 0)
(0 -0.00184165 0)
(0 -0.00182343 0)
(0 -0.00204047 0)
(0 -0.00177171 0)
(0 -0.00289421 0)
(0 -0.00271508 0)
(0 -0.00187185 0)
(0 -0.00285094 0)
(0 -0.00137129 0)
(0 -0.00129397 0)
(0 -0.00267221 0)
(0 -0.00203014 0)
(0 -0.00216285 0)
(0 -0.00144797 0)
(0 -0.00252666 0)
(0 -0.000228487 0)
(0 -0.00177268 0)
(0 -0.0027292 0)
(0 -0.00062576 0)
(0 -0.00113674 0)
(0 -0.00141491 0)
(0 -0.000879347 0)
(0 -0.00183251 0)
(0 -0.00113067 0)
(0 -0.00310787 0)
(0 -0.00187151 0)
(0 -0.00316623 0)
(0 -0.00280379 0)
(0 -0.00051236 0)
(0 -0.00310777 0)
(0 -0.00272993 0)
(0 -0.00115437 0)
(0 -0.00260832 0)
(0 -0.00114248 0)
(0 -0.00306062 0)
(0 -0.00184501 0)
(0 -0.00120227 0)
(0 -0.00213402 0)
(0 -0.0029833 0)
(0 -0.00119254 0)
(0 -0.00174824 0)
(0 -0.00174811 0)
(0 -0.00164041 0)
(0 -0.000680084 0)
(0 -0.00204924 0)
(0 -0.00258729 0)
(0 -0.000242589 0)
(0 -0.00273442 0)
(0 -0.0015628 0)
(0 -0.00209665 0)
(0 -0.00017779 0)
(0 -0.00151165 0)
(0 -0.000745831 0)
(0 -0.00282516 0)
(0 -0.0021769 0)
(0 -0.000200447 0)
(0 -0.000917332 0)
(0 -0.00242707 0)
(0 -0.00313869 0)
(0 -0.00145511 0)
(0 -0.000956997 0)
(0 -0.0017451 0)
(0 -0.00144712 0)
(0 -0.000797845 0)
(0 -0.00218461 0)
(0 -0.000365947 0)
(0 -0.00218426 0)
(0 -0.00171853 0)
(0 -0.000852485 0)
(0 -0.00132552 0)
(0 -0.000478795 0)
(0 -0.000745485 0)
(0 -0.00160277 0)
(0 -5.41937e-05 0)
(0 -0.0024257 0)
(0 -0.00133653 0)
(0 -0.00219744 0)
(0 -0.00186061 0)
(0 -0.00219656 0)
(0 -0.00173548 0)
(0 -0.00223336 0)
(0 -0.00284393 0)
(0 -0.00266853 0)
(0 -0.0026674 0)
(0 -0.00223532 0)
(0 -0.00155782 0)
(0 -0.00047834 0)
(0 -0.00162046 0)
(0 -0.000483956 0)
(0 -0.000476275 0)
(0 -0.000816953 0)
(0 -0.00193911 0)
(0 -0.00276371 0)
(0 -0.00189457 0)
(0 -0.000471033 0)
(0 -0.00181371 0)
(0 -0.0029149 0)
(0 -5.02978e-05 0)
(0 -0.00159559 0)
(0 -0.000811719 0)
(0 -0.00241923 0)
(0 -0.00308194 0)
(0 -0.000490076 0)
(0 -0.00162788 0)
(0 -0.00182085 0)
(0 -0.00267386 0)
(0 -0.00164859 0)
(0 -0.00252301 0)
(0 -0.00191682 0)
(0 -0.00163422 0)
(0 -0.00156653 0)
(0 -0.00155291 0)
(0 -0.000626578 0)
(0 -2.70575e-05 0)
(0 -0.00125725 0)
(0 -0.00292924 0)
(0 -0.000494053 0)
(0 -0.00139772 0)
(0 -0.000493535 0)
(0 -0.00122034 0)
(0 -0.00148442 0)
(0 -0.00209535 0)
(0 -0.000396049 0)
(0 -0.00114637 0)
(0 -0.00296926 0)
(0 -0.00142366 0)
(0 -0.00111566 0)
(0 -0.00151342 0)
(0 -0.00148138 0)
(0 -0.00134785 0)
(0 -0.00272426 0)
(0 -0.000199462 0)
(0 -0.000253526 0)
(0 -0.0014401 0)
(0 -0.00258274 0)
(0 -0.00169983 0)
(0 -0.000744239 0)
(0 -0.00221178 0)
(0 -0.00316193 0)
(0 -9.18971e-05 0)
(0 -0.00138837 0)
(0 -0.0016965 0)
(0 -0.00182499 0)
(0 -0.00175944 0)
(0 -0.00251154 0)
(0 -0.00307765 0)
(0 -0.00149665 0)
(0 -0.00258029 0)
(0 -0.00091289 0)
(0 -0.0013862 0)
(0 -0.00137755 0)
(0 -0.000602126 0)
(0 -0.00109855 0)
(0 -0.000545738 0)
(0 -0.000495318 0)
(0 -0.000105863 0)
(0 -0.00172745 0)
(0 -0.000468584 0)
(0 -0.00139344 0)
(0 -0.00138485 0)
(0 -0.00110897 0)
(0 -0.00146567 0)
(0 -0.000459092 0)
(0 -0.00100249 0)
(0 -0.0015 0)
(0 -0.000474958 0)
(0 -0.00293385 0)
(0 -0.00222812 0)
(0 -0.000187184 0)
(0 -0.00121035 0)
(0 -0.00129155 0)
(0 -0.000564756 0)
(0 -0.000684992 0)
(0 -0.000954329 0)
(0 -0.00150089 0)
(0 -0.00066103 0)
(0 -0.00163902 0)
(0 -0.00119861 0)
(0 -0.0017278 0)
(0 -0.00173991 0)
(0 -0.00301486 0)
(0 -0.00106678 0)
(0 -0.00259485 0)
(0 -0.00114455 0)
(0 -0.000622412 0)
(0 -0.000703333 0)
(0 -0.00114794 0)
(0 -0.000491684 0)
(0 -0.00176498 0)
(0 -0.000748638 0)
(0 -0.00307035 0)
(0 -0.00255402 0)
(0 -0.00203336 0)
(0 -0.00214525 0)
(0 -0.00128439 0)
(0 -0.000894829 0)
(0 -0.000263402 0)
(0 -0.000110588 0)
(0 -0.00220103 0)
(0 -0.00214876 0)
(0 -0.000116975 0)
(0 -0.00248489 0)
(0 -0.00230546 0)
(0 -0.00157491 0)
(0 -0.000627028 0)
(0 -0.00214652 0)
(0 -0.00234206 0)
(0 -0.000509614 0)
(0 -0.00196414 0)
(0 -0.00316524 0)
(0 -0.00263811 0)
(0 -0.000486331 0)
(0 -0.000564417 0)
(0 -0.000541072 0)
(0 -0.00300352 0)
(0 -0.00134725 0)
(0 -0.00201601 0)
(0 -0.000591819 0)
(0 -0.00156788 0)
(0 -0.00145804 0)
(0 -0.00186396 0)
(0 -0.00131726 0)
(0 -0.00159023 0)
(0 -0.00169949 0)
(0 -0.00126383 0)
(0 -0.00125397 0)
(0 -0.00135834 0)
(0 -0.000713485 0)
(0 -0.00170915 0)
(0 -3.25728e-05 0)
(0 -0.00154658 0)
(0 -0.00044641 0)
(0 -0.00222867 0)
(0 -0.00171142 0)
(0 -0.00210685 0)
(0 -0.00115907 0)
(0 -0.00259565 0)
(0 -5.4724e-05 0)
(0 -0.00153512 0)
(0 -0.00179243 0)
(0 -0.00112025 0)
(0 -0.00166914 0)
(0 -0.00105209 0)
(0 -0.00311271 0)
(0 -0.00145266 0)
(0 -0.00142041 0)
(0 -0.00257639 0)
(0 -0.00107284 0)
(0 -0.000474758 0)
(0 -0.00111416 0)
(0 -0.00195023 0)
(0 -0.00118513 0)
(0 -0.00166912 0)
(0 -0.000730366 0)
(0 -0.00224117 0)
(0 -0.00137283 0)
(0 -0.00249769 0)
(0 -0.000207476 0)
(0 -0.00147472 0)
(0 -0.00113993 0)
(0 -0.00207382 0)
(0 -0.00303233 0)
(0 -0.0006871 0)
(0 -0.00279043 0)
(0 -0.000602089 0)
(0 -0.00308588 0)
(0 -0.00166227 0)
(0 -0.00149848 0)
(0 -0.00263329 0)
(0 -0.00131041 0)
(0 -0.00254092 0)
(0 -0.00062623 0)
(0 -0.000796298 0)
(0 -0.000533358 0)
(0 -0.00149327 0)
(0 -0.00156124 0)
(0 -0.000763609 0)
(0 -0.000634554 0)
(0 -0.00117478 0)
(0 -0.000576792 0)
(0 -0.00161444 0)
(0 -0.000210379 0)
(0 -0.00152825 0)
(0 -0.0021511 0)
(0 -0.000987575 0)
(0 -0.00270434 0)
(0 -0.000756697 0)
(0 -0.00102317 0)
(0 -0.00047796 0)
(0 -0.000522592 0)
(0 -0.00294606 0)
(0 -0.00166315 0)
(0 -0.0012904 0)
(0 -0.00161111 0)
(0 -0.000663835 0)
(0 -0.00188306 0)
(0 -0.00165127 0)
(0 -0.0030652 0)
(0 -0.00165941 0)
(0 -0.00242741 0)
(0 -0.0027864 0)
(0 -0.000104818 0)
(0 -0.00148846 0)
(0 -0.00163263 0)
(0 -0.00300007 0)
(0 -0.0015098 0)
(0 -0.00280776 0)
(0 -0.0012293 0)
(0 -0.00177572 0)
(0 -0.00164484 0)
(0 -0.00277536 0)
(0 -0.00212398 0)
(0 -0.000720497 0)
(0 -0.00268106 0)
(0 -0.000103561 0)
(0 -0.00189325 0)
(0 -0.00115215 0)
(0 -0.00130852 0)
(0 -0.00194554 0)
(0 -0.00131566 0)
(0 -0.00151701 0)
(0 -0.00132766 0)
(0 -0.00105499 0)
(0 -0.00128526 0)
(0 -0.000113945 0)
(0 -0.00155128 0)
(0 -0.00268976 0)
(0 -0.00169921 0)
(0 -0.00156951 0)
(0 -0.000973837 0)
(0 -0.00159209 0)
(0 -0.00105604 0)
(0 -0.00129509 0)
(0 -0.00110643 0)
(0 -0.00156399 0)
(0 -0.00160527 0)
(0 -0.000874789 0)
(0 -0.00172354 0)
(0 -0.00152601 0)
(0 -0.00126435 0)
(0 -0.000731958 0)
(0 -0.000659032 0)
(0 -0.00117545 0)
(0 -0.000108516 0)
(0 -0.00149721 0)
(0 -0.00147005 0)
(0 -0.00167573 0)
(0 -0.00290077 0)
(0 -8.90941e-05 0)
(0 -0.0015182 0)
(0 -0.00179141 0)
(0 -0.00251016 0)
(0 -0.00166505 0)
(0 -0.0017116 0)
(0 -0.00145876 0)
(0 -0.00062081 0)
(0 -0.00110376 0)
(0 -0.00106736 0)
(0 -0.00269842 0)
(0 -0.00151698 0)
(0 -0.0013549 0)
(0 -0.00124289 0)
(0 -0.00113353 0)
(0 -0.00206099 0)
(0 -0.000488223 0)
(0 -0.00128487 0)
(0 -0.00166551 0)
(0 -0.00167663 0)
(0 -0.00142538 0)
(0 -0.00147926 0)
(0 -0.00220391 0)
(0 -0.00188726 0)
(0 -0.00179096 0)
(0 -0.00168 0)
(0 -0.00207559 0)
(0 -5.15917e-05 0)
(0 -0.000817797 0)
(0 -0.000539044 0)
(0 -0.000938096 0)
(0 -0.000115438 0)
(0 -0.00134627 0)
(0 -0.00112874 0)
(0 -0.00132671 0)
(0 -0.00152482 0)
(0 -0.00145863 0)
(0 -0.0014263 0)
(0 -0.0016469 0)
(0 -0.00184292 0)
(0 -0.00166513 0)
(0 -0.00213082 0)
(0 -0.00122177 0)
(0 -0.00115009 0)
(0 -0.00168013 0)
(0 -0.000160364 0)
(0 -0.0021781 0)
(0 -5.33554e-05 0)
(0 -0.00211591 0)
(0 -0.00186535 0)
(0 -0.00161285 0)
(0 -0.000653749 0)
(0 -0.00132047 0)
(0 -0.00188702 0)
(0 -0.00184698 0)
(0 -0.000924746 0)
(0 -0.00159004 0)
(0 -0.00069508 0)
(0 -0.0015154 0)
(0 -0.00176704 0)
(0 -3.78857e-05 0)
(0 -0.000739225 0)
(0 -0.00153833 0)
(0 -0.00108182 0)
(0 -0.000786094 0)
(0 -0.00200181 0)
(0 -0.0016082 0)
(0 -0.00165414 0)
(0 -0.00146253 0)
(0 -0.00114924 0)
(0 -0.000207503 0)
(0 -0.00135214 0)
(0 -0.00300218 0)
(0 -0.00163891 0)
(0 -0.00187462 0)
(0 -0.00130475 0)
(0 -0.0015361 0)
(0 -0.000914682 0)
(0 -0.00200806 0)
(0 -0.001321 0)
(0 -0.00196851 0)
(0 -0.00133112 0)
(0 -0.00111416 0)
(0 -0.00138803 0)
(0 -0.000106025 0)
(0 -0.000948609 0)
(0 -0.00172543 0)
(0 -0.00317421 0)
(0 -0.00277521 0)
(0 -0.00116155 0)
(0 -0.00199789 0)
(0 -0.00126534 0)
(0 -0.00192185 0)
(0 -0.000263985 0)
(0 -0.00148035 0)
(0 -0.00173342 0)
(0 -0.0018531 0)
(0 -0.00021852 0)
(0 -0.00185886 0)
(0 -0.00183228 0)
(0 -0.000793493 0)
(0 -0.00187656 0)
(0 -0.00177985 0)
(0 -0.00206963 0)
(0 -0.000616268 0)
(0 -0.00308584 0)
(0 -0.000901436 0)
(0 -0.00106708 0)
(0 -0.0017023 0)
(0 -0.00149629 0)
(0 -0.00203689 0)
(0 -0.00225117 0)
(0 -0.0013905 0)
(0 -0.00115545 0)
(0 -0.00305457 0)
(0 -0.00180854 0)
(0 -0.00098989 0)
(0 -0.00202695 0)
(0 -0.0019288 0)
(0 -0.00195213 0)
(0 -0.0012165 0)
(0 -0.00185926 0)
(0 -0.00146615 0)
(0 -0.00158765 0)
(0 -0.00139817 0)
(0 -0.00277121 0)
(0 -0.00258214 0)
(0 -0.00137349 0)
(0 -0.00119032 0)
(0 -0.000654972 0)
(0 -0.0015656 0)
(0 -0.00138799 0)
(0 -0.00167717 0)
(0 -0.00181586 0)
(0 -0.00130966 0)
(0 -0.0021751 0)
(0 -0.00306416 0)
(0 -0.0019079 0)
(0 -0.00191777 0)
(0 -0.00169593 0)
(0 -0.000107531 0)
(0 -0.00142284 0)
(0 -0.00162585 0)
(0 -0.00135802 0)
(0 -0.00117708 0)
(0 -0.000439542 0)
(0 -0.00190285 0)
(0 -0.00270074 0)
(0 -0.00170061 0)
(0 -0.00158681 0)
(0 -0.00172936 0)
(0 -0.00176427 0)
(0 -0.000659034 0)
(0 -0.00116355 0)
(0 -0.00144288 0)
(0 -0.00177483 0)
(0 -0.00304478 0)
(0 -0.00133897 0)
(0 -0.00167747 0)
(0 -0.00228876 0)
(0 -0.00153193 0)
(0 -0.00122719 0)
(0 -0.00203818 0)
(0 -0.00126524 0)
(0 -0.00178797 0)
(0 -0.00193576 0)
(0 -0.00172018 0)
(0 -0.00220501 0)
(0 -0.00260075 0)
(0 -0.001783 0)
(0 -0.00123957 0)
(0 -0.00162899 0)
(0 -0.000352254 0)
(0 -0.00132137 0)
(0 -0.00202121 0)
(0 -0.000623766 0)
(0 -0.00220536 0)
(0 -0.00158688 0)
(0 -0.00138884 0)
(0 -0.00211572 0)
(0 -0.00211267 0)
(0 -0.00151365 0)
(0 -0.00203238 0)
(0 -0.00231211 0)
(0 -0.00184784 0)
(0 -0.002799 0)
(0 -0.00159454 0)
(0 -0.00165765 0)
(0 -0.00129987 0)
(0 -0.00241234 0)
(0 -0.00161963 0)
(0 -0.00215626 0)
(0 -0.00181062 0)
(0 -0.00209624 0)
(0 -0.00299994 0)
(0 -0.00166725 0)
(0 -0.000647959 0)
(0 -0.0011507 0)
(0 -0.00227712 0)
(0 -0.000742811 0)
(0 -0.0018748 0)
(0 -0.00249103 0)
(0 -0.00239985 0)
(0 -0.000590723 0)
(0 -0.00191705 0)
(0 -0.00108348 0)
(0 -0.00301091 0)
(0 -5.06974e-05 0)
(0 -0.00185533 0)
(0 -0.00219696 0)
(0 -0.00208565 0)
(0 -0.000460314 0)
(0 -0.00285058 0)
(0 -0.00169701 0)
(0 -0.000706781 0)
(0 -0.00166849 0)
(0 -0.00140455 0)
(0 -0.00185074 0)
(0 -0.000482852 0)
(0 -0.00190234 0)
(0 -0.000884612 0)
(0 -0.00167598 0)
(0 -0.00119865 0)
(0 -0.00146116 0)
(0 -0.00216022 0)
(0 -0.00139769 0)
(0 -0.00302877 0)
(0 -0.00313233 0)
(0 -0.00295618 0)
(0 -0.00189628 0)
(0 -0.00104187 0)
(0 -0.00134092 0)
(0 -0.00157025 0)
(0 -0.00167265 0)
(0 -0.000563196 0)
(0 -0.00102992 0)
(0 -0.00249566 0)
(0 -0.000937075 0)
(0 -0.00306792 0)
(0 -0.00176296 0)
(0 -0.00310266 0)
(0 -0.00279767 0)
(0 -0.00206024 0)
(0 -0.00119932 0)
(0 -0.000890141 0)
(0 -0.00293864 0)
(0 -0.00317343 0)
(0 -0.00241069 0)
(0 -0.00152529 0)
(0 -0.0027984 0)
(0 -0.000618979 0)
(0 -0.000958955 0)
(0 -0.00311008 0)
(0 -0.00166388 0)
(0 -0.000100671 0)
(0 -7.8501e-05 0)
(0 -0.000610205 0)
(0 -0.00165318 0)
(0 -0.00238145 0)
(0 -0.00272817 0)