/*--------------------------------*- C++ -*----------------------------------*\
| =========                 |                                                 |
| \\      /  F ield         | OpenFOAM: The Open Source CFD Toolbox           |
|  \\    /   O peration     | Version:  v2012                                 |
|   \\  /    A nd           | Website:  www.openfoam.com                      |
|    \\/     M anipulation  |                                                 |
\*---------------------------------------------------------------------------*/
FoamFile
{
    version     2.0;
    format      ascii;
    class       volVectorField;
    location    "750";
    object      U;
}
// * * * * * * * * * * * * * * * * * * * * * * * * * * * * * * * * * * * * * //

dimensions      [0 1 -1 0 0 0 0];


internalField   nonuniform List<vector> 
9793
(
(0.956775 0.0770653 8.78165e-21)
(0.967511 -0.0576635 0)
(0.966844 0.090877 -3.57039e-21)
(1.01351 -0.000792718 0)
(0.529124 -0.0479659 -8.06562e-21)
(1.0142 -0.0134291 0)
(1.00982 -0.000235461 4.20373e-21)
(1.01264 -0.00112307 0)
(1.02695 -0.00228079 3.10243e-22)
(0.533663 -0.037889 0)
(1.00961 -0.101329 0)
(0.918699 -0.106117 0)
(1.01342 -0.000734937 -4.2337e-22)
(1.01363 0.00214986 0)
(1.00286 -1.76594e-05 0)
(1.0142 0.00257933 -1.84346e-21)
(1.01396 -0.00333924 -1.54298e-23)
(1.01363 -0.00405385 0)
(0.890807 0.266601 0)
(1.01395 0.00264443 9.45597e-22)
(1.08055 -0.113207 -1.36429e-22)
(1.02376 -0.00579436 0)
(1.0568 0.0647507 -7.51452e-22)
(1.01808 0.00230865 0)
(1.01783 0.00108097 1.80024e-21)
(1.01337 -0.000610266 0)
(1.0153 0.00370572 3.58175e-21)
(1.01507 -0.00154714 1.34142e-22)
(0.978726 -0.0399793 0)
(1.02644 -0.00231401 2.5015e-22)
(0.989818 -0.0302302 0)
(1.06016 0.0510316 0)
(1.08321 -0.000601544 -1.5126e-20)
(1.00768 5.00978e-05 0)
(0.967558 -0.0335942 -1.01017e-24)
(1.12772 -0.171517 -7.98365e-21)
(1.00792 2.66554e-05 -2.23112e-21)
(1.02415 -0.00582487 0)
(1.01323 -0.00153811 -2.60456e-21)
(1.01046 -3.47266e-05 0)
(0.988828 -0.0255683 8.58649e-22)
(1.0048 -3.86787e-05 0)
(1.01206 -0.000432777 2.21967e-22)
(1.00954 -0.000169951 -4.99752e-22)
(1.01143 -0.000389669 0)
(1.01296 -0.000474952 -7.42553e-22)
(0.972059 -0.0419361 1.1484e-24)
(1.00105 -0.0533671 1.63064e-21)
(0.928869 0.0618853 0)
(1.01346 -0.000865498 -5.55578e-22)
(0.961292 -0.0342552 0)
(0.989314 -0.0983835 0)
(1.01795 -0.0150934 -2.35442e-21)
(1.02436 -0.00508397 -7.59567e-23)
(0.849619 -0.0933872 -1.678e-21)
(0.984194 -0.225764 0)
(1.02099 0.000267124 1.01363e-22)
(1.03957 -0.168243 1.05959e-20)
(0.822404 0.321265 0)
(1.0131 -0.0014309 6.04748e-21)
(1.00903 -4.7708e-05 1.26059e-22)
(1.02152 -0.0140901 -1.61523e-21)
(0.819369 0.147807 0)
(1.01465 -0.000412072 0)
(0.54615 -0.238481 9.52896e-21)
(1.09714 0.0138475 -6.45528e-21)
(0.844714 0.146437 -2.22408e-22)
(0.88635 0.114887 1.01883e-21)
(0.922344 -0.0902551 0)
(1.00559 -0.094462 0)
(0.84416 -0.0773678 -5.01497e-21)
(1.01363 0.000298454 0)
(1.01521 -0.00366354 0)
(1.05923 0.00845911 0)
(0.952829 -0.0284745 0)
(0.832815 0.299283 0)
(1.02127 -0.000162737 5.32037e-23)
(1.0215 0.00306215 3.56074e-26)
(1.01811 0.00285095 2.88209e-21)
(1.01643 -0.00128023 -1.01778e-23)
(1.09235 0.0486194 0)
(1.01575 0.00378731 2.75624e-21)
(0.924881 -0.0883739 -4.24777e-21)
(1.0337 -0.0262828 -3.95682e-23)
(0.994711 -0.0234395 -8.17898e-22)
(1.01586 -0.0464475 0)
(1.01691 -0.00167018 -2.01217e-21)
(1.02153 -0.000615099 0)
(1.02027 -0.0123261 0)
(1.01357 0.00410116 0)
(0.970175 -0.020203 4.71953e-22)
(0.707946 -0.168827 4.83151e-22)
(1.01487 0.00130218 2.52059e-21)
(1.07139 0.0287332 0)
(1.02133 -0.0130478 2.275e-21)
(1.03961 -0.0234328 3.96836e-23)
(1.00473 -0.206515 0)
(0.936388 -0.063991 4.11237e-21)
(1.01456 0.00119657 -1.30896e-21)
(1.0142 0.000353683 -1.12294e-21)
(1.01415 0.000291461 1.01792e-21)
(1.01152 0.000670949 -7.37979e-22)
(1.01295 0.000396733 2.56513e-21)
(1.01286 0.000330202 0)
(1.02117 0.00334505 1.70669e-23)
(0.99468 -0.0196862 3.99733e-22)
(1.02042 -0.0115437 0)
(1.00913 -9.21238e-05 2.20028e-21)
(1.01812 -0.0138173 3.25043e-21)
(0.952894 -0.0591202 7.0874e-22)
(1.01271 0.000182895 0)
(1.01362 -0.133384 9.64702e-24)
(1.01954 0.000421241 0)
(1.03479 -0.294756 2.55063e-20)
(0.981752 -0.0935796 0)
(1.02136 6.88136e-05 -2.29298e-22)
(1.07572 -0.106051 -5.55101e-22)
(0.953118 -0.0206973 -7.60181e-21)
(1.01647 0.00468462 0)
(1.07068 0.0166715 -5.78765e-22)
(0.96112 -0.0695056 -3.54279e-21)
(1.00644 8.3196e-05 -1.21921e-22)
(1.01967 -0.00218519 -1.7607e-22)
(1.01319 -0.0142502 2.46908e-21)
(1.02561 -0.00752283 -2.22105e-21)
(1.06404 -0.120569 1.36559e-22)
(1.05817 -0.0696244 -7.16147e-21)
(1.02469 -0.0468843 0)
(1.01929 0.00331481 -1.43352e-21)
(1.01616 -0.00324458 -4.5768e-22)
(1.01176 0.000174775 3.46398e-22)
(1.02166 -0.00039721 0)
(1.01622 -0.00336574 -4.18055e-23)
(1.01166 -0.00287246 0)
(1.02601 -0.00178815 -1.76905e-21)
(1.02172 -0.00107307 0)
(1.01394 -0.000305618 0)
(1.00974 -0.000153554 5.0671e-22)
(1.01923 0.000357019 0)
(1.01342 0.000418701 1.26293e-21)
(1.01936 -0.00212452 4.03909e-22)
(1.01815 -0.000147127 -1.77077e-21)
(1.01217 -0.00047398 -2.5933e-22)
(1.01437 -7.0238e-05 -2.2395e-21)
(1.01333 0.00207973 0)
(1.01255 0.00255179 3.95248e-21)
(1.04873 -0.0429506 -3.66519e-22)
(1.01446 -3.60497e-05 -1.97637e-21)
(1.01395 0.00116282 0)
(0.732445 -0.180594 -2.24068e-21)
(0.794274 0.371899 1.88725e-21)
(1.0113 0.000144405 -1.40454e-24)
(0.775457 0.377222 0)
(0.539889 0.0265939 0)
(1.01374 0.00104738 -1.14186e-21)
(1.00952 0.000214537 -2.43306e-22)
(1.01209 0.000190074 1.05908e-21)
(1.01777 -0.00061787 1.80889e-21)
(1.0143 0.000118178 -9.06806e-22)
(1.01218 -0.000461346 1.52705e-21)
(1.01271 -0.00115144 0)
(1.01479 -0.00166001 -1.49076e-22)
(1.01554 0.00275228 -1.7539e-21)
(0.948246 0.233797 0)
(1.05541 -0.020998 -2.18543e-21)
(1.10138 -0.124134 3.35365e-21)
(1.01066 -0.0570218 0)
(1.01396 -0.00909241 7.59538e-22)
(1.01544 0.00337638 -1.58661e-21)
(1.01249 6.11117e-05 -2.80105e-21)
(1.01383 -0.00249485 -1.41405e-21)
(0.796102 -0.00424053 0)
(1.05004 -0.0290178 1.41556e-22)
(0.786753 -0.0633693 5.63869e-21)
(1.02617 -0.00710229 -3.44651e-22)
(0.917082 0.246612 3.2052e-21)
(1.02186 -0.000851336 0)
(1.01736 0.00221019 -1.48267e-22)
(1.01628 -0.00388268 0)
(1.01928 -0.031772 -6.1496e-21)
(1.09835 -0.418567 0)
(1.03391 -0.010465 5.82351e-22)
(1.01437 0.000172173 9.6727e-22)
(1.01761 0.000430191 0)
(0.88984 0.31315 -1.2997e-20)
(1.01507 -0.00342593 0)
(1.03459 -0.180357 0)
(1.01607 -0.00382622 -1.15376e-21)
(1.01919 -0.00266688 0)
(1.01516 0.00268097 1.8512e-21)
(1.02664 -0.00719699 3.2704e-21)
(1.01705 -0.000212169 1.77301e-23)
(0.936018 0.0755022 3.17265e-21)
(1.03036 -0.131787 -1.75453e-22)
(0.862066 0.116206 -9.90964e-22)
(1.02101 -0.0306218 -5.54071e-21)
(0.893434 0.13719 -1.66945e-20)
(1.01343 0.001306 3.7732e-22)
(0.570696 0.116551 -5.73863e-21)
(1.01328 0.000392931 -1.56895e-21)
(1.02558 -0.00181683 1.75085e-21)
(1.03046 0.162042 0)
(0.990894 -0.249462 4.87816e-21)
(1.01629 -0.00304741 -4.96325e-22)
(1.02204 -0.00133377 0)
(1.02053 0.00307038 8.20567e-24)
(1.10181 -0.151199 -3.37298e-21)
(1.01374 0.000644532 0)
(0.999265 -0.018522 5.27877e-21)
(1.02582 -0.0107754 0)
(1.00427 -0.0283411 0)
(0.956674 0.0729115 -2.99717e-21)
(0.908337 0.0589829 3.41793e-21)
(1.0247 -0.00536604 8.67735e-22)
(0.854044 0.145653 0)
(1.01232 0.000207841 9.85904e-22)
(1.01224 -0.00121464 7.82784e-22)
(0.904877 0.293886 0)
(1.02018 0.00324761 -1.88301e-23)
(0.736043 -0.0266154 -3.60647e-21)
(0.933407 0.0134801 0)
(1.02032 -0.00146518 8.16166e-23)
(1.02602 -0.00764116 1.36876e-21)
(1.01695 -0.000152505 -4.9671e-22)
(1.0345 -0.0353828 8.25318e-23)
(0.98312 0.20629 0)
(1.01547 -0.0138376 0)
(1.0134 0.000910937 0)
(0.931734 0.001418 -1.01514e-21)
(1.00362 -0.0786597 -1.80333e-21)
(1.01816 0.00248396 0)
(1.01779 0.00226497 4.29326e-23)
(1.03473 -0.0111148 2.84077e-21)
(1.01299 0.000321655 0)
(1.04375 -0.0830712 -1.3397e-20)
(0.750901 0.00193701 3.4722e-21)
(1.01892 7.67872e-05 -2.39198e-22)
(1.01402 -0.00233533 4.34454e-21)
(0.996169 -0.186733 2.12895e-21)
(1.0128 0.00201651 3.95609e-21)
(0.999419 -0.0156002 -6.0488e-21)
(1.01337 0.00117151 3.94643e-21)
(1.0141 -0.00186647 0)
(1.09241 0.0164064 1.60247e-20)
(1.01407 -0.00230841 -1.40371e-21)
(1.01413 0.0011438 0)
(1.01253 -0.00103681 1.06361e-21)
(1.018 -0.00125197 3.43239e-21)
(1.01438 0.00126465 1.18354e-21)
(1.00867 5.06548e-05 0)
(1.02243 -0.0064561 2.32583e-22)
(1.02331 -0.0177504 -3.62018e-21)
(0.982557 -0.0842876 -8.71761e-22)
(1.052 -0.076751 -1.39928e-20)
(1.01399 -0.00182772 0)
(1.02657 -0.00536957 -1.08123e-22)
(1.01397 -0.00299544 0)
(1.02195 -0.0183149 5.75324e-21)
(1.00842 -0.0087237 0)
(1.01381 0.000346101 0)
(0.934613 -0.204275 1.66725e-21)
(1.01407 -0.00244565 -1.31015e-21)
(0.975632 -0.0788922 3.77835e-21)
(1.00911 4.39633e-05 2.68808e-21)
(1.01205 -0.00992833 -3.35429e-22)
(1.01913 0.00287338 2.83823e-23)
(1.01889 0.00291841 0)
(1.0023 -0.0251045 0)
(1.04317 0.149989 -8.69207e-21)
(1.01931 -0.0107013 -7.77949e-22)
(1.01386 0.000164767 0)
(1.01437 0.00159696 2.63834e-21)
(1.02348 0.00220774 1.66993e-21)
(1.02077 -0.00126411 0)
(1.00176 -0.00124714 -5.75818e-21)
(1.00843 -0.0253671 3.75622e-21)
(1.01635 -0.00319766 1.68624e-21)
(1.04119 -0.146718 -8.52783e-23)
(1.01651 -0.000334271 -1.36355e-22)
(1.05759 -0.0752544 0)
(1.01754 -0.00160167 -2.95886e-21)
(1.01833 0.00272845 7.67434e-23)
(1.00763 -4.71261e-05 -6.7955e-23)
(1.0106 -3.60456e-05 0)
(1.06229 -0.0673679 -1.02708e-20)
(1.02025 -0.00159431 -2.00739e-23)
(1.02227 -0.00655339 3.80795e-22)
(1.01557 -0.0135634 -1.74091e-22)
(1.01138 -0.000322476 -9.99396e-22)
(1.02189 -0.00154248 -5.29486e-22)
(1.01922 0.000150995 2.5605e-22)
(1.08547 -0.0697336 1.41308e-20)
(1.01748 -0.0118103 2.01049e-21)
(1.00793 -0.000121603 -2.26539e-21)
(1.01112 0.00013317 0)
(1.01127 -0.00215236 3.23287e-21)
(1.02444 -0.00782626 -1.19506e-21)
(1.01385 -0.0136553 -2.51543e-21)
(1.0162 -0.000591695 0)
(0.930907 0.276149 6.3548e-20)
(1.01357 0.00102047 1.27836e-21)
(0.929652 0.290161 0)
(0.975956 -0.208795 -3.41697e-21)
(1.00759 3.17691e-05 -1.68538e-21)
(1.0091 -0.00013863 0)
(1.01415 -0.000138855 -1.27628e-21)
(1.02386 0.00410224 -3.81721e-21)
(1.01891 -0.00675989 9.2817e-23)
(1.01706 -0.00232051 1.95411e-21)
(0.940025 0.289025 0)
(1.01607 -0.000312238 -3.18727e-23)
(1.01404 -4.78312e-05 -1.24949e-21)
(1.01877 -0.00571576 -1.06151e-22)
(1.02231 -0.00738762 -5.62398e-23)
(1.02209 -0.00537682 0)
(1.01344 0.00320646 0)
(1.02721 -0.0366161 -1.52376e-21)
(1.01469 -0.00136518 3.14287e-21)
(1.0213 -0.0002688 0)
(1.02615 -0.0114346 0)
(1.01417 -0.00155904 -3.05031e-21)
(1.05857 0.00273689 2.11766e-21)
(0.856935 0.203594 -6.58564e-21)
(1.05951 -0.00202095 -1.4719e-22)
(1.01964 0.00313961 0)
(1.07919 -0.392762 6.82273e-20)
(1.02393 -0.00771408 -1.36222e-21)
(0.799375 0.301585 -1.66163e-20)
(0.942854 -0.0155123 7.29985e-21)
(1.01514 0.00211472 -2.30907e-21)
(1.04145 -0.0159322 -8.12964e-21)
(0.943512 -0.00615496 -1.29855e-20)
(1.01191 0.000220855 -3.42978e-21)
(1.00289 -0.0148562 -5.72212e-21)
(0.99658 -0.111331 1.70677e-23)
(1.01236 -0.000870484 0)
(1.01194 -0.000428074 -1.06829e-21)
(1.02512 -0.00154836 8.96584e-22)
(1.01016 6.81108e-05 1.80655e-21)
(1.01554 -0.00170807 -3.15585e-22)
(0.930378 0.109845 0)
(1.01604 -0.0039974 -1.2124e-21)
(1.01404 -0.00158303 3.10843e-21)
(0.934177 0.238928 -2.08753e-20)
(1.01237 0.00146822 -6.9286e-21)
(1.01457 0.00287115 -1.90623e-21)
(1.01957 0.00298609 0)
(1.02357 -0.00682876 0)
(1.01247 -0.000954786 7.93274e-24)
(0.895106 0.118645 1.33532e-20)
(1.02502 -0.0077707 -1.04575e-21)
(1.02084 -0.0031332 1.12087e-22)
(1.0214 -0.00694039 -1.44725e-23)
(1.01183 0.00139925 3.78375e-21)
(0.789794 0.0779677 -2.74487e-21)
(1.02429 -0.00474321 0)
(1.04858 -0.0184029 1.50158e-21)
(1.01763 0.00233436 0)
(1.00385 -0.0519838 2.63262e-22)
(0.820101 -0.0762974 1.62143e-20)
(1.02016 -0.179374 0)
(1.00084 -0.0539661 3.61085e-21)
(1.02358 -0.00683145 0)
(1.01077 -0.00398396 3.50804e-21)
(0.841691 0.171552 0)
(1.00875 -5.32824e-05 -1.52598e-22)
(0.949088 -0.197515 0)
(1.01392 0.0028672 7.48298e-22)
(1.01286 0.000328549 3.65575e-22)
(0.991052 -0.223042 -2.49252e-21)
(1.00319 -0.0126116 6.96553e-21)
(0.834261 0.218865 -1.71268e-21)
(1.02089 -0.00303464 -1.04597e-22)
(1.04159 -0.0887273 -6.99083e-22)
(1.15231 -0.161519 0)
(1.01212 0.00479447 0)
(1.01495 -0.00308663 -3.36674e-21)
(1.07949 -0.0481716 1.13406e-20)
(1.02957 -0.0289868 0)
(1.05391 -0.0294737 8.80869e-22)
(1.0259 -0.00489508 -2.49989e-21)
(1.0245 -0.00421335 3.87395e-22)
(0.935236 0.320556 -1.51089e-20)
(1.01611 -0.000532802 8.71673e-22)
(1.02356 -0.00746681 0)
(1.00814 6.62454e-05 -2.719e-21)
(1.00969 -5.34121e-05 -1.16648e-21)
(1.01477 0.00347443 2.9558e-23)
(1.02465 -0.00463716 0)
(1.02515 -0.00548659 2.89943e-21)
(0.783543 0.0765777 -1.09329e-20)
(1.02643 -0.00626854 1.67564e-21)
(0.756184 -0.387731 1.51037e-21)
(1.07903 -0.0421241 0)
(0.861588 0.177095 3.40819e-21)
(1.01008 -0.0812291 1.85503e-21)
(1.05447 -0.0123255 -1.41193e-22)
(1.01055 2.62376e-05 1.83457e-21)
(1.02503 -0.00130965 0)
(0.735996 0.0484688 1.17267e-20)
(1.07324 -0.0608967 0)
(1.01332 0.000712994 -1.90352e-21)
(1.03132 -0.00531431 3.26406e-21)
(1.05797 0.00945156 2.76299e-20)
(1.01454 0.00164305 -2.57511e-21)
(1.06727 -0.31138 0)
(1.01399 -0.00247474 -1.59484e-21)
(1.02463 -0.00524794 1.25088e-21)
(1.01448 0.00155167 3.78916e-21)
(0.996608 -0.0211444 -6.82575e-22)
(1.01585 -0.00390957 6.88836e-22)
(1.02823 -0.0307054 0)
(1.06006 -0.142852 8.40343e-23)
(1.01375 0.000397832 -2.20177e-21)
(1.04359 0.087077 1.65892e-23)
(1.02467 -0.00800774 0)
(1.02478 -0.00806466 -9.79145e-22)
(1.0258 -0.006225 0)
(1.01372 0.00222342 -6.78347e-22)
(1.01998 -0.0109855 -5.05274e-22)
(1.01231 0.00169534 2.74502e-22)
(1.09732 0.101507 0)
(1.01652 -0.000352542 1.37697e-21)
(1.02218 -0.00554434 1.00833e-22)
(0.98896 -0.107422 0)
(1.02466 -0.00364892 0)
(1.00773 -0.00722972 0)
(1.02417 -0.00799643 9.53488e-22)
(1.01552 0.00252773 1.76422e-21)
(1.0158 -0.0320469 6.09498e-21)
(1.01185 -0.000367329 2.11088e-21)
(1.02201 -0.00571867 -1.75276e-23)
(1.01454 0.0013601 -1.52208e-23)
(0.942331 0.144429 0)
(1.01309 0.00266469 -2.02458e-21)
(0.927465 0.140258 0)
(1.0124 -0.000407104 0)
(0.968464 0.101157 -1.48854e-21)
(1.00982 -0.000118344 2.179e-21)
(1.0123 0.000438832 3.02547e-21)
(1.00782 -8.55041e-05 2.102e-21)
(1.02598 -0.00613354 -1.52167e-21)
(0.857617 0.298276 1.17116e-20)
(1.01379 0.00152096 -3.72305e-22)
(0.813554 -0.0547955 -1.04681e-20)
(1.0151 0.00288036 -1.8409e-21)
(1.01373 -0.00238716 -3.88703e-21)
(1.02368 -0.00777753 7.09566e-22)
(1.06484 -0.0714401 0)
(0.985364 -0.0334448 0)
(0.848042 -0.126612 0)
(0.966875 0.0803934 0)
(1.01642 -0.0151608 0)
(1.01733 -0.00113897 1.81365e-23)
(1.0581 -0.0247059 0)
(1.01387 -0.0297485 4.06458e-21)
(0.99968 -0.0182787 6.82946e-22)
(0.9511 -0.0841942 0)
(0.838958 -0.115784 5.54715e-21)
(1.0163 -0.000310196 3.50534e-23)
(1.02253 -0.00517282 -1.92713e-21)
(1.03428 -0.0888973 0)
(1.01984 -0.00245564 0)
(1.01451 0.00442606 0)
(1.01936 -0.00252442 0)
(1.01303 0.000541943 2.29203e-21)
(1.00745 5.29767e-05 0)
(0.976811 -0.294894 5.15377e-23)
(1.02567 -0.0299201 3.96332e-21)
(0.923472 0.298252 0)
(1.01313 0.000641301 1.22399e-21)
(1.0269 0.00496469 1.03538e-21)
(1.01731 0.00208685 1.46123e-22)
(1.00877 4.02631e-05 -4.28202e-22)
(1.0101 8.59612e-05 -1.73025e-21)
(1.01495 0.00379666 0)
(1.056 -0.0287698 1.62545e-21)
(1.01219 -0.000698907 8.06797e-22)
(1.02144 -0.00413214 1.9866e-21)
(1.01503 0.0016375 3.26593e-21)
(1.0152 -0.000550437 0)
(1.00587 -0.00518109 7.0437e-22)
(0.975235 -0.0647368 3.18003e-21)
(1.0113 -0.000333115 0)
(1.01717 -0.00109152 0)
(0.985218 -0.160327 3.36166e-20)
(1.0059 -0.0121431 -6.17034e-21)
(1.02541 -0.0079535 2.68653e-21)
(0.795855 0.168102 8.66765e-22)
(0.955721 0.0961915 1.91584e-21)
(1.00933 8.18704e-05 2.98427e-21)
(1.00756 0.00011762 -2.16515e-21)
(1.02335 -0.00737898 0)
(1.00611 -0.00697388 -6.91331e-22)
(1.02214 -0.00586292 1.85666e-22)
(1.01169 -0.000317677 -1.68351e-21)
(1.01493 -0.000435643 0)
(1.01322 0.00138239 0)
(1.01382 -0.00292085 1.67844e-21)
(1.01404 -0.00189831 -1.55998e-21)
(1.04124 -0.0445793 7.86578e-22)
(0.966744 -0.0828636 -2.49629e-21)
(1.01195 0.000171648 -6.99134e-22)
(0.872416 0.31768 2.08873e-21)
(1.01366 0.0166458 3.58974e-21)
(1.01435 0.000799089 0)
(1.01846 -0.0117951 0)
(1.01742 0.00336645 -1.33245e-21)
(1.0055 -0.120077 0)
(1.01756 -0.00215371 -4.46968e-21)
(0.920787 -0.208378 1.94334e-21)
(1.01517 0.00226187 1.82761e-21)
(1.01406 -0.00202396 0)
(0.996885 -0.0842151 0)
(1.01889 -0.00258114 2.32021e-23)
(1.02003 -0.0518831 -5.97806e-21)
(0.975058 -0.252217 2.48636e-21)
(1.02126 0.0014185 -1.59717e-21)
(1.01439 0.000697472 0)
(0.780215 -0.410548 -1.65026e-20)
(1.00614 -0.010407 5.71964e-21)
(1.01312 -0.000134333 -6.4624e-22)
(1.01436 -0.00114094 -3.82523e-21)
(1.07046 -0.101321 -2.15188e-20)
(1.01382 -0.00166984 -1.88747e-21)
(1.01297 -0.000157076 -1.9121e-21)
(1.01641 -0.000528286 1.91281e-21)
(1.01373 -0.00163359 8.2303e-22)
(1.09728 -0.00866023 0)
(1.05053 -0.0823723 0)
(1.01604 0.0145758 -6.30331e-21)
(1.01723 -0.0128313 -2.10161e-21)
(1.01443 -0.00121976 1.91984e-21)
(1.01442 -0.00149696 0)
(1.02348 -0.003579 0)
(1.01265 0.000227476 0)
(1.01641 -0.000466828 1.27167e-21)
(1.00626 -0.0962115 -1.6676e-21)
(1.01264 -0.191727 -2.02154e-20)
(1.01441 0.00167743 -1.81795e-21)
(1.01364 -0.00771067 0)
(0.700271 0.0271574 0)
(1.01783 -0.00608659 -2.34421e-21)
(0.993452 -0.00922369 2.66445e-21)
(1.05194 -0.0160732 8.56552e-22)
(1.01306 0.000307153 -3.06775e-22)
(1.00563 -0.106883 1.01711e-20)
(0.923474 0.317016 0)
(1.02068 -0.00144324 -9.22289e-23)
(1.11762 -0.2141 4.57528e-20)
(1.01826 0.00283161 -1.88902e-22)
(1.02317 -0.259262 -2.69094e-21)
(1.01683 -0.0154203 2.15718e-21)
(0.988828 0.267563 2.21834e-20)
(1.0151 -0.00331908 2.06105e-21)
(1.01409 -0.00181356 1.47949e-21)
(1.01473 -0.00334514 5.39151e-21)
(0.954346 0.0455675 0)
(1.01095 -0.0049022 -4.34505e-21)
(0.801266 0.200252 0)
(1.08735 0.0728355 1.4193e-21)
(0.599766 -0.260266 2.58989e-21)
(1.01749 -0.0541222 1.10606e-20)
(0.899276 -0.204187 1.76772e-23)
(0.998997 -0.0143633 1.77373e-23)
(1.00455 -1.85125e-05 0)
(1.03321 -0.0468577 2.36593e-21)
(1.01309 -0.00674389 2.90345e-22)
(0.901468 -0.155913 -2.98875e-21)
(1.02337 -0.00510608 8.84479e-22)
(0.976551 0.119546 0)
(1.01509 0.00118321 3.33688e-21)
(0.951752 -0.000175472 8.09848e-22)
(1.00851 -4.32164e-05 -6.17732e-22)
(1.03396 -0.00604911 0)
(1.01427 -0.00154354 -3.83051e-22)
(1.09673 -0.2356 -3.32483e-20)
(1.01519 0.00135125 1.648e-21)
(1.01116 0.00012184 -1.48965e-21)
(1.03099 -0.0112328 0)
(1.02417 -0.0113426 1.9302e-21)
(1.02406 -0.031737 -4.10369e-21)
(1.01542 -0.00379097 1.44044e-21)
(1.01806 -0.00233259 0)
(1.01785 -0.00577592 1.05416e-21)
(1.01755 -0.00553932 0)
(0.871541 0.265169 0)
(1.01356 -0.00101388 -1.61622e-21)
(0.845124 -0.149522 -1.20316e-20)
(1.09775 -0.282856 -2.84253e-20)
(1.01356 -0.000953927 3.0243e-21)
(1.00888 -9.46296e-05 2.43739e-21)
(1.02702 0.0067407 4.11132e-21)
(1.03086 -0.00570732 0)
(1.01921 -0.00227308 3.67743e-24)
(1.02226 -0.0069256 6.62845e-22)
(1.01075 0.00412978 -5.19412e-21)
(1.01743 -0.0168355 -3.55718e-21)
(1.03576 -0.00921068 -3.80891e-21)
(1.02473 -0.0118505 -1.31684e-21)
(1.01241 -0.000137652 -1.21932e-21)
(1.01747 0.00433769 0)
(1.0235 -0.00686963 0)
(1.0205 -0.0170857 -1.59771e-21)
(1.02194 -0.00732732 0)
(1.02353 -0.00661529 -3.63963e-22)
(1.03452 -0.227598 0)
(1.01887 -0.00523212 0)
(1.05226 0.134921 -3.38079e-21)
(1.03327 -0.0274789 2.28476e-21)
(1.00965 -0.000207647 1.33401e-21)
(1.01833 -0.00240524 0)
(1.01241 -0.000608126 -2.13126e-23)
(1.00935 -0.000775589 5.4065e-21)
(1.00853 -0.00160234 -3.56836e-21)
(1.01405 -0.00213266 2.9945e-21)
(1.01585 0.00345833 0)
(1.01743 0.00191003 0)
(1.01451 -0.00144529 -2.87696e-21)
(1.01637 0.00345204 1.39209e-21)
(1.0158 -0.00113306 0)
(1.02684 -0.0067945 2.71893e-23)
(1.0137 0.000556327 -1.35255e-21)
(1.03342 -0.00662222 2.35241e-21)
(1.00728 -6.45584e-06 -2.2169e-21)
(1.02483 -0.00402104 -4.08113e-22)
(1.02641 -0.00744453 0)
(1.03624 -0.00991482 5.57898e-21)
(1.03123 -0.0500097 3.31411e-22)
(1.00744 5.76361e-05 0)
(1.01392 -0.00201619 3.52349e-22)
(1.01848 -0.00227808 -8.05228e-22)
(1.01263 -8.67735e-05 -6.37291e-22)
(1.01548 0.00093696 0)
(1.01105 0.000231729 7.63559e-22)
(1.01563 0.000786978 -3.81221e-22)
(1.01393 -0.00156958 0)
(1.01904 -0.0051622 -5.40539e-22)
(1.01523 0.00128608 0)
(0.997157 -0.0324038 -1.46042e-21)
(1.0104 2.00465e-05 0)
(1.00784 -1.05744e-05 0)
(1.02002 -0.00207036 3.49582e-24)
(0.996343 0.105649 -8.60202e-22)
(1.0142 -0.00162498 0)
(1.01462 0.00155814 -4.27861e-22)
(1.01994 -0.0998502 -5.84931e-22)
(1.01797 0.00280524 3.29012e-22)
(1.01233 -0.00441569 -4.86008e-23)
(1.09463 -0.249044 -5.62331e-20)
(1.01722 0.00151701 0)
(1.01016 -0.000244557 -1.94053e-21)
(1.01052 0.000124447 -1.91013e-22)
(1.05122 -0.166311 -1.46566e-20)
(1.01242 -0.000697121 2.86522e-21)
(1.03132 -0.0951601 6.36548e-21)
(0.573688 -0.24293 -7.5815e-21)
(0.936128 -0.290211 -2.47236e-20)
(1.08482 0.0317497 1.30344e-21)
(1.01275 -0.00456798 -2.33709e-21)
(1.02033 -0.00239894 -4.34073e-23)
(0.88555 -0.105354 0)
(1.01097 0.000278971 -1.69382e-21)
(1.01465 0.00144768 2.42708e-21)
(1.05459 -0.020774 1.14465e-22)
(0.961125 0.117535 -7.64117e-22)
(0.690271 -0.0243584 -1.41784e-20)
(1.01876 -0.00234847 3.7669e-22)
(1.06929 -0.109667 -2.45111e-20)
(1.02033 -0.00227689 1.25679e-23)
(1.01975 -0.00203215 8.95746e-24)
(1.00362 -0.312059 -3.2241e-20)
(1.01592 -0.00110514 1.22421e-21)
(0.978543 -0.0537135 0)
(1.02216 -0.00110816 1.21533e-21)
(0.960216 -0.0758134 -5.67203e-22)
(1.01385 -0.00190993 -1.74046e-21)
(1.02137 -0.00905378 -1.19583e-21)
(1.02339 -0.00683447 -7.81755e-24)
(1.11503 -0.22909 -1.27602e-20)
(0.793803 -0.241718 0)
(1.01391 -0.00230712 -1.76177e-21)
(1.02141 -0.000354775 -3.35034e-21)
(1.04468 -0.035019 0)
(1.01382 -0.00157571 0)
(1.00803 -0.0100905 0)
(1.02343 -0.0940962 -1.86428e-20)
(0.998804 -0.348133 3.3748e-20)
(1.01478 -0.00297853 0)
(0.991688 -0.00334637 0)
(1.01104 -0.000523718 2.05509e-21)
(0.957457 -0.245999 0)
(0.994576 0.000194609 0)
(1.05325 -0.11989 2.2965e-20)
(0.946949 0.111358 0)
(1.01711 -0.000107936 0)
(1.01358 -0.0292121 2.54951e-22)
(0.907371 0.307853 -9.80503e-21)
(1.01422 -0.00173377 -2.1511e-21)
(1.0157 -0.00131099 -3.33753e-22)
(1.00733 -3.3724e-05 2.2239e-21)
(1.01946 0.000724455 -1.49837e-21)
(1.01495 0.00133478 -1.70883e-23)
(0.969938 -0.264977 -4.94911e-21)
(1.01464 0.00133237 0)
(0.83465 -0.0892253 5.21803e-21)
(1.04001 -0.0149564 8.52497e-21)
(1.04188 -0.0520973 0)
(0.997244 -0.0925171 0)
(1.0239 -0.00371832 0)
(0.867474 -0.123948 -9.7014e-22)
(0.842413 -0.216513 0)
(1.0253 -0.00705944 -6.82456e-23)
(0.959351 0.3066 -1.33017e-20)
(1.01538 -0.0274135 0)
(1.06204 -0.135446 -2.57449e-20)
(1.01488 0.00138474 1.58149e-21)
(1.01779 0.00271073 0)
(0.885181 -0.192626 0)
(1.01633 -0.00622084 1.5265e-21)
(0.79046 -0.259989 0)
(1.01223 -0.000467532 1.59673e-21)
(0.928204 0.165312 0)
(1.0131 -0.000300359 -1.40966e-21)
(0.994876 -0.0604679 -1.32514e-21)
(0.875347 -0.162657 0)
(1.01713 -0.000560249 -1.51561e-21)
(0.871324 -0.496323 8.73004e-20)
(1.01644 -0.000296123 0)
(1.03167 -0.0119169 -5.38067e-21)
(1.00905 -0.0523927 -9.36313e-21)
(1.01429 -0.3761 0)
(1.03058 -0.344513 0)
(1.0152 0.00120327 0)
(1.0132 -0.00034413 6.77555e-22)
(1.01488 0.00167228 0)
(0.951561 -0.276308 -2.04347e-20)
(0.97833 0.135406 0)
(1.01376 -0.000306245 2.19284e-23)
(1.01555 -0.020336 2.85948e-21)
(0.991823 -0.0142943 -2.01997e-21)
(1.01491 0.00152566 -2.89904e-21)
(1.01379 -0.00180731 1.17711e-21)
(1.01161 -0.00355765 0)
(0.985548 -0.0596315 2.1389e-22)
(1.01349 0.0107665 2.62344e-21)
(1.01642 -0.00691221 3.28067e-23)
(1.01064 5.34037e-05 -2.75241e-21)
(1.01289 -0.00125476 0)
(1.07966 0.0516113 0)
(0.719949 0.00192641 9.6902e-21)
(1.0128 0.0319705 0)
(1.01279 -9.6918e-05 0)
(1.01283 -0.000620719 -4.54174e-21)
(1.01212 0.103867 5.56912e-22)
(1.01582 -0.00128183 3.56426e-22)
(0.964654 0.286845 1.58915e-21)
(0.983348 -0.0453795 0)
(0.841335 -0.0668195 2.28386e-20)
(0.935049 -0.0626523 0)
(0.928439 0.140878 3.0785e-22)
(1.01331 -0.00148315 0)
(1.02418 -0.00352543 0)
(1.02832 -0.0175104 0)
(1.03059 -0.00978362 0)
(1.0193 -0.0175965 0)
(1.01608 -0.000764798 8.80337e-22)
(1.0616 -0.111279 0)
(0.888486 -0.130495 0)
(1.01281 9.78557e-06 -5.15577e-21)
(0.822317 -0.196912 0)
(1.01281 -0.00116886 0)
(0.901366 -0.0571341 0)
(1.02787 -0.00385233 0)
(0.898334 -0.0534472 -1.76035e-21)
(1.02991 -0.00778606 -1.23954e-21)
(1.02458 -0.00349738 -2.5597e-21)
(1.01467 -0.00322713 -1.3155e-21)
(1.01306 0.00166297 0)
(1.00361 0.0127359 2.84795e-21)
(0.897018 -0.250481 -6.47554e-21)
(0.894647 0.299813 1.21168e-20)
(1.01875 -0.00649327 0)
(0.994735 -0.0125758 -1.32933e-22)
(1.01227 0.00040365 0)
(1.02366 -0.00641808 2.94897e-22)
(1.02066 -0.00895214 -1.0691e-21)
(1.05668 -0.375404 -3.28999e-20)
(1.00921 -0.000185431 0)
(1.05256 -0.136941 0)
(1.01321 -0.0014263 -2.72065e-21)
(1.0467 -0.0369578 -9.85677e-21)
(1.01401 -0.00276888 -2.51659e-23)
(1.01364 0.0004943 1.62359e-23)
(1.00816 2.40711e-05 2.48963e-21)
(1.01289 -0.000643035 0)
(0.659822 -0.196685 -5.5956e-22)
(1.0156 -0.00149805 0)
(1.02284 -0.00746178 4.11552e-22)
(1.00809 -3.14543e-05 1.06828e-21)
(1.00921 0.00025315 0)
(1.01507 0.00122668 -3.82605e-22)
(0.962552 0.0112912 -7.45612e-22)
(1.00913 -2.21819e-05 9.28828e-22)
(1.03514 -0.00716978 1.85546e-21)
(1.01346 -0.00154034 0)
(1.0139 -0.00194028 -1.48577e-22)
(0.911983 0.23177 -7.90713e-21)
(1.01433 -0.00154924 -1.74723e-21)
(1.05078 -0.110245 2.93315e-22)
(1.01289 2.47564e-05 2.69268e-21)
(0.994757 0.00563942 2.70182e-21)
(1.01067 5.62651e-05 0)
(0.995032 -0.0527305 -6.5749e-23)
(1.01029 0.000164462 -1.07799e-22)
(0.933533 -0.116069 0)
(1.02125 -0.00664085 -4.19182e-23)
(1.01658 -0.00660346 3.46533e-23)
(1.01269 -0.000668052 2.16258e-21)
(0.915008 0.199477 -1.19714e-20)
(0.901145 0.213579 -6.16949e-21)
(0.89458 -0.0777583 8.10418e-22)
(0.864021 -0.220403 0)
(1.02896 0.113959 0)
(1.01596 -0.00605379 3.17845e-21)
(1.02779 -0.016267 0)
(0.967558 0.0595636 -6.26388e-21)
(1.01568 0.00111426 1.4846e-21)
(0.888631 -0.162717 0)
(0.920782 -0.170393 -5.25544e-21)
(0.965668 0.0207711 -5.97568e-21)
(0.887696 -0.0759371 0)
(1.02322 -0.00689339 -1.16326e-23)
(0.919959 0.247439 -2.1648e-21)
(1.00423 -0.00237746 -9.56412e-23)
(0.874624 0.16069 0)
(0.953373 0.00151237 5.31993e-23)
(1.02316 -0.00764362 0)
(1.02343 -0.00538333 -2.27625e-22)
(0.912823 0.247067 9.94968e-21)
(0.892713 0.329859 1.57025e-20)
(1.0123 -0.000173373 9.45972e-22)
(1.02632 -0.00613258 -8.43158e-22)
(1.01609 -0.000832469 -6.90995e-22)
(1.01794 -0.00575054 2.20427e-21)
(1.05154 -0.0584232 3.18256e-21)
(1.01109 0.000141073 -6.60012e-22)
(1.01537 0.00105914 3.23305e-23)
(1.03126 -0.0103875 0)
(0.990856 0.0149702 0)
(1.01227 -0.055199 4.3662e-21)
(1.02038 -0.0145024 -5.48598e-22)
(0.958498 -0.261545 7.11308e-21)
(1.01276 -0.000682472 2.21917e-21)
(1.01579 0.000748175 1.93307e-21)
(0.944494 -0.0101056 -7.77519e-22)
(1.16378 -0.0205946 7.64162e-21)
(1.05935 -0.0598717 1.40859e-20)
(1.01499 -0.000266327 0)
(1.00942 0.0237588 -2.49547e-21)
(1.01337 -0.000403336 -1.38942e-21)
(1.01563 0.00105444 0)
(1.06003 -0.13456 -1.58686e-20)
(1.01528 0.00115722 -3.16115e-21)
(1.02338 -0.007086 1.53247e-22)
(0.916828 0.251722 0)
(0.92041 0.235261 -1.08599e-20)
(1.01756 0.000828676 0)
(0.863441 -0.115942 -6.14718e-24)
(0.835668 -0.11078 0)
(1.01351 -0.106009 0)
(0.946248 -0.0707574 -1.47053e-21)
(1.03219 -0.376874 -4.34226e-20)
(1.01243 -0.000363456 9.081e-24)
(0.899863 0.0942546 -4.10709e-21)
(1.02174 -0.00703522 0)
(1.01308 -0.00136887 1.35616e-21)
(1.01979 -0.00418217 0)
(1.00888 -3.17614e-05 0)
(1.01197 0.000338593 -1.72953e-21)
(0.899668 -0.431899 3.14563e-21)
(1.01837 -0.0021302 0)
(1.02987 -0.151951 -2.25269e-20)
(1.01399 0.000758279 1.22024e-21)
(1.02778 0.0292801 -3.49806e-21)
(1.02246 -0.0071615 5.74516e-23)
(1.05486 -0.0614003 0)
(1.02346 -0.000599378 3.41396e-22)
(1.01207 -0.00163917 -1.63865e-21)
(0.985117 -0.0500667 -2.31709e-21)
(1.01435 0.000120663 -1.27987e-21)
(1.0157 0.00090906 -1.50136e-21)
(0.924713 -0.0614714 -1.72892e-21)
(1.00817 0.00190066 -3.04856e-21)
(1.00867 -0.0279688 3.55244e-21)
(1.01769 -0.00148972 0)
(1.01426 0.00165037 -4.76165e-22)
(0.945559 0.199343 8.06147e-21)
(1.12042 -0.285115 8.83e-21)
(1.00996 0.00306684 3.83748e-21)
(1.01744 0.00205177 0)
(1.01715 0.0018251 0)
(1.01709 0.00384015 -1.93526e-21)
(1.0199 0.00244116 -1.42174e-21)
(0.870624 0.243246 0)
(0.931508 -0.0721541 4.56715e-22)
(0.947224 -0.08919 1.78974e-21)
(0.997654 -0.0250804 0)
(0.920928 -0.190903 4.77015e-21)
(1.01259 -0.00237613 4.54391e-23)
(1.03844 -0.012411 1.6295e-21)
(1.01599 -0.0223119 -4.44995e-21)
(1.02599 -0.0179074 -3.21454e-21)
(0.878677 -0.0609941 0)
(1.01484 -0.00338038 1.24598e-21)
(1.01394 -0.00187594 2.8607e-21)
(1.11895 -0.11202 0)
(0.996 -0.036037 0)
(1.01829 -0.408835 -9.84615e-21)
(1.01447 -0.0027485 -1.22499e-21)
(0.938167 -0.280764 9.04268e-21)
(0.865952 -0.0215579 -1.09491e-20)
(1.01098 -0.000138301 0)
(1.04194 -0.0732765 0)
(1.03992 -0.0182429 -1.85991e-20)
(0.850265 0.240697 1.91628e-21)
(1.01068 -0.000206226 1.81015e-21)
(1.03202 -0.0257118 -4.38949e-21)
(0.886511 0.0790039 0)
(1.0089 0.00277669 -1.79225e-21)
(1.01459 -0.00294267 0)
(1.00497 0.0208813 -2.62375e-21)
(1.02117 -0.0071557 1.47768e-23)
(1.01252 -0.000128292 3.00287e-22)
(1.01382 -0.00191265 -1.3395e-21)
(0.881865 -0.232395 7.72982e-21)
(1.0211 -0.0077397 0)
(1.04808 -0.0286595 8.76078e-21)
(0.934026 -0.0081215 -5.46076e-21)
(1.03873 -0.0689466 0)
(1.03075 -0.00665705 1.417e-21)
(0.994937 -0.00796463 1.28069e-22)
(1.05231 -0.0195656 5.21605e-22)
(1.07457 0.106259 9.1653e-21)
(1.0478 -0.0262869 9.9664e-23)
(1.0158 0.000933016 0)
(1.02293 -0.00465909 -1.39685e-21)
(1.03071 -0.00898094 0)
(1.02341 0.00102335 -1.72034e-21)
(1.00972 5.52262e-05 -2.82118e-21)
(1.01001 0.120283 -5.55982e-22)
(0.932177 0.0944305 0)
(1.0414 -0.017799 0)
(0.887055 -0.039094 0)
(0.989938 0.00869995 2.96362e-21)
(1.08779 -0.0130026 -6.12719e-21)