/*--------------------------------*- C++ -*----------------------------------*\
| =========                 |                                                 |
| \\      /  F ield         | OpenFOAM: The Open Source CFD Toolbox           |
|  \\    /   O peration     | Version:  v2012                                 |
|   \\  /    A nd           | Website:  www.openfoam.com                      |
|    \\/     M anipulation  |                                                 |
\*---------------------------------------------------------------------------*/
FoamFile
{
    version     2.0;
    format      ascii;
    class       surfaceVectorField;
    location    "750";
    object      Uf_0;
}
// * * * * * * * * * * * * * * * * * * * * * * * * * * * * * * * * * * * * * //

dimensions      [0 1 -1 0 0 0 0];


internalField   nonuniform List<vector> 
14516
(
(0.961802 0.0846404 6.18972e-21)
(0.95029 0.079017 1.77309e-21)
(0.961706 0.0690673 5.87146e-21)
(0.969385 -0.0399703 7.09665e-22)
(0.957508 -0.073923 -1.15119e-21)
(0.975896 -0.0683987 1.3601e-23)
(0.976652 0.0886425 -4.93299e-21)
(0.963388 0.100474 3.9577e-21)
(1.01347 -0.000762861 0)
(1.01348 -0.000832007 0)
(1.01356 -0.000785291 7.24867e-22)
(0.531828 -0.0347082 -2.57491e-21)
(0.546661 0.00753116 0)
(0.525549 -0.0952752 -5.62169e-21)
(1.01361 -0.013895 8.35475e-23)
(1.01473 -0.0136156 0)
(1.01394 -0.0126148 3.04283e-22)
(1.00885 -6.46741e-05 8.7144e-23)
(1.00966 -0.000223583 -1.63407e-22)
(1.01036 -0.000317345 -1.1285e-21)
(1.01268 -0.00114011 2.5394e-21)
(1.01259 -0.0010801 1.47382e-22)
(1.01267 -0.00115122 3.8316e-21)
(1.02672 -0.00225726 -2.10976e-23)
(1.027 -0.00195009 -2.44449e-21)
(1.02724 -0.00250653 2.31392e-23)
(0.539602 0.00172158 -1.51723e-20)
(0.543249 -0.0610889 -2.18847e-21)
(1.00719 -0.0975238 0)
(1.00673 -0.104432 6.75245e-21)
(1.01465 -0.100157 -6.08939e-21)
(0.919637 -0.0970421 1.47798e-21)
(0.924917 -0.110302 -1.88404e-21)
(0.906953 -0.109842 -1.00365e-21)
(1.0134 -0.000686364 0)
(1.01338 -0.000725398 -4.94209e-24)
(1.01378 0.0024157 4.15537e-22)
(1.01351 0.00215849 -1.2473e-22)
(1.01369 0.00194886 -7.32286e-24)
(1.00385 -4.76332e-05 0)
(1.00388 1.17288e-05 6.8454e-22)
(1.01411 0.00265145 -5.95278e-22)
(1.01439 0.00274266 -1.85502e-21)
(1.01419 0.00233591 -8.7626e-22)
(1.01375 -0.00363768 -1.00384e-21)
(1.01442 -0.00336452 0)
(1.01366 -0.00297509 -6.84876e-22)
(1.013 -0.00388327 8.07246e-22)
(1.01398 -0.00458328 -1.87338e-21)
(0.906389 0.255669 1.70766e-21)
(0.881553 0.265897 -1.26705e-21)
(0.892073 0.276274 3.84605e-22)
(1.01398 0.00295882 2.14131e-21)
(1.07107 -0.117361 0)
(1.08858 -0.118946 -1.50589e-21)
(1.07782 -0.10327 0)
(1.02404 -0.00583014 0)
(1.02369 -0.00563583 1.732e-25)
(1.02376 -0.00607436 -1.68539e-23)
(1.05928 0.0582748 -8.09536e-21)
(1.04984 0.0756519 -3.92697e-21)
(1.06237 0.0637759 -2.3857e-21)
(1.01811 0.00237962 0)
(1.01791 0.00230697 -2.33496e-24)
(1.01773 0.000680015 7.26007e-22)
(1.01753 0.00129738 -1.34063e-21)
(1.0185 0.00123942 2.19995e-21)
(1.01315 -0.000528368 1.32345e-22)
(1.01335 -0.000604987 8.25528e-22)
(1.0154 0.00354797 6.144e-23)
(1.01504 0.00359604 -8.795e-22)
(1.01556 0.00408409 -7.28159e-22)
(1.01491 -0.00161271 1.0286e-21)
(1.01529 -0.00165957 -6.41345e-22)
(1.01494 -0.00132194 9.16722e-22)
(0.975612 -0.040599 2.43528e-23)
(0.981542 -0.0426359 0)
(0.979756 -0.0365165 -8.08667e-24)
(1.02621 -0.00202019 -1.05752e-21)
(1.02645 -0.00249368 -5.32001e-22)
(0.988877 -0.0281109 5.90667e-21)
(0.987018 -0.0315748 2.13761e-21)
(0.992483 -0.0313926 5.06651e-21)
(1.06693 0.0391011 1.08309e-21)
(1.05554 0.0512952 1.48957e-20)
(1.08796 0.00559868 -8.37286e-21)
(1.08192 -0.0291772 -8.75851e-21)
(1.07241 0.0175991 -8.06055e-21)
(1.00825 6.35304e-05 -1.06405e-22)
(1.00824 3.54274e-05 2.58152e-22)
(1.00599 3.7003e-05 -1.82573e-22)
(0.969769 -0.0373427 5.42685e-22)
(0.964404 -0.0333787 -2.26243e-23)
(0.969317 -0.0296658 -2.84515e-22)
(1.11425 -0.161814 -2.78201e-21)
(1.1416 -0.166718 -3.37826e-21)
(1.12185 -0.191016 5.2183e-22)
(1.00791 -4.67672e-05 -1.64416e-21)
(1.00623 4.8849e-05 -1.29586e-21)
(1.02447 -0.00558037 0)
(1.02424 -0.00603131 0)
(1.01315 -0.00147843 -2.05485e-22)
(1.01323 -0.00155734 -1.05208e-22)
(1.0133 -0.00159639 -1.05167e-21)
(1.01048 -2.64241e-05 0)
(1.01004 -5.77529e-05 6.39462e-22)
(1.01087 -6.91526e-06 -8.94342e-22)
(0.991471 -0.0241967 -3.39809e-21)
(0.98618 -0.0227707 -3.75175e-21)
(1.0064 1.66298e-05 -5.64624e-22)
(1.00355 -5.51347e-05 0)
(1.01186 -0.000478829 3.76918e-22)
(1.01253 -0.000404597 3.78029e-22)
(1.01189 -0.00045936 -1.49688e-22)
(1.00953 -0.000151738 1.78381e-21)
(1.00873 -0.000194731 8.80612e-23)
(1.01036 -0.00012885 -1.07539e-22)
(1.00956 -0.000272727 1.65055e-21)
(1.01193 -0.000398102 0)
(1.01297 -0.000467507 1.14211e-22)
(0.970903 -0.0453931 -1.90005e-22)
(1.00512 -0.05503 -1.39711e-21)
(0.997203 -0.0574896 4.69655e-21)
(0.998908 -0.0476108 1.20902e-21)
(0.932369 0.0694443 0)
(0.919526 0.0619285 1.20347e-21)
(0.937664 0.0561428 0)
(1.0135 -0.000915652 -1.25817e-21)
(1.01341 -0.000878866 -3.8866e-22)
(0.957209 -0.0306959 0)
(0.958817 -0.0396133 2.39355e-23)
(0.984855 -0.0954138 -4.69787e-23)
(0.988845 -0.102176 1.96787e-21)
(0.992933 -0.0952919 1.66466e-22)
(1.01793 -0.0144644 1.73959e-21)
(1.0172 -0.0151447 -4.10455e-23)
(1.01846 -0.0156877 -2.88197e-21)
(1.02457 -0.00515994 4.29416e-22)
(1.02434 -0.00491657 6.30196e-22)
(1.02419 -0.00512608 -1.33726e-21)
(0.847086 -0.0844065 4.05437e-22)
(0.841508 -0.101029 -8.26737e-22)
(0.861643 -0.0923911 -4.71904e-22)
(0.993191 -0.215813 0)
(0.986133 -0.236894 -2.03112e-23)
(0.969881 -0.222242 -2.38401e-21)
(1.02115 0.000183686 -9.02201e-24)
(1.02076 0.000234353 -1.01449e-22)
(1.03618 -0.173751 -4.17247e-21)
(1.04631 -0.167236 0)
(1.03442 -0.16326 0)
(0.828872 0.310745 0)
(0.812441 0.312649 2.10365e-21)
(0.836165 0.333937 0)
(1.01308 -0.00142889 4.40213e-23)
(1.01303 -0.00138162 -6.73471e-22)
(1.00882 -4.92089e-05 -6.64656e-22)
(1.00827 4.16094e-05 0)
(1.00968 -5.82805e-05 0)
(1.02134 -0.0135791 0)
(1.02092 -0.0143462 1.11212e-21)
(1.02211 -0.0144928 0)
(0.83166 0.148446 0)
(0.808196 0.16185 -4.84309e-22)
(0.816565 0.131221 0)
(1.01431 -0.000372067 -1.33266e-22)
(1.01494 -0.000488882 4.09339e-23)
(1.01403 -0.000374419 -1.02856e-22)
(0.557968 -0.238817 0)
(0.534716 -0.205902 5.3705e-21)
(1.09454 0.0314555 6.27381e-21)
(1.09705 -2.91624e-06 -5.29573e-21)
(1.0966 0.00113222 2.49362e-22)
(0.855849 0.129633 -2.71036e-22)
(0.854088 0.156131 0)
(0.875766 0.11753 -9.45718e-22)
(0.894178 0.10503 -4.72796e-21)
(0.894121 0.122728 -1.37379e-21)
(0.914792 -0.0844359 1.05883e-21)
(0.929222 -0.0868791 4.55549e-21)
(1.00081 -0.0930293 0)
(1.00909 -0.0891983 -5.80576e-21)
(0.831142 -0.0752184 -3.10322e-21)
(0.851551 -0.0661335 7.02165e-22)
(1.01313 0.00025237 0)
(1.01357 0.000312188 0)
(1.01435 0.000476065 0)
(1.01515 -0.00353835 4.73136e-22)
(1.01534 -0.00372958 0)
(1.01518 -0.00372332 1.05959e-23)
(1.05886 0.00467406 3.14835e-22)
(1.05917 0.00198996 6.2859e-23)
(1.05813 0.0180706 -4.44972e-22)
(0.953105 -0.0237045 2.15422e-21)
(0.947626 -0.0300909 1.50192e-21)
(0.847853 0.29867 0)
(0.826006 0.284096 0)
(1.02131 -4.09584e-05 2.11605e-22)
(1.02148 -0.00028617 -9.25084e-24)
(1.02103 -0.00018454 1.51805e-22)
(1.02132 0.00318277 1.79838e-26)
(1.02134 0.00280982 -4.58103e-23)
(1.02189 0.00311779 1.35225e-26)
(1.01872 0.00307173 3.68182e-22)
(1.01783 0.00306187 1.49803e-21)
(1.01796 0.00240583 4.74546e-23)
(1.01664 -0.00146179 0)
(1.01654 -0.00102345 0)
(1.01604 -0.0013527 0)
(1.09026 0.0577902 5.89869e-22)
(1.08826 0.0536342 9.88465e-22)
(1.01616 0.0042313 -6.84298e-22)
(1.01536 0.00379172 1.73493e-21)
(1.01589 0.00343168 -1.56307e-24)
(0.930745 -0.0790025 -4.55858e-21)
(0.923175 -0.109051 1.91662e-21)
(0.917422 -0.0838784 1.78633e-21)
(1.03649 -0.0250319 -7.13973e-22)
(1.03375 -0.0312687 -6.47647e-22)
(1.03036 -0.0243843 9.59566e-22)
(0.994518 -0.0213603 4.1257e-22)
(0.996928 -0.0248118 2.38854e-21)
(1.0198 -0.0466711 1.29099e-22)
(1.01278 -0.0519076 0)
(1.01309 -0.041984 0)
(1.01731 -0.00162548 0)
(1.0167 -0.00201208 0)
(1.02159 -0.000498847 -2.80173e-22)
(1.0217 -0.000730634 1.19832e-22)
(1.02129 -0.000620379 2.43198e-23)
(1.02076 -0.0127969 0)
(1.02028 -0.0119078 0)
(1.01979 -0.0124511 8.90769e-22)
(1.01356 0.00361721 6.55688e-22)
(1.01408 0.00428772 -1.45993e-21)
(1.01323 0.00442261 2.36893e-22)
(0.960576 -0.0115706 5.10984e-21)
(0.978734 -0.00914288 1.00999e-20)
(0.720183 -0.173909 2.6702e-21)
(0.679992 -0.182618 1.48014e-21)
(0.712424 -0.152378 5.94078e-21)
(1.01472 0.00124403 -6.61424e-22)
(1.01492 0.00138606 0)
(1.01496 0.00122216 0)
(1.07111 0.0213009 -5.0234e-21)
(1.07565 0.0240791 4.38603e-22)
(1.02182 -0.0129013 0)
(1.0435 -0.0255789 1.79994e-23)
(1.03798 -0.0193156 1.34365e-22)
(0.99908 -0.19609 -1.0311e-21)
(1.01509 -0.207718 0)
(0.94343 -0.0773059 -2.02643e-21)
(0.937521 -0.0430605 -5.00383e-21)
(1.01448 0.00122323 -6.90767e-22)
(1.01451 0.001114 -6.68603e-22)
(1.01417 0.000319014 -8.85479e-23)
(1.01433 0.000349282 -6.90237e-22)
(1.0141 0.000393594 -5.07014e-22)
(1.01425 0.000230327 -3.7238e-22)
(1.01403 0.000284126 1.2991e-21)
(1.01174 0.000450405 1.74289e-21)
(1.01166 0.00108379 0)
(1.01124 0.000572332 0)
(1.01291 0.000364897 -1.28565e-21)
(1.01299 0.000472271 -2.28425e-21)
(1.01298 0.000373358 -1.90336e-21)
(1.01283 0.000360922 1.58641e-23)
(1.01284 0.000277432 -6.20727e-22)
(1.02083 0.00317496 1.94371e-22)
(1.02122 0.00355797 1.79374e-22)
(0.996861 -0.0189518 -3.0437e-21)
(0.992674 -0.0173023 -4.14188e-21)
(1.02016 -0.0113454 -2.49142e-22)
(1.02091 -0.0115684 -8.03613e-22)
(1.00838 1.44877e-05 -5.22005e-22)
(1.00893 -9.43078e-05 -1.84132e-21)
(1.00975 -0.000118474 4.22351e-22)
(1.01759 -0.0133624 1.3164e-21)
(1.01867 -0.013776 1.01484e-21)
(0.956954 -0.0641846 3.83604e-22)
(0.943493 -0.0609253 -8.70055e-21)
(0.95562 -0.0488757 2.3925e-21)
(1.01285 0.000263711 0)
(1.0117 0.000110649 5.13281e-23)
(1.02076 -0.132556 -4.77523e-22)
(1.00831 -0.126438 -1.08084e-22)
(1.00684 -0.142183 8.94964e-23)
(1.0194 0.000413912 1.82583e-22)
(1.0197 0.000337695 -4.62231e-23)
(1.05075 -0.302396 1.18655e-22)
(1.02743 -0.274852 -6.20118e-21)
(1.01687 -0.302874 4.98163e-22)
(0.981654 -0.0886776 -2.434e-21)
(0.976666 -0.0957211 5.0412e-21)
(1.0216 8.59965e-05 5.42953e-23)
(1.08088 -0.0888531 4.47177e-21)
(1.0668 -0.122333 1.05798e-20)
(1.074 -0.113886 -1.80677e-20)
(0.947899 -0.0171509 9.29927e-22)
(0.957389 -0.0173704 3.6696e-22)
(1.01703 0.00448677 -1.43523e-21)
(1.01636 0.00517118 0)
(1.06625 0.0196441 -4.41338e-22)
(1.07328 0.00611613 -1.02896e-21)
(0.96811 -0.0663654 -9.42058e-22)
(0.959318 -0.0794167 5.12318e-21)
(1.00811 0.000145194 -2.98223e-23)
(1.00503 5.0555e-05 5.51276e-23)
(1.00518 4.5259e-05 2.84709e-23)
(1.0195 -0.00215992 1.1554e-22)
(1.01975 -0.00230807 0)
(1.01974 -0.00210406 0)
(1.01233 -0.0137655 5.01966e-24)
(1.01327 -0.0150887 9.24825e-23)
(1.02586 -0.00755402 -3.41541e-22)
(1.02555 -0.00775634 -1.18514e-22)
(1.02547 -0.00724952 -1.62848e-21)
(1.06067 -0.131359 3.89047e-23)
(1.05609 -0.115877 0)
(1.0575 -0.0721776 0)
(1.06064 -0.0684106 -1.22752e-20)
(1.05566 -0.068011 0)
(1.02544 -0.0417602 -5.23295e-22)
(1.02749 -0.0515534 2.66717e-21)
(1.01967 0.00281674 -5.70631e-22)
(1.01949 0.00380508 3.33307e-22)
(1.01619 -0.00332626 0)
(1.01626 -0.00321716 -6.12091e-22)
(1.01604 -0.00317898 5.79128e-22)
(1.01144 0.000170161 -6.55078e-23)
(1.01097 0.000185609 5.9119e-23)
(1.01267 0.000262411 -9.98122e-23)
(1.0219 -0.000389309 -1.38738e-22)
(1.01615 -0.00341049 0)
(1.01635 -0.00345768 7.25924e-22)
(1.01141 -0.00246628 1.59352e-21)
(1.0116 -0.00320523 2.2934e-22)
(1.01196 -0.00276514 2.10114e-22)
(1.02577 -0.00180066 3.68839e-22)
(1.02607 -0.00157309 -9.88763e-22)
(1.02178 -0.000956034 2.93896e-22)
(1.02189 -0.00120955 -1.88992e-22)
(1.02149 -0.00106481 2.04171e-22)
(1.01239 -0.000214751 -6.48921e-22)
(1.01447 -0.000337309 1.93945e-24)
(1.00894 -5.16398e-05 -2.80911e-22)
(1.01032 -0.00019901 -6.95458e-22)
(1.01922 0.000246998 2.00964e-22)
(1.01907 0.000435276 -3.82058e-22)
(1.01333 0.000397784 2.6896e-22)
(1.01349 0.000442606 -6.20115e-22)
(1.01335 0.000416955 -5.96074e-22)
(1.01928 -0.00219808 -1.1881e-23)
(1.01927 -0.0020162 -2.09551e-23)
(1.01795 -0.000462541 7.17032e-22)
(1.01794 0.000116252 1.67687e-22)
(1.0187 -0.0001696 -1.30453e-21)
(1.01214 -0.000468564 6.56546e-22)
(1.01235 -0.000459187 1.22838e-21)
(1.01197 -0.000461552 -7.52144e-22)
(1.01439 -5.90325e-05 -1.18456e-21)
(1.01426 -1.54888e-05 8.7585e-22)
(1.01437 -0.000139422 -9.46717e-22)
(1.01324 0.00237912 9.45116e-22)
(1.01321 0.00181665 -2.00835e-21)
(1.01239 0.00215881 -1.02366e-21)
(1.01286 0.00267954 3.78168e-22)
(1.01236 0.00294214 -1.83984e-21)
(1.05122 -0.0370275 2.09781e-22)
(1.0447 -0.0438083 1.96284e-22)
(1.0418 -0.053169 8.35407e-21)
(1.01437 3.56505e-05 8.63387e-22)
(1.0146 -9.21014e-05 -1.27122e-22)
(1.01385 0.00109833 -1.13184e-21)
(1.01405 0.00115123 -1.03022e-21)
(1.01396 0.00121156 -5.29855e-22)
(0.747312 -0.175861 6.6007e-22)
(0.720586 -0.199404 1.05515e-21)
(0.78495 0.373989 -1.29697e-20)
(0.797024 0.356322 -6.53296e-21)
(0.799137 0.382295 -1.06907e-20)
(1.01229 0.000301881 -1.20931e-22)
(1.01018 5.44263e-05 -3.63513e-22)
(0.771125 0.358881 5.47839e-21)
(0.765905 0.384518 5.91962e-21)
(0.552525 0.0782617 3.28759e-22)
(0.554288 0.0216176 3.10977e-21)
(1.01365 0.00103477 6.99013e-22)
(1.01371 0.0010098 -1.76777e-24)
(1.01027 0.000211455 -6.51215e-23)
(1.01015 0.000215053 -2.54331e-22)
(1.01215 0.000202571 1.4988e-21)
(1.01153 0.000146174 2.80747e-22)
(1.01253 0.000269615 1.11951e-21)
(1.01792 -0.000962034 1.85505e-21)
(1.01739 -0.00060878 1.75149e-21)
(1.01433 0.000141031 -1.14184e-22)
(1.01418 0.000133501 8.99947e-22)
(1.01226 -0.000484456 5.5627e-22)
(1.01194 -0.000373766 1.2549e-21)
(1.01278 -0.00120195 -1.13813e-22)
(1.0127 -0.00112757 1.10257e-21)
(1.01457 -0.00151888 6.93185e-23)
(1.01475 -0.00186925 4.27132e-22)
(1.01536 0.00271586 -1.77615e-21)
(1.01554 0.00263526 -7.38993e-24)
(1.01578 0.00293442 -8.4891e-22)
(0.933182 0.239914 4.36761e-22)
(0.968936 0.217799 -1.00016e-21)
(0.949705 0.240237 1.88558e-22)
(1.0524 -0.0256259 4.21716e-21)
(1.05725 -0.00927784 7.28723e-22)
(1.05398 -0.0269086 -7.76701e-22)
(1.09992 -0.138329 -9.15097e-22)
(1.10988 -0.118781 -1.58356e-21)
(1.01265 -0.0630506 0)
(1.01316 -0.00928092 -4.11003e-22)
(1.01498 -0.0097265 2.49936e-22)
(1.01429 -0.00795075 -6.36153e-23)
(1.01529 0.00312054 1.79727e-21)
(1.01573 0.00341066 1.77248e-21)
(1.01242 -0.000152271 -1.19186e-22)
(1.01242 0.000254452 -1.20348e-21)
(1.01263 0.000187224 3.35664e-22)
(1.01378 -0.00243674 7.05877e-22)
(1.01382 -0.00271066 9.64764e-22)
(1.01389 -0.00237451 -6.60723e-22)
(0.791715 -0.0307609 5.61766e-21)
(0.811358 0.006209 5.9486e-21)
(0.793185 0.0291148 2.43048e-21)
(1.0486 -0.0215833 4.73211e-22)
(1.04552 -0.0415375 4.68328e-22)
(0.791569 -0.091264 -1.78678e-21)
(0.784733 -0.0587245 1.73751e-21)
(1.02643 -0.00711837 0)
(1.02616 -0.00742338 7.15305e-22)
(1.026 -0.0068384 8.37547e-23)
(0.922635 0.234417 2.75244e-21)
(1.02211 -0.000854063 -6.90971e-24)
(1.0175 0.00226404 2.50671e-23)
(1.01733 0.00214503 -2.75886e-24)
(1.01727 0.00222206 -1.52644e-22)
(1.01618 -0.00385287 5.05636e-22)
(1.01638 -0.00400436 4.96201e-22)
(1.01628 -0.00377379 -6.29603e-22)
(1.02003 -0.031121 -5.81127e-21)
(1.01738 -0.0316282 -8.61207e-22)
(1.01974 -0.0336328 -2.52247e-21)
(1.08578 -0.400254 3.85123e-20)
(1.08511 -0.435926 3.20651e-20)
(1.12157 -0.424661 -3.39324e-20)
(1.03434 -0.0106853 2.43298e-21)
(1.0339 -0.00990526 -4.66955e-21)
(1.03337 -0.0105892 2.51271e-22)
(1.01451 0.000147419 1.05344e-22)
(1.01721 0.000294186 -5.92384e-22)
(0.898105 0.302555 6.10361e-21)
(0.883341 0.314961 -5.68559e-21)
(0.894571 0.319436 -1.25542e-20)
(1.01509 -0.00337949 1.08469e-21)
(1.01497 -0.00334806 1.72539e-21)
(1.02596 -0.179603 9.31751e-22)
(1.03871 -0.185882 -4.25108e-21)
(1.01605 -0.00391222 -5.85968e-22)
(1.01599 -0.00368301 -1.46431e-22)
(1.01928 -0.0025961 1.21163e-22)
(1.01904 -0.00262464 -1.63527e-22)
(1.01926 -0.00279054 -1.05091e-23)
(1.01515 0.00279105 -1.2317e-22)
(1.01503 0.00250359 -1.13469e-21)
(1.02687 -0.00746652 1.03949e-21)
(1.02673 -0.00689203 -5.64408e-22)
(1.017 -0.000183015 -2.28835e-22)
(1.01701 -0.000256916 1.65038e-24)
(1.01714 -0.000189725 -7.98281e-24)
(0.947176 0.0754234 0)
(0.930286 0.0835981 2.23294e-21)
(1.03443 -0.139043 -1.26583e-22)
(1.03229 -0.123085 3.43496e-22)
(0.85595 0.105443 7.26861e-22)
(1.02255 -0.0310228 -2.45133e-21)
(1.02051 -0.0291666 1.97824e-22)
(0.873916 0.143352 -7.22227e-21)
(0.895394 0.128324 -1.15725e-21)
(0.915914 0.138202 1.00961e-20)
(1.01361 0.00142307 0)
(1.01335 0.00137348 0)
(1.01339 0.00111287 -1.41645e-21)
(0.591178 0.160426 -2.12793e-20)
(0.585051 0.140304 -1.54996e-21)
(1.01332 0.000376812 4.40528e-22)
(1.01309 0.00034428 5.39187e-22)
(1.02535 -0.00164566 7.71693e-22)
(1.02557 -0.00201542 1.08921e-21)
(1.01043 0.183806 1.53853e-21)
(1.03774 0.154 1.5604e-21)
(1.04886 0.140046 -3.22977e-21)
(1.00296 -0.2532 3.99076e-21)
(0.978771 -0.256766 -1.97357e-23)
(1.01632 -0.00313219 -5.88699e-22)
(1.01617 -0.00297708 0)
(1.01639 -0.00303467 4.57294e-22)
(1.02196 -0.00143295 -7.1789e-22)
(1.02227 -0.00133509 -6.15e-22)
(1.02031 0.00317091 -7.28788e-22)
(1.02044 0.00290259 1.82824e-22)
(1.08686 -0.155281 1.78707e-21)
(1.01373 0.000529772 0)
(1.01375 0.00073224 0)
(1.01369 0.000707734 0)
(0.999246 -0.0168421 7.09321e-22)
(1.00083 -0.0196214 -2.7197e-21)
(1.02603 -0.0110397 -1.25479e-21)
(1.02552 -0.0105217 2.18788e-21)
(1.02613 -0.0104023 7.57124e-22)
(1.00318 -0.0263587 -1.02219e-21)
(1.00656 -0.0278856 0)
(1.0033 -0.0296466 0)
(0.961923 0.0771544 0)
(0.963786 0.0661426 1.48483e-21)
(0.906177 0.0511951 5.24689e-21)
(0.90024 0.0678859 -6.12077e-21)
(1.02473 -0.00556611 5.08683e-22)
(1.025 -0.00529864 3.25256e-22)
(0.851067 0.158161 -1.30398e-20)
(0.82888 0.144987 2.81818e-21)
(1.01188 0.00022167 2.48074e-23)
(1.01272 0.000253013 7.8703e-22)
(1.01219 -0.000923996 8.11637e-22)
(1.01217 -0.00138283 0)
(1.0124 -0.00124374 3.81681e-22)
(0.915995 0.29618 1.16552e-20)
(0.903167 0.283756 5.08759e-21)
(1.01991 0.00315482 -2.13573e-22)
(1.02023 0.00343366 -4.5685e-22)
(0.744289 -0.00672444 1.66093e-20)
(0.727228 -0.00798617 1.90619e-20)
(0.740657 -0.0511645 4.22805e-21)
(0.932773 0.00808048 1.09439e-20)
(0.939935 0.016228 1.50125e-21)
(0.927479 0.0194279 9.86606e-22)
(1.02028 -0.00153822 -4.71959e-24)
(1.02051 -0.00145227 -1.19851e-23)
(1.02017 -0.00136921 -6.55587e-23)
(1.0262 -0.00792824 -2.92023e-22)
(1.01697 -0.000106871 -2.42471e-22)
(1.01686 -0.000175999 1.18356e-22)
(1.03056 -0.036105 5.27676e-23)
(1.03808 -0.0385316 4.95597e-23)
(0.988556 0.193948 -2.51261e-21)
(1.01585 -0.0145429 5.26632e-22)
(1.0157 -0.0131745 1.11277e-21)
(1.0135 0.000964089 -9.83564e-22)
(1.01338 0.000888381 -1.34232e-21)
(1.01334 0.00088506 -9.38862e-22)
(0.937478 -0.00113081 3.7068e-21)
(0.925748 0.000773196 3.55259e-21)
(1.00659 -0.0795927 4.34028e-21)
(1.00011 -0.0809362 -9.47181e-22)
(1.00285 -0.0751131 2.81509e-21)
(1.01811 0.00251647 -3.8846e-23)
(1.01833 0.00248547 1.7846e-23)
(1.0177 0.0022978 2.34277e-23)
(1.01775 0.00217274 1.20418e-22)
(1.03533 -0.0108936 -4.78169e-22)
(1.03458 -0.0117424 3.84009e-21)
(1.01292 0.000320502 5.33972e-22)
(1.01317 0.000333606 -1.31986e-22)
(1.0128 0.000306164 3.62409e-22)
(1.04219 -0.0858537 1.00794e-21)
(1.04685 -0.0825763 1.75127e-21)
(1.04111 -0.0806954 -6.52243e-21)
(0.764913 -0.00729375 -2.08219e-21)
(0.749669 0.0321132 -5.42104e-22)
(1.01907 0.000113475 -3.00963e-23)
(1.01878 0.000145763 5.25883e-24)
(1.01891 -1.11698e-05 -2.78867e-23)
(1.01405 -0.00239077 1.41602e-21)
(1.01401 -0.00239457 5.93718e-22)
(1.01403 -0.00221026 5.90221e-22)
(0.983576 -0.184307 -1.23442e-21)
(1.00226 -0.177438 1.68661e-21)
(1.01257 0.00176919 -1.16268e-22)
(1.01307 0.00200694 -6.43608e-22)
(1.0128 0.00243739 1.2087e-21)
(1.00105 -0.0151049 3.00294e-21)
(0.998013 -0.0137602 4.69553e-21)
(1.01332 0.000964251 3.07779e-21)
(1.01327 0.00133573 1.87943e-23)
(1.01348 0.00128339 8.33825e-22)
(1.01408 -0.00194253 0)
(1.0141 -0.0018348 9.38728e-23)
(1.01414 -0.00179584 -1.07476e-21)
(1.0947 0.000334869 -4.30681e-21)
(1.08889 0.0411106 -5.56524e-21)
(1.01407 -0.0023653 0)
(1.01406 -0.00221345 0)
(1.01408 -0.00234346 -1.48146e-21)
(1.01426 0.00119775 -1.00983e-23)
(1.0141 0.00108486 -1.62967e-24)
(1.0125 -0.000995213 8.50338e-22)
(1.01249 -0.00101762 2.97485e-22)
(1.01776 -0.00149421 0)
(1.01846 -0.00142339 0)
(1.01441 0.00133635 6.16167e-22)
(1.00937 -2.98433e-05 -1.07059e-21)
(1.00801 8.82907e-05 5.62026e-23)
(1.02237 -0.00651497 -7.18314e-23)
(1.0224 -0.00636204 -6.73838e-23)
(1.02258 -0.00652039 1.97527e-23)
(1.0226 -0.0179134 0)
(1.02403 -0.018173 0)
(1.02327 -0.0168942 1.92772e-21)
(0.978574 -0.0809618 -6.11063e-22)
(0.986155 -0.0815485 -2.06533e-21)
(1.05444 -0.0759505 -7.46071e-21)
(1.0508 -0.0794532 1.27483e-21)
(1.04937 -0.0747747 -4.10738e-22)
(1.01402 -0.00185905 -9.03945e-22)
(1.01397 -0.00185231 -1.82589e-22)
(1.014 -0.00178072 -1.48039e-21)
(1.02633 -0.00519042 -8.89863e-22)
(1.02652 -0.00584286 6.86913e-23)
(1.02724 -0.00516565 6.16424e-23)
(1.01389 -0.0029512 -1.21637e-21)
(1.014 -0.00285332 -3.25689e-22)
(1.01401 -0.0031893 1.85457e-22)
(1.02128 -0.0175988 0)
(1.02202 -0.0191546 0)
(1.00798 -0.00788653 0)
(1.00818 -0.00935878 0)
(1.00915 -0.00857016 1.62374e-21)
(1.01383 0.000253412 8.26036e-22)
(1.01378 0.000380022 8.6466e-22)
(1.01378 0.000424495 7.91076e-23)
(0.940555 -0.200634 -2.51004e-21)
(0.927956 -0.196788 -7.35723e-21)
(0.92797 -0.215801 -1.04607e-21)
(1.01408 -0.00255856 0)
(0.970714 -0.0804066 1.31179e-21)
(0.976191 -0.0737924 -2.44885e-21)
(1.00839 0.000126676 -3.19341e-22)
(1.00985 4.22335e-05 -1.36999e-22)
(1.00889 3.84438e-05 -1.00631e-21)
(1.01214 -0.0109532 -3.76467e-22)
(1.01111 -0.00871923 -1.94284e-22)
(1.01901 0.00288981 5.98977e-24)
(1.01932 0.00292553 -7.79929e-23)
(1.01909 0.0027972 -4.572e-23)
(1.01886 0.00298735 1.35548e-22)
(1.01874 0.00280646 3.80336e-23)
(0.999967 -0.0247796 -2.04718e-22)
(1.0037 -0.023216 -1.47567e-21)
(1.06686 0.113541 1.82956e-21)
(1.03074 0.164189 1.30078e-20)
(1.01965 -0.0108962 -6.41488e-22)
(1.01893 -0.0108536 1.96398e-22)
(1.01921 -0.0102099 -9.44107e-23)
(1.01389 0.000106425 -3.3449e-22)
(1.01387 0.000157124 0)
(1.01446 0.00161967 -1.30426e-21)
(1.0144 0.00163962 -5.00336e-22)
(1.01427 0.00152018 -1.9612e-21)
(1.02394 0.00310129 -1.14723e-21)
(1.02246 0.00179245 8.58227e-22)
(1.02445 0.00158031 1.06707e-21)
(1.02072 -0.00135423 4.74072e-23)
(1.02097 -0.00126631 -1.45047e-22)
(1.02062 -0.00115308 -5.564e-24)
(1.00516 -0.0150947 -5.15593e-22)
(1.0057 0.0139702 0)
(0.993437 -0.00294542 -3.2335e-21)
(1.00611 -0.0438788 -1.44083e-21)
(1.01736 -0.0277808 -2.11144e-21)
(1.01647 -0.00327224 2.64743e-22)
(1.04918 -0.144968 3.7762e-23)
(1.03491 -0.157713 2.36702e-23)
(1.0165 -0.000343242 0)
(1.01647 -0.000313018 0)
(1.01653 -0.000300901 0)
(1.05966 -0.0767441 -5.02181e-22)
(1.01758 -0.0019357 0)
(1.01723 -0.00150055 1.78851e-21)
(1.01828 0.00277991 3.5353e-23)
(1.01821 0.00264646 -7.06516e-24)
(1.01847 0.00273436 5.43411e-23)
(1.00815 -7.17809e-05 -3.28595e-22)
(1.00599 -3.91552e-05 0)
(1.00812 -2.59258e-05 0)
(1.01092 -6.19303e-05 2.83689e-22)
(1.01015 8.9132e-06 0)
(1.02012 -0.00165935 4.24049e-23)
(1.02038 -0.00171516 -7.09687e-23)
(1.02235 -0.00666825 -2.69055e-22)
(1.02215 -0.00650073 0)
(1.01476 -0.0135619 1.59196e-21)
(1.01628 -0.0143492 6.82953e-23)
(1.01589 -0.0126661 6.532e-22)
(1.01129 -0.00032623 -3.3804e-22)
(1.01102 -0.000235876 -7.09254e-23)
(1.01153 -0.00035827 -1.71386e-21)
(1.02168 -0.00152546 -1.22925e-22)
(1.02203 -0.00166711 1.43214e-22)
(1.01937 7.58589e-05 4.77782e-23)
(1.08178 -0.0627289 6.23943e-21)
(1.09029 -0.0617174 6.35026e-22)
(1.01792 -0.0118211 -1.03099e-21)
(1.01728 -0.012304 -2.04927e-21)
(1.01709 -0.0114466 -1.76465e-22)
(1.0063 -0.000149307 -3.24246e-21)
(1.01193 0.00014224 0)
(1.01011 0.000203008 1.12431e-22)
(1.01097 0.000148637 0)
(1.01142 -0.00179377 1.21321e-21)
(1.01088 -0.00212038 -2.88086e-22)
(1.02462 -0.00791714 -6.26396e-22)
(1.02434 -0.00789628 1.28567e-22)
(1.02441 -0.00759354 1.32599e-22)
(1.01295 -0.0126447 4.90333e-22)
(1.01341 -0.0147464 -6.58523e-22)
(1.01616 -0.000553541 3.25654e-22)
(1.01619 -0.000642304 2.88694e-23)
(1.01625 -0.000569796 -8.42875e-22)
(0.931145 0.25492 -2.75197e-20)
(0.913137 0.302728 3.82474e-20)
(0.944196 0.256967 -1.07388e-20)
(1.01359 0.00104977 6.11617e-22)
(0.936822 0.288837 -7.46428e-21)
(0.91908 0.298535 -9.47366e-21)
(0.931985 0.281135 1.23642e-21)
(0.982263 -0.218776 1.22368e-20)
(0.981076 -0.187207 -1.33535e-20)
(0.963157 -0.22503 2.53655e-21)
(1.00617 2.44894e-05 0)
(1.00795 3.5342e-05 0)
(1.00825 -1.89174e-05 -4.34874e-22)
(1.00897 -0.000118133 3.0636e-22)
(1.00974 -0.000193193 1.20702e-21)
(1.01409 -9.2316e-05 1.51437e-21)
(1.01415 -0.000103511 0)
(1.01427 -0.000216155 -1.6925e-21)
(1.02553 0.00446668 -9.63912e-22)
(1.02302 0.00485654 -2.07596e-21)
(1.01905 -0.00621478 4.64365e-22)
(1.01867 -0.0071683 -5.17804e-22)
(1.01962 -0.00688221 -3.42406e-22)
(1.0173 -0.00229076 0)
(1.01682 -0.00219646 -2.69617e-23)
(1.01701 -0.00257723 -9.79936e-22)
(0.952181 0.273751 -3.06385e-21)
(0.935719 0.296278 -3.02382e-21)
(1.01612 -0.000309912 5.83781e-22)
(1.01574 -0.00035849 -3.0714e-22)
(1.01629 -0.000164928 1.49291e-23)
(1.01402 -3.77979e-05 -8.81466e-22)
(1.01396 4.93236e-05 -7.94726e-22)
(1.01954 -0.00524308 -3.71132e-22)
(1.01828 -0.00529868 1.60065e-22)
(1.02214 -0.00739016 0)
(1.02241 -0.0072992 0)
(1.02245 -0.00755515 -3.87588e-23)
(1.02216 -0.00548257 -5.52325e-23)
(1.02193 -0.00532717 -3.34774e-23)
(1.0222 -0.00531356 -8.78404e-23)
(1.01372 0.00306822 -1.12479e-21)
(1.01308 0.00303367 0)
(1.02403 -0.0335654 -3.1575e-22)
(1.0146 -0.00141055 -7.72053e-22)
(1.01473 -0.00132134 -7.48078e-22)
(1.01474 -0.00140257 -1.60413e-21)
(1.02153 0.000534607 1.09385e-21)
(1.02217 -0.000633174 -4.39112e-22)
(1.02059 -0.000742331 -6.87343e-22)
(1.0259 -0.0115729 -2.53645e-21)
(1.02657 -0.0114379 -2.32279e-21)
(1.01411 -0.00157376 -6.94869e-22)
(1.01422 -0.00155679 -3.23769e-21)
(1.01418 -0.00156992 4.26272e-24)
(1.05659 0.00986152 2.89189e-22)
(0.847022 0.211206 3.19369e-21)
(0.858561 0.192628 -1.62322e-20)
(0.881742 0.2005 1.34832e-21)
(1.05883 -0.0105083 -2.67449e-22)
(1.05847 0.00160972 6.21578e-21)
(1.01957 0.00303918 2.46561e-22)
(1.01948 0.00322794 1.10763e-22)
(1.0633 -0.384876 1.15189e-20)
(1.08972 -0.379562 2.62578e-20)
(1.02408 -0.00782877 0)
(1.02386 -0.00773742 2.91454e-22)
(1.02395 -0.00752025 0)
(0.802999 0.302941 -1.9675e-20)
(0.788991 0.284161 1.26019e-20)
(0.943294 -0.0103916 -1.3937e-21)
(0.937168 -0.01612 -1.2396e-21)
(1.01517 0.00218678 -2.69915e-22)
(1.01501 0.00201648 -1.16129e-21)
(1.01527 0.00210273 -9.09284e-22)
(1.04067 -0.0153489 3.26447e-23)
(1.04135 -0.0169014 0)
(0.948704 -0.00294373 -3.90534e-21)
(1.01213 0.000383045 -1.38597e-22)
(1.01182 -8.94549e-05 2.23788e-21)
(1.00297 -0.0135832 -1.76592e-22)
(1.00402 -0.0157711 -1.78799e-21)
(0.993389 -0.109068 -2.08195e-21)
(1.00004 -0.108449 3.29962e-21)
(0.995721 -0.116621 -8.40358e-22)
(1.01241 -0.000902938 4.86636e-22)
(1.01233 -0.000869509 -1.17805e-21)
(1.01234 -0.000827555 -1.08499e-21)
(1.01091 -0.000202926 -1.0703e-21)
(1.01228 -0.000499673 -4.83958e-23)
(1.02504 -0.00139055 -1.07908e-22)
(1.02488 -0.00167613 -6.3511e-22)
(1.0104 5.84443e-05 -1.08603e-22)
(1.01045 6.68003e-05 3.20984e-22)
(1.00928 6.07432e-05 -1.48873e-21)
(1.01569 -0.00193319 -1.21519e-21)
(1.01567 -0.00153406 -1.23576e-21)
(0.914589 0.11382 4.5182e-21)
(0.946521 0.111381 0)
(0.929857 0.101663 0)
(1.01593 -0.00394945 -9.29165e-22)
(1.01614 -0.00410829 -4.90926e-23)
(1.01399 -0.00158073 1.50874e-21)
(1.01404 -0.0015967 -7.31728e-22)
(0.955159 0.180103 -3.51068e-20)
(1.01213 0.00148837 -1.31247e-21)
(1.01251 0.00120777 -7.93736e-25)
(1.0147 0.00317031 -8.10455e-22)
(1.01466 0.00279653 -1.90456e-21)
(1.01965 0.00287077 -2.55119e-22)
(1.02364 -0.00681839 -6.41296e-24)
(1.02361 -0.00673172 -1.49639e-22)
(1.02354 -0.00689106 2.14776e-22)
(1.01249 -0.000950337 5.15462e-22)
(0.876292 0.117497 7.93948e-21)
(1.02493 -0.00790608 -7.24632e-22)
(1.02524 -0.00783409 1.37232e-21)
(1.02494 -0.00750225 5.86846e-22)
(1.02088 -0.00309166 -5.88878e-24)
(1.02097 -0.00325329 7.5739e-23)
(1.02071 -0.00321885 1.40689e-23)
(1.02134 -0.00681027 7.33335e-24)
(1.02158 -0.00700982 -3.97079e-23)
(1.0213 -0.00707016 5.22075e-22)
(1.01168 0.00177755 1.26906e-21)
(0.78673 0.0796621 0)
(0.799678 0.108992 3.25474e-21)
(0.790322 0.061626 0)
(1.02448 -0.00467948 6.12241e-22)
(1.02407 -0.00463796 -6.04828e-22)
(1.05017 -0.017727 0)
(1.04624 -0.0172971 2.15221e-22)
(1.04825 -0.0213627 0)
(1.01764 0.00239917 2.2651e-23)
(1.00213 -0.0526144 -1.93674e-21)
(1.00638 -0.0519424 1.98026e-21)
(1.00292 -0.0493778 -1.25236e-22)
(0.816085 -0.0639376 -7.98378e-21)
(0.809635 -0.0832964 -1.542e-21)
(1.01535 -0.185522 4.74207e-21)
(1.01514 -0.173537 3.41058e-21)
(0.997281 -0.0534864 1.32729e-21)
(1.00161 -0.0566871 -1.6375e-21)
(1.02358 -0.00686309 9.63547e-24)
(1.02365 -0.00683589 2.14118e-22)
(1.01079 -0.00447266 1.76001e-21)
(1.01117 -0.00369729 7.08196e-22)
(1.01042 -0.00347435 7.3011e-22)
(0.853907 0.175351 -4.27206e-21)
(0.816272 0.182787 -2.26392e-21)
(1.00813 -0.000114545 -5.96511e-22)
(1.00946 3.07762e-05 -7.97025e-22)
(0.953478 -0.202724 6.47202e-22)
(0.955689 -0.185458 -1.4551e-21)
(1.01386 0.00255842 -6.55201e-23)
(1.01429 0.0029519 -1.44673e-21)
(1.01241 0.000293788 2.72145e-22)
(1.01302 0.00034112 9.01307e-22)
(0.982677 -0.239321 1.53909e-20)
(1.00304 -0.209279 9.10584e-22)
(1.00449 -0.0122938 2.57162e-21)
(1.00217 -0.0111787 -7.41652e-23)
(0.845147 0.230229 1.41107e-21)
(0.818531 0.223817 -1.00024e-20)
(1.02074 -0.00294052 -2.7891e-23)
(1.02102 -0.00300744 2.1276e-23)
(1.03756 -0.0886406 8.31976e-22)
(1.04362 -0.09123 6.83416e-21)
(1.15264 -0.148157 0)
(1.1611 -0.170989 -3.27804e-21)
(1.01149 0.00450151 3.83139e-21)
(1.01236 0.00571474 -3.59247e-22)
(1.01271 0.00443993 1.25224e-21)
(1.01502 -0.00318745 -7.94727e-22)
(1.01485 -0.00302868 6.3495e-22)
(1.01495 -0.00302392 -1.10224e-21)
(1.06817 -0.0630698 0)
(1.02877 -0.0297328 3.42908e-21)