/*--------------------------------*- C++ -*----------------------------------*\
| =========                 |                                                 |
| \\      /  F ield         | OpenFOAM: The Open Source CFD Toolbox           |
|  \\    /   O peration     | Version:  v2012                                 |
|   \\  /    A nd           | Website:  www.openfoam.com                      |
|    \\/     M anipulation  |                                                 |
\*---------------------------------------------------------------------------*/
FoamFile
{
    version     2.0;
    format      ascii;
    class       surfaceScalarField;
    location    "50";
    object      meshPhi;
}
// * * * * * * * * * * * * * * * * * * * * * * * * * * * * * * * * * * * * * //

dimensions      [0 3 -1 0 0 0 0];
oriented        oriented;


internalField   nonuniform List<scalar> 
14470
(
0.00288849
-0.00090511
-0.00198549
0.000357695
0.000235619
-0.00403003
0.00400572
1.22481e-05
0.000175365
0.000234169
-0.000409535
0.0008696
-0.000926183
4.47511e-05
0.00111216
-0.00111497
3.04987e-06
-0.000779767
0.00154216
-0.000762208
0.000155297
0.000421513
-0.000576805
0.00316685
-0.000536011
-0.00263574
-0.000129591
-0.00130089
0.00140542
-0.00140633
0.00125541
2.67158e-05
0.00320366
-0.00327678
-0.00113502
0.000522151
0.00061269
-0.00451581
0.00325568
0.00123959
0.0022991
-0.00280014
0.000500735
0.00168099
-0.00167692
-3.29322e-06
-0.00395603
0.00125729
0.00268479
0.000632236
-0.000531955
-0.000100277
-0.00143618
0.00303113
-0.00168544
-0.00184502
-0.00207714
0.00388064
-0.000288601
0.000288601
9.99255e-05
-0.00049569
0.000395763
0.000504746
-0.000349446
-0.00073336
-0.000401838
-0.00052376
0.00210284
-0.00157937
-0.00336691
0.00103893
0.00230035
0.000350001
-0.000497863
0.000120203
0.00112223
-0.00263374
0.00133723
-0.000333984
-0.00100299
0.000320654
0.000132596
-0.000453249
-0.00108131
0.000975767
0.000105688
0.00371982
-0.00368671
-4.7704e-05
-0.000693594
-0.00286912
0.00353961
-0.000296239
-0.000266711
0.000365954
0.00107697
0.000843408
-0.00191999
-0.00215055
-0.00029026
0.00243899
-0.000265335
-0.00143453
0.00169896
-0.000326707
-0.000426175
0.000752875
-0.00226563
0.00158611
0.000680001
1.33477e-05
0.00132419
0.000548055
0.000299617
-0.000847607
-0.000195918
0.000516209
-0.000320282
-1.00004e-05
0.000342125
0.00045844
0.00293425
-0.00339905
0.000510396
0.00292259
-0.00343937
-0.000282049
-0.000234134
0.000516184
4.62975e-05
-0.000269878
0.000223226
-0.000855163
0.00320623
-0.00237289
-0.000220679
-0.00375186
-0.00140619
0.00248375
-0.000772497
0.000288628
0.00232979
-0.00162089
-0.00070817
0.000761852
-0.000717487
-0.00195227
0.00133217
0.000620162
0.000624428
-0.000449063
-0.0033384
-7.93904e-05
0.00336244
-0.000111269
-0.0013137
0.00142572
0.00202299
-0.00289773
-0.000269878
0.00193869
-0.000357274
-0.00158203
-0.000537227
0.00103332
-0.000496024
0.00383332
-0.00387501
2.95872e-05
-0.00257352
0.000454942
0.00211907
-0.000182208
0.000978681
-0.000946516
8.99931e-05
0.00307046
0.00023396
0.000237278
-3.16341e-05
0.0021619
-0.00213063
-0.00019282
-0.00224197
0.00243327
-0.000825767
0.000247158
0.000578649
0.00386318
-0.00169193
-0.00217609
-0.00010202
-0.000682746
0.000784743
-0.000345411
0.000618918
-0.000273504
0.00191919
-0.00184932
-6.96571e-05
0.000663534
-0.00101922
0.000355752
0.000539559
-0.00067714
0.00012344
-0.00118069
0.00143214
-0.000251427
0.000928301
-0.000374597
-0.000553674
-0.0039688
0.00102206
0.00294316
-0.000704002
0.000721507
-1.99274e-05
-7.88079e-05
-0.00110187
0.000490376
0.000141864
0.00149219
0.000189544
-0.00227703
0.000504153
0.00177301
-0.0023448
-0.000866778
-8.57723e-05
0.000952659
-0.000818324
0.000119561
-0.00194853
0.00162312
0.000326583
0.000409986
-0.000736704
0.000309815
-0.000846981
-0.000433499
-0.000138487
0.000571984
-3.46918e-05
0.000618919
-0.000584194
-0.00078196
0.000747311
0.000985999
-0.00166505
0.000679562
-0.000603805
0.000407898
-0.00385503
0.000732594
0.00310437
-0.000283786
0.000947397
-0.00148153
3.81716e-05
0.00144389
0.00233438
-0.000409896
-0.00192475
6.22835e-05
0.0007898
0.00040282
0.000370846
-0.000773699
0.000478442
0.00185196
0.00160207
-0.00179663
0.000194016
-0.00319016
0.00364137
0.00120992
-0.000940023
-0.000269787
0.000743246
-0.000351188
-0.000392039
0.00177958
0.000139647
0.00313576
-0.00295243
-0.000254092
-0.00327291
-0.000704573
-0.000245212
-0.000780994
0.000761079
-1.31302e-05
0.000519532
-0.000419608
0.000154363
0.000405591
-0.000559954
0.000368578
9.71963e-05
-0.000465774
0.000968357
0.0028895
-0.000867211
0.00272313
-0.0018696
-0.00107849
0.00303364
-0.00195728
-0.00303089
5.59883e-05
0.00296546
-0.00016795
-0.000413289
0.000581238
-0.00283073
0.0033561
-0.00053061
0.000447097
0.000576366
-0.00102343
-0.00188808
-5.91996e-05
0.000998524
-0.000919365
-7.90895e-05
-0.000200027
-0.001533
0.0017339
0.00253198
-0.00282445
-0.003264
0.000426098
0.00169025
-0.000582363
-0.00110733
-0.000250869
0.000571523
-0.00113266
0.00161286
-0.000479579
-0.00175132
0.000619375
-0.00247004
-5.27326e-06
0.00247374
-0.00446648
0.00144177
0.00298866
0.000225689
0.0026603
-0.00229834
-0.000175863
0.00247322
-0.0024766
0.00216019
0.000316577
0.000476054
0.000491103
-0.00096705
2.56833e-05
-0.000957742
0.000932266
-0.00244103
0.00136072
0.000564656
-3.68035e-05
0.00159301
-0.000598663
-0.000993867
0.000740565
-0.000539428
-0.000201124
-0.0016328
-0.00394386
0.00120125
0.00273503
-0.000230539
-0.00160471
0.00183628
-0.000220062
-0.000314841
0.000534904
0.00028463
0.000443744
-0.000728345
0.00339112
-0.000128654
0.000237577
-0.000521329
-0.00225384
-0.00224136
0.000125373
-0.000863314
0.00349955
-0.00267029
-0.000551684
0.000722711
-0.000171024
-8.72348e-05
0.00242112
-0.00161454
-0.00178521
-0.00339377
0.00318306
0.000205746
-0.000604231
0.000872839
-0.000268576
-7.12604e-05
-0.00160502
0.00373546
8.44895e-05
-0.000225984
-0.000855209
-0.00254594
-0.000573714
0.00311273
0.00179429
-0.000170019
-0.00219513
-0.000276042
-0.00308457
0.00120651
-0.000108407
0.000544733
-0.000436319
0.000791205
-0.00340329
0.00260238
0.000403861
0.000524481
0.0017214
-0.0015246
-0.000197815
0.000346391
-0.00307692
0.00272376
-0.00291488
0.00325388
-0.000417902
-0.000108496
0.00127186
-0.00119548
-0.002132
-0.00181779
-0.000390465
0.000608133
-0.000217668
0.000670688
-0.000419833
-0.000250851
0.000382163
-0.00107861
0.00069632
-0.00299106
0.00297581
0.00105859
5.38649e-05
-0.00109877
0.000484031
0.000614832
0.000777378
-0.000183881
-0.000593492
-0.00445
0.00333419
0.00110475
-0.000551333
-0.00182167
0.00237248
0.000838469
0.000371541
-0.000502111
-0.000371256
-0.00151581
0.0030745
-0.00256991
-1.56467e-05
-0.00277033
0.00277701
0.000147857
0.000703861
0.000294779
0.000227047
-0.000572455
0.00034053
0.000330163
0.00169297
-9.154e-05
-0.00312837
0.000664706
0.00245667
-0.000107061
0.000396617
-0.000289558
-0.000657082
0.000109423
0.000547657
0.00200758
-0.0019491
-5.92339e-05
-0.00270518
-0.000455946
0.00314137
-0.00019935
0.0024053
-0.00220633
-0.000491817
-5.82689e-05
0.000550086
0.00319255
-0.00135593
-0.00192186
-0.00167173
0.00291775
-0.00185101
0.00197504
-0.000134922
-0.00127313
-0.00186864
0.00313699
-0.00106776
-0.0015001
0.00254201
0.00202887
-0.000435288
-0.00159304
0.00268795
-0.00208461
-0.000604039
0.000212686
-0.000636809
0.000424123
-0.00355455
0.00076129
0.00278784
-0.00181149
0.0020182
-0.000206431
0.0028724
-0.0025322
-0.000656714
-0.00222206
0.00287643
0.000881022
-0.000652066
-0.000228938
0.00152237
0.000559718
0.000180855
-0.0026942
0.00274676
-0.00014492
-0.000640557
-0.000185177
-0.000484598
-0.00179233
0.0021279
-0.0024196
0.000291553
-0.00229328
-0.00223718
-0.000644661
0.00112083
0.00189088
-0.00276997
0.00130483
-0.000256632
-0.00104827
-0.000208603
-0.00127242
0.00212519
-0.00322518
0.0004983
3.60872e-05
-0.000534392
-0.000542248
0.00131675
-0.00077462
-0.000567918
0.00155431
0.00398337
-0.000951134
-0.00304866
-0.000302336
0.00180125
-0.00149788
-0.00141842
-3.48701e-06
0.00142146
0.00109525
-0.00112751
3.22303e-05
9.9956e-06
0.00108523
0.000396821
0.000246849
-0.000643675
0.00100847
0.0005088
-0.00151651
-0.000198578
0.00232684
-0.000963236
-0.00160956
-0.000125437
-0.000531645
-0.00021232
-0.0030179
0.00319593
0.000354176
0.000582668
-0.00021409
0.000968551
0.00213219
0.00167792
-0.00165777
-2.85118e-05
-0.000464562
0.00101271
-0.00414092
0.00364516
0.00048582
-0.000225893
-0.000570805
-0.000272363
-0.00108637
0.00135936
-9.82263e-05
0.00133765
-0.00123877
-0.00304471
0.00134676
-0.00189856
-0.00190501
9.38131e-05
0.0015585
3.0345e-05
-0.00158848
-0.00226135
0.00195846
0.00030217
-0.00343344
-0.0017297
0.000992768
0.000737265
-0.000485688
-4.68065e-05
0.000532495
-0.00111911
0.00320873
0.000584316
0.000712889
-0.00129731
0.000186901
0.000584935
0.00206195
-0.000177657
-0.00190293
0.000954954
-0.000592207
-0.000537873
0.000456477
-0.00333449
6.36606e-05
0.00326655
0.000141661
-0.000745865
-0.000606884
0.000917497
-0.000310556
0.00238776
-0.00200062
-0.000446453
-0.000727369
0.00260278
-0.000897292
0.000388139
0.0005092
0.000381633
0.000338341
-0.00115871
0.0011519
-5.19203e-06
-0.000343393
-0.000326097
0.000442217
-1.623e-05
-0.000590628
0.000596497
-0.000704894
-0.00197594
-0.000135685
0.00211103
-0.000859576
0.000467745
0.000391859
-0.00121415
-0.000167822
0.00138265
-7.58452e-05
-0.000495448
0.000417925
7.75212e-05
-0.000743721
-0.00233851
0.000154425
-0.000408104
0.00025368
0.000733584
-8.06605e-05
-0.000675057
-0.00149998
8.09165e-05
0.000146344
-0.000393972
0.000247627
-0.000466541
0.00103454
-0.00056803
-0.000492879
0.00152717
-0.000517972
0.0024703
-0.00247715
0.00159195
-9.91065e-05
0.00026697
0.00241991
-0.000285348
-0.00291148
0.00317578
0.00193915
-0.0030376
0.00109297
0.00045852
0.000422526
0.00101947
-0.00154348
-0.00215266
0.00141033
-1.01861e-05
7.4029e-05
-7.64099e-05
-0.000741594
-0.00202857
-9.31615e-05
0.000555195
-0.000656719
-0.00323195
-0.000567517
0.000224263
0.000343251
-0.00380028
0.00101169
0.00272309
0.000211783
0.0031511
-0.00338337
0.000386187
0.000133701
-0.000676241
-0.00348971
9.67338e-05
0.000498484
-0.000519341
2.08566e-05
0.000714814
-0.000430158
-0.00113797
0.000643466
0.000494432
0.000350659
0.00169636
-0.00204866
-0.00169101
0.00146143
0.000391953
-0.00179562
0.00160104
0.000194768
-0.000612836
6.11555e-05
-0.00321007
1.50192e-05
0.000483257
0.000434303
-0.0023438
0.000156147
0.00218822
0.0038979
-0.000969838
-0.000113544
-1.6063e-05
0.00350546
0.000199012
-0.000702604
-0.00102676
0.000235619
0.000398608
-0.00271515
0.00309867
-0.00038738
-0.00114996
-0.00019984
0.00134946
0.00344632
0.000116459
0.00245147
-0.00257062
0.000149701
0.00116455
-0.00131476
-0.000120282
0.00134139
-0.00122085
0.00313772
-0.00385574
-0.00304233
-2.36781e-05
0.00305827
-0.0019071
0.00225598
-0.000563044
-0.000445399
0.00100851
-0.000425311
7.37147e-06
0.00041794
-0.00304265
-0.000997291
0.00019128
-0.00321272
0.000412937
0.00217615
-0.00260502
-0.000478674
8.8209e-05
-0.000354158
0.000508585
-0.000556638
0.000694759
-0.000138118
-0.00292822
-0.000122559
0.00301532
0.0010811
-0.00120116
-0.0013942
0.000243898
0.000757915
-0.00043433
-0.000323577
0.00168527
-0.000708984
-0.000975606
-0.000250525
-0.00280752
0.00302662
0.000136268
0.00295293
-0.00311656
-0.00251632
0.0029114
0.0014957
9.69242e-05
-0.000451665
0.00304294
-0.00259548
0.000509812
-6.75391e-05
-0.00044227
0.00210891
-0.00290427
0.000783484
0.00345307
-0.00423363
0.000739679
0.00134556
-0.000362316
-0.000983274
-0.000270763
-0.000296758
-0.000304527
-0.000336005
0.000533275
-0.000845092
0.000768157
-0.000365351
-0.00167376
-0.000528055
0.00220206
0.000487856
-0.000165779
-0.000322076
-0.000680423
0.000397953
0.000282475
-0.000232746
0.000629566
0.000127905
0.00201645
-0.00214438
-0.001136
-0.00112918
0.00091839
-0.000892507
0.000172239
-0.000605745
0.000381042
0.000281744
0.00102191
-0.00130423
0.00021881
-0.000608967
0.000374625
-0.000144648
-0.00183165
-0.000572585
-0.00261355
0.00316274
-0.0036417
0.00320808
0.000362889
-0.00301501
0.00255918
-0.00323199
0.00273851
0.000450317
-6.53804e-05
6.53804e-05
-0.00015602
0.000665837
-0.00143851
-2.14345e-05
0.0013096
-0.00128768
-0.00210958
0.00189211
0.000217895
0.00032163
0.000881761
-0.00120316
0.00231549
-0.00259261
-0.00154446
0.00204873
0.000497892
1.53134e-05
-0.000513206
-0.000753072
0.000277857
0.000475214
-0.000874051
-0.00013608
0.00100989
0.000204235
0.00148186
0.00367538
-0.000265786
0.00197431
-0.00184642
0.0004633
0.00352895
0.000573672
0.000343261
-0.000916895
0.00102567
-0.001603
0.000395546
0.000399927
-0.000704426
-0.000751497
0.0011514
-0.000399822
-0.00104906
0.000269438
-9.24502e-05
-0.000464186
-0.00122863
0.00137782
-0.00190847
0.000190092
0.00166869
0.00388316
-0.00364481
-0.000257064
-0.00101327
5.57072e-05
0.000966297
-0.000392585
-0.00298788
-0.000572448
-0.000391074
-0.000289347
-0.000179551
-0.00178213
-0.00232122
0.00175061
0.000555011
0.000514604
-0.00036826
0.000697397
0.00195334
-0.00132473
-0.00317424
-0.0014865
-3.87317e-05
0.00286334
-0.000767105
0.00286527
-0.00208202
0.000729869
-0.00115688
0.000426931
-0.00076371
0.000661666
0.000447637
-0.00190004
0.0014525
0.00162338
0.000383305
0.00299043
-0.00146997
-0.00157596
0.00330156
-8.7294e-05
-0.00322903
-0.000373325
-0.000545955
0.00146756
-0.00142886
0.00360824
-0.00366786
6.60502e-06
-0.0019634
0.00193864
1.56352e-05
-0.00104318
-0.00090895
0.00124309
2.01549e-05
-0.00126368
-0.00167043
0.00211816
0.000147913
-0.000462753
-0.00195488
9.00799e-05
-0.00373099
0.000845304
0.000469407
-0.000845227
0.000375836
0.00141439
0.00152127
5.79741e-05
-0.000543663
0.000300479
0.000476907
0.00272242
-0.00274652
-0.00357073
0.000167268
0.00338807
-0.000901864
0.00283564
0.00214911
-0.00118923
0.00334543
0.00090507
-0.000534252
0.00017728
-0.000201474
-0.000695783
0.00180451
0.0029361
-0.00297899
3.95249e-05
0.00140624
-0.00160548
0.00141012
-0.00167633
0.000208077
-0.000621369
0.000226164
0.00171211
-0.000694427
-0.000230915
-0.00185362
-2.16405e-05
0.00073649
0.000373052
0.00261773
-0.00299612
-0.00336254
0.000811555
-0.00296929
0.0012937
-0.00044855
0.00397952
-0.000956842
-0.00305524
-0.00300767
-0.000144517
0.00313676
-0.00303854
-9.72718e-07
-0.00167684
0.00164332
-1.1428e-05
-0.000299688
-0.00216558
0.00246419
0.00238102
-0.00211498
0.000906487
-0.00117833
-0.000420804
0.000415458
-0.000201677
-0.000633492
0.000141674
8.97059e-05
0.00172662
-0.00181688
-0.000872322
0.00012088
-0.000534641
3.91916e-05
-0.00301014
0.000133509
0.001212
0.000463464
0.00107891
-0.0030544
0.00257939
0.00142674
-0.00183804
0.00026254
-0.00334137
0.00253424
0.000800732
0.000483497
-0.00125185
0.000768406
0.00106219
-0.00122941
-0.000336613
0.00257
-0.000161717
-0.00241771
0.000221023
0.00174153
-0.000732662
0.00106895
-0.000336363
-0.000559847
-0.000538834
0.000368674
0.000764668
-0.00109633
-0.00154182
-0.00185614
0.000231482
-0.00151118
0.0012795
-0.000478748
0.000244615
-0.000854342
0.000387771
0.000498838
0.00103604
-0.00153574
9.10291e-05
0.0022894
-0.00238234
-0.000672471
0.00125673
0.000908643
-0.000504742
0.000548346
0.000674824
-0.00122268
0.00228106
-0.00314286
0.000858507
-0.00425435
0.00143938
0.00278151
-0.000423508
0.000636198
0.00376605
-0.00358689
-0.000195474
-0.000609534
0.00109366
0.00108223
-0.000328559
-0.000753507
0.00305029
0.000499112
-0.00030612
0.000902637
-0.00183074
0.00202319
-0.000192254
-0.000408566
-0.000210765
0.000619318
0.00334468
-5.99883e-05
0.00030179
0.000294441
-0.000596229
0.000481491
-0.000920676
0.000439311
0.00250916
-0.000210267
-0.000505397
0.000893587
-0.003431
-0.000442741
0.000354677
0.000403248
0.000456134
-0.00285886
0.00239074
-0.00343935
0.00321712
0.000202061
-7.09694e-06
0.00125831
-0.00361206
0.0033764
-0.000535882
-0.00264538
0.00336248
0.00120521
-0.003261
0.00203102
-0.000364201
-0.00187507
0.00223769
-0.00321693
0.00305704
-0.00284545
0.0016446
-0.00100122
-0.000643083
0.00336361
-0.00133945
-0.0020249
-0.00188839
0.00082528
0.00108621
-0.00196072
-0.0014452
0.00221215
0.000103405
0.000394487
-0.000752766
0.000989452
-0.000236718
-0.00156336
0.00206107
0.00109495
-4.0294e-05
0.00242027
-9.39221e-05
0.00282151
-0.00273079
-0.000227351
0.0016623
-0.00286955
0.000270369
0.000424394
0.00320537
-0.000307303
-0.000237862
0.000426001
0.000285477
0.000185761
-0.000471238
-0.000425235
0.000724899
0.00159546
-3.66003e-05
-0.000333556
3.13657e-05
0.000262544
-0.000931201
0.00333302
-0.00240721
-0.00113527
0.00112538
-1.2033e-05
-0.000625518
-0.000671994
-0.00272294
4.76575e-06
-0.00144737
0.0018522
-0.000404994
-0.000102134
-0.00217073
0.00227135
-3.95765e-06
0.000502255
2.46421e-05
0.000691452
0.000471705
-0.000237744
0.00013048
-0.000463414
0.000102097
-0.000966816
0.000403833
0.00076234
0.00228169
-0.00305568
-0.000713879
-0.00121606
0.00193127
-0.000479809
0.000433002
-0.00239194
0.0028347
-0.000424066
0.000909971
-0.000485833
-0.00355932
0.0034876
6.17726e-05
0.000114026
-0.00015961
-6.23872e-06
0.00321884
0.000615192
0.000742865
-0.00117548
0.000432733
-2.78057e-05
-0.000609004
-0.00214619
0.000187709
0.00261007
-0.00121482
0.00017729
-0.000771747
-0.000291819
0.00128486
-0.000381974
0.000683771
0.000322466
-0.00175767
-0.000566091
0.000742144
-0.000299782
0.00114727
0.000284929
-0.000363941
-8.4358e-05
0.000427339
0.00154228
-0.00247828
2.80573e-05
0.00288199
-0.00292752
-0.000587743
0.00149488
-0.00196059
-8.08497e-05
0.00195262
0.000895921
0.000420581
-0.00311069
0.00160581
-0.000410387
-0.00248496
0.00289129
0.000522944
0.00124759
-0.00176974
0.00101745
-0.000984313
-3.30702e-05
-0.000432198
-0.000752717
0.00118519
0.00337885
-0.000247902
-0.000241471
0.000428519
-0.00107874
0.000518966
-0.000206502
0.00333508
-0.00313584
0.00299084
-0.000126161
0.000315804
-0.00146044
-0.00171262
-0.000782599
-0.000682083
-0.000396607
0.00217889
-0.00237711
0.000457676
-0.00088168
0.00115759
-9.33756e-05
-0.001064
0.00127313
0.000320946
-0.00159415
-0.00182971
0.00160501
0.000225045
0.000179213
0.000335393
-0.00233882
3.96778e-05
0.000393536
-0.0010192
-0.000554562
0.000343964
0.000210601
-0.000602976
-0.000363789
-0.000536886
-5.07951e-06
0.00054198
0.000347556
0.000734866
-0.00105486
0.00297002
-0.00143266
-0.000501016
7.57052e-05
0.00207236
-0.00154847
-0.000421604
0.000156653
-0.00075959
-0.000462874
8.38318e-05
-0.000401033
0.00148396
0.000111941
0.0011028
-0.00102882
-7.36314e-05
-0.000849898
-0.000551362
0.00140066
0.000198456
-0.000469226
-0.000390021
0.000679268
-0.000289242
-0.000903031
0.00215154
0.00113922
-3.60126e-05
0.000147973
0.00152731
0.000908205
-0.000262389
-0.000645791
0.00194942
0.002933
-0.00218176
-0.000470936
-0.00254871
-0.00299011
0.000385762
0.0026001
-5.59898e-05
0.00152408
-0.000426324
0.000673173
0.000889799
-0.000422018
0.000554915
-0.000190221
-0.000364692
-0.00235379
0.00217697
0.00152868
-0.00172831
0.000225441
-0.000634031
0.000479266
-0.000847404
0.000368125
0.00247969
-0.0024882
6.35192e-06
-0.00142373
9.88021e-06
0.0014146
0.00143835
-0.00209677
0.000491808
-3.95298e-06
-0.000854598
0.00158433
0.00276932
-0.000818631
-0.000319383
-0.0004219
0.000891331
0.00014055
-0.000530566
0.000791131
6.61262e-05
0.00195781
0.000835396
-0.000416257
-0.000419094
0.000338579
0.00169067
0.000978621
-0.000274655
-0.00169577
0.000983028
0.00119291
-0.000871002
-0.000514286
-0.00152707
0.00204137
-0.000177477
-0.00363438
0.00262566
0.000999239
-9.0634e-05
0.0032676
-0.00170561
0.000365239
0.00134092
-4.10265e-05
-0.000244939
-0.000955811
-0.000749216
0.00127217
-0.000838558
-0.000433377
0.000232125
-0.00101354
0.000781544
-0.000188115
-4.25976e-05
0.000207002
-9.60153e-05
-0.000750419
0.000823129
-0.00316383
0.000536644
0.00262375
0.00283991
-0.000143058
-0.00270638
-0.000734751
-0.000206518
-0.00265343
-0.00149603
0.00127642
-0.000118602
0.00124515
-0.000761562
-6.07367e-05
0.00027959
-6.99097e-05
0.0011283
-0.000784989
-2.57582e-05
-0.00291366
0.0028894
-0.000369999
-0.00018456
5.01251e-05
-0.0016853
0.00163627
0.00123739
-0.00125428
1.68918e-05
-0.000151548
0.00103755
-0.000555924
0.00296002
-0.000910147
-0.00214085
-0.00282875
0.00193827
-0.000218378
0.00136572
-0.00131953
0.00318244
0.000142413
-0.00171185
0.00149149
0.000221204
0.000166569
0.000570694
-0.000737341
0.00118885
-0.00270862
-0.00138545
0.000963967
-0.00066717
-0.0002968
-0.00176501
-0.000496729
-0.000335899
0.00033995
0.000623996
0.000102237
-0.00312423
0.00148225
-0.00106833
-0.00173209
0.00241972
-0.00176053
0.00341105
-0.000240077
0.000856438
1.07543e-05
-0.000867193
0.000367334
-0.000368335
0.000630203
-0.000261864
-0.00249085
0.00285866
8.0579e-05
-0.00312974
0.00341117
-0.000304219
-0.00314287
0.00276761
-0.000530877
-0.00223875
0.00243034
0.000932189
-0.00230527
0.00182075
0.000355711
0.000287649
-0.000643374
-0.00175506
0.00180637
-0.00153667
0.000382672
0.00052602
-0.001841
0.00147719
-0.000204111
0.00295312
0.000219698
0.000551506
-0.000241013
-0.000310494
0.000157608
0.00231107
5.55598e-05
0.00128474
-0.00144402
-0.000624424
0.000856654
-0.000451072
0.000392803
-0.000927286
-0.00278742
-0.000122259
-0.00342552
0.000266214
0.000986024
0.00188612
-0.00186555
0.000954979
3.80051e-05
-0.000992823
4.7222e-05
0.00258591
-0.00263605
0.000675123
-0.00126223
-0.000110472
0.00258781
0.00310481
-0.00016108
-0.0011258
0.000693846
-0.000523963
-0.000138589
0.000662557
-0.00135457
0.00120163
0.000153368
0.000454055
0.00300982
-0.00231282
0.00281876
-0.000538776
0.000846648
-0.00130402
0.000457576
-0.00172337
0.00100904
0.000259319
-0.00126817
0.000678059
-0.0037137
0.00298534
-0.000142988
-0.00342687
-0.000448713
0.000545909
0.000245019
-0.000318485
-0.0013566
4.36487e-05
-0.000175224
0.00116921
-0.000994059
0.000321875
-0.000209771
0.000656497
0.00173327
-0.00239613
0.000409718
0.000119278
-0.000528989
0.000323658
-0.000757426
7.4029e-05
-0.000443288
0.000615522
0.000723261
-0.00157377
-0.000991546
0.000124863
0.0012162
-0.0014164
-0.00285584
0.00272966
4.90459e-05
-0.000573003
0.000541402
0.00016865
-0.00335002
0.000151587
0.00318938
-0.00246635
0.00311468
-0.00157157
0.00177927
-0.000207401
-0.000483698
0.000448371
3.5327e-05
-7.59961e-05
0.00210614
0.0032545
-0.00319498
0.00181617
-0.00314762
-0.00361045
-0.00293044
-0.00181152
-0.00182948
8.74341e-05
-0.000624309
-0.00174749
0.000176309
-0.00246598
0.00216521
-0.00267955
0.00258893
4.23297e-05
-0.000415167
0.000599011
-0.00118096
0.00252454
-0.00202404
0.0012525
-2.75097e-06
0.00320601
0.000168301
0.000963233
-0.00291551
0.00195142
-0.000490078
0.000548052
-0.000743427
-0.000433688
0.0011767
0.00253995
0.0003925
0.000186583
-9.85901e-05
-0.00157828
0.00151949
-0.0020338
0.000845236
-0.000423075
-0.000422135
-0.000570084
0.000142058
0.000428026
-0.00391503
0.000531167
0.00336408
-0.00159838
-0.000380472
0.000574357
-0.000193891
0.00103543
-0.001337
-0.00140873
0.00136086
-0.00114007
0.00141063
-0.000514863
0.000165745
-1.5954e-06
-0.000177014
0.00125576
-0.00124212
-7.94744e-05
-0.00011959
-0.000633483
0.000116206
0.00101584
2.56634e-05
0.000125964
-0.000366772
7.05051e-05
0.00249063
-0.00197376
0.00171542
0.000258831
0.000107568
0.00272197
0.00191143
-0.00204769
-0.00105556
0.00133673
-0.000426713
-0.000385602
0.000812298
-0.00185017
-0.00199535
0.000433716
0.00351136
0.000267858
-0.000333008
0.00359896
-0.000396933
0.00178771
0.000259427
-0.00205188
-0.00265347
0.00264469
-1.47203e-06
-0.00142909
-0.00256233
-0.000896141
0.00168772
-0.00079087
-0.00118312
0.000308742
-0.000109092
0.00160541
-0.0011547
-0.000556456
-0.00181004
-0.00250333
0.000500506
-0.000298762
-0.000201744
0.000499253
0.000829885
-0.00132905
0.00308782
0.000275105
0.00161603
-0.000707981
-0.000908332
0.000236187
-0.000487056
0.000502211
-0.00284108
4.05989e-05
0.000179553
0.00305829
-0.00326474
0.000868123
-0.00116824
0.000300261
-0.0014171
0.000521821
-0.000415721
-0.00269219
-0.00182297
-0.000464311
0.00228755
-0.00337203
0.00258115
0.000705602
-0.00210794
-0.00032202
0.000140594
0.000468796
0.000605624
-0.0010743
0.0028935
-0.0011105
0.000761948
-0.000847624
-0.00317042
0.00301551
0.000125037
-6.59369e-05
0.00114761
-0.00108149
-0.00334985
-0.000240017
0.00352285
0.00270507
-0.00030067
0.000176867
0.00290032
-0.00308502
8.55789e-05
0.00209351
-3.8249e-05
-0.000694518
0.000555541
-0.000270064
-0.00174153
0.00167645
0.000985374
0.00063025
0.00193191
-0.000129574
0.00349158
0.000561995
-0.000382779
-9.54253e-05
0.000194686
0.00144057
-0.00163427
-0.00247924
-0.000565826
0.00303557
-0.00222054
-0.000374086
0.000555332
-0.000181246
-0.00300699
0.00316047
-0.000249528
-0.0031713
0.00012101
-0.00215936
0.00022101
0.00193837
-0.00124487
-0.00176814
0.00300742
0.000361381
0.000297509
-0.000648963
-0.00269191
0.000410325
0.000499733
0.000661885
-0.000252155
-0.000547316
0.000137781
0.000104208
-0.00085702
0.000237588
0.000262919
0.000108121
0.000840541
-0.00122622
0.000385626
-0.000677409
0.000326236
-0.000122013
0.000118675
-7.27632e-06
0.00262841
-0.00071674
0.00286889
-0.00222913
0.00045817
0.000735019
-0.00024608
0.00324399
0.000272121
0.000358088
-0.00126038
0.00149167
-0.0012088
0.00015539
0.00105375
-0.00336536
0.00286698
0.000494341
0.000410857
-0.00084821
0.000437383
0.000369076
-0.000458032
8.89573e-05
-0.000173685
0.000587573
-0.000413887
-0.00155909
0.00184716
-0.000287731
0.00195667
-0.0018213
-0.000134851
0.000246935
-0.000912694
0.000299569
0.000423147
-0.00335008
0.000444966
0.00285652
0.000141565
-0.00057032
0.000428748
-0.000456621
-0.000658176
-0.000927948
-8.50557e-05
0.00101309
3.93825e-05
0.000594009
-0.000633363
-0.00059082
0.000838029
0.00247333
-0.000515674
-0.00288947
0.00231572
0.000572789
0.00012327
-0.00217235
-0.000478963
0.00196884
-0.00148871
0.000296873
0.00032205
0.000347345
0.000260788
-0.000785681
-0.00194571
0.00265996
0.000461048
-1.38353e-05
-0.000447214
0.000306695
0.00221703
-0.00118402
0.000393341
-0.000820085
-0.000677768
0.000844247
0.000301593
-0.000979493
0.00286265
-0.0027516
-0.00149014
-0.00174313
-0.000243896
0.0019876
0.00242816
-0.00242095
-0.000745257
0.000273529
0.000128291
-0.00175985
0.00161454
-0.000461271
-0.000238184
0.00069947
0.000537175
-7.74966e-05
-0.000644982
-6.5767e-05
0.00289933
-0.00133176
0.000969904
0.000362046
-1.82753e-05
-0.000785935
0.00124443
2.36936e-06
-0.00202227
0.00201792
0.00066597
-0.000325435
-0.000516853
0.000774896
-0.000258031
-0.000413364
0.000970662
-0.000557261
0.00174458
0.000359297
3.77167e-05
-0.00041817
0.00217937
-0.00217914
0.000347475
-1.18034e-05
-0.00352274
0.00294153
0.000431904
0.00115821
-0.000148948
0.00149198
-0.00203122
0.00299907
-0.00321242
-0.000121592
-0.00186061
0.00198279
-0.0004041
0.000546158
0.00224186
-0.00197466
-0.00026669
-0.000288596
0.00298888
-0.00270459
-0.000240404
0.000719665
0.00388949
-0.00381848
0.00047183
-0.000108633
-0.00271628
0.00019051
0.00304286
0.000768686
0.00158781
-0.00235782
0.000419077
-0.000420483
1.40526e-06
-0.00112835
-0.000109637
0.000468912
-7.86426e-06
-0.000926833
0.000244065
0.000122952
0.00276656
-0.000230755
-0.00204446
0.000281197
0.00176378
2.15599e-05
0.000188802
-0.0030653
0.00283
-0.00318973
-0.000319178
0.00348555
-0.000375776
-0.000323956
0.000699747
0.00178819
-0.000186698
0.00225785
-0.00221312
-0.00156548
0.00129878
-0.00105519
0.000337749
0.000570488
0.00361392
-0.00265053
-0.00063881
0.00121525
0.0033268
-0.00252831
0.00167883
-0.000626378
0.000702187
-7.58118e-05
0.00118519
-3.20724e-05
-0.00115281
-0.0012188
0.0025004
-0.00297588
-0.00317666
0.00311941
3.10043e-05
-0.000402968
0.000550881
-0.000278596
-0.000557266
0.000835829
0.000659372
0.000468989
0.00026974
-0.000435519
-0.00270304
-3.06431e-05
-0.000543732
-0.00244959
-0.000809685
-0.00288462
-3.04422e-05
-0.00041827
-0.000195163
0.00210595
0.000870626
0.000407958
-0.00127821
0.000155654
-0.0020644
-0.000685929
0.00323585
-0.00255871
-0.00244547
0.000575895
-0.000770504
-1.57546e-05
0.000856679
0.00232615
0.00103861
-0.00110436
0.000547439
0.00308627
-0.000411305
0.000246774
-0.000769493
-0.000274687
-0.00185421
-0.00189761
-0.0020571
-0.000764008
0.000627754
-0.000284529
-0.000262787
0.000249231
0.00158799
0.000548114
-0.000240414
-0.0003077
0.00283
0.000256843
-0.00313023
0.00175244
-0.00026816
-0.00206586
0.00215518
0.00063483
0.000343912
0.000394088
-0.00332279
-0.000246717
-0.00157347
-0.000129361
0.00170242
-0.00120943
-0.000230168
-0.00126155
0.00149165
-0.000438403
0.00136031
-0.000811435
0.000429007
-0.000893492
-0.000819842
0.00070561
0.000114254
-0.00064161
0.00291894
-6.26945e-05
0.000803698
-0.000741145
-0.000491105
0.000527186
-0.00227731
0.00205053
0.000227079
0.00024903
0.000623851
0.00107386
0.000198593
0.00301662
-0.00351452
0.000478462
0.00214485
-0.00199092
-0.00149528
8.95775e-05
-0.000352544
0.00313801
-0.00169399
-0.00273332
-0.00211376
-0.00248501
0.00238826
0.000291823
0.00305765
-0.00337078
0.00352489
-0.00274377
-0.000785981
0.00319171
0.000645754
-0.000290052
0.000375482
-0.00219812
0.00226365
3.85884e-05
-0.00230366
0.000942328
0.00336388
-0.000637467
-0.00276203
0.00337378
-0.00329885
-8.06411e-05
-0.00156038
-0.000130263
0.00169111
-0.000552206
0.000947376
-0.000395097
-0.000119277
0.000975716
0.00129271
-3.66436e-05
0.00113171
-0.000622433
0.000505097
-0.00041463
0.000635644
-0.000221009
-0.00127138
-0.000708956
0.00198088
0.000330609
0.000233622
-0.00056423
-0.00148836
0.000726704
0.000761858
-0.000168525
-0.00179678
0.000406172
-0.00218999
0.00244498
-0.000256214
-0.00031331
-0.00032964
0.000642954
-0.000520222
0.000146136
-0.00142888
0.000427954
0.00061265
0.00343872
-0.000275078
-0.00294639
0.0030695
-0.000130075
-0.000941113
0.00182245
0.00031007
-0.000471238
0.000161168
-0.000305425
-0.00177658
0.00208214
0.00291276
0.000181515
-0.000149909
-0.000729008
0.000348524
-0.00108573
0.000668744
0.000417099
0.00234647
-8.45386e-05
-0.00166566
0.000888707
-0.001064
0.000382774
-0.00158757
0.00120548
-0.00197305
-0.000303588
-0.00045183
0.000593388
-0.000351433
0.00101087
0.00108805
-0.00354413
0.00245198
0.000920062
-0.000618581
-0.000966433
-6.20574e-05
-0.00142748
0.000487444
0.000939881
-0.000258261
-0.000561555
0.00039995
-0.00235956
8.16958e-05
1.63545e-05
-0.00318179
0.000538614
-0.0012247
0.000867062