/*--------------------------------*- C++ -*----------------------------------*\
| =========                 |                                                 |
| \\      /  F ield         | OpenFOAM: The Open Source CFD Toolbox           |
|  \\    /   O peration     | Version:  v2012                                 |
|   \\  /    A nd           | Website:  www.openfoam.com                      |
|    \\/     M anipulation  |                                                 |
\*---------------------------------------------------------------------------*/
FoamFile
{
    version     2.0;
    format      ascii;
    class       volVectorField;
    location    "50";
    object      U_0;
}
// * * * * * * * * * * * * * * * * * * * * * * * * * * * * * * * * * * * * * //

dimensions      [0 1 -1 0 0 0 0];


internalField   nonuniform List<vector> 
9793
(
(0.96218 -0.0180266 0)
(-0.0302008 -0.0461143 0)
(0.99224 -0.00545862 -8.5181e-21)
(-0.0479576 0.0391051 4.05058e-20)
(0.999954 -0.000877239 -6.22619e-21)
(1.22057 0.0109934 0)
(1.13971 -0.216276 6.10881e-20)
(0.0071466 0.0400761 9.09086e-20)
(1.02057 -0.0379482 -2.54133e-21)
(-0.0470048 -0.0146614 9.37869e-20)
(1.00011 -0.0023247 0)
(1.00011 -0.00248557 -5.76411e-21)
(1.00205 -0.0084714 -5.34466e-21)
(-0.189438 0.109612 0)
(1.01908 -0.0236524 8.5155e-21)
(1.04893 -0.00586348 2.11759e-20)
(1.13604 -0.0487627 2.70808e-22)
(0.994506 -0.00777715 -1.48386e-22)
(-0.00224048 -0.074907 -1.11596e-19)
(1.0185 -0.00583967 1.38066e-21)
(1.02333 -0.011129 8.75166e-21)
(0.999992 -0.000208623 0)
(-0.059069 0.107026 -5.20866e-20)
(0.0235495 0.0358576 -1.10387e-19)
(-0.178425 0.111867 4.51007e-20)
(0.924029 -0.0621096 -3.67423e-20)
(1.00017 -0.00385587 0)
(1.00003 -0.000594131 4.99144e-21)
(1.0183 -0.00615149 0)
(1.17282 -0.116659 -1.17832e-19)
(-0.308166 -0.00922714 1.71855e-19)
(1.26429 -0.000121903 2.19561e-20)
(0.996534 -0.00300841 1.08424e-22)
(0.997292 -0.00804091 -4.92431e-21)
(1.00536 -0.000534876 -6.03508e-22)
(1.07209 -0.0231537 0)
(1.04862 -0.0103567 1.45463e-20)
(0.914066 -0.00186367 0)
(-0.0980558 0.0176502 6.4567e-20)
(1.07784 -0.0625671 3.8084e-21)
(1.16221 -0.115463 1.25076e-19)
(1.28688 0.0777614 -6.76218e-20)
(0.0146437 0.0430551 -8.41346e-20)
(1.00002 -0.00042693 -6.54728e-21)
(0.992157 0.000905123 5.05429e-21)
(0.996596 0.000194658 0)
(-0.212264 0.0154255 1.17447e-19)
(1.00003 -0.000426835 5.55089e-21)
(1.03096 -0.0103877 0)
(0.994261 -0.00724425 8.32978e-22)
(1.07119 -0.0207421 1.0422e-21)
(1.00574 -0.000666885 2.71299e-22)
(1.09836 -0.0321232 -2.18126e-20)
(1.00002 -0.000840776 5.45361e-21)
(0.910121 -0.1245 1.67223e-20)
(-0.0569825 0.0368286 -2.51505e-20)
(1.00239 -0.00768039 -1.62287e-21)
(1.13511 0.0454312 -5.53512e-20)
(1.03069 -0.0109213 -4.83514e-21)
(1.00001 -0.000230729 0)
(0.900314 -0.0220868 -5.21141e-20)
(0.857749 -0.344789 0)
(0.993955 -0.00532068 7.58133e-21)
(1.06933 0.00630654 -1.27019e-20)
(1.00296 -0.00119517 7.12318e-22)
(1.01974 -0.0365485 0)
(-0.221567 -0.00448261 3.1303e-19)
(1.05016 -0.0418568 1.22604e-20)
(1.04826 -0.00891495 2.43273e-21)
(0.219277 0.0327377 8.43615e-20)
(0.978609 -0.0110337 -1.20748e-20)
(0.583072 0.00628226 -1.62968e-19)
(-0.0534351 0.0402434 -9.73085e-20)
(0.895661 0.300141 0)
(0.433007 0.0806719 2.89073e-20)
(0.999988 -0.000959132 0)
(0.808982 -0.14398 -5.29055e-20)
(1.22236 0.0518848 0)
(0.994683 -0.00250986 4.20152e-21)
(0.999987 -0.000759851 1.35814e-20)
(0.792975 -0.147184 8.04272e-20)
(0.00616756 -0.0651878 -6.83335e-22)
(1.12995 -0.0441714 0)
(0.983823 -0.0708983 4.83119e-21)
(1.04897 -0.00927785 -4.40649e-20)
(1.26977 -0.116713 -1.78688e-20)
(0.999977 -0.000950291 -1.36107e-20)
(1.08464 0.0566393 -3.8838e-20)
(-0.105298 0.0237151 6.44332e-20)
(0.841442 -0.326671 0)
(-0.0802512 0.0849097 0)
(1.35646 -0.131172 1.64332e-19)
(1.35701 -0.14353 9.19466e-21)
(1.09561 -0.108013 3.96889e-22)
(0.0196733 0.0320651 0)
(0.996024 -0.0114697 -5.73642e-21)
(0.514885 0.0887904 3.08251e-20)
(1.13142 -0.0705642 0)
(1.04201 -0.0618657 3.43541e-20)
(0.999968 -0.000722571 0)
(-0.159735 0.0660632 2.88144e-20)
(1.09466 -0.0336172 6.27049e-20)
(0.0599253 0.398033 0)
(0.992714 0.000854605 -9.33478e-21)
(0.29369 0.0875932 0)
(0.930112 0.0691619 0)
(0.914142 0.274164 0)
(1.00449 -0.00689643 0)
(0.994673 -0.00213346 8.44539e-21)
(0.999985 -0.000384509 6.33351e-21)
(1.00013 -0.00118904 -4.05592e-21)
(-0.0697307 0.103011 -4.93458e-20)
(0.091962 -0.149635 5.75664e-20)
(-0.301328 -0.0177595 1.00422e-19)
(0.979563 -0.0115806 0)
(0.999225 -0.0030216 0)
(1.04421 -0.00907702 0)
(0.996954 -0.000755505 0)
(-0.070822 0.0244956 0)
(0.995996 0.000948021 0)
(0.184243 0.084389 8.62168e-20)
(1.09179 0.0602136 -5.5112e-20)
(0.814849 0.098602 -1.45623e-19)
(1.10272 -0.00935889 0)
(1.04932 -0.0110834 -1.24801e-20)
(0.996183 0.00100184 -3.96613e-21)
(1.14751 -0.060677 0)
(-0.282487 -0.00804367 -2.95876e-19)
(1.0962 0.131684 1.12699e-19)
(1.08969 0.136603 -1.01443e-19)
(1.05023 -0.02127 2.28211e-20)
(1.00659 -0.0152047 0)
(0.964006 -0.0188972 0)
(1.04482 -0.0382975 0)
(1.06839 -0.0262917 0)
(1.21872 -0.208677 -6.7913e-20)
(1.21863 0.0629931 -7.92528e-20)
(1.04456 -0.00898797 -7.06313e-21)
(1.00001 -0.000715039 0)
(1.14739 -0.0338948 3.48991e-20)
(0.0261907 -0.0452787 0)
(1.07126 -0.0253797 0)
(0.984669 -0.020031 0)
(1.08182 0.0386912 -6.20764e-20)
(-0.194236 0.0190277 0)
(1.18483 -0.445751 -5.1567e-20)
(0.996201 0.00162455 -4.84531e-22)
(0.475951 0.0889206 1.77879e-19)
(1.00631 -0.0155623 7.28563e-22)
(0.996035 0.00150344 2.24788e-21)
(0.999309 -0.00400464 -6.71339e-21)
(0.25754 -0.105119 -3.07858e-19)
(1.03963 -0.0596611 -1.87126e-20)
(1.00008 -0.00386779 0)
(0.985166 -0.00220991 1.09109e-21)
(1.3608 -0.181303 -4.29548e-20)
(1.14227 -0.0449437 5.9331e-21)
(0.993987 -0.00590048 4.44398e-22)
(1.2686 0.0075228 5.56728e-20)
(0.984479 -0.0111043 0)
(1.08601 0.0483251 7.96894e-20)
(1.05155 -0.0223662 2.52731e-20)
(1.02297 -0.0115907 -5.69813e-21)
(0.603896 -0.455374 -7.69432e-20)
(1.03558 -0.0184124 0)
(1.32844 0.0403152 1.61501e-19)
(-0.0100759 0.368556 1.08048e-19)
(1.03739 -0.0213575 -2.986e-20)
(1.00455 -0.00632164 1.0827e-21)
(1.00005 -0.00195558 -4.83984e-21)
(0.983666 -0.0195307 0)
(-0.222738 -0.0309244 -2.58121e-19)
(0.501838 -0.261137 -3.73284e-19)
(-0.152907 0.099508 -8.19806e-22)
(1.0023 -0.00891466 -5.97063e-23)
(1.2116 0.0113742 5.55636e-20)
(1.05238 -0.361952 2.75653e-20)
(0.573293 -0.559282 -2.9969e-20)
(0.994215 -0.00331998 7.23263e-21)
(1.05075 -0.0374563 -3.6451e-20)
(0.392256 0.104979 8.31417e-20)
(-0.225896 0.0116313 -1.30048e-19)
(1.09111 0.0670367 4.75796e-20)
(0.996277 0.000260639 -7.26229e-21)
(0.997577 -0.000650537 0)
(1.00472 -0.00674134 0)
(0.959293 0.101636 0)
(-0.097726 0.0335861 7.72852e-20)
(0.977526 -0.454085 0)
(0.1023 0.399785 -3.73123e-20)
(1.01776 -0.0349321 3.51272e-21)
(-0.1079 0.269922 5.64079e-20)
(0.402558 -0.182671 -7.93554e-20)
(0.913787 -0.0251721 -3.40318e-20)
(1.03307 -0.00911414 1.26124e-20)
(0.9634 -0.0528791 -2.91677e-20)
(0.176948 0.0605025 8.08443e-20)
(1.01594 -0.00602496 -2.3867e-21)
(0.994282 -0.00819849 4.64016e-21)
(0.999808 -0.00202106 0)
(0.976173 -0.0117462 0)
(1.02546 -0.0104682 9.97035e-21)
(1.07238 -0.0156748 0)
(1.05558 -0.0160521 -1.39075e-20)
(-0.0547692 -0.0392514 1.51728e-19)
(0.98182 -0.00157344 0)
(1.06804 -0.058745 0)
(1.03826 -0.0204828 -2.17295e-20)
(0.970226 -0.0304633 7.37979e-21)
(0.836937 -0.584238 -2.65022e-22)
(1.1417 -0.0359269 4.22252e-20)
(0.0309114 -0.0380025 6.66915e-20)
(1.01407 -0.00569084 5.74006e-21)
(0.161699 0.0151292 0)
(0.979525 -0.0713241 -8.22808e-21)
(1.02119 0.00971662 0)
(1.01906 -0.0245787 1.12985e-20)
(1.22123 -0.195104 1.01051e-19)
(0.999305 -0.00293625 -7.98107e-21)
(0.743753 -0.0669164 8.80878e-20)
(1.13808 -0.0696713 -5.29038e-20)
(1.02528 -0.0109091 -3.18298e-21)
(0.354057 0.414738 0)
(-0.165179 0.155435 2.99986e-19)
(1.08854 -0.108178 2.8793e-20)
(0.995243 -0.0135973 0)
(1.11463 -0.000112292 -1.54122e-20)
(-0.176025 0.226162 0)
(0.76053 -0.094494 0)
(0.758944 -0.105363 0)
(-0.0832406 -0.00229384 -2.65029e-21)
(1.09581 0.106969 -1.29851e-19)
(1.02582 0.00935247 -1.39559e-20)
(1.07088 0.00880711 3.10162e-20)
(0.40771 -0.157544 0)
(1.02883 -0.00661858 0)
(-0.139396 0.18074 -1.49156e-21)
(-0.277585 -0.0200953 0)
(1.01562 -0.00583656 0)
(0.999849 -0.00158559 -7.44017e-21)
(1.29937 0.0778138 7.43024e-21)
(0.988066 -0.013902 -4.92184e-21)
(1.0001 -0.00111168 2.58032e-21)
(1.13309 0.0628421 0)
(1.14633 0.0603928 -1.18002e-19)
(1.01817 -0.0365474 -3.34672e-21)
(1.05237 -0.0364166 4.46069e-20)
(1.07169 -0.0588515 1.77103e-20)
(0.959663 -0.174063 -3.12003e-21)
(1.05315 -0.0302409 0)
(0.99419 -0.00285508 -1.15179e-20)
(1.07752 -0.154484 2.55768e-20)
(-0.0286229 -0.070906 1.37262e-19)
(1.02448 -0.0108747 5.11983e-21)
(-0.168893 0.119125 0)
(1.00005 -0.00100634 -6.65463e-21)
(1.00009 -0.00282978 -2.00171e-21)
(1.01248 -0.00109758 -2.39685e-21)
(-0.0595474 0.0253423 -2.55541e-20)
(0.993524 0.0022289 -7.04339e-23)
(1.39181 -0.173777 1.53184e-21)
(0.180254 0.0442098 -8.87277e-20)
(1.00078 -0.00299527 0)
(0.99943 -0.00295891 0)
(1.37117 -0.0546175 1.51537e-19)
(1.01234 -0.000692543 4.08684e-21)
(0.999956 -0.00145681 6.58924e-21)
(1.01311 -0.000649447 -2.35258e-21)
(0.138386 0.0302588 1.11931e-19)
(0.604953 -0.417677 1.56885e-20)
(0.93679 -0.0569258 2.10294e-20)
(0.938293 -0.532388 -1.95968e-20)
(1.13842 0.0346732 4.21258e-20)
(0.00553181 0.380434 -6.65611e-20)
(-0.0666459 0.153446 0)
(1.03814 -0.0225897 1.48432e-20)
(-0.0572779 -0.197134 -1.33218e-19)
(1.00003 -0.000936732 -4.45612e-21)
(-0.181014 0.226742 7.87509e-21)
(0.41077 -1.24978 0)
(-0.149531 0.051085 1.03005e-19)
(0.208375 0.0816314 1.05367e-19)
(1.0998 0.102104 1.00658e-19)
(1.05041 -0.0196273 0)
(1.1242 -0.0473678 0)
(1.0544 -0.0168921 2.82692e-20)
(1.03401 -0.00852122 -9.33048e-21)
(1.04021 -0.0169139 1.61402e-20)
(0.86516 -0.550534 0)
(0.920743 -0.0651918 1.66086e-20)
(0.999487 -0.00284924 -4.80119e-21)
(1 -0.000137332 -3.44963e-22)
(1.01442 -0.00590005 -2.4385e-21)
(1.01831 -0.000254353 0)
(1.02417 -0.0113065 -5.33883e-21)
(-0.0848469 0.144092 4.11529e-20)
(1.00457 -0.00799959 5.16262e-22)
(1.01721 -0.0233446 -5.19528e-22)
(1.0182 -0.000329768 0)
(1.00234 -0.00807564 -1.2059e-22)
(-0.0122409 -0.114438 1.00582e-19)
(1.20115 -0.431193 9.11123e-23)
(0.681887 0.0522305 8.24078e-20)
(0.947206 -0.0168313 7.71085e-21)
(1.08714 0.0367331 -4.03529e-20)
(1.01751 -0.000223147 0)
(0.965138 0.224342 0)
(0.116357 -0.0613097 2.40738e-19)
(0.993007 0.00142074 -1.63763e-22)
(0.24743 0.0530968 0)
(1.07161 0.000145698 0)
(0.991831 0.000457547 -1.65587e-20)
(0.037576 -0.0519466 0)
(0.976878 0.242499 0)
(0.996862 -0.003163 6.37638e-21)
(1.0791 -0.162163 2.64077e-20)
(0.337288 0.95192 8.36315e-20)
(0.975325 -0.0278173 9.2191e-21)
(0.830864 0.0104246 2.73658e-20)
(1.01823 -0.0230303 -6.14424e-21)
(0.970278 -0.0260647 -1.50579e-20)
(-0.176259 0.205919 3.39449e-20)
(0.909858 -0.179509 1.54495e-20)
(0.997385 -0.00750464 0)
(0.995855 -0.000109804 -8.35496e-21)
(0.94976 -0.0159708 -2.07174e-20)
(1.11999 -0.359343 5.41482e-20)
(0.0935823 -0.238554 4.33722e-21)
(0.992171 -0.00479186 2.01761e-20)
(1.00463 -0.00730937 -1.01442e-22)
(1.02731 -0.0163975 -6.94012e-21)
(-0.231397 -0.0288782 3.49162e-19)
(-0.0526813 -0.114669 -2.33227e-21)
(0.0133495 -0.0469522 1.25216e-19)
(1.0279 -0.00708639 6.39614e-21)
(0.91228 -0.191956 4.75457e-21)
(0.825472 0.0192957 0)
(0.89177 -0.764239 -4.39003e-20)
(1.13592 0.0170999 2.10956e-21)
(1.03009 -0.00514239 6.77839e-21)
(1.03078 -0.00705966 3.97999e-21)
(1.02668 -0.0167257 2.11847e-21)
(1.11925 -0.043561 -4.43132e-21)
(0.990639 -0.0365673 1.19911e-20)
(0.13608 -0.00830098 3.49389e-20)
(0.998373 -0.00240405 0)
(1.00852 -0.01518 -1.28776e-22)
(0.0350633 0.28277 -9.67716e-20)
(-0.0968909 0.148908 0)
(0.117705 0.00693387 2.06522e-22)
(1.018 -0.000245088 0)
(-0.151112 0.0584898 -1.30129e-19)
(0.986164 -0.0807516 7.46395e-21)
(0.246358 -0.711605 -5.15854e-20)
(0.112522 0.00927873 3.23554e-19)
(-0.0748009 -0.0115607 2.43666e-20)
(0.995442 -0.0682959 -2.86367e-21)
(1.08064 -0.0651612 3.54765e-20)
(1.22413 0.0595605 -7.57439e-20)
(-0.0923356 0.094603 0)
(-0.0692961 0.0874341 5.45649e-20)
(0.899525 0.0147315 0)
(1.00004 -0.000675246 2.94352e-21)
(0.932055 -0.0568505 -2.39428e-20)
(1.03065 -0.00923508 0)
(1.00518 -0.00808234 -6.43446e-22)
(0.99007 -0.0347435 -2.48069e-21)
(1.0003 -0.0041065 1.40082e-21)
(1 -5.43372e-05 0)
(0.236002 -0.0160144 -1.0685e-19)
(1.00007 -0.00221064 0)
(1.15061 -0.075275 -1.58554e-21)
(1.07739 -0.054656 3.74373e-20)
(1.21252 0.115856 6.50123e-20)
(1.03025 -0.00479467 -7.5641e-21)
(0.985852 -0.0738263 3.64162e-21)
(-0.0217753 -0.0286278 -5.8002e-21)
(0.359038 -0.0568813 0)
(-0.206082 0.116058 0)
(1.13185 0.0135355 1.95019e-21)
(1.00822 -0.0143947 2.26965e-22)
(0.997749 -0.0703635 -1.72667e-22)
(0.992832 -0.00560907 1.97362e-21)
(1.26291 -0.308257 -1.54713e-19)
(1.01517 -0.00185973 1.52534e-21)
(0.111568 0.00887411 1.08551e-20)
(0.999201 -0.412482 1.66295e-20)
(1.13015 -0.225822 -9.81309e-20)
(-0.0654 -0.0367231 -1.52378e-19)
(-0.161527 0.219888 1.23937e-19)
(1.00063 -0.00253116 5.85559e-21)
(0.996396 -0.013616 3.60671e-21)
(1.21936 0.069278 0)
(1.27177 -0.291566 2.15969e-19)
(0.982153 -0.000639831 9.98021e-21)
(0.00193207 0.00769802 1.18346e-19)
(1.00065 -0.00266938 -3.91337e-21)
(0.999754 -0.00248618 0)
(0.554624 -0.915362 1.17546e-20)
(1.01412 -0.00543607 -6.29916e-21)
(1.1404 0.0410235 0)
(1.02861 -0.00711974 0)
(-0.0359318 0.34312 -3.8499e-20)
(0.998593 -0.0024935 0)
(1.03598 -0.0176993 8.97548e-21)
(0.0443831 0.233669 -4.50403e-20)
(0.607473 0.00742955 1.62463e-19)
(1.01805 0.0312917 2.04217e-20)
(0.913659 -0.02949 1.78745e-20)
(1.00096 -0.0032443 -9.60993e-22)
(1.00118 -0.019904 0)
(0.721389 0.0953404 8.74673e-20)
(1.12907 -0.0783602 -4.22683e-20)
(1.02468 -0.00761202 0)
(0.999664 -0.00181649 -8.51463e-21)
(0.900521 -0.123502 0)
(0.828953 0.0380962 -7.91306e-20)
(1.01348 0.0267712 0)
(-0.207051 0.0151458 -4.34012e-21)
(0.999745 -0.00207721 0)
(0.996886 -0.00832058 0)
(0.682271 -0.497573 3.88421e-20)
(1.00103 -0.00318964 9.27657e-22)
(-0.0350036 -0.0604837 -1.37831e-19)
(0.621687 -0.552283 5.25661e-20)
(0.997323 -0.000568349 -7.12225e-21)
(0.997139 -0.00365258 -5.78674e-21)
(1.03933 -0.0173604 -6.44137e-21)
(1.00076 -0.00284817 0)
(1.02714 -0.015313 8.26341e-21)
(-0.165358 0.0652705 -5.06691e-20)
(0.742503 -0.0820682 -8.02378e-20)
(1.40737 -0.0521069 -4.50618e-20)
(0.881542 0.027168 3.31414e-20)
(1.04459 -0.0112036 1.27368e-20)
(1.10438 -0.0132146 8.26616e-20)
(0.918061 -0.000896931 0)
(-0.0808955 0.0348697 2.51508e-20)
(0.904388 -0.0258519 3.16604e-20)
(0.999991 -0.00072931 6.16777e-21)
(1.05158 -0.040349 2.84797e-20)
(1.20419 -0.397628 -5.85568e-20)
(0.980945 -0.0140875 0)
(0.983421 -0.0112331 5.00972e-21)
(0.977155 -0.0107661 5.69359e-21)
(1.01488 -0.00179224 -3.09258e-21)
(0.99906 -0.00611135 1.85119e-21)
(1.01504 -0.025196 3.82838e-21)
(0.996742 -0.000457771 3.58065e-24)
(1.00049 -0.00223627 5.61298e-23)
(0.973036 -0.0509821 -6.31894e-21)
(1.05451 -0.0189091 4.64998e-20)
(1.12894 0.0668252 -2.58979e-21)
(1.01645 -0.000432889 0)
(0.213025 0.0843413 0)
(0.924487 -0.0514031 0)
(1.01264 -0.439895 1.0551e-20)
(-0.0716312 0.169889 0)
(1.03389 -0.00904389 -9.91205e-21)
(0.10674 0.293265 -2.42648e-20)
(1.13606 -0.203038 0)
(1.03285 -0.00967848 -1.29147e-20)
(1.01503 -0.00249881 1.19623e-22)
(0.985401 -0.0224001 1.52196e-20)
(0.321109 0.130431 -7.47111e-20)
(1.14316 0.0302595 1.48527e-20)
(1.01524 -0.00234493 -8.72952e-22)
(0.998791 -0.00187973 6.71805e-22)
(0.999824 -0.00215054 9.63573e-22)
(0.700071 0.109056 -5.25254e-20)
(1.04515 -0.389516 5.98336e-20)
(1.13077 0.0608222 0)
(1.00275 -0.00116432 -7.14953e-22)
(0.985303 -0.00138913 -1.14713e-20)
(0.862144 -0.0480044 1.89296e-20)
(-0.238052 0.00964379 0)
(-0.149983 0.0491066 0)
(0.937671 -0.0298311 4.31415e-20)
(1.04665 -0.0186882 2.03271e-20)
(-0.155608 0.130729 1.25927e-19)
(1.34675 0.046751 -4.1997e-20)
(1.1628 0.0950548 1.01335e-19)
(0.977946 -0.0327111 1.07425e-20)
(1.00754 -0.0152487 2.80928e-22)
(-0.0592399 -0.0339474 4.44268e-22)
(0.994545 -0.0108511 0)
(1.07636 -0.354405 0)
(1.22946 0.110076 4.93248e-20)
(1.02436 -0.00713008 4.05993e-21)
(0.637784 -0.403596 -4.53307e-20)
(1.06334 -0.0547879 2.76969e-20)
(-0.135081 0.0651575 1.31331e-21)
(1.00145 -0.0192545 -1.73878e-21)
(-0.0083254 -0.0677976 0)
(1.268 -0.0436354 -2.46794e-20)
(1.04915 -0.00700432 -2.1414e-20)
(1.35813 -0.0442322 -1.44035e-19)
(0.995563 -0.011062 1.42133e-20)
(0.921229 -0.712697 0)
(0.998372 -0.00202085 -2.51508e-21)
(0.99748 -0.0135659 2.69866e-21)
(1.00005 -0.00182538 1.21781e-22)
(0.99467 -0.00654273 6.17438e-21)
(0.31014 0.0660669 -3.16198e-20)
(0.9959 -0.012259 -6.14837e-21)
(1.02963 -0.0113945 8.02801e-21)
(0.950311 -0.0228906 2.92284e-20)
(1.02763 -0.00754748 -6.11425e-21)
(1.00722 -0.0156186 -2.87782e-22)
(1.06758 -0.1781 0)
(0.985817 -0.0556726 -1.70345e-20)
(1.07269 0.00290229 -1.58874e-20)
(1.00171 -0.00343856 0)
(1.00159 -0.0033592 1.77469e-21)
(-0.0267822 -0.0337563 -8.54536e-20)
(0.644658 0.0149359 6.67829e-20)
(0.940299 -0.0290586 0)
(-0.145904 0.108665 -1.0719e-19)
(1.05307 -0.0197803 -3.99872e-20)
(0.985543 -0.0390341 1.28242e-20)
(0.993774 0.00259456 1.26357e-20)
(1.02776 -0.015081 4.58513e-21)
(0.160156 -0.0540559 3.56242e-19)
(1.02984 -0.01084 8.31153e-21)
(1.00149 -0.000521545 2.06738e-21)
(-0.291624 0.000243414 -1.58363e-19)
(1.30421 0.0726313 8.56977e-20)
(0.971794 -0.174982 9.85626e-21)
(1.00207 -0.00811204 4.74513e-21)
(0.999992 -0.000402216 -5.58474e-21)
(1.03185 -0.0280209 -9.69115e-21)
(1 -0.00148591 9.09433e-23)
(-0.196107 0.119877 1.26634e-19)
(0.973442 -0.0280051 -6.40702e-21)
(0.263646 0.397602 -2.98219e-20)
(1.04893 -0.0129768 1.89038e-20)
(0.298088 0.401782 0)
(0.99998 -0.000944139 -7.29872e-21)
(-0.308109 0.00109277 -2.05415e-19)
(1.00839 -0.000347626 1.91956e-22)
(1.14137 -0.370626 -2.21027e-21)
(0.993594 -0.00988014 -9.54732e-21)
(1.04 0.0846365 2.35587e-21)
(-0.020039 -0.0801305 8.31378e-20)
(0.998562 -0.00204377 -2.35444e-21)
(1.16825 0.0931735 1.52253e-19)
(0.990313 -0.0125544 -4.85038e-21)
(1.00019 -0.000144844 2.56809e-21)
(1.02292 -0.0104326 -4.71863e-21)
(0.612298 0.121728 -4.64476e-20)
(-0.0559721 -0.0366895 -1.649e-19)
(0.984349 -0.0216711 -8.68873e-21)
(1.06667 -0.0552105 0)
(1.03034 -0.00974995 0)
(-0.17841 0.142476 -3.25959e-19)
(1.01695 -0.000539778 0)
(1.08353 -0.150972 1.90484e-20)
(-0.00151899 -0.0561747 0)
(0.911269 0.00134082 0)
(1.00193 -0.000885419 -2.05741e-21)
(0.82117 -0.156949 -7.68805e-20)
(1.00013 -0.000692434 -1.16432e-22)
(1.03302 -0.0278741 0)
(1.02629 -0.0181809 4.31081e-21)
(1.12143 0.0658468 -5.3164e-20)
(1.00304 -0.00327665 0)
(-0.12616 0.159805 -6.38126e-20)
(1.00143 -0.00336639 -3.02846e-21)
(0.993399 -0.0385601 0)
(1.0643 0.0170625 -4.85831e-20)
(0.787932 -0.265098 4.2243e-20)
(1.19097 0.101296 -6.66823e-20)
(1.01659 -0.0223533 -1.90565e-21)
(-0.289551 -0.00143142 -1.58382e-19)
(0.996886 -0.0140885 -2.80714e-21)
(1.06661 -0.408739 -2.63113e-20)
(0.986867 -0.0066782 -1.7656e-21)
(1.0377 -0.0193968 9.03004e-21)
(0.994895 -0.0113604 -4.48632e-21)
(1.00137 -0.00339387 -3.6274e-21)
(0.999976 -0.000781073 1.21768e-20)
(1.06339 -0.430092 -1.6252e-20)
(1.02922 0.0128179 1.55355e-20)
(1.11958 0.0931273 -7.57709e-20)
(1.20398 -0.0698237 5.69464e-20)
(0.84037 -0.0703584 -2.31323e-20)
(0.922551 -0.138702 8.61212e-21)
(0.619785 -0.878785 -2.0714e-20)
(1.04695 -0.0388013 0)
(-0.203045 0.113348 -2.24117e-19)
(-0.0531124 -0.0325781 2.23891e-21)
(1.14237 -0.395356 -7.82094e-20)
(1.38976 -0.139629 8.00955e-20)
(1.21537 0.106554 0)
(1.09668 -0.371295 -4.65058e-20)
(1.03357 -0.0272633 -1.10301e-20)
(0.062764 -0.21076 4.27833e-20)
(1.06097 0.0176197 0)
(1.03636 -0.0193652 -3.85469e-21)
(1.16427 -0.405617 1.05031e-19)
(1.00008 -0.000623754 -2.33514e-22)
(0.912397 -0.560459 0)
(0.976687 -0.161055 -8.29815e-22)
(1.18804 0.062585 6.04294e-20)
(0.886618 0.0184251 -9.16657e-21)
(-0.105175 0.144638 0)
(-0.0872002 0.0260463 8.25885e-20)
(1.06493 0.0127628 5.48598e-20)
(1.18134 0.0609082 1.02611e-19)
(0.99983 -0.00173402 6.5755e-21)
(1.10092 -0.527287 0)
(0.946036 0.00791817 2.12426e-20)
(0.993884 -0.00937348 4.97483e-21)
(0.988269 -0.0342622 0)
(1.0437 -0.00927515 8.47838e-21)
(1.12197 -0.0786871 0)
(-0.0884425 -0.000223274 -2.20718e-20)
(0.926862 -0.490421 0)
(-0.119426 0.0401783 2.58053e-20)
(1.04342 -0.0401647 0)
(0.962817 -0.0554412 1.27626e-20)
(-0.142182 0.071129 -5.57534e-20)
(0.415014 0.0791355 2.59221e-20)
(1.04526 -0.0203688 1.80396e-20)
(1.13095 0.00259952 9.53649e-20)
(0.968977 -0.0317153 1.88963e-20)
(0.26855 -0.827666 4.40593e-20)
(0.0819678 0.248802 0)
(0.99725 -0.00078567 7.18597e-21)
(0.684797 0.0653114 1.51592e-19)
(0.704583 -0.455355 6.11073e-20)
(-0.0888821 0.00667203 4.3327e-20)
(1.00305 -0.00106677 -8.30117e-22)
(0.929993 -0.0630037 1.46666e-21)
(0.727958 0.0966385 -1.23927e-19)
(1.06922 -0.0153717 0)
(1.07212 0.100768 -3.08833e-20)
(1.04857 0.0870159 -4.32425e-20)
(1.21331 0.120451 -6.21061e-20)
(0.956667 -0.0805202 -1.45295e-20)
(1.04778 -0.0412907 0)
(1.01953 -0.0306096 6.67355e-21)
(0.985855 -0.00265718 4.49637e-22)
(1.08284 0.162339 1.34338e-20)
(1.00001 -0.000429595 0)
(1.08394 0.169927 -1.51185e-20)
(1.2129 -0.0400394 -1.19349e-21)
(1.10221 -0.247003 3.04173e-20)
(1.00004 -0.000304482 2.94751e-21)
(1.00018 -0.00124752 4.62363e-21)
(1.04474 -0.0102812 0)
(1.03838 -0.00870908 1.05083e-21)
(1.00582 -0.00101463 0)
(0.987549 -0.013 -6.0267e-21)
(1.1956 -0.0729915 -6.7717e-20)
(0.362255 0.142989 7.26362e-20)
(-0.166626 0.113235 1.29479e-20)
(1.00002 -0.000415075 -4.23626e-21)
(1.24006 -0.316983 8.00656e-20)
(1.00178 -0.00695022 0)
(-0.0657863 -0.0577118 -5.5591e-20)
(1.08657 0.0199449 -2.49238e-21)
(0.790951 -0.110739 -1.99366e-21)
(0.832428 0.0287264 5.14254e-20)
(1.2623 -0.0353446 8.87024e-20)
(1.00913 -0.00576898 0)
(0.999246 -0.00414014 -8.63467e-21)
(0.836044 -0.152644 5.07089e-20)
(0.993858 -0.0107801 0)
(1.03062 -0.0275281 -1.41334e-20)
(1.13978 -0.0215451 0)
(-0.168047 0.0937528 5.73941e-20)
(1.02596 -0.0103744 -1.04166e-20)
(1.09332 0.14913 0)
(-0.114553 0.0385615 -5.18219e-20)
(1.05458 -0.0317912 8.74507e-21)
(-0.189939 0.209089 0)
(-0.0909984 0.0365251 5.83572e-20)
(1.0155 -0.0262467 -3.63334e-21)
(1.13968 -0.0609721 0)
(1.04974 -0.00477124 0)
(1.01646 -0.0347702 0)
(1.0222 -0.010359 0)
(0.62991 -0.155378 0)
(-0.132252 0.0468967 0)
(-0.0449665 0.0513625 4.66565e-20)
(0.979941 -0.0152587 1.00782e-20)
(0.995591 0.000219846 9.74515e-21)
(1.01953 -0.0133569 -4.31247e-21)
(1.04409 -0.00908851 1.23386e-20)
(0.988728 -0.0552562 2.95062e-21)
(0.977924 -0.0677382 -9.67733e-21)
(0.494142 0.391591 9.69217e-20)
(1.08253 0.0221007 -3.33624e-20)
(1.00053 -0.00237385 0)
(1.33888 0.0383179 4.093e-20)
(1.07343 -0.0181648 -5.63702e-20)
(0.850721 -0.071777 0)
(1.03064 -0.0262971 1.21274e-20)
(-0.363133 -0.0107167 -2.13755e-19)
(1.04913 -0.0188591 0)
(1.00386 -0.00252977 9.13607e-23)
(1.11387 -0.243229 -4.0829e-20)
(0.14869 0.0692239 3.38373e-20)
(1.02543 -0.00779286 -7.89696e-21)
(0.99683 -0.000187639 0)
(0.993416 -0.00509282 -9.69557e-21)
(1.04832 -0.00780873 0)
(1.0092 -0.00546509 0)
(1.06844 0.0122563 -4.75145e-20)
(1.23587 0.048773 -5.73064e-21)
(0.995842 -0.0418928 -3.60859e-21)
(1.11826 0.0694517 0)
(1.04401 -0.0206994 1.01433e-21)
(1.02937 -0.0255221 -5.67393e-21)
(1.19821 0.098371 -3.3898e-22)
(-0.0167961 -0.0708388 -3.48204e-20)
(1.14895 0.125854 0)
(0.999447 -0.00406323 1.16366e-20)
(1.02649 -0.00787322 -8.95958e-21)
(1.11457 0.20555 8.58252e-20)
(0.909642 -0.0228168 2.92888e-20)
(1.11873 0.194864 5.03794e-20)
(1.0254 -0.00665339 2.32077e-21)
(0.989477 -0.0126346 0)
(-0.287038 -0.018754 8.66281e-20)
(0.192096 0.408048 3.34636e-20)
(1.07359 -0.0636081 -1.37711e-20)
(1.13656 0.0519151 6.06423e-20)
(0.690974 0.00517803 1.0218e-19)
(0.995777 -0.0141341 -3.13775e-21)
(1.00003 -0.000261413 3.79439e-22)
(1.01331 -0.0341837 -2.62681e-21)
(0.00338057 -0.000720632 1.86956e-19)
(1.0016 -0.000630551 0)
(0.999996 -6.57998e-05 0)
(-0.102267 0.0896461 1.15467e-19)
(0.891763 0.0188319 -2.26194e-22)
(1.28047 -0.108157 -1.56465e-19)
(0.840483 0.011413 9.80032e-20)
(1.0022 -0.00730398 0)
(-0.00824715 -0.076264 1.82823e-20)
(1.00003 -0.000809423 3.66878e-21)
(0.988482 -0.00845201 0)
(1.01217 -0.0336854 -4.44748e-21)
(0.93235 -0.115845 3.63879e-20)
(-0.03501 0.0205579 0)
(1.00019 -0.00295 0)
(0.993013 0.00230601 1.12928e-20)
(0.993509 -0.0112451 -1.37895e-20)
(0.995289 -0.0126619 0)
(1.00195 -0.00728989 0)
(1.01933 -0.0315822 0)
(1.35577 -0.143479 -1.80239e-19)
(0.925871 -0.121181 -1.73513e-20)
(0.972719 -0.0479395 0)
(1.00034 -0.00366096 5.36137e-21)
(0.916997 -0.117183 -7.42085e-21)
(1.15053 -0.0556411 0)
(1.04775 -0.00589974 1.14297e-20)
(0.881918 0.0226469 -3.57598e-20)
(1.00001 -0.000119997 0)
(1.01955 -0.0127719 4.2579e-21)
(1.00723 -0.064184 0)
(-0.0417402 -0.0537672 1.29563e-19)
(-0.162514 0.137076 1.35648e-20)
(1.0438 -0.0109648 -1.38074e-20)
(-0.0722929 0.04871 -2.57047e-20)
(0.9998 -0.00164161 6.95954e-21)
(0.955885 -0.0754948 1.3101e-21)
(1.34131 -0.273095 9.11522e-20)
(0.156335 -0.202858 2.29006e-19)
(1.02036 -0.02229 0)
(1.00008 -0.00263272 -7.4938e-22)
(0.42302 0.175814 2.60813e-19)
(1.11258 0.00319425 1.98643e-20)
(1.00408 -0.00261442 -7.61646e-22)
(0.999962 -0.00127061 4.23304e-22)
(-0.0991522 0.14831 0)
(1.00003 -0.000189978 2.70876e-21)
(1.15634 -0.125841 0)
(0.996836 -0.00351414 -3.82688e-22)
(0.349789 -0.0197935 4.41232e-20)
(0.999972 -0.00132565 -1.38076e-20)
(1.0094 -0.000242415 0)
(0.998929 -0.00203656 5.52698e-21)
(1.05938 -0.0902876 -1.23074e-20)
(1.03792 -0.00828129 0)
(0.938559 -0.0514772 2.01535e-20)
(0.903459 0.0123695 0)
(0.533895 0.0734683 8.73721e-20)
(1.00444 -0.00819327 -8.33364e-22)
(0.999309 -0.00601795 -6.76781e-21)
(1.00008 -0.000415424 0)
(0.997868 -0.0140459 -7.79002e-22)
(1.0341 -0.0252018 1.73218e-21)
(1.03531 -0.0132407 0)
(1.07956 -0.058296 0)
(0.998621 -0.0018378 -7.15114e-22)
(1.09497 0.0249348 0)
(-0.196519 0.118988 9.68986e-20)
(1.11406 -0.0460196 0)
(1.14626 -0.0230031 0)
(0.999758 -0.00193071 9.03432e-21)
(1.0269 -0.0177601 5.16738e-21)
(-0.274147 -0.0208841 -1.10296e-19)
(0.815891 0.282732 7.30774e-20)
(1.02199 -0.00969203 0)
(-0.207661 0.187147 -4.67911e-20)
(-0.30778 -0.00830425 3.50309e-19)
(1.02664 -0.00822105 8.77485e-21)
(0.992743 0.00189803 2.79743e-22)
(1.00132 -0.0123971 0)
(1.16279 -0.19824 -4.64986e-20)
(1.09321 0.0290233 8.26168e-21)
(0.136046 -0.16152 1.15292e-19)
(1.00496 -0.00829924 -7.08704e-22)
(1.02521 -0.0782124 -2.95012e-21)
(1.00522 -0.00615237 0)
(0.969295 -0.0277012 1.8081e-21)
(1.00857 -0.000323964 0)
(1.08747 -0.272111 2.62089e-20)
(1.03438 -0.02424 2.73101e-22)
(1.26848 -0.128716 2.41346e-20)
(0.999665 -0.00380972 0)
(0.944159 -0.257741 -8.99103e-21)
(1.00383 -0.0073604 8.36698e-22)
(0.966698 -0.0517131 1.69177e-20)
(0.986882 -0.00877222 -1.40767e-20)
(1.03338 0.010338 -1.48012e-20)
(0.714766 0.110823 -6.06743e-21)
(-0.276408 0.00017009 1.41671e-19)
(0.37642 0.39757 0)
(-0.205446 0.191028 -9.43693e-22)
(1.11135 -0.00442314 0)
(0.989103 -0.0137691 1.08349e-20)
(0.623066 -0.825348 1.94992e-20)
(0.0743826 -0.174285 0)
(1.09887 0.0378661 0)
(1.03236 -0.0231475 -2.08967e-20)
(1.0002 -0.00406859 0)
(0.1648 0.186529 0)
(1.00156 -0.012996 0)
(-0.0399149 0.0304374 5.54223e-20)
(1.02952 -0.00657769 4.39675e-22)
(1.0605 -0.00287765 -2.04742e-20)
(1.03628 -0.0236114 1.94078e-20)
(0.999947 -0.000577956 0)
(1.02022 -0.0232996 0)
(1.25889 0.0892138 -1.2616e-19)
(0.0371744 0.00553757 -7.95239e-20)
(-0.0437514 0.0476034 -4.42972e-20)
(0.661099 0.0227427 0)
(-0.230793 -0.026004 -1.62748e-19)
(0.994538 -0.00603746 0)
(0.162022 0.11972 -5.79799e-22)
(0.843211 0.0653929 -1.75642e-20)
(1.00003 -0.000133847 0)
(0.992595 -0.0368782 -4.25103e-22)
(1.01048 -0.00767193 1.82694e-21)
(1.19387 0.118804 6.02976e-20)
(1.02367 -0.00705484 -4.83879e-21)
(0.0293848 0.059307 -4.32283e-20)
(0.854905 -0.0543355 -5.93337e-20)
(1.19849 0.00271814 2.4417e-20)
(1.00724 -0.0446884 3.62182e-22)
(1.30445 -0.318187 7.95964e-20)
(-0.173331 0.0185936 0)
(0.168339 -0.0144503 3.54513e-19)
(0.946698 -0.112679 1.46483e-20)
(1.08519 -0.0454401 0)
(1.00178 -0.000922546 2.39816e-21)
(0.656501 -0.202945 0)
(1.0252 -0.00577936 0)
(0.390104 0.266237 -1.54548e-19)
(1.22634 0.0160898 9.52301e-20)
(0.830271 -0.263055 -3.26332e-20)
(1.03639 0.0878331 0)
(0.252394 0.0438521 1.51864e-19)
(1.05114 -0.0307499 -3.7934e-20)
(1.0127 -0.0632168 -1.95189e-21)
(1.00314 -0.0035542 0)
(1.02432 0.0918793 -3.30579e-20)
(0.0345811 0.0474302 1.81805e-19)
(-0.18135 -0.0372588 1.14093e-19)
(1.00972 -0.00719586 -8.22032e-22)
(0.200134 0.553878 -1.06222e-19)
(1.047 -0.00672321 -1.05138e-20)
(1.1408 0.0652555 0)
(0.559454 0.0784955 -7.58361e-20)
(-0.174376 0.0938189 -7.46914e-20)
(-0.175843 0.0994431 9.11037e-20)
(1.03098 -0.0066006 0)
(0.921774 -0.055153 3.17075e-20)
(1.07286 -0.0105081 0)
(1.04862 -0.0122162 1.97895e-20)
(1.0452 -0.00976413 -1.6117e-20)
(-0.137535 0.133724 1.29916e-20)
(0.999859 -0.00221446 0)
(1.06886 0.0356126 0)
(1.01674 -0.000456913 0)
(1.03045 -0.00610663 6.8979e-21)
(1.14466 -0.183507 0)
(1.14402 0.0538626 1.21653e-19)
(1.18539 0.122604 -8.56489e-20)
(1.0371 -0.0339909 1.62431e-20)
(1.0442 -0.449511 0)
(1.36519 -0.216471 7.58889e-20)
(1.31727 -0.239284 1.51796e-19)
(0.895444 0.0127112 -3.45366e-20)
(1.00015 -0.00061599 -5.33109e-21)
(1.03605 -0.0350324 1.37615e-20)
(1.00018 -0.000628377 3.41158e-21)
(0.985212 -0.0102 0)
(1.31721 -0.258587 -8.09271e-20)
(1.10366 0.190574 -5.56053e-20)
(1.02216 -0.0381267 -8.2736e-21)
(0.986029 -0.00732588 1.84387e-21)
(1.07261 -0.00522094 -2.97608e-20)
(0.19701 -0.207334 -2.33592e-19)
(1.01867 -0.0852943 1.50181e-21)
(0.986817 0.000650782 2.37715e-21)
(0.380772 0.0696115 7.19773e-20)
(0.993444 -0.00649369 -4.43468e-22)
(0.999994 -0.000463575 0)
(1.02562 -0.00619922 0)
(1.08083 0.0447011 3.70775e-20)
(0.996202 -0.000113733 7.96293e-21)
(1.05174 -0.0118384 -2.38033e-20)
(-0.0433082 0.123427 -5.48963e-22)
(1.15237 -0.0693152 1.80116e-21)
(1.0053 -0.000193606 -1.10217e-21)
(0.129429 0.528783 1.10769e-19)
(0.569019 0.0283371 1.05993e-19)
(0.993585 -0.00718548 0)