/*--------------------------------*- C++ -*----------------------------------*\
| =========                 |                                                 |
| \\      /  F ield         | OpenFOAM: The Open Source CFD Toolbox           |
|  \\    /   O peration     | Version:  v2012                                 |
|   \\  /    A nd           | Website:  www.openfoam.com                      |
|    \\/     M anipulation  |                                                 |
\*---------------------------------------------------------------------------*/
FoamFile
{
    version     2.0;
    format      ascii;
    class       volScalarField;
    location    "700";
    object      k;
}
// * * * * * * * * * * * * * * * * * * * * * * * * * * * * * * * * * * * * * //

dimensions      [0 2 -2 0 0 0 0];


internalField   nonuniform List<scalar> 
9793
(
0.00186642
0.00573223
0.00156784
0.000140628
0.0395306
0.000151786
0.000147244
0.0001388
0.000144863
0.0347544
0.000173306
0.00265693
0.000141025
0.000137496
0.000163528
0.000136704
0.000141805
0.000143139
0.0322369
0.000137484
0.000254686
0.00015025
0.0035001
0.00013003
0.000153264
0.000141864
0.000137131
0.000139179
0.000168586
0.000144774
0.000178831
0.00201845
0.00936359
0.000155297
0.000173302
0.000300501
0.000154383
0.000150249
0.00013951
0.000143127
0.000178387
0.000163908
0.00014955
0.000149644
0.000149744
0.000143369
0.000171736
0.00289802
0.000277446
0.000140387
0.000173781
0.000177273
0.000152217
0.00014498
0.000277946
0.00967161
0.000143639
0.000182802
0.0263101
0.000139314
0.000150567
0.000151741
0.0089342
0.000147333
0.0338852
0.00224296
0.0125567
0.00935028
0.00155554
0.000173481
0.000298083
0.000145948
0.000141287
0.000296431
0.000179913
0.0283713
0.000143587
0.000133199
0.000142698
0.000139918
0.00231885
0.000143757
0.00679077
0.000215566
0.000171599
0.00196708
0.000140566
0.000143547
0.000149978
0.000145656
0.00544584
0.00414199
0.000137029
0.00334508
0.000150803
0.000275832
0.00602813
0.00664132
0.000136708
0.000135488
0.000135362
0.000145302
0.000136614
0.000136481
0.000132999
0.000171024
0.000149384
0.000149453
0.000151085
0.00259158
0.00014826
0.000127492
0.000143497
0.0092347
0.000177215
0.000143658
0.00968223
0.000179034
0.000144783
0.0028904
0.00324761
0.000167051
0.000142827
0.000152924
0.000146799
0.00026245
0.000163152
0.00209726
0.000143595
0.000141508
0.000153567
0.000143621
0.000141498
0.000147985
0.000144542
0.000143519
0.000149799
0.000147746
0.000143444
0.000133365
0.000142752
0.000152143
0.000142056
0.000135831
0.000138468
0.000140646
0.000505857
0.000135889
0.000136549
0.000403708
0.023155
0.000153309
0.0212541
0.0312854
0.000136336
0.000161902
0.00014172
0.000150774
0.000135565
0.00014166
0.000138793
0.000139193
0.000135231
0.0325409
0.000481812
0.000256162
0.00334846
0.000152598
0.000136529
0.000141928
0.00014243
0.0160196
0.00112363
0.0163021
0.000146547
0.0338105
0.000143589
0.00013007
0.000141591
0.000155161
0.0223885
0.000148156
0.000135644
0.000152166
0.0312541
0.000141195
0.000188603
0.000141543
0.000142634
0.000135335
0.000146586
0.000142897
0.00139337
0.000241634
0.00708236
0.000154819
0.0308765
0.000140785
0.026563
0.000134134
0.000144471
0.0186871
0.0104394
0.000141569
0.000143581
0.000132154
0.00028415
0.000135775
0.000165561
0.00014842
0.000158237
0.000720253
0.000405057
0.000145215
0.0332518
0.000140291
0.000143314
0.0250634
0.00013201
0.0109317
0.000202226
0.000143108
0.000146833
0.000142916
0.000941866
0.0277993
0.000151712
0.000136216
0.000211189
0.00016936
0.000130197
0.000130047
0.000148373
0.000135751
0.000166563
0.00778739
0.000143308
0.000141555
0.0042061
0.000143271
0.000164627
0.000137501
0.00014127
0.00713882
0.000141156
0.000136511
0.000138688
0.000150637
0.000136758
0.000152698
0.000145808
0.000151134
0.000175873
0.00016499
0.00014076
0.000152026
0.000142014
0.000151515
0.000153443
0.00013551
0.0139066
0.000141309
0.000175982
0.000152198
0.000153126
0.000130772
0.000130666
0.00015814
0.0154063
0.000148259
0.000135764
0.000133505
0.00015504
0.000143269
0.0038038
0.00390036
0.000141577
0.000221638
0.00014332
0.000164725
0.000149402
0.00013037
0.000154453
0.000141799
0.000163016
0.00014308
0.000145798
0.000152388
0.000141204
0.000143509
0.000143356
0.00880312
0.000149334
0.000155045
0.00015421
0.000147584
0.000147347
0.000152867
0.000142342
0.0190141
0.000136378
0.00730115
0.0117936
0.000155946
0.0001499
0.000135894
0.000155874
0.000151208
0.000148036
0.00717026
0.000146289
0.000135784
0.000151418
0.000146615
0.000144397
0.000144307
0.000797924
0.000141832
0.00015352
0.000148637
0.000140675
0.000330711
0.0329779
0.000274652
0.000131331
0.0218587
0.000147701
0.0214042
0.000185012
0.000134058
0.000149982
0.000183641
0.000143971
0.00016056
0.000177993
0.000138479
0.00014858
0.000144305
0.000144849
0.000139523
0.0161558
0.000141538
0.000140486
0.0155971
0.000143611
0.00013665
0.000131257
0.000148432
0.000138586
0.027186
0.000147064
0.000143116
0.000145337
0.000144879
0.0190203
0.000144774
0.000171085
0.000130094
0.000163058
0.000292228
0.000188367
0.000164406
0.000148222
0.000153017
0.0322209
0.000151973
0.0138099
0.000143086
0.000136272
0.0118358
0.000160297
0.0293093
0.000143139
0.000167931
0.00028443
0.000157631
0.000141072
0.0103568
0.000153297
0.000511071
0.000152019
0.000144586
0.0153799
0.0001426
0.000148095
0.000155654
0.00014584
0.000137385
0.000144815
0.000151041
0.018076
0.000146011
0.0322231
0.00819178
0.0329816
0.000169454
0.000205858
0.000142626
0.000144292
0.0316202
0.008749
0.000137737
0.000146609
0.00179198
0.0001334
0.00585056
0.000141758
0.000151053
0.000133257
0.000159577
0.000141489
0.00015388
0.000270949
0.000136015
0.00227842
0.000182692
0.00014735
0.000180937
0.000142132
0.000148537
0.000140902
0.00696691
0.000143127
0.000144585
0.000177932
0.000144455
0.00015331
0.000147664
0.000134792
0.000156012
0.000141724
0.000144657
0.000132811
0.000311107
0.000139485
0.000391442
0.00014224
0.0126158
0.000156391
0.000142883
0.00015386
0.000145997
0.0303445
0.000140552
0.00140687
0.000135907
0.000142631
0.000148015
0.00103501
0.00018318
0.000258843
0.00306785
0.000152459
0.000142382
0.000180117
0.000155798
0.00015827
0.00620453
0.00662785
0.000145522
0.000168986
0.000168487
0.000142854
0.000145261
0.000142709
0.000136553
0.000156563
0.0125332
0.000153973
0.0196579
0.000136724
0.000156968
0.000129994
0.000152692
0.000154448
0.000144029
0.000181425
0.000143045
0.000163394
0.000133191
0.000143737
0.000155465
0.00319377
0.000142086
0.00014238
0.0116838
0.00015684
0.000147085
0.011404
0.00913403
0.000152864
0.000156656
0.000148418
0.000155507
0.00014481
0.000151539
0.000148914
0.000141369
0.000142312
0.000140904
0.000438607
0.000179833
0.000141378
0.0329425
0.000160366
0.000135992
0.000149291
0.000143063
0.000180345
0.000149271
0.00997742
0.000134341
0.000141311
0.000172639
0.00014256
0.00016023
0.0117598
0.00015434
0.000135895
0.0319888
0.000156434
0.000137165
0.00014323
0.000170253
0.000140115
0.000137081
0.000142497
0.000140014
0.00472966
0.00016625
0.000159669
0.000150408
0.000142753
0.000141153
0.00014406
0.000146332
0.000142642
0.000235686
0.000195608
0.000133664
0.000160817
0.0319924
0.000142769
0.000312561
0.000172456
0.000144221
0.000174849
0.0191804
0.000143219
0.000213742
0.000130488
0.00857337
0.000152197
0.0131626
0.000141167
0.00014109
0.000141669
0.0054283
0.000154808
0.0161026
0.00303835
0.0215667
0.000160928
0.00976126
0.000158126
0.000163085
0.000157757
0.000157796
0.0113177
0.000144661
0.0176524
0.00013256
0.000626539
0.000152896
0.00014717
0.000140891
0.000289531
0.000132856
0.000142021
0.000148212
0.000149056
0.000154569
0.000141369
0.000142333
0.000142571
0.0001424
0.0304197
0.000140339
0.00729575
0.000588644
0.000140444
0.00015116
0.000157599
0.000146624
0.000142684
0.000146156
0.00015775
0.000152256
0.000148015
0.000149095
0.000136857
0.000144222
0.000147709
0.000151617
0.000146213
0.000148763
0.00928192
0.000142662
0.0144333
0.000152712
0.000148936
0.000142399
0.000138278
0.000152228
0.000155155
0.000141106
0.000139772
0.000129858
0.000141455
0.000139723
0.00014176
0.000151768
0.000132365
0.000147186
0.000157099
0.000144643
0.000151525
0.000148194
0.000158655
0.000155163
0.000140595
0.000142475
0.000137089
0.000133277
0.000145758
0.000133604
0.00014033
0.000142748
0.00013277
0.000161121
0.000143863
0.000154689
0.000142943
0.0169857
0.000140731
0.000133155
0.000172124
0.00013044
0.000146195
0.000311805
0.000153322
0.000151992
0.000153236
0.00018286
0.000138356
0.000169938
0.0289555
0.011589
0.001165
0.000145474
0.000142987
0.00479991
0.000142513
0.000132926
0.00022405
0.0167307
0.0300379
0.000142543
0.000171556
0.000143014
0.000142891
0.0120948
0.000141858
0.000406569
0.000146596
0.000181423
0.00014049
0.000150129
0.000147439
0.000272231
0.00985465
0.00014221
0.00014409
0.000154602
0.000140216
0.000154117
0.000170564
0.0185599
0.000140996
0.000254642
0.000142577
0.0108289
0.000208063
0.011656
0.00299509
0.00014026
0.000165356
0.00898758
0.000140733
0.000141649
0.000156562
0.000142514
0.000132729
0.0119378
0.000132716
0.00637635
0.000149715
0.00333914
0.000173532
0.000144213
0.000240065
0.0163039
0.000146516
0.0137294
0.000163696
0.000175974
0.000132823
0.000130376
0.0131362
0.000142812
0.00879747
0.000140277
0.00411509
0.000136946
0.00337928
0.0114579
0.000140241
0.0245649
0.00014373
0.000148438
0.000161966
0.00993237
0.00644929
0.000133644
0.000137076
0.000133295
0.0119547
0.00649274
0.000153634
0.000156828
0.00041988
0.00013305
0.000140398
0.000149643
0.000472216
0.000169837
0.00014348
0.000142542
0.00013903
0.00140568
0.0298692
0.000151319
0.000137113
0.000139954
0.0172494
0.000141741
0.0138785
0.000167951
0.0067653
0.00291927
0.00419388
0.000139568
0.000144286
0.000150269
0.000147729
0.000151966
0.00014211
0.000171875
0.00627313
0.000136615
0.0181552
0.00013894
0.00401615
0.000145476
0.0057013
0.000154539
0.000148004
0.000141086
0.000140211
0.000159357
0.00922615
0.0104205
0.000143276
0.000159808
0.000140303
0.000149146
0.000150445
0.0207492
0.000163444
0.000176199
0.000139456
0.000155079
0.000141769
0.000132595
0.000154771
0.000140166
0.0143678
0.000141544
0.000149119
0.000154117
0.00015872
0.000132641
0.000182747
0.000151553
0.000147571
0.0001397
0.000140472
0.00527804
0.000140834
0.000254313
0.000136734
0.000181585
0.000142353
0.000385055
0.000146282
0.00276372
0.000144924
0.000143104
0.000139622
0.00771113
0.00512122
0.00531837
0.000376229
0.0166943
0.000142722
0.000149968
0.00460335
0.000133048
0.0121304
0.0116518
0.000189771
0.000229192
0.000148926
0.00683371
0.000157815
0.0013688
0.00597327
0.000148729
0.000144906
0.00593618
0.0254837
0.000160746
0.000151723
0.000142
0.000157564
0.000160402
0.000145469
0.000133227
0.000147951
0.000147063
0.000162041
0.000151828
0.0112143
0.000139762
0.000133648
0.000798491
0.00117174
0.000161026
0.000148055
0.000137479
0.00013713
0.000132959
0.0109445
0.000132686
0.000148555
0.00725507
0.00774095
0.000140839
0.0128917
0.000296048
0.000231327
0.00136166
0.0236055
0.000151263
0.00394649
0.000145747
0.000139364
0.000142883
0.000152157
0.000140754
0.0288993
0.000142194
0.011851
0.000138627
0.000168619
0.000146586
0.000160984
0.000146253
0.000144392
0.000167943
0.000138764
0.000133229
0.000200732
0.000146544
0.000156806
0.000141033
0.000133956
0.00419531
0.000509545
0.000155267
0.000129944
0.000129907
0.000136804
0.000143399
0.0307256
0.000197502
0.00216045
0.000159672
0.0135116
0.000146142
0.000161716
0.000158563
0.000150701
0.000240457
0.000141162
0.00014062
0.000246591
0.000161875
0.0247311
0.000140865
0.0111559
0.00724513
0.000161356
0.000164009
0.00015039
0.0288682
0.000144324
0.000152285
0.00577201
0.000153252
0.000140945
0.000138379
0.000145312
0.000136935
0.000140415
0.000493031
0.000145838
0.000153246
0.00152376
0.00016322
0.000154867
0.000159696
0.000497923
0.00309784
0.000432341
0.000133279
0.000144224
0.000147493
0.000146426
0.000146555
0.0173524
0.0031883
0.000150409
0.00862986
0.000173317
0.000697171
0.000144443
0.00342162
0.000142249
0.00761301
0.000175463
0.000137712
0.0118371
0.0062973
0.000139407
0.000143923
0.00014344
0.0102161
0.0124348
0.000153046
0.000184142
0.000159386
0.000165503
0.0269156
0.0031929
0.000142397
0.000143315
0.0306909
0.00614189
0.000141054
0.000142469
0.000133714
0.000146151
0.000144578
0.000152167
0.000494783
0.000142247
0.000157944
0.00741416
0.000145762
0.000157546
0.000153306
0.0166999
0.000144394
0.00015985
0.00162373
0.000146508
0.000133761
0.000146786
0.00013983
0.000148839
0.00991949
0.00160485
0.00015053
0.00329418
0.00016967
0.000151448
0.000143013
0.000151369
0.000148317
0.00014582
0.00389566
0.000144825
0.000151974
0.000153325
0.000152458
0.00014063
0.000152908
0.000142027
0.000190138
0.000144034
0.000140832
0.0131317
0.000141023
0.00977695
0.000166037
0.00014025
0.000876149
0.00015625
0.000158898
0.00920209
0.000135073
0.00117155
0.000140319
0.000143225
0.00554929
0.0199015
0.000135224
0.000143982
0.000138106
0.00014555
0.000177078
0.000147991
0.000146093
0.000150655
0.000155099
0.000147284
0.000142306
0.000136603
0.000140158
0.000141879
0.000645281
0.000153072
0.00013391
0.000164
0.00014256
0.0064855
0.000141769
0.000159282
0.000143842
0.000142181
0.000175816
0.000151535
0.000143504
0.000145357
0.00816952
0.000218341
0.000143083
0.000131948
0.000173201
0.000184053
0.00013023
0.000931669
0.000164616
0.00014353
0.000146509
0.000150762
0.000145027
0.000162298
0.000872671
0.000150314
0.000134953
0.000153227
0.000196156
0.000131952
0.000142921
0.000132112
0.000131975
0.000213683
0.000140994
0.000165547
0.000182554
0.000132034
0.000146787
0.000189986
0.000155287
0.000145587
0.000143284
0.000149956
0.0181649
0.000132055
0.000144152
0.0136558
0.000151827
0.000145127
0.000148118
0.000141108
0.000145329
0.000141782
0.000144095
0.000156529
0.000157558
0.00023607
0.000211537
0.000132037
0.000143523
0.000132032
0.000206161
0.000140547
0.000153245
0.000142891
0.000135095
0.000178668
0.000136488
0.000156775
0.000143366
0.00013658
0.000534825
0.00985063
0.000146275
0.00014514
0.000140154
0.000522631
0.00118177
0.0001433
0.00477175
0.0106144
0.000155751
0.000153941
0.00684836
0.000150542
0.0105661
0.00019414
0.000517697
0.000141856
0.000169908
0.000190617
0.000136249
0.0005511
0.0274207
0.000143264
0.0229938
0.0166675
0.000164318
0.0093244
0.000132021
0.000154314
0.000171489
0.000142265
0.00460758
0.000132105
0.00016501
0.00019824
0.000131974
0.000125495
0.000146413
0.000147613
0.000159538
0.00015081
0.00795895
0.0299709
0.000134178
0.000151126
0.0282877
0.000138327
0.000152012
0.000139164
0.00851424
0.0110499
0.000142598
0.000146768
0.000152344
0.0243171
0.0306114
0.00015621
0.000132058
0.000139731
0.0321675
0.0065483
0.000393171
0.000149811
0.000150447
0.000153268
0.000133773
0.0001503
0.000164096
0.0001512
0.00014001
0.000164234
0.00596762
0.000233363
0.000140242
0.000202464
0.000153059
0.000231357
0.020457
0.000178149
0.0100703
0.00968379
0.000132104
0.000194759
0.000200764
0.00721692
0.000925708
0.000142119
0.000200424
0.0054876
0.000168798
0.000152324
0.000926244
0.00213602
0.00014098
0.00015268
0.000151675
0.000142034
0.000174413
0.000142377
0.000161305
0.000137744
0.000132241
0.000145922
0.000142976
0.000149597
0.000152907
0.00371402
0.000162409
0.00537859
0.000139272
0.00015391
0.00014469
0.00078495
0.0129582
0.000141789
0.000171217
0.000146045
0.000134957
0.000142721
0.000134881
0.00014092
0.000210087
0.000145095
0.00386793
0.000140637
0.000140074
0.0120019
0.000150937
0.000146585
0.000141432
0.000142157
0.00177265
0.000174156
0.011643
8.91215e-05
0.0163006
0.000144357
0.000146188
0.000148239
0.000151289
0.000194309
0.000178115
0.0302371
0.000140302
0.000168769
0.000147746
0.00432078
0.0292934
0.000152015
0.0256338
0.0221135
0.000153003
0.000166342
0.000140203
0.000167831
0.000154578
0.000181942
0.000166987
0.000132189
0.0196673
0.00444043
0.000145534
0.00014935
0.000146854
0.000961577
0.00014066
0.000145984
0.0185077
0.000139117
0.0126923
0.000166105
0.000159138
0.000147697
0.000146426
0.00348893
0.000141496
0.000557998
0.000151656
0.000142517
0.000138404
0.000180157
0.00014936
0.0319565
0.000152534
0.000162823
0.000152251
0.000185852
0.000149706
0.000142621
0.00121756
0.000145785
0.000136427
0.000248108
0.00106584
0.000162759
0.000137037
0.000151882
0.0255879
0.000180969
0.000141632
0.000223724
0.000136976
0.000226199
0.000166048
0.000147057
0.000141281
0.000185592
0.000140189
0.000138562
0.000143152
0.000178749
0.0262892
0.000152212
0.000160749
0.000146381
0.000147445
0.00659177
0.000183177
0.000153216
0.000145982
0.000140714
0.000252981
0.0257337
0.0269132
0.000142094
0.000224608
0.000134967
0.000134729
0.000152574
0.000147254
0.000167152
0.000143011
0.000164417
0.00555002
0.0151718
0.000151291
0.000144209
0.000144519
0.00016536
0.000137661
0.000142224
0.000162883
0.000144082
0.000142278
0.000148094
0.000161133
0.000133369
0.023864
0.000165606
0.000163371
0.00015048
0.000156353
0.000150077
0.0226411
0.000143102
0.000142329
0.000144078
0.000140791
0.000143885
0.000140005
0.000215744
0.00020907
0.000144887
0.000148645
0.000142042
0.000164481
0.000150439
0.000147623
0.00014755
0.0259365
0.000142668
0.000146531
0.000140099
0.000182719
0.000144114
0.0295101
0.000144075
0.000144328
0.000129966
0.0313614
0.000149973
0.000214836
0.0305647
0.000147045
0.000144039
0.000141358
0.000143397
0.000151603
0.000147896
0.000152315
0.0204022
0.000144922
8.28464e-05
0.00180625
0.000150369
0.000196259
0.00014438
0.000150487
0.000140406
0.000136139
0.000135061
0.000143016
0.000229955
0.000189126
0.000139303
0.00502558
0.000213374
0.000142304
0.000890209
0.000135951
0.000163136
0.00014903
0.000140623
0.00727749
0.000143985
0.000152566
0.000151275
0.00010868
0.000178485
0.000147089
0.000140276
0.000148902
0.0267487
0.000175633
0.000162403
0.000154361
0.000143796
0.00014343
0.0061192
0.000145933
0.000156903
0.000155425
0.0170728
0.000143853
0.000161703
0.000144017
0.000146295
0.000163006
0.000158366
0.00015981
0.000147693
0.000146855
0.000153542
0.000427976
0.000201835
0.000136414
0.000152533
0.000181054
0.00015038
0.000166988
0.000145302
0.000145969
0.000142938
0.000149738
0.016803
0.000120281
0.000143918
0.012481
0.000164024
0.000154306
0.00014428
0.00014294
0.000143092
0.00013357
0.000153481
0.000154397
0.000148463
0.000147538
0.000142916
0.000143766
8.50771e-05
0.000143458
0.000143319
0.000146246
0.00951685
0.00180498
0.000143693
0.000141751
0.00014401
0.000840561
0.000147518
0.000318099
0.000143917
0.000171571
0.000143717
0.000145337
0.000198032
0.000145729
0.000159747
0.00014599
0.000143909
0.000136058
0.000149106
0.000295657
0.000146363
0.000147291
0.00339938
0.000144494
0.000148717
0.000147484
0.000145021
0.000142293
0.000147076
0.000190342
0.000138659
0.000139203
0.000140072
0.000285916
0.000151222
0.0110936
0.000144274
0.000145758
0.0048592
0.00622438
0.004806
0.000153511
0.000166115
0.00539219
0.000144197
0.00329472
0.000148317
0.000193706
0.0001403
0.000250104
0.00142327
0.000130016
0.000150682
0.000146723
0.000148629
0.000133124
0.000880425
0.000139697
0.00510114
0.000145738
0.000143309
0.000146242
0.000133229
0.000146258
0.000211853
0.000142911
0.000141471
0.000141434
0.000144847
0.000143165
4.40471e-05
0.0134889
0.00428716
0.000144169
0.00013626
0.000150931
0.000144026
0.000142751
0.000187939
0.000165045
0.000150419
0.000142808
0.000509788
0.000149155
0.000650856
0.000491623
0.000149793
0.000135752
0.000142567
0.000191379
0.00377932
0.000144524
0.00014201
0.000178648
0.000196662
0.000167556
0.0127499
0.000142593
0.0001596
0.000159015
0.000132702
0.000146198
0.000245446
0.0102732
0.000267443
0.000142411
0.0156123
0.000145975
0.000144092
0.000163682
0.000147057
0.000164356
0.000182418
0.00014209
0.000144004
0.000142695
0.000139608
0.000133017
0.000141555
0.000151992
0.000891542
0.000126248
0.000129991
0.000133233
0.000142475
0.000146652
0.000142811
0.000197325
0.000147253
0.000147446
0.000147072
0.00517777
0.00014227
0.000150038
0.00125154
0.000142666
0.000142427
0.0285757
0.000142055
0.00014309
0.000142191
0.000434411
0.000126456
0.000166032
0.000146236
0.000255882
0.000135746
0.000134589
0.000136486
0.000142193
0.000184353
0.000142409
0.000145584
0.000167032
0.000142958
0.000542289
0.000161751
0.000156882
0.000146221
0.000120791
0.00015825
0.000143964
0.000141443
0.000147806
0.000144741
0.000142737
0.000366427
0.000140254
0.000198356
0.000141636
0.000145806
0.0256541
0.000140916
0.0038333
0.000178903
0.000142559
0.000242807
0.000141499
0.000146876
0.000142275
0.000146258
0.000138475
0.0001428
0.000142434
0.000142974
0.000223655
0.000144149
0.000140224
0.000146641
0.000139014
0.000141941
0.000141938
0.000143511
0.000137008
0.00014272
0.000142213
0.000143181
0.000142256
0.000146827
0.000670214
0.000144178
0.000147369
8.98867e-05
0.00605512
0.000134122
0.000186274
0.000140318
0.000140766
0.000142462
0.000143874
0.0143361
0.004427
0.00014131
0.000150205
0.00518754
0.000144691
0.000223034
0.0217322
0.00013284
0.00735539
0.000144004
0.000277771
0.000151471
0.00023025
0.0125427
0.018027
0.000140398
0.000141207
0.000134291
0.000152383
0.000174398
0.000149396
0.000116214
0.0154075
0.000143353
0.0226842
0.000183681
0.00014378
0.000136333
0.000163464
0.000160132
0.000142463
0.00014064
0.000136092
0.000160848
0.000160327
0.000163707
0.000160131
0.000161901
0.00979715
0.000140989
0.000142125
0.000141571
0.00643111
0.000163686
0.000164747
0.000282346
0.00575915
0.000172651
0.000140761
0.000163962
0.000142009
0.000160401
0.000143041
0.000147405
0.000185915
0.000156176
0.000197959
0.000132325
0.0042492
0.000179861
0.000182283
0.00326486
0.0166981
0.000141268
0.000142953
0.000142874
0.000525184
0.000143451
0.000139591
0.00014287
0.000159618
0.0107539
0.0024709
0.000163947
0.000146096
0.00445327
0.000165087
0.00375736
0.000205124
0.000187671
0.000163214
0.0058305
0.00146022
0.00014132
0.000141417
0.000141378
0.000188417
0.00014383
0.000185865
0.000145166
0.000142103
0.000142086
0.00191083
0.00014171
0.000141821
0.000140842
0.000161222
0.000140103
0.000141572
0.000135867
0.000157191
0.00352004
0.00016183
0.000159228
0.00014423
0.013091
0.000173878
0.000133707
0.000142842
0.000230691
0.000310484
0.000144621
0.00014491
0.00031346
0.000141581
0.000140489
0.000140234
0.000143893
0.000199218
0.00014048
0.000144486
0.000141283
0.000145386
0.000142026
0.000141423
0.000140949
0.000142024
0.000142871
0.000843099
0.000142268
0.000138277
0.000114528
0.000178891
0.000194548
0.000172782
0.000140333
9.65178e-06
0.000142585
0.000194858
0.000141061
0.000157632
0.000141375
0.000142131
0.000134448
0.000256583
0.000162978
0.000141858
0.00211221
0.000141879
0.000134489
0.000141956
0.00014818
0.000155076
0.000140209
0.0215285
0.000143775
0.000193894
0.000189221
0.000143081
0.000159249
0.0001405
0.000137601
0.000141793
0.0132618
0.00018387
0.000166382
0.00019727
0.00621243
0.000153924
0.0001867
0.000164157
0.000142549
0.000131802
0.000576719
0.000152801
0.00014032
0.000180461
0.00014019
0.000140605
0.0110902
0.000137023
0.000142311
8.68353e-05
0.000187251
0.0182563
0.000142533
0.000140694
0.000108576
0.000140049
0.000134958
0.000542972
0.000141886
0.000190641
0.00143153
0.00197447
0.000142805
0.000148373
0.000141358
0.00013257
0.000164566
0.000144951
0.000143399
0.000171295
0.000138119
0.000169114
0.000142953
0.000149096
0.000163884
0.0127751
0.000161286
0.000146004
0.000308907
0.00781807
0.000142161
0.000235508
0.000145384
0.000142219
0.000142994
0.000140417
0.000164011
0.000151535
0.000428972
0.000141644
0.000164225
0.000146784
0.000131452
0.000140753
0.000142613
0.000167185
0.000139101
0.000142201
0.000147674
0.000143916
0.022636
0.000143132
0.000148607
0.00018743
0.000149669
0.000134962
0.00150534
0.00292515
0.0250719
0.0281674
0.000173833
0.000137241
0.000147749
0.0129424
0.00460761
0.000392932
0.0105154
0.00883085
0.000143963
0.00813635
0.0197234
0.000144221
0.000701735
0.00014686
0.015737
0.00384019
0.012303
0.000147226
0.000140686
0.00019144
0.00014238
0.000143393
0.000511058
0.0064231
0.000142823
0.00014347
0.000141878
0.0073211
0.000141183
0.000140939
0.000142119
0.000140477
0.000140564
0.000676993
0.000146642
0.000140169
0.000143451
0.000165495
0.00589547
0.0148438
0.00014234
0.000141429
0.000149575
0.000142305
0.000140412
0.000141426
0.0240125
0.000141969
0.000162998
0.000141435
0.00014452
0.00013566
0.000142575
0.0172332
0.00359719
0.000137155
0.00014674
0.0011837
0.0241422
0.000293317
0.0162104
0.00014263
0.000165504
0.000141202
0.000131358
0.000141181
0.000134644
0.000140906
0.000142169
0.00014497
0.00033995
0.000132772
0.000378857
0.0145484
0.000132388
0.000186343
0.000180075
0.000146763
0.000141358
0.000142041
0.000143814
0.000141026
0.00661247
0.000131947
0.000141557
0.00534374
0.00014113
0.000142511
0.000140324
0.000177081
0.00014317
0.000143085
0.0143461
0.000138034
0.000137588
0.000141113
0.000110535
0.000142173
0.000130343
0.000141126
0.000132966
0.0132694
0.000159891
0.000140679
0.00024745
0.000131673
0.000142108
0.000152231
0.0103275
0.0126466
0.000133375
0.000161582
0.00014267
0.000141438
0.000141236
0.000141137
0.000532997
0.00500332
0.000142401
0.000146647
0.000168081
0.000140166
0.000140917
0.000161947
0.000157255
0.0150598
0.000142496
0.000152734
0.0142935
0.000141286
0.000164163
0.00044519
0.00439148
0.000141809
0.0001401
0.000139845
0.000141519
0.000140252
0.0032177
0.000140824
0.0161322
0.000269917
0.000146784
0.000163584
0.00224386
0.000135802
0.00300953
0.000216763
0.000134531
0.000157132
0.000141712
0.000150836
0.00420632
0.000139124
0.000178036
0.000140138
0.000133462
0.000133824
0.000134326
0.00014135
0.00409959
0.000144872
0.0116082
0.00507458
0.000178813
0.0185437
0.000131564
0.000143174
0.000149125
0.000320142
0.000141648
0.00121401
0.000147815
0.00013336
0.000139928
0.00292348
0.000139907
0.000166938
0.00810007
0.000140767
0.00580443
0.00014637
0.000200941
0.000377389
0.000143233
0.000137528
0.000195934
0.000505641
0.00014201
0.00014929
0.000134558
0.000142767
0.000139491
0.000670429
0.000140506
0.000133529
0.000156737
0.000134215
0.00559298
0.000143378
0.000141748
0.000141883
0.0110761
0.000140299
0.000139657
0.00719933
0.000239129
0.000635207
0.000146526
0.000134377
0.000179926
0.00204862
0.000246149
0.000173385
0.000159254
0.000160703
0.000144454
0.000142341
0.000164443
0.00014601
0.000141587
0.000136161
0.000191135
0.000164952
0.000139869
0.000130385
0.000144159
0.000137449
0.000145228
0.000150938
0.00233005
0.00338696
0.00016011
0.0080299
0.0110972
0.0001378
0.000140014
0.000147192
0.000161483
0.000135969
0.000147557
0.000139754
0.000140557
0.000141432
0.000172634
0.000142321
0.000392847
0.000142354
0.000139594
0.000235985
0.00016718
0.000148134
0.000139805
0.000139383
0.0160863
0.00187874
0.000143928
0.000135051
0.000147443
0.000139955
0.000142094
0.000140523
0.000200698
0.000140413
0.000139329
0.000231885
0.000136748
0.000184822
0.000164349
0.000140664
0.000142609
0.004802
0.000681879
0.00114252
0.00889224
0.00016452
0.000149797
0.000145764
0.000142334
0.000176172
0.000139258
0.00461186
0.0136507
0.000149913
0.000187542
0.000452164
0.000139531
0.00374974
0.000176068
0.0220094
0.000147854
0.000138866
0.000139026
0.000145965
0.00014098
0.000959142
0.00886912
0.000300382
0.000141795
0.000140004
0.00013937
0.00129719
0.000175971
0.000250163
0.00013953
0.000145308
0.000260717
0.00014088
0.000461899
0.000946159
0.000139556
0.000143188
0.000131256
0.000142625
0.00347326
0.0337032
0.000139407
0.000140837
0.000137981
0.00301216
0.000141512
0.000150822
0.00026258
0.00061038
0.020794
0.00202222
0.0134967
0.00014221
0.000155009
0.000144561
0.000141056
0.000149448
0.000211594
0.000136667
0.000141348
0.000418293
0.000142348
0.000135008
0.00857486
0.000132946
0.000141328
0.000337009
0.000182916
0.000133472
0.000134828
0.000168765
0.000195052
0.000190057
0.026367
0.000149034
0.0157528
0.000140267
0.000174844
0.000401657
0.000868357
0.0128961
0.000148329
0.0149093
0.000234325
0.00799405
0.000137604
0.000140564
0.000135329
0.000142061
0.000155417
0.000138735
0.000175971
0.00013432
0.000150064
0.00014301
0.00498158
0.000142791
0.000191542
0.000166975
0.000160349
0.00015793
0.000168024
0.000486772
0.000131166
0.000167538
0.000142014
0.000534944
0.000144005
0.00014503
3.0359e-05
0.000155556
0.00692109
0.000138925
0.000434975
0.000164577
0.000153925
0.000143185
0.00140578
0.000145266
0.000139585
0.000141877
0.000586563
0.000143752
0.000180461
0.000239538
0.000173719
0.000224762
0.000139224
0.000133358
0.00353309
0.000186285
0.00906118
0.016025
0.000139651
0.000890053
0.00715919
0.000173015
0.000138069
0.000264074
0.00519066
0.000138756
0.000146686
0.000131688
0.000242115
0.00825714
0.00748701
0.00029192
0.000138982
0.000137958
0.000145695
0.000134622
0.000143041
0.000164256
0.000147317
0.000136356
0.0173459
0.000152091
0.000145261
0.000151216
0.000748305
0.000282618
0.000140454
0.000154252
0.000146586
0.0157506
0.000138891
0.00916066
0.000142672
0.000162699
0.0288086
0.000147793
0.00441042
0.000136284
0.000132076
0.000139066
0.000139208
0.000137881
0.000139355
0.000131539
0.00428879
0.000164608
0.000140444
0.01669
0.000139624
0.000146763
0.000137817
0.0135547
0.000140463
0.000150197
0.000239122
0.000228804
0.000139706
0.000131609
0.0130523
0.000141785
0.00872176
0.028218
0.000146662
0.000145461
0.000179691
5.98171e-05
0.000324386
0.000135031
0.000137799
0.00015263
0.000186275
0.000149794
0.000272098
0.000227918
0.000142163
0.000145986
0.000181249
0.000147246
0.000211519
0.0149837
0.00013723
0.0108884
0.000210099
0.000142503
0.000139838
0.000139853
0.000139612
0.000137864
0.000140497
0.000138556
0.00014941
0.000141792
0.000160459
0.000141598
0.000150082
0.000152155
0.000137473
0.00013831
0.000694245
0.000150856
0.000154454
0.000137374
0.000148152
0.000137218
0.000133132
0.015228
0.00014287
0.000140937
0.00714877
0.0175274
0.000694557
0.000139569
0.0131548
0.000143888
0.0103267
0.0152137
0.000150484
0.0197693
0.000138092
0.000135545
0.019894
0.000139242
0.000175709
0.000470366
0.00867697
0.00016431
0.000269837
0.000144658
0.000139346
0.000153665
0.000137874
0.00584947
0.00130141
0.000139447
0.013972
0.00220242
0.00013123
0.000137979
0.000177769
8.47487e-05
0.000197027
0.000184197
0.000517233
0.0112391
0.000141923
0.00619145