/*--------------------------------*- C++ -*----------------------------------*\
| =========                 |                                                 |
| \\      /  F ield         | OpenFOAM: The Open Source CFD Toolbox           |
|  \\    /   O peration     | Version:  v2012                                 |
|   \\  /    A nd           | Website:  www.openfoam.com                      |
|    \\/     M anipulation  |                                                 |
\*---------------------------------------------------------------------------*/
FoamFile
{
    version     2.0;
    format      ascii;
    class       pointVectorField;
    location    "700";
    object      pointDisplacement;
}
// * * * * * * * * * * * * * * * * * * * * * * * * * * * * * * * * * * * * * //

dimensions      [0 1 0 0 0 0 0];


internalField   nonuniform List<vector> 
10142
(
(0 0 0)
(0 0 0)
(0 0 0)
(0 0 0)
(0 0 0)
(0 0 0)
(0 0 0)
(0 0 0)
(0 0 0)
(0 0 0)
(0 0 0)
(0 0 0)
(0 0 0)
(0 0 0)
(0 0 0)
(0 0 0)
(0 0 0)
(0 0 0)
(0 0 0)
(0 0 0)
(0 0 0)
(0 0 0)
(0 0 0)
(0 0 0)
(0 0 0)
(0 0 0)
(0 0 0)
(0 0 0)
(0 0 0)
(0 0 0)
(0 0 0)
(0 0 0)
(0 0 0)
(0 0 0)
(0 0 0)
(0 0 0)
(0 0 0)
(0 0 0)
(0 0 0)
(0 0 0)
(0 0 0)
(0 0 0)
(0 0 0)
(0 0 0)
(0 0 0)
(0 0 0)
(0 0 0)
(0 0 0)
(0 0 0)
(0 0 0)
(0 0 0)
(0 0 0)
(0 0 0)
(0 0 0)
(0 0 0)
(0 0 0)
(0 0 0)
(0 0 0)
(0 0 0)
(0 0 0)
(0 0 0)
(0 0 0)
(0 0 0)
(0 0 0)
(0 0 0)
(0 0 0)
(0 0 0)
(0 0 0)
(0 0 0)
(0 0 0)
(0 0 0)
(0 0 0)
(0 0 0)
(0 0 0)
(0 0 0)
(0 0 0)
(0 0 0)
(0 0 0)
(0 0 0)
(0 0 0)
(0 0 0)
(0 0 0)
(0 0 0)
(0 0 0)
(0 0 0)
(0 0 0)
(0 0 0)
(0 0 0)
(0 0 0)
(0 0 0)
(0 0 0)
(0 0 0)
(0 0 0)
(0 0 0)
(0 0 0)
(0 0 0)
(0 0 0)
(0 0 0)
(0 0 0)
(0 0 0)
(0 0 0)
(0 0 0)
(0 0 0)
(0 0 0)
(0 0 0)
(0 0 0)
(0 0 0)
(0 0 0)
(0 0 0)
(0 0 0)
(0 0 0)
(0 0 0)
(0 0 0)
(0 0 0)
(0 0 0)
(0 0 0)
(0 0 0)
(0 0 0)
(0 0 0)
(0 0 0)
(0 0 0)
(0 0 0)
(0 0 0)
(0 0 0)
(0 0 0)
(0 0 0)
(0 0 0)
(0 0 0)
(0 0 0)
(0 0 0)
(0 0 0)
(0 0 0)
(0 0 0)
(0 0 0)
(0 0 0)
(0 0 0)
(0 0 0)
(0 0 0)
(0 0 0)
(0 0 0)
(0 0 0)
(0 0 0)
(0 0 0)
(0 0 0)
(0 0 0)
(0 0 0)
(0 0 0)
(0 0 0)
(0 0 0)
(0 0 0)
(0 0 0)
(0 0 0)
(0 0 0)
(0 0 0)
(0 0 0)
(0 0 0)
(0 0 0)
(0 0 0)
(0 0 0)
(0 0 0)
(0 0 0)
(0 0 0)
(0 0 0)
(0 0 0)
(0 0 0)
(0 0 0)
(0 0 0)
(0 0 0)
(0 0 0)
(0 0 0)
(0 0 0)
(0 0 0)
(0 0 0)
(0 0 0)
(0 0 0)
(0 0 0)
(0 0 0)
(0 0 0)
(0 0 0)
(0 0 0)
(0 0 0)
(0 0 0)
(0 0 0)
(0 0 0)
(0 0 0)
(0 0 0)
(0 0 0)
(0 0 0)
(0 0 0)
(0 0 0)
(0 0 0)
(0 0 0)
(0 0 0)
(0 0 0)
(0 0 0)
(0 0 0)
(0 0 0)
(0 0 0)
(0 0 0)
(0 0 0)
(0 0 0)
(0 0 0)
(0 0 0)
(0 0 0)
(0 0 0)
(0 0 0)
(0 0 0)
(0 0 0)
(0 0 0)
(0 0 0)
(0 0 0)
(0 0 0)
(0 0 0)
(0 0 0)
(0 0 0)
(0 0 0)
(0 0 0)
(0 0 0)
(0 0 0)
(0 0 0)
(0 0 0)
(0 0 0)
(0 0 0)
(0 0 0)
(0 0 0)
(0 0 0)
(0 0 0)
(0 0 0)
(0 0 0)
(0 0 0)
(0 0 0)
(0 0 0)
(0 0 0)
(0 0 0)
(0 0 0)
(0 0 0)
(0 0 0)
(0 0 0)
(0 0 0)
(0 0 0)
(0 0 0)
(0 0 0)
(0 0 0)
(0 0 0)
(0 0 0)
(0 0 0)
(0 0 0)
(0 0 0)
(0 0 0)
(0 0 0)
(0 0 0)
(0 0 0)
(0 0 0)
(0 0 0)
(0 0 0)
(0 0 0)
(0 -0.000311242 0)
(0 -0.000351152 0)
(0 -0.000234313 0)
(0 -0.000272798 0)
(0 -0.000180268 0)
(0 -0.000298137 0)
(0 -0.000150127 0)
(0 -0.000322509 0)
(0 -0.000114131 0)
(0 -0.000233417 0)
(0 -0.000129286 0)
(0 -8.58713e-05 0)
(0 -8.64074e-05 0)
(0 -0.000288894 0)
(0 -7.97246e-05 0)
(0 -6.32157e-05 0)
(0 -6.02891e-05 0)
(0 -0.00033227 0)
(0 -0.000202378 0)
(0 -0.000167636 0)
(0 -4.87801e-05 0)
(0 -3.28077e-05 0)
(0 -0.000301604 0)
(0 -0.000358767 0)
(0 -0.000319075 0)
(0 -0.000313252 0)
(0 -0.000244278 0)
(0 -9.46382e-05 0)
(0 -0.000123084 0)
(0 -0.0001089 0)
(0 -9.73584e-05 0)
(0 -3.22206e-05 0)
(0 -2.00637e-05 0)
(0 -1.72876e-05 0)
(0 -0.000320988 0)
(0 -0.000354318 0)
(0 -0.000298959 0)
(0 -0.000269735 0)
(0 -0.000292734 0)
(0 -0.000208916 0)
(0 -0.000138655 0)
(0 -0.000167438 0)
(0 -0.000237838 0)
(0 -5.62356e-05 0)
(0 -0.000161073 0)
(0 -0.000104678 0)
(0 -7.84103e-05 0)
(0 -6.43786e-05 0)
(0 -4.4624e-05 0)
(0 -7.84764e-05 0)
(0 -8.64714e-06 0)
(0 -0.00199165 0)
(0 -0.00190738 0)
(0 -0.00201744 0)
(0 -0.00193184 0)
(0 -0.00204443 0)
(0 -0.00195863 0)
(0 -0.00207375 0)
(0 -0.00198864 0)
(0 -0.00210642 0)
(0 -0.00202234 0)
(0 -0.00214156 0)
(0 -0.0020591 0)
(0 -0.00217753 0)
(0 -0.00209737 0)
(0 -0.00221781 0)
(0 -0.00213585 0)
(0 -0.00225868 0)
(0 -0.00217785 0)
(0 -0.0023027 0)
(0 -0.002227 0)
(0 -0.00235822 0)
(0 -0.00227935 0)
(0 -0.00241419 0)
(0 -0.0023366 0)
(0 -0.00246905 0)
(0 -0.00239896 0)
(0 -0.00253182 0)
(0 -0.0024648 0)
(0 -0.00260267 0)
(0 -0.00253539 0)
(0 -0.0026747 0)
(0 -0.00260967 0)
(0 -0.00274923 0)
(0 -0.00268686 0)
(0 -0.00282732 0)
(0 -0.0027679 0)
(0 -0.00291003 0)
(0 -0.00285345 0)
(0 -0.00299396 0)
(0 -0.00293857 0)
(0 -0.00307569 0)
(0 -0.00302443 0)
(0 -0.00316334 0)
(0 -0.00311137 0)
(0 -0.00325206 0)
(0 -0.00319881 0)
(0 -0.00334168 0)
(0 -0.00329223 0)
(0 -0.00343748 0)
(0 -0.00338878 0)
(0 -0.00353312 0)
(0 -0.00348507 0)
(0 -0.00363119 0)
(0 -0.00333483 0)
(0 -0.00343616 0)
(0 -0.00367515 0)
(0 -0.00377067 0)
(0 -0.00306483 0)
(0 -0.00255237 0)
(0 -0.00222568 0)
(0 -0.00381824 0)
(0 -0.00390926 0)
(0 -0.00396043 0)
(0 -0.00404894 0)
(0 -0.0040978 0)
(0 -0.00418491 0)
(0 -0.00423603 0)
(0 -0.00432518 0)
(0 -0.00437573 0)
(0 -0.00446359 0)
(0 -0.0045061 0)
(0 -0.00459204 0)
(0 -0.00462981 0)
(0 -0.00471742 0)
(0 -0.00475027 0)
(0 -0.00483739 0)
(0 -0.00486204 0)
(0 -0.00494344 0)
(0 -0.0049617 0)
(0 -0.0050353 0)
(0 -0.0050482 0)
(0 -0.00511475 0)
(0 -0.00510575 0)
(0 -0.00518381 0)
(0 -0.00517522 0)
(0 -0.00525291 0)
(0 -0.00524209 0)
(0 -0.00531899 0)
(0 -0.00530483 0)
(0 -0.0053796 0)
(0 -0.00536702 0)
(0 -0.00544029 0)
(0 -0.00542795 0)
(0 -0.00549955 0)
(0 -0.00548367 0)
(0 -0.00555031 0)
(0 -0.00553087 0)
(0 -0.00559466 0)
(0 -0.00557212 0)
(0 -0.00563504 0)
(0 -0.0056685 0)
(0 -0.00568807 0)
(0 -0.00571878 0)
(0 -0.00574285 0)
(0 -0.0053854 0)
(0 -0.00576044 0)
(0 -0.00578386 0)
(0 -0.0058192 0)
(0 -0.00583686 0)
(0 -0.00586572 0)
(0 -0.00587558 0)
(0 -0.00588727 0)
(0 -0.005896 0)
(0 -0.00589824 0)
(0 -0.00590929 0)
(0 -0.00590881 0)
(0 -0.0059118 0)
(0 -0.00590144 0)
(0 -0.00589602 0)
(0 -0.00587937 0)
(0 -0.00588328 0)
(0 -0.00586619 0)
(0 -0.0058442 0)
(0 -0.00584722 0)
(0 -0.00582406 0)
(0 -0.00579582 0)
(0 -0.00576805 0)
(0 -0.00573504 0)
(0 -0.00569985 0)
(0 -0.00497923 0)
(0 -0.00569603 0)
(0 -0.00565884 0)
(0 -0.00561628 0)
(0 -0.00560666 0)
(0 -0.00556652 0)
(0 -0.00551307 0)
(0 -0.00546821 0)
(0 -0.00541005 0)
(0 -0.00535689 0)
(0 -0.00534665 0)
(0 -0.00529344 0)
(0 -0.00523455 0)
(0 -0.00522732 0)
(0 -0.00517014 0)
(0 -0.0051068 0)
(0 -0.00510035 0)
(0 -0.00503983 0)
(0 -0.0026266 0)
(0 -0.00496451 0)
(0 -0.00489822 0)
(0 -0.00481867 0)
(0 -0.00474782 0)
(0 -0.00473652 0)
(0 -0.00466696 0)
(0 -0.00459434 0)
(0 -0.00458272 0)
(0 -0.00451186 0)
(0 -0.00442645 0)
(0 -0.00435442 0)
(0 -0.00426986 0)
(0 -0.00419399 0)
(0 -0.00418268 0)
(0 -0.00410754 0)
(0 -0.00402997 0)
(0 -0.00401906 0)
(0 -0.00394286 0)
(0 -0.00385446 0)
(0 -0.0022638 0)
(0 -0.00201192 0)
(0 -0.00506331 0)
(0 -0.00499756 0)
(0 -0.00508032 0)
(0 -0.00501569 0)
(0 -0.00509504 0)
(0 -0.00503005 0)
(0 -0.00511642 0)
(0 -0.00504007 0)
(0 -0.00510987 0)
(0 -0.00504597 0)
(0 -0.00510664 0)
(0 -0.00504425 0)
(0 -0.00509935 0)
(0 -0.0050363 0)
(0 -0.00508777 0)
(0 -0.00502362 0)
(0 -0.00506702 0)
(0 -0.00499799 0)
(0 -0.00503438 0)
(0 -0.00495912 0)
(0 -0.00498873 0)
(0 -0.0050668 0)
(0 -0.00501283 0)
(0 -0.00509119 0)
(0 -0.00503005 0)
(0 -0.00510578 0)
(0 -0.00490874 0)
(0 -0.00487877 0)
(0 -0.0050408 0)
(0 -0.0051144 0)
(0 -0.00482637 0)
(0 -0.00479588 0)
(0 -0.00504299 0)
(0 -0.00511347 0)
(0 -0.00474257 0)
(0 -0.00471073 0)
(0 -0.00501912 0)
(0 -0.00510392 0)
(0 -0.00465588 0)
(0 -0.00462004 0)
(0 -0.00456638 0)
(0 -0.00452889 0)
(0 -0.00501274 0)
(0 -0.00508612 0)
(0 -0.00447625 0)
(0 -0.00444195 0)
(0 -0.00498602 0)
(0 -0.00505865 0)
(0 -0.0043865 0)
(0 -0.00435806 0)
(0 -0.00491807 0)
(0 -0.00429842 0)
(0 -0.00427538 0)
(0 -0.0049463 0)
(0 -0.00502187 0)
(0 -0.00431524 0)
(0 -0.00421298 0)
(0 -0.00419383 0)
(0 -0.00489642 0)
(0 -0.00497445 0)
(0 -0.00413072 0)
(0 -0.00411258 0)
(0 -0.00483837 0)
(0 -0.0049159 0)
(0 -0.00404873 0)
(0 -0.00403025 0)
(0 -0.00545828 0)
(0 -0.00477166 0)
(0 -0.00484966 0)
(0 -0.0039636 0)
(0 -0.003947 0)
(0 -0.00400263 0)
(0 -0.00392047 0)
(0 -0.00386211 0)
(0 -0.00383784 0)
(0 -0.00440177 0)
(0 -0.00469833 0)
(0 -0.0047773 0)
(0 -0.00377617 0)
(0 -0.00375278 0)
(0 -0.00380426 0)
(0 -0.00372252 0)
(0 -0.0036647 0)
(0 -0.00363841 0)
(0 -0.00357606 0)
(0 -0.00355322 0)
(0 -0.00461985 0)
(0 -0.00469763 0)
(0 -0.00485028 0)
(0 -0.00476989 0)
(0 -0.00461084 0)
(0 -0.00468326 0)
(0 -0.00469731 0)
(0 -0.00368619 0)
(0 -0.00186894 0)
(0 -0.00348791 0)
(0 -0.0034703 0)
(0 -0.00483912 0)
(0 -0.00475332 0)
(0 -0.00459243 0)
(0 -0.00466308 0)
(0 -0.00449687 0)
(0 -0.00456733 0)
(0 -0.0047293 0)
(0 -0.00463343 0)
(0 -0.00446572 0)
(0 -0.00453088 0)
(0 -0.00397221 0)
(0 -0.00469455 0)
(0 -0.00459262 0)
(0 -0.00442386 0)
(0 -0.00448813 0)
(0 -0.00431482 0)
(0 -0.00438019 0)
(0 -0.00455449 0)
(0 -0.00444434 0)
(0 -0.00426946 0)
(0 -0.00432974 0)
(0 -0.00449563 0)
(0 -0.00438463 0)
(0 -0.0042159 0)
(0 -0.00427317 0)
(0 -0.00340259 0)
(0 -0.00339028 0)
(0 -0.00341169 0)
(0 -0.00409901 0)
(0 -0.00415528 0)
(0 -0.00432135 0)
(0 -0.00420577 0)
(0 -0.004037 0)
(0 -0.00408811 0)
(0 -0.00497087 0)
(0 -0.00511034 0)
(0 -0.00424913 0)
(0 -0.00413268 0)
(0 -0.0039685 0)
(0 -0.00401495 0)
(0 -0.00384768 0)
(0 -0.00389521 0)
(0 -0.00405162 0)
(0 -0.0039341 0)
(0 -0.00377353 0)
(0 -0.00381599 0)
(0 -0.00397241 0)
(0 -0.00385684 0)
(0 -0.00369275 0)
(0 -0.00373247 0)
(0 -0.00356493 0)
(0 -0.00360078 0)
(0 -0.00375437 0)
(0 -0.00362951 0)
(0 -0.00347276 0)
(0 -0.00350487 0)
(0 -0.00365538 0)
(0 -0.00353286 0)
(0 -0.00338038 0)
(0 -0.00340984 0)
(0 -0.00325651 0)
(0 -0.00328682 0)
(0 -0.00343074 0)
(0 -0.00331221 0)
(0 -0.00316459 0)
(0 -0.00319044 0)
(0 -0.00332141 0)
(0 -0.00331094 0)
(0 -0.00337239 0)
(0 -0.0032947 0)
(0 -0.00334414 0)
(0 -0.00326971 0)
(0 -0.00321619 0)
(0 -0.00319451 0)
(0 -0.00313851 0)
(0 -0.00311886 0)
(0 -0.00333073 0)
(0 -0.00321105 0)
(0 -0.00306976 0)
(0 -0.00309219 0)
(0 -0.00295001 0)
(0 -0.00297287 0)
(0 -0.00310601 0)
(0 -0.00298899 0)
(0 -0.00285449 0)
(0 -0.00287294 0)
(0 -0.00301384 0)
(0 -0.00288479 0)
(0 -0.00275814 0)
(0 -0.0027671 0)
(0 -0.00288436 0)
(0 -0.00277214 0)
(0 -0.00264973 0)
(0 -0.00265682 0)
(0 -0.002775 0)
(0 -0.00266035 0)
(0 -0.00277383 0)
(0 -0.00265937 0)
(0 -0.00276759 0)
(0 -0.00265371 0)
(0 -0.0025462 0)
(0 -0.00254144 0)
(0 -0.00264356 0)
(0 -0.00253203 0)
(0 -0.00243056 0)
(0 -0.00242133 0)
(0 -0.00251768 0)
(0 -0.00240705 0)
(0 -0.00249859 0)
(0 -0.00238785 0)
(0 -0.00247488 0)
(0 -0.00236449 0)
(0 -0.00244687 0)
(0 -0.00233721 0)
(0 -0.00225522 0)
(0 -0.00222911 0)
(0 -0.00230647 0)
(0 -0.00219941 0)
(0 -0.00227225 0)
(0 -0.00216642 0)
(0 -0.00223498 0)
(0 -0.00212981 0)
(0 -0.00219437 0)
(0 -0.00206196 0)
(0 -0.00208968 0)
(0 -0.00214998 0)
(0 -0.0020462 0)
(0 -0.00210227 0)
(0 -0.00199947 0)
(0 -0.0020517 0)
(0 -0.00194942 0)
(0 -0.00199787 0)
(0 -0.00232096 0)
(0 -0.00189738 0)
(0 -0.00189601 0)
(0 -0.00194082 0)
(0 -0.00183931 0)
(0 -0.00188068 0)
(0 -0.00442051 0)
(0 -0.00306098 0)
(0 -0.00304421 0)
(0 -0.00177932 0)
(0 -0.00181725 0)
(0 -0.00330702 0)
(0 -0.00210007 0)
(0 -0.00298342 0)
(0 -0.00296827 0)
(0 -0.0042857 0)
(0 -0.00171611 0)
(0 -0.00175068 0)
(0 -0.00167828 0)
(0 -0.00185145 0)
(0 -0.00178174 0)
(0 -0.00188191 0)
(0 -0.00180927 0)
(0 -0.00230052 0)
(0 -0.00518191 0)
(0 -0.00290323 0)
(0 -0.00302141 0)
(0 -0.00290574 0)
(0 -0.00170958 0)
(0 -0.00173451 0)
(0 -0.00190851 0)
(0 -0.00255718 0)
(0 -0.00163515 0)
(0 -0.00165767 0)
(0 -0.0015585 0)
(0 -0.00157889 0)
(0 -0.0014797 0)
(0 -0.00149814 0)
(0 -0.00159643 0)
(0 -0.00151383 0)
(0 -0.00161098 0)
(0 -0.00517413 0)
(0 -0.00139892 0)
(0 -0.00137975 0)
(0 -0.0046794 0)
(0 -0.00465587 0)
(0 -0.0012989 0)
(0 -0.0012793 0)
(0 -0.0028889 0)
(0 -0.00556153 0)
(0 -0.00288254 0)
(0 -0.00253371 0)
(0 -0.00214775 0)
(0 -0.00528727 0)
(0 -0.0033156 0)
(0 -0.00273639 0)
(0 -0.00234817 0)
(0 -0.00209912 0)
(0 -0.00119855 0)
(0 -0.00117864 0)
(0 -0.00400147 0)
(0 -0.00109773 0)
(0 -0.00107743 0)
(0 -0.00497491 0)
(0 -0.00223614 0)
(0 -0.0016665 0)
(0 -0.0015725 0)
(0 -0.00492554 0)
(0 -0.00251384 0)
(0 -0.00259535 0)
(0 -0.00269102 0)
(0 -0.00267509 0)
(0 -0.00277174 0)
(0 -0.00275254 0)
(0 -0.00285044 0)
(0 -0.00282797 0)
(0 -0.00292674 0)
(0 -0.00290174 0)
(0 -0.00300018 0)
(0 -0.00297248 0)
(0 -0.00307179 0)
(0 -0.00304261 0)
(0 -0.00313989 0)
(0 -0.00310283 0)
(0 -0.00320172 0)
(0 -0.0031551 0)
(0 -0.0032578 0)
(0 -0.0031971 0)
(0 -0.0033136 0)
(0 -0.00326339 0)
(0 -0.00337008 0)
(0 -0.00331623 0)
(0 -0.0034227 0)
(0 -0.00115646 0)
(0 -0.00105503 0)
(0 -0.00113197 0)
(0 -0.00103056 0)
(0 -0.00110533 0)
(0 -0.00100389 0)
(0 -0.00107648 0)
(0 -0.000975339 0)
(0 -0.00104559 0)
(0 -0.000945256 0)
(0 -0.00101305 0)
(0 -0.00091384 0)
(0 -0.000978987 0)
(0 -0.000881095 0)
(0 -0.00094331 0)
(0 -0.000847088 0)
(0 -0.000906287 0)
(0 -0.00100206 0)
(0 -0.000961992 0)
(0 -0.000867991 0)
(0 -0.00092009 0)
(0 -0.00101391 0)
(0 -0.000968583 0)
(0 -0.000877093 0)
(0 -0.000921444 0)
(0 -0.00101272 0)
(0 -0.000961276 0)
(0 -0.000873276 0)
(0 -0.000909196 0)
(0 -0.000997029 0)
(0 -0.000941294 0)
(0 -0.000856152 0)
(0 -0.000883653 0)
(0 -0.000968475 0)
(0 -0.000906182 0)
(0 -0.000989687 0)
(0 -0.000825061 0)
(0 -0.000923592 0)
(0 -0.0010061 0)
(0 -0.000936196 0)
(0 -0.00101813 0)
(0 -0.000944214 0)
(0 -0.0010269 0)
(0 -0.000947607 0)
(0 -0.00103028 0)
(0 -0.00086829 0)
(0 -0.000945873 0)
(0 -0.00102753 0)
(0 -0.00107562 0)
(0 -0.000939343 0)
(0 -0.00102102 0)
(0 -0.00111618 0)
(0 -0.000928568 0)
(0 -0.00101008 0)
(0 -0.000850082 0)
(0 -0.000912871 0)
(0 -0.000994123 0)
(0 -0.00109476 0)
(0 -0.00107874 0)
(0 -0.00118268 0)
(0 -0.00116673 0)
(0 -0.00105794 0)
(0 -0.00114567 0)
(0 -0.00125758 0)
(0 -0.00123637 0)
(0 -0.00111916 0)
(0 -0.00120995 0)
(0 -0.00108698 0)
(0 -0.00117797 0)
(0 -0.00130444 0)
(0 -0.00127265 0)
(0 -0.00204933 0)
(0 -0.00217862 0)
(0 -0.00114065 0)
(0 -0.00123535 0)
(0 -0.00137027 0)
(0 -0.00133281 0)
(0 -0.0014705 0)
(0 -0.00143297 0)
(0 -0.00128962 0)
(0 -0.0013896 0)
(0 -0.000996245 0)
(0 -0.00101484 0)
(0 -0.00170429 0)
(0 -0.00160904 0)
(0 -0.00148024 0)
(0 -0.00151787 0)
(0 -0.00139256 0)
(0 -0.00143027 0)
(0 -0.00164303 0)
(0 -0.00130962 0)
(0 -0.00134787 0)
(0 -0.00280554 0)
(0 -0.00124062 0)
(0 -0.00134022 0)
(0 -0.00197831 0)
(0 -0.00211746 0)
(0 -0.000874416 0)
(0 -0.00336581 0)
(0 -0.00347339 0)
(0 -0.00304454 0)
(0 -0.00149198 0)
(0 -0.00144246 0)
(0 -0.00128491 0)
(0 -0.00138729 0)
(0 -0.00154772 0)
(0 -0.00149287 0)
(0 -0.00257738 0)
(0 -0.00165556 0)
(0 -0.00160077 0)
(0 -0.00143196 0)
(0 -0.00153954 0)
(0 -0.0017104 0)
(0 -0.00164916 0)
(0 -0.00147229 0)
(0 -0.00158221 0)
(0 -0.00176094 0)
(0 -0.0016943 0)
(0 -0.00150916 0)
(0 -0.00162148 0)
(0 -0.00180876 0)
(0 -0.00173639 0)
(0 -0.00192565 0)
(0 -0.00185382 0)
(0 -0.00165803 0)
(0 -0.00177557 0)
(0 -0.00197353 0)
(0 -0.00189545 0)
(0 -0.00169032 0)
(0 -0.00181048 0)
(0 -0.00201778 0)
(0 -0.00193352 0)
(0 -0.0021422 0)
(0 -0.00205863 0)
(0 -0.00184296 0)
(0 -0.00196812 0)
(0 -0.00218495 0)
(0 -0.00209465 0)
(0 -0.00187073 0)
(0 -0.0019983 0)
(0 -0.00222398 0)
(0 -0.00212948 0)
(0 -0.00235611 0)
(0 -0.00226339 0)
(0 -0.00203051 0)
(0 -0.0021651 0)
(0 -0.00239683 0)
(0 -0.00229865 0)
(0 -0.00206024 0)
(0 -0.00219532 0)
(0 -0.00243322 0)
(0 -0.00233011 0)
(0 -0.00208295 0)
(0 -0.00221778 0)
(0 -0.00246486 0)
(0 -0.00235321 0)
(0 -0.00259915 0)
(0 -0.00248904 0)
(0 -0.00223699 0)
(0 -0.00237474 0)
(0 -0.00262499 0)
(0 -0.00251292 0)
(0 -0.00225624 0)
(0 -0.00239739 0)
(0 -0.00265285 0)
(0 -0.00254033 0)
(0 -0.00279346 0)
(0 -0.00268395 0)
(0 -0.00242476 0)
(0 -0.0025716 0)
(0 -0.00282576 0)
(0 -0.00271607 0)
(0 -0.00245251 0)
(0 -0.00259966 0)
(0 -0.00286068 0)
(0 -0.00274328 0)
(0 -0.00246938 0)
(0 -0.00261054 0)
(0 -0.00288144 0)
(0 -0.00274776 0)
(0 -0.00301534 0)
(0 -0.00288283 0)
(0 -0.00260805 0)
(0 -0.00274351 0)
(0 -0.00301595 0)
(0 -0.00287723 0)
(0 -0.00259766 0)
(0 -0.00273253 0)
(0 -0.00300946 0)
(0 -0.0028651 0)
(0 -0.00313642 0)
(0 -0.00299254 0)
(0 -0.00271591 0)
(0 -0.00284441 0)
(0 -0.00311385 0)
(0 -0.00296738 0)
(0 -0.00322817 0)
(0 -0.00308474 0)
(0 -0.00333753 0)
(0 -0.00319687 0)
(0 -0.00293792 0)
(0 -0.00305277 0)
(0 -0.00330235 0)
(0 -0.00316414 0)
(0 -0.00340333 0)
(0 -0.00327188 0)
(0 -0.0035005 0)
(0 -0.0033736 0)
(0 -0.00314307 0)
(0 -0.00324841 0)
(0 -0.00346833 0)
(0 -0.00334502 0)
(0 -0.00312324 0)
(0 -0.00322123 0)
(0 -0.0029955 0)
(0 -0.00309445 0)
(0 -0.00355486 0)
(0 -0.00286374 0)
(0 -0.00296257 0)
(0 -0.00318369 0)
(0 -0.00305296 0)
(0 -0.00282466 0)
(0 -0.00291537 0)
(0 -0.00275492 0)
(0 -0.00326429 0)
(0 -0.00279027 0)
(0 -0.00268128 0)
(0 -0.00277263 0)
(0 -0.00253323 0)
(0 -0.00262719 0)
(0 -0.00285647 0)
(0 -0.00271288 0)
(0 -0.00292892 0)
(0 -0.00278771 0)
(0 -0.00256973 0)
(0 -0.00264671 0)
(0 -0.00285401 0)
(0 -0.00271739 0)
(0 -0.00250698 0)
(0 -0.00258508 0)
(0 -0.00243429 0)
(0 -0.00236927 0)
(0 -0.00245633 0)
(0 -0.00291644 0)
(0 -0.00256598 0)
(0 -0.00481213 0)
(0 -0.000784128 0)
(0 -0.00190434 0)
(0 -0.00205227 0)
(0 -0.00362815 0)
(0 -0.00516309 0)
(0 -0.00341362 0)
(0 -0.00352043 0)
(0 -0.00223546 0)
(0 -0.00345675 0)
(0 -0.00356513 0)
(0 -0.00362431 0)
(0 -0.00367351 0)
(0 -0.00360449 0)
(0 -0.0037147 0)
(0 -0.00378417 0)
(0 -0.0038245 0)
(0 -0.0037485 0)
(0 -0.00385886 0)
(0 -0.00393319 0)
(0 -0.00396789 0)
(0 -0.00404046 0)
(0 -0.00407594 0)
(0 -0.00399822 0)
(0 -0.00410739 0)
(0 -0.00418313 0)
(0 -0.00421561 0)
(0 -0.00413482 0)
(0 -0.00424383 0)
(0 -0.00432203 0)
(0 -0.00435049 0)
(0 -0.00442616 0)
(0 -0.00445566 0)
(0 -0.0043751 0)
(0 -0.00448088 0)
(0 -0.00455848 0)
(0 -0.00458449 0)
(0 -0.00450137 0)
(0 -0.00460561 0)
(0 -0.00468619 0)
(0 -0.00470798 0)
(0 -0.00462111 0)
(0 -0.00472421 0)
(0 -0.00480784 0)
(0 -0.00482463 0)
(0 -0.00490506 0)
(0 -0.0049225 0)
(0 -0.00483615 0)
(0 -0.00493433 0)
(0 -0.00501721 0)
(0 -0.00502902 0)
(0 -0.00510791 0)
(0 -0.00512019 0)
(0 -0.00503694 0)
(0 -0.00512779 0)
(0 -0.00520731 0)
(0 -0.00521431 0)
(0 -0.00513026 0)
(0 -0.00521667 0)
(0 -0.00529635 0)
(0 -0.00529912 0)
(0 -0.00521423 0)
(0 -0.00529729 0)
(0 -0.00537725 0)
(0 -0.005376 0)
(0 -0.0054518 0)
(0 -0.00545189 0)
(0 -0.00537152 0)
(0 -0.00544903 0)
(0 -0.00552437 0)
(0 -0.00552262 0)
(0 -0.00544314 0)
(0 -0.00551776 0)
(0 -0.00559163 0)
(0 -0.00558602 0)
(0 -0.00565266 0)
(0 -0.00564655 0)
(0 -0.00557497 0)
(0 -0.00563628 0)
(0 -0.00570825 0)
(0 -0.00568927 0)
(0 -0.00561963 0)
(0 -0.00567001 0)
(0 -0.00573039 0)
(0 -0.00570941 0)
(0 -0.00576147 0)
(0 -0.00573717 0)
(0 -0.00568208 0)
(0 -0.00570701 0)
(0 -0.00575625 0)
(0 -0.00572272 0)
(0 -0.0057659 0)
(0 -0.0057301 0)
(0 -0.00564927 0)
(0 -0.00576852 0)
(0 -0.00573105 0)
(0 -0.00568976 0)
(0 -0.00569005 0)
(0 -0.00572642 0)
(0 -0.00568524 0)
(0 -0.00564712 0)
(0 -0.00564092 0)
(0 -0.00567341 0)
(0 -0.00562686 0)
(0 -0.00123177 0)
(0 -0.00127306 0)
(0 -0.00119245 0)
(0 -0.00138878 0)
(0 -0.00131569 0)
(0 -0.00143463 0)
(0 -0.00136213 0)
(0 -0.00124557 0)
(0 -0.00129235 0)
(0 -0.0011708 0)
(0 -0.00123013 0)
(0 -0.00134665 0)
(0 -0.00128419 0)
(0 -0.00117414 0)
(0 -0.00122378 0)
(0 -0.00112046 0)
(0 -0.00116572 0)
(0 -0.00106757 0)
(0 -0.00111628 0)
(0 -0.00117823 0)
(0 -0.000912447 0)
(0 -0.000929728 0)
(0 -0.00515121 0)
(0 -0.00580103 0)
(0 -0.00225716 0)
(0 -0.00286787 0)
(0 -0.00228066 0)
(0 -0.00330207 0)
(0 -0.00560307 0)
(0 -0.00141041 0)
(0 -0.00213966 0)
(0 -0.00347219 0)
(0 -0.00219744 0)
(0 -0.00239291 0)
(0 -0.00199992 0)
(0 -0.00565418 0)
(0 -0.00560553 0)
(0 -0.003376 0)
(0 -0.00332639 0)
(0 -0.00338988 0)
(0 -0.00333117 0)
(0 -0.00338746 0)
(0 -0.00332208 0)
(0 -0.00337433 0)
(0 -0.00330253 0)
(0 -0.00334762 0)
(0 -0.0032722 0)
(0 -0.00331222 0)
(0 -0.00323108 0)
(0 -0.00323107 0)
(0 -0.00327276 0)
(0 -0.00318295 0)
(0 -0.0032264 0)
(0 -0.00331994 0)
(0 -0.0032746 0)
(0 -0.00337096 0)
(0 -0.00332485 0)
(0 -0.00342317 0)
(0 -0.00337698 0)
(0 -0.00347742 0)
(0 -0.00343365 0)
(0 -0.00353307 0)
(0 -0.00348877 0)
(0 -0.00358908 0)
(0 -0.00354508 0)
(0 -0.00364659 0)
(0 -0.00359999 0)
(0 -0.00370328 0)
(0 -0.00365213 0)
(0 -0.00375883 0)
(0 -0.00371018 0)
(0 -0.00381751 0)
(0 -0.00377109 0)
(0 -0.00387913 0)
(0 -0.00383339 0)
(0 -0.00394214 0)
(0 -0.00389678 0)
(0 -0.00400588 0)
(0 -0.00396107 0)
(0 -0.00317458 0)
(0 -0.00332587 0)
(0 -0.00353653 0)
(0 -0.00407275 0)
(0 -0.00402809 0)
(0 -0.00371809 0)
(0 -0.00389431 0)
(0 -0.00397987 0)
(0 -0.00385679 0)
(0 -0.00414097 0)
(0 -0.00369449 0)
(0 -0.00386066 0)
(0 -0.00393373 0)
(0 -0.00417794 0)
(0 -0.00424839 0)
(0 -0.00381091 0)
(0 -0.00388424 0)
(0 -0.00400968 0)
(0 -0.00428004 0)
(0 -0.00435211 0)
(0 -0.00396025 0)
(0 -0.00408735 0)
(0 -0.00352057 0)
(0 -0.00329586 0)
(0 -0.00217352 0)
(0 -0.00327353 0)
(0 -0.00496648 0)
(0 -0.00383062 0)
(0 -0.00390693 0)
(0 -0.00101867 0)
(0 -0.000826254 0)
(0 -0.000842549 0)
(0 -0.000809 0)
(0 -0.00198153 0)
(0 -0.00111862 0)
(0 -0.00108118 0)
(0 -0.00176025 0)
(0 -0.00387189 0)
(0 -0.00200032 0)
(0 -0.00342556 0)
(0 -0.00111287 0)
(0 -0.00562866 0)
(0 -0.00567751 0)
(0 -0.00557691 0)
(0 -0.00555389 0)
(0 -0.0034679 0)
(0 -0.00437582 0)
(0 -0.00430569 0)
(0 -0.00444979 0)
(0 -0.00442775 0)
(0 -0.00233862 0)
(0 -0.00252744 0)
(0 -0.00201288 0)
(0 -0.0055228 0)
(0 -0.00549968 0)
(0 -0.00189434 0)
(0 -0.000737825 0)
(0 -0.000753185 0)
(0 -0.00309933 0)
(0 -0.00374411 0)
(0 -0.00377378 0)
(0 -0.00210048 0)
(0 -0.00185894 0)
(0 -0.001896 0)
(0 -0.00101094 0)
(0 -0.000981274 0)
(0 -0.0016151 0)
(0 -0.00157728 0)
(0 -0.00385312 0)
(0 -0.00452643 0)
(0 -0.00450579 0)
(0 -0.00439383 0)
(0 -0.00432335 0)
(0 -0.00466508 0)
(0 -0.00247748 0)
(0 -0.00265726 0)
(0 -0.00267889 0)
(0 -0.00261004 0)
(0 -0.00270543 0)
(0 -0.00264075 0)
(0 -0.00273828 0)
(0 -0.00267269 0)
(0 -0.00277276 0)
(0 -0.002706 0)
(0 -0.00280915 0)
(0 -0.0027416 0)
(0 -0.0026338 0)
(0 -0.00266919 0)
(0 -0.00277922 0)
(0 -0.00270717 0)
(0 -0.00281743 0)
(0 -0.00274673 0)
(0 -0.00285843 0)
(0 -0.00278756 0)
(0 -0.00290224 0)
(0 -0.00282971 0)
(0 -0.00294373 0)
(0 -0.00287533 0)
(0 -0.00299044 0)
(0 -0.00292454 0)
(0 -0.00303883 0)
(0 -0.00297339 0)
(0 -0.0030877 0)
(0 -0.00302294 0)
(0 -0.00314318 0)
(0 -0.00307614 0)
(0 -0.00559593 0)
(0 -0.00200732 0)
(0 -0.00208089 0)
(0 -0.00064712 0)
(0 -0.000661696 0)
(0 -0.00320245 0)
(0 -0.00313567 0)
(0 -0.00104714 0)
(0 -0.000950256 0)
(0 -0.00269655 0)
(0 -0.00281587 0)
(0 -0.00277834 0)
(0 -0.00195291 0)
(0 -0.0017112 0)
(0 -0.00301836 0)
(0 -0.00263012 0)
(0 -0.000919415 0)
(0 -0.000942268 0)
(0 -0.00546696 0)
(0 -0.00544467 0)
(0 -0.00547191 0)
(0 -0.00236617 0)
(0 -0.00254008 0)
(0 -0.00314624 0)
(0 -0.00416539 0)
(0 -0.00172694 0)
(0 -0.00316772 0)
(0 -0.00181853 0)
(0 -0.00440478 0)
(0 -0.00433303 0)
(0 -0.00369782 0)
(0 -0.0036386 0)
(0 -0.00356703 0)
(0 -0.00548338 0)
(0 -0.00304763 0)
(0 -0.00310042 0)
(0 -0.00322286 0)
(0 -0.0032656 0)
(0 -0.00314852 0)
(0 -0.00337835 0)
(0 -0.00330322 0)
(0 -0.00318945 0)
(0 -0.00333406 0)
(0 -0.00322131 0)
(0 -0.00210615 0)
(0 -0.00218028 0)
(0 -0.0020297 0)
(0 -0.00579873 0)
(0 -0.0058289 0)
(0 -0.00582233 0)
(0 -0.00584993 0)
(0 -0.00585487 0)
(0 -0.00583876 0)
(0 -0.00371633 0)
(0 -0.00383927 0)
(0 -0.00391982 0)
(0 -0.00403848 0)
(0 -0.00411015 0)
(0 -0.00422779 0)
(0 -0.00428528 0)
(0 -0.0041528 0)
(0 -0.00416932 0)
(0 -0.0043321 0)
(0 -0.00421804 0)
(0 -0.00436883 0)
(0 -0.00425671 0)
(0 -0.00439618 0)
(0 -0.00428645 0)
(0 -0.00414564 0)
(0 -0.00417781 0)
(0 -0.00403565 0)
(0 -0.00407098 0)
(0 -0.00420554 0)
(0 -0.00410194 0)
(0 -0.00396488 0)
(0 -0.00399965 0)
(0 -0.00386212 0)
(0 -0.00389686 0)
(0 -0.00376024 0)
(0 -0.00543448 0)
(0 -0.00193623 0)
(0 -0.00520826 0)
(0 -0.00209125 0)
(0 -0.00232981 0)
(0 -0.00327464 0)
(0 -0.0048437 0)
(0 -0.00344242 0)
(0 -0.0031424 0)
(0 -0.00326933 0)
(0 -0.00338734 0)
(0 -0.00350722 0)
(0 -0.00361392 0)
(0 -0.00373215 0)
(0 -0.00289972 0)
(0 -0.00213399 0)
(0 -0.00559911 0)
(0 -0.00396443 0)
(0 -0.0027035 0)
(0 -0.00415806 0)
(0 -0.00303753 0)
(0 -0.00313686 0)
(0 -0.00327149 0)
(0 -0.00196375 0)
(0 -0.00577943 0)
(0 -0.00377776 0)
(0 -0.00148577 0)
(0 -0.00155967 0)
(0 -0.00161455 0)
(0 -0.00168889 0)
(0 -0.00283607 0)
(0 -0.00293002 0)
(0 -0.00306054 0)
(0 -0.00544743 0)
(0 -0.0055183 0)
(0 -0.00550984 0)
(0 -0.00557712 0)
(0 -0.00556515 0)
(0 -0.00562798 0)
(0 -0.0056389 0)
(0 -0.00568482 0)
(0 -0.00569503 0)
(0 -0.00244292 0)
(0 -0.00257502 0)
(0 -0.00265353 0)
(0 -0.00278404 0)
(0 -0.00176764 0)
(0 -0.0048816 0)
(0 -0.00497619 0)
(0 -0.00494694 0)
(0 -0.00503875 0)
(0 -0.00500472 0)
(0 -0.00509275 0)
(0 -0.00439241 0)
(0 -0.0044936 0)
(0 -0.00445483 0)
(0 -0.0045533 0)
(0 -0.00450938 0)
(0 -0.00399998 0)
(0 -0.00410527 0)
(0 -0.00405764 0)
(0 -0.00416446 0)
(0 -0.00221877 0)
(0 -0.00234345 0)
(0 -0.00241114 0)
(0 -0.00253352 0)
(0 -0.00199082 0)
(0 -0.0023942 0)
(0 -0.00170444 0)
(0 -0.00110404 0)
(0 -0.00159869 0)
(0 -0.00210917 0)
(0 -0.00216689 0)
(0 -0.00228647 0)
(0 -0.00181383 0)
(0 -0.0018565 0)
(0 -0.00196741 0)
(0 -0.00200345 0)
(0 -0.00463185 0)
(0 -0.000892083 0)
(0 -0.00150202 0)
(0 -0.00160431 0)
(0 -0.00162956 0)
(0 -0.00173364 0)
(0 -0.00175261 0)
(0 -0.00185907 0)
(0 -0.00187277 0)
(0 -0.00176648 0)
(0 -0.00187992 0)
(0 -0.00177546 0)
(0 -0.00188279 0)
(0 -0.00177924 0)
(0 -0.00143004 0)
(0 -0.00307169 0)
(0 -0.00122374 0)
(0 -0.00220598 0)
(0 -0.00260934 0)
(0 -0.00237971 0)
(0 -0.0024466 0)
(0 -0.00123313 0)
(0 -0.00109798 0)
(0 -0.00305192 0)
(0 -0.00351632 0)
(0 -0.00287003 0)
(0 -0.002985 0)
(0 -0.00296608 0)
(0 -0.000751922 0)
(0 -0.000687972 0)
(0 -0.000657747 0)
(0 -0.000592601 0)
(0 -0.000564423 0)
(0 -0.000620156 0)
(0 -0.000523512 0)
(0 -0.00054849 0)
(0 -0.00515177 0)
(0 -0.00324026 0)
(0 -0.00499039 0)
(0 -0.000856482 0)
(0 -0.00294 0)
(0 -0.00112451 0)
(0 -0.00105725 0)
(0 -0.000961561 0)
(0 -0.000889073 0)
(0 -0.000626699 0)
(0 -0.000535544 0)
(0 -0.000594782 0)
(0 -0.000506027 0)
(0 -0.000562156 0)
(0 -0.000476105 0)
(0 -0.000528982 0)
(0 -0.000445809 0)
(0 -0.000495379 0)
(0 -0.000415293 0)
(0 -0.000461439 0)
(0 -0.000384651 0)
(0 -0.000427274 0)
(0 -0.000354015 0)
(0 -0.000392978 0)
(0 -0.000464698 0)
(0 -0.000426657 0)
(0 -0.000358731 0)
(0 -0.000388531 0)
(0 -0.000324614 0)
(0 -0.000350401 0)
(0 -0.000412856 0)
(0 -0.000370616 0)
(0 -0.000431774 0)
(0 -0.000385371 0)
(0 -0.00032851 0)
(0 -0.000339075 0)
(0 -0.000394623 0)
(0 -0.000286679 0)
(0 -0.00034413 0)
(0 -0.00039845 0)
(0 -0.000343722 0)
(0 -0.000396938 0)
(0 -0.000337968 0)
(0 -0.000390163 0)
(0 -0.000289277 0)
(0 -0.00045346 0)
(0 -0.000445667 0)
(0 -0.000378149 0)
(0 -0.000432588 0)
(0 -0.000360872 0)
(0 -0.000414273 0)
(0 -0.000490262 0)
(0 -0.000471035 0)
(0 -0.000390791 0)
(0 -0.000447076 0)
(0 -0.00045331 0)
(0 -0.000478002 0)
(0 -0.000513158 0)
(0 -0.000290675 0)
(0 -0.00232523 0)
(0 -0.000999774 0)
(0 -0.000631753 0)
(0 -0.000962124 0)
(0 -0.000878896 0)
(0 -0.000836139 0)
(0 -0.000757029 0)
(0 -0.000709438 0)
(0 -0.000633952 0)
(0 -0.00366624 0)
(0 -0.00368999 0)
(0 -0.00357731 0)
(0 -0.00359488 0)
(0 -0.00348163 0)
(0 -0.00370852 0)
(0 -0.00360772 0)
(0 -0.00372227 0)
(0 -0.000928705 0)
(0 -0.00179461 0)
(0 -0.00252185 0)
(0 -0.00132005 0)
(0 -0.00123456 0)
(0 -0.00112699 0)
(0 -0.0010357 0)
(0 -0.00198623 0)
(0 -0.000540037 0)
(0 -0.00425527 0)
(0 -0.00081426 0)
(0 -0.00148127 0)
(0 -0.00138305 0)
(0 -0.00320862 0)
(0 -0.00164188 0)
(0 -0.00153229 0)
(0 -0.00140825 0)
(0 -0.00129342 0)
(0 -0.00452701 0)
(0 -0.0045327 0)
(0 -0.00442575 0)
(0 -0.00442561 0)
(0 -0.00431659 0)
(0 -0.00403718 0)
(0 -0.00141859 0)
(0 -0.00480207 0)
(0 -0.0036745 0)
(0 -0.00512136 0)
(0 -0.00511093 0)
(0 -0.00502051 0)
(0 -0.00500527 0)
(0 -0.0049117 0)
(0 -0.00489159 0)
(0 -0.00498631 0)
(0 -0.00491359 0)
(0 -0.00496645 0)
(0 -0.00182956 0)
(0 -0.00170421 0)
(0 -0.00157048 0)
(0 -0.00143962 0)
(0 -0.0029233 0)
(0 -0.00539582 0)
(0 -0.00199125 0)
(0 -0.00186218 0)
(0 -0.0055417 0)
(0 -0.00551976 0)
(0 -0.00545625 0)
(0 -0.00543092 0)
(0 -0.00536311 0)
(0 -0.00533335 0)
(0 -0.00539988 0)
(0 -0.00424767 0)
(0 -0.00416506 0)
(0 -0.000788748 0)
(0 -0.00117111 0)
(0 -0.00121651 0)
(0 -0.00589718 0)
(0 -0.00218597 0)
(0 -0.00203957 0)
(0 -0.00189443 0)
(0 -0.00174123 0)
(0 -0.00159588 0)
(0 -0.00346466 0)
(0 -0.00549757 0)
(0 -0.00290283 0)
(0 -0.0012624 0)
(0 -0.00231016 0)
(0 -0.00215308 0)
(0 -0.0042867 0)
(0 -0.00117753 0)
(0 -0.000945588 0)
(0 -0.00587947 0)
(0 -0.00589153 0)
(0 -0.00554936 0)
(0 -0.0054821 0)
(0 -0.00398687 0)
(0 -0.00393614 0)
(0 -0.0040712 0)
(0 -0.00560397 0)
(0 -0.00555917 0)
(0 -0.00555443 0)
(0 -0.0055084 0)
(0 -0.00549769 0)
(0 -0.00274424 0)
(0 -0.00541685 0)
(0 -0.00126849 0)
(0 -0.00116375 0)
(0 -0.000984543 0)
(0 -0.00475271 0)
(0 -0.00431767 0)
(0 -0.00453814 0)
(0 -0.00174612 0)
(0 -0.00182164 0)
(0 -0.00445356 0)
(0 -0.00436828 0)
(0 -0.00427762 0)
(0 -0.00482486 0)
(0 -0.00516051 0)
(0 -0.00515379 0)
(0 -0.000279385 0)
(0 -0.000235391 0)
(0 -0.00167511 0)
(0 -0.00152378 0)
(0 -0.00142597 0)
(0 -0.00492789 0)
(0 -0.00171929 0)
(0 -0.00158444 0)
(0 -0.00144276 0)
(0 -0.00292212 0)
(0 -0.00174865 0)
(0 -0.00071443 0)
(0 -0.00068429 0)
(0 -0.00586962 0)
(0 -0.00587814 0)
(0 -0.00589883 0)
(0 -0.00233058 0)
(0 -0.00373916 0)
(0 -0.00201457 0)
(0 -0.00185237 0)
(0 -0.001712 0)
(0 -0.00495326 0)
(0 -0.00454162 0)
(0 -0.00161802 0)
(0 -0.00288771 0)
(0 -0.00275057 0)
(0 -0.00525328 0)
(0 -0.00543913 0)
(0 -0.00159935 0)
(0 -0.00177358 0)
(0 -0.00288405 0)
(0 -0.00449965 0)
(0 -0.00322131 0)
(0 -0.0041342 0)
(0 -0.00413773 0)
(0 -0.00391716 0)
(0 -0.000613927 0)
(0 -0.000578787 0)
(0 -0.00051286 0)
(0 -0.00398135 0)
(0 -0.000797141 0)
(0 -0.000868988 0)
(0 -0.00284317 0)
(0 -0.0035224 0)
(0 -0.00379455 0)
(0 -0.00367066 0)
(0 -0.00215779 0)
(0 -0.00587436 0)
(0 -0.00279475 0)
(0 -0.00105239 0)
(0 -0.00130581 0)
(0 -0.00460592 0)
(0 -0.00458667 0)
(0 -0.002557 0)
(0 -0.000472691 0)
(0 -0.00431219 0)
(0 -0.00442127 0)
(0 -0.00418715 0)
(0 -0.0042885 0)