/*--------------------------------*- C++ -*----------------------------------*\
| =========                 |                                                 |
| \\      /  F ield         | OpenFOAM: The Open Source CFD Toolbox           |
|  \\    /   O peration     | Version:  v2012                                 |
|   \\  /    A nd           | Website:  www.openfoam.com                      |
|    \\/     M anipulation  |                                                 |
\*---------------------------------------------------------------------------*/
FoamFile
{
    version     2.0;
    format      ascii;
    class       surfaceVectorField;
    location    "700";
    object      Uf_0;
}
// * * * * * * * * * * * * * * * * * * * * * * * * * * * * * * * * * * * * * //

dimensions      [0 1 -1 0 0 0 0];


internalField   nonuniform List<vector> 
14516
(
(1.03066 0.0815502 -5.03858e-22)
(1.01567 0.08183 -2.75464e-21)
(1.02536 0.0652124 -6.05461e-21)
(0.933798 -0.00364123 6.12086e-22)
(0.92966 0.00641548 9.52312e-22)
(0.941254 0.00438311 -1.75361e-22)
(1.0507 0.0787168 -6.86446e-21)
(1.04443 0.101101 9.86349e-21)
(1.01479 0.000213889 -7.82498e-23)
(1.01476 0.000253829 2.56089e-22)
(1.01473 0.000209047 -1.50965e-22)
(0.727744 0.0896006 0)
(0.74727 0.154989 -2.11437e-20)
(0.731968 -0.0425496 0)
(1.00055 -0.00231526 -2.23027e-21)
(1.0018 -0.00319122 -3.99708e-23)
(1.00213 -0.00152534 1.24485e-21)
(1.01285 -7.41805e-05 1.81069e-23)
(1.01361 -0.000248753 0)
(1.01425 -0.000322319 6.25446e-22)
(1.01781 -0.000877722 4.08185e-22)
(1.01755 -0.000800967 2.13216e-24)
(1.01771 -0.000694612 0)
(1.02118 0.000404914 -2.23872e-24)
(1.02127 0.000669622 -2.02345e-22)
(1.02159 0.000333898 -8.55299e-23)
(0.728889 0.169109 0)
(0.718928 0.0243075 -5.98167e-22)
(1.03361 -0.0265164 2.42885e-22)
(1.03518 -0.0276415 1.75126e-21)
(1.03518 -0.0251986 1.04334e-21)
(0.912128 0.0380707 0)
(0.896826 0.0360118 0)
(0.898304 0.0499057 -2.05721e-21)
(1.01475 0.0001264 -9.80422e-23)
(1.01486 0.000195245 -4.27247e-22)
(1.01002 -0.000917861 3.78565e-22)
(1.01013 -0.0015571 2.32241e-22)
(1.01045 -0.00125178 7.72418e-23)
(1.00673 -8.95351e-05 6.50925e-23)
(1.00678 -1.9845e-05 6.21031e-22)
(1.00997 -0.00030488 -7.1736e-22)
(1.00997 0.000300214 -1.16312e-21)
(1.01036 -0.000103971 -8.29151e-22)
(1.01999 0.00392224 0)
(1.01924 0.00365558 1.55902e-24)
(1.01983 0.00335291 -5.57703e-24)
(1.02077 0.00413263 0)
(1.02009 0.00464185 0)
(1.31327 -0.136986 -1.67408e-20)
(1.31961 -0.0428536 4.38308e-20)
(1.28387 -0.168849 2.88287e-20)
(1.00953 -0.000566148 3.82647e-22)
(0.933287 -0.109935 -1.14154e-21)
(0.942457 -0.125917 -1.33401e-21)
(0.950496 -0.110248 0)
(1.02342 -0.00895831 9.472e-22)
(1.02397 -0.00870779 6.66515e-22)
(1.02334 -0.00834062 1.58298e-22)
(1.05339 -0.0167842 -1.39762e-21)
(1.05494 -0.0145315 -5.17693e-22)
(1.06502 -0.0124438 -3.17477e-21)
(1.01959 0.00210265 0)
(1.0195 0.00205772 6.49049e-25)
(1.0281 0.0126817 6.78748e-23)
(1.02729 0.0142768 1.56409e-21)
(1.02974 0.0143324 -2.43492e-23)
(1.01452 0.000110735 5.07106e-22)
(1.01456 9.73674e-05 4.01904e-22)
(1.00935 0.0018508 2.71517e-22)
(1.00918 0.00120332 1.32044e-21)
(1.00872 0.00175678 -3.55112e-22)
(1.01755 0.00199626 1.4822e-22)
(1.01725 0.00209292 0)
(1.01723 0.00168885 0)
(1.01401 -0.0151287 -1.24614e-21)
(1.01672 -0.0154728 -4.5029e-22)
(1.01533 -0.013149 6.54889e-22)
(1.02076 0.000484527 0)
(1.02105 0.000166792 -1.24757e-22)
(0.969972 0.00480775 6.14885e-21)
(0.966824 0.00403899 3.63367e-21)
(0.970214 0.000793487 7.33421e-21)
(1.0509 -0.0192536 -1.64731e-21)
(1.04279 -0.0202151 -5.94368e-22)
(0.8622 0.0530778 1.14307e-20)
(0.853705 0.0781565 2.44941e-21)
(0.830749 0.0572509 1.14313e-21)
(1.00994 -0.000139719 -1.45598e-22)
(1.00984 -0.000166828 -6.64886e-24)
(1.00723 -8.03545e-05 4.84978e-24)
(1.01118 -0.0141244 -2.38801e-21)
(1.00815 -0.0127549 -1.19231e-21)
(1.01017 -0.0105226 -3.71556e-21)
(0.919131 -0.168106 -4.53574e-21)
(0.931477 -0.19132 3.20431e-21)
(0.90239 -0.190053 1.12896e-21)
(1.01189 -7.89048e-05 1.8787e-23)
(1.01017 3.69569e-05 -6.08948e-22)
(1.02343 -0.00960057 -1.04229e-21)
(1.02275 -0.00917238 2.35482e-22)
(1.01934 -0.00140245 -1.04851e-21)
(1.01973 -0.0016582 6.90717e-22)
(1.01976 -0.00129381 4.66818e-22)
(1.01403 -0.000241743 0)
(1.01358 -0.000242561 1.58968e-22)
(1.01448 -0.000213008 -2.12499e-22)
(0.973855 0.00574667 -3.18141e-21)
(0.970611 0.00957243 -4.9024e-21)
(1.01001 -4.61114e-05 9.4313e-23)
(1.00629 -0.000106833 -3.78695e-22)
(1.01331 -7.57815e-05 -4.56037e-22)
(1.014 0.000116161 3.14409e-22)
(1.01347 -6.15929e-05 1.0177e-22)
(1.0135 -0.000234192 0)
(1.01272 -0.000282001 -1.7856e-23)
(1.01424 -0.000171983 0)
(1.01121 -4.96424e-05 1.2808e-22)
(1.01319 -4.41023e-06 3.91204e-23)
(1.01449 0.000147822 -7.05298e-22)
(1.0126 -0.0178965 2.79905e-21)
(1.02827 -0.0134929 3.88189e-22)
(1.0302 -0.0151219 -3.33251e-21)
(1.02298 -0.0126762 -2.43717e-21)
(0.928993 0.0567626 4.162e-21)
(0.931646 0.045469 4.75683e-21)
(0.938674 0.052246 -3.55733e-21)
(1.01471 0.000298052 0)
(1.01476 0.000288082 0)
(1.00389 -0.0120731 0)
(1.00601 -0.0167435 0)
(1.02906 -0.0319647 0)
(1.03191 -0.0324483 -7.4672e-22)
(1.03049 -0.0296143 -2.70674e-22)
(1.00396 -0.00697784 -7.12395e-22)
(1.00259 -0.00666156 1.27977e-21)
(1.00311 -0.00834547 -1.89195e-21)
(1.02069 -0.00234714 -1.74572e-22)
(1.02038 -0.00218005 -5.71338e-22)
(1.02035 -0.00240509 -1.26962e-21)
(0.94708 -0.0955353 -4.51849e-21)
(0.954663 -0.11493 2.11266e-21)
(0.962874 -0.0920634 -6.05958e-21)
(0.748543 -0.0958909 -7.51403e-21)
(0.708266 -0.111136 -1.88416e-21)
(0.709187 -0.0636934 6.9551e-22)
(1.01663 0.00132178 -2.84566e-22)
(1.01634 0.00130845 -5.11765e-22)
(1.05624 -0.0152424 0)
(1.05135 -0.0141237 7.3071e-22)
(1.05221 -0.0184732 2.67214e-22)
(0.886919 -0.155308 2.13781e-21)
(0.929349 -0.197331 0)
(0.913457 -0.192394 4.74421e-21)
(1.01905 -0.00122114 -1.07016e-21)
(1.01903 -0.00141031 -1.04293e-21)
(1.01206 -0.000250781 1.52776e-22)
(1.01138 -0.000116054 2.16883e-22)
(1.01298 -0.000309278 0)
(1.00777 -0.010077 -1.28204e-21)
(1.00656 -0.0100443 1.56473e-21)
(1.00736 -0.0115026 7.94716e-23)
(0.882602 -0.0312788 2.27243e-20)
(0.892455 -0.0559262 3.27156e-21)
(0.906306 -0.0375471 5.55293e-21)
(1.0129 -6.4255e-05 -3.37792e-24)
(1.01353 -7.07334e-05 0)
(1.01277 -7.85187e-05 -1.11361e-21)
(0.779363 -0.37159 8.82757e-21)
(0.755277 -0.287982 -3.94903e-21)
(0.922355 0.0225059 0)
(0.914334 0.0429666 2.28321e-23)
(0.935984 0.0374545 -1.19984e-21)
(0.880952 0.00034336 -2.73478e-21)
(0.860486 0.00360296 -3.16774e-21)
(0.884033 0.0192423 0)
(0.890839 0.0365666 -5.17528e-22)
(0.871783 0.0494303 0)
(0.924242 0.0363913 -2.49543e-21)
(0.922275 0.0279857 -1.03572e-22)
(1.0317 -0.0271695 -1.90114e-22)
(1.03239 -0.0244912 1.96965e-22)
(0.925498 -0.0996735 1.01494e-21)
(0.940853 -0.0760377 2.79258e-21)
(1.01502 0.000187593 5.70693e-24)
(1.0155 0.000256359 3.02661e-25)
(1.01643 0.000422376 3.50745e-22)
(1.01387 0.00121941 0)
(1.01376 0.00108473 -1.08583e-21)
(1.01374 0.00131022 -1.31261e-23)
(0.998604 -0.0132478 -1.21519e-22)
(1.00259 -0.0117608 -2.46149e-23)
(1.00202 -0.0162956 4.47226e-22)
(1.0008 -0.00837224 -3.39202e-21)
(0.998322 -0.0128827 0)
(0.844414 -0.0812576 2.21869e-21)
(0.864245 -0.113334 7.89424e-21)
(1.0168 0.00118077 4.41778e-22)
(1.01696 0.00102501 -3.93975e-22)
(1.01662 0.00104227 1.16757e-22)
(1.01979 0.00125306 2.9972e-22)
(1.01958 0.00150277 8.28075e-23)
(1.01966 0.00106116 5.61735e-23)
(1.01312 0.00015104 -3.51026e-22)
(1.01336 -0.000344099 -3.65697e-22)
(1.01368 0.000163607 2.65398e-22)
(1.01632 0.00224206 1.65777e-22)
(1.01606 0.00183539 0)
(1.01654 0.00197323 -1.17252e-22)
(0.909028 0.0103604 1.77182e-22)
(0.932586 0.0057368 0)
(1.01328 -0.00224985 -1.87438e-22)
(1.01371 -0.00268867 -2.90312e-23)
(1.01383 -0.00196213 2.53833e-24)
(0.907423 0.00677438 -1.35705e-21)
(0.904254 0.0140396 2.20453e-22)
(0.896814 0.00611324 4.05594e-22)
(1.01217 -0.0153682 -6.63727e-23)
(1.01352 -0.0141942 2.94493e-21)
(1.01083 -0.0141574 -3.49548e-22)
(0.977669 0.00608217 -1.18711e-23)
(0.977246 0.00224678 1.27618e-22)
(1.02214 -0.0124714 -3.24764e-22)
(1.02519 -0.01273 2.43729e-21)
(1.0178 -0.0118506 -3.69005e-21)
(1.01604 0.0025947 2.75189e-23)
(1.01663 0.00271227 5.61484e-23)
(1.0171 0.000881528 -5.30924e-24)
(1.01721 0.000721958 4.65509e-22)
(1.0169 0.00075251 2.02904e-23)
(1.00826 -0.00889192 -1.63008e-22)
(1.00882 -0.00776003 6.16728e-22)
(1.00782 -0.00752584 7.75989e-22)
(1.01429 -0.00466216 1.83049e-22)
(1.01368 -0.00426415 -1.22672e-22)
(1.01375 -0.0052467 6.54601e-23)
(0.92689 -0.0117868 2.92306e-21)
(0.938346 -0.0130688 7.92605e-21)
(0.899814 -0.295693 8.60964e-22)
(0.856368 -0.315846 5.47873e-21)
(0.866321 -0.268886 -4.84915e-21)
(1.01732 -0.00338822 -1.07968e-22)
(1.01763 -0.00356542 1.48089e-22)
(1.01732 -0.00364335 2.86214e-23)
(1.04886 -0.0207147 1.26264e-21)
(1.06214 -0.0170474 -7.49086e-22)
(1.00897 -0.0100694 -8.28026e-22)
(1.01389 -0.017247 2.69367e-22)
(1.01241 -0.0158276 1.46423e-21)
(0.788536 -0.0817879 2.1589e-21)
(0.785954 -0.114684 -2.97567e-22)
(0.918923 0.0071752 -5.35899e-23)
(0.910807 -0.00244203 -6.57245e-22)
(1.01731 -0.00315225 -3.65284e-23)
(1.01703 -0.00324296 1.06168e-23)
(1.01499 -0.00298261 6.60286e-23)
(1.01521 -0.00319862 6.72137e-23)
(1.01511 -0.00292059 -3.81205e-22)
(1.01485 -0.00307884 -2.05118e-22)
(1.01475 -0.00278954 1.99136e-22)
(1.01761 -0.00700663 -4.12442e-22)
(1.0169 -0.00702955 -2.19711e-23)
(1.01748 -0.00791855 6.77399e-22)
(1.01728 -0.00070212 -3.08324e-22)
(1.01743 -0.000838861 -5.51037e-23)
(1.0175 -0.000651034 -1.33772e-22)
(1.01707 -0.000743846 -1.05341e-22)
(1.01714 -0.000590749 -1.65934e-22)
(1.01987 0.00146707 -6.79023e-23)
(1.01998 0.00104663 -1.02181e-23)
(0.981045 0.00629544 -2.28947e-22)
(0.978237 0.00981153 1.24969e-22)
(1.00955 -0.00710043 3.2346e-21)
(1.00977 -0.00815901 1.15691e-21)
(1.01197 -7.29481e-05 9.50325e-22)
(1.01258 -0.000217876 -1.29249e-22)
(1.01343 -0.000242538 -5.00968e-22)
(1.00489 -0.00578924 7.40239e-22)
(1.00535 -0.00717815 -3.1655e-21)
(1.02947 -0.0207793 -4.9838e-22)
(1.02643 -0.0204735 5.33085e-23)
(1.02585 -0.0162249 5.22452e-23)
(1.01472 0.000205282 -4.87622e-24)
(1.01331 4.61125e-05 2.04575e-23)
(0.892797 -0.0670979 -1.88459e-21)
(0.895394 -0.0506206 8.79553e-21)
(0.875849 -0.0568719 -9.99561e-21)
(1.01531 0.00124658 -7.16036e-22)
(1.01553 0.00123701 -5.72822e-22)
(0.746323 -0.251989 -2.08566e-21)
(0.728404 -0.20871 5.95706e-21)
(0.699135 -0.238058 9.1645e-21)
(1.02593 -0.0313461 2.67202e-21)
(1.02688 -0.0347776 -2.22371e-21)
(1.01698 0.00131212 3.04797e-22)
(0.896431 0.0998289 3.40607e-21)
(0.896547 0.121283 -2.01894e-22)
(0.921562 0.10652 -1.97334e-22)
(0.997273 -0.00460627 1.93089e-21)
(1.00325 -0.00425113 -6.37718e-21)
(1.01285 -0.00169549 0)
(1.01268 -0.00249486 9.98596e-23)
(1.03791 -0.0227233 -1.29632e-21)
(1.04627 -0.0214413 7.55774e-22)
(1.03222 -0.0208148 1.58444e-21)
(1.03426 -0.0258704 -2.41285e-22)
(1.00906 0.000138706 2.27476e-23)
(1.00549 3.58807e-05 1.4272e-23)
(1.00567 3.20415e-05 2.90642e-23)
(1.0159 -0.000281381 -6.65274e-22)
(1.01608 -0.000368562 0)
(1.01605 -0.000269184 9.89334e-22)
(0.999329 -0.00109805 -1.36631e-21)
(0.998879 -0.0029601 -2.62234e-22)
(1.02296 -0.00373289 6.03822e-22)
(1.02294 -0.00400324 5.96999e-22)
(1.02259 -0.0037179 -1.60431e-22)
(0.915137 -0.10874 2.00268e-21)
(0.92795 -0.0953312 -1.13776e-21)
(1.03725 -0.0172607 -2.01598e-22)
(1.03767 -0.016814 -4.06753e-22)
(1.03689 -0.0165916 0)
(1.01844 -0.0125533 -3.45592e-21)
(1.02731 -0.0138795 -2.6164e-22)
(1.01286 0.000748042 -1.69833e-22)
(1.01249 0.000188413 0)
(1.01413 0.00010108 -1.83549e-22)
(1.01418 2.36412e-05 -2.14596e-21)
(1.01415 0.000164898 -2.07887e-22)
(1.01314 0.000140016 -1.91937e-22)
(1.01255 0.000162242 -2.62813e-22)
(1.01457 0.000208715 -1.29267e-22)
(1.01729 0.00100587 2.6619e-22)
(1.01409 0.000142199 9.03374e-22)
(1.01413 1.17518e-06 1.54974e-21)
(1.02145 -0.00941506 7.54102e-22)
(1.02249 -0.009958 0)
(1.02214 -0.00873686 0)
(1.0204 0.000550015 0)
(1.02054 0.000770045 -7.40064e-23)
(1.01733 0.000564867 4.7854e-22)
(1.01745 0.000388432 4.5138e-22)
(1.01714 0.000447017 8.33395e-23)
(1.01124 -3.53846e-05 2.80257e-25)
(1.01293 -4.8717e-05 -2.97238e-24)
(1.01295 -0.000108627 -4.69244e-22)
(1.01423 -0.000259009 -7.5354e-22)
(1.01521 0.00110515 -2.99272e-22)
(1.01506 0.0012163 1.75195e-22)
(1.0146 0.000777998 2.13286e-22)
(1.0147 0.000888532 -2.44307e-22)
(1.01454 0.000801183 2.30469e-22)
(1.01575 -0.000283608 -6.43142e-22)
(1.01571 -0.000196401 4.58147e-23)
(1.02942 0.00965854 -4.1653e-22)
(1.02894 0.0111869 -1.38003e-21)
(1.03107 0.0107629 -5.24351e-22)
(1.01519 -7.37967e-05 -1.08381e-23)
(1.01531 1.26657e-05 -9.51843e-22)
(1.01496 -9.47234e-05 -6.53261e-22)
(1.01433 -0.00332622 5.26846e-22)
(1.01416 -0.00307564 -1.32264e-22)
(1.01414 -0.00335947 -1.94318e-22)
(1.00974 -0.00192971 -2.50453e-23)
(1.01024 -0.00219693 2.8185e-24)
(1.00958 -0.00305349 3.88961e-22)
(1.00937 -0.00235048 3.79148e-22)
(1.00896 -0.00282367 1.15838e-22)
(0.998925 -0.00174246 -4.83811e-23)
(1.00155 0.00167802 7.79299e-22)
(0.997713 0.00247175 -7.96837e-23)
(1.01452 -0.00325888 1.45736e-22)
(1.01457 -0.003568 -1.29506e-22)
(1.01724 -0.00243521 -2.56525e-23)
(1.01728 -0.00268198 1.08791e-22)
(1.01753 -0.00250737 -5.36286e-24)
(0.938195 -0.280615 -4.73157e-21)
(0.928076 -0.327565 -1.77485e-21)
(0.889581 0.680514 -1.77084e-20)
(0.893625 0.641403 2.52626e-21)
(0.846837 0.680322 -3.93479e-20)
(1.0142 0.000279913 1.09246e-21)
(1.01167 2.6435e-05 2.74954e-23)
(0.920584 0.670973 3.82549e-20)
(0.875306 0.691877 -1.44826e-21)
(0.748586 0.312984 0)
(0.738279 0.2063 0)
(1.01721 -0.00221078 -6.55387e-23)
(1.01697 -0.00236492 -1.16852e-22)
(1.01165 0.000195253 1.87249e-23)
(1.01147 0.00020011 3.36732e-22)
(1.01382 0.000408703 -2.1142e-22)
(1.0131 0.000311231 -1.80672e-22)
(1.01418 0.00051493 -1.97938e-22)
(1.02979 0.00821988 8.86189e-22)
(1.02813 0.00888559 1.57467e-21)
(1.01471 -0.00316929 -1.29406e-22)
(1.01449 -0.00294783 -1.67962e-22)
(1.01536 -4.07696e-05 1.01274e-21)
(1.01507 -4.83619e-05 -2.45494e-22)
(1.0181 -0.000915073 -5.66802e-22)
(1.01793 -0.00102714 8.66148e-22)
(1.01775 0.00184736 1.39202e-22)
(1.01789 0.0022449 1.78784e-22)
(1.01053 0.00244421 -4.26282e-22)
(1.01078 0.00293177 1.6119e-22)
(1.01031 0.00299749 -9.16717e-22)
(1.30166 -0.199756 -5.36734e-20)
(1.27252 -0.258544 -3.39515e-21)
(1.25698 -0.306457 -1.52993e-20)
(0.991816 -0.00639621 -1.08478e-22)
(0.995475 -0.0100504 -3.69202e-22)
(0.997146 -0.0050364 7.26686e-23)
(0.931131 -0.147282 6.31206e-21)
(0.952571 -0.144053 -2.49857e-21)
(1.03515 -0.0152567 4.56602e-22)
(1.02636 -0.00548847 0)
(1.02641 -0.00583843 0)
(1.02672 -0.00555599 0)
(1.00987 0.0018974 -4.35158e-22)
(1.00953 0.00247931 2.19837e-23)
(1.01833 -0.00550689 0)
(1.01781 -0.00562368 4.8394e-22)
(1.01785 -0.00496629 0)
(1.01458 0.00641631 2.22456e-21)
(1.01417 0.00575719 0)
(1.01492 0.00597169 -9.19626e-22)
(0.785105 0.0570076 0)
(0.799932 0.0864839 0)
(0.7877 0.103006 0)
(0.985973 -0.00868576 -1.09596e-21)
(0.987804 -0.00293737 -1.53904e-22)
(0.784657 0.000938923 7.98017e-21)
(0.778877 0.0308238 -7.85988e-22)
(1.02296 -0.00317844 0)
(1.02296 -0.00346907 0)
(1.02259 -0.00316547 -4.2185e-23)
(1.31797 -0.105778 -4.0106e-20)
(1.01754 0.000684882 0)
(1.01927 0.00184111 -1.0728e-23)
(1.01918 0.0017977 1.93259e-23)
(1.01916 0.00176435 1.2031e-22)
(1.01392 0.0002123 8.7072e-22)
(1.01392 6.66065e-05 -1.29923e-21)
(1.014 0.000100113 -3.38135e-22)
(1.02744 -0.00988745 -4.39766e-22)
(1.02682 -0.0100886 -3.35324e-22)
(1.02751 -0.0105321 6.46305e-22)
(1.09085 0.189452 -1.26084e-21)
(1.07927 0.225898 4.70156e-21)
(1.04596 0.213355 -1.08632e-21)
(1.02775 -0.00255752 -5.39983e-22)
(1.02736 -0.00229857 9.21765e-24)
(1.02733 -0.002709 -3.50519e-22)
(1.01495 -0.00338697 8.47833e-23)
(1.02696 0.0114164 5.28064e-22)
(0.76176 0.116912 7.13429e-21)
(0.80496 0.0135515 1.30125e-20)
(0.786299 0.0739923 7.30765e-21)
(1.01398 0.00116025 0)
(1.01398 0.00135857 2.28916e-21)
(1.06131 -0.0181771 2.42606e-21)
(1.06004 -0.0112599 2.56189e-21)
(1.01386 0.000337792 3.67307e-22)
(1.01394 0.00035122 1.03568e-21)
(1.01577 -0.000484593 6.49819e-22)
(1.01562 -0.000488135 -8.36757e-23)
(1.01577 -0.000595606 -9.25989e-23)
(1.01035 0.00194532 0)
(1.01075 0.00194657 0)
(1.02335 -0.00318957 -2.5725e-22)
(1.02297 -0.00287324 0)
(1.0138 0.000377033 4.13245e-22)
(1.01385 0.000341896 -1.4386e-21)
(1.01391 0.000411646 -4.04241e-22)
(0.928373 0.0683735 -4.10071e-22)
(0.913925 0.0611121 2.1121e-21)
(0.893524 -0.0844698 -3.15694e-22)
(0.908774 -0.0756182 2.67631e-21)
(0.902457 0.00500017 3.28245e-21)
(1.02801 -0.00971221 -5.85318e-23)
(1.02741 -0.00939706 -2.92633e-22)
(1.07535 0.210611 -2.84246e-21)
(1.03377 0.177822 2.79441e-21)
(1.08271 0.175637 2.00145e-20)
(1.016 -0.00325432 0)
(1.01623 -0.00379739 0)
(1.01637 -0.00343131 0)
(0.778926 0.430182 -3.84224e-21)
(0.793615 0.423172 4.24308e-21)
(1.01465 0.000741189 4.66189e-22)
(1.01439 0.000667143 4.3565e-22)
(1.02007 0.000588127 0)
(1.02032 0.000339215 -2.06267e-22)
(1.2391 -0.276158 2.59808e-20)
(1.19896 -0.310778 0)
(1.21399 -0.259084 1.0256e-20)
(0.712197 -0.157437 -2.46518e-21)
(0.670676 -0.128412 -1.08176e-20)
(1.01421 -4.21844e-05 -7.44037e-22)
(1.01421 2.15247e-05 1.50762e-21)
(1.01425 -9.68837e-05 3.57578e-25)
(1.01755 0.000227629 -5.40567e-22)
(1.01776 0.0003389 5.27231e-22)
(1.01991 0.00158872 0)
(1.01978 0.00180305 0)
(0.907481 -0.144711 4.95132e-22)
(1.01211 -0.00228173 0)
(1.01199 -0.00186599 0)
(1.01182 -0.0021478 -3.03081e-22)
(0.984319 0.00660066 4.08984e-22)
(0.98379 0.00333094 1.42116e-22)
(1.02519 -0.00499738 8.29017e-23)
(1.02489 -0.00505434 4.25903e-22)
(1.02488 -0.00476508 3.97138e-22)
(1.02322 -0.00881043 1.46318e-21)
(1.02412 -0.00931499 1.63034e-21)
(1.0233 -0.00981305 8.96603e-23)
(0.931909 0.0838705 -1.34356e-22)
(0.941789 0.0718824 -3.61961e-21)
(0.936058 0.038856 3.4283e-21)
(0.924303 0.0371226 7.95812e-21)
(1.02096 -0.0026377 9.95067e-22)
(1.02105 -0.00233963 5.0056e-22)
(1.11867 0.245464 -5.19542e-22)
(1.05707 0.254087 -7.92363e-22)
(1.01357 0.000412622 1.06254e-22)
(1.01448 0.000497996 0)
(1.0195 -0.00648007 1.60099e-23)
(1.02022 -0.00695576 2.7098e-22)
(1.01998 -0.00615431 5.41273e-22)
(0.724892 0.217095 0)
(0.746205 0.158008 -4.71053e-22)
(1.01995 0.00168211 0)
(1.02002 0.00143321 0)
(0.956854 0.0201286 3.4886e-23)
(0.957053 0.0258415 5.21086e-22)
(0.950318 0.0532755 1.97706e-21)
(0.984489 0.0138323 -7.8459e-21)
(0.991006 0.0206082 -3.84207e-21)
(0.980365 0.0238669 4.06941e-21)
(1.01636 1.73128e-05 -1.65865e-21)
(1.0165 8.41304e-05 -6.35491e-22)
(1.01624 0.000117187 6.96413e-23)
(1.02335 -0.00374134 0)
(1.01374 0.000412084 1.45911e-21)
(1.0137 0.00033069 -1.67836e-21)
(1.01554 -0.0134816 1.02272e-21)
(1.01912 -0.015038 3.2644e-22)
(1.27413 -0.209214 1.15434e-20)
(1.00203 -0.00494909 -1.72261e-22)
(1.00326 -0.00386948 -1.5677e-21)
(1.01716 -0.00201004 1.08976e-22)
(1.0169 -0.00195693 1.88627e-22)
(1.01711 -0.00182085 7.9052e-23)
(0.988855 0.00645766 -2.43686e-21)
(0.979245 0.00727976 -3.58731e-21)
(1.02988 -0.0232681 1.26917e-21)
(1.0286 -0.0247587 6.31674e-22)
(1.02803 -0.022949 2.43253e-21)
(1.01958 0.00201468 1.56582e-23)
(1.01966 0.00220049 0)
(1.01937 0.00192631 -7.04741e-23)
(1.01942 0.0019972 1.7292e-23)
(1.02819 -0.00248591 -1.44614e-21)
(1.02805 -0.00297013 2.59954e-22)
(1.01437 0.000617061 0)
(1.01458 0.000676507 0)
(1.01421 0.000584313 1.67288e-23)
(1.03639 -0.0194055 -2.81073e-22)
(1.03652 -0.0187274 0)
(1.03563 -0.0189255 -6.22354e-23)
(0.958174 0.0193478 0)
(0.960063 -0.00473432 -1.60469e-21)
(1.01513 0.000988147 3.9882e-22)
(1.01492 0.000965815 -1.64929e-23)
(1.01506 0.000876447 5.67446e-22)
(1.01534 0.00447937 -1.27492e-22)
(1.01522 0.00495282 1.4994e-21)
(1.0157 0.00485455 6.85933e-22)
(0.793796 -0.0505945 1.0083e-21)
(0.822607 -0.0724509 1.49692e-20)
(1.01609 -0.00546641 1.59953e-25)
(1.01581 -0.00473547 -1.09945e-22)
(1.01547 -0.00539006 0)
(0.987162 0.00672768 -3.2861e-21)
(0.984917 0.0097108 2.89009e-21)
(1.01108 -0.00263134 -4.81438e-24)
(1.01068 -0.00243694 1.85342e-23)
(1.01096 -0.00208584 7.60515e-22)
(1.01654 0.00453296 -1.50124e-24)
(1.01692 0.00432916 1.05629e-23)
(1.01701 0.0048302 1.0179e-23)
(0.890275 0.0492649 -1.28704e-21)
(0.869387 0.0307879 -1.28224e-21)
(1.01542 0.00408691 -8.38967e-22)
(1.01579 0.00397564 0)
(1.01549 0.0036913 -1.46591e-21)
(1.01729 -0.00290088 0)
(1.01701 -0.00280162 -5.43485e-23)
(1.01738 -0.000845187 -5.01195e-22)
(1.01729 -0.000705793 2.05158e-24)
(1.0299 0.00666914 5.02884e-22)
(1.03155 0.00732462 1.81903e-21)
(1.0176 -0.00302285 0)
(1.01127 -0.000326464 -1.41079e-22)
(1.00976 -9.7928e-05 3.05435e-22)
(1.01819 -0.0050496 1.30972e-21)
(1.01835 -0.00474291 0)
(1.01856 -0.00511356 0)
(1.02676 -0.00688055 3.69297e-22)
(1.02697 -0.00678166 0)
(1.02668 -0.00664003 -7.67456e-23)
(1.02296 -0.0298241 7.46868e-22)
(1.02517 -0.0280663 -2.49561e-22)
(1.037 -0.017679 8.22652e-24)
(1.03681 -0.0181619 2.11467e-22)
(1.0363 -0.0176782 -1.41968e-22)
(1.01677 0.00351766 -1.2936e-23)
(1.0167 0.0031738 4.4673e-22)
(1.01705 0.00331661 6.68801e-23)
(1.0237 -0.012253 1.43271e-21)
(1.02269 -0.0126369 -1.10177e-21)
(1.02368 -0.0134014 -1.79944e-21)
(1.01389 0.00521981 1.36075e-21)
(1.01424 0.00487185 1.84051e-22)
(1.01365 0.00468622 3.07252e-22)
(1.02658 -0.0068852 4.67583e-22)
(1.02683 -0.00713116 -5.25469e-22)
(0.999849 0.00827706 5.55291e-21)
(0.998878 0.00673332 -2.83602e-22)
(1.00081 0.00651491 4.27274e-21)
(1.01265 -0.0024952 6.52318e-23)
(1.01236 -0.00240306 2.32235e-22)
(1.01249 -0.0021382 1.73203e-22)
(0.969482 -0.0955182 5.95826e-22)
(0.964391 -0.0861484 1.16075e-21)
(0.941999 -0.100335 1.44216e-21)
(1.01502 0.00410061 -7.107e-22)
(1.02004 -0.0318771 -2.27576e-21)
(1.02025 -0.0281874 -2.23424e-21)
(1.00899 0.00010703 5.68323e-22)
(1.01065 -1.52464e-05 9.25615e-23)
(1.00958 -1.23001e-05 -4.0085e-22)
(1.02598 -0.00560924 7.11112e-22)
(1.02627 -0.00502057 0)
(1.01982 0.00200103 0)
(1.01983 0.00201535 0)
(1.01981 0.00213731 0)
(1.01982 0.00188053 0)
(1.01978 0.00201323 0)
(1.02235 -0.00827946 -2.31869e-21)
(1.02342 -0.00790228 1.29149e-21)
(1.15083 -0.323444 -6.03482e-21)
(1.16347 -0.364373 0)
(1.00963 -0.00637852 2.70169e-21)
(1.00897 -0.00544391 -1.1293e-21)
(1.00992 -0.00543007 -2.57754e-21)
(1.01274 -0.00283054 1.18867e-22)
(1.01287 -0.0025909 -1.72151e-22)
(1.01231 0.00212462 3.67887e-22)
(1.01215 0.00185977 9.68583e-24)
(1.01234 0.00179893 2.7094e-22)
(1.03192 -0.00964603 3.39236e-22)
(1.03077 -0.00883505 -2.75936e-21)
(1.03058 -0.0102997 -1.24459e-21)
(1.01664 0.000161159 -2.97034e-23)
(1.01679 0.000243048 6.99631e-23)
(1.01652 0.000288326 1.34322e-22)
(0.954845 -0.0118611 1.07638e-21)
(0.955782 -0.0207161 -2.21901e-21)
(0.947286 -0.0145279 -7.17862e-22)
(0.954209 -0.00330578 -6.12171e-21)
(0.961114 -0.0091655 1.44461e-21)
(1.01423 -0.000115785 -8.998e-22)
(0.894355 -0.103719 1.47869e-21)
(0.872562 -0.0973295 -2.93083e-22)
(1.01368 1.19184e-05 6.03549e-22)
(1.0136 -2.86157e-06 0)
(1.01366 7.62578e-05 0)
(1.03751 -0.0176715 -2.10429e-22)
(1.02997 0.00521392 -1.53377e-21)
(1.02858 0.00616893 -9.4558e-22)
(1.01969 0.00190797 2.01227e-24)
(1.01963 0.0019764 2.79472e-23)
(1.01972 0.00200458 -3.62095e-23)
(1.01179 -0.000164493 0)
(1.00936 -0.000105094 0)
(1.01178 -0.000107997 -4.88294e-22)
(1.01449 -0.00031781 6.50664e-23)
(1.01364 -0.000200829 0)
(1.01625 -5.52685e-05 3.701e-22)
(1.01645 -8.0572e-05 -7.61814e-22)
(1.01798 -0.00537848 1.37455e-21)
(1.01781 -0.0049694 1.60777e-22)
(1.02604 -0.00629223 -1.28578e-21)
(1.02607 -0.00650538 0)
(1.02615 -0.00622395 0)
(1.01502 -0.00026938 9.19332e-22)
(1.01479 -0.00020851 3.878e-22)
(1.01525 -0.000294384 -2.15665e-22)
(1.01736 0.000127029 -5.48005e-22)
(1.01765 5.98049e-05 1.09771e-23)
(1.01536 0.00100427 3.39867e-22)
(0.877385 0.0917572 -6.01793e-21)
(0.903019 0.0804412 -3.21168e-22)
(1.00683 -0.0050553 -2.74032e-21)
(1.00571 -0.00477115 4.06494e-22)
(1.00658 -0.00393327 -9.26814e-22)
(1.01017 -0.000202767 -3.29091e-22)
(1.01382 9.25578e-05 1.0341e-22)
(1.01164 0.00020245 -4.28766e-23)
(1.01271 0.000131749 1.48477e-22)
(1.02051 -0.00888852 1.80147e-22)
(1.02061 -0.0100791 8.80974e-22)
(1.02289 -0.00473606 -4.18308e-22)
(1.02287 -0.00497812 -1.27645e-22)
(1.02252 -0.00474976 4.00272e-22)
(1.02591 -0.00595095 -3.69526e-22)
(1.02574 -0.00639681 -1.13543e-21)
(1.01389 8.43712e-06 5.10196e-22)
(1.0139 2.66218e-05 0)
(1.01388 1.86352e-05 -7.53888e-22)
(0.895571 -0.563954 -4.27251e-20)
(0.895031 -0.573307 -6.93081e-20)
(0.95106 -0.555735 -1.49415e-20)
(1.01742 -0.00204287 5.12394e-23)
(0.800128 -0.09046 0)
(0.798922 -0.0744811 -1.61627e-21)
(0.814988 -0.0764264 -8.89843e-22)
(0.793876 0.20548 0)
(0.768206 0.199125 9.49838e-22)
(0.763937 0.218761 -1.38845e-22)
(1.00945 -4.1638e-05 3.97645e-22)
(1.01146 -3.99358e-05 2.07939e-22)
(1.01209 -8.32772e-05 0)
(1.01284 -0.000216234 -2.73475e-22)
(1.01357 -0.000288481 0)
(1.01348 -0.0030693 4.89094e-23)
(1.01368 -0.00312678 -4.18653e-22)
(1.01364 -0.00337426 4.47926e-22)
(1.03307 -0.0106096 4.06905e-21)
(1.03305 -0.00864969 1.3896e-21)
(1.02657 -0.00653901 4.56722e-22)
(1.0265 -0.00637108 9.58984e-22)
(1.02618 -0.00662279 2.05081e-21)
(1.0297 0.00397965 -3.88796e-22)
(1.02841 0.00371008 5.43234e-22)
(1.0294 0.00279501 9.3683e-24)
(0.795338 -0.0908194 0)
(0.786533 -0.0992851 0)
(1.01316 -8.89796e-05 5.5054e-22)
(1.01279 -0.000157271 2.81807e-23)
(1.01327 5.83743e-05 2.71604e-23)
(1.01327 -0.00296466 2.75059e-22)
(1.01332 -0.00272994 -1.08219e-24)
(1.02673 -0.00676779 -2.52345e-21)
(1.027 -0.00639185 -1.07771e-21)
(1.01664 -0.00643856 0)
(1.01714 -0.00653934 0)
(1.01677 -0.00695712 1.52822e-21)
(1.01823 -0.00321781 4.82389e-23)
(1.01798 -0.00301704 -9.33864e-22)
(1.01832 -0.00298782 5.23348e-22)
(1.01474 -0.00417894 -3.2686e-22)
(1.01486 -0.00504812 0)
(1.01289 -0.0126197 -2.8903e-21)
(1.01998 0.00466038 6.05974e-22)
(1.02035 0.00521715 -1.33169e-22)
(1.02065 0.0046395 1.22436e-21)
(1.02989 -0.0082214 -2.70043e-21)
(1.02886 -0.00869234 -1.66648e-22)
(1.02894 -0.00772806 3.44102e-22)
(1.02544 -0.00518022 8.77288e-22)
(1.02546 -0.0049011 -3.75064e-23)
(1.01872 0.00298525 -4.6113e-22)
(1.01901 0.00334024 -8.99953e-22)
(1.01915 0.0029689 -7.95061e-24)
(0.994284 -0.0152284 -1.52442e-22)
(1.25814 0.221076 4.94079e-21)
(1.21265 0.218273 2.92774e-20)
(1.26034 0.169976 4.35206e-21)
(1.0034 -0.00803587 1.11661e-22)
(1.00563 -0.0110886 6.10752e-24)
(1.01989 0.0018579 0)
(1.02 0.00167647 0)
(1.12067 0.168668 0)
(1.09147 0.166793 -3.12665e-21)
(1.02287 -0.00523484 -1.10515e-21)
(1.02287 -0.00550027 2.65966e-23)
(1.02249 -0.00528064 -7.35047e-22)
(0.959025 -0.214725 0)
(0.939121 -0.189484 1.80967e-22)
(0.993557 -6.77542e-05 7.09646e-21)
(0.989882 -0.00478475 4.04794e-21)
(1.01151 0.00276832 2.16222e-22)
(1.01179 0.0026766 1.1212e-22)
(1.01174 0.00311849 4.95235e-23)
(1.0311 -0.00358622 3.72656e-23)
(1.03152 -0.00411873 9.07495e-22)
(0.99748 0.00549053 6.42424e-21)
(1.01775 -0.00626386 -2.4923e-22)
(1.01831 -0.00695865 -1.48035e-21)
(0.98998 0.0068547 3.96429e-22)
(0.989406 0.00417866 -3.74632e-21)
(1.03502 -0.0322354 2.00525e-21)
(1.03559 -0.0297162 4.26682e-21)
(1.03759 -0.0326023 -2.11974e-21)
(1.01717 -0.0008716 8.38882e-22)
(1.01696 -0.000774853 4.84984e-22)
(1.01699 -0.000858766 1.51383e-21)
(1.01271 0.000107619 -5.13163e-22)
(1.01393 -5.06483e-05 6.30607e-22)
(1.01979 0.000727945 0)
(1.01972 0.000499125 0)
(1.01185 -0.000227441 0)
(1.01197 -0.000236252 -1.63547e-22)
(1.01064 -0.00015917 -3.02217e-22)
(1.01721 0.00241439 0)
(1.0169 0.00204198 -1.06692e-22)
(1.01365 0.147333 8.30107e-21)
(1.03305 0.127485 4.88524e-21)
(0.999812 0.120182 -2.03703e-20)
(1.0138 0.000472598 -2.46769e-22)
(1.01376 0.000342429 -8.60345e-22)
(1.01843 0.00266815 -6.41389e-23)
(1.01831 0.0029626 -1.2155e-21)
(0.891806 -0.52878 1.38947e-20)
(1.01648 -0.00626579 -2.82761e-22)
(1.01668 -0.00550636 4.86817e-22)
(1.00959 0.000708809 1.5097e-22)
(1.01007 0.000867055 -3.53376e-24)
(1.01981 0.00208628 0)
(1.02167 -0.00704743 -1.25079e-21)
(1.02217 -0.00727091 2.01126e-21)
(1.02203 -0.00682739 1.44235e-21)
(1.01739 -0.000974153 -4.83087e-22)
(0.991665 0.176248 -6.11823e-21)
(1.02291 -0.00449819 -3.4848e-23)
(1.02293 -0.00424717 7.94849e-22)
(1.02255 -0.00423922 1.2257e-21)
(1.01697 -0.000901058 1.36555e-22)
(1.01706 -0.00101578 1.53222e-21)
(1.01685 -0.000968415 8.60337e-22)
(1.01625 -0.00501665 -7.05166e-23)
(1.01639 -0.0054504 0)
(1.01593 -0.00528973 1.30431e-21)
(1.01616 -0.0070802 -9.22721e-22)
(0.807527 0.114346 9.65734e-21)
(0.829217 0.114951 8.25539e-21)
(0.821827 0.102292 9.9501e-21)
(1.02039 -0.00194998 0)
(1.02004 -0.00201259 -8.695e-22)
(1.01915 -0.0433168 1.99569e-21)
(1.01744 -0.038702 -1.2306e-21)
(1.01448 -0.0423612 -1.0593e-21)
(1.01936 0.00186769 7.43619e-24)
(1.02448 -0.0168655 1.05124e-21)
(1.02556 -0.0163552 0)
(1.0243 -0.0158747 0)
(0.902249 -0.102476 0)
(0.912183 -0.126719 1.41817e-22)
(1.06628 -0.0213043 3.78559e-21)
(1.0599 -0.0241941 1.85653e-21)
(1.02319 -0.017563 -4.84809e-22)
(1.02485 -0.0181357 -1.49119e-22)
(1.02116 -0.00670307 -5.78797e-23)
(1.02117 -0.00725234 -6.38515e-22)
(1.02335 -0.0126732 -6.54135e-22)
(1.02281 -0.0111599 2.64391e-22)
(1.02208 -0.0121748 5.6485e-22)
(1.17125 0.248853 -4.99919e-21)
(1.14625 0.305072 -1.24795e-23)
(1.01133 -0.000295745 1.37113e-22)
(1.01281 -0.000173995 3.78956e-22)
(0.977616 -0.103668 -1.05919e-21)
(0.996619 -0.0871711 -9.23956e-22)
(1.0151 -0.00378927 -2.21473e-22)
(1.01464 -0.00339082 -1.57311e-22)
(1.01387 0.000544295 2.71036e-22)
(1.01452 0.000648248 -2.90884e-22)
(0.822231 0.204261 0)
(0.828854 0.191618 0)
(0.992477 0.00685099 3.37763e-21)
(0.990651 0.0094151 1.88071e-21)
(1.29107 0.209282 0)
(1.24055 0.287325 -8.81828e-21)
(1.01685 -0.000790682 -1.31537e-21)
(1.01708 -0.000850955 -1.63772e-21)
(1.03615 -0.0200467 -2.73841e-22)
(1.0369 -0.0197976 4.64322e-22)
(0.951073 -0.193406 1.99011e-23)
(0.937407 -0.216338 -1.36016e-21)
(1.01347 0.0236573 -1.1566e-21)
(1.01525 0.0255991 1.67202e-21)
(1.01593 0.0229951 -1.10549e-22)
(1.01407 0.00111957 0)
(1.01416 0.00120728 -7.0712e-22)
(1.01415 0.00106157 -1.43364e-21)
(0.846985 0.103022 -9.24021e-21)
(1.02935 -0.00904292 4.55974e-23)
(1.02976 -0.00873408 -7.9519e-23)