/*--------------------------------*- C++ -*----------------------------------*\
| =========                 |                                                 |
| \\      /  F ield         | OpenFOAM: The Open Source CFD Toolbox           |
|  \\    /   O peration     | Version:  v2012                                 |
|   \\  /    A nd           | Website:  www.openfoam.com                      |
|    \\/     M anipulation  |                                                 |
\*---------------------------------------------------------------------------*/
FoamFile
{
    version     2.0;
    format      ascii;
    class       volVectorField;
    location    "200";
    object      ddt0(U);
}
// * * * * * * * * * * * * * * * * * * * * * * * * * * * * * * * * * * * * * //

dimensions      [0 1 -2 0 0 0 0];


internalField   nonuniform List<vector> 
9793
(
(0.00769072 0.0427776 -2.96326e-19)
(-0.00907846 -0.00498674 -2.35408e-19)
(0.0135527 0.044891 -3.03296e-19)
(-0.00446549 -8.21539e-05 -3.55288e-19)
(-0.20214 -0.0486589 2.62815e-19)
(0.00160632 -0.000190103 2.54204e-19)
(0.00202108 7.07799e-05 1.14873e-18)
(-0.00387048 0.000780708 9.06459e-20)
(-0.00433531 5.7206e-05 -2.59182e-19)
(-0.20841 -0.0195672 5.65172e-18)
(-0.00848749 -0.0162627 1.91469e-18)
(0.0642544 0.0190923 -1.38895e-18)
(-0.00588413 -8.54678e-05 8.8676e-19)
(-0.00091022 -0.00213763 -2.93248e-19)
(0.00537283 1.62918e-06 -9.48754e-20)
(-0.00101567 -0.00188859 8.43418e-20)
(-0.00106675 -0.00101317 -3.00739e-19)
(0.00116849 -0.00108455 1.51304e-19)
(0.168099 0.0402491 -1.18438e-19)
(-0.00116516 -0.00211361 -1.33646e-19)
(-0.0772967 -0.0289086 -8.69407e-19)
(-0.00625298 0.00187437 8.83909e-19)
(0.00284282 0.0169415 -8.39281e-20)
(0.000871773 0.000129367 3.62987e-21)
(-0.00266366 -0.00251179 -6.75971e-19)
(-0.0072744 -3.42023e-05 -1.75279e-18)
(-0.00148299 -0.00192267 -4.71347e-19)
(-0.000577389 -0.00088522 -4.3369e-19)
(-0.0107611 0.00418931 7.91848e-19)
(-0.00563096 0.000113615 1.92225e-19)
(0.0082522 0.00317064 -3.14376e-20)
(0.00402183 0.0140917 8.26877e-20)
(-0.00685322 0.0635171 -1.68868e-18)
(-0.00047762 -2.70803e-05 -1.03363e-18)
(-0.0166826 0.00742602 -5.6562e-19)
(-0.152971 -0.120319 -1.37298e-19)
(0.000605661 4.49854e-05 -5.23096e-19)
(-0.00595215 0.00174354 1.47804e-20)
(0.000439788 0.00127327 3.28479e-19)
(-0.00232944 3.41496e-06 -1.90319e-19)
(0.00714263 0.00183936 4.86977e-19)
(0.00524787 5.90834e-06 5.60667e-19)
(-0.0072172 -2.60614e-06 1.61535e-18)
(0.00119857 8.03595e-05 -3.5824e-20)
(-0.00824824 -2.48167e-05 -2.04991e-19)
(-0.00635274 -5.27234e-05 1.05799e-18)
(-0.0172868 0.00430583 -6.0028e-19)
(0.0101477 0.00107565 3.42307e-19)
(0.00250806 -0.0182493 1.75637e-18)
(-0.00325875 -6.24595e-05 3.22769e-19)
(-0.0181896 0.00810743 1.74372e-18)
(-0.0184507 -0.0143702 -2.99923e-18)
(-0.000705763 -0.000183753 2.9948e-19)
(-0.00120014 0.000323592 8.57823e-19)
(-0.0691597 0.00956656 6.02669e-18)
(-0.0159029 0.335855 2.13652e-19)
(-0.0017526 -3.78291e-05 2.16552e-19)
(0.00469265 -0.0418655 -2.18462e-18)
(-0.085338 -0.0697739 1.91172e-19)
(-0.00327948 0.00118351 9.19796e-19)
(-0.000727822 -1.77145e-05 -3.03966e-20)
(-0.00119642 -0.000536794 1.87221e-18)
(-0.0265469 -0.0578992 6.10672e-18)
(-0.00302251 -2.21366e-05 -1.42431e-19)
(-0.119962 -0.0618222 2.10286e-18)
(-0.0534197 -0.0101246 1.31915e-18)
(-0.0261753 -0.0505107 -4.9781e-18)
(-0.0119286 -0.0350408 -2.1731e-18)
(0.0505517 0.0135652 1.75676e-18)
(-0.0128514 -0.0139863 -1.97378e-18)
(-0.0667744 0.0163736 2.22781e-18)
(0.000261127 1.6792e-05 -3.36253e-21)
(-0.00806347 -0.000242091 9.18251e-19)
(0.0222827 -0.00888347 -1.60303e-19)
(-0.0183151 0.0111687 -9.61335e-19)
(-0.0755343 -0.0581254 4.62852e-19)
(-0.00398514 3.22119e-05 -1.62641e-19)
(0.00235891 0.000870115 -2.65955e-20)
(0.00145078 -0.00148998 2.29753e-19)
(0.00026684 -0.00110945 -2.41231e-20)
(-0.0601182 -0.0586192 9.10514e-21)
(0.00407638 0.000155002 -5.48984e-19)
(-0.00405591 0.012009 -9.93683e-21)
(0.0057837 0.00280419 -1.05233e-19)
(0.00442201 0.00137795 8.86768e-19)
(0.00892678 0.00205584 -4.01764e-19)
(-0.000309284 -0.00127162 -4.07457e-20)
(-0.00495115 0.000102287 -9.61961e-20)
(0.00113988 -0.000422487 -2.22336e-19)
(0.00572923 0.00236835 -6.12953e-20)
(-0.0157974 -0.00721486 -2.07304e-19)
(-0.089446 -0.0131128 -2.6953e-18)
(0.000173577 -1.41432e-06 -2.54465e-19)
(0.0067324 0.0120099 -2.15532e-19)
(-0.00144589 -0.000509289 -1.03756e-19)
(0.00506295 0.00345159 1.49339e-19)
(-0.0791363 0.247672 -1.66466e-19)
(-0.00632792 0.00851303 1.93776e-19)
(0.000581753 -4.42804e-05 -3.53129e-19)
(0.000355827 -0.00045709 2.52315e-19)
(0.000385051 -0.00051886 -4.98331e-19)
(0.00230743 0.00539357 4.15775e-19)
(0.000884883 -0.000219363 -4.28133e-19)
(0.000781155 -0.000182177 1.58171e-19)
(0.00236003 0.000974171 2.68362e-20)
(0.00295381 0.000451371 -2.70153e-19)
(-0.0022146 -0.000436012 1.56523e-19)
(-0.000517636 5.21501e-06 4.10975e-19)
(0.00169717 -0.000254381 -2.51665e-18)
(0.0172841 0.00118755 -5.91903e-19)
(0.000224046 1.18266e-05 1.81564e-21)
(-0.0461073 0.0723957 -1.6058e-19)
(0.0084133 -3.31414e-05 -1.08165e-18)
(-0.152388 0.317231 3.49726e-18)
(-0.0206479 -0.0121802 3.64927e-18)
(-0.00339949 -1.40943e-05 -1.16888e-19)
(0.0235842 0.132055 -1.91079e-18)
(-0.0164326 0.0131541 1.36091e-18)
(0.00474422 -0.000456382 -3.41166e-19)
(0.00608166 0.0102621 2.38508e-19)
(0.0169821 0.00783418 1.76444e-19)
(3.19305e-05 1.40745e-06 4.70356e-21)
(0.000624905 -0.000102354 -2.4645e-19)
(0.00120607 -0.000140655 -2.00229e-19)
(-0.00237477 0.000690691 4.18623e-19)
(-0.0832257 -1.89137e-05 -2.57052e-18)
(0.00447542 -0.00758885 -1.92154e-19)
(0.00809821 0.00333728 -5.55881e-20)
(0.00203141 -0.00214506 -1.36413e-18)
(-0.00440766 -0.000231334 -9.53618e-20)
(0.000179716 1.69326e-05 8.14802e-22)
(-0.00497044 6.45858e-05 -2.34872e-19)
(-0.00530646 -0.000213417 1.29732e-18)
(-0.00309197 0.00620133 4.85713e-19)
(-0.00278652 9.99363e-05 -1.02673e-18)
(-0.00433238 0.000149027 4.86374e-19)
(-0.00410842 -2.65058e-05 2.01532e-20)
(0.00115269 7.95531e-05 2.27275e-19)
(0.00538297 -2.32468e-05 6.48742e-19)
(-0.00066313 1.45148e-05 -2.09728e-19)
(-0.000985475 -0.000117786 -2.96376e-19)
(-0.00396006 -0.00198204 7.53082e-19)
(-0.00168292 7.83267e-05 -5.74119e-19)
(-0.000388002 -0.00077469 7.14791e-21)
(-0.000824017 -0.00237162 1.54212e-19)
(-0.000333703 -0.00294144 1.79696e-20)
(0.00872942 -0.0256455 9.59477e-21)
(-0.000330514 -0.000703658 -4.09946e-19)
(0.000617303 -0.000129839 3.10719e-19)
(-0.0830366 -0.0234567 2.80939e-18)
(0.0233763 0.533171 2.53829e-17)
(0.0001587 1.74566e-05 1.1372e-20)
(-0.0579504 0.486985 -2.90712e-17)
(-0.22933 0.0211814 2.93342e-18)
(0.00058943 -0.000154939 5.74694e-19)
(0.00010987 6.55729e-06 -3.36054e-21)
(-0.000164107 5.81513e-05 -3.23745e-20)
(-0.00416039 -0.00162246 -5.91203e-19)
(0.000106821 -0.000640701 1.89591e-19)
(-0.00178611 8.11429e-05 -4.06142e-19)
(-0.00501447 0.000852445 -3.9176e-19)
(-0.000680792 -0.000848795 -5.66274e-19)
(-0.00182925 -0.00126449 9.38561e-20)
(0.156246 0.0264832 -1.49539e-18)
(0.0101664 -0.0241858 -5.22788e-19)
(-0.0866135 -0.0619391 1.10083e-18)
(0.00885848 0.00198643 4.02245e-19)
(-0.00329051 0.00445608 -1.42058e-19)
(-0.00160523 -0.00167743 1.17605e-19)
(-0.000141292 0.00382847 3.23465e-19)
(0.00184574 -0.00109273 2.30003e-18)
(-0.0784116 0.121809 3.38863e-18)
(0.00231913 -0.0284462 3.14887e-19)
(-0.0643864 0.176275 -3.57192e-19)
(-0.00393666 0.000647364 -1.11565e-19)
(0.146005 0.0283986 -1.67406e-18)
(-0.00436237 0.000127868 4.87585e-20)
(0.000753662 0.000307432 3.95326e-21)
(-0.00297667 -0.000222199 2.48216e-19)
(-0.00758938 0.000489306 1.95277e-19)
(0.195019 -0.215372 -8.88077e-18)
(-0.00447996 -1.30428e-05 -2.82947e-19)
(9.8958e-05 -0.000572013 4.79197e-19)
(-0.00361296 -0.00215751 2.11577e-20)
(-0.0964782 -0.018439 6.7249e-19)
(-0.00569409 -0.000241947 6.84659e-19)
(0.00520401 -0.0487904 -1.88724e-18)
(-0.0030114 -0.00019945 -7.30568e-19)
(0.00186814 -0.000110281 3.59609e-19)
(-0.00165069 -0.00134358 -4.84457e-19)
(-0.00366127 0.000650693 2.39222e-19)
(-0.00673697 2.8228e-05 3.79538e-20)
(-0.000936589 -0.0177143 -9.92476e-19)
(-0.0710805 0.0569705 -8.71094e-19)
(-0.0123498 -0.0412749 2.18842e-18)
(-0.00985799 0.000373023 -3.78764e-21)
(0.0196957 0.0727933 4.66322e-20)
(0.00187603 0.00227548 5.44249e-19)
(-0.240094 0.0806522 -3.10105e-18)
(-0.000473874 2.27346e-05 2.67995e-19)
(-0.00218776 0.000131726 1.36084e-18)
(0.156659 0.00389854 -5.81699e-20)
(-0.0441173 0.378095 -6.19379e-19)
(-0.00326286 -0.000246198 -3.58126e-20)
(-0.00360256 0.000164949 -6.71173e-20)
(0.00207156 0.000702052 3.12907e-20)
(-0.137102 -0.0686457 -3.98179e-19)
(-0.000719358 -0.00153675 1.29147e-19)
(0.000276962 0.000274766 5.92848e-19)
(-0.0109088 0.00111207 2.93338e-19)
(-0.00622194 0.0029955 -1.01155e-20)
(-0.00320304 -0.0150589 -2.10919e-18)
(0.00639099 -0.0207918 -1.64442e-18)
(-0.00537081 0.000363337 -2.97313e-20)
(0.0256168 0.0829887 -3.05273e-19)
(-0.00015307 6.65536e-05 -2.79637e-20)
(-0.00248475 0.00447379 3.75463e-19)
(-0.0915592 -0.00349669 9.33889e-20)
(0.00187636 0.000794854 -3.54842e-20)
(0.0264296 -0.0796017 -2.94421e-18)
(-0.00933584 0.0271129 3.73638e-18)
(-0.00483273 6.2791e-05 2.45306e-20)
(-0.00237344 0.000704826 -1.59962e-19)
(-0.00807792 1.14071e-05 -1.34891e-19)
(0.00649612 0.00345326 1.54326e-20)
(0.15242 0.0165488 9.6242e-19)
(0.00158856 -0.000145009 1.24827e-19)
(6.96761e-05 -0.000214541 -4.5032e-19)
(-0.0122317 0.0238176 4.87616e-19)
(-0.0138824 -0.0090041 -1.0509e-18)
(0.00086332 0.000265445 -2.88359e-21)
(0.000861532 0.000224835 -1.87533e-21)
(-0.00814533 -7.48878e-05 4.71896e-19)
(-0.000243245 3.97524e-05 5.48702e-20)
(-0.00180243 -0.0107848 -2.57207e-19)
(0.0214482 -0.0660478 2.05113e-18)
(0.00155988 2.97704e-05 5.13556e-19)
(0.00112769 -0.000821109 1.07906e-18)
(-0.0429596 0.209343 1.16031e-18)
(0.00387966 0.00346468 -8.4428e-19)
(-0.000754307 -0.000370001 -3.69223e-19)
(-0.000482483 -0.00209999 -1.00724e-19)
(0.00082144 -0.000597429 -1.31742e-18)
(-0.0307487 0.0191887 -2.96034e-19)
(-0.00197497 -0.000681226 -5.24957e-19)
(0.000774002 -9.2184e-05 3.84607e-19)
(-0.00403168 0.000716561 -4.63981e-19)
(-0.00418675 -0.00130431 2.42176e-18)
(0.000489337 -5.8717e-05 2.16484e-19)
(-0.000607097 -3.35088e-05 4.12761e-19)
(-0.00149075 0.000411803 -9.86649e-19)
(-0.0042572 0.00152351 -3.32596e-19)
(-0.0201921 -0.00921318 -2.19528e-18)
(-0.000432496 -0.00913148 -1.43555e-19)
(0.00185127 -0.000346371 -1.19134e-18)
(-0.00278227 0.00143893 4.17557e-19)
(0.000288048 -0.00102118 -1.04402e-18)
(-0.00527926 0.00167232 3.36225e-19)
(0.0026829 -0.00131695 1.56883e-18)
(-0.000825558 -0.00132973 -4.04509e-19)
(-0.00724416 0.00334492 -3.68596e-20)
(-0.00264151 -0.000771638 -6.28494e-19)
(-0.0220987 -0.00686712 4.08659e-19)
(-0.000785582 -2.99377e-05 -2.54943e-19)
(-0.00302272 0.00472707 7.8684e-19)
(0.00127755 0.00046174 8.10422e-21)
(0.00107572 0.000522584 -3.38548e-21)
(-0.00616342 0.00386546 -5.49053e-19)
(0.169142 -0.0148864 -5.22123e-19)
(0.00321166 -0.000415871 1.43457e-18)
(-0.000707993 -0.00127163 -3.64684e-19)
(-0.000578658 -0.000711824 9.22861e-20)
(0.00469498 0.0046746 -6.94764e-19)
(-0.00580887 0.000115964 2.31324e-19)
(-0.0206722 -0.0198491 -1.95997e-19)
(-0.017308 -0.0226301 1.87679e-19)
(-0.00682762 -0.000252584 -3.95834e-20)
(-0.103444 0.05974 -1.08115e-18)
(-0.0101508 -8.13302e-06 1.14198e-18)
(0.000685318 -0.00856865 3.36795e-19)
(-0.00379317 -0.000887378 -1.98142e-18)
(0.000832196 0.000441819 2.42461e-21)
(0.000735662 4.22326e-06 3.58936e-19)
(-0.00214671 -4.08721e-06 2.63346e-20)
(0.0046874 -0.00703818 5.20556e-19)
(-0.00532465 4.89621e-05 -3.07954e-19)
(-0.00123384 0.000379944 -1.21971e-19)
(-0.00429182 0.00352396 1.92193e-19)
(0.000905951 0.000119287 -1.85736e-20)
(-0.00371828 0.000165877 1.03922e-18)
(0.0048555 1.29679e-05 -8.8785e-19)
(0.00749968 0.115172 -2.41271e-19)
(0.00594886 -0.000275755 -1.74229e-18)
(0.000656028 4.57046e-05 8.37579e-19)
(0.000212335 2.12496e-05 -2.33957e-20)
(-0.00205814 0.00648352 2.6146e-19)
(-0.00417828 0.000855623 5.16786e-19)
(-0.00564544 0.00374246 1.48309e-18)
(-0.0091031 -4.70119e-05 -3.7894e-19)
(0.0933116 -0.283343 1.51415e-17)
(0.000531783 -0.000204394 1.81804e-19)
(-0.0179218 -0.173925 -1.36349e-18)
(0.057396 0.136414 1.9831e-19)
(-0.000455627 4.65516e-06 -3.75235e-19)
(0.00167282 3.03362e-05 4.52613e-19)
(-0.000640996 -0.000990188 -1.01026e-19)
(0.00482301 0.00514588 1.59066e-18)
(-0.00230644 0.00337746 -6.55028e-19)
(-0.00361814 -0.000126444 2.89445e-19)
(-0.0216212 -0.195699 -6.61552e-20)
(-0.0125905 1.24614e-06 5.39788e-19)
(-0.00065568 -0.00104535 1.22698e-19)
(-0.00194626 0.00369201 4.05032e-19)
(-0.00225438 0.000260332 -5.84657e-19)
(-0.00245649 0.000171338 -9.777e-19)
(0.00496937 0.00258425 -8.73599e-19)
(0.00734754 0.00275256 3.46953e-19)
(-0.00276871 -0.000497518 -9.54323e-19)
(0.00156576 0.00449693 3.58386e-20)
(-0.0103652 0.00114854 -4.40723e-19)
(-0.00367879 -0.000157662 -9.15088e-20)
(0.0155795 -0.0162457 2.74855e-19)
(0.075239 0.0876366 4.59367e-19)
(0.0229017 -0.0118543 3.29529e-19)
(0.00151807 0.000692861 -1.2057e-20)
(0.14239 -0.207425 5.56137e-18)
(-0.00502086 0.000997068 1.0454e-18)
(-0.075891 -0.0830554 2.08887e-18)
(-0.0156251 0.0168171 -1.89404e-18)
(-0.00132511 -0.000899399 -2.35192e-19)
(-0.0071138 -0.000867789 -5.24685e-19)
(-0.01333 0.0193078 8.08558e-19)
(0.000220353 0.0048596 -1.85118e-18)
(-0.00170818 -0.000433225 1.04187e-18)
(-0.0124978 -0.0190395 -1.82365e-18)
(-0.00440399 0.000674801 -1.20362e-18)
(-0.00805964 -8.61031e-06 1.35088e-19)
(0.00336456 0.000172876 -5.20942e-19)
(-0.000107666 -7.21604e-05 -5.43194e-19)
(-0.000492765 -0.000999847 5.59842e-19)
(0.00514881 0.0593938 -2.33209e-20)
(-0.00596282 -0.000196115 1.4606e-18)
(-0.00245358 -0.000125395 7.2958e-19)
(0.0199706 -0.462393 2.8577e-18)
(0.00345498 0.00405439 -3.8726e-19)
(-0.00124422 -0.00181827 7.21568e-20)
(0.00150989 0.000528081 2.86768e-21)
(-0.00679972 0.00120444 9.96382e-19)
(-0.00394204 0.000738818 1.32566e-19)
(0.00523401 0.0686676 -2.09759e-19)
(-0.00206957 0.000755521 -3.53537e-19)
(-0.00181339 -2.72472e-05 1.77029e-19)
(-0.0017175 9.556e-05 -8.54991e-19)
(0.00321191 0.00491019 -1.95331e-19)
(-0.0151345 0.00348085 4.97993e-18)
(-0.0020633 0.000318149 -8.7144e-19)
(0.00268495 -0.00651648 6.87748e-19)
(0.00083124 0.000314968 -6.17162e-21)
(-0.0036208 -0.00196934 -4.1453e-19)
(-0.0788299 0.0200223 -4.32008e-18)
(-0.00361376 -0.0495417 3.68949e-18)
(-0.00364673 -0.00212689 8.7806e-19)
(-0.00492878 0.0010676 -1.05527e-18)
(-0.0021434 0.00820236 1.04876e-18)
(0.0440864 0.0939963 -5.45484e-19)
(-0.000753454 -1.17137e-05 2.11747e-19)
(-0.00147 0.00283863 4.03229e-20)
(0.00386504 0.00195719 4.63936e-19)
(-0.000212075 4.38601e-05 -3.73032e-20)
(0.0519103 0.117704 -4.5601e-19)
(-0.00102636 -0.000884527 -1.64557e-18)
(0.088669 0.100856 1.07229e-19)
(-0.00282681 -5.61804e-05 -4.02282e-19)
(-0.000246652 -0.0122336 8.62377e-19)
(-0.117819 -0.177761 -9.02666e-19)
(-0.00220791 -0.00345686 -1.71226e-18)
(-0.00597449 -0.000206445 7.169e-19)
(0.0121604 0.109223 1.25641e-18)
(-0.00439555 -0.000356426 -1.7354e-19)
(0.0119308 -0.0245228 8.11415e-20)
(-0.00303417 0.00175411 1.42018e-18)
(-0.00572587 0.000328807 9.07581e-19)
(-0.067388 0.132643 1.65758e-18)
(-0.0121825 -3.63633e-05 8.8166e-19)
(-0.00666482 0.00116567 -3.01384e-19)
(-0.000244174 -1.11393e-05 -2.82473e-19)
(-0.00242537 1.34574e-06 2.97533e-19)
(-0.00123081 -0.00201622 -2.13631e-19)
(-0.00307419 0.0003323 8.94324e-20)
(-0.00457804 0.00167482 -3.50074e-19)
(-0.0316118 0.0161333 -7.35468e-19)
(-0.00719322 0.000550955 -9.10771e-19)
(-0.247227 0.0211003 8.28798e-19)
(0.0144039 0.00570099 3.04165e-19)
(0.0548874 0.0865998 -7.2165e-19)
(-0.0125442 -0.0100161 2.21259e-18)
(0.0219479 -0.0113531 9.10928e-20)
(-0.000178174 -3.94813e-05 9.70665e-20)
(0.0024505 9.37788e-05 4.24872e-19)
(-0.0765763 0.076178 -2.33874e-19)
(0.0139398 0.00505003 7.80438e-20)
(-0.000271622 -0.00205288 -6.01486e-19)
(-0.00265865 1.04558e-05 2.50891e-21)
(-0.0863595 -0.623735 -2.49072e-17)
(-0.000679607 -0.000671692 -1.73466e-19)
(-0.212156 0.164267 -4.59504e-19)
(0.00290017 -0.000919556 9.16707e-20)
(-0.00520316 0.00189359 1.0941e-19)
(-0.000637285 -0.000592853 -1.19975e-19)
(-0.00478821 0.00567879 1.90497e-18)
(-0.00687433 -0.000194331 7.14519e-19)
(-0.00743342 -0.000395533 -1.76847e-19)
(-0.119179 0.0198216 -1.52667e-18)
(-0.0006021 -0.00149147 6.21263e-19)
(-0.00227285 0.020332 1.55096e-19)
(-0.0102054 -0.0030109 2.26106e-19)
(-0.00419249 0.000849821 2.44435e-19)
(-0.00885788 -0.00389375 -6.00541e-20)
(0.00375024 0.00215441 2.42625e-19)
(0.000578275 -0.000456129 -1.41268e-18)
(-1.81891e-05 -0.00287502 2.4967e-19)
(0.084776 -0.0149313 -5.17131e-20)
(-0.0106314 -9.36243e-06 7.06311e-19)
(-0.00313206 0.000219702 2.09259e-20)
(-0.0158303 -0.0173843 -1.06301e-18)
(-0.00675638 0.000319152 -5.55514e-19)
(0.00257976 -0.00164521 -1.08585e-18)
(-0.00536572 0.000976883 -5.87694e-19)
(-0.00158805 -0.00110656 -3.11652e-20)
(-0.00628572 0.000803226 4.35529e-19)
(-0.000336408 0.000101468 2.29237e-18)
(-0.00323275 0.000231755 7.68567e-19)
(-0.00122811 -0.000324169 -9.48738e-20)
(-0.0376934 0.0180354 -9.04028e-20)
(-0.000691685 -0.00266228 5.8021e-21)
(-0.0412956 0.0134025 -8.87859e-20)
(-0.000672844 0.00399524 -2.50155e-19)
(-0.0108091 -0.0126864 -2.59396e-18)
(-0.00620699 -2.65339e-05 1.83688e-19)
(0.000985793 0.00419768 9.28038e-19)
(0.00281653 3.17475e-05 3.15476e-20)
(-0.00787905 0.000511661 7.35628e-19)
(-0.0837332 -0.0482934 8.13168e-20)
(0.00210236 0.00179377 1.07542e-18)
(-0.0784983 0.028627 -2.69525e-18)
(-0.00152178 -0.00152328 5.68587e-19)
(-0.00239657 -0.0011695 -8.53541e-19)
(-0.00703586 0.00114146 -9.70066e-19)
(-0.152823 -0.654958 1.68519e-17)
(0.00860008 0.00424611 -9.99574e-20)
(-0.0748994 -0.000811089 -2.21004e-18)
(-0.00552882 -0.0134639 1.7655e-19)
(-0.000982481 -8.80251e-05 9.5641e-19)
(0.000760605 -0.000106829 -9.58574e-19)
(0.00194644 -0.0114265 6.17735e-20)
(-0.00641359 0.00135038 5.98789e-19)
(-0.00174858 0.00572245 -8.54788e-19)
(-0.00409122 0.00267254 1.0718e-19)
(-0.0390686 -0.0757566 2.00976e-18)
(-0.0124808 -2.34335e-06 -5.09516e-19)
(-0.00523849 -0.00183972 6.80937e-19)
(-0.00221034 -0.012191 -1.15988e-18)
(0.00057918 -0.000109558 2.10973e-19)
(0.00544801 0.00139316 -6.34526e-19)
(0.00198846 -0.000120978 5.17107e-19)
(0.000873251 -0.000258027 4.05517e-19)
(-0.000315615 -9.7257e-06 2.63693e-19)
(0.00881066 0.521885 -1.00272e-17)
(-0.00862898 -1.25823e-05 -2.25218e-19)
(-0.0853564 0.0405992 -2.30823e-18)
(0.00122417 -0.000291905 1.37177e-19)
(0.00647132 0.00465577 -1.03191e-18)
(0.000700209 0.000244129 -6.08947e-22)
(-0.000419253 -3.67431e-05 3.08102e-19)
(-0.000150965 3.82372e-05 1.67817e-20)
(0.00418854 0.00089611 1.39764e-18)
(-0.00148507 -0.0104662 2.02328e-18)
(-0.0019776 0.00450141 -6.33263e-19)
(-0.0040838 -0.00145644 -2.7099e-19)
(-0.000966014 -0.000485911 -1.60024e-19)
(-0.00448328 -4.32822e-05 9.85868e-19)
(0.00193978 -0.00215612 2.42639e-19)
(0.0162142 0.00832787 4.64689e-20)
(0.00091558 0.00012225 1.42214e-18)
(0.00282941 -0.000113443 -7.09326e-19)
(0.0620829 0.168828 -1.05097e-18)
(0.00181771 -0.000872019 1.90467e-18)
(-0.00209216 0.000760404 -6.34904e-19)
(-0.034338 -0.0653669 2.86087e-19)
(-0.00819662 -0.0159406 5.20595e-20)
(-0.000531747 -1.04274e-05 -2.62033e-19)
(-0.000711056 -1.88181e-05 3.5165e-20)
(-0.00818269 0.00134023 4.38141e-19)
(0.00218745 -0.00182183 1.82145e-18)
(-0.00156467 0.000273965 4.38479e-19)
(-0.00499554 -3.67545e-05 7.09835e-19)
(-0.0096648 3.98414e-06 -2.72056e-19)
(0.00230233 0.00271556 -6.08096e-19)
(0.0014471 -0.00108691 -9.11273e-19)
(0.00054089 -0.000443115 1.06813e-18)
(0.00860889 -0.0206598 6.45784e-21)
(-0.0215715 -0.00712057 -2.59266e-18)
(-0.000232352 4.16177e-05 -5.30266e-20)
(-0.0958117 -0.0479596 5.89023e-20)
(0.00349429 0.0112609 1.12069e-20)
(0.000253142 -0.00016584 -2.5948e-19)
(0.00577786 -0.000326833 8.54904e-19)
(0.00206359 -0.00111647 -1.05096e-18)
(-0.0246799 0.0588608 1.97653e-18)
(-0.00411895 -0.000499505 -8.65663e-19)
(0.148834 0.172116 2.40637e-19)
(-0.00156822 -0.00102029 2.86009e-19)
(0.000917901 -0.000657178 -5.69932e-19)
(-0.016184 -0.0102743 6.79876e-19)
(0.000135586 -0.000107939 -2.65301e-19)
(-0.00406172 -0.00310938 -4.21116e-19)
(0.0403618 0.062537 2.25595e-19)
(0.00361604 0.00497947 -4.76012e-19)
(0.000319051 -0.000223922 1.44315e-19)
(-0.276996 -0.0722164 2.13174e-19)
(0.00255672 -0.00118204 -1.03797e-18)
(-2.80949e-05 -7.01638e-05 4.27157e-19)
(-0.00282712 -0.00107103 8.91509e-19)
(0.00614512 -0.0129306 7.28857e-19)
(-0.00194147 0.00070718 2.23431e-19)
(0.00047861 -7.40407e-05 5.85274e-19)
(-0.00568249 -6.22553e-05 1.33806e-19)
(-0.000503182 0.000661487 3.15259e-19)
(-0.0349315 0.0370143 -5.15578e-19)
(0.000330348 -0.0103339 6.30732e-19)
(0.00497877 0.0103071 -1.58454e-18)
(0.0047593 -0.000230735 2.4253e-18)
(-0.00354118 -0.000933858 -1.72039e-18)
(-0.00269902 -0.000303471 -8.46022e-19)
(-0.00540937 0.00020962 -2.00967e-19)
(0.000219754 3.74144e-05 8.32555e-21)
(-0.00985962 -3.39965e-05 1.73258e-18)
(-0.0108956 0.0318745 -1.29801e-18)
(-0.00596365 -0.0575753 5.26018e-18)
(-0.000505236 -0.000802798 -1.4983e-19)
(-0.00807994 0.00656429 -3.63405e-19)
(-0.102112 0.0749152 2.89475e-19)
(-0.00585493 -0.000339706 2.28428e-19)
(0.00749735 -0.00605655 2.74601e-20)
(0.00669893 -0.00745425 -3.54183e-19)
(0.000240977 3.57164e-05 -1.37832e-20)
(-0.00920407 -0.0175528 -2.25354e-19)
(-0.0849858 0.0759794 -1.34871e-18)
(-0.00613362 9.50429e-05 -6.60125e-19)
(0.0612664 -0.0427255 -4.05637e-18)
(0.00079418 0.000548228 3.92669e-20)
(-0.135894 0.323749 -3.23801e-18)
(-0.00522986 0.00280764 -4.40523e-19)
(-0.0397752 0.101526 5.81507e-19)
(-0.00698709 -0.000201619 -2.44878e-18)
(0.00168385 -0.000483324 7.25564e-19)
(-0.000424672 -0.00106128 1.85873e-19)
(-0.0242453 -0.00411138 -6.7813e-19)
(-0.00357835 0.00855065 -1.04768e-18)
(-0.0377843 -0.0589741 1.38444e-18)
(-0.0576565 -0.0762703 2.28509e-19)
(-0.0995699 -0.0320804 1.98314e-19)
(-0.00507146 -0.00367981 -1.64623e-18)
(0.168239 0.0903208 -1.94784e-19)
(-0.00115767 0.00665683 1.32809e-18)
(0.00494566 6.48886e-06 5.04495e-19)
(-0.00334014 -0.0033128 3.08562e-19)
(-0.00743263 0.00667257 2.33119e-19)
(-0.00323445 -0.00257158 1.34761e-19)
(-0.000460233 0.000195801 6.56863e-19)
(-0.0183047 -0.00610516 -5.42172e-19)
(-0.00162036 0.00027872 2.30922e-20)
(0.00790255 -0.0215781 5.53245e-19)
(0.000468245 1.14845e-05 -8.95336e-22)
(-0.00631002 -0.00026159 2.56617e-20)
(-0.000899161 -0.000248639 1.24996e-18)
(0.0583419 -0.0664215 8.85449e-18)
(-0.00148954 -4.4975e-05 -3.20138e-20)
(-0.000819439 -3.86246e-05 -1.84773e-19)
(-0.00541479 0.000480423 -4.69542e-20)
(-0.00986675 0.00137986 -8.4962e-19)
(-0.0103461 -0.000120032 -3.72608e-19)
(-0.0078115 -0.000181722 2.19735e-18)
(-0.00575173 -0.000105527 -2.69617e-19)
(-0.00747264 -0.000338652 -4.41096e-19)
(-0.00846974 -0.000327553 -1.69181e-18)
(0.163228 0.0664726 -2.44503e-18)
(-0.00353136 -0.000108945 1.49129e-18)
(-0.038091 -0.086883 -4.28894e-19)
(-0.242355 -0.248434 -5.969e-19)
(-0.00325348 -0.000100843 -2.34672e-19)
(-0.000501019 1.01157e-05 1.18998e-18)
(0.00554754 0.00510237 -9.60965e-19)
(-0.00231879 0.000125385 2.38489e-19)
(-0.000988004 -0.000121293 -6.11743e-19)
(-0.00120265 0.000346213 1.86051e-19)
(-0.00183717 -0.00334975 6.0336e-19)
(-0.00417977 0.00263025 -2.88784e-20)
(-0.00855036 -0.000336248 -3.87687e-19)
(-0.00929876 0.00139057 4.26758e-19)
(0.00142631 -9.28565e-06 -5.38284e-19)
(0.00422356 -0.00113472 2.21054e-19)
(-0.00349655 0.000935644 1.15275e-18)
(-0.00456569 0.00206053 -5.89924e-20)
(-0.00252532 0.000167166 7.30818e-19)
(-0.00652721 0.00141284 1.40166e-19)
(0.0927678 -0.300114 -1.00511e-18)
(-0.00324924 -0.000259111 -5.24184e-19)
(0.0922836 -0.00298256 5.02988e-20)
(-0.00376303 -0.0005956 -2.3931e-20)
(0.00210447 7.59177e-05 1.15218e-18)
(-0.00478812 -0.00010359 -9.76281e-19)
(-0.00344734 0.000968334 -2.80402e-19)
(0.00381912 0.00895881 -3.84716e-19)
(0.00456881 0.0103325 9.38642e-19)
(-0.00205708 -0.000624024 -1.26748e-18)
(-0.000259335 0.000168264 4.54583e-19)
(0.000647281 8.29842e-05 1.0141e-21)
(-0.00260262 -0.000432721 1.19445e-18)
(0.000298441 0.000291484 -4.73774e-19)
(-0.00299415 -9.02477e-05 4.46763e-19)
(-0.00221162 0.000825308 -1.24763e-19)
(-0.000810661 8.57827e-05 8.67169e-20)
(-0.00648068 -0.000135934 1.96542e-19)
(0.000775032 -1.73335e-05 3.08612e-19)
(-0.00511954 0.000347214 -3.11095e-20)
(-0.00168866 0.000602067 -1.00869e-19)
(-0.0103006 -0.000334888 -2.07201e-19)
(-0.00124116 -0.00368481 -2.13293e-19)
(0.00149835 1.89405e-05 -4.57759e-19)
(-0.0043352 -0.00037571 -1.18839e-18)
(-0.00479498 -0.00012118 5.36371e-19)
(0.000744391 3.37219e-05 4.30342e-19)
(-0.00136515 0.00104451 -3.19751e-21)
(-0.000407887 3.07461e-05 9.40811e-20)
(-0.00141873 0.0010687 4.91938e-21)
(-0.00465008 -5.07608e-05 -4.6094e-19)
(-0.00371278 -0.000209514 -9.29178e-19)
(-0.00146245 8.93814e-05 6.15392e-20)
(-0.00674555 0.00317835 5.81359e-19)
(-0.000158438 -3.55021e-05 2.30309e-19)
(0.00160157 1.509e-05 8.41211e-19)
(-0.00131261 -6.93352e-05 4.41744e-19)
(-0.0126114 -0.00369403 -6.83347e-19)
(-0.00275012 -6.41539e-05 -5.98979e-19)
(-0.000740859 -0.000540163 1.75972e-19)
(-0.00623511 -0.0157267 3.50655e-19)
(0.000736108 0.000573141 -5.17335e-20)
(0.000719705 -0.00151081 -7.11094e-19)
(0.0626595 -0.0781711 4.93701e-18)
(-0.00233203 -0.00257115 2.43702e-19)
(-0.000958107 -1.04087e-05 4.31103e-19)
(-0.000107186 3.98231e-05 -5.7343e-21)
(0.00948111 -0.0391247 1.86915e-18)
(-0.00352783 0.000930766 7.86876e-19)
(-0.00217489 -0.0141367 1.97855e-18)
(-0.113248 -0.033508 -1.69513e-18)
(0.024215 -0.0294162 4.54691e-18)
(-0.0581444 -0.0554157 2.98606e-19)
(-0.00088538 -0.00140497 1.06559e-21)
(-0.00207977 -5.12816e-05 -5.55897e-19)
(-0.0149533 -0.0663944 -1.62734e-18)
(0.000874381 -0.00104917 6.55103e-19)
(-0.000808 -0.000393394 1.42749e-19)
(0.0186002 -0.0169516 -3.53144e-20)
(-0.0180037 -0.0127163 1.2288e-18)
(-0.120013 0.0561582 -1.91036e-19)
(-0.00368587 -0.000116093 -4.20626e-19)
(0.00750885 -0.0151925 -1.04644e-19)
(-0.00248257 -5.91864e-05 4.10356e-19)
(0.000518199 -9.13153e-05 -5.41627e-19)
(-0.0619257 0.480377 -7.8251e-18)
(-0.00337558 -7.63378e-05 -1.40587e-18)
(-0.0836199 0.128563 -1.6045e-18)
(0.00105727 0.000862486 -3.93434e-19)
(-0.0232583 -0.00408568 -2.67332e-18)
(-0.00334896 -0.000292055 5.29279e-19)
(-0.00480371 0.0023327 -3.71011e-20)
(-0.00166705 0.000817892 -2.54093e-18)
(0.067128 -0.0542861 1.79954e-18)
(0.086813 -0.189564 -1.45475e-18)
(0.00413119 -0.000998557 -2.82569e-18)
(0.000770841 0.000765044 4.12672e-19)
(-0.000810705 -0.00245081 -5.4653e-19)
(-0.00403965 -3.44077e-05 -8.92149e-19)
(0.00509427 -0.00110166 -2.85325e-18)
(-0.00405122 -0.0137899 3.03397e-18)
(0.0427115 -0.189529 6.83462e-18)
(-0.00605238 -0.000262813 3.15423e-19)
(0.00761674 -0.00709092 2.59482e-19)
(0.00112159 -0.00104679 9.51461e-20)
(0.0108352 -0.0315722 -3.36702e-20)
(0.00578437 -0.00740268 -5.17808e-19)
(0.0426618 0.154361 1.73976e-18)
(0.00389079 -0.0224105 -9.0892e-19)
(0.00107989 -0.00116947 -3.07577e-19)
(-0.000194228 0.00153683 2.4808e-18)
(-0.0210625 -0.145248 1.02166e-18)
(0.00482205 -8.22224e-05 3.27034e-19)
(-0.00514606 -0.00012095 2.7081e-19)
(-0.000277116 -3.50691e-06 -1.3273e-18)
(0.000462261 -0.00201477 -4.57519e-19)
(-0.00141407 -9.42451e-05 -2.03665e-20)
(0.0321388 0.469774 2.68452e-18)
(-0.00126088 -0.000233597 2.0169e-20)
(-0.0485592 -0.0750746 8.61516e-19)
(-0.00838595 -0.000711417 2.35692e-19)
(0.00661464 0.00528081 1.76692e-20)
(-0.0152004 -0.0129726 1.18974e-18)
(-0.00470951 0.00024809 3.33418e-20)
(-0.0749775 -0.00415759 1.87729e-18)
(0.00632723 0.318678 -5.33295e-18)
(-0.00247562 0.000614469 4.0472e-20)
(-0.0521179 0.142956 -9.11255e-19)
(0.000444195 0.00105524 -1.79833e-18)
(0.0129918 -0.0245795 -5.66357e-19)
(-0.00140921 -0.000211226 8.33493e-20)
(0.000703875 0.000528557 -1.94925e-20)
(-0.0125378 0.00810716 1.50363e-19)
(-0.0018928 -0.000254598 -4.26448e-19)
(0.100084 -0.177371 1.94582e-18)
(-0.00339879 0.000110123 8.50896e-19)
(0.0259299 -0.0248671 2.52717e-18)
(-3.1704e-05 -0.000177339 -1.48102e-19)
(0.0115592 0.0036615 -3.11086e-19)
(-0.00285794 0.00738965 -5.84781e-20)
(0.000834598 -0.00122351 -7.24261e-20)
(-0.211632 -0.471188 3.00723e-19)
(-0.00781273 -1.81453e-06 -1.1158e-18)
(-0.00710943 0.000420341 3.16658e-19)
(-0.004097 -0.00263782 7.60909e-19)
(-0.0875037 0.215015 -4.4692e-18)
(-0.136472 -0.0624987 1.88753e-17)
(-0.00107936 0.00136635 -3.03431e-20)
(0.000153167 -0.000206565 -3.69009e-19)
(-0.000895548 -0.000571437 -8.74121e-20)
(0.0351461 0.0227381 -1.63112e-19)
(-0.0481134 -0.605065 -3.20117e-18)
(-0.00680799 -4.93741e-06 1.55961e-19)
(-0.00534383 0.000315901 -2.68068e-18)
(0.0092783 -0.00537563 3.90024e-19)
(-0.000977964 -0.00039775 -4.09867e-20)
(0.00148907 -0.00024148 -8.63782e-19)
(-0.0033031 0.00671262 -6.52427e-19)
(-0.100728 0.0961305 -1.73267e-18)
(-0.00209136 -0.00475518 5.2318e-20)
(7.99812e-05 -0.000265093 6.42003e-19)
(-0.000130961 -8.1051e-05 -1.07189e-20)
(-0.00447645 0.00104356 -2.14989e-19)
(-0.0527161 -0.075942 -3.64538e-19)
(-0.0993727 0.0613825 3.49207e-20)
(-0.00785405 -0.0102097 4.02749e-19)
(0.000439941 3.26655e-06 7.53249e-20)
(-0.00528292 3.67806e-05 1.01437e-19)
(-0.0100073 0.000884607 8.69129e-19)
(-0.0064969 -0.000104806 -1.48578e-18)
(-0.0562649 0.0981393 4.59762e-19)
(-0.0103966 0.00202779 -8.85075e-19)
(-0.0504833 -0.0697061 6.51206e-19)
(0.0124391 -0.00912735 -1.94093e-20)
(0.0177801 -0.022543 -1.53136e-18)
(-0.00339135 0.000677284 -7.90664e-19)
(-0.0047146 0.000277813 -7.26269e-20)
(-0.00506745 0.000804534 -3.95148e-20)
(-0.00368361 0.000477346 2.39269e-19)
(-0.00383147 0.00222891 -1.36551e-18)
(-0.00942989 -5.83944e-05 -6.87349e-20)
(0.00585033 -0.0166392 -7.24308e-19)
(-0.0154236 -0.0756273 1.41512e-18)
(0.000903771 -8.75168e-05 4.83688e-20)
(-0.00821208 0.322162 -4.43831e-18)
(-0.00475135 0.000993242 7.61235e-20)
(0.0274193 0.265155 3.58344e-17)
(-0.00625114 0.000197732 -3.77519e-19)
(0.00471406 -0.0288082 7.3316e-19)
(2.50612e-05 -4.90095e-06 6.03438e-19)
(0.000574183 -0.00303632 -5.50157e-19)
(-0.00462897 -0.000446637 -6.60503e-19)