/*--------------------------------*- C++ -*----------------------------------*\
| =========                 |                                                 |
| \\      /  F ield         | OpenFOAM: The Open Source CFD Toolbox           |
|  \\    /   O peration     | Version:  v2012                                 |
|   \\  /    A nd           | Website:  www.openfoam.com                      |
|    \\/     M anipulation  |                                                 |
\*---------------------------------------------------------------------------*/
FoamFile
{
    version     2.0;
    format      ascii;
    class       volScalarField;
    location    "200";
    object      ddt0(omega);
}
// * * * * * * * * * * * * * * * * * * * * * * * * * * * * * * * * * * * * * //

dimensions      [0 0 -2 0 0 0 0];


internalField   nonuniform List<scalar> 
9793
(
0.000969771
0.0168783
0.00120056
-8.44923e-05
-1.31777
-4.04135e-05
6.09714e-05
-7.02508e-05
-8.83021e-05
-1.26896
0.000879493
0.3025
-0.000113219
-5.1836e-05
0.000163937
-4.45634e-05
-5.05508e-05
0.000109294
0.500454
-5.49511e-05
-0.108824
-0.000208605
0.0199112
2.44164e-05
-0.000102764
-0.00014312
-4.93112e-05
-9.28842e-06
-0.000975671
-0.000114978
-0.00136186
0.0122924
-0.0016722
3.68723e-06
-0.00117393
-0.199725
3.95614e-05
-0.000195494
2.4548e-05
-5.03197e-05
-0.00124569
0.000156946
-0.000159745
4.65575e-05
-0.000178185
-0.000120282
-0.001064
0.0138828
-0.0115145
-5.95203e-05
-0.00122898
0.00169257
-9.54818e-05
-1.70659e-05
-0.00517526
-0.0104464
-3.27081e-05
-0.0102344
0.0343198
-5.4656e-05
2.5925e-06
-8.69588e-05
-0.0973036
-5.70511e-05
-0.651759
0.0286003
-0.065352
-0.248331
0.15349
0.00072733
0.032974
2.89271e-05
-0.000163341
0.0953882
-0.00140917
0.0273722
-7.90312e-05
-9.10165e-05
0.000179639
4.16118e-05
0.0289167
0.00025336
-0.00201708
-0.00213381
-0.00101248
0.0108098
4.54523e-05
-9.86449e-05
-2.50825e-05
0.000302519
0.0222009
0.0108106
-6.71778e-06
0.0130084
-8.78652e-05
-0.000872892
0.0318329
0.00366006
2.10374e-06
-5.53228e-06
-4.6566e-06
5.66019e-05
1.00134e-05
7.74753e-06
-0.000403283
-0.000953995
-9.33726e-05
-3.41266e-06
-2.56712e-05
-0.176649
2.766e-05
0.360865
0.00018132
-0.04915
0.00171213
-6.71037e-05
-0.00661048
-0.00140409
0.000399486
0.00822848
-0.199782
4.19706e-05
1.64624e-05
-7.40237e-05
-4.54649e-05
0.119749
-0.000445374
0.0134931
0.000260095
-8.95616e-05
2.48582e-05
-9.95064e-05
-0.000108852
-4.41716e-05
-5.42882e-05
-8.51116e-05
-8.20024e-05
4.28558e-05
0.000117765
-9.56295e-06
-1.78927e-05
-0.000122852
-2.60286e-05
-2.42053e-05
-6.09686e-05
-0.000137221
0.100783
-2.36424e-05
4.01059e-06
0.0967915
-0.33695
2.22016e-05
-0.265794
-1.12895
3.56717e-06
4.16373e-05
-2.85995e-05
-0.000121443
-1.16085e-05
-2.8356e-05
-9.44658e-05
-8.52884e-06
-4.06963e-05
-0.308893
0.117555
-0.328156
0.0199622
-0.000314678
-4.39557e-05
-7.03792e-06
4.15865e-05
0.109111
0.0813243
-0.0136391
-7.55631e-05
0.202802
-8.59123e-05
1.43108e-05
-5.995e-05
-0.000414855
-5.78631
-0.000120104
-1.26863e-05
-0.00012359
-0.154308
-0.000114074
-0.00636697
-6.00207e-05
4.06108e-05
-4.02802e-05
-7.11621e-05
-0.000137961
-0.0309256
0.249012
-0.241814
-0.000420583
0.0337178
7.11011e-05
-0.898015
-8.4709e-06
-4.158e-05
-1.26109
0.00522389
-6.58904e-05
-6.92782e-05
-1.56997e-06
-0.147938
-2.88404e-05
-0.000582677
-0.000247526
-0.000586455
-0.0208867
0.00759719
-0.000104117
0.0809431
-2.28333e-05
-4.0481e-05
-0.138698
0.000125958
-0.495316
-3.49358e-05
-9.58293e-05
-4.51918e-05
-0.000165919
-0.00543555
-0.742796
-4.33016e-05
-6.7882e-06
-0.000200928
-3.31693e-05
2.08626e-05
1.95915e-05
-0.000204725
-1.04157e-05
-0.000382062
-0.465738
3.74529e-05
2.99288e-05
0.0784206
0.000115092
-0.000604018
-2.6625e-05
2.7413e-05
0.0126951
-3.34218e-05
6.85895e-06
-7.60523e-05
-0.000113935
1.00967e-06
3.21922e-06
-4.44989e-05
-0.00019268
0.00059324
-0.000550033
4.91521e-05
-0.000125589
7.21345e-06
-0.000233651
-7.42177e-05
-3.04827e-05
-0.0616956
-4.82268e-05
0.000471703
-4.44755e-05
-0.000334551
5.7832e-05
6.14569e-05
-0.000600545
-1.65871
3.10397e-05
-3.05448e-05
-8.41368e-06
-0.000142789
-0.000115719
0.0325054
0.0342163
-0.000140506
0.28536
-0.000208383
-0.000548611
-9.98024e-05
6.51176e-06
3.48735e-05
-4.83248e-05
-0.000434168
-0.000106117
-3.84904e-05
-0.00030877
2.32917e-05
-7.14889e-05
0.000106656
-0.0029522
7.90498e-05
5.11199e-05
1.1286e-05
-4.32282e-05
-9.55128e-05
-0.000377149
-0.000187068
-0.984887
2.48515e-06
-0.0819745
0.0796796
8.91749e-06
5.94027e-05
-3.09422e-05
-0.000165774
-0.000205946
-8.39867e-05
-0.0549032
-0.000251215
-2.98869e-05
-0.000201554
-6.35684e-05
-5.61693e-05
0.000263766
-0.0012526
-4.55336e-05
-0.000184767
-0.000241671
-6.21274e-05
0.123786
0.157861
0.112297
0.000107521
-2.63446
-0.000124363
0.0905086
-0.001172
-2.04262e-05
-0.000217613
-0.00140329
3.19298e-05
-0.000407326
0.00225
-8.79108e-05
-0.000174782
7.49596e-05
-3.61401e-06
3.69178e-06
0.00373653
-0.000121365
-3.62263e-05
-0.968038
7.88904e-05
-4.54946e-05
9.52143e-05
-0.000188242
-7.75073e-05
0.0404033
-4.29245e-05
-3.44682e-05
-4.6287e-05
6.01364e-05
0.164175
-3.42139e-05
0.000134213
1.25389e-05
-0.000447205
0.0240589
0.00235654
-0.00029783
-0.000140727
-6.15553e-06
0.197292
7.47557e-06
-0.0677097
0.00020037
-1.17767e-05
0.0541777
-0.00037515
0.511731
-5.54542e-05
-4.37492e-05
-0.290147
-0.000162774
-0.000119087
-0.00497292
-0.0002358
0.115154
-0.000144977
-0.000110445
-0.103223
-0.000250561
-0.000171709
-5.95676e-05
-5.01151e-05
-5.0608e-05
-5.49408e-05
-0.000165747
0.277245
-0.000143125
1.29611
0.0348913
0.179414
1.03682e-05
0.110018
-3.89088e-06
5.57732e-05
0.347033
0.0127466
-2.54663e-05
-6.0052e-05
-0.260135
-8.38084e-06
-0.011196
6.57537e-05
-0.000189767
-8.05119e-06
-0.000687115
-0.000139743
-0.000327397
0.0458182
-2.9287e-05
0.0115607
-0.000741966
-9.23157e-05
0.000467723
0.000155113
-2.63733e-05
-0.000145177
0.0610516
-0.000218667
-7.2805e-05
0.00291104
-0.000132503
-7.87677e-05
-0.000126776
-3.2261e-05
-0.000419012
-1.95861e-06
-7.47857e-05
-1.6871e-05
-0.00664383
-8.55327e-05
-0.009424
-1.9137e-05
-0.0767205
-0.000149374
2.74937e-05
9.97733e-05
-0.000156371
-0.0749146
8.96233e-05
0.157567
-4.25488e-05
-4.62038e-05
-0.000174257
-0.0624042
-0.00145271
-0.171025
-0.0212518
-0.000107517
1.76766e-05
0.000599806
-0.000420131
-0.000574681
0.00474214
0.00920851
-0.000251804
-0.000103731
-7.80125e-05
1.49091e-05
0.000285168
4.34324e-05
9.6686e-06
3.14724e-05
-0.0716332
-0.000362034
-0.114081
1.69282e-05
-7.97011e-05
1.18665e-05
3.78061e-06
-3.7994e-05
0.000241883
0.000401764
-3.40857e-05
-0.000393779
-7.9065e-06
-9.02508e-05
-0.000119851
-0.205375
2.54052e-05
6.18673e-05
0.114821
-0.000193197
-4.23091e-05
0.0474301
-0.102813
-6.67104e-05
-4.59884e-05
-0.00021321
-0.000121031
-4.15392e-05
-0.00010935
-0.000198789
8.14429e-05
3.15694e-05
2.18204e-05
0.0799806
0.000960609
-3.21905e-05
-0.164732
-0.000711372
-5.96455e-06
7.6055e-05
0.000233452
0.249773
-9.91554e-05
0.803512
-3.06571e-05
2.78013e-05
0.000308556
4.49648e-06
-0.000217643
0.0148398
-0.000176104
-5.37724e-06
1.38562
-0.000155541
-1.452e-05
-5.28119e-05
-0.00256947
-2.22849e-05
-4.2318e-06
-0.000115664
6.54723e-06
0.0149679
-0.000350056
-0.000516659
4.44203e-05
-6.5669e-05
-4.23768e-05
-0.000104853
8.84063e-06
-0.000203211
0.0458983
-0.00317977
-6.68653e-06
-0.000634809
0.0924522
-0.000128716
-0.00562833
0.00011336
1.01337e-05
0.000819549
-0.11336
-0.000122472
-0.0372382
1.54881e-05
0.00589994
-0.000276259
-0.122431
-0.00014023
4.5234e-05
-1.26799e-06
0.0218412
-7.43959e-05
0.10057
0.0325303
0.0540399
-0.00018231
1.02484
-0.000581525
0.000154212
-0.000285522
-0.000294011
-0.0674821
-5.7583e-06
-0.0409568
-2.20026e-05
-0.070113
2.61838e-05
-0.000142999
-4.30579e-06
-0.0567023
-2.05523e-05
-2.93388e-05
-0.000133497
-0.000240393
-0.000427009
-0.000158196
-0.00011823
-0.00016092
-0.00018084
0.651129
-6.7079e-05
0.0222555
0.231971
-6.01151e-05
7.55672e-07
-0.000173685
-5.2637e-05
-1.83452e-05
-3.92656e-05
-0.000154637
-0.00026404
-0.000204742
-0.000231564
1.51107e-05
0.000354422
-0.000104923
-0.000220757
-6.71847e-05
-0.000189186
0.016242
-6.94253e-05
0.0263071
-0.000209728
6.31189e-05
-9.81603e-05
-7.45183e-05
0.000472973
0.000952763
-3.36173e-05
-1.16431e-05
8.49193e-06
-4.2313e-05
-3.12293e-06
-5.98614e-05
-9.68888e-05
-9.99886e-06
-0.000146538
4.27484e-05
-9.82697e-05
-7.80023e-05
-0.000247579
-0.000169088
6.07068e-05
-8.00185e-05
-9.8366e-05
1.07901e-06
-4.06239e-05
-4.85514e-05
-4.38752e-05
-8.23933e-05
-7.89651e-05
-1.91324e-05
-0.00069643
-7.9976e-07
5.14929e-05
-2.30655e-05
-0.00981591
-5.05144e-05
-7.75282e-06
0.000305483
-4.07694e-06
-1.18514e-05
-0.00939662
-0.00010172
-3.01356e-05
-3.52315e-05
-0.00808822
-7.5122e-05
0.000143142
-0.00183318
-0.0299405
-0.0169852
-4.29532e-05
-3.95263e-05
0.0113052
-5.29395e-06
-7.92863e-06
0.11531
-0.106661
-0.0117372
-7.51054e-05
-0.00220177
-4.74155e-05
1.48969e-05
-0.0989091
-6.77088e-05
0.00605642
-7.02021e-05
0.00133687
-5.89819e-05
-0.000194011
-6.27063e-05
-0.0805286
-0.372217
9.15901e-05
-6.72446e-05
-0.000180881
-6.89608e-05
-4.14297e-05
0.000409769
-2.69646
-0.000120849
-0.00757449
1.65164e-05
0.00482824
-0.00744404
0.0258508
0.00549033
8.14162e-05
-0.000466633
-0.107761
0.000106058
-0.000104559
1.75741e-05
0.000198045
-1.85262e-05
-0.0105368
-1.7206e-05
0.0297313
-0.000239834
-0.0020981
0.00070695
-8.9883e-05
-0.0767483
0.00111784
-4.75465e-05
-0.103914
-0.000343811
-0.00321895
-1.82694e-05
1.81095e-06
-0.00853732
-4.38635e-05
-0.494494
-6.25671e-05
-0.00523269
-1.0197e-05
0.0140323
-0.00387985
7.41802e-05
0.892109
-0.000156539
-0.000179242
-0.000195883
-0.0574533
0.110005
8.39711e-05
-5.51042e-06
-8.25074e-06
-0.0104317
-0.579634
-0.000143257
-0.000282839
-0.00296086
-9.18144e-06
3.7518e-05
-6.6751e-05
0.00259646
-0.000245061
-7.5058e-06
-4.52201e-06
-8.23424e-05
-0.0131898
0.194814
-0.00328238
-5.23389e-06
-9.98127e-05
0.000731028
-0.000132881
-0.0965709
-0.000714046
0.0258559
-0.125147
-0.00409347
-5.35609e-05
-8.95043e-05
-0.00017723
-8.75086e-05
-0.000227802
-0.000193772
-0.00205434
0.0122975
1.02654e-05
-0.0110342
-8.97765e-05
-0.0820375
-0.000128353
-0.0697206
-3.34006e-05
0.00103472
-9.25499e-05
0.00765278
-0.00462312
0.00291934
-0.135225
-0.000124529
-0.000760576
4.58162e-06
-0.000200432
-0.000156125
-3.71135
-0.000182029
-0.00279189
-7.80738e-05
-0.000162326
6.60569e-05
-1.00583e-05
3.51943e-05
-0.000101784
0.220696
-5.63366e-05
-0.000206023
5.92073e-05
1.63739e-05
-2.35743e-05
-0.00132695
-2.05665e-05
-0.000126409
-5.08041e-06
-4.18167e-05
0.0449006
-2.31273e-05
0.0439406
4.88322e-06
-0.00685901
-1.42071e-06
-0.0247075
-3.4391e-05
0.414643
-1.49724e-05
-8.63496e-06
-0.000106331
0.0321259
-0.0111698
-0.0713746
-0.418422
0.0661455
-4.41745e-05
-0.000188637
0.0232812
-3.92913e-05
-0.036828
-0.078072
-0.00143015
0.00437596
-0.000198791
0.0904377
-0.000211307
-0.0039338
0.0166581
-0.000229126
-3.65221e-05
0.0733897
-1.17534
-7.95735e-05
-0.000107103
-0.000118353
-0.000166564
-0.00019364
-4.51735e-05
-6.772e-07
-7.7452e-05
-0.0255483
-0.000308182
-8.77736e-05
-0.0131728
-0.000106757
-7.27905e-05
-0.0828262
-0.939189
-0.000249611
-0.000254995
-0.00952845
-2.54994e-06
-4.38805e-05
0.0102305
-2.2043e-05
-0.000208619
0.108707
0.0812364
7.73983e-05
-0.0420915
0.0240888
0.0887532
0.143494
-3.39773
-0.000158888
-0.308054
-3.33545e-05
-9.43264e-05
-0.000135844
-1.89072e-05
1.70876e-05
0.970533
0.000115814
0.0671868
5.01475e-05
-0.000467404
-6.36123e-05
-0.000245329
-0.000232017
-6.25535e-05
-0.000713555
-0.000533185
-9.49918e-05
-0.000943814
-4.51431e-05
-0.00051447
0.00010037
-1.67368e-05
0.0357149
0.146722
-0.0546919
1.15381e-05
6.45414e-06
-4.46301e-05
0.000231754
0.351223
-0.000140141
0.178968
-0.000670486
-0.0638875
-7.36214e-05
0.000123732
-0.000276303
-0.000175206
-0.00308307
-8.87533e-05
2.96937e-06
-0.473379
-0.000718074
-1.78183
-0.00013643
-0.0289654
-0.0733763
-4.1451e-05
-0.000300884
-0.000278622
0.592034
5.87524e-05
-0.000214371
-0.0309376
0.000951441
-0.000111372
-0.00960133
-4.61463e-05
1.75354e-05
-8.02253e-05
-0.645343
-7.45263e-05
-0.000152012
-0.00812435
-0.000271424
-2.24013e-05
-0.000767127
-0.00027942
0.00763428
-0.000850195
-7.68523e-05
-3.38157e-05
-0.000105687
-5.07525e-06
1.70369e-05
0.0546789
0.00732377
-0.000277884
-0.0877533
-0.0238577
0.00187281
-2.32018e-05
0.000912709
-0.000116726
0.0561215
-0.000737759
-5.38805e-07
-0.216038
-0.0109281
-0.000121717
-7.11063e-05
2.23658e-05
-2.8796
-0.0990158
-0.000244145
-3.36436e-05
-0.00563691
0.0518993
-0.837535
-0.0375328
0.000117212
7.51498e-05
1.05473
0.0411478
-0.000114088
-0.000102252
9.26818e-05
-3.53559e-05
-6.05701e-05
-0.000165939
-0.941717
-0.00014723
-0.000206455
0.198571
-2.55965e-05
3.03426e-05
-6.62939e-05
0.10221
-6.80111e-05
-4.57664e-05
-0.00696075
-4.85324e-05
-1.18478e-05
-4.83223e-05
-5.59974e-05
-0.000147628
-0.00367228
-0.00355354
-0.000103166
0.0252571
-0.000221929
-0.00403271
-1.66264e-06
0.00059144
-0.000136872
-7.28933e-05
0.00830148
0.000231799
8.12332e-05
-0.000279334
-0.000120898
0.00893925
-0.00011707
-0.000101332
0.00421167
-4.63851e-05
-2.7098e-05
-0.135148
-0.000107692
-0.0119886
-0.000404777
-4.92474e-05
0.0451132
0.000449228
-0.000178625
0.25933
-1.45247e-05
-0.0339312
-5.25271e-05
3.70672e-05
-0.486924
0.0952406
-1.66295e-05
-0.000100408
-2.52202e-05
-0.000108563
-0.00610271
-5.86242e-05
-7.34521e-05
6.29567e-05
-0.0001686
-0.000112608
-0.000177596
-1.39826e-05
-3.50863e-05
-0.00011236
-0.0360855
-3.54963e-05
-7.21131e-06
-0.000293356
0.000163747
-0.0271994
-0.016416
-0.000279894
-8.76293e-05
-7.17862e-05
-0.000339051
-7.14376e-05
3.55411e-06
-7.24391e-05
-0.0360583
0.0484704
-4.09204e-05
-1.12999e-05
-0.00214272
-0.00128425
1.44057e-05
-0.00810446
-0.000856208
-9.28568e-05
-0.000115083
-1.42483e-05
-0.000111414
0.000227874
0.000343044
-0.000104466
0.0987196
7.93483e-05
0.00234669
-1.22989e-05
-5.54748e-05
-1.35278e-05
-1.2575e-05
0.0308174
-6.91772e-05
-0.00352769
-0.000324084
-1.27178e-05
-4.49687e-05
-0.00038915
-6.45402e-05
-7.6862e-05
-0.000398818
-2.60834e-05
0.449361
-1.29011e-05
-2.51244e-05
-0.0277677
-6.62416e-05
-0.000165763
0.000884925
-0.000115045
-0.000172914
-0.000101666
6.20893e-05
-0.058035
-2.26774e-06
-0.00172654
0.0155236
-1.15494e-05
-5.27961e-05
-1.33123e-05
0.00631432
3.4417e-05
-8.5748e-05
-0.000181853
-2.10004e-05
-0.000454873
4.18043e-06
-0.000338642
-0.000101531
1.28874e-05
0.0452133
-0.00800723
-7.44765e-05
-0.000128204
2.20347e-05
0.155345
0.000310023
-0.000245294
0.0059273
-0.0659414
-4.16126e-05
-0.00416264
-0.0816039
-0.000197812
-0.01654
0.000802158
-0.043945
-8.19806e-05
-0.000523875
0.00845162
-5.66962e-07
0.0419796
-0.150827
0.000109912
-0.574327
-1.22672
6.83718e-05
-0.0250297
-3.26107e-05
-0.000352313
-0.0014428
-2.45556e-05
0.0255066
-7.54978e-06
-0.000255152
-0.000602779
-2.46221e-05
0.00981919
-5.70091e-05
-8.00347e-05
-0.000318839
-0.000280755
-0.14058
1.13631
-1.63097e-05
-0.000200158
0.0979722
-8.32611e-05
-0.000240755
-9.13197e-05
-0.00672579
-0.0305019
-8.4413e-05
-5.68509e-05
-0.000189792
-1.27172
0.917546
-0.000391709
-2.07074e-05
-3.77688e-05
1.14753
-0.0646739
0.10935
-0.00020238
-0.000144303
-0.0002247
-5.99161e-06
1.32198e-05
-0.000142013
-5.12234e-05
3.21627e-05
-0.000172451
-0.00171571
-0.490924
2.74948e-08
0.0239198
-4.88658e-05
-0.377796
-3.34343
9.10601e-05
-0.0457449
0.72562
-2.89651e-05
-0.0269247
-0.0418375
-0.0229793
0.0246531
-0.000197083
-0.034763
-0.0340849
-0.00147313
-0.000181258
-0.0106643
-0.0366187
-6.76771e-05
-0.000201871
-0.00022127
-0.000154924
-0.00456972
2.1437e-05
-4.87268e-05
-4.09795e-05
-5.67474e-06
-1.34176e-05
-4.86688e-05
-0.000159721
-0.000118655
0.0515091
-5.043e-05
-0.0150584
-9.42878e-05
-0.000127458
-0.000151411
0.0640593
-0.11307
-6.85587e-05
-0.00153177
-2.51943e-05
-1.91748e-05
-0.000254111
-1.30925e-06
-7.33781e-05
0.00747663
-0.00016099
-0.00760164
3.72485e-05
-9.01026e-06
-0.00582287
-6.45942e-05
-0.000105157
-3.79768e-05
-0.000204531
0.170857
-0.00381749
0.00731262
0.060468
0.168639
-0.000101574
-4.59827e-05
-6.72376e-05
-0.000226985
0.00129652
-0.00999228
1.1779
-7.62861e-05
-0.00155938
-8.64381e-05
-0.013026
0.399055
-0.000240284
0.0782201
-0.195967
4.21518e-05
-0.0014114
-1.66091e-05
-4.74946e-05
-6.67255e-05
-0.00213781
-0.000209055
-2.30366e-05
-0.413656
0.010765
-0.000105921
-0.000195817
-0.000119256
-0.450924
-2.41394e-05
-1.25733e-05
0.56958
-5.78482e-05
-0.19375
-0.00039461
-0.00030844
-9.42547e-05
-1.92361e-05
-0.00327727
-2.4029e-05
-0.0160059
-0.000220201
-7.45191e-05
-8.45432e-05
-0.00203383
-9.70371e-05
1.1493
-6.40678e-05
-5.93132e-05
-0.000227678
0.00104821
-0.000241022
-0.000132098
-0.0303793
-4.44712e-05
3.24268e-05
-0.00475264
-0.0218274
-0.000212396
-4.73992e-06
-6.33858e-05
0.0180625
-0.000770432
-5.7561e-05
0.00350092
-4.19772e-05
-0.00610744
0.00434215
-0.000169001
-6.05685e-05
0.0056234
-2.79644e-05
-8.40194e-05
-3.17474e-05
-0.00251898
1.00519
-0.000760976
-4.0443e-05
-4.7794e-05
-0.000153571
-0.0887044
-0.000348604
-6.08069e-05
-3.64325e-05
-0.000160336
0.112165
-0.233189
0.30949
-7.21814e-05
-0.0125376
-1.67909e-05
-5.11595e-06
-2.51795e-05
-0.000160571
-0.00113278
3.42606e-05
0.00338433
0.0195824
-2.62132
-0.000226566
-8.05079e-05
-0.000129939
-0.00113492
-1.05931e-05
-5.13664e-05
-0.000174434
-8.12268e-05
-1.98661e-05
-5.91129e-05
-0.000115207
6.59699e-07
-1.812
-0.000182558
-2.70549e-05
-0.00029483
-0.00228734
-0.000307449
-0.0467607
-0.000142117
-0.000232507
-2.42763e-05
-0.000138895
-1.94401e-06
3.85807e-05
0.0160027
0.0041637
-0.000133151
1.25564e-05
-0.000119571
9.62085e-05
-0.000152507
-0.000417108
-9.62018e-05
-0.616304
-0.000253245
-0.000117414
-9.85087e-06
0.00380109
2.10962e-05
0.325183
-8.74544e-06
-6.20573e-05
4.95059e-06
1.02974
-0.000186153
0.00464326
0.950344
-8.10882e-05
2.24731e-05
-7.83407e-05
-9.07219e-05
-0.00109204
-0.000163544
-0.000228909
0.0814584
-0.000185171
-0.000999529
0.151134
-0.000171103
0.00908944
-4.9933e-05
-0.000292076
-4.87847e-05
-6.29172e-06
-1.68914e-05
-9.35566e-05
0.117126
0.00611321
-5.00359e-05
0.24811
0.014564
-6.55623e-05
0.00275543
-1.03518e-05
-0.000153888
-0.000116757
3.47518e-05
0.000362021
-4.90476e-05
-1.29017e-05
-0.000216969
-0.00112536
0.00085736
-8.11245e-05
-1.28741e-05
-0.000143622
1.05902
-0.0388686
-0.000289811
-0.000170045
-8.14945e-05
-9.93266e-05
0.0193095
-1.83192e-05
-0.00050049
-0.00237107
0.363953
-7.19685e-05
-0.000206905
-4.92024e-05
-0.000128743
2.72828e-05
-0.000321874
-0.000326915
-9.40391e-05
-0.000123277
-0.000299598
-0.000399773
-0.00427482
1.83888e-05
-0.000137899
-0.0133099
-0.000168146
-0.00123951
-0.000141839
-9.86335e-05
-6.04395e-06
-8.19177e-06
-0.00923748
-0.00233835
-3.1423e-06
0.000545407
-9.75124e-06
-0.000352415
-1.65158e-05
-0.000110841
5.77115e-05
7.42229e-05
0.000509157
0.000933525
-0.000243237
-9.47963e-05
-4.41252e-05
-8.23578e-05
0.0992833
0.000124122
-0.000118393
-0.000106183
-0.0106189
0.0853987
-1.01104e-05
-4.48655e-05
-3.40929e-06
-0.0235423
-6.31156e-05
0.10176
-7.31206e-05
-0.00027233
-7.67271e-05
-7.75256e-05
-0.00291205
-0.000123965
-0.000333124
-1.3625e-05
-0.000258913
-5.48634e-06
-0.000193576
-0.106428
-5.59286e-05
-0.0001111
0.0238907
-6.31675e-05
-6.29913e-05
-0.000106028
-3.12587e-05
-0.000147548
-8.19068e-05
0.00450526
-8.03445e-05
-5.65997e-05
4.73635e-05
-0.00142875
-0.00022207
-0.00137118
-3.36751e-05
-3.21908e-05
-0.00979934
-0.0581757
-0.00877449
-0.000105212
0.000207824
0.00277017
-4.26653e-05
0.00231298
3.82944e-05
-0.0209844
-5.54732e-05
-0.00359188
0.421046
7.09233e-06
-0.000197141
-4.79465e-05
-6.73505e-05
-0.000450604
-0.0421497
-4.28194e-05
-0.00109897
-0.000128005
-3.87995e-05
-9.8796e-05
-0.000345318
-0.000127495
0.0284813
-5.15911e-05
-4.73388e-05
-2.71816e-05
-8.95625e-05
-7.68615e-05
0.0370235
-0.449784
-0.020257
-4.65734e-05
-4.24393e-05
-0.000214259
6.62314e-05
1.95771e-05
-0.0296737
-0.000262668
4.18699e-05
6.53006e-06
-0.0185675
-0.000224357
0.00621101
0.0109565
-0.000187351
-2.23444e-05
-2.65175e-05
-0.0012435
0.0158686
-1.31149e-05
-6.27699e-05
0.000988489
-0.028434
-2.32875e-05
0.0446074
6.76892e-05
-0.000166406
3.28239e-05
-5.11726e-05
-5.2882e-05
-0.0015053
-0.00408505
-0.404925
-0.000231852
-0.00710297
-9.88309e-05
-5.66312e-05
-0.000194613
-0.00017028
-0.000133928
-0.000720729
-6.42917e-05
-0.000141964
-0.000138802
-4.41239e-05
-8.49774e-06
-1.56295e-05
-0.00034518
-0.0357497
2.60897e-05
5.21878e-06
-4.58241e-06
-2.77753e-05
-5.55871e-05
7.93215e-06
0.00751128
-0.000160816
-0.000151884
-8.99369e-05
-0.00676785
-0.000149854
-0.000187645
0.00455632
-0.000110587
2.58158e-05
0.611312
-0.000111811
3.55991e-05
-0.000216793
-0.12567
2.60236e-05
-0.00147212
-9.61388e-05
-0.555378
-3.84011e-05
5.0274e-06
1.72049e-05
-1.68606e-05
-0.000635763
-0.000232102
-6.5866e-05
-0.000238103
-0.000131
-0.0316637
0.000154169
-0.000510074
5.53989e-05
0.301391
-0.000320083
-1.65526e-06
-3.7072e-05
-6.27072e-05
-0.000156266
8.20728e-06
-0.0437117
-3.40937e-05
-0.00361611
-5.68838e-05
7.67151e-05
-0.0126521
-0.000106875
0.176558
-0.00185453
4.09535e-05
0.0315535
-4.21184e-05
-0.00021811
-0.000142206
-0.000107873
-8.38158e-05
-0.000114627
-0.000108159
-0.000133458
0.00923985
-8.62328e-05
-5.91863e-05
-7.7536e-05
-6.7717e-05
-9.98733e-05
-7.91011e-05
-2.11229e-05
1.63025e-05
-0.000142793
-8.88121e-05
0.000110965
-1.81421e-05
-0.000102971
0.0487553
-6.91027e-05
-0.000104604
0.00182396
0.00245227
0.000365453
0.0126901
3.69119e-05
7.29561e-05
2.88441e-05
-7.95901e-06
-0.0933512
0.00417144
-8.75747e-05
-8.92889e-05
-0.0162861
-5.33703e-05
-0.0442908
0.01621
-1.65639e-05
0.404034
-6.9368e-05
0.036833
-0.000220111
0.0164299
-0.405815
0.365114
9.49954e-05
-6.1205e-05
-0.000437078
-0.000224338
-0.00088787
-9.04566e-05
0.0612409
0.175546
-0.000275348
0.653609
0.000265546
0.00175648
1.6029e-05
4.16824e-05
-0.000267626
-0.000149146
-0.00015869
-0.00130233
-3.78612e-05
-0.000213343
-7.80467e-05
-8.08448e-05
-3.31759e-05
-0.000972073
-5.52555e-05
-0.000113311
-6.57451e-05
-0.681881
-0.000228829
-0.000118104
-0.490907
0.000129073
-0.00591026
-0.000103725
-0.000204556
-0.000107968
-0.000203593
0.00010435
-9.61859e-05
-0.000556317
-0.000257977
0.0017188
3.79998e-06
-0.00814173
-0.000795459
-0.00192247
0.0148295
-9.16863e-05
-0.000131418
6.90784e-05
-3.85052e-05
-0.0218104
-5.38918e-05
-5.64506e-05
-0.000162961
-3.9336e-05
-0.0625774
0.0415735
1.9197e-05
4.48562e-06
7.6625e-05
-0.00118239
-0.00989732
-0.00724445
-0.00029293
-0.000262587
-0.00329632
-0.00584935
-5.15161e-05
-5.85551e-05
-0.000104596
0.000214536
-0.000217583
-0.00195173
-1.89044e-05
-4.91671e-05
-0.000165392
-0.932569
-7.59464e-05
-0.000164936
-0.000109935
-0.00100157
-1.92908e-05
-2.81634e-05
-1.11889e-05
-5.95246e-05
-0.0320265
0.000227402
-0.000408967
5.73815e-05
0.11258
-0.000322243
3.32248e-06
-9.71706e-05
-0.0579677
-0.0818697
-4.64944e-05
-8.42207e-05
-0.177855
-0.000113006
-0.000123854
-4.12448e-05
-9.66913e-06
-0.00142043
0.000134128
-1.05491e-05
-1.43658e-05
-2.02807e-05
-0.000194711
-6.76533e-05
-2.56597e-05
-6.78925e-05
-4.10592e-05
-0.0140553
2.20187e-05
-2.18088e-05
0.000916003
-0.000891819
-0.000974742
-0.00393331
-4.61406e-05
0.398304
-0.000182981
-0.00162844
-2.91218e-05
0.0163717
-7.44432e-05
-0.000127805
5.7728e-06
0.00750119
-4.1569e-05
-9.62939e-05
0.00146291
-0.000153001
-3.24453e-06
-0.000115512
-0.000308057
-0.000353924
-4.88463e-05
-0.00996164
-8.4413e-06
-0.00093952
5.29488e-05
-7.5759e-05
-0.000269495
7.13584e-05
-1.70164e-05
-0.000127659
-0.130722
0.00473691
-0.0816668
-0.00204394
-7.47812e-06
-0.000126129
-0.0057018
-0.000216759
-0.000150271
-1.84717e-05
-0.143614
0.00681748
8.55805e-05
-0.000852399
-2.0868e-05
-0.000117244
0.0494196
2.61969e-06
-0.00011437
0.37124
-0.00125588
-0.0225662
-3.89213e-05
-0.000122491
-0.000271961
-4.21503e-05
-0.000702439
-0.0231422
-0.000158484
-0.0810608
-0.0222687
-0.0795207
-9.33062e-05
-5.98897e-05
-1.77928e-05
-1.51706e-06
7.85667e-05
-0.000187611
7.66611e-05
0.000387971
-4.03173e-05
-0.00071381
-4.31809e-05
-8.86724e-05
-1.62391e-05
-0.132472
-5.27758e-05
4.99327e-05
-0.0125813
0.0552041
-0.000164512
0.00361946
4.8814e-05
-0.000117846
-7.17576e-05
1.78284e-06
-5.73529e-05
-0.000389414
0.00391609
-0.000106461
3.80867e-05
9.53384e-06
-9.3264e-06
-7.91895e-05
-0.00013378
-0.000181349
-0.000106981
9.33047e-05
2.91667e-05
-1.70308e-05
0.00589835
0.00012283
5.84693e-05
-0.0012472
3.22277e-05
-2.4173e-05
-0.00838675
0.0142076
0.0262241
0.00682814
-0.00215805
-4.92544e-06
-3.09075e-05
-0.0141153
0.405813
-0.0399061
-0.151433
-0.00141162
1.56115e-06
-0.0130889
-0.00925621
-5.87949e-05
0.0030093
-0.000104653
-0.0860679
0.00321136
-0.131832
-3.1477e-05
4.80983e-05
-0.000932773
-9.85355e-05
-8.19363e-05
0.0835761
0.269691
1.64637e-05
-9.24362e-05
5.5136e-05
0.0379033
-6.97148e-05
-5.87443e-05
-0.000155265
9.61751e-05
-0.000124152
0.00331263
-8.05336e-05
-1.64886e-05
-8.81678e-05
-3.22268e-05
-0.00262296
0.0384867
-0.00014772
-7.46553e-05
-0.000163287
-8.44841e-05
-4.57192e-05
-3.46621e-05
-0.162912
-0.00015769
-0.000910482
-5.60034e-05
3.19357e-06
-8.25852e-06
-0.000120641
-0.0264918
-0.00292641
-8.78359e-06
3.76766e-05
-0.00784417
0.0389713
0.00460599
-0.0685226
-4.06857e-05
0.000117105
-0.000111505
-8.87605e-06
-7.27292e-05
-6.31055e-06
-6.72455e-05
-5.706e-05
-1.86529e-05
0.0204096
-4.73684e-05
-0.0128752
-0.109419
5.44595e-05
0.0213814
0.000230364
-7.49994e-05
-1.93762e-05
-0.00020288
-7.30491e-05
4.29251e-05
0.0607605
-8.75449e-06
1.68093e-05
0.0385295
-0.000113719
3.16903e-05
6.75465e-05
-0.0191304
-0.000131843
-8.50306e-05
0.256808
-6.93344e-05
-8.03038e-06
-7.06502e-05
-0.000345999
-6.48951e-05
1.109e-06
-0.000115683
-7.32083e-05
0.0780676
0.00141229
-0.000118349
-0.00831568
-1.55168e-05
-6.72106e-05
-0.000135333
-0.127492
-0.665431
4.14885e-06
-0.000197295
6.72624e-05
-0.000104947
-7.04515e-05
-2.387e-05
-0.00575002
0.0364914
-0.000114006
-0.000113809
0.000565264
4.93214e-05
-5.27174e-05
-4.61657e-05
-4.44577e-05
0.168141
-0.00011676
-2.12487e-05
-0.15743
-0.000153244
6.25875e-05
-0.0171028
0.192423
-3.47415e-05
-6.13805e-05
5.10007e-05
-1.7536e-05
-2.18898e-05
-0.00539245
-7.96982e-05
0.0858799
-0.0410915
-9.79119e-05
-5.59986e-05
-0.00772747
0.000300882
0.0402002
-0.00421108
-0.0163979
-5.41402e-05
-4.93949e-05
-2.72035e-05
0.0037452
-8.02627e-05
-0.112937
-4.91301e-05
7.72074e-06
-4.24181e-06
3.49035e-06
-0.000131202
0.128027
-1.76024e-05
0.0426534
0.0192041
0.00104745
-0.0417085
-1.26329e-05
5.77877e-05
-0.000241933
-0.0453777
-6.22332e-05
0.0394099
-1.53886e-05
6.91705e-06
-7.99914e-05
-0.00511669
-4.32289e-05
0.00244992
0.000958195
-0.000119949
0.00351296
-0.000119425
-0.00508118
-0.000633667
-7.27511e-05
2.9122e-06
-0.00200509
0.000389592
-0.000117942
-0.000229815
-4.86656e-06
-9.46731e-05
-5.43141e-05
-0.0452719
-2.08381e-06
0.000234281
0.000503922
8.64915e-07
0.00149506
-4.29862e-05
-0.000102461
5.93888e-05
-0.00893156
-5.2549e-05
-3.59073e-05
1.10734
0.00415537
-0.338393
-9.13116e-05
-4.8732e-06
-0.000936127
0.00808356
0.196957
0.0287564
0.000145132
-0.000128473
-8.02475e-05
-1.44114e-05
-0.000173397
-0.00014011
2.19117e-05
-1.05123e-05
0.0162332
-0.000155113
-5.8647e-05
1.17977e-07
-9.43616e-05
-8.92073e-06
-6.15316e-05
0.00144167
0.0559297
0.054493
0.0015248
0.0812691
-0.0106088
1.19468e-05
-8.19915e-05
-8.3519e-05
-0.000982345
-1.09641e-05
-9.87553e-05
-7.09059e-05
2.00503e-06
-9.61164e-05
0.000374802
-5.36073e-05
-0.104557
-0.000143896
3.03678e-05
0.0710778
-4.40177e-05
-0.000104583
7.73479e-06
-5.24801e-05
0.126382
-0.0314732
-8.61456e-05
-1.96206e-05
-5.68281e-05
-5.30293e-05
-6.4739e-05
-6.82153e-05
0.0118442
9.19949e-05
-5.12231e-05
-0.00265387
2.34596e-06
0.000149015
4.60474e-05
-0.000104507
-7.38018e-05
-0.00288412
-0.383499
0.114396
1.06734
-5.76943e-07
-9.54828e-06
-3.85118e-05
-0.000262251
0.00590834
-3.97835e-05
-0.214005
-0.0945892
-8.5321e-05
-0.00192118
-0.00623961
-1.44906e-05
-0.0124332
-0.00175246
0.964332
-9.68733e-05
-8.17184e-05
-6.91966e-05
-0.000120282
-5.98176e-05
-0.0262929
0.00389698
-0.200354
-4.39507e-05
4.4544e-06
-4.838e-05
0.049236
-0.000484435
0.112495
-4.09286e-05
-8.88629e-05
-0.332022
3.33456e-05
-0.0869092
-0.540852
-6.40071e-05
-9.36369e-06
-3.68027e-06
1.12382e-05
0.0148388
0.0652841
-5.32777e-05
-7.63428e-05
7.52933e-06
-0.00650105
-5.93871e-05
-0.000280109
-0.00873412
0.00210043
-0.194518
-0.0068909
0.0532965
-0.000125983
-0.000357561
-9.88724e-05
-6.35294e-05
-0.000269982
-0.00048062
4.63991e-06
-4.9001e-05
-0.334754
-0.000142867
-0.000102726
0.0521748
9.72336e-05
2.17755e-05
-0.242362
0.0484139
1.69487e-06
-1.68811e-05
-0.0015414
-0.0030987
0.000957229
-0.00520678
0.000275752
0.027891
5.2019e-05
-0.000422557
-0.00564876
0.00956097
-0.328015
-5.91091e-06
0.0547767
-0.0034751
-2.01619
4.76957e-06
-7.14608e-05
-1.40524e-05
-0.000203647
0.000673733
-0.000113001
-0.00151692
0.000431767
-0.000100606
-0.000119104
-0.0342133
-0.000142901
0.102131
-0.00036111
3.11282e-05
0.00289725
-0.000810546
0.00139726
1.26159e-06
-0.000117765
-0.000126875
-0.00157422
-6.45127e-05
0.00128888
0.331987
-0.000625058
0.251558
-7.08346e-05
-0.0190703
1.5311e-05
-0.000323694
7.24043e-06
-0.114238
1.46046e-05
-1.80889e-05
-0.000123094
0.0244878
-7.88344e-05
0.0105841
0.0981859
-0.000327961
-0.111228
-0.000151126
8.07268e-06
-0.480153
-0.00107549
0.0342409
-0.108806
2.96143e-05
-0.0530944
0.0360607
-0.00155095
-4.34249e-05
-0.0404197
0.0133518
-8.0919e-05
-0.000442583
-7.04086e-06
0.157713
0.0137508
-0.0114235
-0.0780325
-7.34597e-05
-6.83788e-05
-9.92543e-05
-1.2938e-05
1.22991e-05
1.85233e-05
-0.000102593
-2.89739e-06
-0.0681848
-0.000144694
-8.92352e-05
0.000261564
0.0845342
-0.00447283
-0.00521271
0.0014393
8.27721e-07
-0.0864119
-7.21528e-05
0.105334
-0.00018127
-0.000578252
2.23405
-6.91103e-05
0.140187
2.92602e-05
-2.48053e-05
-7.1867e-05
-4.88004e-05
1.44164e-05
-2.25207e-05
-9.29639e-06
-0.721738
5.55891e-05
-7.12499e-05
0.172873
-4.69643e-05
-7.76714e-05
-4.05893e-05
-0.0364977
6.93853e-05
-9.54177e-05
0.0607282
0.238492
-0.000125863
-5.80158e-06
0.0178292
-0.000142533
-0.0109924
-0.242804
-7.48845e-05
-8.68643e-05
-0.000455483
0.157493
-0.00382293
-2.22752e-05
-5.95846e-05
8.15669e-05
-9.1785e-05
-0.000275796
0.0219377