/*--------------------------------*- C++ -*----------------------------------*\
| =========                 |                                                 |
| \\      /  F ield         | OpenFOAM: The Open Source CFD Toolbox           |
|  \\    /   O peration     | Version:  v2012                                 |
|   \\  /    A nd           | Website:  www.openfoam.com                      |
|    \\/     M anipulation  |                                                 |
\*---------------------------------------------------------------------------*/
FoamFile
{
    version     2.0;
    format      ascii;
    class       surfaceScalarField;
    location    "200";
    object      meshPhiCN_0;
}
// * * * * * * * * * * * * * * * * * * * * * * * * * * * * * * * * * * * * * //

dimensions      [0 3 -1 0 0 0 0];
oriented        oriented;


internalField   nonuniform List<scalar> 
14516
(
-0.00326512
-0.00971973
0.0133456
-5.04376e-06
-0.000154138
0.000184108
0.0110839
-0.0139599
0.00626867
-0.00819946
0.00139464
0.0170872
-0.0117089
-0.0051646
-0.0164938
0.00204766
0.0145098
-0.000150681
2.58729e-05
0.000442899
-0.00385352
0.00289946
0.000402463
0.0128746
0.0012493
-0.0143823
0.00710924
0.0102169
0.0126101
-0.0155846
0.00309803
0.0126327
-0.000924063
-0.0116938
0.00641388
-0.00104317
-0.000133673
-0.00212233
0.00215873
0.000558321
0.000389484
-0.00190858
-3.99921e-05
0.00189009
-0.00804305
0.00263285
0.00508589
-0.0027508
-0.00523887
0.0155131
-0.0015542
-0.0138271
-0.00214041
-0.00119433
-0.0139974
0.0151869
0.0019097
-0.016417
0.0141154
0.00489986
-0.00166135
-0.00324265
2.12131e-05
-2.12131e-05
0.0105299
-0.00143379
-0.00909719
0.00403549
0.00122306
0.0016692
1.43364e-05
-0.00170948
-0.000159033
-0.00506663
0.00493105
-0.0190267
0.006384
0.0128306
0.0135372
-0.00103942
0.0140492
-0.0165197
0.00267298
0.000962746
0.00395425
0.0067105
-0.00139018
-0.00509792
-9.33801e-05
-0.000102532
7.50506e-05
0.00704577
-0.0216772
0.0147229
0.0158581
-0.0017678
-0.0139665
-3.00856e-06
-6.78788e-05
-0.0142457
0.0157554
0.00678878
-0.00490185
-0.00171258
-0.000234768
0.00094518
-0.00121711
0.0181423
-0.00397615
0.00183807
-0.000369815
0.00246271
-0.00431858
0.000819629
6.61258e-05
-0.000390392
0.000498247
0.00207515
-0.00108848
-0.00110881
-0.0119267
0.000223551
-0.00232927
0.00208128
-0.00191137
-0.0126639
0.0143302
-0.00208589
-0.00646315
-0.00995311
-0.0116238
0.000239287
-0.0126626
0.0124494
0.0164758
-0.00392414
-0.0126795
-0.0186558
0.0193445
-0.000753153
0.00165888
-0.010436
0.00877843
0.014178
-0.0144128
0.000429068
-0.00918423
0.00972351
-0.0123122
0.00314042
0.00920811
0.0120432
0.000418599
-0.0121676
0.00441011
0.00205099
1.74232e-05
0.000294935
-0.000506546
0.016966
-0.00266527
-0.014468
0.0125771
-0.0143836
0.00177765
0.000611785
-0.00146659
0.00038852
0.00985737
0.00516194
-0.000811293
-0.00622439
0.00701438
0.0157996
-0.00316117
-0.0135789
0.0150448
-0.00156575
0.00172729
0.010923
-0.00101122
0.0136487
-0.0102825
0.0119328
4.08436e-05
-5.22034e-13
-4.3143e-05
0.0112968
-0.00224458
-0.00999878
-0.00055136
0.000457793
7.23087e-05
0.00453719
-0.0143336
-0.000264998
0.0125653
-0.001423
-0.0111837
0.0122164
2.60947e-05
-2.75996e-09
-2.04333e-05
-0.00531077
0.00122623
0.00377656
-0.00753415
0.00222157
0.00508036
-0.00531989
0.00450797
-0.00556322
0.00125955
0.00419595
0.000109513
2.72343e-07
-8.86984e-05
-3.76178e-05
-0.00300284
0.00300479
0.0167577
0.00138954
0.000192366
-0.00243883
0.0022601
-0.00539231
-0.0024712
2.86247e-05
-0.012643
0.012171
-0.0152269
0.0159467
-0.000690482
0.00563771
-0.00127857
-0.00435407
-0.000311561
0.000328592
-0.00138392
-0.0116711
0.013107
0.00367597
-0.00296675
-0.000751699
0.00489743
-0.00392959
0.00155773
-0.00322639
0.00315365
0.0145266
-0.000310066
0.000134945
9.73874e-06
0.00107585
0.00261132
0.000402598
-0.00183759
0.00140367
-0.00144165
0.00181561
0.00679812
-0.00121955
-0.00564182
0.00497404
-0.00102832
-0.00389965
0.00392216
0.0010821
5.72538e-05
1.93916e-06
0.0178159
-0.00119941
0.0182684
-0.00254625
6.64955e-05
-2.86856e-06
-0.000221626
0.0138057
0.0027497
-0.000388934
-0.00177971
0.00208918
1.71014e-07
3.67594e-05
0.000508547
0.0129919
-0.0136587
0.0153693
-0.0116685
-0.0033393
0.0164795
-0.0128322
0.0121032
-0.0118386
-0.0109232
0.000946237
-0.00568275
0.00494278
-0.00971212
0.0144092
-0.000996497
-0.00465847
0.00421047
0.000799343
0.00156011
-0.00202277
-2.84819e-05
6.49645e-06
7.00792e-06
0.0158551
-0.0162835
0.000510373
-0.000578019
-0.0159066
-0.00081507
-0.014931
0.0156381
-0.0142633
0.0130638
-0.012097
0.00287282
0.00934596
0.00274114
-0.00253391
-0.000891016
-0.0046717
-0.0149208
0.00374061
0.0107178
5.45215e-06
4.16231e-05
-5.12841e-05
-0.0115752
-0.00740097
-0.0079971
-0.000752491
-0.00660416
0.00710086
0.0105948
0.00278705
0.0005353
-0.0131506
0.0122365
0.0003864
-0.00041309
-0.000582383
0.000804758
0.00168967
0.0143747
0.000389544
-0.000421851
-7.45295e-06
9.63288e-05
0.01568
0.0105238
-0.00103832
-0.00957761
3.33844e-06
-0.0005122
0.00030031
-0.000374381
0.00160185
-0.00137089
-0.00232639
9.12267e-05
0.000180987
0.00230309
-0.00254189
4.70762e-06
9.23391e-05
-7.33877e-05
0.00151938
-0.00205327
0.00486335
-0.00137583
-0.00346061
0.0106281
-0.0119698
0.00965128
0.00221816
-0.0116542
-3.37885e-05
3.442e-05
0.0127901
-0.00286227
-0.00522736
0.0125877
0.00131472
0.00356922
-2.19769e-05
-1.57789e-05
-3.5434e-05
0.000357233
-0.000301881
0.00141598
0.0089983
-0.000407816
0.00184052
0.000301256
-0.00048909
-0.00347004
-0.000995142
0.00427486
-0.00469766
0.000110602
0.00141087
-0.00160443
-0.00293915
0.0177894
-0.0148541
-0.000343723
0.000123315
0.000258583
-0.0164558
0.00269831
-0.00223514
-0.0205311
0.0188564
0.001635
0.00174105
-0.000115387
0.00100082
-0.00646131
0.00521422
-0.0142529
0.00433353
0.0102325
0.00380585
-0.00739081
0.00370615
-0.000211154
-7.52653e-05
-0.0030747
0.0070915
-0.00169619
-0.0135963
0.015085
0.0125677
-0.0124796
2.12023e-05
-6.98522e-06
-2.35912e-06
0.00232669
-0.0113957
0.00877455
0.0213943
-0.00989792
-0.0115571
0.0110039
-0.00826162
-0.00270518
-0.0147495
0.0135802
0.00103114
-0.00193451
0.00939233
0.0121177
0.00025267
-0.0121188
0.0105549
6.47779e-06
-0.0027051
-0.00952349
-0.00806071
0.0101025
-0.000377633
0.0155539
-0.0149755
-0.00153792
0.00156821
-0.0157425
0.0138521
0.0134997
-0.000212666
-0.0140264
0.0127678
-0.0149416
-0.0128929
0.0132566
0.00204746
0.00512024
0.0160997
-0.018458
0.00466209
0.0139083
-0.000518851
-0.0048517
0.00526492
-0.0132072
0.00825633
2.34187e-05
0.000357063
0.0125316
-0.00203822
-0.00547681
-0.0101571
0.0157271
-2.40825e-05
-0.0140832
-0.01238
0.00941849
0.00265301
-0.000913123
-0.0125081
6.85267e-05
1.28023e-06
-0.0006307
6.90428e-05
0.00175775
-0.0019645
0.0158036
0.00171616
-0.0172233
-0.000410107
0.0171308
0.000925545
0.0143872
-0.0152352
-0.000916511
0.0133454
0.00143176
-0.0142302
-0.0140825
-0.00491272
-0.00821711
-0.0101562
0.000354291
-0.000370135
-0.000790619
-0.00550692
0.00594127
-0.000717321
0.0130083
8.07992e-05
-4.24985e-06
0.0138048
-0.0129847
-0.000732881
-0.000910399
0.014425
-0.0130623
-0.00529402
-0.0100268
0.0148425
-0.0145041
4.53171e-05
0.0123606
-0.000115611
-0.00290754
0.0123549
-0.0146028
0.0167216
-0.00459386
0.00339826
0.00114016
0.0120701
-0.0125806
0.00134267
-0.0127978
0.0114502
7.1684e-06
3.29797e-06
-5.33969e-06
-3.96975e-06
-0.00382325
-0.0111957
0.000154042
-0.000283066
0.000147849
-0.0132851
0.00253146
0.0107893
0.0126416
0.00118904
-0.0139593
0.014007
0.000141233
0.0123459
-0.011844
-0.00028451
0.000452646
0.0141133
0.0013878
0.00454971
-0.00591693
0.0166429
-0.00122852
0.000132951
-0.00226481
0.00203502
6.75354e-05
0.00979603
-0.00965677
0.00620552
0.000516483
-0.0115988
-2.38953e-05
0.0114584
-0.00422183
0.0028875
3.96031e-06
0.00226648
0.0108416
-0.00949616
-0.00314143
-0.000294088
7.93105e-05
0.0018303
0.0113036
-0.0132324
-0.0202517
0.00233468
0.0178664
-0.00105251
0.0131647
0.00191052
-0.0120635
0.0101811
-0.0099157
0.0112292
-0.000998662
-0.000745127
0.0165493
-0.0161179
-0.0142644
0.0120234
0.00232348
-0.00564229
-0.0146827
-0.00100576
-0.0138403
0.0149768
-0.000308843
-0.00177308
0.00190095
0.00185357
0.000626449
-0.00255609
0.000500581
-0.0125131
0.0114637
0.000244131
-0.000324187
-1.45908e-05
-0.0046439
-0.0158834
4.22605e-05
-5.54464e-05
5.90786e-06
-4.10918e-06
2.44169e-05
-0.0134295
0.0144274
0.00518239
-0.0152522
-0.0152576
-0.00334836
0.0188583
-0.00168857
0.00123726
-0.000165311
-0.00123615
0.00143159
-0.0230214
0.00635558
0.0167644
-0.00175448
-0.0114166
0.0126481
0.000210278
0.00015232
-0.000379906
-8.06378e-05
0.000279136
-0.00921515
0.000599926
-0.0136512
-0.000331535
0.00538861
-0.00640618
-0.010154
0.000855235
0.00995612
1.72037e-07
-1.6936e-05
-6.4548e-06
0.000308078
-0.000581934
0.000323653
-0.00142617
0.000741604
0.00668434
-0.012373
-0.0123377
0.0140755
-0.0248393
0.0105162
0.0142774
-3.9801e-05
-0.00110348
0.00129174
0.0121361
-0.0133304
-0.0117444
-0.00418521
0.00531063
0.00229388
-0.0169702
0.0151456
-0.000313536
-9.32e-07
9.4652e-06
8.92883e-07
0.00621816
-0.00720654
0.00107306
-0.0164247
0.0151412
-0.0116401
-0.0132824
0.0070443
-0.00858483
0.0002866
-0.0092871
-0.00461417
0.0143121
-0.00326717
-0.00377177
-0.00468194
0.00829015
0.00531019
0.00038711
-0.00591384
-7.48263e-05
4.91003e-06
-0.000639428
1.56247e-05
0.000825695
0.000541229
0.00107988
-0.00177067
-0.0074183
-0.0155379
-0.0106522
-0.00596755
0.0165574
-0.00935451
0.00922291
0.000140344
0.00300932
-0.00689449
-0.00014943
0.00612321
-0.00779582
-0.00112743
0.00152215
0.00534348
-0.0160554
0.0155058
-0.000752545
-0.0149468
-0.0166055
0.0132496
0.00319164
0.00481539
0.000843615
0.00260684
0.0101534
-0.00936785
-0.000937396
-0.0211725
0.0180906
0.00308159
-0.0194639
0.00182888
0.00920744
-0.00879826
-0.000702884
-0.000394386
-0.0189928
0.00854996
0.0105205
-1.28623e-05
0.000458993
4.51549e-05
2.92864e-05
0.00432241
0.00674017
0.00166776
-0.0171972
0.0152602
-0.0115398
0.0122459
0.00317112
-0.0126235
-0.00122699
0.00137756
-0.000181664
0.0133571
-0.0118101
0.0155652
0.00588369
0.000666602
0.0149014
0.00132802
0.00209198
0.00753164
-0.00951818
-0.00116825
0.000449301
8.12089e-05
0.00239284
-0.00256509
0.00887547
0.00389728
-0.000226143
-0.000238377
0.000427138
-0.00591132
0.000590393
-0.0166944
0.0104038
0.0065337
0.00345571
-0.0120983
0.00850501
0.000546359
0.00556479
-0.00485747
0.00626692
-0.00171792
0.00162234
-1.52378e-05
0.0147396
-0.0174625
0.0023022
-0.00183214
-0.0119405
-0.015644
0.00051916
0.0150381
0.012435
-0.0158456
0.00330069
0.015722
-0.0157337
-0.000147851
-0.00610927
-0.00855467
0.00173613
0.00659492
0.00425759
0.0149616
-0.0170002
0.0179219
-0.000933112
2.76427e-05
-0.0178967
0.00781641
0.0102982
0.00122925
-0.0114643
-0.0114637
0.00881831
-0.00826836
-0.00939156
0.0170662
-0.00270698
-0.00554611
0.00753293
-0.00201453
0.00563718
-0.0137623
0.000440654
-0.000586067
-0.000740708
0.00253777
0.00554819
-0.0007885
0.00026813
-9.3483e-05
-0.000408215
0.0054897
0.0155806
-0.00102499
-0.00887877
-0.0100554
0.0148996
-0.00264543
-0.0033765
-0.00982861
0.0101204
-0.0117712
0.000530532
-0.0111674
0.0104386
-0.00817655
-0.000497033
0.00799755
-0.00536797
-0.0157546
0.00207206
0.0136693
0.00028794
0.0142665
-0.0153002
-0.0181984
0.00322756
0.0145817
0.000669281
0.0124069
-0.000897828
0.00629314
0.00195523
-0.0178976
0.0155673
-9.40083e-05
-4.88797e-05
0.0001344
0.000479028
4.2594e-05
-0.00172815
-0.0141375
-0.00195102
0.0158312
-0.00354436
-0.0049302
0.00942276
-0.0154014
0.00563467
0.000697523
0.0099621
0.000102351
0.00291729
-0.00300106
0.0142944
0.0125055
-0.011177
-0.000263149
0.00020973
1.94373e-05
-1.12837e-05
-0.000356628
0.000261573
0.0115371
-0.0025087
-0.0119712
0.01258
-0.000581068
-0.00282582
0.00294623
0.00219985
-0.00216116
-0.0016259
0.0115543
-0.0100075
-0.00726613
-0.00590758
0.0132828
0.00122967
-0.00136641
-0.0147326
0.0116635
-0.0113931
-6.90786e-05
-0.0166097
-0.000136163
0.00139909
0.0147286
0.000761062
-0.0153309
-0.00632427
0.00920781
-0.00424583
-0.0115995
-0.0138137
-0.0018334
-0.00350827
0.00185578
0.000555838
0.0062165
-0.00680507
-0.0147667
-0.00723416
0.00776012
0.00098267
0.00457229
0.00299638
-0.00238367
0.00250559
-0.0129381
0.015159
-0.00209989
0.0041898
-0.0057682
-0.00548019
-0.0113007
-0.0104502
-0.0163496
0.0145548
0.00132597
-0.0137808
0.0128931
-0.0150298
0.0014881
-0.000123903
0.00428181
-0.0141721
-0.000836833
0.00158479
-0.000769017
-0.0186279
0.0129176
-0.00139249
-0.000126151
0.00146516
-0.00196607
0.00405142
-0.00204337
-0.00010051
0.00196646
-0.00395466
-0.0049446
0.00570674
0.000763423
-0.0131739
0.0122341
0.000128501
0.0015135
-0.000730112
0.000523851
-0.0005902
0.000482117
-0.0049181
0.0139745
-0.0121248
0.0121157
0.00431223
-0.00493317
0.0120482
-0.0107608
0.000140842
-0.00850886
-0.00593155
-0.015619
-0.0166206
0.00943503
-0.0115062
-0.00490735
0.0129641
-0.00135123
-0.011594
-0.0134869
0.0122389
-0.0187163
0.0136956
-0.0070968
-0.00650671
0.0100626
-0.0175902
0.00752158
-0.0127214
0.017008
-0.000598792
0.0155492
2.36884e-07
-0.00405343
0.00474251
-0.00066264
0.00450904
-0.00629189
0.00781943
-0.0068531
-0.000735283
-0.0135591
0.0102527
-0.017116
0.000910364
0.00386597
-0.00517789
0.0160618
-0.0162262
-0.00513823
0.00416357
0.000201647
-2.3317e-05
2.92322e-05
0.012823
-0.012388
-0.0174987
0.0131216
-0.0127777
0.0122303
-0.00373025
-0.00130503
-0.0224897
0.0151782
2.71983e-08
-8.08355e-08
-0.000330861
0.000114873
-6.67157e-06
6.78459e-05
-8.3044e-05
0.00501962
0.0174874
-0.00752526
-0.006096
0.000762653
0.00730664
0.000130169
0.0013439
-0.00145496
-0.00151413
-0.000594059
0.00138174
-0.0129079
0.0115516
0.00233825
-0.000843678
0.000545786
-0.000442088
0.00625936
0.00773572
-0.00540094
0.00557698
0.0141022
0.00146011
-0.0144893
-0.0116625
-0.00255757
-0.0129071
0.00015976
-0.000303458
-4.63281e-05
0.000199854
-0.0159247
-0.00242775
-0.0123553
-0.00930272
-0.00942468
0.00135676
-0.00115586
-0.000907585
0.00106356
-0.00201787
-0.000354471
-0.00556251
0.000641513
-0.00972843
-0.0105143
0.000754706
9.23391e-05
-0.00103317
-0.0113658
0.000308095
-5.87372e-05
-0.000237954
-0.0116268
0.0217709
-0.0114364
-0.0103467
-0.000770094
0.00295125
-0.00221942
-0.016066
0.0188435
-0.00448323
0.0054031
0.0134739
-0.000641415
-0.00852445
2.24825e-05
0.0119256
-0.0119785
0.000194008
0.0107185
-0.0104506
-0.0114713
-0.00133352
0.0153001
0.000281487
-0.0162209
0.013641
0.00268633
-0.0056977
0.00506525
-0.0147436
0.00197956
-0.00278351
0.010063
0.0152904
-0.00112548
0.0026084
0.000521216
-0.00327216
0.0087165
0.000252946
-0.00914544
-0.00971983
0.00902974
0.0082612
-0.00339556
-0.00493314
0.00310787
-0.000563329
0.011128
-0.00341335
-0.00834466
0.00179667
0.00653909
5.60142e-05
-0.0094892
0.00905075
0.0127701
-0.00280266
0.00847671
-1.09226e-06
0.00975884
-0.00922856
-0.000683882
-0.0149741
0.0152788
-0.000682378
-9.49434e-07
7.2367e-06
0.00604995
0.0039448
-0.0129271
-0.00112563
0.014079
-0.00955263
-0.00181285
0.000114462
-0.00131069
0.00643297
-0.00668192
0.000165963
0.000595944
-0.0125285
0.0172729
-0.0173086
-0.000537227
-0.000297992
-0.00196126
0.0022824
0.00285453
-0.0196915
-2.65163e-05
-0.00795248
-0.0120736
-0.0122863
-0.0106379
0.00974007
-1.7191e-06
-1.74719e-05
0.0168004
-0.00873408
0.0191749
-0.0122236
-0.000939734
0.0129786
0.00150413
-0.000407917
-0.00319332
0.00563968
0.000507304
-4.54971e-05
-0.000430625
-0.00779192
0.00218251
0.00155465
-0.012992
0.00045078
-0.00586633
0.00189623
0.011142
-0.0129847
-0.00690806
-0.0092335
0.011613
-0.0116206
-0.0159867
0.0156232
0.00129461
-0.000236696
-0.0135023
0.0121829
0.0013583
0.00686353
-0.000562106
-0.00265836
0.000128643
0.00239907
-0.0155828
0.0140241
0.00154494
0.0117696
0.000972586
-0.0128997
0.000173554
-0.00137511
0.00110934
-0.00177827
0.00208227
-0.00034983
-6.00473e-05
0.000370777
-0.000999073
0.001003
-0.0106148
0.00191289
0.00875214
-0.000154615
0.00151679
-0.00141515
0.000367614
-0.000442008
-1.53741e-05
-0.0131486
0.0127398
0.000262131
-0.0114017
-0.0083104
0.0193258
-0.0125457
-0.00999894
0.00706079
-0.0137095
0.000186112
0.0129447
0.015565
0.00100443
0.0156133
-0.00085872
0.0118563
-0.0132917
0.00825191
-0.00473301
-0.00378326
-0.00477174
0.000703899
0.0160245
-0.00978092
-0.00618702
0.00584933
2.04191e-06
-0.00013558
-0.0127128
-0.00975553
0.0104127
-0.0121021
0.0160774
-0.0145182
-0.0021077
0.0165086
-0.0108415
0.0111817
0.00928989
-0.0180452
-0.0154059
0.0112116
-0.018689
0.00695413
-0.00290102
0.00330447
-0.000306439
-0.00557979
0.0152971
0.00153025
-0.0218907
0.0161927
0.0149237
0.00036262
-0.0105137
-0.00726623
0.0106815
-0.0014681
-0.00921748
-0.00119317
0.0114088
-0.0104837
-0.014759
0.00192329
0.0131707
-0.0156159
0.0024338
-0.000329646
0.000614642
0.000114747
-0.0142964
-1.66469e-05
-0.00354232
0.0030773
-0.00611473
-0.000557621
0.00684438
0.000782942
-0.00657836
0.0105378
-0.00215658
-0.0015186
0.00363878
-2.8887e-06
2.8887e-06
0.000783016
-0.0040051
0.00186888
-0.00124161
-0.00439452
0.00529451
0.0172309
0.000192209
-0.0177073
0.000375219
-5.75581e-05
-0.000374915
-0.0113276
0.0101119
0.000207283
-0.000253914
0.000111362
-0.0134462
-0.000688329
0.0176813
-0.0074282
-0.00826613
-0.00226199
-0.011139
-0.000535072
6.14389e-05
0.00988507
0.0012693
-0.0115863
-0.0151792
0.0148356
-0.00262061
0.00234154
0.000262478
-0.00116814
-0.000134503
0.00126219
1.33579e-06
0.000289244
0.000141501
-0.00133711
0.00866684
-0.000595869
0.00823783
-0.00967097
0.0013146
-0.00151886
-0.0134909
0.0146156
-0.000988654
6.35712e-05
-0.000168824
0.00145953
0.000569321
-0.0139898
0.0133676
0.00053634
-0.00103305
0.0127027
-0.00780423
0.00159143
0.00593791
-0.00136718
0.00125815
0.0138326
-0.0106593
-9.55308e-06
-7.71261e-06
0.0158342
-0.0129459
-0.002855
-0.00287137
-0.0077135
0.00683439
-0.00827279
-0.000889737
0.000386992
0.00041428
-1.02826e-05
-1.46871e-05
-0.00498187
0.00814124
0.00224913
-0.00272686
-0.00315209
-0.0103201
0.0118067
0.000483535
0.00503106
-0.00495431
-0.00135993
0.00631929
0.0131937
0.00253936
0.00992766
0.00347256
-0.0135335
-0.00442055
0.00494495
-0.000550818
0.00110229
-0.00432427
0.00330705
-0.00152066
0.000148335
-0.00026435
-2.52399e-06
-0.0123525
0.0121835
-0.0115565
-0.000612588
-0.000227853
-0.000630325
-0.00904915
-0.00424447
0.0139426
-0.0123555
0.00704212
-0.00870171
-0.000389169
0.00605811
-0.00591544
0.00297996
-0.000239816
-0.00280147
-0.0127437
0.0118194
0.0108062
-0.00123769
-0.0229496
0.00996042
0.0128326
0.0164008
-0.00122869
0.00853271
0.00279838
-0.00060177
0.00307433
-0.000158378
-0.0113573
0.0118158
-0.000412206
0.000680371
0.0076282
0.00176717
0.0107749
0.00821014
-0.00887312
0.000728846
-0.00815282
0.00697723
0.00188258
-0.00216794
-0.00259347
0.00377424
-0.00499009
-0.000379191
0.00530624
-0.000234651
0.00214289
0.00485763
-0.00521906
0.000424232
0.000184373
-0.00230797
0.00207683
-0.001631
-0.00323332
0.00472541
0.0136359
-0.0144728
0.000811448
0.00422889
-0.00891944
-0.00609233
-0.00111291
-0.000626878
-0.00505828
0.00505075
6.92646e-05
-0.000184498
8.33326e-06
0.00105198
-0.00506242
0.00375321
0.000123767
0.00133466
-0.000839467
-0.00148208
0.00130463
-0.00447851
0.00049704
0.00394832
0.0131595
-4.72867e-05
0.00326698
-0.000336722
-0.00292789
0.000130159
-0.0154131
-8.45694e-05
0.012968
0.000293704
-0.00737128
0.0071816
-0.000320292
0.0158448
0.0132759
-0.000941691
-0.00109025
0.0147449
-0.000335153
-0.00903439
0.00947923
-0.00141964
-1.30718e-05
-9.72846e-06
-0.000348947
0.00298028
-0.00276393
-0.0169095
-0.00120868
0.0179208
-0.00258185
0.0111198
0.000227232
0.000558117
-0.00118433
0.00242184
-0.000303679
-0.00215014
-0.00364732
0.00276838
0.000780953
-0.00193798
-0.000444336
-0.00306173
0.00258023
0.0027899
-0.0045504
-0.000231375
0.00991472
-5.89772e-05
0.00460417
-0.0130355
-0.00031791
-0.00717717
0.0151737
0.00101896
-0.0125937
0.0119386
-0.0122794
0.0136541
0.000139792
-0.00102831
0.000863407
-0.000579517
-0.00314579
-0.00121683
0.0177451
-0.011893
1.04633e-05
0.000234249
-0.0190062
0.00863439
0.00985501
0.000291072
-0.00219494
-0.000167213
-0.00542107
-0.000225197
0.00588336
0.000760605
0.00511881
-0.00572167
0.000816107
0.0107402
-0.0117458
0.0178752
-0.0161483
-0.00174543
-0.000667979
0.000403381
0.00239666
0.000951166
-0.00375214
-0.00644965
0.00161774
0.0128181
0.000235713
-0.00189944
0.00162605
-0.000323855
-0.00236183
-4.56973e-05
-0.00138648
0.000778213
-0.012696
0.0115548
-0.00577782
0.00105028
-0.00617731
0.0127004
-0.00383101
-0.00061254
-0.00253785
0.000667538
0.00198733
0.000403877
0.00636739
-0.00632731
-0.000342835
0.0143737
0.0146306
0.00170854
-0.0164341
-0.0133682
0.0145136
-0.00124721
-0.012612
-0.0123804
0.00894718
0.00214924
-0.0098955
0.00930901
-0.00528473
0.00082531
-0.00458726
0.000776485
0.0038473
-0.00694935
0.00734485
0.00267622
-0.000672942
-0.0079566
-0.000861423
0.00857334
-0.0167331
0.00963764
0.00682244
-0.00129424
-0.00110735
0.00234372
-0.0163306
0.0172482
-0.00108024
0.000488328
0.00504834
-0.00555933
0.000402116
0.00831853
-0.0092096
0.000105318
-0.00083563
0.000700834
-0.00208889
-0.000182724
0.00228554
0.000444335
0.00479015
-0.0051605
-0.00227717
0.00648447
-0.000878207
-0.0153847
0.0157556
-0.00106724
-0.0147736
-0.00593411
0.00204732
0.00386475
0.00409474
-0.0150262
-0.011856
-0.0111686
-0.0035928
0.00797603
-0.00189937
0.000507056
0.000420821
0.009263
-0.00948834
0.00599455
-9.96113e-05
-0.0117837
0.000498188
0.0123444
3.68751e-05
0.000285517
-6.64335e-05
0.000286119
-0.00234786
0.00159909
9.26856e-05
-0.0116985
-9.89979e-05
0.00665456
-0.00688423
0.0190976
-0.016714
-0.00277512
-0.000619286
0.000207317
-4.74916e-07
6.58795e-06
0.00139807
-0.00136916
0.0166463
-0.0149547
5.25988e-05
0.000372666
-0.000539221
-0.000685297
-0.00721689
0.000883777
0.000241471
-0.00589133
0.000285367
-0.00267505
0.00233581
-0.00635654
0.00543901
0.000762811
-0.000807303
0.0138971
-0.00349257
-0.00109626
-0.00213442
0.00191719
0.000136257
-0.000396021
-0.00274875
0.00761392
-7.12431e-06
0.000328682
-0.0126235
0.0117057
0.0151375
0.00053457
0.00093925
-8.60564e-05
0.001139
-0.00180422
0.000256598
0.00180399
-0.00249919
0.00273128
-0.00852995
0.000412504
0.000616186
0.0110973
-0.0116499
0.00114031
0.0110732
-0.0122624
0.0164592
-0.0178699
-0.00197748
0.0164604
6.23579e-05
0.000453895
-0.000123319
0.00153234
-0.00148814
-0.00242795
-0.000339176
-0.00274364
0.00273343
0.0149778
-0.0160244
-0.00150008
0.0125288
-0.0110189
0.0191784
-0.014113
-0.00545945
0.000315394
-0.00250235
0.0021567
0.00114283
-0.0126822
0.0114261
0.00442685
-0.000710007
-0.00361589
-0.000321926
0.00269247
-0.0137018
-0.00198029
-0.00239509
0.0102296
-0.001075
0.000378704
0.000142304
0.016472
-0.00615763
-0.00684867
0.00661121
-0.00637077
-4.38005e-05
-0.0105503
0.0118297
-0.00119131
0.000340784
-0.0011582
0.000985494
-0.000687831
0.000255414
0.00194297
-0.00215743
-0.0139316
-0.0167123
0.0138893
-0.00567225
0.000535111
-0.00219456
0.00141409
-0.00129841
0.000229254
-0.00208547
0.0160199
-0.0153922
-0.000581907
-0.000517472
-0.00132071
-0.00169122
0.000233428
-0.00200096
0.00176818
0.00333351
-0.00275302
-0.000639894
-0.00145644
0.00125702
-0.000726614
-0.00132745
-0.000145926
0.0162807
-0.000291557
-0.00221216
-0.00224834
0.0019518
-0.00108106
0.00445551
-0.00361993
0.00757033
-0.00835347
0.00093984
-0.0117637
0.000561452
-0.00438682
0.004886
-0.000550926
-0.0101573
0.00666464
-0.00177854
-0.0011487
0.0135955
0.00127382
-0.000919021
-0.000494196
0.00587813
-0.00770118
0.0137336
-0.00650278
0.000442864
-0.000492467
-0.00369995
-0.00220375
-0.000484379
0.00964428
-0.00909062
0.00603548
-0.00494779
-0.00120394
-0.000411347
-0.00492176
0.000110508
-0.000937468
0.000810862
-0.016341
0.0147721
0.00183187
-0.0154542
-0.0109402
0.000479523
-0.00542559
0.00489635
-0.00672521
0.000814221
-0.0152554
0.00923956
-0.000995753
0.00109098
0.000124842
0.00123466
0.00147216
-0.0132707
0.0120724
0.000476093
0.00364434
-0.00402752
-0.00091612
0.015347
0.000528806
-0.00136269
0.00115297
0.000158873
0.0024587
-0.00220627
-0.000290712
0.00404548
0.0121055
0.000103373
-0.000794665
0.000673395
3.96975e-06
2.79648e-07
3.81289e-06
0.000173541
0.00132432
-0.00151689
0.00444803
-0.00558533
-0.00347109
0.0153814
0.0129585
-0.0112198
-0.00512953
0.000691422
-0.0125335
-0.0022071
-0.00710604
-0.00458225
0.0114483
-0.0159804
-0.00206003
0.0180122
-0.0129987
-0.00631931
-0.0189518
0.0158
0.00309198
0.0117754
-0.013242
0.00913612
-0.00921255
0.0104882
0.000789125
0.0158255
-0.0129352
-0.0145009
0.00115218
-0.00108139
-0.00898575
-0.00765587
-0.000305665
0.00720995
-0.000657328
0.000385308
-0.00281468
0.00242299
0.000115724
7.71128e-05
0.0108253
0.00146873
-0.0122574
-6.15038e-06
-0.0127149
0.0124723
-0.0123004
-0.000901908
0.000147993
-0.00177331
0.0149109
-0.00140118
-0.00108478
0.00241213
0.00056866
0.00549488
-0.00586514
0.000262838
-0.00852428
0.00211094
-0.00188134
-0.0151995
0.0148945
0.000155185
-0.00294619
0.00942755
0.000929404
0.01104
-0.0103667
0.000510367
0.0145231
-0.0152874
0.0120958
-0.0116539
-0.00678794
-0.000722881
0.00708878
0.0118853
-0.00108238
-0.0174884
0.00101383
-0.0163103
0.0153992
-0.000220458
-0.00327923
0.00343144
-0.00368294
0.00406795
-0.00351623
-0.0013828
-0.0160633
0.0149318
0.00102038
0.0133774
0.000984501
-0.00510752
0.00554102
-0.000425174
0.000102685
-0.0116245
0.00228322
-0.00214366
-0.0120561
0.00747443
-0.00858411
-0.00183938
-0.00576643
0.00619396
-0.000615225
-0.00210658
-0.00033576
0.0119605
-0.0123481
-0.000721515
0.0100867
-0.00218474
0.00227206
-0.000146519
-0.000752437
0.00395999
0.00079861
0.00158756
1.40499e-05
-0.00247171
0.0141549
0.000868912
0.000376311
-0.00104548
0.00853795
-0.000289453
-0.000887623
-0.00907865
-0.00664083
0.0158349
0.00159765
0.0145794
-0.0160225
-0.00231246
0.000267498
1.31402e-06
3.21025e-05
-3.79012e-05
-0.00944685
0.00845287
0.00268777
-0.00127179
-0.00153901
0.0146012
-0.000204805
-0.00976808
0.00935177
0.00885256
-0.00847515
-0.000551923
0.00678229
0.000587258
0.0170833
-0.00110949
-0.00104511
-0.0145291
-0.00117573
0.01608
-0.0141453
0.00150292
0.0126625
0.00487758
0.0111858
0.0140187
0.000931207
-0.0118762
0.00970225
-0.00180938
-0.00811859
0.0157293
-0.0142775
-0.00149331
4.43672e-05
-1.61427e-05
8.79442e-05
0.0169673
-0.0172479
-0.00115193
0.0122207
-0.00106353
0.00737476
-0.000264325
-0.00677539
0.000330495
-0.0157957
0.0153579
0.00121634
0.000151502
0.015405
0.000854587
-0.016368
0.00632069
0.000864422
-0.00749517
0.0185149
-0.000780243
-0.0181506
-0.000352544
-0.00282118
-0.00182239
-0.00365955
0.0103695
-0.00286351
-0.0111108
0.0117391
-0.00180247
-0.0104188
0.0110415
-0.000635458
-0.00636076
0.00596898
0.0153964
-0.0149423
0.0021138
-0.00501591
-0.000196873
0.000992035
-0.0194036
0.0104277
-0.0116648
0.00232851
0.0090723
-0.000860296
0.0130456
-0.000864161
0.0108472
-0.0108724
-0.000489048
0.000158987
0.00936185
-0.00930872
-0.000940519
0.0157178
-0.0049312
0.0118872
-0.0130126
-0.00849584
0.0101948
-0.00943504
-0.000929082
0.00110651
0.0119514
-0.0132807
0.000455476
0.000817935
-0.000161109
-0.00702053
0.00675198
0.00853134
-0.0144751
0.0123141
0.000421312
0.0124697
-0.0128692
-0.00205542
0.00228458
-0.00033385
-0.0080482
0.00071251
0.0100872
-0.000951158
0.0125899
-0.0122719
0.0120175
-0.000539083
0.0125504
-0.0117636
0.000358707
-0.00253762
0.0151419
-0.0161812
0.00366801
-0.00379738
-7.82202e-05
0.0161381
-0.000712623
-0.00946068
0.000524558
-0.000954011
0.0162344
-0.0114307
0.00412788
-0.00030464
0.000504226
0.00698529
-0.000272329
0.0140121
-0.000814607
0.0155843
-0.0172365
-9.10498e-05
0.000436283
-0.000343241
0.00869389
-0.008285
-0.000609444
-0.00274192
0.00908623
-0.00089781
-0.00544424
0.00629486
0.000888156
0.0162197
-0.00026571
0.0116896
0.0052107
0.000390481
0.0084319
-0.00033649
0.00156069
0.0103142
-0.00087132
0.0156942
-0.000231574
0.0118278
-0.0102533
0.00962933
0.0164194
-0.0173354
-0.00152333
0.000799808
-0.0012504
0.0155097
0.00279922
-0.00240984
0.000434814
0.0101876
-0.0105932
-0.0111706
0.000554339
-0.000738831
6.21017e-05
0.000647895
-0.00910399
-0.000718353
-0.00146635
0.016668
-2.0634e-05
0.000508668
0.00402165
-0.00394479
-0.0104132
0.0168385
-0.000485161
-0.0167225
-0.000875581
0.0159825
-0.00338831
-0.000426304
0.00384862
0.00241811
-0.0169037
-0.0180049
0.00206528
-0.00712886
0.0065008
-0.000640367
-0.00591394
-0.00145129
0.0120101
-0.010476
0.000409577
-0.00379874
-0.00197866
0.00222101
-0.000248702
6.63935e-05
-0.000748348
0.000650732
-0.0138348
-6.58745e-05
-0.000728173
0.000739411
6.30768e-05
-0.000759225
0.000657662
-0.00986303
0.0103259
-0.000571644
0.0130747
-0.0138794
0.000959758
-0.0145868
-0.000770065
0.000650753
0.000854211
0.0113742
-0.0123173
9.47846e-05
-0.000150099
-4.45222e-06
-0.00809981
-0.00876484
0.0079277
-0.00972251
-0.000356999
-0.0167224
-0.00703671
0.00643002
0.000403844
-0.000745738
-0.000628036
0.0135517
-0.0130058
0.000423059
-0.0121676
-0.00154982
0.013678
-0.0132698
-0.0007768
0.0136057
-0.00494426
0.00238746
0.00117055
0.0088258
-0.0104855
0.0144946
-0.00162936
-0.0126161
0.000909094
-0.000823077
-6.28322e-05
4.2169e-05
3.84777e-05
-0.00131818
0.0133069
0.0126371
0.00158513
-0.000702059
0.0118114
0.000155264
-0.000724623
-0.0115981
-0.00141363
3.46708e-05
0.00512084
-0.00493913
-0.0162104
0.00208921
-0.00295422
-0.000326022
0.00149414
-0.000162396
-0.00147665
0.00757394
-0.000930645
-0.00684058
-0.003545
0.00433367
-0.000790292
0.0118202
-0.0131993
0.00133194
0.000995148
-0.0128631
0.000554889
-0.00404266
0.000243346
-0.00207812
0.00176613
0.00518957
-0.00467996
-0.000783446
0.00116032
0.00145559
-0.00200398
-0.000127427
0.00840349
0.000438378
0.00428173
0.000647733
-0.00275503
0.0142012
0.00649083
-0.00236678
-0.00110317
0.00115603
0.00886373
0.000135707
-0.000152748
-0.000121608
0.00194795
0.00242615
0.00030299
-0.00155861
0.0195251
-0.0181889
-0.000361685
0.00289422
-0.00207545
-0.0118029
0.0140974
0.00376035
-0.00672411
0.00912777
0.000646705
-0.0101796
-0.00736727
-0.00689921
-0.0105819
0.0109828
0.00411252
-0.00494775
0.000813169
-0.00190651
0.0020819
-0.000484849
-0.00890017
-0.000198294
0.0153793
-0.000516696
-0.00863036
0.00918879
7.36634e-05
0.00738545
-0.00743155
0.000968556
-0.000327968
-0.000160048
0.00238082
6.77463e-05
-0.000647704