/*--------------------------------*- C++ -*----------------------------------*\
| =========                 |                                                 |
| \\      /  F ield         | OpenFOAM: The Open Source CFD Toolbox           |
|  \\    /   O peration     | Version:  v2012                                 |
|   \\  /    A nd           | Website:  www.openfoam.com                      |
|    \\/     M anipulation  |                                                 |
\*---------------------------------------------------------------------------*/
FoamFile
{
    version     2.0;
    format      ascii;
    class       volScalarField;
    location    "200";
    object      omega_0;
}
// * * * * * * * * * * * * * * * * * * * * * * * * * * * * * * * * * * * * * //

dimensions      [0 0 -1 0 0 0 0];


internalField   nonuniform List<scalar> 
9793
(
0.0635379
0.25569
0.0632599
0.0209881
1.0948
0.0217553
0.0215825
0.0207423
0.0214661
1.13779
0.0453084
0.17879
0.0210211
0.0201912
0.0229771
0.0201577
0.0206558
0.0207815
0.192506
0.0201869
0.642101
0.0221398
0.170087
0.0196173
0.0215311
0.0210932
0.0202372
0.0205946
0.0337629
0.0214582
0.0264079
0.11199
0.578269
0.0216305
0.0375881
1.36698
0.0223107
0.0221107
0.0208086
0.0208637
0.0264906
0.023003
0.02182
0.0217912
0.0218289
0.0212317
0.0362701
0.0205469
0.0524951
0.0209653
0.0387066
0.0493294
0.0218324
0.0214286
0.4291
1.38201
0.0213934
0.0985722
0.523074
0.020795
0.0213534
0.021822
0.531738
0.0216374
0.592324
0.589
0.521845
0.369621
0.109198
0.0439575
0.332405
0.0210775
0.0210572
0.279888
0.0429515
0.515215
0.0213831
0.0210711
0.0213152
0.0207133
0.604598
0.0215179
0.247297
0.0237028
0.0247657
0.0281571
0.0207455
0.0213738
0.0216314
0.0219767
0.261807
1.30148
0.0202562
0.0952801
0.0217215
0.0239539
1.38676
0.248897
0.0202466
0.0201595
0.0201499
0.0217656
0.0203371
0.0203351
0.0205907
0.0248045
0.0215736
0.0214456
0.0217112
0.16867
0.0213311
0.669692
0.0213831
1.40164
0.0487336
0.0213924
0.560304
0.0414818
0.0218076
0.0714619
0.131273
0.0231381
0.0212746
0.0218607
0.0215951
0.657121
0.0312338
0.0308329
0.0215733
0.0211041
0.0219008
0.0213826
0.0211002
0.0219672
0.0214449
0.0213648
0.0218693
0.021592
0.0213784
0.0199344
0.0212672
0.0214813
0.0210955
0.0201417
0.0202208
0.0204609
0.15831
0.0201468
0.0202633
1.29567
1.76628
0.0218602
1.75567
1.31565
0.0202589
0.0225523
0.0206645
0.0214359
0.0201452
0.0210533
0.0207412
0.0205835
0.0200899
0.124649
0.222653
0.941635
0.023855
0.0237914
0.0201999
0.0212216
0.0210588
0.62979
0.21425
0.652953
0.0215703
0.105749
0.0213731
0.0196053
0.0211061
0.0244053
1.36409
0.021848
0.0201532
0.0214861
0.595989
0.0210462
0.119057
0.0210982
0.0212453
0.0200928
0.0215831
0.0213112
0.0517511
0.705403
0.405688
0.0242424
0.108832
0.0210896
1.44458
0.0199947
0.0214389
0.352301
1.40169
0.021115
0.0213654
0.0202989
1.17854
0.0201111
0.0235974
0.0219022
0.0263353
0.0510056
0.0496322
0.0214437
0.165586
0.020539
0.0213612
0.608561
0.0202209
0.453962
0.0531623
0.0213155
0.0216085
0.021315
0.0285768
0.151665
0.0217569
0.0202685
0.0542983
0.0369137
0.0196856
0.0196184
0.0218868
0.0201231
0.0352846
0.409925
0.0213605
0.0210116
1.29519
0.0214908
0.0235966
0.0201728
0.0209781
0.577933
0.0209897
0.0202512
0.0207301
0.021431
0.0202577
0.0214252
0.0214232
0.0227487
0.0445606
0.0332755
0.0209498
0.0223983
0.0210518
0.0229015
0.0218616
0.0200982
0.302329
0.0210005
0.0440796
0.0213068
0.0240532
0.0199263
0.0199256
0.0262796
0.542717
0.0214759
0.0201105
0.0199719
0.0240366
0.0213354
0.272419
0.261508
0.0211148
1.05303
0.0213298
0.033327
0.0213941
0.0197708
0.0219343
0.0207541
0.0312381
0.0213129
0.0214135
0.0234986
0.0209712
0.0213564
0.0213656
0.564727
0.0215406
0.022337
0.0220001
0.0219359
0.0216589
0.0237855
0.0212252
1.34024
0.0202713
0.603722
0.514231
0.0220151
0.0216322
0.0201275
0.0244063
0.0229391
0.0213466
0.615224
0.021601
0.0201185
0.0230069
0.0214521
0.0213456
0.0216622
0.0292533
0.0209826
0.0235943
0.0219481
0.0209252
0.27061
0.164852
0.248048
0.0200937
0.985222
0.0217075
0.531337
0.0467487
0.0200101
0.0222739
0.0454664
0.0215336
0.0228462
0.054691
0.0207065
0.0217225
0.0214274
0.0208308
0.0206336
0.0807569
0.021095
0.0209172
1.49324
0.0215317
0.0201498
0.0200495
0.0217807
0.0207188
0.117874
0.021625
0.0212891
0.0213656
0.0217294
0.650356
0.0214172
0.025526
0.0196276
0.0293311
0.886149
0.119722
0.0306105
0.021726
0.0228787
0.20658
0.0215226
0.282915
0.021453
0.0201691
0.500357
0.0228019
0.322953
0.0212935
0.037838
1.30805
0.0220233
0.0210373
0.572302
0.0234924
0.190928
0.022424
0.0214122
0.692222
0.0212412
0.0217665
0.0218662
0.0210696
0.0202452
0.0214268
0.0222345
0.600524
0.0215229
1.46005
0.153422
0.188628
0.0372056
0.182129
0.0207564
0.0214283
0.97361
0.1463
0.0201864
0.0216048
1.61543
0.0199659
1.40817
0.0210242
0.0222664
0.0199534
0.0272406
0.0210876
0.0237757
1.0191
0.0201195
0.189575
0.0237098
0.0216706
0.023827
0.021294
0.0215026
0.0204589
0.0907114
0.0213112
0.021355
0.0536779
0.0214118
0.0218474
0.0217155
0.020068
0.024874
0.0210528
0.0213523
0.0199158
0.341268
0.0203719
0.340094
0.021241
0.152534
0.0225173
0.0213745
0.0220936
0.0215164
0.526919
0.0210411
0.809451
0.0201177
0.0210671
0.0217718
1.64361
0.0274333
0.764374
0.0427872
0.0218476
0.0212329
0.0273535
0.024756
0.026656
0.250192
0.431915
0.0215274
0.0231768
0.037797
0.0212741
0.0218702
0.0212561
0.0203245
0.0219229
1.39647
0.023814
0.638579
0.020328
0.024606
0.0195759
0.0214194
0.0220367
0.0216207
0.0273507
0.0213471
0.0224621
0.0199503
0.0213103
0.0220718
0.0693521
0.021067
0.0212343
0.54787
0.0223078
0.0216374
0.571587
0.158356
0.0214651
0.021952
0.0218404
0.0220912
0.0213599
0.0220001
0.0218019
0.0211779
0.0210625
0.0209599
0.118582
0.0496776
0.0206072
0.550564
0.0278687
0.0202065
0.0215466
0.0214161
0.430519
0.021389
1.23576
0.0200279
0.0209878
0.0409183
0.0212384
0.0274283
0.485089
0.023968
0.0201991
1.75971
0.0222606
0.020502
0.0210597
0.044722
0.0208676
0.0204882
0.0212493
0.020863
0.575171
0.0353689
0.0273545
0.021633
0.021036
0.0209493
0.0213758
0.0212086
0.0212614
0.108476
0.135885
0.0199844
0.0233914
1.32568
0.0211864
0.0209638
0.0262379
0.0210133
0.0486745
0.671173
0.0213297
0.16922
0.0197933
1.41749
0.0233141
0.648474
0.0210463
0.0209672
0.0206657
0.269017
0.0230066
0.557597
0.608613
0.52891
0.0279688
1.04907
0.0265901
0.0229647
0.0258346
0.0231465
0.30328
0.0213901
0.354849
0.0198981
0.205403
0.0218294
0.0216808
0.0209375
0.204897
0.019926
0.0205883
0.0218592
0.0220567
0.0241031
0.0210671
0.0212149
0.0211772
0.0211646
0.290597
0.0209633
0.448287
1.46942
0.0209744
0.0216205
0.0249192
0.0216036
0.0212564
0.0214295
0.0220472
0.0233241
0.0218172
0.0220671
0.020463
0.021643
0.021647
0.0229823
0.0214202
0.0218435
0.984393
0.0212047
0.095574
0.0232402
0.0217669
0.0212211
0.0206834
0.0234412
0.0245302
0.0209796
0.0203952
0.0195378
0.0209648
0.0203877
0.021154
0.022225
0.0198497
0.0216806
0.0217996
0.0214233
0.0220997
0.0218505
0.0265304
0.0221876
0.020953
0.0212325
0.020497
0.0200851
0.021024
0.0201438
0.0209052
0.0212125
0.0199189
0.0280851
0.0208533
0.0220284
0.0212907
0.227948
0.0210121
0.0199473
0.0440309
0.0197532
0.0212734
0.222155
0.02154
0.0220955
0.02189
0.0979219
0.0206934
0.0409663
0.532578
0.485827
0.593346
0.0212369
0.0212909
0.289917
0.0206178
0.0199279
0.17134
0.309828
1.51657
0.0212388
0.0495811
0.0212946
0.0212847
1.39317
0.021167
0.789264
0.0205971
0.0493428
0.020943
0.0224007
0.0216018
0.191953
0.799995
0.0210425
0.0205044
0.0240897
0.0209016
0.0219425
0.0409944
1.66936
0.021026
0.0208621
0.020625
0.475469
0.0218857
0.567835
0.320716
0.0208336
0.0235097
0.573218
0.0210116
0.0211394
0.0219965
0.0211716
0.0199114
1.39438
0.0199088
0.433404
0.0222095
0.0434103
0.0436355
0.0213883
0.256104
0.644501
0.0215614
0.689254
0.0232721
0.0668959
0.0199193
0.0197223
0.376624
0.0211644
0.698113
0.0209084
0.380592
0.0204226
0.0150348
0.377614
0.0208034
2.45044
0.0213663
0.0219071
0.0287009
1.3565
1.36892
0.0200665
0.0204266
0.0199581
0.483041
1.60639
0.0222479
0.0223588
0.0199187
0.0199387
0.0209601
0.0221037
0.798104
0.023096
0.0212006
0.0206625
0.0207662
0.60339
1.25208
0.0636994
0.0204982
0.0209026
0.220568
0.0211512
0.653615
0.0334072
0.419852
0.229232
0.362944
0.0208264
0.0213993
0.0223983
0.0217694
0.0231117
0.0211997
0.0491483
0.350118
0.0203715
0.640697
0.0207572
0.693431
0.0214992
0.299483
0.0226002
0.0224677
0.0210258
0.0180934
0.0223407
0.487325
0.550226
0.021223
0.0277821
0.0205115
0.0219105
0.0225453
0.883549
0.0232674
0.0666374
0.0208203
0.0243322
0.0210343
0.0198692
0.0216619
0.0209258
0.905364
0.021125
0.0220091
0.0221871
0.0224484
0.0199056
0.0407539
0.0212318
0.0217424
0.0208401
0.0209673
0.43636
0.0210266
0.377971
0.0203727
0.0213763
0.0206515
0.797426
0.0209363
0.245856
0.0213413
0.021182
0.0208665
0.317944
0.445247
0.654739
1.91081
0.360905
0.0211514
0.0223197
0.282082
0.0199583
0.334984
0.287327
0.0405515
0.099841
0.0219197
0.406582
0.0223829
0.408497
0.260526
0.0219178
0.0214048
0.436401
1.19132
0.0230595
0.02224
0.0211845
0.0221496
0.0281741
0.0210017
0.0200917
0.0218067
0.0431676
0.0287556
0.0218123
0.480801
0.0208824
0.0201258
0.225279
1.06505
0.0289074
0.0217444
0.0342279
0.0204616
0.0199521
0.560843
0.0199129
0.0218443
0.382558
0.352659
0.020969
0.623402
0.79093
0.174202
0.195441
1.66592
0.0219666
0.165427
0.0213918
0.0208099
0.0212442
0.0213668
0.020524
2.53248
0.0208798
0.555331
0.0221941
0.0310411
0.0214611
0.0288008
0.0219982
0.0214856
0.0333966
0.0221636
0.0200302
0.0644278
0.0208366
0.0253876
0.0208194
0.0200046
0.388797
1.46882
0.0333461
0.0195663
0.0195431
0.0202972
0.0214501
0.253532
0.0655039
0.249685
0.0273175
0.309203
0.0212416
0.0237542
0.0225734
0.0225597
0.0879374
0.0210355
0.0209458
0.769551
0.0284656
2.46232
0.021007
0.487918
0.393666
0.0231042
0.0318149
0.0223963
0.327647
0.021292
0.0231001
0.365069
0.0238937
0.0210152
0.035174
0.0213556
0.0204737
0.0209419
1.75262
0.0213748
0.0234521
0.737749
0.0306887
0.0228066
0.0277407
0.0256917
0.623348
0.0250914
0.0200207
0.0213632
0.0217281
0.0219821
0.0210447
0.364213
0.318679
0.0224057
0.707923
0.0427853
0.574971
0.0213752
0.341716
0.0212036
0.332481
0.0616214
0.0205963
1.37881
0.412109
0.0208402
0.0213697
0.0212301
1.1543
0.644819
0.0240684
0.0332537
0.0218387
0.069323
2.63283
0.311898
0.0213506
0.0213631
2.20875
0.868129
0.0210377
0.0211352
0.0201119
0.0214389
0.0213218
0.0230179
0.996771
0.0211577
0.0223957
0.877624
0.0215146
0.0221936
0.0225931
0.247884
0.0213985
0.0253621
0.031856
0.0215506
0.0199905
0.0215767
0.0208762
0.021795
0.385034
0.608381
0.0213786
0.0388275
0.0231123
0.0640439
0.0213165
0.0233025
0.021722
0.021384
0.379766
0.0218012
0.0219334
0.0240829
0.0215733
0.0207347
0.0233109
0.0211797
0.098877
0.0213495
0.0210256
0.677432
0.0210257
0.958245
0.0235743
0.0209001
0.749672
0.0244785
0.0265597
1.32234
0.0201563
0.73997
0.0209325
0.0213484
1.58344
0.530675
0.0201678
0.0213653
0.0206638
0.0214984
0.070982
0.0216573
0.0212453
0.0217594
0.022052
0.0216932
0.0211537
0.0201918
0.0209297
0.0211692
0.553576
0.022395
0.0199727
0.0318837
0.0212601
0.856408
0.0411462
0.0272608
0.0213536
0.0211973
0.0614458
0.0220817
0.0212395
0.0213471
0.375749
0.151831
0.0213242
0.019833
0.0552212
0.0385042
0.0196955
0.401266
0.0305869
0.0212277
0.0215432
0.0212165
0.0214435
0.0241657
0.588496
0.0218346
0.0921336
0.0214257
0.019158
0.0198353
0.0212809
0.0198417
0.01983
0.168865
0.0210157
0.0435122
0.0334904
0.0198326
0.0215872
0.025472
0.0220397
0.0215043
0.0213658
0.0216161
0.487351
0.0198392
0.0214042
0.354121
0.0216462
0.0214691
0.0226652
0.0210348
0.0214839
0.0211442
0.0214141
0.0254467
0.0223498
0.0870485
0.0491369
0.0198439
0.0213763
0.0198413
0.0804567
0.0209798
0.0226174
0.0212211
0.0201095
0.0299254
0.0203703
0.0252393
0.0213472
0.0203824
0.13261
0.48645
0.0216106
0.0215142
0.0209312
0.194411
0.058488
0.0213692
0.290417
0.938274
0.0216928
0.0219029
0.411674
0.0225552
0.360378
0.0295237
0.7924
0.0211558
0.0241688
0.0957338
0.020322
0.150455
2.76675
0.0213573
2.91395
2.99967
0.023438
0.364968
0.0198702
0.0240605
0.0356541
0.0212172
0.409383
0.0199
0.0323946
0.0493535
0.0198444
0.0449304
0.0213962
0.0217266
0.0270198
0.0225343
0.376959
2.09519
0.0200189
0.0227254
2.5617
0.0206883
0.0229476
0.0207867
0.384883
0.101149
0.0207328
0.0214881
0.0230757
2.35621
2.24735
0.0249374
0.019849
0.0208663
1.71886
0.732852
0.141999
0.0219865
0.0219641
0.0234942
0.0199906
0.0219682
0.0233027
0.0219703
0.0208497
0.0233212
0.412697
0.232838
0.0209374
0.266661
0.0224178
0.298562
2.32156
0.0314452
0.969307
1.23141
0.0198699
0.12836
0.138042
0.62143
0.171495
0.0211459
0.148402
0.454145
0.0337459
0.0232593
0.17849
0.290087
0.0210305
0.0232409
0.0228308
0.021182
0.0597672
0.0212073
0.0227287
0.0206029
0.0199084
0.0213666
0.0212724
0.0218683
0.0233037
0.236413
0.0231962
0.458255
0.0207986
0.0237543
0.0214345
1.66827
0.678912
0.0211494
0.0355057
0.0217571
0.0201664
0.0212695
0.0201055
0.0210063
0.0940848
0.0214619
0.327836
0.0207154
0.0209242
0.403716
0.0219635
0.021603
0.0211075
0.0211414
0.722126
0.059486
0.482925
0.294947
0.209748
0.0214136
0.0215644
0.0215749
0.0227035
0.0295391
0.0725741
1.33747
0.0209136
0.0335793
0.0217685
0.325859
2.66271
0.0229537
2.88564
1.7254
0.0222313
0.0321403
0.0208698
0.0361435
0.0219403
0.088502
0.0345271
0.0199031
3.05758
0.625134
0.0214922
0.022111
0.0216247
0.361328
0.0204577
0.0215291
0.501099
0.020785
1.40593
0.0236312
0.0229019
0.0217638
0.0215722
0.0359064
0.0211081
0.561953
0.0228309
0.0212163
0.0206979
0.0398305
0.0217897
1.75385
0.0217373
0.0232212
0.0230428
0.054956
0.022206
0.0212078
0.231046
0.0215333
0.0203822
0.0303819
0.251872
0.0231944
0.0204855
0.0216377
0.0921296
0.0458136
0.0211362
0.01897
0.020307
0.0824938
0.0271724
0.0216573
0.0210755
0.0863342
0.0209244
0.0207161
0.0213361
0.076296
2.14908
0.0217463
0.0230586
0.0215828
0.0217208
0.416219
0.0256454
0.0215226
0.0215477
0.0209892
0.344964
1.79869
1.79192
0.0211861
0.172665
0.0201556
0.0200945
0.0227851
0.0216891
0.0325219
0.0213178
0.0284178
0.104244
2.65896
0.0227075
0.0214012
0.0214228
0.0312002
0.0205889
0.0211238
0.0280447
0.0213631
0.0211983
0.0216514
0.0231107
0.0199614
2.64399
0.0337694
0.0233225
0.0224376
0.0248643
0.0223123
1.46703
0.0213188
0.0212165
0.0213948
0.0209968
0.0213747
0.0208494
0.214211
0.0898081
0.0214465
0.0218197
0.0211099
0.0234489
0.0219764
0.0395644
0.0217294
2.46062
0.0212679
0.0215347
0.0204197
0.0698891
0.0214083
2.45822
0.0214195
0.0213876
0.019553
1.96227
0.0223174
0.0258624
1.44856
0.0215544
0.0213991
0.0210844
0.0213561
0.0216851
0.0217446
0.0231006
0.529918
0.0214558
0.0479747
0.452495
0.0224678
0.111828
0.0213275
0.0224429
0.0209335
0.0203111
0.0201666
0.0213121
0.20886
0.0823027
0.0208078
0.777735
0.0500737
0.0212218
0.0559975
0.0202891
0.0278847
0.0217613
0.02099
0.0669808
0.0213391
0.0221764
0.0227682
0.0428166
0.0691295
0.021607
0.0209327
0.0217845
2.54006
0.727279
0.0302595
0.0239843
0.0213584
0.0213547
0.0952638
0.0213568
0.0254381
0.0245034
0.389115
0.0213402
0.0292011
0.0212999
0.0214973
0.0271206
0.026156
0.0269872
0.021764
0.0216293
0.0236496
0.550227
0.0294813
0.02037
0.0231586
0.0884739
0.0224679
0.0322975
0.021474
0.0214956
0.0213055
0.0211627
0.134905
0.0441688
0.0213172
0.07254
0.0234024
0.024058
0.0214156
0.0213037
0.0213312
0.02079
0.0390541
0.024107
0.0219012
0.0217322
0.0212631
0.0213435
0.24126
0.0213817
0.0213476
0.0215299
0.0408157
0.290735
0.0213544
0.0210473
0.0214106
0.236674
0.0215947
0.511123
0.0213503
0.0364686
0.0213483
0.0213364
0.0296119
0.0214832
0.0270145
0.0215344
0.021373
0.0202994
0.0218783
0.229463
0.0214054
0.0216915
0.353299
0.0213099
0.0217095
0.0217285
0.0213624
0.021098
0.0216172
0.0469351
0.0207278
0.0207961
0.0209251
0.0484644
0.0228746
0.377498
0.0213737
0.0214015
0.0362716
0.32061
0.298051
0.0235742
0.0245819
0.297416
0.0213508
0.417758
0.0214708
0.127783
0.0209237
0.0318286
0.578019
0.0195682
0.0225477
0.0208442
0.021719
0.0203956
0.575023
0.0208658
0.294421
0.021506
0.021349
0.0215126
0.0202537
0.0215056
0.143246
0.0212722
0.0211126
0.0211011
0.0213205
0.0213308
0.734602
0.577641
0.629802
0.0213409
0.0201931
0.0225939
0.0214058
0.0212537
0.108762
0.0322564
0.0216254
0.0212971
0.739308
0.0220706
0.740338
0.56806
0.0219668
0.0202673
0.0212625
0.0250337
0.699547
0.0212314
0.0211735
0.0396285
0.150799
0.0361027
0.61986
0.0212354
0.0229558
0.0228486
0.0199285
0.0215494
0.0419856
0.476331
1.21026
0.0212276
0.0942297
0.0215053
0.0213099
0.0232651
0.0216596
0.0233288
0.027091
0.0211798
0.0214176
0.02122
0.0208563
0.0199342
0.0210323
0.0233941
0.215005
0.0212371
0.019553
0.0199511
0.0212503
0.0215997
0.0212539
0.028189
0.0216907
0.0217216
0.021658
0.297961
0.0212105
0.0223372
0.0733791
0.0212689
0.021217
1.81093
0.0210827
0.0213294
0.0212031
2.03624
0.021284
0.0319366
0.0215221
0.992509
0.02016
0.0200924
0.0203826
0.0211882
0.0262527
0.0212299
0.0215179
0.0344244
0.0212632
0.233392
0.0251801
0.0256941
0.021555
0.630874
0.0264732
0.0213278
0.0211104
0.0216636
0.0214438
0.0212447
0.108971
0.0209528
0.0293562
0.0211261
0.0212881
1.60967
0.0210183
1.40779
0.0754196
0.0212261
0.0599069
0.0211073
0.0216487
0.0212136
0.0215396
0.0207056
0.0212449
0.021184
0.021199
0.135498
0.0213737
0.0209493
0.0216007
0.020773
0.0211685
0.021167
0.0213783
0.0204854
0.0212863
0.0211697
0.0213456
0.0211983
0.0215702
1.67932
0.0212318
0.0216474
0.0326543
0.296416
0.0206383
0.0263406
0.0209497
0.0209223
0.0212171
0.0212221
0.759285
0.296207
0.0210909
0.0218573
0.427886
0.0213434
0.260303
0.521158
0.0199298
1.29356
0.0213797
0.0670496
0.0227542
0.0941598
0.111515
0.543266
0.0209622
0.0210648
0.0201288
0.0230377
0.0450285
0.0217781
0.0739455
0.291519
0.0213236
2.05744
0.0361552
0.0149432
0.0203721
0.0270504
0.026943
0.0211994
0.020979
0.0209268
0.0230814
0.023036
0.0233063
0.023002
0.0231599
0.040405
0.0210074
0.0211267
0.0211206
0.361345
0.0232618
0.0233651
1.51613
0.0312386
0.0221207
0.0209878
0.0232884
0.0211724
0.0281095
0.0213254
0.0216567
0.0368586
0.0222921
0.0535184
0.0199249
0.292682
0.0255955
0.0870537
0.36
0.144219
0.0210686
0.0213113
0.0212982
0.0591125
0.0213668
0.0208678
0.0212911
0.0253431
1.36635
0.21307
0.0233523
0.0215083
0.0330157
0.0309628
0.293179
0.0342898
0.0342796
0.0305954
0.033351
0.313336
0.0210935
0.0211064
0.0210781
0.0431406
0.0216318
0.0337887
0.0210922
0.0211795
0.0210965
0.381427
0.0211381
0.0210713
0.0210074
0.0289195
0.0209139
0.0211193
0.0202774
0.0225452
0.0781593
0.0236914
0.0229175
0.0214179
1.35728
0.0237136
0.0208208
0.0213028
0.241545
0.130327
0.0213319
0.0213322
1.92914
0.0210463
0.0209614
0.0209229
0.0212035
0.0348092
0.020975
0.0213893
0.0210777
0.0213856
0.0211355
0.0210882
0.0210425
0.0211505
0.0211773
0.035194
0.0212192
0.0206488
0.0351208
0.0359533
0.0274485
0.0531707
0.0209437
0.550887
0.0212666
0.0255083
0.0210461
0.0399068
0.0210243
0.021196
0.0200815
0.038389
0.0232393
0.0211548
0.06201
0.021102
0.0200732
0.0210982
0.0217641
0.0244907
0.0209141
0.512734
0.0213642
0.0246897
0.0277764
0.02117
0.0272835
0.020982
0.0205748
0.021151
1.408
0.0260506
0.0879744
0.0285062
0.0662168
0.0237684
0.0326297
0.0233333
0.0212086
0.0198487
2.0628
0.0357671
0.0209565
0.0255707
0.020867
0.0209695
0.49561
0.0204575
0.0211731
0.370288
0.0323514
0.502392
0.0211503
0.0209896
0.0217391
0.020904
0.0201736
0.0570273
0.0210818
0.180918
0.074805
1.70669
0.0212789
0.0216496
0.0210902
0.0204504
0.0232031
0.0214638
0.0213749
0.0254363
0.0206621
0.0195488
0.0211885
0.0217079
0.0233811
0.648001
0.0231166
0.0213477
0.229368
0.348965
0.0211082
0.0352754
0.0213269
0.021163
0.0211566
0.0209264
0.0233879
0.0216907
0.0339505
0.0210569
0.023378
0.0213804
0.0197812
0.0209793
0.0211254
0.0227477
0.0207976
0.0210344
0.0214249
0.0212138
0.514313
0.02134
0.0214801
0.0383488
0.0215515
0.0201778
0.265533
0.702117
0.511771
0.0861394
0.0550829
0.0204988
0.0215985
0.0450658
0.81927
0.040327
0.203818
0.298463
0.0213842
0.309431
0.513426
0.0213034
0.0331309
0.0215624
0.493738
0.0304449
1.37643
0.0215546
0.0209407
0.0355738
0.0211228
0.0211666
0.0769374
1.2811
0.0212633
0.0213653
0.0210066
1.38219
0.0210041
0.0209909
0.0211929
0.0209728
0.0209716
0.0321099
0.0216044
0.0209255
0.0211791
0.0241094
0.0376989
0.454762
0.0211679
0.0210341
0.021877
0.0211797
0.020954
0.0211086
1.77168
0.0211132
0.029415
0.0211032
0.0212225
0.0202672
0.0211901
0.525476
0.0294162
0.0205084
0.0213326
0.313479
0.516132
0.034264
0.517806
0.0211623
0.0241569
0.0210624
0.0197718
0.0210194
0.0200841
0.0210191
0.0211914
0.0213519
0.183093
0.0199328
0.539011
0.534513
0.0204741
0.0225578
0.0311736
0.0215193
0.0210884
0.0211869
0.0212232
0.0209579
0.369525
0.0198741
0.0209825
0.0331032
0.0210496
0.0212275
0.0209554
0.0444633
0.0213297
0.0213221
0.428763
0.0206498
0.0205768
0.02101
0.0216438
0.0211907
0.0196489
0.0210505
0.019998
0.0472689
0.0244696
0.020979
0.0561756
0.0198243
0.0211601
0.0221701
0.233555
0.494283
0.0199735
0.0223505
0.0212454
0.0210874
0.0210134
0.0210568
0.310627
0.355286
0.0211513
0.0215219
0.0237929
0.0209386
0.0209982
0.023149
0.0242264
0.284089
0.0211627
0.0222385
0.392768
0.0210689
0.0234218
0.0643881
0.0506167
0.0206478
0.020904
0.020741
0.021023
0.0209359
0.285873
0.0209884
0.370269
0.402768
0.0216282
0.0233319
0.318027
0.0187401
0.0326288
0.0384072
0.0409572
0.0225606
0.0211374
0.0219909
0.330568
0.0208007
0.122011
0.0209137
0.0199719
0.0200418
0.0200808
0.0210821
0.719646
0.0213109
0.497417
0.020671
0.0683641
0.508642
0.0197999
0.0213429
0.0220595
0.487202
0.0211316
0.0687635
0.0210292
0.019967
0.0208949
0.284135
0.0208851
0.0278874
0.298301
0.0210003
0.304875
0.021492
0.032641
0.0510338
0.0213411
0.0205665
0.0290144
0.0539059
0.0210728
0.0221154
0.0201463
0.0207493
0.0208368
0.196778
0.0209359
0.0205732
0.0324932
0.0200524
0.300995
0.0213591
0.0211513
0.0210152
0.0475444
0.0209162
0.0208566
1.19816
0.0504522
0.313977
0.0212032
0.020063
0.0271324
0.05384
0.266202
0.228375
0.0228863
0.0230729
0.0212985
0.0212091
0.0233346
0.0214702
0.0209911
0.0203496
0.029806
0.0233877
0.0208849
0.0196177
0.0212914
0.0205539
0.0212971
0.0212104
0.0126679
0.0962965
0.0264108
0.251188
0.385913
0.0206117
0.0209054
0.0216053
0.0290472
0.0201404
0.0212443
0.0208758
0.0209314
0.0210956
0.0405456
0.0211358
0.719439
0.0212237
0.0208168
0.087737
0.0294238
0.0212925
0.0208414
0.0208183
0.119542
0.302589
0.0212865
0.020178
0.0205403
0.0208946
0.0211846
0.0209612
0.135107
0.0209689
0.0208164
0.0370281
0.0204398
0.0538576
0.0234349
0.02097
0.0212261
0.333103
0.466446
0.157116
0.589397
0.0234231
0.0219152
0.0215257
0.021215
0.0321082
0.0207892
0.128507
0.741667
0.0217764
0.0310911
0.310632
0.0208153
0.553647
0.0236778
1.10922
0.0206071
0.0207518
0.0207676
0.0214869
0.0210322
0.00122473
0.472581
0.0376015
0.0210573
0.0208665
0.0208264
0.0175326
0.0235931
0.128575
0.0208464
0.0211853
0.108192
0.0209485
0.0966546
0.295166
0.0208393
0.0211933
0.0197536
0.0210512
0.312121
0.116003
0.020827
0.0209809
0.0206429
0.320129
0.021114
0.0225414
0.209893
0.0309527
1.61917
0.0289292
0.0300131
0.0212062
0.0244584
0.0214335
0.0209939
0.0221435
0.0247116
0.0204293
0.0210105
0.363852
0.0211095
0.020236
0.335286
0.0206194
0.0209703
0.498524
0.0628752
0.0199695
0.0201565
0.0348848
0.0343689
0.0279722
0.507986
0.0220043
0.103056
0.0209517
0.0189398
0.0329646
0.0754359
0.405733
0.0209618
0.266982
0.0291293
1.63997
0.0205789
0.0209911
0.0201312
0.0211304
0.0236522
0.0207387
0.0390226
0.0206417
0.0218814
0.0211447
0.380469
0.0212957
0.144718
0.022759
0.0261079
0.0208495
0.0195762
0.0272653
0.019724
0.0295699
0.0211422
0.027404
0.0211939
0.0300562
0.279543
0.0191227
0.806389
0.0207617
0.529276
0.0234588
0.0199182
0.0212875
0.0539272
0.0212558
0.0208564
0.021162
0.0957883
0.0212829
0.035692
0.681063
0.0233705
0.177253
0.0208161
0.0199632
0.264251
0.0271386
0.320372
0.662383
0.0208217
0.277391
0.445391
0.0369551
0.0206563
0.676225
0.308832
0.0207395
0.0210254
0.0197977
0.269178
0.424162
0.320943
0.632381
0.0207725
0.020638
0.0214726
0.0201356
0.0206049
0.0233992
0.0216916
0.0203229
0.71205
0.0222586
0.0211836
0.0227503
0.122067
0.0577389
0.0216074
0.0241223
0.0208666
0.631319
0.0207529
0.133646
0.0212781
0.0289683
1.5059
0.0217503
0.736748
0.0203719
0.0202739
0.0207692
0.0208055
0.0206256
0.0207958
0.019775
0.194125
0.0234582
0.0209512
0.708482
0.020839
0.0212996
0.0206153
0.718172
0.0209952
0.0218722
0.664183
0.488619
0.0208835
0.0197875
0.593768
0.0210838
0.552906
1.81528
0.0212962
0.0214622
0.0262358
0.118472
0.762191
0.0200985
0.0206122
0.0221638
0.0263051
0.0222409
0.770498
0.52038
0.0205457
0.0215446
0.0270057
0.0215997
0.348614
0.70143
0.0205199
0.479602
0.36903
0.0212522
0.0208862
0.0208468
0.0208228
0.0206219
0.0209515
0.0207161
0.0223496
0.283283
0.0221476
0.0211371
0.0223161
0.023022
0.0205571
0.0206846
0.118229
0.0216529
0.0243318
0.0205422
0.0217503
0.020519
0.0199441
0.324042
0.0212933
0.0210396
0.722859
0.623522
0.240596
0.0208471
1.41376
0.0213057
1.3825
0.734323
0.0214553
0.63732
0.0206572
0.0202585
0.515689
0.0208181
0.0389525
1.59973
0.631178
0.0234259
0.43672
0.0213735
0.0207971
0.0218089
0.0206246
0.383621
0.481431
0.0208367
0.501734
0.660442
0.0197377
0.0206422
0.376661
0.0548626
0.0431152
0.0255247
0.310757
0.546326
0.0211179
0.799423
0.56988
0.165684
0.634452
0.0664139
0.618934
0.0197621
0.345172
0.0383553
0.0198476
0.792346
0.533307
0.0421335
0.0196263
0.315232
0.020359
0.0206455
1.34115
0.691403
0.0206548
0.0212254
0.0489131
0.0199322
0.0208597
0.020763
0.0101334
0.311285
0.0217286
0.0213272
0.270352
0.0336282
0.758442
0.0633691
0.0205423
0.303152
0.0210035
0.465143
0.0232282
0.0201797
0.468748
0.0212591
0.0713741
0.021301
1.539
0.0210176
0.021331
0.02019
0.0212022
0.0204418
0.0213302
1.70579
0.466553
0.0205642
1.67768
0.284427
0.0202795
0.0205297
0.525601
0.0295967
0.386212
0.557159
0.715639
0.0205304
0.021088
0.500377
0.0251318
0.550324
0.0248651
0.0205981
0.0211242
0.0203079
0.0198104
0.0205606
0.0288976
0.0205439
0.304738
0.0208669
0.0213
0.0484431
0.01977
0.028301
0.457046
0.0207876
0.0207496
0.0209173
0.0244094
0.0196275
0.0200874
0.0507635
0.0867757
0.0190275
0.0214473
0.0262146
0.0204967
0.0209708
0.0211994
0.701036
0.277202
0.291378
0.508411
0.0247686
0.0232956
0.0831231
0.0209775
0.023644
0.0196306
0.0196717
0.0237941
0.0207838
0.524971
0.311042
0.0225095
0.43904
0.0350569
0.298259
0.0179606
0.0199765
0.194944
0.0223551
0.0708197
0.0212356
0.0204173
0.0200711
0.0241165
0.495022
0.58216
0.430023
0.0209377
1.9518
0.0205528
0.115183
0.0621598
0.020429
0.0211775
0.0209416
0.551997
0.373194
0.0215071
0.019629
0.361493
0.0218592
0.261126
0.0213042
0.0206676
0.545412
0.312533
0.0204761
0.0255603
0.0206684
0.023373
0.0212486
0.563426
0.0206772
0.0220695
0.0258434
0.0212995
0.0208165
0.105058
0.141484
0.0213288
0.0211646
0.0215148
0.0205634
0.0204523
0.0446175
0.321309
0.0208174
0.0262277
0.0207949
0.0213282
0.0213134
0.0210579
0.550354
0.177692
0.0228845
0.0832938
0.0207272
0.025555
0.020816
0.02132
0.635485
0.0216106
0.312478
0.0206945
0.490259
0.0212345
0.0703507
0.099838
0.0201041
0.0208073
0.0339818
0.0300359
1.38519
0.432744
0.241202
0.552031
0.0233255
0.0211553
0.266066
0.0207269
0.273588
0.0199057
0.0269931
0.0247875
0.0207922
0.0206104
0.0208315
0.0267131
0.31001
0.0210301
0.203089
0.021152
0.033246
0.0204408
0.0227678
0.072211
0.0204073
0.041168
0.0824278
0.0201447
0.37422
0.278405
0.830821
0.0204286
0.541955
0.0204376
0.0201472
0.52838
0.020418
0.687153
0.0199339
0.0207754
0.020454
0.0234188
0.0322431
0.0207169
0.395511
0.0198048
0.025266
0.144179
0.0205749
0.180849
0.182348
0.0251853
0.11377
0.0210928
0.0205072
0.807325
0.0204298
0.0203235
0.0204541
0.807236
0.302369
0.722542
0.835173
0.0200507
0.0209828
0.0203819
0.719776
0.0206337
0.666928
0.0468239
0.0212031
0.0594226
0.761684
0.103835
0.0203339
0.0200834
0.0212442
0.0212166
0.0592309
0.694936
0.0202797
0.0207475
0.0206652
0.398372
0.033588
0.0205328
0.263781
0.0209423
0.0211379
0.0198291
0.0190587
0.0797907
0.028831
0.0204066
0.450751
0.191651
0.0200213
0.4197
0.0205695
0.0208648
0.0245714
0.0202542
0.369741
0.0198217
0.0217223
0.0144349
0.0197608
0.0200319
0.0209946
1.48122
0.0225983
1.28144
0.406657
0.0208798
0.0233033
0.0853021
0.0204747
0.480572
0.328732
0.02061
0.313364
0.0584327
0.0923533
1.33091
0.0514687
0.0203234
0.420453
0.268098
0.315237
0.286537
0.0204403
0.0202552
0.0207107
0.570523
0.0202441
0.0200913
0.028323
0.0219306
0.0211884
0.0203141
0.0208031
0.0202336
0.0201358
0.0375751
0.0207984
0.321239
0.275837
0.069564
0.0223203
0.0205985
0.0203342
0.524124
0.031957
0.537971
0.520708
0.0204738
0.0206416
0.0307906
1.26454
0.311401
0.0203577
0.642754
0.55153
0.0198956
0.028838
0.0923201
0.0200912
0.0208366
0.0202995
0.020566
0.0200408
0.0359337
0.556299
0.0205236
0.313441
0.0211875
0.0255048
0.0208822
0.0212809
0.0203511
0.088852
0.0238699
0.0202927
0.0198197
0.0202336
0.0202219
0.366669
0.0270442
0.179592
0.0606598
0.268609
0.0200487
0.0202441
0.0251695
0.0942025
0.0211326
0.3249
0.0217764
0.0197583
0.0481431
0.881865
0.0206852
0.0221875
0.0981776
0.608963
0.156519
0.0202244
0.0234669
0.0206748
0.119329
0.0206345
0.0641276
0.0623501
0.168508
0.0550599
0.0301683
0.022873
0.02673
0.0208696
0.0202268
0.0203932
0.020689
0.306262
0.0205872
0.0205927
0.020846
0.0206144
0.0201234
0.030974
0.0828676
0.105838
0.0201365
0.508227
0.302066
0.0766058
0.0204175
0.0202333
0.0207617
0.0201123
0.0799007
0.026332
0.0202219
0.0145165
0.0205415
0.523963
0.0411917
0.0205753
0.0501727
0.289659
0.020314
0.334459
0.362187
0.0302723
0.0204286
0.0299852
0.13425
0.0196286
0.0204749
0.342768
0.0214267
0.0207595
0.257988
0.0210383
0.0203001
0.020464
0.0202891
0.106348
0.0201126
0.020278
0.414055
0.0413265
0.0204406
0.0207681
0.322044
0.0287693
0.0203992
0.0234775
0.0203494
0.189103
0.193654
0.0214417
0.020169
0.750379
0.608077
0.0207636
0.0200423
0.306235
0.0213101
0.0201249
0.790171
0.0208756
0.0313523
0.0204411
0.406326
0.286944
0.0464515
0.0471529
0.0203847
0.0273926
0.0205478
0.0223005
0.284597
0.0201028
0.027191
0.0204706
0.380884
0.0206585
0.0203012
0.019934
0.0204195
0.0201376
0.0200603
0.0447161
0.0213321
0.0531859
0.0226593
0.01978
0.0232136
0.13487
0.0205196
0.0328885
0.0202242
0.021
0.62238
0.021087
0.416909
0.0234309
0.0407854
0.0200219
0.0200712