/*--------------------------------*- C++ -*----------------------------------*\
| =========                 |                                                 |
| \\      /  F ield         | OpenFOAM: The Open Source CFD Toolbox           |
|  \\    /   O peration     | Version:  v2012                                 |
|   \\  /    A nd           | Website:  www.openfoam.com                      |
|    \\/     M anipulation  |                                                 |
\*---------------------------------------------------------------------------*/
FoamFile
{
    version     2.0;
    format      ascii;
    class       surfaceScalarField;
    location    "200";
    object      phi;
}
// * * * * * * * * * * * * * * * * * * * * * * * * * * * * * * * * * * * * * //

dimensions      [0 3 -1 0 0 0 0];
oriented        oriented;


internalField   nonuniform List<scalar> 
14516
(
0.377303
-0.271141
-0.105752
-0.708465
0.404083
0.304409
0.241475
0.136271
0.433024
0.011079
-0.443788
0.183118
0.115812
-0.298693
0.279317
-0.524964
0.245959
0.388964
-0.648452
0.26048
0.160004
0.40524
-0.565312
0.370362
-0.376492
0.00615274
0.330521
-0.147149
0.236675
0.000949999
-0.237455
0.202436
-0.419487
0.217129
-0.165098
0.59828
0.615145
-0.377037
-0.238134
0.617135
-0.615611
-0.406846
0.65718
-0.250317
0.15656
-0.536447
0.379741
0.563618
-0.406829
0.14431
-0.384764
0.240628
0.208274
0.42172
-0.256975
-0.164672
0.403303
-0.191538
-0.212012
0.268876
-0.546499
0.277655
-0.301745
-0.306523
0.32486
-0.549242
0.224628
0.459038
-0.624195
0.412085
-0.663407
0.251367
0.678565
-0.435754
-0.24291
0.0723721
-0.226922
0.154803
-0.0472926
0.41758
0.353584
0.00519854
-0.358463
0.606424
-0.337463
-0.242854
0.58954
-0.34643
-0.593947
0.601565
-0.00754063
-0.259728
0.075066
0.184817
0.244419
-0.395552
0.151319
0.571207
-0.181605
0.244771
0.158282
0.207684
0.342135
-0.549263
0.687708
-0.361234
-0.326659
-0.0672836
0.421132
0.0844586
0.534153
-0.561708
0.0369097
0.524773
0.679215
-0.371182
-0.307213
0.0336247
-0.59554
0.495999
-0.187251
-0.662957
0.335885
0.327087
0.435998
-0.27425
-0.161913
-0.405963
0.417437
0.263057
-0.187829
0.272463
-0.157424
-0.114965
-0.215341
0.459414
-0.244003
-0.193393
-0.197365
0.391024
0.390831
-0.188584
-0.202214
-0.179808
-0.316314
0.496368
0.318137
0.185704
0.100111
-0.209436
0.109394
0.262139
-0.398152
0.136339
-0.286952
0.494631
-0.670229
0.443906
0.226415
-0.264893
0.465178
-0.20026
0.388332
-0.00723208
-0.381073
-0.574364
0.0987328
0.476597
-0.141107
0.27534
-0.59416
0.250142
0.344053
-0.0887129
0.477174
-0.289276
-0.124947
0.414192
0.403646
-0.201121
0.286347
-0.0495918
0.199153
0.191706
-0.496149
0.605485
-0.109335
0.280114
-0.532247
0.251679
0.295271
0.31821
-0.613497
0.383472
-0.120206
0.463183
-0.200748
-0.576795
0.304536
0.272419
-0.520418
0.610286
-0.0898629
0.251112
-0.603159
0.351896
0.239559
-0.581823
0.342245
-0.326256
-0.267857
0.272866
-0.615485
0.3427
-0.397687
0.47884
-0.081133
-0.745513
0.370784
0.374754
0.365269
-0.432381
-0.678603
0.357837
0.320819
-0.352732
0.592158
-0.528542
0.300535
0.22807
-0.166029
-0.33516
0.501453
-0.306563
0.630321
-0.323561
-0.291607
-0.416834
-0.273376
0.113421
0.160028
-0.194896
-0.342398
0.537368
0.343846
0.262646
-0.430906
-0.338539
-0.406949
0.278809
-0.458523
0.133527
-0.531178
-0.53305
0.338283
0.723014
-0.286116
-0.436818
0.404136
0.318971
-0.305036
0.62743
-0.32224
-0.20152
0.537047
-0.33531
0.338943
-0.540253
0.134743
-0.655121
-0.0818726
0.44717
0.0187167
-0.35389
0.435606
-0.644484
0.209101
0.261724
-0.476754
-0.657543
0.464568
0.19293
-0.540131
0.0439864
-0.457559
0.278909
0.178564
0.229555
0.225572
-0.50136
0.315346
0.18637
0.139301
0.133234
-0.258443
-0.555772
0.25431
0.301716
0.225456
0.15823
0.588507
-0.315546
-0.254927
0.598957
-0.501198
-0.156389
0.0426422
0.440801
-0.48345
0.28074
0.231371
-0.511455
0.435347
-0.155825
-0.448171
0.240436
0.20783
0.164455
0.257338
0.0927248
-0.227676
0.135117
-0.34141
-0.33714
0.583256
-0.332236
0.101772
-0.427487
0.325824
-0.703513
0.484777
0.21875
-0.223946
0.391307
-0.289591
0.610933
-0.426001
-0.184971
0.338961
-0.386096
-0.520178
0.246696
0.273584
-0.00370947
-0.569888
0.441622
0.23838
0.518577
-0.287474
0.391562
0.228991
-0.620517
0.482077
-0.20088
0.294239
-0.509511
0.215434
0.684107
-0.299633
-0.383915
-0.698825
0.288052
0.410722
0.274087
-0.651164
-0.604976
0.362923
0.242064
-0.661771
0.30828
0.353519
-0.387269
-0.311608
-0.175932
0.519505
-0.3434
-0.152927
-0.120387
-0.386575
0.385743
0.00106367
-0.353514
-0.349986
-0.0250487
-0.361232
0.399643
-0.0688559
-0.507147
0.331392
-0.374614
0.417252
0.681818
-0.323802
-0.357927
0.504691
-0.210303
-0.752062
0.364837
0.292177
0.392393
-0.347967
0.507762
0.305768
0.37271
-0.615139
0.408625
0.206501
-0.338941
0.096941
0.242056
0.255009
-0.611717
0.356744
0.201182
-0.457826
-0.305102
-0.172379
-0.150685
0.323142
-0.221916
0.634024
-0.61811
0.303581
0.314525
0.10657
-0.471677
0.365757
-0.464503
0.237036
0.227582
-0.371018
0.626089
-0.287655
-0.176624
-0.481189
0.259509
0.221689
-0.194586
-0.219544
0.217836
0.361461
-0.579277
0.580153
-0.252907
-0.327097
-0.0635959
0.238
-0.174393
-0.00376323
0.131474
-0.127663
-0.153793
-0.152922
0.306711
-0.347888
-0.184509
0.326017
-0.471552
0.145819
-0.256739
0.536689
0.21984
-0.119618
0.350063
0.230232
-0.497667
0.276248
0.222156
-0.391911
-0.223241
-0.211826
-0.269331
-0.418455
0.480679
-0.0621482
0.276776
0.159042
-0.280206
-0.177427
-0.378103
-0.252306
0.18863
0.106132
-0.329844
0.223885
0.564482
-0.321114
-0.243252
0.110638
0.289291
0.539323
-0.147708
-0.0125886
0.351701
-0.310528
0.414657
-0.103988
-0.46506
0.149096
0.20737
0.264899
-0.472049
0.462559
-0.215699
-0.481589
0.616347
0.445644
-0.640626
0.332059
0.308512
0.354475
-0.436476
-0.238701
0.361185
-0.122823
0.331299
-0.136546
-0.194594
0.485503
-0.208973
-0.441926
0.167623
0.207496
-0.400984
0.327536
-0.221274
0.437438
0.24447
0.591924
-0.353121
-0.238934
0.47943
-0.15321
0.06679
-0.548367
0.198505
0.185724
-0.38409
-0.346886
0.198941
0.148459
0.511096
-0.319351
-0.191667
-0.188571
-0.585085
0.166657
0.669141
-0.298338
-0.213505
-0.302017
-0.22262
0.223129
0.320039
-0.543067
-0.182947
-0.163483
-0.249974
0.109118
0.140896
-0.678125
0.376376
-0.622092
0.315583
-0.307313
0.153383
0.611633
-0.160984
-0.450566
0.105248
-0.227889
0.122719
-0.177646
0.376224
-0.275485
-0.229155
0.50557
-0.212564
-0.323361
0.536511
0.471371
-0.192463
-0.660599
0.402625
0.258217
-0.0880456
0.442298
-0.621243
0.310201
0.311021
-0.553185
0.319556
0.234193
0.287073
-0.529869
-0.305616
0.54137
-0.23551
0.193543
0.326133
0.646299
-0.241212
0.283655
0.22124
-0.339371
-0.148017
-0.445887
0.413784
-0.234019
-0.179646
0.117201
-0.283691
0.166546
0.288982
-0.149623
-0.236654
0.114738
0.121987
-0.298873
-0.213662
0.513255
-0.427778
0.219927
0.207688
0.223799
0.274075
-0.497425
0.278845
-0.161627
0.52294
-0.321921
-0.200661
-0.666261
0.324748
0.341425
-0.605965
0.565651
0.0402496
-0.518016
0.127503
0.161528
0.427265
0.177409
-0.604657
-0.335724
0.163456
-0.484753
-0.0325187
0.517267
-0.700168
0.215397
0.156583
0.174866
0.266505
0.148284
-0.375819
0.485841
-0.109474
-0.253195
-0.413135
0.600613
-0.383113
-0.217393
0.131401
-0.327222
0.196027
0.504665
-0.287829
-0.216847
0.578204
-0.518723
-0.0594945
0.544057
0.0341374
-0.220232
-0.466655
0.186361
0.620017
-0.352316
-0.26781
-0.143851
0.498663
-0.214757
-0.596461
0.192109
0.404334
0.558627
0.00999621
-0.568158
0.247031
0.440534
0.341257
0.169879
0.222357
0.191568
-0.00736195
-0.236852
0.24427
-0.678297
0.433752
0.245381
0.243011
0.219701
0.244329
-0.367347
-0.18821
-0.46643
0.216098
0.251057
0.200676
0.275502
0.344308
-0.619776
0.367514
0.243398
-0.384507
0.192223
0.192266
0.222744
-0.230096
0.333578
0.242218
-0.575918
0.448308
-0.261088
-0.186791
-0.283867
0.475686
-0.230817
-0.245028
0.187946
-0.434784
0.246622
-0.104626
0.540444
0.381748
-0.630525
0.249486
0.60856
-0.489492
-0.119147
0.307293
-0.175731
0.360525
-0.306664
-0.0538261
-0.279251
-0.220572
0.500065
0.333925
0.141659
0.635353
-0.357689
-0.278027
0.482184
0.126301
0.344967
0.0155929
0.22759
-0.405239
0.177693
0.1676
0.206696
-0.374218
0.253158
-0.559475
0.327753
-0.2826
-0.242937
0.525727
0.15191
0.179489
-0.331278
0.0592668
-0.298229
-0.284234
-0.25307
0.537364
-0.316415
0.058799
-0.312565
0.253888
0.637528
-0.319323
0.647306
-0.580517
0.104921
-0.108617
-0.382577
0.187681
0.194809
-0.238079
-0.159756
0.368842
-0.143071
-0.386483
-0.189839
0.576358
0.161997
0.175529
0.186283
0.26974
-0.574784
0.353535
-0.441811
0.278917
-0.166967
-0.111815
-0.306209
-0.278682
0.584682
0.272211
0.252424
-0.388467
0.376418
0.597735
-0.571282
-0.0263365
0.106235
-0.54204
0.108378
0.216351
-0.324428
0.530475
-0.180561
0.239214
-0.523224
0.251703
-0.3795
-0.280865
0.287392
0.369803
0.614787
0.2735
0.0917604
-0.365495
0.339929
-0.221323
0.215969
-0.415439
0.199587
-0.393292
0.0499639
0.343552
-0.177446
-0.237142
0.414701
0.248105
0.0636872
0.333369
-0.397243
-0.408727
0.211567
-0.25663
-0.155098
0.411846
-0.404242
0.000749276
-0.194384
0.193905
0.361057
-0.161822
0.11063
0.109294
0.187517
-0.186483
-0.168686
0.442019
-0.480323
-0.0971306
0.577629
0.436362
-0.108694
-0.372206
-0.297952
-0.556051
-0.0499547
-0.29989
0.553209
0.0751088
0.536606
0.448073
-0.26035
-0.102895
0.456268
0.310996
-0.252099
-0.0190161
-0.374118
0.217957
-0.112591
-0.271913
-0.123475
-0.502555
0.263325
0.239231
-0.297516
0.532023
-0.23466
0.222426
0.115963
-0.266847
0.150953
-0.304998
-0.242543
-0.185388
0.16715
-0.395315
0.228074
-0.515058
0.356448
0.526187
-0.193095
-0.374126
0.181341
0.192585
0.5741
-0.598445
0.0244389
0.16257
-0.523957
-0.375971
-0.241442
-0.44532
0.202545
-0.260124
0.323916
0.392673
-0.0565187
-0.336303
-0.145066
0.142991
0.611089
-0.235832
-0.375205
0.123944
-0.101483
-0.148462
0.282322
0.323923
-0.606277
-0.688017
0.455804
0.232374
-0.0477402
-0.340328
-0.199126
-0.132609
0.331797
0.268251
0.342889
-0.281864
-0.339401
0.350416
-0.150537
-0.199784
0.34954
-0.245937
-0.103488
0.385832
0.214887
-0.257732
-0.243315
0.159968
-0.482569
-0.200808
0.616808
-0.230866
0.176983
-0.33184
0.155093
0.392031
0.138242
0.25685
-0.140908
-0.302278
-0.315931
-0.00614926
-0.540306
-0.533402
0.259066
0.274469
-0.16855
-0.274245
-0.259016
-0.616073
0.316416
-0.356902
-0.353619
-0.251351
-0.178611
-0.162534
0.34132
0.37463
0.245236
0.338197
-0.170563
0.121652
0.184005
0.216332
-0.400509
0.242224
0.281059
-0.19045
-0.196669
0.605314
0.345578
-0.107505
0.548545
-0.0321369
-0.515673
0.059177
0.279046
-0.397878
0.636223
-0.238331
-0.61355
0.188791
0.424836
0.637001
-0.424737
-0.188801
-0.362346
-0.255779
-0.507526
0.231765
0.275671
0.473356
-0.201089
0.573411
0.558714
0.0186468
-0.576384
0.348064
0.0444375
0.166955
0.296522
0.319836
0.244768
0.200814
0.160338
-0.613819
-0.269208
0.375898
-0.186651
0.0896878
0.259938
0.279681
-0.274292
-0.147336
0.296562
-0.149182
0.218189
0.267075
0.157446
0.0256846
-0.367833
0.342968
0.426625
-0.101172
-0.325351
0.177243
0.168416
0.324856
-0.147573
0.537632
-0.285367
-0.165423
0.450842
0.399574
0.235468
-0.250424
-0.26977
0.5206
0.087254
0.13081
-0.276846
0.508847
0.381975
0.248485
-0.214568
-0.28235
0.174907
0.362386
-0.1108
0.554857
-0.533976
0.327425
0.20705
0.0987578
0.158038
0.172175
0.307456
-0.342958
0.518134
0.0574735
0.250028
0.624852
-0.263378
0.0877371
0.513914
0.643505
-0.317219
-0.326263
-0.233445
0.112553
0.314077
0.229436
-0.502463
0.252471
-0.628707
0.392051
0.236746
-0.403875
0.503193
-0.485377
0.228734
0.256864
-0.122748
-0.37849
-0.314519
-0.362998
-0.336447
0.363202
-0.219782
-0.215213
0.343826
-0.446541
-0.174889
0.31448
-0.321511
-0.289434
0.496969
0.0771791
0.523459
-0.0961797
-0.188461
0.369512
-0.242908
0.302922
-0.243628
-0.00314438
-0.534268
0.537806
-0.293677
-0.285025
0.578613
0.213208
-0.534163
-0.247385
0.212703
-0.511002
-0.295076
0.271178
-0.143519
0.323824
-0.596799
0.273047
-0.304321
0.00673488
0.245814
-0.252481
0.610412
-0.322267
-0.288074
-0.257869
-0.207807
-0.325192
-0.278099
-0.154918
0.43374
0.219625
0.44808
-0.245943
-0.20213
-0.583151
-0.25585
-0.296788
-0.171464
0.28062
-0.21904
0.49586
0.0555513
0.175788
-0.231174
0.251532
0.196323
-0.175145
0.33921
0.27128
-0.0143161
-0.113922
0.458016
0.351838
-0.563561
0.21182
0.24345
-0.480648
0.23727
0.118718
0.115756
-0.10443
0.402324
-0.297663
-0.217045
0.569056
-0.0660957
0.423572
-0.357177
-0.428126
0.324145
0.537349
-0.11307
0.239776
-0.232915
0.478424
-0.238924
0.482391
-0.280661
-0.219131
0.499997
-0.223214
-0.193484
0.416628
0.622829
-0.347301
-0.453366
0.387159
-0.247713
0.406248
-0.158427
-0.0914859
0.202239
-0.59654
0.213547
0.281483
0.189323
-0.470734
-0.310072
0.111013
-0.194287
-0.266707
0.460779
0.57022
-0.353977
-0.216174
-0.361047
0.104702
0.269344
-0.165885
-0.342824
0.185273
0.109691
0.0681002
-0.417172
-0.179305
-0.149318
-0.349336
0.112511
-0.324119
0.498475
-0.174509
-0.554553
0.532954
-0.524564
-0.0119335
-0.276537
0.554155
-0.277587
-0.0634229
-0.416813
0.46981
-0.155053
-0.546288
0.219959
0.299218
-0.0966043
-0.202544
0.203037
-0.14736
0.187303
0.260785
0.149393
0.17578
-0.181222
-0.433264
0.0982831
0.140274
-0.238463
-0.152305
0.433804
0.297042
-0.611818
0.31466
0.17914
0.213908
-0.392803
0.265129
-0.484277
0.219067
-0.630629
0.274256
0.356334
-0.328247
-0.199758
0.527994
0.472562
0.086415
0.323477
-0.533332
0.0886423
-0.167536
0.0789603
0.627476
-0.279546
-0.347927
0.377286
0.242081
-0.619351
-0.146162
-0.151434
0.297583
-0.361551
0.247258
0.114047
-0.153642
-0.184491
-0.348081
-0.273334
0.496023
-0.222685
0.259969
-0.454604
-0.208536
0.468068
-0.250021
-0.134588
0.0417389
0.275167
-0.316577
0.156255
-0.441614
0.180853
0.160862
-0.341643
-0.36387
-0.385388
-0.258904
0.269712
-0.212134
0.191709
0.158818
0.26797
0.192658
-0.423941
0.231437
-0.220755
-0.281795
-0.244154
-0.105105
0.0378939
0.233057
-0.105003
-0.25676
-0.361605
-0.207238
0.569219
0.263395
0.215078
-0.383796
0.0607261
0.218166
-0.191086
0.418699
0.329049
-0.237504
-0.184455
0.425872
-0.2414
-0.495276
0.277542
0.217782
0.170832
-0.349293
0.147033
0.123739
-0.270702
-0.378931
-0.268744
-0.482661
0.209427
-0.599916
0.228398
0.371372
-0.319578
0.578836
-0.258891
-0.579985
0.260923
0.285755
0.569859
-0.406322
-0.163483
-0.332346
-0.27556
-0.50152
0.2311
0.338873
-0.601396
0.332057
0.26987
0.229752
-0.4122
0.182322
-0.277185
0.614698
-0.33751
0.115162
0.208236
0.510486
0.00669058
-0.516908
-0.211347
0.409551
-0.179869
0.214528
-0.176814
0.238754
-0.140319
-0.155295
0.537646
0.298021
-0.521688
0.22368
-0.269825
-0.212739
0.227469
0.330686
-0.557895
-0.380738
0.631054
-0.250316
0.494576
-0.170714
-0.629357
0.248633
-0.302611
0.541769
-0.261479
-0.233788
0.372157
0.255326
-0.216543
-0.104887
0.321634
-0.33073
-0.357141
-0.45381
0.538929
0.0259539
0.388266
-0.413925
0.478239
-0.213131
0.215231
-0.523009
0.308142
0.245522
0.371387
-0.0990347
-0.138306
0.0341499
-0.451331
-0.191004
-0.203101
0.394344
0.157255
-0.0685691
-0.296124
-0.25293
0.00286917
0.553313
-0.555346
0.212456
0.431075
-0.164487
-0.0449089
-0.276507
-0.323547
0.209838
-0.122461
0.158181
-0.429861
0.185281
-0.396054
0.546051
-0.149926
0.223175
-0.414041
-0.449378
0.390191
0.0594403
-0.29518
-0.205307
0.500499
-0.550597
0.281923
0.268849
0.214479
-0.612264
-0.332524
0.614844
-0.252587
0.192891
0.106642
-0.299489
-0.488668
0.223372
-0.104582
-0.423194
-0.122612
-0.347125
-0.315905
-0.284963
-0.66278
0.407062
0.25555
-0.410056
0.581932
-0.171873
0.125606
0.145725
-0.230205
0.528361
-0.0438089
-0.209876
0.253659
-0.175458
0.390619
-0.355317
0.309418
0.526674
0.0671171
-0.477171
-0.128916
-0.120872
0.249893
-0.527831
0.225246
-0.435317
0.110935
0.0818354
0.0880823
-0.16984
0.242947
0.288918
0.355321
0.21496
-0.345675
-0.204771
-0.206599
0.455436
-0.248879
0.592934
-0.237539
0.252849
0.23464
-0.48739
-0.573485
0.225443
0.348018
0.625467
-0.380925
-0.24453
-0.350923
-0.0269335
0.377932
-0.464749
0.233929
-0.292103
0.508592
-0.611976
0.314043
0.298164
-0.548248
0.014684
0.533784
-0.591183
0.262892
0.328177
-0.649869
0.370326
0.476976
0.274486
0.361751
0.13032
-0.428372
0.298041
-0.138267
0.30013
-0.296212
0.630676
-0.334422
-0.405734
0.182503
-0.249613
0.102227
0.410837
-0.266773
-0.143931
0.40341
-0.195486
-0.139869
0.496267
-0.446059
0.095286
0.206773
-0.104262
-0.102377
-0.375383
0.419879
-0.385734
0.641646
-0.311221
-0.33055
-0.260156
0.470443
-0.210157
-0.251971
-0.10333
-0.573534
0.515954
0.0577851
-0.242979
0.562685
-0.319722
0.207382
0.3238
-0.531102
-0.201421
0.537278
0.310365
0.331158
0.400926
0.224538
0.110796
-0.0250303
-0.484661
0.132572
0.149097
-0.295329
-0.286059
0.0919107
-0.424415
0.0798955
0.344903
-0.364225
-0.0598147
-0.6228
0.274273
0.348537
0.535573
-0.328087
-0.383094
-0.0283701
0.28038
-0.472561
0.179157
0.000268717
-0.377755
0.377142
-0.577233
0.223363
0.606607
-0.288055
0.550743
-0.261882
-0.523098
-0.304099
-0.358827
-0.478136
0.24121
0.236895
-0.194199
-0.257686
0.452156
0.151099
0.446755
0.47773
-0.537659
0.0597504
-0.0462019
-0.349682
-0.117113
-0.580874
0.232228
0.348645
0.551896
-0.324233
-0.626256
0.334803
0.291502
0.196343
0.281871
-0.279878
-0.463961
-0.243705
0.016967
-0.291711
0.422081
-0.0568927
0.521403
0.336918
-0.57991
-0.258973
-0.307186
0.566228
-0.189416
0.167036
-0.299876
0.132846
-0.160272
-0.150891
0.311193
-0.183348
0.108114
0.368354
-0.476577
0.117011
0.106436
0.184125
-0.47931
0.241111
-0.554269
0.313389
0.200545
0.210421
-0.0124368
0.489978
-0.341018
0.61291
-0.27208
-0.00966721
0.267305
-0.257716
0.540616
-0.537523
-0.003127
-0.204568
-0.189734
0.394264
-0.576441
0.319922
0.256628
-0.529015
0.289157
0.239827
-0.615895
0.26056
0.355331
-0.372173
0.605706
-0.233469
-0.432783
0.230134
0.202743
-0.322117
-0.142649
-0.46395
0.214562
0.249203
0.321461
-0.171849
-0.048281
0.401239
-0.352872
0.432318
-0.103541
-0.248328
0.204548
0.164216
-0.0592265
-0.0257273
0.486738
-0.460907
0.10936
0.0975481
0.310309
-0.569356
0.117965
-0.246753
-0.207718
-0.568271
0.291099
0.437241
0.0734282
-0.323267
-0.302947
0.270224
-0.156722
-0.591562
0.338296
0.253778
-0.181874
-0.187073
0.368708
-0.112112
0.554495
0.51915
-0.174829
-0.258511
0.320967
-0.134399
-0.186179
-0.619767
0.415063
0.204728
0.296698
0.228693
-0.535527
-0.540959
0.253224
-0.561275
0.254916
0.306314
0.251949
0.290848
-0.542124
0.436055
-0.178615
-0.30457
0.545851
0.243491
0.349509
-0.435485
-0.135692
-0.59354
0.289285
0.506784
-0.129461
-0.209459
-0.209959
0.252114
-0.429335
-0.454066
-0.636392
0.323962
0.31239
-0.490566
0.299853
-0.301168
-0.260151
0.257592
-0.598716
-0.210622
0.150006
0.0606987
-0.485881
0.279663
0.206245
0.269895
0.200675
0.301857
-0.13487
-0.507452
0.230926
0.653539
-0.294216
-0.359352
-0.316845
0.613788
-0.260655
-0.351287
0.19024
0.131117
0.292522
-0.0802678
-0.212202
-0.170851
-0.202279
0.372872
-0.550443
0.232401
0.318019
-0.468262
0.227774
0.240555
-0.231366
0.535448
-0.303955
0.262584
-0.370662
-0.202826
0.382109
-0.295555
-0.278569
-0.0117145
-0.519639
0.532462
-0.192392
0.41675
-0.308425
0.259518
0.198565
-0.457711
-0.126557
-0.109768
0.236462
0.170812
0.263822
0.367232
-0.311645
-0.588422
0.361826
0.226681
-0.0828161
0.232647
0.232573
0.229575
-0.436309
-0.301629
-0.271892
-0.357449
-0.520475
0.192185
0.062268
0.230275
-0.29245
0.236399
-0.510752
0.498584
-0.608473
0.250465
0.358051
-0.217215
-0.318687
0.536029
0.288196
0.365316
0.50729
-0.322391
0.596598
0.198367
0.514448
-0.282042
0.210306
0.304143
0.646823
-0.305753
-0.341149
0.297171
0.232619
-0.529616
0.108024
-0.402535
-0.30117
-0.23024
0.531413
0.086739
0.0775865
0.494077
-0.519729
0.2967
-0.421744
-0.428077
0.562111
-0.251998
-0.415912
0.108834
0.30694
-0.376578
-0.243168
0.329124
-0.377268
0.121966
-0.0521481
-0.0697393
-0.205831
-0.325402
0.531268
0.47181
-0.237271
-0.620097
0.266218
0.353893
0.1838
0.192233
-0.375683
-0.212531
0.110014
-0.566815
0.274938
0.291967
0.231321
-0.584628
-0.096379
-0.147121
-0.362464
-0.257617
-0.642435
0.370535
-0.27917
0.116002
0.163484
-0.554857
0.297028
0.258031
-0.309557
0.173126
-0.558475
0.229757
0.358177
-0.587907
-0.222398
-0.317564
0.539937
0.331943
-0.150934
-0.609293
0.264002
0.345296
0.292518
-0.60113
0.325574
-0.608959
0.364876
0.244121
0.314101
0.269067
-0.395551
0.145626
-0.113296
-0.165568
0.220589
-0.521757
-0.175057
0.304917
-0.453214
0.414858
0.0383371
-0.211514
0.382109
-0.170504
0.375228
-0.375112
0.123358
0.171464
-0.294777
0.177096
0.115506
-0.250547
-0.278485
0.309449
-0.522612
-0.158203
-0.299348
0.042192
-0.258534
0.14419
-0.0573485
-0.28612
0.532273
-0.24643
0.414848
-0.623674
0.309256
0.314421
0.519272
-0.521825
0.12988
-0.236962
0.107164
-0.308699
0.159675
0.148868
-0.0844717
-0.0936628
0.528319
0.274861
-0.127778
-0.504107
0.540988
-0.0369455
-0.573075
0.307267
0.266192
-0.528823
0.242569
-0.258469
-0.349967
0.172999
0.241811
-0.596696
0.235485
0.301298
-0.531484
-0.0868949
-0.123651
-0.424661
0.239874
0.184782
0.144751
0.120176
-0.316817
0.619776
-0.303305
-0.108555
0.238458
0.186173
-0.39076
0.1543
0.167393
0.609001
-0.339993
-0.269031
-0.232027
-0.31431
0.270441
-0.354245
0.182154
0.221943
-0.403929
0.178176
-0.329084
-0.301169
-0.265551
-0.102283
0.558381
-0.289532
-0.224181
-0.349327
-0.13332
0.295333
0.317388
-0.344847
-0.346571
-0.192094
0.538544
0.396251
0.562365
0.261809
0.234225
0.224406
-0.114916
-0.318239
-0.240993
0.559462
0.453087
0.293941
-0.459316
0.331201
-0.616486
0.285124
0.220575
-0.413991
0.595719
-0.0462681
-0.0954391
0.177325
0.554873
0.334401
-0.292671
-0.0415259
-0.36819
0.190238
0.178186
0.202959
-0.575039
-0.60773
0.322716
0.285011
0.077224
0.0670648
-0.0855871
0.457599
-0.372112
0.285531
-0.513504
0.0283868
0.093657
-0.192901
-0.285563
0.478355
0.283532
-0.518277
-0.217479
0.487221
-0.35897
-0.201428
0.440257
-0.188089
0.127487
-0.270693
0.143306
0.24794
-0.185587
0.264332
-0.473149
-0.239458
-0.138154
0.452938
-0.314979
0.212719
0.179585
-0.392119
-0.0648276
0.549603
-0.40016
0.214187
0.185923
0.476654
-0.196916
0.410636
0.353398
-0.632634
0.279792
-0.594542
0.20095
0.202553
0.405683
-0.595457
0.197509
-0.400642
0.203235
0.28186
-0.533107
0.251397
-0.223436
0.401352
-0.178118
0.643642
-0.333383
-0.313878
-0.488972
0.192936
0.293583
-0.237583
-0.240585
-0.330409
-0.258418
-0.234916
0.493969
0.260088
0.319114
0.218404
-0.251663
0.340263
-0.300982
0.458055
0.101377
0.129296
0.205306
0.257146
-0.465927
0.20872
-0.349678
-0.116364
0.261269
-0.24089
-0.265766
0.506744
0.258482
-0.172679
-0.0855649
0.414446
-0.192355
-0.270495
0.295817
0.202503
-0.285998
-0.177568
-0.246127
0.423563
-0.452852
0.223352
0.229427
-0.443097
0.411236
0.617372
-0.391876
-0.225857
-0.225986
0.0922182
0.146691
0.482854
-0.233946
-0.248838
-0.324801
-0.239972
0.564794
0.312668
-0.629959
-0.234703
0.536191
0.272357
0.234093
-0.274118
0.426687
-0.215102
-0.211305
-0.584663
0.259867
0.226993
0.189582
-0.250546
-0.308441
0.559072
-0.161544
0.374208
0.103499
-0.207638
0.396528
-0.178029
-0.090151
-0.363054
-0.395517
-0.234398
-0.193194
0.452981
-0.159481
0.337631
0.263448
0.204198
0.613792
-0.259105
-0.354618
-0.249764
-0.299276
0.549384
-0.561856
0.246237
0.520132
-0.325123
-0.194988
-0.396502
0.206765
0.378397
-0.114892
-0.277213
-0.479752
0.286892
0.564861
-0.237491
0.127815
0.423195
-0.196199
0.50461
-0.24256
0.11121
0.113323
0.217019
0.192468
-0.00794218
-0.506998
0.43913
-0.199254
-0.2934
-0.330261
-0.210233
0.103494
0.106792
0.230365
-0.488354
0.282399
-0.641577
0.359201
-0.10767
0.224783
0.333034
-0.142499
-0.486021
-0.495114
0.263886
0.293949
-0.251564
0.285471
-0.472367
0.186831
0.382908
-0.185491
-0.318398
0.571983
-0.253456
-0.383815
0.142291
0.164618
-0.375973
0.199555
-0.1812
0.485945
-0.304611
0.420422
-0.192708
-0.227567
-0.55977
0.241465
-0.353663
-0.231537
0.585244
-0.640467
0.27823
0.362254
0.11357
0.637115
-0.357198
-0.279915
-0.643028
0.284491
0.358553
-0.0993589
-0.110823
0.531817
0.228319
0.210628
-0.438704
-0.184155
0.286051
0.351068
-0.478936
0.255442
0.223548
0.329184
0.24275
-0.571947
0.222737
-0.232346
-0.252298
-0.274456
0.525499
0.243877
-0.0622548
-0.318781
0.380851
-0.356962
0.413534
-0.201738
-0.211556
-0.628188
-0.274804
0.484455
-0.209467
-0.214971
0.380007
-0.165246
-0.30138
-0.37675
-0.498747
0.26748
0.231303
-0.204634
0.469081
-0.263807
-0.259477
-0.349811
0.0292213
0.556999
-0.58617
0.300821
-0.123468
0.274705
-0.43663
-0.35805
-0.248724
0.521471
-0.357061
-0.175978
0.292284
-0.550467
0.289487
0.261782
-0.19252
0.281481
0.276348
-0.557954
-0.238632
0.594396
-0.355798
-0.242496
0.514568
-0.272135
-0.32156
-0.239394
0.561153
0.135332
0.107334
-0.242659
-0.516695
0.228908
-0.581577
0.260283
-0.569358
0.227656
0.341662
-0.247834
-0.184866
0.491683
-0.0216221
-0.189036
-0.247498
0.43698
0.304199
-0.553232
0.306952
-0.537089
0.375928
-0.134037
0.281856
-0.523803
0.517727
-0.420649
0.242944
0.0287096
0.537895
-0.566615
0.347305
0.289413
-0.60764
0.381021
-0.137558
-0.243522
0.631149
-0.300028
0.386118
-0.210544
-0.17527
-0.389009
-0.204667
0.266167
-0.504067
0.23806
-0.420796
0.39418
0.140301
0.118454
0.329394
0.211285
-0.540509
-0.34337
-0.226027
0.126174
-0.0488777
0.514996
-0.22808
0.109276
-0.0201118
-0.0891129
0.0978681
-0.0964509
-0.00138278
0.00702907
-0.519393
0.513616
0.337703
-0.635142
0.272538
0.362638
-0.108045
0.296731
0.314025
-0.129095
-0.288456
-0.230263
0.51948
-0.546242
0.228603
-0.627889
0.259172
0.368748
0.2394
-0.105352
-0.134049
0.328688
-0.129207
-0.636017
0.276323
0.359717
0.475475
-0.200864
0.236583
-0.407264
0.170727
-0.544227
0.355933
-0.0952574
0.271185
0.1407
0.151028
-0.291854
0.171606
-0.107503
-0.0640824
0.13225
-0.103762
-0.350132
0.579899
-0.160293
-0.0740996
-0.0711888
0.145405
-0.613448
0.336747
-0.271122
0.141471
0.129627
-0.316035
-0.24954
0.565383
0.313272
-0.207567
0.483187
-0.590276
0.341787
0.248486
-0.323477
-0.221885
0.54555
0.140219
0.155253
-0.0552845
0.149044
0.240345
-0.105063
-0.357766
-0.246891
0.529001
-0.118034
-0.0417767
0.159927
0.607863
-0.231091
0.538234
-0.253853
0.411828
-0.396528
0.216407
-0.14303
-0.238252
0.514618
-0.521691
0.507939
-0.510693
-0.187111
0.404135
0.526658
-0.147541
-0.378655
0.547749
-0.513946
-0.195526
-0.297006
0.492529
0.392361
-0.164017
-0.228042
0.247338
-0.54605
-0.0812219
0.188721
-0.107541
0.2345
-0.0148758
0.146401
0.36928
-0.178769
-0.430712
0.236979
-0.358789
-0.0771476
0.182529
-0.105394
0.0905039
0.0475704
0.286179
0.587313
-0.359671
0.480569
-0.216757
-0.109873
0.194946
-0.0850836
0.566734
-0.271724
-0.294975
-0.168941
0.307691
-0.138668
0.198995
0.155338
-0.354243
0.219227
0.368072
0.42352
-0.509203
0.523673
-0.239974
-0.143146
-0.278093
0.14846
0.129629
-0.508857
0.2678
-0.209941
0.240491
-0.471395
0.231475
-0.496892
0.179677
0.324157
-0.580553
0.256397
-0.612866
0.360294
0.252583
0.435057
-0.198259
0.465679
-0.213757
-0.251717
0.210889
0.18121
-0.392362
0.139532
0.121901
0.295912
-0.501274
0.520389
0.265603
0.245873
0.137143
-0.257852
0.20809
0.185225
-0.393511
-0.173545
0.0206275
-0.206276
0.501793
0.507544
-0.241143
0.145187
0.598717
0.241058
-0.58704
0.345979
0.0075928
-0.461318
0.347832
-0.586346
0.247806
0.284082
-0.256057
0.201845
0.177954
-0.644638
0.237699
0.406911
0.435095
0.156962
-0.248269
0.553011
-0.146969
0.463303
-0.31633
-0.0365765
-0.496645
0.534055
0.182329
0.161883
-0.275686
-0.259472
0.535699
-0.218033
0.480907
0.284159
0.335279
-0.108309
-0.101529
-0.240121
0.103573
-0.184812
0.197507
0.279232
0.213898
0.192559
-0.4065
0.173803
0.181011
-0.50444
-0.289139
0.150723
0.138395
0.161731
0.22472
0.029747
0.135204
-0.0341988
0.177375
-0.281243
0.169515
0.138261
0.181068
0.130153
-0.406703
-0.237964
-0.130928
0.0604505
0.47789
-0.170751
-0.306797
0.522689
0.315923
-0.146419
0.555172
-0.152601
0.13997
-0.226876
0.0869939
-0.227727
0.48492
-0.109144
0.218667
-0.105891
0.245871
-0.355323
0.0777963
-0.391021
0.158776
0.199851
0.174309
0.157221
-0.350567
0.184082
0.166431
-0.10115
-0.0875566
0.188679
0.0239673
-0.408476
0.384535
-0.366855
0.194535
0.172508
0.477635
-0.346123
-0.131489
-0.566262
0.316779
0.329877
-0.223742
-0.229186
0.507269
-0.579613
0.0718059
-0.319544
0.171546
0.148026
0.18964
0.170872
-0.360342
-0.270559
0.468314
-0.197904
0.271563
0.238903
-0.509966
0.328066
-0.136626
-0.442111
0.219297
0.222932
-0.307893
-0.305733
0.436231
-0.207851
-0.187569
0.398378
-0.502248
0.476958
-0.51257
-0.165493
0.364395
0.267473
-0.141632
0.153577
0.146425
-0.441769
0.180138
0.574646
-0.355434
0.171884
0.190338
0.243093
0.341292
-0.583933
-0.603804
0.373537
0.230298
0.365926
0.208704
0.558025
-0.486674
-0.0714783
0.335054
0.267791
0.216838
-0.144639
0.36884
0.326691
-0.19501
-0.277052
-0.569796
-0.242272
-0.366647
0.123963
0.177126
-0.61159
0.247351
0.364268
0.182192
-0.341814
-0.27716
0.516344
-0.238922
0.0144471
-0.187002
-0.302777
0.544208
-0.241086
-0.329889
0.586636
-0.256904
0.259915
-0.509454
0.250042
0.220354
-0.122694
0.607665
-0.358154
-0.24948
0.520607
-0.528141
0.00883906
0.356246
0.14271
0.172268
-0.315054
0.598717
-0.24857
-0.230314
-0.197037
-0.401369
0.353035
-0.287436
0.530466
-0.243438
0.258717
0.442281
-0.287463
-0.154537
0.288843
0.153688
0.239079
-0.113261
0.189471
-0.0762236
-0.586574
0.34661
-0.240366
0.588285
0.351887
0.157555
0.17555
-0.333213
0.291698
-0.136756
-0.503057
0.268995
-0.254915
-0.356646
0.633284
-0.319224
-0.313908
-0.111326
-0.195252
0.409179
-0.162748
0.301623
-0.138748
0.573166
-0.24879
0.270209
-0.487578
0.361869
-0.166955
-0.194499
0.221982
0.191228
-0.413201
0.470899
-0.230015
0.185479
0.211123
-0.518854
0.370374
-0.587607
0.229963
0.582617
-0.516699
-0.064781
-0.292821
0.139174
0.153482
-0.61099
0.356101
0.141957
0.152916
-0.295085
-0.138635
0.349458
-0.210717
-0.492929
0.30115
-0.488945
0.265726
0.218517
0.244552
0.194135
0.226573
-0.420382
0.164719
0.362301
0.307318
-0.171681
-0.084202
0.386941
-0.0508151
-0.218467
0.488454
-0.517914
-0.21557
-0.187898
0.365574
-0.177573
-0.337557
0.17345
0.164101
0.0841799
-0.219322
-0.276671
0.495405
0.203624
0.179189
-0.382273
-0.194005
-0.0684153
0.262571
0.418219
-0.250167
-0.167604
0.0902399
0.425542
-0.243936
-0.181239
0.223632
0.187088
-0.346323
-0.254802
0.107372
0.124415
0.177398
0.242091
-0.608196
0.366133
0.125845
0.212005
-0.387443
0.216901
0.270678