/*--------------------------------*- C++ -*----------------------------------*\
| =========                 |                                                 |
| \\      /  F ield         | OpenFOAM: The Open Source CFD Toolbox           |
|  \\    /   O peration     | Version:  v2012                                 |
|   \\  /    A nd           | Website:  www.openfoam.com                      |
|    \\/     M anipulation  |                                                 |
\*---------------------------------------------------------------------------*/
FoamFile
{
    version     2.0;
    format      ascii;
    class       surfaceVectorField;
    location    "200";
    object      ddtCorrDdt0(Uf);
}
// * * * * * * * * * * * * * * * * * * * * * * * * * * * * * * * * * * * * * //

dimensions      [0 1 -2 0 0 0 0];


internalField   nonuniform List<vector> 
14470
(
(-0.000741141 0.00222255 -8.82757e-18)
(-0.000740103 0.0023256 -8.27407e-18)
(-0.000656491 0.002229 8.30099e-18)
(-0.050729 -0.00379269 5.70351e-17)
(-0.0517754 -0.00271213 -5.75698e-17)
(-0.000342758 0.00073988 -1.98148e-18)
(-0.000377882 0.000725965 -3.56535e-18)
(-0.000376084 0.000722975 -3.87428e-18)
(0.00486622 0.0672502 2.67234e-17)
(0.00315222 0.0682844 8.28834e-18)
(0.00386599 0.0657584 7.07549e-18)
(-3.80422e-06 0.000131897 -4.50738e-19)
(-2.73003e-06 0.00013375 1.41694e-18)
(-2.92712e-06 0.000194069 1.43465e-18)
(-0.0318517 -0.0190925 -5.97521e-18)
(-0.0317748 -0.0196769 -3.53211e-17)
(-0.0324044 -0.0179062 -3.58006e-17)
(-0.0169322 0.00708568 -3.94317e-18)
(-0.0173249 0.00637913 -4.86389e-18)
(-0.0179748 0.007035 -6.51253e-18)
(0.0486248 -0.00321483 -8.12073e-18)
(0.0503854 -0.00355954 2.13055e-17)
(0.0522392 -0.00603292 9.24732e-18)
(-0.00222778 -0.00094585 9.93203e-19)
(-0.00232839 -0.00102552 -3.89813e-19)
(-0.0023691 -0.000874524 8.70265e-19)
(-4.68827e-05 0.000352642 -1.92031e-18)
(-3.81163e-05 0.00032465 -4.06139e-18)
(-3.80571e-05 0.000314059 7.71896e-19)
(-5.09982e-05 0.000391055 -2.34603e-18)
(-5.50563e-05 0.000383105 1.03513e-18)
(-0.000515599 5.90088e-05 -2.02256e-18)
(-0.000501922 9.47888e-05 5.64114e-19)
(-0.000515514 0.000107596 1.01591e-19)
(0.0583394 0.0472548 -2.63552e-17)
(0.0522513 0.0501449 4.13695e-17)
(0.0561663 0.0501834 -5.96032e-17)
(-0.000996935 -0.000896229 -2.41141e-18)
(-0.000930938 -0.000857401 1.12822e-18)
(-0.000913786 -0.000940206 -2.06628e-18)
(0.00476701 -0.00881155 -6.90191e-19)
(0.00495091 -0.00941746 2.35169e-18)
(0.00544773 -0.00880255 -2.03063e-18)
(-0.0153047 -0.0106159 3.52957e-18)
(-0.0163304 -0.0106525 -2.93133e-18)
(-0.0159567 -0.00963373 2.95507e-20)
(-0.000484635 0.000623914 -2.82596e-19)
(-0.000517523 0.000589952 -1.15389e-18)
(-0.000500745 0.000601725 1.29688e-18)
(0.0137817 0.0753106 7.64734e-18)
(0.0120917 0.0759786 4.66229e-17)
(0.0144411 0.0776991 3.21738e-17)
(0.00020639 -0.000306473 5.62953e-19)
(0.000219486 -0.000285129 -4.84043e-19)
(0.000229541 -0.000311329 7.42081e-20)
(0.000224941 -0.000809684 -6.35973e-20)
(0.000285462 -0.000849829 1.49332e-20)
(0.000266413 -0.000771055 8.8582e-21)
(8.88972e-07 4.10929e-05 1.47885e-20)
(-1.50713e-07 4.15017e-05 7.13848e-19)
(0.00257991 0.0613344 -7.76129e-18)
(0.000865421 0.0614689 2.05954e-17)
(0.00227873 0.0631599 -3.06675e-17)
(0.0450836 -0.000589512 -2.57806e-17)
(0.0481037 -0.00321284 -1.28396e-17)
(0.0608832 0.043365 5.7165e-18)
(0.0663767 0.0439779 -2.97201e-17)
(-0.00231883 0.00503049 1.72708e-19)
(-0.00229935 0.00483085 8.27201e-18)
(-0.00210513 0.00493289 1.75295e-17)
(-0.000174744 0.00064346 4.70981e-19)
(-0.000198298 0.000640306 1.74798e-18)
(-0.00017201 0.000616036 -6.27801e-19)
(-2.67488e-06 3.79809e-05 -2.51588e-19)
(-2.99488e-06 4.50221e-05 5.02963e-19)
(-6.18093e-06 5.82567e-05 2.87751e-18)
(0.000187901 -0.000302248 -1.00309e-19)
(0.000199243 -0.00032778 5.97285e-19)
(-0.0205622 -0.00157803 1.44207e-17)
(-0.0214155 -0.00186474 -3.61445e-18)
(-0.0212366 -0.000781438 1.55316e-18)
(0.0400393 0.00232342 2.65935e-17)
(0.0392461 0.00234271 4.29296e-17)
(0.0397413 0.0014464 6.54566e-17)
(-0.0407141 -0.0141519 2.63141e-17)
(-0.0365347 -0.0151942 -2.05122e-17)
(-0.0377993 -0.0132176 6.73477e-18)
(-0.000238508 0.000985737 5.25525e-19)
(-0.000222716 0.00100623 -7.0307e-19)
(-0.000252703 0.000974153 5.83366e-19)
(-0.000514409 0.000542134 -1.32106e-18)
(-0.000531968 0.00050873 1.33097e-18)
(-0.000535387 0.000491991 1.81371e-18)
(-0.000171174 -1.57829e-05 1.42611e-20)
(-0.000179716 -1.47585e-05 3.89292e-18)
(-0.000196959 -6.45154e-06 -9.42424e-21)
(-0.00354621 -0.00987523 -5.31856e-19)
(-0.00377377 -0.00941136 -1.17775e-17)
(-0.00405734 -0.0100476 -2.12511e-18)
(0.00353053 -0.0073972 1.42902e-18)
(0.0031295 -0.00721492 -8.78723e-20)
(0.00340139 -0.00693163 -2.53761e-18)
(0.00023883 0.00459803 1.35926e-17)
(0.000298318 0.00477193 3.04343e-18)
(0.000105033 0.00474872 -5.49376e-18)
(0.0071676 0.0667581 -5.62808e-18)
(0.00782784 0.0674877 1.06837e-17)
(0.00597082 0.0670153 -2.88732e-17)
(-0.00896127 -0.00501945 6.26205e-19)
(-0.00843303 -0.00490298 4.05305e-19)
(-0.00855491 -0.00549622 6.58166e-18)
(-0.0195633 -0.00114095 9.14113e-18)
(-0.0196592 -0.00215714 3.57163e-18)
(-0.054783 0.0099755 1.53865e-17)
(-0.0507372 0.00968474 -3.41386e-17)
(-0.033309 0.0118249 -9.42325e-18)
(0.0545513 0.0458525 6.81078e-18)
(0.0537068 0.0375844 2.18355e-17)
(0.0699999 0.0509278 1.3604e-17)
(-7.21055e-07 2.31192e-05 1.59403e-18)
(-2.40486e-06 3.53073e-05 -9.17641e-19)
(-3.16965e-05 0.000923449 7.32262e-19)
(-4.4013e-05 0.00090204 4.17419e-18)
(-1.27793e-05 0.000907724 2.28244e-18)
(-4.43593e-05 0.00112923 -5.68598e-18)
(-4.71235e-05 0.00112953 -7.37326e-19)
(-2.84676e-05 0.00113637 7.97878e-20)
(0.0307354 -0.0164384 -1.61106e-17)
(0.0331663 -0.0139735 1.7886e-17)
(0.0447588 -0.0174355 -6.03421e-18)
(-2.42389e-06 7.00458e-05 -1.21145e-18)
(-2.27681e-06 3.45497e-05 1.57839e-18)
(-2.89295e-06 3.11563e-05 3.51851e-18)
(0.00104796 -0.00145267 1.53425e-19)
(0.00108742 -0.0013627 5.58564e-19)
(0.00116206 -0.00148451 4.99032e-19)
(-0.000455076 0.000657392 1.27045e-19)
(-0.000462998 0.000642474 -1.07077e-18)
(-0.00325052 -0.010515 8.92297e-18)
(-0.00295243 -0.00985441 -1.14162e-19)
(-0.000157817 -2.59848e-05 -4.53181e-19)
(-0.000161929 -1.58106e-05 -1.93958e-18)
(-0.00885127 -0.0106685 4.52329e-18)
(-0.00952509 -0.0106893 1.49829e-17)
(-0.00887522 -0.0112731 1.77326e-18)
(-6.49211e-06 0.000107427 -2.5949e-18)
(-4.38396e-06 0.00011445 1.85832e-18)
(-0.004057 0.00691397 -3.83024e-18)
(-0.0041864 0.00661345 -9.5155e-18)
(-0.00442866 0.00691805 -2.25586e-18)
(0.00580071 0.0683903 -1.13901e-17)
(0.00633646 0.0670297 -6.50648e-18)
(-0.000482021 6.89063e-05 2.42685e-19)
(-0.000467452 0.000102236 1.2557e-18)
(-0.000467912 5.69312e-05 8.22301e-19)
(-0.0137195 -0.0304083 3.69666e-18)
(-0.0127026 -0.0321743 -4.12695e-18)
(-0.0117303 -0.0305081 6.29611e-18)
(0.000948979 -0.00141801 3.91417e-19)
(0.00100875 -0.00154211 4.60532e-19)
(-1.32906e-06 3.64268e-05 9.36688e-19)
(-0.000535289 0.00535295 9.86807e-19)
(-0.000463909 0.00552811 6.63412e-18)
(-0.000350129 0.00533013 1.65414e-17)
(-0.00617339 0.0129212 -3.33225e-18)
(-0.0066095 0.0130256 -2.51795e-18)
(-0.00611939 0.0135513 7.07785e-18)
(-0.000392112 0.000732665 -1.05039e-20)
(-0.000366928 0.000755807 -4.22611e-18)
(-0.000359855 0.000770151 -5.92237e-18)
(0.00103594 -0.0163816 -6.21903e-18)
(0.000445935 -0.0156745 -1.22128e-18)
(0.00140205 -0.0157111 -2.67347e-18)
(-0.00021076 2.85546e-05 -2.30439e-18)
(-0.000212464 1.96273e-05 4.01836e-19)
(-0.000215917 2.26634e-05 4.70297e-19)
(-0.00214831 -0.000885344 2.09475e-18)
(-0.00211178 -0.000981338 -4.40835e-19)
(0.0185371 -0.00464542 -2.85641e-17)
(0.0134573 -0.00598658 3.96376e-17)
(-0.00381854 -0.00442693 -4.07319e-19)
(-0.00376444 -0.00411303 2.14458e-19)
(-0.00412082 -0.00421298 1.53184e-18)
(0.00398699 -0.00756617 -3.37418e-18)
(0.00441769 -0.00770694 -1.8311e-18)
(0.00426739 -0.00721864 -2.59322e-18)
(0.00559515 0.0564128 1.59179e-17)
(0.00293733 0.0539711 2.11412e-17)
(0.00596685 0.053268 -2.45708e-17)
(-0.000510406 0.00115963 -1.02071e-17)
(-0.000494387 0.00121303 -2.88216e-18)
(-0.000457663 0.00114655 -4.29941e-18)
(0.000549369 0.0122075 -5.91215e-20)
(0.00046726 0.0124161 -6.52703e-17)
(0.000445812 0.0122728 5.75735e-17)
(0.0581013 -0.00944903 -1.55685e-18)
(0.057964 -0.00701067 -2.68856e-17)
(0.0613934 -0.0103597 -1.38316e-17)
(-0.29351 -0.0877701 -1.08189e-17)
(-0.285487 -0.0867965 6.95209e-18)
(-0.290812 -0.0902424 -4.65562e-19)
(-0.0183823 0.0461488 3.9926e-18)
(-0.0146805 0.0476181 6.63647e-18)
(-0.0207353 0.0430205 1.36426e-17)
(-1.95249e-06 7.90614e-05 2.04985e-19)
(-2.6184e-06 8.85421e-05 2.01996e-18)
(-6.64215e-06 0.000116733 6.10898e-19)
(-0.00265393 0.00982723 -8.7508e-18)
(-0.00303342 0.00966005 -8.75513e-18)
(-0.00265928 0.00944153 -9.80284e-18)
(-0.0207793 0.00971106 -6.08721e-18)
(-0.0101171 0.00942708 1.20563e-17)
(-0.00952475 0.0102873 -3.8957e-18)
(-0.000209275 0.000944674 1.38314e-18)
(-0.000231306 0.000917088 3.68635e-19)
(-0.000227975 0.000939238 1.2638e-18)
(-3.43228e-06 0.000120314 6.79997e-19)
(-2.86459e-06 0.00011579 3.31724e-18)
(-5.61961e-07 7.52573e-05 3.13513e-18)
(-0.0026858 0.0100131 7.14129e-18)
(-0.0024224 0.00986831 2.8106e-17)
(0.0174318 0.073974 -3.04405e-17)
(0.013729 0.0729352 -6.02202e-17)
(-0.0143917 -0.0104243 2.55092e-18)
(-0.0147009 -0.0114063 -8.06442e-19)
(-0.00380117 0.00249842 8.06633e-19)
(-0.00396171 0.00235854 -8.3539e-18)
(-0.00376584 0.0022526 -6.13097e-18)
(0.00362188 -0.00795697 3.87649e-18)
(-0.0322554 0.00192253 -3.77114e-19)
(-0.0309265 0.00253452 1.58e-18)
(-0.0308252 0.00099042 1.85625e-17)
(-3.45013e-06 0.000128714 -2.42255e-18)
(-5.55136e-06 0.000176974 -1.2168e-18)
(0.00129299 -0.0312226 2.85392e-18)
(0.00137016 -0.02949 2.09949e-18)
(0.00295406 -0.0303309 1.73818e-17)
(0.0063651 0.0660061 -7.99473e-18)
(0.00870879 0.066585 -9.78583e-18)
(-0.00592106 0.0123723 2.39071e-17)
(-0.00544311 0.0131013 3.4543e-18)
(0.00695461 0.0607023 2.68887e-17)
(0.00572295 0.0619889 1.28256e-17)
(0.00706685 0.0625043 2.14177e-17)
(-0.0293801 0.0078856 -1.69144e-17)
(-0.0331308 0.00810091 -6.17273e-18)
(-0.0231245 0.00746324 -4.94128e-18)
(-0.0242099 0.00690418 6.94128e-19)
(-0.0333323 0.00835009 -2.9304e-18)
(-0.0125203 -0.00123614 -2.72911e-18)
(-0.0132507 -0.00104937 3.99953e-19)
(-0.012929 -0.00178929 4.67708e-18)
(0.0496018 0.0551117 -8.9586e-18)
(0.0444916 0.0451504 -2.96646e-17)
(-0.000656887 0.00037759 2.34231e-19)
(-0.000686037 0.000339624 2.87245e-18)
(-0.000662027 0.000349345 5.02029e-19)
(-0.0131397 0.0438618 -2.33654e-18)
(-0.0243242 0.0397018 1.03929e-18)
(-0.016235 -0.00704372 -3.48332e-18)
(-0.0157316 -0.00635999 7.13644e-18)
(-0.0153697 -0.00722775 4.88077e-18)
(-0.00536669 -0.00197064 -3.14866e-19)
(-0.00558878 -0.00215427 3.86595e-19)
(-0.00564252 -0.0018134 -1.972e-19)
(2.08258e-07 8.31862e-05 -3.09085e-18)
(-3.01105e-06 0.000133493 -1.43974e-18)
(0.0198135 0.0631769 -2.69466e-17)
(0.0216199 0.0624904 -6.67973e-18)
(0.0222324 0.0612036 -1.00694e-17)
(-0.00885575 -0.00992086 7.95422e-19)
(-0.00815633 -0.0105724 -2.01415e-18)
(-0.124221 -0.036907 -1.07114e-17)
(-0.0997884 -0.031414 4.39496e-17)
(-0.121505 -0.0398129 -2.9537e-18)
(-1.81803e-05 0.000947294 9.04416e-19)
(-4.70117e-05 0.000945332 4.18184e-19)
(-0.0316975 0.0382057 -2.05615e-17)
(-0.0267786 0.041146 -8.15734e-18)
(-0.0258124 0.0419005 -2.46255e-17)
(0.00275249 0.0109701 -2.87321e-17)
(0.0133257 0.00802325 -1.24713e-17)
(0.0177137 0.00731508 2.71768e-17)
(-0.281178 -0.0924423 -1.6791e-17)
(-0.29322 -0.0873991 2.18247e-17)
(-0.000368828 -0.000136841 2.34746e-18)
(-0.000379181 -0.000138353 -5.31528e-19)
(-0.000374839 -0.000115105 3.26961e-18)
(-0.000191487 0.000949577 -3.31e-18)
(-0.000189848 0.000972983 7.04721e-19)
(1.87239e-06 3.72587e-05 -4.54757e-20)
(-1.14952e-05 0.000107565 2.07967e-18)
(-1.34817e-05 0.00010362 1.86607e-20)
(-1.7066e-05 0.000129599 -2.07939e-18)
(0.00433109 0.0615675 6.23227e-18)
(0.00348817 0.0594463 1.14911e-17)
(0.000601729 0.0143303 4.03433e-17)
(0.000348362 0.014797 6.42085e-18)
(-0.00126947 0.0152977 -3.45152e-17)
(0.0275172 0.00279034 1.42167e-17)
(0.0285353 0.00275673 -7.15295e-18)
(0.026747 0.00174446 3.28884e-17)
(-0.000517588 0.00109047 -2.1143e-18)
(-0.000569138 0.00114696 8.83174e-19)
(-0.000118503 0.000843419 -8.86412e-18)
(-0.000130735 0.00085558 -1.46778e-18)
(-0.000123216 0.000876945 4.27216e-18)
(0.006116 -0.00521056 -2.41674e-18)
(0.00620645 -0.00476768 3.33505e-18)
(0.00664607 -0.00516182 -3.97926e-18)
(-7.65032e-05 0.0011191 -3.77637e-19)
(-7.89992e-05 0.00111606 3.60518e-18)
(-9.24477e-05 0.00111377 1.97431e-19)
(0.00646162 0.0688352 -1.29753e-18)
(0.00768968 0.0678341 -1.39786e-17)
(0.00699772 0.0692442 2.5756e-17)
(-7.47008e-06 0.00111833 -2.42859e-19)
(-2.27564e-05 0.00111319 3.02612e-18)
(-1.04326e-05 0.00110765 -2.10327e-18)
(-0.0258483 0.0423885 1.01404e-17)
(-0.0295929 0.0396145 -1.20248e-17)
(-0.0237002 0.0448763 -2.43624e-17)
(0.00132838 -0.0330849 -1.68367e-18)
(-0.000616439 -0.0319979 -3.3439e-18)
(-0.0344557 0.0321472 2.64306e-17)
(-0.0256009 0.036482 -2.16968e-17)
(-0.0231721 0.0355322 -2.58383e-17)
(-0.00842973 -0.0153749 -9.08228e-18)
(-0.00810522 -0.0163384 -6.17391e-18)
(-0.00751295 -0.0155928 -2.30419e-17)
(0.00265568 -0.0070242 -3.56088e-19)
(0.00273184 -0.00754038 1.32882e-18)
(8.52871e-06 0.00113142 2.74629e-18)
(4.67264e-06 0.00112974 3.3626e-18)
(-0.0173198 -0.00850058 -6.22619e-18)
(-0.0180475 -0.00910147 1.50019e-17)
(-0.0182614 -0.00799033 -8.94392e-18)
(0.0411953 0.00207747 -3.59252e-17)
(0.0389528 0.0030967 -1.26992e-17)
(0.0333504 -0.0538545 -4.81924e-18)
(0.0256843 -0.0515825 3.36489e-18)
(0.0303307 -0.0569973 -1.81974e-18)
(0.0207063 -0.0552517 3.12158e-18)
(0.0398 -0.0479697 -2.51718e-18)
(-0.000627754 -0.00614567 3.00614e-19)
(-0.000275422 -0.00616908 9.12272e-19)
(-0.000481882 -0.00586277 7.67771e-19)
(-0.000662147 -0.000331675 2.32994e-18)
(-0.000647053 -0.000338039 -7.77154e-19)
(-0.000642531 -0.000329754 -1.21215e-19)
(-0.000740491 0.00210012 -2.33397e-18)
(-0.000827167 0.00219467 -1.1695e-18)
(-0.00316369 -0.00390316 6.27256e-20)
(-0.003214 -0.00363964 1.83232e-19)
(-0.00295764 -0.00374981 -1.68239e-18)
(-0.00383637 -0.00898187 -1.29803e-17)
(-0.00341519 -0.00868543 2.2528e-18)
(-0.00393299 -0.00836443 2.52547e-18)
(-0.0232913 0.00727571 3.03549e-18)
(-0.0223228 0.00762869 3.28724e-18)
(-0.023278 0.00851602 1.10594e-17)
(-0.0908521 -0.0166421 -8.00146e-18)
(-0.10468 -0.0151938 6.70134e-18)
(-0.0803209 -0.0226272 5.44428e-18)
(0.00610717 -0.00570162 -2.76126e-18)
(0.0057004 -0.00530233 2.55008e-18)
(-2.72073e-06 7.39293e-05 -3.05832e-18)
(-6.96432e-08 4.73561e-05 -1.25069e-18)
(-0.0169678 -0.0127272 -4.99623e-18)
(-0.0173755 -0.0133579 -6.69985e-18)
(-0.0178762 -0.0124163 2.6481e-18)
(0.0190383 0.0675254 1.0859e-17)
(0.0189692 0.0706094 6.5427e-18)
(0.0154606 0.0683032 5.3973e-18)
(-0.0042635 -0.00908615 -4.94389e-18)
(-0.000976026 0.000938738 -5.49267e-18)
(-0.00103356 0.000949573 3.30781e-18)
(-0.000982639 0.000879041 -1.78406e-19)
(0.000197518 -0.0255631 -1.34645e-17)
(0.00143132 -0.0263732 -2.98412e-19)
(0.00145975 -0.0249531 -5.51838e-18)
(0.0272794 -0.0186534 -4.9301e-18)
(0.0240798 -0.0206141 7.57518e-18)
(0.0448251 -0.0222187 -3.96608e-18)
(-0.0155597 0.0179047 -2.37448e-18)
(-0.0151642 0.0177895 6.23853e-18)
(-0.0149389 0.0183253 1.62328e-17)
(1.2247e-05 0.00112068 9.71506e-19)
(2.92902e-05 0.00112322 3.63352e-18)
(-0.0128266 0.04511 2.89788e-17)
(-0.0112234 0.0460129 -2.72144e-17)
(-0.000685677 -0.00032027 -1.13166e-18)
(-0.000699199 -0.000334612 1.56552e-18)
(2.18927e-05 0.00110411 -2.06961e-18)
(-0.000236519 0.000833102 -3.17148e-18)
(-0.000221907 0.000818604 -9.22661e-19)
(-0.000213116 0.000841704 8.06765e-19)
(0.0147062 0.00283269 1.86908e-17)
(0.0225731 -0.00151932 -2.58333e-17)
(0.0200166 0.00100663 -3.93299e-17)
(-0.00512262 -0.00174548 9.79981e-20)
(-0.00504852 -0.00205269 2.04443e-20)
(-0.000162253 0.000645948 2.01502e-19)
(-0.000183132 0.000666492 6.31507e-19)
(-0.000109986 0.000856639 4.20097e-18)
(-0.000155217 0.00085103 4.7167e-19)
(-0.000144427 0.000878913 -2.53351e-18)
(-0.0238826 0.0082618 -8.37408e-18)
(-0.0323838 0.0104005 -7.69637e-18)
(-0.0276902 0.00933331 2.51099e-17)
(-0.0165895 -0.0117095 -1.21053e-18)
(-0.0173108 -0.0105852 -3.67596e-18)
(-0.000413583 0.000711346 2.59975e-18)
(-0.000421405 0.00069759 -1.07195e-18)
(-0.0454166 -0.0144034 4.11803e-18)
(-0.0476129 -0.0120518 3.70744e-17)
(-0.000556202 0.000890956 2.73168e-18)
(-0.000546464 0.000854954 -4.18637e-18)
(-0.000596707 0.000856695 -1.56419e-18)
(0.00134664 -0.0278336 -3.83241e-19)
(-9.62317e-05 -0.0285687 -5.01705e-18)
(-0.000776625 -0.00646113 -1.07972e-18)
(-0.000967572 -0.00611499 -2.08575e-18)
(0.00019699 -0.00085511 -3.54779e-20)
(0.000182263 -0.000788258 2.69844e-19)
(-0.0027198 0.015208 -1.41718e-17)
(-0.00286042 0.0155062 -1.02706e-17)
(-0.00247629 0.0154762 -2.48527e-17)
(0.000390643 -0.00283233 1.38309e-18)
(0.000214493 -0.00288127 -1.63142e-18)
(0.000242781 -0.00268582 6.99464e-19)
(-0.0319141 0.00820663 -2.9371e-17)
(-0.0295162 0.00760674 -1.43208e-17)
(-0.0721869 -0.0270923 2.0797e-17)
(-0.0443972 -0.0230536 -3.05669e-17)
(-0.0637237 -0.0300401 -3.39526e-19)
(-9.49997e-05 -0.00326432 1.37464e-18)
(-0.000292039 -0.00326271 5.148e-19)
(-0.000213358 -0.00307649 -4.142e-19)
(-0.000347645 -0.000129712 1.49481e-18)
(-0.000340531 -0.000127806 7.66034e-19)
(-0.000344415 -0.000109423 3.32595e-18)
(-2.73847e-05 0.00029066 -2.14167e-18)
(-1.91302e-05 0.000245614 -2.80771e-19)
(-1.97553e-05 0.000252956 -3.86561e-19)
(-0.000894025 0.000938428 5.33704e-19)
(-0.000957953 0.00103408 -3.16724e-18)
(0.0141876 0.00199458 3.25402e-18)
(0.0132881 0.00280318 -1.09354e-17)
(0.0152735 0.00206784 -4.616e-18)
(0.0332345 -0.00896099 -3.25566e-17)
(0.0353486 -0.00717508 1.6726e-17)
(0.0322784 -0.00608102 -4.51357e-19)
(-0.00114669 0.0528545 1.9004e-17)
(0.00394646 0.0556062 -1.16478e-17)
(-0.00175023 0.0540372 2.01256e-17)
(-0.000536852 2.72973e-05 -1.80455e-18)
(-0.000519977 8.57193e-06 1.14298e-18)
(-0.0305189 -0.0189961 2.79084e-17)
(-0.0312169 -0.0203843 2.12534e-17)
(-0.0119397 0.0137503 2.44476e-18)
(-0.0126457 0.0133451 9.877e-20)
(-0.0119344 0.0129569 -1.48917e-18)
(-0.00239188 0.0162843 3.95584e-17)
(-0.001984 0.0163267 -2.37994e-17)
(-0.00212008 0.0160081 1.13055e-17)
(-0.000254921 0.000886196 -2.57313e-18)
(-0.000277432 0.000878525 1.25964e-18)
(-0.000281921 0.000854447 -3.51755e-18)
(-0.00336188 -0.00484367 7.44589e-19)
(-0.00358878 -0.00464829 1.46673e-18)
(-0.0032922 -0.00457836 1.86457e-18)
(-0.0372049 0.0340461 2.07044e-17)
(-0.0391337 0.032699 1.87785e-17)
(0.015564 -0.0132318 -1.54558e-17)
(0.00302626 -0.0340594 -5.78581e-18)
(0.00111773 -0.0350006 7.06727e-18)
(-5.78467e-05 0.00111924 -3.15909e-18)
(-3.85321e-05 0.00111942 2.76682e-18)
(-5.6131e-05 0.00111193 -3.10699e-18)
(-4.5601e-05 0.00110396 -6.299e-19)
(-5.76188e-05 0.00109855 2.47751e-18)
(-0.000349953 -0.000163451 -7.43581e-19)
(-0.0460511 0.0263164 -9.3593e-18)
(-0.0485284 0.0264207 5.55546e-18)
(0.0551171 -0.00888458 7.86593e-18)
(0.0552416 -0.0120045 1.19586e-17)
(0.0294779 -0.003972 -1.0456e-17)
(0.0208594 0.00282094 -1.50443e-17)
(-0.145359 -0.0422093 -1.42864e-17)
(-0.125798 -0.0331513 -8.4523e-18)
(-0.00204623 -0.000722272 4.21442e-19)
(-0.00194521 -0.000708451 3.27425e-19)
(-0.00196126 -0.000808766 -3.35542e-19)
(-0.0347947 0.0747673 -4.4697e-17)
(-0.0116772 0.0810015 1.09741e-17)
(-0.0388921 0.0902428 4.06597e-17)
(-0.000243017 0.0140851 -2.4094e-18)
(-0.000169347 0.0140996 1.63915e-17)
(-0.000355382 0.0142131 -3.83672e-17)
(-0.000823271 0.00491757 -4.47929e-18)
(-0.000607338 0.00494869 -1.78575e-18)
(-0.000656452 0.00471959 2.9691e-18)
(0.00166378 -0.00150594 5.07549e-19)
(0.00152629 -0.00150797 -2.34573e-19)
(0.001555 -0.0013893 -6.08437e-19)
(-0.00253691 0.0029627 6.27302e-18)
(-0.00243977 0.00281659 9.32316e-18)
(-0.00236895 0.00295106 -3.58564e-18)
(0.000375565 0.0149977 2.95804e-17)
(8.57015e-05 0.0153316 9.73245e-17)
(-0.000282407 0.0148865 7.53447e-17)
(9.22849e-05 -0.000226642 -3.05554e-19)
(0.000107014 -0.000241188 7.18167e-19)
(8.58014e-05 -0.000242713 2.07393e-19)
(-0.000536094 0.000568435 -4.05218e-20)
(-0.000537404 0.00055062 -3.89444e-18)
(-2.66064e-05 0.00047171 -2.03502e-18)
(-3.03694e-05 0.000459488 -2.11658e-18)
(-2.16746e-05 0.000401932 1.73658e-18)
(-0.000506324 0.00128823 7.37501e-18)
(-0.000515625 0.00137672 6.72273e-19)
(-0.000568243 0.00131326 -1.02715e-18)
(0.000454862 -0.00094424 2.27276e-19)
(0.000501094 -0.000946778 -3.31585e-19)
(0.000474983 -0.000882957 2.28443e-19)
(-0.00242881 -0.0109983 5.05616e-18)
(-0.0030278 -0.0110355 9.48941e-18)
(-0.00274052 -0.0116317 -2.32894e-18)
(0.000178088 -0.00776822 -7.24758e-19)
(-4.53113e-05 -0.00812779 -3.99056e-18)
(0.000463829 -0.0080973 -1.52288e-17)
(0.0061557 0.0759015 -1.89024e-17)
(0.00624644 0.0764248 -8.23094e-18)
(0.00587607 0.0769022 4.44931e-18)
(-6.09564e-05 0.000979415 -1.33449e-18)
(-9.08227e-05 0.00100531 -7.49524e-18)
(-0.0001027 0.000965129 -6.21548e-19)
(-0.00755405 -0.00485021 -3.0135e-19)
(-0.00707948 -0.00485389 -1.21548e-18)
(-0.00735381 -0.00439893 6.03229e-19)
(9.34348e-05 -0.00326809 3.05923e-18)
(2.91151e-05 -0.00346489 1.25288e-19)
(-0.00143516 0.00205982 -3.29589e-18)
(-0.00132838 0.00201219 5.30086e-18)
(-0.00139863 0.00194627 5.03305e-18)
(-0.00596286 0.0176725 -2.07334e-17)
(-0.0052382 0.0175842 -3.88208e-18)
(-0.00560202 0.0184652 -6.96664e-18)
(-0.0160151 -0.0126153 -2.80082e-18)
(0.0195397 0.0643586 -4.73905e-18)
(0.0234378 0.065632 -1.82147e-17)
(4.87648e-05 -0.00020237 -7.08137e-19)
(4.85864e-05 -0.000190136 3.29875e-19)
(3.44723e-05 -0.00019583 -4.40445e-19)
(0.00578277 0.0585595 1.81665e-17)
(0.00822824 0.0580435 7.70927e-18)
(-0.00364143 0.00261132 1.36062e-18)
(-0.00384081 0.00273021 9.73685e-18)
(0.0152943 -0.0153575 9.77993e-18)
(0.0160921 -0.0162416 -1.32312e-17)
(0.0164477 -0.0150742 1.0086e-17)
(-0.00108128 -0.000875414 1.05282e-19)
(-0.00106325 -0.000944495 7.84968e-19)
(-0.0243672 0.00689895 3.25608e-18)
(-0.0234572 0.00619 3.76637e-18)
(-0.000107029 0.000803336 -7.36736e-18)
(-0.000105588 0.000831404 -3.13661e-18)
(-0.000897121 0.0102621 1.85446e-17)
(-0.000744389 0.00998573 -1.93656e-17)
(-0.000523318 0.0103377 -1.38181e-17)
(-0.0166646 -0.00773228 -1.54774e-17)
(-0.0170165 -0.00675532 -9.91754e-18)
(0.00039432 -0.000922213 -6.21966e-20)
(0.000412531 -0.000997361 1.51364e-19)
(0.00182497 0.0161333 -9.2198e-18)
(0.00242049 0.0159304 -9.48509e-18)
(0.00261488 0.0164175 7.12801e-18)
(-0.00339258 0.0451967 -1.67456e-17)
(-0.012039 0.0414675 -3.3166e-17)
(-0.00423695 0.0425045 -1.91785e-17)
(-0.0123151 -0.000721699 -7.81655e-18)
(-0.0120142 -0.00135572 -4.68372e-18)
(-0.000768663 0.00030262 3.17484e-18)
(-0.000734353 0.000332083 -4.72913e-19)
(-0.000766186 0.00034086 -2.3643e-18)
(-0.00939076 -0.0189466 8.20659e-18)
(-0.00963384 -0.0179054 3.50552e-18)
(-0.0105946 -0.0185148 4.10256e-20)
(0.00131609 0.0266971 3.05736e-18)
(-0.000631433 0.0306453 -1.39043e-17)
(-0.0137516 0.0256658 5.54273e-17)
(-0.00152289 0.0101216 7.6016e-18)
(-0.00117878 0.0101993 1.71757e-17)
(-0.00138527 0.0098146 -1.31505e-18)
(-0.00155043 0.0104178 -2.30117e-17)
(-0.00180496 0.0100773 2.89319e-17)
(0.00706872 0.0730383 -3.56866e-18)
(0.0088238 0.0722369 4.25919e-17)
(0.00835442 0.0709342 1.18129e-18)
(0.00278731 -0.0464146 -7.24002e-18)
(0.00510757 -0.0464805 3.06136e-17)
(0.010426 -0.0495954 2.353e-17)
(0.0142093 -0.0154765 -1.5566e-19)
(0.0146002 -0.0144008 1.11499e-18)
(0.0016395 -0.0170613 -5.97821e-18)
(0.000514192 -0.0170656 7.48497e-18)
(-0.000201555 0.0138204 3.08538e-17)
(-1.73647e-05 0.0140814 -2.31869e-17)
(0.00108661 -0.000833857 4.98658e-19)
(0.00116334 -0.000818614 -5.41401e-19)
(0.00109615 -0.000759387 3.61763e-19)
(-0.0266583 0.0561113 -6.42756e-17)
(0.0254685 0.0036637 3.92114e-17)
(0.0262924 0.00266096 -4.78861e-18)
(8.10222e-05 -0.000218445 -4.1343e-20)
(9.51273e-05 -0.000216 -1.0822e-19)
(-1.43133e-05 0.000368345 2.21841e-18)
(-1.25836e-05 0.000374343 -1.09696e-18)
(-8.74148e-06 0.000307194 7.05911e-18)
(-0.05836 0.0106675 3.47913e-17)
(-0.0697718 0.00769888 5.69975e-17)
(-0.000706147 0.000687732 -1.53041e-18)
(-0.000732686 0.000657446 5.5184e-19)
(-0.000753518 0.000697086 -6.62897e-18)
(-9.1883e-06 9.37801e-05 -9.05373e-19)
(-1.1766e-05 0.000117485 2.45843e-18)
(-0.0113769 -0.0368971 -5.67606e-18)
(-0.0139162 -0.036793 -8.31913e-18)
(-0.0112966 -0.0350936 -2.37482e-18)
(-0.0161725 -0.0365062 2.21184e-17)
(-0.0161723 -0.0346278 1.23006e-17)
(-0.0192214 -0.0360194 -6.30269e-18)
(-0.00224938 -0.000714854 1.88912e-19)
(-0.00316652 -0.00508131 -3.83523e-18)
(-0.00349647 -0.00515849 9.69637e-20)
(-0.00796489 -0.0048816 -1.434e-19)
(-0.00765869 -0.00527598 -2.01705e-18)
(-0.00725251 0.00673118 -1.0996e-18)
(-0.00679629 0.00673196 1.22231e-17)
(-0.0070841 0.00712206 5.17964e-18)
(-0.00265891 -0.00576836 -2.40142e-18)
(-0.00241436 -0.00554171 -4.14878e-19)
(-0.00232359 -0.0058591 -1.77548e-18)
(-0.000233409 0.00089118 -3.70439e-18)
(-0.0127494 0.00308827 7.75425e-19)
(-0.0128081 0.00261231 9.04542e-19)
(-0.0122692 0.00284305 -2.29336e-19)
(0.00392292 0.0785571 -2.02296e-17)
(0.00310313 0.0797845 3.78284e-17)
(0.00332221 0.0794389 2.34129e-17)
(0.000337522 -0.000883676 -3.85493e-20)
(0.000373297 -0.000838641 7.96053e-20)
(-0.00268756 0.0503608 1.49699e-17)
(-0.00184681 0.0517255 -3.90755e-17)
(0.00545924 0.0529209 -5.80423e-17)
(-3.4184e-06 0.000146653 -4.83799e-18)
(-7.13934e-06 0.000101733 -8.25204e-19)
(-7.26963e-05 0.000462269 -3.638e-19)
(-6.05672e-05 0.000431998 -5.25211e-19)
(-7.13954e-05 0.000480853 7.58743e-19)
(6.78441e-05 -4.48855e-05 1.32129e-19)
(6.23327e-05 -5.15869e-05 7.01564e-19)
(7.30006e-05 -5.12136e-05 -1.56926e-18)
(0.00499865 0.0699329 1.27914e-17)
(5.85308e-05 0.000984733 -3.29028e-18)
(4.65943e-05 0.000963467 -2.89953e-18)
(2.96649e-05 0.000986679 1.5018e-18)
(-0.0188819 0.00736315 -1.1888e-17)
(-0.0104756 0.00564385 -3.11242e-17)
(-0.00491607 0.0558915 1.40622e-17)
(-0.00722172 0.0539765 1.50852e-17)
(-0.00741965 0.0547925 7.03399e-18)
(-0.00013393 0.000353284 -6.18365e-20)
(-0.000134271 0.000369191 2.0133e-18)
(-0.000150287 0.000367726 2.29784e-18)
(-9.64429e-05 0.000759148 1.88216e-18)
(-0.000108065 0.000777086 5.71766e-19)
(-0.0226399 0.00262024 1.53452e-17)
(-0.0303647 0.00119892 -2.51869e-17)
(-0.0307997 0.000840799 2.43478e-17)
(5.07003e-05 -3.24938e-05 -6.20385e-19)
(6.79473e-05 -3.23513e-05 1.05056e-18)
(-8.25765e-06 0.000213252 -1.10215e-18)
(-9.00214e-06 0.000210264 2.58896e-20)
(-1.17943e-05 0.000268211 -5.97164e-19)
(0.000110933 -3.43412e-05 1.42227e-19)
(9.72486e-05 -3.47522e-05 1.93147e-19)
(9.44412e-05 -2.36563e-05 7.39875e-19)
(-0.00285339 0.0577348 -2.45101e-17)
(-0.00375108 0.0580777 -1.73155e-17)
(-0.00283071 0.0149134 -1.72226e-17)
(-0.00246157 0.014877 -3.6067e-17)
(-0.00219393 0.00440081 1.66104e-18)
(-0.00212375 0.00420031 6.75543e-18)
(-0.00234163 0.00426927 -2.37535e-18)
(-0.00752411 0.0178466 1.93859e-18)
(-0.00789358 0.0170337 -7.88968e-19)
(-0.00843885 0.017743 3.59922e-20)
(-0.0143117 -0.0289916 2.03258e-18)
(-0.0148954 -0.0274889 6.49973e-20)
(-0.0133389 -0.0277947 1.07812e-17)
(-0.0774241 -0.022603 2.28048e-17)
(-0.00732817 0.0643716 9.70148e-18)
(-0.00495559 0.0658168 -2.65998e-17)
(-0.00586167 0.0605266 1.80925e-18)
(-0.000485154 -0.00326665 8.02521e-19)
(-0.000373425 -0.0034852 -1.52818e-18)
(0.0335397 0.117494 2.13244e-18)
(0.0108322 0.109773 4.79244e-17)
(0.0290365 0.133141 -1.05089e-17)
(-7.09535e-06 9.00523e-05 3.99159e-18)
(-7.32567e-06 0.000134817 -2.0407e-18)
(-4.86203e-06 8.76437e-05 -3.14841e-19)
(0.0184792 0.0282662 -1.47262e-17)
(0.00358999 0.022836 -6.21513e-17)
(0.00257008 0.0206931 1.17928e-17)
(-0.000447066 0.0138147 -4.56284e-19)
(0.00499723 0.0118389 -8.68407e-18)
(0.0124053 0.0642482 -2.01364e-17)
(0.00981512 0.0638085 -3.08816e-17)
(0.0128587 0.0635118 -2.21778e-17)
(-0.022494 0.0450257 4.20015e-17)
(0.00108096 -0.0438709 -8.49094e-18)
(0.000238801 -0.046396 -4.20285e-17)
(8.75822e-05 -0.00617863 -1.06522e-18)
(-2.7067e-05 -0.00648935 -1.61716e-18)
(-0.0135412 -0.0103054 -6.74549e-18)
(-0.0140895 -0.00955759 3.701e-18)
(-0.000120591 -0.00744048 8.8874e-18)
(0.000359723 -0.00743948 2.99591e-18)
(0.00180233 -0.00149831 5.29703e-19)
(0.00193904 -0.00147307 -4.823e-19)
(0.00180561 -0.00135593 3.66134e-20)
(0.00079477 -0.00359618 6.30816e-19)
(0.000861578 -0.00379199 -8.77412e-20)
(0.00101232 -0.00364693 -4.62084e-19)
(-0.0067726 0.0176916 -6.20397e-18)
(-0.00627295 0.0169686 -7.52758e-20)
(-0.00248881 0.00515868 -7.31865e-18)
(-0.00227833 0.00526427 -2.31975e-18)
(-8.51154e-05 0.000750479 -2.1258e-18)
(-8.18101e-05 0.000717408 9.47947e-19)
(-1.10637e-06 1.37923e-05 3.67012e-18)
(-1.15953e-07 6.41689e-06 -6.72193e-19)
(-1.87523e-07 7.0362e-06 -4.93466e-19)
(6.308e-05 -0.000215527 -8.60489e-19)
(4.16479e-05 -0.000217569 -3.95375e-20)
(0.000297617 -3.07108e-05 -1.18753e-19)
(0.000312004 -2.45169e-05 9.73038e-20)
(0.000296384 -3.61907e-05 -1.6581e-19)
(0.000298134 -0.000929842 6.7404e-20)
(-0.00547447 0.0553242 6.1565e-18)
(-0.0057814 0.0570631 1.06931e-17)
(-0.0029054 0.0558594 1.71687e-17)
(-0.000417365 -0.00016094 -2.7213e-19)
(-0.000399678 -0.000182889 -1.1118e-19)
(-0.000401741 -0.000147747 7.28183e-19)
(-0.00093741 -0.000792165 2.30332e-18)
(-0.000918115 -0.000736939 -4.88241e-19)
(-0.000999449 -0.000756977 -1.02287e-19)
(0.000327463 -2.31628e-05 -1.42746e-20)
(0.000322963 -2.34126e-05 1.97444e-19)
(0.000311478 -2.87252e-05 1.6211e-19)
(-0.000490265 8.3318e-05 2.24556e-18)
(-0.000498251 3.73541e-05 2.62374e-18)
(0.00448888 0.087394 -6.0827e-18)
(0.0045426 0.086216 3.7768e-18)
(0.00312295 0.0898549 3.12207e-17)
(-0.0162964 0.0171733 -1.57578e-17)
(-0.0170149 0.0192225 -2.07356e-17)
(0.00174292 0.0111449 6.22344e-18)
(0.00145623 0.0110093 1.55935e-17)
(0.00137974 0.0113489 -2.18377e-17)
(-0.00056918 0.00305984 -1.31245e-18)
(-0.000650834 0.0031796 -2.45625e-18)
(-0.000498893 0.00319704 2.76553e-18)
(-0.00104937 -0.0262326 -1.84603e-17)
(-0.000866395 -0.0248571 1.4491e-18)
(0.000352246 -1.71085e-05 -2.13037e-19)
(-0.220041 -0.0737016 -1.35412e-17)