/*--------------------------------*- C++ -*----------------------------------*\
| =========                 |                                                 |
| \\      /  F ield         | OpenFOAM: The Open Source CFD Toolbox           |
|  \\    /   O peration     | Version:  v2012                                 |
|   \\  /    A nd           | Website:  www.openfoam.com                      |
|    \\/     M anipulation  |                                                 |
\*---------------------------------------------------------------------------*/
FoamFile
{
    version     2.0;
    format      ascii;
    class       surfaceVectorField;
    location    "250";
    object      ddtCorrDdt0(Uf);
}
// * * * * * * * * * * * * * * * * * * * * * * * * * * * * * * * * * * * * * //

dimensions      [0 1 -2 0 0 0 0];


internalField   nonuniform List<vector> 
14885
(
(0.00453665 0.0161412 2.61727e-19)
(0.00669479 0.0139249 5.62801e-19)
(0.00748493 0.0178563 -9.44257e-19)
(-0.00251634 -0.311562 -1.06524e-17)
(0.0245538 -0.269546 4.65942e-18)
(0.0101007 -0.330468 1.8822e-18)
(-0.00811856 -0.0317147 -3.88184e-19)
(-0.0125949 -0.0329763 5.42051e-19)
(-0.0115915 -0.0274601 8.25521e-19)
(-0.000157796 -2.39132e-05 1.05563e-19)
(-0.000158758 -2.09772e-05 4.56697e-20)
(-0.000156541 -1.57224e-05 -1.16561e-20)
(-0.000103073 1.87464e-05 4.06369e-19)
(-0.000105832 1.52974e-05 -1.05887e-19)
(-0.00010939 2.09134e-05 1.70184e-19)
(-0.0783063 -0.0348571 2.07247e-18)
(-0.0817451 -0.0172484 -1.08161e-18)
(-0.0839826 -0.0385371 5.75909e-18)
(0.136742 -0.0159271 -4.09193e-19)
(0.154063 -0.0246889 2.78475e-18)
(0.124092 -0.032774 -4.88374e-19)
(-0.0159078 -0.0270795 1.15663e-19)
(-0.00682286 -0.0317997 2.01694e-18)
(-0.0127641 -0.0593434 2.36453e-18)
(-6.51642e-05 -0.000221096 1.4351e-19)
(-7.12243e-05 -0.000253322 -5.49217e-20)
(-9.0977e-05 -0.000211563 -7.67255e-20)
(0.0235323 0.0232386 -2.01891e-21)
(0.026861 0.0223105 -3.22062e-19)
(0.0261333 0.0265018 7.13512e-19)
(0.0229389 0.0320792 -4.41339e-19)
(0.0176006 0.0412297 2.02622e-18)
(0.016022 0.0322344 2.15386e-19)
(-0.00885453 -0.340953 8.53671e-18)
(-0.0152041 -0.279057 -2.58074e-17)
(-0.00508189 -0.0199059 -1.62394e-18)
(-0.00721134 -0.0204233 -7.61514e-20)
(-0.00638701 -0.0180792 -1.65034e-18)
(-0.000765206 0.000902718 -2.32546e-19)
(-0.000639204 0.000844855 2.33686e-19)
(-0.000669671 0.00106541 -6.08074e-19)
(-0.000406119 -0.000507169 4.96831e-19)
(-0.000465189 -0.000529132 -1.90832e-19)
(-0.000420563 -0.000562883 -3.56431e-19)
(-0.000951131 0.000944644 -7.70551e-20)
(-0.000815734 0.000742094 1.54804e-19)
(-0.0661249 -0.0983613 -1.38238e-18)
(-0.054409 -0.0983548 6.63179e-18)
(-0.0576882 -0.139413 -9.06156e-18)
(0.024111 0.0266249 4.4278e-19)
(0.0297599 0.0319575 -4.80333e-19)
(-0.00233812 -0.00386949 -1.90575e-18)
(-0.00284576 -0.00385081 -5.82748e-19)
(-0.00263713 -0.00440566 1.85916e-19)
(-0.00790885 0.00226446 -6.98045e-19)
(-0.0081515 0.0036521 -1.5157e-20)
(-0.00939983 0.00246754 -4.54153e-19)
(-0.00307768 -0.0192516 8.35428e-19)
(-0.00337767 -0.0217816 -9.94911e-19)
(0.00268903 0.0182704 -3.47603e-19)
(0.00192911 0.0149315 1.87845e-19)
(-0.000154926 -2.27698e-05 -1.44314e-19)
(-0.000153867 -3.00263e-05 1.10386e-19)
(0.000202618 0.0212345 1.5317e-18)
(-0.00766431 0.00130324 1.01322e-18)
(0.00770278 -0.00179795 2.06879e-19)
(4.15076e-05 1.05537e-05 -1.28583e-20)
(3.31765e-05 -1.84608e-05 1.66691e-19)
(2.69646e-05 1.8115e-05 -4.01404e-20)
(7.74361e-05 3.40156e-06 1.70061e-19)
(9.21496e-05 5.47246e-06 -3.05321e-19)
(0.000100334 6.35634e-06 -3.72063e-19)
(0.0209627 0.0206994 -1.24819e-18)
(0.0198243 0.0242963 -6.86419e-19)
(5.31982e-05 -0.000159179 -4.06768e-20)
(5.60029e-05 -0.000177723 -4.85977e-19)
(7.30105e-05 -0.00016452 8.93739e-20)
(-0.0745989 -0.0665478 -5.76053e-18)
(-0.0676435 -0.0290831 -9.68906e-19)
(-0.013556 0.0828031 -8.704e-18)
(-0.0150775 0.112755 1.97594e-18)
(-0.00454372 0.103592 -1.41573e-18)
(-0.000103426 -6.98389e-06 3.09484e-19)
(-0.000103057 -4.29249e-06 1.20167e-19)
(-0.000104642 -4.15635e-06 -2.81459e-19)
(-0.0245257 -0.0033823 -1.25806e-19)
(-0.0258256 -0.0052283 -8.47971e-19)
(-0.0269844 -0.00261589 -4.91283e-18)
(-1.98098e-05 -0.000234058 -5.23555e-19)
(-4.19209e-05 -0.000227783 6.83456e-19)
(-1.92723e-05 -0.00025958 5.68893e-19)
(1.47113e-06 -0.000232787 -5.11364e-19)
(-2.16064e-05 -0.000210441 -7.37605e-19)
(-0.0247158 -0.0221653 -2.14893e-19)
(-0.0194969 0.00807775 -4.5555e-18)
(0.00369288 0.0307425 4.66001e-18)
(0.0122229 0.0264288 -2.00482e-18)
(0.00625809 0.0600285 -9.09416e-18)
(-0.000161415 -6.80312e-06 2.06476e-19)
(-0.000153009 -9.40031e-06 -3.72633e-19)
(-0.000140379 -5.55103e-06 -1.95862e-19)
(-9.97546e-05 -6.04569e-05 2.86415e-19)
(-0.000103441 -6.53308e-05 5.2911e-19)
(-0.000100316 -5.56372e-05 3.28631e-19)
(-0.000102735 -1.00724e-05 -3.717e-21)
(-0.000104888 -8.99001e-06 4.03742e-20)
(-0.00102768 0.00286958 -2.26394e-19)
(-0.000814904 0.00242623 5.42915e-20)
(-0.000469838 0.00282716 7.38163e-20)
(-0.00750603 0.0479339 3.91855e-18)
(-0.0226346 0.0558312 1.03616e-18)
(-6.00029e-05 -0.000197576 2.02521e-21)
(-0.0859022 -0.13585 -7.94048e-19)
(-0.0564289 -0.120372 1.83386e-19)
(-0.102465 -0.122986 6.57968e-19)
(-0.089062 -0.0410192 -1.28307e-18)
(-0.0932563 -0.0423435 1.56003e-18)
(-0.0970027 -0.0881682 -3.68139e-18)
(-0.000110026 -0.000134747 2.67339e-20)
(-0.000100979 -0.000130396 -1.15279e-20)
(-0.00011111 -0.000123821 -2.76221e-21)
(4.85546e-05 3.6537e-05 -1.8855e-19)
(5.86822e-05 1.27526e-06 -9.50882e-20)
(0.000168314 4.62541e-05 1.35474e-20)
(0.000174024 4.09328e-05 -2.85928e-19)
(0.000165952 3.89552e-05 -4.57023e-19)
(-0.000375451 -0.000455184 1.56746e-19)
(-0.000337214 -0.000480695 1.61779e-18)
(0.0422948 -0.00488771 -8.84035e-20)
(0.0443961 -0.00861925 1.86412e-19)
(0.0392859 -0.00839179 2.40805e-19)
(-0.333817 -0.316687 2.11151e-18)
(-0.320245 -0.308284 -3.20214e-18)
(-0.323446 -0.264278 -1.605e-18)
(-0.176248 -0.160449 -1.70316e-18)
(-0.0740209 -0.152798 -2.79084e-19)
(-5.79239e-05 -3.4162e-05 -1.09338e-19)
(-6.22663e-05 -3.73309e-05 -1.0759e-20)
(-6.09704e-05 -4.24375e-05 -5.08883e-20)
(-0.0736623 -0.0986279 -2.73379e-18)
(-0.00191103 -0.00383651 -2.70621e-19)
(-0.00213341 -0.00347772 6.94344e-20)
(0.0686963 -0.0271296 -2.21467e-19)
(0.0841319 -0.0256426 9.99469e-18)
(0.0806448 -0.00188567 2.89062e-18)
(0.0950621 -0.125205 -1.37579e-18)
(0.102234 -0.120638 -4.86709e-20)
(0.106184 -0.0910741 -2.76916e-20)
(-0.00121671 -0.0183778 2.44348e-18)
(-0.00271996 -0.017129 2.44084e-18)
(0.00242806 0.0184918 3.67629e-19)
(0.00585744 0.0198065 3.15844e-19)
(0.00424739 0.0208062 -9.95532e-20)
(0.000283169 -0.00023655 -1.8587e-19)
(0.000333361 -0.000276698 1.28978e-19)
(0.000336207 -0.000174511 -4.98032e-20)
(3.24762e-07 0.000180701 5.60001e-20)
(1.79677e-06 0.000156938 2.7519e-20)
(-1.83991e-05 0.00017261 2.75688e-20)
(0.0400004 -0.00116028 -4.19832e-19)
(0.0450172 -0.000837292 -3.64776e-19)
(0.0878846 0.00792464 -6.7116e-19)
(0.0805001 -0.00445502 3.17211e-18)
(0.0708209 0.0186333 -1.61959e-19)
(-0.0343955 -0.109424 1.26681e-19)
(-0.0487602 -0.0997946 -3.80578e-19)
(-0.0404918 -0.0679134 6.11035e-19)
(-0.0336728 -0.0733951 -6.65029e-19)
(-0.0361011 -0.0941546 1.0629e-19)
(0.016292 0.0136556 3.33727e-19)
(0.0197391 0.0122299 1.63282e-18)
(0.018579 0.0169555 -3.12897e-18)
(0.000524264 0.000756874 -2.89823e-19)
(0.000665449 0.000687774 -3.83075e-19)
(0.000601175 0.000910093 3.11059e-19)
(-0.00707693 0.000292406 3.73302e-19)
(-0.0076125 0.00126638 -1.75345e-19)
(-0.00825004 1.7584e-05 5.97907e-19)
(0.0214827 0.0160529 1.56839e-20)
(0.0252943 0.0181676 -4.17013e-19)
(0.0246761 0.0121543 -3.51851e-19)
(0.000157098 5.4542e-05 -1.89418e-19)
(0.00016068 5.66663e-05 2.03617e-19)
(0.000160985 6.09757e-05 -1.442e-19)
(0.0182194 0.0136827 -4.89213e-20)
(0.0185581 0.0183985 -3.55944e-19)
(-0.253033 -0.166936 7.7481e-20)
(-0.295309 -0.165225 3.04344e-18)
(-0.262291 -0.198219 1.18405e-18)
(-0.000224683 0.00229466 9.01735e-21)
(-0.000558684 0.00243367 -6.5305e-20)
(-0.000483329 0.00202781 2.9272e-20)
(-0.000125647 -0.000247361 4.17548e-19)
(-0.00015244 -0.000273573 7.73225e-20)
(-0.000149362 -0.000234389 1.91723e-20)
(0.000229815 -0.000284307 -1.21158e-19)
(0.000231991 -0.000192945 1.04494e-18)
(0.00044522 0.000639285 -3.84746e-19)
(0.000384222 0.000783842 -4.37025e-19)
(-0.250451 -0.144258 -9.71354e-19)
(0.0151558 -0.0111716 -3.36162e-19)
(0.0138084 -0.00833154 5.76052e-19)
(0.0166752 -0.00830928 -1.61513e-18)
(0.000171879 5.2072e-05 7.41522e-20)
(0.000163823 4.94281e-05 1.08707e-19)
(0.0131886 -0.0131749 7.63582e-19)
(0.0169986 -0.014176 2.44928e-19)
(-0.00299066 -0.00345303 -9.82939e-20)
(-0.00332762 -0.00389965 1.31156e-18)
(-0.0754268 -0.0352182 5.01416e-18)
(-0.0745347 -0.0056436 1.76503e-18)
(0.0072126 0.0429097 1.96015e-18)
(-9.15125e-05 3.04726e-06 -3.50872e-20)
(-0.000106837 3.76585e-06 -9.04625e-20)
(-8.68447e-05 1.63612e-06 -2.18524e-20)
(-7.04302e-05 2.8511e-05 -3.66834e-20)
(-7.67503e-05 3.48011e-05 1.23488e-19)
(-6.98889e-05 3.57023e-05 1.40257e-19)
(0.000371423 0.0204017 -2.41962e-19)
(-0.00119894 0.022428 -3.9401e-19)
(0.00231753 0.0226801 -1.20621e-18)
(0.0718594 0.00605262 4.88931e-20)
(0.0665235 0.00421836 1.18501e-20)
(0.0731352 -2.69445e-05 -1.34193e-19)
(-0.00607994 0.00050337 -3.14549e-19)
(-0.00653163 -0.000526655 1.81362e-19)
(-0.00451485 -0.0302019 4.10572e-19)
(-0.00296976 -0.0361344 1.19804e-18)
(-0.000328846 -0.000363117 -2.91955e-19)
(-0.000289219 -0.000314836 1.16407e-19)
(-0.000260298 -0.000381382 -1.95358e-19)
(0.0172635 -0.00101216 -5.60067e-20)
(0.0182039 0.00206025 -1.14803e-18)
(0.0152829 0.00106212 4.63369e-19)
(-0.0040066 -0.0107339 6.02224e-19)
(-0.00420186 -0.0119903 1.42757e-18)
(-0.00532576 -0.0109631 1.81555e-18)
(-0.00050502 -0.000504461 5.65629e-19)
(-0.000521737 -0.000558237 -9.77115e-19)
(-0.0335368 -0.0937888 1.89268e-19)
(-0.0194706 -0.110507 5.63126e-20)
(0.0705511 0.0125577 -2.36075e-19)
(0.0772086 0.00898417 1.05751e-18)
(0.00649622 0.0205828 -2.49111e-18)
(0.00996082 0.0210081 -3.28169e-19)
(0.00850775 0.0236622 1.91763e-18)
(-0.000290553 -2.92491e-05 -3.02584e-20)
(-0.000317495 -2.78887e-05 1.5723e-19)
(-0.000303538 -7.18063e-05 5.47597e-20)
(-0.0185099 0.287561 1.68968e-17)
(-0.0574153 0.294705 3.56659e-17)
(-0.0067443 0.0023586 -9.2181e-19)
(0.0728301 0.00513466 2.41271e-19)
(0.0673179 0.00566994 -1.18945e-18)
(0.0721269 0.020212 5.06682e-18)
(0.000176945 -0.000324275 -9.61025e-19)
(0.000121753 -0.000353128 -1.18786e-18)
(0.0001376 -0.000275761 -1.72371e-19)
(-0.00374715 -0.00971842 -8.41068e-19)
(-0.0028586 -0.0104938 -2.08821e-18)
(0.0377102 0.0330736 -2.45074e-19)
(0.0423406 0.0353956 1.93346e-18)
(0.0411378 0.029438 2.44433e-19)
(0.000126709 0.000845265 -1.60655e-19)
(4.4704e-06 0.000908136 -4.17882e-20)
(2.19334e-06 0.000772102 3.05249e-20)
(-0.0198373 -0.00338577 -3.29504e-18)
(-0.0181548 -0.0031883 -2.96435e-18)
(-0.00108949 -0.00602512 2.73919e-18)
(-0.000609931 -0.00638861 1.71575e-18)
(-0.00130612 -0.00669561 1.05543e-18)
(7.82804e-05 0.000469267 -6.84197e-20)
(4.34995e-05 0.000408511 5.96786e-21)
(3.44627e-06 0.000451973 -4.07356e-19)
(0.118192 -0.120761 -3.05786e-19)
(0.158632 -0.0573013 -8.53941e-18)
(0.139103 -0.0730944 9.04142e-19)
(0.000366983 0.000526394 1.11602e-19)
(0.00048395 0.000456512 3.10277e-20)
(0.120175 -0.00910927 -7.31375e-19)
(0.138648 0.00180176 7.60117e-19)
(0.000168556 0.000466411 3.82856e-19)
(0.000117264 0.000536913 1.88514e-19)
(0.000221202 -2.13341e-05 -2.32148e-19)
(0.000274862 -4.23775e-05 2.87092e-19)
(0.000229929 -0.000104947 7.88162e-19)
(0.106959 -0.00486097 4.00352e-18)
(0.101864 -0.0154596 -1.63626e-18)
(0.0326417 0.0303963 -8.83999e-19)
(0.0334678 0.0365658 -2.8169e-18)
(-0.0459766 -0.0616055 -1.11917e-18)
(-0.0443526 -0.0379356 4.26418e-19)
(0.0130987 0.0143654 -1.82889e-19)
(0.0138768 0.0109542 -1.61501e-18)
(0.000148621 4.91111e-05 -7.25313e-19)
(0.00015231 5.72861e-05 -2.86822e-19)
(0.000150975 6.03977e-05 -2.97784e-19)
(-0.00674605 0.0176543 6.44593e-19)
(-0.0045344 0.0155331 3.1243e-20)
(-0.00466996 0.0195195 -6.58912e-19)
(-0.000117242 -1.22134e-06 -3.93645e-19)
(-0.000114862 -3.05271e-06 7.15793e-21)
(-0.000118163 -2.48015e-06 -2.25212e-19)
(-0.000334285 0.0170315 1.30403e-19)
(0.0023722 0.0158724 -1.69751e-19)
(0.000147113 2.50004e-05 4.71553e-19)
(0.000150316 1.39493e-05 -5.3239e-20)
(0.000150817 7.5714e-06 1.10707e-19)
(-3.27789e-06 0.000202233 -4.92142e-20)
(1.98385e-05 0.00018421 -2.17521e-21)
(-0.0180488 -0.353073 1.52371e-18)
(-0.0185483 -0.348993 2.01385e-18)
(-0.0113966 -0.365863 9.94414e-18)
(-0.0284627 -0.335278 5.04162e-18)
(-0.00360754 -0.345159 5.42661e-18)
(-0.000118859 -0.00013532 1.44467e-20)
(-0.000110383 -0.000146752 1.10198e-20)
(0.0162798 -0.00351798 2.18339e-19)
(0.0201625 -0.00274828 -5.11221e-19)
(-0.00045096 -0.000487218 2.24348e-19)
(-0.000377166 -0.00041454 1.54722e-19)
(-0.00035606 -0.000515517 5.88653e-19)
(-0.000519346 -0.000536473 -4.25858e-19)
(-0.000531916 -0.000416657 -4.51974e-19)
(0.0570686 -0.0339505 -4.48472e-18)
(0.0482381 -0.0270053 -5.49604e-18)
(-0.114637 -0.031677 -6.01294e-19)
(-0.130298 -0.0325408 3.11911e-18)
(-0.118854 -0.0206216 2.5106e-18)
(-0.00999091 0.01975 1.40085e-18)
(-0.00850096 0.0156677 -9.2112e-19)
(-0.000104698 -7.78775e-06 1.32898e-19)
(-0.000104568 -1.47654e-05 1.11345e-20)
(-0.000111821 -9.85918e-06 1.89657e-19)
(2.97178e-05 0.000571397 -6.51221e-21)
(1.99083e-05 0.000662584 3.96237e-19)
(0.000117909 0.000599569 1.13259e-19)
(-0.000553642 -0.00104201 -1.00595e-18)
(-0.000377405 -0.00101181 -9.76522e-19)
(-0.00041887 -0.00124017 -4.6117e-19)
(0.00038006 3.77484e-05 -2.32126e-19)
(0.000328078 8.26361e-05 -3.47275e-19)
(0.000373097 0.000161656 6.69515e-20)
(0.100163 0.00215514 2.40252e-18)
(0.108046 0.00576384 3.02803e-18)
(-0.136882 -0.247813 3.67031e-18)
(-0.242388 -0.279307 -1.15317e-17)
(-0.110467 -0.218777 7.619e-18)
(-0.0060885 -0.00360613 -1.9703e-19)
(-0.0070058 -0.00290762 -9.20313e-21)
(-0.00696565 -0.00427957 -2.28487e-20)
(0.140523 -0.153306 2.77786e-18)
(0.0936367 -0.236711 1.41697e-18)
(0.000389849 -0.00230306 -9.29462e-19)
(0.00049464 -0.00257924 4.86448e-20)
(0.000136108 -0.00246008 2.13293e-18)
(0.0767622 0.00364875 -7.22868e-19)
(0.0701526 -0.0258116 1.0241e-19)
(-0.017385 -0.0643392 1.46159e-18)
(-0.0256139 -0.065974 4.05924e-19)
(-0.0216479 -0.0571545 1.45891e-18)
(-4.75275e-05 -3.07132e-05 2.00592e-21)
(-4.21937e-05 -3.79951e-05 -6.99807e-19)
(-4.98895e-05 -3.82423e-05 -4.0522e-19)
(0.0450949 -0.207278 2.09426e-19)
(0.0956468 -0.182383 2.4783e-18)
(3.4538e-05 -0.000150515 1.90591e-19)
(5.02668e-05 -0.00014064 -2.81417e-19)
(0.00816852 -0.00178753 -2.20267e-19)
(0.00730696 -0.00186742 2.30636e-19)
(0.00798772 -0.00283653 -3.98874e-19)
(-9.65956e-05 -5.45063e-05 -2.45068e-19)
(-9.8718e-05 -6.53194e-05 -6.68848e-20)
(0.00194266 0.0186862 2.03676e-19)
(-0.000836399 0.0185659 3.14668e-19)
(0.000151457 4.70665e-05 2.02305e-19)
(0.000153487 5.0429e-05 1.28353e-19)
(-0.00158154 0.000863626 -2.32287e-21)
(-0.00149735 0.0011431 -1.42729e-19)
(-0.00179057 0.00101182 -1.21086e-19)
(-0.054835 0.052006 -6.31576e-18)
(-0.0610274 0.0791278 -1.11463e-18)
(-0.0434819 0.0977154 -4.17455e-18)
(0.000306722 0.000426177 3.60094e-19)
(0.00026929 0.000557823 3.8251e-19)
(-6.13709e-05 -1.28986e-05 1.06173e-19)
(-6.40177e-05 -1.72482e-05 5.79837e-19)
(-5.83985e-05 -1.67563e-05 4.474e-19)
(0.000507566 -0.00319966 6.78208e-19)
(0.000532779 -0.00290004 -7.13784e-19)
(0.000193691 -0.00303801 5.87665e-20)
(-0.00955636 -0.0248659 3.25688e-19)
(-0.011384 -0.0267509 9.15886e-19)
(-0.0120274 -0.0237654 -2.96915e-18)
(0.00337695 0.0194906 -7.3072e-19)
(0.00541164 0.0172619 -2.80616e-18)
(0.00838955 -0.000728045 6.69214e-19)
(0.00925518 -0.00176619 4.03037e-19)
(-0.0995051 -0.0311016 -2.66131e-19)
(-0.109339 -0.0434605 -4.70512e-19)
(0.0917492 -0.109639 7.02233e-19)
(0.107588 -0.117406 5.97575e-19)
(-0.000770026 -0.00108528 2.73687e-19)
(-0.000647821 -0.000876918 -2.18445e-20)
(6.41265e-05 1.63228e-06 2.95307e-19)
(4.94266e-05 9.88627e-07 2.99357e-19)
(-7.6236e-05 8.80609e-06 -2.15783e-19)
(-7.95677e-05 5.09624e-06 8.7219e-20)
(-8.12183e-05 6.46567e-06 -1.4001e-19)
(-0.00117338 0.00336272 -6.2482e-20)
(-0.00156983 0.00279638 -5.46649e-20)
(-0.0256185 -0.206041 -1.64506e-20)
(-0.133529 -0.274578 2.17364e-18)
(-0.000403647 -0.000322875 -6.69986e-19)
(0.000391931 -0.00167057 -1.31505e-18)
(0.000235487 -0.00185371 -8.66564e-20)
(0.000181632 -0.00164928 1.20302e-18)
(-0.0608997 0.00988849 3.63027e-18)
(-0.0418652 0.0143573 -2.93703e-18)
(-0.000105606 -0.000218238 -1.91826e-19)
(-8.81758e-05 -0.000254428 -2.59033e-19)
(-0.0221741 -0.00364218 2.17687e-18)
(-0.0207585 -0.00540322 -3.06645e-19)
(-0.000581021 -0.000116698 6.08641e-18)
(-0.00573305 0.0341831 4.34659e-18)
(1.93395e-05 -0.000225965 3.14991e-19)
(3.35738e-05 -0.000220046 1.74098e-19)
(1.15294e-05 -0.000206434 -2.36683e-19)
(-0.0046917 0.0215237 -5.20906e-18)
(-0.00134637 0.0236734 1.11626e-18)
(-0.00459634 0.0256764 1.10565e-18)
(-0.0143468 0.143328 1.09805e-17)
(-0.0234761 0.129984 1.08934e-17)
(0.000979339 -0.325539 1.12284e-17)
(0.0167514 -0.303302 -6.98424e-18)
(0.00282111 -0.307387 -1.36034e-18)
(2.69381e-05 -0.000251053 5.458e-19)
(-0.0016363 -0.00422388 1.89222e-19)
(-0.00149584 -0.00379714 -1.62759e-18)
(-0.00137382 -0.338165 6.93801e-18)
(-0.0146593 -0.322655 1.64708e-17)
(1.45446e-05 -0.000121258 1.35677e-19)
(7.05018e-06 -0.000146688 4.89772e-21)
(-6.11948e-07 -0.000125647 -1.5144e-20)
(-9.49653e-05 -4.63214e-05 2.25113e-19)
(-9.6001e-05 -4.35842e-05 -1.60965e-20)
(-4.19426e-05 0.000535215 -3.20644e-19)
(2.54782e-05 0.000503744 -1.92839e-20)
(0.000167042 5.84559e-05 4.00512e-19)
(0.000161292 5.32977e-05 3.96674e-19)
(0.000319046 -0.00206903 -1.34338e-18)
(0.000606844 -0.00209015 -1.30244e-18)
(0.00140841 -0.00616349 2.07489e-18)
(0.00197442 -0.00651265 3.68603e-19)
(0.00114872 -0.0067823 -6.89364e-20)
(0.000215753 -0.000379088 -1.71111e-19)
(0.000147123 1.36372e-05 -2.34795e-20)
(0.000147688 2.08007e-05 -2.36208e-20)
(0.000145162 2.24938e-05 1.40727e-19)
(-0.00300059 0.0383845 -4.34568e-19)
(0.00265616 0.0408701 4.04423e-19)
(-0.00612777 0.0461926 -1.19726e-18)
(-0.00819039 -0.00835031 -1.07997e-18)
(-0.00853306 -0.00734469 1.11788e-18)
(-0.00932448 -0.00858775 -1.62502e-19)
(4.41582e-05 0.00215316 -3.45017e-21)
(0.000114382 0.00258453 -4.40205e-20)
(-2.99466e-06 0.000129008 -3.09827e-21)
(6.44011e-06 0.000140125 1.94232e-21)
(1.39709e-05 0.0001212 1.62203e-22)
(-0.272162 -0.133631 -1.41924e-18)
(-0.273947 -0.167458 4.06222e-18)
(-0.231111 -0.112035 1.80315e-18)
(-0.000136371 1.23784e-05 -7.76368e-20)
(-0.000138809 1.88077e-05 3.83795e-20)
(-0.000142646 1.45882e-05 1.03598e-20)
(0.0403451 -0.190895 -5.79765e-18)
(0.000600001 -0.0197525 1.20953e-18)
(0.000451298 -0.0175827 3.33775e-19)
(-0.000106484 4.49428e-07 -7.59081e-20)
(-9.741e-05 -1.14375e-05 3.43377e-19)
(0.000815411 -0.00585272 2.6339e-18)
(0.00147202 -0.00564791 -7.76916e-19)
(0.00613737 -0.00993526 2.34572e-18)
(0.0294195 -0.0179011 -5.85665e-19)
(0.0241794 -0.0342897 3.89342e-19)
(-0.000493375 -0.000460479 -2.14648e-19)
(-0.000548855 -0.000479097 1.00478e-18)
(-0.0120474 0.0908037 2.16816e-18)
(-0.0205576 0.116705 6.3686e-18)
(-0.0452113 0.0904962 9.53346e-19)
(-0.0159332 0.0141513 3.47079e-19)
(-0.0142363 0.0183438 -3.93076e-19)
(-0.0181259 0.0171591 -8.78924e-20)
(0.0225451 0.276027 7.818e-18)
(0.0375775 0.267138 -2.10462e-18)
(0.022108 0.288583 5.51282e-18)
(-7.02585e-05 2.41796e-05 -1.12613e-19)
(-6.52702e-05 2.33715e-05 4.02267e-20)
(-0.14785 -0.023514 -1.29123e-18)
(-0.160251 -0.0120287 -2.63797e-18)
(-0.136894 -0.0118579 -4.10173e-18)
(-0.0355404 -0.0827606 -1.39596e-19)
(-0.0298125 -0.0730553 -2.11124e-19)
(-0.0255912 -0.0835905 1.42792e-18)
(0.0350452 0.0448222 -1.31869e-19)
(0.0347867 0.0392815 -1.21422e-18)
(0.0275035 0.0419152 5.78832e-19)
(0.00015406 -2.98073e-05 2.49901e-19)
(0.000148941 -2.57851e-05 -2.1151e-19)
(0.00014767 -3.40897e-05 3.82231e-20)
(0.0588977 0.00632184 -1.70397e-18)
(0.0593025 -0.0205528 -3.75133e-18)
(-0.000226585 -0.000963886 -5.8558e-19)
(-0.000331411 -0.000850402 4.38258e-19)
(-0.0338328 -0.0613129 -2.77475e-18)
(-0.029294 -0.0865785 -1.15214e-18)
(-0.0416587 -0.0853337 1.90254e-18)
(-0.00808367 -0.0224328 -3.93344e-20)
(-0.00691047 -0.0250712 5.02068e-20)
(0.000169594 -1.54972e-05 -4.5559e-19)
(0.000205504 4.34859e-05 -5.80579e-19)
(0.000434302 1.75265e-05 2.62757e-19)
(0.000375603 -5.19889e-05 2.51089e-19)
(-0.0233231 -0.00142085 5.38245e-18)
(0.000158069 -3.31275e-05 1.00892e-19)
(0.000159819 -2.49259e-05 -1.85525e-19)
(0.0432798 0.0489931 -9.49421e-19)
(0.0338623 0.0538806 -2.60759e-19)
(0.033325 0.0353116 -6.51721e-19)
(0.0268641 0.0336165 -4.26517e-19)
(0.0324786 0.0318477 1.3345e-18)
(-0.000127808 3.09137e-06 -1.52367e-19)
(-0.000129783 3.21282e-06 -2.98101e-19)
(-0.000127126 3.11032e-06 -7.70288e-20)
(0.0174907 0.0105922 -2.84187e-19)
(0.0190467 0.00734691 1.22209e-18)
(0.0153722 0.00804255 -3.22037e-19)
(0.000162287 -2.25551e-06 3.1449e-19)
(0.000160075 1.5219e-06 -2.57056e-19)
(0.000163356 3.30734e-06 4.98474e-19)
(0.1016 -0.0405184 -1.3282e-18)
(0.0862786 -0.0748092 -9.95891e-19)
(0.0729747 -0.115048 1.32691e-19)
(-0.000136337 -1.77093e-05 1.10704e-19)
(-0.000131519 -2.25347e-05 -1.34085e-19)
(-0.000138009 -2.42831e-05 -1.35724e-19)
(-0.149907 -0.0435642 2.11147e-18)
(-0.0410913 0.164543 7.72031e-18)
(-0.0221647 0.165757 -9.97085e-18)
(-0.0434597 0.146168 -3.23123e-18)
(-0.00759562 0.0186589 -1.31779e-18)
(-0.00474741 0.0180871 -1.92755e-18)
(-0.0386331 0.19079 7.0369e-18)
(-0.0622525 0.161808 4.78181e-18)
(0.0146672 0.0127935 3.12446e-19)
(-0.000163289 -2.07549e-05 -1.24811e-19)
(-0.000156244 -2.97832e-05 4.90899e-20)
(-0.0462052 -0.0782965 3.92231e-19)
(-0.00115332 0.000370695 1.81805e-19)
(-0.00129711 0.000219093 2.55376e-20)
(-0.00111007 0.00016422 -1.28096e-19)
(-0.00523364 -0.00397172 -1.6601e-19)
(-0.00535959 -0.00293255 4.31635e-20)
(0.0156493 0.0187013 -1.52865e-18)
(0.0186606 0.0181016 5.82363e-19)
(0.016325 0.0155801 -1.07813e-18)
(0.000208064 0.000798586 -2.55761e-19)
(0.000224473 0.000928366 -2.70422e-20)
(-9.39706e-05 -3.80463e-05 4.99281e-19)
(-9.31206e-05 -4.81516e-05 -6.19758e-20)
(-0.000516837 -0.000645216 3.33387e-19)
(-0.000610061 -0.000548149 3.52166e-19)
(-0.00724953 -0.00818135 -3.33511e-20)
(-0.00788427 -0.00930598 -1.36404e-18)
(-0.000117876 9.9757e-08 -1.74489e-19)
(-0.000112639 -1.47092e-06 2.43798e-20)
(1.70485e-05 -9.49018e-05 3.70813e-20)
(3.34485e-05 -0.000112881 -3.38686e-21)
(0.00291049 -0.0348703 1.03967e-19)
(-0.00265716 -0.00461562 2.31921e-19)
(-0.00341755 -0.00452171 5.87619e-19)
(-0.00285311 -0.00536785 -2.60471e-19)
(-0.00139136 0.285052 -1.46644e-17)
(-0.0163806 0.310207 -3.75044e-17)
(0.00654123 -0.00151924 -3.05467e-19)
(0.00638926 -0.00234677 3.18895e-19)
(-0.0234616 0.00435623 1.83205e-18)
(-0.0157596 -0.0179456 -1.60573e-18)
(0.103803 0.0270583 1.39137e-18)
(0.0932526 0.028995 3.91385e-18)
(0.0977627 0.0406432 1.32535e-18)
(-0.0161017 0.162008 -4.92394e-19)
(-0.00395021 0.17196 -1.41101e-18)
(-0.019009 0.178224 -1.56196e-18)
(-7.14945e-06 0.000224836 -1.20396e-21)
(-2.73437e-05 0.000217508 -2.0221e-20)
(-0.00145639 0.00396102 -2.03599e-20)
(-0.00072149 0.00385948 -5.61967e-20)
(0.0683659 0.165949 -3.05383e-19)
(0.0361895 0.272704 -1.48107e-19)
(0.036125 0.196177 6.28555e-18)
(-9.6491e-05 1.74313e-05 5.36196e-20)
(-0.000100383 2.43764e-05 -4.99375e-19)
(-0.0290184 0.145579 8.5043e-19)
(-0.0104283 0.142544 -2.56058e-18)
(0.00571305 -0.0012354 -7.68593e-19)
(0.00638492 -0.000578317 -9.15031e-19)
(0.00040066 -0.00349215 1.05753e-18)
(0.000758363 -0.00335773 1.97201e-18)
(-0.000101321 1.18866e-05 -1.31679e-19)
(-0.000108187 1.30607e-05 -2.39913e-19)
(-0.00162622 -0.00561502 -6.17679e-18)
(-0.000958011 -0.00540958 -6.48203e-19)
(-0.00010507 1.21563e-05 -4.89444e-21)
(-0.000117332 8.89288e-06 -1.09714e-19)
(-0.0502926 0.00639959 1.98813e-19)
(-0.0576764 0.0041626 1.89015e-19)
(-0.0554906 0.0113658 -1.35071e-18)
(0.127018 0.051349 3.98241e-18)
(0.122714 0.0179107 2.11551e-19)
(0.117849 0.0223633 4.12667e-18)
(-0.00135265 0.000719871 -5.34426e-20)
(-0.0016059 0.000559655 8.30651e-20)
(-0.00188721 -0.00453756 -2.8523e-19)
(-0.00249927 -0.00395895 4.15066e-19)
(-0.00013099 1.14976e-05 -4.97293e-19)
(-0.00013026 9.04071e-06 -1.00049e-18)
(-0.00181052 -0.000277685 3.09381e-19)
(-0.00211352 -0.000335146 1.40818e-19)
(-0.0019723 9.55531e-06 1.67813e-19)
(-0.0725669 0.305774 6.788e-18)
(-0.0616339 0.298022 4.77099e-17)
(-0.000106553 -4.32178e-05 -3.17899e-20)
(-0.000112394 -4.66193e-05 5.42309e-20)
(-0.00011391 -3.76002e-05 1.61815e-21)
(0.0194274 0.00482941 -4.5318e-19)
(0.0223322 0.00303697 -5.42782e-19)
(-0.00012501 -0.00010718 4.41987e-19)
(-0.000133921 -0.000117984 -1.48714e-19)
(-0.00013319 -0.00010636 4.0882e-19)
(-5.45822e-05 -2.98939e-05 -1.1252e-19)
(-5.55496e-05 -2.58387e-05 1.04666e-20)
(0.000177675 3.33917e-05 8.63502e-21)
(0.000182674 3.90308e-05 2.24987e-19)
(-0.00951952 -0.0200086 -1.74178e-19)
(0.115214 0.11464 -4.64962e-18)
(0.129728 0.0928858 -6.0557e-18)
(0.019731 0.00832838 2.45167e-19)
(0.0167403 0.00656709 -1.08545e-21)
(-0.0441776 0.00877647 -1.01252e-18)
(-0.0457946 0.00275901 1.20175e-18)
(-9.50166e-05 -3.70841e-06 -3.05137e-19)
(-8.41258e-05 -3.83501e-06 -1.85587e-19)
(-0.000104171 -1.77341e-06 -3.31629e-19)
(-0.000433034 -0.000731427 6.03013e-19)
(-0.000580577 -0.000757912 1.80679e-19)
(-0.000154289 -0.000109979 5.49151e-19)
(-0.000156322 -8.89861e-05 -1.27247e-20)
(-0.000144276 -9.23134e-05 4.19425e-19)
(-0.320334 -0.314185 -9.54133e-18)
(-0.329776 -0.352257 -3.73568e-18)
(5.34401e-05 0.000673679 2.15082e-20)
(2.34617e-05 0.000585103 -1.98391e-19)
(-4.29793e-05 0.000656476 -7.06279e-19)
(-0.313726 -0.160228 -9.44696e-19)
(-0.303675 -0.127903 1.37527e-18)
(-0.00165183 -0.000495477 5.33934e-20)
(-0.00154767 -0.000212968 2.3437e-20)
(-0.00664546 0.0117976 -4.64461e-19)
(-0.00493826 0.0137293 -1.64981e-18)
(-0.00776419 0.0138513 1.456e-18)
(-0.00131517 -0.00146272 -4.17944e-19)
(-0.00150533 -0.00145482 4.11772e-18)
(-0.00142236 -0.00163857 -7.72693e-19)
(-5.04635e-05 -0.000120971 4.96952e-20)
(-5.70013e-05 -0.000135963 -6.68307e-21)
(-4.3781e-05 -0.000131239 -1.58904e-20)
(-0.000109809 -6.60035e-06 3.77881e-20)
(-8.31903e-05 -8.55738e-07 3.09777e-19)
(-0.0175552 0.0460021 -5.74192e-18)
(6.17413e-05 -0.000195509 8.53137e-20)
(4.16825e-05 -0.000187395 1.70491e-19)
(0.0352407 0.13249 -3.70257e-19)
(0.0474263 0.122803 -1.86242e-19)
(0.0482909 0.104898 -3.01708e-18)
(-0.0110397 0.0679476 -1.19395e-17)
(0.0158353 0.0883592 -1.17749e-17)
(-0.00112359 -0.00146401 -1.57296e-19)
(-0.0012079 -0.00132535 -1.87258e-18)
(-0.000166176 -4.21565e-06 -9.57984e-19)
(-0.000156792 -3.11395e-06 -3.76612e-19)
(-0.000165979 -6.35786e-06 -1.34877e-19)
(-0.0360724 0.243192 -2.50326e-18)
(-0.0488806 0.224222 -2.14899e-18)
(-0.0423323 0.255031 -1.6538e-18)
(-0.0148468 0.0106442 1.63366e-19)
(-0.0149271 0.00773937 2.01983e-19)
(-0.017889 0.0102705 -4.89685e-20)
(0.000226957 2.12247e-05 -7.51405e-20)
(0.000221885 4.154e-05 -2.25882e-20)
(0.000235884 2.99164e-05 1.4823e-19)
(-0.00456842 0.0150537 -3.33524e-19)
(-0.00201719 0.0174466 5.93256e-19)
(-0.00242941 0.0146873 1.4191e-19)
(-6.41913e-05 -1.08924e-05 -1.127e-19)
(-5.9138e-05 -1.00753e-05 1.83215e-19)
(0.00325336 -0.0154795 -4.26213e-19)
(0.00381947 -0.0173337 -6.80397e-20)
(0.00198409 -0.01655 1.8951e-18)
(-0.0101282 0.00350271 8.62305e-19)
(-0.00864909 0.00441735 5.76337e-19)
(-0.0104501 0.00524183 2.67316e-19)
(-0.000148855 -1.38077e-06 -1.3583e-19)
(-0.000148963 -2.22338e-07 -8.27164e-21)
(-0.000136911 -9.82425e-07 6.05398e-19)
(0.0365168 0.158961 -1.97773e-18)
(0.0206854 0.187227 2.48788e-18)
(0.0176517 0.181018 -1.56502e-18)
(0.0235982 0.0107648 5.96994e-19)
(-0.00106596 0.000330298 3.73018e-19)
(-0.00120799 0.000271355 2.62278e-19)
(-0.00104217 0.00015523 -7.6481e-20)
(-0.0667551 0.0280741 -7.38402e-19)
(-0.0631515 0.0382372 -4.44635e-19)
(-0.0644022 0.026336 -9.60509e-19)
(-0.00428451 -0.00439372 -6.79308e-20)
(-0.00479223 -0.00515425 -6.25238e-19)
(-0.000163971 -0.000110314 1.36768e-19)
(-0.000165198 -0.000123052 7.39505e-19)
(0.000160491 -6.82951e-06 8.0771e-20)
(0.000164697 -6.82252e-06 1.5097e-19)
(0.000811308 -0.0026476 9.67812e-19)
(0.0406311 0.0363751 -1.54531e-18)
(-8.89454e-06 0.000115649 1.75893e-21)
(-1.67397e-05 0.000132787 -5.76822e-21)
(0.103878 0.00988368 -7.97046e-19)
(0.102756 0.00871319 1.1973e-19)
(-0.013978 0.013301 -3.97195e-20)
(-0.0123443 0.010273 2.67926e-19)
(0.0986719 0.00462908 -2.78518e-18)
(0.0893358 0.022977 3.2558e-18)
(7.52454e-05 0.000772143 5.49811e-20)
(0.000117089 0.00090647 -1.93088e-19)
(-2.49972e-05 0.000884922 -2.93266e-19)
(-0.00222553 0.00394403 -6.7668e-20)
(-0.00179418 0.00465812 -8.7006e-20)
(-0.0709648 0.0282871 9.87842e-19)
(-0.0684945 0.0202118 6.7517e-19)
(0.0483615 0.133818 1.03035e-18)
(0.0515118 0.13155 -2.67083e-18)
(-0.000191428 -3.08617e-06 -3.53911e-19)
(-0.000158985 -4.75341e-06 6.87284e-19)
(0.000271878 0.000128744 -1.78641e-19)
(0.000259005 0.000210065 1.76522e-19)
(0.000217601 0.000170804 2.25358e-19)
(-0.00026774 1.01052e-05 -6.19362e-20)
(-0.000261837 -3.84568e-05 -6.07468e-21)
(-0.00105595 0.000494534 -2.81271e-19)
(-0.000952825 0.000359437 -2.97192e-19)
(-0.00959332 0.00190227 4.87564e-20)
(-0.0115415 0.00257798 3.58508e-19)
(-0.00645402 0.0128106 -7.32161e-19)
(-0.00703292 0.0154193 9.94466e-19)
(0.000182338 2.6494e-05 -3.09204e-19)
(0.000174857 2.9599e-05 -2.08284e-19)
(0.000616307 0.0326863 2.54442e-18)
(-0.00676606 0.035395 4.41268e-19)
(-0.0392196 0.00783124 2.60482e-18)
(-0.0458431 -0.0138627 5.94371e-18)
(-0.0526048 0.00993671 -2.05518e-18)
(0.000147811 3.84922e-05 -7.45873e-20)
(0.000148334 3.88322e-05 -4.47201e-19)
(7.01363e-05 -1.52483e-05 -1.59912e-19)
(7.58963e-05 -1.32527e-05 -3.32405e-19)
(5.02278e-05 -7.22492e-06 -5.52567e-19)
(-0.295806 -0.146073 -5.24374e-18)
(-0.322949 -0.195355 5.85869e-18)
(-0.00795458 0.00974661 2.14653e-19)
(-0.00521599 0.010146 -5.89092e-19)
(0.0315744 -0.0357975 -6.23194e-19)
(0.0275279 -0.0490122 -1.72568e-18)
(0.0337589 -0.0397559 1.12375e-18)