/*--------------------------------*- C++ -*----------------------------------*\
| =========                 |                                                 |
| \\      /  F ield         | OpenFOAM: The Open Source CFD Toolbox           |
|  \\    /   O peration     | Version:  v2012                                 |
|   \\  /    A nd           | Website:  www.openfoam.com                      |
|    \\/     M anipulation  |                                                 |
\*---------------------------------------------------------------------------*/
FoamFile
{
    version     2.0;
    format      ascii;
    class       volScalarField;
    location    "250";
    object      k;
}
// * * * * * * * * * * * * * * * * * * * * * * * * * * * * * * * * * * * * * //

dimensions      [0 2 -2 0 0 0 0];


internalField   nonuniform List<scalar> 
10042
(
0.000359106
0.0160023
0.000265326
0.000141643
0.000141774
0.00528306
0.000404286
0.00756236
0.00013445
0.000192842
0.00202123
0.0163764
0.000167084
0.00014062
0.000145879
0.000140545
0.00801295
0.00130178
0.000152895
0.000156719
0.000166982
0.000298979
0.000141528
0.00528941
0.000140878
0.00014999
0.000189852
0.000133804
0.00576583
0.00711151
0.000154922
0.000168114
0.000134222
0.000134173
0.00683506
0.00614713
0.000149368
0.000135386
0.000148432
0.000139772
0.00610687
0.00013434
0.00209519
0.0114537
0.00014123
0.000140874
0.00013252
0.000145589
0.00019979
0.0845017
0.00494467
0.000140603
0.00725504
0.000152458
0.0149099
0.0012964
0.000166036
0.000195762
0.000146227
0.000130429
0.000199775
0.000954974
0.000183303
0.00854714
0.000270935
0.000144293
0.000154597
0.000789901
0.000132334
0.000690848
0.0356114
0.000149364
0.000136854
0.000145978
0.000143821
0.0219943
0.000256828
0.000132492
0.000270859
0.000152931
0.00786512
0.00553253
0.000165452
0.000139957
0.000174802
0.000239595
0.000153251
0.00023048
0.000140592
0.000224997
0.00015982
0.000145985
0.000194318
0.000245725
0.000187438
0.000143348
0.0617227
0.000155229
0.00329358
0.00014576
0.000159408
0.000221004
0.000146484
0.000164744
0.000155148
0.00014527
0.0495115
0.000143327
0.0003515
0.000145605
0.000145526
0.000289231
0.000215475
0.00780765
0.000258841
0.000132287
0.000187821
0.000153205
0.000218376
0.00013214
0.00013041
0.0217611
0.0227872
0.000141328
0.000235479
0.000141172
0.000141407
0.0126157
0.000110235
0.000184262
0.000135262
0.000142299
0.000142691
0.000142665
0.000283327
0.0181662
0.000154384
0.0484113
0.000150369
0.00445024
0.000196008
0.000137733
0.0499639
0.000133847
0.000158557
0.000135407
0.000172351
0.00013223
0.000147581
0.00577697
0.000142765
0.000143923
0.000151293
0.000170647
0.000208293
0.000159046
0.000153716
0.00145018
0.000142743
0.00015262
0.000151554
0.000145125
0.0110481
0.000140855
0.000149258
0.00433349
0.000136763
0.000165801
0.00615508
0.000133941
0.000269134
0.00790527
0.0252346
0.000134036
0.000152444
0.0247076
0.000141199
0.000135311
0.000141843
0.000132337
0.000150117
0.000155639
0.000146007
0.000132019
0.00495342
0.00015944
0.000149723
0.000130889
0.102022
0.000145001
0.0140412
0.000166028
0.000135411
0.000155155
0.014285
0.000145916
0.0802158
0.00100207
0.0844988
0.000140098
0.00658907
0.000192895
2.01571e-05
0.000136442
0.00412338
0.000142284
0.00704432
0.000170606
0.000145241
0.000142909
0.000167154
0.000135374
0.00109326
0.000243523
0.000150333
0.000514425
0.000136011
0.00592205
0.000143622
0.00478176
0.126396
0.000292036
0.124902
0.000510551
0.000141618
0.000188124
0.000146284
0.000153326
0.000179644
0.000146732
0.000135332
0.000141789
0.00015958
0.000159079
0.000141164
0.00694486
0.000151984
0.0634291
0.000157078
0.00508329
0.0011797
0.00866733
0.000130333
0.000151089
0.0223917
0.000142444
0.00803529
0.000156404
0.000151538
0.000145763
0.000154433
0.000135507
0.00511402
0.017605
0.000147127
0.000151338
0.000148196
0.000147089
0.0622683
0.000141596
0.000239635
0.000135823
0.000140489
0.000132619
0.00016773
0.0203433
0.000230749
0.00573887
0.000160114
0.000141877
0.000143419
0.0645793
0.000139588
0.0737865
0.000146746
0.000178412
0.00014906
0.000140998
0.000160789
0.0165293
0.000133789
0.00864264
0.0644257
0.00014879
0.000160153
0.0735834
0.000123835
0.000132923
0.000245972
0.00014723
0.00016504
0.00018072
0.000162702
0.00994358
0.000258124
0.000140234
0.0164419
0.000153147
0.000143503
0.000136529
0.000151036
0.000233347
0.000130916
0.00177561
0.000141296
0.00198239
0.000140454
0.000158602
0.0158695
0.00957823
0.000154291
0.000142044
0.00014321
0.000140243
0.000181431
0.000210452
0.00013265
0.00437087
0.00503712
0.000132206
0.000154335
0.0834985
0.000186138
0.00415121
0.00476686
0.000153111
0.000181434
0.000141655
0.000152202
0.000164011
0.00014227
0.000143828
0.000324337
0.000145644
0.00584434
0.000238064
0.0525856
0.00326064
0.000135654
0.00344361
0.000196216
0.000168428
0.000130362
0.000175037
0.000155754
0.00013523
0.000138847
0.000143034
0.000158702
0.076343
0.000147478
0.000230552
0.000157473
0.000137609
0.00339128
0.000184356
0.000146416
0.000164706
0.0932085
0.000158894
0.000144949
0.000150367
0.000149228
0.00571026
0.00320608
0.00014955
0.00014096
0.000152296
0.000153191
0.00506918
0.00013056
0.000167521
0.000139944
0.000148217
0.000227314
0.000141597
0.000197428
0.000235442
0.0201349
0.00022316
0.000144164
0.000386677
0.000179642
0.000141388
0.000174758
0.000132225
0.000144756
0.000132058
0.000142881
0.000132913
0.000146674
0.00836754
0.000147461
0.000221439
0.00314245
0.0127231
0.0001421
0.00721731
0.000150147
0.000168554
0.000140712
0.106222
0.000140539
0.00943055
0.0542716
0.00013782
0.000192794
0.00014164
0.000586251
0.000146386
0.0115767
0.000160344
0.00921439
0.000147172
0.00855487
0.000148883
0.0001621
0.0067158
0.000132947
0.000147729
0.000143456
0.00344876
0.000135277
0.000131912
0.000197874
0.000153594
0.000179934
0.0112845
0.00014145
0.000168446
0.000153632
0.00013249
0.000160598
0.00602635
0.000140373
0.000148877
0.00988519
0.000182001
0.000154245
0.0018421
0.000134002
0.000177311
0.000171175
0.104027
0.0386703
0.00735334
0.00842616
0.00369058
0.00816202
0.000131816
0.000177026
0.017467
0.0176885
0.000174149
0.000141516
0.000139093
0.000259518
0.00641463
0.000132043
0.000133915
0.000157205
0.000141904
0.000141188
0.00014205
0.000142571
0.00016287
0.000328776
0.000148732
0.000177812
0.000272063
0.00213838
0.000134639
0.0805705
0.0124267
0.00436185
0.000143983
0.000156004
0.000153113
0.010959
0.000143511
0.000800381
0.000147154
0.00277808
0.000139236
0.000154389
0.000133787
0.000180325
0.0132605
0.000151877
0.000139465
0.000142355
0.0119465
0.000135736
0.000231042
0.000215132
0.000192296
0.000136757
0.000223612
0.010823
0.00135513
0.000144644
0.000156029
0.00872818
0.0134739
0.000177509
0.00363039
0.000146271
0.00208504
0.000168122
0.000163642
0.000154408
0.00811831
0.000136496
0.000141402
0.000146129
0.0107121
0.000141396
0.000508814
0.000141901
0.000144299
0.000134859
0.000161918
0.00397235
0.000146551
0.000148837
0.00565054
0.000928778
0.000179155
0.000146386
0.000142979
0.0024311
0.00159598
0.000144415
0.000133531
0.000199009
0.000143557
0.000143377
0.00323503
0.000135183
0.0211953
0.000140766
0.000183124
0.000162763
0.118832
0.00014148
0.00015697
0.000144708
0.000136438
0.0051156
0.000130321
0.00630515
0.000177234
0.000134461
0.000167811
0.0561276
0.0029419
0.000171891
0.000145405
0.000133491
0.000132147
0.000135857
0.000175944
0.000145742
0.0203905
0.000143114
0.000134374
0.000914868
0.00015534
0.000175756
0.000157103
0.000139175
0.000674184
0.00563379
0.000158602
0.00921058
0.000143376
0.000158084
0.000134374
0.000134523
0.000142739
0.000142092
0.000144792
0.000145366
0.092046
0.00014681
0.000194761
0.000140697
0.00015147
0.000132724
0.00018902
0.00402468
0.000134521
0.000140895
0.00416825
0.000260955
0.000132863
0.021753
0.000141233
0.000259325
0.000135485
0.000150725
0.000136308
0.0868825
0.000132778
0.000140808
0.000142186
0.022553
0.00015176
0.000142553
0.00014563
0.00126784
0.000142079
0.00014158
0.000137164
0.000141643
0.000155116
0.000141325
0.000148603
0.000134538
0.059589
0.0118638
0.0105654
0.000146362
0.000153354
0.000143213
0.00199544
0.000149705
0.00510829
0.00476377
0.00788325
0.000223295
0.00757498
0.000143374
0.00014404
0.0121812
0.000846561
0.000175984
0.000182694
0.000145989
0.00610143
0.000139633
0.000144783
0.00013476
0.000135646
0.000151221
0.0120287
0.000148775
0.000149019
0.0222326
0.000142672
0.00236124
0.000137941
0.000148513
0.000168422
0.000144846
0.00536761
0.000141749
0.000141732
0.000223403
0.000144508
0.000132474
0.000155966
0.000140039
0.000139168
0.00726375
0.00483915
0.0164582
0.000145343
0.000140345
0.000140004
0.00613289
0.000149883
0.000143573
0.000138018
0.000138574
0.00729381
0.0870127
0.000200098
0.000146558
0.000159899
0.0654938
0.000157648
0.000165651
0.000178411
0.00768213
0.00265683
0.00671212
0.000139534
0.000145244
0.000142076
0.00845356
0.000139423
0.000154486
0.000142541
0.000130379
0.000172114
0.000144515
0.11021
0.108668
0.00013281
0.000141135
0.000131796
0.0067272
0.00013556
0.0104861
0.000150273
0.100092
0.000140204
0.000139581
0.000134562
0.000141315
0.000143644
0.000131606
0.000143604
0.000147403
0.000238742
0.000153709
0.0107691
0.000143399
0.000344811
0.00840508
0.000152681
0.000688812
0.000140426
0.000141858
0.000142241
0.000147459
0.0102321
0.000142497
0.000146064
0.000135019
0.0206267
0.000139155
0.00852957
0.000172793
0.000140422
0.000227743
0.00812753
0.000137074
0.000137002
0.000182366
0.000167507
0.00147411
0.000199381
0.000268508
0.000197112
0.000145122
0.000144896
0.000144154
0.000163287
0.000143908
0.00238351
0.000264007
0.00013037
0.000136564
0.000148702
0.000171147
0.000167664
0.00958679
0.000146436
0.000144681
0.00415918
0.000140098
0.000181737
0.000165427
0.000161186
0.00812431
0.00014556
0.000140668
0.000145433
0.000175394
0.0001409
0.0061461
0.000147091
0.000174911
0.000154819
0.025388
0.000144725
0.000161782
0.000149907
0.000147663
0.000171697
0.000133954
0.000170328
0.000141092
0.000146949
0.000139986
0.000143601
0.000150726
0.000179163
0.000152577
0.000145605
0.00748503
0.000134083
0.000140289
0.000140771
0.000131919
0.000202179
0.000145624
0.000147886
0.000189769
0.00750625
0.000143532
0.000230777
0.000118881
0.00013841
0.000141781
0.000131793
0.00401153
0.00847005
0.000154749
0.000140095
0.000183468
0.000661581
0.0368374
0.000146528
0.00470031
0.000747047
0.0118872
0.000144887
0.000131914
0.000138085
0.00596755
0.00021879
0.000146866
0.0598736
0.000393824
0.00762073
0.0109444
0.000142543
0.00022368
0.00361484
0.000212652
0.0215067
0.000163181
0.0686602
0.000147473
0.00620405
0.000144391
0.000177194
0.00015361
0.000184494
0.000131012
0.00014513
0.000141061
0.0152857
0.000142019
0.000130461
0.000831403
0.000143829
0.000158791
0.000147393
0.00189039
0.000142948
0.000149227
0.00014504
0.000142814
0.000142576
0.000155635
0.000139262
0.0101552
0.000351368
0.000231698
0.000142229
0.0177687
0.000138918
0.000181709
0.0060945
0.000149695
0.000142823
0.000132283
0.000142795
0.000150169
0.00579055
0.000192641
0.000140136
0.0239045
0.000142443
0.000145284
0.00550977
0.000132047
0.000145751
0.0200163
0.000139821
0.00918942
0.000150345
0.000207144
0.000158502
0.000185646
0.000171241
0.000143324
0.0465258
0.0584396
0.000140798
0.000167584
0.111627
0.0167556
0.000271297
0.000154392
0.000137916
0.000155446
0.000145075
0.000142331
0.00529449
0.000153381
0.000132127
0.000164488
0.00446505
0.00858417
0.000132252
0.000131803
0.000150713
0.000146308
0.00750564
0.00759378
0.000135873
0.000155252
0.0011234
0.000144434
0.000154998
0.0711308
0.000151349
0.00359376
0.000138845
0.000145041
0.00014546
0.000143974
2.10314e-05
0.000204141
0.000143445
0.0111289
0.0100368
0.0222928
0.000154012
0.000150771
0.071768
0.000166869
0.0116996
0.000161625
0.000143938
0.000141485
0.0240704
0.00179508
0.000147797
0.000154791
0.000169241
0.000141594
0.000203283
0.000147949
0.000141392
0.000152618
0.000165452
0.000140563
0.000141094
0.120571
0.000139231
0.00013775
0.000180353
0.000156575
0.0101861
0.000153969
0.000146043
0.0225162
0.000183076
0.000155139
0.00016972
0.0060385
0.000140606
0.000134456
0.000156132
0.00107623
0.00013976
0.000144431
0.000141383
0.000136185
0.000139954
0.0163109
0.000144613
0.00559856
0.000144526
0.000172729
0.000135856
0.000146783
0.000193757
0.00992128
0.000294044
0.000142951
0.000151755
0.00194943
0.000220792
0.000148817
0.000148536
0.00634734
0.000140761
0.000168494
0.000194634
0.000136889
0.000151057
0.000140763
0.000195959
0.0518296
0.00558379
0.000137638
0.000148485
0.000157141
0.000194028
0.000138634
0.000137007
0.000172781
0.00013115
0.000138124
0.00423925
0.000144637
0.0178255
0.000135242
0.000137214
0.000134798
0.000168439
0.000145547
0.000139673
0.00424887
0.000138275
0.000145376
0.0125764
0.000141811
0.000189889
0.000155937
0.00979499
0.00909105
0.000153014
0.0050962
0.000157251
0.000144516
0.112005
0.000148244
0.000140973
0.00013245
0.000140531
0.000167611
0.0246119
0.000175589
0.00954952
0.011519
0.00560647
9.34595e-05
0.0081274
0.000153125
0.00372747
0.000133864
0.000158625
0.000145353
0.000146537
0.00014756
0.00329282
0.0096805
0.000142983
0.00890824
0.000137474
0.000259545
0.000144378
0.000153506
0.000150564
0.00019005
0.00836166
0.000142063
0.000133006
0.0598228
0.000183043
0.000173373
0.000164889
0.00842466
0.000145696
0.00757608
0.00388741
0.000139054
0.000137873
0.000140194
0.000156356
0.000142495
0.000149172
0.000150498
0.000139737
0.00014581
0.00014573
0.000138765
0.00377872
0.0102325
0.000133197
0.000346318
0.000151084
0.000169688
0.00018349
0.00026825
0.000139014
0.000171517
0.000192517
0.0001356
0.000181758
0.00708785
0.000146317
0.000138007
0.000153161
0.00913587
0.0115167
0.000135589
0.0070847
0.000145443
0.0001457
0.0437326
0.000139413
0.000137564
0.000137607
0.000138283
0.000141531
0.0060293
0.000167377
0.000138882
0.000143009
0.000139314
0.00014142
0.00918876
0.000132801
0.000163987
0.00340962
0.00480074
0.000137642
0.0107712
0.000137974
0.000230547
0.000148982
0.000210084
0.000133776
0.0128086
0.0739043
0.0516078
0.00014399
0.000249177
0.00641034
0.00589969
0.000145171
0.00581939
0.000141241
0.00727292
0.00853751
0.000169628
0.0537863
0.00607116
0.00513336
0.0849817
0.00024719
0.00748738
0.000137751
0.000154072
0.00572407
0.000204289
0.00014291
0.00372282
0.000148525
0.00013932
0.000136986
0.00021469
0.000203298
0.000167112
0.004435
0.0001636
0.00577395
0.000149131
0.000140927
0.000140256
0.00550682
0.0056977
0.000163356
0.00788125
0.00014674
0.000147249
0.000167091
0.00585318
0.00018014
0.000139321
0.00393664
0.0129413
0.000148331
0.000204929
0.000135919
0.00016458
0.000212447
0.000139007
0.003397
0.00275864
0.000142663
0.000149098
0.00014016
0.0093205
0.000154649
0.0240355
0.00183111
0.000140495
0.00013944
0.000133534
0.00016969
0.000137985
0.000170974
0.000158271
0.00015653
0.00429446
0.00014827
0.000159355
0.00702586
0.000148133
0.000183675
0.000150939
0.000144108
0.0545518
0.00880078
0.000146799
0.0553304
0.000148183
0.00479797
0.000139384
0.000138359
0.000176508
0.000154592
0.000179213
0.00379261
0.000147087
0.000155368
0.000943844
0.000178801
0.000153582
0.00961933
0.000297913
0.00647997
0.000140265
0.00013257
0.000391608
0.000138995
0.00970164
0.00498627
0.000207556
0.00483252
0.000147367
0.000138081
0.0208952
0.00550431
0.000140937
0.0472361
0.000166269
0.000142037
0.000187253
0.00014911
0.000145097
0.000174738
0.000154361
0.000137467
0.000152009
0.000140681
0.000153774
0.00605108
0.000161603
0.00766238
0.000143271
0.000158256
0.000139991
0.000142752
0.00650265
0.000144908
0.00909866
0.00396038
0.000149086
0.00475559
0.000163513
0.00245421
0.000131907
0.00846501
0.000174718
1.09959e-05
0.000152813
0.000151586
0.000138775
0.000520138
0.000153506
0.00423262
0.000165099
0.000135776
0.00263875
0.000131637
0.100043
0.000140637
0.00967406
0.000142308
0.000137403
0.000134552
0.00878993
0.000139327
0.00013567
0.000134011
0.000139863
0.000143337
0.000195118
0.0031192
0.00013564
0.000156587
0.000146037
0.000140516
0.000138669
0.00718096
0.0441375
0.000155256
0.000143738
0.000138761
0.000134709
0.000155336
0.000154818
0.000134298
0.00768602
0.00945054
0.00317161
0.000135218
0.000139886
0.000143013
0.000151414
0.000137859
0.000148707
0.000143262
0.000139186
0.000188396
0.000149158
0.000167283
0.031925
0.0641812
0.000138927
0.000140492
0.000141445
0.0955856
0.000141512
0.000161335
0.000166952
0.000136891
0.000143423
0.000141157
0.0188008
0.000143919
0.00395307
0.00534511
0.000173049
0.000143128
0.000155638
0.00576769
0.000153335
0.000171672
0.000155801
0.000166205
0.000136601
0.000156107
0.000374416
0.00564938
0.000138311
0.000144793
0.0107897
0.000154084
0.000171417
0.000167844
0.00424768
0.000142885
0.000155655
0.00175518
0.00300224
0.000190486
0.000136352
0.000140969
0.000137875
0.000145718
0.000215939
0.00355086
0.00149522
0.000137761
0.104028
0.000155079
0.00673241
0.00670845
0.00014106
0.0331021
0.000442004
0.000138555
0.000205432
0.000167012
0.000145452
0.00620302
0.00013941
0.0241622
0.000149531
0.00459794
0.0194367
0.000174826
0.000143654
0.000155647
0.000148636
0.000139859
0.000135149
0.000135156
0.000863133
0.00014795
0.000172729
0.00574511
0.0597247
0.000172657
0.000159065
0.000136621
0.0384164
0.000132159
0.0057432
0.0882413
0.0526275
0.0316997
0.00705093
0.00105985
0.000133905
0.000145166
0.000134569
0.000209027
0.000151895
0.012164
0.000154033
0.114783
0.000157776
0.000136028
0.000134954
0.000145117
0.000133915
0.00451986
0.00633786
0.0614566
0.000138601
0.000167852
0.000153392
0.0001503
0.000201493
0.000144063
0.00344972
0.00895654
0.000148228
0.000139372
0.00608087
0.000157644
0.000248653
0.00895719
0.000146633
0.00441209
0.000152872
0.109673
0.000140383
0.000175033
0.000143094
0.000863675
0.000201192
0.0237622
0.008809
0.0920019
0.000108067
0.000219165
0.000137769
0.000140434
0.0113552
0.00660038
0.000184497
0.000157525
0.119889
0.00257887
0.0106457
0.000168781
0.0217021
0.000155276
0.000167305
0.00212259
0.000147222
0.000154093
0.000166359
0.000132617
0.000136854
0.000140369
0.000143271
0.0712938
0.00014818
0.00682612
0.000206145
0.000877253
0.00713482
0.00796775
0.000134618
0.000147425
0.0061454
0.000280037
0.00016175
0.00864235
0.0245244
0.00888324
0.000139411
0.000165078
0.000154401
0.000209006
6.12262e-05
0.0104079
0.00697512
0.000175094
0.000144956
0.00015101
0.000294505
0.000223995
0.000174998
0.00501587
0.000140417
0.00016725
0.0001509
0.0193279
0.000151998
0.00013603
0.000139974
0.000150608
0.0195261
0.00778002
0.000146935
0.000199062
0.00894576
0.000149283
0.0011129
0.000167542
0.000165378
0.000165852
0.00016762
0.00448164
0.000141367
0.000138915
0.000150906
0.000255227
0.000203544
0.000168426
0.000148816
0.000151076
0.000146569
0.016197
0.00017022
0.000152023
0.000146199
0.000364809
0.000155943
0.00853731
0.000150504
0.000163361
0.000140898
0.00971021
0.000461432
0.000172997
0.0578413
0.000137275
0.000163598
0.00361429
0.000156512
0.00521126
0.0128397
0.000145783
0.000150451
0.0503704
0.000143071
0.0208644
0.00014584
0.0222066
0.00849345
0.00176076
0.000151541
0.0001406
0.000141785
0.000143008
0.00015471
0.000132264
0.00014556
0.000140408
0.000138407
0.000152707
0.000151116
0.000145734
0.000150059
0.0492731
0.000144943
0.0489189
0.000147961
0.000144859
0.00520283
0.000141286
0.0493637
0.00967057
0.000144642
0.000148761
0.000169172
0.00344921
0.000167041
0.0692349
0.000161911
0.000148785
0.0165227
0.000138072
0.125668
0.000145378
0.000228723
0.000133377
0.00324257
0.0558248
0.0104875
0.000147261
0.00015278
0.000139082
0.000151719
0.000766295
0.000140258
0.000143178
0.000172111
0.000165514
0.0199417
0.00249336
0.000148249
0.000175979
0.000144165
0.000157733
0.000149463
0.000143203
0.000148524
0.072361
0.00877208
0.000225371
0.000152098
0.000148524
0.000150254
2.59058e-05
0.0405161
0.000194628
0.00736067
0.00387072
0.000150585
0.000152535
0.000205526
0.000139206
0.000152729
0.000163689
0.000150225
0.00708641
0.000150451
0.0081387
0.000136414
0.00014834
0.000194167
0.000150898
0.000152406
0.000153581
0.000158691
0.00528442
0.000148951
0.000139986
0.000145321
0.0775027
0.00396134
0.000154102
0.000145955
0.000138507
0.000153555
0.000143186
0.000184907
0.000140066
0.000137425
0.000145017
0.000162537
0.000160497
0.000145209
0.0636177
0.000147717
0.00014881
0.000472086
0.000152128
0.000154139
0.00024657
0.000147837
0.0190846
0.000139311
0.000138578
0.000148531
0.000165524
0.000136724
0.00472917
0.000148546
0.000141089
0.00508244
0.00737803
0.0038012
0.00622255
0.00680482
0.000157509
0.000137528
0.000151555
0.00551821
0.000160503
0.00839559
0.000149531
0.000162814
0.000192409
0.000181357
0.000138353
0.112161
0.00228711
0.000140409
0.000157302
0.000147266
0.000148867
0.000729005
0.000256429
0.000145005
0.00013908
0.00013379
0.00868077
0.000146635
0.00308362
0.0001664
0.000146286
0.000140262
0.000141142
0.0409348
0.000187172
0.000139811
0.00422205
0.00139015
0.000148403
0.00929372
0.000145894
0.000137621
0.000138357
0.000145207
0.000134401
0.000143794
0.000146704
0.000150455
0.0001459
0.000188727
0.00015151
0.00581461
0.000164804
0.00014279
0.000346507
0.000133743
0.000136599
0.000194298
0.000140224
0.00533145
0.000141036
0.00020974
0.103393
0.000137967
0.000760264
0.00489931
0.000144675
0.000147618
0.000143199
0.000573822
0.000145502
0.00620325
0.0078665
0.000150342
0.000159241
0.000178319
0.000180017
0.000144155
0.00157221
0.000146489
0.000936905
0.000389108
0.000149991
0.00656776
0.000140247
0.000178482
0.00549117
0.00041842
0.000144885
0.000175166
0.000150997
0.000174219
0.000136752
0.000155232
0.0306407
0.000158111
0.00100814
0.00128614
0.000167691
0.00670713
0.0001374
0.000225516
0.000145225
0.000156938
0.000499183
0.00814575
0.12397
0.000166122
0.000155928
0.0244226
0.000167656
0.000140522
0.000137767
0.000148115
0.000149163
0.000155123
0.000141288
0.0205401
0.000156491
0.000141402
0.000134112
0.00014291
0.000142552
0.000265112
0.000138706
0.0276569
0.00014892
0.0214801
0.000145342
0.000144719
0.000131543
0.000186914
0.000143945
0.09116
0.0227241
0.00481969
0.000156317
0.00014852
0.000143649
0.00014016
0.000139709
0.00741744
0.000147348
0.000147948
0.00474165
0.000144164
0.000149588
0.113629
0.000386177
0.0205452
0.000138734
0.0258751
0.00317282
0.000140871
0.000138426
0.000162765
0.0204851
0.00522681
0.00832171
0.000483988
0.000143302
0.000138742
0.000716469
0.00016027
0.000147415
0.000170835
0.00014681
0.000151432
0.0100558
0.00324037
0.000175941
0.000157106
0.000154045
0.000178638
0.0187591
0.000145118
0.000140053
0.000143944
0.000609176
0.000139804
0.000154271
0.0198953
0.115305
0.000136978
0.000139966
0.000131709
0.000145367
0.000144243
0.000170634
0.00028203
0.000149151
0.00269058
0.00496326
0.000256909
0.000166286
0.000148114
0.00014457
0.000142029
0.000138952
0.000133682
0.000145134
0.00676034
0.0143297
0.000136942
0.000137473
0.000146577
0.000145505
0.00346951
0.000172347
0.0218794
0.00579671
0.000515882
0.000198903
0.000142758
0.000142043
0.000142334
0.000145385
0.0171663
0.000143085
0.000153532
0.000309645
0.0124286
0.00935783
0.000280295
0.0119245
0.00854035
0.000143208
0.000166925
0.021207
0.00653241
0.000144209
0.00014466
0.000137207
0.000144349
0.000144729
0.003655
0.000141412
0.000141408
0.00967138
0.000152925
0.0241011
0.000142585
0.000137987
0.000168023
0.000323379
0.00020644
0.0103441
0.000154712
0.0166312
0.000169528
0.0001405
0.00793839
0.000141301
0.000152317
0.000145672
0.000137681
0.125377
0.01277
0.102529
0.000234918
0.0052271
0.00209697
0.0095425
0.000139429
0.000146012
0.000407174
0.000143116
0.000146492
0.000152774
0.000143868
0.0201933
0.000145565
0.007933
0.000635018
0.000133824
0.0236687
0.000144901
0.000141764
0.000162727
0.000161905
0.000163936
0.000166281
0.000167015
0.0033201
0.000145557
0.000142647
0.000136143
0.000167961
0.00164678
0.00014002
0.000146486
0.000208659
0.0130769
0.000140965
0.000167814
0.000168069
0.000135532
0.000143424
0.000141815
0.0167154
0.0366451
0.000167898
0.000149881
0.000143487
0.000163481
0.00421016
0.000145155
0.00375092
0.0091114
0.000145237
0.000164454
0.0358359
0.028277
0.000173283
0.000134587
0.000138711
0.0138138
0.000120728
0.026933
0.000157891
0.00783167
0.000183845
0.0151335
0.00519494
0.117659
0.00111504
0.0206213
0.00835531
0.0119217
0.000147547
0.00959672
0.00014338
0.0140307
0.000150645
0.000149145
0.000167288
0.0123286
0.00491543
0.000151028
0.000144773
0.00208157
0.0177302
0.00549969
0.000138908
0.000140805
0.000143057
0.000156146
0.000144829
0.000166835
0.0204631
0.00721152
0.000155271
0.000140848
0.000127428
0.000146605
0.000143762
0.00156101
0.000143638
0.000153474
0.000133924
0.00625342
0.000190288
0.00804232
0.000145046
0.00162993
0.00309255
0.000162898
0.00475019
0.0331067
0.00204316
0.0167364
0.000140851
0.000144902
0.000207206
0.000144284
0.000145417
0.000141746
0.000146762
0.000161311
0.000169038
0.000140671
0.00215421
0.000137646
0.00110883
0.000147003
0.00894003
0.0163109
0.000178398
0.0578997
0.0233586
0.000196366
0.00254091
0.0124526
0.000147662
0.000145668
0.000185093
0.000160343
0.0138701
0.000140586
0.000145943
0.0166356
0.000143123
0.000138866
0.000146077
0.000134181
0.00354919
0.000145522
0.000166141
0.000146253
0.0474014
0.000142489
0.000533328
0.00319276
0.00331919
0.0256969
0.000134251
0.000166671
0.000146164
0.000143218
0.0168293
0.000793009
0.000347581
0.00446366
0.00013333
0.000149452
0.000154289
0.000144389
0.00436993
0.000140306
0.000162907
0.0270578
0.00642817
0.000237537
0.000142503
0.000146145
0.0249538
0.000170845
0.000328472
0.00608291
0.0096621
0.0216758
0.000151708
0.00014039
0.000140195
0.000145866
0.00163628
0.000150972
0.000628619
0.000143971
0.000145665
0.00224912
0.000134647
0.000868519
0.000164674
0.000145234
0.000167338
0.0138991
0.000138605
0.000149626
0.0150545
0.000144412
0.000144846
0.00017088
0.103792
0.000154947
0.000188237
0.000136865
0.019992
0.00639693
0.000217397
0.000144356
0.000138611
0.000164838
0.000144843
0.00138051
0.00677116
0.00778338
0.0212523
0.000142796
0.000147341
0.000140693
0.000240416
0.000144287
0.0122424
0.00447346
0.000144011
0.00976984
0.000143044
0.0589153
0.00016785
0.00013663
0.000237797
0.0001394
0.000140144
0.000137852
0.000132619
0.000151698
0.0248348
0.000144561
0.000137742
0.000198289
0.000134305
0.000146126
0.00014915
0.000141886
0.000143945
0.00477232
0.000173446
0.000133161
0.000150153
0.000150075
0.000143606
0.0224688
0.012221
0.000143922
0.000140489
0.000145463
0.000439819
0.000145256
0.000147551
0.00014999
0.000202872
0.000133305
0.000150553
0.00466734
0.000144791
0.00201996
0.000142572
0.000144244
0.000140856
0.000141744
0.000138135
0.000143232
0.0185773
0.00547362
0.00013789
0.000147108
0.000152555
0.00202369
0.000162872
0.000190018
0.00014285
0.000148512
0.00019
0.00014813
0.00854093
0.000159026
0.00014122
0.000139452
0.0178929
0.00014825
0.0196103
0.000255818
0.000141126
0.00456027
0.0200652
0.0051552
0.000615445
0.000342949
0.000162621
0.00014068
0.120502
0.000144458
0.000152052
0.00017252
0.000134049
0.000143229
0.0194528
0.00013886
0.00237038
0.0134173
0.00014824
0.000144024
0.000804906
0.000142455
0.00028701
0.000136409
0.001332
0.000461662
0.00612941
0.0001426
0.00013978
0.00014884
0.00911052
0.00685901
0.00396846
0.0104758
0.000176076
0.000143165
0.000447033
0.0632746
0.000143551
0.000134375
0.000166748
0.000140948
0.0568202
0.000168466
0.000136711
0.00233078
0.000139668
0.000139227
0.000136297
0.000142894
0.000143118
0.000517032
0.000141925
0.00465941
0.000139427
0.00014822
0.000146278
0.000145779
0.000141833
0.000142909
0.000213569
0.000138046
0.000684797
0.00683182
0.000228733
0.000166371
0.000257482
0.000172647
0.00014252
0.00013417
0.000142636
0.000134538
0.055829
0.00112146
0.000152349
0.000150981
0.00651147
0.000148569
0.00483495
0.000145034
0.000140937
0.000144855
0.000223455
0.000283156
0.0201962
0.00154569
0.000167886
0.000226609
0.000231148
0.000143536
0.000141299
0.000138831
0.000163223
0.000165201
0.0463394
0.00499572
0.000167455
0.000140063
0.000173146
0.000141963
0.000221452
0.000142024
0.000904262
0.000148823
0.00233925
0.000163456
0.000147976
0.000167951
0.000244047
0.000160466
0.0222054
0.000141029
0.00013864
0.000143745
0.000143016
0.00393343
0.000137573
0.000145799
0.000158593
0.000133173
0.0209674
0.00730388
0.000184904
0.000144086
0.000145012
0.00547085
0.000246495
0.000141128
0.000142748
0.00119038
0.000142875
0.000143326
0.00129177
0.000166575
0.0047486
0.00469299
0.00532798
0.000170068
0.000140804
0.000144182
0.000161696
0.000141043
0.000140494
0.00865599
0.00964087
0.000137516
0.000141603
0.000140152
0.00014961
0.0348201
0.000141464
0.000149515
0.000144654
0.000136495
0.000140809
0.000246749
0.000151764
0.000140241
0.000134319
0.000147726
0.000138598
0.000166175
0.00502339
0.000196574
0.000139106
0.000142171
0.000143833
0.000141117
0.00739506
0.00014358
0.00539133
0.00446112
0.000141123
0.000138181
0.0112937
0.000138473
0.000139577
0.000140331
0.00124725
0.000165931
0.000156369
0.000140517
0.000132993
0.000143828
0.00513073
0.000141464
0.000146058
0.000176113
0.00568154
0.000207484
0.000133286
0.00717872
0.000130504
0.0056477
0.00014032
0.000134329
0.000138316
0.000145622
0.000142759
0.00612181
0.000122392
0.00489169
0.000177722
0.00016825
0.0414156
0.00014374
0.00622232
0.00190205
0.000147405
0.0052256
0.000166784
0.000599993
0.000142256
0.010003
0.000145698
0.000138556
0.000138073
0.000256697
0.00600127
0.000154508
0.00427596
0.0436769
0.00022007
0.000143041
0.000153506
0.000173929
0.00129022
0.00299375
0.000160292
0.000145265
0.000167156
0.00343689
0.000139761
0.0233106
0.000149902
0.000192516
0.000137913
0.000136959
0.000161908
0.000160327
0.0621545
0.0147848
0.000505959
0.000140231
0.000141878
0.0019142
0.00443888
0.0135365
0.000139428
0.000150424
0.000138659
0.000140634
0.000140885
0.00505547
0.000139452
0.000367618
0.000414748
0.00405311
0.00120719
0.000140054
0.000145407
0.000139266
0.000137962
0.000159675
0.000141392
0.000144254
0.000143485
0.000140018
0.000157997
0.00330447
0.000198412
0.000139463
0.000140747
0.0103063
0.000174686
0.000152902
0.000168356
0.00847559
0.00144553
0.000141007
0.00016032
0.00319016
0.000139549
0.00302867
0.000141773
0.000141115
0.000140131
0.00768285
0.000140137
0.00013875
0.000147299
0.000145702
0.000140523