/*--------------------------------*- C++ -*----------------------------------*\
| =========                 |                                                 |
| \\      /  F ield         | OpenFOAM: The Open Source CFD Toolbox           |
|  \\    /   O peration     | Version:  v2012                                 |
|   \\  /    A nd           | Website:  www.openfoam.com                      |
|    \\/     M anipulation  |                                                 |
\*---------------------------------------------------------------------------*/
FoamFile
{
    version     2.0;
    format      ascii;
    class       surfaceScalarField;
    location    "250";
    object      meshPhiCN_0;
}
// * * * * * * * * * * * * * * * * * * * * * * * * * * * * * * * * * * * * * //

dimensions      [0 3 -1 0 0 0 0];
oriented        oriented;


internalField   nonuniform List<scalar> 
14885
(
-0.000298683
-0.000885921
0.00118095
-0.0048123
0.00264206
0.00226012
-0.000167229
0.00156127
-0.00127206
0.00142861
-0.00194855
0.000409247
7.27872e-05
-0.000532605
0.000698765
0.00296399
-0.00062688
-0.00236353
0.000669069
0.00262181
-0.00313764
-0.00209276
0.00249156
-0.000388086
-0.0009833
0.000716841
0.000332537
-0.0015154
0.000609323
0.000967666
0.00048066
0.0020127
-0.00253305
-0.00229111
-0.00245134
-0.000370331
0.00251679
-0.00202951
0.000502357
-0.00116889
0.000730547
-0.00185045
0.000538346
0.00124619
0.00126411
-0.0007083
-0.00240366
0.00217523
0.000191199
-0.00196574
0.00240147
-0.00113031
0.000271064
0.000985292
0.00102899
-0.000301123
-0.000737414
-0.00220679
0.00194549
0.000816051
-0.00110896
0.00219615
-0.000706111
0.000265249
-0.00266645
0.00238389
-0.00105474
0.000231888
0.000881505
-4.47562e-05
1.3442e-05
5.2187e-05
-0.00116563
-0.000181974
5.66738e-05
-2.99658e-05
6.41283e-07
0.000421325
0.00251064
-0.000696999
-0.00156025
0.00228049
2.91458e-05
3.98822e-05
-8.99015e-05
-0.00325533
0.000521958
0.0027957
-0.000843577
0.000255899
0.000720845
-0.000236094
-0.00043299
-0.0024187
0.000324276
-0.00230186
0.00204679
0.000231628
0.00143353
-0.000295387
-0.000929141
0.00011852
-9.55608e-06
-0.000153086
-9.55234e-06
9.53349e-05
0.000217965
-0.00023107
8.35217e-06
0.00232834
-0.00299529
-0.00060323
0.00296276
-0.00352197
0.000600787
0.0043373
-0.00374441
-0.000441025
-0.000686994
9.89767e-05
0.000609269
-0.00035545
-0.000788285
0.000108927
7.24584e-06
-0.00012626
-0.00177524
-0.000229259
-0.000233506
0.0020763
-0.00171402
-0.00393464
0.00422823
-0.000199207
0.00330005
-0.000285605
-1.55524e-06
-0.000117592
9.10749e-05
-0.00200486
-0.000106782
-0.0009226
0.00456539
-0.00415624
-0.00030608
0.00476931
-0.00433308
-0.000340507
-0.000307865
-0.00182917
-0.00299725
0.000999075
0.00215162
-9.67839e-05
0.000131927
4.67466e-06
-3.32462e-06
4.04937e-06
4.93713e-07
-0.0020082
0.00192251
-0.00428826
0.00412791
0.00032251
-0.00308536
-0.000375681
-0.00197343
0.00229676
-0.000324532
-0.00106866
0.000149715
0.000931365
4.2776e-05
-8.79921e-06
3.13417e-05
0.000796743
-0.000304076
-0.000510732
-0.00112195
0.00142889
-0.000276576
-3.57932e-05
-7.84457e-05
0.000116993
-0.00129752
0.000209418
-0.00326793
0.00344966
-0.000120206
-1.30221e-05
-0.000317405
0.000169254
0.000110871
0.000590671
-0.00064774
-2.88938e-05
-3.71293e-05
0.000153422
2.58455e-05
7.95645e-05
0.000459562
-0.000966701
0.000538539
0.000109739
-2.8423e-06
-0.000511157
0.00100199
-0.000939594
0.00133463
0.00394672
0.000481529
0.00258027
2.21057e-05
-4.90219e-06
-1.45947e-05
0.000571004
-2.76477e-05
-0.000686228
-0.000379492
0.000155258
0.000356521
0.00262235
-0.00262733
0.000102241
0.000630283
0.000191327
-0.00158726
0.00154186
0.000414658
-0.000593027
3.1522e-05
0.000332719
0.000755062
-0.00111842
-0.0022263
0.0015823
0.000745149
-0.000887877
0.00138375
-0.00306525
5.20671e-05
-0.000290152
0.00303205
-0.00124446
0.000127743
0.00105003
0.000245652
-0.000398192
3.08426e-05
-0.0032771
0.00322655
0.00070871
-0.002048
0.00247752
-0.000369632
0.000247702
-4.90184e-05
-0.000258671
-0.00153585
-0.000561478
-0.00165667
0.00195273
-0.000139444
-2.21598e-05
-0.000115225
0.000328686
0.00239375
-0.00319593
-0.00120215
0.000128458
0.00119191
-0.000533268
0.000504332
3.26559e-08
-0.00154616
0.00427321
-0.00263202
0.000311222
-4.53611e-05
-0.00238678
0.00319112
3.52738e-05
-0.000510222
-8.6263e-05
1.1107e-05
-1.11489e-05
0.000818622
-0.00307016
-0.00170206
0.000174157
-0.00233089
0.000358545
-0.000150544
-0.000942959
1.26089e-06
-5.71454e-05
2.91385e-05
0.000710527
-0.00179086
0.00117415
-8.53974e-05
5.35401e-05
0.000111351
-0.000720872
-0.00205524
-1.52891e-05
9.21566e-05
-0.000105289
-2.02695e-06
1.43391e-08
-0.00405841
0.00219776
0.00195968
-0.00282741
-0.00115411
-0.000201894
-0.000596041
-0.00049793
0.000804101
0.000348033
-0.000452705
5.25018e-05
0.000532792
-4.69718e-05
0.00031842
0.00434973
-0.00310541
0.00292975
0.000220657
0.00196361
-0.00116141
0.000456561
-0.000442595
2.74021e-05
0.000548295
-0.00043039
-0.000136416
3.34144e-05
-0.000316701
0.000218705
-0.000336155
0.00050855
-0.000218473
-0.00183538
0.00276424
-0.000238892
0.00335446
-0.00301655
0.000189993
-8.20107e-05
-8.93053e-05
-0.002591
-0.00302872
-0.00124716
0.00125174
0.000152358
-0.0024884
0.000482886
-0.00034722
0.00297031
-0.00256025
-0.000149267
2.56143e-05
0.000174792
-0.00491972
0.00348728
1.49579e-06
7.97996e-05
0.000285591
-0.000411089
0.000180499
2.38164e-05
3.58102e-05
-0.000150606
-8.84277e-05
-0.000136103
0.000103899
0.00126054
-3.5946e-05
-0.00109646
0.000638025
-0.00240614
0.00182186
0.00021918
6.74456e-05
7.10026e-05
-8.06814e-05
-6.43798e-06
0.00135185
-0.00117276
-0.000222838
-0.00241123
0.00269951
-0.000229811
-0.000175818
-0.00114145
-7.9076e-05
0.00041366
-0.00283961
-0.000222853
0.00386113
0.000990768
0.000324471
-0.000343732
-4.80321e-06
-2.76916e-05
-0.000443078
0.000310594
0.000116767
0.000192285
1.1448e-05
-0.00318464
0.00304828
-6.57093e-06
-6.00645e-05
0.000796127
-0.000528848
-0.00238885
0.00310242
-0.000704555
0.000883753
0.00332644
-0.000847666
-0.000208437
-0.00208719
0.00046818
-0.000141216
-0.00018845
-0.00158398
0.000187492
0.0013265
0.00148365
-0.00302883
0.00279543
0.000608908
-0.00330514
0.000414011
0.000865632
-0.000884529
0.00350657
-0.000605313
-0.000245441
-0.000369956
0.000653799
0.000171059
-0.000218068
0.000188511
0.000390796
6.28804e-05
-0.000127298
-0.000915998
-0.000115815
-0.00133959
0.000557512
0.000880916
0.0002398
-1.01482e-05
5.60121e-05
-0.000114524
-0.000275379
8.46826e-05
0.00022311
-0.00139984
-0.00073937
0.00224351
9.01987e-06
-0.000170269
3.5975e-06
-5.66809e-06
2.13193e-06
-0.00334492
0.00013483
0.00328816
0.000596815
-0.000526597
-9.74161e-05
-0.000759326
0.00190534
-0.00214258
0.000555078
5.31602e-06
-0.000298681
-0.000976685
0.00465013
-0.00478315
0.000248049
-0.00156276
0.000623208
-0.00208558
0.00367481
-0.00155328
-0.00186695
0.000220441
0.00168504
0.00337417
-0.00313058
-0.000225916
0.000464862
-3.66746e-06
-0.00274033
0.00325553
-0.00045639
0.00309333
-0.00295054
-6.74067e-05
0.00236726
-0.000409882
-0.00195432
-3.14973e-05
-3.1648e-05
-4.20749e-06
0.00218533
0.000358443
-3.00905e-05
-0.000382786
0.000211581
0.00250106
-0.00276699
-0.0024999
0.000184627
-0.00030024
-1.73479e-06
-0.000437921
8.10951e-05
0.000148106
-7.82654e-05
-3.92534e-06
0.00214044
0.000227351
0.00240384
-0.00220027
-0.000150365
-0.000670838
0.00183572
-0.000849986
0.00100246
0.000273553
-0.00124279
1.77067e-05
-0.000270478
0.000236257
0.000417505
-0.002526
0.0022499
0.00140621
-4.24868e-05
-0.00153432
0.000246759
0.00326182
0.000253335
-0.00348732
-0.000188937
-0.0014167
0.00354876
-0.000244917
-0.000278741
-0.000931623
-0.00114872
0.000102882
-0.000157711
-0.00151625
0.00171338
3.07236e-05
0.000240606
-0.000120302
0.00105938
-0.000688576
3.93083e-05
5.67594e-05
3.99597e-05
0.000101692
0.000360452
0.000234972
-0.00204981
0.000766448
5.51003e-06
-8.04694e-05
0.000365242
-0.000546576
0.00229308
-7.13106e-05
1.29724e-05
0.000176424
-0.00345492
0.000202397
-0.000317545
-5.21821e-05
-0.00246514
-0.000239189
0.000221399
-0.00231979
0.00221146
-0.00249479
0.000309192
0.00231824
-2.34072e-06
2.94332e-07
0.00016261
2.89048e-05
-0.0037466
-0.00024298
0.00410864
-0.00056797
0.000878269
-0.000360911
-0.00201966
-0.000299056
1.76711e-05
0.000740439
0.00056992
-0.000380316
1.1952e-05
0.000117507
-0.00119892
0.000632006
2.87278e-05
-0.00272377
0.00132166
0.00149221
-0.00108767
-0.00213864
0.00336014
0.00131805
0.000158919
-4.75083e-05
4.32999e-05
6.94392e-05
0.000460285
0.00135223
-0.000919071
-0.000272253
0.00192441
0.00132335
3.99525e-05
-0.00134224
0.00111884
-0.000192242
0.000929831
8.22736e-06
0.000194914
-0.000167539
-0.000318406
0.000285469
-0.000132994
0.000130623
0.000137699
0.00332627
-0.00421994
0.000802562
-0.00101316
-0.00116249
-0.00150127
2.89087e-05
8.80019e-05
-0.000396456
-8.93712e-05
0.000437982
0.000516026
-0.00263072
0.00187814
-0.00355122
-0.0002569
0.00123417
-0.0011462
-6.79469e-06
0.00334703
0.000179378
0.000282824
0.001168
-0.0024504
0.000673141
0.00197265
-0.00157771
0.000516877
0.00101828
0.00109894
-9.35879e-05
-0.000893471
-0.000505896
0.000270056
0.000478706
1.30784e-05
1.45808e-05
-0.000246384
0.00237144
-0.0019682
-0.00337831
0.00132143
-0.000182502
-0.00131547
0.00217841
-0.000685068
-0.000399476
-0.00330395
-9.07754e-05
0.0034146
-0.000618184
-0.00103779
0.00173225
-0.000134942
-1.56174e-05
0.00017626
-0.000108261
0.00088577
-0.000753809
4.4344e-06
3.07833e-05
-0.00199466
0.00179124
0.000276188
5.84408e-05
-0.00104764
0.0011508
-8.08768e-06
0.000563246
-0.000262882
-0.00174538
0.00264269
-0.000781854
0.000961913
-0.000622108
0.00117146
-0.000581934
0.00252652
0.000137273
-0.00246051
2.62153e-05
0.00010715
-0.00204243
0.00235273
-0.000190747
0.000191536
0.000118794
0.00199242
4.81924e-06
-2.68366e-06
0.00231677
-0.0019896
0.000881397
-0.00143946
-0.00166021
-0.00249827
-0.00133273
0.00152103
-0.000108466
-3.57512e-06
0.000162513
0.00254335
0.000111609
-0.00241554
0.000739646
0.00133645
3.48461e-05
-0.000163956
-0.000135689
0.000206722
-5.80637e-05
0.000277148
0.000466724
-0.00111484
-0.00094363
0.00116342
-0.000803098
0.000715825
-1.17707e-05
-0.000123247
-0.000163711
-0.000101109
0.00270799
-0.000231947
-0.00244669
-5.62938e-05
2.92869e-05
-3.46209e-05
-1.96231e-05
3.72812e-05
0.00339805
2.98663e-05
-0.000625716
-0.00163088
-0.00166348
0.000201659
0.00146463
-0.000409965
0.000379736
4.33746e-05
0.000716557
-0.00108341
0.00180459
-0.000198814
-0.00149705
0.0006265
-0.000443344
0.000149406
-0.000248146
-0.00165785
0.000380753
-0.00051542
0.000348158
-0.000585173
3.37454e-05
0.000484523
-0.00136372
3.48402e-05
-3.52043e-05
1.55941e-05
-0.00257789
0.00273123
0.000149285
0.000777799
-0.00508993
0.0034492
0.0018043
-0.00141392
-0.000244248
0.000785126
4.41404e-05
0.0003243
-0.00260808
-0.0027121
0.00242252
0.000281533
-0.0021371
0.00191725
-4.4203e-06
7.11109e-08
0.00160076
-0.000172906
-0.0013647
0.000498241
-0.000382796
-0.000277788
0.000274125
-0.000267846
0.00104844
-0.00114842
7.89317e-05
0.000308944
-0.000823222
0.000486677
-4.79327e-05
0.000457111
-0.000303897
-7.12248e-05
-0.000812254
0.000817055
-0.00102981
0.00109334
-0.000297883
0.000357179
0.000744349
-0.000886629
0.000186364
-1.75338e-05
0.00429091
0.000206846
0.00166911
-0.00158538
0.001482
-1.13036e-05
0.000399002
0.00296984
-0.0032935
-2.00754e-05
1.21655e-05
-3.08223e-06
0.000432454
-2.27067e-05
-0.00141029
0.00131439
-0.000378825
0.000508887
-0.00265837
0.000346747
0.00237305
-0.00178724
0.00220488
3.40696e-05
-0.000742697
0.00105294
-0.000439784
3.03547e-05
-0.000286371
0.000270441
-0.000254787
-0.00472538
0.00427075
0.000552694
-2.5961e-08
0.000143014
0.000107117
-1.45531e-05
4.37128e-06
-4.37128e-06
-0.00177089
-0.000695572
0.00129727
-0.0012448
-4.75333e-05
0.00259535
-0.00172423
0.000296961
-0.00231027
0.00216553
0.000334388
-0.00363429
0.00351273
-0.002351
0.000693652
-8.64717e-05
-4.39113e-05
3.04484e-06
-0.00201625
0.00245506
-0.000747644
0.000879188
0.00053634
0.000111364
-0.00333097
0.00129536
0.0020955
-9.31215e-05
-0.000137647
2.14393e-05
3.1818e-06
9.99488e-05
-6.66513e-05
-4.41195e-05
-0.000126858
1.5735e-06
0.00130188
-0.000908652
0.00360406
-0.00356833
6.90946e-07
-0.000761757
0.000624916
0.000239766
-0.00223737
0.00208027
0.000324339
-0.00209336
-0.00422249
0.00220582
-0.00209031
0.000128936
0.0019524
-0.000376432
-0.00203628
0.00117885
0.00192967
-0.00188108
0.00245157
-0.000217434
3.87796e-05
-0.00332848
0.0035887
-0.000221319
0.000430808
-0.000396642
-2.27523e-05
-0.00402877
0.000922579
0.00310672
-0.00398402
-0.000171068
0.000961221
-0.000183491
-0.00245833
-0.000900307
-0.000124536
0.000994277
-0.00024104
-0.00198238
0.000246827
0.00109766
-0.00300755
0.00145381
0.00156404
0.000386848
-0.000693668
0.000409949
-0.00210278
0.00254506
-5.26312e-05
-0.000854905
-0.00229185
0.000306729
0.00199395
-0.000494027
5.85235e-05
0.000495125
-0.000110013
0.000612496
-0.000388768
-0.00430268
-3.68211e-06
-5.36435e-05
6.74572e-05
-0.000188263
-0.000273772
-0.000113538
0.000143264
2.65324e-05
-0.00145087
0.00179843
7.74841e-05
0.000241667
7.71825e-05
-0.000153091
6.96408e-05
-0.000601068
-0.000247436
0.000942848
-0.000666508
5.13008e-05
0.00078902
-0.00127942
-0.00169167
0.000703899
-0.000823665
0.00224376
0.000176959
-0.00069047
6.87307e-05
5.91002e-05
-0.000322525
0.000802223
0.000824156
0.00121706
0.000100035
-0.0010142
-2.8266e-05
-0.000231044
-0.00323181
-0.000171009
0.00346138
0.00207807
4.45142e-05
1.98682e-05
-3.62695e-05
-0.00381991
-0.0004301
1.00412e-05
-1.49653e-06
-7.37605e-07
0.000260733
-0.000987396
-7.0129e-05
-0.000763462
0.000960512
0.000142764
-9.46539e-05
-0.000297976
1.14138e-05
0.00028797
-0.000487776
-0.00176485
-0.0001413
-0.00296441
0.00192971
1.18356e-05
-0.000133846
6.85188e-05
-0.0022638
0.00181468
-0.00174396
0.00237048
-0.000509506
0.000538421
-0.00219376
-0.00238412
-0.000866488
0.00100769
0.0013104
0.00101243
-5.12673e-06
-0.0012087
0.00389952
-0.000254214
-5.78138e-07
-1.34495e-05
0.000151245
-0.000117268
9.65705e-05
8.58266e-05
0.00228771
-0.00118353
-0.00106981
0.00166562
-0.00169867
-2.64288e-06
8.77122e-05
0.00155597
-9.19962e-06
0.000119978
6.50067e-06
0.00100754
-0.00153044
0.00156092
-0.00052946
0.000959028
-0.00125297
0.00136754
-0.00303273
0.00297352
0.000738053
-0.000648092
-7.52292e-05
0.00352726
-2.77197e-05
-0.00347055
-0.0034191
0.000264427
-0.00278226
0.000454153
0.00240674
-1.64605e-05
5.45177e-05
-0.00204471
0.0019272
1.63888e-05
-6.29388e-05
-0.00119131
-0.00289645
0.000202448
-0.00174571
0.00135057
-0.00168781
-9.28282e-05
-0.000788469
0.000590447
-0.0020859
-0.000342093
-0.000123864
8.5517e-07
-0.00105427
0.00127937
-7.58429e-05
8.12895e-05
-0.000578195
-0.00152059
-0.000377973
0.0021153
-0.00170932
-6.49991e-05
0.000150167
-0.000252055
0.0001462
8.21112e-06
0.000311952
-0.00262334
-0.00113162
0.00379992
-4.1892e-05
8.58201e-05
0.0018002
-0.00159109
-0.000146161
-0.00175662
0.000166059
0.00172028
0.0025076
-0.00262124
-0.000612213
-0.000216887
0.000164112
0.00232116
0.000373595
-0.00277471
-0.000399626
0.00327464
0.000458495
-0.00060281
7.02567e-06
-0.000256222
0.00041657
-0.00220245
0.00125747
-0.0038155
0.0013208
0.000716948
-0.00189256
-0.000129738
0.00200553
-0.00188449
-0.000683863
-0.000408239
0.00102955
0.000145653
-1.51078e-05
-0.000122913
0.000278305
-1.88574e-05
-7.71799e-05
0.000143804
-2.89058e-05
-3.30109e-06
0.000267791
-0.000199139
-7.60888e-06
-0.000248691
0.00263751
-0.000727065
0.000173639
-0.00257867
0.00212282
0.000549492
0.000255392
5.50664e-06
-0.000230928
-4.1502e-05
0.00239517
-0.00025704
-0.00073629
0.000688051
-0.00215933
0.000828397
0.00118171
0.000634005
-0.000768149
2.55397e-05
0.000800157
-0.000747424
-4.7039e-05
0.000301805
-0.00029795
0.0016688
-0.00180694
0.000179815
-6.67767e-06
0.000336449
-0.000248449
-0.00346871
0.00188232
0.0017806
-0.00144804
0.00170508
6.14482e-05
2.7698e-05
0.000169089
4.74836e-05
0.000258364
-0.000224632
2.49729e-05
0.000327056
0.000130877
1.74916e-05
-0.00332111
0.000637443
-0.000224232
-7.31827e-06
9.47095e-05
0.000100139
-0.000123618
-0.000235395
-0.00146716
-0.000267939
-0.000235883
0.000274446
2.8888e-06
-0.000186852
0.00159484
-4.85819e-05
-0.00134182
-0.000328857
-0.00396633
0.000338928
0.000408145
-0.00125357
0.000123089
-0.0015732
0.000177008
0.00149624
0.000257461
0.000893255
-0.00148362
0.00219885
-0.00224198
0.000152477
0.00143264
-0.000334463
-0.000530294
0.000533018
1.96288e-05
-0.00149092
-0.0018684
-5.24341e-06
3.79058e-07
0.000359112
0.00315957
-0.00336654
0.0021032
-0.000644413
0.000749158
-0.000239627
-0.000448003
0.0019316
-0.00178027
-6.49031e-05
-0.00246812
-0.00253491
0.00245934
-0.00031687
-0.00199555
-0.00150459
5.71685e-05
8.13311e-05
-7.91662e-05
-8.95897e-05
0.000247461
0.000129473
1.02823e-05
-0.000161243
0.000407805
2.45481e-06
-0.000404773
0.00211167
-0.000369694
-0.00156679
0.000347565
0.00279806
-0.00030247
-0.00234444
-0.000445587
0.000538924
-2.94638e-05
-4.75916e-06
3.88176e-06
2.72268e-06
-0.00399727
0.00378941
0.000300443
-0.000966941
0.00121034
0.00169201
-8.04645e-07
-1.75096e-05
0.000384575
-0.000281878
-3.41435e-05
-0.000413809
-0.00347338
-0.00243219
-0.000179866
-0.000224652
-0.0013084
0.00232863
-0.00268672
-0.00406646
0.00178197
0.00209822
-0.00028962
0.00239813
-0.00202091
0.000657505
-0.000231516
-0.000372405
0.000324515
0.000466609
0.000250414
-0.00047914
-0.000239324
2.03812e-05
-0.000202955
7.83384e-05
-7.28407e-07
-0.000219379
0.00041509
-0.000196453
0.000313593
0.000602861
3.49022e-05
-0.000846737
-0.00140629
0.00171365
-0.000136336
-0.00167456
0.000174469
0.00144836
-0.00145997
0.000159226
0.00133187
-0.000139567
0.000126734
0.000260803
3.55309e-05
0.00287705
0.000279311
-0.000483903
0.00015949
0.00101446
-0.000298439
-0.00165751
-9.51263e-05
0.000101284
0.00389812
-0.00336002
-0.000340995
-0.000617898
-0.000103292
-0.000998995
2.60496e-05
-8.18872e-05
3.27523e-06
0.000105308
-4.42732e-05
-1.46326e-05
-0.000438125
0.00305397
-0.00259114
-1.92887e-05
-0.000120024
0.00115391
-2.59009e-05
-0.00115545
0.00112526
0.000146303
0.00377375
2.45521e-06
1.53001e-06
-3.95537e-05
-8.83713e-06
-1.71922e-05
-4.77485e-06
-0.00184134
0.00183853
0.000127793
-0.000482025
-0.0015385
6.32536e-05
-8.01737e-06
1.58015e-05
-0.000180484
0.0002511
0.000120337
-2.25567e-05
2.01047e-05
0.00030745
-0.000632198
-0.000228663
-0.00119478
0.000360101
0.000314895
0.00287564
-0.00320278
-0.000345821
-0.000521997
-0.00162413
0.00218081
0.00100782
-0.000725167
-0.000218526
0.000861542
-0.00105477
0.000151383
-0.00153349
0.001598
0.00236555
0.000272307
0.00127448
-0.00207107
0.000841259
-0.00247566
0.00198942
-0.000855195
0.00204444
-0.0022931
-0.00203426
-0.00225504
-1.10978e-06
0.000212437
-0.00152564
0.00263327
-0.00114117
-0.0015442
-0.000192039
0.00182103
-0.00190956
-0.00114891
0.0028192
-0.00164484
0.000612999
-0.00072132
-3.06608e-05
0.00249911
-0.00229276
-0.000165112
5.80763e-06
-0.000236307
0.000146309
0.000365753
-0.000516719
-2.5964e-05
6.12855e-05
0.000694181
1.58847e-06
-4.64986e-05
-0.000788269
-0.00257034
0.00102336
-0.00125505
0.00113132
8.61647e-05
-5.32857e-05
-0.00370604
0.000145771
0.000623115
-0.000452762
4.86296e-05
-0.00125817
0.00162664
-5.69866e-05
-0.000165778
-7.6036e-05
-0.00131856
5.30447e-05
-0.00110395
0.000352214
-0.00278505
-0.000334711
2.95925e-05
0.00027093
0.000172795
7.42941e-05
0.000153088
-0.00141104
3.38268e-06
0.000498694
-2.58358e-06
-3.23459e-06
-5.4667e-05
7.61638e-05
5.33476e-05
-0.000884476
0.000744389
-0.000613017
2.48227e-05
0.000492597
0.00152121
-0.00149359
5.20082e-05
8.31277e-05
0.00173417
-0.00284876
-0.000136043
-0.00196669
6.14505e-05
-3.65628e-05
-0.000570941
-0.000931081
0.00081082
9.85284e-06
0.00012699
-0.000447772
-1.0234e-05
-7.00804e-05
-0.000350163
6.9883e-05
-0.00135468
0.00123068
-2.62582e-05
-0.000376397
0.00249794
0.00173608
0.00256886
0.000231562
-2.2793e-05
-0.00020902
0.000232505
-0.00163482
3.52754e-05
-8.59481e-05
-0.000228583
-0.00383395
0.00202089
0.00185618
0.00198806
0.000629377
5.91644e-05
-0.000106693
0.000384754
-1.12717e-06
9.95559e-05
-9.93857e-05
0.00174175
-0.00328173
0.00215107
-0.00244488
-8.36228e-05
1.10868e-07
7.90394e-05
-0.000100284
5.31297e-05
-4.06599e-05
-0.000331935
-0.00229762
0.000470148
0.00182542
-5.79839e-06
6.26681e-06
0.00206916
-0.000263693
-0.00028345
-0.000349445
0.000582476
-1.18988e-05
-5.70639e-07
0.00141857
-0.00153756
-2.22229e-05
0.000274109
-0.000269581
-0.000305331
0.00336326
0.00263913
0.00105982
-0.000194725
0.000242639
-1.80083e-05
-0.000571816
0.000709286
0.000157551
-0.000200029
4.371e-06
-3.50695e-05
-0.00024762
2.66778e-05
-0.000588718
0.00204482
-0.000260632
-1.65208e-05
-0.00308143
0.0032944
1.26995e-05
4.99489e-05
-2.45647e-06
-0.0018746
0.000685369
0.0011477
-0.000163374
0.000467467
-0.00088135
-0.00166772
-5.30709e-05
-0.000599161
3.517e-06
-1.54532e-08
8.91917e-07
0.00149913
-0.00148331
-0.000495305
0.000386775
2.99136e-05
0.00214025
-0.0010537
0.00013198
-0.00236106
0.000805362
0.00162721
0.00465026
-0.00446525
-0.000434155
0.000128933
-0.000236856
0.000166439
6.51445e-05
0.00119946
0.000193167
-0.000689115
-0.000146053
-0.00193376
0.0017688
0.000150462
0.00113941
-1.5563e-05
-0.00109267
0.000420696
2.34237e-05
-9.53824e-05
-2.54533e-06
-0.000223471
0.00244976
-0.000497492
0.000192698
0.0001508
0.000870256
2.89722e-05
0.000774805
-0.00445869
-0.00109632
-0.000767219
-0.00198419
-0.00211399
0.00014244
0.00213257
-4.30292e-05
0.00125863
0.000853195
-0.00186427
-9.81661e-05
5.89738e-05
0.00073826
-0.000155706
-0.00318375
0.00206657
-0.00011055
-0.00260191
-0.000292631
0.00316152
-0.00198189
-0.000162292
0.000703829
-0.00115481
0.00170178
-0.00189599
-0.000192888
-1.08909e-05
-6.51121e-05
0.000171813
-5.03565e-05
-0.000190121
0.000422787
-0.000125819
0.000515392
-0.000535631
5.07489e-05
-0.00157018
0.001305
0.000286375
0.00298437
-0.000107199
-0.00281924
-1.73149e-05
-2.07647e-08
0.000370623
-1.32982e-05
-0.000357818
-0.000510642
0.00254486
0.00102043
-0.000964106
-0.000153366
-0.00012071
-0.00272183
0.00214059
0.00124841
-0.00121902
-0.00010421
1.84949e-05
-0.000722193
0.00204687
-0.000573495
5.34142e-05
0.00051861
-0.000356338
-0.00281562
3.51901e-05
0.000245047
0.000732429
-0.00096542
-0.00202371
0.00157116
-4.75075e-06
-0.000634982
0.000680182
1.98927e-05
0.00101226
-0.0011436
-0.000188526
1.62925e-05
0.000195688
-7.52926e-05
-0.000438483
9.7103e-06
0.00152935
0.00408053
-1.57956e-05
-0.000467998
0.001805
-0.00262306
0.000294176
0.0025127
-1.67562e-05
-0.000145099
2.66716e-05
1.02255e-05
0.000406356
-0.000388202
2.8643e-05
-1.68771e-06
0.000378748
-0.000283446
-0.00165773
3.17527e-05
4.82524e-05
0.00122117
-2.14126e-05
-0.00118807
-0.00102191
-9.94356e-05
0.00098405
-0.000685001
0.00135076
9.6596e-05
-0.000625283
0.000329526
-0.00133415
3.84005e-05
0.00130434
0.00229918
-0.00142036
0.000335248
-0.000227024
-0.00167289
0.000254829
0.00133027
0.000110493
-9.99885e-05
-3.86603e-05
1.04071e-06
-0.000480154
0.000947403
-0.00118485
0.000103699
3.57377e-05
0.00021782
1.19582e-05
-0.000963411
0.000875201
8.14879e-05
0.000970748
-0.000171188
-0.000709541
-0.000848406
0.000711378
0.000121018
0.000110493
0.000151492
0.00211409
-0.000227884
-0.00175779
-0.00267217
0.000311764
-7.37704e-05
-0.00138251
-0.000817348
7.02551e-06
0.000704294
-1.08163e-05
-0.000678016
0.00242042
-0.00011579
0.000113741
-0.00119239
-4.0134e-05
-0.000274314
-0.000207883
-0.00166725
0.00204203
-0.000601713
-0.000176896
-0.00351005
0.00027523
-0.000246348
-2.06281e-05
-0.00209776
-0.00285047
-0.000130164
-0.00197524
-0.000609622
0.000644263
2.24487e-05
4.27302e-07
-7.67578e-06
0.000375299
0.0019495
-0.00177005
-5.54961e-05
-0.000121628
0.00128415
-0.000955789
-0.000957282
0.00361729
-7.54192e-05
0.000298219
-0.000909606
0.000677011
-0.000336243
-0.00164394
0.00214803
-0.00247541
0.00109044
6.57144e-05
-0.000971114
0.000448251
-0.00312813
0.00363789
-0.00218551
0.00027163
0.0019552
-0.000449136
5.74971e-05
-0.000152932
-0.00326806
0.00319678
0.000149705
0.00255685
-0.000732761
-0.000763392
-0.000103608
-7.40683e-07
-0.00019219
0.000219837
0.00204871
-0.00101259
-0.000909977
-3.15308e-06
4.29415e-06
-4.34232e-08
0.000138248
-0.000653009
-9.98733e-05
0.000823672
0.000314308
-0.00338816
0.00325902
0.000813549
-0.000504192
-3.7263e-05
-2.42789e-06
0.0036296
0.000239962
0.00096935
-0.000960548
-8.0062e-05
0.00187649
-0.00146483
-0.000278213
1.53453e-05
-0.000303062
-0.00124869
-1.32235e-05
-9.79953e-06
9.85539e-06
-3.30771e-05
0.000450754
-0.000510271
-5.32324e-05
0.000512704
-3.11617e-05
0.00033957
-4.76501e-05
0.000889021
-0.000172608
-5.09122e-05
-0.000547099
0.00014255
-0.00351033
0.00345903
0.00106347
-0.00150319
0.00178424
0.000473988
0.000128301
-0.00016887
0.000103186
6.7194e-06
0.00249447
-0.00284019
0.000362013
-1.16767e-05
0.000553352
-6.32363e-05
-0.000287792
9.31355e-06
-7.55349e-05
-0.000697631
0.000590539
-0.000399801
0.00125255
0.000113389
1.4315e-05
8.66345e-06
0.00029029
-0.000964286
-0.000210759
-0.00224067
2.47794e-06
-3.05233e-05
4.52692e-05
5.27732e-05
0.00245113
-0.000240302
1.87014e-05
0.00021789
0.000852461
0.00096373
-0.00228973
0.00225159
0.000121015
-0.000266065
0.00147058
-0.00199735
0.000644724
-0.00104624
-0.00082554
-2.29909e-05
0.00100237
0.000237202
-0.00167888
0.000306358
1.09179e-05
8.52814e-05
-0.000521525
-0.00277552
-0.000359931
-0.00331541
0.000568563
-0.00143721
-3.95371e-05
0.00019196
-0.00329573
0.00308269
-0.00351554
0.00375175
-0.00353359
0.00179168
6.68882e-05
1.83323e-05
-6.34199e-05
-0.00135257
0.00111407
0.000432228
5.94786e-06
0.000434091
-0.000321337
-5.67382e-06
-0.000575829
0.0022196
-0.00205593
-0.000132971
0.00155303
-0.0017003
-8.58027e-06
8.95429e-05
0.00277775
-0.000281976
-0.00239903
-0.000553475
-0.00210433
-0.000117836
-0.00010514
-0.000148277
-0.000210569
-1.50009e-05
7.75913e-06
8.16442e-05
2.23541e-05
0.000514927
0.00225803
-8.10113e-05
-0.00165808
3.50515e-05
0.00173016
-0.000847015
-7.88414e-06
0.000876537
-0.00176606
0.00167867
0.000183957
8.43058e-05
-0.00148578
0.00148946
0.000182152
-0.00017782
-0.000222956
0.000241454
-0.000233082
9.86439e-05
0.00343493
-0.00349178
0.000595821
-7.42899e-05
-0.000578471
0.00194369
-0.000106123
-0.00179775
6.54284e-06
-0.00047652
0.000486724
9.75628e-05
-0.000299335
0.00152347
-0.00187367
-0.000144031
-0.000857256
-0.00117305
-0.00199449
-0.000181405
0.000193707
-0.00194761
-0.000119104
0.00206307
0.00282003
-0.00045247
0.00239873
-0.00254476
-0.000451332
-0.000719559
1.63614e-05
-0.00343104
0.00357076
-0.00249151
-0.000309501
0.00287037
0.000181771
-0.00231069
0.00204084
-0.000302484
-0.0022456
0.00263522
-0.000182133
4.40308e-05
0.000379139
-0.000415942
0.000341144
0.002467
-0.00261844
-0.00216851
0.00028522
-0.00041424
-0.000191395
-0.0014551
0.00121876
-0.00244763
0.00126856
4.71946e-05
0.00119487
-0.000181789
-0.00126786
0.000454091
-0.000111378
-0.000864628
-1.21019e-05
3.90718e-05
0.000363514
0.0010508
-0.00114143
-0.00065732
0.00312534
-0.00322438
3.2255e-06
-0.00111568
-0.000207631
-0.00096155
0.000548729
0.00162825
-0.000111553
-0.00141602
-0.00203926
3.32241e-05
0.00196754
-0.000126647
0.000153737
0.000670904
-0.000502655
0.00292367
-0.00156096
0.00150274
-8.85649e-05
0.000113233
-0.000179427
0.00159599
-0.0012871
0.00233067
-0.00215639
-0.000136836
-0.000659109
4.33991e-05
0.000675256
0.000134482
-0.000889055
0.000798325
-0.000203195
0.00199636
-0.00119854
-0.000128678
-1.07282e-05
-0.000490822
0.000192431
-0.000229739
0.000320392
-0.000265949
-3.09953e-05
-6.6436e-05
-0.00124341
0.000531827
-0.000331992
-1.97162e-05
-0.000809672
-0.00135561
0.00217972
-0.000650008
0.000577846
-6.70507e-05
0.000629807
-6.91028e-05
-0.000553215
0.000153105
0.00110168
0.00106966
-0.00105669
0.00253026
-9.16811e-05
0.000581489
0.000887485
-0.000774188
-2.61062e-05
0.00152288
-8.89405e-05
-0.00136321
-0.000725989
-7.78946e-05
0.000487274
-0.000482241
3.70824e-05
-0.00125536
0.000105453
-0.000504701
-3.35501e-05
-0.00168892
0.000301658
0.00155065
0.00155333
-0.00173517
0.000393218
-7.21653e-05
0.000941033
-0.000945576
0.00099273
-6.67998e-05
-0.00209576
0.000123409
-0.0013235
-0.00193419
6.93586e-05
-0.000604456
0.000529266
-0.000148998
-6.05612e-06
9.66318e-05
0.00160983
0.000104941
-0.000816199
8.27792e-05
-0.00016326
-0.00110325
0.000865294
-0.000933504
1.24625e-05
0.00181139
0.000949019
-3.845e-06
3.4655e-06
0.00136828
-2.31232e-05
-0.00138924
-0.00219389
0.000130223
0.00209194
0.000257954
-0.000256402
-0.0031367
-0.000438167
-2.36583e-06
0.000482409
-3.49668e-05
0.000908977
-0.000760837
0.000581788
0.000199341
7.25999e-05
0.000667934
0.000234707
0.000539806
-0.000516755
-0.00315419
-0.000226517
0.00120266
-0.000479304
5.05651e-05
-0.000267348
-0.00300594
-0.000617046
-0.00191949
-0.000179131
-0.000128276
0.000263124
-6.30503e-05
-0.000485078
0.00206805
-0.00181031
0.00214344
-0.000392603
0.000728249
0.00288356
-0.00257558
-0.000269775
-0.000855595
0.00055287
-6.71698e-05
0.00315244
-5.22624e-05
-0.000981916
-0.000120768
5.65861e-07
0.000148422
-0.000143198
-0.00170555
-0.000525297
0.00293718
-9.58964e-05
0.000136994
0.00106709
0.000145853
-0.00121776
0.00224575
0.000144529
-0.00103198
0.000968881
0.00109308
-9.72271e-05
-0.000742758
0.000302909
-0.00218547
-0.000118047
-0.000139017
-0.00202905
-0.000285913
-9.64225e-06
0.000451872
0.00176371
-0.00161989
-0.000122963
3.08963e-06
-9.69023e-06
0.000129652
0.000156012
-7.21804e-05
-7.83076e-06
0.000287117
-0.00404447
-0.000155872
0.00123967
2.17711e-05
0.00208412
1.38726e-05
0.000949521
-0.00015033
-0.000690121
-0.00247404
-0.000982067
-4.24051e-05
5.76121e-06
-0.000137706
-4.11344e-06
0.00114752
-0.00120326
4.43536e-05
-0.000118705
-0.000176433
-0.000152253
-5.43932e-05
4.23067e-07
4.58431e-05
-0.000339152
-0.00328605
0.0037368
0.00284294
-0.000117435
-0.00267589
-0.00178025
0.0015724
-0.00141115
8.61602e-05
0.00149862
3.06267e-05
0.000528809
-0.000541853
-0.00165918
-0.000179792
-0.00210733
1.9018e-05
0.000427331
0.00139409
-3.80889e-05
-0.00140432
-0.000836143
-0.00017176
0.0002287
-2.99902e-05
6.43712e-06
-0.00029468
0.000349225
-0.000473766
-0.000840668
9.98292e-05
0.000734524
0.000311922
0.000632934
6.3004e-05
-0.000108699
-0.000715991
-0.00221243