/*--------------------------------*- C++ -*----------------------------------*\
| =========                 |                                                 |
| \\      /  F ield         | OpenFOAM: The Open Source CFD Toolbox           |
|  \\    /   O peration     | Version:  v2012                                 |
|   \\  /    A nd           | Website:  www.openfoam.com                      |
|    \\/     M anipulation  |                                                 |
\*---------------------------------------------------------------------------*/
FoamFile
{
    version     2.0;
    format      ascii;
    class       volScalarField;
    location    "250";
    object      nut;
}
// * * * * * * * * * * * * * * * * * * * * * * * * * * * * * * * * * * * * * //

dimensions      [0 2 -1 0 0 0 0];


internalField   nonuniform List<scalar> 
10042
(
0.00983192
0.0173213
0.00460544
0.00670806
0.00674446
0.0118071
0.00237957
0.0216673
0.0066931
0.00160144
0.00760635
0.0178424
0.00165103
0.00678891
0.00677564
0.00678764
0.0150981
0.00587801
0.00313577
0.00381393
0.00156252
0.00980548
0.00670737
0.014502
0.00672147
0.00699715
0.001706
0.00668324
0.0121142
0.0169236
0.00696785
0.0043844
0.00668933
0.00668843
0.0201197
0.0180853
0.0068132
0.0066885
0.0068727
0.00682237
0.0155992
0.00668936
0.00372173
0.0152828
0.00671193
0.00672307
0.00667859
0.00676911
0.00139794
0.0334539
0.00519345
0.0067058
0.0142166
0.00343933
0.0159845
0.00147189
0.00164155
0.00737819
0.0067987
0.00667185
0.00141529
0.00302775
0.0012255
0.0241873
0.00716165
0.0068126
0.0047476
0.00992544
0.00667827
0.0100902
0.0155079
0.00681338
0.00671752
0.0067933
0.00680193
0.0100538
0.00691943
0.0066786
0.00679929
0.00317198
0.0115075
0.014783
0.00706658
0.00670548
0.00167491
0.00199583
0.00563394
0.00420466
0.00675104
0.00723088
0.00213281
0.00677619
0.00144218
0.00194847
0.00666147
0.0067554
0.0242369
0.00424937
0.0106603
0.00678629
0.00247453
0.00202031
0.00681193
0.00495673
0.00287271
0.00678903
0.0278277
0.00679012
0.00229431
0.00679637
0.00678535
0.00223676
0.00197156
0.0225763
0.00734195
0.00667996
0.00608016
0.00693431
0.00670266
0.00668125
0.00667104
0.0232047
0.0243744
0.00671413
0.00712283
0.00676461
0.00676939
0.0142497
0.000534448
0.00526128
0.00669484
0.00677201
0.00679313
0.00676976
0.00216626
0.0100644
0.00568409
0.0269554
0.00422371
0.0123353
0.00100851
0.00675206
0.0279481
0.00668353
0.00216595
0.00668902
0.00193332
0.00667786
0.00678743
0.0118842
0.00677913
0.00686647
0.00396125
0.00142172
0.00716413
0.00219705
0.0009359
0.00199434
0.00679085
0.00700724
0.00688828
0.00702326
0.00761391
0.00675755
0.0052024
0.0106787
0.0067166
0.00478443
0.0182408
0.00668617
0.00318672
0.0179755
0.0264144
0.00668671
0.00328084
0.0261369
0.00672286
0.00668911
0.0067594
0.00667809
0.00452822
0.00255372
0.00679181
0.00667783
0.0192206
0.00236908
0.00681216
0.0066811
0.0411144
0.00684226
0.0155266
0.00154419
0.00669739
0.00275949
0.0154575
0.00677418
0.02401
0.00488684
0.0351392
0.00670743
0.0044447
0.000957755
0.000229207
0.00675029
0.0118874
0.00678866
0.0176558
0.00151518
0.0067788
0.00677477
0.00456133
0.00672825
0.00378129
0.00326366
0.00683376
0.00874016
0.00674692
0.0109741
0.00674704
0.00400561
0.0424334
0.00423128
0.0444672
0.00897878
0.00670859
0.00072696
0.00679816
0.00663101
0.00152887
0.00681351
0.00668987
0.00677766
0.0025744
0.00701778
0.00672312
0.0201413
0.00668236
0.0257685
0.00236222
0.0141371
0.00651586
0.0186756
0.00667063
0.00714077
0.018796
0.00675424
0.0179327
0.00261242
0.0037246
0.00680973
0.00280364
0.00670118
0.0102219
0.0173469
0.00678866
0.00670591
0.006893
0.00678041
0.022335
0.00671568
0.00721323
0.00669233
0.00670453
0.00667901
0.00155503
0.0185855
0.00717392
0.0111749
0.00700851
0.00677874
0.00672186
0.0261045
0.00675596
0.0274057
0.0067853
0.00581848
0.00448908
0.00671388
0.00701483
0.0168558
0.00668299
0.018202
0.0190181
0.00513479
0.00688754
0.0309362
0.00396538
0.006683
0.00464567
0.00692599
0.00157349
0.00689482
0.00691348
0.0199068
0.00681804
0.00678385
0.0169819
0.00664403
0.00672251
0.00675636
0.00408838
0.00129267
0.00668265
0.00742974
0.00512461
0.00612461
0.00677862
0.00745148
0.0165715
0.0193514
0.00686396
0.00675562
0.00675022
0.00678385
0.00695104
0.00387012
0.00667902
0.0176445
0.0140287
0.00668037
0.00701419
0.0315841
0.00614807
0.0131841
0.0187444
0.00686305
0.00640964
0.00675745
0.00667217
0.00165216
0.00679135
0.00675037
0.00891297
0.00687713
0.0154747
0.0041243
0.0287876
0.0112599
0.00670395
0.00963242
0.000966297
0.00138442
0.00667084
0.00706775
0.00695255
0.00668981
0.00673375
0.0067572
0.0069054
0.0321757
0.00665426
0.00824937
0.00688592
0.00679036
0.00572534
0.00561473
0.00679761
0.0070563
0.0306759
0.00703134
0.00678149
0.00682143
0.00529036
0.0150775
0.00933136
0.00471901
0.00672004
0.00684189
0.00685977
0.00757078
0.00667389
0.00708627
0.00676497
0.00697987
0.00180921
0.00680219
0.00602045
0.00133615
0.0156291
0.00178691
0.00676279
0.00405389
0.00157717
0.00675074
0.00127545
0.00668123
0.00678911
0.00667902
0.00678981
0.00668239
0.00678639
0.00381933
0.00673866
0.00511512
0.00908485
0.0140828
0.00671159
0.021071
0.00683137
0.00417593
0.00670677
0.0422413
0.00691162
0.0116871
0.0177506
0.0067941
0.000980376
0.00687966
0.00509133
0.00679148
0.0201491
0.00198444
0.0192074
0.00679739
0.0242126
0.00688811
0.00184744
0.00924743
0.0066803
0.0068698
0.00685122
0.00934662
0.00669176
0.00667752
0.000970398
0.00687593
0.00170912
0.0197919
0.00671369
0.0014572
0.00688841
0.006679
0.00188385
0.0177216
0.00684893
0.00571378
0.00722865
0.0056816
0.00702913
0.00128528
0.00668426
0.00691265
0.00356669
0.0400707
0.0158767
0.025608
0.0237697
0.00514887
0.0232603
0.00667784
0.00644648
0.0188281
0.019113
0.00144853
0.0067071
0.00673912
0.00766352
0.0030982
0.00667847
0.00677263
0.00698983
0.00671144
0.00684077
0.00685754
0.00678498
0.00438294
0.00627014
0.00464486
0.00694711
0.00440832
0.00432659
0.00671295
0.034848
0.00867201
0.0119869
0.00684632
0.00293387
0.00702677
0.0131526
0.00672673
0.00547439
0.00680102
0.0101558
0.00678224
0.00282523
0.00676957
0.00682375
0.022372
0.00700455
0.00671553
0.00676127
0.0154815
0.00669165
0.00426112
0.00388181
0.000986885
0.00677045
0.00354122
0.0212592
0.00349687
0.00676434
0.00695995
0.0184472
0.016751
0.00124403
0.00901959
0.00685573
0.0104886
0.0017938
0.00187187
0.00305609
0.0194319
0.00676373
0.00670671
0.00680478
0.0210688
0.00671311
0.00543449
0.0067109
0.00675242
0.00671287
0.00189527
0.00943832
0.00681237
0.00581179
0.011727
0.00565322
0.00198166
0.00680981
0.0067861
0.0112097
0.00390209
0.00676834
0.00669508
0.00377419
0.00676116
0.00674235
0.00701812
0.00669144
0.0185657
0.00671516
0.00151548
0.00740765
0.0447198
0.00671348
0.00289603
0.00676522
0.00670844
0.0111469
0.00667101
0.0124308
0.00117108
0.00668945
0.00714324
0.0296575
0.00873832
0.00620387
0.00687787
0.00669476
0.00667754
0.00676731
0.00729757
0.00679688
0.0229184
0.0067449
0.00675854
0.00253346
0.00266428
0.00712266
0.00704019
0.00670312
0.00226835
0.0149628
0.00729161
0.0213085
0.00671884
0.00282601
0.00671346
0.00669227
0.00677418
0.00675803
0.00677515
0.00685375
0.037913
0.00679968
0.00213249
0.00670939
0.00712403
0.00667924
0.0021291
0.00977255
0.0066881
0.0067119
0.0169972
0.00351532
0.00667968
0.0172082
0.00672705
0.00858038
0.0066886
0.00685781
0.00670599
0.0279987
0.00667948
0.00676987
0.00681521
0.0181022
0.00702009
0.00676994
0.00686566
0.00508192
0.00671222
0.00672496
0.00674193
0.00672506
0.00276942
0.006725
0.0070433
0.00671835
0.0199668
0.0157532
0.0180684
0.00679494
0.00305941
0.0067411
0.00415793
0.00681543
0.0141707
0.00969756
0.0155154
0.00810357
0.0174672
0.00671819
0.00675684
0.023839
0.00494848
0.00666676
0.000862289
0.00678721
0.015617
0.00671807
0.00677031
0.00671744
0.00669003
0.00688017
0.0235272
0.00496608
0.00697338
0.00931912
0.00673723
0.00591156
0.0068205
0.00502927
0.00688274
0.00683185
0.0146333
0.0067664
0.00674844
0.00222819
0.00675839
0.00671718
0.00698029
0.00672734
0.00670225
0.0135026
0.00711454
0.0200869
0.00676195
0.00674423
0.00672367
0.0156879
0.0068011
0.00679846
0.00678916
0.00672245
0.017181
0.0354902
0.00754197
0.00679049
0.00688202
0.0201106
0.00291841
0.00692768
0.00175827
0.0260177
0.00533438
0.0164539
0.00671715
0.00686427
0.00677417
0.0240717
0.00671553
0.00299424
0.00678595
0.0066718
0.00736129
0.00680281
0.0375736
0.033393
0.00668328
0.00671188
0.00667676
0.0240394
0.00668989
0.0184459
0.006841
0.0402107
0.00673741
0.0067759
0.00668858
0.0067066
0.0067465
0.00670924
0.00672783
0.00680528
0.00494384
0.00306241
0.0187276
0.00671502
0.00444827
0.0281559
0.00684627
0.00140767
0.00670794
0.00680343
0.00695961
0.00691625
0.0229008
0.00678461
0.00679781
0.00671834
0.0193858
0.00676706
0.0241668
0.00133068
0.00674381
0.00192003
0.0233132
0.00679662
0.00672035
0.000849424
0.00708271
0.00522433
0.00581535
0.0067377
0.00530946
0.00675716
0.00677005
0.00680794
0.00241692
0.00693801
0.0107463
0.00191877
0.00667229
0.00678507
0.00680589
0.00356426
0.00708127
0.0172507
0.00678572
0.0067752
0.00905924
0.00673164
0.000961199
0.00170146
0.00689928
0.023116
0.00693244
0.00676124
0.00681565
0.00163872
0.00678877
0.00871904
0.00680236
0.00163888
0.00294482
0.0270129
0.0068129
0.00198318
0.00707776
0.00680388
0.00131027
0.00668386
0.00162458
0.00677959
0.00679266
0.00678009
0.00675129
0.00409116
0.00140357
0.00693194
0.00677361
0.0259937
0.0066863
0.00673744
0.00670832
0.00667796
0.00738011
0.00697391
0.00675931
0.00830518
0.0261399
0.00674524
0.00821039
0.00106921
0.00671947
0.00678598
0.00667728
0.00966215
0.0277273
0.0027654
0.0067268
0.00140017
0.00284316
0.0163968
0.00681625
0.0104975
0.00299486
0.0201884
0.00690784
0.0067155
0.00682708
0.0127709
0.00174511
0.00679731
0.0262194
0.00620747
0.0218692
0.0240779
0.00681792
0.00714216
0.00908898
0.00401137
0.0184112
0.0022027
0.0291374
0.00676855
0.0157802
0.00675726
0.00786382
0.00693866
0.00675358
0.00668097
0.00677833
0.00671268
0.0125312
0.00677874
0.00667369
0.00254019
0.00674365
0.0022372
0.00681625
0.010093
0.00690328
0.0055381
0.00680182
0.00679859
0.00673333
0.00301138
0.0067043
0.00762866
0.00634123
0.00443998
0.0067824
0.0209971
0.00670128
0.000941145
0.0223745
0.00683475
0.00674007
0.00667976
0.00680162
0.00682981
0.0108928
0.0024084
0.006728
0.0250004
0.00685669
0.00678097
0.0149362
0.00667832
0.00677135
0.0207783
0.00670387
0.0124718
0.00414713
0.00211619
0.00254656
0.00252903
0.00708106
0.00675181
0.01315
0.0166956
0.00671153
0.00180199
0.0386598
0.00936037
0.00223867
0.00704528
0.0067395
0.00720102
0.00678234
0.00688199
0.013643
0.00304142
0.00667777
0.00282763
0.0120693
0.0283157
0.00667798
0.0066769
0.00699652
0.00679418
0.0145586
0.0141933
0.00673911
0.00289328
0.00790845
0.00681207
0.00691208
0.0333984
0.00635333
0.0102101
0.00681254
0.00684605
0.00676768
0.0069333
0.000176896
0.00416622
0.00679167
0.0263177
0.0134538
0.0245068
0.00289479
0.00670733
0.0327163
0.00286226
0.0252277
0.00333608
0.00675611
0.00675582
0.0261402
0.00784707
0.00687059
0.00296141
0.00364861
0.00679059
0.00379395
0.00687224
0.00677779
0.00700647
0.00307282
0.00676118
0.0067144
0.0430804
0.00674586
0.00673589
0.00164398
0.00268892
0.0248132
0.00695081
0.0068019
0.025047
0.00137514
0.00691708
0.0013584
0.015182
0.00672144
0.00669685
0.00286227
0.00379404
0.00672015
0.00680346
0.00675547
0.00680048
0.00678066
0.0169249
0.00681799
0.0108008
0.0067632
0.00232958
0.0067626
0.00679272
0.00654914
0.0203716
0.00188409
0.00674186
0.00687594
0.008698
0.00441753
0.00689857
0.00534953
0.0157916
0.00672451
0.00751785
0.00366738
0.00678779
0.0038317
0.00670783
0.00413112
0.0282635
0.010771
0.00680156
0.00681818
0.00252848
0.00797176
0.00672699
0.00671569
0.00135898
0.00668325
0.00671482
0.0114478
0.00681503
0.0140192
0.00670239
0.00672001
0.00672261
0.00247828
0.00681482
0.00683584
0.00515326
0.00671758
0.00680447
0.0110054
0.00678309
0.00445408
0.00694009
0.0127957
0.0229314
0.00687546
0.0131753
0.00383255
0.00676879
0.0362154
0.00550128
0.0067684
0.00667868
0.00671021
0.00708406
0.0267601
0.00174502
0.0272937
0.0249145
0.0186723
0.00177603
0.0211545
0.0031745
0.010499
0.00668604
0.00284734
0.0067675
0.0068302
0.00681644
0.00220034
0.0276887
0.00674555
0.015794
0.00673046
0.00217971
0.00683985
0.00328576
0.00695154
0.00795274
0.015043
0.0067254
0.00668201
0.0245336
0.000815098
0.00748303
0.00742941
0.0152901
0.00683225
0.0206692
0.00970939
0.00670144
0.00671102
0.00673207
0.00260734
0.00689301
0.00568737
0.00685148
0.00684136
0.00682874
0.00680237
0.00682044
0.0105571
0.0274227
0.00670007
0.00341154
0.00385857
0.0024512
0.0017479
0.00209643
0.00670327
0.0029463
0.00195281
0.00674355
0.00122766
0.0135215
0.00678328
0.00671335
0.00702827
0.0253265
0.0251886
0.00673045
0.0158411
0.00681448
0.00678968
0.0180579
0.00676191
0.00679641
0.00673373
0.00681226
0.00685699
0.0222137
0.0070322
0.00678256
0.00671067
0.00679644
0.00671455
0.0265362
0.00668271
0.00287337
0.00612366
0.0108256
0.00669496
0.0217591
0.00679287
0.00122334
0.00688619
0.00403418
0.00668355
0.0217436
0.0326643
0.0267464
0.00674686
0.00886162
0.0210784
0.0154048
0.00680458
0.0193174
0.00678004
0.0179244
0.0242358
0.00698269
0.0186237
0.0188415
0.0128602
0.0359848
0.00147512
0.0220202
0.00671209
0.00702932
0.0190756
0.00107555
0.00671068
0.0111924
0.00521379
0.00671445
0.00676538
0.00864179
0.0010747
0.00253158
0.00846009
0.00182436
0.0147171
0.00432022
0.00672037
0.00681553
0.0136065
0.0169911
0.00174739
0.0240836
0.00681156
0.00678002
0.00150536
0.0147158
0.00139115
0.00671988
0.00631002
0.0148791
0.0068398
0.00400441
0.00676069
0.00257747
0.00731935
0.00675194
0.0100923
0.0114146
0.00671624
0.00476769
0.00670649
0.0215249
0.00694968
0.0104917
0.00690513
0.00672008
0.00679246
0.00668263
0.00137998
0.00678604
0.00748823
0.00707304
0.00691209
0.0114149
0.00682246
0.0022575
0.0209863
0.00681708
0.00451534
0.00687037
0.00674836
0.0265376
0.0261073
0.00679862
0.0189122
0.00709255
0.014511
0.00674761
0.00680877
0.00694686
0.00687994
0.00211614
0.0105565
0.00685312
0.00700908
0.00748695
0.00497556
0.00345464
0.0276396
0.00181062
0.0212117
0.00670887
0.00667913
0.00242857
0.00681947
0.00984746
0.017132
0.00171616
0.0158139
0.00681948
0.00681122
0.0107828
0.018438
0.00677042
0.0195964
0.00707413
0.00676002
0.000918801
0.00472462
0.00679924
0.00118399
0.00315534
0.00678859
0.00342218
0.00670584
0.00687309
0.0155119
0.00350191
0.018674
0.00674118
0.00233169
0.00672049
0.0067177
0.0213158
0.00675659
0.0231251
0.0125732
0.00627279
0.0126294
0.00471639
0.0079212
0.00667724
0.0219519
0.00062459
0.000166058
0.00367903
0.00700522
0.0067291
0.00222936
0.00353287
0.011459
0.00399233
0.00670845
0.00849705
0.00667637
0.0398865
0.00670477
0.013684
0.00679441
0.00670421
0.00669725
0.02291
0.0067034
0.00674212
0.00669042
0.00672116
0.00671603
0.00338222
0.0094852
0.00675904
0.00254312
0.00677347
0.00670426
0.00670033
0.0196835
0.0184122
0.00299571
0.00676328
0.00670221
0.00671768
0.00290082
0.00289512
0.00669282
0.0183023
0.0116875
0.00938031
0.00674995
0.00672452
0.00671124
0.00361424
0.00671337
0.00682073
0.00672121
0.00671764
0.00724515
0.00684902
0.00742
0.0244181
0.0204216
0.0068677
0.0067064
0.00679035
0.0404027
0.00681284
0.00181719
0.00701574
0.00671161
0.00675989
0.00671305
0.0200064
0.0067996
0.0115052
0.0184231
0.00222035
0.00673855
0.00282737
0.0197188
0.00326915
0.00138896
0.00692967
0.00476791
0.00671346
0.00272762
0.0024314
0.0177898
0.00673558
0.00675531
0.0125974
0.00301805
0.00288539
0.00705776
0.015317
0.00673197
0.00279342
0.0069802
0.00860415
0.00103754
0.00677484
0.00678835
0.00681698
0.00677422
0.00264954
0.0129071
0.00837228
0.00670967
0.0429704
0.00690006
0.011187
0.0170244
0.00672127
0.02485
0.00284599
0.0067165
0.00210394
0.00143993
0.00679926
0.015273
0.0067032
0.00952892
0.0071212
0.00269537
0.0103119
0.00122823
0.00676536
0.0029095
0.00682655
0.00671833
0.00669911
0.00673256
0.00302514
0.00563755
0.00138089
0.0151096
0.0178596
0.00136872
0.00724212
0.00675674
0.0183243
0.0067093
0.0144706
0.0304136
0.0162143
0.013198
0.0236227
0.00246428
0.00668674
0.00679867
0.00669429
0.0016548
0.0069192
0.0143834
0.00303106
0.0444374
0.00233352
0.00675256
0.00674488
0.00676119
0.00668541
0.0157674
0.0107037
0.0249625
0.00674431
0.00707564
0.0031561
0.00685256
0.00108281
0.00673014
0.0124164
0.0207854
0.00682691
0.00687376
0.0154775
0.00251197
0.00521091
0.0185675
0.0068389
0.0149847
0.00691839
0.042007
0.00670379
0.00571764
0.00686201
0.00664891
0.00730065
0.0181208
0.0257599
0.0397949
0.000872223
0.0041572
0.00682406
0.00685442
0.0250789
0.0211291
0.00086582
0.00271204
0.0360133
0.00809105
0.0280204
0.00215474
0.0236191
0.00669655
0.0014573
0.00728922
0.0068486
0.00673513
0.00707233
0.00671788
0.00670539
0.00671798
0.00678337
0.0303524
0.00523115
0.0217488
0.00107936
0.00285429
0.0233337
0.0191372
0.0067376
0.00680102
0.0156988
0.0082912
0.00282477
0.0203194
0.0118939
0.0208015
0.00671795
0.00163179
0.00328055
0.00114794
0.00146483
0.0278174
0.0223492
0.00154334
0.0067941
0.006848
0.00238788
0.00566992
0.00131638
0.0130777
0.00670464
0.00678063
0.00374154
0.0205058
0.00354185
0.00670811
0.00670429
0.00399341
0.0179867
0.0265936
0.00679651
0.0010894
0.0230683
0.00688876
0.00455401
0.00703416
0.00154832
0.00697476
0.00146863
0.00549098
0.00670781
0.00675185
0.00700431
0.00179088
0.000935767
0.00136143
0.00520482
0.00420206
0.00679315
0.0166258
0.00145033
0.00346595
0.00678753
0.0049123
0.00693574
0.0258022
0.00465562
0.00163721
0.00672411
0.00700563
0.00385667
0.00193041
0.0279732
0.00679424
0.0069284
0.0128371
0.0069705
0.0185854
0.00814272
0.00678022
0.00391448
0.0209504
0.00671886
0.0183993
0.00678589
0.0169672
0.022537
0.00641737
0.00397245
0.00670921
0.00670951
0.00673421
0.00298194
0.00668323
0.00679674
0.00670426
0.00671392
0.00338968
0.00686958
0.0068933
0.00684345
0.0199346
0.00675214
0.0252822
0.00562152
0.00674752
0.0059209
0.00670763
0.0275914
0.0239149
0.0067888
0.00644595
0.00183789
0.0130336
0.00708348
0.0311026
0.0018077
0.00687922
0.0165997
0.00672977
0.0427724
0.00677256
0.00896295
0.00673366
0.00215548
0.0253664
0.0252076
0.00679596
0.00352587
0.0067025
0.00359126
0.00289587
0.00675363
0.00672078
0.00173599
0.00696316
0.0232511
0.00815841
0.00549969
0.00137087
0.00673175
0.00284217
0.00464177
0.00671666
0.00562054
0.030331
0.00423412
0.00663714
0.00364861
0.00605226
0.00420567
0.000313781
0.0226794
0.00144821
0.00891372
0.014272
0.00394318
0.00333885
0.000912325
0.00671268
0.00341488
0.00727294
0.00418254
0.023347
0.00385512
0.0192108
0.00680928
0.00682499
0.000899555
0.00378038
0.00338048
0.00689032
0.00227797
0.0137475
0.00687276
0.00690006
0.00679696
0.032352
0.0108163
0.00302942
0.00679684
0.00669908
0.00703519
0.00679245
0.0054727
0.00670638
0.00683474
0.00675628
0.00718043
0.00342353
0.00679606
0.030324
0.00585508
0.00623307
0.0022142
0.00356028
0.00299297
0.00895222
0.00682705
0.0201919
0.0067169
0.00670048
0.00555864
0.00727986
0.00670311
0.0163671
0.00592215
0.00672867
0.00718783
0.0232013
0.00260634
0.0201727
0.0165093
0.00242687
0.00670637
0.00403826
0.0192371
0.00194189
0.0143628
0.00551298
0.00313826
0.00814919
0.00388737
0.00669789
0.0444147
0.010196
0.00670702
0.00244039
0.00682296
0.00480829
0.00363928
0.00634536
0.00676132
0.00671643
0.00668408
0.0224525
0.00679156
0.00924973
0.00211397
0.00678718
0.00670328
0.00673103
0.021398
0.00232463
0.00670298
0.00491486
0.00676389
0.00681965
0.0270245
0.00678066
0.00670994
0.0066981
0.00678286
0.00673342
0.00680449
0.00681453
0.00473915
0.00679917
0.000912902
0.00408869
0.01255
0.00155277
0.00673096
0.00245128
0.0066902
0.00681061
0.00146883
0.00670506
0.0113453
0.00670876
0.00116782
0.0289319
0.00669634
0.00274686
0.0176904
0.00676969
0.00679925
0.00678441
0.00284798
0.0067735
0.0154271
0.0187231
0.00698856
0.00213065
0.00127614
0.00110474
0.0068538
0.00654044
0.00679353
0.00501633
0.00228797
0.00244409
0.0160773
0.00682065
0.000913939
0.0134469
0.00205188
0.00676004
0.00141661
0.00425076
0.00171756
0.00670925
0.00690475
0.0229604
0.00229128
0.00665332
0.00541163
0.0070804
0.0220655
0.00669507
0.00782303
0.00676211
0.00241117
0.000805661
0.0215608
0.0449662
0.00241562
0.0026728
0.020352
0.00704611
0.00670456
0.00682009
0.00683
0.00684078
0.00285014
0.0067223
0.0184346
0.00274327
0.0068039
0.00672654
0.0067115
0.00670924
0.0024148
0.00674362
0.0107657
0.00681567
0.0182837
0.00687665
0.00676934
0.00669515
0.000910288
0.0068584
0.0320251
0.0171339
0.0167333
0.00268465
0.00534617
0.00671608
0.00670364
0.00673939
0.0179189
0.00681539
0.00682427
0.00699333
0.00675662
0.00537304
0.0425311
0.00222215
0.0189595
0.00686641
0.020176
0.00579366
0.00671064
0.00673658
0.00288592
0.0173787
0.00520374
0.0197217
0.00256895
0.00675872
0.00670873
0.00584264
0.00220821
0.00682246
0.00677228
0.00681412
0.00370916
0.0267011
0.00551115
0.00717948
0.00271508
0.00674147
0.0061543
0.0208997
0.00676636
0.00670349
0.006731
0.00543216
0.00670265
0.00296043
0.0218586
0.0425037
0.00671212
0.00674566
0.00670085
0.00678438
0.00685819
0.00197421
0.00459126
0.00495788
0.00476282
0.0132032
0.00101442
0.00698841
0.00681574
0.00677465
0.00670957
0.00671436
0.00671762
0.00678808
0.00924579
0.0168778
0.00678644
0.00669654
0.00680869
0.00679916
0.00573993
0.00200979
0.0238418
0.0144802
0.00423711
0.00110962
0.0067097
0.00676042
0.00671227
0.00679501
0.0137875
0.00675357
0.00305159
0.00244396
0.0142305
0.0274525
0.00249644
0.00810152
0.0200767
0.00671651
0.00222686
0.0181847
0.00898452
0.006768
0.0068634
0.00683183
0.00677381
0.00678094
0.0060185
0.00674156
0.00676042
0.0149518
0.00310204
0.0206819
0.00671611
0.00669668
0.00226781
0.00235784
0.00739701
0.0232674
0.00693413
0.016492
0.00138708
0.00670691
0.0112988
0.00671101
0.00326621
0.00679174
0.00671941
0.0394451
0.0112184
0.043093
0.00139024
0.0133375
0.00764505
0.014973
0.0067211
0.00680269
0.00215672
0.00671709
0.00680949
0.00368427
0.00676169
0.0169567
0.00677933
0.010359
0.00439763
0.00668571
0.0250012
0.00682611
0.00670967
0.00329385
0.0038195
0.00438541
0.00483292
0.00626401
0.00787089
0.00679814
0.00671531
0.00680617
0.00298402
0.00743536
0.00670285
0.0067915
0.00426503
0.0112945
0.0067108
0.00704724
0.0070673
0.00675545
0.00675028
0.00677398
0.0143691
0.016099
0.00707897
0.00442504
0.0067146
0.00251626
0.00769709
0.00679442
0.00647846
0.00947819
0.00676659
0.00258617
0.0264331
0.021175
0.00143699
0.0066867
0.00672429
0.0150478
0.00184216
0.0214709
0.00216257
0.00864864
0.00561963
0.0173472
0.0129258
0.0444859
0.0064908
0.0226698
0.0250934
0.0114123
0.00678914
0.0275258
0.0068477
0.0140031
0.00399524
0.00608687
0.00708541
0.0135599
0.0178455
0.00686508
0.00678973
0.00571641
0.015472
0.00755611
0.00670095
0.00677811
0.00674075
0.00274763
0.00682996
0.0034103
0.0222438
0.024132
0.00290651
0.00687266
0.000740716
0.00680935
0.00674593
0.00869325
0.00679028
0.00321648
0.00672297
0.0125622
0.00102521
0.0246431
0.00688038
0.00499054
0.00572441
0.00349036
0.0124149
0.0168977
0.00444426
0.0193174
0.00670712
0.00677572
0.00106582
0.00675784
0.00680245
0.00675441
0.00680935
0.00293624
0.00712151
0.00670537
0.00821419
0.00679835
0.00582077
0.0067874
0.0117532
0.0161649
0.00721847
0.0246148
0.0259078
0.00683354
0.00427441
0.00697905
0.00682541
0.00677977
0.00696022
0.00302746
0.0156818
0.00670626
0.0068424
0.0181181
0.00671069
0.00671087
0.00679575
0.00676013
0.0113517
0.00679047
0.00147516
0.00680536
0.0263996
0.0067138
0.000519377
0.011967
0.00830323
0.0270668
0.00670116
0.00707926
0.00680289
0.00675374
0.0140845
0.00448385
0.00499271
0.0154428
0.00671084
0.00680027
0.00330352
0.00676307
0.0146364
0.00671517
0.0016993
0.0206552
0.0201248
0.00459508
0.00671486
0.00680118
0.0269583
0.00696939
0.00428302
0.0119666
0.00983967
0.0188448
0.00700369
0.006768
0.00671344
0.00679862
0.00824743
0.00685021
0.00555845
0.00672918
0.00679743
0.0094757
0.00677107
0.0075248
0.00456599
0.00679282
0.0070829
0.0146549
0.00669887
0.00694196
0.0188475
0.00677368
0.00678132
0.00180956
0.0419143
0.00279506
0.00729629
0.0067083
0.0180665
0.0160138
0.00170198
0.00678382
0.0066991
0.00468674
0.00678829
0.00831381
0.0101757
0.0187254
0.0226592
0.0067338
0.00353234
0.00671783
0.00216874
0.00676838
0.0213088
0.0163657
0.00676707
0.011244
0.00671774
0.0313733
0.00184153
0.00670238
0.00814048
0.00672743
0.00670573
0.00672285
0.00667919
0.00724844
0.0258841
0.00678969
0.00669531
0.000744759
0.00668598
0.00679377
0.00506338
0.00670864
0.00675161
0.00917408
0.00389151
0.00670202
0.00401718
0.00483428
0.00675623
0.0237687
0.0139669
0.006762
0.00672256
0.00683338
0.00445614
0.00678286
0.00681115
0.00520981
0.00157124
0.00670739
0.00569755
0.0170469
0.00679589
0.00687759
0.00671394
0.00674857
0.00670758
0.00670785
0.00671234
0.00674639
0.0180192
0.0189313
0.00669674
0.00691845
0.00691319
0.00622657
0.00540501
0.00141647
0.00674369
0.00636488
0.00521956
0.00676115
0.0270917
0.00722129
0.00671117
0.00679344
0.00596955
0.00572006
0.0230003
0.00229283
0.00670861
0.00848572
0.0206388
0.0182488
0.00568788
0.00380791
0.00548384
0.00670849
0.0426349
0.00678359
0.00674061
0.00303478
0.00672223
0.00671969
0.0097247
0.0067
0.00374703
0.011967
0.00610042
0.00676827
0.00210472
0.00670956
0.00508049
0.00669592
0.00639891
0.00359391
0.0198013
0.00671107
0.00671516
0.00546723
0.0126549
0.0130519
0.0142998
0.0139354
0.00724184
0.00674201
0.0054256
0.0279577
0.00671241
0.00676292
0.00707713
0.00670714
0.028505
0.00252493
0.00672266
0.0105925
0.00671354
0.0067241
0.00669368
0.00674768
0.00671067
0.00216052
0.00672493
0.00976088
0.00675421
0.00655054
0.00680113
0.00679732
0.00670817
0.00673804
0.0080193
0.00670883
0.00448976
0.0163244
0.00449408
0.00536451
0.00483539
0.00508173
0.00677087
0.00668502
0.00670917
0.0066864
0.026033
0.0104043
0.00690328
0.00446674
0.00804518
0.00680959
0.0159396
0.00684014
0.0067066
0.0067941
0.00446286
0.0024224
0.0184077
0.00171204
0.00706666
0.00457762
0.00427708
0.00679093
0.00671046
0.00670152
0.00165266
0.00152997
0.0228429
0.00252075
0.00148143
0.00670388
0.0039176
0.00670879
0.00448983
0.00680299
0.00587074
0.0051368
0.00817635
0.00398466
0.00585268
0.00705765
0.0052328
0.00333759
0.0238557
0.00670628
0.00670765
0.00675604
0.00674919
0.0119135
0.00671816
0.00679773
0.00349838
0.00670522
0.0222202
0.00910693
0.00351156
0.00679757
0.00679223
0.0106353
0.00486575
0.00670924
0.00670962
0.00516183
0.0067099
0.00674513
0.0079099
0.00700119
0.0122526
0.0170142
0.0171337
0.00144989
0.00673351
0.00679735
0.0018362
0.00670676
0.00672536
0.0144948
0.0116404
0.00683527
0.00675199
0.00670329
0.0051007
0.0104953
0.00674584
0.00486708
0.00678958
0.00669977
0.00672156
0.00529302
0.00696702
0.00671886
0.00676273
0.00601329
0.00669869
0.00326685
0.0164837
0.00736435
0.00674643
0.00676257
0.00678897
0.00673918
0.017734
0.00671501
0.0179562
0.00974332
0.00670621
0.00670799
0.0248339
0.00669837
0.00673799
0.00670773
0.00740678
0.00706663
0.00745279
0.00671794
0.00669845
0.00675685
0.0168904
0.00673967
0.00680292
0.00135015
0.0143813
0.00661995
0.00668445
0.0232408
0.0066765
0.0114839
0.00670496
0.00672886
0.00671036
0.00676505
0.00676778
0.00762925
0.000718799
0.0178456
0.00120522
0.00674249
0.0217341
0.00675569
0.0125487
0.00891267
0.00686645
0.0133572
0.00320889
0.00548792
0.00671095
0.0153059
0.00677214
0.0067192
0.00684392
0.00148381
0.0153283
0.00305624
0.0106445
0.0134628
0.00400598
0.0067114
0.00330379
0.00133097
0.00734227
0.00731172
0.00694062
0.00677235
0.00242895
0.00929269
0.00671737
0.0254773
0.00571891
0.00157921
0.00670651
0.00670899
0.00190695
0.00202973
0.0327164
0.0163276
0.00259622
0.00670541
0.00677343
0.00623216
0.0129322
0.0125502
0.00670122
0.00689391
0.00670001
0.00670439
0.00670539
0.0133259
0.0025985
0.00178594
0.00349319
0.00877809
0.00675927
0.00671411
0.00677799
0.00682873
0.00672874
0.00337369
0.00671996
0.00680609
0.00676657
0.00670248
0.00276334
0.00893369
0.00683315
0.00672463
0.0067196
0.0119279
0.00667388
0.00320372
0.00677014
0.0222786
0.00682967
0.00674781
0.00210219
0.00835021
0.00671473
0.00876645
0.00678014
0.00676581
0.00675278
0.0137213
0.00670297
0.00669975
0.00688868
0.00679868
0.00675207
0.00673226
0.00115271
0.0198473
0.0114938
0.00680452
0.00674552
0.0121833
0.00672161
0.00672405
0.00670186
0.0102621
0.00671014
0.0130327
0.00668517
0.00672252
0.00231791
0.00472819
0.00672334
0.00464808
0.0193411
0.00994459
0.00671329
0.00667706
0.00670076
0.00921029
0.0069117
0.0058149
0.00854669
0.00674602
0.00669442
0.00680937
0.00677523
0.0179806
0.00672259
0.00674165
0.0067175
0.00403779
0.0233148
0.00675631
0.0067155
0.00673247
0.00646813
0.000944586
0.0139326
0.00693738
0.010837
0.00675883
0.00673004
0.0154406
0.0189685
0.00670953
0.00676171
0.0144412
0.00229101
0.00670252
0.0067387
0.00670059
0.00675452
0.00672401
0.0117573
0.00685006
0.00708048
0.0232751
0.00738507
0.00678116
0.006967
0.00683407
0.00660023
0.00703992
0.00643279
0.00671887
0.00478383
0.00671078
0.00694999
0.0230449
0.00688391
0.00125447
0.0167358
0.00677342
0.00687663
0.0129792
0.0206034
0.00652948
0.00671396
0.00670107
0.0145334
0.00671687
0.00669976
0.00702579
0.00307593
0.00670344
0.0201093
0.0204673
0.00671251
0.00693536
0.00686154
0.00674565
0.00674966
0.00670276
0.0067419
0.0241971
0.00609005
0.00690542
0.00669901
0.00671502
0.00671923
0.00672464
0.00689163
0.00602627
0.00676916
0.0124739
0.00676779
0.00671262
0.00233271
0.00670094
0.00668765
0.00687066
0.00884815
0.00671268
0.00847041
0.00701996
0.0104066
0.0068
0.0113323
0.00800689
0.0250526
0.00681183
0.00673529
0.00857962
0.00675462
0.0159402
0.00670862
0.00701727
0.00689751
0.00674136
0.0159075
0.0100687
0.0162391
0.0180887
0.00705422
0.00670006
0.00670115
0.0154162
0.0092711
0.00670455
0.00672368
0.00673083
0.00674848
0.00669969
0.0148943
0.00670978
0.0066993
0.00678365
0.00684423
0.00549269
0.00185694
0.00700111
0.00669931
0.00669416
0.0254259
0.00702312
0.00668775
0.00958558
0.00624485
0.00701631
0.0070395
0.00670423
0.00672757
0.00678489
0.0142001
0.00803635
0.003931
0.00671934
0.00671098
0.0136541
0.0218838
0.00698204
0.00677714
0.00698334
0.00673773
0.00622359
0.00702188
0.0069562
0.0066942
0.00676344
0.00669654
0.00675081
0.00674475
0.0068944
0.00670835
0.0011824
0.0138591
0.00669581