/*--------------------------------*- C++ -*----------------------------------*\
| =========                 |                                                 |
| \\      /  F ield         | OpenFOAM: The Open Source CFD Toolbox           |
|  \\    /   O peration     | Version:  v2012                                 |
|   \\  /    A nd           | Website:  www.openfoam.com                      |
|    \\/     M anipulation  |                                                 |
\*---------------------------------------------------------------------------*/
FoamFile
{
    version     2.0;
    format      ascii;
    class       volScalarField;
    location    "250";
    object      omega;
}
// * * * * * * * * * * * * * * * * * * * * * * * * * * * * * * * * * * * * * //

dimensions      [0 0 -1 0 0 0 0];


internalField   nonuniform List<scalar> 
10042
(
0.0365245
0.923853
0.0576113
0.0211153
0.0210208
0.447446
0.169899
0.349021
0.0200878
0.0468985
0.26573
0.917834
0.0336378
0.0207131
0.0215299
0.020706
0.530727
0.221467
0.0233376
0.0240578
0.0335082
0.030491
0.0211004
0.364736
0.0209594
0.0214359
0.0438145
0.0200209
0.475958
0.420212
0.0222339
0.0383436
0.0200651
0.0200604
0.33972
0.339896
0.0219233
0.0202416
0.0215973
0.0204873
0.391485
0.0200826
0.562961
0.749455
0.0210417
0.0209539
0.0198425
0.0215078
0.0571927
2.52592
0.952097
0.0209673
0.510321
0.0231217
0.932772
0.880776
0.0322263
0.0265325
0.021508
0.0195492
0.0570918
0.315407
0.149574
0.353373
0.0378314
0.0211803
0.0234815
0.0795834
0.0198156
0.0684669
2.29633
0.0219222
0.0203726
0.0214885
0.0211441
2.18765
0.037117
0.0198382
0.0398364
0.0233799
0.683479
0.37425
0.0234134
0.020872
0.0326551
0.0889607
0.0231334
0.048631
0.0208252
0.0311161
0.0274015
0.0215439
0.134016
0.091258
0.0249221
0.0212198
2.54665
0.0236061
0.308959
0.0214786
0.0270085
0.0657628
0.021504
0.0332364
0.02429
0.0213978
1.77921
0.0211082
0.153205
0.021424
0.0214471
0.127301
0.0622859
0.345834
0.0352551
0.0198036
0.0308908
0.0220938
0.0325806
0.0197777
0.0195487
0.93779
0.934885
0.0210493
0.0330597
0.0208693
0.0208892
0.885335
0.206259
0.0285798
0.020204
0.0210128
0.0210051
0.0210739
0.123089
1.805
0.0234103
1.79598
0.0222876
0.360774
0.0712703
0.0203986
1.78774
0.0200263
0.0253686
0.0202432
0.031305
0.0198013
0.0217433
0.486104
0.0210595
0.0209602
0.022576
0.0378951
0.0290745
0.0256336
0.164244
0.727151
0.0210199
0.0217804
0.0220018
0.0206635
1.45104
0.0208441
0.0220028
0.405806
0.0203619
0.0346543
0.337434
0.0200325
0.084455
0.439781
0.955338
0.0200452
0.0230933
0.945314
0.0210029
0.0202285
0.0209845
0.0198167
0.0222071
0.0243641
0.0214976
0.0197697
0.257714
0.0274253
0.0219788
0.0195909
2.48143
0.021192
0.904329
0.0321543
0.0202185
0.0241489
0.924141
0.02154
3.34093
0.205055
2.40469
0.020887
1.48246
0.0851983
0.0879427
0.0202128
0.346869
0.0209591
0.398981
0.0375436
0.0214257
0.0210944
0.0366459
0.0201202
0.289125
0.038097
0.0219986
0.0588576
0.0201589
0.53964
0.0212867
1.19377
2.97869
0.0690183
2.80885
0.0568619
0.02111
0.0858106
0.0215182
0.0231225
0.0371447
0.0215354
0.0202294
0.02092
0.0275433
0.022668
0.0209968
0.344808
0.022744
2.4615
0.0246565
0.359571
0.18105
0.464098
0.0195383
0.0211587
1.1913
0.0210896
0.448079
0.0242972
0.0226534
0.0214051
0.0239542
0.0202214
0.5003
1.01488
0.0216724
0.0225679
0.0214996
0.0216932
2.78793
0.0210844
0.0332216
0.0202954
0.0209544
0.019856
0.0346526
1.09458
0.0321651
0.513552
0.0228457
0.0209297
0.0213362
2.47388
0.0206615
2.69238
0.0216271
0.0306629
0.0220339
0.021001
0.0229213
0.980628
0.0200193
0.474818
3.38759
0.0219702
0.0232526
2.37856
0.0234393
0.0198897
0.0529465
0.0212576
0.0309898
0.026211
0.0235341
0.499506
0.0378589
0.0206717
0.968202
0.0230504
0.0213467
0.0202075
0.0224757
0.0245124
0.0195904
0.238987
0.0275721
0.323676
0.0207201
0.0212846
0.957641
0.494962
0.0224784
0.0210261
0.0212156
0.0206731
0.0261012
0.0543789
0.0198606
0.247718
0.35906
0.0197902
0.0220032
2.64369
0.0302758
0.314866
0.254308
0.0223095
0.0283064
0.0209627
0.0228115
0.0299383
0.0209487
0.0213067
0.0363893
0.0211781
0.377671
0.0577223
1.82667
0.28958
0.020235
0.357502
0.0705113
0.0341199
0.019542
0.0247656
0.0224024
0.0202143
0.0206196
0.0211676
0.0229822
2.37269
0.0217039
0.0279478
0.0228688
0.0202654
0.592328
0.0328344
0.0215393
0.0233417
3.03849
0.022598
0.0213742
0.0220434
0.0219802
0.378728
0.343581
0.0220771
0.0209761
0.0222593
0.0223318
0.669572
0.0195628
0.0236402
0.0206865
0.0212349
0.0780574
0.0208163
0.0327929
0.0348661
1.2883
0.075735
0.0213172
0.0626011
0.0366035
0.020944
0.045564
0.0197905
0.0213219
0.019772
0.0210434
0.0198901
0.021613
2.19084
0.0216889
0.043291
0.3459
0.903447
0.0211723
0.342523
0.021979
0.0387598
0.0209807
2.51464
0.0203337
0.806919
3.05746
0.0202852
0.0650653
0.0205882
0.115147
0.0215543
0.574554
0.0266897
0.47973
0.0216512
0.353324
0.0216145
0.0273597
0.726234
0.0199014
0.0215042
0.0209388
0.368984
0.0202155
0.0197546
0.0772267
0.022338
0.0362462
0.570156
0.0210689
0.0342057
0.022303
0.0198368
0.0267453
0.340057
0.0204956
0.0219017
1.3675
0.0320333
0.0219437
1.43323
0.0200474
0.0256501
0.0283126
2.5961
2.43566
0.28715
0.354492
0.716774
0.350899
0.0197393
0.0274609
0.927708
0.925472
0.0437247
0.0210995
0.0206397
0.033864
2.07044
0.0197714
0.0197729
0.0224905
0.0211437
0.0206392
0.0207144
0.0210127
0.0235707
0.0524352
0.0219703
0.0255952
0.0617157
0.494241
0.0200567
2.31206
1.43297
0.363884
0.0210307
0.0252081
0.0217899
0.833219
0.0213345
0.146205
0.021637
0.273547
0.0205295
0.0239798
0.0197629
0.0264261
0.59273
0.0216826
0.0207675
0.0210545
0.771662
0.0202844
0.0542209
0.0423044
0.0645687
0.0201991
0.0631454
0.509097
0.387528
0.0213833
0.0224181
0.473143
0.804364
0.0403257
0.402501
0.0213356
0.19879
0.0298813
0.0276753
0.023453
0.417782
0.0201806
0.0210836
0.0214744
0.508434
0.0210626
0.0936268
0.0211449
0.02137
0.0200896
0.027037
0.420875
0.0215125
0.0218762
0.48184
0.164292
0.0337578
0.0214964
0.0210693
0.216875
0.409006
0.0213368
0.0199446
0.0370021
0.0212326
0.0212651
0.460953
0.0202023
1.14164
0.0209624
0.0400102
0.0219723
2.65725
0.021074
0.0257905
0.02139
0.0203383
0.458924
0.0195354
0.507221
0.040329
0.0201005
0.0234923
1.89253
0.336667
0.027707
0.021141
0.0199395
0.0197898
0.0200754
0.0241099
0.0214425
0.8897
0.0212181
0.0198821
0.361114
0.0243312
0.0246756
0.0223151
0.0207627
0.297213
0.376521
0.0217513
0.43225
0.0213394
0.0264799
0.0200157
0.0201012
0.0210711
0.0210257
0.0213711
0.0212097
2.42782
0.0215908
0.065767
0.0209701
0.0212619
0.0198712
0.0385023
0.411835
0.0201134
0.0209918
0.245232
0.0742336
0.0198907
1.26411
0.0209948
0.030223
0.0202562
0.0219785
0.0203264
3.1031
0.0198785
0.0207992
0.0208631
1.24587
0.0216179
0.0210567
0.0212113
0.249481
0.0211672
0.0210529
0.0203449
0.0210619
0.0237309
0.0210149
0.0210984
0.0200255
2.98441
0.753108
0.584748
0.0215399
0.0236799
0.0212447
0.479912
0.0219656
0.360483
0.491234
0.508091
0.0275551
0.433668
0.0213412
0.0213177
0.510979
0.171075
0.0263973
0.0683317
0.0215094
0.390692
0.0207847
0.021385
0.0200611
0.0202758
0.0219793
0.511269
0.0219522
0.0213697
2.3857
0.0211767
0.399427
0.0202245
0.0219177
0.0244703
0.0212016
0.366808
0.0209489
0.0210022
0.0637274
0.021382
0.0197216
0.0223438
0.0208165
0.0207643
0.537953
0.680178
0.81935
0.0214942
0.0208097
0.0208225
0.390932
0.022038
0.0211185
0.0203292
0.0206135
0.424527
2.45174
0.0265312
0.0215828
0.0232344
3.25668
0.0262688
0.0239115
0.0349117
0.295266
0.498058
0.407935
0.0207728
0.0211594
0.0209731
0.351183
0.0207613
0.0242773
0.0210053
0.0195419
0.023381
0.0212435
2.93318
3.25422
0.0198719
0.0210277
0.0197395
0.279841
0.0202634
0.568479
0.0219665
2.48918
0.0208098
0.0205996
0.0201181
0.0210711
0.0212917
0.0196156
0.0213447
0.0216601
0.0482909
0.0236625
0.575036
0.021355
0.0775157
0.29852
0.0223013
0.489329
0.0209343
0.020851
0.0204381
0.0213207
0.446801
0.021003
0.0214869
0.0200971
1.06401
0.0205636
0.352945
0.0368041
0.0208223
0.0696428
0.348624
0.020168
0.0203861
0.0660901
0.02365
0.282162
0.0342853
0.0398516
0.0371246
0.0214767
0.0214026
0.0211744
0.0266631
0.0207419
0.221797
0.115645
0.019539
0.0201271
0.0218491
0.0282125
0.023677
0.555734
0.02158
0.0213545
0.459109
0.0208119
0.0622909
0.0287289
0.0233628
0.351458
0.0209969
0.0208051
0.0213381
0.0341077
0.0207549
0.704905
0.0216235
0.0335216
0.0245023
0.939846
0.0212428
0.0266181
0.02118
0.0217028
0.035333
0.0200414
0.0313245
0.0208113
0.0216335
0.0206467
0.0212702
0.0224196
0.0415443
0.0220108
0.0214959
0.287956
0.0200534
0.0208224
0.0209845
0.0197543
0.0273951
0.0208813
0.0218788
0.0228494
0.287157
0.0212789
0.0281079
0.111186
0.0205984
0.0208932
0.0197375
0.41518
0.305477
0.0239921
0.0208263
0.0432279
0.232692
2.24662
0.0214968
0.447754
0.249443
0.588813
0.0209743
0.0196431
0.0202261
0.467277
0.125373
0.0216065
2.28356
0.0634436
0.348468
0.45454
0.0209071
0.0313183
0.397717
0.0400762
1.16813
0.0266561
2.35643
0.0217879
0.393155
0.0213683
0.0225328
0.0221383
0.027318
0.0196097
0.0214109
0.021014
1.21981
0.0209506
0.0195486
0.3273
0.021328
0.0264395
0.0216237
0.187297
0.0207073
0.0219599
0.0213237
0.0210064
0.0211747
0.0249403
0.020772
1.33119
0.05541
0.0468559
0.0209703
0.846244
0.0207301
0.0616217
0.272386
0.0219021
0.0211901
0.0198036
0.0209942
0.0219873
0.531594
0.0378473
0.0208287
0.956164
0.0207743
0.0214253
0.368887
0.0197725
0.0215247
0.963327
0.0208568
0.736818
0.0222959
0.0514149
0.0265389
0.0350996
0.0241829
0.0212275
3.53809
3.5003
0.0209785
0.0293926
2.88742
1.79006
0.114836
0.0219143
0.0204639
0.0215867
0.0213901
0.0206816
0.388073
0.023666
0.0197861
0.0323123
0.369951
0.30316
0.0198042
0.0197402
0.0215411
0.0215342
0.515548
0.535026
0.0201618
0.0246358
0.142051
0.0212026
0.0224242
2.12976
0.0223163
0.351982
0.0203808
0.021186
0.0214933
0.0207656
0.118891
0.0371282
0.0211207
0.422866
0.746024
0.909656
0.023641
0.0221781
2.19364
0.0351833
0.463761
0.0297519
0.0213049
0.0209427
0.92082
0.228757
0.0215115
0.0243392
0.0386735
0.0208515
0.040108
0.0215285
0.0208611
0.0217824
0.0334911
0.0207896
0.0210136
2.79874
0.0206395
0.0204501
0.036039
0.0251954
0.410511
0.0221512
0.0214708
0.898957
0.0426277
0.0224283
0.0332828
0.397741
0.020919
0.0200774
0.0250993
0.283664
0.0207971
0.0212291
0.0209287
0.0200259
0.0206402
0.963718
0.0212106
0.518347
0.0213695
0.0308446
0.0200893
0.0216088
0.0295851
0.487015
0.130485
0.0212035
0.0220705
0.224124
0.0499809
0.0215721
0.0219122
0.401945
0.0209325
0.0224126
0.035332
0.020167
0.0225725
0.0209849
0.0345348
1.8338
0.518411
0.0202362
0.0217778
0.0256133
0.0243394
0.0206086
0.020401
0.0408381
0.0196237
0.02057
0.37031
0.0212233
1.27151
0.0201781
0.0204188
0.0200514
0.0287699
0.0213575
0.0204325
0.824501
0.0205841
0.0213649
1.14275
0.0209066
0.0323645
0.0224689
0.765492
0.396446
0.0222551
0.386801
0.0241932
0.0213504
3.09275
0.0218512
0.0208281
0.0198318
0.0209428
0.0236603
0.919724
0.0331324
0.34988
0.462341
0.300256
0.0526228
0.384193
0.0233826
0.355029
0.0200214
0.0269142
0.021478
0.0214543
0.0216476
1.49651
0.349619
0.0211966
0.564028
0.0204257
0.106117
0.0211084
0.0231361
0.0216591
0.0238974
0.555852
0.0211234
0.0199051
2.4384
0.0919285
0.0231688
0.0221941
0.550987
0.0213248
0.366539
0.400376
0.0207499
0.0205442
0.0208247
0.024208
0.0206723
0.021929
0.0219657
0.0204253
0.0213524
0.0214234
0.0203455
0.357932
0.373142
0.0198799
0.101514
0.0225546
0.0391141
0.0386075
0.127955
0.0207382
0.045083
0.0423045
0.0201082
0.0435223
0.52419
0.0215702
0.0205572
0.0217922
0.360724
0.457219
0.0201456
0.447236
0.0213433
0.021459
2.4218
0.0206175
0.0202407
0.0204355
0.0202992
0.0206405
0.271423
0.0238015
0.0204764
0.0213108
0.0204981
0.0210618
0.346273
0.0198723
0.0269006
0.556795
0.443461
0.0205591
0.495023
0.0203116
0.188457
0.0216349
0.0400305
0.0200157
0.589074
2.26254
1.92952
0.0213417
0.0281187
0.304119
0.382978
0.0213344
0.301251
0.0208319
0.405756
0.352268
0.0242927
2.88806
0.322222
0.399168
2.3616
0.118046
0.340023
0.0205228
0.0219185
0.300073
0.0732122
0.0212959
0.332621
0.0218968
0.0207492
0.0202481
0.0248433
0.0733052
0.0282657
0.524226
0.0280994
0.39233
0.0220668
0.0209701
0.0205788
0.404721
0.335334
0.0277144
0.327246
0.0215429
0.0217181
0.0315454
0.397748
0.0399535
0.0207327
0.623871
0.869761
0.0216865
0.0384979
0.0201044
0.0322711
0.0290254
0.0205877
0.336592
0.241677
0.0212415
0.0220155
0.0208991
0.433011
0.0222527
2.29091
0.265181
0.0209068
0.0205287
0.0199823
0.0331169
0.0203336
0.0228324
0.0223767
0.0226459
0.376215
0.0217327
0.0269506
0.334783
0.0217296
0.0302944
0.0219696
0.0213546
2.05564
0.337101
0.0215925
2.92565
0.0208927
0.330644
0.0206568
0.0203207
0.0254083
0.02247
0.0338102
0.359268
0.0214628
0.0221667
0.126065
0.0286849
0.023104
0.348027
0.148393
0.30549
0.0209074
0.0198484
0.161251
0.0203821
0.985192
0.29105
0.0560547
0.305587
0.0216097
0.0202726
1.93783
0.29853
0.0208166
2.41045
0.0235038
0.0210114
0.071098
0.022032
0.0213402
0.0424358
0.0233721
0.0202498
0.0229141
0.0209789
0.0223734
0.390092
0.0297244
0.410323
0.021253
0.0263602
0.0208305
0.0212501
0.305062
0.0214469
0.393454
0.314985
0.0218742
0.376548
0.0318162
0.309827
0.0197547
0.385615
0.0932546
0.0662169
0.0228908
0.021639
0.0206232
0.233313
0.0230225
0.369371
0.0333735
0.0202395
0.310549
0.0197169
2.50819
0.0209757
0.706962
0.0209449
0.020495
0.0200906
0.383673
0.0207845
0.0201228
0.0200302
0.0208093
0.0213425
0.0370235
0.328849
0.0200679
0.0251245
0.0215601
0.0209591
0.0206958
0.364821
2.39719
0.024649
0.0212527
0.0207037
0.0200529
0.0237739
0.0243348
0.020066
0.419947
0.808599
0.338113
0.0200325
0.0208024
0.0213095
0.0227041
0.020535
0.0218023
0.0213149
0.0207196
0.0260031
0.0217781
0.0225449
1.30743
3.14282
0.020229
0.0209489
0.0208303
2.36582
0.0207714
0.0278336
0.0237968
0.0203961
0.0212167
0.0210273
0.93974
0.0211659
0.343592
0.290132
0.0481854
0.0212402
0.0247157
0.292497
0.0233058
0.0352569
0.0224832
0.034859
0.0203474
0.0250596
0.153992
0.317563
0.0205343
0.021434
0.856503
0.0239871
0.0449225
0.0237815
0.277317
0.0212249
0.0247411
0.251452
0.348929
0.0601426
0.0201263
0.0207663
0.0202252
0.0215107
0.0815005
0.27511
0.178592
0.0205317
2.42093
0.022475
0.601809
0.39405
0.020987
1.33207
0.155307
0.0206291
0.0483704
0.0313702
0.0213923
0.406142
0.0207976
2.53567
0.020998
1.70587
1.88489
0.0427383
0.0212338
0.0249217
0.0217733
0.0208175
0.0201742
0.020075
0.28532
0.0217947
0.0351996
0.380229
3.34413
0.0349059
0.0219638
0.0202199
2.09647
0.0196979
0.396887
2.90138
3.24575
2.40186
0.298481
0.430086
0.0200255
0.0213521
0.0201021
0.0630103
0.0219526
0.845696
0.0239928
2.58303
0.0258811
0.0201447
0.0200084
0.0214633
0.0200309
0.286658
0.59212
2.46196
0.0205508
0.0237225
0.0232868
0.0219334
0.0874235
0.0214056
0.277836
0.430905
0.0217124
0.0202759
0.392883
0.0258408
0.0477179
0.482412
0.021441
0.29444
0.0220965
2.61083
0.0209409
0.0306128
0.0208531
0.129897
0.0275581
1.31132
0.341966
2.3119
0.109744
0.0421433
0.0201887
0.0204881
0.452779
0.312384
0.0910085
0.0260864
3.32902
0.318731
0.379927
0.0371996
0.918838
0.0231875
0.0327448
0.291195
0.0214966
0.022879
0.0235225
0.019741
0.0204096
0.0208946
0.0211209
2.34887
0.0218477
0.313862
0.0864428
0.307346
0.305774
0.416349
0.0199801
0.0216768
0.391457
0.0337751
0.0258849
0.425325
2.06194
0.427049
0.0207521
0.0310679
0.023349
0.0807793
0.0417975
0.374152
0.312096
0.0519832
0.0213355
0.0220516
0.123333
0.0252761
0.0467259
0.383544
0.0209433
0.0238242
0.0225576
0.942557
0.0228795
0.0202785
0.0208782
0.0224322
1.08559
0.292553
0.0216192
0.0672681
0.387795
0.0216706
0.244378
0.0238183
0.030098
0.0237789
0.0314683
0.816183
0.0210749
0.0205744
0.0215447
0.110208
0.0872161
0.0329205
0.0219345
0.0224634
0.021576
0.97421
0.0330152
0.0228643
0.0215394
0.0742643
0.022484
0.330875
0.022248
0.028777
0.0209542
1.38606
0.119645
0.0479614
2.06774
0.0202046
0.0236127
0.281551
0.0224534
0.280396
1.57684
0.0215012
0.0224337
2.40427
0.0212939
1.13398
0.0214916
1.3088
0.376867
0.274374
0.0226115
0.0209563
0.021132
0.0212361
0.0238578
0.0197905
0.0214162
0.0209431
0.020615
0.0229822
0.0219979
0.0211414
0.0219274
2.47174
0.0214662
1.93491
0.0218058
0.0214686
0.878723
0.0210635
1.7891
0.404375
0.021306
0.021825
0.0370989
0.264639
0.0235817
2.22602
0.0280254
0.0216282
0.995359
0.0205166
2.93806
0.0214658
0.0255187
0.0198074
1.50434
2.20074
0.416047
0.0216689
0.022915
0.0207508
0.0228581
0.264616
0.0207678
0.0213037
0.0417225
0.0237699
0.857669
0.305619
0.0218418
0.0370842
0.0214157
0.0261407
0.0220919
0.0213206
0.0218584
2.38571
2.07176
0.0339561
0.0227207
0.0218263
0.0223072
0.0825602
1.78647
0.0520062
0.825768
0.271211
0.0224418
0.0230999
0.0878365
0.0207378
0.0230299
0.0225066
0.0223157
0.303526
0.0224255
0.423651
0.0200335
0.0217349
0.0858883
0.0225644
0.0231609
0.0222893
0.025298
0.384392
0.0216727
0.0202877
0.0213803
2.39561
0.366237
0.0235671
0.021474
0.0206755
0.0218267
0.0210801
0.0337872
0.0208855
0.0201069
0.0214641
0.0226361
0.0287824
0.0213667
2.09793
0.0217635
0.0218533
0.213208
0.0227717
0.0235387
0.0275429
0.0216546
0.945162
0.0207403
0.0206818
0.021874
0.0227373
0.0203971
0.288944
0.0218479
0.0209683
0.70709
0.318
1.45845
0.308463
0.412181
0.0247364
0.0205071
0.0225494
0.286852
0.0271466
0.584536
0.0219895
0.0306825
0.0236109
0.0466528
0.0206562
2.52532
0.224313
0.0209346
0.0245241
0.0215839
0.0220021
0.200316
0.0404121
0.0214463
0.0207074
0.0200163
0.386628
0.0215908
0.333375
0.0339412
0.0215532
0.0209244
0.0209689
1.91302
0.080517
0.0208581
0.859037
0.205525
0.0217611
0.3439
0.0215162
0.02051
0.0206562
0.0214079
0.0199603
0.0211322
0.0215281
0.0222095
0.0214585
0.0787139
0.0224992
0.463316
0.0300453
0.0212139
0.141357
0.0199909
0.0200569
0.0514855
0.0209132
0.469927
0.0210226
0.0807222
3.57366
0.0206034
0.276775
0.276947
0.0213709
0.021711
0.0211071
0.201484
0.0214811
0.402101
0.420149
0.0215126
0.0264613
0.039882
0.162949
0.0210329
0.240384
0.021563
0.186771
0.170067
0.0340669
0.408511
0.0205621
0.0959747
0.408359
0.20392
0.0214326
0.051812
0.0223788
0.0462003
0.0203825
0.0224819
1.3345
0.0258605
0.151525
0.237662
0.0236839
0.303965
0.0205226
0.0288272
0.0214762
0.0252749
0.619595
0.377804
2.75696
0.0338688
0.0247476
1.20001
0.0237942
0.0209592
0.0202002
0.0216859
0.021805
0.024389
0.0210178
1.11422
0.0254337
0.0207826
0.0199378
0.0212933
0.0212471
0.102057
0.0205684
2.569
0.0218497
1.17482
0.0211356
0.0213785
0.0196475
0.0702137
0.0209881
2.84652
1.32626
0.288031
0.0241064
0.0218837
0.0213888
0.0209081
0.0207301
0.413945
0.0216199
0.0216797
0.678025
0.0213368
0.0220227
2.67168
0.173785
1.08364
0.0202048
1.28247
0.547636
0.0209923
0.0205484
0.0264389
1.17875
1.00443
0.421958
0.188399
0.0212025
0.0206808
0.122627
0.0258483
0.0216073
0.0252256
0.021545
0.0227249
0.376606
0.587966
0.0245061
0.0256502
0.0228504
0.0273643
0.897579
0.021447
0.0208926
0.0213853
0.112142
0.020858
0.0240122
0.910183
2.71282
0.0204076
0.020749
0.0196556
0.0214267
0.0210322
0.0301699
0.0614277
0.0220106
0.564914
0.375914
0.253257
0.0237945
0.0217312
0.0213399
0.0211682
0.0206948
0.0199001
0.0213807
0.73118
0.84903
0.0201787
0.020529
0.0215279
0.0214004
0.604452
0.0311955
0.917692
0.400318
0.121753
0.0670269
0.0212764
0.021011
0.0212051
0.0213959
1.24506
0.0211866
0.02369
0.126698
0.873379
0.340874
0.112278
1.47188
0.425387
0.0213218
0.0282294
1.1662
0.727074
0.0213074
0.021077
0.0200835
0.0213098
0.0213434
0.607293
0.0209761
0.020917
0.646835
0.0234371
1.16532
0.0212302
0.0206053
0.0288202
0.13715
0.0279085
0.444573
0.0223116
1.00844
0.0357501
0.0209485
0.702587
0.0210552
0.0231924
0.0214484
0.02049
3.17852
1.1383
2.37926
0.108731
0.39191
0.274292
0.637314
0.020745
0.0214639
0.188793
0.0213063
0.0215129
0.0228335
0.021277
1.19087
0.0214718
0.765808
0.1444
0.0200164
0.946699
0.0212275
0.0211283
0.0236224
0.0235061
0.0236705
0.0238723
0.0238394
0.42182
0.0214113
0.021242
0.020003
0.0373823
0.22148
0.0208896
0.0215691
0.0489231
1.15781
0.0210057
0.0238128
0.0237812
0.0200625
0.0212472
0.0209352
1.16329
2.27624
0.0237179
0.0221957
0.0213693
0.0265789
0.546981
0.0213639
0.578983
0.961301
0.0214638
0.0270601
1.35572
1.3354
0.0348319
0.0201276
0.0206283
0.917993
0.0340098
1.25439
0.0251626
0.905539
0.0287189
0.872389
0.401904
2.64485
0.171788
0.909638
0.332968
1.04463
0.0217328
0.348644
0.0209384
1.00197
0.0224182
0.0219054
0.0236102
0.909195
0.275444
0.0219994
0.0213224
0.364139
1.14596
0.727847
0.0207296
0.0207735
0.0212227
0.0239522
0.0212049
0.0357815
0.919946
0.298836
0.0236762
0.020494
0.103837
0.0215299
0.0213108
0.179565
0.0211535
0.0232651
0.0199203
0.497798
0.0598488
0.326352
0.0210811
0.326603
0.540239
0.0308299
0.382618
1.95924
0.45973
0.866391
0.0210002
0.0213855
0.0802476
0.0213506
0.0213771
0.0209857
0.021553
0.0256992
0.0237362
0.0209789
0.262254
0.020247
0.190495
0.0216582
0.760645
1.00903
0.0247141
2.35223
0.901607
0.0287356
0.594448
1.78428
0.0216341
0.0214857
0.026593
0.0253541
0.884467
0.0209634
0.0213293
0.918171
0.0213277
0.0206927
0.0214954
0.0198489
0.312657
0.0214303
0.0313601
0.0214908
1.79553
0.0212233
1.02686
0.266797
0.399747
0.949388
0.0200341
0.0235436
0.0214856
0.0212057
1.19488
0.176859
0.0696177
0.289044
0.0198679
0.0219773
0.023253
0.0213496
0.298566
0.0208939
0.0287881
1.30998
0.319416
0.0468907
0.021222
0.0214882
0.925643
0.0245136
0.0766917
0.508323
0.981953
1.15022
0.0216611
0.0207432
0.0208828
0.0214553
0.198399
0.0220391
0.113093
0.021395
0.0214294
0.237357
0.0198856
0.115421
0.0237346
0.0213805
0.0236256
0.948425
0.0206908
0.0215539
0.79875
0.0213196
0.0213595
0.0393757
2.47629
0.0238601
0.0257989
0.0204024
1.10658
0.399465
0.0670176
0.0212794
0.020691
0.0258205
0.0213371
0.166051
0.665425
0.415659
0.937909
0.0212059
0.0417121
0.0209431
0.0754706
0.0213178
0.574523
0.273344
0.0212812
0.868897
0.0212934
1.87788
0.0354999
0.0203853
0.0292116
0.0207211
0.0208992
0.020505
0.0198556
0.0209284
0.959459
0.0212912
0.020573
0.0919233
0.0200875
0.0215088
0.0219975
0.0211497
0.0213202
0.520196
0.0285719
0.0198688
0.0223286
0.0221611
0.0212553
0.94531
0.874997
0.021284
0.0208982
0.0212871
0.0986997
0.0214151
0.0216631
0.0220966
0.057131
0.0198743
0.0221375
0.273794
0.0213057
0.293702
0.0212352
0.021374
0.0209996
0.021131
0.0205792
0.0212309
1.03097
0.289131
0.0205905
0.0212632
0.0220672
0.32501
0.0250147
0.0472572
0.0211828
0.0218104
0.0364015
0.021909
0.31526
0.0220218
0.0210425
0.0205275
2.99737
0.0218304
0.852612
0.094003
0.0210365
0.537405
0.972208
0.282496
0.108203
0.0900623
0.0249198
0.0209704
2.82638
0.0212952
0.0225576
0.028752
0.0199411
0.0213148
2.00035
0.0207254
0.632602
1.12118
0.0218022
0.0212793
0.382429
0.0212317
0.0564926
0.0203719
0.20816
0.128457
0.309546
0.0212485
0.0208155
0.0219085
0.719921
0.52552
0.277518
0.751737
0.0243138
0.0212348
0.0823933
2.26323
0.0213859
0.0198694
0.0235616
0.0210146
1.99334
0.066721
0.0203358
0.220042
0.0208039
0.0207057
0.0203621
0.0211768
0.0213269
0.239309
0.0211044
0.477355
0.0206431
0.0217699
0.021508
0.0214465
0.0211433
0.0212093
0.0266319
0.0205768
0.152524
0.418504
0.0451411
0.0238451
0.051514
0.0270033
0.021049
0.0200703
0.0212598
0.0201212
2.14455
0.107788
0.0220691
0.0223517
0.809363
0.0218176
0.303329
0.0212034
0.0210147
0.0213207
0.0413295
0.11689
1.09716
0.902835
0.0237575
0.0442677
0.044221
0.0211365
0.0210565
0.0207163
0.0285724
0.0297382
2.02861
1.98184
0.0310691
0.0208928
0.0284036
0.0211608
0.0408022
0.0208766
0.154029
0.0219496
0.286099
0.0315353
0.02179
0.0237971
0.046638
0.0255308
0.930825
0.0210294
0.020669
0.0212765
0.0211901
0.330165
0.0204777
0.0214481
0.0247457
0.0198611
0.943619
0.802014
0.0324645
0.0211967
0.0213497
0.514407
0.0506591
0.0210348
0.021275
0.230612
0.0212931
0.0212488
0.163311
0.0237923
0.387557
0.275828
0.310964
0.0325694
0.0209109
0.0212115
0.027725
0.0210299
0.0208902
0.597177
0.828224
0.0201185
0.020972
0.020908
0.0220455
3.31769
0.0209705
0.0220814
0.0213053
0.020373
0.0209489
0.0466178
0.0217832
0.0208728
0.0198616
0.0217551
0.0206903
0.026955
0.30475
0.0266926
0.0206193
0.0210232
0.0211862
0.0209397
0.416998
0.0213819
0.300249
0.457864
0.0210437
0.0205995
0.454771
0.0206727
0.020715
0.0209208
0.168393
0.0234809
0.0209813
0.0209166
0.0198544
0.0212862
0.303766
0.0209897
0.02147
0.0374504
0.395065
0.0313422
0.0199398
0.308884
0.0195468
0.491793
0.0209279
0.0199631
0.0206123
0.0215256
0.0210939
0.802413
0.0862006
0.274112
0.0564563
0.0249537
1.90556
0.021277
0.495855
0.21341
0.0214674
0.391221
0.0431651
0.10933
0.0211976
0.653538
0.0215144
0.0206209
0.0201745
0.134888
0.391516
0.0242711
0.401705
3.24426
0.0352569
0.0213132
0.0231795
0.0405869
0.175725
0.409446
0.0230947
0.0214497
0.0351175
0.369849
0.0208059
0.914957
0.0220365
0.0357696
0.020564
0.0204142
0.026878
0.026157
1.8998
0.905509
0.194883
0.0209131
0.0209462
0.307149
0.343242
1.07858
0.0208064
0.0218199
0.0206954
0.0209765
0.0210107
0.379371
0.0293745
0.20584
0.11873
0.461729
0.178597
0.0208597
0.0214528
0.0203942
0.0205034
0.0252179
0.0210406
0.0211949
0.021205
0.0208905
0.0245167
0.369889
0.0290367
0.0207391
0.0209458
0.864053
0.0261745
0.023145
0.0248674
0.380435
0.211655
0.0208967
0.0260021
0.382046
0.0207825
0.345484
0.0209101
0.0208571
0.0207516
0.55992
0.0209066
0.0207098
0.0213827
0.0214309
0.0208118
0.0207173
0.400133
0.947543
0.438369
0.0215546
0.02078
0.362065
0.0211911
0.0204873
0.0207642
0.428235
0.0213107
0.868188
0.0200769
0.0206924
0.0381117
0.038483
0.0207262
0.0407243
0.909662
0.37797
0.0208261
0.0197288
0.0207912
0.367348
0.0214438
0.0238395
0.820425
0.0209491
0.0203953
0.0216345
0.0206825
1.12252
0.0208762
0.0212844
0.0209321
0.0245819
0.299565
0.0212617
0.0206732
0.0214451
0.170766
0.0806427
0.250618
0.0227175
0.455098
0.0203779
0.0208956
0.668754
0.928923
0.0212607
0.0209032
0.51497
0.0311534
0.0208735
0.0207487
0.020744
0.0208977
0.0209106
0.31748
0.0213036
0.0235931
0.33503
0.253266
0.0210459
0.0256616
0.0256145
0.355325
0.0232598
0.0242967
0.0212733
0.245603
0.0211866
0.0283919
0.329327
0.020596
0.0885523
0.290724
0.0209248
0.0216581
0.49096
0.342862
0.0220191
0.0207164
0.0204719
0.604909
0.0208605
0.0207254
0.0242936
0.0236106
0.0209425
0.365623
0.423645
0.0206023
0.0225316
0.0216017
0.0207302
0.0203506
0.0209091
0.0203249
1.34873
0.0219334
0.0219626
0.0207083
0.0199303
0.0206993
0.0208352
0.0209428
0.0250521
0.0223511
0.501804
0.0209108
0.0208709
0.025273
0.0207444
0.0199494
0.021736
0.385777
0.0207929
0.413032
0.0236711
0.466414
0.0200763
0.498242
0.4183
0.361566
0.0200275
0.0209233
0.396595
0.0209121
0.304606
0.0210493
0.0238004
0.0219073
0.0209536
0.261649
0.472075
0.254981
0.275504
0.0233287
0.02071
0.0208063
0.865405
0.330093
0.0208639
0.0214179
0.0199905
0.021452
0.0204276
0.349594
0.0206581
0.0202354
0.0214559
0.0213358
0.0436062
0.0270113
0.0218397
0.0207071
0.0205036
0.88633
0.0234957
0.0196651
0.835632
0.0294022
0.0236842
0.0235578
0.0260737
0.0203531
0.0201988
0.326913
0.279669
0.122434
0.0209296
0.0205667
0.462693
0.298882
0.0230289
0.020703
0.0231301
0.0206017
0.0217286
0.0209957
0.0225182
0.0198502
0.02065
0.020405
0.0207149
0.0206023
0.0218671
0.0206229
0.0741567
0.520917
0.020587
0.0207645
0.0198903
0.0209229
0.0213745
0.0208823
0.365677
0.590323
0.0208323
0.021698
0.382687
0.0211236
0.0767771
0.344782
0.315084
0.0205682
0.22105
0.0253232
0.126833
0.0231416
0.0206778
0.452784
0.42294
0.336199
0.0218296
0.0203495
0.29315
0.275132
0.0205873
0.0206741
0.0207006
0.0226137
0.0239462
0.021449
0.0206936
0.0205416
0.582772
0.0607158
0.0314574
0.0202094
3.01028
0.240086
0.020483
0.1991
0.0209928
0.0207249
0.0207943
0.0968493
0.0207938
0.0385342
0.0207141
0.0206601
0.0207181
0.0204656
0.0209944
0.0240269
0.0198848
0.020589
0.030165
0.0205374
0.0214068
0.0205377
0.0202088
0.208761
0.152226
0.0207836
0.369444
0.0208736
0.0205869
0.0271459
0.0221942
0.177284
0.019901
0.0205223
0.021396
0.0205826
0.0231889
0.0204835
0.0207629
0.0279185
0.0196284
0.0210204
0.0209242
0.0206632
0.0228375
0.0210274
0.0476031
0.325086
0.191416
0.963523
0.0198274
0.0205091
0.05632
0.0207315
0.480238
0.0199118
0.449162
0.458577
0.020075
0.0205035
0.02117
0.458126
0.0208195
0.0208711
0.32363
0.0331259
0.428691
0.021233
0.179421
0.0196431
0.366095
0.511396
0.360552
0.341956
0.260453
0.300677
0.0205453
0.0207321
0.0260149
0.31158
0.0211771
0.0206859
0.0205917
0.399846
0.0200084
0.0200925
0.346549
0.0205114
0.276322
0.0207362
0.429062
0.0848343
0.0226767
0.0212162
0.0207782
0.0208421
0.0297132
0.153254
0.32434
0.0312525
0.37453
0.38574
0.0210691
0.0225897
0.466228
0.0214558
0.0205521
0.362036
0.298325
0.509139
0.370882
0.395371
0.0260047
0.0209496
0.0209586
0.26843
0.289504
0.411853
0.505089
0.0196783
0.0212519
0.0216026
0.209636
0.398216
0.0206053
0.0225785
0.526596
0.0213393
0.0220932
1.96894
0.435694
0.0529422
0.0217561
0.0207593
0.301494
0.0209233
0.0196522
0.365779
0.0213066
0.0201944
0.41391
0.0201403
0.0205196
0.365754
0.826581
0.312266
0.0202218
0.382001
0.0204506
0.437295
0.387428
0.13202
0.0209247
0.404732
0.0234966
0.510109
0.0200158
0.0203066
0.275317
0.162672
0.354816
0.0206235
0.0206699
0.0203525
0.0205819
0.0304774
0.0207527
0.242935
0.0219326
0.412184
0.020173
0.374628
0.0210808
0.0203705
0.0206181
0.37473
0.376119
0.0196291
0.0198086
0.0203916
0.02009
0.104672
0.0205207
0.202588
0.0231106
0.0357976
0.391978
0.453024
0.884103
0.406694
0.0293568
0.0291205
2.54925
0.178044
0.169027
0.140708
0.373642
0.0205179
0.0304692
0.441619
0.0204755
0.485729
0.448635
0.460995
0.326714
0.0204699
0.433795
0.0882779
0.541807
0.0212891
0.020583
0.256378
0.0526935
0.407116
0.0207413
0.339496
0.0209563
0.4054
0.509173
0.443584
0.0207244
0.0221244
0.445989
0.368691
0.0203835
0.946627
0.134959
0.435885
0.0209863
0.17395
0.0204533
0.436391
0.329652
0.426883
0.11209
0.400363
0.0230749
0.136926
0.0223443
0.0886523
0.021296
0.122547
0.0212562
0.0205668
0.0266158
2.52923
0.0213142
0.392305
0.431529
0.100122
0.0947994
0.304378
0.0201396
0.15446
0.0243932
0.392025
0.0206349
0.0212759
0.0214164
0.36538
0.0203828
0.36846
0.366907
0.028175
0.0216585
0.0219982
0.019759
0.0740745
0.413561
0.0199821
0.0548999
0.931494
0.514513
0.35061
0.0205588
0.020593
0.0205538
0.023099
0.0211944
0.0205509
0.0261323
0.0223683
0.021302
0.0197958
0.0205345
0.0222845
0.345461
0.0212643
0.334537
0.0206041
0.0205945
0.0211919
0.0236324
0.0214188
0.0207089
0.0204606
0.0576607
0.340372
0.0205834
0.427481
0.394749