/*--------------------------------*- C++ -*----------------------------------*\
| =========                 |                                                 |
| \\      /  F ield         | OpenFOAM: The Open Source CFD Toolbox           |
|  \\    /   O peration     | Version:  v2012                                 |
|   \\  /    A nd           | Website:  www.openfoam.com                      |
|    \\/     M anipulation  |                                                 |
\*---------------------------------------------------------------------------*/
FoamFile
{
    version     2.0;
    format      ascii;
    class       volVectorField;
    location    "400";
    object      U_0;
}
// * * * * * * * * * * * * * * * * * * * * * * * * * * * * * * * * * * * * * //

dimensions      [0 1 -1 0 0 0 0];


internalField   nonuniform List<vector> 
9793
(
(0.971283 -0.0211931 8.96068e-21)
(-0.344516 -0.028585 0)
(0.995042 -0.0099419 -7.51048e-21)
(-0.0440925 -0.0978679 1.54606e-20)
(0.999967 -0.000970882 -3.60974e-22)
(1.27413 0.0981542 -6.11581e-20)
(1.18554 -0.194811 0)
(0.00586053 0.0554326 1.53764e-19)
(1.02597 -0.026834 2.94604e-21)
(0.128349 -0.0217507 -1.46307e-21)
(1.00017 -0.0021997 0)
(1.00018 -0.00229194 6.186e-21)
(1.00334 -0.00894657 4.67309e-21)
(0.457 0.399461 1.70591e-20)
(1.02011 -0.0142978 -7.29364e-23)
(1.05093 0.0210941 -1.96073e-21)
(1.15207 -0.00901206 2.66047e-20)
(0.997204 -0.0112299 -6.63283e-21)
(-0.0493687 -0.332878 -5.9716e-20)
(1.01318 -0.00217953 3.08084e-23)
(1.0182 -0.00378731 9.68854e-22)
(0.999993 -0.000176067 -5.83175e-21)
(-0.0728561 -0.0942564 0)
(0.0443882 0.0406704 1.23255e-19)
(0.530718 0.377676 1.78614e-20)
(0.940586 -0.0637986 -3.02863e-20)
(1.00037 -0.00403094 0)
(1.00003 -0.000519595 4.31038e-22)
(1.01319 -0.00234565 -2.8117e-23)
(1.20756 -0.0813968 0)
(-0.473985 0.0456804 0)
(1.34551 0.0476009 -6.8759e-20)
(0.997848 -0.00661302 -6.83133e-23)
(0.999425 -0.0107134 0)
(1.00496 -0.000423893 2.33831e-21)
(1.07589 0.0002838 3.39251e-22)
(1.04747 0.0138736 -2.32381e-21)
(0.927713 -0.00901898 -7.04575e-21)
(-0.188304 0.441209 0)
(1.091 -0.0387354 -2.90783e-21)
(1.19546 -0.0811664 0)
(1.39714 0.188414 8.38721e-20)
(-0.0919342 -0.0939426 -1.14572e-19)
(1.00002 -0.000357066 2.46966e-22)
(0.994088 -0.00509706 2.61153e-20)
(0.997508 -0.00370954 -2.78763e-21)
(-0.43898 0.120984 1.35073e-19)
(1.00003 -0.000355639 -5.55845e-21)
(1.02283 5.96049e-05 0)
(0.996906 -0.0109093 0)
(1.07437 0.00258467 5.82583e-22)
(1.00527 -0.000505017 0)
(1.10572 -0.00269363 -3.01388e-20)
(1.00003 -0.000797477 5.53142e-21)
(0.932644 -0.126508 -9.55537e-21)
(-0.052508 -0.0943593 9.84565e-21)
(1.00342 -0.00807226 0)
(1.0897 0.100045 2.04609e-20)
(1.02307 -0.000430884 -1.54839e-21)
(1.00001 -0.000189868 0)
(0.915935 -0.02802 0)
(0.891083 -0.359506 -2.24179e-20)
(0.996345 -0.00956373 0)
(1.07075 0.0246353 -1.51128e-20)
(1.00284 -0.00119772 2.94635e-21)
(1.02478 -0.0256325 -3.65696e-21)
(-0.363745 0.0689751 -1.77392e-19)
(1.05677 -0.0235346 -7.81123e-21)
(1.04743 0.0169931 -9.82027e-22)
(0.511394 0.303831 -1.3336e-19)
(0.984513 -0.0139201 -9.89169e-21)
(0.60325 -0.00192323 -6.02688e-20)
(-0.151038 0.0943342 0)
(0.859229 -0.501546 -2.36926e-21)
(0.788939 0.719733 -3.42546e-20)
(0.999999 -0.000884462 0)
(0.83206 -0.152251 6.64347e-20)
(1.19988 0.00306157 2.20693e-19)
(0.996459 -0.00701161 0)
(0.999996 -0.000742959 0)
(0.816297 -0.155602 -6.04253e-20)
(-0.00419182 -0.274603 1.04681e-19)
(1.14397 -0.00543491 -2.99515e-20)
(0.998181 -0.0651761 1.57301e-21)
(1.04863 0.0156419 9.38138e-21)
(1.30804 -0.0755016 9.18446e-20)
(0.999993 -0.00099696 -1.62294e-21)
(1.05171 0.0468691 0)
(-0.186672 0.496425 -5.37545e-20)
(0.873332 -0.340691 1.47244e-20)
(-0.0116306 -0.0899253 1.60771e-20)
(1.36484 -0.0745564 7.63409e-20)
(1.37148 -0.0789165 8.84697e-20)
(1.12032 -0.0842707 -4.40351e-20)
(-0.0774524 -0.0978653 1.88246e-19)
(0.999087 -0.0130573 -8.24255e-21)
(0.856144 0.673554 0)
(1.15268 -0.0357499 -2.22013e-21)
(1.05354 -0.0457956 8.54336e-21)
(0.999974 -0.000746557 0)
(0.023703 0.261367 -1.02739e-20)
(1.10241 -0.00515321 2.81044e-20)
(0.447596 -0.881448 1.0225e-19)
(0.994523 -0.00497964 0)
(0.543273 0.815066 -2.11652e-20)
(0.904861 0.0351879 -1.47928e-19)
(0.950102 -0.464062 2.11858e-21)
(1.00499 -0.00601539 1.93228e-21)
(0.996385 -0.00669993 0)
(0.999981 -0.000336096 0)
(1.00012 -0.00110181 0)
(-0.0468472 -0.136151 -7.95848e-21)
(0.0939827 -0.15525 0)
(-0.437016 -0.0222982 1.14225e-19)
(0.985405 -0.0142837 1.75331e-20)
(0.999583 -0.00347392 0)
(1.03666 0.0220203 3.77161e-21)
(0.997851 -0.00421778 6.18825e-21)
(-0.085822 -0.0846069 4.19467e-20)
(0.997009 -0.00353842 1.45727e-20)
(0.392756 0.764645 -3.30756e-20)
(1.04819 0.0525502 7.07933e-21)
(1.07112 0.623608 0)
(1.1014 0.0218091 -4.29509e-20)
(1.04854 0.0122922 9.13302e-21)
(0.997142 -0.00335652 -1.21002e-20)
(1.16936 -0.0211724 0)
(-0.421244 0.048014 0)
(0.928583 0.0238059 7.19654e-21)
(0.921796 0.00282354 -1.61497e-20)
(1.05135 -0.00150934 0)
(1.00819 -0.0115568 -1.98612e-21)
(0.972983 -0.0218348 -1.68905e-20)
(1.0502 -0.0211535 0)
(1.07292 -0.0036917 -4.63715e-21)
(1.27031 -0.173887 -7.39845e-20)
(1.29025 0.25865 0)
(1.03816 0.0209975 -2.46379e-21)
(1.00001 -0.000631121 -1.17078e-21)
(1.16196 0.0110505 0)
(0.0516789 -0.17786 2.15822e-19)
(1.07555 -0.00247195 -3.41928e-20)
(0.99095 -0.0204975 3.12176e-21)
(1.06428 0.042001 3.32482e-21)
(-0.424766 0.162463 -1.43036e-19)
(1.26579 -0.454832 -1.37116e-19)
(0.997108 -0.00286069 -1.73354e-20)
(0.811628 0.621538 0)
(1.00806 -0.011898 0)
(0.996994 -0.00308416 1.61468e-20)
(0.999838 -0.00529225 0)
(0.174188 -0.0859814 1.28906e-19)
(1.0505 -0.0439646 0)
(1.00031 -0.00404744 0)
(0.988894 -0.00709173 -6.31059e-21)
(1.39285 -0.103644 -1.42247e-19)
(1.15849 -0.0032159 -4.56941e-21)
(0.996474 -0.00999567 0)
(1.36195 0.0515928 5.39347e-20)
(0.989509 -0.0135062 3.36533e-21)
(1.05784 0.0472777 0)
(1.05313 -0.00244293 0)
(1.01821 -0.00414218 -1.25516e-21)
(0.624211 -0.47914 0)
(1.03261 -0.00392386 -3.23868e-21)
(1.36039 -0.00956819 -9.23116e-20)
(0.40868 -0.906566 6.7234e-20)
(1.03612 -0.0060107 -9.14276e-21)
(1.00493 -0.00549226 -3.47515e-21)
(1.00008 -0.00194158 5.20009e-21)
(0.989986 -0.020177 -3.78649e-21)
(-0.350916 0.0713586 -1.74093e-19)
(0.322143 -0.174848 0)
(0.146298 0.590136 0)
(1.00361 -0.00913625 -2.5511e-21)
(1.25613 0.10019 -4.1232e-20)
(1.10528 -0.367569 -3.67971e-20)
(0.589453 -0.587817 -2.2844e-20)
(0.996221 -0.00787237 -6.41707e-21)
(1.05633 -0.0189242 1.48786e-20)
(0.606787 0.778754 -1.1253e-20)
(-0.450709 0.132361 4.20004e-23)
(1.03985 0.0520931 -8.13457e-21)
(0.997271 -0.0039078 9.61308e-21)
(0.998269 -0.00329887 1.19022e-20)
(1.00514 -0.00573563 5.49391e-21)
(1.15351 0.640486 1.24197e-19)
(-0.208241 0.0884417 -1.17574e-19)
(0.906071 -0.414808 0)
(0.451664 -0.849025 -4.75556e-20)
(1.02243 -0.02465 0)
(0.480089 -0.163836 0)
(0.416295 -0.195096 -1.47922e-19)
(0.928464 -0.0302652 -2.6503e-20)
(1.02305 0.00245816 6.88548e-22)
(0.97654 -0.0510849 8.37303e-21)
(0.181983 0.0584273 7.69275e-20)
(1.01188 -0.00264937 4.65097e-22)
(0.997129 -0.0115183 -8.65343e-21)
(0.999914 -0.00219574 0)
(0.982615 -0.0147877 -9.63374e-21)
(1.01923 -0.00265598 0)
(1.0749 0.00765218 0)
(1.05689 0.0054368 -1.40366e-20)
(-0.218183 -0.185056 0)
(0.986085 -0.00632408 -8.71822e-21)
(1.07989 -0.0369845 0)
(1.03644 -0.00482136 0)
(0.979762 -0.0308818 6.08896e-21)
(0.872131 -0.619873 -1.04974e-20)
(1.15593 0.00783508 4.08661e-20)
(0.0703367 -0.162553 1.04453e-19)
(1.01076 -0.00266853 4.33154e-22)
(0.423919 0.245656 0)
(0.994176 -0.0661884 0)
(1.06968 0.0443086 2.74808e-21)
(1.02043 -0.0150712 9.13517e-23)
(1.27021 -0.158903 -7.38315e-20)
(0.999637 -0.00315354 -1.12436e-22)
(0.765256 -0.0765587 7.78972e-20)
(1.16024 -0.0332792 -3.45802e-20)
(1.01939 -0.00294363 -6.95032e-22)
(0.377138 0.427168 2.1467e-19)
(0.125269 0.329507 1.68519e-19)
(1.11298 -0.0855294 5.58871e-20)
(0.998835 -0.0142685 -1.13035e-20)
(1.10929 0.0361137 8.26274e-21)
(0.321862 -0.354936 0)
(0.782318 -0.103624 0)
(0.7811 -0.114781 7.78799e-22)
(-0.200288 -0.0439594 -6.62659e-20)
(0.973068 0.0455218 0)
(1.06665 0.0424442 -7.31731e-22)
(1.07118 0.0263241 2.44342e-20)
(0.421488 -0.168791 1.34053e-19)
(1.01867 0.000966567 0)
(0.501021 -0.222385 -7.29001e-21)
(-0.425058 -0.038514 -1.95749e-19)
(1.01162 -0.00258201 -2.51913e-22)
(0.999921 -0.00186301 0)
(1.44566 0.225536 -1.57079e-19)
(0.992893 -0.0152455 6.91029e-21)
(1.00009 -0.00102899 0)
(1.05959 0.11416 -1.52206e-20)
(1.07779 0.135251 2.30022e-21)
(1.02326 -0.0260518 0)
(1.05754 -0.0175037 8.87747e-21)
(1.08378 -0.0363708 -1.31693e-20)
(0.987232 -0.172176 -3.29868e-21)
(1.05699 -0.0107109 0)
(0.996129 -0.00749062 -1.12424e-22)
(1.10831 -0.136533 2.64125e-20)
(-0.115219 -0.343179 1.28381e-19)
(1.01883 -0.00324316 2.52414e-21)
(0.145821 0.522773 -9.50819e-20)
(1.00006 -0.00097528 -3.29289e-21)
(1.00018 -0.00251742 2.71015e-21)
(1.00926 -0.000491562 1.15283e-21)
(-0.0712662 -0.100023 -9.68204e-21)
(0.995001 -0.00362051 -1.80901e-20)
(1.41228 -0.0884996 2.19177e-19)
(0.501849 0.611737 1.18613e-19)
(1.00076 -0.00274136 2.24126e-21)
(0.999725 -0.00299318 -1.21449e-20)
(1.38188 -0.0585885 1.54748e-19)
(1.0092 -0.000272166 9.35652e-22)
(0.999989 -0.0015882 -6.41681e-21)
(1.00945 -0.000259699 7.39375e-22)
(0.41171 0.541426 0)
(0.625554 -0.439677 0)
(0.952175 -0.0578794 -1.72892e-20)
(0.984068 -0.562828 -2.39462e-20)
(1.10651 0.0919646 -4.48385e-20)
(0.400339 -0.897307 5.85644e-21)
(0.113277 -0.121024 -2.27861e-20)
(1.03734 -0.006876 4.64011e-21)
(-0.189661 -0.890649 3.37976e-21)
(1.00003 -0.000887792 0)
(0.406552 -0.44341 -1.41115e-20)
(0.411941 -1.30893 1.46328e-19)
(-0.041195 0.604543 -4.03523e-20)
(0.442661 0.81018 5.69891e-20)
(0.9826 0.0576086 1.65219e-21)
(1.05113 0.000435018 0)
(1.13816 -0.0109622 0)
(1.05547 0.00421148 1.36948e-20)
(1.02294 0.00374714 -3.54014e-22)
(1.03656 -0.000149884 4.17868e-21)
(0.903176 -0.582922 0)
(0.937957 -0.0670497 1.37096e-20)
(0.999749 -0.00277591 0)
(1 -0.000104052 -2.43809e-23)
(1.01102 -0.00275941 -5.45004e-22)
(1.01167 3.20658e-05 -1.63847e-22)
(1.01886 -0.0035742 -1.33298e-21)
(0.29535 -0.307313 8.53803e-21)
(1.00526 -0.00682846 -1.88879e-21)
(1.01847 -0.0144808 1.08598e-22)
(1.01142 -4.85854e-05 0)
(1.00348 -0.00842386 0)
(-0.0663495 -0.525071 0)
(1.2836 -0.43516 -8.16934e-20)
(0.703983 0.0430458 0)
(0.958106 -0.0209594 -2.55481e-20)
(1.06701 0.0452761 -1.929e-20)
(1.01079 -7.97937e-06 -2.05163e-23)
(1.05036 -0.345328 0)
(0.0255045 -0.0353048 -3.40319e-19)
(0.994693 -0.00443411 1.45088e-22)
(0.590676 0.610365 1.60494e-19)
(1.07256 0.0208628 0)
(0.993893 -0.00553497 -2.35279e-20)
(-0.231397 0.00750768 2.03489e-20)
(0.975456 -0.386368 -2.78312e-21)
(0.998095 -0.00659122 -5.82853e-21)
(1.11129 -0.144757 2.80792e-20)
(0.414454 1.04636 0)
(0.983918 -0.0281737 -4.89219e-21)
(0.849875 0.000548064 0)
(1.01923 -0.0139924 -1.05079e-22)
(0.979293 -0.0272689 -1.18177e-20)
(0.609755 -0.489513 -1.06866e-19)
(0.936943 -0.182228 -2.71723e-20)
(0.999375 -0.0102486 0)
(0.99701 -0.00447924 7.09216e-21)
(0.960301 -0.0200671 -1.11482e-20)
(1.18205 -0.358663 -7.09433e-20)
(0.0937725 -0.248561 0)
(0.994877 -0.00946475 8.79172e-21)
(1.00518 -0.00625571 -3.75378e-21)
(1.02385 -0.00595384 3.43928e-21)
(-0.333999 0.0671646 -1.00962e-19)
(-0.277909 -0.635598 1.5389e-19)
(-0.0921168 0.0215775 0)
(1.0186 0.000192257 9.65624e-23)
(0.940547 -0.195124 0)
(0.844735 0.00908521 0)
(0.928307 -0.821503 4.52407e-20)
(1.12074 0.0671048 3.13454e-20)
(1.01791 0.00246341 -1.56602e-21)
(1.0199 0.00200626 0)
(1.02355 -0.00643575 0)
(1.13145 -0.00784571 -3.23125e-21)
(0.998816 -0.0329248 4.5855e-21)
(0.246515 0.0600358 -3.29283e-20)
(0.99895 -0.0039479 -1.33307e-21)
(1.00962 -0.0109168 2.95201e-21)
(0.151436 -0.450003 4.30027e-20)
(0.407151 -0.330927 -5.23552e-21)
(0.349819 0.23667 3.36712e-19)
(1.01149 4.22287e-05 3.28782e-23)
(-0.0194865 0.22923 1.20691e-20)
(1.00214 -0.0744111 0)
(0.247972 -0.734433 -6.85246e-20)
(0.234216 0.0195283 0)
(-0.204335 -0.0932731 1.18138e-19)
(1.00889 -0.0608268 -2.78355e-21)
(1.09493 -0.0411499 -2.76689e-20)
(1.31248 0.241126 0)
(0.0217694 -0.103051 8.97968e-22)
(-0.0273785 -0.098939 -8.95811e-21)
(0.914174 0.0056193 -2.74791e-20)
(1.00004 -0.000590306 3.62031e-21)
(0.947781 -0.0581659 3.00713e-20)
(1.02171 0.000573549 2.61122e-21)
(1.00574 -0.00650418 -2.15263e-21)
(0.997991 -0.0315403 0)
(1.00054 -0.00458753 -1.52491e-21)
(1 -4.03238e-05 0)
(0.341369 0.0655692 -1.02698e-19)
(1.00012 -0.00213836 5.67643e-21)
(1.1758 -0.0373067 0)
(1.08883 -0.0306757 -2.26208e-20)
(0.918428 0.457789 0)
(1.01758 0.00269429 -1.31636e-21)
(1.0006 -0.0676759 -5.13561e-21)
(-0.0471605 -0.221718 3.16046e-21)
(0.372732 -0.0645805 -1.29005e-19)
(0.514761 0.459634 -1.16077e-20)
(1.11954 0.0612357 -2.50096e-20)
(1.00924 -0.0103919 -4.688e-21)
(1.01153 -0.0623407 1.4517e-22)
(0.99554 -0.00999574 5.2939e-21)
(1.34277 -0.275926 2.09135e-19)
(1.01056 -0.000736918 0)
(0.339289 0.294448 -1.41684e-19)
(1.0489 -0.427183 2.74566e-20)
(1.17654 -0.206871 -5.34928e-21)
(-0.182546 0.0103029 0)
(0.58281 -0.595254 1.56812e-19)
(1.00059 -0.00214139 -2.48986e-21)
(0.999777 -0.0140589 4.81389e-21)
(1.29454 0.292202 -9.34541e-21)
(1.34859 -0.254758 -1.74737e-19)
(0.986258 -0.00560331 -1.22303e-20)
(0.0923418 0.0230829 -2.38393e-19)
(1.00062 -0.00227786 7.36334e-21)
(0.999903 -0.00244163 -3.67782e-21)
(0.532794 -0.967508 -3.30007e-20)
(1.01072 -0.00253867 -5.45386e-22)
(1.10132 0.102558 2.61277e-20)
(1.01896 0.000591249 1.71361e-21)
(0.397475 -0.919882 -6.55065e-20)
(0.999076 -0.00373312 3.12488e-21)
(1.03252 -0.00298871 0)
(0.117332 -0.115394 7.90201e-20)
(0.628139 -0.00100223 5.9082e-20)
(1.07835 0.0316263 -5.57644e-21)
(0.928719 -0.0342746 -1.34805e-20)
(1.00097 -0.0032242 6.18998e-21)
(1.00486 -0.0169566 2.53085e-21)
(1.01394 0.633115 0)
(1.15134 -0.0449877 -3.45314e-20)
(1.01729 -0.00148936 0)
(0.999807 -0.00207402 0)
(0.922896 -0.125876 -4.89141e-21)
(0.848328 0.0270847 0)
(1.08042 0.0359802 0)
(-0.414889 0.175761 5.18511e-21)
(0.999873 -0.00223233 7.45384e-21)
(0.999175 -0.011029 -3.32537e-21)
(0.706677 -0.524369 3.02164e-20)
(1.00101 -0.00317774 3.54128e-21)
(-0.129673 -0.300607 -1.65007e-19)
(0.640771 -0.581537 4.07759e-20)
(0.998087 -0.0035971 -4.70756e-23)
(0.998364 -0.00688313 0)
(1.03606 -0.000990549 -8.3543e-21)
(1.00072 -0.00254611 -2.15573e-21)
(1.02324 -0.00520764 3.94922e-21)
(0.02892 0.315701 0)
(0.764116 -0.0915831 -9.56407e-20)
(1.40435 -0.0632497 4.50439e-20)
(0.897643 0.0167146 0)
(1.03936 0.0120168 0)
(1.10489 0.0191798 0)
(0.931277 -0.00797345 -7.02975e-21)
(-0.0784034 -0.0628533 -5.78525e-20)
(0.919795 -0.0313633 0)
(0.999995 -0.000787451 0)
(1.05779 -0.021632 -1.74836e-20)
(1.28492 -0.394924 7.04796e-20)
(0.986938 -0.0161744 0)
(0.98865 -0.0136361 -2.85233e-22)
(0.983315 -0.0138602 0)
(1.01041 -0.000722304 0)
(1.00028 -0.00818977 -8.1974e-21)
(1.0173 -0.0166561 4.47474e-22)
(0.99767 -0.00415563 4.74426e-23)
(1.00047 -0.00186953 0)
(0.985122 -0.0481598 0)
(1.05603 0.00201301 0)
(1.04806 0.109857 0)
(1.0106 -0.000101562 0)
(0.221889 0.0832486 0)
(0.940245 -0.0537738 9.93958e-21)
(1.06527 -0.4573 0)
(0.21954 -0.142967 0)
(1.0235 0.00322344 3.78788e-22)
(0.186198 -0.445603 -3.86164e-20)
(1.17963 -0.180952 6.15956e-20)
(1.02349 0.00191443 3.99943e-21)
(1.01057 -0.00102613 -6.39448e-22)
(0.9919 -0.022314 -6.80448e-21)
(0.420492 0.53035 8.99837e-21)
(1.11708 0.0924116 7.68054e-21)
(1.01064 -0.000956321 4.40091e-22)
(0.999186 -0.00249404 -4.8654e-21)
(0.999937 -0.00226545 -4.58759e-21)
(0.723691 0.0991641 -3.11087e-21)
(1.09879 -0.398866 0)
(1.09738 0.0219228 1.27462e-19)
(1.00262 -0.00118252 0)
(0.988879 -0.00649133 9.59565e-21)
(0.881021 -0.0544648 0)
(-0.469362 0.103178 0)
(-0.0728832 0.549666 1.4649e-19)
(0.950668 -0.0329243 -2.3539e-20)
(1.046 0.00062834 -9.74906e-21)
(0.134616 0.467868 2.12595e-20)
(1.41179 0.0112657 1.48472e-19)
(1.00446 0.217605 0)
(0.986946 -0.0318935 4.41092e-21)
(1.00889 -0.0112929 -3.75542e-21)
(-0.229218 -0.131001 0)
(0.997762 -0.0130129 0)
(1.13183 -0.356951 5.32435e-20)
(1.04425 0.517281 0)
(1.01683 -0.0013688 0)
(0.659843 -0.425123 3.87355e-20)
(1.07392 -0.0339847 0)
(-0.00310988 0.0929434 0)
(1.00493 -0.0163636 -6.95773e-21)
(-0.0552302 -0.265107 -1.17514e-20)
(1.32041 -0.0080611 0)
(1.05037 0.0192948 0)
(1.38364 -0.0516812 -1.47075e-19)
(0.998628 -0.0129322 5.9648e-21)
(0.962174 -0.764842 5.88978e-20)
(0.998924 -0.00346203 -4.52183e-21)
(1.00066 -0.0137593 -2.05784e-21)
(1.00008 -0.00180139 0)
(0.997115 -0.01033 6.63691e-21)
(0.671299 0.700662 -2.74906e-19)
(0.999149 -0.013458 9.09274e-21)
(1.0227 -0.00139069 -2.50282e-21)
(0.961365 -0.0260833 -5.78561e-21)
(1.01881 -0.000184091 1.34996e-21)
(1.00875 -0.0116709 1.80443e-23)
(1.10129 -0.163236 0)
(0.997664 -0.0503519 5.80016e-21)
(1.07296 0.0230503 5.98712e-21)
(1.00176 -0.00378623 5.77234e-21)
(1.00161 -0.00365114 5.74994e-24)
(-0.0612148 -0.223422 5.3511e-20)
(0.665875 0.00589521 -1.03434e-19)
(0.952905 -0.0320455 0)
(0.152609 0.55663 0)
(1.05448 0.000846341 0)
(0.994716 -0.0358577 0)
(0.995158 -0.00323999 9.58354e-21)
(1.02353 -0.00479955 -1.66385e-21)
(0.111188 0.0337415 -1.44128e-19)
(1.02242 -0.000935511 2.6159e-21)
(1.0013 -0.000508871 3.41876e-21)
(-0.508177 0.0507009 -1.63615e-19)
(1.42389 0.158683 -9.9709e-22)
(0.999547 -0.172149 7.5876e-23)
(1.00324 -0.00860612 -5.55542e-21)
(0.999995 -0.000350007 6.90168e-21)
(1.03334 -0.0146502 4.54146e-21)
(1.00003 -0.00153633 0)
(0.170133 0.530119 0)
(0.982315 -0.0285178 5.86657e-21)
(0.543007 -0.762492 8.31592e-20)
(1.04817 0.00917556 -8.88294e-21)
(0.31828 0.415692 -8.69777e-20)
(0.999993 -0.00095977 6.13057e-21)
(-0.538834 0.0738502 3.6775e-19)
(1.00682 -0.000201319 -1.82306e-21)
(1.20802 -0.369494 7.61083e-20)
(0.996871 -0.0125342 4.42382e-21)
(1.04797 -0.00199946 -4.76662e-21)
(-0.0740795 -0.366418 -5.33917e-21)
(0.999045 -0.00310387 0)
(1.27141 0.334853 -1.05136e-19)
(0.994573 -0.0142107 -2.74506e-22)
(1.00016 -0.000129835 0)
(1.01766 -0.00349756 0)
(0.75653 0.738494 3.65992e-20)
(-0.218274 -0.210067 -6.75693e-20)
(0.990885 -0.0218815 7.59399e-21)
(1.07754 -0.0335239 0)
(1.02198 8.46852e-05 0)
(0.140617 0.410132 6.09528e-20)
(1.01107 -0.000134406 0)
(1.11387 -0.131988 0)
(-0.0182093 -0.170741 0)
(0.925113 -0.00620899 1.15421e-21)
(1.00176 -0.000905685 -3.59072e-21)
(0.845071 -0.164746 -2.32535e-20)
(1.00011 -0.000626528 0)
(1.03437 -0.0140363 0)
(1.02392 -0.00772499 0)
(1.0472 0.0945846 9.39078e-21)
(1.00309 -0.00332364 -1.97412e-21)
(0.0962773 0.31108 -8.33522e-20)
(1.00145 -0.00361874 2.8759e-22)
(1.00165 -0.0339486 0)
(1.06735 0.029777 -5.17089e-21)
(0.81476 -0.277436 -3.75231e-20)
(1.02901 0.367745 2.69319e-20)
(1.01769 -0.0138345 5.06681e-23)
(-0.493836 0.0821246 0)
(1.00025 -0.0141958 -3.01971e-21)
(1.12457 -0.419469 1.31525e-20)
(0.990874 -0.0104198 -1.78632e-20)
(1.03527 -0.0040043 -7.19927e-21)
(0.998156 -0.0131968 0)
(1.00141 -0.00366439 -2.3837e-22)
(0.999985 -0.000791465 -7.69929e-22)
(1.12232 -0.44445 1.36478e-20)
(1.06688 0.0389955 7.23142e-22)
(1.19776 0.283583 1.04637e-19)
(1.23982 -0.0251726 0)
(0.860833 -0.0773349 -5.58948e-20)
(0.946097 -0.139643 3.37252e-20)
(0.611441 -0.936209 2.44499e-20)
(1.05254 -0.021138 4.0649e-22)
(0.182839 0.552788 -6.13996e-20)
(-0.32539 -0.377626 -1.95359e-25)
(1.21169 -0.398251 2.79828e-21)
(1.42575 -0.0443111 -7.55934e-20)
(1.02487 0.462812 3.27253e-20)
(1.15655 -0.374462 -5.69744e-20)
(1.03451 -0.0132 -2.53537e-21)
(0.0636523 -0.220738 3.94391e-20)
(1.06638 0.0298883 0)
(1.03389 -0.00454105 7.1047e-21)
(1.23853 -0.409383 8.55731e-21)
(1.00007 -0.000553135 0)
(0.955606 -0.594186 3.31298e-21)
(1.00353 -0.157279 0)
(1.15685 0.220709 3.41072e-20)
(0.902333 0.00868698 -6.02848e-20)
(0.382348 -0.286139 1.17383e-21)
(-0.593313 -0.260994 -2.1971e-19)
(1.06772 0.0282556 0)
(1.14108 0.203993 3.26753e-21)
(0.999913 -0.00199651 0)
(1.16899 -0.555238 0)
(0.955491 0.00039493 0)
(0.997003 -0.0122404 0)
(0.996314 -0.0315003 0)
(1.03351 0.0185429 9.31564e-23)
(1.1434 -0.0467938 0)
(-0.223754 -0.0105346 8.66975e-20)
(0.97083 -0.516299 7.87454e-21)
(-0.42997 0.191598 -3.3155e-20)
(1.04922 -0.0233838 -5.99963e-21)
(0.976377 -0.0535839 1.04712e-20)
(0.0332953 0.116579 -2.99598e-21)
(0.431641 0.0763637 -2.74094e-19)
(1.04477 -0.00185814 4.4789e-22)
(1.12535 0.0483665 0)
(0.978908 -0.0320396 2.78897e-22)
(0.266316 -0.855498 3.27643e-20)
(0.135034 -0.225344 3.73626e-21)
(0.998059 -0.00392959 -6.39135e-21)
(0.706938 0.0557396 8.94156e-20)
(0.730041 -0.480294 -4.89036e-20)
(-0.505608 -0.394026 1.76902e-19)
(1.00293 -0.00105572 -1.83741e-21)
(0.94618 -0.0642486 1.97763e-20)
(0.85906 0.260782 1.45427e-19)
(1.07192 0.00738113 0)
(1.21847 0.588519 -9.68927e-20)
(1.03837 0.00126792 0)
(0.877512 0.417129 -4.02171e-21)
(0.973595 -0.0782077 0)
(1.05414 -0.0234862 0)
(1.02275 -0.0202473 -1.36574e-21)
(0.989531 -0.00752113 0)
(0.898514 -0.0475932 -3.96445e-20)
(1.00001 -0.000362951 0)
(0.873766 -0.0607126 0)
(1.25239 0.0133713 0)
(1.14849 -0.233792 1.81712e-20)
(1.00003 -0.000259536 4.1086e-21)
(1.00017 -0.00114565 0)
(1.03901 0.01483 -5.42529e-21)
(1.02567 0.0083605 3.40682e-22)
(1.00532 -0.000751175 0)
(0.99233 -0.0146684 -5.28164e-21)
(1.22996 -0.0286632 0)
(0.405821 0.443061 5.60559e-22)
(0.571873 0.342093 1.11571e-20)
(1.00002 -0.000340259 0)
(1.31723 -0.291677 -9.46393e-20)
(1.0027 -0.00773419 0)
(-0.377368 -0.451712 -7.98456e-20)
(1.07666 0.0378316 3.11382e-20)
(0.813195 -0.119003 1.73597e-21)
(0.851568 0.0181188 0)
(1.3182 0.00433633 0)
(1.00797 -0.00358305 -1.2846e-21)
(0.999853 -0.00570815 0)
(0.859831 -0.159604 1.95745e-20)
(0.997211 -0.0130146 0)
(1.03196 -0.0144213 2.90528e-21)
(1.1479 0.0246127 0)
(0.237895 0.232855 3.68865e-21)
(1.01949 -0.00243151 0)
(0.896995 -0.00227168 0)
(-0.0860651 0.660462 -2.84091e-20)
(1.05889 -0.0119908 5.3412e-21)
(0.510786 -0.400196 0)
(-0.0524662 0.703248 -4.39291e-20)
(1.01797 -0.0174192 -5.03536e-22)
(1.16068 -0.0224629 -9.41354e-21)
(1.05281 0.021754 0)
(1.02115 -0.0247907 1.06863e-21)
(1.01714 -0.00364768 -8.17918e-22)
(0.65031 -0.166905 8.94828e-20)
(-0.0578038 0.650072 2.26804e-20)
(-0.261355 0.135158 2.74019e-19)
(0.986234 -0.0172446 -8.81289e-21)
(0.99678 -0.00433543 -8.02264e-21)
(1.01665 -0.00628068 0)
(1.03573 0.0255085 -2.16734e-21)
(1.00026 -0.0496131 2.52649e-21)
(0.992122 -0.0630382 0)
(0.523744 0.397644 0)
(1.07319 0.0369649 2.46093e-20)
(1.0005 -0.00197579 0)
(1.45551 0.0161504 1.32796e-19)
(1.07627 0.00553718 1.57443e-20)
(0.870888 -0.0781898 5.73352e-20)
(1.03137 -0.0132595 -5.66422e-21)
(-0.576318 0.0415264 0)
(1.04924 0.00114815 0)
(1.00379 -0.00239461 -1.97086e-21)
(1.16074 -0.228165 6.94771e-20)
(0.151493 0.0662958 3.23173e-20)
(1.01779 -0.00133215 -5.68201e-22)
(0.997709 -0.00381111 -6.45801e-21)
(0.995903 -0.00954172 1.76284e-21)
(1.04821 0.0188281 0)
(1.00797 -0.00337076 1.28524e-21)
(1.06949 0.0279794 5.67802e-21)
(1.34753 0.185444 1.17894e-20)
(1.00442 -0.0362257 -6.69713e-21)
(1.03749 0.0905039 -1.05203e-20)
(1.04336 -0.00267924 8.02086e-21)
(1.02991 -0.012994 0)
(1.06476 0.389918 -6.24995e-20)
(-0.116884 -0.425751 -5.17741e-20)
(0.892167 0.17465 0)
(0.999931 -0.00516256 -1.89806e-21)
(1.01836 -0.000859021 1.28014e-21)
(0.601855 0.0309349 -3.79056e-20)
(0.924539 -0.0281892 3.28074e-20)
(0.763348 -0.0520496 3.7798e-20)
(1.01709 -0.000789318 -4.53471e-22)
(0.993879 -0.0143036 0)
(-0.448521 -0.0166708 -9.79034e-20)
(0.537789 -0.818486 -1.01372e-19)
(1.08659 -0.0408163 1.02619e-20)
(1.08194 0.109283 -2.24565e-20)
(0.712491 -0.00443127 0)
(0.999354 -0.0144616 6.35526e-21)
(1.00002 -0.000215243 0)
(1.01832 -0.0251046 4.00155e-22)
(-0.0552402 -0.173231 1.98542e-19)
(1.00142 -0.000633788 0)
(0.999997 -4.8913e-05 -7.65041e-21)
(0.0306196 -0.0767858 8.62255e-22)
(0.907057 0.00925438 9.25524e-22)
(1.31708 -0.0681328 -1.34335e-19)
(0.859119 0.00164445 8.30706e-20)
(1.00316 -0.00788027 0)
(-0.0783705 -0.42289 0)
(1.00004 -0.000738109 -3.67742e-21)
(0.992448 -0.0116857 5.00266e-21)
(1.0172 -0.0248974 0)
(0.953736 -0.115687 1.34392e-20)
(-0.041784 -0.129355 4.49702e-21)
(1.00027 -0.00257893 -6.20895e-21)
(0.994593 -0.00374586 0)
(0.99701 -0.0132504 0)
(0.998723 -0.0137516 6.2062e-21)
(1.00293 -0.00799023 0)
(1.02297 -0.021168 0)
(1.42277 -0.0351264 0)
(0.947867 -0.121553 0)
(0.984372 -0.0455159 6.00209e-21)
(1.00046 -0.00358025 2.97417e-21)
(0.938794 -0.118565 0)
(1.17116 -0.0150535 0)
(1.0495 0.0225792 2.2633e-21)
(0.898029 0.0126281 5.93749e-20)
(1 -9.13306e-05 4.02836e-21)
(1.01644 -0.00587669 5.69654e-22)
(1.01945 -0.0547375 9.37753e-22)
(-0.169566 -0.283016 0)
(0.894312 -0.0057789 0)
(1.03758 0.0120386 0)
(-0.356992 0.140047 -9.83499e-20)
(0.999891 -0.00195198 9.36986e-22)
(0.972309 -0.0734345 2.53213e-20)
(1.42772 -0.207824 -1.05492e-19)
(0.160082 -0.21233 5.29429e-20)
(1.02071 -0.0128389 0)
(1.00016 -0.00239639 0)
(0.442607 0.175765 1.04491e-20)
(1.1044 0.0384918 -1.0666e-20)
(1.00401 -0.00240858 -3.83162e-21)
(0.999988 -0.00137037 4.08477e-22)
(0.11907 0.370637 -4.38799e-20)
(1.00003 -0.000157601 -3.85434e-21)
(1.1901 -0.0937043 0)
(0.99814 -0.00691887 3.52155e-22)
(0.363946 -0.0266256 2.04121e-19)
(0.999993 -0.00140385 7.37197e-23)
(1.00725 -9.06913e-05 1.27697e-21)
(0.999292 -0.00249833 9.62498e-21)
(1.07766 -0.0717361 1.06803e-20)
(1.02472 0.00816001 -1.52051e-22)
(0.95341 -0.0526069 -8.72509e-21)
(0.917729 0.00355226 2.64232e-20)
(0.554404 0.067327 -3.99839e-20)
(1.0052 -0.00705431 3.01947e-21)
(1.00042 -0.00799167 7.93438e-21)
(1.00007 -0.000366702 0)
(1.00107 -0.0139089 1.08945e-23)
(1.03432 -0.0110991 0)
(1.02863 0.000751614 3.13039e-24)
(1.0918 -0.033708 -1.53333e-21)
(0.99907 -0.00276854 0)
(1.07811 0.0438482 0)
(0.623122 0.414029 0)
(1.12632 -0.0122083 0)
(1.15638 0.0253615 -3.91133e-20)
(0.999874 -0.00214425 -1.50264e-20)
(1.02419 -0.007139 0)
(-0.389642 -0.0363131 -1.4494e-20)
(0.518331 -0.267965 1.94948e-20)
(1.01673 -0.00333215 9.32572e-23)
(0.469358 -0.173503 0)
(-0.477855 0.0450398 0)
(1.0187 -0.000962083 -2.04759e-21)
(0.994434 -0.00415658 0)
(1.00357 -0.0117234 3.81829e-21)
(1.20812 -0.171513 4.98241e-20)
(1.07448 0.0457769 2.76165e-21)
(0.141388 -0.168425 2.1607e-19)
(1.00561 -0.00681133 2.09441e-21)
(1.03991 -0.0655549 2.95428e-21)
(1.00542 -0.00493946 -7.7896e-22)
(0.978667 -0.0287362 1.44925e-20)
(1.00668 -0.000168514 0)
(1.13618 -0.263597 8.57073e-21)
(1.03416 -0.0100963 0)
(1.3071 -0.0858689 0)
(1.00002 -0.00438531 4.47508e-22)
(0.979065 -0.261543 2.56238e-21)
(1.00455 -0.00684978 -3.89825e-21)
(0.979333 -0.0496833 1.28335e-20)
(0.991172 -0.0118237 -1.13718e-20)
(1.06396 0.0378488 -3.81522e-21)
(0.738795 0.100651 5.33898e-21)
(-0.472038 0.0478417 1.55894e-22)
(0.9013 -0.610886 8.6015e-21)
(0.382787 -0.133442 2.92843e-21)
(1.10837 0.0302038 3.93295e-21)
(0.993713 -0.0150985 -4.65462e-21)
(0.632609 -0.867441 0)
(0.0758615 -0.185753 7.29965e-20)
(1.07101 0.0542812 1.02863e-20)
(1.03169 -0.00970559 -6.21348e-21)
(1.00044 -0.00450008 0)
(0.173479 0.191079 6.50813e-20)
(1.00389 -0.0119199 3.8862e-21)
(-0.0427185 -0.116022 -2.00594e-20)
(1.01895 0.00143247 7.83321e-22)
(1.06371 0.018897 -8.67304e-21)
(1.03572 -0.00866502 1.36865e-20)
(0.999973 -0.000661856 9.70052e-21)
(1.02091 -0.0137187 0)
(1.39466 0.34175 0)
(0.046425 -0.107919 -2.11859e-19)
(-0.0346477 -0.0999165 0)
(0.682654 0.0135241 1.36456e-19)
(-0.382299 -0.0475388 1.30145e-20)
(0.996911 -0.0099711 -6.59768e-21)
(0.303837 0.511505 5.0085e-21)
(0.829074 0.025779 0)
(1.00002 -0.000109818 0)
(1.0006 -0.0327661 3.76948e-21)
(1.00919 -0.0045589 -9.08201e-22)
(0.908049 0.360633 4.134e-21)
(1.01642 -0.00159576 -1.05291e-22)
(-0.106849 0.11202 -5.51884e-20)
(0.874197 -0.060936 -3.42453e-20)
(1.22978 0.0824607 -4.7902e-21)
(1.01531 -0.0360736 -7.48313e-23)
(1.4006 -0.276253 1.79753e-19)
(-0.310675 0.194401 2.80596e-19)
(0.173057 -0.0211596 -2.21452e-19)
(0.967618 -0.111104 0)
(1.09493 -0.0195017 2.18097e-20)
(1.00161 -0.000942105 4.18476e-21)
(0.600455 -0.17313 -2.38723e-19)
(1.01649 -0.000446803 0)
(0.410368 0.270043 1.38282e-19)
(1.28767 0.1062 8.26458e-20)
(0.858988 -0.273853 2.58741e-20)
(1.00565 0.0987467 6.46821e-20)
(0.578642 0.396874 2.85814e-19)
(1.0549 -0.0116981 -7.08568e-21)
(1.02451 -0.0528119 1.77289e-21)
(1.00322 -0.00359338 -2.43081e-22)
(1.06073 -0.0195998 0)
(0.00416967 0.0770394 2.13658e-19)
(-0.362613 0.0593471 -1.7839e-19)
(1.00862 -0.00444259 0)
(0.21754 0.582111 5.83211e-21)
(1.04749 0.0221446 7.70233e-21)
(1.06275 0.131491 -2.5402e-21)
(0.580674 0.0720732 -1.74848e-20)
(0.242747 0.284628 1.21778e-21)
(0.308885 0.29765 -1.44358e-21)
(1.01953 0.00242241 0)
(0.938049 -0.0575925 0)
(1.07465 0.0124176 0)
(1.0474 0.0106164 0)
(1.03975 0.0162206 -2.86625e-23)
(0.956996 -0.0808096 0)
(0.999966 -0.00229531 5.97758e-21)
(1.05607 -0.0168615 -2.3084e-21)
(1.01109 -5.40423e-05 -9.72822e-23)
(1.01889 0.00229557 -1.65988e-21)
(1.18585 -0.158326 0)
(1.08697 0.122362 7.60076e-22)
(0.886184 0.3236 0)
(1.04071 -0.0187708 -9.00827e-21)
(0.969118 -0.41015 -2.3171e-19)
(1.48655 -0.0904593 1.0792e-19)
(1.38543 -0.176236 -1.69485e-19)
(0.910487 0.00371778 2.74637e-20)
(1.00013 -0.000554303 0)
(1.03993 -0.0201073 7.55293e-21)
(1.00016 -0.000565031 0)
(0.989995 -0.012798 -1.52013e-20)
(1.39408 -0.197941 9.22763e-20)
(0.793442 -0.0652634 -4.17703e-20)
(1.02743 -0.0267441 -2.11558e-21)
(0.990264 -0.0108112 -6.44015e-21)
(1.07383 0.0168927 0)
(0.202253 -0.21785 1.62374e-19)
(1.03501 -0.0738093 -5.69233e-21)
(0.989888 -0.00518492 3.93362e-21)
(0.396769 0.0664734 2.61984e-19)
(0.996147 -0.0105069 0)
(1 -0.000473853 -9.3068e-21)
(1.01691 -0.000474467 -5.34735e-22)
(1.05987 0.0425091 0)
(0.997252 -0.00428582 1.07849e-22)
(1.05199 0.0108489 -2.72206e-21)
(-0.105802 -0.0631007 -2.15428e-20)
(1.17613 -0.0297818 0)
(1.00437 -0.000117309 1.4096e-21)
(0.139521 0.554517 0)
(0.589361 0.0205977 6.26407e-20)
(0.996378 -0.0109644 0)
(1.03695 0.0104074 0)
(1.09935 -0.0125447 0)
(1.00004 -0.000173069 0)
(1.00227 -0.0075325 2.76723e-21)
(1.01695 -0.0124996 -2.16109e-22)
(1.31334 -0.0359452 0)
(1.05951 -0.289112 8.82787e-21)
(1.00571 -0.0373932 -3.2458e-21)
(1.10316 -0.0112489 -1.63877e-20)
(0.835126 0.0106399 2.7136e-20)
(1.1791 -0.528514 0)
(0.986426 -0.0134431 9.50843e-21)
(0.420587 0.695521 0)