/*--------------------------------*- C++ -*----------------------------------*\
| =========                 |                                                 |
| \\      /  F ield         | OpenFOAM: The Open Source CFD Toolbox           |
|  \\    /   O peration     | Version:  v2012                                 |
|   \\  /    A nd           | Website:  www.openfoam.com                      |
|    \\/     M anipulation  |                                                 |
\*---------------------------------------------------------------------------*/
FoamFile
{
    version     2.0;
    format      ascii;
    class       volScalarField;
    location    "1000";
    object      p;
}
// * * * * * * * * * * * * * * * * * * * * * * * * * * * * * * * * * * * * * //

dimensions      [0 2 -2 0 0 0 0];


internalField   nonuniform List<scalar> 
10042
(
0.0284109
0.0256062
-0.013842
0.00059641
-0.333165
0.0244366
-0.226921
-0.234434
-0.00809877
0.0182267
-0.351993
0.000213158
0.000877535
0.000244495
0.0662392
0.0233605
0.0234958
0.0183059
0.0282019
0.251536
0.0148413
-0.172181
0.00129789
0.00323418
0.0255224
-0.0624355
0.02597
0.0320606
0.00209885
0.0242426
0.0283779
-0.397473
0.0181364
0.00652451
-0.0389258
0.0036702
-0.0588403
-0.0714811
0.00385614
0.0196168
0.272443
0.0580386
-0.226306
0.0333952
-0.33652
-0.10905
0.049989
-0.113764
-0.0522525
-0.0739786
0.0170507
-0.0220989
0.066842
-0.0286123
-0.0588197
0.0243121
0.00121665
0.049313
0.0058283
0.0647323
0.0271275
0.0276006
-0.0397326
-0.0129624
0.0605348
0.00316477
0.0523914
0.239289
-0.322352
0.0246843
-0.0280365
0.27995
0.0345876
0.152993
0.0512249
0.00301551
-0.332611
0.0283709
0.117588
-0.241036
-0.0498918
-0.324746
0.0184939
0.0554091
0.0525493
0.0208439
0.0276371
-0.165235
0.0400024
0.0271997
-0.007584
-0.335329
0.0310303
-0.0212889
0.0253444
0.00914598
0.0240974
0.0148947
0.019377
-0.00345164
0.0181171
-0.157796
-0.22422
0.0207116
0.0381494
-0.0326284
0.0313403
0.0240319
0.0148562
-0.00492755
0.00710626
0.0197164
-0.0104567
-0.321471
0.0594754
0.0225482
0.0340915
0.0285706
0.00844043
-0.387893
0.039831
-0.228237
0.0300683
0.0311836
-0.155113
0.0193375
-0.23119
-0.0523138
-0.0246113
0.0265731
0.119274
0.0466573
-0.367504
-0.20379
-0.00249705
-0.0884306
-0.394441
-0.00757406
-0.118425
-0.175732
0.0442172
0.0345526
0.0430332
-0.194366
-0.0175622
0.0199333
-0.105455
-0.0083223
0.0150731
0.0146331
-0.0103363
0.0175074
-0.271354
-0.385979
0.0250001
0.000866629
0.0726856
0.0279461
-0.0880141
-0.40586
-0.340822
-0.183004
0.0294919
-0.00978726
0.0149623
0.0458421
0.0464282
-0.395227
-0.396463
-0.3813
-0.0264959
0.0164493
-0.329171
0.235042
0.103115
-0.189361
-0.314963
0.0318745
0.246448
-0.0355123
0.075025
-0.399089
0.0534794
-0.0499032
0.0580333
-0.390324
-0.219684
0.00495814
-0.33444
-0.0280256
-0.0401408
0.0449353
-0.272442
-0.326502
-0.157252
-0.289822
-0.044863
0.0302553
0.00112827
-0.00204816
0.125081
0.00390427
0.0181228
0.209869
0.0537664
0.00233245
-0.0924897
0.0252224
0.0188283
0.0238984
-0.285443
-2.36166e-05
0.0531298
-0.102194
0.0708948
-0.224588
0.0477703
0.0221096
-0.127972
0.011517
-0.0135089
0.0735961
-0.182188
-0.0736631
0.0806702
-0.0655905
-0.223911
0.0212355
-0.202264
-0.0293504
-0.00889286
0.122338
0.0168475
-0.0289295
-0.0142165
0.0118489
0.00452961
-0.000317143
-0.0308719
-0.0415942
0.0295828
0.0314851
0.0149668
-0.00980867
0.0220518
0.028134
0.00356946
0.0375962
-0.0275139
0.0181905
0.00114584
0.0239926
0.0343047
-0.198139
-0.183967
-0.333519
0.109591
0.0892158
0.0667175
-0.117596
-0.192109
-0.0292114
0.0311577
-8.35164e-05
1.66748e-05
0.0047175
-0.173428
-0.0335085
0.0271323
0.0237826
0.133636
-0.0285124
-0.106936
0.0947569
-0.191805
-0.02842
-0.0409312
0.00560071
-0.0452992
-0.0182113
-0.0388101
0.0353447
-0.061953
-0.368469
0.00268511
-0.0101669
-0.197799
-0.113135
0.00497285
0.0275144
0.0335302
-0.181269
-0.1185
-0.200237
0.0170864
0.00106255
0.0209822
-0.00805935
-0.223035
0.0306482
0.0270539
0.0172534
0.0477515
-0.0702857
0.0584652
-0.0892368
-0.310349
0.0633936
-0.283442
0.0219912
-0.0436802
0.0261634
-0.384396
-0.159939
-0.302413
-0.311589
0.00228192
-0.0341475
0.0242927
0.0483946
-0.0654077
0.0206639
-0.0276629
0.00672676
-0.000709227
0.0331614
-0.0953318
0.0229214
-0.0260233
0.04542
0.0563738
-0.318751
0.02244
0.0251103
0.0150928
-0.0125487
-0.0516528
-0.158592
0.0804791
-0.266618
-0.0717149
-0.0466925
0.0462769
-1.16664e-05
-0.0120894
0.0184424
-0.25034
0.0350035
0.00401064
-0.0982401
0.018839
0.0444354
0.0556326
-0.100974
-0.0170476
0.0792533
-0.0229013
-0.0231219
-0.00485225
0.0313875
-0.273355
-0.110982
-0.0231679
-0.0516539
0.0208628
0.0167066
0.020525
0.0469886
-0.290599
-0.0376977
0.020097
0.0613725
0.0185909
0.0229032
0.235723
0.0305146
-0.00381177
-0.39348
0.0133578
-0.227203
-0.251975
0.151568
-0.181251
-0.331061
0.0192804
0.140636
0.0254095
-0.0769481
0.0234399
0.0499369
-0.112014
0.0213311
0.0506871
-0.114809
0.00116038
0.0151005
0.218195
-0.0108186
0.00357564
-0.00771964
-0.395857
-0.162912
0.0165949
0.245131
-0.323449
0.0110755
0.0201257
-0.000116459
0.0252263
-0.000591427
0.00264735
-0.282527
-0.229221
0.0506275
-0.312723
0.000464515
0.0304938
-0.266451
-0.0186779
-0.230764
-0.123569
0.0573243
-0.00502433
-0.00726394
-0.0814753
-0.027497
0.0234881
0.0314988
-0.350232
0.0687794
-0.313926
0.0632573
0.0177927
0.0222169
-0.247217
0.0183889
0.112116
0.0276676
-0.0162316
-0.405252
-0.0448938
0.0344474
0.00639391
-0.397129
0.0259447
-0.046067
0.00420293
0.00536697
-0.305153
-0.185151
0.0147373
0.0574536
-0.0390256
0.001287
0.0232244
0.0321437
-0.395314
0.0306272
0.000189364
0.0521319
-0.221421
-0.11997
0.018702
-0.0366819
-0.320936
-0.0725555
0.0356967
0.0310102
-0.205777
-0.0222859
0.0177002
0.119871
-0.00905228
0.00296308
0.0756065
1.32668e-05
0.0574418
0.0318319
0.0187265
-0.351062
0.00937463
-0.0253831
0.0207303
0.0303358
-0.0303668
0.0148836
-0.0116662
-0.30147
0.0275
-0.268586
-0.0280108
0.0182153
0.0179961
-0.171054
0.0362173
0.0345376
0.0156329
-0.0246477
0.0745305
-0.238339
0.0265249
0.0645861
0.0460001
-0.0717057
0.0194266
0.0325127
-0.0201509
0.0210938
0.0232098
-0.303133
-0.393875
0.0213314
-0.05216
-0.0561216
-0.0544226
0.0523862
0.00494555
-0.209868
-0.0869731
0.0177559
-0.00455289
-0.0210538
-0.0177938
0.0136731
-0.336147
-0.0477027
-0.0243586
0.00276001
0.00826094
0.0502071
-0.213933
-0.0460895
0.0259191
-0.395075
0.0199356
-0.0901216
-0.0407183
0.0231684
-0.0022392
-0.0716877
-0.0995984
-0.308676
-0.393031
0.0805101
0.115545
0.0199943
-0.0256454
0.0564451
0.0201134
-0.343842
0.00327126
0.022277
-0.102119
0.0212381
-0.157484
-0.026408
-0.165182
0.00610497
0.0240205
-0.0327686
-0.0410953
-0.0580464
-0.0434468
0.0340032
0.0235989
-0.0723998
-0.00381658
0.0104024
0.0186722
-0.0119452
0.0288276
0.0818054
-0.119946
0.165506
0.0259866
0.0287094
0.0154942
0.0348446
0.158871
0.0151932
0.00841721
-0.165612
0.0003152
-0.0995223
-0.0764691
0.0278203
-0.392814
-0.091852
0.02204
-0.229458
-0.0159109
0.0189829
0.046361
0.0310577
0.0223886
-0.0260475
0.0511964
0.0157171
0.0419987
0.0320537
0.000356486
-0.0345519
-0.073564
0.03151
-0.0402526
-0.00155013
-0.0689189
0.0445666
0.00934549
-0.00435088
0.080201
-0.00653839
0.0200098
-0.299122
0.00034979
0.162132
0.0323691
-0.0286939
0.00869166
-0.0735158
0.0207853
-0.0947102
0.00359196
-0.223836
0.0230713
-0.21631
-0.00840515
0.0573054
0.024415
0.0488662
0.0210727
-0.0244741
0.0287823
0.287851
-0.373443
-0.148908
-0.0376314
0.0762452
0.0167112
0.0388287
-0.108446
0.0178457
0.113872
0.0346558
-0.306788
-0.0734927
-0.329806
-0.0441084
0.0282576
0.020646
-0.0427994
-0.0275257
-0.0572046
0.0025092
-0.00847331
-0.179257
0.0174575
0.0349431
-0.0418681
-0.306809
0.0551418
-0.0337315
-0.0695299
0.024067
-0.238997
0.00287818
0.0162211
0.0225839
-0.009003
-0.385442
-0.110997
-0.30947
0.0158504
-0.31591
-0.392608
-0.243026
-0.0574821
-0.11849
-0.19853
0.0107169
0.0457503
0.0282425
0.122165
-0.375553
0.015129
0.0538647
-0.28947
0.0321075
0.0191479
0.0110705
0.0385062
0.0213813
-0.0182374
-0.163766
-0.302996
-0.0174118
0.021852
-0.366106
-0.271809
0.0173845
0.0350296
0.0170954
0.0258755
-0.274153
-0.108859
-0.0797002
0.0403402
0.0193239
-0.0106141
0.0768304
0.0268783
-0.0714329
0.0594576
-0.320306
0.0238952
0.0182683
-0.0267426
0.0150928
-0.0612233
0.10662
-0.0312191
-0.388317
-0.305669
0.0298392
0.0230201
-0.277867
-0.358887
0.0316498
-0.0151858
-0.236922
0.16786
0.107925
0.0448571
0.0151689
0.0151866
-0.127789
-0.0363786
0.184492
0.0192851
-0.318544
-0.283002
0.0324131
0.0269433
0.281964
0.0252186
0.00833527
0.026818
-0.352092
-0.304811
-0.29827
-0.024459
-0.116123
0.011822
0.00431325
0.00862395
0.0250383
-0.133007
0.0193008
0.032078
-0.114364
0.0512001
-0.122882
0.0167089
0.0263065
0.00645711
0.025824
-0.197415
0.0194301
0.024457
-0.0926448
0.0665278
0.0689826
0.0216346
-0.160362
-0.272939
-0.268187
0.0597992
-0.39234
-0.405115
0.0317353
0.00116605
0.0445933
0.0785099
-0.298395
0.00221002
0.0185366
0.0196404
-0.272394
0.0386407
-0.0234301
0.0185093
0.0354803
-0.0584257
0.00900116
0.01033
-0.0665619
0.0392204
0.0249404
-0.00475984
0.0713622
-0.00936353
0.034547
0.0290164
0.0274419
-0.191364
0.0214729
0.0505671
0.0274505
-0.0427458
0.170742
0.0191534
0.0674051
-0.0152035
-0.302505
0.00164399
-0.0039978
-0.064238
-0.159688
0.215493
0.0596788
-0.336486
-0.200811
0.0649857
0.00601543
-0.243116
0.0273693
0.0204769
0.0075014
0.0202693
-0.110991
0.0173646
0.0227515
0.117886
0.00726003
0.00121083
0.097115
0.0735299
-0.305072
-0.0311594
0.041158
0.0251109
-0.10383
0.0318628
-0.289702
-0.035715
-0.338994
0.0196045
-0.0413456
0.0165938
0.0274353
0.0371815
-0.160222
0.149877
-0.0674596
-0.338811
0.0190598
-0.277962
-0.0403706
0.00101536
0.147873
-0.0619478
-0.306571
0.0273423
0.0782136
0.0721425
0.00625064
0.173341
0.0187164
0.0022469
0.0184579
-0.0479919
0.0251406
0.0184574
0.00830808
0.0073661
0.0203352
0.0223976
-5.62604e-05
0.0198041
0.0253852
0.0682362
0.0242812
0.0917696
0.0308571
-0.300227
0.0235615
-0.305749
0.11803
-0.311509
-0.0688246
-0.0399602
-0.396154
-0.0757683
-0.0720207
-0.269314
-0.0591216
0.0197697
0.017145
0.0227837
-0.197207
0.0120356
-0.367493
0.0207028
-0.353795
-0.211313
-0.0667821
-0.0252737
-0.393058
-0.316702
0.0829238
0.0313382
0.024351
-0.0398756
0.00201232
0.0052172
-0.0797091
-0.0989734
0.0273365
0.0129496
0.0662016
-0.250126
-0.0748019
0.0242892
-0.0137019
-0.158385
0.0306398
0.0221646
-0.370328
0.0408018
0.0301328
-0.185167
0.0305429
0.0466017
-0.396944
-0.20651
-0.392739
0.0345734
0.0502445
-0.240933
0.00811377
0.00339817
0.0225645
-0.0501584
0.0267316
0.0166293
-0.0299133
0.210125
0.041881
0.0126062
0.0435879
0.0273643
0.00350233
0.042882
0.00318437
-0.191626
0.0239474
0.0334089
0.0292263
0.0109442
0.0168416
-0.00730303
-0.352791
-0.0598509
-0.0078415
0.0311534
0.158175
-0.289994
0.0284488
0.0167912
0.0289893
-0.00705914
-0.325387
-0.0693559
0.00253195
0.0160119
-0.0594698
-0.0244022
0.0255982
0.0232646
0.0325797
-0.00912334
-0.0482743
0.0437551
-0.213972
-0.0470674
0.0269785
-0.0314618
-0.3313
0.0707287
-0.165386
-0.00297417
-0.242016
0.0199621
-0.021516
-0.0413186
-0.104593
0.0350813
-0.0153384
0.0218225
-0.0276795
0.181954
-0.0537105
-0.116067
-0.0237438
0.0152672
0.0374182
0.0324214
0.0345449
-0.224741
0.0298109
0.00418361
0.030971
-0.0234108
-0.286191
0.0148427
0.0163059
-0.151013
-0.0115103
0.0267455
0.0359448
-0.145902
-0.0168132
-0.0484736
-0.385976
0.0310916
0.0252739
-0.271028
0.0161292
0.0405908
0.0122196
-0.00761342
0.00250098
0.0441367
0.0190127
-0.0225011
-0.0272477
-0.335575
0.0305635
0.0183027
0.0639126
0.0786566
-0.204116
-0.336667
-0.029553
0.0204353
-0.254578
-0.0148679
-0.299936
0.0250764
0.0138029
-0.000351227
-0.396244
0.0204338
0.0447709
0.0257444
-0.0736513
-0.272306
0.0153017
-0.0933067
0.0326104
0.0186278
-0.070864
-0.0319899
0.0153272
-0.0272796
0.031085
-0.273304
-0.370446
0.024951
0.0775724
0.022022
-0.125744
0.0239258
-0.382838
0.0316545
-0.0083561
0.00222056
-0.00650258
-0.0322432
0.0176401
0.0290513
0.0508694
-0.240729
-0.15106
0.00632925
-0.0377381
-0.0383084
0.0169788
-0.0100507
0.111551
-0.00165854
0.0462048
0.08353
-0.0571199
0.017702
0.0160339
0.0655327
-0.00394155
-0.181885
-0.0047539
-0.110049
0.049072
0.0275013
-0.0159969
-0.0781773
-0.0199163
0.0110806
-0.0391838
-0.133296
0.0452368
0.0115306
-0.0295664
0.0173185
-0.392665
-0.0422958
0.00878493
-0.376777
0.0789916
-0.0740296
-0.162739
0.0186868
-0.0591421
-0.396039
-0.0521798
-0.1539
-0.00896941
-0.0157479
0.0137706
0.0455935
-0.0478678
0.00600113
0.179145
0.0229205
0.0451311
-0.0597178
0.0311873
-0.102138
-0.0413876
0.0182108
0.0199047
0.114145
-0.0879737
-0.00161413
-0.068114
-0.367304
0.191497
-0.0100198
-0.0528327
0.0173485
0.0056314
-0.314108
0.0167499
0.010354
-0.10852
0.0287353
-0.0512644
0.000649987
0.0235988
-0.227395
0.00464747
0.00273958
-0.0166629
0.0352547
-0.00805956
0.0175132
-0.321816
0.0475786
0.0183906
-0.00442323
-0.127611
0.0636432
0.00116533
0.0366282
0.0371771
0.0352857
0.0359161
0.00711636
0.0265038
0.0102685
-0.0399065
-0.0653573
-0.0280914
0.0804203
-0.0818571
-0.137963
0.112086
0.111728
0.0614527
-0.283771
0.044373
0.00901173
0.014885
0.0173882
0.0573012
0.0125382
-0.306954
-0.36304
-0.265043
0.0190981
-0.0186812
-0.0075654
-0.00337736
0.170025
-0.00905793
-0.261981
-0.102226
-0.357174
-0.137517
-0.169302
-0.300267
0.00405071
-0.0297124
-0.0034711
0.00902943
-0.3024
-0.00942807
0.101989
0.0143945
0.0303172
0.0262028
-0.337459
-0.302595
0.0186733
-0.396985
-0.271395
-0.138834
-0.100515
-0.125998
0.00299862
-0.357621
0.0312149
-0.271624
-0.36278
0.0189641
0.0329308
0.0176426
0.0604903
-0.0434546
-0.068639
-0.196239
0.0189024
0.0264694
-0.0254321
-0.0161472
0.0164073
0.022128
0.0176874
0.0269335
-0.100595
-0.128001
0.0259309
-0.261789
-0.0300938
0.02459
0.0863098
-0.232731
0.0346763
0.00790559
-0.173277
-0.185489
-0.0066861
-0.0149359
-0.277687
-0.116204
-0.353991
0.0121464
-0.149101
-0.319103
-0.322422
0.0220555
0.0365065
-0.104643
0.0585401
-0.0305159
0.0422409
-0.344524
-0.106993
-0.209161
0.029527
0.0165135
-0.395919
-0.105867
0.0241281
0.0247236
-0.377453
0.0345094
-0.00517919
-0.0154143
-0.0288423
0.0187822
0.106968
0.0460031
-0.0367944
0.00208008
-0.0709419
-0.37409
-0.0788844
-0.0674595
-0.321593
-0.14737
0.00089006
0.00615049
0.00708117
0.0173466
-0.184759
0.111348
-0.0206067
0.0295728
0.0315131
0.00338244
0.0755046
0.00245115
0.088349
-0.0384552
0.0206761
-0.301448
-0.336643
0.0204008
-0.28705
0.0556959
-0.0437392
0.0245353
0.000308125
-0.395963
-0.143442
0.016757
0.00729398
0.0357041
-0.0379979
0.0197672
-0.143738
-0.000415437
0.0272319
0.0088062
-0.28271
-0.373292
-0.0062437
0.0514339
-0.12924
-0.0822068
0.0830318
-0.230605
-0.337963
-0.0147277
0.0182085
0.0506561
0.0530965
-0.297981
0.0266824
0.0193021
-0.19464
-0.163826
0.0249631
0.0347737
0.260362
0.0189971
0.0267207
-0.166763
-0.141791
-0.379946
0.0164713
-0.0789122
0.107163
-0.105905
0.0790009
0.0315175
0.0254068
0.000241113
0.116269
0.0248928
0.0273821
0.000247804
-0.373347
-0.00221892
0.0170397
-0.00297065
-0.0572914
0.0236861
0.0180514
-0.000547858
0.0253303
-0.274944
-0.322897
0.0511729
-0.262613
-0.32952
-0.365736
0.0284748
0.044378
0.0160971
0.0306036
0.0261116
0.0244739
0.00320007
0.0179236
0.0104853
0.0814022
-0.323878
0.0190522
-0.14197
-0.0621663
0.0218828
0.0554133
-0.0150073
0.0504931
0.0201246
-0.014684
-0.0066596
-0.271777
-0.0917403
-0.00609404
-0.312426
0.0226264
-0.00260061
0.00518864
-0.221175
-0.0964278
0.0758094
-0.00710274
0.0275214
0.0225249
0.0975153
-0.0883813
-0.04897
-0.267458
0.0225726
0.0154177
-0.266637
-0.00547464
0.0209276
-0.181316
-0.0237651
-0.0336408
-0.215256
-0.133486
-0.396058
0.0136922
-0.0140147
0.018167
0.0282508
0.0269813
-0.00359234
-0.089794
-0.0682011
-0.392829
0.0200056
-0.283635
-0.291299
-0.0374917
-0.292406
0.0408258
-0.167513
-0.399741
0.0164729
-0.157456
-0.00865888
0.0938678
0.0190865
-0.199456
0.0238966
-0.257091
-0.0724491
-0.339932
0.0162038
-0.189977
-0.0112061
-0.0254187
-0.196302
0.0158001
-0.39135
-0.329353
-0.143091
-0.295603
-0.147617
-0.366125
-0.0602203
0.0287139
-0.00758247
-0.103366
-0.198141
0.0218335
0.0152256
-0.0105854
-0.0877872
0.0454274
0.0456003
0.0335479
-0.395705
-0.278838
0.036515
-0.301675
0.00711584
0.00794758
-0.0274096
0.0480183
-0.264385
-0.0166714
0.00768947
0.209153
0.0275123
0.0173547
0.0186593
-0.181346
-0.128371
-0.00602928
0.0610107
0.0266019
0.0191144
0.0107575
-0.383527
0.0238895
0.0107782
-0.191857
-0.204266
-0.0342218
0.00324025
-0.299438
0.0710063
0.052247
0.0274648
0.083745
-0.0237418
-0.0529403
0.0117538
-0.261391
-0.0249002
-0.124161
-0.00566395
-0.0524696
-0.072727
-0.0533452
0.0476971
-0.306842
0.0174019
-0.152304
0.0260312
0.0248376
-0.0504704
-0.192952
-0.0275658
-0.0416278
0.0206438
0.0532041
-0.129081
-0.112531
0.0327455
0.019796
0.0150349
0.114715
-0.105083
0.0245896
-0.0965158
0.022178
0.0279494
-0.340954
0.0312878
-0.372792
0.0448531
0.107129
-0.115147
0.0305172
-0.0585502
-0.0987513
-0.172383
0.0228925
-0.100836
-0.0234032
0.0220048
0.0342345
-0.391505
-0.265076
0.0280704
0.0361456
-0.010732
0.015875
-0.156201
-0.265769
0.0266807
0.118251
0.0081216
0.0108646
0.0213251
-0.210952
0.00923021
0.035503
0.0308329
0.0137706
0.0372212
0.0180716
0.0185569
-0.0661716
-0.310424
-0.00777266
0.0297056
0.193796
-0.139097
0.0136904
-0.26906
-0.110621
0.0128684
-0.00825761
-0.0224715
-0.150839
0.00260762
-0.106867
-0.0145131
-0.0342231
0.0129042
-0.102331
-0.000240776
0.0586668
0.0453842
0.0466173
-0.199463
-0.250092
-0.00170403
0.0244143
-0.390449
-0.181903
-0.137066
-0.0360086
-0.109722
-0.00810614
-0.338845
-0.0798563
-0.0147286
-0.303936
-0.200174
0.0467696
-0.0815867
-0.115497
0.00736003
-0.316346
0.0439332
-0.0537894
-0.0349407
0.038806
0.0162108
0.0476506
0.0206655
0.0139854
0.0197949
-0.222633
0.0173106
0.0138065
0.00642342
0.021631
0.0174829
0.0218223
-0.100982
0.21199
-0.0357171
0.0220009
-0.284361
0.0329758
0.0106819
0.0277985
-0.00996844
0.0265055
0.0152473
-0.0605377
-0.142823
0.0248783
-0.0645824
0.118736
0.00126161
0.0406204
-0.305739
-0.000839312
0.000170564
0.0247403
0.230197
0.0218719
0.0183948
0.0120382
0.0357583
-0.261665
-0.399004
0.0126697
0.0124861
0.0220771
0.0961781
2.73841e-05
0.0143351
0.101131
-0.0279088
0.0424796
0.0727123
0.0260611
-0.172722
-0.14728
-0.0287969
-0.0673186
-0.00224913
-0.33581
0.0247465
0.0221347
-0.33394
0.0959935
-0.000839793
-0.138148
0.201276
-0.377809
0.0820741
0.250377
-0.0456325
-0.0435255
-0.396383
0.046085
-0.108017
-0.0552237
-0.182219
-0.333127
0.0237345
0.0409951
0.0261567
-0.156765
-0.00060284
-0.39459
-0.0795005
-0.389863
0.0640973
0.217204
-0.220177
0.0140628
0.0375074
0.21481
-0.00674106
0.0270959
-0.0368309
0.0619964
-0.1444
-0.149035
-0.145535
-0.393119
-0.153257
0.0177302
0.0181451
-0.291466
0.18693
0.0095683
0.0253465
-0.314562
-0.00269155
-0.0378773
0.0236727
0.0385993
0.0178402
0.0185881
0.186921
0.0481173
0.00330967
-0.357603
-0.378521
0.00782305
0.0713902
-0.0523626
-0.189307
0.0262025
-0.0161469
0.0171042
0.125219
-0.335202
0.028706
0.108283
0.0072975
-0.228936
0.0198975
-0.0275357
-0.203079
-0.198591
0.0239012
0.0817087
-0.136576
-0.12152
0.0598496
0.0159422
-0.334264
0.0175779
-0.0501523
0.0471381
-0.0599856
-0.00483207
-0.00827585
-0.00439352
-0.137379
0.0180251
0.016199
-0.000947556
-0.0197136
0.020976
0.00750777
-0.161161
-0.295415
-0.279985
-0.043862
0.0279355
0.129812
-0.0307569
-0.381202
0.0221979
0.14168
0.00218339
0.0304145
-0.0219766
-0.0618593
-0.262927
0.0328289
-0.344468
-0.0147957
-0.00117944
-0.00714555
-0.285105
0.0484549
0.199606
-0.363669
0.0243836
0.048009
-0.39242
0.0309115
-0.304443
0.0271067
-0.0706592
-0.320501
-0.0279816
0.0243513
0.0124039
-0.391699
-0.052237
0.0246962
0.140289
0.0256117
-0.027278
-0.153529
-0.39222
-0.0229125
-0.324286
-0.298049
0.0460793
0.0345973
0.0637091
-0.227559
-0.0144358
0.0238903
0.0248421
-0.0494893
0.201192
0.0263045
0.0682712
0.0187251
0.0233208
-0.283688
0.0208508
-0.395887
-0.00462402
-0.0535457
-0.0806968
0.0110967
-0.00143154
-0.334053
-0.354777
-0.125414
0.0242962
-0.0104006
-0.0709642
0.0107322
-0.076782
-0.169729
-0.0887478
-0.000432803
-0.395911
-0.391268
0.00134661
0.0180236
0.00464502
0.0182333
-0.0293958
-0.0483162
-0.357725
0.0176534
0.0326818
-0.0699132
-0.39092
-0.00483396
-0.282034
-0.00809469
-0.187829
-0.122869
-0.299119
-0.080627
0.103485
0.10968
-0.00644214
-0.000746896
-0.227812
-0.0013269
0.0244619
-0.287258
0.0195959
0.0262282
0.0017516
-0.108288
-0.0573428
-0.272454
0.195696
-0.0591063
-0.00946514
-0.0195849
-0.393186
-0.132642
0.00448325
0.0299658
-0.0031131
-0.10233
-0.328124
0.0524624
-0.322903
0.078279
0.00920882
-0.374252
0.0291217
-0.331371
-0.312587
0.00293714
-0.0231517
-0.116985
0.0367209
0.0684047
0.0145143
-0.361122
-0.0514554
0.0182061
-0.396443
-0.304283
-0.0572069
-0.0495912
0.0226241
-0.180402
-0.389584
-0.0306291
-0.0351824
-0.372053
0.10805
0.0687501
0.0173592
-0.189595
-0.396842
0.217
0.042386
-0.0531072
0.0178547
-0.302329
-0.140641
-0.0687385
-0.293006
-0.339569
-0.00702355
-0.199765
0.0227406
-0.297959
0.117628
-0.0477815
-0.0450295
-0.28456
-0.00167934
-0.0880158
-0.395595
-0.31685
0.00869658
0.0179323
0.0112914
-0.00772011
-0.29657
-0.206713
-0.334197
-0.095016
-0.0652507
0.00329005
-0.3363
-0.142416
0.0291618
-0.0022742
-0.398648
-0.389621
-0.395924
-0.395353
-0.32962
-0.396245
0.0259915
0.097425
-0.0537809
-0.017698
-0.395086
-0.280769
0.0177596
-0.276391
0.0228562
0.0305364
0.0100731
-0.0673141
0.0200854
-0.333612
0.224776
-0.137457
-0.0134065
-0.266657
0.100355
-0.246522
-0.396168
-0.0283488
-0.0572071
0.00521541
0.197893
-0.00209905
-0.00819661
0.0179993
-0.34331
0.0117075
0.000756681
-0.0917392
-0.0341188
-0.39361
0.0162983
-0.368397
0.0330108
0.0170709
0.0255706
0.0309483
-0.0495318
-0.00858967
-0.377727
0.0782034
-0.0695973
-0.299235
0.013636
-0.339122
0.0139027
-0.331519
-0.11336
-0.358737
-0.13304
0.0250076
0.0248483
-0.290318
-0.0203989
-0.0500552
0.0227016
-0.0621184
-0.349805
0.0126014
0.0183832
0.028993
0.0248718
-0.308584
-0.315637
0.0100206
-0.00130099
-0.33166
-0.326689
0.0207083
-0.187712
0.0246904
-0.332752
-0.343114
-0.103989
-0.161381
0.163411
0.152642
-0.371904
-0.0976422
0.0442953
-0.00262812
0.0111933
-0.333239
-0.318824
0.00671024
0.104998
-0.376258
0.0207249
-0.379326
-0.0144269
-0.0186526
-0.00331343
-0.294626
-0.102607
0.00212581
-0.359967
0.017357
-0.260019
-0.257925
0.00224496
0.0266177
-0.176556
0.0325407
-0.000491513
0.0127418
-0.262594
0.0693168
0.0175791
0.0204768
-0.220867
0.0417709
-0.00391609
0.0260369
-0.371724
0.0187355
-0.0613601
-0.000561465
-0.374442
-0.270081
-0.0305384
-0.108212
-0.119685
0.0264274
-0.072653
-0.361624
-0.00140151
-0.14997
0.0106219
-0.266391
0.0260764
-0.353597
-0.203072
0.0884913
-0.35795
-0.363076
0.181714
-0.0269302
-0.303127
0.0149144
-0.385697
0.0756551
-0.29036
0.0228355
0.0595448
-0.0824042
0.0860479
0.0448027
0.0452141
0.0184959
-0.394659
-0.145536
-0.356727
-0.298759
0.103375
-0.000233441
0.0280887
-0.331891
0.0689837
-0.00025124
0.0201982
-0.310534
-0.286357
-0.324681
-0.355701
-0.0660491
0.0458957
0.011636
-0.113297
-0.103399
-0.277834
0.0261727
0.0266972
-0.403272
-0.135002
0.0199663
-0.108854
-0.28548
-0.172329
-0.00937307
0.0663126
-0.272643
-0.294279
-0.253403
-0.202123
0.0286923
0.0232495
-0.00102797
0.0196222
0.0435966
0.0262651
0.0489957
0.0875621
-0.0575977
-0.0539658
0.0142959
0.0253954
0.0708175
-0.0271588
0.0251782
0.0661245
0.0127993
-0.000304521
0.0340376
0.0123669
0.025165
0.0263832
-0.214202
-0.00412126
0.0766753
-0.272444
-0.278911
-0.373715
-0.331109
0.00612778
0.0172785
0.0214994
-0.299279
-0.0168502
-0.00256645
0.0236442
-0.271605
0.0847823
-0.0700959
-0.244327
0.051367
0.028296
-0.0140596
0.0200522
0.0547273
0.0247004
0.0444915
0.0105619
0.0324763
0.0149464
0.0474851
-0.0449346
-0.270871
-0.0853246
-0.0841229
-0.129329
-0.151805
-0.0762411
-0.138407
-0.0168024
-0.354594
0.100918
0.0735309
0.0333835
-0.0282945
-0.0992648
0.0313426
-0.0427145
-0.395763
0.131323
0.267204
-0.164051
0.0176367
-0.0778103
-0.0221294
0.0334206
-0.0266821
0.0259791
-0.117391
-0.0812674
-0.299909
0.0101634
-0.0821582
0.106684
-0.312448
-0.201094
-0.103453
0.0247616
-0.105394
0.000921936
-0.137071
0.015024
-0.300376
0.00132901
0.105404
0.0238235
0.00116717
-0.141771
-0.0161612
-0.28965
0.0280106
-0.0533965
-0.0129779
0.0244597
-0.252916
-0.329016
-0.192229
-0.0790284
-0.0972163
-0.0135334
-0.00573532
-0.290471
-0.15298
-0.0104878
-0.0263434
0.104596
0.0358501
-0.239937
0.00825927
-0.327717
-0.19389
-0.185246
-0.0209199
0.0489656
0.00305126
-0.00758605
-0.166332
0.141253
0.111296
-0.375877
0.0243298
0.0713284
0.0984979
-0.295331
-0.00664338
-0.198774
-0.00149826
-0.323896
0.0185587
0.0266759
0.165999
0.0161746
0.0424613
-0.19311
0.04336
0.0382738
-0.00439511
-0.0764563
0.00511445
-0.297545
0.0307217
0.0409707
0.0124485
-0.181017
0.0141783
0.110063
-0.0948879
-0.282789
-0.301655
-0.231149
0.0977049
-0.248655
-0.0708174
0.0655379
0.114221
0.0216304
0.0263992
-0.34574
0.0849128
0.00037517
0.0251973
0.0179416
-0.0563182
-0.127643
0.0249173
0.132469
-0.177205
-0.188455
-0.0769984
0.0229868
0.0173061
-0.28126
-0.0361345
-0.0074851
-0.255465
-0.27158
0.00276014
-0.00371688
0.0550151
0.0272285
0.177954
0.0172504
-0.116355
0.0248104
-0.296833
0.00331464
-0.395493
-0.0211453
0.0303116
-0.0889136
-0.00359029
-0.0191049
0.024795
-0.0608109
-0.263905
0.0224116
-0.196165
0.0203212
0.0179147
0.199083
-0.0121148
0.019288
0.01837
-0.000912207
0.026954
-0.00548
0.0231222
-0.255611
0.0181458
-0.00561795
-0.00289478
-0.00124101
0.0293439
0.0242116
-0.00207029
-0.307809
0.21506
0.00136486
-0.0304774
-0.0158147
0.0248278
-0.158435
0.0169921
0.0171401
-0.400477
0.0240854
-0.101002
-0.0819888
0.0462322
-0.0143969
-0.200811
0.0299236
-0.21365
0.222601
-0.0148287
-0.27734
-0.305942
0.122563
0.0546479
0.014565
0.0281238
0.0715086
-0.195339
-0.00304889
0.0129895
-0.00500913
-0.0708097
0.0240822
0.00657977
0.0222383
-0.095578
-0.248285
0.0243164
-0.150973
0.0181292
-0.0382673
0.00263291
-0.000997483
0.00429635
0.033452
0.0209771
-0.000240285
0.0446079
0.0396095
-0.0912354
-0.0175558
-0.320587
-0.000416927
0.0112501
-0.143871
0.0218206
-0.167206
-0.0983064
-0.0171113
-0.0184261
0.0188927
-0.0163664
-0.0304331
0.0455862
0.159547
-0.0492139
0.0377823
0.000121385
0.0618036
-0.287519
-0.0116301
0.0359238
-0.25558
-0.105402
-0.00203486
0.00122065
-0.326094
0.0208189
-0.0317826
0.0597197
-0.149603
-0.00827307
0.013076
0.096134
0.0404818
0.0179262
0.00503908
0.0177134
-0.12444
0.0250116
0.0235886
0.0183374
-0.0166929
-0.258541
0.0162518
-0.393079
0.261197
-0.00327045
-0.297725
-0.191672
-0.0148957
-0.0284242
-0.0948487
0.0135822
0.0346744
-0.285752
0.0158461
-0.314683
0.107427
0.00599762
0.0713048
-0.0253439
0.0270799
-0.0134226
0.217631
0.0691568
0.0178425
0.0285962
-0.0233906
-0.39502
-0.0102704
0.0110571
0.123187
-0.186095
0.18639
0.0214425
-0.00280704
0.0450426
-0.00876976
0.0728697
0.066897
-0.0561786
-0.231446
-0.0130055
-0.0251458
-0.218492
0.0174603
-0.0794434
-0.19843
0.0255263
0.0221883
-0.108475
-0.145534
-0.081832
-0.397391
-0.302984
-0.190987
-0.253702
-0.0120839
-0.0335075
0.00609175
0.0242401
-0.253193
0.0500511
-0.119098
-0.0753135
-0.0494723
0.0723835
-0.267503
0.0266288
0.0220044
0.00167129
0.0276136
0.0282796
-0.00720085
-0.0206306
-0.132923
0.0329582
0.0487036
0.00977031
0.119135
0.017515
-0.300604
0.0340732
-0.0319448
0.011353
0.024903
0.013075
0.0125511
-0.0372868
0.0742584
0.0296424
-0.00318546
0.00214962
0.0216334
0.0277588
0.126741
-0.0173932
0.0285296
0.0279762
0.0274574
-0.0614787
0.0291058
0.0297379
-0.143061
0.0269683
0.0253854
-0.0390182
-0.255576
-0.114457
-0.0257461
-0.0857968
-0.32857
-0.145913
-0.192637
0.0450518
0.00533816
-0.0549918
-0.106553
-0.00294407
-0.146678
-0.0261066
0.0137649
-0.0101035
0.0232214
-0.141189
-0.148168
-0.133631
0.010852
0.0148734
-0.022621
0.0528894
0.0785374
-0.0101192
-0.0341235
0.102713
0.172436
-0.0997981
0.0215593
-0.0356646
-0.303378
0.07548
0.0218249
-0.396147
-0.264458
0.0171323
-0.0199048
-0.0330865
-0.145411
-0.390049
0.0300094
-0.236081
-0.265446
0.175721
-0.125544
-0.012785
-0.0256986
-0.0259831
-0.139155
0.0249797
0.129233
-0.0362748
-0.194088
0.0252783
0.027747
-0.280962
-0.036117
0.0767271
0.00190786
0.0251412
-0.0400642
-0.340149
0.0114591
0.0284727
-0.262298
-0.0838726
-0.0173069
0.0324259
0.0194228
0.009524
-0.0128709
-0.160951
0.0261952
-0.00547192
0.0685422
-0.10251
0.0482839
0.00787273
0.0269699
0.00422064
0.0127465
-0.110402
-0.0183151
-0.0238928
0.00460754
0.0203139
-0.375989
-0.0569328
-0.0183849
-0.372461
-0.0232771
0.0340085
-0.311352
-0.101268
-0.350716
0.0283066
-0.0319672
0.0247978
-0.0215292
0.00261244
-0.377579
-0.0240072
-0.141095
-0.00730434
-0.0215036
-0.0349476
-0.000778719
0.139109
-0.296555
-0.265263
0.0256951
0.00753599
-0.225459
0.0712235
-0.00304422
0.0526518
-0.055496
-0.247349
-0.126496
-0.00504977
-0.25582
-0.0880155
0.039346
-0.00639536
-0.0134227
0.0928563
-0.360039
0.0241372
-0.0726848
-0.0288492
0.0265194
-0.00717635
-0.0242529
-0.392324
0.104559
-0.000993089
0.038897
0.0269605
0.10349
-0.00430805
-0.0331096
0.00555066
-0.0310571
-0.250473
0.0280435
0.0245895
-0.142402
-0.00374051
-0.00661082
-0.275327
0.0217542
-0.376068
-0.397578
-0.391962
0.0416499
0.0437918
-0.00200858
0.0174555
-0.00270093
0.0221191
-0.145297
-0.103719
-0.245273
-0.154877
0.0147523
-0.00747538
-0.0311717
0.00791423
0.0248401
0.0395073
-0.00632996
0.0188324
-0.0124106
-0.375831
0.0283342
0.0168647
0.0204952
-0.00688136
-0.29256
0.018881
0.127886
-0.00239569
-0.107998
-0.0331452
0.0265643
-0.0912619
-0.00113003
-0.0351128
-0.377282
0.0295146
0.0347077
0.0344147
-0.264693
-0.395538
-0.0115676
0.00441762
-0.0385126
0.0423413
-0.0121578
0.0161447
0.0168406
0.030935
0.0191592
0.0134346
-0.0359614
-0.332059
0.161697
0.0301698
0.033454
-0.0185387
-0.0109102
0.0255216
0.0543045
0.119287
-0.390591
-0.0405567
0.0357533
-0.0269579
0.0269547
-0.149123
-0.00319462
0.0216346
0.0738079
-0.0207869
0.0999066
-0.339951
0.00972327
-0.0553756
0.0244191
0.0114138
0.0267296
-0.0102027
-0.031939
-0.15279
-0.0976397
-0.000513293
-0.0844365
-0.144392
0.0248585
-0.0728626
-0.0545965
-0.317968
0.0172992
0.0269228
-0.0244766
-0.00314008
-0.136371
0.0263849