/*--------------------------------*- C++ -*----------------------------------*\
| =========                 |                                                 |
| \\      /  F ield         | OpenFOAM: The Open Source CFD Toolbox           |
|  \\    /   O peration     | Version:  v2012                                 |
|   \\  /    A nd           | Website:  www.openfoam.com                      |
|    \\/     M anipulation  |                                                 |
\*---------------------------------------------------------------------------*/
FoamFile
{
    version     2.0;
    format      ascii;
    class       volScalarField;
    location    "600";
    object      k_0;
}
// * * * * * * * * * * * * * * * * * * * * * * * * * * * * * * * * * * * * * //

dimensions      [0 2 -2 0 0 0 0];


internalField   nonuniform List<scalar> 
10042
(
0.00014726
0.000148188
0.000147698
0.000157871
0.0782171
0.000148342
0.0806797
0.00134304
0.000146873
0.000147892
0.0317239
0.000157687
0.000144559
0.000144299
0.000151187
0.000148058
0.000147995
0.000149697
0.000147282
0.000170368
0.000147133
0.000224252
0.000145359
0.0001452
0.00014824
0.000158871
0.000148787
0.000149855
0.000146948
0.000149154
0.000147986
0.00711892
0.00014797
0.000148842
0.000155053
0.000145287
0.000157925
0.000163426
0.000145289
0.000157105
0.000171353
0.00015063
0.0825171
0.000148086
0.0777944
0.000177393
0.000149065
0.000192086
0.000156702
0.000176437
0.000149028
0.000149469
0.000150648
0.000151195
0.000157942
0.000148288
0.000146964
0.000148979
0.000148808
0.00015034
0.000148155
0.000147851
0.000155251
0.000147603
0.000148847
0.000148829
0.00014825
0.000165138
0.062517
0.000147506
0.000151081
0.000172714
0.00014811
0.000157052
0.000148152
0.000145191
0.0833471
0.000147335
0.000156283
0.0851471
0.000155991
0.0649712
0.000148029
0.000150015
0.000148266
0.000149373
0.000147171
0.000181407
0.000147818
0.000147159
0.000148584
0.0609766
0.000150002
0.000149218
0.00014905
0.000147417
0.000147365
0.000147364
0.000156479
0.000146998
0.000149933
0.000176761
0.0059024
0.000149291
0.000149616
0.00016432
0.000147312
0.000147324
0.000147192
0.000144259
0.000145841
0.000147031
0.00015413
0.0552977
0.000148815
0.00014705
0.000147526
0.000147309
0.000147377
0.0376561
0.000147776
0.000640973
0.000148195
0.000147753
0.000176821
0.000148032
0.000750878
0.000157177
0.000164019
0.000147125
0.000156735
0.000148128
0.0384231
0.000201539
0.000146996
0.000167587
0.0255746
0.000148629
0.000192842
0.000183309
0.000149865
0.000147513
0.000149371
0.000185656
0.000148065
0.000147019
0.000168521
0.000145227
0.000147443
0.000153435
0.000147075
0.000149676
0.0688208
0.0403517
0.00014917
0.000144517
0.000149609
0.000147793
0.00016752
0.0150001
0.0277744
0.000188436
0.000147754
0.000147047
0.000148246
0.000148056
0.000164651
0.0170371
0.00668622
0.0450428
0.000150191
0.000146761
0.0415974
0.000172819
0.000159563
0.0790091
0.0258166
0.000148146
0.000166457
0.000159116
0.000149874
0.0104789
0.00014845
0.000157001
0.000150431
0.0398863
0.00020655
0.000148268
0.0334356
0.0001521
0.000305205
0.00014939
0.0688452
0.0113332
0.000185613
0.00539436
0.000154644
0.000147359
0.000144543
0.000151108
0.000159043
0.000148351
0.000147004
0.000173602
0.000148383
0.000145888
0.000357037
0.000148965
0.000149711
0.000149583
0.000429915
0.000148201
0.000163852
0.000186823
0.000149557
0.000207215
0.000147928
0.000147747
0.000171417
0.000146388
0.000154287
0.000149855
0.00019616
0.000164364
0.000153225
0.000159874
0.000199069
0.000147033
0.000193013
0.000151627
0.000146902
0.000171495
0.00014681
0.00015157
0.000147841
0.000153693
0.000146089
0.000144269
0.000151288
0.000156698
0.000147805
0.000148226
0.0001481
0.000154189
0.000147013
0.000148042
0.000145268
0.000149767
0.00015064
0.000149772
0.000144568
0.000147429
0.00015214
0.000204297
0.000188512
0.0264618
0.000159722
0.000159515
0.0001514
0.000179365
0.0630889
0.000150851
0.000147325
0.000144431
0.000151003
0.000146055
0.000215313
0.00015175
0.000147148
0.000149638
0.000159594
0.000150771
0.000185006
0.000159618
0.00018646
0.000152191
0.000156655
0.00014604
0.000154629
0.000148165
0.000159734
0.000147625
0.000158897
0.043239
0.000145877
0.000147399
0.0620251
0.000177507
0.000148128
0.000148147
0.000151851
0.0798297
0.000171469
0.000186748
0.000149136
0.000144523
0.000147058
0.000146967
0.000212693
0.000147313
0.000148111
0.000146775
0.000147931
0.000164612
0.000151484
0.000169412
0.096049
0.00015004
0.0457732
0.000146967
0.000154311
0.000148726
0.0161884
0.000177502
9.07753e-05
0.0215842
0.000145101
0.000151806
0.000147538
0.000151748
0.000159887
0.000149575
0.000159394
0.000145792
0.000144549
0.000148178
0.000170512
0.000149883
0.000151581
0.000147965
0.00015128
0.0395642
0.000147003
0.000149102
0.000147739
0.000147465
0.000163225
0.000185989
0.000159484
0.00201366
0.000164868
0.000156073
0.000148038
0.000144163
0.000148869
0.000149766
0.000161564
0.000147642
0.00014885
0.000200693
0.00014703
0.000152566
0.000150219
0.000201225
0.000147832
0.000153009
0.000163371
0.000159154
0.000151038
0.000147405
0.00995049
0.000168781
0.000149216
0.000162946
0.000147455
0.000146827
0.000147439
0.000152562
0.00031126
0.00015398
0.00014963
0.000149957
0.000149943
0.000149787
0.000170398
0.000147384
0.000145541
0.0288807
0.000146696
0.0225312
9.60898e-05
0.000157352
0.0839143
0.0227985
0.000155566
0.000171908
0.000148977
0.000177031
0.000149937
0.000148833
0.000229728
0.000148304
0.000152097
0.000764836
0.000148984
0.000147146
0.000161837
0.000273248
0.000148665
0.000145146
0.0077659
0.000177468
0.000146748
0.000165136
0.00524333
0.000146388
0.000149738
0.00014556
0.000147059
0.000144319
0.000145793
0.0247607
0.0087336
0.000148927
0.086138
0.000144322
0.000147285
0.00023681
0.000148376
0.0242236
0.000172818
0.000150029
0.000145358
0.000145044
0.000174805
0.000150465
0.000155653
0.000149147
0.0354537
0.000149323
0.00236356
0.00015087
0.000147362
0.000147069
0.000228338
0.000147473
0.000153367
0.000147319
0.000147727
0.0119524
0.000154711
0.000147464
0.000146359
0.0114325
0.000147089
0.000155054
0.000150938
0.000146077
0.0712668
0.0836584
0.000147001
0.000148656
0.000154238
0.000144557
0.000147889
0.000147693
0.0154037
0.000147833
0.000146859
0.000155806
0.00308476
0.000170141
0.00014977
0.000158866
0.00736516
0.000166324
0.000147539
0.000147432
0.000201706
0.000148989
0.000147407
0.000155858
0.000147129
0.00014579
0.000150112
0.000144868
0.000159937
0.000147307
0.000147504
0.0258427
0.000146168
0.000149987
0.000148317
0.000148993
0.000159487
0.000147029
0.000147347
0.000147656
0.000149421
0.0869871
0.000150749
0.000149868
0.000149831
0.000179753
0.000147553
0.000147502
0.000147917
0.000149491
0.000155129
0.0829187
0.000147111
0.000159877
0.000374829
0.00016621
0.000149716
0.0001476
0.000148526
0.000149297
0.000146995
0.0327688
0.0217216
0.000148374
0.000157219
0.000159333
0.000158728
0.000148184
0.000145477
0.000154112
0.000174265
0.000315314
0.000145282
0.000148702
0.000148215
0.000146731
0.0655329
0.000160775
0.000149494
0.000147292
0.000146788
0.000148055
9.1471e-05
0.000154753
0.000148839
0.0112527
0.000229202
0.000191369
0.000164799
0.000147945
0.000147034
0.000181464
0.000167363
0.0501522
0.025141
0.000152521
0.000153619
0.00014935
0.000151479
0.000148664
0.000149273
0.0296531
0.000145205
0.000146968
0.000176925
0.000149349
0.000186699
0.000150374
0.0001952
0.000156757
0.000149597
0.000151434
0.000155122
0.000169556
0.000164862
0.000167759
0.00014987
0.00017647
0.000150261
0.000147401
0.000148686
0.000148945
0.000148091
0.000152784
0.000170234
0.00016003
0.000148862
0.000149579
0.000147886
0.000147411
0.000170972
0.000147321
0.000150861
0.000216851
0.000144874
0.000167462
0.00019072
0.000148126
0.0356786
0.000168165
0.000149346
0.000208772
0.000148094
0.000149771
0.000147922
0.000147724
0.000149944
0.000152143
0.000148085
0.00021524
0.000149847
0.000147625
0.00014865
0.000159696
0.000162268
0.000147725
0.000153444
0.000147033
0.000162655
0.000147755
0.000156822
0.000145617
0.000150248
0.000144974
0.000147342
0.0953452
0.000145602
0.000169689
0.000147664
0.000150438
0.000146044
0.000162594
0.000148378
0.0001689
0.000148098
0.000203152
0.000149724
0.0723328
0.000145205
0.000151049
0.000149792
0.000148007
0.000147536
0.000152057
0.000148087
0.000169976
0.0117059
0.000196183
0.000152485
0.000159273
0.000146971
0.000160238
0.000177425
0.000147914
0.000155647
0.000168057
0.0529463
0.000191237
0.00370283
0.000155949
0.000148463
0.000149501
0.000154169
0.000152174
0.000167058
0.000145115
0.000151086
0.000185863
0.000149742
0.000147413
0.000154003
0.0861689
0.000150837
0.000158285
0.000181378
0.000149646
0.0852201
0.000145242
0.000146705
0.000149195
0.00014717
0.0185804
0.000181297
0.0773293
0.000148231
0.000595679
0.0309798
0.000168694
0.00016675
0.000179939
0.000192976
0.000161255
0.000147961
0.000147359
0.000156264
0.0175419
0.000146935
0.000156248
0.0868179
0.000147302
0.000147178
0.000147465
0.000150177
0.000147479
0.000148058
0.000178958
0.0139348
0.000147932
0.000147823
0.0367882
0.0639637
0.000147009
0.000147547
0.000148944
0.000147078
0.00024022
0.000181315
0.000183197
0.000149639
0.000147139
0.000146976
0.000149921
0.000148217
0.000162402
0.000149654
0.097806
0.000147875
0.000148373
0.000162104
0.000146873
0.000164446
0.000164727
0.00015101
0.00567965
0.0667215
0.000148491
0.000146993
0.0688559
0.0250309
0.00015943
0.000147983
0.00170344
0.000174532
0.000153283
0.00014788
0.000147789
0.000147274
0.000189725
0.000152404
0.000167931
0.000149771
0.0443578
0.000293902
0.000147617
0.000147752
0.000169364
0.000148919
0.000146025
0.000153018
0.0566276
0.0509302
0.0855629
0.000149617
0.000175794
0.000160832
0.000145373
0.000147588
0.000149228
0.000188721
0.000149317
0.000147589
0.000175842
0.000148144
0.000170819
0.000148629
0.000148607
0.000145733
0.000148921
0.000199705
0.000149266
0.000147385
0.000167154
0.000163759
0.000186738
0.000149347
0.000178079
0.0602842
0.0877922
0.000150219
0.0171072
0.0147088
0.000147302
0.000144641
0.000149711
0.000150727
0.0434323
0.00015105
0.000148714
0.000149318
0.0632954
0.000159957
0.000149423
0.000148855
0.000147527
0.000163514
0.000146119
0.000146807
0.00016174
0.000150012
0.000149305
0.000146836
0.000231437
0.000147385
0.000149891
0.000148051
0.000149082
0.000185018
0.000149297
0.000150367
0.000148351
0.000154009
0.000204124
0.000149941
0.000186017
0.000154286
0.0451305
0.000146036
0.000151143
0.000161431
0.000177817
0.000161901
0.00014963
0.00624734
0.0347252
0.000149418
0.000147009
0.000136728
0.000148404
0.000149644
0.000146132
0.000149576
0.000169731
0.000149948
0.000149949
0.000164676
0.000156225
0.000156566
0.000157032
0.000149853
0.0891115
0.000151213
0.000210219
0.000147059
0.000176784
0.000159919
0.0739648
0.000152654
0.0600632
0.000149778
0.00015532
0.00014813
0.000148322
0.00014761
0.000194408
0.000159886
0.000175457
0.0220092
0.000148692
0.000168751
0.000155807
0.000146794
0.00015675
0.000159244
0.0633418
0.000147713
0.000155321
0.000162953
0.000150964
0.000160148
0.000149882
0.000144866
0.000149878
0.000184617
0.000148803
0.000147857
0.000146153
0.000145973
0.000147374
0.000147749
0.000148843
0.00014687
0.000148925
0.00014932
0.000153324
0.000156805
0.000147799
0.0484176
0.000147948
0.000538303
0.000159139
0.0462846
0.000162585
0.000155031
0.00858488
0.000162585
0.000186943
0.08835
0.000163271
0.000149269
0.000146799
0.000150165
0.00018581
0.000147461
0.053352
0.000147428
0.00620897
0.0764158
0.000180286
0.000150303
0.0340443
0.041737
0.000150557
0.000147723
0.000149736
0.000153365
0.000144796
0.000145641
0.000166852
0.000229574
0.000148398
0.000147432
0.000149099
0.000228093
0.000182493
0.000148964
0.000153533
0.00017988
0.000149293
0.000148028
0.0486829
0.000148925
0.000147309
0.000504229
0.000151739
0.000147847
0.00524752
0.0859133
0.043275
0.000147401
0.000150564
0.00024407
0.000146168
0.000147359
0.000149886
0.000160293
0.000148149
0.000148627
0.000152085
0.000161029
0.000175561
0.000146468
0.000147759
0.000148404
0.00014718
0.000149521
0.000145039
0.000189338
0.000156183
0.000147915
0.000147728
0.000146343
0.000147649
0.000149201
0.0587945
0.00015858
0.000145113
0.000147377
0.00016003
0.0655783
0.000148144
0.0001477
0.000148049
0.000145075
0.00294934
0.000175318
0.000146655
0.000148305
0.000158404
0.000170796
0.000149051
0.000149874
0.00015281
0.000147969
0.000155568
0.00014914
0.0568282
0.000160795
0.000148338
0.000154579
0.0392814
0.000155476
0.000199186
0.00015333
0.000250643
0.000149788
0.000148838
0.000153868
0.000180815
0.000147441
0.000147443
0.00014959
0.000150224
0.000168844
0.000172748
0.0013352
0.000149945
0.00014777
0.000155754
0.000147979
0.000147968
0.0526023
0.000151402
0.000147924
0.000147748
0.000182344
0.000282487
0.000147759
0.000148279
0.000183276
0.000147114
0.00014858
0.000147525
0.000183132
0.000150607
0.000155545
0.00599638
0.000148862
0.000149046
0.0612325
0.000147163
0.000174577
0.000147161
0.00015112
0.000161813
0.000148052
0.000148476
0.000149131
0.00015144
0.00995152
0.000147339
0.000148803
0.000177103
0.000153424
0.000193889
0.0715395
0.000163484
0.000149362
0.000213704
0.00014753
0.037653
0.000149044
0.00014806
0.000146665
0.0109999
0.000149363
0.000149083
0.000148984
0.000162755
0.0589808
0.000155963
0.000166629
0.000147626
0.000148805
0.000162917
0.000157295
0.000146712
0.000153748
0.000147297
0.0758011
0.0439427
0.000148839
0.000150175
0.00014944
0.00248322
0.000148969
0.0096216
0.000147728
0.00014724
0.000146656
0.000149247
0.000152067
0.000149792
0.00014777
0.000148084
0.00252397
0.000187878
0.000147354
0.000153159
0.000152817
0.00016132
0.000147366
0.000153481
0.000150177
0.000147932
0.000150599
0.000161408
0.000149855
0.000147209
0.000154392
0.000146743
0.000183585
0.00015058
0.00017616
0.000148494
0.000148106
0.00014759
0.00018709
0.000161608
0.000146341
0.00015329
0.000178475
0.00014929
0.000146384
0.000154107
0.000149448
0.0119068
0.000179288
0.000153085
0.0201524
0.000150465
0.00016345
0.000180132
0.000160357
0.000164024
0.00905837
0.000160754
0.000194674
0.00014804
0.000150412
0.000147316
0.000147825
0.000155581
0.000146666
0.000175496
0.000148021
0.000148087
0.000168435
0.000147464
0.00017488
0.000155951
0.000153536
0.000147443
0.000160657
0.000236805
0.000143778
0.000160936
0.0586236
0.000160157
0.000146946
0.000160728
0.000147782
0.000146822
0.00957551
0.000146739
0.000146314
0.000169986
0.000147911
0.000156866
0.000146732
0.000147839
0.0846464
0.000147324
0.000145698
0.000152939
0.000147413
0.000145092
0.000149648
0.00715494
0.000148604
0.00014844
0.000145192
0.000184618
0.00014923
0.000152627
0.000147507
0.000158999
0.000149745
0.00014748
0.000150157
0.000148558
0.000146293
0.000171917
0.000163555
0.00015696
0.000151005
0.00016526
0.000178625
0.000154734
0.000155181
0.000150195
0.0901273
0.000147758
0.000147923
0.000147279
0.000149549
0.000158997
0.000147106
0.0618429
0.0356033
0.0129799
0.000148438
0.000153002
0.000161174
0.000144784
0.00016716
0.000163176
0.000244928
0.00018079
0.0554234
0.000178396
0.000200903
0.0409189
0.000156065
0.000150795
0.000153509
0.000146768
0.0560374
0.000149588
0.000155884
0.000146598
0.000153122
0.000148156
0.04183
0.0652222
0.000149298
0.0150998
0.000235799
0.000218467
0.000168085
0.000171504
0.000145713
0.0607436
0.000147963
0.0489485
0.0311022
0.000149304
0.000147615
0.000147839
0.000150878
0.00015428
0.000162325
0.000199761
0.000148732
0.000148115
0.000153638
0.000149169
0.000148084
0.00015421
0.000146765
0.000148262
0.000234132
0.000171655
0.000148131
0.083134
0.000150787
0.000149796
0.000150929
0.000209415
0.000147521
0.000146111
0.000184483
0.00018534
0.000147093
0.000153573
0.000280448
0.000170702
0.0474029
0.000146465
0.000203396
0.0671672
0.0907454
0.000148435
0.000147679
0.000178782
0.000154024
0.000162282
0.00014905
0.0742746
0.0001696
0.000196044
0.000148274
0.000147656
0.0155115
0.000229661
0.000148919
0.000149797
0.0503435
0.000147419
0.000145484
0.000147486
0.000151499
0.000149249
0.000156099
0.000148506
0.000152331
0.000145292
0.000162174
0.0166427
0.000167027
0.000161667
0.0257568
0.000175915
0.000145574
0.000146804
0.00014741
0.000149877
0.000182367
0.000156132
0.00014866
0.000148015
0.000147678
0.000145083
0.000157701
0.000145206
0.00016215
0.000152853
0.000148728
0.0713337
0.0355785
0.000148572
0.0945925
0.00015857
0.000160091
0.000149738
0.000145414
0.0230698
0.000175576
0.00014727
0.000146157
0.000147514
0.000155248
0.000149726
0.000202301
0.000144532
0.000148265
0.000148066
0.0515016
0.0549985
0.000144863
0.0001481
0.000177258
0.000195426
0.000152382
0.0847267
0.0779704
0.00014733
0.000148851
0.000148573
0.000150401
0.0436799
0.000148105
0.000149886
0.000186278
0.000179263
0.00014936
0.000147565
0.000165016
0.000149881
0.000148375
0.000178211
0.000180914
0.0452424
0.000147705
0.00018814
0.00016033
0.000175315
0.00015047
0.000155305
0.000147395
0.000149231
0.000170476
0.000153821
0.000147811
0.00015305
0.0304692
0.000144769
0.000146845
0.000144742
0.000168711
0.000147448
0.000148451
0.000143912
0.000147443
0.000244667
0.0930278
0.000148815
0.0129873
0.0620669
0.047612
0.000147398
0.000147817
0.000146709
0.000147249
0.000148676
0.000148918
0.000145268
0.000148424
0.000146308
0.000152093
0.0234519
0.000159853
0.000188447
0.000160278
0.000148056
0.000150627
0.000158833
0.000148703
0.000146874
0.00016171
0.000158523
0.000235961
0.00016842
0.000144714
0.0474975
0.000149879
0.000144416
0.000147378
0.000239238
0.000168217
0.000149923
0.000154088
0.000148357
0.000148518
0.000157514
0.000167848
0.0001591
0.0494224
0.000148441
0.000148043
0.000233695
0.000160654
0.000153239
0.000190393
0.000150919
0.000166649
0.000219328
0.000172738
0.010382
0.000147236
0.00014716
0.000147398
0.000148183
0.000148516
0.000150683
0.00016659
0.000177741
0.0449045
0.000148364
0.0902451
0.0212525
0.000154048
0.000335761
0.000148816
0.000179789
0.0224665
0.000147193
0.000183426
0.000145408
0.000247918
0.000149255
0.00020375
0.000147017
0.000103937
0.00016794
0.0330402
0.000146795
0.00019808
0.000146274
0.000150961
0.000204576
0.000146742
0.0107298
0.0688237
0.000135166
0.0328351
0.00018548
0.0527785
0.000162681
0.000147965
0.000162691
0.000168309
0.06069
0.000148393
0.000147951
0.000149861
0.000165979
0.000147857
0.000148847
0.000148791
0.0388184
0.0565716
0.000147636
0.0580174
0.000164892
0.000145978
0.000161339
0.000155069
0.0637618
0.000157454
0.000146754
0.000196206
0.000148353
0.000147381
0.000148477
0.000182537
0.000174912
0.000147076
0.000154385
0.000148629
0.000149713
0.00014638
0.0550445
0.000149895
0.000146498
0.00697315
0.000212692
0.000152548
0.00014715
0.0403411
0.000155618
0.000150804
0.000147883
0.000162964
0.000150963
0.000157361
0.000152881
0.0311573
0.00016283
0.000174571
0.000144622
0.000163422
0.000173811
0.000158192
0.000149215
0.0989226
0.000149651
0.00020359
0.000147118
0.000149228
0.000162876
0.000202346
0.000151556
0.0001541
0.000148656
0.000159761
0.000176717
0.000189431
0.000155735
0.000149944
0.000147573
0.00015517
0.000189101
0.00014739
0.000168778
0.000147936
0.000147421
0.0387995
0.000147269
0.0612477
0.000147778
0.000154543
0.000181844
0.000147805
0.000158291
0.000196355
0.000183009
0.000147858
0.000188366
0.000149848
0.000149733
0.000147534
0.0285747
0.0698016
0.000147241
0.000147504
0.000146096
0.000146985
0.000183401
0.0761284
0.000147792
0.000228627
0.000146104
0.000146411
0.000147085
0.00109846
0.000150066
0.000151604
0.000147495
0.000147919
0.000147678
0.000149684
0.000149705
0.000160724
0.00342912
0.00014588
0.000147726
0.000160108
0.000173992
0.000146537
0.0392775
0.000168727
0.000146791
0.000145074
0.000149101
0.000191085
0.000146547
0.000186095
0.000156921
0.00015254
0.000146734
0.000168433
0.000144565
0.000172187
0.000155443
0.000149212
0.0125233
0.000359779
0.000143835
0.000147038
0.0169755
0.000186499
0.000180576
0.000153776
0.000186024
0.000145272
0.0722942
0.000184075
0.000147355
0.0330403
0.0864838
0.000150726
0.000165123
0.000171187
0.000146693
0.0913257
0.000148712
0.000156531
0.000157971
0.000148895
0.000148179
0.00016332
0.000146961
0.000147033
0.000146947
0.00112356
0.000147283
0.000147383
0.000146598
0.000147067
0.000147354
0.000149493
0.000175034
0.000160971
0.000152189
0.000149635
0.000346029
0.000148915
0.000146758
0.000147194
0.000145992
0.00014845
0.000147621
0.000158628
0.000185123
0.000149446
0.000159762
0.000162425
0.00014663
0.000155395
0.0537039
0.000149849
0.00014481
0.000148417
0.000166368
0.000149296
0.000149293
0.000152408
0.000152942
0.020156
0.0134993
0.000146602
0.00014685
0.000147416
0.000165592
0.000158369
0.000146829
0.000155443
0.000167466
0.000148684
0.000154678
0.000148792
0.00017966
0.000221645
0.000150645
0.000173252
0.000154181
0.0465665
0.000149311
0.000147097
0.0772608
0.000170327
0.000152582
0.000208543
0.000167313
0.0185754
0.000161788
0.000197826
0.000154929
0.00015468
0.0186072
0.000154651
0.000232538
0.000160976
0.000181649
0.0376029
0.000149951
0.000148581
0.000147663
0.000193408
0.000143957
0.0127779
0.000165458
0.0227009
0.000150351
0.000169807
0.000196664
0.000147447
0.000148753
0.000165948
0.000157363
0.000148467
0.000155108
0.000166837
0.000178767
0.000175534
0.000190459
0.021382
0.000179414
0.000148657
0.000149281
0.0775903
0.000165803
0.000149772
0.000160402
0.053199
0.000148866
0.000152752
0.000147406
0.000156181
0.000148111
0.00014859
0.000159403
0.00014849
0.000155378
0.0308131
0.015256
0.000145915
0.000153689
0.000156508
0.00018577
0.000161742
0.00014925
0.000147298
0.000168828
0.00658499
0.000147366
0.000153008
0.000148292
0.068511
0.000146958
0.000158093
8.82732e-05
0.000169815
0.000149796
0.000172362
0.000173385
0.000172815
0.000153644
0.000147975
0.0832486
0.000146841
0.000156319
0.000148856
0.000159229
0.000145508
0.000145877
0.000148356
0.000173934
0.000146942
0.000147667
0.000146884
0.000148404
0.000146954
0.000148123
0.000179488
0.0235811
0.0554985
0.000154665
0.000148244
0.000157283
0.00015198
0.0507923
0.000149891
0.000174767
0.000145457
0.000147828
0.000149527
0.000161598
0.0755331
0.000147606
0.0358005
0.000148894
0.000144568
0.000150679
0.0863335
0.000151005
0.000160899
0.0642331
0.000149889
0.00014872
0.0135955
0.000147274
0.0350654
0.000148469
0.000161534
0.0176977
0.000150264
0.000148538
0.000146808
0.0177336
0.000156339
0.000147044
0.000202957
0.000147533
0.000150269
0.000177611
0.0481046
0.00017792
0.0654148
0.0126386
0.000166574
0.000151248
0.000175719
0.000203186
0.000147409
0.000147323
0.000150189
0.000157454
0.00016643
0.000147759
0.000153331
0.000147144
0.000147542
0.0519497
0.000149456
0.028114
0.000145063
0.000163293
0.000182721
0.000146583
0.000144525
0.0582321
0.0657832
0.000170987
0.000148421
0.000153367
0.000178694
0.000146302
0.000164226
0.000182098
0.000167055
0.000159215
0.0265022
0.0378468
0.000144675
0.000148788
0.000145409
0.000149231
0.000150691
0.000158106
0.0111764
0.000148694
0.000147625
0.000172931
0.0311116
0.000145145
0.000716041
0.000145602
0.000189003
0.000173394
0.0957339
0.000185669
0.000163253
0.000163546
0.000144817
0.000144454
0.000202595
0.000153929
0.000148469
0.000318716
0.000146903
0.000148444
0.000145297
0.000169488
0.000180309
0.000236036
0.00017201
0.000158429
0.000157237
0.000148389
0.0421044
0.000228781
0.000150584
0.000147659
0.00014671
0.000192478
0.0907583
0.000159487
0.0879697
0.000150197
0.000146708
0.0401252
0.000147852
0.070169
0.0658243
0.00014626
0.00015766
0.00022034
0.00015219
0.000159271
0.000147138
0.0518957
0.00015616
0.00017475
0.0117147
0.0270867
0.000158044
0.000159125
0.000148818
0.000182799
0.0524411
0.000151094
0.000152535
0.0491289
0.000162411
0.000165449
0.000149739
0.022564
0.0150039
0.000167853
0.000147855
0.000156402
0.00014708
0.000413211
0.000178272
0.000161636
0.0639602
0.0433352
0.000144878
0.000191489
0.000148566
0.00854131
0.000168067
0.000157156
0.000154998
0.000294594
0.000143645
0.000182295
0.0144127
0.0639009
0.000150519
0.000148053
0.000146388
0.00016891
0.00129035
0.000190626
0.0645927
0.000195488
0.000163742
0.000147028
0.0529952
0.000180754
0.000156124
0.000176988
0.00674627
0.0327296
0.0223302
0.0328089
0.0396733
0.0220303
0.000148307
0.00015587
0.000160493
0.000148081
0.0368455
0.000310683
0.000147968
0.0851869
0.000148773
0.000147796
0.000146246
0.000160305
0.000146935
0.0447568
0.000163806
0.000228517
0.000146946
0.000236277
0.00016219
0.000251133
0.0186788
0.000150448
0.000157651
0.000160781
0.000164628
0.000146782
0.000145866
0.000147051
0.04013
0.00014638
0.00014678
0.000236486
0.000151688
0.0515514
0.000148153
0.0595883
0.000147549
0.000148259
0.000147913
0.00014803
0.000157429
0.000152774
0.0576437
0.000157207
0.000167044
0.0816852
0.00014709
0.0788351
0.000146574
0.0763579
0.00259557
0.0616934
0.0001764
0.000147979
0.000149799
0.0898926
0.000148546
0.000156397
0.000148644
0.000160212
0.0700519
0.00014701
0.00014682
0.000147243
0.000149745
0.0423557
0.077516
0.00014717
0.000143922
0.049749
0.0905383
0.000146924
0.0714086
0.000149739
0.0878383
0.0664881
0.000182999
0.000193478
0.000213875
0.000167076
0.0351605
0.000188325
0.00014799
0.000144803
0.000146362
0.0826513
0.0868431
0.000150475
0.000155454
0.0359066
0.000146997
0.0277843
0.000147478
0.000148122
0.000145564
0.00841596
0.000185429
0.000146629
0.0463286
0.000149656
0.0391602
0.0833145
0.000146477
0.000148627
0.000187537
0.000147557
0.000148811
0.000146631
0.0700166
0.000157659
0.000148052
0.000148773
0.0818301
0.000147793
0.000161735
0.000147722
0.0541181
0.000148561
0.000171737
0.00016057
0.0446149
0.07974
0.000158759
0.000189054
0.000173338
0.000148375
0.000169295
0.0568078
0.000146688
0.000180839
0.0001463
0.000236449
0.000147141
0.0647102
0.0857212
0.000169568
0.0359742
0.0471244
0.000160009
0.000150067
0.00138688
0.00014733
0.0575432
0.00015334
0.000317704
0.000147396
0.000158131
0.000165624
0.00015679
0.000148497
0.000147777
0.00014924
0.013573
0.000175966
0.0400156
0.0470383
0.000154988
0.000145364
0.000164097
0.0545354
0.000158395
0.000146893
0.000148411
0.00686751
0.00638919
0.03657
0.0293366
0.000162432
0.000148959
0.000146376
0.000171148
0.000167652
0.000296077
0.000147821
0.000148335
0.00992534
0.000173661
0.000149893
0.000179281
0.000293639
0.00018463
0.000145864
0.000162524
0.000236163
0.000312797
0.0851831
0.000214777
0.000147283
0.000149775
0.00015008
0.00014989
0.000147908
0.000148491
0.000158568
0.000177485
0.00016126
0.000158114
0.00015652
0.000149182
0.00015403
0.000150112
0.000159413
0.000158149
0.000147108
0.000156473
0.000147477
0.000146696
0.000149455
0.000148698
0.000203007
0.000145328
0.000166803
0.000283927
0.00107203
0.0629814
0.0348402
0.000153106
0.000149533
0.000147133
0.087059
0.000147927
0.00014422
0.000149091
0.0894708
0.000157254
0.000162129
0.000245561
0.000151039
0.00014807
0.000157619
0.000146987
0.00016264
0.000149893
0.000159004
0.000146817
0.00014777
0.000150351
0.000151212
0.000154906
0.000274966
0.000166375
0.000173262
0.000171986
0.000194699
0.000164729
0.0001738
0.000147812
0.0334429
0.000152306
0.000154466
0.000147803
0.00015037
0.000174695
0.000147756
0.000166805
0.00590553
0.000155931
0.000185203
0.000178217
0.000164088
0.00016832
0.000165667
0.000147431
0.000157223
0.000148489
0.000171013
0.000166205
0.0817827
0.000146313
0.000165801
0.000154086
0.056911
0.000592604
0.000168129
0.000148545
0.000167984
0.000144884
0.000176556
0.000150026
0.0666425
0.000145625
0.000153623
0.000147949
0.00016019
0.00019745
0.000158196
0.0280642
0.000148123
0.000161989
0.000165708
0.000147941
0.029631
0.0874461
0.000195065
0.00017886
0.000166917
0.000147344
0.000146869
0.0483325
0.000176025
0.000146128
0.000149872
0.000152795
0.000147511
0.000209178
0.000146787
0.0818861
0.000186295
0.000193844
0.000161142
0.000149096
0.00014563
0.000147222
0.000181237
0.000166717
0.000154277
0.031026
0.000149088
0.000150589
0.000154791
0.0981605
0.000144763
0.00037787
0.000143636
0.072474
0.000147179
0.000147171
0.000159279
0.000147714
0.000148827
0.000188798
0.0001484
0.000149023
0.000146898
0.000164917
0.000153949
0.0418786
0.000147797
0.000148475
0.000146736
0.000190385
0.000146565
0.000155624
0.000168165
0.0879569
0.0686396
0.00046877
0.000208264
0.00021382
0.000163973
0.000165089
0.0001547
0.000149644
0.000148701
0.075089
0.000164123
0.000144638
0.000147569
0.000147493
0.000157571
0.00017194
0.000149647
0.000156426
0.000187492
0.000198082
0.000173319
0.000147583
0.000149549
0.0573171
0.000152346
0.000145459
0.0753741
0.0724324
0.000146012
0.000143996
0.000154734
0.000148229
0.000159222
0.000149627
0.00442723
0.000149799
0.0425732
0.000147866
0.0125957
0.00015786
0.000147871
0.000181258
0.000145247
0.000148241
0.000149742
0.000160773
0.000235121
0.000147315
0.000195768
0.000149895
0.000149268
0.000169615
0.000146759
0.000148756
0.000148566
0.000144289
0.000147944
0.000144679
0.000149035
0.00791265
0.000146864
0.000146768
0.00016492
0.00014551
0.000147407
0.000149043
0.000148622
0.0959131
0.000187516
0.000148068
0.000150884
0.000147868
0.000149894
0.000215976
0.000148223
0.000147707
0.00952213
0.00014754
0.000167926
0.000179733
0.000160271
0.000147575
0.000204232
0.000147667
0.000214658
0.000164793
0.000147671
0.0617402
0.0348414
0.000155317
0.000171251
0.000147218
0.000147245
0.00016186
0.000210386
0.000146812
0.000146804
0.000148707
0.000163866
0.000148586
0.000160248
0.000148638
0.000166752
0.000148365
0.000160848
0.000213011
0.000147254
0.00015485
0.000156131
0.000160823
0.000145837
0.000147525
0.000150267
0.000159756
0.000166071
0.000149163
0.000195515
0.000147877
0.0777506
0.000144695
0.000146345
0.000174624
0.000149792
0.000178904
0.00019165
0.000161041
0.000148117
0.00015028
0.000147958
0.000161322
0.000148404
0.000163184
0.000155423
0.000148638
0.000145929
0.000155127
0.0952052
0.000158847
0.000163518
0.0807673
0.00104288
0.000161272
0.000144885
0.0743725
0.00014788
0.000151947
0.000149277
0.000188074
0.000147725
0.000159799
0.000155205
0.000151302
0.000148704
0.000153756
0.00014927
0.000175007
0.000147356
0.000149173
0.00014792
0.000156647
0.00840318
0.000148052
0.0178927
0.000166749
0.000144122
0.0965427
0.000173455
0.000147457
0.000151402
0.000191635
0.000146729
0.000147395
0.0622254
0.00014802
0.0685277
0.000153336
0.000152928
0.00014978
0.000149699