/*--------------------------------*- C++ -*----------------------------------*\
| =========                 |                                                 |
| \\      /  F ield         | OpenFOAM: The Open Source CFD Toolbox           |
|  \\    /   O peration     | Version:  v2012                                 |
|   \\  /    A nd           | Website:  www.openfoam.com                      |
|    \\/     M anipulation  |                                                 |
\*---------------------------------------------------------------------------*/
FoamFile
{
    version     2.0;
    format      ascii;
    class       volScalarField;
    location    "600";
    object      omega;
}
// * * * * * * * * * * * * * * * * * * * * * * * * * * * * * * * * * * * * * //

dimensions      [0 0 -1 0 0 0 0];


internalField   nonuniform List<scalar> 
10042
(
0.0219075
0.0220487
0.0218438
0.0229646
11.6787
0.02207
5.80847
2.43259
0.0217204
0.0220087
5.3992
0.0229109
0.0215271
0.0214901
0.0234535
0.022031
0.0220223
0.0222585
0.0219102
0.128425
0.0219021
0.234957
0.0215774
0.021614
0.022056
0.028693
0.0221324
0.0226507
0.0217713
0.0223398
0.0220183
5.55042
0.0220197
0.022222
0.0259309
0.0216261
0.0278977
0.0330942
0.0216287
0.0292719
0.141155
0.023092
5.63256
0.0219864
11.8352
0.0601951
0.0222931
0.0986468
0.0270245
0.0498118
0.022167
0.0221182
0.0231217
0.0226987
0.027931
0.0220627
0.0217712
0.0222621
0.0222143
0.0229296
0.0220438
0.022001
0.0261076
0.0218281
0.0222082
0.0222285
0.0220201
0.0718101
5.18237
0.0218742
0.0226375
0.154244
0.0219918
0.0316616
0.0219984
0.0216106
11.123
0.0219206
0.0296592
5.6282
0.0263025
12.5096
0.0219754
0.0227342
0.0220255
0.0222138
0.0218858
0.152977
0.0219325
0.0218876
0.0221268
12.7718
0.0227218
0.0220572
0.022296
0.0218496
0.0219315
0.0218464
0.0287656
0.0217631
0.0222908
0.104971
3.88933
0.0222024
0.022543
0.0503264
0.0219086
0.0219248
0.0219105
0.0214378
0.0217082
0.0218252
0.0255452
5.10852
0.0221972
0.0218385
0.0219394
0.0219162
0.0218467
6.31529
0.0219255
1.6186
0.0220162
0.0219815
0.103903
0.0219787
1.46985
0.0277794
0.0485265
0.0218796
0.0306046
0.0219927
4.79189
0.200377
0.021764
0.0573546
5.06682
0.0221339
0.102956
0.176309
0.0226539
0.0219364
0.0224318
0.146533
0.0218184
0.021825
0.0568652
0.0215144
0.0218585
0.0251273
0.0217375
0.0222555
3.92127
5.37502
0.0221858
0.0215221
0.0225359
0.0219925
0.0577765
11.4247
6.13077
0.127921
0.0219846
0.02174
0.022036
0.021976
0.0587659
26.6798
5.91842
5.88679
0.0223756
0.0218387
13.0964
0.162986
0.0375926
4.81423
10.3549
0.0220021
0.0831663
0.0313942
0.0226722
5.92209
0.0220675
0.027673
0.0229704
7.35409
0.245856
0.0220345
5.55518
0.0236875
2.83125
0.0224278
3.7819
10.5953
0.100876
5.81953
0.0251596
0.0219212
0.0215274
0.0232859
0.036411
0.022068
0.0218182
0.170347
0.0220575
0.0216708
4.34583
0.0221571
0.0222603
0.0222428
1.73509
0.0218238
0.0545432
0.302649
0.0225108
0.255056
0.0219524
0.0219878
0.0643071
0.0217666
0.0256446
0.0226575
0.366964
0.0342785
0.025219
0.029606
0.329765
0.0218318
0.161919
0.0228345
0.0217186
0.132162
0.0218471
0.0227967
0.0218758
0.0253135
0.0216988
0.0214749
0.0230597
0.0254906
0.0219916
0.0220213
0.0219945
0.0256123
0.021839
0.0220274
0.0216151
0.0226013
0.0225126
0.0222689
0.0215284
0.0218657
0.024153
0.479602
0.128288
6.57141
0.0381263
0.0369061
0.0236241
0.0675703
5.47363
0.0228618
0.0219122
0.0214921
0.0232187
0.021699
0.243839
0.0230397
0.0218814
0.0222503
0.0382264
0.0225536
0.277248
0.0374987
0.183485
0.0237625
0.0254502
0.0217038
0.02476
0.0218415
0.0325731
0.0219026
0.0287588
4.80974
0.021673
0.0218049
5.59078
0.0615555
0.0220035
0.0220425
0.0238757
4.81141
0.0543111
0.153388
0.022182
0.0215233
0.0218324
0.0217348
0.306678
0.0218763
0.0220376
0.021836
0.0219538
0.0341493
0.0236583
0.0750641
9.4887
0.0227613
8.62441
0.0218419
0.0245415
0.0221239
7.72484
0.103985
2.28518
12.2897
0.0215949
0.0230531
0.0218787
0.0238506
0.0296822
0.0222416
0.0324697
0.0217029
0.0214865
0.0220092
0.0807536
0.0222839
0.0233889
0.0219576
0.0235199
5.96896
0.0218419
0.0221763
0.0219883
0.0218015
0.0414319
0.101305
0.0367626
3.29028
0.0345847
0.0267447
0.0219728
0.0214731
0.0221973
0.022268
0.619873
0.0219027
0.0222289
0.111369
0.0218208
0.0245045
0.0228478
0.117638
0.021829
0.0250294
0.0457124
0.0321995
0.0232084
0.021927
6.47355
0.057742
0.0221881
0.0410749
0.0219465
0.0218509
0.0219442
0.0244609
0.929427
0.0239862
0.0222493
0.0227063
0.0222923
0.0222708
0.126848
0.0219252
0.0216002
5.195
0.0218363
5.99436
0.535636
0.0322802
4.34987
7.51717
0.0275608
0.137888
0.0221589
0.0516058
0.0222913
0.0222043
0.237718
0.0220652
0.0240951
12.3242
0.0219469
0.0219035
0.0493296
2.17547
0.0221525
0.0215156
5.59646
0.104948
0.0218349
0.0722263
12.2905
0.0217655
0.022264
0.0216271
0.0218634
0.0214701
0.021666
7.93636
3.80262
0.0222381
9.90358
0.0214923
0.0218768
0.588688
0.0219667
5.59059
0.0587052
0.022746
0.0215704
0.0215097
0.135264
0.0224684
0.0275614
0.0223335
4.95025
0.0224032
6.56048
0.0232603
0.0219339
0.0218383
0.645337
0.0219498
0.0255088
0.021863
0.0218112
8.10749
0.0252323
0.0219278
0.0217386
5.95164
0.0218712
0.0255802
0.0232025
0.0217042
10.0874
4.36758
0.021882
0.0221419
0.0241528
0.0215281
0.0220076
0.02197
5.78046
0.021994
0.0217064
0.0282134
2.26163
0.0580798
0.0222685
0.0310197
17.8498
0.0361374
0.0219338
0.0219331
0.200741
0.0221209
0.0219402
0.0289369
0.0217593
0.021667
0.0227982
0.0215566
0.0374281
0.0219054
0.021954
6.8875
0.0217599
0.022298
0.0220672
0.0222736
0.0323369
0.0218864
0.0217826
1.88884
0.0224511
5.94238
0.022833
0.022282
0.0222767
0.127258
0.0218987
0.0219327
0.0220128
0.0222562
0.0274661
6.18476
0.0218749
0.0373375
4.51771
0.0359767
0.0222611
0.0219561
0.0219532
0.0222032
0.0218534
2.00491
5.17422
0.0220752
0.0278016
0.0281916
0.0276363
0.0220059
0.0216536
0.45965
0.129574
3.24328
0.021568
0.0220011
0.0219335
0.0218412
5.69094
0.0342167
0.0222627
0.0218248
0.0217934
0.021977
0.628135
0.0252263
0.0221399
7.03339
1.33347
0.404613
0.0512248
0.0220153
0.0217728
0.057589
0.0519439
3.10231
26.3482
0.0245565
0.0257919
0.0222106
0.0233342
0.0221322
0.0221999
5.64214
0.0216088
0.0218455
0.0574513
0.0222104
0.261014
0.0226652
0.138506
0.0289878
0.0222448
0.0229557
0.0259353
0.0381951
0.0511806
0.0808868
0.0222823
0.0497359
0.0228129
0.0218496
0.022119
0.0222246
0.0220337
0.0248
0.0583784
0.0404719
0.0221432
0.0225067
0.0220088
0.0219121
0.125492
0.0219288
0.0231709
0.200568
0.021559
0.0519991
0.0777612
0.0220398
7.30969
0.0415739
0.0222099
0.271706
0.0219242
0.0222686
0.0219529
0.0219782
0.0222924
0.0237731
0.0219836
0.968605
0.0226539
0.021961
0.0221485
0.0327744
0.0329472
0.0219767
0.023937
0.0217738
0.0320351
0.0219272
0.02911
0.0216031
0.0228788
0.0215111
0.0219302
9.39106
0.0216338
0.109923
0.0219652
0.0225612
0.0217408
0.0328491
0.0220756
0.0429076
0.0220005
0.23536
0.0222621
5.78418
0.0215095
0.0233573
0.0222715
0.0219673
0.0219582
0.0237224
0.0220333
0.121611
32.1106
0.242304
0.023641
0.035873
0.0218108
0.0378322
0.0600933
0.022012
0.0286117
0.0850138
3.32786
0.078597
8.69987
0.0266898
0.0220938
0.0222313
0.0244473
0.0237668
0.0351359
0.0215998
0.0232604
0.115635
0.0222649
0.0219131
0.0242831
6.62793
0.0232165
0.0299732
0.0572684
0.0222515
5.425
0.0216158
0.0218243
0.0223639
0.0217661
6.69228
0.0689038
5.77415
0.0220568
3.69974
11.4734
0.47315
0.0349169
0.068203
0.160708
0.0398183
0.0219582
0.0218667
0.0297179
8.65954
0.0218032
0.0288505
6.35184
0.0218996
0.0219059
0.0218556
0.0228098
0.0219498
0.0218603
0.124766
7.70635
0.0218424
0.0219986
4.80247
3.091
0.021815
0.0219379
0.022155
0.0218668
0.632562
0.0687282
0.270251
0.0225399
0.0218998
0.0217155
0.0226959
0.0220527
0.0322158
0.0225494
9.11451
0.0220056
0.0220755
0.0401382
0.0217991
0.0328557
0.0645074
0.0227873
29.704
4.71331
0.0221
0.0218495
8.61927
6.63825
0.034897
0.0218996
3.02769
0.180589
0.0254445
0.0219426
0.021995
0.0219222
0.322281
0.0236113
0.0923041
0.0222685
5.55912
0.871548
0.021959
0.0219871
0.114361
0.0221507
0.021738
0.0248696
5.20632
3.21024
9.45954
0.0221957
0.0591289
0.0381774
0.0216404
0.0218551
0.0221939
0.311042
0.0222061
0.0219552
0.0590861
0.0219962
0.0631475
0.0221115
0.022107
0.0216867
0.0221514
0.184006
0.0221992
0.0218607
0.0408588
0.0547105
0.384736
0.0222101
0.0884913
2.65694
5.96684
0.0228445
6.12826
9.69842
0.021901
0.0215386
0.022587
0.0231769
2.16245
0.0232654
0.0221229
0.0222063
3.17351
0.0367224
0.0221403
0.0221424
0.021933
0.0414857
0.0217523
0.0218313
0.0310433
0.0227415
0.0222045
0.0217332
1.37336
0.021806
0.0226644
0.022028
0.0223106
0.147603
0.0222031
0.0229295
0.0220716
0.0247
0.779264
0.0222919
0.357376
0.0256174
2.54492
0.021647
0.0232762
0.0305268
0.0882495
0.0495898
0.0225393
9.57206
5.39542
0.022442
0.021784
0.389406
0.0220789
0.0222511
0.0217233
0.0222418
0.0500086
0.0222928
0.0222931
0.0636667
0.0280535
0.0227909
0.0308658
0.022658
9.70668
0.0229787
0.850489
0.0218595
0.057505
0.0362633
5.10115
0.0238848
5.36098
0.0222695
0.024735
0.0220424
0.022049
0.0219039
0.131868
0.0395662
0.0472691
7.87746
0.0221199
10.4292
0.0249813
0.0217465
0.0309108
0.0297752
4.37944
0.0219813
0.0277499
0.0504066
0.0232246
0.0409918
0.0222838
0.0215708
0.0222833
0.303505
0.0221345
0.0220036
0.0217318
0.0217233
0.0219346
0.0219878
0.0222275
0.0218464
0.0221516
0.0224014
0.0250408
0.0303877
0.0219888
2.92001
0.0219521
2.94371
0.0364635
3.11658
0.0356673
0.0245674
5.77834
0.0334066
0.320395
7.03768
0.0410606
0.0221994
0.0218425
0.0227982
0.152134
0.0218594
5.49678
0.0218616
16.5455
5.63557
0.0542327
0.0226606
6.32576
5.21806
0.0230753
0.0219773
0.0222639
0.0239434
0.0215611
0.0216643
0.0566953
0.227797
0.022078
0.0218533
0.0223068
0.649872
0.0609477
0.0221567
0.0249747
0.0883955
0.022393
0.022027
5.16358
0.0222446
0.0218741
10.914
0.0238378
0.0219394
5.78816
4.00432
9.67537
0.0219086
0.0230427
0.395486
0.0217305
0.021835
0.0222843
0.0283601
0.022043
0.0221116
0.0229901
0.0452502
0.177254
0.02178
0.0219262
0.0220789
0.0218015
0.0224839
0.0215955
0.13863
0.0282715
0.0219497
0.0219821
0.0217635
0.021975
0.0223436
5.39831
0.0283384
0.021508
0.0219234
0.040318
4.34994
0.0220418
0.021982
0.0220279
0.0215173
8.96506
0.0472704
0.0217125
0.0220669
0.0290038
0.10376
0.0221695
0.0222828
0.0247183
0.0219445
0.0253838
0.0223127
5.9544
0.0344021
0.0220697
0.0256146
13.2073
0.0278527
0.153974
0.024886
0.387865
0.0222709
0.0220096
0.0246743
0.0655384
0.0218927
0.0217183
0.0222436
0.0224803
0.105224
0.118991
1.08319
0.0225058
0.0219924
0.0279157
0.0219612
0.0219583
6.40384
0.0235336
0.0219507
0.0219817
0.283126
1.15899
0.0219909
0.0220427
0.0901143
0.0217364
0.0221039
0.0219302
0.0878258
0.0229057
0.0253995
11.4567
0.0222235
0.0221686
2.60108
0.0219056
0.162791
0.0218943
0.0232524
0.0412544
0.0219783
0.0220896
0.0220698
0.0232712
10.0682
0.0219165
0.0221354
0.210572
0.0254231
0.272819
6.18255
0.0460923
0.0222122
0.423745
0.0217825
9.81422
0.0221682
0.0219863
0.0216828
6.46717
0.0222123
0.0223011
0.0221602
0.0328061
2.3129
0.0278412
0.0482808
0.0218991
0.0221354
0.0363869
0.0286338
0.0218331
0.0250085
0.0218807
4.61469
4.86194
0.0221393
0.0228333
0.0222229
1.56197
0.0221574
19.7798
0.0219766
0.0217833
0.0217054
0.0223527
0.0235605
0.0222715
0.0219884
0.0219838
2.37024
0.104411
0.0218397
0.0242342
0.0236306
0.0402992
0.0217987
0.0255624
0.0227965
0.0219528
0.0230974
0.0298081
0.0222802
0.0219124
0.0264438
0.0217216
0.1571
0.0229935
0.141158
0.0220911
0.0220371
0.021743
0.0711018
0.038984
0.0217658
0.0242534
0.0707785
0.0223888
0.021769
0.0252556
0.0222247
9.39556
0.21637
0.0247419
7.37949
0.0230061
0.0335777
0.0902386
0.0370376
0.0323577
5.51771
0.0289058
0.128238
0.0219581
0.0228339
0.021838
0.0219365
0.0260393
0.0217491
0.191169
0.0219717
0.0219844
0.073465
0.0219379
0.0536847
0.0251072
0.0252084
0.0218641
0.041673
0.202023
0.021415
0.0307425
6.26546
0.0413749
0.0217186
0.0289288
0.0219935
0.0217653
7.88645
0.0218295
0.0217813
0.0484266
0.0219453
0.026244
0.021738
0.0220006
4.80904
0.0218327
0.0216573
0.0244703
0.0219068
0.021498
0.0222518
9.92066
0.0221265
0.0220848
0.0215585
0.0830206
0.0223577
0.0243369
0.0219233
0.0340547
0.0226013
0.0218953
0.0227816
0.0221005
0.0217775
0.114742
0.0410641
0.0284943
0.0233585
0.0445165
0.0725423
0.0271634
0.0278235
0.0228462
6.73242
0.0219277
0.0219528
0.0219231
0.0222384
0.0348745
0.021892
10.193
4.85568
5.53395
0.0220844
0.0244802
0.0383157
0.0215213
0.0868147
0.046308
0.832442
0.0652584
5.21922
0.072689
0.16298
1.89169
0.0280369
0.0227955
0.024912
0.0217678
3.76898
0.022481
0.0288347
0.0217964
0.0248745
0.0220442
4.99524
4.61515
0.0222037
5.29978
0.631751
0.188054
0.0451886
0.0637562
0.0216616
5.72996
0.0219595
8.31413
5.37355
0.0222044
0.0218989
0.0220014
0.0232546
0.0244552
0.0347889
0.184524
0.0221252
0.0220386
0.0249384
0.0222827
0.0220361
0.0258399
0.021833
0.0220588
0.207991
0.0607304
0.0220408
7.12143
0.0226939
0.0222721
0.0233236
0.283219
0.0219362
0.0217272
0.108742
0.182516
0.0217658
0.025016
0.695968
0.0532962
4.76602
0.0217773
0.157139
5.21384
9.89788
0.0220832
0.0219113
0.0613254
0.0259847
0.0405201
0.0222915
6.77476
0.0484505
0.179409
0.0220351
0.021976
5.48732
0.18846
0.0221503
0.0222723
6.16176
0.0219184
0.0215802
0.0217182
0.0232732
0.0221969
0.0292606
0.0220978
0.0234463
0.0216152
0.0321351
21.7759
0.0579662
0.0340202
9.34599
0.0749088
0.0216346
0.021763
0.0218471
0.0222837
0.125092
0.0294009
0.021963
0.0219714
0.0219704
0.0216026
0.031901
0.0216098
0.0474638
0.0237459
0.0221241
5.16755
5.27703
0.0221025
7.56097
0.0334097
0.0327857
0.0222641
0.0216153
10.9169
0.0729642
0.021921
0.0217229
0.0219297
0.026139
0.0222624
0.147571
0.0215158
0.0220591
0.0219868
2.07022
6.45708
0.0215015
0.0219869
0.143968
0.467997
0.0244443
5.03131
7.03175
0.0216929
0.0221421
0.0221128
0.0229497
2.08645
0.0220371
0.0222844
0.184044
0.0912214
0.0222123
0.0219415
0.0713653
0.0222836
0.0220746
0.105577
0.0802164
5.54354
0.0219829
0.0741372
0.0403797
0.0555104
0.0230106
0.0272333
0.021935
0.0219289
0.118382
0.0256454
0.0219954
0.0246437
5.27052
0.0215299
0.0218088
0.0215211
0.0744539
0.0219445
0.0220866
0.0214378
0.0219429
0.671832
9.25221
0.0221966
6.56058
5.40905
4.9082
0.0219318
0.0219352
0.0218277
0.0218877
0.0221169
0.0221504
0.0216209
0.0220827
0.0217785
0.0241774
9.21206
0.0356128
0.268127
0.0293895
0.0220308
0.0230821
0.0319117
0.0221575
0.0218452
0.0394831
0.0316243
0.542713
0.0414503
0.0214836
10.9079
0.0226617
0.0214862
0.0218391
0.340876
0.0428917
0.0226986
0.0255496
0.0220724
0.0220946
0.031858
0.0405441
0.0274246
7.94428
0.022084
0.0220303
0.616968
0.0368345
0.0250038
0.132151
0.0230168
0.0645173
0.295061
0.0647401
8.27507
0.0218271
0.0216656
0.0219388
0.0220472
0.0220948
0.0230258
0.0396487
0.0505339
16.5242
0.0220736
8.33807
8.20277
0.0239971
1.37052
0.0222036
0.0939553
8.3861
0.0219097
0.0938137
0.0215346
1.81428
0.0221977
0.20103
0.0218571
0.724474
0.0379815
5.29974
0.0218464
0.169358
0.0215971
0.0230212
0.267218
0.0218371
8.25989
5.79156
0.3009
9.34858
0.094653
5.3127
0.0386218
0.0220158
0.0442428
0.0457455
5.42482
0.0220775
0.0220171
0.022603
0.0476639
0.0219395
0.0222052
0.0221973
18.272
2.34075
0.0219056
9.90701
0.0576326
0.0217257
0.0376904
0.0271563
2.55191
0.0295178
0.0217618
0.657688
0.0220719
0.0219368
0.02209
0.124617
0.0621492
0.0217667
0.026406
0.0221107
0.0222606
0.0217914
10.1894
0.0222857
0.0218131
2.98714
0.243605
0.0238746
0.0217941
1.88297
0.0280712
0.0231915
0.0219402
0.0509139
0.0230487
0.0266246
0.0246401
7.25199
0.0429749
0.0604823
0.0214793
0.0312059
0.0455559
0.0272084
0.0223607
9.15722
0.0222527
0.158153
0.0218835
0.0221938
0.0304812
0.188496
0.023342
0.0249122
0.0221142
0.0366851
0.0653283
0.0905147
0.0277999
0.0222923
0.0219648
0.0278707
0.0865625
0.0219349
0.0433386
0.0220141
0.0219363
4.91826
0.0218862
7.89967
0.0219308
0.0269185
0.0723012
0.0219268
0.0279618
0.103309
0.103566
0.0219349
0.0820384
0.022474
0.0222634
0.0218931
5.0787
3.54156
0.021902
0.0219255
0.0215833
0.0218083
0.0930406
4.36313
0.0219215
1.35773
0.0217285
0.0217966
0.0218886
1.23883
0.0227491
0.0237688
0.0219437
0.0219497
0.0219119
0.0222568
0.0222595
0.0318113
12.0428
0.0216005
0.021911
0.0411908
0.0685255
0.0217945
7.82993
0.0518416
0.0217857
0.0214945
0.0220712
0.114732
0.0217255
0.0797053
0.0285412
0.0232848
0.0217833
0.0452045
0.0215198
0.134533
0.0275743
0.0223527
4.70838
1.59561
0.021422
0.021856
6.64648
0.121453
0.0770614
0.0238096
0.0797727
0.021527
6.3387
0.0654561
0.0216901
1.80568
3.92059
0.0231398
0.0441473
0.0533238
0.0217567
9.86986
0.0221649
0.0265309
0.0297047
0.022236
0.0220494
0.051582
0.0218662
0.021888
0.0218654
5.32533
0.0218384
0.0219381
0.0217447
0.0218849
0.0218486
0.0222303
0.0534985
0.0450368
0.0233628
0.0222498
1.45626
0.0222422
0.0218338
0.0218927
0.0215838
0.0220854
0.0219715
0.028329
0.0912582
0.0222241
0.0303033
0.0493354
0.0217286
0.0274775
3.46186
0.0226266
0.0215216
0.0220804
0.0825084
0.022203
0.0222031
0.0242118
0.0247281
7.46949
13.2536
0.0218222
0.0218623
0.0219403
0.0685875
0.0230035
0.0217943
0.0281444
0.0733593
0.0221517
0.0267811
0.0221335
0.107102
0.207894
0.0227356
0.124239
0.0257254
5.02299
0.0222053
0.0218891
6.68726
0.115958
0.0242959
0.161377
0.0907988
30.2526
0.0454355
0.669823
0.0255036
0.0246446
5.18534
0.0266013
0.205456
0.0293623
0.125381
5.42336
0.0222933
0.0221215
0.0219744
0.353392
0.0214441
6.4581
0.0363338
23.0806
0.0229179
0.117068
0.205609
0.021947
0.0221804
0.078903
0.0294807
0.0220881
0.0244446
0.0768107
0.0769079
0.0773371
0.109278
12.1631
0.144855
0.0221154
0.0222015
5.4985
0.0754798
0.022598
0.0375663
4.10137
0.0222321
0.0236339
0.021938
0.028602
0.0220392
0.0221056
0.0385045
0.0220888
0.0225958
5.36735
30.8176
0.0217262
0.0256662
0.026561
0.188883
0.0426062
0.0223051
0.0219247
0.102668
17.8061
0.0219261
0.0250591
0.0220446
6.28897
0.0218267
0.0299324
0.365135
0.322937
0.022272
0.13791
0.0866997
0.0574798
0.0255599
0.0220209
7.68827
0.0218124
0.0259179
0.0222175
0.0285091
0.0215891
0.0215982
0.0220589
0.0663996
0.0218165
0.0219776
0.0217565
0.0219072
0.0218636
0.0220034
0.0897715
8.81261
2.37174
0.0253005
0.0220563
0.0318966
0.0235581
7.29633
0.022285
0.180223
0.0216093
0.021994
0.0223521
0.0346561
4.12676
0.0219559
4.96253
0.0221889
0.0215141
0.0230191
8.54338
0.0233237
0.04463
7.07023
0.0222848
0.0221666
7.0947
0.0218814
10.8265
0.0220883
0.0314975
11.6463
0.0224761
0.0220973
0.0218563
10.1907
0.0263191
0.0218651
0.775104
0.0219561
0.0225727
0.0828338
22.8355
0.193715
5.43009
8.45521
0.0732953
0.0234434
0.181845
0.241416
0.0217605
0.0218546
0.0228053
0.0264163
0.0785574
0.0219882
0.0252998
0.0219011
0.0219583
2.21072
0.0222252
9.19418
0.0215425
0.0311458
0.0634596
0.0218247
0.0215079
5.27958
6.25175
0.0643492
0.0220809
0.0248675
0.0529475
0.0217634
0.0344893
0.101129
0.0396326
0.0231121
6.74419
24.7965
0.0215382
0.0221333
0.021646
0.0221945
0.0226146
0.0267257
19.811
0.0221205
0.021959
0.0437826
20.7919
0.0215508
1.53955
0.0215674
0.135432
0.0579427
7.69156
0.0692965
0.0531973
0.0559263
0.021493
0.0215016
0.247477
0.02546
0.0220877
0.855137
0.0218248
0.0220844
0.0216143
0.0492138
0.213861
0.581195
0.144905
0.0279853
0.0293661
0.0219099
11.5225
0.208074
0.0230035
0.0219708
0.0217223
0.0943811
9.11805
0.0357948
10.1468
0.0228485
0.0217647
4.85071
0.0219357
5.94904
10.497
0.0216773
0.0296288
0.257737
0.024144
0.0357368
0.0218172
5.06725
0.0261126
0.16136
5.47838
9.43822
0.0276067
0.0274733
0.0221364
0.149886
11.4852
0.0227569
0.0238027
5.32221
0.049032
0.0669302
0.0222635
4.45106
5.24174
0.096281
0.0219383
0.0262932
0.0218918
2.4571
0.0743242
0.0336185
9.58172
4.8865
0.0214907
0.156029
0.0221012
5.08954
0.0927754
0.0261204
0.0248334
0.919952
0.0213976
0.0640029
6.41257
4.83123
0.022976
0.0220312
0.0217867
0.0881011
1.76943
0.17285
5.60735
0.0968614
0.041347
0.0217517
5.08806
0.0801782
0.0283168
0.189765
5.58861
5.31728
5.16633
9.35981
5.66997
5.82266
0.0220505
0.0287861
0.0328813
0.0218163
11.5616
0.805755
0.0220193
8.11679
0.0221301
0.0219897
0.0217687
0.0308825
0.0218626
5.13409
0.0610424
0.224849
0.0216411
0.564363
0.0476797
0.410539
5.16261
0.0225266
0.0274961
0.0377491
0.0665612
0.0217355
0.0215957
0.021887
4.82543
0.0217759
0.0217439
0.18598
0.0231242
20.3096
0.0220455
6.74008
0.0219466
0.0220601
0.021945
0.0219714
0.0264287
0.0243789
8.48285
0.0310114
0.0366008
6.11512
0.0218108
7.31065
0.0217906
6.49262
1.52712
5.96812
0.066914
0.0219612
0.0222725
6.80001
0.0219517
0.0259277
0.0221121
0.0294186
6.56309
0.0218836
0.0218445
0.0218698
0.0222651
10.2597
10.6334
0.0218123
0.0214365
5.17005
9.87106
0.021857
5.17683
0.0222642
8.56788
5.84048
0.0702757
0.356071
1.03982
0.0854023
4.89981
0.0818749
0.021963
0.0215301
0.0217816
7.38654
10.055
0.022954
0.0281829
4.88831
0.0218316
5.39637
0.0217814
0.0218572
0.0216055
6.83492
0.0756345
0.021732
4.75722
0.0222526
7.51202
5.10779
0.0217187
0.0221104
0.120341
0.0219495
0.0218782
0.0218273
3.39646
0.0318008
0.0220312
0.0221304
3.21822
0.0219283
0.0408044
0.0219833
6.00872
0.0221016
0.104332
0.0233233
5.05553
7.87486
0.0311543
0.0867725
0.0563476
0.0220746
0.0757655
5.50416
0.0217251
0.0840218
0.0217612
0.546116
0.0218885
5.98472
3.33447
0.106107
4.85732
4.85081
0.04078
0.0224067
2.07706
0.0219303
11.5466
0.0252932
0.979087
0.0218597
0.0325917
0.0475204
0.0303073
0.022093
0.0219303
0.0221956
5.66178
0.0728971
4.71166
2.67144
0.0274984
0.0216072
0.054427
11.9126
0.0334867
0.0217582
0.0220802
6.84063
4.51208
11.3126
5.79387
0.0360374
0.0222563
0.0217733
0.0520552
0.0512415
0.745993
0.0219973
0.0220693
34.4567
0.0664429
0.0222853
0.063974
0.796554
0.106706
0.0215806
0.0483428
0.561893
1.06568
6.89522
0.249448
0.0218672
0.0222691
0.0220039
0.0222849
0.0219466
0.0220908
0.0332895
0.22202
0.0341473
0.0271844
0.0288004
0.0221877
0.0260488
0.0224024
0.034702
0.0326721
0.0218106
0.0282491
0.0218878
0.0218391
0.0224728
0.0221205
0.397968
0.0215749
0.0777651
0.633811
1.25518
8.79877
5.74323
0.0223363
0.0222368
0.0218968
6.65089
0.0217842
0.0214617
0.0221745
6.44468
0.0311232
0.0339974
0.407462
0.0233461
0.0220314
0.0296403
0.0218731
0.0481983
0.0222854
0.0341321
0.0217775
0.0219215
0.0228991
0.0234566
0.0248495
0.659154
0.0384721
0.113977
0.0605049
0.127737
0.0441237
0.0688372
0.0217743
5.1023
0.024431
0.0265867
0.0219267
0.0225576
0.125128
0.0219815
0.064305
7.00038
0.0292099
0.381445
0.104795
0.0539617
0.0696667
0.060254
0.0219256
0.0286281
0.0220905
0.0788782
0.051472
6.09401
0.0217541
0.04812
0.0263372
3.97343
0.994069
0.0463232
0.0220982
0.0523415
0.0215633
0.068303
0.0227275
4.74423
0.0216425
0.0257891
0.0220158
0.0359861
0.131794
0.0306941
8.87092
0.0220387
0.0300116
0.0609231
0.0220147
7.024
7.98217
0.158656
0.0549038
0.0479677
0.0217584
0.0217324
9.26326
0.102587
0.0215908
0.0223623
0.0249314
0.0218947
0.411393
0.0217684
6.99097
0.145179
0.147602
0.037427
0.0223066
0.0216547
0.021784
0.152976
0.0813233
0.0265418
5.12711
0.0221741
0.0230807
0.027172
8.90239
0.0214807
0.645794
0.0213981
5.88677
0.0219065
0.0218934
0.0380249
0.0219842
0.02221
0.139003
0.0220655
0.0222813
0.0217419
0.0444538
0.0255023
1.79911
0.0219891
0.0220868
0.0218451
0.130993
0.0218008
0.0285073
0.0419815
6.30851
9.83453
10.9936
0.851664
0.399159
0.0413675
0.062512
0.0272004
0.0222511
0.0221208
7.02682
0.0574506
0.021533
0.0219613
0.0219527
0.0274989
0.0817847
0.0222517
0.0301121
0.12006
0.169729
0.116557
0.0219643
0.0222376
2.79862
0.0235418
0.0215596
3.79271
8.03724
0.0216844
0.0214215
0.0267788
0.0220545
0.0379361
0.0222485
2.05406
0.0222726
1.77159
0.0219425
5.37383
0.0297951
0.0219374
0.0627369
0.021572
0.021892
0.0222647
0.0327346
0.508475
0.0218506
0.166495
0.0222855
0.0221997
0.114073
0.0216536
0.0221284
0.0221023
0.0214606
0.0219524
0.0214876
0.0221666
5.48909
0.0218532
0.0217191
0.0573338
0.0216144
0.0219318
0.0221678
0.0221374
9.44792
0.420185
0.0219897
0.022712
0.0218601
0.0222855
0.194224
0.0220552
0.021983
7.9792
0.0219578
0.0456436
0.0578144
0.0379757
0.0218059
0.205046
0.0219028
0.291752
0.0689009
0.0218249
8.68893
2.06824
0.0281416
0.121725
0.0218272
0.0218651
0.045219
0.220488
0.0217355
0.0218547
0.0221671
0.0410337
0.022104
0.0362018
0.0221114
0.0474545
1.55682
0.0392166
0.180632
0.0218369
0.0244046
0.0226836
0.0233274
0.0216806
0.02189
0.0228518
0.0232132
0.067879
0.0223381
0.0968754
0.0218223
6.21875
0.021509
0.0217717
0.0738634
0.0222715
0.105554
0.089074
0.0373466
0.0218605
0.0228641
0.0218864
0.0373871
0.0220657
0.0554641
0.0255315
0.0221423
0.0216606
0.0273611
7.90758
0.0319396
0.0519689
4.57193
0.82455
0.0389003
0.0215658
6.13532
0.0219401
0.0234891
0.0223782
0.104366
0.0218881
0.035413
0.0277348
0.0235071
0.0221217
0.0253447
0.0222
0.0608287
0.0219296
0.0221858
0.0219488
0.0284029
4.22436
0.0219848
8.57951
0.0858655
0.0214424
9.15469
0.273895
0.0217607
0.0232195
0.0889647
0.021787
0.0218957
3.77677
0.0220272
4.99659
0.0254266
0.0245843
0.0226214
0.022299
0.0219101
0.0217798
0.0609588
0.0224996
0.021959
0.0219068
0.0221373
5.5225
0.0366754
0.0220339
0.0289202
0.14919
0.0662586
0.0218773
0.0219832
0.0219446
0.0249413
0.0227543
0.0223807
0.0270987
6.40752
0.0217585
0.0229822
3.24265
0.0245437
0.106948
0.144934
0.0218663
0.02227
0.407636
0.0874693
0.183555
5.54563
5.06722
0.184532
6.53781
0.0217351
0.0231273
0.0216777
0.0221869
5.47908
0.0219766
0.0560079
0.0669854
0.029324
0.0249558
0.602127
0.0218986
0.022117
0.0252627
0.0219314
0.0220485
0.021733
0.0219623
0.0705036
0.0219347
0.0221295
0.0217766
0.0457313
0.0221325
8.24343
0.0219116
0.0228855
0.0218125
0.0222521
0.0227253
0.0219432
0.0379809
0.0229101
0.0219259
0.0281731
0.0220074
0.0222646
0.0219821
0.0309694
0.0222848
0.0220327
0.0220463
0.0220597
0.0288582
0.0220192
0.0220065
0.108529
0.0220748
0.0219135
0.0237445
3.20444
0.0519804
0.0222958
0.0542278
11.09
0.120183
0.219524
0.023904
0.0227704
0.0267861
0.319315
0.0220444
0.231103
0.0224233
0.0218897
0.0283094
0.0220514
0.0711099
0.0776713
0.0649253
0.0229366
0.0219408
0.0284868
0.0272238
0.0228671
0.0243156
0.0232807
0.0442152
0.074917
0.0754645
0.0219248
0.0237952
1.77242
0.0230751
0.0222853
6.02581
0.505622
0.0219401
0.0223743
0.0230692
0.0750231
9.77591
0.0219541
0.363453
7.74186
0.0383074
0.0594269
0.0216242
0.0235754
0.0226195
0.0838609
0.0222319
0.0294779
0.0233565
0.261147
0.0221937
0.0220614
7.41039
0.0234529
0.0229551
0.0221364
0.0222126
0.0380104
4.91757
0.0278475
0.0220425
2.86756
0.098413
0.0222635
0.0219491
0.0218242
0.024112
0.0216722
0.19477
0.0218571
0.0243306
0.0249301
0.0610917
0.0262179
0.0218197
0.0272176
0.0242084
0.0218207
0.0994681
0.0218631
0.0233789
0.0216817
0.0222719
23.3339
0.0284998
0.0222448
4.82144
0.0227395
0.0219459
2.44421
0.0699587
4.71557
0.0219158
0.0229731
0.0218697
0.0225381
0.0229842
5.69043
0.0224414
0.0908733
0.0217476
0.0220196
0.0235217
0.0219326
0.0366001
7.81541
0.526424
0.021948
0.0217163
0.243154
0.0225205
0.0221129
0.0262933
0.027108
0.409071
0.0837278
0.02277
6.33209
0.0905968
0.0223922
0.0217181
0.0221872
0.028381
4.9786
0.0222839
0.0672415
0.0226771
0.0220906
0.0215508
0.0222237
15.6811
0.0268728
0.0217478
0.02373
0.022095
0.0252787
0.0214289
0.023077
0.0219436
0.0228459
0.431824
0.0220341
0.022213
0.0992304
0.0215911
0.0215452
7.56639
0.0218744
5.77131
5.60515
11.5285
0.0265335
0.0221252
0.0214969
0.0221391
0.0214695
0.02362
0.21309
0.0519087
0.427248
0.0843765
0.0241
0.0215752
0.0229156
0.0225855
0.0222725
0.0221181
0.0215358
0.0739165
0.0224812
22.9603
0.0222587
0.0226933
0.0222635
0.0220384
8.94667
0.140479
0.0285154
0.0214944
0.0535444
0.0230428
0.0219691
0.0832859
0.021446
0.0232658
7.57564
0.0219561
0.0218904
0.0218892
6.36235
5.10244
0.021589
0.0225938
0.0243912
0.0220916
0.0216055
0.0219487
0.0220759
0.0218996
0.021843
0.0218981
0.0241272
5.24202
0.0380763
0.0219319
0.0219289
0.0222654
0.0221038
0.0221775
0.0259018
0.0274506
15.2128
0.0258108
0.0221716
0.0225292
0.0219434
0.0952078
0.0215878
0.0222236
0.0232061
0.0286353
0.0266215
8.25646
0.0220938
0.0305836
0.0226253
0.0225728
0.0221045
0.0215695
0.0229108
0.114822
0.186069
0.0217267
0.0372561
0.0752476
0.0222647
0.0401185
0.0383426
4.50051
0.0222495
0.0235461
0.0224729
0.0215797
0.0767884
0.0219561
0.0219967
0.0532536
0.225792
0.209731
0.02176
0.0219067
7.18687
4.72385
0.0215617
1.85699
4.64562
0.0218203
0.0215664
0.0216691
0.0220603
0.0221405
0.0215308
0.028395
6.38206
0.0217647
0.0219569
0.0216861
0.022158
0.021792
0.0218347
0.0215223
6.05075
0.0219951
0.229899
0.0221529
0.0217981
0.0229372
0.0218318
0.0221758
0.0291691
0.0221553
0.0222921
6.98247
0.0219899
0.0250303
0.0220214
0.0219654
0.022141
0.02181
0.119463
0.0220576
0.0221069
0.0219874
0.193582
0.03265
0.0221335
0.0221755
0.0219355
0.0230356
4.79022
0.0233583
0.0236412
0.0219477
0.0221235
0.0219372
0.0517097
0.023166
0.0228027
0.406003
0.0444194
0.0218038
0.0251533
0.0220005
0.022352
0.0218135
5.24673
0.0219591
0.0220574
0.0218026
0.0296473
0.0234333
0.022667
0.0219191
0.0217864
0.0619924
7.86945
0.0218133
0.0555233
0.0234502
0.0233532
10.4646
0.0217423
0.0219824
0.0219479
0.0237258
0.0232062
0.0217909
0.0242754
0.0219041
0.099695
0.021498
0.0217144
0.0250768
0.0221427
0.0931062
0.0257996
14.8429
0.065454
0.0222121
0.106258
4.93912
0.0224217
0.0245405
0.0220683
0.0252385
0.0217768
0.0395801
0.0440231
0.0218789
0.0289857
0.0217497
5.00346
0.0222005
0.0235296
6.20016
0.0444814
0.0240241
0.151259
0.0221565
0.0219951
5.12901
0.0217374
10.5519
0.0218432
0.0218614
0.0769367
8.32423
0.0219085
0.042741
11.4661
0.0218519
0.0221751
0.021993
0.0274511
0.0255332
0.0227811
0.0220037
4.7477
0.0219611
0.0225713
0.0219356
0.021896
0.0220361
0.0234324
0.0283801
8.21187
0.0222314
7.56199
0.0219368
0.0226139
0.0245447
0.0225747
0.0627075
0.0642632
0.0224007
0.0219216
0.021824
0.0945064
0.0217117
0.0218287
0.505605
0.12271
0.0217053
0.0220014
0.0217586
0.0220896
0.0246517
0.0799886
0.0219634
0.0221269
0.0217425
0.0221512
0.0219617
0.0214995
0.0271133
5.13951
0.0216931
0.0221887
7.62142
0.0219025
0.0384226
0.0220691
0.0302289
0.055482
20.5444
0.0222613
0.0220546
0.0217867
0.0221319
0.0220413
0.0214402
0.0221446
0.0221269
0.0232219
0.0575106
0.0250186
0.0234943
7.206
0.0220277
0.145652
0.0217171
0.0217955
0.0220146
5.53366
0.0218372
0.0546402
0.0229851
0.0226084
0.021934
0.0217454
0.0217642
0.0223233
0.021849
0.0218144
0.047981
0.271452
6.86116
0.0217894
0.0499986