/*--------------------------------*- C++ -*----------------------------------*\
| =========                 |                                                 |
| \\      /  F ield         | OpenFOAM: The Open Source CFD Toolbox           |
|  \\    /   O peration     | Version:  v2012                                 |
|   \\  /    A nd           | Website:  www.openfoam.com                      |
|    \\/     M anipulation  |                                                 |
\*---------------------------------------------------------------------------*/
FoamFile
{
    version     2.0;
    format      ascii;
    class       surfaceScalarField;
    location    "1000";
    object      meshPhiCN_0;
}
// * * * * * * * * * * * * * * * * * * * * * * * * * * * * * * * * * * * * * //

dimensions      [0 3 -1 0 0 0 0];
oriented        oriented;


internalField   nonuniform List<scalar> 
14885
(
-0.000156312
-0.000500376
0.000641481
-0.000716893
0.00047126
0.000344169
0.000348771
-0.00338653
0.00321819
0.00655745
-0.00913326
0.00206273
7.93602e-06
0.000163577
4.47681e-06
-0.00253032
0.000576417
0.00181095
0.000575917
0.00233879
-0.00262891
-0.00139075
0.00167897
-0.000267867
-0.000353028
0.000285557
0.000108952
0.0031841
-0.00119841
-0.00187413
0.000350304
0.00144109
-0.00183199
-0.000262343
-0.000348481
-0.000454629
0.00331867
-0.00259375
-0.000318274
0.000833508
-0.000498647
0.000645447
-0.000233824
-0.000538188
-0.000780354
0.000455689
0.00173416
-0.00177127
-0.000126821
-0.00143458
0.00173613
0.000168604
5.8584e-05
0.000116084
0.0106218
-0.00290972
-0.0078152
-0.00252889
0.00232489
0.000360121
-0.00051929
0.00921644
-0.00284789
6.16696e-05
-0.00064789
0.000569367
-0.00713858
0.00152323
0.00540757
1.93739e-05
-8.91802e-07
-1.95711e-05
0.00303291
0.000463859
0.000647738
-0.000653432
6.10115e-06
-0.000332447
-0.00236766
-0.000159839
-0.000337725
0.000546265
-0.00117546
0.00059295
0.000273878
-0.00646673
0.00102907
0.00560947
-0.00023102
8.78256e-05
0.000270354
-2.65547e-05
-1.72704e-05
-0.00159932
0.000209078
-0.00145176
0.00129403
0.000135477
0.00499312
-0.00108867
-0.00412098
-0.00073654
8.46418e-05
0.000506908
-0.000910583
-0.000357208
0.000182709
-0.000196799
6.96779e-06
0.000569544
-0.000662532
-0.000152553
0.00429315
-0.00513794
0.000896959
-0.00024906
0.000462069
2.66709e-05
-0.00705758
0.00102124
0.00597054
-0.00224416
-0.00530824
-1.74136e-05
-1.40251e-06
-7.09051e-06
0.000299189
3.9964e-05
-1.9506e-05
0.000558741
-0.00025234
-0.00522971
0.0057013
-0.000271155
0.00474013
-0.000400139
-7.59299e-05
0.00189285
-0.00220113
0.00128154
6.03384e-05
0.000384991
0.00284814
-0.00250799
-0.000178533
0.0080375
-0.00732692
-0.000566127
-0.000332541
-0.00203963
-0.00202777
0.000716494
0.00150679
0.00563666
-0.00477958
-0.000748567
-5.17093e-05
4.8202e-05
2.53398e-06
0.000305202
1.59247e-06
-0.00249487
0.00260565
0.000213076
-0.00447269
-0.00056158
-0.00134202
0.00156231
-0.000223494
0.00279157
-0.000404667
-0.00242217
0.00705319
-0.00201144
-0.00495405
0.00965865
-0.00338229
-0.00639361
-0.000683104
0.0008766
-0.000168718
-4.67449e-06
-1.47377e-05
1.30311e-05
-0.000780655
0.000126769
-0.00468067
0.00493092
-0.000166703
-0.000566397
-0.00664449
0.00685317
-7.20034e-05
-0.000375157
0.000448554
0.000967962
0.00470941
0.00571568
0.00151507
0.000117627
-0.00119556
0.00266062
-0.00146863
-3.10961e-05
4.64621e-08
0.00126628
-0.00246285
-0.00037086
0.00076745
-0.000104512
-4.15411e-05
0.000620747
0.000249132
-0.000672647
0.000101257
0.00253376
-0.000275242
-0.00279983
0.00725053
-0.00289217
-0.00412361
0.0010744
-0.000932611
4.94221e-05
0.00716418
0.00246429
0.00318125
-0.0026546
-0.00310317
0.00283833
-9.67249e-05
-0.000958836
-0.00220865
0.00302493
-0.00220981
0.00165591
0.000800638
0.000332636
-0.000642617
-0.00441825
7.31208e-05
-0.000101162
0.00143964
0.00229052
-0.000281607
-0.00219027
0.00666773
-0.00782885
0.000884415
-0.00682569
0.0067113
0.00712969
0.000574639
-0.000550311
6.01593e-05
-0.00473427
0.00047501
0.00414549
-0.00140408
-0.000497381
0.00210876
-0.00195109
0.000155486
-0.00207864
-0.00530462
0.00775645
0.00467258
-0.00620634
0.000117741
-1.30011e-05
0.000192503
-0.00750088
0.00739026
4.24462e-07
-0.00227432
0.00637696
-0.00394268
0.00722811
-0.00138964
-0.00192893
0.00275522
0.000651366
-0.00803574
0.00596778
-0.00731673
0.0011168
0.000613321
-0.00228387
0.00262143
-0.00024182
-0.00158232
0.000240427
0.000357718
0.00232909
1.95705e-05
8.77941e-05
-0.000153997
-0.000640039
0.00173578
-0.000993094
0.000705318
-8.2314e-05
-0.000721108
-0.000462417
-0.0013561
-4.82661e-05
0.000345079
-0.000348052
-5.3766e-05
-4.55426e-07
0.000300176
6.19277e-06
-6.88692e-05
0.000273791
0.000159698
-0.00182682
-0.00561365
0.00143824
-0.00250877
-0.00313742
0.00320688
-0.000287557
-0.00334649
0.000386031
0.000212049
0.00281257
-0.0055677
0.00526986
0.00040598
-0.00169877
0.00115115
-0.000414824
0.000399962
-1.41969e-05
0.00696395
-0.00506488
-0.00202276
-0.000412076
0.00363371
-0.00342781
-0.00489417
0.00797065
-0.00325298
-0.00125481
0.00207817
-0.000300374
0.00433484
-0.00385544
0.00785292
-0.00195243
-0.00594427
-0.00368691
-0.00422292
0.00162484
-0.00109237
-0.000127925
0.000827192
-0.000192844
-0.000479711
0.00425235
-0.00366188
9.7756e-05
-5.9417e-07
-6.37396e-05
-0.007147
0.00504867
2.25892e-05
0.000628528
-0.0026023
0.00394961
-0.00123205
-0.000136633
-0.00076714
0.00310373
0.00441923
-1.35338e-05
1.12151e-06
0.00955171
-0.0003021
-0.00905166
-0.000199302
0.000642237
-0.000381794
0.00521155
0.00185541
0.000388309
-0.000398191
-5.53493e-05
-0.00097241
0.000818337
0.000114246
-0.00341018
0.00387737
-0.000340662
0.000264119
0.0018128
0.000951914
-0.00344825
-0.00509235
-0.00039008
0.00647361
0.00168858
-0.00345399
0.00285933
5.02584e-06
9.03692e-06
-0.00158772
0.000892224
0.000496395
0.000155491
9.44386e-06
-0.00383589
0.00372243
9.35493e-05
0.000326458
-0.00236056
0.00254698
0.00107359
-0.00117942
0.00039936
-0.000462166
0.0065481
-0.00163874
-0.000137977
-0.0012866
-0.000148156
0.000139012
0.000163346
0.00165992
-0.000240351
-0.00162066
0.000322519
-0.000626805
-0.000737479
-0.000182391
0.00106098
2.54516e-05
-0.000439372
0.00074431
-0.000710277
0.000134123
-0.00185202
-0.00303221
0.00476275
-0.000841409
0.00050555
0.00194104
0.00492675
2.29098e-06
-6.56472e-06
0.00191734
0.000246104
0.000821812
-0.000322873
-0.00024717
-0.00374462
5.76792e-06
-0.000121645
1.47172e-05
-0.000273069
8.39232e-05
0.000228496
-0.00199444
-0.00109751
0.00336946
0.00536946
-0.00626244
2.06221e-05
-4.89367e-05
2.63394e-05
-0.00491941
0.000193355
0.00490831
0.00163384
-0.00151215
-0.000279018
-0.000154195
0.00199171
-0.00216461
-0.000352588
-5.28778e-06
0.000152435
0.000837696
0.00324139
-0.00320209
0.000177234
0.00042185
-0.000182935
-0.00429843
0.00751201
-0.00314997
0.00117226
-0.000159452
-0.000992376
0.00704778
-0.00655447
-0.000467768
0.00215973
-1.16036e-05
-0.00495736
0.0059455
-0.000849548
0.00443517
-0.00421751
-9.36637e-05
-0.00185456
0.000324771
0.0015184
-0.000275128
0.000180409
-1.98416e-05
-0.0003464
-9.82371e-05
0.000290448
0.00307531
7.5396e-05
0.000894155
-0.00106145
-0.00342842
0.000243779
0.0054364
3.92702e-05
-0.0062094
0.00120418
0.000296835
-0.00038517
2.15208e-05
-0.00180279
-0.000188006
-0.00197298
0.00191083
0.000135716
-0.000435537
0.00121974
-0.000709069
0.000603008
0.00016283
-0.000734598
1.33345e-05
-0.000233534
0.000185295
-0.000311818
0.00217994
-0.00162051
0.00495224
-0.000163959
-0.00551971
0.000434809
0.00649811
0.000511224
-0.00696158
0.000172234
0.00136238
0.00706218
-0.000482005
-0.000166605
-0.00448027
-0.00511603
0.000152254
-0.000933302
-0.00918011
0.0101524
0.00218657
0.00575146
0.00056431
-0.00385668
0.00381067
0.00319321
-0.00503116
-0.000130634
-0.00084448
-0.00206687
-0.00126209
-0.0027218
0.00103618
9.82167e-05
0.000386245
0.00277778
-0.00471535
0.00157661
0.00786948
-0.0027419
-0.00490647
-0.00721067
0.000417269
0.00360201
0.000429021
-0.00064239
-6.38834e-05
-0.000191799
0.00214912
-0.00180388
6.47701e-05
-6.50378e-06
0.000158316
-5.88741e-05
1.79229e-06
0.000124164
2.28295e-05
-0.00201351
-0.000132563
0.0023541
-0.000169271
0.000353633
6.28598e-06
0.000236598
0.00396257
-0.000283188
-0.000512696
-0.000512389
0.000229524
-7.6413e-06
-4.84938e-06
0.000426418
-0.000271559
-1.00763e-05
0.00230777
-0.00112605
-0.00110705
-0.000467876
-0.000894238
0.00162273
0.00887506
0.00105771
0.00212041
0.00588225
0.00018864
0.00123033
0.0101928
-0.00785412
-0.00205413
0.00397859
0.00276527
0.000171146
-0.00552856
0.00465581
0.000557763
-0.00287117
-6.51909e-05
-0.000756218
0.000800435
-0.00240896
0.0019691
1.79779e-05
-4.55025e-05
0.000194952
0.00141547
-0.00150319
-0.00231623
0.00276666
0.000934667
0.00138616
8.27368e-05
0.000335209
-0.00122693
0.00071001
-0.00290578
0.000110271
-0.000866546
0.000143289
-0.00464248
-0.000332746
-0.00115149
0.00121373
6.03729e-06
0.00481689
0.000265944
0.0022099
0.00818524
-0.00153471
0.000410744
0.00125059
-0.000255072
0.000129185
8.98891e-05
0.00635717
-0.000707343
-0.00545149
-0.00137464
0.000691601
0.000333207
-0.000376701
-0.000236124
6.51923e-05
-0.0005031
0.000708958
-0.00702128
0.0027668
2.33065e-05
-6.89167e-05
0.00288438
-0.000986814
-0.000446707
-0.00654054
-0.000177518
0.00674462
0.000850515
0.0016186
-0.0023976
0.000250409
1.32149e-05
-0.000255095
-2.97287e-05
0.000297787
-0.000237801
2.09087e-05
0.000272567
-0.00165323
0.00156421
0.000258492
-0.000128881
0.00248135
-0.00217412
0.000355946
-0.000273164
-0.000197426
0.000119397
2.59746e-05
3.41924e-05
-0.00276037
0.00037077
-0.000835861
0.000319844
-0.00164449
-0.000108749
0.00212771
0.00827961
-0.00596939
-0.000845658
0.000417659
-0.000119189
9.65107e-05
-0.000133098
-0.00164789
2.95733e-05
-1.22252e-05
-0.00191253
0.00186316
-0.00106759
0.00196371
-0.000856824
-0.00136941
0.00109849
-0.00111428
7.46629e-05
-2.63779e-06
0.000119134
-0.00139653
-6.76532e-05
0.000246331
-3.30053e-05
0.00418451
0.000131689
-0.00274368
-0.0037721
0.00624047
-0.00111402
0.00769036
-0.000303534
0.000547419
0.00225694
-0.00220472
-0.000188883
0.000185814
1.97904e-06
3.12349e-06
-0.000157969
-0.000101032
0.000642161
-6.12555e-05
-0.000528509
-0.000238736
0.000210744
-0.000152134
-8.25041e-05
0.000160649
0.00492889
4.1743e-05
-0.000387535
-0.000964198
-0.00108461
0.000133334
0.000944946
-0.000395984
0.000371767
4.07389e-05
0.000431763
-0.000874439
-0.000726384
6.57898e-05
0.000771972
0.00635493
-0.00454047
0.00571592
-0.00017758
-0.00130296
-0.00316444
0.00317503
-0.00558227
0.00538935
-0.000279556
0.000288646
-0.000789971
-0.000224696
0.000313351
-0.000145052
-0.00086224
0.000838155
5.95121e-05
0.000284043
-0.00735724
0.00498823
0.00266396
-0.00092948
-0.00015653
-4.48177e-05
-9.95788e-06
-0.000206195
0.00143626
-0.00361156
0.00323431
0.000279576
-0.00192808
0.00176851
-5.96498e-05
-5.76146e-06
-0.00133217
0.000144255
0.0012157
0.00129244
-0.00101646
-0.000727329
-0.00070646
0.000434172
-0.00125308
0.00120584
-7.66681e-05
0.00103814
-0.00258206
0.00134509
0.000469536
-0.00399437
0.00367209
0.000141394
0.00117524
-0.00139871
0.00227776
-0.0027371
0.00401043
-0.00338349
0.000233799
-0.000251901
5.63883e-05
-1.04998e-05
0.00289501
-0.000108299
-0.00057328
-0.00998295
0.00911956
-0.000127393
0.000753562
0.00548804
-0.00604778
-0.000158928
4.92198e-05
2.8722e-05
0.0076216
-0.000451508
-0.00575487
0.00446904
0.00335963
-0.00256013
-0.000232927
3.70932e-05
0.000310891
0.00151677
-0.00158409
-6.28881e-05
-0.00202579
0.0028286
-0.00121151
-0.000408479
0.00409424
-0.00369538
0.0035872
-0.00342592
0.00316765
0.000429915
-1.84066e-06
0.000364422
0.000283169
1.42226e-05
1.04752e-05
-1.04752e-05
-0.000473883
-0.000125589
-0.0014507
0.00135614
6.38912e-05
0.00160805
-0.00105293
-0.000244019
0.00217505
-0.00168161
0.000143243
-0.00116562
0.00145357
-0.00052413
0.000275004
-0.00690606
0.00628233
0.000316318
0.00187545
-0.00189001
0.00467138
-0.00358503
0.00525485
0.00108514
-0.00552255
0.00220459
0.00344568
-0.000330294
-0.00071437
0.000213786
2.97555e-05
0.00458093
-0.00387279
-0.000776825
0.000242651
-4.73397e-06
0.0104244
-0.00799581
0.0063489
-0.00632997
1.19697e-06
0.00182376
-0.00176198
-1.45094e-05
3.76983e-05
6.30768e-05
-0.000312058
0.00180365
-0.00164332
0.000982053
-0.00974249
0.000586943
0.00889038
-0.000254615
-0.00133694
0.00158258
0.00276981
-0.00365422
0.00481469
0.001716
-0.00020194
-0.00661565
0.00712076
-0.000434449
1.61547e-05
-6.37124e-06
-3.24711e-06
-0.00224074
0.00188685
0.00626365
-0.00808084
-5.85127e-05
0.000343854
-0.000233698
-0.00324982
-0.000310995
-3.99758e-05
0.000299115
0.000230375
0.00200886
0.00211122
0.00837205
0.00159982
-0.000774
-0.000884365
-0.000977313
0.00197698
-0.00076686
0.00026703
-5.92257e-05
0.000124864
0.00145076
-0.0016088
0.00021592
0.00139761
0.00480139
-0.000601373
-0.00416911
0.000884445
-0.00325354
0.00261615
-0.00303191
8.27853e-06
0.00026386
-0.00028446
0.00170855
0.00308376
0.000189133
-0.00015017
-1.30457e-05
0.00144338
-0.00176002
-0.000105399
-0.000619605
-0.000102294
1.19869e-05
0.000102794
0.00296051
0.00111268
-0.00400118
0.005052
-0.000400564
-0.0043269
0.000721351
0.000896957
0.00346859
-0.00389808
0.00238096
-0.000943614
0.00394874
-8.12391e-06
-1.47198e-05
0.00118512
-0.00196476
0.000545111
0.000750751
3.52576e-05
-0.000376857
0.000349687
0.00332405
-0.0033053
-0.00017003
0.00360292
0.00133035
-1.68782e-05
-2.82693e-05
4.35834e-05
-0.00647032
-0.00073847
-0.000468035
0.000461168
3.98201e-06
-0.000725626
0.00325808
0.000293873
0.00425317
-0.00435364
0.000215596
-0.000125699
-0.000308001
1.19638e-05
0.000295838
-0.000338431
-0.00123024
-0.000163157
-0.00353658
0.00132163
-2.15279e-05
0.000116633
-0.000179407
-0.00144682
0.00121373
0.00151682
-0.0017768
0.00041822
-0.00047199
0.00209975
-0.00394712
-0.00138109
0.00429571
0.00496534
-0.00144073
7.80052e-06
0.00252429
0.00684242
-0.00045641
-1.85029e-05
-9.4655e-06
0.000106562
-7.35553e-05
-0.000198908
-0.000376796
0.0106469
-0.00563684
-0.00511031
0.000785408
-0.000873357
-1.17829e-06
4.39653e-05
0.000675613
0.000579635
0.00395251
-0.000286101
0.000466785
-0.000635163
0.000804578
0.00168
-0.00219571
0.00174864
-0.00219526
-0.0032949
0.00327423
0.000203859
-0.000175488
-2.55302e-05
0.00661297
-5.28835e-05
-0.00652065
-0.00340216
0.000275685
0.000216675
-3.52896e-05
-6.69445e-05
0.000112351
-0.000398045
-0.00317614
0.00311213
8.12182e-05
-0.000293663
-0.000437551
-0.000978393
-0.000183722
0.00137205
-0.00169717
0.00122559
5.46003e-05
0.00213328
-0.00225388
0.000830622
9.50975e-05
9.92806e-05
-1.49533e-06
-3.71189e-05
0.000302694
-5.00631e-05
6.23139e-05
-0.000359844
-0.000855568
0.000198096
-0.00112667
0.000955799
-2.64737e-05
2.74008e-05
0.00106028
-0.00130987
-8.44696e-05
0.00506789
6.98912e-06
-1.47053e-05
3.33206e-05
0.000862089
-0.00094434
-0.00137183
0.00129259
0.000106697
0.0031158
-0.000259631
-0.00265982
0.00309432
-0.00320181
-0.000135298
-4.44129e-05
-0.000132178
7.58905e-05
2.07396e-05
-0.00262303
-0.000374631
0.00317394
-0.00487084
0.00458789
-5.59651e-05
-0.000707367
0.00115585
0.000583725
-5.57193e-05
0.000153219
3.36651e-05
-0.000135418
0.000375909
0.000112389
-0.00175696
0.00151552
-0.00187293
-0.0011333
0.00271424
0.000135427
-1.39389e-05
-0.000109399
-0.00554833
0.000669412
0.00524457
-0.00526721
0.00484996
0.000639673
-0.00432165
0.00425396
0.000204525
-8.09578e-05
0.000780745
-0.000109169
4.12017e-05
-0.00972857
0.00762764
0.00197311
0.00648583
0.000196145
-0.00661201
-7.5559e-08
0.000113067
-0.00180861
-0.00537384
0.0063522
0.00219923
0.00402506
0.00575935
-0.00427667
0.00421925
-0.000167666
0.000333315
-0.00031076
-2.10144e-05
-0.00296611
0.00409968
-0.00151754
0.00151311
0.0079578
-0.00450274
-0.00323734
0.00389388
0.00216754
-0.00104692
-0.00082175
0.00127307
-0.0014156
-0.00664345
0.00121578
0.00592386
0.00159844
0.00660943
-0.00613012
0.000450641
0.00585936
0.000127003
1.63461e-05
-0.00306273
0.00060915
-0.00685017
-0.000406697
-0.000194621
-0.000222783
0.000467289
0.000431896
0.00272479
-0.00423131
-0.00383794
-0.00599443
0.000507426
0.00562967
-0.00346415
0.000110147
0.00380269
0.000266086
-0.00198773
0.000179817
0.00109611
-0.00344637
-0.000365423
-0.000778936
9.03836e-05
0.000846434
0.00051778
0.00575177
-0.00844754
0.00339274
-0.00332514
0.000240041
0.00507265
-0.00111897
0.000529502
-0.00053082
-1.37817e-05
0.00110104
0.00117086
-6.45981e-05
2.30382e-06
1.48228e-05
0.000209296
3.46346e-05
0.000433544
-0.00013633
0.000138781
-1.73398e-05
-8.3724e-05
-0.000311479
0.000376622
4.30115e-06
-0.00349912
-0.00367523
-0.00265279
0.000337227
0.0025443
0.00179124
-0.00012982
-9.65361e-05
0.00024128
0.00018527
-0.000335376
3.32915e-05
2.44976e-06
-7.12306e-05
-6.45338e-05
-2.64032e-07
4.81153e-05
0.00130548
-0.000214917
-0.000785216
0.00725341
-0.00151301
0.000174247
0.00159294
-0.0075122
0.00796835
-0.000393111
-4.00231e-05
1.84351e-05
1.92368e-05
-0.00358283
0.00346256
0.000275063
0.000347187
-7.26692e-05
0.00115985
-8.30581e-05
-0.000118058
-0.00114256
0.0010307
9.47531e-05
-0.000359631
-0.00302194
-0.000122701
-1.35988e-05
-0.000118415
-0.000611107
0.000629071
-0.00089936
-0.00329352
0.00129206
0.00153438
-0.000438006
0.00357419
-0.00288436
-0.000173226
0.000115957
0.000104104
7.90154e-05
7.09172e-05
0.00452376
-0.0078906
-0.00541879
0.00139845
-0.00684456
0.00684442
-0.000297085
-0.000726286
0.00120685
-0.000593823
0.000628337
-0.00267002
-9.36069e-05
0.00235315
0.00257488
-0.00249169
0.000260813
-0.00701296
0.000663322
0.00614508
-0.000646438
7.91127e-05
0.000587635
5.336e-05
-6.25812e-05
-0.00538153
-0.000858738
-0.00197532
2.33561e-05
-3.84234e-05
0.000773146
0.00569832
-0.000281228
0.00132324
0.000133322
-0.000136053
0.0019871
-0.00143262
-0.00118013
-0.00179564
-3.92625e-05
-0.000474505
-0.000813109
0.000749854
-0.00167926
0.000933713
0.000479629
2.62604e-05
0.00057644
0.00589704
-0.00497875
1.0484e-05
2.49904e-05
-0.0018611
4.44128e-05
0.00167605
-0.001385
-0.000145123
0.00206237
4.83119e-06
3.39495e-06
-0.00107614
-0.000415478
0.000520018
-0.000291665
0.00304065
-0.00258516
-0.000215345
-0.00236663
-0.00751992
-0.00350132
0.00505044
-0.00153117
2.02116e-05
2.46873e-06
-0.00503688
0.00147222
-0.000227089
0.00273897
-0.00585663
-8.94776e-05
-0.000544282
-0.000120633
-4.85005e-05
0.00590954
0.000754988
7.9557e-05
0.000228484
0.000795895
-0.000973244
0.0094205
-0.00726763
-0.000281856
0.00344831
-0.0042495
-0.000376003
0.00393375
-0.00309227
0.00302188
5.79287e-05
-0.00113185
0.00191001
-0.000752214
0.00101996
-0.000736321
-0.000277349
8.50522e-05
9.87879e-05
-0.00183661
-0.002023
4.13035e-05
-0.00595026
-0.000171235
0.000260022
-0.000167383
0.0029077
0.00030198
-0.000319561
0.000498799
-0.00211745
0.00527293
-0.00310059
-0.00310874
0.00271119
0.000110255
1.2399e-05
5.46651e-05
-1.60482e-06
0.000210501
-0.00382116
0.00336176
-0.00584459
0.00507983
0.000353148
1.2574e-05
0.000194426
-6.70724e-05
0.000839815
-0.00216349
-0.000294813
6.71135e-05
0.000327424
-0.00014554
5.70162e-06
-8.15739e-06
-0.00662437
0.000264749
0.00753371
-0.00793558
0.000807011
0.00392939
-0.00383301
-4.90199e-05
-0.000140848
-8.4022e-06
-0.000299145
-4.59251e-05
-0.00302413
0.0009183
-0.000878548
-0.00470647
0.000459598
0.00412879
0.00336338
0.00289751
-0.000258389
0.0031319
-2.49826e-05
-0.00455124
-2.44104e-05
-2.11895e-05
-0.000287379
0.000611206
0.00031813
-0.00551254
0.00488584
-0.00422416
0.000264433
0.00372167
-0.00234406
0.00254271
-8.86454e-05
-0.000169689
-0.00283392
0.00113771
3.75606e-05
4.73579e-05
-1.07727e-05
0.000436078
0.00232615
-0.00551246
0.00511183
5.88716e-05
2.32835e-06
-0.00683294
-0.00015267
-0.00445805
-0.000322967
6.56954e-05
0.000664524
-0.00110708
2.2112e-05
-2.93079e-05
0.000248941
0.00233953
0.00354075
0.000162728
-1.59104e-05
-0.000145033
0.00148875
-0.0104489
0.000153197
0.000172979
-0.00160546
-0.00787584
0.00411135
0.00381501
0.00317781
-0.00329837
-0.000356165
0.00259928
-0.00529968
-7.08614e-07
6.41824e-05
-6.89095e-05
0.000847811
-0.00147216
0.000213709
-9.91075e-05
0.00318403
-0.00323405
-0.000216889
0.000372257
-0.000211076
-0.000520326
-0.0043014
-0.00160283
0.000324612
0.00126983
0.000194398
0.00306257
0.00304688
-0.000367462
0.00149518
0.00152502
-0.00319062
-6.84789e-05
-5.39288e-06
-0.000974931
0.00113372
0.000324699
-0.00393084
0.00353989
-0.000553508
0.00627311
0.0054087
0.00213739
9.41491e-05
-7.66853e-05
2.55725e-06
-0.00541246
0.00641224
-4.81551e-05
-1.62017e-05
-4.26391e-08
-3.56979e-05
-0.000255694
-0.000970871
0.000314552
-0.00115873
0.00382318
0.000246178
-0.00429726
0.00467338
-0.00410037
0.000693671
0.0034118
0.000136852
-0.000181068
-9.74664e-05
-1.16928e-05
3.04997e-05
-0.00342787
-0.00646631
0.000733035
0.00448841
-3.34861e-05
7.4748e-07
3.69645e-05
-0.00164968
0.000979822
0.00300171
-0.00295944
-0.000157243
-0.000252167
0.000299319
6.25e-06
0.00151165
-0.000500238
-0.000924282
0.0048823
-0.00505168
-0.000439314
-0.000293409
-0.000158139
0.000113671
3.5237e-05
0.0012686
0.000136014
-0.000412539
-0.000242354
-0.0064544
0.00571029
0.000490663
-0.001826
2.49094e-05
0.00178049
2.32666e-05
-1.87966e-06
0.000153127
9.20712e-06
-4.75561e-05
0.000496699
0.00278884
-0.00138765
0.00161552
0.00781785
1.08351e-05
0.000315745
-0.00296436
0.000127593
-3.58043e-05
-0.00138616
-0.000356591
5.9339e-05
0.000618461
-0.0037508
-0.00103517
-0.000597502
-0.00126926
-8.41296e-05
5.09451e-05
-0.000599343
0.000134698
-0.00574814
0.0036996
-0.000281697
0.000872867
6.51331e-05
-0.000419408
0.000138637
-3.97689e-06
-0.00178287
0.00309759
-0.00103199
-0.000175693
-1.7442e-05
0.000186051
-0.00210924
0.00544684
-0.00323626
-0.00464017
0.00740889
-0.00255737
0.000161214
-0.000143436
1.08372e-05
-0.000948853
0.000788534
0.000174921
0.00248249
-8.59258e-05
-0.00233904
-7.44209e-05
-8.34498e-08
-8.08442e-05
3.04431e-06
5.8052e-05
-0.000685538
0.00327547
-0.00355562
0.00404522
-0.000384005
-0.000302238
0.00146562
-0.00122422
-0.000802442
0.000611866
6.9152e-05
0.000353794
0.000632381
-0.0017385
-0.00510895
0.000373707
0.0046087
-0.000628501
-0.00512063
-0.000609169
-0.00440449
0.00218759
-0.00330145
-0.00138895
0.00108662
-1.10561e-06
-0.0001323
0.000162005
-3.3123e-05
-0.00191559
0.00167131
0.00401902
-0.000333137
-0.00369087
0.000625488
0.00452227
-8.54489e-06
-0.00114086
0.00208963
9.77496e-05
0.00623073
0.0027364
0.00185887
-0.00014777
-0.00135384
0.000379999
0.00363084
0.00559952
-0.000609401
0.000252598
-0.00022069
1.70008e-05
1.54939e-05
-0.00296326
3.47113e-05
-6.19312e-05
-0.000444868
-0.000598438
-0.00174009
3.04778e-05
0.00161897
0.000800003
0.000118472
-0.00114272
0.000274617
-0.000556018
0.00137421
-0.00387693
0.00169538
0.000630319
-1.50784e-05
-0.000545863
-0.000460083
0.000644174
-0.000452811
0.000221924
0.00108725
-0.000112431
-0.00113126
0.000114872
-0.000105702
0.000367626
2.5447e-05
-0.00443874
0.00574681
-0.00657349
0.0005253
-0.000207154
0.000158778
8.61536e-06
-0.000209714
0.000163437
1.57662e-05
0.00906964
-0.00159586
-0.00733589
-0.000252003
0.000195287
3.63291e-05
0.000114872
-0.0054387
0.00129976
-0.000134925
-0.00102919
0.00148387
-0.000135563
2.34659e-05
0.000383466
0.0025003
-2.96114e-05
-0.00275546
6.63235e-06
0.000545569
-0.00201401
-7.51745e-05
6.92752e-05
0.000688008
9.87736e-05
0.000702755
0.000163709
0.00121565
-0.00104743
-0.000543052
-0.000310705
-0.00631621
-0.00401992
0.00368064
0.00032339
0.00169649
-0.00308819
-0.000133504
0.00101918
-0.000108242
0.000135095
-1.13096e-05
-4.9268e-07
1.5632e-06
-0.000101741
-0.00174433
0.00187027
5.09524e-05
0.000467102
-0.00447584
0.00439413
0.00164018
0.00675349
-0.000138578
-0.000743447
0.00254707
-0.00172495
-0.000227423
-0.00111612
0.000337788
-0.000568504
-0.00173741
-0.000106576
0.00269619
-0.00134775
4.13502e-06
0.000266324
0.00268879
-0.000369167
-0.00231031
-0.000195012
0.00171418
-0.00615876
-0.00631346
0.00616242
0.00139989
0.000361686
0.00426013
-0.000244511
-3.06375e-05
-4.47799e-06
-0.00144566
0.00121623
-0.00289016
0.00165779
0.0013857
2.93854e-05
-6.16566e-05
2.91063e-05
-0.00632082
-0.00528999
-0.00089268
0.00629583
7.02632e-05
-0.00044736
0.000724344
-0.00370706
0.0024743
-9.31518e-05
-7.20183e-06
0.00337327
0.000218606
-0.00377288
0.00331259
0.000288944
0.00149973
-0.00100212
-0.000192203
-0.000215062
-0.000181565
-0.000756687
-6.51102e-05
-4.65424e-05
7.91465e-05
0.000287832
-0.00328739
-0.00680984
-0.000788704
0.00749921
0.000208868
-0.0035886
-0.000460666
0.00839252
-0.000254979
-0.000302622
-0.00394097
0.000148467
-0.00349586
0.00354477
-0.00245645
0.00258667
-0.0026767
-0.00224372
-6.26012e-05
-0.00311625
0.00280266
0.000141608
0.00427619
-0.00490795
0.000355788
-4.65705e-06
0.000193623
-0.000958808
-0.00685139
-1.85573e-06
6.57735e-05
0.00294776
-0.00296059
-0.000154249
0.000406198
-0.000118424
0.00708324
-0.000808553
-0.00566919
-0.00549729
0.000197251
0.00199145
2.22545e-05
-0.000304482
0.000260767
-0.000792073
0.000711176
-0.000138254
1.13362e-05
0.000116153
0.00042899
0.000334589
0.00266106
-0.0021336
-0.00144836
0.00071235
-0.00178145
0.00272891
-0.000745339
0.000852908
0.00448953
0.000131579
-0.00428287
0.000223523
-0.00138528
0.00681142
0.000850177
-1.79035e-05
-0.00870563
-0.0055435
-0.000710155
-0.0066777
0.00114777
-0.00612063
0.00576276
-0.00475138
-0.00578003
0.00546951
-0.00376911
0.00412098
-0.0022036
0.00112622
3.6012e-05
8.21038e-06
-3.21111e-05
9.18007e-05
0.000103507
4.3716e-05
3.78336e-06
0.000282981
-0.00751849
-8.06673e-07
-9.67842e-05
-0.00025943
0.000304721
1.02643e-05
0.00192838
-0.00199814
-1.22782e-07
-3.80707e-05
0.00501569
-0.000496064
-0.00426875
6.08719e-05
0.000346294
-8.44214e-05
-6.25623e-05
-4.93318e-05
-6.42461e-05
-1.51187e-06
4.54141e-06
4.40441e-05
-0.000141426
-0.00312019
-0.00191995
7.39197e-05
0.00221801
-4.1899e-05
-0.00200215
-0.0003989
-3.49173e-06
0.000412385
-0.00208195
0.00208948
0.000239663
-0.000111382
0.00206812
-0.00180499
0.00420099
-0.00621313
-0.0012968
0.00158607
-0.00119411
0.000174472
0.00594409
-0.00604183
0.00744487
-0.000845284
-0.00681012
-0.000790314
3.41915e-05
0.000815183
4.02782e-07
-7.62991e-06
2.84964e-06
0.000371815
-0.00115606
-0.000484902
0.000283466
-3.90232e-05
-0.000236787
0.00478
0.00245828
0.000192643
0.00411434
-0.00104734
-6.09025e-05
0.00109799
-0.00173813
0.000325983
-0.00133214
0.00177451
0.000251114
0.000520581
0.000262429
-0.00620295
0.00645306
-0.00455864
-0.000558577
0.00530153
2.0708e-05
-0.000395408
0.00022219
-0.000556287
-0.0041846
0.00497195
0.00599636
0.000593542
0.00427756
-0.00488166
-0.000170434
-0.00122635
0.00175719
0.0024182
-0.00260048
0.00434677
-0.000195118
-0.00158758
0.00225701
-0.00455407
0.0023959
-6.58595e-05
-0.00173831
0.000358011
0.00303702
-0.00355795
0.000990297
0.00227579
3.00504e-05
-0.000123167
0.000672259
-0.00191413
0.00160716
-0.00583603
0.00657466
-0.00681251
-3.56947e-06
0.00118481
5.90881e-05
0.000254277
-0.00426219
0.00149895
-8.33555e-05
-0.00116085
-0.00112512
1.83145e-05
0.00104418
-0.0013468
0.00110413
0.00817994
-0.0065377
-0.00115935
0.00168793
-0.00122856
-0.000786893
0.00114713
0.000156816
-0.000762394
0.000852315
-0.000139489
0.000161572
4.55094e-06
-0.00511288
0.000349505
0.00476074
6.03732e-05
-0.000401473
0.000376482
-0.000243626
0.00262898
0.00405691
0.000337659
-8.68795e-05
-0.0043437
-0.00367208
0.00393619
0.00471749
-0.00413458
-2.59865e-05
-5.64935e-05
0.000434631
-0.000269224
-0.000208622
-0.00519236
0.000578345
0.000969141
-0.00160686
0.00467807
0.0082812
-0.00109648
-9.41686e-05
1.1349e-05
9.52748e-05
-9.21361e-05
-0.0013356
-0.00139735
-0.000197671
0.000497016
-7.93344e-05
0.00714454
-0.00411396
0.00408822
0.000121571
-0.00224243
0.000137938
0.00222968
-0.000172318
-1.72158e-05
0.000293599
-0.000269074
2.08429e-05
0.000251628
-6.77714e-06
-0.00476242
-0.000270594
-0.000823768
0.000156815
0.000938877
-0.00275009
0.00321696
-8.27582e-05
3.9653e-05
-0.000745054
0.000588962
0.00605543
-0.000456613
0.00260421
-0.000176148
-0.00188116
0.00151014
-5.97723e-06
6.64586e-05
-4.97407e-05
0.00525443
0.000433186
-0.00583965
0.00161516
0.000111459
-0.000205138
2.19048e-05
0.000142399
0.000748975
-0.000281061
0.000115943
-4.0205e-06
0.00258232
0.00141497
5.80021e-05
-2.90816e-05
-0.000321963
5.69153e-06
0.000189837
0.000250738
-1.83269e-05
-0.000170705
-0.00352746
0.00388579
-0.000751387
0.000198558
9.82245e-07
-0.000192428
6.68735e-06
-0.000349217
-5.89312e-05
7.10779e-05
-6.17317e-06
0.000983228
0.00756674
-0.00400657
4.94216e-05
-5.34299e-05
-0.003118
-0.000219318
-0.000533361
-0.00744643
0.000775303
-2.08e-05
-0.000233422
0.00285359
0.00235187
0.000187347
-0.000544613
0.000898605
-0.000415868
0.000610873
-0.00219871
-0.00110984
0.00123671
-0.000238669
-0.0029234
0.000218434
-0.000122776
-2.98894e-05
-0.00806215
0.00509116
0.00610147
0.00610026
-0.000102768
0.000535463
7.43147e-05
-1.32196e-06
4.61963e-06
-0.000496881
-0.0059897
-0.00132645
-0.00103357
0.00744656
-0.00464534
0.000505126
7.02602e-05
-0.000587021
0.000213908
8.22992e-05
-0.000529911
0.000549955
-0.00491218
0.000476608
0.00491787
0.000191323
-0.00144264
6.076e-05
1.10867e-05
0.000282658
0.000301767
8.3762e-06
-0.000138213
0.00275606
0.000852573
0.00011684
6.43289e-05
0.000960961
-0.00102776
-0.00557309
0.00501423
0.000635067
0.000528629
-0.00737541
-7.5223e-05
0.000597828
0.000840054
-0.00152945
-1.18055e-05
-0.000548101
0.000120051
0.000538209
-0.00150423
-0.000538749
-0.000824434
0.000249595
0.00431577
7.24943e-05
-0.0012921
0.00124373
-4.79625e-05
-2.94007e-05
0.000119097
-0.00122025
0.000356929
-1.59409e-05
-0.000375359
-0.000419551
-0.00415603
0.00482126
0.00509032
-0.000205156
-0.00478443
-0.000977939
0.00103399
-0.000576048
-0.000121568
-0.0021217
-0.000288531
-0.0031096
0.00339239
-0.000725705
-8.69709e-05
0.00190376
-6.48628e-05
-0.00114726
-0.000203166
2.22207e-06
8.12496e-05
-0.00526214
0.00473058
-0.0049283
-0.000137251
4.40376e-05
0.0039299
-0.00338935
-0.00284523
-0.000161281
2.29387e-05
0.000134285
-0.00381096
0.00732142
0.000910008
-1.26231e-05
-0.000121589
0.000131795
-7.5786e-05
-0.000134977
-0.00107534
0.00113312
-0.000134763
1.44026e-05
0.000140398
0.000218035
-0.00195245
0.00206065
0.000435772
-0.00051038
-0.00209698
0.00443744
-0.00469618
-0.000442053
0.00431004
-0.000417575
-0.00331598
-0.000161206
-0.00312157
-0.000550977