/*--------------------------------*- C++ -*----------------------------------*\
| =========                 |                                                 |
| \\      /  F ield         | OpenFOAM: The Open Source CFD Toolbox           |
|  \\    /   O peration     | Version:  v2012                                 |
|   \\  /    A nd           | Website:  www.openfoam.com                      |
|    \\/     M anipulation  |                                                 |
\*---------------------------------------------------------------------------*/
FoamFile
{
    version     2.0;
    format      ascii;
    class       surfaceScalarField;
    location    "1000";
    object      phi;
}
// * * * * * * * * * * * * * * * * * * * * * * * * * * * * * * * * * * * * * //

dimensions      [0 3 -1 0 0 0 0];
oriented        oriented;


internalField   nonuniform List<scalar> 
14885
(
0.763119
-0.522472
-0.240698
0.00594249
-0.213888
0.208062
0.523564
-0.341878
-0.181582
0.434244
0.0306604
-0.466486
-0.6787
0.381081
0.297059
0.265542
-0.543416
0.277754
0.376545
-0.291732
-0.0845276
-0.219791
-0.26516
0.484965
0.263642
0.344692
-0.608446
0.195484
-0.351158
0.155731
-0.621336
0.400172
0.221061
0.196216
-0.190146
0.358083
-0.209618
-0.148269
0.732327
-0.255413
-0.477086
0.192505
-0.433662
0.240594
0.227035
0.505089
-0.199155
-0.272495
0.471481
-0.382845
-0.2386
0.217513
-0.433682
0.216361
0.245945
-0.468535
0.222288
0.177034
0.181225
0.469132
0.293949
-0.049294
0.482334
-0.482019
0.230764
0.251238
0.200422
-0.578947
0.377632
0.309641
-0.648728
0.339037
-0.183895
0.379625
-0.447053
-0.179889
0.626801
0.494265
-0.228888
0.503002
-0.37363
-0.129318
-0.109196
0.526348
-0.41805
-0.163885
0.283453
-0.119447
0.25942
-0.55791
0.298482
0.543931
-0.284444
0.274003
-0.493804
0.314767
0.130527
-0.445332
0.377087
-0.67361
0.294805
0.301486
-0.613687
0.311833
0.376223
-0.486065
0.451621
0.180269
-0.6319
0.244631
0.258444
-0.294299
0.234158
-0.00130848
-0.232806
-0.438827
-0.0490377
0.488104
-0.293765
0.568695
-0.27579
0.456186
-0.256661
0.565199
-0.639781
0.0744848
-0.286313
0.478
0.39469
-0.224471
-0.169977
0.180951
0.0250234
-0.20578
-0.032558
0.266761
0.65949
-0.407559
-0.253227
0.295001
0.381645
-0.164018
-0.238051
-0.177524
0.415758
0.122145
-0.230411
0.108432
0.344506
-0.167391
0.205949
-0.593343
0.387559
-0.182742
-0.227698
0.410173
-0.336897
-0.359858
0.696748
0.239294
0.155672
0.207753
0.18416
-0.391573
0.242264
-0.243482
-0.248624
-0.289264
0.537875
0.268133
-0.639502
0.371232
0.308496
-0.572658
0.263877
0.210107
-0.441057
0.230652
0.497371
0.0575785
-0.55495
0.612055
-0.545958
-0.0661561
-0.0639326
0.561308
-0.190333
-0.0371912
0.227608
-0.54452
0.293173
0.250723
0.696333
-0.414099
-0.28242
-0.429874
0.246767
-0.24206
0.550313
-0.222835
-0.663559
0.1391
0.524373
-0.0618555
0.626969
-0.538594
-0.125053
-0.269011
-0.16447
-0.0114242
-0.427327
-0.237399
0.573458
-0.0550022
-0.519645
-0.359311
0.641183
-0.283237
-0.061024
0.339733
-0.278557
0.270229
0.0598515
-0.329917
-0.235212
0.445117
0.276296
0.247371
-0.311489
-0.227794
0.538523
-0.657677
0.436451
0.220966
0.130174
0.162824
-0.292839
-0.3962
-0.0379135
-0.0167759
0.259147
0.376756
-0.106298
0.24673
-0.592699
0.345677
-0.34513
-0.151571
0.495937
0.0977139
0.030285
-0.195401
-0.280754
-0.0930319
0.373863
0.206253
-0.440568
0.233793
-0.181988
0.312366
0.333724
0.00409187
-0.33754
-0.468686
0.314202
0.154575
0.222904
0.03608
-0.203767
0.380744
-0.176814
-0.266286
-0.20177
0.467605
0.235899
-0.168982
-0.0667426
0.353551
-0.59589
0.262798
0.113998
-0.453956
0.187474
0.347253
0.108091
-0.456059
0.372811
-0.109758
-0.0846123
0.41855
0.284036
-0.532677
0.621679
-0.353768
0.664941
-0.408291
-0.256762
0.599405
-0.220998
-0.378422
-0.319659
0.652074
-0.333154
0.556009
-0.349904
-0.668555
0.326415
0.342024
0.265814
-0.602722
-0.0810002
-0.156875
0.238126
-0.270203
0.189331
-0.588682
0.293772
-0.51573
-0.142151
-0.395407
-0.234213
0.629023
0.0609116
-0.456384
-0.375731
0.137881
0.146265
0.0673082
-0.213481
0.185977
0.4134
-0.316676
-0.269772
0.586242
0.209385
0.275915
-0.485818
-0.674434
0.358975
0.314979
-0.459522
0.0412479
0.417674
0.273976
0.0990367
0.280763
-0.180062
-0.100523
0.212536
-0.444495
0.231755
-0.0983856
0.253037
0.293514
0.100684
-0.394018
0.104011
-0.384721
0.319937
-0.205576
-0.11428
-0.36181
0.660479
-0.298806
0.21944
0.0166575
-0.654864
0.207646
0.345214
-0.0263127
-0.318912
0.602561
-0.301438
-0.336268
0.275441
0.201865
0.410115
0.317473
-0.436835
0.119347
0.493261
-0.132747
-0.360442
-0.215101
0.568099
-0.311183
-0.311816
0.622736
0.0511707
0.280597
-0.332009
0.239663
0.00617459
-0.245758
0.600275
-0.353877
0.374027
-0.0288434
-0.0974258
0.243761
0.222234
-0.099943
-0.233258
-0.441615
0.486977
-0.177376
0.0156786
-0.531453
0.514691
-0.166769
0.618375
0.168854
0.112095
-0.546059
0.444201
-0.273496
-0.170427
0.317873
0.175498
0.408465
0.28766
-0.105799
0.328875
0.520331
-0.20554
-0.166936
0.48091
-0.313903
0.26243
-0.59347
0.330725
-0.294179
-0.0794121
-0.181289
0.358029
-0.176595
0.377085
0.191632
0.190101
0.13642
-0.317561
0.561787
-0.492491
-0.0698943
0.31662
0.285504
0.535146
-0.326312
-0.343147
-0.202845
-0.119435
0.413259
-0.0489948
0.267997
-0.21886
-0.223977
0.670078
-0.328173
-0.342079
0.12128
-0.57903
0.457785
0.352595
-0.27135
-0.0810491
-0.327768
-0.217323
0.591841
-0.170106
-0.421742
-0.145135
0.201206
-0.0558953
-0.302986
-0.292197
0.594625
-0.252978
0.151957
0.192631
0.267549
-0.584328
-0.297248
0.248284
0.101715
0.215252
-0.316721
-0.0534284
-0.343182
-0.246183
0.0877398
0.158503
0.299917
-0.593473
0.293482
-0.0720276
-0.12617
0.198223
0.147698
-0.5081
0.186863
0.0172073
-0.203939
-0.235487
-0.0465246
0.282117
0.1957
-0.409567
0.213809
0.324603
0.191725
-0.516549
0.279072
-0.371996
0.589953
-0.231525
-0.475672
0.305324
0.170229
-0.070452
0.310278
-0.174099
0.520349
-0.0368926
-0.423057
-0.269523
-0.190805
0.515219
-0.188787
0.384298
0.236394
0.179752
-0.416138
-0.564658
0.0527621
0.510452
0.568991
-0.5902
0.0212133
-0.649301
0.414513
0.234655
0.500631
-0.28965
-0.210727
-0.401786
0.62045
-0.2205
0.254283
0.279741
-0.224751
-0.0549442
0.58798
-0.325776
0.021101
0.258716
0.50505
-0.360663
0.390176
-0.252145
-0.497914
0.245061
0.252605
0.432472
-0.220008
0.44823
-0.259246
-0.18854
-0.357814
-0.110849
0.591138
-0.27486
0.491702
-0.431011
0.0977954
0.255029
-0.484985
0.164579
0.461439
0.0997865
0.255204
0.176743
-0.411442
0.234735
-0.0939841
0.191734
0.299154
-0.325504
-0.255265
0.485955
-0.470761
0.16334
0.307554
0.233496
-0.465609
0.232341
-0.35233
0.618135
0.409751
-0.576536
-0.355299
0.432339
-0.076805
-0.470343
-0.208916
0.511214
-0.277553
-0.14939
0.448467
-0.221824
0.272785
-0.148887
0.529432
-0.371722
0.168111
-0.30928
0.576761
0.014357
0.322848
-0.337176
0.449443
-0.353276
-0.0958974
-0.227462
0.545054
0.417831
-0.241161
-0.480746
0.177192
0.23827
0.239202
-0.477442
0.101323
-0.0710022
0.630376
-0.254412
-0.377668
0.675904
-0.239669
0.637981
-0.335489
-0.302715
0.267249
0.391032
-0.517712
-0.122168
-0.27983
0.324193
0.125646
0.428787
0.246895
-0.316225
0.330535
0.743815
-0.44452
-0.300688
0.50413
-0.0127999
-0.511361
0.197701
0.31238
-0.044169
0.225373
-0.321299
-0.248819
0.569954
0.17176
-0.208803
0.500612
-0.262429
0.251637
-0.570984
0.319405
0.162826
-0.39693
0.233833
0.28474
-0.554799
0.269599
0.290969
0.451526
0.284889
0.339376
-0.519321
0.496123
-0.231164
-0.264685
-0.0767842
-0.169358
0.402966
-0.240177
-0.0748237
0.561002
-0.48633
-0.245174
0.221548
0.0236521
-0.517402
0.340368
0.177047
-0.366005
0.539286
-0.173348
0.633973
-0.236353
-0.397616
-0.489843
0.17839
0.181451
0.157532
-0.338887
0.560257
-0.232236
-0.327942
-0.570442
0.0382717
0.530559
-0.497003
0.0934095
0.403793
-0.210851
-0.583149
0.154402
0.428432
0.117891
-0.346494
0.228937
0.176052
0.25637
-0.28815
-0.224386
-0.424069
-0.225366
0.381211
-0.173218
0.0938393
0.497994
-0.168249
-0.302391
-0.39236
-0.125054
0.382435
-0.174413
-0.224182
-0.364459
0.588457
0.62445
-0.21471
-0.238647
0.356698
-0.137013
-0.359884
-0.133568
0.508708
-0.465451
0.488254
-0.0234975
-0.56982
0.224023
-0.464046
-0.119378
0.320043
0.240299
0.277687
0.356285
-0.483684
-0.0340951
-0.374385
0.49568
-0.276421
0.498867
-0.222407
0.391905
0.272926
-0.544407
0.573268
-0.0290527
-0.0422216
0.214135
0.553479
-0.301744
0.204583
-0.565608
0.360997
0.240046
0.337792
-0.577821
-0.553818
-0.0122953
-0.266486
0.575056
-0.308543
0.265379
0.269248
-0.235403
0.331229
-0.149676
0.2744
0.314995
0.227712
0.265093
-0.493827
-0.534989
0.0124841
-0.565781
0.00149405
0.563982
-0.262783
-0.213017
-0.638755
0.402426
0.133284
0.0164224
-0.149385
-0.353996
0.558553
0.288671
-0.597858
0.571974
-0.253913
0.163636
0.156375
-0.340542
0.183612
0.156977
0.262028
-0.614374
-0.300118
0.597119
-0.297072
-0.00842092
0.544776
-0.537755
0.289444
0.301338
-0.307119
-0.251933
0.558639
0.48127
0.032482
-0.514785
0.538146
-0.302336
-0.235815
0.42835
-0.229032
-0.199715
-0.340834
-0.252153
0.297729
0.240428
-0.530631
-0.0279303
0.558532
0.477628
-0.293171
-0.595514
0.328981
-0.252997
-0.245133
0.572318
-0.232315
0.175162
0.0573356
0.0147047
-0.488198
0.473288
0.283078
-0.485504
-0.271781
-0.403396
0.22267
0.221778
0.310172
-0.516476
0.206405
0.3216
0.250543
-0.392767
-0.520639
-0.0079078
0.527321
-0.55687
0.310944
0.245727
-0.259343
0.300647
0.052428
-0.352883
-0.529973
-0.542346
0.532288
-0.545637
-0.380354
-0.226101
-0.314328
0.374469
0.241771
0.280646
-0.522648
-0.236198
-0.334714
-0.419346
0.118742
0.300845
-0.40046
0.0702586
0.330662
-0.0102155
-0.30392
-0.294473
-0.215981
0.509634
-0.314375
-0.104753
0.224851
0.223826
-0.270922
0.535886
0.0650559
-0.209858
0.144895
-0.276756
0.495978
-0.311727
0.637972
0.242953
0.242849
-0.486101
0.175629
-0.541726
0.26299
0.237542
0.044356
-0.184074
0.139749
0.203233
0.22472
-0.586816
0.287326
0.299487
0.574274
-0.252682
-0.0644314
-0.288608
0.287875
-0.526981
0.237921
0.513122
-0.239122
-0.422389
0.347886
0.192421
0.0911257
0.110179
-0.518988
-0.256366
0.0332349
0.223199
-0.265115
-0.297256
0.562355
0.300401
-0.149079
0.154291
-0.00513438
-0.530933
0.000283877
0.300888
-0.137152
-0.426632
0.584905
-0.158397
0.483778
-0.320377
0.505283
-0.242561
0.169898
-0.360991
0.191035
0.385037
-0.055342
-0.329557
-0.298105
-0.167281
0.443837
-0.241188
0.285765
-0.566433
0.280659
-0.114072
0.393326
-0.279412
0.476309
-0.181818
-0.294365
-0.0748763
0.597386
-0.363513
-0.233966
-0.38354
0.26929
0.322928
0.275228
-0.598338
0.325988
0.248303
0.57159
-0.28234
0.344759
0.325153
-0.252053
0.492446
-0.418623
-0.0739053
-0.256269
0.471745
-0.215236
0.35957
-0.189657
0.359406
0.269522
-0.188548
0.444585
0.0477419
0.512018
-0.573927
0.299664
0.0854729
0.364743
-0.234209
-0.55421
0.127478
0.432625
-0.209884
-0.0822293
0.268251
-0.185901
0.319949
0.556357
-0.612279
0.0558164
-0.069142
-0.16113
0.30675
0.293112
-0.600018
0.507602
-0.187378
0.507575
-0.237496
-0.269981
-0.187159
-0.224043
-0.391594
0.59651
-0.204912
0.579075
-0.29329
0.27513
-0.106143
0.223862
-0.651861
0.314076
0.337633
0.236734
0.316817
0.511034
-0.158342
-0.352551
0.421081
0.0900428
-0.172279
0.237482
-0.381579
0.331577
0.255733
-0.563317
0.280613
0.203498
-0.159092
-0.640084
0.607071
-0.31913
-0.287918
-0.455946
0.400398
-0.0482852
0.408031
-0.36062
-0.329247
-0.251948
0.580979
-0.595865
0.266427
0.453718
-0.211029
-0.572597
-0.169597
0.266807
0.10623
0.406304
0.10143
-0.33575
-0.258041
0.178653
0.0966164
0.290449
0.253855
-0.544386
0.202106
-0.226486
0.0244198
0.162713
-0.244773
0.0618375
-0.379346
0.317615
-0.452172
-0.113872
0.152583
0.156333
-0.439218
-0.105354
-0.315635
0.251452
-0.506374
0.219575
0.285676
-0.243776
0.543722
0.2391
0.204148
-0.288014
0.392115
0.157739
-0.5197
-0.23135
-0.14023
0.315948
0.291144
0.547538
-0.310659
0.438916
-0.273134
-0.165764
0.512133
0.0441394
-0.30821
-0.245351
0.552722
-0.424805
0.383652
-0.26772
-0.115914
0.368322
0.269448
-0.334066
-0.237394
0.571395
0.232191
-0.516978
0.284908
0.141144
0.159841
-0.538446
0.510526
-0.577921
-0.288123
0.381609
-0.166941
0.311313
-0.144194
-0.284209
-0.210745
0.494153
-0.532671
-9.65044e-05
0.198272
0.306956
0.0767839
-0.370273
0.257164
0.113334
-0.545557
0.277763
0.267615
0.536445
-0.593349
0.0561376
-0.354104
0.641233
-0.287123
-0.213832
0.412438
-0.19833
-0.209244
-0.198753
0.408109
-0.260826
-0.161575
0.422364
0.469477
-0.164386
0.0712279
-0.60968
0.12858
0.345935
-0.475566
0.257275
-0.467283
0.209757
-0.451821
0.163729
-0.594402
0.332475
0.260424
0.169469
0.374255
-0.424199
0.227174
0.250923
-0.478833
0.306491
0.244316
-0.550899
0.257362
0.219078
-0.299533
-0.246184
-0.119063
-0.238734
0.211973
0.220715
0.0727538
0.271112
-0.343545
-0.328118
-0.265429
-0.21994
0.456949
-0.236565
-0.448045
0.328889
-0.266595
0.528249
-0.261799
0.164187
-0.518287
0.0600377
-0.226811
0.199676
-0.495003
0.63204
-0.441184
-0.19087
0.517102
-0.284969
-0.435814
0.283629
-0.271112
0.504865
-0.234131
-0.223977
0.397658
-0.173264
0.301623
0.106119
-0.461192
-0.412686
-0.108979
-0.442762
0.226063
-0.546198
0.320231
-0.235196
-0.316141
-0.279859
0.150651
0.145277
-0.295708
0.142753
-0.546684
0.351358
0.201555
-0.553116
0.357921
-0.285063
-0.366408
0.628429
-0.341566
0.285705
0.0561421
-0.0939788
-0.276078
0.0539422
-0.460529
0.406495
-0.270765
-0.274957
0.545699
0.159564
-0.0260901
-0.1615
0.485162
-0.323473
0.264184
-0.567854
0.564343
0.00329246
0.451024
0.180998
0.361035
-0.643451
0.282311
0.353815
-0.597478
0.243605
-0.241735
0.567644
-0.325675
-0.196856
-0.362806
0.591384
-0.228341
0.258162
0.251793
-0.510407
-0.00577951
0.544229
-0.53846
0.2999
-0.00946329
-0.290266
0.238638
0.142263
0.305936
0.427437
-0.41288
0.289817
0.289006
-0.579392
0.337708
-0.0375888
-0.194844
0.505094
0.553577
-0.327534
0.298737
0.170513
-0.0888298
0.400059
-0.312375
-0.292973
0.0977848
0.195355
-0.067403
0.453498
-0.386115
0.451111
-0.397282
0.516042
-0.0989206
-0.0246368
0.512273
0.203463
0.276886
-0.481113
0.554612
0.00734259
-0.562438
-0.211892
0.230387
-0.45535
0.224186
-0.225457
-0.175866
0.401633
-0.293194
0.554469
-0.262144
0.228974
-0.539895
0.310874
-0.342231
-0.14152
0.220937
-0.440529
0.332638
-0.604191
0.143529
0.553722
-0.269545
-0.338958
0.259642
0.259975
0.337325
-0.079867
-0.320154
0.383612
-0.352171
0.659293
-0.365375
-0.320432
-0.293624
0.0108865
-0.528163
0.515944
0.587759
-0.236502
-0.0805291
-0.151631
-0.550453
0.208131
0.286262
-0.579395
0.292721
-0.251222
0.492739
0.352706
0.161752
-0.542112
0.490868
-0.557336
0.0193682
0.537471
0.356876
0.0739413
-0.430643
0.550735
-0.263781
-0.485099
0.104295
0.380388
0.414072
0.246258
-0.0930211
-0.392554
-0.410253
-0.346004
-0.146956
0.534194
-0.305276
0.354951
-0.422421
-0.0477064
0.358289
-0.406929
0.384131
-0.208573
-0.175523
0.25019
0.254819
0.334399
0.391761
0.227097
-0.440241
0.254533
0.186136
0.170323
-0.531632
-0.444214
0.0842706
0.35992
0.155864
0.228308
0.261642
0.283805
0.227574
-0.383417
0.29334
0.494493
-0.267618
-0.423056
0.108379
0.314589
-0.181268
0.538221
0.301908
0.273175
0.284788
-0.0639287
-0.220828
0.208158
0.240394
-0.44923
-0.306526
-0.212718
0.519291
0.572478
-0.305384
-0.267785
-0.257481
-0.230421
0.486997
0.533858
-0.243484
0.631506
-0.263472
0.0107477
-0.101116
-0.321999
0.196887
0.20602
-0.213239
-0.435538
-0.0175883
-0.166511
-0.307577
-0.21078
0.518275
-0.186246
-0.25356
0.515657
-0.335391
0.447615
-0.180732
-0.537606
0.0837958
0.452045
0.236115
-0.274374
0.509574
-0.235582
-0.337366
0.31358
-0.391903
0.166702
0.482327
-0.25594
-0.527639
0.521845
0.560191
-0.0345945
-0.545522
0.233706
0.311085
-0.291693
0.580876
-0.289973
0.101591
0.40637
-0.507907
-0.388302
0.164761
-0.152686
0.511409
0.22911
-0.516238
-0.517846
0.28964
0.25085
0.297534
-0.549187
-0.501267
-0.156362
0.448965
0.28352
-0.116068
0.530468
0.334535
0.241571
-0.576895
0.524053
-0.240125
0.138759
-0.113559
-0.321471
0.639056
-0.317591
0.496735
-0.251737
0.695942
-0.433867
-0.264663
-0.0370419
0.117137
-0.0800366
-0.142174
0.264785
-0.56689
0.431592
-0.0917389
-0.503071
0.300535
0.20253
0.38387
-0.00119737
0.253465
0.270721
0.319803
0.251955
0.559639
0.000971326
-0.560954
-0.499358
0.224617
0.292037
-0.547682
0.255615
0.585135
-0.265682
-0.171386
0.327619
-0.534111
0.419741
0.113956
0.23998
-0.606408
0.330053
0.266985
0.558133
-0.293357
-0.265076
0.230575
-0.0551935
-0.0890984
0.176869
-0.391633
-0.175851
0.567435
0.284472
0.283443
0.282042
0.320133
-0.602302
-0.566985
0.175418
0.310774
-0.403686
0.0426269
-0.220718
0.531447
0.116977
0.0844062
0.219565
-0.510108
0.29021
0.0472531
-0.439952
0.392387
-0.471813
-0.132506
0.379823
-0.25215
0.502423
-0.238033
-0.329182
0.615983
-0.286797
-0.22643
-0.281013
0.210096
0.212073
-0.422612
-0.284914
0.168437
-0.399578
0.253293
-0.435819
0.182606
0.20261
0.298903
-0.503166
-0.523048
-0.0638207
-0.338429
0.40224
-0.486075
0.54807
-0.0620718
0.131545
-0.279454
-0.28405
0.56266
0.264551
-0.539571
0.274794
0.30612
-0.571254
-0.17029
0.493018
0.45318
-0.154655
-0.11101
-0.423402
0.494989
-0.24512
0.533528
-0.227131
0.136019
-0.365238
0.41229
-0.27441
0.251198
-0.329704
0.0787588
-0.298709
0.267755
-0.263371
-0.26368
0.146561
0.369102
-0.000276276
-0.414062
0.127783
0.157046
-0.543996
-0.298193
0.367909
-0.0691613
-0.274182
0.561519
-0.348371
-0.190258
-0.265499
-0.238697
0.467074
-0.459101
-0.55837
0.196895
0.361335
-0.423247
0.0909504
0.332414
0.29864
0.25626
-0.554892
0.159265
0.387706
-0.546977
-0.225692
0.348729
-0.122997
-0.348041
0.58801
0.321711
-0.580397
0.258633
-0.444531
-0.0411633
0.236166
0.271513
0.544327
-0.546052
-0.110216
-0.293538
-0.0790992
-0.348492
0.427153
0.481842
-0.372899
-0.0713418
0.217306
-0.533492
0.315669
0.268511
-0.140754
-0.410506
0.201421
0.440025
0.253308
0.242752
0.336341
0.648585
-0.336264
-0.312323
0.573686
-0.311427
-0.262845
0.284532
-0.563114
0.278371
0.443084
-0.217837
-0.512397
0.14767
0.0955283
0.439917
0.187278
0.146341
0.151105
-0.538093
0.387356
0.578862
-0.294553
0.212669
-0.411408
0.304104
0.229644
-0.533704
0.427893
-0.216096
0.381867
-0.130407
-0.348263
-0.431324
0.277898
-0.560823
0.282597
-0.289523
0.4711
-0.182133
-0.596206
0.155985
0.486057
0.0909222
-0.578923
0.214692
-0.362301
0.147474
-0.00422754
0.261665
0.213976
0.43734
0.24668
-0.476555
0.22928
0.371011
0.225499
-0.299986
0.592883
-0.293163
-0.262978
-0.297207
0.559139
-0.307251
0.277484
-0.598955
0.209297
0.307401
-0.516794
0.250036
-0.490115
0.239991
0.282643
0.315231
-0.597937
-0.201495
0.230602
-0.308811
0.603574
-0.294686
0.0907646
-0.388458
0.595118
-0.261193
0.328442
-0.576874
0.247868
0.595995
-0.495601
0.196115
-0.269952
-0.233125
-0.0585465
-0.542166
0.233201
0.375941
-0.15302
-0.222644
-0.231515
0.147639
-0.165226
-0.306182
-0.246682
0.552637
-0.137638
-0.108597
0.287314
0.230358
0.318495
0.330088
0.272656
-0.601815
0.572273
-0.250615
-0.338799
-0.16496
0.503917
0.439487
-0.242926
-0.196212
-0.217005
0.0211906
0.180917
0.575731
-0.191776
-0.383926
0.593792
-0.351009
0.295897
0.157069
-0.26473
0.529079
-0.149229
-0.366662
-0.309049
-0.0322404
0.218106
-0.496346
0.278145
0.430712
-0.342321
-0.0808242
0.0077397
0.213834
0.489175
-0.262913
0.270786
-0.29137
0.573948
0.637587
-0.273858
-0.364642
-0.0260444
-0.324836
0.350946
-0.582368
0.169024
0.413331
0.261816
0.281117
-0.56537
0.283682
-0.373396
0.0907024
0.283067
-0.123812
-0.307403
0.280177
-0.628256
-0.321307
0.311995
-0.255341
-0.233537
0.488185
-0.152079
-0.174326
0.326615
-0.527122
0.544604
-0.38535
0.567715
-0.521812
-0.0459642
0.425711
-0.213738
0.263009
-0.503828
0.240372
0.596702
-0.32277
-0.526237
0.218556
0.299026
-0.573478
0.281257
-0.262688
0.199085
0.0638018
0.227365
-0.266478
-0.250401
0.295648
-0.515187
-0.291471
-0.286627
0.577413
0.136583
0.131901
-0.229162
0.548257
-0.249602
-0.506438
0.295265
-0.613316
0.204942
0.309745
0.28648
-0.436054
-0.119081
-0.450819
0.232961
-0.446377
0.213984
-0.295384
0.520753
-0.369321
-0.619849
0.276149
0.343553
0.495456
0.272859
0.306018
-0.578149
0.27206
0.395523
-0.344337
0.14748
0.373602
0.264923
0.375073
-0.461909
0.115612
0.346468
-0.179172
-0.259981
0.418374
-0.158106
-0.357015
0.175163
-0.218689
0.452182
-0.54487
-0.312341
-0.0982016
0.0882441
-0.0244886
-0.0736905
0.259964
0.176776
0.23592
0.0743458
0.15646
-0.0622863
-0.200195
0.10537
0.168774
0.371352
-0.424684
0.0533006
0.154992
0.269502
-0.424383
0.547452
-0.243314
-0.282707
0.642816
-0.324341
-0.268782
-0.265083
0.533859
0.177655
0.156844
0.608375
-0.247479
-0.139864
0.293987
-0.153929
0.393021
-0.330993
-0.363821
0.300015
-0.441703
-0.297047
0.617072
0.567635
-0.19631
0.440415
-0.232784
0.224417
-0.49698
-0.117905
0.492816
-0.374769
-0.323962
0.551418
-0.227528
0.156941
0.164751
-0.321537
-0.603965
0.256788
0.347284
-0.32028
-0.238255
0.528603
-0.0037253
-0.526962
-0.185752
0.161615
0.0242119
-0.225268
0.397219
-0.172372
-0.251353
0.541942
-0.290593
-0.624057
0.279978
0.344042
0.44528
0.108994
0.249592
0.227727
0.520548
-0.311391
0.253587
-0.25984
0.477797
-0.399252
-0.298506
0.50125
-0.202767
0.137588
-0.348096
0.308787
0.282849
-0.228039
0.169463
-0.38221
-0.169985
-0.0156935
-0.129521
0.290672
-0.161022
-0.417774
0.158949
0.25865
0.288524
-0.134171
-0.154182
0.277675
0.514181
-0.242709
-0.271778
-0.591049
0.368976
0.222432
0.182951
-0.477909
0.0942211
0.334054
-0.176914
0.275396
-0.0578943
-0.217438
0.55047
-0.272847
0.523079
-0.246643
-0.104598
-0.373464
-0.255541
0.583515
-0.184952
-0.269226
0.270844
0.302263
-0.274166
0.148589
0.091459
-0.562765
0.313655
0.449844
-0.294762
0.19338
-0.163723
0.336048
-0.172169
-0.372626
0.577389
-0.20485
0.281846
0.354808
0.236782
0.25792
-0.281921
0.209683
0.166505
-0.53139
0.00158244
0.352523
-0.190049
-0.162296
-0.275323
-0.244601
0.519904
-0.285994
0.558195
-0.272629
-0.605325
0.285355
0.319884
0.33058
-0.165627
-0.206697
0.461649
-0.553493
0.247016
0.27433
0.28351
0.27414
0.239733
0.48192
-0.335358
-0.155849
-0.440617
0.353337
-0.211544
0.477182
-0.262362
-0.214961
0.262917
0.236933
-0.45532
-0.265488
0.594565
-0.329127
-0.369015
0.284665
-0.31063
-0.393199
0.0989945
-0.310161
-0.255009
0.174281
0.27604
-0.450412
-0.33543
0.600097
-0.264604
-0.292682
0.570338
0.29584
0.242044
-0.537847
0.20751
-0.487994
0.270485
-0.556794
0.231468
-0.554462
0.323205
0.294999
0.222037
-0.226637
0.364916
-0.184541
-0.180683
0.297011
-0.560885
0.219909
-0.479883
0.236157
0.160893
-0.610503
0.277027
0.33342
-0.318044
0.407757
-0.0900523
0.157763
-0.321353
0.284718
-0.577446
-0.544127
0.291575
-0.297147
-0.275053
0.571824
0.226074
-0.219821
-0.0676419
-0.514737
-0.308509
0.585403
-0.277337
0.263124
-0.547461
0.284341
0.297266
0.281359
-0.302769
-0.309968
0.559032
-0.249174
-0.578208
0.280804
-0.256133
-0.227586
0.483648
0.455644
-0.218521
-0.288994
-0.297244
-0.326851
-0.108701
0.271471
0.286047
-0.240078
0.502917
0.357008
-0.2661
-0.262457
-0.26094
0.480666
0.505516
0.015658
-0.52216
-0.351386
-0.110369
-0.375331
-0.143531
0.518699
-0.244395
-0.0958209
-0.30253
0.398419
-0.215448
-0.2533
-0.21895
0.183734
-0.264171
-0.194832
0.402468
-0.56764
0.168836
-0.555356
0.275304
-0.00134374
-0.168768
0.1835
0.248209
0.335754
-0.48664
0.150875
-0.122044
-0.576865
0.205291
0.371673
-0.252591
0.461383
-0.208343
-0.567321
0.191795
0.360124
0.551776
-0.288674
-0.245749
0.583652
-0.337829
-0.173363
-0.2211
0.467208
0.59553
-0.306177
-0.289947
-0.144281
-0.32762
0.471762
-0.104996
-0.136765
0.488624
-0.152846
0.518786
0.170035
-0.508641
-0.156274
0.440103
-0.283837
-0.184902
0.290405
-0.116886
-0.440874
0.236638
-0.398247
0.284291
0.264916
-0.549449
0.599889
0.42346
0.448677
0.22888
-0.574041
0.345041
0.220363
-0.0801268
-0.139993
-0.125335
0.242045
-0.116623
0.241013
0.326838
-0.314638
0.497966
-0.396309
-0.567293
0.296744
0.270344
-0.272616
0.460468
-0.217517
0.57545
-0.28623
-0.302765
0.59196
-0.289632
-0.30028
0.232125
0.216257
0.129411
0.438249
0.211674
0.214051
-0.0046706
0.24557
-0.588572
0.342926
-0.270222
-0.259953
0.496465
0.601509
-0.355981
0.263234
0.288521
0.443974
-0.24112
-0.202944
0.318146
-0.603873
0.285686
0.40162
-0.158812
-0.242514
0.177513
0.187099
0.242265
0.0331785
0.281367
-0.373002
0.258387
-0.479204
0.22135
-0.573657
0.281509
0.250391
-0.121889
-0.126748
0.408367
0.0672315
0.377813
-0.445149
-0.241076
0.237174
0.380124
-0.386715
0.282194
0.515927
0.01387
-0.529856
0.185801
0.258083
0.415025
-0.256262
-0.553438
0.229382
-0.288041
0.445752
-0.157428
0.321054
0.360766
-0.253089
0.15486
0.0657403
0.286642
-0.593233
0.306388
-0.252656
0.59657
-0.34395
0.293656
0.34881
0.345553
0.633232
-0.5282
0.522503
0.313061
0.25876
-0.57199
0.290482
0.253357
-0.544649
0.285634
-0.560155
0.274302
-0.25731
-0.136747
-0.349898
0.147592
-0.239351
0.462783
-0.223411
0.032595
-0.348013
-0.153162
0.559464
-0.594075
0.288652
0.305351
-0.0642848
-0.32896
-0.385515
0.452644
0.170182
0.231731
0.0527842
0.340376
0.505746
-0.210794
0.240123
0.291892
-0.532194
-0.236917
-0.198825
0.16209
0.0201194
-0.181997
0.221959
0.0144839
-0.47828
0.222157
-0.65854
-0.558307
0.366973
0.191349
-0.518931
0.257591
0.261415
-0.540294
-0.574622
0.362787
0.211876
-0.274887
-0.210633
0.486184
-0.275451
0.474866
-0.289131
-0.154127
0.419045
0.256958
-0.199421
-0.488708
0.147202
0.341448
-0.163309
-0.317681
0.481181
-0.218711
-0.172899
0.290011
-0.11712
0.157151
0.317643
-0.59636
0.313184
0.28258
0.287694
-0.474968
0.187224
-0.370663
-0.203913
-0.304145
0.136648
0.167622
-0.537821
0.274482
0.26258
0.380397
-0.101207
-0.200998
0.39809
0.294072
0.290722
-0.323538
0.552737
-0.229287
0.268933
-0.16288
0.216485
-0.42575
0.499794
0.433195
-0.175715
0.544699
-0.26737
-0.277295
-0.289578
-0.107513
-0.183249
-0.396292
0.543346
-0.257956
-0.451116
0.208478
0.369623
-0.578095
0.227701
0.205615
-0.52633
0.357351
0.16893
-0.153338
0.467612
-0.293391
-0.183986
0.352758
-0.199378
-0.153174
-0.513362
-0.180815
0.390863
0.294469
-0.574801
0.28015
0.144541
-0.347884
0.495593
0.239512
0.213928
-0.453429
0.294927
0.210753
0.312473
0.26144
-0.573933
0.155467
0.138724
-0.395695
0.616312
0.562002
-0.275782
0.229242
-0.564678
0.580748
-0.189913
-0.390709
-0.269461
0.528245
-0.259711
-0.394499
0.197874
0.196511
-0.28379
0.560977
-0.277854
0.189988
-0.463734
0.273703
0.00195361
0.605406
-0.608038
0.0982448
0.129439
-0.264317
0.562428
-0.29824
0.28937
0.268372
0.300296
0.264769
-0.565229
0.240441
0.299048
-0.539616
0.159369
0.193319
0.139413
-0.563649
-0.313245
0.55024
-0.266137
-0.247868
0.54375
-0.530451
0.279122
-0.462583
0.160457
-0.33161
0.24478
0.209255
-0.45416
0.221689
-0.482724
-0.0207363
0.525152
-0.228157
0.0162594
0.145476
0.161078
-0.493844
0.33278
-0.480475
0.149627
0.107556
-0.578838
0.35726
0.221573
-0.357162
-0.30732
-0.296492
-0.309626
0.606068
0.25237
-0.398925
0.215301
0.242103
0.284262
0.25768
-0.574256
0.294984
0.279028
-0.00225678
0.549429
-0.547487
-0.227496
0.555468
-0.328008
-0.258896
0.480608
-0.235023
0.415767
-0.180784
0.338765
0.14988
-0.281454
-0.195506
0.273562
-0.557988
-0.441497
-0.132497
0.5251
-0.190975
-0.333937
0.542331
-0.229881
0.118369
0.238844
-0.378074
-0.198694
0.221753
-0.306271
-0.506719
0.136956
0.369722
-0.481111
-0.355494
-0.255061
0.257794
-0.145486
-0.384436
0.579786
-0.19526
-0.308951
-0.125629
-0.519568
0.52058
0.300409
-0.56519
0.264103
-0.127381
0.263962
-0.188591
-0.240789
-0.263522
-0.318322
0.16609
0.152356
0.187304
0.262006
-0.184929
0.374842
-0.269299
0.564688
-0.0501949
0.559526
0.241739
0.277594
0.151259
0.137439
-0.286341
0.456492
0.269068
0.235407
-0.199098
0.291422
0.259791
-0.551843
-0.52045
0.249827
0.504669
-0.344364
-0.160268
0.465902
-0.235705
-0.230681
0.264056
0.310404
-0.57455
0.585747
-0.185645
0.226137
-0.426654
0.200388
0.297656
-0.39344
0.217495
0.26049
-0.559013
0.298413
-0.277274
0.576644
-0.312609
-0.222698
-0.458946
0.411441
-0.174827
0.538127
-0.250486
-0.303159
0.273975
0.0645293
-0.338282
0.186766
0.228967
-0.2632
-0.140128
-0.12891
-0.282151
0.570922
-0.176339
-0.332919
0.509493
-0.608322
0.276403
0.33183
0.0835736
0.575206
-0.285659
-0.291107
-0.264652
0.194293
0.557232
-0.300701
0.582416
-0.282072
-0.260724
-0.58443
0.289625
0.294768
-0.57304
0.288132
0.284126
0.400742
-0.580204
0.179401
-0.287546
-0.259662
0.547034
-0.257038
0.399398
-0.198163
0.256755
-0.493818
0.256279
-0.592391
0.336061
0.167661
0.168542
0.326734
0.09572
0.289283
0.284366
-0.293057
0.576744
-0.28399
-0.278226
0.583431
-0.305221
0.206545
-0.185358
-0.152574
-0.168819
-0.499526
0.0630825
0.280826
-0.57432
0.277633
0.419328
0.168289
0.165966
0.583836
-0.208816
0.50115
-0.292306
-0.292571
0.555739
0.593522
-0.33728
0.557077
-0.248096
-0.369648
-0.299402
-0.297546
0.429784
-0.203895
0.520086
-0.266566
-0.254943
0.575934
-0.281451
-0.279285
-0.326674
0.605693
0.209323
-0.454654
0.245296
0.287983
-0.579382
0.316633
-0.326477
0.0100847
-0.0847146
-0.576421
0.279114
0.285256
0.284411
-0.57108
0.26974
0.280442
0.203661
-0.179175
0.301213
0.26441
-0.565724
0.177153
0.157951
-0.334926
-0.528675
0.530328
-0.00401094
0.305515
-0.580918
-0.241519
0.511597
-0.270905
-0.281488
-0.093047
0.289396
0.170817
-0.491272
0.0779995
-0.277652
0.546588
-0.268931
-0.12812
0.253716
-0.12553
-0.24941
0.518066
-0.333216
0.16125
0.163686
0.341027
0.370199
-0.17513
-0.195193
0.192063
-0.00111989
0.516122
0.188921
0.610013
0.164724
0.166062
0.21557
0.124709
-0.340118
-0.359557
0.273245
0.299914
-0.573548
0.227383
0.238034
0.480064
-0.228313
-0.336642
0.15984
0.122341
0.516417
-0.519084
0.577076
-0.371697
-0.266805
0.51685
-0.250644
0.55759
-0.297198
0.24839
-0.215638
0.301582
-0.141633
0.313138
-0.578676
-0.231988
0.605897
-0.356792
-0.249173
-0.227599
-0.215486
0.474315
0.408263
-0.570522
0.162281
-0.338117
-0.265742
0.292119
-0.0337469
0.193782
-0.159892
0.458617
0.0211271
-0.481438
-0.0293972
-0.496902
0.127265
0.333784
-0.00821553
0.325104
-0.217141
-0.261539
0.296511
0.275154
-0.572267
-0.386403
0.190668
-0.249854
0.501186
-0.25179
-0.533081
0.236918
0.296233
-0.282188
-0.291616
0.0400114
-0.21739
-0.361453
-0.182418
0.113364
-0.0855936
0.240678
-0.0921317
0.269934
-0.512272
0.146555
0.231643
0.197895
-0.262783
0.553316
-0.543608
0.233498
-0.472857
0.533979
-0.0611742
0.119112
0.192386
-0.393617
0.198792
0.366463
-0.206937
-0.277113
0.0927168
0.194567
0.172059
0.562976
-0.275
-0.558432
0.234844