/*--------------------------------*- C++ -*----------------------------------*\
| =========                 |                                                 |
| \\      /  F ield         | OpenFOAM: The Open Source CFD Toolbox           |
|  \\    /   O peration     | Version:  v2012                                 |
|   \\  /    A nd           | Website:  www.openfoam.com                      |
|    \\/     M anipulation  |                                                 |
\*---------------------------------------------------------------------------*/
FoamFile
{
    version     2.0;
    format      ascii;
    class       surfaceVectorField;
    location    "1000";
    object      Uf;
}
// * * * * * * * * * * * * * * * * * * * * * * * * * * * * * * * * * * * * * //

dimensions      [0 1 -1 0 0 0 0];


internalField   nonuniform List<vector> 
14885
(
(1.01036 0.0413102 0)
(1.01446 0.0392815 3.33893e-23)
(1.01475 0.0455934 -2.46008e-23)
(0.621162 0.166752 4.47402e-22)
(0.610143 0.122169 3.81927e-21)
(0.648108 0.166054 -2.47617e-20)
(1.08446 0.0139064 1.98751e-21)
(1.08772 0.00547837 1.56088e-22)
(1.0766 0.00604232 5.29506e-21)
(1.01351 -7.3709e-05 -6.19361e-23)
(1.01357 -9.81048e-05 1.83017e-22)
(1.0135 -9.69208e-05 3.40422e-22)
(1.01453 -0.000225584 2.54981e-22)
(1.01438 -0.000238922 8.45829e-23)
(1.01478 -0.000277837 -2.98003e-22)
(0.9783 -0.0215565 -2.73879e-20)
(0.992333 0.00599248 1.71436e-21)
(0.960115 -0.0549639 -3.26546e-22)
(0.919029 -0.115261 -9.72097e-22)
(0.895299 -0.117225 0)
(0.938819 -0.104615 1.20616e-22)
(0.860569 -0.136427 2.25087e-21)
(0.839215 -0.134877 4.6265e-21)
(0.848601 -0.148708 1.01565e-21)
(1.01584 0.000625382 -1.29649e-22)
(1.01601 0.000677885 1.34738e-22)
(1.01595 0.000557316 2.55958e-24)
(1.02828 -0.0137669 1.87628e-22)
(1.02913 -0.015302 -1.83114e-21)
(1.03041 -0.0131531 7.45782e-22)
(1.0082 -0.0249567 -5.03477e-22)
(1.00905 -0.0256482 3.14891e-22)
(1.00957 -0.0242456 -2.38187e-23)
(0.631845 0.212837 0)
(0.605372 0.155909 0)
(0.998027 0.00537743 -2.58554e-22)
(0.997726 0.00755062 -2.95778e-22)
(0.999931 0.00694004 8.75772e-22)
(1.0214 0.00798743 3.27375e-23)
(1.02158 0.00723822 1.79222e-22)
(1.02229 0.00828234 -1.13888e-22)
(1.01569 -0.00170226 1.38675e-21)
(1.0158 -0.00168209 1.11518e-21)
(1.01578 -0.0016448 1.47855e-22)
(1.02096 0.00875287 6.9997e-23)
(1.0207 0.0077559 5.13672e-22)
(0.942632 -0.0828147 1.55505e-21)
(0.964545 -0.0430048 -1.14089e-21)
(0.922036 -0.116216 1.67388e-21)
(1.00726 -0.0242912 -6.66858e-22)
(1.00703 -0.0257734 -1.81699e-22)
(1.01512 0.002365 5.33355e-22)
(1.01528 0.00301278 -1.92875e-22)
(1.01463 0.00287649 -1.02924e-21)
(1.02958 -0.00643271 0)
(1.0289 -0.00745476 0)
(1.03069 -0.00760879 0)
(0.998909 0.00323063 3.50535e-22)
(0.996432 0.00355538 8.62321e-22)
(1.00599 0.0436939 0)
(1.00686 0.0378777 0)
(1.01347 -5.23093e-05 -6.30741e-22)
(1.01352 -4.16549e-05 -2.40117e-22)
(0.844702 -0.0493552 -3.16366e-21)
(0.838545 -0.020178 -5.96549e-21)
(0.840532 -0.0104627 8.54009e-22)
(1.0139 -0.000213131 -3.76889e-22)
(1.01396 -0.0001209 9.07531e-23)
(1.0139 -0.000314773 2.80749e-22)
(1.01111 -0.000360769 1.04371e-23)
(1.01242 -0.000317831 -8.49123e-23)
(1.01364 -0.000387698 5.60102e-23)
(1.02613 -0.0138254 -3.85939e-22)
(1.02717 -0.0124065 -1.25967e-21)
(1.01493 0.000625586 8.68087e-24)
(1.01499 0.000687175 2.31032e-22)
(1.01488 0.000657693 1.9275e-24)
(0.960294 -0.055374 -1.21929e-22)
(0.997198 0.0100733 -1.59991e-21)
(0.847085 -0.105535 -3.99442e-21)
(0.845849 -0.115832 -7.57171e-22)
(0.85617 -0.112169 -5.95973e-22)
(1.01426 -3.63589e-05 -1.76635e-22)
(1.01284 -0.000139197 1.00097e-22)
(1.01261 -8.80024e-05 9.76163e-23)
(1.01103 0.0290903 -5.88372e-22)
(1.00887 0.029676 -1.5105e-21)
(1.0108 0.0315423 4.64122e-22)
(1.01563 0.000743047 2.8e-22)
(1.01573 0.000682903 6.11082e-24)
(1.01578 0.000791282 -9.61965e-23)
(1.01552 0.000770421 -7.40317e-23)
(1.0155 0.000679789 1.27947e-22)
(0.885866 -0.135044 -5.36219e-22)
(0.872091 -0.113466 1.22853e-21)
(0.830127 -0.0843815 8.19065e-24)
(0.821094 -0.0801568 8.78072e-21)
(0.83357 -0.0574234 -8.11246e-22)
(1.01172 -4.90634e-05 5.67013e-22)
(1.01221 2.44116e-05 5.51684e-22)
(1.01269 5.35164e-06 3.40587e-23)
(1.01526 0.00054503 -6.78158e-23)
(1.01527 0.000578604 1.40353e-22)
(1.01524 0.000523165 1.42945e-22)
(1.01532 -2.68663e-05 -1.39025e-22)
(1.01506 -0.000112039 1.35214e-22)
(1.04376 -0.00518468 -1.6616e-21)
(1.04129 -0.00546248 -2.20456e-22)
(1.04328 -0.00810434 1.12743e-22)
(0.845561 -0.0816144 -5.53461e-21)
(0.84561 -0.0887052 1.61824e-21)
(1.01568 0.000582129 -1.19561e-22)
(0.890459 0.0399109 1.42715e-21)
(0.906165 0.0372675 -6.16559e-22)
(0.895706 0.0553435 2.02017e-22)
(0.978377 -0.222247 0)
(1.07583 -0.218116 3.07762e-20)
(1.03073 -0.0907204 0)
(1.01418 -6.47325e-05 1.43685e-22)
(1.01411 -6.83238e-05 -2.73511e-22)
(1.01408 -8.19482e-05 -3.41204e-22)
(1.01385 -0.00031013 -2.23304e-22)
(1.0139 -0.000120506 -1.25532e-22)
(1.01414 -0.000729573 -3.55135e-23)
(1.0141 -0.000573624 -6.05288e-22)
(1.01426 -0.000660276 0)
(1.01556 -0.00171442 0)
(1.01559 -0.00169698 1.98172e-23)
(1.0151 -0.0345772 1.29994e-21)
(1.01193 -0.0375565 -1.60781e-22)
(1.01163 -0.0327843 0)
(0.728267 -0.0372155 1.96549e-21)
(0.672664 -0.0327592 -2.90336e-22)
(0.715227 -0.00157193 1.76151e-21)
(0.870184 0.0440183 7.49824e-21)
(0.883365 0.0224413 1.18644e-21)
(1.01379 -4.70724e-05 -2.66988e-23)
(1.01379 -1.85207e-05 -2.60228e-23)
(1.01375 -4.27302e-05 -3.6998e-24)
(0.922574 -0.125626 -1.16613e-20)
(1.01499 0.00180403 0)
(1.0155 0.00204911 -1.617e-22)
(1.10885 -0.108535 -4.81188e-20)
(1.16191 -0.100258 -1.38825e-20)
(1.15539 0.013344 6.68283e-21)
(0.497891 0.71458 -1.16303e-20)
(0.492672 0.690893 0)
(0.46468 0.622304 2.86514e-20)
(0.999802 0.00150083 -3.03648e-22)
(1.00102 0.00317385 4.28445e-22)
(1.01153 -0.0177372 -1.64448e-22)
(1.00972 -0.018463 8.62163e-23)
(1.01131 -0.0196142 -2.6456e-22)
(1.01618 -0.00173486 -3.76056e-22)
(1.01623 -0.00180937 0)
(1.01628 -0.00175086 -8.47437e-22)
(1.02198 -0.00178259 -4.64979e-23)
(1.02181 -0.0015906 2.8076e-23)
(1.02206 -0.00155848 1.05786e-23)
(1.01781 -0.0317013 1.39052e-21)
(1.01957 -0.0361795 1.42206e-21)
(1.15216 -0.213573 7.65371e-21)
(1.14268 -0.244845 9.45391e-21)
(1.10888 -0.277518 0)
(0.917091 0.0304155 5.53482e-22)
(0.922679 0.0436833 4.46681e-21)
(0.950829 -0.151609 -2.17455e-21)
(0.921963 -0.157605 -1.21493e-21)
(0.945169 -0.157459 7.19052e-22)
(1.07235 0.0846237 -1.59791e-21)
(1.08609 0.0965526 -4.38749e-21)
(1.06858 0.104497 -4.6046e-22)
(1.01038 0.000448441 -3.76717e-22)
(1.01046 0.00130896 0)
(1.0096 0.000696785 -3.25373e-22)
(1.03039 -0.00424299 1.60336e-22)
(1.03011 -0.00535696 2.47536e-22)
(1.03173 -0.00506834 1.61043e-22)
(1.04164 0.0559369 8.3993e-23)
(1.0492 0.0638634 9.77201e-22)
(1.05057 0.0547038 1.57904e-21)
(1.01415 -0.00144072 2.48795e-22)
(1.01411 -0.00124011 0)
(1.01398 -0.00137802 0)
(1.03452 0.0485722 -2.5199e-22)
(1.03406 0.0550074 -6.76959e-23)
(0.852438 0.050532 -8.75521e-21)
(0.827887 0.0553987 -5.4353e-21)
(0.842951 0.02744 5.8376e-22)
(1.02055 -0.0037558 3.3439e-23)
(1.02104 -0.00380142 4.47807e-23)
(1.02067 -0.00335861 -1.26341e-22)
(1.01528 0.0014053 1.3279e-22)
(1.01533 0.00160679 2.76493e-23)
(1.0154 0.0014676 3.73064e-23)
(1.01608 -0.00172801 4.99096e-23)
(1.01609 -0.00166391 -1.04408e-21)
(1.01096 0.000265524 -3.29787e-22)
(1.01031 -0.000309633 -3.4795e-22)
(0.861743 0.0684748 1.01197e-20)
(1.15003 -0.0353773 3.95933e-22)
(1.136 -0.0197622 1.60938e-21)
(1.15457 -0.00982108 -2.11454e-21)
(1.01402 -0.000782436 -3.40977e-22)
(1.01417 -0.000919327 2.1754e-22)
(1.14061 -0.0551774 4.27042e-21)
(1.15959 -0.0549055 -2.4971e-21)
(1.0159 0.0032076 -5.1112e-22)
(1.01539 0.00377668 2.17659e-22)
(0.881797 -0.21795 -2.2191e-20)
(0.939898 -0.333709 0)
(0.853682 -0.0732819 -1.97204e-21)
(1.00681 -1.86243e-06 2.79592e-23)
(1.01056 6.27105e-06 6.85581e-23)
(1.00644 5.19064e-06 2.65575e-23)
(1.01429 -0.000340448 1.05191e-22)
(1.01433 -0.000417249 -4.29258e-23)
(1.01422 -0.000420483 6.70213e-23)
(1.02309 -0.0107756 1.24765e-21)
(1.02286 -0.0108299 6.297e-22)
(1.02307 -0.0104753 -3.89668e-22)
(1.04102 -0.0629956 1.2999e-22)
(1.03483 -0.0563054 7.1025e-22)
(1.03396 -0.0650867 1.40069e-22)
(1.02923 -0.00368893 5.65457e-22)
(1.03053 -0.00301481 -2.77595e-23)
(1.07765 0.0219447 -8.04329e-23)
(1.09039 0.023506 8.86261e-22)
(1.01866 -0.00689437 -4.83727e-22)
(1.01855 -0.00622367 -4.01385e-22)
(1.01927 -0.00643121 -8.21872e-22)
(1.13237 0.0368256 -3.89956e-21)
(1.12354 0.0572232 9.53597e-21)
(1.11292 0.0374619 2.24188e-21)
(1.00758 0.00482932 2.81503e-22)
(1.00628 0.00498928 8.7727e-23)
(1.00743 0.00613309 1.64051e-21)
(1.01584 -0.00172631 -1.1697e-22)
(1.01597 -0.00165919 2.28432e-22)
(0.927486 0.026725 6.9247e-22)
(0.914926 0.0169882 7.67402e-22)
(1.04963 -0.0597606 2.53415e-22)
(1.04359 -0.0713035 1.17787e-22)
(1.02914 0.0697717 0)
(1.03341 0.0801177 0)
(1.02225 0.0792481 0)
(1.01652 -8.8873e-05 3.66029e-24)
(1.01679 -9.43973e-05 -2.29432e-22)
(1.0166 -1.82e-05 -1.54461e-22)
(0.822133 0.169822 -1.73282e-20)
(0.748224 0.14126 -1.12309e-20)
(1.02865 -0.00571827 1.35299e-22)
(0.736361 0.165568 3.64924e-21)
(0.729064 0.16099 -3.84082e-21)
(0.74188 0.197677 5.16619e-21)
(1.016 -0.00170672 9.83828e-22)
(1.01591 -0.00170181 1.65413e-21)
(1.01592 -0.00164997 -9.05844e-22)
(1.00874 0.00472684 -1.39078e-22)
(1.00787 0.00361095 -2.07755e-23)
(1.04018 -0.0141837 -8.57759e-22)
(1.04417 -0.0147523 2.36771e-21)
(1.04038 -0.0187328 1.04846e-21)
(1.01826 -0.0021018 -7.5054e-23)
(1.01853 -0.00205269 1.7384e-22)
(1.01827 -0.00188027 -1.89098e-22)
(1.01247 0.0247007 2.50082e-21)
(1.01364 0.0230836 1.27405e-21)
(1.0124 0.00113409 9.4409e-22)
(1.01189 0.000584527 0)
(1.01168 0.00148638 0)
(1.01735 -0.00151129 3.22247e-22)
(1.01717 -0.00138063 -5.3845e-22)
(1.01738 -0.00137637 2.79673e-22)
(0.612064 -0.478776 -3.29743e-20)
(0.643045 -0.466993 -7.92242e-20)
(0.562889 -0.395864 -5.23016e-21)
(1.01153 7.05966e-05 1.34036e-22)
(1.01157 0.00074949 3.07802e-22)
(0.944435 -0.111404 -9.27824e-23)
(0.907544 -0.125482 -3.54899e-21)
(1.0173 -0.00162457 -8.45399e-23)
(1.01755 -0.00166612 3.08384e-22)
(1.01619 -0.00152545 -4.98153e-23)
(1.0163 -0.00162337 -2.15093e-23)
(1.01612 -0.00159935 -1.60296e-21)
(0.968705 -0.104874 1.30954e-21)
(0.980273 -0.0973032 8.42603e-22)
(1.03564 -0.0139438 -1.03048e-22)
(1.03872 -0.00998443 -9.22402e-22)
(0.977475 -0.143539 -2.87756e-21)
(0.954608 -0.136031 -9.87851e-22)
(1.05871 0.0748138 -1.13828e-21)
(1.0706 0.0687926 1.01136e-20)
(1.01396 -0.00232198 -2.96548e-22)
(1.01394 -0.00199661 1.16784e-22)
(1.01374 -0.00215811 5.83644e-23)
(0.963617 -0.00145568 -4.10974e-22)
(0.967114 8.26742e-05 1.05971e-21)
(0.962725 0.00314607 -3.17628e-21)
(1.0125 7.38369e-05 -1.61694e-22)
(1.01366 -6.27973e-05 0)
(1.01433 -0.000200327 0)
(1.01314 -0.0172067 -1.56576e-22)
(1.0116 -0.0161309 -1.55257e-25)
(1.01409 -0.00304452 -2.7876e-22)
(1.01439 -0.00318666 -3.87235e-22)
(1.0142 -0.00347902 8.19172e-23)
(1.02216 -0.00196713 -8.64592e-23)
(1.02188 -0.00200388 -4.24608e-23)
(0.72473 0.347315 -1.60796e-20)
(0.674753 0.302942 7.79934e-21)
(0.710386 0.339539 7.17429e-21)
(0.74919 0.351615 2.21305e-20)
(0.762139 0.37897 -4.18774e-20)
(1.01425 -5.5835e-05 1.76742e-22)
(1.01427 -4.03259e-05 1.9035e-22)
(1.13539 0.0207835 1.04098e-20)
(1.15163 0.0364707 7.30195e-21)
(1.01879 -0.00863692 5.49173e-22)
(1.01877 -0.00764852 1.01147e-21)
(1.01958 -0.00804343 8.04437e-22)
(1.01877 -0.00942648 -3.35928e-22)
(1.01786 -0.00882255 -2.48477e-22)
(1.06246 -0.230267 -4.90238e-20)
(1.04105 -0.10878 2.46815e-20)
(0.968389 0.102135 3.85227e-21)
(0.964719 0.113921 2.05111e-21)
(0.979339 0.107186 2.15698e-21)
(0.959645 -0.00359777 1.58504e-21)
(0.96462 -0.00651609 2.16868e-21)
(1.01546 0.00014499 -1.29204e-22)
(1.01543 0.000190376 -9.45774e-23)
(1.01549 0.000127572 -3.73246e-22)
(1.01174 -0.00205477 4.61499e-22)
(1.01132 -0.00222436 6.84727e-23)
(1.01149 -0.00160107 -5.81087e-22)
(1.02128 -0.0127928 4.44893e-22)
(1.02215 -0.0116774 7.54588e-22)
(1.02288 -0.0133921 2.60715e-22)
(1.01326 0.00133201 2.84072e-22)
(1.01317 0.000906188 -4.64072e-22)
(1.01288 0.000926719 -3.90119e-22)
(0.987866 -0.0980926 -9.59023e-22)
(0.958917 -0.112204 3.18569e-23)
(0.839218 -0.0502207 2.98738e-21)
(0.82117 -0.0354363 -5.29254e-22)
(0.854906 -0.0301047 4.48857e-21)
(1.03296 0.000263484 -3.47661e-22)
(1.03336 -0.00134506 -2.46288e-22)
(1.03493 -0.000148542 0)
(0.796696 -0.58606 1.88682e-20)
(0.807062 -0.564993 1.12178e-21)
(1.01539 -0.00150979 -1.40175e-21)
(1.01514 -0.00149326 -1.14332e-21)
(1.01536 -0.00119004 -3.8938e-23)
(0.756473 0.169267 2.49825e-21)
(0.731611 0.112676 1.84474e-20)
(0.955391 0.0117176 3.54109e-22)
(0.954421 0.0186242 1.04609e-21)
(0.961817 0.0168775 -5.81053e-22)
(1.01462 0.000273963 -5.43106e-24)
(1.01481 0.000274562 -1.47611e-22)
(1.01501 0.000257432 -1.37677e-22)
(0.604219 -0.477518 -1.14694e-20)
(0.673445 -0.534325 4.85379e-20)
(1.01497 0.000592086 1.77799e-24)
(1.01491 0.000571219 7.36259e-24)
(1.01428 -0.00798354 -1.03199e-23)
(1.0142 -0.00729981 0)
(1.01357 -0.00767714 0)
(1.01527 0.000504304 -2.94908e-22)
(1.01529 0.000566458 -1.85838e-22)
(1.023 -0.0105946 1.95688e-22)
(1.02312 -0.0107648 5.55055e-22)
(1.01434 -0.00153042 3.01681e-22)
(1.01422 -0.00170847 -3.17409e-22)
(1.0219 -0.00158984 0)
(1.0218 -0.00198391 9.12229e-24)
(1.02238 -0.0018438 4.76466e-23)
(0.946145 -0.160436 2.20294e-21)
(0.928877 -0.169636 -1.37399e-21)
(0.931402 -0.206315 -1.27985e-21)
(1.01196 -5.48696e-05 -1.24816e-23)
(1.01147 -0.000406203 1.31919e-21)
(1.01317 0.000229404 1.35494e-23)
(1.01417 0.0001746 6.21481e-22)
(1.01371 0.000208193 3.34478e-22)
(1.01474 -0.0013444 -6.8319e-22)
(1.01493 -0.00143159 -2.35345e-22)
(1.01492 -0.00106655 1.39688e-21)
(0.993175 0.00945783 0)
(0.991222 0.0105381 -5.32054e-22)
(0.994003 0.0119006 0)
(1.02483 0.061633 2.33752e-22)
(1.03354 0.0615584 0)
(1.01488 -0.00831763 -7.88515e-23)
(1.01412 -0.00870972 -2.27317e-22)
(0.971605 0.0900218 -1.03836e-21)
(0.958832 0.0932608 -3.38038e-22)
(0.531333 0.718716 -5.49087e-21)
(0.532396 0.771402 1.04859e-20)
(1.02026 -0.0140979 -7.24399e-22)
(1.01998 -0.0123157 9.43325e-23)
(1.00994 -0.000325207 2.7484e-22)
(1.0079 -0.000360679 2.58174e-22)
(1.01332 -5.74254e-05 -6.32116e-23)
(1.01227 -1.86351e-05 -6.36656e-23)
(1.01227 -2.99141e-05 1.11025e-23)
(1.04659 -0.00483848 2.01981e-22)
(1.04393 -0.00262433 1.9289e-22)
(0.862934 -0.0641159 -8.37618e-21)
(0.823785 -0.0689099 -4.17804e-22)
(1.01798 -0.00727561 4.72056e-22)
(1.01574 -0.00173271 1.13239e-21)
(1.01571 -0.00155589 7.04592e-22)
(1.01584 -0.00156702 1.35611e-21)
(0.968545 -0.0982636 1.57039e-20)
(0.966536 -0.135056 2.74468e-21)
(1.01527 0.00121672 -2.28384e-22)
(1.01517 0.00130859 8.25786e-23)
(1.01159 0.0270564 8.05581e-23)
(1.01019 0.0249192 -2.08528e-21)
(0.83185 -0.111074 -1.24381e-21)
(0.844853 -0.0883092 2.92925e-21)
(1.01539 0.000787982 -1.399e-22)
(1.01528 0.000788088 -1.38555e-22)
(1.0153 0.000719411 -1.18028e-22)
(1.00882 0.0504252 0)
(1.00882 0.0578815 -2.35924e-22)
(1.00266 0.0538729 1.10182e-23)
(0.848532 -0.113282 -7.30179e-23)
(0.841562 -0.114661 0)
(0.843185 0.424227 2.8735e-21)
(0.858181 0.422776 -1.42602e-20)
(0.89318 0.435264 2.7682e-21)
(1.01551 0.000853816 -1.52181e-22)
(1.01452 0.00154559 0)
(1.01493 0.00123741 -2.53339e-22)
(0.802504 0.404279 -1.89556e-20)
(0.825525 0.400912 -1.33321e-20)
(1.01423 0.000212612 -4.17972e-23)
(1.01431 0.000271259 5.57993e-24)
(1.01425 0.000158171 4.91808e-23)
(1.01528 0.000447148 -9.2309e-23)
(1.01525 0.000436175 9.90765e-23)
(1.01201 -0.00244765 5.18703e-22)
(1.01218 -0.00192855 5.06201e-22)
(1.01401 -0.00106963 4.27026e-22)
(1.01414 -0.00111474 2.12152e-22)
(1.01557 -0.00152639 -4.15817e-23)
(1.01541 -0.00175452 4.93062e-22)
(1.01179 -0.0015735 -6.71692e-22)
(1.0113 -0.00206695 -1.14549e-21)
(1.01108 -0.00125465 2.66932e-22)
(1.01605 -0.00177046 1.57217e-22)
(1.01496 -0.00271275 2.99637e-22)
(1.01469 -0.00266061 7.74154e-23)
(1.01484 -0.00240033 3.97731e-23)
(1.04984 0.0369027 1.38485e-21)
(1.03792 0.0155384 1.04727e-21)
(1.03159 0.0452788 1.6338e-21)
(1.01027 0.010216 -7.92108e-22)
(1.01137 0.0108045 -7.46738e-22)
(1.01006 0.0114221 -1.11729e-21)
(1.02013 -0.00370464 -4.36594e-23)
(1.02042 -0.0041715 -1.04216e-23)
(1.02167 -0.00128736 -2.39119e-23)
(1.02166 -0.00145121 2.08318e-24)
(1.02148 -0.00132256 -2.30771e-23)
(0.720198 0.096892 -2.29278e-21)
(0.681774 0.0731584 2.4843e-21)
(0.667446 0.122534 -3.80914e-21)
(1.0151 0.000276356 -3.44476e-22)
(1.01596 0.000270237 -2.54674e-22)
(1.01552 0.000286936 -5.10605e-22)
(0.593616 0.059272 -9.25098e-21)
(0.998757 -0.000362599 2.43952e-22)
(1.00077 -0.000155456 2.83543e-23)
(1.0155 9.15299e-05 0)
(1.01543 0.000189585 -1.41111e-22)
(1.01215 -0.00101456 0)
(1.01237 -0.00167701 -5.89323e-22)
(0.87493 -0.104063 2.01791e-20)
(0.961665 -0.104424 3.86181e-20)
(0.908148 -0.234862 2.01485e-20)
(1.01577 -0.00177316 7.28186e-22)
(1.0159 -0.00176135 -7.44042e-23)
(1.08915 0.200751 5.91923e-21)
(1.08642 0.230139 3.37827e-21)
(1.05523 0.210211 -4.42644e-21)
(1.00201 0.0330091 -1.9223e-21)
(1.00077 0.0376578 1.0642e-22)
(0.998592 0.0329312 1.04658e-22)
(0.993435 0.219011 3.44976e-20)
(1.06964 0.220454 3.30657e-21)
(1.0374 0.329689 0)
(1.01429 -0.000277212 -1.43895e-23)
(1.01422 -0.000284361 -7.79805e-23)
(0.962962 0.131921 -3.43127e-22)
(0.964844 0.147112 0)
(0.979341 0.134913 1.06861e-22)
(0.937574 0.0240324 2.88027e-22)
(0.946291 0.0209093 2.81078e-21)
(0.936392 0.0144174 -2.51219e-21)
(0.918172 0.0332159 -3.18184e-22)
(0.923819 0.041572 -3.34052e-21)
(0.928718 0.0310062 4.63611e-21)
(1.01429 0.000153685 8.62761e-23)
(1.01392 0.000115071 -2.54965e-22)
(1.0142 0.000153364 -4.07974e-22)
(0.730628 0.151922 -6.14164e-22)
(0.716544 0.111801 -1.86139e-21)
(1.02301 -0.0106644 -2.52971e-22)
(1.02163 -0.0104051 1.46386e-22)
(0.830744 0.0599706 6.77868e-22)
(0.817801 0.0888304 -2.72439e-22)
(0.832738 0.0784515 1.25276e-21)
(0.995487 0.00819642 0)
(0.992893 0.00637368 -2.06451e-22)
(1.01607 -0.00143704 9.06084e-22)
(1.01622 -0.00144145 1.39263e-21)
(1.01327 0.00167757 5.12154e-23)
(1.01359 0.00157866 3.86821e-22)
(1.01339 0.0287058 -1.03435e-21)
(1.01444 0.000139793 -4.95346e-23)
(1.01436 0.000109275 1.93045e-23)
(0.904719 0.0340599 3.55277e-23)
(0.912035 0.0232225 -9.13918e-23)
(0.930208 0.0497879 -3.98592e-22)
(0.939148 0.0458357 -3.33363e-21)
(0.93736 0.0572687 -4.80027e-22)
(1.01218 -3.04122e-05 0)
(1.01303 -3.70204e-05 0)
(1.01209 -3.5929e-05 0)
(1.03397 0.0429155 6.14264e-21)
(1.03857 0.0402714 1.69328e-22)
(1.03125 0.0371085 -4.34822e-22)
(1.01418 -4.21674e-05 -2.43235e-22)
(1.01406 -0.000107175 1.81192e-22)
(1.01436 -9.98891e-05 -3.29818e-22)
(0.957684 0.283247 0)
(0.990336 0.28667 2.80706e-21)
(0.974179 0.320219 -2.61735e-21)
(1.01345 9.73706e-05 8.33569e-23)
(1.01354 6.91359e-05 -8.50017e-24)
(1.01358 3.36992e-05 3.53962e-22)
(0.949558 0.121726 -2.65638e-21)
(1.06103 0.329723 2.19462e-21)
(1.10362 0.317381 1.43116e-20)
(1.06148 0.287325 -8.31889e-22)
(1.00835 0.0446722 0)
(1.01387 0.0469579 -3.32922e-23)
(1.06383 0.388877 -2.59019e-20)
(1.01383 0.342358 3.62883e-21)
(1.02812 0.0438052 4.90585e-22)
(1.01362 -0.000125442 1.21613e-22)
(1.01364 -0.000109354 1.20714e-22)
(0.939443 0.0333879 -7.63501e-22)
(1.02069 -0.00074121 -2.35375e-23)
(1.02107 -0.000521566 -3.1564e-23)
(1.02052 -0.00039289 1.07893e-22)
(1.03248 0.00163509 2.35304e-22)
(1.03137 0.000249667 5.67994e-22)
(1.02411 -0.0124745 8.40956e-22)
(1.02443 -0.0134384 -1.44065e-21)
(1.02314 -0.0131539 4.84009e-22)
(1.0181 -0.00214962 -3.35204e-22)
(1.0183 -0.00229911 0)
(1.0153 0.00038524 0)
(1.0153 0.000452241 -1.43569e-22)
(1.01949 -0.0102614 1.38538e-22)
(1.01848 -0.0104042 7.49794e-22)
(1.01032 0.00891444 0)
(1.00911 0.00939681 1.05465e-21)
(1.01157 -3.46132e-05 -9.68082e-23)
(1.00973 8.49171e-05 -5.55576e-22)
(1.01415 0.000139899 -2.42945e-23)
(1.0142 0.000263414 6.99444e-23)
(0.818703 -0.130269 7.19568e-21)
(1.02966 0.00571851 1.00823e-22)
(1.03068 0.00450033 -2.07585e-22)
(1.03127 0.00633204 5.96189e-23)
(0.916959 0.199986 9.21908e-21)
(0.873092 0.314017 -2.87457e-20)
(1.01464 -0.0067917 -1.80511e-22)
(1.01393 -0.00658123 1.50395e-22)
(0.841096 -0.030385 -1.94963e-21)
(0.83433 0.00846734 -4.82525e-22)
(0.940211 0.22629 -9.12195e-22)
(0.933193 0.202931 -5.09048e-22)
(0.916154 0.223167 2.21494e-21)
(0.838406 0.0185973 6.84232e-21)
(0.823787 0.0435129 6.96317e-22)
(0.826124 0.00443526 -3.86846e-21)
(1.02238 -0.00213546 -2.40453e-23)
(1.02245 -0.00189333 7.21215e-23)
(1.04932 -0.00397162 6.87894e-23)
(1.04904 -0.007523 2.98282e-22)
(1.13147 0.300636 1.28797e-20)
(1.08361 0.385947 -2.62033e-20)
(1.08547 0.342065 1.94335e-20)
(1.01433 -0.000159998 5.98936e-23)
(1.0146 -0.000315324 2.84122e-22)
(0.854836 0.000750551 -3.25349e-23)
(0.85424 0.03259 -9.92987e-22)
(1.01504 -0.00616805 1.4185e-22)
(1.0153 -0.00675864 -2.15868e-22)
(1.01444 -0.00113772 9.92816e-22)
(1.01449 -0.00153722 -8.02933e-22)
(1.0136 -0.000178534 2.4039e-22)
(1.01422 -0.000239452 -1.83973e-22)
(1.01294 0.00173767 1.76508e-21)
(1.01309 0.000914004 1.01546e-21)
(1.01553 2.65141e-05 0)
(1.01558 1.18534e-05 -1.24145e-22)
(0.913878 0.000743422 8.29145e-23)
(0.91488 0.000113087 0)
(0.92344 0.0113201 -2.17459e-22)
(1.19875 0.119972 3.07373e-21)
(1.20134 0.0512445 7.53764e-21)
(1.20813 0.0793475 0)
(1.02134 -0.00132931 2.4159e-23)
(1.02187 -0.00112004 2.13453e-23)
(1.02847 0.0066975 -1.94515e-22)
(1.02838 0.00497841 -1.08143e-22)
(1.01473 0.00016497 1.26145e-22)
(1.01388 0.000223468 3.06283e-22)
(1.0225 6.5522e-05 -3.31255e-23)
(1.02328 -1.11055e-05 1.15327e-22)
(1.02278 -0.000434408 -1.15826e-22)
(0.700502 0.182934 -4.47835e-20)
(0.686 0.0720716 5.83866e-20)
(1.01369 7.8016e-06 2.94891e-22)
(1.01365 -3.61761e-06 -3.20744e-23)
(1.01367 2.58931e-05 1.70635e-22)
(1.11487 0.0721638 -8.58932e-22)
(1.13396 0.0766799 -1.25013e-21)
(1.0154 0.000819987 1.55625e-22)
(1.01545 0.000893736 -1.38418e-22)
(1.01544 0.000836666 0)
(1.0138 -7.46039e-05 6.83489e-25)
(1.01383 -4.51745e-05 -4.44858e-24)
(1.01411 -0.000412355 4.63178e-23)
(1.014 -0.000430141 -3.90321e-22)
(0.997794 0.00973185 1.44948e-22)
(1.17178 0.213965 -5.14377e-21)
(1.17116 0.165196 3.30627e-21)
(1.10176 0.0868756 -1.89877e-22)
(1.09772 0.0656298 4.98499e-21)
(0.917692 0.000163707 7.75708e-23)
(0.907641 -0.00925128 -5.89497e-21)
(1.00842 -0.000123452 -9.09746e-24)
(1.00646 -6.04089e-05 1.08473e-21)
(1.01105 -0.000282552 -1.31994e-21)
(1.02035 -0.0102034 -2.42052e-22)
(1.01975 -0.0111962 9.65332e-23)
(1.01383 -0.00125482 -6.44181e-22)
(1.01379 -0.00118134 -6.73907e-22)
(1.01392 -0.0012284 -6.4607e-23)
(0.777713 -0.0343141 0)
(0.744882 -0.0595662 9.51304e-21)
(1.02406 0.00414525 -1.02495e-22)
(1.0234 0.00366532 1.73566e-22)
(1.02332 0.00432698 -2.0611e-22)
(0.799855 0.0653652 0)
(0.816221 0.0883916 -3.65698e-21)
(1.02221 0.00051792 -1.3304e-23)
(1.02181 9.11142e-05 0)
(1.01753 -0.015412 1.6634e-22)
(1.01609 -0.0160572 1.76324e-22)
(1.01783 -0.0170568 6.08645e-22)
(1.01713 -9.468e-05 2.34571e-21)
(1.0174 0.000143652 -2.4038e-22)
(1.01707 0.000231331 -2.77365e-21)
(1.01411 1.7257e-07 2.24497e-23)
(1.01418 1.33403e-05 -6.94142e-24)
(1.01418 3.89926e-05 4.21662e-23)
(1.01088 9.54892e-05 -2.66249e-22)
(1.00665 -0.000116656 1.39352e-22)
(0.83345 0.0287 0)
(1.01505 0.000755933 -1.50994e-22)
(1.01509 0.000704344 1.78195e-22)
(0.830452 0.111867 0)
(0.822893 0.140307 6.91888e-22)
(0.844677 0.141607 2.35849e-22)
(1.08969 0.174983 5.13476e-21)
(1.11495 0.185914 -4.7525e-22)
(1.01693 -0.000291158 0)
(1.01712 -0.000283685 0)
(1.01 -2.01226e-05 2.02495e-22)
(1.00713 -3.09743e-05 -9.13588e-22)
(1.00668 1.10702e-05 -6.04471e-22)
(1.0222 0.555772 9.16059e-22)
(0.961085 0.575656 -1.43318e-20)
(0.979877 0.609819 -3.18567e-21)
(0.962289 -0.0185272 -5.74059e-22)
(0.96443 -0.0234527 3.1934e-22)
(0.958289 -0.0213409 1.56098e-21)
(1.01385 0.00021004 1.43628e-22)
(1.01373 5.15098e-05 -1.60814e-22)
(1.01377 0.000283414 -2.45195e-24)
(0.995068 0.0373044 3.17206e-22)
(0.998273 0.041053 6.97767e-22)
(0.999407 0.0363617 3.19548e-22)
(1.01272 0.000161532 -9.48549e-23)
(1.01188 0.000215509 -4.30065e-22)
(1.00272 -0.00286525 -2.86013e-22)
(1.00104 -0.00329992 -3.68387e-22)
(1.00164 -0.00153438 -3.27408e-25)
(0.978916 -0.0270664 1.18652e-21)
(0.980816 -0.0227872 4.41877e-22)
(0.975751 -0.0238 -1.56538e-22)
(1.00733 3.77553e-05 -6.45353e-23)
(1.01055 -1.18698e-05 8.12483e-22)
(1.00714 4.63011e-05 -6.20793e-23)
(0.800748 0.129271 -1.63919e-21)
(0.800947 0.111588 3.44717e-21)
(0.806457 0.0910998 -1.49877e-20)
(1.1029 0.108961 4.45944e-21)
(1.01867 0.00742644 5.0062e-22)
(1.01817 0.00787852 2.92037e-23)
(1.01813 0.00707845 1.9877e-22)
(0.976091 -0.137684 1.81135e-20)
(0.956888 -0.0894307 1.52411e-23)
(0.981959 -0.115405 1.54686e-23)
(1.03159 0.00329659 7.63059e-22)
(1.03354 0.00342589 2.36119e-22)
(1.01374 -0.00127636 -2.48199e-22)
(1.01388 -0.00131407 3.54765e-22)
(1.01402 2.73381e-05 -3.56842e-22)
(1.01434 -4.11352e-05 -5.28028e-22)
(1.01498 -0.00179065 6.42572e-22)
(0.920294 0.0540397 -4.32129e-21)
(1.0216 -0.00112119 8.01236e-24)
(1.02182 -0.00120502 0)
(0.948102 0.250343 5.64644e-22)
(0.964411 0.229048 1.57625e-21)
(0.961208 -0.0138641 0)
(0.966312 -0.0163654 2.0373e-22)
(1.18002 -0.166128 -1.19075e-21)
(1.14143 -0.198555 1.34122e-20)
(1.02469 0.00465733 2.28091e-22)
(1.02545 0.00536598 -7.05611e-23)
(1.02451 0.0055762 -5.08206e-22)
(1.04938 -0.000708055 1.14905e-22)
(1.05294 -0.0026237 -3.65097e-22)
(0.967675 -0.164154 7.35466e-22)
(1.00103 -0.188725 2.15146e-22)
(0.808547 0.141855 -7.82861e-21)
(0.795798 0.161218 -5.07436e-22)
(1.00978 -3.0214e-05 4.15374e-23)
(1.01121 1.12131e-05 -3.7642e-22)
(1.01312 0.000470444 2.8363e-22)
(1.01288 9.56301e-05 -8.72946e-23)
(1.01313 3.00191e-05 7.24799e-23)
(1.01641 -0.000179304 2.38788e-22)
(1.01624 -8.94067e-05 2.22832e-22)
(1.01921 0.00773582 -5.3289e-22)
(1.01889 0.00694624 1.21049e-22)
(0.982602 -0.0302995 -5.51988e-22)
(0.976366 -0.0311109 6.77124e-22)
(0.992313 0.0336975 -7.26151e-23)
(0.99053 0.0381338 0)
(1.01409 -0.000310803 9.27833e-22)
(1.0142 -0.000405619 3.66695e-22)
(1.06319 0.0268436 7.45995e-22)
(1.05848 0.0478236 1.57342e-21)
(0.852035 -0.0365847 1.40506e-20)
(0.857217 -0.00955894 1.59868e-21)
(0.866573 -0.0417652 3.30902e-21)
(1.01403 -0.00266306 7.91855e-23)
(1.0142 -0.00245217 2.41586e-22)
(1.00977 4.09655e-05 0)
(1.0096 7.62788e-05 1.11806e-22)
(1.00687 2.74062e-05 2.57869e-22)
(0.763232 0.0772739 0)
(0.781023 0.0404952 0)
(1.01894 -0.0146635 0)
(1.01728 -0.0139314 -1.23428e-22)
(1.1221 0.0315258 2.61324e-21)
(1.1279 0.0182706 -1.39346e-21)
(1.12337 0.0386466 -1.38493e-21)
(1.02498 -0.0102345 1.23546e-21)
(1.00399 -0.00988336 7.21268e-22)
(1.00893 -0.0464978 0)
(1.0122 -5.20521e-05 0)
(1.0102 -1.25725e-05 0)
(1.00853 0.0206184 -3.20607e-23)
(1.00867 0.0187554 0)
(1.01035 0.0197691 0)
(1.01228 -0.00280314 0)
(1.01187 -0.00300907 -1.37634e-22)
(1.03009 0.00275003 -3.06667e-22)
(1.00374 -0.00390818 6.00744e-23)
(1.00423 -0.0024063 -1.37086e-22)
(1.02447 -0.010947 -4.52727e-22)
(1.02366 -0.00967965 -2.91108e-22)
(1.01604 -0.000981828 -5.7785e-24)
(1.01586 -0.000914814 3.67653e-22)
(1.01589 -0.000985214 3.51355e-22)
(1.01904 0.0381597 6.75898e-23)
(1.0154 0.0350003 -3.17885e-22)
(1.01402 0.000230431 1.49058e-22)
(1.01278 0.000189815 -7.97679e-23)
(1.01398 0.000249139 -2.45485e-22)
(0.843776 0.0265793 1.53879e-22)
(0.83165 0.0378251 1.53173e-22)
(1.0014 0.0448835 -3.15932e-22)
(0.996759 0.045983 -3.12422e-22)
(0.517578 -0.348629 0)
(0.546218 -0.404946 0)
(0.497134 -0.336301 -8.20799e-21)
(1.11639 0.0261548 1.02304e-21)
(1.11529 0.0411872 2.27704e-21)
(1.01557 -5.72003e-05 0)
(1.01548 6.39647e-05 0)
(0.991443 -0.041748 1.33662e-21)
(0.971925 -0.0628877 2.12186e-21)
(0.958714 0.00503905 -7.61847e-22)
(0.950397 0.00578683 -4.95827e-22)
(0.997662 -0.00237792 3.24671e-22)
(0.999107 -0.00398097 -5.53654e-23)
(0.996997 -0.00463507 -4.06032e-23)
(1.02266 -0.00232315 1.1858e-23)
(1.02231 -0.00240599 9.8464e-25)
(1.01313 0.027914 3.01881e-23)
(1.01249 0.0252575 2.35693e-22)
(1.01525 0.0260764 2.61161e-23)
(1.00999 2.53389e-05 1.89691e-24)
(1.01227 -4.62111e-06 7.67976e-25)
(1.01229 1.3163e-05 5.72002e-24)
(1.01533 0.000317723 1.9186e-22)
(1.0153 0.000323726 1.4118e-22)
(1.02275 0.00207618 2.14355e-22)
(1.02214 0.00185058 -2.2222e-22)
(1.02222 0.00236934 -8.43729e-24)
(1.01387 -0.000101307 4.72228e-23)
(1.01409 -0.00014219 4.04254e-23)
(1.01382 -8.07911e-05 -6.77391e-23)
(1.00337 -0.0316266 1.54388e-21)
(0.999441 -0.0308858 2.45636e-22)
(1.00227 -0.0277824 1.01647e-21)
(1.01647 -0.00122903 9.79039e-23)
(1.01654 -0.00124826 -3.54858e-23)
(1.01662 -0.00112443 -1.03925e-22)
(1.04659 0.0792832 0)
(1.04147 0.0919266 0)
(1.00727 -0.032022 8.64797e-22)
(1.00555 -0.0358634 -1.28909e-21)
(1.01844 0.00508439 -1.18104e-22)
(1.01783 0.00464427 1.45506e-23)
(1.01794 0.00529125 -2.49161e-22)
(1.16468 -0.189874 -1.48252e-20)
(1.10952 -0.285395 3.10649e-20)
(1.00827 0.0228308 4.10293e-22)
(1.00672 0.021312 -3.25698e-23)
(1.0208 -0.00110858 -5.29531e-23)
(1.02031 -0.000944278 -1.63099e-23)
(1.00681 2.47724e-05 -8.72712e-23)
(0.960703 0.20646 7.89131e-23)
(0.932712 0.21514 -1.70571e-22)
(0.943194 0.187425 7.7629e-22)
(1.00673 5.9967e-05 -9.71234e-23)
(1.00377 8.8866e-05 1.89825e-22)
(1.00365 1.28234e-05 -6.65709e-22)
(1.01697 -0.00126203 -3.26178e-22)
(1.01695 -0.00135817 -2.52798e-22)
(1.01263 -0.00014712 -1.90933e-22)
(1.01165 9.94128e-05 -2.3912e-22)
(1.01581 -0.00189489 -1.25104e-21)
(1.01568 -0.00191243 1.84534e-21)
(0.891936 -0.0731771 1.19841e-20)
(0.875924 -0.0836476 -1.12475e-21)
(0.875587 -0.0817359 5.38937e-22)
(1.00277 -0.000142243 0)
(1.00285 -0.0228119 -8.65401e-22)
(1.01569 -0.00132374 -2.24012e-21)
(1.01406 -0.000127382 0)
(1.01397 -9.17042e-05 3.91165e-23)
(1.0141 -0.000150771 -3.53375e-23)
(1.01114 -0.0316012 3.29174e-22)
(1.01492 -0.0311505 -3.25876e-22)
(1.0141 -0.0352513 6.18227e-22)
(1.00933 -0.0285494 8.90791e-22)
(1.00401 -0.330381 -2.12952e-20)
(0.932024 -0.334032 2.2319e-20)
(0.953457 -0.391816 1.1516e-20)
(1.02161 -0.00164071 6.20116e-23)
(1.00661 2.74913e-05 -7.12103e-24)
(1.00654 2.23845e-05 4.63167e-23)
(1.02484 0.00380404 -3.58246e-22)
(1.01454 -0.00020963 -2.77048e-22)