/*--------------------------------*- C++ -*----------------------------------*\
| =========                 |                                                 |
| \\      /  F ield         | OpenFOAM: The Open Source CFD Toolbox           |
|  \\    /   O peration     | Version:  v2012                                 |
|   \\  /    A nd           | Website:  www.openfoam.com                      |
|    \\/     M anipulation  |                                                 |
\*---------------------------------------------------------------------------*/
FoamFile
{
    version     2.0;
    format      ascii;
    class       surfaceVectorField;
    location    "1000";
    object      Uf_0;
}
// * * * * * * * * * * * * * * * * * * * * * * * * * * * * * * * * * * * * * //

dimensions      [0 1 -1 0 0 0 0];


internalField   nonuniform List<vector> 
14885
(
(1.01016 0.041307 1.23883e-22)
(1.01426 0.0392959 8.09648e-22)
(1.01452 0.0455945 -1.45632e-22)
(0.622589 0.170335 1.25613e-20)
(0.611232 0.125714 1.27269e-20)
(0.649666 0.168958 3.95626e-20)
(1.08445 0.0145229 -1.85504e-21)
(1.08781 0.00614143 -6.6198e-23)
(1.07666 0.0065808 -6.47299e-23)
(1.01352 -7.25068e-05 1.7289e-22)
(1.01357 -9.68191e-05 -2.84475e-22)
(1.0135 -9.56888e-05 8.58412e-23)
(1.01454 -0.000225501 5.86444e-23)
(1.01439 -0.000238769 0)
(1.01479 -0.000277658 -5.60533e-24)
(0.977112 -0.0236113 -8.69755e-22)
(0.991497 0.00460158 2.276e-20)
(0.958887 -0.0576365 -7.85908e-22)
(0.920082 -0.115367 -9.73655e-22)
(0.896289 -0.117434 0)
(0.939799 -0.104708 0)
(0.860426 -0.137243 1.50073e-21)
(0.838975 -0.135593 1.3356e-21)
(0.848382 -0.149112 2.96233e-21)
(1.01584 0.000627944 2.65685e-22)
(1.01601 0.000680975 -3.958e-24)
(1.01595 0.000560026 -1.32681e-22)
(1.02828 -0.0136079 -8.95843e-22)
(1.02916 -0.0151213 -2.47018e-22)
(1.0304 -0.012966 -5.77269e-22)
(1.00825 -0.0249723 9.48217e-23)
(1.0091 -0.0256784 1.72486e-22)
(1.00962 -0.0242734 1.85445e-23)
(0.633532 0.216228 -2.3571e-21)
(0.606559 0.16032 -1.98133e-20)
(0.998065 0.0052691 -8.88971e-23)
(0.997752 0.00743735 -1.11384e-22)
(0.99996 0.00684019 0)
(1.02136 0.00798714 -3.07411e-23)
(1.02154 0.00724137 7.90819e-22)
(1.02224 0.00828579 -5.99024e-23)
(1.01571 -0.00171372 -7.18052e-22)
(1.01581 -0.00169399 1.34004e-22)
(1.0158 -0.0016568 4.77747e-22)
(1.02092 0.00874863 3.65469e-22)
(1.02066 0.00775208 -5.34759e-22)
(0.940782 -0.0858638 0)
(0.962828 -0.0456839 1.0122e-21)
(0.919954 -0.119467 -1.67908e-21)
(1.00732 -0.0243031 2.58728e-23)
(1.00709 -0.0257748 0)
(1.01515 0.00233046 1.34983e-21)
(1.01532 0.00297713 4.50081e-22)
(1.01466 0.00283977 1.48269e-21)
(1.02965 -0.00638365 -1.28703e-22)
(1.02898 -0.00741542 7.19443e-22)
(1.03078 -0.00756154 2.21843e-22)
(0.998957 0.00312794 -6.89888e-22)
(0.99648 0.00343786 -4.61547e-22)
(1.00579 0.0436716 -4.17886e-23)
(1.00667 0.0378648 -2.05373e-21)
(1.01348 -5.12906e-05 -8.42574e-23)
(1.01353 -4.05457e-05 -8.53224e-23)
(0.84445 -0.0477061 0)
(0.838278 -0.018351 -1.31312e-21)
(0.840202 -0.00855055 -1.37501e-22)
(1.0139 -0.000217585 -6.48309e-23)
(1.01396 -0.000124294 -1.19853e-23)
(1.0139 -0.000319016 5.74994e-23)
(1.01112 -0.000360845 -1.47815e-22)
(1.01243 -0.000317949 8.50583e-23)
(1.01364 -0.000387701 1.83842e-22)
(1.02614 -0.0136907 4.09329e-22)
(1.02715 -0.0122745 1.32523e-21)
(1.01492 0.00062581 -2.34974e-24)
(1.01499 0.000687547 -1.94896e-24)
(1.01488 0.0006576 -2.01447e-22)
(0.958629 -0.0580539 0)
(0.996216 0.00869047 0)
(0.847038 -0.104847 1.53024e-21)
(0.845848 -0.11571 4.52034e-22)
(0.856043 -0.111834 3.55681e-21)
(1.01426 -3.56142e-05 5.04189e-23)
(1.01284 -0.000138671 2.32949e-22)
(1.01261 -8.75696e-05 1.02951e-22)
(1.01099 0.0291049 -6.49668e-22)
(1.00881 0.029683 -2.52819e-21)
(1.01075 0.0315733 3.50282e-21)
(1.01563 0.000745261 1.73086e-22)
(1.01573 0.000685315 3.95304e-22)
(1.01578 0.00079387 2.80576e-22)
(1.01552 0.000772336 2.46472e-24)
(1.0155 0.000681726 -2.30994e-22)
(0.885855 -0.135929 -1.28217e-21)
(0.872034 -0.114555 1.03269e-21)
(0.829837 -0.085567 2.46299e-20)
(0.820724 -0.0813127 -5.79784e-22)
(0.833272 -0.0586415 -1.86839e-21)
(1.01173 -4.9111e-05 0)
(1.01222 2.43513e-05 0)
(1.0127 5.38042e-06 -7.63351e-22)
(1.01526 0.000541772 3.02002e-23)
(1.01527 0.000575698 -1.45121e-22)
(1.01524 0.000520271 -1.47801e-22)
(1.01532 -2.58612e-05 -1.00691e-22)
(1.01506 -0.000111072 -3.32146e-22)
(1.04372 -0.00506502 5.66618e-23)
(1.04127 -0.00535869 -6.22481e-23)
(1.04327 -0.00798097 -9.60046e-23)
(0.845415 -0.0803383 1.09074e-21)
(0.84559 -0.087614 -7.15084e-21)
(1.01568 0.000584326 3.49789e-23)
(0.890126 0.0387316 9.24971e-22)
(0.905818 0.0362752 -5.80071e-21)
(0.895182 0.0542763 -2.01105e-22)
(0.979219 -0.215338 1.23895e-20)
(1.07693 -0.211611 5.58809e-21)
(1.03134 -0.0832157 1.38303e-21)
(1.01418 -6.22705e-05 1.13787e-23)
(1.01412 -6.58785e-05 2.44555e-22)
(1.01409 -7.98197e-05 1.32053e-22)
(1.01385 -0.000315488 2.48672e-22)
(1.0139 -0.000124993 -9.67267e-23)
(1.01414 -0.000736373 -3.11709e-23)
(1.0141 -0.000579943 -4.78977e-22)
(1.01426 -0.000666263 -2.50782e-23)
(1.01557 -0.00172524 0)
(1.01561 -0.00170763 0)
(1.0154 -0.0344562 3.84925e-22)
(1.01225 -0.0374522 4.56162e-22)
(1.01191 -0.0326994 -1.39974e-22)
(0.72842 -0.0393733 4.32881e-21)
(0.672868 -0.0353948 -2.44502e-22)
(0.714897 -0.00401143 7.98198e-21)
(0.869792 0.0425899 1.0425e-21)
(0.883243 0.021172 5.37772e-21)
(1.0138 -4.67521e-05 -2.72381e-23)
(1.01379 -1.79113e-05 8.72059e-23)
(1.01376 -4.20896e-05 -4.53978e-23)
(0.920763 -0.128982 2.56586e-21)
(1.01502 0.00177087 -2.23411e-21)
(1.01553 0.00201656 3.58239e-22)
(1.10979 -0.0999752 7.16436e-20)
(1.16304 -0.0926102 1.63549e-20)
(1.15558 0.0220812 -5.65293e-21)
(0.494919 0.709415 5.87405e-20)
(0.488576 0.687052 1.41557e-20)
(0.462183 0.614526 1.97468e-20)
(0.99986 0.00140567 2.21209e-22)
(1.00107 0.00308299 9.22443e-23)
(1.0116 -0.0177689 -3.19654e-23)
(1.0098 -0.0184979 -1.41494e-22)
(1.01138 -0.019642 3.63238e-22)
(1.01621 -0.00173263 0)
(1.01626 -0.00180722 7.61747e-22)
(1.0163 -0.0017479 0)
(1.02198 -0.00177519 3.47777e-24)
(1.02182 -0.00158424 2.29787e-24)
(1.02206 -0.00155156 1.72708e-24)
(1.01807 -0.0315619 1.75036e-21)
(1.01986 -0.0360115 1.52184e-21)
(1.15465 -0.210139 0)
(1.14519 -0.24095 1.50381e-22)
(1.11175 -0.275242 -8.20857e-21)
(0.916862 0.0295417 -7.66453e-21)
(0.922305 0.0428662 -5.05589e-22)
(0.951106 -0.152037 -2.39384e-22)
(0.922079 -0.157949 1.22928e-21)
(0.945357 -0.157489 2.78349e-21)
(1.07156 0.0845046 -2.55259e-22)
(1.08515 0.0964928 1.47916e-21)
(1.0677 0.104224 0)
(1.01037 0.000419579 -6.60888e-22)
(1.01044 0.0012808 -5.11615e-22)
(1.00958 0.00066378 -3.00361e-22)
(1.03045 -0.0041796 2.67748e-22)
(1.03018 -0.0053009 5.52888e-22)
(1.0318 -0.00500114 4.20657e-22)
(1.04127 0.0560063 -1.15383e-22)
(1.04877 0.063944 -2.16965e-22)
(1.0502 0.054832 -1.57145e-21)
(1.01415 -0.00144959 -2.84067e-22)
(1.01411 -0.0012488 -9.72338e-23)
(1.01399 -0.00138766 -3.24218e-22)
(1.03421 0.0486403 -3.09935e-23)
(1.0337 0.0550397 -1.60472e-21)
(0.851993 0.0488742 -1.42417e-21)
(0.827301 0.0534558 0)
(0.842771 0.0256849 1.15001e-20)
(1.02059 -0.00373416 3.29309e-24)
(1.02107 -0.00377759 -2.1343e-23)
(1.0207 -0.00333585 -1.19361e-23)
(1.01528 0.00139735 0)
(1.01533 0.00159812 -3.80438e-24)
(1.01539 0.00146016 -5.17933e-24)
(1.0161 -0.00172661 1.00099e-23)
(1.01612 -0.00166158 0)
(1.01095 0.000240026 0)
(1.0103 -0.000338395 0)
(0.861068 0.0669957 -4.38755e-21)
(1.15017 -0.0341121 -1.27277e-21)
(1.13598 -0.0187874 9.01963e-22)
(1.1545 -0.00862381 -3.89859e-22)
(1.01402 -0.000790073 -3.405e-22)
(1.01417 -0.000926644 0)
(1.14096 -0.0539709 -4.78697e-21)
(1.15999 -0.0533791 -1.45119e-21)
(1.01593 0.00317308 -1.60363e-21)
(1.01542 0.00374009 6.04448e-22)
(0.88238 -0.210986 4.95169e-21)
(0.94055 -0.328134 -7.695e-21)
(0.853411 -0.071899 -3.02446e-22)
(1.00682 -1.76425e-06 6.52445e-23)
(1.01057 6.3624e-06 -1.61267e-22)
(1.00645 5.27304e-06 0)
(1.01429 -0.000340945 -3.76107e-23)
(1.01434 -0.000417669 -2.15052e-22)
(1.01423 -0.000421055 -5.63382e-23)
(1.0231 -0.0107696 -1.91647e-21)
(1.02285 -0.0108372 -3.65558e-22)
(1.02306 -0.0104626 5.29527e-22)
(1.04154 -0.0626237 -2.50497e-21)
(1.03527 -0.0559783 -1.50984e-21)
(1.03453 -0.0647748 -2.46784e-21)
(1.02929 -0.00363045 2.63602e-22)
(1.03058 -0.00294613 -4.64257e-22)
(1.07755 0.0225059 6.59198e-23)
(1.09024 0.0242106 6.44615e-23)
(1.01869 -0.00688401 4.25676e-22)
(1.01858 -0.0062136 -4.49198e-22)
(1.0193 -0.00641807 -4.26478e-22)
(1.13175 0.0375541 0)
(1.12279 0.0577614 -1.43294e-21)
(1.11232 0.0379624 -1.01709e-21)
(1.00761 0.00476692 -7.88468e-23)
(1.00631 0.00492176 1.64921e-21)
(1.00746 0.00606854 2.09029e-21)
(1.01586 -0.00173814 7.06852e-22)
(1.01598 -0.00167173 6.72914e-22)
(0.927312 0.0259831 7.12403e-21)
(0.914827 0.0161257 -1.24652e-21)
(1.05012 -0.0593066 1.16025e-21)
(1.0443 -0.0708566 1.01997e-21)
(1.02873 0.0695099 1.66418e-22)
(1.03291 0.0798075 -3.25417e-22)
(1.02183 0.0788808 9.68637e-21)
(1.01653 -7.9496e-05 0)
(1.0168 -8.40975e-05 1.5115e-22)
(1.0166 -8.81739e-06 1.04684e-22)
(0.823824 0.185297 6.98e-20)
(0.749963 0.157048 1.62724e-19)
(1.02872 -0.00567168 4.54928e-22)
(0.736968 0.16807 5.84438e-21)
(0.729702 0.163306 0)
(0.742571 0.199441 2.26295e-21)
(1.01602 -0.00170608 8.20864e-22)
(1.01594 -0.00170215 1.67523e-21)
(1.01594 -0.0016491 8.04067e-22)
(1.00878 0.00466921 -2.40578e-23)
(1.00791 0.00355185 -6.44356e-22)
(1.04016 -0.0138451 -1.53057e-22)
(1.04416 -0.014357 1.35105e-21)
(1.04043 -0.0183812 -1.23159e-22)
(1.01829 -0.00208938 2.90097e-22)
(1.01855 -0.00203832 0)
(1.01829 -0.00186711 0)
(1.01246 0.0246959 -1.15269e-21)
(1.01364 0.0230732 -1.19758e-21)
(1.01245 0.00109653 1.57235e-21)
(1.01193 0.000547373 7.75316e-22)
(1.01173 0.00144553 -3.89929e-22)
(1.01737 -0.00150241 -2.81605e-22)
(1.01719 -0.00137231 2.97523e-22)
(1.0174 -0.00136668 2.852e-22)
(0.615569 -0.484182 -9.68898e-20)
(0.646067 -0.474582 -1.02999e-20)
(0.566049 -0.403957 4.08643e-20)
(1.01152 4.86578e-05 -2.1254e-22)
(1.01156 0.000728057 2.68825e-22)
(0.94554 -0.111403 -1.7812e-21)
(0.908671 -0.125595 -2.80892e-21)
(1.01732 -0.00161651 -5.38384e-22)
(1.01757 -0.00165684 -1.45335e-22)
(1.01621 -0.00152184 7.07954e-24)
(1.01633 -0.00161978 0)
(1.01615 -0.00159635 0)
(0.969835 -0.104739 -1.31544e-21)
(0.981296 -0.0971894 2.08152e-22)
(1.03562 -0.0136758 -7.06093e-22)
(1.03864 -0.00968791 9.21956e-22)
(0.977897 -0.144025 -1.53523e-21)
(0.954951 -0.136763 -2.03684e-21)
(1.05807 0.0746916 3.58604e-21)
(1.06994 0.0687858 -5.67087e-22)
(1.01397 -0.00233359 -6.32871e-22)
(1.01394 -0.00200792 -4.2174e-22)
(1.01375 -0.0021708 -4.63125e-22)
(0.963569 -0.00170095 0)
(0.967062 -0.000152735 6.22549e-22)
(0.962666 0.00289663 -4.72968e-22)
(1.0125 7.42072e-05 0)
(1.01366 -6.22083e-05 9.65164e-23)
(1.01434 -0.000199601 0)
(1.01321 -0.017234 6.62371e-23)
(1.01167 -0.0161635 8.65142e-22)
(1.0141 -0.00305651 0)
(1.0144 -0.00319732 0)
(1.01421 -0.00349108 3.7162e-22)
(1.02216 -0.00195877 4.4647e-23)
(1.02188 -0.00199615 -7.5778e-23)
(0.726424 0.350044 -8.24636e-21)
(0.67656 0.30621 -5.13011e-21)
(0.712256 0.341636 -1.53671e-20)
(0.750634 0.354811 0)
(0.763708 0.380729 1.24398e-21)
(1.01426 -5.33611e-05 -1.90883e-22)
(1.01428 -3.74837e-05 -5.91151e-23)
(1.13494 0.0216389 0)
(1.15104 0.037466 -7.03391e-21)
(1.01883 -0.00862681 -8.34221e-22)
(1.01881 -0.00763829 -6.39913e-22)
(1.01962 -0.00802904 -1.33302e-22)
(1.01882 -0.00941723 1.0271e-21)
(1.01791 -0.00881693 5.44894e-22)
(1.06384 -0.223191 1.7465e-20)
(1.04183 -0.0995719 -6.64894e-20)
(0.967374 0.101944 2.92163e-21)
(0.963538 0.113699 2.63275e-21)
(0.97826 0.107135 2.51269e-21)
(0.959594 -0.0038505 -4.63607e-23)
(0.964579 -0.00676391 0)
(1.01546 0.000141436 0)
(1.01543 0.000187146 1.44168e-22)
(1.0155 0.000124884 0)
(1.01175 -0.00207532 4.23428e-22)
(1.01132 -0.00224803 2.15666e-22)
(1.01149 -0.0016229 -4.32242e-22)
(1.02135 -0.012773 -4.57776e-22)
(1.02222 -0.011652 -5.05823e-22)
(1.02295 -0.0133634 -1.91392e-22)
(1.01325 0.00132128 2.84724e-22)
(1.01316 0.00089519 -4.97268e-22)
(1.01287 0.000913246 -7.68416e-22)
(0.98901 -0.097827 2.25778e-21)
(0.960139 -0.112045 6.58771e-22)
(0.83973 -0.0515502 -5.2089e-21)
(0.82148 -0.0370269 3.40631e-21)
(0.855313 -0.0315029 -3.42482e-21)
(1.033 0.000362647 -1.15768e-22)
(1.03341 -0.00125104 -2.46349e-22)
(1.03498 -3.74713e-05 -6.10481e-22)
(0.798541 -0.585723 -2.48691e-20)
(0.808433 -0.562104 3.50522e-20)
(1.01543 -0.0015246 3.61003e-22)
(1.01518 -0.00150902 -1.22183e-22)
(1.0154 -0.00120751 -5.74051e-22)
(0.757046 0.172001 2.04582e-20)
(0.73212 0.115894 1.13292e-20)
(0.955366 0.0112702 3.5411e-22)
(0.954327 0.0181545 1.01284e-21)
(0.96175 0.0164849 -5.5315e-22)
(1.01462 0.000274026 7.35149e-24)
(1.01481 0.000274653 3.06351e-22)
(1.01501 0.000257561 1.40671e-22)
(0.6081 -0.480418 -4.58218e-20)
(0.676705 -0.536085 1.08792e-20)
(1.01497 0.000592515 0)
(1.01491 0.000571302 2.31501e-22)
(1.01435 -0.00797423 -1.20246e-23)
(1.01427 -0.00729268 2.11524e-22)
(1.01364 -0.00767213 -2.79304e-23)
(1.01527 0.000500794 -6.58994e-23)
(1.01529 0.000562829 1.14914e-22)
(1.02301 -0.0105807 -1.07354e-21)
(1.02313 -0.0107627 -6.99793e-22)
(1.01435 -0.00153853 2.62978e-22)
(1.01422 -0.00171759 2.17998e-22)
(1.02193 -0.00155924 2.69075e-24)
(1.02183 -0.00195417 -4.33962e-24)
(1.0224 -0.00181166 6.98789e-23)
(0.947538 -0.157927 7.10562e-21)
(0.930379 -0.167299 -2.01467e-20)
(0.932703 -0.204058 7.12027e-22)
(1.01195 -7.35742e-05 -1.64678e-22)
(1.01147 -0.000427951 1.07971e-21)
(1.01317 0.000229333 -1.34327e-22)
(1.01417 0.000174532 -6.24828e-22)
(1.01371 0.000208148 -4.48193e-22)
(1.01478 -0.0013633 1.42807e-22)
(1.01497 -0.00144885 -1.71876e-21)
(1.01496 -0.00108683 -1.87888e-21)
(0.993187 0.009317 3.25566e-23)
(0.991222 0.0103848 -1.35829e-23)
(0.993998 0.0117661 1.92258e-22)
(1.02449 0.0614063 -1.95297e-22)
(1.03316 0.0613788 6.4742e-21)
(1.01495 -0.00830433 -2.07294e-23)
(1.01419 -0.00869806 4.57524e-23)
(0.970738 0.0898621 -1.37934e-21)
(0.957891 0.0929489 -1.20607e-21)
(0.529816 0.711975 -6.24703e-22)
(0.529457 0.768585 -4.02456e-20)
(1.02034 -0.0140843 7.43724e-22)
(1.02005 -0.0123032 1.28222e-23)
(1.00995 -0.000325207 -5.92938e-22)
(1.0079 -0.000360764 3.17577e-22)
(1.01332 -5.7521e-05 2.47536e-23)
(1.01228 -1.86779e-05 1.41401e-23)
(1.01228 -2.99106e-05 -6.55937e-23)
(1.04654 -0.00470214 -4.19938e-22)
(1.04388 -0.00251191 5.58552e-23)
(0.863564 -0.0652043 -3.57191e-21)
(0.824398 -0.0701255 8.1723e-21)
(1.01801 -0.00726868 9.33944e-22)
(1.01578 -0.00174356 -1.14525e-21)
(1.01574 -0.00156928 2.90317e-22)
(1.01587 -0.00157964 -9.20127e-22)
(0.969895 -0.0956086 -1.3847e-20)
(0.967828 -0.132349 2.49389e-21)
(1.01526 0.00120937 7.49868e-23)
(1.01517 0.00130004 0)
(1.01156 0.0270597 8.69688e-22)
(1.01016 0.0249066 2.28472e-22)
(0.831597 -0.112069 1.84796e-21)
(0.844648 -0.0895191 -1.7073e-21)
(1.01539 0.000789578 2.1116e-22)
(1.01528 0.00078942 -1.99761e-22)
(1.0153 0.000720849 1.79729e-22)
(1.00864 0.0501618 -5.04816e-21)
(1.0086 0.0575798 -2.63599e-22)
(1.00251 0.0535422 -3.74774e-23)
(0.848567 -0.11378 -1.66977e-21)
(0.841709 -0.11491 4.71399e-22)
(0.844023 0.424643 2.62771e-20)
(0.858698 0.422083 -3.32118e-20)
(0.893442 0.435217 -4.11913e-20)
(1.01551 0.000855727 0)
(1.01455 0.00151205 -1.05308e-21)
(1.01496 0.0012057 -5.65348e-23)
(0.803804 0.405168 3.11403e-20)
(0.826592 0.402871 5.79967e-20)
(1.01423 0.000212963 -6.35961e-23)
(1.01431 0.000272829 3.84059e-23)
(1.01425 0.00015912 -8.96764e-23)
(1.01528 0.000443416 -9.80522e-23)
(1.01525 0.000432851 -7.09241e-23)
(1.01201 -0.00246687 5.59084e-23)
(1.01218 -0.0019465 2.42624e-22)
(1.01402 -0.00107832 3.78135e-22)
(1.01414 -0.00112277 4.6155e-22)
(1.01561 -0.00154057 2.49426e-21)
(1.01545 -0.00176652 -1.10676e-22)
(1.01185 -0.00160212 -1.48407e-23)
(1.01136 -0.00209543 1.43828e-21)
(1.01113 -0.00128685 6.96333e-22)
(1.01607 -0.00177013 -9.01487e-22)
(1.01497 -0.00272002 -3.00117e-22)
(1.0147 -0.00266901 0)
(1.01485 -0.0024077 0)
(1.04984 0.0379838 0)
(1.03804 0.0168405 2.39853e-21)
(1.03163 0.0463929 9.82157e-22)
(1.01029 0.0101623 -8.76485e-22)
(1.01139 0.0107547 1.14843e-22)
(1.01008 0.011368 -2.27731e-21)
(1.02016 -0.003685 2.14707e-23)
(1.02046 -0.00415095 -3.88648e-23)
(1.02168 -0.00128215 0)
(1.02166 -0.00144552 0)
(1.02148 -0.00131766 -2.54169e-24)
(0.718693 0.0942241 -5.92887e-21)
(0.680431 0.0702411 -6.15997e-21)
(0.66545 0.11946 -5.01423e-21)
(1.01509 0.000277067 -3.18364e-23)
(1.01595 0.000271185 0)
(1.01551 0.000287665 -1.21914e-22)
(0.594311 0.0631585 -1.18124e-20)
(0.998827 -0.00046259 -2.02083e-22)
(1.00083 -0.000243439 4.82788e-23)
(1.0155 8.76094e-05 0)
(1.01543 0.000185231 0)
(1.0122 -0.00104431 -5.31198e-22)
(1.01242 -0.00170277 -5.64061e-22)
(0.875146 -0.0941405 5.05041e-21)
(0.962081 -0.0945801 4.02415e-21)
(0.908437 -0.226879 1.00312e-19)
(1.01579 -0.00178424 8.22375e-22)
(1.01591 -0.00177288 -1.38953e-21)
(1.08645 0.202147 0)
(1.08327 0.231359 -9.91976e-21)
(1.05258 0.21109 0)
(1.00197 0.0328064 8.72408e-24)
(1.00073 0.0374136 0)
(0.998597 0.0327004 0)
(0.99488 0.232677 4.1084e-20)
(1.07087 0.233187 -4.62673e-20)
(1.03776 0.341369 8.67596e-22)
(1.0143 -0.000277592 -1.98586e-23)
(1.01422 -0.000284892 1.77486e-22)
(0.961564 0.131669 3.78174e-22)
(0.963236 0.146859 2.68465e-21)
(0.977915 0.134856 5.68982e-22)
(0.937428 0.0233942 2.84204e-22)
(0.946175 0.0203695 2.80654e-21)
(0.936341 0.013798 1.24556e-21)
(0.918159 0.0326136 6.3108e-22)
(0.923724 0.0409837 -2.71082e-24)
(0.928685 0.0304848 0)
(1.0143 0.000152165 1.15306e-22)
(1.01393 0.000113792 -1.57221e-23)
(1.0142 0.000151958 1.37242e-22)
(0.731279 0.154059 -1.60189e-21)
(0.717105 0.114517 0)
(1.02306 -0.0106349 3.07544e-23)
(1.02168 -0.0103824 -5.89164e-23)
(0.830356 0.0613756 -4.9601e-22)
(0.817384 0.0898737 5.13013e-21)
(0.832358 0.0795057 -2.23467e-21)
(0.995507 0.00807124 -1.17884e-22)
(0.992922 0.0062337 -1.39426e-22)
(1.01609 -0.00143363 6.55813e-24)
(1.01624 -0.00143753 1.72516e-24)
(1.01326 0.00166652 3.85281e-22)
(1.01357 0.00157006 4.17459e-22)
(1.01337 0.0287265 -1.85025e-21)
(1.01444 0.000138061 -1.68535e-22)
(1.01436 0.000107602 -2.28659e-22)
(0.904686 0.0333511 7.64291e-21)
(0.912116 0.0226344 5.79163e-22)
(0.930041 0.0492176 -2.67296e-21)
(0.938975 0.045339 6.55343e-22)
(0.937117 0.056734 1.22681e-21)
(1.01219 -3.03704e-05 1.0937e-22)
(1.01304 -3.69038e-05 -7.79096e-23)
(1.0121 -3.58846e-05 -8.39661e-23)
(1.0337 0.042994 1.91525e-23)
(1.03832 0.040382 2.07382e-23)
(1.03103 0.037187 6.27327e-22)
(1.01418 -4.40689e-05 1.20594e-22)
(1.01406 -0.000109043 1.82302e-22)
(1.01436 -0.000102187 -3.31772e-22)
(0.956488 0.281881 4.223e-21)
(0.98887 0.285305 -1.51267e-21)
(0.972849 0.318582 -1.26927e-21)
(1.01346 9.77153e-05 -1.86796e-22)
(1.01355 6.9475e-05 0)
(1.01358 3.40801e-05 -3.26892e-22)
(0.948243 0.121296 2.67613e-21)
(1.05672 0.329965 1.4328e-21)
(1.09913 0.318234 1.03954e-20)
(1.05768 0.287776 -3.70452e-21)
(1.00821 0.0444415 3.79032e-23)
(1.01368 0.046746 3.77724e-23)
(1.05906 0.388869 -1.76076e-21)
(1.00962 0.342049 0)
(1.02787 0.043863 4.10819e-23)
(1.01363 -0.000124094 -1.99456e-22)
(1.01365 -0.000108081 -3.70286e-22)
(0.93919 0.0327776 2.3941e-21)
(1.02071 -0.00071516 2.82463e-23)
(1.02108 -0.000493656 1.32987e-22)
(1.02053 -0.000367226 2.82522e-23)
(1.0325 0.00173495 1.8496e-22)
(1.0314 0.000337713 -9.56165e-22)
(1.02413 -0.0123836 -8.77467e-22)
(1.02446 -0.0133294 1.43723e-21)
(1.02317 -0.0130651 -5.12878e-22)
(1.01812 -0.00213862 1.92085e-22)
(1.01833 -0.00228678 3.2337e-22)
(1.0153 0.000381464 1.02513e-23)
(1.0153 0.000448107 1.19681e-22)
(1.01955 -0.0102505 -3.19478e-22)
(1.01853 -0.0103991 5.44225e-22)
(1.01034 0.00886097 0)
(1.00913 0.00933939 0)
(1.01157 -3.44007e-05 0)
(1.00973 8.51204e-05 1.24484e-22)
(1.01415 0.000139071 8.4942e-23)
(1.0142 0.00026301 -5.7108e-23)
(0.818378 -0.130911 -7.68029e-21)
(1.02964 0.00581506 5.87206e-22)
(1.03067 0.00459928 4.92357e-22)
(1.03126 0.00644071 5.31925e-22)
(0.918616 0.214493 -1.00418e-19)
(0.874006 0.327373 -1.50476e-19)
(1.0147 -0.00678438 1.88517e-22)
(1.014 -0.0065777 3.62006e-23)
(0.84092 -0.0286797 -1.50879e-20)
(0.83402 0.0102805 -1.33197e-21)
(0.939139 0.225374 0)
(0.932171 0.202102 -6.68232e-22)
(0.915075 0.222318 0)
(0.838812 0.0170256 0)
(0.824094 0.041829 -9.89765e-22)
(0.826556 0.00273384 1.67707e-22)
(1.02238 -0.00212603 -1.2283e-22)
(1.02246 -0.00188438 5.8723e-23)
(1.04926 -0.00381766 -4.99454e-22)
(1.04901 -0.00736196 -6.14612e-22)
(1.12926 0.306653 -1.0105e-20)
(1.08101 0.390686 -6.2318e-22)
(1.08356 0.348619 -2.2593e-21)
(1.01434 -0.000159947 5.93005e-23)
(1.0146 -0.000315314 -7.38134e-23)
(0.855343 -0.000618267 -8.84718e-22)
(0.854577 0.0311764 -1.97091e-22)
(1.0151 -0.00616138 -1.46996e-22)
(1.01537 -0.00674857 -9.78055e-23)
(1.01448 -0.00115866 6.48252e-22)
(1.01453 -0.00155564 1.75439e-21)
(1.0136 -0.00017839 1.41939e-22)
(1.01423 -0.000239276 0)
(1.01298 0.00169997 7.34995e-22)
(1.01313 0.0008792 8.19897e-22)
(1.01553 2.22355e-05 1.54277e-23)
(1.01559 8.55305e-06 0)
(0.913384 7.1816e-05 -6.5921e-22)
(0.914341 -0.000821193 -5.22488e-22)
(0.922952 0.0109547 -2.79802e-22)
(1.19765 0.125283 2.46639e-20)
(1.201 0.0564928 -1.86382e-21)
(1.20754 0.0855115 3.39998e-20)
(1.02136 -0.00130109 0)
(1.02189 -0.00108931 0)
(1.02844 0.00678924 7.20886e-24)
(1.02837 0.00506468 -6.29111e-22)
(1.01472 0.000165743 1.37302e-23)
(1.01388 0.000224061 -2.91873e-23)
(1.02251 0.000101342 -2.16663e-22)
(1.02329 2.80435e-05 -4.26227e-23)
(1.02279 -0.000398589 -1.64939e-22)
(0.702058 0.198371 8.38504e-20)
(0.687579 0.0884543 1.31644e-19)
(1.01369 8.4282e-06 -2.79936e-22)
(1.01366 -2.99947e-06 -4.18804e-22)
(1.01368 2.639e-05 5.23923e-23)
(1.11399 0.0725233 -1.42386e-21)
(1.13304 0.0772715 1.36112e-22)
(1.0154 0.0008169 0)
(1.01544 0.000890462 0)
(1.01543 0.000833872 0)
(1.0138 -7.4527e-05 -3.85929e-24)
(1.01384 -4.50866e-05 1.94991e-23)
(1.01412 -0.000418078 1.70187e-22)
(1.01401 -0.000436556 -5.86628e-22)
(0.997806 0.00962029 -6.95248e-23)
(1.16978 0.218826 4.57688e-21)
(1.16949 0.169437 8.08248e-23)
(1.10084 0.0870088 1.47305e-21)
(1.09694 0.0658325 3.17176e-22)
(0.91724 -0.000254742 3.70822e-22)
(0.907179 -0.0101205 3.50367e-23)
(1.00842 -0.00012315 3.8089e-22)
(1.00646 -6.0136e-05 1.44079e-21)
(1.01105 -0.000282251 1.78383e-21)
(1.0204 -0.010187 -6.60597e-22)
(1.01981 -0.0111839 -5.81694e-22)
(1.01384 -0.00125756 -9.79796e-24)
(1.0138 -0.00118344 0)
(1.01393 -0.00123055 -6.30066e-22)
(0.777972 -0.03614 7.43946e-22)
(0.7454 -0.0613156 2.23049e-21)
(1.02404 0.00416969 1.68025e-22)
(1.02338 0.00368793 1.40481e-23)
(1.02329 0.00434692 3.6459e-24)
(0.799063 0.0631943 0)
(0.815229 0.0864204 0)
(1.02222 0.000553165 -1.67112e-22)
(1.02182 0.000123468 1.47707e-22)
(1.0176 -0.0154273 -1.66176e-22)
(1.01616 -0.0160764 -7.27121e-23)
(1.0179 -0.0170755 -6.11841e-22)
(1.01715 -0.000117001 -2.35599e-21)
(1.01742 0.000120892 -6.62629e-22)
(1.01709 0.000208004 1.77442e-21)
(1.01412 2.38763e-06 -4.66999e-23)
(1.01418 1.6096e-05 4.52591e-23)
(1.01418 4.13647e-05 -3.12802e-23)
(1.01088 9.61249e-05 0)
(1.00665 -0.000116485 0)
(0.833505 0.0391818 -3.03881e-20)
(1.01505 0.000756394 1.84162e-22)
(1.01509 0.00070502 0)
(0.830454 0.110418 1.67905e-21)
(0.822865 0.138891 -5.60969e-22)
(0.844588 0.140268 4.03128e-21)
(1.08739 0.176442 0)
(1.11231 0.187832 0)
(1.01695 -0.000312795 7.88169e-22)
(1.01714 -0.000304788 1.28757e-21)
(1.01001 -2.05491e-05 1.05774e-21)
(1.00714 -3.12196e-05 1.25661e-22)
(1.00669 1.08406e-05 -7.9489e-22)
(1.01742 0.555899 0)
(0.956047 0.574679 -1.4272e-20)
(0.975711 0.610491 -3.2695e-20)
(0.96227 -0.0188079 0)
(0.964434 -0.0237457 6.58999e-22)
(0.958259 -0.0216409 0)
(1.01385 0.000203407 1.52605e-22)
(1.01373 4.38896e-05 -2.98904e-22)
(1.01377 0.000276187 0)
(0.994887 0.0372454 8.92709e-22)
(0.998081 0.0410072 5.71017e-23)
(0.99923 0.0363205 0)
(1.01272 0.000161449 0)
(1.01188 0.000215467 0)
(1.0028 -0.00293604 0)
(1.00112 -0.00338012 0)
(1.00172 -0.00161385 0)
(0.978988 -0.0273149 9.69828e-23)
(0.980875 -0.023015 -4.4406e-22)
(0.975799 -0.0240554 -1.12255e-21)
(1.00734 3.7676e-05 6.42988e-23)
(1.01056 -1.19972e-05 -3.90976e-23)
(1.00715 4.61865e-05 -5.02088e-22)
(0.800811 0.127735 -9.97241e-21)
(0.801058 0.109891 4.99696e-22)
(0.806617 0.0893841 -9.1354e-21)
(1.10184 0.109022 -1.45651e-22)
(1.01863 0.00741426 6.37617e-23)
(1.01813 0.0078631 2.00945e-22)
(1.0181 0.00706401 -7.52178e-23)
(0.977709 -0.140243 -1.78893e-20)
(0.957805 -0.0917159 1.40742e-22)
(0.983321 -0.117416 4.41848e-23)
(1.0316 0.00339772 -7.67329e-22)
(1.03355 0.0035402 -5.04965e-22)
(1.01375 -0.00127971 -4.83694e-22)
(1.01389 -0.00131746 1.04762e-21)
(1.01402 2.57072e-05 2.32782e-22)
(1.01434 -4.31446e-05 -1.9114e-22)
(1.01502 -0.00180468 9.04079e-23)
(0.920103 0.0533781 4.00496e-21)
(1.0216 -0.00111658 -3.7184e-23)
(1.02182 -0.00119973 5.86781e-24)
(0.94697 0.249277 4.05058e-21)
(0.96321 0.228107 0)
(0.961176 -0.0141305 0)
(0.966301 -0.0166284 2.082e-22)
(1.18213 -0.162275 0)
(1.14378 -0.195781 0)
(1.02466 0.00468395 4.90889e-23)
(1.02542 0.00539448 2.26573e-22)
(1.02447 0.005599 -1.28367e-22)
(1.0493 -0.000564649 2.25412e-22)
(1.05286 -0.00245222 -2.62175e-23)
(0.969445 -0.167302 8.00039e-24)
(1.0033 -0.191139 -1.14574e-21)
(0.808544 0.140421 -1.46707e-21)
(0.795832 0.159892 4.6172e-22)
(1.00978 -3.02499e-05 -3.86695e-22)
(1.01122 1.11199e-05 -3.65064e-22)
(1.01311 0.000459021 3.11619e-22)
(1.01287 8.27346e-05 -9.3661e-23)
(1.01312 1.85174e-05 5.98871e-22)
(1.01642 -0.00017018 0)
(1.01625 -8.10383e-05 0)
(1.01917 0.00772583 -2.94243e-22)
(1.01885 0.00693691 1.24019e-22)
(0.982704 -0.0305391 -7.29161e-22)
(0.976449 -0.0313815 5.39049e-22)
(0.99214 0.033624 -3.42531e-23)
(0.990344 0.0380572 -7.98322e-22)
(1.01409 -0.000316143 9.29167e-22)
(1.01421 -0.000410879 7.38186e-22)
(1.06321 0.0279204 1.02083e-21)
(1.05837 0.0487215 0)
(0.851948 -0.0350311 -5.58665e-22)
(0.857053 -0.00798125 -3.09441e-21)
(0.866592 -0.0403789 -1.42315e-20)
(1.01404 -0.00267493 8.06525e-23)
(1.01421 -0.0024627 4.02626e-22)
(1.00977 4.06796e-05 0)
(1.0096 7.59723e-05 1.13001e-22)
(1.00687 2.72433e-05 -2.60651e-22)
(0.762081 0.07484 6.83116e-21)
(0.780402 0.038261 0)
(1.01901 -0.0146739 4.04973e-23)
(1.01734 -0.0139446 0)
(1.12191 0.0322903 -5.44029e-21)
(1.12779 0.0191071 -3.37264e-21)
(1.12312 0.0395181 4.3114e-21)
(1.0252 -0.00875691 3.5509e-21)
(1.00422 -0.00832952 -1.97051e-21)
(1.00925 -0.0448934 9.04842e-22)
(1.01221 -5.2022e-05 0)
(1.01021 -1.27096e-05 5.48043e-22)
(1.00848 0.0205274 -6.2704e-22)
(1.00863 0.0186726 -1.34413e-22)
(1.0103 0.0196865 -8.33417e-22)
(1.01228 -0.0028213 1.47246e-22)
(1.01187 -0.00303006 -6.51075e-23)
(1.0301 0.00283976 2.34485e-22)
(1.00383 -0.00396994 0)
(1.0043 -0.00246969 0)
(1.02453 -0.0109097 3.48684e-23)
(1.02372 -0.00964626 -1.89755e-22)
(1.01605 -0.000977442 -5.28527e-24)
(1.01587 -0.000910763 -8.77272e-23)
(1.0159 -0.00098137 4.37271e-22)
(1.01885 0.0381928 8.5029e-23)
(1.01523 0.0350214 4.00972e-22)
(1.01402 0.000230203 -1.30408e-22)
(1.01277 0.000189663 -1.57081e-22)
(1.01397 0.000248862 -1.50643e-22)
(0.843497 0.0281941 2.01738e-22)
(0.831306 0.039516 0)
(1.00119 0.0448463 -6.11289e-22)
(0.996555 0.0459277 5.56424e-23)
(0.521496 -0.35302 -2.99655e-21)
(0.550312 -0.408594 -1.41614e-20)
(0.500754 -0.34307 1.58574e-20)
(1.11626 0.0268206 -4.30476e-21)
(1.11504 0.0418617 -1.31774e-21)
(1.01557 -6.1882e-05 1.42049e-23)
(1.01548 5.87794e-05 -1.31006e-22)
(0.992669 -0.0392589 -1.33592e-21)
(0.973313 -0.0604452 -1.42976e-21)
(0.958745 0.00462002 -5.02999e-22)
(0.950433 0.00528755 -1.35878e-22)
(0.997745 -0.00248009 1.45386e-22)
(0.999198 -0.00407171 0)
(0.997096 -0.0047393 5.6194e-23)
(1.02266 -0.00231253 -9.32976e-24)
(1.02231 -0.00239614 -1.38357e-22)
(1.01304 0.0278037 -9.29133e-23)
(1.01241 0.0251583 -9.44815e-23)
(1.01516 0.025984 -1.29037e-21)
(1.01 2.53975e-05 -2.8647e-23)
(1.01227 -4.7297e-06 -2.94749e-23)
(1.0123 1.30652e-05 -3.96906e-23)
(1.01533 0.000313985 3.93227e-23)
(1.0153 0.000320409 -1.18972e-22)
(1.02274 0.00209998 0)
(1.02212 0.00187215 2.60649e-22)
(1.0222 0.00238967 -2.2969e-22)
(1.01388 -0.000101513 3.59691e-23)
(1.0141 -0.000142537 -5.97006e-23)
(1.01383 -8.10807e-05 8.96319e-23)
(1.00353 -0.0317425 1.03634e-21)
(0.999591 -0.031026 2.15509e-22)
(1.00241 -0.0279008 1.03723e-21)
(1.01649 -0.00124546 2.54698e-21)
(1.01656 -0.0012645 -1.97651e-22)
(1.01664 -0.00114153 1.70197e-21)
(1.04602 0.0790465 1.13713e-20)
(1.04083 0.0915598 -9.13427e-22)
(1.00744 -0.0321142 0)
(1.00575 -0.0359804 0)
(1.01842 0.00509771 1.17256e-22)
(1.01781 0.00465454 2.30724e-22)
(1.01792 0.00530176 4.69585e-23)
(1.16667 -0.18419 -1.87966e-20)
(1.11187 -0.28096 -3.15854e-20)
(1.00822 0.0227277 1.41038e-22)
(1.00668 0.0212121 1.03513e-22)
(1.02082 -0.00108222 0)
(1.02033 -0.000919864 -1.03556e-23)
(1.00681 2.49162e-05 -5.73268e-22)
(0.958292 0.206139 -9.93383e-22)
(0.930279 0.214487 -1.14011e-21)
(0.941073 0.186915 -3.82584e-21)
(1.00673 5.97637e-05 0)
(1.00377 8.87517e-05 0)
(1.00365 1.27166e-05 -1.3248e-22)
(1.01698 -0.00125428 0)
(1.01697 -0.00135104 0)
(1.01264 -0.000147265 5.60234e-22)
(1.01166 9.92795e-05 2.3911e-22)
(1.01584 -0.00190329 0)
(1.01572 -0.00192142 0)
(0.892403 -0.0728115 1.08569e-20)
(0.876455 -0.0836498 -3.48607e-21)
(0.875962 -0.0811745 1.24669e-20)
(1.00354 0.00177624 0)
(1.00389 -0.020326 0)
(1.01573 -0.00133963 1.18124e-21)
(1.01407 -0.000127896 -2.76203e-24)
(1.01398 -9.21243e-05 -5.39195e-23)
(1.01411 -0.000151226 -2.81114e-24)
(1.01133 -0.0316671 -1.34319e-21)
(1.0151 -0.0311898 8.53899e-22)
(1.01431 -0.0353069 -5.01667e-22)
(1.00949 -0.0286246 4.62754e-22)
(1.00535 -0.325142 -8.26968e-21)
(0.932709 -0.328481 1.07709e-20)
(0.954429 -0.389035 -2.17625e-21)
(1.02161 -0.00163467 8.11972e-23)
(1.00662 2.75113e-05 1.7464e-23)
(1.00654 2.24016e-05 -6.09504e-23)
(1.02482 0.00383346 -3.70349e-22)
(1.01455 -0.000208787 2.70344e-22)
(1.01735 -0.00045233 -6.25096e-22)
(1.02757 -0.0505264 -8.33605e-22)
(1.03356 -0.0476847 -1.26237e-21)
(1.02828 0.00501098 1.79998e-22)
(1.0273 0.0044497 3.73885e-22)
(1.02838 0.00383126 1.13791e-22)
(1.01468 -0.0167323 9.11103e-23)
(1.01461 -0.015109 3.58213e-22)
(0.880741 0.170763 8.5205e-22)
(0.879629 0.147124 8.60828e-22)
(0.854302 0.16664 2.00803e-21)