/*--------------------------------*- C++ -*----------------------------------*\
| =========                 |                                                 |
| \\      /  F ield         | OpenFOAM: The Open Source CFD Toolbox           |
|  \\    /   O peration     | Version:  v2012                                 |
|   \\  /    A nd           | Website:  www.openfoam.com                      |
|    \\/     M anipulation  |                                                 |
\*---------------------------------------------------------------------------*/
FoamFile
{
    version     2.0;
    format      ascii;
    class       volScalarField;
    location    "800";
    object      ddt0(k);
}
// * * * * * * * * * * * * * * * * * * * * * * * * * * * * * * * * * * * * * //

dimensions      [0 2 -3 0 0 0 0];


internalField   nonuniform List<scalar> 
10042
(
-1.08246e-07
-1.79402e-08
-4.22321e-07
-1.75135e-07
-0.00352313
-1.60327e-07
0.00929755
0.013038
9.36371e-08
-1.50876e-07
-0.00139059
-1.07682e-07
-2.15625e-07
-4.41058e-07
4.25015e-10
1.88456e-07
1.5886e-07
-6.05186e-08
-8.01129e-08
1.68394e-07
4.19525e-07
-1.92623e-05
-3.00661e-07
-5.33224e-07
-3.6369e-08
1.70438e-07
1.01329e-07
-8.89068e-08
1.81653e-07
-1.3169e-07
-2.28086e-08
2.71783e-06
-2.91224e-07
-3.51736e-08
-2.43111e-07
-5.67923e-07
1.23517e-07
4.74212e-07
-1.17201e-07
-2.39416e-07
3.94249e-07
-7.14906e-08
0.00723788
-2.90834e-07
-0.00357385
-3.4729e-07
-2.15574e-07
-6.11949e-07
-4.04737e-08
4.63907e-07
2.24092e-08
-2.81941e-07
-2.19924e-07
-9.33686e-08
1.19569e-07
-1.9752e-09
1.8809e-07
-2.45325e-07
-9.19061e-08
-3.14011e-07
1.35785e-08
1.37427e-07
-2.53049e-07
-3.75361e-07
6.06834e-09
-1.09615e-07
-1.13159e-07
2.57865e-07
-0.00455032
-8.96875e-09
-6.61028e-08
-2.12953e-08
-3.06705e-07
-2.64299e-08
-3.23619e-07
-8.50467e-07
-0.00367504
-5.73381e-08
-7.1656e-08
0.00318649
8.59266e-08
-0.00370446
-2.83608e-07
2.28446e-08
-1.67867e-07
-5.61454e-08
-3.15349e-07
-2.30413e-07
-4.0358e-07
-1.72245e-07
-7.00046e-08
-0.00359143
-8.71844e-08
-2.18236e-07
-1.4301e-07
2.16718e-08
-2.87145e-08
-4.77019e-09
-2.08046e-07
1.58809e-07
2.89088e-11
-3.08185e-07
0.013666
-2.10718e-07
6.00857e-09
5.0835e-08
-3.39598e-07
-6.3095e-08
3.48093e-07
-1.49105e-07
-6.31588e-08
6.69793e-08
-1.88587e-07
-0.00393386
-8.78358e-09
5.6299e-08
-6.66118e-08
-6.14496e-08
4.35719e-08
-0.000507827
-4.5203e-07
0.162509
-1.35579e-07
1.7768e-08
-2.33214e-07
-1.8557e-07
0.000133962
-1.97278e-07
-2.00116e-08
-3.82257e-08
-7.91363e-08
-8.09651e-08
-0.00123212
3.59144e-07
1.27138e-07
-1.40516e-07
-0.000500278
-2.50518e-07
-7.7177e-07
9.90484e-07
-1.4658e-07
-5.92014e-08
-1.34226e-07
-8.12931e-07
-4.12085e-07
1.41909e-08
-2.94813e-07
-9.66026e-08
9.90732e-08
-6.37031e-08
-5.22406e-08
-8.49798e-08
-0.00239519
-0.000831076
4.19757e-07
-3.55659e-07
-8.29195e-08
1.64636e-07
-8.19701e-08
-2.01812e-05
-0.00160368
-1.10091e-06
-7.11285e-08
-4.33003e-08
-3.23856e-07
-9.11081e-08
-5.41803e-08
-0.00123136
-6.02707e-05
-0.000893959
-2.09821e-07
-5.06918e-07
-0.00363368
1.81134e-06
-9.90773e-08
0.0148753
0.00252314
-2.47681e-07
-1.82074e-07
-1.58491e-07
-8.1099e-08
7.35167e-05
-3.02879e-07
-1.98311e-07
-7.52901e-08
-0.000224911
-1.58631e-06
-6.10625e-08
-0.00203577
5.41463e-08
-1.28842e-05
-2.22957e-07
-0.00206786
-0.00187862
-8.08775e-07
0.000470486
7.96673e-08
-2.5862e-07
-3.51753e-07
-6.92736e-08
-9.84139e-08
3.84923e-09
-1.17617e-07
7.24946e-08
-1.22885e-07
6.3747e-08
2.30451e-05
4.85747e-07
-1.35151e-07
-7.05776e-07
-0.00169086
1.45205e-08
-3.98241e-08
4.62218e-06
-9.57464e-08
-2.16813e-06
-3.25283e-07
-3.45817e-07
-1.12965e-07
-1.45562e-07
-2.10042e-07
-5.4659e-08
-4.90091e-08
5.61174e-07
-2.41961e-07
2.24736e-07
0.000104872
6.92914e-08
-1.4846e-06
-3.28696e-08
8.01684e-08
-3.09427e-07
-5.123e-07
-4.36804e-08
-5.57204e-07
-6.68598e-08
2.21833e-07
-2.45826e-07
2.92652e-08
5.49729e-07
5.67296e-09
-2.2154e-07
-2.28854e-07
-3.0098e-07
2.82796e-07
-1.11102e-07
-3.62572e-07
3.4323e-09
-2.27088e-07
-3.70396e-08
1.75721e-08
7.23705e-09
-2.55826e-07
1.30216e-05
-1.08972e-06
-0.00171164
-6.65678e-08
-9.83798e-08
-6.88304e-09
-4.3052e-07
0.0216875
-8.49418e-08
-3.1327e-07
-2.51193e-07
-7.0112e-08
1.50618e-07
8.95314e-05
-1.7601e-07
-1.91785e-07
-7.47037e-07
-6.6273e-08
-8.38988e-08
1.85523e-06
-4.89178e-08
-8.08376e-07
1.03018e-07
5.27367e-07
1.17164e-07
-4.79216e-07
-3.81378e-07
-2.55282e-07
-3.856e-07
1.56819e-07
-0.00141889
-1.66396e-07
-2.49474e-07
0.0219185
-3.99629e-07
-2.74007e-07
-1.49161e-07
-2.19975e-07
0.0156969
-5.36978e-07
-9.10827e-07
-2.69524e-08
-3.26921e-07
5.81888e-08
5.31313e-08
-0.000225542
-1.26452e-07
2.28599e-07
-1.87211e-07
-2.74837e-07
5.87578e-07
-8.49306e-08
-1.00686e-07
-0.00250523
-3.71045e-07
0.00949633
4.62895e-07
2.4382e-08
9.18522e-08
-0.000198857
-3.78329e-07
-3.81554e-06
0.0025243
-6.35141e-07
-1.59501e-07
2.34261e-11
-1.60235e-07
2.22904e-07
-6.99687e-10
-1.66581e-07
7.78553e-11
-3.49655e-07
-2.59283e-07
-5.8708e-08
1.25407e-07
-1.79897e-07
-2.20271e-07
-1.82208e-07
-0.00110583
2.75243e-07
4.20969e-07
-2.01884e-07
-4.27743e-07
-2.12245e-07
-8.24757e-07
-3.82486e-08
0.000879231
6.23133e-07
-2.19467e-07
-2.17122e-07
-4.18845e-07
-2.25365e-08
-8.58965e-08
-0.000321617
-3.34066e-07
-3.99852e-08
-1.08513e-06
-1.15917e-07
-1.91469e-07
1.99098e-08
-9.79753e-07
-3.80562e-07
-2.34939e-07
-5.03298e-08
-1.62796e-07
-1.81658e-07
-1.68546e-07
0.00475749
-3.11055e-07
-2.21195e-07
-2.22489e-07
-5.31117e-07
-2.87588e-07
-3.96492e-07
-1.21674e-07
-1.45681e-05
1.34135e-07
-9.62182e-08
-2.20111e-07
-2.89164e-11
1.28333e-07
-1.7255e-06
-1.9652e-07
2.43915e-07
-0.000503496
-2.07941e-07
0.0261431
-0.00109772
-3.45403e-08
0.0131251
-0.00154354
-1.97739e-07
-2.83581e-06
3.6863e-07
3.43457e-07
-2.76015e-10
-2.17296e-07
-3.16007e-05
-7.777e-08
-1.10396e-07
3.89397e-05
-1.51504e-07
6.77222e-07
-1.00978e-07
-4.23837e-05
3.36911e-08
-2.16014e-07
-4.33796e-06
-3.59954e-07
-7.02623e-07
-1.23791e-07
-0.000135747
-4.95872e-08
-1.08208e-07
-7.45799e-09
2.02303e-07
-1.82994e-07
-2.17572e-07
0.00934057
-0.048225
-2.17453e-07
-0.00180706
-1.03824e-07
-1.11996e-07
-9.26291e-06
-5.4886e-07
0.00941559
-6.53044e-07
2.98321e-08
-3.40392e-07
-3.07847e-07
-3.68293e-07
-2.28266e-07
-2.20231e-07
-1.19803e-07
-0.00160863
-9.79388e-08
-0.000549106
-5.80843e-08
-2.42316e-07
5.83885e-08
1.69645e-05
-1.97786e-07
3.26131e-08
-5.57355e-08
-1.91316e-07
0.000140095
2.49196e-07
1.07665e-07
-1.58849e-07
-0.000130975
1.66401e-07
2.05348e-07
4.51791e-08
1.54588e-07
-0.000731922
0.012218
1.89818e-07
-3.5413e-09
1.34231e-07
8.78885e-08
2.90985e-07
2.03675e-08
-0.000247439
-2.96452e-08
1.74605e-08
-2.34881e-09
0.0035809
-1.96811e-07
-1.15338e-07
-2.47781e-07
0.00097458
6.76719e-07
5.46604e-08
-1.68677e-07
-1.51569e-06
-3.09695e-07
-6.94505e-08
-9.59386e-08
-7.90153e-08
-3.41077e-07
-4.80201e-08
-2.25628e-07
-1.74575e-07
-3.50966e-07
-2.10767e-07
-0.00117443
-3.28788e-07
-3.44613e-07
-1.773e-07
-2.61883e-07
-1.56216e-07
2.51421e-07
-2.57155e-07
-4.80088e-05
-8.63413e-08
-0.00202948
-1.16098e-07
-2.49473e-08
4.54036e-08
-4.99655e-07
-6.13199e-07
-1.27659e-08
1.86674e-07
-3.82576e-08
-7.70662e-08
0.00699319
-3.89867e-08
-1.56608e-07
6.60122e-06
6.60415e-07
-1.3099e-07
4.43261e-08
-4.9977e-07
-7.5745e-08
3.51647e-07
3.59477e-05
-0.000433244
-7.99075e-08
-1.84365e-07
3.66336e-07
5.5362e-07
-1.8554e-07
-1.60567e-07
0.000349096
-1.42765e-06
-5.15822e-06
-9.6575e-08
-4.86091e-07
-6.13659e-07
-3.63841e-07
-0.00398035
-2.63396e-07
-5.19967e-08
1.38207e-07
-9.40553e-08
-3.08546e-07
0.00267968
2.21304e-07
-1.8299e-07
-8.05358e-05
6.95825e-06
-3.13208e-06
-5.93877e-08
2.91645e-07
1.00347e-07
4.10504e-07
-3.12712e-07
-0.0024845
-0.00176891
-1.65182e-07
5.20956e-08
-9.80249e-08
-5.23431e-08
-1.85253e-07
-1.74499e-07
-0.00161063
-4.01649e-07
4.4664e-07
-3.76604e-07
8.25375e-08
0.000129809
-1.51389e-07
-1.35033e-06
-1.57061e-07
-3.53329e-10
-1.21304e-08
-2.47284e-07
1.1828e-06
-1.32608e-07
-8.60356e-08
-3.92717e-07
4.93895e-07
-2.56895e-07
-3.19739e-08
-1.85551e-07
-1.60138e-07
5.85905e-08
-1.74387e-07
-2.05511e-07
-9.91913e-08
-2.24671e-07
-8.44734e-08
3.86062e-08
-1.70973e-07
-1.45856e-06
1.7874e-07
6.68089e-08
-3.84346e-06
-1.94457e-07
-3.47384e-07
4.77462e-08
-8.19165e-08
-0.000156302
-2.51197e-07
2.10395e-07
-2.17592e-06
-5.01678e-07
-1.49461e-07
-1.28714e-07
1.41812e-07
-8.38714e-11
-5.6267e-08
-2.76381e-07
-2.57763e-05
-1.00817e-07
1.64541e-07
6.53122e-08
-1.92728e-07
-8.30315e-08
9.53214e-08
2.32942e-07
1.08676e-07
5.79065e-07
-7.76155e-08
-2.72269e-07
3.01906e-07
-4.85636e-08
-3.05948e-07
-3.49458e-07
-0.000297039
5.20753e-09
1.36492e-06
9.64232e-09
6.68323e-08
-1.16364e-07
2.04316e-07
-1.70322e-07
-1.99908e-07
-1.57276e-07
-3.48262e-06
-1.75554e-08
0.0166712
-6.99245e-08
-1.68652e-07
2.9056e-07
-3.24059e-07
-4.62177e-07
-7.0657e-08
3.06529e-08
-8.00826e-08
0.00101798
-0.000103132
1.88378e-07
-1.24999e-07
-2.31254e-07
-6.02211e-08
-4.96835e-07
-8.00497e-08
-7.04056e-08
-8.57931e-08
-0.00280861
4.76542e-09
-0.00256554
-1.98766e-07
-6.39974e-08
8.95688e-09
1.85976e-08
1.62469e-08
1.38783e-06
-7.64201e-07
-2.57662e-07
-8.74229e-07
-7.37438e-08
-8.36867e-08
2.22065e-07
-0.00609227
-2.02334e-07
-1.18498e-07
5.63652e-07
-1.77066e-07
0.00230578
-4.10166e-07
-4.21253e-07
-1.93685e-08
-6.71846e-08
-0.000254239
-4.38006e-07
-0.00518939
1.12566e-07
-0.00198462
0.00030272
0.000258092
1.42173e-06
-5.32357e-07
-1.39001e-06
8.55349e-09
-3.51563e-07
9.22391e-08
-1.01053e-07
-0.0003232
-2.31024e-07
-6.29655e-08
-0.00472411
-4.18615e-07
-3.16104e-07
-7.48327e-08
-1.38461e-07
-4.49071e-07
-3.92719e-07
-2.95352e-07
0.00233831
-3.04527e-07
-3.67744e-07
-0.00122741
-0.000612595
-1.86497e-07
5.96837e-08
8.9587e-10
1.68805e-07
-6.41184e-06
-4.11583e-07
-3.11179e-07
-3.70055e-08
-4.60232e-07
9.04014e-08
-5.13045e-08
8.02614e-10
4.04206e-07
-2.08647e-07
-0.00379788
8.77984e-08
-3.529e-07
-7.39048e-08
8.24275e-08
7.95985e-07
-5.31162e-08
-6.03356e-08
-0.00018714
-0.00412162
-1.40335e-07
3.59734e-07
0.00680411
-0.000858457
2.26242e-08
-5.52819e-07
0.00326446
-1.05084e-06
-4.50613e-08
-3.56304e-07
-1.75708e-07
3.50018e-07
-1.841e-06
1.8494e-07
-5.53654e-07
-8.8574e-08
-0.0021805
6.45352e-06
1.1594e-07
-8.52789e-08
4.84873e-08
4.50532e-07
-1.2742e-07
-1.61072e-07
-0.00251494
-0.00220773
0.00111776
-3.57545e-07
-5.67821e-07
6.82662e-09
-1.12609e-07
7.48583e-08
1.96148e-07
-4.23268e-06
-5.59784e-08
7.38982e-08
-5.40321e-07
-1.84367e-07
-1.53809e-07
1.56304e-07
4.66125e-07
-3.68084e-08
-2.39095e-07
-4.94508e-07
1.0074e-07
-1.29981e-09
-2.48001e-07
-3.53652e-08
-7.70596e-07
2.61444e-07
-3.70501e-07
0.000422186
-0.00103103
-6.29362e-08
-0.000233329
0.00046329
-4.44148e-07
-1.90746e-07
-1.37166e-07
-5.06697e-08
-0.000457792
6.24313e-08
-7.30988e-08
-1.10571e-07
-0.000972575
-3.73698e-08
-3.24409e-07
1.02143e-07
9.45234e-08
-2.58885e-07
-3.33946e-07
-3.49622e-07
5.79315e-07
-1.4916e-07
1.9488e-07
1.35411e-07
-3.54549e-06
-2.45363e-07
-4.60106e-08
-6.88568e-08
-2.06126e-07
-1.07961e-06
1.27509e-07
-2.19272e-07
-4.73029e-08
2.7696e-07
2.3311e-06
-4.5892e-11
4.25425e-06
-1.18952e-07
-0.00112258
-2.94326e-07
-1.85572e-07
6.11873e-07
-3.46251e-07
-9.92867e-08
-1.91889e-07
-0.00253287
0.0134302
4.12701e-08
-2.62899e-07
-0.000656582
2.24624e-07
-1.33671e-07
5.60813e-08
-6.15272e-08
-3.99678e-07
8.71065e-12
-1.04805e-10
-9.25464e-08
-1.04845e-07
-3.48319e-07
-1.38074e-07
-8.01946e-08
-0.00153309
7.53728e-08
-1.05446e-06
2.11602e-07
-3.3174e-07
2.55703e-08
-0.00415764
2.33752e-07
-0.00352375
-7.35174e-09
4.48564e-07
-1.17569e-08
-6.00228e-08
-4.37634e-07
-1.45375e-06
-6.95977e-08
6.87898e-07
-0.00142187
-1.083e-07
-0.00021325
4.8007e-07
9.98037e-08
-2.98254e-08
6.64036e-08
-0.00366013
-3.02056e-08
-1.19837e-07
-3.71272e-08
6.10146e-08
-1.18512e-07
-1.15201e-07
-9.38591e-08
-8.34315e-08
-2.46654e-06
-6.03767e-07
-1.55884e-07
1.89675e-07
-3.69837e-07
-4.37091e-07
-5.0689e-08
-1.30004e-07
2.77991e-07
6.41995e-07
-1.06637e-07
-1.63888e-07
-1.43479e-07
-2.67468e-09
-0.00137436
-6.65089e-08
0.000208004
-8.98394e-08
-0.00207217
-2.48856e-07
2.9413e-07
-0.000106864
-5.79463e-08
-4.65549e-06
0.00160345
-1.25182e-07
-8.96095e-08
-4.03356e-07
-1.87383e-07
-1.01047e-06
2.0969e-08
-0.00177101
6.03771e-09
0.00246421
0.0133345
6.39416e-07
-1.7022e-07
-0.000383477
-0.00111928
-5.23513e-08
1.18973e-07
4.53903e-07
2.24794e-07
-6.18478e-08
-2.50726e-08
-4.30233e-08
-4.13158e-05
1.5134e-08
-2.74206e-08
-1.11027e-07
-8.27878e-05
4.16176e-08
-2.16314e-07
-5.96654e-08
-6.19469e-07
-1.10699e-07
-1.30024e-07
-0.0015454
-1.98144e-07
-2.1738e-07
-4.09442e-05
-2.20955e-07
-2.84864e-07
-0.000129611
0.0052028
0.000151125
-3.05172e-07
-2.41157e-07
4.61374e-05
5.42695e-08
1.51763e-07
1.44801e-07
5.56101e-07
3.20718e-07
2.13682e-07
-3.99281e-09
-1.05803e-07
3.06711e-07
-2.4194e-07
-2.74336e-07
1.20404e-07
2.27533e-07
-1.33874e-07
7.83714e-08
-1.33901e-06
-2.09553e-07
-1.33232e-07
2.88417e-07
-6.55907e-09
1.77458e-07
-3.62569e-08
-0.00256541
2.94732e-07
-1.97054e-07
-2.50724e-07
-5.45273e-08
-0.00307056
3.60289e-08
1.65876e-07
-6.74592e-08
-3.08423e-07
-0.00281652
6.25376e-07
-5.41843e-07
1.16536e-07
-7.0152e-08
-1.39498e-07
-1.65166e-07
-1.71919e-07
-2.77026e-07
2.4703e-07
-9.24538e-09
-2.02061e-07
0.0261852
-2.80806e-07
-1.47676e-07
-1.5545e-07
-0.00430016
-4.00895e-08
-1.89361e-06
-2.85664e-07
1.56192e-05
-3.12927e-08
-4.54388e-07
2.6097e-07
-3.72593e-07
-6.00771e-07
-1.77463e-07
3.81033e-07
1.99708e-08
1.20871e-06
-1.46214e-07
0.00249131
-1.65049e-07
8.38965e-08
-7.63184e-08
-1.70287e-07
-3.25275e-07
0.0218398
-2.54966e-07
-2.15917e-07
3.64051e-08
-1.61817e-06
-0.00203157
1.22286e-07
-3.84271e-07
-6.80537e-07
2.09932e-08
3.42225e-07
1.11089e-07
-7.0101e-07
-4.32869e-07
-2.52286e-08
-0.000201759
-2.66411e-07
3.73903e-07
0.000703066
-3.6706e-07
8.0949e-07
5.55449e-09
-1.92731e-07
-2.48442e-08
-3.57061e-07
-1.61235e-07
-3.61415e-07
-9.88507e-08
-0.00328578
-2.60797e-07
-2.26045e-07
-1.33157e-07
-2.71821e-07
-2.63917e-05
-0.00422668
-1.15602e-07
-4.04409e-08
-3.98e-06
-1.05517e-07
0.00268079
4.92279e-07
-2.63367e-07
-5.10747e-08
-0.000121035
-6.11755e-08
-2.35948e-07
-1.67588e-07
3.00489e-07
0.00134427
-2.20929e-07
-1.74497e-07
-2.18259e-07
-1.12966e-07
-2.01496e-07
-3.23849e-07
-1.55917e-07
-9.30555e-08
-1.05599e-07
-0.00315585
-0.00138666
-7.59744e-07
7.36581e-09
2.07724e-07
0.00474187
-2.14249e-07
0.000153638
1.61667e-08
-1.39239e-07
-6.03793e-07
-7.96931e-08
8.75387e-08
8.22643e-08
3.45426e-07
-1.41181e-07
0.00351684
-1.05112e-06
9.68678e-08
3.38043e-07
2.13246e-07
1.51273e-08
-2.30771e-07
2.63899e-08
-2.64797e-07
-1.72029e-07
-4.07715e-08
4.83998e-07
8.55004e-08
6.68295e-08
-3.81094e-08
1.59116e-07
-4.68643e-07
-1.11265e-07
3.3368e-06
-2.33957e-08
2.68908e-08
-3.40569e-07
-1.55239e-08
-1.01726e-07
1.04808e-07
3.43643e-07
-5.89953e-07
-2.04335e-07
-9.28341e-08
-7.53489e-08
-4.24973e-08
-0.000113287
-9.12883e-07
-9.39357e-08
-0.00035001
5.31934e-08
3.52048e-07
-5.65513e-07
-4.97858e-09
8.92718e-07
-9.04622e-05
4.66759e-07
-1.18365e-06
2.98742e-07
-3.60171e-07
-1.17207e-07
-8.28525e-08
9.21853e-08
-1.89964e-07
-9.13736e-07
-3.44755e-08
-3.54409e-07
-3.62829e-08
-1.25895e-07
-4.0251e-07
4.35143e-07
-1.22683e-07
-9.92175e-09
-5.74946e-08
-3.50355e-05
-4.24849e-07
3.04627e-07
-0.00194302
-1.14001e-07
9.25983e-08
4.7293e-07
1.43815e-07
-3.41666e-08
-0.00633144
-2.145e-07
-2.56901e-07
-3.66006e-07
-1.0549e-07
2.09155e-07
-4.20891e-08
1.1161e-07
0.00374222
1.33313e-07
-1.939e-07
-6.23042e-08
-2.37171e-07
-1.89885e-08
-5.85728e-08
-0.00293069
-2.35631e-07
-3.5915e-07
-2.17334e-07
-7.22068e-07
2.86312e-08
-2.31887e-07
7.56031e-08
5.79305e-09
-4.74104e-08
-5.48061e-07
1.62614e-11
3.30228e-07
-4.65034e-07
-1.19689e-07
-1.21494e-07
-3.30191e-07
-4.52302e-08
-1.48901e-07
-6.26393e-07
-1.16708e-07
-6.63118e-08
-1.46273e-07
-0.0028868
1.07126e-08
-3.74033e-07
2.65589e-07
-6.43409e-08
-9.86983e-08
3.33288e-08
-0.000118435
-0.00127161
0.0121968
-1.23891e-07
-2.61955e-08
3.59846e-08
-3.70118e-07
-9.88646e-08
-5.04079e-08
-0.000114594
-3.54335e-07
-0.00225107
-5.66907e-07
-4.23282e-06
-0.00018422
-8.83912e-08
-9.93629e-08
-4.13613e-07
-4.77247e-08
-0.00265378
-8.41413e-08
-4.04427e-08
-2.69803e-07
-2.81831e-07
4.92204e-07
-0.00250291
-0.00363497
1.39051e-07
-0.000240245
-2.53806e-06
-2.5868e-06
-3.42837e-07
-1.00286e-07
-2.64569e-07
-0.00248318
-1.87534e-07
0.0094222
-0.00106378
1.31077e-07
-3.01143e-07
-7.96884e-08
-9.57912e-08
4.23489e-08
-2.46341e-07
-2.30113e-06
-1.76956e-08
3.79984e-07
-5.40992e-08
-1.74406e-07
6.89611e-08
-2.39736e-07
-2.32682e-07
-1.55557e-07
-2.01033e-05
-3.17663e-07
-2.28757e-08
0.00640527
-8.83045e-08
1.97544e-07
-4.71661e-08
-4.14169e-06
-5.22261e-08
8.01773e-08
-7.954e-07
-8.5328e-07
4.01039e-08
1.15508e-08
2.58361e-06
-5.10546e-07
-0.00202363
-2.23495e-07
-3.05255e-06
-0.00490485
-0.00359673
1.90595e-07
-3.93914e-07
-3.42125e-07
-8.6786e-08
-1.72417e-07
-1.64533e-07
-0.00381677
-3.66114e-07
-6.66126e-07
-1.33491e-07
2.0018e-07
-0.000263425
-3.54047e-06
1.34843e-09
1.23375e-07
-0.00111824
-4.47143e-08
-1.12044e-07
-1.82518e-07
-1.00513e-07
2.48503e-07
-8.5922e-08
-3.18091e-07
2.84998e-07
7.8887e-09
3.47702e-07
0.00855359
-9.55445e-08
-3.15591e-07
0.00207912
-3.80858e-07
-6.40442e-08
-3.04837e-08
7.05262e-08
1.40477e-08
-7.2203e-07
-3.27063e-08
-2.92725e-07
-1.55945e-07
1.31176e-07
2.23113e-07
-7.99163e-08
-4.00159e-07
-1.4896e-08
2.55377e-07
-6.44775e-08
-0.00417667
-0.00212137
-1.23657e-08
-0.00198814
-2.89619e-08
-2.31183e-07
3.97751e-07
3.23022e-07
-0.00042448
-4.1683e-07
-3.26489e-07
7.53358e-08
1.50876e-07
-2.87611e-07
-5.43192e-08
-1.81598e-06
3.09968e-07
-1.61362e-07
-3.56242e-07
0.00122305
-0.00146103
-4.06403e-07
-2.36816e-07
-2.34767e-06
-1.67095e-05
-1.90785e-07
0.00350149
-0.0042294
-6.51985e-08
-8.53251e-08
-1.35701e-07
-1.33186e-07
-0.000242348
4.20585e-07
-9.75624e-08
-8.1059e-07
-5.21951e-07
-1.1148e-07
-7.63828e-08
-1.15233e-07
-1.47528e-07
-2.48529e-07
-4.53017e-07
-6.95729e-07
-0.00100146
8.26139e-08
-1.72409e-07
-7.21611e-08
-4.59595e-07
2.03775e-08
-2.01137e-07
8.68586e-08
1.4064e-07
-3.35613e-07
-2.00479e-07
-6.63451e-08
-2.7116e-07
-0.000805337
-5.36149e-07
1.15191e-07
-5.71131e-07
-6.88351e-08
-2.52516e-07
-4.98617e-07
-4.00446e-07
9.93881e-08
-3.43804e-06
-0.0041119
-2.27016e-07
0.0173755
-0.00426982
-0.00163992
-5.29245e-09
-2.64797e-07
-6.89771e-07
-1.20414e-07
4.8207e-07
-1.5534e-07
-6.81616e-07
-4.01016e-07
-1.72123e-07
-1.83064e-07
0.00177504
-6.94562e-09
-0.000146533
5.54468e-07
-3.38754e-07
-2.11433e-07
-2.03475e-07
-2.23954e-07
4.83884e-07
1.27568e-09
-2.47786e-07
-7.976e-06
-1.61745e-07
-7.09543e-07
-0.000496649
-1.5894e-07
-3.4727e-07
1.42795e-07
6.56596e-06
-3.30068e-07
-7.6026e-08
-3.13932e-07
1.93969e-07
1.23437e-07
-1.42722e-07
-2.95617e-07
4.10498e-07
0.0137262
1.17715e-07
2.53538e-07
-6.00211e-06
-1.3424e-07
-1.25685e-07
-1.14145e-06
-2.8929e-07
-3.11624e-08
-9.87389e-06
-2.42058e-07
-8.11529e-05
-1.33803e-07
-9.58985e-08
-2.03951e-07
4.82299e-08
3.40074e-07
-8.27908e-08
-2.28389e-07
7.03243e-07
-0.000443601
8.31822e-08
0.00163189
-0.000446247
1.29769e-07
-0.000165635
-1.97945e-07
-5.54111e-07
-0.000121574
-2.72961e-07
-7.18144e-07
-1.38675e-07
-1.41177e-05
2.19362e-07
-1.95172e-06
3.38745e-07
-0.000356211
5.61224e-07
-0.00191034
-1.85753e-07
-1.96954e-06
6.98267e-08
-2.92461e-07
8.75681e-05
-2.167e-07
-7.08175e-05
-0.00461545
-3.37478e-05
0.00110045
-8.18915e-07
-0.00184007
-1.13629e-07
-4.00931e-08
-9.54187e-09
-3.32033e-07
0.0258541
-1.49219e-08
2.5277e-07
-1.01391e-07
-1.69609e-07
-1.44357e-07
-2.35763e-07
-3.52632e-07
-0.001113
0.00113737
-4.52882e-07
0.00107293
-2.46323e-08
-4.29867e-07
-2.43382e-07
-1.34117e-08
0.000889094
-1.86636e-08
-1.54488e-07
-4.4727e-06
1.49613e-07
-2.21602e-07
-2.56528e-07
-7.19699e-07
-7.42226e-07
3.46056e-08
8.84663e-09
3.56738e-07
-1.90449e-07
-2.60388e-07
-6.68237e-05
-3.92891e-07
2.23935e-07
-0.00544692
-6.41379e-06
2.40529e-07
1.13446e-07
-0.000293458
-3.32581e-08
-2.65762e-07
-8.06309e-08
-1.52662e-08
-2.66111e-07
3.6409e-07
-8.2512e-08
0.00981062
-4.21999e-08
-6.04082e-07
-7.14558e-07
9.10982e-07
4.80361e-07
3.80162e-07
-2.67996e-07
-0.00227613
-7.49808e-08
-1.66247e-06
2.54786e-07
5.35888e-07
7.83639e-07
-1.77381e-06
-5.72165e-08
2.18586e-07
-4.32581e-08
-1.41983e-07
-5.9893e-07
-6.61891e-07
-1.24154e-07
-6.36182e-11
1.35008e-07
-1.16453e-07
-4.21687e-07
-8.37283e-08
-2.73794e-07
-1.50047e-07
1.34237e-07
-0.00217393
-1.92483e-07
-0.00154844
-1.63503e-07
-1.094e-07
-4.25691e-07
-1.68228e-07
3.58837e-07
-7.87354e-07
-6.73249e-07
1.12248e-07
-4.46721e-07
-1.77658e-07
3.30132e-07
-4.08341e-07
-0.000595565
-0.00133681
-1.88606e-07
-4.22321e-09
7.03212e-09
-1.82934e-07
-7.24237e-07
-0.00207149
4.11184e-08
-5.2396e-06
1.68553e-07
-2.06559e-07
-1.89211e-07
-0.00308646
-7.16831e-09
-2.27853e-07
-1.33955e-07
8.01568e-09
-3.92389e-07
-7.3514e-09
-8.27397e-08
-2.04886e-07
-0.0191027
-7.37535e-08
-8.10858e-08
-1.16454e-07
-2.9476e-07
-6.3579e-07
0.00891124
-2.553e-07
-9.85975e-08
2.60686e-08
-3.55883e-07
-1.18709e-06
-9.14907e-08
-3.86707e-07
-5.83885e-09
-1.69676e-07
7.61507e-08
-3.63551e-07
2.50833e-07
-2.14822e-07
-2.03927e-08
-2.75052e-07
0.00365853
-0.000619739
-2.78478e-07
1.0736e-07
-0.000206613
-1.01202e-06
-6.57622e-07
1.52054e-07
-4.35183e-07
-2.10706e-07
-0.00408084
-1.42184e-07
-4.04447e-08
8.38869e-05
0.00593874
-2.37633e-07
-1.41748e-07
-5.31575e-07
-3.14665e-07
-0.00301221
-2.78307e-07
2.22224e-07
-2.68952e-07
-2.15687e-07
1.09544e-07
-2.06439e-08
2.28824e-07
2.13354e-07
-1.83902e-07
0.0510103
-5.41617e-08
-1.09466e-07
-2.3104e-07
1.23383e-07
3.3298e-08
3.91347e-07
-3.37122e-07
-1.1084e-07
3.16159e-07
3.27987e-07
-7.64966e-06
-3.44368e-07
-2.06058e-07
-2.46472e-07
-1.19143e-07
-2.45267e-07
-5.8212e-08
3.14452e-07
-8.1943e-07
-1.10372e-07
7.08918e-08
-7.48089e-08
-1.13589e-07
-7.04301e-08
-0.00263604
-4.63142e-07
-1.20113e-07
-9.87361e-08
-3.23812e-07
1.64888e-07
7.18268e-08
-9.82834e-08
-2.8715e-07
0.00666198
-4.78006e-05
-5.38083e-08
2.4148e-07
-3.51245e-07
-5.75288e-08
-6.6354e-08
-8.46607e-08
-4.07643e-08
-8.71506e-08
-2.73537e-07
-1.43433e-07
-3.31818e-07
-4.39814e-07
-2.57586e-05
-7.77617e-08
-2.01311e-08
-1.88675e-07
-0.00287111
5.36777e-07
-1.39636e-07
-0.00463852
-2.62692e-07
-8.36776e-08
1.47098e-06
-1.17985e-06
-0.00191334
1.48479e-08
-4.79289e-06
1.9215e-07
1.62599e-07
-0.000315068
-1.14244e-07
-1.26475e-05
4.49029e-07
-6.83609e-07
-0.00223238
-1.39388e-10
-3.92275e-07
-2.13728e-07
-2.49378e-06
-5.17342e-07
0.000198195
1.31032e-07
-0.000902621
-1.91905e-07
6.81199e-08
-1.71569e-06
-1.24631e-07
-4.27234e-07
-7.56849e-07
-1.22797e-07
1.21502e-07
3.83457e-07
-8.76389e-08
-6.64971e-07
-3.30025e-07
-1.09034e-06
0.000416997
4.11146e-06
-2.38631e-07
1.71337e-08
-0.00455349
-1.00607e-07
8.80596e-09
7.45595e-09
-0.00356842
-9.54343e-08
2.66551e-07
-2.47894e-07
-7.57838e-08
-3.35546e-07
-1.50736e-07
-1.00383e-07
-1.79481e-07
-1.98091e-07
-0.00118055
-0.0007907
4.33233e-07
-2.14806e-07
2.03289e-07
-9.00839e-07
-3.0384e-08
-2.15417e-07
-1.8242e-07
-2.74023e-07
-0.0345318
-3.78868e-09
2.96379e-08
-1.25711e-07
0.0164268
3.59686e-07
-5.58436e-08
-0.000678052
-0.000830434
-4.16833e-07
-1.74843e-07
-2.12864e-07
-6.56598e-07
-8.61689e-08
-5.7378e-08
-0.00449422
1.11505e-07
2.03843e-07
-2.03185e-07
5.95819e-07
7.64819e-08
-4.48412e-08
-6.72901e-08
-3.48789e-07
1.24418e-07
2.06383e-07
1.62685e-07
-3.24821e-07
3.90771e-07
-3.44873e-07
-6.60195e-07
-0.000747281
0.000877362
2.46448e-07
4.98249e-08
-1.14771e-07
8.57609e-08
-0.000775058
2.05692e-07
-2.84638e-07
-3.30114e-07
-5.32417e-08
-1.92588e-07
-3.00608e-07
-0.00194676
2.28253e-08
-0.00185655
3.02189e-08
1.59781e-07
-1.16485e-07
0.00365836
-1.84022e-07
-1.42455e-07
-0.00225053
2.59751e-07
-2.23116e-07
-0.000133924
-1.21429e-07
0.000503745
2.24086e-07
2.3129e-07
0.00310414
2.74281e-08
-3.45492e-07
1.29306e-07
0.000345973
1.73279e-07
4.00221e-07
-5.42865e-07
-4.60651e-08
-1.28328e-07
-4.63762e-07
-0.00282654
-4.08114e-07
-0.004693
0.00152232
-6.44185e-08
-2.60213e-07
1.64884e-07
-2.23442e-06
-6.25019e-08
-9.9578e-08
-2.19089e-07
2.60246e-07
5.25326e-07
-1.72912e-07
-2.08024e-07
-4.1549e-07
-1.90879e-07
0.000956048
-5.92004e-08
5.76246e-05
-1.79933e-07
8.81421e-07
7.73661e-08
2.06433e-07
1.52214e-07
-0.00375037
-0.00281498
-2.03607e-07
-2.09864e-07
-6.69539e-08
4.46117e-07
-9.31457e-10
3.05163e-07
-5.94912e-07
-1.52036e-07
-1.39565e-07
-0.000221284
-0.00245748
2.53468e-07
-2.82519e-07
-1.26797e-07
9.24721e-09
-7.79141e-08
2.93643e-07
0.0287115
-2.52503e-07
1.01904e-07
5.16536e-07
-0.00122074
-2.26167e-07
-0.00363717
-3.95252e-07
-1.00585e-06
-6.01606e-07
-0.0055253
-6.34196e-09
-3.33609e-08
-3.93345e-08
-4.11829e-07
3.66756e-07
-1.96994e-06
-3.0443e-07
-3.44508e-07
-0.000249764
3.17422e-07
-1.30369e-07
-3.80987e-08
-4.18394e-07
-1.64622e-06
-8.9926e-06
-5.95473e-07
3.87561e-07
-1.03676e-07
-3.26656e-07
0.000315547
4.17392e-06
6.33363e-08
5.27137e-08
1.68185e-07
-4.71805e-07
-0.00419555
-1.02114e-07
-0.00333947
-6.68493e-08
-3.22078e-08
-0.00115302
-1.18202e-07
-0.00453268
-0.00152429
-6.00383e-07
-1.21756e-07
-4.32624e-05
-2.32097e-07
-1.33374e-07
-3.04529e-07
-0.00195219
1.5979e-07
-9.57627e-07
-0.000153239
0.00178412
5.06507e-07
4.24584e-07
1.11911e-07
-9.81484e-07
0.000269545
-1.31895e-07
1.77242e-07
-0.00146843
-3.51302e-08
-6.01631e-08
-3.85509e-08
0.0190638
-0.00024744
-4.42694e-07
-2.37321e-07
2.01266e-07
-3.44087e-07
-7.76047e-05
-4.96482e-07
-2.83202e-07
0.00292654
-0.0024911
-4.92751e-07
-1.44067e-06
2.97044e-08
-0.00802902
-1.43442e-07
3.18772e-07
9.50778e-08
-1.91916e-06
-6.39907e-07
-1.88252e-07
-0.000178312
-0.00472546
6.86733e-08
-2.00964e-07
5.36652e-08
-8.8648e-08
-0.0198302
-1.32511e-06
-0.00408268
-7.44045e-07
-1.60847e-07
-4.17736e-07
-0.0032897
-7.03035e-07
-1.35907e-07
-5.1647e-07
-7.85802e-05
-0.000603397
-0.000389784
2.41964e-05
-0.00222851
-0.000277617
-1.00739e-07
-1.115e-07
-2.88269e-07
-4.29113e-07
0.000270758
-8.45878e-05
-1.71077e-07
0.00396215
-7.94171e-08
4.37465e-08
-1.71399e-07
5.1834e-08
4.26046e-08
-0.00282645
-2.15734e-07
3.31831e-05
-9.22874e-08
-7.6836e-06
-1.68596e-08
4.32112e-05
-0.000337311
-1.18777e-07
2.31464e-07
1.36982e-08
-1.16495e-07
1.18984e-07
-1.34097e-07
-4.18816e-07
-0.00213834
-2.08758e-08
2.04319e-07
-7.44054e-06
1.47888e-07
-0.00125616
1.11189e-07
-0.00183691
-7.26445e-10
1.07319e-07
-6.62556e-08
-1.63927e-07
2.56256e-07
1.04677e-08
-0.000849476
-7.78053e-08
7.30548e-07
-0.00571028
-2.49392e-07
-0.00410453
-2.63635e-07
-0.00473231
0.00521953
-0.00245602
-6.73605e-07
-5.98226e-08
-1.18888e-08
-0.00401427
-5.06251e-07
2.49054e-07
4.803e-08
5.80822e-07
-0.00326649
-4.30331e-08
-2.74418e-07
-3.07839e-07
-1.14301e-07
-0.00564737
-0.00249159
6.43271e-08
5.81274e-09
-0.00325873
-0.00378291
3.88904e-07
0.0224268
1.99465e-07
-0.00440927
-0.00365153
-4.41428e-07
-3.32074e-07
-8.6137e-07
-9.28372e-08
-0.00102579
-3.92216e-07
-2.71629e-07
-5.38515e-07
1.56962e-08
-0.00468817
-0.00263568
6.38846e-08
-1.65356e-08
-0.000973052
4.20823e-07
-0.000636222
-1.19181e-07
-2.46488e-07
2.56987e-07
-0.0015678
-4.67971e-07
-1.08945e-07
-0.00180221
-4.67747e-08
0.0148071
-0.00188687
-1.22588e-07
2.79706e-07
-9.57191e-07
8.10288e-08
-1.17503e-07
-5.35753e-09
-0.00103208
-3.78041e-08
-8.55961e-08
-3.135e-07
0.0035004
-2.49183e-07
-3.34943e-08
-2.01675e-07
-0.00158594
-2.56028e-07
-1.2511e-07
-1.7984e-07
-0.0012828
0.00644634
-1.67819e-07
-4.94231e-07
-5.00576e-07
-1.34982e-07
-6.1333e-09
-0.00215877
-1.3893e-07
-5.66822e-07
1.59342e-07
-7.70061e-06
2.63039e-07
-0.00287127
0.00700915
-1.60462e-07
-0.00136114
-0.00168623
-1.61339e-07
-1.11747e-07
-0.0135252
1.70923e-07
-0.000214459
-2.96702e-07
-8.18628e-06
3.12746e-08
-3.14938e-08
-1.93536e-07
-1.01784e-07
-3.22269e-07
-1.66229e-07
1.0698e-07
-7.98325e-06
-3.77122e-07
-0.00159202
-0.00100925
-2.07411e-08
3.14976e-07
-1.91043e-08
-0.00231708
-1.07841e-07
1.57382e-07
1.66126e-07
0.00241723
0.00341666
-0.00174766
-0.00117384
-2.36267e-07
-2.30092e-07
1.08522e-07
-3.71857e-07
-2.43177e-07
-0.000313375
-1.67368e-07
-1.54697e-07
0.000301816
-3.93761e-07
-3.8452e-08
-4.20814e-07
0.000196923
-8.27593e-07
-1.09596e-07
1.2121e-09
-7.28717e-06
-2.18436e-05
0.00502067
-1.03174e-05
-2.30738e-07
-1.44608e-07
-6.23883e-08
-9.42025e-09
-2.79803e-07
-2.02643e-07
-1.6659e-08
1.58503e-06
-3.20302e-07
4.05736e-07
-2.56575e-07
-1.5584e-07
-2.08773e-07
-1.10661e-07
2.35198e-08
-4.13824e-08
-2.52805e-07
-6.82181e-08
-4.15345e-07
-8.28465e-08
-1.00364e-07
3.63475e-07
-4.12001e-06
-1.03266e-07
-8.56306e-08
-0.000168867
-0.0108196
-0.00137147
-0.00197517
-6.21842e-07
1.50222e-08
-1.95738e-07
-0.00587747
-2.17637e-07
-2.44205e-08
-3.71484e-07
-0.00150076
-1.04674e-07
-2.80671e-07
4.78458e-05
-2.6254e-07
-8.55278e-08
-5.72911e-08
-1.90929e-07
-2.17721e-08
1.23348e-07
-2.36255e-08
6.26221e-08
-1.01566e-07
-4.64028e-08
-1.79217e-07
6.692e-08
0.000137665
-2.20332e-07
-1.82053e-07
-4.13208e-07
-1.16558e-06
-1.74447e-07
-3.11135e-07
-3.62238e-07
-0.00140197
1.83538e-08
-1.46303e-07
-1.8389e-07
7.03866e-08
-4.12928e-07
-8.47705e-09
-4.35712e-08
-2.48615e-05
-9.83212e-08
8.55441e-07
-4.77324e-07
-1.19313e-08
-1.44672e-07
-3.49164e-08
-1.56821e-07
-3.24794e-07
-1.5022e-07
-1.39221e-07
-2.54142e-07
-0.00540602
-9.15881e-09
-2.88416e-07
-1.1588e-07
-0.0039563
-0.0035823
-2.43021e-07
-3.19058e-09
-3.46639e-07
5.73149e-08
-7.75045e-07
1.7419e-08
-0.00354992
8.51881e-09
-1.17218e-07
9.06454e-08
-8.39189e-08
-1.30219e-06
-1.10797e-07
0.00360392
-8.2678e-08
6.23098e-07
-3.17727e-08
-1.9274e-07
0.0157164
-0.00484861
-1.56089e-06
2.0466e-07
-2.55666e-07
-1.31167e-08
1.3076e-07
0.00482954
-4.69837e-07
-1.12221e-08
1.09834e-07
6.19997e-09
-6.19673e-07
-2.37909e-06
-2.39019e-08
-0.00510799
-9.00178e-07
-1.27221e-06
-1.86165e-07
-2.61252e-07
-3.58263e-08
-1.52777e-07
-1.9495e-06
-1.25198e-07
-1.06505e-07
-0.00080221
-1.73638e-07
-1.9191e-07
1.9497e-09
-0.00227199
-6.78642e-07
0.00253564
-9.46532e-08
-0.00502598
-3.10998e-07
1.29191e-07
-1.12533e-07
-2.73452e-08
-2.75024e-07
-1.14808e-06
-4.57007e-07
-2.02823e-07
2.19285e-07
-2.04681e-07
-1.26279e-07
0.000203986
2.02058e-08
-3.95479e-07
2.50402e-07
-1.1627e-06
-6.42405e-07
-3.17228e-08
-2.18256e-07
-0.00398619
0.000838002