/*--------------------------------*- C++ -*----------------------------------*\
| =========                 |                                                 |
| \\      /  F ield         | OpenFOAM: The Open Source CFD Toolbox           |
|  \\    /   O peration     | Version:  v2012                                 |
|   \\  /    A nd           | Website:  www.openfoam.com                      |
|    \\/     M anipulation  |                                                 |
\*---------------------------------------------------------------------------*/
FoamFile
{
    version     2.0;
    format      ascii;
    class       volVectorField;
    location    "550";
    object      cellDisplacement;
}
// * * * * * * * * * * * * * * * * * * * * * * * * * * * * * * * * * * * * * //

dimensions      [0 1 0 0 0 0 0];


internalField   nonuniform List<vector> 
9793
(
(0 0.000828943 0)
(0 6.34783e-05 0)
(0 0.00084534 0)
(0 0.000325472 0)
(0 0.000645422 0)
(0 0.00132824 0)
(0 0.000142929 0)
(0 0.00093369 0)
(0 0.000822562 0)
(0 0.000655072 0)
(0 0.000484835 0)
(0 0.00142198 0)
(0 0.000295401 0)
(0 0.000681837 0)
(0 2.5764e-05 0)
(0 0.000647914 0)
(0 0.0012335 0)
(0 0.00125283 0)
(0 0.000957723 0)
(0 0.000669826 0)
(0 0.00124783 0)
(0 0.00102684 0)
(0 0.0012398 0)
(0 9.23631e-06 0)
(0 0.00146372 0)
(0 0.000241207 0)
(0 0.000632715 0)
(0 0.00117933 0)
(0 0.000666039 0)
(0 0.000827784 0)
(0 0.00141563 0)
(0 0.00122749 0)
(0 0.00161363 0)
(0 7.08961e-05 0)
(0 0.000679456 0)
(0 0.00122147 0)
(0 0.000101099 0)
(0 0.00104093 0)
(0 0.00112152 0)
(0 0.000171593 0)
(0 0.00142355 0)
(0 4.83803e-05 0)
(0 0.000152917 0)
(0 0.00014296 0)
(0 0.00012115 0)
(0 0.000207061 0)
(0 0.000660263 0)
(0 0.00102485 0)
(0 0.001551 0)
(0 0.000368083 0)
(0 0.00067292 0)
(0 0.000513735 0)
(0 0.00129443 0)
(0 0.000929015 0)
(0 0.000575375 0)
(0 0.00132115 0)
(0 0.000711064 0)
(0 0.000363478 0)
(0 0.00157852 0)
(0 0.00109173 0)
(0 0.000114032 0)
(0 0.00125156 0)
(0 0.00156562 0)
(0 0.000130493 0)
(0 0.000580449 0)
(0 0.00160164 0)
(0 0.00157221 0)
(0 0.00157291 0)
(0 0.00142866 0)
(0 0.000503274 0)
(0 0.000592716 0)
(0 5.36176e-06 0)
(0 0.00101318 0)
(0 0.00010189 0)
(0 0.000683213 0)
(0 0.00158594 0)
(0 0.000736369 0)
(0 3.80764e-05 0)
(0 0.00135825 0)
(0 0.00123579 0)
(0 0.00161019 0)
(0 0.00137108 0)
(0 5.07271e-05 0)
(0 0.00106224 0)
(0 0.00141505 0)
(0 0.00103941 0)
(0 0.00125684 0)
(0 0.00076094 0)
(0 0.00124634 0)
(0 0.00139928 0)
(0 8.79594e-05 0)
(0 0.000549948 0)
(0 0.000865891 0)
(0 0.00120992 0)
(0 0.00124236 0)
(0 0.00107758 0)
(0 0.00131287 0)
(0 6.38373e-05 0)
(0 0.000846416 0)
(0 0.000722089 0)
(0 0.000710267 0)
(0 0.00139528 0)
(0 0.000860384 0)
(0 0.00083579 0)
(0 4.70436e-05 0)
(0 0.00142103 0)
(0 0.00123482 0)
(0 0.000122682 0)
(0 0.00128478 0)
(0 0.000994568 0)
(0 5.61688e-06 0)
(0 0.00132418 0)
(0 0.000644492 0)
(0 0.00126914 0)
(0 0.000530043 0)
(0 0.000729485 0)
(0 0.00158657 0)
(0 0.000700553 0)
(0 0.00139068 0)
(0 0.0011959 0)
(0 0.00101134 0)
(0 2.093e-06 0)
(0 0.000809996 0)
(0 0.00133983 0)
(0 0.000914828 0)
(0 0.00126711 0)
(0 0.000442962 0)
(0 0.00105402 0)
(0 0.00137755 0)
(0 0.000869208 0)
(0 1.07599e-05 0)
(0 0.000754965 0)
(0 0.000893871 0)
(0 0.00142737 0)
(0 0.000822364 0)
(0 0.0007844 0)
(0 0.000107011 0)
(0 0.000145799 0)
(0 0.000627495 0)
(0 0.000133288 0)
(0 0.000795955 0)
(0 0.00145495 0)
(0 0.000224876 0)
(0 0.000724781 0)
(0 0.000704605 0)
(0 0.000736472 0)
(0 2.51639e-05 0)
(0 0.000736653 0)
(0 0.000839589 0)
(0 0.000527972 0)
(0 0.000800921 0)
(0 1.19309e-05 0)
(0 0.000788858 0)
(0 0.0006796 0)
(0 0.000818841 0)
(0 3.9202e-06 0)
(0 6.27099e-05 0)
(0 0.00144181 0)
(0 0.000718929 0)
(0 0.00022413 0)
(0 0.000969167 0)
(0 0.0011714 0)
(0 0.000569091 0)
(0 0.00099759 0)
(0 6.76369e-05 0)
(0 0.00123102 0)
(0 0.00103936 0)
(0 0.000862417 0)
(0 0.000611433 0)
(0 0.00132883 0)
(0 0.00126829 0)
(0 0.0017103 0)
(0 6.19023e-05 0)
(0 0.00171137 0)
(0 0.000899754 0)
(0 0.000972084 0)
(0 0.000777376 0)
(0 3.3724e-05 0)
(0 0.000959018 0)
(0 0.000687968 0)
(0 0.000244585 0)
(0 0.000752522 0)
(0 0.000729693 0)
(0 0.0014504 0)
(0 0.00161007 0)
(0 0.000990245 0)
(0 0.000359968 0)
(0 0.000960521 0)
(0 0.000832122 0)
(0 0.000580738 0)
(0 0.000887521 0)
(0 0.000398091 0)
(0 0.00156307 0)
(0 0.00130529 0)
(0 0.00156632 0)
(0 0.000694386 0)
(0 0.000841708 0)
(0 0.00129451 0)
(0 0.00069709 0)
(0 0.000118185 0)
(0 0.000826709 0)
(0 0.00103655 0)
(0 0.00130707 0)
(0 0.000832261 0)
(0 0.000799804 0)
(0 3.61882e-05 0)
(0 0.00123601 0)
(0 0.000672859 0)
(0 0.00141109 0)
(0 0.000866616 0)
(0 0.000721172 0)
(0 0.00156632 0)
(0 0.00154537 0)
(0 0.000924473 0)
(0 0.0008394 0)
(0 6.19784e-05 0)
(0 0.00135641 0)
(0 0.00161637 0)
(0 4.51909e-05 0)
(0 0.00150791 0)
(0 0.000742294 0)
(0 0.000775413 0)
(0 0.000902207 0)
(0 0.000368004 0)
(0 0.00106528 0)
(0 0.0010105 0)
(0 0.001314 0)
(0 0.00080462 0)
(0 0.000723928 0)
(0 0.000540473 0)
(0 1.64801e-05 0)
(0 1.57588e-05 0)
(0 0.000739939 0)
(0 9.76906e-05 0)
(0 0.000457265 0)
(0 0.00151512 0)
(0 0.000613763 0)
(0 0.00120983 0)
(0 0.00132564 0)
(0 0.00136526 0)
(0 0.00141591 0)
(0 0.000708227 0)
(0 0.00119787 0)
(0 0.00161333 0)
(0 0.0011591 0)
(0 0.000832776 0)
(0 0.000897828 0)
(0 0.00144341 0)
(0 0.000853013 0)
(0 8.67583e-05 0)
(0 0.00105601 0)
(0 0.000789625 0)
(0 0.000549294 0)
(0 0.000448905 0)
(0 0.00112217 0)
(0 0.00107911 0)
(0 0.00123464 0)
(0 0.000786798 0)
(0 0.0013896 0)
(0 0.00067168 0)
(0 0.00107978 0)
(0 0.00118113 0)
(0 0.000566226 0)
(0 6.52162e-05 0)
(0 0.000847267 0)
(0 2.65924e-05 0)
(0 3.48204e-05 0)
(0 0.000735276 0)
(0 0.0010512 0)
(0 0.00123517 0)
(0 0.000683981 0)
(0 0.00048328 0)
(0 0.000995029 0)
(0 0.000774499 0)
(0 9.72835e-05 0)
(0 8.00789e-05 0)
(0 0.000858369 0)
(0 0.001292 0)
(0 0.000207567 0)
(0 0.000435703 0)
(0 0.00142862 0)
(0 3.59824e-05 0)
(0 9.05644e-05 0)
(0 0.000174009 0)
(0 0.000434481 0)
(0 0.000785304 0)
(0 0.00106577 0)
(0 0.000830141 0)
(0 0.000221039 0)
(0 0.000807352 0)
(0 0.000632342 0)
(0 0.00159528 0)
(0 0.00127747 0)
(0 0.000100204 0)
(0 1.49656e-05 0)
(0 0.00142643 0)
(0 0.0009461 0)
(0 0.000822736 0)
(0 0.000280381 0)
(0 0.00103931 0)
(0 0.000825867 0)
(0 0.00167632 0)
(0 0.00159228 0)
(0 9.13194e-05 0)
(0 0.000124843 0)
(0 0.000713608 0)
(0 0.000993647 0)
(0 0.000922855 0)
(0 0.00141385 0)
(0 0.00167201 0)
(0 0.000126264 0)
(0 0.000697176 0)
(0 0.000929442 0)
(0 0.00110855 0)
(0 0.00100576 0)
(0 0.00138062 0)
(0 0.00105003 0)
(0 0.00126404 0)
(0 0.000977529 0)
(0 0.000852748 0)
(0 0.00116566 0)
(0 9.40241e-05 0)
(0 0.000893645 0)
(0 8.65666e-05 0)
(0 4.12272e-05 0)
(0 0.000252428 0)
(0 0.000962406 0)
(0 0.00156631 0)
(0 0.000704693 0)
(0 0.00051772 0)
(0 0.000657081 0)
(0 0.000721467 0)
(0 0.00137505 0)
(0 0.0014055 0)
(0 0.000482566 0)
(0 0.000855519 0)
(0 0.00013763 0)
(0 0.000822653 0)
(0 0.00010907 0)
(0 0.00120557 0)
(0 0.000820537 0)
(0 0.000986454 0)
(0 0.00113759 0)
(0 0.00105515 0)
(0 0.00136748 0)
(0 0.000635795 0)
(0 2.88578e-05 0)
(0 0.0010241 0)
(0 0.000895815 0)
(0 0.000817489 0)
(0 0.000930248 0)
(0 0.000888008 0)
(0 0.00110125 0)
(0 0.0013919 0)
(0 0.00169915 0)
(0 0.000921609 0)
(0 0.00118273 0)
(0 3.02123e-05 0)
(0 0.000620834 0)
(0 0.000596963 0)
(0 0.000376375 0)
(0 0.000612217 0)
(0 0.00103543 0)
(0 0.00146865 0)
(0 0.000855668 0)
(0 0.000113285 0)
(0 0.00108795 0)
(0 0.00135724 0)
(0 8.93565e-05 0)
(0 0.00158441 0)
(0 0.00140869 0)
(0 0.00088872 0)
(0 0.000877213 0)
(0 0.000451848 0)
(0 0.00120117 0)
(0 0.00147841 0)
(0 0.000936799 0)
(0 0.00160497 0)
(0 0.000675897 0)
(0 5.02568e-05 0)
(0 0.00106377 0)
(0 0.000902899 0)
(0 0.00163865 0)
(0 0.000242727 0)
(0 0.00097939 0)
(0 4.20602e-05 0)
(0 0.000137922 0)
(0 0.000645187 0)
(0 0.000909076 0)
(0 0.00105971 0)
(0 0.00170268 0)
(0 0.000890463 0)
(0 0.000376242 0)
(0 0.00116454 0)
(0 0.000876614 0)
(0 0.000525796 0)
(0 5.91269e-05 0)
(0 0.000155146 0)
(0 0.000815016 0)
(0 0.000719161 0)
(0 0.00115041 0)
(0 0.000721456 0)
(0 0.000791087 0)
(0 0.00111964 0)
(0 0.000473762 0)
(0 0.00124574 0)
(0 0.00122801 0)
(0 0.00104478 0)
(0 0.000452224 0)
(0 0.000747918 0)
(0 0.000984739 0)
(0 0.000671066 0)
(0 0.00127219 0)
(0 0.000684676 0)
(0 0.00125516 0)
(0 0.00156003 0)
(0 0.000931839 0)
(0 0.00155733 0)
(0 0.00133769 0)
(0 0.00122956 0)
(0 0.000749924 0)
(0 0.00103427 0)
(0 0.000211563 0)
(0 0.00101413 0)
(0 0.000496551 0)
(0 0.000883752 0)
(0 0.00140008 0)
(0 0.000947738 0)
(0 0.000548164 0)
(0 0.000694268 0)
(0 0.000215525 0)
(0 0.00102687 0)
(0 0.000392724 0)
(0 0.00133029 0)
(0 0.000714117 0)
(0 0.00134299 0)
(0 0.00133084 0)
(0 0.00159537 0)
(0 9.68108e-05 0)
(0 0.00135046 0)
(0 9.77618e-05 0)
(0 0.00089946 0)
(0 0.00159638 0)
(0 0.0012905 0)
(0 0.000615952 0)
(0 0.000602063 0)
(0 0.00128901 0)
(0 0.000964138 0)
(0 0.00113706 0)
(0 0.00141803 0)
(0 0.000539964 0)
(0 0.00157669 0)
(0 0.00130941 0)
(0 0.000575122 0)
(0 0.00118517 0)
(0 0.00070897 0)
(0 0.000766069 0)
(0 5.05257e-05 0)
(0 0.0014649 0)
(0 0.000130646 0)
(0 0.00153113 0)
(0 0.000465853 0)
(0 0.000830286 0)
(0 0.00139623 0)
(0 0.000824463 0)
(0 0.000856028 0)
(0 8.34498e-05 0)
(0 0.00129902 0)
(0 0.000684663 0)
(0 0.00162589 0)
(0 0.000879137 0)
(0 0.0010116 0)
(0 2.51686e-05 0)
(0 8.57995e-05 0)
(0 2.67676e-05 0)
(0 0.0013733 0)
(0 0.00120092 0)
(0 0.00135565 0)
(0 0.00151574 0)
(0 0.000444916 0)
(0 0.000180826 0)
(0 0.00142163 0)
(0 0.0010172 0)
(0 0.000218027 0)
(0 0.000548537 0)
(0 0.0016014 0)
(0 0.00139802 0)
(0 0.000916806 0)
(0 0.0015659 0)
(0 0.00158507 0)
(0 5.1328e-05 0)
(0 4.77282e-05 0)
(0 0.000981368 0)
(0 0.0014115 0)
(0 0.0010333 0)
(0 0.000110854 0)
(0 0.000124347 0)
(0 0.00131827 0)
(0 0.00125721 0)
(0 0.00114537 0)
(0 1.23808e-05 0)
(0 0.0005636 0)
(0 6.58652e-05 0)
(0 0.00159967 0)
(0 0.000925628 0)
(0 0.000781662 0)
(0 0.00126277 0)
(0 0.00136257 0)
(0 0.00133598 0)
(0 0.00143036 0)
(0 0.00137549 0)
(0 0.000538473 0)
(0 0.00119285 0)
(0 0.00053612 0)
(0 0.000816149 0)
(0 0.000596309 0)
(0 0.00157427 0)
(0 0.000976803 0)
(0 0.000772864 0)
(0 0.000357989 0)
(0 0.00140009 0)
(0 0.000918698 0)
(0 0.00131486 0)
(0 0.000373228 0)
(0 0.00113723 0)
(0 0.000885806 0)
(0 0.000302063 0)
(0 0.00111171 0)
(0 0.00160232 0)
(0 0.000442946 0)
(0 0.000933902 0)
(0 0.00128832 0)
(0 0.00129676 0)
(0 0.00121687 0)
(0 0.000897646 0)
(0 1.93705e-05 0)
(0 0.000262821 0)
(0 0.00134113 0)
(0 0.000374685 0)
(0 0.000504984 0)
(0 0.00150669 0)
(0 0.000701715 0)
(0 0.00111332 0)
(0 0.000918381 0)
(0 0.00116767 0)
(0 1.76015e-05 0)
(0 0.000477449 0)
(0 0.00162901 0)
(0 0.000783911 0)
(0 0.000257394 0)
(0 4.88763e-05 0)
(0 0.00128279 0)
(0 0.000820513 0)
(0 0.00164628 0)
(0 0.000961246 0)
(0 0.00117392 0)
(0 0.00123517 0)
(0 0.000124839 0)
(0 0.00148253 0)
(0 0.00157233 0)
(0 0.00161974 0)
(0 0.000546633 0)
(0 0.000589848 0)
(0 0.00139146 0)
(0 0.000782091 0)
(0 4.51644e-05 0)
(0 0.000579512 0)
(0 0.00149239 0)
(0 0.00103638 0)
(0 0.000957866 0)
(0 0.00161194 0)
(0 0.000357192 0)
(0 0.000911681 0)
(0 0.000111632 0)
(0 0.00075444 0)
(0 0.00119084 0)
(0 0.000271481 0)
(0 0.000396017 0)
(0 8.68835e-05 0)
(0 0.000788688 0)
(0 0.000873523 0)
(0 0.0006792 0)
(0 0.00101248 0)
(0 0.000762566 0)
(0 0.00109292 0)
(0 0.00108358 0)
(0 0.000934314 0)
(0 0.000418965 0)
(0 0.00147552 0)
(0 0.00120128 0)
(0 0.000385595 0)
(0 0.000123041 0)
(0 0.00100723 0)
(0 0.000800336 0)
(0 0.00080292 0)
(0 0.00108692 0)
(0 0.00147141 0)
(0 0.000804794 0)
(0 0.000730441 0)
(0 0.000859872 0)
(0 0.000752614 0)
(0 0.00138602 0)
(0 0.00103192 0)
(0 0.000801393 0)
(0 0.00111054 0)
(0 0.0010233 0)
(0 0.00170347 0)
(0 0.00103617 0)
(0 0.00101538 0)
(0 0.000666065 0)
(0 0.000144601 0)
(0 0.000781656 0)
(0 0.000919415 0)
(0 0.00146331 0)
(0 0.00148337 0)
(0 0.0011639 0)
(0 0.00102686 0)
(0 5.97658e-06 0)
(0 0.00123919 0)
(0 0.00102162 0)
(0 0.000418071 0)
(0 0.00110597 0)
(0 0.000156953 0)
(0 0.000763306 0)
(0 6.96104e-05 0)
(0 0.000890727 0)
(0 0.0011163 0)
(0 0.000724197 0)
(0 0.000574501 0)
(0 8.8082e-05 0)
(0 0.00105425 0)
(0 0.000775276 0)
(0 0.00082433 0)
(0 0.000353076 0)
(0 5.3207e-05 0)
(0 0.000370424 0)
(0 0.00111046 0)
(0 0.00102921 0)
(0 0.000386158 0)
(0 0.00070085 0)
(0 0.000154968 0)
(0 9.42287e-05 0)
(0 0.000808102 0)
(0 0.00161358 0)
(0 0.000586723 0)
(0 0.000442896 0)
(0 0.000471097 0)
(0 5.82622e-05 0)
(0 0.00134565 0)
(0 0.000270261 0)
(0 0.00146046 0)
(0 0.000108621 0)
(0 2.63672e-05 0)
(0 0.000351677 0)
(0 0.00092142 0)
(0 0.000460666 0)
(0 0.000568354 0)
(0 0.00156181 0)
(0 0.00159276 0)
(0 0.00133027 0)
(0 0.000837191 0)
(0 0.00146582 0)
(0 0.0011894 0)
(0 0.000413167 0)
(0 4.84534e-05 0)
(0 0.00160262 0)
(0 0.000664492 0)
(0 0.00079304 0)
(0 0.000368876 0)
(0 0.0008258 0)
(0 0.000799166 0)
(0 0.00127772 0)
(0 0.000421165 0)
(0 0.00166986 0)
(0 0.00100432 0)
(0 0.000580794 0)
(0 0.00102872 0)
(0 0.000913117 0)
(0 0.00104136 0)
(0 0.000256682 0)
(0 0.00146171 0)
(0 0.00125417 0)
(0 0.000999222 0)
(0 0.000573801 0)
(0 0.00108173 0)
(0 0.00138904 0)
(0 0.000475555 0)
(0 0.000305978 0)
(0 0.000941244 0)
(0 0.000902947 0)
(0 0.00119662 0)
(0 0.00154538 0)
(0 0.000883758 0)
(0 0.00159556 0)
(0 0.000841151 0)
(0 0.00126825 0)
(0 0.00134463 0)
(0 0.00168294 0)
(0 0.000622902 0)
(0 0.000456955 0)
(0 8.33499e-05 0)
(0 0.00134182 0)
(0 0.000385793 0)
(0 0.00131356 0)
(0 0.000383909 0)
(0 0.00145939 0)
(0 0.00067229 0)
(0 0.00108716 0)
(0 0.000516685 0)
(0 0.000897043 0)
(0 0.000537144 0)
(0 0.00171495 0)
(0 0.000925056 0)
(0 0.0016445 0)
(0 0.00133598 0)
(0 0.000360043 0)
(0 0.000395213 0)
(0 5.5441e-05 0)
(0 0.00104136 0)
(0 0.00117583 0)
(0 0.00145366 0)
(0 0.000262375 0)
(0 0.000852115 0)
(0 0.00092068 0)
(0 0.00102481 0)
(0 0.00102378 0)
(0 0.00126548 0)
(0 0.000306377 0)
(0 0.000171694 0)
(0 0.00077563 0)
(0 0.000612935 0)
(0 0.00122527 0)
(0 0.00120294 0)
(0 0.000333052 0)
(0 0.000946027 0)
(0 0.000454536 0)
(0 0.0015722 0)
(0 0.00108357 0)
(0 8.45833e-05 0)
(0 0.00132684 0)
(0 0.000937086 0)
(0 0.000424522 0)
(0 0.000770372 0)
(0 0.00144625 0)
(0 0.00167142 0)
(0 0.00151542 0)
(0 0.0012029 0)
(0 0.000119649 0)
(0 0.00103946 0)
(0 0.0016035 0)
(0 0.000680714 0)
(0 0.000772384 0)
(0 0.000856029 0)
(0 0.00031226 0)
(0 0.00162172 0)
(0 0.000457633 0)
(0 0.0016409 0)
(0 0.000653877 0)
(0 0.00145549 0)
(0 0.000988872 0)
(0 0.000854552 0)
(0 0.00102714 0)
(0 0.000885685 0)
(0 0.000766191 0)
(0 0.000802693 0)
(0 0.000795849 0)
(0 0.000329899 0)
(0 0.000382187 0)
(0 0.0014781 0)
(0 0.000850334 0)
(0 0.00171413 0)
(0 0.00101687 0)
(0 0.00168661 0)
(0 0.000834369 0)
(0 0.000970867 0)
(0 0.00113163 0)
(0 0.00139823 0)
(0 0.0010319 0)
(0 0.000345468 0)
(0 0.00081403 0)
(0 0.0015208 0)
(0 0.00168613 0)
(0 0.00111604 0)
(0 0.000780529 0)
(0 0.00113691 0)
(0 0.00103116 0)
(0 0.000907388 0)
(0 0.000267058 0)
(0 5.026e-05 0)
(0 0.000373112 0)
(0 0.00099256 0)
(0 0.000557089 0)
(0 0.00121843 0)
(0 0.000144012 0)
(0 8.4575e-05 0)
(0 0.000313673 0)
(0 0.000555739 0)
(0 0.000501175 0)
(0 0.000968991 0)
(0 0.000106788 0)
(0 9.91027e-06 0)
(0 0.000366908 0)
(0 0.000776804 0)
(0 7.95351e-05 0)
(0 0.000738716 0)
(0 0.00105725 0)
(0 0.000803243 0)
(0 0.000852244 0)
(0 0.000543022 0)
(0 0.0012807 0)
(0 0.000875705 0)
(0 0.000868162 0)
(0 0.000124362 0)
(0 0.00166449 0)
(0 7.00855e-05 0)
(0 0.00140648 0)
(0 0.00108939 0)
(0 0.00118453 0)
(0 0.000357912 0)
(0 0.000775248 0)
(0 0.000871071 0)
(0 0.00169322 0)
(0 0.000450062 0)
(0 0.00163669 0)
(0 0.00118513 0)
(0 0.000781858 0)
(0 0.000134493 0)
(0 0.000392041 0)
(0 0.00103271 0)
(0 0.00105354 0)
(0 0.000795945 0)
(0 0.0005935 0)
(0 0.000998134 0)
(0 0.000827158 0)
(0 0.00144224 0)
(0 0.00137574 0)
(0 0.000100553 0)
(0 0.000967405 0)
(0 0.000965287 0)
(0 0.000846173 0)
(0 0.00101368 0)
(0 5.1228e-05 0)
(0 0.00108974 0)
(0 0.000367835 0)
(0 0.00148849 0)
(0 0.000485006 0)
(0 5.12459e-05 0)
(0 0.000341115 0)
(0 0.000789489 0)
(0 0.000855569 0)
(0 0.000597119 0)
(0 0.00126549 0)
(0 0.00155488 0)
(0 0.000358961 0)
(0 0.000382429 0)
(0 0.000928349 0)
(0 0.00111722 0)
(0 0.000455285 0)
(0 0.00010327 0)
(0 0.000786098 0)
(0 0.000958756 0)
(0 0.000380676 0)
(0 0.00158604 0)
(0 0.000365526 0)
(0 0.000996657 0)
(0 0.000820604 0)
(0 0.00080134 0)
(0 0.00130029 0)
(0 0.00170298 0)
(0 0.00055903 0)
(0 0.00132912 0)
(0 0.00145945 0)
(0 0.000278156 0)
(0 0.000102607 0)
(0 0.00156568 0)
(0 0.00110018 0)
(0 0.00095863 0)
(0 0.000953788 0)
(0 7.93142e-05 0)
(0 0.0011559 0)
(0 0.000315868 0)
(0 0.00130017 0)
(0 0.00159508 0)
(0 0.000359498 0)
(0 0.000970666 0)
(0 0.00109615 0)
(0 0.000467296 0)
(0 0.00139148 0)
(0 0.00138041 0)
(0 0.00063666 0)
(0 0.000374367 0)
(0 0.000376272 0)
(0 0.000613871 0)
(0 0.00123093 0)
(0 0.000723623 0)
(0 0.00128259 0)
(0 0.000536761 0)
(0 0.000829591 0)
(0 0.00120947 0)
(0 0.000344657 0)
(0 1.26486e-05 0)
(0 1.1064e-05 0)
(0 0.000593983 0)
(0 0.00137219 0)
(0 0.000925684 0)
(0 0.000596033 0)
(0 0.00147343 0)
(0 0.000732919 0)
(0 0.00106409 0)
(0 0.00136096 0)
(0 0.00116817 0)
(0 0.00132845 0)
(0 0.000776459 0)
(0 0.000611548 0)
(0 0.00102528 0)
(0 0.00109226 0)
(0 0.00121012 0)
(0 0.000683769 0)
(0 0.000278402 0)
(0 0.000951567 0)
(0 0.00155281 0)
(0 0.000969575 0)
(0 5.28855e-05 0)
(0 0.000480987 0)
(0 0.000663856 0)
(0 0.000903849 0)
(0 0.00018179 0)
(0 0.000683724 0)
(0 0.000901445 0)
(0 0.00147137 0)
(0 0.000977625 0)
(0 0.000801855 0)
(0 0.00111294 0)
(0 0.000787542 0)
(0 0.000994795 0)
(0 0.000432067 0)
(0 0.00113595 0)
(0 0.000572482 0)
(0 0.00166017 0)
(0 0.000498976 0)
(0 0.00111964 0)
(0 0.000797772 0)
(0 0.00111302 0)
(0 0.00162609 0)
(0 0.0010974 0)
(0 0.000387936 0)
(0 0.00095093 0)
(0 0.000803789 0)
(0 0.00139911 0)
(0 0.000125257 0)
(0 0.00162844 0)
(0 0.000858334 0)
(0 0.000651944 0)
(0 0.00168436 0)
(0 0.000871373 0)
(0 0.00157096 0)
(0 0.000960358 0)
(0 0.000839038 0)
(0 0.000767206 0)
(0 0.000794365 0)
(0 0.000389133 0)
(0 0.000903585 0)
(0 0.00122997 0)
(0 0.0014659 0)
(0 0.000405195 0)
(0 0.000886004 0)
(0 0.000187149 0)
(0 0.000319158 0)
(0 0.00169772 0)
(0 0.000900787 0)
(0 0.00099178 0)
(0 0.000833297 0)
(0 2.09223e-05 0)
(0 0.00029405 0)
(0 0.000917341 0)
(0 0.00134021 0)
(0 0.0005877 0)
(0 0.000332861 0)
(0 0.00169758 0)
(0 0.000906033 0)
(0 0.00117382 0)
(0 0.000345865 0)
(0 0.00107501 0)
(0 0.00108881 0)
(0 0.00065805 0)
(0 0.00112972 0)
(0 0.00106195 0)
(0 0.0014322 0)
(0 0.00170347 0)
(0 0.000847193 0)
(0 6.91983e-06 0)
(0 0.00109921 0)
(0 0.00163769 0)
(0 0.000906477 0)
(0 0.0015069 0)
(0 0.00108432 0)
(0 0.000937833 0)
(0 0.000507095 0)
(0 0.000954772 0)
(0 0.000963774 0)
(0 0.00105518 0)
(0 0.0010179 0)
(0 0.00160941 0)
(0 0.00144266 0)
(0 0.00107197 0)
(0 0.00150736 0)
(0 0.000788651 0)
(0 0.000665972 0)
(0 0.00145928 0)
(0 0.00105006 0)
(0 0.00112397 0)
(0 0.000833621 0)
(0 0.00138615 0)
(0 0.000119756 0)
(0 0.00091147 0)
(0 0.001442 0)
(0 0.000360702 0)
(0 0.000588631 0)
(0 0.000726712 0)
(0 0.000440631 0)
(0 0.000950705 0)
(0 0.000580772 0)
(0 0.00165445 0)
(0 0.000971535 0)
(0 0.00170314 0)
(0 0.00147435 0)
(0 0.000264289 0)
(0 0.00168576 0)
(0 0.00148671 0)
(0 0.000587303 0)
(0 0.00135207 0)
(0 0.000652337 0)
(0 0.0016695 0)
(0 0.000967085 0)
(0 0.000620063 0)
(0 0.00109354 0)
(0 0.00157087 0)
(0 0.00068081 0)
(0 0.000907691 0)
(0 0.000948413 0)
(0 0.000855175 0)
(0 0.000344517 0)
(0 0.00106042 0)
(0 0.00136236 0)
(0 0.000127318 0)
(0 0.00147308 0)
(0 0.000816707 0)
(0 0.00109335 0)
(0 0.000101691 0)
(0 0.000784311 0)
(0 0.00038267 0)
(0 0.00157318 0)
(0 0.00112663 0)
(0 0.000114667 0)
(0 0.000467514 0)
(0 0.00134783 0)
(0 0.00169254 0)
(0 0.000836486 0)
(0 0.000490594 0)
(0 0.000905925 0)
(0 0.000744771 0)
(0 0.00040307 0)
(0 0.00113147 0)
(0 0.000187539 0)
(0 0.00113587 0)
(0 0.000987675 0)
(0 0.000426402 0)
(0 0.000682731 0)
(0 0.00027553 0)
(0 0.000378637 0)
(0 0.000814515 0)
(0 3.12642e-05 0)
(0 0.0013772 0)
(0 0.000677882 0)
(0 0.00114584 0)
(0 0.000964476 0)
(0 0.00124419 0)
(0 0.000902362 0)
(0 0.00115449 0)
(0 0.00158501 0)
(0 0.00144274 0)
(0 0.00138843 0)
(0 0.00126562 0)
(0 0.000894423 0)
(0 0.000275329 0)
(0 0.000840153 0)
(0 0.000278242 0)
(0 0.000273966 0)
(0 0.000408789 0)
(0 0.00100859 0)
(0 0.00144458 0)
(0 0.000971797 0)
(0 0.00027081 0)
(0 0.00094081 0)
(0 0.00154196 0)
(0 2.87934e-05 0)
(0 0.000832352 0)
(0 0.000414399 0)
(0 0.00125952 0)
(0 0.001691 0)
(0 0.000281916 0)
(0 0.000846861 0)
(0 0.00104546 0)
(0 0.00140514 0)
(0 0.000859205 0)
(0 0.00140577 0)
(0 0.00099594 0)
(0 0.000851953 0)
(0 0.000807501 0)
(0 0.000809415 0)
(0 0.000361222 0)
(0 1.53731e-05 0)
(0 0.000631069 0)
(0 0.00154281 0)
(0 0.000284408 0)
(0 0.000723374 0)
(0 0.000284034 0)
(0 0.000612796 0)
(0 0.000764971 0)
(0 0.00108283 0)
(0 0.00019655 0)
(0 0.000656507 0)
(0 0.00159476 0)
(0 0.000796838 0)
(0 0.000571249 0)
(0 0.000783798 0)
(0 0.000828461 0)
(0 0.000775563 0)
(0 0.00153247 0)
(0 9.48984e-05 0)
(0 0.000124514 0)
(0 0.000745682 0)
(0 0.00145563 0)
(0 0.000865143 0)
(0 0.000377964 0)
(0 0.00126184 0)
(0 0.00170004 0)
(0 5.20687e-05 0)
(0 0.000798263 0)
(0 0.00097518 0)
(0 0.000940871 0)
(0 0.00101083 0)
(0 0.00130239 0)
(0 0.00166737 0)
(0 0.000769568 0)
(0 0.00134258 0)
(0 0.00045728 0)
(0 0.000781037 0)
(0 0.000792524 0)
(0 0.000296116 0)
(0 0.000567216 0)
(0 0.000267228 0)
(0 0.000241768 0)
(0 5.39525e-05 0)
(0 0.000992713 0)
(0 0.000269721 0)
(0 0.000713475 0)
(0 0.000701979 0)
(0 0.000569847 0)
(0 0.000843959 0)
(0 0.000264173 0)
(0 0.000507311 0)
(0 0.000759334 0)
(0 0.000273407 0)
(0 0.00154633 0)
(0 0.00115869 0)
(0 9.04864e-05 0)
(0 0.000614356 0)
(0 0.000671447 0)
(0 0.000279044 0)
(0 0.000336426 0)
(0 0.00054862 0)
(0 0.000773619 0)
(0 0.000326303 0)
(0 0.000884866 0)
(0 0.000621852 0)
(0 0.000925429 0)
(0 0.000999817 0)
(0 0.0015971 0)
(0 0.000613464 0)
(0 0.00140211 0)
(0 0.000593815 0)
(0 0.000307501 0)
(0 0.000346572 0)
(0 0.000588211 0)
(0 0.000283074 0)
(0 0.000933024 0)
(0 0.000368061 0)
(0 0.00167581 0)
(0 0.00144035 0)
(0 0.00105105 0)
(0 0.00111061 0)
(0 0.000661533 0)
(0 0.000514421 0)
(0 0.000134494 0)
(0 5.55398e-05 0)
(0 0.0011406 0)
(0 0.00115423 0)
(0 5.95585e-05 0)
(0 0.00140817 0)
(0 0.00118732 0)
(0 0.000817542 0)
(0 0.000312223 0)
(0 0.00111042 0)
(0 0.001207 0)
(0 0.000249487 0)
(0 0.0010092 0)
(0 0.0017011 0)
(0 0.0013689 0)
(0 0.000279995 0)
(0 0.000283114 0)
(0 0.000270729 0)
(0 0.00166423 0)
(0 0.000775291 0)
(0 0.00104958 0)
(0 0.000296344 0)
(0 0.00090254 0)
(0 0.000740491 0)
(0 0.000960145 0)
(0 0.000758169 0)
(0 0.000914096 0)
(0 0.000879829 0)
(0 0.000652839 0)
(0 0.000650523 0)
(0 0.000696806 0)
(0 0.000362288 0)
(0 0.00088324 0)
(0 1.85937e-05 0)
(0 0.000837457 0)
(0 0.000256761 0)
(0 0.00115948 0)
(0 0.000886823 0)
(0 0.00109031 0)
(0 0.000599898 0)
(0 0.00146445 0)
(0 2.66869e-05 0)
(0 0.000883847 0)
(0 0.000960042 0)
(0 0.000578368 0)
(0 0.00086902 0)
(0 0.000520296 0)
(0 0.0016583 0)
(0 0.00074613 0)
(0 0.000720354 0)
(0 0.00140293 0)
(0 0.000611278 0)
(0 0.000242656 0)
(0 0.000637924 0)
(0 0.00101553 0)
(0 0.000594475 0)
(0 0.000869433 0)
(0 0.000421699 0)
(0 0.00125225 0)
(0 0.000710295 0)
(0 0.00141462 0)
(0 0.000101681 0)
(0 0.000771545 0)
(0 0.000584843 0)
(0 0.00108131 0)
(0 0.00165705 0)
(0 0.000349347 0)
(0 0.00156519 0)
(0 0.000298964 0)
(0 0.00164471 0)
(0 0.000864948 0)
(0 0.000783649 0)
(0 0.00142221 0)
(0 0.000679357 0)
(0 0.00131866 0)
(0 0.000317502 0)
(0 0.000390502 0)
(0 0.000274014 0)
(0 0.000758752 0)
(0 0.000814931 0)
(0 0.000440903 0)
(0 0.000312409 0)
(0 0.000609941 0)
(0 0.000282935 0)
(0 0.000814545 0)
(0 0.000107553 0)
(0 0.000777576 0)
(0 0.00115186 0)
(0 0.000498143 0)
(0 0.00142017 0)
(0 0.000381342 0)
(0 0.000516351 0)
(0 0.00027513 0)
(0 0.00025544 0)
(0 0.00163538 0)
(0 0.000866674 0)
(0 0.000676068 0)
(0 0.000841095 0)
(0 0.000330457 0)
(0 0.00107011 0)
(0 0.000860911 0)
(0 0.00168209 0)
(0 0.000887265 0)
(0 0.00125164 0)
(0 0.00146375 0)
(0 5.30156e-05 0)
(0 0.000778973 0)
(0 0.00085188 0)
(0 0.0015895 0)
(0 0.000779738 0)
(0 0.00156524 0)
(0 0.0006383 0)
(0 0.000918686 0)
(0 0.000887324 0)
(0 0.00145162 0)
(0 0.00109972 0)
(0 0.000353771 0)
(0 0.00140783 0)
(0 5.04301e-05 0)
(0 0.000975631 0)
(0 0.000579518 0)
(0 0.000683613 0)
(0 0.00100975 0)
(0 0.000757406 0)
(0 0.000793539 0)
(0 0.000739642 0)
(0 0.000608127 0)
(0 0.000740069 0)
(0 5.76881e-05 0)
(0 0.000854109 0)
(0 0.00141485 0)
(0 0.000863485 0)
(0 0.000795751 0)
(0 0.000497168 0)
(0 0.000913995 0)
(0 0.000607128 0)
(0 0.000650444 0)
(0 0.000637142 0)
(0 0.000817463 0)
(0 0.00083092 0)
(0 0.000438456 0)
(0 0.000901436 0)
(0 0.000819648 0)
(0 0.000651174 0)
(0 0.000370048 0)
(0 0.000323203 0)
(0 0.000676047 0)
(0 5.32955e-05 0)
(0 0.000782859 0)
(0 0.00077001 0)
(0 0.000963433 0)
(0 0.00153276 0)
(0 5.06429e-05 0)
(0 0.000793731 0)
(0 0.000929833 0)
(0 0.001299 0)
(0 0.00084137 0)
(0 0.00086597 0)
(0 0.000750416 0)
(0 0.000310553 0)
(0 0.00062983 0)
(0 0.000611158 0)
(0 0.00146883 0)
(0 0.000793735 0)
(0 0.000686877 0)
(0 0.000639364 0)
(0 0.000652556 0)
(0 0.00117836 0)
(0 0.000238649 0)
(0 0.000666861 0)
(0 0.000866043 0)
(0 0.000872386 0)
(0 0.000724011 0)
(0 0.000800384 0)
(0 0.00115184 0)
(0 0.000968692 0)
(0 0.000929638 0)
(0 0.000867742 0)
(0 0.00107442 0)
(0 2.54207e-05 0)
(0 0.000470281 0)
(0 0.000264407 0)
(0 0.000475995 0)
(0 5.81575e-05 0)
(0 0.000699536 0)
(0 0.000649631 0)
(0 0.000691297 0)
(0 0.000766544 0)
(0 0.000753831 0)
(0 0.000735212 0)
(0 0.000856319 0)
(0 0.000957396 0)
(0 0.00086503 0)
(0 0.0011457 0)
(0 0.000611371 0)
(0 0.000577289 0)
(0 0.000874677 0)
(0 7.6692e-05 0)
(0 0.00113797 0)
(0 2.69857e-05 0)
(0 0.00109494 0)
(0 0.000955325 0)
(0 0.000840813 0)
(0 0.000323214 0)
(0 0.000681107 0)
(0 0.000977723 0)
(0 0.00104977 0)
(0 0.000463942 0)
(0 0.000827878 0)
(0 0.000343128 0)
(0 0.000790565 0)
(0 0.000917668 0)
(0 2.18364e-05 0)
(0 0.000364171 0)
(0 0.000795344 0)
(0 0.0006233 0)
(0 0.000386252 0)
(0 0.00103615 0)
(0 0.000836669 0)
(0 0.000857132 0)
(0 0.000756893 0)
(0 0.000661107 0)
(0 0.000104634 0)
(0 0.000697029 0)
(0 0.00158359 0)
(0 0.000854231 0)
(0 0.000959367 0)
(0 0.000653506 0)
(0 0.000793122 0)
(0 0.000458341 0)
(0 0.00104198 0)
(0 0.000687158 0)
(0 0.00103536 0)
(0 0.000750369 0)
(0 0.000635265 0)
(0 0.000716039 0)
(0 6.16111e-05 0)
(0 0.000475055 0)
(0 0.000921721 0)
(0 0.00171115 0)
(0 0.00145091 0)
(0 0.000597337 0)
(0 0.00102445 0)
(0 0.000714309 0)
(0 0.000987064 0)
(0 0.000132961 0)
(0 0.000762946 0)
(0 0.000882958 0)
(0 0.000961191 0)
(0 0.000110966 0)
(0 0.000958151 0)
(0 0.000937132 0)
(0 0.000400273 0)
(0 0.000971822 0)
(0 0.000930864 0)
(0 0.00107066 0)
(0 0.000302327 0)
(0 0.00168029 0)
(0 0.00046117 0)
(0 0.000550971 0)
(0 0.00088397 0)
(0 0.00077505 0)
(0 0.00116487 0)
(0 0.00117175 0)
(0 0.000709211 0)
(0 0.000664835 0)
(0 0.0016786 0)
(0 0.000938347 0)
(0 0.00050399 0)
(0 0.00105246 0)
(0 0.000999092 0)
(0 0.00100355 0)
(0 0.000618711 0)
(0 0.000954444 0)
(0 0.000767811 0)
(0 0.000829381 0)
(0 0.000716894 0)
(0 0.00154809 0)
(0 0.00134119 0)
(0 0.00076789 0)
(0 0.00061657 0)
(0 0.000330963 0)
(0 0.000807521 0)
(0 0.000704111 0)
(0 0.000873566 0)
(0 0.000942509 0)
(0 0.00067444 0)
(0 0.00123295 0)
(0 0.0016306 0)
(0 0.000977606 0)
(0 0.000994421 0)
(0 0.000862817 0)
(0 5.45672e-05 0)
(0 0.000728152 0)
(0 0.000846546 0)
(0 0.000700314 0)
(0 0.000605924 0)
(0 0.000252826 0)
(0 0.000975365 0)
(0 0.00147534 0)
(0 0.000880776 0)
(0 0.00082796 0)
(0 0.000895675 0)
(0 0.000915652 0)
(0 0.000328635 0)
(0 0.000602248 0)
(0 0.000745958 0)
(0 0.000921913 0)
(0 0.00162176 0)
(0 0.000671827 0)
(0 0.000871154 0)
(0 0.00120018 0)
(0 0.000798453 0)
(0 0.000706876 0)
(0 0.00105493 0)
(0 0.000633048 0)
(0 0.000927907 0)
(0 0.000993329 0)
(0 0.000893063 0)
(0 0.00114719 0)
(0 0.00135198 0)
(0 0.000926236 0)
(0 0.00062894 0)
(0 0.000849646 0)
(0 0.000179121 0)
(0 0.000745723 0)
(0 0.00104488 0)
(0 0.000311028 0)
(0 0.00114639 0)
(0 0.000828591 0)
(0 0.000799663 0)
(0 0.00109955 0)
(0 0.00109396 0)
(0 0.00079181 0)
(0 0.00105436 0)
(0 0.00121038 0)
(0 0.000957435 0)
(0 0.00146478 0)
(0 0.00085718 0)
(0 0.000885157 0)
(0 0.000671601 0)
(0 0.0013677 0)
(0 0.000833873 0)
(0 0.00123072 0)
(0 0.000939742 0)
(0 0.00108785 0)
(0 0.00158832 0)
(0 0.000958211 0)
(0 0.000374411 0)
(0 0.000594672 0)
(0 0.00117733 0)
(0 0.000429028 0)
(0 0.000972317 0)
(0 0.00141149 0)
(0 0.00125062 0)
(0 0.000296594 0)
(0 0.00100844 0)
(0 0.000624415 0)
(0 0.00164638 0)
(0 2.92207e-05 0)
(0 0.000956733 0)
(0 0.00124134 0)
(0 0.00107951 0)
(0 0.000264797 0)
(0 0.00158612 0)
(0 0.000894856 0)
(0 0.000408243 0)
(0 0.000869462 0)
(0 0.000725519 0)
(0 0.000959775 0)
(0 0.000277852 0)
(0 0.00098567 0)
(0 0.0004427 0)
(0 0.000868615 0)
(0 0.000614769 0)
(0 0.000754471 0)
(0 0.00112327 0)
(0 0.000721165 0)
(0 0.00165204 0)
(0 0.00167597 0)
(0 0.00163962 0)
(0 0.000983338 0)
(0 0.000598937 0)
(0 0.000695559 0)
(0 0.00081767 0)
(0 0.000866157 0)
(0 0.000283621 0)
(0 0.000520623 0)
(0 0.00130167 0)
(0 0.000481528 0)
(0 0.00167146 0)
(0 0.000910917 0)
(0 0.00168445 0)
(0 0.00156205 0)
(0 0.00106531 0)
(0 0.000677817 0)
(0 0.000458899 0)
(0 0.0015666 0)
(0 0.00171313 0)
(0 0.00126222 0)
(0 0.000785217 0)
(0 0.00146508 0)
(0 0.00031022 0)
(0 0.000484621 0)
(0 0.00165732 0)
(0 0.000860676 0)
(0 5.05595e-05 0)
(0 3.69029e-05 0)
(0 0.000351628 0)
(0 0.000861973 0)
(0 0.00135072 0)
(0 0.00153402 0)
(0 0.00118906 0)
(0 0.000730666 0)
(0 0.00163061 0)
(0 0.000930142 0)
(0 0.00104093 0)
(0 5.95887e-05 0)
(0 0.000806197 0)
(0 5.5932e-05 0)
(0 0.00149186 0)
(0 0.000833234 0)
(0 0.000779117 0)
(0 0.000980161 0)
(0 0.000860697 0)
(0 0.000421773 0)
(0 0.00118314 0)
(0 0.000862522 0)
(0 0.000723999 0)
(0 0.0010087 0)
(0 2.50984e-05 0)
(0 0.0004481 0)
(0 0.000465139 0)
(0 0.000852108 0)
(0 0.000885367 0)
(0 0.000639168 0)
(0 0.000782572 0)
(0 0.000759953 0)
(0 0.000840814 0)
(0 0.00039518 0)
(0 0.000712322 0)
(0 0.000941354 0)
(0 0.00149282 0)
(0 0.000652406 0)
(0 0.000852786 0)
(0 0.00087014 0)
(0 0.00119601 0)
(0 0.000632237 0)
(0 0.000296949 0)
(0 0.00047067 0)
(0 0.00102271 0)
(0 0.000795907 0)
(0 0.000946547 0)
(0 0.00119129 0)
(0 0.000577827 0)
(0 0.000591658 0)
(0 0.000770247 0)
(0 0.000875515 0)
(0 0.00132435 0)
(0 0.000703813 0)
(0 0.000802439 0)
(0 0.000529956 0)
(0 0.000912596 0)
(0 0.00134892 0)
(0 0.00151145 0)
(0 0.000768094 0)
(0 0.000839947 0)