/*--------------------------------*- C++ -*----------------------------------*\
| =========                 |                                                 |
| \\      /  F ield         | OpenFOAM: The Open Source CFD Toolbox           |
|  \\    /   O peration     | Version:  v2012                                 |
|   \\  /    A nd           | Website:  www.openfoam.com                      |
|    \\/     M anipulation  |                                                 |
\*---------------------------------------------------------------------------*/
FoamFile
{
    version     2.0;
    format      ascii;
    class       volScalarField;
    location    "550";
    object      omega_0;
}
// * * * * * * * * * * * * * * * * * * * * * * * * * * * * * * * * * * * * * //

dimensions      [0 0 -1 0 0 0 0];


internalField   nonuniform List<scalar> 
9793
(
0.0731413
0.258104
0.0726232
0.0210209
1.5642
0.0229147
0.022054
0.0208144
0.0216588
1.66081
0.049181
0.319206
0.0210745
0.0209492
0.0231174
0.0207766
0.021711
0.02235
0.410136
0.020941
0.0599477
0.0239409
0.265378
0.0196481
0.0223342
0.0211878
0.0210351
0.0209362
0.0426565
0.0216489
0.0348482
0.244453
0.194262
0.0220861
0.0473169
0.0749866
0.0227
0.0239007
0.0209271
0.0211414
0.0345467
0.0231385
0.0223051
0.0221764
0.0223222
0.0214027
0.0455954
0.274891
0.726577
0.0209906
0.0483969
0.0542757
0.0232299
0.0217336
1.56769
0.0764858
0.0214515
0.0795645
0.368414
0.0209083
0.0218586
0.0232717
0.514908
0.0219705
1.60286
0.233817
0.483839
0.6537
0.258701
0.0489881
1.6556
0.0209291
0.0211462
0.247304
0.0530449
0.293992
0.0214474
0.0209903
0.0218409
0.0211108
0.253378
0.0218916
0.259818
0.224483
0.031242
0.27681
0.021276
0.0214454
0.022677
0.0221677
0.260537
2.01192
0.0204599
0.27429
0.0229544
0.202819
0.0869079
0.26076
0.0204149
0.0202694
0.0202534
0.0219131
0.020459
0.02044
0.020823
0.0310793
0.0225022
0.0219029
0.0228703
0.271258
0.0211098
0.0605217
0.0214266
0.106272
0.0540564
0.0214571
0.21681
0.0514526
0.0223366
0.264457
0.268343
0.0225984
0.0213535
0.0232248
0.022194
0.0608901
0.0349803
0.276628
0.0222818
0.0211711
0.0215079
0.0214555
0.0211716
0.0221997
0.021607
0.0214457
0.0223404
0.0219856
0.0214179
0.0200002
0.0213413
0.0221893
0.0212457
0.0202831
0.0211721
0.0218623
0.245869
0.0202908
0.0204185
2.04249
1.75149
0.0214857
1.77708
1.76468
0.0203918
0.022069
0.0207554
0.0220665
0.0202615
0.0211897
0.0208195
0.0209323
0.0205058
0.169578
0.24797
0.0644423
0.275625
0.0275861
0.0208741
0.0213615
0.021246
0.243155
0.249066
0.160876
0.0220935
0.231741
0.021455
0.0196251
0.0211907
0.0280535
3.20189
0.0226235
0.0202775
0.0222067
0.14234
0.0211304
0.101885
0.0211839
0.021328
0.0205152
0.0221024
0.0213378
0.725765
0.0606118
0.64431
0.0277072
0.194452
0.0211969
1.75401
0.0200799
0.0215995
0.111159
0.0889384
0.0211777
0.0214588
0.0204886
0.0697112
0.0203487
0.0277856
0.0229952
0.0319252
0.708566
0.743902
0.0217734
0.364757
0.0206474
0.02155
0.141855
0.0204255
0.818589
0.0689921
0.0213897
0.0222032
0.0213397
0.257367
0.1262
0.0229455
0.0203874
0.0677253
0.0431658
0.0196938
0.0196408
0.022684
0.020241
0.0395514
0.810305
0.0213991
0.0211521
0.0853353
0.0216446
0.0275421
0.0208428
0.0211122
0.208012
0.021109
0.0204012
0.0207981
0.0220465
0.0204312
0.0219151
0.0219098
0.0249091
0.0514339
0.0373083
0.0210567
0.0247474
0.0212121
0.0252787
0.0230664
0.020285
0.239896
0.0211275
0.0513727
0.0217441
0.0280802
0.019958
0.0199128
0.0318915
0.107636
0.022197
0.0203013
0.0201137
0.0284916
0.0214111
0.257711
0.256494
0.0211811
0.0644786
0.021379
0.0371802
0.0219453
0.0197468
0.022342
0.0210094
0.0348946
0.0213854
0.0218972
0.0267502
0.0211424
0.0214497
0.0214072
0.199107
0.0223626
0.0228132
0.0215577
0.0221742
0.0224456
0.0273813
0.0212551
0.328184
0.0204082
0.495429
0.25301
0.0223339
0.0221314
0.0202918
0.0293245
0.025749
0.0218285
0.495798
0.0217746
0.0202797
0.0259567
0.0220674
0.021636
0.021801
0.265495
0.0211756
0.0274527
0.023068
0.0210519
0.248289
0.290391
0.24306
0.0201896
3.29501
0.0226193
0.470181
0.0606984
0.0202537
0.0234483
0.0588067
0.0216882
0.0258945
0.0570205
0.0207678
0.0221665
0.0215697
0.0212035
0.0210134
0.0983481
0.0211844
0.0210295
0.282679
0.0216718
0.0207508
0.0201587
0.0229235
0.0207858
0.254415
0.0223134
0.0214123
0.0218036
0.0218874
0.324392
0.0216945
0.0333086
0.0196422
0.0357429
2.05204
0.105676
0.0373597
0.0227933
0.022919
0.422208
0.0218972
0.242982
0.0216086
0.0202972
0.281735
0.0256239
0.604928
0.0214162
0.0417272
0.0754829
0.0235823
0.0211088
0.189549
0.0261176
0.245801
0.0247861
0.0216515
0.319072
0.0212851
0.02283
0.0219357
0.0214223
0.02106
0.0216945
0.0242757
0.34096
0.0219348
2.00148
0.306028
0.36332
0.0432992
0.233663
0.0210694
0.0215673
1.91479
0.296156
0.0208825
0.02202
0.132851
0.0201097
0.10385
0.0211743
0.0243204
0.0200805
0.0336734
0.0211762
0.0266702
0.0658565
0.020361
0.232409
0.026241
0.0224547
0.0263648
0.0214528
0.0222899
0.0218698
0.0835478
0.0213532
0.0216696
0.0565744
0.0216198
0.0230133
0.0226262
0.0204322
0.0289424
0.0212064
0.0216785
0.020008
0.0639216
0.0215545
0.0846934
0.0214026
0.702551
0.0232646
0.0215171
0.0225518
0.0219379
0.220047
0.0211652
2.11889
0.0206103
0.0212651
0.0228263
0.128188
0.036325
2.08378
0.71003
0.0232405
0.021273
0.037335
0.0288216
0.0328088
0.258002
0.439668
0.021662
0.0244183
0.042163
0.0213623
0.0221398
0.0213388
0.0204485
0.0222485
0.101665
0.0268093
0.199207
0.0204734
0.0297914
0.0196005
0.0219086
0.0216307
0.0219077
0.0375486
0.021522
0.0236179
0.020098
0.0214422
0.0235753
0.268494
0.0212667
0.0212705
0.200055
0.0242463
0.0223202
0.461726
0.706928
0.0216912
0.0221408
0.0230333
0.0236282
0.021704
0.0225859
0.022197
0.0212971
0.0212409
0.0210737
0.232677
0.0564236
0.020768
0.175653
0.0357141
0.0203359
0.0223982
0.0219309
0.0585978
0.0219302
0.407164
0.0203003
0.0211204
0.0473346
0.0213162
0.032397
0.313734
0.0283181
0.0203229
1.99966
0.0240885
0.0205607
0.0213068
0.0462648
0.020985
0.0205459
0.0212772
0.0209727
0.212621
0.0393302
0.0347085
0.0226239
0.0212632
0.0211048
0.0215612
0.0209972
0.0212934
0.0515202
0.106069
0.020143
0.0236146
2.12973
0.0213841
0.240391
0.0344499
0.0208813
0.0522176
0.225002
0.0214046
0.138082
0.0197793
0.0949477
0.0263256
0.410555
0.0211238
0.0210927
0.0217159
0.266122
0.0230813
0.421994
0.247779
1.69846
0.0331987
0.558133
0.0327528
0.0231466
0.0296876
0.0232988
0.260421
0.0216867
0.669923
0.0199803
0.285096
0.0221667
0.0221792
0.0210759
0.128854
0.020045
0.0208904
0.0227154
0.0234075
0.0273908
0.0211583
0.0212772
0.0213562
0.0213292
0.584847
0.0209867
0.433743
0.110658
0.020999
0.0219903
0.0305402
0.0220229
0.0213314
0.0219724
0.0236232
0.0263078
0.0225031
0.0234078
0.0205046
0.0222326
0.0225464
0.0254965
0.0219719
0.0231047
0.71566
0.0213719
0.0903005
0.0255437
0.0221838
0.0212885
0.0207445
0.0230067
0.0234814
0.0210994
0.0210452
0.0195679
0.0211368
0.0210227
0.0211823
0.0243403
0.0198842
0.0221804
0.0222745
0.0216523
0.0240199
0.0225811
0.0306343
0.0225197
0.021037
0.0212988
0.0205427
0.0201611
0.021087
0.0202468
0.021011
0.0213832
0.0200288
0.0347305
0.0211707
0.0223994
0.0213705
0.68203
0.0210435
0.0200734
0.04806
0.0197389
0.0216566
0.147329
0.0223581
0.0226497
0.0215326
0.0806509
0.0207574
0.0448253
1.64776
0.361496
0.336543
0.0215807
0.0213822
0.426887
0.0219756
0.0200344
0.237146
0.668245
2.17609
0.0213102
0.0499959
0.0213846
0.0213628
0.108635
0.0211969
0.0449682
0.0239057
0.055755
0.0210229
0.0244063
0.0224299
0.134785
0.908098
0.0212174
0.0222893
0.026727
0.0209962
0.0233113
0.0453378
3.08967
0.0210972
0.251986
0.0219997
0.365078
0.219698
0.199831
0.309623
0.0212136
0.0283078
0.532959
0.0210442
0.021169
0.0223543
0.0218383
0.0200095
0.0790427
0.0199953
0.439878
0.0233567
0.283556
0.0488512
0.0215867
1.65088
0.0996961
0.0221167
0.382241
0.027616
0.0614849
0.0200248
0.0197223
0.25595
0.0213704
0.879081
0.0209926
0.314125
0.0205191
0.271588
0.269086
0.0211996
2.08541
0.0214273
0.0228021
0.034528
0.13073
0.129664
0.0202588
0.0205389
0.0201075
0.338109
0.197711
0.0229083
0.024747
0.260585
0.0200667
0.0210034
0.0223949
0.0482101
0.0266459
0.0214556
0.0210254
0.0208622
0.329763
2.12843
0.172624
0.0205492
0.0209384
0.683539
0.021182
0.360577
0.0417562
0.440282
0.27779
0.312028
0.02091
0.0215916
0.0239924
0.0224911
0.0257814
0.0212274
0.0497898
0.419008
0.0204628
0.0799239
0.0208481
0.0507607
0.0217691
0.286133
0.0255013
0.0236751
0.0211139
0.0231764
0.127847
0.40889
0.525566
0.0214635
0.0348483
0.0212226
0.0233016
0.024794
3.26686
0.0246154
0.0614869
0.0208928
0.027028
0.0211812
0.0199111
0.0220888
0.0209671
1.85376
0.0211561
0.0235011
0.0226072
0.0219111
0.0199966
0.0526841
0.0217576
0.0223232
0.0209298
0.0210143
0.313527
0.0210558
0.0574885
0.0204802
0.231434
0.0210107
0.0457163
0.0212158
0.0945983
0.0217261
0.0214098
0.0208955
0.300631
0.312796
0.052617
2.66997
0.655904
0.0213525
0.0238756
0.263626
0.0201146
0.261442
0.248913
0.0521541
0.187961
0.0232816
0.313029
0.0242701
0.17481
0.264332
0.0232363
0.021733
0.313218
0.483984
0.024281
0.0243656
0.0212118
0.0229052
0.0319962
0.0210678
0.0201533
0.0225556
0.258412
0.0345216
0.0232153
0.353849
0.0209142
0.0202558
0.285489
0.0867727
0.0325879
0.0220643
0.148173
0.0205553
0.0200867
0.226431
0.0200187
0.0230741
0.312653
0.311836
0.0213836
0.0656712
2.2908
0.0541543
0.411087
3.17863
0.0225453
0.732303
0.0218804
0.0208798
0.0213865
0.0218079
0.0213474
2.34573
0.0219915
0.214963
0.0225539
0.0408896
0.022073
0.0325401
0.0249142
0.0217017
0.0417019
0.0221951
0.0201277
0.0764425
0.0233988
0.0300749
0.0213679
0.0201776
0.319067
0.103455
0.024015
0.0195942
0.0195697
0.0211389
0.0221766
0.474233
0.0755832
0.40873
0.0337341
0.240682
0.0216204
0.0288989
0.0254485
0.0244125
0.182544
0.021126
0.0210409
0.0649091
0.0351057
2.97936
0.0210779
0.373072
0.299657
0.0244151
0.0362311
0.0237416
0.656949
0.0215702
0.0253251
0.30577
0.0234061
0.0210907
0.164854
0.0217942
0.0205174
0.0210123
2.71218
0.021873
0.0255411
0.0452364
0.0353879
0.026026
0.0348314
0.212255
0.280023
0.242907
0.0201544
0.0216101
0.0223674
0.0250731
0.0214017
0.648045
0.306845
0.023759
0.0529706
0.251177
0.351267
0.0216489
0.312297
0.0212665
0.311968
0.0584768
0.0206483
0.145151
0.43415
0.0208684
0.0215362
0.0214544
3.02179
0.060625
0.0283057
0.0443905
0.174795
0.127581
2.86096
0.296235
0.0214888
0.0213994
2.25629
0.45567
0.0211038
0.0213184
0.0202972
0.0219808
0.021669
0.0250663
0.0827126
0.0213056
0.0243663
0.61288
0.0218287
0.0217766
0.0253453
0.674064
0.0216197
0.0240078
0.277015
0.022112
0.0201834
0.0222199
0.0209416
0.0230059
0.278988
0.292759
0.0220128
0.282041
0.0268933
0.191335
0.0213638
0.0229699
0.0227902
0.0218838
0.317132
0.0219124
0.0223164
0.0283152
0.0224254
0.0235494
0.0253825
0.0212351
0.0926092
0.0215764
0.021056
0.45434
0.021103
0.726821
0.0275241
0.0209918
0.0636498
0.023515
0.0309001
0.0426419
0.020234
0.0453426
0.0209992
0.0213893
0.147691
0.441825
0.0202514
0.0215548
0.0207209
0.0217976
0.0638315
0.0226196
0.021619
0.0221456
0.0226839
0.0223066
0.0213123
0.0203381
0.0209724
0.0211968
0.396862
0.0248883
0.0200551
0.0361955
0.0219246
0.466205
0.219273
0.0307508
0.0215311
0.0212557
0.0588394
0.0239965
0.0214634
0.0217921
0.293466
0.294845
0.0213741
0.0198458
0.0540143
0.0502073
0.0197043
0.194564
0.0382929
0.0214906
0.0221407
0.026222
0.0217283
0.0297482
0.323476
0.0222682
0.0640391
0.0280875
0.174683
0.0198503
0.021374
0.0198659
0.0198468
0.300385
0.0210991
0.0335356
0.0445096
0.0198532
0.0222244
0.0283516
0.0216972
0.0217898
0.0213901
0.0226129
0.402518
0.0198611
0.0215537
0.249733
0.0225169
0.0217198
0.0237442
0.0211167
0.0217512
0.0212079
0.0215345
0.0243335
0.0218052
0.129509
0.676516
0.0198665
0.0214378
0.0198615
0.0731747
0.0210242
0.025379
0.0213195
0.0202102
0.0300237
0.0204463
0.0286786
0.0214245
0.0204602
0.252495
0.396857
0.0217631
0.0216231
0.0209705
0.406357
0.0695795
0.0213918
0.277862
0.724363
0.0220612
0.114622
0.302546
0.0248942
0.278298
0.0396068
0.0510858
0.0212155
0.0301006
0.0927072
0.0204089
0.272702
2.6485
0.0213919
2.62726
2.59204
0.0240629
0.286899
0.0198656
0.0274952
0.045548
0.0212553
0.316495
0.0198961
0.0376346
0.0645997
0.0198576
0.61255
0.0219546
0.0219578
0.031903
0.0240745
2.99659
2.10129
0.0202284
0.0248299
2.65581
0.0207486
0.024781
0.0208536
0.288314
0.697705
0.0223207
0.0218454
0.0249198
2.95623
2.3606
0.0282432
0.0198741
0.0209277
2.112
0.0520224
0.40175
0.0235511
0.0236003
0.0260494
0.0201457
0.0224412
0.024553
0.0236798
0.0209785
0.0244204
0.32362
0.0597803
0.0209837
0.993692
0.0249135
0.0596203
2.97466
0.0418365
0.713094
0.159218
0.0198827
0.102054
0.114173
0.437232
0.267399
0.0212837
0.122367
0.312415
0.0436576
0.0266163
0.239801
0.293229
0.0210919
0.0254929
0.0246403
0.0212341
0.0570015
0.0212997
0.0220847
0.0206506
0.0199365
0.0218675
0.0213907
0.0232759
0.0253825
0.421003
0.0245503
0.312761
0.0208682
0.0260997
0.0216509
2.17166
0.494522
0.0212051
0.0457444
0.021952
0.0202285
0.0213026
0.0201933
0.0210875
0.0691183
0.0217189
0.262721
0.0212692
0.020959
0.351837
0.0225274
0.0219801
0.0211429
0.0212884
0.0479561
0.0567998
0.329893
1.74706
0.682625
0.0215939
0.0218856
0.0219969
0.0244709
0.0395193
0.0651392
1.97402
0.0209963
0.0436716
0.0224979
0.261493
2.54385
0.0247774
2.52547
1.92744
0.0227637
0.0417327
0.020994
0.0412086
0.0232379
0.075306
0.0401914
0.0199031
2.49999
0.285452
0.0217967
0.0231194
0.0221421
2.33556
0.0212701
0.0218947
0.351015
0.020845
0.130043
0.0277826
0.0239814
0.0224267
0.0220119
0.645275
0.0211624
0.395406
0.0246087
0.0213254
0.0207609
0.0388786
0.0230589
2.0439
0.0227256
0.0245839
0.0261671
0.0653057
0.0233482
0.0213607
0.249009
0.0218064
0.0204368
0.0370855
0.217291
0.0244898
0.0205366
0.0224902
0.133875
0.0617289
0.0211684
0.216261
0.0211605
0.104843
0.0340489
0.0221921
0.0211328
0.0851236
0.02098
0.020774
0.021381
0.0675371
2.03185
0.0297858
0.0243378
0.0219452
0.0223003
0.305192
0.0290491
0.0217556
0.0218531
0.0210543
0.0580083
1.8937
1.89986
0.0212452
0.122301
0.0202246
0.0201772
0.0228911
0.0222464
0.0412918
0.0213621
0.0368144
0.299014
2.81317
0.0244567
0.0215701
0.0216224
0.0398188
0.0206343
0.0212871
0.0361736
0.0215789
0.0212855
0.0226147
0.0243695
0.0200841
2.85686
0.0384005
0.0241058
0.0239221
0.0316791
0.0236091
2.01827
0.0213845
0.0212743
0.0215474
0.0210664
0.0215218
0.0209787
0.981523
0.0754581
0.0216854
0.022104
0.0212612
0.0240757
0.0236157
0.0519445
0.0224362
2.85488
0.0213172
0.022139
0.0211448
0.0677547
0.0215423
2.5536
0.0215272
0.0216153
0.0195768
2.2716
0.0238719
0.0341124
2.0489
0.022279
0.0215343
0.0211467
0.0214244
0.0284602
0.022035
0.0253847
0.336723
0.0216827
0.0613606
1.75737
0.0242722
0.0871707
0.0216296
0.0239304
0.0210127
0.0203936
0.020237
0.0213685
0.243677
0.0833935
0.0208698
0.693519
0.0600931
0.0212635
0.0662495
0.0203658
0.0359717
0.0222364
0.0210348
0.0770918
0.0215696
0.0226915
0.0254531
0.0557134
0.0640385
0.0223375
0.0209918
0.0229916
2.24533
0.0455014
0.0342377
0.0263628
0.0215155
0.021433
0.301185
0.0218463
0.030155
0.0340265
0.406555
0.0215433
0.0335302
0.0215727
0.0220604
0.0347531
0.0306218
0.0341807
0.0224222
0.0221433
0.026634
0.369509
0.0434114
0.0204352
0.0252089
0.0744511
0.0242756
0.0411903
0.0217611
0.0219597
0.0213543
0.0256649
0.686927
0.0567331
0.0215563
0.0815792
0.0241131
0.0275223
0.0215742
0.021357
0.0213712
0.0205022
0.0517405
0.0235719
0.0229978
0.0224361
0.0213826
0.0215235
1.29031
0.0214189
0.0214131
0.0220205
0.593208
1.15661
0.0214964
0.0211921
0.0215204
0.143282
0.0224199
1.63683
0.0215508
0.0483935
0.021508
0.021774
0.0412499
0.0218893
0.0321292
0.0218947
0.0214568
0.0203811
0.0232353
0.1825
0.02197
0.0223065
0.321539
0.0216543
0.022809
0.0223628
0.0217402
0.0212734
0.0223456
0.229326
0.0207895
0.0208557
0.0209581
0.169305
0.0253432
0.369161
0.0216147
0.0218885
0.691806
0.292008
0.25126
0.025899
0.0312208
0.290173
0.0216068
0.353191
0.0221732
0.103086
0.0209994
0.0374836
0.046654
0.0195904
0.0248827
0.0234982
0.0228198
0.0200861
0.399508
0.0209207
0.27862
0.0218475
0.0214086
0.0220421
0.0201149
0.0220627
0.188771
0.0213761
0.0211507
0.021151
0.021709
0.0213889
0.038143
0.674368
0.331955
0.0216008
0.0208573
0.0242993
0.0215264
0.0213505
0.0866994
0.0376219
0.022586
0.0213274
0.0428274
0.0235117
0.0574998
0.353359
0.0235165
0.0203365
0.0212933
0.0297617
0.584346
0.0215478
0.0212372
0.0209888
0.123793
0.0409009
0.541717
0.0213258
0.0240843
0.023858
0.0200188
0.0219612
0.115516
0.380937
0.0729383
0.0212843
0.679936
0.0219611
0.0215827
0.0245464
0.0221949
0.0245362
0.0371868
0.0212543
0.021514
0.0213641
0.0209085
0.0200433
0.0211673
0.0266043
0.170585
0.0285865
0.0195779
0.0200589
0.0212805
0.0220917
0.0213639
0.0372865
0.0222481
0.0222993
0.0222416
0.264136
0.0212646
0.0242987
0.738951
0.0213162
0.0213019
1.86726
0.0212426
0.0213716
0.0212358
2.48259
0.0262295
0.0415916
0.0220444
0.0688579
0.0207238
0.0201651
0.0204462
0.0212745
0.0358377
0.0212831
0.0217765
0.0401908
0.0213912
0.109147
0.0241201
0.030943
0.0219393
0.0365898
0.0296702
0.0215653
0.0211434
0.0220324
0.021653
0.0213534
0.148638
0.0209772
0.0418526
0.0211852
0.0216799
2.18081
0.0210843
0.11418
0.0669058
0.0213258
0.108443
0.0211654
0.0218917
0.0212642
0.0220236
0.0207623
0.0213671
0.021336
0.0214144
0.544049
0.0215852
0.0209727
0.0220579
0.0208305
0.0212245
0.0212265
0.0214328
0.0205288
0.0213148
0.0212969
0.0213811
0.0212781
0.0222518
0.145189
0.0215331
0.0219693
0.185956
0.149865
0.0212519
0.0285095
0.0209928
0.0213354
0.0213111
0.0215061
0.510921
0.185631
0.0211231
0.0233249
0.311975
0.0216831
0.198709
0.328391
0.0200628
0.700169
0.0215429
0.0316804
0.0254126
0.206515
0.0957563
0.391268
0.0210027
0.021122
0.0203313
0.0261521
0.0616256
0.0230464
0.0633237
0.416742
0.0213842
2.37246
0.0265594
0.0220835
0.0204229
0.0347078
0.0340848
0.0213305
0.0210432
0.0206246
0.0243303
0.0242229
0.0246916
0.0241392
0.024498
0.614823
0.0210971
0.0212783
0.0211718
3.10296
0.0245108
0.0245669
2.61895
0.614802
0.177775
0.0210622
0.0243441
0.0212414
0.0320188
0.0213631
0.0224963
0.0326964
0.0245942
0.0667692
0.0199479
0.246862
0.0339517
0.0738426
0.318943
0.686032
0.0211349
0.0213529
0.0213444
0.535786
0.0214281
0.0208955
0.0213507
0.0314581
0.122509
0.252113
0.0242175
0.035688
0.581685
0.0395843
0.238072
0.0514648
0.0336247
0.0354056
0.665968
0.249813
0.0211235
0.0211372
0.021156
0.145327
0.0455342
0.0484985
0.0209449
0.0212602
0.0212559
2.86311
0.0211938
0.0212144
0.021073
0.0368934
0.0209694
0.0211741
0.0203526
0.0256003
0.0764509
0.0288578
0.0240083
0.0215612
2.23121
0.0300701
0.0204559
0.0213319
0.182236
0.281672
0.0216708
0.0217255
2.52655
0.0211782
0.0210201
0.0209887
0.0214839
0.258892
0.0210131
0.021652
0.0211308
0.0218143
0.021268
0.0211606
0.0210696
0.0212659
0.0213866
0.2513
0.0212545
0.020706
0.316901
0.048218
0.0287366
0.0524197
0.0209976
0.0399745
0.0212949
0.0298877
0.021099
0.656948
0.0211471
0.0212441
0.0201499
0.572961
0.0246057
0.021219
0.0711189
0.021239
0.0201517
0.0212455
0.022025
0.0284647
0.0209885
0.366265
0.021504
0.0291195
0.0373937
0.0213968
0.0307252
0.0210126
0.0206368
0.0212031
0.110354
0.0273723
0.0478265
0.0390521
0.0753484
0.0261152
0.0759568
0.0246752
0.0213425
0.0198278
2.56935
0.62357
0.0209905
0.0342362
0.0209929
0.0210384
0.325037
0.0205372
0.0213154
0.0391597
0.0551447
0.465616
0.0213345
0.0210499
0.0803822
0.0209655
0.0204341
0.0657633
0.021229
0.109459
0.0712211
0.176895
0.0213454
0.0226383
0.0211399
0.0201969
0.0254061
0.0216834
0.02141
0.033242
0.0207169
0.0839004
0.0214033
0.0228421
0.0239238
0.493837
0.0244253
0.0218295
0.193724
0.318172
0.0212715
0.5062
0.0217609
0.0213006
0.021379
0.0210162
0.0241445
0.0277769
0.5665
0.0211916
0.0242424
0.0219231
0.0197699
0.0210604
0.0213219
0.0256207
0.0208292
0.0212162
0.0220418
0.0214976
0.276155
0.0213739
0.0221868
0.0498889
0.0223724
0.020234
0.146393
0.446863
0.286085
0.110771
0.0541884
0.0205771
0.022463
0.671086
0.80827
0.273456
0.247094
0.117316
0.0215285
0.269355
0.372372
0.0216086
0.419373
0.0222479
0.551405
0.48762
0.121461
0.0223093
0.0210489
0.0474425
0.0213008
0.0214137
0.0124782
0.0617739
0.0213616
0.0214338
0.0211787
0.11074
0.0211181
0.0210871
0.0212442
0.0210131
0.021031
0.474048
0.0220581
0.0209757
0.0214306
0.0302132
0.458964
0.615048
0.0213214
0.0211583
0.0232853
0.0213107
0.0210083
0.0211371
1.92743
0.0212539
0.0369357
0.0211502
0.0215345
0.0203268
0.0213597
0.425397
0.498527
0.0205506
0.0217849
0.24994
0.346013
0.0678854
0.485439
0.0213525
0.0302897
0.0211236
0.0197577
0.0211246
0.0201677
0.0210806
0.0212599
0.0217351
0.967606
0.0200417
0.392098
0.569347
0.020174
0.0345397
0.0416884
0.0221849
0.0211417
0.0212171
0.0215261
0.0210846
0.319811
0.0198619
0.0211429
0.430976
0.0211154
0.0213133
0.0209911
0.356353
0.0213926
0.0213772
0.636342
0.0207011
0.0206213
0.0211136
0.10415
0.0212652
0.0196553
0.0211122
0.0200728
0.651072
0.0324492
0.0210494
0.0392811
0.0198065
0.0212796
0.0225871
0.249307
0.880759
0.0200456
0.0243585
0.021337
0.0211645
0.0211284
0.0211099
0.251951
0.322581
0.0213217
0.0221602
0.0264796
0.020969
0.0210862
0.0244824
0.0291899
0.664982
0.0213393
0.02447
0.472807
0.02114
0.0240893
0.637095
0.0815254
0.0207865
0.0209744
0.0211118
0.0211582
0.0209864
0.234953
0.0210714
0.45546
0.382203
0.0220562
0.0240808
0.24028
0.0214579
0.282457
0.092458
0.216169
0.0256498
0.0211967
0.0224858
0.2631
0.0208329
0.0580445
0.0209762
0.0200729
0.0200854
0.0201405
0.0211477
0.67744
0.0217015
0.309494
0.265873
0.0638216
0.489533
0.0197873
0.0213811
0.0230514
0.396397
0.0211828
0.7658
0.0247255
0.0200524
0.0209477
0.233084
0.0209504
0.0265979
0.141261
0.021061
0.297067
0.0220778
0.0481363
0.0614939
0.0213975
0.0206128
0.0382548
0.0662146
0.0212304
0.0235801
0.0201898
0.0224021
0.0208944
0.151086
0.0210261
0.0208897
0.196896
0.0201268
0.291045
0.0214173
0.0211862
0.0211795
0.655964
0.0210021
0.020918
0.746608
0.0612541
0.384993
0.0216357
0.0201428
0.0375487
0.792608
0.38727
0.730148
0.0239302
0.024295
0.0216468
0.0212893
0.0245799
0.0219846
0.0211462
0.0203979
0.0366315
0.0245366
0.0209431
0.0196332
0.0216027
0.0205977
0.0216511
0.0223994
0.220523
0.714422
0.0259466
1.1213
0.37256
0.0206656
0.0209582
0.0223848
0.0370496
0.0202713
0.021724
0.0209255
0.0210334
0.0211579
0.0471154
0.0213047
0.0442669
0.0212739
0.0209295
0.348175
0.0385522
0.0218041
0.0209442
0.0208805
0.685967
0.247802
0.0215641
0.0202415
0.0216136
0.0209536
0.021248
0.0210259
0.0790632
0.0210021
0.0208713
0.296184
0.0204883
0.0651069
0.0241037
0.0210469
0.0213381
0.265158
0.0610078
0.4204
0.758705
0.0239243
0.022385
0.0218174
0.021251
0.0280075
0.0208791
0.724424
0.46884
0.0230842
0.0755276
0.252097
0.0209109
0.278604
0.0251734
1.94522
0.0211125
0.0208168
0.0208432
0.0219746
0.0210895
0.0983463
0.41312
0.0418088
0.0212031
0.020972
0.0208753
0.132089
0.0252365
0.392069
0.0208979
0.0215562
0.0383535
0.0210691
0.277589
0.0773638
0.0209053
0.0214271
0.0197426
0.0212552
0.271194
0.161057
0.0208822
0.0210714
0.0207
0.23729
0.0211608
0.0240804
0.132497
0.299172
1.97627
0.326908
0.661701
0.0212537
0.0284243
0.0216218
0.021101
0.0232616
0.0301923
0.0204752
0.021137
0.0463346
0.0212875
0.0206001
0.317627
0.0203464
0.0211176
0.0415453
0.0275668
0.0200896
0.0202134
0.0457931
0.0655302
0.0377409
0.225221
0.0237854
0.691102
0.0209814
0.121613
0.0887316
0.0703154
0.474363
0.0245636
0.678629
0.0351366
2.99564
0.0206263
0.0210179
0.0202392
0.021272
0.0300554
0.0207943
0.0496651
0.0211787
0.0222863
0.0213668
0.440347
0.0213242
0.216776
0.0254055
0.0262201
0.105716
0.0755278
0.256495
0.0197235
0.0387588
0.0212659
0.246625
0.0214739
0.110345
0.0419445
0.0275854
0.627223
0.02082
0.393862
0.0240392
0.0261522
0.0214278
0.78868
0.0216088
0.0209031
0.021214
0.0233615
0.0215316
0.0288438
0.0355686
0.0282251
0.0556546
0.0208459
0.0200653
0.768832
0.0362701
0.297989
0.0578104
0.0209312
0.234626
0.438348
0.0477679
0.0207112
0.0379119
0.232389
0.0208014
0.0229631
0.0197996
0.375209
0.40855
0.272656
0.0389202
0.0208236
0.0206878
0.0218986
0.0201872
0.0222839
0.0242086
0.0223616
0.020423
0.0337546
0.0226287
0.0215526
0.0245461
0.416607
0.043224
0.0216643
0.0278891
0.0237614
0.289872
0.0208236
0.274154
0.0213069
0.0355536
1.87018
0.022076
0.664768
0.0204153
0.0200617
0.0208534
0.0208522
0.0206807
0.020899
0.0197751
0.275192
0.0240449
0.021015
0.0405951
0.0209169
0.0217215
0.0206639
0.542247
0.0211536
0.0233425
0.0358777
0.0345849
0.0209088
0.019787
0.560257
0.0212207
0.268273
1.79344
0.0217147
0.0218325
0.0353238
0.0402447
0.0478243
0.0201991
0.0206583
0.0226927
0.0300019
0.0235037
0.0407291
0.0340844
0.0219042
0.0218543
0.0261578
0.0223793
0.0322632
0.0514973
0.0205624
0.346097
0.0326882
0.0212861
0.0209361
0.0209493
0.0209185
0.0206657
0.021023
0.020768
0.0224992
0.0330416
0.0238274
0.0213668
0.0236167
0.0250259
0.0206052
0.0207347
0.474371
0.022616
0.0241934
0.0205851
0.0220829
0.0205581
0.020035
0.348395
0.0213479
0.0210668
0.0396592
0.0684623
0.0198351
0.0209053
0.0907787
0.0215493
0.061019
0.0250098
0.0221214
0.0546693
0.0207075
0.0203122
0.491195
0.020847
0.049684
0.138861
0.0195317
0.0241383
0.38666
0.0216737
0.0208877
0.0221649
0.0206715
0.0319012
0.0407892
0.0208861
0.157655
0.14051
0.0197339
0.0206944
0.0336877
0.0320505
0.452687
0.0273468
0.252761
0.25651
0.0212494
0.685734
0.249233
0.0403789
0.0500811
0.045628
0.0444577
0.0197682
0.373158
0.0576825
0.0198413
0.840366
0.491861
0.236982
0.0196449
0.0393209
0.0204116
0.0206941
2.0346
0.692615
0.0207017
0.02164
0.129599
0.019856
0.0271362
0.0208275
0.063944
0.370792
0.0225005
0.0215392
0.293204
0.0491854
0.49942
0.29058
0.0209255
0.259394
0.0210292
0.312887
0.0267042
0.0204875
0.490677
0.0217263
0.038472
0.0213624
2.01157
0.0211131
0.0214604
0.0202419
0.0213858
0.020509
0.0218898
2.59006
0.615964
0.0206059
1.96922
0.389907
0.0203315
0.0205664
0.256465
0.0237605
2.64935
0.300444
0.491416
0.0205703
0.0212152
0.386708
0.0253939
0.37146
0.0297261
0.0206381
0.0212477
0.0208834
0.0198142
0.0206117
0.03753
0.0205899
0.242916
0.0209137
0.0213641
0.0614576
0.0197734
0.0369336
0.682262
0.020901
0.020805
0.0209646
0.029877
0.0196444
0.0201823
0.0260191
0.109232
0.0302454
0.0219248
0.0332637
0.0205358
0.0212165
0.0212544
0.49609
0.356132
0.086187
0.404138
0.0319316
0.174088
0.0696603
0.021025
0.024559
0.0196533
0.0196748
0.027847
0.0208344
0.304021
0.252845
0.0248298
0.635444
0.0281659
0.446467
0.228111
0.0200617
0.348186
0.0237915
0.321362
0.0213369
0.0204643
0.0201266
0.0302519
0.476245
0.258807
0.442347
0.0209695
2.47365
0.0205933
0.407782
0.344736
0.0204855
0.0231082
0.0211159
0.646007
0.320179
0.0217377
0.019641
0.0369937
0.0238673
0.352666
0.0215233
0.0211791
0.279285
0.254731
0.0205346
0.0242141
0.0207254
0.0238912
0.0215967
0.297226
0.0207177
0.0223569
0.235147
0.0213433
0.020863
0.253472
0.348735
0.021518
0.0215609
0.0217772
0.020602
0.0205098
0.191487
0.43485
0.0209461
0.0262335
0.0208477
0.0213631
0.0213528
0.0211352
0.301691
0.4334
0.0288992
0.0846735
0.0207651
0.0272642
0.0208467
0.0216502
0.0864845
0.0218822
0.362112
0.0207466
0.389488
0.0214808
0.314026
0.40765
0.0205205
0.0208432
0.0452573
0.0383638
0.132814
0.310439
0.334273
0.297891
0.0242413
0.0211924
0.0573972
0.0207791
0.117053
0.019981
0.269303
0.0304534
0.0208706
0.0215006
0.020905
0.032641
0.277574
0.0212398
0.332902
0.0227106
0.046668
0.02048
0.0247012
0.302006
0.0204508
0.68229
0.130534
0.020201
0.359731
0.19826
0.135554
0.0204685
0.320301
0.0209221
0.0202326
0.0350678
0.0204724
0.366335
0.0200145
0.0208429
0.02052
0.0238748
0.0586515
0.0207592
0.355992
0.0197943
0.0253431
0.0228442
0.0211868
0.4261
0.339166
0.0328018
0.0809204
0.0214394
0.0205416
0.94118
0.0204953
0.0203837
0.0208772
1.82713
0.20913
0.0481347
1.88384
0.020115
0.0210381
0.0212049
0.0385248
0.020679
0.042086
0.0109899
0.0212422
0.0464731
0.0438223
0.266952
0.0204088
0.0204446
0.0232492
0.0213385
0.596946
0.155191
0.0203392
0.0248911
0.0207141
0.442545
0.103755
0.0210749
0.0247403
0.0209813
0.0213384
0.0198179
0.0215934
0.0847031
0.0469559
0.0204447
0.396433
0.051846
0.0198884
0.44581
0.0206187
0.0208914
0.271555
0.0204087
0.168127
0.0198292
0.0277372
0.550263
0.0197679
0.0201021
0.0209877
1.48612
0.0253383
2.23021
0.380002
0.026348
0.0237322
0.356961
0.0205052
0.606858
0.0331252
0.0206509
0.252675
0.68827
0.318495
2.08493
0.2389
0.0203941
0.423499
0.188079
0.25339
0.0853373
0.0204756
0.0203509
0.0207507
0.501807
0.0203211
0.0201519
0.0566129
0.032932
0.0213095
0.0203692
0.0208821
0.0202949
0.0206275
0.403374
0.0208291
0.25846
0.296649
0.0492538
0.0242342
0.020636
0.0204207
0.378512
0.291195
0.440134
0.280158
0.0205077
0.0206809
0.03995
0.0924518
0.279564
0.0204346
0.0374214
0.335043
0.0199596
0.0355444
0.0298248
0.0201442
0.0209762
0.0208811
0.0213106
0.0201006
0.131173
0.486552
0.0209132
0.26453
0.0213715
0.033875
0.0209069
0.0213423
0.0299932
0.289861
0.0264963
0.0203434
0.0198278
0.0203041
0.0203014
0.357244
0.0341126
0.0756321
0.0623169
0.0543617
0.0542586
0.0203331
0.0306994
0.173471
0.0212478
0.295084
0.0226735
0.0197677
0.107254
0.618757
0.0223489
0.0358113
0.259882
0.60121
0.031127
0.0202798
0.0240132
0.0207151
0.252581
0.0206879
0.0646933
0.161937
0.032005
0.232984
0.0334492
0.0292065
0.0396035
0.0210226
0.0203569
0.0209273
0.0208593
0.235783
0.0206294
0.0206418
0.0236183
0.0215131
0.0201933
0.0700529
0.25779
0.284978
0.0202193
0.226821
0.120184
0.129836
0.0210822
0.0203867
0.0228699
0.0201697
0.33756
0.0254109
0.0202913
0.0314699
0.0205789
0.324777
0.0525036
0.0206148
0.676583
0.212781
0.0203621
0.31983
0.354489
0.285171
0.0210361
0.0477581
0.415072
0.0196494
0.0205057
0.271885
0.0266678
0.0209793
0.437877
0.0210874
0.0204162
0.0205211
0.0203546
0.261006
0.020178
0.0203837
0.313837
0.0245098
0.0204965
0.0208357
0.259501
0.0462636
0.0215934
0.029758
0.0203921
0.688135
0.0558998
0.0216243
0.0202204
0.607362
0.38526
0.022915
0.0201182
0.257497
0.023215
0.0202029
0.691174
0.0209312
0.180458
0.020471
0.226069
0.187692
0.187922
0.0394896
0.0204222
0.0437095
0.0210885
0.0268299
0.109184
0.0201558
0.173542
0.0206451
0.358965
0.0206985
0.0203573
0.0199844
0.0204559
0.0202325
0.0201155
0.0565527
0.0215016
0.0661885
0.0225807
0.0197726
0.0229699
0.0305059
0.0205535
0.227025
0.0202753
0.0210973
0.333541
0.0217124
0.239962
0.0238954
0.0327886
0.0200931
0.02014
0.022222
0.0215646