/*--------------------------------*- C++ -*----------------------------------*\
| =========                 |                                                 |
| \\      /  F ield         | OpenFOAM: The Open Source CFD Toolbox           |
|  \\    /   O peration     | Version:  v2012                                 |
|   \\  /    A nd           | Website:  www.openfoam.com                      |
|    \\/     M anipulation  |                                                 |
\*---------------------------------------------------------------------------*/
FoamFile
{
    version     2.0;
    format      ascii;
    class       surfaceScalarField;
    location    "550";
    object      phi;
}
// * * * * * * * * * * * * * * * * * * * * * * * * * * * * * * * * * * * * * //

dimensions      [0 3 -1 0 0 0 0];
oriented        oriented;


internalField   nonuniform List<scalar> 
14516
(
0.398133
-0.289356
-0.108833
-0.776897
0.442003
0.334888
0.256797
0.141274
0.432723
0.0110456
-0.443891
0.162449
0.014246
-0.176735
0.271124
-0.520069
0.248908
0.388699
-0.645006
0.256082
0.148319
0.412999
-0.561352
0.388411
-0.380403
-0.00798194
0.209153
-0.0467499
0.258462
-0.0115125
-0.246972
0.178522
-0.352639
0.174101
-0.165504
0.598186
0.62228
-0.382301
-0.239968
0.613158
-0.613503
-0.410574
0.663718
-0.253146
0.143331
-0.533602
0.390318
0.563202
-0.419915
0.163877
-0.412986
0.24908
0.211717
0.4109
-0.210491
-0.200417
0.411631
-0.197267
-0.214303
0.217237
-0.471439
0.25419
-0.306176
-0.30254
0.339345
-0.557175
0.217777
0.45883
-0.624353
0.412596
-0.670703
0.258096
0.677086
-0.445521
-0.231533
0.067162
-0.234824
0.167625
-0.0339326
0.422395
0.344722
-0.00391282
-0.340855
0.536951
-0.319745
-0.206205
0.575803
-0.36967
-0.592671
0.599704
-0.00707012
-0.269583
0.0697477
0.199816
0.169152
-0.403291
0.234119
0.568004
-0.1794
0.247924
0.163769
0.215265
0.33293
-0.548308
0.684497
-0.35878
-0.325658
-0.0540845
0.398765
0.0802851
0.532536
-0.561723
0.0371361
0.524535
0.674882
-0.366792
-0.308244
0.0340206
-0.595773
0.495959
-0.202431
-0.631897
0.267949
0.363942
0.393535
-0.295451
-0.0980616
-0.406218
0.417105
0.272618
-0.202891
0.287217
-0.175329
-0.1119
-0.210251
0.455262
-0.244999
-0.205846
-0.190472
0.39629
0.398178
-0.191999
-0.206195
-0.201202
-0.172542
0.3737
0.30982
0.199213
0.089074
-0.218122
0.129031
0.335551
-0.393343
0.0577302
-0.279093
0.494381
-0.667323
0.442641
0.224665
-0.263225
0.463919
-0.20068
0.407996
-0.0918819
-0.316115
-0.574569
0.0939855
0.480325
-0.0338652
0.165854
-0.570108
0.215037
0.355073
0.00276013
0.405216
-0.322571
-0.0441548
0.366741
0.345408
-0.166909
0.300307
-0.041857
0.186918
0.211244
-0.495304
0.604954
-0.109648
0.291051
-0.53506
0.244134
0.244815
0.381767
-0.626575
0.405495
-0.132901
0.436733
-0.101244
-0.583781
0.297268
0.286489
-0.515616
0.613529
-0.0979211
0.23032
-0.588864
0.35859
0.220526
-0.572979
0.352488
-0.336067
-0.234045
0.250594
-0.598363
0.347752
-0.440759
0.518557
-0.0777993
-0.717821
0.328161
0.389646
0.361762
-0.415864
-0.647028
0.29891
0.348097
-0.364411
0.585001
-0.533733
0.293433
0.240299
-0.167838
-0.333043
0.500855
-0.284679
0.610592
-0.325966
-0.351738
-0.425163
-0.14932
0.0315079
0.117801
-0.190319
-0.344694
0.534997
0.304574
0.232349
-0.431054
-0.345948
-0.371886
0.166873
-0.368085
0.141487
-0.582252
-0.530576
0.340223
0.723311
-0.28974
-0.433593
0.400467
0.322819
-0.290953
0.610514
-0.319603
-0.197094
0.534903
-0.337869
0.340816
-0.537969
0.141569
-0.657203
-0.068758
0.430522
0.0217106
-0.354729
0.434436
-0.640889
0.206407
0.264094
-0.474375
-0.666062
0.400447
0.26563
-0.539505
0.0442028
-0.407146
0.219058
0.188103
0.242785
0.216711
-0.371317
0.110957
0.260302
0.155283
0.131924
-0.273995
-0.54629
0.183253
0.362975
0.234
0.171468
0.572756
-0.322182
-0.233737
0.53825
-0.440786
-0.225261
0.0425677
0.441013
-0.483577
0.287829
0.227659
-0.515621
0.430439
-0.159342
-0.456923
0.238781
0.218146
0.203284
0.207609
0.0829697
-0.233363
0.15037
-0.291973
-0.355076
0.571388
-0.341039
0.0943411
-0.42727
0.332963
-0.702443
0.484383
0.218056
-0.236467
0.388878
-0.294485
0.598059
-0.418775
-0.179282
0.354296
-0.388225
-0.525019
0.239003
0.286006
-0.00102703
-0.573721
0.441143
0.233596
0.52376
-0.281297
0.389902
0.228234
-0.618145
0.485973
-0.19823
0.306877
-0.516083
0.209164
0.682233
-0.302692
-0.3797
-0.700215
0.292266
0.407963
0.277141
-0.659427
-0.614922
0.369734
0.245186
-0.697458
0.331106
0.36634
-0.383466
-0.316735
-0.171338
0.517015
-0.345727
-0.0683635
-0.0809652
-0.169884
0.244397
-0.074537
-0.353105
-0.349341
0.0438425
-0.213763
0.21182
-0.00271648
-0.504856
0.333465
-0.37449
0.41706
0.678913
-0.322673
-0.356258
0.51062
-0.20377
-0.752924
0.369444
0.287209
0.394892
-0.353077
0.501431
0.314034
0.363081
-0.618679
0.407124
0.21156
-0.36927
0.115748
0.253514
0.224357
-0.632557
0.408186
0.263856
-0.474393
-0.332993
-0.180847
-0.153142
0.333986
-0.226807
0.639398
-0.605549
0.289966
0.315575
0.0915399
-0.467969
0.376261
-0.539835
0.239668
0.300147
-0.432359
0.656688
-0.371257
-0.16862
-0.490702
0.258711
0.232014
-0.205399
-0.231596
0.214065
0.364161
-0.578234
0.583466
-0.259982
-0.32349
-0.0570613
0.242877
-0.185809
-0.0116104
0.0889212
-0.0773153
-0.169882
-0.144441
0.314336
-0.35247
-0.176775
0.353918
-0.447055
0.0930729
-0.246493
0.537613
0.231546
-0.142499
0.346289
0.237169
-0.501749
0.283341
0.218266
-0.391931
-0.226743
-0.222902
-0.26778
-0.42124
0.483728
-0.0625251
0.307922
0.0856401
-0.211055
-0.196077
-0.319783
-0.258844
0.201799
0.112226
-0.353477
0.241228
0.553337
-0.324064
-0.229293
0.0109562
0.20081
0.537142
-0.147255
-2.59419e-05
0.354324
-0.344179
0.456476
-0.112315
-0.356003
0.183403
0.200981
0.271401
-0.472366
0.466642
-0.227667
-0.477215
0.618779
0.433008
-0.644264
0.335942
0.308335
0.354497
-0.423223
-0.249786
0.369366
-0.119514
0.344962
-0.137374
-0.207605
0.456593
-0.148628
-0.389257
0.0938103
0.203766
-0.409604
0.351363
-0.239147
0.435355
0.24354
0.580265
-0.351014
-0.229232
0.432151
-0.0782828
0.072696
-0.549914
0.207361
0.0959707
-0.303363
-0.366814
0.21489
0.151846
0.51197
-0.330035
-0.181937
-0.198208
-0.588768
0.16745
0.640647
-0.312497
-0.22844
-0.304083
-0.216025
0.218847
0.321937
-0.540816
-0.188761
-0.178123
-0.26116
0.10547
0.155682
-0.679568
0.373395
-0.621122
0.318576
-0.317539
0.14768
0.609081
-0.160317
-0.448786
0.0968117
-0.235247
0.138426
-0.0976206
0.304966
-0.285078
-0.224713
0.509596
-0.204698
-0.332222
0.536778
0.372953
-0.206093
-0.643132
0.402446
0.24063
-0.075043
0.429596
-0.62749
0.311706
0.315789
-0.553621
0.328401
0.225086
0.301731
-0.507948
-0.313325
0.541727
-0.228466
0.188992
0.327972
0.64245
-0.229444
0.29394
0.216638
-0.34162
-0.148313
-0.444382
0.419464
-0.232128
-0.187338
0.115331
-0.291393
0.176068
0.30333
-0.148057
-0.244379
0.10686
0.137509
-0.305919
-0.206969
0.512715
-0.435885
0.224276
0.211653
0.211802
0.283921
-0.495815
0.28601
-0.170672
0.516931
-0.327025
-0.189958
-0.66961
0.323796
0.345837
-0.437208
0.522672
-0.0854622
-0.518056
0.125665
0.177657
0.42623
0.176926
-0.603162
-0.347937
0.167084
-0.48161
-0.0372884
0.5189
-0.701135
0.219533
0.159088
0.185859
0.302962
0.1535
-0.378783
0.485333
-0.106639
-0.25728
-0.412311
0.601275
-0.382521
-0.218794
0.137211
-0.337229
0.2
0.507968
-0.29975
-0.2082
0.660903
-0.549777
-0.111119
0.588803
0.0721052
-0.226212
-0.4285
0.217463
0.623435
-0.353822
-0.269674
-0.161421
0.502699
-0.208819
-0.597557
0.196388
0.401173
0.554089
0.0116913
-0.565884
0.245434
0.43911
0.348555
0.163418
0.220409
0.199051
-0.0115414
-0.24278
0.254322
-0.674685
0.435849
0.238631
0.254721
0.211894
0.238422
-0.398364
-0.147979
-0.464848
0.211252
0.253479
0.201115
0.274519
0.34396
-0.61849
0.36236
0.235697
-0.391582
0.189791
0.201805
0.228649
-0.24018
0.335377
0.243495
-0.578873
0.470744
-0.292539
-0.178257
-0.286051
0.417382
-0.260939
-0.156414
0.384388
-0.500937
0.116606
-0.102944
0.53734
0.381621
-0.626698
0.244955
0.611286
-0.487988
-0.123278
0.317144
-0.179948
0.369929
-0.316208
-0.0537081
-0.285609
-0.216818
0.502371
0.345435
0.0719668
0.639171
-0.362667
-0.2765
0.481226
0.130078
0.355039
0.0149036
0.234466
-0.409762
0.175306
0.161176
0.215775
-0.376951
0.258911
-0.543647
0.348664
-0.274112
-0.251778
0.525876
0.157291
0.183679
-0.340972
0.0548634
-0.304596
-0.276761
-0.260082
0.536828
-0.387755
0.0617651
-0.334638
0.272872
0.663077
-0.281308
0.652172
-0.579473
0.0774147
-0.0890316
-0.389587
0.185876
0.203735
-0.338501
-0.0549019
0.390345
-0.156387
-0.385129
-0.192504
0.57762
0.176415
0.17107
0.201532
0.270693
-0.561653
0.356482
-0.43147
0.295813
-0.17001
-0.125819
-0.316727
-0.266104
0.582847
0.272302
0.252218
-0.38482
0.384718
0.596321
-0.57027
-0.0260843
0.0934529
-0.538942
0.111907
0.231971
-0.343926
0.534024
-0.187687
0.245937
-0.522758
0.258406
-0.377313
-0.265873
0.292295
0.37142
0.614885
0.282388
0.089346
-0.371673
0.32573
-0.241588
0.213557
-0.423193
0.209631
-0.392115
0.0440067
0.348081
-0.173739
-0.244493
0.418231
0.233154
-0.0338076
0.353574
-0.319729
-0.412287
0.221806
-0.250154
-0.165094
0.41525
-0.407062
-0.0087935
-0.198774
0.207531
0.339765
-0.152863
0.103653
0.127871
0.191582
-0.200416
-0.166239
0.448674
-0.468957
-0.0947979
0.563702
0.468487
-0.117131
-0.370254
-0.297082
-0.506193
0.0689797
-0.280372
0.53926
0.0747227
0.534337
0.533097
-0.148653
-0.0898499
0.446385
0.328668
-0.26691
-0.0131974
-0.378931
0.224786
-0.127988
-0.328905
-0.0744042
-0.504696
0.249604
0.255093
-0.307801
0.532278
-0.224421
0.177374
0.110942
-0.274283
0.163335
-0.289283
-0.246277
-0.189568
0.159042
-0.398687
0.239678
-0.459326
0.390589
0.528637
-0.193165
-0.381059
0.180253
0.200853
0.57235
-0.596773
0.0244
0.162653
-0.521378
-0.378418
-0.253238
-0.454201
0.207987
-0.322066
0.288241
0.40383
-0.0646935
-0.339103
-0.0354552
0.0324362
0.520349
-0.185042
-0.335322
0.133841
-0.0973167
-0.16385
0.267729
0.354805
-0.62252
-0.685492
0.45625
0.229188
-0.0377477
-0.34713
-0.196263
-0.119419
0.31568
0.19439
0.325945
-0.281627
-0.345857
0.355144
-0.141176
-0.213986
0.418479
-0.244314
-0.174184
0.384355
0.216881
-0.0405031
-0.330864
0.150592
-0.482966
-0.20621
0.616691
-0.232377
0.188215
-0.345554
0.157302
0.389319
0.144761
0.263225
-0.152275
-0.2252
-0.320456
0.0221941
-0.493646
-0.546448
0.263506
0.282921
-0.178013
-0.283291
-0.263181
-0.601071
0.320657
-0.357097
-0.362579
-0.252345
-0.189957
-0.178603
0.368539
0.37715
0.246243
0.339452
-0.178275
0.120465
0.175077
0.229878
-0.404899
0.228165
0.288718
-0.199769
-0.200331
0.607448
0.360004
-0.117122
0.549798
-0.0391743
-0.510811
0.0513844
0.288073
-0.394806
0.634611
-0.239816
-0.541587
0.111519
0.430051
0.64688
-0.446106
-0.0954826
-0.361049
-0.244505
-0.47503
0.158745
0.316304
0.472992
-0.200768
0.560633
0.553711
0.0203064
-0.574155
0.351679
0.0521921
0.0950948
0.341578
0.324605
0.22871
0.208152
0.131593
-0.618739
-0.278175
0.369692
-0.195134
0.238919
0.179541
0.257323
-0.26125
-0.137638
0.279375
-0.141757
0.151059
0.305577
0.151201
0.0330133
-0.37443
0.341219
0.422104
-0.0881373
-0.333977
0.179564
0.180445
0.337967
-0.149794
0.583488
-0.318132
-0.237609
0.555727
0.400499
0.238674
-0.251603
-0.277324
0.528826
0.0788645
0.145909
-0.285942
0.513487
0.383557
0.226994
-0.212041
-0.289852
0.169947
0.364887
-0.109774
0.552385
-0.403494
0.174072
0.229337
0.0935114
0.169726
0.0965915
0.335509
-0.345894
0.515767
0.0620371
0.255086
0.624495
-0.260339
0.0867727
0.512897
0.6414
-0.316164
-0.325233
-0.214821
0.101007
0.3211
0.219237
-0.510198
0.258487
-0.628231
0.38882
0.239376
-0.409329
0.503137
-0.478802
0.212792
0.265986
-0.0501721
-0.390604
-0.317162
-0.357714
-0.335867
0.368633
-0.375645
-0.125236
0.348542
-0.438402
-0.184417
0.196865
-0.288788
-0.323951
0.495382
0.0769639
0.522162
-0.0959365
-0.196079
0.376402
-0.250666
0.302306
-0.250931
-0.00210297
-0.535494
0.537373
-0.292534
-0.288292
0.58087
0.198669
-0.522767
-0.256298
0.204734
-0.510787
-0.29988
0.28507
-0.159428
0.322351
-0.594345
0.271979
-0.352023
0.00708533
0.255844
-0.262934
0.608181
-0.318013
-0.290185
-0.260555
-0.204416
-0.33253
-0.256292
-0.162074
0.381145
0.21704
0.343472
-0.193725
-0.149755
-0.585462
-0.248694
-0.305057
-0.188394
0.293856
-0.216413
0.499654
0.0483929
0.190512
-0.238921
0.112677
0.420473
-0.179954
0.341489
0.266675
-0.021202
-0.101977
0.450492
0.356827
-0.558202
0.201338
0.254738
-0.481496
0.226742
0.111322
0.132446
-0.0955306
0.39769
-0.302212
-0.207435
0.564213
-0.0679575
0.426215
-0.358332
-0.425295
0.329656
0.516745
-0.128396
0.248528
-0.241457
0.475256
-0.228855
0.483593
-0.272585
-0.227291
0.499841
-0.235098
-0.18631
0.421438
0.621323
-0.346813
-0.456623
0.388624
-0.206704
0.368735
-0.162043
-0.110925
0.21455
-0.597837
0.21527
0.275664
0.190508
-0.466191
-0.26974
0.073471
-0.191682
-0.270641
0.462381
0.588419
-0.392515
-0.19593
-0.367889
0.117707
0.268208
-0.181536
-0.362758
0.177955
0.0940549
0.0924247
-0.414504
-0.183048
-0.245113
-0.362215
0.11944
-0.366495
0.432755
-0.0662401
-0.554197
0.532978
-0.532442
-0.00113176
-0.239888
0.610973
-0.371094
-0.0599607
-0.409021
0.422686
-0.225881
-0.52142
0.185377
0.155692
-0.00845935
-0.147242
0.207716
-0.159335
0.14948
0.193984
0.15189
0.186033
-0.18289
-0.430854
0.093161
0.15323
-0.246401
-0.151536
0.427193
0.13855
-0.548997
0.410466
0.173651
0.223699
-0.397382
0.308859
-0.451061
0.142217
-0.627281
0.275155
0.352128
-0.392865
-0.171336
0.564202
0.470474
0.0835386
0.328625
-0.532752
0.073397
-0.176162
0.102748
0.624736
-0.281277
-0.343471
0.376068
0.241512
-0.617576
-0.158561
-0.145886
0.304458
-0.373217
0.251501
0.121765
-0.165314
-0.191327
-0.343642
-0.280845
0.499369
-0.218517
0.264763
-0.456362
-0.204788
0.469654
-0.26241
-0.150603
0.0429968
0.27437
-0.317472
0.240875
-0.559012
-0.0177852
0.26446
-0.246688
-0.363364
-0.382093
-0.258836
0.279707
-0.217678
0.204914
0.150211
0.273845
0.19013
-0.429494
0.23936
-0.236276
-0.268419
-0.249988
-0.112228
0.0239377
0.248937
-0.111952
-0.261218
-0.365436
-0.199968
0.565305
0.24021
0.22363
-0.389863
0.0577438
0.228272
-0.188148
0.422628
0.332956
-0.243554
-0.247104
0.51742
-0.270329
-0.499183
0.286032
0.213149
0.1848
-0.374773
0.15928
0.118353
-0.277638
-0.37506
-0.270122
-0.486024
0.205175
-0.595424
0.2199
0.375545
-0.311973
0.56043
-0.248551
-0.561536
0.249431
0.292973
0.565324
-0.406045
-0.159294
-0.334781
-0.273123
-0.501423
0.226076
0.339215
-0.604948
0.328563
0.276223
0.233422
-0.418841
0.185459
-0.27608
0.612042
-0.335962
0.105942
0.2227
0.507964
0.00761254
-0.515686
-0.223586
0.414964
-0.181521
0.21253
-0.188567
0.246559
-0.153414
-0.152755
0.534261
0.303485
-0.521082
0.217585
-0.275965
-0.210063
0.217401
0.33564
-0.553131
-0.374113
0.623539
-0.249434
0.492599
-0.170249
-0.622049
0.247922
-0.294995
0.540936
-0.258826
-0.240353
0.367573
0.257149
-0.230967
-0.104223
0.335161
-0.331372
-0.354171
-0.454271
0.534415
0.0196918
0.397573
-0.41732
0.457008
-0.148148
0.209983
-0.522179
0.312192
0.247502
0.36915
-0.0921171
-0.154869
0.0389168
-0.453421
-0.182203
-0.209744
0.391905
0.167193
-0.0938127
-0.291652
-0.265563
0.00609223
0.550107
-0.556403
0.211359
0.430042
-0.18265
-0.0354831
-0.26681
-0.328594
0.21723
-0.138383
0.121818
-0.533268
0.42607
-0.407135
0.517118
-0.110007
0.22979
-0.412028
-0.448938
0.39512
0.0537794
-0.368418
-0.219597
0.588008
-0.553267
0.279389
0.273838
0.216593
-0.611435
-0.373796
0.641525
-0.292301
0.179514
0.0591518
-0.238675
-0.492408
0.233069
-0.121757
-0.429281
-0.118165
-0.143274
-0.315662
-0.289456
-0.579804
0.293376
0.286447
-0.398261
0.575322
-0.177066
0.123783
0.161264
-0.224312
0.527768
-0.0484481
-0.213677
0.262141
-0.172596
0.396214
-0.331044
0.326199
0.526645
0.0741573
-0.472424
-0.141857
-0.115888
0.257737
-0.526975
0.231957
-0.429077
0.125095
0.0588102
0.0786768
-0.137494
0.232717
0.299618
0.392449
0.195947
-0.351378
-0.201924
-0.432531
0.567431
-0.134889
0.62116
-0.228737
0.345871
0.160763
-0.506666
-0.639152
0.277913
0.361233
0.615977
-0.387515
-0.228444
-0.34354
-0.0247181
0.368256
-0.412
0.151054
-0.298831
0.5086
-0.615565
0.309625
0.305875
-0.546186
0.0156683
0.530475
-0.581044
0.244234
0.336849
-0.647663
0.366377
0.357394
0.276102
0.3585
0.27599
-0.541555
0.265566
-0.131117
0.307562
-0.24221
0.584077
-0.341881
-0.410915
0.175845
-0.255793
0.118154
0.517415
-0.223919
-0.293516
0.410436
-0.192284
-0.0376181
0.428208
-0.436581
0.0930314
0.217493
-0.123064
-0.0944417
-0.371569
0.421308
-0.382391
0.545195
-0.129106
-0.416074
-0.262304
0.470893
-0.20861
-0.253598
-0.0774577
-0.573551
0.510265
0.0632183
-0.289927
0.6338
-0.343868
0.199301
0.328054
-0.52739
-0.241742
0.509702
0.115144
0.430064
0.405787
0.210208
0.0228646
-0.0401061
-0.487434
0.133515
0.143794
-0.302334
-0.302321
0.10352
-0.360628
0.250921
0.109646
-0.112945
-0.247744
-0.614163
0.270273
0.34388
0.532865
-0.333601
-0.380764
-0.0743907
0.33276
-0.474715
0.182131
-0.00106667
-0.372227
0.373374
-0.585832
0.193281
0.605379
-0.297055
0.550599
-0.25369
-0.513593
-0.332725
-0.247062
-0.482511
0.261873
0.220649
-0.192389
-0.259913
0.45225
0.150447
0.445838
0.479695
-0.532551
0.0528942
-0.0797145
-0.327464
-0.0902318
-0.625913
0.272855
0.353038
0.547365
-0.330026
-0.625309
0.32992
0.295337
0.124642
0.332369
-0.287025
-0.404128
-0.258403
0.023552
-0.255033
0.53101
-0.159821
0.560284
0.355293
-0.645221
-0.252134
-0.311808
0.563934
-0.181008
0.177258
-0.307355
0.130101
-0.173054
-0.143966
0.317022
-0.192247
0.109392
0.369581
-0.47896
0.10994
0.123117
0.198278
-0.566699
0.235609
-0.551597
0.315924
0.314827
0.202568
-0.00535352
0.485092
-0.257996
0.514619
-0.256599
-0.0226721
0.278689
-0.255992
0.510077
-0.59341
0.0833393
-0.205838
-0.19364
0.399486
-0.571647
0.337118
0.234501
-0.52929
0.298638
0.230674
-0.599955
0.249566
0.350386
-0.397235
0.640412
-0.243204
-0.558351
0.387569
0.170755
-0.32766
-0.0843405
-0.46665
0.212147
0.254548
0.334827
-0.182971
-0.0546375
0.404428
-0.349807
0.441195
-0.108171
-0.256998
0.208563
0.128558
-0.0511493
-0.0261895
0.487338
-0.461307
0.127592
0.0898887
0.315596
-0.567716
0.112531
-0.254403
-0.199201
-0.565958
0.289876
0.436268
0.0716138
-0.326483
-0.298878
0.140726
-0.109229
-0.594103
0.344394
0.249576
-0.182099
-0.194156
0.376312
-0.109388
0.550434
0.518527
-0.174571
-0.259706
0.337521
-0.138037
-0.199535
-0.618364
0.414024
0.204341
0.301971
0.221381
-0.533272
-0.540831
0.243744
-0.613965
0.299998
0.313985
0.243792
0.297941
-0.541834
0.408373
-0.200778
-0.307723
0.543286
0.240342
0.380794
-0.434288
-0.136016
-0.524962
0.19226
0.505266
-0.1292
-0.175017
-0.177636
0.259436
-0.433204
-0.454745
-0.635331
0.328307
0.30696
-0.569017
0.22696
-0.346357
-0.26759
0.265522
-0.523511
-0.164422
0.116941
0.0474659
-0.4625
0.336488
0.125999
0.272253
0.198619
0.309296
-0.132022
-0.562167
0.322277
0.648614
-0.295589
-0.353028
-0.402167
0.540729
-0.360115
-0.188861
0.202265
0.135204
0.312457
-0.0751091
-0.237352
-0.170349
-0.209007
0.37942
-0.616083
0.318121
0.297976
-0.461958
0.210248
0.251713
-0.356875
0.546752
-0.18991
0.259224
-0.378105
-0.212666
0.386299
-0.316068
-0.274777
-0.0142749
-0.521256
0.535352
-0.194527
0.419157
-0.30985
0.261617
0.198294
-0.459996
-0.141682
-0.102759
0.244417
0.169924
0.261538
0.361992
-0.318942
-0.625887
0.395067
0.230792
-0.0946275
0.229796
0.234134
0.0957551
-0.528255
-0.305472
-0.272032
-0.350032
-0.54407
0.151217
0.0493663
0.283613
-0.332988
0.244857
-0.51401
0.499822
-0.650097
0.280056
0.370017
-0.207729
-0.324475
0.532157
0.288968
0.359643
0.529085
-0.317457
0.592614
0.206124
0.587903
-0.269774
0.333435
0.254476
0.636717
-0.287611
-0.349069
0.239816
0.280939
-0.520788
0.0873573
-0.368789
-0.375944
-0.213711
0.589653
0.0753265
0.05322
0.494972
-0.521312
0.326101
-0.370239
-0.43265
0.559437
-0.243802
-0.424333
0.118872
0.3055
-0.375855
-0.242508
0.326724
-0.381387
0.0409226
-0.0509067
0.00997987
-0.18941
-0.337582
0.527012
0.524574
-0.363784
-0.605895
0.258318
0.347567
0.193038
0.198304
-0.391386
-0.219622
0.103146
-0.559799
0.252846
0.306934
0.222821
-0.573801
-0.109213
-0.149221
-0.353156
-0.252749
-0.636362
0.364322
-0.293749
0.113526
0.180179
-0.560771
0.302692
0.258036
-0.321803
0.184431
-0.553811
0.231216
0.358597
-0.589826
-0.299073
-0.316889
0.615971
0.254428
-0.272236
-0.589664
0.245637
0.344025
0.28971
-0.60063
0.327507
-0.61425
0.361451
0.252788
0.323806
0.247611
-0.422207
0.159786
-0.110882
-0.182908
0.192949
-0.568898
-0.186497
0.162564
-0.458845
0.410873
0.0479801
-0.208741
0.386346
-0.177611
0.368194
-0.369203
0.120768
0.181305
-0.302067
0.199107
0.113341
-0.241226
-0.288045
0.315236
-0.522333
-0.201679
-0.272751
0.0383019
-0.269296
0.0877291
-0.0124114
-0.296104
0.532455
-0.236275
0.521826
-0.547081
0.133261
0.413805
0.521309
-0.522601
0.145035
-0.245478
0.10043
-0.316775
0.155359
0.161446
-0.0935494
-0.0893383
0.524969
0.282357
-0.123076
-0.566341
0.580163
-0.0138043
-0.551675
0.304123
0.247454
-0.529213
0.23316
-0.278076
-0.372043
0.169424
0.248805
-0.592551
0.226999
0.306615
-0.530934
-0.0776914
-0.0867449
-0.427767
0.245895
0.181891
0.157651
0.115338
-0.268723
0.510028
-0.241247
-0.102577
0.247608
0.191527
-0.397356
0.157427
0.177365
0.57442
-0.336252
-0.238165
-0.247399
-0.274005
0.228474
-0.347402
0.176548
0.232001
-0.408577
0.191175
-0.335134
-0.316082
-0.243737
-0.0997851
0.555927
-0.337868
-0.25354
-0.385619
-0.145675
0.258059
0.256584
-0.385572
-0.358185
-0.151104
0.509313
0.400222
0.633196
0.270262
0.229112
0.235698
-0.108119
-0.324225
-0.229872
0.554031
0.370614
0.323409
-0.561031
0.335666
-0.614984
0.279264
0.232135
-0.418438
0.591338
-0.0417622
-0.092012
0.150816
0.505308
0.344704
-0.303097
-0.0416312
-0.384088
0.195755
0.188303
0.209822
-0.607089
-0.622707
0.335757
0.286953
0.0656219
0.0220982
-0.0395405
0.476848
-0.437283
0.292524
-0.517494
0.036064
0.00485467
-0.38235
-0.162054
0.544421
0.294201
-0.518585
-0.215234
0.487516
-0.352634
-0.20909
0.443429
-0.183987
0.122676
-0.27785
0.155164
0.270511
-0.221156
0.270198
-0.474914
-0.249163
-0.351091
0.56854
-0.217425
0.22657
0.172963
-0.399563
-0.0646983
0.549083
-0.407347
0.216924
0.190437
0.473545
-0.137077
0.415529
0.342171
-0.613889
0.271572
-0.554712
0.197903
0.212539
0.404289
-0.596818
0.207129
-0.407536
0.20041
0.288241
-0.531472
0.243215
-0.221771
0.407653
-0.185827
0.543362
-0.428208
-0.313804
-0.497483
0.205806
0.228986
-0.258458
-0.224042
-0.345875
-0.270212
-0.227163
0.497239
0.245942
0.314394
0.226951
-0.258325
0.334736
-0.30308
0.456028
0.0975848
0.132273
0.212407
0.243693
-0.464417
0.220734
-0.34164
-0.110877
0.268516
-0.235324
-0.273939
0.509243
0.274699
-0.174786
-0.0999551
0.418911
-0.186922
-0.27844
0.367029
0.0657452
-0.296447
-0.27566
-0.242425
0.518098
-0.444868
0.238157
0.206741
-0.443995
0.404738
0.543386
-0.242095
-0.301245
-0.21952
0.0868216
0.15972
0.369868
-0.208283
-0.161599
-0.327463
-0.236017
0.563476
0.245141
-0.51378
-0.229026
0.535607
0.281275
0.228135
-0.318735
0.387575
-0.0987477
-0.288886
-0.583208
0.255747
0.237476
0.183987
-0.24154
-0.312451
0.553971
-0.153085
0.379671
0.0947229
-0.217799
0.402118
-0.175174
-0.0990327
-0.3598
-0.391577
-0.235227
-0.191297
0.452858
-0.152718
0.343908
0.267382
0.202371
0.611491
-0.258392
-0.353115
-0.24498
-0.303955
0.548873
-0.564487
0.248723
0.496806
-0.344504
-0.152316
-0.402389
0.208755
0.376809
-0.107982
-0.257194
-0.559649
0.17729
0.604862
-0.244675
0.141901
0.427775
-0.190286
0.507525
-0.237315
0.104943
0.130742
0.219788
0.195196
-0.00266921
-0.508329
0.441531
-0.195609
-0.118519
-0.428579
-0.22797
0.121236
0.106719
0.221514
-0.491814
0.28111
-0.637544
0.356426
-0.125297
0.235226
0.34968
-0.147448
-0.483179
-0.521135
0.164229
0.305806
-0.267533
0.288643
-0.474424
0.185803
0.389055
-0.181891
-0.321279
0.577096
-0.255837
-0.387987
0.134779
0.173444
-0.382198
0.158905
-0.176964
0.481163
-0.30423
0.372435
-0.175958
-0.196498
-0.568852
0.247548
-0.386651
-0.219307
0.605941
-0.635903
0.276518
0.359375
0.109144
0.634037
-0.354653
-0.27938
-0.639483
0.283571
0.355909
-0.118676
-0.109309
0.531787
0.221241
0.174457
-0.395734
-0.19108
0.285381
0.348659
-0.483452
0.284192
0.199259
0.328228
0.241773
-0.569983
0.220425
-0.243103
-0.246717
-0.281864
0.528816
0.240271
-0.141057
-0.228765
0.36987
-0.354104
0.418126
-0.192272
-0.225863
-0.531259
-0.283614
0.481004
-0.197412
-0.227711
0.385116
-0.157355
-0.318833
-0.380741
-0.500309
0.276176
0.224163
-0.196037
0.473323
-0.277405
-0.24598
-0.343687
0.0294324
0.555478
-0.584923
0.320823
-0.121756
0.304264
-0.402327
-0.354802
-0.239983
0.526417
-0.353981
-0.194529
0.308011
-0.5509
0.298966
0.251805
-0.195681
0.286016
0.274171
-0.560218
-0.234418
0.594392
-0.359965
-0.256616
0.533979
-0.277355
-0.324254
-0.234264
0.558465
0.148329
0.101988
-0.250313
-0.520915
0.221175
-0.578637
0.254313
-0.624343
0.291681
0.332654
-0.175961
-0.382412
0.49879
-0.0309458
-0.185862
-0.253866
0.439558
0.307772
-0.552883
0.36081
-0.574556
0.396521
-0.139783
0.291306
-0.424721
0.446898
-0.489645
0.213997
0.0287815
0.536578
-0.56535
0.36231
0.400535
-0.515327
0.390784
-0.138788
-0.251958
0.554665
-0.124607
0.372476
-0.192316
-0.180206
-0.410702
-0.114237
0.275176
-0.506244
0.231051
-0.40765
0.38288
0.139594
0.135058
0.330968
0.207334
-0.538359
-0.350964
-0.273386
0.0587461
0.00687424
0.51876
-0.226532
0.0452145
0.019639
-0.0648605
0.0306544
-0.0561244
0.0254617
0.00407345
-0.516788
0.51244
0.436142
-0.629475
0.269434
0.360021
-0.10489
0.306686
0.32898
-0.129179
-0.296661
-0.225765
0.522242
-0.61002
0.293158
-0.621724
0.255151
0.366555
0.249163
-0.100061
-0.149103
0.347071
-0.132261
-0.630919
0.274023
0.35688
0.45283
-0.148551
0.241607
-0.40969
0.16809
-0.544942
0.358882
-0.0910782
0.281585
0.136122
0.163511
-0.299605
0.16841
-0.104159
-0.0642515
0.0328747
0.00317891
-0.350858
0.582068
-0.170617
-0.00783796
-0.0649384
0.0727701
-0.609647
0.342854
-0.278439
0.153706
0.124743
-0.321568
-0.24074
0.562338
0.114795
-0.14836
0.464676
-0.597166
0.334743
0.262426
-0.324196
-0.215976
0.540124
0.152722
0.100767
-0.0501046
0.0549504
0.24819
-0.0998437
-0.354414
-0.239043
0.527225
-0.0116627
-0.0340352
0.0456854
0.503216
-0.22615
0.586908
-0.255453
0.419299
-0.402223
0.22076
-0.155938
-0.239282
0.514788
-0.517663
0.508403
-0.51072
-0.188539
0.408334
0.527386
-0.154327
-0.373157
0.547381
-0.513517
-0.377898
-0.171862
0.549764
0.407322
-0.196834
-0.210526
0.241577
-0.545634
-0.10912
0.212245
-0.103123
0.205601
0.0116355
0.0772794
0.383837
-0.188114
-0.489516
0.17613
-0.355469
-0.0986306
0.194692
-0.0960556
0.0789212
0.120379
0.225091
0.642009
-0.350338
0.482089
-0.211779
-0.101512
0.209138
-0.107622
0.584258
-0.212884
-0.371381
-0.181676
0.322159
-0.140491
0.20453
0.159827
-0.364351
0.299483
0.342516
0.496301
-0.535816
0.523891
-0.229703
-0.154967
-0.28546
0.160711
0.124754
-0.511549
0.276252
-0.219751
0.249585
-0.473964
0.224261
-0.495571
0.179418
0.329075
-0.575014
0.245938
-0.606328
0.358799
0.247519
0.436917
-0.195322
0.469594
-0.209055
-0.260573
0.216889
0.181376
-0.398203
0.15196
0.116542
0.35159
-0.571176
0.521028
0.237894
0.237911
0.150221
-0.266126
0.221308
0.177221
-0.398472
-0.0955871
0.0272204
-0.0790518
0.446128
0.509303
-0.234152
0.147292
0.585199
0.237268
-0.585497
0.348239
0.00704234
-0.463662
0.351448
-0.585906
0.239362
0.292417
-0.269663
0.214344
0.170822
-0.534616
0.202777
0.331846
0.442183
0.142868
-0.244781
0.552448
-0.363575
0.553875
-0.190301
-0.0342576
-0.500321
0.534284
0.198027
0.15126
-0.281375
-0.256258
0.537505
-0.21473
0.482232
0.266494
0.243592
-0.100358
-0.119405
-0.10775
0.103051
-0.212169
0.13249
0.341032
0.227692
0.183543
-0.411179
0.163046
0.196913
-0.501212
-0.296845
0.162859
0.133998
0.165601
0.206824
0.0118234
0.153911
-0.0165008
0.048915
-0.286379
0.181016
0.141134
0.193374
0.12365
-0.316661
-0.217947
-0.125707
0.0520815
0.335483
-0.0911573
-0.244371
0.518622
0.330429
-0.149405
0.556413
-0.15878
0.154989
-0.235632
0.0806308
-0.214064
0.480003
-0.102506
0.231512
-0.10134
0.256326
-0.352307
0.0502838
-0.358708
0.111355
0.211845
0.167841
0.170928
-0.356738
0.196237
0.160522
-0.100832
-0.0951715
0.196
0.0279731
-0.408451
0.380469
-0.372564
0.205864
0.166676
0.437131
-0.238573
-0.198559
-0.563484
0.322711
0.130452
-0.235987
-0.208851
0.509582
-0.583062
0.073565
-0.326068
0.185082
0.140993
0.201134
0.165103
-0.366251
-0.315769
0.469109
-0.15331
0.27789
0.233471
-0.511481
0.345686
-0.131748
-0.445153
0.212257
0.232872
-0.314164
-0.295467
0.398212
-0.176966
-0.186556
0.403477
-0.49772
0.478406
-0.51299
-0.169519
0.374081
0.281477
-0.157726
0.166834
0.140757
-0.448081
0.189297
0.623748
-0.324275
0.160996
0.20598
0.237641
0.343095
-0.580848
-0.598288
0.335184
0.26308
0.320213
0.303525
0.558467
-0.487211
-0.0713841
0.339865
0.277181
0.203801
-0.150846
0.39204
0.344336
-0.209215
-0.284599
-0.582597
-0.249268
-0.364993
0.123849
0.196934
-0.61931
0.277311
0.341983
0.195239
-0.347928
-0.285607
0.51727
-0.231721
0.0247828
-0.199592
-0.307391
0.543604
-0.236284
-0.338414
0.583402
-0.245007
0.270621
-0.513537
0.242817
0.232172
-0.142297
0.62089
-0.352547
-0.268352
0.522855
-0.529038
0.00592762
0.361052
0.134601
0.186432
-0.321015
0.533774
-0.277039
-0.206414
-0.196562
-0.400213
0.357889
-0.296562
0.530329
-0.233671
0.212285
0.319364
-0.146681
-0.172713
0.145763
0.173573
0.233536
-0.106131
0.205076
-0.0989466
-0.585159
0.349147
-0.236653
0.588071
0.34411
0.150047
0.18896
-0.338986
0.304455
-0.136847
-0.50666
0.279322
-0.2818
-0.337526
0.555363
-0.28374
-0.271669
-0.0444914
-0.186126
0.413848
-0.175257
0.315254
-0.140014
0.567812
-0.238795
0.27303
-0.488286
0.375455
-0.17459
-0.200921
0.231803
0.186199
-0.417997
0.473167
-0.223656
0.183371
0.218743
-0.521343
0.369447
-0.5883
0.238846
0.581745
-0.514775
-0.0672541
-0.300288
0.134619
0.165706
-0.622092
0.340281
0.13674
0.165552
-0.302247
-0.100848
0.288692
-0.187856
-0.496104
0.314195
-0.492335
0.273928
0.231992
0.23597
0.185557
0.239047
-0.424653
0.169393
0.357916
0.324565
-0.190107
-0.0795777
0.391597
-0.0465736
-0.215836
0.488908
-0.517124
-0.220789
-0.196024
0.383116
-0.187113
-0.343931
0.184443
0.159504
0.0358209
-0.212845
-0.285308
0.498252
0.212995
0.176096
-0.378093
-0.21235
-0.063509
0.275837
0.42263
-0.240719
-0.181982
0.0226595
0.429842
-0.234356
-0.195554
0.234002
0.181528
-0.348342
-0.252288
0.0209064
0.122242
0.187068
0.274103
-0.610233
0.336111
0.0291721