/*--------------------------------*- C++ -*----------------------------------*\
| =========                 |                                                 |
| \\      /  F ield         | OpenFOAM: The Open Source CFD Toolbox           |
|  \\    /   O peration     | Version:  v2012                                 |
|   \\  /    A nd           | Website:  www.openfoam.com                      |
|    \\/     M anipulation  |                                                 |
\*---------------------------------------------------------------------------*/
FoamFile
{
    version     2.0;
    format      ascii;
    class       surfaceScalarField;
    location    "150";
    object      phi;
}
// * * * * * * * * * * * * * * * * * * * * * * * * * * * * * * * * * * * * * //

dimensions      [0 3 -1 0 0 0 0];
oriented        oriented;


internalField   nonuniform List<scalar> 
14907
(
-0.44714
0.316031
0.131097
-0.582444
0.36048
0.221873
-0.218881
-0.0285376
0.247378
0.587906
-0.588258
-0.0672722
0.0344571
0.032815
0.429104
-0.529346
0.100172
0.141586
-0.0726424
-0.0689404
0.148124
-0.152183
0.00405921
0.400082
-0.23287
-0.16719
-0.371451
-0.108408
0.479766
-0.0136396
-0.00221246
0.015852
0.0643494
0.523253
0.356453
-0.612939
0.256297
0.643735
-0.340039
-0.304025
0.231024
-0.117282
-0.113744
0.541726
-0.36391
-0.177748
0.310669
0.231118
-0.290892
-0.300453
0.591282
-0.259467
-0.187682
-0.0151964
0.0739078
-0.0587117
-0.386156
-0.14409
0.530368
0.111699
0.045967
-0.157664
0.396249
-0.623507
0.226909
-0.544505
0.281209
0.262982
-0.335968
-0.246564
-0.258092
0.136234
0.121866
0.631002
-0.370394
-0.260509
0.266709
-0.153791
-0.112925
0.395081
-0.204019
-0.191018
-0.301208
0.202508
0.0986925
-0.168762
0.408557
-0.23978
0.000663968
0.00734252
-0.00800649
0.214296
-0.585915
0.13011
0.124652
-0.254759
-0.1053
0.233234
-0.127943
-0.302859
-0.241972
-0.29359
0.153933
0.139664
0.0830671
0.123323
-0.206377
-0.578314
0.275318
-0.0918135
0.148725
-0.0569182
0.0351364
-0.0503329
-0.231004
0.126038
0.104962
0.0982795
0.0433086
-0.150763
0.288022
-0.137283
-0.0401485
-0.0271237
-0.145541
0.228815
-0.0832697
-0.278255
0.209382
0.0688603
-0.102179
-0.0802604
0.182446
-0.0557091
-0.150664
0.206372
-0.164969
0.26156
-0.0965812
-0.582332
0.114653
0.467628
-0.0712872
-0.199612
-0.0252245
0.160524
-0.135313
0.372044
-0.260183
-0.11188
-0.11336
-0.180225
0.433538
-0.00442911
0.309695
0.0854283
-0.172574
-0.1057
0.277539
-0.147433
-0.177008
0.151766
0.300205
-0.494923
0.194736
0.303206
0.144209
-0.447369
-0.223902
0.118594
0.0914514
-0.310376
-0.272139
0.210001
0.0621423
-0.145809
-0.11032
0.256128
-0.0905636
0.235274
-0.144712
0.0872656
-0.0828427
-0.00442338
0.000389938
-0.0100884
0.00969846
-0.160991
0.349172
-0.188173
0.21595
0.156078
0.0630768
0.135745
-0.286527
0.136002
-0.156451
0.0204481
0.179116
0.0873627
-0.266501
0.49385
-0.213066
-0.00554486
0.040002
0.415834
-0.220314
-0.195523
0.166557
-0.098479
-0.0680806
-0.0532971
0.114375
-0.0610759
-0.18139
0.125685
-0.0960232
0.0558746
-0.135789
-0.138609
0.274374
0.24385
-0.130474
-0.113376
-0.256495
0.165925
0.523578
0.0812717
-0.604901
0.095721
-0.29376
0.197995
-0.00305757
-0.10618
0.109238
-0.328848
0.114177
0.214641
0.354672
-0.258974
-0.154138
0.277171
-0.123032
-0.0534139
-0.0426094
0.190269
0.0764347
-0.284377
-0.167631
-0.133586
0.141286
-0.286863
0.14559
0.489894
-0.199601
-0.290317
0.160988
0.159434
-0.320415
-0.196127
0.104304
-0.398405
0.125279
0.273161
0.395689
0.201326
0.111159
-0.131161
0.0200012
-0.148112
0.0695939
0.0785178
0.54687
-0.0234197
0.259957
-0.15069
-0.109266
-0.128073
0.135459
-0.00738646
-0.393091
0.308834
0.0842132
0.159302
0.330563
-0.589802
0.203752
-0.243968
-0.264555
0.572336
-0.300678
-0.27184
-0.465568
0.327219
0.138382
0.224487
-0.134781
-0.0897137
-0.0118015
0.0121915
-0.202881
-0.069254
-0.239252
0.438628
-0.199354
0.261189
-0.35345
0.0922612
0.156364
0.298162
-0.156857
0.00511971
-0.00381291
-0.00130684
-0.133659
-0.195228
0.0869342
0.0611903
-0.14855
0.286471
-0.137925
0.189529
0.189344
-0.378858
0.144721
-0.0335634
-0.271138
0.135335
-0.112151
-0.0400307
-0.223634
0.181523
0.0421054
-0.0135185
-0.114555
-0.166019
0.373371
-0.207347
0.0450711
0.121484
-0.366542
0.218171
0.148371
0.00430352
-0.0137584
0.00945486
-0.171161
0.0857803
0.08538
-0.225444
-0.172926
-0.0956534
-0.0656052
0.161256
-0.00660019
-0.0023477
0.00894787
0.1274
-0.281556
0.0667591
-0.168935
0.0966183
-0.0996761
0.149201
-0.254876
0.105662
0.0078614
0.253328
-0.13728
0.25054
-0.113268
0.124507
-0.110751
-0.0137572
-0.239206
0.350897
-0.111746
-0.280743
-0.184802
0.141887
-0.0189504
-0.122941
0.443476
-0.218235
-0.22525
0.313604
-0.152597
0.236719
-0.132793
-0.103929
-0.363586
0.163423
0.20017
-0.00827582
0.529017
-0.520769
0.0537904
-0.0298476
-0.0239412
-0.00133887
-0.00465608
0.00599491
0.581938
-0.305651
-0.276073
-0.192809
0.549007
0.245359
-0.112992
-0.132371
-0.0520725
0.355321
-0.14026
0.0446053
0.00280401
-0.00673151
0.00392748
0.0195567
-0.00657968
-0.012977
-0.180572
0.0850474
0.0955232
-0.140318
-0.214534
0.354852
-0.189942
-0.173637
-0.140422
-0.136754
0.277154
-0.193282
-0.173261
-0.110356
-0.00267719
0.113032
0.0174537
-0.0146498
0.00925845
-0.00790075
-0.00505905
0.00372015
0.123801
0.161894
-0.285712
-0.463539
0.281605
0.181786
0.0148322
-0.0682462
0.0732597
-0.0650754
-0.00818463
0.0228798
0.095621
-0.118503
0.146868
-0.0809781
-0.0658816
-0.019882
0.0175376
0.00234442
0.282829
-0.154953
-0.127894
0.0668329
0.0204323
0.107582
0.0844596
-0.192047
0.107497
0.137858
0.00555455
-0.0048906
-0.10514
-0.14982
0.254942
-0.0916659
-0.131975
-0.119436
-0.111572
0.00140615
0.00371351
-0.100899
0.13432
-0.0334212
0.259861
-0.103984
-0.155873
-0.000828372
0.0150285
-0.0142001
-0.111051
-0.129905
0.240962
0.0584846
0.0193877
-0.0778723
-0.265789
0.128491
0.0155218
0.0382702
-0.0861774
0.101009
0.164844
-0.0283717
-0.136471
-0.000272028
0.0850323
-0.0847604
-0.13015
-0.0992655
0.229422
-0.220958
0.391502
-0.170586
0.36754
-0.560622
-0.290628
0.213958
0.0766698
0.00998923
0.109253
-0.119244
0.255763
0.00410479
-0.104701
0.328041
-0.22334
0.0115679
0.0616915
0.130132
-0.400383
0.450965
-0.0505606
0.00111259
0.0573719
0.413792
0.139889
-0.553446
-0.298372
-0.292073
0.590346
-0.528608
-0.00915749
0.53746
-0.105721
0.105449
-0.616156
0.60358
0.0123989
-0.114364
0.00400824
0.0929733
-0.0979654
0.00499207
-0.255869
0.142874
0.0322103
-0.133109
-0.122696
0.302023
-0.179353
-0.307448
-0.156739
0.464054
-0.181324
0.147061
0.0342619
0.476191
-0.201233
-0.274984
0.144438
0.0800415
0.238457
-0.119328
-0.119132
0.0127396
-0.105299
0.0925595
-0.108542
0.191624
-0.193849
0.156825
0.0370147
-0.221181
0.113477
0.107712
0.171028
-0.0924715
-0.078556
0.457136
-0.25594
-0.201158
0.136485
-0.00943151
-0.127055
0.364338
-0.148405
0.210159
-0.0636918
-0.0025265
0.0662181
-0.262116
-0.201561
0.202224
0.162095
0.188188
-0.216765
0.179287
0.0574295
-0.175427
-0.209565
0.385035
-0.73106
0.481006
0.249779
-0.0925991
0.239751
-0.147149
0.283151
-0.155681
-0.127459
0.224276
-0.364575
0.134266
0.144592
-0.28503
-0.232416
0.0976234
-0.39024
0.151049
-0.415129
0.246352
0.554677
-8.0105e-05
-0.554949
0.10316
0.156798
0.0796189
-0.267068
0.187422
-0.692939
0.401996
-0.32859
-0.212719
0.541243
-0.344153
0.183171
-0.130868
-0.0636968
0.194552
-0.0740903
0.0868298
-0.0983437
-0.0822286
-0.0144968
0.0136685
0.114417
-0.0915381
0.0205968
0.0972429
-0.117842
0.0732718
0.157751
-0.0249892
0.195243
-0.170248
-0.171857
0.139639
0.0322215
-0.274138
0.181537
-0.226565
-0.166575
-0.398131
-0.333185
-0.163275
-0.127354
-0.377607
0.202203
-0.0772753
0.188979
0.254173
-0.0520754
-0.20211
0.188629
-0.521565
-0.00736829
-0.0958756
0.105864
-0.180577
0.0938249
-0.000851623
0.116217
-0.0165431
-0.0963327
0.112875
-0.219352
0.108308
0.170266
0.112895
0.194002
0.200918
-0.394913
-0.00149049
0.134541
-0.133068
0.0463387
-0.285581
0.17875
-0.0711746
0.262724
-0.00083027
-0.261922
-0.104152
0.0115895
-0.00728596
0.00623968
-0.406648
-0.377177
0.246495
0.130662
-0.110917
-0.0609347
-0.170528
0.197946
-0.301948
0.177874
0.273641
-0.451544
0.104033
-0.234915
0.0863815
0.0604958
0.046325
-0.162326
0.115996
0.127727
-0.00322166
0.00874748
-0.591148
-0.173913
0.541217
0.176421
0.101384
-0.334228
0.0877749
0.0832544
-0.364079
0.247509
0.116564
-0.115544
0.415825
-0.321339
0.402607
-0.0813043
-0.316616
0.1939
-0.233105
0.136505
0.0966146
-0.122997
0.188009
-0.0650162
0.0188827
-0.11286
0.0939768
-0.0173521
-0.0281746
0.0455266
-0.05676
-0.120268
0.020604
0.0685736
-0.0891775
0.221606
-0.407194
0.185684
0.161886
-0.163379
0.261142
0.369951
0.0162288
-0.0163229
-0.113772
0.138277
-0.0245054
0.0104349
-0.103106
0.0926706
-0.00941077
-0.172064
-0.294713
0.466501
0.22309
0.0310689
0.121343
0.227836
0.0937677
0.108202
-0.201981
-0.0849388
0.64444
-0.342928
-0.301547
-0.212253
0.14217
0.0700786
0.394673
0.177536
-0.586487
0.600132
-0.0139931
0.133052
-0.0865396
0.105422
0.587835
-0.345935
-0.241811
0.154012
-0.283925
0.30529
-0.168401
-0.136902
-0.210342
0.0873358
0.013349
-0.0160218
0.00267289
-0.168575
0.256941
0.325197
-0.340577
-0.232369
0.572775
-0.215591
0.306996
0.0997504
0.0624671
-0.162222
0.137362
0.0274823
-0.018836
0.116078
0.00243602
0.103912
-0.106348
-0.177597
-0.0554943
-0.233505
0.141832
0.111995
0.245315
-0.147974
0.27717
-0.129188
-0.595996
0.29548
0.132107
-0.0315895
-0.100517
0.00410855
0.258595
0.131731
-0.0722732
-0.112046
0.184314
0.222511
-0.0391898
-0.118659
0.157839
0.124413
0.111891
-0.184161
-0.125996
0.251477
-0.125506
-0.132685
-0.0611749
0.124146
-0.137665
-0.128332
-0.0839264
-0.0747139
0.231076
-0.15637
-0.387935
0.227364
0.160544
0.0849043
-0.0824683
0.131808
0.0100759
0.014064
0.188591
-0.20266
0.169688
-0.0699423
0.147198
-0.368091
0.220759
0.185363
-0.447576
0.398447
-0.251358
-0.158721
0.119524
0.012774
0.0960005
-0.108775
-0.153962
0.241616
-0.0876654
-0.60191
0.339307
0.262526
-0.184466
0.127694
0.300677
0.296338
0.335204
0.252714
0.00883199
0.162711
-0.3837
0.18354
-0.413522
0.230023
0.00334062
-0.00994084
-0.202152
-0.26001
0.462073
-0.15503
0.0664527
0.0885778
0.095955
0.0361519
0.111849
0.0241523
-0.131583
0.0790489
0.0525416
-0.0148639
-0.110792
0.188555
-0.0777694
-0.0799147
0.0162226
0.336235
-0.57281
0.236739
0.0327568
-0.197714
0.324202
0.272813
0.291213
-0.171766
-0.119463
0.219933
-0.0894391
-0.130488
-0.63787
0.223411
0.414427
0.206451
-0.112691
-0.0233449
0.0810493
-0.15078
0.546772
0.363325
-0.507202
0.0775565
-0.0867627
0.00920525
-0.0354408
0.0548285
0.151972
-0.262281
-0.206468
0.413188
-0.20677
0.00220252
0.00705592
0.0309471
-0.147963
0.429384
-0.016816
-0.066027
0.00379136
0.349933
0.126255
-0.31713
-0.284865
-0.449951
0.245287
0.204659
-0.179871
0.366912
-0.186992
-0.561774
-0.0249473
-0.358109
0.364313
0.105508
-0.0611779
0.118625
-0.0207051
0.068745
-0.0480399
-0.581733
0.241538
-0.191732
-0.17235
-0.0834504
-0.0286271
0.112077
-0.242965
0.295631
-0.0527168
-0.0854355
-0.101432
0.147752
0.0928459
-0.223317
-0.215019
-0.170287
0.385219
-0.421218
0.214664
0.0990424
-0.102991
0.00394863
-0.143288
0.0763843
-0.187184
-0.116267
0.256108
-0.139848
0.00212578
-0.0157654
-0.135334
-0.120539
-0.0757427
0.107762
-0.225046
-0.265683
-0.207415
0.472997
0.182707
0.126398
-0.0454579
-0.0809403
-0.193721
0.464472
-0.270831
0.130884
0.0604958
-0.191379
0.185775
-0.313513
0.127745
0.164015
-0.290021
-0.0070639
0.00033237
-0.0971743
0.228634
-0.131445
-0.104479
-0.181988
0.286501
0.00524828
0.544743
-0.550301
-0.0137819
0.00494107
0.00884082
-0.178677
0.375454
-0.196731
-0.194488
0.0973231
0.25929
-0.154626
-0.104658
-0.183581
-0.0855574
0.0648524
-0.0451939
-0.512089
0.418097
0.0940099
-0.0215523
-0.181323
0.0804453
-0.234413
-0.502536
-0.49954
0.198199
0.301434
0.183394
-0.387593
-0.00493014
0.0116443
-0.00671421
0.195165
-0.395802
-0.467638
-0.148651
0.0741079
-0.160027
0.085917
-0.0787204
0.157238
0.163979
-0.0110882
-0.152893
-0.593169
0.294718
-0.10256
0.187014
0.000693887
0.238269
-0.10175
-0.359014
0.187956
0.171084
-0.1988
-0.189163
-0.100901
-0.0702604
0.212754
-0.198703
0.205472
-0.471204
-0.0719112
0.16782
-0.0959131
-0.260724
0.362122
0.0699701
-0.428157
0.167845
0.0706103
-0.22326
0.432616
-0.209435
-0.127561
0.0390149
0.0885436
0.23149
0.077304
0.257956
-0.451755
0.0146638
-0.0168763
0.537782
-0.25462
-0.283342
-0.13232
0.294187
-0.587306
0.200506
0.386715
-0.276785
0.160499
0.198764
-0.056599
-0.361143
-0.150905
0.147579
-0.363191
-0.0903321
0.0777806
0.18849
-0.266275
0.082557
-0.0732238
-0.00933215
-0.11267
-0.161472
-0.297295
-0.398323
0.599649
-0.135575
0.0278757
0.107698
0.157981
-0.309625
0.15158
-0.312226
0.207764
0.23332
-0.586907
0.353619
-0.30976
0.151323
0.158444
-0.012023
0.124835
-0.112816
0.072859
-0.126154
0.194699
-0.13215
0.00458588
0.030074
0.125423
0.11286
-0.328825
-0.263939
0.592663
-0.193052
-0.174668
0.367739
-0.170343
0.324392
-0.154094
-0.447862
0.529082
0.383725
-0.198531
-0.185118
-0.00817329
0.0124866
-0.0101499
0.00780218
-0.379223
-0.258682
0.054035
0.127483
0.00768601
-0.160192
0.152514
-0.16087
0.168571
0.254805
-0.0756964
-0.310348
-0.283027
0.593159
-0.081309
-0.068902
0.150212
-0.00314688
0.102189
-0.0477983
0.224389
-0.439432
-0.326714
0.156331
-0.337775
0.094749
0.243574
-0.445859
0.0078578
-0.000417596
-0.00744022
-0.0924862
-0.0852631
0.177743
-0.121165
-0.155818
-0.185391
0.341245
-0.299886
-0.264092
0.563794
0.250797
0.0752401
-0.326063
-0.160028
0.098496
0.126813
-0.497227
-0.0136057
0.00867554
0.0300131
-0.065454
-0.0176012
-0.0643311
0.0819322
0.0871692
0.0482887
-0.188779
-0.359052
0.13364
0.235115
-0.120585
-0.114517
-0.116402
-0.0611847
0.177582
-0.00130654
0.00697115
-0.00566455
0.00637692
0.0110768
0.206285
-0.125497
-0.0807964
0.171959
0.437247
0.138864
-0.576213
-0.0988797
0.25289
-0.19134
0.169782
0.536695
-0.0995732
0.00299564
0.0165611
0.442439
0.11197
-0.199357
-0.207742
-0.217232
0.118977
0.0982583
0.12424
-0.572079
0.20447
-0.0593464
-0.145119
-0.267215
0.154544
0.0811813
0.0578442
-0.139027
-0.0949961
-0.0851053
0.180096
-0.509404
0.500285
-0.0950256
-0.15218
0.247203
0.103946
0.12928
-0.14711
-0.0323867
0.13265
-0.0454827
-0.00238989
-0.0873887
0.0897782
-0.282484
0.606484
0.13102
0.13055
-0.263917
0.142282
0.121622
-0.0745554
-0.212298
-0.276477
-0.289788
0.566118
-0.270018
0.122041
0.277858
0.158685
-0.436501
0.0735926
0.0406268
0.123351
0.0461996
0.0700442
-0.116245
-0.57855
0.354847
0.223646
-0.137048
0.214825
0.535762
-0.302476
-0.144041
-0.17058
0.314604
-0.0580237
-0.0218913
0.30019
0.233795
-0.533964
0.255467
-0.122578
-0.132883
0.135869
-0.0899
0.198269
-0.421572
-0.135356
0.23015
-0.185961
-0.0441785
-0.237264
-0.00474673
0.00363896
0.00110774
-0.0720536
0.195444
-0.12339
-0.563525
0.322883
0.240755
-0.0357056
-0.079093
0.114799
0.016417
-0.210003
0.193556
-0.59686
0.304694
0.164036
-0.310871
0.146835
-0.19355
0.376672
-0.183081
0.336258
0.260757
-0.243421
0.11389
0.129532
0.0253974
0.225384
-0.0319265
0.0619395
-0.093913
0.243107
0.191468
-0.384478
0.1437
-0.297528
0.153843
0.162243
0.0365169
-0.106195
-0.0895312
0.195726
-0.192722
0.382287
0.104683
-0.236843
0.132167
-0.171333
-0.187692
-0.0923258
0.215665
0.322667
-0.159779
-0.162885
-0.181829
0.0868251
0.401962
-0.218374
0.239987
-0.102104
0.18191
0.246226
-0.428218
-0.187727
-0.215176
0.402798
-0.0128909
0.0463664
-0.0334753
-0.255282
-0.194668
-0.0786552
0.0206309
0.38773
-0.204319
0.141553
0.132873
-0.274414
0.547529
-0.312891
-0.234745
0.230534
-0.128334
-0.102192
-0.303107
-0.284287
-0.182676
0.110622
-0.131469
0.329412
0.0731083
-0.108814
-0.217777
0.553013
0.153585
-0.0553026
0.287141
0.156328
-0.130453
-0.0798976
0.47135
0.171054
-0.642236
0.191285
0.110712
-0.0483807
-0.319842
-0.162345
-0.0810767
-0.41564
0.22497
0.190699
-0.0586467
0.0208351
0.0226965
-0.0435316
0.0998374
0.104639
-0.227127
0.19293
0.0342035
0.103089
-0.121928
-0.151945
0.345862
-0.193937
-0.0520521
-0.0808669
0.132918
0.106107
0.122713
0.50971
-0.295484
-0.156309
0.084395
-0.0873316
0.0849413
0.00339845
-0.00470492
0.0602585
0.0974448
-0.0161883
-0.0812567
-0.129564
-0.145228
-0.124528
0.269757
0.353501
0.290912
0.245108
-0.0832262
-0.197986
-0.0213633
-0.18802
-0.00463475
0.192689
0.321422
-0.116995
-0.115606
0.232587
0.017126
-0.11547
0.511873
-0.520173
-0.294632
0.150591
-0.140277
0.244966
-0.0051069
0.0197462
-0.0146393
-0.223932
0.0934678
0.103082
-0.205648
0.119954
0.115175
-0.0343276
-0.475114
0.0417357
0.511839
-0.267896
-0.244132
-0.185038
-0.229942
0.414885
0.216134
-0.0136266
0.0569338
-0.317649
0.00335767
0.0128711
0.186223
-0.0807604
-0.105458
0.00225038
-0.00735724
-0.630772
0.257679
0.373047
0.0595159
-0.0948456
0.0353295
0.00289527
-0.00152145
-0.00137386
0.14249
-0.0465349
-0.0108773
-0.177109
0.16145
0.0337961
-0.00867589
0.14516
-0.0524618
0.13498
-0.0825184
-0.301007
0.132579
0.298836
-0.113037
0.0693376
0.0182122
-0.0166075
-0.191026
-0.161498
0.352503
-0.0815804
0.155685
0.0425894
0.00822792
-0.0508169
-0.348739
0.276752
0.0719422
0.248037
0.187019
-0.435147
-0.261931
0.187379
-0.250858
0.136845
0.114004
-0.332144
0.283658
-0.0285989
0.218779
-0.190211
-0.0906926
-0.0448829
-0.0377979
0.12283
0.222855
-0.547781
0.240187
-0.0142046
0.000446192
0.00685161
-0.0331079
0.0262573
0.176082
-0.188998
-0.169988
-0.397421
0.51202
0.195626
-0.11622
0.0327694
0.0879597
0.0982693
-0.0550534
-0.0429119
-0.244603
-0.187024
0.434937
0.180189
-0.360054
0.179884
-0.274642
-0.220266
0.100653
-0.215916
0.115273
-0.22734
0.0428632
-0.0327914
0.0154393
0.270924
-0.50677
0.235865
-0.594578
0.26447
0.329932
-0.16979
0.158507
0.0112821
0.162499
-0.353495
0.135719
-0.210269
0.0745655
-0.0686103
0.0888129
-0.0202029
0.171941
-0.266969
-0.0109597
-0.0279797
0.0389393
0.00513766
-0.0028872
-0.274186
0.128952
0.184442
0.0840167
0.0365273
-0.120544
-0.0129663
0.0217151
-0.00874881
0.0526635
-0.150626
0.0979625
0.204573
-0.156347
0.044196
-0.0104793
0.0631552
-0.0526762
0.08887
0.0791436
-0.168015
-0.166127
-0.13491
-0.557605
0.216836
-0.289511
0.0961584
-0.00233352
-0.213772
-0.0133469
0.0678198
0.00749428
-0.0753146
-0.591533
0.262642
0.000767811
0.0125811
-0.0171288
0.113129
0.189734
-0.364367
0.241802
0.17062
-0.41245
0.00147374
0.0413112
0.372643
0.187927
0.359516
0.2086
-0.114734
-0.0938726
0.00754289
-0.000378424
-0.00716448
0.00568064
0.000504695
-0.00618522
0.0551096
-0.0680005
0.166276
-0.298622
0.19627
-0.137448
-0.058823
-0.151136
0.0986745
-0.440781
-0.13764
0.169026
-0.46902
-0.584414
0.278886
0.0928041
0.00335423
0.382121
0.242909
-0.625105
0.371364
-0.179873
0.140205
0.0560644
-0.169138
-0.12867
-0.0526547
0.286271
0.257032
-0.543292
0.260223
-0.49228
0.232259
0.399767
-0.329989
-0.248623
0.154142
-0.0683632
-0.158181
0.540304
-0.179733
-0.164412
0.0701605
0.112317
-0.182479
-0.105899
-0.00846575
0.00780259
-0.0555105
0.0477078
0.410581
0.195366
-0.605816
-0.161843
0.109691
0.0521519
0.022039
-0.0151864
0.0461695
0.0363886
-0.135517
0.228361
0.00876979
-0.0157381
0.00696835
-0.00150937
-0.117301
-0.197099
-0.415982
-0.12282
-0.132067
0.22044
-0.101389
-0.119053
-0.00743653
0.00193149
0.00550514
0.0960208
-0.56331
0.28676
0.426594
-0.584879
-0.0175851
0.0915956
-0.143649
-0.141651
0.307903
0.296106
0.266725
-0.562809
0.164531
0.180619
-0.345122
0.103373
0.0663104
0.224722
-0.552264
0.00673732
0.545165
0.119071
-0.211376
-0.147708
-0.30105
-0.283236
-0.166718
0.375296
-0.208547
-0.0428322
-0.0226218
-0.205018
-0.172178
-0.260642
0.106848
0.395469
-0.280464
0.11282
0.12731
-0.0214771
-0.105834
0.534877
0.230494
-0.121575
-0.108937
-0.332908
0.437759
-0.104851
-0.226246
0.126996
-0.0616088
0.0467292
0.0148795
0.304501
0.292514
-0.0597868
0.0675892
-0.0708969
0.215332
0.00865619
-0.00104001
-0.00761599
-0.262678
-0.361098
0.139237
-0.093081
0.212174
-0.0922756
-0.0695673
0.0837985
-0.00624283
-0.196479
-0.0308708
0.0876073
0.00983735
-0.0975027
-0.0838717
0.181379
-0.255386
0.0944777
0.160913
-0.00951159
0.553927
0.0452276
0.0972631
0.166028
0.298571
-0.464519
0.27545
-0.618482
-0.408515
0.205443
0.203073
0.614679
0.0636967
0.110693
-0.174394
0.383722
0.213293
0.25108
0.0156569
-0.0842678
0.108231
-0.193341
-0.155244
-0.433382
-0.0437023
0.138149
-0.0944501
0.136803
-0.256134
0.0405704
-0.148198
0.250621
-0.102418
-0.0608688
0.0289423
0.185603
0.181357
-0.111123
0.144259
0.00318657
-0.0340148
0.0308285
0.10554
-0.240118
0.134593
-0.00123483
0.00909262
0.33542
-0.599371
-0.0461505
0.191446
-0.145288
0.501985
-0.566314
0.0642847
0.164055
-0.288581
-0.155872
0.313813
0.134675
-0.0534975
0.0224645
-0.107591
0.0851252
-0.230512
0.114507
0.116014
-0.0135863
-0.277289
-0.330599
0.607813
-0.0641538
0.0531941
-0.273242
0.117572
0.173707
0.185584
-0.359257
-0.0955369
-0.0609141
-0.0230654
0.158604
-0.135536
-0.00305294
0.0081907
-0.157994
0.399791
-0.10979
0.0977634
-0.103938
-0.00196114
0.100846
-0.0376058
0.0838039
-0.292572
0.55067
-0.404191
-0.146582
-0.29972
-0.0959995
0.0691343
0.0268651
-0.402094
0.499698
-0.0977965
-0.405929
0.297463
0.222516
0.200627
-0.423106
0.160109
-0.461064
0.210609
-0.410817
0.25407
0.275757
-0.132063
0.201569
0.194449
-0.395958
0.476394
-0.250699
0.115361
0.0798017
0.128792
0.102541
-0.146248
0.400633
-0.205451
0.00467771
0.00397863
0.314889
-0.128495
-0.186393
-0.0435651
0.103081
0.131869
-0.0226185
-0.0107418
0.00565251
0.00508936
-0.0393029
-0.109898
0.149194
0.182181
-0.228333
0.0114991
-0.00556043
-0.00593864
0.0816544
-0.187851
-0.0726547
0.0921091
0.00873431
-0.100842
0.171151
-0.0677809
0.565367
-0.469402
-0.124389
-0.104354
0.228734
0.016558
-0.345387
0.0834697
0.00298229
0.00309561
-0.00607791
0.292082
-0.290414
-0.00165911
0.0754427
-0.0546076
0.0426723
-0.120676
-0.11337
-0.153848
-0.0122658
-0.00375605
0.148493
-0.184173
0.373553
0.507516
-0.0359658
-0.0986941
-0.138141
0.429825
0.120757
0.164061
-0.474537
-0.0795225
-0.0607388
0.110547
0.109394
0.162561
-0.495451
-0.177557
-0.167819
-0.111761
-0.138942
0.0515493
0.0748485
0.104947
-0.22552
0.176332
0.392646
-0.56903
0.166834
-0.237731
-0.111006
-0.0588782
0.169885
0.102643
0.153459
-0.204155
0.470749
-0.266628
-0.00434111
0.00732338
0.176984
-0.300581
0.12358
0.000534818
0.24696
-0.0630413
-0.106612
0.210634
-0.169896
-0.14674
-0.00783316
0.00860319
0.101608
-0.0560757
-0.0455276
0.00696487
-0.00332597
0.163378
-0.317404
0.15399
0.121431
0.109044
0.133972
-0.103848
-0.0301233
-0.185998
-0.301533
0.145743
0.587429
-0.13819
-0.0976603
0.235856
0.360112
-0.47555
0.454294
-0.168
-0.142055
-0.0799772
-0.00678651
0.015362
-0.0693728
0.0540107
0.493532
-0.255482
-0.238099
0.30983
-0.140357
-0.169489
0.275734
-0.48603
0.0809163
-0.266261
0.127713
-0.251085
-0.236318
0.487362
0.119204
-0.127881
-0.11975
0.0424011
-0.25805
0.215649
-0.393842
0.212344
0.181565
-0.221947
-0.192576
0.414527
-0.285411
-0.228548
0.513986
-0.151953
-0.0890307
0.240989
0.00178158
0.0057613
0.236518
-0.11464
0.194912
0.390036
0.092508
-0.0201077
0.0232947
-0.22227
-0.19334
0.227134
-0.512519
0.383663
-0.239395
0.082722
0.004885
-0.0994841
0.558063
-0.552646
-0.00589628
-0.357731
-0.273078
-0.13878
0.115712
0.0923899
-0.000807829
-0.0915823
0.563335
-0.312382
-0.250978
0.627947
-0.355204
0.201485
-0.112845
-0.0886516
-0.159577
-0.131555
0.29117
-0.234366
0.125145
0.109218
-0.222471
0.156002
0.0664565
-0.152802
0.0728473
-0.165339
0.468538
-0.220474
-0.248084
-0.0337782
-0.142789
0.176564
-0.0207893
0.0766933
-0.0559041
0.14927
-0.0244377
0.0181808
-0.134189
0.116007
0.0968582
-0.208204
0.111334
0.102383
0.289226
-0.606382
0.169805
0.147847
-0.317691
-0.0970664
-0.129165
0.204129
-0.116163
0.147081
0.170674
-0.317815
-0.1977
0.335776
-0.138098
0.583482
-0.285161
-0.298141
0.281302
-0.139741
-0.0108359
-0.102662
0.0824622
0.0201999
-0.188048
0.143008
0.045049
0.152539
-0.265906
0.30338
0.105603
-0.174352
0.0687447
0.166303
-0.303597
-0.160601
0.202988
0.0767035
-0.158775
0.0820733
0.10845
-0.215075
0.163776
-0.295256
-0.377704
-0.0445254
-0.0514742
-0.0165062
-0.0892148
0.0221121
0.444506
-0.466693
0.135323
-0.272105
0.1194
-0.147771
0.348885
-0.168683
0.50194
-0.273617
-0.228208
0.352524
-0.0742659
0.193667
-0.0548856
0.192489
-0.137622
-0.153114
-0.0812553
0.00599108
-0.00168462
-0.00430647
-0.147547
-0.129256
-0.315706
0.00196228
0.0200776
-0.249466
-0.227528
0.476834
-0.0669806
0.0823424
-0.533506
-0.0173304
0.550679
0.114074
0.0930004
0.0419793
0.287065
-0.278873
-0.0082179
0.393373
0.163781
-0.557254
-0.311049
0.169373
0.256939
-0.117579
-0.139361
0.0906289
-0.0079071
0.1649
-0.272668
0.568619
0.0114417
-0.0688166
0.0573746
0.0615636
0.0952531
0.081826
-0.150727
0.00104381
-0.00146142
-0.0321975
0.156342
0.662933
-0.309502
0.100392
-0.129019
0.172074
-0.317958
0.145883
0.022468
0.0814557
-0.103924
-0.228
-0.136775
0.281348
0.522376
0.0809853
-0.00635214
-0.00742978
0.312445
0.350444
0.0432862
-0.265771
0.233323
0.126532
0.104011
0.0775344
0.111013
-0.160272
0.0990844
-0.268411
0.05431
0.214091
-0.296683
0.106338
-0.145645
-0.195974
0.0891095
0.106854
-0.19074
0.429806
-0.239107
0.162287
-0.222
0.0597115
-0.347327
0.155593
0.0230262
-0.0528725
0.00724835
-0.00857969
-0.39373
0.171672
-0.00382645
-0.258881
-0.304531
-0.0589861
-0.129054
0.314698
-0.561825
0.247051
0.00212562
0.00386545
-0.207925
-0.350039
0.145019
0.123743
0.433889
0.0944895
-0.24644
0.107405
-0.245244
0.137847
-0.501331
-0.151468
0.652832
-0.141916
-0.251856
0.187703
-0.30588
-0.0981394
-0.0582068
-0.0739766
0.155024
-0.0810475
-0.148829
0.294806
-0.145957
0.230727
-0.125167
-0.24548
0.146793
-0.15324
0.0707217
0.303411
0.149367
-0.127127
-0.136803
-0.134376
0.298404
0.205376
-0.0568853
0.138143
-0.223983
0.0858475
0.00425801
-0.505564
-0.505193
0.255703
0.0970244
-0.171508
0.0744799
-0.349087
0.182399
0.0892418
-0.105785
-0.0893165
0.231597
-0.00503239
0.102276
-0.097244
0.133868
0.12947
-0.263335
0.468401
0.131947
-0.329685
0.0761857
-0.195343
0.119169
-0.11689
-0.0529018
0.19888
-0.420797
0.13368
-0.0984143
-0.076055
0.17447
-0.109798
-0.393824
0.128508
-0.556749
-0.0300897
0.586795
0.0140239
-0.0784205
0.0749
0.00352046
-0.217527
0.101706
0.115817
0.00303614
0.0151761
-0.108121
-0.0743061
0.18243
-0.106814
0.20748
-0.155994
0.0449878
-0.0571817
-0.0939542
-0.0712203
0.206957
0.0035983
-0.22906
0.0908741
-0.0607211
0.16592
-0.105202
0.127549
-0.287085
0.16662
-0.221524
-0.184091
0.343523
0.152774
0.0154383
-0.196825
-0.172431
0.377245
-0.204834
-0.0515446
0.041065
0.242997
0.0718936
0.024802
0.262237
-0.0600591
0.10082
-0.0407609
-0.372893
0.174076
-0.105962
0.203189
-0.0972276
-0.0817911
-0.21751
0.0847123
0.0392059
0.252881
-0.0173436
-0.0837325
0.101075
-0.233736
0.102581
0.131165
-0.27241
-0.255117
0.527321
-0.086862
0.200349
0.00325639
-0.000160804
-0.0908735
0.0944751
-0.00360306
-0.196613
-0.143011
-0.0860453
-0.219319
0.507742
-0.288406
-0.369635
0.328898
0.0407476
-0.0182812
0.11929
0.217529
0.231803
-0.507496
0.275545
-0.186336
0.0802206
0.106113
0.136179
0.15643
-0.292611
6.62398e-05
-0.168972
0.168908
-0.181412
0.355117
0.469145
-0.105625
0.0734299
0.0321985
-0.14945
-0.152053
-0.290137
0.360061
0.197936
-0.04007
-0.157865
-0.152687
0.316041
0.394517
-0.107375
0.437468
0.0915311
-0.0965324
-0.137571
0.262492
-0.124939
-0.268961
-0.325789
0.422844
-0.198507
0.0893189
0.0799501
-0.169267
-0.132185
-0.123197
0.100758
0.116418
-0.217186
-0.143743
-0.163159
0.306923
-0.0961032
-0.0545225
-0.103848
0.311267
-0.164239
-0.252048
0.125343
0.126706
0.440437
-0.180084
-0.255231
0.486823
-0.0102724
-0.067085
-0.103114
0.170197
-0.109079
-0.0869045
0.0633586
0.157079
0.063831
0.104389
-0.168222
-0.162099
0.0636839
0.158895
-0.0694143
-0.0894845
-0.089789
-0.0665226
0.0630166
-0.198539
0.0591361
-0.0165459
0.158745
-0.318509
0.13522
0.157962
-0.293213
-0.287875
0.521728
-0.515989
-0.040803
-0.0473168
0.157776
-0.110462
-0.12204
-0.411607
-0.0630893
0.00456191
0.00961886
-0.0141808
0.134142
-0.0940571
-0.0400847
-0.00394476
0.397243
0.0473774
0.150561
0.157775
-0.0557003
-0.102075
-0.202589
-0.244721
0.447188
0.0811343
-0.0736405
-0.0261326
0.12268
-0.0965474
0.0443261
-0.0897841
0.113651
0.0904843
0.00250261
0.00562385
-0.00812646
-0.0682433
-0.0938555
0.10685
-0.0886665
-0.000798551
-0.00663788
0.188107
-0.0798779
0.148505
-0.296705
0.147158
-0.0503109
-0.176707
0.365939
-0.18922
0.00111472
0.00456607
0.0891991
-0.234318
0.145123
0.0655101
-0.151611
0.0860994
0.392342
-0.211743
-0.18064
0.0867391
0.391358
0.105981
-0.497202
-0.0016854
-0.0137341
0.0154195
0.0125358
-0.011421
0.316892
0.266356
-0.583207
-0.00517802
0.0101191
-0.116133
0.0940276
0.022105
-0.099627
-0.0861176
0.185748
-0.106068
0.181534
-0.0754699
0.135972
-0.447794
0.157578
9.72131e-05
0.00240538
0.291869
-0.125577
-0.0352201
0.119237
-0.00850696
0.0130689
0.234747
0.338457
-0.573173
-0.0439135
-0.224518
0.290324
0.233795
0.104827
0.0656409
-0.143932
0.0782868
0.0819993
0.0721419
-0.567113
0.0254314
0.366011
-0.0668267
-0.155172
-0.150103
-0.125831
0.275937
0.0110986
0.490882
-0.201466
0.0774078
0.12405
-0.321796
0.240458
-0.467687
0.193017
-0.12318
0.0121669
0.125877
-0.138045
0.466402
0.118425
-0.0263142
0.304811
0.385698
0.208249
-0.593835
0.0856921
0.119682
-0.0458722
0.103313
-0.0574402
-0.252426
0.260291
-0.221118
0.421752
-0.108396
0.125522
0.11434
-0.0761996
-0.0381407
-0.329725
0.176103
0.153644
-0.0109439
0.177782
0.0938063
-0.110313
-0.0986341
-0.0097007
-0.00177759
0.0114783
0.218509
0.0932726
-0.164361
0.071087
-0.00923075
-0.000857617
0.0112431
-0.053364
0.0421208
0.334065
-0.542789
0.208781
-0.232189
0.231332
-0.0868891
0.205872
0.0752763
-0.178299
0.103018
0.0377088
0.120797
0.243433
0.00498746
-0.00513282
0.000145347
-0.0769272
-0.109412
0.0841278
-0.0935595
0.160711
0.125754
-0.291864
0.519034
0.00529219
-0.0960267
0.204
-0.107964
0.491053
0.328675
-0.582
0.253388
0.000734293
-0.00358109
0.00284677
-0.215457
-0.0791695
-0.303708
0.133404
0.215099
0.120653
0.114344
0.142594
0.551725
-0.084762
0.15027
0.127428
-0.265025
0.0928494
0.145202
-0.238038
0.215971
0.241096
-0.457102
-0.0893733
-0.0505592
0.056936
-0.120861
0.0413379
0.163242
-0.0976061
0.0209044
-0.0182315
0.0899537
0.0623312
-0.152286
-0.428387
0.173081
-0.0687783
-0.300844
0.149355
-0.159965
0.54368
0.126702
-0.140461
-0.152844