/*--------------------------------*- C++ -*----------------------------------*\
| =========                 |                                                 |
| \\      /  F ield         | OpenFOAM: The Open Source CFD Toolbox           |
|  \\    /   O peration     | Version:  v2012                                 |
|   \\  /    A nd           | Website:  www.openfoam.com                      |
|    \\/     M anipulation  |                                                 |
\*---------------------------------------------------------------------------*/
FoamFile
{
    version     2.0;
    format      ascii;
    class       volScalarField;
    location    "450";
    object      nut;
}
// * * * * * * * * * * * * * * * * * * * * * * * * * * * * * * * * * * * * * //

dimensions      [0 2 -1 0 0 0 0];


internalField   nonuniform List<scalar> 
9793
(
0.00330177
0.0253862
0.00150826
0.0067097
0.0184449
0.00680594
0.00689902
0.00671457
0.00677842
0.0199233
0.00060575
0.000982882
0.0067186
0.00680003
0.0070044
0.00678811
0.00687697
0.00692636
0.0223147
0.00680315
0.00314074
0.00663064
0.0166918
0.00669164
0.00679323
0.00673439
0.00679991
0.00680885
0.000725527
0.00677833
0.00311238
0.0149545
0.0206605
0.00697435
0.000842966
0.00628824
0.00694832
0.00663476
0.00673743
0.00681691
0.00337243
0.00701157
0.00686339
0.00690449
0.00686533
0.00676316
0.000707459
0.0100801
0.011286
0.00670587
0.0006911
0.000633841
0.00660661
0.00679331
0.00155742
0.00341858
0.00672836
0.00056953
0.00969997
0.00673559
0.00693159
0.00673289
0.00859498
0.00681219
0.0265748
0.0178963
0.00799901
0.0105185
0.00169605
0.000569968
0.00163055
0.00692355
0.0067357
0.0190942
0.000793929
0.00823402
0.00673073
0.00685256
0.0068392
0.00682261
0.01701
0.00684157
0.0237546
0.00615399
0.00316742
0.00750175
0.00683566
0.00673383
0.00679191
0.00688537
0.0273374
0.00887717
0.00674861
0.0140885
0.0067661
0.0059163
0.003627
0.0257185
0.00674012
0.00672582
0.00672304
0.00686717
0.00672136
0.0067162
0.00682698
0.00357097
0.00680398
0.0069259
0.00678891
0.0031491
0.00695066
0.00334057
0.00672178
0.0060187
0.000634192
0.00673129
0.0211319
0.000804981
0.00685239
0.0126687
0.00467571
0.00710141
0.0067324
0.00677646
0.00678613
0.00293162
0.000663584
0.00725343
0.00686636
0.0067236
0.00700312
0.00673433
0.00672614
0.00688475
0.00676899
0.00673719
0.00684988
0.00688482
0.00672086
0.00670187
0.0067306
0.00679935
0.00675819
0.00673894
0.0068163
0.00687598
0.0135601
0.00674124
0.00673106
0.00328658
0.00294429
0.00699811
0.00308237
0.0188712
0.00672498
0.00708501
0.00684972
0.00680674
0.00673073
0.00675172
0.00671795
0.00681293
0.00676189
0.0292296
0.018278
0.0040789
0.00948483
0.00240147
0.00678757
0.00681442
0.00678443
0.0188982
0.0189956
0.0189052
0.00679133
0.0265768
0.00673724
0.00668334
0.0067343
0.00129265
0.00133282
0.00415506
0.00673301
0.00679829
0.00676317
0.0067331
0.000630173
0.00673373
0.00673308
0.00676267
0.00679134
0.00671209
0.0122425
0.00321431
0.0100377
0.00162098
0.0187492
0.0067961
0.0134874
0.00671757
0.00676891
0.0305563
0.00369854
0.00672151
0.00674081
0.00678504
0.00456127
0.0067506
0.00367328
0.00629116
0.00110959
0.0109749
0.0120131
0.00679587
0.0247162
0.00683595
0.00683391
0.00643096
0.00676486
0.013251
0.000993907
0.00673248
0.00678612
0.00671183
0.00701279
0.0306016
0.00679199
0.00671874
0.000935994
0.00061198
0.00669754
0.0066892
0.00361507
0.00675146
0.000597436
0.0130456
0.00671969
0.00676441
0.00358791
0.00683174
0.00408641
0.00680276
0.00675927
0.0194079
0.00675193
0.00673293
0.00671255
0.00680818
0.00673904
0.00694364
0.00680042
0.00280131
0.000638986
0.000640314
0.00674319
0.00655454
0.00677722
0.00254837
0.00683807
0.00674094
0.0130725
0.00675757
0.000643575
0.00696901
0.00200593
0.00672591
0.00672122
0.00110795
0.0308869
0.00682786
0.00674401
0.00670951
0.00267496
0.00673344
0.0267802
0.0260721
0.00672368
0.003455
0.00672753
0.000652064
0.00681514
0.00670453
0.0069698
0.00679869
0.000653969
0.00673159
0.00680264
0.00257112
0.00676152
0.00674129
0.00672078
0.0210629
0.00682886
0.00697832
0.00700825
0.00688494
0.00676885
0.00193864
0.00671222
0.0238615
0.00672351
0.0130542
0.0223703
0.00695734
0.00692995
0.00674311
0.00226312
0.00394669
0.00682067
0.0138554
0.0067837
0.00674009
0.00370091
0.00680223
0.00679689
0.00686099
0.00691863
0.00677406
0.00311798
0.00624314
0.00675045
0.0202304
0.0275185
0.0159996
0.00674266
0.0010668
0.00675383
0.010934
0.000883947
0.0067347
0.00232513
0.000838511
0.00684635
0.00432352
0.000564656
0.00670968
0.00685436
0.00676079
0.00685969
0.00681876
0.0053566
0.00673643
0.0067439
0.0259254
0.00683972
0.00678917
0.00674465
0.00672559
0.006712
0.0122884
0.00677872
0.0067493
0.00681145
0.00686101
0.0158161
0.00679117
0.00220663
0.00668744
0.000908328
0.00126065
0.000655802
0.00075514
0.00673433
0.00692778
0.0263055
0.00691865
0.0126835
0.00683421
0.00676351
0.020508
0.00478972
0.0257052
0.00674953
0.000581476
0.00718909
0.00682663
0.00672663
0.0214219
0.00166824
0.0145644
0.00654409
0.00678653
0.0123765
0.00672025
0.00673532
0.00698846
0.00686196
0.00680197
0.00678974
0.0065982
0.0164452
0.00679539
0.00140367
0.0145984
0.02702
0.000638156
0.0108595
0.00681875
0.00675965
0.0220911
0.0136556
0.0068003
0.0061573
0.0300779
0.0067102
0.00726901
0.00677025
0.00659167
0.00670616
0.00104466
0.00673606
0.00156705
0.00350025
0.00675291
0.017187
0.00689117
0.00676905
0.0068992
0.00681201
0.00681775
0.00687294
0.0192864
0.00672404
0.00679832
0.000595849
0.00678064
0.00685002
0.00675401
0.00675289
0.00123547
0.00675837
0.00680118
0.00670008
0.0190335
0.00684736
0.0191231
0.00681866
0.0130137
0.00694808
0.0068296
0.00696938
0.00679495
0.00738475
0.00679299
0.000861687
0.00677503
0.00678709
0.00673772
0.0284664
0.00315861
0.00133719
0.011908
0.00653384
0.00671523
0.00184342
0.00133239
0.00115697
0.0241176
0.0209792
0.00677228
0.00685709
0.000569916
0.00673577
0.00687251
0.00673346
0.00672114
0.00695885
0.00463731
0.00156792
0.00948292
0.00672767
0.00242058
0.00667907
0.00694431
0.00698893
0.00684615
0.00223369
0.00683147
0.00683303
0.00671544
0.00675132
0.00683108
0.00749335
0.00677715
0.00671451
0.0236662
0.00526629
0.00677883
0.00844768
0.0126845
0.00696892
0.00698034
0.00671822
0.0068133
0.00680308
0.00688585
0.00683368
0.00680518
0.00678276
0.00674749
0.0107414
0.000686699
0.00685277
0.00680922
0.00120026
0.00672974
0.00682271
0.00684065
0.00326245
0.00681608
0.00164965
0.00674276
0.00675859
0.000608827
0.00673104
0.000948034
0.0180446
0.0027481
0.00673001
0.00126653
0.0060344
0.00672111
0.00678806
0.000493001
0.00674263
0.00671785
0.00671165
0.00673912
0.0193436
0.000597013
0.00138632
0.00681299
0.00678328
0.00676256
0.00677288
0.00691989
0.00671544
0.00305644
0.000667524
0.00671379
0.00691491
0.0235395
0.00678776
0.0126078
0.00213094
0.00690792
0.000548555
0.0104308
0.00673302
0.000575016
0.00670756
0.00412702
0.00251625
0.0119055
0.00672894
0.00675365
0.00687444
0.0292708
0.00692667
0.00818364
0.0169185
0.0249249
0.000820584
0.0017125
0.00115291
0.00700973
0.00099248
0.00691437
0.0180983
0.00679391
0.012965
0.00670811
0.00905108
0.00693718
0.00489587
0.00675613
0.00068837
0.00671292
0.00684856
0.00458971
0.0057096
0.00143238
0.00673732
0.00672422
0.00677931
0.00677212
0.0189412
0.00670466
0.0206611
0.0135328
0.0067054
0.00692352
0.00201747
0.00635167
0.00673015
0.00680266
0.00683988
0.00240117
0.00373317
0.00540458
0.00670497
0.00684877
0.00675813
0.00287455
0.00680678
0.00670797
0.0203168
0.00677015
0.0254704
0.00173069
0.00689943
0.00672591
0.0067131
0.00694576
0.00696644
0.00675209
0.00682111
0.00667582
0.0067695
0.00682024
0.0067077
0.00659949
0.00668402
0.0049543
0.00698626
0.00678452
0.00662848
0.00380634
0.000943932
0.0069603
0.00673337
0.00672656
0.00670987
0.00674181
0.00689775
0.00675101
0.00674014
0.00677024
0.00671316
0.000956103
0.00683066
0.00696688
0.00673385
0.0131605
0.00670659
0.00670694
0.00053887
0.00670219
0.00683733
0.000673925
0.00679185
0.00691738
0.00698745
0.000547004
0.0067139
0.000559216
0.0270671
0.0149597
0.01574
0.00683236
0.00673729
0.0155394
0.00692579
0.00670371
0.0112442
0.0121686
0.0210462
0.00672786
0.000486894
0.00673699
0.00673243
0.00535305
0.00670825
0.00681936
0.00704612
0.000694858
0.00673029
0.00608986
0.00676651
0.000616247
0.0151736
0.00677796
0.00700554
0.00126163
0.00673491
0.00678112
0.000595469
0.00121853
0.00672573
0.0128597
0.00692996
0.0126382
0.0115359
0.022309
0.0230165
0.00682243
0.00312164
0.0123684
0.00670725
0.0067076
0.00696683
0.00684726
0.00670661
0.00378841
0.00670051
0.022561
0.00250474
0.00792473
0.000612755
0.00677777
0.00119777
0.0159796
0.00678868
0.0126245
0.00351248
0.000498945
0.0067062
0.00669917
0.0226801
0.00679904
0.0151006
0.00672716
0.0215737
0.00672704
0.0111767
0.0245219
0.00682333
0.00158124
0.00673671
0.00410605
0.000814799
0.0106375
0.0125896
0.0067483
0.00673362
0.00671387
0.0162846
0.0280359
0.00690186
0.00481703
0.0126928
0.00671006
0.00671292
0.00689206
0.00598559
0.00645526
0.00681804
0.00684235
0.006726
0.0155506
0.0196729
0.00418549
0.00671371
0.00670915
0.0146003
0.00670813
0.0120648
0.000726776
0.0235062
0.0101451
0.0229409
0.00672608
0.0067759
0.0029743
0.00521555
0.00233119
0.0067094
0.000491836
0.015242
0.0067165
0.0165248
0.00672367
0.0101457
0.00679278
0.0193799
0.00473194
0.0071599
0.00673577
0.00691733
0.00546946
0.0154736
0.0124597
0.00680267
0.00106989
0.00685401
0.00669079
0.00450806
0.00111113
0.0069795
0.000506164
0.00672107
0.00117277
0.00676953
0.00668791
0.00695702
0.00671187
0.0178585
0.00670791
0.00667708
0.00696379
0.00703512
0.00670826
0.000917873
0.00695557
0.00430323
0.00672944
0.00671425
0.0187025
0.0067061
0.00282698
0.00672196
0.00956701
0.00683681
0.00579211
0.00689733
0.00339783
0.00681078
0.00680895
0.00670466
0.0258162
0.0187645
0.0106421
0.00143968
0.016333
0.00679872
0.00331068
0.0287053
0.00672947
0.0211262
0.0147569
0.000894227
0.00108524
0.00669385
0.0195501
0.00613557
0.0186651
0.0284445
0.00670298
0.00679569
0.0181132
0.0202732
0.0069175
0.0065894
0.00670885
0.00685836
0.000768224
0.00690209
0.00673942
0.00479608
0.00277296
0.000800917
0.0067458
0.0142113
0.00670637
0.00675208
0.010097
0.0183401
0.000736103
0.00681806
0.00241043
0.00673322
0.00672882
0.0216439
0.00671423
0.00671381
0.0206255
0.0229101
0.00682629
0.0138493
0.00172733
0.00303539
0.00298876
0.0011275
0.00687871
0.0129094
0.00680906
0.00671908
0.00675676
0.00694659
0.0068662
0.00126899
0.00687483
0.0228272
0.00686819
0.00113213
0.00679905
0.000752739
0.00709151
0.00684807
0.000787671
0.00687675
0.00674099
0.000833337
0.00705507
0.00121129
0.00684264
0.00671842
0.0207148
0.0103204
0.00699028
0.00667924
0.00667407
0.00678156
0.00685283
0.0238318
0.000808135
0.0031724
0.00103138
0.0148965
0.00681609
0.00270599
0.00405759
0.00286845
0.00107651
0.00673672
0.00673798
0.0044672
0.000882698
0.00120199
0.00672642
0.0136754
0.0264692
0.00693146
0.000653665
0.0022563
0.0217166
0.00681908
0.00190435
0.0239642
0.00698903
0.00672853
0.00311645
0.00681427
0.0067069
0.00672609
0.00135765
0.00681674
0.00139853
0.00679298
0.000697801
0.0041553
0.00107678
0.00633129
0.016335
0.00604079
0.00674008
0.00678776
0.00547199
0.00711285
0.00686681
0.0140874
0.02303
0.00225035
0.0118952
0.0054042
0.0150672
0.00679099
0.0229644
0.00672336
0.0239561
0.000512078
0.00671494
0.00914403
0.0195476
0.00670244
0.00676756
0.00679239
0.00112712
0.0134929
0.00239416
0.00149804
0.00573682
0.004899
0.00120869
0.0202558
0.00681948
0.00671864
0.00126625
0.00893907
0.00672292
0.0067892
0.00674893
0.00680039
0.00681028
0.00182079
0.0123183
0.0067647
0.00616132
0.0108374
0.00679593
0.00704076
0.00509467
0.0166138
0.00678263
0.0069822
0.00723304
0.00678859
0.00672465
0.00678282
0.0067212
0.00671612
0.0260119
0.0160551
0.00679056
0.00745614
0.00643971
0.0052087
0.00672165
0.00694566
0.00673792
0.00681349
0.0215556
0.0068661
0.00693107
0.00226383
0.00682469
0.00692475
0.00151787
0.00671952
0.00066863
0.00678343
0.00670637
0.0132629
0.00672952
0.0171903
0.0046518
0.00672925
0.0049426
0.00696703
0.000943347
0.00345904
0.00670724
0.00786701
0.00672408
0.00671976
0.030245
0.00967331
0.00671057
0.00677464
0.00671739
0.00679405
0.00051059
0.0067507
0.00682283
0.00691937
0.00686361
0.00602976
0.00677175
0.006765
0.00671282
0.00670821
0.0133546
0.00547538
0.00671588
0.000651725
0.00685391
0.00907268
0.00414534
0.000810653
0.0067697
0.00672164
0.000527828
0.00663831
0.00679158
0.00681946
0.0266815
0.000916219
0.0067226
0.00668926
0.000499792
0.000956557
0.00669878
0.0193557
0.000801369
0.00681273
0.00678571
0.00777615
0.00679179
0.00241397
0.0167351
0.00686786
0.00302712
0.00786195
0.00834086
0.00669391
0.00673758
0.00668239
0.00668468
0.000850049
0.0067329
0.00422518
0.00136805
0.00668146
0.00678259
0.00506284
0.00700644
0.0067946
0.00671354
0.00680162
0.0147455
0.00668623
0.00676255
0.0202195
0.00686776
0.00678892
0.00714463
0.00673182
0.00679213
0.00672212
0.00675201
0.00688549
0.00703202
0.00113804
0.00583693
0.00669486
0.00672936
0.00669061
0.000973023
0.00671272
0.00534101
0.00673955
0.00671862
0.00677627
0.00670994
0.00106541
0.00673493
0.00671271
0.0154779
0.0132355
0.00677717
0.0067547
0.00671071
0.0010144
0.00095273
0.00671268
0.018924
0.0181135
0.00698848
0.00492962
0.0270669
0.00586868
0.0251165
0.00253004
0.00620809
0.00672024
0.00312828
0.000744751
0.00670872
0.0152991
0.0012333
0.0067175
0.00152853
0.00239645
0.00705069
0.0259126
0.006702
0.00154157
0.000799162
0.00671339
0.0198441
0.00670767
0.000662264
0.000993251
0.00669736
0.00566953
0.00681949
0.00680136
0.000906885
0.00216813
0.0010803
0.00130477
0.00672689
0.00266854
0.0012661
0.00671058
0.00173127
0.00671573
0.0267216
0.0125785
0.00718305
0.00684818
0.00160758
0.00123448
0.00128054
0.00113953
0.0066987
0.00671907
0.00141388
0.0111233
0.000439997
0.00666887
0.00667222
0.00160946
0.00671349
0.00690108
0.0070152
0.0066661
0.00674504
0.00703085
0.0200581
0.00395015
0.00671414
0.000891314
0.00584965
0.00327784
0.00152782
0.00145335
0.0215608
0.00403218
0.00670282
0.000539999
0.000527121
0.0157712
0.0185613
0.0067587
0.000571154
0.019946
0.000799856
0.00344777
0.0186702
0.0178884
0.00672112
0.00171139
0.0019038
0.00671766
0.000486645
0.00673659
0.00705098
0.0067087
0.00671202
0.00682255
0.00674718
0.00669825
0.00151607
0.0119468
0.00511378
0.0188758
0.00671795
0.0013298
0.00678317
0.00231683
0.0141073
0.00671894
0.000752847
0.00686815
0.00669939
0.00671694
0.00671173
0.00673199
0.00100246
0.00679014
0.00869408
0.00684093
0.00670896
0.0209954
0.00686595
0.00575633
0.00670903
0.006765
0.00890494
0.000488123
0.0157379
0.000857139
0.0180807
0.00677394
0.00651278
0.00685536
0.00209213
0.00254019
0.000486108
0.00135381
0.00672641
0.000839521
0.00545028
0.00311573
0.00124238
0.00171796
0.00141687
0.00353173
0.00695268
0.000895513
0.00674509
0.000609734
0.00684955
0.00056938
0.000640877
0.00670877
0.00200951
0.0168608
0.00679485
0.00265223
0.00679204
0.00095029
0.00684005
0.00679661
0.0145039
0.00671292
0.00768993
0.0046788
0.00689859
0.00470767
0.00679535
0.00946101
0.00671753
0.0129855
0.00186567
0.00674501
0.00671146
0.00429949
0.00671659
0.00149674
0.00686985
0.00696059
0.00421265
0.000743548
0.0026123
0.00676339
0.0207048
0.00679378
0.00670344
0.00495179
0.0206718
0.00698051
0.00671342
0.00686701
0.0147273
0.00105981
0.00670814
0.00868353
0.00678455
0.00126564
0.00480349
0.00629153
0.00671948
0.000673373
0.00671891
0.0067075
0.00672102
0.000521661
0.00144236
0.00735151
0.00691932
0.00623149
0.00493135
0.026377
0.00509681
0.00696828
0.0067947
0.00672355
0.00287269
0.00183036
0.00114216
0.00672082
0.000648093
0.00670309
0.00670825
0.0069326
0.00552319
0.000820364
0.00671983
0.00459623
0.0134659
0.00217498
0.00207707
0.0067691
0.00677867
0.000851028
0.00670679
0.0067795
0.00140631
0.00678184
0.00673425
0.0067551
0.00398391
0.0067048
0.00143641
0.000633968
0.00703995
0.00241546
0.00638091
0.00249153
0.0209739
0.00672829
0.00672136
0.00676391
0.00672548
0.00676098
0.0067452
0.00140802
0.000947975
0.00678676
0.00681754
0.00677157
0.00704773
0.00666436
0.00115898
0.00652824
0.0012658
0.00672027
0.0067863
0.00683226
0.000611317
0.00675689
0.00132064
0.00674737
0.00678448
0.00667342
0.00132149
0.00341903
0.00436649
0.00145413
0.00677979
0.00675767
0.00672118
0.00673147
0.00746888
0.00681093
0.00190251
0.00715568
0.00678541
0.000974271
0.00436492
0.00321393
0.000764205
0.00680182
0.00234407
0.0067301
0.00670617
0.0067032
0.00672448
0.0139978
0.000727546
0.00671569
0.0136305
0.00328193
0.00671555
0.00429916
0.00670323
0.00140021
0.00684209
0.00671318
0.00557556
0.00678544
0.00693721
0.00479562
0.000863141
0.000554077
0.00677593
0.00672047
0.00672009
0.00136577
0.0055535
0.00070808
0.00124834
0.00676305
0.00673505
0.0128376
0.00682729
0.00126315
0.00608675
0.0142444
0.00677851
0.000740378
0.00680011
0.00679001
0.00155208
0.000972819
0.00146204
0.00463797
0.00679157
0.00163792
0.0116503
0.00265526
0.00670613
0.00164245
0.000474285
0.00327926
0.000760857
0.00679251
0.00679392
0.00672128
0.00812017
0.0157787
0.00119598
0.00678901
0.00512035
0.00704886
0.00157011
0.00676699
0.00672342
0.00671872
0.00676214
0.00112283
0.00698334
0.00673694
0.0060305
0.00674802
0.00677117
0.00088153
0.00671978
0.00673023
0.00679263
0.00792697
0.00221735
0.00675814
0.00677023
0.00674822
0.0172361
0.00677052
0.0002036
0.00677668
0.00135387
0.00676424
0.00682295
0.00275798
0.00679529
0.000953007
0.0067962
0.00674231
0.00670553
0.00669747
0.00078261
0.00681478
0.00633441
0.0225617
0.00681301
0.00673924
0.00530716
0.00680547
0.00678712
0.00677433
0.00110667
0.00670963
0.00671349
0.00670713
0.0121772
0.00292006
0.0247702
0.0067858
0.00680619
0.0110619
0.0216444
0.024822
0.00141895
0.00218587
0.0287503
0.00678934
0.0204862
0.00683205
0.000558267
0.00672754
0.00511978
0.00743695
0.00667537
0.00582997
0.00708704
0.0067346
0.00675197
0.0148219
0.00671601
0.0280781
0.00679555
0.00672728
0.00679088
0.00674792
0.00678888
0.000879196
0.00674238
0.00671066
0.00671633
0.00681848
0.0067259
0.00122415
0.0234284
0.0162388
0.00679147
0.00678701
0.0022721
0.00675256
0.00673913
0.000506808
0.000667558
0.00682367
0.00671368
0.00458478
0.00669214
0.00142313
0.0141846
0.00667444
0.00670053
0.00671155
0.00671603
0.0102454
0.00683672
0.00672276
0.00422923
0.000592152
0.000620441
0.0159291
0.00673616
0.00690095
0.00689928
0.00672078
0.00679549
0.0109292
0.0122473
0.00723073
0.00672192
0.0140207
0.0067937
0.00679764
0.00700254
0.00590572
0.00702473
0.00411799
0.00672794
0.00674351
0.0067582
0.00671451
0.00670289
0.00676292
0.00253895
0.0181641
0.00700084
0.00667325
0.00670122
0.0067112
0.00679339
0.00674431
0.00431951
0.00519279
0.00483393
0.00678697
0.0269238
0.00671992
0.00657521
0.0092798
0.0067186
0.00673324
0.0010972
0.00677855
0.00672004
0.00671205
0.00159472
0.00687092
0.000877135
0.00679048
0.00539173
0.00677654
0.00670376
0.0067069
0.00673333
0.00255366
0.0067198
0.00679143
0.000639872
0.00675086
0.018583
0.00698255
0.00126192
0.0067966
0.00189855
0.000880182
0.00678695
0.00670851
0.0068243
0.00678148
0.00674427
0.0163273
0.00670458
0.00268601
0.00671965
0.00685132
0.0186348
0.00672366
0.0117074
0.000535633
0.00674049
0.00272834
0.0067199
0.00679422
0.00671813
0.00679259
0.00670704
0.00674899
0.00676441
0.00679567
0.00124457
0.00677979
0.0067044
0.00679452
0.0067107
0.00671878
0.0067211
0.00672628
0.00670768
0.0067116
0.0067525
0.00671774
0.00673063
0.00677958
0.027604
0.00682533
0.00681204
0.00117016
0.0217937
0.00677692
0.00696694
0.00671246
0.00682611
0.00673755
0.00682722
0.0167489
0.0224328
0.00670774
0.00670158
0.019789
0.00680382
0.0109775
0.00627925
0.00672044
0.00431353
0.00676611
0.00413132
0.00513065
0.00899117
0.0290526
0.0151334
0.00671102
0.00671862
0.0067669
0.00417843
0.00112186
0.00672164
0.00339473
0.0138405
0.00673093
0.00140007
0.00343861
0.00700846
0.00670083
0.00155407
0.00150579
0.0067535
0.00672274
0.00680895
0.0042235
0.00362359
0.00551163
0.00311454
0.00485177
0.00671218
0.00673659
0.00677132
0.00671631
0.00105102
0.00700209
0.00702702
0.00137932
0.00558627
0.00847337
0.00672858
0.00703237
0.00672588
0.000783998
0.00671752
0.00676139
0.00425328
0.00459633
0.00116117
0.00671389
0.0234058
0.00272192
0.000568446
0.022333
0.0144718
0.0067231
0.00671879
0.00672018
0.00438338
0.00672876
0.00670321
0.00672538
0.00183892
0.00880277
0.0190887
0.0070412
0.00716102
0.00665879
0.000829602
0.0213343
0.00334114
0.00392404
0.000698473
0.00882965
0.0255168
0.00670723
0.00670741
0.00672944
0.00203587
0.00725567
0.00277228
0.00689238
0.00673127
0.00677873
0.00100561
0.00671816
0.00677058
0.0067228
0.00100307
0.0067182
0.00671841
0.00670279
0.00395935
0.0106161
0.0026072
0.00382529
0.00676099
0.00540337
0.00653262
0.00676267
0.00671293
0.0137654
0.00401215
0.00680681
0.00681528
0.00168254
0.00676324
0.00672027
0.00672336
0.00682872
0.00175409
0.00670974
0.00678962
0.00671702
0.0068049
0.00675801
0.00672649
0.00670582
0.00674751
0.00679868
0.0096136
0.00671288
0.00670521
0.000724887
0.00143066
0.00312028
0.000473239
0.00671809
0.00275333
0.00671095
0.00654967
0.00671658
0.00597989
0.00675648
0.00671673
0.00670057
0.00659454
0.0053917
0.00672296
0.00490824
0.00676357
0.00670393
0.00677075
0.00682118
0.00149103
0.00672687
0.00586275
0.00675707
0.00571729
0.00272253
0.00680928
0.000842633
0.00670629
0.00672854
0.00671699
0.00631911
0.00697429
0.00751132
0.00320967
0.00365457
0.0013016
0.00225007
0.0063679
0.00675394
0.00669729
0.00150744
0.00521317
0.00670772
0.0027688
0.0067458
0.00672558
0.0149103
0.00672693
0.00675877
0.00283023
0.00351553
0.00718898
0.00678901
0.00672025
0.00631679
0.0067208
0.0067838
0.00325083
0.00677092
0.0089429
0.00871874
0.0276952
0.00672777
0.00675458
0.00671563
0.00674141
0.00694358
0.00678404
0.00671837
0.00210563
0.00671085
0.00840304
0.00679802
0.00674059
0.00704549
0.0135115
0.00466207
0.00683334
0.000771007
0.023422
0.00677955
0.00476806
0.00682808
0.00675839
0.00680863
0.00673446
0.00704808
0.00810656
0.00338228
0.00676343
0.00703923
0.00683777
0.00668507
0.00673236
0.00679734
0.00679983
0.00670104
0.00677877
0.00684061
0.00682804
0.0059761
0.00671658
0.00684018
0.000943077
0.00683829
0.00669576
0.0192724
0.00759257
0.00704426
0.017669
0.000501316
0.00673235
0.00676715
0.00970697
0.0143846
0.00760574
0.0103735
0.0215329
0.00675972
0.0162599
0.00595046
0.00680673
0.0031022
0.00678097
0.0108289
0.00497143
0.00771484
0.00677792
0.00674339
0.00144503
0.00678834
0.00681745
0.00671875
0.00337064
0.00673957
0.00673191
0.00677232
0.0100164
0.00675065
0.00674033
0.00671827
0.00671123
0.006721
0.0024278
0.0067941
0.00671603
0.0068187
0.00236818
0.00590741
0.0159516
0.00676505
0.00675668
0.00669332
0.00675309
0.00671876
0.00670694
0.00212442
0.00676448
0.000903043
0.00671457
0.00683677
0.00669732
0.00677143
0.00699865
0.00421483
0.00670708
0.00685634
0.0255068
0.00866898
0.00505313
0.00761815
0.00678936
0.00248497
0.00672137
0.00668401
0.00674543
0.00670706
0.00672033
0.0067257
0.00680839
0.00121897
0.00672136
0.00988489
0.0138169
0.00674394
0.00656109
0.0015038
0.00678469
0.00671774
0.0067102
0.00682843
0.00675403
0.0217987
0.00670279
0.006767
0.00535245
0.00672379
0.00673402
0.00670927
0.00136782
0.00672861
0.00672478
0.018422
0.00670906
0.00670654
0.00674475
0.00655762
0.00672873
0.00668133
0.00672054
0.00673107
0.0107963
0.00275938
0.0067264
0.00582278
0.00669313
0.00674846
0.00688305
0.0103833
0.0151439
0.00669179
0.0068234
0.0067368
0.00672951
0.00675083
0.00671726
0.0182781
0.0224466
0.00677983
0.00678595
0.0066542
0.00670625
0.00673597
0.00694416
0.0025278
0.0190087
0.00678035
0.00619286
0.0138518
0.00672648
0.00705035
0.00244042
0.0178771
0.00685157
0.0067247
0.00681541
0.00676337
0.00671667
0.019809
0.00673289
0.0139549
0.00766164
0.00549863
0.00703669
0.0257411
0.0068212
0.00508139
0.0119978
0.00262944
0.0040454
0.00672046
0.00689153
0.0181354
0.00670142
0.00752979
0.0067216
0.00669988
0.0066844
0.00669636
0.00672412
0.0115115
0.00682247
0.0169699
0.0112163
0.000561715
0.00727138
0.0066881
0.00671864
0.00294106
0.00875591
0.00671705
0.0117693
0.00790722
0.00669538
0.00671606
0.0185739
0.00672167
0.00780546
0.0225084
0.00672101
0.0278431
0.00678953
0.00348243
0.00129171
0.00672624
0.00670907
0.00331823
0.00258233
0.00677794
0.00668948
0.0066863
0.00717951
0.00671586
0.0179762
0.00673465
0.00676566
0.00186588
0.00669983
0.0282737
0.00672766
0.0067093
0.00677145
0.0108361
0.00673192
0.00671841
0.0089653
0.000104983
0.0112561
0.00679431
0.00670291
0.00384709
0.0139354
0.00756796
0.000840762
0.00323517
0.00380352
0.00681589
0.00673148
0.00701809
0.00679274
0.00676611
0.0066978
0.00646394
0.00703493
0.00671834
0.00667428
0.00680949
0.00670723
0.00683446
0.00719639
0.00499056
0.00751169
0.007634
0.00463558
0.0253853
0.00671717
0.00671676
0.00676944
0.00101233
0.00675321
0.00679096
0.00671396
0.00673988
0.00672204
0.000626075
0.00678024
0.00633359
0.00671863
0.00673541
0.00227509
0.00124021
0.00680032
0.00673466
0.00671647
0.0166408
0.00213968
0.00680237
0.00669956
0.00703423
0.00671911
0.00672366
0.00672365
0.000784675
0.00670774
0.00671331
0.0023014
0.00670718
0.000763691
0.00704719
0.00672959
0.0067452
0.0144335
0.00606288
0.00772786
0.0088317
0.00704767
0.00688926
0.00679434
0.00671563
0.00768274
0.00672472
0.0127796
0.0149541
0.00672404
0.00323524
0.0197569
0.00672925
0.0146926
0.00688478
0.00235307
0.00708022
0.00671226
0.00671755
0.00679262
0.00671827
0.00531229
0.0164582
0.00626386
0.00677019
0.0067377
0.00671134
0.00517636
0.00688522
0.00179276
0.0067137
0.0068116
0.0064417
0.00674983
0.00156559
0.00591231
0.00671966
0.00680829
0.00668132
0.00678344
0.0233168
0.0279741
0.0067141
0.00673689
0.00672024
0.0259232
0.00671501
0.00215842
0.000775383
0.00261587
0.00856907
0.00400468
0.00913215
0.00671717
0.00151789
0.00677713
0.00674585
0.0028039
0.00512022
0.00670465
0.00675714
0.00632132
0.006788
0.00678607
0.0243639
0.00675201
0.00676164
0.00631358
0.00778148
0.00670446
0.0066969
0.000909605
0.0106869
0.00267538
0.00660481
0.00712978
0.0162782
0.00670595
0.00892282
0.004583
0.00668108
0.0137511
0.00725159
0.0204183
0.00504982
0.0011457
0.00670955
0.00670529
0.00672425
0.00676423
0.00303725
0.00670767
0.000802203
0.00677368
0.00687443
0.00680729
0.0196434
0.00671225
0.0095419
0.00681218
0.00721893
0.00751739
0.00892964
0.00696794
0.00667579
0.00129061
0.00675234
0.00709943
0.006827
0.00270746
0.00349614
0.00712556
0.0119986
0.00671026
0.0110882
0.00705072
0.00721008
0.00675586
0.0138791
0.00684422
0.00671179
0.00671771
0.00712716
0.00679469
0.00557339
0.00651756
0.00668872
0.00248001
0.00670147
0.00669984
0.0133205
0.00286817
0.0256071
0.0144257
0.00673459
0.0137223
0.0220421
0.000865074
0.00671345
0.00666245
0.023588
0.00671014
0.00707815
0.00668146
0.00759234
0.0146376
0.0151994
0.00652514
0.00670826
0.00670855
0.00679504
0.00669363
0.00709995
0.00704235
0.00678045
0.00671309
0.0141682
0.00689742
0.0068133
0.00718863
0.00728716
0.00618378
0.00720426
0.00726041
0.00705295
0.0102116
0.00671462
0.0121263
0.00671164
0.000823452
0.00314143
0.00687032
0.0114202
0.00669738
0.00673343
0.00672136
0.00670888
0.00671773
0.00673042
0.00667822
0.00588401
0.00704547
0.0067229
0.0133865
0.00672457
0.00682402
0.00670917
0.017766
0.00679175
0.00669477
0.00623661
0.00707819
0.00670317
0.0066804
0.0161312
0.00676388
0.0165806
0.00153276
0.00682553
0.00679545
0.00424784
0.00373165
0.00227454
0.00671808
0.00670635
0.00696203
0.0045125
0.00275413
0.00419884
0.00667421
0.00694092
0.00679585
0.00692835
0.0067718
0.00652405
0.0137905
0.00670764
0.0133097
0.00652422
0.00671285
0.00671467
0.00673488
0.00673015
0.00670407
0.00672668
0.00670506
0.00691867
0.00397229
0.00680801
0.00680802
0.00244815
0.00179535
0.00671198
0.00670437
0.000886975
0.00682813
0.00699873
0.00670685
0.00686832
0.00670444
0.00669682
0.0132664
0.0067231
0.00670587
0.011111
0.0155146
0.00885685
0.00671673
0.00534092
0.00679081
0.00347691
0.0133076
0.00682681
0.0159125
0.00670666
0.00669503
0.00620459
0.00670138
0.000830632
0.0230562
0.0116769
0.00704715
0.00709785
0.00684376
0.00672589
0.00695248
0.00670664
0.0110887
0.00898091
0.006712
0.0125233
0.00616212
0.00667751
0.00671169
0.00479106
0.00389671
0.000645781
0.00690498
0.0223769
0.0195654
0.00675833
0.0131529
0.0179452
0.00413223
0.0168991
0.00738998
0.0125185
0.00667623
0.0070876
0.00617381
0.00669759
0.0149843
0.0133187
0.00229022
0.00667384
0.00757462
0.00670034
0.00670628
0.0264399
0.023679
0.00670419
0.00682608
0.00389937
0.00671326
0.00727944
0.00671273
0.0057353
0.00673446
0.00677198
0.00678031
0.0170021
0.00578013
0.0105979
0.0069306
0.00681297
0.0172831
0.00670536
0.0235205
0.00525756
0.00677415
0.0133327
0.00680408
0.00477368
0.00673055
0.0171034
0.00674008
0.00682244
0.00669208
0.00677809
0.00671774
0.00679507
0.00129347
0.0126243
0.00670453
0.00573672
0.0100677
0.00669409
0.00670166
0.0213638
0.00586478
0.000987405
0.0137324
0.00887142
0.00670482
0.0067577
0.00804644
0.00723139
0.0104944
0.00581553
0.00670149
0.00675285
0.0068122
0.00668434
0.00671599
0.0011547
0.00671013
0.0272047
0.00671245
0.0067268
0.00177438
0.00667713
0.00148666
0.022476
0.00673813
0.00670806
0.00671472
0.0065147
0.00667369
0.00671298
0.00688361
0.0146866
0.0070682
0.00683694
0.00175634
0.00670492
0.00680151
0.00671937
0.00892329
0.00590773
0.0188854
0.0112089
0.00225458
0.00699229
0.000956855
0.00671487
0.00689271
0.0066758
0.00668394
0.00726244
0.00670875
0.0151599
0.0231795
0.00680898
0.009041
0.00732516
0.0137406
0.0076137
0.00669582
0.00704879
0.00265461
0.00179662
0.00674109
0.00670398
0.00669333
0.00288244
0.0137782
0.0178292
0.0215609
0.00670721
0.00157318
0.00670429
0.00160665
0.0103056
0.00671018
0.00692733
0.00679176
0.0229818
0.0213251
0.00678814
0.00667526
0.00651343
0.00709178
0.00778188
0.00678368
0.00683495
0.0165032
0.0245146
0.0067175
0.006683
0.0067143
0.00703864
0.00684321
0.0156232
0.00669826
0.00688461
0.00725775
0.00671862
0.00670942
0.0122033
0.00733652
0.00677328
0.00679869
0.00679252
0.00670155
0.00671384
0.000772127
0.0176025
0.00674294
0.006921
0.00671079
0.00671686
0.00671768
0.00672985
0.0135267
0.0146338
0.00331279
0.0156526
0.0066991
0.00642821
0.00670172
0.0068267
0.00605176
0.00685995
0.00675141
0.00670474
0.00844935
0.00680112
0.00487483