/*--------------------------------*- C++ -*----------------------------------*\
| =========                 |                                                 |
| \\      /  F ield         | OpenFOAM: The Open Source CFD Toolbox           |
|  \\    /   O peration     | Version:  v2012                                 |
|   \\  /    A nd           | Website:  www.openfoam.com                      |
|    \\/     M anipulation  |                                                 |
\*---------------------------------------------------------------------------*/
FoamFile
{
    version     2.0;
    format      ascii;
    class       volScalarField;
    location    "250";
    object      ddt0(k);
}
// * * * * * * * * * * * * * * * * * * * * * * * * * * * * * * * * * * * * * //

dimensions      [0 2 -3 0 0 0 0];


internalField   nonuniform List<scalar> 
9793
(
3.74789e-06
0.00153926
3.7139e-06
2.25522e-07
0.0346372
1.0082e-06
1.05169e-07
2.13871e-07
2.556e-07
0.0698983
-3.90577e-06
-0.0044344
3.42705e-07
2.21575e-07
3.54131e-08
1.5302e-07
-3.83248e-07
1.04517e-07
4.74521e-06
1.93078e-07
-2.23201e-05
8.16147e-07
0.00060264
6.78325e-08
-6.90901e-07
3.69384e-07
8.8084e-07
-3.99105e-07
-1.2096e-06
3.12719e-07
-1.87321e-05
0.000434162
-0.00350546
7.32324e-08
-1.34253e-06
-9.45912e-05
3.24784e-07
8.39972e-07
2.30138e-07
9.74206e-08
-1.30234e-05
2.29857e-08
3.13796e-07
2.24426e-07
3.66963e-07
3.38195e-07
-1.29382e-06
-0.000958967
-0.00157002
1.3241e-07
-1.35728e-06
-3.96472e-06
9.85766e-07
2.39155e-07
0.00372399
-0.0151391
1.20013e-07
-7.06261e-06
-0.00764866
3.8009e-07
4.82896e-08
9.53368e-07
-0.00845905
1.99444e-07
-0.0114156
-0.00487969
-0.00877216
-0.00732162
-0.00514823
-3.75345e-06
0.00167432
-2.13598e-07
3.23316e-07
0.000986236
-1.53497e-06
-0.0074177
1.95638e-07
1.9199e-06
1.02655e-07
-6.01372e-07
-0.00439746
1.07451e-06
0.000285709
-0.000271458
2.33732e-06
-0.000786277
-4.90408e-07
2.45607e-07
8.58948e-07
1.46071e-06
0.00189528
0.0245501
-1.21118e-08
0.00050696
9.13887e-07
-0.000241399
-0.0185525
0.0010205
1.89386e-07
-1.67721e-07
-1.86654e-07
8.34953e-07
1.07826e-07
1.05266e-07
1.90363e-06
5.44461e-07
9.07537e-07
-3.3245e-08
8.94061e-07
-0.00104998
-2.72898e-07
-0.00192807
-2.22423e-07
-0.0203456
-3.92503e-06
1.74649e-07
-0.00494835
-1.4245e-06
1.62843e-07
0.000369531
-0.00088896
-4.90523e-07
1.01961e-07
1.00159e-06
2.5148e-07
1.0526e-05
-2.26748e-06
-0.000580313
-8.252e-07
3.36721e-07
-3.99748e-07
2.419e-07
3.44645e-07
9.4353e-07
2.34958e-07
2.34178e-07
2.56709e-07
2.07324e-07
-1.14632e-07
4.91934e-08
1.64556e-07
-6.65521e-07
1.17101e-07
-3.23821e-07
3.27692e-07
1.47228e-06
0.000966269
-3.23561e-07
1.0429e-07
0.0175147
0.0109738
-3.74123e-07
0.0150276
0.0671644
9.15919e-08
-4.5031e-07
9.73781e-08
-5.29176e-07
-2.57697e-07
1.27823e-07
3.19532e-07
-5.3929e-07
2.82065e-07
6.84538e-06
0.00120138
-2.01941e-05
-0.000816276
2.88918e-07
8.51523e-07
8.86536e-07
-4.27874e-07
0.00153835
0.00134834
0.00135213
2.79836e-07
5.87687e-06
2.2797e-07
-1.39586e-09
2.29402e-07
-3.58436e-07
-0.00109773
4.3628e-08
-2.52717e-07
-6.47258e-07
-0.00699345
2.45533e-07
2.80076e-06
2.16325e-07
9.83502e-08
2.6527e-07
2.72201e-07
2.74635e-07
-0.00244416
0.000484633
-0.00745192
-3.35607e-07
6.8965e-06
6.64023e-07
0.0611226
5.00958e-08
2.28546e-07
3.77097e-06
-0.015685
3.03461e-07
2.13047e-07
3.74009e-07
-4.83821e-06
-4.66164e-07
8.22432e-07
4.30288e-07
-3.75686e-07
-0.000371615
-0.00239702
2.82194e-07
1.2841e-05
8.45474e-08
9.90648e-07
-0.00846367
7.66184e-07
0.00273355
1.66725e-06
2.68719e-07
2.49399e-07
2.83536e-07
-0.000167368
2.03548e-06
9.57575e-07
1.8666e-07
2.23638e-06
-2.509e-06
1.42792e-07
4.44662e-08
8.11283e-08
7.3132e-08
-2.56998e-06
0.00244092
1.96144e-08
-3.35237e-07
-0.0187796
7.3499e-07
1.28395e-06
-3.59053e-07
-3.13208e-07
-0.00381871
-1.57816e-07
1.15969e-07
2.38122e-07
-5.42113e-07
2.5735e-07
4.49979e-08
4.89522e-07
5.35195e-08
-3.18167e-06
-2.44777e-06
-2.60152e-07
8.94085e-07
-2.45573e-07
5.49496e-08
7.35204e-07
-3.91649e-07
-0.00130531
-1.39355e-07
-3.02473e-06
1.10567e-07
1.94096e-07
4.35249e-07
6.22349e-08
-3.37394e-07
3.58042e-08
7.63165e-07
-4.22058e-07
2.44122e-08
6.18406e-07
2.99327e-07
0.00176924
0.00188835
4.35328e-07
-5.1846e-05
3.40844e-07
-2.49676e-06
-3.96851e-07
1.91823e-07
-1.62239e-09
1.03505e-07
-2.3449e-06
2.88249e-07
4.86108e-07
1.79303e-07
8.40136e-08
2.27119e-07
-1.00519e-07
-0.00490826
7.51366e-07
3.39128e-07
-3.86777e-07
1.03405e-06
3.78938e-07
2.16091e-07
3.97122e-07
1.94501e-05
1.65017e-07
0.00141875
-0.0040378
5.16004e-08
1.00082e-07
-3.76347e-07
7.02042e-07
4.37502e-07
-2.55095e-07
0.000908743
3.99847e-07
-3.86121e-07
5.39413e-07
6.14643e-07
4.64442e-07
1.21048e-06
-0.000360277
-2.48417e-07
7.63601e-07
3.786e-07
-5.69544e-08
0.00110488
1.15506e-05
0.00079619
1.99112e-07
-0.00178525
4.59434e-07
-0.00425215
-9.82402e-07
1.52085e-07
-8.73815e-08
-1.09819e-06
1.25933e-06
5.70212e-07
-4.60685e-06
2.46138e-07
3.35113e-07
3.70326e-08
2.61957e-08
-6.11354e-07
5.72684e-06
3.06506e-07
-7.49143e-08
3.24415e-05
8.03531e-07
6.28393e-08
1.90849e-07
6.99717e-07
2.36499e-07
9.63103e-06
2.68062e-07
3.00011e-07
6.08956e-07
7.5081e-07
0.00286199
2.81008e-07
-3.14991e-07
3.26778e-08
-1.35258e-06
0.00852194
-1.56329e-06
-1.4758e-06
6.5031e-07
9.42388e-07
1.43113e-05
4.94068e-08
-0.00127875
8.97641e-07
7.87467e-08
-0.00418013
5.8935e-07
1.78143e-05
3.33913e-07
-3.30853e-06
-3.94535e-05
-2.60782e-07
2.66415e-07
-0.00410647
-4.01588e-07
0.000960356
8.97526e-07
3.57101e-07
-0.0103049
5.17392e-07
5.77659e-07
2.37392e-07
9.87222e-08
8.25688e-07
3.05846e-07
8.75018e-07
0.00244821
3.3114e-07
-0.0139155
0.000342653
1.29428e-05
-3.02361e-06
0.000443875
8.04331e-08
5.63515e-08
0.00146286
0.000237099
-2.35436e-07
3.93229e-08
-2.21866e-05
4.60444e-08
-0.015587
-3.85091e-07
8.87168e-07
4.94748e-08
-3.83425e-07
3.26649e-07
-3.91685e-07
-0.000225691
-4.73882e-07
0.00042825
8.02114e-07
3.71356e-07
2.5724e-07
5.91179e-07
7.70875e-07
1.29066e-06
2.17338e-06
3.61893e-07
4.80846e-07
-4.43901e-06
3.97545e-07
7.40311e-07
4.42732e-07
3.92995e-07
-3.84867e-07
9.80327e-08
5.11057e-07
1.90919e-07
-0.00177011
1.12815e-06
-0.00251255
9.01821e-07
-0.00131255
2.29736e-07
1.04071e-06
2.04509e-07
3.58893e-07
-0.00750709
6.14084e-07
0.00474743
1.21198e-07
-3.00755e-07
5.47643e-07
-7.9793e-05
-2.10964e-06
0.0153226
0.00294197
1.03572e-06
3.86284e-08
9.3504e-07
-3.44151e-07
-2.27761e-07
0.000873468
0.00262155
4.05567e-07
4.23352e-07
-3.02358e-06
1.38128e-07
1.29964e-06
8.81573e-08
1.39732e-07
6.09365e-08
-0.0123939
-3.35221e-07
-0.00992179
1.30221e-07
7.76327e-07
6.36198e-09
2.25134e-08
-6.70354e-08
9.48459e-07
2.91229e-07
1.01275e-06
3.16007e-07
2.15948e-07
2.48479e-07
5.22062e-07
-0.000917884
7.87816e-08
-1.15281e-08
-0.00392102
9.54427e-07
2.70454e-07
-0.00659908
-0.00182203
2.24042e-07
2.15561e-07
6.43626e-07
5.79326e-07
4.60529e-07
1.89676e-07
4.31426e-07
8.15214e-07
-3.38009e-07
-2.38009e-07
0.000756399
-3.2069e-06
1.20134e-07
-0.0070856
8.53933e-07
3.22799e-08
7.47481e-07
9.72158e-08
0.000934824
-3.8874e-07
0.000563478
2.47312e-08
-3.05511e-07
-3.21452e-06
1.54667e-07
-1.26559e-06
-0.00310676
6.84084e-07
-6.7614e-08
-0.0127849
7.5948e-07
-5.73525e-08
-4.8347e-07
-3.43783e-06
8.57269e-08
-5.93441e-08
2.89527e-07
3.28512e-08
-0.00475096
-2.76209e-06
8.46131e-07
8.35466e-07
-3.83183e-07
-1.68185e-07
3.78061e-07
-2.74604e-07
3.61294e-07
-5.94836e-05
-7.07006e-05
-1.89128e-08
5.13656e-07
0.00369385
5.94868e-07
0.000579829
-5.04405e-07
-2.65224e-07
-4.30492e-06
-0.0093359
3.13991e-07
0.00029721
7.50692e-08
-0.0197503
1.06554e-07
-0.0102073
3.05961e-07
-3.09138e-07
-3.07287e-07
0.00171275
1.01978e-06
-0.00788871
-0.00278275
-0.0139005
-1.32956e-06
0.0091486
-2.31474e-07
8.50171e-08
-1.08052e-06
8.72284e-07
-0.00081462
2.49331e-07
-0.00265672
3.39919e-07
0.000513802
3.99268e-08
9.83088e-08
-1.85542e-07
-0.000882908
3.11601e-07
9.0149e-08
1.27395e-07
4.02614e-07
-3.2048e-07
3.35005e-07
3.14643e-07
5.87759e-07
5.75139e-07
1.39884e-05
1.90709e-07
0.0036509
0.000396933
1.36983e-07
4.10721e-08
9.2525e-07
4.1988e-08
1.70132e-07
5.16328e-07
-2.56011e-07
8.3986e-08
9.34987e-08
3.99721e-07
-4.62622e-08
1.70464e-07
5.17625e-07
8.08257e-08
6.47264e-07
7.32031e-07
0.00433758
4.47565e-07
3.54397e-06
-3.64776e-07
1.4339e-07
3.02217e-07
2.54743e-07
1.75842e-07
-8.97015e-07
-1.57804e-07
-5.61716e-07
1.69386e-08
-2.17594e-07
-5.71005e-07
1.6574e-07
8.94706e-07
6.67203e-08
1.18459e-07
-1.33129e-08
3.23169e-07
8.67244e-07
1.09437e-07
-1.29336e-06
1.56409e-07
1.06769e-08
3.03642e-07
-4.76463e-08
5.85641e-07
1.59289e-07
8.95831e-07
2.85624e-08
4.78894e-07
3.61543e-07
-6.47362e-07
6.09402e-08
1.0552e-07
1.63984e-07
0.00346586
2.97955e-07
1.31624e-07
-3.84944e-06
6.79279e-08
2.4024e-07
-0.00352368
-6.97158e-07
1.17085e-07
-1.48875e-07
-7.28018e-06
2.60923e-07
-3.49563e-06
-0.0063645
-0.000982749
-0.00353123
2.1866e-07
2.35689e-07
0.00278831
-5.77354e-07
1.92204e-07
0.000509456
-0.00337535
0.0145354
2.62905e-07
-3.98955e-06
2.33939e-07
9.95315e-08
-0.0182999
1.72879e-07
-6.08627e-05
1.90005e-05
-3.11385e-06
8.70105e-09
4.74827e-07
4.96622e-07
-0.000942417
0.00926838
-4.97978e-07
1.13018e-05
-7.80642e-07
3.29221e-08
8.74642e-07
-3.56803e-06
0.00123485
2.5107e-07
0.000841358
-8.16116e-07
-0.000459391
0.000626746
-0.00477948
0.00291827
-4.50024e-07
1.7267e-07
0.00224697
2.25436e-08
2.77326e-07
3.28713e-08
-4.05271e-07
2.58933e-07
-0.00939265
2.33174e-07
0.00163543
8.28304e-09
-1.63909e-05
-3.64261e-06
3.69065e-07
0.0031708
-0.00491151
3.00419e-07
-0.0108801
-9.12144e-08
-6.21476e-06
2.55383e-07
5.78861e-08
-0.00124895
3.98263e-07
0.010557
1.92335e-07
0.00337459
-5.03615e-08
-0.000753759
-0.0010438
-4.70057e-07
-0.0076815
2.76895e-07
1.313e-07
-1.46953e-06
-0.019671
-0.0152945
7.55543e-07
-6.68833e-08
1.38037e-07
-0.00207932
-7.74857e-05
3.07553e-07
1.08222e-06
0.00059893
2.16952e-07
3.0878e-08
7.74937e-07
-7.63803e-05
3.98297e-07
5.1886e-07
7.28253e-09
3.42852e-07
-0.00418603
0.00612177
0.000355981
-3.64188e-08
2.42194e-07
0.00797658
3.24013e-07
-0.0116227
-1.42014e-06
0.000611495
-0.00121266
0.0033569
1.60891e-07
3.37217e-07
2.79459e-08
1.02497e-07
2.72124e-08
4.3559e-07
-4.00965e-06
0.00370444
3.66063e-08
-0.00282403
3.49658e-07
-0.0061303
2.52893e-07
-0.00150173
9.361e-07
-2.60363e-06
1.30648e-07
1.13462e-05
0.000171369
0.00593423
0.00270013
7.51365e-07
-4.60849e-08
-2.52114e-07
7.71971e-07
4.80946e-07
-0.00109936
4.21798e-07
-5.76992e-06
1.90289e-07
-8.85581e-07
-3.25287e-07
6.30376e-08
-3.53247e-09
2.44806e-07
0.0106771
1.941e-07
6.18355e-07
2.94583e-07
-3.95027e-07
3.20627e-07
5.96683e-07
3.32308e-08
6.26019e-08
6.93171e-08
1.66384e-07
0.00359647
2.12273e-07
-2.2119e-06
4.08027e-08
0.000590214
1.20703e-08
1.77131e-05
1.24841e-07
-0.00750014
5.71086e-07
4.20327e-07
2.02781e-07
-1.77095e-05
0.0036728
-0.00650765
0.044857
0.0108026
3.18841e-07
1.04277e-07
0.00102758
4.15021e-07
-0.000965731
-0.00094493
8.66935e-07
-1.95619e-05
6.7443e-07
0.00307784
3.93666e-07
-0.00310999
0.00165624
6.36447e-07
3.16142e-07
0.00366929
3.4728e-05
2.93762e-07
8.88718e-07
2.61368e-07
1.74477e-07
-1.84209e-06
1.2377e-07
6.3794e-07
7.80211e-08
0.0010139
-1.4058e-06
9.44884e-07
-0.000822012
2.03714e-07
7.50122e-07
-1.79512e-05
-5.70068e-06
-2.09879e-06
4.32191e-07
0.000291789
-1.13784e-07
2.71653e-07
-0.00527669
4.0411e-07
6.81292e-07
0.00247951
0.00139327
-2.85319e-07
-0.0062722
0.0100162
-5.43831e-05
0.00218331
-0.000782521
3.0216e-07
-0.0049035
5.58704e-07
2.18176e-07
4.96773e-07
6.03186e-08
-3.32764e-07
-0.0060636
-4.40201e-07
-0.00474377
2.12159e-07
1.45656e-06
6.06618e-07
-1.94183e-06
2.76751e-06
1.0508e-06
-1.49536e-06
-6.01287e-06
2.55683e-07
-4.50424e-06
-4.11133e-06
-3.75e-07
-6.16455e-07
-3.84773e-08
0.00315895
0.000389917
-1.17667e-05
-7.13408e-09
7.83638e-09
1.37844e-06
-8.96989e-07
1.43746e-05
-9.63782e-06
0.00331365
-4.11122e-07
-0.00121001
-9.46038e-08
8.83769e-07
1.22009e-06
4.08282e-08
-7.26253e-05
1.4817e-07
-1.69406e-07
3.69154e-07
-8.09874e-07
-0.00106832
2.44694e-07
-0.000711884
-0.000410957
2.94673e-07
-2.25619e-06
-6.77398e-08
1.86379e-05
5.85361e-08
-2.90359e-07
0.00042867
2.49088e-06
2.03986e-07
0.000367615
6.48546e-07
-7.10348e-08
6.75861e-08
0.0354725
7.10818e-07
-6.44403e-07
-0.00371702
-2.1153e-06
9.50064e-07
8.13716e-08
-0.000127717
-0.00216875
-4.8554e-05
2.49454e-07
3.15461e-07
1.21048e-07
5.26557e-06
2.09972e-08
0.00294561
0.00314639
-6.47614e-08
-0.00527351
0.000865636
-0.00275089
2.94064e-07
0.00300777
3.1117e-07
0.000487489
-5.6083e-06
6.04168e-08
-0.0189699
0.00293666
2.03463e-07
3.4141e-07
5.90256e-08
0.00654834
-0.00594814
3.94107e-07
1.40719e-06
0.000278146
0.000131436
-0.00161264
3.78585e-05
7.70761e-07
-5.9833e-08
-0.00800249
0.000172293
2.58628e-07
3.37925e-07
7.70065e-07
5.11377e-07
6.69992e-07
-3.84268e-07
-4.46983e-06
4.76273e-07
4.62214e-07
0.000344369
9.09975e-08
-4.00237e-07
8.90003e-07
0.0137505
3.07353e-07
-3.94065e-07
-4.3348e-05
3.06516e-07
7.40088e-08
3.25564e-07
8.95386e-08
7.43802e-07
-0.000913644
-0.00466049
-8.53179e-07
-0.000269989
4.71434e-07
0.00046016
8.03093e-08
7.96281e-08
6.67609e-07
6.83252e-07
0.00305106
9.11777e-07
1.93281e-07
4.13498e-07
-2.505e-07
1.07402e-05
-6.32457e-07
2.78272e-07
-3.65356e-05
3.67175e-07
2.49091e-07
-0.00668763
2.1759e-07
0.00314697
4.43655e-07
1.6879e-07
-1.0711e-05
-3.82268e-07
-1.25859e-06
-0.00945684
1.98082e-08
-0.00481333
4.70833e-08
1.9836e-08
-5.83958e-05
-0.0059675
3.15674e-08
4.02924e-07
1.83129e-07
2.34257e-07
-6.05993e-06
5.68233e-07
7.91314e-09
1.19648e-07
3.02711e-07
1.82027e-07
5.32344e-07
7.18802e-08
1.09147e-07
2.69157e-07
-0.00216435
8.80392e-07
5.44773e-08
-2.35162e-06
-3.8859e-07
0.000220784
0.000724953
-1.58505e-06
3.81662e-07
2.3143e-07
-5.21819e-06
8.76291e-07
7.77496e-08
7.7705e-07
-0.000555471
0.00466381
1.49084e-07
1.20497e-07
-4.89828e-06
1.43272e-06
9.32194e-08
-0.00406114
-9.87066e-07
7.76676e-07
4.43135e-07
4.99244e-06
3.26996e-07
4.82536e-07
-0.00354582
6.75484e-07
-0.00359661
9.98746e-06
0.000328438
1.54514e-07
2.7105e-07
1.31362e-07
1.22131e-07
0.000437373
9.34997e-08
-0.004262
1.31816e-06
1.20366e-07
3.20444e-07
-3.06164e-06
-2.88824e-08
1.58245e-07
6.69323e-07
8.36043e-07
0.0027407
1.3917e-07
2.47965e-07
-0.00120568
3.13657e-07
3.47505e-07
9.82732e-07
2.23354e-07
3.43727e-07
3.30997e-07
4.83722e-10
-1.20152e-05
-3.16731e-07
-4.24541e-05
-0.00110285
1.64761e-07
1.71515e-07
1.40213e-07
-1.65716e-05
6.44529e-08
8.82717e-07
4.0801e-07
-2.13896e-07
3.04417e-06
2.20913e-08
-9.22111e-07
2.84186e-07
1.1233e-09
0.000757912
0.00471676
2.30448e-07
2.14739e-07
5.61384e-08
0.00193862
3.58035e-06
4.31153e-07
0.00057345
0.00403533
1.70495e-07
0.000128609
-0.000310215
6.19643e-07
-0.000865314
-8.3887e-07
1.48592e-05
2.69762e-07
1.19017e-06
-7.84995e-06
9.24026e-08
0.00100489
-0.00269924
-1.03825e-07
-0.00172212
-0.000708505
8.71418e-08
-0.00069932
-1.37957e-08
-3.07047e-07
-6.98608e-07
1.34188e-07
0.00338719
2.75188e-08
-2.31806e-06
1.18989e-06
1.18391e-07
0.00210711
7.41742e-07
2.0643e-07
-1.12848e-06
-7.52571e-08
-0.00033841
-0.00956991
1.46329e-08
3.3499e-08
-0.00299045
2.41494e-07
-3.33312e-07
2.24081e-07
-0.000636602
0.00433495
-3.14363e-07
5.3875e-07
-4.14981e-07
0.000185976
-0.00737404
-7.47753e-07
1.6559e-07
5.43437e-08
-0.0119393
-0.00482852
0.00123974
8.42137e-07
9.05838e-07
-4.76107e-07
-2.354e-08
5.27993e-08
2.84906e-07
8.55315e-07
1.57035e-07
2.69056e-07
-0.00442336
4.25662e-07
5.69334e-08
0.00439464
8.77808e-07
-2.05789e-05
-0.000498191
1.6877e-06
0.00540516
-0.0042676
6.98831e-08
1.86522e-05
2.616e-05
0.000125159
0.000796169
5.08955e-07
-1.36853e-05
0.000764578
8.51838e-08
5.80634e-07
0.000670186
0.000455961
1.9226e-07
-4.21295e-07
-2.83289e-07
3.50124e-07
-5.19726e-06
1.18514e-07
-8.90299e-08
1.61098e-07
2.51936e-07
7.05727e-07
2.88278e-07
8.47214e-07
-5.70104e-07
0.00255612
3.17952e-07
0.00251548
2.35509e-07
-7.3483e-07
3.85672e-07
0.0286031
-0.0029412
2.61841e-07
-3.12921e-07
1.03677e-06
5.4569e-08
4.1852e-07
-2.00045e-07
8.25902e-08
-2.43283e-05
3.56019e-07
0.000232493
-6.8923e-07
8.91139e-08
-0.00395107
1.64531e-07
6.0076e-08
1.72127e-07
5.22225e-07
-0.00451604
-5.53374e-06
-0.00194402
0.00483994
0.0120698
3.89594e-07
5.377e-08
5.10836e-07
-1.74003e-07
4.24197e-06
-5.13847e-06
-0.0148766
2.22665e-07
1.14868e-07
1.35095e-07
0.000248493
-0.00437752
-3.69422e-07
-0.00299009
0.00319634
6.20161e-08
4.84281e-07
1.06322e-07
-2.57639e-06
2.4085e-07
-6.73342e-06
-2.49926e-06
1.90862e-08
-0.0016886
-0.00148693
2.44523e-07
-1.68335e-08
2.36646e-07
0.0111027
-1.5907e-06
1.08174e-07
0.00317036
1.51926e-07
-0.0146423
3.44986e-07
5.85451e-07
8.64273e-08
1.31172e-07
0.00418926
1.19771e-07
-0.00183604
-3.31414e-07
3.10325e-07
2.47257e-07
-0.00269272
7.90142e-07
-0.0114458
4.67511e-07
2.43901e-07
7.17062e-07
-2.4538e-06
2.47156e-08
5.17138e-07
0.000924974
1.08649e-07
-4.39278e-08
0.000313883
0.000866053
4.56962e-07
-4.83831e-08
2.86412e-07
6.13412e-06
1.45797e-06
1.95711e-07
0.000508189
1.3079e-06
-4.35124e-05
-3.07678e-05
2.35786e-07
1.83329e-07
-2.04823e-05
3.48607e-08
1.99182e-07
1.38865e-07
-6.4446e-06
-0.00938487
6.86088e-06
3.0403e-07
2.45642e-08
1.26749e-07
-0.000285005
-3.9084e-06
2.21536e-07
5.32389e-08
2.69567e-07
-2.17209e-05
0.00207898
0.00116064
2.29596e-07
-0.00160776
3.1132e-08
-1.81758e-07
1.10295e-06
1.70127e-07
-7.28347e-07
3.78728e-08
-5.54211e-06
0.000333774
-3.47613e-05
-2.18765e-07
3.47173e-07
3.66705e-07
-3.17265e-07
9.23245e-08
2.14634e-07
9.83786e-07
3.69382e-07
1.89044e-07
5.82502e-07
3.97742e-07
-4.35965e-08
-0.0012273
-2.55969e-06
7.63596e-08
4.00994e-08
2.20065e-05
8.18082e-08
0.00220394
3.23134e-07
4.70435e-07
2.63108e-07
2.3422e-07
2.0046e-07
1.5183e-07
0.000673122
-3.24373e-05
3.17349e-07
6.276e-08
2.8277e-07
6.62681e-10
8.96295e-07
2.60914e-06
2.17e-07
0.00013763
4.51673e-07
4.54101e-07
-8.14285e-07
-1.84985e-06
9.93429e-08
-0.00443522
8.56845e-08
3.21333e-07
1.57936e-08
-0.00965344
1.45145e-07
-1.45374e-05
-0.0139554
4.82395e-07
1.18998e-07
2.37005e-07
2.46966e-07
8.51627e-06
2.74175e-07
-2.36596e-07
-0.00867883
4.18258e-07
2.95959e-06
0.00101642
1.09518e-07
-1.57365e-05
5.38788e-07
4.32615e-09
-1.02095e-08
9.05716e-08
3.48592e-08
2.30783e-07
0.000737701
-5.40553e-06
1.1339e-07
0.00152338
-0.00908396
1.79376e-07
3.41762e-06
1.07402e-07
1.00236e-06
2.29908e-07
6.64472e-08
4.45854e-06
3.99935e-07
1.08102e-07
6.67025e-07
2.77361e-06
-6.29705e-06
3.90877e-07
-3.76608e-09
7.57046e-07
-0.00598807
-0.00196879
-2.2489e-06
-8.02951e-07
3.43496e-07
2.7293e-07
0.000282709
7.75839e-07
-3.76736e-07
3.13427e-05
0.00267291
4.00964e-07
-1.85356e-06
6.14741e-07
4.83582e-07
9.47985e-07
-9.45134e-07
8.6643e-07
6.33012e-08
2.15492e-07
-2.44893e-07
-0.00143483
-2.07458e-05
-1.49439e-09
-5.53031e-07
-4.87759e-06
1.46995e-07
-5.93566e-07
3.2064e-07
3.80884e-07
8.69625e-08
2.22204e-05
0.0103094
2.891e-06
4.22344e-07
5.14599e-06
1.0713e-07
-2.59148e-07
2.62375e-07
2.49113e-07
-2.12636e-10
-3.90802e-07
2.51383e-06
1.63004e-06
4.617e-07
1.89041e-07
2.82618e-07
3.99761e-07
0.0105165
-1.39428e-07
2.86045e-07
3.52492e-07
0.00196666
0.000349498
2.19713e-07
-1.08002e-07
9.01191e-08
0.000582839
5.05926e-07
0.00196641
3.78519e-07
3.72992e-06
3.60282e-07
8.88125e-07
-6.08288e-06
3.42696e-07
-1.0069e-06
9.29713e-08
4.21896e-07
1.05661e-07
7.80949e-07
0.000357327
7.16573e-07
1.96502e-07
0.0022803
7.45645e-07
6.8419e-07
1.03648e-07
4.65589e-07
2.14196e-07
3.95087e-07
-0.00653147
2.03815e-07
1.33832e-07
3.11103e-08
0.000546827
1.92685e-07
0.003036
2.81429e-07
5.45969e-07
0.00605382
-0.00145502
-0.00167114
-7.02949e-07
1.50884e-06
0.000298077
4.01202e-07
-0.00478437
7.66505e-07
1.56531e-05
1.95589e-08
9.9123e-05
-0.00410758
4.07245e-09
6.44936e-07
5.83824e-07
6.75218e-07
2.86924e-08
-0.00260384
7.21721e-08
-2.25375e-05
2.885e-07
1.55546e-07
4.17827e-07
5.53997e-08
4.70975e-07
0.00027009
2.82622e-07
1.42559e-07
8.97227e-08
8.38746e-07
2.08904e-07
0.000384801
0.0121385
-0.0006046
4.1594e-07
9.94201e-07
-1.29481e-07
8.14826e-09
1.50426e-07
-1.22376e-05
-2.12519e-06
8.67413e-07
8.59034e-08
-0.00168133
4.98223e-07
0.000105535
-0.00206793
8.45836e-07
1.37773e-07
1.20405e-07
3.29786e-06
0.000166077
6.26096e-07
2.28796e-07
-0.00292741
-0.000289467
-2.89591e-06
0.000172176
6.3132e-08
4.19759e-07
1.55048e-07
1.95124e-07
1.86286e-07
0.000647457
0.0035298
1.67115e-05
4.70349e-07
0.00685085
3.7396e-07
5.5898e-07
4.16296e-07
2.17411e-07
2.41803e-07
-7.42737e-06
2.59235e-07
2.87969e-07
5.01565e-07
9.14102e-08
1.23679e-07
-1.33072e-07
3.15009e-07
0.000676005
-7.90333e-05
-6.24561e-11
-1.30135e-08
1.23909e-07
1.75542e-07
1.80073e-07
-3.57491e-05
1.51296e-07
1.07507e-07
2.10563e-07
-0.000215854
3.32643e-07
5.14984e-07
-0.000982652
2.26074e-07
1.2847e-07
0.00130709
1.13213e-07
3.56366e-08
4.7536e-07
0.0325897
-9.45137e-05
4.92791e-07
3.9716e-07
-4.12037e-06
8.75543e-07
-1.62737e-07
-1.73441e-08
1.82493e-07
-3.6107e-06
4.41919e-07
1.54615e-07
-2.27432e-06
4.33879e-07
-0.0038701
4.52492e-07
-2.55332e-07
-1.35272e-08
0.00015833
-1.36429e-06
3.69234e-07
1.75152e-07
1.86702e-07
3.74063e-07
1.78755e-07
-0.000941563
1.52146e-07
-5.30532e-06
2.40325e-07
6.00612e-07
0.0480052
2.39594e-07
-0.00143741
-6.40351e-06
1.14481e-07
-0.00804103
2.10163e-07
3.63973e-07
2.98878e-07
3.53613e-07
1.96456e-07
4.00272e-07
4.6156e-07
6.52357e-07
8.74406e-05
3.51395e-07
1.19265e-07
1.55468e-07
1.65998e-07
2.72235e-07
2.73698e-07
1.10782e-07
-6.35709e-08
3.35216e-07
3.655e-07
-1.04829e-07
1.96726e-07
4.39487e-07
0.000172146
5.3724e-07
2.92268e-07
1.81119e-05
-0.00211004
1.22557e-06
-1.67931e-06
3.14167e-08
-3.31128e-07
1.13277e-07
6.39093e-07
-0.00337944
0.00026214
3.15202e-07
8.59676e-07
0.0030243
5.04034e-07
-1.78373e-05
-0.0101494
4.74687e-07
0.00432566
3.19029e-07
-0.0106311
6.88036e-07
0.00051891
-7.28981e-07
0.00255401
-3.44908e-08
1.8023e-07
-4.91665e-08
7.1562e-07
1.45574e-06
7.94574e-07
-0.00696578
0.00248599
4.42429e-07
-0.00694657
-0.00125153
8.4041e-06
-2.15063e-08
5.66192e-07
9.43554e-07
4.85144e-07
2.55877e-07
-4.05815e-06
2.2468e-07
4.92689e-07
2.61667e-07
2.91316e-07
3.14856e-07
0.00129184
1.65094e-08
3.23895e-07
2.02714e-07
0.00117731
4.875e-07
2.12968e-07
0.0402377
0.00212068
0.000369961
1.16954e-07
3.27419e-07
3.25312e-07
-1.746e-06
-6.72087e-08
4.45712e-07
-0.00197403
1.12736e-06
3.79735e-06
2.08253e-07
-0.00224627
-9.75578e-07
-6.21155e-06
0.00262931
0.0114937
3.36884e-07
-3.05817e-08
1.21411e-07
-0.00309026
1.77199e-07
1.5786e-07
3.49036e-07
1.0407e-06
-0.0219126
0.0014389
-4.44078e-08
-1.21682e-06
0.00295759
-1.7812e-07
-0.00218128
-0.00200061
-0.000470218
-1.96732e-06
0.00437933
-0.000283594
2.43565e-07
2.54827e-07
2.84315e-07
-0.00603493
3.15937e-06
-5.89186e-07
-9.97803e-08
2.56234e-07
2.69789e-07
0.00826074
2.69194e-07
1.83806e-07
2.32693e-07
3.20475e-07
2.01428e-08
1.22364e-07
1.14427e-07
9.59904e-07
4.34671e-06
1.42719e-06
7.24758e-07
8.30553e-08
0.00934643
5.61322e-06
-3.47537e-07
2.79811e-07
-0.000113781
0.000939509
5.66551e-07
7.5439e-07
0.0442469
4.61041e-08
2.05913e-07
2.93742e-08
4.79069e-07
0.000266651
-6.99212e-08
2.61987e-07
1.13311e-07
4.75603e-07
4.7777e-07
2.57495e-07
2.31532e-07
2.99357e-07
4.44872e-07
-0.000720515
6.19675e-08
5.1905e-08
0.000200524
1.48964e-06
-3.45599e-05
-4.16011e-06
8.66514e-08
-0.000564325
3.71903e-07
4.16287e-06
1.39194e-07
0.00343991
-2.82404e-08
2.84543e-07
-1.41467e-07
0.00225874
2.35524e-07
3.33773e-07
3.53717e-06
3.05508e-07
-1.7635e-07
2.17264e-07
4.62447e-07
-2.24603e-07
1.40796e-08
-0.0123622
1.9909e-07
1.92551e-05
2.10174e-06
4.41812e-07
-1.64669e-06
4.34497e-08
2.73026e-08
3.36512e-07
-0.0137294
-1.55352e-06
-3.14578e-05
-1.33355e-05
4.12078e-06
-7.88733e-07
-0.000193222
4.8209e-07
4.98769e-07
-4.47665e-08
0.0315718
0.00286354
-8.6093e-10
-3.63745e-06
1.43846e-07
1.33525e-07
-0.0015109
-1.16036e-07
4.43538e-07
-0.00043021
0.00017123
-0.00916452
3.15646e-07
2.55099e-07
-4.13012e-05
3.95378e-08
-2.86621e-07
4.64034e-06
2.21353e-07
-4.53578e-05
2.75723e-06
-3.53707e-05
2.52775e-07
7.04044e-07
7.09887e-08
-1.74596e-08
-2.38961e-05
4.11999e-07
-6.14318e-08
1.23354e-06
1.77431e-07
9.3146e-05
4.98785e-07
8.03247e-07
4.11974e-07
-0.0033539
3.5335e-07
7.65401e-07
-0.00232352
0.00144771
3.25284e-07
0.00166709
7.50569e-07
4.22683e-07
3.58422e-07
-1.24695e-07
1.53268e-07
-5.32334e-05
0.00166621
7.34851e-08
-8.50188e-08
8.54439e-07
1.14217e-08
2.70237e-08
3.19768e-07
8.7211e-08
2.52999e-07
-5.18519e-07
8.48772e-07
5.74094e-07
-0.0120111
-1.14389e-07
8.17018e-07
1.54921e-06
9.00102e-07
1.01447e-07
0.000296575
0.000488786
-0.00802942
7.23671e-06
-4.3959e-06
-1.2034e-07
5.92575e-07
0.00369806
0.0163413
0.000865299
-0.000995015
-0.00263938
1.78496e-07
-0.000139979
-0.0117523
6.80509e-07
0.000878315
4.43991e-07
-0.00400238
0.00111336
-0.019347
5.06955e-07
-2.52518e-07
1.9861e-06
2.73246e-07
4.11859e-07
-0.00164823
-0.015963
1.48739e-07
2.46048e-07
-4.59646e-07
-0.0169455
-4.85358e-08
-3.92706e-08
3.52174e-07
-3.58661e-08
2.18809e-07
0.000609412
1.41543e-07
4.44068e-08
4.87831e-07
-9.65358e-07
0.000605573
0.00610364
5.02046e-07
-1.65237e-08
8.34665e-07
3.73574e-07
9.32659e-08
1.79446e-07
0.00203154
3.57803e-07
-5.91622e-07
1.28257e-07
4.86015e-07
8.01613e-08
5.28352e-07
-0.0112761
0.000691548
-9.8176e-09
7.39994e-07
-0.000410812
-0.00708115
6.02035e-06
-0.00727527
3.76192e-07
9.19946e-07
2.77494e-07
-5.84057e-09
2.24537e-08
-1.8171e-07
1.86057e-07
2.32601e-07
5.20202e-07
0.000249163
3.18494e-07
-0.000546022
-0.00238468
-7.46135e-08
9.30669e-07
2.37203e-06
4.98235e-07
1.31372e-07
4.50916e-07
7.01331e-07
-2.9746e-07
0.00242318
-4.87631e-09
-3.30177e-07
0.000357514
2.64001e-07
1.18469e-07
1.51227e-08
-0.00494259
3.03968e-07
2.16756e-07
0.0156132
2.30791e-07
7.68069e-08
-2.05509e-09
4.82887e-05
2.65348e-07
-1.2206e-08
2.77103e-07
2.44993e-07
0.0026699
0.000107711
1.47101e-07
1.83306e-05
-1.90613e-08
3.16644e-07
7.34192e-07
-0.000845092
0.00686752
-1.11288e-07
-2.43804e-07
6.39929e-08
3.01077e-07
-4.22274e-08
1.3601e-07
-0.000404046
0.00235695
4.3041e-07
4.93166e-07
-2.04787e-05
4.35132e-08
-7.07897e-09
2.64765e-07
9.74341e-07
0.0149234
4.78639e-07
8.48952e-07
0.00215793
3.49411e-07
2.59593e-08
-0.00220028
1.50694e-06
1.28879e-07
4.84176e-08
-4.74749e-07
-1.65828e-07
5.63068e-08
-0.00231344
4.35174e-08
0.00253544
0.00124018
5.61269e-08
1.52532e-07
-0.000447082
5.27968e-06
0.000142852
0.000373489
0.000598477
9.28772e-07
2.239e-07
1.07262e-07
0.00019248
1.73858e-07
-6.78302e-05
4.87903e-08
-1.13903e-07
-2.15615e-08
-1.01721e-07
3.44118e-07
0.000749517
8.245e-07
-0.00284375
-0.000582945
-6.34098e-06
-0.0109551
5.33562e-09
-1.05696e-09
3.70971e-08
3.00765e-05
1.95513e-07
-0.00139088
1.56485e-05
-1.15411e-07
1.28285e-07
-0.00213984
5.18064e-08
-5.81773e-06
-0.00299804
2.59499e-07
0.00108929
5.3177e-07
0.000176679
2.93292e-06
2.01336e-07
2.78039e-08
7.029e-05
3.56218e-06
7.36939e-08
4.32249e-07
5.7626e-08
3.21064e-07
1.0056e-07
-0.00420251
-1.22778e-07
7.61169e-07
8.01581e-05
-1.69204e-07
0.00052652
1.58997e-07
2.74354e-07
-4.27632e-07
0.00518677
8.24741e-09
6.42822e-08
0.00460134
8.4509e-07
-0.000922875
-6.14862e-07
-1.74255e-07
-1.46433e-05
-0.00220173
0.00189093
0.0045277
-9.92328e-09
4.29546e-07
8.34248e-07
1.96289e-07
3.49734e-07
5.23701e-07
-3.33685e-07
3.41133e-08
1.63676e-06
2.68155e-07
8.17192e-08
-1.59305e-08
7.93221e-07
3.53894e-08
4.52721e-07
-1.4383e-05
7.89268e-05
0.0018182
2.57549e-07
0.000144684
0.00307134
4.50689e-08
1.31702e-07
4.36996e-07
2.68907e-07
6.54069e-08
-7.16084e-07
1.27063e-07
-1.44928e-07
2.84585e-07
-3.23706e-06
2.74242e-07
-2.53817e-07
3.00564e-07
1.5781e-07
0.000522396
1.02462e-06
-6.84311e-07
7.70413e-08
1.03386e-07
0.0078728
0.000183211
7.08703e-07
7.88384e-08
-1.20298e-05
6.80324e-08
2.3518e-07
7.07215e-08
0.000283823
-8.09452e-09
9.87258e-08
0.000476932
3.21612e-09
-1.43668e-06
3.61919e-08
8.86895e-08
3.05102e-07
0.000249066
8.09468e-06
0.0016163
0.00904844
4.47713e-07
6.55667e-08
8.95362e-08
5.48954e-07
-1.10626e-06
2.11508e-07
-0.00374862
-0.0068618
8.60928e-07
-0.000104219
-0.000406239
1.66969e-07
-0.00283192
1.35557e-06
-0.0163194
-1.57103e-05
2.13703e-07
2.14503e-07
4.44659e-07
1.90126e-07
1.72791e-05
0.00638655
3.40024e-06
-5.96763e-08
-1.47387e-08
1.20219e-07
3.11912e-05
1.08837e-06
0.000893168
9.63987e-08
-1.85105e-07
4.48385e-06
-2.65101e-07
0.000484832
1.237e-05
1.10403e-07
4.93292e-07
-8.80293e-09
-4.32005e-07
0.000999395
9.46867e-06
9.30896e-08
1.05505e-08
9.13144e-08
-0.000630665
1.32562e-07
-1.02945e-07
0.00350719
0.000306986
0.00306348
0.000315411
0.00179404
2.81612e-07
-1.79741e-07
3.34707e-07
-5.96137e-08
7.19759e-08
7.29381e-06
-5.51324e-09
-1.10955e-07
7.33446e-06
2.71323e-07
6.36048e-07
0.000552312
-1.50562e-07
-2.94244e-07
-1.04259e-07
-0.00198318
-5.23787e-08
5.03456e-08
1.06341e-06
0.000236541
9.10218e-07
-0.00884289
-2.5617e-05
0.00565963
4.05161e-08
0.000161742
1.58095e-05
-2.29297e-06
0.00196691
-5.84196e-06
0.0125682
0.000251005
0.00644942
3.2779e-08
2.50618e-07
-2.3371e-07
4.73142e-07
0.000127
2.69437e-07
-3.96453e-07
1.15422e-06
6.85332e-07
3.78384e-07
0.00215236
3.33021e-07
0.000219755
-1.16748e-07
-1.9859e-05
0.000105397
6.6762e-05
-0.000751456
-7.95029e-09
1.25359e-06
3.79468e-07
-0.000525161
4.82619e-07
-1.37237e-05
-0.00110488
-1.40615e-05
0.000469534
1.7998e-07
-0.00127718
2.79214e-07
-5.82798e-06
2.45058e-07
-0.00274905
5.5591e-07
7.3574e-08
3.34952e-07
-0.00156239
6.30004e-07
0.000132453
-4.67394e-05
2.61893e-06
-2.27927e-06
2.69845e-07
-1.02254e-07
-0.00118581
2.58043e-06
-0.000150499
-0.00374062
1.25669e-07
8.59744e-05
0.00311358
4.66186e-07
2.06084e-07
9.88618e-06
0.0004299
2.0515e-07
-4.63467e-06
6.2986e-08
0.00164142
0.00578121
-1.41512e-05
1.55763e-06
1.70297e-07
2.23934e-07
3.7561e-07
2.45879e-08
1.92877e-06
-9.96993e-09
2.57772e-07
1.12904e-07
-0.00144607
7.31894e-07
-1.64308e-07
-3.20657e-05
0.000912531
0.000241264
2.76339e-06
1.43962e-05
-3.04288e-06
-0.0119969
2.1392e-07
-0.000469415
3.70969e-07
-1.11093e-06
0.00076933
7.72348e-07
0.000945139
-5.91913e-08
2.13363e-08
2.59017e-07
1.28619e-07
6.71743e-08
2.37858e-07
4.95216e-08
0.00012188
1.31902e-07
7.00437e-08
-0.000193738
1.05295e-07
-5.02814e-08
1.72822e-07
0.00152742
5.18749e-07
8.55619e-07
-3.1639e-05
-2.32825e-05
2.58017e-07
4.91953e-08
0.000950613
2.43324e-07