/*--------------------------------*- C++ -*----------------------------------*\
| =========                 |                                                 |
| \\      /  F ield         | OpenFOAM: The Open Source CFD Toolbox           |
|  \\    /   O peration     | Version:  v2012                                 |
|   \\  /    A nd           | Website:  www.openfoam.com                      |
|    \\/     M anipulation  |                                                 |
\*---------------------------------------------------------------------------*/
FoamFile
{
    version     2.0;
    format      ascii;
    class       volScalarField;
    location    "750";
    object      omega;
}
// * * * * * * * * * * * * * * * * * * * * * * * * * * * * * * * * * * * * * //

dimensions      [0 0 -1 0 0 0 0];


internalField   nonuniform List<scalar> 
9793
(
0.0223727
15.7086
0.0219368
2.62355
0.0222597
0.204172
0.0832411
5.22533
0.0221405
14.779
0.0221966
0.0221873
0.0219176
1.75217
0.0217844
0.0265195
0.0532717
0.0219321
2.17999
0.0215571
0.021625
0.0222917
2.64973
5.34543
1.83635
0.0265695
0.0220991
0.022262
0.0215675
0.0800292
7.73465
0.378656
0.0220115
0.0219457
0.0218679
0.0284875
0.0245756
0.0249274
1.59538
0.0307633
0.0687971
8.84352
4.15812
0.0222717
0.0219609
0.0220421
5.87964
0.0222844
0.0217161
0.0219393
0.0282042
0.021851
0.03743
0.0222686
0.0330754
2.19231
0.0219264
0.0904528
0.0217227
0.0222914
0.0270154
0.0978696
0.0219519
0.0350907
0.0219629
0.022067
25.756
0.0242139
0.0250545
3.19349
0.0219722
0.102284
4.77522
4.14101
4.2382
0.0222624
0.0460167
10.6276
0.0219821
0.0222705
0.0499083
2.11993
0.0514151
0.023941
0.0250778
0.243505
0.0222612
0.0681955
1.60817
0.0941881
1.84263
1.30952
1.58521
0.0411155
3.90637
0.0219047
4.77489
0.0502016
0.0247249
0.0222685
1.45056
0.0356144
2.37231
0.0219661
3.50763
10.3346
4.09186
0.021878
0.0219861
0.0222835
0.0222335
2.17633
3.28776
7.42543
0.02195
0.0221125
0.0243938
0.0220503
1.86721
0.0220278
3.03979
0.0730212
6.70013
0.0421829
0.0246071
0.0220335
0.0607189
6.07694
0.187495
0.195446
0.0238305
0.0218011
0.0222696
0.0234169
0.0273691
0.160514
0.622133
0.0244364
0.0222737
0.0609125
2.24237
0.0276304
0.02193
0.0556562
5.67787
0.618113
0.0220342
4.58752
0.0217973
0.0220282
0.0220697
14.7069
0.0242649
0.0220921
0.0219185
1.34415
0.056787
0.0219469
0.554693
0.0219134
0.0641446
0.023941
0.0216319
0.358147
0.0220847
9.61564
2.31067
0.0222816
0.0218792
0.0222173
0.0219432
6.19562
26.8995
1.95608
0.021911
0.186033
0.136963
0.738401
0.021967
0.0241533
3.88912
7.14118
0.0800957
0.0220349
0.0220729
0.0218726
7.22452
4.62816
21.7429
2.49725
0.0219924
22.1763
0.412301
0.0254118
0.0217601
0.023291
1.98568
0.0215941
0.02193
0.022204
0.0219907
0.0216252
0.0293004
0.025162
1.76129
0.0219249
0.0280881
0.0222795
0.022328
0.494781
0.0585455
2.39705
0.0216323
2.76557
0.0239607
0.0431225
0.0217972
0.156224
0.0221213
0.0503967
0.0537134
0.0216285
1.4218
2.06775
0.0393731
0.0218899
0.0511382
2.08777
0.0494547
0.0503357
1.60421
0.138514
0.0408203
0.035807
0.366182
0.0215911
4.54747
6.32952
0.0216
0.0222223
8.37851
0.0219011
0.0222313
0.109749
0.121877
0.0220575
0.0241842
0.0291543
0.0381701
0.0242551
0.0219732
0.044057
2.93847
0.0216258
1.97527
0.022262
0.02217
0.021659
2.12231
0.0219773
2.59045
2.786
0.0221032
0.022131
3.44665
0.0218348
0.0222397
0.0218002
2.52338
0.27048
0.0249372
0.449992
0.0848475
2.29853
3.93136
0.0223041
21.64
0.0222643
2.09451
7.80243
1.64466
3.13899
0.134876
0.0238599
0.0474905
0.024771
0.0217942
0.0223846
0.466275
0.0267368
0.0221395
0.0222838
0.0216297
0.0216553
0.0216291
2.50878
0.0218684
0.0217751
0.0218418
0.0219195
5.44725
0.59693
0.0638948
0.0228651
0.056183
0.021948
3.20792
10.7407
0.0219713
3.22867
0.0332693
0.0219552
24.9155
4.01805
0.0220194
0.0462676
13.2401
0.0221281
0.0339125
0.0217755
0.022215
2.24473
0.041029
0.021955
0.0220214
0.0227381
0.173307
3.34435
0.0219408
0.021872
0.0217473
6.89838
4.5462
7.33126
0.0215862
0.0433159
0.0347385
2.15096
0.0683775
0.0215862
0.0216441
0.0217476
0.045976
0.0220529
7.08439
0.0220881
0.0217768
2.61685
2.41435
2.41593
0.021727
1.44394
0.0246778
4.10888
6.38284
1.67828
0.0236035
0.0320011
0.726301
1.71022
2.09868
0.0264791
0.0222634
0.0253146
0.0216833
0.0218527
0.022034
0.0220813
0.022292
8.28853
0.0222065
0.0609286
0.0303583
6.12815
0.0215809
0.0240278
5.29829
0.49699
1.86104
0.0664823
0.0217806
0.0236846
0.0219405
0.46016
0.0215652
2.33954
0.1589
0.0835661
5.9136
2.28704
0.0221373
0.0218899
0.987308
0.402403
0.021924
5.55126
0.0221313
0.0221756
6.751
0.0216305
0.0922432
0.0216013
2.36372
0.0220934
0.0220967
2.67324
0.096532
0.0530476
0.0253986
0.0220746
0.0218322
6.08438
0.0499418
0.0215693
0.0221946
0.0342498
0.0347166
0.0525953
6.89554
0.0221956
0.0219425
0.320271
0.0220812
2.55073
0.724693
0.0220646
0.0220164
0.0223517
0.0221163
0.0217321
1.47149
0.0507755
5.87053
0.0289174
0.0233926
0.0423952
0.0246428
1.73309
0.0262651
0.0222678
0.0242271
0.514987
0.0219388
0.0219168
0.0219714
0.0215681
0.0219867
0.0217936
0.0220439
0.0221576
0.0228572
0.0247305
0.108907
0.0219319
1.46544
0.025636
0.214988
5.02783
0.0218016
2.79007
0.0812613
0.0217692
0.0215684
0.0219346
3.56849
0.0862839
0.0215649
0.0221205
0.0221972
0.0674207
0.153254
10.4871
0.0219763
0.0219203
0.0316033
6.50613
1.60169
0.0236774
0.0233135
2.05291
9.57643
0.248969
0.0221716
0.0217887
1.66602
0.0219096
0.134805
7.11455
0.0215576
0.238358
0.0269941
1.42884
0.0218332
1.93226
0.291259
0.0260211
2.58082
0.0219075
1.92881
0.0220945
0.0218863
0.022223
0.021947
3.58124
0.0218994
0.0217052
0.0228172
0.0215956
0.0217894
0.0461475
0.0227787
0.0344622
0.0220339
0.0220382
4.11056
0.0747453
0.0236292
2.01947
0.0243218
0.0221756
0.0219817
0.021731
9.2548
0.0216954
0.0220691
8.11444
8.61709
0.0388668
0.0219252
0.0222842
0.0221321
0.022241
1.8925
0.0221741
2.86766
0.0242269
1.86353
0.022262
18.9679
0.0222079
0.226182
0.0219161
0.088079
4.12277
0.0221032
8.86912
0.0218993
0.0222182
0.0216149
4.8301
1.80846
0.0219431
0.0277855
0.0216908
2.00442
0.0218206
0.0447082
1.84356
0.0252296
0.0220264
0.0456
0.0222451
0.0221807
0.0217646
0.101796
0.0219558
2.18877
0.0220518
0.02207
0.039061
0.0771975
1.52512
0.0217633
18.0245
0.0218845
0.201837
0.0219151
0.0222347
0.021905
0.0220496
0.0222682
0.217627
0.0409697
9.03148
0.110385
0.0352076
0.0342103
5.32846
0.023708
1.83994
3.62838
0.262454
11.5861
5.31141
0.178599
0.0221871
3.41599
0.0387151
0.0221371
0.357226
0.0222509
0.464814
0.0358527
0.216306
0.0276071
2.09233
4.66301
0.036819
0.197756
0.022216
0.642768
0.0228628
0.0219195
0.0220388
0.0236155
0.0463009
1.55301
0.278456
4.70935
0.0234209
0.0234042
1.42028
0.355791
0.0230678
0.0612945
0.022351
4.92684
2.77932
0.0220586
0.0641901
0.281853
4.85714
0.0219578
0.0257961
7.8646
0.0286271
7.81343
0.0915547
6.11304
0.0256731
0.0238161
0.0219156
0.0219191
0.253223
0.0222842
0.301796
0.131253
0.0811824
0.0222596
0.0222238
0.0236607
0.022118
0.0218328
0.021903
0.100858
3.69818
1.87082
0.0222797
0.342825
0.0219504
4.10939
0.0463186
0.0464533
0.0341761
0.266944
0.0217475
0.0220604
0.0431316
0.0219086
0.0220813
0.0600489
1.48212
0.0216244
0.234157
1.70209
0.0244592
2.12579
1.77782
0.0218103
0.0545479
0.0271827
0.0219851
0.0216118
0.102678
1.69601
4.68796
0.0219529
0.0220158
0.0216596
0.0248139
0.0228088
0.0237931
0.575969
0.0459915
0.0221514
6.46111
0.0294058
0.0335531
0.0220369
18.9636
0.0237025
0.021918
0.0824008
2.10775
0.0215736
0.0220499
0.0219472
0.0254964
0.0217432
0.0375516
0.623988
0.0221574
0.101273
0.022869
0.0219859
2.15438
2.84935
0.35744
0.0220749
0.0215875
5.25547
0.0258514
2.29051
0.0215519
0.0219002
6.60377
2.66223
0.0297467
0.0993707
0.0628826
0.0218861
0.0222717
0.0219399
3.27518
0.0220571
0.0222928
1.58795
0.0274476
0.293005
0.0328053
0.0219358
2.59311
0.022268
0.0219105
0.021929
0.0305781
3.44146
0.0221619
0.0219705
0.0219063
0.0218945
0.0219421
0.0219283
13.3855
0.0315442
0.0227827
0.0221098
0.0316439
0.0609464
0.0264652
0.0284843
0.0222839
0.021653
0.0232991
2.15853
2.45607
0.0232423
4.57134
0.0222153
0.0252136
1.18757
2.20048
0.0217753
0.0221804
0.34511
0.0510164
0.021907
0.0222486
2.26053
0.0222681
0.0686754
0.0220116
0.618812
0.0222475
0.0222421
0.0221268
0.030855
0.0220706
0.024479
0.0261027
0.16371
0.0218631
0.0219975
0.0222498
0.0218809
0.0221486
0.021961
0.0306756
0.0221112
0.0516753
1.96657
0.0427775
0.0630194
0.0222018
0.0217641
6.64182
4.49988
0.021602
2.05175
7.39411
0.0215937
0.0219662
0.0218774
0.0956991
0.0536458
2.43601
0.0218566
0.0250649
0.0218594
0.0222595
0.0222294
0.0856813
0.0221234
0.248731
0.0220931
0.0577867
0.0218937
0.0230892
0.0219102
0.0385062
0.0601454
6.89708
2.86007
2.02728
0.0476283
0.021899
2.96142
3.76983
0.0612982
0.0220353
0.0220847
1.98506
0.0218697
3.14953
0.0216064
0.0293767
0.0221986
0.0222698
0.0217818
8.54671
3.21879
2.9018
0.0723546
5.27028
0.0219517
3.04676
10.3479
0.0222705
0.0220548
0.0217268
3.42633
0.0215527
5.1009
0.0323858
0.141772
0.0222477
0.960579
7.89161
1.70947
0.0294579
0.0318378
0.0220407
18.6606
0.0215322
0.607094
0.218859
0.0687172
9.85173
3.37468
0.0238782
0.0233729
0.021949
0.0967972
5.31727
5.24449
0.0217419
3.94951
0.0260078
0.120596
0.122655
1.50899
1.55363
0.0216373
0.0259935
0.0304078
0.0242035
0.0239436
2.63366
0.0221969
11.4076
0.0217608
0.0216167
0.0784953
0.109301
3.03689
0.0226059
22.8504
14.3067
0.731555
0.0268526
0.022233
0.0226094
0.022227
0.0219112
0.806247
1.85018
0.0221651
0.0219152
0.0317307
1.71187
0.0258366
0.0219223
0.435769
0.0219395
0.0222749
0.0215418
0.0596898
0.0220293
0.0249644
4.3519
0.0608291
0.0222597
4.26049
0.129246
0.021935
0.0230015
0.0337079
0.0222624
0.0219653
0.0217449
12.7861
1.95252
0.0221857
0.0352712
0.0361659
0.642787
0.0219389
3.2801
0.0218616
0.0217498
0.69353
0.245931
0.0648457
0.022014
0.0218949
5.7418
1.51501
0.289807
2.85839
0.0221027
0.0238045
0.0220151
8.25979
0.0241902
2.30319
0.0226857
0.0219235
0.0236227
0.02167
0.0218756
0.0640325
0.0217756
3.23222
0.0218007
0.0221673
0.0215605
0.0249227
1.82124
2.79116
0.0519903
5.48114
0.0219809
0.0359581
0.0233073
7.97505
0.0218265
0.0216255
2.68124
0.0346233
0.0327471
0.0221115
0.219914
8.58082
2.35766
0.0221111
0.0343955
0.914643
0.0313728
0.891607
0.12269
0.0811291
0.0217618
0.0225526
0.0609459
0.0769141
0.021988
0.0998876
0.0217348
0.0221829
0.022236
0.0217596
0.0219038
0.0219891
0.817781
0.0256879
0.0229295
0.045901
0.0217448
0.0219263
0.0380352
2.8221
0.0843021
0.0609741
2.30889
0.0222339
9.36788
0.029255
5.32257
0.0614159
0.0222018
0.0220857
0.0234594
8.72229
1.73967
0.0506559
0.156157
0.0216499
0.0218913
0.022248
0.022201
7.69492
0.0255918
0.0219612
0.156686
0.288273
5.90927
0.0227279
2.5085
0.0557048
0.0401608
0.0320475
0.426701
0.247147
0.0222231
1.58461
0.283848
0.038699
2.22211
0.0449612
0.0222083
0.0222638
0.0219108
0.0231114
0.0271376
18.699
0.0502504
0.0218705
0.298572
0.0220039
4.30907
3.35403
0.021957
27.916
0.0217967
0.0217479
0.0220209
1.56992
14.7593
0.0484046
0.0312125
0.0217108
0.534682
0.0222313
0.0308551
0.0220906
0.0221256
0.0219081
5.22895
0.0227678
0.0420573
0.0289626
0.0222115
0.355493
0.1334
0.0340887
0.0252903
0.0237632
1.76346
2.59576
0.0218852
0.0217567
0.0218826
0.0225424
5.49126
12.8369
0.207729
0.0255767
0.0217795
9.34906
5.12322
0.022182
22.4838
0.0217064
0.084424
11.8029
0.0217373
6.43342
7.91861
0.125451
6.26856
5.63814
0.0218386
0.022643
2.47526
1.51701
0.0225208
4.8792
0.0249064
0.0219043
0.0222738
0.0231554
0.0398828
0.0251876
0.313292
6.46104
0.239567
0.0342011
0.0220789
0.0600632
2.1821
0.0217527
3.64095
0.0475063
0.0222198
0.0245673
0.0222415
0.0221709
0.0314766
2.30146
0.022475
0.0217881
5.17407
1.53454
0.0699629
0.0222613
0.0558804
0.0219272
0.0219312
4.13073
8.56818
0.0219211
0.0214857
2.80036
4.40085
0.0481602
0.0222316
9.95387
0.0226952
0.0219278
0.0239457
0.0219321
0.0216437
0.0216183
9.68807
0.201551
0.0258608
1.61125
0.0449599
1.48713
8.486
2.02255
0.158309
0.0219295
0.0222387
0.0223073
0.0219924
0.0749625
0.0218813
0.109092
0.0291054
2.93367
0.0220465
1.52151
0.0361695
5.15153
0.0219246
1.74604
0.0299175
0.175885
0.256831
0.0309866
0.0216152
9.01171
0.0560329
1.64452
0.0215992
5.31095
0.0220265
4.62849
0.503001
0.0431951
0.021921
0.0220886
1.88009
7.0463
0.0317679
0.0215594
1.36855
0.0851849
0.0447359
2.71822
0.0791216
0.0219088
3.7376
0.021915
0.0331045
0.0216119
8.82862
0.0216192
0.023601
0.318488
3.57036
0.0222218
0.0671379
0.0243456
0.0789928
0.0218795
0.339744
0.0234076
0.0637153
0.0219249
0.0219852
2.00847
0.0285378
4.75112
4.44785
5.15075
0.0227049
0.0216366
0.021754
0.0256098
0.0367056
0.0312308
5.56368
0.0235054
0.633785
0.0418565
0.022281
0.0219292
0.0690002
0.417155
8.91226
0.0219059
1.6211
0.0218624
5.26994
1.46054
0.0465897
0.0219951
0.0217264
0.0429045
1.86898
0.0242894
0.0222687
0.0238134
0.0446232
0.02289
1.52406
2.08621
3.90382
0.0221561
0.0262667
11.1133
0.0221866
0.061769
0.0218011
0.794797
0.0364004
0.0219489
0.0431678
0.185699
0.0219303
2.17884
0.0219142
0.138814
0.252766
0.472338
0.333093
0.0221662
0.0221813
19.3946
0.0221322
0.0398944
0.0825961
0.0235147
0.0215226
10.8909
0.0248667
0.404546
0.0234121
0.0663766
0.0225093
0.40506
0.0252242
0.024627
2.38068
1.20259
0.0220889
0.022273
0.164509
2.14869
1.94143
0.799971
0.0293119
0.02192
0.0217961
1.8489
0.0221382
5.55362
0.0987776
2.47905
0.022107
0.0217129
0.0217915
0.0429219
0.0457898
3.72497
1.56406
0.920638
0.224704
0.0216013
2.53173
0.0230072
0.0631203
0.0228709
0.0401611
0.0607906
0.0219239
0.0215697
0.0642276
0.0216313
0.0391919
0.0707616
3.33928
4.29948
0.0376881
1.79031
0.0217368
0.0216302
0.0220738
0.199938
0.0614182
0.0463129
0.112567
3.98933
0.0394451
0.154942
0.0218062
0.0220781
15.314
0.0219097
0.283922
0.0214625
0.0218544
2.08881
0.332762
0.0218444
0.0801152
0.508522
3.49316
2.55831
0.0250415
0.0667985
0.0491189
4.79714
0.0220424
4.94786
5.67257
0.0236995
0.0259784
0.0216059
0.515563
0.0217304
0.0219825
1.58856
0.0222116
0.021559
0.202908
0.0589474
1.52626
1.51332
3.34236
1.85372
0.0216096
0.0219057
0.0218501
0.0222051
8.44643
0.0220624
1.74958
0.022986
4.59643
0.0244615
0.022103
0.0216781
0.0222153
0.0303035
0.0220278
0.0215123
0.351578
0.0218159
0.0513704
0.0224433
7.0408
0.0245049
0.0220784
0.02193
0.0531052
0.0219064
0.0217597
0.0220884
0.0222146
0.0245649
0.0218424
0.0233721
0.0315285
3.75877
5.27378
4.60262
2.50947
0.021763
0.0220047
0.0219207
0.021425
0.021931
0.0217294
0.186734
0.0218541
0.0222517
0.0220683
0.0220424
0.0219353
6.9036
0.0241921
0.0219717
19.777
0.0432938
0.0217089
7.94668
7.581
0.0220194
0.454663
0.716327
0.0220283
0.0458989
0.0239373
0.0215541
0.0274038
0.0220204
0.0399945
0.0220122
0.0222473
0.0217401
27.977
0.0284647
0.0456647
0.0220321
0.0222653
4.59094
0.025758
0.0220356
0.0238321
0.0241905
0.0222519
0.242648
11.6397
1.19878
1.5606
0.230222
0.0374048
0.0222597
12.1674
0.1621
0.0227363
0.0598036
0.0222932
0.0218953
0.0222464
2.87861
0.0461818
0.0219985
0.0220414
0.185211
0.0217248
0.448015
0.0219408
1.8576
0.228642
3.86921
0.0220792
0.0231937
0.0317912
0.0355642
0.0222492
0.0388504
0.0857683
5.33796
0.0219756
0.490079
9.55102
0.021562
1.88463
0.0433941
0.333562
0.106211
0.0219176
0.0277935
0.0405024
0.0216817
0.0250365
0.0215399
4.2921
1.8256
0.0325705
0.0218266
0.151091
0.0749291
2.82617
0.27373
0.0233385
0.028104
0.0219467
0.0219143
0.0405727
0.0517899
20.0458
0.0218113
0.449351
0.0225519
9.69408
0.179373
2.40768
0.0215973
0.022933
1.99446
1.80333
0.0430076
2.16976
0.0228798
0.238062
0.0219132
0.0218468
2.645
0.520009
0.0248556
0.0220936
0.0752516
2.16501
0.196062
0.066222
0.0217678
0.0220139
0.0217138
2.39499
4.91095
0.0217489
0.0448648
1.84161
0.0748225
0.28127
1.6438
5.63577
2.20508
0.0217649
0.0227769
1.60642
0.0218905
0.0492602
1.5564
9.63262
0.0233748
0.0302194
4.95777
0.62711
2.0153
5.05374
1.72008
1.4865
0.0221107
0.0216137
0.0219895
0.0225607
25.1683
0.0548176
0.36898
0.452212
0.0565547
0.0219408
0.436779
0.0216995
0.030493
0.0219215
0.0406209
7.03743
2.43949
0.022071
0.0215983
0.038538
4.71939
0.188202
7.21091
0.0446219
0.0220425
0.0833772
0.02146
0.0957071
0.032014
0.021908
4.71177
0.171894
0.550044
0.0577398
0.0222275
0.0215737
6.36687
0.0252161
0.0216171
0.022145
0.0222559
0.0216803
5.57616
9.66418
1.96125
1.41019
6.19242
0.0239966
0.0219416
2.92815
0.0243262
0.0857643
6.53521
0.021866
5.3184
2.8512
0.059849
0.033694
0.79071
0.0230929
1.79037
0.037598
1.99946
0.0218166
0.0228512
0.0408774
3.25005
0.115098
0.0686943
4.91572
2.14494
0.0717632
0.161124
3.28791
0.0241955
0.364597
18.4298
0.0358387
0.0629247
3.14341
0.0321178
0.0368596
0.0221033
0.0368023
0.039069
0.0562406
0.0220881
8.60724
0.162628
1.81693
5.18143
2.15045
0.0396321
1.59864
8.68474
0.0218458
1.16939
3.05614
8.43548
0.0278249
0.0242138
1.64076
9.44757
0.0216072
0.241868
0.0217504
0.0219089
4.17468
0.025385
2.28884
1.56816
1.88095
8.50106
0.0216175
0.0352086
0.0219837
0.0218429
0.110801
0.0570619
0.0264938
2.79651
1.84073
0.0222731
0.0261377
1.3514
0.0234226
0.405263
0.0478666
1.48566
1.48628
0.41116
9.19451
7.11177
1.80684
1.50406
1.72904
0.0312615
0.0251653
0.117242
0.120338
1.81512
8.34349
0.0221318
0.0226073
5.50555
2.32242
0.0247063
4.87433
0.0219214
0.819571
4.66746
4.78677
0.0219228
1.65181
1.55266
0.026795
0.0346903
5.53684
4.90234
4.77049
3.6173
0.0219743
6.35814
1.6151
0.0407429
0.22363
0.108122
0.0217323
0.0265805
3.48674
2.3399
0.0245218
0.0221716
1.55968
0.085158
1.8178
0.0743538
2.21217
1.53728
0.0219904
11.0866
0.0222852
0.0303075
0.0220417
0.0218218
0.0217017
0.0371793
0.27969
0.02149
15.9937
0.0712462
6.91636
7.77484
1.98396
0.0219088
4.53787
1.52651
2.00656
0.0343495
0.0219237
3.78674
0.414085
2.113
0.0550464
0.023429
0.0216846
4.86145
5.34832
0.0333636
15.7536
0.0310233
0.0221601
1.456
0.0540067
20.0214
0.0218992
0.0295386
1.65937
4.69243
1.50132
0.223156
1.49078
1.70156
6.01377
0.0220474
7.739
0.0475707
0.02183
0.02155
0.0219149
5.1746
0.0493165
1.5032
1.5577
0.0364981
0.152202
0.0785575
2.58763
0.263667
5.74027
4.91636
1.29948
0.0888429
0.0216454
0.686864
0.0565437
0.110393
1.44143
2.6824
1.71503
0.0220944
0.0240822
0.0483046
0.0220591
0.0219539
0.0277114
1.53034
0.0286744
0.0253138
1.41543
0.0724127
0.315773
3.98407
1.57805
0.436652
1.9522
4.83081
2.23223
0.0625174
0.0311477
0.0220894
1.30341
0.106861
0.224483
0.0629223
0.0607608
0.0214485
0.178936
6.16889
0.0265598
0.021582
0.0230592
3.68174
0.0218744
0.0220252
0.0624517
1.5474
0.0284595
0.0545875
0.179754
0.0304794
0.0589879
0.0218494
0.0219823
0.0410962
0.224035
0.0222109
0.0311912
0.270758
6.88376
0.0221026
11.5427
0.0218687
1.57017
0.023225
0.0233726
0.0215486
0.180125
0.0342633
5.58942
11.7324
0.0681562
0.0221618
0.0219387
5.61548
2.90036
0.0218025
0.24659
1.60267
0.0524232
0.0770951
0.0214225
0.0226384
0.0219228
1.48003
0.0422667
0.0220502
6.44249
0.0223309
0.0576529
0.26274
0.0217338
0.0956744
0.0599116
18.3747
0.0223886
0.0261507
0.0233746
0.0541791
0.0213994
0.0219053
5.81163
0.327571
0.0751686
0.0218758
1.89883
0.0223358
0.0223339
0.0219574
0.47018
6.28426
0.0237252
9.95784
1.55699
0.0640965
2.98233
4.80853
5.09062
7.02148
0.0527342
0.0630522
0.217029
0.0479195
0.0219505
0.0300552
0.0295092
7.88979
0.0220788
3.29661
0.0219774
0.409801
0.0909325
0.0227819
0.0229525
8.64707
11.4487
5.42685
1.57572
0.0218102
0.0668093
4.58629
0.0259065
9.77169
0.0407009
0.107153
1.66166
0.0340614
0.021993
0.124115
0.14832
0.0219129
1.50357
0.799822
0.0217058
0.0222394
0.0221212
0.0220094
6.55819
0.0219757
0.0474317
0.0220248
0.0223372
0.0322652
0.021938
1.50538
0.0839967
0.0221251
0.0216221
0.110311
0.0233017
0.0551899
6.15046
4.82495
0.0533121
0.229214
0.0403687
0.0215891
0.136383
10.4391
0.0377356
1.48052
6.07692
0.0748512
0.038617
0.0280577
0.0667199
0.0377276
5.68925
0.0221131
0.0221382
0.021798
2.40087
9.478
0.0358173
0.0984484
0.0218646
0.026597
0.106977
0.273781
0.0219032
0.059903
1.86098
0.0874736
0.0219902
0.0219197
19.9349
5.56821
0.0219335
0.574956
0.030411
0.198819
0.292089
0.0218598
2.9575
0.0289611
0.0220247
2.71602
0.203228
0.0219206
0.0221622
0.262492
0.0217668
0.0220409
0.15221
0.0418395
0.0455383
6.38507
0.0251775
0.0414965
1.80011
0.0218347
9.13971
4.7153
0.0250427
0.0585935
0.17746
0.0219631
0.158679
0.0214645
2.18991
1.50696
0.0220037
6.49427
7.84877
0.02193
0.021932
0.57086
0.0378026
1.58074
1.53306
0.022095
0.0429222
4.99211
0.0226195
0.0479716
0.0682805
0.0336837
3.01854
0.19783
0.0233235
0.226761
5.70536
0.0452766
3.09681
0.0219116
0.021547
0.0222675
0.0420414
4.93763
0.0220656
0.0331114
14.9404
2.67656
0.0222177
0.0296908
1.97466
1.57281
0.0222247
9.29116
0.0334419
0.086767
0.0343436
0.0230431
0.0258402
0.0219485
0.0219616
6.11823
0.0219334
0.0519497
0.0219824
4.76614
0.023311
0.0239516
0.0215857
0.0237155
0.0219831
0.0412482
5.22813
1.00743
0.0376894
0.0422099
0.0219673
0.0315096
0.0511439
2.25187
5.25433
0.0218301
0.818806
0.0220228
2.30724
1.42322
5.07285
0.0218267
0.106244
0.0701006
5.88045
0.236603
0.0218397
2.53988
0.323924
0.0377501
3.17978
0.0221671
0.0219869
0.0392167
3.4581
0.0219193
6.99904
0.0338374
2.36584
0.0893559
0.0223743
2.18915
0.0279633
0.0220808
0.260193
0.0219191
2.80123
10.3249
0.156189
0.0274866
0.152415
0.0219256
0.101438
0.0438789
9.63819
0.0220043
0.021614
0.0267251
0.0293932
0.0426605
1.88619
3.70353
0.0356855
0.225887
0.0218009
3.2706
6.09863
0.180939
0.021917
0.0222602
0.0231478
2.76322
0.0220445
0.0261857
2.39145
0.0818612
0.0219719
0.26435
0.0769308
0.0219878
0.0250235
0.117881
1.5509
0.0685032
0.042856
1.97585
1.53283
0.419427
0.0265129
0.022096
0.0242958
0.0245986
0.137383
0.0559889
0.0273115
0.0754585
5.3042
0.0240246
0.0219952
4.87761
0.281147
1.74064
0.178913
0.0256098
0.023667
0.023533
0.021757
0.0218776
0.0427082
0.0215428
0.0228811
0.022019
0.0228886
0.0234767
0.0219469
0.0384171
0.03593
0.0220676
0.021934
0.0221191
0.0226961
0.022309
0.246024
0.0220572
0.0233733
1.43431
0.0216874
0.0231568
0.0222235
0.0270262
4.86603
9.90507
2.57117
2.98678
2.93721
0.198049
0.0218719
0.057746
0.0219809
0.680794
0.0230905
0.0292365
0.022152
0.0530042
0.0219596
0.0305736
0.0217805
2.49983
0.161962
0.0220785
4.31418
2.74206
0.0221298
0.0875977
0.0219511
0.02159
7.28949
0.0221012
0.0639464
0.190585
0.022105
0.0215494
0.0712887
1.66222
0.024936
0.0233595
1.48754
0.0219438
3.83
0.0490944
9.2819
0.0216662
1.55275
0.0219106
0.0221357
0.235816
0.0571185
2.2991
1.75224
6.65578
2.76956
0.16487
0.135743
0.0220461
0.132513
0.0220007
0.0218197
0.0924001
0.0219091
0.0219831
0.0215983
0.0216089
0.0547208
4.64197
1.50313
0.392243
2.63564
0.0234698
0.0301922
0.0227779
0.0226907
0.0727456
0.0220109
0.0217216
0.0218095
0.0235991
0.0231097
0.201094
0.0792468
0.0454757
0.0221088
0.0541093
0.0551706
1.9879
5.25164
0.024635
0.0386144
0.0220883
11.9053
1.64447
0.0219189
0.0219336
0.0243368
0.0222129
0.613304
0.277826
4.59719
0.0220972
3.51418
0.0220689
2.69604
0.0493159
0.0218102
0.0279273
3.58808
0.0268426
0.0276595
0.0296118
0.0799476
4.4435
0.0217545
0.0219153
0.0278005
0.156354
0.0218521
1.98959
3.549
0.0219485
0.0214178
6.17942
0.0627684
0.0219174
5.04126
15.5445
2.23152
3.68009
0.027648
1.96142
0.0220712
4.71978
3.05944
0.829391
0.0623436
0.0237937
5.1804
0.0248802
0.0218672
0.0214466
0.493383
0.0216298
5.72269
0.0226198
0.022126
0.0249208
1.51081
0.0237583
0.0227437
0.0220735
9.59398
4.05483
11.2651
1.61404
0.0408964
0.0219203
0.0240615
0.231653
0.108936
0.0219874
0.048326
0.189492
3.88754
0.0219306
4.04372
4.78718
0.03724
0.0220629
0.0237128
0.0219515
0.0217308
0.0219386
0.0220317
0.0221573
0.0954992
0.0220954
0.11885
0.0225443
0.0226401
5.07011
0.0659948
0.0233957
0.0227311
2.18534
0.0215494
0.0227469
0.0259277
0.0218146
1.89523
0.0306689
0.0226949
0.0439622
0.0219385
0.0270226
0.0218075
0.139198
0.0218191
0.0218981
6.41951
0.0234836
0.178011
0.0326407
0.0236887
0.0799157
0.0214037
0.022088
0.0225878
5.24163
0.0237236
0.0219167
1.91762
0.0219631
0.0216179
0.021884
0.732897
0.0318881
0.131707
0.033269
0.0305476
0.0493107
0.0237649
0.0269624
0.0471144
2.28815
0.0222101
0.0282196
0.0217938
0.250848
0.201163
0.0219046
0.0286263
2.90375
0.0297023
0.0215413
7.23836
0.0257071
0.0812717
2.36846
0.0280673
0.0218869
0.0290285
0.0219179
0.0241841
0.0219052
0.0232573
0.0257823
0.0219701
0.0220681
0.0316651
0.0221198
0.0896054
0.0218973
0.0236414
0.021922
0.0292294
1.55666
0.0220539
0.0219756
0.0970625
0.0230975
0.0219305
0.257942
5.77568
2.96965
0.0220427
0.024343
0.0343072
0.0222447
0.0221251
0.0330979
0.189588
0.021531
0.0522544
0.0219615
0.0218896
0.0217484
0.0215215
0.0227777
0.0422945
0.0332856
0.0266192
1.67264
0.0240822
0.0278668
0.0217176
2.13299
3.59397
2.53518
0.0220194
0.0458955
0.027959
0.0219895
0.02212
0.0409635
1.53417
2.39495
0.0219191
0.0273273
8.33149
0.0227171
0.178029
5.5196
1.61834
0.0288964
0.0219783
0.0379177
0.0430024
0.147422
11.1332
8.11678
1.57334
0.0226737
0.0221737
0.0219213
0.101641
0.0219075
0.0216818
0.0371036
0.021903
0.0218662
0.0218774
0.0515707
0.0219461
0.0217755
0.0219724
2.40598
0.0215373
0.0220119
0.0221066
0.0225721
0.0219389
0.0712373
0.0664952
6.80716
0.0215752
0.0280843
0.108678
5.34401
2.3816
0.02219
0.0222752
0.0520462
0.0943212
0.0257
0.360609
0.0219299
3.85861
0.0222781
1.48255
0.0227615
0.0219127
0.0432652
0.0219369
0.0219752
0.0226907
0.692522
0.024335
0.0224174
0.0221782
0.0219526
0.039042
0.0219508
0.0219177
0.0258097
0.10192
0.0242006
0.0218547
1.47262
6.36984
0.0219662
0.887045
0.022143
0.0297123
0.0739988
0.20586
0.0233754
0.0229218
0.0220519
0.263815
0.0282437
0.0221646
0.0219023
0.023168
0.149824
0.0220753
0.0341652
0.0238006
0.0347322
0.050052
0.0371227
0.0872072
3.59444
0.0248632
0.0220389
6.83477
0.33205
0.0219307
0.021486
0.0220632
0.0219615
0.0219066
0.0238279
0.0216691
0.0220785
5.10521
1.55661
0.0315982
0.0219339
3.09353
0.0237853
0.0216979
5.86969
0.0236923
0.0216439
0.0220942
0.0220369
0.035975
0.0220321
0.0540956
0.0219211
0.0217793
0.0219444
0.0318338
0.0351384
0.0218936
0.0553173
1.50139
0.0231037
0.0218921
0.0602886
0.0217097
0.0219843
0.0218602
0.0299749
0.0220521
4.63133
0.0222869
0.232395
3.14716
0.0547817
0.0232859
0.0222497
0.0220158
0.0219383
0.0292916
0.158807
0.112731
0.021807
0.0237575
4.95147
0.0215808
0.16809
0.0219653
0.0231606
0.0306129
0.0610262
0.0219567
0.0330993
0.0279275
0.0580662
1.4544
7.64026
0.0218662
0.0219269
0.0323773
0.0227676
0.0226017
0.0489244
0.0226911
0.0980493
0.0217806
0.0689621
0.022106
0.0796243
0.0557998
1.47303
5.16591
0.021922
0.0381104
0.921129
0.204554
0.0215906
0.021774
0.125111
0.0219419
0.021927
0.0217395
0.0215087
0.0700166
0.0706559
20.2255
0.0220201
0.0433591
0.022255
0.0215829
0.0230157
1.73499
0.16537
0.0219125
0.0221001
0.0218373
6.70856
0.0220078
0.0219321
0.0224279
0.021945
0.0427618
0.0218336
1.84704
0.0219858
0.0225764
0.022332
0.0218899
0.0217374
0.0220075
12.3168
0.0217804
0.021939
0.230814
0.0218833
0.0220425
0.0221116
0.0221559
0.0529638
0.0219029
0.0219748
2.46621
0.0235374
0.0220381
0.0222311
0.0215152
1.55544
0.0229298
0.0221787
0.0218984
0.025866
0.021969
5.37382
0.0217941
0.0220108
6.1009
0.0219769
0.0609763
0.022159
0.0214072
0.0215027
0.0304513
0.0370473
0.0218406
0.0222862
0.0239855
0.0219044
0.0221106
0.0220735
0.0218703
0.0217468
0.0218147
5.93242
0.0219589
0.0218352
1.87393
0.0219369
0.0266544
0.120855
1.6044
0.0218132
0.0220456
0.0219595
0.0216318
0.0228989
0.0385672
0.0238336
0.0364499
0.0217634
0.0254481
0.0219741
0.0214707
0.028026
0.0577389
0.0234759
0.0289532
0.0220262
0.021959
0.0221201
2.24342
0.0235
0.0220117
3.79334
0.0229448
2.56654
0.0220632
0.0219329
0.0217311
1.59799
0.0219336
0.0249067
0.0229271
0.0220724
0.0219654
0.0220882
0.0220061
0.0242185
0.0218993
0.0386699
0.0222479
0.0386372
0.0214938
0.0216278
0.0238766
8.29976
0.0221482
0.0220483
0.0225566
0.0219241
0.0240517
2.08642
0.0226997
0.0270569
1.94619
0.679438
0.0226552
0.0227119
0.146501
0.089985
0.0231444
0.0221146
0.0218783
3.97132
0.0226243
6.06615
0.0216888
0.0215364
0.0221045
0.0219049
0.0231365
0.0215809
0.0219877
0.0222651
0.0583281
0.0237195
0.0225254
0.0216234
0.347059
0.0618832
0.0215085
0.0221043
0.0233922
0.022239
0.0220586
0.0215846
1.48659
0.0215973
0.021928
0.0662035
0.0215745
2.04697
0.0218215
0.0429114
0.0272317
0.0219685
0.0215341
0.0219209
0.0221639
0.0220428
0.0217695
0.0216139
2.14061
1.62858
1.87667
0.0216074
4.95016
0.0219579
0.0547552
0.0219193
0.0219236
0.0221091
5.79204
0.0219473
0.0219061
0.0221259
0.0219546
1.6091
0.0219274
1.74203
0.0214442
0.0224882
2.51584
4.86235
0.0219827
0.0219571
0.0267636
0.0220163
0.140172
0.02175
0.566623
0.0217631
0.0353039
0.0221391
0.021815
0.0219424
0.0219475
0.0231259
0.0218724
0.0307585
0.0347187
0.118207
0.0217321
4.29464
0.0218951
12.6578
0.0219092
5.54642
1.28476
0.0217471
0.0219093
0.0215938
0.0218592
0.0220438
0.0220237
0.0215825
0.022492
0.0214378
0.0864157
0.0221106
1.506
0.0215743
0.021528
0.0219253
0.02192
0.0226536
4.1454
0.0230115
3.02953
0.02154
0.0221188
0.0347228
0.0215806
0.141739
0.0231921
0.0219294
0.0394279
0.0215038
0.0219717
0.0224116
0.0217024
0.0286427
0.0398323
0.0216318
0.0221124
0.0220458
6.38175
0.023376
0.0215788
4.71009
0.0514354
0.0216215
0.0219178
0.153718
0.02281
0.021436
3.80473
0.212135
0.0228197
0.0214423
0.0222398
0.0351874
0.0215651
0.185092
0.0216135
0.0216765
0.0410173
0.0523675
0.0216075
0.021608
0.0215021
0.0217302
0.0217421
0.0408253
0.0219701
0.0217499
0.022111
0.0218469
2.92908
0.0222722
3.1835
0.0262431
0.0277365
0.0221421
1.7563
0.0219084
1.91583
0.0215264
0.0219595
0.45396
0.0219721
0.0227912
0.0216533
0.0247269
0.0217035
0.0269151
0.0215651
2.63532
0.0221583
0.0215727
0.0215328
0.0215714
0.101301
0.021776
3.85116
0.0219163
0.0247862
0.0214978
0.0220168
0.212427
0.0219995
0.107712
0.0218145
0.0230402
0.0221229
0.0221329
0.0224216
0.0219166
0.0219824
0.256499
0.0215694
0.021947
0.0225155
0.022057
0.0220541
0.0327092
0.0218597
0.021917
0.0218474
0.021619
0.0217612
0.0219962
10.6719
0.189108
3.54911
0.0214331
0.0235985
0.0221258
0.0263864
0.116905
0.222876
0.0318804
0.021567
0.0219781
0.0219542
0.0221438
0.0221145
0.0219112
2.63517
0.0505269
0.0219285
0.453302
0.0221369
5.8052
0.0219625
0.0218914
0.0218027
0.0215628
0.0214808
0.0218358
0.0216565
0.0217899
0.0414907
0.0228812
0.0219161
1.75168
0.0215634
0.0227186
0.0219866
0.0215964
0.0219243
0.300632
0.021786
6.60176
0.0219086
0.0215937
0.0351915
0.0218769