/*--------------------------------*- C++ -*----------------------------------*\
| =========                 |                                                 |
| \\      /  F ield         | OpenFOAM: The Open Source CFD Toolbox           |
|  \\    /   O peration     | Version:  v2012                                 |
|   \\  /    A nd           | Website:  www.openfoam.com                      |
|    \\/     M anipulation  |                                                 |
\*---------------------------------------------------------------------------*/
FoamFile
{
    version     2.0;
    format      ascii;
    class       volVectorField;
    location    "750";
    object      ddt0(U);
}
// * * * * * * * * * * * * * * * * * * * * * * * * * * * * * * * * * * * * * //

dimensions      [0 1 -2 0 0 0 0];


internalField   nonuniform List<vector> 
10042
(
(0.00324001 -0.000527776 -2.67699e-18)
(0.00593284 5.3049e-05 2.13396e-18)
(0.00984135 0.000323991 1.83467e-19)
(-0.0028937 2.8296e-06 -2.12341e-18)
(0.201688 -0.240301 -2.66048e-18)
(0.000783432 -0.000287944 -1.72292e-18)
(-0.204972 -0.313636 1.55118e-18)
(0.113419 -0.0877318 -3.82207e-18)
(-0.00178352 0.000262731 -4.68686e-19)
(0.00117863 4.52035e-05 3.58617e-19)
(0.164914 -0.116519 7.36936e-17)
(-0.00458764 1.7312e-05 1.24711e-18)
(-0.00103194 0.000174186 2.04873e-19)
(0.00389178 0.000111645 -6.72937e-20)
(0.00293452 0.00014577 -1.28971e-17)
(-0.00719683 0.000104469 3.18308e-18)
(-0.00630577 0.000146107 2.31749e-18)
(0.000993485 -5.6171e-05 1.93942e-18)
(0.00266267 -0.000585182 -2.08706e-18)
(-0.0118068 -0.00382622 -3.11926e-18)
(-0.0100538 -0.000346237 2.55898e-18)
(-0.0490842 -0.021592 -4.92353e-19)
(0.00236374 4.83833e-05 -9.22874e-19)
(0.00853091 5.84313e-05 1.31064e-18)
(0.00648728 -7.04101e-05 -3.04704e-18)
(0.00144033 -0.000872452 2.9383e-18)
(-0.00408906 -0.000256047 -8.57493e-18)
(0.00564566 -0.000440782 -1.07873e-18)
(-0.00215674 -0.000617093 -8.61875e-19)
(0.00596133 -0.000493174 -2.81319e-18)
(-0.000114088 0.000307584 -1.64954e-18)
(0.0589599 -0.0212668 -3.16398e-17)
(0.00441878 6.31796e-05 1.43835e-18)
(0.00428774 -0.00104482 -7.19616e-19)
(0.00817206 -0.00142208 1.90491e-18)
(0.00942751 7.20225e-06 -2.17131e-18)
(0.00122309 -0.00103208 2.06836e-18)
(-0.000751104 0.000315195 -8.66155e-19)
(-0.000429628 -3.5728e-05 -4.84922e-19)
(0.00934864 0.00067364 4.31189e-20)
(-0.0111928 -0.00503416 4.33951e-17)
(0.00446878 0.000163008 6.90993e-19)
(-0.262774 -0.310973 8.65073e-18)
(0.00777532 0.000144402 5.02598e-18)
(0.2018 -0.242216 2.69983e-17)
(-0.00316716 0.00355424 1.47881e-17)
(0.00764377 0.000533231 -5.18768e-20)
(-0.00579753 0.0242303 3.29016e-19)
(0.00441042 -0.00141072 2.49981e-18)
(0.00770431 -0.000913031 6.69162e-20)
(-0.00239824 5.00018e-05 -3.48662e-18)
(0.00822314 0.00171849 -4.49981e-19)
(0.00624976 0.000472501 -2.39081e-18)
(0.00390634 0.00123452 1.51255e-19)
(0.00136098 -0.00115416 -3.49719e-18)
(-0.00329671 -0.000189032 2.51652e-18)
(-0.00236847 -0.000592551 1.3841e-18)
(0.00800712 0.00052881 -8.74087e-18)
(0.00508226 -0.000999284 9.49641e-19)
(0.00904986 0.000486899 -4.70105e-18)
(0.000141617 0.000119406 -2.21922e-18)
(-0.00228187 0.000117165 -1.61397e-17)
(0.00839908 -0.00155641 -6.89791e-19)
(0.00964384 0.000340435 1.3418e-19)
(0.00215215 1.22118e-05 -1.59174e-17)
(0.00527295 -0.000976628 7.52722e-19)
(0.00339193 -0.000576972 -9.35291e-18)
(-0.00739381 -0.00208359 -2.34727e-17)
(0.0402402 0.068918 2.83873e-18)
(0.00112412 -0.000276873 -1.05329e-19)
(0.00317739 0.00130725 8.87296e-20)
(-0.0123533 -0.00634521 2.54076e-18)
(0.00818375 0.000156951 -1.72143e-18)
(1.23554e-05 -0.00076946 8.68462e-18)
(0.00715671 -0.000797815 2.8223e-18)
(0.0152495 0.000102675 3.1599e-19)
(0.157389 -0.246092 4.78194e-17)
(0.00237154 -0.000680325 -3.59911e-18)
(0.0028983 0.000360168 -2.78735e-18)
(-0.179692 -0.380443 1.64251e-17)
(0.00227594 -0.00124875 -4.1372e-18)
(0.155559 -0.258201 -4.61464e-17)
(0.00795833 -0.000110791 -2.65968e-18)
(0.00333469 0.00024609 -8.65285e-18)
(0.00429205 -0.000573848 -2.75722e-18)
(0.00109571 0.00032144 1.79982e-18)
(0.00732282 -0.000382683 -2.1257e-18)
(0.046987 -0.00380805 -2.4127e-17)
(0.00828124 -0.000716728 2.77904e-18)
(0.00386527 -0.000454761 5.83844e-18)
(0.00303621 -0.000477789 -4.20859e-19)
(0.121208 -0.290721 1.0392e-16)
(0.00567923 -0.000503207 -1.44831e-18)
(0.00470822 0.00171728 1.99282e-19)
(0.00602887 -0.000385845 -6.76462e-19)
(0.000488828 -0.000594478 -1.26779e-18)
(0.000220654 -0.000692685 -4.83124e-18)
(0.000810423 -0.000117564 8.41783e-19)
(0.00835271 0.000402258 -7.04561e-19)
(-0.0019724 -0.000207848 -4.67679e-19)
(1.50583e-06 -2.17632e-05 -6.54566e-19)
(0.0260682 -0.024637 1.30442e-17)
(0.0709212 -0.146073 -1.37687e-18)
(0.00372458 0.000370932 -2.21398e-18)
(0.00366294 -0.000147511 -4.2454e-18)
(0.0113 0.00396057 1.00478e-17)
(0.00778931 -0.000494891 3.35388e-18)
(0.000847291 -0.000679262 2.99613e-18)
(-0.00867319 -0.000341215 4.469e-21)
(0.000798137 0.000666963 1.50623e-18)
(-0.00567524 6.54895e-06 -2.54242e-18)
(-0.00157748 -0.000532376 -3.2437e-18)
(0.00927058 -0.000998685 1.68935e-18)
(0.0690039 0.0764599 1.01063e-16)
(0.00259689 -5.36487e-05 6.68541e-18)
(-0.00110852 -0.000879892 -2.48852e-18)
(0.00177731 -0.0007843 7.31962e-18)
(0.0023832 -0.000629982 1.18318e-18)
(0.000282572 -0.000626899 2.31504e-18)
(-0.178105 0.134675 -5.94728e-18)
(0.00935156 -0.00075142 4.81788e-18)
(0.0811582 -0.095736 1.38081e-18)
(0.00587522 0.00016207 9.75412e-18)
(0.000570039 -0.000206008 7.78986e-18)
(0.02144 -0.0248506 1.15126e-17)
(0.00582697 -0.000150878 2.95532e-18)
(0.111037 -0.0581433 6.10821e-18)
(0.00762493 -0.00183239 1.13496e-17)
(0.0104994 0.00398651 -9.95657e-18)
(0.000981726 -0.000456391 2.19504e-18)
(0.0028871 0.000509103 1.32639e-18)
(0.00313973 -0.000609512 2.13748e-18)
(-0.079086 -0.190459 1.61451e-17)
(0.0126237 0.0141119 3.28742e-18)
(-0.0012204 -0.000265241 -1.15593e-18)
(0.0156179 -0.00637069 -1.80776e-17)
(-0.105451 0.110145 -8.35668e-18)
(0.00679733 -0.00046932 -2.51676e-20)
(-0.00889197 0.0248059 4.02095e-19)
(0.053527 -0.00150134 1.54553e-17)
(0.00746033 0.000108895 -4.85453e-18)
(0.00178538 -0.000746504 -7.30398e-18)
(0.00616245 0.000233913 3.54737e-18)
(0.000901422 -0.0440611 3.37876e-17)
(0.00870214 0.00158589 -3.17255e-19)
(-0.000471882 -0.0006152 -1.25092e-18)
(0.0115128 -0.0107822 1.89925e-17)
(0.000530289 0.00105695 -1.04776e-18)
(-0.00104012 -0.0002033 -1.06137e-18)
(0.00656194 -0.000684344 -1.89465e-18)
(0.000737215 0.000314875 3.19464e-19)
(-0.000449243 -2.67117e-05 -2.76944e-18)
(-0.310185 -0.275899 -2.43009e-18)
(-0.232018 0.0786489 2.0067e-18)
(-0.0109266 0.00068038 1.17518e-18)
(0.00207692 0.000163935 -1.06815e-18)
(0.00346894 0.000352367 -9.16846e-18)
(-0.00300209 2.92752e-05 1.68872e-17)
(0.0157992 -0.00582276 2.13147e-17)
(0.047273 -0.0728127 1.09643e-16)
(0.328949 -0.0789037 -8.38273e-17)
(-0.00631697 0.0062564 1.11305e-17)
(0.00203843 2.79151e-05 -6.81568e-18)
(0.000742696 0.00030191 2.83851e-19)
(0.00949287 -0.000414617 3.34663e-18)
(0.00323979 -0.000672446 -5.15542e-18)
(0.00101619 0.00940736 1.76732e-18)
(-0.134305 -0.11278 -4.10027e-17)
(0.0619875 0.0162071 7.61461e-17)
(-0.242302 0.0662365 -2.46237e-19)
(0.00405229 0.0012507 -2.08732e-19)
(0.00893396 -0.000417959 -2.92172e-18)
(0.0612209 -0.32106 -1.02356e-16)
(-0.015946 -0.00358191 5.14003e-18)
(0.0015391 0.00266181 8.4624e-18)
(-0.517041 0.0804196 -2.79176e-18)
(0.324232 0.0954247 5.6987e-18)
(0.00758856 0.000182583 5.62843e-19)
(-0.00828779 -0.00292797 2.49019e-18)
(0.00819742 -0.0022091 1.38292e-18)
(0.00340981 0.000370839 7.67601e-18)
(0.0505474 -0.0153526 3.48893e-17)
(0.00750439 -0.000429333 8.99992e-19)
(0.00773802 -0.00182818 5.564e-18)
(0.00449951 0.000229512 -8.35979e-18)
(-0.199466 0.143054 -9.61141e-17)
(-0.0238782 0.0315924 9.28168e-18)
(0.00399368 -0.00089603 -4.92451e-19)
(0.338893 -0.074253 -4.22239e-17)
(0.00246007 -0.000851195 1.09454e-18)
(-0.0560266 -0.0185504 5.35792e-18)
(0.00782213 0.000367118 -5.16771e-18)
(-0.367283 -0.363231 2.67035e-17)
(0.0389057 -0.279048 -5.19238e-17)
(-0.0050147 -0.0005511 1.13474e-17)
(-0.232512 -0.167834 1.10327e-17)
(0.00206714 -0.000926107 -5.53368e-18)
(0.00677833 -0.000656817 -1.35785e-18)
(0.00145945 0.0001408 -3.30171e-19)
(0.00562484 -0.00100621 6.41379e-19)
(0.00146774 0.00173365 -1.11688e-17)
(0.00274622 -0.000938845 1.57129e-18)
(0.00196501 -0.000399087 3.93874e-18)
(-0.0173414 -0.00221791 -2.57042e-17)
(0.00382087 -0.000447047 -3.98687e-18)
(-0.000621101 -0.000205466 -1.26063e-18)
(-0.0716478 -0.0150594 -1.28479e-17)
(-0.0123564 0.00027953 -7.27261e-18)
(0.00259814 -7.21978e-05 3.75705e-18)
(0.0129414 2.3882e-05 1.94552e-18)
(-0.151309 -0.142762 -3.11016e-17)
(-0.00595337 4.01785e-05 -1.11687e-18)
(0.000758387 0.00861147 -2.75627e-18)
(-0.01128 0.0456042 -4.41504e-17)
(0.00385781 0.000343731 8.7804e-18)
(-0.032988 0.0342766 -4.49757e-18)
(0.00749539 -0.000851382 1.84268e-17)
(0.00634824 8.17621e-07 -2.25483e-18)
(0.00233907 -0.0143623 4.10917e-17)
(0.00216397 -0.00012122 3.05492e-18)
(0.00963393 -0.00107034 -1.09416e-18)
(0.00373966 0.000425316 2.45291e-18)
(0.0283924 0.0625808 1.20996e-17)
(-0.00203479 0.00051174 2.97085e-18)
(0.00716 0.000277272 -4.57593e-18)
(0.0013994 -0.000651835 -1.06909e-18)
(0.0545705 0.00630962 -2.13454e-18)
(-0.00169193 -0.000782617 3.20097e-19)
(-0.0245007 0.00964905 5.06371e-18)
(0.00323239 0.00124035 -4.6159e-19)
(-0.00170024 0.000282503 -1.66115e-19)
(-0.0161886 0.00786593 -2.04258e-17)
(0.00901964 -0.000360403 2.62643e-18)
(0.00334048 0.00131096 -3.68241e-19)
(0.0129723 0.000327366 8.16226e-20)
(0.00658602 -0.000638896 -4.47725e-19)
(-0.00407365 -0.000312557 1.53306e-18)
(0.000353962 0.000122415 1.29324e-18)
(0.00324178 -0.000399644 4.4961e-19)
(-0.00322889 -0.0006096 1.87192e-19)
(-0.000435362 7.79349e-05 1.03465e-17)
(0.0070206 0.000210358 -6.37122e-18)
(0.00744176 -0.000417875 4.20385e-19)
(0.0112173 -0.000880032 -1.8603e-18)
(-0.00553927 -0.000953329 -2.08895e-18)
(0.00207381 0.000286281 3.61787e-18)
(0.00141986 4.12918e-06 -4.92665e-19)
(0.00373744 -0.000262134 4.70628e-18)
(0.0056937 0.00132151 2.78437e-19)
(0.000748547 -5.40058e-05 1.49927e-18)
(-0.00659704 8.74725e-05 5.94628e-19)
(0.000560121 -0.000363096 9.84942e-19)
(0.0104735 -0.000296201 3.06003e-19)
(0.0302647 0.0736088 -1.35128e-17)
(-0.00901807 0.00632781 7.82485e-18)
(0.439072 -0.056134 -1.04254e-17)
(0.000345858 0.00273162 8.83475e-18)
(0.00273692 0.00297645 -1.36916e-17)
(0.00287088 7.86489e-05 -2.14272e-18)
(-0.00550839 0.00356837 3.69546e-18)
(-0.360733 -0.112242 1.61199e-17)
(0.00389233 -0.000325171 7.82321e-19)
(0.00750452 -0.000568435 4.36165e-18)
(0.000485548 0.000100002 2.29021e-18)
(0.00583333 -0.0010154 -3.93576e-19)
(-0.00267468 -0.000251179 -5.35632e-18)
(-0.0646899 -0.0274774 8.64661e-19)
(0.0066938 0.000534998 -1.68899e-19)
(0.00428085 -0.000418054 -9.82144e-18)
(0.0148515 -9.3859e-05 -1.25494e-18)
(0.000485187 0.00164358 1.23697e-17)
(0.00337693 0.00126818 1.62434e-19)
(-0.00488355 0.0457185 1.82612e-17)
(0.00126826 0.0029376 -1.04318e-19)
(0.047942 -0.0311841 7.63185e-18)
(0.0015934 -0.000981138 -2.89114e-18)
(-0.00321509 -0.000664442 2.60275e-19)
(-0.00110001 -0.000151165 2.31552e-18)
(0.013436 -5.33357e-05 1.91648e-18)
(0.00795262 0.00157517 4.91822e-19)
(0.00940523 -0.00234341 -4.24456e-18)
(0.00743701 -0.000754356 2.32561e-18)
(0.00149897 -0.00100124 -1.13779e-18)
(-0.115989 -0.211974 -8.16523e-17)
(0.00399384 -0.000187432 2.91387e-18)
(0.0059089 0.000253634 -3.29625e-19)
(-0.307171 -0.138363 -1.79186e-17)
(-0.00301707 0.00326033 -1.78769e-17)
(0.00765614 -0.00080703 9.86304e-19)
(0.00297917 0.000143197 5.45918e-18)
(0.00908759 -0.000407265 5.30972e-18)
(-0.546051 0.194871 -6.61892e-18)
(6.02858e-05 -0.00420249 -7.85313e-18)
(-0.00384595 -0.0461313 2.2284e-17)
(-0.00107814 6.09381e-05 7.02623e-18)
(0.00120017 0.000126385 5.55806e-19)
(-0.00128874 -0.000725486 2.98501e-18)
(-0.00171613 0.000238435 -3.94915e-19)
(0.0533669 -0.00638155 2.24071e-17)
(0.0023198 -0.000762979 -6.99968e-19)
(-0.00412806 0.000190377 3.01429e-18)
(0.00222166 -0.000572186 -7.45814e-19)
(0.00649639 -0.000831054 3.59632e-18)
(-0.000981848 0.000381869 -3.76298e-19)
(0.00476548 -5.9156e-05 7.66697e-18)
(0.0209979 0.00373571 -1.96268e-17)
(0.00849584 0.0349316 -1.19727e-16)
(0.010135 0.000695749 -6.01484e-18)
(-0.0329845 0.189695 3.32826e-17)
(-0.00939131 -0.000985291 -6.44844e-19)
(0.0044439 -0.000161004 -2.29128e-20)
(-0.00401018 -0.000456222 -6.83234e-19)
(-0.234475 0.0474254 -3.61071e-17)
(0.0148425 -0.028153 -9.33911e-18)
(0.0340614 -0.211851 1.17917e-17)
(0.322862 0.05509 -4.99486e-17)
(0.00987339 0.000167701 -1.2685e-19)
(0.00656291 0.00054758 -3.41717e-19)
(0.0010883 -0.000191138 -1.87831e-18)
(0.00795456 -7.98585e-05 2.66463e-19)
(0.00135118 -0.000809148 -1.23451e-18)
(0.000486605 -1.4886e-05 1.14215e-18)
(0.00855696 -0.0015517 1.17474e-18)
(-0.0073114 7.51342e-06 5.91679e-19)
(0.00274696 0.000113905 2.66078e-18)
(0.00722282 0.000212141 1.90815e-20)
(0.0230643 0.00447335 2.83431e-17)
(-0.0034626 -0.000119953 3.56553e-18)
(0.00690028 -0.000673769 1.06798e-18)
(0.00556523 -0.000759486 4.22173e-19)
(0.00647558 4.2962e-05 -5.12973e-18)
(0.246057 0.132906 -1.97925e-17)
(-0.00552701 -0.000958674 -3.17599e-18)
(-0.0109531 0.000598877 -1.99965e-18)
(-0.000170356 -2.10561e-05 -1.56539e-19)
(0.00933453 0.000349379 -1.28156e-19)
(0.0128226 -0.00242134 -1.15046e-17)
(-0.00458512 -0.00101269 -7.26e-18)
(0.00202561 0.00304816 1.71237e-17)
(-0.0584938 0.151512 -3.17436e-17)
(-0.00200843 0.000534744 -5.33026e-18)
(0.00739313 -0.00166523 -2.83992e-18)
(0.0055588 -0.000702474 -8.03689e-19)
(0.00349227 0.000127442 -2.37306e-18)
(0.00206467 -0.000346905 3.0795e-20)
(0.00163392 -6.12809e-05 -1.49822e-18)
(-0.0166365 0.0974917 -3.68031e-17)
(0.00636036 -0.00078564 -3.71313e-18)
(0.00416175 -0.00102666 1.37697e-19)
(0.02595 0.0368155 -6.71407e-20)
(0.00234943 -0.000308134 -1.8575e-18)
(0.00872151 -0.000151887 -4.44859e-18)
(0.00343707 0.000176079 1.36906e-17)
(0.0208998 0.0440449 3.73758e-19)
(0.00689543 0.00073418 3.83766e-19)
(0.0070995 0.000265124 4.17569e-18)
(0.0100152 0.00318347 3.69291e-18)
(0.00851962 -0.00129857 5.43092e-18)
(0.00763375 -0.000887006 5.46189e-20)
(0.00439922 -0.000701727 -8.53144e-18)
(-0.0252459 0.176393 -1.1331e-19)
(0.0113454 -0.0118129 -3.33534e-18)
(0.00420614 0.000239733 -9.42426e-20)
(0.0113896 -0.00280032 -6.96272e-18)
(0.00982295 -0.000466816 1.14912e-18)
(0.00569451 -0.000367088 -3.57664e-18)
(0.00697884 -0.000508976 2.30734e-18)
(0.00710771 -8.42783e-05 1.22167e-17)
(0.0696984 -0.161263 -3.07784e-17)
(0.00261091 0.000448358 -3.40573e-21)
(0.00267002 -4.81652e-05 2.14874e-18)
(0.00694318 0.000438818 -2.1068e-18)
(2.10279e-08 -2.20345e-05 5.88083e-18)
(-0.00354825 -0.000163169 1.54146e-18)
(-0.0138468 -0.00268894 1.57348e-18)
(0.00529694 -0.000684607 -3.1457e-18)
(-0.00490472 0.000374697 -2.04432e-18)
(-0.127675 0.138397 -1.62599e-18)
(0.00340957 -0.000296819 -4.92498e-18)
(0.0394396 -0.204643 -6.97392e-18)
(0.00547441 0.0994115 2.80123e-17)
(0.000304992 -0.000507531 -4.7229e-18)
(-0.562887 0.383357 -4.63045e-18)
(0.459539 -0.0310315 -7.90202e-17)
(0.00825001 9.4032e-06 -1.76913e-18)
(-0.0163527 0.00559543 2.06032e-17)
(-0.00890083 0.000318608 5.78458e-18)
(0.00713347 0.000523811 -1.32015e-20)
(1.85613e-06 -7.06664e-05 3.43737e-18)
(0.00701252 0.000391092 -5.96017e-18)
(0.028153 0.15342 -1.33112e-18)
(-0.000969718 -0.000192497 3.32731e-19)
(0.00659968 -0.000107605 -4.52092e-18)
(-0.0617045 -0.0368364 1.02402e-18)
(-0.000268627 3.23828e-05 1.85483e-18)
(-0.0156026 -0.000400505 -2.72706e-18)
(-0.00205633 -0.00136204 -5.09587e-17)
(-0.0540924 -0.00325578 7.13922e-18)
(0.00191578 -0.00105209 -2.05767e-18)
(0.00316999 0.00103162 -3.07484e-18)
(0.0493374 0.00377294 1.0032e-16)
(0.0193271 -0.0287938 5.34383e-18)
(0.0125973 -0.000420706 1.97644e-18)
(-0.00660968 -0.00293512 1.44638e-17)
(0.426084 0.0200816 7.32232e-17)
(0.000266397 -5.85867e-05 1.12314e-18)
(0.00289302 -0.000112042 -6.44987e-19)
(0.00141097 0.000177676 7.98169e-19)
(-0.00406371 -0.000685305 2.65745e-18)
(-0.00090228 0.000131563 -2.73013e-18)
(0.00570561 -0.000129585 2.45668e-18)
(-0.0243088 0.194151 2.96577e-18)
(0.0998341 -0.137135 -6.34311e-18)
(0.00706796 0.000444962 4.41273e-18)
(0.0420958 0.0121009 -1.4313e-17)
(-0.00298013 8.48321e-05 6.02956e-19)
(0.00203248 -0.000688767 8.98615e-19)
(0.114214 -0.0773216 2.26054e-17)
(0.0114649 0.000442038 9.19969e-20)
(0.0714241 -0.195946 -6.11964e-19)
(0.000623237 -0.00431754 1.59719e-17)
(0.00245833 0.000246459 -1.51463e-18)
(0.00684378 0.000528114 1.41823e-18)
(0.00551876 0.000998304 2.68662e-18)
(0.0119313 0.0307394 3.84987e-18)
(0.00533343 0.00122451 1.44892e-19)
(0.00820339 0.000168535 2.51061e-19)
(0.00563088 -0.000152578 2.76561e-18)
(0.165764 -0.127913 -5.93276e-17)
(0.00391037 0.000290168 -6.95451e-19)
(0.112096 -0.231002 2.91314e-17)
(0.00391208 0.000151898 -3.61679e-18)
(0.003914 -0.000452308 -1.99533e-18)
(-0.00104685 -0.00085639 -3.05877e-18)
(0.0879921 0.0656685 -1.58343e-17)
(0.00278854 -0.000391726 -1.10878e-18)
(-5.21012e-05 -0.000253186 -2.34033e-18)
(0.000955863 -0.00089781 -1.04081e-17)
(0.00378389 0.000679247 -2.5306e-19)
(0.022945 -0.0597613 -1.37748e-16)
(-0.000908632 -0.00109713 2.35979e-18)
(-0.00206222 -0.000726465 1.26977e-18)
(-0.00460794 -2.9128e-06 6.78534e-19)
(-0.0143373 0.04761 4.29764e-17)
(-0.00327752 -0.000584981 -1.41914e-17)
(1.86648e-05 -0.00121378 -1.88915e-18)
(0.00402514 -0.00112349 2.538e-18)
(-0.00273858 -0.000208242 1.5074e-19)
(0.0702706 0.0210141 -4.79506e-17)
(-0.550268 0.226451 -6.03883e-19)
(-0.0051711 -0.000294413 -1.80178e-18)
(0.00244568 -0.000184248 3.79168e-18)
(0.00231416 0.000320513 -2.21983e-19)
(-0.00835141 9.88273e-05 -1.07887e-18)
(-0.00825705 9.40679e-05 2.74403e-18)
(0.000347053 -0.000490324 9.97772e-18)
(-0.0637737 0.0480407 -3.60381e-17)
(0.0013433 4.2695e-05 -1.31447e-18)
(-0.00585939 5.44265e-05 1.24677e-18)
(0.00310489 0.000449285 -5.96561e-19)
(0.0267846 -0.122678 -5.31955e-19)
(0.00275854 -0.011812 -3.07994e-17)
(0.0022026 -6.80621e-05 -4.45946e-18)
(0.00844358 -0.00227808 -2.11494e-18)
(0.453344 -0.0317305 -4.73793e-17)
(-0.00157175 0.000639564 3.06137e-18)
(-2.40491e-05 -0.000709227 4.33222e-18)
(0.0044623 -0.000741231 -9.6e-18)
(0.00872368 0.0180472 1.14698e-17)
(0.00602196 0.000321684 -3.07115e-19)
(-9.65787e-05 -0.000434069 1.26542e-18)
(0.00351864 0.000143134 -7.59327e-18)
(0.00116005 0.000254791 1.40829e-19)
(0.00851775 -9.09295e-05 -1.93276e-18)
(0.00366347 0.000434541 -2.53596e-18)
(0.000773756 0.000312801 1.91615e-18)
(0.00551482 0.00393459 -3.859e-18)
(0.00752895 -0.000456643 7.89673e-19)
(0.00277539 -0.000367009 1.54281e-18)
(0.205685 -0.0877063 -4.38049e-17)
(0.00677177 -0.000104147 -1.49899e-18)
(0.00730261 0.00136085 -9.17178e-20)
(0.00161692 -0.000194198 1.45695e-18)
(0.00771711 -6.24464e-05 -9.02317e-18)
(0.00811968 -0.00184858 -1.03429e-18)
(-0.00665301 -0.00033635 5.92995e-18)
(0.0054389 0.000337507 3.50717e-19)
(0.0605345 -0.193866 2.47108e-17)
(0.00546713 -0.000484328 2.76203e-18)
(-0.12763 -0.0727743 1.28029e-18)
(0.00446149 -0.000357674 -1.11694e-18)
(0.000435453 -4.49876e-05 2.06191e-18)
(-0.000510569 -3.57025e-05 -2.57196e-18)
(0.0319652 -0.0276218 -3.18939e-17)
(0.0122161 -0.000697187 -2.81938e-18)
(0.000341923 -0.000716599 -3.55784e-18)
(-0.00594813 -1.30287e-06 2.21936e-19)
(0.000728048 0.000305819 -4.08286e-19)
(0.00415193 0.000275697 -8.11406e-18)
(-0.0864431 -0.344399 -2.10295e-18)
(0.00095549 -0.000495073 8.61997e-18)
(0.00493646 0.00380083 6.16347e-18)
(-0.0538843 -0.0294675 3.73459e-18)
(-0.00100743 0.000420563 1.03608e-18)
(0.00303904 -8.69828e-05 1.37629e-18)
(-0.000161574 -0.000713719 -8.71434e-19)
(0.010689 0.0011217 -3.25803e-19)
(-0.000324554 0.000400289 -4.4335e-19)
(-0.00739269 -0.000808099 5.91481e-18)
(0.142744 0.0738352 -3.66174e-17)
(-0.115063 0.0763052 5.83852e-17)
(-0.000871308 -0.000295403 5.78466e-19)
(0.00687038 -0.00181917 -5.87905e-18)
(7.50642e-05 -0.000324665 8.29782e-19)
(-0.00308156 -0.000300287 -3.23642e-19)
(0.00461509 -0.00075274 5.6717e-18)
(-0.00304416 -1.32149e-05 1.93741e-18)
(0.000416976 -0.0781104 -5.13138e-18)
(0.0157144 0.0287538 -1.2733e-17)
(-0.0499141 -0.0246551 -8.42029e-18)
(0.00165307 0.000465003 6.51924e-19)
(0.0102451 0.00103477 -1.31561e-19)
(0.0127388 0.000418625 4.48342e-21)
(0.00650782 -0.000274787 8.40316e-19)
(0.00661355 -0.106311 4.42419e-17)
(0.00940534 -0.0029868 -3.09341e-19)
(0.00114871 0.000233648 6.94552e-19)
(-0.00158389 -0.000779887 -8.5775e-19)
(-0.00639649 -2.47046e-05 2.225e-18)
(0.00701347 -0.000890022 -8.16593e-18)
(0.0178208 -0.0895163 4.02992e-18)
(-0.000417024 -0.00105844 5.42853e-18)
(0.0013273 -0.000134121 6.58814e-18)
(-0.0941175 0.0268722 -1.44321e-16)
(-0.0466472 -0.00306164 -9.15041e-19)
(-0.0222226 0.0424141 -1.86878e-17)
(0.0127379 0.0030947 1.70501e-18)
(-0.00825043 0.000137605 -2.21515e-18)
(-0.000608447 -0.000333948 -1.25386e-18)
(0.0142318 -0.00588815 -1.68352e-18)
(0.00915354 -0.00961541 -1.70697e-17)
(0.0973021 0.128481 4.16382e-17)
(-0.277978 -0.143029 4.44019e-17)
(0.00582679 0.00018889 -3.55352e-17)
(-0.000553594 -0.000755616 -2.78741e-18)
(0.00296355 0.000289525 -3.51879e-18)
(0.00445995 -0.000690388 -1.76424e-20)
(0.00577271 -0.00022451 -5.01825e-18)
(0.00366374 0.000337451 2.91213e-18)
(0.29854 -0.0897743 3.0295e-17)
(0.00280107 2.16356e-05 6.0493e-19)
(-0.00919749 -0.000931689 2.87078e-19)
(-0.00129171 0.00487844 -5.34965e-19)
(-0.00306314 0.000335206 -1.69213e-18)
(-0.108058 0.0355749 -9.24948e-19)
(0.00433193 -0.000293365 1.20339e-18)
(-0.00909823 -0.00912118 -4.96981e-19)
(0.00840488 -0.000153204 1.20368e-19)
(-0.00186808 -1.26616e-05 1.96743e-18)
(0.00361699 0.000230767 8.0429e-19)
(0.00807036 -0.00146708 5.70883e-19)
(-0.00425114 -0.00766458 -5.45781e-19)
(0.0139056 0.00243187 -1.86832e-18)
(-0.00280037 0.0160033 -1.63852e-18)
(0.00781188 -0.000135603 -2.4766e-18)
(0.00859496 -0.0026658 -1.75316e-19)
(0.00874016 -0.000813603 -4.40675e-20)
(0.00135977 -0.000456354 3.37708e-18)
(0.00494855 -0.000188389 3.76212e-18)
(0.00452746 -0.000353591 -6.11841e-20)
(-0.00105554 0.000290045 6.16003e-18)
(0.00587096 0.000163872 3.79251e-18)
(0.000848827 -0.0112577 1.98671e-17)
(9.91719e-05 0.000692786 -1.29247e-17)
(0.00370372 -4.67109e-05 -1.00272e-17)
(0.00640922 -0.000443524 -2.70772e-18)
(-0.00415175 -1.27943e-06 2.81703e-18)
(0.00353609 -0.000471604 -1.0966e-17)
(-0.0152627 0.00425514 -2.23287e-19)
(-0.00521525 -0.000319704 -2.95202e-18)
(0.003931 -0.00113144 -3.97783e-19)
(-0.0474089 -0.0145881 -1.90435e-18)
(-0.00118352 0.000287107 -9.69361e-19)
(0.0111325 -0.00981874 1.98294e-18)
(0.028747 -0.00163337 -9.25147e-19)
(0.00156268 0.000212242 2.8565e-18)
(-0.162871 0.128517 2.90826e-17)
(-1.49186e-05 -0.00030902 4.94072e-18)
(-0.0076112 0.000376592 -1.02241e-19)
(-0.0527297 0.0206 1.84603e-17)
(0.0103449 0.000274184 -1.0056e-19)
(0.00310438 -7.57623e-05 3.7298e-19)
(0.00356329 -0.000820356 7.68116e-19)
(-0.00239448 -0.000281954 1.07069e-17)
(2.44702e-06 -5.12873e-05 8.66566e-19)
(0.00476791 -0.000933569 -1.88582e-18)
(0.00650859 -0.000861533 8.13394e-18)
(-0.0451173 0.00627375 -5.22174e-18)
(0.00636739 -4.73584e-06 8.66198e-19)
(-0.00257284 -0.000643727 1.32741e-18)
(0.00129622 -0.000995597 -7.22224e-19)
(0.00881301 -0.00209033 3.98484e-18)
(0.00271769 -0.00141065 3.30237e-18)
(-0.00100695 -0.000312189 -2.4577e-18)
(-8.27436e-05 5.93756e-05 2.61298e-19)
(-0.000673458 -0.000401978 8.97671e-20)
(-0.0025727 0.000212915 3.34689e-18)
(0.00265302 -0.000732492 7.57296e-19)
(0.0100705 0.000220171 -1.45783e-19)
(-0.00549431 0.000367031 8.27917e-19)
(0.00307039 0.00039829 -3.32261e-18)
(0.00473381 0.000910692 -8.85293e-19)
(0.00603058 -0.0005478 -5.3343e-18)
(0.00712495 0.103384 -4.79305e-17)
(0.00111379 0.000115249 -1.03564e-18)
(-0.0130421 0.00443885 -3.74552e-17)
(0.000443065 -0.000568638 -2.55646e-18)
(-0.000360463 0.000319234 -2.52519e-19)
(0.00162818 -3.72606e-05 8.68122e-19)
(-8.10992e-06 -0.000535513 -2.11612e-18)
(0.00135476 -0.000291348 4.73597e-18)
(0.000121799 -0.00039299 -5.55977e-18)
(0.00538777 -0.000876236 -1.74273e-19)
(-0.0481845 0.0128977 -4.18043e-17)
(-0.00131772 -0.000169209 -6.51046e-18)
(-0.251692 -0.242588 1.43045e-19)
(7.7411e-07 0.00104555 -6.51213e-19)
(0.00643753 9.24148e-05 5.13015e-18)
(-0.00808841 -0.000193115 8.82216e-18)
(0.00731653 -0.00082074 -4.7268e-18)
(0.00853619 -0.000401079 -3.05407e-18)
(0.00515236 -0.000900081 9.87993e-19)
(-0.000748578 0.000288071 -6.04924e-18)
(-0.00988539 -0.00617089 4.87078e-17)
(-0.188012 -0.0872266 -1.44359e-17)
(-0.100384 0.0559828 1.07012e-19)
(0.000989563 -0.000515903 3.44021e-18)
(0.00427113 0.00303949 3.20577e-18)
(0.00424087 -0.000179748 3.47595e-18)
(0.00465954 0.00350319 1.4878e-19)
(-0.00287066 0.00433878 3.16724e-18)
(0.000162743 4.57571e-05 3.65997e-18)
(0.00321785 0.000156279 1.18472e-17)
(-0.00481016 0.016801 4.67739e-19)
(0.0775565 0.139606 -4.87263e-17)
(0.0291663 -0.00597868 1.52859e-18)
(0.317056 -0.107479 -9.97793e-17)
(0.00756205 -0.00164123 -7.06734e-18)
(0.00477456 1.70028e-05 -3.79579e-18)
(0.000252738 0.000109344 1.49394e-18)
(0.00359126 -9.60686e-05 1.08594e-18)
(0.00348675 -0.000978341 1.83644e-18)
(-0.00960757 -0.00577625 -1.12598e-18)
(0.0127585 0.000159449 6.41213e-20)
(0.00915878 -0.000839807 6.80412e-20)
(-0.0105346 0.00275532 -2.19503e-17)
(-0.000280067 -2.35869e-05 -1.97692e-18)
(0.00177884 -0.000511818 4.15721e-18)
(-2.37834e-05 3.92638e-05 2.1932e-20)
(-0.0141128 0.138775 -1.24024e-16)
(0.0073676 0.000132969 3.99882e-19)
(0.00701933 -0.00212088 1.4213e-18)
(0.0148972 -0.0093209 3.73428e-18)
(0.00194355 -0.000135555 -1.98046e-18)
(-0.232168 -0.376553 -1.74482e-17)
(0.00501437 5.57226e-05 6.62098e-19)
(0.00686586 -0.000559214 -3.67587e-18)
(0.00382413 -0.000682695 4.59503e-18)
(0.00224352 0.000248834 8.12836e-20)
(-0.243649 0.0393517 2.13169e-17)
(-0.00438607 0.0074812 -2.51988e-19)
(0.0063013 0.139817 1.10139e-16)
(-0.00537739 -2.37438e-05 6.347e-18)
(0.215327 0.124039 9.33524e-18)
(-0.173641 0.0439848 5.87029e-17)
(0.0224636 0.0837435 6.49505e-18)
(-0.00990813 -0.00494126 1.39852e-18)
(-0.00509398 0.00442337 -4.05349e-18)
(-0.0188476 0.0106173 -1.17011e-17)
(0.00637128 0.0031967 -1.20825e-18)
(0.0077555 -0.000753738 5.23457e-18)
(-0.0018196 -0.000936717 5.99474e-18)
(0.0034652 0.000245764 -2.47789e-18)
(-0.283241 0.00909238 -1.50026e-18)
(0.00452908 -4.38375e-05 2.28396e-18)
(0.0043651 0.000769815 1.09179e-18)
(-0.0794462 0.163474 -3.20003e-17)
(0.00891054 -0.000345401 1.69459e-18)
(0.00530228 -0.000474754 1.19547e-17)
(0.00254909 -0.000426077 -2.23242e-18)
(0.00670509 -0.000247326 -6.51914e-19)
(0.00855069 -0.00037828 -6.55681e-18)
(0.00796296 0.000865213 7.42495e-20)
(0.0332562 -0.0221321 -6.38338e-18)
(-0.150621 -0.143259 -2.95021e-17)
(0.00565733 0.000877484 3.25958e-19)
(0.0061159 6.57059e-05 -5.64043e-18)
(-0.0580849 -0.198334 -1.69446e-18)
(-0.517508 -0.451103 -3.81134e-17)
(0.0034186 -0.000215145 -2.843e-18)
(-0.000141721 -0.000772949 3.60664e-18)
(-0.00178453 5.52538e-05 -1.37517e-18)
(-0.0034594 -0.000657658 -5.68937e-18)
(0.132016 -0.0728424 1.2393e-17)
(-0.00340346 0.00863766 -4.53475e-19)
(-0.0134588 0.0394933 1.23166e-17)
(0.00457255 -5.81952e-05 2.79516e-18)
(0.00831016 -0.00042695 -8.44257e-18)
(-0.00187028 0.000330575 9.51435e-20)
(0.00268062 0.000348098 -2.53117e-17)
(0.000369187 -4.48898e-05 -3.43081e-18)
(-0.000300076 -8.85754e-05 -4.88799e-19)
(0.00621782 0.000454424 -3.59167e-18)
(-0.0152315 0.0252731 2.31554e-17)
(-0.00316998 0.000129478 -3.47269e-19)
(0.00656301 -0.000177101 1.96437e-18)
(0.00893106 0.00046841 6.25914e-18)
(-0.0021206 -0.000198063 -8.53101e-19)
(-0.00222786 -0.00169694 -6.65029e-19)
(-0.0047715 0.0066129 3.36173e-19)
(0.00346979 0.000252162 2.95481e-19)
(-0.152099 -0.0747476 -1.22563e-17)
(0.0443323 0.137091 6.1765e-17)
(0.00603895 9.8945e-05 2.89686e-18)
(-0.00749424 -0.000895789 -2.17241e-19)
(-0.0398755 0.198142 -1.25355e-16)
(0.0538518 -0.111997 -1.69706e-17)
(0.00395336 0.00224262 -8.37827e-19)
(0.0114542 0.000376058 3.83996e-19)
(0.151674 -0.0476815 1.8202e-18)
(-0.0189658 0.00239053 1.57778e-18)
(0.00198835 -0.00026904 3.51001e-17)
(0.00777129 -0.000792667 -1.84855e-18)
(0.000679576 -2.56833e-06 5.31589e-19)
(-0.00865725 -0.000363868 -1.59143e-18)
(-0.00208099 0.0531562 -3.24286e-17)
(0.000909882 -0.000529976 -1.39737e-18)
(-0.0104159 0.00262317 -7.23211e-18)
(0.00188152 -8.2179e-05 -1.37451e-18)
(0.204263 0.125653 1.35432e-17)
(0.0484019 -0.156966 -7.04417e-18)
(-0.0015899 -0.00066115 6.68422e-18)
(0.00290342 -5.16067e-05 5.03389e-18)
(-0.00969538 -0.00590381 3.40501e-17)
(-0.0111512 0.000101456 1.11302e-17)
(0.00168199 1.28905e-05 -2.6863e-18)
(0.00799675 -0.000449358 -3.05644e-18)
(-0.0132596 -0.222565 -8.31975e-17)
(0.0620737 0.136266 -5.00654e-18)
(0.0141519 0.10613 -1.7127e-17)
(0.00715142 0.00135554 1.41607e-19)
(-0.000673104 0.00104692 -1.33466e-17)
(0.00523729 0.00252576 1.49692e-18)
(-0.000916945 -6.48718e-05 1.73016e-18)
(-0.0100712 -2.43965e-05 -1.65656e-18)
(-0.00713316 0.000675565 7.22394e-18)
(0.00534689 0.0520321 3.69664e-17)
(0.00165007 0.00024669 -3.86679e-18)
(-0.000760602 -0.000697285 -1.34675e-18)
(-0.00156499 0.00132557 1.41382e-17)
(0.00454367 -0.000809207 -2.59801e-18)
(0.00370009 -0.0137823 -3.90422e-17)
(-0.00556373 -5.63417e-05 2.78538e-18)
(-0.0122283 -0.000621984 -5.83366e-18)
(-0.00642871 -1.76379e-06 -1.37156e-18)
(0.00380045 0.000193056 4.03824e-18)
(0.0097402 0.00907527 -1.69982e-17)
(-0.00124206 0.000288006 1.70959e-18)
(0.000537592 -0.000480557 8.54621e-19)
(0.00135209 -0.00163262 1.24704e-18)
(-0.000275285 0.00793151 -4.15145e-18)
(-0.0339743 0.00822029 -1.39725e-18)
(-0.00728755 0.000353786 3.39301e-18)
(-0.0113126 -0.0138518 8.70805e-18)
(-0.537194 -0.468539 1.88122e-17)
(-0.125588 -0.134118 3.26302e-20)
(0.00381678 0.000259419 5.76365e-18)
(-0.178732 0.023318 -6.2932e-17)
(0.0310875 -0.034599 -1.21564e-17)
(0.0093281 -0.000379707 -4.78625e-18)
(-0.00152324 0.000171119 -1.26485e-19)
(0.00712408 0.000177406 -4.33844e-18)
(0.00222928 0.000307062 7.30078e-18)
(0.0218802 0.0557244 2.01817e-18)