/*--------------------------------*- C++ -*----------------------------------*\
| =========                 |                                                 |
| \\      /  F ield         | OpenFOAM: The Open Source CFD Toolbox           |
|  \\    /   O peration     | Version:  v2012                                 |
|   \\  /    A nd           | Website:  www.openfoam.com                      |
|    \\/     M anipulation  |                                                 |
\*---------------------------------------------------------------------------*/
FoamFile
{
    version     2.0;
    format      ascii;
    class       pointVectorField;
    location    "750";
    object      pointDisplacement;
}
// * * * * * * * * * * * * * * * * * * * * * * * * * * * * * * * * * * * * * //

dimensions      [0 1 0 0 0 0 0];


internalField   nonuniform List<vector> 
10356
(
(0 0 0)
(0 0 0)
(0 0 0)
(0 0 0)
(0 0 0)
(0 0 0)
(0 0 0)
(0 0 0)
(0 0 0)
(0 0 0)
(0 0 0)
(0 0 0)
(0 0 0)
(0 0 0)
(0 0 0)
(0 0 0)
(0 0 0)
(0 0 0)
(0 0 0)
(0 0 0)
(0 0 0)
(0 0 0)
(0 0 0)
(0 0 0)
(0 0 0)
(0 0 0)
(0 0 0)
(0 0 0)
(0 0 0)
(0 0 0)
(0 0 0)
(0 0 0)
(0 0 0)
(0 0 0)
(0 0 0)
(0 0 0)
(0 0 0)
(0 0 0)
(0 0 0)
(0 0 0)
(0 0 0)
(0 0 0)
(0 0 0)
(0 0 0)
(0 0 0)
(0 0 0)
(0 0 0)
(0 0 0)
(0 0 0)
(0 0 0)
(0 0 0)
(0 0 0)
(0 0 0)
(0 0 0)
(0 0 0)
(0 0 0)
(0 0 0)
(0 0 0)
(0 0 0)
(0 0 0)
(0 0 0)
(0 0 0)
(0 0 0)
(0 0 0)
(0 0 0)
(0 0 0)
(0 0 0)
(0 0 0)
(0 0 0)
(0 0 0)
(0 0 0)
(0 0 0)
(0 0 0)
(0 0 0)
(0 0 0)
(-0 -8.2647e-05 -0)
(-0 -8.2647e-05 -0)
(0 0 0)
(0 0 0)
(0 0 0)
(0 0 0)
(0 0 0)
(0 0 0)
(0 0 0)
(0 0 0)
(0 0 0)
(0 0 0)
(0 0 0)
(0 0 0)
(0 0 0)
(0 0 0)
(0 0 0)
(0 0 0)
(0 0 0)
(0 0 0)
(0 0 0)
(0 0 0)
(0 0 0)
(0 0 0)
(0 0 0)
(0 0 0)
(0 0 0)
(0 0 0)
(0 0 0)
(0 0 0)
(0 0 0)
(0 0 0)
(0 0 0)
(0 0 0)
(0 0 0)
(0 0 0)
(0 0 0)
(0 0 0)
(0 0 0)
(0 0 0)
(0 0 0)
(0 0 0)
(0 0 0)
(0 0 0)
(0 0 0)
(0 0 0)
(0 0 0)
(0 0 0)
(0 0 0)
(0 0 0)
(0 0 0)
(0 0 0)
(0 0 0)
(0 0 0)
(0 0 0)
(0 0 0)
(0 0 0)
(0 0 0)
(0 0 0)
(0 0 0)
(0 0 0)
(0 0 0)
(0 0 0)
(0 0 0)
(0 0 0)
(0 0 0)
(0 0 0)
(0 0 0)
(0 0 0)
(0 0 0)
(0 0 0)
(0 0 0)
(0 0 0)
(0 0 0)
(0 0 0)
(-0 -8.2647e-05 -0)
(-0 -8.2647e-05 -0)
(0 -8.26333e-05 0)
(0 -8.26355e-05 0)
(0 -8.25765e-05 0)
(0 -8.2637e-05 0)
(0 0.000149334 0)
(0 0.000191515 0)
(0 0.000188888 0)
(0 0.000210046 0)
(0 0.000236267 0)
(0 -8.26289e-05 0)
(0 0.00016355 0)
(0 0.000255353 0)
(0 -8.26305e-05 0)
(0 0.000135556 0)
(0 0.000172192 0)
(0 0.000139075 0)
(0 0.000109668 0)
(0 -8.26408e-05 0)
(0 -8.26391e-05 0)
(0 6.57472e-05 0)
(0 7.19435e-05 0)
(0 0.000207546 0)
(0 0.00019649 0)
(0 0.000161896 0)
(0 -8.26297e-05 0)
(0 -8.26325e-05 0)
(0 4.19604e-05 0)
(0 4.6383e-05 0)
(0 0.000166596 0)
(0 0.000176271 0)
(0 0.000184466 0)
(0 0.000133752 0)
(0 0.000224401 0)
(0 0.000290962 0)
(0 0.000160323 0)
(0 0.000117618 0)
(0 8.95387e-05 0)
(0 0.000122091 0)
(0 1.82839e-05 0)
(0 0.000166894 0)
(0 0.000326549 0)
(0 0.000325838 0)
(0 0.000483584 0)
(0 0.000490922 0)
(0 0.000642495 0)
(0 0.00063738 0)
(0 0.000788443 0)
(0 0.000806669 0)
(0 0.000944964 0)
(0 0.000973398 0)
(0 0.00110086 0)
(0 0.00113142 0)
(0 0.00124765 0)
(0 0.00127708 0)
(0 0.00138236 0)
(0 0.00140638 0)
(0 0.00150013 0)
(0 0.0015174 0)
(0 0.00160092 0)
(0 0.00158232 0)
(0 0.00167059 0)
(0 0.00164923 0)
(0 0.00172347 0)
(0 0.00170107 0)
(0 0.00176308 0)
(0 0.00173836 0)
(0 0.0017925 0)
(0 0.0017653 0)
(0 0.00181069 0)
(0 0.00178345 0)
(0 0.00181946 0)
(0 0.00179243 0)
(0 0.00181994 0)
(0 0.00179113 0)
(0 0.00184753 0)
(0 0.00184123 0)
(0 0.00187059 0)
(0 0.00185739 0)
(0 0.00188862 0)
(0 0.00186877 0)
(0 0.00190024 0)
(0 0.00187521 0)
(0 0.00190705 0)
(0 0.00187766 0)
(0 0.00191036 0)
(0 0.00187686 0)
(0 0.00184319 0)
(0 0.00191009 0)
(0 0.0018731 0)
(0 0.00190632 0)
(0 0.00186622 0)
(0 0.00189959 0)
(0 0.00185544 0)
(0 0.00188883 0)
(0 0.00184096 0)
(0 0.00187313 0)
(0 0.00182438 0)
(0 0.0018569 0)
(0 0.00180633 0)
(0 0.00176914 0)
(0 0.00184148 0)
(0 0.00178782 0)
(0 0.00182443 0)
(0 0.00176788 0)
(0 0.00180645 0)
(0 0.00174844 0)
(0 0.0017875 0)
(0 0.00172838 0)
(0 0.00176661 0)
(0 0.00170811 0)
(0 0.00174488 0)
(0 0.00167664 0)
(0 0.00172667 0)
(0 0.0016646 0)
(0 0.00171051 0)
(0 0.00164535 0)
(0 0.00169325 0)
(0 0.0016255 0)
(0 0.00167804 0)
(0 0.00160824 0)
(0 0.00182446 0)
(0 0.00166561 0)
(0 0.00159442 0)
(0 0.00173371 0)
(0 0.00165083 0)
(0 0.00158282 0)
(0 0.0016602 0)
(0 0.0016408 0)
(0 0.00157457 0)
(0 0.0016373 0)
(0 0.00157007 0)
(0 0.00163359 0)
(0 0.00156874 0)
(0 0.00163404 0)
(0 0.00157076 0)
(0 0.0016384 0)
(0 0.00157711 0)
(0 0.0016956 0)
(0 0.00164557 0)
(0 0.0015879 0)
(0 0.00165928 0)
(0 0.00160378 0)
(0 0.00191651 0)
(0 0.00167792 0)
(0 0.00162322 0)
(0 0.00169827 0)
(0 0.00164736 0)
(0 0.00172402 0)
(0 0.00167616 0)
(0 0.00175354 0)
(0 0.0017088 0)
(0 0.00179865 0)
(0 0.00178597 0)
(0 0.00174406 0)
(0 0.00166444 0)
(0 0.00170262 0)
(0 0.00162097 0)
(0 0.00166152 0)
(0 0.00174163 0)
(0 0.00170427 0)
(0 0.00162237 0)
(0 0.00166871 0)
(0 0.00174859 0)
(0 0.00171662 0)
(0 0.00163482 0)
(0 0.00168639 0)
(0 0.00176756 0)
(0 0.00174132 0)
(0 0.00182253 0)
(0 0.0017992 0)
(0 0.00171623 0)
(0 0.0017768 0)
(0 0.00169233 0)
(0 0.00175642 0)
(0 0.00184006 0)
(0 0.00182271 0)
(0 0.00173799 0)
(0 0.00180694 0)
(0 0.00172093 0)
(0 0.00179343 0)
(0 0.00187777 0)
(0 0.00186644 0)
(0 0.00178169 0)
(0 0.00185581 0)
(0 0.00177114 0)
(0 0.00184774 0)
(0 0.00176243 0)
(0 0.00184218 0)
(0 0.00175502 0)
(0 0.00183154 0)
(0 0.00174716 0)
(0 0.00182459 0)
(0 0.00174232 0)
(0 0.00182637 0)
(0 0.00174248 0)
(0 0.00182754 0)
(0 0.00174412 0)
(0 0.00183167 0)
(0 0.00174779 0)
(0 0.00183749 0)
(0 0.00175348 0)
(0 0.00184518 0)
(0 0.00176202 0)
(0 0.00185522 0)
(0 0.00177366 0)
(0 0.00187103 0)
(0 0.00178838 0)
(0 0.0018917 0)
(0 0.00180677 0)
(0 0.00191264 0)
(0 0.00182874 0)
(0 0.00193743 0)
(0 0.00185426 0)
(0 0.00196937 0)
(0 0.00191323 0)
(0 0.00194904 0)
(0 0.00166808 0)
(0 0.00166163 0)
(0 0.00155155 0)
(0 0.00171984 0)
(0 0.00151272 0)
(0 0.00161039 0)
(0 0.00176525 0)
(0 0.00176177 0)
(0 0.00173763 0)
(0 0.0017313 0)
(0 0.00149579 0)
(0 0.0019438 0)
(0 0.00287597 0)
(0 0.00280492 0)
(0 0.00278962 0)
(0 0.00293358 0)
(0 0.00271501 0)
(0 0.00270292 0)
(0 0.00262674 0)
(0 0.00261698 0)
(0 0.00254026 0)
(0 0.00253477 0)
(0 0.00260293 0)
(0 0.0025304 0)
(0 0.00259016 0)
(0 0.00252761 0)
(0 0.00258034 0)
(0 0.00252424 0)
(0 0.00246784 0)
(0 0.00246425 0)
(0 0.00251481 0)
(0 0.0024549 0)
(0 0.00239904 0)
(0 0.00239062 0)
(0 0.00243778 0)
(0 0.00237836 0)
(0 0.00232602 0)
(0 0.00232359 0)
(0 0.00226586 0)
(0 0.00227178 0)
(0 0.00232393 0)
(0 0.00227875 0)
(0 0.00222002 0)
(0 0.002229 0)
(0 0.00228159 0)
(0 0.00223466 0)
(0 0.00217257 0)
(0 0.00217643 0)
(0 0.00222834 0)
(0 0.00216972 0)
(0 0.0021078 0)
(0 0.00210152 0)
(0 0.00215516 0)
(0 0.00209041 0)
(0 0.00213977 0)
(0 0.00207991 0)
(0 0.00212658 0)
(0 0.00207388 0)
(0 0.00202094 0)
(0 0.0020201 0)
(0 0.00207208 0)
(0 0.00202212 0)
(0 0.00207274 0)
(0 0.002028 0)
(0 0.00207747 0)
(0 0.00203977 0)
(0 0.00198414 0)
(0 0.00200168 0)
(0 0.00205483 0)
(0 0.00202 0)
(0 0.00206814 0)
(0 0.00203691 0)
(0 0.00207883 0)
(0 0.00205379 0)
(0 0.00201038 0)
(0 0.00203145 0)
(0 0.00207049 0)
(0 0.00205019 0)
(0 0.00200727 0)
(0 0.00202452 0)
(0 0.002064 0)
(0 0.00203489 0)
(0 0.00207172 0)
(0 0.00204179 0)
(0 0.00207652 0)
(0 0.00204874 0)
(0 0.00201041 0)
(0 0.00201774 0)
(0 0.00205536 0)
(0 0.00202206 0)
(0 0.00205843 0)
(0 0.00202033 0)
(0 0.00197992 0)
(0 0.00205605 0)
(0 0.00201137 0)
(0 0.00204603 0)
(0 0.00199604 0)
(0 0.00203004 0)
(0 0.001974 0)
(0 0.00200829 0)
(0 0.00194519 0)
(0 0.00191144 0)
(0 0.00187681 0)
(0 0.00184368 0)
(0 0.00208534 0)
(0 0.00044771 0)
(0 0.000411942 0)
(0 0.000361435 0)
(0 0.000378118 0)
(0 0.000329413 0)
(0 0.000346364 0)
(0 0.000298702 0)
(0 0.000316451 0)
(0 0.000365643 0)
(0 0.000336336 0)
(0 0.000288341 0)
(0 0.000308514 0)
(0 0.000262543 0)
(0 0.000282772 0)
(0 0.000239012 0)
(0 0.000259357 0)
(0 0.000304925 0)
(0 0.000281882 0)
(0 0.000237641 0)
(0 0.000261043 0)
(0 0.000217981 0)
(0 0.000241234 0)
(0 0.000200692 0)
(0 0.000222651 0)
(0 0.000185753 0)
(0 0.000208895 0)
(0 0.000172424 0)
(0 0.000196984 0)
(0 0.000161563 0)
(0 0.00018661 0)
(0 0.000153515 0)
(0 0.000179716 0)
(0 0.00014692 0)
(0 0.000174671 0)
(0 0.000142235 0)
(0 0.0001714 0)
(0 0.000139329 0)
(0 0.000169866 0)
(0 0.000138597 0)
(0 0.000170924 0)
(0 0.000140221 0)
(0 0.000173857 0)
(0 0.000144188 0)
(0 0.00017866 0)
(0 0.000150371 0)
(0 0.000186383 0)
(0 0.000158837 0)
(0 0.000196468 0)
(0 0.000170145 0)
(0 0.0002085 0)
(0 0.000182984 0)
(0 0.000223088 0)
(0 0.000197762 0)
(0 0.000239269 0)
(0 0.000215955 0)
(0 0.000258462 0)
(0 0.000236397 0)
(0 0.000281505 0)
(0 0.0002589 0)
(0 0.000267825 0)
(0 0.000203094 0)
(0 0.000215086 0)
(0 0.00023756 0)
(0 0.000195248 0)
(0 0.000217839 0)
(0 0.000262176 0)
(0 0.000242406 0)
(0 0.000199721 0)
(0 0.000224333 0)
(0 0.000182927 0)
(0 0.000208035 0)
(0 0.000250812 0)
(0 0.000235488 0)
(0 0.000195719 0)
(0 0.000222 0)
(0 0.000237364 0)
(0 0.000264637 0)
(0 0.000250448 0)
(0 0.00020829 0)
(0 0.000237377 0)
(0 0.000195831 0)
(0 0.00022572 0)
(0 0.000185849 0)
(0 0.000214566 0)
(0 0.000177039 0)
(0 0.00020578 0)
(0 0.000170117 0)
(0 0.000204463 0)
(0 0.00016569 0)
(0 0.000191903 0)
(0 0.00015991 0)
(0 0.00018546 0)
(0 0.000154021 0)
(0 0.000182052 0)
(0 0.000151444 0)
(0 0.000182225 0)
(0 0.00015053 0)
(0 0.000183514 0)
(0 0.000151333 0)
(0 0.000185332 0)
(0 0.000153839 0)
(0 0.000189223 0)
(0 0.000158174 0)
(0 0.000195306 0)
(0 0.000164528 0)
(0 0.000202665 0)
(0 0.000173021 0)
(0 0.000213091 0)
(0 0.000183988 0)
(0 0.00022858 0)
(0 0.000197533 0)
(0 0.000244347 0)
(0 0.000212974 0)
(0 0.000260579 0)
(0 0.000230976 0)
(0 0.000281202 0)
(0 0.00025214 0)
(0 0.00030599 0)
(0 0.000278328 0)
(0 0.000334398 0)
(0 0.000308481 0)
(0 0.000367364 0)
(0 0.000341056 0)
(0 0.000404079 0)
(0 0.000377085 0)
(0 0.000444579 0)
(0 0.000417269 0)
(0 0.000351326 0)
(0 0.000391918 0)
(0 0.000327884 0)
(0 0.000369396 0)
(0 0.000306734 0)
(0 0.000415322 0)
(0 0.000216339 0)
(0 0.000234427 0)
(0 0.000329618 0)
(0 0.000163628 0)
(0 0.000149653 0)
(0 0.000269411 0)
(0 0.000310055 0)
(0 0.000131875 0)
(0 0.000202827 0)
(0 0.00043211 0)
(0 0.000216046 0)
(0 0.000125103 0)
(0 0.000122351 0)
(0 0.000110186 0)
(0 0.000144967 0)
(0 0.000121566 0)
(0 0.00197679 0)
(0 0.00180326 0)
(0 0.00177063 0)
(0 0.00172477 0)
(0 0.00169178 0)
(0 0.00178754 0)
(0 0.00152597 0)
(0 0.00161443 0)
(0 0.00182058 0)
(0 0.001526 0)
(0 0.00161588 0)
(0 0.00152256 0)
(0 0.00163674 0)
(0 0.00160387 0)
(0 0.00165586 0)
(0 0.00155235 0)
(0 0.00161379 0)
(0 0.00151213 0)
(0 0.00155973 0)
(0 0.00145802 0)
(0 0.00149462 0)
(0 0.00139011 0)
(0 0.0014156 0)
(0 0.00130288 0)
(0 0.00132272 0)
(0 0.00121213 0)
(0 0.00167272 0)
(0 0.00245639 0)
(0 0.00245232 0)
(0 0.00236069 0)
(0 0.00234623 0)
(0 0.00210626 0)
(0 0.00203377 0)
(0 0.00210255 0)
(0 0.00204701 0)
(0 0.00217673 0)
(0 0.00224276 0)
(0 0.00200392 0)
(0 0.00206161 0)
(0 0.00196281 0)
(0 0.000465044 0)
(0 0.00194201 0)
(0 0.00197697 0)
(0 0.00192939 0)
(0 0.00221759 0)
(0 0.00187814 0)
(0 0.00176971 0)
(0 0.00170491 0)
(0 0.00192538 0)
(0 0.00172878 0)
(0 -3.48843e-05 0)
(0 -4.35195e-05 0)
(0 -3.25392e-05 0)
(0 -4.1587e-05 0)
(0 -3.038e-05 0)
(0 -3.93119e-05 0)
(0 0.00122798 0)
(0 0.00133385 0)
(0 0.000221224 0)
(0 0.00153064 0)
(0 0.00202579 0)
(0 0.00207548 0)
(0 0.00111581 0)
(0 -4.953e-05 0)
(0 -4.69454e-05 0)
(0 0.00167455 0)
(0 0.00123159 0)
(0 0.00133619 0)
(0 0.00210523 0)
(0 0.00204068 0)
(0 0.00208475 0)
(0 0.00141125 0)
(0 0.00206817 0)
(0 -3.62045e-05 0)
(0 -4.37148e-05 0)
(0 -5.33106e-05 0)
(0 -5.00892e-05 0)
(0 0.000220215 0)
(0 0.0020484 0)
(0 0.00200069 0)
(0 0.00209119 0)
(0 0.00211965 0)
(0 0.00118159 0)
(0 0.00122126 0)
(0 0.00132498 0)
(0 0.00205561 0)
(0 -5.855e-05 0)
(0 -5.52814e-05 0)
(0 -4.65533e-05 0)
(0 -5.13185e-05 0)
(0 -5.93432e-05 0)
(0 -5.49833e-05 0)
(0 -6.23644e-05 0)
(0 -5.80298e-05 0)
(0 -6.45267e-05 0)
(0 -6.01484e-05 0)
(0 -6.61474e-05 0)
(0 -6.17033e-05 0)
(0 -6.72765e-05 0)
(0 -6.27115e-05 0)
(0 -6.79628e-05 0)
(0 -6.34163e-05 0)
(0 -6.906e-05 0)
(0 -6.37743e-05 0)
(0 -6.84469e-05 0)
(0 -6.34798e-05 0)
(0 -6.78798e-05 0)
(0 -6.27552e-05 0)
(0 -6.7083e-05 0)
(0 -6.18223e-05 0)
(0 -6.60928e-05 0)
(0 -6.0736e-05 0)
(0 -6.50443e-05 0)
(0 -5.94095e-05 0)
(0 -6.35602e-05 0)
(0 -5.78507e-05 0)
(0 -6.19564e-05 0)
(0 -5.62904e-05 0)
(0 -6.05512e-05 0)
(0 -5.4284e-05 0)
(0 -5.89541e-05 0)
(0 -5.1664e-05 0)
(0 -5.67349e-05 0)
(0 -5.11097e-05 0)
(0 -4.88117e-05 0)
(0 -5.40957e-05 0)
(0 -4.56355e-05 0)
(0 -5.12561e-05 0)
(0 -5.78501e-05 0)
(0 -3.94858e-05 0)
(0 -5.88483e-05 0)
(0 -5.62694e-05 0)
(0 -4.81031e-05 0)
(0 -5.33572e-05 0)
(0 -4.45821e-05 0)
(0 -5.00925e-05 0)
(0 -5.79877e-05 0)
(0 -5.49837e-05 0)
(0 -4.6419e-05 0)
(0 -5.15817e-05 0)
(0 -6.20584e-05 0)
(0 -4.22546e-05 0)
(0 -4.76907e-05 0)
(0 -6.5197e-05 0)
(0 -5.66313e-05 0)
(0 -5.48783e-05 0)
(0 -4.55338e-05 0)
(0 -3.74802e-05 0)
(0 -4.32689e-05 0)
(0 -5.27134e-05 0)
(0 -4.84984e-05 0)
(0 -5.70174e-05 0)
(0 -5.30329e-05 0)
(0 -3.11545e-05 0)
(0 -6.05933e-05 0)
(0 -5.6953e-05 0)
(0 -4.85213e-05 0)
(0 -5.26056e-05 0)
(0 -4.31e-05 0)
(0 -4.74733e-05 0)
(0 -5.6312e-05 0)
(0 -5.13465e-05 0)
(0 -6.88108e-05 0)
(0 -5.92788e-05 0)
(0 -5.45119e-05 0)
(0 -4.55017e-05 0)
(0 -4.90395e-05 0)
(0 -5.73428e-05 0)
(0 -5.16897e-05 0)
(0 -5.96141e-05 0)
(0 -5.33334e-05 0)
(0 -6.10397e-05 0)
(0 -5.43844e-05 0)
(0 -6.17633e-05 0)
(0 -5.47326e-05 0)
(0 -6.1756e-05 0)
(0 -5.43283e-05 0)
(0 -6.11214e-05 0)
(0 -5.30491e-05 0)
(0 -5.96082e-05 0)
(0 -5.08717e-05 0)
(0 -5.72053e-05 0)
(0 -4.78695e-05 0)
(0 -5.40953e-05 0)
(0 -4.40048e-05 0)
(0 -5.06026e-05 0)
(0 -3.90441e-05 0)
(0 -4.0551e-05 0)
(0 -2.56501e-05 0)
(0 -4.58469e-05 0)
(0 -4.40438e-05 0)
(0 0.00219218 0)
(0 0.00202346 0)
(0 0.00215127 0)
(0 0.00209542 0)
(0 0.00206149 0)
(0 0.00156719 0)
(0 0.00191849 0)
(0 0.00195258 0)
(0 0.00200133 0)
(0 -2.53459e-05 0)
(0 -1.80231e-05 0)
(0 0.00120409 0)
(0 0.00129762 0)
(0 -7.18214e-05 0)
(0 0.00211468 0)
(0 0.000387141 0)
(0 0.00183548 0)
(0 0.0019656 0)
(0 0.0011039 0)
(0 0.000489238 0)
(0 0.000268103 0)
(0 0.00141123 0)
(0 0.00141882 0)
(0 0.00151931 0)
(0 0.00141198 0)
(0 0.00116915 0)
(0 0.00125494 0)
(0 0.00138295 0)
(0 0.00133926 0)
(0 0.00120307 0)
(0 0.00128801 0)
(0 0.00184481 0)
(0 0.00190556 0)
(0 0.001509 0)
(0 0.0013989 0)
(0 0.0014928 0)
(0 0.00137986 0)
(0 -6.82776e-05 0)
(0 0.00209664 0)
(0 0.00206608 0)
(0 -6.61e-05 0)
(0 -1.10353e-05 0)
(0 -2.65112e-06 0)
(0 0.00174178 0)
(0 0.00180517 0)
(0 0.00146669 0)
(0 0.00114519 0)
(0 0.00122807 0)
(0 -7.15375e-05 0)
(0 0.00101853 0)
(0 0.0010683 0)
(0 0.00096918 0)
(0 0.00102135 0)
(0 0.000923794 0)
(0 0.000976846 0)
(0 0.000880669 0)
(0 0.000939741 0)
(0 0.000842199 0)
(0 0.000904363 0)
(0 0.000810795 0)
(0 0.0008824 0)
(0 0.000782844 0)
(0 0.000842505 0)
(0 0.000756661 0)
(0 0.000819667 0)
(0 0.000735844 0)
(0 0.000800188 0)
(0 0.0007191 0)
(0 0.000785029 0)
(0 0.000707307 0)
(0 0.000773753 0)
(0 0.000699094 0)
(0 0.000765713 0)
(0 0.000693261 0)
(0 0.000760559 0)
(0 0.000835261 0)
(0 0.000830612 0)
(0 0.000757802 0)
(0 0.000829367 0)
(0 0.000757273 0)
(0 0.00083059 0)
(0 0.000759319 0)
(0 0.000835251 0)
(0 0.000764625 0)
(0 0.000840951 0)
(0 0.000772128 0)
(0 0.000846219 0)
(0 0.00078132 0)
(0 0.000854796 0)
(0 0.000793177 0)
(0 0.000867683 0)
(0 0.00080935 0)
(0 0.000880147 0)
(0 0.000827137 0)
(0 0.000900352 0)
(0 0.000846801 0)
(0 0.000935057 0)
(0 0.00086146 0)
(0 0.000941453 0)
(0 0.000879141 0)
(0 0.000961665 0)
(0 0.000904516 0)
(0 0.000986287 0)
(0 0.00093297 0)
(0 0.000925443 0)
(0 0.00084868 0)
(0 0.000880395 0)
(0 0.000972116 0)
(0 0.000912183 0)
(0 0.000834084 0)
(0 0.000867096 0)
(0 0.000941978 0)
(0 0.000899995 0)
(0 0.000818528 0)
(0 0.000859443 0)
(0 0.000937536 0)
(0 0.000895546 0)
(0 0.000811919 0)
(0 0.000856025 0)
(0 0.000781515 0)
(0 0.00082102 0)
(0 0.000746841 0)
(0 0.000790552 0)
(0 0.000717795 0)
(0 0.000766451 0)
(0 0.000694286 0)
(0 0.000745909 0)
(0 0.000675171 0)
(0 0.000728817 0)
(0 0.000659868 0)
(0 0.000714943 0)
(0 0.000648166 0)
(0 0.000704798 0)
(0 0.000772415 0)
(0 0.000763699 0)
(0 0.000698147 0)
(0 0.000758083 0)
(0 0.00069441 0)
(0 0.000755927 0)
(0 0.000694137 0)
(0 0.000758662 0)
(0 0.000820972 0)
(0 0.000896861 0)
(0 0.00069781 0)
(0 0.00076519 0)
(0 0.000705142 0)
(0 0.00077417 0)
(0 0.000715641 0)
(0 0.00078838 0)
(0 0.000728547 0)
(0 0.000803764 0)
(0 0.000743534 0)
(0 0.000817678 0)
(0 0.000760615 0)
(0 0.000835114 0)
(0 0.000784091 0)
(0 0.000868505 0)
(0 0.000811237 0)
(0 0.000886164 0)
(0 0.000830275 0)
(0 0.00091432 0)
(0 0.000871706 0)
(0 0.00094623 0)
(0 0.000960537 0)
(0 0.000825081 0)
(0 0.000851631 0)
(0 0.000890669 0)
(0 0.000907498 0)
(0 0.000902788 0)
(0 0.000997424 0)
(0 0.000902085 0)
(0 0.000978621 0)
(0 0.000790396 0)
(0 0.000910425 0)
(0 0.00101496 0)
(0 0.000632183 0)
(0 0.00113089 0)
(0 0.000934627 0)
(0 0.00101258 0)
(0 0.00105756 0)
(0 0.00109152 0)
(0 0.00113712 0)
(0 0.00116998 0)
(0 0.00112605 0)
(0 0.00120401 0)
(0 0.0011603 0)
(0 0.00123794 0)
(0 0.00119413 0)
(0 0.00127139 0)
(0 0.000733314 0)
(0 0.000659807 0)
(0 0.000688118 0)
(0 0.00122777 0)
(0 0.00130563 0)
(0 0.00128312 0)
(0 0.000704011 0)
(0 0.000625249 0)
(0 0.000722002 0)
(0 0.00065577 0)
(0 0.00062919 0)
(0 0.000835424 0)
(0 -6.70981e-05 0)
(0 0.00125967 0)
(0 0.00133609 0)
(0 0.00082722 0)
(0 0.00128849 0)
(0 0.00136288 0)
(0 0.000734907 0)
(0 0.00167281 0)
(0 0.00159402 0)
(0 0.00130846 0)
(0 0.00163543 0)
(0 0.00170177 0)
(0 0.00131537 0)
(0 0.00139008 0)
(0 0.00147558 0)
(0 0.00136091 0)
(0 0.00263955 0)
(0 0.00202286 0)
(0 0.00203148 0)
(0 0.00107972 0)
(0 0.00116011 0)
(0 0.00130674 0)
(0 0.00124115 0)
(0 0.00138402 0)
(0 0.00132172 0)
(0 0.00117817 0)
(0 0.00126184 0)
(0 0.00139986 0)
(0 0.00134484 0)
(0 0.00120453 0)
(0 0.00129249 0)
(0 0.00114912 0)
(0 0.00124111 0)
(0 0.00143445 0)
(0 0.00146058 0)
(0 0.00125779 0)
(0 0.00124027 0)
(0 0.00137994 0)
(0 0.00133518 0)
(0 0.00118965 0)
(0 0.0012938 0)
(0 0.001213 0)
(0 5.52089e-06 0)
(0 0.00209221 0)
(0 0.00211317 0)
(0 0.000968461 0)
(0 0.00113788 0)
(0 0.00124781 0)
(0 0.00141235 0)
(0 0.00135149 0)
(0 0.000995837 0)
(0 0.00100347 0)
(0 0.00141926 0)
(0 0.00148733 0)
(0 1.4946e-05 0)
(0 6.20853e-06 0)
(0 2.50117e-05 0)
(0 1.54519e-05 0)
(0 0.00119335 0)
(0 0.001301 0)
(0 3.61713e-05 0)
(0 2.62336e-05 0)
(0 0.00209983 0)
(0 0.00211344 0)
(0 0.00152045 0)
(0 0.00159377 0)
(0 0.0017797 0)
(0 0.00165736 0)
(0 0.00148028 0)
(0 0.00154654 0)
(0 0.0017061 0)
(0 0.00159716 0)
(0 0.00111379 0)
(0 0.00144273 0)
(0 0.0014018 0)
(0 0.00124665 0)
(0 0.00135924 0)
(0 -6.39432e-05 0)
(0 -6.67169e-05 0)
(0 -6.92452e-05 0)
(0 -7.15639e-05 0)
(0 -7.33093e-05 0)
(0 -7.52197e-05 0)
(0 -7.64453e-05 0)
(0 -7.78927e-05 0)
(0 -7.87625e-05 0)
(0 -7.68475e-05 0)
(0 -7.75259e-05 0)
(0 -7.94655e-05 0)
(0 -7.84409e-05 0)
(0 -8.00337e-05 0)
(0 -7.90557e-05 0)
(0 0.00112706 0)
(0 0.00111561 0)
(0 0.00122866 0)
(0 0.00110828 0)
(0 0.00198079 0)
(0 0.001992 0)
(0 0.00140815 0)
(0 2.44641e-05 0)
(0 1.4549e-05 0)
(0 -8.05076e-05 0)
(0 -7.95851e-05 0)
(0 -8.08764e-05 0)
(0 -8.01004e-05 0)
(0 0.00144903 0)
(0 0.00151508 0)
(0 0.00150193 0)
(0 0.00119112 0)
(0 0.000925917 0)
(0 0.00174999 0)
(0 0.00147816 0)
(0 0.00154178 0)
(0 0.00157848 0)
(0 0.00160306 0)
(0 0.00156525 0)
(0 0.00162374 0)
(0 0.00158565 0)
(0 0.00164195 0)
(0 -8.11866e-05 0)
(0 -8.05136e-05 0)
(0 -7.91449e-05 0)
(0 -7.96707e-05 0)
(0 -8.08709e-05 0)
(0 -8.01175e-05 0)
(0 -8.1176e-05 0)
(0 -8.05101e-05 0)
(0 -7.9168e-05 0)
(0 -7.9663e-05 0)
(0 -8.08579e-05 0)
(0 -8.01069e-05 0)
(0 -7.7598e-05 0)
(0 0.00121127 0)
(0 -8.11483e-05 0)
(0 -8.04768e-05 0)
(0 -8.13781e-05 0)
(0 -8.0811e-05 0)
(0 -7.90781e-05 0)
(0 -7.82132e-05 0)
(0 0.00121926 0)
(0 0.00110079 0)
(0 0.000777764 0)
(0 4.85149e-05 0)
(0 3.8608e-05 0)
(0 0.0016457 0)
(0 -7.79678e-05 0)
(0 0.00209421 0)
(0 0.00210251 0)
(0 0.00208166 0)
(0 0.00212338 0)
(0 0.00210787 0)
(0 0.00212863 0)
(0 0.00210916 0)
(0 0.00213023 0)
(0 0.00210683 0)
(0 0.00212746 0)
(0 0.00210156 0)
(0 0.00212102 0)
(0 0.00209323 0)
(0 0.00211283 0)
(0 0.00208418 0)
(0 0.00210449 0)
(0 0.00207447 0)
(0 0.00209716 0)
(0 0.0020659 0)
(0 0.00209151 0)
(0 0.00206074 0)
(0 0.0020873 0)
(0 0.00205861 0)
(0 0.00208564 0)
(0 0.00205955 0)
(0 0.00208701 0)
(0 0.00206226 0)
(0 0.00211522 0)
(0 0.00209039 0)
(0 0.00206681 0)
(0 0.002134 0)
(0 0.00209497 0)
(0 0.00207137 0)
(0 0.00210069 0)
(0 0.0020777 0)
(0 0.00210761 0)
(0 0.00208603 0)
(0 0.00211399 0)
(0 0.00211653 0)
(0 0.00209666 0)
(0 0.00206078 0)
(0 0.00207535 0)
(0 0.00211024 0)
(0 0.00209333 0)
(0 0.00212679 0)
(0 0.00211405 0)
(0 0.00214543 0)
(0 0.00213674 0)
(0 0.0021653 0)
(0 0.00215925 0)
(0 0.00203651 0)
(0 0.00218595 0)
(0 0.00218242 0)
(0 0.00214906 0)
(0 0.0021772 0)
(0 0.00220688 0)
(0 0.00220607 0)
(0 0.00223312 0)
(0 0.00223465 0)
(0 0.00220102 0)
(0 0.00223223 0)
(0 0.00219345 0)
(0 0.00222801 0)
(0 0.00226319 0)
(0 0.00226232 0)
(0 0.00222148 0)
(0 0.00225915 0)
(0 0.00229641 0)
(0 0.00229762 0)
(0 0.00225474 0)
(0 0.0022985 0)
(0 0.00225033 0)
(0 0.00230085 0)
(0 0.00234521 0)
(0 0.00235545 0)
(0 0.00230556 0)
(0 0.00236876 0)
(0 0.00241263 0)
(0 0.00243182 0)
(0 0.00238477 0)
(0 0.00245108 0)
(0 0.00240141 0)
(0 0.00247176 0)
(0 0.00251668 0)
(0 0.0025399 0)
(0 0.00249191 0)
(0 0.00256076 0)
(0 0.00251053 0)
(0 0.00258072 0)
(0 0.00252717 0)
(0 0.00262702 0)
(0 0.00260114 0)
(0 0.00254441 0)
(0 0.0026238 0)
(0 0.00256528 0)
(0 0.00264834 0)
(0 0.00258745 0)
(0 0.00270164 0)
(0 0.00267193 0)
(0 0.00260893 0)
(0 0.00251858 0)
(0 0.00254134 0)
(0 0.00264471 0)
(0 0.00256578 0)
(0 0.00245537 0)
(0 0.002468 0)
(0 0.00249215 0)
(0 0.00259051 0)
(0 0.00251851 0)
(0 0.00261575 0)
(0 0.00254868 0)
(0 0.00207112 0)
(0 0.00202525 0)
(0 0.00240416 0)
(0 0.00204533 0)
(0 0.00158514 0)
(0 0.00157136 0)
(0 0.000991773 0)
(0 0.00100259 0)
(0 0.00149804 0)
(0 -7.9609e-05 0)
(0 -8.00356e-05 0)
(0 -8.11187e-05 0)
(0 -8.04233e-05 0)
(0 -8.13733e-05 0)
(0 -8.07565e-05 0)
(0 -8.15891e-05 0)
(0 -8.10348e-05 0)
(0 -7.94747e-05 0)
(0 0.000839827 0)
(0 0.00160254 0)
(0 0.00169672 0)
(0 -6.44283e-05 0)
(0 -8.04474e-05 0)
(0 0.00165593 0)
(0 0.00179918 0)
(0 -8.16612e-05 0)
(0 0.000196554 0)
(0 -8.12355e-05 0)
(0 0.00215248 0)
(0 -7.07602e-05 0)
(0 0.000174797 0)
(0 0.000133949 0)
(0 -8.00533e-05 0)
(0 -7.9332e-05 0)
(0 0.00168547 0)
(0 0.00170851 0)
(0 0.000111184 0)
(0 0.000117694 0)
(0 0.00159864 0)
(0 -3.20883e-05 0)
(0 0.000155923 0)
(0 0.000122134 0)
(0 -6.76376e-05 0)
(0 0.00210124 0)
(0 0.00152062 0)
(0 0.000159983 0)
(0 0.00193567 0)
(0 0.001498 0)
(0 0.000593848 0)
(0 0.00163111 0)
(0 0.00206556 0)
(0 0.00141109 0)
(0 0.00247923 0)
(0 0.000129361 0)
(0 0.00182081 0)
(0 0.00202805 0)
(0 0.00243682 0)
(0 0.0016549 0)
(0 0.000640546 0)
(0 0.00232995 0)
(0 0.00160488 0)
(0 0.00154336 0)
(0 0.00151558 0)
(0 0.00145447 0)
(0 0.00142527 0)
(0 0.00136432 0)
(0 0.00139699 0)
(0 0.00188095 0)
(0 0.00190244 0)
(0 0.00196141 0)
(0 0.00198082 0)
(0 0.00220283 0)
(0 0.00215803 0)
(0 3.50004e-05 0)
(0 2.4876e-05 0)
(0 0.00167496 0)
(0 -3.68693e-05 0)
(0 0.00030642 0)
(0 0.000329873 0)
(0 0.000357632 0)
(0 0.00038217 0)
(0 0.000413217 0)
(0 0.000439658 0)
(0 0.000472498 0)
(0 0.000446449 0)
(0 0.000507685 0)
(0 0.000482186 0)
(0 0.000500768 0)
(0 0.000468856 0)
(0 0.00016961 0)
(0 0.000686895 0)
(0 0.00143774 0)
(0 0.00207852 0)
(0 0.00192089 0)
(0 0.0017668 0)
(0 0.000287135 0)
(0 0.00233119 0)
(0 0.00207063 0)
(0 0.00183853 0)
(0 0.00214295 0)
(0 0.000701343 0)
(0 0.00225868 0)
(0 0.00213186 0)
(0 0.00262142 0)
(0 0.00267565 0)
(0 0.00264832 0)
(0 0.00269843 0)
(0 0.0020593 0)
(0 0.00025693 0)
(0 0.00208604 0)
(0 0.00247159 0)
(0 0.000296332 0)
(0 0.00258163 0)
(0 0.00195986 0)
(0 0.00080569 0)
(0 0.000876019 0)
(0 0.000831774 0)
(0 0.00203327 0)
(0 -8.17739e-05 0)
(0 -8.12757e-05 0)
(0 -8.02855e-05 0)
(0 -8.05919e-05 0)
(0 -8.15045e-05 0)
(0 -8.0867e-05 0)
(0 -7.79325e-05 0)
(0 -7.97424e-05 0)
(0 6.21111e-05 0)
(0 5.17528e-05 0)
(0 2.92077e-05 0)
(0 4.2163e-05 0)
(0 2.06799e-05 0)
(0 3.35505e-05 0)
(0 1.27243e-05 0)
(0 2.5717e-05 0)
(0 4.11877e-06 0)
(0 1.92751e-05 0)
(0 4.02247e-05 0)
(0 3.39374e-05 0)
(0 1.42702e-05 0)
(0 2.80572e-05 0)
(0 9.95202e-06 0)
(0 2.23719e-05 0)
(0 6.16781e-06 0)
(0 1.83988e-05 0)
(0 2.62629e-06 0)
(0 1.62269e-05 0)
(0 4.73475e-07 0)
(0 1.40169e-05 0)
(0 -1.19321e-06 0)
(0 1.24069e-05 0)
(0 -2.45436e-06 0)
(0 1.24555e-05 0)
(0 -2.15828e-06 0)
(0 4.11783e-05 0)
(0 1.34572e-05 0)
(0 -8.0999e-07 0)
(0 1.56846e-05 0)
(0 1.37525e-06 0)
(0 0.00193299 0)
(0 0.00121291 0)
(0 0.0010954 0)
(0 0.000979737 0)
(0 0.000975878 0)
(0 0.0010898 0)
(0 0.000968328 0)
(0 0.00107813 0)
(0 0.000953048 0)
(0 0.00105919 0)
(0 0.00093042 0)
(0 0.00132882 0)
(0 0.00211172 0)
(0 0.00190586 0)
(0 0.00147605 0)
(0 0.00152899 0)
(0 0.00159327 0)
(0 0.00164345 0)
(0 0.00169533 0)
(0 0.00164944 0)
(0 0.00170337 0)
(0 0.0013208 0)
(0 0.00112634 0)
(0 0.00100929 0)
(0 0.000543481 0)
(0 0.00146611 0)
(0 0.000976791 0)
(0 0.000289803 0)
(0 -1.02473e-05 0)
(0 3.07675e-06 0)
(0 6.0858e-06 0)
(0 2.10698e-05 0)
(0 2.47886e-05 0)
(0 4.1597e-05 0)
(0 3.69755e-05 0)
(0 4.61048e-05 0)
(0 6.03194e-05 0)
(0 2.91171e-05 0)
(0 8.09283e-05 0)
(0 0.000103428 0)
(0 5.1334e-05 0)
(0 3.50499e-05 0)
(0 0.000133295 0)
(0 0.00210047 0)
(0 0.00147806 0)
(0 0.00154378 0)
(0 0.00152081 0)
(0 5.59868e-05 0)
(0 0.00197397 0)
(0 0.00226289 0)
(0 0.00183856 0)
(0 -3.92944e-05 0)
(0 0.00241678 0)
(0 0.0024681 0)
(0 0.00203173 0)
(0 0.00103457 0)
(0 0.000974967 0)
(0 0.00087528 0)
(0 0.00101973 0)
(0 0.0010598 0)
(0 0.00110082 0)
(0 0.00114202 0)
(0 0.0010611 0)
(0 -7.84933e-05 0)
(0 0.00268538 0)
(0 0.00222821 0)
(0 -3.55863e-05 0)
(0 0.00244837 0)
(0 0.000311647 0)
(0 0.000346235 0)
(0 0.000362611 0)
(0 0.000399618 0)
(0 0.000416864 0)
(0 0.000383714 0)
(0 0.000439761 0)
(0 0.000424617 0)
(0 0.00053204 0)
(0 0.000500726 0)
(0 0.0023249 0)
(0 0.00235617 0)
(0 0.00234603 0)
(0 0.00110152 0)
(0 0.00118542 0)
(0 0.0011466 0)
(0 0.00123027 0)
(0 0.0011935 0)
(0 0.00127643 0)
(0 0.00124256 0)
(0 0.00122135 0)
(0 0.00115785 0)
(0 0.00121005 0)
(0 0.00214541 0)
(0 -7.80234e-05 0)
(0 0.00103645 0)
(0 0.000903983 0)
(0 0.00100962 0)
(0 0.000873104 0)
(0 6.96566e-05 0)
(0 0.00210887 0)
(0 0.00195859 0)
(0 0.000865335 0)
(0 0.00144 0)
(0 0.0013146 0)
(0 0.00112566 0)
(0 0.00118015 0)
(0 0.00109808 0)
(0 0.00115516 0)
(0 0.00107653 0)
(0 0.00114415 0)
(0 0.00123083 0)
(0 5.70767e-05 0)
(0 8.6616e-05 0)
(0 7.42847e-05 0)
(0 0.000107023 0)
(0 9.36553e-05 0)
(0 6.25442e-05 0)
(0 8.23558e-05 0)
(0 5.25806e-05 0)
(0 7.33009e-05 0)
(0 4.45393e-05 0)
(0 6.52895e-05 0)
(0 3.9116e-05 0)
(0 5.81284e-05 0)
(0 3.42729e-05 0)
(0 -8.1856e-05 0)
(0 0.000241258 0)
(0 0.00218576 0)
(0 0.00121299 0)
(0 0.00118363 0)
(0 0.00126056 0)
(0 0.00123285 0)
(0 0.00131256 0)
(0 0.00128469 0)
(0 0.00190999 0)
(0 0.000942554 0)
(0 0.00104385 0)
(0 0.00163863 0)
(0 -3.84204e-05 0)
(0 0.000518563 0)
(0 0.000208371 0)
(0 -7.51418e-05 0)
(0 0.000766793 0)
(0 0.000821388 0)
(0 1.93445e-05 0)
(0 5.10776e-06 0)
(0 0.00036309 0)
(0 -7.95726e-05 0)
(0 -7.63431e-05 0)
(0 0.000237828 0)
(0 0.000208964 0)
(0 0.00173227 0)
(0 0.000255259 0)
(0 -8.16885e-05 0)
(0 -8.10992e-05 0)
(0 0.00122041 0)
(0 0.00134125 0)
(0 3.29803e-05 0)
(0 0.000220825 0)
(0 0.000838227 0)
(0 2.68228e-05 0)
(0 -7.7403e-05 0)
(0 -5.41934e-05 0)
(0 0.000810586 0)
(0 -4.67954e-05 0)
(0 0.00195449 0)
(0 0.00194341 0)
(0 0.00207829 0)
(0 0.00167973 0)
(0 0.0027326 0)
(0 0.00275004 0)
(0 0.00194872 0)
(0 0.00199723 0)
(0 0.00195343 0)
(0 0.0019947 0)
(0 0.00204117 0)
(0 0.00136449 0)
(0 0.00133766 0)
(0 0.00125689 0)
(0 0.0013114 0)
(0 0.00123059 0)
(0 0.00128756 0)
(0 0.0012069 0)
(0 0.00126592 0)
(0 0.00118557 0)
(0 0.00124699 0)
(0 0.00116725 0)
(0 0.00123146 0)
(0 0.00115175 0)
(0 0.00121946 0)
(0 0.00113944 0)
(0 0.00120987 0)
(0 0.00113 0)
(0 0.00120163 0)
(0 0.00112315 0)
(0 0.00119835 0)
(0 0.00186173 0)
(0 -7.71831e-05 0)
(0 -7.83831e-05 0)
(0 -8.16841e-05 0)
(0 5.78014e-05 0)
(0 4.23574e-05 0)
(0 -7.93027e-05 0)
(0 0.00128813 0)
(0 0.000546011 0)
(0 0.000521356 0)
(0 0.00097523 0)
(0 0.000838129 0)
(0 0.000857057 0)
(0 0.000866477 0)
(0 -3.181e-05 0)
(0 -2.45462e-05 0)
(0 0.00250386 0)
(0 0.000572799 0)
(0 -8.26365e-05 0)
(0 -1.55939e-05 0)
(0 0.00168422 0)
(0 0.00153743 0)
(0 0.00112142 0)
(0 0.00120424 0)
(0 0.00219715 0)
(0 0.00106876 0)
(0 0.0011279 0)
(0 0.00131016 0)
(0 -1.42274e-05 0)
(0 0.00194145 0)
(0 0.000567595 0)
(0 0.000599595 0)
(0 5.25488e-05 0)
(0 2.95832e-05 0)
(0 4.60881e-05 0)
(0 0.00186804 0)
(0 -8.02502e-05 0)
(0 -7.94254e-05 0)
(0 -7.71252e-05 0)
(0 -7.827e-05 0)
(0 -8.02446e-05 0)
(0 -7.91671e-05 0)
(0 0.00108864 0)
(0 0.00076378 0)
(0 0.00218893 0)
(0 0.000679229 0)
(0 0.000752387 0)
(0 -1.25267e-05 0)
(0 2.42759e-05 0)
(0 1.0736e-05 0)
(0 4.87127e-05 0)
(0 2.787e-05 0)
(0 7.6977e-05 0)
(0 0.000934132 0)
(0 0.000796236 0)
(0 0.000880465 0)
(0 0.000746058 0)
(0 0.000816139 0)
(0 0.000687635 0)
(0 0.000743452 0)
(0 0.000621105 0)
(0 0.000662349 0)
(0 0.000546782 0)
(0 0.00057491 0)
(0 0.000468694 0)
(0 0.000487071 0)
(0 0.000592238 0)
(0 0.000394539 0)
(0 0.000494743 0)
(0 0.000601847 0)
(0 0.000493578 0)
(0 0.000602298 0)
(0 0.000369448 0)
(0 0.000499656 0)
(0 0.00030809 0)
(0 0.000611159 0)
(0 0.000485519 0)
(0 0.000589338 0)
(0 0.000697199 0)
(0 3.0834e-05 0)
(0 1.77145e-05 0)
(0 0.00247628 0)
(0 0.00132503 0)
(0 -1.62885e-06 0)
(0 -8.17014e-05 0)
(0 8.89545e-05 0)
(0 0.000904596 0)
(0 0.000861033 0)
(0 0.000947914 0)
(0 0.00262565 0)
(0 -7.81415e-05 0)
(0 -7.98668e-05 0)
(0 5.8231e-05 0)
(0 0.00174248 0)
(0 0.00170384 0)
(0 0.00130771 0)
(0 0.000941006 0)
(0 0.00105852 0)
(0 0.000845466 0)
(0 -2.36174e-05 0)
(0 -1.82363e-05 0)
(0 5.6262e-05 0)
(0 0.00279278 0)
(0 0.00280143 0)
(0 0.000403252 0)
(0 0.001587 0)
(0 0.00156405 0)
(0 0.00160847 0)
(0 0.000483491 0)
(0 0.000468896 0)
(0 0.000499603 0)
(0 -8.18332e-05 0)
(0 -8.13009e-05 0)
(0 -8.02834e-05 0)
(0 -8.05304e-05 0)
(0 -8.1483e-05 0)
(0 -8.07414e-05 0)
(0 0.000278566 0)