/*--------------------------------*- C++ -*----------------------------------*\
| =========                 |                                                 |
| \\      /  F ield         | OpenFOAM: The Open Source CFD Toolbox           |
|  \\    /   O peration     | Version:  v2012                                 |
|   \\  /    A nd           | Website:  www.openfoam.com                      |
|    \\/     M anipulation  |                                                 |
\*---------------------------------------------------------------------------*/
FoamFile
{
    version     2.0;
    format      ascii;
    class       volVectorField;
    location    "750";
    object      U_0;
}
// * * * * * * * * * * * * * * * * * * * * * * * * * * * * * * * * * * * * * //

dimensions      [0 1 -1 0 0 0 0];


internalField   nonuniform List<vector> 
10042
(
(0.996177 0.0081588 -1.69053e-23)
(0.998493 0.00249298 0)
(1.02606 0.0138464 1.32596e-22)
(1.00704 7.43966e-05 7.10399e-21)
(1.05034 0.0896997 0)
(0.999029 0.00238502 0)
(0.812984 -0.0667341 -4.72106e-21)
(1.06844 -0.230145 4.69614e-21)
(1.02184 0.0131682 1.31255e-21)
(1.00085 0.0031409 0)
(-0.443873 -0.0454241 8.85775e-20)
(1.01096 0.000115188 -2.58704e-21)
(1.01281 0.00225505 -8.61598e-21)
(1.01322 0.000973614 0)
(0.965432 0.043369 1.62844e-20)
(0.999273 0.00339308 -3.44535e-21)
(0.999202 0.00356317 -3.22835e-21)
(1.00003 0.000297274 -6.94851e-21)
(0.996305 0.00777892 -5.483e-21)
(0.70586 0.27951 -2.32516e-20)
(1.00258 0.00419316 -7.30306e-21)
(1.04487 -0.0741587 -1.56256e-21)
(1.01222 0.000513031 0)
(1.0112 0.00423986 0)
(0.998579 0.00230976 5.22843e-23)
(1.05773 0.0116658 -8.49952e-21)
(0.99903 -0.000676644 -1.31052e-21)
(0.994705 0.0438183 7.40635e-21)
(1.01504 0.0185459 -1.41924e-21)
(1.0007 0.0387295 4.67215e-21)
(0.997104 0.00098572 -4.56703e-21)
(-0.21224 -0.0256605 -1.45232e-19)
(1.00084 0.00296637 4.31874e-21)
(1.01407 0.0348608 -2.37834e-21)
(1.04974 0.0390409 -9.71728e-22)
(1.01084 0.00431168 0)
(1.05635 0.014842 -3.83942e-21)
(1.05521 -0.0032722 2.30887e-21)
(1.01061 0.00401829 0)
(1.00828 0.0975382 -1.51483e-21)
(0.676272 0.272549 1.00085e-19)
(0.972706 0.0429054 -1.42542e-20)
(0.817959 -0.0106818 0)
(0.992842 0.0259347 0)
(1.05149 0.0784745 9.49938e-20)
(1.07211 -0.0278392 1.62597e-20)
(0.979606 0.0290377 1.22294e-20)
(1.05662 -0.0530448 2.24814e-21)
(1.05517 0.0233734 4.17941e-21)
(1.0339 -0.0248205 -8.85458e-23)
(1.00027 0.000251033 -3.40594e-21)
(1.03171 0.00256002 0)
(0.964651 0.0335694 0)
(1.03434 0.00387807 -5.7998e-22)
(1.05681 0.0164533 -4.88993e-21)
(0.999042 0.00257214 0)
(1.01567 0.018645 1.49014e-21)
(0.980103 0.0280627 -1.88811e-20)
(1.01456 0.0337887 0)
(0.966745 0.0337751 0)
(0.99785 0.00162315 8.53989e-21)
(0.997274 0.00263197 -8.76611e-21)
(1.05082 0.0411475 9.76059e-21)
(1.02542 0.0139809 2.72842e-22)
(0.970985 0.0123256 1.23503e-20)
(1.01666 0.0331864 -3.4255e-21)
(0.97793 0.00884093 0)
(0.75466 0.189119 -5.85512e-20)
(-0.222537 0.0361872 4.2203e-20)
(0.999128 0.0219317 0)
(1.03413 0.00351096 8.19215e-22)
(0.65961 0.284562 0)
(0.99183 0.0257304 -5.38496e-21)
(0.87846 0.0580399 0)
(0.978965 0.00582626 0)
(1.01144 0.00449699 0)
(0.928097 0.0687512 0)
(0.99626 0.00690377 0)
(0.914808 0.0771657 -1.32921e-20)
(0.752501 -0.169806 -5.09909e-21)
(1.05325 0.0231032 -9.25745e-21)
(1.239 0.115506 -1.51992e-19)
(1.00431 0.0286055 -1.72141e-21)
(0.974995 0.0372682 3.19804e-21)
(0.977815 0.00790446 -1.66178e-20)
(1.00004 0.000868701 1.54756e-20)
(0.996527 0.00980401 0)
(1.18059 0.188787 3.04632e-20)
(0.987672 0.0163405 -1.40892e-20)
(0.996866 0.00991126 5.45019e-21)
(1.0235 0.0262094 -1.26011e-21)
(1.23659 0.107239 1.81496e-19)
(0.995589 0.0454421 0)
(1.03126 0.00269768 -3.1977e-22)
(0.999748 0.0375165 -9.60063e-21)
(1.0107 0.0234246 -2.30057e-21)
(0.998704 0.00661952 0)
(1.00637 0.022634 0)
(1.00783 0.0943688 -1.40164e-21)
(1.01895 0.0173555 0)
(0.999995 5.56231e-05 0)
(1.1681 0.131093 0)
(0.996514 -0.206529 3.81291e-22)
(1.00006 0.000881209 -1.60865e-20)
(0.989511 0.0403963 -8.10784e-21)
(1.05745 0.1676 3.52748e-20)
(0.994313 0.00731226 -8.12216e-21)
(0.998728 0.0070539 -1.27455e-20)
(1.00248 0.00390745 7.10443e-21)
(1.01836 0.00153293 0)
(1.00765 0.00108781 6.29921e-21)
(1.00219 0.0175949 -9.50374e-21)
(1.03101 0.061696 0)
(-0.359755 0.0402609 -4.82818e-20)
(0.971892 0.0115639 -3.4763e-20)
(1.0001 0.0158909 0)
(0.992821 0.00148549 0)
(0.996102 0.0073212 2.06963e-20)
(1.01117 0.0228464 4.20655e-21)
(-0.09453 -0.0301807 0)
(0.98784 0.0155051 -1.82495e-20)
(1.04572 -0.20936 4.19736e-20)
(0.99554 0.028371 -8.43427e-21)
(0.995138 -0.000620773 1.24433e-20)
(1.16537 0.123995 0)
(1.00365 0.029113 0)
(1.09424 -0.225056 -3.24924e-20)
(1.05884 0.0342585 1.83099e-20)
(1.04962 0.164998 -2.69463e-20)
(0.997248 0.0107129 -1.74286e-20)
(0.912511 0.0826854 4.26919e-20)
(0.98247 0.0155457 1.30769e-20)
(-0.258856 0.0114296 4.48623e-20)
(1.16785 -0.0967756 0)
(1.01833 0.0174784 5.76387e-23)
(1.10665 0.127655 -7.4074e-20)
(-0.277748 -0.0296699 -2.43623e-19)
(1.02359 0.0272721 1.44118e-21)
(1.05866 -0.0540102 0)
(1.19135 0.194227 7.4829e-20)
(0.984487 0.0411881 0)
(0.992445 0.00152123 0)
(0.985305 0.0362515 4.32983e-21)
(1.1963 0.0906188 2.95657e-20)
(1.0287 0.00366053 9.14551e-22)
(1.00196 0.0171219 -5.02514e-21)
(1.11838 0.094203 -4.50994e-20)
(1.02158 0.00287299 -2.5628e-21)
(1.00634 0.0234054 0)
(1.01061 0.0691004 0)
(1.02344 0.0124092 -1.41341e-21)
(1.00002 0.000116451 -4.28847e-24)
(0.327552 -0.37288 2.20442e-21)
(-0.152128 -0.0900553 -5.15216e-20)
(0.999624 -6.65165e-05 -1.16419e-20)
(1.0128 0.00198932 1.28336e-20)
(0.960487 0.0064834 1.55476e-20)
(0.997034 0.00262373 1.12018e-20)
(1.10704 0.134221 3.82354e-20)
(-0.127789 -0.0128236 1.34679e-19)
(-0.481831 -0.0942714 0)
(1.16394 -0.0412445 0)
(0.996198 0.00132767 -6.14697e-21)
(1.02307 0.0129136 2.98157e-21)
(1.00725 0.0306963 7.26151e-21)
(0.983129 0.0146382 -1.22341e-20)
(0.974671 0.227753 0)
(0.192713 0.114762 4.93524e-20)
(-0.253452 -0.0288571 1.27723e-19)
(-0.0634142 -0.092674 -9.0192e-20)
(1.0333 0.00535027 -6.18719e-22)
(1.00302 0.00949507 -5.90284e-21)
(1.32363 0.121041 -2.09276e-19)
(0.710794 0.334448 7.56194e-20)
(0.924793 0.14093 7.5232e-21)
(1.01325 0.236178 5.30484e-21)
(-0.609684 0.290095 6.41708e-20)
(0.994081 0.0272483 0)
(0.740566 0.209017 0)
(1.0541 0.0775895 1.62032e-20)
(0.958323 0.00684758 -1.19733e-22)
(-0.186551 -0.0164556 0)
(0.976842 0.0110589 0)
(1.05755 0.0355788 1.27528e-20)
(0.97269 0.0405382 1.43882e-20)
(-0.0307993 -0.0153673 -1.01341e-19)
(1.23001 -0.0502461 0)
(1.01468 0.0296382 4.97576e-21)
(-0.510843 -0.116761 6.32303e-20)
(1.03953 0.0307492 -3.34583e-21)
(0.782872 0.768118 0)
(0.983678 0.0358353 0)
(0.309618 -0.324556 1.97601e-20)
(1.26893 0.121361 5.09426e-21)
(1.11362 -0.0493286 0)
(1.28383 0.119756 0)
(1.04829 0.0192163 0)
(0.995101 0.00628808 6.56317e-21)
(1.01253 0.00183778 2.88792e-22)
(1.02243 0.0475418 1.55389e-21)
(0.903078 0.125694 -1.76499e-20)
(1.0155 0.0300158 -3.48166e-22)
(1.00331 0.0177586 0)
(0.736003 0.357159 -3.81127e-20)
(0.97668 0.00992604 0)
(1.01341 0.0110611 -6.97368e-21)
(0.864096 0.810643 -1.24723e-19)
(0.999379 -0.000235463 -8.73744e-21)
(1.00002 0.000343827 0)
(0.999924 0.000549605 0)
(1.26228 0.109576 0)
(1.01284 0.000350052 -3.14326e-21)
(0.968379 0.217564 2.6448e-21)
(1.09478 0.40866 -6.3103e-20)
(0.962022 0.00818482 0)
(1.24162 -0.0459933 0)
(0.981825 0.00475883 1.40181e-20)
(0.999668 0.00423874 -4.90632e-21)
(1.13561 0.0728566 2.1626e-20)
(1.00675 0.0120136 5.6388e-21)
(1.03366 0.061396 0)
(0.959451 0.0134932 0)
(1.19789 0.337501 9.96135e-20)
(1.05583 -0.00513993 -2.3759e-21)
(0.951965 0.056848 7.85756e-21)
(1.05837 0.00838997 0)
(1.157 -0.169352 -4.95898e-20)
(1.00102 0.0165582 -4.83726e-21)
(1.20509 -0.0197466 6.13173e-21)
(1.03455 0.00315355 -1.37083e-21)
(1.02236 0.0127386 -1.1897e-21)
(0.852301 0.362072 2.95756e-21)
(1.00271 0.00911004 0)
(1.03448 0.00287361 1.09622e-21)
(1.02646 0.01437 1.02878e-21)
(1.01305 0.0704747 -1.50425e-21)
(1.01203 0.0122048 1.33593e-21)
(1.01367 0.000643566 -3.28912e-21)
(1.03822 0.0178177 -2.09252e-21)
(1.03644 0.000981315 4.13126e-22)
(0.996181 0.00108236 -1.72707e-20)
(0.994455 0.0283289 1.1689e-20)
(1.0071 0.0295662 -5.04891e-21)
(1.03049 0.0643643 0)
(1.00039 0.0153662 -3.32023e-22)
(0.997268 0.00116967 4.32071e-21)
(1.01047 0.000975149 4.31653e-21)
(0.990067 0.0421964 3.70355e-22)
(1.03377 0.00448931 0)
(1.00002 0.000218881 5.22012e-21)
(1.0125 0.00118397 4.71414e-21)
(0.99958 0.0212745 0)
(0.993639 0.0628057 -1.01416e-20)
(1.2176 0.347841 -6.34851e-20)
(1.1693 -0.0345646 -1.66181e-21)
(-0.460207 -0.118976 7.04392e-20)
(0.917963 0.145349 8.10462e-21)
(0.939701 0.140825 0)
(0.964987 0.0458806 -1.90693e-20)
(1.07627 -0.0330778 0)
(0.949561 0.107257 0)
(1.03706 0.0178358 3.35448e-21)
(0.99446 0.00688674 6.6978e-21)
(1.01349 0.000662979 3.58678e-21)
(1.02072 0.0471772 -2.58779e-21)
(1.01177 0.0117491 -2.98132e-21)
(1.03618 -0.070823 2.29707e-22)
(1.03688 0.00778162 1.00639e-21)
(0.996871 0.0105565 -4.61917e-23)
(0.999953 0.000504484 0)
(0.893523 0.126899 -2.16553e-20)
(1.03422 0.0043261 1.01157e-21)
(1.10589 0.388911 5.65164e-20)
(0.933379 0.145542 0)
(1.19885 0.152243 1.80574e-20)
(1.04021 0.0320269 4.45014e-21)
(1.03609 0.0010987 1.35024e-21)
(1.01101 0.0113239 -5.34054e-21)
(1.04389 0.00835208 5.5831e-21)
(1.02907 0.0040098 0)
(1.05732 0.0793554 -2.56228e-20)
(0.991148 0.0168835 -5.80281e-21)
(1.05827 0.0133604 0)
(-0.174007 0.0117471 3.86961e-20)
(1.01302 0.0107652 9.5067e-21)
(1.02367 0.015577 3.60152e-21)
(0.933861 0.0678308 0)
(1.07537 -0.0290867 -1.87068e-20)
(1.01453 0.028767 -4.72698e-21)
(0.997681 0.0012832 7.71386e-21)
(0.994189 0.0602399 1.65727e-20)
(1.06212 0.232845 0)
(1.11204 0.016305 0)
(1.20103 0.0877749 0)
(1.00024 0.00021656 -2.1909e-22)
(1.01259 0.00158327 -8.94893e-21)
(1.0013 0.0171171 1.12307e-20)
(1.02196 0.0137528 1.41995e-21)
(1.13757 -0.171763 -1.90702e-20)
(0.994552 0.0136592 0)
(0.997835 0.00182576 -9.09937e-21)
(1.00277 0.0105098 8.93565e-21)
(0.981884 0.00371817 0)
(1.04984 -0.00828396 -5.47314e-21)
(0.972187 0.0517394 1.22436e-21)
(1.10996 0.185444 0)
(0.848118 0.0249127 1.31755e-19)
(0.968052 0.0315499 -1.753e-20)
(1.31295 -0.156071 0)
(1.00032 0.0141403 5.25227e-21)
(1.04312 0.00866481 -1.09408e-21)
(0.998881 -0.000530791 1.26695e-20)
(-0.351647 -0.0777855 -1.57637e-19)
(1.16816 0.1108 -4.79511e-20)
(1.22441 0.107679 7.35365e-20)
(-0.567206 0.33125 -7.12766e-20)
(1.0121 0.00469076 0)
(1.03695 0.00737204 0)
(0.999465 0.0226352 -2.13341e-22)
(0.98115 0.0575558 7.48758e-22)
(1.05921 0.0101274 0)
(1.00002 0.00065644 0)
(1.04902 0.0914552 -8.78318e-21)
(1.00796 0.00112903 3.51681e-21)
(1.01392 0.000428259 3.10921e-21)
(0.993037 0.0271353 0)
(1.11669 0.191608 0)
(0.999992 0.000154035 2.62959e-22)
(1.03775 0.0305765 0)
(0.983491 0.0126829 -7.23333e-24)
(0.974077 0.050283 0)
(-0.543448 0.155065 0)
(1.00007 0.0146988 -1.05367e-20)
(0.999533 -0.000203558 7.36212e-22)
(1.00156 0.0011045 -1.99973e-22)
(1.0251 0.0132572 -3.98076e-22)
(1.07251 0.114414 0)
(1.11008 -0.0522995 0)
(0.948205 0.144143 0)
(1.37232 -0.107535 1.68911e-19)
(1.05164 -0.00774048 -7.72249e-21)
(1.05493 0.0352641 9.76177e-21)
(0.98276 0.0134247 2.36322e-20)
(1.01341 0.000930668 -4.0845e-21)
(1.02655 0.0249673 0)
(1.00002 0.00024067 0)
(1.28861 -0.113909 0)
(0.991411 0.0174927 0)
(1.016 0.0340637 0)
(1.04455 -0.0676261 1.36447e-21)
(1.00281 0.0179907 9.82215e-21)
(0.984853 0.0637139 -1.39083e-20)
(0.974822 0.0394663 -1.68734e-20)
(1.04884 -0.0697944 -1.21341e-22)
(1.02787 0.00918266 5.54935e-22)
(0.953255 0.0544409 -1.28994e-20)
(1.04785 0.157758 7.36374e-21)
(1.04499 0.0915619 6.08933e-21)
(1.02435 0.0448704 5.95167e-23)
(0.994424 0.00543099 6.54251e-21)
(1.38981 -0.111687 8.21532e-20)
(1.12292 0.0921027 4.09642e-20)
(1.03211 0.012113 0)
(1.07226 0.108714 6.90675e-21)
(1.0002 0.00564066 -8.05445e-21)
(1.00272 0.00873007 7.95127e-22)
(1.00036 0.0056446 0)
(0.982324 0.0638863 -1.4841e-20)
(1.24309 0.113179 0)
(1.0372 0.00321622 -1.17893e-22)
(1.00002 0.000561854 0)
(0.969926 0.031879 0)
(1 5.83334e-05 7.09931e-21)
(0.99999 0.000329042 -9.42941e-21)
(0.724994 0.298513 -3.74207e-20)
(0.994964 0.00588699 -1.13436e-20)
(1.0179 0.00836679 -4.17587e-21)
(-0.2429 -0.0333243 2.90968e-19)
(1.00402 0.00621997 -1.16014e-20)
(0.948777 -0.188582 1.04728e-20)
(1.28371 -0.137898 4.55931e-20)
(0.878711 0.0651752 5.27843e-21)
(1.06953 0.266165 -2.98442e-20)
(-0.415663 -0.107438 0)
(1.00751 0.0858441 3.07772e-21)
(0.828802 0.35999 -5.51891e-20)
(0.999358 -0.000450512 5.69581e-21)
(1.03579 -0.027274 1.10022e-22)
(0.999999 8.49346e-05 7.35384e-21)
(0.979622 0.0254643 1.00791e-20)
(1.105 -0.0919005 4.48055e-22)
(0.999921 0.0028192 0)
(0.979189 0.059271 -1.45425e-20)
(0.609907 0.979647 -1.45886e-20)
(1.01175 0.000461055 0)
(1.00247 0.00433265 -4.57156e-21)
(0.796614 0.110272 0)
(0.822047 0.703206 0)
(1.01617 0.0319946 2.01231e-21)
(1.02101 0.00338918 -2.54039e-21)
(-0.233183 -0.0271176 0)
(1.17124 0.117849 4.78664e-20)
(1.00304 0.00992343 1.0651e-20)
(0.748493 0.173793 6.3814e-20)
(-0.191362 0.0138114 -1.77142e-19)
(1.00713 0.0121902 0)
(1.00001 0.00039924 0)
(1.01496 0.00910377 0)
(0.998143 0.0123246 0)
(1.01388 0.000524465 -3.47649e-21)
(1.01301 0.0102117 5.38681e-21)
(1.36558 -0.154003 6.48127e-20)
(1.02221 -0.226506 -1.53039e-20)
(0.979064 0.0265531 0)
(0.988533 0.0512518 0)
(1.01307 0.000838191 1.30118e-22)
(0.994673 0.0128944 0)
(1.25473 0.138104 -3.09342e-20)
(1.02922 0.0119115 5.6979e-23)
(0.971998 -0.219424 0)
(1.11657 0.0142756 -3.0454e-20)
(0.973294 0.0362156 -1.45692e-20)
(1.01882 0.00682205 -3.01183e-21)
(1.02056 0.00342716 5.15923e-21)
(1.09776 0.299653 0)
(1.03376 0.00513054 0)
(1.00397 0.0875133 3.06006e-21)
(0.994872 0.037835 7.21679e-21)
(-0.416797 -0.0487222 -1.16398e-19)
(0.963943 0.00763162 1.38847e-20)
(1.24006 0.106685 0)
(0.968077 0.0428386 -1.55974e-20)
(1.00141 0.00503582 1.13666e-20)
(1.00039 0.0165072 5.75383e-21)
(1.2754 0.265968 8.3822e-20)
(1.00111 0.00468126 -6.2277e-21)
(0.923209 0.0186159 -1.36571e-22)
(0.996709 0.0170205 0)
(1.02735 0.00923159 0)
(-0.147277 -0.000345392 -1.83471e-19)
(1.04914 0.0219169 0)
(0.992417 0.00285734 -9.7163e-21)
(1.00812 0.000687984 4.313e-21)
(-0.328678 -0.0106728 -6.94677e-20)
(0.997661 0.0115147 -1.14119e-20)
(1.0505 0.0226919 0)
(1.01749 0.0485321 -1.96095e-21)
(1.01128 0.0117257 2.94491e-21)
(1.13179 0.0657652 0)
(1.01334 0.291551 4.0289e-21)
(1.00295 0.00526954 3.07544e-21)
(0.973484 0.0118451 1.60989e-20)
(1.03768 0.00322603 3.30276e-22)
(1.01239 0.00138233 -4.05285e-24)
(0.999255 0.00387788 1.85647e-21)
(0.994438 -0.00140966 0)
(-0.344001 -0.0214357 2.57022e-22)
(0.995602 -0.00156025 -1.05081e-20)
(1.01313 0.000448969 0)
(0.978127 0.0931882 -1.01042e-20)
(1.0018 -0.178928 0)
(1.12704 0.0654408 -6.37504e-20)
(1.00001 0.000261177 7.00503e-21)
(1.05463 0.0732332 0)
(-0.252484 0.0432507 -1.82347e-19)
(1.04973 -0.0106058 7.4476e-21)
(0.99165 -0.000387224 0)
(0.994722 0.00494777 -2.61521e-20)
(1.17863 -0.0896777 0)
(1.03141 0.0120043 0)
(1.0014 0.00472474 -5.60542e-21)
(0.913074 0.0663383 -3.21088e-21)
(1.02272 0.0140662 -4.03016e-21)
(1.01269 0.0100129 -4.79458e-21)
(0.957673 0.014734 0)
(1.01403 0.0046344 7.44851e-21)
(0.970711 0.14973 0)
(0.993948 0.00760282 8.82667e-21)
(1.00098 0.00467171 6.54032e-21)
(-0.480803 -0.0533906 -1.55655e-19)
(1.00639 0.00485017 -1.04487e-21)
(1.03277 0.00498039 1.23391e-21)
(1.00006 0.00276641 0)
(0.995739 0.0365061 0)
(1.05082 0.0863775 1.61293e-20)
(1.00279 0.00508683 0)
(1.02444 0.0132472 0)
(1.22883 0.105491 0)
(0.998242 0.041 5.45844e-21)
(0.735418 -0.442294 3.30228e-20)
(1.0365 0.018939 9.02573e-22)
(0.999999 0.000107641 7.1888e-22)
(1 9.24531e-05 -7.00791e-21)
(1.17941 0.140401 -8.1203e-20)
(0.990569 0.0137021 2.55763e-21)
(0.992407 0.00252603 8.07963e-21)
(1.00129 0.00126254 0)
(1.03276 0.0112035 0)
(0.957319 0.0814685 -3.96914e-21)
(0.824867 -0.182938 -3.08491e-20)
(0.997272 0.011342 5.89344e-21)
(0.963794 0.147229 -8.37831e-21)
(0.676682 0.781725 1.79286e-20)
(1.04812 -0.0111475 8.22468e-21)
(1.00001 0.000390422 -7.4381e-21)
(0.994031 0.000950265 1.35348e-20)
(1.02987 0.00748735 9.7069e-23)
(1.00004 0.000882498 8.43899e-21)
(0.99943 0.0127944 1.18284e-20)
(-0.388929 0.12513 8.39103e-20)
(-0.33035 -0.0353744 -9.37391e-22)
(0.999916 0.00257803 0)
(1.0584 0.0321758 -2.22808e-20)
(1.04459 -0.00074767 2.17324e-22)
(1.04406 -0.000274304 3.0557e-21)
(0.978 0.0053016 4.87123e-21)
(1.0094 0.00109164 0)
(1.03628 -0.150844 0)
(1.10492 0.288019 3.83491e-20)
(0.717572 0.761619 0)
(1.01831 0.00677508 3.14881e-22)
(1.03037 0.00787165 -4.26927e-22)
(1.02856 0.0120819 2.87242e-22)
(1.00388 0.00638858 2.94447e-21)
(-0.0442626 -0.0151855 -9.4316e-20)
(1.06479 0.0788006 0)
(1.03267 0.0118301 0)
(1.01505 0.0214079 2.40814e-21)
(1.0065 0.000508336 7.91243e-21)
(0.979916 0.00366823 -6.74317e-21)
(1.0305 -0.172171 0)
(1.04946 0.0202276 0)
(0.999097 -0.000819202 0)
(-0.363843 -0.0328114 1.73915e-19)
(0.805727 0.656038 7.10419e-22)
(1.06657 0.455479 4.17273e-20)
(1.06504 0.164039 -1.22379e-20)
(0.999298 0.00368844 5.50254e-21)
(1.01823 0.0182684 5.36616e-21)
(1.02196 -0.0294934 0)
(1.11156 0.0858831 0)
(-0.113159 0.0774225 0)
(0.310975 0.146815 9.35071e-20)
(0.952253 0.0482074 -1.84563e-20)
(0.919572 0.0167222 3.20265e-22)
(1.00007 0.000832178 0)
(1.03728 0.0290966 2.59246e-21)
(0.974368 0.0123383 5.68505e-21)
(1.00008 0.000865685 -2.10033e-21)
(-0.482051 -0.0854253 5.59732e-20)
(1.01076 0.00105909 -5.87946e-21)
(1.00007 0.0135215 5.0493e-21)
(1.06395 -0.028237 5.96306e-21)
(1.00003 0.000873627 -4.31202e-21)
(1.04969 -0.0353716 -2.34404e-21)
(1.0354 0.0187433 -1.27598e-21)
(1.0852 -0.0754255 9.51396e-21)
(1.01943 0.0903285 5.28242e-23)
(0.999946 0.000494999 1.04884e-20)
(1.03719 0.0100444 0)
(1.05107 0.0371399 1.04881e-21)
(1.02731 -0.00944738 -1.41813e-21)
(1.06734 0.15873 1.92633e-20)
(0.979275 0.278122 -1.14201e-21)
(0.999986 0.000152814 7.89901e-21)
(1.03053 -0.0244933 0)
(1.0229 0.0405519 0)
(1.00976 0.0231724 -4.50966e-21)
(1.0003 0.0013326 -1.07384e-21)
(1.02664 0.0258946 6.78848e-23)
(0.996979 -0.000964061 0)
(0.950952 0.0510265 -2.08369e-20)
(1.12619 0.0615902 3.41234e-20)
(0.859221 0.119638 0)
(0.999097 -0.00108803 1.24834e-20)
(0.997412 0.0423699 -1.08895e-20)
(1.00133 0.00117067 0)
(0.991928 0.00555577 -1.90809e-20)
(0.813252 0.340899 2.83659e-20)
(1.00216 0.00338387 4.16829e-21)
(1.01424 0.0494811 0)
(1.05133 -0.071214 5.51135e-21)
(1.01372 0.00448725 -7.69355e-21)
(1.11249 0.091588 0)
(1.01417 -0.0494833 0)
(0.997509 0.00113081 -4.61131e-21)
(-0.0629137 0.00459756 1.27784e-19)
(1.07534 -0.00138923 0)
(0.999976 0.000852425 3.01452e-22)
(1.2513 -0.0122428 8.04665e-20)
(1.0277 0.0140159 -5.76447e-23)
(1.00001 0.000278751 0)
(0.982839 0.0084327 -1.76138e-20)
(0.99517 0.000278441 1.41576e-20)
(0.999997 8.0442e-05 0)
(1.03882 0.0356801 0)
(0.979021 0.00345 4.73627e-21)
(0.856973 0.60609 -9.83288e-21)
(0.986339 0.0415986 0)
(0.994356 0.00113547 -1.30708e-20)
(1.01825 0.0310135 -2.90156e-21)
(1.0546 0.0861922 5.76717e-21)
(1.06839 0.0146142 0)
(0.994901 -0.000888681 -1.2031e-20)
(1.04051 0.00780695 0)
(1.01768 0.0183402 0)
(1.05324 -0.00290616 0)
(0.984485 0.00330348 0)
(1.01662 0.0934682 5.05597e-23)
(1.01837 0.00857232 3.75056e-21)
(0.953657 0.00783037 -1.81582e-20)
(1.01992 0.00387832 2.46818e-21)
(1.00062 0.0061362 -6.97833e-21)
(0.943247 -0.0267977 -3.60095e-20)
(1.01457 0.00927214 0)
(0.816009 0.321457 0)
(0.994258 -0.00100807 -1.26599e-20)
(1.03495 0.0103244 -1.16934e-21)
(1.00688 0.00465242 7.59691e-21)
(1.0631 0.00538829 -6.36967e-21)
(1.00003 0.00254784 0)
(1.07824 -0.00169094 -1.2203e-20)
(1.01535 0.0280637 0)
(1.2404 -0.00830701 1.24006e-21)
(0.999986 0.000426568 -4.77156e-21)
(0.869607 0.00880309 -2.26566e-20)
(1.02169 0.00256311 -1.61339e-21)
(0.973338 0.0478138 8.7605e-21)
(0.999974 0.000186394 -4.26108e-21)
(0.980906 0.00545673 0)
(1.0001 0.00519984 1.45586e-20)
(1.03784 0.0363893 0)
(0.996998 -0.000524239 6.3265e-22)
(0.669517 0.237891 3.83506e-21)
(0.616687 0.42083 0)
(1.06037 -0.0344125 -1.10115e-21)
(1.0418 0.0160875 0)
(0.952845 0.13843 -5.35149e-21)
(1.00439 0.0179917 0)
(0.98909 0.149047 -1.28439e-20)
(1.06949 -0.0293851 1.85642e-22)
(1.00093 0.0029265 4.84855e-21)
(0.919109 0.0668548 -7.9493e-22)
(0.975151 0.293638 -3.39352e-22)
(-0.0239169 0.0378792 0)
(1.00956 -0.0472477 2.92031e-21)
(1.34351 0.108624 -4.17669e-21)
(1.05348 0.0374811 -1.00108e-20)
(0.997108 0.031574 -1.4545e-21)
(1.00003 0.000767351 0)
(1.04224 0.00827835 -1.24534e-21)
(1.03964 0.0333424 3.39647e-21)
(1.03012 -0.00751365 5.67855e-22)
(1.01185 0.00442858 -5.74046e-21)
(1.02694 0.0427643 3.05957e-22)
(1.16693 -0.0250171 -3.00227e-20)
(1.00002 0.000102582 0)
(0.991875 0.00505145 1.01204e-20)
(1.04108 0.00712933 2.27666e-21)
(0.455048 -0.0446325 -2.87927e-19)
(0.975266 0.046485 0)
(1.05174 0.0709877 1.51383e-21)
(1.01764 -0.0278972 0)
(0.999961 0.000426135 -1.12654e-20)
(0.747663 -0.103871 2.84869e-20)
(1.01165 0.00511987 0)
(1.00343 0.0108073 -6.95136e-21)
(1.00208 0.038765 1.48396e-21)
(1.02277 0.0146309 1.69407e-21)
(-0.366192 -0.0794832 1.36387e-19)
(1.06524 -0.0370808 -7.55669e-21)
(0.323336 -0.0194882 1.56826e-19)
(1.00092 0.000441629 -1.48703e-20)
(1.39122 0.238653 -1.35398e-19)
(0.00971338 0.0557984 0)
(1.25928 -0.141501 -3.45031e-20)
(1.0317 -0.0076798 0)
(1.07402 -0.0349754 5.28206e-21)
(1.19674 -0.0254538 0)
(1.01638 0.149477 2.02915e-21)
(0.983234 0.011614 2.33379e-22)
(0.99632 0.0175597 0)
(0.910353 0.0715804 -2.67825e-20)
(-0.341817 -0.020761 6.77005e-20)
(1.00551 0.0180584 1.17033e-21)
(0.976369 0.097278 0)
(0.690278 -0.332904 0)
(0.993715 0.00855056 0)
(1.00113 0.00704113 9.00796e-21)
(1.00935 0.0237353 7.97027e-21)
(0.989442 0.0457452 4.23236e-22)
(0.999965 0.00524536 -8.46493e-21)
(1.02874 0.00858482 1.02962e-21)
(1.17421 0.146917 2.86434e-20)
(1.30843 0.135934 1.14846e-20)
(1.02818 0.0085669 -1.06088e-21)
(0.999778 0.00407623 0)
(-0.292468 0.0127903 0)
(0.202706 -0.184095 0)
(1.0039 0.0182544 0)
(0.992181 -0.00056442 0)
(1.00028 0.000298347 1.11476e-20)
(0.99773 0.0121502 0)
(1.26459 0.141207 -4.41493e-20)
(1.06229 -0.0379706 0)
(1.06968 0.407484 2.29016e-20)
(0.98771 0.0401412 0)
(1.00108 0.00739091 -9.27007e-21)
(1.02353 0.0113107 -9.06238e-23)
(0.956799 0.00494401 1.51484e-20)
(0.99804 0.00151799 -8.87874e-21)
(1.05887 0.00166459 1.16797e-20)
(0.971467 0.0297681 0)
(0.738421 0.027056 -7.70375e-20)
(0.998981 0.00378401 2.31949e-22)
(1.00052 0.00203324 1.05645e-20)
(1.05074 0.131402 -3.01537e-21)
(1.00539 0.0173832 -4.67272e-21)
(1.03941 -0.00838298 0)
(0.904164 0.247612 -2.63183e-20)
(1.0364 0.0103395 -2.25373e-22)
(0.748767 0.571589 0)
(0.218921 -0.0139454 0)
(0.995889 0.0316175 0)
(0.999604 0.0134283 4.90133e-21)
(1.21235 -0.209991 8.56389e-20)
(-0.446799 -0.0191357 -7.75154e-20)
(0.996697 0.13221 4.02278e-21)
(1.02712 0.0138467 5.97187e-23)
(1.11781 -0.252923 0)
(0.782936 0.39025 0)
(0.926809 0.0250853 6.54742e-20)
(0.983988 0.0108365 1.38438e-20)
(1.00147 0.000956891 0)
(1.00224 0.003699 -7.55648e-21)
(1.13016 0.388895 -3.55872e-20)
(1.04123 0.016586 0)
(0.801519 0.280914 5.55989e-20)
(1.00001 0.000300327 0)
(-0.515688 0.123989 -4.11268e-20)
(1.24263 0.113125 0)
(0.994132 0.000522389 -1.52676e-20)
(0.997484 0.00342417 0)
(0.682288 0.224661 -2.99919e-21)
(0.999328 -0.000193074 2.03627e-20)
(1.00716 0.00469 -9.71707e-21)
(1.00025 0.0688076 0)
(-0.00707654 0.011046 -1.80557e-19)
(0.035118 -0.0579929 0)
(1.04218 -0.0218007 1.51116e-19)
(1.03229 0.00533497 -7.56295e-22)
(1.08533 -0.0218007 3.16294e-20)
(1.01546 0.142058 -2.10256e-21)
(1.01024 0.00403019 9.27926e-21)
(1.006 0.000299712 -7.12458e-21)
(0.999656 -6.42776e-05 2.20958e-20)
(1.13968 0.369511 0)
(1.0001 0.000766173 -9.65911e-22)
(0.994296 0.00158204 0)
(1.08224 -0.0229877 -1.52262e-20)
(0.978932 0.00691787 1.76352e-20)
(1.13156 0.0774044 7.09947e-20)
(1.00047 0.000445528 8.54473e-21)
(0.998704 -6.54785e-05 7.40361e-21)
(1.00822 0.000935217 -8.61341e-23)
(0.999226 -0.00105081 0)
(1.1578 -0.0900148 2.79967e-20)
(1.0001 0.000803654 -4.35039e-21)
(0.999181 0.020441 0)
(1.08222 0.00878645 -1.85161e-20)
(0.954609 0.217915 1.10649e-20)
(0.853489 0.51053 0)
(1.00001 0.000866834 0)
(1.16149 0.0402763 0)
(0.125602 -0.105852 0)
(0.744188 -0.433439 -1.21259e-20)
(0.971225 0.0368798 1.44579e-20)
(-0.378172 -0.0595102 0)
(-0.143359 -0.0106678 1.42677e-19)
(0.993986 0.00827034 0)
(1.01257 0.00234831 5.57421e-21)
(0.984134 0.0392566 0)
(0.954809 0.0250571 5.41445e-21)
(-0.165701 -0.256639 4.97676e-20)
(1.01925 0.0490234 0)
(1.0003 0.00121817 0)
(1.00008 0.000805478 4.05102e-21)
(0.185025 -0.26632 2.42559e-20)
(0.989672 0.141715 7.02712e-21)
(1.03181 0.0049904 -1.11642e-22)
(1.00026 0.00096617 -7.11639e-21)
(0.991777 0.000470093 1.77539e-20)
(1.07815 0.1058 -1.07007e-20)
(1.0067 0.00493848 1.1338e-21)
(1.00469 0.000437041 0)
(1.05264 -0.00131498 0)
(0.988726 0.0438768 -8.87601e-21)
(0.999735 9.61531e-05 1.05081e-20)
(1.01963 0.0154 0)
(0.746511 0.640114 -1.36655e-20)
(1.02312 0.0159966 -1.54447e-21)
(0.992683 0.0439971 -1.41375e-22)
(0.996835 -0.00122187 0)
(0.998112 0.0377777 -4.8547e-21)
(1.19339 0.102911 1.01927e-19)
(1.00002 0.000881265 -4.64976e-21)
(0.979133 0.0435697 0)
(0.997975 -0.000133847 0)
(1.04688 0.0197451 5.11088e-21)
(0.66502 0.559123 4.71415e-20)
(0.999999 7.01118e-05 -7.16566e-21)
(0.866228 0.487185 0)
(1.03454 0.0591402 -2.17948e-21)
(-0.0530885 -0.17394 0)
(1.01184 0.000513551 2.54648e-21)
(1.02396 0.0464317 -2.99993e-22)
(1.05095 -0.00110764 7.66219e-22)
(1.16204 0.0444772 -4.26526e-20)
(0.798563 0.123316 0)
(0.971278 0.0285772 3.77194e-21)
(1.34329 0.0989809 0)
(0.924267 -0.00982842 -4.31451e-20)
(0.966884 0.0177494 0)
(1.00803 0.000518607 -5.17767e-21)
(1.24597 -0.162109 -3.37395e-20)
(0.99807 -0.000736053 -7.77892e-21)
(1.00002 0.000572699 4.98814e-22)
(1.00957 0.0112755 -1.12267e-23)
(1.00003 0.000647514 -9.87052e-22)
(1.1074 0.0244397 2.22951e-20)
(1 1.0698e-05 3.66741e-21)
(0.999995 7.52905e-05 0)
(0.891214 0.243743 2.86533e-20)
(1.01825 0.0862137 -8.86976e-24)
(1.0102 0.000111933 -6.77622e-21)
(0.934168 0.100491 1.28405e-20)
(0.959565 0.0113428 2.87627e-20)
(0.959316 0.0379502 -1.09638e-19)
(1.0378 0.0156187 3.15949e-21)
(0.842694 0.576396 3.88095e-21)
(0.998252 0.012981 0)
(1.06685 -0.0271348 1.455e-20)
(0.996172 0.1393 0)
(0.497561 -0.361637 0)
(1.04301 0.0230678 4.02856e-21)
(-0.134682 -0.0253068 0)
(1.00001 0.000308455 -2.68086e-22)
(1.03757 0.00188732 -7.93802e-23)
(1.00093 0.00166049 -1.14358e-20)
(0.997695 0.0304519 -1.05465e-20)
(0.989848 0.0137578 1.11299e-20)
(1.08252 -0.0712426 0)
(0.875724 0.127858 -2.84921e-20)
(1.02663 -0.0200626 0)
(-0.440404 -0.0916665 -8.47901e-20)
(1.00024 0.00135916 0)
(0.970912 0.942979 0)
(1.03668 0.00141072 -8.92626e-22)
(1.01558 0.0172437 -2.50002e-21)
(0.884455 0.05437 3.5682e-20)
(1.06412 0.0268814 0)
(0.202423 -0.036343 -1.47102e-19)
(0.997246 0.00344361 -2.53737e-21)
(0.953326 0.0811176 4.51663e-21)
(0.950173 0.205725 2.46751e-22)
(1.01607 0.0500717 2.27059e-21)
(0.849742 0.122032 0)
(1 0.000123987 -6.97362e-21)
(1.01171 0.00260848 4.97391e-21)
(1.00001 0.000113465 6.99928e-21)
(1.01725 0.450817 -9.96348e-21)
(0.999223 0.000201606 -1.92396e-20)
(1.00079 0.00320377 0)
(1.00884 0.0108387 5.61801e-21)
(1.00745 0.000875501 -3.03126e-21)
(1.00047 0.00608096 7.70974e-21)
(0.999543 0.00418319 8.58941e-21)
(1.01883 0.0322442 3.04166e-21)
(1.00136 0.0113031 1.01786e-20)
(0.999316 -0.00037602 -1.21857e-20)
(0.964408 0.00570264 0)
(1.00256 0.0707585 0)
(0.939652 0.0983851 0)
(0.995428 -0.00129225 2.13907e-20)
(0.0238691 -0.211595 2.76041e-20)
(1.00042 0.0273899 -8.22088e-21)
(1.35628 0.231634 -1.17539e-19)
(0.91014 0.131014 1.57951e-20)
(-0.296067 0.145158 0)
(1.0788 0.0548149 0)
(1.03745 0.00218037 5.36874e-23)
(-0.274124 -0.018189 7.64726e-20)
(1.07063 0.0153295 1.31976e-20)
(1.05518 0.433199 -4.61468e-20)
(0.963382 -0.429005 -2.24517e-20)
(1.0779 0.100561 1.06108e-21)
(1.00008 0.000828394 2.68517e-22)
(1.00273 0.0100228 -9.77277e-21)
(1.00241 0.0469338 0)
(1.19787 0.099357 1.40401e-21)
(1.00857 0.0237669 0)
(0.0494017 -0.0143965 0)
(1.00196 0.0223938 0)
(0.989266 0.688294 -3.27917e-20)
(0.881081 0.0604511 1.2395e-20)
(1.01708 -0.0235154 0)
(1.03482 0.0196996 -1.35193e-21)
(-0.12625 -0.0175687 0)
(-0.498151 0.211471 1.32338e-19)
(0.95118 0.0081916 0)
(0.995008 -0.000288119 1.27034e-20)
(0.999971 0.0002752 1.34642e-21)
(1.0407 0.00868123 2.34309e-21)
(1.0119 0.00249544 -4.04595e-23)
(1.00918 0.0008737 0)
(1.09972 0.139566 2.47713e-21)
(1.10457 -0.110724 -2.08248e-21)
(0.998074 -0.000362789 7.36159e-21)
(1.00791 0.0233846 0)
(0.966245 0.00534123 -1.35617e-20)
(1.2765 0.253349 4.02129e-20)
(1.02309 -0.0338614 -3.08413e-21)
(0.999548 0.000338133 -2.76739e-21)
(1.03286 0.0565505 -1.16479e-21)
(1.15011 0.00150988 0)
(0.995655 0.0392928 0)
(0.99967 0.00354405 4.97752e-21)
(-0.0578562 -0.0166388 0)
(0.98722 0.0325444 -7.22085e-21)
(0.994876 0.0141263 0)
(0.868054 0.980477 8.9559e-20)
(0.99671 0.0593867 -9.89464e-21)
(0.982852 0.00311951 -1.28953e-20)
(-0.181467 -0.0120712 0)
(0.869979 0.341503 0)
(0.118203 0.0340816 -3.69466e-19)
(0.992076 0.00666268 -9.40915e-21)
(0.979495 0.0459018 -5.61102e-22)
(1.27498 -0.0799393 1.21772e-21)
(1.0091 0.0112536 5.93277e-21)
(1.01476 0.0221834 -3.74292e-21)
(0.999994 0.000163229 0)
(1.03713 -0.00224409 3.69518e-23)
(0.99801 0.001965 1.58549e-20)
(1.0005 0.000434207 -1.51215e-20)
(1.03483 0.0026162 -2.07871e-21)
(0.808125 0.101729 -4.78898e-20)
(0.931912 0.409357 0)
(1.006 0.0121115 -6.2526e-21)
(0.985115 0.00748803 1.6823e-21)
(0.998069 -0.00110724 0)
(1.01441 0.0207446 1.90546e-21)
(0.985526 0.0379597 -4.77034e-21)
(1.01098 0.00283062 -1.60175e-21)
(1.18713 -0.0208715 0)
(1.00358 0.0919495 -2.68073e-21)
(0.992751 0.0235535 1.08358e-20)
(0.996228 0.00236299 4.5465e-23)
(1.00699 0.0113482 6.74715e-21)
(1.00138 0.00316782 6.17161e-21)
(1.02406 0.030822 7.86019e-22)
(0.0560446 0.0190542 2.08516e-19)
(1.0557 0.0111975 1.73354e-20)
(1.02113 0.00291954 4.07183e-21)
(0.994541 0.00587509 -1.32036e-20)
(0.866089 0.129147 -8.74757e-21)
(0.359249 -0.364644 -1.54936e-19)
(0.997254 -0.000484929 -6.11584e-22)