/*--------------------------------*- C++ -*----------------------------------*\
| =========                 |                                                 |
| \\      /  F ield         | OpenFOAM: The Open Source CFD Toolbox           |
|  \\    /   O peration     | Version:  v2012                                 |
|   \\  /    A nd           | Website:  www.openfoam.com                      |
|    \\/     M anipulation  |                                                 |
\*---------------------------------------------------------------------------*/
FoamFile
{
    version     2.0;
    format      ascii;
    class       surfaceScalarField;
    location    "550";
    object      meshPhiCN_0;
}
// * * * * * * * * * * * * * * * * * * * * * * * * * * * * * * * * * * * * * //

dimensions      [0 3 -1 0 0 0 0];
oriented        oriented;


internalField   nonuniform List<scalar> 
14907
(
0.000376061
0.000784219
-0.00119179
-0.000470247
-0.00234723
0.00279168
0.00322469
-0.00370889
0.000367911
-0.000200646
-0.000145037
0.000124737
-0.00112868
0.00100373
0.00249191
0.000434453
-0.00305953
-0.000798026
-0.00160129
0.00240326
0.000990615
0.000734521
-0.00172685
0.000178299
-0.00305269
0.00290562
0.000410529
-0.00061503
6.98748e-05
0.000714932
-0.00108464
0.000369696
-0.000497345
5.73187e-05
0.00275631
-0.000630402
-0.00235695
-0.000119782
0.000534065
-0.000865083
-0.000364517
0.00311783
-0.00276386
-0.000448693
-0.00147416
0.00205241
0.00172223
-0.00205363
-0.000211915
0.000131431
4.48054e-06
-0.00122378
0.00157482
-0.0017032
0.00131414
0.000387924
-0.000625174
0.00106355
-2.99011e-05
-0.00247345
0.00250668
-3.57512e-05
0.00176213
-0.000118776
-0.00204006
0.00079267
-0.00377331
0.00246156
0.00203974
-0.00254497
-0.000196884
-0.00259411
0.00279684
0.000272488
-0.00253644
0.00236723
-8.60114e-05
-0.00261934
0.00267133
-0.00055321
-0.00243561
0.00303661
6.48667e-05
0.0027437
-0.00286359
0.00231255
-0.000630295
-0.00169634
0.00113764
-0.000617851
-0.000519814
0.000178451
-5.90653e-05
0.00379161
-0.00240613
-0.00141583
-0.00290346
0.000197549
0.00266282
0.00256282
-0.00231797
-0.00051924
-0.00236322
0.00288611
-0.00323904
0.002798
0.000460913
0.000555671
0.00187392
0.0034639
-0.000840331
-0.00264848
-0.000790739
-0.000912915
-0.000316202
-0.00274944
0.00304487
0.00144057
-0.0022345
-0.00276283
0.000590218
0.00208162
0.00113921
-0.00101471
-0.00276229
6.61201e-05
0.00269754
0.000871953
0.00158648
-0.00249948
-0.00294665
0.00326554
-0.000310633
0.00358066
-0.00221657
-0.00137848
-0.00367336
-0.000236161
0.00391042
-3.5986e-05
9.88263e-05
-5.4323e-05
0.00634535
-0.0046833
0.00395138
-0.00184048
-0.00214951
0.00190068
0.00310471
-0.00507097
-0.0024997
0.00198274
-0.000394496
0.00288405
0.00227089
-0.00277594
-0.0023029
0.00311573
0.00111025
0.00263161
0.001152
0.00274099
0.00183689
-0.000103695
-0.00172667
-0.00288113
0.00362929
-0.000666008
-0.000790199
-0.00214994
0.00348791
-0.000397544
-0.00148289
-0.00127293
0.00275785
-0.00331039
0.00328753
-2.86888e-05
-0.0031497
0.00106098
0.0020665
-0.000165364
-0.00171507
0.0018787
-0.00137082
0.000898365
0.000472356
0.00200495
-0.000312792
-0.00169517
-0.00374016
0.00557938
0.000488451
-0.00206369
-0.000793629
0.00215209
0.000366236
-0.00252227
-0.00223036
0.00271352
-0.000556418
-0.00102728
-0.00349115
-0.00117133
4.24086e-05
-2.47178e-05
-0.00164741
0.00165538
-0.000488144
-0.00206901
0.00254913
0.00225578
-0.000756777
-0.00149525
0.00124509
0.00233621
-0.000119524
0.00125826
-0.00311002
0.00253299
0.000478738
0.000373068
-0.00314547
0.00276574
-0.000479025
-0.00270667
0.000924435
-0.000980333
-6.67613e-06
0.001099
-0.000631758
-0.000568329
-0.00209743
0.000614053
0.00148201
-0.000498888
0.00148218
-0.0010741
0.000216777
0.00082496
-0.00307198
0.000386374
0.0026496
0.000877522
-0.000997429
0.00228533
-0.00240206
0.000882041
-0.002809
0.00281795
0.00285443
-0.000791274
-0.00207724
0.00111285
-0.0033379
0.0022126
-0.00259605
0.00238481
0.00019414
0.000322415
0.00310745
0.000507784
-0.00287758
0.00240857
0.000190977
-0.000190977
0.00201163
-0.000191673
-0.00182524
-7.76942e-05
-0.00186232
0.00193693
-2.23481e-05
0.000723663
0.000172938
-0.00295745
0.00277023
0.0012444
0.000855184
-0.00210238
-0.0005792
-0.00114114
0.0016097
0.00306705
-0.00198392
1.97521e-06
-0.000258221
-0.0039108
0.00353597
-0.000266059
0.00103587
-0.000849883
0.000567037
0.0012493
-0.00177783
0.000345497
-0.00316813
0.00279022
-0.00078088
-0.000589988
0.00146251
-0.00294642
0.00064972
-6.88686e-05
-0.0005315
-0.00210172
-0.000654241
0.00273375
-0.00126293
0.000257964
0.00258862
0.000561944
-0.00110184
0.000539743
-0.00178582
0.00116711
-0.00127933
0.00226821
-0.00234919
0.000280926
0.00202698
-0.00215267
0.00221308
-5.17611e-05
-0.000185827
0.00219114
-0.00123277
-0.00193947
-0.00131178
0.00204487
0.000550833
0.00160084
-0.00217566
0.00278198
-0.00154126
-0.000612755
0.000113577
0.00050394
-0.00231144
0.00181569
0.000285576
0.0020273
-0.00232505
0.00138436
-0.00059032
-0.000794073
-0.000505713
0.00217162
-0.00167357
-0.00287581
0.00341573
-0.00248032
0.00204655
0.000423817
0.000898754
-0.00115441
0.000255571
-0.00194064
-0.0012028
-0.00331578
0.000370266
-0.00101441
-0.0010844
0.00304033
-0.000441147
-0.00264139
-0.00278046
0.000662939
-0.00329579
0.000420398
0.0028363
-0.00113586
-0.0009741
0.0021038
-0.00455206
-0.000746688
0.00514374
-0.000978198
0.001561
-0.00128985
0.0025026
-0.00122649
-0.00158359
0.00604353
-0.00448585
-0.00027382
-0.00230751
-0.000188044
-0.00251891
0.00269024
-5.28396e-05
0.00285069
-0.00281761
0.000105007
-6.94132e-05
-0.000137816
-0.000471679
0.00180833
-0.00133428
0.00124378
-0.0010909
-0.000152986
-7.25752e-05
-0.00141508
0.00186458
0.00237611
1.97172e-05
-9.85698e-05
0.0031178
-0.00303534
-0.00329207
0.000490468
-0.000121147
-0.00236505
0.00122107
-0.000449067
-0.00077209
0.00027552
-0.00101846
0.000742915
-0.000453879
0.00218183
-0.00173617
-0.00255981
0.00167817
0.000849054
0.00267254
-0.00274407
0.00236663
-0.00262049
0.000157301
-0.00198474
0.00225529
0.00100832
-0.00198121
0.000971465
0.000986054
0.000234865
0.000448253
0.000656666
-4.25204e-05
0.00128616
-0.00618118
0.00518548
0.000910424
3.50373e-05
-0.00157848
0.00121257
0.00165284
-0.000775852
0.00151525
0.000328074
-0.00184461
-0.00257584
0.00224547
0.000323153
-0.000106503
0.0022723
-0.00215257
-0.00073228
-0.000216798
0.000949082
0.00041516
-0.00237994
0.00189413
0.00154192
-0.00170891
-0.00283241
0.00273575
7.54715e-05
-0.00316464
0.00305079
0.000576242
0.000561366
-0.00374877
0.00247515
0.00119343
0.00278966
-0.00226871
0.00268069
-0.00301823
-0.000728347
0.00129013
-0.00160371
-0.000347952
0.00194664
-0.00146512
0.00314415
-0.00170899
-0.0010769
0.00036116
0.000715711
-0.00324483
0.00294961
0.000292843
5.35319e-05
0.00110241
-0.00115601
-0.00119537
-0.00215309
-0.00203331
0.00156372
0.000666672
0.000985413
-0.00126241
0.00227111
-0.00101107
0.00170647
-0.0010632
-0.000644141
-0.00334781
0.00339649
-5.27864e-05
-0.00202092
0.000229692
0.00168767
0.00192606
8.31625e-05
0.00104538
0.00173134
-0.00280376
-0.00265128
0.00212669
0.000517062
0.000654657
-0.00213364
-0.00276365
0.000831416
0.00188243
0.00150591
8.18561e-06
-0.00271424
0.00385181
0.000614783
-0.00443768
-0.000803373
0.000856856
0.00306897
-0.00339384
0.000740981
0.000198836
-0.00034117
-1.22045e-05
0.0014834
-0.0024202
0.000248585
0.000691929
0.00101324
-0.000140743
-0.000166576
0.000277205
-0.0013582
0.00236505
0.00146914
-0.000168202
-0.00130092
3.76362e-05
0.00306191
-0.00153035
-7.45103e-05
-0.00265533
0.000538737
0.0020327
0.00245894
-0.00296464
0.000247947
0.000555195
0.00162771
-0.00219037
-0.000889089
0.00222769
-0.00141988
0.00289796
-0.00258426
0.000449016
-0.00341873
0.00295651
-0.00158136
0.000215831
0.00136506
-0.0026666
-0.000546549
0.000788547
0.00156129
-0.00237758
-3.45826e-05
-0.00279347
0.00283703
0.000248637
0.00125207
-0.00150146
-0.000309828
-0.000800008
0.00115928
0.00131495
-0.0021785
0.000856734
0.000939287
-0.00473345
0.00287728
-0.00159311
0.00157613
1.6052e-05
0.000737628
-0.00101019
-0.00418121
0.00506143
-0.00156107
-0.00227513
0.00221835
-0.0024211
0.00372541
-0.00310282
-0.000527372
9.26759e-05
0.000450925
-0.000845273
0.00448581
-0.00150292
-0.00298836
0.000517139
0.00391435
-0.00441393
-0.00197916
-0.000578909
-0.00199385
0.0026137
-0.000326457
-0.00105697
-0.00215361
-9.58572e-06
0.000807044
0.000469068
0.00177369
-0.00104548
0.00137681
-0.000778402
-0.00265458
0.00281312
-0.00702562
0.00193247
0.00499082
-2.28882e-05
-0.000244314
-0.00153746
0.0016231
-5.51249e-05
-1.36091e-05
0.00202344
0.00253741
-0.00294683
0.000365531
-0.00143716
-0.000144756
0.00135991
-0.00182029
-0.000441976
-0.000634936
-0.000444949
-0.00213635
-0.00297076
0.00216921
0.000793333
-0.00265409
0.00228082
0.00332639
-0.00165292
-0.00166978
0.00128969
0.000906609
-0.00218882
0.00091343
0.0035393
0.00151889
-0.00222196
-0.000538223
0.00034679
-0.00223761
0.00325276
0.000867097
0.00291715
-0.00222868
-0.000240364
-0.00238183
0.00429269
-0.00196148
-0.000452907
-0.000124702
0.000897746
-0.0017435
-0.000912244
-0.00397761
-0.000114683
0.00158377
-0.000730223
0.00206538
-0.00176141
-0.000306076
-0.00140664
-0.00183258
0.00513546
-0.00460234
-0.00362954
0.00330742
0.000374228
0.00378241
-0.00259882
-0.00124145
-0.00513277
0.000467157
0.000156291
-0.00301589
0.000868955
-0.00129586
0.000331491
-0.00255563
0.000438506
0.00094579
0.00396411
-0.000202011
-0.000144803
0.00292163
-0.00287822
-0.00149533
0.00279472
0.000561967
0.00251278
0.00052919
-0.00205463
0.00188483
6.52214e-05
0.00285461
-0.000363942
-0.00238238
0.0022901
-0.00317858
0.000762844
0.00239075
0.000446395
-0.00158746
-0.0001175
3.58683e-05
0.0016531
-4.07787e-05
-0.00125225
-0.00311415
7.70931e-05
0.00196588
-0.00171806
4.42473e-05
0.000505039
-0.000572777
0.00193652
3.37184e-05
0.00183434
0.000513622
-0.00243631
-0.000400291
-0.00232846
-0.00107839
-0.00273454
0.00384021
0.00272718
-8.24727e-05
-0.00266256
-0.00229073
0.000664342
0.00162428
-0.00143125
0.00149752
-6.7034e-05
0.00380463
-0.00271541
0.00208138
-0.00131926
-0.000763372
-0.000496589
-1.91093e-05
0.000750385
0.00326395
0.000500182
0.00272425
-0.00236507
0.000594796
0.000328546
-0.00159459
-0.000362866
0.00195348
-0.00173273
0.00056738
0.00116441
0.000217429
0.00478041
-0.00348938
-0.00177715
0.00161019
-0.00403883
-0.00184623
0.00153181
-0.00309313
0.00299903
5.82704e-05
-0.00262021
-9.1827e-05
0.00150599
-0.00141354
0.0005909
0.00159347
-0.00220166
0.00107447
-0.00135992
-0.000716715
-0.000407746
0.000714556
-0.00185922
-0.00196672
-0.000325376
-1.32393e-05
-0.000361691
0.000516664
0.0031499
-0.000249711
-5.36804e-07
-0.0019467
0.00190051
-4.24188e-05
0.00273639
0.000927671
6.05696e-05
-0.000988243
-0.000362335
-0.00202662
0.00230545
-0.000147977
-0.000119886
5.91781e-06
0.00314786
0.000191769
0.00305435
-0.00211091
-0.000959596
0.000776413
-0.0020423
0.00253789
-0.000372099
-0.00198996
0.00142718
0.000561351
0.00188629
-0.00293703
-6.14635e-05
0.0028149
-0.00202949
-0.0010503
-0.00238153
0.00023493
0.00212976
-2.9242e-06
3.20027e-05
-0.000470081
0.00174829
-0.00127919
0.00108468
-0.000293239
-0.0022296
-0.00414531
0.00394673
0.000188958
-0.00156447
-0.0037841
0.00222007
0.00153054
0.00304706
-0.0029773
-0.0011712
0.00445773
-0.00123751
-0.00331552
-0.00227868
0.00303239
0.00226957
0.00051007
-0.00206356
0.00263333
-0.00388656
0.000883165
0.00295347
-6.81129e-05
0.00213134
-0.00212983
-0.00100309
-0.000988495
0.000686315
-0.00198769
0.00518147
-0.00223288
-0.00299857
0.000492937
0.00254296
0.00142203
-0.000623881
-0.00110097
0.000595573
-2.84399e-05
0.000336956
0.00083423
-0.00172779
-0.00208247
-0.00172826
0.00131351
0.000413567
-0.00445814
-0.00052106
0.00495142
5.37602e-05
-0.00131617
0.00116057
0.00123897
0.002524
2.43008e-05
-2.43008e-05
0.00102249
-0.000902463
0.00164096
-0.00194486
-0.000152399
-0.00318869
0.00028886
0.00301205
0.00110064
-0.000201982
0.000278972
-0.000396511
-9.7893e-06
0.000133215
-0.0020609
0.00192608
0.00125447
-0.00172526
-0.000501631
0.0026502
0.000272945
-0.00259116
0.00233398
0.000744581
-0.00267622
7.80557e-05
0.00257134
-0.00063449
-0.000959707
0.00272928
-8.11969e-05
-0.00232482
-0.00420735
0.000541922
0.00041722
-0.00041722
-0.000309017
-0.00231057
0.00257085
-0.000911379
0.00324025
-0.00231758
0.00032951
-0.00209928
0.00169597
-0.000784095
-0.00233487
0.000392183
0.000876129
0.00146837
2.87478e-05
0.00111321
0.000518351
0.00157596
0.000517117
-0.00209651
0.000471886
0.000630512
0.002025
0.00124884
0.00591264
-0.00118569
-0.00483089
0.000947856
-0.00049962
-0.00178552
-0.00186481
-0.000131012
-0.00218318
0.000466925
0.000983703
0.000920862
-0.00182856
0.000991323
-0.00105355
-0.000709062
0.00404531
-0.00334917
-0.000238264
2.65483e-05
0.000322267
0.000277859
-0.00120816
0.00377991
8.33019e-05
0.00107687
-0.00135916
-0.00265914
0.00161634
-0.000422607
-0.00119438
1.36633e-05
0.000435798
-0.000616045
0.000639618
-0.00139242
0.0016127
-0.000222315
0.00421542
-0.000154641
-0.00422789
-0.0017304
-0.0020455
-0.0011587
-0.00285511
-0.000294635
0.00399749
-0.00442851
0.000241694
0.00133208
0.0044202
0.00204695
-0.000545859
-0.00150183
-0.00433305
-0.00279427
8.83765e-05
0.00281961
-0.000100805
-0.00275844
0.00105634
-0.00034142
-0.00295459
0.0029736
-0.00106702
0.00320501
-0.000106359
-0.00106959
0.00103021
-0.000140647
-0.000828425
0.00104939
-0.00161898
0.000568501
0.00051178
-8.7641e-05
-0.000561887
-0.00307181
0.00306751
6.30922e-06
-0.000705248
-3.43954e-05
0.000735429
0.00380953
0.000590715
0.000473449
-0.000922582
-0.00334918
0.000621598
0.00274993
-0.00299339
0.00180165
0.00123096
-0.00222063
0.00100668
0.000955058
-0.000218358
0.00103038
-0.000812043
-0.000332199
4.59044e-05
0.000387123
-0.00109389
-0.00224168
-0.000416387
-0.00236383
0.00277638
-0.00270005
0.000563083
0.00105309
-0.0020948
-0.000794555
-0.000737168
0.00164617
0.00368165
-0.00221719
-0.00492098
0.000443956
0.000191487
0.000219769
-0.00204372
0.00201018
0.00216179
-2.57304e-05
-0.000986346
0.000207651
0.000778665
0.00246046
-3.0851e-05
0.000102198
-0.000272677
-0.00244968
-9.98029e-05
0.00254455
0.00193145
3.27057e-06
0.00150116
-0.00222447
0.000712725
1.22108e-06
6.37121e-05
0.00283248
-0.000121873
0.001043
0.000385364
-0.00309163
-0.000147746
0.00249108
-0.00231547
-0.00214918
0.00201282
0.00123683
-0.00174912
0.00300357
0.0021091
-0.00124421
0.000119358
0.00255436
-0.0001521
-0.00241302
-0.00315697
1.02605e-05
0.00355589
4.40722e-05
-0.00241246
0.00285065
0.00310447
8.58197e-06
-0.00322383
-0.00179374
0.00250579
-0.000721272
0.00101253
-0.00225885
0.000321702
4.96648e-05
-0.000781798
-0.000302845
4.20814e-05
-0.000549039
0.000264459
0.00513585
-6.6011e-05
-0.000385535
0.00166352
-0.00142804
1.20194e-05
0.00273304
-0.00124405
0.0028185
0.00108221
-0.00171684
0.00290029
0.000150955
-0.00116189
-0.00317098
0.00296057
0.000171067
0.000706771
0.00111813
-0.00182335
0.00367141
-0.00279265
0.000127358
-6.14759e-05
-8.04497e-05
0.000443787
-0.00190889
0.00146253
-0.00157585
0.000126643
0.00126943
-0.000477064
-0.00251703
-0.000801507
0.000419492
0.000582518
-0.00110736
0.00468898
-0.00359828
-0.00354443
0.0012881
0.00224258
0.00164975
0.000608886
-0.00021379
0.000603148
-0.00240756
0.00122717
-0.00304054
0.0034537
0.000849396
-0.000944248
-5.3219e-05
0.00224884
-0.0024466
0.000220996
-0.00449114
0.000258098
0.00407775
-0.00100515
-5.15558e-05
2.82461e-05
-0.000510239
0.000660285
-0.000384405
0.00125444
-0.000567865
-0.000586576
-0.0020858
0.00233706
0.00292273
-0.00134453
0.00549674
-0.00287945
-0.0026112
0.0023728
0.00315465
0.000384208
-0.00265163
0.00133108
-0.00133197
-0.000188459
-0.00232956
0.00235965
-3.08098e-05
0.00203662
9.18673e-06
7.10945e-05
0.00363944
0.000306559
-0.000686647
-0.00394938
0.00019205
0.00381439
-1.0986e-05
7.15505e-05
-0.000861453
0.00117105
-0.000309731
-0.00256516
0.0025263
1.50127e-05
-0.00335443
-0.0027958
0.0025691
0.000253884
-0.000925729
0.000681797
0.0001213
-0.00215073
0.0027865
-0.000724053
-0.000399101
-0.00270908
-0.00274974
6.90978e-05
-0.000292919
-0.000693441
0.000961509
-0.00048971
0.00105635
-0.00113008
7.35912e-05
0.00273192
-0.00188084
0.00212877
-0.000201539
-0.00265435
-0.000193851
-0.00364613
0.00383778
-0.00210742
0.00245507
-0.000366132
0.000850958
0.000480313
-0.00133131
0.00114808
-0.000162198
-0.000401153
-0.00244138
0.00281577
1.71253e-05
-0.000208109
9.57336e-05
1.60703e-05
0.00298003
0.000148687
0.00139485
0.00225064
-9.48656e-07
-0.000375068
0.00100045
-0.000724949
0.000481719
-0.00188935
-0.000483601
0.000695348
2.06156e-05
-0.00288816
0.00286404
-0.0009179
-2.98905e-06
0.000335019
-0.00223923
0.00191444
0.000514445
0.00311694
0.00254874
-0.00268759
0.000129669
-0.0027069
0.00252325
0.000163743
-0.00160323
-0.000814449
0.00442965
-0.00331867
-0.00113251
-0.00250615
0.00266397
0.00170736
-0.00419024
0.000579829
0.00214571
-0.00184082
0.000396464
0.00144292
-9.80878e-05
4.47668e-05
0.00362037
-0.00385587
5.90244e-05
-0.00309555
0.00296931
-0.00322613
0.00240112
0.00228509
-0.00223136
-0.000241409
-0.000222019
-0.00220221
-0.00212721
0.00208557
7.76529e-05
-0.00270548
0.00235975
-0.000865756
-0.00212734
0.00196434
0.000157269
0.000353528
0.00226294
-0.0027883
-0.00241534
-0.000785089
-9.58499e-05
-0.000680272
-0.00269689
0.00246933
0.00017916
0.000711832
-0.00134758
-0.000118061
0.00028171
-4.88694e-06
-0.000173839
0.00273676
-0.0025654
0.00109095
0.00141766
0.002985
2.36534e-05
0.000378925
0.00236587
0.00155107
-0.0039056
-0.00163551
-0.000372169
0.00115038
-0.000778327
-0.0028677
0.000162624
0.00269467
2.03023e-06
0.00033072
-0.000131586
0.00170973
-0.0015273
-0.000183464
0.0041947
-0.00202523
-0.00228192
-6.51236e-06
-0.000500451
0.00225773
-0.000216149
-0.00206773
-0.00232309
0.000193834
0.00219285
0.000209699
-0.000209699
-0.000890323
0.00253728
-0.00166072
-0.0028595
0.000651806
0.000723619
0.000237726
0.00278521
0.000223816
0.00251036
-0.000186366
-0.00273497
0.00038517
0.00234641
0.00120764
-0.00247109
-0.00260744
0.00230561
0.000292358
-0.00226539
0.000160088
-0.00411807
0.000254753
0.00387553
0.0022948
-0.00247715
0.00356762
-0.000738712
0.00031276
-0.00260701
0.00228233
-0.000250244
-0.00248633
-0.00043379
-0.00262221
-0.000308065
0.00321531
-0.00497682
0.00429871
0.000505456
-0.000667422
0.000398696
4.66678e-05
0.00154493
-0.000442208
-0.00110313
0.00330469
-0.00401656
-0.00116901
0.00187892
0.000167006
0.00200004
0.00391775
-0.0040234
0.000107492
0.000156999
0.00050587
-0.000749646
-0.000180209
0.00274726
-0.00255713
-0.00219251
0.00165282
-0.000718059
-0.00216061
0.00262162
-0.000177151
0.00124968
0.000459269
0.00107535
-6.72842e-05
-0.000944262
0.00239083
0.00318325
-0.00477344
0.00266158
-0.00273683
0.000798507
-0.00057504
0.00010001
-0.00215143
0.00260748
-0.00217982
0.00126492
0.00155226
-0.0024581
5.46683e-05
-0.00197709
0.00193985
0.000469956
0.00122962
-0.000105902
-0.00112385
0.00281979
-0.00247296
0.00217769
0.00107765
-0.00323806
0.00213072
0.000398005
-0.0024775
0.000398288
0.00197235
0.00228217
-0.00221862
-6.81952e-05
0.00267102
-0.00260324
1.6053e-05
8.5095e-05
3.66865e-05
0.00250979
-0.00145698
-0.000385508
0.00122388
-0.000372969
0.00430221
-0.000564109
0.00139077
-0.000827448
-0.00260034
-0.0025349
0.0023265
0.000181692
0.000843395
-0.000924722
-0.000755989
0.00399597
0.000732428
-0.00214366
0.00354134
-0.00431349
0.000849977
0.00310365
-0.00336655
0.00309437
0.00021234
0.00236355
-0.00100871
-2.34115e-06
1.79181e-05
-0.000463695
-0.00225118
-0.00379582
-0.00031328
-0.00166695
0.000683257
0.00098332
-0.000194137
0.00281538
0.00264528
0.000168295
0.00374912
-0.00394599
-0.00223877
0.0004881
-0.00235345
-0.000467698
0.0040835
-0.0039365
-0.0024828
0.00213578
0.000120408
-0.000109884
0.00283232
-0.00293267
-0.000245898
0.00112949
-0.000534712
5.26807e-05
-0.00273766
0.00268851
-0.00110172
-0.00056555
-5.3674e-05
0.000944069
-0.000798134
0.00156775
-0.000607839
-0.000960446
0.00114283
-0.00103175
-0.000111174
-0.000574832
0.00182813
0.00467255
-0.00104901
0.000927136
-0.00258075
0.00211087
-0.000804538
0.0023971
-0.000176464
-0.0022225
-1.3236e-05
-0.00201478
4.26175e-05
-0.000707313
-0.00223063
0.000590667
0.000351747
0.0016435
-0.00192868
0.000187951
-0.002537
7.78789e-05
0.00116361
-0.0018962
0.000732902
0.00089327
0.000653382
-0.00166187
2.94114e-06
-0.000214678
2.65793e-05
-0.00143417
-0.00183229
-0.00018549
0.00272545
-0.00257678
-0.00132697
-0.00110075
0.00502688
-0.00245961
-0.00266593
-0.00140448
0.00184604
-0.0011167
5.27716e-05
0.00369749
-0.000102073
0.00225305
0.000490982
-0.00108133
-0.00209677
0.000632974
0.00146463
-0.00172397
-0.00261761
0.00250086
4.81481e-05
3.72609e-05
-9.84948e-05
-0.000436062
-0.000957697
0.0029536
-0.00289719
-0.00109756
0.000929372
-0.000192038
-0.00028709
2.74219e-05
-0.00288946
-6.27603e-05
0.00298728
-0.00173634
0.0016305
-0.00285447
0.0002575
0.00261298
-0.00205885
0.00325649
-0.000355157
-0.00107671
0.00187424
3.28704e-05
-0.00185161
-0.000111798
0.000738996
-0.000949973
0.000372702
0.0019024
-0.00228082
0.00187222
-0.000195721
0.00418772
-0.000102506
-0.00405136
-0.00233989
0.000539692
0.00179864
0.00407019
0.000328622
0.000701601
-0.00103341
0.000331734
-0.000192931
-0.000908841
-0.000217257
-0.00236094
-0.000280836
0.00150737
-0.00165159
0.000143055
0.000884818
7.68437e-05
-0.000961672
-0.00241579
9.5287e-07
0.00241305
0.00251415
0.000600382
-0.00191355
-0.00151283
0.00136978
0.000141826
-0.00282703
0.00291801
-9.734e-05
-0.00202855
0.00192896
-3.91312e-05
-0.0003238
0.000234402
0.00126707
-0.00138179
-0.000900939
0.00309487
-0.000467616
0.00180288
-0.00133722
3.45636e-05
0.000714199
0.000795353
0.000132304
0.00162868
-0.00031656
-0.00224549
-0.000145897
-0.00297084
0.00334972
-0.000428943
0.00143443
0.00421105
-0.000866793
0.000325712
-0.00024289
0.000134337
-0.00265152
0.00249003
0.000629398
-0.00102667
0.000397221
0.00095881
0.00040746
-0.00136621
0.00105805
0.00048617
0.00472545
0.000296407
0.00162342
0.000922476
-0.00255872
6.63436e-05
0.00232987
-0.00118891
0.00163882
-0.000875625
-2.30236e-05
1.36451e-05
-0.00125774
-0.000268655
0.00153551
1.50733e-05
-7.49063e-05
2.13747e-07
0.000172192
0.00237192
-0.0011336
0.00274639
0.0021992
-0.00150537
0.00205387
-0.000683153
0.000721614
9.0362e-05
-0.00272156
-0.000157992
0.00320267
-0.0012068
-0.00214568
0.0023106
4.27998e-05
0.00212017
0.000110196
4.70204e-06
0.00165732
-0.00166637
-0.00237031
0.00215981
0.000199677
0.000635441
-0.00199459
0.00134541
-0.00117427
-0.000171525
0.000805228
-0.000505905
-1.50175e-05
-0.000351233
-0.00126486
0.0016142
-0.000684474
-0.00141083
-0.0010534
0.00176171
-0.00304667
0.000173848
-0.00088541
7.95737e-05
0.000805824
0.00104963
0.00176922
-0.00261061
0.00181863
0.00251719
-0.00299732
-0.000346594
0.00307389
-0.00273953
-0.0012327
-0.000386208
0.00161849
-0.00265746
0.000314835
0.00189704
-2.7658e-06
-7.61493e-07
-0.0013995
0.00239874
-0.000121226
0.00487047
-0.000253279
0.00209962
-0.00212051
0.000126211
-0.00231291
0.00233981
1.28097e-05
0.00262592
-0.0021495
0.000317027
-0.000308645
4.32147e-05
-0.00016066
0.00323845
0.000369155
-0.00287952
-0.000562575
0.000753591
0.00338141
2.57807e-05
-0.0033649
-0.0011684
0.000678592
0.00237715
-0.00261259
-8.4219e-05
-0.00255865
1.00382e-05
9.02251e-05
-0.00296551
-0.000608504
0.00181198
-0.00120928
1.30457e-05
0.000299877
-0.00307569
0.00272285
-0.00256511
-0.000213001
0.00274702
0.000554401
0.00287096
-0.000558693
0.0013499
-0.000791367
-0.000286603
0.000286603
0.000274022
0.00107068
0.00274545
0.000132099
0.00102664
0.000494212
-0.00152063
-0.00204301
0.0016191
-0.00219941
0.00357221
-0.000293904
0.00117481
-0.0015277
-0.000434826
0.0020077
0.000946504
-0.00304128
0.000522387
-0.00108717
-0.00201154
0.00245961
-0.000441026
0.000241774
-0.00279535
0.00255836
0.00137096
-0.000717714
-0.00191324
0.00133704
-0.00242568
0.00250605
7.23648e-05
0.0012961
6.55885e-05
-5.37237e-06
-0.00264339
0.00267279
-8.31602e-05
-0.00285111
0.00245919
0.000373666
-4.81171e-05
4.81171e-05
-0.000361691
-0.00166147
-0.000681275
0.00280676
-0.000301582
-0.000884025
0.000307156
0.00271746
-0.000641287
-0.00208874
-0.00348975
5.21788e-05
0.00107432
0.00401997
-7.26711e-05
-0.00394597
-0.000475203
0.00119861
0.00024072
-0.000102537
0.00268835
-1.81861e-05
-0.00188455
0.000836707
0.00104756
-0.0035328
0.000405366
0.00315801
-0.00110344
0.000241882
-0.000960911
1.1921e-05
0.00598284
-0.00280229
-0.00316404
-0.0011093
-0.000570163
0.00165779
0.00250507
-0.000204215
-0.00132787
-0.000365108
0.00029341
0.00224332
-0.00213919
0.00047075
0.00166521
0.000230134
-0.00388873
0.00365777
-0.000214466
0.00249175
-0.00220974
-0.000395899
-0.000477279
0.00117881
-0.00175729
0.00569168
0.0035621
-0.00363634
9.80535e-05
-0.00214549
0.00250776
0.00297449
-0.000436027
-0.00253751
-0.00127886
0.00108585
-0.00344759
0.000457669
-0.00156724
-0.00199218
-0.00156645
0.00220038
-0.00253997
-0.00219202
5.97045e-05
-0.000109056
0.00119509
0.00102988
-0.00230562
-0.000127358
-0.000388467
0.00140581
-0.00101795
0.00318279
0.000553634
-0.00415555
-0.000398133
-0.000326635
-0.00237187
0.0025179
-4.42709e-05
0.000709532
-7.23122e-06
-0.000584399
-0.00132769
-0.00166247
-0.000193135
-0.00259061
-0.0018509
0.00182613
0.000164288
-0.000166312
1.03491e-05
-0.00298432
-0.00249607
0.00260397
0.00258572
0.000116854
0.000186609
0.00227421
-0.000559164
0.00158564
-0.000416181
0.00248099
-0.0020987
0.000848338
0.000718864
-0.000283713
0.00240323
-0.000506464
0.00115567
-0.000649198
-0.00310211
0.00192789
0.00115281
0.00528275
0.000691426
0.000279274
-0.000936944
0.000657647
-0.00233015
-0.000292209
-4.121e-05
0.0015682
-0.00222393
0.000656291
0.00026037
0.00235368
4.31618e-06
-0.000265989
0.00228005
-0.0027434
0.000418355
-0.00158785
0.00086756
-0.00231279
-0.000875796
0.00119916
-0.000323449
0.00156575
0.00054456
-0.00211259
0.000953191
0.00027625
-0.00243243
0.00405992
0.00349077
-0.0030218
-0.000753677
0.000814245
0.00267352
0.00217048
9.80511e-05
-0.000128077
0.00132717
0.00389997
-0.00363232
-0.00119737
0.00233425
0.00123768
4.72149e-05
-0.00246586
0.00233889
0.00258559
-0.00348177
-0.00267048
0.000116266
0.00317362
-0.00233565
0.00285753
-0.00286706
0.00149322
-0.000444877
-0.00379737
0.000149269
0.00254462
-0.00233231
-0.000395022
0.00258733
0.000141366
-0.00244579
0.00232455
0.000116504
-0.00297242
0.00283277
0.00256794
-0.000281258
-0.00238032
-0.00119065
0.000314779
-0.00257321
-0.000402307
0.002917
0.000537513
-7.64355e-05
-0.0012807
0.00261323
0.000199153
0.00220143
-0.00267721
0.000627368
0.000356582
-0.000866024
-0.0016986
0.00257558
0.000820295
0.000329919
-0.00216458
-8.54999e-05
0.00216131
-0.00273669
0.00298589
-0.00054189
-0.00116868
0.00170966
-0.00235238
-0.00044627
-0.00232568
8.95707e-06
-0.00413035
0.00460617
-0.000469077
0.00189153
0.000252546
-3.246e-05
-0.000492154
-0.0050091
-0.00165375
0.00216724
0.0015977
-0.00116439
-0.000433947
-0.000181193
0.00161693
-0.00156402
0.000105899
-0.00219521
0.00202477
0.00222629
-1.0399e-05
0.0031831
-0.000561048
0.00290211
0.00270074
-0.0021239
-0.00052729
0.00144433
0.000658858
-0.00249955
-0.00222438
0.000322472
0.00186567
-0.000722796
-0.00181328
0.00265887
0.00190356
-0.00203469
0.000134722
0.000384631
-0.000268958
2.08432e-05
-0.00227023
0.00237255
-0.000120967
0.0012719
-0.000642578
-1.11756e-05
0.00282774
0.00477784
8.55069e-05
-0.000177404
-0.00115584
-0.000728649
0.00214167
-0.00206665
0.000561783
-4.98559e-05
7.43445e-05
-0.00380725
-0.000951758
0.00147322
0.0038512
-0.000868418
-0.000606952
0.000801423
-0.000584626
0.000611204
0.00106798
0.00189528
-0.000687903
0.00189263
-0.00120578
-0.000266869
-0.00181652
0.00196002
-0.000118846
-0.000516664
0.00017397
-0.00276887
0.00255322
-0.00265338
0.00273756
-3.39362e-05
-0.00135676
-0.00267457
0.0040088
-0.00182237
-0.000996625
0.00278484
0.00038445
-0.0023778
-0.000209166
-0.000124529
0.00239913
-0.0023699
0.00310936
-0.00252466
-0.000608252
0.00151331
-0.000394094
-0.0011198
-0.00164014
0.00291958
-0.00268263
0.000515953
0.00215933
-0.00308677
0.000203223
0.00283816
0.0012061
0.0009155
4.33436e-05
0.00422394
-0.00439211
3.18792e-05
0.00354748
-0.00296671
-6.55553e-08
0.00295467
-0.00133939
0.00110524
6.81746e-05
-0.00427824
-0.000234948
0.00445222
-4.66689e-06
0.00018405
0.000193031
0.000116688
0.0037933
-0.00163833
-0.000927606
-0.00103211
0.00195889
-8.5622e-05
-0.00285601
0.00295142
0.00316144
0.000288491
-0.000147227
0.00255166
1.4949e-06
-0.00256521
0.00219334
-0.000161982
-0.00124905
-0.00104284
-0.00219796
0.000297709
0.0019006
0.00273394
-0.000171744
0.00257453
-3.15174e-05
-0.000135473
0.000761201
-0.00115007
0.00177215
-0.00108142
0.000604151
-0.00015031
-0.000368895
-0.00245994
-0.000267216
0.00214393
0.000125802
-1.75392e-05
-0.00286293
-5.14493e-05
-0.00218659
0.00248259
0.00022878
0.00240465
-0.000264471
0.00312861
-0.00126731
-0.00193204
0.00170279
-0.00308003
-0.000304544
0.000895001
-0.000590473
-0.00266898
0.00260624
-0.00178824
-0.00221618
0.00153277
-0.00238436
0.00216543
-5.82995e-05
0.000448857
0.0011482
0.000202811
-0.000344991
0.000108263
-0.00252649
0.00218211
-0.00236038
-0.00149752
-0.000700944
0.00211823
-0.00184353
0.00193041
-0.000221565
0.000139511
0.00461418
-6.96222e-05
0.00309883
-0.00305714
0.000234343
-0.00118702
0.00165784
0.00183727
3.50037e-05
0.00146612
-0.0012247
-0.000242148
0.00278353
-0.0012469
0.00204332
0.000316354
0.000254925
0.000915945
0.00227786
-1.36429e-05
-8.6421e-05
0.000888445
0.00132138
0.000289188
0.0036411
0.000326329
-0.00400243
-0.00155754
0.00111024
0.000447202
0.00348916
0.00241316
0.000109978
0.000276082
-0.000553642
0.000790232
-0.00100861
-0.000323467
0.000200571
-0.0023234
0.000455537
-0.00253425
0.00254539
-0.00271554
-0.00282314
0.00287225
0.000259602
0.00218247
-0.000751474
0.00108711
-0.000380665
-0.0019217
-0.00167688
-0.00144162
-8.15794e-06
-0.00261806
0.00259134
-0.000720306
9.04031e-05
0.00055063
-0.000975214
-0.00194051
0.00290025
-4.56352e-05
-0.000587717
0.0017959
1.47972e-05
-0.000752194
0.0034763
-0.000746915
0.000818449
-0.00323218
-0.000186642
0.000386807
-0.0026952
0.00261851
-0.00256497
0.000181482
0.00219356
0.00049565
-0.00080021
0.00208168
-0.00035508