/*--------------------------------*- C++ -*----------------------------------*\
| =========                 |                                                 |
| \\      /  F ield         | OpenFOAM: The Open Source CFD Toolbox           |
|  \\    /   O peration     | Version:  v2012                                 |
|   \\  /    A nd           | Website:  www.openfoam.com                      |
|    \\/     M anipulation  |                                                 |
\*---------------------------------------------------------------------------*/
FoamFile
{
    version     2.0;
    format      ascii;
    class       volScalarField;
    location    "650";
    object      p;
}
// * * * * * * * * * * * * * * * * * * * * * * * * * * * * * * * * * * * * * //

dimensions      [0 2 -2 0 0 0 0];


internalField   nonuniform List<scalar> 
9793
(
-0.0146936
0.00256347
-0.0134882
0.00359924
-0.0706944
0.00715669
0.00551115
0.00575016
-0.00762613
-0.0640705
-0.0502222
0.00820239
0.00367863
0.00483976
0.00559913
0.00488092
0.00569117
0.00576967
-0.00303488
0.00479992
0.0146872
-0.00548717
0.00205098
0.000108527
0.00689349
0.00364716
0.00496776
0.00585403
-0.0329786
-0.00724266
0.0123181
0.00343319
-0.0368014
0.00501652
-0.0312268
0.00912392
0.00535868
-0.0046775
0.00608379
0.00540382
0.0112989
0.00543885
0.00355289
0.00519685
0.0036228
0.00366571
-0.0330772
-0.00540664
-0.0038089
0.00362319
-0.0323087
-0.0484186
0.00642382
-0.00671648
-0.0512538
-0.0045196
-0.00174055
-0.0672087
-0.0505232
0.00601881
0.00547859
0.00512077
-0.0238835
0.00184973
-0.104317
-0.0191322
-0.0271309
-0.0171635
0.00982864
-0.0481009
-0.0497942
0.000146711
0.00338209
0.00225207
-0.0288084
-0.0511565
-0.00215357
0.000435814
0.00571148
0.00562289
-0.0207547
0.00603255
0.000458316
0.00109658
0.0116664
-0.00269551
0.00563601
-0.00256301
0.00465324
0.00634721
0.00335901
-0.096657
0.00564788
0.00253219
0.00471845
0.00169667
0.00426266
0.000969661
0.0056518
0.00523201
0.00517475
0.00682113
0.00574594
0.00573126
0.000616844
0.0110358
0.00423604
0.00563796
0.00595776
-0.0101994
0.000240437
0.015855
-0.000483986
-0.0175446
-0.0473945
-0.0021079
-0.0293746
-0.0270833
0.00604756
0.00268187
-0.0111045
0.000380304
-0.00134833
0.00763367
-0.0100313
0.0154943
-0.053534
-0.00165352
0.00572695
0.00200375
0.00072042
-0.00255188
0.00201883
0.00713916
-0.0067264
-0.00286455
0.00187449
0.00547824
-0.000318538
0.0035549
-0.0010856
0.00685436
0.00464098
0.0050387
0.00480861
0.00468683
0.0023704
0.00513091
0.00567205
-0.100135
-0.0121046
0.000682183
-0.0144377
-0.0445361
0.0056741
0.000394106
0.00293592
0.00688308
0.00513846
0.00475484
0.00581109
0.0057771
0.00485401
-0.000718062
0.00262953
0.0140098
-0.00421732
-0.0149943
0.00490981
0.00664713
0.00557794
-0.0220256
0.00312973
-0.0237414
-0.010164
-0.00214592
-0.00291534
0.000430694
0.00227113
-0.0288483
-0.0704111
-0.0183154
0.00521517
0.00683137
-0.0690486
0.00340356
-0.0675417
0.00245006
-0.000883624
0.00483995
-0.0106252
0.000928646
-0.00479119
0.0161968
-0.0175865
-0.0280205
-0.0135715
0.00632466
-0.0396399
0.0035043
-0.00636799
0.00341856
-0.00690159
0.0017816
-0.00321131
0.000412461
0.0128136
0.00482154
0.0107079
-0.0139123
-0.0262284
-0.00275179
-0.00468217
-0.00707485
-0.0136099
0.00291644
0.00679967
-0.0656765
0.000555838
-0.0127829
-0.025008
-0.00180213
-0.0105297
0.00104285
0.000851058
0.000225789
0.00660722
0.00566857
-0.0269863
-0.0447223
0.000160701
0.000173558
-0.0191033
0.00340034
-0.0526402
-0.0121509
-0.000223116
0.00530464
0.00648828
0.00653914
0.0100814
0.00475381
0.00544794
-0.0282855
0.00508913
0.00566822
0.00571712
0.00690462
0.00566215
0.00510296
-0.00302824
-0.0201955
-0.04465
-0.0532282
0.00523473
-0.00217414
0.00526317
-0.0205366
0.00776244
0.00491126
-0.0414181
0.00512279
-0.0428681
0.00440091
-0.0157622
0.000308384
0.000405414
-0.025242
0.00268682
0.00386461
0.00493758
0.00457644
-0.00606661
-0.00213662
0.00305919
0.00335141
0.00180146
0.0151688
0.00127446
-0.0543384
0.00685535
0.000411256
0.00556465
0.00551195
-0.0538604
-0.00180598
-0.00257681
-0.0181598
0.00533151
-0.00316454
-0.000433679
-0.0307242
0.00538355
0.0053878
0.00122452
0.00729142
-0.00934984
-0.0185788
0.00132802
-0.00693585
0.00567422
-0.020759
-0.043069
0.00547945
0.00568218
0.00502146
-0.00593489
-0.0112315
0.00685936
-0.023544
0.0013929
0.00501521
-0.0108014
-0.00104918
-0.00339639
0.00647127
-0.000204333
0.00600839
-0.00768196
-0.0148725
0.0056807
0.00303704
-0.00876114
0.00240122
0.000437309
-0.0703491
-0.00878319
-0.0442876
-0.0287637
0.00469076
-0.0258835
-0.0271233
0.0068285
0.00980583
-0.0516182
0.00570482
0.00387746
-0.00604591
0.0048429
0.00578734
-0.0162666
0.00257306
0.00555775
-0.00981016
0.00656509
0.00488686
0.000313143
-0.00584789
0.00575426
-0.0164998
-0.00976861
-0.00245339
-0.000768606
0.00676227
-0.00620212
-0.00651247
0.00737506
0.000357717
-0.0360848
-0.0549888
-0.0661943
-0.036827
-0.00504733
0.00733409
-0.00927764
0.00539765
-0.041741
0.00635719
0.00333114
-0.0373945
0.00928599
-0.00937975
-0.00245193
-0.0535621
0.00997523
0.0072094
0.00331003
-0.0374954
-0.0287676
0.00269775
-0.00300936
-0.00653312
-0.0649247
0.00137725
-0.00811196
0.00384317
0.00546039
0.00493816
-0.0068027
-0.00345799
-0.00876174
-0.00950417
-0.0657722
-0.00328059
-0.00709377
-0.0456174
0.0018063
0.00533753
-0.00584536
-0.0324583
-0.00487212
0.00484146
-0.0131016
-0.00821611
0.00454884
-0.0150575
0.00535177
-0.00431196
0.0044884
-0.0241647
0.00273803
-0.0294153
0.0147618
0.00490522
0.00171826
0.00778398
-0.00996863
0.00761977
0.00632172
0.0036412
0.00473928
0.00280365
0.00125914
-0.00347851
-0.0502534
-0.00643918
0.00788786
-0.00943594
0.0047877
-0.0275677
0.00494202
-0.00304592
0.00425816
-0.00516984
0.00484062
-0.00728295
0.00664264
-0.00844293
0.00376926
0.0066602
0.00552152
-0.00902832
-0.0575658
0.00627164
-0.051523
0.00484524
0.00573619
-0.00883966
-0.0128524
0.0136425
-0.0618123
-0.00338339
0.00684029
0.000463187
0.00834255
-0.0263124
-0.0225416
0.000418716
-0.0139892
0.00131413
0.00752993
-0.0520358
-0.0015055
0.00623278
-0.00105681
0.00575043
0.00532741
-0.0272334
-0.0284723
-0.0655665
0.00577561
-0.00456361
0.000319829
0.00489219
0.00204616
0.00615073
0.00922419
0.00680999
0.00738026
0.00446439
0.00183563
0.00818549
-0.010486
0.00521521
0.000566471
-0.0464177
0.00895342
-0.0103401
-0.0276075
-0.00749045
0.00369358
0.00424194
-0.00809034
0.00825235
-0.00321421
0.00329399
0.00153866
0.00644826
0.00542739
0.00525676
2.26758e-05
-0.0436729
0.00325959
-0.0642805
-0.00950962
0.00546053
0.00487988
0.00587075
0.016234
0.00690901
0.000355308
0.00474231
0.0053587
-0.0453913
-0.000633623
-0.0372705
-0.0329279
-0.00725577
0.00543691
-0.060235
0.00851421
0.00578243
0.00606045
-0.063819
0.00590272
0.005777
0.00118152
0.0058285
-0.0225839
-0.0542572
-0.00920094
0.00579636
0.00601899
0.00584101
-0.00518738
0.00108267
0.00122559
0.0176543
-0.0665741
0.00462989
0.00784959
-0.0370163
0.00209811
0.00160069
0.00678335
0.000944457
-0.0520106
-0.0691156
-0.00211386
-0.0802567
0.000561376
-0.00985355
-0.0177729
-0.0435039
0.00328232
0.00540682
0.00598341
-0.000341833
0.00742025
-0.031914
-0.0248283
-0.118704
-0.038203
-0.000774722
-0.0212671
0.00572746
-0.0381747
0.00769429
-0.0352551
-0.00541251
-0.0127066
0.00401315
-0.00169388
0.00545089
-0.0155131
0.00572106
-0.076583
0.00422379
0.00405562
-0.0171209
-0.0137604
-0.0291551
0.00320047
3.32036e-05
0.00191723
0.00202987
-0.00395306
0.00347597
-0.0156949
-0.0186322
0.00348857
0.00552455
-0.00465281
-0.0130649
-0.000947196
-0.00188749
0.00736874
-0.018889
-0.0185906
-0.0145371
0.00572576
0.00586592
-0.00530427
-0.0195158
-0.000779225
-0.00596162
-0.0140685
0.000569484
0.00170322
-0.0290618
0.00534276
-0.000181546
0.00586552
0.00722544
0.00759069
0.00519025
0.00611275
9.15438e-05
0.00587899
0.0061622
0.00152903
-0.000941441
0.00341838
-0.0154822
0.0051626
-0.00676881
-0.000571468
-0.0194662
-0.0388471
0.00557666
0.00485698
-0.000326039
0.00576025
0.00387385
0.00318694
0.00404202
0.00552253
0.000372938
0.00418307
-0.0280219
0.00525117
0.00553225
-0.00157712
-0.00675876
0.00308711
0.00445934
-0.0520992
0.000688879
0.0062517
-0.0788924
0.00696521
0.00431918
0.00207628
-0.0687904
0.00584788
-0.0527007
-0.120193
-0.0278281
-0.0126237
0.00605266
-0.00199936
-0.00441505
0.00628943
0.00434477
0.0016461
-0.0118308
-0.0467243
-0.000549495
-0.0646268
-0.00194371
-0.00133089
-0.0286706
0.00144846
0.0103217
0.00541817
-0.0424611
0.00484943
-0.0125142
-0.0047053
-0.0810498
-0.0204588
0.00553357
0.00551443
-0.0367113
0.00540919
0.008232
-0.0512293
-0.0675765
0.00348425
0.00130232
0.00618746
-0.0205397
0.0026678
-0.037094
-0.00128813
0.00572714
0.0113078
-0.0206738
0.00312873
0.00164088
0.00552177
0.00551256
0.00420171
-0.0170397
0.00422145
-0.0213885
-0.0245732
-0.00198887
-0.0478962
-0.00566616
-0.0597035
-0.0208982
-0.00931643
-0.0566107
0.0107931
-0.0665759
0.00424023
0.000661328
-0.0447313
0.00354595
-0.0192123
0.00485656
-0.00603675
0.00577367
-0.00707484
-0.0434816
0.00564587
-0.0618909
0.00136808
-0.0181142
-0.0353765
-0.0409923
-0.0362797
0.00369117
0.00578907
0.00448797
-0.0323817
-0.0130239
0.00184699
0.00847259
0.000121278
0.00437081
0.00395128
0.00727467
0.010267
0.00708094
0.0037895
0.00477375
0.0059466
-0.0114845
-0.0417066
0.00475351
0.00577692
0.00437764
-0.00663958
0.00154534
-0.055849
-0.0332058
-0.0249949
-0.0132268
-0.0043366
0.00567197
-0.0058648
-0.0210312
-0.0158068
-0.0200881
0.00135441
-0.0630225
-0.00691487
0.00574032
-0.0203535
0.00591546
0.00548309
-0.00955205
-0.0158035
0.00104841
0.00479527
0.00391943
0.0037611
0.00416068
-0.0182489
-0.0187403
0.00154036
-0.0212313
0.00607708
-0.00529622
-0.0128272
-0.0647617
0.00270253
-0.0647244
0.00558654
-0.0384234
0.00521763
0.00343638
0.00507449
0.00429346
-0.101585
0.00175734
-0.00889382
0.00538728
0.00110348
0.00406176
-0.0209766
0.00473733
-0.0169815
0.00572619
0.0039298
-0.0132235
0.00289092
0.0163702
0.00575933
0.00255939
0.00490974
0.0095514
0.00400693
0.0102111
-0.000939037
0.00354628
0.00450438
-0.0227515
-0.0141434
0.00542739
-0.0803814
-0.00811102
0.00384054
-0.0198082
-0.00079051
0.00417549
-0.0389922
-0.0358558
-0.0192862
-0.0459338
-0.00719023
-0.0153165
0.00831972
-0.0191656
0.000577215
-0.00891466
-0.00554757
-0.0150827
-0.00670266
0.00136618
-0.00191419
0.00131054
0.00743952
-0.0479642
0.00307298
0.00378535
-0.0166701
0.00257872
-0.0368393
0.00559748
-0.0247459
0.00443381
0.00410875
-0.00326721
0.00486111
-0.0505059
0.00137804
0.00456838
0.00578872
0.00412114
-0.0317811
0.00402988
-0.00732974
-0.0174414
-0.0186424
0.00572937
0.00182987
-0.0598865
0.0176339
0.000322769
-0.0607835
0.0027027
-0.0123474
-0.00101653
0.0055589
-0.000951123
0.00467514
0.00594125
-0.0598033
0.00554833
-0.0405732
0.00394338
-0.00478134
-0.00163412
-0.0499899
0.00499985
0.00699137
-0.0346753
0.00409686
0.00408685
-0.0408893
0.00657417
-0.0262474
0.00555411
0.00468566
-0.00645262
-0.0137702
0.00367622
0.000148468
0.000144216
0.00507812
0.00550868
-0.00319568
-0.0422519
-0.00158244
-0.0254232
-0.0372599
0.00631677
0.00472078
0.00920836
-0.0207863
-0.045432
0.00374092
0.00509736
0.01285
-0.0295204
-0.062026
0.00380937
-0.0250838
-0.0322752
0.00184051
-0.0493902
-0.026423
-0.005076
0.00526025
-0.0274872
-0.00774216
0.00716423
0.00379066
0.00429731
-0.000256435
0.00573658
0.00472671
-0.083747
0.000523468
-0.0355764
0.00675502
-0.0472561
0.000778304
-0.0197773
0.00260819
-0.0223813
0.00191523
0.00414125
-0.00476904
-0.0152778
0.00523706
0.00529661
-0.00892787
-0.00177615
-0.0269037
0.00581339
0.00244977
-0.0094311
-0.00490644
-0.00269718
0.000181055
-0.0208445
-0.0626178
0.00585899
-0.0549692
-0.0109285
0.00463515
-0.00493837
0.00496269
-0.0699416
0.00229882
-0.0122801
-0.00254118
0.00335914
0.000655223
-0.0620568
-0.00636722
0.00638912
3.29974e-05
-0.0618017
0.00590807
0.00319573
0.0038294
0.00380486
-0.00240974
-0.00064795
-0.0290701
0.00584604
0.00187723
0.00847824
0.00176713
-0.00987412
0.000598671
-0.000776176
-0.00415251
-0.0059174
0.00767454
-1.14615e-05
-0.0088285
0.00464696
-0.00845867
0.00517037
-0.00419561
-0.0433337
-0.01538
0.00694292
-0.00337897
0.00743454
0.00443157
-0.000622399
0.00724075
-0.00429156
-1.64413e-05
-0.00478982
0.00656396
0.00542186
-0.0118524
0.00698369
0.00397589
-0.0339944
0.000706221
-0.059614
-0.00428896
0.00294651
-0.0387684
0.00361218
-0.00698089
0.0085861
0.00494859
0.00861134
0.00750273
-0.037868
0.00360119
0.00528914
0.00729326
0.00472378
-0.000313253
-0.0111726
-0.0391956
0.00532103
-0.00496398
0.00591506
-0.00926959
-0.069159
-0.00385034
0.00638025
0.0055404
0.00735906
-0.014339
0.00234099
0.00354641
0.0043036
0.00145086
-0.00641421
0.000526442
0.00340608
-0.0507339
0.00564819
0.00659398
0.00330259
-0.0470037
-0.00448081
0.000372277
-0.0610844
0.000330914
0.0049085
0.000711192
-0.0364483
-0.0665498
-0.000852612
0.00349639
-0.0636715
-0.0174849
0.000327915
-0.0141741
-0.0298495
0.00216524
-0.00773556
0.00681636
-0.00750484
0.00451653
-0.0156356
0.00726471
0.0149999
0.00695331
0.00294717
0.00341214
-0.00175198
0.00371726
0.00357442
-0.0662271
0.00393072
0.013262
-0.00423564
0.00364776
-0.00902641
0.00644234
0.00251268
-0.0100008
0.00116266
0.00492477
-0.00669377
0.00364516
-0.00547852
-0.0442797
0.00734127
-0.00830464
0.00496942
0.00358703
-0.00890349
0.00122143
-0.00476296
0.00398777
0.00151753
-0.0413608
0.00122858
0.00349493
-0.0017926
0.00357237
-0.0419328
0.00370165
-0.00170462
0.00230207
0.0050689
0.0080185
0.00570613
-0.0384662
-0.00247974
0.00572482
0.00437019
-0.0195793
0.00200474
0.00174011
0.00420737
0.00111048
-0.0114781
0.00134928
-0.00396517
-0.00502847
0.00446803
0.00428274
-0.0336054
-0.0101433
-0.0391942
0.0145214
0.00903391
0.00103262
0.0109444
-0.0574009
0.00568362
0.00373821
-0.0593278
0.000198616
-0.0656014
-0.0749424
0.00490105
-0.0360635
0.00321724
-0.0261797
-0.0277759
0.000682733
-0.00903099
0.00310436
-0.0467821
-0.0230738
0.00332006
0.00147432
0.00130559
0.00180096
-0.0355103
-0.0267022
-0.0630883
-0.0602761
0.00472325
-0.0211409
-0.0646462
0.00579871
-0.0309747
0.00557937
-0.0396417
-0.00380185
0.00542533
0.00704418
-0.0330142
-0.0640612
-0.0649639
-0.0367316
0.00341143
0.00516026
-0.0679641
0.00533902
0.00243548
-0.00429642
-0.00102113
-0.0296792
0.00465373
0.0048962
0.00326448
0.000559895
0.00612576
0.00360429
-0.0312548
0.0114252
0.00428981
-0.0799401
-0.000462415
0.0126388
-0.0689335
-0.00172641
-0.0112197
0.00504781
0.0033192
-0.0780596
-0.0804188
-0.0233995
0.00417132
0.00198293
-0.0747002
-0.018567
-0.0249244
-0.00875362
0.00499537
-0.00458465
0.00324604
-0.0298038
-0.0289207
0.000722959
-0.0660574
-0.000128917
0.00225763
0.00581469
0.00298029
0.00145566
-0.00185475
-0.00222633
-0.0334229
-0.00252124
0.00197388
-0.0167464
0.00560981
-0.0358493
-0.00716579
-0.093628
-0.0287233
0.00118724
-0.0266796
0.00701792
0.00532092
0.00124753
0.00506217
0.00408483
-0.0452565
-0.00816171
0.00155854
0.00566136
0.00422674
-0.037916
0.00222259
-0.0133017
0.00192059
0.0024216
0.00631222
-0.0675437
-0.0287127
-0.0746779
-0.00287866
-0.00625761
-0.0118536
0.00717095
-0.0268898
0.015202
-0.0731085
-0.0711552
0.00481824
-0.0229871
-0.0154091
0.00241312
-0.062518
-0.0314916
-0.0635366
-0.0138357
0.00492554
-0.0211813
0.00602459
-0.048521
0.00788647
-0.0644308
-0.0461537
0.00321905
-0.0725822
-0.0253676
-0.00919801
-0.0237472
-0.0127087
-0.0758566
0.0062252
-0.0103142
-0.00312686
0.00550469
-0.0583044
0.00901227
0.00112186
-0.0165135
-0.011433
0.00136664
0.00187274
-0.00764657
-0.029489
-0.000373142
0.00578318
0.0114313
-0.00177259
-0.0646997
0.00759902
0.00217796
-0.00788678
-0.0431397
-0.0242951
0.000215953
0.00472615
-0.010565
0.00568321
0.00730889
0.00462963
0.00284072
0.00575964
0.00732294
-0.0103569
-0.0190279
0.00165249
0.001883
0.00501481
-0.0388042
0.00646072
-0.0138675
0.00246284
-0.0597739
0.00461011
0.00561794
-0.000615208
-0.0649503
-0.0614839
0.00559835
0.00151466
-0.0125174
-0.016174
-0.0311661
0.00698099
0.00397645
-0.0111424
0.00397522
0.0170019
-0.0109541
-0.00689157
0.000532197
-0.0725194
0.00528896
0.00504866
0.00766007
-0.0150088
-0.0302411
-0.000419982
0.0061193
-0.000411738
-0.0753137
-0.027455
-0.00574319
-0.00660401
-0.0263062
0.0057872
0.00361814
-0.00549384
-0.00490804
9.66398e-05
-0.00312048
0.00139049
0.00454903
-0.0699466
-0.050094
0.00448705
-0.0248494
0.00616086
-0.0246272
-0.0244363
-0.00154103
7.86633e-05
-0.00541201
0.0039606
-0.00480645
0.00611901
-0.0471592
-0.0464316
-0.00754211
0.00186676
0.00362261
0.00481778
-0.00191272
-0.00472438
-0.0140512
-0.0672433
-0.000289655
-0.00720073
0.00618922
-0.0547085
-0.00519601
-0.0672103
-0.00431623
-0.00569764
0.000299902
-0.0701189
-0.0191327
0.00688503
-0.0738702
-0.0047986
-0.00512197
0.00238576
-0.00215485
0.00582862
0.00151059
-0.0267589
-0.0338558
-0.00787753
-0.00342482
-0.0431289
-0.019483
-0.0590724
-0.00205838
-0.0253619
0.00495468
0.00564911
0.00532186
-0.00105539
0.00254623
-0.0553449
0.00547699
-0.0231846
0.0103928
0.000557781
0.00189831
0.00560939
-0.00446766
0.00319192
0.00356915
-0.00963636
-0.00397134
0.00480348
-0.00962226
-0.00570597
-0.061754
-0.00795573
0.00460859
-0.00342688
-0.0630604
0.00777295
-0.0511225
-0.0382406
-0.00446196
-0.00247911
-0.00112504
0.00196636
-0.0272433
0.00587346
-0.00464441
-0.00415554
-0.0464751
-0.00132644
-0.00604274
-0.00356192
-0.0351376
-0.00697301
-0.016828
-0.0130187
-0.0259986
-0.0059657
0.0167281
0.00569129
-0.031818
-0.070533
-0.0187794
-0.0280598
-0.00853209
-0.00793687
-0.000623576
0.00709058
-0.00228618
-0.00239369
-0.0029108
-0.0111479
0.00476694
-0.0253367
-0.0059429
-0.000818987
-0.000184344
0.00281183
-0.00298734
0.00719538
-0.0134175
-0.0144375
-0.00163705
-0.00424998
-0.0696674
-4.01989e-05
-0.00184868
-0.00907735
0.00316355
-0.0383624
-0.00421346
0.00493441
-0.00438236
0.00554761
-0.00403713
-0.0469231
-0.0044302
-0.00194951
-0.00426791
0.00119748
0.0156477
-0.00803011
-0.0346932
-0.0105224
0.00123617
0.00564601
-0.00450226
-0.0695184
0.000771205
-0.0140072
-0.00242251
-0.000180907
-0.00208994
-0.0155748
-0.00232114
0.00468822
-0.00858774
0.00872742
0.00564818
0.00545201
0.00414057
0.00442412
-0.0174439
-0.0234956
-0.00508201
-0.00160641
-0.00149454
-0.0180365
-0.0221829
-0.0342733
0.00641544
-0.0186968
-0.00407294
-0.0255686
0.00460541
-0.0761498
0.00494713
0.00701493
0.00606868
0.000390267
-0.00963102
0.00635722
-0.00287677
0.00297298
-0.00837574
0.00506587
-0.0205227
-0.00962186
-0.00158309
-0.00762
0.00313044
-0.0065697
-0.0626943
-0.00174076
0.00182042
0.0019897
0.000491228
-0.00132152
0.00813622
-0.00537189
-0.0232472
-0.00372428
0.00495868
-0.025498
-0.00485588
-0.00125234
-0.0781312
-0.0455969
0.00625036
0.000594052
0.00722843
-0.0121426
0.00875963
-0.0102066
-0.0035595
0.00556167
0.000803398
0.00699038
-0.0337704
0.00490678
0.000690404
0.011312
-0.0742921
-0.0496451
-0.0189047
-0.000764487
0.00150039
0.00189783
0.00391797
-0.0106806
0.00541132
-0.0180427
0.00970072
-5.17411e-05
0.000288422
-0.00828551
-0.0017374
0.00289941
-0.014119
0.00341865
0.00885986
0.000510228
-0.00396712
-0.000276733
0.00505663
0.00437995
0.00489011
-0.0152275
0.00543768
0.00430791
0.000361676
0.00449817
0.000788888
-0.0118694
-0.00133713
0.00644082
-0.0152625
-0.0161924
-0.0131602
-0.0205171
0.000265605
-0.0102927
0.00203487
-0.00015519
-0.000324312
-0.00546585
0.00464345
-0.000399105
0.00145438
-0.0874419
0.00461719
-0.0195837
-0.00808903
0.0105594
0.00491256
0.00504429
0.0056976
0.000309366
0.0140202
2.29763e-05
-0.00989487
-0.0448901
-0.00171103
-0.000647264
0.00783239
-0.0223994
-0.011264
0.00762793
-0.0467021
-0.00326961
0.00188917
0.00214796
-0.00729691
-0.00110077
0.00275695
0.00373027
0.0156235
0.00156111
0.00552942
-0.0587853
0.00352311
-0.022262
-0.064026
-0.000618753
0.0105213
0.00192571
0.00129044
0.000321921
-0.0096202
0.00565261
-0.00111559
0.000976448
0.00199447
-0.0397585
-0.00517556
0.00376796
-0.0125157
0.00547967
0.000862607
0.000860935
-0.00145972
0.00574763
0.000761536
0.00105436
9.96717e-05
0.000108573
-0.00725464
-0.0189856
0.00684018
0.00182616
0.00435671
0.00216728
0.00263247
0.00839556
0.00407204
0.00564192
-0.000354417
0.00379778
-0.0403755
0.00210235
0.00215261
0.000132141
-0.0129089
-0.00205504
0.00317053
-0.0322928
0.00416201
-0.0220776
-0.0051007
0.0110155
-0.00827359
0.00467004
0.00190653
-0.00837627
0.00385506
0.00264231
0.00371576
-0.00694649
-0.0171912
-0.00103505
0.0149569
-0.00372754
0.00129072
-0.0757525
0.0100351
0.00381822
0.00566612
-0.00217629
-0.00558283
0.000228076
0.00411507
0.00388673
0.00136353
0.00132883
0.00233724
0.001856
0.0016027
0.00333237
0.00422349
0.00315419
0.00166202
-0.0658133
0.00287454
0.00333828
-0.0782421
0.00218223
0.0033118
0.00423168
0.00362836
0.000695253
-0.0467005
5.92853e-07
-0.00802477
0.0101755
0.00807859
-0.00639306
0.00310996
-0.0232447
0.0133343
-0.0626522
-0.00276096
-0.00258098
0.00265088
-0.000224936
-0.000408368
0.00566658
-0.00185911
0.0045002
-0.000962218
-0.00196993
-0.0351544
0.00274674
0.00432097
0.00393862
0.0026768
-0.0250405
-0.0240079
0.0134411
0.00903262
-0.0461152
0.000395527
-0.0028514
0.00211321
0.00198241
0.00266817
0.00789441
0.00334127
0.00850535
0.00205559
0.000514512
0.00428128
-0.0663082
0.00135592
0.00445072
0.00368532
-0.0181159
0.00471213
0.00170027
0.00560347
0.00666692
0.00256395
0.00576139
0.00137359
-0.0056088
-0.0500925
0.00683442
0.00298494
0.000721193
0.00350027
-0.00141204
-0.00161739
-5.60713e-06
-0.0827256
0.00459423
0.00425645
0.00482738
0.00466252
0.00540218
0.00364117
-0.00562167
0.00239077
-0.00230015
0.00226946
0.00237464
0.00270777
0.00147226
0.00299561
0.00144969
0.000740005
0.00549096
0.00392797
-0.0003661
0.00569167
-0.0670393
0.00438475
0.00729375
0.000880407
0.00661287
0.00288998
0.00101751
0.00471644
0.00062145
0.00501876
0.00254096
0.00208294
0.00104322
0.000877709
0.0034418
0.00497657
0.00386207
0.00179467
-0.0254534
0.00503891
-0.0340507
-0.00434668
0.00637842
0.0149516
0.0040709
-0.0479447
0.0034332
0.00586623
0.00117641
-0.0519304
0.00826929
0.00369929
0.0148002
-0.00754987
-0.0365334
0.00704036
0.00273778
-6.71352e-05
0.00298585
-0.0919211
0.00130279
0.00380016
0.0133604
0.0060306
0.00436688
-0.0218558
0.00576946
0.00115568
0.00689999
0.00824287
-0.0275379
0.00332957
0.00385771
0.00325251
0.00491471
0.00388685
0.00331409
0.00425569
0.00363658
0.00363447
-0.0178916
-0.00101087
-0.00173091
0.00216041
0.00240154
0.00592465
-0.00801413
0.00014909
0.00888401
0.00583679
0.00405192
0.00266524
-0.000725843
0.00521227
-0.0274535
0.00174316
0.00278915
-0.0759262
-0.00992245
0.00405944
0.00350823
0.00206435
0.00144095
0.00435281
0.00517577
0.00443773
0.00732514
0.0022516
0.00442281
0.0041541
0.00359559
0.00275444
0.00449704
0.00453456
0.00722489
0.0049594
0.00562215
0.0044737
0.00435064
-0.038682
0.000257492
0.00519236
-0.0156327
0.00601801
0.00534974
0.00461072
-0.0176841
-0.0438894
-0.00778232
-0.0619274
0.00579558
-0.00266711
0.00132771
-0.0201563
-0.000607357
-0.0319454
-0.000120646
-0.0049324
-0.0178463
-0.0366216
-0.000787726
0.00410248
-0.00667653
-0.0177936
0.00383485
-0.0369247
-0.00353049
0.00532398
-0.00528713
0.00408515
0.00483343
0.00707774
0.00870019
-0.00143894
-0.0021769
0.00565552
-0.0232089
0.00482803
0.00464861
0.000581817
0.00372993
0.00412881
0.00316983
-0.0126946
0.00450307
0.00459192
0.00758692
0.00466141
-0.0104693
0.00156239
0.00456499
-0.00312593
0.000766729
0.00426703
0.00195843
-0.0099896
0.00318931
-0.0261018
0.00194188
0.00518535
0.00555617
0.00107856
-0.0301621
0.00363725
0.0057542
0.0057846
-0.00336573
-0.0440546
0.00698212
-0.0280045
0.00302895
0.00646103
0.00273116
0.00263507
0.00438265
0.00499404
0.00341115
0.000328129
-0.00150433
-0.0450971
0.00398194
-0.00494486
-0.0173106
0.00222095
0.00820929
-0.000254674
-0.00428136
0.00222196
0.00152831
0.00689049
0.00549177
-0.00906078
0.00298602
0.00567308
0.00496034
0.00301525
-0.000513932
0.00388224
0.00776084
-0.00156504
-0.00106764
-0.00844178
0.00580246
0.00578668
0.0045309
0.00307521
0.000316258
0.00105078
0.00291625
0.00393509
0.00267663
0.00786497
0.00423722
0.00730786
0.00285848
0.0012052
0.0073862
-0.0343675
-0.0136548
0.00460522
0.00737307
-0.000955331
0.00248159
0.00468945
0.00272116
0.000827495
-0.00458145
0.00283322
-0.00547392
0.00633166
0.00394748
0.00436905
0.00197689
-0.0018409
-0.00488611
0.00252221
0.000796272
-0.00843437
0.00274744
0.00475286
0.00443421
0.00385181
0.00324353
0.00502574
0.00574596
0.00503047
0.00439304
-0.0238405
0.00436497
-0.00698536
-0.000514365
-0.0139898
0.00449024
-0.00609067
0.00274833
0.0059075
0.00560468
0.00345803
0.00590447
0.00138086
0.00424285
-0.000592879
0.00495408
0.00382096
0.00482176
0.00459933
0.0047484
0.00501438
0.00245798
-0.0286335
0.00135501
-0.0279677
-0.0123084
-0.0602113
-0.0255738
0.0028657
-0.000126421
-0.0225719
-0.00296977
0.00149667
-0.000908005
0.00683916
0.00457791
0.00480489
-0.0234738
0.00509435
0.00672809
-0.00029157
0.0037112
-0.0151675
-0.00492686
0.012632
-0.000145157
-0.00131899
0.00580373
0.012874
-0.00815611
0.00481818
-0.0140671
0.0051797
0.00530175
0.00528761
0.000298477
0.00508278
0.0025228
0.00534851
0.00490555
-0.0169817
-0.00156415
0.00143779
0.00557766
0.00138964
0.00515954
0.00523423
-0.0217843
0.00141975
-0.0015284
0.00655398
0.00492452
0.0096968
-0.00356916
0.00166648
-0.0755823
0.00205618
0.00145377
0.000687653
-9.04936e-05
0.00309673
-0.00546929
0.00561035
0.00563811
0.00791555
0.00356077
0.00499326
0.0011789
4.75993e-05
0.00578091
0.00695866
0.00450576
0.00626392
0.0022439
0.00649927
-0.0353052
-0.0256523
0.00588823
0.00471151
-0.00668637
-0.0196962
0.00350188
0.00657204
0.00488953
0.00530491
0.00217596
-0.0439868
0.00334476
0.00947032
0.000211431
0.00599607
0.00391929
-0.00233512
0.00673958
0.00586262
0.00541608
-0.000363901
0.00337534
-0.000518387
0.0053502
0.00445202
0.00490741
0.00051585
0.00437211
-0.0619866
0.00367894
0.00533057
0.00542362
0.00571759
-0.0414955
0.00476222
0.00449356
-0.000644876
0.000486188
0.00847183
0.000855921
-0.00263689
0.00507207
0.00467593
-0.0104484
0.00145602
0.00733267
0.00585375
-0.010245
-0.0475651
0.000373124
0.00761029
0.000326957
0.00585586
-0.0139454
0.00786792
-0.0784667
0.00410924
0.00563773
0.00573851
-0.00698358
0.00314528
0.00729388
-0.0163932
0.00827886
0.00477712
0.00575887
0.00518921
0.00693662
0.00772434
0.00304226
0.00513022
0.00666968
0.00869531
0.00546584
-0.00110098
0.00804455
0.00539093
0.00321504
0.00252481
0.00582432
0.000869183
-0.00160731
0.00527098
0.00463527
0.00593224
-0.00877216
0.00178055
-0.0272678
-0.0699644
0.00463801
-0.018918
0.00491167
0.00323893
0.000501346
-0.0245808
-0.00694214
0.00480142
-0.0230652
0.00682948
0.00570838
0.00499532
0.00870301
0.00448668
0.00474609
-0.0129282
0.00251213
0.00564031
0.00913622
0.00357242
0.00458186
0.00527968
-0.0177004
0.00609376
0.0142682
-0.0495807
0.00559764
0.000661557
0.00383612
0.00339722
0.00669295
0.00497272
-0.00729096
0.00681576
-0.00310756
0.00684566
-0.0704829
0.00581016
0.00333911
0.0051887
0.00270826
0.00745731
0.00554739
-0.0270689
0.00282439
0.00734747
0.00476121
-0.00838443
0.000808003
0.00111085
0.00700756
0.00710457
0.00298026
0.00405362
-5.03282e-05
0.00243629
-0.00396371
0.00185569
0.000915156
0.00508033
0.00550044
0.0064961
0.00433413
-0.00577374
0.00552741
-0.00418176
0.00501158
0.00485644
-0.00250564
-0.00656179
0.00543343
0.00496706
0.00102069
0.00670239
-0.00101071
0.00693149
0.0100681
0.00709308
0.0147044
0.00482073
0.0045589
-0.0103971
0.0139345
-0.014321
0.00271173
0.00594363
0.00390318
-0.0187688
-0.022895
0.00588028
0.0104107
0.000677941
0.00560703
0.00431594
0.00319068
0.00183984
-0.0117481
-0.0134284
0.00960699
0.00540998
0.00581148
-0.00732775
0.00521034
0.00652478
0.00439709
-0.01316
0.00570028
0.00272602
0.00742474
0.0067255
0.00594924
0.00255912
0.00688255
0.00261523
0.00548055
0.00666772
-0.0586175
0.00570368
-0.00836577
0.00087466
-0.0327609
-0.00481641
0.00725381
-0.0190236
0.00565432
0.00211306
0.00580395
0.0052406
0.00589767
0.0059411
0.00299094
0.00655505
0.00496729
0.0044929
0.00210408
0.00557977
0.00684022
0.00581433
-0.0262419
0.00612443
-0.000675303
0.00951028
0.00959007
0.00433765
0.0030949
-0.0166544
0.00385832
-0.0212015
-0.00404615
0.00689977
-0.00743057
0.00875832
0.00585615
0.00933063
0.00501329
0.005785
0.00534372
0.00634057
-0.0233436
0.0101994
0.00939685
0.00623032
-0.0110917
0.00813663
-0.0060555
0.00949194
0.00310138
0.00576673
-0.019098
0.00917222
0.000640565
0.00480308
0.0058223
0.00580394
0.00574682
0.00461358
0.00556339
0.00725268
0.00807541
0.00717016
0.00607045
-0.0250822
-0.0296963
0.00581096
0.00565168
-0.0373096
0.00678837
0.00698082
0.00577309
0.00719355
0.00574753
0.00447484
-0.00154281
-0.000791155
0.00278655
0.00479807
-0.0034415
0.00456418
0.00521982
-0.0507379
-0.00214854
-0.00105914
0.00294255
0.00691073
-0.00331692
0.0057494
0.00551918
-0.0289317
0.00476795
-0.0256592
-0.0250081
0.003889
0.00462316
-0.00108005
0.00699677
0.00581436
0.00560345
0.0057785
0.00307669
0.00532492
0.00512104
0.00127364
0.00813595
0.00254006
0.00584466
0.00821257
0.00536956
0.00548105
0.00784841
0.000362346
-0.029936
0.00276551
-0.0138811
-0.0169732
0.00614175
-0.0124979
0.00146472
0.00237324
0.00290213
-0.000732941
0.00327355
0.00310245
-0.0192258
-0.0134995
0.0066432
0.00130168
0.00526392
0.00565936
0.00576513
-0.0244
-0.00356204
0.00571227
0.00589479
0.00509256
0.00200677
0.00562384
0.00559437
0.00769561
0.000670786
-0.013014
-0.0035295
-0.00146183
0.00739764
-0.00199341
0.00111602
0.00588468
-0.02056
0.0031578
-0.0257693
0.0083902
0.00455182
-0.0114648
0.00669334
0.00548343
0.00133186
-0.0201083
0.0042279
0.00660237
0.00537439
0.000969659
0.00574756
0.00668887
-0.0746045
-0.0156823
0.00576229
-0.0149578
0.000931493
0.00555954
0.00573576
-0.0368473
0.00639468
-0.0706018
-0.0125874
-0.0116693
0.00575566
0.00346285
-0.00214564
0.00667123
-0.0065524
0.00643591
0.00572952
0.00235856
0.00554116
0.00330361
0.00583138
-0.00603243
0.00579323
-0.0195755
0.00488692
-0.00122167
-0.00506284
0.00300143
-0.00156473
-0.00326128
0.00615854
0.00550388
0.00451001
0.00685732
0.00139432
0.00499942
0.00334591
0.00424846
0.00448313
0.00701112
-0.00154243
0.00574143
0.00595639
0.000403882
-0.0300438
0.000242269
0.0011779
-0.00436745
0.00823214
0.00230005
-0.0404402
0.0038019