/*--------------------------------*- C++ -*----------------------------------*\
| =========                 |                                                 |
| \\      /  F ield         | OpenFOAM: The Open Source CFD Toolbox           |
|  \\    /   O peration     | Version:  v2012                                 |
|   \\  /    A nd           | Website:  www.openfoam.com                      |
|    \\/     M anipulation  |                                                 |
\*---------------------------------------------------------------------------*/
FoamFile
{
    version     2.0;
    format      ascii;
    class       volVectorField;
    location    "300";
    object      ddtCorrDdt0(U);
}
// * * * * * * * * * * * * * * * * * * * * * * * * * * * * * * * * * * * * * //

dimensions      [0 1 -2 0 0 0 0];


internalField   nonuniform List<vector> 
9793
(
(-0.00178919 0.00256022 -1.26158e-18)
(-0.0550082 0.0580246 -2.59432e-17)
(-0.000587785 0.0012684 1.19002e-18)
(0.114878 0.390027 -5.75235e-17)
(-1.91699e-05 0.000695206 8.35431e-20)
(-0.113449 -0.0423997 -1.56191e-17)
(-0.0117834 -0.0223912 1.9004e-17)
(-0.0907341 0.186363 2.88355e-18)
(-0.00186633 -0.0023788 4.15398e-18)
(-0.228858 -0.0631429 6.24824e-17)
(-0.000109925 0.000288866 3.45985e-18)
(-0.000106848 0.000248257 3.7168e-19)
(-0.000546701 0.000247404 -1.28485e-18)
(0.797408 0.084938 -6.11904e-17)
(-0.00039632 -0.00137771 1.46757e-19)
(0.0108206 -0.000808208 -1.34308e-18)
(-0.0150136 -0.0220219 -1.92771e-17)
(-0.000713386 0.00106998 -2.94401e-18)
(-0.0358939 0.337619 2.40361e-17)
(0.000537067 -0.000362981 3.5855e-19)
(0.000788155 -0.000889333 -1.30492e-18)
(6.15995e-06 0.000175824 2.14903e-18)
(0.0809871 0.224264 8.63226e-18)
(-0.121493 0.195134 -3.6788e-17)
(0.807342 0.067273 -6.14297e-17)
(-0.00636819 0.00726652 -1.04982e-17)
(-0.00025381 0.000815305 2.49803e-18)
(-1.72985e-05 0.000211468 2.28037e-18)
(0.000504717 -0.000418569 9.24751e-20)
(-0.0110595 -0.00672843 -9.65343e-18)
(-0.295791 -0.00266706 -3.6515e-17)
(-0.147274 0.0546441 6.93516e-18)
(-0.000340968 0.000291078 1.28261e-18)
(-0.000689383 0.00092082 4.24826e-18)
(-0.000119749 -2.39822e-05 -4.13298e-19)
(0.00478446 -0.0131844 -6.79964e-18)
(0.00771919 -0.00213019 3.4065e-19)
(-0.000335616 0.00822041 1.32961e-17)
(-0.186205 0.216514 -1.49928e-17)
(-0.00535998 -0.0127253 -8.99746e-19)
(-0.0118092 -0.00835979 1.62459e-17)
(-0.21035 -0.00574725 5.5821e-18)
(0.290341 0.0841122 2.82995e-17)
(-1.43281e-05 0.000164527 -2.7132e-18)
(-0.000138044 0.00152445 6.84352e-18)
(-0.000118179 0.000435839 1.2935e-19)
(-0.0140833 -0.00256753 1.98981e-17)
(-1.95463e-05 0.000286386 -2.35834e-18)
(0.00166277 -0.000547479 -1.64292e-19)
(-0.000663388 0.00112169 5.87672e-19)
(0.0058193 -0.0127818 3.37654e-18)
(-9.53995e-05 -3.60241e-05 1.4427e-18)
(-0.00173984 -0.0205075 7.99796e-18)
(-2.07975e-05 0.000476345 -6.7461e-18)
(-0.0137383 0.00851332 -5.09828e-18)
(0.141963 0.392684 4.43037e-17)
(-0.000493633 0.00023788 3.20131e-18)
(0.0276903 -0.0819188 -1.13955e-17)
(0.00163077 -0.000617956 3.07412e-19)
(-9.93955e-06 0.000153116 4.55312e-19)
(-0.00221495 0.010075 3.45922e-18)
(-0.0450969 0.0173987 -3.34256e-17)
(-0.000559003 0.00130596 4.83205e-18)
(0.0195766 -0.0127538 -2.90796e-18)
(-0.000149437 6.65608e-06 -4.86716e-19)
(-0.00169059 -0.00222319 -2.39855e-18)
(-0.0623446 -0.00116411 -1.56659e-17)
(-0.000734281 -0.00781165 3.09339e-20)
(0.00855767 -0.00126057 1.63613e-18)
(-0.135685 -0.0315536 -1.02826e-17)
(-0.00089757 0.00168422 5.60642e-18)
(0.00220034 0.0424122 1.81151e-16)
(0.0342105 0.142766 3.55024e-17)
(0.124017 0.0845139 -3.31269e-18)
(-0.184662 -0.263667 8.75278e-18)
(-9.2958e-06 0.00042565 -1.01279e-18)
(-0.0157541 0.0207755 4.34846e-18)
(0.0818097 0.21893 -5.85887e-17)
(-0.000349746 0.000994329 -3.11652e-19)
(-1.42197e-05 0.000531706 -1.75738e-18)
(-0.015443 0.021688 -3.90901e-17)
(-0.044821 0.296167 -1.29015e-17)
(-0.0128643 -0.0231385 4.52909e-18)
(-0.0067301 0.000881984 -5.27451e-18)
(0.00850646 -0.00194046 5.0353e-18)
(0.017576 0.03798 3.65172e-17)
(-1.80521e-05 0.000650737 9.34498e-18)
(0.0591935 -0.0303348 1.49737e-17)
(-0.17791 0.186163 -6.83407e-17)
(-0.0417189 0.0196203 2.13075e-17)
(0.172671 0.226466 -5.36592e-17)
(0.157617 0.0773969 7.52448e-18)
(0.16511 0.0496373 3.76422e-17)
(-0.0108291 -0.0118818 -9.66037e-19)
(0.242372 0.0591325 1.77539e-19)
(-0.000916903 0.000311789 1.78696e-18)
(-0.159009 -0.246438 -1.27668e-17)
(-0.0137104 -0.0162279 4.22626e-18)
(-0.00439024 -0.00690433 1.68943e-18)
(-1.16508e-05 0.000578089 1.8763e-18)
(0.509997 0.233189 -3.09742e-17)
(-0.00148007 -0.0193002 2.06369e-18)
(0.0818589 -0.00141885 1.5728e-18)
(-0.000117112 0.00145827 5.32728e-19)
(-0.371564 -0.423279 2.46396e-17)
(0.0770891 0.234938 -1.95025e-17)
(0.124329 0.084817 2.2178e-18)
(-0.000344942 -0.000223844 3.09441e-18)
(-0.000312978 0.000945515 -2.9443e-19)
(-1.82901e-06 0.000352513 3.72343e-19)
(-5.82394e-05 0.000274181 3.99842e-18)
(0.109611 0.202579 -9.77189e-17)
(0.00559837 0.0701802 -2.89663e-17)
(-0.186564 -0.0361593 5.64054e-17)
(-0.00104707 0.00166234 1.25579e-18)
(-0.000224216 0.00119178 -6.25065e-18)
(0.00628386 0.00174284 4.19593e-19)
(-0.000162198 0.000512479 -4.87826e-18)
(0.171365 0.421967 -1.18347e-16)
(-0.000140749 0.000306234 -2.80831e-18)
(-0.51154 -0.481739 -6.59634e-17)
(0.0627237 -0.0368838 1.06138e-17)
(-0.244402 -0.199681 -4.01346e-18)
(0.00532228 -0.0278994 -2.94534e-18)
(0.00764767 -0.00271336 -1.94377e-18)
(-6.89621e-05 0.000318661 3.99719e-18)
(-0.0182498 -0.0176977 -1.11079e-17)
(-0.290809 0.0019788 3.84429e-17)
(0.154804 -0.0162269 -4.13536e-17)
(0.155566 -0.00282117 1.05907e-17)
(0.00420224 -0.00552296 1.30357e-18)
(-0.000626768 -0.000584675 -6.98542e-20)
(-0.00186623 0.00264858 -3.55034e-18)
(-0.000293413 -0.00663804 -8.15974e-19)
(0.00364659 -0.0119249 -1.30342e-18)
(0.0111297 -0.0267426 -6.04507e-18)
(-0.180755 -0.201399 5.51931e-18)
(0.00656668 0.00131234 -3.64185e-19)
(-1.84229e-05 0.000336375 2.56324e-18)
(-0.0193803 -0.0279421 -2.16033e-19)
(-0.019437 0.219663 3.41739e-17)
(0.00373234 -0.0125607 2.17913e-18)
(-0.00163027 0.0011024 2.61513e-18)
(0.04298 -0.0254661 1.46918e-17)
(0.0431296 -0.0178889 2.3882e-17)
(-0.0753362 -0.0662082 3.18007e-17)
(-4.43115e-05 0.000352909 -2.80221e-18)
(-0.163042 -0.207872 7.14206e-17)
(-0.000657334 -0.000590146 2.10023e-18)
(-7.78651e-05 0.000311734 3.17978e-18)
(-0.000328026 0.000677496 -9.0683e-18)
(-0.20881 0.00230577 -1.56145e-16)
(-0.00406106 -0.00649449 -5.03694e-19)
(-0.000256272 0.000836544 1.59603e-18)
(-0.000339816 0.000978348 -1.07961e-17)
(0.189917 -0.0161425 2.2234e-17)
(-0.0172922 -0.0231703 2.80978e-17)
(-0.000601781 0.00126408 -3.87579e-18)
(-0.172118 0.0631169 2.66473e-17)
(-0.00106992 0.00101234 6.86039e-19)
(0.0521294 -0.0309806 -5.23674e-18)
(0.00408613 -0.0060434 -3.61064e-18)
(0.000747316 -0.00097143 -3.48835e-19)
(-0.0449264 0.0577194 4.07287e-17)
(0.00201495 -0.00237124 3.91329e-19)
(-0.0189434 0.220283 -1.65122e-17)
(0.0988545 0.00889012 5.06943e-18)
(0.00194038 -0.00316734 -2.90141e-19)
(-0.00031538 -0.000207286 2.55203e-18)
(-8.25313e-05 0.000403654 2.23517e-18)
(-0.00152007 0.00110447 5.11545e-18)
(-0.0257143 -0.0160246 -4.17009e-18)
(-0.36101 0.0738136 1.51382e-17)
(-0.686407 -0.593173 -5.23798e-17)
(-0.000579736 0.00010433 -1.7808e-18)
(-0.101457 -0.0514065 1.60836e-17)
(-0.0498933 -0.0212177 -3.27443e-18)
(-0.0518814 0.0697715 3.42273e-17)
(-0.000410535 0.00126106 -4.0059e-18)
(0.000184157 -0.00772765 -3.82578e-18)
(-0.334735 -0.480326 5.97262e-17)
(-0.00759083 -0.0213508 -6.37575e-17)
(0.0713334 -0.0368631 -1.09004e-17)
(-0.000128392 0.000322247 -2.10013e-18)
(-0.000125038 0.00104342 -1.80176e-19)
(-0.000320363 -0.000261296 -1.47261e-18)
(-0.348392 -0.270198 -9.65933e-18)
(0.00131464 0.113175 -9.05632e-18)
(-0.418512 0.10043 4.62267e-17)
(0.0807968 0.0169583 5.65635e-18)
(-0.00171181 -0.00179966 -5.05384e-19)
(-0.16735 0.429107 7.57388e-17)
(-0.011893 0.0605777 -1.03765e-17)
(-0.00242451 0.00850081 2.34479e-17)
(0.00190969 -0.000381081 -2.28076e-19)
(-0.0049578 0.0026875 -1.2114e-18)
(0.00149217 0.0691296 -4.05881e-17)
(0.000333818 -0.000369212 3.79365e-19)
(-0.000786501 0.000940699 1.88983e-18)
(-7.14781e-05 0.000490283 -1.68427e-18)
(-0.00112975 0.00187838 -6.59289e-18)
(0.00101676 -0.000661574 1.20516e-18)
(0.00783123 -0.0134115 -8.82604e-19)
(0.0068911 -0.00620884 -6.38133e-18)
(-0.0651098 0.486104 -8.51946e-17)
(-0.000341297 0.00129083 -4.40814e-18)
(-0.00415758 -0.0112294 1.93312e-18)
(0.00216462 -0.00300069 5.13519e-19)
(-0.00267105 0.00168598 1.21627e-17)
(-0.0837729 0.0386292 -5.50206e-18)
(-0.0170059 -0.0271193 -2.86364e-17)
(0.0125096 0.19406 -3.17317e-17)
(0.000262504 -0.000224342 -2.09132e-19)
(-0.150401 0.00175285 4.95498e-17)
(-0.00682366 0.00128816 -6.70339e-20)
(0.0224645 0.0219767 3.13088e-20)
(-0.00047591 -0.00143231 1.52459e-19)
(0.0127249 -0.0203812 2.41481e-17)
(-0.000197474 0.0011481 6.06237e-18)
(-0.00627643 0.0268975 -2.95919e-17)
(-0.0151934 -0.0160064 1.9315e-18)
(0.000971486 -0.000762591 -3.94774e-19)
(0.0313426 0.0789189 2.86621e-17)
(-0.789554 -0.792998 5.09913e-17)
(-0.0106822 -0.0116024 9.14458e-18)
(-0.00108997 9.40457e-05 3.77412e-18)
(0.00534877 -0.0366026 -7.4035e-18)
(-0.562624 -0.640777 5.9725e-19)
(-0.00992273 0.0256125 1.22412e-18)
(-0.0117796 0.0263978 7.70323e-18)
(0.0866193 0.466197 -1.16574e-16)
(0.125599 -0.0339859 6.26799e-18)
(0.0223507 0.0180569 -1.97466e-19)
(0.0212237 -0.0133745 1.61425e-18)
(-0.00867437 0.0588025 3.87221e-17)
(0.00132962 -0.000160236 -8.10463e-20)
(-0.340484 0.142267 2.41163e-18)
(-0.17536 -0.0458854 -6.23914e-17)
(0.000329452 -0.000344473 -7.53038e-19)
(-4.85826e-05 0.000656915 4.28733e-18)
(-0.252688 -0.0626452 -4.33462e-17)
(-0.00117957 0.000643108 -3.47434e-19)
(-5.10693e-05 0.000286643 -1.32312e-18)
(0.0556743 -0.093826 1.97345e-17)
(0.0380258 -0.114372 -1.78974e-17)
(-0.00177925 -0.0019172 -2.43192e-18)
(0.000473754 -0.00781991 3.85572e-18)
(-0.00435811 -0.0118155 -1.85744e-20)
(-0.0192529 0.00151796 1.91272e-18)
(0.00209031 -0.00759128 -3.69218e-19)
(-0.000357042 0.00121166 5.2657e-18)
(-0.0136901 -0.0115773 -1.05016e-17)
(-0.014383 0.56752 2.4944e-17)
(0.000921544 -0.000765546 2.69304e-18)
(-0.720191 -0.678713 5.07164e-17)
(-5.10505e-05 0.000559171 3.86108e-18)
(-0.000138212 0.000330397 4.54872e-18)
(0.000246194 -5.14456e-05 -3.41493e-19)
(0.140387 0.42632 9.58352e-17)
(-3.3049e-05 0.00121185 -2.36249e-18)
(0.19778 0.00115211 3.78265e-18)
(-0.359725 -0.18317 6.82286e-17)
(-0.000187366 0.000474691 -1.27911e-18)
(-0.000188692 0.00100181 4.29075e-18)
(0.0363666 0.225427 2.62659e-17)
(0.00025568 -4.14027e-05 4.83981e-18)
(-4.76653e-05 0.000675279 -7.3234e-19)
(0.00028892 -3.33376e-05 1.21735e-18)
(-0.351531 -0.131418 -5.96052e-18)
(-0.0412147 0.0541236 9.49211e-17)
(-0.00570555 0.00588066 1.30932e-17)
(-0.084971 0.0128996 -1.59846e-18)
(0.0117691 -0.0765561 1.46554e-18)
(0.0971325 0.0151548 -9.61471e-18)
(-0.0268534 0.214312 6.56547e-17)
(0.00184959 -0.00344132 -6.35642e-19)
(0.139231 0.67788 9.93559e-17)
(-3.7035e-05 0.000513541 2.2885e-18)
(-0.529294 -0.686326 -6.10499e-18)
(-0.0591373 0.174889 -2.99522e-17)
(-0.0937253 0.0431169 -4.31604e-17)
(-0.448084 -0.419617 8.52342e-17)
(0.119465 -0.0431829 -1.02261e-17)
(0.00469034 -0.0052438 3.27624e-19)
(-0.0111986 -0.0217402 -7.33741e-18)
(0.00594462 -0.00610315 4.40301e-18)
(0.00209839 -0.000243335 -5.42563e-19)
(0.00299038 -0.00225374 -4.23915e-19)
(-0.0810723 0.0296615 -4.47146e-18)
(-0.00694619 0.00743191 7.98084e-18)
(-0.000155439 0.000878907 6.78564e-18)
(-1.49197e-06 5.56955e-05 -2.12663e-18)
(0.000266903 -0.000241437 3.61753e-18)
(0.000433866 -7.54505e-06 1.63893e-18)
(0.000872795 -0.000880033 -1.25268e-19)
(-0.00979077 0.136673 -2.40734e-17)
(-0.000382763 -0.00033197 2.08715e-18)
(-0.000456483 -0.00122186 -9.15942e-19)
(0.00043041 -1.07244e-05 -1.50077e-18)
(-0.00050821 0.000215751 -2.6451e-18)
(-0.0155976 0.550843 -1.86739e-17)
(-0.069337 -0.0712019 -1.21135e-17)
(0.0061216 0.0329519 -4.37167e-17)
(-0.0016799 0.00410565 4.01348e-18)
(0.0402709 -0.0300498 3.21957e-18)
(0.000462782 -1.47556e-05 9.20074e-19)
(0.121973 0.0836 -4.92333e-19)
(-0.156206 -0.0274803 7.92005e-17)
(-0.000100912 0.00136269 3.08994e-18)
(-0.270352 -0.18757 3.67532e-17)
(0.0158603 -0.0135831 3.99171e-18)
(-0.000200726 0.00158982 -1.50246e-17)
(-0.0713163 0.0547096 -4.96355e-17)
(0.123922 0.0852912 9.3749e-19)
(-0.000352759 0.000249486 -2.58089e-18)
(-0.0149284 -0.0121001 3.97471e-18)
(0.0909349 0.17306 1.90087e-17)
(-0.00237021 0.00137278 3.26342e-18)
(0.00139633 0.0172799 -2.07464e-18)
(-0.000399893 -0.00123218 -1.98565e-19)
(-0.00231985 0.00179763 2.16037e-17)
(-0.452959 -0.781474 4.49881e-19)
(-0.0209671 0.00769344 1.23404e-17)
(-0.000638152 0.000944177 -1.87097e-19)
(-0.000165802 0.000314937 -2.41709e-18)
(-0.0015958 0.00379682 9.15726e-18)
(-0.0447884 -0.0389679 1.67973e-17)
(-0.00212877 0.0759986 4.2803e-17)
(-0.000527277 0.00132889 8.10282e-18)
(-0.000350702 -0.000289904 -2.43908e-18)
(0.000939619 -0.0017617 9.35758e-19)
(-0.011481 -0.0112503 -8.36032e-17)
(0.141668 0.527193 -4.68433e-17)
(-0.155022 -0.134558 1.10215e-16)
(0.00126125 -0.000210902 -7.01561e-19)
(-0.0227033 0.00728673 -2.27315e-17)
(0.00244527 0.0176523 -4.08022e-18)
(-0.123718 0.0579719 -1.42042e-17)
(0.00272658 -0.0580441 2.4341e-17)
(0.00143903 0.000112026 -1.07331e-19)
(0.00158502 -0.000135231 1.86057e-19)
(0.000896981 -0.00180331 4.11294e-20)
(-0.009422 -0.0222192 -4.91853e-19)
(-0.00292214 -0.000284073 -1.75088e-18)
(-0.253294 1.08789e-06 7.01678e-17)
(-0.000193078 0.00117574 5.35215e-19)
(-0.000507534 -0.000861654 3.33959e-18)
(-0.185945 0.0264407 2.79493e-18)
(-0.0368458 0.123078 2.00547e-17)
(-0.18667 0.0181842 -3.25038e-17)
(0.000437034 -1.36762e-06 -5.97041e-19)
(0.45895 0.271486 -6.99043e-18)
(-0.00787208 0.000433194 -4.61684e-18)
(-0.0276462 0.108873 -1.25374e-17)
(-0.278993 0.144801 -1.34306e-17)
(0.0724725 0.484531 1.23104e-16)
(-0.0061573 -0.000366817 -4.3599e-18)
(-0.00604321 -0.0128698 1.47532e-18)
(-0.205274 -0.176221 2.74697e-17)
(0.191178 0.187305 -3.5056e-17)
(0.139052 0.237584 -2.58413e-17)
(0.00152132 0.00972322 -1.97785e-17)
(-1.93682e-05 0.000254205 6.83196e-18)
(-0.0058254 0.00631472 -1.69435e-17)
(0.0016238 -0.000404258 3.79024e-19)
(-0.000339927 -0.000385157 1.73159e-18)
(-0.00275003 -0.000135594 1.17585e-18)
(-0.000312081 0.000644293 3.42105e-18)
(-3.08449e-07 2.05876e-05 -2.35061e-18)
(-0.291333 -0.0373788 -5.66697e-17)
(-9.89855e-05 0.000332268 -5.08336e-18)
(-0.0174485 -0.0136844 3.38296e-18)
(-0.00386966 -0.0131942 1.13435e-17)
(-0.538389 -0.594 2.94842e-17)
(0.00145854 0.000196074 -2.18006e-19)
(-0.00704954 0.000617432 4.18061e-18)
(0.0325283 0.548924 -1.72708e-17)
(-0.00237019 0.0604425 4.50995e-17)
(0.804333 0.0703519 1.56099e-17)
(0.00224271 -0.053333 -2.3603e-18)
(-0.00049742 -0.000757982 -4.80218e-18)
(-0.00639367 -0.000852825 -9.36199e-19)
(-0.00062813 0.00129487 -2.02007e-18)
(-0.00211939 -0.0812856 6.43214e-17)
(0.000342576 -0.000115447 7.51414e-19)
(-0.219277 0.0125926 1.92825e-17)
(-0.062786 -0.00948783 -3.35697e-18)
(-0.0151731 -0.0231137 -2.77847e-17)
(-0.139029 -0.120025 -1.77306e-16)
(-0.374652 -0.680504 2.18104e-19)
(-0.000138569 0.000320866 5.70035e-18)
(-0.0010407 5.76715e-06 1.20467e-18)
(-0.19996 -0.244149 -2.12307e-18)
(0.00491592 -0.0757759 -3.15042e-17)
(-0.000225022 0.00123664 1.24868e-17)
(-0.304212 0.129123 -1.51269e-17)
(-0.000151148 0.000379877 -3.35841e-18)
(-0.000107893 0.000455196 -1.23504e-19)
(-0.0871385 0.1201 7.45879e-18)
(0.000283316 -0.000212703 -3.0189e-18)
(0.0177566 -0.0851911 -1.04536e-17)
(0.00133407 -0.000205296 1.42582e-18)
(0.12261 0.0258266 -2.71886e-18)
(-0.000234828 0.00128782 1.42636e-19)
(0.00220964 -0.00214959 -1.01132e-19)
(-0.549328 -0.378477 -1.52269e-17)
(0.00188201 0.0403339 -1.07969e-17)
(0.0379194 0.0246718 -7.34215e-18)
(-0.00308712 0.00852479 -1.23782e-17)
(-0.000218174 0.000395273 1.40507e-18)
(-0.00120228 -0.000319256 -3.89065e-18)
(-0.204401 -0.205179 3.33243e-17)
(-0.0131368 -0.0147402 4.27018e-19)
(0.000957683 -0.000287951 5.9792e-19)
(-6.5395e-05 0.000481646 1.18677e-18)
(-0.013441 0.00935956 -3.80935e-18)
(0.00459526 0.01714 1.10394e-17)
(0.0346605 0.0279317 -2.29624e-18)
(-0.00670473 -0.0187672 2.81596e-18)
(-7.89634e-05 0.000453962 5.44654e-18)
(-0.000674711 0.000888565 7.49319e-19)
(-0.0549545 0.0514949 1.99135e-17)
(-0.000232219 0.000384922 1.00253e-17)
(-0.0087838 0.562456 4.69177e-18)
(-0.055947 0.0643193 -1.66993e-17)
(-0.00013926 0.000827763 -5.07291e-18)
(-0.000369645 0.000179229 3.05201e-19)
(0.00286381 -0.00240036 2.86107e-19)
(-0.000177993 0.000436673 -1.58262e-18)
(0.00104541 -0.00155076 -1.99654e-18)
(0.517101 0.240106 9.62307e-20)
(-0.00794937 0.0268997 1.548e-17)
(0.0645076 0.26109 -2.514e-17)
(0.00300397 0.0119728 -1.92974e-17)
(0.00555899 -0.000939464 2.4026e-18)
(0.00311619 -0.0277444 5.28187e-18)
(-0.000257443 0.00774983 1.80959e-17)
(0.216213 0.379614 7.25911e-17)
(-0.00258344 0.00958783 -1.22031e-17)
(-3.77427e-05 0.000635764 8.49294e-19)
(-0.000280015 -0.00799544 1.56278e-18)
(-0.0588264 -0.068003 -4.24636e-18)
(-0.00136805 0.00160155 1.09315e-18)
(-0.000976339 0.00107816 -8.4209e-18)
(-0.00100536 0.00182417 7.45606e-19)
(0.000325428 -0.000118164 4.18309e-19)
(-0.000453124 0.000244302 -6.95981e-19)
(-0.000775035 -0.00132906 -1.31338e-18)
(-0.000145435 0.000428068 2.22715e-18)
(-0.000110091 0.000203791 -7.09945e-18)
(-0.00459207 0.00162182 -2.7668e-18)
(0.00552818 -0.00639153 -2.88182e-18)
(0.0656032 -0.0896095 5.53389e-18)
(0.000461774 -2.44892e-05 -1.48182e-18)
(0.00212487 0.0680584 4.05291e-17)
(-0.00528008 0.00722631 -2.92042e-17)
(-0.0691396 -0.0103692 3.03284e-18)
(-0.0598527 0.23367 -4.58392e-17)
(0.00207124 -0.000382301 3.05628e-19)
(-0.0452976 0.14925 2.13521e-17)
(-0.0111106 -0.0200655 3.22239e-18)
(0.00190593 -0.000466426 -4.36523e-19)
(0.00034503 -0.000171198 -2.05328e-18)
(-0.00182954 0.000941284 1.72267e-18)
(-0.505315 -0.68135 9.37181e-17)
(0.00569105 -0.0772945 3.97515e-17)
(0.000363903 -0.000147328 1.79628e-18)
(-0.000121449 0.00133448 3.59416e-18)
(-0.000102206 0.000433307 3.65598e-18)
(0.0131593 0.0317025 2.39663e-17)
(-0.0563138 -0.0195277 5.79193e-18)
(0.0812564 0.209878 -7.42659e-18)
(-0.0001478 -1.41777e-05 7.73708e-19)
(-0.000298998 0.000979016 1.18962e-18)
(-0.00496989 0.0139524 5.24202e-18)
(-0.0450857 0.0012321 -1.17939e-17)
(0.00724457 0.120422 -9.03492e-18)
(-0.00301042 0.00534589 2.45264e-18)
(0.00423783 -0.00400599 -2.36856e-18)
(-0.808571 -0.755777 -5.08383e-18)
(-0.0594363 0.180797 6.22542e-18)
(0.111196 -0.191444 -1.85891e-17)
(-0.00282402 0.00101738 -9.39382e-18)
(-0.000574601 -0.000708444 -6.91682e-18)
(-0.0798091 0.462208 -7.33717e-17)
(-0.000886098 0.000513723 6.22101e-18)
(-0.0466832 -0.0263826 -1.31575e-18)
(-0.631105 -0.506655 -5.29024e-17)
(0.000949819 -0.000238333 -1.35435e-19)
(-0.0407324 0.049709 -7.42195e-17)
(-0.00326725 -0.0104901 -2.14799e-18)
(0.410886 0.253223 -6.26516e-17)
(-0.00114496 -0.000321621 -4.33844e-18)
(-0.0907846 0.345457 -6.56334e-18)
(-0.0642892 0.0693591 -7.94333e-19)
(0.0101656 -0.00136456 2.39198e-18)
(-0.00793787 0.216109 2.33741e-17)
(-0.000867859 0.000400256 -1.68603e-18)
(-0.119889 0.0444479 5.43179e-18)
(-0.000180938 0.00129428 5.21844e-18)
(-0.00100133 -8.80708e-05 -4.78054e-18)
(-6.59417e-05 0.00044098 -2.79103e-18)
(-0.000640083 0.00120194 -6.76673e-18)
(-0.233244 -0.241118 -4.49983e-17)
(-0.000949811 0.00018989 -6.03535e-18)
(0.00147543 -0.000714901 -1.64628e-19)
(-0.00220729 0.00388019 1.19876e-17)
(0.00124732 -0.000259259 -1.02545e-18)
(-0.000601827 -0.000673725 3.09648e-18)
(-0.0157721 -0.0113147 3.46621e-18)
(-0.00509423 0.00067243 -1.2675e-18)
(0.0176662 -0.0143749 -1.54206e-17)
(-0.000266081 -0.000104903 7.74084e-18)
(-0.000253747 -2.49859e-05 -4.38819e-18)
(0.0298078 0.554302 3.31716e-17)
(0.00244386 0.0363453 -2.14677e-17)
(-0.00294659 0.00498426 -7.6115e-18)
(-0.774923 -0.683672 -8.28606e-18)
(0.0050799 -0.00605369 1.85234e-19)
(-0.00322861 0.000216808 8.77756e-18)
(-2.11527e-05 0.00113213 3.11953e-18)
(0.00106391 -0.00146876 4.54052e-19)
(-0.231394 -0.153959 4.17368e-17)
(0.00151018 -0.000620783 -9.91069e-19)
(-0.000172687 3.06207e-05 1.1453e-18)
(-0.156498 0.0441564 3.35867e-18)
(-0.18258 0.00189128 -2.60159e-17)
(-0.0192181 0.000196505 -1.58154e-17)
(-0.000507769 0.000298231 8.28957e-19)
(-3.50939e-06 0.000344127 -4.52977e-18)
(0.00023543 -0.00369969 -3.82425e-20)
(-4.63812e-05 0.000582127 -1.69784e-18)
(-0.575963 -0.644475 -3.80519e-17)
(-0.00246138 0.00144075 -6.17824e-19)
(0.079669 0.036342 2.72273e-18)
(0.00670567 -0.00339605 -1.69386e-18)
(0.0265716 0.0789828 -5.50108e-17)
(-2.00736e-05 0.000619195 -7.69976e-18)
(-0.0807718 0.00918579 -3.63641e-17)
(5.52807e-05 -2.98995e-05 -1.78016e-18)
(-0.0469531 -0.0476642 7.72778e-18)
(-0.000862957 0.00057629 3.52572e-18)
(0.0820014 0.0126846 -2.3917e-17)
(-0.0178366 0.577228 -4.9731e-17)
(-0.000159407 0.0013846 -7.38969e-19)
(-0.330376 -0.0637391 2.29184e-17)
(-0.00103056 0.000445527 -2.6315e-18)
(-4.90936e-05 2.42411e-05 5.40329e-18)
(0.000777595 -0.000808985 7.80552e-19)
(-0.362454 -0.518817 1.11223e-16)
(-0.0291025 0.51828 9.37919e-17)
(-0.00174701 0.00105602 -4.87721e-18)
(-0.00344297 -0.01112 2.47839e-19)
(0.00159235 -0.000476675 -2.07592e-19)
(-0.74368 -0.744387 -5.69621e-17)
(0.000443507 -2.74613e-05 1.96384e-18)
(-0.0128251 -0.0114896 -2.25318e-18)
(-0.122189 0.306275 -2.87443e-18)
(0.000122247 0.00863106 -2.82251e-17)
(-0.000163766 -1.22617e-05 1.14785e-19)
(-0.0176409 0.0193554 -2.28614e-17)
(-5.21769e-05 0.000184585 -1.58173e-18)
(0.000364196 -0.00384706 5.55274e-20)
(0.00060404 -0.00191686 3.1448e-19)
(0.0642276 -0.0758803 -4.28329e-18)
(-0.00020236 8.07586e-05 5.37628e-19)
(-0.799504 -0.780583 -5.7979e-17)
(-0.000247862 6.73917e-05 2.47999e-18)
(-0.00301315 -0.000543283 6.92418e-18)
(0.0274834 -0.00995495 2.50258e-18)
(-0.0302013 0.0258475 -1.48568e-17)
(0.050172 -0.367588 -5.92127e-17)
(-0.000442552 -0.00115428 6.31522e-19)
(-0.0781593 -0.0128566 2.90545e-17)
(-0.00105707 -7.00523e-05 -7.22247e-19)
(-0.0602454 -0.0227254 -1.34599e-17)
(-0.0006787 0.000809649 3.32809e-18)
(0.00217374 -0.002709 3.47193e-19)
(-0.000943158 0.000388038 -2.96255e-18)
(-0.000238121 5.48003e-05 7.54559e-18)
(-9.68242e-06 0.000572565 -4.38569e-18)
(-0.0645521 -0.0240817 4.26983e-18)
(0.024496 0.0157268 -5.29863e-19)
(-0.273421 -0.0242629 -3.83757e-17)
(-0.0304978 0.00385505 2.73861e-17)
(-0.00783582 0.0161215 -5.10441e-19)
(-0.0153011 0.00682426 5.11515e-18)
(-0.0918638 0.106283 4.32887e-18)
(-0.000294683 -0.00702556 5.71149e-20)
(-0.386143 -0.508803 6.98995e-17)
(0.284586 0.311332 6.55567e-18)
(-0.0562259 -0.0469441 -1.87719e-17)
(-0.0352172 0.0686173 -1.45407e-17)
(-0.497773 -0.512361 4.32181e-17)
(-0.0502901 -0.0342517 -1.23148e-17)
(0.00057242 -0.00368552 1.82806e-19)
(-0.00114846 0.0742836 -2.1415e-17)
(0.0281258 -0.00748258 7.15563e-18)
(0.0019621 -0.00260411 -5.87184e-19)
(-0.0597088 -0.0551595 3.081e-17)
(-2.83762e-05 0.00019287 6.81411e-19)
(-0.088981 0.0206123 5.49269e-18)
(-0.0179809 -0.000566922 -2.18207e-18)
(-0.0438345 -0.187222 9.49622e-18)
(0.00173958 0.0109735 1.13762e-17)
(-0.0315059 0.081545 -9.00803e-17)
(0.466167 0.274375 -3.1687e-18)
(0.0245222 -0.0104578 -2.42669e-18)
(-0.0257372 -0.17341 4.30829e-17)
(-5.36474e-05 0.000588902 4.75055e-18)
(-0.100649 -0.0339572 -1.62651e-17)
(0.000540967 0.00413772 6.83057e-18)
(-0.00081889 0.000697613 2.27824e-18)
(-0.00271095 4.40532e-05 3.58454e-18)
(0.00510987 0.00110374 -1.51182e-18)
(-0.0120056 -0.0149025 9.08218e-18)
(0.0765587 0.45606 5.68804e-17)
(-0.0759238 0.0117728 -2.23792e-18)
(0.298787 0.131099 5.07076e-18)
(-0.000699061 -0.0064819 -1.30513e-18)
(-0.00548096 0.00275813 6.94078e-18)
(0.447302 0.219416 6.10355e-17)
(0.00593962 0.0587897 -4.55524e-17)
(0.00351984 -0.00406707 -1.88764e-18)
(-0.00123093 -0.0460131 1.33864e-17)
(-0.00290389 0.0016824 -1.59846e-17)
(-0.0351571 0.122103 3.00247e-18)
(-0.342864 -0.15217 3.99412e-18)
(-0.000171342 0.000700964 6.76134e-18)
(0.00821689 0.0332773 -5.12727e-17)
(-0.0524532 0.045701 6.909e-17)
(0.433378 0.349532 -3.2707e-17)
(-0.000139577 1.82517e-05 1.06384e-18)
(-0.00639798 0.00677196 3.57451e-18)
(-0.104336 -0.0203774 -2.94925e-17)
(0.00795399 -0.0120973 -6.82527e-19)
(-0.411745 -0.249878 -4.14682e-17)
(0.0859079 0.00665116 1.31651e-17)
(-0.360598 -0.540598 -3.64457e-17)
(-0.00783791 0.00331092 -4.11534e-18)
(-0.000729303 -0.00733016 7.32114e-20)
(-0.00102659 -0.00179696 -1.55803e-18)
(-0.000403045 0.000944622 1.85293e-17)
(0.165142 0.0231296 -1.31651e-17)
(-1.08679e-05 0.000304841 -1.74263e-18)
(0.174668 0.0345661 1.30328e-17)
(-0.0548222 0.000682983 -1.47902e-17)
(-0.0202985 -0.0231191 2.10987e-17)
(-1.70818e-05 0.0001046 5.68088e-18)
(-6.5723e-05 0.000202685 1.07365e-18)
(0.00595009 -0.000284026 -1.90333e-18)
(0.00290059 5.9896e-05 4.86986e-19)
(-7.98995e-05 -5.26277e-05 -8.02503e-19)
(-0.00113143 0.000698295 -3.27123e-18)
(-0.0266238 -0.000690589 -9.97983e-18)
(-0.561438 -0.750578 -1.19809e-17)
(0.790761 0.0474522 -1.88698e-17)
(-1.41233e-05 0.00017665 -1.06739e-17)
(-0.0153506 -0.0710521 -5.58829e-18)
(-0.000462427 0.000353259 2.20603e-18)
(0.285375 0.41281 3.33739e-17)
(0.0266941 -0.026782 -8.70764e-18)
(-0.0118751 0.0222658 4.78421e-17)
(0.00344495 0.0170553 -1.8002e-17)
(-0.0768482 0.0595993 1.0469e-17)
(-7.34131e-06 -0.000371601 9.16248e-19)
(-0.000356727 0.000463482 8.36294e-18)
(-0.0170292 0.0172176 2.96959e-17)
(-0.000890617 0.000449489 3.4137e-18)
(0.000268323 -0.00339381 7.90535e-19)
(-0.014742 -0.0341752 -2.4833e-18)
(0.686793 0.0879953 1.03109e-16)
(0.0010809 -0.000616437 -1.90686e-18)
(0.169699 0.0044755 -3.62116e-17)
(-0.295774 0.0114888 -4.4142e-17)
(0.00183243 -0.00803926 -2.89852e-18)
(-0.509135 -0.75281 6.43408e-18)
(-0.415561 -0.0558229 8.17083e-17)
(-0.000835093 -0.001359 -1.25968e-18)
(-0.0160048 -0.0182302 1.24294e-17)
(0.0117448 -0.00107564 -3.08639e-18)
(-0.00170849 -0.00168193 -3.31147e-19)
(0.000704389 -0.000797188 -4.84256e-19)
(-0.0135042 0.0405651 3.78535e-17)
(-0.249467 -0.0167431 5.43508e-17)
(0.271992 0.197351 -4.0011e-17)
(-0.00126347 0.00156489 -3.16149e-18)
(-0.000131099 0.000369607 2.84953e-18)
(0.000345747 -0.000927082 -6.72478e-19)
(0.00616425 0.00281856 -4.92454e-19)
(-0.00487631 0.000316254 -4.22033e-18)
(-0.00646814 0.00153423 2.61285e-18)
(0.0376072 0.0637893 -1.01507e-17)
(0.029558 -0.0240241 3.27659e-18)
(-0.000119066 0.000244943 8.08395e-18)
(-0.170716 0.170268 2.77488e-17)
(0.00674033 -0.0138602 3.14017e-18)
(-0.00785873 0.0156835 1.57201e-17)
(0.000367744 -0.00323647 -9.17382e-19)
(-0.291515 -0.00806079 1.777e-17)
(0.00471506 -0.00472376 -6.74302e-19)
(-0.00018435 2.86577e-05 -4.64581e-18)
(-0.0192218 -0.0235807 1.5778e-17)
(0.00351446 0.070899 4.85632e-17)
(0.00101775 -0.000278301 9.71044e-19)
(-0.000116428 0.000529387 3.49719e-18)
(-0.000582282 0.0013716 -3.72106e-18)
(0.00918661 -0.000895339 -1.66376e-18)
(7.62233e-06 -0.000358635 -6.34154e-19)
(0.023816 -0.0126252 2.04253e-18)
(-0.235829 -0.0981614 -5.29252e-17)
(-0.00323047 -0.000647613 3.23605e-18)
(0.07228 -0.0725116 1.69141e-17)
(0.00319167 -0.00388114 4.53315e-19)
(0.000285567 -0.00299598 2.59656e-19)
(-0.090709 -0.410154 -2.20915e-17)
(0.110133 0.317996 1.2133e-17)
(0.2137 -0.125163 -5.66283e-17)
(-0.000318334 0.000740532 1.00443e-17)
(0.00117066 -0.000280715 -7.59344e-20)
(0.426653 0.219876 1.24101e-17)
(-0.00220678 0.0087692 -3.05237e-17)
(0.205711 0.0594879 3.06388e-18)
(0.00100111 -0.000186514 1.27934e-18)
(-0.00106859 0.000530862 5.85377e-20)
(-0.20617 -0.0424404 1.21067e-17)
(0.0846137 0.0212297 -4.6811e-18)
(-0.00512535 -0.011866 -1.84232e-18)
(0.0337142 -0.0894726 -7.4694e-18)
(0.00181711 0.0325345 -8.93341e-17)
(-0.00108242 8.58108e-06 2.91567e-18)
(-1.07405e-05 9.54953e-05 -3.47242e-19)
(-0.00186243 -0.00153299 -2.45482e-18)
(0.176563 0.149893 2.13474e-17)
(-0.00016872 1.32446e-05 -4.74511e-18)
(1.80585e-06 2.5154e-05 -1.82014e-18)
(0.23797 0.189348 -7.24856e-17)
(0.00174362 0.0107808 2.93283e-18)
(0.0189736 0.0523727 -3.83336e-17)
(0.00139114 0.0161797 2.57416e-17)
(-0.000479924 0.000320909 -1.46348e-18)
(0.048251 0.320336 -2.41826e-17)
(-2.67258e-05 0.000440601 -5.79868e-18)
(-0.000787939 0.000673491 -5.64293e-18)
(-0.00176909 -0.00155339 -2.91543e-18)
(-0.0123858 0.0058581 8.90586e-18)
(0.0644159 0.440879 -4.57032e-18)
(-0.000154084 0.000373564 -4.62617e-18)
(-3.13224e-05 0.00137545 4.31473e-18)
(-0.000929708 0.000313264 9.08838e-19)
(-0.00100202 0.000141632 5.67093e-19)
(-0.000485081 0.000347872 1.85237e-18)
(-0.00122113 -0.00187029 -3.28589e-19)
(-0.18336 0.0355853 -3.03053e-17)
(-0.0132004 0.00654898 -8.12594e-18)
(-0.00436711 0.00169013 7.3895e-18)
(-0.000222996 0.000745233 2.34788e-18)
(-0.0130139 0.00782954 2.05858e-17)
(-0.0197311 -0.0190261 4.85771e-18)
(0.0105016 0.000147632 1.63825e-18)
(0.00224018 0.0119015 1.66299e-18)
(-2.46925e-06 4.88426e-05 2.12678e-18)
(0.000400325 -0.000915107 -1.66145e-18)
(-0.0053594 -0.00158385 3.41718e-18)
(-0.0166851 0.548979 -2.26472e-17)
(0.433884 -0.330073 8.24353e-19)
(0.00522537 -0.000750554 5.71269e-19)
(0.410034 0.210668 2.46758e-17)
(-6.09179e-05 0.000603419 -3.84842e-18)
(-0.00755478 0.0035614 1.18477e-18)
(0.117158 -0.122992 5.40931e-17)
(-0.00418379 0.0737503 -5.7044e-17)
(-0.000181874 -0.00143344 -4.7661e-19)
(-0.000110476 0.000269197 -4.92097e-18)
(0.0149414 0.0584503 -3.55257e-17)
(0.00894062 -0.0377537 5.24566e-18)
(-0.000183191 -1.72404e-06 -5.00379e-18)
(-3.29253e-05 0.00067956 3.5592e-18)
(-0.779242 -0.749446 6.35669e-18)
(-1.22219e-05 6.67355e-05 -5.59475e-18)
(-0.0105936 -0.00971167 2.5327e-18)
(-0.000363129 0.0002877 2.17627e-18)
(0.00193547 0.0619306 -5.1027e-17)
(-4.42256e-05 0.000652701 -3.6639e-18)
(0.000150854 -3.21397e-05 9.41548e-19)
(-0.000125451 0.00124211 -4.71632e-18)
(-0.00847626 -0.00915905 2.89133e-19)
(0.00275017 0.000126825 3.80075e-20)
(-0.00522457 0.00560333 2.7165e-18)
(0.00130193 0.00951237 5.56653e-18)
(0.00822475 0.047631 7.18471e-17)
(-0.000402428 -0.000336334 -2.4037e-18)
(-0.000446987 0.000185726 6.09124e-19)
(-2.98111e-05 0.000115799 -1.42132e-18)
(-0.00103406 -0.000122246 5.38049e-18)