/*--------------------------------*- C++ -*----------------------------------*\
| =========                 |                                                 |
| \\      /  F ield         | OpenFOAM: The Open Source CFD Toolbox           |
|  \\    /   O peration     | Version:  v2012                                 |
|   \\  /    A nd           | Website:  www.openfoam.com                      |
|    \\/     M anipulation  |                                                 |
\*---------------------------------------------------------------------------*/
FoamFile
{
    version     2.0;
    format      ascii;
    class       surfaceVectorField;
    location    "300";
    object      ddtCorrDdt0(Uf);
}
// * * * * * * * * * * * * * * * * * * * * * * * * * * * * * * * * * * * * * //

dimensions      [0 1 -2 0 0 0 0];


internalField   nonuniform List<vector> 
14470
(
(-0.001888 0.00246542 -2.38217e-18)
(-0.00188736 0.00254847 -6.50233e-18)
(-0.0016305 0.00259322 -1.30514e-18)
(-0.0670666 0.0587601 -3.86718e-17)
(-0.0295817 0.0461267 3.48309e-17)
(-0.000538893 0.00126448 4.96626e-18)
(-0.000617971 0.00126081 -3.28368e-19)
(-0.000585124 0.0011953 1.63469e-18)
(0.119337 0.392608 -2.14691e-17)
(0.0960514 0.404464 -5.00226e-17)
(0.108563 0.372613 -6.03715e-17)
(-1.90077e-05 0.000630641 9.7304e-19)
(-2.00463e-05 0.000639592 4.4263e-19)
(-2.57878e-05 0.000720352 4.39227e-18)
(-0.107948 -0.0464398 -1.09792e-18)
(-0.12306 -0.0436889 -1.84841e-17)
(-0.110801 -0.0317015 -1.17371e-17)
(-0.0137621 -0.0227538 -6.25086e-18)
(-0.0115268 -0.0209485 1.13408e-17)
(-0.0103873 -0.024078 1.04245e-17)
(-0.107199 0.191405 -2.02776e-17)
(-0.0772346 0.197989 5.32296e-17)
(-0.0665493 0.157324 -1.08534e-17)
(-0.00177327 -0.00228839 1.18004e-18)
(-0.00183502 -0.00243962 1.55336e-18)
(-0.00198382 -0.00228651 1.47381e-18)
(-0.000108 0.000266869 1.78483e-18)
(-0.000105425 0.000312376 -9.04437e-19)
(-0.00010306 0.000303102 6.98783e-19)
(-0.000105052 0.000263173 -2.2718e-18)
(-0.000122768 0.000249998 8.71112e-19)
(-0.000553875 0.00017219 -1.5448e-18)
(-0.000532615 0.000268089 -1.61298e-19)
(-0.000559307 0.000284336 2.58373e-18)
(0.802913 0.0812206 -6.12881e-17)
(0.789601 0.0927674 2.77139e-17)
(0.803856 0.0901385 9.91535e-18)
(-0.000441286 -0.00137826 1.34028e-19)
(-0.000384724 -0.00128936 -6.59175e-20)
(-0.000324085 -0.00142968 -2.59503e-20)
(0.0104685 -0.00111249 5.74078e-19)
(0.011331 -0.000970086 -2.30926e-18)
(0.0106526 -0.000294574 2.51043e-19)
(-0.01381 -0.0227588 -6.71527e-18)
(-0.0161975 -0.02251 8.55369e-18)
(-0.0150187 -0.0206495 -9.56438e-18)
(-0.000683427 0.00108202 -1.2827e-18)
(-0.000738687 0.000992113 -2.38076e-19)
(-0.000710234 0.00106045 1.32273e-20)
(-0.0387658 0.31682 7.49865e-18)
(-0.053207 0.340817 1.46551e-17)
(-0.010923 0.358255 -2.19055e-18)
(0.000509639 -0.000389167 2.11488e-19)
(0.000528774 -0.000326948 -5.35752e-19)
(0.000540715 -0.000334646 -4.15598e-19)
(0.000756066 -0.000931988 -7.63977e-19)
(0.000830328 -0.000886364 -6.50126e-19)
(0.000780783 -0.000841677 -2.09721e-19)
(1.16631e-06 0.000262153 1.2614e-18)
(7.5261e-07 0.000263134 -1.27081e-18)
(0.0935439 0.213916 -4.3061e-17)
(0.066139 0.212266 -1.87998e-18)
(0.07733 0.250944 -3.32447e-18)
(-0.130162 0.210084 -1.39799e-17)
(-0.126126 0.176722 -3.02212e-17)
(0.798768 0.056297 -3.87227e-17)
(0.8254 0.0788437 -1.37691e-17)
(-0.00663083 0.00737711 6.11171e-20)
(-0.00638839 0.00700797 -3.53447e-18)
(-0.00609934 0.00743505 9.97687e-19)
(-0.000253391 0.000813286 1.99863e-18)
(-0.000285975 0.00076398 2.89936e-18)
(-0.000256373 0.000801005 8.61073e-19)
(-1.58657e-05 0.000186029 -3.88815e-19)
(-1.87997e-05 0.000205797 -4.05474e-19)
(-3.15978e-05 0.000216927 6.71029e-19)
(0.00048367 -0.000421198 -1.30873e-18)
(0.000507207 -0.000435089 -2.52811e-19)
(-0.0114333 -0.0075313 1.88578e-18)
(-0.0118451 -0.00581188 6.50839e-18)
(-0.00973279 -0.00648936 2.68157e-18)
(-0.29375 -0.000343285 -1.83158e-18)
(-0.294107 -0.00547198 1.67912e-18)
(-0.30875 -0.00101189 -9.98908e-17)
(-0.160209 0.0612744 1.78555e-17)
(-0.143225 0.0413283 -1.93235e-17)
(-0.134066 0.0654847 -1.98496e-17)
(-0.000355542 0.000255121 -6.60669e-19)
(-0.000306455 0.000264632 2.16931e-19)
(-0.000346604 0.000381384 5.60916e-19)
(-0.00066053 0.000931395 2.12326e-18)
(-0.000677127 0.000906096 2.21986e-18)
(-0.000689302 0.000886259 -9.21997e-19)
(-0.000105212 -2.93574e-05 4.88022e-19)
(-0.000117067 -2.77649e-05 -2.07909e-18)
(-0.000135176 -1.56848e-05 2.74583e-18)
(0.00512432 -0.012959 -2.60356e-18)
(0.00431997 -0.0128285 -2.51058e-18)
(0.00466273 -0.0138061 -8.5554e-18)
(0.00811832 -0.00203835 2.73066e-18)
(0.00768506 -0.00239779 -7.1529e-19)
(0.00745758 -0.00189815 9.22656e-19)
(-0.000251192 0.00797492 1.57516e-17)
(-0.000105894 0.00842844 -1.06862e-17)
(-0.000633625 0.00834283 1.32964e-17)
(-0.182042 0.20125 -4.26961e-17)
(-0.141174 0.252657 4.19949e-17)
(-0.228867 0.210363 1.72123e-17)
(-0.00574999 -0.0127849 4.56233e-19)
(-0.00521127 -0.0122643 -1.37345e-18)
(-0.00491904 -0.0130959 -6.73306e-18)
(-0.0110611 -0.00905636 9.16847e-18)
(-0.0126141 -0.00856227 8.66149e-18)
(-0.229024 -0.0332823 -1.74861e-17)
(-0.1911 -0.000270998 -1.24568e-17)
(-0.204109 0.0160033 -5.29237e-18)
(0.266449 0.0722757 1.56379e-17)
(0.228422 0.0902996 1.37739e-17)
(0.338328 0.151561 -6.20583e-18)
(-5.93035e-06 0.000129834 -4.96218e-19)
(-1.58716e-05 0.000173119 -2.4558e-18)
(-0.000128936 0.00149238 3.79202e-18)
(-0.0001624 0.00155033 -4.59322e-18)
(-0.000116633 0.00156551 1.75939e-18)
(-0.000122199 0.000374949 -1.06447e-18)
(-0.000119586 0.000483333 1.95276e-18)
(-9.754e-05 0.000482725 3.30687e-18)
(-0.00141847 -0.00724684 -2.62955e-17)
(-0.0108398 -0.00915513 3.65589e-18)
(0.017096 0.0021831 -1.03074e-17)
(-1.59276e-05 0.00038 -4.5287e-18)
(-1.41031e-05 0.00022027 -9.88638e-19)
(-1.73265e-05 0.000203924 -2.4326e-18)
(0.00164465 -0.000584543 8.47579e-20)
(0.00162612 -0.000510217 -1.81688e-19)
(0.00172146 -0.000557404 7.28955e-20)
(-0.000653771 0.00116366 -3.24362e-18)
(-0.00067222 0.00110259 -2.87673e-18)
(0.00633233 -0.0133746 3.33496e-18)
(0.00587881 -0.0121565 3.4403e-18)
(-8.85916e-05 -4.81745e-05 3.09229e-19)
(-8.71782e-05 -3.18465e-05 1.87723e-18)
(-0.00154879 -0.0197778 5.39704e-18)
(-0.00272067 -0.0205549 3.72173e-18)
(-0.000968653 -0.020684 5.1546e-18)
(-2.95438e-05 0.000507865 -9.1883e-19)
(-2.63739e-05 0.000533335 -3.60364e-18)
(-0.0135696 0.00900447 -4.38077e-18)
(-0.0133879 0.00816735 7.37663e-18)
(-0.0143711 0.00833454 -9.7063e-19)
(0.140934 0.410615 6.99203e-17)
(0.158697 0.37026 3.97913e-17)
(-0.00050128 0.000226313 6.54716e-20)
(-0.000481262 0.000282789 6.72837e-19)
(-0.000482328 0.000210039 2.48073e-18)
(0.0225205 -0.0836091 -1.09164e-17)
(0.0306961 -0.0860731 -9.44009e-18)
(0.0290504 -0.0775533 5.72103e-18)
(0.00157117 -0.000620544 -3.17381e-19)
(0.00166918 -0.000666207 6.8647e-20)
(-1.00399e-05 0.000232581 -6.79081e-19)
(-0.00241301 0.00980851 -4.32473e-18)
(-0.00227568 0.0102291 -6.52416e-19)
(-0.00194818 0.00980556 4.58652e-18)
(-0.0432038 0.0183695 -6.2685e-18)
(-0.0445675 0.0154677 -7.50686e-18)
(-0.0474372 0.019578 -5.09292e-18)
(-0.000577884 0.0012819 5.88719e-19)
(-0.000574491 0.00132962 5.54459e-19)
(-0.000529423 0.00129028 5.99801e-18)
(0.0204642 -0.0131483 -4.32086e-19)
(0.0185834 -0.0136177 -9.69006e-18)
(0.0194983 -0.0117617 4.58518e-19)
(-0.000144987 -4.33636e-06 1.30296e-19)
(-0.000143084 1.13616e-05 3.23877e-19)
(-0.000149632 1.66988e-05 1.44824e-18)
(-0.00175465 -0.00207012 -2.41537e-18)
(-0.00156842 -0.00221807 -1.82526e-18)
(-0.0699311 0.00507711 -2.61496e-17)
(-0.0723154 -0.0062215 7.09935e-18)
(-0.000484979 -0.00791049 8.58155e-19)
(-0.000719896 -0.00755669 5.11641e-20)
(-0.000982617 -0.00799191 -2.57933e-18)
(0.008559 -0.0016097 3.37045e-18)
(0.00886087 -0.00109818 -4.0571e-20)
(0.00819663 -0.0010473 3.80146e-19)
(-0.145171 -0.0104274 2.37409e-17)
(-0.151158 -0.0536269 -3.74016e-18)
(-0.11295 -0.0248439 -1.95043e-17)
(-0.000972357 0.00165252 3.59765e-18)
(-0.00095481 0.00175128 3.25014e-18)
(-0.000901699 0.00161613 -5.287e-19)
(0.00204831 0.0413422 8.23923e-17)
(0.00333137 0.0434418 8.47903e-18)
(0.000739303 0.0437146 -3.67633e-17)
(0.0190992 0.126694 1.19935e-17)
(0.0089981 0.171302 5.29257e-19)
(0.0693822 0.129372 2.86414e-17)
(0.123893 0.0850417 -9.99001e-19)
(0.12437 0.0855404 1.31199e-17)
(0.124626 0.088318 -6.8947e-18)
(-0.17119 -0.254583 -2.3851e-18)
(-0.209799 -0.252577 -1.88408e-17)
(-0.19139 -0.286893 -3.32171e-17)
(-1.60145e-05 0.000380739 6.89632e-19)
(-1.11858e-05 0.000404765 6.93514e-20)
(-3.3119e-05 0.000443765 3.73214e-19)
(-0.0156059 0.0212858 -2.2908e-17)
(-0.0167519 0.0200328 -9.77401e-18)
(-0.0148862 0.0202239 -1.59261e-17)
(0.0342162 0.217502 -3.87193e-17)
(0.0836358 0.215098 -3.10882e-17)
(0.100622 0.238725 2.37634e-17)
(-0.00033064 0.000968099 -3.04061e-19)
(-0.000358266 0.00109923 2.34486e-18)
(-0.000354294 0.000904572 -1.85374e-18)
(-1.59878e-05 0.000591055 3.75667e-18)
(-1.73964e-05 0.000576334 -4.75907e-18)
(-8.93163e-06 0.000426491 -2.07048e-18)
(-0.0164201 0.0223621 -2.58589e-17)
(-0.015065 0.0221352 -5.56631e-17)
(-0.0165956 0.285976 -1.78241e-17)
(-0.0620088 0.275623 -3.68643e-17)
(-0.0119674 -0.0223487 -1.36474e-18)
(-0.012575 -0.024424 2.15874e-18)
(-0.0067786 0.001094 -2.64179e-18)
(-0.00689732 0.000741128 -2.833e-19)
(-0.00650239 0.000751394 -7.84866e-19)
(0.00883573 -0.00217812 2.47277e-19)
(0.0179628 0.0452453 -3.73645e-18)
(0.0222244 0.0334115 6.24179e-18)
(0.0111148 0.0362796 2.18369e-17)
(-1.28237e-05 0.000610301 2.6922e-18)
(-2.44088e-05 0.000678534 2.65695e-18)
(0.0608803 -0.0334085 1.28112e-17)
(0.055442 -0.030851 4.93504e-18)
(0.0608527 -0.0270479 1.01381e-17)
(-0.233072 0.149503 -4.11478e-17)
(-0.118074 0.20006 -5.32727e-19)
(-0.0402183 0.0184872 -5.53972e-18)
(-0.0412898 0.0227065 -1.06227e-17)
(0.182273 0.206917 -4.42672e-17)
(0.153716 0.232624 -3.86865e-17)
(0.186658 0.248322 3.15175e-17)
(0.160557 0.0652785 2.05835e-17)
(0.136851 0.0821942 1.49146e-17)
(0.174874 0.0969142 -2.55292e-17)
(0.189398 0.0407717 2.79268e-17)
(0.147003 0.040132 8.10677e-18)
(-0.0106957 -0.0116948 4.46055e-18)
(-0.0110543 -0.0118532 1.166e-18)
(-0.0107151 -0.0120996 2.43143e-18)
(0.294519 0.109541 -3.88953e-18)
(0.16806 0.0410959 7.32808e-18)
(-0.000892805 0.000360015 -1.05345e-20)
(-0.000930894 0.000246263 -2.37608e-18)
(-0.000896118 0.000336246 8.24072e-19)
(-0.168075 -0.217987 4.41551e-17)
(-0.187547 -0.248704 -6.04082e-17)
(-0.0145084 -0.0160969 2.97705e-18)
(-0.0134226 -0.0154803 2.31566e-18)
(-0.0132163 -0.0167262 5.30427e-18)
(-0.0042314 -0.00669961 7.2076e-19)
(-0.00431269 -0.00709803 -2.27548e-20)
(-0.0046684 -0.00677301 3.16578e-19)
(-6.49387e-06 0.000463166 1.11281e-18)
(-1.75287e-05 0.000637014 4.07215e-19)
(0.47927 0.25243 -1.79486e-17)
(0.514519 0.235909 -1.71462e-17)
(0.527941 0.212708 -2.48502e-17)
(-0.00209231 -0.0186715 6.24868e-18)
(-0.000656263 -0.0191749 -4.60812e-18)
(0.0826193 0.00996486 3.90623e-18)
(0.0895947 0.00637784 -4.27857e-18)
(0.0869499 -0.00709808 7.31454e-19)
(-0.000110193 0.00140932 1.87576e-18)
(-0.00014446 0.00141826 1.20986e-19)
(-0.35182 -0.455791 4.11517e-17)
(-0.424987 -0.459891 5.51964e-17)
(-0.368773 -0.402364 -3.59076e-18)
(0.0789586 0.225478 -1.37549e-17)
(0.0784736 0.246013 5.40192e-18)
(0.0598034 0.237629 -2.11785e-17)
(0.124309 0.0855977 1.50869e-18)
(0.124607 0.0854881 3.38075e-18)
(-0.000331914 -0.00024454 8.3212e-19)
(-0.000350753 -0.000261566 2.76643e-19)
(-0.000353346 -0.000178812 2.80928e-18)
(-0.000313751 0.00101752 9.08722e-19)
(-0.000305435 0.000823936 -1.6361e-18)
(9.14009e-06 0.000250913 1.96049e-18)
(-5.14984e-05 0.000274829 1.0332e-18)
(-5.3887e-05 0.00026534 -2.30748e-19)
(-6.24712e-05 0.000249698 2.28441e-18)
(0.125758 0.220385 -5.93693e-17)
(0.110257 0.181893 -3.67315e-17)
(0.00219222 0.0706375 -4.91627e-17)
(0.00239081 0.072327 3.63519e-17)
(0.0089971 0.0701936 -3.06797e-17)
(-0.182249 -0.0413161 1.73358e-18)
(-0.1949 -0.0392698 3.57193e-17)
(-0.176846 -0.0281917 1.00625e-16)
(-0.00101587 0.00152326 -1.58825e-19)
(-0.00115007 0.00160903 -4.69431e-19)
(-0.000209956 0.00117028 -2.41248e-19)
(-0.00023265 0.00118926 -5.09058e-18)
(-0.000195868 0.00119633 6.80123e-18)
(0.00642297 0.00151153 2.2273e-20)
(0.00598779 0.00167476 2.33141e-19)
(0.00642895 0.00213265 1.81987e-19)
(-0.000155529 0.000466847 -1.26068e-18)
(-0.000163289 0.000608986 1.07803e-18)
(-0.000180167 0.000460866 -2.77884e-18)
(0.157283 0.423831 -1.53157e-17)
(0.192942 0.40112 -2.53948e-17)
(0.16423 0.438489 -9.95576e-17)
(-9.65744e-05 0.000303132 3.4148e-19)
(-0.000102677 0.000294644 -7.56338e-19)
(-0.000110903 0.000335899 1.32779e-19)
(-0.494156 -0.45395 1.51957e-17)
(-0.488972 -0.50995 -1.63664e-17)
(-0.579847 -0.486318 -4.05534e-17)
(0.0672875 -0.03698 -1.01941e-18)
(0.0607224 -0.0413856 5.06651e-18)
(-0.284787 -0.244118 -6.43113e-18)
(-0.233773 -0.230527 1.65623e-17)
(-0.230155 -0.18163 6.75006e-18)
(0.00425366 -0.0278266 1.42318e-18)
(0.0060884 -0.029269 2.17243e-18)
(0.00620197 -0.0269333 -4.67125e-18)
(0.00725559 -0.00277834 -1.96167e-18)
(0.0078805 -0.00296603 -7.88125e-19)
(-6.68147e-05 0.000367786 3.58208e-18)
(-4.47603e-05 0.000378202 -1.3533e-18)
(-0.0171346 -0.0179496 4.67842e-19)
(-0.0191646 -0.0184974 -1.64148e-18)
(-0.0186216 -0.0161192 -5.37298e-18)
(-0.289349 0.00663796 -9.98129e-18)
(-0.297804 0.00608199 1.44872e-17)
(0.154787 -0.0102276 -1.78069e-17)
(0.147477 -0.0168823 -4.01989e-17)
(0.15926 -0.0246235 -2.31979e-17)
(0.162483 -0.00094711 -1.28485e-17)
(0.148595 0.00548477 2.88592e-18)
(0.00414213 -0.00578485 -1.13523e-18)
(0.00444941 -0.00538331 8.15895e-19)
(0.00398862 -0.00538893 4.83329e-19)
(-0.000643583 -0.000586956 1.10263e-18)
(-0.000619485 -0.000629338 1.61606e-18)
(-0.000619988 -0.000560076 2.24795e-19)
(-0.00159098 0.00246856 -9.6135e-18)
(-0.00179095 0.00223356 -2.81343e-18)
(-0.000284703 -0.00682515 -3.67659e-19)
(-0.000503928 -0.00655778 -1.06939e-18)
(-0.000127014 -0.00650055 -5.6544e-19)
(0.00369513 -0.0123023 7.63443e-19)
(0.00401093 -0.0115249 -2.2973e-18)
(0.00308504 -0.011726 -7.09416e-19)
(0.0119373 -0.023696 8.45389e-18)
(0.00721062 -0.0268611 -3.3556e-17)
(0.0137907 -0.0303611 -6.45775e-18)
(-0.196847 -0.188649 1.66935e-17)
(-0.188276 -0.220947 1.46822e-18)
(-0.162074 -0.199402 -6.73337e-18)
(0.0069428 0.00142916 -5.00155e-19)
(0.00639362 0.000966245 3.23951e-19)
(-1.7619e-05 0.000363517 -9.76497e-20)
(-9.98249e-06 0.000268687 2.59179e-19)
(-0.0183677 -0.027547 -1.20238e-17)
(-0.0197161 -0.0291916 4.58156e-18)
(-0.020823 -0.0264336 -6.62775e-18)
(-0.00306843 0.209094 1.23503e-18)
(-0.00441216 0.247923 3.94284e-18)
(-0.0459899 0.212717 1.51753e-17)
(0.00336453 -0.012923 3.22896e-18)
(-0.00157048 0.00110743 3.95888e-18)
(-0.00170304 0.00107938 -1.58735e-18)
(-0.00162126 0.0010275 -2.27533e-20)
(0.0417397 -0.0278518 8.74703e-18)
(0.0459363 -0.0256168 -4.37932e-18)
(0.0416619 -0.0233296 6.77805e-18)
(0.0124407 -0.0174362 -2.36654e-17)
(0.0208346 -0.0154154 1.29891e-17)
(0.0852067 -0.00680037 1.21874e-17)
(-0.0715321 -0.0690661 8.36888e-18)
(-0.0739796 -0.0620985 1.63405e-17)
(-0.0810585 -0.0681728 4.22436e-17)
(-6.48532e-05 0.000333875 4.51514e-19)
(-3.26373e-05 0.000396841 -2.77693e-19)
(-0.157435 -0.191192 -2.03576e-17)
(-0.16872 -0.194628 3.08766e-17)
(-0.00068501 -0.000570317 -3.3957e-19)
(-0.000686192 -0.000614153 1.04082e-18)
(-3.10426e-05 0.000333637 -2.1685e-18)
(-0.000344645 0.000557188 7.26391e-19)
(-0.000329257 0.000700344 1.13599e-18)
(-0.000326115 0.000769892 -4.36199e-18)
(-0.18184 -0.0148331 -2.68372e-17)
(-0.325195 0.0167015 -6.92188e-17)
(-0.22592 0.00674139 -1.19346e-17)
(-0.00417797 -0.00617211 1.34799e-19)
(-0.00380496 -0.00649922 7.4695e-21)
(-0.000245472 0.000842588 -8.15227e-19)
(-0.000280788 0.00082534 -4.20372e-19)
(-0.000308655 0.000954258 -3.93197e-18)
(-0.000380911 0.000945997 2.67468e-18)
(-0.000362918 0.00100072 -4.52956e-18)
(0.194854 -0.00617055 1.22511e-17)
(0.166464 -0.00928066 2.90024e-17)
(0.18332 -0.0324085 -8.96718e-18)
(-0.0169884 -0.0251741 -7.84065e-19)
(-0.018541 -0.0221873 -9.19823e-19)
(-0.000596849 0.00124979 -4.6156e-19)
(-0.000616895 0.00122243 9.13377e-19)
(-0.183852 0.0535975 1.45238e-17)
(-0.179059 0.0804052 5.06208e-18)
(-0.00101619 0.00105069 -4.65738e-18)
(-0.00102725 0.000952899 2.0933e-19)
(-0.00106927 0.00102726 3.70204e-18)
(0.0504756 -0.0280104 -1.40002e-17)
(0.0505376 -0.0339274 3.03784e-18)
(0.00432406 -0.0062283 -1.0575e-18)
(0.00382707 -0.00616533 -2.55786e-18)
(0.000756838 -0.00101476 4.554e-19)
(0.000692532 -0.000975277 6.48412e-19)
(-0.0433526 0.056224 6.31837e-17)
(-0.0476198 0.0568561 -1.02097e-17)
(-0.0430066 0.0608357 6.00604e-18)
(0.00212109 -0.00225166 1.27272e-19)
(0.00198864 -0.00248303 -3.90466e-20)
(0.00190882 -0.00231738 2.87276e-19)
(-0.0417182 0.200409 -3.89531e-18)
(-0.0452485 0.238752 -3.80283e-18)
(0.0972586 0.0108378 -2.68776e-18)
(0.110328 0.0208272 7.66095e-19)
(0.0962297 -0.00547206 8.29799e-18)
(0.00205328 -0.00308097 1.12335e-19)
(0.00189142 -0.00329682 -4.62276e-19)
(0.00182778 -0.00310042 4.7873e-20)
(-0.000317054 -0.000233551 4.81863e-19)
(-0.000309231 -0.000217273 -9.81483e-19)
(-0.000321606 -0.000161335 8.17742e-19)
(-9.3221e-05 0.000366208 -1.59257e-18)
(-7.7799e-05 0.000417169 -3.67826e-19)
(-7.64275e-05 0.000443635 1.38746e-18)
(-0.00155949 0.00113328 3.04325e-18)
(-0.00162928 0.00115497 -4.15567e-18)
(-0.0196048 -0.012244 -4.70391e-17)
(-0.021011 -0.0196452 1.63946e-17)
(-0.027013 -0.0161591 4.41749e-17)
(-0.385011 0.112544 2.87659e-17)
(-0.305923 0.0611619 -2.28641e-17)
(-0.242785 0.0555658 3.76271e-17)
(-0.72618 -0.63628 -3.03412e-17)
(-0.594893 -0.536817 -2.56719e-18)
(-0.723216 -0.581324 -6.17123e-17)
(-0.000592452 7.95407e-05 3.80766e-19)
(-0.000550663 5.68487e-05 1.11835e-18)
(-0.0931853 -0.0467062 2.02568e-17)
(-0.101938 -0.0597066 9.34285e-18)
(-0.0530456 -0.0204625 1.12179e-18)
(-0.0483931 -0.0237956 -2.34436e-18)
(-0.0475344 -0.0188899 -7.659e-19)
(-0.0537816 0.0672457 1.02303e-17)
(-0.0534284 0.0751959 3.70563e-17)
(-0.0469099 0.0681916 -2.71083e-17)
(-0.000378276 0.00122448 7.61316e-19)
(-0.000412847 0.00116151 3.25244e-19)
(-0.000427685 0.001304 -1.97173e-18)
(0.000355343 -0.00777632 3.54382e-19)
(-6.94749e-05 -0.00787111 -8.83642e-19)
(0.0002024 -0.00747759 -1.9868e-18)
(-0.318729 -0.47038 -6.80654e-17)
(-0.362321 -0.513773 3.41262e-17)
(-0.0479933 -0.0229723 -3.40344e-17)
(0.0734925 -0.0331263 2.25478e-18)
(0.0736839 -0.0422452 -7.48739e-18)
(-0.00014585 0.000317646 1.43432e-18)
(-0.000100963 0.000298183 -2.42898e-19)
(-0.000133615 0.000932524 -2.69606e-18)
(-0.000117127 0.00110537 1.54426e-18)
(-0.000130456 0.00109224 -1.9231e-18)
(-0.00031493 -0.000292791 -2.75088e-18)
(-0.382939 -0.260229 -2.67288e-17)
(-0.381656 -0.29925 -2.20005e-17)
(-0.0244728 0.123672 -1.54126e-17)
(0.00588813 0.0827157 -1.77661e-17)
(-0.450274 0.102257 4.41985e-17)
(-0.424439 0.0829526 -1.09543e-17)
(0.0837213 0.0155923 5.7318e-19)
(0.0783301 0.0292397 -1.50053e-18)
(-0.0017409 -0.00185038 -1.45337e-18)
(-0.00169034 -0.00172974 -4.30952e-19)
(-0.00160793 -0.00185621 1.07825e-18)
(-0.289279 0.288 4.21745e-17)
(-0.0914212 0.398792 5.48029e-17)
(-0.358588 0.455557 1.85906e-17)
(-0.0110447 0.0607735 1.25933e-17)
(-0.0137748 0.0619213 -1.34857e-17)
(-0.0147556 0.0587881 4.82088e-17)
(-0.00274987 0.00846467 5.03609e-18)
(-0.0023233 0.00861851 -5.71916e-18)
(-0.00232338 0.00810837 6.7065e-18)
(0.00199273 -0.000378334 -5.36108e-20)
(0.00192401 -0.000426586 -3.41385e-19)
(0.00187454 -0.000354232 -4.73742e-19)
(-0.00520337 0.00273269 3.49467e-18)
(-0.00485672 0.0025604 -1.73804e-18)
(-0.00492022 0.00291304 6.38699e-18)
(0.00192881 0.0684768 -6.66329e-19)
(0.00224887 0.0700831 9.1219e-18)
(0.00199105 0.0690094 -4.79573e-17)
(0.000334046 -0.000345225 -2.01623e-19)
(0.000352335 -0.000375055 9.81301e-19)
(0.000326914 -0.000356818 4.39764e-19)
(-0.000775829 0.000898487 -3.15495e-18)
(-0.000776779 0.00088563 6.00835e-18)
(-7.59274e-05 0.000470501 1.96326e-18)
(-8.61001e-05 0.000458578 1.06815e-18)
(-6.48121e-05 0.000533766 -2.37466e-18)
(-0.00103372 0.00183881 -2.8948e-18)
(-0.00106288 0.00190146 -5.21628e-18)
(-0.00117255 0.001809 2.9228e-18)
(0.00100384 -0.00070856 5.0523e-19)
(0.00103911 -0.000642539 -6.63457e-19)
(0.00100132 -0.000625268 4.40578e-19)
(0.00787812 -0.01272 -7.57956e-19)
(0.0072329 -0.0136405 1.24879e-18)
(0.0083836 -0.0139416 -3.24457e-18)
(0.00641233 -0.00618065 -1.30948e-18)
(0.00666886 -0.00665258 -3.64923e-18)
(0.00688956 -0.00602696 -1.58556e-18)
(-0.0714175 0.474256 -7.91948e-17)
(-0.0449334 0.501381 1.03248e-17)
(-0.0675949 0.493376 -7.78596e-17)
(-0.000279266 0.00124962 3.61526e-18)
(-0.000342116 0.00130704 5.19882e-18)
(-0.000352406 0.00120963 3.13239e-18)
(-0.00424928 -0.0115178 9.2171e-19)
(-0.00380407 -0.011194 1.02433e-18)
(-0.00438409 -0.0109626 1.12378e-18)
(0.00217223 -0.00287372 4.40524e-19)
(0.00229075 -0.00307427 -8.96181e-20)
(-0.002766 0.00169226 -3.99667e-18)
(-0.00261834 0.00176541 -2.26961e-18)
(-0.00266289 0.00161943 6.83692e-18)
(-0.0825664 0.0347447 -5.20619e-18)
(-0.0792082 0.0422171 -1.29594e-19)
(-0.0906127 0.0421343 -2.07551e-18)
(-0.0157192 -0.027525 -7.01229e-18)
(0.000848726 0.170856 -8.48443e-19)
(0.0460598 0.193773 1.67221e-17)
(0.000266439 -0.000230267 1.89223e-18)
(0.000271906 -0.000214778 -1.67506e-18)
(0.00025252 -0.000212139 1.19479e-19)
(-0.169774 0.00711709 8.2204e-18)
(-0.126831 0.0247585 -9.20457e-18)
(-0.00663984 0.00140851 1.35058e-18)
(-0.00707514 0.00144801 6.03139e-19)
(0.0224045 0.020098 -5.0773e-19)
(0.0243337 0.0229113 1.01488e-18)
(0.0204922 0.0229452 -2.47254e-19)
(-0.000566941 -0.00140028 2.71262e-19)
(-0.000469008 -0.00147919 2.53569e-19)
(0.0167973 -0.0194395 -2.12422e-17)
(0.0103408 -0.0178622 1.18076e-17)
(-0.000184664 0.00107933 5.13042e-18)
(-0.000184725 0.00114021 2.88662e-19)
(-0.00746693 0.027319 -4.5137e-18)
(-0.00623956 0.026136 8.63207e-18)
(-0.00545054 0.0281849 -1.63828e-17)
(-0.0155095 -0.0170124 6.69449e-18)
(-0.0155184 -0.0152134 -7.31605e-18)
(0.000946194 -0.000765499 1.03654e-18)
(0.000987433 -0.000806405 4.69384e-19)
(0.0279901 0.0799652 -1.64534e-17)
(0.030719 0.0762602 4.18507e-17)
(0.0338055 0.0798516 4.29745e-18)
(-0.769174 -0.766275 -6.7281e-18)
(-0.79537 -0.782199 -4.3147e-18)
(-0.764919 -0.791308 1.61917e-17)
(-0.0107833 -0.0114105 1.08439e-18)
(-0.0104925 -0.0115689 5.14446e-18)
(-0.00107755 3.3079e-05 3.28422e-18)
(-0.000997411 0.000108484 2.1459e-18)
(-0.0010754 0.00012178 -3.98369e-18)
(0.00738458 -0.0372621 -1.74728e-19)
(0.00495924 -0.0349265 -1.95007e-18)
(0.0035441 -0.0382796 -4.98951e-18)
(-0.544154 -0.659547 -8.50285e-19)
(-0.615739 -0.726292 2.41775e-17)
(-0.553785 -0.586941 -9.78239e-18)
(-0.010796 0.0258746 4.97273e-18)
(-0.00873149 0.0268046 9.16391e-18)
(-0.00960742 0.0244584 -2.04459e-17)
(-0.0118036 0.0271724 -3.80637e-17)
(-0.0118727 0.0248234 -2.57308e-18)
(0.0769577 0.474921 1.35819e-17)
(0.0840753 0.460164 -2.94005e-17)
(0.120893 0.462667 -8.10075e-17)
(0.121928 -0.0390354 -2.46819e-18)
(0.121487 -0.0271194 1.03015e-17)
(0.133678 -0.0360835 1.28496e-18)
(0.0235522 0.0168892 -3.84939e-19)
(0.0205707 0.0176589 -1.91766e-18)
(0.0225386 -0.0129946 2.04619e-18)
(0.021452 -0.0150343 -1.22295e-18)
(-0.00970339 0.0578022 3.38967e-17)
(-0.00624277 0.0607132 -7.00216e-18)
(0.00134393 -0.000183694 6.78449e-19)
(0.00137662 -0.00014658 -3.57275e-19)
(0.00130407 -0.000142805 2.61953e-19)
(-0.211217 0.146799 -3.7638e-17)
(-0.171768 -0.0540304 -2.52993e-17)
(-0.164929 -0.041232 1.53178e-17)
(0.00031772 -0.000309807 1.84025e-18)
(0.000342908 -0.000336304 3.81202e-19)
(-4.9796e-05 0.000619345 4.52396e-18)
(-5.57721e-05 0.000627685 8.95967e-20)
(-4.31624e-05 0.000696197 -4.94856e-19)
(-0.269621 -0.0616373 2.11325e-17)
(-0.271495 -0.0786722 -2.6107e-17)
(-0.00114168 0.000632819 -1.9289e-18)
(-0.00117761 0.000598434 7.91469e-19)
(-0.00119463 0.000691705 -7.11469e-18)
(-4.0064e-05 0.000289905 -1.69757e-18)
(-5.62135e-05 0.000286609 -1.51679e-18)
(0.0587387 -0.0919047 1.21559e-17)
(0.0528217 -0.101738 2.80853e-18)
(0.0494675 -0.0896685 9.21767e-18)
(0.0451863 -0.111803 -1.47723e-17)
(0.0344391 -0.108422 -2.07816e-18)
(0.0347369 -0.122679 -1.1337e-17)
(-0.00189792 -0.00191629 5.2806e-19)
(0.000714075 -0.0077368 6.65271e-19)
(0.00049582 -0.00819597 -1.99205e-18)
(-0.00470775 -0.0118723 -8.68889e-19)
(-0.00404596 -0.0121005 -5.09524e-18)
(-0.0191888 0.000769536 -7.0779e-18)
(-0.018723 0.0020376 -1.69488e-19)
(-0.0198763 0.00159213 6.92311e-18)
(0.0019533 -0.00782826 -1.66136e-18)
(0.00195513 -0.00740527 8.88794e-19)
(0.00234166 -0.00752692 -3.33539e-18)
(-0.00035499 0.0012717 8.79663e-19)
(-0.0143145 -0.0117944 -3.22206e-18)
(-0.0131825 -0.0115447 -5.89803e-18)
(-0.0138 -0.0109101 -9.36202e-19)
(-0.014459 0.561851 1.46528e-17)
(-0.0161961 0.572707 -1.49828e-17)
(-0.0255394 0.561971 2.12402e-17)
(0.00089381 -0.000822298 1.25922e-18)
(0.000919756 -0.000722425 -5.61643e-19)
(-0.757313 -0.722393 2.22988e-17)
(-0.743309 -0.677201 1.999e-17)
(-0.643384 -0.670557 3.68672e-18)
(-1.19305e-05 0.000575886 3.07002e-18)
(-3.17813e-05 0.000511468 1.41971e-18)
(-0.000139298 0.000343389 -2.70691e-19)
(-0.000113259 0.000296927 -5.10897e-19)
(-0.000136852 0.000381645 4.20273e-18)
(0.000250445 -4.69472e-05 1.99817e-18)
(0.00023588 -5.7077e-05 -2.73027e-19)
(0.000247984 -5.16651e-05 -4.77835e-19)
(0.122567 0.446447 -2.38538e-18)
(-1.90601e-05 0.00115739 4.63063e-19)
(-3.34018e-05 0.00129542 1.04757e-18)
(-4.94722e-05 0.00115463 -2.20856e-18)
(0.201221 0.0184877 1.22889e-17)
(0.18409 -0.0104718 2.36599e-18)
(-0.352863 -0.156867 2.7541e-17)
(-0.322837 -0.173607 5.67734e-17)
(-0.36747 -0.169699 -3.92614e-17)
(-0.000183982 0.000453012 -1.41933e-18)
(-0.000185179 0.000475989 2.71021e-18)
(-0.0002056 0.000459866 -1.25295e-18)
(-0.000167415 0.000935158 5.61472e-18)
(-0.000184611 0.0010165 1.98044e-18)
(0.0512679 0.243791 -7.58275e-19)
(0.0152954 0.220762 2.44913e-17)
(0.0480103 0.199874 1.03375e-17)
(0.000242347 -3.32941e-05 1.67777e-18)
(0.000259863 -3.47963e-05 -1.91287e-19)
(-3.97114e-05 0.000676369 1.41688e-18)
(-4.64824e-05 0.000662513 -2.23929e-18)
(-5.67799e-05 0.000639835 1.26615e-18)
(0.000297353 -3.87796e-05 -1.03077e-18)
(0.000283739 -3.62618e-05 1.62106e-18)
(0.000279905 -2.86379e-05 2.86505e-18)
(-0.330322 -0.101345 -2.56871e-17)
(-0.375114 -0.122952 -1.19307e-17)
(-0.0409313 0.0522243 2.03061e-17)
(-0.0377777 0.0561922 2.03423e-17)
(-0.00577153 0.00610915 -2.93448e-18)
(-0.00546914 0.00574024 7.81878e-18)
(-0.00593598 0.00573011 6.56651e-18)
(-0.0871068 0.0170166 2.2364e-18)
(-0.0803371 0.0124837 -1.93129e-18)
(-0.0880659 0.0081715 8.38298e-19)
(0.0149671 -0.0807408 -4.7936e-18)
(0.00835814 -0.0769292 2.18204e-17)
(0.0142774 -0.0730434 1.26954e-17)
(0.10005 0.0315874 -9.02235e-18)
(-0.0400733 0.219346 9.22893e-18)
(-0.0106301 0.240047 7.75517e-18)
(-0.017606 0.189374 3.98264e-18)
(0.00171898 -0.00352666 -1.15788e-19)
(0.00198174 -0.00354687 -2.87173e-20)
(0.147095 0.611097 4.53082e-17)
(0.0625287 0.557085 -8.43528e-19)
(0.188284 0.538942 7.27872e-17)
(-3.60589e-05 0.00045474 -2.4427e-18)
(-3.76035e-05 0.000544243 -6.18624e-19)
(-2.34365e-05 0.000455887 4.57519e-19)
(-0.515748 -0.733428 -2.07814e-18)
(-0.463468 -0.605102 -2.78378e-18)
(-0.0781013 0.14937 -1.63172e-17)
(-0.0300531 0.160472 -9.31441e-18)
(-0.0835764 0.187254 -1.99675e-17)
(-0.0353978 0.0836792 -2.43174e-17)
(-0.169471 0.0151822 4.29936e-18)
(-0.0611669 0.0248 -3.12782e-17)
(-0.501721 -0.427254 6.86078e-17)
(0.112322 -0.0408627 -1.21987e-18)
(0.12169 -0.0511317 -1.49249e-17)
(0.00469872 -0.00498555 -2.03672e-19)
(0.00493952 -0.00536763 1.25273e-18)
(-0.0102886 -0.0220485 -3.96705e-18)
(-0.0114436 -0.0207436 -9.62817e-18)
(0.00593262 -0.00623229 5.43667e-19)
(0.00613238 -0.00582213 4.64963e-18)
(0.00207848 -0.000314863 -1.09032e-19)
(0.00212801 -0.000215462 9.04558e-20)
(0.00201628 -0.000207059 -5.06555e-19)
(0.00292206 -0.00233037 -1.08549e-19)
(0.00311012 -0.00236587 -3.13649e-19)
(0.0030321 -0.00212258 -1.23767e-19)
(-0.0855336 0.0249435 1.84344e-18)
(-0.0762183 0.0287668 -4.8129e-18)
(-0.00715517 0.00745649 2.96092e-18)
(-0.00684545 0.00804629 3.57858e-18)
(-0.000155999 0.000887346 -4.13764e-18)
(-0.000132436 0.00080517 4.40866e-18)
(-5.85426e-06 7.66007e-05 -1.19319e-18)
(-5.51917e-07 3.91844e-05 -1.96831e-18)
(-1.13437e-06 4.25351e-05 1.6384e-18)
(0.000285877 -0.000261225 -1.52998e-18)
(0.000265351 -0.000241477 1.46767e-18)
(0.000432477 -4.34978e-06 5.87672e-19)
(0.000442671 -4.08327e-06 5.11316e-19)
(0.000422872 -7.56306e-06 1.02598e-19)
(0.000880829 -0.000931508 -1.49196e-18)
(-0.0200001 0.134411 -4.94444e-18)
(-0.0185074 0.155041 -2.96996e-17)
(0.0154619 0.13764 -3.62031e-17)
(-0.000395534 -0.000328409 -6.35162e-19)
(-0.000371257 -0.00035786 8.49241e-20)
(-0.000387852 -0.00029667 3.22795e-19)
(-0.000430165 -0.00122685 -5.62946e-19)
(-0.000449874 -0.00118828 -1.30345e-19)
(-0.000523795 -0.00125398 -2.15024e-19)
(0.00043815 -8.47366e-06 -3.97097e-19)
(0.000446264 -8.0794e-06 -1.00536e-18)
(0.000417152 7.2216e-07 -1.92135e-18)
(-0.000507752 0.000254099 -9.26651e-19)
(-0.000531619 0.00014895 -2.4829e-18)
(-0.0187033 0.536506 6.74567e-18)
(-0.0199992 0.547609 -8.58074e-18)
(-0.00886143 0.574706 -3.13287e-17)
(-0.0648624 -0.0691257 -8.57771e-18)
(-0.0620714 -0.0868617 1.57162e-17)
(0.0071463 0.0325646 -4.78699e-17)
(0.0054515 0.0320849 -1.20344e-18)
(0.00559352 0.0342648 1.87492e-17)
(-0.00163357 0.00395891 6.49557e-18)
(-0.00187205 0.00412781 -1.27808e-18)
(-0.00152572 0.00426134 -6.80935e-18)
(0.0413864 -0.0328369 1.18717e-18)
(0.0377474 -0.0296863 -2.15654e-19)
(0.000502474 -9.09517e-06 2.44959e-19)
(0.123169 0.0840897 2.18756e-19)
(0.122036 0.0818845 3.25454e-18)
(0.120892 0.0855373 6.63795e-19)
(-0.0889594 -0.0475583 5.68148e-17)
(-0.14205 -0.0327926 2.33172e-17)
(-8.2047e-05 0.00140779 -2.72164e-18)
(-9.81569e-05 0.00128383 1.74417e-19)
(-0.2495 -0.215717 -3.58524e-18)
(-0.233763 -0.172655 2.53409e-17)
(0.0168147 -0.0140198 -6.39446e-18)
(0.0150232 -0.0143415 3.48416e-18)
(0.0156885 -0.0126473 1.28191e-18)
(-0.000212463 0.00154645 -7.75545e-18)
(-0.000184226 0.00158443 -5.83746e-18)
(-0.128291 0.075297 3.49809e-17)
(0.12524 0.0854214 9.55481e-18)
(-0.000343887 0.000233982 -2.24967e-19)