/*--------------------------------*- C++ -*----------------------------------*\
| =========                 |                                                 |
| \\      /  F ield         | OpenFOAM: The Open Source CFD Toolbox           |
|  \\    /   O peration     | Version:  v2012                                 |
|   \\  /    A nd           | Website:  www.openfoam.com                      |
|    \\/     M anipulation  |                                                 |
\*---------------------------------------------------------------------------*/
FoamFile
{
    version     2.0;
    format      ascii;
    class       surfaceScalarField;
    location    "300";
    object      meshPhi;
}
// * * * * * * * * * * * * * * * * * * * * * * * * * * * * * * * * * * * * * //

dimensions      [0 3 -1 0 0 0 0];
oriented        oriented;


internalField   nonuniform List<scalar> 
14470
(
-0.0133149
0.00418275
0.00913745
-0.00178831
-0.00117799
0.016559
-0.0164884
-5.06374e-05
-0.000876724
-0.00117072
0.00204745
-0.00297154
0.00313545
-0.000151891
-0.00553759
0.00555392
-1.51906e-05
0.00388855
-0.00768915
0.00380168
-0.000776378
-0.00210727
0.00288368
-0.0148136
0.00251388
0.0123653
0.000479107
0.0047637
-0.00519009
0.00519936
-0.00467518
-0.00011012
-0.0131564
0.0134859
0.00563696
-0.00259506
-0.00304197
0.0203884
-0.014668
-0.00560058
-0.0107356
0.0130864
-0.002332
-0.00830704
0.00829466
1.62889e-05
0.0163315
-0.00520717
-0.0110519
-0.0031606
0.0026593
0.000501312
0.00596212
-0.0125989
0.00701972
0.00795925
0.00897493
-0.0167088
0.00100816
-0.00100816
-0.000499561
0.00247814
-0.00197859
-0.00252337
0.00174702
0.00364284
0.00199405
0.00255147
-0.0102251
0.00767819
0.0131971
-0.00410247
-0.00899793
-0.00118976
0.00173561
-0.0004206
-0.00464549
0.0109255
-0.00665467
0.00166237
0.00499408
-0.00160312
-0.000662919
0.00226604
0.00539679
-0.00486848
-0.000527446
-0.014559
0.0143882
0.000187154
0.00283333
0.0117574
-0.0145156
0.00114716
0.00102019
-0.00144998
-0.00519897
-0.00407296
0.00928428
0.0100318
0.0013546
-0.0113463
0.00126907
0.00687423
-0.00814718
0.00163099
0.00212812
-0.00375906
0.0111039
-0.00776403
-0.00332902
-6.64069e-05
-0.00658566
-0.00273749
-0.0014967
0.00423447
0.000979415
-0.00258056
0.00160118
3.36288e-05
-0.00116935
-0.00180345
-0.011593
0.0133979
-0.00192559
-0.0109866
0.01292
0.00141012
0.00117056
-0.00258068
-0.000168887
0.000972475
-0.000825218
0.00374613
-0.0139947
0.0104041
0.000906306
0.0155029
0.00678668
-0.0119714
0.00299994
-0.00115409
-0.0113923
0.00793681
0.00346341
-0.00280986
0.00262301
0.00964995
-0.00658048
-0.00306737
-0.00312173
0.002245
0.0136162
0.000321676
-0.0136779
0.000548289
0.006469
-0.00701305
-0.00884634
0.0127285
0.000972475
-0.00939227
0.00173377
0.00765745
0.0026826
-0.00515968
0.00247743
-0.0156692
0.0158152
-0.00012017
0.0123891
-0.0021914
-0.0101828
0.00068448
-0.00365651
0.00356054
-0.00041981
-0.014319
-0.0011697
-0.00118628
0.000152073
-0.0103866
0.0102562
0.00089866
0.0104328
-0.0112972
0.00412518
-0.00123447
-0.00289059
-0.0169927
0.0074594
0.00954031
0.000509273
0.00340894
-0.00391821
0.00172686
-0.0030942
0.00136736
-0.00912558
0.00879395
0.000332394
-0.0033092
0.00508308
-0.00177354
-0.0019974
0.00249206
-0.000459069
0.00587403
-0.0071233
0.00124979
-0.00463923
0.00187217
0.0027672
0.0156585
-0.00405411
-0.0116193
0.00249753
-0.00257173
7.16322e-05
0.000392332
0.00548208
-0.00245143
-0.000709167
-0.00736676
-0.000935785
0.0109884
-0.00243451
-0.00854249
0.0109628
0.00432731
0.000428208
-0.004755
0.00286541
-0.000418529
0.00945808
-0.00787441
-0.00158196
-0.00204619
0.00367724
-0.00154679
0.00422971
0.00216704
0.000692318
-0.00285937
0.000173354
-0.00309256
0.00291938
0.00390778
-0.0037342
-0.00487835
0.00824548
-0.00336249
0.00301853
-0.00203907
0.016198
-0.00309274
-0.0130275
0.00141579
-0.00472468
0.00733547
-0.000188951
-0.00714329
-0.0113211
0.00198973
0.00934852
-0.000215199
-0.00271985
-0.00201131
-0.0018511
0.0038624
-0.00233948
-0.00904476
-0.0075814
0.00849487
-0.000914644
0.0125007
-0.0143031
-0.00601556
0.00467351
0.00134226
-0.00371485
0.00175538
0.00195955
-0.00846236
-0.000661745
-0.0128056
0.0120704
0.00103496
0.0129016
0.00276387
0.000837465
0.0029665
-0.00291242
5.01829e-05
-0.00259726
0.0020977
-0.000771744
-0.00202777
0.00279951
-0.00184272
-0.000485938
0.00232866
-0.00424331
-0.0127331
0.00323524
-0.0102464
0.00702219
0.00490102
-0.0137431
0.00887749
0.0113924
-0.000209259
-0.0111387
0.000839627
0.00206608
-0.0029057
0.010684
-0.0126878
0.00200811
-0.00222222
-0.00286246
0.00508483
0.00917194
0.000288022
-0.00497986
0.00458546
0.000394591
0.000977843
0.00749249
-0.0084628
-0.0118233
0.0132249
0.0122984
-0.00160363
-0.0083725
0.00288555
0.00548961
0.00125423
-0.00285735
0.00550522
-0.00783798
0.00233599
0.00851253
-0.00300361
0.0116788
2.48735e-05
-0.0116632
0.0192534
-0.00622707
-0.0128439
-0.00103682
-0.0122723
0.0109956
0.000840839
-0.0118076
0.0119571
-0.0104102
-0.00152785
-0.00237629
-0.00245128
0.00482814
-0.00012801
0.00477307
-0.00464407
0.011123
-0.00619302
-0.00209664
0.00013428
-0.00787972
0.00296159
0.0049203
-0.00370194
0.00269661
0.00100536
0.00789657
0.0175538
-0.00536168
-0.0121448
0.00111801
0.00777328
-0.00888784
0.00110021
0.00157406
-0.00267427
-0.00142253
-0.0022177
0.00364032
-0.012757
0.000482596
-0.00118542
0.00260135
0.00970641
0.00970012
-0.000472965
0.00339459
-0.013777
0.0104861
0.0027581
-0.0036131
0.000855017
0.000422521
-0.0117199
0.00628808
0.00702003
0.0141245
-0.013263
-0.000860868
0.00301973
-0.00436179
0.00134223
0.000352454
0.00794552
-0.015276
-0.000347159
0.00112793
0.00426957
0.0110581
0.00248249
-0.0135257
-0.00869767
0.000825852
0.0104032
0.00130765
0.013337
-0.00519853
0.000541873
-0.00272291
0.00218106
-0.00361082
0.0155675
-0.0118542
-0.00201812
-0.00262091
-0.0081333
0.00719916
0.000931205
-0.00160251
0.0142754
-0.012586
0.0118765
-0.0132102
0.00169395
0.000395379
-0.00461231
0.00432328
0.00947001
0.00811588
0.00195215
-0.00304039
0.00108824
-0.00335302
0.00209892
0.00125411
-0.00189109
0.0053411
-0.00345023
0.0123727
-0.0122844
-0.00526825
-0.000268094
0.00548763
-0.00241719
-0.00307003
-0.00388616
0.000919258
0.00296691
0.0177603
-0.0133064
-0.00443261
0.00264393
0.00874786
-0.0113673
-0.00416918
-0.00184612
0.00251033
0.00180138
0.00737202
-0.011637
0.00972014
5.78905e-05
0.0102001
-0.0102266
-0.000604731
-0.00350998
-0.00146953
-0.0011351
0.00286198
-0.00170241
-0.00165058
-0.00801803
0.000434827
0.0145544
-0.0030853
-0.0113985
0.000535248
-0.0019829
0.00144765
0.00328445
-0.000546982
-0.00273746
-0.0096897
0.00940491
0.000285185
0.0118677
0.00200043
-0.0137306
0.000954072
-0.0114803
0.0105356
0.0024588
0.000291314
-0.00275012
-0.0130925
0.00558244
0.00790316
0.00695435
-0.0121043
0.00666765
-0.00710297
0.000480868
0.00563804
0.00831627
-0.0139449
0.00462147
0.00649152
-0.0109751
-0.0097748
0.00210044
0.00768558
-0.0127432
0.00990717
0.00286328
-0.00106318
0.00318339
-0.00212021
0.0150508
-0.00323989
-0.0118062
0.00884115
-0.00983655
0.00100707
-0.013259
0.0117359
0.00306336
0.0103275
-0.0133757
-0.00440378
0.00325943
0.00114442
-0.0075241
-0.00279783
-0.000904088
0.0108996
-0.0110857
0.000585822
0.00320004
0.00092523
0.00233654
0.00866134
-0.00985557
0.0112141
-0.00134551
0.0103532
0.0101281
0.00321825
-0.00559394
-0.00702377
0.0102718
-0.00649391
0.00127644
0.00521755
0.00103305
0.00630488
-0.0092
0.0139933
-0.00249116
-0.000180406
0.00267156
0.00266494
-0.00646546
0.00379941
0.00281023
-0.0076849
-0.0170272
0.0040524
0.0130505
0.00148094
-0.00882498
0.0073497
0.00687511
1.69421e-05
-0.00689284
-0.00545024
0.00561097
-0.000160286
-4.9772e-05
-0.00540023
-0.00198359
-0.00123385
0.00321744
-0.00490806
-0.00247149
0.00738287
0.000922548
-0.0107639
0.00463552
0.00776455
0.000626974
0.00265749
0.000899683
0.0127656
-0.0134643
-0.00177068
-0.00291308
0.00107035
-0.0039551
-0.0087173
-0.00593411
0.0058585
9.90974e-05
0.00232015
-0.0050573
0.0179419
-0.0157862
-0.00211545
0.000851006
0.00215328
0.00133882
0.0053497
-0.00668558
0.000484444
-0.00660072
0.00611889
0.0142087
-0.00645277
0.00911706
0.00931047
-0.000458072
-0.0077362
-0.000150574
0.00788866
0.0108126
-0.00934555
-0.00144177
0.013694
0.00859161
-0.00492936
-0.00365936
0.00242818
0.00023401
-0.00266219
0.00484164
-0.0138472
-0.00288231
-0.00352263
0.00640446
-0.000694001
-0.00218077
-0.00774113
0.000664356
0.00717381
-0.00399439
0.00243422
0.002217
-0.0022821
0.0129024
-0.00024765
-0.0126643
-0.000707974
0.00372784
0.00302914
-0.00457856
0.00154955
-0.00922807
0.00769229
0.00173712
0.0026838
-0.00966699
0.00448382
-0.00193934
-0.00254421
-0.00162017
-0.00144217
0.0041171
-0.0041308
1.84966e-05
0.0013929
0.00136383
-0.0018313
8.10252e-05
0.00294821
-0.00298137
0.00352327
0.00956372
0.000655149
-0.0102114
0.00429632
-0.00233766
-0.00195851
0.00598565
0.0008278
-0.00680954
0.000359723
0.00247698
-0.00208942
-0.000387562
0.00345912
0.0108893
-0.000772055
0.00204034
-0.00126828
-0.00270081
0.000299065
0.00251919
0.00726534
-0.000391164
-0.000731655
0.00196968
-0.00123803
0.00232595
-0.00515611
0.00283029
0.00245145
-0.0074308
0.00252594
-0.0116226
0.011688
-0.00785174
0.000489275
-0.00126612
-0.0114467
0.00125085
0.0127427
-0.013858
-0.00895215
0.0140654
-0.00504227
-0.00229183
-0.00211183
-0.00497354
0.00752842
0.00791247
-0.00518207
3.36697e-05
-0.000240318
0.000256663
0.00300628
0.00823542
0.000360096
-0.00216071
0.00252835
0.0140081
0.00283716
-0.00112117
-0.00171599
0.0156487
-0.004166
-0.011177
-0.000951952
-0.0141251
0.0151913
-0.00143763
-0.000521315
0.00252466
0.0142673
-0.000396987
-0.00249218
0.00259646
-0.000104274
-0.0035724
0.00214995
0.00567114
-0.00320622
-0.00246496
-0.00164139
-0.00796766
0.00960706
0.00821552
-0.00709437
-0.00146849
0.00853812
-0.00761352
-0.000923096
0.00306386
-0.000305743
0.0125554
-5.86506e-05
-0.0024109
-0.00216741
0.0112943
-0.000752801
-0.0105262
-0.0154502
0.00385142
0.000567668
7.66405e-05
-0.0137608
-0.000777067
0.00349084
0.00510326
-0.00117799
-0.00199285
0.0125266
-0.0142916
0.00178062
0.00566672
0.000983479
-0.00664996
-0.0155018
-0.00053957
-0.0113156
0.0118656
-0.00072265
-0.00563531
0.00635752
0.000598
-0.00666341
0.00606694
-0.0127813
0.0156953
0.0115907
8.99558e-05
-0.0116663
0.00889365
-0.0105374
0.00281255
0.00222472
-0.0050369
0.00212636
-3.6854e-05
-0.00208951
0.0124952
0.00407727
-0.000784573
0.0131447
-0.00183898
-0.00967238
0.0116225
0.00239316
-0.000441005
0.00177061
-0.00254266
0.00278289
-0.00347339
0.000690514
0.0124246
0.000520471
-0.0127364
-0.00537668
0.00597604
0.00687057
-0.00120351
-0.00378899
0.00217134
0.00161768
-0.00829927
0.00349185
0.0048113
0.00104741
0.0117818
-0.0126568
-0.000580305
-0.0125843
0.0133451
0.0112286
-0.0129424
-0.00736871
-0.000477508
0.00208493
-0.0140713
0.0120292
-0.00254873
0.000337652
0.00221109
-0.00789065
0.0108289
-0.00293834
-0.0149671
0.0184108
-0.00322178
-0.00650561
0.0017547
0.0047505
0.00135358
0.00148358
0.00152128
0.00167883
-0.00204541
0.00321966
-0.00383599
0.00182468
0.00813601
0.00256153
-0.0106845
-0.00243906
0.000828821
0.00161024
0.00340169
-0.00198949
-0.00141218
0.00116349
-0.00314708
-0.000616645
-0.00970101
0.0103291
0.00557224
0.00553949
-0.00457741
0.00445036
-0.000860963
0.00302799
-0.00190495
-0.00135719
-0.00493266
0.00628828
-0.000798004
0.00228596
-0.00139955
0.000701647
0.00886883
0.00249183
0.011368
-0.0137023
0.014974
-0.0131997
-0.00149572
0.0138857
-0.0117596
0.0128159
-0.0108371
-0.00179229
0.000218006
-0.000218006
0.000779997
-0.00332871
0.00525508
0.000106313
-0.00649419
0.0063905
0.0103161
-0.00924056
-0.00106426
-0.00159604
-0.00437817
0.0059751
-0.00965262
0.0108463
0.00747411
-0.00989865
-0.00248922
-7.656e-05
0.00256578
0.00376442
-0.00138889
-0.00237553
0.00432308
0.000673906
-0.00499688
-0.00100585
-0.00728856
-0.0158706
0.00114584
-0.009524
0.00891791
-0.00189894
-0.014555
-0.00286646
-0.00171512
0.00458184
-0.00419982
0.00657424
-0.0016276
-0.0019975
0.00351887
0.00375454
-0.00575142
0.00199725
0.00523296
-0.00134355
0.000462202
0.00232069
0.0059151
-0.00663821
0.00735003
-0.000731084
-0.0064871
-0.016576
0.0155634
0.00109326
0.00505151
-0.00027757
-0.00482794
0.00196172
0.0126426
0.00241019
0.00195514
0.00144656
0.000691609
0.00679422
0.00839404
-0.00629692
-0.0020098
-0.00257278
0.00184113
-0.00280538
-0.00785001
0.00653782
0.0135213
0.00701332
0.000183411
-0.0107315
0.00285767
-0.0130328
0.00950996
-0.00355145
0.00563311
-0.00208176
0.00381142
-0.00330215
-0.00209387
0.0089172
-0.00681173
-0.00783615
-0.00185435
-0.0117507
0.00576608
0.00620908
-0.0144802
0.000384776
0.0141954
0.00186185
0.00272385
-0.00726256
0.0070768
-0.0152398
0.0155603
-2.80228e-05
0.00708476
-0.00701596
-5.70192e-05
0.00515446
0.00449704
-0.00612478
-9.94202e-05
0.00622383
0.00779279
-0.00987413
-0.000739495
0.00231356
0.00707051
-0.000328061
0.0152786
-0.00347474
-0.00234624
0.00422494
-0.00187864
-0.0055635
-0.00595616
-0.000289836
0.00271802
-0.00150206
-0.00238407
-0.0101297
0.0102173
0.0140539
-0.000657024
-0.0133738
0.00416615
-0.0130506
-0.00838413
0.00527171
-0.014802
-0.00451686
0.00266574
-0.00088284
0.00100686
0.00347716
-0.00877439
-0.0134453
0.0136665
-0.000181663
-0.00687553
0.00786041
-0.00673279
0.0079981
-0.00104015
0.00310623
-0.00109345
-0.00829897
0.00233893
0.000781759
0.00891853
0.000108146
-0.00368036
-0.00165105
-0.0115387
0.0132083
0.0146099
-0.00354087
0.0131065
-0.00527593
0.00182465
-0.0159031
0.00383508
0.0121937
0.0135059
0.000647235
-0.0140436
0.0114195
3.67304e-06
0.00645585
-0.00636036
4.38014e-05
0.00142228
0.010309
-0.0117148
-0.0112906
0.0100515
-0.0044487
0.00579008
0.0016681
-0.00160994
0.000785188
0.00316707
-0.000708275
-0.000435396
-0.00836328
0.00880221
0.00435876
-0.00060398
0.00267291
-0.000195939
0.0132444
-0.000644274
-0.00586291
-0.00231041
-0.00537747
0.0134517
-0.0113185
-0.00583289
0.00748782
-0.00106809
0.0149535
-0.0113118
-0.00359201
-0.00239223
0.00619905
-0.00380659
-0.00524072
0.00607187
0.0013816
-0.0095787
0.00060026
0.00895962
-0.000797813
-0.0062259
0.00364975
-0.00532636
0.00167648
0.00279667
0.00269138
-0.00184255
-0.00288807
0.00416242
0.00639427
0.00773013
-0.00113848
0.0074225
-0.0062841
0.00239353
-0.00122296
0.00426011
-0.00193409
-0.00237546
-0.00494376
0.00732235
-0.00042526
-0.0106928
0.0111461
0.00331129
-0.006194
-0.00454015
0.00252221
-0.00270865
-0.00333599
0.00604597
-0.0105572
0.0145702
-0.00398895
0.018424
-0.00624884
-0.0120069
0.00211691
-0.00318007
-0.015871
0.0151333
0.000819803
0.0030443
-0.00546108
-0.00538049
0.00163449
0.00374654
-0.01284
-0.00210099
0.00152986
-0.00451117
0.00891085
-0.00983394
0.000935329
0.0020412
0.00105313
-0.00309434
-0.0146359
0.000261797
-0.0015086
-0.00147193
0.00298054
-0.00240253
0.00459522
-0.00219207
-0.0116981
0.000983744
0.0025252
-0.00446426
0.0144372
0.00185186
-0.00177306
-0.0020159
-0.00169211
0.0105915
-0.00887915
0.014676
-0.013724
-0.000858804
2.5818e-05
-0.00461471
0.014782
-0.0138039
0.00267242
0.0112178
-0.0142419
-0.00526092
0.0142785
-0.00885253
0.00170771
0.00881637
-0.0105227
0.0137276
-0.0129877
0.0123587
-0.00817236
0.00497825
0.003196
-0.0159999
0.00636381
0.00965489
0.00911636
-0.00327007
-0.00431864
0.00776551
0.00568617
-0.00873831
-0.000516976
-0.00197225
0.00375398
-0.00493491
0.00118095
0.00742378
-0.00979508
-0.00541389
0.000191038
-0.0114506
0.000438858
-0.0131373
0.0127299
0.000874341
-0.00735112
0.0127477
-0.00135167
-0.0021217
-0.0139527
0.00115124
0.000900743
-0.00158589
-0.00142726
-0.00092872
0.00235598
0.00212449
-0.003621
-0.00791511
0.000181724
0.00136152
-0.000110746
-0.000937229
0.00432794
-0.0154694
0.0112088
0.00422978
-0.00420667
4.47999e-05
0.00309007
0.00331391
0.012568
-2.2071e-05
0.00686219
-0.00879073
0.00192736
0.000476939
0.0101662
-0.0106025
1.9786e-05
-0.00251094
-8.76649e-05
-0.00248492
-0.00235831
0.00118862
-0.000506414
0.00185333
-0.000421939
0.00483027
-0.00201737
-0.00320137
-0.00961897
0.0128834
0.00342357
0.00582018
-0.00924062
0.00239882
-0.00216481
0.00888804
-0.0105608
0.00211795
-0.00454375
0.00242606
0.0152705
-0.0149869
-0.000263973
-0.000411845
0.00056914
2.23498e-05
-0.0138168
-0.00264511
-0.00369412
0.00584524
-0.00215045
0.000139006
0.00304439
0.00962703
-0.000914043
-0.0113479
0.0059754
-0.000727332
0.00313263
0.00144919
-0.00637595
0.0019093
-0.00341788
-0.00154891
0.00842063
0.00215644
-0.00278143
0.00114307
-0.00570477
-0.00141803
0.00131231
0.000305071
-0.00154232
-0.0071692
0.0115575
-0.000125461
-0.0128662
0.0131198
0.00287875
-0.00732455
0.00785109
0.000324135
-0.00777662
-0.00440325
-0.00206296
0.012238
-0.0062958
0.00190175
0.0115544
-0.0134182
-0.00250553
-0.00598592
0.00849824
-0.00507763
0.00491281
0.000165001
0.00214656
0.00373616
-0.00588161
-0.0151232
0.00110834
0.00120725
-0.00183585
0.00538959
-0.0025926
0.000873007
-0.0140548
0.0131882
-0.0137434
0.000580792
-0.00133678
0.00574968
0.00676444
0.00272032
0.00340801
0.00198175
-0.0101515
0.0110885
-0.00228609
0.00440426
-0.00576158
0.000464801
0.00529807
-0.00628594
-0.00158674
0.00787277
0.009055
-0.00793852
-0.00111446
-0.000895974
-0.0016768
0.0112136
-0.000189959
-0.00194675
0.00503641
0.00277249
-0.00171961
-0.00105287
0.00301288
0.00181763
0.00268369
2.53899e-05
-0.00270901
-0.00172678
-0.00365295
0.00526938
-0.0137756
0.00666769
0.00250485
-0.000378492
-0.00990597
0.00740787
0.00193378
-0.000782779
0.00379585
0.00165659
-0.000298453
0.0020046
-0.00735676
-0.000554814
-0.00547439
0.00510968
0.000365765
0.00412013
0.00267762
-0.00679871
-0.000992058
0.00234562
0.00194987
-0.00339591
0.00144605
0.00433963
-0.0103163
-0.00565212
0.000178638
-0.000529215
-0.00539122
-0.00453926
0.00131146
0.00322791
-0.00904489
-0.0122685
0.00912739
0.0021642
0.0117661
0.0135082
-0.00173655
-0.011727
0.000276978
-0.00753539
0.00213074
-0.00336457
-0.00444643
0.00210896
-0.00277427
0.000951009
0.00182327
0.0112677
-0.0103995
-0.00732824
0.00828907
-0.00112611
0.00316729
-0.00239552
0.00423534
-0.00183984
-0.011589
0.011643
-2.96749e-05
0.00701203
-4.86677e-05
-0.00695918
-0.00672525
0.0097987
-0.00245882
1.97632e-05
0.00414718
-0.00769931
-0.0102963
0.0040789
0.00159222
0.0021086
-0.00445475
-0.000702664
0.00265256
-0.00294959
-0.000247155
-0.00951614
-0.00417345
0.00207983
0.00209378
-0.00162848
-0.00813323
-0.00487977
0.00137009
0.00814735
-0.00472164
-0.00591394
0.00431887
0.00250079
0.00744398
-0.00993823
0.000852074
0.0167542
-0.0120634
-0.00460117
0.000376533
-0.0136481
0.00827121
-0.00177353
-0.00649442
0.000147478
0.000878318
0.00464364
0.00363052
-0.00633277
0.00417606
0.00215809
-0.00115765
0.00505535
-0.00389684
0.000632393
0.000144978
-0.000690786
0.000365963
0.00288124
-0.00313315
0.014469
-0.00245828
-0.0119728
-0.0125011
0.000631686
0.0119393
0.00280996
0.000805591
0.0115179
0.00645855
-0.00635061
0.000590276
-0.00615473
0.00376288
0.000301866
-0.00100432
0.000250624
-0.00563696
0.00392215
0.000104099
0.011792
-0.0116272
0.00184979
0.000922705
-0.000243163
0.00818804
-0.00794012
-0.00614724
0.00623176
-8.3994e-05
0.000745667
-0.00517584
0.002774
-0.0124405
0.0038153
0.00900942
0.0111184
-0.00763656
0.00108498
-0.00678933
0.00558918
-0.0147147
-0.000659716
0.00846025
-0.00736411
-0.00109204
-0.000830801
-0.00284762
0.00367839
-0.00513923
0.0117375
0.00674271
-0.00480598
0.00332588
0.00148026
0.00845335
0.00237928
0.00162975
-0.00169433
-0.00311148
-0.000460513
0.0140771
-0.0073366
0.005006
0.0080948
-0.0112036
0.0081737
-0.014592
0.00102853
-0.00427525
-5.3698e-05
0.00432908
-0.00183012
0.00184145
-0.00315059
0.00130916
0.0110728
-0.0127065
-0.000307818
0.0119082
-0.0148118
0.00132476
0.0136641
-0.0124872
0.00240371
0.010115
-0.0115389
-0.00444179
0.0111049
-0.00875878
-0.00177808
-0.00143776
0.00321582
0.00850568
-0.00874364
0.00585592
-0.00191187
-0.00262808
0.00889745
-0.00729214
0.00100649
-0.0135995
-0.0010137
-0.00275729
0.00120496
0.00155233
-0.000739661
-0.0108427
-0.000218274
-0.00499824
0.00566836
0.00311489
-0.00427187
0.00225513
-0.00196382
0.00393591
0.0118829
0.000457411
0.0139524
-0.0012364
-0.00415712
-0.00791949
0.00898369
-0.00476204
-0.000189582
0.00495236
-0.0002208
-0.012057
0.0123099
-0.00330213
0.00618371
0.000516516
-0.01208
-0.0142437
0.000740544
0.00559551
-0.0034479
0.00261944
0.000692864
-0.00331229
0.0066674
-0.00590971
-0.000755571
-0.00178912
-0.0118744
0.00986911
-0.0119825
0.00229154
-0.00413966
0.00638224
-0.00224178
0.00831132
-0.00491084
-0.00126451
0.00617648
-0.00284709
0.0156536
-0.0125602
0.0006165
0.0146939
0.00224336
-0.0027293
-0.0011573
0.00155828
0.00668795
-0.000214808
0.000872718
-0.00582631
0.00495345
-0.0013809
0.000712718
-0.00303357
-0.00801581
0.0111079
-0.00204821
-0.000596293
0.00264453
-0.00120262
0.00285377
-0.000240318
0.00221568
-0.00307666
-0.00349936
0.00761821
0.00495117
-0.000623352
-0.00597707
0.00696082
0.0115404
-0.0109987
-0.00024519
0.00286464
-0.00195419
-0.000606436
0.0141605
-0.000637965
-0.0134972
0.0113834
-0.0143409
0.00775373
-0.00877356
0.00102191
0.00241824
-0.00224162
-0.000176618
0.000286681
-0.00788411
-0.0127082
0.0124519
-0.00771812
0.0133657
0.0153333
0.0119073
0.00835801
0.00845948
-0.000437053
0.00312078
0.00862628
-0.000870995
0.0116873
-0.010248
0.0104643
-0.0101046
-0.00016412
0.00204813
-0.00296716
0.00585464
-0.0117182
0.00940314
-0.00609793
9.04292e-06
-0.0138989
-0.000728465
-0.00464287
0.0140444
-0.00938545
0.00245005
-0.00273988
0.0036273
0.00211973
-0.00574747
-0.0116069
-0.00179029
-0.000932801
0.000352756
0.00557105
-0.00737117
0.00987885
-0.00422419
0.00211448
0.00210982
0.00285014
-0.000710218
-0.00213992
0.0176843
-0.00239722
-0.0151538
0.00593934
0.00190163
-0.00287077
0.000969142
-0.00506582
0.00655111
0.00557627
-0.00534364
0.00403053
-0.00693897
0.0025353
-0.000567473
5.35316e-06
0.000602451
-0.00624598
0.00618201
0.000313488
0.000597825
0.00316659
-0.000418555
-0.00366122
-0.000108019
-0.000538758
0.00155344
-0.000263324
-0.00931503
0.00970167
-0.00841983
-0.00127132
-0.000471849
-0.0119509
-0.00920703
0.0098694
0.0050736
-0.00643237
0.00213139
0.00192638
-0.00405779
0.00762756
0.00825156
-0.00172604
-0.0140356
-0.000926635
0.00115546
-0.0153478
0.00169939
-0.00827528
-0.00120078
0.00952943
0.0119351
-0.0118506
6.6189e-06
0.00699708
0.00947006
0.00435897
-0.00820918
0.00385247
0.00584765
-0.00152464
0.000537414
-0.00789974
0.00571083
0.00275242
0.00655508
0.0112135
-0.0025023
0.00149368
0.00100863
-0.00241712
-0.00402665
0.00644378
-0.0131568
-0.00117457
-0.00786691
0.00344139
0.00442574
-0.00118083
0.00243506
-0.00214813
0.0121579
-0.000159073
-0.000758185
-0.0128539
0.0137296
-0.0043286
0.0058268
-0.00149739
0.00689738
-0.00253613
0.0020784
0.0111048
0.00888273
0.00226
-0.0111334
0.0137391
-0.010465
-0.00288855
0.00979698
0.00135747
-0.000594104
-0.00233858
-0.00302064
0.00536015
-0.0133629
0.005146
-0.00380376
0.00423242
0.0124625
-0.0118617
-0.000489433
0.000328717
-0.00571914
0.00539138
0.0137226
0.000979081
-0.0143994
-0.0128977
0.00143036
-0.000750479
-0.0123801
0.0131468
-0.000399732
-0.0097389
0.000190449
0.00345908
-0.00277745
0.0013502
0.00813755
-0.0078373
-0.00479414
-0.00307363
-0.00945301
0.00063511
-0.0151299
-0.00280965
0.00191369
0.000477084
-0.000947594
-0.00701714
0.00796728
0.0113996
0.00259956
-0.0138998
0.00881958
0.00187022
-0.00277636
0.000906141
0.0127511
-0.0133952
0.00124752
0.0134651
-0.000510895
0.0102958
-0.00105114
-0.0092261
0.00577812
0.00821639
-0.0139203
-0.00122289
-0.00101334
0.00221445
0.0121849
-0.00204837
-0.00249509
-0.00330868
0.0012605
0.00273628
-0.000688837
-0.000519484
0.00427345
-0.00118783
-0.00131447
-0.00044013
-0.00416079
0.00606709
-0.00190634
0.00338612
-0.00163066
0.000419306
-0.000412435
2.49335e-05
-0.0121312
0.00301124
-0.0120098
0.0093185
-0.00226936
-0.00364343
0.00103634
-0.0136143
-0.00136039
-0.00179017
0.00620769
-0.00734634
0.00601314
-0.000772624
-0.00523922
0.0158481
-0.013467
-0.00232935
-0.00205334
0.00423934
-0.00218584
-0.00184521
0.00228995
-0.000444745
0.000868341
-0.00293755
0.00206921
0.00768388
-0.00909772
0.00141599
-0.00954978
0.00890053
0.000658813
-0.000936496
0.00351045
-0.00149764
-0.00211543
0.0140246
-0.00185903
-0.0119469
-0.000707638
0.00285091
-0.00214328
0.0022748
0.00327996
0.00463022
0.000424265
-0.00505426
-0.000196814
-0.00296858
0.00316552
0.0029503
-0.00418461
-0.011778
0.00246086
0.013936
-0.0111497
-0.00276388
-0.000493605
0.00875131
0.00228819
-0.00938061
0.00709635
-0.00148415
-0.00161002
-0.00173656
-0.00130382
0.00330443
0.00818346
-0.0111928
-0.00230502
6.91694e-05
0.00223585
-0.00141789
-0.0102749
0.00583642
-0.00196429
0.00409566
0.00337895
-0.00420978
-0.00150262
0.00488141
-0.0121262
0.0117124
0.00724582
0.00840704
0.00117653
-0.00957225
-0.0113012
0.0110983
0.00340338
-0.00133252
-0.000459234
0.00628792
-0.00574976
0.00230562
0.00119055
-0.00349609
-0.00227613
0.000336622
0.00275148
0.000277276
-0.0122289
0.006638
-0.00483242
-0.00180423
9.02347e-05
0.00388928
-0.00615737
-1.12091e-05
0.00957809
-0.00953405
-0.00332934
0.00162696
0.00258369
-0.0038735
0.00128985
0.00206571
-0.0048504
0.00278486
-0.00843322
-0.00128187
-0.000133663
0.00150425
-0.0102977
0.0103219
-0.00123157
4.24316e-05
0.0151691
-0.0126715
-0.00215832
-0.00563317
0.00072356
-0.00699882
0.00955609
-0.0127538
0.0136334
0.000586422
0.00897122
-0.00954487
0.00202027
-0.00273049
-0.0109192
0.00962625
0.00130076
0.00118628
-0.0122568
0.0110696
0.00120169
-0.00359721
-0.016073
0.015772
-0.00159509
0.000367419
0.0113933
-0.000921693
-0.0115323
-0.00360852
-0.00746152
0.0111019
-0.00209518
0.00210221
-7.02554e-06
0.00559818
0.00042552
-0.00234434
3.93177e-05
0.00462789
-0.00121894
-0.000510665
-0.0126167
0.00105652
0.0099953
-0.00137452
-0.00861244
-7.44639e-05
-0.000764644
0.0124297
-0.0114189
0.0142348
0.00142103
-0.0155134
0.00187835
0.00161933
-0.00349761
-0.00850138
0.000890506
-0.0105737
0.0103803
0.00766294
-0.00641617
0.00521303
-0.00168804
-0.0028511
-0.0157882
0.0115581
0.0031693
-0.00603147
-0.0136794
0.010595
-0.00703772
0.00313107
-0.00351005
0.00037898
-0.00589142
0.000159531
0.00573317
0.00601018
-0.0114354
0.0136427
0.0132455
-0.0129989
-0.000128698
0.00201465
-0.00275414
0.00139009
0.00277948
-0.0041696
-0.00329373
-0.00234278
-0.00134857
0.00217739
0.0105747
0.000120595
0.00246454
0.0110819
0.00314514
0.0112336
0.000152197
0.00209117
0.000937792
-0.0101377
-0.00427744
-0.00200172
0.00628169
-0.000723372
0.00961442
0.00316514
-0.0148912
0.0118126
0.0112434
-0.00230981
0.00310557
6.18113e-05
-0.00347688
-0.00938954
-0.0051783
0.00550795
-0.00236907
-0.0132827
0.00203852
-0.000972423
0.0030978
0.0012631
0.00784382
0.00801162
0.00965111
0.00378587
-0.0031119
0.00142248
0.0013138
-0.00120382
-0.0076789
-0.00274032
0.00120196
0.00153836
-0.0114267
-0.00104017
0.0126699
-0.00868359
0.00133003
0.00965131
-0.0100512
-0.00316524
-0.00171417
-0.00172005
0.0145685
0.00105342
0.00749931
0.000618587
-0.00812004
0.0059893
0.00113457
0.00622667
-0.00736106
0.00170102
-0.00671187
0.00400477
-0.00214231
0.00446273
0.00409093
-0.00352055
-0.00057026
0.00295866
-0.0134905
0.000309161
-0.0039666
0.00365732
0.00245504
-0.00263545
0.0108987
-0.009795
-0.00108392
-0.00124435
-0.00311721
-0.00534304
-0.000988171
-0.0135423
0.0158333
-0.00215008
-0.0099494
0.00922311
0.00727063
-0.000447118
0.00141667
-0.0126175
0.00811141
0.0114784
0.00768104
0.0116468
-0.0111803
-0.00129524
-0.0135233
0.0149415
-0.0151036
0.0117399
0.00338203
-0.0122347
-0.00322804
0.00144995
-0.00183145
0.0107226
-0.0107678
-0.000183786
0.0109809
-0.00467964
-0.0146293
0.00277484
0.0120251
-0.0139221
0.013583
0.0003309
0.00772781
0.000644778
-0.00836781
0.00275354
-0.00472425
0.00197088
0.000595244
-0.00487035
-0.00642533
0.000182201
-0.00557504
0.00238023
-0.00191001
0.00207288
-0.00317776
0.0011049
0.00625493
0.00349134
-0.00973869
-0.00165289
-0.001168
0.00282089
0.00741936
-0.00362106
-0.00379718
0.000601711
0.00647695
-0.00186963
0.0104059
-0.0115911
0.00121738
0.00156636
0.001648
-0.00321435
0.00260081
-0.000730589
0.00710864
-0.00212881
-0.00305963
-0.0148768
0.00119394
0.0131885
-0.0137293
0.000580275
0.00348302
-0.00660229
-0.00155021
0.00235598
-0.000805769
0.0014785
0.00860418
-0.0100676
-0.0133186
-0.000831405
0.000746016
0.0036434
-0.00174178
0.00539905
-0.0033255
-0.00207282
-0.0111382
0.000401625
0.00793227
-0.0044237
0.00529622
-0.0018718
0.00777484
-0.00589567
0.00946112
0.00145683
0.00225843
-0.00296606
0.00175539
-0.00504866
-0.00512022
0.0166643
-0.011501
-0.00458254
0.00307985
0.00480255
0.000308171
0.00706824
-0.00241188
-0.00465631
0.00128846
0.00280258
-0.00195388
0.0109772
-0.000290318
-5.75559e-05
0.0134272
-0.00257248
0.00594786
-0.00421475
0.00312685
-0.00224334
-0.000883503
-0.00956265
0.00450032
-0.00110175
0.00280458
0.000309302
-0.00438005
0.00407165
-0.000852535
-0.00905099
0.0100859
-0.000494306
-0.00199788
0.00179219
0.000166955
-0.00195914
0.0112589
-0.000166776
0.00226571
0.003614
-0.00140641
-0.0156653
0.00227911
0.0123634
-0.000343616
-0.00202741
0.00417761
-0.00215029
0.00322772
-0.000643999
-1.69745e-05
0.00599659
0.00142593
-0.00217368
0.0137012
-0.00294159
-0.00190857
-0.000312057
2.65566e-05
-0.00255005
0.00987727
-0.00731864
-0.0105003
-0.00220453
0.0105639
-0.00835266
0.00127428
-0.0144975
-0.00366733
-0.0021546
0.00582267
0.001778
0.00992207
0.00242322
0.00464524
-0.00306701
0.00932901
-0.00367812
0.00353795
0.000258277
-0.00531816
0.00120849
0.00411027
-0.000702572
0.0103867
-0.00223779
-0.00134087
0.00319221
-0.00128289
0.00590151
0.00371527
0.0104097
-0.0140504
-0.0151099
0.0139386
-0.00616142
0.00993051
-0.015148
0.00486437
0.0102961
-0.00235555
0.000501
0.00185456
0.00342103
-0.00154261
-0.004621
-0.000133341
0.00719419
0.00320506
0.0123354
0.00264995
-0.00404675
0.0013969
-0.00608166
0.00194276
0.00323965
-0.013777
-0.00330236
0.00178824
0.00151414
0.00182268
0.0105078
-0.012109
-0.00561431
-0.000730246
0.00634624
0.00205803
0.00106883
-0.00164492
-0.01242
0.0142825
0.00049222
-0.00233742
0.00285289
-0.00468956
-0.000627719
0.00128513
-0.00246596
0.00214711
-0.00581351
0.0108187
0.00179082
-0.0125576
-0.00973304
0.0115243
0.00172789
-0.00307646
-0.00115909
0.00328983
0.00231905
-0.0120365
-0.00163768