/*--------------------------------*- C++ -*----------------------------------*\
| =========                 |                                                 |
| \\      /  F ield         | OpenFOAM: The Open Source CFD Toolbox           |
|  \\    /   O peration     | Version:  v2012                                 |
|   \\  /    A nd           | Website:  www.openfoam.com                      |
|    \\/     M anipulation  |                                                 |
\*---------------------------------------------------------------------------*/
FoamFile
{
    version     2.0;
    format      ascii;
    class       volVectorField;
    location    "650";
    object      cellDisplacement;
}
// * * * * * * * * * * * * * * * * * * * * * * * * * * * * * * * * * * * * * //

dimensions      [0 1 0 0 0 0 0];


internalField   nonuniform List<vector> 
10042
(
(0 0.000685206 0)
(0 0.00149369 0)
(0 0.00130346 0)
(0 0.000357677 0)
(0 0.00020823 0)
(0 0.00172863 0)
(0 0.000630068 0)
(0 0.00110291 0)
(0 0.000484763 0)
(0 0.000845171 0)
(0 0.0011874 0)
(0 0.0014891 0)
(0 0.000419194 0)
(0 0.00113495 0)
(0 0.000441782 0)
(0 0.00113484 0)
(0 0.00173842 0)
(0 0.00120339 0)
(0 0.000417617 0)
(0 0.00107436 0)
(0 0.000436625 0)
(0 0.000665635 0)
(0 0.000340959 0)
(0 0.00157702 0)
(0 0.000810746 0)
(0 2.72774e-05 0)
(0 0.000849753 0)
(0 0.000310586 0)
(0 0.00173318 0)
(0 0.00160515 0)
(0 0.00011109 0)
(0 0.000262318 0)
(0 0.000448293 0)
(0 0.000424582 0)
(0 0.00111314 0)
(0 0.00114321 0)
(0 6.19106e-05 0)
(0 0.000491077 0)
(0 0.000153088 0)
(0 5.09639e-05 0)
(0 0.00159412 0)
(0 0.000459449 0)
(0 0.000385571 0)
(0 0.00138087 0)
(0 0.000568404 0)
(0 0.000841241 0)
(0 0.000203674 0)
(0 0.000442456 0)
(0 0.000677954 0)
(0 0.000456777 0)
(0 0.000398144 0)
(0 0.000327499 0)
(0 0.00173401 0)
(0 0.000427763 0)
(0 0.000966045 0)
(0 0.000373844 0)
(0 0.000446957 0)
(0 0.00115455 0)
(0 0.00061074 0)
(0 1.4867e-05 0)
(0 0.00069914 0)
(0 0.000899164 0)
(0 0.00038581 0)
(0 0.00107242 0)
(0 0.00155321 0)
(0 0.00118844 0)
(0 0.00109384 0)
(0 0.000766157 0)
(0 0.000217161 0)
(0 0.000750058 0)
(0 0.00039949 0)
(0 0.000886481 0)
(0 0.000784822 0)
(0 0.000599734 0)
(0 0.00116895 0)
(0 0.000387561 0)
(0 0.00156133 0)
(0 0.000211434 0)
(0 0.0015707 0)
(0 0.000403425 0)
(0 0.00137595 0)
(0 0.00158868 0)
(0 5.19459e-05 0)
(0 0.000326252 0)
(0 0.000953723 0)
(0 0.000717755 0)
(0 0.00109109 0)
(0 0.00132018 0)
(0 0.00109152 0)
(0 0.00154742 0)
(0 0.000419342 0)
(0 0.000431389 0)
(0 0.000398487 0)
(0 0.00073267 0)
(0 0.00152954 0)
(0 0.000810239 0)
(0 0.00017952 0)
(0 0.00107281 0)
(0 0.00170579 0)
(0 0.000572951 0)
(0 0.000427573 0)
(0 0.000849545 0)
(0 0.000809765 0)
(0 0.000265821 0)
(0 0.000466096 0)
(0 0.000755825 0)
(0 0.000522033 0)
(0 0.00113928 0)
(0 0.000652432 0)
(0 0.000755234 0)
(0 0.000626072 0)
(0 0.000664827 0)
(0 0.000862381 0)
(0 0.00108087 0)
(0 0.00153537 0)
(0 0.00023704 0)
(0 0.00154097 0)
(0 0.000123951 0)
(0 0.00113576 0)
(0 0.000224342 0)
(0 1.99786e-05 0)
(0 0.00150073 0)
(0 0.00149785 0)
(0 0.000594895 0)
(0 0.00155585 0)
(0 0.001148 0)
(0 0.00117078 0)
(0 0.000958983 0)
(0 0.000281837 0)
(0 0.00154855 0)
(0 0.000565307 0)
(0 0.00111211 0)
(0 0.00125327 0)
(0 0.00105891 0)
(0 0.000685606 0)
(0 0.00046472 0)
(0 0.00115028 0)
(0 0.000581089 0)
(0 0.000523331 0)
(0 0.00170363 0)
(0 0.000403498 0)
(0 0.000177709 0)
(0 0.000539529 0)
(0 0.000293486 0)
(0 0.00066079 0)
(0 0.000517677 0)
(0 0.000947112 0)
(0 0.000205917 0)
(0 0.000963303 0)
(0 0.00172855 0)
(0 0.00111886 0)
(0 0.000130497 0)
(0 0.000519666 0)
(0 0.000400424 0)
(0 0.00151118 0)
(0 0.000674382 0)
(0 0.00029068 0)
(0 0.000369329 0)
(0 0.00125755 0)
(0 1.84388e-05 0)
(0 0.000122066 0)
(0 4.01985e-05 0)
(0 0.00048659 0)
(0 0.00111703 0)
(0 0.000530579 0)
(0 0.00173138 0)
(0 0.00077914 0)
(0 0.000271358 0)
(0 0.00113356 0)
(0 0.000389931 0)
(0 0.00150187 0)
(0 0.00161161 0)
(0 0.00151282 0)
(0 0.00041256 0)
(0 0.000442916 0)
(0 0.00150527 0)
(0 0.000787084 0)
(0 0.000510632 0)
(0 0.00108928 0)
(0 0.000215632 0)
(0 0.000531686 0)
(0 0.000516915 0)
(0 0.000583272 0)
(0 0.000186477 0)
(0 6.5962e-05 0)
(0 0.000357635 0)
(0 0.00086891 0)
(0 1.40675e-05 0)
(0 0.000402855 0)
(0 0.000170256 0)
(0 0.00148264 0)
(0 0.000464555 0)
(0 0.000593955 0)
(0 0.000515249 0)
(0 0.00097303 0)
(0 0.000421702 0)
(0 0.000220557 0)
(0 0.00147218 0)
(0 0.000182979 0)
(0 0.000291587 0)
(0 0.000277512 0)
(0 0.000400951 0)
(0 0.00158992 0)
(0 0.000125043 0)
(0 0.00171205 0)
(0 0.00122671 0)
(0 0.00153496 0)
(0 0.000413065 0)
(0 0.00063101 0)
(0 0.00106426 0)
(0 0.000259763 0)
(0 0.000138329 0)
(0 0.00160138 0)
(0 0.0015674 0)
(0 9.08046e-05 0)
(0 0.000748382 0)
(0 0.000116919 0)
(0 0.00152573 0)
(0 0.000180678 0)
(0 0.000287827 0)
(0 0.000232835 0)
(0 0.0014833 0)
(0 0.000241667 0)
(0 0.000741711 0)
(0 0.000386395 0)
(0 0.000389329 0)
(0 0.000957399 0)
(0 0.00114724 0)
(0 0.000839904 0)
(0 0.000796303 0)
(0 0.000534733 0)
(0 0.00119876 0)
(0 0.000370255 0)
(0 8.53736e-05 0)
(0 0.000804378 0)
(0 0.00111325 0)
(0 0.00118018 0)
(0 0.000185502 0)
(0 0.000658769 0)
(0 0.00156925 0)
(0 0.00155233 0)
(0 0.00162387 0)
(0 1.7094e-05 0)
(0 5.22451e-05 0)
(0 0.00104259 0)
(0 0.000213749 0)
(0 0.00161305 0)
(0 0.00067115 0)
(0 0.000521708 0)
(0 0.000169776 0)
(0 0.000460646 0)
(0 0.000614622 0)
(0 0.00166912 0)
(0 0.000983091 0)
(0 0.000963364 0)
(0 0.00117464 0)
(0 0.00013854 0)
(0 0.00101984 0)
(0 0.000184082 0)
(0 0.00024841 0)
(0 0.0015578 0)
(0 0.000571078 0)
(0 0.000328104 0)
(0 0.00021737 0)
(0 0.000407919 0)
(0 0.00100498 0)
(0 0.00154991 0)
(0 0.00165978 0)
(0 5.35556e-05 0)
(0 0.00121119 0)
(0 0.000381409 0)
(0 0.000467992 0)
(0 0.00107548 0)
(0 0.000388975 0)
(0 0.00101449 0)
(0 0.00107895 0)
(0 0.000418541 0)
(0 0.000655045 0)
(0 5.24651e-05 0)
(0 0.000991423 0)
(0 0.000336766 0)
(0 0.00164073 0)
(0 0.000209803 0)
(0 0.000425318 0)
(0 2.0859e-05 0)
(0 0.000248139 0)
(0 0.00155837 0)
(0 0.00030763 0)
(0 0.000626636 0)
(0 0.000106041 0)
(0 0.000492727 0)
(0 0.00151809 0)
(0 3.42089e-05 0)
(0 0.00165219 0)
(0 0.00156049 0)
(0 0.00110379 0)
(0 0.00120029 0)
(0 0.00116621 0)
(0 0.000373689 0)
(0 0.000119847 0)
(0 0.000531194 0)
(0 0.00157958 0)
(0 9.58027e-06 0)
(0 0.00153959 0)
(0 0.00155183 0)
(0 0.000900301 0)
(0 0.00112979 0)
(0 4.092e-05 0)
(0 0.00121685 0)
(0 0.00165549 0)
(0 4.37513e-05 0)
(0 0.00102748 0)
(0 0.00078612 0)
(0 0.00110162 0)
(0 0.00152188 0)
(0 0.000607396 0)
(0 0.000210146 0)
(0 6.03398e-05 0)
(0 0.00156415 0)
(0 0.00022698 0)
(0 4.80331e-05 0)
(0 0.000400846 0)
(0 0.00106093 0)
(0 0.000892813 0)
(0 0.000103083 0)
(0 7.11949e-05 0)
(0 0.00135982 0)
(0 0.00108818 0)
(0 0.00116197 0)
(0 0.000502514 0)
(0 0.00122589 0)
(0 0.000658081 0)
(0 0.000691785 0)
(0 0.000133966 0)
(0 0.00154795 0)
(0 0.00064183 0)
(0 0.000519554 0)
(0 0.000879509 0)
(0 0.000643498 0)
(0 0.00172835 0)
(0 0.000422478 0)
(0 0.00049088 0)
(0 2.25071e-05 0)
(0 0.00139365 0)
(0 9.88987e-05 0)
(0 0.000526804 0)
(0 0.000995971 0)
(0 0.0001904 0)
(0 0.00145925 0)
(0 0.000176913 0)
(0 0.000444896 0)
(0 0.00153783 0)
(0 0.00145905 0)
(0 0.000610422 0)
(0 0.00091847 0)
(0 0.0013814 0)
(0 0.000941762 0)
(0 2.71201e-05 0)
(0 0.000279803 0)
(0 2.14816e-05 0)
(0 0.000737817 0)
(0 6.23837e-05 0)
(0 0.000546806 0)
(0 0.00158013 0)
(0 0.00173065 0)
(0 0.000522549 0)
(0 0.000237374 0)
(0 0.00143918 0)
(0 0.00143948 0)
(0 0.000925076 0)
(0 1.71263e-05 0)
(0 4.96436e-05 0)
(0 0.0011045 0)
(0 8.96076e-07 0)
(0 0.000721528 0)
(0 0.00118416 0)
(0 0.00109778 0)
(0 0.0015847 0)
(0 0.00109568 0)
(0 0.000705315 0)
(0 0.000714081 0)
(0 0.00157431 0)
(0 0.000865118 0)
(0 0.00106375 0)
(0 0.000351112 0)
(0 0.00023411 0)
(0 0.000169034 0)
(0 0.000208894 0)
(0 0.00124446 0)
(0 0.000299795 0)
(0 0.00103075 0)
(0 0.000334055 0)
(0 0.000457173 0)
(0 0.00134565 0)
(0 0.00172725 0)
(0 0.000960204 0)
(0 0.000400176 0)
(0 0.00110261 0)
(0 4.00796e-05 0)
(0 0.000274611 0)
(0 0.000294318 0)
(0 0.000244372 0)
(0 0.000335229 0)
(0 0.000945189 0)
(0 0.000207706 0)
(0 0.000628225 0)
(0 0.000432734 0)
(0 0.000684377 0)
(0 0.00154832 0)
(0 0.00102447 0)
(0 0.0017303 0)
(0 0.000604577 0)
(0 0.00163336 0)
(0 0.000462493 0)
(0 0.00101888 0)
(0 0.0013412 0)
(0 0.000682073 0)
(0 0.000930903 0)
(0 0.00024603 0)
(0 0.00132265 0)
(0 0.000138316 0)
(0 0.00172923 0)
(0 0.000550188 0)
(0 0.000178522 0)
(0 0.000392385 0)
(0 0.00135329 0)
(0 0.000916025 0)
(0 0.00172502 0)
(0 0.000249847 0)
(0 0.000472158 0)
(0 0.00135147 0)
(0 0.000231286 0)
(0 0.000618785 0)
(0 0.00113745 0)
(0 0.000681259 0)
(0 0.000553358 0)
(0 0.000654041 0)
(0 0.00111569 0)
(0 4.52004e-05 0)
(0 0.000359007 0)
(0 0.000281536 0)
(0 0.00150829 0)
(0 0.00126042 0)
(0 0.000390974 0)
(0 0.000454381 0)
(0 5.32738e-05 0)
(0 0.00100688 0)
(0 0.00049564 0)
(0 0.00108296 0)
(0 0.000176632 0)
(0 0.00104219 0)
(0 0.00126608 0)
(0 0.00127572 0)
(0 0.000357891 0)
(0 0.000311391 0)
(0 0.00102723 0)
(0 0.00152751 0)
(0 0.000326643 0)
(0 0.00020205 0)
(0 4.96198e-05 0)
(0 9.82736e-05 0)
(0 0.000427061 0)
(0 0.000920655 0)
(0 0.000945308 0)
(0 0.00122434 0)
(0 1.66954e-05 0)
(0 0.000661247 0)
(0 0.000398019 0)
(0 0.00151437 0)
(0 0.00151132 0)
(0 0.000517858 0)
(0 0.000499452 0)
(0 0.000287022 0)
(0 0.000637959 0)
(0 0.00168597 0)
(0 0.000151953 0)
(0 0.000315037 0)
(0 6.00571e-05 0)
(0 0.000951902 0)
(0 0.000432704 0)
(0 0.00145304 0)
(0 0.00047494 0)
(0 0.00169578 0)
(0 0.000154495 0)
(0 0.000442681 0)
(0 3.54622e-05 0)
(0 0.00102404 0)
(0 0.00172198 0)
(0 5.66446e-05 0)
(0 0.000283856 0)
(0 0.00103324 0)
(0 0.00141516 0)
(0 0.000566595 0)
(0 0.0014242 0)
(0 0.00136663 0)
(0 0.000452161 0)
(0 0.000592345 0)
(0 0.00144382 0)
(0 0.00165674 0)
(0 0.000635331 0)
(0 0.000616128 0)
(0 9.80281e-05 0)
(0 0.00163177 0)
(0 0.00142668 0)
(0 0.000625156 0)
(0 0.00168755 0)
(0 0.000150184 0)
(0 3.90674e-05 0)
(0 0.000862481 0)
(0 0.000782875 0)
(0 0.000671224 0)
(0 0.00152994 0)
(0 0.00059052 0)
(0 0.000304585 0)
(0 0.000733632 0)
(0 0.00166418 0)
(0 0.000559396 0)
(0 0.00155918 0)
(0 0.00040406 0)
(0 0.000565086 0)
(0 0.000534948 0)
(0 0.00070159 0)
(0 0.00168394 0)
(0 0.000777955 0)
(0 0.000569765 0)
(0 0.00168956 0)
(0 0.00148216 0)
(0 0.0010395 0)
(0 0.000766328 0)
(0 0.00115218 0)
(0 4.84262e-05 0)
(0 0.000619186 0)
(0 0.000717224 0)
(0 0.000379251 0)
(0 0.00136273 0)
(0 0.000823578 0)
(0 0.00065806 0)
(0 0.00112136 0)
(0 0.000542898 0)
(0 0.00102266 0)
(0 0.000256287 0)
(0 0.000831738 0)
(0 0.000896724 0)
(0 0.000234633 0)
(0 0.000557371 0)
(0 0.000330872 0)
(0 0.000148759 0)
(0 0.000720922 0)
(0 0.00168345 0)
(0 1.87065e-05 0)
(0 0.00163872 0)
(0 0.000608221 0)
(0 0.000471275 0)
(0 0.00129173 0)
(0 0.000517749 0)
(0 0.00150907 0)
(0 0.00150189 0)
(0 0.000128094 0)
(0 0.00037671 0)
(0 0.000178834 0)
(0 0.000388645 0)
(0 0.000987158 0)
(0 0.000735462 0)
(0 0.00135265 0)
(0 0.000747295 0)
(0 9.12019e-06 0)
(0 0.000808837 0)
(0 0.000482858 0)
(0 0.00100603 0)
(0 4.18692e-05 0)
(0 0.000330046 0)
(0 0.000813884 0)
(0 0.0015686 0)
(0 0.000876699 0)
(0 0.00151597 0)
(0 0.000334991 0)
(0 0.000346945 0)
(0 0.000467384 0)
(0 0.000492148 0)
(0 0.00108209 0)
(0 0.00104632 0)
(0 0.000701477 0)
(0 0.000149236 0)
(0 0.000238064 0)
(0 0.000493091 0)
(0 0.000980786 0)
(0 0.000602289 0)
(0 0.000823076 0)
(0 0.000222555 0)
(0 0.00103582 0)
(0 0.00154024 0)
(0 0.000464861 0)
(0 0.000626268 0)
(0 9.24892e-05 0)
(0 0.0014732 0)
(0 0.000238615 0)
(0 0.00107141 0)
(0 0.000229937 0)
(0 0.000649301 0)
(0 0.000496305 0)
(0 0.000116741 0)
(0 0.000691267 0)
(0 0.000264233 0)
(0 0.000212374 0)
(0 0.00113914 0)
(0 0.00120397 0)
(0 0.0010666 0)
(0 1.13429e-06 0)
(0 0.00107584 0)
(0 0.000144392 0)
(0 0.00132063 0)
(0 0.000426837 0)
(0 0.000747459 0)
(0 0.000176052 0)
(0 0.000750487 0)
(0 0.000660793 0)
(0 0.000795349 0)
(0 0.000803282 0)
(0 0.000483519 0)
(0 0.000194516 0)
(0 0.00136195 0)
(0 0.0017199 0)
(0 0.00103991 0)
(0 0.000341906 0)
(0 0.000182092 0)
(0 0.0011735 0)
(0 4.68909e-05 0)
(0 0.00157301 0)
(0 0.00162128 0)
(0 0.00171528 0)
(0 0.00062968 0)
(0 0.00160281 0)
(0 0.000322844 0)
(0 0.000677845 0)
(0 0.0016502 0)
(0 0.00132242 0)
(0 0.00134778 0)
(0 0.000278173 0)
(0 0.000526891 0)
(0 0.00155544 0)
(0 0.000878902 0)
(0 0.000650816 0)
(0 0.0005107 0)
(0 0.000533819 0)
(0 0.000122404 0)
(0 0.00165608 0)
(0 0.000438907 0)
(0 3.02699e-05 0)
(0 0.000321414 0)
(0 0.000731436 0)
(0 0.00115053 0)
(0 4.19787e-05 0)
(0 0.0004064 0)
(0 0.00141413 0)
(0 0.000171611 0)
(0 0.00155119 0)
(0 0.00115193 0)
(0 0.00100337 0)
(0 0.000963716 0)
(0 0.000582392 0)
(0 1.06519e-05 0)
(0 8.90523e-05 0)
(0 0.00096582 0)
(0 0.000627767 0)
(0 0.00166636 0)
(0 0.00111502 0)
(0 0.00136763 0)
(0 0.000430889 0)
(0 0.00106308 0)
(0 0.000932801 0)
(0 0.00156806 0)
(0 0.000901409 0)
(0 0.00117252 0)
(0 0.000100804 0)
(0 0.000944115 0)
(0 0.00160268 0)
(0 0.000465738 0)
(0 7.19401e-05 0)
(0 0.000977265 0)
(0 2.26054e-05 0)
(0 0.000194557 0)
(0 0.000332694 0)
(0 0.0014773 0)
(0 0.000976125 0)
(0 5.90441e-05 0)
(0 0.000919258 0)
(0 0.00159199 0)
(0 0.000878882 0)
(0 0.000139829 0)
(0 0.00117436 0)
(0 0.00105078 0)
(0 0.000846616 0)
(0 0.00033364 0)
(0 0.00124441 0)
(0 2.45445e-05 0)
(0 0.00138252 0)
(0 0.00133374 0)
(0 0.000289041 0)
(0 0.000221159 0)
(0 0.000301448 0)
(0 0.000574451 0)
(0 0.000156601 0)
(0 6.47708e-05 0)
(0 0.000529493 0)
(0 0.00173447 0)
(0 0.00141888 0)
(0 0.000423314 0)
(0 0.00103157 0)
(0 0.00104823 0)
(0 0.000479683 0)
(0 0.000333382 0)
(0 0.000651572 0)
(0 2.63405e-05 0)
(0 0.000422642 0)
(0 0.000496198 0)
(0 0.00135754 0)
(0 0.00043731 0)
(0 0.00170775 0)
(0 0.000268709 0)
(0 0.00130217 0)
(0 9.62204e-05 0)
(0 3.87711e-05 0)
(0 0.000385815 0)
(0 0.000611863 0)
(0 0.00119774 0)
(0 0.000349289 0)
(0 0.000111604 0)
(0 0.00151016 0)
(0 0.00123444 0)
(0 0.00103168 0)
(0 0.00054678 0)
(0 0.00101854 0)
(0 0.00102452 0)
(0 0.00103913 0)
(0 0.000579817 0)
(0 0.00105962 0)
(0 0.000857001 0)
(0 0.00106976 0)
(0 2.14192e-05 0)
(0 0.000811681 0)
(0 0.000291946 0)
(0 2.50774e-05 0)
(0 0.00161472 0)
(0 0.0013239 0)
(0 0.00156703 0)
(0 0.00139289 0)
(0 0.00043083 0)
(0 0.000614598 0)
(0 0.00115849 0)
(0 0.000956003 0)
(0 0.000327195 0)
(0 0.000833729 0)
(0 0.000628548 0)
(0 2.04003e-05 0)
(0 0.000372468 0)
(0 5.06483e-05 0)
(0 0.00127632 0)
(0 2.51659e-05 0)
(0 0.00173469 0)
(0 0.000439098 0)
(0 0.000736525 0)
(0 0.00161976 0)
(0 0.000998704 0)
(0 0.000300108 0)
(0 0.000774707 0)
(0 2.24308e-05 0)
(0 0.00098755 0)
(0 0.000535257 0)
(0 0.00111867 0)
(0 0.00135124 0)
(0 0.000872232 0)
(0 0.00115585 0)
(0 0.000941237 0)
(0 0.000501635 0)
(0 0.000898602 0)
(0 0.000323347 0)
(0 0.00144397 0)
(0 0.00132731 0)
(0 0.000767955 0)
(0 0.000195745 0)
(0 0.000504304 0)
(0 0.000590926 0)
(0 0.000303152 0)
(0 0.000854705 0)
(0 0.00116009 0)
(0 0.000443423 0)
(0 0.0010725 0)
(0 0.000183347 0)
(0 0.000497619 0)
(0 0.000648133 0)
(0 0.000129565 0)
(0 0.000478471 0)
(0 2.64871e-05 0)
(0 0.000255228 0)
(0 0.00102749 0)
(0 0.000561642 0)
(0 0.000185285 0)
(0 8.21919e-05 0)
(0 0.000739323 0)
(0 0.00104497 0)
(0 0.000582803 0)
(0 1.37373e-05 0)
(0 0.000666005 0)
(0 0.00111235 0)
(0 0.00160147 0)
(0 0.000910419 0)
(0 0.00119943 0)
(0 0.000162687 0)
(0 0.00168854 0)
(0 8.1245e-05 0)
(0 0.000496861 0)
(0 0.000249643 0)
(0 0.00069907 0)
(0 0.00061658 0)
(0 0.000328003 0)
(0 0.00137779 0)
(0 0.00168311 0)
(0 0.000527508 0)
(0 0.00171795 0)
(0 0.000519941 0)
(0 3.36178e-05 0)
(0 0.000372181 0)
(0 0.00168329 0)
(0 0.00110829 0)
(0 0.000479774 0)
(0 0.000297593 0)
(0 0.00158377 0)
(0 0.00097607 0)
(0 0.00149604 0)
(0 0.00121904 0)
(0 0.00155108 0)
(0 0.00162898 0)
(0 0.00144382 0)
(0 0.00102702 0)
(0 0.000942118 0)
(0 0.000263822 0)
(0 0.00104098 0)
(0 0.00159144 0)
(0 0.000598588 0)
(0 0.000567325 0)
(0 0.000118009 0)
(0 0.00149341 0)
(0 2.29394e-05 0)
(0 0.000649834 0)
(0 0.000614774 0)
(0 0.00112428 0)
(0 0.00121031 0)
(0 2.66331e-05 0)
(0 0.000826362 0)
(0 0.000572388 0)
(0 0.000454455 0)
(0 0.00139872 0)
(0 0.0008213 0)
(0 2.44913e-05 0)
(0 0.000579846 0)
(0 0.00101494 0)
(0 0.00125084 0)
(0 0.000705289 0)
(0 0.000325541 0)
(0 0.000663875 0)
(0 0.000686531 0)
(0 0.0015823 0)
(0 0.00135138 0)
(0 0.00123223 0)
(0 0.00134984 0)
(0 0.000631249 0)
(0 0.000316386 0)
(0 9.03399e-05 0)
(0 0.000322442 0)
(0 0.000746409 0)
(0 0.000229773 0)
(0 0.00124935 0)
(0 8.24284e-05 0)
(0 0.00150978 0)
(0 0.00110134 0)
(0 0.000962686 0)
(0 0.00144337 0)
(0 0.000109259 0)
(0 0.000161188 0)
(0 0.00155627 0)
(0 0.00013428 0)
(0 0.000122146 0)
(0 0.00146028 0)
(0 0.000329262 0)
(0 0.00128692 0)
(0 0.000506095 0)
(0 0.00100063 0)
(0 0.000419796 0)
(0 0.00110438 0)
(0 0.00131392 0)
(0 0.000772887 0)
(0 0.000217902 0)
(0 0.00020777 0)
(0 0.00063208 0)
(0 0.000885754 0)
(0 0.000306188 0)
(0 0.000663377 0)
(0 0.000702698 0)
(0 2.71635e-05 0)
(0 0.000921107 0)
(0 0.000188349 0)
(0 0.000719287 0)
(0 0.000502282 0)
(0 0.00152192 0)
(0 0.000354362 0)
(0 0.000187195 0)
(0 0.000323888 0)
(0 0.00167745 0)
(0 9.9456e-05 0)
(0 0.000188023 0)
(0 0.000142879 0)
(0 3.48592e-05 0)
(0 0.000537043 0)
(0 0.00174079 0)
(0 0.00167969 0)
(0 0.00061777 0)
(0 0.000362442 0)
(0 0.00164219 0)
(0 0.00115709 0)
(0 9.06153e-05 0)
(0 0.000341915 0)
(0 0.00091044 0)
(0 0.00150622 0)
(0 0.000454784 0)
(0 0.00016707 0)
(0 0.00045452 0)
(0 0.000720686 0)
(0 0.0011311 0)
(0 0.00144031 0)
(0 0.00113327 0)
(0 0.00125646 0)
(0 0.00152135 0)
(0 0.00137161 0)
(0 0.00049577 0)
(0 0.000897699 0)
(0 0.000323099 0)
(0 0.000317259 0)
(0 0.00147563 0)
(0 0.00029121 0)
(0 0.000693443 0)
(0 0.00109346 0)
(0 0.00140838 0)
(0 0.00152302 0)
(0 0.00130885 0)
(0 0.000372963 0)
(0 0.000307698 0)
(0 0.0011834 0)
(0 0.00131727 0)
(0 0.00131168 0)
(0 0.00117257 0)
(0 5.4176e-05 0)
(0 0.000313198 0)
(0 0.00111594 0)
(0 0.000648761 0)
(0 0.000172431 0)
(0 0.00104937 0)
(0 0.000896185 0)
(0 0.000939034 0)
(0 0.000410075 0)
(0 0.00121854 0)
(0 0.000117632 0)
(0 0.00104567 0)
(0 0.00138981 0)
(0 0.000723937 0)
(0 9.2616e-05 0)
(0 0.000623653 0)
(0 0.00153991 0)
(0 0.000852193 0)
(0 0.000487729 0)
(0 0.000365524 0)
(0 0.00117652 0)
(0 0.000908015 0)
(0 0.00133206 0)
(0 0.00109491 0)
(0 1.92759e-05 0)
(0 0.00107149 0)
(0 0.000979727 0)
(0 0.00118578 0)
(0 0.00164975 0)
(0 0.000632892 0)
(0 0.00108572 0)
(0 0.000495453 0)
(0 0.000436301 0)
(0 0.00150475 0)
(0 0.00162172 0)
(0 0.000618055 0)
(0 0.000734862 0)
(0 0.00132014 0)
(0 0.0016441 0)
(0 0.000592253 0)
(0 0.000251318 0)
(0 0.000419266 0)
(0 0.00155373 0)
(0 0.000881295 0)
(0 0.000933788 0)
(0 0.00137701 0)
(0 0.000388669 0)
(0 0.000457608 0)
(0 0.000526785 0)
(0 0.00142177 0)
(0 0.000540817 0)
(0 0.00165024 0)
(0 0.000537948 0)
(0 0.000855626 0)
(0 0.000398734 0)
(0 0.000595491 0)
(0 0.000968517 0)
(0 0.000804709 0)
(0 0.000399169 0)
(0 2.59058e-05 0)
(0 0.000871367 0)
(0 0.00148934 0)
(0 0.00132435 0)
(0 0.00109975 0)
(0 0.00059585 0)
(0 0.000835968 0)
(0 0.000508462 0)
(0 0.00108844 0)
(0 0.00135347 0)
(0 0.000469859 0)
(0 0.000644376 0)
(0 0.000906338 0)
(0 0.00103796 0)
(0 0.00112889 0)
(0 0.00119981 0)
(0 0.0014186 0)
(0 9.85564e-05 0)
(0 0.00127627 0)
(0 0.0012089 0)
(0 0.00133775 0)
(0 0.00170753 0)
(0 0.00105511 0)
(0 0.000699714 0)
(0 0.000256951 0)
(0 0.000426729 0)
(0 0.00114652 0)
(0 0.00023222 0)
(0 0.000643979 0)
(0 5.05558e-05 0)
(0 0.00142603 0)
(0 0.000995424 0)
(0 0.000765197 0)
(0 0.00148944 0)
(0 0.000600596 0)
(0 0.00116069 0)
(0 0.00121287 0)
(0 0.000447992 0)
(0 0.00147184 0)
(0 0.000390504 0)
(0 0.000346452 0)
(0 0.000478447 0)
(0 0.000164951 0)
(0 0.000842956 0)
(0 0.000297127 0)
(0 0.000754094 0)
(0 0.00077112 0)
(0 0.00169379 0)
(0 0.0008561 0)
(0 0.00070334 0)
(0 0.000162313 0)
(0 0.000660375 0)
(0 0.00127631 0)
(0 0.000580255 0)
(0 0.00169904 0)
(0 0.000222497 0)
(0 0.000300564 0)
(0 0.000506395 0)
(0 0.000293685 0)
(0 0.000969664 0)
(0 0.000913629 0)
(0 0.00167479 0)
(0 0.00134249 0)
(0 0.00118578 0)
(0 0.00172581 0)
(0 0.000368748 0)
(0 0.00083096 0)
(0 0.000995221 0)
(0 0.000693011 0)
(0 2.53945e-05 0)
(0 0.000596949 0)
(0 0.000113965 0)
(0 0.000619565 0)
(0 0.0013454 0)
(0 0.00103596 0)
(0 0.000599402 0)
(0 0.00145943 0)
(0 0.00098805 0)
(0 0.000107302 0)
(0 0.000991767 0)
(0 0.000472414 0)
(0 0.000315651 0)
(0 0.000975566 0)
(0 0.00122238 0)
(0 0.000667779 0)
(0 0.000228538 0)
(0 0.0009912 0)
(0 0.000109066 0)
(0 0.000651865 0)
(0 0.00167175 0)
(0 0.000431469 0)
(0 0.000866385 0)
(0 2.9227e-05 0)
(0 0.000969024 0)
(0 0.00146838 0)
(0 0.000607048 0)
(0 0.00164515 0)
(0 0.00016297 0)
(0 0.00063647 0)
(0 0.000528442 0)
(0 0.00106802 0)
(0 0.00056399 0)
(0 0.000882155 0)
(0 0.000583776 0)
(0 0.00048724 0)
(0 5.03703e-05 0)
(0 4.59373e-05 0)
(0 0.000911502 0)
(0 0.000213592 0)
(0 0.000910367 0)
(0 0.000591955 0)
(0 0.000784778 0)
(0 0.000294664 0)
(0 0.00111202 0)
(0 0.000923446 0)
(0 0.00165479 0)
(0 0.00041286 0)
(0 0.00162867 0)
(0 9.4126e-05 0)
(0 0.00101522 0)
(0 0.0013518 0)
(0 0.00139593 0)
(0 0.000258518 0)
(0 0.00171187 0)
(0 0.000543804 0)
(0 0.000561814 0)
(0 0.000577677 0)
(0 0.00113402 0)
(0 0.000514611 0)
(0 0.00153166 0)
(0 0.00135629 0)
(0 0.000541548 0)
(0 0.00116384 0)
(0 0.00151712 0)
(0 0.000959921 0)
(0 0.00149399 0)
(0 0.000286526 0)
(0 0.000912284 0)
(0 0.00162905 0)
(0 0.000270065 0)
(0 0.00052549 0)
(0 0.000940881 0)
(0 0.000850712 0)
(0 1.26026e-05 0)
(0 0.000561225 0)
(0 0.000481783 0)
(0 0.000239471 0)
(0 0.00171302 0)
(0 0.000445728 0)
(0 0.000846045 0)
(0 0.000688897 0)
(0 0.00109595 0)
(0 0.000461264 0)
(0 0.00110938 0)
(0 0.00133705 0)
(0 0.000715358 0)
(0 0.00150341 0)
(0 0.000407345 0)
(0 0.00080015 0)
(0 0.00092255 0)
(0 0.0016409 0)
(0 0.000925677 0)
(0 0.00073665 0)
(0 0.000677304 0)
(0 0.000827343 0)
(0 0.00100221 0)
(0 0.000590028 0)
(0 0.00153682 0)
(0 0.000732856 0)
(0 0.000909967 0)
(0 0.0011452 0)
(0 0.00146012 0)
(0 0.00122283 0)
(0 0.00141021 0)
(0 8.25904e-05 0)
(0 0.00033872 0)
(0 0.00152838 0)
(0 0.00103725 0)
(0 0.00165667 0)
(0 0.000645745 0)
(0 0.000418057 0)
(0 0.000457978 0)
(0 0.000614435 0)
(0 0.00148714 0)
(0 0.000103117 0)
(0 0.00042128 0)
(0 0.00141605 0)
(0 0.000853946 0)
(0 0.000949271 0)
(0 0.000239864 0)
(0 0.000645898 0)
(0 0.00010616 0)
(0 0.000950311 0)
(0 0.00128983 0)
(0 0.000245508 0)
(0 0.00152282 0)
(0 0.000841879 0)
(0 0.00044522 0)
(0 0.000931267 0)
(0 0.001185 0)
(0 0.00139972 0)
(0 0.00012237 0)
(0 0.00056228 0)
(0 0.000353894 0)
(0 0.00070617 0)
(0 0.000943696 0)
(0 0.000303883 0)
(0 0.000451382 0)
(0 0.000912598 0)
(0 0.00105356 0)
(0 0.000609381 0)
(0 0.00150788 0)
(0 6.33332e-05 0)
(0 0.00106086 0)
(0 0.00149499 0)
(0 0.00136053 0)
(0 6.48727e-05 0)
(0 0.000229077 0)
(0 0.00139607 0)
(0 0.00070167 0)
(0 0.000734486 0)
(0 0.000515153 0)
(0 0.000534506 0)
(0 0.000648292 0)
(0 0.000243731 0)
(0 0.00158809 0)
(0 6.96905e-05 0)
(0 0.00115272 0)
(0 0.000620102 0)
(0 0.000851438 0)
(0 0.000883169 0)
(0 0.000827796 0)
(0 0.000553051 0)
(0 0.000499903 0)
(0 0.000652799 0)
(0 0.00114217 0)
(0 0.000432107 0)
(0 4.97991e-05 0)
(0 0.000210526 0)
(0 0.000322415 0)
(0 0.000444559 0)
(0 0.0010039 0)
(0 0.000428248 0)
(0 0.000692311 0)
(0 0.000601497 0)
(0 0.000452989 0)
(0 0.000497272 0)
(0 7.2962e-05 0)
(0 0.00154335 0)
(0 0.000303713 0)
(0 0.00152502 0)
(0 0.000672022 0)
(0 0.000403265 0)
(0 0.000899219 0)
(0 0.000431018 0)
(0 0.000666059 0)
(0 0.000464995 0)
(0 0.00116288 0)
(0 0.00118566 0)
(0 0.000649837 0)
(0 0.0017122 0)
(0 0.000271878 0)
(0 0.00139738 0)
(0 0.000163697 0)
(0 0.00114811 0)
(0 0.000284111 0)
(0 0.00115726 0)
(0 0.000670097 0)
(0 1.74699e-05 0)
(0 0.00097259 0)
(0 0.00082391 0)
(0 0.000722147 0)
(0 0.00150079 0)
(0 0.000297771 0)
(0 0.000663321 0)
(0 0.00160995 0)
(0 0.000115543 0)
(0 0.000174249 0)
(0 0.000432771 0)
(0 0.00142681 0)
(0 0.00122346 0)
(0 0.000749262 0)
(0 0.000498806 0)
(0 0.00111117 0)
(0 0.000622933 0)
(0 0.000562675 0)
(0 0.000208479 0)
(0 0.000904881 0)
(0 0.000285058 0)
(0 0.00133261 0)
(0 0.00162341 0)
(0 0.000471368 0)
(0 0.000425748 0)
(0 0.000399123 0)
(0 0.000435752 0)
(0 0.000629296 0)
(0 0.00108313 0)
(0 0.000290949 0)
(0 0.000348982 0)
(0 0.000821462 0)
(0 0.000666759 0)
(0 0.000498141 0)
(0 0.000703918 0)
(0 0.000386726 0)
(0 0.000461877 0)
(0 0.00146581 0)
(0 0.000945561 0)
(0 0.00144134 0)
(0 0.000453063 0)
(0 0.000938567 0)
(0 0.000235957 0)
(0 0.000447909 0)
(0 0.000855599 0)
(0 0.000656336 0)
(0 0.000398974 0)
(0 0.000875786 0)
(0 0.00149507 0)
(0 0.00125572 0)
(0 0.000568667 0)
(0 0.00110046 0)
(0 0.000190222 0)
(0 0.000337692 0)
(0 0.000540051 0)
(0 0.00117952 0)
(0 0.000294168 0)
(0 0.00106029 0)
(0 0.000522437 0)
(0 4.45898e-05 0)
(0 0.000780646 0)
(0 0.000840615 0)
(0 0.000608297 0)
(0 0.00149964 0)
(0 0.00113026 0)
(0 0.0017074 0)
(0 0.000357504 0)
(0 0.000244156 0)
(0 0.000661562 0)
(0 0.000405457 0)
(0 0.000645873 0)
(0 0.000532565 0)
(0 0.000613982 0)
(0 9.41611e-05 0)
(0 0.000286879 0)
(0 0.000746072 0)
(0 0.000379886 0)
(0 0.000797302 0)
(0 0.000902239 0)
(0 0.000976876 0)
(0 0.000476872 0)
(0 0.000964227 0)
(0 0.000369885 0)
(0 0.000241088 0)
(0 4.72949e-05 0)
(0 0.000587162 0)
(0 0.000626215 0)
(0 0.000390446 0)
(0 0.00137834 0)
(0 0.000915575 0)
(0 0.000462609 0)
(0 0.000514484 0)
(0 0.00115816 0)
(0 4.04688e-05 0)
(0 0.000465949 0)
(0 0.00122409 0)
(0 0.000850316 0)
(0 0.00164725 0)
(0 0.000825368 0)
(0 0.000319254 0)
(0 7.8129e-05 0)
(0 0.00140665 0)
(0 0.00152791 0)
(0 0.000793176 0)
(0 0.00112425 0)
(0 0.00120102 0)
(0 0.000887406 0)
(0 0.000984492 0)
(0 0.000611336 0)
(0 0.00100156 0)
(0 0.00147887 0)
(0 0.000622066 0)
(0 0.000302672 0)
(0 0.000468528 0)
(0 0.000366635 0)
(0 0.000536042 0)
(0 0.000409578 0)
(0 0.000852548 0)
(0 0.0003383 0)
(0 0.000674342 0)
(0 0.000870112 0)
(0 0.000578712 0)
(0 0.000515951 0)
(0 0.000657128 0)
(0 0.000420882 0)
(0 0.00065885 0)
(0 0.00154384 0)
(0 0.000207062 0)
(0 0.000681347 0)
(0 0.000552902 0)
(0 0.000679182 0)
(0 0.000347213 0)
(0 1.54896e-05 0)
(0 0.00149033 0)
(0 0.000314154 0)
(0 0.000220454 0)
(0 0.000312776 0)
(0 0.000387792 0)
(0 0.000817293 0)
(0 0.000235969 0)
(0 0.000980495 0)
(0 0.000498245 0)
(0 0.00073615 0)
(0 0.000124021 0)
(0 0.00144275 0)
(0 0.000356688 0)
(0 0.000267236 0)
(0 0.00044761 0)
(0 0.000568523 0)
(0 0.000438816 0)
(0 0.000465956 0)
(0 0.000375371 0)
(0 0.000567509 0)
(0 0.00144208 0)
(0 0.000207241 0)
(0 0.00100029 0)
(0 4.99338e-05 0)
(0 0.00054914 0)
(0 0.00127599 0)
(0 0.000460875 0)
(0 0.000365239 0)
(0 0.00084232 0)
(0 0.00147604 0)
(0 0.000680456 0)
(0 0.000354248 0)
(0 0.00151743 0)
(0 0.00043068 0)
(0 7.23556e-05 0)
(0 0.00165013 0)
(0 0.000174091 0)
(0 0.000869629 0)
(0 0.000124133 0)
(0 0.000180016 0)
(0 0.000439192 0)
(0 0.000453101 0)
(0 0.000111764 0)
(0 0.000637155 0)
(0 0.00151553 0)
(0 0.00111467 0)
(0 0.000697291 0)
(0 0.000311799 0)
(0 0.000316384 0)
(0 0.00142877 0)
(0 0.000355793 0)
(0 0.000635509 0)
(0 0.00145433 0)
(0 0.000593921 0)
(0 0.000450453 0)
(0 0.000358775 0)
(0 0.000177151 0)
(0 0.00143502 0)
(0 0.00101662 0)
(0 0.000337206 0)
(0 0.00148291 0)
(0 0.00125496 0)
(0 0.000500832 0)
(0 0.00142407 0)
(0 0.00136316 0)
(0 0.00125001 0)
(0 2.49405e-05 0)
(0 1.83548e-05 0)
(0 0.000740009 0)
(0 0.000823015 0)
(0 0.00108744 0)
(0 0.00055016 0)
(0 0.000401684 0)
(0 0.00057411 0)
(0 0.000481455 0)
(0 0.000429612 0)
(0 0.00051052 0)
(0 0.00150346 0)
(0 0.000420796 0)
(0 0.000482592 0)
(0 0.00151841 0)
(0 0.00156292 0)
(0 0.00101692 0)
(0 0.00143684 0)
(0 0.00036019 0)
(0 0.00150078 0)
(0 0.00087957 0)
(0 0.000474636 0)
(0 0.0007342 0)
(0 0.00049187 0)
(0 0.00118176 0)
(0 0.000997744 0)
(0 0.000667149 0)
(0 0.000261088 0)
(0 0.000947051 0)
(0 9.65456e-05 0)
(0 0.000776028 0)
(0 0.0015549 0)
(0 0.000333859 0)
(0 0.00144685 0)
(0 0.000506931 0)
(0 2.19439e-05 0)
(0 0.000429347 0)
(0 0.00154006 0)
(0 0.000467836 0)
(0 0.000224286 0)
(0 0.0005793 0)
(0 0.000452201 0)
(0 0.00102747 0)
(0 2.6495e-05 0)
(0 0.000454867 0)
(0 0.000492135 0)
(0 0.0011283 0)
(0 0.00136845 0)
(0 0.00157959 0)
(0 2.28907e-05 0)
(0 0.000621671 0)
(0 3.97064e-05 0)
(0 0.000655219 0)
(0 0.000530911 0)
(0 0.000410346 0)
(0 0.00103 0)
(0 2.05118e-05 0)
(0 0.000652696 0)
(0 0.000421012 0)
(0 0.000579054 0)
(0 0.00047873 0)
(0 0.00054876 0)
(0 0.000471359 0)
(0 0.00117551 0)
(0 0.000690334 0)
(0 0.000496295 0)
(0 0.000487442 0)
(0 0.00118814 0)
(0 9.64796e-05 0)
(0 0.000703346 0)
(0 0.000610354 0)
(0 0.000590443 0)
(0 0.00085572 0)
(0 0.000431032 0)
(0 0.00141211 0)
(0 0.000257456 0)
(0 0.000565611 0)
(0 0.000548627 0)
(0 3.55043e-05 0)
(0 0.000822792 0)
(0 9.81267e-05 0)
(0 0.000616319 0)
(0 0.000521927 0)
(0 0.000502664 0)
(0 0.000400414 0)
(0 0.000542608 0)
(0 0.000399613 0)
(0 0.00105184 0)
(0 0.000556857 0)
(0 0.00113837 0)
(0 0.00119482 0)
(0 0.00140356 0)
(0 0.000557084 0)
(0 0.000606968 0)
(0 0.000391865 0)
(0 0.000637453 0)
(0 0.000546543 0)
(0 0.000120657 0)
(0 0.000961951 0)
(0 0.000472325 0)
(0 0.000853771 0)
(0 0.000576224 0)
(0 0.000121153 0)
(0 0.00124713 0)
(0 0.000114612 0)
(0 0.000491518 0)
(0 0.000418223 0)
(0 0.000580038 0)
(0 0.000408711 0)
(0 0.000394807 0)
(0 0.000628881 0)
(0 0.000412088 0)
(0 0.00055931 0)
(0 0.00122217 0)
(0 0.000937736 0)
(0 0.000620819 0)
(0 0.000352863 0)
(0 0.000626118 0)
(0 4.95229e-05 0)
(0 0.000558065 0)
(0 0.000560225 0)
(0 0.00137773 0)
(0 0.000989252 0)
(0 0.000945184 0)
(0 0.000178336 0)
(0 0.000518339 0)
(0 0.00118931 0)
(0 2.51882e-05 0)
(0 0.000329724 0)
(0 0.000315806 0)
(0 0.00126175 0)
(0 0.000438181 0)
(0 0.000631339 0)
(0 0.000628869 0)
(0 0.000423855 0)
(0 0.00119823 0)
(0 0.00108587 0)
(0 0.000408686 0)
(0 0.000349289 0)
(0 3.75587e-05 0)
(0 0.00138812 0)
(0 0.00141011 0)
(0 0.000439292 0)
(0 0.00071829 0)
(0 0.000369026 0)
(0 0.000372598 0)
(0 0.000477559 0)
(0 0.000342877 0)
(0 0.000499428 0)
(0 0.000535792 0)
(0 0.000353341 0)
(0 0.00155306 0)
(0 0.000603321 0)
(0 0.000543933 0)
(0 0.000475565 0)
(0 0.000333301 0)
(0 0.000445528 0)
(0 0.00070728 0)
(0 0.00117196 0)
(0 0.000659105 0)
(0 0.000438101 0)
(0 0.000473365 0)
(0 0.000335576 0)
(0 0.000810506 0)
(0 0.000558391 0)
(0 0.00128098 0)
(0 0.000460956 0)
(0 0.000490214 0)
(0 0.000412161 0)
(0 0.00147799 0)
(0 0.000277171 0)
(0 0.000644624 0)
(0 0.000318889 0)
(0 0.000416135 0)
(0 0.000398213 0)
(0 9.12021e-05 0)
(0 0.000695426 0)
(0 0.00143345 0)
(0 0.00138054 0)
(0 0.00031803 0)
(0 0.000941259 0)