/*--------------------------------*- C++ -*----------------------------------*\
| =========                 |                                                 |
| \\      /  F ield         | OpenFOAM: The Open Source CFD Toolbox           |
|  \\    /   O peration     | Version:  v2012                                 |
|   \\  /    A nd           | Website:  www.openfoam.com                      |
|    \\/     M anipulation  |                                                 |
\*---------------------------------------------------------------------------*/
FoamFile
{
    version     2.0;
    format      ascii;
    class       volVectorField;
    location    "650";
    object      ddt0(U);
}
// * * * * * * * * * * * * * * * * * * * * * * * * * * * * * * * * * * * * * //

dimensions      [0 1 -2 0 0 0 0];


internalField   nonuniform List<vector> 
10042
(
(-0.0136277 -0.0248482 3.07855e-19)
(0.00741478 0.000705172 1.32748e-17)
(0.0260951 0.00504718 2.12005e-19)
(-0.00298608 -0.000122108 -3.61311e-19)
(-0.000747463 -5.98382e-06 2.7231e-19)
(-0.0216814 -0.192291 1.87686e-18)
(0.0206461 0.0620766 8.28616e-18)
(0.00821801 0.143235 5.87718e-18)
(-0.000532662 0.000165456 1.2609e-18)
(-0.02379 -0.0318899 -2.2343e-19)
(0.0310852 0.00928728 -8.06266e-20)
(0.0156349 0.0043812 6.2143e-20)
(-0.007027 0.0176532 4.4606e-19)
(-0.000818743 0.00169857 2.30272e-19)
(-0.00217708 0.000911166 1.03235e-18)
(-0.00109306 0.00166563 -6.87334e-21)
(0.00703344 -0.231244 -2.07172e-18)
(0.034383 0.00408526 -2.40041e-19)
(-0.00167425 0.00551831 2.94215e-18)
(0.00801687 -0.00877691 -1.21719e-19)
(-0.00878706 0.0172333 -1.24193e-18)
(-0.00942869 -0.0256705 4.60949e-19)
(-0.00186668 -0.000116938 7.17868e-19)
(-0.0242532 -0.0219952 7.26923e-18)
(-0.00110066 0.000215785 1.51067e-19)
(-4.09321e-06 -1.62944e-05 -4.50509e-19)
(-0.0190964 -0.0299021 4.06729e-19)
(-0.000597251 -6.42176e-06 -9.55346e-19)
(-0.0116707 -0.215787 -3.51405e-18)
(-0.0283351 0.0461382 -5.18684e-19)
(-0.00185598 -1.21759e-05 1.33984e-19)
(0.00883194 0.0177739 3.4028e-18)
(-0.000249911 0.000108837 -9.52793e-19)
(6.19172e-06 8.70125e-05 2.89277e-18)
(0.0189223 0.128348 -2.08618e-18)
(0.0111697 0.124288 1.1338e-17)
(-0.0020832 1.05024e-05 6.66668e-19)
(-0.000830213 4.20543e-05 -3.88258e-19)
(-0.0013078 -2.10291e-05 5.96867e-19)
(-0.00307411 -0.00320842 2.03838e-19)
(-0.0337672 0.0127235 1.4651e-18)
(-0.000262835 0.000134877 -4.16516e-19)
(0.00437687 0.0646615 3.40912e-19)
(0.0563339 0.0174228 5.99341e-19)
(-0.00153444 -0.000158078 7.99382e-19)
(-0.00190357 0.000257176 -6.26128e-20)
(-0.000301937 -0.000175239 1.40642e-18)
(-0.00272942 0.000820063 9.56695e-19)
(-0.0449005 -0.00183098 -7.87852e-19)
(0.187725 0.00117357 3.23436e-18)
(0.0004586 0.0706271 -3.7931e-19)
(-0.00190353 -3.58838e-05 -5.57446e-20)
(0.00229897 -0.220934 8.03809e-19)
(-0.0021213 0.00502951 2.93326e-18)
(0.0677106 0.0233462 1.64682e-19)
(0.0145801 0.0813057 4.86877e-18)
(-0.00933432 0.0154378 2.31511e-18)
(0.0195555 0.00144408 3.44449e-19)
(-0.00241718 -0.000154365 3.57693e-19)
(0.00018804 -0.000123364 9.27523e-20)
(-0.0445967 -0.00670492 -1.14843e-18)
(0.0658205 -0.00210163 2.04855e-19)
(0.00013618 0.0595485 1.73481e-18)
(0.00278753 0.116684 -8.00033e-19)
(0.0154009 0.0188869 -8.38948e-20)
(-0.00215258 0.00158836 -6.81024e-19)
(0.00830306 -0.00660791 3.72345e-19)
(-0.0232294 -0.0132461 -4.90799e-19)
(-0.000199933 -0.00020729 -3.63704e-19)
(-0.0226738 -0.0162032 3.97217e-19)
(-0.00812488 0.0874919 2.8985e-19)
(-0.00135457 -0.00489427 2.94969e-19)
(-0.000711623 -0.000104573 1.28536e-18)
(-0.00234801 -7.57339e-05 -1.24882e-18)
(-0.00191866 0.0013119 -2.38494e-19)
(0.000287399 0.079233 -4.37444e-19)
(0.0211236 0.000578726 -1.46354e-19)
(-0.000293842 -0.000189585 -1.33941e-18)
(0.0221237 -0.00146071 5.84054e-19)
(-0.00109294 0.00567322 -1.37811e-18)
(0.0592326 0.0228117 -1.91721e-18)
(-0.0242375 -0.00789896 -2.32471e-18)
(-0.00199057 -6.78595e-06 1.30228e-19)
(-0.00250798 7.31744e-06 2.33732e-20)
(0.000102642 -0.0245961 -1.43389e-20)
(-0.0771508 -0.00940234 1.04437e-18)
(0.00788074 -0.00572711 1.31786e-20)
(0.0257801 0.00764511 1.91805e-18)
(-0.00164838 -0.00115231 1.19465e-18)
(0.0173537 0.00839647 1.71493e-19)
(-0.0044674 0.0115408 -5.70282e-18)
(-0.00190008 0.000977411 1.68229e-18)
(-0.00408648 0.0584628 -1.80244e-18)
(-0.0820385 -0.00668172 -1.05975e-18)
(0.00510169 0.0235895 2.20783e-18)
(-0.00151426 -0.000837724 2.28579e-19)
(0.134234 -0.0739397 -3.45922e-17)
(0.00754966 -0.00775002 -2.1285e-19)
(0.0414807 0.00460333 3.71073e-19)
(-0.00258112 0.000135906 2.28717e-18)
(-0.00465342 0.010655 3.06688e-18)
(-0.0292097 -0.048169 -6.30842e-19)
(4.65152e-05 -0.002305 8.8413e-19)
(0.00698745 0.0145677 4.69943e-18)
(-0.00444522 0.00635282 -4.49676e-18)
(-0.00198629 -0.00143899 6.47253e-19)
(-0.192464 0.29983 3.20966e-17)
(-0.00160105 0.00124704 1.70309e-19)
(0.00640581 0.0665525 -3.13968e-18)
(-0.00138186 -0.00152054 -2.00625e-18)
(-0.00275044 -0.000352395 -2.17371e-18)
(-0.014206 0.0457521 4.35068e-18)
(-0.0232087 -0.046325 9.26578e-20)
(0.0126558 0.105944 2.24295e-19)
(0.0123327 0.0171024 8.12057e-19)
(-0.000194862 -0.000230222 1.1664e-19)
(-0.028512 0.000856409 1.18567e-19)
(-0.00135959 -1.23217e-05 3.1563e-19)
(0.0170438 0.00190032 7.97997e-19)
(-0.00010027 -0.000161215 -5.95101e-19)
(0.00016664 -0.000138717 -1.37566e-19)
(0.0353694 -0.00923333 2.0072e-19)
(0.0417819 -0.00728478 1.60709e-18)
(-0.00209546 -0.000178566 -6.74735e-19)
(0.0191903 0.00665184 -4.4118e-20)
(-0.000911693 -0.00151098 -6.50685e-20)
(0.000139014 -0.00167966 6.3473e-19)
(0.0430525 -0.00575288 9.76915e-19)
(0.025309 0.0486953 -1.20789e-17)
(-0.0289793 -0.0027323 3.05783e-19)
(-0.000580077 6.99806e-05 5.06677e-20)
(-0.00257062 0.000485117 3.62699e-19)
(-1.16082e-05 -0.00250712 1.02543e-18)
(-0.00162232 0.0010193 5.95687e-20)
(-0.0258511 0.044141 4.41188e-18)
(0.0627722 0.0382045 5.98882e-18)
(0.00970902 -0.00289276 -2.45756e-19)
(-0.247494 0.337162 1.8373e-17)
(-0.00324831 0.00226686 1.06058e-18)
(0.0426624 0.0168637 -1.18888e-19)
(-0.00792464 0.042347 6.77493e-19)
(-0.000535727 8.875e-06 -6.23242e-20)
(-0.199447 0.321865 -3.93026e-17)
(-0.00062494 -2.36753e-06 1.25377e-18)
(-0.0115522 -0.00140736 3.58026e-19)
(-0.000925714 3.62476e-05 1.01511e-18)
(-0.000289711 -0.0228274 6.93263e-20)
(-0.000189677 -0.000188629 -2.45192e-19)
(0.00252646 -0.00376858 -1.14207e-19)
(-0.0123427 0.0159153 1.61983e-17)
(-0.00225648 0.00103733 -2.97772e-19)
(-0.000889758 8.47812e-06 1.89658e-19)
(-0.00504329 0.00278586 -4.09767e-18)
(-0.00611193 0.0223373 -8.62711e-19)
(0.00299592 0.0209661 -2.90096e-18)
(-0.0120787 -0.00231756 -3.84347e-19)
(0.0216403 0.0479599 2.12887e-17)
(-0.040697 0.0898296 -3.36777e-18)
(-0.000294015 -0.00266704 -1.26301e-19)
(-2.67617e-05 -1.02049e-05 3.31161e-19)
(-0.00202604 -6.08148e-06 -3.13937e-19)
(-0.00305349 -0.00409489 -2.59533e-19)
(0.0916379 0.0258937 -7.36819e-19)
(-0.000673464 -0.00129642 -5.34956e-19)
(-0.00261771 0.00163049 3.68549e-19)
(-0.0137644 -0.00976222 -3.40961e-18)
(-0.000632544 -0.000134885 -1.36836e-18)
(0.00704942 0.0159855 -5.19901e-18)
(0.0152674 0.130266 -1.08626e-17)
(3.26708e-05 4.44268e-05 -3.19744e-19)
(-0.00435768 0.0238771 -1.57436e-19)
(-0.0299883 0.0717789 -5.75157e-18)
(0.0608927 -0.0177138 -1.7915e-18)
(5.29623e-05 6.08558e-05 -6.33252e-19)
(-0.00266171 0.00486933 -2.11719e-18)
(0.0557344 -0.0160559 1.14805e-18)
(-0.00100757 0.000107124 1.98577e-20)
(-0.000955453 3.82086e-05 -2.12804e-19)
(-0.00212432 0.00038384 -1.85452e-19)
(-0.000138925 -0.000203338 1.42909e-18)
(-0.00294321 0.00195531 1.05288e-18)
(-0.00655746 0.00517089 2.27387e-18)
(-0.00246065 8.44737e-05 -8.44013e-19)
(-0.000381647 -0.000138038 -3.80715e-19)
(-0.0356355 -0.032429 -9.45544e-20)
(-0.000406125 0.0117046 -2.34339e-18)
(-0.00194228 -0.00491825 -5.5178e-19)
(0.000176555 -9.2969e-05 1.01998e-20)
(0.204725 -0.025806 -3.67207e-20)
(-0.00122124 1.101e-05 -7.61459e-19)
(0.000599293 0.0122519 -1.22562e-17)
(-0.010967 0.0148904 2.37554e-18)
(-0.000252876 6.19382e-05 1.33292e-20)
(-0.00639009 0.00488069 -3.41494e-18)
(0.0266912 -0.0296026 -4.75765e-19)
(-0.00180505 0.000957099 -3.05768e-19)
(0.0576525 0.0471036 5.45332e-18)
(-0.0129665 0.0178083 8.71558e-19)
(0.220851 -0.0134583 1.24201e-17)
(-0.00238572 3.80219e-06 -1.24626e-19)
(0.0314792 0.0537627 8.40838e-18)
(-0.00671617 0.0501034 1.19527e-18)
(-0.0316732 0.0405739 4.04434e-19)
(-0.00105487 -4.49298e-05 -5.21375e-19)
(0.0339544 0.00484035 2.29977e-18)
(-0.000361597 -0.0021258 3.97662e-19)
(-0.0367249 0.00188 1.05041e-18)
(-0.00735717 0.021119 -4.1594e-19)
(-0.00333601 -0.000405714 2.29865e-18)
(-0.00136436 0.00110827 3.84648e-19)
(0.00862942 0.0164252 -7.411e-18)
(-0.000898418 -5.534e-05 1.0222e-18)
(-0.040528 0.0403508 -5.04411e-19)
(-0.018009 0.0440174 1.05079e-18)
(-0.00144535 -4.62465e-06 -3.81492e-19)
(-0.0195577 -0.0129232 1.48082e-19)
(-0.000573624 -6.24849e-05 2.50126e-19)
(0.0824733 0.0187552 5.7331e-19)
(-0.00311327 -5.03455e-05 -5.59291e-19)
(0.0274138 0.0536342 -7.69862e-18)
(0.0602503 0.0594869 1.15975e-17)
(-0.00608373 0.0207334 5.606e-20)
(0.0655738 0.0685639 -8.10296e-18)
(-0.0205389 -0.0155616 3.9487e-20)
(-0.00273963 -0.000132644 5.53006e-19)
(-0.00351203 0.0523813 -8.97501e-19)
(0.00139878 -0.00243373 2.72879e-19)
(0.00926542 -0.00231706 3.15579e-19)
(-0.0146982 -0.023598 4.47739e-19)
(-0.000330961 -0.00230588 3.92851e-19)
(-0.000830494 3.51192e-05 -8.64482e-20)
(-0.00014752 -0.00195846 -9.16178e-22)
(-0.0010511 0.0115488 2.52737e-18)
(-0.00182248 -7.07971e-06 2.36134e-19)
(-0.00083925 0.00015311 -4.17247e-21)
(0.00707199 0.146898 -4.42374e-18)
(0.0084395 0.000566942 3.94047e-19)
(0.171471 -0.0519644 2.57446e-17)
(-0.0104318 -0.00139768 -1.93304e-18)
(-0.0330358 -0.0224787 -2.68553e-18)
(0.0692642 0.0728903 8.07084e-19)
(-0.0194978 0.127618 -2.40709e-18)
(0.000180327 -0.000164295 -1.21877e-20)
(-0.00413794 -0.00438378 -3.18169e-20)
(0.0597619 0.0332153 -7.9339e-19)
(-0.000754559 -2.44045e-06 -8.5796e-20)
(-0.0243924 0.108185 3.85415e-19)
(-0.00984524 -0.00194319 1.76401e-18)
(-0.00549965 0.00294347 -2.94903e-18)
(-0.000922524 -8.63319e-06 -2.94464e-19)
(-0.00383022 0.00594275 4.45462e-18)
(-0.000220463 7.98207e-05 1.28276e-18)
(-0.0630018 -0.0563202 7.29855e-19)
(0.0238243 0.00999452 1.61699e-18)
(0.00285889 -0.00331984 5.17219e-20)
(0.00728268 0.00075598 -1.99975e-20)
(-0.0015607 6.31857e-06 6.47029e-19)
(0.003751 -0.00255905 1.72796e-20)
(0.100774 -0.0774901 3.68226e-17)
(-0.00296006 -6.33501e-05 1.94578e-19)
(0.0189388 0.0113603 -9.32357e-19)
(-0.000513635 4.96469e-05 1.72793e-19)
(-0.00193379 -2.86433e-05 5.09485e-20)
(-0.0003197 -0.000189055 2.11647e-18)
(-0.00597432 0.019103 -1.66147e-18)
(-0.00684486 -0.0122496 -2.15384e-18)
(0.0171105 0.013093 -1.18224e-18)
(-0.0621115 -0.0561475 9.92429e-19)
(-0.00313932 -3.80069e-06 1.94091e-19)
(-0.000509809 -0.0020537 -2.92576e-19)
(-0.00343711 0.000192415 4.09473e-19)
(0.163391 0.00643594 -5.16681e-18)
(0.000294876 0.00100584 1.71514e-19)
(3.8795e-05 0.0900783 1.70808e-18)
(0.00303302 -0.0021804 6.23752e-21)
(0.012563 0.00682789 2.47176e-19)
(-0.00224635 0.00272807 -2.70137e-18)
(-0.00083333 -4.66769e-05 -4.92579e-20)
(-0.00312044 -4.50827e-06 1.94397e-19)
(0.0319664 -0.0293665 1.02584e-18)
(-0.000440084 2.59071e-06 -8.07413e-19)
(0.0245395 0.11164 5.32481e-19)
(0.057871 0.0416011 -1.89076e-18)
(-0.00139247 0.00250007 1.60809e-18)
(0.00119439 1.21244e-05 -1.44466e-18)
(0.271512 0.0643503 -1.38759e-19)
(-0.0222603 -0.0158589 5.71739e-19)
(-0.000278673 -0.000345075 -1.13388e-19)
(0.00170106 -0.0240522 1.20887e-19)
(-0.00103687 7.13974e-06 -1.87671e-19)
(-0.0124644 0.0122867 -5.77134e-20)
(-0.012414 -0.0114896 5.24251e-19)
(-0.00156458 -1.54529e-06 -4.56338e-19)
(0.0166386 0.152807 4.99573e-18)
(0.0181567 0.0165219 1.11829e-18)
(-0.00223856 0.0010534 1.31233e-18)
(0.0537678 -0.0262068 -2.42716e-19)
(0.00930737 -0.00098074 -4.78132e-19)
(-0.00332325 0.000215901 5.9698e-19)
(-0.000589108 -6.02009e-05 4.45359e-19)
(-0.00439518 0.0023898 5.83323e-18)
(-0.0253606 0.0484088 -1.39956e-18)
(0.000182862 -8.8667e-05 -1.94191e-20)
(0.076193 0.0480485 3.02325e-19)
(-0.0241885 -0.0120326 -3.83244e-19)
(0.0697441 0.00903978 3.71389e-19)
(0.000333146 0.00137953 -2.70046e-19)
(-0.00407772 -0.00564695 1.5348e-19)
(0.0598654 -0.02214 7.23837e-20)
(0.0306497 0.131301 -5.9952e-18)
(-0.00326602 5.76584e-06 -2.47386e-19)
(-0.00211864 0.000767403 1.86054e-19)
(-0.00105279 -0.000786924 -1.02e-19)
(-0.00202479 0.00115762 4.3247e-19)
(-0.0108089 -0.013178 -2.03693e-19)
(0.00713333 -0.0209513 -5.105e-19)
(-0.000326683 -0.000171118 -3.45116e-18)
(-0.0316449 -0.0317197 -4.05907e-19)
(-0.0480219 -0.0151051 1.19805e-18)
(-0.000193671 -0.000201684 5.28667e-19)
(-0.000817009 -6.14353e-06 -8.38762e-20)
(0.0626563 0.0561017 -1.79127e-18)
(0.0107866 0.00666677 -4.43e-20)
(-0.0314257 0.012299 -7.28203e-20)
(-0.0439195 -0.0196806 5.76618e-19)
(-0.00148186 -1.35053e-06 -7.20185e-20)
(-0.0106972 0.00376625 -8.75521e-19)
(-0.0023051 0.000204797 -7.9108e-19)
(0.00858413 -0.000605911 -4.55693e-19)
(-0.0121269 0.0108255 -1.56126e-18)
(-0.000100182 -0.00195723 3.11888e-19)
(-0.00304816 -0.000593352 3.83784e-19)
(-0.012756 -0.0203645 -7.99712e-19)
(-0.000560878 1.90346e-05 -4.16328e-19)
(-0.037022 -0.0083391 -1.74913e-18)
(-0.00400703 -0.0301607 1.7214e-19)
(-0.076321 0.24111 -9.04293e-18)
(-0.0289274 0.00931374 1.45711e-18)
(0.00019285 6.63916e-05 -8.31165e-19)
(-0.0287489 -0.0364579 7.86288e-18)
(-0.0119166 0.0427741 -3.58806e-19)
(-0.0145101 0.0152726 2.73736e-19)
(0.000124109 -0.000180507 3.94918e-20)
(-0.00849444 0.00891029 -5.06571e-19)
(-0.00275146 -9.4076e-06 6.85783e-20)
(-0.000852239 4.30996e-05 -2.12242e-19)
(-0.000310173 0.000508608 -8.3027e-20)
(-0.00203626 -4.43748e-06 -1.41758e-19)
(-0.00339559 -0.00928994 2.77833e-19)
(0.194587 -0.0461114 -2.22796e-17)
(-0.00273164 0.00158285 -1.37366e-18)
(0.00849123 0.0227659 1.6462e-19)
(-0.00180852 -0.0096106 2.33062e-19)
(-0.0021787 -0.000825928 -2.98154e-19)
(0.057591 -0.000714367 -5.03683e-19)
(-0.012605 0.00505879 -3.87574e-19)
(0.00120235 -0.0026694 2.7128e-19)
(-0.00209856 -5.16718e-06 -4.14091e-19)
(0.0421809 0.0632732 -4.27308e-18)
(-0.000748561 -4.82376e-06 1.38533e-19)
(-0.0024111 -0.00124356 5.12022e-19)
(-0.00201655 1.53325e-05 -2.56124e-19)
(-0.0028548 0.00134752 2.55238e-18)
(-0.0576778 0.0192625 -3.61493e-18)
(-0.0300591 -0.0824198 5.7964e-19)
(-0.00293972 0.00190574 -1.78955e-18)
(-0.00260848 -6.92162e-06 -1.03878e-20)
(-0.000237237 -0.00845427 2.18396e-19)
(-0.00157573 -0.00848365 -3.7797e-19)
(0.0169725 -0.0431378 4.92556e-19)
(0.000164046 -0.000105597 -1.4277e-20)
(-0.00327493 -6.29421e-06 -7.11395e-20)
(0.000444184 0.00110148 -5.28126e-19)
(0.000257294 -2.76668e-05 5.64059e-22)
(-0.0728523 -0.0152984 -4.99338e-18)
(0.000637957 0.00140956 -4.03746e-19)
(0.01384 0.00458301 1.74457e-19)
(0.00994877 0.141981 2.36332e-19)
(-0.0373579 -0.0756301 2.25961e-19)
(-0.0692444 -0.00982599 4.88261e-18)
(-0.00232814 -0.000926167 6.2749e-19)
(0.0348991 0.127134 -2.38205e-19)
(-0.0114361 -0.0250758 -2.51441e-19)
(-0.00190129 0.00012469 3.46861e-19)
(0.000557568 0.0277561 -1.57962e-18)
(-7.68516e-05 -0.000194957 -8.36266e-19)
(-0.00192978 -4.95164e-06 3.69521e-21)
(-0.000333241 -0.000143877 9.14908e-20)
(-0.00272929 -0.00180454 -3.84397e-19)
(-0.000401703 -0.000301194 -4.80363e-19)
(0.00328536 -0.00171218 2.47287e-20)
(0.21316 0.0220173 1.92014e-17)
(-0.00285445 0.00150591 1.15225e-18)
(-0.0125079 -0.00122621 1.36386e-18)
(-0.0407192 -0.10991 -7.54441e-20)
(0.021128 0.00560883 -7.68079e-20)
(-0.00208042 -0.000114057 -1.3344e-18)
(0.0181096 0.123202 -7.56591e-19)
(0.00187632 2.20998e-05 3.36242e-18)
(0.00799954 0.0188561 6.86086e-18)
(-0.00226227 -3.79929e-05 5.39785e-20)
(0.115059 0.0836379 -3.34147e-18)
(0.00270339 0.00348203 -8.94882e-19)
(0.0742913 0.0219558 4.0267e-19)
(0.0805644 -0.0414979 -1.67155e-18)
(-0.00234036 -0.000678143 4.08466e-19)
(-0.0134488 0.039102 2.22274e-19)
(-0.00420206 -0.000566071 -3.78474e-20)
(0.0587193 0.0732022 -4.78364e-19)
(0.00243248 -0.00141643 2.5432e-20)
(0.0352315 -0.122068 1.10118e-17)
(-0.0126457 0.00238914 7.03681e-19)
(-0.00272938 0.138849 7.29712e-19)
(-0.0033297 0.00134373 -5.41831e-19)
(-0.0199 0.0707992 8.5033e-20)
(-0.0053883 0.00149376 4.00952e-19)
(-0.0142594 -0.00307075 1.00407e-18)
(0.0235985 -0.0338299 -5.49945e-19)
(-0.000469437 -0.000171433 6.8645e-19)
(-0.00498058 0.00148162 -1.56296e-18)
(-0.00049846 1.35654e-05 -1.32954e-18)
(-0.0352821 -0.149253 1.17065e-17)
(-0.000597938 4.52176e-05 6.55167e-19)
(-0.00037739 -0.000121164 8.98465e-19)
(-0.00525821 0.0449552 1.55187e-19)
(-0.00382337 0.00635056 -5.20077e-19)
(-0.00506889 -0.0269243 9.64314e-20)
(0.0356003 -0.116333 -4.74225e-18)
(-0.00298007 -6.0422e-05 -4.0421e-19)
(-0.0125751 0.0161015 -2.29751e-18)
(-0.00450336 0.00567035 7.94471e-19)
(-0.000247548 -0.000227277 -1.07802e-20)
(-0.0132465 0.00152917 -4.01342e-19)
(0.0023607 0.138396 6.03905e-18)
(-0.00376043 -0.000218789 -7.23676e-19)
(-0.00320456 0.00108942 9.96138e-19)
(-0.124005 0.226111 -2.25598e-18)
(0.0161561 0.00426994 8.85209e-19)
(-0.000464094 -1.06693e-05 5.15874e-19)
(0.0835728 0.0557878 -1.57169e-17)
(-0.000670752 9.47626e-06 -4.06758e-19)
(-0.00802365 -0.0124503 2.83067e-19)
(0.0173582 0.00311687 -1.53321e-19)
(0.138386 0.00985993 2.46689e-19)
(0.108396 0.0173525 -2.52923e-18)
(-0.0380706 -0.0506444 -5.74842e-20)
(-0.0215369 0.0595246 3.41177e-20)
(0.0393842 0.0439149 -7.22582e-19)
(0.00596925 0.127176 -5.28294e-18)
(-0.00026995 -8.91396e-05 -2.67376e-19)
(0.00911843 0.00839667 -1.12119e-18)
(0.0528813 -0.00888897 -9.3228e-19)
(0.050664 -0.00642424 7.2677e-19)
(-0.000436405 0.0264577 -5.63895e-18)
(-0.00128745 -9.98333e-05 -9.71049e-21)
(-0.000348644 0.0005386 -5.39886e-19)
(0.00942332 0.018872 -1.84081e-18)
(0.169418 0.0312222 -1.94554e-17)
(-0.000461028 -0.000154944 2.84289e-19)
(-0.00124404 -0.00157314 1.3277e-19)
(-0.000918345 -7.56781e-06 2.16315e-19)
(-0.00173733 -0.00013927 -1.6118e-18)
(0.00166142 0.000883176 -1.83746e-18)
(0.00219892 0.000727319 5.00408e-19)
(-0.00227711 -0.00171202 7.30414e-20)
(-0.00260589 -1.78856e-06 4.39566e-19)
(-0.00954932 -0.031232 4.38057e-19)
(-0.000911948 0.00250846 -4.78661e-19)
(-0.00655553 -0.0139668 -2.64904e-19)
(-0.000903488 0.0244233 -1.92014e-18)
(0.0601699 0.032998 2.49209e-18)
(-0.00103882 -0.000133399 3.1985e-19)
(0.243013 0.029022 6.71116e-18)
(-0.0527115 0.201984 -7.17571e-19)
(0.056742 0.016854 3.85854e-18)
(-0.000606048 2.26899e-05 1.55205e-19)
(0.00219918 0.00802363 2.52961e-18)
(-0.000824132 -8.22344e-06 2.32038e-19)
(-0.00577695 -0.00457827 1.10252e-18)
(-0.00309566 0.000169111 -1.34882e-19)
(-0.0135263 0.0144459 1.03563e-18)
(-0.00342614 0.00125731 -2.25832e-18)
(0.0473684 0.014599 -1.09799e-18)
(-0.000623038 7.72879e-06 1.03024e-19)
(-0.00315456 0.00629627 -2.64482e-18)
(-0.00101298 -0.00179901 -5.28382e-20)
(0.00760913 0.00781706 9.37866e-20)
(0.0419199 0.0520955 -2.55544e-18)
(-0.000396971 -1.66974e-05 3.39826e-19)
(-0.00210296 -5.09258e-05 1.05515e-18)
(-0.00161098 0.00087249 3.30832e-19)
(0.0475896 0.020927 -2.44694e-18)
(-0.000497903 4.20542e-05 1.40212e-18)
(-0.0117666 0.0114742 7.62424e-19)
(0.0229796 0.0153756 2.25226e-19)
(-0.0175671 0.0386457 3.00129e-19)
(-0.00172428 -0.000681177 -1.75436e-19)
(-0.0118977 0.0140051 -7.34073e-19)
(0.0101317 0.169599 -1.01174e-18)
(0.018757 0.116092 -4.66487e-19)
(-0.00283568 -0.000310757 4.91561e-19)
(-0.00271574 -7.70841e-06 1.04695e-19)
(0.00960878 0.121512 2.21955e-18)
(0.0460393 0.0187572 1.27479e-18)
(-0.0280874 0.00498591 -4.71556e-19)
(-0.0606513 -0.0346125 -1.2464e-19)
(-0.00159008 -7.60122e-06 1.51445e-19)
(-0.0216521 -0.0265479 6.27296e-20)
(-0.00796402 -0.0183821 1.32041e-19)
(-0.0121094 -0.0111459 9.58922e-20)
(-0.00792102 -0.00169604 -7.80985e-19)
(-0.0291189 0.00843659 -1.55773e-18)
(-0.00168672 -0.000484346 8.65752e-20)
(-0.00158034 -9.74757e-05 9.57355e-20)
(-0.00182302 -0.00146004 -2.48044e-19)
(0.0146702 0.168099 -2.63073e-18)
(-0.00333347 -0.000203479 6.11195e-19)
(0.0452219 0.0932156 -1.48214e-19)
(-0.00374537 -0.000135623 6.29316e-19)
(-0.00274306 -3.99268e-05 9.08251e-21)
(-0.00108707 0.000135714 -4.11042e-19)
(-0.0136008 -0.00454364 -1.15543e-18)
(-0.0591204 -0.0134354 4.67914e-19)
(-0.00046198 -0.00206505 -5.85928e-20)
(-0.00331218 0.000806236 6.05703e-19)
(-0.0464836 0.0257431 -3.23502e-19)
(-0.0101919 0.0206764 -1.0826e-19)
(0.0112562 -0.0221112 -7.90205e-21)
(-0.00100199 -0.00186929 -5.00862e-20)
(-0.00187354 0.000829806 1.63992e-19)
(-0.0257835 -0.0277094 -1.1338e-19)
(0.0405798 0.0968287 2.89876e-18)
(-0.00264394 -0.000991042 -1.11386e-18)
(-0.000214025 -0.000409842 5.73278e-19)
(0.0192852 0.0151553 1.49412e-19)
(-0.00166564 -0.000930886 3.16578e-19)
(-0.00114032 -0.000569833 -6.62395e-19)
(0.0330397 -0.0360181 7.9219e-19)
(-0.000602323 5.862e-05 -1.62207e-18)
(0.0504108 0.0259048 7.13013e-19)
(-0.00256268 -6.80929e-06 -5.22876e-20)
(-0.0181485 -0.0252995 -7.53586e-19)
(-0.00131336 0.0069247 8.34305e-19)
(0.0872196 0.0727094 3.28498e-18)
(-0.0034923 -0.000218003 -3.37815e-19)
(0.00136541 0.00910539 7.12191e-18)
(-0.00378064 -4.19058e-05 -3.03274e-20)
(-0.000729352 -4.21164e-05 -1.02351e-18)
(-0.0482168 0.0248328 1.22615e-18)
(0.000138028 -0.000219322 9.95591e-20)
(-0.039102 0.227659 4.0747e-18)
(-0.0275805 0.00733539 3.50991e-19)
(-0.000426171 0.000143607 -1.81222e-19)
(-0.00782561 -0.000862066 -8.94405e-19)
(-0.03035 0.223211 1.02367e-17)
(0.0663589 0.0266624 8.98014e-20)
(-0.000265952 0.0212651 2.24243e-18)
(-0.000396147 1.54492e-05 7.63655e-19)
(-0.000197977 -0.000452111 -1.72642e-18)
(-0.000265576 -0.000150977 -6.65065e-19)
(0.00265491 -4.58937e-05 -3.34147e-19)
(0.00483053 0.00812261 2.60474e-19)
(-0.00158215 -0.00140326 -7.93271e-19)
(0.0529436 0.00801735 1.45276e-18)
(-0.000666281 -0.000747424 -2.69911e-19)
(0.000229371 -5.78359e-05 7.98757e-20)
(0.036718 -0.0751803 -8.21266e-19)
(-0.00507794 0.00597816 2.7224e-18)
(0.00589518 0.00893482 -2.63231e-19)
(-0.000656319 -6.62495e-06 4.85314e-19)
(-0.00127178 -3.25666e-05 -1.53574e-19)
(0.0269226 -0.0739506 3.65708e-19)
(-0.0564677 0.00971473 8.12808e-19)
(-0.00197251 0.00595478 -5.8386e-19)
(-0.0306175 0.00993213 -5.88633e-18)
(-0.00334218 0.000200078 -3.47181e-18)
(0.000235498 0.0102197 2.06786e-18)
(-0.00065278 -0.000519922 2.58455e-19)
(-0.000524806 0.000165203 -7.44571e-19)
(-0.00164309 0.00109532 -7.82236e-19)
(-0.00220589 0.000782592 8.93234e-20)
(-0.00278989 -0.000947492 2.02235e-19)
(-0.00101816 1.66627e-05 1.75263e-20)
(0.193526 0.0827532 8.56664e-18)
(-0.0036621 0.00100036 -7.56165e-19)
(0.0118309 -0.054883 -1.05206e-20)
(-0.00194721 -1.69449e-05 -2.06992e-20)
(-0.00393995 0.00419234 1.00143e-19)
(-0.000336537 -0.000181264 1.34193e-18)
(0.0113192 -0.0250286 -1.46258e-20)
(0.084002 0.0380749 -2.77899e-19)
(-0.000543907 0.000125913 1.79256e-19)
(-0.00115991 -4.15938e-05 1.01075e-19)
(-0.0404049 -0.0227066 1.53742e-19)
(-0.00909578 0.0191542 7.93349e-20)
(-0.000443694 -0.000175215 -1.87359e-19)
(-0.00526884 -0.0302702 4.23145e-18)
(-0.00285805 -1.95897e-06 9.09134e-20)
(-0.00369623 -0.0215509 -4.60196e-19)
(-0.000837425 4.4347e-05 -1.01674e-19)
(-0.00184176 -2.0468e-05 2.44218e-19)
(-0.000254785 -2.51575e-05 9.17732e-19)
(0.0456364 0.0602437 1.18801e-17)
(-0.000379191 -0.000160006 -9.69906e-19)
(0.000502152 -0.000601847 -1.09575e-18)
(0.000505164 0.00172625 5.27408e-19)
(0.038195 0.00910632 7.27167e-20)
(0.000210871 -1.86155e-05 -9.14467e-21)
(-0.0021357 0.000967618 1.62431e-19)
(-0.00109841 2.28587e-05 4.04051e-19)
(0.0340168 0.00537972 5.01856e-19)
(-0.00169849 -0.000132749 -7.34239e-19)
(-0.000771932 -0.00010014 2.61174e-19)
(-0.000570473 7.2921e-06 9.80335e-19)
(-0.000874427 -0.000129514 -1.4832e-19)
(-0.00861192 -0.00130492 1.06718e-18)
(-0.000832303 0.000100524 -1.82432e-20)
(-0.00375217 0.00345675 -4.63913e-19)
(-0.000959735 -0.000547068 -1.14432e-19)
(0.0718033 -0.0619266 -2.39245e-17)
(0.0597852 0.0135761 7.07407e-19)
(0.0312095 0.0504421 -2.18727e-18)
(0.00251024 -0.000971898 4.80877e-20)
(0.000728459 0.00590781 -9.44336e-18)
(-0.00312123 -5.10762e-05 -9.96983e-20)
(0.0356836 -0.0225361 -1.13426e-19)
(0.000320392 2.87609e-05 -8.27886e-19)
(-0.0437628 -0.0147023 -4.76363e-18)
(-0.0396092 0.015608 2.38922e-19)
(0.0334797 0.0345822 -1.19509e-18)
(0.00116232 -0.0201052 2.80064e-19)
(-0.0363442 0.0880789 1.29893e-19)
(-0.0038125 0.000182359 2.93443e-19)
(-0.00262325 -0.000711412 9.15393e-19)
(-0.00564764 0.193683 -8.37078e-18)
(0.0313741 0.00625016 -5.15286e-19)
(-0.0107816 0.00198189 -9.23612e-19)
(0.0148814 0.0338757 -1.42336e-18)
(-0.00322139 0.000534404 -1.47453e-18)
(-0.0492935 0.012511 1.03004e-19)
(-0.00182001 -0.000353328 -6.64893e-19)
(-0.00312481 -0.000560217 -1.66451e-18)
(-0.0011055 -0.000186304 -4.77904e-19)
(-0.000654671 4.60038e-05 -1.93406e-18)
(-0.00267005 -8.47373e-06 -2.39089e-20)
(-0.00460716 0.196772 1.21046e-17)
(-0.00172389 0.00242554 -1.23189e-18)
(-1.71991e-05 -1.77993e-05 3.91105e-19)
(0.270906 0.00630709 -2.38606e-18)
(0.000360683 -0.000563983 -3.91267e-20)
(0.0337068 -0.0268101 3.16258e-19)
(-0.00228337 -0.00302762 3.55086e-20)
(-0.000528594 0.00233839 -3.03876e-18)
(-0.00923133 0.0108466 5.28167e-19)
(-0.00165008 -5.999e-06 -5.49661e-19)
(-0.0452603 -0.0114269 1.14168e-18)
(-0.00241883 -0.000847226 2.07539e-20)
(-0.00126823 0.000681127 5.39868e-19)
(0.00295268 -0.0506059 9.94161e-20)
(-0.0029004 -0.000110638 -7.79501e-19)
(0.000203054 -6.68648e-05 -2.12657e-20)
(-0.00175478 -9.35088e-06 -3.80939e-19)
(-0.0019825 -0.000500375 -1.35221e-19)
(-0.00211347 -9.40485e-05 2.2256e-19)
(0.0600263 -0.0142629 5.37064e-20)
(0.03645 -0.0409261 -2.04912e-19)
(0.0566095 0.0123145 3.35473e-19)
(-0.00247647 0.000773545 -1.137e-18)
(-0.00100035 -0.00100906 -2.01868e-18)
(-0.00218665 -0.000334927 1.18842e-18)
(-0.0534617 0.0205039 2.48345e-19)
(-0.00118393 -0.0054343 9.25951e-20)
(-0.0020407 0.00106652 8.22011e-20)
(-0.000509915 -5.20149e-05 -1.18203e-19)
(-0.00104757 0.000198102 1.03319e-18)
(-0.0438184 0.0828524 -1.36623e-18)
(0.194699 0.0170078 1.25661e-18)
(-0.0125916 -0.00929567 -3.46164e-19)
(0.0024132 -0.00253505 -1.57313e-19)
(-0.00448535 1.623e-05 4.84239e-19)
(0.013115 -0.0775882 5.24529e-17)
(0.00112533 0.00978935 3.74591e-18)
(-0.00396181 -0.0104158 -1.18124e-18)
(0.00287914 -0.0259095 7.29615e-20)
(-0.0123666 -0.0656063 2.64552e-19)
(0.0603194 0.0161478 3.31493e-19)
(-0.0511021 0.0564526 2.29232e-19)
(-0.00177343 -0.000393083 -2.27196e-19)
(-0.000564144 2.24173e-05 -1.56627e-19)
(-0.00273414 -0.000865967 5.58605e-19)
(-0.00415581 0.0924929 9.04346e-19)
(-0.000776074 -0.000358517 6.6462e-19)
(0.000953101 0.00677228 2.03635e-18)
(-0.00163418 -0.00242935 9.54899e-19)
(5.82077e-05 -0.000239445 3.69505e-20)
(-0.00966782 0.00731804 -5.04187e-19)
(-0.000534218 -0.00428095 9.3364e-19)
(0.0385566 0.0714328 -7.9761e-19)
(0.0600869 0.0493388 -7.09475e-18)
(-0.000146501 -0.00037252 7.2318e-19)
(-0.00142067 -0.000135416 -3.59796e-19)
(-0.000246337 -9.77186e-05 5.98997e-20)
(-0.0395075 -0.0412559 2.10698e-19)
(-0.000644772 4.19141e-05 -1.27405e-18)
(0.0261717 -0.168925 -6.28891e-18)
(0.000272808 -0.00738941 -1.79829e-19)
(0.210552 -0.0202323 5.89487e-18)
(-0.000817664 -0.000854469 -6.68803e-19)
(-0.00230539 6.59683e-05 -3.03455e-19)
(-0.000565481 0.000134038 -6.72871e-19)
(-0.00194606 -0.000107961 4.25768e-20)
(-0.00223853 -0.000557378 -5.10009e-19)
(-0.000270006 -0.000911531 -3.11466e-20)
(-0.00314125 0.000206049 -1.05322e-18)
(-0.00334088 0.00120168 2.92038e-18)
(-0.0129314 0.000809986 3.22356e-19)
(-0.00251066 0.00585179 2.70306e-18)
(0.0543198 0.0480243 5.36194e-19)
(-0.00350732 0.000164963 4.77914e-19)
(0.0285447 0.00416822 -3.38175e-20)
(0.0134923 -0.0323798 2.2956e-19)
(0.000991248 1.87168e-05 -8.19229e-19)
(-0.110588 0.120498 1.27773e-17)
(-0.00163113 3.95787e-05 -6.0668e-20)
(0.00139274 0.00065098 -2.78933e-19)
(0.00348437 0.00374928 -1.05586e-20)
(-0.000694364 1.15542e-05 5.1408e-19)
(-0.0217488 0.0100589 3.06726e-18)
(-0.00172586 -0.00223376 -3.25727e-20)
(0.00187395 -0.000755351 -1.49547e-20)
(-0.00120441 0.000125265 8.3169e-19)
(0.0460464 -0.00775465 -1.94002e-18)
(-0.00179256 4.77321e-05 -1.33642e-19)
(-0.0080912 0.0804968 2.65112e-20)
(-0.0225995 0.00913685 9.75621e-20)
(-0.00119779 -0.000991389 9.38063e-19)
(-0.0347536 -0.0549604 4.90385e-19)
(0.00874838 0.0959116 -5.75849e-20)
(-0.00160393 -0.00333629 -6.14865e-20)
(-0.000995938 -0.000126464 -1.13103e-18)
(0.0124868 0.0353307 4.30485e-18)
(-0.00324462 -3.86247e-06 4.36585e-21)
(-0.0201469 0.225949 -1.13811e-18)
(-0.0104837 -0.00168479 -1.64407e-18)
(0.021241 -0.00394862 -4.45085e-19)
(-0.0119894 0.00718916 6.6398e-19)
(-0.00266626 0.000691915 2.317e-18)
(-0.00300804 -0.000281195 -1.3572e-18)
(-0.00146395 0.00167567 8.12819e-20)
(0.00136874 -0.0161704 -5.27143e-20)
(0.00271221 0.00517173 1.38208e-18)
(-0.0343543 -0.000601718 -1.39883e-19)
(-0.0113367 0.0319811 -2.65739e-18)
(7.39225e-05 -0.000290344 -1.59594e-19)
(0.00284251 0.000731845 7.98744e-19)
(0.00232427 2.65756e-05 9.80603e-19)
(0.0169932 0.00498052 -1.13723e-18)
(-0.00336027 -4.36306e-06 2.61446e-20)
(0.0202709 -0.198021 1.22441e-17)
(-0.00221782 0.0011319 2.50402e-19)
(-0.00287795 -0.00116686 -1.06429e-19)
(-0.0392108 0.0188391 -1.28601e-20)
(-0.00137454 -0.000680543 -3.83724e-19)
(0.00981039 0.033872 -3.53291e-19)
(-0.0137298 -0.0114961 2.98003e-20)
(-0.00442435 4.80773e-06 1.2584e-18)
(-0.0294435 0.0491001 4.22884e-20)
(0.00296227 -0.0050869 4.17694e-19)
(-0.00045702 -0.000954188 3.60701e-19)
(0.00163753 -0.00435255 -1.14167e-19)
(-0.00923891 -0.0230882 1.51352e-19)
(0.00017246 0.00150254 5.48936e-19)
(0.0605321 0.0220085 -3.97334e-19)
(-0.00323546 0.00103849 -1.77796e-18)
(-0.00598036 -0.0236118 3.22781e-20)
(0.00131015 0.0070609 1.00163e-18)
(0.0521325 0.0176209 -1.17356e-18)
(0.00157561 -0.00368192 -4.11247e-19)
(-0.0117579 -0.00923896 -5.11667e-19)
(-0.00578662 0.00401236 7.64149e-19)
(-0.0029344 0.00125302 -3.75719e-18)
(-0.0218048 0.00718622 -2.44873e-19)
(-0.000630391 1.09655e-05 -4.88741e-20)
(-0.00987267 -0.0197374 -1.06312e-20)
(0.000991578 -0.000285648 3.03724e-18)
(-0.00288049 0.00133454 -2.71033e-18)