/*--------------------------------*- C++ -*----------------------------------*\
| =========                 |                                                 |
| \\      /  F ield         | OpenFOAM: The Open Source CFD Toolbox           |
|  \\    /   O peration     | Version:  v2012                                 |
|   \\  /    A nd           | Website:  www.openfoam.com                      |
|    \\/     M anipulation  |                                                 |
\*---------------------------------------------------------------------------*/
FoamFile
{
    version     2.0;
    format      ascii;
    class       surfaceScalarField;
    location    "650";
    object      meshPhi;
}
// * * * * * * * * * * * * * * * * * * * * * * * * * * * * * * * * * * * * * //

dimensions      [0 3 -1 0 0 0 0];
oriented        oriented;


internalField   nonuniform List<scalar> 
14885
(
0.000211353
0.000602763
-0.000822437
0.00509155
-0.00272933
-0.0023664
0.000409319
-0.00389677
0.00346865
0.00174495
-0.00251305
0.000606154
-8.01545e-05
0.000679463
-0.000757006
-0.00473577
0.0010267
0.00370553
-0.000660195
-0.00255356
0.00320793
0.00133567
-0.00157679
0.00024064
0.000892517
-0.000611626
-0.000314886
0.00419405
-0.0016476
-0.0025528
-0.000280032
-0.00120341
0.0014734
0.00247614
0.00261233
0.00048015
-0.00308357
0.00259922
-0.00081668
0.00199353
-0.00121717
0.00394307
-0.00122744
-0.00275615
-0.00200657
0.00114832
0.00365809
-0.00338041
-0.000284969
0.00113734
-0.00142695
0.00340252
-0.000716973
-0.00269343
0.00511543
-0.00137365
-0.00377033
0.00299865
-0.00252255
-0.000626667
0.000829497
0.00224534
-0.000659484
-0.000240182
0.00238631
-0.00214655
-0.00368363
0.000803788
0.00277155
3.40558e-05
-8.44716e-06
-3.96521e-05
0.0036342
0.000551375
0.000514407
-0.000551007
4.61212e-06
-0.000656502
-0.004087
0.000635178
0.00143329
-0.00206854
-0.00052355
0.000215689
0.000177661
0.00271112
-0.000436353
-0.00227529
0.000819401
-0.000234703
-0.000616472
0.000261288
0.00052885
0.0015456
-0.000211392
0.00154299
-0.00138132
-0.00016319
0.000638611
-0.00014517
-0.000735777
-0.000824717
8.91643e-05
0.000689107
-0.000405306
-0.000238173
-5.63059e-05
5.81154e-05
-2.27935e-06
-0.00209522
0.00273043
0.000624773
-0.00257741
0.00308856
-0.000514533
-0.00521406
0.00467035
0.000534573
-0.00288648
0.00042326
0.002343
-0.0010978
-0.00266951
-0.000253885
-1.67444e-05
0.000252778
0.00345589
0.000434858
0.000361047
-0.00299609
0.00263059
0.00313585
-0.0032975
0.000158164
-0.00283305
0.000251046
-5.05502e-05
0.00134477
-0.00146028
0.00299652
0.000365012
0.00302846
-0.00406795
0.00378422
0.000278474
-0.00285195
0.0026431
0.00020605
0.00043115
0.00256212
0.00188567
-0.000611401
-0.00128346
0.00394904
-0.00348208
-0.000505416
-2.49914e-05
2.25566e-05
9.80754e-07
0.00338416
-0.00302822
0.00407127
-0.00378294
-0.000294255
0.00275526
0.000330155
0.00123123
-0.00143366
0.000200185
0.00294528
-0.000423268
-0.00254265
0.0046701
-0.00134099
-0.00339341
0.00486056
-0.00166287
-0.00322248
0.000725333
-0.00091188
0.000179713
7.16452e-05
0.000149602
-0.000235556
0.000853821
-0.000135246
0.00276958
-0.00287547
0.000102503
-0.000327841
-0.00363967
0.003938
-0.000195371
-0.00104651
0.0012007
0.000709891
0.00319564
0.00360917
0.000982186
-6.67533e-05
-0.00133245
0.00291738
-0.00160418
-0.000278747
6.26353e-06
0.00144252
-0.00279449
0.0023213
-0.00304538
-0.00464115
-0.000582139
-0.00233592
0.000107992
-0.000368797
7.713e-05
0.00127972
-0.000179032
-0.00126201
0.00496186
-0.00196164
-0.00301221
-0.00326357
0.0033829
-0.000124778
0.00357431
0.00126125
0.00382555
-0.00343491
-0.00287601
0.00293026
-0.000115728
-0.00101314
-0.00229752
0.00328515
0.00368215
-0.00249745
-0.00118961
0.00203572
-0.00329875
0.00279903
-4.74332e-05
0.000366638
-0.00363556
0.00271675
-0.000308724
-0.00242784
0.00332049
-0.00382844
0.000440085
0.00184431
-0.00180383
0.00342786
0.00264908
-0.00310155
0.000449791
-0.00369951
0.000413195
0.00324131
0.00270154
0.000975033
0.00365195
-0.00395394
0.000296323
-0.00124213
-0.00309956
0.00430331
-0.00209008
0.00284249
0.00335398
-0.000353105
-0.00300849
-0.0038487
0.00380584
2.13609e-07
0.000941267
-0.00252745
0.00158406
0.00439558
-0.000863291
0.00242771
-0.00309325
0.000352273
-0.00424308
0.00389299
-0.0046905
0.00073949
-0.00085782
0.00328032
0.00403624
-0.000391289
0.00145421
-0.000226286
0.000390485
0.00253167
2.90774e-05
0.000265699
-0.00031105
-0.00131175
0.00341336
-0.00212079
0.000372243
-8.61571e-05
-0.000429405
0.000475416
0.00139286
-4.0668e-05
0.000290987
-0.000265973
-2.68029e-05
-2.50242e-07
0.00474275
-0.00249507
-0.00225195
0.00335149
0.00138583
-0.000709675
-0.00229291
0.00153269
-0.00256558
-0.00279753
0.00301626
-0.000284222
-0.00319792
0.000352255
-0.000278011
-0.00379506
0.00235433
-0.00219166
-0.000163344
-0.00354924
0.00221645
-0.000952302
0.000959819
-4.96348e-05
0.00409463
-0.00295717
-0.00120248
-0.000335812
0.00296043
-0.00267827
-0.00270189
0.00445469
-0.00182508
0.0019921
-0.00285429
0.000205418
-0.00284106
0.00263138
0.00461075
-0.00108976
-0.00354584
0.00157667
0.00188946
0.00409198
-0.00366214
-0.000447503
0.00330361
-0.000660236
0.000345933
-0.00288438
0.00253524
0.000256686
-3.0662e-05
-0.000265239
0.00308643
-0.00214843
1.85207e-05
0.000458856
-0.00256511
0.00389238
-0.00133978
-0.000154238
-0.000711532
0.00212716
0.00282354
0.000277796
-0.000224864
0.00420462
-0.000137696
-0.0040962
-0.00080249
0.00298973
-0.0021903
0.0031796
0.00115085
0.000205282
-0.000212779
-3.61342e-05
-0.00392907
0.00330678
0.0006079
0.00271251
-0.00296384
0.000248892
0.000347332
0.00234752
0.000869744
-0.00344952
0.00218001
0.000172934
-0.00226843
-0.000586539
-0.00287586
0.00248961
4.78791e-06
1.9276e-05
-0.00071119
0.00029124
0.000248132
-5.25971e-05
-2.77155e-06
0.00283048
-0.00262932
7.86474e-05
0.00040176
-0.00372713
0.00330433
0.00319181
-0.00399835
0.00117158
-0.00141491
-0.00283397
0.000743676
0.000134785
0.0014088
-0.000693598
0.000289929
0.000382354
0.0026287
-0.00033702
-0.00231182
-0.00136336
0.0027965
-0.00356816
-0.000788056
0.00434964
-0.000460009
-0.00286344
0.0032198
-0.00433697
0.000760695
-0.000999622
-0.00162347
0.00254249
-0.000986852
0.000783221
0.00111983
0.00289546
-0.000134057
0.000270885
0.00361794
0.000454436
0.0041119
-0.00166997
-0.0024489
-0.00303006
2.22758e-05
-0.000255069
0.000216232
7.10015e-05
-2.15789e-05
-5.08329e-05
0.00189765
0.000971964
-0.00287232
0.00326377
-0.00361836
8.11057e-06
-2.14715e-05
1.2066e-05
0.00260153
-0.000105353
-0.00249858
0.00045401
-0.000454832
-9.16433e-05
0.000773324
-0.0026591
0.00308474
-0.000981348
-1.10274e-05
0.000902154
0.00320098
-0.00388679
0.00408944
-0.00020741
0.00343826
-0.00143244
0.00129071
-0.00226341
0.000972548
0.00259901
-0.000319697
-0.0022986
-0.00192587
0.00179548
0.000129617
0.00115435
-4.41404e-06
0.00200807
-0.00233544
0.000326446
-0.00288988
0.00282178
6.42985e-05
-0.00415785
0.00072313
0.00342259
-0.000176358
0.000163052
-1.01519e-05
-0.00264416
-0.000460569
0.000240398
0.00266589
-0.000172663
-0.00202805
0.00219823
0.00292764
-0.000219375
0.00380697
2.65448e-05
-0.0034137
0.000659459
-0.000122773
-0.00022098
2.18411e-05
-0.0037737
-0.000397887
-0.00421274
0.00392995
0.000267507
0.000328339
-0.00097276
0.000397812
-0.000664031
-0.0001838
0.000840592
-1.0841e-05
0.000132299
-0.000144685
-0.000655044
0.00415789
-0.00351083
0.000857415
-3.2157e-05
-0.00101267
-0.00018513
-0.00200178
-0.000153908
0.00215403
0.000298937
0.00230923
-0.0021547
0.000151178
0.000184547
-0.00128119
-0.00133992
-9.41656e-05
-0.000366559
-0.00364473
0.00397203
0.00132682
0.00325934
0.000536212
-0.00404363
0.00349761
0.00191309
-0.00318412
-0.000171651
-0.000860119
-0.00199674
-0.00124769
0.00297511
-0.00108027
3.6125e-05
0.000220014
0.00154266
-0.00262284
-0.00144119
0.00504448
-0.00175243
-0.00332154
0.00195747
-0.000114789
0.00343112
0.00044956
0.00217476
0.000209774
-0.000361687
0.00387494
-0.00352414
0.00272528
-0.000339266
-0.00238952
-2.87024e-05
7.14247e-07
-4.63295e-05
-8.311e-06
0.00346234
0.000221887
-0.00368923
0.0006238
-0.000861434
0.000390019
0.00233106
0.00366414
-0.000248058
-0.0021911
-0.00174777
0.000566595
-1.65415e-05
-0.000327396
0.00367345
-0.000972939
-4.39594e-05
0.004724
-0.00227106
-0.00246499
0.00109326
0.00217834
-0.00327674
0.00372621
0.000441204
0.001384
0.00362983
4.67613e-05
0.00032561
0.00451546
-0.00364093
-0.000909818
-0.00107266
-0.000732023
4.11772e-05
-0.00128735
0.00107763
0.000577387
-0.00289706
-6.35563e-05
-0.000860136
0.00088055
-0.00136302
0.00115889
0.000274648
-0.000309697
-0.000159433
-0.00332488
0.00441127
-0.00237799
0.00293263
0.00200739
0.00270355
1.24653e-05
7.33476e-05
-0.00021014
0.000632055
-0.00267446
-0.000578524
0.00272791
-0.00223675
0.00292408
0.000207619
-0.0021977
0.00213988
1.20156e-05
-0.00273219
-0.000145548
0.000985569
0.0034913
0.00177298
-0.000476793
-0.00131609
0.00376882
-0.00123318
-0.00255229
0.00266456
-0.000323052
-0.00244273
-0.000184405
7.8999e-05
-0.0003968
-0.000345661
-0.000228691
0.000310123
-0.00292359
0.00260648
0.0020971
-0.000806961
0.000477914
0.00327105
-0.000515575
0.000132442
0.000125172
0.00195201
5.40074e-05
-0.00200673
0.0013258
0.00235669
-0.00370291
0.000414181
3.52271e-05
-0.000467346
9.40396e-05
-0.000740404
0.000639927
9.70427e-06
0.0001565
0.0030876
-0.00268551
-0.000408445
-0.000164981
0.00309973
-0.00295512
0.000140458
-0.000511833
0.000116027
0.00198176
-0.00285446
0.000872014
-0.00282084
0.000957993
-0.00186707
0.000875442
-0.00398278
-0.000226168
0.00419889
0.00518666
-0.00388863
0.00207876
-0.00274129
0.000128763
-0.000162629
-0.000372066
-0.00350175
1.16229e-05
-4.40817e-06
-0.00372347
0.00335142
-0.0017963
0.00310384
0.0016281
0.00243847
0.00226854
-0.00249408
0.000176725
9.94334e-07
-4.81071e-05
-0.00381774
-0.000172912
0.00281785
-0.000834562
0.000412524
2.03765e-05
-0.00155467
-0.00228189
0.00376586
-0.000538099
0.00377952
-0.000738785
0.00166704
0.00284629
-0.00303155
0.000708031
-0.000620403
2.35356e-05
0.000237798
4.57026e-05
2.55011e-05
-0.00242184
0.000203089
0.00221638
-0.000255932
0.000269246
-5.66724e-05
-2.99314e-05
5.62075e-05
-0.00271048
-2.44603e-05
0.000462213
0.00128838
0.00105087
-0.00012694
-0.000928828
0.000107697
-9.60694e-05
-1.20398e-05
-0.000363363
0.00045551
-0.00228675
0.000242202
0.00202254
0.00368587
-0.00263536
0.00340469
0.000406213
0.00267434
-0.00262929
0.00281613
-0.00362488
0.00375786
-0.000201206
-0.000320921
0.000915675
-0.000175462
0.00022523
-0.00010635
0.00214308
-0.00231835
-0.000118281
-0.000628304
0.00336183
-0.00222016
-0.00114633
0.000890197
0.000154953
-0.000947048
-5.90825e-05
-0.00046769
0.00365645
0.00275488
-0.00241206
-0.000394247
0.00311939
-0.00273086
-2.7917e-05
-3.09123e-06
-0.00250708
0.000270838
0.00221187
0.00037095
-0.000319896
-0.000228393
-0.00101199
0.000794194
-0.00205024
0.00214019
-0.000143233
0.000440486
-0.00104124
0.000442784
0.000425083
-0.00367679
0.00322225
0.000293849
0.00297247
-0.00329239
0.00253144
-0.00286042
0.00345518
-0.00305811
-0.000614161
0.000753954
-0.000155248
1.61596e-05
-0.00380522
-0.000278196
-0.00203048
-0.00406557
0.00365972
-5.52214e-05
-0.000265976
-0.00201059
0.00227581
-6.77699e-05
1.65108e-05
1.72987e-05
0.00399449
-0.000241474
-0.000832978
0.000465544
0.00355464
-0.0031731
0.00261111
-0.00033866
-0.00227707
0.00279295
-0.00326292
-0.000129027
-0.000700223
0.000958559
-0.000407268
-0.000349175
0.00342288
-0.00310867
0.00307202
0.0040017
-0.00355149
-0.000455189
-9.47507e-07
0.000104452
8.13883e-05
2.60405e-05
2.31756e-06
-2.31756e-06
0.00241008
0.000967442
-0.00244121
0.00230381
9.59911e-05
-0.00177517
0.00127846
-0.000479666
0.0039174
-0.00344835
-0.000326147
0.00374345
-0.00342245
0.00330858
-0.000902722
-0.00391533
0.00367051
0.000178779
0.00337344
-0.00386352
0.00403818
-0.00351202
0.00299383
0.00062208
0.00309334
-0.00116388
-0.00193102
-0.000311616
-0.000424541
0.000245755
2.96403e-05
0.00316751
-0.00271186
-0.000498762
0.000402061
-6.17927e-06
0.0046817
-0.00373693
-0.00225133
0.00225022
-4.37199e-07
0.00330868
-0.00304115
-0.000245776
0.00222459
-0.0019998
-0.000529798
0.00332024
0.00440038
-0.00222759
-0.00275032
0.000158536
0.00245256
0.000236496
0.00130716
-0.000292163
-0.000405223
0.00159939
-0.00203618
0.00134422
-0.000154924
0.0020014
-0.00213579
0.000133752
-0.000391774
0.000367686
1.8758e-05
0.00379426
-0.0005152
-0.00174762
0.00226102
0.000139441
-0.000768957
0.000190968
0.00256049
0.000747392
0.000105135
-0.000867731
0.000408992
0.00345372
0.000969496
0.00366856
0.00445471
-0.00213226
-0.0023291
-0.00162912
0.00315015
-0.00153085
0.00246155
-0.00280486
0.000217729
0.00306108
0.00138221
-0.000185098
-0.00120108
0.00415577
-0.00051116
-0.00367961
0.000864954
-0.00361196
0.00273405
0.00371877
1.22976e-05
0.000294825
-0.000326565
0.00150639
0.00261755
0.000217287
-0.000232844
-3.2601e-05
0.00241507
-0.00294627
-0.000201364
-0.000851766
-0.000206948
0.000213338
-6.62036e-05
0.00279374
0.00107783
-0.00390539
0.00407389
-0.00031714
-0.00376906
0.00193219
0.002515
0.000916778
-0.00101776
-0.00305898
-0.000876364
0.00363971
-0.00015549
-0.000140491
0.00162893
-0.00326837
-0.000540657
-0.000839226
-8.31481e-05
0.000815492
0.000338189
0.00319428
0.00274497
0.00014583
-0.00289359
-0.00131533
-4.59158e-05
-3.22169e-05
5.00302e-05
0.00237612
0.000264298
-0.000438119
0.000401427
4.46123e-06
-0.000878396
0.00369894
0.000264818
0.00352456
-0.00380805
-0.000110671
7.90066e-05
5.688e-05
-1.8878e-06
-5.46592e-05
0.000297567
0.00107839
0.000128948
0.00269683
-0.00119895
-3.24569e-05
0.000226137
-0.000208693
0.00167217
-0.00123186
0.00301364
-0.00388502
0.000864158
-0.000931815
0.00393745
0.0022518
0.000840315
0.00106309
0.0010613
-0.00211363
1.1016e-05
0.0028986
-0.00240959
0.000156548
-2.63482e-05
4.54278e-06
-5.08622e-05
4.60791e-05
-0.000217374
-0.000292132
0.00307947
-0.00167635
-0.00151767
-0.00137181
0.00134309
2.22703e-06
-7.03535e-05
-0.0013276
0.000434753
0.00269559
-0.000112896
-0.000751091
0.00338803
-0.00333786
0.00196344
-0.00286283
0.00236321
-0.00272059
0.00288261
-0.00275846
-0.000645509
0.000565039
6.28083e-05
-0.00217951
1.69784e-05
0.00216156
0.00296722
-0.000224871
0.00325177
-0.000529783
-0.00272627
8.64979e-05
-0.000308384
0.00279118
-0.00249815
3.22607e-05
-0.000116184
0.00127244
0.00312208
-0.000355699
0.00291203
-0.00263492
0.00245424
0.000126764
0.0033525
-0.00316518
0.00285458
0.000442585
0.000225112
-2.28586e-06
0.00289884
-0.00323317
2.77203e-05
-2.34206e-05
0.000424554
0.00122624
0.000547604
-0.0030748
0.00252414
3.81124e-05
-0.000111913
0.000799334
-0.000848934
-5.15937e-05
0.00282333
0.00305246
0.0013063
-0.00436506
0.000764349
-0.000869227
-0.00268159
0.00244463
0.00021471
0.00396655
-0.000354927
-0.0036297
-0.00259449
0.00278197
0.000544917
0.000195476
-0.000249222
-0.00246675
-0.000390068
0.0025596
0.000364596
-0.00292857
-0.00362378
0.0036114
-4.30477e-05
-0.000222405
0.000348662
0.00276448
-0.00148599
0.00453169
-0.00236859
-0.0013589
0.00372127
0.000215651
-0.00331478
0.00308834
-0.000322015
-0.000191719
0.0004094
-3.94284e-05
3.85947e-06
3.43734e-05
-0.00397507
0.000453856
0.00350928
-0.00385299
0.00340048
0.000439648
-0.00387134
0.00368602
0.000168812
0.000205128
-0.00223664
0.00068188
-0.000153114
-0.00206924
0.00152222
0.000393389
0.00365685
0.000114511
-0.00381161
4.50558e-05
-0.00251455
-0.000622384
-0.00189001
0.00240893
0.00377035
0.00122018
0.0017429
-0.00352133
0.00360242
-0.000139622
-0.000648011
0.000592374
3.70155e-05
-0.0027171
0.00356955
-0.00279756
0.00300364
0.00469185
-0.00281023
-0.00321901
0.00353499
0.00518675
-0.00271216
-0.00248242
0.00223701
-0.00257545
-0.00396352
0.000676312
0.00327468
0.000934094
0.00371376
-0.00387678
0.000278479
0.00353935
-3.47848e-05
-4.93708e-06
0.0031477
-0.000591729
-0.00374814
-0.000229541
-0.000240064
-0.000263612
0.000487783
0.000539152
0.00340769
-0.00203415
-0.00184367
-0.00364352
0.00027585
0.00329693
-0.00385621
0.00011923
0.00372752
0.000719587
0.00377395
-0.000316848
0.00039298
-0.00121858
-0.000419421
0.00117728
-0.000132425
-0.00105928
-0.000153925
0.00189999
-0.00262902
-0.00287901
0.00307616
-0.000199458
0.000853715
-0.000178525
0.00107777
-0.0010806
-3.61892e-05
0.00234541
0.0028325
-2.9962e-05
8.97353e-07
-0.000401097
-0.00348445
0.00388053
-0.00347224
0.00109796
-0.000857956
0.000313767
0.000514395
-0.00212249
0.00203284
6.74237e-05
0.00166904
0.00169106
-0.00434577
0.000559139
0.0037733
0.00268835
-0.000134687
-0.000134689
0.000214829
0.00023383
-0.000489363
-0.00020996
-1.78589e-05
0.000210223
-0.000457437
-2.68992e-06
0.000450477
-0.00154357
0.000269419
0.00125636
0.00396956
-0.00420332
0.000463363
0.00373119
-0.00356264
0.0036707
-0.000180331
-1.71284e-05
6.78266e-06
8.21198e-06
0.00324768
-0.00300847
-0.000242795
0.00285348
-0.00321402
-0.00113982
-4.50427e-05
-5.09595e-05
-0.00105337
0.000856047
8.68248e-05
0.000339679
0.00290415
0.0024329
0.000176706
0.000162056
0.00100024
-0.00198458
0.00218634
0.00307671
-0.00144621
-0.00171931
0.000381363
-0.00318126
0.00279642
-0.00076267
0.000302138
0.000445079
-0.000338944
-0.000546451
0.0026385
-0.00453969
-0.00323786
0.000894095
-0.00382329
0.0039422
-0.00017557
-0.000246057
0.000351341
-0.000191001
-0.000184345
-0.00330992
-0.000142463
0.0034189
0.00334758
-0.00368183
0.000327866
-0.00253575
0.000232725
0.00219765
0.00113438
-0.000117506
-0.00103228
0.000290066
-0.000280443
-0.00343089
-0.000543549
-0.00438676
-0.000377127
0.000661126
0.000301542
0.00225929
8.46789e-05
0.00251575
0.000266451
-0.000272165
-0.0036362
0.00330504
-0.000518419
-0.000641299
8.34183e-05
0.000737663
-0.000747836
0.000791104
-0.000791376
0.00032175
0.000276041
3.801e-05
0.0010034
-0.00197882
0.00171228
4.13276e-05
0.000231268
-0.00249373
5.7767e-05
0.00238162
-0.00221227
-0.000264292
-0.00341925
6.51134e-07
6.43325e-07
-0.000660473
-0.000211842
0.000289153
-0.000146556
0.00401148
-0.00374148
-0.000282783
-0.000699154
-0.00217055
-0.00213702
0.00302451
-0.000956925
0.000216214
-0.000286238
-0.00306385
0.000859601
-0.000221801
0.00145514
-0.0031448
0.000188024
0.000930195
-0.00042991
-0.000348475
-0.001589
0.00421361
0.000450747
0.000726335
0.00231077
-0.00304262
0.00445461
-0.00352748
0.000351402
0.000700398
-0.000894076
-0.000389378
0.00403565
-0.00365686
-0.000673908
-0.000248463
-0.00226299
0.0037448
-0.00149541
0.00340292
-0.00268199
0.000715757
-0.00210917
0.00249543
0.00142393
0.0015627
2.50709e-05
-0.00371542
0.00150927
-0.00261101
0.00110005
0.00358423
0.000408031
-0.00201306
0.00223307
0.000900405
-0.0021627
0.0012614
-0.00333559
0.00316409
0.000133855
-0.00255989
0.00238598
0.000167842
0.00014714
-0.00249208
0.00226833
-0.00401907
0.00371639
0.000243728
-5.60491e-05
-0.000606462
-5.87623e-05
0.000780688
-0.00071519
0.00255449
-0.00104621
0.00336035
-0.00290003
-5.15206e-05
2.9498e-05
0.00234008
-9.08628e-05
0.0032206
-0.00365501
0.000361713
0.00367086
-0.00407074
1.32677e-05
4.25915e-05
0.000189091
0.00317892
-8.42148e-05
-0.000558478
0.000155307
0.00234391
-0.00289821
0.000289866
0.00256355
0.00192979
0.001781
-0.000354767
0.00369607
-1.9968e-05
-0.00355745
-1.07743e-05
-8.4163e-06
-8.04242e-05
0.000188611
0.000157942
-0.00280034
0.00257074
-0.00196702
0.000138688
0.00173451
-0.00333074
0.00343947
-0.000119977
-0.000195425
-0.00366909
0.00402389
0.000183216
0.00352281
-0.000123177
0.00037068
0.00249974
-0.00270645
0.00260456
2.86901e-05
-0.000129974
-0.00358819
-7.9602e-05
-0.00295928
0.000139998
-2.87246e-05
0.00206216
-0.00217154
4.5588e-05
0.000377652
-0.00249242
-0.00133392
-0.00196642
-7.43024e-05
6.99898e-06
6.59773e-05
0.000609467
-0.0042931
2.32262e-05
0.000121049
-0.000349773
0.00210101
-0.00110123
-0.00100134
-0.00250072
-0.00335706
-0.00035005
0.00168686
-0.00365903
6.08906e-07
-4.538e-05
4.43648e-05
-0.00172736
0.00335053
-0.00211873
0.00249089
0.00244622
-0.00237837
-0.000183299
0.000270919
-0.000155127
-0.000313189
-0.00262747
0.00139733
-0.000289141
-0.00111296
0.000148881
0.00221814
-0.00298851
0.000397382
0.00147763
0.00158321
-0.00310569
-2.93923e-05
-2.59762e-06
-0.00207186
0.00231929
0.000262893
-0.00322304
0.00291573
0.000208844
-0.00222028
-0.00161026
-0.000654136
0.000392749
-0.000442678
3.23821e-05
-0.00227348
0.00258209
-0.00019845
0.000189111
-5.06869e-06
7.64192e-06
5.08651e-05
-0.000851509
0.000858463
-0.00299701
0.00318618
0.000201874
0.00242942
-0.00253709
-0.00299706
0.000437481
0.00249786
0.00218134
-0.000880323
-0.00133767
0.00023252
-0.000637051
-0.000760614
-0.00142939
0.000472786
0.00321683
-3.02226e-05
6.10557e-07
2.93088e-05
-0.00285338
0.00242309
0.00345005
-0.00328415
-0.000194787
-0.00227966
0.00325782
-0.000366202
0.00362943
-0.00123166
-0.0024061
-0.00275458
0.0023643
0.000261863
-0.000331083
0.000115658
-8.00309e-05
-3.5927e-05
-0.000401511
-9.20812e-05
0.00032273
8.48912e-05
-0.00235438
0.00206896
0.000185416
-0.00245226
3.32689e-05
0.00237587
-0.000374204
-2.3395e-05
0.000169203
7.8277e-06
0.000196532
-0.00218412
0.00271307
-0.00127313
0.000791574
0.00361834
-2.42214e-05
-0.000641859
0.00374952
0.00131267
0.000835023
0.00120814
0.00383014
-0.000235239
-0.00360204
-0.0026883
-0.00238908
-0.00156924
0.00116019
2.36504e-05
-1.31818e-05
-0.00138683
0.000307942
0.00256448
-0.00166506
-8.07414e-05
0.00347811
0.000373012
-0.0038577
0.00204718
0.000156869
-0.0020131
0.00343642
-0.00237207
0.00315801
0.000313696
0.00013291
-0.00132613
0.0033913
-0.00210715
-0.00258473
0.00396278
-0.00139119
-0.000357085
0.000390532
-3.89466e-05
0.00100975
-0.000832013
-0.000183292
-0.00310832
0.000113124
0.00299003
-3.014e-05
-3.00126e-08
-0.000424
1.54986e-05
0.000400675
0.000115618
-0.000667568
-0.00340413
0.0036509
-0.000104995
-8.26383e-05
0.00397314
-0.00312263
-0.00327928
0.00298348
0.000264687
0.000186055
0.00127313
-0.00354961
-0.00294784
0.000200637
0.00267763
0.000295168
0.00226705
-0.00047894
-0.00338609
0.000148604
-0.000336276
0.00124572
-0.000953959
4.02015e-06
0.000573448
-0.000586693
-4.44877e-05
-0.00248097
0.00246826
0.00304214
-0.000256644
-0.00282601
0.000500247
0.00352672
-1.67168e-05
-0.00252357
-0.00395999
0.000108393
0.00456105
-0.002544
0.0041504
-0.000432684
-0.00372419
0.000282495
0.00271625
0.00383014
-0.000443678
-0.000196906
0.000209615
-1.47315e-05
1.62571e-05
-0.00332677
0.000570544
0.00325067
-0.000452372
-0.000459782
-0.0024627
4.32975e-05
0.00236985
0.00289179
0.000314355
-0.00323631
0.000941529
-0.00185718
0.000537128
-0.00119127
0.00045826
0.00355743
-0.00010276
-0.00346951
-0.00425309
0.00288845
-0.000505779
0.000284196
0.00361554
-0.000523735
-0.00313611
-1.81826e-05
1.66253e-05
0.000350666
2.04386e-05
-0.00257065
0.0021564
-0.00246613
0.000193532
-0.000254174
-7.07793e-05
-3.94228e-06
0.000921095
-0.000855045
-7.95216e-05
0.00434503
-0.000760088
-0.00361551
0.000682783
-0.000590994
-9.95204e-05
-1.81826e-05
-0.00323833
-0.00156462
0.000172256
0.00137842
0.0039032
-0.000432904
0.000102585
0.00189629
0.00262513
-2.8482e-05
-0.00265202
1.43119e-05
0.00109218
-0.00389812
6.90502e-05
-6.88275e-05
0.00374783
9.10994e-05
0.000608844
0.000445984
0.0035844
-0.00403804
0.00059
0.000113479
0.00222544
-0.00333097
0.00302952
0.00026252
0.00342957
0.00275008
0.000127758
0.00285507
0.000533144
-0.000538053
-2.96591e-05
-7.98954e-07
8.65183e-06
-0.000440404
-0.00336222
0.0032582
9.58366e-05
0.000405794
-0.00403692
0.00361981
0.00317751
-0.00222769
4.723e-05
-0.000847791
0.00278993
-0.00195696
0.000209909
0.0010308
-0.00194735
0.0021409
-0.00234688
-0.00014387
0.00293508
-0.00141852
0.00357141
-0.00397759
0.00425394
-0.00054266
-0.00373216
0.000443432
0.000977225
-0.00357398
0.00197037
-0.00191705
0.000671223
-0.00246165
0.00353467
0.000593977
8.13345e-05
-1.2945e-06
-0.000485547
0.00034115
-0.00458507
0.00244435
0.00212022
1.70331e-05
-3.44216e-05
1.49644e-05
-0.00405496
-0.00234711
-0.000387544
0.00262792
-0.000340084
0.00382615
-0.00349157
-0.00380772
0.00251453
-2.94771e-05
-2.6194e-06
-0.00282489
-0.000187727
-0.00345529
0.0031257
0.000266327
-0.00338955
0.00285509
0.00052788
-0.000181705
0.000195497
0.00080855
-2.0826e-05
-1.49164e-05
2.87088e-05
0.000288365
-0.00352874
-0.00343352
-0.000397537
0.00378332
0.000177246
-0.00285499
-0.000188068
0.00333583
0.000244331
-0.000133299
-0.00192295
-0.000116698
0.00294026
-0.00282632
-0.00287691
0.00336871
-0.00374029
-0.00226681
-0.000187698
-0.00187447
0.00169649
8.59557e-05
-0.0021207
0.00241376
-8.67381e-05
7.36129e-06
-0.000367982
-0.000438609
-0.00329025
-2.32129e-05
0.000273119
0.00275556
-0.00262732
0.000240971
-0.000789164
-0.000198984
0.00407522
-0.000477716
-0.00360967
-0.00261811
0.000359174
0.00378301
1.23199e-05
-0.000171218
0.000127283
-0.000431183
-0.00211025
0.000162624
-1.39666e-05
-0.000163134
-0.000528272
-0.00061507
0.00418512
-0.0038343
-0.00125819
0.000936363
-0.00288471
0.00411551
-0.00123952
0.0030946
0.003682
0.000104896
-0.00379616
-0.000417595
0.00311401
0.00358363
0.000478166
-9.64965e-05
-0.00418394
0.00148257
0.000192284
0.0017836
-0.000302872
-0.00233923
0.00370656
-0.00326405
0.0023391
-0.00213116
0.00286271
-0.00298219
0.00396814
-0.00198031
-3.29375e-05
-1.02518e-05
3.12496e-05
0.00170301
-0.00125285
-0.000482525
-2.76435e-06
-0.00019502
-0.00411854
5.04537e-06
0.000519108
-0.00246141
0.00230948
0.00014325
-0.00255923
0.00290667
1.61616e-05
-0.000242409
-0.0026214
0.00027379
0.00234615
0.000659409
0.00258494
5.72017e-05
5.83709e-05
0.000239885
0.000163786
1.24362e-05
-3.49945e-06
-4.06587e-05
-0.000141542
-0.00323069
-0.00351382
0.000128754
0.00339365
-6.82175e-05
-0.00333371
0.000687982
6.51131e-06
-0.000712591
0.00293706
-0.00265586
-0.000284853
-0.000165046
0.00295856
-0.00280265
0.00252225
-0.00389333
-0.000344325
0.000424317
-0.000286104
-6.42372e-05
-0.00226446
0.00232758
0.00375612
-0.000415109
-0.00336734
-0.00245598
0.000128351
0.00231545
-6.19912e-06
0.000470089
-0.00047299
0.000135278
-0.000447455
-0.00302078
0.00341067
0.000130391
0.000776062
0.00406508
0.00389389
0.000338517
0.00246986
0.0014506
9.05179e-05
-0.00154592
-0.00422558
0.000709565
-0.00363701
0.00409165
0.0014203
0.00232141
0.000138767
0.00220639
-0.00227172
0.00228631
0.000282997
-0.00257081
-0.00016847
0.00206085
-0.001894
0.000298433
0.00220657
-0.00250643
0.0036302
0.000356267
0.00250901
-0.00291401
-0.00050639
-0.00363797
0.00413665
0.00389825
-0.00230074
0.00377133
0.000348331
0.00258448
-0.00106271
0.00215106
-0.00108944
-9.40436e-05
-0.00241316
0.00043637
0.00337287
-0.00321415
0.000880379
0.00253681
3.35368e-05
-0.000103826
-0.000335803
-0.00244193
0.00234071
-0.00276934
-0.00181262
0.00187673
-6.09694e-06
0.00209644
0.000299714
0.00137004
-0.00333946
-0.00295571
0.000220315
0.0027305
0.00146805
-2.36805e-05
-0.00144924
-0.000482464
0.000332322
0.00410851
-0.00335896
-0.00415107
0.00364206
-0.00320304
-0.000260003
0.000391877
0.000453234
-0.00361208
0.00314999
-0.00249277
0.00234152
0.000143427
-0.00265725
0.000182996
0.00240346
-0.000107723
0.000694077
-0.00061196
0.00032539
-0.00298495
0.00368024
0.000343957
-4.90503e-05
-0.00252295
-0.00287772
0.00309655
0.00284847
-0.00254136
7.53806e-06
1.60601e-05
0.00167999
-0.000769987
0.000289539
-0.00349411
0.00135194
0.00225891
-0.00362575
0.00361705
0.00412561
-0.0005576
-0.000630125
6.85022e-05
0.000548704
-0.000416156
-0.00229859
-0.00230523
0.000986926
-0.00235159
9.4184e-05
0.00316092
-0.00396214
0.0038122
0.000116559
-0.00320905
0.000190202
0.00300798
0.000633853
6.7858e-05
-0.00024123
0.000257868
-1.94035e-05
0.00343955
-0.000113598
-0.00258147
-0.000141514
0.00129673
-0.000228015
-0.00108489
-0.00348079
0.0039996
-0.000449983
0.000219577
-0.00322056
0.00298883
0.00220587
-0.000169628
0.00412597
-0.000253914
0.000862612
0.00334637
-7.49125e-05
0.000650744
-0.000588525
0.00339612
0.000269688
-0.00368935
-0.00278238
-0.00017757
0.000698145
-7.16674e-05
0.000286324
0.00180058
-0.00132711
0.00130331
-1.95126e-05
-0.00197052
-0.000995135
3.08886e-05
-1.65412e-05
-0.00180701
3.0077e-05
0.00171846
0.00236577
-0.000143528
-0.00223329
-0.00270068
0.00293952
0.00339803
0.000756121
4.04916e-06
-0.000787141
4.90172e-05
-0.00141876
0.000749532
-0.000558576
-0.000207968
0.000486418
0.00362466
-0.00317516
-0.000500117
0.000484896
0.00276571
0.000198356
-0.00176327
-0.00388243
0.000404766
0.000308983
0.00351146
0.00273094
0.00376858
0.00033422
-0.000282514
0.000363959
-0.000252327
0.000968743
-0.00386301
0.00123613
-0.00150951
0.000265201
-0.00291292
-0.00305492
0.00277344
0.000279369
-0.00377105
0.00237699
0.00365108
-0.00201278
3.30858e-05
0.00304551
0.000374192
-1.58773e-06
-0.000302322
-0.000181026
-0.00226964
-0.000371172
-0.0040769
0.00457603
-0.00290183
-0.000746401
-0.000101476
0.00084738
-0.00211746
-8.75422e-05
0.000666312
-0.00058159
-0.00406873
0.000383985
0.00367315
-0.000207127
0.00143498
0.000386128
0.00014641
0.00220714
0.000585389
1.7851e-05
-0.000628276
-0.00221178
0.00328123
0.000285976
2.77219e-05
0.000469332
-0.000623996
-0.00362586
0.00319924
0.00039665
-0.000160094
0.00228983
0.000107345
-0.000853778
0.000416353
-0.00334888
-2.36484e-05
-0.00159255
0.000279819
0.00128417
0.00282222
0.00114184
-0.000402839
0.000131283
0.00360461
6.5823e-05
-0.00209867
0.0021488
-8.00064e-05
9.9366e-05
0.000273716
-0.000416189
0.000373991
-1.37225e-05
-0.000378996
0.000275121
0.00265667
-0.00293507
-0.00220994
9.38457e-05
0.00211445
0.00132228
-0.00106919
0.0011492
-0.000181022
-0.00315725
-0.000229135
-0.00267089
0.00286057
0.00134248
0.00014053
0.00344117
-5.72097e-05
-0.00110262
-0.00169199
4.30689e-05
0.00159116
-0.0026656
0.00380531
-0.00406988
-4.23181e-05
1.49955e-05
0.00355137
-0.00328461
-0.000801352
0.000768631
-8.9949e-05
-0.000693192
-0.00296917
0.00359536
0.000469131
0.000103786
0.000650828
0.00228658
-0.00215232
0.000136594
0.00102004
-0.0011571
0.000127125
-1.47653e-05
-0.000127365
0.000353996
-0.00375709
0.00339763
0.00319208
-0.00298457
0.00102833
-0.0020922
-0.0033375
-0.000329641
0.0041095
-0.000410936
-0.00370989
-9.61154e-05
-0.00186614
0.000206466
-0.00217006
-0.00378858
0.000441675
0.000128731
-0.000123327
-2.04289e-05
-0.00256894
-0.00168942
0.00320471
-0.000342405
-0.00172024
-2.89429e-05
2.86607e-05
-1.47833e-05
0.0011153
-0.000979123
0.000155417
0.00190227
-4.02013e-06
0.000673262