/*--------------------------------*- C++ -*----------------------------------*\
| =========                 |                                                 |
| \\      /  F ield         | OpenFOAM: The Open Source CFD Toolbox           |
|  \\    /   O peration     | Version:  v2012                                 |
|   \\  /    A nd           | Website:  www.openfoam.com                      |
|    \\/     M anipulation  |                                                 |
\*---------------------------------------------------------------------------*/
FoamFile
{
    version     2.0;
    format      ascii;
    class       volVectorField;
    location    "650";
    object      U;
}
// * * * * * * * * * * * * * * * * * * * * * * * * * * * * * * * * * * * * * //

dimensions      [0 1 -1 0 0 0 0];


internalField   nonuniform List<vector> 
10042
(
(1.05056 -0.0131284 6.10852e-22)
(0.909253 0.25011 0)
(1.00087 0.0681543 1.5342e-21)
(1.01744 0.00160536 8.72847e-22)
(1.01313 0.000578627 -5.376e-22)
(1.03476 -0.0934261 -9.49745e-22)
(0.679419 -0.059845 0)
(0.841807 0.0608467 -1.04561e-20)
(1.01228 -0.00148733 1.76282e-21)
(1.07736 -0.0263398 4.91108e-21)
(1.0026 0.0674517 -3.5202e-21)
(0.914184 0.249362 -1.83481e-22)
(1.01138 0.0196558 0)
(1.01 0.000455108 -2.13617e-21)
(1.02755 0.000467857 8.38314e-21)
(1.01013 -5.85649e-05 0)
(0.991309 0.03407 4.33323e-21)
(1.0119 0.0718263 0)
(1.03356 0.0084542 0)
(1.0371 0.0292303 -1.41767e-22)
(1.00984 0.0159613 -6.36092e-21)
(1.05422 -0.00391847 -5.43859e-22)
(1.01725 0.00156557 -3.79463e-22)
(0.929172 -0.238699 -5.08062e-21)
(1.01455 0.00304547 0)
(1.0109 -0.000114312 0)
(1.07575 -0.0212568 -7.73967e-22)
(1.01251 -0.00106039 7.83074e-22)
(1.01616 -0.0722668 0)
(0.900773 -0.229987 -3.37175e-21)
(1.00924 0.000204013 0)
(1.03526 0.0575284 -2.09647e-20)
(1.01242 -0.00149559 0)
(1.01239 -0.00142166 1.96388e-21)
(0.833732 0.0911335 1.24935e-20)
(0.884975 0.166628 -1.59752e-20)
(1.01833 0.000398296 0)
(1.0112 -0.000365698 0)
(1.01076 0.00036683 -7.17164e-22)
(1.02677 -0.0108187 0)
(0.904441 -0.234932 -4.65134e-21)
(1.01226 -0.00141366 1.86284e-21)
(0.893797 0.0655414 0)
(0.982375 0.2096 -8.56369e-21)
(1.01649 0.00287287 0)
(1.0145 0.00305645 0)
(1.0143 -0.000868976 3.12172e-21)
(1.02707 0.000441354 -7.59431e-21)
(1.02213 -0.0564014 -9.36112e-22)
(0.668833 0.108644 -6.61755e-21)
(0.881085 0.0587297 -2.44089e-22)
(1.01501 0.00134412 9.39675e-23)
(1.02081 0.00205134 0)
(1.03332 0.00760182 6.85147e-21)
(0.820326 -0.219696 3.18575e-21)
(0.25134 0.335171 -6.32108e-21)
(1.01272 0.0133789 -7.23167e-21)
(1.01157 0.0370279 0)
(1.02733 0.00344209 9.51553e-22)
(1.01693 -0.000887495 0)
(1.03069 -0.057446 -5.23762e-21)
(0.803253 -0.234173 -2.93367e-22)
(0.912366 0.0597995 0)
(0.815418 0.00232609 4.20826e-21)
(0.976957 0.0372493 0)
(1.01245 0.000864829 8.99901e-22)
(1.03163 0.029147 -4.07334e-22)
(1.01784 -0.0527668 0)
(1.01464 -0.000921539 2.54907e-22)
(1.02586 -0.0454575 1.92578e-22)
(0.855094 0.0679863 0)
(1.03195 0.010515 -8.74649e-22)
(1.01249 -0.000452536 0)
(1.02702 0.003225 0)
(1.01294 0.000875108 0)
(0.865824 0.0756811 0)
(1.01998 0.0471968 5.69551e-22)
(1.01439 -0.000888661 -3.39337e-21)
(1.02479 0.0498135 8.38752e-22)
(1.03455 0.00887197 -2.33174e-20)
(0.987696 0.22496 1.2066e-20)
(0.922756 -0.243802 1.21357e-20)
(1.00614 0.000134621 -1.34177e-21)
(1.01371 0.00100531 0)
(1.06904 0.0126912 0)
(1.00228 -0.111598 1.33612e-20)
(1.02974 0.0275175 0)
(0.994271 0.0661803 1.85489e-21)
(1.01649 0.00208252 -1.15277e-22)
(1.00139 0.0421365 0)
(1.02407 0.0155022 0)
(1.02788 0.000158784 -3.04489e-21)
(0.914604 0.049428 7.7246e-22)
(0.967193 -0.116085 -1.20252e-20)
(0.967503 0.0154518 -3.23157e-21)
(1.0206 0.00616257 1.76269e-22)
(0.19947 0.313537 -2.1018e-19)
(1.03455 0.0278305 4.00484e-22)
(0.918985 0.201163 4.47423e-21)
(1.02684 0.00287251 0)
(1.0251 0.0140098 3.99468e-21)
(1.10565 -0.050642 0)
(1.02729 0.00718321 0)
(1.04079 0.0449877 1.36773e-20)
(1.02936 0.00811989 1.08395e-20)
(1.02554 0.00581787 -1.82601e-21)
(0.53548 0.0809499 -2.16928e-20)
(1.01305 0.00171608 6.55474e-22)
(0.657363 -0.0746492 9.13258e-21)
(1.02614 0.00581142 1.78877e-21)
(1.02645 0.00359321 1.34735e-21)
(0.741422 -0.092108 9.12101e-21)
(1.10354 -0.0413536 1.59121e-22)
(0.81835 0.0264831 -5.92632e-21)
(0.980424 0.0305271 3.41889e-21)
(1.01506 -0.00095472 0)
(1.02132 -0.0497517 1.78658e-21)
(1.01006 0.000276559 1.50545e-21)
(1.00998 0.0314734 0)
(1.01516 -0.000953312 -1.42223e-21)
(1.01694 -0.00101736 -3.6632e-24)
(0.906712 0.239368 2.72444e-22)
(0.908052 0.233493 9.20398e-21)
(1.01665 0.0030986 0)
(1.00553 0.046146 0)
(1.01751 0.00227163 -1.45042e-21)
(1.01801 0.00211314 0)
(0.838158 -0.213036 3.18509e-21)
(0.94884 0.137688 -3.7143e-20)
(1.02787 -0.0512629 -1.60881e-21)
(1.01168 -0.000595398 -2.16675e-21)
(1.01433 0.000796699 0)
(1.01996 0.00377683 0)
(1.0135 0.00360321 1.20369e-21)
(0.733206 -0.104766 -7.23894e-22)
(0.823902 0.0187986 1.5569e-20)
(1.02285 0.0312942 -1.19443e-21)
(0.886145 -0.216303 -2.30781e-20)
(1.03095 0.00414642 1.09405e-20)
(0.931515 0.192801 3.03943e-21)
(0.955029 0.0367974 -5.20887e-21)
(1.01137 -0.000288633 -1.87405e-21)
(0.557076 0.0360807 -1.90123e-20)
(1.0124 -0.000948574 0)
(1.03278 -0.00316987 -1.83063e-21)
(1.01133 -0.000395336 0)
(1.06484 0.012714 4.3377e-22)
(1.01464 -0.000897778 -7.62572e-22)
(1.02755 0.013819 0)
(0.925845 -0.27873 5.20014e-21)
(1.01348 0.00169188 -2.9079e-21)
(1.01 -0.000153404 -3.80346e-21)
(1.03099 0.00454686 4.26679e-21)
(1.00368 0.0263816 2.86051e-21)
(0.973142 0.0112074 3.1895e-21)
(1.03368 -0.00406597 -6.67516e-22)
(0.949168 0.126305 1.27692e-20)
(0.245989 0.314519 1.28831e-20)
(1.0204 0.00308385 0)
(1.00886 -0.000267583 0)
(1.01234 0.000410633 0)
(1.029 -0.0113346 -2.01963e-22)
(0.801174 0.00967061 -1.01687e-20)
(1.01695 0.00198133 1.86587e-21)
(1.03049 0.00359467 0)
(0.928642 -0.279726 3.59859e-20)
(1.01256 -0.000440959 0)
(1.03698 0.0483875 8.36273e-22)
(0.865738 0.142823 1.67412e-20)
(1.01249 -0.00135841 3.55271e-21)
(0.967904 -0.00792361 3.25401e-21)
(0.887463 -0.212014 -1.01104e-20)
(0.890043 0.219607 1.26856e-20)
(1.01254 -0.00145053 -2.02835e-21)
(1.03263 0.00721872 6.64314e-21)
(0.898594 0.223855 -1.3683e-20)
(1.01524 0.00366306 0)
(1.01135 -0.00043433 -3.74141e-21)
(1.01442 0.000977796 1.41323e-21)
(1.01453 -0.000919841 1.10592e-21)
(1.03076 0.0039398 -6.92118e-21)
(1.02818 0.00491269 -5.42058e-21)
(1.02714 0.00303387 4.44251e-21)
(1.01484 -0.000899113 1.35729e-21)
(1.03857 -0.0931259 0)
(1.031 0.0224864 1.97148e-20)
(1.03254 0.00959245 0)
(1.01673 -0.000714081 1.18164e-22)
(0.722827 0.137796 6.42914e-21)
(1.01003 0.00024945 -2.62389e-21)
(0.90784 0.251384 2.19723e-21)
(1.01224 0.00988055 0)
(1.01177 -0.000564403 -2.01589e-21)
(1.0289 0.00509161 9.74351e-21)
(0.847935 -0.204988 1.61113e-22)
(1.02774 -0.000158442 0)
(0.955537 0.248295 -1.67811e-20)
(0.97701 -0.0285212 0)
(0.578073 0.386748 0)
(1.01384 0.000933018 3.27868e-24)
(0.9345 0.159652 2.56298e-20)
(0.935548 0.0425663 -2.05051e-21)
(0.903534 -0.0871564 -3.82068e-21)
(1.01281 -0.000433307 -9.69358e-22)
(0.917622 0.212926 -1.45213e-20)
(1.01903 0.0037409 1.02963e-21)
(0.95253 -0.205337 -2.67605e-21)
(1.00425 0.0227806 0)
(1.02597 0.00364862 -3.7487e-23)
(1.01344 0.00398296 -1.20031e-21)
(1.0388 0.0538279 1.33482e-20)
(1.01314 -0.000486679 -1.33357e-21)
(0.894886 -0.10141 0)
(0.909267 -0.0637465 0)
(1.01766 0.000348487 4.54511e-22)
(1.02957 -0.0373581 1.04466e-21)
(1.01331 -0.000428365 0)
(0.847416 0.144209 -1.87331e-21)
(1.01668 0.000880828 6.52539e-23)
(0.931616 0.146437 -1.88721e-20)
(0.919228 0.280647 0)
(0.975126 -0.00950971 -3.27164e-21)
(0.896269 0.285547 1.31356e-20)
(1.03172 -0.0373259 -1.73392e-21)
(1.01756 0.00170826 0)
(0.931804 0.0511047 -8.10424e-22)
(1.02428 0.0120394 -4.01826e-22)
(1.02157 0.0293137 8.63264e-22)
(1.06588 -0.0143089 2.75674e-22)
(1.02778 0.00680747 -2.38079e-21)
(1.01146 -0.000457172 -6.34328e-24)
(1.01864 0.00217617 0)
(1.02924 0.0211678 -2.02848e-20)
(1.00824 0.000241835 -1.29612e-21)
(1.01506 0.00360884 -1.87892e-22)
(0.859863 0.0875862 8.92457e-21)
(1.01488 0.0259114 -9.75409e-22)
(0.298584 0.347518 1.56875e-19)
(1.03267 -0.00173239 -4.51578e-21)
(0.927284 -0.225644 4.92134e-21)
(0.807702 0.0939687 -4.92634e-23)
(0.813265 -0.0501594 0)
(1.01714 -0.00112029 1.7223e-22)
(1.02938 -0.0139058 2.64633e-22)
(0.781036 -0.248571 -8.11916e-21)
(1.01315 0.000600956 -4.75624e-22)
(0.823478 -0.0585671 1.00729e-21)
(1.03342 -0.000924239 3.43532e-21)
(1.03097 0.00457072 5.80918e-21)
(1.01247 0.00040718 0)
(1.03037 0.00809762 -9.866e-21)
(1.01186 -0.000573495 4.20031e-21)
(1.04704 -0.109773 -1.1472e-22)
(0.755317 -0.245596 0)
(1.02642 0.0133645 -4.17493e-22)
(1.0146 0.0240731 5.1097e-22)
(1.00915 0.000202153 2.09555e-21)
(1.02374 0.0154816 0)
(0.121151 0.298305 3.33461e-20)
(1.0162 0.00112879 3.99922e-22)
(0.994162 0.0457053 0)
(1.01135 -0.00026509 0)
(1.01485 0.00131653 1.22279e-22)
(1.01427 -0.000927526 -3.11822e-21)
(1.00967 0.0223656 0)
(0.760135 -0.243589 -3.35777e-21)
(0.989761 0.0409195 2.57955e-21)
(1.05265 -0.0989238 1.17717e-22)
(1.0048 -9.80226e-05 -1.35653e-21)
(1.01885 0.00260927 -3.89675e-23)
(1.02158 0.000628343 0)
(0.697909 0.078674 6.96021e-21)
(1.01107 0.00259147 -2.14717e-21)
(0.843049 0.0825562 3.94717e-21)
(1.02284 0.0146367 9.4184e-23)
(0.999484 0.0216136 0)
(1.0335 0.00289548 0)
(1.01564 0.00309766 -6.29774e-23)
(1.00472 -2.18046e-05 1.62781e-21)
(0.850376 -0.196532 -1.91384e-21)
(1.01252 -0.00116419 -3.37512e-21)
(0.819549 0.0557206 0)
(0.973148 0.249303 0)
(1.03294 0.00255062 -2.3422e-21)
(1.01481 0.00010185 2.37606e-21)
(0.732857 0.367995 0)
(1.05218 -0.0400258 -2.27017e-21)
(1.01484 -0.00137944 -2.33747e-22)
(1.05653 0.0138861 -1.32442e-21)
(1.00904 -9.16553e-05 2.29588e-21)
(1.01471 0.00513076 4.64808e-21)
(1.03986 -0.0231264 0)
(1.01375 0.000202713 0)
(0.81022 0.0540891 0)
(0.981283 0.0433804 -2.72989e-21)
(1.01126 -0.00152732 -1.36868e-21)
(1.0896 0.121408 2.79567e-21)
(1.01848 0.028794 -8.275e-22)
(1.02169 0.000469957 0)
(1.01318 -0.000428677 0)
(1.03076 0.00426371 -1.21431e-20)
(0.893906 -0.0739967 1.38054e-21)
(1.01679 -0.000698499 0)
(0.825642 0.110847 1.42114e-22)
(1.04529 -0.0422496 1.27795e-21)
(0.76735 -0.238517 -9.10001e-22)
(1.01056 0.00292674 1.00777e-21)
(1.0323 -0.0145003 2.1278e-23)
(1.08685 0.135489 -4.63471e-21)
(0.809674 0.083758 1.77594e-21)
(1.01681 0.000145509 -1.55622e-21)
(1.01381 0.00304318 -1.45111e-22)
(1.02063 0.00579236 0)
(1.01098 -0.00112695 0)
(1.04298 -0.0199892 0)
(1.05459 0.0212983 -1.2849e-21)
(1.01415 -0.000888602 4.42171e-21)
(1.04454 -0.0816928 1.28719e-21)
(0.917242 -0.20119 6.22083e-21)
(1.01504 -0.000945841 3.12253e-21)
(1.00751 -0.000156 2.01889e-21)
(0.822733 0.0796054 -3.95156e-21)
(1.0001 0.0178015 -1.37622e-21)
(0.942302 -0.0855579 8.9556e-22)
(1.01121 -0.119744 2.41481e-21)
(1.01665 0.000240095 0)
(1.0077 -0.0192787 2.70989e-21)
(1.0147 0.000774164 -7.88226e-22)
(1.0177 0.0268414 1.867e-21)
(1.01716 0.00409195 -5.37082e-21)
(1.01865 0.00428923 0)
(1.02357 0.00395064 1.84273e-21)
(1.0492 -0.0150038 -5.19318e-22)
(1.00908 -3.97654e-05 0)
(0.940671 -0.206586 7.25789e-21)
(1.05781 0.0101009 -2.37506e-22)
(0.395996 0.162083 -1.70613e-20)
(0.953601 -0.0792458 1.45828e-21)
(1.01198 -0.000521866 -2.14304e-21)
(0.952944 -0.268109 -1.58692e-20)
(0.951561 0.0269962 -1.34437e-21)
(1.00874 0.00419131 -5.39079e-21)
(1.01717 -0.00125702 -2.07174e-22)
(0.997653 -0.0133448 -2.72884e-21)
(1.01162 0.000355128 -6.26626e-24)
(1.01148 -0.00050512 1.89893e-21)
(1.01174 0.00251225 -2.59243e-22)
(1.01383 0.000667909 -4.37444e-23)
(1.03493 -0.00482881 1.21619e-21)
(0.431438 0.356711 -3.09262e-21)
(1.03039 0.00135605 0)
(0.969052 0.0231314 0)
(1.03561 -0.00194479 -1.21703e-21)
(1.01771 -0.00638225 -2.40273e-21)
(0.817892 -0.226477 -2.26685e-22)
(1.00567 -0.0221099 -1.95829e-21)
(1.02518 0.0116388 -5.21796e-22)
(1.00361 9.95123e-05 1.14207e-21)
(0.895849 0.192602 -5.71634e-23)
(1.00431 -1.89643e-06 1.70889e-21)
(1.02521 0.00541909 0)
(1.01822 0.000373627 0)
(1.03034 0.00357089 -6.29235e-21)
(0.874385 -0.168291 0)
(0.961703 -0.252659 -7.37409e-21)
(1.03077 0.00371967 0)
(1.01417 0.000888981 -1.58441e-23)
(1.0333 0.00213414 1.1417e-21)
(1.03329 -0.00041176 0)
(0.847199 -0.224724 5.57845e-22)
(1.01677 -0.000814978 0)
(1.0075 0.000191819 -1.67286e-22)
(1.01101 0.00297119 1.06646e-21)
(1.01226 -0.000252562 0)
(1.04153 -0.0999778 7.65339e-22)
(1.01082 0.0044812 4.86085e-21)
(1.00407 0.024653 0)
(0.77893 -0.00200132 1.31182e-21)
(0.791554 -0.23581 -1.61607e-20)
(1.04311 -0.0918565 0)
(1.02386 0.00487803 0)
(0.781291 0.036558 -1.87034e-21)
(1.06894 -0.00907091 -2.72311e-22)
(1.01475 0.000895104 2.62856e-21)
(0.996799 0.0463451 8.23512e-21)
(1.01518 -0.000940838 -1.52643e-21)
(1.01337 0.000580872 0)
(1.01505 -0.000949874 1.47767e-21)
(1.01905 -0.00114469 0)
(1.0146 -0.001354 0)
(1.02152 0.0148111 7.86007e-23)
(0.351342 0.368391 -1.74009e-21)
(1.0301 0.00159759 7.6831e-21)
(1.01854 -0.0235883 0)
(0.991146 -0.224259 1.36983e-20)
(0.746074 -0.240727 -2.43412e-21)
(1.01869 0.00174602 0)
(0.823882 0.0670365 -7.75225e-21)
(1.01758 0.000108005 1.65387e-21)
(1.03029 0.0562376 7.47532e-21)
(1.01517 0.00122251 4.14407e-23)
(0.854102 0.329775 5.08255e-20)
(1.00991 0.00265536 -2.43439e-21)
(0.808534 -0.227462 -2.41295e-21)
(0.10116 0.33124 -2.54494e-20)
(1.01735 -0.00687339 2.57438e-21)
(0.959779 0.0204339 2.40425e-22)
(1.01794 -0.0100336 -1.228e-21)
(0.817123 0.0679939 8.1121e-23)
(1.02081 0.0138727 1.16789e-22)
(1.01768 0.22048 9.87926e-21)
(1.0278 -0.00292626 2.67659e-21)
(0.809555 -0.00725557 -4.77213e-21)
(1.02955 0.00152982 8.53446e-22)
(0.839669 -0.0599193 3.18989e-22)
(1.0133 -0.0064499 1.7432e-21)
(1.03439 -0.00761913 8.17683e-22)
(0.842584 -0.218924 2.83063e-22)
(1.01388 -0.00106333 1.98648e-21)
(1.01311 -0.00534646 3.60158e-21)
(1.00984 -7.80412e-05 -5.18029e-22)
(0.999478 -0.195052 1.71063e-20)
(1.01158 -0.000523297 -1.99992e-21)
(1.01487 -0.000911149 0)
(0.949987 0.0433432 2.39019e-21)
(1.0038 -0.0033992 -9.05121e-22)
(1.07316 0.00250642 5.5444e-22)
(1.03858 0.213225 2.47722e-20)
(1.01605 0.00113129 -1.18462e-21)
(1.00861 0.00810818 -4.05522e-21)
(1.00495 -0.00419499 -9.70403e-22)
(1.01452 -0.00100313 2.14034e-21)
(1.02839 -0.00424755 2.08112e-21)
(0.901799 0.151899 -1.33485e-20)
(1.01696 -0.0091618 1.31038e-21)
(1.03007 0.00346227 0)
(0.497528 -0.139872 -2.57466e-21)
(1.00429 0.0291013 2.6899e-21)
(1.00781 -0.000106828 1.85085e-21)
(0.249536 0.357092 -2.99414e-21)
(1.01221 -0.000812928 1.91574e-21)
(1.04121 -0.0149762 0)
(1.00728 0.0465733 0)
(0.792202 0.108171 -4.76826e-21)
(0.796412 0.0416294 -9.0577e-21)
(1.03233 -0.1194 0)
(0.853194 -0.0633477 0)
(0.843013 -0.0151539 1.01348e-20)
(0.819042 0.0206816 8.11563e-21)
(1.01501 -0.000988558 -3.32299e-22)
(0.996773 0.0142899 4.32996e-21)
(1.0505 0.138783 0)
(1.04095 0.133833 0)
(0.999293 0.0430399 -7.69364e-21)
(1.01719 0.00140296 4.98129e-22)
(1.01183 0.00282408 2.14539e-21)
(0.977226 0.0243956 -3.56875e-21)
(0.290566 0.376641 1.33701e-20)
(1.01492 -0.000928354 3.69481e-22)
(1.02272 -0.00642817 1.11592e-22)
(1.01018 0.000335108 1.69277e-21)
(1.01838 0.00190824 0)
(1.01185 0.00266171 -2.31036e-21)
(1.01225 0.00349641 0)
(1.01875 -0.000631403 1.6942e-21)
(1.0088 0.000107487 0)
(1.05568 -0.000310948 2.42435e-22)
(1.034 0.00185958 -6.30838e-21)
(1.04364 -0.0122321 0)
(0.966159 -0.000173467 -3.18529e-21)
(0.825787 -0.0244282 -1.02644e-20)
(1.01445 -0.0029448 1.23155e-21)
(0.763172 0.288203 9.44662e-21)
(0.439903 -0.0712537 2.94044e-21)
(0.883283 0.178914 -2.79601e-21)
(1.00961 -4.37821e-05 0)
(1.0419 0.017882 0)
(1.0086 -0.000187568 -2.29711e-21)
(0.73867 -0.236405 0)
(1.02237 0.00115108 -2.73681e-21)
(0.985054 -0.0276037 1.49412e-21)
(1.02932 0.00175083 -8.39176e-22)
(0.932655 0.1777 -7.96025e-21)
(1.01095 -0.000219534 2.25853e-21)
(1.03107 0.00904109 5.52572e-21)
(1.02339 -0.00601432 -3.1788e-22)
(0.998137 0.0112189 -2.83876e-21)
(0.973373 0.24453 0)
(1.00922 -0.000127472 1.73317e-21)
(1.01249 0.00054917 0)
(1.01374 0.00351471 -3.48556e-23)
(0.95776 0.232167 -1.1684e-20)
(1.01138 -0.000300247 0)
(0.993345 -0.0197382 -2.76757e-21)
(0.975354 0.0561167 0)
(0.959399 0.0110745 5.93188e-22)
(1.01716 -0.00556732 0)
(0.988584 -0.0206305 1.36341e-21)
(0.818991 0.0536837 0)
(0.51084 -0.0445651 0)
(1.02516 0.00334903 2.62402e-21)
(1.01123 0.000333117 0)
(0.814455 0.017769 2.77006e-21)
(0.949133 0.223556 1.11535e-20)
(1.01792 -0.0253032 8.42108e-22)
(1.01474 -0.171731 0)
(1.01001 0.000302987 7.90131e-22)
(1.05133 -0.0516142 -1.64127e-22)
(1.05767 -0.001082 0)
(1.04592 -0.00582966 1.18304e-22)
(1.0331 0.000905511 0)
(0.955882 -0.215144 1.0911e-21)
(1.01654 -0.00533601 -1.17644e-21)
(1.01691 0.0013873 0)
(1.02698 0.00542276 0)
(0.833306 0.0880123 0)
(1.01693 0.00289768 -1.05808e-21)
(0.805542 0.0443178 -1.31432e-21)
(1.01821 0.00183507 0)
(1.02471 0.00263622 0)
(1.01356 -0.00284352 -4.02939e-21)
(1.03637 -0.00714879 2.02788e-21)
(0.998665 -0.179385 -9.11291e-22)
(1.02769 0.00632887 2.22377e-21)
(1.02995 0.0034877 -5.72244e-21)
(0.946491 -0.207654 5.30899e-23)
(0.972507 -0.022421 0)
(1.0647 0.0323406 1.30364e-22)
(1.02728 0.00612094 7.84918e-22)
(1.01374 0.000485186 -1.57448e-21)
(1.04821 -0.0602693 1.16675e-22)
(0.550738 -0.031436 0)
(1.02438 0.0049521 0)
(1.01512 -0.00193225 2.24105e-23)
(0.977107 0.0487934 1.69036e-21)
(1.02099 0.00649476 0)
(1.0224 0.00396397 1.65684e-21)
(1.0989 0.0748795 -1.43359e-22)
(1.01159 -0.0005753 2.13454e-21)
(0.774127 -0.250058 1.22632e-20)
(1.01432 0.00095747 0)
(1.06824 -0.0202518 0)
(1.00149 -0.00628093 1.54321e-21)
(0.891492 0.324398 -6.58858e-20)
(1.01715 0.00289932 5.34425e-22)
(1.03864 0.01947 1.2795e-20)
(1.01662 0.000753417 -5.35505e-22)
(1.01212 -0.000372668 0)
(0.953166 -0.19994 2.81319e-21)
(1.01746 -0.00136812 1.78417e-22)
(0.776561 -0.143624 -3.35604e-21)
(1.01412 -0.0249521 -1.16013e-21)
(1.01198 -0.00120258 1.1128e-21)
(1.01635 -0.0149438 2.67285e-21)
(0.372849 0.173727 1.36768e-20)
(0.869362 0.10514 -2.06894e-22)
(0.973324 0.00440123 3.19264e-21)
(1.00917 -4.85346e-05 0)
(1.01529 -0.00188311 3.2654e-21)
(1.01461 -0.000828263 1.50111e-21)
(1.01698 0.0031732 -2.10711e-21)
(0.997795 0.00525885 -2.86083e-23)
(1.0264 0.00544369 0)
(0.997648 0.158864 -4.10048e-21)
(1.021 0.00518782 1.86133e-21)
(1.01576 -0.00043303 -1.30609e-22)
(0.851724 -0.296516 1.77221e-21)
(1.0288 0.00709555 1.50389e-21)
(0.996115 0.00774545 3.01185e-21)
(1.00705 -0.000129958 -3.39762e-23)
(1.01286 0.00068789 1.17963e-21)
(0.839701 -0.290396 -6.1814e-22)
(0.8864 -0.154213 -4.13815e-22)
(1.00345 -0.00682253 -1.54145e-21)
(0.96553 -0.217816 -1.08731e-21)
(1.02103 0.000179154 1.40857e-21)
(1.0348 0.0205988 0)
(1.01576 -0.00290148 2.3078e-21)
(1.01204 -0.00126851 2.30027e-21)
(1.01337 0.00295513 1.602e-21)
(1.0137 0.00272446 7.40176e-22)
(1.02515 0.00470112 0)
(1.00936 0.000169911 1.73932e-21)
(0.819214 0.361207 0)
(1.0286 0.00190412 5.52963e-21)
(1.13189 0.00966637 8.16985e-22)
(1.01517 0.00262207 9.92007e-23)
(1.00762 -0.0104234 0)
(1.01412 -0.000958622 0)
(1.07121 0.0326775 1.07117e-22)
(0.824183 0.13808 0)
(1.01185 -0.001056 -5.58051e-24)
(1.0155 0.0028929 0)
(1.02166 -0.106369 -2.03422e-21)
(0.978384 -0.0156866 0)
(1.01395 -0.00103113 3.16851e-21)
(0.778452 -0.24926 1.23548e-20)
(1.01395 0.000766606 5.90472e-23)
(1.05473 0.00130148 -3.96076e-22)
(1.01119 -0.000330136 0)
(1.0147 0.000500233 -5.23852e-22)
(1.01198 -0.000357589 0)
(0.908533 0.206564 0)
(1.014 -0.000901093 0)
(1.01505 0.00446875 -6.43681e-23)
(1.01024 0.00458182 -1.32899e-21)
(0.775357 -0.254178 1.14777e-20)
(1.01057 -0.000145744 0)
(1.01347 0.00265329 -1.56677e-21)
(1.00914 8.19901e-05 9.7408e-22)
(0.998399 0.0894021 -9.67598e-22)
(1.01879 0.00188866 0)
(1.01637 0.00416183 1.05543e-22)
(1.0115 -0.000313353 1.88069e-21)
(1.01658 0.00426382 2.6216e-22)
(1.0328 0.000252436 0)
(1.01541 0.00389096 5.09182e-23)
(1.00911 -0.0101004 0)
(1.01599 -0.00306904 0)
(0.0740297 0.307595 -4.01634e-20)
(0.997827 0.197513 -1.24862e-21)
(0.948987 0.22803 0)
(1.01956 0.0138368 1.72827e-22)
(1.04005 0.0105494 1.24919e-20)
(1.01659 0.000891445 -7.50804e-23)
(1.0714 0.0853723 -2.27653e-21)
(1.018 -0.000119209 -3.46895e-21)
(0.914 -0.218763 1.04078e-21)
(0.944934 -0.116348 -4.6401e-23)
(0.939765 0.215514 0)
(1.0546 0.00852429 1.62853e-21)
(0.833972 -0.0864591 -2.4166e-21)
(1.02076 0.000186537 -1.48554e-21)
(1.02384 0.0042641 1.8737e-21)
(0.88736 -0.050847 4.39702e-20)
(0.995986 0.082431 3.90762e-22)
(1.01131 -0.0198526 2.54776e-21)
(0.991241 0.0971693 0)
(1.02729 0.00224207 -4.78705e-21)
(0.895958 -0.123489 0)
(1.01437 0.00128476 -1.48882e-21)
(1.0253 0.00386912 -2.38253e-21)
(1.01476 -0.00319864 -2.48026e-21)
(1.01127 -0.00029825 0)
(1.0127 0.000432623 0)
(0.875937 -0.00312259 -2.85371e-20)
(1.0325 0.00274581 2.64541e-21)
(1.01088 -0.000141218 0)
(0.435452 0.361097 -2.14058e-20)
(1.01975 0.00482839 1.86097e-22)
(1.08008 0.07989 0)
(1.02639 -0.00926319 1.70221e-22)
(1.03319 0.00170577 1.16144e-21)
(0.994229 -0.014065 2.92556e-21)
(1.01051 0.000310014 0)
(0.932432 -0.197113 0)
(1.01675 -0.000104228 0)
(1.01401 0.00293025 -6.10272e-22)
(1.11764 0.00261691 4.66642e-24)
(1.025 0.00287546 -2.9434e-21)
(1.01626 -0.000513157 2.56021e-24)
(1.00788 5.50377e-05 7.935e-22)
(1.01507 0.00120337 -1.61294e-21)
(1.01332 0.0011531 0)
(1.07941 0.119016 -1.86765e-21)
(1.11058 0.0764541 0)
(0.992166 0.183754 -1.80768e-22)
(1.02672 0.000111318 8.43971e-21)
(1.01612 0.00188929 0)
(1.01473 0.00120101 -3.74075e-23)
(0.881084 -0.134462 -1.45258e-22)
(1.03279 0.0114474 0)
(1.01336 0.000392598 1.88115e-21)
(1.0129 -0.000396204 -1.27704e-21)
(1.01221 0.00243989 -1.85414e-21)
(0.835383 -0.115874 3.4821e-21)
(0.582376 0.143738 -3.04834e-21)
(1.03683 -0.0312714 -2.85929e-22)
(1.02427 0.0131612 0)
(1.01341 -4.42837e-05 -1.47315e-21)
(-0.0260536 0.259308 -5.74887e-20)
(1.03725 0.0209376 -1.72681e-20)
(1.03711 -0.00738012 0)
(1.07171 0.0175192 7.22956e-23)
(0.91286 -0.19027 -7.06546e-22)
(0.753483 -0.239317 -1.33721e-21)
(0.849638 -0.13427 0)
(1.01436 0.00132946 -1.49817e-21)
(1.00907 5.48697e-05 1.17695e-23)
(1.0169 -0.000457447 -3.05242e-22)
(0.823455 -0.0223361 -1.20683e-21)
(1.01414 0.0013251 1.46848e-21)
(1.04048 0.0132624 1.68949e-20)
(1.02004 0.000901777 2.41682e-21)
(1.01755 -0.00152289 2.14437e-24)
(1.00069 -0.0156758 0)
(1.02424 0.00231388 2.20467e-23)
(0.87615 0.19815 1.4288e-20)
(0.948686 0.265249 -4.06017e-21)
(1.01509 -0.00128283 -1.79675e-21)
(1.01625 0.00285216 0)
(1.0149 -0.000892128 1.28094e-21)
(1.0318 -0.115203 3.22186e-23)
(1.01129 -0.000331685 2.0902e-21)
(1.00793 0.187082 -1.77403e-21)
(1.03109 0.00318539 -2.32483e-21)
(0.683012 0.138922 -3.10359e-22)
(1.0158 0.0015371 1.86049e-21)
(1.01313 -0.00203626 -1.23894e-21)
(1.01181 -0.00103059 -1.29912e-21)
(1.01688 0.00148977 0)
(1.02309 0.00387397 -3.75697e-21)
(1.02069 -0.00347718 -1.0942e-23)
(1.02249 0.000988896 0)
(1.02933 0.00226874 -5.56622e-21)
(1.01415 -0.0240292 0)
(1.03195 0.00863092 -1.71464e-21)
(0.991431 0.205999 5.92045e-22)
(1.0201 -0.000186699 -4.98957e-22)
(1.00275 0.0748224 0)
(0.889657 -0.211907 0)
(1.017 -7.85961e-05 -3.23236e-21)
(0.302632 0.273981 0)
(1.01463 0.00237277 0)
(1.01255 0.00572922 -1.21009e-21)
(1.00938 0.00425986 5.17531e-21)
(1.00883 -0.000159169 1.49089e-22)
(0.962905 -0.227487 1.01085e-20)
(1.01974 0.000493448 0)
(1.01904 0.0129025 1.89523e-22)
(1.01378 -0.00313348 1.31092e-21)
(0.8428 -0.191066 2.20984e-21)
(1.01316 -0.0017915 0)
(0.832306 -0.0322426 4.08459e-23)
(1.01323 -0.0152293 -1.11648e-22)
(1.01617 0.00163363 0)
(1.12323 -0.0578578 0)
(0.822829 0.0105469 0)
(1.02724 -0.00788973 -5.04894e-23)
(1.01263 -0.00050514 4.58554e-23)
(0.98529 0.090735 -2.3274e-20)
(1.00451 0.0001061 1.74821e-22)
(0.754324 -0.0519257 8.84604e-21)
(1.019 -0.0201877 0)
(1.02985 0.045577 -2.04901e-21)
(1.00143 -0.0206471 -6.68374e-22)
(1.02619 0.000178846 -1.11817e-21)
(1.02561 0.0033379 1.86272e-22)
(1.0123 0.00230487 1.05643e-21)
(1.05328 0.015722 -8.93482e-24)
(1.00639 0.00202024 2.55327e-21)
(0.980349 -0.0884707 -4.39979e-22)
(0.856442 -0.0884695 -6.02758e-22)
(1.0179 -0.0016407 -2.00252e-22)
(1.01541 0.00348842 0)
(1.01821 -3.17673e-05 2.69438e-21)
(1.00288 0.0450286 0)
(1.00475 9.09665e-05 0)
(1.01588 0.138258 0)
(1.02871 0.000492952 8.21656e-22)
(1.02468 0.00535536 0)
(0.933477 -0.118126 2.59378e-22)
(1.01544 0.0013137 -1.8735e-21)
(0.98839 0.0818116 1.70045e-20)
(1.04633 -0.00872867 -1.18083e-22)
(1.01402 0.00017129 -2.4986e-21)
(0.864217 -0.0801798 0)
(1.02834 0.00339292 -1.72801e-23)
(1.01584 0.00362894 0)
(1.02439 0.00589161 8.57365e-22)
(1.06564 -0.00453834 1.70645e-22)
(1.01049 0.00336402 1.74725e-23)
(0.756011 -0.242046 1.5277e-21)
(1.02886 0.00221014 6.43509e-21)
(1.06698 0.00124446 -6.25669e-22)
(1.04159 0.0145087 0)
(0.935414 0.164997 0)
(1.02284 0.00583782 -1.1201e-21)
(1.04308 -0.00462787 0)
(1.01094 -0.0156725 0)
(1.02954 0.00254578 0)
(1.01713 -0.0144416 0)
(1.01228 -0.000939108 0)
(1.05987 -0.00461797 1.51607e-22)
(1.01442 0.00504211 2.22066e-21)
(1.02953 0.000864002 6.76289e-21)
(1.01276 -0.00228402 -2.50643e-21)
(1.01593 0.000850952 -4.34331e-22)
(1.03145 0.0046064 0)
(1.02245 -0.0318694 0)
(1.01031 0.000278373 -1.11974e-21)
(1.02703 0.00128735 4.66295e-21)
(1.04478 -0.0996154 0)
(1.01229 -0.000733683 -1.99949e-21)
(1.0158 0.00134417 0)
(1.01544 0.00254057 0)
(1.01498 -0.000958429 -1.05619e-21)
(1.03464 -0.0364539 1.79824e-21)
(1.01547 -0.0127116 1.07254e-21)
(1.02455 0.0180271 2.29114e-22)
(1.04143 0.00978306 -2.05629e-21)
(1.04472 -0.0849171 0)
(1.02284 0.00408218 -1.71329e-21)
(1.0122 0.0229348 6.5507e-22)
(0.75505 -0.0116832 3.41605e-21)
(1.01206 0.00221684 1.86987e-21)
(1.0173 0.00459503 1.05391e-21)
(1.01498 -0.00095595 -1.35406e-21)
(0.985296 -0.198456 4.16813e-21)
(0.91084 -0.209867 1.66378e-21)
(1.02917 0.00618978 -6.0713e-21)
(1.01251 0.000488302 0)
(1.03609 -0.0370734 -3.3321e-21)
(0.626248 -0.0413173 0)
(0.508186 0.335028 1.86828e-21)
(1.02724 0.00269508 8.60826e-22)
(0.96938 -0.193644 -3.57621e-21)
(0.865884 -0.0416756 1.09404e-20)
(0.963742 0.229575 0)
(1.02721 0.00482017 -2.19358e-21)
(1.02094 -0.00394408 -1.19718e-23)
(1.01457 0.00416371 7.26592e-23)
(1.00536 0.154232 0)
(1.08523 0.0622468 0)
(1.02881 0.00169456 0)
(0.663171 0.311493 -9.91728e-21)
(1.04243 0.0485233 0)
(0.878378 -0.0770293 -1.48844e-21)
(0.970893 -0.227585 -1.69886e-20)
(1.01205 0.0061636 3.60454e-21)
(1.011 0.0437611 -1.34073e-21)
(0.769746 -0.0751498 3.31501e-21)
(0.946544 0.0296449 -3.74384e-21)
(0.76801 -0.248786 -4.24926e-21)
(1.05412 0.0135105 0)
(0.716723 0.347786 -1.86771e-20)
(1.02338 0.0169076 0)
(0.857277 -0.159982 0)
(1.02484 0.00309444 -2.68094e-21)
(1.03733 0.00929796 2.12149e-21)
(1.01038 0.000249268 -8.80323e-22)
(1.00895 -0.0321118 -5.15541e-21)
(1.01658 -0.000731365 -3.68883e-22)
(1.0258 0.00388873 2.20321e-21)
(1.01594 0.00299577 0)
(0.851621 -0.168495 -1.82186e-21)
(1.01903 0.00170424 -5.9153e-22)
(1.01803 -0.00183656 0)
(0.861768 -0.279084 -1.01416e-21)
(1.02365 0.00278809 2.57157e-21)
(1.02527 0.0105069 -3.49986e-21)
(1.02894 0.00191459 0)
(0.988264 -0.0795268 -7.45584e-22)
(1.01299 -0.000267092 -1.09968e-22)
(1.03014 0.00356042 0)
(1.01704 0.0100445 2.00791e-22)
(1.01913 0.00512631 -2.63348e-22)
(1.01973 0.00449095 8.43306e-22)
(1.04068 0.0163083 -2.00858e-21)
(1.01346 0.00120977 0)
(0.690553 -0.30017 -6.26453e-21)
(1.03705 0.0507872 1.63894e-21)
(0.981174 0.0606981 1.6852e-23)
(1.01961 0.00157301 -6.13908e-22)
(1.00312 0.172737 2.26668e-21)
(1.01316 0.00109079 -8.62118e-23)
(0.981966 0.0754405 5.53158e-21)
(1.0149 -0.129337 2.64385e-22)
(1.00399 0.00143721 8.99345e-23)
(1.02017 0.00507899 1.62188e-21)
(1.0149 -0.00096016 8.42179e-22)
(1.01848 0.0056405 2.6111e-22)
(1.0178 0.000311998 -6.46184e-22)
(0.867366 0.124191 4.63051e-22)
(1.05951 0.0474413 -1.65822e-22)
(1.015 0.00114345 1.60148e-21)
(0.934037 0.14994 1.27274e-22)
(1.01082 -0.000227129 4.55941e-21)
(1.01551 0.000737328 8.966e-23)
(0.936615 -0.219757 -1.71184e-20)
(1.01477 -0.000710765 -1.46163e-21)
(1.01831 0.000465388 -6.61503e-22)
(0.920075 0.142917 4.73423e-22)
(1.01359 0.000961828 0)
(1.02117 0.10593 5.00661e-23)
(1.03121 0.00432117 -8.99136e-21)
(1.09649 0.0225026 2.63113e-22)
(1.02695 0.0142423 -6.13554e-21)
(1.05382 0.0455938 3.27187e-22)
(1.01568 -0.0172799 0)
(1.0211 0.00566435 -3.04103e-23)
(-0.020075 0.22501 -5.79811e-21)
(-0.0389322 0.231859 0)
(1.01529 0.00282133 0)
(1.05866 0.00260145 0)
(0.862944 0.180777 -9.16817e-21)
(0.642792 -0.250883 0)
(0.778564 -0.113113 0)
(1.00886 -2.46352e-05 -1.72964e-21)
(1.01304 -0.000933534 1.46954e-21)
(1.01141 -0.0186068 7.87738e-23)
(1.02547 0.00507919 0)
(1.0252 0.00438096 2.21403e-21)
(0.926141 -0.0774952 0)
(1.03871 0.0105996 0)
(1.0147 -0.000863434 -1.80632e-22)
(1.02737 0.0364246 -4.57357e-21)
(0.881083 0.161617 8.11473e-22)
(0.892545 -0.216302 -4.49593e-21)
(1.01457 -0.000841882 6.84657e-22)
(1.01491 -0.000850159 -1.49628e-21)
(1.01019 -0.000120423 8.72787e-22)
(1.02759 0.00247457 5.45208e-21)
(0.963627 -0.00568796 2.28915e-20)
(1.03875 0.150168 0)
(1.01341 -0.00386185 1.31306e-21)
(1.03636 0.0142825 1.23145e-20)
(0.985451 0.100822 9.04912e-23)
(1.01207 0.00286606 8.63771e-22)
(1.0141 0.000416613 -2.53373e-23)
(0.640771 0.263293 0)
(1.03515 0.01201 -2.24455e-22)
(0.946539 -0.0462594 1.15405e-21)
(1.02117 0.00500573 -2.33933e-23)
(1.00979 0.000177979 -2.20474e-21)
(1.02688 0.000717575 -1.23285e-21)
(1.01618 -0.0116081 -1.45872e-21)
(1.07833 0.0687977 -7.21788e-22)
(0.952014 0.0224447 0)
(1.01276 0.00235233 8.71699e-22)
(0.974956 0.210653 -5.0336e-21)
(0.85581 0.162567 2.07216e-21)
(0.984048 0.154879 3.70424e-22)
(1.02993 0.00602202 1.82202e-22)
(1.03426 0.0112371 -7.58909e-23)
(0.682842 0.266378 0)
(1.02362 0.0425735 0)
(0.96905 -0.222181 -7.41997e-21)
(1.0396 0.0338492 6.51528e-21)
(1.02358 0.00450166 1.72573e-21)
(1.01529 0.000439653 0)
(0.96021 0.160488 -1.45328e-21)
(0.850537 0.0958311 2.2773e-22)
(1.01212 -0.00414014 -1.5941e-21)
(1.03575 0.0129162 -1.1944e-20)
(1.01994 0.0495685 -7.29716e-21)
(1.01425 0.00559202 -2.28973e-21)
(0.993622 0.0593745 -1.83949e-21)
(1.01133 -0.00394975 9.96517e-22)
(1.01661 0.00437566 -2.04802e-21)
(1.00864 -0.000151766 4.38991e-24)