/*--------------------------------*- C++ -*----------------------------------*\
| =========                 |                                                 |
| \\      /  F ield         | OpenFOAM: The Open Source CFD Toolbox           |
|  \\    /   O peration     | Version:  v2012                                 |
|   \\  /    A nd           | Website:  www.openfoam.com                      |
|    \\/     M anipulation  |                                                 |
\*---------------------------------------------------------------------------*/
FoamFile
{
    version     2.0;
    format      ascii;
    class       volScalarField;
    location    "650";
    object      k_0;
}
// * * * * * * * * * * * * * * * * * * * * * * * * * * * * * * * * * * * * * //

dimensions      [0 2 -2 0 0 0 0];


internalField   nonuniform List<scalar> 
10042
(
0.000450904
0.00375544
0.00037897
0.000141334
0.00014105
0.0045504
0.0103904
0.0165667
0.000134495
0.000189824
0.00371918
0.0035883
0.000163608
0.000140953
0.000143943
0.000140911
0.00489175
0.00133514
0.000149788
0.000162962
0.000163491
0.00040367
0.000141225
0.00539513
0.000140259
0.000159406
0.000186044
0.000133683
0.0050095
0.0070165
0.000153772
0.000170252
0.000134239
0.000134158
0.0152778
0.00893547
0.000148112
0.000135041
0.000146831
0.000134925
0.00676094
0.000134367
0.000255725
0.0147722
0.000140806
0.000140227
0.000132237
0.000143837
0.000177329
0.0113672
0.000268179
0.000140291
0.0047488
0.000149289
0.0227824
0.00166775
0.000161818
0.00016256
0.00014379
0.000130248
0.000174462
0.0236307
0.000236051
0.0191805
0.00017593
0.000142703
0.000160847
0.00148469
0.000132048
0.00115641
0.000292702
0.000148222
0.000136162
0.000143689
0.000142303
0.000275538
0.000185911
0.000132209
0.000185355
0.000149905
0.0158688
0.00597112
0.000165117
0.000139668
0.000194763
0.000390831
0.000159618
0.000306098
0.000139359
0.000188916
0.000156281
0.000144029
0.000235838
0.000522945
4.15311e-05
0.000142409
0.0024347
0.000161403
0.00843546
0.000143615
0.000155582
0.000186331
0.000144604
0.000164877
0.000151365
0.000143586
0.0202871
0.000141899
0.0121568
0.00014378
0.000143528
0.00903685
0.000227808
0.0185598
0.000192151
0.000131978
0.00015226
0.00015225
0.000238763
0.000131768
0.000130227
0.00264693
0.0023527
0.00014087
0.000189835
0.000139822
0.000140031
0.0239816
0.000228921
0.000152419
0.000134961
0.000140993
0.000141373
0.000141484
0.00878124
0.00188733
0.000162714
0.0229476
0.000147024
0.00410609
0.000201998
0.000137075
0.0213701
0.000133707
0.000153088
0.00013505
0.000183151
0.000131939
0.000148524
0.00863305
0.000141428
0.000143085
0.000147837
0.000168419
0.000106631
0.000153491
0.000224961
0.00147251
0.000141513
0.000164384
0.000148934
0.000135953
0.0046343
0.000139544
0.000146023
0.00936742
0.000136072
0.000166319
0.010581
0.000133903
0.000460138
0.00721552
0.00203701
0.000134004
0.000149219
0.00225453
0.000140566
0.000134975
0.000140697
0.000132054
0.00014675
0.000151489
0.000143709
0.000131707
0.000269921
0.000156677
0.000148085
0.000130736
0.00220598
0.000143645
0.004595
0.000161762
0.000135056
0.000151027
0.0239567
0.000144028
0.00028105
0.000965266
0.000458674
0.00013979
0.000243539
0.000216588
0.00407422
0.000135805
0.00835795
0.000140857
0.00482073
0.000167752
0.000143415
0.000141687
0.000168482
0.000134831
0.00782982
0.00107107
0.000148828
0.000980441
0.000135527
0.00810864
0.00014286
0.000244346
0.000323732
0.000321511
0.000331439
0.000880923
0.000141297
0.00021773
0.000146583
0.00016064
0.000168385
0.000144755
0.000134984
0.000140386
0.000156834
0.000157662
0.000140526
0.0135196
0.00015804
0.00121495
0.000152057
0.00575839
0.0187316
0.0077914
0.000130157
0.0001371
0.0410159
0.000141622
0.00795358
0.000151494
0.000148044
0.000144486
0.000150757
0.000135162
0.000379388
0.0308227
0.000148039
0.000156769
0.000146832
0.000149132
0.0023372
0.00014118
0.000210022
0.000135365
0.000140192
0.000132341
0.000165026
0.0347224
0.000217359
0.000311457
0.000161605
0.000140504
0.000142999
0.0109966
0.00013903
0.00031338
0.000148488
0.000254436
0.00014647
0.000140514
0.000162643
0.0227083
0.000133687
0.0122298
0.000276594
0.000146178
0.000156673
0.000434474
0.000157407
0.000132739
0.000297159
0.000146547
0.000160306
0.000153977
0.000159329
0.00957414
0.000228206
0.000140948
0.0158133
0.000160219
0.000143069
0.000136082
0.000147545
0.00475323
0.00013077
0.0133322
0.000156635
0.0170336
0.00014002
0.000138515
0.0169805
0.0114031
0.000152267
0.000140982
0.000142279
0.000140811
0.000154318
0.000263129
0.000132372
0.000219909
0.007497
0.00013187
0.000162496
0.000381122
0.000332551
0.0085792
0.000447438
0.000151201
0.000199605
0.000140496
0.000158506
0.000158923
0.000140775
0.000142777
0.000428566
0.000143918
0.00544771
0.000352441
0.0220126
0.00850251
0.000135272
0.00726016
0.000201444
0.000163443
0.000130182
0.000181715
0.000152806
0.000134914
0.0001382
0.000142085
0.000150322
0.00159179
0.000144774
0.000135927
0.00015055
0.000145822
0.0222452
0.000197451
0.000146574
0.000164585
0.000279812
0.000172759
0.000143373
0.000148941
0.000145955
0.00781693
0.00767086
0.000146332
0.000140494
0.000149331
0.000149368
0.0326254
0.000130379
0.000164888
0.000139366
0.000157546
0.000191392
0.000140877
0.000302923
0.0262336
0.0378149
0.000175465
0.000142921
0.0246768
0.000174613
0.000140315
0.000176809
0.000131874
0.000143446
0.000131724
0.00014148
0.000132731
0.000148531
0.000307421
0.00014466
0.000218884
0.00567824
0.0256081
0.000141764
0.0174363
0.000148438
0.000170626
0.000140391
0.000383005
0.000135646
0.0226899
0.00129497
0.000147004
0.000195558
0.000168187
0.015929
0.000147725
0.00273451
0.000154711
0.00845067
0.000144472
0.012461
0.00014585
0.000155704
0.0255815
0.000132712
0.000145335
0.000141695
0.00594762
0.000134946
0.000131595
0.000206055
0.000150766
0.000183533
0.0023404
0.000141054
0.00016361
0.000150259
0.000132218
0.00015479
0.00896107
0.000162617
0.000145597
0.00669315
0.000212798
0.000162913
0.000847659
0.000133841
0.000154004
0.000183479
1.61166e-05
0.00286388
0.000729596
0.0108522
0.00247087
0.0188816
0.000131475
0.000185643
0.0150962
0.0144827
0.000174963
0.000141224
0.000138402
0.000126489
0.000470852
0.00013172
0.000132166
0.000154267
0.000141545
0.000153508
0.000155684
0.000141159
0.000159575
0.000405701
0.000146286
0.000154682
0.000613694
0.00388113
0.000135375
0.000378969
0.00771712
0.0162533
0.00014227
0.000153712
0.000158175
0.0262302
0.000142958
0.000645949
0.000144377
0.00388417
0.000138417
0.000150853
0.000132193
0.000231771
0.00376489
0.000157674
0.000139022
0.000141245
0.0122016
0.0001353
0.00020579
0.000223091
0.000194463
0.000142094
0.000193851
0.00889691
0.0103629
0.000143185
0.000153094
0.0103327
0.0101112
0.000167023
0.000877982
0.00014498
0.000171841
0.000164884
0.000158084
0.000149833
0.00473671
0.000141231
0.000141106
0.000144001
0.00994151
0.000140968
0.0203537
0.000141554
0.0001431
0.000135655
0.00015547
0.00111903
0.000144449
0.000145522
0.00497444
0.00114196
0.000116468
0.000144322
0.000141559
0.000178571
0.011412
0.000143054
0.00013356
0.000204659
0.000142569
0.000142492
0.00984968
0.000134887
0.0384678
0.000140351
0.000169163
0.000150333
0.000365365
0.000141056
0.000154475
0.000143731
0.000135764
0.00412567
0.000130146
0.0225852
0.000167167
0.000134422
0.000189348
0.0226016
0.00109668
6.41261e-05
0.000143831
0.000133484
0.000131854
0.000134995
0.000153162
0.000143797
0.0142946
0.000142221
0.000135291
0.026938
0.000151418
9.86075e-05
0.000168142
0.000138874
0.0325101
0.00843079
0.000172077
0.00555987
0.000143034
0.000155426
0.000135078
0.000134506
0.000141483
0.000140997
0.000143257
0.000143844
0.000433623
0.000144143
0.00623142
0.000140292
0.000193997
0.000132456
5.76046e-05
0.0147362
0.000134444
0.000140446
0.000338592
0.00024674
0.000132615
0.0412142
0.00014069
0.000318704
0.000135125
0.000148474
0.000135663
0.000278518
0.000132504
0.000139425
0.000141647
0.0418851
0.000163157
0.000141335
0.000143994
0.00151592
0.000141724
0.00014094
0.000136548
0.000141007
0.000150417
0.000140658
0.000197423
0.000135443
0.00188062
0.0160896
0.0052042
0.00014766
0.000150771
0.000142512
0.00888407
0.000148057
0.00686237
0.00229318
0.00476829
0.000291539
0.00763358
0.000143054
0.000142876
0.00811844
0.000909692
0.000198722
0.000196661
0.000143753
0.00925373
0.000138931
0.000143236
0.00013578
0.000135241
0.000148566
0.00831687
0.000146053
0.000157467
0.000377527
0.000141924
0.00861826
0.000134196
0.000146019
0.000168782
0.000143588
0.0066557
0.000140433
0.000140748
0.00236643
0.000143165
0.000132618
0.000155565
0.000139178
0.0001388
0.000423163
0.0113719
0.0154365
0.000143804
0.000139194
0.000139226
0.00843651
0.00014899
0.000142054
0.000137746
0.000137919
0.00736229
0.015034
0.000149929
0.000147523
0.000156956
0.00221595
0.000155248
0.000151075
0.000172442
0.0086682
0.0158386
0.00743237
0.000138844
0.000143459
0.000140683
0.0175704
0.000138759
0.000151904
0.000141266
0.000130197
0.000184775
0.000143741
0.000295641
0.000294605
0.000132587
0.000140701
0.000131485
0.000500951
0.000135168
0.00372158
0.000148246
0.00764336
0.000139162
0.000140276
0.000134485
0.000141011
0.000142678
0.00013098
0.000143026
0.000144452
0.000223685
0.000150326
0.00180475
0.000143171
0.000622169
0.00815451
0.000150776
0.00226242
0.000140042
0.00014066
0.000136692
0.000146793
0.00687781
0.000141176
0.000146896
0.000136174
0.0238017
0.000139612
0.015368
0.00016501
0.000139288
0.000223636
0.0184336
0.000134168
0.000136316
0.000196877
0.000165056
0.0249261
0.000208876
0.000181143
0.00019999
0.000143713
0.000143276
0.000142625
0.000164034
0.000136478
0.00460286
0.00380559
0.000130185
0.000135047
0.000147441
0.000181944
0.000164795
0.00374478
0.000144184
0.000143217
0.00281169
0.000139153
0.000193557
0.000158745
0.000157962
0.00942894
0.000151491
0.000139312
0.000144492
0.000171064
0.000140442
0.0191216
0.000144283
0.000178467
0.000152468
0.00469617
0.000143644
0.000155947
0.000137387
0.000144655
0.000163355
0.000133827
0.000165664
0.000139731
0.000144427
0.000141133
0.00014271
0.000147472
0.000167318
0.000150561
0.000143733
0.00060756
0.000133889
0.000139257
0.000140388
0.000131589
0.000153276
0.000192007
0.0001509
0.000200267
0.00090443
0.000142589
0.000275146
0.0268362
0.000137798
0.000140233
0.000131465
0.001888
0.00865031
0.000150793
0.00013954
0.000167069
0.0115563
0.000344102
0.000145691
0.00254393
0.00290795
0.00407345
0.000148784
0.000131117
0.000135693
0.00112099
0.00624335
0.000144236
0.000406155
0.000186668
0.00927336
0.00808727
0.000141402
0.000184693
0.0213198
0.000213798
0.0394311
0.000163227
0.000422412
0.000150282
0.00748392
0.000143099
0.000182892
0.000151963
0.000152142
0.000130834
0.000143374
0.000140604
0.0245644
0.000140671
0.000130266
0.0306856
0.00014288
0.000154646
0.000146596
0.00381523
0.000148106
0.000145849
0.000144472
0.000141352
0.000141865
0.000153131
0.000138854
0.00541829
0.000187228
0.00023758
0.000140908
0.0152925
0.000138543
0.000193311
0.000625727
0.000137065
0.000142023
0.000131975
0.00014124
0.000148759
0.00208636
0.000185069
0.000139276
0.0028624
0.000141766
0.000143973
0.00513275
0.000131749
0.000144941
0.00155109
0.000139548
0.00808445
0.000147049
0.00122431
0.000154913
0.000180868
0.000195488
0.000142366
0.00173515
0.00204539
0.000140353
0.000164154
0.000288248
0.00609633
0.00607514
0.000166708
0.000137542
0.000139572
0.000143415
0.000144846
0.0101781
0.000150687
0.000131828
0.000163283
0.016064
0.00836505
0.000131958
0.000131489
0.000159727
0.000143861
0.00574336
0.000744563
0.000138726
0.000152446
0.000484348
0.000142935
0.00015212
0.000288122
0.000150423
0.00709038
0.000139308
0.000143618
0.000143757
0.000184248
0.00678769
0.000205371
0.000142034
0.00923074
0.00684844
0.0119688
0.000150126
0.000149526
0.000431605
0.000166549
0.00936356
0.000160442
0.000142795
0.000140331
0.00851622
0.00477665
0.000145399
0.000151807
0.000170384
0.000140181
0.000232845
0.000145629
0.000139893
0.000158924
0.000164863
0.000139224
0.000140606
0.000434415
0.000138646
0.000137288
0.000194862
0.000153049
0.00908958
0.000151777
0.000146714
0.0110981
0.000166676
0.000152158
0.000161376
0.0102323
0.000139972
0.000134582
0.000153133
0.00669865
0.000139026
0.000143649
0.0001402
0.00013369
0.000140869
0.0229516
0.000143025
0.000340635
0.000143122
0.000141991
0.000137738
0.000144321
0.000152842
0.00735572
0.00715572
0.000142112
0.000150128
0.000330092
0.000235722
0.000136737
0.000145942
0.00963343
0.000140079
0.000113033
0.000200477
0.000135611
0.000147972
0.000140388
0.000194583
0.0224243
0.000320196
0.000142597
0.000146929
0.000153785
0.000233135
0.000138005
0.000136355
0.000171308
0.000130975
0.000137577
0.00635672
0.000143389
0.0309938
0.000135205
0.000136599
0.000136055
0.000159997
0.000144662
0.000140484
0.00761309
0.000137695
0.000145079
0.0181077
0.000140315
0.000187353
0.000152645
0.00925477
0.00937976
0.000150787
0.0199587
0.000163376
0.000143116
0.000289533
0.000145605
0.000139535
0.000132172
0.000140104
0.000164517
0.0068517
0.00016885
0.00851173
0.00882836
0.000482368
0.00269862
0.00816831
0.000149707
0.00394523
0.000133875
0.000156168
0.000143647
0.000144875
0.000146018
0.000721929
0.00898304
0.000142134
0.00118349
0.000136883
0.00235283
0.000142796
0.000149124
0.000157828
0.000209427
0.00171267
0.000141514
0.000132844
0.0140771
0.000214189
8.53139e-05
0.000148869
0.000603745
0.000144179
0.00709993
0.00457408
0.000138756
0.000137352
0.000139252
0.000151455
0.000147339
0.000145781
0.000148369
0.000155081
0.000144418
0.000146001
0.000150416
0.00312275
0.00952289
0.000132828
0.0114793
0.000147904
0.00017068
0.000104999
0.00336686
0.000138595
0.000176941
0.000123417
0.000135156
0.000168736
0.000545572
0.000144159
0.000137472
0.000164078
0.00769324
0.00963734
0.000137657
0.0160925
0.000143842
0.000143595
0.0133079
0.000139236
0.000144515
0.000137065
0.000147717
0.000143053
0.000351046
0.00016349
0.000142102
0.000142864
0.000144347
0.000140967
0.00829919
0.000132584
0.000169564
0.0184503
0.000335072
0.000137298
0.00751121
0.000137615
0.0121552
0.000145828
0.000204224
0.000133612
0.00185825
0.0193602
0.0229283
0.000142955
0.000287911
0.00162855
0.00864489
0.000144561
0.000945567
0.000139798
0.00543148
0.00609702
0.000153369
0.000265858
0.00405066
0.0142957
0.000387666
0.000191369
0.00517817
0.000137222
0.000167814
0.000948479
0.000201182
0.00014275
0.0130518
0.000145763
0.000138673
0.000143312
0.000232885
0.00020351
0.000162832
0.00298763
0.000156857
0.00701403
0.000146612
0.00014033
0.00014792
0.0149719
0.00904426
0.000156692
0.00789528
0.000145071
0.000149079
0.000160132
0.0105839
0.000165409
0.000138571
0.010119
0.000889485
0.000148366
0.000201039
0.000135543
0.000163238
0.000187644
0.00013871
0.000398971
0.000415578
0.000142326
0.000146253
0.000139797
0.00415511
0.000152054
0.00026328
0.000743532
0.00013988
0.000141961
0.000133348
0.000161409
0.000137568
0.000131422
0.000168
0.000138799
0.00973769
0.000146549
0.000155425
0.0044489
0.000149374
0.00018165
0.000148532
0.000143023
0.000771061
0.00903349
0.00014712
0.000268505
0.000144557
0.00958569
0.000138695
0.00014914
0.000154999
0.000152502
0.000101253
0.00625846
0.000145412
0.00015959
0.001771
0.000177564
0.000149227
0.00917266
0.000591066
0.00166913
0.000139855
0.000132302
0.00523615
0.00013958
0.0138938
0.000520555
0.000195941
0.00357103
0.000145571
0.000144406
0.0106374
0.000652242
0.000139514
5.70347e-07
0.000165611
0.000141153
0.000199365
0.000146346
0.000144728
0.000172777
0.000149742
0.000145043
0.000148788
0.000140345
0.000151683
0.00927313
0.000160426
0.00469598
0.000142404
0.000154835
0.000139297
0.00014239
0.00932669
0.000143518
0.0133592
0.00646057
0.000145648
0.0193087
0.000163196
0.000612677
0.000131594
0.0142252
0.000217905
0.00441415
0.00014858
0.000162888
0.000138083
0.0356408
0.000149161
0.00737557
0.000164728
0.00013544
0.0107627
0.000131336
0.000521975
0.000140324
0.00969426
0.000140741
0.000136903
0.000134704
0.01592
0.000138961
0.000138468
0.000133742
0.00013912
0.000143077
0.000216805
0.0118666
0.000136845
0.000152927
0.000144181
0.00014021
0.000138299
0.0166788
0.00041623
0.0001525
0.000142693
0.00013835
0.000135732
0.000150687
0.000151741
0.000134402
0.00211662
0.0272158
0.00178379
0.000135877
0.000139066
0.000142853
0.000148315
0.000137334
0.000145317
0.00014285
0.000138477
0.000174771
0.000148863
0.000171803
0.0390127
0.0022593
0.000135107
0.00014014
0.000140139
0.000367838
0.00014518
0.000156354
0.000163072
0.00013624
0.000142511
0.000140701
0.0027776
0.00014252
0.0168438
0.00673104
0.000180055
0.000142307
0.000152305
0.00948869
0.000149477
0.000163234
0.00015264
0.000166631
0.000135918
0.000153039
0.0261531
0.00384563
0.000137788
0.000143447
0.0276517
0.000151195
0.000176889
0.000164094
0.000391573
0.000142176
0.000152404
0.000413167
0.0153167
0.000189633
0.00013915
0.000140282
0.000139053
0.000143814
0.00172792
0.00327862
0.00052145
0.000137243
0.000370874
0.00015257
0.0113337
0.00561385
0.00014045
0.0387919
0.00433856
0.000137907
8.07324e-05
0.000159925
0.000145461
0.0040898
0.000139067
0.000416318
0.000146245
0.00145168
0.0122304
0.000173201
0.000142695
0.000153124
0.000145276
0.000139193
0.000135027
0.000136995
0.0130031
0.000145314
0.000162654
0.00901611
0.00173249
0.000162545
0.000162704
0.000141463
0.00037602
0.000132188
0.0055341
0.00027633
0.0010831
0.00026174
0.00740782
0.0244082
0.000133685
0.000144809
0.000134623
0.000171179
0.000149051
0.00118441
0.000151273
0.000350413
0.00015387
0.000139477
0.000135297
0.0001436
0.000133859
0.000354885
0.000590745
0.000568125
0.000138187
0.000164226
0.000149448
0.000149896
0.000226056
0.000143434
0.00316821
0.00326581
0.00014499
0.000135606
0.00850821
0.000153867
0.000157065
0.0129872
0.000145218
0.00382107
0.000150628
0.000447231
0.000140085
0.000149754
0.000142814
0.000345385
0.000180545
0.0373486
0.00760252
0.000397184
0.000222587
0.000213805
0.000135092
0.000158786
0.00990148
0.00131777
0.00024206
0.000154713
0.000336731
0.00126705
0.0142095
0.000168476
0.00288466
0.000159938
0.000161851
0.000402234
0.00014554
0.000157989
0.000165797
0.000132719
0.000136268
0.000139787
0.000141984
0.0161327
0.000145693
0.00142652
0.000236455
0.000257158
0.00354228
0.00404094
0.000134634
0.000144558
0.00797706
0.000187097
0.000166654
0.00506975
0.000594476
0.00384181
0.000138697
0.000160342
0.000150082
0.000221551
0.00215573
0.011032
0.00846844
0.000183653
0.000144355
0.000149132
0.00766475
5.8237e-05
0.000178644
0.00203004
0.000140101
0.000163443
0.000148018
0.00396679
0.000148688
0.000135597
0.000139653
0.000147642
0.023764
0.0013929
0.00014433
0.000196139
0.0154734
0.000145971
0.00736533
0.000163763
0.000158586
0.000162039
0.000159824
0.00935043
0.00014104
0.000138587
0.00016211
0.002906
0.000214361
0.00016152
0.000145844
0.000147501
0.00014411
0.0155098
0.000160965
0.00014858
0.000143925
0.000145025
0.000152699
0.00967912
0.000146844
0.000157262
0.000140233
0.000300764
0.000341893
0.000180022
0.0232357
0.000142626
0.000160094
0.00280049
0.000153571
0.00938765
0.0117977
0.000143729
0.000147817
0.0130621
0.00014271
0.0204655
0.000143661
0.0320778
0.00868133
0.000583703
0.000147886
0.000140195
0.000141457
0.000142265
0.000150507
0.000131952
0.000145418
0.0001401
0.000137801
0.000148787
0.000148711
0.000149382
0.000148083
0.0131304
0.000143687
0.0236259
0.000145435
0.000143733
0.00832316
0.000140955
0.0216375
0.00838524
0.000143952
0.000145366
0.000168229
0.000309836
0.000165436
0.0214792
0.000156453
0.000147025
0.0302067
0.000137541
0.000389159
0.000143557
0.000270918
0.000133432
0.000455776
0.000401991
0.00734712
0.000144608
0.000148639
0.000138694
0.00014875
0.0065388
0.000139016
0.000142773
0.000173013
0.000161749
0.013335
0.000786385
0.000145501
0.000164011
0.000143483
0.000154733
0.000146482
0.00014291
0.000145433
0.014176
0.00102424
0.000174833
0.000148175
0.000145259
0.000147207
0.000227257
0.0163494
0.000170543
0.013365
0.00046832
0.000147687
0.00014913
0.000209501
0.000138591
0.000148874
0.000181142
0.000147226
0.00324125
0.000147767
0.00261542
0.000133221
0.000145
0.000210679
0.000148074
0.000149481
0.000151047
0.000153182
0.00152465
0.000147181
0.000135235
0.0001448
0.000471034
0.0115769
0.000149966
0.000146007
0.000138158
0.000159449
0.000141707
0.000153536
0.0001397
0.000133671
0.00014364
0.000174293
0.00015919
0.00014488
0.023502
0.000145197
0.000145429
0.0352102
0.000148269
0.000149922
0.000282165
0.00014468
0.00287363
0.000138615
0.000138197
0.000145531
0.000181429
0.000136149
0.00544322
0.000145349
0.000140356
0.0154807
0.00891573
0.000385832
0.000609282
0.00824372
0.00015238
0.000137018
0.000147706
0.00922185
0.000155401
0.0245538
0.000146039
0.000161598
0.000143471
0.00113592
0.000138026
0.00035839
0.000475533
0.000140042
0.000152266
0.000144402
0.000146411
0.00711862
0.000179994
0.000143485
0.000138393
0.000133703
0.0152772
0.000144199
0.0105794
0.000164828
0.000144003
0.000139974
0.000140379
0.0221931
0.000970991
0.000139517
0.00554217
0.000305256
0.000145057
0.00905488
0.000143811
0.000137092
0.000138021
0.000143436
0.00013422
0.000142246
0.000144209
0.000146756
0.000143781
0.00020302
0.000147607
0.000784519
0.000158789
0.000142095
0.0188693
0.000133429
0.000133471
0.000170525
0.000139892
0.0031828
0.000140693
0.000228607
0.000310687
0.00013763
0.0120148
0.00966733
0.000143183
0.00014641
0.000141855
0.0387097
0.000143635
0.00521945
0.00160361
0.000160505
0.000154536
0.000165794
0.00823696
0.000142537
0.000351737
0.00014402
0.00235188
0.0134661
0.000422345
0.00937044
0.000147782
0.000231979
0.0125939
0.000227442
0.000143414
0.000183549
0.000147248
0.000178008
0.000136093
0.000152627
0.0388877
0.000153745
0.000295187
0.00206488
0.000164257
0.00218922
0.00013703
0.000153859
0.000143673
0.000152929
0.000243025
0.0164213
0.000333765
0.000164848
0.000152231
0.0383894
0.000163803
0.00014021
0.00013862
0.000144976
0.000149289
0.000151697
0.000140663
0.0338244
0.000153793
0.000141453
0.000133756
0.000142729
0.000142393
0.0019673
0.000138265
0.00025792
0.000150494
0.0285161
0.000150734
0.000143596
0.000130872
0.000201316
0.000147228
0.000294447
0.0316966
0.00468549
0.000151676
0.000145661
0.0001434
0.00013986
0.000138663
0.000876238
0.000146056
0.000144732
0.0128129
0.000142955
0.000146099
0.000352447
0.0291415
0.0318554
0.000134507
0.0414931
0.0165706
0.000140445
0.00013795
0.000171072
0.0193047
9.66583e-05
0.0037093
0.00275734
0.000142428
0.000138194
0.000167339
0.00015525
0.000144445
0.000160443
0.000144214
0.000148408
0.0105899
0.0187451
0.000167723
0.000153886
0.000157499
0.000166769
0.0151152
0.000143467
0.000139752
0.000143282
0.000161883
0.000139516
0.000151102
0.0122452
0.000326149
0.000136353
0.000138816
0.000130938
0.000143485
0.000142717
0.000172338
0.0045466
0.000146118
0.0105776
0.00099047
0.0384897
0.000162429
0.000147
0.00014316
0.000141731
0.000138303
0.000133108
0.000143536
0.0189575
0.0167971
0.000140412
0.000137092
0.00014544
0.000145381
0.0218004
0.000169385
0.00957232
0.00293416
0.000390565
0.000193439
0.000142608
0.000140897
0.000142035
0.000144824
0.0250213
0.000142256
0.000150612
0.00950562
0.012445
0.00957782
0.00348973
0.0119509
0.00356228
0.000142925
0.000179704
0.0330247
0.0121017
0.000142937
0.000150383
0.000133463
0.00014306
0.00014329
0.0225574
0.000140503
0.000140124
0.0310807
0.000150224
0.032481
0.000142236
0.000137641
0.000176892
0.015579
0.00019442
0.00950164
0.000147617
0.0285325
0.000165547
0.000140141
0.0107151
0.000140906
0.000149806
0.00014361
0.000137136
0.00036825
0.0144387
0.000424444
0.000144485
0.00304719
0.000356539
0.028041
0.000138656
0.000145009
0.0318006
0.000142806
0.00014401
0.00014852
0.000142719
0.0238988
0.000143578
0.0107693
0.0101089
0.000133786
0.00364981
0.000143316
0.00014143
0.000159331
0.000158807
0.000160499
0.000162506
0.000163193
0.000434058
0.000144661
0.000142331
0.000132889
0.000169164
0.0137437
0.000139736
0.000147605
0.00019546
0.0184458
0.00014054
0.000164092
0.000164525
0.000136922
0.000142426
0.00014043
0.0156548
0.0111704
0.000164699
0.00014678
0.000143273
0.000176969
0.00849033
0.000144298
0.00846561
0.0119297
0.00014357
0.000175849
0.0371372
0.0359794
0.00016289
0.000134455
0.000138011
0.0135895
0.000786418
0.0399841
0.000152737
0.0120323
0.00017078
0.00645906
0.0128369
0.00032983
0.0106327
0.0142782
0.00864578
0.0180216
0.000146453
0.00880128
0.000146997
0.0141477
0.000147471
0.000145695
0.000165149
0.0198645
0.00957807
0.000148675
0.000143944
0.00516137
0.013718
0.0121596
0.000138542
0.000139715
0.000142207
0.000151595
0.000143205
0.000167415
0.00993056
0.00762326
0.000150626
0.000143168
0.000250347
0.000144025
0.000142788
0.000196958
0.000142337
0.000149359
0.000133448
0.00291024
0.000188786
0.0094128
0.000148925
0.00447767
0.0152544
0.000161724
0.00997357
0.00539328
0.018043
0.015966
0.000140494
0.0001433
0.000208531
0.000143028
0.000145306
0.000140663
0.000145467
0.000172566
0.000165193
0.000140345
0.00027391
0.000137625
0.000407881
0.000148223
0.0183874
0.018422
0.00017142
0.0141201
0.00729913
0.000170002
0.0192166
0.00649274
0.000144714
0.000143638
0.000165738
0.000173582
0.00806224
0.000140241
0.000143937
0.00526424
0.000142992
0.00013828
0.000146824
0.000131911
0.00540332
0.0001436
0.000160279
0.000144003
0.0169219
0.000142184
0.0068845
0.00267607
0.000523115
0.0028659
0.000133866
0.000165549
0.000145055
0.00014233
0.024665
0.00213336
0.00419275
0.00227073
0.000132638
0.000149087
0.000150023
0.000143058
0.00352659
0.000139775
0.000157452
0.0404613
0.00347384
0.000131011
0.000142169
0.000145697
0.00458163
0.000158878
0.000266091
0.000270216
0.0137963
0.0368306
0.000161212
0.000139361
0.000139693
0.000145978
0.000283686
0.000149028
0.00617046
0.00014336
0.000144688
0.000187262
0.00013217
0.000218571
0.000161172
0.00014432
0.000165366
0.0164864
0.000138277
0.000150118
0.0125313
0.00014311
0.000143358
0.000170527
0.000379275
0.000150527
0.000176301
0.000136244
0.0176277
0.00815459
0.000179405
0.000143534
0.000138273
0.000173437
0.000143961
0.000359533
0.00220217
0.00115998
0.00808577
0.000142051
0.000164609
0.00014013
0.00014902
0.000142998
0.00189344
0.0089572
0.000142853
0.0178672
0.000142709
0.0173867
0.000166446
0.000136046
0.00012189
0.000138525
0.000139795
0.000137317
0.000132359
0.000145596
0.0014592
0.000143862
0.000137404
0.00021406
0.000134187
0.000146822
0.000146056
0.00014159
0.00014286
0.000722013
0.000183538
0.000132681
0.000147424
0.000146564
0.000142541
0.0035988
0.00462315
0.000142764
0.000139828
0.000143613
0.00649728
0.000143908
0.000146502
0.00014639
0.00017127
0.00013275
0.000147316
0.00958361
0.000144179
0.000587655
0.000142276
0.000143122
0.000140491
0.000141452
0.000137585
0.000142307
0.0281754
0.00642006
0.000137532
0.000151434
0.000146882
0.000339271
0.000169524
0.000169859
0.00014204
0.000145202
0.000166483
0.00015092
0.00685617
0.000150463
0.00014081
0.000144501
0.00108515
0.00014537
0.0119404
0.000720895
0.000140759
0.00136682
0.000674497
0.00966209
0.000263722
0.00540337
0.000168328
0.00014029
0.000309564
0.000143591
0.000156134
0.000174888
0.000133865
0.000142853
0.00496193
0.000138519
0.000254374
0.0181836
0.000145144
0.00014288
0.00593908
0.000142288
0.000224565
0.000135918
0.000401774
0.0101001
0.00123987
0.000142437
0.000139183
0.00014565
0.000371606
0.0242171
0.00208503
0.0096094
0.000173287
0.000142291
0.000226921
0.018631
0.000143415
0.000132034
0.000165764
0.000140597
0.00209245
0.00121336
0.00013612
0.00118517
0.00013909
0.000138413
0.000135835
0.000142093
0.000142992
0.0317977
0.00014137
0.000349004
0.000138956
0.000144982
0.000145726
0.000146118
0.000141546
0.000142102
0.000141571
0.00013752
0.0016501
0.00350551
0.00021094
0.000162584
0.000214185
0.000173894
0.000141272
0.000134058
0.000142487
0.000134396
0.0224035
0.0013305
0.000149829
0.000147174
0.012365
0.000147649
0.00624603
0.000143493
0.000140598
0.000144343
0.000135866
0.000739445
0.02779
0.000577376
0.00016423
0.000202519
7.76686e-05
0.000142173
0.000140913
0.000138442
0.000157044
0.000158195
0.0233494
0.000444414
0.00015949
0.000139753
0.000181946
0.000141676
0.000102972
0.000140706
0.00936848
0.00014593
0.000396173
0.000162884
0.000145216
0.000164324
0.000118838
0.000172188
0.00708597
0.000140705
0.00013811
0.000142637
0.000142174
0.00185209
0.000137019
0.000145273
0.000169776
0.000132577
0.00506525
0.0167551
0.000194903
0.000142802
0.000144385
0.000305949
0.000162284
0.000140749
0.000142605
0.016885
0.000142745
0.000142397
0.000207669
0.000162705
0.0115566
0.00950051
0.00462536
0.000161502
0.000139973
0.000142949
0.000156086
0.000140707
0.000139782
0.0261414
0.0244718
0.000134001
0.000140542
0.000139859
0.000146214
0.000982385
0.000140489
0.00014635
0.00014337
0.000135936
0.000140342
8.20788e-05
0.000151812
0.000139633
0.000132081
0.000145089
0.000138279
0.00017687
0.00687973
0.000188365
0.000138638
0.000141014
0.000142594
0.000140219
0.00103477
0.000143359
0.00171233
0.000223178
0.000140809
0.000137653
0.00972027
0.000138147
0.000138566
0.000139947
0.000326385
0.000165777
0.000150515
0.000139943
0.000132489
0.000142709
0.00326978
0.000140589
0.000144369
0.000164225
0.000475839
0.000151147
0.000133226
0.00280326
0.000130272
0.000245828
0.000139996
0.000134335
0.000137749
0.000144001
0.000141624
0.0179649
0.000219736
0.00714842
0.000188029
0.000160486
0.0231794
0.000142768
0.00488921
0.000432972
0.000145908
0.00400199
0.000422623
0.000269868
0.000141972
0.0287417
0.000144769
0.000137901
0.000133734
0.000236126
0.00968254
0.000151861
0.00277262
0.000869529
0.00032597
0.000142915
0.000149199
0.000170362
0.000189612
0.000279864
0.000148883
0.000143472
0.000166429
0.00148344
0.000139099
0.00383695
0.000146342
0.0235863
0.000137417
0.000136357
0.000156063
0.00015451
0.018222
0.000863153
0.000253659
0.000139893
0.000140474
0.000219162
0.00701821
0.0127091
0.000139153
0.000146211
0.000138297
0.000140331
0.000140572
0.000741585
0.000273767
0.000559147
0.000303158
0.000384661
0.000244322
0.00013953
0.000143488
0.000153281
0.00013741
0.000173872
0.0001409
0.00014285
0.000142424
0.000139745
0.000155664
0.000964017
0.000151306
0.000138628
0.000140295
0.018357
0.000160234
0.000149148
0.000158519
0.0163698
0.000294613
0.000139894
0.000154421
0.000198634
0.000138918
8.5785e-05
0.000140316