/*--------------------------------*- C++ -*----------------------------------*\
| =========                 |                                                 |
| \\      /  F ield         | OpenFOAM: The Open Source CFD Toolbox           |
|  \\    /   O peration     | Version:  v2012                                 |
|   \\  /    A nd           | Website:  www.openfoam.com                      |
|    \\/     M anipulation  |                                                 |
\*---------------------------------------------------------------------------*/
FoamFile
{
    version     2.0;
    format      ascii;
    class       volVectorField;
    location    "800";
    object      cellDisplacement;
}
// * * * * * * * * * * * * * * * * * * * * * * * * * * * * * * * * * * * * * //

dimensions      [0 1 0 0 0 0 0];


internalField   nonuniform List<vector> 
9793
(
(0 -0.000192122 0)
(0 1.76305e-05 0)
(0 -0.000405585 0)
(0 1.75737e-05 0)
(0 -8.70466e-05 0)
(0 5.32884e-06 0)
(0 9.29396e-06 0)
(0 1.75146e-05 0)
(0 -0.000164497 0)
(0 1.76314e-05 0)
(0 -0.000149925 0)
(0 -0.00016461 0)
(0 -0.000304733 0)
(0 5.19459e-07 0)
(0 -0.000232313 0)
(0 -0.000230754 0)
(0 -1.92843e-05 0)
(0 -0.000384145 0)
(0 1.74398e-05 0)
(0 -0.000240568 0)
(0 -0.000300477 0)
(0 -1.77767e-05 0)
(0 1.75557e-05 0)
(0 1.75087e-05 0)
(0 -4.56404e-07 0)
(0 -5.26704e-05 0)
(0 -0.000259734 0)
(0 -2.96012e-05 0)
(0 -0.000237699 0)
(0 2.87427e-06 0)
(0 1.76291e-05 0)
(0 1.15636e-05 0)
(0 -0.000420765 0)
(0 -0.000372756 0)
(0 -2.19654e-05 0)
(0 -0.000101765 0)
(0 -0.000235692 0)
(0 -8.70654e-05 0)
(0 1.39125e-05 0)
(0 -4.87759e-05 0)
(0 1.2602e-06 0)
(0 1.46512e-05 0)
(0 1.73954e-05 0)
(0 -2.14951e-05 0)
(0 -0.000474591 0)
(0 -0.000457853 0)
(0 1.76188e-05 0)
(0 -2.97742e-05 0)
(0 -0.000348955 0)
(0 -0.000389249 0)
(0 -0.000107091 0)
(0 -2.62094e-05 0)
(0 -5.2931e-05 0)
(0 -5.90986e-05 0)
(0 -1.24765e-05 0)
(0 1.7527e-05 0)
(0 -0.000295309 0)
(0 -3.21078e-05 0)
(0 -0.000340616 0)
(0 -1.58491e-05 0)
(0 -5.99834e-05 0)
(0 1.44793e-05 0)
(0 -0.000407431 0)
(0 -0.000124242 0)
(0 -5.61709e-05 0)
(0 -0.000171542 0)
(0 1.76314e-05 0)
(0 -0.000109904 0)
(0 -0.000243619 0)
(0 1.53015e-05 0)
(0 -0.000298296 0)
(0 1.39901e-05 0)
(0 1.75464e-05 0)
(0 -0.000126258 0)
(0 1.05444e-05 0)
(0 -5.87124e-05 0)
(0 4.30378e-06 0)
(0 1.64019e-05 0)
(0 -0.000437579 0)
(0 -5.88301e-05 0)
(0 5.70392e-06 0)
(0 1.73625e-05 0)
(0 -2.35503e-05 0)
(0 -7.69169e-05 0)
(0 -0.000233226 0)
(0 1.25099e-05 0)
(0 -7.62068e-05 0)
(0 -7.97311e-05 0)
(0 1.31327e-05 0)
(0 1.41892e-05 0)
(0 1.73701e-05 0)
(0 1.58052e-05 0)
(0 1.5859e-05 0)
(0 -1.44004e-05 0)
(0 1.73631e-05 0)
(0 -0.000352879 0)
(0 1.11808e-05 0)
(0 -1.54257e-05 0)
(0 -7.7613e-05 0)
(0 -6.7573e-05 0)
(0 1.35527e-05 0)
(0 -5.60951e-05 0)
(0 -0.000139839 0)
(0 -0.000477092 0)
(0 2.63321e-06 0)
(0 1.67697e-05 0)
(0 -0.000133584 0)
(0 -0.000246195 0)
(0 -0.000442872 0)
(0 -3.44367e-05 0)
(0 -6.35254e-05 0)
(0 1.74907e-05 0)
(0 1.76338e-05 0)
(0 1.76307e-05 0)
(0 -0.000297994 0)
(0 -0.000312992 0)
(0 -0.000325293 0)
(0 -0.000437975 0)
(0 1.74144e-05 0)
(0 -0.000477957 0)
(0 1.88804e-07 0)
(0 -7.16848e-05 0)
(0 1.12908e-05 0)
(0 -5.80818e-05 0)
(0 -0.000225259 0)
(0 -0.000476915 0)
(0 -1.17486e-05 0)
(0 1.76271e-05 0)
(0 -6.20881e-05 0)
(0 -6.63527e-05 0)
(0 -0.000175978 0)
(0 -0.000285211 0)
(0 -0.000194926 0)
(0 -0.000128084 0)
(0 -0.000105578 0)
(0 1.24692e-05 0)
(0 7.14564e-06 0)
(0 -0.000313294 0)
(0 -4.41869e-05 0)
(0 -1.68891e-05 0)
(0 1.72552e-05 0)
(0 -0.000101036 0)
(0 -0.000264031 0)
(0 -8.86322e-05 0)
(0 1.76178e-05 0)
(0 1.65882e-05 0)
(0 -0.00048614 0)
(0 1.21477e-05 0)
(0 -0.000286066 0)
(0 -0.000485387 0)
(0 -0.000325875 0)
(0 1.75589e-05 0)
(0 -8.3546e-05 0)
(0 -0.000263085 0)
(0 -0.00039735 0)
(0 1.60993e-05 0)
(0 -1.7206e-05 0)
(0 -0.000401275 0)
(0 1.22072e-05 0)
(0 -0.000325369 0)
(0 -8.00656e-05 0)
(0 -0.0001669 0)
(0 -0.000294481 0)
(0 1.71105e-05 0)
(0 -0.000254721 0)
(0 1.60429e-05 0)
(0 -0.000142162 0)
(0 -0.00022677 0)
(0 -0.000228616 0)
(0 -0.000126627 0)
(0 -0.000265646 0)
(0 1.76435e-05 0)
(0 1.7594e-05 0)
(0 -7.17597e-06 0)
(0 -0.000305933 0)
(0 3.47441e-06 0)
(0 1.44875e-05 0)
(0 1.74121e-05 0)
(0 -0.000428359 0)
(0 -0.000119597 0)
(0 1.36568e-06 0)
(0 1.76216e-05 0)
(0 -7.08153e-05 0)
(0 -0.000464477 0)
(0 -0.000417373 0)
(0 -0.00023727 0)
(0 1.02721e-05 0)
(0 1.75727e-05 0)
(0 1.75475e-05 0)
(0 -0.000131473 0)
(0 -0.000181458 0)
(0 1.76221e-05 0)
(0 1.70947e-05 0)
(0 -7.29833e-05 0)
(0 -0.000374153 0)
(0 -9.89671e-05 0)
(0 1.75773e-05 0)
(0 -0.00019765 0)
(0 -0.000379114 0)
(0 -0.000182024 0)
(0 -0.000278397 0)
(0 -0.000323555 0)
(0 -0.00010957 0)
(0 -0.000169626 0)
(0 1.72994e-05 0)
(0 -0.000371524 0)
(0 -6.03012e-05 0)
(0 -0.000232141 0)
(0 -0.000172987 0)
(0 1.71648e-05 0)
(0 -1.90359e-05 0)
(0 1.72294e-05 0)
(0 -0.000172694 0)
(0 1.56869e-05 0)
(0 -7.4657e-05 0)
(0 -0.000239076 0)
(0 -0.000228105 0)
(0 1.21206e-05 0)
(0 -0.000300173 0)
(0 5.63888e-06 0)
(0 -1.32536e-05 0)
(0 -0.000317391 0)
(0 1.74544e-05 0)
(0 -2.68666e-05 0)
(0 -1.59538e-05 0)
(0 -0.000336972 0)
(0 -4.67286e-05 0)
(0 -5.81676e-05 0)
(0 5.32432e-06 0)
(0 6.2841e-06 0)
(0 1.70629e-05 0)
(0 -6.20253e-05 0)
(0 -0.000235903 0)
(0 -0.000120354 0)
(0 1.70218e-05 0)
(0 -0.000397825 0)
(0 1.75957e-05 0)
(0 1.76296e-05 0)
(0 -0.000190352 0)
(0 -0.000156661 0)
(0 1.39933e-05 0)
(0 -0.000319233 0)
(0 -6.12786e-05 0)
(0 -3.36446e-05 0)
(0 -2.47904e-05 0)
(0 -0.000173887 0)
(0 -0.000120399 0)
(0 -5.71443e-05 0)
(0 -2.97281e-06 0)
(0 -0.000135262 0)
(0 -0.000434083 0)
(0 -3.97747e-06 0)
(0 1.75983e-05 0)
(0 -0.000312478 0)
(0 -1.40657e-05 0)
(0 -6.97415e-05 0)
(0 -0.000190792 0)
(0 -4.3148e-05 0)
(0 1.75101e-05 0)
(0 -0.000495556 0)
(0 1.63003e-05 0)
(0 1.27462e-05 0)
(0 -0.000171702 0)
(0 -0.000285587 0)
(0 1.5717e-05 0)
(0 -3.14336e-05 0)
(0 -0.000111174 0)
(0 -2.9292e-05 0)
(0 1.35082e-05 0)
(0 1.69364e-05 0)
(0 -6.7391e-05 0)
(0 1.68238e-05 0)
(0 -2.94191e-05 0)
(0 -0.000134382 0)
(0 1.75981e-05 0)
(0 -0.000217775 0)
(0 1.76297e-05 0)
(0 -6.4312e-05 0)
(0 -6.36755e-05 0)
(0 1.76784e-05 0)
(0 8.8031e-06 0)
(0 2.12334e-06 0)
(0 -5.89231e-05 0)
(0 -0.000182109 0)
(0 -2.59154e-05 0)
(0 -0.000173073 0)
(0 -0.000388241 0)
(0 -0.000255359 0)
(0 1.69923e-05 0)
(0 -4.70197e-05 0)
(0 -0.000272512 0)
(0 -6.58296e-06 0)
(0 -0.000179946 0)
(0 -5.88124e-05 0)
(0 -0.000306024 0)
(0 1.74959e-05 0)
(0 -0.000268899 0)
(0 -0.000234937 0)
(0 -5.70277e-05 0)
(0 -0.000299535 0)
(0 1.76188e-05 0)
(0 1.65322e-05 0)
(0 9.40046e-06 0)
(0 -0.000145286 0)
(0 -8.13567e-05 0)
(0 -4.7498e-05 0)
(0 -0.000135189 0)
(0 1.75805e-05 0)
(0 -0.000483802 0)
(0 1.24964e-05 0)
(0 -0.000119459 0)
(0 -0.000467653 0)
(0 1.76314e-05 0)
(0 -0.00012773 0)
(0 -0.000414576 0)
(0 -1.74776e-06 0)
(0 1.76283e-05 0)
(0 -0.000195721 0)
(0 -1.80296e-05 0)
(0 -0.000234954 0)
(0 -0.000188574 0)
(0 -6.7975e-05 0)
(0 1.1597e-06 0)
(0 -0.000374973 0)
(0 -0.000465464 0)
(0 -0.000154397 0)
(0 1.49055e-05 0)
(0 1.76291e-05 0)
(0 -0.000411795 0)
(0 -0.000253682 0)
(0 -0.000278042 0)
(0 1.7653e-05 0)
(0 1.76199e-05 0)
(0 1.75627e-05 0)
(0 -0.000382781 0)
(0 2.93661e-06 0)
(0 -1.63153e-05 0)
(0 1.75154e-05 0)
(0 -3.0916e-05 0)
(0 -0.000435578 0)
(0 -0.00040209 0)
(0 -0.000273733 0)
(0 -3.02185e-05 0)
(0 -0.00018149 0)
(0 1.74979e-05 0)
(0 -0.000366424 0)
(0 -0.000273336 0)
(0 -6.82387e-05 0)
(0 1.74636e-05 0)
(0 1.57169e-05 0)
(0 -5.79785e-05 0)
(0 1.43642e-05 0)
(0 -6.15193e-05 0)
(0 1.77086e-05 0)
(0 1.74915e-05 0)
(0 1.72196e-05 0)
(0 -8.45071e-05 0)
(0 -4.42138e-05 0)
(0 8.19586e-06 0)
(0 1.72382e-05 0)
(0 1.74736e-05 0)
(0 -6.94845e-05 0)
(0 -3.43648e-05 0)
(0 -6.30824e-05 0)
(0 -0.000364412 0)
(0 -0.000259493 0)
(0 -0.00018964 0)
(0 -0.000265593 0)
(0 -2.48238e-06 0)
(0 1.74594e-05 0)
(0 -0.000144773 0)
(0 -7.82922e-06 0)
(0 -5.62365e-05 0)
(0 -2.63696e-06 0)
(0 -0.000445966 0)
(0 -7.23664e-05 0)
(0 1.76182e-05 0)
(0 1.71484e-05 0)
(0 -8.17463e-06 0)
(0 -3.34102e-05 0)
(0 -0.000274425 0)
(0 -8.02263e-05 0)
(0 -0.000404108 0)
(0 1.5821e-05 0)
(0 -8.73251e-05 0)
(0 1.53808e-05 0)
(0 1.55538e-05 0)
(0 9.58345e-06 0)
(0 1.75841e-05 0)
(0 -7.62078e-05 0)
(0 -0.000142966 0)
(0 -0.000335871 0)
(0 7.637e-06 0)
(0 1.56977e-05 0)
(0 -0.000379521 0)
(0 1.75382e-05 0)
(0 -0.000152709 0)
(0 -0.000217863 0)
(0 1.76763e-05 0)
(0 -0.000166168 0)
(0 -2.8232e-05 0)
(0 -0.000387601 0)
(0 -0.000136419 0)
(0 -0.000355401 0)
(0 -0.000261662 0)
(0 -4.93496e-05 0)
(0 1.32237e-05 0)
(0 -0.000195526 0)
(0 -6.89534e-05 0)
(0 -0.000183 0)
(0 -0.000284187 0)
(0 1.13633e-05 0)
(0 -1.42177e-05 0)
(0 -0.000344528 0)
(0 -0.000213631 0)
(0 -1.16448e-05 0)
(0 -1.77261e-05 0)
(0 -0.000207685 0)
(0 1.76216e-05 0)
(0 -0.000198367 0)
(0 -0.000372988 0)
(0 1.70504e-05 0)
(0 -0.00017671 0)
(0 1.75757e-05 0)
(0 1.73333e-05 0)
(0 -0.000428432 0)
(0 -0.000405684 0)
(0 -0.000253527 0)
(0 -0.000161728 0)
(0 -0.000285255 0)
(0 1.26836e-05 0)
(0 6.47008e-06 0)
(0 1.61159e-05 0)
(0 -5.04925e-05 0)
(0 -0.000284513 0)
(0 -5.42721e-05 0)
(0 -9.45246e-05 0)
(0 1.73102e-05 0)
(0 -6.20737e-05 0)
(0 -7.70173e-05 0)
(0 -0.000111729 0)
(0 1.62325e-05 0)
(0 -0.000287045 0)
(0 -0.000319863 0)
(0 -0.000289072 0)
(0 -7.9699e-05 0)
(0 -0.000350102 0)
(0 -0.000227542 0)
(0 -0.000446439 0)
(0 -0.00012485 0)
(0 -0.000112417 0)
(0 -0.000166236 0)
(0 -3.67464e-05 0)
(0 -3.59105e-05 0)
(0 1.75424e-05 0)
(0 -6.19688e-05 0)
(0 1.59904e-05 0)
(0 1.76096e-05 0)
(0 -0.000376675 0)
(0 -7.10277e-05 0)
(0 8.10013e-06 0)
(0 -0.000363651 0)
(0 -0.00010905 0)
(0 -0.000250191 0)
(0 -9.38379e-06 0)
(0 -2.60555e-05 0)
(0 -0.00010276 0)
(0 -0.000337205 0)
(0 -0.000190209 0)
(0 8.70123e-06 0)
(0 1.50894e-05 0)
(0 1.64867e-05 0)
(0 -5.54046e-05 0)
(0 -0.000404116 0)
(0 -2.33823e-05 0)
(0 1.76227e-05 0)
(0 1.01763e-05 0)
(0 -0.000103486 0)
(0 -0.000205879 0)
(0 -1.80267e-05 0)
(0 1.57357e-05 0)
(0 -1.70302e-05 0)
(0 -0.000179466 0)
(0 -0.000279358 0)
(0 1.71283e-05 0)
(0 -0.000360059 0)
(0 1.44572e-05 0)
(0 2.26948e-06 0)
(0 -0.000346026 0)
(0 1.66769e-05 0)
(0 -6.95014e-05 0)
(0 1.57666e-05 0)
(0 -0.000287523 0)
(0 1.73415e-05 0)
(0 1.15587e-05 0)
(0 -0.000230392 0)
(0 1.54753e-05 0)
(0 -0.000356962 0)
(0 1.74444e-05 0)
(0 -0.00036904 0)
(0 -0.000333558 0)
(0 -0.000114746 0)
(0 -0.000394396 0)
(0 1.12198e-05 0)
(0 -0.000346646 0)
(0 -0.000330419 0)
(0 -0.000141753 0)
(0 -0.000373022 0)
(0 -0.000280739 0)
(0 4.31032e-07 0)
(0 -0.000110598 0)
(0 -0.000116702 0)
(0 -0.000190998 0)
(0 -0.000183748 0)
(0 1.76157e-05 0)
(0 1.15503e-05 0)
(0 -0.000110172 0)
(0 -1.04888e-05 0)
(0 -0.000169496 0)
(0 -0.000165215 0)
(0 -0.000500274 0)
(0 -0.000289224 0)
(0 1.75273e-05 0)
(0 -0.000338246 0)
(0 -2.38142e-05 0)
(0 1.7637e-05 0)
(0 1.47195e-05 0)
(0 -3.42742e-06 0)
(0 -0.000300989 0)
(0 -3.34541e-05 0)
(0 -0.000196841 0)
(0 -0.000105158 0)
(0 -1.39921e-05 0)
(0 -0.000189281 0)
(0 -0.000128086 0)
(0 -0.000218686 0)
(0 1.75141e-05 0)
(0 -7.18256e-05 0)
(0 1.76271e-05 0)
(0 -8.34654e-06 0)
(0 1.53114e-05 0)
(0 -0.000365741 0)
(0 -0.000118145 0)
(0 1.76199e-05 0)
(0 -0.000355323 0)
(0 1.39734e-05 0)
(0 -0.000338314 0)
(0 -7.64846e-06 0)
(0 -0.000301167 0)
(0 1.61038e-06 0)
(0 1.73543e-05 0)
(0 -0.000252613 0)
(0 -6.58411e-05 0)
(0 -0.000355091 0)
(0 -2.23574e-05 0)
(0 -4.31641e-05 0)
(0 -4.69988e-06 0)
(0 1.71709e-05 0)
(0 -8.37001e-05 0)
(0 -3.91851e-05 0)
(0 4.68219e-06 0)
(0 -3.47387e-05 0)
(0 -0.000196368 0)
(0 -0.000263082 0)
(0 -4.28651e-05 0)
(0 -0.000148873 0)
(0 -2.7391e-05 0)
(0 -0.00018222 0)
(0 -0.000174153 0)
(0 -0.000131878 0)
(0 1.27545e-05 0)
(0 -3.12864e-06 0)
(0 -0.000237955 0)
(0 1.7625e-05 0)
(0 -0.000331542 0)
(0 1.55628e-05 0)
(0 -0.00037292 0)
(0 -0.000242229 0)
(0 -0.000354965 0)
(0 -0.000188986 0)
(0 -6.47908e-05 0)
(0 1.59551e-05 0)
(0 -0.00022152 0)
(0 1.46328e-05 0)
(0 3.98165e-06 0)
(0 -1.08724e-05 0)
(0 -9.75375e-06 0)
(0 1.76559e-05 0)
(0 -0.000123074 0)
(0 -1.08359e-05 0)
(0 1.75405e-05 0)
(0 1.57581e-05 0)
(0 1.68315e-05 0)
(0 6.76924e-07 0)
(0 1.49869e-05 0)
(0 -0.000200614 0)
(0 1.76316e-05 0)
(0 -0.000139317 0)
(0 -0.000245469 0)
(0 1.60226e-05 0)
(0 -3.05352e-05 0)
(0 1.7022e-05 0)
(0 -6.48813e-06 0)
(0 -3.45185e-06 0)
(0 -5.50998e-05 0)
(0 1.73498e-05 0)
(0 1.75631e-05 0)
(0 -0.000131403 0)
(0 -6.29807e-06 0)
(0 -0.000165523 0)
(0 1.69226e-05 0)
(0 -0.000171576 0)
(0 -0.000370096 0)
(0 -0.000189947 0)
(0 -0.000346903 0)
(0 -1.65658e-05 0)
(0 1.68259e-05 0)
(0 1.65402e-05 0)
(0 1.75906e-05 0)
(0 -0.000125268 0)
(0 -9.17413e-05 0)
(0 1.53349e-05 0)
(0 1.67545e-05 0)
(0 -0.000203442 0)
(0 -3.28678e-05 0)
(0 -0.000163856 0)
(0 1.77131e-05 0)
(0 -5.51295e-05 0)
(0 -0.000428718 0)
(0 9.25606e-06 0)
(0 1.67869e-05 0)
(0 1.7569e-05 0)
(0 -4.7769e-05 0)
(0 -5.60433e-05 0)
(0 1.55026e-05 0)
(0 -0.000118174 0)
(0 1.05791e-05 0)
(0 -0.000108589 0)
(0 -5.74333e-06 0)
(0 -5.2595e-05 0)
(0 -0.000115029 0)
(0 -0.0002003 0)
(0 -0.000398562 0)
(0 -7.14716e-05 0)
(0 -3.08062e-05 0)
(0 -7.053e-05 0)
(0 4.4412e-06 0)
(0 1.00246e-05 0)
(0 -1.47514e-05 0)
(0 -6.76399e-05 0)
(0 -0.000295305 0)
(0 -0.000388521 0)
(0 -3.59859e-05 0)
(0 -0.000324402 0)
(0 2.86902e-06 0)
(0 -1.33071e-05 0)
(0 6.65206e-07 0)
(0 -2.22899e-05 0)
(0 1.55816e-05 0)
(0 -0.000292374 0)
(0 1.75859e-05 0)
(0 -8.50347e-05 0)
(0 2.90703e-06 0)
(0 -1.89739e-05 0)
(0 1.10209e-05 0)
(0 -0.000166758 0)
(0 -0.000333906 0)
(0 2.81592e-06 0)
(0 -0.000359485 0)
(0 -0.000202411 0)
(0 -2.29014e-05 0)
(0 1.16005e-05 0)
(0 -0.000328052 0)
(0 -6.4246e-05 0)
(0 1.00352e-05 0)
(0 -0.00012773 0)
(0 -6.1547e-05 0)
(0 9.70758e-06 0)
(0 -0.000222933 0)
(0 -1.42733e-05 0)
(0 -0.000220137 0)
(0 -0.000184562 0)
(0 -0.000295154 0)
(0 1.40346e-05 0)
(0 8.67203e-06 0)
(0 1.75301e-05 0)
(0 -0.000276127 0)
(0 -0.000471878 0)
(0 -0.000261187 0)
(0 -0.000340484 0)
(0 -0.000112994 0)
(0 -8.00675e-05 0)
(0 1.70035e-05 0)
(0 -9.12736e-05 0)
(0 -0.000134575 0)
(0 1.52625e-05 0)
(0 -0.000104406 0)
(0 -1.3383e-05 0)
(0 -0.000210363 0)
(0 1.76329e-05 0)
(0 -0.000191989 0)
(0 -0.000108565 0)
(0 1.00534e-05 0)
(0 1.76049e-05 0)
(0 -0.000350101 0)
(0 -0.000447461 0)
(0 -0.000409243 0)
(0 -0.000243494 0)
(0 -0.000158018 0)
(0 -0.000123638 0)
(0 9.776e-06 0)
(0 -0.000160982 0)
(0 -4.55272e-05 0)
(0 -0.000207364 0)
(0 -0.000215676 0)
(0 -5.09934e-07 0)
(0 1.75243e-05 0)
(0 -2.81457e-05 0)
(0 -0.000316316 0)
(0 -0.000361215 0)
(0 -4.34422e-05 0)
(0 -6.9834e-05 0)
(0 -5.85283e-05 0)
(0 -0.000363987 0)
(0 -0.000335022 0)
(0 1.76308e-05 0)
(0 -0.00013654 0)
(0 -5.15645e-05 0)
(0 -3.11102e-05 0)
(0 8.73022e-06 0)
(0 -0.000332884 0)
(0 -1.26828e-05 0)
(0 -0.000187391 0)
(0 1.73972e-05 0)
(0 -2.89015e-05 0)
(0 -3.08145e-06 0)
(0 1.70492e-05 0)
(0 -6.01368e-05 0)
(0 1.3071e-05 0)
(0 -2.23594e-05 0)
(0 -0.000292332 0)
(0 1.75054e-05 0)
(0 -5.33519e-05 0)
(0 -0.000365843 0)
(0 -0.000190994 0)
(0 -2.01672e-05 0)
(0 1.76056e-05 0)
(0 -0.000194368 0)
(0 -0.000493543 0)
(0 -0.000354262 0)
(0 -0.000343679 0)
(0 -0.00029507 0)
(0 -0.000194813 0)
(0 1.6956e-05 0)
(0 -1.65334e-05 0)
(0 -0.00012024 0)
(0 -0.000235784 0)
(0 -1.61707e-05 0)
(0 -1.16743e-05 0)
(0 -0.000243218 0)
(0 -5.03587e-05 0)
(0 -5.73826e-06 0)
(0 -0.00026256 0)
(0 -9.28269e-05 0)
(0 1.75176e-05 0)
(0 -4.0557e-05 0)
(0 -0.000296536 0)
(0 1.75515e-05 0)
(0 -0.000173625 0)
(0 -5.77173e-05 0)
(0 1.64152e-05 0)
(0 1.76133e-05 0)
(0 -0.000237723 0)
(0 -0.00017493 0)
(0 1.68375e-05 0)
(0 -4.95707e-05 0)
(0 -0.000109898 0)
(0 -9.86402e-05 0)
(0 -2.29908e-05 0)
(0 -8.7828e-06 0)
(0 1.52188e-06 0)
(0 -0.000411107 0)
(0 1.71881e-05 0)
(0 -9.8641e-05 0)
(0 -1.37613e-05 0)
(0 -0.00032555 0)
(0 -3.60635e-05 0)
(0 -0.000397844 0)
(0 -7.48003e-05 0)
(0 -7.4254e-05 0)
(0 1.52695e-05 0)
(0 -0.000274545 0)
(0 -0.000342892 0)
(0 -2.03287e-05 0)
(0 -0.000328771 0)
(0 -0.000210466 0)
(0 -0.000310727 0)
(0 -5.12775e-05 0)
(0 -0.000352147 0)
(0 -7.31959e-05 0)
(0 -1.14413e-05 0)
(0 -3.27673e-05 0)
(0 -1.89551e-05 0)
(0 -0.000190581 0)
(0 -0.000267039 0)
(0 1.76302e-05 0)
(0 -7.00738e-05 0)
(0 -0.000296049 0)
(0 -4.886e-05 0)
(0 1.76284e-05 0)
(0 -0.00035653 0)
(0 -0.000487329 0)
(0 -0.000315426 0)
(0 9.19555e-06 0)
(0 -7.4551e-05 0)
(0 1.76203e-05 0)
(0 -0.00026619 0)
(0 -6.25697e-05 0)
(0 -0.000209915 0)
(0 -0.000178596 0)
(0 -1.28089e-05 0)
(0 1.12106e-05 0)
(0 -0.000215596 0)
(0 1.27171e-05 0)
(0 -0.000294939 0)
(0 9.47975e-06 0)
(0 -0.000270603 0)
(0 -0.000105428 0)
(0 -0.000356239 0)
(0 -0.000221026 0)
(0 7.56595e-06 0)
(0 1.76355e-05 0)
(0 -0.000179062 0)
(0 -4.71219e-05 0)
(0 -4.92803e-05 0)
(0 -0.000323872 0)
(0 1.76269e-05 0)
(0 1.76345e-05 0)
(0 -6.67896e-05 0)
(0 -0.00022674 0)
(0 -0.0002681 0)
(0 1.75926e-05 0)
(0 -0.000312539 0)
(0 1.75992e-05 0)
(0 -0.00040307 0)
(0 -0.000156958 0)
(0 -0.00021712 0)
(0 -7.84879e-05 0)
(0 -0.000233673 0)
(0 1.32553e-05 0)
(0 1.72833e-05 0)
(0 1.75885e-05 0)
(0 1.07138e-05 0)
(0 1.76261e-05 0)
(0 -0.000399844 0)
(0 -1.09451e-05 0)
(0 1.69163e-05 0)
(0 -6.14721e-06 0)
(0 -0.000181409 0)
(0 -0.000205024 0)
(0 -8.09235e-06 0)
(0 -0.000337221 0)
(0 1.74622e-05 0)
(0 -1.89673e-05 0)
(0 5.65561e-08 0)
(0 -0.000148209 0)
(0 1.64098e-05 0)
(0 1.76263e-05 0)
(0 1.75976e-05 0)
(0 -2.4639e-05 0)
(0 -5.73366e-05 0)
(0 -4.0994e-05 0)
(0 1.75056e-05 0)
(0 -0.000372725 0)
(0 1.7175e-05 0)
(0 6.40852e-06 0)
(0 1.1839e-05 0)
(0 1.62924e-05 0)
(0 1.46161e-05 0)
(0 -0.000138629 0)
(0 -9.34994e-05 0)
(0 -0.000160071 0)
(0 -0.000131597 0)
(0 1.74877e-05 0)
(0 1.76381e-05 0)
(0 -0.000198652 0)
(0 1.76104e-05 0)
(0 -0.000254918 0)
(0 -2.8147e-05 0)
(0 1.47211e-05 0)
(0 1.03737e-05 0)
(0 8.90284e-06 0)
(0 -0.000412682 0)
(0 -5.5752e-05 0)
(0 -0.000112076 0)
(0 -0.000227426 0)
(0 -0.000292973 0)
(0 -4.54752e-05 0)
(0 -0.000182449 0)
(0 1.68577e-05 0)
(0 -4.47975e-05 0)
(0 -0.000418692 0)
(0 6.75359e-06 0)
(0 -2.60196e-05 0)
(0 -1.1654e-05 0)
(0 -0.000158729 0)
(0 1.75254e-05 0)
(0 1.70888e-05 0)
(0 1.59675e-05 0)
(0 -6.42751e-05 0)
(0 -3.06503e-05 0)
(0 -0.000156861 0)
(0 -3.14395e-05 0)
(0 -0.000336059 0)
(0 1.61029e-05 0)
(0 -6.37838e-05 0)
(0 -0.000162155 0)
(0 -0.000363405 0)
(0 -0.000115375 0)
(0 1.75869e-05 0)
(0 -5.44933e-05 0)
(0 -0.00043086 0)
(0 1.69788e-05 0)
(0 -0.000395982 0)
(0 -5.76613e-05 0)
(0 -0.000372604 0)
(0 -8.8045e-05 0)
(0 -0.000460682 0)
(0 -0.000203713 0)
(0 1.76032e-05 0)
(0 -8.58389e-06 0)
(0 -4.26188e-06 0)
(0 1.76175e-05 0)
(0 1.43986e-05 0)
(0 -0.000389354 0)
(0 -0.000296713 0)
(0 -5.64379e-05 0)
(0 -9.49201e-06 0)
(0 -0.000292153 0)
(0 -0.000243042 0)
(0 1.68848e-05 0)
(0 -0.000129564 0)
(0 -0.000154717 0)
(0 -5.31563e-05 0)
(0 -1.24203e-05 0)
(0 1.67586e-05 0)
(0 -0.000310589 0)
(0 -2.5353e-06 0)
(0 -0.00025317 0)
(0 -0.000198553 0)
(0 1.72006e-05 0)
(0 7.66212e-07 0)
(0 -3.06586e-05 0)
(0 -0.00019843 0)
(0 -0.000320648 0)
(0 1.76201e-05 0)
(0 1.14808e-05 0)
(0 1.51453e-05 0)
(0 1.76886e-05 0)
(0 -0.000246182 0)
(0 -0.000335096 0)
(0 -0.00042399 0)
(0 1.76325e-05 0)
(0 -7.97073e-05 0)
(0 -3.44951e-05 0)
(0 -0.000161958 0)
(0 -0.000195568 0)
(0 -0.000283024 0)
(0 -4.01645e-05 0)
(0 -0.00021986 0)
(0 1.04514e-05 0)
(0 -0.000271464 0)
(0 -8.23428e-06 0)
(0 -3.60203e-05 0)
(0 -0.000194186 0)
(0 -0.000364176 0)
(0 -0.000213445 0)
(0 -5.23624e-06 0)
(0 1.75812e-05 0)
(0 -9.67112e-05 0)
(0 1.76248e-05 0)
(0 -0.000292377 0)
(0 -6.66114e-06 0)
(0 -0.000212113 0)
(0 9.51252e-06 0)
(0 -0.000391978 0)
(0 -0.000397215 0)
(0 -0.000111305 0)
(0 -9.40287e-06 0)
(0 -1.47077e-05 0)
(0 -0.000247638 0)
(0 -2.09353e-05 0)
(0 1.39998e-05 0)
(0 1.25863e-05 0)
(0 -0.000187781 0)
(0 -1.36247e-05 0)
(0 1.73535e-05 0)
(0 -0.000145183 0)
(0 1.57222e-05 0)
(0 2.61061e-06 0)
(0 7.98132e-06 0)
(0 -0.00024323 0)
(0 -0.000171428 0)
(0 -7.35316e-05 0)
(0 1.27921e-05 0)
(0 -0.000286364 0)
(0 -0.000121018 0)
(0 -0.00020568 0)
(0 -0.00021295 0)
(0 -0.000156614 0)
(0 -0.000241314 0)
(0 -0.000340282 0)
(0 -0.000500631 0)
(0 1.72057e-05 0)
(0 -5.71575e-05 0)
(0 -0.000133098 0)
(0 -1.4748e-06 0)
(0 -0.000259471 0)
(0 -0.000416998 0)
(0 -1.3107e-05 0)
(0 1.09044e-05 0)
(0 1.35034e-05 0)
(0 -1.55287e-07 0)
(0 -1.94856e-05 0)
(0 -5.81397e-05 0)
(0 1.74441e-05 0)
(0 -2.75243e-05 0)
(0 1.76475e-05 0)
(0 9.12102e-06 0)
(0 -0.000205736 0)
(0 -0.000223246 0)
(0 -0.000150513 0)
(0 1.75144e-05 0)
(0 1.75635e-05 0)
(0 2.20013e-06 0)
(0 1.5101e-05 0)
(0 -0.000259691 0)
(0 -0.000242117 0)
(0 -9.47981e-05 0)
(0 -0.000198123 0)
(0 1.76308e-05 0)
(0 -8.79916e-05 0)
(0 -0.000223438 0)
(0 2.26479e-06 0)
(0 1.65994e-05 0)
(0 1.68774e-06 0)
(0 -0.00013936 0)
(0 -0.000118465 0)
(0 6.92166e-06 0)
(0 -5.3264e-05 0)
(0 -0.000136126 0)
(0 1.70145e-05 0)
(0 1.48224e-05 0)
(0 -0.00014996 0)
(0 7.26055e-06 0)
(0 -2.43204e-06 0)
(0 -5.5503e-06 0)
(0 1.2434e-05 0)
(0 -5.57199e-05 0)
(0 -0.000212837 0)
(0 -6.27345e-06 0)
(0 -0.00036491 0)
(0 -0.000104628 0)
(0 -5.42701e-05 0)
(0 1.76335e-05 0)
(0 -5.51972e-05 0)
(0 -2.72718e-05 0)
(0 9.83686e-06 0)
(0 -0.000240203 0)
(0 1.76152e-05 0)
(0 1.76257e-05 0)
(0 -0.0002953 0)
(0 1.76079e-05 0)
(0 -3.48595e-05 0)
(0 -0.000244801 0)
(0 -0.000310185 0)
(0 9.97484e-06 0)
(0 1.71637e-05 0)
(0 -7.69788e-05 0)
(0 -2.52227e-05 0)
(0 -0.000367613 0)
(0 1.55703e-05 0)
(0 -4.92394e-06 0)
(0 -3.24433e-05 0)
(0 -0.000255055 0)
(0 -0.00023214 0)
(0 -0.000227561 0)
(0 -7.54805e-06 0)
(0 -0.000121081 0)
(0 -5.34581e-06 0)
(0 -2.84705e-05 0)
(0 -9.4223e-05 0)
(0 1.71602e-05 0)
(0 1.08147e-05 0)
(0 -0.000134095 0)
(0 -5.54997e-05 0)
(0 -0.000146713 0)
(0 1.70161e-05 0)
(0 -6.12878e-05 0)
(0 -0.000366947 0)
(0 -0.00024092 0)
(0 -0.000374718 0)
(0 -0.000124554 0)
(0 1.76014e-05 0)
(0 1.69755e-05 0)
(0 1.15361e-05 0)
(0 -5.27591e-05 0)
(0 -0.000275247 0)
(0 1.65352e-05 0)
(0 -4.86757e-05 0)
(0 -0.000154607 0)
(0 1.75424e-05 0)
(0 -0.000250692 0)
(0 6.1774e-07 0)
(0 1.76432e-05 0)
(0 -0.000257525 0)
(0 1.76214e-05 0)
(0 1.74826e-05 0)
(0 9.72078e-06 0)
(0 1.76272e-05 0)
(0 -5.69705e-06 0)
(0 -0.000267587 0)
(0 -0.000129398 0)
(0 1.76599e-05 0)
(0 1.65711e-05 0)
(0 -0.000136935 0)
(0 1.76169e-05 0)
(0 -7.61478e-05 0)
(0 -0.00034224 0)
(0 -6.44623e-05 0)
(0 -0.000193051 0)
(0 -5.70522e-05 0)
(0 -8.10159e-05 0)
(0 1.68662e-05 0)
(0 1.76286e-05 0)
(0 1.66008e-05 0)
(0 -1.66599e-05 0)
(0 -2.52445e-05 0)
(0 5.31096e-06 0)
(0 1.76194e-05 0)
(0 -0.00024408 0)
(0 1.76397e-05 0)
(0 -5.76026e-06 0)
(0 -8.34855e-05 0)
(0 -6.52987e-05 0)
(0 -5.56552e-05 0)
(0 -0.000181359 0)
(0 -1.86286e-05 0)
(0 1.76221e-05 0)
(0 -0.000249122 0)
(0 -0.00025773 0)
(0 1.76053e-05 0)
(0 8.99319e-06 0)
(0 -5.9017e-05 0)
(0 -7.27176e-05 0)
(0 -9.90167e-06 0)
(0 -0.00040824 0)
(0 -4.0414e-05 0)
(0 -1.46401e-05 0)
(0 1.59674e-05 0)
(0 -0.000154988 0)
(0 -0.000244366 0)
(0 -9.90073e-06 0)
(0 1.76167e-05 0)
(0 -6.87656e-06 0)
(0 -0.00017785 0)
(0 1.66882e-05 0)
(0 -0.000205035 0)
(0 -0.000265842 0)
(0 -0.000376045 0)
(0 -0.000153306 0)
(0 -0.000259558 0)
(0 -0.00018454 0)
(0 1.61267e-05 0)
(0 -8.62407e-05 0)
(0 -4.77837e-05 0)
(0 1.74775e-05 0)
(0 -7.03922e-05 0)
(0 1.26294e-05 0)
(0 1.50766e-05 0)
(0 1.12071e-05 0)
(0 -1.05406e-05 0)
(0 -0.000311182 0)
(0 -9.5515e-05 0)
(0 -0.000212853 0)
(0 -0.000143951 0)
(0 1.26904e-05 0)
(0 -0.000276857 0)
(0 1.48544e-05 0)
(0 -5.93247e-05 0)
(0 -3.89487e-06 0)
(0 -0.000391469 0)
(0 1.68199e-05 0)
(0 -1.41732e-05 0)
(0 1.75637e-05 0)
(0 -3.43452e-05 0)
(0 1.75969e-05 0)
(0 -0.000147258 0)
(0 -7.31375e-06 0)
(0 9.60501e-06 0)
(0 -3.24825e-05 0)
(0 -0.000183473 0)
(0 1.63802e-05 0)
(0 -2.50138e-05 0)
(0 1.65336e-05 0)
(0 -0.000288678 0)
(0 -1.1255e-05 0)
(0 -0.000402474 0)
(0 1.75628e-05 0)
(0 1.62587e-05 0)
(0 1.27022e-06 0)
(0 -0.000390791 0)
(0 -0.000411275 0)
(0 -6.49479e-06 0)
(0 1.76263e-05 0)
(0 -0.000109279 0)
(0 -0.000451791 0)
(0 -3.18163e-05 0)
(0 1.11293e-05 0)
(0 -4.49178e-05 0)
(0 -0.000171958 0)
(0 1.34106e-05 0)
(0 -0.000235415 0)
(0 -7.9574e-05 0)
(0 -0.000373181 0)
(0 -0.000112445 0)
(0 -0.000368353 0)
(0 1.61968e-05 0)
(0 -0.000359843 0)
(0 -0.000360492 0)
(0 1.03713e-05 0)
(0 1.76411e-05 0)
(0 -0.000173145 0)
(0 -8.65938e-07 0)
(0 -0.000208353 0)
(0 1.34865e-05 0)
(0 -0.000262333 0)
(0 1.59595e-05 0)
(0 -0.00013118 0)
(0 1.03035e-05 0)
(0 -0.000244225 0)
(0 -0.000155032 0)
(0 1.74724e-05 0)
(0 -0.000123686 0)
(0 1.7537e-05 0)
(0 -7.8176e-05 0)
(0 1.76259e-05 0)
(0 -0.000151669 0)
(0 -0.000334409 0)
(0 -0.000240768 0)
(0 -8.57327e-05 0)
(0 -6.27069e-05 0)
(0 -6.29323e-05 0)
(0 1.76086e-05 0)
(0 -0.000117522 0)
(0 -8.29113e-05 0)
(0 1.63935e-06 0)
(0 -4.65478e-05 0)
(0 -0.000191634 0)
(0 -6.51097e-05 0)
(0 7.38989e-06 0)
(0 1.7632e-05 0)
(0 -0.000349843 0)
(0 1.71478e-05 0)
(0 -0.000219096 0)
(0 2.95468e-06 0)
(0 1.7552e-05 0)
(0 -5.98318e-05 0)
(0 -0.000488239 0)
(0 -0.000248599 0)
(0 -1.81081e-05 0)
(0 1.6229e-05 0)
(0 -7.71817e-05 0)
(0 -5.97893e-05 0)
(0 -0.000321543 0)
(0 -4.8076e-05 0)
(0 -0.000307896 0)
(0 1.73403e-05 0)
(0 1.74311e-05 0)
(0 1.7626e-05 0)
(0 -0.000283722 0)
(0 -8.40261e-05 0)
(0 1.69506e-05 0)
(0 -0.000202729 0)
(0 8.48457e-06 0)
(0 -0.000226441 0)
(0 1.63398e-05 0)
(0 -5.31981e-06 0)
(0 -0.000455709 0)
(0 3.03755e-06 0)
(0 1.64043e-05 0)
(0 -0.000347233 0)
(0 -8.35426e-05 0)
(0 -0.000374156 0)
(0 -1.16159e-06 0)
(0 1.62541e-05 0)
(0 8.29253e-06 0)
(0 1.70464e-05 0)
(0 -0.000233216 0)
(0 -0.000210607 0)
(0 1.74801e-05 0)
(0 -0.000172908 0)
(0 -7.81169e-07 0)
(0 -3.73948e-05 0)
(0 -0.000115646 0)
(0 -0.000381175 0)
(0 1.66168e-05 0)
(0 -9.77052e-05 0)
(0 1.67176e-05 0)
(0 -0.000372565 0)
(0 1.17613e-05 0)
(0 -0.000130499 0)
(0 1.68428e-05 0)
(0 -6.5966e-05 0)
(0 -8.5829e-05 0)
(0 -8.08742e-05 0)
(0 1.74285e-05 0)
(0 -0.000305791 0)
(0 -3.84383e-05 0)
(0 1.58471e-05 0)
(0 9.8178e-06 0)
(0 1.76024e-05 0)
(0 1.72149e-05 0)
(0 -0.000164701 0)
(0 -0.000423609 0)
(0 -0.000269696 0)
(0 8.06693e-06 0)
(0 -0.000308043 0)
(0 -2.5073e-06 0)
(0 1.02386e-05 0)
(0 -8.28857e-05 0)
(0 -1.52992e-05 0)
(0 -0.000251599 0)
(0 -0.000262448 0)
(0 -3.09632e-05 0)
(0 -0.000230316 0)
(0 1.76166e-05 0)
(0 7.46234e-06 0)
(0 1.60308e-05 0)
(0 -1.67256e-06 0)
(0 -0.000133247 0)
(0 1.76219e-05 0)
(0 -0.000103967 0)
(0 -0.000104556 0)
(0 -0.000200957 0)
(0 -3.35933e-05 0)
(0 6.62827e-06 0)
(0 -0.000408439 0)
(0 -0.000229204 0)
(0 -7.27882e-05 0)
(0 -0.000246169 0)
(0 -1.07106e-05 0)
(0 8.96168e-06 0)
(0 1.76051e-05 0)
(0 2.80536e-06 0)
(0 -0.000186578 0)
(0 1.08201e-05 0)
(0 -0.000247949 0)
(0 -0.000338878 0)
(0 -0.000178586 0)
(0 1.64763e-05 0)
(0 1.08122e-05 0)
(0 -1.55774e-05 0)
(0 1.01773e-05 0)
(0 1.56697e-05 0)
(0 -1.9041e-06 0)
(0 1.54503e-05 0)
(0 -0.000225313 0)
(0 -4.48746e-05 0)
(0 1.7578e-05 0)
(0 -0.000224286 0)
(0 1.66074e-05 0)
(0 -0.000297966 0)
(0 -0.000288851 0)
(0 -1.16688e-05 0)
(0 1.68736e-05 0)
(0 -0.000241066 0)
(0 2.97369e-06 0)
(0 1.7231e-05 0)
(0 1.3172e-05 0)
(0 -0.00014445 0)
(0 -6.05639e-05 0)
(0 -0.000105396 0)
(0 -8.9692e-05 0)
(0 1.55439e-05 0)
(0 -0.00017338 0)
(0 -1.15259e-06 0)
(0 1.75879e-05 0)
(0 -0.000122681 0)
(0 -0.000266692 0)
(0 -0.000273376 0)
(0 1.7175e-05 0)
(0 -0.000381619 0)
(0 -0.000491312 0)
(0 8.70029e-06 0)
(0 -0.000148269 0)
(0 -0.000320364 0)
(0 1.20425e-05 0)
(0 -0.000112534 0)
(0 1.03216e-05 0)
(0 1.03667e-05 0)
(0 1.76236e-05 0)
(0 1.72315e-05 0)
(0 -0.000429404 0)
(0 -0.000343512 0)
(0 -0.000247951 0)
(0 -0.000174515 0)
(0 1.23835e-05 0)
(0 -0.00016587 0)
(0 1.73278e-05 0)
(0 -0.000101091 0)
(0 1.75578e-05 0)
(0 -9.74558e-05 0)
(0 -0.000226918 0)
(0 -0.000163936 0)
(0 -0.000206527 0)
(0 -2.04968e-05 0)
(0 -0.000222321 0)
(0 -0.000379912 0)
(0 5.62953e-06 0)
(0 -0.00028839 0)
(0 -0.000104405 0)
(0 -0.000145434 0)
(0 1.76291e-05 0)
(0 -0.00010361 0)
(0 -0.000424868 0)
(0 -0.00035584 0)
(0 -2.97044e-05 0)
(0 -0.000254794 0)
(0 -0.00016777 0)
(0 -0.000315942 0)
(0 -0.000181371 0)
(0 -0.00035215 0)
(0 -0.000261719 0)
(0 -8.97612e-05 0)
(0 -2.43531e-05 0)
(0 -7.17738e-05 0)
(0 1.75576e-05 0)
(0 1.75924e-05 0)
(0 1.75636e-05 0)
(0 -0.000266046 0)
(0 -0.000141847 0)
(0 -0.000412974 0)
(0 -0.000298441 0)
(0 -0.000415628 0)
(0 -0.000255752 0)
(0 -9.32712e-05 0)
(0 -0.000293344 0)
(0 -5.49461e-05 0)
(0 -0.000187108 0)
(0 -0.000399118 0)
(0 -0.00019277 0)
(0 1.74991e-05 0)
(0 -0.000336406 0)
(0 -0.000295421 0)
(0 1.75521e-05 0)
(0 -8.19824e-05 0)
(0 -0.000164032 0)
(0 1.75368e-05 0)
(0 1.76251e-05 0)
(0 -0.000251233 0)
(0 1.63726e-05 0)
(0 1.70549e-05 0)
(0 -0.00017818 0)
(0 3.53401e-06 0)
(0 -0.00010496 0)
(0 -0.000204674 0)
(0 -3.70778e-05 0)
(0 -3.45489e-05 0)
(0 -0.000186112 0)
(0 -0.000130255 0)
(0 -9.12245e-05 0)
(0 -0.000258195 0)
(0 1.76314e-05 0)
(0 -0.00022853 0)
(0 5.09775e-06 0)
(0 -0.000115215 0)
(0 -5.19784e-05 0)
(0 1.75175e-05 0)
(0 -7.13183e-05 0)
(0 -0.000248554 0)
(0 -8.31776e-05 0)
(0 -8.4367e-05 0)
(0 -3.78736e-05 0)
(0 1.65801e-05 0)
(0 1.76085e-05 0)
(0 1.61741e-05 0)
(0 1.19401e-05 0)
(0 1.6626e-05 0)
(0 -3.8138e-06 0)
(0 -3.02588e-05 0)
(0 1.6829e-05 0)
(0 1.14158e-05 0)
(0 -0.000111778 0)
(0 -2.53646e-05 0)
(0 -1.47986e-05 0)
(0 -0.000332135 0)
(0 -9.05367e-05 0)
(0 -8.78612e-05 0)
(0 4.5298e-06 0)
(0 -0.000283438 0)
(0 -0.000389944 0)
(0 2.42187e-06 0)
(0 -0.000254481 0)
(0 1.68503e-05 0)
(0 -0.000237218 0)
(0 1.76236e-05 0)
(0 8.25358e-06 0)
(0 -1.31944e-05 0)
(0 -0.000415698 0)
(0 -0.000124146 0)
(0 -2.24214e-05 0)
(0 -7.18018e-06 0)
(0 -0.000145152 0)
(0 -1.04591e-06 0)
(0 1.30656e-05 0)
(0 -1.87103e-06 0)
(0 -2.99873e-05 0)
(0 1.69045e-05 0)
(0 1.6785e-05 0)
(0 -0.000328736 0)
(0 1.0501e-05 0)
(0 3.23836e-06 0)
(0 1.67303e-05 0)
(0 8.75024e-06 0)
(0 -0.000382286 0)
(0 -3.73727e-05 0)
(0 -6.9038e-05 0)
(0 -0.000160663 0)
(0 -9.02041e-05 0)
(0 -0.000223134 0)
(0 -5.99543e-05 0)
(0 1.64758e-05 0)
(0 -1.30636e-05 0)
(0 -0.000188546 0)
(0 1.04642e-05 0)
(0 1.16508e-05 0)
(0 1.76085e-05 0)
(0 1.67984e-05 0)
(0 -8.8555e-05 0)
(0 -0.000132516 0)
(0 -0.000453368 0)
(0 -0.000254596 0)
(0 -6.47292e-05 0)
(0 8.27799e-06 0)
(0 1.75716e-05 0)
(0 -0.000287113 0)
(0 1.69315e-05 0)
(0 -1.80899e-05 0)
(0 1.56964e-05 0)
(0 1.07803e-05 0)
(0 -2.35753e-05 0)
(0 -0.000138537 0)
(0 -0.00013676 0)
(0 1.76048e-05 0)
(0 1.75995e-05 0)
(0 1.95488e-06 0)
(0 1.73066e-05 0)
(0 -0.000319283 0)
(0 1.66169e-05 0)
(0 -0.000246163 0)
(0 -0.000279705 0)
(0 1.75802e-05 0)
(0 -3.79426e-05 0)
(0 -0.000327162 0)
(0 -0.000349226 0)
(0 1.25044e-05 0)
(0 1.76277e-05 0)
(0 1.63133e-05 0)