/*--------------------------------*- C++ -*----------------------------------*\
| =========                 |                                                 |
| \\      /  F ield         | OpenFOAM: The Open Source CFD Toolbox           |
|  \\    /   O peration     | Version:  v2012                                 |
|   \\  /    A nd           | Website:  www.openfoam.com                      |
|    \\/     M anipulation  |                                                 |
\*---------------------------------------------------------------------------*/
FoamFile
{
    version     2.0;
    format      ascii;
    class       volScalarField;
    location    "800";
    object      ddt0(k);
}
// * * * * * * * * * * * * * * * * * * * * * * * * * * * * * * * * * * * * * //

dimensions      [0 2 -3 0 0 0 0];


internalField   nonuniform List<scalar> 
9793
(
5.42214e-09
-7.76017e-05
-6.48831e-08
0.000481673
-9.67655e-08
-9.95254e-07
-6.9784e-07
0.000373695
-9.18293e-08
-0.00105899
-6.81678e-08
-7.0214e-08
1.10691e-07
-0.00121086
-2.2381e-07
-7.32971e-07
-4.61334e-07
2.11976e-07
0.000632449
3.87423e-08
4.88411e-08
8.22361e-11
0.000674969
0.000372228
-0.00166373
-5.26713e-08
2.59765e-09
7.46811e-08
3.44346e-08
-5.36555e-07
-0.000223433
0.000171655
-2.20698e-07
-2.55219e-08
-1.65677e-09
-8.19286e-07
-3.34196e-07
-3.77431e-08
0.000439211
-5.43419e-07
-4.56811e-07
-0.0111957
0.00235254
-3.03019e-08
4.36576e-08
5.21679e-08
0.00115005
-6.27623e-08
1.76833e-07
1.54494e-07
-8.25131e-07
7.05778e-08
-7.66923e-07
-6.43554e-08
-1.00086e-07
0.000489438
1.48768e-07
-1.24371e-06
1.67594e-07
2.10727e-10
-3.14721e-08
-8.1307e-07
-4.07068e-08
-1.20221e-06
2.8007e-07
-7.18299e-08
0.000301069
-4.50798e-07
-4.13411e-07
0.00270058
8.55168e-09
3.26197e-08
0.000652266
-0.000822029
0.00352517
-5.77765e-08
4.39035e-07
-0.00422463
-6.31792e-08
-4.92634e-08
-9.1015e-07
0.000800917
-5.39818e-07
-1.55568e-07
-4.21155e-07
1.19194e-06
-1.42388e-07
-2.37387e-06
0.000453888
-9.24763e-08
0.000535231
-0.00211545
0.00316237
-3.18615e-07
0.00235682
8.33565e-08
0.0036298
-4.11832e-07
-3.89858e-07
-7.4482e-08
0.000117502
-7.95678e-07
-0.000770513
3.72332e-08
0.00308616
0.00017866
-0.00143364
2.17802e-08
-3.58962e-08
-6.54967e-08
-3.39477e-08
0.000607335
8.20832e-06
2.99101e-05
4.20863e-08
-2.16218e-07
-3.40805e-07
1.52063e-07
0.000444587
3.79718e-08
0.00261154
-1.97433e-06
0.00306141
-8.78031e-07
-3.35133e-07
6.79694e-08
-4.86966e-07
-0.000254107
-0.000886455
0.000850294
-2.54699e-07
-4.40617e-09
2.98536e-08
-3.88352e-07
-6.50759e-07
-5.6118e-07
-0.00156039
-3.39045e-07
-1.75656e-08
-5.19188e-07
0.00117602
-7.6456e-07
2.05195e-07
-1.74229e-06
0.00167912
4.07394e-05
3.78529e-08
0.00357559
4.62101e-08
5.72155e-08
-9.26663e-08
0.00224664
-3.63477e-07
1.75943e-09
-8.15974e-09
0.00147364
-5.50397e-07
3.7594e-08
-0.000170703
2.77088e-08
-1.99675e-06
-3.49114e-07
6.13149e-08
8.66358e-06
-1.95652e-08
-0.0135258
0.00028943
-8.28295e-08
1.53249e-07
4.41137e-08
1.21371e-07
6.70104e-05
0.00350543
0.000860804
1.13236e-07
-1.56718e-06
-4.78526e-07
-6.86792e-06
-2.48109e-08
-4.34154e-07
0.00328232
0.00136311
-3.02471e-06
6.58215e-08
9.32098e-08
8.73932e-08
0.00207873
0.000562701
0.00348896
-0.000394554
-4.87569e-08
0.000267787
-1.6177e-06
-2.10747e-08
9.10472e-08
-8.82348e-08
-2.51199e-07
2.50818e-07
2.08685e-07
3.48218e-08
3.66578e-08
3.50409e-08
-9.20646e-07
-4.9981e-07
0.000225165
8.67808e-08
-6.11872e-07
-1.01083e-07
-3.5858e-09
-2.70356e-06
-5.39939e-07
0.00143854
1.49235e-07
0.00233571
-1.64296e-07
-2.103e-06
-1.70279e-07
-6.65684e-07
-1.70339e-07
3.83244e-08
-4.93418e-07
3.64365e-08
1.55901e-07
0.000646014
-3.03276e-07
1.14984e-07
-9.03587e-07
0.000140393
-1.04607e-07
7.30693e-09
0.000316761
-9.56956e-06
-1.92535e-06
-1.25251e-06
9.501e-07
2.11806e-07
0.00019957
-7.3831e-07
3.29636e-07
-3.15197e-08
-0.0140213
8.06466e-08
-6.54885e-08
-3.22997e-06
-5.91163e-06
-5.03364e-08
-4.42202e-07
-5.62367e-07
-2.27091e-07
-4.00349e-07
-5.13294e-08
-2.93691e-07
0.000174718
5.83909e-08
0.000771216
-1.09093e-07
1.86855e-07
1.00662e-07
0.000457663
2.15532e-08
-0.00366938
0.00242026
-8.26022e-08
-6.10664e-08
-0.00244922
3.19724e-07
-1.18671e-07
4.36234e-07
0.00210632
-7.25479e-06
5.37832e-09
-9.14705e-06
-1.30006e-06
-0.000231263
0.000732563
-1.47525e-07
-5.74744e-05
1.9945e-07
-1.92348e-05
4.85824e-06
0.000440837
0.00271504
1.46182e-05
-2.61222e-07
-4.78682e-07
-4.28472e-07
-6.83439e-09
-6.23279e-08
-1.3893e-05
-5.37533e-08
-2.77556e-08
2.8667e-08
2.63217e-07
1.34027e-07
4.10179e-08
0.000493819
1.31949e-07
-2.17573e-07
6.92589e-08
1.28908e-07
0.000102335
2.62907e-05
1.75952e-08
-3.87036e-08
-1.7519e-06
-9.5391e-08
-0.00447398
0.00215275
3.64685e-08
0.00284769
-1.09244e-06
4.88978e-09
-0.00122687
-0.00373939
-2.46065e-07
-3.32385e-07
6.13172e-06
-1.97164e-09
1.64225e-07
-2.21054e-07
-3.13124e-10
-1.72843e-05
1.7752e-07
-2.52313e-08
3.30151e-08
-3.82751e-08
-8.86813e-07
3.82979e-06
-4.00825e-08
-4.19115e-08
5.78003e-08
7.02821e-05
0.000862707
0.00104151
2.09194e-07
-2.94254e-07
4.13582e-08
-1.24175e-05
-1.10336e-06
2.65317e-07
2.80061e-07
5.8628e-08
-4.99126e-07
7.25187e-08
0.00160235
-1.89154e-07
8.47753e-08
0.0018965
0.000407532
0.00192261
1.32805e-07
0.000184461
-1.62773e-07
-1.23232e-06
0.00122451
0.000309806
-2.47895e-07
-6.17417e-07
-0.00237625
0.00045881
0.000592458
8.38617e-09
1.12754e-07
-8.29427e-09
2.10998e-07
-9.79427e-08
6.22022e-08
1.58527e-07
5.88459e-12
0.00239961
3.93544e-08
-4.66297e-07
-6.09092e-07
-0.009947
2.65355e-07
-1.96415e-07
0.000222289
2.81948e-07
-0.00120081
-9.19755e-07
1.92634e-07
-2.55207e-07
-3.36827e-08
-3.36562e-06
3.09202e-07
0.00188905
3.2956e-08
-6.75002e-07
0.00047953
0.000328856
-2.81571e-07
5.39392e-08
-0.00729088
-1.31017e-06
1.50427e-07
0.000691968
-3.33115e-07
2.02969e-07
1.78438e-06
2.98628e-07
-1.4711e-06
1.96802e-07
0.0011478
-9.38054e-08
-1.47524e-08
0.00225111
4.28385e-08
-2.85993e-06
-3.03969e-08
9.49742e-08
2.00399e-07
0.00339848
-4.45094e-07
2.68526e-07
-1.00676e-07
-1.24691e-07
1.27584e-07
-2.8736e-06
0.00188084
9.75593e-08
-7.9882e-08
-1.92493e-05
7.2799e-08
0.000189586
-3.50634e-06
9.27166e-08
-2.04405e-07
-8.21615e-08
-3.28921e-07
1.16712e-07
0.000110885
-7.78107e-08
-0.00570831
6.6957e-08
-2.67449e-07
-9.01522e-07
-3.83063e-08
0.000454217
-4.70279e-08
-4.77115e-08
-4.59357e-07
6.43801e-06
9.21523e-08
4.46212e-08
3.13182e-08
3.23247e-07
6.37558e-08
-5.15e-08
1.08996e-07
-1.41873e-07
-4.3279e-08
-4.15432e-07
-5.42655e-06
6.28462e-07
-5.89051e-07
-2.49725e-08
-6.53836e-07
0.000742638
-1.12533e-08
0.00220011
-6.03029e-07
9.77514e-08
1.23105e-07
2.58979e-07
0.00319063
-1.2573e-06
1.32407e-07
-2.29555e-07
1.88592e-07
7.69311e-08
-3.81727e-07
-0.00252583
2.91013e-07
4.69086e-08
-2.42166e-08
0.00093378
0.00038225
1.4883e-08
-4.14221e-07
0.000954295
-0.0144564
-0.000688708
7.8624e-08
-1.46355e-08
0.000244434
2.13274e-07
-9.32214e-07
-0.00880128
1.81338e-07
1.71657e-07
-5.10331e-07
0.000234568
1.92131e-07
0.000461695
3.80033e-05
-7.10637e-07
-0.00174802
1.6487e-07
-4.28132e-06
-4.59238e-08
1.17394e-07
-1.52022e-07
1.51307e-07
0.00317688
1.11504e-07
1.41767e-07
-3.09323e-08
2.0249e-07
-4.51798e-08
-2.79003e-07
-1.45659e-07
-1.11166e-06
-9.02784e-08
-3.63739e-08
0.000223459
3.11237e-08
1.44374e-08
0.00100267
-3.75879e-07
6.10063e-09
-6.53407e-08
9.83217e-08
0.00190817
1.55851e-07
2.62504e-07
-0.000413291
-0.0140546
-4.18985e-08
2.87992e-07
-9.01812e-08
-1.05015e-07
2.80079e-08
0.000395167
4.06411e-08
0.000482128
-2.69794e-07
9.13051e-07
-8.22204e-08
-5.11465e-05
1.72792e-07
-1.23467e-06
1.85562e-07
-4.94819e-06
0.000153894
-7.27419e-08
-0.00439146
-7.71008e-08
5.53773e-08
9.21562e-08
0.00357687
0.000223038
1.82083e-07
-5.32114e-07
1.99372e-07
0.00051072
7.14925e-07
-2.86019e-07
0.000554998
-2.44324e-08
4.17532e-07
-1.96929e-07
2.95433e-08
-1.0457e-07
5.50414e-08
-4.13132e-06
3.31935e-07
0.00112211
9.25641e-08
9.05319e-09
-1.48076e-06
2.95472e-07
-0.028452
-2.25192e-07
0.000269229
6.21663e-08
-3.06651e-07
-3.22494e-08
-3.95977e-08
1.46466e-07
1.621e-07
-8.19103e-08
-1.5896e-06
-1.9937e-06
-0.00325306
-3.74394e-07
-4.11521e-08
-1.31623e-07
-7.73103e-06
-4.18507e-07
0.000256244
0.00197107
9.95505e-07
-0.00516107
-0.0173348
-1.08527e-06
-1.32315e-07
3.06327e-06
-1.46747e-06
-4.44772e-09
-3.62424e-06
-1.62895e-08
-1.2322e-05
-1.82103e-07
8.50787e-05
5.16755e-08
0.000195241
0.00228813
-1.33067e-06
4.02948e-05
-1.41251e-08
4.0797e-06
5.82411e-08
2.03194e-07
1.33797e-07
-2.08652e-07
-3.72161e-07
0.000302511
-3.62779e-06
0.00192634
-4.15451e-07
-8.97071e-08
0.000158252
4.09276e-07
-4.94985e-07
-7.84676e-07
-1.88381e-08
1.08574e-06
0.00250562
1.53351e-07
-1.11248e-08
2.08729e-05
0.00224323
2.04116e-07
-1.13327e-08
0.00197074
-8.79618e-07
0.00061592
-3.30662e-06
-0.0102173
-1.17184e-07
-4.03311e-07
-6.31386e-08
-4.99253e-08
-0.0118384
1.18666e-08
-0.0206193
-8.15067e-08
-2.10586e-07
2.70506e-08
1.35421e-07
-2.44921e-07
-2.11173e-08
1.94894e-09
1.18949e-07
-7.9543e-07
0.00327967
-0.00182985
6.31796e-08
-3.47165e-06
3.01689e-07
0.00181331
-1.42221e-06
2.65375e-07
1.71671e-08
-8.50557e-06
8.94784e-08
-9.08979e-08
1.02979e-07
1.72565e-07
-6.0876e-08
-7.90133e-07
-0.000442015
3.70283e-08
-0.00520608
0.000587772
-4.54868e-07
-0.000182943
0.00072416
-1.27651e-08
-4.92036e-07
-8.38846e-07
-4.84372e-08
1.00735e-07
-2.37448e-08
0.000551034
0.00143405
8.21419e-08
3.66096e-08
-1.08159e-07
-3.51792e-07
-1.43602e-07
-1.5356e-07
-2.5556e-06
-1.43102e-06
-2.90297e-07
-0.0144869
-9.10116e-07
-4.09986e-08
-1.0818e-07
-8.93587e-05
-2.54907e-07
4.30732e-07
-3.5247e-08
7.91816e-07
2.35337e-07
1.31303e-07
-2.98333e-08
-5.04212e-07
5.41225e-08
-1.33253e-06
-0.000689574
-6.37623e-08
-2.68898e-06
-4.88118e-07
-4.21269e-08
-0.0233565
0.0012325
-0.00959829
-1.01547e-07
1.58806e-07
-0.00343463
-4.9613e-08
-0.0154155
1.18508e-07
4.17675e-08
-1.15879e-05
-0.000386524
-5.6555e-07
-1.70815e-06
1.27718e-08
7.07605e-08
3.31239e-08
-1.5557e-08
0.00214059
2.95273e-07
1.49588e-11
0.000390856
4.18029e-08
1.33529e-05
1.05571e-07
1.48708e-07
0.000942891
3.38549e-07
6.45993e-08
-5.86179e-09
-1.38416e-07
0.000407689
2.08882e-07
2.48824e-08
1.50591e-07
9.88383e-08
3.03329e-07
-1.11604e-07
-0.00907744
-1.30312e-07
-2.68633e-08
1.55355e-07
-1.17608e-07
-5.06174e-07
-7.22266e-07
6.13416e-08
-2.64678e-08
-5.86056e-08
-2.79124e-07
0.000194407
-0.00128323
-2.22295e-07
0.00172101
-1.38945e-08
-1.13628e-07
0.000251112
2.96472e-06
-6.07562e-08
1.74057e-07
-1.01973e-08
-9.67114e-07
4.30266e-07
-8.08754e-08
0.00162078
-1.05783e-08
-4.51589e-07
-1.99983e-07
2.90837e-06
-5.0327e-08
5.31524e-07
-1.22419e-07
-3.84032e-07
6.24396e-08
1.08337e-08
8.94498e-10
-2.56892e-08
2.47466e-07
8.78551e-08
3.54359e-08
1.43208e-07
-1.16533e-07
7.84635e-09
-6.29999e-07
-2.30986e-07
-1.4234e-06
-0.00156207
-4.89462e-07
-6.80959e-07
-1.56403e-08
5.40197e-08
-5.31825e-06
0.000849478
2.0514e-07
-0.000513658
-0.000312732
1.17948e-07
7.31816e-08
-2.41619e-08
-5.26334e-07
-1.66545e-06
6.00869e-06
1.65217e-07
-4.3906e-07
1.79823e-07
-3.95251e-09
4.99423e-07
-1.17502e-07
-8.74775e-08
6.2137e-07
2.69659e-08
7.79993e-07
1.25574e-07
-5.03913e-08
1.92254e-08
-1.71396e-06
3.24124e-08
-0.000441372
-0.00230609
-0.000289424
-8.32259e-07
4.26582e-08
-1.54817e-06
1.02142e-05
-1.73619e-06
-9.32289e-08
6.93015e-08
-1.64942e-06
-2.07493e-08
0.000444108
2.16762e-07
-9.07846e-07
-8.55408e-08
6.58956e-08
-1.90611e-07
-0.0107362
0.00218205
0.000505577
4.66066e-09
-5.86569e-05
2.28448e-08
0.00286494
0.00139749
-1.39707e-08
1.27363e-08
-6.53151e-08
-0.0222292
1.78153e-07
0.00129436
-2.39594e-08
-5.53661e-07
-5.92946e-08
0.000107165
0.00236254
3.22121e-07
-1.66359e-07
-7.1329e-07
3.99792e-07
0.000704979
2.82468e-08
-1.24511e-07
1.51324e-05
7.78615e-07
-0.00118622
0.00288007
-3.75244e-07
-2.42181e-07
3.4811e-07
-9.50579e-07
0.000553444
0.000131214
-4.45958e-08
5.55655e-07
-5.63337e-07
-3.62271e-06
-2.04481e-08
-0.000462426
-0.000709992
2.78861e-07
-2.84917e-08
-9.72337e-07
-2.63589e-07
-3.1315e-07
-0.000795637
1.49388e-07
0.000287167
7.67985e-07
2.63196e-07
-5.08622e-07
-1.49617e-06
-0.0237329
-3.09965e-07
0.0103012
-0.00641681
7.02522e-05
1.7827e-08
8.75489e-08
-3.08289e-07
7.667e-08
1.10215e-08
-0.00023253
-0.0168353
-8.88244e-08
-2.39773e-08
-1.03171e-06
3.89088e-06
-4.14108e-07
8.34721e-08
3.3789e-07
4.44369e-08
1.8883e-08
1.11867e-07
-2.02819e-06
3.3736e-08
-4.56906e-07
0.000706375
-4.60224e-07
5.74029e-08
-1.14405e-06
7.59277e-09
1.05713e-07
-2.40042e-07
-7.69553e-07
-7.93979e-10
2.80676e-07
-7.23922e-08
-0.00652981
-0.00713665
-8.07393e-08
-7.26652e-07
-3.27081e-09
1.03517e-06
3.21568e-08
0.00290749
-3.59788e-08
-1.05354e-07
7.14874e-07
4.56241e-05
-9.31554e-07
1.36258e-07
-2.67964e-09
0.00209385
0.000193178
-8.57507e-07
-2.07982e-07
2.18355e-07
-3.58115e-07
-2.27151e-07
1.60359e-05
-1.93369e-08
-0.019849
-4.62416e-08
-1.50467e-08
-2.45246e-07
4.80018e-07
2.56194e-07
9.5812e-08
1.19282e-07
0.0029795
4.51069e-07
4.84638e-11
1.98187e-07
-4.63034e-07
-0.00111557
0.000538923
-1.79864e-06
-0.000106809
1.5064e-07
-1.72117e-07
-4.05877e-07
-0.00356453
-2.22717e-08
1.82516e-07
0.000834326
-1.2504e-07
-4.37889e-08
4.42942e-08
-9.22055e-05
-0.0102578
0.00189651
6.7884e-08
-1.40967e-08
-2.1727e-06
-1.00577e-06
-0.000534376
-4.75296e-07
-5.20697e-07
6.08948e-08
-4.11829e-08
-1.78632e-06
-2.05079e-06
2.64824e-07
4.99955e-06
-1.07987e-07
2.00725e-07
-1.4829e-09
-1.32381e-07
1.29147e-07
-6.52342e-08
6.31316e-06
-3.86579e-07
-3.5471e-07
-3.05674e-07
-3.24936e-08
-8.25862e-08
-2.79339e-07
0.00256419
1.72051e-07
-3.5661e-07
-0.00216088
1.36741e-07
0.00261293
-1.75158e-07
0.000136271
-3.1332e-07
-6.14984e-08
4.15793e-09
-3.61273e-07
0.0020959
-9.20107e-07
-3.27328e-07
-2.34767e-07
1.16447e-08
5.18373e-09
-8.97164e-08
-1.3685e-08
-0.000472265
-5.27177e-07
-1.09944e-07
-2.49104e-07
-1.99169e-07
0.00289942
-3.31932e-07
0.000154611
5.15767e-09
-8.20033e-07
-1.06807e-06
6.47838e-08
-6.54785e-07
-7.92116e-08
-0.000692052
-5.02905e-05
3.43661e-09
0.00163993
-9.36468e-07
-1.15688e-07
-1.04937e-08
1.60737e-08
-6.56191e-08
-3.52947e-08
0.00163838
-1.04599e-06
1.7066e-08
-3.98877e-05
-8.18706e-08
8.16809e-05
-3.37387e-06
2.8062e-07
0.000479561
3.25333e-07
1.50833e-07
-1.93286e-08
-0.00109543
-0.00517276
-1.38952e-06
-1.53043e-08
2.47039e-07
-8.97996e-07
5.50989e-08
-3.17386e-07
2.14298e-07
4.85626e-08
-9.30598e-08
0.00259321
-3.87788e-08
4.71771e-08
-1.76012e-07
5.20741e-08
1.86266e-06
-5.8491e-07
-1.1053e-06
-1.36216e-07
-3.58869e-07
0.000509328
0.00196282
-1.44134e-07
-1.4278e-07
-1.40285e-07
-1.67865e-07
0.00225937
-0.00530937
-3.25463e-06
-1.33319e-07
1.19177e-08
0.00129036
-0.00505229
-1.10055e-07
-0.00321857
1.60336e-07
-5.54338e-07
0.000285569
8.64174e-08
0.002335
0.00196441
-6.41063e-07
-0.000348371
0.0020437
-7.65532e-09
-3.22176e-08
1.22612e-06
0.000313737
-1.16315e-08
-3.49673e-05
-3.95769e-07
4.71967e-08
4.07866e-08
-3.56006e-07
-8.16971e-07
-4.59875e-07
-9.42707e-08
-0.000427441
-5.30398e-07
-9.75144e-09
2.37006e-07
1.45495e-07
-4.3492e-06
-1.04298e-07
1.71827e-06
-3.41305e-07
-6.45859e-08
-1.41748e-07
6.36814e-08
6.25228e-08
-7.69138e-08
8.87131e-07
-2.10306e-07
1.49621e-07
0.000127234
-0.000103702
-1.90503e-06
-3.87986e-08
-4.15182e-07
-8.12577e-08
1.98602e-07
0.00317985
-0.0154057
2.63329e-07
1.07996e-07
0.00254211
0.000123831
-3.41408e-07
3.63438e-08
0.00073095
-4.28367e-07
1.87433e-08
-1.85645e-07
2.6789e-07
4.06094e-08
2.98444e-07
-0.00134232
-0.00836673
-1.45256e-07
-1.82133e-06
-1.20725e-06
0.000184375
0.000907718
0.00117884
-6.8028e-06
2.81326e-08
-1.5249e-07
-1.44081e-07
2.43035e-07
8.32756e-08
1.96783e-07
3.3244e-08
-6.34852e-07
-0.024117
-1.53609e-07
0.000273317
1.92712e-07
0.000361962
8.35114e-08
-2.49648e-06
-9.57034e-07
-8.46716e-06
4.90671e-06
-3.70484e-07
3.18048e-07
0.00155755
-5.41625e-07
0.000465147
2.47877e-07
0.00193475
-2.03403e-07
0.000905993
6.83937e-06
-2.66175e-07
3.62149e-08
2.62376e-07
0.000621846
0.00224049
-9.77098e-07
3.49485e-07
-0.0240598
-3.47542e-07
-7.93201e-07
-0.00239457
-1.02895e-06
4.02709e-08
0.00234623
4.51487e-08
-1.02174e-06
1.13103e-07
-0.0114382
1.03785e-07
-1.81734e-07
-1.89695e-05
-1.2408e-05
8.47443e-08
-4.50375e-07
-3.02865e-07
2.25146e-06
1.39479e-07
-4.14158e-06
-7.44049e-09
-1.25549e-07
2.03907e-07
2.40155e-07
0.000204753
-8.74069e-07
0.00100566
0.000366204
0.000158053
-3.5576e-08
-2.63696e-08
-4.81018e-08
-5.19216e-07
-8.59414e-07
-7.04447e-07
0.000664749
-3.79949e-07
-0.0190728
-2.39286e-07
-3.89188e-09
3.48777e-08
-1.94901e-06
-1.95324e-05
-0.000100876
8.8006e-08
0.000421631
1.97419e-07
0.00355466
-5.45045e-07
-1.04163e-06
1.29763e-08
1.19305e-07
-3.09246e-07
0.000930815
-2.96999e-07
1.25373e-08
-3.6472e-07
-7.66458e-07
-9.83527e-08
-1.88412e-06
0.000495489
-3.45876e-06
-2.67729e-07
-5.38126e-07
0.00126024
1.51511e-07
5.18857e-08
-1.75256e-07
-8.87564e-06
-1.97335e-07
-2.94795e-08
-6.59894e-07
3.00797e-07
-1.48826e-07
0.0004003
5.44936e-08
-5.26011e-07
1.60267e-06
-0.000373969
-9.81101e-06
2.06815e-07
-6.51128e-09
-0.0195103
7.73993e-08
-1.70028e-07
-1.55257e-06
-3.5937e-07
3.8601e-08
-0.00179584
-2.67635e-09
5.49321e-07
-1.05168e-07
3.93101e-08
-8.89918e-08
-1.90677e-07
-7.69808e-09
-4.48764e-07
0.000950766
1.17223e-05
-6.29505e-08
-8.78139e-09
-1.6075e-07
0.00137888
3.80351e-06
1.39767e-05
-9.00888e-07
8.40781e-08
2.98428e-08
0.000838688
-1.1867e-07
0.00276256
-6.33336e-07
0.000780676
2.8907e-07
1.69376e-07
9.29823e-08
-4.72116e-07
-2.34927e-06
-7.04963e-08
-9.48024e-05
-0.000538474
3.24339e-05
6.04115e-08
-3.06314e-07
-2.19344e-07
-2.43385e-06
-4.89796e-07
-4.7068e-07
1.37296e-07
-3.76675e-08
2.10921e-08
-2.03089e-06
1.671e-07
-2.61819e-07
1.4113e-07
0.000315828
0.00355258
-1.61117e-06
0.000757055
6.91071e-08
-2.2478e-08
1.58218e-07
1.27651e-06
-2.41874e-07
-3.84181e-07
-3.02389e-07
-0.00622045
-5.20727e-08
2.78129e-07
-1.79705e-07
2.50148e-07
0.00136336
-8.38614e-08
1.60094e-06
1.68853e-07
-2.92159e-09
-0.0019557
-7.32442e-08
-6.50307e-08
-5.49759e-07
-7.90474e-07
0.00303633
0.00240508
-4.64793e-07
-2.77501e-06
-1.60072e-06
-0.00873589
-7.58543e-08
0.00336172
0.000397294
-8.12989e-09
-5.57075e-07
2.43316e-07
-3.32255e-07
2.70214e-07
-4.39387e-08
-0.00103676
-1.09249e-07
2.26453e-07
-1.0644e-06
-2.38333e-06
0.000122113
1.79385e-05
-1.72055e-06
9.44429e-05
2.70683e-07
9.60809e-08
-1.25222e-07
6.53845e-08
-0.0113044
-5.95316e-08
0.000481539
-2.17369e-07
0.00131086
-1.6855e-08
5.13854e-08
7.9723e-09
2.2702e-08
-2.26247e-07
-9.85756e-08
2.13408e-08
-1.44397e-05
-9.05859e-09
-1.76602e-06
-6.65472e-09
-0.000206215
2.01077e-08
2.5886e-07
-1.51895e-07
-6.37616e-07
2.24718e-08
7.5439e-08
-1.81214e-07
-7.17641e-08
-2.30449e-07
-1.28946e-07
-2.91984e-07
5.35782e-08
0.00257692
0.000452718
0.00155434
0.000189158
9.48846e-08
2.34811e-07
3.30298e-08
-1.50962e-07
-8.40505e-08
9.76269e-08
-0.00655101
8.05991e-08
4.57574e-10
1.65971e-07
-2.21734e-07
-1.91659e-08
0.00151047
-3.33587e-07
1.49147e-07
0.0010934
-1.31391e-06
-1.3229e-07
0.00145887
0.000400014
-3.17777e-08
-1.75326e-05
1.24694e-05
-8.10767e-08
-9.96079e-08
-1.30897e-09
1.63391e-07
-1.72553e-07
7.49942e-07
-1.83809e-06
2.30337e-07
2.03091e-07
-3.84235e-08
0.00119615
-8.00871e-07
-3.84614e-07
2.61462e-07
1.865e-08
0.00183732
-2.30584e-08
9.89323e-08
-2.81394e-07
-3.30347e-07
-4.89729e-08
-5.20824e-06
0.00140885
-0.000137212
-0.00128583
-1.93012e-07
-2.16448e-07
1.43329e-07
-0.010809
-4.16894e-07
-1.74369e-07
-7.76647e-07
1.29188e-10
-2.66587e-08
2.9826e-07
0.00181548
-4.27551e-07
2.67476e-07
-1.48599e-07
-1.70662e-06
1.49438e-07
-1.38375e-06
2.97784e-07
1.45789e-06
-1.37244e-06
-0.0180871
8.03675e-08
1.21613e-08
1.45059e-08
-1.5313e-07
-1.08848e-07
-3.16151e-07
-2.55203e-08
-0.0163083
5.07068e-07
-8.53818e-07
0.00172264
1.78764e-07
0.000922744
-2.10115e-07
9.66367e-08
-4.30366e-07
4.272e-08
-2.11506e-07
-9.32238e-07
-1.12939e-08
-4.98998e-07
2.88026e-07
-0.00802164
0.00233746
-1.68124e-07
1.3065e-07
-6.5362e-07
7.36948e-08
-7.48529e-07
6.05086e-07
-3.07234e-07
-8.25293e-07
-2.37751e-08
2.14184e-07
-9.44594e-07
5.102e-07
0.000100694
8.08067e-08
5.74405e-07
9.28205e-07
-0.0041669
-3.71644e-07
0.00201853
1.48419e-07
-1.59397e-08
9.41935e-06
2.56558e-06
9.40663e-08
-8.53611e-05
-1.08421e-07
4.18782e-06
-7.85884e-08
-3.01397e-08
0.00033954
-0.0167304
-3.66088e-07
-9.4307e-08
-4.84744e-08
-5.23106e-07
-9.11286e-09
-1.93144e-07
1.3416e-07
1.21912e-07
-9.28739e-08
5.902e-07
0.00214901
-8.28132e-08
-1.21147e-06
-0.000867236
-4.96568e-07
-1.44498e-06
0.000463227
0.000224249
0.000630011
-2.24095e-07
-5.87047e-09
0.000268889
3.20749e-08
-1.59794e-07
1.8261e-07
0.00211091
1.33313e-08
1.74163e-09
0.000309942
1.79503e-06
7.80061e-07
0.00196302
0.000643071
1.24419e-05
1.40903e-07
4.30894e-07
-4.40781e-08
-2.29e-07
0.0117055
2.30611e-08
-2.84659e-06
-2.53604e-05
-9.28317e-08
-4.3394e-08
-0.00848817
8.14586e-08
-9.3974e-07
7.96987e-08
6.34318e-08
0.000604485
-0.00215834
1.91069e-07
2.1581e-07
-1.75898e-06
-0.00421765
-6.05991e-07
0.00137725
-1.06078e-07
-8.52077e-08
-1.2731e-07
4.34662e-07
-4.23214e-08
-2.34371e-08
4.42837e-08
-0.00389465
-1.25479e-07
1.70799e-05
-1.34742e-07
-1.11882e-07
2.25267e-07
-0.000103854
2.68931e-08
1.87679e-07
-2.70268e-07
-5.20276e-09
3.36421e-07
0.000104161
-0.0116632
0.000241863
-6.01861e-06
0.000776763
-3.57364e-07
-4.31238e-08
0.00256092
-3.71028e-07
-8.00576e-06
-0.00038064
1.72693e-07
0.00149413
0.000203171
-3.7988e-07
-6.23458e-08
-2.06583e-06
-1.42921e-07
8.28326e-07
-2.75034e-07
0.000464163
-2.20858e-08
-1.60742e-07
-7.62249e-08
-4.52257e-06
-4.63612e-07
-5.6413e-07
4.08848e-05
0.000408538
7.48456e-09
-1.42524e-06
-2.91113e-06
-3.71379e-07
-9.25472e-07
0.00111575
-1.90145e-07
-6.42127e-07
0.00304861
-1.02848e-06
-1.40871e-07
1.95617e-07
-8.97929e-07
-1.05062e-06
-3.91882e-07
-2.29825e-08
-0.00398299
-6.40789e-07
0.000269129
-4.54527e-05
0.000234939
-1.48459e-07
2.99599e-06
-0.00240615
1.94639e-07
-0.00670011
0.000703847
-0.0131887
-1.91478e-07
2.16342e-08
-0.00170235
-0.0150291
2.53065e-07
-1.1901e-07
-4.49048e-08
1.3392e-07
-3.90252e-06
9.93676e-09
0.000385772
-0.000433932
0.000733174
-0.00871304
2.17009e-07
-8.9763e-07
6.11698e-10
1.30033e-07
4.78832e-09
-8.37324e-07
-5.66523e-07
3.77585e-07
0.000410107
-2.90531e-08
-5.82536e-07
-8.12871e-07
-2.63446e-07
-1.30529e-06
2.67113e-08
0.000309693
0.000302003
9.81546e-05
-0.000384405
-8.60992e-05
0.000524566
0.000276472
0.000278358
-9.783e-07
-3.33678e-08
-6.22307e-07
-1.81037e-07
-0.000877541
-0.00959126
-9.1665e-08
9.55499e-07
0.000557135
0.000564189
-4.25667e-07
6.27996e-05
3.04401e-08
1.32861e-06
0.00317915
-0.000434252
8.83773e-09
0.000166892
-1.80659e-06
-1.95268e-07
-1.76754e-07
0.00106243
0.00175264
0.00188926
0.00225489
-7.1477e-08
-0.0070492
0.000396817
-1.65407e-07
1.68008e-07
-5.0283e-08
9.0436e-08
-4.90961e-07
0.000355146
0.00167522
-4.4367e-07
2.07506e-07
-0.0013631
-1.42787e-07
0.000280201
-4.18697e-07
4.44726e-06
0.000266921
2.55321e-08
-0.00283808
-9.9229e-09
-9.91351e-07
1.51043e-07
7.4171e-07
6.75727e-07
-2.88111e-07
-2.12468e-06
2.40861e-07
-0.00174532
-3.46199e-06
-0.018298
0.00184611
0.000540144
-3.09714e-09
0.0033629
1.11171e-06
0.000384103
-1.54333e-07
-8.88249e-08
-0.000451176
-1.07243e-05
0.00130654
1.0243e-07
1.6714e-08
5.18395e-07
5.21845e-05
0.000162861
-1.94083e-07
-0.0379435
9.23703e-08
5.3773e-08
-0.00010123
9.79405e-08
-0.00632382
-5.90977e-08
-7.70415e-07
0.000474168
0.00147222
0.0003073
-3.42999e-05
0.000308676
0.00039153
-0.0174443
-3.55183e-08
0.000373952
3.59694e-07
1.98894e-07
1.84923e-07
1.32026e-07
0.000115254
9.11558e-09
0.000300902
0.000292375
-1.58521e-06
2.03713e-07
-7.17459e-06
0.000164842
-7.61517e-08
0.000519989
0.0001193
-1.31039e-06
-2.31468e-07
9.6696e-08
-0.0168824
-5.0398e-07
1.08254e-05
2.39108e-05
0.00211323
6.62477e-07
2.42054e-07
-3.80582e-07
3.78384e-07
1.10654e-07
-1.06039e-07
-4.73756e-07
0.000297438
-6.86397e-07
-3.78729e-07
-4.82053e-05
-3.57278e-06
3.62523e-05
-0.00778527
0.000241728
-1.96202e-06
0.00102131
-9.41624e-05
0.000192185
2.00884e-07
-7.86974e-07
6.78366e-08
9.37091e-07
-3.65145e-07
-2.61923e-06
-1.02747e-09
-3.22239e-08
7.24093e-08
-1.83454e-06
-0.000234033
-5.88401e-07
4.81845e-07
-4.85195e-07
-0.0074405
-8.57771e-10
-2.49441e-07
-3.43566e-07
0.000368746
-7.68199e-07
4.78272e-07
7.61517e-08
-5.64758e-08
-1.63274e-06
-1.59334e-07
1.56489e-07
-2.98356e-07
-4.86095e-06
6.11963e-08
-3.05985e-07
2.13544e-07
-0.00246662
7.02046e-08
0.000798926
4.69723e-07
0.00029681
1.73854e-08
5.24215e-09
2.77091e-07
-9.26157e-07
-1.33907e-06
0.000198593
0.00309609
-1.00515e-07
-6.62108e-08
3.64389e-08
0.00340197
-0.00344409
-2.04848e-08
-5.37539e-07
0.000278341
-3.60581e-07
8.39161e-08
6.17922e-08
-1.24752e-07
-2.44098e-08
-0.000110601
-4.4374e-07
1.84262e-07
0.00106059
-3.66514e-08
6.45664e-08
2.71819e-07
1.3479e-07
2.38413e-07
-3.74428e-07
0.000801883
-1.63879e-08
-2.62403e-08
9.58787e-09
-3.47626e-07
3.70633e-08
8.48484e-08
1.35539e-05
1.23779e-05
-4.61251e-07
5.3922e-08
0.000963041
4.74113e-08
-4.48708e-08
4.26131e-07
-2.22759e-05
0.000819283
-2.73382e-07
0.0015811
-0.000843398
-4.0658e-07
0.000399768
-0.0102227
0.000287654
-0.0158528
-1.51463e-06
-2.37399e-06
6.85045e-07
-3.63655e-07
3.66875e-07
-3.3004e-09
-9.26746e-07
0.00224315
-1.90897e-07
0.00295187
3.67697e-08
2.9702e-07
-4.58674e-07
-1.66985e-07
3.439e-07
-0.00681325
0.00168759
0.000756803
0.000417012
3.73161e-08
-3.31009e-06
0.000316674
-5.99306e-07
-0.0110025
1.76582e-09
8.30085e-08
0.000540085
-1.26657e-06
-7.64445e-08
-6.46944e-07
-8.9685e-07
-4.45818e-08
0.000357528
-0.000150781
3.62254e-08
2.10055e-07
2.89041e-07
-2.75128e-08
0.00118723
-8.28808e-08
-3.79425e-07
1.02647e-07
-6.89222e-08
7.28124e-08
2.03719e-08
-0.000259253
-6.04477e-07
-9.96944e-08
1.9365e-07
-5.41205e-07
-3.86896e-07
-1.54595e-08
0.00029923
6.07763e-06
-4.95972e-07
-3.17409e-07
-1.44934e-07
1.95867e-07
-1.18308e-06
0.00310433
-2.2855e-07
0.000323665
-0.00524264
1.76691e-07
-2.74699e-07
-6.37089e-07
-4.55099e-07
-1.03346e-07
0.000721462
-3.09195e-07
-2.48691e-08
-1.95102e-08
0.00178339
-0.0125855
-1.12867e-07
5.94756e-07
-1.14853e-07
-5.91604e-07
-7.3455e-06
3.6783e-05
1.64614e-07
-3.92138e-08
0.000908281
2.97226e-08
2.24442e-08
6.01173e-08
-1.00866e-05
-9.44248e-05
-1.13627e-07
7.50031e-05
-9.85899e-07
-1.75664e-07
-0.00508466
2.4166e-07
0.000700666
-8.65329e-07
2.21704e-07
-6.52242e-06
-4.95404e-06
-8.77345e-08
-1.78489e-07
-1.67071e-05
-6.19066e-09
-6.53926e-08
3.05377e-05
-1.04509e-07
2.68012e-08
0.000261665
-4.80196e-07
-1.90894e-06
0.000797653
5.48352e-07
-0.00469403
0.000401608
-4.73216e-07
-2.36015e-06
-9.69214e-06
1.90889e-09
-7.42146e-07
-4.28284e-09
0.000278073
-1.77969e-07
1.18876e-07
-0.0186064
0.00163302
6.46228e-08
1.0155e-07
-4.39761e-08
-1.65267e-06
-9.59916e-05
0.000180959
6.48201e-08
-4.05094e-07
-0.00019879
-3.30465e-07
-1.3716e-06
-2.17215e-06
-2.10216e-07
0.00185937
3.42154e-05
-1.54501e-07
-1.19188e-05
-0.0121328
1.60976e-08
-0.00129623
1.50659e-08
2.53493e-07
1.04719e-08
-7.42467e-08
0.00244594
3.17654e-07
-1.21881e-06
0.0262388
0.000424826
3.51454e-08
-3.26682e-07
1.16293e-07
4.5454e-05
-6.22417e-08
-0.00353937
-6.94755e-07
-4.2968e-07
-8.63695e-07
-2.27823e-07
-4.76034e-07
9.93095e-08
-1.44693e-07
-0.00112851
3.82116e-07
6.76626e-09
-1.04366e-07
0.00250608
-1.4835e-07
-2.18735e-07
2.03035e-07
-4.26403e-07
2.66822e-08
-4.1772e-07
0.000203091
-0.0211682
-2.92639e-07
-3.06169e-08
3.38413e-07
-5.18904e-08
-5.02792e-07
0.0004593
0.000379912
1.60375e-07
-0.00101625
-1.52467e-07
-4.78108e-06
-6.74155e-05
2.74377e-05
-1.57317e-07
4.70329e-07
-1.17835e-06
0.00068825
1.58502e-07
-1.34956e-08
0.0012711
-1.16896e-06
4.02989e-08
-0.0109331
1.75719e-08
4.10124e-08
-1.48648e-07
0.00325152
-1.59884e-08
-0.00498343
3.4588e-08
-0.00292686
-2.24516e-08
7.30524e-07
0.000458867
-2.58067e-07
8.31169e-08
-1.50482e-05
2.17673e-08
7.53142e-07
-0.00377387
-5.78987e-06
-3.55137e-08
-1.61353e-07
-7.99069e-09
-4.88035e-07
-3.95489e-07
-0.00726921
4.98644e-08
4.72743e-08
-2.1098e-07
-3.10461e-07
-1.02976e-06
0.000154866
1.84676e-05
9.7271e-08
1.2538e-07
3.43869e-08
-0.00078082
-0.0200261
-2.76735e-07
-4.18652e-09
3.07608e-07
-3.22481e-08
0.00195307
-2.15061e-08
-5.76854e-07
0.00100325
-1.46037e-06
6.12682e-08
-7.29803e-08
-1.3355e-06
-1.6116e-07
-4.19432e-07
-6.25535e-07
3.82985e-06
-1.89125e-07
-3.14283e-07
0.00107427
-0.000253492
-0.0196397
-1.45104e-07
-6.46186e-08
-3.21143e-07
3.17775e-08
-8.00243e-07
-6.19745e-07
-7.53327e-07
-1.37526e-06
0.00230171
2.731e-08
6.87534e-08
1.13306e-05
6.83645e-08
-0.00024808
1.41684e-05
-2.34359e-07
1.1216e-08
-9.99868e-08
-8.55704e-08
-2.3738e-08
-1.03873e-06
1.41027e-07
7.07235e-09
2.00041e-07
-1.9737e-07
-1.94368e-07
-1.20194e-07
-4.45513e-09
-1.48714e-06
-1.17156e-07
-1.09343e-07
-1.0226e-07
3.3577e-08
-2.98956e-08
-1.47103e-07
8.86236e-08
2.56646e-09
-3.82897e-07
8.90417e-08
-2.1849e-07
-6.55686e-08
-6.81409e-07
-0.000107364
0.00300123
0.000303898
0.002941
0.00221783
-4.10871e-06
2.0556e-07
-3.90808e-07
-6.9024e-09
-0.000828766
-1.14916e-07
-1.66903e-07
-6.21671e-08
-6.49204e-07
1.23065e-07
-7.95747e-07
2.11489e-07
-0.000431406
-4.25559e-07
8.04018e-08
0.00262092
0.00199685
-2.80573e-09
-2.80186e-06
1.01369e-07
1.98843e-07
7.37044e-05
-1.15333e-07
-4.44163e-07
7.43373e-07
6.55957e-08
2.41425e-07
-4.74803e-07
0.000254043
3.3742e-08
-3.53616e-07
-1.19058e-05
-1.41699e-08
0.000636429
-6.36392e-07
-0.00901057
1.47306e-07
0.000406741
1.3666e-07
1.74919e-08
-3.20205e-06
-7.66025e-07
0.000942681
0.000258103
-3.76817e-05
0.000525223
-0.00787603
-4.49121e-07
-2.83829e-07
-0.000101239
4.41407e-08
3.94741e-08
3.47008e-08
7.20191e-08
2.44753e-08
1.47246e-07
1.33395e-07
-2.05826e-06
-0.00169989
0.000374488
-2.4322e-06
0.00232341
-3.59578e-07
-4.52472e-08
-4.96662e-07
-1.31281e-07
-1.15389e-06
-5.43299e-08
2.69218e-07
1.41669e-07
-3.87941e-07
7.98779e-09
-4.68443e-08
-4.5338e-06
-4.49972e-07
4.70421e-08
-9.08352e-08
3.2541e-08
0.000841836
-0.00029958
-4.35251e-07
-9.12598e-07
8.21164e-08
-0.00723752
-0.0016082
-3.12355e-08
-5.40169e-08
-3.24965e-07
1.05002e-07
-0.0198685
-5.20012e-06
9.56142e-05
6.05285e-08
-5.53259e-05
-4.50985e-08
0.000182966
-5.99398e-07
1.92924e-07
-4.49833e-07
-0.0128081
-3.76617e-08
-4.13439e-07
-9.21106e-07
-6.07915e-07
0.00306672
1.82595e-07
-6.62291e-08
-1.74376e-07