/*--------------------------------*- C++ -*----------------------------------*\
| =========                 |                                                 |
| \\      /  F ield         | OpenFOAM: The Open Source CFD Toolbox           |
|  \\    /   O peration     | Version:  v2012                                 |
|   \\  /    A nd           | Website:  www.openfoam.com                      |
|    \\/     M anipulation  |                                                 |
\*---------------------------------------------------------------------------*/
FoamFile
{
    version     2.0;
    format      ascii;
    class       volVectorField;
    location    "800";
    object      ddtCorrDdt0(U);
}
// * * * * * * * * * * * * * * * * * * * * * * * * * * * * * * * * * * * * * //

dimensions      [0 1 -2 0 0 0 0];


internalField   nonuniform List<vector> 
9793
(
(0.000342543 -0.000864516 -1.63592e-17)
(0.0655418 -0.00634702 5.7875e-17)
(8.06068e-05 0.000528819 9.04811e-18)
(-0.00435372 -0.00490323 -4.09625e-17)
(4.86423e-06 -0.000180667 -2.60731e-18)
(0.00345151 0.0283265 7.74879e-18)
(0.0130716 0.00720523 -1.70343e-17)
(0.0138334 -0.0022818 -5.84552e-17)
(-0.000159042 0.000990773 5.42007e-19)
(0.0229589 -0.00326463 -4.19254e-17)
(4.0643e-05 -0.000211087 7.98887e-21)
(4.55086e-05 -0.000207082 -1.86821e-18)
(-1.95474e-05 0.000444521 8.29298e-18)
(-0.0386904 0.0302166 1.67094e-17)
(-0.000460886 0.000297118 6.87978e-19)
(-0.00811069 -0.00155411 9.67972e-19)
(-0.000102434 0.0143465 6.25685e-18)
(8.89679e-05 0.000544141 -1.67604e-18)
(0.00430573 -0.00895058 -4.11356e-17)
(-0.00018284 -0.00010497 -1.91812e-20)
(-0.000507927 -0.000136399 2.36961e-19)
(-1.16956e-06 -3.92735e-05 5.01135e-18)
(-0.00617832 0.00187408 -5.54896e-18)
(0.0146148 -0.00227943 -4.91933e-17)
(-0.0436118 0.0320478 2.47115e-17)
(0.00173771 -0.00210083 1.46516e-18)
(9.33345e-05 -3.69255e-05 -9.35195e-20)
(3.58701e-06 -4.90409e-05 5.59208e-18)
(-0.000189722 -0.00010605 -6.71417e-20)
(0.00822794 0.0139568 2.06854e-17)
(-0.00614194 0.000643757 -4.01638e-18)
(0.00089377 0.0302792 3.75878e-17)
(6.83368e-05 0.000381825 3.23801e-18)
(8.346e-05 0.000546172 -1.02279e-17)
(-0.000140701 1.86001e-05 1.08098e-18)
(-0.00529846 0.00580682 -6.98941e-18)
(-0.00592827 -0.000738872 -1.47718e-19)
(-0.000117703 -0.00234616 -2.80196e-17)
(-0.00419597 0.00812193 4.48963e-17)
(-4.95865e-05 0.00698546 1.48736e-18)
(0.007648 0.0132672 -2.72124e-17)
(0.141754 0.00372974 4.95432e-17)
(0.0107794 0.00329105 -4.11102e-17)
(2.28741e-06 -3.52009e-05 -7.24718e-18)
(4.25405e-06 0.000525406 -1.80956e-18)
(1.40669e-05 0.000199176 1.21618e-18)
(-0.00700557 -0.000240212 -2.10695e-17)
(6.09573e-06 -6.10908e-05 -4.60793e-18)
(-0.000936091 -0.000517102 -1.35192e-18)
(8.24514e-05 0.000548159 6.53249e-18)
(-0.00569421 0.00551803 -1.56951e-17)
(-0.000158123 2.10348e-05 -3.23931e-19)
(-0.00374389 0.00999214 -1.0155e-17)
(6.54386e-06 -0.000116964 3.09221e-18)
(0.00395443 -0.00269276 -3.05567e-20)
(-0.00507114 -0.00396022 -7.66982e-18)
(-2.25449e-05 0.000413469 -1.19094e-18)
(-0.0146755 0.0228191 1.34356e-17)
(-0.000963562 -0.00045494 -1.05963e-18)
(2.15846e-06 -3.32919e-05 -1.39181e-18)
(0.000426411 -0.00284222 -3.6554e-21)
(0.0103434 -0.00765746 1.08302e-17)
(7.74951e-05 0.000556155 -2.27372e-18)
(-0.0121083 0.00516696 -2.51845e-17)
(-3.24049e-05 6.33332e-05 1.40556e-19)
(-0.000209799 0.000875259 -4.34513e-19)
(-0.0188514 -0.000943512 -6.51358e-17)
(-0.00149512 0.00343221 1.58932e-18)
(-0.00651499 -0.00138604 -1.37392e-18)
(0.029589 0.00684419 2.82646e-17)
(0.000151509 -0.000155417 -8.17055e-19)
(-0.000580143 -0.010684 1.13515e-16)
(0.00917977 -0.000606019 -2.29793e-17)
(0.0160627 0.0848223 -1.98627e-17)
(0.0460271 0.0179613 -1.58096e-19)
(3.30772e-06 -0.000106228 3.79514e-18)
(0.00371857 -0.00621996 6.08396e-17)
(0.121614 0.00194564 1.72288e-17)
(6.18109e-05 0.00048332 5.66418e-19)
(3.18691e-06 -0.000128358 -2.02264e-18)
(0.00356045 -0.00647233 -9.39603e-17)
(0.00569042 -0.00724151 -5.08814e-18)
(-0.000939034 0.0138933 2.41859e-18)
(0.00196064 7.84017e-05 -6.33972e-18)
(-0.00649085 -0.000878607 -1.16569e-18)
(0.0147268 0.0203368 -4.34993e-17)
(5.0929e-06 -0.000167369 -5.34611e-18)
(-0.0230103 0.0136264 2.38028e-17)
(-0.00475128 0.00960543 -4.23876e-17)
(0.00955956 -0.00775103 -1.76934e-17)
(-0.00839684 0.00227165 1.02588e-17)
(0.0173957 0.0260933 -1.80177e-17)
(0.0173882 0.0254403 -6.31958e-18)
(0.00453078 0.00793131 1.41889e-17)
(0.0114257 0.00169972 -3.08826e-17)
(8.52711e-05 0.000505389 8.50415e-19)
(0.0516389 0.0170142 2.10204e-18)
(0.00216798 0.0126839 4.51099e-19)
(0.000492583 0.00341445 -2.44231e-18)
(1.59584e-06 -0.000142254 2.90124e-20)
(-0.0161591 0.0115458 1.19828e-17)
(-0.00357286 0.00941427 5.32298e-18)
(0.00826872 0.118714 5.67792e-17)
(4.29176e-06 0.000510569 6.82162e-18)
(0.036542 0.0295855 -3.27852e-18)
(0.0913448 0.0011368 3.76418e-17)
(0.000281537 0.072582 2.62025e-17)
(-0.000118784 0.000253389 4.45635e-18)
(6.5858e-05 0.000481753 -1.16755e-18)
(-1.10127e-06 -7.66737e-05 -1.78131e-18)
(1.54562e-05 -9.60106e-05 -4.55115e-19)
(-0.0073959 0.00267283 1.54675e-17)
(-0.0011111 -0.0155115 6.0348e-17)
(-0.0103485 1.22793e-05 -4.79137e-17)
(0.000186726 -0.00014204 1.99596e-18)
(8.06135e-05 -0.000140269 4.43325e-18)
(-0.00479559 -0.00404241 -1.44505e-20)
(3.36207e-05 0.000157799 6.88948e-18)
(-0.00588676 -0.00337765 -7.94746e-18)
(-5.69597e-06 0.000288551 -6.89519e-18)
(0.0274288 0.032902 -2.73737e-18)
(-0.0230755 0.0154245 -1.39681e-17)
(0.071757 0.0168503 -3.23013e-18)
(-0.00749571 0.0116669 -1.38993e-17)
(-0.00588937 -0.000251916 1.61834e-17)
(9.14668e-06 0.000214785 7.00227e-18)
(0.00193721 0.0148621 6.33161e-18)
(-0.00454658 0.000724931 -3.86245e-17)
(-0.0456902 0.0282261 -1.10478e-17)
(-0.0390454 0.0253217 1.54469e-17)
(-0.00395962 0.00185656 6.7384e-18)
(-0.000140886 0.000200807 -2.00103e-18)
(0.000385714 -0.000788247 6.75729e-18)
(-0.00158549 0.00274095 9.71739e-19)
(-0.00457629 0.0052821 4.63521e-18)
(0.0165175 0.011875 -9.76266e-18)
(0.0155212 0.0375825 -7.84657e-18)
(-0.00506839 -0.00362643 -1.01813e-17)
(3.77026e-06 -7.73431e-05 -3.34196e-18)
(-0.00115243 0.0164456 -6.82911e-18)
(0.0089272 -0.00487104 3.71745e-17)
(-0.00477421 0.0055836 1.23244e-17)
(0.00029736 -6.50863e-05 -9.15033e-18)
(-0.0193578 0.010842 -2.69553e-17)
(-0.00656759 0.00114316 -1.92653e-17)
(0.0239395 -0.00199861 -9.3465e-18)
(-2.81969e-05 0.000259839 1.00467e-18)
(0.0489925 0.0150521 -5.54427e-17)
(-0.000144295 0.00018117 3.04612e-18)
(-8.63675e-06 0.000237234 -3.70487e-18)
(9.67117e-05 6.79916e-05 3.52755e-18)
(0.0175931 -0.00485969 2.68595e-17)
(0.000348265 0.00317866 -2.89394e-18)
(8.83162e-05 -3.69138e-05 -1.30415e-18)
(3.73019e-05 0.000273385 -5.81798e-18)
(0.0184649 0.0232273 1.14664e-17)
(-0.00015094 0.0151997 -1.05367e-18)
(7.29067e-05 0.000561253 -1.72598e-18)
(-0.00307395 0.0317957 -3.05005e-17)
(0.000170776 0.000112908 7.50473e-18)
(-0.0212583 0.0129503 -3.52602e-17)
(-0.00397531 0.00215427 -3.71284e-18)
(-0.000516378 -0.000113954 -5.14734e-19)
(0.00786884 -0.0147882 -3.95961e-18)
(-0.00185305 0.000291792 -1.10787e-18)
(0.133283 0.00275854 -7.93211e-17)
(0.00992018 0.120052 2.51324e-17)
(-0.00203313 0.000691538 -5.63683e-18)
(-0.000116978 0.000244056 -1.05849e-18)
(2.33167e-05 -0.000203337 2.414e-18)
(0.00028642 -7.14514e-05 -1.35888e-18)
(-0.00821756 -0.001037 1.27306e-16)
(0.0269875 -0.0115906 -2.28308e-17)
(-0.00383235 0.0364533 3.48492e-17)
(-2.50488e-05 0.000441267 -5.37459e-19)
(0.00176444 0.0279888 -2.01363e-17)
(0.0160594 -0.0021214 2.10572e-18)
(0.00844102 -0.0169593 -2.15829e-17)
(6.48677e-05 0.00051428 -6.0056e-18)
(-0.00212568 0.00337517 1.63436e-18)
(0.0442262 0.031767 -5.94935e-18)
(-0.0113242 0.000312381 1.48253e-18)
(-0.0250756 0.0162772 1.70878e-17)
(1.09993e-05 0.000242877 -2.23477e-18)
(2.64562e-05 1.48462e-05 -8.22992e-19)
(-0.000126985 0.000240016 3.1845e-18)
(0.0873386 0.0184507 4.19035e-17)
(0.00674693 -0.00141315 7.22364e-18)
(0.0295205 -0.00971981 -2.07154e-17)
(0.00951759 0.115619 -6.02397e-17)
(-0.000121281 0.000692068 -3.42727e-19)
(-0.000170331 0.004644 -2.56556e-17)
(0.00221612 -0.0142659 -3.96318e-17)
(0.000600652 -0.00244299 2.77457e-18)
(-0.000952301 -0.000879228 5.56137e-19)
(0.00137694 -0.000778504 -8.56673e-18)
(-0.00194366 -0.0164365 4.78224e-17)
(-0.000168403 -0.000107157 -1.55311e-19)
(9.88269e-05 0.000542718 4.74832e-18)
(2.60171e-05 -0.000308716 -8.37825e-19)
(0.00021179 -0.000266405 -3.7843e-18)
(-0.00057548 -0.0001927 -4.01712e-19)
(-0.00680755 0.00565845 6.47385e-18)
(-0.00558262 0.00209892 -2.84987e-19)
(-0.00241685 -0.00683671 -6.57405e-17)
(3.74781e-05 7.72786e-05 1.08645e-17)
(-0.000442604 0.00578581 1.06352e-17)
(-0.00215448 0.0005936 -5.26935e-18)
(0.000648249 -0.000639294 -2.28711e-17)
(0.0149013 -0.0139957 -2.22789e-20)
(-0.00120148 0.0158357 1.1526e-17)
(0.0100506 -0.00415794 -2.34178e-17)
(-0.00016856 -9.63383e-05 -9.06604e-20)
(0.0244252 0.00493303 -3.32277e-17)
(0.00201121 -8.25167e-05 6.01812e-18)
(-0.0198243 -0.00977471 3.51945e-18)
(-0.000455191 0.00033308 -4.69492e-19)
(0.0158602 0.0128308 2.71203e-17)
(7.09187e-05 -0.000185363 1.4032e-18)
(0.00117581 -0.00732405 6.90204e-17)
(0.0023635 0.0133513 7.41159e-18)
(-0.000584297 -0.000173898 1.09192e-18)
(-0.0054116 -0.0181577 1.5473e-18)
(-0.00249719 0.0545706 -2.72861e-18)
(0.0044225 0.0074061 -1.94931e-17)
(9.70111e-05 0.000446747 5.07337e-18)
(-0.00830528 0.0144015 -5.56864e-18)
(-0.00622746 0.0783349 7.60012e-18)
(0.00199704 -0.00722919 3.3297e-17)
(0.0023601 -0.00736603 -4.29977e-17)
(-0.00555846 -0.00248343 -1.47003e-17)
(-0.0350672 0.0236498 -4.03455e-17)
(-0.0187261 -0.00850274 2.00117e-18)
(-0.0127793 0.00544808 1.03736e-17)
(0.00146406 -0.0142432 7.44368e-17)
(-0.00040602 -0.000598494 -1.233e-19)
(0.00141529 0.0134058 -3.34485e-17)
(-0.00982745 -6.21807e-05 1.34669e-17)
(-0.000164047 -9.86175e-05 1.20296e-20)
(1.50644e-05 -0.000292881 -1.00662e-18)
(0.145804 0.00304939 4.23632e-17)
(0.000185802 0.000212422 7.20102e-18)
(1.25533e-05 -9.19103e-05 -2.83123e-18)
(-0.018425 0.0248372 -2.99416e-17)
(-0.015475 0.0269338 1.27861e-17)
(-0.000107804 0.000754753 4.43314e-19)
(-0.00221073 0.00342867 -3.5442e-18)
(-0.000456411 0.00624594 -1.11862e-17)
(0.00631786 -0.00112966 1.17245e-17)
(-0.00306734 0.00312375 -3.31608e-18)
(5.27461e-05 0.000505446 4.77767e-18)
(0.00728856 0.00557169 7.01743e-18)
(-0.00139782 -0.0131727 -4.73722e-17)
(-0.000548104 -0.000159136 -7.12828e-19)
(-0.00497383 0.0427754 5.43868e-17)
(1.41802e-05 -0.000139819 2.07423e-18)
(5.4979e-05 -0.00020739 -6.41193e-18)
(-0.000118856 -2.27762e-05 1.59127e-18)
(-0.0050458 -0.00469533 4.19324e-17)
(-8.30342e-06 0.000487436 -6.27343e-18)
(0.0297314 0.0225706 -1.55561e-17)
(0.0262566 0.0127244 -3.56098e-18)
(6.81884e-05 -2.8694e-05 1.42026e-18)
(6.72741e-05 -0.000205142 -7.88646e-18)
(0.0488983 0.0219484 4.1419e-17)
(-0.000150159 -1.63518e-05 1.10841e-19)
(1.31544e-05 -0.000224647 -8.27475e-19)
(-0.000128768 -1.50877e-05 8.98506e-19)
(0.0221095 0.0107161 9.60923e-18)
(0.00735891 -0.0140563 5.73399e-17)
(0.00157514 -0.00170743 -8.66252e-18)
(0.0168534 -0.0105315 1.64427e-18)
(-0.0121683 0.0219982 -1.6803e-19)
(0.0099135 0.118904 -4.36143e-17)
(-0.00482644 0.00439175 -3.60383e-17)
(-0.00206741 0.000842494 2.55335e-18)
(-0.00353162 -0.0196945 2.50095e-17)
(9.39664e-06 -0.000123232 2.2995e-18)
(-0.0117679 0.0804162 3.05432e-17)
(0.00814133 -0.0331786 3.93821e-18)
(-0.00862648 0.0171578 -7.00107e-17)
(0.0292139 0.0308849 3.9504e-17)
(-0.0309443 0.0231243 2.62979e-17)
(-0.00422645 0.00163153 -4.995e-19)
(-0.000879967 0.0129872 -5.28123e-18)
(-0.00523488 0.00196067 1.30228e-18)
(-0.000922976 -0.00106283 1.6933e-18)
(-0.00256112 8.56278e-05 1.59651e-18)
(0.0150511 -0.0124603 1.26524e-17)
(0.00189465 -0.00214653 2.63196e-17)
(6.03228e-05 -0.000239325 5.06579e-18)
(3.40494e-07 -1.0776e-05 3.70285e-18)
(-0.00016861 -0.000101969 2.53899e-19)
(1.40334e-05 -2.60211e-05 4.25959e-20)
(-0.000554479 -0.000138396 7.93623e-19)
(-0.0080384 0.00795976 -2.57458e-17)
(-0.000114291 0.000289428 -1.25617e-18)
(-0.000396148 0.000235394 9.81344e-20)
(3.12258e-05 -2.35597e-05 6.58791e-21)
(-3.00046e-05 0.000420359 4.40974e-19)
(6.00028e-05 -0.0174356 7.23382e-18)
(0.024765 -0.000724089 -1.99858e-18)
(-0.00194538 -0.0088452 2.48696e-17)
(0.00031695 -0.00138289 -6.74586e-18)
(-0.0182819 0.0119104 2.6214e-17)
(2.80474e-05 -1.53871e-05 5.38018e-21)
(-0.00474716 0.0496295 -1.97604e-17)
(0.00993395 -0.00225118 -8.43218e-18)
(2.09561e-06 0.000505432 -5.3474e-18)
(0.0329499 0.0143086 4.29415e-19)
(-0.0104153 0.00547008 -5.48616e-18)
(1.63275e-05 0.000510403 7.58049e-18)
(0.0626824 -0.00456773 -4.0353e-17)
(0.00449582 0.0605391 2.25851e-17)
(7.78671e-05 0.000346039 -9.70393e-19)
(0.00792122 0.00543345 1.03901e-17)
(-0.00771992 -0.0288072 -2.44412e-17)
(0.000545912 -0.000468768 1.30439e-18)
(-0.000749348 -0.00477887 -3.76306e-18)
(-0.000433587 0.000236846 -6.51542e-19)
(0.000543993 -0.000628936 -2.95706e-18)
(-0.0258943 0.0794107 -5.32558e-18)
(0.00603413 -0.00314356 1.67917e-17)
(8.26506e-05 0.000534099 3.59405e-18)
(3.00584e-05 0.000313347 -3.53781e-18)
(0.000314286 -0.00128734 -5.39278e-18)
(0.0185429 0.000377523 -3.10486e-18)
(0.000114992 -0.0166785 -1.62867e-17)
(8.61656e-05 0.000531974 -5.33801e-18)
(-0.000132435 0.000262893 -4.2384e-18)
(-0.000913303 9.44826e-05 1.9899e-18)
(-0.0082348 -0.00080387 -9.57102e-17)
(-0.00111833 -0.012244 -9.90535e-18)
(0.00181568 -0.00162673 -4.68695e-17)
(-0.000434704 -0.000487971 1.3052e-18)
(0.00652837 -0.00317875 1.07857e-17)
(-0.00104506 -0.0048556 8.24585e-18)
(0.0190781 -0.0184035 -3.62197e-18)
(-0.00947841 0.0191949 -4.5854e-17)
(-0.00024459 -0.000819778 1.07953e-18)
(-0.000505794 -0.000770593 -1.0866e-18)
(-0.000891342 0.000109072 -1.35512e-18)
(-0.00156055 0.012578 -4.93825e-18)
(0.000607721 -1.78473e-05 5.19183e-18)
(0.0103729 0.00577081 9.21207e-18)
(5.54184e-05 -4.88485e-05 -7.95291e-18)
(-0.000205308 9.6842e-05 2.84505e-18)
(0.0177873 0.087702 2.0674e-17)
(-0.00920186 0.00907554 4.12709e-17)
(0.0194329 0.00484536 -1.06265e-20)
(4.61218e-06 -2.64096e-05 2.04151e-20)
(-0.0139437 0.00971377 3.61712e-17)
(0.00239163 0.000301886 -5.21154e-18)
(0.00392168 -0.0218083 3.06974e-17)
(0.0147395 0.00316562 -4.84115e-17)
(-0.00486201 -0.00398485 3.72721e-17)
(0.00171988 0.000567011 8.32916e-18)
(0.000295732 0.00721503 -2.2063e-17)
(0.0185898 0.0353461 1.61514e-17)
(-0.00995393 0.00429213 -1.65308e-17)
(-0.00721705 0.00137072 -2.42253e-17)
(-0.000734728 -0.00264898 2.1668e-17)
(4.76208e-06 -5.88227e-05 -3.53487e-19)
(0.001589 -0.00182475 1.96923e-17)
(-0.000772106 -0.000576178 -3.63826e-18)
(-0.000127848 0.000252708 -1.50484e-18)
(0.000562419 -5.0053e-05 1.03503e-18)
(9.35268e-05 3.70301e-05 -2.63448e-19)
(6.84713e-08 -4.1135e-06 -6.55441e-20)
(0.0184665 0.00661591 7.34569e-18)
(3.17466e-05 -0.000213332 -5.31961e-18)
(0.00347816 0.0143387 -1.38566e-18)
(-0.000943287 0.00696765 1.47775e-17)
(0.13533 0.0251717 -3.09273e-17)
(-0.000210628 -0.00085826 -1.70905e-18)
(0.00207726 0.00020225 -9.28587e-18)
(-0.00132909 -0.0137967 8.61536e-18)
(-0.000135899 -0.0145395 -3.58787e-17)
(-0.0404545 0.0363957 -2.86574e-17)
(-0.00907703 0.0184631 -2.09393e-17)
(-0.000200266 0.000101254 -2.53731e-18)
(0.00179483 0.000735391 1.05574e-18)
(7.90085e-05 0.000557366 -1.17087e-18)
(0.0241296 0.00813461 -4.25113e-17)
(-7.36349e-05 -4.80451e-05 -1.96166e-19)
(0.0187838 0.00596655 2.24903e-17)
(0.0160148 -0.00526895 1.47119e-19)
(0.0132308 0.00623178 8.50988e-18)
(-0.0034542 -0.000696757 1.19503e-17)
(-0.0219159 0.0837943 3.31805e-17)
(6.02559e-05 -7.18946e-05 3.70587e-18)
(0.000112118 0.000446516 9.30406e-18)
(0.0580264 0.0295471 -7.02372e-18)
(0.0241855 0.00936583 1.61538e-17)
(1.64111e-05 0.000106406 6.94402e-18)
(0.00941855 0.00211423 4.26797e-18)
(6.41654e-05 -6.72761e-05 -4.73711e-18)
(4.45913e-05 -0.000306034 -4.90123e-18)
(0.0103303 -0.0253768 2.33261e-17)
(-0.000166198 -9.48341e-05 2.86848e-19)
(-0.0131522 0.0232246 -3.45427e-17)
(-0.000461962 -0.000555971 -9.29342e-19)
(0.0100312 0.117292 -7.74492e-18)
(7.02464e-05 -8.91126e-05 8.96045e-18)
(-0.00192363 0.000177063 1.76228e-18)
(0.0193228 0.0759048 -2.84613e-17)
(-0.000650066 -0.0105983 -2.68452e-17)
(-0.0261035 -0.00659812 2.58972e-18)
(0.000708396 -0.00248899 4.31906e-18)
(6.34573e-05 2.67487e-05 -4.121e-18)
(3.26588e-05 0.000264176 -5.02527e-18)
(0.064076 0.0165203 3.88665e-17)
(0.00281389 0.012055 6.24804e-18)
(-0.0003744 -0.000265465 -4.48405e-19)
(2.31602e-05 -0.000339571 -4.00806e-18)
(0.00378256 -0.00296853 2.27307e-18)
(-0.00163276 -0.00471895 -2.15995e-17)
(-0.025752 -0.0085131 8.11453e-18)
(-0.0107276 0.00168694 2.65533e-17)
(2.83793e-05 -0.000322673 1.31716e-18)
(7.53647e-05 0.000558177 5.11324e-18)
(0.009736 -0.0142918 -4.30227e-17)
(6.72907e-05 2.49917e-05 3.42485e-18)
(-0.00161644 -0.0119367 3.49456e-17)
(0.00945624 -0.0161759 3.13312e-17)
(2.84668e-05 7.1805e-05 4.34345e-18)
(7.41524e-05 0.000340544 5.00936e-18)
(-0.0024453 0.000189532 -1.01832e-18)
(6.68778e-05 -3.90841e-05 -1.76467e-18)
(-0.000916291 2.24699e-05 8.5483e-19)
(-0.0160867 0.0127195 -2.38252e-17)
(0.00164608 -0.00743327 -3.58366e-17)
(0.0871925 0.0144343 2.29171e-17)
(-0.00116419 -0.00323634 1.39596e-17)
(-0.0042133 -0.00150824 2.10112e-18)
(-0.00660686 0.0118458 9.45388e-19)
(-0.000129683 -0.00222771 -7.74645e-19)
(-0.00700377 -0.00153754 -2.33591e-17)
(0.000536392 -0.00271174 -3.22096e-18)
(7.95583e-06 -0.000158085 4.5727e-18)
(-0.00187614 0.00356198 -3.02114e-18)
(0.0240974 0.00117527 1.68657e-18)
(0.000235749 -0.000105197 -6.22351e-18)
(0.000164279 7.73207e-05 -8.52998e-18)
(0.000184267 -0.000218644 8.19829e-18)
(-7.45254e-05 -4.26041e-05 5.09577e-19)
(7.8106e-05 0.000417562 5.10555e-18)
(-0.000279792 0.000268175 1.20086e-18)
(2.71301e-05 0.000185757 -1.02297e-17)
(4.96694e-05 -9.46083e-05 -4.61725e-18)
(0.00120646 -0.000475896 -4.88404e-18)
(-0.00493593 0.00224619 -2.77399e-18)
(-0.019913 0.0246219 1.80319e-17)
(-3.38411e-05 -1.30971e-05 1.52483e-20)
(-0.00130955 -0.0161181 -7.72601e-17)
(0.00141275 -0.0021024 -5.66865e-18)
(0.017253 -0.00590012 4.59891e-19)
(-0.00379994 0.00596712 3.11631e-17)
(-0.00101791 -0.000974945 -2.60895e-20)
(0.0212473 0.0881831 -4.35038e-17)
(0.0122382 0.00756101 1.11664e-17)
(-0.00101446 -0.000771492 -3.01051e-18)
(-8.93129e-05 -5.33795e-05 -2.53154e-20)
(0.000336669 -7.65225e-05 -1.11424e-18)
(0.0384724 0.044302 7.7695e-18)
(-0.0108289 0.0222932 3.48882e-17)
(-8.50269e-05 -4.79059e-05 6.76766e-20)
(5.21483e-05 -0.000207743 1.91813e-18)
(3.46599e-05 -0.000311058 -3.61928e-18)
(-0.00355591 -0.0086435 -2.04988e-17)
(0.0165885 -0.00330535 -1.82833e-18)
(0.114654 0.00150069 -2.22927e-17)
(-2.12262e-05 6.09028e-05 -2.17227e-18)
(3.42247e-05 0.000288196 1.13195e-17)
(0.00122169 -0.00408718 3.36414e-19)
(-0.0105343 -0.000855598 6.40346e-17)
(-0.00941377 0.015337 7.83067e-17)
(0.000726777 -0.00167032 1.33114e-17)
(-0.00374357 0.000968663 5.25509e-18)
(-0.00213284 0.0470604 -4.79617e-17)
(0.13632 0.00133293 -7.22501e-18)
(-0.0258581 0.036144 -1.19704e-17)
(0.000670858 -0.00041644 1.50344e-18)
(-0.000181871 0.000140111 -2.89078e-18)
(-0.00244921 -0.00516767 8.50749e-18)
(9.65415e-05 0.000491106 -2.78172e-18)
(0.0166141 -0.00105823 7.09165e-18)
(0.135585 0.0221842 5.68455e-18)
(-0.000339062 -0.00026099 7.39818e-19)
(0.00745586 -0.0133572 -6.43656e-17)
(-0.000707934 0.00532618 -4.01558e-18)
(-0.0132231 0.00748907 6.77958e-17)
(1.65335e-05 0.00027615 6.28788e-18)
(0.00342932 -0.00767376 -1.74173e-17)
(0.0101207 0.0257455 3.1736e-18)
(-0.00761053 -0.00125121 -2.08161e-18)
(0.0414311 0.0241434 -2.60658e-17)
(7.92662e-05 0.000515651 -4.9988e-18)
(0.0196073 -0.0164096 -2.03449e-18)
(5.11737e-05 -7.49448e-05 7.82129e-19)
(9.83071e-05 0.000463099 -2.74535e-18)
(1.95845e-05 -0.000189014 -1.56797e-18)
(8.52595e-05 0.000549504 1.16432e-18)
(0.0372861 0.016648 -2.1026e-17)
(8.81186e-05 0.000495883 -4.08245e-20)
(-0.000922037 -0.000358607 1.52242e-18)
(0.000534626 -0.0013141 -2.59777e-18)
(-0.000472177 -0.000443278 1.75426e-18)
(-0.000170203 0.000170458 5.91617e-18)
(0.00859311 0.00435896 -2.08964e-18)
(0.00133415 -4.46399e-05 3.61203e-18)
(-0.0111769 0.00578153 -4.82843e-18)
(4.85816e-05 0.000146683 2.37874e-18)
(4.90961e-05 0.000120407 7.92086e-19)
(-0.00172907 -0.013055 -8.67993e-19)
(-0.000933358 -0.00957115 5.74062e-17)
(0.000729542 -0.00157882 1.31053e-18)
(-0.00230689 0.0399232 -8.41702e-17)
(-0.00457707 0.0020917 -3.18516e-18)
(0.000747296 -0.000163031 -4.46658e-18)
(-1.28686e-05 0.000475192 4.43668e-18)
(-0.000926327 1.74613e-06 -7.64209e-19)
(0.0130105 -0.00191868 -1.17876e-18)
(-0.000891313 -0.000406204 5.26288e-20)
(3.45327e-05 9.22366e-06 -2.23047e-18)
(-0.00845453 -0.00235762 4.18491e-17)
(0.142771 0.00315626 -1.07716e-16)
(0.00645949 -0.000675845 -9.53749e-18)
(-1.89506e-05 0.000430127 -7.78201e-18)
(6.51514e-07 -7.44717e-05 -1.98145e-18)
(-0.00116675 0.00103683 1.70162e-18)
(1.5704e-05 -0.000189801 1.0558e-18)
(-0.0101037 0.0419728 4.22307e-17)
(0.000576179 -0.000519153 6.18143e-20)
(0.0120737 0.108373 1.73739e-18)
(-0.00529309 0.000284645 -4.95821e-18)
(-0.00397003 -0.0184387 3.37167e-18)
(5.01845e-06 -0.000154868 4.89653e-18)
(-0.0229799 -0.000799537 1.66277e-16)
(-0.000189578 3.87618e-06 3.19823e-18)
(0.0198176 0.000590933 1.21396e-17)
(0.000104335 0.000506646 -7.25304e-18)
(-0.0354324 0.00711046 1.44165e-17)
(-0.000777035 -0.0153044 -2.32884e-18)
(4.9053e-05 -0.000133459 -2.02607e-18)
(0.121878 0.00981464 -6.83768e-18)
(0.000138091 0.000329328 -3.2268e-18)
(1.30373e-05 -9.45286e-06 -3.4242e-18)
(-0.000464415 -0.000132468 -4.963e-20)
(0.0599257 0.0313495 -1.19605e-17)
(-0.00268613 -0.00752354 2.38515e-17)
(0.000320759 -9.60654e-05 -1.08319e-18)
(-0.000747103 0.00560667 -3.43379e-18)
(-0.000811951 -0.000511688 1.59866e-18)
(-0.00507172 0.0503102 3.66818e-17)
(-3.05725e-05 -2.00254e-05 -4.0277e-20)
(0.0071405 0.00593101 -3.45975e-18)
(0.00450799 -0.00558457 3.65478e-17)
(-0.000254081 -0.00244025 1.49011e-17)
(1.82399e-05 2.92746e-05 1.29201e-18)
(0.00427603 -0.00593661 -1.6824e-17)
(1.16039e-05 -5.24803e-05 -4.13107e-18)
(-0.00130707 0.00107942 -3.84486e-19)
(-0.00083288 0.000180141 -7.84722e-20)
(-0.0209544 0.022735 -2.28458e-18)
(-3.14642e-05 0.000170291 -1.42723e-18)
(0.00307815 0.056272 -3.77914e-17)
(5.27141e-05 9.85297e-05 1.93376e-18)
(0.000632288 7.78975e-05 6.96059e-18)
(-0.0154585 0.00441986 -4.47663e-18)
(0.00685477 -0.00807045 8.67059e-18)
(0.146363 0.0165115 -4.94718e-17)
(-0.000373649 0.000185555 -6.06475e-19)
(-0.0239809 -0.000896096 1.69738e-17)
(0.000100374 0.000438149 -7.27786e-18)
(0.0181139 -0.00317831 7.97773e-18)
(9.48197e-05 0.000304896 3.39275e-18)
(-0.00208737 0.000443492 3.92799e-19)
(9.82404e-05 0.000489435 6.18811e-19)
(5.25022e-05 0.000107092 -1.96681e-18)
(2.31956e-06 -0.000143081 5.35863e-18)
(0.0188553 -0.00405588 -5.53367e-18)
(-0.0189184 -0.00685027 3.51655e-18)
(0.113435 0.00832522 3.57901e-17)
(0.00644727 0.019416 -6.02436e-18)
(0.00197888 -0.00453694 3.0532e-17)
(0.0045575 -0.0023547 -7.64227e-18)
(0.0120129 -0.0237952 -5.03246e-18)
(-0.00169301 0.00298981 1.47981e-19)
(-0.0126242 0.0389098 6.92545e-19)
(0.00179022 -0.0037293 1.11048e-17)
(0.0206977 -0.000360914 -1.82029e-18)
(0.0969543 0.00421857 -6.33782e-17)
(0.151749 0.0189587 -3.72176e-18)
(0.0180258 -0.000881614 -1.26922e-17)
(-0.00139857 0.00101999 2.18221e-18)
(-0.000281661 -0.0162379 2.25021e-17)
(-0.0159488 0.00347367 -5.17437e-18)
(-0.00191051 0.000403185 1.54583e-18)
(0.0218527 -0.000229914 5.79747e-19)
(7.17604e-06 -4.84407e-05 2.47282e-18)
(0.0166812 -0.0118694 -1.95606e-19)
(0.00604716 -0.000238893 7.58539e-18)
(-0.0155758 0.0361443 -1.44037e-17)
(-0.000829379 -0.00300626 6.53293e-18)
(-0.0114964 0.0100207 -1.39496e-17)
(0.000794606 0.00244909 -2.60461e-17)
(-0.0142561 0.00439136 2.06319e-18)
(-0.0126142 0.0339916 3.75989e-17)
(1.90324e-05 -0.000303631 3.2972e-18)
(0.022506 -0.0067644 -1.21516e-17)
(-0.000303511 -0.00135665 -3.86791e-18)
(9.2798e-05 0.000522128 3.81797e-18)
(0.000582384 -9.11871e-05 -5.33584e-19)
(-0.00363176 -0.00351567 -2.20743e-18)
(0.00258089 0.0113466 -2.59513e-17)
(-0.0057069 -0.00118877 -2.24077e-17)
(0.0156796 -0.00950058 4.06622e-18)
(0.000633674 0.00379672 -7.80071e-18)
(-0.00133318 0.00270877 -2.02213e-18)
(0.00153791 -0.000756791 3.57301e-18)
(-0.0152331 0.00881267 -7.25657e-17)
(-0.00268031 -0.0136345 -9.28746e-17)
(-0.00329789 0.00108001 7.49303e-18)
(-0.0073565 0.0171279 9.32415e-18)
(0.000718884 -0.00065377 2.74189e-18)
(0.0046846 -0.0239727 1.37656e-17)
(0.0217977 0.0794215 5.84693e-17)
(3.68981e-05 0.000101452 -1.13192e-18)
(-0.00246067 -0.00896394 5.42306e-17)
(0.00963644 -0.013264 2.61063e-17)
(-9.85069e-05 0.000288068 3.32304e-17)
(-4.07534e-05 5.35547e-05 1.1876e-19)
(0.00176697 -0.00195108 -1.72867e-17)
(0.0604505 0.0103844 -3.76652e-18)
(-0.00673009 0.00503109 1.90929e-18)
(0.10109 0.0176557 -1.6475e-17)
(-0.0349303 0.00925785 5.24102e-18)
(0.134749 0.0270408 1.30119e-17)
(0.00238832 -0.000899303 5.88088e-18)
(-0.00148947 0.0031839 -1.82579e-19)
(-0.000340012 0.000605899 -4.40284e-19)
(4.89443e-05 0.000309992 4.88112e-18)
(0.0187987 0.0207584 -1.21571e-17)
(3.03079e-06 -6.46808e-05 -1.13621e-18)
(0.0525424 0.0224058 -1.24421e-18)
(0.00478872 0.0226404 3.80471e-17)
(0.013205 0.0040138 -5.12269e-18)
(3.44837e-06 -2.30408e-05 -1.84332e-18)
(1.97098e-05 -9.15028e-05 9.11259e-19)
(-0.00461218 -0.00217539 6.36671e-18)
(-0.00143811 -0.00184172 4.21335e-19)
(-0.000159736 2.90303e-05 2.72973e-20)
(0.000186609 0.000210256 1.3882e-18)
(0.0061462 0.0185853 1.1709e-17)
(0.041556 0.0480159 6.11684e-17)
(-0.0463699 0.0326739 6.17074e-19)
(2.7053e-06 -3.65558e-05 -3.28988e-18)
(0.0227461 0.00683353 1.28573e-18)
(1.40287e-05 0.000410716 -2.49486e-18)
(-0.00132926 -0.00590615 -4.46222e-17)
(-0.0144345 0.0104149 2.68307e-17)
(0.00271935 -0.00637593 4.34918e-18)
(-0.00129648 -0.00471411 2.06622e-17)
(0.00988361 0.0257839 1.62053e-17)
(-0.000197419 -2.7743e-05 8.95252e-19)
(9.82147e-05 0.00011982 4.74003e-19)
(0.00423661 -0.0053661 1.09343e-17)
(0.000101976 0.000492879 9.11752e-18)
(-0.00112963 0.000944809 -1.49276e-18)
(-0.00328149 0.016625 -6.11731e-17)
(-0.0251937 0.018259 1.30778e-17)
(-0.000603534 -0.000211548 -9.31176e-19)
(-0.0012423 0.0217006 2.9997e-17)
(-0.00425263 0.0154018 -4.83247e-17)
(-0.00300436 0.00338557 2.43359e-18)
(-0.0185355 0.0771774 2.43915e-17)
(-0.00144062 0.0161146 2.24357e-17)
(-0.000280545 0.00031256 -1.65049e-18)
(0.00160829 0.0141232 -2.53728e-17)
(-0.00868212 -0.00132289 -6.94646e-18)
(-0.000132162 0.000636719 -2.11497e-18)
(-0.000442911 -0.000112682 3.05534e-19)
(0.00251801 -0.010685 5.2289e-17)
(-0.0060356 0.0174004 7.06668e-17)
(0.00831861 0.00314076 -2.74237e-18)
(0.000246448 -0.000157529 -8.10029e-18)
(2.18176e-05 0.000336739 3.63573e-18)
(-0.000432241 -5.78235e-05 1.27331e-19)
(-0.00485104 -0.00508638 -1.65556e-18)
(0.00127956 8.58851e-05 -9.018e-18)
(0.00189108 -0.000196817 1.15796e-18)
(-0.00734401 -0.0162372 -2.29583e-17)
(-0.015418 0.00960783 3.51888e-17)
(5.55516e-05 -9.26744e-05 3.63596e-18)
(0.126955 0.00676152 -8.66956e-17)
(-0.00630914 0.00591537 -1.07339e-17)
(0.0020031 -0.00455397 -2.69409e-17)
(-0.00117007 0.00084183 1.56497e-18)
(-0.0108065 0.000280392 -3.43209e-17)
(-0.00415739 0.00133684 -1.39604e-18)
(-8.0571e-05 0.000121679 1.68937e-18)
(0.0133784 0.0046203 8.0338e-18)
(0.000698236 -0.0185766 6.32426e-18)
(-0.000404393 -0.000298884 9.51071e-19)
(1.99168e-05 0.000156725 6.3755e-18)
(9.24677e-05 0.000547979 1.62924e-18)
(-0.006998 -0.00163147 7.41009e-18)
(-0.000196045 -3.096e-05 -4.67632e-19)
(-0.0138414 0.00526717 4.21822e-18)
(0.00308773 0.0362007 1.71263e-17)
(0.000683097 0.000164012 -1.98979e-18)
(-0.0221596 0.0225387 2.08802e-18)
(-0.00305479 0.000997063 -9.31273e-19)
(-0.00105973 0.000719278 -3.20265e-18)
(0.147177 0.0181586 1.30147e-17)
(0.00391132 -0.00820627 7.2652e-19)
(0.0436216 0.026739 -6.00372e-18)
(9.3182e-05 4.49538e-05 -5.63706e-18)
(-0.000461872 -0.000360682 -1.1309e-20)
(0.0772122 0.0546182 2.7115e-17)
(0.000467061 -0.00250168 -2.53724e-18)
(0.0847195 0.0388279 1.84753e-17)
(-0.000319316 -0.0003273 -7.05151e-19)
(0.000151283 0.000285942 3.57331e-19)
(-0.00950413 0.000129183 4.50515e-17)
(0.00762613 0.113132 2.47025e-17)
(1.31025e-05 0.00646504 6.28748e-18)
(-0.0159014 0.0240558 -1.74154e-17)
(-0.000794951 -0.0086934 6.42406e-18)
(0.000113177 0.000405589 -2.1018e-18)
(2.24133e-06 -2.00649e-05 3.41052e-19)
(1.93431e-05 0.000562082 2.15192e-19)
(0.00880242 -0.00112058 -7.50765e-17)
(2.96254e-05 1.61808e-05 -2.03394e-18)
(-3.23997e-07 -5.03766e-06 -1.5701e-18)
(-0.0110824 0.00508865 6.45939e-17)
(-0.000790458 -0.00292094 4.84185e-18)
(0.0154679 0.0214635 -1.67487e-17)
(-0.000724163 -0.00448181 -5.34868e-17)
(-8.20148e-06 0.000412057 2.69455e-18)
(0.00414192 -0.00857384 7.64622e-18)
(8.15703e-06 -0.000103718 5.86107e-18)
(0.000104236 0.000356178 8.48416e-18)
(3.39973e-05 0.000495156 1.49089e-19)
(0.00372731 -0.00184182 1.1601e-17)
(-0.00255186 -0.00787189 1.31531e-17)
(6.7925e-05 -0.000194868 5.66484e-18)
(-8.26551e-06 0.000504959 1.22102e-17)
(0.000112921 0.00048294 3.93129e-18)
(9.06351e-05 0.000479537 3.57663e-18)
(2.93245e-06 0.000420484 1.10023e-18)
(-0.000313629 0.000671518 2.49952e-19)
(0.10408 -0.000431254 5.08542e-17)
(0.00389157 -0.00213825 -1.56758e-17)
(0.00115499 -0.000530764 1.64481e-18)
(9.27303e-05 -5.73244e-05 -1.81094e-20)
(0.00367822 -0.00244753 1.78953e-18)
(0.00149738 0.0153738 -1.74876e-18)
(-0.00801227 -0.00225165 2.1233e-18)
(-0.000958774 -0.00320673 -4.10866e-17)
(4.68358e-07 -9.33504e-06 -4.85277e-19)
(-0.000428848 -6.89785e-05 -8.9416e-20)
(0.00134327 0.00107955 -2.59561e-18)
(-0.00201031 -0.00998687 1.66015e-17)
(-0.056724 0.0596446 5.69049e-17)
(-0.00393733 -0.00166763 3.84492e-19)
(0.00537752 0.00382844 5.75407e-18)
(1.73162e-05 -0.000312158 6.65054e-18)
(0.00219854 -0.00100255 -1.22104e-17)
(0.0227487 0.0156066 -1.85433e-17)
(0.000202673 -0.0160518 5.40062e-17)
(-0.000541962 0.000260644 -3.88828e-20)
(4.54712e-05 -0.000217561 -2.76281e-19)
(-0.0029006 -0.014186 -5.46709e-18)
(-0.00928782 0.01423 7.98032e-18)
(-9.20432e-05 0.000118667 2.12406e-19)
(9.27086e-06 -0.000203547 -6.28754e-18)