/*--------------------------------*- C++ -*----------------------------------*\
| =========                 |                                                 |
| \\      /  F ield         | OpenFOAM: The Open Source CFD Toolbox           |
|  \\    /   O peration     | Version:  v2012                                 |
|   \\  /    A nd           | Website:  www.openfoam.com                      |
|    \\/     M anipulation  |                                                 |
\*---------------------------------------------------------------------------*/
FoamFile
{
    version     2.0;
    format      ascii;
    class       volScalarField;
    location    "800";
    object      k;
}
// * * * * * * * * * * * * * * * * * * * * * * * * * * * * * * * * * * * * * //

dimensions      [0 2 -2 0 0 0 0];


internalField   nonuniform List<scalar> 
9793
(
0.000149418
0.0169942
0.000147635
0.0266863
0.000149704
0.000199351
0.000172005
0.0432177
0.00014891
0.00572215
0.000149244
0.000149178
0.000147346
0.044461
0.000147289
0.000159809
0.000171573
0.000147579
0.0329341
0.00014503
0.000146208
0.000149939
0.0257105
0.0442232
0.0460562
0.000154687
0.000148545
0.000149722
0.000145088
0.000175301
0.0167104
0.000225332
0.00014798
0.000147603
0.000147043
0.000160445
0.000156272
0.000153177
0.0383061
0.000160943
0.000172912
0.0686931
0.0410559
0.000149793
0.000147704
0.000148161
0.0232356
0.000149885
0.00014765
0.000147621
0.000160307
0.000146882
0.000166733
0.00014977
0.000158471
0.0285922
0.000147387
0.000185612
0.000147644
0.000149937
0.000154897
0.000168865
0.000147676
0.000168031
0.000147569
0.000148631
0.00718422
0.000153986
0.000157304
0.0444725
0.000148145
0.00016871
0.0391346
0.110789
0.0538825
0.000149725
0.000161752
0.0714809
0.000147814
0.000149784
0.000162329
0.0336382
0.000171346
0.000152186
0.000157316
0.000195845
0.000149715
0.000182307
0.0386744
0.000168441
0.0291771
0.000356702
0.00058291
0.000164951
0.0406772
0.000147444
0.0559463
0.000169883
0.000154151
0.000149769
0.0357558
0.000165416
0.0681123
0.000147726
0.0557347
0.0725298
0.110381
0.000147042
0.000147837
0.000149878
0.000149514
0.0274448
0.000413966
0.0133719
0.000148047
0.000148642
0.000156405
0.000148218
0.030958
0.000148067
0.0539733
0.000183198
0.0661725
0.000170028
0.000156319
0.000148102
0.000172981
0.0203064
0.000251558
0.000524809
0.00015412
0.000146723
0.000149183
0.000152554
0.000158962
0.00018299
0.00128271
0.000156474
0.000149807
0.000174115
0.0349934
0.000159479
0.000147934
0.000177981
0.0237161
0.000214296
0.000148104
0.0538849
0.000146732
0.000148065
0.000148345
0.0413072
0.000153453
0.000148499
0.000147729
0.000295119
0.00017263
0.00014765
0.000347048
0.000147805
0.000180627
0.000154331
0.000146243
0.000185271
0.000149406
0.0565144
0.0656618
0.000150067
0.000147043
0.000149395
0.000148007
0.0112688
0.0278079
0.0467228
0.00014731
0.000197773
0.000174153
0.000199678
0.00014774
0.000153994
0.0590402
0.0195742
0.000185521
0.000148115
0.000148367
0.000147002
0.0712981
0.0362377
0.0165018
0.0714039
0.000148298
0.0153043
0.000191064
0.000153633
0.000148114
0.000151225
0.000312553
0.000145214
0.000147575
0.000149297
0.00014825
0.000146487
0.00016171
0.000156824
0.0342014
0.000147847
0.000158589
0.000150119
0.000149296
0.000191572
0.000173325
0.0358214
0.000145417
0.0420176
0.000152224
0.000176925
0.000147353
0.000182883
0.000148702
0.000162278
0.000170812
0.000146472
0.000253292
0.0516636
0.000164251
0.00014743
0.000173677
0.058509
0.000162465
0.000162647
0.0344466
0.000189865
0.000175194
0.000168682
0.000187629
0.000146703
0.028218
0.0157113
0.00014522
0.000149431
0.064912
0.000147691
0.0001495
0.000191852
0.0001935
0.000148567
0.000154127
0.000159479
0.00016079
0.000154533
0.000147771
0.000164469
0.0277465
0.000146361
0.048345
0.000149721
0.000149052
0.000145728
0.0293675
0.000147766
0.0012788
0.0449085
0.000148571
0.000148772
0.00442404
0.000148364
0.000149558
0.000148163
0.0430878
0.000180862
0.000153202
0.000192102
0.00018364
0.0657459
0.0236265
0.000150119
0.0225785
0.000149737
0.0606207
0.000619106
0.0401355
0.0536119
0.000193389
0.000154301
0.00016995
0.000156056
0.000148396
0.000150688
0.000190974
0.000154829
0.000148833
0.000149881
0.000145407
0.000146857
0.000146358
0.0271668
0.000146998
0.000147158
0.000148865
0.000147347
0.0229995
0.000216058
0.000164574
0.000150465
0.000177909
0.000149969
0.0939295
0.0335974
0.000147745
0.0471058
0.000166318
0.000147688
0.0116879
0.104855
0.000148028
0.00016487
0.000766456
0.000148734
0.000158325
0.000147175
0.000149022
0.0666585
0.000161261
0.000147649
0.000148034
0.000150238
0.000178233
0.000411111
0.00014765
0.000147006
0.000147437
0.00948057
0.0289391
0.035474
0.000146505
0.000161915
0.000158583
0.000268931
0.000178566
0.00014686
0.000147275
0.000147427
0.000169576
0.000148457
0.0473527
0.000148471
0.000146577
0.0652718
0.0278422
0.0403019
0.000147581
0.0354769
0.000153247
0.000411224
0.047682
0.0339681
0.000151801
0.000161764
0.00216854
0.0297226
0.0278954
0.000154513
0.000149732
0.000153586
0.000147455
0.000146892
0.000148365
0.000148421
0.000149941
0.0518298
0.000149317
0.000172572
0.000160735
0.0782316
0.00014686
0.000152381
0.0204939
0.000196834
0.0490116
0.000177935
0.00014657
0.000151949
0.000147644
0.000209225
0.000144857
0.0404095
0.000175041
0.000171708
0.0316784
0.0677822
0.000148815
0.00014739
0.00659822
0.000211769
0.000147829
0.0426776
0.000148772
0.000149092
0.000508098
0.000145402
0.000185428
0.000146705
0.0669348
0.000148509
0.000149479
0.0633012
0.000168128
0.000181463
0.000153703
0.000148367
0.000147146
0.0624676
0.000169376
0.000145794
0.00014923
0.000159046
0.000158643
0.000181437
0.0202548
0.000149235
0.000147591
0.000183942
0.000148414
0.0292109
0.000199622
0.000148311
0.000148008
0.000150495
0.000148664
0.000147374
0.0364774
0.000162561
0.00973312
0.000156235
0.000153896
0.000169833
0.000152902
0.0315398
0.000154361
0.000149764
0.000154082
0.000209798
0.000147998
0.00014783
0.000148158
0.000144881
0.000147809
0.000147224
0.000148173
0.000148962
0.000150444
0.000155928
0.00019187
0.000149776
0.000262709
0.000153925
0.00017913
0.0227741
0.000148387
0.0691652
0.000171972
0.000148121
0.000144895
0.000147968
0.0632494
0.000183493
0.000144867
0.000148698
0.000149248
0.000164883
0.000175281
0.0729585
0.000147661
0.000147738
0.000157469
0.0202489
0.0393155
0.000151708
0.000153205
0.0497497
0.0568639
0.000588073
0.000148849
0.000146652
0.0350346
0.000147502
0.000174248
0.0792173
0.000145659
0.000178228
0.00015738
0.0337683
0.00014712
0.0337187
0.00020821
0.000158966
0.00275256
0.000147467
0.00026099
0.000148517
0.000147343
0.000149438
0.000147644
0.0499662
0.000147432
0.000147436
0.000150393
0.000146515
0.000146669
0.000164471
0.000150325
0.000167202
0.000148077
0.000148107
0.0232113
0.000166012
0.000151626
0.047959
0.00015515
0.000148879
0.000147787
0.000147394
0.0420128
0.000147429
0.000148317
0.0174725
0.0640667
0.000161066
0.000147389
0.000149883
0.000149201
0.000149566
0.0480044
0.00014888
0.0827797
0.000155448
0.000282225
0.000149722
0.00889904
0.000152927
0.000182514
0.000147543
0.000193772
0.0238654
0.000148576
0.077185
0.000147609
0.000149404
0.000146049
0.0649121
0.0336449
0.000148004
0.00015822
0.00014746
0.0503924
0.000148533
0.000164812
0.0345602
0.000153494
0.000148015
0.000161724
0.000149599
0.000149408
0.000147486
0.000190454
0.00014753
0.0526009
0.000148204
0.000148522
0.000171358
0.000166359
0.0329456
0.000147032
0.0100267
0.00014736
0.000179539
0.000147708
0.000149993
0.000147474
0.000148189
0.000149767
0.000179833
0.000175169
0.0763173
0.000182244
0.000158855
0.000159029
0.00039656
0.000153112
0.0470069
0.0339295
0.000185028
0.0274067
0.0704229
0.000178315
0.000149451
0.000481689
0.000171348
0.000149586
0.000192292
0.000149642
0.00019225
0.000160143
0.00018011
0.000155316
0.0293114
0.0342608
0.000169702
0.000188663
0.000149384
0.000205746
0.000150497
0.000147547
0.000148399
0.000154755
0.000168358
0.0351661
0.00018227
0.0318444
0.00015247
0.00015138
0.0338954
0.000185017
0.000152529
0.000176155
0.000149361
0.000472475
0.0660307
0.00014827
0.000164629
0.000181278
0.0334943
0.000147532
0.00015403
0.0638753
0.00016113
0.0753936
0.000193171
0.0781594
0.000154042
0.000153318
0.000147995
0.000147714
0.00842935
0.000149884
0.0255811
0.000186635
0.000170661
0.000149706
0.000149443
0.000154632
0.000150134
0.000146729
0.000147702
0.000180516
0.0665381
0.0460917
0.00014985
0.000196062
0.000147543
0.0318438
0.00017384
0.000161847
0.000158432
0.000204052
0.000146168
0.000148285
0.000161111
0.000147521
0.000148994
0.000174743
0.0362591
0.000146493
0.00453468
0.0404102
0.000154759
0.0628588
0.0411598
0.000147354
0.000171438
0.000160711
0.00014825
0.000145912
0.000168656
0.0407079
0.0388946
0.000148067
0.000147995
0.000146159
0.000157328
0.00015035
0.000151927
0.000196641
0.0001739
0.000148917
0.0324147
0.000161731
0.000158274
0.000148836
0.00594512
0.000154016
0.000147266
0.000171115
0.000320258
0.000146023
0.000148213
0.000147661
0.000158168
0.000146139
0.000169889
0.000709226
0.000148786
0.000190605
0.000151978
0.000148611
0.0362028
0.0328239
0.00654145
0.000148382
0.000146285
0.0932752
0.000153957
0.0773133
0.000145755
0.000147632
0.0157592
0.0776807
0.000159997
0.000187516
0.000164543
0.00014741
0.000149793
0.000148029
0.0375563
0.000148232
0.000149947
0.0306076
0.000155198
0.000203051
0.000157879
0.000147446
0.0326368
0.000149766
0.000147656
0.000147976
0.000157388
0.0242389
0.000148992
0.000147733
0.000147521
0.000147429
0.00014749
0.00014809
0.0369322
0.000157866
0.000150235
0.000148621
0.000157884
0.000173296
0.000159804
0.000155811
0.000149883
0.000146095
0.000151406
0.0314157
0.0668903
0.000153587
0.0364947
0.000149379
0.000153591
0.000220932
0.000322187
0.000147271
0.000149127
0.000187047
0.000173797
0.000147193
0.000149623
0.0526311
0.000149767
0.000172451
0.000147979
0.000201478
0.000149615
0.000153049
0.000148743
0.000159674
0.000149918
0.000152739
0.000154264
0.000174711
0.000146966
0.000147875
0.000149633
0.000147308
0.000149366
0.000149071
0.000161062
0.000148633
0.000175633
0.0518329
0.000168347
0.000175082
0.000149282
0.000147494
0.014517
0.097594
0.0001458
0.0597306
0.0171291
0.00014635
0.000147716
0.000147169
0.000174714
0.000176503
0.000319642
0.000146923
0.000154107
0.000146909
0.00014914
0.000152678
0.000170889
0.000149297
0.000196501
0.000148505
0.000164996
0.000147155
0.000150827
0.000147709
0.000173134
0.000164213
0.0199998
0.0951688
0.0577264
0.000172195
0.000147657
0.000305225
0.000428604
0.000178993
0.000148965
0.000148446
0.000295556
0.000147131
0.0248833
0.000146879
0.000163023
0.000149674
0.000149778
0.000147299
0.0743291
0.0390523
0.0253842
0.000165786
0.0189939
0.000147671
0.0588336
0.0713651
0.000149785
0.000148438
0.000146073
0.0609756
0.000145498
0.0436887
0.000157796
0.000190725
0.000149081
0.00022295
0.0205586
0.000286949
0.000156818
0.000162453
0.000148115
0.0431371
0.000145535
0.000202472
0.000199781
0.000165525
0.0743675
0.0460168
0.0001538
0.000151553
0.000147485
0.000193648
0.0444054
0.0150514
0.000146161
0.000416891
0.000159182
0.000194969
0.000171053
0.0372091
0.0383637
0.00014729
0.000154232
0.000163124
0.000155413
0.000155329
0.0699667
0.000149246
0.0731325
0.000147834
0.000147091
0.000172338
0.000188736
0.0604346
0.000150677
0.016314
0.0233027
0.000219098
0.000154772
0.00014951
0.00015065
0.000149466
0.000147763
0.000222977
0.0651581
0.000148998
0.00014774
0.000164656
0.000279666
0.000154898
0.000147668
0.000189984
0.000147629
0.000149816
0.000145684
0.000179628
0.000148079
0.000156834
0.02169
0.000172816
0.00015327
0.000483262
0.00017121
0.000147609
0.000152891
0.000163954
0.000149724
0.000147642
0.000146869
0.0596242
0.0773471
0.000148876
0.000165036
0.000159108
0.000206773
0.000147975
0.057182
0.000146942
0.000146214
0.000203777
0.000175065
0.000177204
0.0001483
0.000147263
0.0239027
0.0376969
0.000191639
0.000322971
0.00014857
0.000155152
0.000148
0.0122961
0.000152376
0.0634424
0.000150135
0.000148006
0.000154493
0.00014655
0.000147017
0.000165767
0.000146532
0.0595789
0.000148122
0.000148863
0.000145964
0.000156808
0.047383
0.0255881
0.000177067
0.02256
0.000147745
0.00016019
0.00015326
0.0783847
0.000148611
0.0001471
0.0737917
0.000159157
0.00015798
0.000148632
0.00019628
0.0708453
0.0431354
0.00014868
0.000158575
0.000218242
0.000165124
0.000259055
0.000185833
0.000172402
0.00014723
0.000149879
0.000179169
0.000166672
0.00014779
0.000191717
0.000146126
0.000149145
0.000149033
0.000146905
0.00014767
0.000147826
0.000211182
0.000154903
0.000151293
0.000164426
0.000146402
0.000147658
0.000162958
0.0466221
0.000167052
0.000170631
0.0593332
0.000149517
0.0539702
0.00015722
0.0140968
0.000165918
0.000149283
0.000149191
0.000153014
0.0453627
0.000284023
0.000165749
0.000175348
0.000145986
0.000147728
0.000149619
0.000149277
0.0170477
0.000156031
0.00014851
0.000192117
0.000183055
0.0720833
0.000150796
0.069815
0.000163357
0.000168439
0.000165571
0.000191012
0.000186699
0.000149002
0.0394693
0.000261885
0.000159934
0.0425624
0.000171281
0.000149688
0.000149735
0.000147679
0.000150807
0.000154992
0.022584
0.000173961
0.000147011
0.00020716
0.000147877
0.0256274
0.000456445
0.00014759
0.0243002
0.000148007
0.000147075
0.00014938
0.038
0.0391951
0.000174371
0.000157276
0.000147682
0.000215696
0.000149497
0.00015951
0.000148485
0.000148756
0.000148238
0.0749537
0.000150247
0.000160741
0.000157016
0.000149354
0.00018513
0.000181242
0.000167315
0.000153781
0.000153636
0.0351434
0.0638172
0.000148918
0.000146914
0.000148918
0.000149866
0.0296492
0.0581505
0.000192781
0.00015411
0.00014661
0.0691903
0.0937339
0.000148888
0.0329852
0.00014611
0.000177444
0.0120031
0.000146296
0.0238272
0.049236
0.000180777
0.0200726
0.076679
0.0001473
0.000150015
0.000298803
0.0353645
0.000149739
0.0268211
0.000154408
0.000147649
0.000149808
0.000152708
0.000168503
0.000155081
0.000182811
0.0199698
0.00017905
0.000158492
0.000148389
0.000167928
0.000324668
0.000146812
0.000444329
0.000166657
0.000149415
0.000152963
0.000149571
0.000148862
0.000157486
0.000314523
0.000150999
0.000146517
0.0263119
0.0383818
0.000181492
0.000149717
0.000171237
0.000147666
0.000147351
0.0712101
0.0325525
0.000147295
0.000144431
0.0558918
0.024508
0.000167018
0.000149032
0.0722733
0.000151411
0.000147373
0.000155623
0.000147369
0.000145926
0.00014534
0.0740802
0.00444966
0.000154393
0.000257593
0.000172286
0.0369357
0.0694932
0.0422483
0.000200901
0.000147932
0.000149551
0.000150096
0.000147782
0.000166477
0.000147079
0.000169433
0.000159754
0.0499012
0.000148196
0.0309442
0.000159139
0.0391519
0.000147314
0.000271496
0.000163433
0.000204639
0.000205399
0.000159909
0.000145314
0.0672559
0.000173218
0.000297229
0.000145698
0.0785105
0.000148069
0.0367492
0.000210468
0.000161149
0.00014764
0.000148473
0.0460098
0.0204075
0.000164427
0.000146663
0.052864
0.000171006
0.000170343
0.0873195
0.000166999
0.000147814
0.0909774
0.00014769
0.000165809
0.000146752
0.036859
0.000146738
0.000154756
0.000216588
0.00048292
0.000149429
0.000172872
0.000155576
0.000167016
0.000147062
0.000190762
0.000151404
0.000165987
0.000147913
0.000147732
0.0322066
0.000161099
0.039235
0.100627
0.0209903
0.000150157
0.00014676
0.000146981
0.000155922
0.000166424
0.000162038
0.0190314
0.000152622
0.0461715
0.000161732
0.000149861
0.000147951
0.000181445
0.000234899
0.0131877
0.000147668
0.0325166
0.000146932
0.0668172
0.000260272
0.000172417
0.00014787
0.000146887
0.000166877
0.000533835
0.000153186
0.00014977
0.000155131
0.0001706
0.000152637
0.000240799
0.0330206
0.000482412
0.000148952
0.000156863
0.0728308
0.000149171
0.000164222
0.000147335
0.000212272
0.000160156
0.000147669
0.000162036
0.00017537
0.000149062
0.0614478
0.000147646
0.000190339
0.000181085
0.000484287
0.000183866
0.000149024
0.000148942
0.0190943
0.000148709
0.000161372
0.000183826
0.000152573
0.000145474
0.0722976
0.000153149
0.000191756
0.00015433
0.000165352
0.000149726
0.000188263
0.000153505
0.000154273
0.0628519
0.000221193
0.000148475
0.000149803
0.00017508
0.0436536
0.000293775
0.00020709
0.000162976
0.000147685
0.000146893
0.0422196
0.000148824
0.0732886
0.000174755
0.0720673
0.000148594
0.000146139
0.000146544
0.000168085
0.000178215
0.000408953
0.0393128
0.000222083
0.000191934
0.000145155
0.000335602
0.00015082
0.000181456
0.00015191
0.000166895
0.00016388
0.000147664
0.000145104
0.000180477
0.000145674
0.000163633
0.000165084
0.0291728
0.0606839
0.000171905
0.0408975
0.000147022
0.000146746
0.00014836
0.000176073
0.000164702
0.000167902
0.000177961
0.0076219
0.000160895
0.000174254
0.000147375
0.000151302
0.0368039
0.000148212
0.000181897
0.000144389
0.000147347
0.053719
0.000183775
0.000147408
0.000175565
0.000196039
0.0476774
0.0697117
0.000153992
0.000183221
0.000175394
0.0132215
0.000148409
0.0682066
0.0315117
0.000151757
0.000159169
0.000145647
0.000192044
0.000147903
0.000147797
0.038877
0.000148972
0.000145441
0.000190151
0.00018062
0.0380791
0.0377383
0.000416185
0.0298403
0.000147107
0.000147676
0.00014743
0.000149305
0.0738861
0.000148511
0.0309528
0.000150788
0.0366662
0.000152681
0.000148702
0.000145719
0.000149022
0.000157329
0.000148871
0.000145329
0.00023543
0.000146883
0.000177024
0.000149571
0.0178201
0.00015276
0.000148403
0.00014909
0.000172769
0.000147228
0.000146255
0.000148472
0.000149376
0.0001569
0.000147342
0.000151561
0.000157393
0.0884809
0.0397727
0.0319155
0.0304575
0.000146456
0.000147866
0.000147705
0.000144105
0.000147655
0.000146262
0.00286184
0.000147309
0.000149647
0.000148322
0.000148169
0.000148061
0.0470799
0.00015604
0.000147687
0.0401561
0.000172087
0.000145921
0.0411057
0.0190791
0.000147989
0.000195588
0.0002066
0.000148357
0.000161639
0.000152067
0.000144887
0.000155858
0.000150754
0.000173525
0.000147919
0.000149614
0.000146359
0.00676842
0.000162702
0.000161804
0.000148058
0.000149746
0.0387583
0.000153987
0.000148101
0.000152504
0.000153266
0.00014965
0.000179115
0.0239901
0.000272354
0.0367513
0.000177683
0.000160172
0.000149708
0.0306292
0.000184942
0.000150291
0.000174817
0.00014995
0.000147583
0.000149607
0.0783867
0.000162774
0.000147857
0.000148162
0.000198062
0.000146213
0.000192987
0.000147998
0.000265832
0.000201855
0.0699048
0.00014841
0.000151014
0.000157574
0.000159663
0.000149092
0.000160493
0.000167165
0.0717143
0.000149988
0.000192066
0.0692795
0.000145556
0.0416882
0.000161434
0.000184895
0.000178011
0.000147651
0.000156364
0.000169661
0.000145739
0.000155117
0.000144821
0.0930871
0.000346873
0.0001584
0.000146693
0.000184527
0.000165975
0.000337475
0.000181325
0.000151489
0.000160806
0.000147667
0.000147849
0.000169377
0.0001631
0.0346587
0.00014685
0.000191163
0.000155245
0.0754939
0.00018845
0.0544085
0.00014513
0.000150564
0.000310459
0.000279466
0.000161164
0.0304003
0.000152628
0.0001784
0.000147268
0.000147323
0.0276996
0.0185592
0.000157395
0.00014851
0.000166567
0.000300223
0.000175396
0.000165343
0.000146496
0.000147961
0.000145952
0.000325336
0.0321419
0.000146863
0.000172491
0.0493515
0.000175241
0.000187294
0.031372
0.0150991
0.0594237
0.000147019
0.000152375
0.0354773
0.000147245
0.000162591
0.000254494
0.0453828
0.000151319
0.000156883
0.0208203
0.000207178
0.000283608
0.045248
0.0399483
0.0369101
0.000148626
0.000145611
0.000147834
0.000151299
0.0106255
0.000163219
0.000186798
0.000188898
0.00016382
0.000148231
0.0261367
0.000146996
0.000163046
0.000147336
0.000160706
0.015015
0.000923515
0.000148335
0.000145566
0.000173013
0.0999574
0.000186581
0.0412766
0.000161535
0.000148415
0.000166631
0.000144419
0.000168172
0.000157594
0.000147701
0.102263
0.000174342
0.000212676
0.00016767
0.000149032
0.00014603
0.00323296
0.000153442
0.00014556
0.000148873
0.000149677
0.000145691
0.00864952
0.0651089
0.0331431
0.000262897
0.0350882
0.000155542
0.000147627
0.0793758
0.000155057
0.000193381
0.0797193
0.000146947
0.045892
0.029722
0.000170947
0.000158375
0.000208842
0.000150936
0.000293201
0.000162227
0.0284583
0.000146933
0.000150465
0.000161461
0.000433819
0.000183366
0.000165409
0.0265515
0.0603046
0.000165561
0.000194492
0.000413376
0.000153427
0.00018843
0.0098002
0.000160536
0.000164689
0.0614571
0.000165413
0.000160211
0.000148574
0.000167012
0.000168948
0.000167786
0.000148469
0.0769429
0.0001739
0.0293804
0.0222821
0.0321955
0.00016098
0.000269308
0.0757941
0.000146822
0.0537479
0.0894948
0.0697288
0.000156316
0.000152452
0.0383954
0.0475568
0.000145738
0.000178502
0.000146203
0.000147282
0.000465744
0.000153638
0.0291486
0.0392648
0.0349125
0.0768801
0.000145301
0.000165957
0.000148214
0.0001468
0.000170233
0.000174356
0.00015778
0.000383501
0.0315611
0.000149803
0.000157593
0.000245646
0.000153314
0.00019024
0.000161938
0.0360111
0.0366046
0.000242471
0.0734087
0.0163959
0.0297592
0.037251
0.03478
0.000167019
0.00015337
0.000171924
0.000171601
0.0480964
0.0766482
0.000148776
0.000156035
0.0356537
0.0273509
0.00015625
0.0289472
0.000147856
0.000217787
0.0700085
0.098758
0.000147338
0.0300135
0.000260826
0.000155556
0.000159495
0.046604
0.0431798
0.029371
0.0378441
0.000148144
0.0133022
0.0330467
0.00016046
0.000183373
0.00016918
0.000146068
0.000157009
0.0243742
0.0449707
0.000154164
0.000149068
0.0362379
0.000167425
0.0341184
0.000172273
0.000270162
0.038147
0.000147847
0.0718772
0.000149891
0.000164467
0.000148438
0.000148512
0.000145828
0.000162427
0.000182193
0.000144468
0.00514538
0.000185319
0.0415178
0.0445773
0.0290397
0.000147237
0.066591
0.00027066
0.0307736
0.00015952
0.00014766
0.00160667
0.000208431
0.0439194
0.000163225
0.000151433
0.000145712
0.00373892
0.0160841
0.00015893
0.00357818
0.000157197
0.000148787
0.0357852
0.000162955
0.0195353
0.000148045
0.000164618
0.0307842
0.0293527
0.0358864
0.000191947
0.0364965
0.0326612
0.0284242
0.000148202
0.0192078
0.000163287
0.000147167
0.000145339
0.000147849
0.0178891
0.000162261
0.0370982
0.0355344
0.000171136
0.000173464
0.000191241
0.0300302
0.000180873
0.0471049
0.0288121
0.00025079
0.000168199
0.00014628
0.0194343
0.000163695
0.000187756
0.0353532
0.0465177
0.000277872
0.000148515
0.000153455
0.000162243
0.000148262
0.000148248
0.000157432
0.0378787
0.00016342
0.000158346
0.0337273
0.000185683
0.000167009
0.00093942
0.0392804
0.000207913
0.0431312
0.0278962
0.0315084
0.000164663
0.00016224
0.000148623
0.000254182
0.000177746
0.00020199
0.000164427
0.000163989
0.000144066
0.000194412
0.0809623
0.000160217
0.000145053
0.000152579
0.00867312
0.000147082
0.00014806
0.000170106
0.0338188
0.000162785
0.000163422
0.000175888
0.000156949
0.000178157
0.000147443
0.000147798
0.000164667
0.000208508
0.000148982
0.00015985
0.000180524
0.080734
0.000148695
0.0731565
0.000148323
0.0388932
0.000151085
0.00015127
0.000144889
0.000188555
0.000168456
0.013011
0.0486476
0.000164946
0.000148993
0.000148852
0.0610703
0.00447226
0.000148303
0.000186698
0.0352274
0.000169063
0.000166109
0.000144125
0.000150041
0.00014763
0.0366144
0.000166641
0.000148204
0.0494959
0.000149275
0.000163779
0.000210574
0.000146081
0.000168784
0.000170673
0.0475503
0.000149467
0.000154324
0.000151311
0.000169148
0.000143881
0.000147412
0.0825882
0.000202543
0.000175082
0.000149379
0.0413551
0.000149314
0.000149298
0.000147536
0.000214105
0.0493677
0.000152655
0.0706702
0.000697608
0.000170155
0.0258936
0.0163285
0.0332462
0.0422464
0.000176431
0.000181328
0.000193592
0.000167748
0.000147489
0.000156694
0.000162411
0.0515508
0.000148409
0.0492644
0.000147774
0.00019197
0.00017524
0.000150479
0.000158708
0.0121668
0.0223955
0.0200431
0.0311027
0.00014663
0.000184501
0.0345276
0.000157415
0.0652006
0.00016049
0.000169236
0.0394342
0.00017007
0.000147804
0.000181007
0.000184527
0.000147735
0.0339915
0.000221544
0.000145945
0.000149556
0.000148699
0.000147922
0.0409528
0.000149222
0.000167755
0.000148027
0.000150588
0.000157668
0.000147613
0.0373112
0.000177644
0.000148685
0.000145622
0.00018308
0.000152385
0.000163276
0.0118941
0.0287881
0.000166251
0.000182807
0.000160508
0.000145238
0.000188605
0.0554941
0.000161614
0.0350947
0.0831487
0.000166003
0.00016272
0.000162645
0.000173007
0.000160295
0.047212
0.000148646
0.000148777
0.00014831
0.0447585
0.0477825
0.000159703
0.00019006
0.00014795
0.000160249
0.000194835
0.000207575
0.000147776
0.000167561
0.04011
0.000167458
0.000147849
0.000147873
0.0362368
0.020976
0.00014765
0.000218755
0.000164466
0.000198656
0.00368947
0.000147034
0.0250145
0.00016204
0.000148006
0.0740319
0.000196919
0.000147609
0.000148997
0.000206682
0.000146845
0.000148158
0.000118036
0.000160758
0.000161627
0.0216052
0.000155149
0.00017432
0.0398412
0.00014784
0.0767659
0.0379549
0.000155036
0.000180614
0.000198857
0.000148108
0.000192415
0.000144256
0.0648605
0.000259517
0.000147895
0.0653068
0.0690716
0.000147939
0.000147905
0.000197711
0.000171712
0.0307337
0.0306774
0.00014852
0.000166453
0.0253521
0.00015149
0.000173853
0.000182428
0.000158938
0.0784968
0.000190189
0.000153952
0.000199249
0.0225996
0.000161358
0.102232
0.000147265
0.000144828
0.000149762
0.00016076
0.0771674
0.000148295
0.000167587
0.00850642
0.0309622
0.000149397
0.000158362
0.000284808
0.0395062
0.000149448
0.0761269
0.000163525
0.000174945
0.000164865
0.00015092
0.000156039
0.000148056
0.000147719
0.0830971
0.000147372
0.000162558
0.000147818
0.047236
0.00015394
0.000155581
0.000145223
0.000153238
0.000147783
0.0001667
0.0173697
0.0383182
0.000163079
0.000160792
0.000147608
0.000157432
0.000171562
0.061747
0.0331177
0.000146718
0.000221699
0.000148052
0.000365394
0.0343506
0.0234139
0.000146725
0.000171292
0.000179642
0.0466548
0.000177695
0.000147289
0.0662599
0.000182968
0.000159523
0.0886086
0.000149569
0.000148231
0.000160491
0.0654337
0.000147802
0.0815307
0.000158425
0.000561428
0.000167382
0.000154175
0.0636396
0.00015664
0.000148562
0.000190926
0.000147946
0.000332088
0.0737785
0.000201703
0.000155249
0.000173074
0.000147872
0.00017778
0.00016673
0.0723864
0.000148318
0.000146434
0.000155455
0.000158246
0.000171074
0.0492705
0.111863
0.000158964
0.000177933
0.000146931
0.108984
0.0575125
0.000180978
0.000147752
0.000149709
0.000153578
0.0771774
0.000148481
0.000157556
0.0700581
0.000183868
0.000148162
0.000179916
0.000181656
0.000147848
0.000154006
0.000180739
0.000283207
0.000169496
0.000165228
0.0428559
0.0382428
0.0179862
0.000155168
0.000148671
0.000153104
0.000152878
0.000183962
0.000173092
0.000159649
0.000181474
0.0485096
0.00015221
0.000147875
0.0269268
0.000182185
0.0308942
0.000197709
0.000154342
0.000151734
0.00015164
0.000146805
0.000147608
0.000170838
0.000145383
0.000150514
0.000149463
0.000150568
0.000151578
0.000147664
0.000159929
0.000170155
0.000149009
0.000147659
0.000148684
0.000150168
0.000149306
0.00018096
0.000148257
0.000151297
0.000252088
0.000146901
0.00015107
0.000149073
0.000158781
0.0262063
0.0520968
0.0282525
0.0606589
0.0751605
0.000204608
0.000147223
0.00017084
0.000148172
0.00100373
0.000153289
0.000156792
0.000148859
0.000172975
0.000147673
0.000161741
0.000146542
0.0704926
0.000187514
0.000148398
0.0464814
0.0698666
0.000149506
0.000192447
0.000147667
0.000145509
0.00965939
0.000149146
0.000172769
0.000191785
0.000148589
0.000145251
0.000174843
0.0352136
0.00015323
0.000152832
0.0311618
0.000147605
0.0293369
0.000171431
0.0206166
0.000145813
0.0327731
0.000147806
0.000148708
0.000206417
0.000174574
0.0337338
0.0339235
0.0162179
0.0757765
0.000107738
0.000181125
0.000148161
0.000166155
0.000149158
0.000146689
0.000168005
0.000147423
0.000147812
0.000145499
0.000145235
0.000178757
0.10373
0.0323846
0.000200683
0.0449458
0.000152941
0.000156823
0.000151751
0.000150168
0.00017996
0.000148278
0.000147897
0.000146788
0.00015313
0.000150887
0.000175275
0.000189809
0.000168114
0.000148615
0.000163089
0.000163387
0.0345852
0.025444
0.000154207
0.000168297
0.000148473
0.0611942
0.0390988
0.00014762
0.000147395
0.000153322
0.000149364
0.0383382
0.000213149
0.0323828
0.000148659
0.107605
0.000148491
0.0284854
0.000171158
0.000146585
0.000157147
0.0818452
0.000154814
0.000157212
0.000162455
0.000177123
0.0724121
0.000148141
0.000147277
0.000155838
0.00143614
0.000147436
0.0328908
0.112694
0.000148039
0.00014403
0.0123019
0.000182514
0.000147761
0.000118412
0.00597854
0.0659711
0.113075
0.000159871
0.000280631
0.000148347
0.0284348
0.0796482
0.000208105
0.0001825
0.000152386
0.0270081
0.000153588
0.000147048
0.000144064
0.0197411
0.000145568
0.0493211
0.000151831
0.000148668
0.000153229
0.0349417
0.000152511
0.000150371
0.000148353
0.0758638
0.0221251
0.0621421
0.040133
0.000173152
0.000147816
0.000152239
0.00595571
0.000169541
0.000147844
0.000175369
0.00654191
0.0978014
0.000148298
0.0249435
0.0285965
0.000170764
0.000148277
0.000152564
0.000147684
0.000147129
0.000147659
0.000148102
0.000150367
0.000168375
0.000148523
0.000200377
0.000149854
0.000150035
0.0214676
0.000184223
0.000154317
0.000150283
0.0302755
0.000145594
0.00015703
0.000154873
0.000146616
0.0663032
0.000163907
0.000150188
0.000161136
0.000148003
0.000158068
0.000148677
0.000193183
0.000146774
0.000147732
0.0815973
0.000154289
0.000195272
0.000163591
0.000151728
0.000185672
0.000143879
0.00014847
0.000149908
0.044202
0.000154143
0.000147715
0.000299234
0.000148093
0.000145529
0.00014706
0.000228839
0.000157765
0.000207391
0.000158119
0.000157004
0.000162258
0.000152439
0.000155829
0.00016194
0.0310477
0.000148958
0.000156954
0.000147201
0.000181044
0.000202349
0.000147178
0.000163262
0.0758521
0.00015656
0.000145281
0.0509963
0.000154601
0.000167371
0.026903
0.000160797
0.000147664
0.000158469
0.000147711
0.000156065
0.000147229
0.000151249
0.000154677
0.000147622
0.000148312
0.000157447
0.00014871
0.000179581
0.000147971
0.000151697
0.000147896
0.000164047
0.0322189
0.000148465
0.000148505
0.000168165
0.000153289
0.000147938
0.00241491
0.0500526
0.0247699
0.000148478
0.000153231
0.000168258
0.000149595
0.000148728
0.000164684
0.00017631
0.0001447
0.000163116
0.000148092
0.000147224
0.000147309
0.00014474
0.000151823
0.000166955
0.000164472
0.000158531
0.0354437
0.000153382
0.00015633
0.000146825
0.056736
0.0984611
0.073254
0.000148376
0.000169866
0.000157444
0.000148224
0.000148693
0.000160713
0.036054
0.0282759
0.000148891
0.000159626
0.0630212