/*--------------------------------*- C++ -*----------------------------------*\
| =========                 |                                                 |
| \\      /  F ield         | OpenFOAM: The Open Source CFD Toolbox           |
|  \\    /   O peration     | Version:  v2012                                 |
|   \\  /    A nd           | Website:  www.openfoam.com                      |
|    \\/     M anipulation  |                                                 |
\*---------------------------------------------------------------------------*/
FoamFile
{
    version     2.0;
    format      ascii;
    class       volVectorField;
    location    "800";
    object      U_0;
}
// * * * * * * * * * * * * * * * * * * * * * * * * * * * * * * * * * * * * * //

dimensions      [0 1 -1 0 0 0 0];


internalField   nonuniform List<vector> 
9793
(
(0.958453 -0.0128523 -1.38859e-20)
(-0.232163 -0.0297315 1.33931e-19)
(0.991051 -0.00588891 1.09268e-20)
(-0.0380691 0.203582 8.63463e-20)
(0.99994 -0.000199626 0)
(1.19217 -0.104632 -1.07085e-19)
(1.07253 -0.239535 0)
(-0.0685912 0.039037 1.23812e-19)
(1.01833 -0.0445522 -9.55105e-23)
(-0.0715189 -0.0294674 0)
(0.999949 -0.00139423 -7.81755e-21)
(0.999919 -0.00151643 -9.20277e-21)
(1.00139 -0.00991413 1.22305e-22)
(-0.0213862 0.131685 -1.24487e-20)
(1.01999 -0.0273459 1.14169e-21)
(1.08615 -0.0174127 2.97012e-20)
(1.11913 -0.110891 -2.62277e-20)
(0.993172 -0.00855747 0)
(-0.0658304 0.0228876 -2.84618e-20)
(1.02025 -0.00610272 -3.04057e-22)
(1.02654 -0.0123224 -1.78596e-24)
(0.999996 -6.93983e-05 -8.01566e-21)
(-0.0479273 0.250227 6.18891e-20)
(-0.0626243 0.0389061 -1.50805e-19)
(0.00672898 0.12491 6.87573e-20)
(0.912552 -0.0502947 1.50644e-20)
(0.999653 -0.00299588 -1.15348e-20)
(1.00002 -0.00042202 1.9868e-21)
(1.02005 -0.00645065 -6.3311e-23)
(1.12184 -0.17163 0)
(-0.218536 0.011959 -1.22301e-19)
(1.21797 -0.125207 -8.89652e-20)
(0.995779 -0.00259297 8.19165e-21)
(0.996072 -0.00902687 -1.16046e-20)
(1.00572 -0.000630683 -7.61573e-21)
(1.08507 -0.0579886 2.13122e-20)
(1.07588 -0.0207721 -1.19932e-20)
(0.911941 0.0117252 3.7865e-20)
(-0.138885 0.117799 1.1184e-19)
(1.0675 -0.0951349 7.49624e-21)
(1.1142 -0.167889 0)
(0.660964 -0.00457666 0)
(-0.0587806 0.0271504 -1.24643e-19)
(1.00001 -0.000305873 0)
(0.991706 0.00101551 -3.24912e-23)
(0.996299 0.00144942 3.72186e-21)
(-0.153224 0.0250179 -9.06437e-20)
(1 -0.000215884 2.00569e-21)
(1.03733 -0.01102 -7.26596e-21)
(0.992977 -0.00796421 9.39024e-21)
(1.08629 -0.0551699 1.78445e-20)
(1.00619 -0.000786446 4.20646e-21)
(1.09947 -0.0809587 -3.43335e-20)
(0.999982 -0.000411719 -1.7709e-20)
(0.888117 -0.108983 0)
(-0.0450457 0.196391 -5.40991e-20)
(1.00183 -0.00902028 0)
(1.15849 -0.0561862 4.76196e-20)
(1.03699 -0.0118971 5.58131e-21)
(1.00001 -0.000114646 0)
(0.895182 -0.00640781 2.41591e-20)
(0.80871 -0.30549 4.21199e-20)
(0.992831 -0.00578185 0)
(1.10866 -0.0371942 -1.04645e-20)
(1.00288 -0.00138601 1.21097e-20)
(1.01779 -0.0427582 -5.26911e-23)
(-0.136672 0.0132584 0)
(1.05082 -0.0613575 1.3825e-20)
(1.07903 -0.0179573 8.40147e-21)
(-0.0241079 0.0455134 6.71944e-20)
(0.976384 -0.00925541 -1.51018e-20)
(0.581796 0.0573616 3.57028e-19)
(-0.0925817 0.0395731 -2.09714e-19)
(0.210936 0.071279 1.75846e-20)
(0.0124299 0.0616919 -2.41419e-20)
(0.999978 -0.000583435 -1.92903e-21)
(0.788277 -0.112691 9.53363e-20)
(0.555468 -0.00548198 8.21739e-20)
(0.993898 -0.00243902 0)
(0.999973 -0.000287353 9.09862e-21)
(0.772776 -0.114359 -8.57467e-20)
(-0.0689955 0.0227399 0)
(1.11663 -0.105271 7.83224e-20)
(0.970901 -0.0704837 -1.48882e-20)
(1.07864 -0.0202564 1.87493e-20)
(1.18827 -0.19689 2.93135e-21)
(0.99995 -0.000326704 -8.975e-21)
(1.14373 -0.031706 4.70051e-20)
(-0.143731 0.121627 -5.59168e-20)
(0.795542 -0.287119 -4.02271e-20)
(-0.056794 0.217197 -1.56008e-19)
(1.26729 -0.227438 1.2888e-19)
(1.26371 -0.236096 5.54302e-20)
(1.06473 -0.14046 0)
(-0.0559916 0.0218335 -1.0277e-19)
(0.994493 -0.0127554 0)
(0.0432154 0.0577364 0)
(1.10682 -0.124504 6.30626e-20)
(1.03342 -0.078483 -4.53639e-21)
(0.999967 -0.00019459 0)
(-0.105632 0.15836 -2.9782e-20)
(1.09577 -0.0800364 3.20268e-20)
(-0.155363 0.0268191 3.74279e-20)
(0.992289 0.00103522 1.07741e-20)
(-0.0707078 0.0874262 4.14259e-20)
(0.300103 0.0272866 9.80802e-20)
(0.297907 0.0661361 0)
(1.00445 -0.00812968 0)
(0.993942 -0.00197976 0)
(0.999989 -0.000113786 0)
(1.00007 -0.000825912 0)
(-0.0533598 0.237173 1.12955e-19)
(0.093303 -0.0768147 -4.60654e-19)
(-0.224582 0.00691405 1.77381e-20)
(0.977217 -0.00988877 2.65895e-20)
(0.998765 -0.00148912 0)
(1.07383 -0.00446852 -2.18695e-20)
(0.996567 0.00050849 0)
(-0.0574953 0.179004 0)
(0.995732 0.00197182 1.66669e-20)
(-0.119688 0.0974118 -7.65653e-20)
(1.14742 -0.0334593 5.0191e-20)
(0.164709 0.0520662 1.11003e-19)
(1.11584 -0.0687439 -1.03805e-20)
(1.07532 -0.0231832 2.5342e-20)
(0.99598 0.00214665 -1.82437e-20)
(1.12209 -0.123406 0)
(-0.202762 0.0132055 4.96935e-22)
(1.18778 -0.0192077 0)
(1.18353 -0.0150711 0)
(1.0643 -0.0380291 1.67184e-20)
(1.00634 -0.0171004 6.16196e-21)
(0.960171 -0.0141479 0)
(1.04674 -0.0547404 0)
(1.07924 -0.0579198 1.55741e-20)
(1.13406 -0.249222 -5.21853e-20)
(1.23291 -0.0798045 0)
(1.0744 -0.00656847 2.63091e-20)
(0.999998 -0.000443344 1.74547e-21)
(1.13276 -0.104765 2.76643e-20)
(-0.0662593 0.0200924 -1.53149e-19)
(1.08247 -0.0585832 -4.52032e-20)
(0.98151 -0.0194223 0)
(1.13484 -0.0354337 1.55774e-21)
(-0.142642 0.0252709 5.85619e-21)
(1.0751 -0.427148 6.94923e-20)
(0.996092 0.00278324 1.81983e-20)
(0.0350603 0.0598535 9.8577e-20)
(1.00596 -0.0174939 -2.4864e-21)
(0.995861 0.00259115 -2.0436e-20)
(0.99867 -0.00311934 -8.65439e-24)
(0.140563 -0.0528145 7.32673e-20)
(1.03188 -0.0753584 0)
(0.999579 -0.00296775 -2.86591e-21)
(0.984178 -0.00164204 0)
(1.26435 -0.261033 1.30106e-19)
(1.1248 -0.110474 2.29779e-20)
(0.992807 -0.00646108 9.37277e-21)
(1.23803 -0.125948 4.34497e-20)
(0.982377 -0.010533 -1.02632e-20)
(1.14112 -0.0350306 -4.91265e-20)
(1.06514 -0.0403948 -1.87179e-20)
(1.02609 -0.0128973 -1.79143e-21)
(0.566451 -0.386098 -9.63547e-21)
(1.04384 -0.0245358 0)
(0.757928 -0.0393651 -4.04833e-21)
(-0.103055 -0.000928603 1.60576e-19)
(1.04544 -0.0296365 -1.66553e-20)
(1.00455 -0.00745984 -4.57285e-21)
(0.999943 -0.00111985 0)
(0.98057 -0.0187564 0)
(-0.181291 -0.00281281 1.04086e-19)
(0.380447 -0.197886 -1.78047e-19)
(-0.193435 0.131958 6.97613e-20)
(1.00165 -0.0104471 -4.47306e-21)
(1.18792 -0.101802 9.38294e-20)
(0.976841 -0.34465 5.67406e-22)
(0.533535 -0.480243 4.36567e-20)
(0.993313 -0.00342559 -9.08571e-21)
(1.05394 -0.0571275 -7.28657e-21)
(-0.0407282 0.0881817 0)
(-0.155835 0.021866 1.00806e-19)
(1.15042 -0.0314083 -5.74713e-20)
(0.995948 0.00135417 -4.24614e-21)
(0.997288 0.000974264 -7.9598e-21)
(1.00473 -0.00793461 6.70899e-21)
(0.232244 0.0539995 0)
(-0.109616 0.0369454 1.62931e-19)
(0.826828 -0.392387 1.26495e-19)
(-0.165028 0.046082 -4.58982e-20)
(1.01587 -0.040284 1.14576e-21)
(-0.131749 0.462213 7.50208e-20)
(0.390497 -0.114741 0)
(0.908127 -0.01157 4.23544e-20)
(1.04046 -0.00852821 5.06578e-21)
(0.953834 -0.0482429 -1.86726e-20)
(0.176938 0.131951 -2.02467e-19)
(1.01735 -0.00629899 -4.26922e-22)
(0.992867 -0.00905503 -6.71212e-21)
(0.999684 -0.000628172 1.95081e-20)
(0.9737 -0.00948479 3.0222e-22)
(1.02931 -0.0114934 1.80953e-21)
(1.09131 -0.0522084 3.14562e-20)
(1.07586 -0.036629 -1.09447e-20)
(-0.0761711 0.103389 -1.355e-19)
(0.980781 -0.000300203 -6.06999e-21)
(1.06032 -0.0870436 0)
(1.04711 -0.0285884 -1.66832e-21)
(0.964821 -0.0269551 0)
(0.769753 -0.517988 7.99846e-21)
(1.12768 -0.104537 -4.226e-20)
(-0.0634662 0.0187594 5.05792e-20)
(1.01529 -0.00596471 -1.66426e-21)
(-0.0405177 0.0436004 0)
(0.966437 -0.0700309 6.15631e-21)
(1.11911 0.00200977 0)
(1.01979 -0.0284422 -3.96817e-22)
(1.13848 -0.240078 7.00583e-20)
(0.998896 -0.00132837 1.07344e-20)
(0.733789 -0.0300019 -1.01003e-19)
(1.11207 -0.126129 -1.12581e-19)
(1.02909 -0.0120873 -3.32903e-23)
(0.370265 0.490649 -8.42281e-20)
(-0.196301 0.128583 5.80557e-20)
(1.05858 -0.138358 -1.64101e-20)
(0.993521 -0.0148684 0)
(1.12815 -0.0697533 0)
(-0.149584 0.102225 4.22899e-20)
(0.747173 -0.0587807 -9.68951e-20)
(0.743911 -0.0692102 1.2832e-19)
(-0.0837326 0.140234 8.04159e-20)
(1.16082 -0.0223435 0)
(1.11667 -1.81968e-05 -3.73844e-21)
(1.11208 -0.0367592 0)
(0.398365 -0.0914692 -1.63324e-19)
(1.0333 -0.00571604 0)
(-0.195385 0.311883 0)
(-0.209357 0.00631842 0)
(1.01699 -0.00610891 0)
(0.999778 -0.000346047 9.80832e-21)
(0.742442 -0.0057082 0)
(0.985794 -0.0140461 1.42782e-20)
(1.00006 -0.000767254 0)
(1.16463 -0.0477377 -4.58102e-20)
(1.16975 -0.0529223 4.2359e-20)
(1.01595 -0.042229 1.86954e-22)
(1.05624 -0.0566871 9.8559e-21)
(1.06362 -0.088919 9.99966e-21)
(0.926238 -0.164914 1.11976e-21)
(1.06109 -0.0506532 0)
(0.99336 -0.00288905 0)
(1.03625 -0.174663 1.45548e-20)
(-0.0354255 0.100406 -1.24112e-19)
(1.02806 -0.0120092 0)
(-0.19333 0.133163 -2.84308e-20)
(0.999992 -0.00050248 7.1794e-21)
(0.999858 -0.00174958 -1.02765e-21)
(1.01348 -0.00117026 -1.4986e-22)
(-0.0480973 0.185983 0)
(0.993282 0.00258204 1.19612e-20)
(1.27243 -0.257448 -1.08742e-19)
(-0.0655686 0.066309 0)
(1.00043 -0.00252879 0)
(0.999044 -0.00138248 -5.74422e-21)
(1.24518 -0.175156 1.15824e-19)
(1.01342 -0.000749576 3.13636e-21)
(0.999902 -0.00058012 -7.1042e-23)
(1.01424 -0.000691729 1.10173e-21)
(-0.0749969 0.0648875 0)
(0.569767 -0.351705 1.45096e-19)
(0.926188 -0.0472496 -4.51082e-21)
(0.862415 -0.479479 0)
(1.15595 -0.0625952 3.68402e-20)
(-0.142399 0.023 -1.51122e-19)
(-0.0656368 0.302061 -1.29973e-19)
(1.04601 -0.031641 5.63659e-21)
(-0.0701557 -0.0539657 -1.06599e-19)
(0.99999 -0.000496559 9.51913e-22)
(-0.114719 0.0891148 6.1525e-20)
(0.372207 -1.10164 -8.93779e-20)
(-0.158286 0.133655 0)
(-0.106865 0.0932179 8.26753e-20)
(1.15952 -0.0233893 0)
(1.06601 -0.0359957 1.72249e-20)
(1.11129 -0.104863 -5.44746e-20)
(1.07332 -0.0364213 1.96442e-20)
(1.04192 -0.0071063 7.88472e-22)
(1.05197 -0.0237358 6.8812e-21)
(0.796901 -0.490167 -1.09383e-20)
(0.908567 -0.0529917 2.16307e-20)
(0.999152 -0.00123631 3.74686e-23)
(1 -0.000101588 5.25347e-21)
(1.01567 -0.00618042 0)
(1.01937 -0.000200322 0)
(1.02766 -0.0125828 0)
(-0.073362 0.2626 0)
(1.00449 -0.00938671 8.40945e-21)
(1.0178 -0.0266338 1.17069e-22)
(1.01922 -0.000277532 0)
(1.00177 -0.00947278 -2.86149e-22)
(-0.0226799 0.0565264 8.60843e-20)
(1.08896 -0.417168 0)
(0.68458 0.0951998 9.21984e-20)
(0.94325 -0.00895482 -9.38906e-21)
(1.13527 -0.0388246 4.80728e-20)
(1.01852 -0.00018398 0)
(0.560022 0.0547998 2.60695e-20)
(0.0391501 -0.0221655 -1.48901e-19)
(0.99264 0.00165999 -1.27255e-20)
(-0.0397142 0.0621097 -1.01659e-19)
(1.10471 -0.041596 -4.48379e-20)
(0.991291 0.000528978 1.60849e-20)
(-0.116905 -0.0210724 -1.58172e-19)
(0.435801 0.0649838 -5.14277e-20)
(0.996095 -0.002694 1.02786e-21)
(1.03507 -0.181425 8.10262e-21)
(0.35805 1.06028 -1.5879e-19)
(0.97057 -0.0252813 -8.76332e-21)
(0.830109 0.0360691 0)
(1.01908 -0.0264126 -9.54084e-22)
(0.965532 -0.0225596 -1.78578e-20)
(-0.00100474 0.0623056 -5.05021e-20)
(0.878497 -0.161304 6.52424e-20)
(0.996221 -0.00836236 3.56173e-21)
(0.995444 0.000749472 0)
(0.946021 -0.00857781 -2.48792e-20)
(1.03345 -0.351193 -6.13595e-20)
(0.0936395 -0.162128 7.84635e-20)
(0.991063 -0.00515176 1.57565e-22)
(1.00459 -0.00860287 0)
(1.03179 -0.0195912 4.38692e-21)
(-0.190085 -0.00223604 3.00897e-23)
(-0.0648028 -0.0194866 1.49195e-19)
(-0.0285274 -0.00788703 0)
(1.03217 -0.00663117 -2.16009e-22)
(0.878756 -0.173508 -7.83423e-21)
(0.825923 0.0455118 -1.28372e-21)
(0.808835 -0.679582 2.41814e-20)
(1.14795 -0.0698525 -4.87153e-20)
(1.03439 -0.00307325 4.05876e-21)
(1.0362 -0.00578687 0)
(1.0309 -0.0199487 0)
(1.10934 -0.1001 -3.36771e-21)
(0.985272 -0.0369304 0)
(0.00561529 0.0102097 0)
(0.997932 -0.00087614 -5.54283e-21)
(1.00862 -0.0169742 -3.19148e-21)
(-0.205241 0.109491 0)
(-0.0812998 0.261529 0)
(-0.0596481 0.0479035 -8.09645e-20)
(1.01907 -0.000193385 3.98608e-22)
(-0.105911 0.158193 1.67282e-20)
(0.97093 -0.081025 0)
(0.227253 -0.609541 9.57322e-20)
(-0.0135972 0.0147167 0)
(-0.0773008 0.136432 -1.13841e-19)
(0.9835 -0.0705256 9.1363e-22)
(1.06855 -0.098635 -2.26081e-20)
(1.22622 -0.0836254 0)
(-0.0617284 0.21567 1.2999e-19)
(-0.0517051 0.226837 6.07773e-20)
(0.899893 0.0305175 1.83936e-20)
(1.00002 -0.000468915 -1.26112e-20)
(0.921397 -0.0464865 4.80302e-20)
(1.03662 -0.00927537 -5.33412e-21)
(1.00521 -0.00944902 3.12957e-21)
(0.984998 -0.0349606 -9.34425e-21)
(0.999727 -0.00345916 -2.32746e-21)
(1 -4.05824e-05 0)
(0.050696 0.00418346 -7.22156e-20)
(0.999933 -0.00128241 0)
(1.11924 -0.134894 0)
(1.07083 -0.0882708 4.02706e-20)
(0.577381 0.0523099 5.87322e-20)
(1.03439 -0.00244762 -4.45767e-21)
(0.972266 -0.0739192 -5.58689e-21)
(-0.0199665 0.162097 5.70571e-21)
(0.355881 0.00894032 -1.4689e-19)
(-0.0201441 0.123811 -2.19605e-20)
(1.14382 -0.0702817 1.57195e-21)
(1.00833 -0.0161441 3.37061e-21)
(0.985265 -0.0733055 -9.84727e-22)
(0.991623 -0.00609288 1.04577e-20)
(1.14905 -0.328635 -8.41508e-20)
(1.01622 -0.00189899 2.9658e-22)
(-0.0663023 0.0529396 1.37076e-19)
(0.92538 -0.38159 -1.79361e-21)
(1.06284 -0.244756 0)
(-0.0728448 -0.00130149 0)
(0.00111258 0.0531778 9.38557e-20)
(1.00035 -0.00201734 -9.56248e-21)
(0.994789 -0.0150464 1.04094e-20)
(1.18972 -0.0666338 -9.46965e-21)
(1.15678 -0.317192 1.86322e-20)
(0.981273 0.000583532 2.8501e-20)
(-0.058121 0.0162928 0)
(1.00035 -0.00214027 7.606e-21)
(0.999539 -0.000942215 -5.20713e-21)
(0.500442 -0.80199 4.7919e-20)
(1.01535 -0.00568235 1.30759e-21)
(1.15945 -0.0601759 -5.01132e-20)
(1.03317 -0.00651264 3.57915e-21)
(-0.0590248 -0.00568011 -1.30489e-19)
(0.998131 -0.000881857 0)
(1.0448 -0.0234691 0)
(-0.204983 0.119421 -1.34409e-19)
(0.605953 0.0566396 -2.10292e-19)
(1.12892 -0.00325369 3.8226e-22)
(0.907205 -0.0159895 4.09225e-20)
(1.00058 -0.00293711 0)
(0.999513 -0.021819 -1.06384e-20)
(0.120668 0.0542195 -1.52647e-19)
(1.10229 -0.129339 -2.99659e-20)
(1.02801 -0.00786377 0)
(0.999544 -0.000201755 1.67388e-22)
(0.87922 -0.10667 3.62663e-20)
(0.831789 0.0639787 -2.78178e-20)
(1.12808 -0.000615996 -2.17936e-20)
(-0.145174 0.0217985 -3.44652e-21)
(0.999607 -0.000572887 -9.61003e-21)
(0.995663 -0.00936788 1.0375e-20)
(0.6361 -0.430421 -1.04037e-19)
(1.00064 -0.0028946 -7.43956e-21)
(-0.041752 0.108344 1.54874e-19)
(0.578336 -0.4761 6.57518e-20)
(0.997004 0.000931315 0)
(0.996342 -0.00326491 0)
(1.05043 -0.0242899 -4.27221e-21)
(1.00043 -0.00237916 3.37189e-21)
(1.03165 -0.0181119 3.38581e-21)
(-0.111417 0.155053 -5.31406e-20)
(0.730479 -0.0442164 3.2003e-20)
(1.17135 -0.160118 0)
(0.883495 0.0461138 3.55417e-20)
(1.06655 -0.0149431 0)
(1.11436 -0.07228 7.73732e-20)
(0.916111 0.012063 -3.72937e-20)
(-0.0632065 0.182064 5.07671e-20)
(0.898777 -0.0106086 -1.19031e-20)
(0.99996 -0.000141284 -7.79622e-21)
(1.05339 -0.0606153 1.76882e-20)
(1.09482 -0.390678 0)
(0.978337 -0.0128172 2.51789e-22)
(0.981314 -0.010495 -6.93524e-21)
(0.974854 -0.00868247 2.20588e-20)
(1.01591 -0.00183801 4.08506e-22)
(0.998139 -0.0065238 -3.19106e-21)
(1.01485 -0.0285021 1.02973e-21)
(0.996379 0.000756963 -8.68327e-21)
(1.00027 -0.00171067 -6.85284e-21)
(0.963968 -0.0481358 0)
(1.07178 -0.0390601 -9.21967e-21)
(1.16435 -0.0450442 -1.03656e-19)
(1.0176 -0.000431575 0)
(0.214363 0.155975 1.66111e-19)
(0.914701 -0.0396788 -1.68007e-20)
(0.934146 -0.406092 2.96493e-21)
(-0.0742172 0.326919 1.21015e-20)
(1.04188 -0.00820505 -7.40118e-21)
(-0.194467 0.11023 0)
(1.07226 -0.228206 -5.24001e-20)
(1.04027 -0.00958836 1.68284e-21)
(1.01614 -0.00257302 -7.72207e-22)
(0.981943 -0.0218691 2.24736e-20)
(-0.093469 0.105023 -5.8357e-20)
(1.15667 -0.0666535 6.74991e-20)
(1.01634 -0.00241636 7.10024e-22)
(0.99851 1.74416e-05 6.63521e-21)
(0.999664 -0.00071862 -6.495e-21)
(0.709614 0.151057 5.829e-20)
(0.967753 -0.36694 -5.48289e-22)
(0.451857 0.00807926 8.81186e-20)
(1.00263 -0.00133547 3.69607e-23)
(0.984409 -0.000813228 -2.26502e-22)
(0.853143 -0.0264304 4.26686e-20)
(-0.164593 0.0220922 0)
(-0.15175 0.135633 -2.73524e-20)
(0.93151 -0.0204885 1.77864e-20)
(1.06152 -0.0314302 -1.43509e-20)
(-0.199305 0.131566 1.18314e-19)
(0.808237 -0.0419151 0)
(1.20054 -0.0421711 0)
(0.972463 -0.0306383 0)
(1.00746 -0.0170998 -3.96078e-21)
(-0.0853406 0.102089 4.21197e-20)
(0.992965 -0.0118828 0)
(0.997928 -0.3416 -1.88061e-20)
(0.557526 0.0466124 -1.27947e-19)
(1.02754 -0.00728931 1.56816e-21)
(0.602011 -0.340966 -1.7418e-19)
(1.05776 -0.0811295 0)
(-0.0884709 0.172355 4.57582e-20)
(0.999895 -0.0211886 1.39853e-20)
(-0.0712967 0.0409344 -5.84045e-21)
(1.20266 -0.150298 -7.29404e-20)
(1.08381 -0.0186805 -1.9912e-20)
(1.26496 -0.171787 -1.10188e-19)
(0.994043 -0.0122724 -9.83698e-21)
(0.836881 -0.635774 -6.87534e-21)
(0.997984 -0.000346113 1.85619e-20)
(0.995929 -0.0151258 1.13319e-21)
(0.999959 -0.00106772 0)
(0.993446 -0.00719922 -1.97475e-20)
(-0.0261935 0.0631355 7.81806e-20)
(0.994308 -0.0135823 0)
(1.03537 -0.0126995 4.49572e-21)
(0.945501 -0.0155446 8.67342e-21)
(1.03194 -0.00735122 0)
(1.00707 -0.0175211 4.29248e-21)
(1.02151 -0.191938 0)
(0.976311 -0.0554068 -1.46716e-20)
(1.10781 -0.041213 3.79907e-20)
(1.0013 -0.00361233 0)
(1.00119 -0.00344033 -3.79255e-21)
(-0.0252368 0.152764 -4.07509e-20)
(0.643714 0.0608593 6.46408e-20)
(0.934365 -0.0200245 0)
(-0.196995 0.131483 -6.40249e-20)
(1.06929 -0.038642 -6.3574e-22)
(0.979395 -0.0385076 0)
(0.993594 0.00300972 -1.10853e-20)
(1.0325 -0.0178098 2.10069e-21)
(0.0422821 -0.0131073 1.65173e-19)
(1.03564 -0.0118451 -1.2872e-22)
(1.00127 -0.000508905 0)
(-0.200275 0.0183412 1.44948e-20)
(0.727655 -0.0157624 7.59178e-20)
(0.937503 -0.167964 1.51557e-20)
(1.00145 -0.00947828 0)
(0.999989 -0.000140424 1.09352e-21)
(1.03501 -0.0362379 0)
(0.999942 -0.000749521 0)
(-0.176749 0.134505 1.56282e-19)
(0.968532 -0.0251567 9.07899e-21)
(-0.134789 0.0641676 3.17368e-20)
(1.07173 -0.0258657 1.05815e-21)
(0.310964 0.477433 8.78066e-20)
(0.999959 -0.000369946 0)
(-0.191915 0.0169365 -9.5048e-20)
(1.0092 -0.000409585 3.10399e-21)
(1.0493 -0.363118 3.69947e-20)
(0.992016 -0.0108178 -6.87524e-21)
(1.14689 -0.0122302 0)
(-0.0248834 0.101487 7.5529e-20)
(0.998206 -0.000274603 0)
(0.41572 0.0311016 -8.53525e-20)
(0.988352 -0.0130793 4.31396e-22)
(1.00014 -0.000109427 0)
(1.026 -0.0114579 1.50477e-21)
(0.0516147 0.081498 -3.86126e-20)
(-0.0702933 0.112091 9.84183e-20)
(0.980957 -0.0209399 -1.27278e-20)
(1.06075 -0.0832113 0)
(1.03628 -0.0101413 3.49939e-22)
(-0.190949 0.130692 -1.87057e-19)
(1.01809 -0.00053109 5.50202e-24)
(1.04262 -0.172966 0)
(-0.0771074 0.0439262 0)
(0.909715 0.0155052 -4.99586e-20)
(1.00173 -0.000925098 -2.75521e-21)
(0.797925 -0.126622 -3.40566e-20)
(1.00009 -0.000501876 2.44409e-22)
(1.03671 -0.0365343 6.96247e-22)
(1.03007 -0.021775 0)
(1.16084 -0.0424606 4.66925e-20)
(1.00288 -0.003822 0)
(-0.208259 0.128102 -5.83256e-20)
(1.00104 -0.00335376 -4.58116e-22)
(0.98785 -0.0394863 0)
(1.11635 -0.029977 -1.41292e-20)
(0.753794 -0.224746 5.43445e-20)
(1.00313 -0.00974 -1.72016e-19)
(1.0172 -0.0253809 0)
(-0.179334 0.0149225 0)
(0.995218 -0.0155388 -9.81585e-21)
(0.983681 -0.385068 -3.95923e-21)
(0.985375 -0.00653079 0)
(1.04666 -0.0267297 1.09175e-20)
(0.993285 -0.0124807 6.85338e-21)
(1.00097 -0.00339971 4.60265e-22)
(0.999964 -0.000257219 -1.06149e-21)
(0.978568 -0.403204 2.88791e-20)
(1.11701 -0.00300663 -2.74183e-20)
(0.369178 0.0306861 6.81556e-20)
(1.15752 -0.148882 -1.11643e-20)
(0.828485 -0.0456487 7.81245e-20)
(0.89762 -0.12474 1.11817e-20)
(0.560792 -0.772725 9.81386e-22)
(1.04892 -0.0564252 0)
(-0.168688 0.13614 -2.21239e-19)
(-0.0820575 0.00445593 0)
(1.04688 -0.382691 -2.09738e-20)
(1.02141 -0.17417 5.67877e-20)
(0.695876 0.0313056 0)
(1.01273 -0.358245 4.6695e-20)
(1.03779 -0.0358096 2.6436e-21)
(0.0623979 -0.135365 1.22591e-20)
(1.11634 -0.0272103 9.83548e-22)
(1.04461 -0.0261563 -1.00898e-20)
(1.06352 -0.393313 -1.72354e-20)
(1.00005 -0.000451189 0)
(0.837437 -0.502218 1.23709e-20)
(0.944094 -0.156249 9.11365e-21)
(1.19203 -0.0645457 -5.19559e-20)
(0.887001 0.0360188 3.89746e-20)
(-0.0834133 0.242797 0)
(-0.0923809 0.0203276 0)
(1.11325 -0.0317464 2.58161e-20)
(1.18556 -0.0628348 -8.77122e-20)
(0.999742 -0.000426979 1.23352e-21)
(1.00079 -0.487798 -2.56881e-20)
(0.945716 0.0164447 0)
(0.992387 -0.0103039 -1.39951e-20)
(0.983154 -0.0341738 5.35653e-21)
(1.06777 -0.00435162 -2.11887e-20)
(1.09674 -0.126944 0)
(-0.0924815 0.135258 -8.17459e-20)
(0.855528 -0.4419 0)
(-0.10942 0.0317977 2.00443e-20)
(1.04425 -0.0561079 0)
(0.95255 -0.0506588 2.45366e-20)
(-0.0883253 0.171573 -5.99117e-20)
(0.417918 0.141331 2.76818e-20)
(1.05803 -0.0327174 1.28716e-20)
(1.13857 -0.076083 0)
(0.963233 -0.0280699 -2.67913e-20)
(0.24527 -0.716189 5.06549e-20)
(-0.199172 0.116677 4.02259e-20)
(0.996878 0.000620337 8.57856e-21)
(0.689664 0.108726 0)
(0.659421 -0.392965 8.37545e-20)
(-0.0916936 0.0129551 -2.64714e-22)
(1.003 -0.0012319 -6.74419e-21)
(0.918426 -0.052036 -3.15672e-20)
(0.140675 0.0393245 -2.11811e-20)
(1.08904 -0.0494526 0)
(0.305084 0.0505996 5.66348e-20)
(1.14824 -0.0143369 0)
(0.594111 0.054629 0)
(0.941658 -0.0744761 1.23983e-20)
(1.04857 -0.0595638 -1.22339e-20)
(1.01909 -0.0356922 -1.32878e-21)
(0.984803 -0.00222626 0)
(1.12084 -0.00376814 0)
(0.999997 -0.000206017 0)
(1.01311 0.015415 0)
(1.17261 -0.132978 4.29426e-20)
(1.03628 -0.256794 -1.49906e-20)
(1.00003 -0.000224865 0)
(1.00011 -0.000887586 8.9923e-21)
(1.06921 -0.01211 1.26884e-20)
(1.05016 -0.00549444 6.37145e-21)
(1.00628 -0.00118856 0)
(0.985341 -0.0130037 0)
(1.15071 -0.148566 0)
(-0.0831567 0.106666 1.69409e-19)
(0.0228886 0.121703 -1.6018e-20)
(1.00001 -0.000290906 1.20886e-20)
(1.13299 -0.333501 -5.30782e-20)
(1.00112 -0.0080579 0)
(-0.0875865 -0.0033214 4.16091e-20)
(1.12508 -0.0445601 -3.43375e-20)
(0.774701 -0.0785706 2.37608e-21)
(0.834058 0.0542796 -2.7957e-20)
(1.20111 -0.14394 -6.87554e-20)
(1.00992 -0.00635025 -2.32579e-21)
(0.998551 -0.00340714 5.9569e-23)
(0.812887 -0.124858 -1.54833e-20)
(0.992239 -0.0117826 0)
(1.03371 -0.0352647 0)
(1.13322 -0.0944611 3.06413e-20)
(-0.0675 0.157475 8.44202e-23)
(1.02998 -0.011335 -6.96292e-21)
(1.16117 -0.00883639 0)
(-0.16017 0.123066 9.08245e-20)
(1.06168 -0.0532575 0)
(-0.0625102 0.0825947 -4.70752e-20)
(-0.162368 0.11674 0)
(1.0152 -0.0297793 -1.3796e-22)
(1.11622 -0.120923 0)
(1.08849 -0.0184345 -3.17198e-20)
(1.01449 -0.0396818 0)
(1.02508 -0.0113386 -1.22147e-21)
(0.614548 -0.105186 1.1285e-19)
(-0.163584 0.128329 -1.36313e-19)
(-0.0849779 0.0397845 -3.35063e-20)
(0.977197 -0.0137978 0)
(0.99523 0.00103495 5.40858e-21)
(1.02175 -0.014833 -3.4791e-22)
(1.07601 -0.000669497 -6.43772e-21)
(0.979443 -0.0556215 0)
(0.965583 -0.0659968 -6.04186e-21)
(0.515993 0.460521 -1.06245e-19)
(1.12537 -0.0413987 6.33262e-20)
(1.00029 -0.00182504 5.73553e-21)
(0.995891 -0.071791 0)
(1.09007 -0.0549686 -5.55061e-20)
(0.838479 -0.0484605 -1.01552e-19)
(1.03418 -0.0335934 0)
(-0.255254 0.0100318 -4.75276e-21)
(1.06501 -0.0339025 -1.60169e-20)
(1.0039 -0.00299936 0)
(1.04675 -0.255491 2.21381e-20)
(0.149659 0.14191 1.10912e-19)
(1.029 -0.00801815 -1.17007e-21)
(0.996518 0.00112741 8.67039e-21)
(0.992267 -0.005517 0)
(1.08141 -0.0169107 -2.3942e-21)
(1.01001 -0.00600283 1.10243e-22)
(1.11366 -0.0345594 -1.45734e-20)
(1.24392 -0.0955483 8.01365e-20)
(0.989854 -0.0433316 1.77811e-20)
(1.16096 -0.0403394 0)
(1.05593 -0.0322616 0)
(1.03269 -0.0321624 -2.70058e-21)
(0.974728 -0.00720907 1.21854e-19)
(-0.070014 0.00072109 -1.07864e-19)
(1.151 -0.0190402 -1.65418e-20)
(0.998844 -0.0031502 0)
(1.03048 -0.00797631 3.40226e-21)
(0.31901 0.0928163 4.12123e-20)
(0.904363 -0.00843211 -5.77884e-20)
(0.684052 0.0577616 0)
(1.02875 -0.00653268 2.08701e-21)
(0.987454 -0.0129741 0)
(-0.213065 0.0069385 6.09129e-20)
(-0.148899 0.0482535 4.10734e-20)
(1.06344 -0.0939829 -8.74578e-21)
(1.16185 -0.0536777 -5.21418e-20)
(0.689493 0.047354 -1.11193e-19)
(0.994013 -0.0154837 0)
(1.00002 -0.000192925 8.21817e-22)
(1.01083 -0.0384497 3.06749e-21)
(-0.0636666 0.0147053 -3.38632e-20)
(1.00139 -0.000634539 0)
(0.999997 -4.89321e-05 0)
(-0.0658733 0.205823 -1.25043e-19)
(0.892173 0.0361091 -7.53202e-20)
(1.19477 -0.193123 -7.62348e-20)
(0.839831 0.0356905 -1.07199e-19)
(1.00161 -0.00854566 4.66644e-21)
(-0.0677177 0.00587229 1.28383e-19)
(1 -0.000440083 5.36241e-21)
(0.986862 -0.008591 1.54581e-20)
(1.00972 -0.037677 0)
(0.911057 -0.104622 -2.72128e-20)
(-0.0288381 0.196614 0)
(0.999896 -0.00188375 0)
(0.992756 0.0025843 1.28009e-20)
(0.991829 -0.0122667 0)
(0.993636 -0.0139205 0)
(1.00131 -0.00850548 0)
(1.0186 -0.0368334 3.46359e-22)
(0.930011 -0.155125 -1.29915e-19)
(0.903841 -0.108645 -5.60289e-21)
(0.964268 -0.044919 0)
(0.99986 -0.00284732 -4.49169e-21)
(0.895819 -0.103016 -2.2873e-20)
(1.12652 -0.120675 2.57313e-20)
(1.08607 -0.0147682 5.2318e-21)
(0.882959 0.041425 -3.83466e-20)
(1 -8.9135e-05 0)
(1.02182 -0.0141375 8.71386e-23)
(0.996708 -0.0692753 2.15755e-21)
(-0.0529255 0.105233 1.15978e-19)
(0.131396 0.0599763 9.39827e-20)
(1.0649 -0.0135119 0)
(-0.092683 0.0362401 -9.57072e-20)
(0.999719 -0.000286757 -1.146e-20)
(0.941971 -0.0693556 -1.22145e-20)
(1.22967 -0.319584 -2.10743e-21)
(0.154708 -0.127946 1.30882e-19)
(1.02183 -0.0259174 0)
(0.999881 -0.00157993 1.06071e-20)
(0.430553 0.239125 -1.80892e-19)
(1.12922 -0.0671854 3.24837e-20)
(1.00417 -0.00310122 -6.39276e-21)
(0.999922 -0.00048436 0)
(-0.209849 0.128409 1.14088e-19)
(1.00002 -0.000141448 1.89903e-22)
(1.10707 -0.173758 -4.16836e-20)
(0.996033 -0.00318372 5.08974e-22)
(0.346462 0.0469688 0)
(0.999932 -0.000560419 0)
(1.01035 -0.000279288 -1.57207e-21)
(0.998638 -0.000151835 -6.59579e-21)
(1.03962 -0.112466 5.74441e-21)
(1.04895 -0.00474617 -6.75178e-21)
(0.928791 -0.0421759 3.45609e-21)
(0.903561 0.0278012 3.50581e-20)
(0.537603 0.128735 -4.698e-20)
(1.00432 -0.00961687 2.65255e-21)
(0.998388 -0.00639156 0)
(1.00006 -0.000307422 0)
(0.996291 -0.0156081 -1.38895e-21)
(1.03913 -0.0334131 7.07966e-21)
(1.04465 -0.015782 -5.45792e-24)
(1.07116 -0.0925071 -3.56121e-20)
(0.9983 6.96566e-07 0)
(1.13231 -0.0465283 -6.30138e-20)
(0.0171061 0.11192 0)
(1.10441 -0.0993892 -2.4599e-20)
(1.13667 -0.0980541 4.15027e-20)
(0.999642 -0.000466377 -1.29201e-21)
(1.03104 -0.0213444 2.18053e-21)
(-0.209614 0.00534744 0)
(0.0811089 0.107663 0)
(1.02479 -0.0105357 1.26747e-21)
(-0.0868919 0.099454 -5.88577e-20)
(-0.217292 0.0127318 2.49553e-19)
(1.03068 -0.00844984 -4.14084e-21)
(0.992427 0.00211799 -1.2802e-20)
(1.00033 -0.0142102 8.3683e-22)
(1.0939 -0.23043 5.75586e-20)
(1.13365 -0.044649 5.60293e-20)
(0.135676 -0.087886 2.61098e-19)
(1.00495 -0.00968805 -1.08917e-20)
(1.01091 -0.088876 0)
(1.00539 -0.00721308 1.36062e-21)
(0.964185 -0.0239893 2.19328e-20)
(1.00944 -0.000368628 -5.55968e-22)
(1.01975 -0.275007 1.68689e-20)
(1.03985 -0.0321977 -6.09199e-21)
(1.1845 -0.204572 -6.86202e-20)
(0.999108 -0.00274781 6.58513e-22)
(0.89752 -0.238756 -1.67501e-20)
(1.00362 -0.00868273 -3.31028e-21)
(0.957499 -0.0475994 0)
(0.985163 -0.00863083 0)
(1.11422 -0.00502604 0)
(0.724969 0.150727 5.05325e-20)
(-0.194732 0.0187372 -5.2028e-20)
(-0.037237 0.013332 -5.38616e-20)
(-0.123664 0.107582 5.69378e-20)
(1.12352 -0.0704641 0)
(0.986903 -0.0140578 -7.74414e-21)
(0.56849 -0.723156 3.90941e-20)
(0.0745892 -0.0977258 3.41409e-19)
(1.14033 -0.0440552 2.7502e-20)
(1.0375 -0.030038 -5.24782e-22)
(0.999643 -0.00333552 0)
(0.169579 0.260783 -7.03781e-20)
(1.00058 -0.0148547 -7.58629e-21)
(-0.0314647 0.202861 0)
(1.03426 -0.00544574 0)
(1.09586 -0.0326771 1.79202e-20)
(1.04287 -0.0320987 1.12801e-20)
(0.99995 -6.99477e-06 1.27954e-20)
(1.02149 -0.0271188 0)
(0.580092 0.0172593 1.40943e-20)
(-0.0543225 0.018082 0)
(-0.0346455 0.213461 4.75821e-20)
(0.661241 0.0674237 4.7844e-20)
(-0.179697 0.0031712 0)
(0.993364 -0.00660277 -1.34432e-22)
(-0.151389 0.111556 6.97261e-20)
(0.257626 0.0303067 1.09886e-19)
(1.00002 -9.99577e-05 6.46223e-21)
(0.987316 -0.0375786 8.26325e-21)
(1.01139 -0.00835353 1.56326e-23)
(0.778799 0.0321747 0)
(1.02663 -0.00724996 -1.86886e-21)
(-0.0603314 0.0435451 -9.65597e-20)
(0.845039 -0.0318039 0)
(1.17819 -0.102603 2.29706e-20)
(1.00168 -0.0487144 -5.44758e-21)
(1.186 -0.345252 -2.15666e-19)
(-0.126706 0.0187897 8.6986e-20)
(0.164404 0.05612 3.85954e-19)
(0.925591 -0.104152 -3.2445e-20)
(1.08208 -0.0843712 2.2797e-20)
(1.00157 -0.000953067 1.01778e-20)
(0.458678 -0.147063 0)
(1.0283 -0.00541939 0)
(0.401104 0.334561 -1.50787e-19)
(1.19545 -0.102729 7.86391e-20)
(0.793025 -0.228054 0)
(0.335224 0.0282362 1.6789e-19)
(-0.019486 0.0503506 6.18058e-20)
(1.05848 -0.0499633 -1.69286e-20)
(1.00269 -0.0698131 0)
(1.00298 -0.00416072 -3.28193e-21)
(1.14595 -0.00710446 -1.72083e-20)
(-0.0605175 0.042509 1.27067e-19)
(-0.150328 -0.00635153 1.06474e-19)
(1.01054 -0.00789566 0)
(0.210461 0.6406 9.39315e-20)
(1.08367 -0.0133121 -1.0028e-20)
(1.16865 -0.0493725 7.02538e-21)
(0.563679 0.132073 -6.09886e-20)
(-0.0687333 0.154689 -1.12657e-19)
(-0.0546931 0.149902 5.17366e-20)
(1.0363 -0.00494429 4.96857e-21)
(0.911225 -0.0429222 0)
(1.09592 -0.0490248 -5.92319e-21)
(1.07265 -0.0237223 -1.67511e-20)
(1.07125 -0.0115492 -6.8678e-21)
(0.18346 0.0419566 1.86978e-20)
(0.999703 -0.000864099 0)
(0.46128 -0.00105994 5.60836e-20)
(1.0179 -0.000433856 -9.00274e-23)
(1.03534 -0.00439526 -4.3203e-21)
(1.08339 -0.214893 -2.25374e-20)
(1.16663 -0.055397 -1.06474e-19)
(0.816229 0.028796 -9.64598e-20)
(1.03953 -0.0459012 8.32857e-21)
(0.870704 -0.387801 -1.35149e-19)
(1.01435 -0.217244 1.33353e-20)
(1.20328 -0.28945 -1.0773e-19)
(0.89542 0.0292677 1.05062e-21)
(1.00011 -0.000457322 9.51901e-21)
(1.03782 -0.0466466 -3.40864e-21)
(1.00013 -0.000468444 -9.91793e-21)
(0.983254 -0.00974874 0)
(1.20287 -0.30354 0)
(0.767311 0.052196 -1.44219e-20)
(1.02007 -0.0450459 3.94777e-22)
(0.98444 -0.00702738 0)
(1.10026 -0.0455057 2.40809e-20)
(0.192455 -0.132856 -2.63235e-19)
(1.00228 -0.094119 -2.59977e-21)
(0.986174 0.001038 -1.07765e-20)
(0.3825 0.133417 0)
(0.9922 -0.00709002 0)
(0.999974 -3.05886e-05 -1.18954e-20)
(1.02891 -0.00588904 1.22413e-21)
(1.13774 -0.0334109 -5.81149e-20)
(0.99582 0.000891589 0)
(1.07729 -0.0276173 -1.50663e-20)
(-0.0409809 0.281868 7.6108e-22)