/*--------------------------------*- C++ -*----------------------------------*\
| =========                 |                                                 |
| \\      /  F ield         | OpenFOAM: The Open Source CFD Toolbox           |
|  \\    /   O peration     | Version:  v2012                                 |
|   \\  /    A nd           | Website:  www.openfoam.com                      |
|    \\/     M anipulation  |                                                 |
\*---------------------------------------------------------------------------*/
FoamFile
{
    version     2.0;
    format      ascii;
    class       volScalarField::Internal;
    location    "800";
    object      V0;
}
// * * * * * * * * * * * * * * * * * * * * * * * * * * * * * * * * * * * * * //

dimensions      [0 3 0 0 0 0 0];


value           nonuniform List<scalar> 
9793
(
0.0334278
0.00144294
0.0892338
0.00114519
0.186507
0.00698969
0.00914759
0.00216156
0.0527672
0.00154629
0.161501
0.136426
0.140704
0.00495609
0.0889742
0.0379427
0.0166881
0.0865016
0.00167732
0.11887
0.103447
0.179901
0.00189873
0.00171511
0.00449389
0.0228246
0.140658
0.203614
0.0983802
0.00864848
0.00129544
0.0061689
0.102268
0.101978
0.167529
0.0217409
0.0388284
0.0205779
0.00363616
0.0220498
0.0106072
0.0041393
0.00176047
0.175149
0.0819308
0.113158
0.00153425
0.170278
0.0768051
0.0974558
0.0281259
0.151576
0.0187152
0.173865
0.0170193
0.00197648
0.134724
0.0120121
0.0682226
0.179812
0.0179944
0.00547087
0.0927296
0.027473
0.168194
0.0603921
0.00131353
0.0331086
0.0386259
0.00337034
0.0469132
0.00431811
0.00185633
0.0166373
0.00494651
0.162007
0.0113846
0.00367764
0.0852421
0.156589
0.00738911
0.00200837
0.0146405
0.0320284
0.0369629
0.00587838
0.158961
0.0189385
0.0035955
0.00578043
0.0020533
0.00336403
0.0043346
0.0159385
0.00216689
0.0941914
0.00461064
0.0129319
0.0285649
0.187412
0.00364435
0.0201752
0.0156427
0.0877338
0.00548274
0.00275574
0.0194778
0.125275
0.0863846
0.180387
0.143483
0.00201184
0.00182106
0.00118391
0.0518517
0.130095
0.049911
0.0990509
0.00185309
0.0824093
0.00669092
0.019244
0.00367388
0.0182082
0.045758
0.0929093
0.0127526
0.00150598
0.0109386
0.0123148
0.0340589
0.102103
0.0362988
0.0366611
0.0295384
0.0059664
0.00638389
0.0411152
0.178196
0.00888731
0.00193525
0.020615
0.0603894
0.0182493
0.00147082
0.00356586
0.0956658
0.00210641
0.0850344
0.0825963
0.144167
0.00245562
0.0350289
0.116324
0.057649
0.00368509
0.0128408
0.0965798
0.00486733
0.0584371
0.0180296
0.0332365
0.0788442
0.00233489
0.0595337
0.0041152
0.0156342
0.0517442
0.134807
0.169318
0.0495921
0.00171435
0.00186486
0.00644652
0.127144
0.00794361
0.00588043
0.00231205
0.0995233
0.0337769
0.00699759
0.00142879
0.0165723
0.0985488
0.100902
0.128134
0.00489932
0.00179781
0.00228926
0.0146012
0.056824
0.00107128
0.00208501
0.0203637
0.06794
0.0321188
0.00197699
0.105607
0.0664575
0.148064
0.0496813
0.0637272
0.0248624
0.0312844
0.00217886
0.0512885
0.0209548
0.0483971
0.0417161
0.00287905
0.0123657
0.00196975
0.109159
0.00259834
0.0295395
0.02897
0.0709256
0.00642385
0.136862
0.00880289
0.0109184
0.0796036
0.0019283
0.00813522
0.0124005
0.0918544
0.0170167
0.0114135
0.00866056
0.0064144
0.00240017
0.0124155
0.0316941
0.0225691
0.00232356
0.080743
0.00124816
0.00139932
0.102158
0.153878
0.00467596
0.0765487
0.116396
0.0123762
0.0119611
0.0599313
0.0275008
0.0192595
0.0146405
0.0281735
0.0936979
0.0121904
0.00176537
0.092588
0.00848073
0.14212
0.156849
0.133022
0.00199699
0.0765091
0.00317854
0.00312265
0.162527
0.125879
0.00421555
0.161579
0.155113
0.159739
0.00248736
0.00329661
0.0242964
0.00356174
0.0115041
0.0158503
0.00149767
0.0523591
0.00123928
0.176247
0.0124581
0.00109339
0.00462616
0.00537923
0.0117273
0.0340284
0.0141578
0.0322035
0.074216
0.0419076
0.00363206
0.0170138
0.108998
0.170716
0.0863074
0.135741
0.0915523
0.00095862
0.126039
0.0826697
0.110209
0.116142
0.00136794
0.00311982
0.00555155
0.0301716
0.0170916
0.149884
0.0163026
0.00212916
0.0745902
0.00462872
0.0270127
0.0762704
0.00124248
0.0155585
0.0998776
0.0121115
0.00124299
0.0454558
0.0106509
0.0855542
0.0423759
0.0106881
0.0140144
0.110254
0.0885
0.0330218
0.0050123
0.00144877
0.0751861
0.119566
0.0636131
0.00144061
0.00162882
0.00200317
0.0802069
0.0125701
0.010672
0.00211397
0.0105644
0.0790887
0.0742996
0.0715285
0.0144542
0.0554918
0.00156863
0.104897
0.106465
0.00918034
0.00130569
0.00255121
0.152426
0.00305822
0.02995
0.00119794
0.00204945
0.00203
0.0313456
0.0167097
0.00614776
0.00201413
0.001764
0.0116775
0.19924
0.0212161
0.0706153
0.130596
0.0554572
0.13703
0.172335
0.00216862
0.154496
0.0122166
0.0214405
0.00758747
0.0668915
0.0283076
0.00128477
0.00274261
0.0058197
0.0134724
0.104433
0.0288956
0.0911784
0.00416311
0.146294
0.00316099
0.00556386
0.00710996
0.00159493
0.0111283
0.144044
0.0872426
0.00561842
0.00421348
0.0556794
0.00176481
0.144956
0.137946
0.00143537
0.0975433
0.01121
0.0789837
0.0132235
0.110214
0.0506268
0.00823059
0.00407863
0.0217161
0.0191868
0.14063
0.0619462
0.002923
0.0128008
0.100352
0.138417
0.0126602
0.0109852
0.0236499
0.00126539
0.141187
0.0766069
0.003517
0.145693
0.00167496
0.00260004
0.0953261
0.103854
0.0422736
0.162367
0.0737169
0.00419895
0.00719963
0.0037996
0.0135074
0.0450519
0.0168157
0.0196741
0.00195276
0.0175967
0.187772
0.0284166
0.00382822
0.0516965
0.0452118
0.0477199
0.147715
0.111864
0.0695845
0.0955121
0.158585
0.037187
0.0285038
0.0107495
0.137508
0.00204407
0.0220442
0.00439561
0.00148096
0.0691319
0.00969124
0.0094819
0.0652996
0.121211
0.0528911
0.00767538
0.0101343
0.136309
0.115121
0.139123
0.00398142
0.00609076
0.00304569
0.167567
0.0429337
0.0128062
0.00136776
0.00383658
0.0176423
0.0351791
0.00795929
0.00374081
0.00899715
0.046167
0.0928342
0.00231052
0.0878678
0.00556978
0.00510237
0.108613
0.00414645
0.0233357
0.00212846
0.0693294
0.00209516
0.00531544
0.0372959
0.00449426
0.0874235
0.00226393
0.125916
0.0851197
0.155879
0.0895452
0.00458313
0.0827723
0.0770569
0.0313068
0.0844172
0.0906151
0.011533
0.0432683
0.0236643
0.106844
0.132107
0.00137668
0.00436882
0.0230647
0.0072656
0.0317715
0.0515814
0.0722546
0.0646088
0.00208515
0.0735687
0.166274
0.00129687
0.00300587
0.0141945
0.118648
0.170867
0.0444976
0.159419
0.00772259
0.0411125
0.0146027
0.0367044
0.00158855
0.153489
0.00123398
0.16321
0.00474287
0.0667746
0.0205939
0.00153691
0.131062
0.00361198
0.0740453
0.166225
0.0957389
0.00610431
0.00188726
0.0472474
0.0220377
0.070688
0.00754725
0.116881
0.00958252
0.00228243
0.0156806
0.153682
0.01018
0.13258
0.0397207
0.070243
0.0120239
0.13032
0.0078912
0.142287
0.0561389
0.0205696
0.00620268
0.00713816
0.0803478
0.00126014
0.0820135
0.00562576
0.0644458
0.0573478
0.0933899
0.141626
0.169385
0.00341591
0.0320916
0.00357997
0.00701478
0.0116906
0.0166506
0.00144868
0.034736
0.0062684
0.00127948
0.00454862
0.00233498
0.00572415
0.00516863
0.0424408
0.00120346
0.0236796
0.0623909
0.00336956
0.13687
0.00312575
0.0167768
0.00718739
0.011594
0.00144018
0.00185712
0.0238914
0.00809243
0.147611
0.00303129
0.0241436
0.0631955
0.052232
0.0454798
0.0137944
0.00236918
0.00371956
0.00155225
0.0348271
0.0234508
0.00246164
0.0034099
0.0382714
0.0123635
0.0309039
0.0014676
0.0107739
0.0945103
0.00456846
0.00443054
0.00172092
0.135423
0.0229769
0.00282246
0.0245584
0.00430055
0.0182713
0.00800646
0.0210874
0.0332764
0.0625408
0.0667001
0.0119883
0.167533
0.010564
0.00765547
0.00726044
0.15625
0.151384
0.0428954
0.0473095
0.146166
0.0665307
0.00743265
0.00792599
0.00388831
0.136927
0.00458449
0.127707
0.00135784
0.0214223
0.0102466
0.0113707
0.00560967
0.105486
0.112501
0.0101198
0.0749884
0.0613054
0.0148724
0.00342902
0.0478006
0.0122966
0.00485681
0.0250084
0.0109074
0.00432018
0.068212
0.0130315
0.031166
0.0441872
0.0955887
0.00504878
0.00490496
0.00184276
0.0501479
0.0794713
0.0873408
0.0421893
0.0453621
0.0301431
0.00232105
0.0230288
0.14306
0.00385067
0.0227775
0.013485
0.0671473
0.00114292
0.0366564
0.117721
0.00589271
0.00156945
0.0921693
0.095591
0.0909426
0.0356417
0.102928
0.0218757
0.00558225
0.0496533
0.010572
0.0397803
0.0581058
0.00668743
0.00205107
0.0103814
0.1239
0.0697987
0.00972852
0.0174013
0.00856805
0.0962148
0.0704312
0.00134988
0.0164018
0.0219615
0.0109291
0.0069662
0.0804853
0.154723
0.0463576
0.00150896
0.165762
0.16897
0.00204528
0.0118325
0.00512914
0.0111777
0.113834
0.00186517
0.123359
0.0700648
0.0598907
0.0185638
0.00114466
0.139386
0.0733115
0.0674673
0.0857995
0.124726
0.045867
0.00200293
0.0161642
0.0369109
0.142312
0.0173424
0.00885049
0.032567
0.0124798
0.1601
0.0831834
0.0364231
0.00168391
0.00718651
0.0427957
0.00158498
0.143584
0.0214322
0.00341495
0.00175797
0.0779192
0.136716
0.00189166
0.0127901
0.117592
0.154588
0.00793637
0.165391
0.0099456
0.101797
0.00220238
0.146508
0.151421
0.115886
0.0199911
0.0473888
0.0235035
0.0114738
0.0035293
0.081377
0.115825
0.147902
0.0676274
0.0336281
0.0488732
0.0183545
0.107871
0.013034
0.00668522
0.0145571
0.0118527
0.14069
0.0605238
0.00121524
0.0112166
0.092088
0.0086025
0.00127004
0.0573095
0.073323
0.0904836
0.00711088
0.0146126
0.00181209
0.113578
0.0313623
0.135911
0.036319
0.146687
0.00725461
0.0380923
0.00517056
0.132115
0.00905448
0.135013
0.0362905
0.0616871
0.0271453
0.00414945
0.00144057
0.0172005
0.0086159
0.0191938
0.0716326
0.00169237
0.00134114
0.0156248
0.0638647
0.119496
0.00151134
0.0878165
0.000843721
0.0771549
0.0266723
0.0516437
0.114034
0.0694144
0.004263
0.00179571
0.00105782
0.00404457
0.00134191
0.0902629
0.00633849
0.00244571
0.154017
0.0581684
0.114862
0.00778039
0.0909967
0.00193893
0.0126349
0.00860862
0.0515598
0.00362233
0.00117979
0.0018286
0.0189433
0.0196915
0.131266
0.00237975
0.0883453
0.00214779
0.00495119
0.00664097
0.00297687
0.00378822
0.0317041
0.0382389
0.131651
0.0210211
0.00209313
0.00165541
0.107576
0.00132572
0.0354665
0.0106887
0.0038179
0.00414798
0.00465081
0.0683468
0.0189592
0.0227766
0.0406038
0.037998
0.00713787
0.147449
0.00250714
0.128145
0.0763651
0.00849085
0.0116827
0.00818865
0.0339727
0.00210154
0.00258112
0.00413906
0.0118765
0.118915
0.0366637
0.101143
0.0648801
0.00352712
0.00971405
0.0346187
0.0615809
0.0228705
0.00169045
0.0290583
0.0515397
0.0025745
0.0967924
0.11897
0.0843793
0.0177516
0.0915188
0.0345691
0.00127566
0.0105519
0.169792
0.00122373
0.00410205
0.10603
0.0417296
0.0187581
0.150082
0.124481
0.0826389
0.00278506
0.0161246
0.0423731
0.0174732
0.00994299
0.00320951
0.0462671
0.00699292
0.125143
0.0976064
0.002208
0.0074143
0.0110433
0.0515253
0.0847475
0.00147329
0.00368703
0.00525933
0.0013258
0.135565
0.0406322
0.080759
0.00106592
0.0250149
0.0100338
0.026287
0.061451
0.0397688
0.1401
0.119471
0.0088254
0.0976329
0.00653333
0.125474
0.0417717
0.0724176
0.0396124
0.00409279
0.00139318
0.0194897
0.00125256
0.118904
0.0123177
0.0316905
0.00467765
0.0629623
0.0735164
0.0144517
0.0143524
0.012543
0.137559
0.00897671
0.00427496
0.00311699
0.0441035
0.00716097
0.0019348
0.0268429
0.00417408
0.00830276
0.00774033
0.0721354
0.0270952
0.0160953
0.00683932
0.118318
0.0184197
0.107758
0.144014
0.045758
0.0794656
0.0405756
0.07605
0.00217102
0.0248967
0.0358559
0.0112985
0.0863345
0.0615721
0.0145643
0.00462173
0.00535577
0.0103046
0.00641036
0.135469
0.00201679
0.0202553
0.0014673
0.00973633
0.132906
0.0506732
0.0333531
0.00195528
0.00151451
0.0105057
0.00605339
0.0917221
0.059968
0.139411
0.135973
0.0012427
0.023784
0.061605
0.00789401
0.00261309
0.00569618
0.0366504
0.0144097
0.00630016
0.0171481
0.0244014
0.0023917
0.00539719
0.0520378
0.00431367
0.00724789
0.0079521
0.00311875
0.0195426
0.0371199
0.1408
0.0675791
0.0411329
0.0112805
0.00136374
0.0122956
0.162726
0.00542976
0.114242
0.00123282
0.00115934
0.117012
0.00131664
0.146274
0.0721614
0.0486017
0.00377463
0.00225596
0.0174667
0.0124219
0.0683716
0.00444138
0.149945
0.0186862
0.127225
0.0371718
0.0617905
0.0071128
0.0360793
0.00699872
0.0193036
0.128429
0.00285782
0.00647253
0.024478
0.0247492
0.0329769
0.00209851
0.00907743
0.0545081
0.0807729
0.0390695
0.0329275
0.00113176
0.00286423
0.00575396
0.0258061
0.0931347
0.00259508
0.00907497
0.0509608
0.00205794
0.0943798
0.00806914
0.00146626
0.0922688
0.0012183
0.00187111
0.0065595
0.00124577
0.00700232
0.060714
0.0357578
0.00183837
0.00226174
0.038834
0.00143525
0.0214743
0.0726225
0.108634
0.0370352
0.0185929
0.0265294
0.00306773
0.00136356
0.00380071
0.0120306
0.166006
0.00909082
0.0014731
0.0813056
0.00128717
0.00953427
0.137165
0.0272629
0.140231
0.0457502
0.0127689
0.00163425
0.0354511
0.101026
0.00146624
0.00394435
0.014819
0.157819
0.0113456
0.073
0.126904
0.00753679
0.00346907
0.121469
0.103195
0.00649278
0.00113129
0.00936256
0.043569
0.00251469
0.0391322
0.115109
0.0446446
0.12582
0.0935948
0.101518
0.00205958
0.0158754
0.0195121
0.00177628
0.0157755
0.00392761
0.0031313
0.00415013
0.00880469
0.0442379
0.144272
0.0438872
0.134961
0.00711092
0.111813
0.0041498
0.0200061
0.00763421
0.0977888
0.00209791
0.0089176
0.00178051
0.128605
0.00172358
0.025158
0.00847267
0.00582973
0.0179317
0.111853
0.0028427
0.0150112
0.00374038
0.0918316
0.00746123
0.0992403
0.00168523
0.00275548
0.0108011
0.0727459
0.0942304
0.0043223
0.00130859
0.0215259
0.0723787
0.00827679
0.00622452
0.015744
0.0168904
0.00446177
0.0584394
0.0117951
0.0683973
0.0212686
0.0856858
0.0030997
0.0778062
0.0441891
0.00601243
0.00131961
0.129657
0.0116113
0.0260043
0.00595169
0.13301
0.00381703
0.01827
0.00890531
0.0569936
0.133818
0.00155762
0.0255943
0.00178157
0.0134094
0.00127273
0.0310967
0.0676418
0.0803049
0.0250536
0.0193904
0.0200454
0.00116018
0.0340497
0.015553
0.00778218
0.117697
0.0594643
0.0161657
0.00600244
0.00110308
0.0614793
0.0019339
0.127129
0.00526908
0.00182585
0.0154509
0.0746971
0.0749577
0.0134612
0.00361667
0.0301767
0.165527
0.0425526
0.0161828
0.0415583
0.00246713
0.00158661
0.00136221
0.121508
0.0228475
0.00246101
0.13658
0.00553457
0.0794819
0.0040678
0.0141726
0.0614035
0.00903614
0.00360978
0.0461301
0.0134066
0.0705547
0.00843263
0.0042355
0.00573743
0.00272052
0.0975173
0.0284895
0.00217192
0.0551178
0.00914339
0.0124696
0.0340141
0.0860069
0.00262242
0.0153412
0.00306132
0.0456928
0.00608228
0.0445223
0.00250124
0.0209378
0.0278475
0.0133804
0.00203651
0.121011
0.143556
0.00475111
0.00399558
0.00157624
0.00275697
0.0257478
0.0496249
0.0731552
0.00433453
0.118756
0.00678498
0.00657277
0.0112918
0.133364
0.0962625
0.09864
0.014144
0.0213519
0.00139146
0.00404295
0.00379161
0.00777434
0.116801
0.00149258
0.0433569
0.0165092
0.0391119
0.014376
0.007616
0.0676583
0.090555
0.0168262
0.0974554
0.00989665
0.00427696
0.00134738
0.00532537
0.0242845
0.00389577
0.0733073
0.0520533
0.13886
0.00334991
0.00711973
0.0129426
0.00777397
0.00422497
0.0147533
0.00492291
0.0656648
0.130818
0.00190882
0.0602658
0.00428558
0.0946512
0.0713702
0.00689867
0.00308073
0.070157
0.00596646
0.001415
0.00431201
0.012978
0.0324363
0.0159299
0.0216508
0.0036603
0.053847
0.00605413
0.00149877
0.0177664
0.0345055
0.0942156
0.00223207
0.0692466
0.0745468
0.00422348
0.0424025
0.0898542
0.00569115
0.0185465
0.00387177
0.003876
0.00135313
0.00193166
0.0756077
0.0365552
0.0680268
0.139752
0.00438981
0.0505963
0.00201272
0.0426187
0.00173429
0.0169166
0.039004
0.102713
0.0282855
0.0178384
0.0709775
0.0872456
0.00629876
0.0803942
0.0191514
0.0388077
0.000910717
0.015219
0.0924433
0.0466337
0.013725
0.12143
0.107706
0.119069
0.134399
0.0406184
0.0585675
0.0333121
0.0123135
0.0101739
0.00111216
0.00164314
0.00173915
0.0903949
0.14074
0.045281
0.107848
0.0718923
0.0858622
0.015601
0.0728099
0.125114
0.138555
0.0954089
0.0484084
0.00134143
0.0442557
0.114344
0.00203914
0.0183051
0.0975722
0.0021512
0.00119805
0.120144
0.00350311
0.00296454
0.054459
0.00806686
0.0185901
0.114825
0.0198414
0.128473
0.0234945
0.140912
0.160594
0.0881247
0.00121228
0.0241097
0.00898398
0.140265
0.148045
0.00170951
0.0167872
0.120026
0.0316465
0.0316873
0.193107
0.00420549
0.00175639
0.00377767
0.0027628
0.00370379
0.0143457
0.183134
0.00204666
0.00592923
0.0397232
0.01226
0.166028
0.0670669
0.145983
0.0110027
0.00674529
0.117671
0.099834
0.00816727
0.0931102
0.00340168
0.0533453
0.00167561
0.00614087
0.00787895
0.0973066
0.0213986
0.0128474
0.015566
0.0457998
0.0121129
0.00476263
0.00659534
0.122576
0.00224846
0.0023875
0.089461
0.00397003
0.0096931
0.00285263
0.00713029
0.071322
0.0216631
0.0180139
0.10307
0.02649
0.116982
0.00950636
0.0034649
0.0163225
0.128717
0.00709863
0.00412288
0.00153991
0.00393837
0.0286999
0.0252401
0.0520134
0.0596442
0.0174988
0.00780411
0.00189517
0.0763328
0.00270953
0.147681
0.00265152
0.00640163
0.00635481
0.115582
0.0212066
0.0017416
0.00150979
0.0111835
0.0014301
0.0430049
0.00371376
0.122598
0.0749857
0.001453
0.0117534
0.038259
0.0973099
0.00705006
0.00172752
0.00328854
0.00670954
0.0926217
0.115375
0.092537
0.00148349
0.00156385
0.0799634
0.0156313
0.00589401
0.00893496
0.00449077
0.00191349
0.00134394
0.0105088
0.0802969
0.0448672
0.00224934
0.0897183
0.00833333
0.00173381
0.00210668
0.0205451
0.0124637
0.000848761
0.00193913
0.00157534
0.00186966
0.00379094
0.00371521
0.134311
0.155684
0.0749763
0.0350593
0.0017022
0.00662727
0.00262666
0.00235876
0.00740838
0.0559516
0.0157999
0.0710474
0.0212149
0.113209
0.0100855
0.00144768
0.00321607
0.139663
0.0946544
0.0262575
0.0129929
0.0054134
0.00182477
0.00931245
0.052772
0.0050496
0.0914107
0.00436361
0.0110571
0.0571312
0.0145283
0.00358516
0.00386878
0.00947273
0.0418471
0.0725126
0.00273968
0.0129843
0.0963458
0.119295
0.145003
0.132573
0.00134656
0.00357344
0.00171265
0.00175552
0.001966
0.0241089
0.0605431
0.0112655
0.0293969
0.0198313
0.00660394
0.129968
0.00197786
0.00150795
0.0107151
0.0118951
0.00182967
0.0321567
0.00177614
0.0160969
0.00200134
0.0816276
0.0374487
0.010922
0.00126911
0.00776918
0.00625559
0.00144269
0.0113895
0.00551368
0.00786465
0.00144383
0.0381427
0.00256571
0.00120261
0.0139728
0.00703304
0.00668277
0.0239424
0.0143913
0.13193
0.0183157
0.018228
0.010173
0.119147
0.00392317
0.00368556
0.00199059
0.00150088
0.001584
0.0136891
0.00167273
0.00367739
0.123874
0.0163424
0.00935377
0.00434885
0.0233413
0.0172596
0.00319924
0.00433207
0.0908346
0.00345034
0.0902253
0.111677
0.000987753
0.0105016
0.00148292
0.00421136
0.0023031
0.00421422
0.115405
0.0185148
0.0399014
0.123941
0.00441532
0.0129822
0.0243302
0.0014667
0.00182361
0.14357
0.0263383
0.00180599
0.0400812
0.00371423
0.00748146
0.00244119
0.00256878
0.00380076
0.00340098
0.00124718
0.00179084
0.00284486
0.00189626
0.0271713
0.018282
0.00550088
0.00599892
0.00548078
0.00443462
0.145325
0.139924
0.00169431
0.00168727
0.0276828
0.00149649
0.0459527
0.00183894
0.00672851
0.00900249
0.117972
0.0018925
0.00174765
0.0229899
0.0165896
0.00198385
0.00183554
0.00153407
0.00153174
0.0569752
0.00314523
0.00191374
0.0106143
0.00477795
0.00366222
0.108065
0.0230447
0.00100663
0.00410812
0.029556
0.155664
0.00234574
0.0048215
0.00179691
0.00854703
0.00180474
0.00358996
0.0753732
0.00214462
0.166991
0.0251965
0.0469688
0.142411
0.135784
0.0140201
0.00403059
0.0927796
0.00225386
0.0193174
0.00389489
0.00189494
0.00194391
0.121897
0.00633842
0.00174158
0.00170492
0.0185582
0.057083
0.00315895
0.00445563
0.0043106
0.00681948
0.0194117
0.131711
0.00328254
0.00161203
0.0166554
0.0025228
0.0114479
0.0476848
0.00338345
0.00682894
0.00223056
0.0590782
0.0350794
0.00194916
0.00154088
0.00236719
0.00704571
0.00240863
0.00192938
0.00384378
0.10077
0.0017061
0.00901142
0.0701709
0.0919228
0.0677506
0.00136631
0.00718267
0.00268207
0.00226561
0.0259035
0.00360223
0.0204132
0.00163807
0.00277264
0.00237914
0.00146843
0.0017056
0.00321745
0.0752246
0.00823727
0.00726466
0.0186697
0.00311251
0.004406
0.00165057
0.0975473
0.0309077
0.00568882
0.123244
0.0515057
0.0223777
0.00323885
0.0319082
0.0372616
0.00228338
0.0174156
0.0066155
0.00221384
0.00403611
0.00398801
0.00443164
0.00171368
0.00151923
0.00593929
0.0189513
0.0419708
0.00176919
0.00682632
0.00620823
0.00663623
0.00610238
0.129797
0.00732385
0.00711626
0.0328127
0.137336
0.0352467
0.00379934
0.083357
0.0859229
0.00941021
0.00200629
0.0220523
0.0062817
0.0040984
0.0132581
0.0117039
0.0650943
0.0948863
0.0148781
0.00719143
0.0431173
0.0177266
0.00267016
0.00466639
0.0381611
0.00229422
0.125682
0.00375658
0.0215615
0.0210404
0.114819
0.0068518
0.0238169
0.00139643
0.00172858
0.00547226
0.119691
0.0518275
0.00409599
0.00384953
0.0573987
0.00491199
0.0022371
0.0105571
0.00507615
0.103629
0.0385506
0.0725519
0.00351644
0.0136531
0.119865
0.00202127
0.0281225
0.0059447
0.00651728
0.0859202
0.0046442
0.0103251
0.00229249
0.0245436
0.0156338
0.0192512
0.0105849
0.11358
0.091012
0.00763186
0.00417919
0.0100166
0.153415
0.00393761
0.040055
0.0299534
0.138501
0.00428491
0.00182132
0.0337494
0.0024683
0.00389551
0.00885484
0.00146676
0.00383193
0.00165033
0.00374018
0.0195623
0.0172353
0.00625382
0.0111828
0.135855
0.0122727
0.0246527
0.00199193
0.113716
0.00429772
0.0776779
0.00204123
0.00736694
0.0387584
0.177916
0.00221441
0.00166063
0.00122176
0.00202232
0.112237
0.0193038
0.00151885
0.0262803
0.00353277
0.00993283
0.00394996
0.00317675
0.0284405
0.114828
0.00680986
0.00717133
0.0583135
0.0020816
0.00474687
0.102561
0.14506
0.15289
0.120005
0.00182605
0.0497867
0.0119447
0.11642
0.0468316
0.0117973
0.0606029
0.00373551
0.00796447
0.0554809
0.0955994
0.00849162
0.0351345
0.00658892
0.00133956
0.00148879
0.00983115
0.00254232
0.0101688
0.0734846
0.0075839
0.00204447
0.0167592
0.00261274
0.00774057
0.00504183
0.0148619
0.0332479
0.0116014
0.0132497
0.00204928
0.118588
0.0494733
0.0590977
0.00424648
0.00379079
0.0146728
0.0187272
0.0616564
0.03334
0.010563
0.00511558
0.0592279
0.00881711
0.0027194
0.00413118
0.0758369
0.0540349
0.00223498
0.00125165
0.0706845
0.00425658
0.0250622
0.00648458
0.00938131
0.0852035
0.00150399
0.0244163
0.137617
0.00912744
0.00644465
0.0716065
0.121051
0.00529715
0.0823891
0.100326
0.0160447
0.00924665
0.00838753
0.00120893
0.0257316
0.021071
0.00319255
0.125286
0.00361632
0.0016987
0.0271845
0.0188802
0.00753674
0.0407516
0.00768347
0.112862
0.0115731
0.00180311
0.114627
0.00458991
0.0032379
0.0498524
0.0364025
0.00204583
0.0238469
0.00196176
0.00200572
0.102362
0.01348
0.00169009
0.0283268
0.0159899
0.0181679
0.0160656
0.0100912
0.00920151
0.0420292
0.00557272
0.00384342
0.00772171
0.0172876
0.121372
0.114561
0.137698
0.00855011
0.00760025
0.141485
0.0247727
0.00221394
0.00151127
0.143005
0.0173476
0.00155874
0.00408311
0.148216
0.00343105
0.0165395
0.00777769
0.01854
0.0389754
0.0241755
0.0433482
0.0684036
0.00751204
0.133419
0.00706175
0.0878209
0.00257003
0.0433158
0.0441733
0.0818354
0.0356913
0.106345
0.0137243
0.00154079
0.0130912
0.0165173
0.00804233
0.135349
0.0133108
0.0143201
0.0133681
0.00165358
0.122715
0.00321414
0.0672844
0.00168348
0.00229778
0.00107876
0.111244
0.00613838
0.014717
0.00180826
0.00289928
0.0522507
0.0117487
0.00250637
0.0102544
0.0132186
0.0506675
0.0368228
0.0111129
0.00763997
0.0533837
0.00551115
0.00980265
0.00321851
0.00466266
0.155672
0.0118117
0.0216763
0.045896
0.00658574
0.0513929
0.00151771
0.00341932
0.00902033
0.0164855
0.00346083
0.0503029
0.00738613
0.0126229
0.00304917
0.0387598
0.0502292
0.0252643
0.0220152
0.0157369
0.0071398
0.0188764
0.0102054
0.00284242
0.0710508
0.0177625
0.00449231
0.00500864
0.0584009
0.135742
0.0444292
0.0117455
0.0361724
0.0241353
0.0117331
0.013125
0.0414383
0.00302173
0.0126399
0.0876935
0.0331775
0.00700464
0.00175599
0.00914847
0.0130146
0.00423468
0.00396042
0.0130144
0.0236684
0.0338071
0.0304109
0.0158347
0.00655347
0.0146234
0.0253085
0.0136055
0.00219415
0.0170246
0.0747821
0.00147835
0.00423837
0.00195462
0.00988383
0.027037
0.0184406
0.0230285
0.0789085
0.0618996
0.016432
0.0917567
0.0220293
0.155979
0.0381373
0.0325292
0.073751
0.0104008
0.0239239
0.0728564
0.0657333
0.139845
0.0236014
0.0281208
0.00292375
0.0869856
0.0196266
0.00172275
0.0696694
0.0351597
0.029613
0.0311988
0.00163384
0.00200106
0.00149107
0.00654164
0.0115864
0.00741754
0.0769828
0.0106044
0.0573418
0.00488904
0.0411909
0.0194556
0.0316158
0.0134477
0.0937162
0.0189191
0.0984516
0.00804629
0.00624304
0.127863
0.00236182
0.0104225
0.0558465
0.0201724
0.0857165
0.0937159
0.00126273
0.0506414
0.0106516
0.00661438
0.104504
0.0940475
0.00999165
0.00202281
0.0168798
0.0337308
0.00207506
0.0698905
0.0014262
0.0139027
0.00215452
0.0923509
0.00198911
0.0710801
0.0442403
0.00682052
0.0129742
0.00170197
0.00104616
0.00130065
0.00970141
0.0145433
0.00705717
0.136761
0.0147705
0.0501295
0.111064
0.00406403
0.0879374
0.0745002
0.0946148
0.0677297
0.0185969
0.0143328
0.00198121
0.0029487
0.00300791
0.0334703
0.0131645
0.0410781
0.0307046
0.0104037
0.0543427
0.0703311
0.0781278
0.0393215
0.0208339
0.00322039
0.0191859
0.0135612
0.113985
0.00649232
0.0067858
0.00203664
0.00142746
0.032416
0.0184348
0.101883
0.00137991
0.00340919
0.0707636
0.123908
0.0283005
0.124783
0.00886839
0.00590167
0.00160531
0.040893
0.017545
0.0517874
0.00143782
0.014847
0.12407
0.0223492
0.00900028
0.018624
0.0220354
0.0237258
0.00891152
0.00746379
0.0662099
0.122734
0.0198324
0.0172189
0.0535812
0.00168066
0.0174883
0.0444542
0.11023
0.00130596
0.019067
0.0557352
0.00199115
0.0024355
0.011917
0.0174819
0.0259751
0.00160624
0.125558
0.00141995
0.0104598
0.00278267
0.0193512
0.0329002
0.00144398
0.0284024
0.0817767
0.127592
0.0173813
0.0997499
0.00422023
0.0439384
0.0506099
0.0233872
0.00217158
0.0321818
0.0383867
0.145546
0.00309497
0.00105395
0.00285739
0.00419838
0.0210216
0.0512173
0.017208
0.0124827
0.00391458
0.0817109
0.0194487
0.0177154
0.0127969
0.0595027
0.00134051
0.00151723
0.0223482
0.13837
0.0322909
0.0696647
0.0676078
0.0691236
0.0979054
0.0443202
0.00493594
0.114541
0.0168297
0.0251916
0.0404357
0.00146735
0.0195776
0.0453428
0.0396113
0.00150047
0.107048
0.169723
0.0243375
0.122231
0.0112041
0.0235032
0.0402386
0.00887621
0.0501624
0.0210233
0.062165
0.00869846
0.0961278
0.0597664
0.00783922
0.0418117
0.00997218
0.0189854
0.0230128
0.0126281
0.118887
0.103471
0.0406175
0.00190531
0.0340576
0.0614335
0.00157116
0.0587985
0.0980747
0.124943
0.00401356
0.0128081
0.0127054
0.0104216
0.0133612
0.00679469
0.0320751
0.0233898
0.00722117
0.00148328
0.0431513
0.0208651
0.070204
0.00395158
0.00707819
0.127634
0.0293175
0.00876731
0.0136614
0.0921695
0.00217698
0.0269479
0.00603823
0.00132131
0.0250742
0.0604835
0.0213517
0.063615
0.0427812
0.119795
0.0329313
0.0262521
0.139884
0.147127
0.0117104
0.0455021
0.00819326
0.0611553
0.0167692
0.0636321
0.0244845
0.00195012
0.0527792
0.0562801
0.00422902
0.0421561
0.0602881
0.0103016
0.00198609
0.00111628
0.0329891
0.0302056
0.0232968
0.148653
0.117985
0.0186753
0.00377402
0.11685
0.00763784
0.0411928
0.0880009
0.0669232
0.0944466
0.0370217
0.0138003
0.0189441
0.0253884
0.00200208
0.0307919
0.0177255
0.0736804
0.00650182
0.017239
0.0118118
0.0408865
0.0145456
0.0222917
0.0506039
0.121027
0.0101179
0.00226127
0.00177516
0.0529839
0.0258072
0.00212492
0.0228143
0.00670608
0.00337627
0.00214473
0.0246785
0.0401866
0.0145143
0.0186074
0.0177761
0.00292702
0.00455713
0.00221774
0.0389323
0.140988
0.0534536
0.00818095
0.0587311
0.0897163
0.0183077
0.0595823
0.0609595
0.124323
0.00644466
0.0540319
0.110444
0.0947885
0.00137952
0.0923683
0.0374329
0.113707
0.0417004
0.125408
0.00529459
0.015622
0.00482933
0.0790945
0.0207965
0.014102
0.00142537
0.00167296
0.041535
0.141188
0.00569632
0.00504461
0.0250733
0.00280652
0.0601186
0.0175323
0.148372
0.00344796
0.0392444
0.0555231
0.0212978
0.0457547
0.0452975
0.0400472
0.00302924
0.0305482
0.0266132
0.144155
0.0428975
0.0182655
0.0525383
0.0938879
0.0249406
0.00323788
0.036272
0.057364
0.00254014
0.00532259
0.0574088
0.0116657
0.121372
0.0327326
0.00823651
0.00799907
0.0350344
0.0369214
0.0349583
0.00323167
0.0246122
0.0513022
0.0692166
0.0332023
0.0182491
0.0507203
0.0237649
0.0313113
0.0100257
0.00623521
0.0183623
0.0056695
0.000997052
0.0277674
0.117742
0.00113206
0.00543264
0.159171
0.128684
0.0876365
0.0387992
0.0619134
0.0317944
0.0922475
0.0964845
0.00346312
0.00400583
0.0255648
0.0476045
0.00585755
0.0324424
0.131816
0.00161888
0.0354843
0.071575
0.0990724
0.0927
0.0235711
0.0538416
0.0100835
0.0583172
0.0992771
0.0432817
0.0189978
0.0185787
0.0938512
0.0182832
0.00209438
0.0210612
0.0913956
0.00576405
0.0754459
0.0572223
0.077983
0.0235071
0.124269
0.00134844
0.0407377
0.00264404
0.00105885
0.0120875
0.0365163
0.0410163
0.0551554
0.070949
0.0172007
0.00792905
0.00805828
0.111961
0.0177182
0.00159797
0.0696146
0.00443601
0.0994566
0.0442005
0.0198391
0.00711593
0.116979
0.0252891
0.0196818
0.00673106
0.00305774
0.00270047
0.0568974
0.122771
0.0108315
0.0435822
0.0433519
0.0124406
0.0368436
0.0133503
0.112464
0.00527933
0.133146
0.00503456
0.00969498
0.00248531
0.00139019
0.0994656
0.0100965
0.00236642
0.00605766
0.0911723
0.0623511
0.00785456
0.072576
0.0578758
0.0921728
0.0951518
0.00611913
0.0199506
0.00213256
0.124089
0.0206397
0.120865
0.0941004
0.0375104
0.00188116
0.00936649
0.0696361
0.0327189
0.0795265
0.00161898
0.153176
0.045393
0.0257032
0.0422636
0.00958604
0.12416
0.00175547
0.0940678
0.0412913
0.0394034
0.0620992
0.0788026
0.0989298
0.001642
0.10864
0.0472318
0.00591935
0.0612388
0.094633
0.119399
0.118881
0.0147239
0.0620931
0.0854076
0.00115829
0.0356319
0.153152
0.0286859
0.0807971
0.00295211
0.0217265
0.0335938
0.0616315
0.0257569
0.0957025
0.00488787
0.124519
0.0944888
0.00205587
0.141138
0.00975578
0.0305599
0.110637
0.08632
0.0116881
0.0137891
0.0638831
0.142979
0.0341113
0.0689983
0.102612
0.0385902
0.0562274
0.0663894
0.0609992
0.008004
0.109043
0.0747537
0.0021928
0.0460214
0.0220238
0.00772821
0.00417265
0.0765447
0.0416822
0.0840754
0.0935327
0.0213276
0.0141469
0.0241168
0.0264272
0.0792178
0.0347766
0.0589987
0.100919
0.0333643
0.00920938
0.0330266
0.0328081
0.123591
0.0872621
0.149895
0.00450516
0.0398465
0.106798
0.00139912
0.04346
0.00176179
0.0877996
0.0667413
0.0796899
0.00428836
0.0587423
0.0289587
0.0384627
0.0928472
0.0820251
0.0979224
0.0552887
0.0313838
0.0639028
0.0102346
0.141018
0.0182123
0.0846666
0.0998562
0.0337345
0.00377758
0.123348
0.101447
0.0243927
0.0510365
0.0310113
0.00607791
0.0234785
0.0212193