/*--------------------------------*- C++ -*----------------------------------*\
| =========                 |                                                 |
| \\      /  F ield         | OpenFOAM: The Open Source CFD Toolbox           |
|  \\    /   O peration     | Version:  v2012                                 |
|   \\  /    A nd           | Website:  www.openfoam.com                      |
|    \\/     M anipulation  |                                                 |
\*---------------------------------------------------------------------------*/
FoamFile
{
    version     2.0;
    format      ascii;
    class       surfaceVectorField;
    location    "950";
    object      ddtCorrDdt0(Uf);
}
// * * * * * * * * * * * * * * * * * * * * * * * * * * * * * * * * * * * * * //

dimensions      [0 1 -2 0 0 0 0];


internalField   nonuniform List<vector> 
14907
(
(0.000321442 -0.000295537 -1.68752e-18)
(0.000332023 -0.000303652 4.22407e-19)
(0.00033133 -0.000284654 -1.8327e-18)
(0.000186342 0.000228039 5.45032e-19)
(0.000189629 0.000192893 -1.61044e-18)
(0.000196445 0.000190602 -9.93172e-19)
(-0.00130273 -0.000872214 8.13483e-19)
(-0.00134629 -0.000946305 4.34209e-18)
(-0.00140932 -0.000843903 2.89791e-20)
(-0.000122694 2.77885e-06 -1.40432e-19)
(-0.000125401 2.93081e-06 1.35941e-21)
(0.105454 -0.00680832 2.35371e-17)
(0.102806 -0.00630567 -1.75195e-17)
(0.110631 -0.00687094 3.94655e-18)
(0.000177065 0.00024923 2.23683e-19)
(0.000165691 0.00029018 -2.0097e-18)
(0.00016821 0.000265573 2.36993e-18)
(0.154236 -0.0263715 2.3348e-17)
(0.14788 -0.0239461 -3.05961e-18)
(0.165719 -0.0248819 1.86554e-17)
(0.0753199 -0.0327481 3.47273e-18)
(0.0657644 -0.0314347 6.26803e-18)
(0.128499 -0.0214496 8.35202e-17)
(-0.000882608 -0.000542866 1.15198e-18)
(-0.00084513 -0.000580608 3.4416e-19)
(-0.000813968 -0.000516437 5.85333e-19)
(0.00015239 -5.88996e-05 -6.05395e-19)
(0.00015381 -6.65797e-05 1.24851e-18)
(0.000149548 -8.55093e-05 6.57749e-20)
(-0.0168086 -0.00127542 -3.96441e-18)
(-0.0195864 -0.000802584 2.02398e-18)
(-0.0176567 -0.00087841 4.14332e-17)
(-0.000107881 8.56701e-06 -2.99361e-19)
(-0.000120494 4.3463e-06 6.3957e-20)
(-0.000110611 3.19574e-05 -2.91541e-20)
(-0.00011198 2.75702e-05 3.48175e-20)
(-0.000127258 2.61207e-05 -1.00276e-19)
(-8.30069e-05 1.8378e-05 -2.734e-19)
(-7.81341e-05 1.69701e-05 -1.43306e-19)
(-8.78503e-05 1.68712e-05 -3.96006e-19)
(0.00234517 0.00173862 2.21459e-18)
(0.00220925 0.00163934 -2.05077e-18)
(0.0021876 0.00182425 9.68671e-18)
(0.000216298 5.11262e-05 3.95013e-20)
(0.000212348 9.02018e-05 1.62245e-20)
(0.000212584 7.57785e-05 -2.30868e-18)
(0.000222954 8.94805e-06 2.72103e-19)
(0.000221444 2.54265e-05 -1.07968e-18)
(4.69939e-06 4.21761e-05 -1.29562e-18)
(4.93468e-06 4.42786e-05 1.82227e-18)
(7.67188e-06 5.70631e-05 -1.15061e-18)
(0.000316469 -0.000282757 1.42936e-18)
(0.000315724 -0.000292223 -1.10916e-18)
(0.00656182 0.0139207 6.80423e-18)
(0.0077068 0.0137479 -5.98343e-18)
(0.00714256 0.0131662 -1.79327e-17)
(5.97498e-05 -0.000216426 7.96669e-19)
(6.48887e-05 -0.000227294 -1.41491e-19)
(5.05553e-05 -0.000228316 1.64728e-18)
(-0.0195731 -0.0448605 2.9529e-18)
(-0.0126998 -0.0408663 -1.68244e-17)
(-0.0130745 -0.0426579 -1.46155e-17)
(-8.94146e-05 1.22438e-05 2.94296e-20)
(-8.2017e-05 1.30427e-05 -3.15647e-20)
(-7.41293e-05 1.11674e-05 4.9868e-20)
(-0.000147825 3.43556e-05 -7.8406e-20)
(-0.000150827 3.59832e-05 -1.89985e-20)
(-0.000144642 3.57185e-05 -1.32768e-22)
(0.000180809 0.00025551 1.99024e-18)
(0.000177625 0.000261004 6.3312e-20)
(-0.00454706 -0.00779664 -4.51173e-18)
(-0.00490205 -0.0080141 3.83861e-21)
(-0.00484905 -0.00754305 -8.9703e-18)
(6.06636e-05 0.000563428 4.49876e-19)
(4.64617e-05 0.000560239 1.77849e-19)
(7.53618e-05 0.000556547 2.25475e-18)
(0.00215231 1.00412e-05 -1.45569e-18)
(0.00211619 0.000109971 -3.21506e-19)
(0.00204753 1.85779e-05 -3.38467e-19)
(-0.000103489 -0.000558054 -3.74396e-19)
(-5.67892e-05 -0.000551663 5.46666e-20)
(-9.14619e-05 -0.000513083 2.46437e-19)
(0.00163848 -0.000258554 -1.06678e-18)
(0.0016521 -0.000344927 4.30111e-19)
(0.00174946 -0.000279225 -9.13054e-19)
(0.000134956 0.000188225 1.36845e-18)
(0.000138407 0.000152565 -1.1184e-18)
(0.000129474 0.000209216 6.90911e-19)
(-0.00408351 0.00213259 1.01205e-17)
(-0.00476772 0.00120847 5.53898e-18)
(-0.00567203 0.00179726 -5.97378e-17)
(0.000149206 -5.49629e-05 3.00313e-19)
(0.000151193 -3.00667e-05 -1.72705e-18)
(0.000990147 -0.00114912 2.05153e-19)
(0.00109738 -0.0012068 4.23966e-20)
(0.00106297 -0.00108018 -7.65474e-19)
(0.00070292 -0.00563375 6.38397e-18)
(0.000409597 -0.00569512 -1.30065e-18)
(0.000531177 -0.00540468 6.34758e-18)
(-0.000145679 3.27501e-05 1.94765e-19)
(-0.000150491 3.30085e-05 -7.7651e-20)
(-0.0038398 -0.00727036 4.67536e-18)
(-0.00419038 -0.00755492 4.35169e-18)
(-0.00416926 -0.00699625 -2.00082e-18)
(-0.0098633 -0.00879853 -1.7888e-18)
(-0.00968244 -0.00818409 3.10647e-18)
(-0.00924043 -0.00863182 -1.77722e-17)
(-0.000143677 2.95504e-05 6.71518e-20)
(-0.000139029 3.1993e-05 1.5673e-19)
(0.00577633 -0.000790762 1.76947e-19)
(0.00601118 -0.000946356 3.16157e-19)
(0.00600102 -0.000559566 3.96254e-19)
(0.00645528 0.0142973 2.10616e-17)
(0.00596646 0.0140822 5.71545e-18)
(0.00212904 0.00132179 -3.12147e-18)
(0.00223869 0.00141272 3.2704e-19)
(0.00223804 0.00127483 3.09307e-19)
(0.158072 -0.028088 4.07644e-19)
(0.140912 -0.0277377 3.37351e-17)
(0.00104139 0.00020295 3.06827e-18)
(0.00108031 0.000177521 2.77962e-18)
(0.00099606 0.00014286 -1.33116e-18)
(0.109045 -0.00833791 1.66879e-17)
(0.094793 -0.0049776 2.71961e-17)
(-0.01161 -0.0194304 -6.04875e-18)
(-0.0125019 -0.0188913 1.32103e-17)
(-0.0116103 -0.0182129 7.89126e-18)
(0.0013765 0.000864468 -4.69566e-18)
(0.00145606 0.000868618 -1.63132e-18)
(0.00142486 0.000979257 -4.88003e-18)
(-0.0246212 -0.027757 3.76404e-19)
(-0.0245753 -0.0259727 -3.91642e-18)
(-0.0262641 -0.0266561 -9.77222e-18)
(-0.00218671 -0.00651713 9.21854e-19)
(-0.00193234 -0.00679169 3.98202e-18)
(-0.00235226 -0.00680226 -4.28752e-18)
(-0.0238504 -0.0074064 -3.45607e-18)
(-0.0243095 -0.00588819 3.1774e-18)
(-0.0227042 -0.00619605 -2.43258e-18)
(3.9157e-05 3.69365e-05 2.84176e-20)
(4.34503e-05 4.19895e-05 -1.76826e-18)
(4.60921e-05 3.58089e-05 -2.25001e-18)
(-0.00257823 0.00200146 -3.98143e-19)
(-0.00279364 0.00202506 -2.2407e-18)
(0.00169307 0.00173172 3.06345e-18)
(0.00173527 0.00180318 5.67478e-19)
(0.0016301 0.001781 -2.8722e-18)
(-0.00436642 0.00157449 1.72585e-18)
(-0.00429455 0.00126811 3.41735e-18)
(-0.00465748 0.00143254 7.50355e-19)
(-0.00356521 -0.00760466 -3.31472e-19)
(-0.00353591 -0.00706485 -4.14711e-18)
(0.00019555 0.000212933 4.15067e-18)
(0.000184092 0.000227363 2.97718e-18)
(-0.000148621 -0.000565731 3.14275e-19)
(-0.000110465 -0.000618142 1.92503e-19)
(0.00131509 0.000895572 -4.94891e-18)
(0.00130788 0.000809925 -1.73175e-18)
(0.000919552 -0.00121708 7.06256e-19)
(0.000895584 -0.00110263 1.25053e-19)
(0.00165747 0.00161923 4.05166e-18)
(0.00178745 0.00166792 -1.63647e-18)
(0.000161837 0.000228839 -4.51253e-19)
(0.000152081 0.000268515 1.34148e-18)
(0.000154761 0.000235205 1.06323e-18)
(0.000213034 -1.17211e-07 1.7842e-18)
(0.000218414 -3.52912e-08 9.69299e-20)
(0.000207999 3.88806e-05 -2.97205e-18)
(0.000985705 -0.00559487 3.0513e-18)
(0.000873234 -0.00591158 -4.56192e-18)
(-0.00124513 -0.00079486 -6.19724e-19)
(-0.00120326 -0.00087223 1.025e-18)
(0.000658408 0.00133019 3.45926e-18)
(0.000690756 0.00139174 -8.03368e-20)
(0.000723841 0.00130962 3.05875e-18)
(0.000853781 -0.00128634 -4.79066e-19)
(0.000756002 -0.00124589 -5.01619e-19)
(0.000756295 -0.00137446 3.23901e-19)
(0.000435537 0.000877215 -2.29689e-18)
(0.0004831 0.000933711 4.09801e-18)
(0.000467101 0.000818032 -2.80952e-18)
(0.0061038 0.0117561 -4.31536e-18)
(0.00557713 0.011362 1.83821e-17)
(0.00618314 0.0109922 1.36689e-17)
(0.00345981 -0.0047214 9.13998e-18)
(0.00833877 -0.00499557 -1.43492e-17)
(0.00680552 -0.00651566 2.52696e-17)
(0.000668308 -0.000156734 -1.70212e-18)
(0.000707477 -0.000148876 1.60725e-18)
(0.000702224 -0.000128175 -5.19898e-20)
(-0.00452513 0.00190026 1.07706e-18)
(-0.00413394 0.00178833 -3.20897e-18)
(0.0068143 0.014881 2.10873e-18)
(0.0010932 0.000258733 8.93857e-19)
(0.00100875 0.00023849 5.98293e-19)
(0.00291885 0.00591495 7.12364e-19)
(0.00272265 0.00576745 7.14136e-18)
(0.00263701 0.00607023 2.77079e-17)
(0.000345969 0.000822499 3.12656e-18)
(0.000364264 0.000766582 -3.29707e-18)
(0.000307784 0.00075343 -1.55177e-18)
(-0.00015482 3.5712e-05 -1.0464e-19)
(-0.00015727 3.60172e-05 -4.54328e-20)
(0.0908348 -0.00612458 7.15742e-18)
(0.101701 -0.00740859 -8.30046e-18)
(0.000309138 -0.000274138 7.15304e-19)
(0.000301151 -0.000261802 3.85814e-19)
(0.000301805 -0.000271439 -2.09464e-18)
(0.00390047 0.00450156 1.57157e-17)
(0.0036448 0.00451212 3.28449e-17)
(0.00381668 0.00429155 1.72745e-18)
(0.152718 -0.0202793 -1.20168e-17)
(0.141969 -0.0213968 -2.76122e-17)
(0.135952 -0.0188322 -2.14014e-17)
(-0.00198769 -0.00622812 3.49937e-18)
(-0.00235581 -0.0063288 -1.74071e-18)
(0.108526 -0.00941904 1.48403e-17)
(0.109713 -0.0096338 -1.90419e-17)
(0.000920543 -0.000356952 -5.32712e-19)
(0.000901627 -0.000362988 7.32429e-19)
(0.000925135 -0.000406097 -1.69467e-18)
(0.00196207 0.00121983 4.88815e-18)
(0.00186855 0.0012693 -1.81846e-18)
(0.0018637 0.00115019 2.41699e-21)
(0.000396907 0.000805983 -7.71044e-19)
(0.000384008 0.000894611 1.077e-18)
(3.89531e-05 0.000227034 -2.40875e-19)
(4.15667e-05 0.000238939 4.22463e-18)
(2.83905e-05 0.000209607 2.96822e-18)
(0.000341104 -0.00031355 -1.74929e-18)
(0.000336666 -0.000302168 3.8961e-20)
(0.000362132 -0.000300047 7.73343e-19)
(0.0222193 -0.00719236 -5.43449e-17)
(0.0213195 -0.00660355 -1.06563e-17)
(0.0213585 -0.0077235 -2.25417e-18)
(0.000674192 0.000286732 -7.45887e-18)
(0.00069943 0.0002765 -4.27251e-18)
(0.000700999 0.000325729 8.10644e-18)
(0.000358174 -0.000314945 -4.15377e-18)
(0.000340931 -0.000331119 -1.77034e-18)
(-8.67469e-05 -0.00162654 -1.14638e-18)
(-0.000174566 -0.00166798 1.74786e-19)
(-0.000134169 -0.00155412 -6.13084e-20)
(0.107938 -0.0125928 8.85867e-17)
(0.10223 -0.00664688 -4.12104e-17)
(0.0021823 -7.85438e-05 -9.62022e-19)
(0.0022685 1.03811e-05 6.5745e-19)
(-0.00252129 0.00176212 1.61181e-18)
(0.00163149 -0.000167765 -1.41825e-18)
(0.00154919 -0.000230865 7.55608e-19)
(0.000368267 -0.000558141 -1.92331e-19)
(0.00040758 -0.000536464 -1.58564e-19)
(0.000416084 -0.000581732 -9.48179e-19)
(0.000266044 -0.000307338 -1.22812e-19)
(0.000269855 -0.000293238 8.70368e-19)
(0.000264416 -0.000285248 -2.53266e-18)
(0.000512557 -0.000343634 -3.05302e-20)
(0.000512277 -0.000370422 -1.19807e-19)
(0.000489099 -0.000367663 -7.80892e-20)
(0.00549383 -0.000658678 -4.32054e-19)
(0.00558855 -0.00102712 -1.98651e-20)
(-0.000385673 -0.000656379 -2.94552e-19)
(-0.00039514 -0.000729685 -1.38147e-18)
(-0.000442577 -0.000667838 6.65972e-19)
(8.21964e-08 1.29445e-05 -5.25003e-19)
(1.09033e-07 1.28598e-05 1.95418e-18)
(0.0167964 -0.0120956 3.35347e-18)
(0.0171372 -0.0113991 -2.95729e-18)
(0.0176056 -0.0122759 -2.35922e-17)
(0.143466 -0.02707 2.11495e-17)
(0.171191 -0.027359 -1.37848e-17)
(0.127788 -0.0293234 2.63445e-17)
(4.77478e-05 0.000242093 -2.93595e-18)
(3.88806e-05 0.000219132 8.49195e-19)
(0.00198461 0.000358667 1.81663e-18)
(0.00193063 0.000433381 -1.98153e-18)
(0.00188143 0.000341799 1.44122e-18)
(0.0120252 -0.00165584 -5.91243e-18)
(0.0122219 -0.00216778 -5.40522e-18)
(0.0124856 -0.0015925 -3.46742e-18)
(0.000319855 -0.000220955 5.42075e-19)
(0.000331345 -0.000212931 -3.1069e-18)
(0.000328443 -0.000230527 -9.38275e-19)
(0.000266257 -0.000321863 5.49946e-19)
(0.000266455 -0.00032933 1.44303e-18)
(6.80783e-05 -0.00020274 3.05569e-19)
(5.54493e-05 -0.000205244 5.63756e-19)
(-0.000202755 0.000242302 -7.22302e-19)
(-0.000183748 0.000207712 -1.09115e-19)
(-0.000125936 -9.08241e-06 4.40176e-19)
(-0.000129251 -1.33338e-05 -1.99612e-19)
(-0.000125168 -1.18952e-05 4.72798e-19)
(0.000386934 -0.000278748 8.29596e-19)
(0.000394253 -0.000307914 -1.6518e-18)
(0.000421557 -0.000273628 -5.98897e-19)
(0.00316625 -0.00329915 4.63973e-19)
(0.0032847 -0.00309267 1.46162e-18)
(0.00306021 -0.00305419 8.13601e-19)
(0.000834703 -0.00313265 1.02653e-17)
(-0.000494665 -0.00550316 -1.71439e-17)
(0.000612817 0.00123127 -1.34334e-18)
(0.000578483 0.00134081 -3.99497e-19)
(0.000400274 -0.000290298 3.33789e-19)
(0.000421362 -0.000278462 -5.95059e-19)
(0.000427234 -0.000276631 -1.00147e-18)
(0.000160138 -0.000105814 -2.68166e-18)
(0.000153118 -0.000105712 -9.24534e-19)
(0.000162933 -0.000113682 -2.04068e-18)
(0.000316453 -0.000271754 6.24707e-19)
(0.000330281 -0.000591811 3.90959e-19)
(0.000324776 -0.000541303 7.01933e-20)
(-0.000216142 0.00526401 2.98559e-17)
(-0.00530638 0.00457191 3.48042e-17)
(0.000189998 0.00557108 -6.96321e-18)
(0.000643325 0.000281911 -4.48198e-18)
(0.000646754 0.000233047 1.02273e-18)
(0.112491 -0.0316888 -7.35618e-18)
(0.0494452 -0.03962 -3.22714e-17)
(0.00113265 9.09977e-05 -5.22697e-19)
(0.00115298 5.10113e-05 8.021e-19)
(0.00109422 4.58039e-05 2.98829e-18)
(8.16942e-05 -6.94366e-08 2.78389e-18)
(8.92114e-05 -1.52028e-06 -2.37172e-18)
(8.36101e-05 2.32999e-05 -6.27018e-19)
(0.0163513 -0.0129773 1.39665e-17)
(0.0158557 -0.0120802 1.30122e-17)
(0.000964059 -0.000287538 2.05942e-19)
(0.00104162 -0.000371587 8.69001e-19)
(0.068888 -0.0293979 -3.9698e-17)
(0.0184229 -0.038546 -4.71113e-17)
(-1.64361e-05 -0.00699926 -2.2485e-18)
(-0.000271024 -0.00710238 -2.91941e-18)
(-5.72807e-05 -0.00737483 -6.885e-18)
(0.0114618 -0.00164765 -1.74187e-18)
(0.0117532 -0.00105612 -4.60631e-20)
(0.000362538 -0.000317935 2.9061e-18)
(0.00037408 -0.000320426 3.67148e-18)
(0.000352636 -0.000338043 8.74392e-19)
(0.00393715 0.00475116 2.32249e-17)
(0.00414948 0.00450516 -6.64787e-18)
(0.000685288 0.000572058 -2.23285e-18)
(0.000734133 0.00059592 -4.64407e-18)
(0.000701571 0.000648069 3.37405e-18)
(-0.0142011 -1.05429e-05 -1.34926e-17)
(-0.0159674 -7.48008e-05 -4.30956e-17)
(-0.0166614 0.000177723 6.60053e-18)
(0.00412081 -0.0309692 -2.33162e-17)
(0.00352354 -0.0310085 -9.31589e-18)
(0.00301202 -0.0323143 -8.98803e-18)
(-0.000354242 -0.000684799 6.15808e-19)
(-0.000329283 -0.000623549 1.35677e-19)
(0.0124431 -0.0073211 -9.33964e-18)
(0.0118133 -0.00725945 2.32845e-19)
(0.0121359 -0.00783822 -2.251e-18)
(-0.0104214 0.00328806 2.22237e-17)
(-0.0126383 0.00289747 5.87156e-17)
(-0.010096 0.00330658 3.11864e-17)
(-5.28764e-05 -0.0017509 -8.58728e-19)
(1.16898e-05 -0.00161601 7.25349e-19)
(-0.0248297 -0.0294177 8.95805e-18)
(-0.0229479 -0.0285378 2.06694e-17)
(0.0230356 -0.00755751 -4.353e-17)
(0.0229559 -0.00644305 5.75908e-18)
(0.00203785 0.000616732 3.83998e-18)
(0.0019769 0.000680693 2.77645e-18)
(0.00209366 0.000722418 1.90551e-18)
(0.000150533 -0.000105948 2.54832e-18)
(0.000159533 -0.000103599 1.79744e-20)
(0.00172191 0.000671131 1.75918e-18)
(0.00177962 0.000616772 -8.34566e-19)
(0.00166898 0.000579883 -1.75558e-18)
(0.0161703 -0.0188508 -5.76939e-18)
(0.016739 -0.0180998 2.42302e-17)
(0.0157299 -0.0181879 -2.71129e-18)
(-0.00188681 0.0010491 7.38993e-19)
(-0.00180923 0.00118897 1.83248e-18)
(-0.00174333 0.00103806 -1.39759e-18)
(0.000405113 -0.000280937 2.34497e-18)
(0.000366392 -0.000277766 5.96858e-19)
(0.0102837 -0.0108956 -2.50067e-18)
(0.00987341 -0.0105662 -1.05667e-17)
(0.0104845 -0.0103079 7.83856e-18)
(-0.000504115 0.000439849 -8.842e-20)
(-0.000479378 0.000399768 4.87348e-19)
(-0.000543243 0.000394434 4.28735e-19)
(0.000540393 -0.00043293 1.4288e-19)
(0.000619023 -0.000359082 -4.98818e-19)
(0.00381997 -0.00134877 -4.95529e-19)
(0.00382201 -0.001172 -8.05693e-19)
(0.00369163 -0.00127102 -3.67005e-19)
(-0.00102405 -0.000579555 -1.84904e-18)
(-0.00104405 -0.000524693 -1.74063e-19)
(-0.00109698 -0.000584358 -6.2035e-19)
(3.48878e-06 1.56159e-05 2.4429e-18)
(4.97355e-06 2.13128e-05 2.22704e-18)
(2.64327e-06 1.51707e-05 9.83562e-19)
(0.0859841 -0.00657583 -4.59163e-17)
(0.0929975 -0.00617129 -6.18702e-17)
(0.0772761 -0.00278097 2.4317e-18)
(-0.00461932 0.00274691 -1.09402e-17)
(-0.00984562 0.00265474 5.81744e-17)
(-0.00615459 0.00363987 2.71106e-17)
(4.30708e-05 0.000502278 -1.13946e-18)
(3.57442e-05 0.000487857 -4.15146e-18)
(3.80618e-05 0.000480229 -1.73674e-18)
(-0.000109256 2.5388e-05 1.85978e-19)
(-0.000104288 1.94184e-05 -2.12108e-19)
(0.000470571 0.00204031 3.13531e-19)
(0.000497267 0.00192674 -5.81297e-18)
(0.000393183 0.00195708 3.36608e-18)
(0.000204769 -3.38287e-06 1.53568e-18)
(0.000212419 -2.81495e-05 -3.85368e-18)
(0.0126496 -0.00668111 1.04441e-18)
(0.0130661 -0.00725977 1.40447e-18)
(-0.00254964 -0.00242688 -4.87724e-18)
(-0.00303888 -0.000902758 2.6294e-17)
(-0.0043052 -0.00233657 -1.79816e-17)
(-0.0180173 -0.00171283 1.55659e-17)
(-0.0196156 -0.00150376 -1.00141e-17)
(-0.0160769 -0.0022997 1.52297e-17)
(0.0037595 -0.0263818 -8.37323e-18)
(0.00296921 -0.0264062 1.15101e-17)
(0.0034288 -0.0272605 -1.51773e-17)
(0.000164073 3.05129e-05 -8.49274e-19)
(0.000172716 3.71741e-05 3.61306e-19)
(0.000175121 1.06772e-06 4.19989e-18)
(-0.000957454 -0.000569182 -1.55584e-20)
(-0.000994309 -0.000631153 -2.04292e-19)
(0.000971752 -0.000554843 6.0037e-19)
(0.00102742 -0.000564471 7.2985e-19)
(0.00099036 -0.00061678 8.8697e-19)
(0.000641685 0.000556702 -1.73333e-18)
(0.00066484 0.000510894 7.75366e-19)
(0.0116886 0.00453489 1.35698e-18)
(0.0120449 0.00500463 1.29491e-18)
(0.0122039 0.00431706 2.73418e-19)
(-0.00327806 -0.00161853 2.75277e-17)
(-0.00191652 2.92866e-05 1.73187e-17)
(-0.00768688 0.00273182 6.85244e-17)
(-0.00885019 0.00284938 2.81142e-18)
(-0.00298995 0.00233683 -5.7392e-17)
(0.00380991 0.00349593 -5.38801e-17)
(-0.00382538 0.000705568 2.16886e-18)
(-0.00357497 0.000770035 1.73044e-18)
(-0.00365591 0.000528402 -3.0912e-18)
(0.000119639 -0.00035691 -7.62971e-19)
(0.000117565 -0.000355275 -3.41115e-20)
(0.000104463 -0.000348526 -1.47857e-18)
(0.090488 -0.0159568 5.43896e-17)
(0.102208 -0.0128984 -7.36414e-18)
(0.00912485 0.0145973 -1.62526e-17)
(0.00835539 0.0141198 -1.43682e-17)
(0.0081897 0.0148859 -5.57459e-18)
(0.00692697 0.00484701 7.19598e-18)
(0.00702855 0.00450074 4.22136e-18)
(0.00662499 0.00460372 7.59645e-18)
(0.122423 -0.0534795 1.33398e-17)
(0.13388 -0.0484607 1.58005e-17)
(0.118683 -0.0509792 2.8136e-18)
(-0.00920727 0.018546 -1.71328e-17)
(-0.00975531 0.0102481 -2.22441e-18)
(-0.00445274 0.01433 -9.61824e-19)
(0.00111692 0.000127681 -1.54813e-18)
(0.00109671 0.000156327 2.86229e-18)
(0.00106121 0.000116395 -2.90814e-18)
(0.00659461 0.0121009 -1.67909e-17)
(0.00617086 0.0124357 -3.49492e-18)
(0.00523237 -0.00538594 -5.86223e-19)
(0.00500538 -0.00520898 -3.12307e-18)
(0.00532458 -0.00507748 -6.71284e-18)
(0.000437302 0.00214943 5.53394e-19)
(0.000531181 0.00213098 -5.61662e-18)
(-0.00313857 0.00184593 2.44062e-17)
(-0.00387198 0.00339102 4.58899e-17)
(0.000527661 0.000970218 6.63844e-18)
(0.000557824 0.000904493 -3.03293e-18)
(0.000596131 0.000998633 -3.99514e-18)
(7.62362e-05 -0.006687 3.94874e-18)
(0.000327525 -0.00692889 -1.18473e-19)
(0.00201766 0.0012582 6.14063e-19)
(0.00203359 0.00138712 1.18195e-18)
(-0.00175483 0.00439243 -2.11341e-17)
(0.00727289 0.00560045 -8.25504e-17)
(0.00796716 -0.0289013 -4.5328e-18)
(0.00748453 -0.0292409 -6.04994e-18)
(0.00753512 -0.0285799 -4.64151e-19)
(0.000643743 -0.00106447 -1.25263e-19)
(0.000613017 -0.00102903 -3.71465e-19)
(0.000674458 -0.00100507 -3.23558e-19)
(-0.0129747 -0.00441011 4.14249e-17)
(-0.0116401 -0.00465321 5.75354e-18)
(-0.0103576 -0.00525901 1.02807e-17)
(-0.000406598 -0.0039972 1.06963e-18)
(-0.000496001 -0.00381472 -2.07357e-18)
(-0.000622855 -0.00400599 4.94711e-19)
(0.0175719 0.0252868 -2.12957e-18)
(0.0166767 0.0236237 -5.44356e-18)
(0.0148252 0.0258645 -2.64462e-18)
(0.0016817 0.000722823 -3.56424e-19)
(0.00178483 0.000764975 -2.92715e-19)
(0.0772084 -0.00606067 7.27919e-18)
(0.0935902 -0.00984365 -1.68682e-18)
(0.0540674 -0.0221352 5.58721e-18)
(0.0618681 -0.0206561 -1.56264e-17)
(-0.00356822 -0.0270222 -3.05971e-18)
(-0.0034812 -0.026146 1.12299e-17)
(-0.00277963 -0.0267241 8.18935e-18)
(0.0290663 -0.0226915 -1.18151e-17)
(0.0522738 -0.0211701 -3.42769e-18)
(0.0543339 -0.0250616 4.36998e-18)
(-0.00282173 -0.00542501 -2.56979e-19)
(-0.0028634 -0.00510588 -4.04444e-18)
(-0.00316342 -0.00530284 3.27177e-18)
(0.000292377 -0.000224757 2.47641e-18)
(0.000302382 -0.000233922 4.11123e-18)
(0.000296446 -0.00023385 4.05096e-18)
(-9.95399e-05 2.48845e-05 -9.86738e-20)
(-0.000102621 2.15112e-05 8.39243e-20)
(0.00193438 -0.00209257 9.11987e-19)
(0.00184294 -0.0022629 -1.36918e-18)
(0.00204397 -0.00224362 -1.24195e-18)
(0.00574265 0.00562888 -7.06268e-18)
(0.00596934 0.00534556 -1.3673e-18)
(0.00558984 0.00529707 -7.9993e-18)
(0.000617594 -0.00112927 -8.2862e-19)
(0.000701315 -0.0011144 1.4042e-19)
(0.000375968 -0.000283608 -1.17241e-18)
(0.00034691 -0.000263611 -9.66476e-19)
(0.000347621 -0.000283384 -1.2739e-18)
(0.00963499 0.0141496 1.19978e-17)
(0.00971327 0.0149973 1.98951e-19)
(0.000514007 0.00102041 2.40962e-18)
(-0.000243876 -0.000113565 1.92243e-20)
(-0.000250829 -0.000131853 -6.66834e-20)
(-0.000241967 -0.000124479 -1.17726e-19)
(0.0185681 0.0260121 5.47368e-18)
(0.0218141 0.0228684 1.04842e-17)
(6.98767e-05 0.00052151 -1.05774e-18)
(6.25803e-05 0.000534884 -1.67648e-18)
(5.68155e-05 0.000521648 3.15527e-18)
(4.65204e-06 5.18883e-05 -2.19441e-18)
(4.74661e-06 5.45936e-05 2.39733e-18)
(7.93391e-06 7.03335e-05 6.17051e-20)
(6.74117e-06 0.000236343 2.3294e-19)
(1.3048e-05 0.000250674 -1.71203e-19)
(1.61215e-05 0.000282081 2.347e-18)
(-0.000854005 -0.0305899 3.63727e-17)
(0.00484874 -0.0279805 -5.77144e-18)
(-7.09495e-05 8.26793e-06 -1.12632e-19)
(-6.84213e-05 9.8743e-06 1.11439e-19)
(-0.000103439 7.34305e-06 4.78906e-19)
(0.0111188 0.00486704 -1.01033e-18)
(0.0112248 0.0041783 6.21996e-19)
(0.0222317 0.00814834 -2.23827e-18)
(0.0214445 0.00891404 -2.56946e-17)
(0.0226246 0.0092449 -2.47472e-17)
(0.00055855 0.00180589 -9.52465e-18)
(0.000616424 0.00192488 5.94915e-19)
(0.00745281 -0.0294326 2.4868e-17)
(0.00825058 -0.0287278 -4.17453e-17)
(0.000270039 0.000550499 -3.58632e-18)
(0.000270927 0.000601567 -1.53883e-18)
(0.000278078 0.000543497 5.32001e-19)
(0.000221607 -0.000102606 -8.84297e-19)
(0.000222041 -0.00010683 2.82437e-18)
(0.000220165 -0.000133893 -2.06435e-18)
(0.00940619 -0.0135748 -1.54518e-17)
(0.00895906 -0.0141477 -2.48057e-18)
(0.0097796 -0.0143059 -9.10642e-18)
(3.06262e-05 -0.000223653 -2.05902e-19)
(2.29772e-05 -0.000227702 -6.05852e-19)
(5.05042e-05 -0.000243518 1.31013e-18)
(0.00304337 -0.00349908 -8.08718e-19)
(0.00330842 -0.00353815 2.06649e-18)
(0.000846761 0.0020695 2.65793e-18)
(0.000744119 0.00205126 6.54491e-18)
(0.00083181 0.0019779 -6.03373e-19)
(0.0271143 0.00339404 -2.08462e-20)
(0.0258844 0.00350819 2.97789e-19)
(0.0263836 0.00232945 -5.70772e-18)
(-0.009988 -0.00940573 2.22192e-18)
(-0.0104685 -0.00893462 6.80353e-18)
(0.00291553 0.00243928 -3.42105e-18)
(0.00306604 0.00242849 1.00644e-18)
(0.00297739 0.00262163 4.93592e-18)
(-0.00529586 -0.00816873 7.26311e-19)
(-0.00586429 -0.00844223 2.46087e-18)
(-0.00580711 -0.0077975 -3.17701e-18)
(0.00550008 -0.0371787 -2.98714e-17)
(0.0110297 -0.0356747 -1.02007e-17)
(0.000991038 -0.0370897 9.55593e-18)
(0.000409174 -0.0002819 1.75278e-18)
(0.000420109 -0.000277006 2.5525e-18)
(0.000385347 -0.000285926 -1.48596e-18)
(0.00695084 -0.0265054 -8.28876e-18)
(0.00759657 -0.0268564 2.09653e-17)
(0.0075316 -0.0260257 7.54317e-18)
(-0.00464474 0.00218678 1.91189e-18)
(-0.00492151 0.00201659 2.46019e-19)
(-0.000908194 -0.000502231 -4.31167e-19)
(0.0120607 0.0125136 5.82464e-20)
(0.0123562 0.0118785 -3.10318e-18)
(0.0129157 0.0124684 -5.03105e-18)
(0.000121261 -0.000357369 -1.49111e-18)
(0.000133825 -0.000364649 -9.20994e-19)
(-0.00477941 0.00250729 -1.33525e-18)
(-0.00439488 0.00239898 4.86023e-19)
(-0.0014277 -0.00102226 4.8702e-18)
(-0.00132799 -0.000993283 1.91578e-18)
(0.00378974 -0.00154954 -6.54664e-20)
(0.00405739 -0.0014535 8.13107e-20)
(-0.00016464 -0.000158732 1.14449e-19)
(-0.000154319 -0.000176425 3.0162e-20)
(-0.000175653 -0.000171479 -3.38155e-20)
(-7.32304e-05 2.2129e-05 -4.34081e-20)
(-7.20128e-05 1.96516e-05 -1.44314e-19)
(-7.75708e-05 1.94603e-05 4.60785e-19)
(-0.0024682 -0.00292015 -1.17515e-18)
(-0.00265106 -0.00300839 -3.73351e-18)
(-0.00244164 -0.00312291 -6.2812e-19)
(-0.00920468 0.00253166 2.82278e-18)
(-0.00890995 0.00208462 -9.32178e-19)
(-0.00951237 0.00209781 -1.1255e-20)
(0.000154021 2.81697e-05 -2.61161e-18)
(0.000151877 6.04097e-05 2.5876e-18)
(0.0011833 0.000138339 6.66715e-19)
(0.000890398 -0.000544288 -5.41254e-19)
(0.000934697 -0.000472192 5.72247e-20)
(0.00342025 -0.00291533 1.04935e-18)
(0.00358104 -0.00316418 -7.339e-19)
(0.000382273 -0.000302176 3.51678e-18)
(0.000373717 -0.000300618 1.62177e-18)
(0.000141822 0.000215933 4.15749e-18)
(0.000154082 0.000175914 4.29489e-20)
(-9.56769e-05 1.27928e-05 -2.95379e-20)
(-0.000105646 7.73904e-06 6.48265e-20)
(-9.94608e-05 1.10422e-05 4.61573e-20)
(0.00209597 0.000378154 1.66805e-18)
(0.00203203 0.000283882 2.56736e-19)
(-0.0041546 0.00111396 2.18491e-18)
(-0.0039099 0.000908665 1.4142e-18)
(-0.00391071 0.00127666 -8.80942e-19)
(1.90049e-06 2.69433e-05 -2.6611e-18)
(5.03758e-06 3.97288e-05 -1.2032e-18)
(-8.72105e-05 1.93451e-05 6.75313e-20)
(-8.15525e-05 1.77236e-05 -1.6256e-19)
(-8.37834e-05 1.78966e-05 -2.78367e-20)
(0.00063048 -0.000167309 -2.30885e-18)
(0.000630311 -0.000178278 -5.99146e-19)
(0.00327143 6.17849e-06 -7.44481e-19)
(0.00339643 0.000101156 2.20342e-18)
(0.00340721 -6.57572e-05 3.48131e-18)
(0.0281181 0.00424741 -1.27736e-18)
(0.0283934 0.00284346 -7.7181e-18)
(0.00402049 -0.0256216 1.52384e-17)
(0.00443278 -0.0264732 -1.15469e-17)
(-0.0144107 -0.00383463 2.68518e-17)
(-0.0160236 -0.00342534 -1.99562e-17)
(0.00720275 0.00508718 9.10195e-19)
(0.00681481 0.00517125 -1.21777e-18)
(0.00717133 0.004123 1.30044e-18)
(0.00727467 0.00375919 -4.46324e-18)
(0.00682611 0.00388602 -7.98454e-18)
(0.00241749 0.00187338 1.52921e-18)
(0.00247054 0.00171762 3.34802e-18)
(-0.0113779 -0.0203749 -9.51215e-18)
(-0.0120106 -0.0214113 -3.97837e-18)
(-0.0108038 -0.0214701 -2.19166e-18)
(0.163737 -0.0336868 -1.3455e-17)
(0.161997 -0.0364223 -1.85422e-17)
(0.150002 -0.0383854 -4.97225e-17)
(-0.00226023 -0.00280309 -1.39092e-18)
(-0.0024587 -0.00270953 -3.77444e-19)
(0.000311337 -0.000228881 -1.45046e-18)
(0.000305723 -0.000214937 6.5168e-19)
(-8.1445e-05 1.59726e-05 -5.7433e-20)
(-6.47067e-05 1.57843e-05 3.95508e-20)
(0.00202595 -0.00194903 1.14171e-18)
(0.00184172 -0.00199159 3.55766e-19)
(-0.000153345 -0.000150297 1.01815e-19)
(-0.000171968 -0.000141384 2.02105e-19)
(-0.0292357 -0.0500969 4.75143e-18)
(-0.028274 -0.0478504 1.3291e-17)
(-0.00474427 -0.00095193 2.35861e-19)
(-0.00450102 -0.000932238 -4.09613e-18)
(-0.0046581 -0.00119878 6.42324e-19)
(0.000374173 -0.000306571 4.78883e-19)
(7.41692e-06 0.000191764 1.0574e-18)
(1.17114e-05 0.000231954 2.77229e-18)
(0.00551985 0.0058741 -6.20134e-18)
(0.00587656 0.00589511 8.01496e-18)
(-0.0043996 0.00102667 -2.88589e-18)
(0.0229919 0.00731597 3.98739e-17)
(0.021861 0.00715082 3.00108e-17)
(0.00752537 0.0043943 -5.3039e-18)
(0.0212315 -0.0114852 -3.41864e-17)
(0.0221886 -0.0112968 1.50858e-17)
(0.0218609 -0.0124819 -1.11345e-17)
(-0.000209026 -0.0040089 -7.28379e-19)
(-0.000322342 -0.00423232 1.40064e-18)
(-0.00894287 0.00301353 -7.0226e-19)
(-0.00960693 0.00306002 9.07116e-20)
(-0.000143901 -0.000141581 -8.32291e-20)
(-0.000150211 -0.000126792 1.00753e-19)
(-0.000133436 -0.000136307 -4.73423e-19)
(-0.00565092 -0.00343828 -4.89437e-18)
(-0.00590831 -0.00352313 -5.13276e-18)
(-0.00566378 -0.00372628 -1.38658e-17)
(-0.00202465 0.00110443 -1.0396e-18)
(-0.00198475 0.00093659 8.64444e-19)
(0.00526922 -0.00580666 3.73944e-18)
(0.00566951 -0.005488 3.30239e-18)
(0.000685701 0.000110686 4.74114e-19)
(0.000660323 0.000109226 3.07435e-18)
(0.000670904 6.18507e-05 3.01846e-18)
(-0.00417285 -0.00810913 -1.96487e-18)
(-0.0119942 6.79042e-05 6.8236e-17)
(-0.0108466 -0.000578155 -7.53001e-18)
(-0.000233264 -0.000102713 -8.47918e-21)
(-0.000234513 -0.000108432 2.92123e-20)
(-0.000901146 -0.000869367 1.61455e-19)
(-0.000962486 -0.000840625 8.88549e-19)
(-0.000985996 -0.000930535 4.91812e-19)
(0.162316 -0.0319484 7.56989e-18)
(0.178157 -0.0308394 -3.81117e-18)
(-0.0104618 -0.0195535 -1.41311e-17)
(0.000516341 -0.000991803 3.94314e-20)
(0.000601078 -0.000929691 8.70928e-21)
(0.000138341 0.000246891 2.2214e-18)
(0.000147025 0.000239788 -1.03776e-18)
(0.000137803 0.000280684 -2.21676e-18)
(0.00313184 -0.000108732 6.3861e-19)
(0.00311588 6.92081e-05 -2.03147e-18)
(0.111713 -0.0584021 1.19575e-17)
(0.127535 -0.0554557 -1.4059e-17)
(0.00153818 -0.0168492 -1.63462e-18)
(0.00183188 -0.016105 1.36111e-18)
(0.00100538 -0.0164148 1.91715e-18)
(0.0157057 -0.0195867 -3.00772e-17)
(0.0165524 -0.0195611 -5.24393e-17)
(3.70387e-05 3.0318e-05 -8.79431e-19)
(3.31406e-05 3.5658e-05 1.83672e-18)
(-9.26225e-05 2.12996e-05 -1.48165e-19)
(-9.44582e-05 2.22484e-05 -3.04862e-19)
(0.000433909 -0.000267882 1.15771e-18)
(-0.000882239 -0.000641874 -1.24233e-19)
(-0.000796775 -0.000611121 3.9052e-19)
(0.00707435 -0.0359545 8.49104e-18)
(-0.00367438 -0.0406729 -1.66804e-17)
(0.000483635 -0.000177463 -5.52666e-19)
(0.000500818 -0.000167676 -7.41416e-19)
(0.000508218 -0.000144151 7.44164e-19)
(0.000167962 0.000223077 -5.28292e-18)
(0.000169566 0.000190514 -2.50504e-18)
(0.000149755 -0.000357395 1.17491e-19)
(0.000147562 -0.000348144 -1.99656e-18)
(0.000159707 -0.000358783 -1.1391e-18)
(0.000255943 0.000495876 -1.07458e-18)
(0.000255584 0.000566244 -7.08107e-18)
(-0.0119681 -0.00790768 6.46138e-18)
(-0.0128003 -0.00784678 5.01831e-18)
(-0.0122002 -0.00719886 -4.16165e-18)
(0.00265955 0.00132397 -1.06683e-18)
(0.00278217 0.00136011 -6.13032e-19)
(0.00266197 0.00146051 -1.54604e-18)
(0.0163984 -0.00384945 1.60219e-17)
(0.0158046 -0.00355323 7.95802e-18)
(0.015916 -0.00435034 5.57613e-18)
(0.109961 -0.00739323 -1.00683e-17)
(0.121036 -0.00830271 -2.89553e-17)
(0.116529 -0.00668056 -2.91918e-17)
(0.00159942 0.00153349 -2.88456e-18)
(0.00155369 0.00158566 -3.17204e-18)
(0.159805 -0.00962572 -2.70469e-17)
(0.162858 -0.00902498 1.59656e-17)