/*--------------------------------*- C++ -*----------------------------------*\
| =========                 |                                                 |
| \\      /  F ield         | OpenFOAM: The Open Source CFD Toolbox           |
|  \\    /   O peration     | Version:  v2012                                 |
|   \\  /    A nd           | Website:  www.openfoam.com                      |
|    \\/     M anipulation  |                                                 |
\*---------------------------------------------------------------------------*/
FoamFile
{
    version     2.0;
    format      ascii;
    class       volScalarField;
    location    "950";
    object      omega_0;
}
// * * * * * * * * * * * * * * * * * * * * * * * * * * * * * * * * * * * * * //

dimensions      [0 0 -1 0 0 0 0];


internalField   nonuniform List<scalar> 
10042
(
0.0219214
0.0220489
0.0219663
0.0232358
11.7732
0.0220692
4.62437
3.48931
0.0217911
0.022009
4.44966
0.02317
0.021533
0.0214947
0.0234941
0.0220316
0.0220236
0.0222585
0.0219237
0.13156
0.0219052
0.187787
0.0215874
0.0216206
0.0220558
0.0283838
0.0221317
0.0226684
0.0217989
0.0223581
0.0220205
5.28961
0.0220197
0.0222678
0.0258218
0.0216331
0.0276466
0.0323237
0.0216348
0.0292291
0.144005
0.0231148
4.40628
0.0219917
11.9422
0.0533053
0.022305
0.0874222
0.0268592
0.0468778
0.0221669
0.0226093
0.0231673
0.0233629
0.0276942
0.0220622
0.0218007
0.0222744
0.0222586
0.0229754
0.0220446
0.0220048
0.0259808
0.021937
0.0222376
0.0222786
0.0220395
0.0730905
3.82563
0.0218786
0.0233079
0.157895
0.0219956
0.0320284
0.0220186
0.0216179
11.3314
0.0219333
0.0298796
4.52071
0.0262837
12.3552
0.0219866
0.0227575
0.0220449
0.0222135
0.0219002
0.147117
0.0219443
0.0219026
0.0222134
12.4278
0.0227414
0.0224941
0.0223127
0.0218683
0.0219405
0.0218542
0.0287305
0.0218104
0.0222908
0.0997219
5.3699
0.0222021
0.0225555
0.0498512
0.0219229
0.0219345
0.0219133
0.0214631
0.0217165
0.0218312
0.0254538
3.59432
0.0222271
0.0218467
0.0219482
0.0219292
0.021866
6.73176
0.0219385
3.64284
0.022021
0.0219853
0.098122
0.0219895
2.95835
0.0274507
0.0480608
0.0218937
0.0308434
0.0220073
4.00811
0.181205
0.0218098
0.0557985
4.72044
0.0222215
0.091793
0.169592
0.0226664
0.0219451
0.0224422
0.134287
0.0220817
0.0218313
0.0550598
0.0215723
0.0218674
0.02508
0.0218208
0.0222555
3.56316
5.455
0.0221853
0.0215278
0.0225978
0.0219971
0.0564627
11.2154
5.20134
0.112841
0.0219893
0.0218219
0.0220545
0.0219913
0.0588838
27.055
5.53787
6.34085
0.0228621
0.0218471
12.4341
0.169831
0.0377938
3.58753
4.65025
0.022008
0.0846561
0.0310075
0.0227414
5.79782
0.0220908
0.0273577
0.0230017
8.09506
0.219838
0.0220756
4.27789
0.0238174
2.93931
0.0224398
3.44672
7.51007
0.0887045
2.77971
0.0253133
0.021934
0.0215323
0.0233319
0.0367447
0.0221113
0.0218245
0.167465
0.0220798
0.021687
4.57929
0.0221563
0.0222603
0.0222427
1.06587
0.0218725
0.0547087
0.307687
0.0225664
0.225914
0.0219693
0.0219908
0.0608271
0.021774
0.0255423
0.0227151
0.365685
0.0332761
0.0252701
0.0291936
0.298558
0.0218387
0.144262
0.0236082
0.0217907
0.134745
0.0218554
0.0235679
0.0220057
0.0252478
0.0217128
0.0214809
0.0233373
0.0268202
0.021996
0.0220267
0.0220117
0.0255247
0.0218477
0.0220291
0.0216226
0.0226196
0.0230803
0.0222689
0.0215333
0.021871
0.0241518
0.490133
0.113509
5.52431
0.0383916
0.0370951
0.0236703
0.0592155
4.37317
0.0231165
0.0219259
0.0214989
0.0232647
0.0217118
0.247088
0.023567
0.0218957
0.0222503
0.0385284
0.0231442
0.286223
0.0376983
0.173715
0.0238784
0.0267942
0.0217152
0.0251998
0.0221046
0.0321874
0.021914
0.0284274
4.17818
0.0216877
0.0218919
4.59507
0.0544273
0.0220408
0.0220434
0.0238869
3.48754
0.0500857
0.14006
0.0221819
0.0215282
0.0218392
0.0218025
0.253073
0.02189
0.0220387
0.0218448
0.0219708
0.0334237
0.0236949
0.073094
8.90192
0.0227829
7.9893
0.0218516
0.0250026
0.0221232
6.53495
0.097584
1.51906
5.81769
0.0216032
0.0236122
0.0218834
0.0238672
0.0292379
0.0222416
0.0322741
0.0217101
0.0214958
0.0220118
0.0795936
0.0222839
0.0235245
0.0219734
0.0235419
3.62672
0.0218515
0.0221757
0.0219882
0.0219105
0.041021
0.0891336
0.0369642
3.08776
0.0337232
0.0265437
0.021988
0.0214776
0.0223085
0.022268
0.593481
0.0219129
0.0222779
0.104484
0.0218266
0.0245214
0.0228717
0.116367
0.0220012
0.025095
0.0453013
0.0319943
0.0232789
0.0219397
6.35227
0.0558434
0.0224356
0.0406308
0.0219516
0.0218592
0.0219496
0.0244593
0.818604
0.0249172
0.0222492
0.0227381
0.0222923
0.0222709
0.129453
0.0219377
0.0216308
4.9733
0.0218424
5.77879
0.517294
0.0326215
3.09447
6.56341
0.0274398
0.137529
0.0221582
0.0478513
0.0222913
0.0222168
2.18295
0.0220644
0.0241031
12.6135
0.0220263
0.0219066
0.0501014
2.256
0.0222
0.0215668
5.24861
0.0987109
0.0218432
0.0736172
17.0116
0.0217729
0.0222641
0.0216457
0.0218764
0.0214777
0.0216801
7.46562
4.97045
0.0222521
9.5391
0.0214962
0.0218908
0.547436
0.0221572
5.80172
0.0537491
0.0227699
0.0216059
0.021556
0.133662
0.0229894
0.0274923
0.022347
4.03542
0.0224525
3.69369
0.0232979
0.0219377
0.0218463
0.623142
0.0219531
0.0256835
0.0218728
0.0219684
8.18803
0.0253591
0.0219383
0.0217564
5.32291
0.021885
0.0256333
0.023243
0.0217162
9.71528
3.17105
0.0218866
0.0221681
0.0250284
0.0215328
0.0220096
0.0219736
5.10401
0.0219963
0.0217432
0.0282849
3.66739
0.0552524
0.0222685
0.0305698
19.376
0.0352033
0.0219408
0.021945
0.182772
0.0223559
0.0219435
0.0291644
0.0218391
0.0216811
0.0228654
0.0215674
0.0376241
0.0219199
0.0219571
5.79866
0.0217664
0.0227897
0.0220663
0.0222867
0.0320584
0.0218907
0.0218772
1.48759
0.0224683
4.95935
0.0230803
0.022282
0.0222767
0.12057
0.021913
0.021943
0.0220126
0.0225346
0.0275386
4.96197
0.0218889
0.0373654
4.64381
0.0351048
0.0222611
0.0219629
0.0222132
0.0222029
0.0218648
2.00611
4.61235
0.0220742
0.0274733
0.0286552
0.0281483
0.0220273
0.0216606
1.05544
0.130637
3.3439
0.021599
0.0222594
0.0220995
0.0218475
4.5149
0.0337708
0.0225429
0.021858
0.0218103
0.0219964
1.60937
0.0253636
0.0221393
6.31205
1.38993
0.421837
0.050625
0.0220167
0.0218151
0.0537475
0.0504532
2.87842
26.8088
0.0246188
0.0260032
0.0222104
0.0234774
0.02216
0.0221996
4.7243
0.0216158
0.0218559
0.0511858
0.0222101
0.972054
0.022891
0.123697
0.0288384
0.0222447
0.023398
0.0258331
0.0388362
0.0506078
0.081123
0.0222824
0.0467976
0.0228784
0.0218657
0.0221184
0.0223327
0.0220348
0.0248687
0.0553578
0.0408757
0.0221428
0.0225277
0.0220085
0.021926
0.126565
0.0219307
0.0232073
0.19129
0.021569
0.0505315
0.0703493
0.0220408
7.97565
0.0387178
0.0222096
0.24151
0.0220609
0.0222686
0.021969
0.0219829
0.0222924
0.0238721
0.0220039
0.996765
0.022668
0.0219677
0.0222039
0.0325176
0.031759
0.0219805
0.0244819
0.0218148
0.0315666
0.0219422
0.0290547
0.0216371
0.0229607
0.0215516
0.0219363
8.56735
0.0216518
0.11225
0.0219695
0.0229297
0.0217475
0.0318339
0.0220746
0.0397722
0.022042
0.207548
0.0222621
4.63134
0.0215683
0.0233904
0.0222715
0.0219857
0.0219628
0.0238229
0.0220345
0.124575
32.8973
0.895634
0.0239564
0.0360355
0.0218168
0.0378706
0.0531899
0.0220121
0.0288147
0.085363
3.02783
0.0705675
5.89288
0.0264909
0.0221004
0.0222313
0.0249319
0.023881
0.0360645
0.0216071
0.0233193
0.102269
0.0222649
0.0219266
0.0248411
5.52833
0.0232402
0.0294079
0.0535778
0.0222515
4.33143
0.0216237
0.0218326
0.0223802
0.0218415
5.6133
0.0603787
4.76146
0.0220565
3.22434
12.2496
0.469764
0.0356697
0.0598522
0.142868
0.0396929
0.021974
0.0218761
0.0299546
7.20156
0.0218094
0.0289426
5.41885
0.0219147
0.021913
0.0218708
0.0228231
0.0219551
0.0220627
0.118845
5.43152
0.0220258
0.0220007
3.96211
2.97669
0.0218207
0.0219444
0.0221549
0.0218804
0.59624
0.0602551
0.278625
0.0225563
0.0219075
0.021801
0.0227716
0.022053
0.0314679
0.0225751
8.42323
0.022008
0.0220748
0.039851
0.0218055
0.0331321
0.0650791
0.0231894
30.5702
3.98564
0.0221064
0.0218602
7.79453
5.39194
0.0349172
0.0220403
4.16948
0.185755
0.0256203
0.0219585
0.0219948
0.0219246
0.328995
0.0239083
0.0938821
0.0222686
3.51798
0.765796
0.0219655
0.0219922
0.117291
0.0221496
0.0217448
0.0248504
4.50002
2.91641
8.77519
0.0226138
0.0528209
0.0380918
0.021647
0.0218776
0.0221935
0.306797
0.022206
0.0219632
0.0526303
0.0220178
0.0602411
0.0221114
0.0221063
0.0216955
0.022151
0.166978
0.0221989
0.0218666
0.0382061
0.0548915
0.394006
0.0222098
0.0805279
2.66922
4.929
0.0228729
5.24882
9.81387
0.021916
0.0215445
0.0225994
0.0232445
2.33259
0.0233089
0.0221223
0.0222061
3.05867
0.0367367
0.0225557
0.022142
0.0219413
0.0409816
0.021759
0.0218388
0.0306411
0.0227559
0.0222042
0.0217859
1.426
0.0218901
0.0226834
0.0220291
0.022326
0.136526
0.0222027
0.0229489
0.0220716
0.0248742
0.830297
0.0222919
0.36653
0.0255201
2.52668
0.0216683
0.0233293
0.0303539
0.0803888
0.0503145
0.0225665
7.04843
5.09284
0.0224784
0.0218142
0.381765
0.0220791
0.0222511
0.0217329
0.0222418
0.0466903
0.0222928
0.0222931
0.0642777
0.0279403
0.0230301
0.0310528
0.0227175
9.26877
0.0232919
0.871012
0.0218721
0.0512166
0.0363032
4.47505
0.0240771
4.17573
0.0222695
0.0257917
0.022042
0.0220533
0.0219173
0.11761
0.039994
0.0455274
6.99984
0.0221192
10.9081
0.0261363
0.0217757
0.0312468
0.0291337
3.74115
0.021987
0.0277963
0.0506522
0.0232649
0.0414316
0.0222838
0.0215763
0.0222833
0.30864
0.0221333
0.0220042
0.0217406
0.0217316
0.0219405
0.0219911
0.0222884
0.0218568
0.0221507
0.0224542
0.025006
0.0305547
0.0219915
2.77521
0.0219567
2.50804
0.0367843
2.81145
0.0345284
0.0255629
5.33993
0.0320958
0.336502
5.91086
0.0405633
0.0221991
0.0218513
0.0228268
0.139696
0.0218724
5.44332
0.0218671
16.8707
4.40193
0.0517301
0.0228792
6.68766
3.35664
0.0231692
0.0219817
0.0222639
0.0244588
0.0215664
0.021674
0.0554118
2.91472
0.022078
0.0218656
0.0223531
0.626305
0.055779
0.0221556
0.0249308
0.0789545
0.0224072
0.0220276
4.88592
0.0222505
0.021887
11.2965
0.0238468
0.0219555
5.5947
3.05358
10.6025
0.0219235
0.023071
0.376223
0.0217392
0.0218663
0.0222844
0.0295578
0.0220438
0.0221114
0.023894
0.0458884
0.180704
0.0217872
0.021942
0.0220793
0.0218312
0.022495
0.0216007
0.122898
0.028235
0.0219556
0.0219879
0.021771
0.021976
0.0224288
4.85312
0.0281367
0.0215604
0.0219364
0.0407357
3.95679
0.0220427
0.0219828
0.0220292
0.0215622
5.7655
0.0454237
0.0217436
0.0220666
0.0284896
0.103788
0.0221693
0.0222828
0.024704
0.0220338
0.0257928
0.0223286
5.02268
0.0341499
0.0220694
0.0255277
12.1372
0.0279604
0.138806
0.0248427
0.372038
0.022271
0.0223164
0.0248257
0.0575728
0.0219079
0.0219024
0.0222436
0.0228537
0.104859
0.11817
4.14253
0.0227085
0.0219922
0.0279266
0.0219659
0.0219628
5.54348
0.0235466
0.0219861
0.0219861
0.291961
0.791166
0.0219907
0.0220601
0.0791282
0.0218345
0.0221038
0.0219382
0.0770588
0.0230243
0.0258046
11.2388
0.0222334
0.022168
2.59088
0.0219099
0.164384
0.0218964
0.0233216
0.0411354
0.0219911
0.0220889
0.0224288
0.0234409
7.37877
0.02193
0.0221349
0.216327
0.0254741
0.226784
5.17555
0.0456589
0.022212
0.398791
0.0219173
8.90258
0.0221674
0.0220044
0.021714
5.78439
0.0222121
0.0223099
0.0221599
0.0318674
2.34655
0.0277547
0.0470662
0.0219075
0.0221349
0.0354987
0.028174
0.0218409
0.0249917
0.0218951
4.02706
4.32083
0.0221382
0.0229043
0.0222227
4.20982
0.0221563
19.2495
0.0219798
0.0218566
0.0217365
0.0224401
0.0237488
0.0222715
0.0219935
0.0220046
3.32925
0.0918757
0.0218647
0.0244026
0.0241163
0.0402455
0.0218879
0.0257502
0.0228519
0.0219689
0.0231882
0.0303263
0.0222802
0.0219161
0.0265066
0.0217662
0.148477
0.0230562
0.13862
0.0221054
0.022038
0.0219321
0.0637121
0.0387821
0.0217735
0.0244395
0.0626378
0.0224029
0.0217765
0.0251727
0.0222247
8.47827
0.218988
0.024718
6.05974
0.0230808
0.0325048
0.0808958
0.0369685
0.0328166
5.10605
0.0298529
0.115121
0.0220452
0.0229481
0.0218476
0.0219521
0.0260124
0.0217644
0.19645
0.0219773
0.0219972
0.0726638
0.0219494
0.0482891
0.026227
0.0251444
0.021869
0.0419982
2.02992
0.0214231
0.030181
6.65428
0.0419661
0.0218021
0.0298606
0.021994
0.0217825
5.05775
0.021838
0.0217877
0.0449386
0.0219483
0.0267071
0.0217691
0.0220033
3.79392
0.0218608
0.0216708
0.0244704
0.0219218
0.021553
0.0222518
6.85904
0.0221382
0.0220841
0.0215889
0.0724375
0.0223927
0.0243253
0.0219337
0.0340404
0.0226156
0.0219105
0.0228263
0.0220998
0.0217841
0.114693
0.0405025
0.0281017
0.0234311
0.0436638
0.0643772
0.0273536
0.0280267
0.0228742
5.70193
0.0219426
0.0219784
0.0219251
0.0222384
0.0349896
0.021894
9.81963
3.97004
5.80324
0.0220836
0.0244973
0.0382154
0.0215427
0.0878317
0.0461176
0.799581
0.0572402
4.72559
0.0645553
0.172252
2.11597
0.0278583
0.0230791
0.02487
0.0217799
3.28531
0.0225791
0.0290031
0.0218039
0.024864
0.0220448
3.72468
3.92516
0.0222036
4.80397
0.608011
0.153395
0.0423678
0.0605906
0.0216743
5.50534
0.0219626
7.56557
4.35932
0.0222042
0.0219075
0.0220019
0.0232912
0.024983
0.0335041
0.166108
0.0221246
0.0220394
0.0249128
0.022421
0.0220357
0.0257769
0.021842
0.0220589
1.70913
0.0570177
0.0220414
5.99623
0.0231003
0.0222722
0.0234271
0.251471
0.0219451
0.0217357
0.0964396
0.174655
0.0218265
0.0249692
0.616546
0.0493735
3.93584
0.0217847
0.166092
4.00751
9.73718
0.0220821
0.0219227
0.054129
0.026023
0.0401938
0.0222991
6.3654
0.0450153
0.166749
0.0220388
0.0219768
4.88532
0.525589
0.022149
0.0222723
6.69759
0.0219315
0.021619
0.0219061
0.0234543
0.0221968
0.0294524
0.0221078
0.0238479
0.0216253
0.0313037
22.3198
0.0567759
0.0327416
4.7708
0.0683402
0.0216512
0.0217798
0.0218705
0.0222837
0.115231
0.0296024
0.0222662
0.0219744
0.021976
0.0216078
0.0320325
0.0216182
0.0477623
0.0241627
0.0221231
4.39104
4.05731
0.0221015
6.44448
0.0334897
0.0322888
0.0222641
0.0216312
11.0788
0.066513
0.0219248
0.0217327
0.0219389
0.0260066
0.0222624
0.144342
0.0215244
0.0220592
0.0220154
2.29085
7.05317
0.0215393
0.0220078
0.145854
0.475274
0.0245204
3.98237
6.5319
0.0218753
0.0221417
0.0221284
0.022973
2.29362
0.0220381
0.0222844
0.175393
0.0824257
0.0222121
0.0219471
0.0727277
0.0222837
0.0220742
0.0986407
0.0707096
5.71272
0.0219833
0.0670774
0.0406666
0.0496762
0.0230883
0.0271817
0.0219446
0.0219943
0.119559
0.025582
0.0219997
0.024629
4.27989
0.0215466
0.0218155
0.0215399
0.0737177
0.021952
0.0220862
0.0214432
0.0219517
0.636405
8.98575
0.0222122
6.50261
3.98814
4.3932
0.0219434
0.0219509
0.021836
0.0219029
0.0221161
0.0221492
0.0216286
0.0220821
0.0217852
0.0242491
4.926
0.0355907
1.6782
0.0293554
0.0220312
0.0231048
0.0317579
0.0221711
0.0218556
0.0393385
0.0315324
0.496243
0.0386209
0.0215196
10.1513
0.0226864
0.0215014
0.0218675
0.320009
0.0399234
0.0227684
0.0254685
0.0220727
0.0220932
0.0320541
0.0379063
0.0285729
7.19172
0.0220828
0.02203
0.593639
0.0366963
0.0249765
0.11721
0.0231767
0.0636212
0.273748
0.0607174
7.51865
0.0218356
0.0218404
0.0219426
0.022048
0.0220949
0.0230934
0.0372173
0.0483974
17.4905
0.0220727
7.30233
7.06167
0.0249466
1.33129
0.0222093
0.0844988
8.71203
0.0219139
0.0827564
0.0215955
1.87485
0.0221975
0.186991
0.021869
0.657169
0.036912
4.2811
0.0218543
0.15308
0.0216908
0.0231906
0.23615
0.0218452
7.38048
4.43276
2.75618
8.44287
0.0828827
5.0793
0.0382027
0.0220182
0.0441241
0.0430318
4.36487
0.0220764
0.0220168
0.0227019
0.0465574
0.0219554
0.0222216
0.0222033
19.0761
2.45886
0.0219176
9.45277
0.057413
0.0217332
0.037501
0.0271832
2.45616
0.0292797
0.0217768
0.699301
0.0220721
0.0219401
0.0220893
0.114089
0.0560137
0.0218269
0.0264585
0.0221108
0.0222606
0.0217976
11.214
0.0222857
0.0218175
4.81012
0.235948
0.0240484
0.0218243
2.09883
0.0281695
0.0232091
0.021942
0.0511417
0.0231973
0.0271203
0.0246181
6.88193
0.0425935
0.0543723
0.02151
0.0323483
0.0435265
0.0277226
0.0223707
8.14949
0.0222527
0.156455
0.0218971
0.0221933
0.0319293
0.174253
0.0235002
0.0249952
0.0221132
0.036842
0.0582297
0.0787463
0.0277754
0.0222924
0.0219652
0.0280755
0.0755182
0.021944
0.0401442
0.0220155
0.0219473
3.81417
0.0219014
8.73063
0.0219455
0.0270819
0.0633336
0.0219315
0.027899
0.0916347
0.0922249
0.0219402
0.0720627
0.0226857
0.0222634
0.0219052
4.71918
3.22411
0.0219162
0.0219363
0.02167
0.0218145
0.0820036
3.78387
0.021926
1.40245
0.0217371
0.0218026
0.021899
2.76105
0.0227905
0.0237801
0.0219543
0.0219669
0.0219237
0.0222568
0.0222595
0.0307633
12.5735
0.0216558
0.0219161
0.0417974
0.0635849
0.021802
7.23333
0.0495445
0.0217928
0.0215501
0.022424
0.102123
0.0217477
0.0698085
0.0282246
0.0240469
0.0217905
0.0423248
0.0215284
0.136133
0.0276149
0.0223659
5.17832
1.69161
0.0214301
0.0218678
5.68494
0.107602
0.0678778
0.0248233
0.0697204
0.0215811
5.52517
0.0586291
0.0218734
1.86717
2.94837
0.0231639
0.0432688
0.0490868
0.0217699
9.53541
0.0221745
0.0265859
0.0292154
0.0222422
0.0220491
0.0516761
0.0218771
0.0218911
0.0218756
6.16378
0.0218439
0.0219387
0.0217593
0.0218957
0.0218543
0.0222302
0.0481589
0.0456916
0.0237918
0.0222498
1.37873
0.0222523
0.0218388
0.0219069
0.0216609
0.0220846
0.0219718
0.0281196
0.0797885
0.022224
0.0295723
0.0496845
0.0217541
0.0274732
3.09585
0.022686
0.0215314
0.0220793
0.0838657
0.0222026
0.022203
0.0242041
0.0247528
7.11738
13.1159
0.0218285
0.0218656
0.0219472
0.0687518
0.0232777
0.0218006
0.0283113
0.0730305
0.0221591
0.0268636
0.0221329
0.0984734
0.179781
0.02303
0.124727
0.0256274
3.66214
0.022205
0.0219001
5.76547
0.117072
0.0242947
0.170405
0.0926514
30.851
0.0456317
0.687273
0.0255597
0.0252619
4.76856
0.0266027
0.789647
0.0300347
0.11625
3.88385
0.0222933
0.0221277
0.0219805
0.350514
0.0214513
6.31467
0.0347022
23.3404
0.0229565
0.119292
0.183518
0.0219474
0.0221875
0.0799909
0.0293578
0.0220883
0.0257759
0.0772067
0.068318
0.0709133
0.0969725
12.1993
0.139888
0.0221149
0.0222014
4.77922
0.0764236
0.0226401
0.0375305
3.23788
0.0222992
0.024103
0.0219462
0.0286383
0.0220389
0.0221049
0.0390635
0.0221016
0.022797
4.39078
31.4082
0.0217324
0.0256967
0.0265914
0.181171
0.0424649
0.0224391
0.0219285
0.104139
18.3201
0.0219383
0.025244
0.0220803
5.20056
0.0218341
0.0295166
0.983403
0.635593
0.0222721
0.139291
0.082923
0.052362
0.0255858
0.0220207
7.33187
0.0218194
0.0263327
0.0222284
0.0285231
0.0216244
0.0216548
0.0221271
0.0612641
0.0218232
0.0219781
0.0217919
0.0221687
0.0218745
0.0220351
0.0806015
7.52923
2.52054
0.0253846
0.0220568
0.032178
0.0237314
8.08912
0.022285
0.186074
0.0216226
0.0219972
0.0225468
0.0337767
3.59208
0.0219624
3.98804
0.0223171
0.0215255
0.0230912
7.56312
0.0233405
0.0452621
7.69416
0.0222848
0.0221785
6.2287
0.0218961
9.73414
0.0220883
0.0307945
6.35745
0.0228602
0.0220959
0.02186
10.2091
0.0264564
0.0218779
0.833979
0.0219637
0.0228428
0.0748528
23.3343
0.191528
4.04056
6.08948
0.0737018
0.0234563
0.18608
0.21362
0.0218956
0.0218606
0.0228338
0.0271818
0.0794751
0.0219931
0.0253424
0.0219081
0.0219644
2.43562
0.0222251
9.75473
0.0215725
0.0322295
0.0570386
0.0218291
0.0215193
3.91643
6.21664
0.0613007
0.0220798
0.0248311
0.0498297
0.021771
0.0332495
0.0900702
0.0371341
0.0234039
7.12897
25.357
0.0215439
0.022133
0.0216522
0.0221944
0.0230563
0.0277404
20.5041
0.0221201
0.0219648
0.0425483
21.3276
0.0215818
0.983437
0.0216227
0.119938
0.0527856
6.55105
0.0621039
0.0535229
0.0564263
0.0215314
0.0215109
0.219452
0.0253765
0.0220865
0.753049
0.0218327
0.0220836
0.021625
0.0458864
0.213266
0.539199
0.147795
0.0279338
0.0291626
0.0221705
12.466
0.356595
0.0230523
0.0219777
0.0217646
0.0835234
9.01838
0.0358968
10.0596
0.0229213
0.0217751
4.24659
0.0219382
4.67194
10.2233
0.0217026
0.0292971
3.13419
0.024147
0.0359022
0.0218248
4.58702
0.0263023
0.162954
5.00029
8.08592
0.027677
0.0285836
0.0221351
0.141973
12.5546
0.023258
0.0240107
5.21164
0.0493448
0.0673994
0.0222636
4.91718
4.81168
0.098146
0.0219521
0.0264573
0.0218987
1.77158
0.0662089
0.0322981
9.04621
3.69654
0.0215346
0.13754
0.0220999
3.47397
0.0936644
0.0270105
0.0254494
0.814317
0.0214054
0.0569433
5.61944
3.76016
0.0230206
0.0220309
0.0217937
0.0880785
1.21867
0.156218
4.31313
0.0863708
0.0408128
0.0217883
3.7611
0.0706772
0.0283123
0.192249
5.3763
5.19756
4.83703
10.0086
3.78654
5.85661
0.0220553
0.0289514
0.0320838
0.0220809
12.4135
0.709135
0.0220193
7.10316
0.0221287
0.0219933
0.0217756
0.0300442
0.0218731
3.66324
0.061973
0.538265
0.0217936
0.519879
0.0479532
0.390752
4.71238
0.0229559
0.0273837
0.0376693
0.0674239
0.0217761
0.0216534
0.0218943
3.75849
0.0217834
0.0217733
1.27242
0.023516
20.9444
0.0220453
7.36491
0.0219552
0.0220597
0.0219482
0.021974
0.0271748
0.024376
9.41443
0.0311638
0.0359302
5.17819
0.0218194
7.05717
0.0217981
5.37332
3.89327
5.95919
0.0598638
0.0219664
0.0222726
5.78025
0.022212
0.0263804
0.0221106
0.0293612
6.46962
0.0218859
0.0218535
0.0218829
0.0222651
9.40024
10.4699
0.0218267
0.0214439
3.64766
9.85114
0.0218681
3.9374
0.0222642
8.48397
4.93041
0.0616699
0.353732
1.06292
0.0863194
4.08815
0.071996
0.0219771
0.0215483
0.0217887
6.78428
9.8402
0.0229959
0.0283505
4.16677
0.0218392
4.44168
0.0219114
0.0220805
0.0216347
4.57489
0.0664354
0.0217553
4.02602
0.0222527
6.88099
4.25438
0.02174
0.0221103
0.106308
0.0219583
0.0219319
0.0218332
3.09592
0.0319143
0.022031
0.0221295
2.5212
0.0219428
0.0406302
0.0219884
6.35763
0.0221009
0.103272
0.0236595
4.72183
6.87899
0.0308214
0.0758673
0.0512553
0.0220741
0.0744557
5.28916
0.0217601
0.0741759
0.0217686
0.49943
0.0219019
5.70704
2.41533
0.107004
3.95925
4.24402
0.0413263
0.0227884
1.31485
0.0219319
12.596
0.0253416
0.867682
0.0218647
0.0326609
0.0465732
0.0304809
0.0221029
0.0219453
0.0221955
5.37498
0.0664887
3.85814
2.64929
0.0276641
0.0216242
0.0544018
11.3895
0.0336374
0.0217931
0.0220793
4.06532
3.07733
10.0579
4.75452
0.0352652
0.0222633
0.0217806
0.0478554
0.0494782
0.657887
0.0220012
0.0220689
35.164
0.0613317
0.0222854
0.0561384
0.701881
0.094297
0.0216485
0.0484672
0.517008
0.948882
5.73659
0.24259
0.0218791
0.0222691
0.0220705
0.0222849
0.0219606
0.02209
0.033358
0.230023
0.0334147
0.0276748
0.0287102
0.0221876
0.0261128
0.0227968
0.0347849
0.0327984
0.0218198
0.0280938
0.0219008
0.0218438
0.0224939
0.0221205
0.392226
0.0216054
0.0782949
0.574618
0.847268
9.74357
4.03775
0.0224564
0.0222368
0.0219067
5.66239
0.0220432
0.0214747
0.0221737
5.38439
0.031274
0.0326861
0.384379
0.0233646
0.0220329
0.0294276
0.021883
0.0482411
0.0222854
0.0342017
0.021787
0.0219268
0.0229334
0.0234818
0.0254023
0.583539
0.0362478
0.11123
0.0562587
0.115116
0.0433375
0.0637554
0.0219971
4.18099
0.0245964
0.0266313
0.0219325
0.0229124
0.123054
0.0219847
0.0635232
6.53739
0.0294753
0.380576
0.0975516
0.0535909
0.0685691
0.0597417
0.0219375
0.0282113
0.0220896
0.0764066
0.0504317
5.19548
0.0217617
0.0471601
0.0264967
3.30157
3.31041
0.0437196
0.0220968
0.0505868
0.0215721
0.0612949
0.0227633
4.07287
0.0216581
0.0259452
0.0220176
0.0359868
0.117236
0.0304963
7.99964
0.0220397
0.0309993
0.0604403
0.0220167
6.58887
7.48251
0.141337
0.0506252
0.0465845
0.021874
0.0217868
8.71007
0.0981544
0.0216732
0.0226889
0.0250899
0.0219091
0.39198
0.0217805
5.95596
0.13196
0.131477
0.0372864
0.0223187
0.0216667
0.0218558
0.147492
0.0820772
0.0267281
4.22008
0.0221732
0.0231265
0.0273147
7.82848
0.0215214
1.97952
0.0214054
4.53019
0.021913
0.0219075
0.0384237
0.0219845
0.0222167
0.123567
0.022075
0.0222897
0.0217926
0.0436927
0.0254279
2.07407
0.0219924
0.0220935
0.0218495
0.116249
0.0218084
0.028698
0.0390688
5.34403
9.38038
11.2918
0.897971
0.369875
0.0407587
0.0627197
0.0273981
0.0222511
0.0221206
6.87508
0.0577074
0.0215404
0.0219681
0.0219554
0.0273907
0.0786962
0.0222518
0.0303839
0.106145
0.152283
0.116544
0.0219697
0.0222377
2.88233
0.0238843
0.0216086
3.30592
7.11413
0.0217007
0.021438
0.0268228
0.0220546
0.038495
0.0222485
3.98541
0.0222726
2.05453
0.0219815
5.07754
0.0294786
0.0219408
0.0557802
0.0215986
0.0221139
0.0222647
0.03169
0.459069
0.0218557
0.148465
0.0222856
0.0221996
0.115691
0.021757
0.0221278
0.0221017
0.0214686
0.0219563
0.0215186
0.0221656
5.78972
0.0218622
0.0217744
0.0568751
0.021636
0.0219434
0.0221668
0.0222017
8.71637
0.435057
0.0220379
0.0231345
0.0220106
0.0222855
0.191216
0.0220548
0.0219839
7.74194
0.0219644
0.0430357
0.052353
0.03804
0.0219353
0.190867
0.0219072
0.241423
0.0698758
0.0219555
7.96845
2.08727
0.0283758
0.122669
0.021835
0.0218772
0.0454185
0.216153
0.0217779
0.0218591
0.0222411
0.0404392
0.0221026
0.0361948
0.02211
0.0460173
1.74589
0.0392262
0.179241
0.0218423
0.025489
0.0229043
0.0236549
0.0216924
0.0219012
0.0228822
0.0235297
0.0681116
0.0223468
0.0851678
0.022011
4.91382
0.0215186
0.021779
0.0680085
0.0222716
0.0974227
0.0787487
0.0372161
0.0220838
0.0228938
0.0220346
0.0372133
0.0220763
0.0559603
0.025759
0.0221485
0.0216831
0.0274474
6.78578
0.0318264
0.0518612
3.83808
3.96131
0.0387508
0.0215736
4.80834
0.021948
0.0236881
0.0224041
0.0918763
0.02197
0.0353435
0.0278752
0.0235249
0.0221213
0.0252708
0.0222
0.0547079
0.0219395
0.0221851
0.0219595
0.0281168
4.85154
0.0219983
8.46738
0.0876383
0.021458
8.1735
0.538288
0.0218984
0.0234089
0.0790052
0.0217939
0.0219114
3.57035
0.0220269
3.99976
0.0255936
0.0245762
0.0226745
0.0226292
0.021913
0.0218927
0.0618443
0.0225494
0.0219613
0.0219102
0.0225608
5.21598
0.0365661
0.0220405
0.0291584
0.133074
0.0670849
0.0218884
0.0220448
0.0219609
0.0248946
0.0228098
0.0224247
0.0271728
5.66972
0.0218719
0.0231597
2.49642
0.0245309
0.107756
0.131603
0.0218725
0.0222701
4.02594
0.0766913
1.35305
5.46587
4.26404
0.169874
6.52044
0.0218342
0.0235093
0.0216836
0.0221862
4.47572
0.0219942
0.0508922
0.0608332
0.0306499
0.0250057
0.543743
0.0219124
0.0221157
0.0251945
0.0219427
0.0220493
0.0217977
0.0222669
0.062335
0.0219456
0.0221427
0.021787
0.0461155
0.0221322
7.05759
0.021926
0.0234756
0.021818
0.0222521
0.0227599
0.0219613
0.0377225
0.0229665
0.0219383
0.0279864
0.0220503
0.0222646
0.0219848
0.0312379
0.0224304
0.0220341
0.022047
0.02206
0.0287168
0.0220212
0.0220091
0.0962727
0.0220745
0.0219175
0.0241834
2.8834
0.0477745
0.0226254
0.0493052
10.9753
0.108045
0.224019
0.0239223
0.0228182
0.0270128
3.70369
0.0221097
0.608187
0.023005
0.0218926
0.0280753
0.0220512
0.0645117
0.0697695
0.0595614
0.0229699
0.0219541
0.0281287
0.0272763
0.0229401
0.0243243
0.0240656
0.0445365
0.0758224
0.0663933
0.0219312
0.0248129
1.87133
0.0231359
0.0222853
6.16431
0.484365
0.0219499
0.0225462
0.023753
0.0685418
10.7543
0.0219632
0.345671
6.85877
0.0387857
0.0550824
0.0217553
0.0236955
0.0228583
0.0734327
0.0222318
0.0297093
0.0237981
0.193591
0.0221935
0.0220617
6.30384
0.023836
0.0230184
0.0221874
0.0222125
0.0377267
3.72488
0.0277103
0.0220432
2.69924
0.090882
0.0224153
0.0219537
0.0218313
0.0241192
0.0217918
0.189817
0.0218667
0.0243228
0.0249731
0.0538463
0.0262045
0.0218393
0.0271364
0.0242106
0.021831
0.088297
0.0221726
0.0235057
0.0216927
0.022272
23.5683
0.0280721
0.022405
4.15793
0.0229234
0.0219519
1.61275
0.0614188
3.79694
0.0219205
0.0232986
0.0218827
0.0227136
0.0230329
4.62632
0.022671
0.0793544
0.0218118
0.0223666
0.0244172
0.0219846
0.0369321
8.58621
0.478361
0.0219564
0.0217239
0.215236
0.0225741
0.0221803
0.0263195
0.0271347
0.38252
0.0803012
0.0228377
5.18797
0.0808501
0.0224039
0.0217756
0.0223086
0.0285149
4.38601
0.0222839
0.0613032
0.0229916
0.0220899
0.0215978
0.0227139
16.7388
0.0270405
0.0217863
0.0237482
0.0220949
0.0254319
0.0214488
0.0237397
0.0219765
0.0232041
0.411981
0.0220379
0.0222127
0.086948
0.0216208
0.0215878
6.45578
0.0218856
6.04672
5.34493
12.5646
0.0265007
0.0221338
0.0215098
0.0221389
0.0214841
0.0236336
0.131809
0.0469103
0.402867
0.0751852
0.024102
0.0216247
0.0232549
0.022628
0.0222726
0.0221231
0.0215762
0.0740192
0.0225893
23.1409
0.0222701
0.0227263
0.0222635
0.0221195
7.92172
0.14166
0.0287666
0.0215085
0.048222
0.0234573
0.0219759
0.0741736
0.0214535
0.0237347
8.39041
0.0219647
0.0219037
0.0219031
6.49086
4.72068
0.0216956
0.0226463
0.0254624
0.0220996
0.0217274
0.0219617
0.0220754
0.0219057
0.0218483
0.0219002
0.025288
3.80524
0.0384691
0.0219436
0.0219405
0.022425
0.0222078
0.0221774
0.0259068
0.027661
16.2458
0.0257378
0.0221767
0.023209
0.0219532
0.0834159
0.0216143
0.0222234
0.0232652
0.0282564
0.0267623
8.31816
0.0221195
0.0313588
0.0226487
0.0226117
0.0221043
0.0216468
0.0232658
0.10185
0.456515
0.0217594
0.0352064
0.0674383
0.0222647
0.0387904
0.0379587
3.42716
0.0222494
0.0235601
0.0226948
0.0216059
0.067669
0.0219642
0.0220007
0.0499731
0.199004
0.301776
0.0217842
0.0219126
6.63149
3.93873
0.0216197
1.13498
5.40646
0.0218279
0.0216136
0.0218246
0.0220677
0.0221399
0.0215668
0.0281559
6.06891
0.0218368
0.021964
0.0217018
0.0221574
0.0217987
0.0218474
0.0215562
3.91487
0.022053
1.09133
0.0221586
0.0218058
0.0231391
0.0218382
0.0221755
0.0289052
0.0221542
0.0223345
5.88235
0.0219945
0.0255364
0.0220189
0.0219849
0.0221402
0.0218163
0.107989
0.0220576
0.0221059
0.0220425
0.174817
0.0338822
0.0221912
0.0221751
0.0219462
0.0231749
3.71524
0.0233725
0.0236578
0.0219567
0.0221226
0.0219525
0.0495542
0.0233856
0.0230784
0.374669
0.0434507
0.0218142
0.0253359
0.0220506
0.0225376
0.0218365
4.36957
0.0219647
0.0220579
0.0218088
0.0299417
0.0236671
0.0234486
0.0219237
0.0217943
0.0558912
8.01547
0.0218267
0.0565668
0.023464
0.0233686
11.5177
0.0217635
0.0219879
0.0219559
0.0239737
0.0235611
0.0217969
0.0242632
0.0219118
0.0874818
0.0215408
0.0217235
0.0258176
0.0221419
0.0824701
0.0265042
15.82
0.0583355
0.0222118
0.0984161
4.07074
0.0229939
0.0247409
0.0220679
0.025287
0.0217852
0.0371288
0.0430229
0.0218923
0.0291158
0.0219724
4.23144
0.0223178
0.0244158
5.03679
0.0420079
0.024281
0.150664
0.0221556
0.0219954
4.46173
0.0217708
11.5606
0.0218532
0.0218736
0.068046
5.39053
0.0219217
0.0429843
10.7681
0.0218619
0.0221743
0.0219964
0.0281083
0.0257161
0.0229563
0.0220073
3.85694
0.0219683
0.0227443
0.0219466
0.021909
0.0220366
0.0235483
0.0286309
9.0467
0.0222313
7.82938
0.0219478
0.0230367
0.0245281
0.0228348
0.058298
0.0564655
0.0225648
0.0219357
0.0218319
0.083608
0.0217487
0.021837
0.456599
0.114306
0.0217631
0.0220051
0.0217927
0.0220883
0.0246325
0.0798879
0.0219692
0.0221268
0.0217507
0.0222894
0.0219682
0.0215106
0.027924
3.99521
0.021704
0.0224789
6.64096
0.0219162
0.0380601
0.022069
0.0298197
0.0496787
20.8431
0.0222612
0.022055
0.0217941
0.0222243
0.0220423
0.0214569
0.0221436
0.0221267
0.0234244
0.0526446
0.0252035
0.0237076
7.54611
0.0220291
0.142862
0.021745
0.0219847
0.0220167
4.77109
0.0218464
0.0512555
0.0231746
0.0226551
0.0219348
0.0217627
0.0219253
0.0225215
0.021858
0.0218224
0.0470942
0.243177