/*--------------------------------*- C++ -*----------------------------------*\
| =========                 |                                                 |
| \\      /  F ield         | OpenFOAM: The Open Source CFD Toolbox           |
|  \\    /   O peration     | Version:  v2012                                 |
|   \\  /    A nd           | Website:  www.openfoam.com                      |
|    \\/     M anipulation  |                                                 |
\*---------------------------------------------------------------------------*/
FoamFile
{
    version     2.0;
    format      ascii;
    class       volScalarField;
    location    "950";
    object      p;
}
// * * * * * * * * * * * * * * * * * * * * * * * * * * * * * * * * * * * * * //

dimensions      [0 2 -2 0 0 0 0];


internalField   nonuniform List<scalar> 
10042
(
0.0259618
0.0241119
-0.0191215
-0.00243715
-0.388684
0.0228142
-0.26052
-0.269347
-0.0130422
0.0155295
-0.405799
-0.002793
-0.00233379
-0.00278566
0.0599178
0.0213149
0.0214168
0.0158238
0.025809
0.236401
0.0117439
-0.188083
-0.00182697
-0.000242987
0.0240731
-0.0716723
0.0254977
0.0242342
-0.0034131
0.0167148
0.0275957
-0.457416
0.0154503
-0.00135473
-0.050999
0.000179221
-0.0682015
-0.0774942
0.000389024
0.00492198
0.258282
0.0515158
-0.25851
0.0283588
-0.393246
-0.117426
0.0450653
-0.113614
-0.0628512
-0.0693468
0.0143899
-0.0244645
0.0619093
-0.0312245
-0.0684677
0.0226217
-0.00433973
0.0445491
-0.00194596
0.0596562
0.0260861
0.0261696
-0.0521776
-0.0182258
0.0583823
-0.00469195
0.0507278
0.227286
-0.362446
0.0198461
-0.0304599
0.265208
0.029656
0.147195
0.0500506
-0.000484044
-0.387251
0.0261423
0.109397
-0.277617
-0.0602425
-0.38055
0.0122489
0.0495114
0.0510813
0.0187989
0.0248611
-0.203172
0.0367749
0.0243651
-0.0148291
-0.393254
0.0229429
-0.0237817
0.0180594
0.00316346
0.0215385
0.00935874
0.00498882
-0.00896885
0.0156081
-0.191133
-0.255252
0.0186307
0.0311022
-0.0567033
0.0292443
0.0214007
0.011782
-0.00779644
0.00378752
0.0152855
-0.0232754
-0.361358
0.0574821
0.0185203
0.0333899
0.0262803
0.00251054
-0.451558
0.0367357
-0.257405
0.0244617
0.0308713
-0.187752
0.0130465
-0.263943
-0.0649504
-0.0478548
0.0235818
0.1107
0.0438068
-0.427414
-0.230445
-0.00802644
-0.114429
-0.457607
-0.0150366
-0.119528
-0.214989
0.0373333
0.0338961
0.0368329
-0.229108
-0.020591
0.0155909
-0.13069
-0.0114272
0.00939756
0.00270582
-0.0152163
0.0149104
-0.309016
-0.449483
0.0243144
-0.00231281
0.0714522
0.0265364
-0.114503
-0.465554
-0.390238
-0.207833
0.0285448
-0.0147481
0.00810265
0.0431098
0.0243732
-0.453905
-0.45764
-0.445553
-0.029674
0.0129234
-0.386093
0.216881
0.0894899
-0.208447
-0.350646
0.0265609
0.23377
-0.0524319
0.0737226
-0.45837
0.0515141
-0.0625752
0.0518059
-0.453782
-0.250282
-0.00221392
-0.380744
-0.0376779
-0.0807108
0.0388618
-0.309215
-0.381531
-0.175692
-0.335636
-0.0537658
0.0282857
-0.00205591
-0.0124322
0.113455
-0.00341972
0.0136361
0.190123
0.0520047
-0.00199777
-0.134874
0.0244486
0.0164281
0.0227981
-0.329788
-0.00295638
0.0320728
-0.141018
0.0694042
-0.255883
0.0467244
0.0197117
-0.153771
0.00744242
-0.026616
0.0713502
-0.22648
-0.0796292
0.0732515
-0.0744175
-0.254522
0.0170438
-0.231357
-0.0314393
-0.0137843
0.0988213
0.0133887
-0.0308405
-0.0196487
-0.000469587
7.47829e-05
-0.00325163
-0.0380565
-0.0419919
0.0287264
0.0259448
0.00834509
-0.0228365
0.0180767
0.0272817
0.000298352
0.0302733
-0.0302173
0.0156917
-0.00198909
0.0192371
0.0241949
-0.244278
-0.209332
-0.379708
0.0958579
0.0749272
0.0600508
-0.126889
-0.215472
-0.0362595
0.029144
-0.00305466
-0.0101323
0.000329938
-0.189307
-0.0377518
0.0242239
0.0226488
0.122211
-0.0312065
-0.145627
0.080393
-0.230959
-0.038331
-0.0409955
0.0013004
-0.0510112
-0.0213033
-0.0560868
0.0318498
-0.0715545
-0.428842
-0.00159899
-0.0156468
-0.222901
-0.122522
-0.00209146
0.0266253
0.0236912
-0.198605
-0.137677
-0.235327
0.0144309
-0.00209537
0.0166951
-0.0131259
-0.252766
0.0274114
0.0259269
0.0136394
0.0469239
-0.0739991
0.0509076
-0.118989
-0.349836
0.0585574
-0.319107
0.0181771
-0.0493961
0.0256746
-0.447251
-0.192221
-0.355234
-0.344956
-0.00123012
-0.0382053
0.0193098
0.0396643
-0.0747003
0.0185962
-0.0452213
0.00340434
-0.00353409
0.0279642
-0.125911
0.0214701
-0.0354336
0.0429957
0.0488951
-0.357712
0.0185758
0.0244168
0.012191
-0.0176768
-0.0732087
-0.176917
0.0655016
-0.300609
-0.0760353
-0.0589932
0.0437553
-0.00300739
-0.0194656
0.0159819
-0.283771
0.0313704
-0.00392533
-0.0877286
0.0143281
0.0348627
0.0494183
-0.0911797
-0.0213671
0.0720845
-0.0454114
-0.0403412
-0.0149763
0.0296711
-0.308318
-0.136496
-0.0284106
-0.0728317
0.0181402
0.0132842
0.0177689
0.0374751
-0.341748
-0.0399766
0.0179191
0.0564696
0.0161549
0.0214396
0.218904
0.0286452
-0.007841
-0.4568
0.00999151
-0.259697
-0.286402
0.145228
-0.196729
-0.376271
0.00575466
0.118044
0.0247878
-0.0727241
0.0221884
0.0455837
-0.0953084
0.0191221
0.0418281
-0.16688
-0.00194934
0.012015
0.210236
-0.0502651
-0.0041071
-0.0109028
-0.456705
-0.19607
0.013021
0.234309
-0.365817
0.00692826
0.0179557
-0.00418691
0.0218666
-0.00345035
-0.00157134
-0.317712
-0.263192
0.0461185
-0.353643
-0.00257756
0.0273567
-0.31583
-0.0236949
-0.265176
-0.143233
0.0516276
-0.00880305
-0.0104556
-0.115418
-0.0306323
0.0100924
0.0244926
-0.403361
0.0673891
-0.368941
0.0570113
0.0148571
0.0180847
-0.297424
0.0155385
0.109441
0.0237545
-0.0205509
-0.463937
-0.054347
0.0334508
0.00308093
-0.459372
0.0227647
-0.0558567
-0.00580468
0.00100238
-0.345732
-0.20216
0.0115473
0.0554639
-0.0414191
-0.00187481
0.0210376
0.0320801
-0.457964
0.0306133
-0.00278528
0.0398119
-0.252201
-0.144153
0.0162825
-0.0529789
-0.361758
-0.0757952
0.035522
0.0293536
-0.233006
-0.0274428
0.0147862
0.1127
-0.0141978
-0.0012318
0.0732246
-0.00345725
0.0408937
0.0297263
0.0159086
-0.404577
0.00593634
-0.0284718
0.0184187
0.0234661
-0.0477013
0.0117263
-0.016743
-0.354334
0.0198481
-0.30965
-0.0351996
0.0157208
0.0154688
-0.206611
0.0332643
0.0336444
0.0127824
-0.029653
0.0644802
-0.274642
0.0234395
0.0485356
0.00688997
-0.0742679
0.0171273
0.0318281
-0.0240677
0.0190895
0.019657
-0.331681
-0.456948
0.0191368
-0.0645258
-0.0595009
-0.057807
0.0513142
0.0016327
-0.234989
-0.120891
-0.0214651
-0.00831959
-0.0250437
-0.0228026
0.0103105
-0.383241
-0.0655268
-0.0295335
-0.00320821
0.00497373
0.0494052
-0.242708
-0.0553459
0.025533
-0.45771
-0.0171715
-0.129247
-0.0649974
0.0210298
-0.00787477
-0.0620379
-0.123432
-0.343552
-0.451988
0.0740549
0.113126
0.0177768
-0.0348041
0.0543084
0.0179147
-0.394401
7.76498e-06
0.0185656
-0.107884
0.0192751
-0.165447
-0.0334607
-0.182434
-0.0087581
0.0229786
-0.0378295
-0.0531155
-0.0524563
-0.0674969
0.00900114
0.0224116
-0.0663046
-0.013254
0.00451166
0.0161856
-0.0194596
0.0287926
0.0750731
-0.143703
0.155553
0.0257638
0.0209065
0.0126317
0.0333145
0.137646
0.0121796
-0.00150243
-0.180486
-0.00313504
-0.123792
-0.0619571
0.0269935
-0.456317
-0.103098
0.0202551
-0.26201
-0.0213831
0.0166089
0.0446797
0.030474
0.0207685
-0.0362489
0.0504938
-0.0200359
0.034952
0.031303
-0.00729287
-0.0522418
-0.0852726
0.0312762
-0.0451057
-0.0071742
-0.074462
0.0437535
-0.00560009
-0.00842221
0.0787547
-0.00981007
0.01715
-0.336272
-0.00371785
0.141916
0.0321967
-0.033617
0.00524086
-0.0829274
0.01851
-0.106643
-0.00337582
-0.25592
0.0216616
-0.24638
-0.011455
0.0501005
0.0236744
0.0477339
0.0184134
-0.0347238
0.0285825
0.274907
-0.437274
-0.154993
-0.0448037
0.0614555
0.0120982
0.021183
-0.115876
0.0151287
0.106556
0.00917507
-0.342361
-0.057938
-0.390123
-0.0564733
0.0220336
0.0185681
-0.048161
-0.0375504
-0.0525884
-0.000975305
-0.0185665
-0.204689
0.0148535
0.0335224
-0.0466207
-0.34341
0.0480116
-0.0496108
-0.05841
0.0230708
-0.274425
-0.000682066
0.0125249
0.0149846
-0.0142759
-0.448468
-0.116599
-0.346114
0.0130446
-0.374903
-0.454341
-0.276229
-0.0536671
-0.127349
-0.2267
-0.0087935
0.0435106
0.0242792
0.114612
-0.43693
0.0103655
0.0412562
-0.330374
0.0298272
0.0161115
0.00512779
0.0307466
0.0187544
-0.0224461
-0.199026
-0.348527
-0.0215986
0.0194526
-0.425335
-0.30587
0.0127669
0.0348698
0.0144405
0.0225784
-0.325085
-0.1133
-0.116905
0.0334296
0.0162585
-0.0152836
0.0757791
0.0258621
-0.0792621
0.0546768
-0.360005
0.0218076
0.0156896
-0.0476358
0.0104441
-0.0609777
0.0871576
-0.036303
-0.450996
-0.342124
0.0236924
0.0193662
-0.317708
-0.415411
0.0147933
-0.0205644
-0.272252
0.145606
0.104632
0.0427095
0.0122781
0.0121531
-0.168315
-0.0435995
0.166656
0.0169619
-0.357053
-0.332231
0.0318417
0.0252404
0.269528
0.0243843
0.00486631
0.015602
-0.406927
-0.34025
-0.335708
-0.0276763
-0.128548
-0.00710568
0.000843842
0.00534359
0.0244379
-0.173474
0.0169637
0.0312179
-0.125941
0.0498839
-0.148557
0.0140025
0.0257043
0.00314061
0.0256071
-0.223273
0.0171117
0.0198508
-0.106251
0.0462623
0.0376617
0.0197588
-0.187229
-0.304495
-0.308885
0.0540512
-0.455599
-0.462946
0.0295052
-0.00207432
0.0380044
0.0747985
-0.331907
-0.00803911
0.0160377
0.017361
-0.307679
0.0215536
-0.0265875
0.0160215
0.035092
-0.0800431
0.00554382
0.00711449
-0.072238
0.0317512
0.0243494
-0.00997414
0.0372389
-0.0148842
0.0268269
0.0290521
0.0202365
-0.226676
0.0195522
0.0436479
0.0271161
-0.0515082
0.142761
0.0168101
0.0376687
-0.0280993
-0.337077
-0.00151058
-0.0143267
-0.0695239
-0.18677
0.206621
0.0551423
-0.397114
-0.226799
0.0621106
0.00270541
-0.276744
0.0272933
0.0183736
0.00328748
0.0181212
-0.12997
0.014748
0.0212457
0.0990824
-0.0071329
-0.00184949
0.0861304
0.0716409
-0.344691
-0.0377979
0.00736914
0.0216441
-0.110611
0.0145011
-0.330563
-0.0445284
-0.387204
0.017338
-0.0428316
0.0138353
0.0213487
0.0342598
-0.176168
0.138984
-0.060547
-0.387833
0.0166243
-0.336728
-0.0412608
-0.00432823
0.142357
-0.0745072
-0.34329
0.025663
0.0684069
0.0528283
-0.00388496
0.163539
0.0163
-0.00106508
0.0160005
-0.083872
0.0241284
0.015788
0.0041931
0.00405769
0.0175114
0.0200563
-0.00792128
0.0162499
0.0246879
0.0671391
0.0126908
0.0808693
0.0307449
-0.335903
0.0177481
-0.364225
0.105642
-0.346816
-0.0864291
-0.0417147
-0.45771
-0.087969
-0.109259
-0.310407
-0.0803138
0.0175086
0.0135899
0.014037
-0.232825
0.00613526
-0.428909
0.0155707
-0.418862
-0.239636
-0.0560706
-0.0324507
-0.456677
-0.354065
0.0814188
0.030928
0.0235475
-0.045068
-0.00127573
0.00191024
-0.105424
-0.0822866
0.0270867
0.00712267
0.0651636
-0.300379
-0.0648141
0.0230568
-0.0261678
-0.182164
0.0233808
0.0199308
-0.431939
0.0350198
0.0268017
-0.235315
0.0206695
0.0458463
-0.457221
-0.227117
-0.456651
0.0328059
0.0430039
-0.273853
0.00393379
-0.00265864
0.0209953
-0.050008
0.0255416
0.0139133
-0.0315638
0.202463
0.012608
0.00858873
0.0419713
0.0274597
-0.00233588
0.0364307
-0.000171863
-0.219093
0.0100277
0.0287703
0.0279704
0.00691644
0.0139898
-0.015393
-0.408391
-0.0686273
-0.0109756
0.0293269
0.147462
-0.32985
0.0282682
0.0139514
0.0288598
-0.0103273
-0.384994
-0.0635566
-0.000680212
0.013225
-0.0717684
-0.0542082
0.0254618
0.0219384
0.0218394
-0.0155243
-0.0539603
0.0379698
-0.242886
-0.0655328
0.026223
-0.0440058
-0.389964
0.0600592
-0.181708
-0.0153392
-0.274719
0.0177609
-0.0250407
-0.0502985
-0.108242
0.0324661
-0.018537
0.0200201
-0.03244
0.163262
-0.0855393
-0.110224
-0.0307981
0.0123794
0.0244511
0.0275138
0.029905
-0.257912
0.0201898
-0.00259357
0.0304863
-0.0577573
-0.33095
0.0119285
0.00944472
-0.169082
-0.0162191
0.0267582
0.0356504
-0.162739
-0.0261619
-0.0544286
-0.446686
0.024454
0.024658
-0.30111
0.0130413
0.0117954
0.00910675
-0.0178791
-0.0176959
0.0410072
0.0165349
-0.0257555
-0.0360303
-0.395982
0.0285282
0.015785
0.0346615
0.0708948
-0.230411
-0.384048
-0.0521214
0.0183094
-0.302163
-0.0193127
-0.341373
0.0243015
0.00717136
-0.00324838
-0.45864
0.0182975
0.0391492
0.0256027
-0.0824105
-0.299291
0.00129286
-0.116395
0.028584
0.0161514
-0.0889581
-0.0470995
0.0118118
-0.0392265
0.0280615
-0.312803
-0.431572
0.0239084
0.0753192
0.0202559
-0.122734
0.022567
-0.443894
0.0316093
-0.01379
-0.000975355
-0.0147229
-0.0410143
0.0150614
0.0278431
0.0504631
-0.276023
-0.166542
0.000350215
-0.0467351
-0.0435339
-0.00248186
-0.0154069
0.108502
-0.0109607
0.0443257
0.0817759
-0.0584485
0.0151319
0.0129682
0.0555127
-0.00907352
-0.219745
-0.0144618
-0.145655
0.0454942
0.0265245
-0.0192395
-0.0668328
-0.0402215
0.00711901
-0.0479962
-0.149268
0.0393738
0.0074903
-0.041805
0.014695
-0.455939
-0.0766665
-0.00311645
-0.438444
0.0762127
-0.081885
-0.187463
0.000441261
-0.0587898
-0.457418
-0.0520462
-0.167757
-0.0155207
-0.0248385
0.00822471
0.0447273
-0.0582335
0.000955355
0.156866
0.0169366
0.041964
-0.0882638
0.0296377
-0.110131
-0.0425872
0.00628386
0.014699
0.0996157
-0.0654851
-0.00443994
-0.0769798
-0.429324
0.183547
-0.0147725
-0.0532918
0.0145623
0.000339823
-0.367421
0.0130634
0.00692491
-0.125281
0.0235248
-0.0559539
-0.00459594
0.0214391
-0.258084
-0.00133655
-0.00135155
-0.0284198
0.0335274
-0.0110292
0.0149168
-0.377631
0.0433926
0.0158381
-0.00811882
-0.136621
0.0608935
-0.0105317
0.0359958
0.0209766
0.0278386
0.0333331
-0.00219507
0.0259597
0.00680862
-0.0711187
-0.0862441
-0.0430181
0.076549
-0.104018
-0.154879
0.106046
0.104815
0.0559832
-0.324872
0.0437146
0.00233911
0.0118531
0.0147744
0.0418578
0.00944306
-0.348678
-0.420894
-0.30256
0.0166199
-0.0303695
-0.0272989
-0.00680792
0.151928
-0.0312441
-0.314456
-0.104589
-0.414495
-0.155266
-0.186428
-0.332484
-0.0102694
-0.036274
-0.0161388
0.00399573
-0.338405
-0.0179342
0.093127
0.0103481
0.0191877
0.0248433
-0.384888
-0.339395
0.016237
-0.459128
-0.32268
-0.142446
-0.117555
-0.151056
-0.00105766
-0.415369
0.0261852
-0.311401
-0.420552
0.0165729
0.0290604
0.014887
0.0538998
-0.0484257
-0.0851223
-0.221716
0.0164526
0.0251346
-0.0375082
-0.0233954
0.0136253
0.0097952
0.0140779
0.0260036
-0.0799751
-0.151382
0.0244783
-0.301851
-0.0349784
0.0240038
0.0844263
-0.26647
0.0341028
0.00382031
-0.197904
-0.224504
-0.0120639
-0.0272592
-0.321485
-0.135697
-0.408951
0.00807455
-0.158754
-0.35805
-0.36675
0.02
0.0330885
-0.110087
0.0484068
-0.0513734
0.0363506
-0.396165
-0.124115
-0.239208
0.0237192
0.0136494
-0.458461
-0.0919043
0.022819
0.0242949
-0.441012
0.0331544
-0.00902214
-0.0185027
-0.0375338
0.0163605
0.0980962
0.0418229
-0.0428133
-0.00160845
-0.0791797
-0.436391
-0.105447
-0.0834932
-0.361466
-0.171631
-0.00314855
0.00094674
0.00104155
0.0147275
-0.218144
0.103024
-0.024049
0.0242715
0.0308989
3.59483e-05
0.062542
-0.00109736
0.0706646
-0.0444669
0.018489
-0.33912
-0.383885
0.0181372
-0.32762
0.0407212
-0.061102
0.023878
-0.00360591
-0.457604
-0.16696
0.0137403
0.00301396
0.0352098
-0.0505297
0.017529
-0.151645
-0.00366145
0.0264545
0.00196264
-0.312676
-0.436636
-0.00945836
0.0508705
-0.165958
-0.121266
0.0769861
-0.263024
-0.387177
-0.0177769
0.0156815
0.0471116
0.0464061
-0.331279
0.0254199
0.0169839
-0.234502
-0.190378
0.0244556
0.0347324
0.250373
0.0166266
0.0259004
-0.199389
-0.158452
-0.443528
0.0136182
-0.0661236
0.0926622
-0.114582
0.0764905
0.0186972
0.0230019
-0.00276515
0.0930702
0.0129648
0.0258594
-0.0118268
-0.43453
-0.00566826
0.0126733
-0.00638815
-0.0860317
0.0211898
0.0154726
-0.00348904
0.0229971
-0.326323
-0.36727
0.0470541
-0.298849
-0.373063
-0.425627
0.0264044
0.0426781
0.0124497
0.0279143
0.0255231
0.0232801
-0.000335874
0.0153255
0.00698605
0.0756264
-0.365069
0.00133883
-0.142275
-0.0676108
0.0196283
0.0486358
-0.0320034
0.0465483
0.0165353
-0.0350357
-0.0233593
-0.319351
-0.102375
-0.00919304
-0.360761
0.014151
-0.00578748
-0.000873471
-0.250453
-0.110246
0.0741458
-0.0199613
0.0275318
0.0205931
0.0862423
-0.0984226
-0.0492576
-0.306761
0.0206152
0.0125696
-0.317629
-0.024567
0.00931252
-0.205386
-0.0323787
-0.0601423
-0.243695
-0.157722
-0.459095
0.0082771
-0.016931
0.0152651
0.027996
0.0269915
-0.013443
-0.102734
-0.0601365
-0.45625
0.0176458
-0.322933
-0.330223
-0.0394005
-0.348564
0.0352928
-0.194098
-0.461053
0.0134069
-0.177602
-0.0118919
0.0595609
0.0167117
-0.224971
0.0204061
-0.291685
-0.0737911
-0.388786
0.0127573
-0.214188
-0.0145497
-0.0339938
-0.220726
0.0122879
-0.454234
-0.373057
-0.147341
-0.33469
-0.163047
-0.42672
-0.0804881
0.0279277
-0.0291716
-0.121125
-0.22051
0.0197288
0.0123567
-0.0193078
-0.110684
0.0438244
0.0406149
0.0272418
-0.458327
-0.308983
0.0332784
-0.340985
-0.0165668
0.00430689
-0.047452
0.0362214
-0.29089
-0.0323024
0.00258962
0.184015
0.0273564
0.0144127
0.0161393
-0.213683
-0.146147
-0.0114494
0.0506768
0.0267011
0.0167613
0.00735411
-0.448609
0.0228385
0.0075536
-0.214461
-0.230451
-0.0431773
-0.00250954
-0.331575
0.0600975
0.0448892
0.0221669
0.0651943
-0.032673
-0.0576726
0.000157123
-0.300648
-0.0466059
-0.140986
-0.00877531
-0.0500101
-0.0691612
-0.0572039
0.0422791
-0.345044
0.0147901
-0.163384
0.02309
0.0240807
-0.0480638
-0.217099
-0.0366546
-0.0515351
0.0184315
0.0366503
-0.144834
-0.113054
0.0195826
0.017568
0.0120951
0.108329
-0.102816
0.0220956
-0.10907
0.0198981
0.0258535
-0.390062
0.028592
-0.436805
0.0444828
0.100943
-0.121505
0.0257632
-0.0664403
-0.0897854
-0.197593
0.0171902
-0.097819
-0.0302223
0.0202646
0.0308662
-0.454904
-0.300091
0.0255298
0.035432
-0.0140405
0.0111006
-0.175809
-0.303585
0.0214669
0.0858846
0.00409712
0.00749027
0.0182485
-0.237891
0.000125553
0.0260487
0.0293395
0.00734382
0.0340592
0.0155545
0.0161135
-0.080554
-0.371619
-0.0116889
0.0250162
0.186675
-0.163133
0.00977569
-0.308393
-0.13317
0.00812825
-0.0111812
-0.0259186
-0.164639
-0.0024141
-0.107211
-0.0296507
-0.0371681
0.00825794
-0.119071
-0.00351478
0.0316136
0.0331009
0.0410516
-0.223584
-0.28421
-0.00455931
0.0208822
-0.453644
-0.207954
-0.152719
-0.0378729
-0.111619
-0.0113559
-0.387457
-0.0711285
-0.0176936
-0.332085
-0.219029
0.0390223
-0.103181
-0.133688
0.0023169
-0.35788
0.0389719
-0.0626726
-0.0505388
0.0328973
0.0134262
0.027003
0.0173543
0.010853
0.0164679
-0.274836
0.0121179
0.0108035
0.00148042
0.0185279
0.0121863
0.020011
-0.108042
0.205169
-0.0414888
0.0202548
-0.339423
0.026445
0.00748012
0.0251206
-0.0134422
0.0257091
0.0123219
-0.0688572
-0.157172
0.0243739
-0.0769738
0.102381
-0.00387849
0.0281384
-0.341361
-0.00987781
-0.00281673
0.0232661
0.216225
0.0200414
0.0159172
0.000786182
0.0250994
-0.299309
-0.460598
0.00926373
0.00932154
0.0194064
0.0755421
-0.00290926
0.00968175
0.0927108
-0.0553196
0.0373241
0.0629261
0.0257664
-0.204091
-0.155655
-0.0351209
-0.100536
-0.0152995
-0.382398
0.0240002
0.019086
-0.380097
0.0718318
-0.0124164
-0.141741
0.18463
-0.439671
0.064538
0.227313
-0.0557322
-0.0478279
-0.458776
0.0345382
-0.0960457
-0.0564215
-0.216331
-0.378657
0.0226128
0.035904
0.0241988
-0.199271
-0.0035544
-0.45506
-0.0877719
-0.449094
0.0586625
0.200254
-0.254042
0.0110813
0.0316917
0.200616
-0.0223472
0.0271933
-0.0374668
0.0384643
-0.164292
-0.17498
-0.157932
-0.454033
-0.190155
0.0151306
0.0156315
-0.332101
0.171038
0.00073029
0.00726443
-0.351113
-0.010529
-0.0433788
0.0211223
0.025303
0.0151695
0.0160784
0.180089
0.0443302
6.89797e-05
-0.413691
-0.438598
0.00449149
0.0626209
-0.0615419
-0.229201
0.00651487
-0.0236247
0.0141122
0.103365
-0.397246
0.0265727
0.10583
0.00016119
-0.263271
0.0157158
-0.0435334
-0.229837
-0.221373
0.0228497
0.0560056
-0.167992
-0.139723
0.0501436
0.0131168
-0.382226
0.0133078
-0.0556303
0.0423509
-0.0660721
-0.00876441
-0.0121694
-0.0116342
-0.160334
0.0135938
0.0133235
-0.00640659
-0.0232194
0.0176337
0.000535656
-0.186308
-0.336469
-0.311431
-0.0540314
0.0276944
0.121226
-0.0396378
-0.446086
0.0205191
0.117876
-0.00101213
0.0300479
-0.0286833
-0.0794271
-0.299645
0.0323376
-0.39518
-0.0219018
-0.00447699
-0.0169582
-0.324023
0.0405609
0.191384
-0.425307
0.0236355
0.0436294
-0.455356
0.0279973
-0.351329
0.0270291
-0.0801531
-0.360097
-0.0325292
0.0228548
0.009221
-0.452693
-0.0607526
0.0213754
0.111536
0.0234232
-0.0335352
-0.178195
-0.455794
-0.0556594
-0.365469
-0.341729
0.0222846
0.0254092
0.0360407
-0.260755
-0.0187592
0.0193597
0.0161098
-0.0521485
0.185716
0.0244915
0.0595896
0.0156539
0.0208817
-0.315468
0.0188123
-0.458485
-0.00819867
-0.051726
-0.0734955
0.00788878
-0.00470259
-0.379778
-0.411784
-0.151584
0.0226951
-0.0226428
-0.0626793
0.00684037
-0.0851412
-0.195088
-0.0998772
-0.00329682
-0.458572
-0.45381
-0.00179437
0.0154699
0.00115642
0.0157308
-0.0336632
-0.0495163
-0.42105
0.0150482
0.0322975
-0.0662155
-0.452979
-0.00847605
-0.324376
-0.0117026
-0.21454
-0.140582
-0.336772
-0.0711421
0.085736
0.0916442
-0.00958848
-0.00397786
-0.262481
-0.0140586
0.0229379
-0.336667
0.0154845
0.025286
-0.00197161
-0.126433
-0.0924636
-0.322321
0.176073
-0.0665831
-0.0249209
-0.0232587
-0.456394
-0.132313
-0.00529507
0.0287133
-0.00826266
-0.0971971
-0.375116
0.036219
-0.368277
0.0764997
0.00428209
-0.436148
0.024086
-0.376147
-0.356744
-0.000294324
-0.0388716
-0.105454
0.0266893
0.0530701
0.0093238
-0.419844
-0.0592509
-0.0115488
-0.458321
-0.347339
-0.0642702
-0.0504309
0.0208387
-0.217412
-0.453798
-0.0348206
-0.0436567
-0.434286
0.0910561
0.0469114
0.0147418
-0.209652
-0.458798
0.200785
0.0396486
-0.0612848
0.0147158
-0.356622
-0.159746
-0.0841708
-0.330795
-0.387954
-0.0100977
-0.229014
0.020872
-0.340773
0.096154
-0.0502399
-0.0495258
-0.335378
-0.00442943
-0.0836083
-0.458646
-0.354931
-0.000941567
0.0152591
0.00769572
-0.0353649
-0.345269
-0.24099
-0.380155
-0.0854543
-0.0867704
4.43543e-05
-0.383106
-0.159699
0.0154647
-0.0337346
-0.458279
-0.453175
-0.458625
-0.458255
-0.373406
-0.458698
0.0198415
0.0881056
-0.0707668
-0.020562
-0.4576
-0.328409
0.0150492
-0.316655
0.0211096
0.0300744
0.00654651
-0.0800421
0.0167257
-0.379229
0.214095
-0.140171
-0.0163769
-0.315117
0.0834336
-0.279983
-0.458705
-0.0324681
-0.0658981
-0.0138198
0.183981
-0.00735436
-0.0120141
0.0148301
-0.393414
0.00785106
-0.00467295
-0.0673591
-0.0398877
-0.456735
0.0135223
-0.431021
0.0321776
0.0143658
0.0200103
0.0257375
-0.0527024
-0.0204108
-0.442415
0.0658869
-0.0707376
-0.335457
0.00845553
-0.38946
0.00979841
-0.376449
-0.105271
-0.417376
-0.151159
0.0192724
0.0247456
-0.331229
-0.0241662
-0.0551627
0.020863
-0.0681054
-0.404845
0.00950693
0.0148973
0.0256951
0.0248454
-0.352453
-0.360569
0.00444935
-0.00421206
-0.376272
-0.373508
0.0172842
-0.206378
0.0241892
-0.38103
-0.393098
-0.105726
-0.203796
0.13402
0.133418
-0.4329
-0.0929492
0.0414851
-0.00609171
0.00755284
-0.379923
-0.361978
-0.0028723
0.0970679
-0.438284
0.0165852
-0.441595
-0.0189888
-0.0223763
-0.00737921
-0.335644
-0.102059
-0.00299487
-0.417261
0.0147392
-0.298739
-0.296027
-0.00270105
0.0265517
-0.200212
0.031641
-0.00335375
0.00937133
-0.296074
0.055958
0.0148789
0.018266
-0.238859
0.0391514
-0.0242365
0.0241399
-0.434571
0.0162397
-0.0927434
-0.003385
-0.436806
-0.310831
-0.0471069
-0.10775
-0.136189
0.0254585
-0.102122
-0.420907
-0.0065585
-0.169038
0.00667221
-0.313726
0.0231917
-0.40954
-0.216865
0.0645867
-0.414412
-0.422171
0.173152
-0.0313432
-0.353716
0.0119021
-0.450521
0.0676188
-0.342706
0.018023
0.0452045
-0.105618
0.0746916
0.0404418
0.044681
0.0160312
-0.456141
-0.168759
-0.412651
-0.334077
0.0958446
-0.00412303
0.00595952
-0.385126
0.0547016
-0.0057127
0.0178723
-0.361173
-0.326521
-0.377003
-0.410957
-0.0842179
0.0406127
0.00772289
-0.130427
-0.1266
-0.323752
0.0244194
0.0257908
-0.462794
-0.158221
0.01777
-0.115015
-0.33312
-0.195807
-0.0129505
0.0472388
-0.321563
-0.347898
-0.293139
-0.22767
0.0251043
0.0219096
-0.00373131
0.0173608
0.0409133
0.0254079
0.0337382
0.0597497
-0.0750783
-0.0583118
-0.000168961
0.0253388
0.0616173
-0.0313448
0.00812838
0.0521398
0.00751152
-0.0150143
0.0307967
0.00910285
0.0174228
0.0264837
-0.260008
-0.00793977
0.0539365
-0.314242
-0.319283
-0.438057
-0.375797
0.00282592
0.01465
0.0184977
-0.336455
-0.0196845
-0.00562953
0.0222545
-0.312997
0.0728763
-0.0859943
-0.277716
0.0436864
0.027615
-0.0298614
0.0168021
0.0350064
0.0242675
0.028594
0.00557753
0.0280595
0.00572497
0.0392569
-0.0498507
-0.313012
-0.0959159
-0.117032
-0.151937
-0.164403
-0.0981321
-0.162837
-0.019891
-0.409337
0.0988094
0.0641992
0.028932
-0.0334272
-0.133475
0.031212
-0.0695237
-0.457266
0.125542
0.247088
-0.195813
-0.00509065
-0.10659
-0.0476291
0.0320937
-0.0418987
0.0249792
-0.147925
-0.106073
-0.337745
0.00601891
-0.105891
0.101294
-0.348707
-0.227741
-0.12217
0.0233912
-0.129312
-0.00252147
-0.155956
0.0060507
-0.338289
-0.00274405
0.100759
0.0217793
-0.017321
-0.149956
-0.0324722
-0.327178
0.0273498
-0.0527675
-0.038168
0.0225221
-0.290313
-0.374301
-0.217328
-0.0737861
-0.119707
-0.0180747
-0.0109236
-0.328202
-0.186263
-0.0139865
-0.0311368
0.101888
0.0330215
-0.28662
0.0031544
-0.371211
-0.227294
-0.208849
-0.0404341
0.043843
-0.000914752
-0.0130545
-0.20305
0.121993
0.106067
-0.437569
0.0231996
0.0665805
0.0908947
-0.332212
-0.00966302
-0.221212
-0.00426396
-0.365175
0.0155149
0.0238653
0.157436
0.0133101
0.0371412
-0.221558
0.039014
0.0321136
-0.0097148
-0.0989453
-0.00769791
-0.328827
0.0304311
0.0360909
0.00920931
-0.20457
0.0103216
0.102206
-0.107756
-0.323833
-0.340023
-0.287743
0.0662618
-0.2939
-0.0919867
0.0441606
0.108687
0.0197872
0.0263385
-0.398633
0.0653545
-0.00291933
0.0229929
0.0150792
-0.0653016
-0.158445
0.0248865
0.125773
-0.201304
-0.211968
-0.109747
0.0205411
0.0146813
-0.316438
-0.042893
-0.0110922
-0.289329
-0.311872
-0.00169243
-0.00656053
0.0439451
0.0263628
0.170628
0.0146182
-0.111561
0.0245425
-0.327596
-0.00338378
-0.457014
-0.0370977
0.0253676
-0.0854679
-0.00738332
-0.0230842
0.0244472
-0.0769997
-0.308454
0.017692
-0.22265
0.018194
0.0153689
0.180761
-0.0159276
0.0168926
0.0158301
-0.00369668
0.021476
-0.00865246
0.0215501
-0.29162
0.0147003
-0.0106906
-0.0270992
-0.00528097
0.0274017
0.0230051
-0.00968764
-0.346142
0.191618
-0.00560109
-0.0351052
-0.0207836
0.0247259
-0.170154
0.0142687
0.0143148
-0.461343
0.0217179
-0.119004
-0.0776133
0.0289098
-0.019197
-0.22697
0.0253883
-0.241411
0.210233
-0.0197627
-0.315719
-0.336426
0.116909
0.0281453
0.00925808
0.0245827
0.0533019
-0.219449
-0.00830345
0.00976027
-0.0126693
-0.0915989
0.0225407
-0.0118727
0.0203047
-0.117433
-0.283146
0.00561623
-0.160789
0.0130604
-0.0394802
-0.000575547
-0.00370099
0.000180459
0.0299582
0.0119434
-0.00313984
0.0213485
0.0333416
-0.0794785
-0.021455
-0.360658
-0.00331234
0.00740248
-0.169348
0.0200358
-0.198387
-0.092296
-0.0367298
-0.0223014
0.00986986
-0.0214441
-0.0502273
0.0415938
0.144977
-0.056964
0.0321872
-0.00432314
0.0507872
-0.327459
-0.0287481
0.0146955
-0.292479
-0.0924203
-0.0217321
-0.00220292
-0.368491
0.0148827
-0.0402421
0.0559934
-0.164256
-0.0143978
-0.00474695
0.087723
0.0315541
0.0153524
-0.00733242
0.0151403
-0.140699
0.0225251
0.0222165
0.0121863
-0.0316288
-0.294605
0.00984661
-0.45509
0.249131
-0.00623261
-0.335489
-0.21526
-0.0190983
-0.0368284
-0.0868242
0.00901971
0.0323741
-0.324732
0.0130232
-0.352222
0.103619
-0.00586106
0.0689074
-0.0299944
0.0220331
-0.0181958
0.20589
0.0672084
0.0149969
0.0238024
-0.026355
-0.455958
-0.0293146
0.00787483
0.116625
-0.210135
0.17136
0.01826
-0.00967859
0.0430747
-0.0211756
0.0700248
0.0653293
-0.0640436
-0.266129
-0.0176533
-0.0334568
-0.235415
0.0061623
-0.0589713
-0.231797
0.0209899
0.0205023
-0.0931307
-0.161669
-0.0546309
-0.459267
-0.339512
-0.214488
-0.292033
-0.0167004
-0.0395014
0.00269981
0.0231239
-0.291516
0.049008
-0.136111
-0.0637813
-0.0476699
0.0644022
-0.307996
0.0239144
0.0200384
-0.0107707
0.025424
0.0283631
-0.0123102
-0.0239098
-0.148371
0.0318005
0.0447282
0.00470971
0.103719
0.0149004
-0.33784
0.0323806
-0.0354987
0.0080314
0.0247165
0.00413359
0.00612785
-0.0575091
0.0709247
0.0276384
-0.0177815
-0.00492841
0.0197967
0.0221831
0.118486
-0.0246193
0.0280026
0.0274021
0.0268368
-0.0689251
0.02863
0.0293154
-0.154207
0.0263051
0.0200901
-0.0447784
-0.285725
-0.131149
-0.0302017
-0.0848861
-0.378095
-0.157053
-0.216002
0.0360987
-0.0038834
-0.0620819
-0.0878709
-0.010126
-0.14884
-0.0286735
0.0106441
-0.0249148
0.0212593
-0.163466
-0.170596
-0.155712
0.00143952
0.00859085
-0.0375958
0.0413334
0.0765501
-0.0217216
-0.0367536
0.0865945
0.155367
-0.0976349
0.0157974
-0.0371999
-0.33256
0.0716249
0.0200435
-0.458895
-0.314498
0.0109881
-0.0270081
-0.0362389
-0.170086
-0.454364
0.0285282
-0.268318
-0.3055
0.167549
-0.147332
-0.0158882
-0.035688
-0.0327786
-0.153383
0.024709
0.122886
-0.04179
-0.217864
0.0249952
0.0274294
-0.321901
-0.0424082
0.0735686
-0.00565595
0.0249435
-0.060065
-0.388804
-0.00252871
0.028461
-0.291651
-0.0679374
-0.024337
0.0276455
0.0151297
-0.00169999
-0.0166837
-0.173667
0.0222499
-0.0171022
0.0602672
-0.106704
0.0371918
0.00212704
0.0140333
-0.0072086
0.00733447
-0.108217
-0.0210904
-0.0333024
0.000550064
0.0181831
-0.438638
-0.0691128
-0.0251456
-0.433834
-0.0311481
0.0337704
-0.366398
-0.101549
-0.404201
0.0233511
-0.0383798
0.0215812
-0.0290015
-0.00707141
-0.439462
-0.0304747
-0.15445
-0.0125353
-0.0246958
-0.0370591
-0.00742523
0.128472
-0.357233
-0.311286
0.0234417
0.00387726
-0.258897
0.0694963
-0.0105181
0.0418003
-0.0637284
-0.293453
-0.157749
-0.0143208
-0.295537
-0.0760843
0.0328315
-0.0114323
-0.0205496
0.0835695
-0.417908
0.0232254
-0.0593469
-0.0347615
0.0258085
-0.0107141
-0.0270981
-0.456167
0.097891
-0.00636999
0.0295975
0.0268002
0.099507
-0.00716215
-0.036501
-0.00112579
-0.036802
-0.298322
0.0221608
0.0237747
-0.15475
-0.0076889
-0.0101443
-0.316346
0.0185445
-0.439665
-0.457602
-0.45574
0.0298973
0.039046
-0.00524199
0.0148361
-0.00580486
0.0120869
-0.15009
-0.113447
-0.291976
-0.177359
0.00379705
-0.0112155
-0.0373538
-0.000856325
0.0248915
0.0342727
-0.00979825
-0.00629813
-0.020654
-0.439216
0.0213721
0.00812483
0.0183998
-0.0138642
-0.33002
-0.0102159
0.122443
-0.00562528
-0.119378
-0.0386778
0.0246269
-0.0828883
-0.00407748
-0.0404077
-0.441611
0.0279974
0.0315986
0.0314214
-0.324344
-0.458357
-0.0146671
-0.00444395
-0.0401682
0.0376308
-0.0152192
0.00984071
0.0141268
0.0266362
0.014098
0.010347
-0.0369261
-0.37679
0.152307
0.028362
0.0322512
-0.0255051
-0.0178955
0.0254603
0.0439036
0.113946
-0.454891
-0.0521634
0.0297945
-0.0293654
0.0248172
-0.165657
-0.00710781
0.0197677
0.0690972
-0.0360064
0.0931449
-0.390796
0.00648252
-0.0547802
0.0161913
0.00278823
0.0265798
-0.013537
-0.0379068
-0.167648
-0.0814202
-0.0056721
-0.0960903
-0.16487