/*--------------------------------*- C++ -*----------------------------------*\
| =========                 |                                                 |
| \\      /  F ield         | OpenFOAM: The Open Source CFD Toolbox           |
|  \\    /   O peration     | Version:  v2012                                 |
|   \\  /    A nd           | Website:  www.openfoam.com                      |
|    \\/     M anipulation  |                                                 |
\*---------------------------------------------------------------------------*/
FoamFile
{
    version     2.0;
    format      ascii;
    class       surfaceScalarField;
    location    "250";
    object      meshPhiCN_0;
}
// * * * * * * * * * * * * * * * * * * * * * * * * * * * * * * * * * * * * * //

dimensions      [0 3 -1 0 0 0 0];
oriented        oriented;


internalField   nonuniform List<scalar> 
14516
(
0.00348765
0.0103908
-0.0141483
5.77805e-06
0.000192048
-0.000209648
-0.0118053
0.0149969
-0.00244802
0.00287418
-0.000408079
-0.0201336
0.0139688
0.00611704
0.0152441
-0.0018947
-0.0133711
-0.000398031
9.85111e-08
7.4701e-05
0.00175596
-0.00117229
-0.000229422
-0.00835048
-0.000796894
0.00961713
-0.00833108
-0.0118916
-0.0125399
0.0155638
-0.00306333
-0.0128363
0.000943622
0.0119231
-0.0023343
0.00044242
0.00013309
0.00209483
-0.00213065
-0.000680143
-0.000474467
0.00192448
4.08819e-05
-0.00190694
0.00684704
-0.00220421
-0.00427422
0.00235133
0.00446018
-0.017603
0.00176987
0.0158212
0.00215605
0.00124808
0.0147109
-0.0158709
-0.00181838
0.0157125
-0.0133743
-0.00405807
0.00138423
0.00267689
-3.65129e-07
3.65129e-07
-0.00813804
0.00111001
0.00712195
-0.0013276
-0.000356927
-0.00177969
-1.51169e-05
0.00182912
0.000120549
0.00382775
-0.0036029
0.0192455
-0.0064322
-0.0129508
-0.00832904
0.000672615
-0.0135094
0.0159279
-0.00257809
-0.000792847
-0.00328712
-0.0054264
0.00112899
0.00411322
-1.62884e-06
2.00613e-05
3.64036e-05
-0.00715564
0.0220875
-0.0149672
-0.0168959
0.00189857
0.0149937
-6.65296e-06
-0.000335926
0.0136308
-0.0149174
-0.00366542
0.00245221
0.000923016
0.000240806
-0.00125841
0.00140865
-0.0173785
0.00380687
-0.0023126
0.000484388
-0.000491763
0.00111234
-0.000193949
2.18669e-05
-0.000364629
0.000301708
0.000114907
8.86841e-05
0.000391031
0.0120915
-0.00017093
0.0017968
-0.00159576
0.00181836
0.0121149
-0.013629
0.000510932
0.00215138
0.0101693
0.0118649
-0.000242089
0.012801
-0.012511
-0.015421
0.00367008
0.0119419
0.0148575
-0.0152497
0.000601435
-0.00179663
0.0113338
-0.00947117
-0.0151072
0.0154715
-0.000457568
0.004062
-0.00423627
0.0123612
-0.00313636
-0.00923887
-0.0112322
-0.000393482
0.0113251
-0.00240876
-0.00103797
-1.39801e-05
-0.000185097
0.000339632
-0.0162027
0.00253947
0.0139025
-0.0120598
0.0138094
-0.00171515
0.000623266
-0.00190901
0.00100625
-0.01155
-0.00610213
0.000636276
0.00496866
-0.00557245
-0.0151493
0.00301553
0.0130093
-0.0144056
0.00149268
-0.00174716
-0.0110649
0.00100876
-0.0134824
0.0111941
-0.0129043
-6.00982e-05
-5.02875e-13
6.91935e-05
-0.00759978
0.00157804
0.00720806
0.00056549
-0.000468124
-7.45522e-05
-0.00464935
0.0147146
0.000245996
-0.0117774
0.000712553
0.00595769
-0.00624979
-6.61057e-05
4.78327e-09
4.78183e-05
0.00419996
-0.000948095
-0.00293092
0.0057697
-0.00163986
-0.00379241
0.00407886
-0.00343736
0.00420802
-0.000937968
-0.00316458
-0.000184534
-1.23551e-06
0.000180497
2.964e-05
0.00234917
-0.00235761
-0.0159815
-0.00133093
-0.000146845
0.00185469
-0.00172469
0.00423023
0.00195555
-1.59891e-05
0.00719483
-0.00673892
0.0144567
-0.0150876
0.000651284
-0.00403465
0.000916117
0.00309074
0.000350487
-0.000355102
0.00155721
0.0132118
-0.0147269
-0.00267956
0.00216095
0.000552204
-0.00399526
0.00319251
-0.0014917
0.00255218
-0.00250174
-0.0153579
0.000329958
-0.000187952
-1.31066e-05
-0.00078249
-0.00191531
-0.000283053
0.00129963
-0.000986494
0.00103298
-0.00129199
-0.00506991
0.000913708
0.00423098
-0.00342387
0.000705444
0.00268492
-0.00267766
-0.000741443
-9.8227e-05
-3.80063e-06
-0.0169
0.00113764
-0.0172195
0.00241573
9.12725e-05
-2.56321e-06
-8.65969e-05
-0.0128764
-0.00258263
0.000313359
0.00144978
-0.00168112
-2.40747e-07
-4.82878e-05
-0.000526968
-0.0134112
0.0141821
-0.00831902
0.00577881
0.00367311
-0.0179521
0.0141431
-0.0122405
0.012045
0.00511977
-0.000772067
0.0046326
-0.00403812
0.00999501
-0.0147586
0.000761144
0.003515
-0.00347186
-0.000650293
-0.00124788
0.00163684
3.42178e-05
-7.68455e-06
-8.49765e-06
-0.0114004
0.0115717
-0.000359068
0.000533786
0.0147496
0.000705695
0.0130042
-0.0135146
0.0149126
-0.0135755
0.0111833
-0.00264036
-0.00861699
-0.00211153
0.00194607
0.000714297
0.00373105
0.00897632
-0.00213959
-0.00609516
-7.84074e-06
-5.48294e-05
7.29909e-05
0.00635867
0.00464673
0.00502397
0.000568507
0.00496442
-0.00523667
-0.00629521
-0.00165899
-0.000307375
0.00768654
-0.0070382
0.00109199
-0.000391525
-0.000268
0.000269945
-0.000957677
-0.00826693
-0.000736991
0.000778073
1.24735e-05
-7.00853e-05
-0.0113016
-0.00802335
0.000795744
0.00745183
4.91338e-05
-0.000708024
0.000648782
0.0002984
-0.00128316
0.00112328
0.00229438
-8.92712e-05
-0.000176384
-0.00227036
0.00249579
-4.77288e-06
-9.24612e-05
7.55961e-05
-0.00115635
0.00160649
-0.00347751
0.0009908
0.00245482
-0.011894
0.0134935
-0.0115721
-0.0026541
0.0141504
5.7214e-05
-5.38731e-05
-0.0151313
0.0034348
0.00611319
-0.0145417
-0.000932527
-0.00256952
2.74454e-05
1.96751e-05
6.14575e-05
-0.000599183
0.000564033
-0.00107472
-0.00672377
0.00030072
-0.00138226
-0.0011742
0.0012283
0.00178976
0.000344767
-0.00321655
0.00364604
-0.000119832
-0.00155122
0.00175366
0.00332614
-0.020038
0.016859
0.000354712
-0.000126202
-0.000263405
0.0174218
-0.0028557
0.00170941
0.0202077
-0.0185049
-0.00161099
-0.001852
0.000124656
-0.000704145
0.00466686
-0.00370087
0.0101602
-0.00322538
-0.00735888
-0.00254329
0.00493602
-0.0024684
0.000221097
7.95403e-05
0.00209687
-0.00482359
0.00144156
0.0116849
-0.0128144
-0.0141559
0.00721939
2.12986e-05
-2.78463e-05
-3.83581e-06
-0.00158792
0.00792022
-0.00586064
-0.0204601
0.00951619
0.0110624
-0.0111454
0.00842967
0.00274093
0.012225
-0.0111405
-0.000858405
0.00140715
-0.0071177
-0.0109301
-0.000229114
0.0108518
-0.00657469
-4.16036e-06
0.00272934
0.00956485
0.00558106
-0.00670493
0.000274545
-0.0111983
0.0106997
0.00164031
-0.00167986
0.0133929
-0.0116446
-0.00710102
0.00012283
0.00748599
-0.0120871
0.01423
0.0134197
-0.013719
-0.0019716
-0.00486916
-0.0153807
0.020381
-0.00512382
-0.0152681
0.000367618
0.00350378
-0.00373695
0.0156191
-0.00962109
-4.96831e-05
-0.000660142
-0.00719116
0.00121111
0.00614604
0.01138
-0.0175043
2.60482e-05
0.015249
0.00649989
-0.00464248
-0.00127182
0.000534252
0.00730416
-0.000105536
-2.09834e-06
0.00066729
-6.58709e-05
-0.00168537
0.00188982
-0.0148844
-0.00162557
0.0155454
0.000371431
-0.0153255
-0.000918701
-0.014204
0.0150971
0.000862846
-0.0125481
-0.00137679
0.0136869
0.0114031
0.00392891
0.0091066
0.0112683
-0.000575157
0.000664413
0.000551291
0.0038877
-0.00404669
0.000643172
-0.0118077
-0.00011459
6.34087e-06
-0.01364
0.0128363
0.000728182
0.000956194
-0.015133
0.0138205
0.00319303
0.00586982
-0.00861287
0.0125611
-2.14427e-05
-0.00644328
8.97647e-05
0.00226842
-0.0138258
0.0135604
-0.0154821
0.00323127
-0.00239614
-0.000791707
-0.0125793
0.0132191
-0.00132462
0.012706
-0.0113173
3.254e-06
8.71268e-06
-2.20219e-06
-8.89353e-06
0.00316276
0.009394
-0.000328671
0.000632213
-0.000293167
0.0126582
-0.0023928
-0.0102412
-0.0124842
-0.00116835
0.00796559
-0.00815465
-7.82376e-05
-0.00935208
0.00884368
0.000207947
-0.000476107
-0.0148261
-0.00102069
-0.00331267
0.00431033
-0.0155515
0.00114959
-0.000128878
0.00220523
-0.00198298
-4.66764e-05
-0.0065252
0.00632771
-0.00497068
-0.000411039
0.0087929
1.77942e-05
-0.0087174
0.00305169
-0.0021042
-1.21311e-07
-0.000777648
-0.00827759
0.00739369
0.00225741
4.61329e-05
1.24869e-05
-0.00156013
-0.00954213
0.0113125
0.0192039
-0.00219742
-0.0168654
0.00106496
-0.0132452
-0.00177826
0.0113154
-0.00951464
0.00678406
-0.00781349
0.000664456
0.000725718
-0.0161146
0.015818
0.0109237
-0.0092286
-0.00181831
0.00538008
0.0139611
0.000897079
0.0124933
-0.0134391
0.000288265
0.00167609
-0.00178275
-0.00141159
-0.000487569
0.00193324
-0.000387003
0.012721
-0.0115936
-0.000250412
0.000335314
1.4788e-05
0.00457792
0.0157209
-5.94297e-05
7.56742e-05
-9.15476e-06
5.83282e-06
-4.16235e-05
0.0133993
-0.0143415
-0.0057945
0.0171956
0.0143263
0.00314078
-0.017672
0.00157249
-0.00114137
0.000184482
0.00135532
-0.00156854
0.0230097
-0.00632967
-0.0167233
0.00101403
0.00658333
-0.00708626
-0.000224831
-0.000160745
0.000405089
8.73716e-05
-0.000297162
0.00515834
-0.00062744
0.0142961
0.000256183
-0.00406035
0.0047384
0.00942249
-0.000660958
-0.00749912
6.46402e-06
-1.40078e-05
2.42257e-05
-0.000640056
0.000977861
-0.000554621
0.00129975
-0.000698699
-0.00412149
0.0076781
0.0106506
-0.0120014
0.0242404
-0.0102128
-0.0139287
3.36429e-05
0.000963861
-0.00120372
-0.0072158
0.00791568
0.00631081
0.00340646
-0.00433162
-0.0021467
0.0158285
-0.0141253
-0.000312775
3.13546e-05
-3.2244e-05
1.14429e-06
-0.00467254
0.00551517
-0.000953618
0.0147038
-0.0134358
0.0114385
0.0129931
-0.00511859
0.00635106
-0.000202583
0.0110951
0.00553569
-0.0169228
0.00228248
0.00307558
0.00377756
-0.00659089
-0.00447397
-0.000326738
0.00505158
0.000117268
-2.90503e-06
0.000509662
5.10658e-07
-0.000635815
-0.000474067
-0.000924023
0.00154727
0.00744761
0.0155731
0.0104021
0.00582732
-0.0161109
0.00729902
-0.00714004
-0.000111051
-0.00246067
0.00571573
0.000110613
-0.00438986
0.00545517
0.00100894
-0.00133517
-0.00522005
0.0157399
-0.0138791
0.000673898
0.0135428
0.0132383
-0.0104438
-0.00251318
-0.00347367
-0.000602953
-0.00201396
-0.00664862
0.00623477
0.00063656
0.0210271
-0.0179259
-0.00305088
0.0176432
-0.0016381
-0.00574776
0.00560415
0.000449528
0.000407383
0.0212632
-0.00952139
-0.0117195
1.30081e-05
-0.000468393
-6.18953e-05
-3.97587e-05
-0.0043736
-0.00677229
-0.00150498
0.0156092
-0.0137243
0.0109181
-0.0116048
-0.00328344
0.0130779
0.00137209
-0.00155398
0.00020651
-0.0114182
0.0101859
-0.0161118
-0.0042988
-0.000487926
-0.0137998
-0.00123853
-0.00211558
-0.00757853
0.00964567
-0.000470631
0.000772193
0.000148395
-0.000166332
0.000465457
-0.00507854
-0.00223119
0.000242321
0.000239385
-0.000445774
0.00459224
-0.000443992
0.0182604
-0.011288
-0.00709614
-0.00245158
0.00878082
-0.0052496
-0.000335945
-0.00661618
0.0035971
-0.00463934
0.0017783
-0.00168189
2.22592e-05
-0.0134843
0.0161388
-0.00211476
-5.25192e-05
0.0131362
0.0137893
-0.000454705
-0.0131587
-0.00899246
0.0115195
-0.00240115
-0.0135874
0.0137549
0.000129225
0.00455184
0.00576865
-0.00115617
-0.00436542
-0.0033021
-0.0116377
0.0172897
-0.018131
0.000947309
8.46042e-06
0.017651
-0.0076783
-0.0101635
-0.00134622
0.0125722
0.0116304
-0.00894267
0.0081915
0.00926019
-0.0154465
0.00246605
0.00422786
-0.00574202
0.00154878
-0.00626284
0.0153642
-0.000380666
0.000485466
0.000551556
-0.00194768
-0.00399151
0.00056808
-0.000532137
0.000210368
0.000342986
-0.00455158
-0.014292
0.000942053
0.00998767
0.0113081
-0.0107109
0.00190061
0.0032409
0.00939705
-0.0108801
0.0127507
-0.000434275
0.00914931
-0.00841591
0.00450154
0.000258177
-0.00384965
0.00436014
0.0147424
-0.00192829
-0.0127721
-0.000290769
-0.0138175
0.0149364
0.0137719
-0.00236261
-0.0108055
-0.000588756
-0.0108612
0.00064564
-0.00422266
-0.0017853
0.0164359
-0.014168
0.000167544
0.000103688
-0.000219645
-0.000766717
-7.2975e-05
0.00179584
0.0108534
0.00187586
-0.01518
0.00237426
0.00332229
-0.00776397
0.0128193
-0.00459859
-0.000779169
-0.0111638
-7.89436e-05
-0.0022516
0.00230538
-0.0158023
-0.0122445
0.0109928
0.000264052
-0.000210575
-1.96191e-05
2.9665e-05
0.000746301
-0.00074618
-0.00659238
0.00143678
0.0133278
-0.0139353
0.000646826
0.00218387
-0.00228756
-0.00212197
0.00208404
0.00122935
-0.00857835
0.00750168
0.00844003
0.00689006
-0.0153115
-0.00139602
0.00155345
0.0163961
-0.0128342
0.00837021
5.26026e-05
0.0160498
0.000157408
-0.00158829
-0.0147473
-0.000762069
0.015384
0.00452532
-0.00625932
0.003993
0.0108663
0.0145263
0.00174045
0.00293175
-0.00155558
-0.000409857
-0.0044633
0.00491182
0.0131329
0.00549568
-0.00587127
-0.000708361
-0.00329176
-0.00282153
0.00230572
-0.00243208
0.0141655
-0.0164748
0.00229298
-0.0034519
0.00458059
0.00442321
0.00911095
0.0106397
0.0116477
-0.0100101
-0.00090792
0.0122341
-0.0113731
0.013581
-0.00164805
0.00013852
-0.00413865
0.0137107
0.00106585
-0.00222817
0.00106639
0.0152329
-0.0104496
0.00167185
0.000154925
-0.00178116
0.00168085
-0.00345928
0.00173202
9.99544e-05
-0.00170524
0.00340783
0.00343185
-0.00388132
-0.000716288
0.0123059
-0.0113951
1.08211e-05
-1.06888e-06
0.000538091
-1.43964e-05
-7.49376e-05
-6.67716e-05
0.00408188
-0.0113679
0.0111326
-0.0111845
-0.00296245
0.00346004
-0.0131699
0.0118511
-0.00014826
0.00621125
0.00417326
0.0143052
0.0193693
-0.0108656
0.0111266
0.00475977
-0.014034
0.00146874
0.0126095
0.0127028
-0.0114461
0.0174941
-0.00850398
0.00431167
0.00389249
-0.0103146
0.0181102
-0.0077109
0.0123845
-0.0164559
0.000599733
-0.0155412
-3.96644e-07
0.003358
-0.00394894
0.000547996
-0.00347399
0.00463477
-0.0059568
0.00517048
0.000545758
0.0131075
-0.00987741
0.0120953
-0.000657258
-0.0028414
0.00377552
-0.0117078
0.0117455
0.00351821
-0.00285025
-0.000106665
-9.23978e-06
-3.23157e-05
-0.0140188
0.0137261
0.0165494
-0.012397
0.0113249
-0.0109125
0.0025415
0.000887008
0.0226757
-0.0152608
6.07689e-07
-3.3271e-05
0.000139281
-5.62778e-05
2.39325e-05
-0.000180929
0.000213634
-0.00367578
-0.0178362
0.00770918
0.00438013
-0.000593472
-0.00560999
-0.000153883
-0.00160108
0.00172918
-0.00106288
-0.000785688
-0.00122305
0.0114197
-0.0101295
-0.00185523
0.000672909
-0.000375407
0.00020944
-0.00409697
-0.00499666
0.00456689
-0.00464854
-0.0128495
-0.00134093
0.0127108
0.0111737
0.00246584
0.0121882
-0.000230924
0.000493221
4.86146e-05
-0.000205243
0.0147544
0.00224289
0.011061
0.00767022
0.00775405
0.000873906
-0.000581273
-0.000757835
0.000114123
0.000872718
0.000156003
0.00405291
-0.000467772
0.00739649
0.00712268
-0.00053339
-9.24612e-05
0.0010538
0.0115981
-0.000548142
0.000112251
0.000460075
0.0106038
-0.0220964
0.0116605
0.0105279
0.000563049
-0.00215926
0.00163089
0.0150699
-0.017671
0.00348397
-0.00411365
-0.0138322
0.000659902
0.00673571
-2.35798e-05
-0.0125208
0.0126515
-0.000213181
-0.00774135
0.00745792
0.0114513
0.00133382
-0.0110164
-0.000198905
0.0156926
-0.0131642
-0.00258032
0.00483204
-0.00422864
0.0146704
-0.00143467
0.00202764
-0.011129
-0.0138403
0.00101705
-0.000909243
-0.000153397
0.00119553
-0.00571338
-0.00016717
0.00614431
0.00927387
-0.00856983
-0.00515234
0.00215329
0.0030469
-0.00106272
0.000230377
-0.00857534
0.00256917
0.00644477
-0.00111566
-0.00416808
-4.54183e-05
0.0089353
-0.00916807
-0.0129091
0.00260453
-0.00538603
7.06768e-07
-0.00620303
0.00595053
0.000451555
0.0105965
-0.0105383
0.000492358
2.88085e-06
2.71595e-05
-0.00479323
-0.00303597
0.0131939
0.00114509
-0.0142878
0.00970487
0.00185094
-0.00012359
0.00144171
-0.00470023
0.00491386
-0.000119117
-0.00066399
0.0140274
-0.0147238
0.0150182
0.000469739
0.00025249
0.00164965
-0.00193458
-0.00290639
0.0201204
5.85469e-05
0.0079575
0.0106734
0.00737635
0.010439
-0.00955592
-1.44519e-05
3.54404e-05
-0.0181477
0.00844421
-0.0185317
0.010739
0.000817672
-0.0114047
-0.000889962
0.000260888
0.00266782
-0.00464621
-0.0005475
5.0123e-05
0.000474133
0.00596234
-0.00165582
-0.00147785
0.0124052
-0.000339422
0.00454909
-0.00220407
-0.0128283
0.0150959
0.00671421
0.00893353
-0.0120926
0.0121752
0.0160462
-0.0156526
-0.00150539
0.000248984
0.0127386
-0.0114784
-0.00127501
-0.00496609
0.000416376
0.00214922
-0.000103465
-0.0019521
0.0123866
-0.0110354
-0.00122285
-0.0108354
-0.000901919
0.0118811
-0.000231027
0.00183281
-0.0015338
0.00149801
-0.00176148
0.000303618
0.000250171
-0.00104009
0.000761813
-0.000622234
0.0104838
-0.00188281
-0.00863867
0.000193281
-0.00189612
0.00172845
-0.000479857
0.000567664
1.8128e-05
0.0112064
-0.0107775
-0.000223709
0.0105334
0.00773715
-0.0177888
0.0118787
0.00734445
-0.00488672
0.00924056
-0.00012096
-0.00851475
-0.0129605
-0.000828203
-0.0126608
0.000721681
-0.0134319
0.0151828
-0.00136646
0.000859444
0.000440325
0.00394689
-0.000586043
-0.0179253
0.0110056
0.00699625
-0.00102751
0.000324533
-0.000327591
0.0128626
0.0098551
-0.00792358
0.00929205
-0.0117476
0.0128436
0.0018427
-0.0144277
0.00903377
-0.00918022
-0.00894643
0.0174629
0.012461
-0.00900582
0.0172924
-0.00636165
0.00101629
-0.00116519
0.000111889
0.0043239
-0.0137236
-0.00137947
0.0209956
-0.0154893
-0.0131958
-0.00032457
0.00977557
0.00677899
-0.00770812
0.00105589
0.00660583
0.000913883
-0.00857206
0.00805533
0.0162862
-0.00211211
-0.0121821
0.0144621
-0.00224352
0.000141265
-0.000399337
-7.96279e-05
0.0098416
8.33201e-06
0.00198554
-0.00161411
0.00463654
0.000421318
-0.00525988
-0.000590267
0.00486772
-0.00763478
0.00162086
0.00113908
-0.00270522
1.30891e-05
-1.30891e-05
-0.000493008
0.00301122
-0.00139234
0.000673917
0.00146722
-0.00220403
-0.016825
-0.000187415
0.0174005
-0.000771121
0.000119205
0.000716635
0.00881011
-0.00777049
-0.000432411
0.000480305
-0.000222583
0.0098079
0.000674434
-0.0171861
0.00608104
0.00670469
0.00214602
0.0105298
0.000381129
-6.51318e-05
-0.00719543
-0.000940703
0.00853994
0.0108212
-0.0103952
0.000439347
-0.00045667
-1.95991e-05
0.00145663
0.000170891
-0.00160251
-2.31399e-06
-0.000490758
-0.000173586
0.00163976
-0.00516733
0.000361276
-0.00631176
0.00756359
-0.00168941
0.0019043
0.0134479
-0.0145326
0.000987479
-0.000397156
0.000451309
-0.00188664
-0.000763651
0.00947459
-0.00908813
-0.00035471
0.000944663
-0.0117
0.000317269
0.000232281
-8.37608e-05
0.00160173
-0.00147285
-0.0135652
0.0104977
-3.42065e-05
2.77464e-05
-0.0134536
0.0110211
0.00240152
0.0028441
0.00761887
-0.0052509
0.00643571
0.00212016
-0.00121105
-0.00122876
0.000147262
-7.0623e-05
0.00496264
-0.00810489
-0.000829825
0.00120142
0.00306777
0.0100096
-0.0136984
-0.000412349
-0.00425232
0.00384446
0.00106387
-0.00491625
-0.0111496
-0.00217082
-0.00684539
-0.00243558
0.00942063
0.00376479
-0.00423503
0.000467228
-0.000922664
0.00359177
-0.00273682
0.00182432
-0.000175999
0.00026589
2.51844e-06
0.0115411
-0.0135844
0.0129639
0.000683826
0.000165317
0.000604664
0.00867187
0.00285104
-0.00960407
0.0137974
-0.00480811
0.00542486
0.0002767
-0.00423257
0.00414198
-0.00236426
0.000190826
0.00223562
0.0130396
-0.0120482
-0.00778387
0.000887477
0.0220156
-0.00949899
-0.0122776
-0.014602
0.00109836
-0.0086785
-0.00282126
0.000422922
-0.00242017
0.000125091
0.0103284
-0.0107186
0.000376108
-0.000400322
-0.00438915
-0.00160791
-0.0105317
-0.00831739
0.00905854
-0.000739373
0.00468801
-0.00351151
-0.0016198
0.00185041
0.00219469
-0.00318258
0.00415661
0.000317829
-0.0044009
0.000204996
-0.00185793
-0.00395512
0.00425362
-0.00034572
-0.000159392
0.00195683
-0.0017898
0.00119962
0.00238848
-0.00338829
-0.0132239
0.0140918
-0.000785826
-0.00334099
0.00722532
-7.22835e-05
0.000129896
0.00011299
0.00117995
-0.000931362
0.000251627
-0.000278063
0.000274983
-0.000835486
0.00406259
-0.00294494
-0.000154016
-0.00170205
0.000910514
0.00183911
-0.00164031
0.00369035
-0.000408405
-0.0032572
-0.0111504
4.05693e-05
-0.00255232
0.000261143
0.00229085
-9.0484e-05
0.0112031
9.12202e-05
-0.0139797
-0.00021148
0.00528242
-0.00515053
0.000275452
-0.013545
-0.0116297
0.000818804
0.00105894
-0.0142441
0.000328618
0.0088374
-0.00922734
0.00172794
-3.96444e-06
-2.24802e-05
0.000275684
-0.00235604
0.00215597
0.0153369
0.00109437
-0.0161696
0.00265131
-0.0113206
-0.00058457
-0.00117599
0.0019883
-0.0020247
0.000251395
0.00180697
0.00244082
-0.00184109
-0.000505361
0.00151166
0.00034792
0.00240612
-0.0020578
-0.00205649
0.00344467
0.00025113
-0.0106398
4.37443e-05
-0.00359756
0.0111988
0.000270801
0.00700966
-0.0148313
-0.00117893
0.0146297
-0.013657
0.0143564
-0.0157328
-0.000179864
0.00134098
-0.00114801
0.000401332
0.00212949
0.00142132
-0.0208769
0.0141269
6.63013e-06
0.000640616
0.0181679
-0.00822569
-0.0093396
-0.000241667
0.00181975
0.000201508
0.00169818
8.86899e-05
-0.00155975
-0.000566658
-0.00372913
0.00417041
-0.000683902
-0.00880462
0.00977285
-0.0162984
0.0147679
0.00159338
0.000732539
-0.000454327
-0.0010407
-0.000454897
0.00178465
0.00493581
-0.00123104
-0.0142118
-0.000239383
0.00193849
-0.001715
8.8031e-05
0.000403093
-2.78941e-05
-0.000736273
0.00118246
0.0115344
-0.0105014
0.00208986
-0.000928973
0.00620747
-0.0127364
0.00313885
0.000503883
0.00208852
-0.000549292
-0.00166427
-0.000343065
-0.00417011
0.004195
0.000227671
-0.00957942
-0.0133182
-0.00155143
0.0150646
0.0112234
-0.0121147
0.00105073
0.0121079
0.00975144
-0.00706585
-0.0016363
0.00955172
-0.00894669
0.00447134
-0.000704747
0.00312907
-0.000522722
-0.0025806
0.00500257
-0.00529114
-0.00102197
0.000259229
0.00586794
0.000626801
-0.00631713
0.0125247
-0.00719114
-0.00498746
0.00110219
0.000928229
-0.00198066
0.0162252
-0.0171
0.0010733
-0.000389463
-0.00407559
0.00447347
-0.000280826
-0.00581503
0.00669075
-0.000136935
0.00109691
-0.000937701
0.0019443
0.00017409
-0.00214517
-0.000376188
-0.00405529
0.00435537
0.00176928
-0.00501776
0.000750274
0.0134684
-0.0135336
0.00107437
0.0148677
0.0048937
-0.00165668
-0.00317823
-0.00381489
0.0141276
0.0114034
0.0107767
0.00363914
-0.00801512
-0.000160183
-6.01586e-05
0.000164582
-0.00910746
0.0093752
-0.00378564
6.2995e-05
0.0107405
-0.000451443
-0.00960634
-7.41956e-05
-0.000634833
0.000167617
-0.000706098
-1.03451e-05
0.000440472
-0.000105724
0.0133616
2.41484e-05
-0.00215521
0.00224739
-0.0178479
0.0157404
0.00260637
-0.000232863
7.68892e-05
8.71504e-07
-2.38621e-05
-0.00185318
0.00142105
-0.0171722
0.0154994
-6.38368e-05
-0.00046187
0.000653667
0.00053504
0.00471168
-0.000569486
-6.52828e-05
0.00242123
-0.000247378
0.002321
-0.00200442
-0.00186839
0.00176845
0.000378383
0.000834294
-0.0143597
0.00241968
0.000755865
0.00189387
-0.00171309
-0.000119526
0.000373482
0.00205505
-0.00556717
1.08849e-05
-0.000423847
0.0129534
-0.0119705
-0.0129717
-0.000458377
-0.00085347
-4.33551e-05
0.00108993
-0.000705293
-0.000225048
-0.00156763
0.00218855
-0.00236788
0.00622552
-0.000304617
-0.000667863
-0.0120342
0.0127042
-0.00102564
-0.00983653
0.0108525
-0.0148304
0.0161878
0.0018012
-0.0148505
-6.68941e-05
-0.000485823
0.000153129
-0.00191055
0.00180219
0.00194407
0.000274552
0.00217352
-0.0021769
-0.0155606
0.016729
0.00160156
-0.0132925
0.0117818
-0.0178305
0.013228
0.00510639
-0.000274505
0.00217957
-0.00185236
-0.00101276
0.0112629
-0.0100344
-0.00382352
0.000610877
0.00310328
0.000374004
-0.00250234
0.0110089
0.00158232
0.00210428
-0.0122338
8.62296e-05
-0.000253673
0.000241012
-0.0159343
0.00484134
0.00521857
-0.0048754
0.00461929
3.26982e-05
0.00968984
-0.0108551
0.00109848
-0.000545327
0.00147733
-0.00128351
0.000576565
-0.000229675
-0.00178357
0.00196522
0.0136091
0.0158929
-0.0131195
0.0047778
-0.000446171
-0.000445189
-0.00173009
0.00156481
-0.000188633
0.00176373
-0.0175752
0.0170108
0.000643319
0.000473644
0.000904708
0.000780429
-0.000230228
0.00201432
-0.00181196
-0.00187965
0.00156
0.0003806
0.00179402
-0.00159898
0.000592405
0.0017069
0.000194004
-0.0150031
0.000254321
0.00195401
0.00196752
-0.0016809
0.000809747
-0.00323649
0.00273417
-0.00546665
0.00594369
-0.000677566
0.0128356
-0.000574995
0.00377934
-0.00420666
0.000475424
0.0103719
-0.0067584
1.98604e-05
-0.000168558
-0.012981
-0.00122233
0.000803756
0.000307748
-0.00350095
0.00551982
-0.00966612
0.00471249
-0.000528617
0.000580528
0.00304522
0.00184102
0.000518741
-0.01022
0.00970166
-0.00481809
0.00398754
0.0009817
0.000338612
0.00405441
-0.000139404
0.00120082
-0.00105294
0.0169616
-0.015238
-0.00189152
0.0138419
0.0100632
-0.000385362
0.00434393
-0.00393302
0.00491979
-0.000584342
0.0153188
-0.00923397
0.00122358
-0.00135527
-0.000153685
-0.0015488
-0.00152573
0.0138306
-0.0125056
-0.000395005
-0.00300448
0.00333222
0.000897806
-0.0150662
-0.000408812
0.00145206
-0.0012316
-0.000166964
-0.00203485
0.00184044
0.000241086
-0.00447318
-0.0134543
-0.000133953
0.00104304
-0.000894923
8.89353e-06
-9.36995e-07
-9.50435e-06
-0.000192532
-0.00148043
0.00170089
-0.00357049
0.00452327
0.0039157
-0.0172987
-0.0133525
0.0116309
0.00439951
-0.00059177
0.0125321
0.00173458
0.00573185
0.0036468
-0.00909293
0.016032
0.00206246
-0.0180063
0.0124726
0.00609243
0.0177122
-0.0146611
-0.00286162
-0.0125581
0.0142321
-0.00622001
0.00652591
-0.00736103
-0.000567087
-0.016711
0.0137562
0.014491
-0.00114615
0.00111482
0.00925306
0.00483561
0.000194653
-0.00408754
0.000555151
-0.000311745
0.00229498
-0.00201663
0.000308109
0.000237202
-0.0102079
-0.0013786
0.0115946
5.36093e-06
0.0112025
-0.0109114
0.0139384
0.000692528
-0.000130934
0.00164278
-0.0137494
0.00124219
0.000955088
-0.00213076
-0.000417473
-0.00406496
0.00423721
-0.000162914
0.00579326
-0.00205448
0.0018002
0.013452
-0.0130314
-4.732e-05
0.000942599
-0.00663422
-0.00066481
-0.0118793
0.0112181
-0.000457781
-0.013044
0.0138921
-0.0107829
0.0104301
0.00473694
0.000499607
-0.0048515
-0.011173
0.00102525
0.0174355
-0.0010086
0.0164652
-0.0155039
0.000175911
0.00263523
-0.00275208
0.00272999
-0.00297603
0.00278818
0.00166545
0.0124965
-0.011458
-0.000789103
-0.0110828
-0.000812542
0.0041156
-0.00447933
0.000832359
-0.000220969
0.0105227
-0.00201629
0.00186383
0.010477
-0.00537194
0.00618076
0.00161747
0.00456205
-0.00484579
0.000485664
0.00164563
0.000279859
-0.00755015
0.00802991
0.000711481
-0.00987158
0.000173787
-0.000125358
-1.49359e-05
0.00087612
-0.00331684
-0.000669732
0.000871478
3.89086e-06
-0.000501224
-0.00953534
-0.000571391
-0.000459089
0.0012639
-0.00861104
0.000293778
0.000639638
0.00897577
0.00656621
-0.0156207
-0.00166518
-0.0151629
0.0167503
0.00214162
-0.000243875
-1.27375e-06
-2.99532e-05
3.79271e-05
0.0098267
-0.00871848
-0.00236416
0.00112909
0.00134694
-0.00878962
0.000126357
0.010586
-0.0100633
-0.00646556
0.00617396
0.000406757
-0.00275086
-0.000263703
-0.0152747
0.000992511
0.00131242
0.0126996
0.00100383
-0.013619
0.0129696
-0.00136965
-0.0115871
-0.00531903
-0.0122044
-0.0110922
-0.00072826
0.0106215
-0.00709339
0.00133358
0.00595267
-0.012156
0.011123
0.00114835
-5.61825e-05
2.06922e-05
-8.67608e-05
-0.0167353
0.0171025
0.00101038
-0.0109055
0.000799348
-0.00555566
0.000198738
0.00497592
-0.000259981
0.0136775
-0.0131515
-0.00137706
-0.000168652
-0.0133864
-0.000744812
0.0143735
-0.00289867
-0.000389618
0.00371189
-0.0169756
0.000719278
0.0167982
0.000274918
0.00218291
0.00136071
0.00278148
-0.00783986
0.00220315
0.0094858
-0.00988738
0.00176041
0.00489591
-0.00523569
0.000304754
0.00475366
-0.00452828
-0.0139605
0.0133855
-0.00173901
0.0036273
-7.30502e-05
-2.80272e-05
0.0192219
-0.0103059
0.00929774
-0.00185857
-0.00711442
0.00108551
-0.0115958
0.000773959
-0.00624887
0.00651335
0.000279115
-0.000163987
-0.00960295
0.00959941
0.000716787
-0.0119078
-0.00128122
-0.010244
0.0112149
0.00532627
-0.00739226
0.00681914
0.000675109
-0.00100779
-0.0107745
0.012104
-0.000758903
-0.00127601
0.000117373
0.0052271
-0.0049293
-0.00656669
0.0138162
-0.0117299
-0.000442755
-0.0131142
0.0136144
0.00138353
-0.00148903
0.000220465
0.00576056
-0.00050614
-0.0069425
0.000660888
-0.00673947
0.00640921
-0.0140303
0.000509131
-0.0119474
0.0111682
-0.000246444
0.00176458
-0.010977
0.0119948
-0.00207076
0.00220536
4.26259e-05
-0.0123101
0.000550873
0.00930046
-0.000511894
0.000864262
-0.0146093
0.00936966
-0.00337692
-0.000134199
1.36043e-05
-0.00518232
0.000195963
-0.0115195
0.000677405
-0.0131518
0.0148757
0.000149305
-0.000680789
0.000555409
-0.00472698
0.00481564
0.000356977
0.00210963
-0.00664474
0.000703476
0.00426721
-0.00492923
-0.000877325
-0.0160209
0.000607857
-0.0108897
-0.00408962
-0.000284746
-0.00622224
0.000315398
-0.00142541
-0.0094577
0.000638186
-0.0111756
0.000143171
-0.00731087
0.0101877
-0.00952355
-0.0161151
0.0170896
0.00207909
-0.00118846
0.0011246
-0.0137609
-0.00226536
0.00191021
-0.000455272
-0.0106917
0.0111415
0.00535557
-0.000262878
0.00118381
-0.000100025
-0.00105053
0.00882717
0.000697766
0.00152381
-0.0172229
-2.39883e-06
-0.000441065
-0.00349554
0.00395818
0.0104272
-0.0150433
0.0004327
0.0151393
0.000757503
-0.0137185
0.00291167
0.000365287
-0.00323309
-0.0018438
0.0132049
0.018118
-0.00207508
0.00562563
-0.00438713
0.000433248
0.00405209
0.00146606
-0.0121213
0.0106385
-0.000345209
0.00326507
0.00168594
-0.00190363
0.00021372
-0.000104965
0.00116345
-0.00103122
0.00986265
0.000104869
0.00114172
-0.001176
-0.00010101
0.00121999
-0.00106797
0.0102892
-0.0107484
0.000405995
-0.0129079
0.0137865
-0.000951142
0.0152165
0.00122628
-0.00105273
-0.000754419
-0.00987941
0.0108197
-0.000208412
0.000297292
8.68198e-06
0.00616138
0.00654222
-0.00235184
0.004382
0.000152288
0.0157427
0.00468952
-0.00421272
-0.000270115
0.00117695
0.000363126
-0.00756586
0.00752063
-0.000334069
0.0104905
0.00132173
-0.0116675
0.00991655
0.000578103
-0.00989781
0.00394554
-0.00178382
-0.000574962
-0.00394343
0.0051398
-0.00861615
0.000947431
0.00737115
-0.00115812
0.00103853
1.87803e-05
-7.26168e-06
-8.05011e-06
0.00140453
-0.0140858
-0.011955
-0.00150821
0.00110402
-0.0059286
-8.29152e-05
0.00115192
0.0121905
0.00148477
-1.40024e-06
-0.000361881
0.000630599
0.0159939
0.00232263
-0.00141635
-0.000260252
-0.00114147
0.000127777
0.00115073
-0.00560291
0.000678694
0.00511032
0.00229455
-0.00274866
0.000512972
-0.0110115
0.0123219
-0.00123546
-0.000570159
0.00758155
-0.000358236
0.00267286
-0.000229107
0.00193762
-0.00169225
-0.00438715
0.00394437
0.00239497
-0.00492264
0.00149181
-0.00161759
2.90411e-05
-0.00427122
-0.000218936
-0.00369893
-0.00055864
0.00292746
-0.0150093
-0.00104775
0.0019762
0.000915454
-0.000836996
-0.00645305
-0.000148672
0.00015578
0.000131068
-0.00191104
-0.00194265
-0.000235471
0.00150636
-0.0187652
0.0176021
0.000291863
-0.0023473
0.00208599
0.0119147
-0.0141743
-0.00286624
0.00510597
-0.00432421
-0.000343281
0.005147
0.00720414
0.0067371
0.0109711
-0.0113254
-0.00278471
0.00336401
-0.000550508
0.00176668
-0.0019803
0.000508273
0.00932548
0.000116619
-0.00956387
0.000539601
0.00898707