/*--------------------------------*- C++ -*----------------------------------*\
| =========                 |                                                 |
| \\      /  F ield         | OpenFOAM: The Open Source CFD Toolbox           |
|  \\    /   O peration     | Version:  v2012                                 |
|   \\  /    A nd           | Website:  www.openfoam.com                      |
|    \\/     M anipulation  |                                                 |
\*---------------------------------------------------------------------------*/
FoamFile
{
    version     2.0;
    format      ascii;
    class       volScalarField;
    location    "250";
    object      omega_0;
}
// * * * * * * * * * * * * * * * * * * * * * * * * * * * * * * * * * * * * * //

dimensions      [0 0 -1 0 0 0 0];


internalField   nonuniform List<scalar> 
9793
(
0.0657074
0.215268
0.070546
0.0209811
2.17024
0.0221662
0.0214538
0.020728
0.0214696
2.06286
0.0432801
0.0354227
0.0210122
0.0202956
0.0228744
0.0202296
0.020732
0.0208596
1.74057
0.020283
0.345648
0.0221004
0.0752316
0.0194994
0.0218174
0.0210827
0.0202444
0.0205702
0.0335714
0.0214611
0.03221
0.0548009
0.449646
0.0219943
0.0367604
1.39366
0.0221195
0.0220792
0.0207843
0.0209091
0.0318447
0.0228942
0.0217673
0.0216455
0.0217818
0.0212094
0.0358712
0.299554
0.132518
0.0209585
0.0376988
0.0470761
0.022281
0.0214369
0.227328
0.204168
0.0213949
0.0854047
0.934407
0.0207697
0.0214937
0.0221917
0.824467
0.0216328
2.13102
0.447109
0.785976
0.594985
0.0473523
0.0422695
0.169182
0.0208167
0.0210565
0.0811436
0.0413574
0.948994
0.0213839
0.0197283
0.0210664
0.0206685
0.503297
0.0211317
0.248778
0.0166613
0.0285455
0.218297
0.0207074
0.0213738
0.0218706
0.0213719
0.209539
2.06914
0.0203247
0.033734
0.0220076
0.0181238
0.280932
0.241632
0.0203064
0.0202071
0.0201938
0.0213495
0.0203561
0.0203496
0.0197252
0.0282332
0.0217762
0.0214531
0.0220363
0.381224
0.0210329
0.0904237
0.0213839
0.990545
0.0466761
0.0213934
0.437795
0.0399247
0.0213134
0.0237378
0.378773
0.0229732
0.0212776
0.0224036
0.0216003
0.233416
0.0311187
0.183873
0.0212029
0.0211008
0.0215025
0.0213829
0.0210971
0.0216596
0.0214475
0.0213645
0.0218643
0.0214673
0.0213786
0.0199173
0.0212697
0.0217036
0.0210607
0.0201963
0.0203674
0.0205875
0.0390583
0.0202036
0.0203116
2.01274
1.73043
0.0215223
1.5423
1.37367
0.0202991
0.0223047
0.0205613
0.0216062
0.020197
0.0210231
0.0207243
0.0205638
0.020082
1.63208
0.0641419
0.700769
0.276702
0.0236422
0.0201901
0.0209865
0.0210741
0.543196
0.0638854
0.505001
0.0215725
1.72803
0.0213728
0.0195244
0.021104
0.0244925
2.54768
0.0218568
0.0202062
0.0217212
0.993121
0.0210447
0.101762
0.0210957
0.0212475
0.0200989
0.0215824
0.021311
0.125577
0.11351
0.724105
0.0243108
0.158194
0.0208565
1.03428
0.019977
0.021441
1.62691
0.352764
0.0211129
0.0213651
0.0196546
0.862884
0.0201723
0.0260041
0.0218954
0.0264082
0.0872746
0.187344
0.021452
0.267673
0.0204405
0.0211572
0.903798
0.0196513
0.912581
0.0492431
0.0213168
0.0216101
0.0213146
0.0793617
1.63721
0.022173
0.0203009
0.0500082
0.036424
0.019524
0.0195127
0.0219051
0.0200961
0.034706
0.895147
0.0213601
0.0210134
0.150933
0.0211084
0.0257556
0.0202815
0.0209774
0.451547
0.0209876
0.0203017
0.0207172
0.0215848
0.0203157
0.021777
0.0214396
0.0227352
0.0431205
0.0329214
0.0209447
0.0223725
0.0210591
0.0228977
0.0223896
0.0201531
0.421659
0.0209994
0.0427643
0.0215454
0.0239197
0.0195676
0.0195722
0.0263631
1.57806
0.021633
0.0201667
0.0199682
0.0236387
0.0213357
0.168715
0.160092
0.0211127
0.209948
0.0213308
0.0329904
0.0215015
0.0195488
0.0219095
0.0207955
0.0311364
0.0213144
0.0214323
0.0234498
0.0209317
0.0213563
0.0213654
0.418192
0.0217511
0.0221271
0.0215644
0.0216178
0.0216706
0.0237097
0.0212249
1.41247
0.0203094
0.616119
0.544126
0.0220432
0.0215406
0.020181
0.0239855
0.0228155
0.0214019
0.620477
0.0216144
0.0201691
0.0228629
0.0214913
0.0213581
0.0212024
0.088731
0.0209906
0.0232945
0.0219384
0.0209192
0.085628
1.47258
0.0634484
0.0196101
2.07331
0.0217187
0.867296
0.0441907
0.0200028
0.0223261
0.0433618
0.0211964
0.024417
0.0512375
0.0206938
0.0216717
0.0214294
0.0210394
0.0206054
0.0937197
0.0210928
0.0209093
1.40059
0.0211508
0.0202061
0.0195975
0.0217834
0.0207045
0.0856008
0.0216334
0.0212944
0.0213961
0.0212884
0.599765
0.0214243
0.0282961
0.0195249
0.0296494
0.411644
0.103066
0.0307707
0.021736
0.022311
0.823462
0.0216657
0.414945
0.0210774
0.0201339
0.544053
0.0242126
1.64592
0.0212993
0.0368531
1.49589
0.0226349
0.0210349
0.452774
0.0235575
0.051114
0.0223892
0.0214157
0.932484
0.0212416
0.0217742
0.0218765
0.0211279
0.0202658
0.0214311
0.0222019
0.607904
0.0215236
0.577874
0.264871
1.06052
0.0365925
0.0416301
0.0208641
0.0214313
0.16905
0.301335
0.0202913
0.0216135
1.37407
0.0199544
1.43235
0.0210279
0.0222202
0.019939
0.0272929
0.0210854
0.0238477
0.316304
0.0201821
0.116652
0.0276739
0.0216787
0.0273395
0.0209817
0.0216659
0.0206117
1.64297
0.0213119
0.0213674
0.0505518
0.0214128
0.0223571
0.0217249
0.0200522
0.0249839
0.0210165
0.0213645
0.0198863
0.312009
0.0204661
0.316205
0.021033
0.127825
0.022428
0.0210823
0.021942
0.0215192
0.969372
0.0208275
0.300161
0.020137
0.0210855
0.0217792
1.37683
0.0345678
0.455828
0.0805158
0.0223177
0.0212329
0.0346181
0.0248586
0.0265922
0.231766
0.446606
0.0215376
0.0239202
0.0369099
0.0212774
0.0213147
0.0212585
0.0203463
0.0221311
0.567829
0.0238846
0.889816
0.0203559
0.024094
0.019513
0.0217763
0.0216619
0.0211771
0.0347831
0.021117
0.0229275
0.0199213
0.0213053
0.022753
0.368462
0.0210162
0.0212336
0.541909
0.0232788
0.021642
0.84891
0.183146
0.0215196
0.0221006
0.0218417
0.0227865
0.0213732
0.0219489
0.0218048
0.0209121
0.0210741
0.0209558
0.0352024
0.0474997
0.0205305
0.99693
0.0269326
0.0202621
0.0217592
0.0211069
0.070836
0.0214828
0.182194
0.0200239
0.0209878
0.0398271
0.0212397
0.0275727
0.539911
0.0236282
0.0202534
0.560287
0.0231357
0.0204817
0.0210939
0.0434861
0.0208423
0.0204706
0.0212484
0.0208379
0.415111
0.0347645
0.0264257
0.0219238
0.0210608
0.0209484
0.0213805
0.0209008
0.021261
0.057387
0.120623
0.0199847
0.0231144
0.231527
0.0212041
0.0716571
0.0285426
0.0206999
0.0463309
0.919153
0.0213307
0.149595
0.0195616
0.620546
0.023281
0.954124
0.0210437
0.0209653
0.0207211
0.22766
0.0225148
0.862026
0.517005
2.04906
0.0281567
0.447352
0.0265472
0.0228343
0.0259585
0.0227685
0.432539
0.0214037
0.232829
0.0198384
0.23425
0.0218034
0.0216954
0.0209337
0.172731
0.019875
0.0206536
0.0218568
0.0220472
0.0241978
0.0210657
0.0212155
0.0211915
0.0211755
1.85241
0.0209577
0.449892
1.4979
0.0209686
0.0216216
0.0244359
0.021609
0.0212587
0.021455
0.0226941
0.0233048
0.0218371
0.0220586
0.0204535
0.0212533
0.0216612
0.0229625
0.0214611
0.0218425
0.764745
0.0212168
1.69286
0.0233024
0.0216192
0.0212215
0.0206581
0.0222788
0.0227159
0.020977
0.0205464
0.0194881
0.020967
0.0205412
0.0211525
0.0222695
0.019828
0.0216945
0.0221656
0.0214243
0.0222022
0.0218725
0.0266257
0.0220746
0.0209457
0.0212335
0.0204821
0.0198543
0.0209051
0.0198762
0.0208962
0.021225
0.0198632
0.0281695
0.02097
0.021962
0.0212938
0.228818
0.021008
0.0199258
0.0423114
0.019561
0.0213698
0.187896
0.0218367
0.0219781
0.02149
0.0856464
0.0206692
0.0395037
2.10486
0.5119
0.435292
0.0213133
0.0212944
0.448953
0.0208179
0.0198991
0.0434133
0.203024
0.540761
0.0212401
0.0473477
0.0212983
0.0212877
0.868131
0.0211663
0.518485
0.0207699
0.0471849
0.0209351
0.022359
0.0216175
0.1656
0.987961
0.0210533
0.0207857
0.0242051
0.0208919
0.022571
0.0396669
2.19599
0.0210235
0.0703369
0.0208219
0.520626
0.0518478
0.507178
0.282116
0.0207496
0.0263315
0.624051
0.0210077
0.0211375
0.0220779
0.0209923
0.0198681
0.243914
0.0198744
0.424899
0.0222479
0.195796
0.0419681
0.0213917
0.178897
0.586463
0.0215681
0.961171
0.0255721
0.0609116
0.0198799
0.0195561
0.470596
0.0211831
0.989072
0.0208894
0.322837
0.0204145
0.325334
0.474203
0.0207375
0.849081
0.0213682
0.0219081
0.0288581
1.40286
1.45628
0.0198627
0.0204199
0.0199347
0.524786
1.37209
0.0222621
0.0233921
0.0955355
0.0199063
0.0209543
0.0218394
0.568844
0.0243368
0.0212314
0.0208269
0.0207471
0.489555
0.296191
0.0297291
0.020482
0.0208924
0.424631
0.0211498
0.920458
0.0331948
0.41824
0.383726
0.320792
0.0208043
0.0214011
0.0223967
0.0217651
0.0231095
0.0211988
0.046862
0.468053
0.0203747
0.504096
0.0207384
0.393754
0.0215007
0.398963
0.0228204
0.0216738
0.0210243
0.020316
0.0309493
0.483223
0.615262
0.0212513
0.0275938
0.0206146
0.0219001
0.0224785
1.91004
0.0232415
0.0605129
0.0208002
0.0244624
0.0210381
0.0198488
0.0219801
0.0209152
2.08096
0.0211224
0.0219896
0.0220105
0.0220612
0.0198497
0.0392805
0.02157
0.0217605
0.0208173
0.0209617
0.323196
0.0210224
0.120295
0.0203791
0.049514
0.0208169
0.515401
0.021011
0.0621626
0.0213674
0.0212051
0.0208569
0.309496
0.33288
0.506977
1.78993
0.726517
0.0211702
0.022311
0.228272
0.0198732
0.450266
0.424002
0.0389362
0.092293
0.0219094
0.309935
0.0232555
0.386792
0.227361
0.0219133
0.0214189
0.31348
1.45415
0.0231303
0.022277
0.0211835
0.0223435
0.0281989
0.0208654
0.0198425
0.021805
0.0805326
0.0289833
0.0221843
0.524145
0.0208724
0.0198865
0.282237
1.61942
0.0289183
0.0217601
0.0332845
0.020445
0.0198598
0.488774
0.019845
0.0218431
0.306541
0.306375
0.0208375
0.601361
0.370173
0.0634446
0.30099
2.40745
0.021936
0.422146
0.0214236
0.0207901
0.0212486
0.0216805
0.0206617
1.83269
0.0208462
0.532366
0.0201241
0.0307377
0.0214933
0.0288193
0.021464
0.0212689
0.0333358
0.0201447
0.0198627
0.057725
0.0211959
0.0254987
0.0207679
0.0200172
0.317925
1.55125
0.0214861
0.0195038
0.0194991
0.0202005
0.0211424
1.82044
0.0587262
0.373945
0.0273398
0.429228
0.0213322
0.024749
0.0239118
0.0225532
0.0873016
0.0210345
0.020939
0.942048
0.0286611
2.81413
0.0210041
0.509849
0.456358
0.0231456
0.0315574
0.0224473
1.78871
0.02121
0.0231437
0.352859
0.0224808
0.0210126
0.038483
0.0213945
0.0204618
0.0209338
1.63397
0.0214305
0.0235634
0.144616
0.0305538
0.0229249
0.0275748
0.00937215
0.544359
0.00872833
0.0198765
0.0213753
0.0217267
0.0215352
0.0212103
0.627298
0.279048
0.0224595
0.293017
0.0883137
0.304558
0.021388
0.300161
0.0212038
0.306373
0.0562898
0.0205687
1.3712
0.456546
0.0208308
0.021373
0.02117
1.60895
0.498151
0.023815
0.0346653
0.0374822
0.022783
2.81201
0.307011
0.0210176
0.021363
1.43537
0.703339
0.0210346
0.0211511
0.0198726
0.0214595
0.021346
0.0230809
1.62661
0.0211664
0.0232929
0.684192
0.0215151
0.0219205
0.0226126
0.742714
0.0214028
0.0234902
0.112558
0.0215612
0.0199843
0.0215903
0.020865
0.0218029
0.478756
0.506394
0.0215808
0.246565
0.0244462
0.0364841
0.0213166
0.0221411
0.0217321
0.0214317
0.31871
0.0212833
0.0217975
0.0238262
0.0219153
0.0203421
0.0234058
0.02118
0.087388
0.0213613
0.0210217
0.992086
0.0210238
0.722576
0.0254016
0.0208807
0.714137
0.0228872
0.0266763
0.0828443
0.0201876
0.213311
0.0209243
0.021348
1.36582
0.896891
0.0202022
0.0213713
0.0206257
0.0214977
0.0651135
0.0216784
0.0213336
0.0216532
0.0221502
0.0216914
0.0211626
0.0201759
0.0209217
0.0211682
0.322219
0.0225111
0.0199515
0.031631
0.0210328
0.7239
0.0592669
0.0273469
0.0213605
0.0211977
0.0560542
0.0221955
0.0211825
0.0213982
0.47102
0.164492
0.0213238
0.0197771
0.0516076
0.0365855
0.0195334
0.384707
0.0305882
0.0212599
0.0215579
0.0221031
0.0214465
0.0249172
0.387677
0.0217805
0.057288
0.0225529
0.0277638
0.0197688
0.0212848
0.0198099
0.0197869
0.172299
0.0210135
0.054622
0.0325542
0.0197976
0.0215973
0.0290556
0.0216822
0.0215067
0.021365
0.0218537
0.63431
0.0197978
0.0214039
0.456108
0.0219923
0.0214682
0.0218616
0.0210332
0.0214843
0.0211445
0.0214157
0.0214897
0.0218961
0.0781905
0.0452869
0.0197795
0.0213762
0.0197876
0.0689839
0.0209752
0.0226242
0.0212152
0.0201484
0.0236883
0.0203717
0.0253655
0.0213473
0.0203814
0.0954162
0.496084
0.0216291
0.0215242
0.0209233
0.200233
0.0680221
0.0213683
0.153431
0.706785
0.0219649
0.0301168
0.446709
0.0224704
0.466529
0.0388481
0.593415
0.021156
0.0281109
0.0840555
0.0203351
0.0894739
2.81574
0.021357
3.06769
3.30771
0.0231504
0.465709
0.0197586
0.024102
0.0348804
0.021217
0.326927
0.0197569
0.0321668
0.0463863
0.0197626
0.0424533
0.021472
0.021751
0.027142
0.0225831
0.648753
0.827108
0.020034
0.0227242
2.57632
0.020669
0.0230284
0.0207693
0.475744
0.0647797
0.0205608
0.0214079
0.0231705
2.65758
1.73029
0.025061
0.0197734
0.0208543
0.837339
0.191251
0.153228
0.0219712
0.0220172
0.0235583
0.0199988
0.0218274
0.023231
0.0221291
0.0208204
0.0232016
0.400128
0.744886
0.0209294
0.238585
0.0225197
0.548813
2.91162
0.0318192
0.744947
0.0417726
0.0197694
0.112113
0.12215
0.589059
0.153592
0.0211525
0.127791
0.35974
0.033075
0.0230429
0.162713
0.278049
0.0210277
0.0233023
0.0228948
0.021182
0.0559111
0.0212094
0.0222574
0.0205799
0.0197579
0.0214357
0.021277
0.0218889
0.0233969
0.433386
0.0232274
0.340937
0.0207796
0.0238635
0.021434
2.01246
0.987909
0.0211494
0.0347826
0.0214513
0.0201888
0.0212692
0.0201382
0.0210033
0.0780699
0.0214613
0.324274
0.0206946
0.0209162
0.401271
0.0219504
0.021615
0.0211036
0.0211481
0.100464
0.0559432
0.537112
0.233222
0.80151
0.0214136
0.0215756
0.0215331
0.0227514
0.0389619
0.0686491
0.65272
0.0208949
0.0329632
0.0217638
0.31706
2.6386
0.0230341
2.88204
1.64971
0.0220481
0.0315101
0.0208428
0.0355091
0.0225034
0.0776867
0.0341373
0.0197679
3.1766
0.544213
0.0214918
0.0221517
0.0216216
0.545257
0.0206235
0.0215278
0.594454
0.0207689
1.09872
0.0254322
0.0229933
0.0217669
0.0215702
0.0506594
0.021105
0.282225
0.0228944
0.0212191
0.0206801
0.0503274
0.0218401
0.692919
0.0221459
0.0232305
0.0228532
0.0521563
0.0222432
0.0212167
0.204938
0.0215434
0.0203797
0.0306703
0.210847
0.0231524
0.0204703
0.0219768
0.106984
0.0437322
0.0211342
0.0312204
0.0202235
0.0765414
0.0210328
0.0216564
0.021071
0.0781941
0.0209161
0.0207066
0.0213356
0.0682094
0.714989
0.0218437
0.023111
0.021594
0.0217313
0.440535
0.0284705
0.0215992
0.0215564
0.0209849
0.0923693
1.94837
1.99094
0.0211861
0.151775
0.0201823
0.0201246
0.0222431
0.0216933
0.0322667
0.0213177
0.0211304
0.0868209
3.15123
0.0227559
0.0214014
0.0214224
0.030915
0.0205702
0.0211345
0.0272452
0.0213719
0.0212003
0.0216761
0.0231905
0.019959
2.94841
0.0333501
0.0230968
0.0224685
0.0212198
0.0223467
0.292948
0.0213198
0.0212168
0.0213948
0.0209929
0.021376
0.0208199
0.127671
0.0783668
0.0214458
0.0218499
0.0211188
0.0231726
0.0220229
0.0477162
0.0217238
2.63508
0.0212689
0.0215518
0.0205799
0.0638146
0.0214086
2.45057
0.0214225
0.0213938
0.0195094
1.41873
0.0223087
0.022783
0.757036
0.0215707
0.0213991
0.0210798
0.0213557
0.0217168
0.021762
0.0231485
0.871121
0.0214553
0.0535203
0.157306
0.0224537
0.102714
0.02134
0.0224753
0.0209253
0.020325
0.0201942
0.0213125
0.0515036
0.0737784
0.0207898
0.781584
0.0553328
0.0212218
0.736519
0.0203046
0.0270831
0.021726
0.0209862
0.0844341
0.0213506
0.0220205
0.0226395
0.0530856
0.0623919
0.0216225
0.0209243
0.0217972
1.50648
0.386227
0.0301561
0.0241122
0.0213626
0.0213542
0.143762
0.0214318
0.0255385
0.0214001
0.622635
0.0213499
0.029167
0.0213134
0.0215157
0.0265011
0.0263075
0.0261129
0.0217697
0.021628
0.0237032
0.195282
0.0427184
0.0203702
0.0232374
0.0801505
0.0224539
0.0321241
0.0214735
0.0215074
0.0213054
0.0220849
0.604174
0.0523258
0.0213275
0.0927487
0.0231408
0.0240963
0.0214158
0.0213043
0.0213308
0.0198329
0.0482214
0.0226778
0.0218939
0.0217271
0.0212674
0.0213512
0.216443
0.0213822
0.0213473
0.0215371
0.310839
0.121182
0.0213575
0.0210521
0.0214128
0.173139
0.0216134
0.196694
0.0213598
0.04228
0.0213536
0.0213948
0.0402596
0.0214918
0.0271779
0.021533
0.0213753
0.0203149
0.0218737
0.210303
0.0214733
0.0216871
0.305394
0.0213403
0.0217467
0.0217298
0.0213793
0.0211138
0.0216301
0.0446648
0.0207164
0.0207792
0.0209174
0.13917
0.0228329
0.472432
0.0213842
0.021426
0.058455
0.39928
0.306603
0.0236684
0.0261758
0.331726
0.0213634
0.404891
0.0216257
0.11059
0.0209154
0.0311293
0.0686392
0.019517
0.022463
0.0212329
0.0217495
0.0198117
0.406041
0.0208543
0.326553
0.0215053
0.0213485
0.0215275
0.0198218
0.0215228
0.143766
0.0212766
0.0211095
0.0210974
0.0213637
0.0213307
0.112924
0.800313
0.558345
0.0213538
0.020175
0.0226245
0.021407
0.0212569
0.0995211
0.0320723
0.0219123
0.0212971
0.27035
0.0220579
0.678149
0.260901
0.0219539
0.0202832
0.0212623
0.0291114
0.766064
0.0212919
0.0211741
0.0493439
0.126165
0.0354101
0.942121
0.0212375
0.0230428
0.0229515
0.0198315
0.0215476
0.0962246
0.508496
1.47151
0.0212283
0.606384
0.0215137
0.021321
0.0232112
0.0216621
0.0232366
0.0301377
0.0211818
0.0214216
0.0212259
0.0208448
0.019911
0.0210343
0.0232889
0.171954
0.0197843
0.0195135
0.0199441
0.02125
0.0215969
0.0212571
0.0231228
0.0216983
0.0217334
0.0216538
0.316092
0.0212106
0.02229
0.301295
0.0212694
0.0212185
2.02879
0.0210949
0.0213292
0.0212029
2.01343
0.0208531
0.0313721
0.0215339
1.33758
0.0201289
0.0201173
0.0203801
0.0211907
0.0339093
0.0212303
0.0215261
0.0340651
0.0212679
0.282763
0.0237159
0.0256995
0.0215543
0.0735028
0.0266098
0.0213387
0.0211068
0.0216573
0.0214433
0.0212478
0.223583
0.0209466
0.0424818
0.0211247
0.0213851
1.3771
0.0210158
1.49834
0.0675312
0.0212284
0.0555914
0.0211042
0.0216648
0.0212134
0.0215432
0.020694
0.0212484
0.0211949
0.0212208
0.0945676
0.0213814
0.020943
0.0216
0.0207588
0.0211687
0.0211677
0.0213786
0.0204732
0.0212861
0.0211771
0.021345
0.0212
0.0215867
1.37722
0.0211675
0.0216451
0.0313396
0.223334
0.0198643
0.0261815
0.0209429
0.02082
0.0212187
0.0212605
1.05456
0.230079
0.0210858
0.0219597
0.347548
0.0213579
0.0298445
0.785329
0.0198603
0.87209
0.0213818
0.0637888
0.0226234
0.0365311
1.70285
0.63218
0.0209566
0.0210601
0.0198969
0.0228395
0.0456647
0.0218371
0.0610663
0.617252
0.0213248
1.64709
0.045148
0.0207034
0.0203703
0.0264635
0.0260195
0.0212059
0.0209735
0.0199836
0.023151
0.0231295
0.0233036
0.0231106
0.0232052
0.497016
0.0210046
0.0211337
0.0211186
0.726637
0.0232131
0.0232777
1.32508
0.0516269
0.0384482
0.020983
0.0231693
0.0211739
0.0281428
0.0213251
0.0216702
0.0462353
0.0232394
0.0636582
0.0197693
0.311111
0.0320785
0.0763864
0.306684
0.458002
0.0210642
0.0213115
0.021299
0.0869503
0.0213665
0.0208592
0.0212927
0.0248022
1.34406
0.0938542
0.0231604
0.0195591
0.0188342
0.0307168
0.300868
0.0436818
0.0428144
0.0304705
0.0235565
0.298115
0.0210885
0.021102
0.0210747
0.0465836
0.0188167
0.0419431
0.0208411
0.0211819
0.0211087
0.653075
0.0211374
0.021079
0.0210043
0.0284739
0.0209053
0.0211171
0.0202942
0.0234283
1.50417
0.0247924
0.02301
0.0214191
0.448123
0.0258091
0.0198437
0.0213025
0.0318487
0.218213
0.02135
0.0213681
1.78117
0.0210497
0.0209544
0.0209144
0.0212505
0.0339048
0.0209704
0.0213998
0.021073
0.0214029
0.0211405
0.0210845
0.0210377
0.0211551
0.0211956
0.154488
0.0212183
0.0206418
0.0323849
0.0420484
0.0299282
0.0509328
0.0209356
0.0650806
0.0212665
0.0299529
0.0210418
0.0389063
0.0210244
0.0211956
0.020104
0.0372556
0.0232535
0.0211557
1.02098
0.0211071
0.0200998
0.0211069
0.0217866
0.0245312
0.0209054
0.611715
0.0213662
0.0224174
0.0367217
0.0211965
0.0273743
0.0209775
0.0205394
0.0211507
0.839393
0.0267324
0.0218882
0.0377049
0.0637643
0.0238803
0.0395947
0.0232983
0.0212148
0.0197355
2.0168
0.0359401
0.0209509
0.032267
0.0208383
0.0209631
0.524315
0.0204416
0.0211828
0.050156
0.0399738
0.599606
0.0211639
0.0209855
0.0155349
0.020895
0.019935
0.99404
0.0210915
0.0232636
1.3287
1.37455
0.0212812
0.0217013
0.0210858
0.0197657
0.0211687
0.0214648
0.021375
0.028259
0.0206362
0.0231761
0.0212087
0.0217902
0.0230863
0.953326
0.0231724
0.0214297
0.20836
0.310523
0.0211212
0.0352158
0.0213927
0.0211715
0.0211847
0.0209185
0.0231457
0.0225182
0.0395784
0.021062
0.0231928
0.0214844
0.0197076
0.0209737
0.0211473
0.0238943
0.0207878
0.0210465
0.021561
0.0212571
0.73082
0.0213395
0.0216628
0.0368471
0.021802
0.0201968
0.191338
0.683535
0.897906
0.44756
0.0513976
0.0204753
0.0216304
0.369682
1.00662
0.170985
0.409652
0.263299
0.0213847
0.325068
0.613046
0.0213239
0.0392788
0.0215802
0.731732
0.0146448
1.08748
0.0215742
0.0209351
0.0344548
0.0211382
0.0212061
0.0559535
0.120401
0.0212667
0.0213649
0.0210151
1.44789
0.0210019
0.0209867
0.0211926
0.0209681
0.0209658
0.041877
0.021606
0.0209167
0.0212174
0.0260659
0.405409
0.823164
0.0211785
0.0210354
0.0218946
0.0211879
0.0209469
0.0211044
1.81477
0.0211186
0.0294319
0.0210996
0.0212867
0.0202811
0.0212043
0.777207
0.0198283
0.0204942
0.0214566
0.297598
0.923489
0.129313
0.699785
0.0211769
0.0260541
0.0210581
0.0196972
0.0210181
0.0201131
0.0210162
0.0211922
0.0213722
0.111968
0.0198434
0.166249
0.808535
0.0197529
0.0384723
0.0342615
0.0215365
0.021084
0.0211862
0.0211594
0.0209553
0.312559
0.019744
0.0209865
0.549956
0.0210463
0.0212288
0.0209495
0.038278
0.0213297
0.0213221
0.860834
0.0206256
0.0205582
0.0210078
0.0142848
0.0211922
0.0195706
0.0210465
0.0198454
0.684369
0.0246376
0.0209735
0.0471618
0.0197233
0.021166
0.0220514
0.409948
0.95887
0.0199792
0.0233044
0.0212476
0.0210842
0.0210121
0.0210525
0.188446
0.305868
0.0211616
0.0215406
0.0211757
0.0209319
0.0209944
0.0231755
0.0238569
0.86028
0.0211747
0.0224258
0.643486
0.0210649
0.0231444
0.0919326
1.66455
0.0205744
0.0208954
0.0206831
0.0210241
0.020928
0.303596
0.0209837
0.644165
0.103616
0.0216413
0.0231143
0.308874
0.0199889
0.420924
0.0875747
0.0503367
0.0234438
0.021137
0.021887
0.334971
0.0207904
0.0222813
0.0209053
0.0199772
0.0200485
0.0200988
0.0210774
0.788548
0.0213632
0.535231
0.359348
0.0619559
0.630112
0.0197183
0.0213424
0.0220888
0.155963
0.0211303
0.400494
0.0217386
0.0199711
0.0208859
0.293123
0.0208753
0.0247089
0.241845
0.020997
0.325505
0.0215101
0.039882
0.186193
0.0213405
0.0205467
0.0361585
0.0651511
0.0210828
0.0221039
0.0201555
0.0205728
0.0208215
0.281273
0.0209284
0.019828
0.0315508
0.0200746
0.322633
0.0213584
0.0211502
0.0210231
0.148964
0.0209082
0.0208432
0.963869
0.257281
0.258442
0.0212976
0.0200881
0.0304766
0.614682
0.0413517
0.219928
0.0229931
0.02316
0.0213378
0.0212102
0.0232668
0.0214879
0.0209957
0.0203514
0.0479468
0.0232791
0.0208751
0.0195772
0.0213192
0.0205375
0.0212493
0.0215683
0.544562
0.410076
0.0239705
0.110612
0.47231
0.0205799
0.0208971
0.0216214
0.0286098
0.0201238
0.0213688
0.0208659
0.0209246
0.0210916
0.0395201
0.0211471
0.486436
0.0212236
0.0207927
0.0519317
0.0286893
0.0214144
0.0208158
0.0208003
0.802917
0.243484
0.021305
0.0202007
0.0210409
0.020886
0.0211855
0.0209541
0.123673
0.0209638
0.0208
0.0367656
0.0204295
0.0515926
0.0231693
0.0209636
0.0212289
0.334907
0.552394
0.336973
0.853842
0.0231261
0.0217906
0.0215298
0.0212151
0.0262738
0.0207689
0.296265
1.03772
0.0219063
0.0368664
0.170603
0.0207915
0.263014
0.0260555
0.853099
0.0211222
0.0207384
0.0207509
0.0215021
0.0210286
0.475263
0.481012
0.169549
0.0210636
0.0208443
0.0208117
0.390631
0.0258356
0.0627755
0.0208331
0.021206
0.146673
0.0209453
0.230815
0.536617
0.0208221
0.0212172
0.0196873
0.0210714
0.271579
1.63002
0.0208112
0.0209756
0.0206035
0.3125
0.0211112
0.0225911
0.195327
0.0402596
1.09479
0.0214348
0.752017
0.0212058
0.0244962
0.0214336
0.0209906
0.0221686
0.0225556
0.0204205
0.02101
0.354139
0.0211268
0.0199908
0.309231
0.0197916
0.0209717
0.323352
0.0271267
0.0199718
0.0201758
0.0341424
0.063277
0.0369191
0.873928
0.0207548
0.83181
0.0209455
0.0240619
0.127922
1.44067
0.637564
0.0216109
0.867073
0.0282154
1.97087
0.0205584
0.020987
0.020175
0.0211356
0.0238243
0.0207279
0.0376441
0.0198751
0.0217825
0.0211761
0.447085
0.0212955
0.0356623
0.0238441
0.0242633
0.0195665
0.022873
0.0703145
0.0196798
0.0290518
0.021147
0.0721088
0.0212466
0.0305206
0.0485882
0.0217533
0.677435
0.0207485
0.203032
0.0231647
0.0216735
0.0212945
0.678676
0.021338
0.0208453
0.021162
0.0603959
0.0212959
0.0271487
0.116992
0.0251272
0.188306
0.0208064
0.0199645
0.841095
0.0349591
0.309845
0.365735
0.0207973
0.188124
0.43861
0.0357588
0.0206251
0.250617
0.262828
0.0207285
0.0207263
0.0197473
0.0400098
0.486802
0.338177
0.323091
0.0207586
0.0206135
0.021485
0.0201516
0.0208632
0.023189
0.0216864
0.0203391
0.163519
0.022069
0.0212022
0.0208782
0.259662
0.0475956
0.0205042
0.0230661
0.0213573
0.862043
0.0207391
0.357921
0.0212783
0.0292397
1.90999
0.0215885
0.734502
0.0203705
0.0197302
0.0207509
0.0207904
0.0205913
0.020775
0.0197284
0.743745
0.0231759
0.0209435
0.198963
0.0208209
0.0213139
0.0205918
0.971811
0.0208103
0.0219635
0.158191
0.0597654
0.0208753
0.0197359
0.907737
0.0210904
0.429458
2.03103
0.0213046
0.0214712
0.0289895
0.0379001
0.472586
0.0201375
0.0205914
0.0219658
0.0288206
0.0222615
0.281872
0.0746041
0.0207673
0.021552
0.0271942
0.0216155
0.0549938
0.222851
0.0205056
0.522772
0.0680265
0.0212518
0.0208774
0.0208214
0.0207989
0.0206034
0.0209437
0.0207064
0.0218476
0.0390423
0.0229207
0.0209073
0.0223515
0.0230843
0.0205358
0.020672
0.0899237
0.0220001
0.0227589
0.0205259
0.0216001
0.0205057
0.0199383
0.563999
0.0212941
0.0210354
0.0591257
0.504158
0.0254087
0.0208327
0.52478
0.0213156
0.103758
0.104951
0.0216957
0.392974
0.0206377
0.0202705
0.564788
0.0208088
0.0375857
1.39398
0.0318483
0.0231748
0.0836424
0.0212698
0.0207758
0.0218398
0.0206037
0.0745745
0.0397025
0.0208236
0.351208
0.766359
0.0196864
0.0206139
0.0446392
0.0274219
0.037984
0.0279047
0.213195
0.509655
0.0211213
0.711642
0.315574
0.0425047
0.408304
0.0205777
0.189888
0.0197241
0.0889001
0.0215625
0.0197462
1.00687
0.624782
0.0412078
0.0195947
0.0354097
0.0203604
0.0206249
0.114228
0.760459
0.0206376
0.0209763
0.0257411
0.0196925
0.0218065
0.0207491
0.303128
0.048491
0.0217248
0.0213377
0.222515
0.0836685
0.671262
0.0540431
0.0205458
0.321791
0.0209995
0.386813
0.0246942
0.0199618
0.640012
0.0213501
0.0341306
0.0213019
0.74388
0.0210158
0.021025
0.0202066
0.0212181
0.0204294
0.0215054
1.41213
0.592992
0.0205495
1.40926
0.0797937
0.0202908
0.0205175
0.539926
0.0317123
0.569559
0.220973
0.673795
0.0205173
0.0210916
0.0942147
0.0233023
0.15979
0.0282735
0.0205824
0.0211267
0.020455
0.0197562
0.0205362
0.0280439
0.0205261
0.324953
0.0208572
0.0213017
0.0598683
0.0197278
0.0279093
0.836649
0.0207558
0.0207387
0.0209089
0.0272572
0.0195948
0.0201228
0.0272599
0.158024
0.0217597
0.0214647
0.0258118
0.0204854
0.0208089
0.0211994
0.734205
0.0540534
0.244985
0.256067
0.0278658
0.0207395
0.0679974
0.0209728
0.0246923
0.0196022
0.0195808
0.0231591
0.0207697
0.504113
0.190649
0.0236137
0.579568
0.0267616
0.627609
0.060884
0.0199835
0.0336267
0.0223715
0.0480902
0.0212377
0.0204096
0.0200868
0.0280077
0.629526
0.374568
0.43394
0.0209306
1.83913
0.0205374
0.160211
0.331193
0.0204192
0.0210341
0.020783
0.832896
0.314254
0.0215158
0.0195829
0.198527
0.0212637
0.0959939
0.0213134
0.0206508
0.487456
0.297057
0.0204601
0.0235606
0.0206364
0.0231006
0.0213315
0.25699
0.0206709
0.021836
0.0550473
0.0212997
0.0208024
0.406441
0.0315143
0.0213384
0.0212363
0.0215211
0.0205496
0.0204395
0.0382604
0.446036
0.02079
0.0271435
0.0207791
0.0213274
0.0213131
0.0210551
0.277943
0.403052
0.0229933
0.149714
0.020721
0.0238621
0.0208059
0.021018
0.662948
0.0214263
0.058309
0.0206846
0.114752
0.0212629
0.108116
0.281736
0.0201731
0.020796
0.0394529
0.0296834
0.143178
0.379884
0.0586767
0.378935
0.0231657
0.0211547
0.161372
0.0207183
0.176952
0.019882
0.16175
0.0244826
0.0207719
0.0206922
0.0208117
0.0247727
0.324198
0.0208416
0.0375546
0.0207477
0.0417864
0.0204333
0.0227974
0.0301139
0.0204008
0.0627043
0.0227046
0.0201638
0.479604
0.024951
0.739269
0.0204216
0.424027
0.0205116
0.0201822
0.14156
0.0204093
0.664998
0.0199254
0.0207592
0.0204398
0.0231244
0.0574881
0.0207098
0.417882
0.0196633
0.0235046
0.0311246
0.020617
0.390501
0.0338892
0.0310153
0.101159
0.020892
0.0204983
0.838464
0.0204193
0.0203315
0.0205045
2.12878
0.330872
0.470496
1.6868
0.0200683
0.0209783
0.0201864
0.170293
0.0206161
0.298328
0.049403
0.0212027
0.0925823
0.325291
0.370154
0.0203424
0.0201354
0.0213737
0.0212207
0.0813493
0.418641
0.0202916
0.0211495
0.0206506
0.43799
0.0322364
0.0205759
0.055257
0.0209353
0.0211604
0.0196788
0.0200026
0.0721148
0.0413888
0.0204017
0.175413
0.204028
0.0197098
0.431745
0.0205472
0.0208562
0.178645
0.0202243
0.323067
0.0197576
0.0225678
0.710371
0.0197242
0.0200492
0.0208337
1.7815
0.0239872
0.612467
0.0678656
0.0217848
0.0230287
0.115187
0.0204741
0.899975
0.0446398
0.0205953
0.213794
0.162689
0.0315015
1.80809
0.0408328
0.0203326
0.421818
0.0257385
0.189773
0.193635
0.0204347
0.0202821
0.0207049
0.614508
0.0202657
0.0201102
0.0369846
0.0227939
0.0211946
0.0203216
0.0207821
0.0202506
0.0202255
0.0352143
0.0207892
0.296205
0.211644
0.0206563
0.0232877
0.020589
0.020345
0.118491
0.0976155
0.792804
0.533688
0.0204669
0.0206346
0.030168
1.57113
0.313783
0.0203619
0.369109
0.175633
0.0198707
0.0340203
0.0354086
0.0201071
0.0208027
0.0204516
0.0206401
0.0200559
0.0337598
0.620017
0.0205392
0.335465
0.0212039
0.0305562
0.0208739
0.0212827
0.0279599
0.0283201
0.0239699
0.0203018
0.0197668
0.0202541
0.020248
0.453464
0.0259872
0.215599
0.0567774
0.195006
0.0223542
0.0202704
0.0226788
0.0694902
0.0211346
0.37122
0.0217761
0.0197241
0.0228112
0.690485
0.0208949
0.0226435
0.0298345
0.8642
0.0428708
0.0202395
0.0231812
0.020669
0.406352
0.0206028
0.104341
0.0697197
0.0344133
0.0772642
0.0373739
0.0229334
0.0322179
0.0208306
0.0202769
0.0205099
0.0206453
0.319249
0.0205701
0.0205683
0.0213344
0.0206881
0.0201489
0.0394699
0.399032
0.309377
0.0201694
0.766605
0.329048
0.0542671
0.0205594
0.0202916
0.0210345
0.0201306
0.210637
0.026389
0.0202432
0.0275738
0.0205296
0.479231
0.0406944
0.0205622
0.823465
0.0320209
0.0203213
0.304134
0.452802
0.035358
0.0205505
0.0445133
0.345191
0.0196003
0.0204745
0.455292
0.0220794
0.0206699
0.422053
0.0210344
0.020325
0.0204499
0.0203022
0.395418
0.020135
0.0203041
0.33542
0.0366432
0.0204293
0.0206779
0.305346
0.0397615
0.020611
0.0235721
0.0203513
0.85871
0.283881
0.0214426
0.0201852
0.683443
0.558653
0.0210615
0.0200627
0.183693
0.0214067
0.0201548
0.739006
0.0208658
0.0839381
0.0204408
0.407913
0.223702
0.0709021
0.0670438
0.0203821
0.0344781
0.0205819
0.0223929
0.191812
0.0201184
0.0228598
0.01977
0.468871
0.0206524
0.0203115
0.0199256
0.0204138
0.020176
0.0200757
0.0363072
0.0213401
0.0523763
0.0218326
0.0196547
0.0220973
0.142505
0.0205106
0.0135896
0.0202384
0.0209967
0.538623