/*--------------------------------*- C++ -*----------------------------------*\
| =========                 |                                                 |
| \\      /  F ield         | OpenFOAM: The Open Source CFD Toolbox           |
|  \\    /   O peration     | Version:  v2012                                 |
|   \\  /    A nd           | Website:  www.openfoam.com                      |
|    \\/     M anipulation  |                                                 |
\*---------------------------------------------------------------------------*/
FoamFile
{
    version     2.0;
    format      ascii;
    class       volScalarField::Internal;
    location    "250";
    object      V0;
}
// * * * * * * * * * * * * * * * * * * * * * * * * * * * * * * * * * * * * * //

dimensions      [0 3 0 0 0 0 0];


value           nonuniform List<scalar> 
9793
(
0.0430543
0.212594
0.0467137
0.133047
0.0460594
0.10432
0.168139
0.160294
0.0694582
0.0457614
0.032679
0.0675293
0.166062
0.157162
0.182324
0.167577
0.17132
0.180437
0.0595885
0.161502
0.07382
0.0567365
0.129757
0.210928
0.121348
0.170339
0.167521
0.170459
0.0324177
0.0752046
0.0756934
0.159576
0.15348
0.171397
0.0425906
0.0749816
0.153481
0.0588303
0.147151
0.181703
0.0933982
0.185163
0.154211
0.174253
0.190409
0.140804
0.0371766
0.156055
0.0922493
0.123122
0.0412303
0.0301603
0.084969
0.0801959
0.0352496
0.0789277
0.0870537
0.0239086
0.089726
0.126196
0.166206
0.0819073
0.0828483
0.170119
0.0384977
0.159569
0.108678
0.0915834
0.0642274
0.033665
0.0413909
0.177519
0.122045
0.177804
0.0416392
0.0969477
0.106401
0.172175
0.131155
0.178223
0.124756
0.142469
0.157925
0.17459
0.098113
0.153613
0.181996
0.0961105
0.0897066
0.148289
0.191555
0.0386349
0.132816
0.161744
0.0787947
0.174073
0.0753621
0.166606
0.127591
0.140902
0.156199
0.143173
0.136672
0.137498
0.178909
0.100871
0.0750027
0.162734
0.0920021
0.154947
0.157934
0.0777571
0.104029
0.0818905
0.0292277
0.102296
0.134438
0.0396701
0.139454
0.163936
0.134685
0.138895
0.104886
0.0906508
0.0665719
0.0737497
0.0235728
0.152212
0.131457
0.110779
0.182503
0.090888
0.0939637
0.134988
0.0683457
0.0945715
0.166908
0.170363
0.125872
0.16536
0.0967928
0.121019
0.154696
0.138933
0.163659
0.154565
0.175497
0.1599
0.152022
0.0349338
0.0437577
0.193144
0.0426854
0.0465862
0.149189
0.117649
0.174264
0.116516
0.173019
0.131821
0.134455
0.152706
0.164062
0.0643727
0.195115
0.0871415
0.148541
0.0496231
0.166557
0.14543
0.135139
0.112981
0.192426
0.105634
0.0664849
0.0529379
0.0924011
0.172245
0.105082
0.035739
0.0213846
0.0457458
0.163305
0.114055
0.0986968
0.135969
0.0262905
0.101188
0.101808
0.159405
0.0690351
0.11343
0.0947408
0.075744
0.0867782
0.0404682
0.0554434
0.131688
0.0489143
0.13722
0.0597455
0.0651948
0.0749117
0.101642
0.0825773
0.16626
0.0870172
0.150392
0.0977292
0.0539345
0.0384445
0.100015
0.0913712
0.0704915
0.0498396
0.178471
0.130859
0.0972665
0.150855
0.0809535
0.0416991
0.10447
0.0600283
0.139566
0.152622
0.0587092
0.10738
0.146043
0.0370227
0.0266954
0.205882
0.193977
0.0413216
0.143067
0.0252851
0.0771541
0.108999
0.126411
0.0771905
0.155657
0.0972464
0.14956
0.124543
0.145351
0.123641
0.134442
0.170862
0.122484
0.141657
0.139968
0.0593928
0.0426839
0.0323888
0.024581
0.118635
0.0663526
0.130089
0.0389559
0.105094
0.162457
0.119404
0.121171
0.0312788
0.147397
0.0476625
0.136184
0.166029
0.0362921
0.060317
0.101391
0.129481
0.158116
0.0554482
0.0948773
0.156004
0.15611
0.0877297
0.078889
0.136118
0.0255888
0.124588
0.159158
0.161603
0.172534
0.0177163
0.0779967
0.0633127
0.0457295
0.172491
0.0825752
0.105136
0.115979
0.0918847
0.156793
0.160305
0.131907
0.0594261
0.0430632
0.142385
0.0621365
0.132724
0.108321
0.125405
0.155812
0.160175
0.121722
0.050336
0.0437994
0.109076
0.0939318
0.148233
0.124438
0.0453281
0.0700646
0.0689573
0.136057
0.152342
0.123392
0.0533203
0.0475613
0.121375
0.166148
0.0547778
0.177362
0.16702
0.0162792
0.0599174
0.0874289
0.0358284
0.152337
0.039612
0.0430492
0.136533
0.0968688
0.0218512
0.15211
0.131302
0.0649565
0.152735
0.145622
0.0467175
0.100975
0.119135
0.0635611
0.149435
0.15804
0.166147
0.0603939
0.181888
0.0483575
0.0628129
0.0676263
0.0767855
0.138148
0.108289
0.0763221
0.072746
0.178116
0.0289233
0.0373608
0.0237144
0.0279446
0.0733389
0.125296
0.0534721
0.136152
0.124811
0.13481
0.136578
0.1309
0.098859
0.0522461
0.0691697
0.0234649
0.0569652
0.0998109
0.119675
0.131852
0.0338284
0.179875
0.0597545
0.0743539
0.103879
0.139027
0.0596134
0.173139
0.146859
0.160563
0.0756443
0.0649177
0.0948715
0.0539555
0.0259827
0.129403
0.0541078
0.0258831
0.154323
0.178393
0.0539229
0.0379314
0.127083
0.145994
0.046162
0.05391
0.158867
0.0743704
0.111658
0.0647042
0.160453
0.0399314
0.086263
0.0304134
0.0801205
0.140784
0.109448
0.110955
0.056877
0.114676
0.149098
0.0768356
0.148494
0.0545436
0.120315
0.0571447
0.0285351
0.0752923
0.103911
0.0580618
0.163164
0.0351102
0.158516
0.0711411
0.163259
0.119903
0.159772
0.111676
0.137151
0.104476
0.130814
0.137522
0.16704
0.0518926
0.0964969
0.133537
0.0397215
0.160339
0.101366
0.0580688
0.0670292
0.0583813
0.0347626
0.0992877
0.102044
0.103732
0.06637
0.0405777
0.0388286
0.16172
0.127347
0.134206
0.108186
0.0239685
0.108518
0.13712
0.101795
0.151993
0.162745
0.0801386
0.0337219
0.0972637
0.142561
0.0548108
0.174424
0.176201
0.172279
0.134122
0.0667498
0.12825
0.104951
0.161166
0.15299
0.0928368
0.108517
0.159823
0.10182
0.123211
0.0960083
0.0587506
0.0703808
0.104826
0.172041
0.152303
0.0580962
0.0946852
0.0607065
0.153947
0.139863
0.125708
0.113126
0.116193
0.157893
0.0292374
0.139686
0.0959776
0.0464238
0.128658
0.0973776
0.142938
0.0742174
0.104205
0.0658754
0.154399
0.120827
0.0301596
0.101702
0.0298926
0.131379
0.0484771
0.133179
0.0247598
0.0971225
0.140709
0.105096
0.0214034
0.100699
0.141971
0.115463
0.113835
0.135319
0.0230956
0.0442803
0.0927338
0.103876
0.116919
0.075417
0.151324
0.118194
0.0728428
0.0230248
0.153253
0.0979535
0.0365079
0.0966498
0.144925
0.068811
0.165879
0.023147
0.102397
0.0864918
0.0186728
0.122567
0.0847381
0.04393
0.0967722
0.131135
0.12259
0.137447
0.162409
0.100971
0.0910356
0.136655
0.0400834
0.024229
0.0653509
0.0408894
0.143838
0.0260352
0.0935775
0.138634
0.0662821
0.0994692
0.159328
0.141342
0.139666
0.044068
0.122541
0.0174175
0.150566
0.165411
0.0384275
0.0476021
0.0325388
0.0919578
0.10476
0.0939743
0.096112
0.0509156
0.0840817
0.129078
0.0534356
0.111396
0.137476
0.0449237
0.0463375
0.0978632
0.0745476
0.0974603
0.0412018
0.0435638
0.0445001
0.147235
0.135486
0.0651748
0.0443278
0.0734686
0.0468151
0.106973
0.0818411
0.0538396
0.0337738
0.129408
0.103214
0.135878
0.12284
0.124793
0.11851
0.114901
0.163372
0.118081
0.121717
0.12479
0.0697416
0.154436
0.0407484
0.141894
0.0703768
0.0704982
0.0328235
0.0253735
0.146517
0.11968
0.100037
0.142435
0.158681
0.130343
0.157571
0.123713
0.0643862
0.152583
0.0365
0.159979
0.164969
0.0768555
0.0980293
0.11532
0.156413
0.0266422
0.135885
0.0829627
0.0159596
0.0917532
0.156877
0.168703
0.0166622
0.130413
0.0233561
0.0374504
0.131161
0.134116
0.0888353
0.0705234
0.133553
0.11015
0.159398
0.162711
0.098351
0.0348969
0.10002
0.020635
0.0802508
0.0940205
0.0771102
0.133915
0.105107
0.124278
0.0302758
0.120732
0.0429004
0.0658035
0.0170174
0.0674382
0.119567
0.112923
0.0253398
0.119769
0.0912483
0.0229926
0.0197226
0.119053
0.147799
0.0894688
0.133051
0.150942
0.122271
0.142915
0.136484
0.0621353
0.106897
0.117734
0.130763
0.153402
0.121526
0.1576
0.0744684
0.156648
0.125517
0.0376814
0.148323
0.0303641
0.07206
0.0313646
0.101455
0.0620713
0.0979689
0.0738015
0.0194939
0.160449
0.12746
0.139321
0.0961282
0.0559418
0.129043
0.140721
0.126656
0.116984
0.147058
0.119624
0.0258986
0.111068
0.0380293
0.0300098
0.0653388
0.065089
0.155659
0.132024
0.16004
0.130965
0.0634355
0.124691
0.0843991
0.144775
0.157403
0.123863
0.11705
0.0883079
0.0974124
0.0897771
0.160327
0.103129
0.100504
0.0369143
0.146608
0.14076
0.135638
0.10048
0.12207
0.0928793
0.0248422
0.123538
0.143919
0.140754
0.123986
0.0730472
0.0386687
0.0439753
0.0367986
0.140614
0.0209058
0.134238
0.136511
0.10153
0.0920022
0.114754
0.0495201
0.140716
0.063932
0.132252
0.1138
0.152664
0.155066
0.127993
0.0853765
0.0883419
0.0397739
0.114501
0.0575438
0.0422844
0.0155503
0.136088
0.0196926
0.128857
0.0251026
0.113887
0.145971
0.125861
0.143459
0.0356112
0.128255
0.0581397
0.16492
0.141684
0.156057
0.041461
0.150842
0.0422591
0.122751
0.122381
0.149676
0.140065
0.0733299
0.130757
0.150283
0.123525
0.100059
0.140909
0.0680057
0.0786969
0.0919935
0.145187
0.147298
0.147396
0.111256
0.0260489
0.101434
0.0968597
0.0392196
0.147176
0.164192
0.132318
0.144973
0.0414686
0.03371
0.057606
0.15289
0.089358
0.120272
0.165411
0.0585357
0.0634009
0.152199
0.0529905
0.168591
0.0659165
0.112785
0.093426
0.0242158
0.133181
0.156853
0.0408967
0.150846
0.0284221
0.0851881
0.131247
0.139257
0.155482
0.133889
0.0612739
0.0250452
0.161472
0.151596
0.129502
0.159959
0.129034
0.151248
0.0617443
0.148537
0.148623
0.140154
0.107682
0.032063
0.0703795
0.133602
0.0190473
0.145036
0.0931995
0.0762836
0.134667
0.0742254
0.133152
0.107335
0.0229676
0.131487
0.124806
0.153282
0.0535987
0.0685051
0.0234085
0.127463
0.128511
0.0266577
0.153874
0.160255
0.0327544
0.128871
0.0360188
0.143916
0.151374
0.147159
0.0544934
0.151676
0.170326
0.158501
0.15154
0.128753
0.0552943
0.0314705
0.13292
0.0342011
0.116859
0.0871654
0.0635573
0.0838889
0.0414955
0.0353451
0.115377
0.122268
0.0811759
0.0300362
0.0224951
0.117928
0.128857
0.147226
0.152645
0.0248014
0.0348554
0.0458149
0.144523
0.0334178
0.118411
0.125499
0.116762
0.147842
0.0751235
0.150108
0.122516
0.0247524
0.0754082
0.026843
0.119294
0.0244641
0.0631145
0.0413957
0.140136
0.0978042
0.147615
0.156582
0.0722211
0.0469489
0.128448
0.174613
0.100924
0.136432
0.033602
0.118112
0.149861
0.132682
0.0684177
0.136773
0.10513
0.146569
0.021765
0.135886
0.0690273
0.12679
0.146348
0.0743303
0.155774
0.0191698
0.106411
0.0393904
0.0542021
0.151662
0.14414
0.0210399
0.128688
0.142001
0.1109
0.0234782
0.103055
0.11586
0.100045
0.153345
0.0653688
0.0827615
0.0313308
0.047944
0.0966501
0.0902772
0.105237
0.0631674
0.177488
0.0647669
0.100147
0.0710638
0.144954
0.139809
0.0628549
0.158694
0.0637223
0.124218
0.0763103
0.146537
0.0854776
0.0968985
0.144389
0.0959142
0.144212
0.101052
0.126185
0.079786
0.0762148
0.149538
0.134398
0.136462
0.0433634
0.0905587
0.15121
0.0280426
0.108413
0.0238169
0.0739851
0.129757
0.0967202
0.119992
0.104277
0.0882374
0.129191
0.0961673
0.144821
0.0272361
0.0709227
0.140923
0.11779
0.123358
0.103493
0.0598432
0.0861013
0.144095
0.0745148
0.129648
0.0652624
0.0197256
0.0683953
0.074667
0.134429
0.0948664
0.047807
0.0956968
0.137148
0.126868
0.133296
0.126045
0.0646212
0.143591
0.0240905
0.13339
0.105926
0.14824
0.0238874
0.0761794
0.108928
0.022084
0.0685295
0.141651
0.0801272
0.144384
0.0230808
0.0993958
0.158528
0.0211237
0.0430895
0.178345
0.115021
0.0331928
0.0887942
0.0610818
0.135828
0.0670082
0.0624509
0.149294
0.107591
0.0636503
0.132711
0.147983
0.158446
0.0733116
0.156554
0.157992
0.0228418
0.115709
0.0771777
0.0527394
0.155864
0.0613355
0.0976644
0.149607
0.0430244
0.11512
0.099091
0.0998041
0.157598
0.0730563
0.135799
0.0972939
0.0591963
0.129727
0.119607
0.0625944
0.103103
0.0818462
0.150685
0.168134
0.0355085
0.0924131
0.157619
0.101235
0.157391
0.0340978
0.123703
0.0605604
0.138929
0.150937
0.109448
0.13853
0.0261467
0.0934325
0.140117
0.14522
0.123176
0.144176
0.112246
0.128599
0.131125
0.0455003
0.118484
0.102419
0.097263
0.163277
0.148481
0.142229
0.0597137
0.147474
0.0623399
0.0809786
0.106178
0.0671649
0.027372
0.141327
0.145322
0.0217145
0.112934
0.0201455
0.0162706
0.148527
0.146369
0.157644
0.0401357
0.0407309
0.130256
0.144808
0.157637
0.0245992
0.0408282
0.157357
0.0973107
0.0737616
0.115569
0.0321973
0.0344799
0.0154572
0.0243515
0.147073
0.0406474
0.0228561
0.136107
0.0302933
0.135225
0.144617
0.100021
0.146335
0.121806
0.0279162
0.020342
0.0242114
0.0256263
0.156958
0.122924
0.025782
0.117535
0.131483
0.0619119
0.0678357
0.0336747
0.149892
0.143794
0.1471
0.068596
0.105809
0.173458
0.125312
0.0668508
0.125864
0.0213898
0.0659055
0.0693452
0.0201276
0.0542613
0.102573
0.0696885
0.156808
0.0165091
0.0152517
0.0999891
0.149666
0.0982151
0.0182502
0.145705
0.0382164
0.0510055
0.149902
0.150237
0.116191
0.0303225
0.0323685
0.109429
0.0194692
0.0934394
0.138665
0.141302
0.153661
0.0802612
0.0950321
0.0657453
0.0286342
0.128945
0.153815
0.146011
0.134682
0.0268803
0.0656699
0.0241261
0.0984266
0.108039
0.0395885
0.13139
0.148411
0.109222
0.148263
0.114782
0.0300218
0.0609633
0.153411
0.144325
0.130384
0.129659
0.149087
0.0479377
0.119003
0.0986415
0.118476
0.0191198
0.129584
0.0195802
0.100736
0.0707495
0.0519111
0.11255
0.0343388
0.0670363
0.0187734
0.0274431
0.130662
0.0389848
0.0446014
0.153394
0.022511
0.029822
0.0208946
0.0530533
0.148259
0.0400676
0.103596
0.0246223
0.0933904
0.0219977
0.0252974
0.15514
0.018983
0.0887177
0.0583516
0.036222
0.0505147
0.0215927
0.127888
0.0533884
0.113965
0.135607
0.0701733
0.0883418
0.169085
0.0429469
0.0507059
0.0971709
0.113845
0.128379
0.0313669
0.0851768
0.121933
0.0773209
0.0664979
0.0251238
0.0984524
0.142907
0.050976
0.0294521
0.0357991
0.0771789
0.14604
0.0543236
0.146853
0.149917
0.146557
0.163513
0.140699
0.0947319
0.0538458
0.0420385
0.118744
0.144842
0.156107
0.0358778
0.150398
0.0485103
0.115412
0.0183943
0.125543
0.149142
0.103081
0.0207708
0.0246875
0.150857
0.172568
0.0505757
0.0422284
0.145312
0.0962787
0.138685
0.0525387
0.117558
0.0736575
0.0570251
0.0509013
0.106479
0.0190875
0.148196
0.148542
0.137017
0.0461099
0.0344398
0.104398
0.149603
0.117411
0.0159311
0.0335235
0.0708556
0.0684627
0.0355901
0.139996
0.100388
0.0551504
0.072974
0.093976
0.0664749
0.153624
0.153536
0.0227175
0.0242044
0.169672
0.0352035
0.150458
0.0354009
0.0383294
0.111406
0.103559
0.0716515
0.116618
0.0746587
0.0784797
0.036614
0.0283402
0.0633296
0.154058
0.101001
0.153411
0.0674152
0.0531016
0.0476363
0.0226681
0.101478
0.0615785
0.127071
0.0236262
0.0784979
0.0235674
0.0818094
0.0734922
0.156475
0.0250971
0.0412787
0.15097
0.0265222
0.0653086
0.0735702
0.131354
0.0957525
0.148368
0.170369
0.0345549
0.106943
0.0586044
0.0519349
0.0368548
0.0403056
0.024668
0.08797
0.0351569
0.126288
0.142896
0.148121
0.0986581
0.169577
0.0265407
0.136345
0.104216
0.0745286
0.123955
0.0542853
0.148169
0.0489668
0.122341
0.119316
0.047048
0.073716
0.159035
0.0551192
0.0507339
0.021985
0.0632685
0.124114
0.0669622
0.0219094
0.114927
0.0233754
0.0264569
0.0760739
0.0959464
0.13626
0.0799204
0.0322386
0.149576
0.111209
0.0746873
0.0241801
0.0796664
0.0631551
0.0475911
0.0284394
0.038646
0.0431759
0.0497665
0.0351859
0.128185
0.0729671
0.145488
0.0297278
0.0179217
0.0412205
0.0367423
0.0598873
0.0609939
0.10293
0.137592
0.100273
0.0527571
0.0778118
0.0493985
0.144632
0.0365821
0.0694198
0.100227
0.106116
0.154158
0.0537982
0.124098
0.0536991
0.0480366
0.0901329
0.0753862
0.02112
0.128861
0.0939882
0.0595699
0.10197
0.0365368
0.0771689
0.11121
0.07623
0.147418
0.0668491
0.0381317
0.0742446
0.0550853
0.0760764
0.0815967
0.0743895
0.0553091
0.0313368
0.0549557
0.12296
0.144365
0.0733174
0.0212651
0.0713395
0.0485447
0.14719
0.0817086
0.0671147
0.0456178
0.0795397
0.1007
0.0617736
0.0777625
0.148945
0.134942
0.130702
0.135284
0.045696
0.134892
0.0709665
0.0784608
0.0988759
0.150832
0.151266
0.0284228
0.0668735
0.150235
0.0699486
0.117337
0.0992848
0.017078
0.126607
0.148206
0.118468
0.164617
0.0562508
0.128387
0.0671231
0.151749
0.119278
0.130287
0.150567
0.0556764
0.0918936
0.0619426
0.151485
0.0627217
0.0245708
0.0934603
0.116595
0.112601
0.0811118
0.0957638
0.117474
0.100132
0.06846
0.074099
0.165482
0.034583
0.0856748
0.0955816
0.0161302
0.0247232
0.0952587
0.0905508
0.116344
0.0528592
0.0970445
0.127539
0.0631955
0.147169
0.12572
0.103151
0.105312
0.0921546
0.105614
0.0816735
0.0190885
0.0233006
0.0976146
0.0978672
0.14558
0.143542
0.154601
0.0518074
0.135755
0.126032
0.056919
0.101219
0.0995953
0.0573053
0.0779238
0.165778
0.0467261
0.149296
0.0880573
0.101616
0.0866746
0.0932825
0.13039
0.155318
0.109842
0.0480139
0.146613
0.13151
0.1511
0.154732
0.125863
0.0505988
0.0908246
0.149187
0.0457243
0.0404971
0.0499747
0.151057
0.10983
0.0523563
0.0816446
0.10231
0.0966228
0.0507766
0.102121
0.103491
0.153723
0.0256206
0.140228
0.0409799
0.0612907
0.0724151
0.158461
0.148516
0.143846
0.0950385
0.0625764
0.100493
0.0539853
0.0254174
0.0735198
0.141729
0.123487
0.0398188
0.0531243
0.117948
0.0228204
0.0757425
0.123188
0.151961
0.0632617
0.0918853
0.132607
0.122373
0.070535
0.11235
0.0815429
0.0349484
0.117988
0.047992
0.0218074
0.092657
0.0705252
0.105977
0.164029
0.108573
0.0598018
0.141949
0.0973526
0.0880415
0.0827589
0.0356962
0.073517
0.134091
0.0502462
0.13626
0.109606
0.108083
0.0949842
0.146637
0.118856
0.0908687
0.107548
0.0993835
0.0605235
0.0698016
0.122213
0.133372
0.0959077
0.147251
0.153284
0.109954
0.127388
0.129616
0.0938373
0.0826619
0.0955519
0.146982
0.122536
0.0683921
0.143792
0.0871759
0.15008
0.108035
0.1542
0.0663996
0.0737876
0.0618102
0.0522496
0.144912
0.0513962
0.0860354
0.126998
0.112931
0.147988
0.0555738
0.040593
0.0679753
0.0622368
0.117768
0.106746
0.0241216
0.084151
0.152254
0.146337
0.0535931
0.0451045
0.0963837
0.117461
0.155931
0.157748
0.150127
0.141293
0.135808
0.154228
0.102526
0.112514
0.0982025
0.112177
0.0179705
0.165077
0.150415
0.0277167
0.0986777
0.146842
0.115591
0.162054
0.10342
0.0237026
0.107254
0.0614341
0.0834628
0.0595626
0.0493984
0.152647
0.151722
0.0740093
0.0212046
0.149634
0.100137
0.110231
0.106149
0.104678
0.0796201
0.0988538
0.136438
0.0949795
0.0597421
0.069496
0.123449
0.146075
0.142955
0.097988
0.0378164
0.151952
0.0769317
0.0853088
0.0243834
0.0976667
0.154077
0.123738
0.121523
0.104297
0.0811673
0.142452
0.086488
0.149972
0.0969279
0.101522
0.0203902
0.111495
0.103493
0.116994
0.0418061
0.125898
0.10943
0.146796
0.0694562
0.0560792
0.066331
0.171637
0.0604575
0.0364005
0.0997065
0.153138
0.0972485
0.149433
0.143413
0.0789148
0.0824057
0.0280906
0.106559
0.119743
0.124864
0.0918607
0.0931143
0.116653
0.0722244
0.114426
0.068501
0.0982725
0.117923
0.126968
0.0969504
0.090684
0.120392
0.125281
0.142975
0.0939384
0.0558239
0.0969982
0.0193332
0.123804
0.118289
0.118992
0.102538
0.11459
0.0972991
0.109596
0.110653
0.148757
0.0964005
0.151516
0.102339
0.0525627
0.10009
0.148545
0.100766
0.140593
0.0395867
0.121727
0.0913545
0.0761471
0.149916
0.0759913
0.0996646
0.0226723
0.11118
0.132112
0.110212
0.0711536
0.110607
0.14886
0.062017
0.0489139
0.0260963
0.0889921
0.144059
0.0955344
0.153479
0.0245938
0.0956982
0.122009
0.0848198
0.0962108
0.117666
0.129036
0.13094
0.091837
0.119367
0.0879369
0.0931
0.0988802
0.116983
0.139124
0.126029
0.148839
0.0562511
0.102614
0.153283
0.0587739
0.066614
0.0960792
0.0680592
0.112283
0.153456
0.14871
0.062296
0.113023
0.0717513
0.13259
0.147549
0.0905693
0.0688284
0.166572
0.0972572
0.15606
0.0792796
0.0173139
0.146391
0.100598
0.0946802
0.0792911
0.0952614
0.0980889
0.119514
0.165273
0.136558
0.0958281
0.105053
0.151036
0.0862657
0.153477
0.115151
0.099204
0.100912
0.138734
0.112576
0.0901668
0.0903374
0.0905837
0.109316
0.0903278
0.0441918
0.0916567
0.148412
0.146992
0.10727
0.0900639
0.0498054
0.0216067
0.131768
0.0673976
0.100222
0.0739437
0.144402
0.147211
0.147979
0.0737413
0.14967
0.0920406
0.0795929
0.0968466
0.061061
0.0953022
0.0994554
0.0738302
0.0661901
0.118715
0.0517523
0.0997278
0.0975732
0.149883
0.0696815
0.093092
0.0932722
0.11336
0.0640216
0.115194
0.112928
0.110692
0.127039
0.1186
0.0976504
0.0440196
0.126312
0.0968546
0.0677219
0.102898
0.0994659
0.0963063
0.10786
0.064459
0.0900099
0.121106
0.124413
0.0574629
0.0991225
0.0357944
0.114094
0.0929253
0.147287
0.0842968
0.115065
0.100534
0.141655
0.0786188
0.153707
0.0893811
0.105689
0.0940997
0.0965169
0.0686572
0.111626
0.153076
0.109243
0.148797
0.11569
0.102921
0.0827142
0.0358423
0.154523
0.127359
0.0968013
0.15334
0.107615
0.0561649
0.0653724
0.112039
0.144568
0.122744
0.123065
0.147911
0.154689
0.115438
0.103452
0.114497
0.0971434
0.128662
0.0829929
0.0968927
0.0971905
0.100562
0.135494
0.141541
0.110403
0.142229
0.100881
0.154054
0.113555
0.157218
0.101992
0.135498
0.11606
0.149322
0.15363
0.0960364
0.107045
0.156559
0.0854739
0.149916
0.100958
0.0965527
0.100211
0.110964
0.114148
0.151819
0.146275
0.0963907
0.0635375
0.148424
0.130428
0.113314
0.155008
0.0659275
0.100534
0.0981795
0.0658329
0.117473
0.101535
0.155344
0.0824139
0.0557334
0.139976
0.12407
0.123917
0.116056
0.125221
0.151696
0.114013
0.116512
0.126418
0.0475329
0.17242
0.149759
0.151939
0.104681
0.134525
0.142261
0.0693261
0.106686
0.126049
0.150616
0.137227
0.149674
0.126433
0.148648
0.150598
0.14869
0.13027
0.104238
0.0821778
0.129823
0.117716
0.0213067
0.0977544
0.153316
0.106816
0.03495
0.126273
0.111525
0.0809216
0.137428
0.149229
0.127852
0.151905
0.121828
0.122812
0.147542
0.11647
0.150221
0.0632134
0.0771786
0.0541694
0.0936953
0.139978
0.0811612
0.0447343
0.103193
0.046512
0.150216
0.145984
0.12849
0.127787
0.126015
0.152945
0.0949066
0.14841
0.150468
0.091789
0.115594
0.111942
0.0995862
0.12054
0.125203
0.0684991
0.0554227
0.121462
0.11091
0.148076
0.08758
0.0799959
0.129835
0.0214345
0.149712
0.15235
0.0822786
0.0982162
0.151112
0.064124
0.114058
0.147239
0.108856
0.152043
0.128038
0.154343
0.0794815
0.142383
0.119195
0.131903
0.105975
0.068437
0.123341
0.0374255
0.134418
0.133995
0.127308
0.0606587
0.0409133
0.145014
0.123079
0.129872
0.121941
0.128434
0.0310706
0.100043
0.118103
0.105533
0.148872
0.131543
0.0552645
0.109233
0.124491
0.13524
0.101088
0.148812
0.0782363
0.147527
0.142501
0.127063
0.104411
0.118719
0.0238727
0.119627
0.133271
0.0914672
0.141307
0.0305364
0.154022
0.116597
0.0886868
0.150379
0.109542
0.132751
0.068511
0.168947
0.159503
0.0536826
0.13484
0.120485
0.131688
0.101052
0.095482
0.0694061
0.0892034
0.151596
0.125914
0.123196
0.113311
0.0281026
0.14223
0.143191
0.138777
0.0622339
0.11519
0.107663
0.123848
0.110509
0.105205
0.111756
0.132884
0.107114
0.112637
0.130915
0.131058
0.119959
0.110629
0.124504
0.139007
0.108178
0.146343
0.0904132
0.153162
0.109518
0.146022
0.0539342
0.132007
0.114021
0.133532
0.151185
0.113284
0.0325178
0.0211975
0.0981722
0.0420788
0.100759
0.101952
0.110269
0.0358147
0.0640154
0.116481
0.0362383
0.14896
0.141578
0.117336
0.110774
0.100577
0.148977
0.145705
0.154068
0.113934
0.112924
0.121114
0.149314
0.147778
0.042173
0.134798
0.0705991
0.0906066
0.148573
0.101432
0.126028
0.147201
0.105303
0.0578789
0.117668
0.136196
0.100958
0.148437
0.0223305
0.141754
0.120479
0.157871
0.0974649
0.136073
0.137221
0.0380942
0.15286
0.110295
0.0982953
0.127633
0.105266
0.152463
0.103237
0.122656
0.144146
0.146289
0.146933
0.153184
0.0517619
0.0972442
0.145118
0.0968868
0.0971417
0.119207
0.130559
0.0991293
0.135387
0.127448
0.141411
0.13124
0.0689859
0.0794415
0.0898123
0.131247
0.11071
0.148728
0.0805966
0.121997
0.111568
0.100361
0.070139
0.135891
0.149975
0.0670519
0.0776136
0.146229
0.115971
0.133936
0.149219
0.128581
0.0395438
0.134183
0.124736
0.14618
0.140474
0.142907
0.152815
0.129747
0.124978
0.148331
0.127998
0.135948
0.139715
0.0615393
0.14849
0.131546
0.15267
0.0475996
0.14056
0.115764
0.103689
0.114206
0.148376
0.132728
0.14911
0.151824
0.126135
0.136532
0.0918632
0.140406
0.132364
0.116657
0.0323527
0.0506296
0.123337
0.102312
0.146266
0.153339
0.135141
0.134246
0.135961
0.147206
0.152692
0.103853
0.152074
0.121129
0.115776
0.10354
0.113564
0.1405
0.096365
0.128939
0.0691486
0.110805
0.11689
0.135927
0.152547
0.0969111
0.101865
0.12805
0.0564441
0.112161
0.0581876
0.0890807
0.120119
0.106845
0.149933
0.140856
0.161315
0.0978795
0.0356637
0.110102
0.116132
0.137608
0.0487511
0.113512
0.0637683
0.11667
0.116648
0.140928
0.127466
0.115764
0.10854
0.128788
0.128839
0.121399
0.141359
0.120831
0.13996
0.125544
0.118762
0.101717
0.135911
0.0343192
0.0308739
0.138755
0.132484
0.0368258
0.0935938
0.12496
0.142466
0.124178
0.142994
0.150691
0.115767
0.0994571
0.127621
0.118369
0.105796
0.119079
0.126689
0.0723081
0.0770412
0.0705614
0.115928
0.0942594
0.10922
0.13937
0.147838
0.0911205
0.140264
0.0387183
0.0582093
0.117985
0.152069
0.127375
0.123186
0.131301
0.12587
0.140705
0.118051
0.11829
0.132413
0.117175
0.101592
0.15318
0.140078
0.118168
0.121306
0.0877361
0.109462
0.152067
0.131441
0.0986307
0.10315
0.125106
0.119752
0.0996641
0.153126
0.116588
0.152808
0.125391
0.122661
0.152672
0.0745644
0.11722
0.0838004
0.154035
0.119063
0.14632
0.135025
0.0396131
0.101471
0.139872
0.146026
0.147983
0.153132
0.133259
0.135582
0.108128
0.128087
0.0459942
0.0760487
0.167454
0.107033
0.100013
0.123455
0.1318
0.148604
0.131686
0.143066
0.0906485
0.149639
0.116854
0.11544
0.120792
0.148948
0.0413878
0.110958
0.135919
0.147873
0.0821899
0.135976
0.0975339
0.0286622
0.100194
0.142468
0.0453112
0.12987
0.14717
0.143721
0.129907
0.148752
0.0218779
0.123334
0.106915
0.143173
0.101074
0.127198
0.124758
0.126463
0.0981839
0.142203
0.0982105
0.132722
0.152324
0.132258
0.0495742
0.139405
0.145575
0.130634
0.106365
0.0488965
0.152636
0.0555635
0.100653
0.12564
0.136459
0.127915
0.0990901
0.154011
0.147868
0.121398
0.134479
0.128858
0.105769
0.0554411
0.139517
0.131508
0.10949
0.105402
0.126922
0.147561
0.124017
0.0682042
0.139607
0.0348081
0.119231
0.108635
0.153911
0.153858
0.126777
0.135445
0.124961
0.152308
0.102863
0.09272
0.120018
0.117954
0.122333
0.149283
0.129295
0.0357897
0.131672
0.0935448
0.144717
0.148682
0.0629762
0.11775
0.154
0.130705
0.129843
0.0285842
0.14252
0.131858
0.119683
0.14367
0.130341
0.131069
0.0991684
0.145949
0.0533051
0.154076
0.114703
0.133114
0.124049
0.0772266
0.136772
0.124278
0.151857
0.141928
0.126218
0.130411
0.169466
0.0904057
0.125346
0.142933
0.116332
0.142553
0.105293
0.133823
0.120624
0.130215
0.0759711
0.112749
0.0577913
0.142854
0.139559
0.132487
0.131262
0.146219
0.111888
0.134541
0.108806
0.107233
0.123365
0.123035
0.130403
0.137049
0.135722
0.141016
0.125118
0.133328
0.140825
0.101496
0.128551
0.127831
0.139022
0.127737
0.0838416
0.131794
0.130812
0.15645
0.136843
0.0560403
0.0392349
0.0697617
0.142287
0.126445
0.123914
0.157276
0.111765
0.147186
0.138179
0.147235
0.155091
0.141163
0.0662723
0.133941
0.142067
0.14053
0.149017
0.14905
0.128665
0.128615
0.143338
0.0829291
0.147156
0.0348229
0.131113
0.145362
0.0978328
0.141271
0.148122
0.13316
0.152253
0.103198
0.14369
0.125372
0.142617
0.159914
0.112352
0.144213
0.106389
0.151033
0.135294
0.128755
0.148397
0.134908
0.138535
0.132936
0.153214
0.124008
0.119749
0.136592
0.130045
0.130032
0.0797468
0.0260728
0.13313
0.144304
0.0771015
0.138868
0.145918
0.133989
0.0364676
0.145763
0.0971482
0.0274872
0.148415
0.117774
0.147441
0.11281
0.140964
0.113872
0.148655
0.115912
0.134542
0.107835
0.132124
0.143061
0.156106
0.132113
0.0840433
0.0828704
0.113565
0.147362
0.13608
0.137858
0.129745
0.133362
0.137702
0.118593
0.129257
0.0987223
0.153092
0.151861
0.025696
0.135268
0.145753
0.125587
0.148854
0.153147
0.130281
0.141522
0.136147
0.146076
0.147083
0.117648
0.152435
0.136991
0.10304
0.152826
0.148595
0.164985
0.0427948
0.0801313
0.0336455
0.127681
0.133774
0.179826
0.132434
0.147583
0.0980719
0.11733
0.141848
0.152537
0.0990318
0.130244
0.0252367
0.132226
0.146012
0.12138
0.15202
0.152774
0.147316
0.145041
0.147361
0.140483
0.111903
0.145983
0.148453
0.134435
0.13148
0.090376
0.146376
0.135929
0.146938
0.161751
0.0922265
0.140733
0.15157
0.161569
0.152346
0.104605
0.141712
0.133226
0.126958
0.102008
0.0934152
0.129508
0.14265
0.143316
0.0417708
0.0664493
0.145365
0.143694
0.105151
0.126215
0.155442
0.0884403
0.115263
0.148546
0.129023
0.130732
0.132665
0.148788
0.132948
0.117388
0.129543
0.147723
0.0908564
0.0615577
0.135912
0.0911606
0.110729
0.128899
0.0278612
0.147285
0.152228
0.146351
0.145999
0.134619
0.148665
0.15476
0.0263997
0.147304
0.145982
0.144629
0.148541
0.146462
0.0978162
0.135176
0.0496244
0.152942
0.149043
0.0988241
0.131666
0.13266
0.128452
0.0717286
0.113854
0.147403
0.148347
0.143635
0.125005
0.13527
0.134432
0.159927
0.11918
0.132171
0.0867967
0.136454
0.136048
0.126494
0.133079
0.131919
0.18575
0.146029
0.142494
0.138146
0.137567
0.144864
0.147041
0.13431
0.129612
0.129966
0.154633
0.0902413
0.147284
0.145818
0.144354
0.135792
0.139916
0.147819
0.131445
0.114898
0.146451
0.110999
0.143437
0.125371
0.0555582
0.143047
0.101837
0.152361
0.146789
0.145804
0.133804
0.0989532
0.115137
0.13504
0.130417
0.153755
0.147878
0.144913
0.137219
0.132391
0.131779
0.115431
0.132064
0.13775
0.147441
0.128351
0.147458
0.146408
0.144842
0.148135
0.141019
0.132162
0.15125
0.138749
0.150875
0.136732
0.146946
0.101196
0.0684003
0.0640433
0.148602
0.104381
0.122709
0.134404
0.148226
0.0876136
0.13148
0.146735
0.100368
0.129017
0.102179
0.148506
0.127314
0.146839
0.13259
0.134918
0.146357
0.135598
0.135644
0.137169
0.146855
0.148157
0.12694
0.152896
0.132134
0.144392
0.147195
0.151608
0.145651
0.149293
0.148643
0.0542735
0.0763422
0.0402014
0.131549
0.153105
0.124599
0.132386
0.14431
0.129279
0.147592
0.112018
0.133162
0.15216
0.118247
0.151088
0.121804
0.148479
0.148614
0.127867
0.0723763
0.146134
0.124258
0.141451
0.146023
0.167174
0.145272
0.1431
0.137848
0.133851
0.143005
0.146114
0.130615
0.0942662
0.142709
0.161479
0.150766
0.171089
0.155777
0.143069
0.103776
0.122476
0.146064
0.131009
0.143085
0.117279
0.123873
0.160136
0.146973
0.146152
0.138611
0.135303
0.0970539
0.148099
0.132259
0.116784
0.142963
0.131698
0.149334
0.148812
0.166022
0.136713
0.143231
0.131219
0.15332
0.134189
0.10186
0.149677
0.147825
0.137319
0.0719487
0.148407
0.144461
0.134477
0.141492
0.132262
0.148771
0.147236
0.10291
0.152462
0.123467
0.150462
0.142547
0.148448
0.146497
0.138487
0.143594
0.151746
0.143533
0.147352
0.148547
0.148219
0.148846
0.147692
0.142342
0.148574
0.143694
0.133159
0.14438
0.132739
0.1366
0.1341
0.147667
0.14196
0.147427
0.115394
0.130939
0.0947912
0.14194
0.146063
0.148839
0.0530141
0.147306
0.149064
0.145649
0.148315
0.115494
0.148434
0.148491
0.148715
0.13438
0.144158
0.135133
0.0791296
0.145256
0.136656