/*--------------------------------*- C++ -*----------------------------------*\
| =========                 |                                                 |
| \\      /  F ield         | OpenFOAM: The Open Source CFD Toolbox           |
|  \\    /   O peration     | Version:  v2012                                 |
|   \\  /    A nd           | Website:  www.openfoam.com                      |
|    \\/     M anipulation  |                                                 |
\*---------------------------------------------------------------------------*/
FoamFile
{
    version     2.0;
    format      ascii;
    class       volScalarField;
    location    "850";
    object      omega;
}
// * * * * * * * * * * * * * * * * * * * * * * * * * * * * * * * * * * * * * //

dimensions      [0 0 -1 0 0 0 0];


internalField   nonuniform List<scalar> 
9793
(
0.132456
0.280043
0.1788
0.0210062
1.88435
0.0225757
0.021819
0.0207631
0.0215618
1.81918
0.0543493
0.0364577
0.0210509
0.0203297
0.0228417
0.0202574
0.0211339
0.0214081
1.20393
0.020307
0.078925
0.0227888
0.377012
0.0195605
0.0216504
0.0211472
0.0202533
0.0207971
0.0405958
0.0215508
0.0326777
0.361418
0.484545
0.0218576
0.0458024
0.300955
0.0223618
0.0227702
0.0208252
0.0210201
0.0325277
0.0228718
0.0220862
0.0219253
0.0221047
0.0213273
0.0441308
0.0863795
0.62772
0.0209793
0.0474962
0.0590651
0.022827
0.0215762
0.134629
0.105357
0.0214291
0.0941629
0.471881
0.0208087
0.0216198
0.0227929
0.548048
0.0218681
1.81191
0.466444
0.52842
0.649699
0.0441433
0.05336
0.134907
0.0207833
0.0211221
0.272477
0.0528526
0.383403
0.0214221
0.0200321
0.021287
0.0209201
0.463482
0.0212177
0.274354
0.0882439
0.0290834
0.101169
0.0210356
0.0214168
0.0223344
0.0213731
0.284011
1.33951
0.0203672
0.359952
0.0225443
0.108365
0.0980261
0.281763
0.0203402
0.0202428
0.020229
0.0212706
0.0203995
0.0203889
0.0200374
0.0285646
0.0221969
0.0217027
0.0225244
0.172669
0.0209662
0.0699728
0.0214114
0.271656
0.0585625
0.0214309
0.487152
0.0514424
0.0215083
0.340652
0.129286
0.0225952
0.0213282
0.0228269
0.0218354
0.0722497
0.0376708
0.118541
0.0217691
0.0211488
0.0213645
0.0214258
0.0211483
0.0214316
0.0215284
0.0214131
0.022195
0.0217602
0.0214044
0.0199617
0.0213178
0.0215648
0.0211745
0.0202429
0.0204095
0.0205639
0.243483
0.0202477
0.0203448
0.894125
0.565131
0.0213639
0.722697
1.82171
0.0203304
0.0219915
0.0206331
0.021491
0.0202353
0.021126
0.0207603
0.0207895
0.0201259
1.30789
0.269451
0.108863
0.108782
0.0248551
0.0202174
0.0209932
0.0211768
0.591535
0.268084
0.592582
0.0217849
1.28924
0.0214216
0.0195672
0.0211651
0.0263502
0.564165
0.0221881
0.020246
0.0215758
0.312097
0.0211074
0.104288
0.0211586
0.021302
0.0201409
0.0217938
0.0213305
0.66611
0.0702586
0.656413
0.0260903
1.48563
0.0209028
1.80247
0.0200302
0.0215202
1.39238
0.122182
0.0211562
0.0214205
0.0198601
0.141081
0.0201982
0.0264891
0.0222736
0.0291776
0.60246
0.665025
0.0215999
1.54651
0.0205225
0.0210923
0.345429
0.0198467
0.832779
0.0678826
0.0213634
0.0218446
0.0213328
0.111317
1.37077
0.022601
0.020331
0.0658552
0.0449215
0.0195932
0.0195655
0.0222592
0.0201682
0.0427914
0.822653
0.0213866
0.0211049
0.0860502
0.0211374
0.0261366
0.020322
0.0210602
0.479291
0.021071
0.0203331
0.0207506
0.0214796
0.0203497
0.0216893
0.0216743
0.0235185
0.0543784
0.0402142
0.0210162
0.0233588
0.0211625
0.0237659
0.0225817
0.0201809
0.292953
0.0210867
0.0540652
0.0215113
0.0252725
0.0196646
0.0196535
0.0290836
1.39398
0.0219795
0.0202009
0.0200074
0.0254074
0.021383
0.277464
0.277163
0.0211584
0.0786844
0.0213673
0.0403184
0.0214137
0.0196262
0.0221219
0.0208996
0.0376349
0.0213605
0.02167
0.0244868
0.0210601
0.0214119
0.0213932
0.484058
0.0221267
0.0224608
0.0214145
0.0214096
0.0219604
0.0249392
0.0212441
1.18116
0.0203423
0.399157
0.489286
0.022135
0.0219114
0.0202244
0.0260825
0.0236965
0.0213404
0.416163
0.0217314
0.020212
0.0238324
0.0217872
0.0215088
0.0212522
0.0903543
0.0210668
0.0246941
0.0223292
0.0209884
0.273396
1.48796
0.256891
0.0197287
0.329158
0.0220535
0.599128
0.0594693
0.0200509
0.0229603
0.0578305
0.021141
0.0247693
0.0636101
0.0207243
0.0219719
0.0215022
0.021044
0.0208494
0.99409
0.0211588
0.0209762
1.23533
0.0211467
0.0202323
0.0197157
0.0222221
0.0207379
1.39905
0.0218936
0.0213678
0.0216233
0.0212613
0.488648
0.0215541
0.0318244
0.0195753
0.0342359
0.123653
0.104375
0.03652
0.022169
0.0218116
1.54214
0.0217101
0.288318
0.0211374
0.0202154
0.489037
0.0244757
1.45206
0.0213712
0.0458397
0.424223
0.0224237
0.0210876
0.487558
0.02493
0.257699
0.0233807
0.021531
0.522915
0.0212707
0.0221606
0.0217863
0.0212626
0.020292
0.0215563
0.0230264
0.512827
0.021698
0.4394
0.355151
1.53137
0.0452723
0.210372
0.0209278
0.0215015
1.60973
0.355353
0.0203368
0.021792
1.37894
0.0199962
0.438598
0.0211233
0.0230486
0.0199826
0.0304613
0.021151
0.025427
0.0837561
0.0202179
0.378173
0.023531
0.0219662
0.0236198
0.0210463
0.022036
0.0206501
1.33161
0.0213429
0.0215289
0.0627398
0.0215156
0.0225358
0.0220544
0.0201006
0.0271009
0.0211321
0.0215357
0.0199333
0.394427
0.020477
0.395961
0.0210156
0.674122
0.0228618
0.0210637
0.0222685
0.021698
0.339166
0.0208828
0.102661
0.0201731
0.0211898
0.0221513
1.39467
0.0355923
0.135896
0.637508
0.0228349
0.0212597
0.0369483
0.0268288
0.0293264
0.278126
0.442141
0.0216315
0.0225982
0.0458996
0.0213329
0.021334
0.0213122
0.0203863
0.0220417
0.176812
0.0254409
0.420164
0.0204004
0.0264206
0.0195528
0.021684
0.0215255
0.0212451
0.0373194
0.0210761
0.02223
0.0199732
0.0213978
0.0228491
0.0758185
0.0211662
0.0212584
0.494229
0.0235597
0.021901
0.496849
0.67756
0.0215122
0.021978
0.0222628
0.0229138
0.0215503
0.0223343
0.0220829
0.020945
0.0211804
0.021031
0.207004
0.0602712
0.0206308
0.310353
0.0307289
0.0202923
0.0221425
0.0213187
0.0652347
0.0214055
0.0541631
0.0200757
0.0210726
0.0500238
0.0212917
0.031743
0.456801
0.0253165
0.0202846
0.470828
0.0233281
0.0205431
0.0211717
0.0539975
0.0209007
0.0205288
0.0212679
0.0208967
0.473869
0.0428731
0.0298673
0.0223339
0.0211417
0.0210232
0.021476
0.020866
0.0212835
0.0561402
0.112524
0.0200215
0.0222053
1.65526
0.0213302
0.0253685
0.0326953
0.0207225
0.0575563
0.461417
0.0213778
0.141889
0.0196346
0.14818
0.0242961
0.552308
0.0211018
0.0210442
0.0211519
0.291302
0.0218923
0.459513
0.469366
1.7708
0.0328199
0.0918085
0.029206
0.0228611
0.0291344
0.0220327
0.331178
0.0215435
0.660285
0.0198963
0.246195
0.0219758
0.0219153
0.0210064
0.152905
0.0199363
0.0207423
0.022198
0.0224963
0.0259384
0.0211339
0.0212574
0.0213074
0.021285
1.1964
0.0209763
0.440412
1.04127
0.0209879
0.0218068
0.027013
0.0217908
0.0213083
0.0217207
0.0224685
0.0243046
0.0221468
0.0225051
0.0204898
0.0214484
0.0220281
0.0238395
0.0217349
0.0223255
0.723362
0.0213203
1.42893
0.0245633
0.021928
0.0212675
0.0206955
0.0219341
0.0222344
0.0210581
0.0206687
0.0195267
0.0210449
0.020649
0.0211687
0.0231751
0.0198581
0.0219149
0.0220264
0.0215354
0.0230343
0.0221984
0.030339
0.0222696
0.021008
0.0212777
0.0205273
0.0199377
0.02095
0.0199707
0.0209589
0.0213296
0.0199248
0.0320006
0.0210267
0.0221751
0.0213437
0.657483
0.0210302
0.0199715
0.0531362
0.0196312
0.0215081
0.162315
0.0216684
0.0223562
0.0214045
0.094626
0.0207058
0.0495521
1.7931
0.388891
0.447698
0.0214533
0.0213507
0.384843
0.0213752
0.0199466
0.221385
0.658949
1.63982
0.0212884
0.0586988
0.0213538
0.0213369
0.235315
0.0211835
0.0447421
0.0215294
0.0599937
0.0209944
0.0229962
0.0219723
0.152751
0.888383
0.0211521
0.0214142
0.0262255
0.0209517
0.0228272
0.0497311
0.23626
0.0210766
0.0206991
0.0213799
0.327685
0.0217418
0.491012
0.34907
0.0209793
0.0272197
0.384499
0.0210308
0.0211547
0.0221405
0.0214446
0.0199221
0.125697
0.0199217
0.456491
0.0228294
0.190356
0.0531821
0.0214917
0.122489
0.542377
0.0217879
0.559149
0.0266347
0.0742893
0.0199337
0.019622
0.361883
0.0213208
0.858707
0.0209544
0.329627
0.0204821
0.0701966
0.372783
0.020972
0.734044
0.0214142
0.0222762
0.0338507
0.816348
1.05538
0.019936
0.0204975
0.0199839
0.425274
1.31342
0.0227139
0.0241345
0.0278202
0.019959
0.0209883
0.0215469
0.0508255
0.0236227
0.0213917
0.0208668
0.0207836
0.451933
1.59363
0.186492
0.0205333
0.0209226
0.65435
0.0211677
0.52278
0.040006
0.461805
0.247884
0.343653
0.0208528
0.0214984
0.0230299
0.0220597
0.0240488
0.0212154
0.0582685
0.377946
0.0204214
0.559192
0.0207746
0.399575
0.0216246
0.336986
0.0241119
0.0228225
0.0210905
0.0204024
0.029368
0.378295
0.385156
0.021393
0.0308784
0.0208577
0.0224315
0.0232266
0.301897
0.0240085
0.0745459
0.020846
0.0266931
0.0211357
0.0198824
0.0218626
0.0209489
1.63709
0.0211411
0.0225064
0.0223034
0.0218261
0.0199085
0.0507673
0.0215215
0.022021
0.0208687
0.0209986
0.30617
0.0210426
0.064396
0.0204315
0.0206811
0.0208567
0.0420728
0.0210505
0.0681599
0.021571
0.0213536
0.0208824
0.336288
0.309756
0.403977
0.169838
0.648325
0.0213056
0.0228937
0.286892
0.0199431
0.352698
0.306907
0.0502823
0.0994205
0.022404
0.305399
0.023237
0.384152
0.289315
0.0223622
0.0215698
0.303169
1.1017
0.0238397
0.0231874
0.0211994
0.0218482
0.0331419
0.0209217
0.0199224
0.0221165
0.0878525
0.0337574
0.0227751
0.373743
0.0208999
0.0199829
0.254247
1.36962
0.0342764
0.0219798
0.0892726
0.0205266
0.0199292
0.491168
0.0199092
0.0222869
0.308235
0.319288
0.0210644
0.484689
0.148837
0.0595816
0.200642
0.281781
0.0223332
0.713149
0.0216698
0.0208338
0.0213379
0.0215929
0.0209454
0.395532
0.0213501
0.49238
0.020324
0.036127
0.0217895
0.0341138
0.0224674
0.0211704
0.0400687
0.0203255
0.0199425
0.0743038
0.0219628
0.0277091
0.0211179
0.0200486
0.314878
0.877405
0.0225067
0.0195447
0.0195349
0.0204051
0.021727
1.34375
0.0733127
0.190088
0.0305849
0.310331
0.0214267
0.0271691
0.0247508
0.0232576
0.100362
0.0211025
0.0210053
0.140186
0.0328129
0.363271
0.0210574
0.358408
0.38555
0.0238991
0.0383362
0.0231604
1.34663
0.0214166
0.0242662
0.361364
0.0221092
0.0210694
0.0793131
0.0216209
0.0205025
0.0209877
0.169891
0.0216822
0.0251353
0.317938
0.0367863
0.0243487
0.0307801
0.176088
0.466517
0.158147
0.0199555
0.021496
0.0219928
0.0225491
0.0212301
0.636504
0.351361
0.0231858
0.446064
0.0461021
0.443365
0.0215197
0.342721
0.0212468
0.327154
0.0695896
0.0206168
0.66941
0.427129
0.0208553
0.0214615
0.0213376
0.211695
0.483346
0.0252354
0.0463644
0.0263613
0.06363
0.320634
0.337976
0.0210518
0.0213875
0.355977
0.234795
0.0210836
0.0212766
0.0199563
0.0217227
0.0215343
0.0242114
1.16609
0.0212655
0.0233412
0.354908
0.0216571
0.0216879
0.0238045
0.649843
0.0215112
0.0224989
0.159241
0.0217847
0.0200258
0.0218383
0.0209114
0.0223096
0.38123
0.455915
0.021511
0.166851
0.0238299
0.159716
0.0213488
0.0219205
0.0221683
0.0216843
0.324087
0.0212985
0.0220718
0.025218
0.021829
0.0204586
0.0248431
0.0212164
0.0924144
0.0214751
0.0210426
0.589918
0.0210813
0.703376
0.0253894
0.0209503
0.0393182
0.0222366
0.0303517
0.0972712
0.0202152
0.34294
0.0209752
0.021376
1.34656
0.492005
0.02023
0.0214688
0.0206706
0.021633
0.0785129
0.0220933
0.0214412
0.0219315
0.0217221
0.0219415
0.0212711
0.0202547
0.0209567
0.0211836
0.426365
0.023605
0.0200064
0.0384062
0.0214683
0.241386
0.0680864
0.0317194
0.0214538
0.0212369
0.0698183
0.0230221
0.0213503
0.0216275
0.386424
0.125979
0.0213582
0.0198107
0.0638658
0.0477447
0.0195999
0.395767
0.0358707
0.0214158
0.021795
0.0254667
0.0215789
0.0276457
0.453959
0.0214861
0.0545958
0.0265073
0.0299061
0.019807
0.0213424
0.0198386
0.0198175
0.126769
0.0210763
0.0573455
0.0448926
0.0198268
0.0218421
0.0299036
0.0215565
0.0216343
0.0213829
0.0223041
0.447035
0.0198291
0.0214839
0.347458
0.0220704
0.0215857
0.0229186
0.0210942
0.0216078
0.0211867
0.0214799
0.0222147
0.0216873
0.0956859
0.476568
0.01982
0.021414
0.0198232
0.0849801
0.0210089
0.0238219
0.0212826
0.0201835
0.0264739
0.0204118
0.0281969
0.0213951
0.0204262
0.309245
0.346388
0.0217214
0.0215944
0.0209562
0.075775
0.147827
0.0213851
0.384982
0.70903
0.0218432
0.0279045
0.386589
0.0232535
0.37694
0.0400818
0.040919
0.0211955
0.0293032
0.09206
0.0203668
0.300674
0.382616
0.021381
0.777883
1.67645
0.0234685
0.381941
0.0198039
0.0256856
0.0428699
0.0212423
0.312268
0.0198039
0.0391143
0.0627243
0.0198049
0.344836
0.0217487
0.021892
0.0309794
0.0233792
0.232904
0.40755
0.0200647
0.0235202
0.279119
0.0207034
0.0241661
0.0208089
0.385703
0.647722
0.0210971
0.0212753
0.0244341
0.267477
0.299058
0.0276167
0.0198184
0.0208981
0.304232
0.434081
0.0797599
0.0225985
0.0227184
0.0249625
0.020033
0.0221617
0.0239182
0.0228745
0.0208695
0.0238024
0.405974
0.112051
0.0209676
0.168441
0.0236164
0.0879433
0.745967
0.0416972
0.722285
0.0846272
0.0198176
0.115417
0.123153
0.439727
0.321866
0.0212472
0.12414
0.327011
0.0400876
0.0241859
0.323992
0.320646
0.0210725
0.0245747
0.023917
0.0212164
0.068544
0.0212709
0.0220066
0.0206207
0.0198063
0.0216889
0.0213493
0.0224842
0.0248236
0.337265
0.0239913
0.314924
0.0208218
0.0256537
0.0215393
0.295284
0.612936
0.0211853
0.042962
0.0212971
0.0202104
0.0212928
0.0201706
0.0210647
0.0915877
0.0215821
0.207038
0.0210324
0.0209459
0.421046
0.0223333
0.0217826
0.0211267
0.0212508
0.376032
0.0682571
0.419903
0.180701
0.658229
0.0215055
0.0217184
0.0213521
0.0236513
0.0403708
0.0797668
0.361108
0.0209585
0.0396907
0.0220587
0.163528
0.335225
0.0241812
0.611686
0.783712
0.0224229
0.0374151
0.0209016
0.0439012
0.0225591
0.0882628
0.0418926
0.0198177
1.47852
0.467762
0.0216299
0.0226644
0.0218384
0.17895
0.0207701
0.0216882
0.444753
0.0208067
0.489206
0.0255781
0.0235903
0.0220506
0.0217578
0.47871
0.0211423
0.433205
0.0239205
0.021291
0.0207137
0.0538254
0.0223965
0.36249
0.0222562
0.0240131
0.0239868
0.0669249
0.0228201
0.0213123
0.328374
0.0216634
0.0204122
0.10064
0.327657
0.0238914
0.0205206
0.0220347
1.38485
0.0599654
0.0211533
0.0317681
0.0204319
0.101167
0.0420477
0.0218826
0.0211125
0.0871949
0.0209598
0.0207358
0.0213668
0.0812522
0.618121
0.0216742
0.0238473
0.0217506
0.0219814
0.3856
0.0300438
0.0215772
0.0216903
0.0210345
0.0631431
0.455342
0.491647
0.0212264
0.133112
0.0202068
0.020155
0.0217777
0.0219303
0.0384934
0.0213486
0.0462306
0.347664
1.48702
0.023663
0.0214899
0.0215218
0.0362901
0.0206082
0.0212499
0.0316964
0.0214798
0.0212583
0.0220926
0.0238998
0.0199962
0.587361
0.0408759
0.023537
0.0231822
0.0262801
0.0229892
1.67617
0.0213629
0.0212565
0.0214761
0.0210461
0.021456
0.0208686
0.121232
0.0896028
0.0215602
0.0220197
0.021227
0.0234819
0.0227252
0.0480589
0.0220029
0.252356
0.0213024
0.0217935
0.0207144
0.0770357
0.0214806
0.258307
0.0214791
0.0215051
0.0195453
0.276936
0.0228842
0.0698055
0.312146
0.0218769
0.0214721
0.0211256
0.0213988
0.0212654
0.0219568
0.0242594
0.404009
0.0215633
0.0578224
0.214323
0.0231015
0.0988095
0.0215061
0.0231965
0.0209833
0.0203534
0.0202183
0.0213506
0.251207
0.0846635
0.0208314
0.495711
0.0542194
0.0212491
0.470449
0.0203287
0.0315119
0.022047
0.0210192
0.638436
0.0214687
0.0223743
0.0235674
0.0461635
0.0758573
0.0218987
0.0209711
0.0223056
0.623828
0.271854
0.0362105
0.0260942
0.0214477
0.0214024
0.347311
0.0216824
0.0278578
0.0279315
0.432038
0.0214551
0.0347102
0.0214687
0.0217524
0.0307443
0.0295778
0.0296708
0.0220517
0.021841
0.0250734
0.403087
0.0436424
0.0204054
0.0245209
0.0911105
0.0230963
0.0381609
0.0216055
0.0217
0.0213395
0.0239478
0.649464
0.0546621
0.0214575
0.970585
0.0235229
0.0256665
0.0214975
0.0213401
0.0213587
0.0199147
0.0476908
0.0222613
0.0222712
0.0220055
0.0213424
0.0214463
0.165132
0.0214062
0.0213888
0.0217382
0.411903
0.141938
0.021436
0.0211517
0.0214714
0.314407
0.0219677
0.101473
0.0214624
0.0471
0.0214402
0.021622
0.0409353
0.0216648
0.0309614
0.0216906
0.0214368
0.0203416
0.0224016
0.155878
0.0217519
0.0219391
0.325757
0.0215278
0.0222299
0.0219944
0.0215731
0.0212311
0.0219047
0.0327028
0.020748
0.0208181
0.0209454
0.345941
0.0236347
0.398221
0.0215013
0.0216719
0.59447
0.350979
0.315678
0.0252874
0.0293217
0.33581
0.0214918
0.412852
0.0219674
0.114318
0.02097
0.111238
0.343259
0.0195543
0.0232494
0.0220767
0.0222314
0.0198538
0.440065
0.0208953
0.333166
0.0216572
0.0213878
0.0217433
0.0198701
0.0217534
0.115652
0.0213407
0.0211339
0.0211317
0.0215694
0.0213697
0.170649
0.688715
0.46156
0.0214874
0.0201925
0.0234295
0.0214719
0.0213188
0.1065
0.0389775
0.0223118
0.0213187
0.260147
0.0225206
0.0204212
0.45181
0.0225799
0.0203044
0.0212838
0.0263682
0.349255
0.0214675
0.0212167
0.0532575
0.123493
0.0437647
0.62139
0.021297
0.0236746
0.0234849
0.0198977
0.0217233
0.32404
0.324007
0.425847
0.0212668
0.60797
0.0217016
0.0214744
0.0239254
0.0218853
0.0238973
0.0330589
0.0212305
0.0214717
0.0213185
0.0208833
0.0199571
0.0211297
0.0242872
0.314882
0.0261174
0.0195478
0.0199821
0.0212707
0.0218009
0.0213272
0.077809
0.0219333
0.0219838
0.0218918
0.330271
0.0212475
0.0229258
0.525151
0.021302
0.0212755
0.382333
0.0212043
0.0213585
0.021223
0.186319
0.0270178
0.0369932
0.0217449
0.241117
0.0201629
0.0201457
0.0204177
0.0212474
0.0352157
0.0212666
0.0216405
0.0418013
0.0213466
0.39854
0.0225341
0.0279395
0.0217223
0.111166
0.0304414
0.0214643
0.0211277
0.02192
0.0215451
0.0213181
0.384627
0.0209668
0.0439455
0.0211646
0.0215745
1.62108
0.0210645
0.979111
0.0812162
0.021294
0.0528317
0.0211445
0.0218294
0.021248
0.0217407
0.0207245
0.0213263
0.0212912
0.021355
0.106779
0.0214866
0.0209625
0.0217959
0.0207938
0.0212057
0.0212065
0.0214132
0.0205141
0.0213065
0.0212604
0.02137
0.021253
0.0218543
1.38824
0.021127
0.0218758
0.044226
0.322658
0.0199323
0.0254176
0.0209778
0.0210473
0.0212816
0.0214333
0.661043
0.325563
0.0211075
0.0226008
0.320154
0.0215387
0.0199534
0.390977
0.019927
0.360554
0.0214689
0.0667112
0.0235506
0.235724
1.41313
0.461127
0.0209883
0.021102
0.0199723
0.0239713
0.0618583
0.0223931
0.0571316
0.42724
0.0213688
0.248935
0.0451249
0.0205905
0.0203988
0.0307431
0.0295877
0.0212908
0.0210236
0.0201027
0.0238596
0.0237833
0.024077
0.0237138
0.0239602
0.395864
0.0210729
0.0212423
0.0211528
0.219499
0.0238909
0.023923
0.15931
0.41316
0.0230904
0.0210403
0.0237481
0.0212189
0.0330599
0.0213517
0.021987
0.0498591
0.0239741
0.100605
0.0198202
0.302847
0.033162
0.0873619
0.327551
0.640505
0.0211136
0.0213404
0.0213305
0.0915548
0.0214054
0.0208836
0.0213319
0.0278564
0.585744
0.271109
0.0236311
0.0227836
0.396047
0.0358782
0.287838
0.044039
0.0442225
0.0366885
0.528627
0.306104
0.0211084
0.0211219
0.0211324
0.0403481
0.0232836
0.0371673
0.0208338
0.0212348
0.0212202
0.193953
0.021174
0.0211807
0.0210537
0.0324068
0.0209489
0.0211539
0.0203173
0.0246557
1.22461
0.0271458
0.023608
0.021493
1.11325
0.0255187
0.0199146
0.0213236
0.0201856
0.179617
0.0215337
0.0215758
0.179053
0.0211452
0.0210013
0.0209641
0.0214137
0.0825762
0.0209991
0.0215245
0.0211113
0.0216193
0.0212335
0.0211374
0.0210562
0.0212333
0.021334
0.400037
0.0212422
0.0206812
0.0763249
0.0483975
0.0257806
0.0625258
0.0209794
0.217708
0.0212862
0.0275802
0.0210803
0.45577
0.0211141
0.0212276
0.0201304
0.315286
0.0240236
0.0211975
0.805944
0.0212075
0.0201264
0.0212128
0.0219587
0.0262731
0.0209589
0.406664
0.021444
0.0361394
0.0381614
0.0213425
0.0317406
0.0210004
0.0206084
0.0211846
0.340105
0.0245934
0.0246006
0.0385556
0.824445
0.025682
0.0310687
0.0240329
0.0213007
0.0197742
0.175745
0.401635
0.0209776
0.0333402
0.0208953
0.0210169
0.391992
0.020512
0.0212748
0.145079
0.0386619
0.478171
0.0212908
0.0210315
0.0351443
0.020941
0.0200148
0.399369
0.021196
0.026094
0.842158
1.35448
0.0213245
0.0221483
0.021121
0.0198273
0.0238547
0.0215679
0.0213985
0.0316768
0.0206743
0.0244348
0.0213468
0.0222989
0.0233517
0.588497
0.0239118
0.0216803
0.167091
0.316996
0.0212352
0.265977
0.0216205
0.021262
0.0213264
0.0209803
0.0235572
0.0195246
0.312644
0.0211598
0.0236542
0.0217633
0.0197353
0.0210358
0.0212759
0.0232281
0.0208136
0.0211425
0.0218663
0.0214269
0.368278
0.0213636
0.0219898
0.0470371
0.0221422
0.0202159
0.31658
0.243361
0.37051
1.44808
0.0636604
0.0205562
0.0220205
0.562506
0.724035
0.0255744
0.24215
0.319184
0.0214637
0.282287
0.411812
0.0214947
0.192584
0.0218508
0.571242
0.259037
0.417712
0.0219148
0.0210049
0.0499248
0.0212607
0.0213521
0.135553
0.0867446
0.0213288
0.0214071
0.0211046
0.683448
0.0210852
0.0210589
0.021227
0.0209988
0.0210121
0.177916
0.0217975
0.0209579
0.0213693
0.0286448
0.256662
0.633539
0.0212788
0.0211269
0.0224893
0.0212726
0.0209902
0.0211224
0.613875
0.021221
0.0338191
0.0211316
0.021453
0.0202997
0.0213101
0.455499
0.237678
0.0205352
0.0216592
0.303568
0.412748
0.0395057
0.5094
0.0213055
0.0287256
0.021103
0.0197238
0.0210978
0.0201419
0.0210617
0.0212382
0.0215737
0.109804
0.0199109
0.371934
0.601525
0.0198169
0.0293408
0.0420252
0.021832
0.0211218
0.021204
0.0211132
0.0210326
0.311329
0.0197866
0.0210704
0.210622
0.0210947
0.0212863
0.0209781
0.0323848
0.0213706
0.0213593
0.652282
0.0206625
0.0205972
0.0210858
0.0328901
0.0212414
0.0196067
0.0210923
0.019919
0.514441
0.139512
0.021028
0.12674
0.0197585
0.0212456
0.0216599
0.263363
0.870996
0.0200045
0.0228109
0.0213073
0.0211407
0.0210971
0.0210908
0.271584
0.319635
0.0212796
0.0218074
0.0259157
0.0209571
0.0210612
0.0239431
0.0261483
0.65923
0.0212938
0.0234043
0.414505
0.0211179
0.0234959
0.290473
1.3549
0.0206573
0.0209453
0.0209178
0.0211176
0.0209687
0.276809
0.0210471
0.420237
0.266564
0.0218274
0.0235133
0.307442
0.0199993
0.130539
0.344049
0.100067
0.024692
0.0211759
0.0222179
0.271871
0.0208169
0.0260993
0.0209522
0.0200084
0.0200708
0.020123
0.0211257
0.410343
0.0215703
0.449943
0.112655
0.0761713
0.481118
0.0197489
0.0213692
0.0225612
0.344373
0.0211636
0.624728
0.0235128
0.0200003
0.0209269
0.269209
0.0209214
0.0250869
0.321459
0.0210422
0.331614
0.0217667
0.0415354
0.157455
0.021378
0.0205895
0.0375373
0.119798
0.0211899
0.0225745
0.0201758
0.0211435
0.0208631
0.396995
0.0209919
0.0198956
0.0537185
0.0200985
0.334242
0.021396
0.021171
0.0211144
0.530535
0.0209662
0.0208873
0.512279
0.120626
0.408887
0.0213081
0.0201136
0.0319552
0.730396
0.0763246
0.152726
0.0235415
0.0238411
0.0215261
0.021264
0.0239385
0.0217118
0.0210816
0.0203743
0.0297594
0.0238967
0.0209183
0.0196079
0.0214921
0.0205773
0.0211897
0.0236285
0.0988428
0.437553
0.0246369
0.462801
0.402076
0.0206292
0.0209379
0.0219306
0.0326425
0.0201963
0.0213708
0.0209042
0.0209915
0.0211363
0.0497678
0.0212651
0.0374903
0.0212581
0.0208376
0.012993
0.0338659
0.0213746
0.0208692
0.0208425
0.64227
0.0642923
0.0214633
0.020222
0.0215368
0.0209295
0.0212274
0.021005
0.107585
0.0209896
0.0208393
0.09302
0.0204705
0.0672925
0.023511
0.0210228
0.0213024
0.250896
0.0409897
0.271812
0.514365
0.0233534
0.0221211
0.0216606
0.0212376
0.0268634
0.0208111
0.699674
0.634523
0.0224855
0.0342773
0.279007
0.020839
0.464305
0.0229752
0.244767
0.0218001
0.0207729
0.0207893
0.0217051
0.0210707
0.0521034
0.39419
0.032928
0.0211658
0.0209025
0.0208487
0.0642235
0.0230355
0.0136484
0.0208719
0.021206
0.0316722
0.0210193
0.112511
0.0465466
0.0208673
0.0213674
0.019712
0.021166
0.330032
1.47101
0.020851
0.021044
0.0206533
0.309757
0.0211426
0.023399
0.140843
0.107612
1.37888
0.145431
0.505171
0.0212379
0.0261963
0.0215272
0.0210697
0.0226945
0.0459154
0.0204571
0.0210994
0.0355299
0.0212466
0.0201451
0.322591
0.0198652
0.0210525
0.0348611
0.346395
0.0200068
0.0201971
0.0421036
0.317845
0.0381432
0.346385
0.0212828
0.654356
0.02097
0.0242381
0.0454107
0.775061
0.415153
0.0244555
0.668652
0.0733298
0.205066
0.0206006
0.0210063
0.0202134
0.0212367
0.105379
0.0207588
0.0471979
0.0199695
0.0214922
0.0213128
0.426609
0.021316
0.167683
0.0231147
0.0257397
0.0276117
0.021472
0.0585846
0.0197028
0.0344706
0.0212323
0.0656551
0.0214019
0.0365112
0.238236
0.0254848
0.367652
0.0207825
0.389807
0.0234456
0.0244477
0.0213765
0.748133
0.0215148
0.0208814
0.0211954
0.15412
0.0214396
0.0197194
0.0397063
0.0244048
0.064771
0.0208316
0.0199978
0.78844
0.0361062
0.32757
0.50564
0.0208446
0.0193812
0.452792
0.0450988
0.0206665
0.0332046
0.328565
0.0207603
0.0215735
0.0197744
0.0655348
0.372752
0.276049
0.0347531
0.020792
0.0206519
0.0216644
0.0201731
0.0222168
0.0236241
0.021951
0.020374
0.497772
0.021684
0.0212026
0.0215679
0.27177
0.14064
0.0214153
0.0231325
0.0236984
0.466963
0.0207747
0.32582
0.0212984
0.0337599
0.542046
0.0213746
0.370123
0.0203957
0.0197873
0.0207902
0.0208255
0.0206402
0.0208161
0.0197538
0.130112
0.0234526
0.0209939
0.478536
0.0208689
0.0212722
0.0206314
0.662525
0.0208911
0.0226073
0.0394365
0.0360104
0.0208979
0.0197628
0.619696
0.02119
0.477898
0.285445
0.0212674
0.0216323
0.0306791
0.237791
0.0279242
0.0201697
0.0206286
0.022353
0.0272536
0.022845
0.0291947
0.0378481
0.021774
0.0216886
0.0236353
0.021927
0.034309
0.494218
0.0205462
0.338628
0.0320323
0.0212755
0.0209154
0.0208757
0.0208479
0.0206373
0.020999
0.0207356
0.0215758
0.028963
0.0224741
0.0210251
0.0229989
0.0242274
0.0205829
0.020702
0.0884881
0.022336
0.0226062
0.0205662
0.0213812
0.0205423
0.0199729
0.433865
0.0213311
0.0210535
0.439859
0.529255
0.383974
0.0208749
0.247101
0.0214518
0.101974
0.483009
0.0216985
0.536364
0.0206712
0.020288
0.459013
0.0208333
0.0480735
1.38559
0.450857
0.0235465
0.226435
0.0211683
0.0208195
0.0219551
0.0206396
0.440259
0.386793
0.0208602
0.455191
0.0722666
0.0197101
0.0206544
0.0245452
0.21185
0.0718467
0.0243625
0.289124
0.489469
0.0212171
0.442241
0.469275
0.161037
0.560183
0.0206731
0.465626
0.0197487
0.298439
0.305901
0.019787
0.793747
0.399718
0.0385842
0.0196235
0.347942
0.0203869
0.0206598
1.6694
0.703896
0.0206699
0.0211115
0.141127
0.0197394
0.0242816
0.0207846
0.0406137
0.12114
0.0220158
0.0214495
0.316708
0.0338002
0.229126
0.331051
0.020769
0.287558
0.0210174
0.361868
0.0245822
0.0200856
0.40195
0.0213224
0.163337
0.0213457
1.59881
0.021088
0.0210248
0.0202243
0.0213309
0.020486
0.0214956
0.150546
0.615674
0.020585
1.19307
0.0713549
0.0203083
0.0205506
0.488021
0.0614567
0.174608
0.453897
0.237423
0.0205536
0.0211859
0.229827
0.0248832
0.361511
0.0288016
0.0206149
0.0212158
0.0205935
0.0197856
0.0205883
0.0328401
0.0205704
0.336423
0.0208926
0.0213438
0.0765026
0.0197528
0.0330538
0.683049
0.0207912
0.0207698
0.020947
0.0276437
0.0196229
0.0201528
0.270428
0.369073
0.0258666
0.0213547
0.029724
0.0205215
0.0209498
0.0212368
0.301301
0.190503
0.314657
0.412782
0.0306609
0.0410016
0.083529
0.021009
0.0226922
0.0196328
0.0196187
0.0231616
0.0208035
0.416429
0.290134
0.0228627
0.628854
0.0282615
0.423052
0.314485
0.0200114
0.0665846
0.0230174
0.0355175
0.0213042
0.0204451
0.0201094
0.0292148
0.415784
0.461867
0.444924
0.0209576
0.190448
0.0205738
0.173681
0.413185
0.0204644
0.0217787
0.0208846
0.680815
0.314375
0.0216182
0.0196128
0.0326606
0.0224226
0.308548
0.0214356
0.0209731
0.4758
0.301256
0.0205168
0.0237648
0.0206773
0.0233263
0.0214964
0.46338
0.020696
0.0215323
0.0463041
0.0213302
0.0208369
0.239798
0.045112
0.021439
0.0212528
0.0216374
0.0205827
0.0204908
0.094105
0.405635
0.0208254
0.0237005
0.0208156
0.0213525
0.0213408
0.0211126
0.419079
0.371797
0.0752047
0.377427
0.020746
0.0242339
0.0208319
0.0211331
0.0520698
0.0212691
0.153403
0.0207128
0.284297
0.0214053
0.232181
0.318424
0.0202037
0.0208251
0.0464929
0.034313
0.110399
0.339581
0.216816
0.419583
0.0236536
0.021177
0.301814
0.0207468
0.315395
0.0199219
0.0747515
0.0273756
0.0208146
0.0210124
0.0208589
0.0361426
0.280647
0.0209554
0.082369
0.0213553
0.0442
0.0204646
0.0236914
0.0292911
0.0204317
0.55077
0.0674494
0.0201855
0.38842
0.0604713
0.0712203
0.0204526
0.354882
0.0206547
0.0202138
0.0314685
0.0204506
0.161441
0.0199592
0.0207974
0.0204988
0.02332
0.335706
0.0207359
0.383887
0.0197036
0.0248646
0.338007
0.0209281
0.340046
0.0485635
0.0319237
0.0981893
0.0210416
0.0205279
0.930004
0.0204713
0.020355
0.0206604
1.73197
0.333913
0.165332
0.714507
0.0200912
0.0210205
0.0205551
0.0313729
0.0206484
0.526924
0.102599
0.0212281
0.36748
0.0221245
0.294676
0.020373
0.0201606
0.0230589
0.0213001
0.19841
0.472503
0.0203109
0.0217881
0.0206807
0.431436
0.135538
0.0208296
0.424401
0.020967
0.0212922
0.0197196
0.0200452
0.0845848
0.321865
0.0204288
0.355937
0.390216
0.0197604
0.440367
0.020594
0.0208797
0.0636534
0.0203141
0.445127
0.0197917
0.0217927
0.358231
0.0197486
0.0200716
0.0208681
1.93487
0.0245768
0.684968
0.157271
0.0239485
0.0232138
0.16132
0.0204928
0.645842
0.0345974
0.0206259
0.292794
0.621893
0.0443528
0.121737
0.0250921
0.0203596
0.434829
0.0632243
0.289965
0.314485
0.0204622
0.0203079
0.0207299
0.389552
0.0202881
0.0201352
0.27434
0.025101
0.0212733
0.0203422
0.0208262
0.0202695
0.0202545
0.108603
0.0208142
0.200428
0.329124
0.0208219
0.022756
0.0206158
0.0203792
0.268493
0.118293
0.505078
0.490091
0.0204952
0.0206602
0.0352663
1.37938
0.334071
0.020399
0.550969
0.384378
0.0199083
0.0379082
0.0271955
0.0201298
0.0208311
0.0205852
0.02092
0.0200774
0.059826
0.407013
0.0207565
0.28752
0.0213194
0.0331851
0.0208961
0.0213234
0.0266878
0.0599139
0.0257805
0.0203192
0.0197974
0.0202751
0.0202707
0.387568
0.0452604
0.390115
0.0707783
0.295388
0.0217277
0.0202948
0.050681
0.293612
0.0212164
0.354058
0.0220991
0.0197485
0.147618
0.362826
0.0214471
0.0246211
0.0729805
0.618443
0.0280834
0.0202574
0.0234253
0.0206941
0.216817
0.0206471
0.359133
0.356785
0.0356011
0.20891
0.0406999
0.0357903
0.303309
0.0208518
0.0203058
0.0206536
0.0207253
0.329255
0.0206054
0.0206125
0.0237474
0.0210409
0.0201767
0.237658
0.252983
0.315017
0.0202013
0.349988
0.317593
0.25882
0.0207057
0.0203235
0.0218705
0.0201546
0.306579
0.0232115
0.0202641
0.0278499
0.0205618
0.336647
0.0472035
0.0205938
0.581662
0.128882
0.0203402
0.321201
0.387764
0.0933597
0.0207307
0.304511
0.365995
0.0196294
0.0204932
0.365056
0.0199727
0.0208332
0.403477
0.0210695
0.0203583
0.0205032
0.0203236
0.290107
0.0201619
0.020333
0.317311
0.0814797
0.0204767
0.0207318
0.232722
0.308732
0.0210447
0.10804
0.0203727
0.661967
0.0700828
0.0215327
0.0202042
0.308539
0.466926
0.0216926
0.0200862
0.385514
0.0231627
0.020186
0.714501
0.0209066
0.0764438
0.0204584
0.365117
0.32626
0.262485
0.346059
0.0204057
0.284458
0.020847
0.0286016
0.315697
0.0201415
0.0483013
0.0198069
0.385716
0.020678
0.0203309
0.019958
0.0204404
0.0202115
0.0200976
0.0448932
0.0214319
0.063934
0.0216734
0.0196923
0.0218815
0.380176
0.0205392
0.288606
0.0202552
0.0210704
0.467848
0.0211294
0.31885
0.0233349
0.150622
0.0200596