/*--------------------------------*- C++ -*----------------------------------*\
| =========                 |                                                 |
| \\      /  F ield         | OpenFOAM: The Open Source CFD Toolbox           |
|  \\    /   O peration     | Version:  v2012                                 |
|   \\  /    A nd           | Website:  www.openfoam.com                      |
|    \\/     M anipulation  |                                                 |
\*---------------------------------------------------------------------------*/
FoamFile
{
    version     2.0;
    format      ascii;
    class       volScalarField;
    location    "850";
    object      omega_0;
}
// * * * * * * * * * * * * * * * * * * * * * * * * * * * * * * * * * * * * * //

dimensions      [0 0 -1 0 0 0 0];


internalField   nonuniform List<scalar> 
9793
(
0.135827
0.279873
0.182214
0.0210062
1.89103
0.0225747
0.021819
0.0207631
0.0215619
1.82196
0.0543076
0.0348933
0.0210509
0.0203292
0.0228417
0.020257
0.0211333
0.0214093
1.20872
0.0203061
0.0781911
0.0227925
0.376876
0.0195604
0.0216514
0.0211472
0.0202536
0.0207972
0.0405728
0.0215509
0.0326951
0.361232
0.484941
0.0218576
0.0457737
0.289638
0.0223618
0.022774
0.0208251
0.0210201
0.0325594
0.0228718
0.0220862
0.0219253
0.0221047
0.0213273
0.0440928
0.0848343
0.6301
0.0209793
0.0474864
0.0590312
0.0228269
0.0215766
0.135247
0.105033
0.0214291
0.0941221
0.463837
0.0208087
0.0216198
0.0227938
0.543728
0.021868
1.81699
0.466847
0.524685
0.648005
0.0434021
0.05332
0.134781
0.0207833
0.021122
0.272336
0.0528651
0.378263
0.0214221
0.0200307
0.0212883
0.0209205
0.463843
0.0212181
0.273875
0.0873733
0.0290856
0.100109
0.0210359
0.0214168
0.0223348
0.0213725
0.283917
1.37009
0.0203674
0.359741
0.0225449
0.107377
0.0974432
0.281395
0.0203404
0.0202429
0.020229
0.0212705
0.0203994
0.0203889
0.0200357
0.0285712
0.0221972
0.0217026
0.0225243
0.176153
0.0209662
0.0698979
0.0214115
0.261324
0.0585318
0.021431
0.487608
0.0514653
0.0215098
0.340449
0.132718
0.0225953
0.0213283
0.0228259
0.021836
0.0718805
0.0376447
0.117443
0.0217691
0.0211487
0.0213646
0.0214259
0.0211483
0.0214308
0.0215285
0.0214132
0.0221949
0.0217602
0.0214044
0.0199617
0.0213178
0.0215659
0.0211744
0.0202428
0.0204082
0.0205608
0.242629
0.0202476
0.0203448
0.942757
0.552859
0.021364
0.709128
1.82425
0.0203305
0.0219916
0.020633
0.0214919
0.0202353
0.021126
0.0207603
0.0207897
0.0201257
1.31279
0.269239
0.106527
0.107197
0.0248552
0.0202175
0.0209928
0.0211768
0.59129
0.267863
0.592656
0.0217854
1.29334
0.0214217
0.0195672
0.0211651
0.02634
0.55521
0.0221878
0.020246
0.0215768
0.313029
0.0211074
0.104249
0.0211586
0.021302
0.0201407
0.0217942
0.0213305
0.667421
0.0701839
0.654025
0.0260807
1.48904
0.0209027
1.80146
0.0200302
0.0215204
1.39586
0.120654
0.0211562
0.0214206
0.0198593
0.137122
0.0201979
0.0264857
0.0222743
0.0291629
0.604188
0.667139
0.0216003
1.54851
0.0205225
0.0210921
0.349937
0.0198464
0.831708
0.0681614
0.0213634
0.0218451
0.0213328
0.11009
1.37514
0.0226003
0.020331
0.065969
0.0448882
0.0195932
0.0195655
0.0222587
0.0201682
0.0427602
0.821501
0.0213866
0.0211049
0.0859662
0.0211375
0.0261336
0.0203226
0.0210603
0.479688
0.021071
0.0203332
0.0207505
0.0214805
0.0203498
0.0216893
0.021675
0.0235168
0.054345
0.0401844
0.0210163
0.0233641
0.0211624
0.0237641
0.0225798
0.0201808
0.293502
0.0210867
0.0540315
0.0215114
0.0252703
0.0196646
0.0196536
0.0290687
1.39721
0.0219795
0.0202009
0.0200075
0.0254158
0.0213831
0.277466
0.277191
0.0211584
0.078394
0.0213673
0.040289
0.0214144
0.0196262
0.0221218
0.0208996
0.0376106
0.0213606
0.0216706
0.0244849
0.0210601
0.021412
0.0213932
0.484481
0.0221263
0.0224608
0.0214146
0.0214086
0.0219614
0.0249363
0.021244
1.18878
0.0203423
0.400496
0.489215
0.0221349
0.0219114
0.0202243
0.0260912
0.0236995
0.0213409
0.417798
0.0217314
0.0202119
0.023836
0.021788
0.0215091
0.0212508
0.0895454
0.021067
0.0247005
0.0223297
0.0209885
0.273326
1.48927
0.256439
0.0197288
0.326884
0.0220548
0.590053
0.0594299
0.020051
0.0229582
0.0577218
0.0211403
0.0247686
0.0635743
0.0207243
0.0219718
0.0215023
0.021044
0.0208496
1.00337
0.0211587
0.0209763
1.24281
0.0211466
0.0202317
0.0197158
0.0222243
0.0207379
1.40453
0.0218943
0.0213679
0.0216237
0.0212616
0.487189
0.0215544
0.0318373
0.0195753
0.0342117
0.123743
0.104354
0.0364937
0.022171
0.0218111
1.54345
0.0217101
0.288289
0.0211368
0.0202154
0.488617
0.0244736
1.45195
0.0213713
0.0458039
0.409415
0.0224239
0.0210876
0.487921
0.0249234
0.257112
0.0233861
0.0215312
0.527059
0.0212707
0.0221623
0.0217863
0.0212626
0.0202919
0.0215566
0.0230309
0.511513
0.0216984
0.435011
0.355067
1.53271
0.0452376
0.209394
0.0209278
0.0215016
1.61543
0.355039
0.0203371
0.021792
1.38284
0.0199962
0.420909
0.0211233
0.0230532
0.0199826
0.0304438
0.021151
0.0254192
0.0830504
0.0202178
0.378108
0.0235316
0.0219672
0.0236198
0.0210464
0.0220362
0.0206474
1.32845
0.0213429
0.0215293
0.0627046
0.0215158
0.0225337
0.0220557
0.0201005
0.0270894
0.0211321
0.0215361
0.0199334
0.394275
0.0204755
0.395793
0.0210153
0.674414
0.0228618
0.0210631
0.0222685
0.0216984
0.336711
0.0208828
0.109399
0.0201727
0.0211897
0.0221528
1.39841
0.0356153
0.137262
0.638635
0.0228344
0.0212597
0.0369539
0.0268178
0.0293133
0.277818
0.442625
0.0216315
0.0225996
0.0458647
0.0213329
0.0213342
0.0213122
0.0203862
0.0220417
0.172158
0.0254331
0.424933
0.0204004
0.0264304
0.0195528
0.0216839
0.0215254
0.0212454
0.0373257
0.0210757
0.0222315
0.0199733
0.0213978
0.022847
0.0765938
0.0211661
0.0212584
0.494452
0.0235574
0.0219016
0.492332
0.677863
0.0215122
0.021978
0.0222647
0.0229116
0.0215507
0.0223343
0.0220829
0.0209448
0.0211803
0.0210311
0.205916
0.0602381
0.0206307
0.309006
0.0307331
0.0202924
0.0221425
0.0213198
0.0652048
0.0214062
0.0526412
0.0200757
0.0210727
0.0499861
0.0212917
0.031721
0.454582
0.0253233
0.0202847
0.474511
0.0233257
0.0205431
0.0211719
0.053963
0.0209007
0.0205288
0.0212679
0.0208967
0.474254
0.0428414
0.0298702
0.0223336
0.0211419
0.0210234
0.0214761
0.020866
0.0212835
0.0561661
0.112482
0.0200216
0.0222045
1.66073
0.0213301
0.0249897
0.0327108
0.0207226
0.0575128
0.466515
0.0213778
0.141828
0.0196346
0.144835
0.0242937
0.5555
0.0211018
0.0210443
0.0211513
0.291359
0.0218915
0.454922
0.4697
1.77843
0.0327966
0.10139
0.0291929
0.0228611
0.0291179
0.022032
0.332484
0.0215438
0.660591
0.0198963
0.247786
0.0219757
0.0219152
0.0210066
0.152813
0.0199364
0.0207424
0.0221979
0.022497
0.0259294
0.0211338
0.0212574
0.0213073
0.0212849
1.20073
0.0209763
0.441137
1.02147
0.0209879
0.0218068
0.0270238
0.0217909
0.0213083
0.0217215
0.022468
0.0243022
0.0221464
0.0225057
0.0204897
0.0214501
0.0220297
0.0238372
0.0217355
0.0223279
0.72285
0.0213203
1.43043
0.0245575
0.021928
0.0212675
0.0206955
0.021934
0.0222359
0.0210582
0.0206687
0.0195267
0.0210451
0.0206491
0.0211686
0.0231797
0.0198581
0.0219148
0.0220265
0.0215356
0.0230383
0.022198
0.03032
0.0222696
0.021008
0.0212777
0.0205274
0.0199376
0.02095
0.0199706
0.020959
0.0213296
0.0199248
0.0319794
0.0210267
0.0221751
0.0213437
0.657762
0.0210302
0.0199716
0.0530985
0.0196312
0.0215075
0.162204
0.0216694
0.0223561
0.0214044
0.0945868
0.0207058
0.0495139
1.79835
0.386859
0.448038
0.0214528
0.0213508
0.386452
0.0213746
0.0199467
0.220638
0.659238
1.64826
0.0212884
0.0586606
0.0213539
0.021337
0.226826
0.0211835
0.0437785
0.0215276
0.059968
0.0209945
0.0229984
0.0219737
0.152662
0.891774
0.0211521
0.0214105
0.026216
0.0209517
0.022825
0.0496924
0.2359
0.0210766
0.0205197
0.0213796
0.326301
0.0216606
0.491315
0.348958
0.0209798
0.027224
0.384899
0.0210308
0.0211547
0.0221405
0.0214452
0.0199222
0.124108
0.0199217
0.456767
0.0228276
0.188889
0.0531385
0.0214919
0.122091
0.544448
0.0217886
0.562645
0.0266321
0.0742569
0.0199337
0.019622
0.362758
0.0213206
0.862513
0.0209543
0.329322
0.020482
0.0685665
0.373455
0.0209725
0.723059
0.0214141
0.0222759
0.0338235
0.795677
1.0335
0.0199357
0.0204974
0.019984
0.422323
1.31908
0.022714
0.0241345
0.0273529
0.019959
0.0209883
0.0215462
0.0506858
0.0236237
0.0213914
0.0208668
0.0207836
0.45229
1.60218
0.187117
0.0205333
0.0209226
0.654829
0.0211677
0.526306
0.0399784
0.462003
0.250316
0.343342
0.0208527
0.0214986
0.0230284
0.0220598
0.0240463
0.0212154
0.0582293
0.3799
0.0204214
0.560493
0.0207745
0.403243
0.0216248
0.337926
0.0241185
0.0228227
0.0210905
0.0203997
0.0297171
0.380271
0.384969
0.021393
0.0308641
0.0208583
0.0224342
0.0232289
0.30031
0.0240085
0.0745131
0.0208459
0.0266831
0.0211357
0.0198824
0.0218626
0.0209489
1.65268
0.0211411
0.0225088
0.0223035
0.0218262
0.0199085
0.0507462
0.0215214
0.0220207
0.0208687
0.0209986
0.306093
0.0210426
0.0642585
0.0204315
0.0207877
0.0208566
0.0423779
0.0210505
0.0659458
0.0215714
0.0213534
0.0208823
0.336832
0.30946
0.407962
0.169602
0.649442
0.0213054
0.0228929
0.286961
0.0199431
0.353698
0.308559
0.0502653
0.0992165
0.0224065
0.30568
0.0232332
0.383565
0.289193
0.0223643
0.0215702
0.303233
1.10967
0.0238399
0.0231921
0.0211993
0.0218488
0.0331204
0.0209216
0.0199223
0.0221164
0.0898439
0.0337316
0.0227756
0.371241
0.0208999
0.019983
0.255991
1.36636
0.0342546
0.0219797
0.0901477
0.0205265
0.0199293
0.491567
0.0199092
0.022289
0.308881
0.319956
0.0210652
0.487393
0.149583
0.0596243
0.205277
0.280741
0.0223331
0.713358
0.0216704
0.0208338
0.0213379
0.0215928
0.0209466
0.393654
0.0213501
0.492649
0.0203243
0.0361337
0.0217903
0.0340918
0.0224646
0.0211701
0.0400415
0.0203258
0.0199426
0.074455
0.0219777
0.0276974
0.0211186
0.0200486
0.314904
0.852578
0.0225362
0.0195446
0.0195349
0.0204065
0.0217276
1.34542
0.0732469
0.194405
0.0305678
0.311822
0.0214264
0.0271796
0.024751
0.0232561
0.100841
0.0211025
0.0210054
0.136137
0.0327889
0.360354
0.0210574
0.357387
0.385481
0.0238991
0.0383078
0.0231579
1.34775
0.0214165
0.0242614
0.361068
0.0221032
0.0210694
0.0803089
0.0216213
0.0205025
0.0209878
0.17018
0.0216826
0.0251285
0.321588
0.0367588
0.0243566
0.0307652
0.175225
0.466925
0.156873
0.0199557
0.0214963
0.0219929
0.022544
0.0212302
0.637536
0.351348
0.0231833
0.448308
0.0477836
0.443713
0.02152
0.34246
0.0212468
0.327811
0.069554
0.0206168
0.648552
0.427907
0.0208553
0.0214617
0.0213375
0.211395
0.485645
0.0252376
0.0463636
0.0267598
0.0632124
0.318851
0.338534
0.0210517
0.0213876
0.3548
0.229722
0.0210836
0.0212764
0.0199561
0.0217235
0.0215345
0.0242065
1.1469
0.0212654
0.023338
0.347542
0.0216573
0.0216879
0.023811
0.650717
0.0215114
0.0225031
0.157759
0.0217854
0.0200259
0.0218391
0.0209114
0.022312
0.381739
0.45629
0.0215117
0.165305
0.0238306
0.160555
0.0213489
0.0219199
0.0221703
0.0216847
0.323936
0.0212975
0.0220719
0.0252208
0.0218287
0.0204582
0.0248366
0.0212164
0.0924082
0.0214753
0.0210426
0.592743
0.0210813
0.698332
0.0253784
0.0209503
0.0377153
0.0222378
0.0303325
0.0973119
0.0202152
0.346635
0.0209752
0.021376
1.35183
0.485498
0.02023
0.021469
0.0206706
0.0216332
0.0784786
0.0220951
0.0214407
0.0219315
0.0217224
0.0219416
0.021271
0.0202547
0.0209567
0.0211836
0.42643
0.0236106
0.0200064
0.0383777
0.0214688
0.235966
0.0694197
0.0317005
0.021454
0.0212368
0.0697796
0.023026
0.0213503
0.0216278
0.386584
0.126046
0.0213583
0.0198107
0.0638289
0.0477368
0.0195999
0.395332
0.0358456
0.0214157
0.0217958
0.0253972
0.0215792
0.027658
0.454367
0.0214861
0.0546376
0.0264173
0.0298162
0.0198069
0.0213424
0.0198386
0.0198175
0.126746
0.0210763
0.0574739
0.0448844
0.0198268
0.0218429
0.0298698
0.0215564
0.0216345
0.0213829
0.0223042
0.445837
0.0198291
0.021484
0.34851
0.0220688
0.0215859
0.0229191
0.0210942
0.021608
0.0211866
0.02148
0.0222414
0.0216874
0.0961601
0.481025
0.01982
0.0214141
0.0198232
0.0849681
0.0210089
0.0238285
0.0212826
0.0201835
0.0264751
0.0204117
0.0281825
0.0213951
0.0204262
0.309347
0.348006
0.0217213
0.0215944
0.0209562
0.0806145
0.149773
0.0213851
0.385005
0.706073
0.0218432
0.0282442
0.38657
0.0232567
0.377472
0.0400923
0.0409773
0.0211955
0.0293044
0.0920362
0.0203668
0.300873
0.379745
0.021381
0.764713
1.64903
0.0234685
0.382251
0.0198038
0.0256776
0.042855
0.0212423
0.312135
0.0198038
0.0390838
0.062868
0.0198049
0.349556
0.0217491
0.0218919
0.0309588
0.0233764
0.232483
0.404737
0.0200647
0.0235184
0.278047
0.0207034
0.0241613
0.0208089
0.385994
0.648054
0.0210954
0.0212752
0.0244289
0.266981
0.299145
0.0276036
0.0198183
0.0208981
0.305028
0.436091
0.084867
0.0226019
0.0227218
0.0249558
0.020033
0.0221616
0.0239183
0.0228777
0.0208694
0.0238026
0.404897
0.109532
0.0209676
0.168363
0.023622
0.0866265
0.732207
0.0417027
0.722133
0.0825395
0.0198175
0.115381
0.123123
0.441063
0.321883
0.0212471
0.124097
0.326202
0.0400653
0.0241908
0.323934
0.321461
0.0210725
0.0245689
0.023913
0.0212164
0.0685136
0.0212709
0.0220065
0.0206207
0.0198062
0.0216891
0.0213493
0.0224872
0.0248172
0.339742
0.0239913
0.3144
0.0208218
0.0256455
0.0215395
0.334694
0.615523
0.0211852
0.0429328
0.0212964
0.0202104
0.0212928
0.0201705
0.0210647
0.0915541
0.0215823
0.20894
0.0210327
0.0209459
0.419879
0.0223332
0.0217826
0.0211267
0.0212507
0.378473
0.0682214
0.416157
0.180626
0.659206
0.0215056
0.0217184
0.0213521
0.0236479
0.0403873
0.0797299
0.354914
0.0209585
0.0396651
0.0220588
0.166117
0.333247
0.0241765
0.601076
0.7726
0.0224228
0.0373995
0.0209016
0.0438681
0.0225572
0.0882225
0.0418597
0.0198176
1.45392
0.468313
0.0216302
0.0226629
0.0218387
0.178816
0.0207711
0.0216885
0.443836
0.0208067
0.473001
0.025575
0.0235904
0.0220505
0.0217581
0.479278
0.0211423
0.433266
0.0239164
0.021291
0.0207137
0.0538654
0.0223989
0.364383
0.0222543
0.0240131
0.0239925
0.0669451
0.0228183
0.0213123
0.328268
0.0216635
0.0204122
0.100077
0.327528
0.0238914
0.0205206
0.0220333
1.38808
0.0600468
0.0211533
0.0316634
0.0204335
0.101462
0.0420114
0.0218828
0.0211125
0.0871445
0.0209599
0.0207358
0.0213669
0.0812147
0.611184
0.0216982
0.0238474
0.0217507
0.0219813
0.385307
0.0300174
0.0215772
0.0216904
0.0210345
0.0631125
0.456092
0.503203
0.0212263
0.133061
0.0202068
0.0201549
0.0217774
0.0219303
0.0384694
0.0213486
0.0461996
0.347439
1.458
0.0236596
0.0214901
0.021522
0.036268
0.0206083
0.0212498
0.0317053
0.02148
0.0212583
0.0220944
0.0238999
0.0199963
0.577637
0.0408448
0.0235371
0.0231799
0.0263109
0.0229871
1.67525
0.0213629
0.0212565
0.0214763
0.0210461
0.0214562
0.0208685
0.120846
0.0897804
0.0215604
0.0220197
0.0212269
0.0234819
0.0227286
0.0480287
0.0220032
0.251963
0.0213024
0.0217944
0.0207142
0.077011
0.0214807
0.258374
0.0214792
0.0215053
0.0195453
0.276021
0.0228835
0.0695253
0.315001
0.0218781
0.0214722
0.0211256
0.0213989
0.0212859
0.0219568
0.0242546
0.400957
0.0215635
0.0577545
0.235372
0.0231008
0.0987746
0.0215064
0.0231941
0.0209833
0.0203534
0.0202183
0.0213507
0.250602
0.0846409
0.0208313
0.487219
0.0532651
0.0212491
0.463638
0.0203288
0.031522
0.0220469
0.0210192
0.645111
0.0214689
0.0223743
0.0235718
0.0461341
0.0758171
0.0218997
0.0209711
0.0223081
0.616075
0.27762
0.0361851
0.0260857
0.0214479
0.0214024
0.346975
0.0216826
0.0278453
0.0279627
0.431405
0.0214553
0.0346857
0.0214689
0.0217532
0.0307576
0.0295604
0.0296787
0.0220515
0.0218413
0.0250669
0.400637
0.0436167
0.0204054
0.0245152
0.0910771
0.0230957
0.0381341
0.0216057
0.0217005
0.0213395
0.0238436
0.650098
0.0546479
0.0214577
0.976612
0.0235229
0.0256584
0.0214977
0.0213401
0.0213587
0.019915
0.0477109
0.0222563
0.022272
0.0220058
0.0213425
0.0214465
0.16512
0.0214062
0.0213888
0.0217387
0.409698
0.150359
0.0214361
0.0211516
0.0214715
0.314198
0.0219691
0.104388
0.0214626
0.0471204
0.0214403
0.0216222
0.0409145
0.0216653
0.0309407
0.0216908
0.0214367
0.0203416
0.0224043
0.155809
0.0217523
0.0219394
0.325783
0.021528
0.022232
0.0219944
0.0215735
0.0212309
0.0219057
0.0317126
0.020748
0.020818
0.0209454
0.346789
0.0236337
0.398243
0.0215015
0.0216725
0.59544
0.351589
0.314906
0.0252798
0.0293344
0.335909
0.0214921
0.411904
0.0219672
0.114283
0.0209701
0.110702
0.345863
0.0195543
0.0232529
0.0220729
0.0222335
0.019854
0.440434
0.0208953
0.332993
0.0216575
0.0213879
0.0217439
0.01987
0.0217542
0.11571
0.0213408
0.0211339
0.0211317
0.0215696
0.0213697
0.17623
0.690222
0.462248
0.0214877
0.020193
0.0234267
0.021472
0.0213188
0.106466
0.0389472
0.0223111
0.0213187
0.265421
0.0225219
0.0199352
0.45188
0.0225833
0.0203044
0.0212838
0.0263553
0.345939
0.0214671
0.0212167
0.0530794
0.123452
0.0437317
0.623843
0.021297
0.0236747
0.023485
0.0198977
0.0217236
0.324886
0.32425
0.411476
0.0212668
0.607772
0.0217022
0.0214746
0.0239254
0.0218854
0.0238974
0.0331396
0.0212305
0.0214718
0.0213185
0.0208833
0.0199572
0.0211297
0.0242872
0.314649
0.0261078
0.0195478
0.0199821
0.0212707
0.0218011
0.0213273
0.0775766
0.0219333
0.0219837
0.0218921
0.329724
0.0212475
0.0229283
0.532555
0.021302
0.0212755
0.392456
0.0212041
0.0213585
0.021223
0.189039
0.0269926
0.0369815
0.0217455
0.232265
0.020163
0.0201456
0.0204177
0.0212474
0.0352225
0.0212666
0.0216406
0.0417679
0.0213467
0.398526
0.0225367
0.0279286
0.0217226
0.115902
0.0304249
0.0214645
0.0211277
0.0219199
0.0215453
0.0213181
0.384903
0.0209668
0.0439286
0.0211646
0.0215739
1.63358
0.0210645
0.954579
0.0811784
0.021294
0.0512822
0.0211445
0.0218293
0.021248
0.0217412
0.0207245
0.0213263
0.0212912
0.0213549
0.106214
0.0214868
0.0209625
0.0217961
0.0207938
0.0212057
0.0212064
0.0214132
0.0205141
0.0213065
0.0212603
0.02137
0.021253
0.0218553
1.39141
0.0211269
0.0218757
0.0445196
0.322514
0.0199308
0.0254149
0.0209778
0.021048
0.0212816
0.021433
0.663251
0.325424
0.0211075
0.0226036
0.319663
0.0215391
0.0200707
0.389152
0.019927
0.374712
0.021469
0.0664306
0.0235554
0.236105
1.4155
0.459777
0.0209883
0.021102
0.019972
0.0239771
0.0618492
0.0223955
0.0576188
0.426859
0.0213688
0.248084
0.0445726
0.02059
0.0203988
0.0307564
0.0295969
0.0212908
0.0210236
0.020103
0.0238597
0.0237834
0.0240769
0.0237138
0.0239602
0.392659
0.0210729
0.0212421
0.0211528
0.21937
0.0238909
0.0239231
0.158923
0.411504
0.0232976
0.0210403
0.0237482
0.0212188
0.0330382
0.0213517
0.0219883
0.0497664
0.0239743
0.100738
0.0198201
0.301937
0.0331662
0.087319
0.327495
0.640861
0.0211136
0.0213404
0.0213305
0.100461
0.0214055
0.0208835
0.0213319
0.0278696
0.56678
0.270911
0.0236312
0.0227983
0.39618
0.0358573
0.28708
0.0442952
0.0439659
0.036661
0.529038
0.306107
0.0211084
0.0211219
0.0211324
0.0399337
0.0232967
0.0367315
0.0208338
0.0212347
0.02122
0.193925
0.021174
0.0211806
0.0210537
0.0323928
0.0209489
0.0211539
0.0203173
0.0246596
1.21712
0.0271564
0.0236081
0.0214931
1.14182
0.025524
0.0199151
0.0213236
0.02013
0.181998
0.021534
0.0215761
0.181259
0.0211451
0.0210014
0.0209642
0.0214134
0.0836034
0.0209991
0.0215248
0.0211112
0.0216198
0.0212335
0.0211374
0.0210562
0.0212332
0.0213339
0.400202
0.0212422
0.0206812
0.0771011
0.0484484
0.0257796
0.0624916
0.0209794
0.221651
0.0212862
0.0275696
0.0210803
0.459168
0.021114
0.0212276
0.0201304
0.31829
0.0240236
0.0211975
0.795281
0.0212074
0.0201264
0.0212127
0.0219587
0.0262645
0.020959
0.407617
0.0214441
0.0360524
0.0381574
0.0213422
0.0317217
0.0210004
0.0206085
0.0211846
0.328251
0.024591
0.0245935
0.0386125
0.827373
0.0256738
0.030904
0.0240328
0.0213007
0.0197742
0.175732
0.404091
0.0209776
0.0333549
0.0208953
0.021017
0.387707
0.020512
0.0212747
0.149295
0.0383783
0.480375
0.0212906
0.0210315
0.0350484
0.020941
0.0200146
0.391714
0.0211958
0.0259896
0.831767
1.35829
0.0213245
0.02215
0.021121
0.0198273
0.0238512
0.0215681
0.0213985
0.0316903
0.0206743
0.0243506
0.0213466
0.0223008
0.0233517
0.591297
0.0239118
0.0216803
0.166987
0.317425
0.0212351
0.268129
0.0216205
0.021262
0.0213262
0.0209804
0.0235572
0.0195347
0.313595
0.0211597
0.0236543
0.0217632
0.0197352
0.0210358
0.0212757
0.0232289
0.0208135
0.0211426
0.0218661
0.0214266
0.367894
0.0213636
0.0219893
0.0470312
0.0221415
0.0202159
0.31638
0.24239
0.36778
1.45058
0.0636234
0.0205562
0.022022
0.561776
0.730828
0.0269747
0.2422
0.319115
0.0214639
0.282063
0.413671
0.0214949
0.19269
0.0218519
0.573928
0.258053
0.403935
0.0219161
0.021005
0.0499221
0.0212606
0.0213518
0.134577
0.0870464
0.0213289
0.0214071
0.0211047
0.662492
0.0210852
0.0210589
0.021227
0.0209988
0.0210122
0.177752
0.0217977
0.0209579
0.021369
0.0286548
0.254405
0.635238
0.0212787
0.0211269
0.0224923
0.0212726
0.0209902
0.0211224
0.611308
0.0212208
0.0337975
0.0211316
0.0214526
0.0202997
0.02131
0.452758
0.235892
0.0205352
0.0216585
0.303444
0.40793
0.0393339
0.513235
0.0213054
0.0287358
0.021103
0.0197238
0.0210978
0.0201418
0.0210617
0.0212381
0.0215741
0.108014
0.0199109
0.369446
0.603958
0.0198166
0.0293413
0.0419836
0.0218331
0.0211218
0.021204
0.021113
0.0210327
0.311602
0.0197865
0.0210705
0.208118
0.0210946
0.0212863
0.0209781
0.0333676
0.0213707
0.0213593
0.653823
0.0206626
0.0205972
0.0210858
0.0328001
0.0212414
0.0196067
0.0210923
0.0199191
0.512641
0.140727
0.021028
0.12588
0.0197584
0.0212455
0.02166
0.265481
0.873677
0.0200045
0.0228097
0.0213073
0.0211407
0.0210971
0.0210907
0.271849
0.319767
0.0212794
0.0218084
0.0259079
0.0209571
0.0210612
0.0239431
0.0261601
0.660337
0.0212937
0.0234089
0.41417
0.0211179
0.0234959
0.300888
1.35254
0.0206572
0.0209453
0.0209181
0.0211176
0.0209687
0.276223
0.0210471
0.419584
0.264828
0.0218274
0.0235133
0.307112
0.0200005
0.128648
0.34462
0.101551
0.024696
0.0211758
0.0222179
0.272778
0.0208168
0.0260769
0.0209522
0.0200084
0.0200708
0.020123
0.0211257
0.402725
0.0215704
0.447056
0.110526
0.0761358
0.480092
0.0197489
0.0213692
0.02256
0.342755
0.0211636
0.629817
0.0234512
0.0200004
0.0209269
0.26893
0.0209214
0.0250117
0.321328
0.0210422
0.331957
0.0217676
0.0417058
0.155774
0.021378
0.0205895
0.037514
0.11991
0.0211898
0.0225756
0.0201758
0.0211391
0.0208631
0.397095
0.020992
0.0198946
0.054024
0.0200985
0.334402
0.021396
0.021171
0.0211145
0.530379
0.0209663
0.0208873
0.523885
0.118848
0.409121
0.0213086
0.0201136
0.032
0.732895
0.0753561
0.152712
0.0235415
0.0238412
0.0215262
0.021264
0.0239385
0.0217126
0.0210817
0.0203743
0.0297413
0.0238968
0.0209184
0.019608
0.0214922
0.0205774
0.0211896
0.0236317
0.0973923
0.447905
0.0245945
0.489325
0.402214
0.0206292
0.0209379
0.0219318
0.0326293
0.0201963
0.0213713
0.0209042
0.0209916
0.0211362
0.0497275
0.021265
0.0373768
0.0212581
0.0208375
0.0127152
0.033878
0.0213754
0.0208692
0.0208425
0.64259
0.0674482
0.0214634
0.020222
0.0215386
0.0209295
0.0212273
0.021005
0.107533
0.0209896
0.0208393
0.0953382
0.0204705
0.06725
0.023511
0.0210228
0.0213024
0.25214
0.0407606
0.275135
0.525908
0.0233534
0.022121
0.0216608
0.0212376
0.0267263
0.0208111
0.699879
0.637108
0.0224876
0.0341896
0.279161
0.020839
0.462536
0.0229767
0.236204
0.0218044
0.0207729
0.0207893
0.0217058
0.0210707
0.0516
0.3961
0.0328477
0.0211657
0.0209025
0.0208487
0.0634309
0.0230367
0.0137342
0.0208719
0.0212064
0.0316315
0.0210194
0.115725
0.0461404
0.0208673
0.0213672
0.019712
0.0211661
0.330044
1.47275
0.020851
0.021044
0.0206533
0.309365
0.0211426
0.0233961
0.140793
0.107576
1.36821
0.144391
0.501902
0.0212379
0.0261878
0.0215274
0.0210697
0.0226931
0.0457607
0.0204571
0.0210994
0.0354527
0.0212464
0.0201453
0.323057
0.0198651
0.0210526
0.0348516
0.347038
0.0200068
0.0201971
0.0420744
0.318436
0.0381498
0.34512
0.0212841
0.654667
0.0209701
0.024112
0.0451958
0.760073
0.415041
0.0244686
0.669686
0.072959
0.205221
0.0206006
0.0210063
0.0202134
0.0212366
0.106014
0.0207588
0.0471829
0.0199686
0.0214924
0.0213126
0.427175
0.021316
0.166761
0.0231158
0.0257469
0.0276366
0.0213393
0.0583173
0.0197028
0.0344801
0.0212323
0.0651433
0.0214016
0.0366541
0.241525
0.0254856
0.35914
0.0207825
0.389086
0.0234456
0.0244484
0.0213766
0.749199
0.0215142
0.0208814
0.0211954
0.152995
0.0214398
0.0197028
0.0396667
0.0244064
0.0645343
0.0208316
0.0199978
0.788108
0.0360985
0.327887
0.506756
0.0208445
0.0192861
0.453328
0.0451091
0.0206665
0.0331852
0.328578
0.0207603
0.0215673
0.0197744
0.0647707
0.375067
0.27557
0.0346603
0.020792
0.0206519
0.021665
0.0201731
0.0222115
0.0236241
0.0219515
0.020374
0.497829
0.0216836
0.0212029
0.0215709
0.274733
0.139912
0.0214113
0.0231436
0.023714
0.471113
0.0207747
0.324107
0.0212984
0.0337349
0.560273
0.0213745
0.362072
0.0203957
0.0197871
0.0207902
0.0208255
0.0206402
0.020816
0.0197538
0.127809
0.0234526
0.020994
0.478216
0.0208689
0.0212726
0.0206314
0.664494
0.0208913
0.0226101
0.0394789
0.0357076
0.0208979
0.0197628
0.622164
0.0211899
0.476352
0.28472
0.0212677
0.0216327
0.0307386
0.240346
0.0299094
0.0201697
0.0206286
0.0223529
0.0272568
0.0228434
0.0283569
0.037825
0.0217723
0.0216887
0.0236362
0.0219283
0.0344179
0.494896
0.0205462
0.335538
0.0321884
0.0212755
0.0209154
0.0208757
0.0208478
0.0206373
0.020999
0.0207356
0.0215761
0.0301447
0.0224745
0.0210252
0.0229969
0.0242225
0.0205829
0.020702
0.0866262
0.022335
0.022625
0.0205662
0.0213811
0.0205423
0.0199729
0.433347
0.0213312
0.0210535
0.440891
0.530496
0.385208
0.0208749
0.239417
0.021452
0.101647
0.483176
0.0216978
0.536807
0.0206712
0.020288
0.460064
0.0208333
0.0481075
1.38678
0.451249
0.0235465
0.223606
0.021168
0.0208195
0.021955
0.0206396
0.440503
0.388471
0.0208602
0.454504
0.0711817
0.0197101
0.0206544
0.0248378
0.213633
0.07629
0.0243629
0.289175
0.489351
0.021217
0.433218
0.469878
0.16418
0.560594
0.0206816
0.465331
0.0197487
0.296674
0.306353
0.0197869
0.79913
0.399753
0.038886
0.0196235
0.349845
0.0203869
0.0206598
1.66955
0.705425
0.02067
0.021112
0.141531
0.0197395
0.0242741
0.0207846
0.0403835
0.119479
0.0220164
0.0214497
0.317411
0.033721
0.220993
0.330194
0.020769
0.28725
0.0210174
0.360872
0.024577
0.0200858
0.401618
0.021323
0.165221
0.0213457
1.59595
0.021088
0.0210244
0.0202243
0.0213309
0.0204859
0.0214959
0.150249
0.616849
0.020585
1.18815
0.0692686
0.0203083
0.0205506
0.487941
0.0609306
0.174527
0.451981
0.233184
0.0205536
0.0211858
0.226621
0.0248824
0.358237
0.0287856
0.0206149
0.0212157
0.0205939
0.0197856
0.0205883
0.0328445
0.0205705
0.336595
0.0208926
0.0213438
0.0764816
0.0197528
0.0330699
0.684304
0.0207912
0.0207698
0.020947
0.0276319
0.019623
0.0201527
0.270962
0.369372
0.0258648
0.021355
0.0297386
0.0205215
0.0209501
0.0212368
0.300467
0.188941
0.314608
0.412571
0.0306712
0.0407016
0.0834183
0.021009
0.0226934
0.0196329
0.0196188
0.0231686
0.0208035
0.412691
0.290105
0.022864
0.6279
0.0282053
0.422825
0.314478
0.0200114
0.0657569
0.0230156
0.0388665
0.0213042
0.0204451
0.0201094
0.0292175
0.415839
0.462415
0.445134
0.0209576
0.191001
0.0205738
0.177958
0.413321
0.0204644
0.0217771
0.020885
0.682356
0.314518
0.0216183
0.0196129
0.0326595
0.0224217
0.307646
0.0214357
0.0209735
0.473248
0.301339
0.0205168
0.0237897
0.0206773
0.0233262
0.0214958
0.463631
0.020696
0.021532
0.0461596
0.0213302
0.0208369
0.237312
0.0450524
0.0214392
0.0212533
0.0216375
0.0205827
0.0204907
0.0982161
0.40665
0.0208254
0.0237014
0.0208156
0.0213526
0.0213409
0.0211126
0.415552
0.373263
0.0753587
0.377597
0.020746
0.0242615
0.0208319
0.0211336
0.0515962
0.0212689
0.151288
0.0207128
0.281051
0.0214053
0.235179
0.320502
0.0202038
0.0208251
0.0465051
0.0342958
0.109261
0.338754
0.21543
0.415614
0.0236537
0.021177
0.301393
0.0207468
0.315247
0.0199219
0.0740909
0.0273895
0.0208146
0.0210116
0.0208589
0.0360344
0.280658
0.0209557
0.0813131
0.0213499
0.0443816
0.0204646
0.0236882
0.0282776
0.0204317
0.552166
0.0672034
0.0201855
0.388682
0.0607005
0.0706183
0.0204526
0.350585
0.0206547
0.0202138
0.0314758
0.0204506
0.160416
0.0199593
0.0207974
0.0204988
0.02332
0.336102
0.0207359
0.383819
0.0197037
0.0248819
0.339415
0.0209276
0.342231
0.0481991
0.0319379
0.0982096
0.0210421
0.0205279
0.930661
0.0204713
0.020355
0.0206599
1.74153
0.33401
0.172468
0.772447
0.0200911
0.0210205
0.0205542
0.030737
0.0206484
0.527189
0.101775
0.0212281
0.36758
0.0232392
0.292448
0.020373
0.0201607
0.0230611
0.0213002
0.20812
0.471505
0.0203109
0.0217887
0.0206807
0.431692
0.138679
0.0208291
0.424843
0.020967
0.021292
0.0197197
0.0200438
0.0845363
0.322125
0.0204288
0.354938
0.390193
0.0197606
0.440491
0.020594
0.0208797
0.0629751
0.0203141
0.444799
0.0197916
0.0217408
0.354626
0.0197486
0.0200716
0.0208681
1.93071
0.0245766
0.726213
0.154845
0.0239212
0.0232138
0.165352
0.0204928
0.64766
0.0343909
0.0206259
0.292648
0.622132
0.0438286
0.128771
0.0269137
0.0203596
0.43434
0.0635144
0.289818
0.314344
0.0204622
0.020308
0.0207299
0.389605
0.0202881
0.0201351
0.275382
0.0251848
0.0212733
0.0203422
0.0208261
0.0202695
0.0202549
0.111046
0.0208141
0.202229
0.329584
0.0208314
0.0227552
0.0206158
0.0203792
0.26522
0.117272
0.50837
0.489519
0.0204952
0.0206603
0.0352578
1.37714
0.334369
0.020399
0.551194
0.381194
0.0199083
0.0378645
0.0271815
0.0201298
0.020831
0.0205857
0.0209194
0.0200773
0.0626996
0.407399
0.0207564
0.287049
0.0213194
0.0331929
0.0208961
0.0213234
0.0266815
0.0593161
0.0257717
0.0203193
0.0197973
0.0202751
0.0202707
0.387444
0.0450863
0.390128
0.0707548
0.294821
0.0216394
0.0202948
0.0505229
0.293616
0.0212163
0.35449
0.0220998
0.0197485
0.147699
0.355566
0.0214393
0.0246192
0.0721558
0.613785
0.0280536
0.0202574
0.0234253
0.0206941
0.215621
0.0206471
0.359336
0.356603
0.0366577
0.211809
0.0406573
0.0361118
0.303518
0.0208517
0.0203058
0.0206531
0.0207253
0.329398
0.0206054
0.0206125
0.0237499
0.0210403
0.0201767
0.239145
0.250145
0.313664
0.0202013
0.349858
0.317615
0.258585
0.020705
0.0203237
0.0219007
0.0201546
0.308476
0.0232115
0.0202641
0.0278425
0.0205619
0.331998
0.0472693
0.0205938
0.580214
0.129154
0.0203402
0.321528
0.387901
0.0932116
0.0207306
0.304922
0.367259
0.0196295
0.0204932
0.365793
0.0199986
0.0208335
0.404309
0.0210695
0.0203583
0.0205031
0.0203236
0.287533
0.0201619
0.020333
0.316984
0.0807282
0.0204767
0.0207318
0.234034
0.308277
0.0210427
0.108422
0.0203726
0.662612
0.0695807
0.0215329
0.0202043
0.300008
0.468083
0.0216979
0.0200862
0.385548
0.0231646
0.0201859
0.716099
0.0209066
0.0759122
0.0204584
0.364335
0.326108
0.264547
0.346191
0.0204057
0.284785
0.0208467
0.0287441
0.315577
0.0201415
0.0480436
0.0198063
0.386101
0.020678
0.0203309
0.019958
0.0204404
0.0202115
0.0200975
0.044957
0.021432
0.0636525
0.0216729
0.0196923
0.0218776
0.380172
0.0205392
0.287758
0.0202552
0.0210704
0.468723
0.021125
0.31915
0.0233349
0.151954
0.0200596
0.020118