/*--------------------------------*- C++ -*----------------------------------*\
| =========                 |                                                 |
| \\      /  F ield         | OpenFOAM: The Open Source CFD Toolbox           |
|  \\    /   O peration     | Version:  v2012                                 |
|   \\  /    A nd           | Website:  www.openfoam.com                      |
|    \\/     M anipulation  |                                                 |
\*---------------------------------------------------------------------------*/
FoamFile
{
    version     2.0;
    format      ascii;
    class       volVectorField;
    location    "300";
    object      ddtCorrDdt0(U);
}
// * * * * * * * * * * * * * * * * * * * * * * * * * * * * * * * * * * * * * //

dimensions      [0 1 -2 0 0 0 0];


internalField   nonuniform List<vector> 
10042
(
(-0.00043096 -0.000143428 -4.14944e-18)
(-0.000214925 -0.000411169 7.04911e-19)
(0.000761233 0.00140569 7.62024e-19)
(0.000123455 6.68026e-06 -1.34102e-18)
(-0.0104337 0.00288575 -3.32772e-18)
(-0.000190855 -0.000456163 7.85814e-18)
(-0.179324 0.0556642 7.0231e-17)
(-0.0476072 0.0478908 4.41163e-17)
(0.000422623 0.00105509 3.83232e-19)
(-0.000199723 -3.83782e-05 -9.06601e-19)
(0.0262151 0.000168166 1.32725e-17)
(0.000184325 9.1196e-06 5.78572e-19)
(0.00014562 0.000100115 6.65716e-19)
(0.000169396 3.49673e-05 -1.16482e-18)
(-0.00219042 -0.00199141 -9.50522e-18)
(-0.000255233 -0.000259886 3.82714e-18)
(-0.000266056 -0.000219441 6.34014e-19)
(-3.96398e-06 -3.74733e-05 -2.12032e-18)
(-0.000417756 -0.000130022 -3.19349e-18)
(-0.00367069 -0.0101777 -5.741e-17)
(-0.000157775 0.000106817 -1.76769e-19)
(-0.00452045 0.0541049 3.08348e-18)
(0.000123634 2.45833e-05 6.27868e-19)
(4.78247e-05 0.000171222 -5.96674e-19)
(-0.000202682 -0.000449289 -2.0584e-18)
(0.00215208 0.00836721 -4.55757e-18)
(-6.27553e-05 -0.000700923 -1.13011e-18)
(-0.00238958 -0.000321776 2.53566e-18)
(-0.000407026 0.000887525 6.22132e-19)
(-0.00206357 7.7008e-05 1.21666e-18)
(-0.000155243 -0.000420338 8.26005e-18)
(-0.000942635 -0.000386955 3.2354e-17)
(-0.000195546 -5.66876e-05 7.65695e-19)
(-0.00165619 0.00118368 8.4123e-19)
(-0.00234294 0.0052212 1.24941e-18)
(3.12962e-05 0.000163505 2.20266e-19)
(0.00161191 0.00772822 1.0176e-17)
(0.00679722 0.0100391 3.43725e-18)
(2.64415e-05 0.00014875 -4.06779e-19)
(-0.00571532 -0.000297098 1.55519e-18)
(-0.00339045 -0.0102053 1.68875e-17)
(-0.00220813 -0.0016384 -8.68788e-18)
(-0.181013 0.0610286 -1.00413e-16)
(-0.00135248 -0.000680189 -1.02579e-17)
(-0.00896852 0.00230769 -7.84932e-17)
(0.00682502 0.0220624 -3.14986e-17)
(-0.00151324 -0.00137796 4.26233e-18)
(0.0221479 0.0344753 3.85083e-18)
(-0.000125237 0.00682507 1.48864e-17)
(0.0221642 0.00978908 -1.35819e-17)
(-4.18776e-05 -4.50337e-05 2.15473e-18)
(0.00228808 -0.00134045 2.86086e-18)
(-0.00168933 -0.00207068 1.03942e-18)
(0.00370958 -0.000609663 7.30684e-19)
(0.00120073 0.00769058 -9.60572e-18)
(-0.000210635 -0.000424455 -1.03792e-17)
(-0.000375208 0.000955479 -9.51698e-19)
(-0.00147162 -0.00137721 -2.09187e-18)
(-0.00155373 0.00123398 -4.59173e-19)
(-0.00171906 -0.00198591 6.67672e-18)
(-0.000178058 -0.000472265 -9.76132e-19)
(-0.000247931 -0.000251953 -1.00059e-18)
(-0.00264534 0.0052732 -2.39175e-18)
(0.000702542 0.00136214 -9.87885e-19)
(-0.00071478 -0.00191214 -8.6284e-18)
(-0.00147063 0.0014252 -1.19836e-18)
(-0.000521097 -0.00154543 1.07033e-17)
(-0.00348717 -0.00877763 -1.79241e-17)
(0.0260627 -0.00385433 -6.46923e-17)
(-0.00102505 -0.000293897 5.76971e-18)
(0.00364339 -0.000880522 -9.36091e-18)
(-0.00335328 -0.0105248 -1.03764e-17)
(-0.0013421 -0.000720754 8.9845e-18)
(-0.00208078 -0.00504121 2.378e-17)
(-0.000369226 -0.00151856 -2.03475e-18)
(5.24116e-05 0.000185772 1.05937e-18)
(-0.00922343 0.00165556 -1.39208e-19)
(-0.000387935 -0.000118743 -9.99968e-19)
(-0.00304415 -0.0040868 -1.07613e-17)
(-0.154535 0.0388267 -3.049e-17)
(1.14755e-05 0.00653181 1.6406e-17)
(-0.010884 0.00503442 4.21297e-17)
(-0.00138463 0.000201195 5.81921e-18)
(-0.00194656 -0.00157051 3.82266e-18)
(-0.000483093 -0.00157109 -1.52588e-17)
(-3.2176e-05 -0.000222004 3.19806e-19)
(-0.00048768 -0.000192095 8.56446e-18)
(-0.019235 -0.00270581 -3.36952e-17)
(-0.000859542 -0.000988587 9.60287e-18)
(-0.000484954 -0.000162455 -3.97105e-18)
(-0.000623375 0.00198073 6.68773e-20)
(-0.00931353 0.00394264 3.40138e-17)
(-0.00248743 -0.000262706 -4.84797e-18)
(0.00212038 -0.00120083 -1.24917e-18)
(-0.00198121 -2.15216e-05 -2.57223e-18)
(-0.000900575 0.000650925 -3.08632e-19)
(-0.000351625 3.08823e-07 4.52794e-18)
(-0.000968529 0.000244872 1.83138e-18)
(-0.00550778 -0.000222925 -9.60273e-19)
(-9.13357e-05 0.00116626 5.66851e-20)
(5.31265e-07 -5.87243e-06 1.64456e-18)
(-0.0189013 0.002947 -4.64443e-18)
(-0.0855874 0.0548982 -9.22085e-18)
(-3.85757e-05 -0.000237841 -3.24447e-19)
(-0.00216364 -0.000708755 -6.34684e-18)
(-0.010648 -0.00169869 4.42579e-19)
(-0.000405664 -0.00026284 1.5984e-18)
(-0.000354417 5.01544e-06 6.14876e-18)
(-0.000153615 0.00010057 5.53157e-19)
(0.000297369 -0.000134777 -7.34261e-20)
(-2.27251e-05 2.00895e-05 1.14629e-18)
(-0.000731271 -0.000123378 -1.9969e-18)
(-0.00404307 0.00240662 -3.0546e-19)
(0.0312249 -0.00469259 -2.05654e-17)
(-0.00066391 -0.00189906 6.41321e-18)
(-0.000695757 -0.000206209 7.89186e-19)
(-0.000183493 -0.000312652 4.53088e-19)
(-0.000404441 -0.000134493 5.67306e-18)
(-0.000848699 0.000687488 -1.44204e-18)
(0.00706937 -0.00473697 -5.22698e-17)
(-0.000822519 -0.000959344 -2.9035e-18)
(-0.0393601 0.0535262 7.52733e-17)
(-0.00145794 -0.000461737 -9.80601e-18)
(-9.96642e-05 -0.000298194 1.35861e-17)
(-0.0185603 0.00372371 1.57049e-17)
(-0.0014285 0.000133237 -3.30811e-18)
(-0.0301173 0.0481254 -6.9283e-17)
(-0.00220415 0.00672586 1.21573e-18)
(-0.0101968 -0.00177099 -1.47713e-18)
(-0.000508376 -0.000180151 1.71831e-18)
(-0.00317406 -0.00421079 -5.24125e-18)
(-0.00083386 -0.00129614 -4.61167e-18)
(0.0187534 -0.00406977 -2.04753e-17)
(-0.0186161 0.0320574 -4.47917e-18)
(-0.000141128 0.0011219 1.02958e-19)
(-0.0130896 0.00232571 -2.65437e-19)
(0.00558361 -0.00277121 -1.52432e-17)
(-0.000720434 0.00201019 2.13031e-19)
(0.0205396 0.0366464 -1.04846e-17)
(-0.0198205 -0.0032783 1.20174e-17)
(-0.0021638 -0.00101087 5.52083e-18)
(-0.000170182 -0.000336484 -1.41565e-18)
(-0.00189447 -0.00100789 -4.29809e-18)
(-0.0221788 0.00840722 2.60936e-17)
(0.00153373 -0.000584565 1.98863e-18)
(-0.0007155 -0.000131974 2.89887e-18)
(-0.0127965 0.00580013 -1.19779e-17)
(0.00051728 -0.000193183 -2.5556e-19)
(-0.00101529 0.000257175 -2.98628e-18)
(-0.00410376 0.000613348 -3.51332e-18)
(0.000629621 0.00106331 8.41744e-19)
(-2.64169e-06 -1.3102e-05 4.53031e-18)
(-0.0955617 -0.00072339 3.02364e-17)
(0.00903606 -0.00690686 -1.05468e-16)
(-3.2335e-05 -0.000520868 -1.81651e-18)
(0.000147969 8.60795e-05 -5.25383e-19)
(-0.000455668 -0.00239323 -4.36289e-18)
(-0.000245707 -0.000231029 3.32827e-18)
(-0.013196 0.00168363 9.18814e-18)
(-0.00402449 0.00940952 -4.6499e-17)
(0.026481 0.00291647 -2.1113e-17)
(-0.0153169 0.0253678 2.27118e-17)
(-0.000193536 -0.000285245 1.0838e-18)
(0.000560525 0.00110273 1.09931e-20)
(-0.00148289 0.000498854 2.60074e-18)
(-0.000791527 -0.0012641 1.06734e-17)
(-0.00846366 -0.00592258 4.97917e-18)
(0.0157612 0.0127623 -5.79896e-17)
(0.0020904 -0.00154085 -3.42509e-17)
(0.00949082 -0.00760162 9.41452e-17)
(0.00306829 -1.88507e-05 -5.77605e-19)
(-0.000319807 4.04729e-05 -1.9811e-19)
(-0.0101098 0.00649896 1.10729e-17)
(-0.00399115 -0.010801 3.8672e-17)
(-0.00522941 -0.00462311 -1.18567e-18)
(-0.212775 0.117792 5.89697e-19)
(0.0468715 -0.052269 -3.14895e-17)
(-0.00136707 -0.000565336 6.35768e-19)
(-0.0035556 -0.00909358 -5.79988e-17)
(-0.00640445 0.00352126 2.40805e-18)
(-0.00047894 -0.00247441 -1.35429e-17)
(-0.0028066 -0.00187255 -8.75773e-19)
(-0.000636391 -0.00165474 -1.14759e-17)
(-0.00231516 0.00645839 9.75519e-18)
(-0.00209205 -0.00166471 -7.96952e-18)
(0.00806801 -0.00332454 -3.83253e-17)
(-0.0229043 0.0251445 -9.40517e-18)
(-0.00127622 0.00121822 9.50947e-19)
(0.0273832 0.00718254 -2.21357e-17)
(-0.000884905 0.00404291 1.09526e-18)
(-0.00482291 -0.0159853 -6.15921e-19)
(-0.00188832 -0.00113855 6.98689e-18)
(-0.0994232 0.000412076 -9.45007e-17)
(-0.0157596 0.00834615 1.19918e-17)
(-0.00665757 0.0287729 9.44707e-18)
(-0.0354718 0.0155968 1.46656e-17)
(0.00104864 0.00565333 -1.08501e-18)
(-0.000371478 -0.000186394 -6.62105e-18)
(0.000138557 8.32734e-05 -3.09668e-19)
(-0.00269178 0.00195726 -6.94478e-19)
(-0.00431454 -0.00503701 -1.5018e-17)
(-0.00125443 0.00126049 -1.60796e-18)
(-0.000707039 -5.90513e-05 9.9485e-19)
(-0.00447768 -0.0109854 -1.08934e-16)
(-0.000576241 -0.0016535 2.47448e-18)
(-5.94833e-05 0.000496262 2.83346e-18)
(-0.00502274 -0.0172463 5.91166e-18)
(-6.01138e-05 -0.000619247 -3.16525e-18)
(-3.89787e-06 -4.58045e-05 -1.01372e-18)
(-4.01321e-06 -0.000216109 1.26489e-18)
(-0.0388068 0.0133586 -4.94694e-18)
(0.000176915 1.27927e-05 -1.87009e-19)
(-0.00809878 -0.00570029 -4.47669e-19)
(-0.0128231 -0.0119213 -5.30078e-18)
(-0.000526264 -0.00233013 3.98839e-20)
(-0.0237769 0.0245602 -3.88739e-19)
(-0.000326018 -0.00129306 4.81713e-18)
(-0.000275771 -6.62488e-05 -3.20658e-18)
(-0.0138131 0.00885026 -1.01656e-17)
(-0.00032929 9.04244e-05 -2.573e-18)
(-0.00413873 0.00268276 2.42664e-20)
(-0.00078814 -0.00241145 1.41437e-17)
(-0.0175259 -0.0103663 -1.52063e-17)
(0.00720473 0.0107723 8.67565e-18)
(-0.00267051 -0.00255701 -5.89062e-18)
(0.00286593 0.00891633 4.04914e-19)
(-0.0240022 0.0382485 -9.39862e-18)
(-0.000706397 -0.000173077 -5.52989e-18)
(-0.0202448 0.0221447 -7.06095e-18)
(0.00400564 -0.00112693 3.30017e-18)
(0.000507434 0.00103983 -1.73481e-19)
(-0.00665584 -0.0104475 -8.8138e-18)
(-0.00031526 4.89788e-05 1.0697e-18)
(0.00395175 -0.00141214 -2.80582e-18)
(0.00076024 0.00145353 2.36791e-18)
(-0.00423661 0.000751852 4.61447e-18)
(-0.000185775 0.000442126 4.81608e-19)
(0.000177008 1.48122e-05 6.49606e-19)
(0.0012417 0.0034707 3.35067e-20)
(0.00818482 -0.000853715 -1.11748e-17)
(-0.000176476 -0.000300806 -1.82878e-18)
(-0.00145688 -0.000535111 8.71974e-18)
(-0.00139814 0.000473731 7.59985e-19)
(-0.00423982 0.00225585 -1.08328e-19)
(-0.000661972 -0.000179652 7.13341e-19)
(-0.000165358 -0.000423794 -3.91648e-18)
(5.16952e-05 3.80217e-05 -3.74418e-19)
(-0.00227169 -0.00064753 2.96009e-18)
(0.0033524 -0.000368225 -3.07095e-18)
(-2.3948e-06 -2.66337e-05 -6.07628e-19)
(0.000141518 5.19492e-05 1.26644e-18)
(-0.000978379 -0.000267271 -3.94795e-18)
(-0.00346741 -0.000415556 2.09385e-18)
(-0.0181398 -0.0110854 3.60491e-17)
(-0.0158414 0.0243273 -3.55826e-18)
(0.0238081 0.0076656 5.23142e-17)
(-0.00518152 -0.00496778 -4.92651e-18)
(-0.00569763 -0.00416989 1.40695e-17)
(-0.00230276 -0.00200462 -4.4067e-18)
(0.00565218 0.0246389 -1.70831e-18)
(-0.211041 0.0976594 -4.48512e-18)
(0.00117501 0.00327052 -9.21009e-19)
(-0.000392525 -0.000240972 -1.55249e-18)
(0.000172642 1.82193e-05 -5.85778e-19)
(-0.00260945 0.00178102 1.05074e-18)
(-0.000175189 0.000409051 -1.03845e-18)
(-0.00268181 0.0570902 1.10723e-17)
(0.00358832 0.0017325 -3.10791e-18)
(-0.00051168 -0.000197007 7.35652e-19)
(-3.43678e-06 -0.000182097 3.39898e-19)
(-0.00418898 -0.00529075 2.27194e-17)
(0.00352449 -0.00037648 5.22663e-18)
(-0.0133988 -0.0113218 -1.40236e-18)
(-0.00555212 -0.00460452 -1.53302e-17)
(-0.0219587 -3.67594e-05 -1.73025e-17)
(-0.00110276 0.00413564 -1.76087e-18)
(0.0082817 -0.00145588 -7.43702e-19)
(-0.000186022 0.000346412 3.67104e-18)
(0.00406687 0.00434131 6.3685e-18)
(0.00161648 -0.000504305 -5.00241e-19)
(-0.00675286 0.00364079 -4.05843e-18)
(-0.000875288 -0.000791929 3.98955e-18)
(0.0016854 0.00832844 -5.11127e-18)
(0.016738 -0.00486508 9.22691e-18)
(-7.5609e-05 0.000466916 -3.30642e-18)
(0.000395539 0.00139663 9.14423e-19)
(-0.206643 0.0907657 1.58202e-17)
(0.00574074 0.0230224 2.90112e-17)
(-0.00118343 0.00120329 -1.67313e-19)
(-0.000162452 -0.000478856 -2.71845e-18)
(-0.00333943 -0.000382839 -1.72465e-18)
(-0.21722 0.131997 -1.26319e-17)
(-0.00734121 0.0150481 -8.31148e-19)
(-0.0226804 0.00905965 2.06051e-19)
(-3.49175e-05 -3.86056e-05 -1.13424e-19)
(0.000145442 7.21033e-05 -3.02485e-19)
(-0.00072732 -0.000156663 6.63081e-19)
(0.000399442 0.00112281 -7.10726e-20)
(-0.0245102 0.0404042 1.38551e-17)
(-0.000696307 -0.000456509 1.08151e-19)
(-0.000187633 -0.000438007 -2.42722e-18)
(-0.000365484 1.05488e-05 -2.08867e-18)
(-0.000278816 -0.00129613 1.90569e-18)
(0.00975419 0.00958783 -3.25964e-18)
(-0.00267196 -0.00164104 4.82647e-18)
(-0.0141377 -0.00195965 -1.04826e-17)
(-0.0400868 0.00213297 3.26378e-17)
(-0.00161633 -0.00192952 -1.54828e-18)
(-0.0908374 0.0164356 -1.51314e-17)
(-0.000604192 -0.000154937 -1.26627e-17)
(0.00393001 0.00413511 2.17479e-18)
(-6.46903e-05 -0.000699343 3.60259e-18)
(0.0144499 -0.00194686 2.46215e-17)
(-0.0187732 0.00529722 -7.84838e-18)
(-0.0400257 0.00357771 -2.67277e-17)
(0.0300049 -0.0638191 -1.24941e-17)
(7.56489e-05 0.000206565 6.03248e-19)
(0.00377729 0.001622 -1.52284e-18)
(-0.00106224 -0.000261065 -2.35108e-18)
(-0.00302992 -0.00116642 -1.64689e-17)
(0.00232273 0.00889342 -1.18156e-18)
(-1.0778e-05 -0.000122758 1.99036e-18)
(-0.00708226 0.0023238 1.16331e-18)
(-1.99032e-05 2.10027e-05 -3.97932e-19)
(0.000174201 1.71795e-06 -2.9873e-19)
(-0.00138286 -0.000656757 6.26385e-19)
(-0.0146424 -0.00232787 -8.28305e-18)
(-1.09773e-06 -3.73134e-05 3.00011e-18)
(-0.000854463 0.00379239 -1.4836e-18)
(-0.000698475 -0.00123305 -8.48179e-18)
(-0.00258736 -0.00157258 6.83044e-19)
(0.0418834 -0.0152064 -3.19548e-17)
(-0.000639599 -0.000182424 9.41332e-18)
(-4.32504e-05 -0.000569216 -1.75485e-19)
(-0.000119743 1.10659e-05 -2.31783e-18)
(0.000726002 0.00125287 5.4276e-20)
(-0.00977454 0.00210947 -2.72231e-18)
(-0.00635297 0.0298564 3.78373e-18)
(-0.00587983 -0.00396986 -2.49659e-18)
(-0.0449565 0.0259272 -5.3566e-17)
(0.00911104 0.010022 1.91876e-17)
(-0.00211296 0.00613896 -8.81824e-18)
(-0.000736273 -0.00128177 -1.32038e-17)
(0.000176395 2.74093e-05 -3.37766e-19)
(-0.000362942 0.00227288 3.53252e-19)
(-2.77935e-06 -3.01184e-05 3.36133e-18)
(-0.0249377 0.0293524 4.97354e-18)
(-0.00091541 -0.000772354 -2.12506e-19)
(-0.00157146 0.00136464 4.80427e-19)
(0.0384503 0.0321323 -8.11372e-18)
(-0.000732483 -9.08864e-05 1.30866e-18)
(-0.00336983 -0.000988357 -7.1712e-18)
(-0.00205196 -0.00156615 -3.13735e-18)
(0.0384309 0.0357421 1.74562e-17)
(0.00137469 0.000724368 1.58305e-18)
(-0.00258714 -0.00250648 -9.83122e-18)
(-0.00992666 -0.00143016 1.15627e-18)
(-0.00689405 0.00210363 -1.45559e-18)
(-0.00247114 0.00217742 -4.06548e-20)
(-0.000339354 -0.000221637 5.52452e-18)
(-0.0720427 0.0226199 -8.7158e-18)
(-0.0131434 0.00617657 3.41157e-17)
(0.00169248 0.00169426 2.80094e-19)
(-0.00951302 0.00248878 -2.72471e-18)
(-0.000295322 5.7475e-05 -7.25623e-19)
(-0.000300551 6.15456e-05 -1.48775e-18)
(-0.000291924 6.92474e-05 -2.37134e-18)
(-0.00338042 -0.00111426 -9.90992e-18)
(-0.0362612 0.00101476 -1.03653e-17)
(0.00573482 0.000384226 1.14725e-18)
(-8.43157e-06 -9.42491e-05 5.84215e-18)
(-0.00164793 -0.00185999 2.29615e-18)
(-5.96323e-08 -6.65115e-06 2.33106e-18)
(-4.8246e-06 -8.42092e-05 7.52327e-18)
(-0.00402606 -0.0103134 1.21438e-17)
(-0.000357165 -0.000192327 -2.31372e-18)
(0.000325408 0.0005107 -4.78787e-20)
(0.0057017 -0.0033671 -4.64886e-18)
(-0.000167404 7.39409e-05 -1.06954e-19)
(-0.151796 0.0567101 9.81347e-18)
(-0.0243683 0.0301184 9.11786e-18)
(-0.00232639 -0.00508815 -2.38378e-17)
(-0.20716 0.145616 1.23906e-16)
(0.0207678 0.00868775 -4.08226e-19)
(-0.00504182 1.99324e-05 -3.22904e-18)
(-0.00617789 -0.0105814 1.9251e-17)
(-5.27854e-05 -0.000632418 8.05894e-18)
(0.0221966 0.0114183 1.56646e-17)
(-3.11813e-08 -2.58848e-05 -4.44196e-18)
(-0.0013443 -0.00142582 9.87691e-18)
(0.0566777 0.064074 -7.17362e-17)
(-0.000201165 -0.000286492 -2.24946e-19)
(-0.00310253 -0.00126711 2.08719e-17)
(-9.87153e-05 -0.0180446 -6.48289e-18)
(0.000136946 1.85012e-05 -1.04334e-18)
(-0.000168562 0.000103816 -2.60752e-18)
(-0.00261658 -0.00725839 -1.69768e-17)
(-0.00532781 -0.0163732 1.02829e-18)
(-0.00139294 0.00136486 9.78849e-19)
(0.000518543 -0.000110047 2.96152e-19)
(0.00201719 -0.00258861 -3.07537e-17)
(-0.0192151 0.00449748 1.57319e-17)
(-0.000335013 2.87463e-05 -3.38328e-19)
(-0.00306506 -0.0086479 3.72064e-17)
(-0.0158918 0.00592118 -1.3072e-16)
(-0.000340344 0.000107007 2.66022e-18)
(-4.37323e-06 -6.24838e-05 9.80485e-21)
(0.000110641 0.000503245 -1.62599e-19)
(-0.000571737 -0.000196867 -3.69875e-18)
(0.000178406 4.2054e-06 2.78197e-19)
(-4.98111e-05 0.000449937 2.70799e-19)
(-0.090077 0.0194186 3.39191e-18)
(-0.0800875 0.04857 -3.10306e-17)
(-0.00139574 -0.00143812 -5.76308e-19)
(-0.0418853 0.00565602 -9.36841e-20)
(0.000161297 3.19183e-05 1.4999e-18)
(-0.000655105 -0.000429215 -8.94515e-21)
(-0.0283539 -0.00360761 1.26701e-17)
(0.00130806 0.00133894 3.19151e-19)
(-0.134206 0.0536301 -1.81014e-17)
(-0.00791463 0.0156505 -9.80028e-18)
(-0.00189265 -0.00165934 4.54821e-18)
(0.000428231 0.000351599 -1.17175e-19)
(0.000496611 -9.13434e-05 1.29472e-19)
(-0.0136575 -0.00793123 3.21177e-18)
(0.00327861 -2.83523e-05 5.19071e-19)
(-0.00504298 -0.000232453 4.96836e-18)
(-0.00201306 -0.000373886 6.51864e-19)
(0.0257874 0.000383569 -9.97487e-18)
(-0.000496998 -0.00225413 5.70779e-18)
(-0.0209826 0.00695343 -9.38976e-18)
(-0.00217085 -0.00187421 2.97952e-18)
(-0.000237271 0.00010401 2.57657e-18)
(-0.000718706 -0.000197726 4.81976e-19)
(-0.0211478 -0.00899198 6.10156e-18)
(-0.000242475 8.12851e-05 1.21544e-18)
(-0.000972145 -0.00361337 -2.51154e-17)
(-0.000810066 -0.000402983 6.06009e-18)
(0.00129461 0.000713343 -1.29706e-18)
(-0.000769793 0.00459564 3.40948e-17)
(0.000457339 0.00575269 3.47025e-18)
(-0.000238507 -0.000350395 1.4463e-17)
(-9.37578e-06 1.57962e-05 7.69254e-19)
(0.00557097 -0.00117776 8.46169e-18)
(-0.000537359 -0.000199888 -1.06168e-17)
(0.00024839 0.00597387 5.69884e-19)
(-0.00273367 0.00147822 1.85458e-18)
(-0.00019743 0.000374373 -5.92736e-19)
(-0.0460051 0.00904597 -1.83664e-17)
(-0.202761 0.129821 -3.45762e-17)
(-0.000174044 0.000109047 5.68156e-18)
(-0.000658375 -0.0018081 2.66402e-18)
(0.00592817 0.000730475 -3.12375e-18)
(0.000136387 6.20322e-05 -1.64016e-18)
(-0.000275055 -0.000144395 4.8193e-18)
(-5.91326e-05 -0.000293172 9.03702e-19)
(0.00633076 -0.00133051 -2.40586e-17)
(-4.93095e-05 -0.000336555 -4.78389e-18)
(0.000166957 1.58455e-05 2.42997e-20)
(-0.00463877 -0.00173722 7.17925e-18)
(-0.0453865 0.05508 4.47422e-17)
(-0.0124106 0.00935134 3.63522e-18)
(-2.43522e-06 -3.36912e-05 3.5712e-18)
(-0.00611484 0.00383854 -1.58291e-18)
(-0.035176 0.011135 -4.19874e-17)
(0.0106633 0.0101851 9.82558e-18)
(-8.39588e-05 -0.000412114 -3.10385e-18)
(-0.000322751 -0.000199184 9.71718e-19)
(-0.0191714 0.0307319 9.16615e-18)
(0.00162612 0.00162644 -2.67357e-18)
(-0.00022894 9.71032e-05 1.32872e-19)
(-0.00264898 -0.0040697 1.111e-17)
(0.000444314 0.00120104 -2.53308e-20)
(-5.00022e-05 0.000416556 -3.75047e-19)
(-0.000846866 -0.00245197 4.28566e-18)
(0.000174755 0.000221791 6.68263e-21)
(-0.00656749 -0.00354042 5.34983e-18)
(-0.000427186 -0.000309251 -9.54971e-18)
(-0.000248232 7.21771e-05 1.45335e-18)
(0.0271171 0.00040341 -2.05896e-17)
(-8.15682e-05 4.39564e-05 3.43674e-18)
(0.00286962 -0.000223343 9.33959e-19)
(-0.000198056 -0.000262941 -2.13127e-18)
(-0.00193646 -0.000325772 -3.40729e-18)
(-0.00689043 0.00277096 -2.4095e-19)
(-0.000169629 0.000111861 -2.97633e-18)
(0.000663678 0.00120382 9.18117e-20)
(-0.0424482 -0.000952417 -5.83137e-17)
(-0.00220503 -9.32629e-05 1.36488e-19)
(-0.109649 0.0102318 1.20128e-17)
(0.000952157 0.00323877 -3.28021e-18)
(-9.54071e-09 -1.17584e-05 -2.1973e-18)
(-4.67775e-07 -1.0066e-05 3.33418e-18)
(-0.0201177 0.0018192 -2.0886e-17)
(-0.000724752 -0.000747922 -1.63623e-18)
(-0.000221724 -0.000341267 -9.2607e-18)
(-0.00012612 -8.64251e-06 -8.20286e-20)
(0.00198805 0.00160771 -9.60512e-20)
(-0.00388112 -0.00263779 1.2518e-18)
(-0.167941 0.0449362 3.42897e-17)
(-0.000532655 -0.000217036 1.17309e-18)
(-0.00629906 -0.00365125 8.67377e-18)
(-0.00330846 -0.0157765 -1.09729e-18)
(0.011386 0.00968209 7.54797e-19)
(-3.84008e-06 -5.61372e-05 -2.27236e-18)
(-0.000165369 -0.000264922 -1.35292e-17)
(0.00184919 0.000439277 -2.32966e-18)
(-3.90126e-05 -0.000253344 8.88607e-19)
(-0.000565088 -0.000158945 3.56779e-18)
(-0.00413387 -0.0479792 -6.94883e-18)
(0.00642555 -0.00238106 4.85721e-17)
(-0.000188144 -0.000314349 -2.7173e-18)
(-0.00183956 0.0068364 7.36768e-18)
(0.00799466 0.00516847 -7.68294e-18)
(0.00771117 0.00496961 -9.65073e-18)
(-0.000342155 -0.00157113 2.40403e-18)
(1.27949e-05 3.44684e-05 2.85244e-19)
(-0.00786578 0.0524179 6.3646e-18)
(-0.0140226 -0.00739809 1.32208e-17)
(-0.0040908 -0.0157137 7.04931e-18)
(0.000393917 0.000349808 2.38754e-21)
(0.00192589 0.000558272 5.62052e-20)
(0.00122906 0.0013108 -5.78713e-19)
(-0.00017449 7.93771e-05 -1.36151e-18)
(0.0186303 0.00163953 -5.63157e-17)
(-0.00720482 0.00420756 5.08894e-20)
(0.00186445 0.00172418 -2.17084e-18)
(-0.000605228 0.00100256 -5.31831e-19)
(-2.51907e-05 1.62028e-05 -1.93093e-18)
(-0.000282269 -0.0014308 3.55437e-18)
(-0.00995434 0.0515802 -2.4805e-17)
(0.000783105 0.00587137 -2.43463e-18)
(-4.96649e-05 -0.000702937 2.96382e-18)
(0.00701697 -0.000971857 6.34603e-17)
(-0.00567995 -0.0152438 -4.80848e-19)
(-0.0116647 -0.0129872 -6.27001e-18)
(-0.0110492 -0.00130614 1.80279e-18)
(-0.000266567 -0.000180729 -3.44466e-19)
(-0.0002138 0.00115716 -2.2522e-19)
(0.0289445 0.00735614 -1.19839e-17)
(-0.011779 0.00639249 -3.77432e-18)
(0.00176459 -0.0267037 2.60616e-17)
(0.0317463 0.0141615 1.60852e-17)
(-0.00231725 -0.00255417 -2.12e-17)
(-0.000874702 -0.00369771 2.96186e-17)
(-3.04393e-05 -0.0001874 -2.68216e-18)
(-0.000655197 0.00374258 1.22241e-19)
(-0.000706439 -0.00177742 6.15409e-19)
(-3.68124e-05 -0.000211113 2.79466e-18)
(0.0269136 0.00238048 -1.20792e-19)
(6.11195e-05 4.22217e-05 -5.98891e-20)
(-0.000582773 -0.000153724 4.26857e-18)
(0.0102945 0.0208324 -1.91195e-17)
(-3.60761e-05 -0.000239318 -2.35579e-19)
(0.0179866 0.0669985 -2.96784e-17)
(0.000914491 0.00305315 6.68469e-19)
(-0.00400977 0.0392851 7.12789e-18)
(-0.00567283 0.000587815 -1.91268e-18)
(-1.50045e-05 -0.00021371 2.82292e-18)
(0.00296092 0.00230046 2.96998e-19)
(-0.00214868 0.00549852 1.52333e-19)
(0.0194846 0.000173239 -5.97666e-18)
(-0.0110754 -0.000955909 4.52172e-19)
(-0.00922466 -0.00747422 2.69588e-18)
(2.63022e-06 -4.75975e-05 2.53656e-18)
(0.0234677 0.00839623 -1.69246e-17)
(-0.00206165 0.00207436 8.38464e-20)
(-0.000915067 0.000555566 2.04575e-20)
(-0.000107116 -0.00021109 5.37825e-18)
(-0.000477685 0.00233009 -6.89413e-19)
(-4.81294e-05 -0.000494144 -1.4941e-18)
(-0.00242763 -0.00260451 1.39612e-17)
(-0.0121408 0.00981226 7.88148e-18)
(-0.00358381 -0.00611365 3.42447e-18)
(-3.73443e-05 -0.000703249 -8.21544e-18)
(-0.00229002 -0.000128494 -4.92947e-18)
(-0.000123817 -4.67054e-06 2.94772e-18)
(-0.000331841 -0.000406075 2.10242e-19)
(-0.0058216 -0.0103204 -4.88662e-18)
(-0.000150229 8.59886e-05 -8.00434e-19)
(-0.00279959 0.00119596 5.39444e-19)
(0.000483598 0.0525195 2.14335e-17)
(0.000160237 0.000220001 1.48486e-19)
(-0.012119 0.00591249 7.10963e-20)
(0.0384227 0.0120803 2.89759e-18)
(-0.000156877 -0.000468332 -9.98207e-20)
(0.00798828 -0.00205269 -2.30432e-17)
(0.00169292 0.0144693 3.87454e-18)
(-3.30736e-05 -0.000276965 -2.6955e-18)
(-0.0246207 0.0217959 -2.35514e-17)
(0.000898752 0.00154695 8.10465e-19)
(-2.66421e-06 -3.72123e-05 -3.10932e-18)
(-0.000507449 -0.00128029 -1.50705e-18)
(-0.000143271 -0.000274818 -3.974e-18)
(5.0535e-07 -1.77438e-05 4.18617e-18)
(-0.00152951 0.00383579 -1.95419e-19)
(-0.000258678 -0.00148666 -3.24292e-18)
(-0.00655017 -0.0147455 4.33903e-18)
(-0.00220907 -0.000908708 -6.0888e-18)
(-0.000177013 -0.000255834 8.8751e-18)
(-0.00126225 0.0015629 3.09412e-19)
(-0.0070805 0.00299437 2.11172e-18)
(8.9709e-05 0.010254 5.17958e-18)
(-8.67323e-05 -0.000292754 -1.03891e-17)
(0.00413279 0.00303465 9.21166e-18)
(-0.000248055 0.0011033 -5.19504e-19)
(0.00705309 0.00928828 -1.14029e-17)
(-0.00026193 -0.00107836 5.21265e-18)
(-0.00574046 0.000291665 9.83339e-19)
(0.000357337 0.000535372 9.98355e-21)
(-0.000533757 -0.00264447 -4.57443e-19)
(0.000473109 -1.29604e-05 9.95245e-20)
(-0.000293974 8.87658e-05 -1.37642e-18)
(-0.0554836 0.00235605 -6.90092e-18)
(8.94678e-05 0.000489902 -3.57946e-19)
(-0.00572885 -0.00990155 -1.13822e-17)
(-7.73997e-05 -0.000285724 3.13957e-18)
(0.00253795 0.00181792 5.36228e-19)
(-7.19112e-05 5.00081e-05 -9.14915e-19)
(0.0028854 0.0105443 -1.35829e-17)
(-0.000185085 -0.000290482 3.13648e-18)
(0.00106059 0.0150522 -5.13539e-18)
(-0.00110882 0.00120052 3.20716e-19)
(-0.0238923 0.021341 2.99491e-17)
(-5.2858e-06 -0.000115882 -7.37498e-18)
(-0.196224 0.0725749 2.51646e-18)
(0.000503922 -0.000238249 -1.90686e-19)
(-0.00243412 -0.00158989 -1.62503e-18)
(5.42602e-07 -0.000100731 1.82689e-18)
(-0.000351703 -0.00137918 -5.48914e-18)
(-0.000289423 4.02653e-05 3.271e-18)
(-0.00164213 0.00374475 2.15281e-18)
(-7.19881e-05 -0.000488788 3.53821e-18)
(-0.00314171 -0.0100256 -1.10596e-17)
(0.0128536 0.00376776 -1.0064e-16)
(0.0206141 0.0673791 -1.64823e-17)
(0.00180486 0.00407981 -1.5746e-18)
(-0.00581514 -0.00382005 -8.17205e-18)
(-0.00068509 3.78196e-06 2.31673e-19)
(-0.00711567 -0.00288954 -3.40751e-18)
(0.00808419 0.0222727 1.12685e-17)
(-0.000191878 -3.77026e-05 1.76605e-18)
(-0.00269884 -0.00387394 -1.65177e-17)
(-0.0092242 -0.00800184 1.62712e-18)
(-0.00178745 -0.0266579 -4.02794e-17)
(0.0394206 0.00988137 -2.94627e-18)
(-0.0100676 -0.00517075 -3.74238e-18)
(-0.00233222 0.00580188 -5.43316e-18)
(-0.00164002 -0.000298177 2.39935e-18)
(-1.78535e-05 -0.000156684 2.48303e-18)
(0.00408875 0.00383612 -6.27486e-18)
(-0.00124933 0.0040354 3.04823e-18)
(0.0175402 0.000512493 -3.78953e-18)
(7.14889e-05 0.000193923 -1.48687e-18)
(-0.00225177 0.00248502 6.23853e-20)
(-0.0152901 0.0232021 -4.63588e-18)
(-2.31305e-06 -1.14357e-05 3.06163e-18)
(-0.000320028 -0.000402628 -3.04982e-18)
(0.00447017 0.00321686 1.89713e-18)
(-0.0155376 -0.00948044 2.19706e-17)
(-0.00237622 -0.00149138 4.83932e-18)
(-0.00577593 0.00373594 -1.47592e-18)
(0.03015 0.00537613 9.89989e-18)
(-1.0671e-05 -0.000177217 -4.77756e-18)
(-0.156721 0.0432223 -6.36122e-17)
(4.85022e-05 0.000209346 -7.10434e-19)
(-0.000358043 1.07277e-05 1.65768e-18)
(-0.0020541 0.000169627 5.99584e-19)
(0.000404826 0.00125033 -6.43795e-19)
(0.0135218 -0.00229622 2.2907e-17)
(0.0113273 0.0253451 1.65712e-17)
(-0.00442794 -0.0127944 6.6647e-17)
(-0.000106074 -1.90002e-05 -3.27597e-18)
(-0.0251009 -0.00971547 -2.0452e-17)
(0.0167974 -0.00132342 -2.28758e-17)
(-0.0253535 0.0314846 -2.05538e-17)
(0.0167822 0.00115116 2.20374e-18)
(0.00658651 0.025447 9.64554e-18)
(-0.0193577 0.0228981 2.09291e-20)
(-0.00817033 -0.00198155 7.53853e-19)
(-0.000652928 -0.00124234 4.26242e-18)
(-0.000840511 -0.000439577 -2.98982e-18)
(-0.00280076 -0.00420342 -1.354e-17)
(0.0198981 -0.00174948 2.65449e-19)
(-0.000680661 7.70009e-05 3.84802e-19)
(-0.00479618 -0.00191982 2.39441e-18)
(-0.0756311 -0.00337261 -2.71324e-18)
(-0.000465612 -0.000351947 9.30781e-18)
(-0.000299902 0.000100643 -1.54779e-18)
(-0.000971043 0.000545662 5.86277e-19)
(-0.00247776 -0.000671814 -3.75684e-18)
(-0.000292291 3.33689e-05 3.83405e-18)
(0.00153327 0.000639592 3.06444e-18)
(-0.0194303 0.00119539 -2.48164e-17)
(-0.0357416 0.0130323 -5.66926e-17)
(0.00146836 0.00062245 2.6253e-18)
(-0.00027622 -8.2296e-05 6.02182e-18)
(0.0201639 -0.00327369 -2.96415e-18)
(-0.0962607 -0.00110447 -5.29389e-17)
(-0.000713277 -3.05442e-05 -5.08356e-18)
(-7.95005e-05 -0.000368628 1.00465e-18)
(-4.36624e-05 -5.39114e-05 -3.16593e-18)
(-0.000573193 -0.000213408 4.24935e-18)
(-0.0285956 -0.00504476 9.95708e-19)
(0.0130926 0.0252758 3.68269e-18)
(-0.0120542 -0.0116487 -2.63256e-18)
(-0.00214911 -0.000820431 2.06951e-18)
(-0.000310259 9.51361e-05 1.4013e-18)
(0.00070712 0.000926319 -7.11415e-20)
(-0.000399758 -0.00253472 8.21539e-18)
(-0.000167605 -0.000509352 -2.44982e-19)
(0.00462467 0.0100859 -8.34174e-18)
(-0.00156757 -0.001788 7.69403e-19)
(-0.0303739 0.000611101 1.7759e-17)
(-0.00027364 -0.000166447 -3.08342e-18)
(-0.000147616 -0.000161134 5.36856e-18)
(-0.00913913 9.87902e-05 -1.87765e-18)
(-0.000648457 6.98013e-05 2.59674e-18)
(0.0133214 0.00495944 9.3583e-18)
(-0.00679551 -0.00745599 -5.61003e-18)
(0.00276121 0.00217996 1.08789e-18)
(0.0114366 -0.00312824 4.18396e-17)
(-0.00479491 -0.0192782 -5.4985e-18)
(-0.00164758 -0.000379361 -1.87788e-18)
(-0.000590425 -0.000165295 8.95332e-19)
(-0.0943252 0.0132351 -1.91431e-17)
(0.025788 -0.00114799 -2.92638e-17)
(-0.00680133 -0.00202584 -1.224e-17)
(0.000892015 0.00148834 -1.052e-18)
(-0.0569086 0.0435588 -2.43616e-17)
(-0.00542688 -0.011222 -2.55144e-17)
(-0.00121834 -0.00348351 2.19291e-17)
(-0.000615157 -0.00117399 -8.22619e-18)
(-0.000118927 4.89505e-06 2.86216e-18)
(-0.000155635 9.31076e-05 4.0473e-19)
(-0.0142593 -0.0116618 4.64252e-18)
(0.00166273 0.00401679 1.97761e-18)
(-0.00513755 -0.00942472 1.80961e-17)
(-2.99431e-06 -4.15512e-05 1.36261e-18)
(0.0396064 -0.0118066 5.37783e-17)
(-0.0342848 0.00303187 -9.1154e-18)
(-0.000148743 -0.000269774 1.45171e-17)
(-0.000275544 -0.000179463 4.77532e-18)
(-0.00294823 -0.00979661 7.40552e-18)
(-7.80314e-05 -0.00063261 5.82284e-18)
(-7.16776e-05 5.1041e-05 9.74835e-19)
(-0.00392 -6.1942e-05 1.67761e-18)
(0.0169112 -0.00208641 6.02792e-18)
(-0.0129775 -0.0294569 2.23228e-17)
(-0.0585704 0.00506474 4.90296e-18)
(0.00265555 -0.000124388 -6.87657e-19)
(0.00157991 0.0214349 2.37689e-17)
(-0.00788607 -0.00171546 -2.45031e-18)
(1.4808e-05 0.000137629 -9.56096e-19)
(-2.21851e-05 1.21172e-05 3.55037e-18)
(-2.69869e-05 -0.000498343 2.25648e-18)
(-0.0148588 -0.0110123 -1.55902e-17)
(-2.91567e-05 -0.000156431 -2.73086e-18)
(-0.00019478 -0.000248165 3.43399e-18)
(0.00246319 0.0214267 -3.56896e-17)
(-0.000435836 -0.00152118 -1.21169e-17)
(-0.0135294 0.0081595 -1.41658e-18)
(-7.48777e-05 -5.61138e-05 -4.41589e-18)
(-8.96726e-05 -0.000686561 3.81198e-18)
(-1.29425e-05 1.99063e-05 1.06601e-18)
(-3.33891e-05 -0.000684059 -1.06738e-18)
(-0.0169349 0.0320053 1.22255e-17)
(-3.35398e-05 -0.00017718 2.26896e-18)