/*--------------------------------*- C++ -*----------------------------------*\
| =========                 |                                                 |
| \\      /  F ield         | OpenFOAM: The Open Source CFD Toolbox           |
|  \\    /   O peration     | Version:  v2012                                 |
|   \\  /    A nd           | Website:  www.openfoam.com                      |
|    \\/     M anipulation  |                                                 |
\*---------------------------------------------------------------------------*/
FoamFile
{
    version     2.0;
    format      ascii;
    class       surfaceVectorField;
    location    "300";
    object      ddtCorrDdt0(Uf);
}
// * * * * * * * * * * * * * * * * * * * * * * * * * * * * * * * * * * * * * //

dimensions      [0 1 -2 0 0 0 0];


internalField   nonuniform List<vector> 
14907
(
(-0.000425034 -0.000137484 -3.72622e-18)
(-0.000440969 -0.000150513 -2.49248e-18)
(-0.000434103 -0.000168224 -2.3369e-18)
(-0.000207973 -0.00043134 -7.60309e-19)
(-0.000214485 -0.000403763 -9.62505e-19)
(-0.000220117 -0.000396156 -5.23703e-19)
(0.000739377 0.00138078 3.55306e-20)
(0.000761157 0.00144019 1.66311e-18)
(0.000821784 0.00136674 1.3458e-18)
(0.000151469 8.8144e-06 -4.08357e-19)
(0.000142192 9.17917e-06 -8.09984e-19)
(-0.0098114 0.00260686 -4.06906e-17)
(-0.00958954 0.00200318 -1.6886e-18)
(-0.0140259 0.004294 3.52569e-18)
(-0.000199043 -0.000436484 -2.10129e-18)
(-0.000185005 -0.000470657 2.34988e-18)
(-0.00019015 -0.000454797 1.89596e-18)
(-0.179807 0.0582857 -1.50458e-17)
(-0.167789 0.0490796 2.40121e-18)
(-0.184754 0.0590082 3.62733e-17)
(-0.0440157 0.0504495 6.08568e-17)
(-0.0395366 0.048107 -1.12804e-17)
(-0.08249 0.0448532 3.66494e-17)
(0.000470545 0.00104736 9.54859e-20)
(0.000419717 0.00110487 1.17637e-19)
(0.000399375 0.00103049 2.39817e-19)
(-0.000197852 -4.69037e-05 -1.25717e-19)
(-0.000202192 -4.42746e-05 3.09773e-20)
(-0.000200726 -2.28108e-05 -1.57698e-18)
(0.0259781 0.000255118 1.60603e-18)
(0.0266699 0.000325659 -4.00236e-18)
(0.0258311 -0.000174873 -1.28658e-18)
(0.00017294 1.14939e-05 -7.05523e-20)
(0.000158012 5.57042e-06 7.06082e-20)
(0.000148287 9.54855e-05 1.31977e-19)
(0.000139095 0.000102622 -2.31511e-19)
(0.000148292 0.00010546 4.67382e-19)
(0.000172613 3.10968e-05 -7.36032e-19)
(0.000165394 3.34115e-05 1.74924e-19)
(0.000169467 4.07451e-05 -7.9995e-19)
(-0.00225191 -0.00199851 -6.74756e-18)
(-0.00218307 -0.00193062 -3.43143e-18)
(-0.00213233 -0.00205074 -5.36846e-18)
(-0.00025847 -0.000240809 2.30161e-18)
(-0.000246135 -0.000278411 -5.69755e-19)
(-0.000251597 -0.000255601 5.73616e-18)
(-0.000264709 -0.000196728 1.2324e-19)
(-0.000266882 -0.000214922 -2.86434e-18)
(-3.23269e-06 -3.24758e-05 -1.42097e-18)
(-3.47852e-06 -3.39933e-05 6.29925e-19)
(-5.60687e-06 -4.6826e-05 -1.63411e-18)
(-0.000410226 -0.000132422 1.77498e-18)
(-0.000415524 -0.000118699 -1.03467e-18)
(-0.0035031 -0.0102149 -1.45396e-17)
(-0.00383093 -0.0102315 -2.47214e-17)
(-0.00371516 -0.00994647 -2.76653e-17)
(-0.000153411 0.000100528 1.71415e-19)
(-0.000163659 0.000104809 -1.46457e-18)
(-0.000152637 0.000106592 2.68853e-18)
(-0.00383589 0.0557969 6.71046e-18)
(-0.00168502 0.0531212 1.35948e-17)
(-0.00558892 0.0528271 7.89777e-18)
(0.000129777 1.9982e-05 -2.98671e-19)
(0.000118355 2.39763e-05 1.56129e-19)
(0.000128811 3.14694e-05 4.38624e-19)
(3.93007e-05 0.000167421 -1.86665e-19)
(5.04618e-05 0.000178924 2.5321e-19)
(5.37772e-05 0.000167753 -3.58173e-19)
(-0.000200675 -0.000454162 2.37622e-18)
(-0.000198038 -0.00046301 -1.10522e-18)
(0.00191608 0.00834748 -4.84331e-18)
(0.00224704 0.00865267 -2.71034e-18)
(0.00232807 0.00811969 1.67321e-19)
(-6.54399e-05 -0.000700223 1.32074e-18)
(-5.45578e-05 -0.000700717 1.09488e-18)
(-6.16293e-05 -0.000688857 -2.84236e-18)
(-0.00244202 -0.000290506 -1.37214e-18)
(-0.002392 -0.000396546 1.65628e-18)
(-0.00233886 -0.000294239 7.47869e-19)
(-0.000389151 0.000922176 -1.81576e-19)
(-0.000439545 0.000893102 -1.32801e-19)
(-0.000394053 0.000860942 1.90705e-19)
(-0.00201976 2.75999e-05 -6.81518e-19)
(-0.00205075 0.000139711 8.11915e-19)
(-0.00213287 5.60824e-05 -6.50496e-19)
(-0.000160351 -0.000421478 2.31109e-18)
(-0.000159166 -0.000399162 5.23169e-19)
(-0.000145573 -0.000438284 2.48761e-18)
(-0.00192919 -0.00112249 1.47501e-17)
(-0.00127831 4.98784e-05 2.02146e-18)
(-0.000394172 -0.00111327 6.0991e-18)
(-0.000193452 -4.60958e-05 1.29805e-18)
(-0.000192608 -7.26024e-05 1.29686e-18)
(-0.00161102 0.00119938 2.97794e-19)
(-0.00172339 0.00124407 7.7258e-19)
(-0.00166255 0.00110074 -6.64645e-19)
(-0.00250949 0.00523928 -7.05228e-19)
(-0.00224511 0.00536543 6.80719e-19)
(-0.00227625 0.00508687 -2.38149e-18)
(2.95718e-05 0.000155926 -1.53653e-19)
(2.52071e-05 0.000165762 3.14714e-19)
(0.00136737 0.00770506 -3.17967e-19)
(0.00164481 0.0080647 1.8455e-18)
(0.00176398 0.00750251 4.8746e-19)
(0.00702446 0.0103859 6.20611e-18)
(0.0069459 0.00971438 -3.6988e-18)
(0.0064094 0.0100802 1.45126e-17)
(1.97048e-05 0.000142787 -7.48648e-19)
(3.22304e-05 0.000145685 -3.07951e-19)
(-0.00562328 -0.00028238 5.00235e-19)
(-0.00585003 -0.000248053 1.47753e-18)
(-0.00571425 -0.000505024 -3.41029e-18)
(-0.00336638 -0.0103739 2.59075e-18)
(-0.00327726 -0.0101241 2.91894e-18)
(-0.00214928 -0.00165153 -8.33714e-18)
(-0.00222859 -0.00168827 1.2498e-18)
(-0.00224314 -0.00158035 -2.04487e-18)
(-0.188932 0.0663446 -4.95905e-17)
(-0.172424 0.0571483 -6.1084e-17)
(-0.00134397 -0.000693565 -1.08398e-19)
(-0.00135599 -0.000664038 -4.30271e-18)
(-0.00131759 -0.000670495 -3.1046e-18)
(-0.00970344 0.0033806 -2.28779e-17)
(-0.0059807 0.000911291 -5.68421e-17)
(0.00627843 0.0226045 7.65739e-19)
(0.00740645 0.0221692 -9.57881e-18)
(0.00655516 0.0211823 -9.87443e-18)
(-0.00149516 -0.00137769 1.49972e-18)
(-0.0015511 -0.00135901 3.13526e-18)
(-0.00152164 -0.00144433 -3.13516e-19)
(0.0213603 0.0356605 -3.4813e-18)
(0.0212695 0.033199 6.54385e-18)
(0.0236096 0.0341923 1.19856e-17)
(-4.21813e-05 0.00662749 1.58646e-17)
(-0.000372124 0.00684901 2.60548e-18)
(3.00672e-05 0.00692192 6.7278e-18)
(0.0222211 0.0107322 2.59338e-18)
(0.0228325 0.00908558 -1.52657e-17)
(0.0210805 0.00931934 -1.52316e-17)
(-3.75968e-05 -4.22571e-05 9.94917e-19)
(-4.28515e-05 -4.9405e-05 -6.32143e-19)
(-4.60636e-05 -4.31238e-05 1.22284e-18)
(0.00220779 -0.00127328 9.00879e-19)
(0.00238853 -0.00128177 9.37443e-19)
(-0.0017016 -0.00203868 3.69777e-18)
(-0.00172078 -0.00210027 8.28294e-18)
(-0.00161579 -0.00209037 -2.79215e-18)
(0.00368304 -0.000739728 -3.92285e-18)
(0.00360497 -0.000485283 2.68292e-18)
(0.00390943 -0.000593615 -1.4247e-18)
(0.00102082 0.00795541 -3.88343e-18)
(0.00113097 0.00742579 1.62392e-18)
(-0.00021941 -0.000401784 -5.44747e-18)
(-0.000208073 -0.000413161 -2.89568e-18)
(-0.00034444 0.000959347 -2.49628e-19)
(-0.000395357 0.00100092 -5.17122e-19)
(-0.00143251 -0.00140928 -1.30504e-18)
(-0.00146797 -0.00133895 -4.28538e-18)
(-0.00156155 0.00130514 3.87342e-20)
(-0.00150629 0.0011701 -2.91236e-19)
(-0.00166947 -0.00195573 2.44346e-18)
(-0.00178322 -0.00197557 3.33542e-19)
(-0.000182158 -0.00045248 -1.75807e-18)
(-0.000171535 -0.000491183 -6.02645e-19)
(-0.00017533 -0.000460067 4.12512e-18)
(-0.000247808 -0.000238934 1.45177e-18)
(-0.000251527 -0.00023639 1.55402e-19)
(-0.000240849 -0.000272639 -3.33977e-18)
(-0.00276094 0.00514371 -2.37752e-18)
(-0.00275352 0.00542736 -2.56969e-18)
(0.000713514 0.00130435 -4.5938e-19)
(0.000648452 0.00139236 -5.76964e-19)
(-0.000691375 -0.0019063 -1.53914e-18)
(-0.000708717 -0.00196375 1.25919e-18)
(-0.000758173 -0.00189726 -6.31161e-18)
(-0.00152255 0.00139586 -2.28447e-19)
(-0.00142126 0.00137454 -4.45717e-20)
(-0.00144356 0.00150745 -6.89462e-19)
(-0.000511349 -0.00158521 -1.17908e-18)
(-0.000560848 -0.00160209 6.84344e-18)
(-0.000523993 -0.00152923 3.18111e-18)
(-0.00351308 -0.00894576 -3.91485e-17)
(-0.00326144 -0.00870463 1.18021e-17)
(-0.00363275 -0.00856086 -2.2085e-17)
(0.0289044 -0.00452804 -4.05886e-17)
(0.0236035 -0.00407293 -1.03217e-17)
(0.0253654 -0.00264355 -5.57986e-17)
(-0.00100285 -0.000280168 1.07483e-18)
(-0.0010454 -0.000276197 1.4005e-18)
(-0.00102885 -0.000322316 1.70479e-18)
(0.00384778 -0.00102104 -2.77971e-18)
(0.00349908 -0.000957265 -2.76996e-18)
(-0.00346277 -0.0106494 -1.89924e-17)
(-0.00135772 -0.000758631 6.88926e-18)
(-0.0012866 -0.000729569 4.85904e-18)
(-0.00221975 -0.00506947 -2.90881e-18)
(-0.00206053 -0.00493084 3.00911e-17)
(-0.00195601 -0.00518507 -6.79214e-18)
(-0.000355764 -0.00154475 2.75533e-19)
(-0.000403302 -0.00152132 -7.15008e-18)
(-0.000358085 -0.00148275 9.57526e-19)
(6.22619e-05 0.000189849 -2.34257e-19)
(4.59634e-05 0.000189262 3.27529e-19)
(-0.00689012 0.000927922 1.10277e-17)
(-0.0104524 0.00208129 -5.71736e-18)
(-0.000397252 -0.000127281 2.61927e-18)
(-0.000382767 -0.000123399 -2.06599e-19)
(-0.000386173 -0.000107805 -5.00283e-19)
(-0.00311646 -0.00415086 -7.88002e-18)
(-0.00291848 -0.00414837 -1.22121e-17)
(-0.00306946 -0.00398605 2.25859e-18)
(-0.161548 0.0422326 2.49836e-18)
(-0.155552 0.0409492 -4.7005e-17)
(-0.144505 0.0337042 -2.66312e-17)
(-0.000168935 0.00635414 6.00284e-18)
(0.000191942 0.00645833 -3.38084e-18)
(-0.0100358 0.00442086 3.75929e-17)
(-0.0143899 0.0061445 4.50603e-17)
(-0.0014072 0.000166194 8.78918e-19)
(-0.00135041 0.000191959 -1.62505e-18)
(-0.00141388 0.000245045 3.63508e-18)
(-0.00200088 -0.00156833 2.68703e-19)
(-0.00191787 -0.00161541 4.19806e-18)
(-0.00192385 -0.00151417 1.18249e-18)
(-0.000457615 -0.00154468 -1.36048e-17)
(-0.000463587 -0.00161509 -6.50423e-19)
(-3.48459e-05 -0.000229476 -9.13635e-21)
(-3.56894e-05 -0.000239816 6.21896e-19)
(-2.55873e-05 -0.000200536 -1.80359e-19)
(-0.000486184 -0.000176388 3.23453e-18)
(-0.000470977 -0.000176692 1.37501e-18)
(-0.000498892 -0.000205939 1.22523e-18)
(-0.0195431 -0.00300918 -9.58754e-18)
(-0.0187512 -0.0028558 -1.35045e-17)
(-0.0193657 -0.00228094 -7.08124e-18)
(-0.000843885 -0.0009755 3.83824e-18)
(-0.000882471 -0.000964351 -2.31765e-18)
(-0.000868905 -0.00102129 -4.1153e-20)
(-0.000509266 -0.000183999 -1.38086e-18)
(-0.000482018 -0.000146616 3.76804e-18)
(-0.000672822 0.00200255 1.36202e-19)
(-0.000579401 0.0020388 -1.64618e-19)
(-0.000612809 0.0019333 4.29021e-20)
(-0.00976933 0.00528077 2.26973e-17)
(-0.00685721 0.00240855 -2.01856e-17)
(-0.00248498 -0.000204614 -2.57986e-18)
(-0.00254636 -0.000303409 2.43468e-18)
(0.00214659 -0.00107639 -1.02101e-18)
(-0.0019959 -8.17122e-05 -3.16566e-18)
(-0.00193583 -7.07964e-06 1.19411e-18)
(-0.000877082 0.000666279 -8.72138e-19)
(-0.000905582 0.000606884 -1.1643e-19)
(-0.000927207 0.000689377 2.09838e-18)
(-0.000351804 3.07188e-06 5.35209e-18)
(-0.000350127 5.90823e-07 1.68559e-18)
(-0.000349664 2.80089e-06 -2.55387e-18)
(-0.000991528 0.000249607 -6.37473e-19)
(-0.000949694 0.000266334 7.29479e-19)
(-0.00096218 0.000209858 1.56344e-18)
(-0.00536758 -0.000317991 -2.12235e-18)
(-0.00551134 -4.35746e-05 2.54275e-18)
(-0.000110591 0.00114531 8.71705e-20)
(-9.88579e-05 0.001218 1.4045e-19)
(-5.41744e-05 0.00115596 -4.06919e-20)
(-1.05215e-08 -8.1964e-06 -2.0057e-19)
(-2.67362e-08 -8.18415e-06 2.53288e-18)
(-0.0187741 0.00325541 4.24509e-18)
(-0.0185636 0.00254756 -1.11546e-17)
(-0.0194199 0.00288669 -4.09258e-18)
(-0.0834161 0.0511434 -2.19667e-17)
(-0.11048 0.0550708 -1.50242e-17)
(-0.0661568 0.0554495 1.67106e-17)
(-4.29193e-05 -0.000254991 2.12765e-18)
(-3.45824e-05 -0.000222505 -8.13502e-19)
(-0.00221592 -0.000677242 -1.58272e-18)
(-0.00215625 -0.000766321 -2.00423e-18)
(-0.00212199 -0.000674897 1.49708e-18)
(-0.0104202 -0.00174407 -3.08327e-19)
(-0.0108223 -0.0015001 1.20303e-18)
(-0.0107825 -0.00211749 -5.42053e-19)
(-0.000399347 -0.000252815 1.67612e-19)
(-0.00041002 -0.000290982 -4.20524e-18)
(-0.000417559 -0.000261709 6.09466e-18)
(-0.000354909 1.56461e-05 1.38593e-18)
(-0.000362698 6.33128e-06 1.63267e-18)
(-0.000154412 9.67431e-05 4.7716e-19)
(-0.000148364 9.67766e-05 3.69121e-19)
(0.000308401 -0.00013723 -2.3002e-20)
(0.000293019 -0.0001232 -2.72466e-20)
(-2.09111e-05 2.05177e-05 3.15969e-19)
(-2.15453e-05 1.82482e-05 5.16852e-19)
(-2.50607e-05 2.08614e-05 1.00292e-18)
(-0.000722532 -0.000127978 5.34837e-19)
(-0.000728353 -0.000104722 -3.43441e-19)
(-0.000755316 -0.000135375 -1.37885e-18)
(-0.00409867 0.00255009 -1.32068e-19)
(-0.00414836 0.00232459 -3.75413e-19)
(-0.003929 0.00236617 -3.91096e-19)
(0.0323883 -0.00658092 2.81669e-19)
(0.0332479 -0.00226723 5.55914e-18)
(-0.000663875 -0.00185337 4.59174e-18)
(-0.000627976 -0.00192085 6.21474e-18)
(-0.000679185 -0.00019131 7.44132e-19)
(-0.000707523 -0.000201688 6.24624e-19)
(-0.000701705 -0.000220068 9.06563e-19)
(-0.000171879 -0.000330231 -6.13861e-19)
(-0.000182013 -0.00030715 1.69395e-18)
(-0.000194524 -0.000329159 -5.39753e-18)
(-0.000407494 -0.000149797 2.61203e-18)
(-0.000842793 0.00074123 -4.72069e-19)
(-0.00082608 0.000653698 7.50447e-19)
(0.00766855 -0.00413762 -4.61109e-17)
(0.00661327 -0.00470699 -1.95714e-17)
(0.00781872 -0.00507803 -1.17508e-17)
(-0.000807609 -0.000979852 1.12739e-18)
(-0.000810226 -0.000924122 -2.68011e-18)
(-0.0624282 0.0497277 1.48624e-17)
(-0.0281583 0.0522729 4.12314e-17)
(-0.00145593 -0.000495945 -3.74091e-19)
(-0.00148649 -0.000437367 -1.65059e-18)
(-0.00142526 -0.000441625 -4.79866e-18)
(-9.34114e-05 -0.000295214 1.81523e-18)
(-0.000108246 -0.000291028 4.2543e-18)
(-9.6561e-05 -0.000306753 6.54038e-18)
(-0.0189346 0.00415149 1.57242e-17)
(-0.0180678 0.00377016 -5.70209e-18)
(-0.0014118 0.000105727 1.39431e-18)
(-0.00148055 0.000154131 -2.1154e-18)
(-0.043698 0.0458569 -4.6382e-17)
(-0.0219222 0.0472205 -4.61539e-17)
(-0.00223948 0.00660452 5.00721e-18)
(-0.00202733 0.00677667 4.48497e-18)
(-0.00232187 0.00694023 -4.31483e-18)
(-0.0100706 -0.00160413 -2.29149e-19)
(-0.0100733 -0.0020556 -1.13785e-18)
(-0.000512673 -0.000194819 1.26847e-18)
(-0.000537663 -0.00020318 1.47801e-18)
(-0.000503581 -0.00015553 -2.98318e-18)
(-0.00310659 -0.00434722 -4.53838e-17)
(-0.00329952 -0.00418536 1.00896e-17)
(-0.000812592 -0.00128075 2.76803e-18)
(-0.000863317 -0.00129499 -8.10197e-19)
(-0.000823176 -0.00134911 -1.62637e-18)
(0.0178291 -0.00443026 -6.84796e-18)
(0.0195145 -0.00366462 -1.12852e-17)
(0.0188536 -0.00389556 6.12078e-18)
(-0.0189911 0.0313085 3.09703e-18)
(-0.0178555 0.0319136 3.77785e-18)
(-0.0188019 0.0331468 7.41867e-20)
(-0.000180637 0.00114315 -6.55169e-20)
(-0.000136256 0.00107711 3.75431e-19)
(-0.0131415 0.00199995 4.66152e-18)
(-0.0126479 0.00234212 -2.54217e-18)
(-0.0132508 0.00265605 -3.04771e-18)
(0.00570344 -0.00300848 -1.00465e-17)
(0.00606898 -0.00256808 2.14655e-17)
(0.00537161 -0.00247341 -1.17348e-17)
(-0.000752772 0.00209899 1.94079e-19)
(-0.000765535 0.0019646 8.07445e-20)
(0.0213805 0.0379667 -6.50747e-18)
(0.0189356 0.0364763 -1.94046e-17)
(-0.0202401 -0.00322498 9.85994e-18)
(-0.0196194 -0.00381095 -6.71457e-18)
(-0.00219636 -0.000975202 -3.07533e-19)
(-0.00214475 -0.00102469 6.20397e-18)
(-0.0022224 -0.00105454 -2.28304e-18)
(-0.000163653 -0.00034065 3.66694e-18)
(-0.000176592 -0.000360752 9.93523e-19)
(-0.0018936 -0.00107989 1.63951e-18)
(-0.00198503 -0.000987312 -3.96859e-18)
(-0.0018685 -0.000968163 -2.0133e-18)
(-0.0224771 0.00877965 1.18315e-17)
(-0.0224413 0.00777444 1.11335e-17)
(-0.0216297 0.008516 1.52565e-17)
(0.00158607 -0.000532147 5.79344e-19)
(0.00153831 -0.000668262 4.49301e-19)
(0.00146481 -0.000545441 -6.84367e-19)
(-0.000722618 -0.000145509 1.73811e-18)
(-0.000695477 -0.000120634 1.27021e-18)
(-0.0130001 0.00601516 1.37458e-17)
(-0.0124652 0.00587454 -5.98612e-18)
(-0.0129478 0.00537593 -8.29086e-18)
(0.000522413 -0.000221797 -2.22621e-19)
(0.000508171 -0.000183636 -2.14294e-19)
(0.000550621 -0.000178574 -2.58347e-19)
(-0.00102163 0.000292664 -8.51535e-19)
(-0.00103168 0.000229464 -8.74078e-19)
(-0.00418556 0.000687477 7.96517e-19)
(-0.00414226 0.000511475 -1.49453e-18)
(-0.00402387 0.000668017 1.14329e-18)
(0.000594188 0.00108345 4.17177e-19)
(0.000635223 0.00102225 3.73208e-19)
(0.000659306 0.00108726 -1.71264e-20)
(-2.48189e-06 -1.18676e-05 3.78876e-18)
(-3.66469e-06 -1.69311e-05 1.90761e-18)
(-1.80585e-06 -1.12042e-05 -1.61927e-19)
(-0.0972985 -0.000208412 -2.61278e-17)
(-0.0985775 0.0020887 2.62154e-17)
(-0.0873923 -0.00664018 4.82206e-18)
(0.00924632 -0.00723813 -1.0824e-17)
(0.00963185 -0.0062865 -2.44614e-17)
(0.00839473 -0.00665935 -1.90499e-17)
(-4.1179e-05 -0.000545841 -9.66635e-19)
(-3.44787e-05 -0.000516715 2.29073e-19)
(-3.07154e-05 -0.000506644 9.90394e-19)
(0.000142602 8.67574e-05 -4.41587e-19)
(0.000156129 8.18474e-05 -4.40218e-19)
(-0.000468014 -0.00243429 -9.00996e-18)
(-0.000490491 -0.00236178 -2.20228e-18)
(-0.000405559 -0.00238676 -7.16402e-18)
(-0.00024193 -0.000238505 -3.34497e-18)
(-0.000249556 -0.00021721 2.74483e-20)
(-0.012953 0.00140673 5.92508e-18)
(-0.0134772 0.0016862 3.94524e-18)
(0.00457742 0.0116098 -5.13428e-17)
(-0.00160463 0.0065494 -1.51449e-18)
(0.00115422 0.00984684 -4.0055e-17)
(0.0267032 0.00264995 -1.07652e-17)
(0.0253556 0.00274801 1.09224e-17)
(0.0266362 0.00358179 4.2307e-18)
(-0.0156692 0.0247841 8.24497e-18)
(-0.0146603 0.0253289 3.64881e-18)
(-0.0157005 0.0261811 -1.82083e-18)
(-0.000184608 -0.000290599 -3.23605e-19)
(-0.000194108 -0.000291411 1.35655e-18)
(-0.000198914 -0.000266525 8.54536e-19)
(0.000534933 0.00107439 -7.38159e-20)
(0.000544827 0.00114264 -1.94894e-19)
(-0.00146071 0.000516736 1.77957e-18)
(-0.00149993 0.000468483 1.79962e-19)
(-0.00151928 0.000534343 1.69997e-18)
(-0.000760783 -0.00127479 -2.88189e-18)
(-0.00079909 -0.00122398 3.67977e-18)
(-0.00829327 -0.00582449 2.52948e-18)
(-0.00838476 -0.00623953 4.3629e-18)
(-0.00868915 -0.00585844 -9.77675e-19)
(0.0229087 0.0128201 -2.32933e-17)
(0.0195765 0.0115627 1.37416e-17)
(0.00199835 -0.00209184 -3.25198e-17)
(0.00296556 -0.00149574 1.61217e-17)
(0.0098735 -0.00753302 3.26294e-17)
(0.00981404 -0.00767026 6.85224e-17)
(0.00316355 2.29191e-05 6.61581e-21)
(0.00294965 -0.000152759 2.06589e-19)
(0.00289722 0.000147666 -1.50927e-18)
(-0.000317051 4.48875e-05 4.59905e-19)
(-0.000327101 3.34537e-05 -2.68951e-19)
(-0.000314005 4.04671e-05 6.27637e-19)
(-0.0126375 0.0071561 1.15619e-17)
(-0.00719924 0.00580535 -4.25869e-18)
(-0.00425695 -0.0108883 -4.68264e-17)
(-0.00412445 -0.0105259 2.48017e-17)
(-0.00397501 -0.0108401 5.71025e-17)
(-0.00519844 -0.00481538 -3.07861e-18)
(-0.0053774 -0.00460473 -7.88942e-18)
(-0.00507419 -0.00452764 1.56541e-17)
(-0.214308 0.12469 -5.90724e-18)
(-0.217844 0.118488 3.45772e-17)
(-0.204099 0.110568 -1.78443e-17)
(0.0403224 -0.0605149 -2.15547e-17)
(0.0475907 -0.0412522 -2.20126e-18)
(0.0395969 -0.0475703 8.43472e-18)
(-0.00142962 -0.00055259 4.81121e-18)
(-0.00137498 -0.000611585 6.1522e-19)
(-0.00134592 -0.000537204 -3.97531e-19)
(-0.00373311 -0.009078 -6.19199e-19)
(-0.00345317 -0.00917762 -1.14631e-17)
(-0.00657284 0.00357067 -1.02107e-18)
(-0.00625371 0.0036917 3.85227e-19)
(-0.00636322 0.00332471 3.78274e-18)
(-0.000438177 -0.00250558 -2.49394e-18)
(-0.000531919 -0.00248158 -1.41239e-17)
(-0.0022376 -0.00078683 2.19419e-17)
(-0.000757794 -0.00347939 1.08982e-17)
(-0.000602986 -0.00164637 -4.22169e-18)
(-0.000641332 -0.00159568 -2.25998e-18)
(-0.000664248 -0.00167226 1.31729e-18)
(-0.0022191 0.00630577 1.22259e-18)
(-0.00254565 0.00644579 5.60966e-18)
(-0.00207454 -0.00161465 -5.62409e-18)
(-0.00205937 -0.00171681 -4.48554e-18)
(0.0071217 -0.00331369 3.42126e-17)
(0.0109568 -0.00320766 -3.17478e-17)
(-0.0234477 0.0247551 -4.48898e-18)
(-0.0230444 0.0258916 1.02038e-17)
(-0.0223857 0.0248163 -5.49745e-19)
(-0.00123759 0.0012276 -4.37207e-19)
(-0.00120706 0.001136 4.56096e-19)
(-0.00133251 0.00112107 -7.39345e-20)
(0.0255391 0.00750102 1.59758e-17)
(0.0273996 0.00661865 6.7692e-18)
(0.0283233 0.0074911 -3.13417e-17)
(-0.00101408 0.00408765 -5.27678e-19)
(-0.000871369 0.00392597 -2.16681e-20)
(-0.000788872 0.00411799 -8.50886e-19)
(-0.00432004 -0.0166828 3.42203e-18)
(-0.00508423 -0.0162561 -4.33481e-20)
(-0.00444242 -0.0157989 4.55812e-18)
(-0.00186186 -0.001142 -2.47205e-18)
(-0.00194078 -0.00114315 1.19362e-18)
(-0.0955759 -0.00253188 1.82799e-17)
(-0.105671 0.00538768 -4.70773e-17)
(-0.0186297 0.00770804 3.15118e-19)
(-0.0201089 0.00884406 2.59694e-18)
(-0.00647035 0.0293326 6.47164e-18)
(-0.00612942 0.0282125 -6.34959e-18)
(-0.00734323 0.0285019 8.80824e-19)
(-0.0369353 0.0149254 6.16214e-18)
(-0.0353435 0.0140416 -2.08888e-17)
(-0.0343851 0.0150469 1.9262e-18)
(0.000906449 0.00576754 -1.80972e-18)
(0.00101199 0.00547339 -5.50157e-19)
(0.00125253 0.00569512 -1.57796e-18)
(-0.000364206 -0.000189152 -4.46433e-18)
(-0.000379548 -0.000197035 -2.50974e-18)
(-0.000370751 -0.000172567 -1.6619e-18)
(0.000141649 7.7023e-05 -3.08791e-19)
(0.000131689 8.44599e-05 1.52952e-20)
(-0.00264466 0.00187256 2.20722e-19)
(-0.00266567 0.00206209 -3.78878e-19)
(-0.00279291 0.001898 -5.36319e-19)
(-0.00424715 -0.00517233 4.9235e-18)
(-0.00446763 -0.00499069 2.92717e-18)
(-0.00419884 -0.0049104 -3.88809e-18)
(-0.00123493 0.00130989 -6.74143e-19)
(-0.00131214 0.00125064 -9.96174e-19)
(-0.000719517 -7.26502e-05 1.21003e-18)
(-0.000715464 -4.57589e-05 -2.28811e-18)
(-0.000684346 -6.1321e-05 -4.0677e-19)
(-0.00472208 -0.0107575 -5.67718e-17)
(-0.00452669 -0.0112071 -5.59536e-17)
(-0.000570881 -0.00168777 -3.7444e-18)
(-6.19962e-05 0.000474659 -9.47809e-19)
(-3.71258e-05 0.000505707 6.57555e-19)
(-6.89163e-05 0.000508264 6.07835e-19)
(-0.00321005 -0.0183912 7.26657e-20)
(-0.00793221 -0.0177311 2.5843e-18)
(-7.04541e-05 -0.00062692 2.15005e-18)
(-5.97938e-05 -0.000635668 -5.35709e-18)
(-5.6283e-05 -0.000604191 -4.06615e-19)
(-3.24871e-06 -3.9645e-05 1.25956e-18)
(-3.35885e-06 -4.16337e-05 -2.07112e-18)
(-5.82419e-06 -5.72469e-05 -3.29087e-18)
(-4.99799e-06 -0.000197778 8.00584e-19)
(-9.63139e-06 -0.000210559 2.06837e-18)
(-1.22824e-05 -0.000248508 -2.35817e-18)
(-0.038884 0.0127875 -2.75199e-17)
(-0.0376286 0.0144857 -1.0604e-17)
(0.00017041 1.40534e-05 -7.36094e-20)
(0.000174079 1.14701e-05 8.85997e-20)
(0.000185462 8.33394e-06 -3.28254e-20)
(-0.00786411 -0.00584262 9.98016e-19)
(-0.00810437 -0.00545744 5.19354e-18)
(-0.0130849 -0.0116226 -3.44539e-18)
(-0.0123372 -0.0117618 -3.5658e-18)
(-0.0129047 -0.0124552 3.66152e-18)
(-0.000511583 -0.00229226 2.86451e-18)
(-0.000580802 -0.0023273 2.4301e-18)
(-0.0246239 0.0249005 -2.60136e-17)
(-0.0238108 0.023987 8.50882e-18)
(-0.000303727 -0.00129547 3.4132e-18)
(-0.000339813 -0.00133627 -3.2987e-19)
(-0.000338418 -0.00126708 9.13852e-19)
(-0.000275135 -7.4926e-05 1.06591e-18)
(-0.000278299 -7.63144e-05 -7.63853e-18)
(-0.000279671 -4.88406e-05 1.22197e-19)
(-0.0136597 0.00848772 -5.58259e-18)
(-0.0135306 0.00919859 5.9026e-18)
(-0.0143301 0.0089149 -8.39292e-19)
(-0.000338841 0.000100763 3.23739e-19)
(-0.00032309 9.58718e-05 -1.13901e-18)
(-0.00034064 8.20278e-05 2.91105e-19)
(-0.00404864 0.00277339 -1.53313e-19)
(-0.00428717 0.00273132 5.05884e-19)
(-0.000820542 -0.0024336 8.76807e-18)
(-0.000738104 -0.00241903 9.8229e-18)
(-0.000808021 -0.00235875 5.24403e-18)
(-0.0178374 -0.0108269 1.41935e-17)
(-0.017027 -0.0104021 -1.2286e-18)
(-0.0177379 -0.0099268 -1.8819e-17)
(0.00699325 0.0111509 6.15213e-18)
(0.00768849 0.0106697 7.07342e-19)
(-0.0026354 -0.00253462 -7.60755e-18)
(-0.00275298 -0.00251716 -4.05347e-19)
(-0.00266099 -0.00266656 6.60435e-18)
(0.00258692 0.00890458 -4.09183e-19)
(0.00298857 0.00918753 -1.13248e-18)
(0.00304134 0.00867374 2.53306e-19)
(-0.0239518 0.039202 6.08635e-19)
(-0.0244919 0.0375414 -2.2648e-17)
(-0.0238076 0.0381755 2.94195e-17)
(-0.000717072 -0.000164321 -2.23126e-18)
(-0.000713628 -0.00018686 -2.30662e-18)
(-0.000688353 -0.000158497 4.82581e-19)
(-0.0198346 0.0224971 -3.62902e-18)
(-0.0208822 0.0223634 -1.81666e-17)
(-0.020089 0.0214651 3.81026e-18)
(0.00397626 -0.00126601 3.3116e-19)
(0.00420889 -0.00109102 2.77454e-18)
(0.000513215 0.00100293 -5.45186e-20)
(-0.00639783 -0.0105094 6.28708e-18)
(-0.00672349 -0.0102794 -6.36928e-18)
(-0.00681776 -0.0106863 -1.41636e-18)
(-0.000308035 5.5513e-05 -1.96375e-19)
(-0.000320796 4.97711e-05 -3.7382e-19)
(0.00411717 -0.00153922 9.57404e-19)
(0.00377443 -0.00147773 -6.2627e-18)
(0.000825019 0.00147144 7.42916e-19)
(0.000742441 0.00150133 1.01825e-18)
(-0.00420752 0.000853656 -7.9481e-19)
(-0.00438827 0.00071587 3.1096e-18)
(-0.000179907 0.00042395 -3.43136e-19)
(-0.000201015 0.000439612 6.23058e-19)
(-0.000173403 0.000461085 8.04552e-19)
(0.000173909 1.66696e-05 8.56352e-21)
(0.000175809 1.31204e-05 1.14168e-19)
(0.00017693 1.66733e-05 1.83291e-19)
(0.0012118 0.00337896 -3.81174e-19)
(0.00135315 0.0034795 -7.06806e-19)
(0.0011333 0.00356343 3.47242e-19)
(0.00822609 -0.00113758 -6.26112e-18)
(0.00789014 -0.000742009 -2.36984e-18)
(0.00848571 -0.000686892 -1.42951e-18)
(-0.000173902 -0.000291526 -7.24772e-19)
(-0.000170466 -0.000315596 -1.94771e-18)
(-0.00149372 -0.000548167 6.24508e-18)
(-0.00135439 0.000517581 -1.55487e-18)
(-0.00140207 0.000419838 4.21251e-19)
(-0.00421023 0.00212981 -1.60782e-19)
(-0.00441204 0.00230326 3.84856e-19)
(-0.000650251 -0.00018105 5.1168e-18)
(-0.00065352 -0.000167127 1.55035e-18)
(-0.000159874 -0.000447073 -1.94509e-18)
(-0.000171496 -0.000406856 -1.60318e-18)
(5.6152e-05 4.11079e-05 -2.10282e-19)
(5.30465e-05 3.1356e-05 -4.13913e-19)
(4.51607e-05 3.98635e-05 7.80298e-19)
(-0.00231566 -0.000693939 1.32079e-18)
(-0.00227941 -0.000593652 -9.15903e-19)
(0.0034375 -0.000353916 1.2507e-18)
(0.00322645 -0.000152786 -1.14147e-18)
(0.00322857 -0.000507436 2.03681e-19)
(-1.28175e-06 -1.93235e-05 -1.38742e-18)
(-3.5518e-06 -3.09135e-05 8.1425e-19)
(0.000139018 5.72446e-05 -2.08462e-19)
(0.000137225 4.80503e-05 1.00343e-18)
(0.000147102 5.0037e-05 1.10668e-19)
(-0.000955871 -0.000283091 -6.02094e-18)
(-0.000970759 -0.000243909 -1.03751e-18)
(-0.00340814 -0.000401598 3.62707e-19)
(-0.00348771 -0.000512143 -2.35631e-18)
(-0.00353998 -0.000357497 -1.41388e-18)
(-0.018047 -0.0115801 1.31614e-17)
(-0.0187194 -0.0109048 3.84276e-17)
(-0.0155116 0.0236953 -4.13879e-18)
(-0.0165039 0.0243945 -4.949e-18)
(0.0226789 0.00800436 2.77585e-17)
(0.0225637 0.00638453 -1.08445e-17)
(-0.00533508 -0.00507412 -8.01827e-19)
(-0.0050269 -0.00503074 -7.42559e-18)
(-0.00559366 -0.00447942 -8.61132e-19)
(-0.00576737 -0.00401673 4.98335e-18)
(-0.00519893 -0.00420429 1.53128e-17)
(-0.00230626 -0.00209112 -3.89954e-18)
(-0.00235173 -0.00196107 -3.78056e-19)
(0.00570549 0.0237069 1.43363e-17)
(0.006155 0.0251236 4.81695e-18)
(0.00469907 0.0248222 -1.26851e-18)
(-0.208727 0.0943903 4.81343e-18)
(-0.212018 0.102802 -3.27112e-17)
(-0.205565 0.0943007 -5.19899e-18)
(0.00104775 0.00325438 -2.23628e-18)
(0.00125725 0.00317921 1.11136e-18)
(-0.000389603 -0.000222827 -1.54495e-19)
(-0.000384311 -0.000243768 -8.23017e-19)
(0.000175146 2.37403e-05 -4.47068e-19)
(0.000167856 1.9709e-05 4.90237e-19)
(-0.00269181 0.00172137 5.60884e-19)
(-0.0025483 0.00180018 4.66141e-19)
(-0.000187036 0.000392017 -8.14023e-19)
(-0.000161997 0.000411761 -1.56367e-18)
(-0.00280879 0.0573876 -5.75166e-18)
(-0.00199287 0.058237 -1.5517e-18)
(0.00367517 0.00168091 -2.29642e-18)
(0.00346024 0.00163018 -4.73419e-19)
(0.00355994 0.00190405 2.89422e-18)
(-0.000524641 -0.000209532 -4.22063e-19)
(-9.86917e-07 -0.00014937 -2.36359e-18)
(-9.3701e-06 -0.000188422 5.7417e-19)
(-0.00402909 -0.00529998 1.15081e-17)
(-0.00426913 -0.00538267 -6.22018e-18)
(0.00365151 -0.000220427 1.89396e-18)
(-0.0138482 -0.0115039 1.82914e-18)
(-0.0133196 -0.0109244 -3.19485e-18)
(-0.00564152 -0.00470565 5.30893e-19)
(-0.0214785 0.000153175 -6.66286e-18)
(-0.0219865 -0.000569153 6.30366e-18)
(-0.0224983 0.000379437 2.00348e-17)
(-0.00119007 0.00407744 8.86991e-19)
(-0.00115464 0.00425968 1.96921e-18)
(0.00801538 -0.00162421 1.88945e-18)
(0.0086742 -0.00160517 1.07552e-18)
(-0.000191728 0.00036049 1.40971e-18)
(-0.000173976 0.000348079 8.25978e-19)
(-0.000196879 0.000327872 2.07222e-18)
(0.00400738 0.00424209 4.4802e-18)
(0.00422203 0.00436434 7.82249e-18)
(0.00396262 0.00449524 -2.63067e-18)
(0.00169688 -0.000562558 2.53818e-19)
(0.00165335 -0.000415595 5.38176e-19)
(-0.00677834 0.00387788 -3.55197e-18)
(-0.00693163 0.00348473 -1.63349e-18)
(-0.000893282 -0.000779801 1.8828e-18)
(-0.000862765 -0.00081232 1.03544e-18)
(-0.000849829 -0.000758996 3.3278e-20)
(0.00149277 0.0085753 -3.00066e-18)
(0.0159775 -0.00517533 -2.30665e-17)
(0.0164181 -0.0049413 -2.35795e-17)
(-6.21429e-05 0.0004392 -1.41993e-18)
(-9.26456e-05 0.000456335 -1.26562e-18)
(0.000355124 0.00138903 4.65962e-19)
(0.000428319 0.00136667 -5.27268e-19)
(0.000415616 0.00145437 1.04612e-18)
(-0.203578 0.0829513 -1.20297e-17)
(-0.201343 0.0940326 2.07176e-17)
(0.0048626 0.0225025 1.18522e-17)
(-0.001161 0.00118294 9.47534e-20)
(-0.00114887 0.00110768 -5.03729e-19)
(-0.000159618 -0.00047259 -1.29133e-18)
(-0.000167304 -0.000462774 3.24564e-18)
(-0.000155657 -0.000504691 -2.91883e-18)
(-0.00332391 -0.000273688 -1.60478e-18)
(-0.00326964 -0.000436618 -4.30866e-18)
(-0.210118 0.131005 -2.35861e-17)
(-0.223253 0.135093 9.66678e-18)
(-0.00764371 0.0153515 -5.99524e-18)
(-0.00760287 0.0145047 -2.89516e-18)
(-0.00685231 0.0151194 8.70956e-18)
(-0.0225277 0.00960562 8.77124e-18)
(-0.0232871 0.00889193 3.0584e-17)
(-3.48302e-05 -3.39224e-05 -2.4327e-18)
(-3.0685e-05 -3.86763e-05 -5.08153e-21)
(0.000140875 6.70294e-05 -9.84483e-19)
(0.000152004 6.87034e-05 1.06544e-19)
(-0.000746716 -0.000177884 1.70446e-18)
(0.00042039 0.00116271 -5.40866e-20)
(0.000362732 0.00112523 -4.76715e-20)
(-0.0236927 0.0399059 -5.26053e-18)
(-0.0200709 0.0428337 -1.15366e-17)
(-0.000678302 -0.000443634 6.09276e-20)
(-0.000706159 -0.00045969 5.62888e-19)
(-0.000703676 -0.000492136 1.43749e-18)
(-0.000188988 -0.000441792 -3.0584e-18)
(-0.000194873 -0.000414695 -4.14288e-19)
(-0.000358057 1.43218e-05 -3.02764e-19)
(-0.000368326 5.99092e-06 1.04061e-18)
(-0.000375862 5.28501e-06 -2.19527e-18)
(-0.00026182 -0.00125826 2.27055e-18)
(-0.000271287 -0.00132873 2.1528e-18)
(0.00936624 0.00981662 9.26035e-18)
(0.010246 0.0098902 3.38219e-18)
(0.00971295 0.00910953 -4.82471e-18)
(-0.00261625 -0.00162944 2.90985e-18)
(-0.00265978 -0.00162937 -2.47202e-18)
(-0.00260384 -0.00168334 -8.49953e-18)
(-0.0143875 -0.00217891 -9.14831e-18)
(-0.0137864 -0.00208946 2.5822e-18)