/*--------------------------------*- C++ -*----------------------------------*\
| =========                 |                                                 |
| \\      /  F ield         | OpenFOAM: The Open Source CFD Toolbox           |
|  \\    /   O peration     | Version:  v2012                                 |
|   \\  /    A nd           | Website:  www.openfoam.com                      |
|    \\/     M anipulation  |                                                 |
\*---------------------------------------------------------------------------*/
FoamFile
{
    version     2.0;
    format      ascii;
    class       surfaceScalarField;
    location    "300";
    object      phi;
}
// * * * * * * * * * * * * * * * * * * * * * * * * * * * * * * * * * * * * * //

dimensions      [0 3 -1 0 0 0 0];
oriented        oriented;


internalField   nonuniform List<scalar> 
14907
(
-0.449852
0.309547
0.140317
-0.580763
0.367938
0.212861
-0.227844
-0.0185945
0.246366
0.587896
-0.587371
-0.0569513
0.0274554
0.0294957
0.42092
-0.530451
0.109458
0.10357
-0.0596873
-0.0438784
0.161734
-0.159946
-0.00178845
0.399249
-0.222696
-0.17643
-0.379661
-0.0979131
0.477616
-0.0103698
-0.00120377
0.0115735
0.0662095
0.522338
0.349189
-0.610807
0.261884
0.643494
-0.344094
-0.299285
0.231026
-0.124064
-0.106965
0.54363
-0.357005
-0.186391
0.302591
0.241266
-0.292321
-0.299069
0.591378
-0.250711
-0.19911
-0.00965827
0.0684939
-0.0588367
-0.397369
-0.131731
0.529849
0.115102
0.0528039
-0.167906
0.394235
-0.62271
0.228786
-0.546536
0.291266
0.255132
-0.342131
-0.238615
-0.260287
0.141523
0.118784
0.63016
-0.362684
-0.267332
0.265912
-0.146559
-0.119373
0.396351
-0.196196
-0.200036
-0.300473
0.194442
0.105999
-0.180978
0.411833
-0.230838
0.000246723
0.00681015
-0.0070569
0.20456
-0.584329
0.119111
0.131105
-0.250216
-0.100613
0.232987
-0.132401
-0.313113
-0.233591
-0.29519
0.158906
0.136303
0.089418
0.121322
-0.210709
-0.580282
0.267489
-0.0966848
0.148434
-0.0517702
0.0369915
-0.0466501
-0.229497
0.131956
0.0975291
0.0816881
0.0218873
-0.138056
0.284879
-0.146889
-0.0327288
-0.0242226
-0.148824
0.236607
-0.0877736
-0.280025
0.204838
0.0751544
-0.106681
-0.0876721
0.194367
-0.0618194
-0.147846
0.209666
-0.163417
0.27146
-0.108029
-0.58345
0.11714
0.46654
-0.0813658
-0.191681
-0.0344269
0.164455
-0.130061
0.369284
-0.265229
-0.104084
-0.110517
-0.184657
0.434698
-0.0137098
0.302764
0.0937013
-0.165996
-0.114076
0.273767
-0.154668
-0.179353
0.144875
0.289702
-0.494215
0.204552
0.311711
0.133667
-0.445237
-0.222495
0.121857
0.0812451
-0.309163
-0.26765
0.213794
0.0538628
-0.135989
-0.119768
0.255742
-0.0791398
0.231551
-0.152434
0.0865109
-0.0767485
-0.009764
8.89913e-05
-0.00733593
0.00724685
-0.171679
0.350289
-0.178566
0.221763
0.1475
0.0603147
0.144312
-0.282437
0.130239
-0.156833
0.0265906
0.187333
0.0771472
-0.26455
0.495625
-0.204775
-0.00560719
0.0330624
0.415823
-0.210222
-0.205566
0.166572
-0.0930847
-0.0734949
-0.0296118
0.0783191
-0.0487028
-0.184284
0.12248
-0.0840356
0.0513065
-0.124576
-0.147601
0.272114
0.242239
-0.122542
-0.119694
-0.254803
0.175632
0.518397
0.0863959
-0.604809
0.0809432
-0.286572
0.205567
-0.0027809
-0.101921
0.104701
-0.325558
0.104986
0.220493
0.35081
-0.269866
-0.144478
0.27577
-0.131284
-0.0453267
-0.0387093
0.183688
0.0822063
-0.285246
-0.159655
-0.14085
0.129569
-0.283339
0.153807
0.485999
-0.188636
-0.297302
0.170085
0.150624
-0.320676
-0.194662
0.097951
-0.399434
0.133003
0.266536
0.396184
0.200831
0.108486
-0.12716
0.0186692
-0.152891
0.0630041
0.0898847
0.546939
-0.0287175
0.258631
-0.142711
-0.115919
-0.126507
0.13124
-0.00473519
-0.389862
0.314827
0.0749447
0.148863
0.337183
-0.589531
0.192887
-0.235339
-0.271301
0.572505
-0.303286
-0.268741
-0.468596
0.319858
0.148846
0.222716
-0.128739
-0.0939984
-0.00853466
0.00862362
-0.207501
-0.0601454
-0.25071
0.439187
-0.188354
0.269511
-0.350876
0.0813594
0.165141
0.296693
-0.167074
0.0017744
-0.00232252
0.000547981
-0.123018
-0.202646
0.0873191
0.0744142
-0.138677
0.284786
-0.146125
0.199491
0.179212
-0.378678
0.140514
-0.0320329
-0.266274
0.141664
-0.124562
-0.0353851
-0.224839
0.179583
0.0452408
-0.0166024
-0.109906
-0.152125
0.369784
-0.217598
0.0501434
0.116422
-0.367491
0.210265
0.157226
0.0028792
-0.00989864
0.0070194
-0.17662
0.0930456
0.0835685
-0.217467
-0.181859
-0.0922392
-0.0653409
0.157572
-0.00486022
-0.00158946
0.0064496
0.133153
-0.277671
0.0729532
-0.179629
0.092366
-0.0951478
0.141074
-0.252932
0.111828
0.0187
0.250804
-0.128369
0.248717
-0.120373
0.119826
-0.108894
-0.0109377
-0.230477
0.351468
-0.121087
-0.273363
-0.19515
0.139843
-0.0192627
-0.120592
0.444906
-0.227574
-0.217234
0.314096
-0.143949
0.23543
-0.127018
-0.108419
-0.363208
0.154002
0.209266
-0.0087908
0.529273
-0.520525
0.028273
-0.009451
-0.0188193
-0.000165654
-0.00304925
0.00321481
0.582069
-0.300365
-0.281257
-0.198896
0.548257
0.245865
-0.120853
-0.125027
-0.041938
0.353782
-0.136937
0.0446935
0.00376218
-0.00632904
0.00256678
0.013738
-0.00411985
-0.00961815
-0.184042
0.0899939
0.0940417
-0.128728
-0.222342
0.351068
-0.198571
-0.164577
-0.148057
-0.128084
0.276072
-0.184672
-0.182821
-0.10951
0.00125595
0.108253
0.0236927
-0.0199306
0.00786994
-0.00685232
-0.00219251
0.00202674
0.133925
0.153471
-0.287437
-0.463642
0.294442
0.169006
0.0172558
-0.062583
0.0670273
-0.06469
-0.00233844
0.0283293
0.0892989
-0.117634
0.126578
-0.0583942
-0.0681693
-0.0135481
0.0111791
0.00236893
0.280515
-0.144336
-0.136226
0.0612452
0.0252642
0.110065
0.0803948
-0.190473
0.115221
0.13063
0.00487834
-0.00463165
-0.0921426
-0.158763
0.250831
-0.0959595
-0.128897
-0.125431
-0.10408
-0.000133843
0.00190809
-0.106255
0.134853
-0.0286029
0.263744
-0.113181
-0.150563
1.28549e-05
0.0103451
-0.010358
-0.105006
-0.135624
0.24065
0.056396
0.0152881
-0.0716841
-0.261993
0.13358
-0.00185852
0.0301342
-0.0778132
0.0950684
0.168777
-0.0272951
-0.141482
0.00640437
0.0745504
-0.0809555
-0.125183
-0.105582
0.230782
-0.210018
0.390089
-0.180143
0.361459
-0.560157
-0.291708
0.209843
0.0818542
0.0161726
0.102968
-0.119147
0.253378
0.0103771
-0.0891984
0.323117
-0.23389
0.00689443
0.0601317
0.139382
-0.409007
0.449117
-0.0399378
0.00399631
0.0523997
0.408959
0.146256
-0.554714
-0.299716
-0.290802
0.590414
-0.531049
-0.00672481
0.537107
-0.100114
0.106518
-0.613907
0.604156
0.0105732
-0.108926
-0.000583875
0.0862565
-0.0932599
0.00700351
-0.256183
0.135313
0.0279296
-0.134185
-0.112316
0.300019
-0.187786
-0.316908
-0.146153
0.462903
-0.178929
0.1457
0.0332235
0.480814
-0.214386
-0.266373
0.138906
0.0837882
0.23741
-0.111032
-0.126388
0.01362
-0.100166
0.0865455
-0.106757
0.196211
-0.194685
0.152615
0.0420454
-0.223612
0.118934
0.1047
0.177102
-0.0915008
-0.0856013
0.459383
-0.246747
-0.212511
0.140154
-0.0144151
-0.125745
0.363001
-0.141258
0.20079
-0.0576428
-0.00649577
0.0641378
-0.274053
-0.189771
0.208546
0.154431
0.192145
-0.210825
0.173994
0.061429
-0.186093
-0.199867
0.386187
-0.730673
0.477265
0.253789
-0.100721
0.243082
-0.142338
0.284032
-0.162977
-0.121014
0.233095
-0.361802
0.1418
0.135192
-0.283298
-0.229287
0.100514
-0.389687
0.139202
-0.417636
0.236641
0.556067
-0.00278622
-0.553047
0.109481
0.14915
0.0907526
-0.270363
0.179552
-0.693022
0.400688
-0.323973
-0.216231
0.540806
-0.343621
0.171999
-0.135696
-0.0568968
0.192557
-0.0685979
0.0822174
-0.0974244
-0.0866226
-0.00946046
0.0094733
0.113703
-0.0853775
0.0266957
0.0912282
-0.11793
0.0790244
0.151999
-0.0273832
0.203075
-0.175682
-0.140101
0.123109
0.0170009
-0.276433
0.175712
-0.23484
-0.155121
-0.394106
-0.336227
-0.158183
-0.133536
-0.379852
0.193944
-0.0866456
0.201755
0.258884
-0.0591212
-0.199789
0.198678
-0.521292
-0.0104754
-0.0906346
0.106804
-0.174495
0.0895811
-0.00332438
0.115992
-0.014965
-0.0931675
0.108131
-0.216767
0.111783
0.162773
0.121301
0.204877
0.191067
-0.395752
-0.00778142
0.139753
-0.132016
0.0554069
-0.285954
0.177059
-0.0670147
0.254229
0.0105954
-0.264896
-0.101364
0.00781845
-0.0049393
-0.0031762
-0.40578
-0.376572
0.237057
0.139477
-0.0961188
-0.0439718
-0.176204
0.189833
-0.303077
0.189002
0.262752
-0.451829
0.097047
-0.23278
0.0612663
0.0653277
0.0464032
-0.163249
0.116825
0.12524
-0.00541843
0.00720739
-0.590514
-0.179023
0.540715
0.186122
0.111679
-0.334272
0.0961612
0.0809412
-0.364747
0.237003
0.127763
-0.12567
0.415556
-0.331356
0.399768
-0.0683844
-0.315241
0.202854
-0.236382
0.143582
0.0928401
-0.128558
0.187323
-0.0587764
0.0199404
-0.109898
0.0899567
-0.0130956
-0.017545
0.0306399
-0.0658144
-0.113594
0.0252185
0.0492374
-0.0744568
0.232742
-0.406448
0.174026
0.157584
-0.165369
0.253633
0.376651
0.0126598
-0.0127882
-0.111458
0.13447
-0.0230153
0.00506065
-0.0955975
0.090536
-0.00609459
-0.181213
-0.288179
0.469186
0.221363
0.0374974
0.130462
0.219867
0.100175
0.100874
-0.201077
-0.0820673
0.644617
-0.345091
-0.299455
-0.210681
0.13866
0.072008
0.392701
0.180273
-0.583299
0.600558
-0.0169918
0.140494
-0.0822023
0.102142
0.587803
-0.346902
-0.240727
0.147896
-0.283543
0.305178
-0.159322
-0.145896
-0.209363
0.0807788
0.00967204
-0.0108604
0.00118839
-0.156725
0.262418
0.320067
-0.345861
-0.226576
0.572583
-0.225187
0.306347
0.0953964
0.0632439
-0.158654
0.142593
0.0261831
-0.0238
0.115026
-0.00624225
0.113092
-0.10685
-0.183932
-0.0524121
-0.233648
0.137667
0.12047
0.249515
-0.140373
0.27637
-0.13598
-0.596019
0.296872
0.133671
-0.0256815
-0.10799
-0.00682689
0.261002
0.137779
-0.0715986
-0.126561
0.198156
0.230678
-0.0307265
-0.122863
0.153563
0.116811
0.125512
-0.197107
-0.135825
0.254043
-0.118263
-0.127054
-0.0676621
0.11876
-0.135362
-0.124159
-0.0865372
-0.0667622
0.22866
-0.161928
-0.38751
0.216841
0.170634
0.0741301
-0.0803736
0.129728
0.0101047
0.00496318
0.192683
-0.197659
0.166683
-0.0713014
0.133507
-0.363367
0.229638
0.17251
-0.446599
0.393899
-0.260557
-0.153991
0.123246
0.00818838
0.0938899
-0.102079
-0.14789
0.243533
-0.0956453
-0.601971
0.341507
0.260398
-0.187114
0.121264
0.301103
0.295912
0.338067
0.2499
0.00380265
0.172721
-0.382781
0.192867
-0.41389
0.221275
0.00215246
-0.00701277
-0.190623
-0.268966
0.459639
-0.144934
0.0527123
0.0922215
0.103054
0.0306162
0.112597
0.0176392
-0.116647
0.0532678
0.0633959
-0.0102448
-0.104965
0.186638
-0.0816934
-0.0759853
0.0183415
0.329824
-0.572519
0.243066
0.042691
-0.206089
0.325453
0.271562
0.291603
-0.164874
-0.126768
0.246958
-0.101627
-0.145316
-0.638823
0.231495
0.407385
0.207021
-0.106864
-0.0238917
0.0763949
-0.151482
0.546087
0.371358
-0.50224
0.0725615
-0.0875929
0.0150281
-0.0355653
0.0508534
0.145722
-0.265473
-0.216824
0.414283
-0.197429
0.00152584
0.00634409
0.0290516
-0.135815
0.429961
-0.0100913
-0.0666582
0.00274983
0.344382
0.136524
-0.318283
-0.283769
-0.447775
0.234904
0.213014
-0.167065
0.365136
-0.197892
-0.56235
-0.0204999
-0.36693
0.363767
0.0993476
-0.0655733
0.125568
-0.0121177
0.0500587
-0.0379416
-0.581103
0.23753
-0.179757
-0.184963
-0.0803931
-0.0252846
0.105676
-0.252023
0.296078
-0.0441788
-0.0819306
-0.102401
0.148782
0.0994909
-0.222029
-0.225451
-0.158594
0.383997
-0.422992
0.206153
0.0923963
-0.098115
0.0057183
-0.136484
0.080618
-0.185606
-0.123334
0.255564
-0.132251
0.00101043
-0.0113802
-0.127754
-0.128447
-0.0727535
0.0999992
-0.224075
-0.276742
-0.194717
0.471437
0.192544
0.118908
-0.0423514
-0.0765579
-0.182095
0.462861
-0.280759
0.137751
0.0537185
-0.191466
0.196048
-0.312509
0.116499
0.155424
-0.291247
-0.00629581
-3.32946e-05
-0.091891
0.228679
-0.136745
-0.09274
-0.188959
0.281754
0.00799946
0.543512
-0.550955
-0.0112971
0.00386616
0.00743091
-0.16484
0.372953
-0.207944
-0.193401
0.101539
0.259161
-0.149046
-0.110103
-0.174783
-0.0662862
0.0541685
-0.0553647
-0.516779
0.41288
0.104199
-0.0333132
-0.174179
0.0885093
-0.236397
-0.50236
-0.50027
0.207287
0.293263
0.172918
-0.387572
-0.00385082
0.00930853
-0.00545774
0.184265
-0.395753
-0.468059
-0.145218
0.0782151
-0.158306
0.0800903
-0.0786309
0.168515
0.162666
-0.0112987
-0.151376
-0.593187
0.293359
-0.105421
0.185798
0.0014102
0.243175
-0.0995549
-0.358564
0.177585
0.181018
-0.188516
-0.19903
-0.100297
-0.0763293
0.207648
-0.202718
0.192823
-0.46945
-0.0774302
0.167273
-0.0898527
-0.250177
0.361908
0.0608618
-0.427856
0.173628
0.0637747
-0.2305
0.432022
-0.201427
-0.122
0.0336237
0.0883682
0.225814
0.0889285
0.26757
-0.449677
0.0110089
-0.0122127
0.538309
-0.263624
-0.274651
-0.140897
0.294295
-0.585539
0.192839
0.39265
-0.276037
0.152647
0.198251
-0.059604
-0.354791
-0.16163
0.138321
-0.363533
-0.08741
0.0857564
0.18007
-0.265845
0.0564596
-0.0440204
-0.0124371
-0.119699
-0.156741
-0.296832
-0.398501
0.599419
-0.130754
0.026046
0.104706
0.169251
-0.310407
0.140996
-0.310386
0.217668
0.226285
-0.584427
0.35871
-0.308311
0.143446
0.164893
-0.00424069
0.121052
-0.116821
0.0609211
-0.0905293
0.205004
-0.131264
0.00925509
0.0252407
0.133196
0.110018
-0.330044
-0.262807
0.592749
-0.202711
-0.164076
0.366832
-0.161777
0.32381
-0.162138
-0.442851
0.529263
0.382716
-0.186354
-0.196104
-0.00687167
0.00969312
-0.00780077
0.00621127
-0.372343
-0.266422
0.0497447
0.129825
-0.00047754
-0.15814
0.15864
-0.166398
0.16597
0.253585
-0.0662855
-0.312992
-0.279679
0.593099
-0.0948475
-0.0662863
0.161135
-0.00553957
0.0979352
-0.0464435
0.21428
-0.439612
-0.325476
0.163601
-0.338311
0.0861335
0.253071
-0.443745
0.00628044
-0.000892151
-0.0053884
-0.0889499
-0.0872562
0.176187
-0.115611
-0.145796
-0.194132
0.340021
-0.302278
-0.261209
0.563954
0.258639
0.0649192
-0.323643
-0.173478
0.103532
0.134569
-0.49738
-0.0110722
0.0072214
0.0260373
-0.0616027
-0.0188505
-0.0591199
0.0779703
0.0822007
0.0490373
-0.197396
-0.358196
0.140808
0.245293
-0.116352
-0.128933
-0.114157
-0.0612467
0.175388
-0.00050873
0.00609411
-0.00558539
0.00565565
0.0180369
0.206364
-0.119565
-0.0868231
0.17205
0.442098
0.134253
-0.576352
-0.104945
0.252843
-0.195948
0.162601
0.536708
-0.0946875
0.00158408
0.0121539
0.441147
0.115052
-0.187503
-0.218631
-0.224845
0.125959
0.0988904
0.129324
-0.572009
0.22342
-0.0685803
-0.154827
-0.268697
0.148987
0.08798
0.0571799
-0.145167
-0.0896083
-0.0883912
0.177985
-0.507743
0.501045
-0.102919
-0.147084
0.250011
0.107972
0.124989
-0.154538
-0.022412
0.128935
-0.0467389
0.001298
-0.0855671
0.0842682
-0.281848
0.606812
0.127065
0.144408
-0.263389
0.148416
0.114927
-0.06237
-0.220947
-0.281896
-0.284725
0.566576
-0.269199
0.128815
0.288038
0.14893
-0.436918
0.0792879
0.040398
0.122263
0.0512252
0.0643243
-0.115555
-0.579394
0.349115
0.230125
-0.130355
0.216099
0.534123
-0.307453
-0.133416
-0.180436
0.313825
-0.0584133
-0.0175731
0.309748
0.224347
-0.533646
0.254811
-0.128149
-0.126649
0.146636
-0.0938279
0.190709
-0.421094
-0.133434
0.236153
-0.200418
-0.0357159
-0.228633
-0.0020185
0.00203719
-1.88021e-05
-0.0708361
0.198851
-0.128017
-0.563361
0.317475
0.24616
-0.0309971
-0.0834613
0.114458
0.00634319
-0.205275
0.198856
-0.59685
0.305891
0.15416
-0.30996
0.155783
-0.183297
0.375867
-0.192488
0.337147
0.259868
-0.241644
0.109015
0.132629
0.035322
0.223262
-0.0327781
0.0588153
-0.10062
0.241675
0.181103
-0.383716
0.151537
-0.298165
0.146658
0.159214
0.0390225
-0.104145
-0.093228
0.197372
-0.182043
0.381594
0.111803
-0.238677
0.126909
-0.177608
-0.180516
-0.0992766
0.220643
0.321585
-0.149602
-0.171989
-0.17951
0.0898774
0.402763
-0.209635
0.240963
-0.109807
0.192339
0.236276
-0.428616
-0.173906
-0.226652
0.400451
-0.00577818
0.0305817
-0.0248038
-0.262508
-0.185124
-0.0735215
0.0151063
0.387031
-0.2141
0.135091
0.140226
-0.275281
0.550005
-0.304865
-0.244911
0.234076
-0.133842
-0.100213
-0.295061
-0.290527
-0.185157
0.114317
-0.13965
0.329457
0.0764289
-0.107426
-0.214701
0.552778
0.118508
-0.0368132
0.281503
0.16349
-0.136004
-0.0733844
0.469771
0.172992
-0.642388
0.199707
0.100231
-0.035343
-0.32823
-0.165217
-0.0764281
-0.415918
0.234451
0.181498
-0.0592514
0.0186676
0.026523
-0.0451906
0.111507
0.111927
-0.231857
0.191899
0.0399921
0.0972124
-0.12102
-0.13768
0.343092
-0.205442
-0.0551808
-0.0754654
0.130644
0.107692
0.128923
0.508607
-0.303932
-0.155619
0.0781817
-0.0816664
0.0829631
0.00444597
-0.0049547
0.0506402
0.0910018
-0.0130093
-0.0779932
-0.125695
-0.136475
-0.132053
0.268524
0.35048
0.294214
0.248074
-0.0904917
-0.199417
-0.0173421
-0.199765
0.00551938
0.19434
0.314085
-0.109881
-0.121774
0.231613
0.0208455
-0.118274
0.511583
-0.520407
-0.29286
0.159445
-0.135272
0.247107
-0.00512708
0.0109209
-0.00579414
-0.222645
0.086609
0.0989744
-0.204407
0.114071
0.131228
-0.032338
-0.475554
0.0186373
0.512169
-0.275958
-0.236246
-0.172714
-0.241397
0.414002
0.215757
-0.0213186
0.0665251
-0.316652
0.00248009
0.0101797
0.19419
-0.0824938
-0.111686
-0.00145844
-0.00366889
-0.630828
0.260641
0.370617
0.0555362
-0.0889625
0.0334258
0.000812672
-0.00192218
0.00110942
0.144017
-0.0409632
-0.0212713
-0.178395
0.167128
0.0359521
-0.00458731
0.144734
-0.0551162
0.132646
-0.0775298
-0.300877
0.141483
0.297984
-0.101855
0.0741792
0.0140461
-0.0128537
-0.20127
-0.14972
0.350962
-0.0756788
0.153888
0.0291785
-0.00098373
-0.0281942
-0.353919
0.272467
0.081357
0.258681
0.174255
-0.433013
-0.256401
0.194035
-0.249435
0.129535
0.119875
-0.325147
0.289633
-0.0391426
0.22377
-0.184682
-0.0877485
-0.0430073
-0.0370432
0.111593
0.214866
-0.547129
0.230016
-0.0104395
0.000540877
-0.00882561
-0.0134472
0.022274
0.185426
-0.178748
-0.179775
-0.395525
0.512857
0.206045
-0.110039
0.0296449
0.0892443
0.104955
-0.0505619
-0.0426978
-0.243338
-0.174858
0.433377
0.189085
-0.359615
0.170647
-0.265055
-0.229132
0.106426
-0.219535
0.113136
-0.221874
0.034725
-0.0215028
0.00840666
0.26196
-0.506733
0.244918
-0.593774
0.25781
0.335775
-0.167224
0.153544
0.0136769
0.150782
-0.351941
0.130707
-0.214257
0.0835978
-0.0615635
0.0854123
-0.0238498
0.165465
-0.268381
-0.0132358
-0.0277388
0.0409746
0.000973596
-0.00243203
-0.272814
0.136317
0.195466
0.0695705
0.0216841
-0.0912554
-0.00995427
0.0163252
-0.0063709
0.0559201
-0.148332
0.0924134
0.19841
-0.162095
0.0375325
-0.00587892
0.0575483
-0.0516705
0.095071
0.0726738
-0.16775
-0.156617
-0.144337
-0.557814
0.212105
-0.279093
0.0897211
-0.000139929
-0.213078
-0.018745
0.0675386
0.00244271
-0.0699832
-0.591579
0.261464
0.000973384
0.00869865
-0.0128738
0.106763
0.199758
-0.363757
0.250552
0.160497
-0.411051
-0.00297907
0.0354493
0.373841
0.196067
0.354112
0.20687
-0.108453
-0.098436
0.00454443
0.000152692
-0.00469716
0.00423556
0.00265844
-0.00689387
0.0433741
-0.0491528
0.158199
-0.299167
0.201086
-0.141245
-0.059849
-0.148598
0.0934842
-0.434616
-0.145394
0.167139
-0.468867
-0.584427
0.284282
0.0886103
0.00111081
0.386557
0.238877
-0.625398
0.370658
-0.189498
0.144681
0.0563988
-0.177686
-0.127024
-0.0519099
0.283037
0.260068
-0.54275
0.267433
-0.491833
0.224779
0.401221
-0.324522
-0.255042
0.158682
-0.0656441
-0.153606
0.540374
-0.189551
-0.154018
0.0727533
0.111999
-0.184757
-0.104761
-0.00416566
0.00387195
-0.0502843
0.046412
0.405198
0.200734
-0.605563
-0.161065
0.10779
0.053274
0.00453019
-0.013354
0.0260103
0.0304512
-0.127808
0.227289
0.00712079
-0.0124713
0.00535053
-0.00141752
-0.12822
-0.191377
-0.419202
-0.12881
-0.12415
0.220974
-0.108232
-0.11275
-0.00556402
-0.00253878
0.00810247
0.100989
-0.563897
0.282079
0.431173
-0.584825
-0.0153045
0.0859276
-0.141111
-0.150038
0.308174
0.291581
0.271694
-0.56301
0.174033
0.171302
-0.345284
0.0996883
0.0669811
0.233472
-0.551127
0.00524368
0.546046
0.116086
-0.215308
-0.139982
-0.295986
-0.288213
-0.175917
0.374955
-0.198908
-0.0377337
-0.0238692
-0.212728
-0.163879
-0.259478
0.112911
0.395484
-0.279878
0.120178
0.122973
-0.0190761
-0.103903
0.534734
0.228908
-0.113867
-0.115084
-0.324326
0.438495
-0.114181
-0.228206
0.122673
-0.0580183
0.0410995
0.0169186
0.304821
0.292194
-0.058481
0.0623523
-0.0751884
0.214084
0.0055694
0.00231773
-0.00788682
-0.260861
-0.361597
0.143052
-0.0998851
0.216026
-0.0906089
-0.0704564
0.0842602
-0.0117016
-0.198484
-0.0234192
0.083167
0.00783418
-0.0917769
-0.0737971
0.165582
-0.255934
0.101686
0.154258
-0.0103841
0.554243
0.0396511
0.104365
0.175138
0.289811
-0.464768
0.27334
-0.618541
-0.408164
0.215511
0.19281
0.614846
0.0642234
0.110836
-0.175073
0.383605
0.21341
0.250113
0.019255
-0.0808209
0.102618
-0.191021
-0.15384
-0.433278
-0.0492551
0.138162
-0.0889176
0.145359
-0.256408
0.0325133
-0.155634
0.251562
-0.0958957
-0.0573244
0.0245461
0.173
0.192314
-0.11715
0.14185
-0.00457682
-0.0160676
0.0206443
0.111962
-0.241481
0.129573
-0.00013344
0.00641379
0.336592
-0.599384
-0.0558569
0.197122
-0.141229
0.496493
-0.568799
0.0725492
0.155176
-0.287231
-0.146995
0.316149
0.141667
-0.053697
0.0275793
-0.107628
0.0800459
-0.238621
0.128233
0.110399
-0.00913553
-0.282927
-0.325577
0.608551
-0.060915
0.0476791
-0.272098
0.109169
0.163539
0.195769
-0.359191
-0.0901589
-0.066677
-0.0272623
0.160018
-0.132745
-0.0047971
0.00577069
-0.147704
0.398284
-0.10557
0.101318
-0.0984236
-0.00633793
0.105777
-0.0315693
0.0827897
-0.292197
0.547244
-0.406327
-0.140624
-0.300183
-0.0911951
0.063322
0.0278727
-0.407068
0.498694
-0.0920338
-0.400558
0.302664
0.232959
0.189867
-0.422574
0.157567
-0.46071
0.219818
-0.405918
0.259819
0.275864
-0.124345
0.21172
0.185102
-0.396593
0.476649
-0.250995
0.123222
0.084192
0.122659
0.0959066
-0.145174
0.399868
-0.215598
-0.000973228
0.00654258
0.31582
-0.138096
-0.177723
-0.0405641
0.0960998
0.130814
-0.0278518
-0.00816475
0.00522643
0.00293835
-0.0365751
-0.111241
0.1478
0.17492
-0.23076
0.00962288
-0.00460667
-0.00501623
0.0850437
-0.189195
-0.0694124
0.0696737
-0.00116462
-0.068508
0.16857
-0.0688898
0.565428
-0.467288
-0.129945
-0.0968071
0.226721
0.0140743
-0.347913
0.0915425
0.00129934
0.00173635
-0.00303576
0.284606
-0.29256
0.00799481
0.0725194
-0.053852
0.0223975
-0.136174
-0.120592
-0.14812
-0.00882903
-0.00203139
0.142371
-0.193866
0.373156
0.507751
-0.0375231
-0.105767
-0.132873
0.431969
0.115591
0.161775
-0.474274
-0.0759866
-0.0609542
0.120836
0.126141
0.171495
-0.4958
-0.18844
-0.159447
-0.119812
-0.131201
0.0484482
0.0704592
0.11966
-0.236006
0.169623
0.398242
-0.568017
0.161692
-0.236884
-0.114207
-0.0571619
0.171367
0.109858
0.145685
-0.213518
0.471607
-0.258078
-0.00281126
0.00411053
0.183534
-0.298743
0.115168
-0.0113336
0.248321
-0.0569188
-0.111972
0.208987
-0.178801
-0.136514
-0.00689398
0.00788538
0.0803968
-0.0596404
-0.0207445
0.00801676
-0.00597972
0.173198
-0.316967
0.1437
0.127341
0.101525
0.133123
-0.108331
-0.0247927
-0.175042
-0.299523
0.153804
0.587459
-0.132569
-0.106921
0.239515
0.351321
-0.476715
0.454089
-0.170669
-0.134528
-0.0749588
-0.0126375
0.0111483
-0.0641447
0.0529958
0.49424
-0.266147
-0.228106
0.309377
-0.131025
-0.178406
0.266871
-0.486009
0.0699036
-0.263921
0.119883
-0.25745
-0.230355
0.488252
0.122895
-0.127489
-0.114066
0.0540105
-0.259524
0.205507
-0.391033
0.219354
0.171831
-0.233111
-0.180198
0.413468
-0.293579
-0.219104
0.513039
-0.145502
-0.0955699
0.241077
0.000838655
0.00370571
0.238959
-0.120141
0.186755
0.389496
0.0919014
-0.0138495
0.00927293
-0.231631
-0.184252
0.218371
-0.511606
0.38335
-0.230676
0.0757397
0.00742641
-0.111542
0.558447
-0.551089
-0.00729704
-0.35961
-0.270857
-0.140871
0.113605
0.0900986
-0.00387618
-0.086223
0.564036
-0.307176
-0.25696
0.627629
-0.356288
0.199742
-0.106279
-0.0934968
-0.151656
-0.139419
0.291173
-0.234284
0.130368
0.10391
-0.217068
0.158219
0.0588214
-0.128584
0.0744828
-0.16345
0.469005
-0.22934
-0.239731
-0.038846
-0.138413
0.177247
-0.0157535
0.0683227
-0.0525697
0.151458
-0.0304113
0.0155081
-0.140372
0.124858
0.101655
-0.207397
0.105707
0.107442
0.288144
-0.606429
0.161857
0.155712
-0.317659
-0.103549
-0.12461
0.212983
-0.123731
0.157169
0.160895
-0.318211
-0.188748
0.335528
-0.146757
0.583265
-0.281602
-0.301212
0.281707
-0.146589
-0.00598444
-0.0973264
0.080721
0.016605
-0.213256
0.160944
0.0523235
0.146279
-0.266881
0.307952
0.0998253
-0.172682
0.0728498
0.155386
-0.302296
-0.153767
0.207728
0.0548179
-0.132789
0.0779727
0.101557
-0.21357
0.155019
-0.294709
-0.377129
-0.0444109
-0.0467846
-0.0101543
-0.0899609
0.025854
0.443014
-0.468395
0.142479
-0.270644
0.124416
-0.15171
0.348731
-0.159562
0.502122
-0.265976
-0.235868
0.351677
-0.0750599
0.199476
-0.0621735
0.195176
-0.133058
-0.157099
-0.0771933
0.00378201
-0.000849621
-0.00293241
-0.139626
-0.136466
-0.309736
-0.0143227
0.0188543
-0.261724
-0.214681
0.476313
-0.0656937
0.0768415
-0.532137
-0.0189077
0.551588
0.118754
0.0881083
0.0445386
0.292829
-0.275678
-0.0172175
0.398593
0.157898
-0.556501
-0.311183
0.161076
0.257442
-0.123677
-0.13377
0.0848758
-0.00913694
0.155185
-0.27694
0.56843
0.00740237
-0.0632945
0.0558915
0.0551337
0.0974586
0.0910031
-0.157288
0.000823331
-0.00171564
-0.0341998
0.152956
0.66351
-0.312967
0.0967655
-0.122052
0.163306
-0.318623
0.15535
0.0136005
0.0735397
-0.0871401
-0.234106
-0.145286
0.28042
0.520307
0.0845574
-0.00525386
-0.00604326
0.315194
0.348332
0.0492718
-0.266376
0.239414
0.124783
0.109314
0.0815864
0.10503
-0.158331
0.0970745
-0.260188
0.0426953
0.217475
-0.292164
0.107194
-0.14378
-0.194791
0.0920521
0.102711
-0.1778
0.427934
-0.250074
0.163618
-0.218211
0.0545889
-0.346293
0.166558
0.021521
-0.0309692
0.00500715
-0.0149978
-0.392529
0.169773
0.00385414
-0.263423
-0.29967
-0.0689972
-0.144247
0.321301
-0.56223
0.240806
0.000875545
0.00290645
-0.217827
-0.348688
0.135967
0.125585
0.432842
0.101593
-0.247098
0.113226
-0.246057
0.132858
-0.501111
-0.151728
0.652977
-0.133442
-0.257436
0.17942
-0.307327
-0.107431
-0.0546642
-0.0752287
0.161315
-0.0860883
-0.137527
0.291866
-0.15428
0.23254
-0.120513
-0.247716
0.141985
-0.150164
0.0726343
0.303571
0.148791
-0.13308
-0.130354
-0.143963
0.298096
0.206131
-0.0637673
0.133348
-0.226941
0.0936129
0.00456945
-0.505592
-0.504006
0.242565
0.0904888
-0.170378
0.0798848
-0.348731
0.172946
0.086547
-0.101513
-0.0829173
0.231322
-0.00657623
0.0981257
-0.0915498
0.142003
0.120943
-0.262937
0.467344
0.140572
-0.329354
0.0911435
-0.207057
0.11593
-0.112159
-0.0550678
0.18735
-0.420247
0.129057
-0.101484
-0.0773549
0.178838
-0.1038
-0.394477
0.124769
-0.55617
-0.0311254
0.587355
0.011308
-0.0762525
0.0701623
0.00609028
-0.216224
0.0961139
0.120102
0.00220744
0.0118387
-0.100449
-0.0812214
0.181675
-0.104946
0.2114
-0.156455
0.0422451
-0.0600487
-0.0885478
-0.0798505
0.210612
0.00277054
-0.232573
0.100019
-0.0618699
0.174668
-0.112806
0.135261
-0.28681
0.159902
-0.222132
-0.193587
0.344208
0.142778
0.0118375
-0.19611
-0.181498
0.375927
-0.194438
-0.0469263
0.0410465
0.235867
0.0799588
0.0337028
0.25906
-0.0554961
0.0970778
-0.0415805
-0.372165
0.183631
-0.107034
0.209457
-0.102428
-0.0749423
-0.215955
0.0889231
0.0298716
0.254763
-0.0223575
-0.0782471
0.100602
-0.262107
0.109077
0.153055
-0.2659
-0.26042
0.526372
-0.0841433
0.203103
0.00384234
-0.00210608
-0.0857338
0.0953706
-0.00964172
-0.205496
-0.13782
-0.0947363
-0.209695
0.506858
-0.29684
-0.373158
0.324044
0.049149
-0.0126557
0.107723
0.227064
0.24099
-0.50753
0.266617
-0.188083
0.0815879
0.106485
0.144959
0.146912
-0.291874
0.00764819
-0.173862
0.166232
-0.190661
0.354255
0.469404
-0.0740806
0.0635035
0.0105836
-0.138204
-0.16124
-0.29985
0.360746
0.193945
-0.0351321
-0.158813
-0.142212
0.315361
0.397957
-0.116312
0.437144
0.0921291
-0.0885078
-0.145465
0.261669
-0.116246
-0.263191
-0.330769
0.422468
-0.208147
0.0928149
0.0838564
-0.17667
-0.125593
-0.130332
0.1055
0.11033
-0.215862
-0.153013
-0.153812
0.306866
-0.0903945
-0.0579361
-0.110338
0.311546
-0.154509
-0.25115
0.13152
0.119632
0.440188
-0.172509
-0.245923
0.486843
-0.00722804
-0.0681195
-0.0999508
0.168065
-0.104755
-0.0900642
0.069658
0.151308
0.0642542
0.10187
-0.16613
-0.165661
0.0641723
0.158257
-0.0749819
-0.0832864
-0.0835844
-0.0720411
0.0705198
-0.198351
0.0345146
-0.00533449
0.168192
-0.317773
0.143608
0.149171
-0.292867
-0.295522
0.520373
-0.516426
-0.0397293
-0.0510733
0.154553
-0.103487
-0.118902
-0.412702
-0.0526859
0.00366538
0.00693729
-0.0106027
0.125942
-0.0926428
-0.0332999
0.00301954
0.395585
0.0421345
0.151813
0.155269
-0.0581103
-0.0971579
-0.212942
-0.235261
0.448169
0.0756226
-0.0731814
-0.028763
0.120709
-0.091946
0.0417437
-0.0840956
0.121969
0.0910214
0.00139832
0.00362533
-0.0050237
-0.0687966
-0.0968683
0.111523
-0.0960114
0.00205421
-0.00761828
0.186014
-0.0834011
0.142536
-0.298172
0.147937
-0.0463114
-0.187825
0.36728
-0.179407
0.00415825
7.75028e-05
0.0958749
-0.234051
0.138173
0.0704403
-0.150687
0.0802425
0.391841
-0.221677
-0.17018
0.0912559
0.398362
0.0969805
-0.494948
-0.000504985
-0.0103337
0.0108386
0.00826486
-0.0041065
0.320296
0.263281
-0.583329
-0.00421905
0.00808517
-0.109546
0.0895913
0.019953
-0.106627
-0.0950176
0.201653
-0.10584
0.182868
-0.0770387
0.134398
-0.44872
0.148865
0.0010258
0.000372432
0.290064
-0.134707
-0.023631
0.0932006
-0.00621219
0.00987756
0.231126
0.342373
-0.573266
-0.0325837
-0.227644
0.299025
0.231938
0.112801
0.0627701
-0.142598
0.0798152
0.088642
0.0700339
-0.567528
0.0352534
0.363363
-0.0616482
-0.156561
-0.143111
-0.133071
0.276168
0.00457174
0.492185
-0.199777
0.0815714
0.118181
-0.314636
0.246247
-0.46774
0.202612
-0.141249
0.0113179
0.125884
-0.137209
0.464953
0.0829307
-0.013255
0.305687
0.38344
0.210554
-0.593771
0.0923821
0.113742
-0.0400825
0.102261
-0.062179
-0.243731
0.26243
-0.231399
0.421462
-0.108292
0.129136
0.109566
-0.0733616
-0.0362062
-0.326375
0.183861
0.142592
-0.0155961
0.177292
0.0945026
-0.104658
-0.099046
-0.00716952
-0.000810589
0.00798009
0.227864
0.101202
-0.175236
0.074028
-0.00730281
-3.31615e-05
0.00639553
-0.0396914
0.0332954
0.326402
-0.542588
0.216437
-0.228623
0.23915
-0.0879116
0.213878
0.0802815
-0.17701
0.096719
0.034496
0.119043
0.242332
0.00354855
-0.00407184
0.000523172
-0.0783691
-0.109723
0.0813209
-0.0957379
0.151214
0.133554
-0.299546
0.518312
0.00405464
-0.103622
0.225914
-0.122262
0.490994
0.326401
-0.582014
0.255757
-0.000519133
-0.000839583
0.00135862
-0.224661
-0.0681856
-0.299461
0.140927
0.205505
0.130046
0.120171
0.137268
0.55179
-0.0784019
0.148835
0.118646
-0.264171
0.0994153
0.140104
-0.239466
0.224515
0.232986
-0.457261
-0.0947238
-0.0530049
0.0586604
-0.117335
0.0413474
0.162656
-0.0999027
0.0137778
-0.0125894
0.0913724
0.0606619
-0.152039
-0.424259
0.161867
-0.0771596
-0.295962