/*--------------------------------*- C++ -*----------------------------------*\
| =========                 |                                                 |
| \\      /  F ield         | OpenFOAM: The Open Source CFD Toolbox           |
|  \\    /   O peration     | Version:  v2012                                 |
|   \\  /    A nd           | Website:  www.openfoam.com                      |
|    \\/     M anipulation  |                                                 |
\*---------------------------------------------------------------------------*/
FoamFile
{
    version     2.0;
    format      ascii;
    class       volVectorField;
    location    "850";
    object      ddt0(U);
}
// * * * * * * * * * * * * * * * * * * * * * * * * * * * * * * * * * * * * * //

dimensions      [0 1 -2 0 0 0 0];


internalField   nonuniform List<vector> 
9793
(
(-0.00017757 0.000401887 1.55641e-18)
(0.0373303 -0.00876038 -4.66503e-17)
(-0.000826523 0.000640625 6.70874e-18)
(-0.00155186 0.0325541 5.74257e-17)
(-0.00113298 -7.21596e-05 -5.47494e-19)
(-0.0143913 0.0169157 -4.41598e-17)
(0.00163925 0.00989924 -9.43984e-18)
(0.0307577 -0.00466598 5.61051e-17)
(-0.00156226 0.000380608 -1.72847e-18)
(0.0280725 -0.00643017 -5.31253e-17)
(-0.000396071 1.7327e-05 6.74725e-19)
(-0.000416058 4.4496e-05 -6.36997e-18)
(-0.000218357 0.000272882 4.26946e-18)
(-0.00436942 0.0464359 1.93165e-17)
(-0.0024268 -0.000127542 2.87903e-18)
(-0.00465288 -0.00715088 2.8819e-18)
(-0.00932475 0.00727045 2.68492e-17)
(0.000638657 0.000578335 -8.32021e-18)
(0.00625042 0.0319215 -1.9768e-17)
(-0.00160515 -0.000154278 2.03963e-19)
(-0.000802419 -0.000412161 -2.50443e-21)
(-7.41361e-07 -2.20062e-05 -3.57398e-18)
(-0.00649713 0.0359191 3.96529e-18)
(0.0304287 -0.00401103 -8.65162e-17)
(-0.00612221 0.0454804 -3.20139e-17)
(0.000260816 0.000899512 -6.06547e-19)
(-0.00018976 0.000327997 -1.22133e-18)
(0.000268893 -1.94028e-05 8.34891e-18)
(-0.00164388 -0.000158417 -5.47592e-20)
(-0.00408121 0.0113079 5.35588e-18)
(0.014795 0.000854247 -3.17446e-17)
(-0.018988 0.0224206 1.03751e-18)
(-0.00146739 0.000776025 -2.17563e-18)
(-0.000772118 0.000574604 -6.07604e-18)
(-0.00194403 2.46159e-06 -1.74581e-18)
(-0.00761127 -0.000596549 1.38308e-17)
(-0.00288713 -0.00504773 2.92484e-18)
(-0.000252458 0.000511835 8.60865e-18)
(0.00277064 0.0469386 -3.81987e-18)
(-0.00524971 0.0033535 1.88146e-18)
(-0.00397905 0.0106062 -3.48532e-18)
(0.0970645 0.00792061 -2.81563e-17)
(0.0286221 0.0198878 1.9972e-17)
(-0.00031657 -1.57866e-05 -9.1899e-18)
(-2.23822e-05 0.000765687 8.00418e-18)
(4.86994e-05 0.000745088 1.04106e-18)
(0.0122215 -0.00599343 -2.2326e-17)
(-0.000344286 -3.29716e-05 3.58282e-18)
(0.000306064 -0.00109355 -1.2275e-19)
(0.000250227 0.000604437 9.00253e-18)
(-0.00777911 -0.00103979 7.49539e-18)
(-0.00167743 -3.25576e-07 1.60832e-18)
(-0.00898825 0.00274266 -1.63494e-17)
(-0.000341305 -4.93112e-05 -2.61039e-18)
(0.00112021 0.00134408 4.45491e-18)
(-0.00173111 0.0327978 1.28007e-17)
(-2.30283e-05 0.00025413 -2.90281e-18)
(-0.0221483 0.00423209 -7.34505e-18)
(0.000165991 -0.00106269 -1.0055e-18)
(1.19492e-06 -1.85861e-05 -5.91576e-18)
(-4.48821e-05 0.000507967 -1.24764e-17)
(0.00593666 0.000650775 -6.97554e-18)
(-0.000661217 0.000674911 -6.11941e-18)
(-0.0107191 -0.00556932 -9.1021e-18)
(0.000307371 4.83667e-05 -2.81278e-19)
(-0.00144188 0.000297918 2.40704e-18)
(-0.00810579 -0.0036445 -8.31174e-17)
(-0.00426971 0.000641896 -1.94656e-18)
(-0.00285012 -0.0058572 -7.93633e-18)
(0.0215391 0.0348881 8.05207e-17)
(-0.000401368 0.000285269 3.33937e-19)
(-0.000215099 -0.00290525 -1.31122e-17)
(0.0296224 -0.0050259 2.50224e-17)
(-0.121177 0.0402318 1.19389e-17)
(0.0228511 0.0398017 1.1341e-17)
(-0.000251475 -4.20599e-05 1.55571e-18)
(0.00178055 -0.000143847 9.46987e-18)
(0.0929137 0.00359059 -4.70875e-17)
(-0.00045111 0.000792706 -7.28642e-19)
(-0.000272448 -5.70375e-05 4.26081e-18)
(0.00177431 -0.000274034 -2.8627e-18)
(0.00741262 0.0323841 -1.20776e-17)
(-0.00947401 0.00655174 -8.42516e-18)
(-0.000798124 0.00142648 -2.15673e-19)
(-0.00323431 -0.00549251 -5.85844e-18)
(-0.00288123 0.0178473 -2.2374e-17)
(-0.000962557 -6.88863e-05 -1.41658e-18)
(-0.0235574 -0.00630715 -7.54235e-18)
(-0.000746141 0.04361 -2.53398e-17)
(0.00544616 0.000329363 2.10262e-17)
(-0.00533271 0.0345557 2.53896e-17)
(-0.00372496 0.0223019 -5.19158e-17)
(-0.00462849 0.0240263 -2.83499e-17)
(-0.00344183 0.00633579 -8.94588e-18)
(0.0274114 0.0219399 -5.18755e-17)
(-0.000351274 0.000400012 1.09044e-17)
(0.0279934 0.0379502 -2.21584e-18)
(-0.00710866 0.00754544 6.38875e-18)
(-0.00324572 0.00193002 -3.19152e-19)
(-0.000670841 -6.24284e-05 -1.44364e-18)
(-0.00163893 0.0406895 -6.10525e-18)
(-0.00874497 0.00249839 1.25392e-17)
(-0.0308433 0.087669 1.90963e-18)
(-7.69116e-05 0.000784567 -4.20891e-18)
(0.00882604 0.0524786 -4.92821e-17)
(0.0728597 0.00314661 4.43732e-17)
(-0.139683 0.0256525 -5.98059e-18)
(-0.000977756 4.75228e-05 -7.36919e-19)
(-0.000395846 0.000798165 -1.92554e-18)
(-0.000580391 -4.23314e-05 4.20957e-18)
(-0.000432919 -1.97539e-05 1.53394e-19)
(-0.00686887 0.0350109 1.06771e-17)
(0.000270495 -0.00650301 5.7733e-17)
(0.00866561 0.000867506 3.23457e-17)
(-0.000373376 0.000286596 1.17842e-17)
(-0.00142193 0.000379536 1.59397e-18)
(-0.000397016 -0.00638622 9.7804e-18)
(0.000680694 0.000719853 6.12359e-18)
(-0.00148928 0.0331513 -3.83284e-17)
(-9.73941e-05 0.000795212 7.53441e-18)
(0.00322083 0.057423 2.10947e-17)
(-0.0245356 -0.00525368 2.1531e-17)
(0.0425681 0.0329794 -8.69837e-18)
(-0.0119561 0.00143602 -1.77273e-17)
(-0.00320616 -0.0046726 -8.64444e-18)
(3.56908e-05 0.00078274 -7.54676e-18)
(-0.00835323 0.00865907 1.0003e-17)
(0.0160876 0.00115825 7.48268e-18)
(-0.040464 -0.0059701 -5.28515e-18)
(-0.0420308 -0.00726515 1.12372e-17)
(-0.00328969 -0.00195845 -8.35548e-19)
(-0.00116911 -0.000147832 -1.96361e-18)
(-5.13472e-05 0.0002939 -4.97824e-19)
(-0.00378201 0.000265965 -2.97304e-19)
(-0.00661619 -0.000432258 -6.0149e-18)
(0.0015118 0.0138472 6.03466e-18)
(-0.00112165 0.0168803 3.15281e-17)
(-0.000862252 -0.00630073 -2.13731e-17)
(-0.000104901 -3.45021e-05 -1.74503e-18)
(-0.0110103 0.00786226 1.3126e-17)
(0.0114374 0.0318276 -8.62174e-18)
(-0.00719926 -0.000396447 5.32444e-18)
(0.000376366 0.000234842 4.13142e-18)
(-0.0194734 -0.00616677 2.31972e-17)
(0.012523 -0.00444673 -7.43318e-18)
(0.0124127 0.0102998 1.19361e-17)
(-1.55436e-06 0.000778367 1.2386e-18)
(0.0270687 0.038295 -6.91844e-18)
(-0.000945838 -0.000130928 1.51794e-18)
(0.000128925 0.000796476 5.67083e-19)
(-0.000849019 0.000508528 3.8863e-18)
(0.0434184 -0.00138996 6.74467e-17)
(-0.00299439 0.00173527 -4.40374e-19)
(-0.000238892 0.000333565 -2.27577e-18)
(-0.000410529 0.000447387 1.11579e-17)
(-0.00436624 0.0252397 -4.22538e-17)
(-0.00977602 0.00772564 -3.33774e-17)
(-9.10384e-05 0.000650089 6.81382e-18)
(-0.0206051 0.0230277 6.24212e-18)
(-0.000436126 0.000334212 7.11748e-18)
(-0.0219533 -0.00576011 1.46449e-17)
(-0.00397333 -0.00178046 9.49508e-19)
(-0.000807147 -0.000402677 2.06381e-20)
(0.00583607 -0.00485849 1.7945e-17)
(-0.00116247 -0.00125967 1.1611e-18)
(0.0978767 0.00162776 1.55047e-17)
(-0.000580743 0.0916581 2.3535e-17)
(-0.00156155 -0.00116406 -1.39421e-18)
(-0.000246663 3.53346e-05 6.11731e-19)
(0.000235934 -2.02705e-05 -1.89384e-18)
(-8.27394e-05 0.000264864 1.65838e-18)
(0.00328872 0.00158382 5.96849e-17)
(0.0621561 -0.017692 2.44361e-17)
(0.00516333 0.0662891 -1.93663e-17)
(-0.000227584 0.000241069 3.93883e-19)
(-0.0152243 0.015942 5.72608e-18)
(0.00729316 0.00618536 -2.00045e-18)
(0.00687834 -0.00638485 -1.31063e-18)
(-0.000403977 0.000757919 -2.6625e-19)
(-0.00423018 0.000245885 -4.45747e-18)
(0.0112496 0.0525889 4.23657e-17)
(0.006128 -0.00505352 2.13659e-17)
(-0.0260754 -0.00559993 -2.03598e-17)
(0.000130232 0.000775073 2.71865e-18)
(0.000275312 0.000623143 -3.65068e-18)
(-0.000617763 2.46008e-05 -7.93036e-19)
(0.0476776 0.0316991 1.06428e-17)
(0.0268642 -0.00595383 -6.31074e-17)
(0.0518187 -0.00819123 4.52819e-17)
(-0.0401939 0.088251 -1.57481e-17)
(-0.00139521 0.000235296 -1.37367e-18)
(-0.0110494 0.0545996 5.39044e-17)
(0.00132071 -0.00529084 5.07268e-17)
(4.20311e-06 0.000545278 2.17059e-17)
(6.71486e-05 -0.00138382 3.86053e-18)
(-0.000406773 0.000896469 1.02376e-17)
(-0.000438206 -0.00671381 -1.2942e-16)
(-0.000263651 -0.000137072 7.09842e-19)
(0.000573978 0.000547848 3.36324e-18)
(0.000146318 3.06109e-06 8.53598e-18)
(-0.000130321 0.000278423 3.31975e-18)
(-0.000806054 -0.00054524 -2.1936e-20)
(-0.00852936 -0.0016686 -4.66447e-18)
(-0.00505092 -0.00300777 -9.26129e-18)
(-0.000435843 0.0340381 4.14764e-17)
(0.000221237 0.000361185 1.17787e-18)
(-0.0048665 0.00265805 4.51767e-18)
(-0.00159223 -0.00132478 -5.10869e-18)
(-0.000382079 0.000455663 -5.67171e-18)
(0.011002 -0.00231094 -2.97993e-18)
(-0.0106698 0.0075418 -7.894e-18)
(0.0137774 0.0310393 -2.51501e-17)
(-0.000804198 -0.000131142 -1.68816e-18)
(0.01867 0.0351471 -4.39643e-17)
(-0.000777538 0.0014139 2.68704e-18)
(-0.00619324 -0.0214656 -1.9432e-18)
(-0.00214071 -0.000114385 2.06632e-19)
(0.000778513 0.0141087 -3.4721e-18)
(-0.00111792 0.000328298 1.26966e-17)
(0.000791503 -0.00107278 1.14268e-17)
(-0.00743533 0.00801762 2.46886e-18)
(-0.000847172 -0.000533588 -5.61149e-19)
(-0.00397383 -0.00770103 2.613e-18)
(0.00906968 0.0822858 -8.44105e-17)
(-0.00321511 0.0059863 1.8054e-17)
(-0.000241262 0.000315634 1.05781e-18)
(-0.0140741 0.00249992 1.66029e-17)
(0.0178353 0.0984151 7.49942e-17)
(0.00118749 -0.000725384 -2.25089e-17)
(0.00147302 -0.0007854 3.25994e-17)
(-0.000624141 0.0348689 -2.84491e-18)
(-0.0348719 -0.00522358 -1.34054e-17)
(-0.0064599 -0.0195268 3.3208e-18)
(-0.0114997 -0.00590274 1.32772e-17)
(0.00115053 -0.00507346 -8.28628e-17)
(0.000371049 -0.00079345 1.23417e-18)
(-0.0217791 0.0482124 5.72299e-19)
(0.00848509 0.00100987 4.93534e-18)
(0.000203526 -0.000133772 -5.89217e-19)
(-0.000673179 -4.37084e-05 -4.36784e-18)
(0.095259 0.00769637 4.10413e-17)
(-0.000276783 0.000313226 8.18756e-18)
(-0.000364129 -2.17869e-05 1.59231e-18)
(-0.0256505 0.00353355 -4.37257e-17)
(-0.0249578 0.00611444 -7.96708e-18)
(-0.00138091 0.000302171 2.02227e-19)
(-0.0044083 0.000113577 1.9309e-18)
(-0.00502801 0.00281764 -5.93975e-18)
(0.00144864 0.00289693 4.35928e-18)
(-0.00434464 -0.000567074 -3.73387e-19)
(-0.000413804 0.00077332 6.73618e-18)
(-0.00073581 0.00642698 -3.52156e-19)
(-0.000647622 0.0301015 -7.11747e-17)
(-0.000709804 -0.000482997 7.0686e-19)
(0.00690251 0.0719898 -6.5511e-17)
(-0.000433548 -5.83279e-05 -4.18121e-19)
(0.00116645 9.30441e-05 -5.80173e-19)
(-0.00181788 -3.71451e-05 3.64027e-19)
(-0.00140769 0.032622 -3.44227e-19)
(-3.14161e-05 0.000814274 -1.00109e-17)
(0.00941406 0.0231315 2.71308e-17)
(0.0114938 0.040803 -4.55499e-17)
(-0.000995915 0.000178703 -3.14103e-18)
(-0.000411982 0.000286472 -5.86534e-19)
(0.0348784 0.0125673 3.6544e-17)
(-0.000674953 -2.97908e-05 -2.88531e-18)
(-0.00047228 -6.15974e-05 -4.96855e-19)
(-0.000253941 -2.52194e-05 -6.82718e-19)
(0.00960571 0.0411283 1.22588e-17)
(0.00535305 -0.00439384 2.86971e-17)
(0.000379246 0.000858594 -1.14247e-17)
(0.0113274 0.000809676 -2.8676e-18)
(-0.0203235 0.00500389 7.22353e-18)
(-0.0132107 0.0936533 2.81797e-17)
(-0.00884482 0.0419375 8.99314e-18)
(-0.00199204 -0.00110394 3.35001e-19)
(0.00643304 0.0409127 7.93206e-17)
(0.00119259 -5.36244e-05 1.00767e-19)
(0.0231161 0.100189 -9.34135e-17)
(0.00728922 -0.0198751 1.15253e-17)
(0.00207128 0.0492458 -5.61832e-18)
(0.0046981 0.0547114 -2.2061e-19)
(-0.0335331 -0.00413962 -7.52008e-19)
(-0.00326704 -0.00229818 -8.17985e-18)
(-0.00899471 0.00608894 1.0126e-17)
(-0.00462409 -0.00284379 4.49184e-18)
(-0.000315883 -0.00152963 1.09103e-18)
(-0.00137413 -0.00200949 -4.84431e-18)
(0.0107249 -0.00123141 7.53458e-18)
(0.00035156 0.000955874 3.58426e-17)
(-0.000205897 0.000241165 -4.43043e-18)
(9.73738e-05 -6.06041e-06 -1.81802e-18)
(-0.000214174 -0.000138001 -6.01899e-19)
(-0.00159339 -2.20386e-05 1.30536e-19)
(-0.000852976 -0.000465316 2.83277e-20)
(-0.0116643 0.0386792 1.41108e-17)
(-0.000274548 2.87711e-05 2.52235e-18)
(-0.00245019 -0.00011781 -6.44565e-19)
(-0.00190665 -1.96962e-05 -3.71057e-21)
(-0.000347372 0.000248347 4.40813e-18)
(0.000126763 0.0279442 6.38299e-17)
(0.0121038 0.0112276 -1.4589e-18)
(-0.000815662 -0.00175721 1.98532e-17)
(-0.000285615 0.000460762 -5.39381e-18)
(-0.0194229 -0.00473049 -1.48789e-17)
(-0.00276832 -1.436e-05 1.82417e-19)
(-0.157243 -0.000446951 9.51734e-19)
(0.0286501 0.00420586 -5.53332e-17)
(-7.4799e-05 0.000797929 -3.97016e-18)
(0.0155201 0.0393679 -1.66074e-17)
(-0.00999828 -0.00428261 -5.63631e-18)
(-0.000349613 0.000742873 -7.54733e-18)
(0.0422205 -0.00937533 7.98549e-17)
(-0.14186 0.0150734 -8.00519e-18)
(-0.00152169 0.000733705 -3.51624e-19)
(-0.000489505 0.0066496 4.21568e-18)
(-0.00958358 -0.019036 5.73572e-17)
(-0.000526016 0.000380713 2.53601e-18)
(2.50922e-05 2.95484e-05 -5.22029e-18)
(-0.00246907 -0.000141029 -2.81289e-18)
(-0.000349309 0.00039819 -1.27049e-17)
(0.0393537 0.0962547 5.58486e-17)
(0.00219934 0.00190385 1.44992e-17)
(-0.000717821 0.000601388 -3.71395e-18)
(1.11728e-06 0.000802422 7.9225e-18)
(-0.000316958 0.000439236 5.75399e-18)
(0.00771384 0.00866311 -1.56927e-18)
(-4.46804e-05 -0.0082683 -1.24734e-17)
(-0.000693104 0.000664188 -1.302e-17)
(-0.00134652 3.75362e-05 1.08419e-18)
(-0.000424981 -0.000645003 3.10926e-19)
(0.00237909 0.00133064 -8.07652e-17)
(0.0120211 0.0280729 -3.52661e-17)
(0.0140678 0.000892114 1.19058e-17)
(0.000220089 -0.000716729 7.99029e-19)
(0.00248119 0.00197039 -1.59674e-17)
(-7.4988e-05 1.41266e-05 -6.51908e-18)
(0.015517 -0.00414445 -3.22656e-18)
(-0.0171466 0.00478256 -7.00218e-18)
(0.00112444 -0.000851355 -3.30758e-20)
(0.000986252 -0.00102223 5.25339e-19)
(-0.000452241 -0.000593128 1.82861e-19)
(-0.00899588 0.00547209 -7.74785e-18)
(-0.00043345 0.000423554 -4.53456e-18)
(0.0211245 0.00571016 2.43662e-17)
(-0.00103247 0.000529568 -4.7705e-19)
(-0.000742219 -0.000218918 7.93914e-19)
(-0.0127473 0.0992029 6.4619e-17)
(-0.0123799 0.03901 -9.50314e-18)
(0.013159 0.0368248 -3.30958e-17)
(-0.00172054 -1.92776e-05 4.76597e-19)
(-0.0014937 0.0399858 2.14632e-17)
(-0.000518667 0.00172989 -1.0996e-17)
(0.00377923 -0.0117527 -3.89343e-18)
(0.0239603 0.00399808 8.8129e-17)
(-0.000549993 0.0341285 -2.84346e-17)
(-0.00137604 0.00148419 -8.81004e-18)
(-0.00516697 0.00363181 -1.73422e-17)
(0.000134301 0.0165963 -1.92767e-17)
(-0.00651197 0.0348717 -1.1816e-17)
(-0.00523143 0.0345342 3.5402e-17)
(-0.000214707 0.000542914 -9.89476e-18)
(0.000687424 -2.41755e-05 4.79754e-19)
(0.000342451 0.000873704 -7.04508e-18)
(0.00048335 -0.00104899 1.08832e-18)
(-0.00176602 -6.16726e-06 2.4256e-18)
(-0.000449399 0.000377541 -3.19212e-18)
(0.00061771 0.000356487 -2.3541e-19)
(2.37625e-08 -2.40685e-06 8.41072e-19)
(0.0273195 0.00756803 -3.41789e-17)
(0.000207272 4.20781e-06 -5.6618e-19)
(-0.0070794 0.00918722 1.45131e-17)
(-0.00564941 0.0028382 -4.80907e-18)
(0.0430138 0.0290642 -9.69739e-18)
(0.00118775 -0.000845718 -8.41518e-19)
(-0.000833762 0.00153601 -4.63767e-18)
(-0.00016895 0.0300026 -1.61431e-17)
(0.000169527 -0.00530134 9.85732e-17)
(0.00378949 0.0534596 -1.40064e-17)
(-0.0164822 0.00460545 -1.15423e-17)
(-0.000139725 -0.000217396 -9.62328e-19)
(-0.00141783 0.00159365 -1.59968e-18)
(-0.000617827 0.000623138 -2.83277e-18)
(0.00720493 0.0147124 -4.04287e-17)
(-0.000289348 -4.9714e-05 -6.89086e-19)
(0.0115724 0.0377101 7.71622e-18)
(0.00870589 0.00405209 3.30602e-18)
(0.00211099 0.0094663 1.87666e-18)
(0.0101953 0.00159257 -2.5652e-17)
(0.0410958 0.0995208 4.73516e-18)
(-0.00218439 0.000117569 -2.48897e-19)
(-0.000641538 0.00030804 -4.4035e-18)
(0.0267014 0.0121386 -4.09648e-17)
(0.00697347 0.014941 7.20784e-17)
(0.000623004 0.000373797 -5.59878e-19)
(0.0225483 0.00185493 -1.81324e-17)
(-0.00257206 0.000134625 1.94584e-18)
(0.00139454 8.14368e-05 1.86892e-18)
(0.0125781 -0.0125782 1.31593e-17)
(-0.000148893 -0.000126804 1.28185e-18)
(-0.0214639 0.00530405 -2.71607e-17)
(0.000296215 -0.000790459 4.01987e-19)
(0.0175238 0.0958593 -5.731e-17)
(-0.000432715 0.000484705 -1.38713e-19)
(-0.00107838 -0.00137956 -5.01728e-19)
(-0.00722799 0.0939861 2.04579e-17)
(-0.000195812 -0.00273509 -3.90115e-17)
(-0.0130121 -0.0233077 1.37879e-17)
(1.36704e-05 0.000591589 -4.67413e-17)
(1.55622e-05 0.000213367 2.98206e-18)
(-0.000200329 1.50772e-05 4.32759e-18)
(0.0375238 0.0344588 1.86431e-17)
(-0.00646029 0.0075677 2.0719e-17)
(0.000496138 -0.000476833 -1.97462e-19)
(-0.00100325 2.60512e-05 -4.63215e-18)
(0.00106613 0.00125692 -1.69169e-17)
(-0.000395602 9.81479e-05 -8.52861e-18)
(-0.0113897 -0.0247059 -6.87639e-18)
(0.00570051 -0.00287515 1.51654e-17)
(0.000304794 2.41653e-05 3.33676e-19)
(-0.00113362 0.00056978 4.26194e-18)
(0.00713736 -0.00399117 -1.28864e-18)
(-9.38802e-05 0.000205334 -2.32191e-18)
(-0.000742962 0.0307327 5.59767e-17)
(0.00747757 -0.00559045 3.63476e-17)
(0.000276365 0.000666127 1.25365e-18)
(-0.00139172 0.000754739 1.46557e-18)
(-0.00147065 -0.00188483 3.80078e-18)
(-0.00255448 0.00016323 4.97332e-18)
(-8.58736e-05 -0.000651329 -2.10248e-19)
(-0.000868707 0.0418262 -4.87173e-18)
(0.00113743 -0.00111772 -3.46867e-17)
(0.0733836 0.00471134 1.10285e-17)
(-0.000127749 0.000460469 -1.52379e-17)
(-0.00181606 -0.00429463 2.81378e-18)
(-0.011521 0.00207005 -4.12841e-18)
(-0.00023992 0.000499877 2.16729e-20)
(-0.00189574 0.0337902 -2.02031e-17)
(-0.000111674 0.000535015 5.94065e-18)
(-0.000962363 -6.69829e-05 5.73104e-18)
(-0.00440687 0.00050962 2.81475e-19)
(0.0106791 0.0115468 -1.28982e-17)
(-8.9872e-05 0.000255846 6.67289e-18)
(-0.000368309 0.000335253 -1.47823e-17)
(-0.000137853 0.000283328 -1.17976e-18)
(-0.000195939 -4.74535e-05 9.75944e-19)
(-1.48536e-05 0.000602147 7.6057e-18)
(-0.00142177 -8.12695e-05 -8.64093e-19)
(0.000420185 0.0007397 -6.05965e-18)
(-0.00124617 7.49906e-05 -7.93841e-19)
(-0.000418508 0.00084192 -4.08498e-19)
(-0.00465533 -0.00241683 3.92079e-18)
(-0.0265255 0.00262338 -3.82545e-17)
(0.000908203 -1.76712e-05 -2.84155e-19)
(-0.000652873 -0.0066889 1.16912e-16)
(0.000262662 0.0007874 -2.43227e-18)
(0.00969786 0.00414649 -4.95705e-18)
(-0.00954989 0.0462405 -1.87765e-18)
(-0.00042842 -0.00151578 -2.80728e-18)
(-0.0197324 0.0970797 -5.56276e-17)
(0.00097885 0.00971988 8.742e-18)
(1.32242e-05 -0.00136121 8.49142e-19)
(-0.00155528 -5.68576e-05 4.32572e-19)
(0.000617357 0.000229743 -4.45185e-18)
(0.00218276 0.0638808 -3.27461e-17)
(-0.0196986 0.00592871 -1.0296e-17)
(-0.00134406 -5.3221e-05 -3.56436e-19)
(-0.00146849 0.00036524 -5.69641e-18)
(0.00123373 1.75342e-05 -3.01897e-18)
(-0.00167947 -0.00159136 -3.14327e-17)
(0.00818662 0.00560182 2.23948e-18)
(0.0873445 0.00320138 -1.34924e-17)
(0.000385891 5.29332e-05 3.09184e-18)
(-0.000115648 0.00046185 -6.78377e-18)
(0.000387479 0.000354699 -2.2928e-17)
(0.00837098 -0.00578008 -1.22915e-17)
(0.00154522 0.0473494 1.24542e-17)
(0.000141515 0.000625571 -2.9131e-17)
(-0.00381207 -0.00228579 4.58752e-18)
(0.00679784 0.0758532 5.16377e-17)
(0.0975387 0.00200939 -1.67955e-18)
(-0.0343363 0.00899617 -3.75986e-17)
(-0.000137193 0.000418421 -1.64734e-18)
(-0.00127119 -0.000181847 -9.98532e-19)
(-5.08323e-05 0.0353135 1.93948e-17)
(0.000385881 0.000429844 -5.08512e-19)
(0.00718805 0.00703439 -2.48282e-19)
(0.0528291 0.0270027 8.28288e-18)
(-5.3888e-06 -0.000445099 2.28155e-19)
(0.00528965 -0.00381437 -2.83411e-17)
(-0.00477174 0.0019885 -8.99758e-18)
(-0.00323124 0.0373231 1.96458e-17)
(-0.000136707 1.23075e-05 6.88124e-19)
(0.00406231 0.0356181 8.45455e-18)
(-0.00844718 0.019221 -1.17265e-17)
(-0.00450503 -0.00654804 -6.55245e-19)
(0.0294737 0.0158809 -4.16603e-17)
(5.07897e-05 0.000423374 -1.18599e-17)
(0.0150617 -0.00264535 3.43237e-18)
(-0.00028007 0.000505431 1.65591e-18)
(-0.000435281 0.000288624 -2.93314e-18)
(-0.000794112 -2.70008e-05 -1.21252e-18)
(0.000298486 0.000636815 7.78427e-19)
(0.0172771 0.0408169 1.21673e-16)
(-0.000244353 0.000363747 1.82204e-18)
(-3.25097e-05 -0.000924475 -1.02094e-18)
(-0.000190154 0.000478217 -1.10194e-17)
(0.000145954 -0.000701771 7.0129e-19)
(-0.00148551 -0.000159829 -1.88432e-18)
(0.000347405 0.00644055 -3.94383e-19)
(-0.00105189 0.000973012 -1.30567e-17)
(-0.0106656 -0.00451551 2.64841e-17)
(-0.00127617 0.0002411 -2.98934e-18)
(-0.00090598 0.000228336 -6.46325e-18)
(-8.12211e-05 0.0304179 3.0996e-17)
(-0.000323429 -0.00217842 6.72133e-17)
(0.000103343 0.000572815 -1.10321e-17)
(0.00522966 0.0696239 4.83294e-17)
(-0.00424481 -0.00227298 4.43523e-18)
(-0.000585831 0.000535059 5.87234e-19)
(-0.000366203 0.000820203 1.01776e-17)
(-0.000224511 -0.000703535 2.11994e-19)
(0.0230571 0.000603767 1.82697e-18)
(0.00012697 -0.000947946 1.17243e-18)
(0.00072994 2.87117e-05 -1.05557e-18)
(0.0138986 -0.00280893 -7.0849e-18)
(0.0986939 0.00690649 -1.58172e-17)
(0.00151322 0.00312984 -1.01668e-17)
(0.000775345 0.000266419 -3.56673e-18)
(-0.000539016 -4.04545e-05 1.51951e-18)
(-0.00174928 -0.000307162 -1.7014e-19)
(0.000240719 -5.15582e-05 -1.24514e-18)
(0.00903349 0.0709158 -4.22166e-17)
(-0.000248785 0.000400486 -2.15445e-18)
(-0.0639887 0.0795423 -1.36237e-17)
(-0.00291067 -0.00393065 3.94101e-18)
(-0.00309355 -0.00788498 -4.87503e-17)
(-0.000328058 -6.46782e-05 4.19299e-18)
(-0.00336725 -0.00378792 9.07563e-17)
(-0.000394406 -1.01019e-05 -2.56751e-19)
(0.00833034 0.00943102 -4.59719e-18)
(0.000302531 0.000469194 2.57885e-19)
(-0.0290238 -0.0179689 9.80323e-18)
(-0.000365773 0.0292879 -6.24628e-17)
(-0.000463215 0.000450255 -9.47873e-19)
(0.0785459 0.0169138 1.54e-17)
(-0.00131003 0.000367853 1.13138e-18)
(5.21991e-07 -1.46048e-06 -3.66456e-18)
(-0.000701414 -0.000392756 2.82539e-20)
(0.0203228 0.0473412 4.80032e-17)
(-0.000609495 0.0332679 -3.35725e-17)
(0.000273695 0.000240238 2.46185e-18)
(-0.00495222 0.00219682 -1.93376e-19)
(0.000327054 -0.00102195 1.48804e-19)
(0.00922842 0.0784838 -2.74322e-17)
(0.00152296 -2.35888e-05 2.2982e-19)
(-0.000999838 0.0065471 4.60014e-18)
(0.0053152 0.0345731 -2.32324e-17)
(-0.000258654 0.000505424 -9.72479e-19)
(0.00144716 4.62099e-05 1.80729e-18)
(0.00201352 6.64396e-05 -2.29771e-17)
(2.03082e-05 -1.48172e-05 4.61588e-18)
(-0.00175951 -0.000380109 -1.17492e-19)
(-0.000653602 -0.000519505 -1.23769e-19)
(-0.0262098 0.000935352 3.39593e-17)
(0.000933354 0.000118701 -1.79901e-19)
(0.00574742 0.0834188 -6.23037e-17)
(-9.83604e-05 0.000224703 9.86499e-18)
(-0.000752364 0.00046321 7.01029e-18)
(-0.0129959 -0.00813491 -1.50161e-17)
(0.00393904 -0.000547122 3.01804e-18)
(0.0451693 0.0124182 1.07565e-17)
(-0.00249977 -0.000141115 -8.86827e-19)
(-0.00848694 -0.00476884 -1.01871e-17)
(-0.00059602 0.000278949 5.19989e-18)
(0.0091623 0.00632311 1.74912e-18)
(-0.00063776 0.000442128 -3.11605e-18)
(-0.00126609 -0.00137355 2.60335e-18)
(-6.90431e-05 0.000408844 6.28724e-18)
(0.00028688 0.0002341 4.63879e-18)
(-0.000468711 -6.1908e-05 1.16451e-18)
(0.0101243 0.00602087 -4.67999e-18)
(-0.00772855 -0.0185348 -5.15738e-19)
(0.0774666 0.0165301 2.74816e-17)
(-0.00765216 0.0136459 -9.82778e-18)
(0.000594129 0.000222552 1.07903e-17)
(0.00114647 0.00178082 1.69692e-17)
(0.0132302 -0.0111313 -2.25669e-17)
(-0.00392965 0.000294066 -1.61553e-19)
(0.00859081 0.0675457 2.07937e-17)
(0.0172427 0.0259498 4.35045e-17)
(0.00937582 0.00924303 -6.64378e-18)
(0.0876301 -0.000290128 1.79537e-17)
(0.0553401 0.0224091 -2.21501e-17)
(0.00796871 0.00777984 7.36355e-18)
(-0.00193713 -0.00045959 -1.86899e-18)
(0.00042558 -0.00796807 6.23284e-17)
(-0.0128062 -0.00911853 -3.76221e-18)
(-0.00104562 -0.00125683 -3.1846e-18)
(0.00995656 0.0101135 9.35036e-18)
(-0.000235452 -1.63523e-05 -3.89684e-18)
(0.0117338 -0.00015192 1.2727e-18)
(0.0011656 0.00316484 -8.42753e-18)
(-0.0297177 0.0149027 2.02423e-17)
(-2.57861e-05 0.000542804 -6.78262e-18)
(-0.0139775 0.0362764 -9.07714e-18)
(0.0229456 0.0187246 3.15864e-17)
(-0.0120196 -0.00738644 1.28452e-18)
(-0.0273035 0.013354 -2.63467e-17)
(-0.000458197 -2.99091e-05 6.64347e-18)
(0.0143208 0.00644125 -9.1042e-18)
(0.000303393 0.000452568 -1.05477e-18)
(0.000479734 0.000487534 3.56198e-18)
(-9.12675e-05 0.00036896 1.69139e-18)
(-0.000239867 -0.00521302 -4.02069e-19)
(-0.00613368 0.00703994 -1.37906e-17)
(-0.000380817 0.0360164 1.49259e-17)
(0.0101845 0.00109135 -1.53277e-17)
(0.0229666 0.00369778 -4.07322e-18)
(-0.00370335 0.000429247 1.93527e-18)
(-0.000351288 0.000970186 1.1931e-18)
(-0.00370938 0.037752 -4.6922e-18)
(-0.00103602 -0.00496557 2.79664e-17)
(-0.00424591 -0.00186008 -2.17815e-18)
(-0.0151048 0.00470594 -1.53356e-17)
(-0.000425295 0.000503827 5.5937e-18)
(0.00490695 -0.0133841 -3.03938e-17)
(-0.0117801 0.0946909 -2.29852e-17)
(0.000686138 0.00068418 -2.03252e-18)
(-0.00108752 -0.00182225 5.42068e-17)
(0.00680646 -0.00322485 3.30275e-17)
(0.0208427 0.0222434 -3.2406e-17)
(-0.000184955 3.96872e-05 1.50787e-18)
(0.000407295 0.000906559 8.97169e-18)
(0.052053 0.0238686 -3.78813e-17)
(-0.00807821 -0.00200613 -6.14593e-18)
(0.0551177 0.0287799 -3.02332e-17)
(-0.0298156 -0.0158204 2.22328e-17)
(0.0371674 0.028592 2.35897e-17)
(-0.00012506 0.00136054 -4.53985e-19)
(-0.00399179 0.000541501 3.65995e-22)
(-0.00140683 6.56517e-05 -2.10358e-18)
(-0.000643102 0.000470105 -9.4834e-18)
(-0.0532587 -0.00767263 -3.40756e-18)
(0.00016738 -3.54415e-05 3.65765e-18)
(-0.0658985 -0.0039753 3.13603e-18)
(-0.0103665 0.0149185 -1.83702e-17)
(0.00312656 0.00824588 -1.51332e-17)
(1.83907e-05 -9.49428e-06 1.22697e-18)
(0.000673736 -9.61394e-06 4.68476e-18)
(-0.0014015 -0.00490924 -2.2723e-19)
(5.92285e-06 -0.00246186 1.75198e-18)
(-0.00204273 -4.13784e-06 -1.37531e-18)
(3.40461e-05 0.000336901 -4.75587e-18)
(-0.00747269 0.0130208 2.15694e-19)
(0.000822203 0.0662574 3.55056e-17)
(-0.0104834 0.0429202 -1.24042e-17)
(0.00044999 -1.80913e-05 8.00011e-18)
(0.00690448 0.0138275 -1.63482e-18)
(0.00097485 0.000330654 2.70858e-18)
(0.0145143 0.0269496 2.39676e-17)
(-0.0159351 -0.00335375 -2.92691e-18)
(0.00136471 -0.000468515 -6.60025e-18)
(-0.000232676 7.91893e-05 2.66398e-17)
(-0.00855039 0.0191692 5.92033e-17)
(-0.0011574 -0.000152706 -1.36984e-18)
(-0.000877912 0.000544592 -2.77861e-18)
(0.00185799 0.000349141 1.92583e-17)
(8.89593e-05 0.00044298 -8.32753e-18)
(-0.00147338 -0.000305849 -9.63182e-19)
(-0.0122896 0.00683146 1.2666e-18)
(-0.00623446 0.0400891 4.3947e-17)
(-0.000939649 -0.000578992 2.31335e-19)
(-0.0450286 -0.00614908 2.95541e-17)
(0.00138656 0.0486896 4.4178e-18)
(-0.00473713 -0.00036899 1.10974e-18)
(0.0311267 0.0973383 -1.92732e-17)
(0.00152219 0.0493804 -1.92313e-17)
(-0.00114393 -5.68867e-05 -7.97267e-19)
(-0.00821774 0.00806658 -6.73202e-18)
(-0.00519564 -0.00738718 8.24662e-18)
(-0.00137564 0.000226323 2.59533e-19)
(-0.000650585 -0.00036173 1.85079e-21)
(0.00200311 -0.00305056 -2.48538e-17)
(0.0019312 0.0498529 3.21699e-17)
(0.0302982 0.00181549 8.36988e-18)
(-0.000161896 0.000240245 1.63597e-18)
(4.35876e-05 0.000810981 -9.58288e-18)
(-0.00190881 -0.000283928 -2.11222e-19)
(0.000265323 -0.00711836 -3.42019e-18)
(-0.0010829 0.00101191 -1.63979e-18)
(-0.000743741 0.00129929 7.18263e-18)
(-0.00490857 -0.00589105 6.92633e-18)
(-0.0161484 -0.00452178 -8.08432e-18)
(-0.00222409 9.17994e-05 3.80035e-19)
(0.0937786 0.00414504 1.65834e-17)
(-0.0084127 -0.00115848 3.69193e-19)
(0.000611359 0.000285206 -8.3674e-18)
(-0.00173362 -0.0003775 1.18716e-18)
(0.0104897 0.000430459 2.19213e-17)
(-0.00304246 -0.00241051 1.29133e-18)
(0.00116174 4.60418e-05 -2.72781e-18)
(0.00286243 0.00864929 -2.54798e-18)
(-0.000286655 -0.00696787 -2.23846e-18)
(0.000238175 -0.000522635 5.10621e-19)
(0.000516156 0.000725391 -2.69843e-19)
(-0.000581133 0.000674134 2.63381e-18)
(-0.00325507 -0.00638679 6.07418e-18)
(-0.00134128 -0.000145977 -2.70136e-18)
(-0.0122432 -0.00664649 -8.29513e-18)
(-0.0115304 0.0209242 2.69261e-17)
(-0.00109454 0.000564624 2.63879e-18)
(-0.0270528 8.12965e-05 -8.23145e-18)
(-0.00416492 -0.00172715 8.7775e-19)
(-0.00136633 -0.000378971 -3.81194e-19)
(0.0514256 0.0137955 -2.89335e-17)
(0.012283 0.0287485 -2.47035e-17)
(-0.0238948 0.00638169 1.02095e-17)
(-0.00100079 0.000481631 -2.09253e-18)
(-0.000197424 -0.000600119 -2.9026e-19)
(-0.0245217 0.0451342 8.95329e-19)
(-0.000162523 0.000560444 -2.81408e-17)
(-0.0500373 0.0232836 3.93432e-17)
(-0.000377243 -0.000503954 6.40665e-19)
(-0.000570061 0.000346937 3.01385e-18)
(0.00951558 0.0012572 -3.4233e-17)
(-0.0603698 0.078715 5.26814e-18)
(-0.00495063 0.00312191 -2.74382e-18)
(-0.0234372 0.00440922 1.24368e-17)
(-0.000270013 -0.00173949 -5.73278e-17)
(-0.000558874 0.000296615 3.8161e-18)
(0.00012379 -9.14511e-06 2.46204e-18)
(-0.00121521 0.000231532 -1.63963e-18)
(0.0215607 0.0261889 1.82165e-18)
(0.000834581 3.57765e-05 -3.35875e-19)
(-2.14897e-07 -2.94583e-06 -3.47199e-19)
(-0.00616875 0.0350771 -5.24535e-17)
(-6.43914e-05 0.000508677 -8.23909e-18)
(-0.00287699 0.0185926 3.1568e-17)
(4.79357e-05 0.000136337 5.18281e-18)
(2.1507e-06 0.00028746 5.26561e-18)
(0.00985391 0.0302018 -7.2048e-19)
(0.00202832 -4.74499e-05 -6.62679e-19)
(-0.000249351 0.000445914 3.94699e-19)
(-0.00116278 0.00021234 -6.33354e-18)
(0.000877382 0.00166887 -8.17498e-18)
(-0.000766998 0.0314083 3.01136e-17)
(0.00113598 0.000111412 -3.95534e-18)
(-1.30861e-05 0.000796514 6.3259e-18)
(-4.38503e-05 0.000423909 5.92215e-18)
(-0.000254623 0.000351686 2.17887e-18)
(0.000965867 0.000305891 -2.24523e-18)
(-0.0017517 0.000118986 1.94902e-18)
(0.0968031 -0.00385143 -1.42393e-17)
(0.000717573 0.00152975 -1.24981e-17)
(-0.000355872 0.000763402 -9.51472e-18)
(0.000576696 0.0002621 3.39938e-18)
(0.000991906 0.00139881 -1.40027e-18)
(-0.00893116 0.00868925 9.67338e-18)
(-0.00408409 -0.00756619 -1.50207e-18)
(-6.32106e-05 0.000468604 -6.35515e-18)
(-0.00024021 -5.24429e-06 1.29403e-18)
(-0.00165068 -0.000286521 -1.4231e-19)
(-0.00188088 0.00148257 -2.27893e-21)
(-0.000777825 0.0317582 1.59867e-17)
(0.0237761 0.0694949 2.17228e-17)
(-0.00144433 -0.00415808 -7.20879e-18)
(0.0278744 0.00454748 3.40068e-19)
(-0.000652357 -3.45594e-05 1.675e-19)
(-0.000102979 0.00128079 2.10781e-17)
(0.000177624 0.0209213 1.59617e-17)
(0.0010976 -0.0077474 -1.53993e-16)
(-0.00149127 -0.000216067 1.40983e-19)
(0.00109149 5.71938e-05 -1.97379e-18)
(-0.00233928 -0.00520384 -4.08901e-17)