/*--------------------------------*- C++ -*----------------------------------*\
| =========                 |                                                 |
| \\      /  F ield         | OpenFOAM: The Open Source CFD Toolbox           |
|  \\    /   O peration     | Version:  v2012                                 |
|   \\  /    A nd           | Website:  www.openfoam.com                      |
|    \\/     M anipulation  |                                                 |
\*---------------------------------------------------------------------------*/
FoamFile
{
    version     2.0;
    format      ascii;
    class       surfaceVectorField;
    location    "850";
    object      Uf_0;
}
// * * * * * * * * * * * * * * * * * * * * * * * * * * * * * * * * * * * * * //

dimensions      [0 1 -1 0 0 0 0];


internalField   nonuniform List<vector> 
14470
(
(0.958987 -0.0131918 -2.29158e-21)
(0.957063 -0.0128234 -6.48058e-22)
(0.958562 -0.0110872 -2.28038e-20)
(-0.211505 -0.0325576 8.93328e-20)
(-0.22113 -0.0307519 -2.15774e-19)
(0.991106 -0.00652374 -1.00162e-20)
(0.991433 -0.00699609 6.01309e-21)
(0.990772 -0.00722609 5.57988e-21)
(-0.0396936 0.150724 0)
(-0.0340236 0.152921 0)
(-0.0360941 0.159065 -2.51005e-20)
(0.999947 -6.10947e-05 0)
(0.999941 -2.35827e-05 4.24772e-21)
(0.999903 -6.00174e-05 -5.754e-21)
(1.20542 -0.133037 -3.90757e-20)
(1.20901 -0.134245 -1.99695e-20)
(1.20555 -0.138102 -4.34219e-20)
(1.05942 -0.253949 -1.45768e-20)
(1.06613 -0.246307 1.20184e-20)
(1.0722 -0.256395 1.58473e-20)
(-0.076092 0.0217346 -7.48195e-20)
(-0.06987 0.0228903 0)
(-0.099873 0.0219021 0)
(1.01966 -0.044204 1.69464e-21)
(1.02106 -0.0454424 3.30537e-22)
(1.01896 -0.0460362 1.58326e-21)
(0.999909 -0.00143008 -2.09811e-22)
(0.999912 -0.00127977 5.55327e-22)
(0.99993 -0.00131038 5.38336e-22)
(0.999868 -0.00154433 -6.68137e-22)
(0.999905 -0.00159753 -5.72802e-22)
(1.00192 -0.0107272 2.32647e-21)
(1.00181 -0.0102266 2.24213e-21)
(1.00154 -0.0105315 -1.47036e-21)
(-0.0169728 0.0690836 4.9836e-20)
(-0.0415312 0.0755914 -1.53107e-20)
(-0.0379397 0.0703313 7.54449e-20)
(1.02099 -0.0276856 -1.22731e-22)
(1.02052 -0.0265481 -2.22849e-21)
(1.02198 -0.0268738 2.71943e-21)
(1.09332 -0.010649 -1.58505e-21)
(1.09659 -0.0104847 -8.44059e-21)
(1.09435 -0.00766754 -8.64475e-21)
(1.12721 -0.121063 -2.16354e-20)
(1.13158 -0.125489 2.45887e-20)
(1.1257 -0.12749 -9.42567e-21)
(0.993234 -0.00929145 0)
(0.993141 -0.0097995 8.39188e-21)
(0.99367 -0.00954438 0)
(-0.0672357 -0.0222902 -2.09641e-20)
(-0.0651541 -0.018243 0)
(-0.0634016 -0.0263672 -3.65594e-20)
(1.02001 -0.00599111 -4.33369e-22)
(1.01994 -0.00551999 0)
(1.02042 -0.00577867 -2.96755e-24)
(1.0266 -0.0120323 2.01271e-23)
(1.02749 -0.0118168 -3.77114e-22)
(1.02653 -0.011267 -1.00033e-22)
(0.999991 -3.90812e-05 4.48094e-21)
(0.999991 -4.80182e-05 9.08553e-21)
(-0.0489365 0.193893 -2.57389e-20)
(-0.0468196 0.206836 5.84438e-20)
(-0.0402572 0.198915 1.30575e-20)
(-0.0561973 0.0182196 -1.27764e-20)
(-0.0897239 0.0197753 -2.62007e-20)
(0.00651908 0.0664282 0)
(0.0120897 0.0602937 0)
(0.909178 -0.0522685 6.53209e-21)
(0.914454 -0.0515226 -8.61576e-21)
(0.910707 -0.0464902 -1.59271e-20)
(0.999602 -0.00338972 -6.43973e-22)
(0.999662 -0.00366125 1.23546e-21)
(0.999692 -0.00329021 1.32988e-21)
(1.00002 -0.000326203 2.60057e-21)
(1.00002 -0.00037166 5.20583e-21)
(1.00004 -0.000465568 1.69501e-21)
(1.0197 -0.00612614 2.53376e-22)
(1.02014 -0.00640299 7.42968e-22)
(1.11908 -0.187151 2.86924e-20)
(1.1262 -0.187719 -2.94807e-20)
(1.12184 -0.194635 1.0945e-20)
(-0.21039 -0.00834222 2.90253e-20)
(-0.212099 -0.00826441 -2.02767e-20)
(-0.23436 -0.00829386 9.86782e-20)
(1.24244 -0.162149 0)
(1.22473 -0.156571 3.00549e-20)
(1.22891 -0.164815 0)
(0.995963 -0.00380674 -5.15707e-21)
(0.995819 -0.00349749 1.27414e-20)
(0.99559 -0.00401819 5.40232e-21)
(0.996342 -0.00973354 -9.10156e-21)
(0.996076 -0.0102065 -6.23334e-22)
(0.996492 -0.0102797 -2.53196e-21)
(1.00623 -0.00073056 -2.47813e-21)
(1.00591 -0.0007237 -1.17209e-21)
(1.0057 -0.00041704 -5.64801e-21)
(1.09559 -0.0589948 1.6799e-20)
(1.09315 -0.060814 8.3652e-21)
(1.09628 -0.0618826 -6.03432e-21)
(1.084 -0.0148073 8.66587e-21)
(1.08214 -0.0167134 1.48578e-20)
(1.0809 -0.0144121 1.7003e-20)
(0.913678 0.0122182 -8.50975e-21)
(0.910322 0.0143476 3.74697e-20)
(0.910209 0.00928358 -9.61623e-20)
(-0.13937 0.0587878 4.36667e-22)
(-0.133748 0.0607602 -2.44211e-20)
(-0.135105 0.0530723 -6.69489e-20)
(1.0734 -0.104527 9.98389e-21)
(1.0704 -0.101272 4.0898e-21)
(1.07508 -0.100374 1.21663e-22)
(1.11106 -0.186973 1.67949e-20)
(1.1152 -0.180669 1.77279e-20)
(0.643366 -0.03642 -2.75507e-20)
(0.644603 -0.0404541 5.92858e-20)
(0.500511 -0.0208402 -2.27863e-20)
(-0.0728611 -0.0092316 3.12416e-20)
(-0.0679885 -0.00232926 2.74663e-20)
(-0.0832404 -0.00600695 1.29706e-22)
(1.00001 -0.000210876 -3.86895e-21)
(1.00002 -0.000309687 -1.61474e-22)
(0.991924 -0.000180957 6.25884e-21)
(0.991432 -0.000433916 -6.24574e-21)
(0.991519 0.000182726 -3.06412e-21)
(0.996071 0.000325744 8.54103e-21)
(0.996371 0.000247538 3.59755e-21)
(0.996356 0.000616205 3.93433e-21)
(-0.154972 0.00905604 7.9235e-21)
(-0.159994 0.00948401 -3.8308e-20)
(-0.150408 0.0145844 -3.97498e-20)
(0.999989 -0.000237495 -4.584e-21)
(1 -0.000119924 -4.63618e-21)
(1 -0.000122096 3.81325e-22)
(1.03763 -0.0100617 2.00303e-21)
(1.0371 -0.00911771 9.48257e-22)
(1.03851 -0.00936793 5.0084e-22)
(0.993355 -0.00862693 -5.6758e-21)
(0.992773 -0.00894508 0)
(1.0992 -0.056991 -1.3638e-20)
(1.09533 -0.0555596 8.07154e-21)
(1.00651 -0.00101297 0)
(1.00658 -0.000680663 -4.00358e-21)
(1.10795 -0.088267 -3.22955e-21)
(1.10992 -0.0924626 -1.26924e-20)
(1.11224 -0.0873102 -1.03885e-20)
(0.999975 -0.000351752 -5.91659e-21)
(0.999966 -0.000344188 5.3119e-21)
(0.880587 -0.10741 2.26696e-20)
(0.889923 -0.106792 -1.24698e-20)
(0.886253 -0.116404 0)
(-0.0459651 0.141136 -2.62661e-20)
(-0.0480285 0.147907 0)
(1.00216 -0.00978956 1.56477e-21)
(1.00204 -0.00932354 -4.48198e-21)
(1.00238 -0.00954734 -5.22514e-21)
(1.18619 -0.0737633 -2.35936e-20)
(1.18893 -0.0701164 0)
(1.18434 -0.0692962 1.67922e-20)
(1.03683 -0.0105458 2.3855e-21)
(1.0381 -0.0108697 8.66176e-22)
(0.999998 -0.000119221 -5.42358e-21)
(0.896331 -0.00811198 -1.22447e-20)
(0.89109 -0.00635019 -9.54323e-21)
(0.896038 -0.0023541 4.11175e-20)
(0.794402 -0.295121 -7.82232e-22)
(0.810708 -0.304946 -1.79791e-20)
(0.786432 -0.323191 -3.1079e-20)
(0.992902 -0.00721843 5.59151e-21)
(0.992608 -0.00680609 1.81369e-23)
(0.993193 -0.00665245 -1.29508e-21)
(1.12801 -0.0351235 -8.65287e-21)
(1.1244 -0.0380015 -5.53366e-21)
(1.12426 -0.0332138 -1.09726e-20)
(1.00294 -0.00146154 4.81742e-21)
(1.00315 -0.00137134 0)
(1.00318 -0.00165685 -3.97885e-21)
(1.01832 -0.0428813 -8.52563e-24)
(1.02013 -0.0425355 -2.31105e-21)
(-0.154165 -0.000340712 5.85436e-20)
(-0.14582 -0.000966669 5.57616e-20)
(1.05691 -0.0631919 -2.32649e-21)
(1.05418 -0.0626232 -4.46559e-21)
(1.05523 -0.0656754 -5.42153e-21)
(1.08581 -0.0128385 -3.50072e-21)
(1.0872 -0.0104946 -2.79439e-21)
(1.08413 -0.0102543 3.06224e-21)
(-0.0447063 -0.00776547 2.69113e-20)
(-0.0352503 -0.00590426 3.27134e-20)
(-0.0263469 -0.00836493 -3.91175e-20)
(0.976724 -0.00943692 5.14128e-21)
(0.975481 -0.00897911 4.63509e-21)
(0.976714 -0.00830488 7.23382e-21)
(0.595596 0.0596657 -1.76049e-19)
(0.576772 0.0739976 -2.0647e-20)
(0.573827 0.046291 -1.54902e-19)
(-0.114666 0.0233481 0)
(-0.0928782 0.0253149 -5.29675e-20)
(-0.112507 0.0237834 -3.65926e-20)
(0.43009 -0.0241859 -1.54597e-20)
(0.320995 -0.0414037 -1.52215e-20)
(0.386999 -0.0227685 -2.53145e-20)
(0.0119815 -0.000143357 0)
(-0.0205182 0.00158101 5.00388e-20)
(0.00647499 0.0022402 0)
(0.999986 -0.000444105 0)
(0.999981 -0.000473514 0)
(0.999992 -0.000609759 6.10739e-21)
(0.777111 -0.111954 1.80619e-20)
(0.790591 -0.119763 -4.74181e-20)
(0.789551 -0.104144 -3.40836e-20)
(0.598372 -0.0466889 -2.86242e-22)
(0.447323 -0.0272225 -7.25059e-21)
(0.465833 -0.0315187 1.12129e-20)
(0.993924 -0.00347021 2.89171e-21)
(0.993659 -0.00390265 5.57879e-21)
(0.994121 -0.00377847 2.81183e-21)
(0.999956 -0.000184764 -4.95684e-21)
(0.99996 -0.000207746 5.17004e-21)
(0.999982 -0.000136252 9.62135e-21)
(0.766352 -0.11758 5.87553e-20)
(0.765766 -0.100959 3.32708e-20)
(-0.0694751 -0.026312 4.61396e-20)
(-0.0706201 -0.0197894 -5.72921e-20)
(1.1234 -0.117776 0)
(1.1286 -0.115858 0)
(0.968312 -0.0717178 -1.68094e-21)
(0.97132 -0.0738122 5.4009e-21)
(0.972247 -0.070152 9.44533e-21)
(1.08712 -0.0152559 -9.58317e-21)
(1.18808 -0.22316 -9.31415e-21)
(1.18234 -0.227724 2.66651e-20)
(1.18285 -0.218894 2.81855e-20)
(0.999952 -0.000160139 -5.80455e-22)
(0.999923 -0.000225749 4.3464e-22)
(1.17804 -0.0357825 4.65298e-20)
(1.17338 -0.0358399 -1.8421e-21)
(1.17587 -0.0316189 3.4261e-20)
(-0.144773 0.0573106 4.21354e-20)
(-0.142435 0.0643615 6.54686e-20)
(0.79169 -0.275608 2.34266e-20)
(0.769117 -0.292736 7.09803e-20)
(-0.0581643 0.167228 1.35804e-20)
(-0.0528964 0.172817 6.68052e-20)
(-0.0563918 0.162853 -6.22168e-20)
(1.25503 -0.265073 6.32588e-20)
(1.25791 -0.255965 -1.75607e-20)
(1.25356 -0.257277 5.41827e-20)
(1.26052 -0.277134 1.86062e-20)
(1.2421 -0.268061 1.99514e-20)
(1.06243 -0.149015 -6.05779e-21)
(1.0666 -0.15611 8.82852e-21)
(1.06944 -0.148743 0)
(-0.0760336 -0.0178361 -3.74189e-20)
(-0.062162 -0.0126647 5.54869e-23)
(0.994535 -0.0132139 3.35838e-21)
(0.994681 -0.0138436 6.82907e-21)
(0.995109 -0.0132875 3.09419e-21)
(0.01844 0.00141898 3.09378e-20)
(0.0542332 -0.000459597 0)
(1.11579 -0.139303 -1.59314e-20)
(1.1103 -0.140159 2.58453e-20)
(1.11254 -0.134678 1.19624e-20)
(1.03548 -0.080437 1.79914e-21)
(1.03814 -0.0823539 -1.42739e-21)
(1.03483 -0.0837871 5.70607e-22)
(0.999979 -5.56114e-05 6.96712e-24)
(0.999947 -9.77688e-05 0)
(-0.109063 0.102705 -2.30893e-22)
(-0.111599 0.100314 -1.7528e-20)
(-0.103658 0.10565 6.61166e-20)
(1.10393 -0.0895858 2.72193e-20)
(1.10554 -0.0850344 1.28447e-20)
(-0.128349 -0.140144 -4.32475e-20)
(-0.143297 -0.152963 3.88095e-20)
(-0.122726 -0.16088 -5.97166e-20)
(0.99239 0.000161147 1.27417e-21)
(0.992373 -0.000407298 -4.79331e-21)
(-0.0631313 0.0138151 0)
(-0.0921235 0.0133713 3.95798e-20)
(-0.0751703 0.0122391 -7.05181e-20)
(0.328451 -0.00806408 9.30138e-20)
(0.241073 0.00237042 -1.66533e-20)
(0.222545 0.00561873 -1.31886e-20)
(0.573093 -0.0113868 7.13403e-21)
(0.491371 -0.0238209 7.5953e-21)
(1.005 -0.00816048 -4.168e-21)
(1.00493 -0.00850211 -1.75486e-21)
(1.00465 -0.00814165 -6.44033e-21)
(0.993707 -0.0031516 0)
(0.994187 -0.00304108 -7.31452e-21)
(0.999993 -2.18923e-05 -5.29877e-21)
(1.00004 -0.000729945 0)
(1.00006 -0.000717586 0)
(1.00007 -0.000867193 -7.59272e-21)
(-0.0507334 0.181838 2.58461e-20)
(-0.0547907 0.186589 -2.52134e-20)
(0.11683 -0.0769224 -6.51869e-20)
(0.0831092 -0.0833038 1.08117e-19)
(0.0825523 -0.0445925 3.27826e-19)
(-0.208423 -0.0134039 2.50317e-20)
(-0.210584 -0.0131897 -3.60514e-22)
(-0.230956 -0.0124261 3.13434e-20)
(0.977922 -0.00968849 8.89675e-21)
(0.976894 -0.0103655 -3.1747e-21)
(0.998794 -0.00180685 3.58096e-21)
(0.998748 -0.00210073 9.62084e-21)
(0.998626 -0.00198304 -1.04428e-20)
(1.07725 0.00328782 -1.25654e-20)
(1.07525 0.00474841 4.95382e-21)
(1.07823 0.00623039 1.26613e-20)
(0.99644 -0.000382868 4.41198e-21)
(0.9967 -0.00039556 -3.42971e-22)
(0.996466 -0.000703849 -1.05875e-21)
(-0.0524868 0.132443 -5.39014e-20)
(-0.059623 0.130482 -4.04597e-20)
(-0.0581245 0.123973 8.11147e-20)
(0.995827 0.000907328 0)
(0.995688 0.000579012 -6.40551e-21)
(0.995496 0.000820829 7.95983e-21)
(-0.111896 0.0172453 4.3467e-20)
(-0.113707 0.016871 3.01771e-20)
(-0.133933 0.0202991 0)
(1.18299 -0.0364318 -7.19765e-21)
(1.18013 -0.040888 2.18546e-20)
(0.166273 0.00036573 1.12722e-20)
(0.114709 -0.00377086 3.24736e-20)
(0.131205 -0.00135678 9.84991e-20)
(1.13024 -0.0783161 -8.59478e-21)
(1.13371 -0.0756955 -9.26701e-21)
(1.12969 -0.0737415 -3.6582e-21)
(1.0802 -0.0190631 1.58494e-21)
(1.08359 -0.0195958 4.38245e-21)
(0.99586 0.00124005 0)
(0.996109 0.00103388 -4.63505e-21)
(1.12655 -0.137343 1.5748e-20)
(1.13282 -0.137343 -1.19172e-20)
(1.12953 -0.143557 1.41084e-20)
(-0.2111 -0.0078755 5.78424e-20)
(-0.188591 -0.00781389 0)
(1.2359 -0.0235334 9.52305e-21)
(1.22534 -0.0241156 -4.6209e-20)
(1.23654 -0.0284179 -2.94326e-20)
(1.23386 -0.0200586 6.67402e-20)
(1.23501 -0.0159797 8.10207e-20)
(1.0707 -0.0383873 1.83805e-21)
(1.07116 -0.0358092 0)
(1.06874 -0.0368921 -3.63696e-22)
(1.0067 -0.0169698 7.45506e-21)
(1.00731 -0.0169669 -2.54682e-23)
(1.00681 -0.0163898 -2.35025e-21)
(0.961159 -0.0131564 2.10136e-20)
(0.959761 -0.0148965 2.42547e-20)
(1.05198 -0.0572678 2.1456e-21)
(1.04945 -0.0570386 3.08246e-21)
(1.05087 -0.0548631 -9.91236e-22)
(1.08998 -0.0610589 -4.95814e-21)
(1.08761 -0.0585882 -7.37413e-21)
(1.08626 -0.0618711 3.24827e-21)
(1.12734 -0.263079 -1.00977e-20)
(1.1184 -0.26666 1.1385e-20)
(1.12783 -0.274674 -2.85083e-20)
(1.23789 -0.117367 -3.17236e-20)
(1.21725 -0.103665 0)
(1.24988 -0.11602 0)
(1.07967 0.0022466 -1.14758e-20)
(1.07649 0.000770733 7.21259e-22)
(0.999995 -0.000435207 -1.31814e-21)
(0.999993 -0.000285886 4.34485e-21)
(1.14179 -0.120281 2.72337e-20)
(1.14611 -0.119556 1.796e-20)
(1.14424 -0.124531 -6.42972e-21)
(-0.068863 -0.0259379 -2.4334e-20)
(-0.0695801 -0.0270131 2.17553e-20)
(-0.0697534 -0.0219413 1.81012e-20)
(1.09143 -0.0638369 -4.24978e-22)
(0.981057 -0.018854 0)
(0.981313 -0.020259 0)
(0.982349 -0.0191496 4.49939e-21)
(1.16196 -0.0389135 5.2252e-20)
(1.16447 -0.0352789 1.92722e-20)
(1.16001 -0.0350205 2.5057e-20)
(-0.149204 0.00867963 4.58787e-20)
(-0.143645 0.00770707 0)
(-0.141396 0.0133029 0)
(1.06253 -0.428678 1.76382e-20)
(1.04895 -0.43001 -1.28461e-20)
(1.05294 -0.44578 -5.99955e-20)
(0.995933 0.00155768 0)
(0.996206 0.00168556 2.30339e-23)
(0.0263179 0.00272111 1.95028e-21)
(0.00364982 0.00099699 2.17832e-20)
(1.00618 -0.0170486 4.30436e-21)
(1.00668 -0.0175707 -7.97197e-22)
(0.995599 0.00147215 6.85287e-21)
(0.998617 -0.00403349 7.36549e-21)
(0.998773 -0.00381822 2.56264e-21)
(0.998663 -0.00359805 3.39431e-21)
(0.0906732 -0.0613061 2.16847e-20)
(0.3055 -0.116476 9.07426e-20)
(0.170101 -0.0788507 -3.23764e-20)
(1.03256 -0.0782557 1.19879e-21)
(1.0357 -0.0770304 1.58484e-21)
(0.999566 -0.00321545 2.35677e-22)
(0.999519 -0.00351339 -1.45638e-21)
(0.984186 -0.00167098 -8.7026e-21)
(0.984386 -0.00243694 -6.74254e-21)
(0.983543 -0.00224754 -1.02861e-20)
(1.25512 -0.289519 -2.49565e-20)
(1.23973 -0.287632 -5.06685e-20)
(1.24691 -0.29801 -9.05309e-22)
(1.13673 -0.122306 5.33956e-20)
(1.13574 -0.129316 4.40248e-20)
(0.993203 -0.00765261 -3.51298e-22)
(0.992622 -0.00784614 -5.35062e-21)
(1.25337 -0.160009 0)
(1.25967 -0.166929 -4.96788e-20)
(0.981836 -0.0106751 -1.48101e-20)
(0.98279 -0.0104367 8.79921e-22)
(0.982588 -0.0114821 9.43582e-21)
(1.16896 -0.0357493 -4.57034e-20)
(1.17118 -0.0399627 -2.26958e-20)
(1.07282 -0.0399194 1.70454e-21)
(1.07026 -0.0408604 3.2908e-21)
(1.02678 -0.0126942 -2.46175e-22)
(1.02596 -0.0122388 1.33208e-22)
(0.563159 -0.366226 -8.60876e-21)
(0.572761 -0.395198 0)
(0.536324 -0.385958 0)
(1.04668 -0.0226555 -2.22007e-21)
(1.04657 -0.0241061 0)
(1.04504 -0.0232694 1.29264e-21)
(0.731718 -0.0693967 3.40544e-20)
(0.762024 -0.0801774 2.2083e-20)
(-0.14769 -0.167947 3.64621e-20)
(-0.13629 -0.178093 -4.62508e-20)
(-0.132428 -0.189598 -2.12295e-20)
(1.0493 -0.0280975 -8.76097e-21)
(1.04868 -0.0297877 -6.55472e-21)
(1.04719 -0.0284658 -9.05859e-22)
(1.00505 -0.00780966 4.32109e-21)
(1.00505 -0.00746668 -2.82035e-21)
(1.00473 -0.0074801 -2.58624e-21)
(0.999915 -0.00112725 -4.16122e-21)
(0.999935 -0.00099801 7.30947e-22)
(0.999926 -0.000966165 -4.10703e-21)
(0.980754 -0.017956 0)
(0.97976 -0.0188191 -5.27283e-21)
(-0.172569 -0.0217521 2.87335e-20)
(-0.15175 -0.0244635 4.65506e-20)
(-0.179305 -0.0194678 0)
(0.595737 -0.309249 0)
(0.405769 -0.227058 0)
(0.291175 -0.178927 0)
(-0.201841 0.0407515 -7.4282e-20)
(-0.196702 0.0462288 2.99237e-20)
(-0.199277 0.0427233 8.91095e-20)
(1.00189 -0.0113214 9.64474e-22)
(1.00227 -0.0109963 -1.89687e-21)
(1.20084 -0.131624 4.15773e-20)
(1.20467 -0.127952 2.15089e-20)
(0.96041 -0.358134 -3.87874e-22)
(0.976289 -0.348163 -5.64726e-21)
(0.959751 -0.340047 -4.94677e-21)
(0.549383 -0.470403 9.05841e-20)
(0.512113 -0.504504 4.86845e-20)
(0.512076 -0.443189 -8.2043e-20)
(0.993358 -0.00438183 7.59927e-21)
(0.993611 -0.00473819 -1.53597e-21)
(0.99305 -0.00487121 1.66131e-20)
(1.06026 -0.0586337 5.1576e-21)
(1.05846 -0.060941 -2.7778e-21)
(1.05756 -0.0577271 1.53831e-21)
(-0.0245129 0.0117452 0)
(-0.0444497 0.0135701 -2.99321e-20)
(-0.151557 0.00303876 1.00022e-19)
(1.18544 -0.0335428 -2.37995e-20)
(1.18757 -0.0378531 3.70429e-23)
(0.995843 -7.75778e-06 4.39975e-21)
(0.995808 0.000345903 -3.24831e-21)
(0.997115 0.000108076 -3.59243e-21)
(0.997317 0.000346616 -3.84263e-21)
(0.997336 7.04114e-05 2.65612e-22)
(1.00535 -0.00813516 2.09474e-21)
(0.239861 -0.000246797 -1.77532e-20)
(0.2174 0.00189782 3.41633e-20)
(-0.11812 0.0222886 0)
(-0.132628 0.0208333 0)
(0.841281 -0.400249 -7.23948e-21)
(0.958374 -0.472224 4.53627e-21)
(-0.0993069 -0.124224 -5.68413e-21)
(-0.133582 -0.121101 -4.05719e-20)
(1.01724 -0.0415745 -8.45937e-23)
(1.01617 -0.0401969 0)
(1.01789 -0.0399214 0)
(-0.167751 0.332479 7.46338e-20)
(-0.0704932 0.368249 6.88223e-20)
(-0.206878 0.382791 5.41461e-20)
(0.393226 -0.0996489 -3.86215e-20)
(0.370844 -0.113449 0)
(0.399595 -0.125261 1.05985e-19)
(0.906885 -0.0135789 -3.31806e-20)
(0.905423 -0.00962262 -2.41762e-21)
(0.910093 -0.0101 9.19543e-21)
(1.04127 -0.00630652 -4.68498e-22)
(1.04061 -0.00713547 2.51986e-21)
(1.03995 -0.00622392 4.72902e-21)
(0.952678 -0.0501957 -2.77334e-20)
(0.955186 -0.0483883 1.11868e-20)
(0.952199 -0.046771 -1.31021e-20)
(0.19524 0.149252 1.68554e-20)
(0.161124 0.14307 -1.02006e-19)
(0.186267 0.110624 -1.07954e-19)
(1.01709 -0.00591578 7.38514e-22)
(1.01755 -0.00604189 -5.18932e-22)
(1.01727 -0.00627005 -9.00615e-23)
(0.992794 -0.0101967 2.83083e-21)
(0.993262 -0.010341 7.42229e-22)
(0.999619 -0.000492819 1.16398e-21)
(0.999647 -0.000565591 -1.64593e-21)
(0.999709 -0.000457027 -5.36652e-21)
(0.974236 -0.00903614 -1.15458e-20)
(0.972856 -0.00917695 -7.96169e-21)
(0.973823 -0.0103312 5.68167e-21)
(1.0295 -0.0110181 9.71863e-22)
(1.02998 -0.0106427 1.63288e-22)
(1.02923 -0.010255 6.73663e-22)
(1.10126 -0.0518897 -9.19283e-21)
(1.1018 -0.0554341 -2.88047e-20)
(1.10499 -0.053545 3.03031e-21)
(1.08219 -0.034805 -8.19737e-22)
(1.08437 -0.0367655 -1.56158e-20)
(1.08457 -0.0337091 -1.63416e-20)
(-0.0770649 0.0519754 4.82762e-20)
(-0.0697994 0.0582987 7.04811e-21)
(-0.0683302 0.0479734 2.64595e-20)
(0.980853 -0.000165284 -3.44253e-21)
(0.979968 -0.000685385 -8.25642e-21)
(0.980987 -0.00109177 -4.08395e-21)
(1.06709 -0.0936826 -5.61094e-21)
(1.0657 -0.090393 6.50011e-21)
(1.06327 -0.0933745 6.15548e-21)
(1.04972 -0.0265663 -2.86975e-21)
(1.05112 -0.0277876 5.629e-22)
(0.963727 -0.0275641 9.28567e-21)
(0.964255 -0.0252379 1.01189e-20)
(0.965878 -0.0271582 1.37751e-21)
(0.771404 -0.497484 0)
(0.735666 -0.500716 0)
(0.762287 -0.538965 0)
(1.13805 -0.117462 5.79303e-21)
(-0.0660431 -0.0237062 -3.08901e-20)
(-0.0687355 -0.0280505 6.05024e-20)
(1.01548 -0.00576453 -1.72748e-21)
(1.01529 -0.0054793 -8.76354e-22)
(1.01503 -0.00568653 -3.09347e-21)
(-0.0581134 -0.00772739 0)
(-0.0502804 -0.0105852 -1.24233e-20)
(0.965588 -0.069291 6.91807e-21)
(0.964289 -0.0729541 -2.35082e-21)
(1.13775 0.0241644 3.44721e-21)
(1.14259 0.0256994 4.3621e-22)
(1.13818 0.0290227 2.70728e-20)
(1.02021 -0.0284192 2.57631e-21)
(1.02165 -0.0286027 -9.02281e-22)
(1.13683 -0.260244 -1.07398e-20)
(1.12905 -0.253702 -1.89848e-20)
(0.998933 -0.00168123 7.33446e-21)
(0.998859 -0.00157748 -8.55955e-21)
(0.730437 -0.0366021 -2.405e-20)
(0.741154 -0.0266973 1.03444e-19)
(0.722979 -0.021219 4.36428e-20)
(1.12065 -0.138084 -5.0288e-20)
(1.11857 -0.143957 -3.35132e-20)
(1.02894 -0.0113497 7.847e-23)
(1.02984 -0.011695 1.04147e-21)
(0.336939 0.492661 2.8508e-20)
(0.386919 0.47344 1.2579e-20)
(0.382055 0.528027 -3.20926e-21)
(-0.209142 0.0218087 -4.17903e-20)
(-0.214797 0.0166167 -1.72191e-19)
(-0.20874 0.0141505 -6.09159e-20)
(1.05791 -0.150841 9.72224e-22)
(1.05932 -0.145118 -5.24255e-21)
(0.994063 -0.0156465 2.49057e-21)
(0.993886 -0.0149166 -6.04298e-21)
(0.993299 -0.015579 2.3986e-21)
(1.14674 -0.0776338 1.90574e-20)
(1.1429 -0.0795177 7.32049e-21)
(1.14706 -0.0825785 2.03371e-20)
(-0.179067 -0.042489 3.33851e-20)
(-0.188891 -0.0290547 7.22712e-20)
(-0.199611 -0.0363954 1.03412e-19)
(0.743586 -0.0635145 3.47583e-20)
(0.736179 -0.049662 -1.14269e-19)
(0.753289 -0.0548054 -2.40729e-20)
(0.730946 -0.0718149 6.03899e-20)
(0.747556 -0.0755277 5.44541e-20)
(-0.0783123 0.0870602 -1.33112e-20)
(-0.0859633 0.0858093 8.86759e-21)
(-0.080317 0.0944737 2.7295e-20)
(1.20459 -0.0306948 -1.11312e-20)
(1.20447 -0.0267844 1.98463e-20)
(1.20992 -0.029936 0)
(1.13671 0.0193993 -1.65872e-20)
(1.13304 0.0229287 -1.5682e-20)
(1.13109 -0.0333953 1.95624e-20)
(1.13114 -0.0376677 1.08731e-20)
(0.412274 -0.0817724 -2.52534e-21)
(0.382197 -0.0725694 -3.72967e-20)
(1.03297 -0.00495543 6.81672e-22)
(1.03341 -0.0043522 -4.70816e-22)
(1.03249 -0.00427697 9.64003e-23)
(-0.132649 0.247203 -2.16005e-20)
(-0.186424 -0.0144239 1.02975e-19)
(-0.207551 -0.0135599 0)
(1.01668 -0.00580518 1.61195e-21)
(1.01698 -0.00561667 0)
(0.999741 -0.000220772 1.59406e-22)
(0.999729 -0.000150989 -5.63791e-21)
(0.999805 -0.000154817 -1.1526e-23)
(0.629008 -0.0307391 -3.33872e-21)
(0.781984 -0.0489136 0)
(0.985642 -0.0137617 -1.32635e-21)
(0.986511 -0.0143314 3.35452e-21)
(0.98545 -0.0149581 -1.80689e-21)
(1.00004 -0.000649254 -5.41925e-21)
(1.00004 -0.000777919 0)
(1.19775 -0.0608979 -2.16689e-20)
(1.1994 -0.0649831 -4.00547e-20)
(1.19434 -0.0631204 1.55066e-20)
(1.20091 -0.0688137 -2.736e-20)
(1.19852 -0.0719821 2.15355e-21)
(1.20298 -0.0732493 2.64076e-21)
(1.01657 -0.0431197 -8.5345e-23)
(1.0618 -0.0568004 1.82848e-21)
(1.06261 -0.060032 3.38644e-22)
(1.06865 -0.0970473 -8.6955e-21)
(1.071 -0.0934197 -1.07059e-20)
(0.928535 -0.169579 1.34096e-21)
(0.921107 -0.161326 -5.49338e-20)
(0.918433 -0.172331 -1.47047e-20)
(1.06731 -0.0531663 -6.40296e-21)
(1.06552 -0.051298 -1.18762e-20)
(1.068 -0.0506028 -1.20631e-20)
(0.993083 -0.00405336 -4.03371e-21)
(1.03346 -0.186815 2.47448e-21)
(1.03807 -0.182774 1.6214e-21)
(1.03121 -0.180249 -2.37388e-21)
(-0.0362636 0.0570442 3.32613e-20)
(-0.027932 0.0540461 -4.24411e-20)
(-0.0357994 0.0474976 -2.17812e-20)
(1.02819 -0.0116332 -1.98008e-22)
(1.02801 -0.0108263 -4.0079e-22)
(-0.207093 0.0333104 3.94092e-20)
(-0.204497 0.0375629 -3.34753e-20)
(-0.198294 0.0390131 -1.31258e-20)
(0.999955 -0.000460901 -2.56731e-21)
(0.999978 -0.000348148 -5.43361e-21)
(0.999831 -0.00188787 -5.81427e-22)
(0.999841 -0.00168505 2.18151e-21)
(0.999778 -0.00186752 5.09132e-21)
(1.01336 -0.000954342 6.84309e-22)
(1.01316 -0.00118032 -5.34377e-22)
(1.01355 -0.00118559 2.31285e-21)
(-0.0441386 0.133826 3.9536e-20)
(0.993344 0.00156587 7.51596e-22)
(0.992918 0.00135312 -6.15166e-21)
(0.993293 0.0011183 -1.27867e-20)
(1.2581 -0.284842 1.75866e-20)
(1.24779 -0.29332 -1.95518e-20)
(-0.0759854 0.00593535 1.25473e-20)
(-0.0624223 0.00400865 -4.82379e-22)
(-0.0780508 0.00755047 -3.14186e-20)
(1.00043 -0.00268019 5.12329e-22)
(1.00039 -0.00271679 0)
(1.00049 -0.00290412 3.04245e-21)
(0.999083 -0.0015565 8.97249e-21)
(0.999015 -0.00179432 6.59476e-21)
(1.17677 -0.20428 0)
(1.23059 -0.205824 0)
(1.2569 -0.215384 0)
(1.01286 -0.000583226 1.53242e-21)
(1.01338 -0.000590202 -1.67472e-21)
(0.9999 -0.000378144 0)
(0.999905 -0.000422244 5.47921e-21)
(0.999858 -0.000484164 5.72915e-21)
(1.01444 -0.00069957 -1.18938e-21)
(1.01416 -0.000723666 8.22265e-23)
(1.01315 -0.000438034 1.59412e-22)
(-0.0776044 0.00463625 -2.9581e-20)
(-0.0866747 0.00729264 3.61233e-20)
(0.57925 -0.341556 -1.1567e-20)
(0.545737 -0.330811 -5.22092e-20)
(0.922718 -0.0472132 6.83876e-21)
(0.926681 -0.0449924 1.4598e-20)
(0.926638 -0.049807 2.02428e-20)
(0.836659 -0.487952 -6.40094e-21)
(0.846828 -0.458159 5.26913e-22)
(0.86912 -0.479993 -6.62208e-21)
(1.18361 -0.0771228 4.2204e-21)
(1.18092 -0.0806174 1.95187e-20)
(1.17902 -0.076159 2.91472e-20)
(-0.160786 -0.145412 6.21021e-20)
(-0.0644953 0.257618 4.36917e-20)
(-0.0488214 0.252207 -2.541e-20)
(-0.0652448 0.233115 3.33027e-20)
(1.04829 -0.031584 2.05973e-23)
(1.05048 -0.0311305 1.62912e-21)
(-0.0687215 -0.0789017 -5.43193e-20)
(-0.0347003 -0.0951056 2.25895e-20)
(-0.103722 -0.0823452 -5.29879e-20)
(0.999994 -0.000362879 -7.16723e-21)
(0.999967 -0.000486911 4.11265e-21)
(0.999979 -0.000334628 3.87233e-21)
(-0.145042 -0.0468073 -4.92561e-20)
(-0.167769 -0.0573989 -1.02588e-19)
(0.448734 -0.947892 2.84082e-20)
(0.198223 -0.934442 0)
(0.450601 -1.07485 -5.07168e-21)
(-0.156573 0.068832 1.47778e-20)
(-0.162486 0.0636506 -2.16502e-20)
(-0.161851 0.0675574 -2.69614e-20)
(-0.115586 0.0181061 2.28459e-20)
(1.20239 -0.0316835 -2.25406e-20)
(1.20498 -0.034038 -9.62102e-21)
(1.07139 -0.0334127 0)
(1.07349 -0.0347356 -2.62316e-22)
(1.11982 -0.114259 -1.4031e-21)
(1.11838 -0.119264 2.21529e-20)
(1.07984 -0.036376 1.45516e-20)
(1.08001 -0.0332525 9.65019e-21)
(1.04197 -0.00545095 -2.70045e-21)
(1.04244 -0.00442493 1.56835e-21)
(1.04106 -0.00447397 2.90263e-22)
(1.05399 -0.022182 7.12474e-22)
(1.05579 -0.0225412 3.13833e-21)
(1.05497 -0.0204979 -8.33696e-22)
(0.807735 -0.4923 0)
(0.782553 -0.467124 3.13578e-22)
(0.907442 -0.0572788 -1.38756e-20)
(0.904565 -0.0516986 1.76033e-20)
(0.999122 -0.0013558 -4.39021e-21)
(0.999187 -0.00143321 7.85981e-21)
(1.00001 -0.000138179 1.37058e-23)
(1 -6.69255e-05 2.88217e-24)
(1 -7.22649e-05 -4.06982e-21)
(1.01589 -0.00589233 -1.70281e-21)
(1.0156 -0.00610042 1.22734e-21)
(1.01875 -0.000147656 -1.54192e-22)
(1.01857 -0.000225313 6.60718e-22)
(1.01905 -0.000264859 -3.35103e-22)
(1.02837 -0.0123151 3.06271e-22)
(-0.0720703 0.21253 0)
(-0.0685618 0.218048 0)
(-0.0660412 0.208165 2.31243e-20)
(1.00481 -0.00965121 -4.20447e-21)
(1.00517 -0.00963067 2.50616e-21)
(1.00483 -0.00925774 0)
(1.01942 -0.0261145 -2.61406e-21)
(1.01847 -0.0255497 1.91229e-22)
(1.0184 -0.0267643 1.94116e-22)
(1.0185 -0.000225115 -3.94807e-23)
(1.01842 -0.00024775 3.90056e-22)
(1.01898 -0.000201787 5.06946e-22)
(1.00198 -0.0100114 5.73687e-21)
(1.00233 -0.0102494 5.56508e-21)
(-0.0246529 0.00908496 -6.61899e-21)
(-0.0231495 0.0185229 3.72668e-20)
(-0.0138922 0.0137519 -2.38055e-20)
(1.07222 -0.413332 4.42669e-20)
(1.07802 -0.431341 -1.40361e-21)
(0.687633 0.104929 -6.33497e-21)
(0.690493 0.089332 6.85257e-20)
(0.670891 0.0935717 2.03694e-21)
(0.944228 -0.00847912 3.49547e-20)
(0.942427 -0.0101438 8.02674e-21)
(0.941839 -0.00691371 8.55588e-21)
(1.16425 -0.0429932 2.343e-20)
(1.15971 -0.0423168 -8.11627e-21)
(1.01647 -7.31192e-05 -4.65829e-22)
(0.711309 0.000610326 1.48878e-20)
(0.865256 0.00549493 2.37876e-20)
(0.789894 0.00172002 -2.275e-20)
(-0.00915669 -0.029445 -4.93502e-20)
(0.0509987 -0.0436928 -5.86221e-20)
(0.99244 0.000662609 5.66491e-23)
(0.992834 0.000431531 1.22516e-20)
(-0.0429171 0.00177996 9.50692e-20)
(-0.0420062 0.00132914 4.55116e-21)
(1.12207 -0.0406982 1.80819e-20)
(1.11899 -0.0434285 6.04109e-22)
(1.11823 -0.0389818 -1.17259e-21)
(0.991258 -0.000935822 -4.05034e-21)
(0.990889 -0.000622296 7.06688e-22)
(-0.187521 -0.0354929 1.7979e-21)
(0.639258 -0.0023661 3.15064e-20)
(0.996079 -0.00407652 -5.46155e-21)
(0.996265 -0.00361893 7.18675e-22)
(1.02725 -0.191612 7.73428e-22)
(1.03602 -0.19434 5.61107e-21)
(0.260363 0.406528 3.81888e-20)
(0.348103 1.15214 -5.30446e-20)
(0.969397 -0.025114 -6.45327e-21)
(0.97108 -0.0259735 -2.2577e-21)
(0.971005 -0.0240377 -3.93927e-21)
(0.827524 0.0413777 -2.20812e-20)
(0.834481 0.036513 1.43429e-20)
(0.826889 0.0326621 2.3897e-20)
(1.02036 -0.0252796 -2.61819e-21)
(0.964689 -0.0232113 3.03855e-22)
(0.96643 -0.0226402 0)
(0.964889 -0.0211579 -3.19266e-21)
(-0.0817766 -0.0716044 4.71374e-20)
(-0.103657 -0.0554644 1.33777e-20)
(-0.0495844 -0.0628358 4.35669e-21)
(0.874216 -0.169331 -1.82942e-20)
(0.880958 -0.160512 3.99712e-21)
(0.867729 -0.159374 3.14551e-20)
(0.996653 -0.00929387 -6.26832e-22)
(0.996281 -0.00919861 1.61881e-23)
(0.99529 -0.000289536 -1.53715e-21)
(0.995586 -0.000333421 5.27602e-21)
(0.995311 -0.000653312 5.04101e-21)
(0.946171 -0.00649477 -4.898e-21)
(0.946734 -0.00970764 1.52296e-20)
(1.02696 -0.364762 -8.45164e-21)
(1.01045 -0.361429 7.04001e-21)
(1.02143 -0.348753 1.0384e-21)
(0.078981 -0.139129 6.37128e-20)
(0.110945 -0.154906 4.07475e-20)
(0.0836987 -0.183427 -1.73236e-20)
(0.990781 -0.00610001 1.36055e-21)
(0.991448 -0.00598382 -8.84169e-21)
(1.00523 -0.0088316 4.64603e-21)
(1.00488 -0.00884146 4.78427e-21)
(1.03239 -0.0190307 -3.22026e-22)
(1.03268 -0.0180793 1.77544e-21)
(1.03347 -0.0192531 -2.2098e-21)
(-0.192692 -0.0176151 1.04185e-19)
(-0.168629 -0.0231602 -2.50668e-20)
(-0.0610998 -0.0509362 -9.80882e-21)
(-0.0719557 -0.0542013 0)
(-0.0437094 -0.0279641 0)
(0.0129761 -0.0311593 -1.87096e-22)
(-0.0192298 -0.0302455 -4.97868e-20)
(1.03243 -0.00549795 2.29437e-21)
(1.0319 -0.00596512 1.52133e-22)
(1.03153 -0.0053316 -1.4233e-22)
(0.881985 -0.178952 3.70119e-21)
(0.866717 -0.179627 -1.66373e-20)
(0.82949 0.0506527 -3.10546e-20)
(0.820451 0.0479588 -2.9036e-20)
(0.808829 -0.644142 -7.44955e-21)
(0.765953 -0.66407 -7.67559e-21)
(0.81745 -0.695535 -3.50218e-22)
(1.16674 -0.0839192 0)
(1.17018 -0.082699 0)
(1.17012 -0.0871705 -1.02391e-21)
(1.03358 -0.00134815 0)
(1.03418 -0.00189248 -4.99063e-23)
(1.03318 -0.00191668 1.25239e-21)
(1.03583 -0.00379408 6.93079e-22)
(1.03534 -0.00446891 -7.15505e-22)
(1.0364 -0.00453463 1.99367e-21)
(1.03205 -0.0199698 -6.34683e-22)
(1.03133 -0.0188197 1.50863e-22)
(1.11637 -0.11086 -1.16283e-20)
(1.12113 -0.109331 -1.12612e-20)
(0.985365 -0.0360148 9.42034e-23)
(0.986599 -0.0374107 -7.73332e-21)
(0.984651 -0.0378688 -6.00262e-21)
(0.0233601 -0.0211758 0)
(0.00658775 -0.0167404 -4.96945e-20)
(-0.0239697 -0.0138496 1.11279e-19)
(0.99802 -0.00149814 1.03405e-21)
(0.997883 -0.00136944 6.81331e-21)
(0.997859 -0.00171858 -8.23464e-21)
(1.00903 -0.0160908 8.16859e-22)
(1.00895 -0.0167407 -3.3448e-21)
(1.00964 -0.0166523 8.44219e-22)
(-0.181828 -0.0400779 -1.76259e-20)
(-0.193509 -0.036802 0)