/*--------------------------------*- C++ -*----------------------------------*\
| =========                 |                                                 |
| \\      /  F ield         | OpenFOAM: The Open Source CFD Toolbox           |
|  \\    /   O peration     | Version:  v2012                                 |
|   \\  /    A nd           | Website:  www.openfoam.com                      |
|    \\/     M anipulation  |                                                 |
\*---------------------------------------------------------------------------*/
FoamFile
{
    version     2.0;
    format      ascii;
    class       volVectorField;
    location    "1000";
    object      ddt0(U);
}
// * * * * * * * * * * * * * * * * * * * * * * * * * * * * * * * * * * * * * //

dimensions      [0 1 -2 0 0 0 0];


internalField   nonuniform List<vector> 
10042
(
(0.00707005 0.0164723 2.38062e-19)
(0.0178635 -0.274047 -1.31515e-17)
(-0.012508 -0.0317061 6.6295e-19)
(-0.00117915 -1.36259e-05 -4.8649e-20)
(0.0014776 6.57812e-06 2.66049e-19)
(-0.0825514 -0.0267764 -3.1235e-18)
(0.130128 -0.0194296 -3.29395e-18)
(-0.0142033 -0.0291284 2.27992e-18)
(0.000279466 -4.3623e-05 6.65381e-19)
(0.0271923 0.0245474 -1.46309e-18)
(0.0181358 0.0345159 -8.92089e-19)
(-0.00967556 -0.284727 -1.07592e-17)
(-0.00185611 -0.0201078 7.69498e-19)
(-9.66335e-05 0.000702478 7.19266e-19)
(-0.00141204 -0.000562243 -1.36471e-18)
(-0.000276361 0.000622517 -1.24808e-18)
(-0.0595266 -0.102109 -4.02996e-19)
(0.0243807 0.0304947 1.06597e-19)
(-3.75479e-06 -0.0042448 1.35684e-18)
(-0.00933853 0.00365482 -4.21746e-20)
(0.000363875 -0.020559 1.2503e-18)
(0.00409493 0.0171948 -3.04901e-19)
(0.000193257 -1.47426e-05 6.62633e-20)
(0.000968727 -0.00421214 1.73766e-18)
(0.000342772 -4.40486e-05 8.35288e-19)
(8.51293e-05 -1.41086e-06 1.22684e-19)
(0.0250187 0.0237705 -1.85667e-19)
(0.000120714 -6.22386e-05 1.14159e-18)
(-0.0728357 -0.0348925 5.01902e-18)
(-0.0112203 0.0865823 4.18922e-19)
(-0.000186961 -9.97299e-06 8.6712e-19)
(-0.0231397 -0.00595851 -4.87371e-18)
(0.000754628 -6.993e-05 1.21251e-21)
(0.00109129 -7.01084e-05 1.07063e-18)
(-0.0240453 -0.0046593 1.42311e-19)
(0.00516631 0.0416442 2.86269e-18)
(0.00108558 -7.55353e-06 4.51374e-19)
(-0.000293224 -4.77308e-06 2.01441e-18)
(0.000395798 -1.46129e-05 -4.4963e-19)
(-0.000939754 0.00217404 2.39263e-20)
(-0.0139267 0.0505747 9.45869e-18)
(0.00068182 -4.37306e-05 3.99349e-20)
(-0.0472624 -0.128276 -6.8647e-19)
(-0.0873633 -0.0313837 -1.65674e-19)
(-5.11707e-05 -0.000118488 4.58352e-19)
(-0.000864806 -4.31086e-05 -2.42788e-19)
(-9.18751e-05 7.1685e-05 1.02623e-18)
(-0.00209517 -0.000513484 5.13929e-20)
(0.0453186 -0.00564789 -1.34696e-20)
(-0.347248 -0.334344 -1.52526e-17)
(-0.0776178 -0.155281 8.00098e-19)
(-0.000290332 -4.18108e-05 -3.23514e-19)
(-0.0725852 -0.0792853 4.59398e-18)
(5.97073e-05 -0.0039688 -1.4451e-18)
(0.076661 -0.0302541 -7.50607e-18)
(0.114697 -0.0962304 4.70232e-18)
(0.00091669 -0.0185535 -1.43708e-19)
(0.00430338 0.0195921 -2.48347e-18)
(0.000835586 -0.000160553 1.03477e-18)
(-3.82372e-05 4.82249e-05 3.35853e-21)
(0.0454702 -0.000991038 -9.55866e-21)
(0.0796317 0.0027811 -4.65391e-18)
(-0.0277994 -0.112489 -2.64575e-18)
(-0.0429623 -0.0691637 -9.7429e-19)
(0.0178869 0.0137818 -2.2761e-18)
(0.00112861 0.00057547 2.16432e-19)
(-0.00870792 0.00121905 1.02056e-18)
(0.0235716 0.014491 -3.99396e-19)
(-3.06439e-05 7.99316e-05 -3.28677e-19)
(0.020047 0.0156234 3.66441e-19)
(-0.259044 -0.195669 -2.26473e-18)
(-0.00228145 0.00264443 -5.58525e-20)
(0.000438873 -0.000241613 1.67857e-20)
(0.00067072 -0.000177524 9.56969e-19)
(0.00146649 0.00056192 -8.36937e-19)
(-0.212911 -0.172979 2.36916e-18)
(0.0151609 -0.00999287 3.86473e-19)
(-4.73669e-05 7.76796e-05 -1.00227e-18)
(0.0147234 -0.0130546 -3.40223e-19)
(-0.000312638 -0.00404062 -1.69471e-19)
(-0.0738818 -0.00584079 -2.59676e-18)
(0.000846587 0.0248264 -1.35099e-17)
(-1.48738e-05 6.1541e-07 -3.24001e-19)
(-0.00104088 1.36112e-05 7.98804e-19)
(0.00280288 0.0228931 9.36496e-20)
(0.0717102 0.00455144 1.18569e-19)
(-0.00713274 0.000678854 -1.83869e-18)
(-0.00678442 -0.0335293 -7.86647e-19)
(-0.00146588 -0.000386015 -1.05706e-18)
(0.0158223 0.000370274 -4.19011e-19)
(-0.000875837 -0.0116053 1.07802e-18)
(-0.00117198 -0.000567341 2.35096e-18)
(-0.0151018 -0.10971 3.14212e-18)
(0.0736998 0.00988432 -1.35876e-19)
(0.00644958 0.0211117 -1.16849e-18)
(-0.00165235 3.08916e-05 -1.49065e-20)
(-0.0425662 0.291629 -6.58904e-17)
(-0.00845735 0.00273036 4.1133e-20)
(0.0700329 0.0113251 -1.48479e-18)
(-0.000556481 -0.000283088 -7.65418e-19)
(0.000261082 -0.0107599 -1.75413e-18)
(0.0436399 0.033168 -1.37188e-19)
(0.00214043 0.00107195 -5.05181e-20)
(-0.0164579 -0.0044712 -4.17355e-18)
(0.0018356 -0.00653007 3.40015e-18)
(-0.000385849 0.000587523 4.05263e-19)
(0.119203 -0.112427 5.49016e-18)
(0.00121787 0.000364502 -1.97461e-19)
(0.125183 -0.00788865 -1.84023e-19)
(0.000739475 0.000646501 -5.10486e-19)
(-0.000539851 1.45806e-05 -9.41288e-19)
(0.106722 -0.00689329 -4.60854e-20)
(0.0376733 0.0340745 5.04627e-19)
(-0.0492032 -0.0457877 -5.3613e-19)
(0.0138057 0.0126167 2.08689e-19)
(-0.000273429 7.27638e-05 -3.50497e-19)
(-0.00267575 0.01782 -1.83171e-19)
(0.00044003 -8.46661e-06 -4.17592e-20)
(0.00291092 0.017366 -3.12768e-19)
(-0.000293431 1.28113e-05 8.14449e-19)
(-3.55952e-05 5.48684e-05 -2.55425e-21)
(-0.023052 -0.347939 2.24955e-17)
(-0.028423 -0.339353 3.86778e-18)
(-0.00106664 -0.000125676 -2.4663e-19)
(0.0170405 -0.00260048 -6.16433e-19)
(-0.00077105 -0.000498927 -7.62179e-19)
(0.000772575 -0.00049676 5.03116e-19)
(0.0581054 -0.0372374 1.37619e-17)
(-0.112465 -0.0417624 2.28187e-18)
(-0.00536643 0.0179913 -9.01154e-19)
(0.000267503 0.000121225 -6.97439e-19)
(-9.53228e-05 0.000484901 -1.71681e-18)
(-0.000959271 -0.00106322 9.74196e-19)
(-7.48033e-05 -4.65674e-05 -9.25476e-19)
(0.103283 0.00106057 5.63242e-18)
(-0.112074 -0.24385 -8.19234e-18)
(-0.00754925 -0.00323953 3.89343e-19)
(0.108224 -0.214944 -6.55065e-18)
(0.00302504 -0.00242266 -5.03916e-19)
(0.0720397 -0.0110255 -1.67809e-18)
(-0.0142865 -0.0640698 1.04402e-18)
(0.000283664 1.12216e-05 -1.03397e-18)
(0.0581389 -0.208927 -2.94172e-17)
(9.58446e-05 -5.22451e-05 -8.90538e-19)
(0.00946416 -0.0017041 8.31987e-20)
(-0.000417747 3.6168e-06 -9.35126e-19)
(0.00286453 0.0210799 -4.45826e-19)
(-3.35458e-05 6.69477e-05 9.39789e-19)
(-0.000442368 0.00134 -4.74231e-20)
(-0.0520735 0.107112 -2.8976e-18)
(7.89999e-05 0.000351866 6.34004e-19)
(-0.000145765 1.15667e-05 -9.12147e-19)
(3.86551e-05 -0.00309692 1.91321e-18)
(-0.00664902 -0.0261101 -2.66312e-19)
(0.00379169 0.0184358 3.26035e-18)
(0.0100498 -0.000899336 -3.31304e-20)
(-0.100718 -0.044937 -1.96539e-18)
(0.0825097 -0.113405 -2.32443e-18)
(-0.00108263 -0.000969555 -2.64344e-20)
(5.73678e-05 -8.63558e-07 1.78888e-19)
(-8.45462e-05 1.74432e-06 -1.34763e-19)
(-0.0015157 0.00243659 -3.53242e-20)
(-0.0252361 -0.209647 8.87632e-18)
(-0.000123454 -0.000389711 6.86507e-19)
(0.00344033 -0.00171295 -1.48131e-18)
(-0.0534955 0.0509312 -1.26729e-17)
(0.000501555 -0.000211244 4.34756e-19)
(-0.0180963 -0.00595141 -1.16051e-18)
(-0.00276366 0.0264893 6.6479e-19)
(0.00107938 -7.72554e-05 -9.36185e-19)
(-0.00530911 0.0222864 -1.03699e-18)
(-0.0183151 0.114293 6.6938e-18)
(-0.00118134 -0.32093 -1.19193e-17)
(0.00119728 -8.41571e-05 2.57702e-19)
(0.000368887 -0.00413086 -4.12325e-18)
(-0.00648238 -0.343485 1.19828e-17)
(0.000255892 -0.000158939 -5.8186e-20)
(-0.000427592 2.60118e-05 3.82225e-19)
(0.000255848 0.000425179 -1.30494e-19)
(8.68579e-05 8.0325e-05 9.04078e-20)
(0.00381293 -0.00214536 1.57155e-19)
(0.00439471 -0.00642153 1.1686e-18)
(0.000563121 -0.000280378 3.13026e-19)
(-0.000519117 1.38756e-05 -1.23401e-20)
(-0.00460206 0.0405763 -7.3377e-19)
(-0.00502331 -0.00885591 5.95567e-19)
(-0.00188169 0.00273997 -2.68165e-19)
(-3.70692e-05 3.42911e-05 -4.91133e-20)
(-0.281408 -0.168984 3.8605e-18)
(-0.00023866 8.20212e-06 -4.02399e-19)
(0.0458066 -0.190887 -4.81246e-18)
(0.0031616 -0.0185884 1.93362e-18)
(0.000713458 0.000125616 2.28313e-19)
(0.00310812 -0.00598114 1.1789e-19)
(0.0224787 -0.0307949 6.69756e-18)
(-0.00135914 -0.000521075 -1.5996e-18)
(-0.0501648 0.096563 -7.79732e-18)
(-0.0165768 0.01492 7.21375e-19)
(0.00999477 0.276502 9.44227e-18)
(-0.000882225 9.71367e-06 -6.68215e-19)
(-0.152162 -0.0330466 -1.25861e-19)
(-0.0218009 -0.0829872 -3.19608e-19)
(0.034522 0.0391929 2.61814e-19)
(-0.000577347 -2.73389e-06 7.24282e-19)
(0.0612214 -0.00647159 -1.2498e-17)
(-0.00114208 -0.000944272 -3.56776e-19)
(-0.0353708 -0.0940017 2.68084e-18)
(-0.00349634 -0.0249958 1.16684e-18)
(-0.0018727 6.03935e-05 1.25298e-18)
(6.94525e-05 -0.000133489 1.06251e-18)
(-0.0205694 -0.0049246 2.97093e-18)
(-0.000416084 7.70562e-07 9.13373e-20)
(0.0414697 0.0445882 7.99592e-19)
(0.0329495 0.0327544 -1.07216e-18)
(0.00177415 5.82001e-06 5.84119e-20)
(0.018008 0.00792157 7.08852e-20)
(-0.00012674 1.8787e-05 -1.52784e-19)
(0.0733559 -0.124723 3.99166e-19)
(-0.00148558 -1.83144e-05 1.58342e-20)
(-0.140863 -0.0454102 2.93678e-19)
(-0.0590662 0.150203 -1.75956e-17)
(-0.00660706 0.018422 1.24717e-18)
(-0.0676926 0.161485 1.4424e-17)
(0.0172113 0.0113536 -1.40928e-19)
(-0.00161927 -1.75587e-05 5.47098e-21)
(-0.0305466 -0.0859502 2.39239e-19)
(-0.00103395 0.000478256 4.91354e-19)
(-0.0055464 -0.00328333 -1.77559e-18)
(0.0212098 0.0185737 3.65428e-19)
(0.00201766 0.00109319 -1.65434e-19)
(-0.000163445 4.0252e-05 -1.12433e-18)
(2.97326e-05 -0.000581503 -2.62067e-18)
(-0.00393148 -0.00926108 3.43293e-19)
(3.41982e-05 -3.48939e-06 -4.1678e-20)
(0.000531111 -0.000144323 2.68075e-19)
(-0.00338436 -0.0125597 -1.86319e-18)
(-0.00234211 -0.00486413 3.70828e-19)
(-0.0183201 0.289476 3.86498e-17)
(0.0080176 -0.00141616 -1.53264e-18)
(-0.0141988 -0.0144228 2.78343e-18)
(0.1061 0.0288036 -5.74408e-20)
(-0.0172618 0.169355 3.4329e-18)
(-5.48699e-05 6.54343e-05 -1.10389e-20)
(-0.00126469 0.00314257 7.87913e-20)
(0.0515205 0.194208 1.57946e-17)
(0.00147179 8.06823e-06 -3.06324e-20)
(-0.0227452 0.149078 1.23423e-18)
(0.00727592 -0.000691461 9.62077e-19)
(-7.89366e-05 -0.00334757 1.31816e-18)
(0.00120986 4.85169e-06 -6.30929e-19)
(0.00142295 -0.00586098 -4.22526e-18)
(0.000747825 0.000156647 -7.66921e-20)
(-0.0532449 0.0117502 -1.64145e-20)
(0.1245 0.0185733 -1.18335e-18)
(0.000341328 0.00102857 1.63683e-19)
(-0.00238474 -0.00450823 -4.37757e-19)
(-0.000615633 5.47654e-06 4.708e-19)
(-0.000619507 4.8048e-05 4.38287e-21)
(-0.0655462 0.305725 4.39392e-17)
(-0.00151994 -4.03572e-05 -5.87697e-20)
(0.0193221 0.00325024 7.38552e-19)
(0.000277927 -8.76117e-05 -2.80283e-19)
(-0.000325804 -3.5798e-05 1.19767e-19)
(-7.75986e-05 7.43751e-05 -7.00529e-19)
(-0.00293741 -0.0215327 1.71044e-19)
(0.127039 0.0717683 -5.5901e-18)
(0.0179053 0.00616452 3.97785e-19)
(-0.0464648 0.00994197 1.99962e-19)
(-0.0020223 -5.03822e-06 -1.36956e-18)
(-0.000640013 -0.000701769 2.18826e-18)
(-0.0028289 -0.000106375 1.05481e-19)
(-0.328653 -0.355241 1.19488e-17)
(0.000677071 0.000494244 1.16146e-18)
(-0.328355 -0.182617 -5.01839e-18)
(-0.00102848 -0.000129251 3.34002e-19)
(-0.00511472 0.0131109 -1.0875e-18)
(-0.002049 -0.00165602 -2.41414e-18)
(0.000824533 -0.000133123 -2.34133e-19)
(-0.00201315 -5.92636e-06 8.87725e-21)
(-0.00113269 -0.00630015 -6.55315e-18)
(0.000414337 -6.88551e-05 6.62014e-19)
(0.039526 0.124144 -1.15256e-18)
(-0.0296017 0.0836288 -1.34525e-18)
(9.5717e-05 -0.00154054 2.72569e-18)
(0.00663612 -6.77442e-06 1.51645e-19)
(-0.05158 0.217817 -1.53353e-18)
(-0.0142431 0.0109118 -1.34316e-18)
(0.000190711 0.000106542 -1.53464e-19)
(-0.000955422 0.0168745 -2.50218e-20)
(-0.000326172 7.98752e-06 1.19699e-18)
(0.00616924 -0.0163248 -4.8001e-18)
(-0.00763609 0.00516685 1.19e-19)
(0.00171491 -1.18803e-06 1.27511e-19)
(0.0232727 0.176969 2.45703e-18)
(0.020754 0.0101101 -2.05705e-19)
(-0.00115912 4.32131e-05 -1.11556e-18)
(-0.061109 0.0343601 6.59064e-19)
(-0.00460978 -0.0043624 9.04737e-19)
(-0.00261922 -0.000117536 8.01565e-19)
(-0.000126378 1.49497e-05 5.45744e-19)
(0.0016803 -0.00274617 -1.84353e-18)
(0.0370623 0.0355503 1.10628e-18)
(-5.4032e-05 3.28084e-05 1.87187e-20)
(0.106198 1.36181e-05 2.31628e-18)
(-0.012043 0.0126563 -2.46529e-19)
(0.0914809 0.00767636 1.00299e-18)
(0.000655863 0.00068621 -3.76445e-19)
(-0.00204403 0.00356397 -5.74237e-20)
(-0.0661402 0.0259906 -1.63902e-18)
(0.0418274 0.147886 -5.40467e-18)
(-0.00075863 -4.43702e-06 -5.4652e-20)
(-0.000629151 4.71281e-05 -1.11587e-18)
(-0.000644792 5.81141e-05 2.63178e-20)
(-0.00107623 0.000170603 5.77287e-19)
(-0.00828697 0.00350283 -4.17379e-19)
(-0.004183 0.0158933 2.58865e-19)
(-3.09372e-05 6.53646e-05 1.41882e-18)
(-0.00589871 0.0352192 8.27829e-19)
(-0.0442298 -0.00953144 4.95776e-18)
(-0.000291064 5.1999e-05 -2.45425e-19)
(-0.000144803 -3.58497e-06 1.28305e-19)
(-0.327033 -0.196553 4.38821e-18)
(-0.00505322 0.0108984 8.16964e-19)
(0.0281884 -0.0437535 7.96912e-19)
(0.00761419 0.0438337 1.32749e-19)
(0.00177631 5.59175e-06 -1.60125e-19)
(-0.00821815 -0.000607239 8.72932e-20)
(-0.000111153 0.000424663 2.78718e-19)
(-0.00345105 -0.00417725 8.85877e-19)
(0.00691403 -0.0145072 5.47402e-18)
(-0.00104933 -0.000980176 -1.56566e-18)
(-0.00212299 0.000220006 8.14172e-20)
(0.00780615 0.0128219 -3.93845e-19)
(9.41181e-05 -9.18283e-06 1.56231e-19)
(-0.0322099 -0.0587715 1.40474e-18)
(0.00253357 0.0196301 9.37764e-19)
(-0.0348066 -0.264527 4.89589e-18)
(0.0295111 -0.0330732 -3.53572e-19)
(0.00143419 0.00016548 7.55183e-20)
(-0.0692392 0.0192096 8.41329e-18)
(-0.00556659 -0.0654081 2.85686e-19)
(0.00697042 -0.0204042 -1.12008e-18)
(-6.67321e-05 7.36361e-05 -6.59415e-20)
(-0.00744791 0.00530514 -1.52334e-18)
(-0.00105833 -2.86318e-06 5.23749e-19)
(-0.000197055 6.34077e-05 1.07708e-18)
(-7.96657e-05 0.000260394 1.22847e-18)
(-0.000183634 1.76101e-06 1.84099e-19)
(-0.00438401 -0.000598609 9.20127e-19)
(0.00365232 0.284562 4.59307e-18)
(-0.00169753 -0.00101942 5.54735e-19)
(0.0102884 0.0198392 5.35363e-19)
(-0.00406938 -0.0016344 1.78017e-20)
(0.00115438 -0.00042021 3.12654e-19)
(0.0776704 -0.0218794 -1.23853e-18)
(-0.0105833 0.000292878 -5.24009e-19)
(-0.000767654 0.000728594 -3.15026e-19)
(-0.000227392 2.03368e-06 5.75242e-19)
(-0.181948 0.0320803 5.38056e-19)
(-8.96445e-05 -7.80858e-07 1.81083e-19)
(-0.00100822 0.000496381 5.29083e-20)
(0.0011691 -9.45019e-06 -1.8829e-19)
(0.00349308 -0.00156674 3.96591e-18)
(-0.0642697 0.0612633 -1.87169e-18)
(-0.0660435 -0.00396392 -5.04246e-18)
(0.0028167 -0.00196943 9.84969e-19)
(-0.00100429 -1.63901e-06 -1.62484e-19)
(-0.00357977 -0.00253273 8.09217e-19)
(-0.00403318 -0.00176474 -4.79818e-19)
(0.0334182 -0.0343355 -6.68516e-19)
(-2.62517e-05 3.9697e-05 1.42539e-20)
(-0.00161752 -1.80242e-06 5.67392e-20)
(0.000801756 0.000539395 -1.98569e-19)
(-3.48184e-05 5.29788e-06 -5.4962e-21)
(0.0642716 0.00582255 1.85606e-20)
(0.000547997 0.000667195 1.24448e-18)
(-0.00182711 0.0144957 -4.59083e-19)
(0.081361 0.0331564 2.13755e-19)
(0.0145002 0.437404 2.92297e-17)
(0.0616767 0.000724244 -1.99801e-19)
(-0.00138037 0.000340914 3.80919e-20)
(0.0866642 0.0372065 -5.01736e-19)
(0.0184333 0.0209763 2.1238e-18)
(7.66947e-05 0.000372002 -7.16406e-19)
(-0.0204821 -0.030002 5.53255e-19)
(-0.000258643 3.86583e-05 -6.57821e-21)
(-1.29358e-05 3.81287e-06 6.49697e-19)
(-0.000549464 5.76111e-06 -2.03842e-19)
(-0.00108019 0.000373168 -1.24522e-19)
(8.55261e-05 8.39119e-05 1.29073e-19)
(-0.000896965 -0.000516584 8.13753e-19)
(0.157846 -0.0551053 -6.53483e-19)
(-0.00155608 -0.00103868 6.70965e-19)
(-0.0079529 -0.00644878 -3.19946e-19)
(-0.078398 -0.00514776 -1.00513e-18)
(0.123091 -0.00152606 1.14663e-18)
(-0.00035382 3.32753e-05 1.82587e-19)
(-0.0334951 -0.0199458 -2.08483e-18)
(0.00772533 -3.22236e-06 -1.59308e-19)
(-0.0231792 -0.00847026 9.7566e-19)
(-0.000615843 -3.86922e-05 1.57978e-19)
(-0.0538404 0.197577 -2.59336e-18)
(-6.28549e-05 -0.00280641 3.10486e-19)
(0.0888358 -0.0315343 7.66691e-18)
(-0.066439 0.302465 -1.96086e-17)
(0.00119132 -0.000574131 -5.45589e-19)
(-0.000235954 -0.0586748 -2.27581e-19)
(0.00123732 -0.00121872 1.37247e-20)
(0.0958952 0.0258401 -4.18456e-19)
(-0.00127574 -0.000596625 -4.77228e-19)
(-0.0201449 -0.203726 -4.86407e-18)
(0.0108849 -0.00566487 6.18633e-19)
(0.00339145 0.170471 -4.41201e-18)
(-0.00261638 -0.000947187 -9.5883e-19)
(-0.0399814 -0.105226 -1.02725e-18)
(0.00113395 0.00250209 1.20736e-18)
(0.013402 -0.000741816 -2.96019e-19)
(0.052371 -0.0373512 -5.3465e-18)
(9.07058e-05 3.51569e-05 2.28995e-19)
(0.000927752 0.00218784 -8.07326e-19)
(0.000393691 7.59553e-06 -3.45768e-19)
(-0.0758803 -0.00823709 -9.23477e-19)
(0.000325494 8.14251e-05 -1.40438e-18)
(-0.00051458 -2.89805e-06 -6.29847e-19)
(-0.0215246 -0.0698288 -1.45457e-18)
(0.00469355 0.00170689 -7.92902e-19)
(0.0101062 0.0245157 -9.31433e-19)
(-0.0203943 -0.189916 1.33059e-17)
(-0.00155841 -4.12867e-05 3.43908e-20)
(0.00434147 -0.0209725 2.00645e-18)
(0.0042314 0.00201997 5.05e-19)
(0.000109919 9.07971e-05 3.24424e-19)
(0.0113904 -0.00496772 -6.46156e-19)
(0.0153562 0.0241509 5.07268e-19)
(0.000997654 -0.00121607 4.06014e-19)
(0.00249022 -0.00133423 -1.61078e-18)
(0.0848319 -0.0927339 2.78946e-17)
(-0.000776561 0.0168157 1.61202e-18)
(0.000187215 -1.36695e-06 2.8364e-19)
(0.135966 -0.101106 -8.92909e-18)
(1.03961e-06 -3.49813e-05 1.99421e-19)
(-0.00656404 0.00191973 -3.24978e-20)
(-0.00745561 -0.0156799 4.19128e-19)
(-0.297224 -0.160155 -1.28925e-18)
(-0.270292 -0.302381 -6.82843e-19)
(-0.0149784 0.063873 -8.25055e-19)
(-0.0350583 -0.103586 2.67945e-19)
(0.0733674 -0.146221 -7.37514e-18)
(-0.0351531 -0.0559891 -4.55592e-18)
(-0.000425139 -3.65675e-05 5.43769e-20)
(-0.00738222 0.00887082 -1.9894e-18)
(-0.0669283 0.00739064 -7.42592e-20)
(-0.0719203 -0.00057457 -1.33043e-19)
(-0.0171795 -0.0286637 -2.84614e-18)
(0.000997362 -1.12719e-05 -3.84118e-20)
(-0.000188893 0.000266615 -4.98881e-19)
(0.0108294 0.0152011 -1.30757e-18)
(0.112981 -0.0883587 -1.03687e-18)
(-0.000607201 2.18881e-05 -2.2561e-21)
(-0.000240515 0.000969543 2.63904e-20)
(0.00135971 1.58675e-06 -9.82388e-19)
(0.000142574 1.51584e-05 -3.52191e-19)
(-0.000511391 0.0017083 -1.27057e-19)
(-0.000215445 0.00199937 9.03892e-19)
(-0.000753488 0.000248392 2.9337e-19)
(4.91353e-05 -3.5339e-07 -3.29646e-19)
(0.00590026 0.0199009 -9.23853e-19)
(-0.000353992 -0.00126817 3.1873e-19)
(-0.00700004 0.000479863 -2.05151e-19)
(-0.000906011 0.0229318 -2.19852e-18)
(0.116314 -0.114127 2.16767e-18)
(0.00023272 -0.000213984 -1.33129e-18)
(-0.0703232 0.124548 -8.18289e-19)
(0.0798244 -0.131405 -2.23834e-18)
(0.0809494 0.0353967 -5.68773e-18)
(1.50971e-05 -1.20263e-05 -4.65342e-19)
(-0.00415626 -0.00325377 -4.73029e-18)
(-0.000121312 -4.85857e-06 6.55831e-20)
(0.125614 0.00572824 -1.65486e-18)
(-0.00233179 -0.000100639 -1.25749e-18)
(-0.0157652 0.0107052 8.34245e-19)
(-0.00246456 -0.000949111 1.29131e-18)
(0.0780284 0.010292 6.61112e-18)
(0.000153029 1.03725e-05 1.37208e-18)
(0.000667275 -0.00578242 2.01077e-18)
(-0.000391492 0.000908296 1.40957e-20)
(-0.00654528 0.00703065 -7.49122e-20)
(0.0425998 -0.161395 -5.41898e-18)
(0.000274377 -3.74671e-07 -7.13378e-19)
(-0.000851768 -3.34324e-05 1.80686e-19)
(-5.59046e-05 -3.75347e-05 2.40304e-19)
(-0.0674761 -0.0724756 -2.17601e-17)
(0.00029704 -7.0691e-05 1.95289e-19)
(-0.0114389 0.00748323 7.1698e-19)
(0.0105477 -0.0336266 -3.38158e-20)
(0.00741276 -0.0579248 5.75675e-19)
(0.00111806 -0.000357098 -8.37525e-19)
(-0.0122793 0.010243 -4.38286e-19)
(0.0114886 0.199334 1.20134e-18)
(0.184621 0.0162413 -1.03186e-17)
(-0.00137932 6.39553e-05 -2.07253e-19)
(-0.00102416 -8.54784e-07 -8.02709e-20)
(0.0209513 0.143282 3.75847e-18)
(-0.0784549 -0.125325 4.73928e-18)
(0.0280257 -0.0116376 1.91801e-19)
(-0.0742753 0.031027 3.28137e-20)
(-0.000474101 1.7286e-06 -4.98439e-19)
(-0.00681971 0.0211477 2.29512e-19)
(0.0116551 0.014987 -1.26567e-19)
(0.0128423 0.00733133 4.24524e-19)
(0.00602029 -0.000459324 1.03967e-18)
(-0.024047 -0.113602 -4.42206e-19)
(0.000987025 -0.000414837 1.81915e-19)
(0.00054508 -2.58117e-05 8.50065e-20)
(0.000666318 0.000625889 -5.19721e-19)
(0.0162491 0.196006 -5.67182e-18)
(-0.00300198 -0.000105564 -2.63705e-20)
(0.0863164 0.0292474 2.81587e-19)
(-0.0028059 8.53825e-06 -6.10404e-20)
(-0.00117045 -5.9266e-05 3.79076e-19)
(4.19469e-05 -0.000262158 -7.16835e-20)
(0.013177 0.000769383 5.68803e-19)
(-0.0704113 0.0462626 -1.35331e-19)
(0.0021667 0.000968355 -4.56175e-19)
(0.00259797 -0.0011556 8.37268e-19)
(-0.0531357 0.133875 1.75228e-18)
(-0.0129135 0.0187255 -6.9619e-19)
(-0.00893035 0.0209128 2.93923e-19)
(0.00156213 0.000858272 1.13302e-19)
(0.00128025 0.000604752 -9.39817e-19)
(-0.00544357 0.0247327 -2.68129e-19)
(0.183209 -0.0113724 7.32634e-18)
(-0.00154421 0.000377169 7.54536e-20)
(0.000630121 4.99797e-05 2.09696e-19)
(0.00938313 -0.0279625 -3.95077e-19)
(-0.00187755 5.53756e-05 -1.61944e-19)
(0.000769247 0.000209118 9.56827e-20)
(-0.0367193 0.0485893 -3.03048e-18)
(0.000264862 9.91947e-05 6.37586e-19)
(0.0901875 0.111324 -2.02648e-17)
(-0.000944818 -6.01946e-06 2.49947e-20)
(0.0244973 0.0193992 5.54435e-19)
(-0.0038406 -0.00230122 -1.5751e-18)
(-0.0466574 0.194764 3.46004e-18)
(-0.00321526 -9.76886e-05 9.64114e-20)
(-0.00456401 -0.00491705 5.13487e-18)
(-0.00245019 -1.30551e-05 2.21046e-20)
(0.000246065 -0.000161121 5.48543e-20)
(-0.0533023 0.119929 2.80386e-19)
(-7.14942e-05 8.67751e-05 -7.16998e-21)
(0.0878847 0.0103267 3.95207e-18)
(0.0271716 -0.0144193 -5.02721e-19)
(0.000357034 1.59473e-05 -2.56125e-19)
(-0.00398994 -0.0041353 -5.68847e-19)
(-0.097177 -0.311813 2.50788e-18)
(0.085348 -0.0660212 5.92168e-19)
(0.000184758 0.0188841 2.06065e-18)
(0.000390437 -1.49834e-06 4.61935e-19)
(0.00057126 8.19318e-05 6.4797e-20)
(-0.000213815 4.36403e-05 -6.68768e-20)
(-0.00127143 -0.000360463 3.46856e-19)
(-0.00641871 0.00350202 -4.05312e-19)
(0.000877859 0.000603126 2.13676e-19)
(-0.0910197 -0.0441052 -3.43286e-18)
(0.000259252 0.000121627 2.19626e-20)
(-2.04325e-05 1.64101e-05 -5.31264e-21)
(0.0308694 0.0997841 -1.53418e-17)
(0.00260254 -0.00652517 4.33108e-19)
(-0.00766288 0.0049099 -7.36619e-19)
(-2.23855e-06 -1.75178e-06 -1.42221e-19)
(0.00047714 -1.08014e-05 1.39012e-19)
(0.0355046 0.0655975 8.44094e-18)
(-0.0723106 0.0435588 2.23135e-18)
(-0.00338578 -0.00233402 5.43335e-19)
(-0.0269288 -0.150711 1.16874e-17)
(-0.00243514 -0.000102785 4.22396e-19)
(-0.00523119 -0.00680553 3.32512e-19)
(0.000619435 -3.47804e-05 -6.66072e-19)
(0.000208409 1.39293e-05 -4.46606e-19)
(0.000285383 8.6813e-05 1.49197e-19)
(-0.000587792 0.00011402 1.02847e-18)
(-0.00125356 0.000370321 -2.21888e-19)
(-6.26903e-05 3.29226e-06 6.1881e-19)
(-0.0432619 0.221207 1.23573e-19)
(-0.00305343 -0.000833303 -1.37139e-18)
(0.0153731 0.0625569 2.17526e-19)
(-0.000557598 -9.39982e-05 -2.43482e-19)
(-0.00129215 -0.00319754 1.64125e-18)
(-1.24103e-05 6.35128e-05 6.31856e-19)
(-0.00927447 0.0250286 8.22605e-19)
(0.0972434 -0.0516038 -1.49831e-19)
(0.000172873 4.18971e-05 -7.76572e-19)
(0.000503452 -0.000119081 7.23065e-20)
(0.00467906 0.0396989 4.54803e-19)
(-0.0101697 0.0164709 -6.55925e-19)
(8.79422e-05 4.54072e-05 -1.08586e-18)
(0.0444134 0.346073 8.67802e-18)
(-0.00125356 2.5354e-06 1.52195e-19)
(0.00182565 0.0148707 4.41068e-19)
(-0.000313262 -2.39301e-05 -3.3837e-19)
(0.000314804 -1.65114e-05 3.40025e-20)
(0.000668218 -0.000136504 -2.71127e-19)
(-0.152336 0.0501805 4.017e-18)
(-9.01668e-07 5.3458e-05 -6.67889e-19)
(8.74682e-05 -0.000454758 4.25824e-19)
(0.000275935 0.000849685 -4.33261e-19)
(0.025552 0.320764 -1.41978e-17)
(-3.83125e-05 3.23409e-06 6.84888e-21)
(-0.00019979 0.000157392 1.83455e-19)
(-0.000275362 -8.32624e-06 -4.45352e-19)
(-0.0355727 -0.0532245 8.58284e-19)
(0.000357809 3.48458e-05 -6.61746e-20)
(0.000651974 -0.000205988 2.33028e-19)
(0.000241819 7.04305e-06 5.77243e-19)
(0.000210145 -0.000215547 -3.37705e-19)
(0.00644883 -0.00101036 -6.56326e-19)
(0.000372153 -0.000182496 -2.79711e-20)
(-0.000722816 -0.00286477 3.98931e-19)
(0.000386724 -4.55804e-05 4.48858e-19)
(-0.0728132 0.30273 3.60765e-17)
(-0.0862657 -0.0162563 1.81003e-18)
(0.0499001 -0.122017 4.09089e-18)
(-0.0011985 -0.000894222 -7.08699e-19)
(-0.0029758 -0.00266624 1.11884e-18)
(-0.00151298 -2.13759e-05 -1.8911e-20)
(-0.0509592 0.0211602 -7.9463e-19)
(0.00498689 -2.78906e-06 -3.85057e-20)
(-0.0303144 0.00340206 -3.03556e-18)
(0.00646387 0.0594696 7.93937e-19)
(0.0594636 -0.0786686 2.01606e-18)
(-0.00113992 0.0147145 -4.64245e-20)
(-0.0399504 0.134578 1.22667e-18)
(-0.00295263 -9.12163e-05 1.35337e-19)
(-0.00147504 0.000269253 -5.14697e-20)
(-0.0134168 0.235119 1.22451e-17)
(-0.0228179 -0.0477048 -8.216e-20)
(-0.00762894 -0.00244737 -2.30708e-19)
(-0.0582191 -0.0227991 -1.07275e-18)
(-0.00193639 -0.000526116 -2.49681e-18)
(-0.0768308 0.0388452 6.52238e-19)
(-0.000876437 -4.23198e-05 -1.60277e-18)
(-0.00169381 0.000179074 -2.26683e-19)
(0.000299773 -0.000228145 1.09058e-18)
(1.58866e-06 -5.57556e-05 -1.65796e-19)
(-0.000974347 -1.7179e-06 -1.80925e-19)
(-0.0122709 0.238597 -1.49551e-17)
(8.26812e-05 -0.00161329 -1.02254e-18)
(7.98902e-05 -1.23333e-06 -5.07027e-19)
(0.0922388 0.00829461 1.97981e-18)
(0.00168755 8.5955e-06 3.61838e-20)
(-0.0456162 0.0305074 -4.07377e-18)
(-0.000929485 0.00176349 -4.27007e-21)
(0.0008024 -0.00123599 -2.53705e-18)
(-0.00842125 0.00716213 1.81349e-18)
(-0.000631559 3.89381e-06 5.69062e-19)
(-0.0454434 -0.0420912 -9.71077e-19)
(-0.000829762 0.000331623 -2.95416e-19)
(0.000649404 6.73516e-05 -1.87305e-19)
(0.0170914 0.0526485 1.52955e-18)
(-0.00139404 -3.72021e-05 -3.0035e-19)
(-3.99751e-05 2.13207e-05 -4.59234e-20)
(-0.00019617 -7.56164e-06 -1.44494e-18)
(-0.000963372 -1.59901e-05 1.55384e-18)
(-0.000920136 -5.1478e-06 -4.80913e-19)
(-0.0136898 -0.0778839 1.65864e-18)
(-0.0310499 0.0589382 2.68814e-18)
(-0.0901578 -0.0391013 6.46241e-19)
(-0.00181026 -0.000456959 -1.64074e-20)
(-0.000409963 -0.000316987 2.24064e-19)
(-0.0011225 4.59231e-05 -4.54417e-19)
(-0.0734677 0.0565288 -4.24379e-19)
(-0.00269344 0.003011 8.54862e-21)
(0.00144506 0.00065856 3.49105e-19)
(-7.96937e-05 1.6678e-05 -3.38362e-20)
(-0.00100509 0.000110655 7.43531e-20)
(-0.0478924 0.135491 -1.02354e-18)
(-0.328618 -0.34576 2.08446e-17)
(-0.00251261 0.0096321 -3.16165e-19)
(-0.000511305 0.000394111 5.04852e-19)
(-0.0025482 -4.50732e-06 6.17491e-19)
(-0.100551 0.304321 3.84097e-17)
(-0.00569737 -0.00563914 2.39297e-19)
(-0.0044127 -9.61053e-05 -5.92008e-19)
(2.61976e-05 0.0250927 3.9039e-18)
(-0.00953161 0.121465 -1.0947e-18)
(0.10212 -0.00603187 4.49641e-18)
(-0.0585615 0.107928 2.13851e-18)
(-0.000888557 -7.87078e-05 1.55675e-19)
(0.000179897 -1.27976e-05 7.95446e-19)
(-0.000930265 0.000431052 3.22219e-19)
(-0.0499471 -0.0823889 -9.649e-19)
(0.000461156 -8.84156e-05 -2.68871e-19)
(-0.0039009 -0.00304218 -2.08651e-18)
(-0.00142776 -0.00037539 8.80655e-19)
(-0.000115964 9.82199e-05 8.94934e-20)
(-0.00824534 0.0034364 -4.29172e-19)
(-0.00168067 -0.00125283 1.76127e-18)
(-0.181191 0.0447021 -6.58736e-19)
(-0.0445054 0.122941 -6.38881e-19)
(0.000184545 0.000135858 -4.99917e-19)
(0.000101758 -0.000122357 -3.35846e-20)
(-0.000337988 -2.19202e-05 -7.03396e-19)
(-0.00880011 0.0560706 4.84926e-19)
(2.12892e-05 -3.70264e-05 6.06866e-19)
(-0.0397371 -0.205681 -4.2405e-18)
(-0.0028612 -0.00249705 -1.04619e-18)
(-0.301434 -0.229368 5.67486e-18)
(0.000216312 -0.000203974 1.1141e-18)
(-0.000869338 -0.000616783 -3.4888e-19)
(0.000123863 5.84179e-05 1.23334e-18)
(0.000109179 -2.97841e-05 -6.32229e-20)
(-0.000796659 0.000212797 -4.56708e-19)
(-0.000244549 0.000378123 -5.20884e-21)
(-0.00240295 -0.00011972 -1.33957e-18)
(-0.00132924 -0.00099142 -1.67678e-18)
(-0.00942366 -0.00456237 8.23707e-19)
(0.000865581 -0.00509883 -5.67096e-19)
(0.0487543 -0.126466 4.35229e-18)
(-0.00240027 -7.89428e-05 -1.7193e-19)
(-0.0180991 -0.0352945 -1.44746e-18)
(-0.00421447 0.132743 -2.31833e-19)
(0.00595802 5.17254e-07 -8.55905e-19)
(0.0846522 -0.107266 4.02607e-18)
(-0.000272725 -4.28952e-05 2.85865e-19)
(0.00102826 0.000137676 1.8935e-19)
(-0.00044723 -0.00329225 6.64193e-20)
(0.000115241 5.85568e-06 3.70227e-19)
(-0.0176119 -0.171177 -3.34471e-18)
(-0.00117649 -0.000214711 -1.06962e-18)
(-0.00118421 -0.000896434 9.02632e-19)
(5.55147e-05 -0.00030331 2.20295e-19)
(-0.0265418 0.0743767 -6.57504e-18)
(-0.000311409 -0.000580496 2.81149e-19)
(-0.0499167 -0.0876609 3.77888e-18)
(0.0211615 -0.0156899 1.6729e-18)
(-0.000488144 -0.000253987 -3.81284e-20)
(0.048873 0.036597 3.00058e-19)
(-0.0534332 -0.0557937 6.63889e-19)
(-0.00115367 0.00145352 -4.97264e-20)
(-2.83546e-05 -0.000281225 1.1466e-20)
(-0.0549013 -0.0295433 3.56008e-19)
(-0.00163205 -2.20882e-06 1.47326e-19)
(0.0932764 0.0199298 1.12275e-18)
(-0.00581763 -0.00610306 -8.23459e-19)
(0.0117278 -0.0139615 4.81905e-19)
(-0.0106141 0.00273044 2.50802e-18)
(-0.00185985 -0.000414188 -3.97412e-20)
(-0.00175091 2.19831e-05 4.44398e-20)
(0.00124411 0.000235243 -1.09208e-18)
(-0.000112145 0.0134518 -1.65785e-19)
(0.00104519 -0.00383716 6.30693e-19)
(0.0401182 -0.0015715 -7.42705e-20)
(0.0949916 -0.0287521 2.35411e-18)
(-0.000125606 0.000113813 -8.43659e-20)
(-0.00126848 -0.000954443 -6.74813e-19)
(0.00802596 -4.6753e-06 1.00043e-18)
(-0.0046503 -0.0167676 -4.25066e-19)
(-0.00179216 -2.72111e-06 4.50385e-19)
(-0.0538807 -0.176094 -1.43652e-18)
(-0.00160539 -0.000685675 3.06424e-18)
(-0.00209183 0.000443767 -1.30833e-19)
(0.0150023 0.0616691 -2.56183e-18)
(-0.00029757 -0.000101539 1.06723e-18)
(-0.0485761 -0.0300905 -7.57616e-19)
(0.0152454 0.00736089 -1.03918e-19)
(-0.00243296 -1.06663e-05 1.6977e-19)
(-0.0222572 -0.107865 -1.88199e-18)
(-0.00096556 0.00311187 7.46991e-19)
(-0.000854008 -0.000538992 1.29284e-19)
(-0.000681794 -0.00215797 -7.75081e-19)
(0.0150345 0.0194875 1.03602e-18)
(0.000355007 0.000747903 2.36174e-19)
(0.109362 -0.0155027 -4.74524e-18)
(-0.00188677 -0.000905243 1.33381e-18)
(0.0117673 0.0207968 2.44694e-19)
(-0.00461099 -0.00308476 3.66999e-18)
(-0.0646828 -0.201457 1.50807e-18)
(-0.000364017 -0.00190601 7.62411e-19)
(0.0111934 0.00561571 -7.42668e-20)
(0.00399986 0.00131716 -4.06416e-19)
(-0.000200393 -0.00107575 -8.3124e-19)
(0.0206495 -0.0132267 -1.76614e-18)
(7.66765e-05 -4.67879e-05 -2.6706e-19)
(0.0144189 0.01601 -6.27847e-19)