/*--------------------------------*- C++ -*----------------------------------*\
| =========                 |                                                 |
| \\      /  F ield         | OpenFOAM: The Open Source CFD Toolbox           |
|  \\    /   O peration     | Version:  v2012                                 |
|   \\  /    A nd           | Website:  www.openfoam.com                      |
|    \\/     M anipulation  |                                                 |
\*---------------------------------------------------------------------------*/
FoamFile
{
    version     2.0;
    format      ascii;
    class       volVectorField;
    location    "1000";
    object      U;
}
// * * * * * * * * * * * * * * * * * * * * * * * * * * * * * * * * * * * * * //

dimensions      [0 1 -1 0 0 0 0];


internalField   nonuniform List<vector> 
10042
(
(0.990632 0.0113135 -1.86673e-21)
(0.833198 -0.226774 2.91003e-20)
(1.06257 -0.0207896 1.49808e-21)
(1.01533 0.00141763 -7.52625e-22)
(1.01222 0.000404205 -2.76076e-22)
(0.960045 -0.262403 6.10802e-21)
(1.09541 0.230509 1.67003e-20)
(0.912092 -0.270285 -2.85496e-21)
(1.01293 -0.000741728 2.84837e-21)
(0.969289 0.0622884 4.86656e-21)
(0.943576 0.0149137 0)
(0.870411 -0.226567 0)
(1.06816 0.0291836 0)
(1.01322 -0.000867063 0)
(1.02717 0.00228299 -3.75039e-21)
(1.01337 -0.00111739 -1.05045e-21)
(0.974039 -0.268449 -1.69387e-20)
(0.946516 0.0259511 4.93206e-21)
(1.0462 0.0119096 -9.55305e-21)
(1.00839 -0.0057379 -1.1086e-21)
(1.06711 0.0323171 -9.82665e-21)
(0.990041 0.00494332 0)
(1.01518 0.00135617 4.68222e-22)
(0.903119 -0.315546 -1.11678e-20)
(1.01375 0.00232148 1.06247e-21)
(1.01049 -0.000112972 3.43082e-22)
(0.971425 0.0563185 -3.85747e-21)
(1.01254 -0.000461006 2.58413e-21)
(0.960438 -0.282052 0)
(0.896196 -0.285062 0)
(1.00895 0.000116096 0)
(1.07254 0.0100312 -7.87571e-21)
(1.01287 -0.000693859 -1.49995e-21)
(1.01277 -0.000657506 1.59045e-21)
(0.911255 -0.267727 2.61354e-21)
(0.910066 -0.268759 2.65483e-20)
(1.01641 0.000451595 -5.8883e-22)
(1.01199 -2.8925e-05 -4.61305e-22)
(1.01037 0.000237306 0)
(1.01629 -0.0059838 1.70023e-23)
(0.89517 -0.302984 1.74235e-20)
(1.01281 -0.000700696 -1.51664e-21)
(1.19529 -0.010674 -5.87701e-22)
(0.97211 -0.261386 0)
(1.01467 0.00205085 -3.10095e-22)
(1.01376 0.00236707 -7.42361e-22)
(1.01332 -0.000723391 -1.45871e-22)
(1.02645 0.00220182 3.08493e-21)
(1.02773 0.101301 0)
(0.986826 -0.0680276 -1.11976e-20)
(1.20282 -0.00797818 -7.96792e-22)
(1.01359 0.00100685 5.59087e-22)
(0.986893 -0.26052 1.18279e-20)
(1.04462 0.0117797 0)
(0.815553 0.340996 0)
(0.698451 -0.414732 2.61714e-20)
(1.0638 0.032367 3.94652e-21)
(0.986725 0.00503458 -1.32694e-21)
(1.02361 0.00796784 2.31575e-21)
(1.01642 -0.00114743 2.32618e-24)
(1.01831 0.100969 -1.6596e-22)
(0.845686 0.302949 0)
(1.16341 -0.00133236 3.04235e-21)
(0.954344 -0.221212 0)
(0.995558 0.0304596 0)
(1.01357 0.00369312 0)
(1.01278 -0.00531629 -2.49363e-21)
(0.999186 0.0429487 0)
(1.01361 -0.00100769 -1.84061e-22)
(0.994553 0.0360687 0)
(1.1338 -0.0482329 0)
(1.01391 0.00888868 4.2691e-22)
(1.01327 -1.19612e-05 -4.60123e-22)
(1.0236 0.00737885 -2.2555e-21)
(1.01354 0.00335349 0)
(1.16502 -0.0387828 0)
(1.03314 0.0233053 -1.93892e-21)
(1.01338 -0.000790493 -7.44266e-23)
(1.03727 0.0223266 -7.29946e-23)
(1.04722 0.010683 0)
(0.951293 -0.280092 0)
(0.904875 -0.313295 -1.70236e-20)
(1.00565 8.92179e-05 -2.68835e-22)
(1.01265 0.000728856 -1.00044e-23)
(0.976098 0.0141943 2.17733e-21)
(1.01141 0.155064 0)
(1.01394 -0.00398028 0)
(1.06592 -0.0126449 -9.39931e-22)
(1.01393 0.000433019 2.09479e-21)
(1.01722 0.0277138 1.25044e-21)
(1.05737 0.023077 6.39967e-21)
(1.02765 0.00176445 -2.80639e-22)
(1.16134 0.0101371 -2.48651e-21)
(0.999816 0.164293 1.5946e-22)
(0.983576 0.0119914 0)
(1.01655 0.00401425 5.86179e-23)
(0.0544965 0.00683626 1.80861e-19)
(1.01041 -0.00453629 2.50878e-21)
(0.958306 0.273907 -7.34062e-21)
(1.02407 0.0066681 0)
(1.05566 0.0226989 -6.02219e-21)
(0.948956 0.0912905 -4.73874e-21)
(1.01762 0.00801388 0)
(1.07029 0.0101207 -8.63378e-21)
(1.04624 0.0196243 0)
(1.01856 0.00686635 -1.2337e-21)
(0.564093 -0.349976 3.12651e-20)
(1.01378 0.00338534 0)
(1.07461 0.237264 8.40839e-21)
(1.01879 0.00735414 2.24208e-23)
(1.02233 0.00722037 2.78092e-21)
(1.05689 0.213754 -5.11575e-21)
(0.946335 0.08042 4.41714e-21)
(0.954486 -0.220613 1.92208e-21)
(0.997088 0.0237319 -2.84239e-21)
(1.014 -0.00134125 8.34398e-22)
(0.986946 -0.00368558 0)
(1.00956 0.000177536 -1.30528e-21)
(0.990851 0.00242377 1.3012e-21)
(1.01437 -0.00154207 -2.53049e-22)
(1.01636 -0.00126209 1.08685e-22)
(0.953477 -0.0990261 -6.17391e-20)
(0.986958 -0.0872789 -2.23975e-20)
(1.01478 0.00219313 -5.43178e-22)
(1.02185 0.0292148 0)
(1.01433 0.000280759 1.65665e-21)
(1.01441 0.000153648 -3.19369e-22)
(0.825961 0.346942 0)
(1.09351 -0.0599162 -1.74392e-21)
(0.987742 -0.00826562 2.35168e-21)
(1.01241 -0.000214489 0)
(1.01335 0.00224942 -2.13628e-21)
(1.01565 2.57208e-05 0)
(1.01433 0.00346887 -9.23107e-22)
(1.04109 0.215789 1.11704e-20)
(1.228 0.0701742 2.13012e-21)
(1.01939 -0.00538109 -2.32353e-21)
(0.538756 -0.25316 -1.27134e-20)
(1.03439 0.0135973 2.4666e-21)
(0.982896 0.25506 6.85949e-21)
(1.11653 0.0273378 -4.05721e-21)
(1.01168 -0.000118182 -1.94844e-21)
(0.563197 -0.319399 -1.34696e-20)
(1.01247 -0.000425609 -2.45136e-21)
(1.02617 0.0336258 -5.46963e-22)
(1.0121 -3.04723e-05 1.47514e-21)
(0.981002 0.0139077 1.93821e-21)
(1.01367 -0.00102732 -5.52091e-22)
(1.01468 0.0047022 0)
(0.843717 -0.30119 0)
(1.01369 0.00309451 3.37407e-23)
(1.01046 -4.32674e-05 0)
(1.03608 0.0153384 3.13484e-21)
(1.0762 0.0285458 -8.82414e-22)
(0.988094 0.00758292 0)
(1.02403 0.0346609 -3.78565e-22)
(1.09746 -0.0502967 2.28762e-21)
(0.72357 -0.421146 0)
(1.01555 -0.000258081 0)
(1.00853 -0.000250416 0)
(1.01121 0.000303423 0)
(1.01627 -0.0070073 0)
(1.24636 0.112984 -2.13283e-21)
(1.01405 0.000344258 -2.06326e-21)
(1.03188 0.0113956 1.02331e-22)
(0.856242 -0.324667 -1.14867e-20)
(1.01326 4.66592e-05 1.9634e-21)
(1.07098 0.0107028 6.16161e-21)
(0.906047 -0.275417 -2.50733e-20)
(1.0127 -0.000601642 0)
(0.983042 -0.00989554 -3.65996e-21)
(0.885709 -0.260652 1.28569e-20)
(1.04464 0.0605268 0)
(1.0128 -0.000640225 0)
(1.04374 0.0129871 0)
(1.02464 0.00400213 -2.35483e-21)
(1.01425 0.00254569 6.37207e-22)
(1.0121 -5.6525e-05 2.06614e-21)
(1.01332 0.00210719 1.89795e-21)
(1.01351 -0.000933854 0)
(1.03324 0.0132314 -4.73172e-21)
(1.04223 0.0241069 -4.07449e-21)
(1.02419 0.00721408 0)
(1.01409 -0.00122909 2.32634e-22)
(0.9508 -0.0222653 0)
(1.06098 0.0156363 2.30938e-20)
(1.01408 0.00996882 0)
(1.0163 -0.000925448 -1.02704e-22)
(0.760012 -0.201382 2.02955e-21)
(1.01044 9.28616e-05 2.67715e-21)
(0.824815 -0.272157 -2.5733e-20)
(1.06218 0.0353247 5.71095e-21)
(1.0125 -0.000186414 1.71407e-21)
(1.04152 0.0228474 1.03622e-20)
(0.842223 0.353797 0)
(1.02749 0.00121682 0)
(0.664445 -0.0264692 -3.19885e-20)
(0.994246 -0.0291734 0)
(0.000798512 0.0503554 -5.8478e-20)
(1.01275 0.000679005 -1.13513e-21)
(1.06838 -0.091967 0)
(1.13483 0.0205912 1.25959e-22)
(0.939586 0.049746 1.48811e-21)
(1.01236 -0.000206188 8.53241e-22)
(0.950961 0.29316 5.085e-21)
(1.01535 0.000257099 0)
(0.935525 -0.260432 2.0116e-20)
(1.07436 0.0304355 0)
(1.02172 0.00686112 -4.15479e-21)
(1.01455 0.00364723 7.72195e-23)
(1.0719 0.0102421 0)
(1.01262 -0.000230688 -8.21345e-22)
(0.922334 0.0540557 -2.65846e-21)
(0.961497 0.0575723 -3.02672e-22)
(1.01553 0.000385567 0)
(1.00415 0.0280408 0)
(1.01264 -0.000260615 0)
(1.10022 0.213336 0)
(1.01476 0.000736192 -3.76599e-23)
(1.0939 -0.083165 8.78009e-22)
(0.393973 -0.0516129 -7.54066e-22)
(0.989453 -0.0112424 0)
(0.34495 -0.0758551 0)
(0.998528 0.0289053 0)
(1.0154 0.00150105 -1.05821e-22)
(1.13712 0.0114328 -8.31197e-22)
(1.01585 0.0045041 -5.98384e-22)
(1.01961 -0.003886 1.14069e-21)
(0.982748 0.0475913 -8.00379e-22)
(1.01795 0.0085416 0)
(1.0122 -6.3448e-05 -1.70272e-21)
(1.01469 -9.28055e-06 -2.54796e-21)
(1.06007 0.0170327 -2.23823e-20)
(1.00784 0.000170791 8.89847e-22)
(1.01416 0.00254806 -6.5854e-22)
(0.906733 -0.275173 -1.74093e-20)
(1.02205 -0.000258162 0)
(0.0338705 -0.00245503 -1.775e-19)
(1.02653 0.0309996 8.96713e-22)
(0.905844 -0.312458 8.611e-21)
(1.0391 0.210343 2.51773e-21)
(0.808536 -0.0451921 1.09402e-20)
(1.01648 -0.00140438 1.06809e-22)
(1.01514 -0.00706254 2.83956e-22)
(0.772334 0.301061 -4.23381e-20)
(1.0122 0.000423941 2.76533e-22)
(0.817186 -0.0584302 2.87139e-21)
(1.02474 0.0292921 0)
(1.03657 0.0162749 -3.76485e-21)
(1.01158 0.00025926 0)
(1.04553 0.018013 4.01285e-21)
(1.0126 -0.000227476 -1.80953e-21)
(0.951158 -0.100193 0)
(0.766737 0.288227 1.07183e-20)
(1.01515 0.0045799 6.56749e-22)
(1.02155 0.000652897 1.77925e-21)
(1.00956 8.47585e-05 -2.41328e-21)
(1.01588 0.00309076 0)
(0.148335 -0.0432046 0)
(1.01446 0.000888302 -2.14994e-22)
(1.01269 0.0331514 1.22983e-21)
(1.01222 -2.05776e-05 0)
(1.01348 0.000985296 -6.91994e-22)
(1.01326 -0.00071008 -2.17655e-21)
(1.07088 0.0283559 0)
(0.738115 0.272504 5.59066e-21)
(1.00776 0.0304566 2.68287e-21)
(0.964836 -0.0919793 2.74135e-21)
(1.00486 -0.000117223 1.59226e-21)
(1.0149 2.77786e-05 2.77141e-21)
(1.01972 0.00145681 3.18701e-21)
(1.10027 0.00174921 0)
(1.01301 0.000422337 0)
(0.997187 -0.0942722 0)
(1.01614 0.00328525 -9.02718e-22)
(0.998228 -0.0103141 -2.5485e-21)
(1.03761 0.00471047 3.96958e-21)
(1.01423 0.00216624 -9.98887e-22)
(1.00484 -3.88614e-05 0)
(0.855104 0.355731 -4.01612e-21)
(1.01259 -0.000507111 0)
(0.819783 0.0816328 1.58555e-21)
(0.708659 -0.0134012 2.47617e-20)
(1.03648 0.00461453 5.10401e-21)
(1.01355 0.000108676 3.31359e-22)
(0.158966 -0.182591 -1.99417e-20)
(0.999252 -0.0218705 0)
(1.0134 -0.000828382 0)
(0.989711 -0.00745569 0)
(1.00956 -1.02623e-05 0)
(1.05695 0.0376578 0)
(1.00743 -0.0138261 2.1508e-21)
(1.01219 0.000212762 -1.24415e-22)
(0.807712 0.0846035 6.61237e-21)
(1.00093 0.0349794 -2.83935e-21)
(1.01417 -0.00156486 1.322e-21)
(0.901001 -0.128694 -3.1872e-21)
(1.02123 -0.00275545 -9.64917e-22)
(1.0199 0.00128638 1.79768e-21)
(1.01254 -0.000243223 0)
(1.03472 0.0151895 3.3842e-21)
(0.949511 0.0615613 -1.50299e-21)
(1.01638 -0.000924507 1.13409e-22)
(1.06478 0.214628 1.38082e-21)
(0.996149 -0.0179953 0)
(0.841795 0.288492 -8.3328e-21)
(1.01301 0.000488335 -2.31946e-21)
(1.01495 -0.00848095 -4.32457e-22)
(0.896009 -0.146633 3.34307e-21)
(0.808309 0.117326 -7.4946e-21)
(1.01503 0.000193195 8.25715e-23)
(1.01402 0.00302666 2.21103e-22)
(1.01662 0.00400288 -7.63297e-23)
(1.01395 -0.00143203 -2.11397e-21)
(1.01009 -0.0149771 -2.4029e-22)
(0.991649 -0.0132276 -2.30329e-21)
(1.01319 -0.000642948 3.72856e-21)
(0.960974 -0.0247021 0)
(0.913323 -0.294744 1.67412e-20)
(1.01409 -0.00137486 1.38121e-21)
(1.00758 -9.86019e-05 0)
(0.951642 -0.113709 -1.3288e-21)
(1.00147 -0.0102044 2.48038e-21)
(1.0588 0.0641668 -1.94199e-22)
(0.937996 0.00203511 0)
(1.01467 0.000274446 0)
(1.01736 -0.0148769 -3.19368e-22)
(1.01325 0.0018372 -1.05317e-21)
(1.02096 -0.00152344 0)
(1.05389 0.0368798 -3.26534e-21)
(1.01544 0.000505349 -2.30973e-21)
(1.01916 0.00512642 0)
(0.996527 0.0127562 3.19796e-21)
(1.00993 -7.63984e-06 2.68852e-21)
(0.924166 -0.287567 0)
(0.982993 -0.00473393 -6.15049e-22)
(0.595017 -0.31832 -2.27891e-20)
(1.05395 0.0628558 9.44873e-22)
(1.0127 -0.000192075 0)
(0.86234 -0.309678 1.12196e-20)
(1.11869 0.036956 9.61752e-22)
(1.06211 0.0420981 0)
(1.01645 -0.00150494 -1.28475e-22)
(1.00847 -0.0125126 2.78671e-21)
(1.01043 0.000270683 -8.52539e-22)
(1.0122 -0.000108661 0)
(1.01289 0.000558055 2.1337e-21)
(1.01268 0.000492367 -1.909e-21)
(1.01605 -0.00765611 -2.94168e-21)
(-0.0114391 0.0581325 8.79716e-20)
(1.03156 0.00372702 0)
(0.985807 0.0189171 0)
(1.01769 -0.00726258 0)
(1.01547 0.000159287 1.85663e-21)
(0.836522 0.315089 0)
(1.01649 -0.0178206 0)
(1.01573 0.00491938 -1.63685e-22)
(1.00334 6.44265e-05 0)
(0.748033 -0.103903 3.12481e-21)
(1.00447 2.18104e-05 -1.3788e-21)
(1.01882 0.00662557 -2.74206e-23)
(1.01635 0.000430178 -6.91655e-22)
(1.03093 0.0119619 0)
(0.878161 -0.239559 7.59566e-21)
(0.879766 -0.314481 -1.15125e-20)
(1.03302 0.0117382 -4.94144e-21)
(1.01298 0.000657425 0)
(1.01904 -0.005159 1.32687e-21)
(1.01782 -0.00585565 -1.39581e-21)
(0.840711 0.336581 0)
(1.0163 -0.00103363 -1.30871e-22)
(1.0066 0.000150084 0)
(1.01306 0.00057733 3.54154e-23)
(1.01215 -0.000305986 -1.29171e-23)
(1.00662 0.139009 0)
(1.01323 0.00123042 2.34139e-23)
(0.99577 -0.00528872 2.51601e-21)
(0.965698 0.173819 8.94743e-22)
(0.72507 0.099327 2.0784e-20)
(1.01576 0.132458 -4.69463e-22)
(1.01856 0.00555358 0)
(0.986644 0.186688 2.55773e-21)
(0.978606 0.0413802 7.90575e-22)
(1.01323 0.00170582 0)
(1.08466 0.0177688 0)
(1.01426 -0.00150885 -1.88652e-21)
(1.01225 0.000424946 9.90456e-22)
(1.0143 -0.00144867 -1.26265e-21)
(1.01359 -0.000281692 7.66684e-22)
(1.0133 -0.000756045 -7.31437e-22)
(1.01651 0.0031297 -1.02491e-21)
(0.557106 -0.466345 2.06982e-24)
(1.03107 0.00438329 8.07267e-21)
(1.027 -0.0146658 5.55519e-22)
(0.895475 -0.289734 -7.92964e-21)
(0.785798 0.274582 4.89735e-21)
(1.01635 0.00179996 0)
(0.922377 -0.258371 0)
(1.01602 0.000123819 -4.46522e-22)
(1.07291 0.0103757 8.71173e-21)
(1.01372 0.000920733 -5.97586e-22)
(0.210009 -0.11703 0)
(1.02112 -0.00370767 0)
(0.817914 0.322034 0)
(0.292792 -0.201897 -1.15693e-19)
(1.01575 0.000203977 -1.98954e-21)
(1.11057 0.0418544 -4.88108e-21)
(1.01722 0.00104306 -1.37032e-21)
(1.02726 0.178738 -4.26737e-21)
(1.01662 0.0033253 -4.65501e-22)
(1.06358 -0.0580931 -1.52192e-20)
(1.03491 0.0365581 0)
(0.805417 0.0105872 -1.42141e-21)
(1.0301 0.00432419 -2.51266e-21)
(1.03177 -0.106168 2.03482e-21)
(1.01076 0.00291754 -1.78455e-21)
(1.02292 0.0405692 -5.94336e-22)
(0.837974 0.335827 0)
(1.013 -0.000547624 -1.50702e-21)
(1.01134 0.00298453 1.97637e-21)
(1.01048 1.4694e-05 0)
(0.913052 -0.291648 0)
(1.0123 -0.000124644 0)
(1.01419 -0.0012521 6.9825e-22)
(1.12104 0.0213077 3.74104e-21)
(1.01242 0.00906418 3.73144e-21)
(0.972318 0.0272065 0)
(1.0797 -0.051494 -2.64e-20)
(1.01436 0.000883108 1.48033e-22)
(1.06433 0.0388457 4.33322e-21)
(1.0118 0.00818738 -4.94993e-21)
(1.01341 -0.0008975 1.39363e-21)
(1.03291 0.0378891 0)
(0.914859 -0.271514 8.71138e-21)
(1.01709 0.00048715 1.96396e-21)
(1.02989 0.0113692 0)
(1.06221 0.432813 -7.08521e-20)
(0.991858 -0.0040839 0)
(1.00775 -5.14971e-05 2.3738e-22)
(0.680147 -0.447425 -2.57465e-20)
(1.01237 -0.00038763 1.51912e-21)
(1.01244 -0.0131096 2.62598e-21)
(1.03764 -0.00865981 0)
(0.802568 -0.171644 -6.05916e-21)
(1.17649 0.0272714 1.2659e-21)
(0.92615 -0.0433856 1.53227e-22)
(1.04607 -0.0817469 0)
(1.23069 0.12303 0)
(0.936228 -0.240769 -1.17526e-20)
(1.01446 -0.00139124 0)
(1.00473 -0.0135592 2.52556e-21)
(0.948152 -0.149612 -1.05345e-22)
(0.96688 -0.141076 -2.62387e-22)
(1.08257 0.0195318 4.61816e-21)
(1.01516 0.00122497 -3.77267e-22)
(1.01301 0.000677236 -2.1926e-21)
(0.993306 0.0188358 0)
(0.610503 -0.492052 1.28847e-21)
(1.01412 -0.00131806 1.01751e-21)
(1.01742 -0.00423327 5.59497e-23)
(1.0094 0.000249716 3.02175e-21)
(1.01603 0.00180848 -2.16699e-22)
(1.01251 -0.000896409 -1.99025e-21)
(1.01219 -0.000555949 1.98977e-21)
(1.01369 -0.000178541 0)
(1.00784 0.000114446 0)
(0.98253 0.00238024 -6.45626e-22)
(1.03738 0.0025493 0)
(1.01458 -0.0139537 -1.71376e-24)
(0.981276 -0.00257958 -3.49444e-21)
(1.21709 0.148408 0)
(1.01395 -0.000672226 -2.58822e-21)
(0.279419 -0.261547 3.85012e-23)
(1.09939 0.399024 5.2201e-20)
(0.907787 0.225469 3.64255e-21)
(1.01045 -1.06122e-05 -3.32293e-21)
(1.05834 0.00730505 0)
(1.00865 -0.000111239 -9.02336e-22)
(0.793417 0.255282 4.08191e-21)
(1.02028 0.00227763 3.9747e-23)
(1.00104 -0.0271299 0)
(1.02962 0.0049221 -4.46653e-21)
(0.98498 0.233609 9.51642e-21)
(1.01129 -7.7343e-05 1.82218e-21)
(1.04699 0.0165311 0)
(1.01771 -0.00453531 1.27387e-22)
(1.00707 -0.0125074 0)
(1.04678 0.15688 0)
(1.00905 -5.09795e-05 1.36384e-21)
(1.01195 0.000314092 -8.82164e-22)
(1.01424 0.00327731 -1.64175e-21)
(0.966856 -0.299537 -4.39646e-20)
(1.01222 -1.24034e-05 0)
(1.00611 -0.0186011 -3.47389e-22)
(1.06658 0.013191 2.95672e-22)
(1.10931 0.0508409 5.95956e-22)
(1.01516 -0.000100243 0)
(1.00227 -0.0200385 0)
(0.814237 0.0835587 0)
(1.11313 0.306896 -3.58954e-21)
(1.02124 0.00591939 -3.02589e-23)
(1.01012 0.000248776 7.43866e-24)
(0.811121 0.0383514 1.09711e-20)
(0.989804 -0.273318 4.32544e-20)
(1.03996 0.0695248 3.63856e-21)
(0.89563 -0.143234 -1.03848e-22)
(1.01013 0.000161345 0)
(0.984212 -0.0270505 7.21582e-22)
(0.990893 0.030532 -2.61533e-21)
(1.00622 0.036296 0)
(1.0247 0.0250518 -1.88355e-21)
(0.924929 -0.250178 -1.94673e-20)
(1.01516 -0.000246709 0)
(1.01495 0.00116378 2.47614e-23)
(1.01961 0.00825934 8.48423e-22)
(0.828067 0.122663 0)
(1.01493 0.00211104 -2.29311e-23)
(1.00465 0.170094 -1.79892e-21)
(1.01592 0.00173122 -1.87892e-22)
(1.02162 0.00492795 -2.44773e-22)
(1.01396 -0.00084284 -2.01546e-21)
(1.01988 0.0394318 6.36883e-22)
(0.876652 -0.133649 4.83764e-22)
(1.01849 0.00862243 -9.26575e-24)
(1.02892 0.0117509 -3.68415e-21)
(0.785052 -0.113783 0)
(0.988591 -0.0237983 0)
(0.980198 -0.00990125 -4.61093e-21)
(1.01877 0.008348 -3.52026e-24)
(1.0133 0.00268608 1.87242e-21)
(0.976246 -0.0260554 -1.09314e-21)
(1.13414 0.280359 0)
(1.01881 0.00593802 0)
(1.01352 -0.000703889 8.62558e-24)
(1.05733 0.0150502 -1.43261e-21)
(1.01663 0.00418436 5.79084e-23)
(1.01827 0.00443984 1.51308e-22)
(0.929768 -0.0681029 0)
(1.01231 -0.000179805 0)
(0.756105 0.310786 -1.42699e-20)
(1.01309 0.000709687 -2.69827e-22)
(0.980482 0.0550581 3.37529e-21)
(1.01963 -0.00869773 0)
(0.23724 -0.0737869 0)
(1.01507 0.00213507 -1.92553e-22)
(1.05891 0.0101843 -1.05109e-20)
(1.01464 0.00064481 0)
(1.0129 4.03824e-06 0)
(0.80448 -0.107158 -5.00056e-22)
(1.01663 -0.00166341 -1.08486e-22)
(0.883256 0.269099 -8.31831e-21)
(1.04468 0.0697426 -1.44021e-21)
(1.01263 -0.000645501 0)
(1.02224 -0.0083092 -2.22583e-21)
(0.62286 -0.29753 2.87009e-20)
(1.10479 0.171963 0)
(0.987923 0.00147324 3.50239e-21)
(1.00994 1.32e-05 -1.67565e-21)
(1.01356 -0.000743432 1.65179e-21)
(1.01376 -0.000975667 -9.33245e-22)
(1.01675 -0.00462333 1.3584e-21)
(1.01183 -0.0127426 -5.43956e-22)
(1.01932 0.00767503 0)
(1.003 -0.171249 5.26948e-21)
(1.01691 0.0040341 0)
(1.01547 -0.000569081 1.21842e-22)
(0.852721 0.367899 -2.56674e-20)
(1.04498 0.0210312 -6.93752e-23)
(1.01033 -0.0143191 0)
(1.0071 -8.23465e-05 -1.57718e-21)
(1.01211 0.00042306 2.02365e-22)
(0.864326 0.354166 1.47085e-20)
(0.894635 -0.228244 -7.76166e-21)
(1.01948 -0.00719951 5.3272e-22)
(0.933712 -0.205241 0)
(1.01931 0.000782556 0)
(1.05956 0.0129554 0)
(1.01394 -0.000607669 -2.64836e-21)
(1.01276 -0.000684426 0)
(1.01415 0.00340716 2.67503e-21)
(1.01389 0.00298117 0)
(1.01953 0.00651591 -1.16414e-22)
(1.00997 4.21533e-05 0)
(0.151544 -0.124284 6.84601e-21)
(1.02823 0.00532886 4.10812e-21)
(0.905283 0.0279783 0)
(1.01385 0.00188297 -8.06114e-22)
(1.02071 -0.00379248 -1.19175e-23)
(1.01315 -0.000636595 -2.123e-22)
(0.97262 -0.0101858 -5.48183e-21)
(1.07744 0.236393 0)
(1.01251 -0.000580271 0)
(1.0141 0.00204327 0)
(0.94757 -0.005848 0)
(0.992872 -0.016646 0)
(1.01304 -0.000572413 0)
(0.728741 0.198278 0)
(1.01281 0.000562976 -6.42532e-22)
(0.99436 0.00160734 0)
(1.01199 -1.61674e-05 2.33904e-21)
(1.01294 0.000412004 -3.08817e-22)
(1.01276 7.71723e-06 1.30116e-22)
(0.728747 -0.0901933 -3.59797e-21)
(1.0131 -0.000573102 0)
(1.01432 0.00121138 -2.23313e-21)
(1.01308 0.00124843 -2.74084e-21)
(0.764535 0.235768 5.25222e-20)
(1.01039 -0.000161885 1.99134e-23)
(1.01397 0.00322338 -2.78014e-21)
(1.00996 3.4151e-06 -9.28395e-22)
(1.08834 -0.03925 -1.41141e-21)
(1.01638 0.00192324 -4.72726e-22)
(1.01483 0.00271948 -2.566e-22)
(1.01178 -0.000137053 -1.16624e-21)
(1.01494 0.00275462 0)
(1.02582 0.0268704 0)
(1.0144 0.00265231 6.35906e-22)
(1.02004 -0.00298045 2.02466e-21)
(1.01407 -0.000584391 9.72022e-22)
(0.259559 -0.137566 5.37792e-20)
(0.966957 -0.237045 0)
(1.00898 0.23343 -1.40944e-20)
(1.01688 0.00331828 4.7852e-22)
(1.05177 0.00563625 9.61806e-21)
(1.0147 0.000734077 1.29527e-23)
(0.975926 -0.0829991 0)
(1.01643 -7.05685e-05 2.38764e-23)
(0.902805 -0.30647 -1.40133e-20)
(0.912316 -0.0026929 2.66389e-21)
(0.995413 0.259018 -1.03166e-21)
(0.995045 -0.00374364 0)
(0.828687 -0.100411 3.55096e-21)
(1.01906 0.000755854 0)
(1.01906 0.00541181 0)
(0.883286 -0.0492215 1.67459e-20)
(1.08511 -0.029013 3.07324e-21)
(1.02019 -0.0141619 2.74301e-21)
(1.08009 -0.00954703 -2.63364e-21)
(1.02569 0.00576407 -3.07715e-21)
(0.909401 -0.183073 4.14547e-22)
(1.01283 0.000716356 1.90398e-21)
(1.02069 0.00637131 0)
(1.0141 -0.000639647 1.91596e-21)
(1.01211 -1.1614e-05 1.9771e-21)
(1.01148 0.000323614 8.5105e-22)
(0.868812 0.00948054 -2.72692e-20)
(1.0359 0.00551933 1.74755e-21)
(1.01045 -0.000141881 -7.27003e-22)
(0.443914 -0.43344 -1.66132e-21)
(1.01639 0.00349396 0)
(0.961344 -0.0759965 5.72721e-21)
(1.01698 -0.00593794 9.32958e-23)
(1.03624 0.00276231 -7.784e-21)
(1.00586 -0.0135722 -2.9875e-21)
(1.01064 0.000144371 -1.07553e-21)
(0.927853 -0.284651 -1.82548e-21)
(1.01335 0.0005868 -3.49366e-22)
(1.01395 0.0028711 9.51267e-22)
(0.919571 0.0328203 3.7742e-21)
(1.02168 0.00537433 1.64984e-21)
(1.01593 -0.000672712 -1.66652e-24)
(1.00771 -8.20686e-06 0)
(1.01311 0.000707615 2.89276e-23)
(1.01232 0.000712975 2.10453e-22)
(1.09014 0.0042838 4.73101e-21)
(0.906621 -0.0678439 0)
(0.988152 -0.215471 0)
(1.02602 0.00163289 0)
(1.01373 0.000471783 -4.49657e-21)
(1.01299 0.000851436 1.95399e-21)
(0.888561 -0.194757 -2.50433e-22)
(1.01301 0.00849409 0)
(1.0133 0.00299577 -2.24129e-21)
(1.01226 -0.000260418 -9.57794e-22)
(1.0128 0.000654625 -1.95729e-21)
(0.832673 -0.141609 -5.09309e-21)
(0.926973 -0.0951474 -3.76947e-21)
(1.00618 -0.0102034 1.56183e-22)
(1.01577 0.00406232 7.43359e-22)
(1.01214 -8.15233e-06 -1.14073e-21)
(0.441793 -0.200364 0)
(1.05995 0.0111203 0)
(1.01543 -0.00929006 5.85929e-21)
(0.972487 0.00860231 0)
(0.878684 -0.079274 1.37285e-21)
(0.831215 0.278814 8.07534e-21)
(0.849254 -0.176501 5.74688e-21)
(1.01284 0.000673223 1.87292e-21)
(1.00995 1.96929e-05 -2.31396e-23)
(1.01331 0.000586685 0)
(0.993651 -0.172121 0)
(1.01275 0.000655875 1.78555e-21)
(1.05435 0.00668029 -2.45513e-21)
(1.0146 -0.000535542 -1.38408e-21)
(1.01662 -0.001762 -5.19126e-25)
(1.01122 -0.0137234 0)
(1.01639 -0.00160484 0)
(0.651887 -0.128611 0)
(0.548374 -0.0147604 1.24427e-20)
(1.01354 -0.000979211 0)
(1.01452 0.00202496 3.55726e-23)
(1.01429 -0.00118163 0)
(0.931428 -0.0289596 1.40204e-21)
(1.01211 -1.38581e-05 0)
(1.03946 -0.123627 -1.72628e-20)
(1.01886 -0.00395367 -2.91888e-21)
(0.819258 -0.175334 9.76823e-22)
(1.01349 0.000501215 -1.66912e-21)
(1.015 -0.00109944 0)
(1.01251 -0.000566932 1.07604e-21)
(1.0149 0.0012384 1.51235e-22)
(1.01885 0.00481664 0)
(1.01771 -0.00328634 1.46628e-22)
(1.02052 0.00211682 0)
(1.02946 0.00628156 4.36556e-21)
(1.02393 -0.0167143 -2.9356e-21)
(1.04621 0.0148671 0)
(1.06817 0.147403 -8.02657e-21)
(1.01849 0.000202714 -2.00638e-21)
(1.06889 -0.0286739 -3.46775e-21)
(0.895022 -0.0127497 0)
(1.01541 -1.88832e-05 -2.15193e-21)
(0.733309 -0.384467 0)
(1.01347 0.00174534 -1.19304e-21)
(1.01395 0.00179936 3.86125e-23)
(1.02189 -0.00439769 -1.49897e-21)
(1.00951 -8.53754e-05 0)
(0.916231 -0.181166 -1.94232e-20)
(1.01436 -0.00046679 0)
(1.01685 0.00348516 0)
(1.01414 -0.000832115 2.9677e-21)
(0.865926 0.345307 -1.33194e-20)
(1.01481 -0.000972563 0)
(1.01319 -0.146957 -8.85492e-21)
(1.04899 0.0595421 0)
(1.01366 0.000443933 2.16413e-21)
(0.939753 0.0994641 -5.91335e-21)
(0.973318 -0.200281 -4.08446e-21)
(1.01765 -0.00642901 -8.87224e-23)
(1.01343 -3.50647e-05 4.23183e-23)
(1.08574 -0.00772692 6.31513e-22)
(1.00392 8.52672e-05 0)
(0.923975 0.231748 1.30964e-21)
(1.02597 -0.011566 0)
(1.03853 0.0165504 1.32802e-21)
(1.01285 -0.0177333 0)
(1.02529 0.00168595 0)
(1.02173 0.00625274 3.12364e-21)
(1.01406 0.00397366 -1.31425e-21)
(0.993537 0.00926245 1.8722e-21)
(1.02294 -0.00252424 1.57832e-22)
(1.01987 0.0855688 1.83541e-22)
(1.08355 0.184538 0)
(1.01683 -0.00192439 1.20932e-22)
(1.01785 -0.00479726 9.069e-23)
(1.0165 3.43396e-05 2.19887e-21)
(1.0395 -0.00473298 2.2821e-21)
(1.0041 7.17882e-05 0)
(1.02852 -0.177753 -1.39994e-20)
(1.02879 0.00233545 5.95689e-21)
(1.01861 0.00618914 6.15612e-22)
(0.909939 0.0109917 6.99934e-22)
(1.01328 0.000585131 -2.02916e-21)
(1.08694 -0.00264701 0)
(1.00602 0.0405017 0)
(1.01268 0.000191084 -8.57133e-22)
(1.05779 -0.0433178 0)
(1.01147 -0.00399325 0)
(1.01428 0.000869988 2.26086e-21)
(1.0179 -0.000695565 -2.90202e-21)
(0.981936 0.035481 -2.12471e-21)
(1.01305 0.000676633 2.29656e-21)
(0.812789 0.288307 -1.88314e-20)
(1.02855 0.00609329 -8.39888e-21)
(0.979644 0.0283393 -7.37355e-22)
(1.05582 0.00638992 0)
(1.08957 -0.0762783 0)
(1.01737 -0.000218723 2.50661e-21)
(1.0098 0.0346528 0)
(1.01604 0.00151385 9.42746e-22)
(1.02978 0.0070934 3.44843e-23)
(1.04471 0.0571437 0)
(1.01242 -0.000436639 -8.93946e-23)
(0.988658 0.0352995 3.05829e-21)
(1.01431 0.00145384 -2.43884e-21)
(1.03008 0.00294705 -2.49576e-21)
(1.01501 -0.00140802 -1.19037e-21)
(1.01419 0.000670094 2.46577e-22)
(1.03676 0.0129758 3.59636e-21)
(1.03408 0.074891 -2.63047e-21)
(1.00983 0.000173321 7.26233e-22)
(1.02604 0.00375475 0)
(0.935383 -0.0677363 -1.60951e-22)
(1.01241 -0.000346043 -1.6109e-21)
(1.01342 0.000517045 5.29538e-22)
(1.01399 0.00182061 0)
(1.01435 -0.00137776 0)
(1.00317 -0.00941058 0)
(1.01947 0.000795373 0)
(1.01566 0.00203247 -5.31786e-22)
(1.00492 -0.00662689 -2.103e-21)
(0.939792 -0.0967232 0)
(1.01852 0.00473867 0)
(0.998103 0.00276378 3.12555e-21)
(0.946089 0.215546 3.39006e-21)
(1.01267 0.000576724 -2.44421e-22)
(1.0151 0.000872996 0)
(1.01443 -0.00129409 0)
(0.848043 -0.145303 0)
(0.877612 -0.0387679 3.25179e-21)
(1.04296 0.0209589 -6.67953e-23)
(1.01194 0.000283746 1.86504e-21)
(1.01725 0.0776376 7.08631e-23)
(1.12196 0.249996 -2.44107e-20)
(0.41225 -0.405016 1.66788e-21)
(1.01747 -0.00260731 2.33631e-21)
(0.830303 -0.119521 1.0937e-21)
(1.18256 0.144493 0)
(1.03472 0.19365 -1.10247e-20)
(1.01206 -0.00500817 -4.74884e-23)
(1.01766 -0.00342012 -7.21232e-23)
(1.01858 -0.00510973 -1.43103e-21)
(1.07899 0.118489 -9.28525e-21)
(0.95605 -0.0509271 6.4936e-21)
(1.02875 0.00481441 8.20437e-21)
(0.301874 -0.320783 1.86066e-21)
(1.0491 0.0113097 0)
(1.06694 -0.0254619 1.67929e-21)
(0.923072 -0.119273 2.11279e-20)
(1.01388 0.00199795 -1.30951e-21)
(1.02509 0.025196 2.84386e-21)
(0.907129 0.275058 0)
(1.04509 0.0503639 -2.56409e-21)
(0.731186 0.27846 -9.14225e-21)
(0.992806 0.0118761 0)
(0.202522 -0.237909 6.44893e-21)
(1.01609 0.00241997 1.24698e-21)
(0.858952 -0.215463 0)
(1.02122 0.00546486 -1.46475e-21)
(1.00694 -0.00690136 2.16898e-21)
(1.00974 0.000152337 0)
(0.997515 0.00428426 5.21313e-21)
(1.01612 -0.000889402 0)
(1.02114 0.00684362 0)
(1.01436 0.00210164 1.43034e-22)
(0.696398 -0.059701 -4.70921e-21)
(1.01463 -0.00019058 6.71838e-22)
(1.01685 -0.00202857 -1.36396e-22)
(0.838545 0.355039 1.29791e-20)
(1.02034 0.00450662 -1.75443e-21)
(1.05238 0.0242905 2.87692e-21)
(1.01763 -0.00343596 -2.56736e-21)
(1.01605 0.0751815 6.03319e-22)
(1.0126 -0.000273023 7.50119e-23)
(1.02888 0.0128744 4.49165e-22)
(1.01655 0.00384426 0)
(1.01589 0.000624647 2.31409e-21)
(1.01643 0.00339876 0)
(1.05687 0.00765766 -1.4637e-21)
(1.01241 0.000765953 0)
(0.977197 0.468681 3.11112e-20)
(1.04661 0.0161747 0)
(1.06878 0.00475247 1.71463e-21)
(1.01473 -0.000335153 7.15618e-22)
(0.981551 -0.195658 -5.59659e-21)
(1.01223 0.000596372 0)
(1.09217 -2.34856e-05 2.24976e-21)
(0.927113 -0.00667059 -5.40304e-22)
(1.02405 -0.00142798 -3.97491e-23)
(1.01655 0.00369817 1.86067e-23)
(1.01385 -0.00122046 -1.81008e-21)
(1.01585 0.000937309 0)
(1.01572 0.000360306 -6.11819e-22)
(1.11448 0.175084 1.26423e-21)
(0.987581 -0.0277269 0)
(1.01308 0.000786536 -4.05342e-21)
(1.10588 -0.0369256 -3.0847e-21)
(1.01091 -8.91181e-05 1.72162e-21)
(1.01379 0.000583773 6.91069e-23)
(0.909986 -0.301503 1.80255e-20)
(1.01406 -0.000862816 0)
(1.01617 0.000516079 0)
(1.11959 0.0190293 -1.05498e-20)
(1.01257 0.00069053 1.17416e-21)
(1.04469 -0.090026 -3.97074e-22)
(1.03541 0.0126002 0)
(0.941421 0.00477002 0)
(1.05489 0.0205771 4.30601e-21)
(0.994012 -0.0248397 0)
(1.02256 -0.0104088 0)
(1.01684 0.00414941 -1.14184e-23)
(0.800803 -0.425196 -1.77993e-19)
(0.6859 -0.346554 1.14668e-19)
(1.01397 0.00200808 8.84155e-22)
(0.989168 0.0259985 -1.95614e-21)
(0.681981 -0.146066 5.3454e-22)
(0.976785 0.438745 -4.38407e-20)
(1.02331 0.201668 -3.16899e-21)
(1.00851 -1.62819e-05 -9.26584e-22)
(1.0141 -0.000351409 0)
(1.01494 0.00207455 -4.93238e-22)
(1.0193 0.00684575 0)
(1.01297 -0.00489282 -3.55311e-21)
(0.94731 -0.101519 -3.50302e-21)
(1.05121 0.00698922 0)
(1.01385 -0.00108457 -6.77367e-24)
(1.06916 0.0150664 1.20693e-20)
(0.905983 0.199019 -3.72295e-21)
(0.887016 -0.00668479 3.70026e-22)
(1.01367 -0.000947677 3.66098e-22)
(1.01432 -0.00109803 1.12145e-22)
(1.00975 -0.000113441 1.25284e-21)
(1.02591 0.0064056 1.96258e-22)
(0.944069 -0.295274 1.43078e-20)
(1.09555 0.0621877 2.14573e-22)
(1.01478 -0.00107233 0)
(1.05413 0.0108251 -8.91163e-21)
(1.03418 0.0957686 1.87738e-22)
(1.01431 0.00419737 -1.1411e-21)
(1.01229 0.000358566 -5.86467e-23)
(0.416247 -0.343115 0)
(1.01125 0.00896362 1.12851e-21)
(0.966704 -0.0527759 1.69781e-21)
(1.01502 -0.00553999 1.70323e-21)
(1.01042 3.96712e-05 0)
(1.02606 0.00268324 -3.2113e-21)
(1.0186 0.000821002 0)
(0.96797 -0.0602772 5.73264e-21)
(1.03744 0.0454802 -1.43301e-22)
(1.01399 0.00364236 0)
(0.846443 0.0899256 -8.5298e-21)
(1.1008 0.200043 0)
(1.02948 -0.152613 -5.85788e-21)
(1.04204 0.0199664 -6.0058e-21)
(1.01222 0.00935323 -1.06784e-21)
(0.374652 -0.3262 0)
(1.07223 0.0148001 -2.87343e-21)
(0.91092 -0.014892 2.88005e-20)
(1.06682 0.0106282 1.61367e-20)
(1.01868 0.00528727 6.64643e-22)
(1.0132 0.00134961 -3.26164e-22)
(1.06165 -0.130004 0)
(1.08066 0.18235 0)
(1.01172 0.0037387 0)
(1.05249 0.0110096 1.06927e-20)
(1.07473 0.0133875 -5.38443e-22)
(1.01442 0.00165781 2.43889e-21)
(1.05829 -0.00690726 0)
(1.01185 0.00430995 0)
(1.0148 0.000941732 0)
(1.00856 -7.83254e-05 5.93242e-24)
(1.07052 0.0141566 -1.34146e-20)
(1.01422 0.000979928 0)
(1.01436 0.00219856 1.8734e-22)
(0.0950048 0.118946 1.29663e-20)
(1.01299 0.00048504 -2.18368e-21)