/*--------------------------------*- C++ -*----------------------------------*\
| =========                 |                                                 |
| \\      /  F ield         | OpenFOAM: The Open Source CFD Toolbox           |
|  \\    /   O peration     | Version:  v2012                                 |
|   \\  /    A nd           | Website:  www.openfoam.com                      |
|    \\/     M anipulation  |                                                 |
\*---------------------------------------------------------------------------*/
FoamFile
{
    version     2.0;
    format      ascii;
    class       volVectorField;
    location    "100";
    object      cellDisplacement;
}
// * * * * * * * * * * * * * * * * * * * * * * * * * * * * * * * * * * * * * //

dimensions      [0 1 0 0 0 0 0];


internalField   nonuniform List<vector> 
10042
(
(0 -0.000599671 0)
(0 -0.000533311 0)
(0 -0.000649886 0)
(0 -2.99377e-05 0)
(0 1.99101e-07 0)
(0 -0.000502061 0)
(0 -5.49873e-05 0)
(0 -4.02718e-05 0)
(0 -0.00068068 0)
(0 -0.000495335 0)
(0 2.20287e-06 0)
(0 -5.72301e-05 0)
(0 -0.000419995 0)
(0 -0.000263108 0)
(0 -0.000181142 0)
(0 -0.000546124 0)
(0 -0.000557545 0)
(0 -6.01331e-05 0)
(0 -0.000602055 0)
(0 -1.43328e-06 0)
(0 -0.00049301 0)
(0 -9.65085e-05 0)
(0 -0.000136462 0)
(0 -0.000505953 0)
(0 -0.000520994 0)
(0 -0.000308117 0)
(0 -0.000392786 0)
(0 -0.000273309 0)
(0 -0.000602372 0)
(0 -0.00032638 0)
(0 -0.000536856 0)
(0 2.19561e-06 0)
(0 -0.000480132 0)
(0 -0.000386453 0)
(0 -0.000255847 0)
(0 -0.000499816 0)
(0 -0.00031236 0)
(0 -0.000323608 0)
(0 -0.000475712 0)
(0 -9.74328e-05 0)
(0 -9.99928e-07 0)
(0 -0.000205705 0)
(0 -5.92832e-05 0)
(0 -0.000415321 0)
(0 3.08275e-07 0)
(0 -0.000192611 0)
(0 -0.000295987 0)
(0 -0.000201567 0)
(0 -0.000297626 0)
(0 -0.000362922 0)
(0 -7.3182e-05 0)
(0 -0.000805059 0)
(0 -0.000205028 0)
(0 -0.000703549 0)
(0 -0.000305541 0)
(0 -0.000511548 0)
(0 -0.00060158 0)
(0 -0.000305683 0)
(0 -0.00039668 0)
(0 -0.000211788 0)
(0 -0.00053246 0)
(0 -0.000575413 0)
(0 -0.000242498 0)
(0 -0.000652307 0)
(0 -0.000283341 0)
(0 -0.000407255 0)
(0 -0.000345259 0)
(0 -5.64491e-06 0)
(0 1.71677e-06 0)
(0 -0.000506244 0)
(0 -0.000715513 0)
(0 -3.93789e-07 0)
(0 -0.000409897 0)
(0 -4.51109e-05 0)
(0 -0.000353538 0)
(0 -0.000527469 0)
(0 4.97888e-07 0)
(0 -0.00060118 0)
(0 -6.20418e-05 0)
(0 -4.47935e-05 0)
(0 -0.000308391 0)
(0 -1.50276e-07 0)
(0 -0.000441915 0)
(0 -0.000234741 0)
(0 -0.000343776 0)
(0 -0.000215636 0)
(0 -0.000599444 0)
(0 -1.00398e-05 0)
(0 -0.000444578 0)
(0 -0.00060238 0)
(0 -0.000478799 0)
(0 -6.80521e-08 0)
(0 -0.00026514 0)
(0 -0.000810177 0)
(0 -0.000334492 0)
(0 -0.000525489 0)
(0 -0.000621634 0)
(0 -0.000526363 0)
(0 -0.000104411 0)
(0 -0.000622225 0)
(0 -1.15614e-05 0)
(0 -2.07503e-05 0)
(0 -4.72796e-05 0)
(0 -0.000230409 0)
(0 -0.000278797 0)
(0 -3.16996e-05 0)
(0 -0.0005716 0)
(0 -0.000623537 0)
(0 -0.0004752 0)
(0 -0.000802575 0)
(0 -0.000156433 0)
(0 -0.000576091 0)
(0 -0.000193227 0)
(0 1.87148e-06 0)
(0 -0.000290055 0)
(0 -0.000580767 0)
(0 -0.000524468 0)
(0 -0.000599063 0)
(0 -0.00053337 0)
(0 2.03989e-06 0)
(0 -0.000451265 0)
(0 -4.40673e-05 0)
(0 -0.000406898 0)
(0 -0.000527237 0)
(0 -2.3132e-05 0)
(0 -0.00043396 0)
(0 -3.89336e-05 0)
(0 -0.000238879 0)
(0 -3.37414e-05 0)
(0 -0.000601734 0)
(0 -5.74199e-05 0)
(0 -0.000387104 0)
(0 2.16453e-06 0)
(0 -4.64514e-05 0)
(0 -0.000621465 0)
(0 -4.11037e-05 0)
(0 2.15042e-06 0)
(0 -0.000466704 0)
(0 -0.000189321 0)
(0 -8.44381e-06 0)
(0 -0.000255857 0)
(0 -0.000519014 0)
(0 -0.000287602 0)
(0 -2.07803e-05 0)
(0 -0.000826875 0)
(0 -0.000580891 0)
(0 -5.37774e-05 0)
(0 -0.000862304 0)
(0 -0.000515496 0)
(0 -0.000169743 0)
(0 -0.000689079 0)
(0 -2.51696e-05 0)
(0 -2.36478e-05 0)
(0 2.05801e-06 0)
(0 -0.000288278 0)
(0 -0.000390489 0)
(0 -0.000214675 0)
(0 -0.000576529 0)
(0 -3.72946e-05 0)
(0 2.16793e-06 0)
(0 2.19495e-06 0)
(0 -5.5362e-05 0)
(0 -0.000555433 0)
(0 -0.000681271 0)
(0 -0.000423021 0)
(0 -0.000397458 0)
(0 -1.5261e-05 0)
(0 2.13054e-06 0)
(0 2.19848e-06 0)
(0 2.00168e-06 0)
(0 -0.00070459 0)
(0 -0.000626231 0)
(0 -4.19447e-07 0)
(0 -4.80904e-07 0)
(0 -3.52764e-05 0)
(0 -9.75975e-05 0)
(0 2.09248e-06 0)
(0 -0.000410461 0)
(0 -4.35347e-06 0)
(0 -0.000123473 0)
(0 -0.00020421 0)
(0 2.18424e-06 0)
(0 -0.000334758 0)
(0 -0.000238556 0)
(0 -0.000213724 0)
(0 2.01033e-06 0)
(0 -2.97206e-05 0)
(0 -0.000444657 0)
(0 2.1711e-06 0)
(0 -0.000351028 0)
(0 2.04867e-06 0)
(0 -0.000282041 0)
(0 -2.64111e-05 0)
(0 -9.54259e-07 0)
(0 -9.34312e-05 0)
(0 -3.30783e-06 0)
(0 -0.000364294 0)
(0 -0.000583456 0)
(0 -0.000354054 0)
(0 -0.000275025 0)
(0 -3.54332e-05 0)
(0 -0.000439275 0)
(0 -0.000582835 0)
(0 -4.12603e-07 0)
(0 -0.000332722 0)
(0 -0.000676712 0)
(0 2.08857e-06 0)
(0 -0.000357411 0)
(0 -6.94233e-05 0)
(0 -0.000157546 0)
(0 -4.29204e-06 0)
(0 -0.000111622 0)
(0 -1.71212e-05 0)
(0 -9.18899e-07 0)
(0 -0.000223595 0)
(0 -2.66414e-05 0)
(0 -0.000385059 0)
(0 -0.00058073 0)
(0 -5.45088e-05 0)
(0 -0.000634793 0)
(0 -0.000190887 0)
(0 -0.000210471 0)
(0 -1.51042e-06 0)
(0 -0.000315074 0)
(0 -0.000123372 0)
(0 -0.000306125 0)
(0 -3.84065e-05 0)
(0 -0.000581001 0)
(0 -3.59182e-05 0)
(0 -0.00071378 0)
(0 -0.000686527 0)
(0 -1.666e-06 0)
(0 -0.000625334 0)
(0 -0.000724593 0)
(0 -0.00063891 0)
(0 -0.000164935 0)
(0 -0.000659965 0)
(0 -0.00023006 0)
(0 -0.000474501 0)
(0 -0.000602464 0)
(0 -0.000550894 0)
(0 -0.000400846 0)
(0 -0.000436938 0)
(0 -0.000183454 0)
(0 -0.000588349 0)
(0 -0.000537261 0)
(0 -0.000158874 0)
(0 -0.000269906 0)
(0 -0.000709195 0)
(0 -4.65116e-05 0)
(0 -0.000256326 0)
(0 -0.000518013 0)
(0 -0.000179943 0)
(0 -8.72655e-07 0)
(0 -5.28736e-05 0)
(0 2.19077e-06 0)
(0 -3.17758e-05 0)
(0 -3.92087e-05 0)
(0 -0.000173019 0)
(0 -0.000172179 0)
(0 -8.2173e-05 0)
(0 -0.000486181 0)
(0 -0.000573477 0)
(0 -0.000222379 0)
(0 -0.000279189 0)
(0 -0.000658986 0)
(0 -9.51744e-05 0)
(0 -0.000594123 0)
(0 -0.00059856 0)
(0 -0.000137403 0)
(0 -3.22828e-05 0)
(0 -0.000700344 0)
(0 -1.39433e-06 0)
(0 -3.56177e-05 0)
(0 -1.0882e-05 0)
(0 -0.000337864 0)
(0 -0.000613649 0)
(0 -0.000653159 0)
(0 -0.000463992 0)
(0 -0.000812916 0)
(0 -0.000116427 0)
(0 -0.000482889 0)
(0 -0.000300974 0)
(0 2.12028e-06 0)
(0 -0.000673767 0)
(0 -0.000633899 0)
(0 -7.79417e-05 0)
(0 -0.000180669 0)
(0 -0.000457383 0)
(0 -0.00052767 0)
(0 -0.000190846 0)
(0 -0.000104789 0)
(0 -0.000109016 0)
(0 -1.99826e-05 0)
(0 -6.1991e-05 0)
(0 -0.000324195 0)
(0 -0.000576393 0)
(0 -0.000669882 0)
(0 -4.0929e-05 0)
(0 -0.000545881 0)
(0 -0.000539342 0)
(0 -0.000629331 0)
(0 -0.000382694 0)
(0 -0.000349253 0)
(0 -0.000176519 0)
(0 -2.00287e-05 0)
(0 -1.20824e-06 0)
(0 -0.000223908 0)
(0 -1.05574e-05 0)
(0 -0.000599116 0)
(0 -0.000473536 0)
(0 -0.000413984 0)
(0 2.19847e-06 0)
(0 -2.55342e-05 0)
(0 -1.73582e-06 0)
(0 2.12657e-06 0)
(0 -0.000555396 0)
(0 -0.000595599 0)
(0 -0.000498658 0)
(0 -0.000179055 0)
(0 -0.000298526 0)
(0 -0.000136185 0)
(0 -0.000101284 0)
(0 -0.000162141 0)
(0 -0.000185499 0)
(0 -0.000404639 0)
(0 -1.78008e-05 0)
(0 -4.27472e-05 0)
(0 -0.000362817 0)
(0 -0.00040741 0)
(0 -0.000185488 0)
(0 2.01319e-06 0)
(0 -0.000591919 0)
(0 -0.000315244 0)
(0 -0.000198332 0)
(0 -0.000666133 0)
(0 -6.23334e-05 0)
(0 -9.38493e-05 0)
(0 -3.96276e-05 0)
(0 -1.35973e-05 0)
(0 -0.000338153 0)
(0 -0.000249793 0)
(0 -0.000396912 0)
(0 -0.000266368 0)
(0 -0.000482868 0)
(0 -4.99224e-05 0)
(0 -1.98534e-05 0)
(0 -0.000480457 0)
(0 -0.000397089 0)
(0 -0.000245776 0)
(0 -0.00057669 0)
(0 -0.00016688 0)
(0 -0.000225678 0)
(0 -0.000233679 0)
(0 -0.000724317 0)
(0 -0.000130312 0)
(0 -3.78668e-05 0)
(0 -0.000102867 0)
(0 -0.000292752 0)
(0 -0.000569906 0)
(0 -1.21247e-05 0)
(0 -5.24252e-05 0)
(0 -0.000618184 0)
(0 -6.72797e-05 0)
(0 -0.000609064 0)
(0 -0.00062212 0)
(0 -0.000607063 0)
(0 -0.00016089 0)
(0 -2.65643e-06 0)
(0 -0.00061234 0)
(0 -0.000116099 0)
(0 -0.000231438 0)
(0 -1.2981e-05 0)
(0 -8.19979e-05 0)
(0 -1.23056e-06 0)
(0 -0.000579968 0)
(0 -0.000737886 0)
(0 2.12597e-06 0)
(0 -0.000553808 0)
(0 -4.99753e-05 0)
(0 -2.04679e-05 0)
(0 -4.35674e-05 0)
(0 -0.000113785 0)
(0 2.19369e-06 0)
(0 -0.000122007 0)
(0 -1.37424e-06 0)
(0 -0.000350801 0)
(0 -0.000345424 0)
(0 -2.55736e-05 0)
(0 -0.000315185 0)
(0 -0.000195262 0)
(0 -0.000486198 0)
(0 -0.000169164 0)
(0 2.18681e-06 0)
(0 -9.90224e-05 0)
(0 -0.000506115 0)
(0 -1.42236e-05 0)
(0 1.9309e-06 0)
(0 -0.000419386 0)
(0 -0.000843482 0)
(0 2.19483e-06 0)
(0 -2.29025e-05 0)
(0 -0.000627966 0)
(0 -6.14928e-06 0)
(0 2.158e-06 0)
(0 -0.000636132 0)
(0 -8.31438e-05 0)
(0 -0.00070011 0)
(0 -0.000597767 0)
(0 -0.000215111 0)
(0 -0.000674843 0)
(0 -1.20381e-05 0)
(0 -4.40692e-05 0)
(0 -0.000305659 0)
(0 -1.65056e-06 0)
(0 -0.00022314 0)
(0 -0.000552964 0)
(0 -3.22216e-06 0)
(0 -0.000657537 0)
(0 -4.62342e-05 0)
(0 -0.000103195 0)
(0 -0.000232111 0)
(0 -0.000767512 0)
(0 -0.000834454 0)
(0 -5.46454e-06 0)
(0 -0.000697799 0)
(0 -0.000116859 0)
(0 -0.000315825 0)
(0 2.18697e-06 0)
(0 -0.000234286 0)
(0 -1.10687e-06 0)
(0 -0.000191264 0)
(0 -0.000572656 0)
(0 -0.000576434 0)
(0 -1.04718e-06 0)
(0 -0.00056922 0)
(0 -0.000100776 0)
(0 -0.000541098 0)
(0 -0.000728645 0)
(0 2.17926e-06 0)
(0 -0.000343518 0)
(0 -0.000527303 0)
(0 -0.000104832 0)
(0 2.19689e-06 0)
(0 -0.00060004 0)
(0 -0.000330066 0)
(0 -0.000271871 0)
(0 -0.000655316 0)
(0 -2.41737e-06 0)
(0 -0.000105655 0)
(0 -0.000541818 0)
(0 -0.000304233 0)
(0 -0.000595704 0)
(0 -0.000286888 0)
(0 -0.000572856 0)
(0 -0.000512991 0)
(0 2.193e-06 0)
(0 -0.000513908 0)
(0 -0.000134278 0)
(0 -9.47781e-05 0)
(0 -5.1982e-05 0)
(0 -6.45245e-05 0)
(0 -5.38074e-05 0)
(0 -0.000132188 0)
(0 2.10986e-06 0)
(0 -0.000342977 0)
(0 -0.000491788 0)
(0 -0.000572951 0)
(0 -4.38464e-05 0)
(0 -0.000628067 0)
(0 -0.000562471 0)
(0 -6.70292e-05 0)
(0 -0.000663352 0)
(0 -0.000671392 0)
(0 -0.000201403 0)
(0 -0.000623507 0)
(0 -4.06033e-05 0)
(0 -0.000565463 0)
(0 -0.000571627 0)
(0 2.21318e-06 0)
(0 -0.000457441 0)
(0 -0.000721819 0)
(0 -0.000475151 0)
(0 -0.00032964 0)
(0 -0.000108166 0)
(0 -0.000535104 0)
(0 -0.000670465 0)
(0 -1.87292e-06 0)
(0 -0.000303902 0)
(0 -2.27214e-05 0)
(0 -0.000481216 0)
(0 -2.38599e-05 0)
(0 -1.82666e-05 0)
(0 -1.62174e-05 0)
(0 -0.000495255 0)
(0 -0.000524186 0)
(0 -0.000234241 0)
(0 -0.000624333 0)
(0 -9.7088e-05 0)
(0 -4.62303e-05 0)
(0 -0.000597214 0)
(0 -4.04763e-05 0)
(0 2.15234e-06 0)
(0 -0.000352727 0)
(0 -7.86446e-05 0)
(0 -0.000535793 0)
(0 -0.000730103 0)
(0 -0.000233382 0)
(0 -0.000604002 0)
(0 1.7054e-06 0)
(0 2.17652e-06 0)
(0 -0.000468759 0)
(0 -0.000247415 0)
(0 -0.000437823 0)
(0 -0.000448747 0)
(0 -0.000342224 0)
(0 -0.000169429 0)
(0 -5.81163e-05 0)
(0 -6.26073e-06 0)
(0 2.08713e-06 0)
(0 -0.000760468 0)
(0 -0.000715437 0)
(0 -0.000662071 0)
(0 -0.000562494 0)
(0 1.77773e-06 0)
(0 -0.000110637 0)
(0 -0.000615834 0)
(0 -0.000557661 0)
(0 -9.0605e-05 0)
(0 -0.00036041 0)
(0 -5.27324e-05 0)
(0 -0.000349428 0)
(0 -0.000378275 0)
(0 2.20106e-06 0)
(0 1.83123e-06 0)
(0 -6.0351e-08 0)
(0 -3.22601e-05 0)
(0 -0.000562524 0)
(0 -0.000610325 0)
(0 -0.000378493 0)
(0 -6.35507e-05 0)
(0 1.10064e-06 0)
(0 2.0862e-06 0)
(0 -0.000137763 0)
(0 -9.52508e-05 0)
(0 -0.000206591 0)
(0 -0.0003776 0)
(0 -0.000310841 0)
(0 -0.00022409 0)
(0 2.19345e-06 0)
(0 -0.000181466 0)
(0 -0.000602376 0)
(0 -0.0002215 0)
(0 -0.000217675 0)
(0 -0.000120547 0)
(0 -0.000492943 0)
(0 -9.51609e-05 0)
(0 -0.000112829 0)
(0 -0.00015389 0)
(0 -0.000566942 0)
(0 -0.000258789 0)
(0 -0.000476011 0)
(0 -3.51085e-05 0)
(0 -8.54631e-06 0)
(0 -4.78103e-05 0)
(0 -0.000374838 0)
(0 -0.000328659 0)
(0 -0.000525693 0)
(0 -0.000327743 0)
(0 -0.000469964 0)
(0 -0.000502543 0)
(0 -0.000130678 0)
(0 -6.80574e-05 0)
(0 -2.4819e-05 0)
(0 -0.000366599 0)
(0 -0.000290618 0)
(0 -0.000214586 0)
(0 -0.000531329 0)
(0 -1.64761e-06 0)
(0 -0.0004503 0)
(0 -0.000265504 0)
(0 -0.000102964 0)
(0 -0.000606537 0)
(0 -5.8566e-05 0)
(0 -0.000341613 0)
(0 -0.000528832 0)
(0 2.04141e-06 0)
(0 -0.000208792 0)
(0 -0.000225239 0)
(0 -2.27105e-05 0)
(0 -0.000631542 0)
(0 -5.7667e-05 0)
(0 -0.000402643 0)
(0 -0.000538978 0)
(0 -2.08082e-05 0)
(0 -0.000322448 0)
(0 -0.000349431 0)
(0 1.6628e-06 0)
(0 -0.000260343 0)
(0 -0.000541038 0)
(0 -0.00042907 0)
(0 -0.000105465 0)
(0 -0.000237239 0)
(0 -0.000522752 0)
(0 -0.000521368 0)
(0 -0.000609556 0)
(0 -0.000340149 0)
(0 -0.000414117 0)
(0 -0.00010692 0)
(0 -0.00074088 0)
(0 -0.000183904 0)
(0 -0.000815045 0)
(0 -0.000611118 0)
(0 -3.0742e-06 0)
(0 -0.00069499 0)
(0 -2.45455e-06 0)
(0 -0.000516483 0)
(0 -0.000601804 0)
(0 -0.000451066 0)
(0 -0.000273802 0)
(0 -0.000459862 0)
(0 -0.000196461 0)
(0 -0.000468134 0)
(0 -2.47123e-05 0)
(0 -0.0001031 0)
(0 -6.57972e-05 0)
(0 -0.000871338 0)
(0 -0.000191667 0)
(0 -7.98994e-05 0)
(0 -0.000375177 0)
(0 -0.000602442 0)
(0 -0.000318797 0)
(0 -0.000509242 0)
(0 -1.30816e-06 0)
(0 2.14443e-06 0)
(0 -0.000128333 0)
(0 -0.000451247 0)
(0 -4.37323e-05 0)
(0 -0.000585091 0)
(0 -4.33563e-05 0)
(0 -0.000199184 0)
(0 -0.000474467 0)
(0 -7.22647e-05 0)
(0 -7.04065e-06 0)
(0 7.00575e-07 0)
(0 -0.000356193 0)
(0 -5.77227e-08 0)
(0 -0.000247578 0)
(0 -0.000380669 0)
(0 -0.000167574 0)
(0 -0.000487604 0)
(0 -0.000332559 0)
(0 -0.000483253 0)
(0 -0.000534508 0)
(0 -0.000305263 0)
(0 -5.4917e-05 0)
(0 -2.13664e-05 0)
(0 -0.000528952 0)
(0 -0.000512654 0)
(0 -1.05912e-06 0)
(0 -0.000201871 0)
(0 -0.000140017 0)
(0 -0.000392149 0)
(0 -0.00013091 0)
(0 -4.88266e-05 0)
(0 -0.000559751 0)
(0 -0.000628923 0)
(0 -0.000331315 0)
(0 -0.000652841 0)
(0 2.19606e-06 0)
(0 -0.000199322 0)
(0 -4.65264e-07 0)
(0 -9.35374e-05 0)
(0 6.12985e-07 0)
(0 2.06734e-06 0)
(0 -2.36746e-05 0)
(0 -0.000480279 0)
(0 -0.000173852 0)
(0 -3.9448e-05 0)
(0 -4.44037e-05 0)
(0 -0.000405859 0)
(0 -0.000532248 0)
(0 -6.22772e-05 0)
(0 2.21387e-06 0)
(0 -0.000587406 0)
(0 -8.80172e-05 0)
(0 -1.0501e-05 0)
(0 -0.000560542 0)
(0 -0.000616444 0)
(0 -0.000516476 0)
(0 -0.000247868 0)
(0 -0.00060423 0)
(0 -0.000724853 0)
(0 -1.63884e-05 0)
(0 -2.88451e-06 0)
(0 -0.000731726 0)
(0 -0.00057249 0)
(0 2.17982e-06 0)
(0 -2.8739e-05 0)
(0 -0.000579543 0)
(0 -0.000497027 0)
(0 -8.62179e-05 0)
(0 -0.000595149 0)
(0 -2.47876e-06 0)
(0 -0.000207998 0)
(0 -1.037e-06 0)
(0 -0.000274016 0)
(0 -0.000619755 0)
(0 -0.000709529 0)
(0 -0.000196093 0)
(0 -0.000521065 0)
(0 -0.000302091 0)
(0 -0.000243992 0)
(0 -6.1207e-07 0)
(0 -0.000574107 0)
(0 -0.000389541 0)
(0 -5.38409e-05 0)
(0 -0.000595049 0)
(0 -0.000434102 0)
(0 -1.02635e-05 0)
(0 -0.000576154 0)
(0 2.18312e-06 0)
(0 -2.14273e-07 0)
(0 -0.00037453 0)
(0 -0.000599743 0)
(0 -1.10759e-05 0)
(0 2.22104e-06 0)
(0 -5.56843e-05 0)
(0 -0.000640364 0)
(0 -3.43397e-05 0)
(0 -4.08462e-07 0)
(0 -0.000105669 0)
(0 -0.000416014 0)
(0 -0.000176673 0)
(0 -0.000470021 0)
(0 -1.11426e-06 0)
(0 -0.000453016 0)
(0 -3.57545e-06 0)
(0 -6.16961e-05 0)
(0 1.9733e-06 0)
(0 -3.398e-06 0)
(0 -0.000532314 0)
(0 -0.000587791 0)
(0 -1.97701e-06 0)
(0 -0.000372648 0)
(0 -0.000459203 0)
(0 -0.000165395 0)
(0 1.95699e-06 0)
(0 -3.76044e-07 0)
(0 -3.77792e-06 0)
(0 -0.000727119 0)
(0 -0.000160724 0)
(0 -4.89962e-05 0)
(0 -0.000466294 0)
(0 -6.2539e-05 0)
(0 -0.000271489 0)
(0 -1.57891e-06 0)
(0 -0.000189993 0)
(0 -0.000544438 0)
(0 -0.000167285 0)
(0 -0.000354975 0)
(0 -5.50483e-05 0)
(0 -0.000113738 0)
(0 -0.000443108 0)
(0 -0.00014206 0)
(0 -0.000345052 0)
(0 -5.16625e-05 0)
(0 -0.000207603 0)
(0 -0.000524399 0)
(0 -0.00018313 0)
(0 -1.66721e-05 0)
(0 1.01808e-06 0)
(0 -0.000221671 0)
(0 -4.9465e-05 0)
(0 -2.80602e-05 0)
(0 -2.55778e-05 0)
(0 -0.000220127 0)
(0 2.196e-06 0)
(0 2.17165e-06 0)
(0 -0.000565506 0)
(0 -0.000420154 0)
(0 -0.000264571 0)
(0 -0.000180252 0)
(0 -3.19663e-06 0)
(0 -0.000267968 0)
(0 -0.000310833 0)
(0 -0.000198503 0)
(0 -2.56219e-05 0)
(0 -4.79523e-05 0)
(0 -0.00074362 0)
(0 -0.000273285 0)
(0 -0.000501793 0)
(0 -6.76563e-05 0)
(0 -0.000464231 0)
(0 -6.88162e-05 0)
(0 -0.000349146 0)
(0 -0.000255826 0)
(0 -0.000241544 0)
(0 -0.000652207 0)
(0 1.80943e-06 0)
(0 -0.000629464 0)
(0 -0.000267104 0)
(0 -0.000502367 0)
(0 -0.000327301 0)
(0 -1.90372e-05 0)
(0 -0.000235724 0)
(0 -0.000225215 0)
(0 -0.00047971 0)
(0 -0.000374326 0)
(0 1.69149e-06 0)
(0 -1.52869e-05 0)
(0 6.70392e-07 0)
(0 -0.000200175 0)
(0 -1.76212e-06 0)
(0 -0.000136859 0)
(0 -0.000280862 0)
(0 -0.000365731 0)
(0 -4.76419e-05 0)
(0 -1.33973e-05 0)
(0 -0.000248325 0)
(0 5.25983e-08 0)
(0 -7.41522e-05 0)
(0 -0.000247636 0)
(0 -8.33796e-05 0)
(0 -2.47221e-05 0)
(0 -0.000460199 0)
(0 -0.000118544 0)
(0 -0.000642822 0)
(0 -0.000133949 0)
(0 -0.000112926 0)
(0 -2.17861e-06 0)
(0 -2.09975e-05 0)
(0 -9.62742e-06 0)
(0 -0.000121319 0)
(0 -5.11047e-05 0)
(0 -6.0287e-05 0)
(0 -0.000211146 0)
(0 -1.75932e-06 0)
(0 -0.000501036 0)
(0 1.49636e-06 0)
(0 -0.000592726 0)
(0 -0.000213195 0)
(0 -5.04521e-05 0)
(0 -1.07784e-05 0)
(0 -0.000385178 0)
(0 1.89765e-06 0)
(0 -6.43668e-05 0)
(0 -0.000590233 0)
(0 -0.000307714 0)
(0 -0.000395178 0)
(0 -0.000485665 0)
(0 -0.000101956 0)
(0 -2.71424e-05 0)
(0 -0.000407139 0)
(0 2.20027e-06 0)
(0 -0.0003406 0)
(0 2.14539e-06 0)
(0 -0.000606506 0)
(0 -0.000624683 0)
(0 -4.99148e-05 0)
(0 -0.000235867 0)
(0 -4.94005e-07 0)
(0 -0.000588926 0)
(0 -9.37246e-05 0)
(0 -1.8782e-05 0)
(0 -0.000261806 0)
(0 -2.23686e-05 0)
(0 -2.73356e-05 0)
(0 -0.000401586 0)
(0 -2.53656e-05 0)
(0 -2.33117e-07 0)
(0 -0.000401428 0)
(0 -0.00050059 0)
(0 -0.000635788 0)
(0 -0.000128171 0)
(0 -0.000612152 0)
(0 -0.000579672 0)
(0 -0.000416145 0)
(0 -0.000623961 0)
(0 -0.000364775 0)
(0 -0.000235726 0)
(0 -0.000160589 0)
(0 -6.55262e-05 0)
(0 -0.000518424 0)
(0 -2.78501e-06 0)
(0 -0.000443313 0)
(0 2.76439e-07 0)
(0 -3.51147e-05 0)
(0 1.65324e-06 0)
(0 -0.000132603 0)
(0 -0.000598521 0)
(0 2.19635e-06 0)
(0 -0.000225524 0)
(0 -5.28729e-07 0)
(0 -2.31346e-05 0)
(0 -7.29684e-05 0)
(0 -0.000216704 0)
(0 -0.000628513 0)
(0 -0.000270408 0)
(0 -1.85868e-05 0)
(0 -0.000513637 0)
(0 1.96628e-06 0)
(0 -0.000516479 0)
(0 2.076e-06 0)
(0 -7.01595e-05 0)
(0 -0.000411096 0)
(0 -0.000487728 0)
(0 2.06566e-06 0)
(0 1.97007e-06 0)
(0 -0.000174269 0)
(0 -0.000531048 0)
(0 -0.000102992 0)
(0 -0.00051331 0)
(0 -0.000394319 0)
(0 -0.000137749 0)
(0 -3.72132e-05 0)
(0 -0.000205692 0)
(0 -0.000468811 0)
(0 -0.000518559 0)
(0 -0.00024657 0)
(0 -1.2936e-06 0)
(0 -0.00036071 0)
(0 -0.000359186 0)
(0 -0.000212709 0)
(0 -6.58255e-05 0)
(0 -0.000307406 0)
(0 -0.00054336 0)
(0 2.03526e-06 0)
(0 -0.000321955 0)
(0 -0.000546254 0)
(0 2.15115e-06 0)
(0 -0.000197495 0)
(0 -0.000392633 0)
(0 2.19914e-06 0)
(0 -8.97777e-05 0)
(0 1.95443e-06 0)
(0 -0.000535811 0)
(0 -0.000217119 0)
(0 -2.18602e-05 0)
(0 -0.000640186 0)
(0 -0.000547407 0)
(0 -4.18326e-05 0)
(0 -0.000523691 0)
(0 -0.000536232 0)
(0 -0.000105034 0)
(0 -0.000721331 0)
(0 -1.66226e-05 0)
(0 -9.8429e-07 0)
(0 -0.000633217 0)
(0 -0.000431709 0)
(0 -0.000450962 0)
(0 -0.000566779 0)
(0 -0.000278193 0)
(0 -0.000395125 0)
(0 -4.35547e-05 0)
(0 -0.000108145 0)
(0 -0.000440748 0)
(0 -0.00057204 0)
(0 -0.000631925 0)
(0 -0.00047979 0)
(0 -0.000422381 0)
(0 1.91579e-06 0)
(0 -0.000324994 0)
(0 -0.000854163 0)
(0 -0.000572882 0)
(0 -2.4649e-05 0)
(0 -9.93048e-06 0)
(0 -0.000501546 0)
(0 -0.000463457 0)
(0 -0.000509214 0)
(0 -0.000824656 0)
(0 -3.04058e-07 0)
(0 -0.000393991 0)
(0 -0.000102633 0)
(0 -8.93066e-05 0)
(0 -0.00024441 0)
(0 -6.44989e-06 0)
(0 -0.000305852 0)
(0 -4.74348e-05 0)
(0 -0.000164649 0)
(0 -0.00055238 0)
(0 -0.000446756 0)
(0 -0.000301826 0)
(0 -6.75359e-05 0)
(0 -0.000103706 0)
(0 -0.000497499 0)
(0 -0.000236292 0)
(0 -1.63907e-07 0)
(0 -9.46476e-05 0)
(0 -9.7465e-05 0)
(0 -0.000197232 0)
(0 -2.22484e-05 0)
(0 -6.58751e-05 0)
(0 -0.000743957 0)
(0 -0.000368931 0)
(0 -0.000221224 0)
(0 -0.000517791 0)
(0 -0.000832482 0)
(0 -0.000143179 0)
(0 -0.000617961 0)
(0 -2.59737e-06 0)
(0 -6.25537e-06 0)
(0 -0.000169226 0)
(0 -0.000498402 0)
(0 -0.000217911 0)
(0 -0.000104698 0)
(0 -0.000430822 0)
(0 -0.000430798 0)
(0 -5.30062e-05 0)
(0 -0.000208909 0)
(0 -0.000481648 0)
(0 -0.000534791 0)
(0 -2.85754e-07 0)
(0 -4.48521e-06 0)
(0 -0.000101938 0)
(0 -0.000414508 0)
(0 -9.90909e-05 0)
(0 -0.000705743 0)
(0 -0.000418253 0)
(0 -0.00049391 0)
(0 -0.000106772 0)
(0 -0.00036217 0)
(0 -0.000438101 0)
(0 2.22021e-06 0)
(0 -0.000337937 0)
(0 -0.000325258 0)
(0 -3.14145e-05 0)
(0 -0.00055768 0)
(0 -1.6475e-06 0)
(0 -6.20251e-05 0)
(0 -0.000293891 0)
(0 -4.28461e-05 0)
(0 -0.000406375 0)
(0 -0.000393052 0)
(0 -0.000748833 0)
(0 -0.000394984 0)
(0 -1.00284e-07 0)
(0 -0.000580498 0)
(0 -0.000273153 0)
(0 -2.84682e-07 0)
(0 -0.000121443 0)
(0 -5.9553e-05 0)
(0 1.60404e-06 0)
(0 -4.05891e-05 0)
(0 -0.000181585 0)
(0 -4.20384e-06 0)
(0 -0.000724107 0)
(0 -3.293e-06 0)
(0 -0.000331735 0)
(0 -0.00044528 0)
(0 -0.000137788 0)
(0 2.19964e-06 0)
(0 -0.000204578 0)
(0 -0.000302956 0)
(0 -0.000328735 0)
(0 -0.000280328 0)
(0 -3.10542e-05 0)
(0 -0.000118353 0)
(0 -6.88581e-05 0)
(0 -0.000484816 0)
(0 -0.000290936 0)
(0 -0.000125019 0)
(0 -0.000157809 0)
(0 -0.000618398 0)
(0 -0.000251308 0)
(0 -0.000550561 0)
(0 -2.35377e-05 0)
(0 2.10359e-06 0)
(0 -0.000389395 0)
(0 -0.000192866 0)
(0 -0.000194031 0)
(0 -0.000157833 0)
(0 -0.000355816 0)
(0 2.22875e-06 0)
(0 -0.000514123 0)
(0 -0.000637302 0)
(0 -0.000124122 0)
(0 -0.000411241 0)
(0 -0.000391711 0)
(0 -2.54899e-05 0)
(0 -0.000569517 0)
(0 -0.00034727 0)
(0 -3.24078e-05 0)
(0 -0.000109341 0)
(0 -0.000539133 0)
(0 -0.000374339 0)
(0 -0.000522441 0)
(0 -4.14163e-05 0)
(0 -0.000645401 0)
(0 -9.97645e-05 0)
(0 -0.00032968 0)
(0 -0.000403777 0)
(0 -0.000172091 0)
(0 -0.000452817 0)
(0 -1.94769e-05 0)
(0 -0.000545985 0)
(0 -0.000111907 0)
(0 -0.000658303 0)
(0 -1.24595e-05 0)
(0 -0.00031686 0)
(0 -6.62552e-06 0)
(0 -0.000345696 0)
(0 -0.000535037 0)
(0 -0.000820551 0)
(0 -0.000338982 0)
(0 -5.60876e-05 0)
(0 -0.000627591 0)
(0 -0.000379358 0)
(0 -0.000121069 0)
(0 -0.000288244 0)
(0 -0.000632487 0)
(0 -0.000246137 0)
(0 -3.98889e-05 0)
(0 2.20062e-06 0)
(0 -1.27578e-06 0)
(0 -0.000186108 0)
(0 2.20805e-06 0)
(0 -0.000184225 0)
(0 -0.00029328 0)
(0 -6.0103e-05 0)
(0 -5.0946e-05 0)
(0 -0.000450016 0)
(0 2.19332e-06 0)
(0 -0.000505409 0)
(0 -0.000113338 0)
(0 -0.000540074 0)
(0 -0.00037375 0)
(0 -0.000533441 0)
(0 -0.000404224 0)
(0 -0.000309388 0)
(0 -0.000622612 0)
(0 4.29661e-08 0)
(0 -0.000434243 0)
(0 -0.000395109 0)
(0 -1.70014e-05 0)
(0 -0.000569516 0)
(0 -0.00021159 0)
(0 -0.000593047 0)
(0 -0.000162335 0)
(0 -0.00051717 0)
(0 -2.56605e-05 0)
(0 -0.000231223 0)
(0 -0.0004692 0)
(0 -0.000297893 0)
(0 1.852e-06 0)
(0 -2.10856e-05 0)
(0 -0.000701091 0)
(0 -0.000494613 0)
(0 -0.000478648 0)
(0 -0.000604815 0)
(0 -1.45678e-06 0)
(0 -0.000628886 0)
(0 -0.000477102 0)
(0 -0.000135609 0)
(0 -0.000444602 0)
(0 -0.000448945 0)
(0 -0.000633894 0)
(0 -0.000577786 0)
(0 -6.17597e-05 0)
(0 -0.000547617 0)
(0 -0.000671715 0)
(0 -0.000245364 0)
(0 -0.000527633 0)
(0 -0.000874181 0)
(0 -3.54991e-05 0)
(0 -6.20991e-07 0)
(0 -0.000338357 0)
(0 -0.000375056 0)
(0 -0.000760992 0)
(0 -0.000157787 0)
(0 -0.000257501 0)
(0 -0.000210625 0)
(0 -0.000498232 0)
(0 -5.85032e-05 0)
(0 -0.000275199 0)
(0 -0.000508587 0)
(0 -0.000300931 0)
(0 -0.000449869 0)
(0 -0.000493396 0)
(0 -5.70864e-06 0)
(0 -7.89103e-05 0)
(0 -0.000158083 0)
(0 -0.000171095 0)
(0 -7.38068e-05 0)
(0 -0.000112726 0)
(0 -8.36377e-05 0)
(0 -7.77443e-05 0)
(0 -0.000219438 0)
(0 -1.2815e-05 0)
(0 -0.000412989 0)
(0 -0.000467587 0)
(0 -0.000435824 0)
(0 -3.66765e-05 0)
(0 -5.11003e-05 0)
(0 -7.29942e-05 0)
(0 -2.44148e-06 0)
(0 2.19156e-06 0)
(0 -1.75025e-05 0)
(0 -0.00040832 0)
(0 -0.000249585 0)
(0 -5.39973e-05 0)
(0 -0.000736805 0)
(0 -4.55444e-06 0)
(0 -3.36153e-05 0)
(0 -4.8238e-07 0)
(0 -0.00023107 0)
(0 1.97283e-06 0)
(0 -0.000109309 0)
(0 -9.41754e-05 0)
(0 -2.219e-06 0)
(0 -0.000127647 0)
(0 -0.000510141 0)
(0 -0.00018831 0)
(0 -0.000605699 0)
(0 -1.18806e-06 0)
(0 -0.000399438 0)
(0 -7.36353e-05 0)
(0 -0.000629506 0)
(0 -0.000159457 0)
(0 -0.000537095 0)
(0 2.13438e-06 0)
(0 -1.67573e-06 0)
(0 -0.00016873 0)
(0 2.1832e-06 0)
(0 -2.14299e-06 0)
(0 -0.000148083 0)
(0 -0.000136919 0)
(0 -5.8771e-05 0)
(0 -0.000666793 0)
(0 1.85559e-06 0)
(0 -0.000435044 0)
(0 -1.33039e-05 0)
(0 2.20823e-06 0)
(0 -0.000180177 0)
(0 -0.000487817 0)
(0 -0.000484175 0)
(0 -0.000194034 0)
(0 -0.000494774 0)
(0 -0.000151056 0)
(0 -5.44676e-05 0)
(0 -0.000324453 0)
(0 -0.000544035 0)
(0 -0.000246879 0)
(0 -0.000489817 0)
(0 -0.000304079 0)
(0 -0.00014534 0)
(0 -0.000629089 0)
(0 -0.00051368 0)
(0 -0.000219776 0)
(0 -7.12792e-05 0)
(0 -0.000540509 0)
(0 -2.66681e-05 0)
(0 -0.00059305 0)
(0 -7.55969e-05 0)
(0 -0.000162996 0)
(0 -1.96538e-05 0)
(0 -0.000514528 0)
(0 -0.000633539 0)
(0 -5.92011e-05 0)
(0 -9.58003e-06 0)
(0 -0.000639347 0)
(0 -0.000220612 0)
(0 -5.59515e-06 0)
(0 -0.000106859 0)
(0 2.09819e-06 0)
(0 -0.000633943 0)
(0 -0.000127155 0)
(0 1.52158e-06 0)
(0 -4.40208e-07 0)
(0 -0.000465302 0)
(0 -0.000475444 0)
(0 -0.000216241 0)
(0 -0.000122222 0)
(0 -5.63125e-05 0)
(0 -0.000308827 0)
(0 1.51615e-06 0)
(0 -0.000132795 0)
(0 -3.25615e-05 0)
(0 -0.000397807 0)
(0 -0.000454172 0)
(0 2.19068e-06 0)
(0 -0.000209434 0)
(0 -0.000368676 0)
(0 -7.3107e-05 0)
(0 1.95368e-06 0)
(0 -0.000533462 0)
(0 -0.00076642 0)
(0 -0.00084383 0)
(0 -0.000398692 0)
(0 -0.000186459 0)
(0 -6.79267e-05 0)
(0 -0.000350851 0)
(0 -0.000502193 0)
(0 -0.000623775 0)
(0 -0.000295811 0)
(0 1.99987e-06 0)
(0 -3.4107e-05 0)
(0 -0.000159094 0)
(0 2.0916e-06 0)
(0 -6.45553e-05 0)
(0 -0.000688496 0)
(0 -0.000608094 0)
(0 -0.000530503 0)
(0 -2.79884e-06 0)
(0 -2.37852e-05 0)
(0 -6.72214e-05 0)
(0 -0.000759502 0)
(0 -0.000430545 0)
(0 -0.00053845 0)
(0 -0.000367569 0)
(0 -6.05181e-05 0)
(0 -0.000566153 0)
(0 -2.0622e-05 0)
(0 -0.000493011 0)
(0 -0.000372943 0)
(0 -2.68291e-06 0)
(0 2.16755e-06 0)
(0 -0.000402249 0)
(0 -1.0482e-05 0)
(0 -5.69321e-05 0)
(0 -0.000117446 0)
(0 -9.63075e-05 0)
(0 -0.000688086 0)
(0 2.10159e-06 0)
(0 -7.03514e-05 0)
(0 -0.000558499 0)
(0 -0.000645649 0)
(0 -0.000503223 0)
(0 -0.000238599 0)
(0 -8.17964e-05 0)
(0 -0.000136455 0)
(0 -0.000565817 0)
(0 -0.000508917 0)
(0 -0.000454314 0)
(0 -1.67877e-05 0)
(0 1.89442e-06 0)
(0 -0.000813835 0)
(0 -0.000343902 0)
(0 -7.00425e-06 0)
(0 2.56291e-07 0)
(0 -0.000137928 0)
(0 -5.72859e-05 0)
(0 1.35961e-06 0)
(0 -0.000855136 0)
(0 -0.000254118 0)
(0 -0.000333742 0)
(0 -0.000221069 0)
(0 -4.14023e-06 0)
(0 -0.00054348 0)
(0 -3.13669e-05 0)
(0 -9.61477e-06 0)
(0 -5.14448e-05 0)
(0 -0.00022331 0)
(0 -0.000494057 0)
(0 -5.43768e-06 0)
(0 -2.96124e-05 0)
(0 -0.000493227 0)
(0 -2.50948e-05 0)
(0 -0.000111777 0)
(0 2.02228e-06 0)
(0 -0.000436202 0)
(0 -0.000333586 0)
(0 -2.85824e-05 0)
(0 -0.000199055 0)
(0 -0.000184624 0)
(0 -0.000116604 0)
(0 -0.000617065 0)
(0 -0.00010672 0)
(0 -2.53572e-06 0)
(0 -0.000149859 0)
(0 -0.000579894 0)
(0 -0.000199582 0)
(0 2.19356e-06 0)
(0 -0.000702801 0)
(0 -0.000601618 0)
(0 -0.000723852 0)
(0 -1.54408e-05 0)
(0 -0.000617018 0)
(0 -0.000334077 0)
(0 -0.000336712 0)
(0 -0.0006148 0)
(0 -2.3275e-06 0)
(0 7.82481e-08 0)
(0 -0.000314716 0)
(0 -1.86196e-05 0)
(0 1.83227e-06 0)
(0 2.07342e-06 0)
(0 -0.000599364 0)
(0 -0.000423088 0)
(0 -0.000627896 0)
(0 -0.000567686 0)
(0 -0.000424397 0)
(0 -0.000373697 0)
(0 -0.000540122 0)
(0 -0.000325254 0)
(0 -0.000518847 0)
(0 -0.000145161 0)
(0 2.12285e-06 0)
(0 -5.6183e-05 0)
(0 -0.000145677 0)
(0 -0.000374135 0)
(0 -0.000535127 0)
(0 -0.000209105 0)
(0 -9.81586e-05 0)
(0 -0.000324599 0)
(0 -0.000621243 0)
(0 -5.226e-05 0)
(0 -9.41696e-05 0)
(0 -4.39453e-06 0)
(0 -0.000215856 0)
(0 -0.000820522 0)
(0 -1.48717e-06 0)
(0 -0.00028339 0)
(0 -0.000689848 0)
(0 -0.000538821 0)
(0 -3.9147e-05 0)
(0 -0.000175783 0)
(0 -0.000202004 0)
(0 -0.000182903 0)
(0 -0.000462177 0)
(0 -0.00045082 0)
(0 -5.56686e-05 0)
(0 -0.000228658 0)
(0 -0.000530552 0)
(0 -1.82457e-05 0)
(0 -0.000468934 0)
(0 -6.60276e-05 0)
(0 -2.11265e-06 0)
(0 -5.9361e-05 0)
(0 -0.000166804 0)
(0 -6.06239e-05 0)
(0 -0.000404053 0)
(0 -1.8392e-05 0)
(0 -4.19652e-05 0)
(0 -6.62333e-05 0)
(0 2.20119e-06 0)
(0 -0.000543997 0)
(0 -0.000877691 0)
(0 -0.000575542 0)
(0 -0.000500718 0)
(0 -0.000434224 0)
(0 -0.000303934 0)
(0 -0.000194322 0)
(0 -0.000401791 0)
(0 1.99301e-06 0)
(0 -0.000428894 0)
(0 -1.07071e-05 0)
(0 -5.33426e-06 0)
(0 -0.000622514 0)
(0 -1.20399e-07 0)
(0 -0.000330968 0)
(0 -5.05901e-05 0)
(0 2.11282e-06 0)
(0 -0.00056329 0)
(0 -8.61257e-05 0)
(0 -0.000848565 0)
(0 2.01542e-06 0)
(0 -0.000197828 0)
(0 -5.49708e-05 0)
(0 -0.000601845 0)
(0 -1.50625e-05 0)
(0 -0.000355644 0)
(0 2.1826e-06 0)
(0 -0.000619747 0)
(0 -6.01225e-05 0)
(0 -0.000840169 0)
(0 -0.000406729 0)
(0 -6.58119e-05 0)
(0 -0.000621004 0)
(0 2.20085e-06 0)
(0 1.66766e-06 0)
(0 -0.000136306 0)
(0 -4.25598e-06 0)
(0 -0.000112611 0)
(0 1.9879e-06 0)
(0 -8.48266e-05 0)
(0 -0.000541424 0)
(0 -3.73093e-05 0)
(0 -0.000127865 0)
(0 -8.95729e-05 0)
(0 -0.000472166 0)
(0 -6.68784e-05 0)
(0 -0.000387766 0)
(0 -6.85511e-05 0)
(0 -0.00041196 0)
(0 -0.000321584 0)
(0 -0.000341 0)
(0 2.03438e-06 0)
(0 -2.45431e-05 0)
(0 -0.000480963 0)
(0 -3.32332e-06 0)
(0 -1.87249e-05 0)
(0 -0.000547005 0)
(0 -6.54589e-05 0)
(0 -0.0001096 0)
(0 -3.89609e-05 0)
(0 -0.000126958 0)
(0 -0.000609 0)
(0 1.56161e-06 0)
(0 -0.000470785 0)
(0 -0.0005579 0)
(0 -0.000377388 0)
(0 -2.66349e-05 0)
(0 -0.000115668 0)
(0 -0.000634273 0)
(0 -0.000114032 0)
(0 -0.00040425 0)
(0 -7.51718e-05 0)
(0 -0.000472621 0)
(0 1.82691e-06 0)
(0 -4.259e-05 0)
(0 -0.000214215 0)
(0 -8.21147e-05 0)
(0 -5.27547e-05 0)
(0 -0.000380437 0)
(0 -0.00057605 0)
(0 -1.5398e-06 0)
(0 -8.91477e-05 0)
(0 -0.00020576 0)
(0 -0.000449167 0)
(0 -1.83511e-05 0)
(0 -0.000389705 0)
(0 -0.000437477 0)
(0 -0.000188864 0)
(0 -2.12889e-05 0)
(0 -4.5504e-05 0)
(0 -0.000124177 0)
(0 -0.000807617 0)
(0 -0.000516451 0)
(0 -0.00036991 0)
(0 -0.000448484 0)
(0 -0.000289207 0)
(0 -3.13847e-06 0)
(0 -2.66392e-05 0)
(0 -0.000120753 0)
(0 -0.00060785 0)
(0 -0.000275336 0)
(0 -0.000534893 0)
(0 -6.06481e-05 0)
(0 -0.000380035 0)
(0 -0.000333645 0)
(0 -0.000393932 0)
(0 -4.34816e-05 0)
(0 -0.000126131 0)
(0 -0.000204466 0)
(0 -0.000108347 0)
(0 -1.67136e-05 0)
(0 -0.00030753 0)
(0 -7.78169e-05 0)
(0 -0.000227914 0)