/*--------------------------------*- C++ -*----------------------------------*\
| =========                 |                                                 |
| \\      /  F ield         | OpenFOAM: The Open Source CFD Toolbox           |
|  \\    /   O peration     | Version:  v2012                                 |
|   \\  /    A nd           | Website:  www.openfoam.com                      |
|    \\/     M anipulation  |                                                 |
\*---------------------------------------------------------------------------*/
FoamFile
{
    version     2.0;
    format      ascii;
    class       volScalarField;
    location    "100";
    object      k_0;
}
// * * * * * * * * * * * * * * * * * * * * * * * * * * * * * * * * * * * * * //

dimensions      [0 2 -2 0 0 0 0];


internalField   nonuniform List<scalar> 
10042
(
0.000147242
0.000148181
0.000147866
0.000158719
0.0838643
0.000148339
0.0391871
0.000131352
0.000147094
0.000147892
0.0376681
0.000158596
0.000144707
0.000144466
0.000151553
0.000148052
0.000147989
0.000149698
0.000147265
0.000171223
0.00014713
0.000206642
0.000145571
0.000145285
0.000148234
0.000158478
0.000148791
0.00015023
0.000147186
0.000149497
0.000147988
0.0071358
0.000147971
0.000149213
0.000155191
0.000145362
0.000157631
0.000162485
0.000145359
0.000157537
0.00017185
0.000150986
0.0434201
0.000148232
0.0834182
0.000176163
0.000149283
0.000188687
0.000156577
0.000173955
0.000149029
0.000149356
0.000150961
0.000150943
0.000157637
0.000148284
0.000147205
0.000149184
0.000149178
0.000150648
0.00014815
0.000147844
0.00015542
0.000147778
0.000148997
0.000149192
0.000148339
0.000165676
0.0791783
0.000147575
0.000150837
0.000173509
0.000148244
0.000157443
0.00014824
0.000145285
0.0903132
0.000147322
0.000156686
0.0573131
0.000155869
0.0681617
0.000148286
0.00015033
0.000148358
0.00014938
0.000147152
0.000182448
0.00014786
0.000147137
0.000148889
0.0644531
0.000150393
0.000149128
0.000149379
0.000147654
0.000147353
0.000147531
0.000156917
0.000147253
0.000149933
0.000177204
0.000101901
0.000149298
0.000149955
0.000164674
0.000147304
0.000147313
0.000147191
0.00014446
0.000145842
0.000147043
0.000154554
0.0698408
0.000148961
0.000147034
0.000147549
0.000147296
0.000147618
0.0422142
0.000147812
0.000131516
0.000148387
0.000147766
0.000177254
0.000148288
0.000153252
0.000157196
0.00016437
0.000147095
0.000157145
0.000148206
0.0450644
0.000202766
0.000147252
0.000167841
0.0291601
0.000148939
0.000189478
0.00018465
0.000150201
0.000147539
0.000149664
0.000186836
0.000148069
0.000147024
0.000168673
0.000145463
0.000147628
0.000153936
0.000147275
0.000149676
0.0759236
0.0460755
0.00014918
0.000144672
0.000149805
0.000147788
0.000167787
0.0147147
0.0334152
0.000188349
0.000147757
0.000147258
0.000148556
0.000148122
0.000165124
0.0169623
0.00701974
0.0512222
0.000150019
0.000146736
0.0416547
0.000173912
0.000159975
0.0392878
0.0250873
0.000148314
0.000167002
0.000159383
0.000150082
0.0104018
0.000148572
0.00015706
0.000150774
0.043768
0.000206958
0.000148602
0.0408553
0.000152249
0.000318518
0.00014967
0.0754242
0.0125619
0.000184755
0.0033916
0.000154492
0.000147354
0.000144691
0.000151513
0.000159457
0.000148699
0.00014703
0.000174828
0.000148491
0.000146013
0.000386204
0.000148974
0.000149712
0.00014959
0.00010902
0.00014878
0.000164305
0.000189583
0.000149747
0.00021054
0.000148
0.000147741
0.000171405
0.000146397
0.000154695
0.000150076
0.000201072
0.000163345
0.00015366
0.000159367
0.000246828
0.000147026
0.000193593
0.000151343
0.000147114
0.000172439
0.000146786
0.000151286
0.000147996
0.000154182
0.0001462
0.000144453
0.000151262
0.000156014
0.000147808
0.000148406
0.000148387
0.000154624
0.000146994
0.00014804
0.000145354
0.000150118
0.000150431
0.000149773
0.000144721
0.000147491
0.000152622
0.000212179
0.000188405
0.0319251
0.000160131
0.000159927
0.000151786
0.000178199
0.0165204
0.000150862
0.000147321
0.000144629
0.000151413
0.000146153
0.000218591
0.000151504
0.000147119
0.000149645
0.000159991
0.000150552
0.000187142
0.00016003
0.000188252
0.000152351
0.000155972
0.00014612
0.000154258
0.000148166
0.000160004
0.000147647
0.000158505
0.050632
0.000145988
0.000147619
0.0146769
0.000176409
0.000148462
0.000148143
0.000152313
0.0367157
0.000171225
0.000188056
0.000149138
0.000144679
0.000147059
0.00014719
0.000246839
0.000147299
0.000148105
0.00014675
0.000148003
0.000163445
0.000151905
0.000169851
0.0926397
0.0001503
0.00645798
0.000146942
0.00015396
0.000148729
0.0181478
0.000177927
0.000591912
0.0215633
0.000145217
0.000151544
0.00014763
0.000152192
0.0001594
0.00014958
0.000159699
0.000145796
0.000144785
0.000148329
0.00017095
0.000149884
0.000151753
0.000148023
0.000151685
0.0444443
0.000146978
0.000149112
0.000147742
0.000147644
0.000163506
0.000185003
0.000159897
0.00015096
0.00016371
0.000156149
0.000148107
0.000144324
0.000149131
0.000149767
0.000243558
0.000147669
0.000149217
0.000194625
0.000147045
0.000153058
0.00015055
0.00019512
0.00014791
0.000153438
0.000163723
0.000159487
0.000151424
0.000147405
0.000857834
0.000168929
0.000149228
0.000163208
0.000147447
0.000146806
0.000147432
0.000153
0.000364186
0.00015352
0.000149633
0.000150253
0.000149944
0.00014979
0.000171198
0.00014738
0.000145738
0.0327293
0.000146683
6.0063e-05
0.000256726
0.00015774
0.0511472
0.0275642
0.000156044
0.000172617
0.000148986
0.000174638
0.000149938
0.000149017
0.000231534
0.000148303
0.000152544
0.000816241
0.000149321
0.000147142
0.000162277
0.000286496
0.000149016
0.00014538
0.00799773
0.000177901
0.00014672
0.000165649
0.00571733
0.000146399
0.00014974
0.00014571
0.00014703
0.000144521
0.000145912
0.00198604
0.000158287
0.000149122
0.0784773
0.00014449
0.000147265
0.000258218
0.000148452
0.00121091
0.000172572
0.000150333
0.000145573
0.000145274
0.000175767
0.000150273
0.000156103
0.000149467
0.042348
0.000149503
0.00418994
0.000151235
0.000147357
0.000147063
0.000246569
0.00014747
0.000153709
0.000147314
0.00014782
0.0117513
0.000154609
0.00014748
0.000146353
0.012483
0.00014706
0.000154942
0.000151355
0.000146165
0.055416
0.0516764
0.000146995
0.000148792
0.000153762
0.000144707
0.000147883
0.000147716
0.017231
0.000147848
0.000147257
0.000156264
0.000169319
0.000170126
0.000149771
0.000159175
0.00854293
0.000164975
0.000147582
0.00014743
0.00020181
0.000149014
0.000147405
0.000156251
0.00014735
0.000145901
0.000150354
0.000145027
0.000160349
0.0001473
0.0001475
0.0305869
0.000146159
0.000149832
0.000148318
0.000149297
0.000159781
0.000147023
0.00014754
0.000525996
0.000149778
0.0789924
0.000150775
0.000149868
0.000149831
0.000180573
0.00014756
0.000147523
0.000147921
0.000149462
0.000155557
0.0391163
0.000147081
0.00016029
0.000387008
0.000164865
0.000149718
0.000147615
0.00014852
0.000149305
0.000146964
0.0320714
0.0248148
0.000148374
0.00015723
0.000158531
0.000157979
0.000148279
0.000145517
0.000223849
0.000175141
0.000328862
0.000145492
0.000148686
0.000148308
0.000146718
0.0814828
0.000160995
0.000149469
0.000147559
0.000146789
0.00014814
0.000211104
0.000154622
0.000148845
0.0121628
0.000236706
0.000195131
0.000165141
0.000147938
0.000147288
0.000178321
0.000167486
0.0572507
0.0294309
0.000152947
0.000153964
0.000149355
0.00015164
0.000148805
0.000149279
0.0355672
0.000145296
0.00014694
0.000175584
0.000149356
0.000223957
0.000150431
0.000192832
0.000157185
0.000149603
0.000151245
0.000155233
0.0001676
0.000165206
0.000168291
0.000149872
0.00017399
0.000150637
0.000147627
0.000148691
0.000149219
0.000148097
0.000153209
0.000170205
0.000160406
0.000148868
0.000149945
0.000147889
0.000147422
0.000171495
0.00014732
0.000151289
0.000203672
0.00014503
0.000167562
0.000186503
0.000148121
0.0389318
0.000167566
0.000149355
0.000210227
0.000148243
0.000149772
0.000147977
0.000147734
0.000149945
0.000152361
0.000148174
0.000219453
0.000150195
0.000147637
0.000148997
0.000159985
0.000161857
0.000147743
0.000153112
0.000147286
0.000161725
0.000147815
0.000157243
0.000145818
0.000150483
0.000145201
0.000147334
0.0807901
0.000145748
0.000170375
0.000147688
0.000150328
0.00014604
0.000161951
0.000148379
0.00016823
0.000148427
0.000205223
0.000149728
0.0260066
0.000145439
0.000151442
0.000149794
0.000148083
0.000147529
0.000152288
0.000148091
0.000170558
0.0143118
0.000227141
0.000152366
0.000159691
0.000147013
0.000160638
0.000176217
0.000147916
0.000156053
0.000168599
0.0615621
0.000186851
0.007292
0.000156045
0.000148712
0.000149506
0.00015381
0.000152356
0.000165397
0.000145221
0.00015145
0.000185747
0.000149742
0.000147429
0.000153624
0.103691
0.000151213
0.000158555
0.000178257
0.000149652
0.062965
0.000145335
0.000146679
0.000149544
0.000147395
0.0208808
0.000179648
0.0949334
0.000148236
0.00109569
0.0302928
0.000252138
0.000165123
0.000178664
0.000193659
0.000161626
0.000148021
0.000147359
0.00015667
0.0198989
0.000146996
0.000156705
0.091287
0.000147288
0.000147167
0.000147694
0.000150554
0.00014747
0.000148111
0.000179752
0.00875577
0.000147997
0.000147818
0.0432985
0.0683808
0.000147048
0.000147588
0.000148946
0.00014705
0.000264545
0.00017964
0.000185444
0.000149967
0.000147125
0.000147168
0.000150134
0.000148212
0.000161644
0.00014991
0.102433
0.000147868
0.000148376
0.000162434
0.000146919
0.000163137
0.000165183
0.000150867
0.00811151
0.0810797
0.00014873
0.000146965
0.0236181
0.0290628
0.000159827
0.000148128
0.000130751
0.000175748
0.00015364
0.000147931
0.000147792
0.000147274
0.000192914
0.000152295
0.000168518
0.000149772
0.051779
0.000343125
0.000147633
0.000147745
0.000169908
0.000148927
0.000146022
0.000153525
0.0677325
0.0579681
0.0660582
0.000149493
0.000174965
0.000161203
0.00014543
0.00014763
0.000149238
0.000191116
0.000149321
0.0001476
0.000174991
0.000148228
0.000170882
0.000148632
0.000148608
0.000145749
0.000148927
0.000199166
0.000149271
0.000147432
0.000166767
0.000164217
0.000189188
0.000149356
0.000178251
0.0625898
0.0784731
0.00015053
0.019211
0.0140423
0.000147291
0.000144788
0.000150032
0.000151022
0.0443285
0.000151464
0.000148718
0.000149323
0.0685378
0.000160345
0.000149311
0.000148859
0.000147566
0.000163758
0.000146111
0.00014681
0.000160927
0.000150382
0.000149314
0.000147076
0.000238774
0.000147613
0.000150264
0.000148057
0.000149407
0.00018629
0.000149305
0.000150728
0.000148351
0.000153898
0.000206699
0.000149941
0.00018807
0.000154673
0.0481679
0.000146248
0.000151556
0.000160582
0.000177977
0.000162359
0.000149883
0.0114232
0.00316219
0.000149629
0.000146984
0.000257806
0.000148405
0.000149647
0.00014618
0.00014958
0.000169522
0.000149948
0.00014995
0.000165122
0.000156662
0.000157283
0.000157451
0.000150069
0.0812491
0.000151146
0.000213595
0.00014703
0.000175428
0.000160312
0.0864279
0.000152656
0.0744978
0.000149779
0.000154744
0.000148134
0.000148551
0.000147622
0.000192023
0.000160316
0.000172938
0.0268328
0.000148697
0.000163
0.000155192
0.00014702
0.000157138
0.000159095
0.076293
0.000147706
0.000155733
0.000163395
0.000151388
0.000160538
0.000149882
0.000144985
0.000149879
0.00018728
0.000148809
0.000147857
0.000146184
0.000145972
0.000147367
0.000147742
0.0001492
0.000146839
0.000148932
0.000149499
0.000153821
0.000157225
0.000147814
0.0530582
0.00014814
0.000913372
0.000159541
0.0513745
0.000162654
0.000154482
0.00922924
0.000162168
0.000189876
0.0564622
0.000163523
0.000149274
0.000146774
0.000150576
0.000187136
0.00014768
0.0619085
0.000147533
0.00854759
0.0281089
0.000177113
0.000150376
0.037878
0.0458766
0.000150803
0.000147735
0.00014974
0.000153051
0.00014492
0.000145675
0.000167156
0.000235522
0.000148399
0.000147641
0.000149263
0.000246638
0.000179507
0.000148974
0.00015392
0.000179865
0.000149629
0.000148024
0.0565847
0.000149171
0.000147292
0.000567227
0.000152206
0.000147916
0.00536931
0.0695549
0.0458999
0.000147404
0.000150943
0.000259306
0.000146207
0.000147628
0.000149887
0.000159322
0.000148143
0.00014863
0.000151771
0.000161465
0.000176657
0.000146465
0.000147802
0.000148406
0.000147431
0.000149821
0.000145131
0.00018969
0.000156632
0.00014801
0.000147726
0.000146346
0.00014765
0.000149528
0.0701125
0.000158136
0.000145345
0.000147373
0.000160434
0.0780491
0.000148146
0.000147701
0.000148054
0.000145304
0.005851
0.00017281
0.000146819
0.00014831
0.000158329
0.000171409
0.000149058
0.000149876
0.000153311
0.000148228
0.000155134
0.000149384
0.00660209
0.000161022
0.000148334
0.000154819
0.0424316
0.000155921
0.000196416
0.000153776
0.000257496
0.00014979
0.000148792
0.000153785
0.000179006
0.000147438
0.000147514
0.000149595
0.000150117
0.000169607
0.000173509
0.000190859
0.000150045
0.000147773
0.000156221
0.000148093
0.000148071
0.0053475
0.00015185
0.000148242
0.000147759
0.000184513
7.21705e-05
0.000147763
0.000148582
0.000182455
0.0001473
0.000148582
0.00014757
0.000182262
0.000150882
0.000155126
0.00653894
0.000149149
0.000149055
0.0629428
0.000147157
0.000175724
0.000147175
0.000151491
0.000162173
0.000148127
0.000148479
0.000149051
0.000151563
0.0146743
0.00014733
0.000148808
0.000178511
0.000153859
0.000234834
0.0878448
0.000163835
0.000149368
0.000223987
0.00014765
0.0191687
0.000149054
0.000148351
0.000147103
0.0120233
0.000149369
0.000149324
0.000148991
0.000162023
0.0589266
0.000156403
0.000166711
0.00014766
0.000148809
0.000162971
0.000157626
0.000146689
0.000154018
0.000147283
0.0816444
0.0513364
0.000148846
0.00015042
0.000149448
0.000226639
0.000148979
0.00926059
0.000147749
0.000147477
0.000146838
0.000149581
0.000152121
0.000149792
0.000147767
0.000148177
0.000154807
0.000186462
0.000147606
0.000153135
0.000152545
0.000161692
0.000147584
0.000153832
0.000150567
0.000147988
0.000150853
0.000160404
0.000149855
0.000147203
0.000154852
0.000146971
0.000184894
0.000150963
0.000176749
0.000148626
0.000148101
0.000147645
0.000183676
0.000161941
0.000146339
0.000153236
0.000177829
0.000149564
0.000146384
0.00015434
0.000149448
0.0131834
0.000180924
0.000153555
0.0227388
0.000150735
0.000162625
0.000180127
0.000160737
0.000162714
0.00964989
0.000159758
0.000191936
0.000148305
0.000150695
0.00014749
0.000147888
0.000155505
0.000146828
0.000176563
0.00014824
0.000148161
0.000168879
0.000147464
0.000173709
0.000155326
0.000154028
0.000147561
0.000161075
0.000229582
0.000143917
0.000160347
0.067596
0.000160601
0.000147149
0.000159731
0.000147783
0.000147008
0.00939912
0.000146714
0.000146304
0.000169702
0.000148049
0.00015632
0.000146955
0.000147832
0.0656927
0.000147584
0.000145807
0.000153272
0.00014742
0.000145326
0.000149649
0.00983727
0.000148759
0.000148443
0.000145404
0.000183007
0.000149422
0.00015307
0.000147547
0.0001594
0.000150103
0.000147479
0.000150566
0.000148558
0.000146281
0.000172673
0.000163768
0.000157355
0.000151324
0.000165385
0.000178023
0.000155119
0.000155577
0.000150513
0.0875633
0.000147822
0.000148228
0.000147278
0.000149549
0.000159409
0.000147111
0.0457873
0.0420173
0.000208735
0.000148441
0.000153328
0.000161527
0.000144995
0.000167843
0.000163555
0.00027967
0.000178987
0.0656733
0.000177856
0.000198804
0.0406514
0.000156528
0.00015077
0.000153966
0.000146906
0.0658726
0.000149908
0.000156297
0.000146585
0.000153632
0.00014815
0.0517016
0.0794228
0.000149302
0.0167989
0.000259636
0.000206096
0.000167861
0.000171477
0.000145815
0.0715697
0.00014809
0.0140808
0.0364895
0.000149307
0.000147649
0.00014784
0.00015125
0.000153902
0.000162314
0.000200701
0.000148736
0.000148108
0.000153926
0.000149383
0.000148088
0.000154731
0.000146739
0.000148258
0.000227448
0.000171556
0.000148124
0.0404495
0.000150641
0.000149798
0.000151202
0.000211657
0.000147548
0.000146144
0.000184406
0.000187016
0.000147345
0.00015395
0.000323469
0.000170505
0.0567256
0.000146461
0.00019863
0.0848053
0.0936871
0.000148436
0.000147707
0.000177216
0.000154502
0.000162602
0.00014931
0.0888452
0.000169323
0.000196198
0.000148477
0.000147658
0.0174171
0.000215637
0.000148927
0.000149799
0.0571941
0.000147435
0.000145696
0.000147552
0.000151607
0.000149253
0.000156513
0.000148655
0.000152138
0.0001454
0.000161463
0.0202612
0.000167356
0.000161744
0.0252466
0.000175811
0.000145706
0.000146981
0.000147664
0.000149877
0.000183182
0.000156542
0.000148626
0.00014817
0.000147689
0.000145171
0.000158116
0.000145309
0.000162587
0.00015262
0.000148733
0.0875149
0.043461
0.000148575
0.0844796
0.000158977
0.000160314
0.000149741
0.000145561
0.0231067
0.0001755
0.000147265
0.000146214
0.000147552
0.000155426
0.000149727
0.000197322
0.000144704
0.000148261
0.000148381
0.0501555
0.0627123
0.00014509
0.000148192
0.000178416
0.000199221
0.000152786
0.0613018
0.0933937
0.000147407
0.000148856
0.00014871
0.000150752
0.0439692
0.000148098
0.000149886
0.000188031
0.000179362
0.000149369
0.000147608
0.000165617
0.000149881
0.000148372
0.000178661
0.000180141
0.0516203
0.000147707
0.000184623
0.000160755
0.000174309
0.000150738
0.000155762
0.000147383
0.000149831
0.000171318
0.000154337
0.000147803
0.000153503
0.0353058
0.000144965
0.000146856
0.000144948
0.00016921
0.000147439
0.000148453
0.000144059
0.000147433
0.000269246
0.100324
0.000148989
0.00207303
0.0787179
0.0557884
0.000147389
0.000147862
0.000146685
0.000147229
0.000148678
0.000148928
0.000145355
0.000148428
0.000146295
0.00015249
0.0230474
0.000160238
0.000227576
0.000159554
0.000148051
0.000150989
0.000159192
0.000148861
0.000146843
0.000162052
0.000158904
0.000253025
0.000167657
0.000144937
0.0389792
0.00015028
0.000144614
0.000147639
0.000220471
0.000167791
0.000150142
0.000154534
0.000148358
0.000148519
0.000157931
0.000167123
0.000158236
0.00697227
0.000148441
0.000148047
0.000254263
0.000161021
0.00015374
0.000189815
0.000151086
0.000167089
0.000209568
0.000172577
0.0113381
0.000147385
0.00014723
0.000147394
0.000148185
0.000148518
0.00015107
0.000166182
0.00017492
0.0434789
0.000148367
0.059496
0.00941641
0.00015358
0.000382077
0.000149048
0.000179931
0.02326
0.000147188
0.00018282
0.000145645
0.000259183
0.000149259
0.000203818
0.000146987
0.0002136
0.000166385
0.0400965
0.000146773
0.000197175
0.000146469
0.000151109
0.00022419
0.00014672
0.0117907
0.0865828
0.00023057
0.0136193
0.00018429
0.0615039
0.000162883
0.000147964
0.00016306
0.000168138
0.00855475
0.000148393
0.000147955
0.000150182
0.00016614
0.000147909
0.000149048
0.000149055
0.0386706
0.0567995
0.000147655
0.0377186
0.000165331
0.000145982
0.000161667
0.000155545
0.0645981
0.000157842
0.000146906
0.000199222
0.000148353
0.000147378
0.000148481
0.000183359
0.000174528
0.000147328
0.000154851
0.000148632
0.000149714
0.000146367
0.0593142
0.000149895
0.000146492
0.000247242
0.000205758
0.000152576
0.000147396
0.0402592
0.000156059
0.000151184
0.000148025
0.000163409
0.00015115
0.000156748
0.000153367
0.00385134
0.000163172
0.000174135
0.000144843
0.000162152
0.000171595
0.000157514
0.000149471
0.0902791
0.000149651
0.000198453
0.000147089
0.000149238
0.000161639
0.000200906
0.000151696
0.000154092
0.000148661
0.000160169
0.000176127
0.0001866
0.000156194
0.000149945
0.000147576
0.000155571
0.000186111
0.000147378
0.000168223
0.00014793
0.000147412
0.0473748
0.000147254
0.0691711
0.000147852
0.000154942
0.000180306
0.000147904
0.000157815
0.000191549
0.000183012
0.00014804
0.000185317
0.000149932
0.000149737
0.000147543
0.0327403
0.0736332
0.000147222
0.000147539
0.000146303
0.000147048
0.000182765
0.0782566
0.000147924
0.000235939
0.000146128
0.0001464
0.000147065
0.000182811
0.00015048
0.000152066
0.000147496
0.00014819
0.0001477
0.000149685
0.000149706
0.000160694
0.00521772
0.000146098
0.000147812
0.000160556
0.000173859
0.000146521
0.00787064
0.000168683
0.00014686
0.000145308
0.000149026
0.000189064
0.000146729
0.000183697
0.000157301
0.00015219
0.000146788
0.000168233
0.000144735
0.00017318
0.000155913
0.000149467
0.000277159
0.000190215
0.000143982
0.000147009
0.018969
0.000186604
0.000179759
0.000153329
0.000183612
0.00014551
0.0879603
0.000181085
0.000147407
0.0322226
0.0712961
0.000151124
0.000165266
0.000170945
0.000146836
0.0903384
0.000148904
0.000156249
0.000158326
0.000149144
0.000148183
0.000163753
0.000146935
0.000147029
0.000146922
0.000963996
0.000147396
0.000147386
0.000146736
0.000147045
0.000147482
0.0001495
0.000173869
0.000161384
0.000151991
0.00014964
0.000415409
0.000149194
0.00014676
0.000147178
0.000146217
0.000148448
0.000147624
0.000158191
0.000183855
0.000149454
0.000159583
0.000162865
0.000146837
0.000155864
0.0623035
0.000150232
0.000145039
0.000148414
0.000166904
0.000149305
0.000149296
0.000152874
0.000153456
0.000630538
0.0136569
0.000146588
0.000146846
0.000147407
0.000166049
0.000159451
0.000146879
0.000155855
0.000167993
0.000148881
0.000155126
0.000148798
0.000180098
0.000208947
0.000150607
0.00017407
0.00015464
0.058102
0.000149321
0.000147076
0.0943721
0.00017117
0.000153015
0.00020096
0.000167987
0.0198704
0.000162227
0.000201031
0.000154861
0.000154232
0.0208668
0.000155144
0.000221118
0.000159977
0.000182469
0.0461716
0.000149951
0.000148765
0.000147655
0.000197286
0.000144104
0.0126678
0.000164601
0.0245097
0.000150662
0.00017054
0.000198754
0.00014745
0.000148985
0.00016647
0.000157756
0.000148469
0.000154568
0.000167342
0.000178323
0.000175557
0.000188394
0.0204758
0.000180316
0.000148661
0.000149284
0.0888335
0.000166423
0.000150174
0.000160784
0.0628046
0.000149215
0.000152496
0.000147396
0.000156634
0.000148113
0.000148594
0.000159834
0.000148622
0.000155469
0.0363937
0.0148935
0.000145912
0.000154138
0.000156253
0.000187464
0.000162141
0.000149478
0.000147294
0.000169565
0.00986865
0.000147356
0.000153349
0.000148624
0.022381
0.000146951
0.000158405
0.000232178
0.00022983
0.0001498
0.000173343
0.000173722
0.000172536
0.000154127
0.000147979
0.0981689
0.000146839
0.000155836
0.000149057
0.0001586
0.000145713
0.000146094
0.000148679
0.00017379
0.000146963
0.000147668
0.000147127
0.000148393
0.000146926
0.000148451
0.000179557
0.0131316
0.056229
0.000154608
0.000148245
0.000157692
0.000152056
0.0569419
0.000149892
0.000175588
0.000145615
0.000147836
0.000149634
0.000161698
0.0779076
0.000147626
0.0431766
0.000149122
0.000144754
0.000151046
0.0512061
0.000151406
0.000161362
0.0739161
0.00014989
0.000148894
0.0149219
0.000147255
0.0247312
0.00014847
0.00016093
0.0172768
0.000150146
0.000148538
0.000146803
0.0172589
0.000156036
0.000147015
0.000206785
0.000147524
0.000150265
0.000177649
0.0512977
0.000179301
0.0830045
0.0071496
0.000167076
0.000151683
0.000176846
0.000205769
0.000147535
0.00014736
0.000150596
0.00015678
0.00016699
0.000147752
0.000153784
0.000147132
0.000147534
0.051571
0.000149462
0.0290399
0.000145278
0.000162016
0.000179926
0.000146576
0.000144713
0.0733678
0.0775379
0.000171037
0.000148418
0.000153773
0.000175891
0.000146299
0.000163349
0.000182201
0.000166414
0.000160451
0.0289004
0.0446281
0.000144829
0.000148792
0.000145462
0.000149234
0.000150526
0.000157338
0.0135231
0.000148698
0.000147646
0.000170718
0.0339123
0.00014536
9.86714e-05
0.00014583
0.000189231
0.000173041
0.100949
0.000182538
0.000163707
0.000163988
0.000145042
0.000144631
0.000205722
0.000154383
0.000148468
0.000339543
0.000146892
0.000148441
0.000145415
0.000169278
0.000181948
0.000256864
0.000172928
0.000157944
0.000157641
0.000148383
0.0427817
0.000214807
0.000150996
0.000147659
0.00014694
0.000188719
0.100296
0.000159883
0.0889044
0.000150428
0.000146822
0.0466895
0.000147972
0.0878392
0.0540592
0.000146367
0.000158045
0.000236352
0.000152662
0.000159685
0.000147255
0.0611289
0.00015582
0.000175855
0.0128116
0.0183347
0.000157534
0.000158261
0.000148825
0.000184081
0.0549166
0.000150888
0.000152514
0.0568464
0.000162849
0.000165929
0.000149739
0.00113605
0.0166824
0.0001685
0.0001479
0.000156076
0.000147068
0.00034586
0.000177846
0.000161688
0.0367605
0.0533912
0.000145105
0.000192336
0.000148568
0.00472573
0.000168741
0.00015648
0.000154537
0.000351137
0.000143767
0.0001798
0.0159742
0.0802874
0.000150938
0.000148055
0.000146374
0.000169478
0.00041841
0.000192258
0.080894
0.000190699
0.000163928
0.000147134
0.0663754
0.000180062
0.000156576
0.000178222
0.0067671
0.0372688
0.0251815
0.0343422
0.048761
0.0242955
0.000148547
0.000156286
0.000160637
0.000148086
0.0369578
0.000303539
0.000147969
0.044517
0.000148779
0.000147804
0.000146235
0.000160072
0.000146908
0.0559542
0.00016429
0.000223282
0.00014704
0.000256239
0.000162625
0.000269834
0.0210433
0.000150293
0.000157303
0.00016115
0.000165196
0.000147019
0.000146087
0.000147036
0.0488343
0.000146371
0.000147009
0.00022209
0.000151532
0.0520152
0.000148157
0.0682552
0.000147561
0.000148262
0.00014808
0.000148169
0.000156755
0.000153165
0.0642141
0.000157628
0.000165546
0.0989885
0.000147213
0.0934867
0.00014657
0.0940917
0.000261445
0.0722381
0.000175993
0.000148173
0.0001498
0.0921086
0.000148534
0.000155889
0.000148647
0.000159487
0.0830854
0.00014701
0.000146794
0.000147222
0.000149746
0.0260315
0.0727641
0.00014736
0.000144073
0.0627333
0.0969117
0.000146895
0.0187578
0.000149742
0.0999886
0.081014
0.00018091
0.000197204
0.00021851
0.000167738
0.0410424
0.000185335
0.000148053
0.000145006
0.000146348
0.0986402
0.083339
0.000150893
0.000155864
0.0416929
0.000146986
0.0320011
0.000147614
0.000148145
0.000145757
0.00438535
0.000182959
0.000146828
0.0549678
0.000149657
0.002919
0.0789635
0.000146653
0.00014863
0.000187179
0.00014757
0.000149502
0.000146619
0.0732646
0.000158077
0.000148055
0.000148779
0.0772777
0.000147831
0.000162104
0.000147715
0.0621532
0.000148565
0.00017242
0.000161886
0.0516929
0.0315034
0.00015908
0.000186056
0.000172919
0.000148371
0.000169769
0.0665158
0.000146912
0.000180313
0.000146301
0.000254477
0.000147112
0.0767947
0.0770397
0.000170327
0.0425297
0.0554687
0.000160443
0.000149955
0.00039331
0.000147331
0.0612325
0.000153786
0.000358198
0.00014747
0.000158545
0.000165807
0.000157212
0.000148644
0.000147848
0.000149243
0.0140784
0.000175762
0.0475769
0.0503049
0.000155394
0.000145518
0.000164526
0.051426
0.000158809
0.000147135
0.000148413
0.0055729
0.00300662
0.0333125
0.0345913
0.000162518
0.000149183
0.000146367
0.000170829
0.000167728
0.000300169
0.000147814
0.000148331
0.0112907
0.000173553
0.000149894
0.000177832
0.000322494
0.000184419
0.000146085
0.00016296
0.000255086
0.000360034
0.0446673
0.000204184
0.000147265
0.000149778
0.000150944
0.00014989
0.000147959
0.00014849
0.000158975
0.000179024
0.000161403
0.000157448
0.000156958
0.000149189
0.00015448
0.000149986
0.000159811
0.00015856
0.000147246
0.000156894
0.000147475
0.000146687
0.000149822
0.000148701
0.000209598
0.000145535
0.000167312
0.000329525
0.000414002
0.0705505
0.0424886
0.000153038
0.000149534
0.000147115
0.100472
0.000147947
0.00014441
0.000149102
0.0769054
0.000157672
0.000162092
0.000270462
0.000151433
0.000148068
0.000157984
0.000146963
0.000163052
0.000149894
0.000159407
0.000146936
0.000147839
0.00015077
0.000151636
0.000154469
0.000300795
0.000165775
0.000173992
0.000171879
0.000191864
0.000164925
0.000173733
0.00014784
0.0397369
0.000152632
0.000154909
0.000147877
0.000150275
0.00017552
0.000147774
0.000167219
0.0061786
0.000156326
0.000185796
0.00017866
0.000164504
0.000168751
0.000166087
0.000147441
0.000157565
0.000148487
0.00017141
0.000166441
0.0978634
0.000146331
0.000166013
0.00015448
0.0677981
0.000191363
0.000167965
0.000148545
0.000168058
0.000145028
0.000176181
0.000150437
0.081091
0.000145753
0.000154008
0.000147942
0.000160568
0.00019373
0.000158558
0.00907949
0.000148121
0.000160857
0.000166145
0.000147934
0.00111859
0.101834
0.000194342
0.000176325
0.000166954
0.000147491
0.000147101
0.0222454
0.000176476
0.000146344
0.0001498
0.000153138
0.000147512
0.000217962
0.000146931
0.0998667
0.000187409
0.000192738
0.000161493
0.000149323
0.000145728
0.000147464
0.00018246
0.000167321
0.000154654
0.0359519
0.0001491
0.000150902
0.000155201
0.0887596
0.000144987
0.000212197
0.000143758
0.0911285
0.000147168
0.000147145
0.000159653
0.000147716
0.000149051
0.000189296
0.000148539
0.000149292
0.000147144
0.000165097
0.000154425
0.040663
0.000147809
0.000148644
0.000146729
0.000189736
0.000146546
0.000156029
0.000167615
0.0877896
0.0470546
0.00053481
0.000211248
0.000223689
0.000164124
0.000165576
0.000155096
0.000149649
0.000148704
0.0891903
0.000164591
0.000144796
0.000147559
0.000147491
0.000157223
0.000172313
0.00014965
0.000156826
0.000187203
0.000197823
0.000174065
0.000147576
0.00014955
0.0609304
0.0001522
0.000145689
0.0762051
0.028413
0.000146138
0.000144173
0.000155206
0.000148224
0.000159661
0.000149627
0.000376778
0.000149801
0.0409372
0.000148183
0.0134448
0.000158201
0.000147984
0.00017894
0.000145449
0.000148264
0.000149745
0.000160886
0.000250898
0.000147368
0.000195502
0.000149895
0.00014927
0.000170353
0.000146927
0.00014876
0.000148569
0.000144496
0.000148111
0.000144901
0.000149045
0.000225029
0.000146839
0.000146999
0.000165331
0.000145677
0.0001474
0.000149053
0.000148963
0.0875121
0.000188206
0.000148397
0.000150727
0.000147986
0.000149895
0.000203399
0.000148227
0.000147708
0.00979878
0.000147531
0.000167744
0.000177317
0.000160669
0.000147718
0.000202826
0.000147735
0.000235497
0.000165349
0.000147811
0.0243167
0.034371
0.000155712
0.000172123
0.000147354
0.000147223
0.000162265
0.000203758
0.000147052
0.000146796
0.000149036
0.000164043
0.000148587
0.000160634
0.000148642
0.00016682
0.000144493
0.000161246
0.000202731
0.00014735
0.000154321
0.000156349
0.000162294
0.00014592
0.000147539
0.000150682
0.000160943
0.000166581
0.000149446
0.000190684
0.000147931
0.0972546
0.000144937
0.000146335
0.00017461
0.000149795
0.000179439
0.000187833
0.000161395
0.000148146
0.000150696
0.00014808
0.000161646
0.000148532
0.000163615
0.000155136
0.000148856
0.000146088
0.000155584
0.0794508
0.000159201
0.000163936
0.0776242
0.000252074
0.000161638
0.000145025
0.0932363
0.000148085
0.00015198
0.000149483
0.000186543
0.000147978
0.000160185
0.000155621
0.000151742
0.000148708
0.000154229
0.000149272
0.000174525
0.000147342
0.000149184
0.000148147
0.000157087
0.000624326
0.000148325
0.0180796
0.000167337
0.000144307
0.0802058
0.000232264
0.000147568
0.000151483
0.000187877
0.000146771
0.00014739
0.071858
0.000148024
0.0857468
0.000153693
0.000153387
0.000150004
0.000149627
0.000147841