/*--------------------------------*- C++ -*----------------------------------*\
| =========                 |                                                 |
| \\      /  F ield         | OpenFOAM: The Open Source CFD Toolbox           |
|  \\    /   O peration     | Version:  v2012                                 |
|   \\  /    A nd           | Website:  www.openfoam.com                      |
|    \\/     M anipulation  |                                                 |
\*---------------------------------------------------------------------------*/
FoamFile
{
    version     2.0;
    format      ascii;
    class       volScalarField;
    location    "100";
    object      nut;
}
// * * * * * * * * * * * * * * * * * * * * * * * * * * * * * * * * * * * * * //

dimensions      [0 2 -1 0 0 0 0];


internalField   nonuniform List<scalar> 
10042
(
0.00672144
0.00672078
0.0036321
0.00338016
0.00678487
0.00672135
0.00651393
0.000315251
0.00527519
0.00671972
0.00589355
0.00689033
0.00671908
0.00671897
0.00090292
0.00672029
0.00672009
0.00672541
0.0067216
4.70919e-05
0.00671769
0.000425863
0.00674233
0.00672002
0.00672094
0.000786038
0.00672268
0.00129187
0.0046694
0.00159904
0.00672113
0.0011841
0.00671993
0.00195356
0.000849033
0.00672005
0.000836742
0.000718131
0.00671925
0.000451044
4.64702e-05
0.00100688
0.00718596
0.00263247
0.00667311
0.000461297
0.00173569
0.000376936
0.000855248
0.000539842
0.00672299
0.0038165
0.000965691
0.00234947
0.000883629
0.00672111
0.00475868
0.00175319
0.00198072
0.00111547
0.00672081
0.00672001
0.000804754
0.00387145
0.00177039
0.0020285
0.00250746
7.64425e-05
0.0114419
0.00403632
0.00262058
4.82526e-05
0.0024878
0.000254583
0.00277439
0.00672093
0.00610449
0.00672094
0.000317864
0.00869504
0.000820245
0.00521791
0.00291372
0.0011821
0.00255708
0.00672453
0.00672411
0.000120302
0.00350215
0.00672278
0.00226224
0.00485692
0.00120687
0.00432314
0.00176276
0.00368594
0.00671904
0.00387953
0.000488463
0.00466644
0.00672623
0.000160505
0.000141031
0.00672427
0.00139412
0.00017213
0.00672373
0.0067192
0.00671783
0.00673432
0.00671817
0.00533788
0.000782421
0.0103462
0.0020331
0.00659412
0.00672481
0.00672114
0.00346743
0.00659729
0.00358957
0.000288826
0.00245381
0.00672204
0.000165683
0.00248246
0.000422522
0.000754535
0.00019922
0.00672346
0.000295894
0.00283052
0.00792319
0.000350516
0.00432093
0.000218851
0.0052129
0.00222996
0.000367538
0.000111938
0.00125534
0.00672527
0.00148831
0.000168566
0.00521803
0.00673618
0.000238677
0.00675623
0.0035999
0.000704798
0.00479358
0.00672535
0.0137096
0.00777946
0.00672393
0.00671883
0.00127098
0.00672004
0.000208579
0.000698943
0.00452908
0.000298561
0.00672089
0.00479038
0.00247454
0.00278832
0.000112286
0.000659359
0.00106
0.00810982
0.00279958
0.0067196
0.00309145
4.12108e-05
0.000199824
0.00789245
0.00176949
0.0024967
6.46236e-05
0.000468927
0.0011793
0.00176571
0.00243352
0.000729993
0.00106144
0.00584053
0.000317922
0.00251719
0.00574817
0.00125694
3.71946e-05
0.00141053
0.0142275
0.00117635
0.000357624
0.000386577
0.00107036
0.00672207
0.00671824
0.00107472
0.000191437
0.00210908
0.00569942
4.47503e-05
0.00220266
0.00673535
4.44624e-05
0.00672334
0.00672548
0.00672518
8.14997e-05
0.00680277
0.000132066
5.68784e-05
0.00135356
0.000298342
0.003217
0.00671936
0.000249053
0.00672559
0.000753101
0.00122509
8.88993e-05
0.000703002
0.000614353
0.000765875
0.000698726
0.0067116
0.000248694
0.00246079
0.004934
5.30649e-05
0.00671923
0.00256339
0.00356244
0.000673729
0.00673549
0.00672275
0.00164108
0.00137506
0.00672106
0.00246594
0.00255065
0.000716232
0.00673119
0.00672077
0.00672287
0.00132613
0.00267365
0.00672564
0.0067191
0.00407684
0.00081125
0.000106003
0.000299024
0.00379922
0.000191157
0.000204865
0.000835744
0.000429249
0.00382697
0.00172027
0.00672331
0.00672512
0.00118935
0.00673355
0.000570012
0.00213716
0.00672396
0.00672539
0.000199003
0.00263807
6.66279e-05
0.000199121
0.000129696
0.00113856
0.00134552
0.00673088
0.00130121
0.00460228
0.000469772
0.00393198
0.000820703
0.00888503
0.00673369
0.00394226
0.0033456
0.000403143
0.00269742
0.00672089
0.000883146
0.00737433
0.000346415
0.000180615
0.00672335
0.00671873
0.00553899
0.00493336
0.000682583
0.00574112
0.00672067
0.00672102
0.00316404
0.000697843
0.000816501
0.000143851
0.0066682
0.00107733
0.000990192
0.00672803
0.00124503
0.0067225
0.00204959
0.000170428
0.000233597
0.000988805
0.00672225
0.00198882
0.00360113
0.000797741
0.000769781
0.00672513
0.000399612
0.00671771
0.00673288
0.00256171
0.000146409
0.0067261
0.00132036
0.00305668
0.000879525
0.00432122
0.00672968
0.00672374
0.00671904
0.00411616
0.00028172
0.000335122
0.000213301
0.000164759
0.000668904
0.000787741
0.00293547
0.00671784
0.00234624
0.00672565
0.000558154
0.00393909
0.00205608
0.000427448
0.00594653
0.000706792
0.00111103
0.000395835
0.00403652
0.000630383
0.000215788
0.000401588
0.00125918
0.00672251
0.000395389
0.000238216
0.00247848
0.00029354
0.00671866
0.00671897
0.00671865
0.000729284
0.00034457
0.00170494
0.00672526
0.00113497
0.00672625
0.00672578
4.8203e-05
0.00672205
0.00674304
0.0058011
0.00671766
9.99412e-05
0.0004091
0.0002271
0.0105723
0.00282825
0.000523335
4.40651e-05
0.00672334
0.000518014
0.00672627
0.0018827
0.000694578
0.00672117
0.00084791
4.96548e-05
0.00679461
0.00671781
0.000114607
4.03075e-05
0.0020766
0.00675208
0.00129907
0.000166564
0.00672006
7.73953e-05
0.000261033
0.00672602
0.0067256
0.00673428
0.00672547
0.00672684
0.00673228
0.000545493
0.000233187
0.001744
0.00737044
0.0067194
0.00622871
0.000326271
0.00325833
0.000743966
0.000351961
0.0012006
0.00674429
0.006749
8.85104e-05
0.00267236
0.000506825
0.00164315
0.00710774
0.00141384
0.000606135
0.000912582
0.00671833
0.00588916
0.000242875
0.00671857
0.00051383
0.0051126
0.00421933
0.00156456
0.00106395
0.00672535
0.00673233
0.00182671
0.00672444
0.000948181
0.00116034
0.00673268
0.00526821
0.0104957
0.00671774
0.00191114
0.00163656
0.00671864
0.00671977
0.00672305
0.00259538
0.00672191
0.00677456
0.000428591
0.000376065
0.00030109
0.00672566
0.000488808
0.000417137
0.000678265
0.00672764
0.0067218
0.000349818
0.00261182
0.00671852
0.000340367
0.00443822
0.0067315
0.00107921
0.00672441
0.000208152
0.00672453
0.00671869
0.00381465
0.00671704
0.00298887
0.00672119
0.00171738
0.000430078
0.00671767
0.00427872
0.000379898
0.00147802
0.0106095
0.00172637
0.00672598
0.00672592
0.000146343
0.00425265
0.00672575
0.00671967
0.00254511
0.000411519
0.0059831
0.00672428
0.000211509
2.31885e-05
0.000683286
0.00672551
0.00672291
0.00376617
0.00672432
0.0067256
0.00962649
0.00424511
0.0067213
0.000729109
0.000979092
0.0009374
0.00255151
0.00671939
0.000695334
8.79038e-05
4.57102e-05
0.00674139
0.00353124
0.00335119
0.00671775
0.0109932
0.000419806
0.0028013
0.00351195
0.00673539
0.00278657
0.000586486
0.00101078
0.00672282
0.00152099
2.61047e-05
4.94757e-05
0.000197249
0.00671993
0.00432574
0.000521271
0.000279047
0.0105656
0.00111779
0.000673632
0.000518251
0.00672437
0.0013599
0.00221503
0.00672417
0.00524495
0.00672203
0.00672691
0.000451324
0.00672448
0.000664387
0.00185121
0.000334176
0.000471847
0.0067252
0.00199811
0.000859063
0.000681287
0.000207735
8.97989e-05
0.006726
0.00057036
0.00142466
0.0037099
0.0067222
0.00219296
0.00672127
0.000628276
0.000283656
0.000154186
0.00672287
0.00155285
0.00671949
0.00672768
5.23942e-05
0.00671811
0.0011478
0.000423473
0.00672392
0.000260904
0.000411352
0.00672071
0.00538524
0.000550742
0.00672452
0.000300307
0.00284987
0.00672568
0.00318632
0.00672165
0.00672627
0.00113241
0.00265296
2.763e-05
0.00128819
0.00672241
0.0020928
0.000391117
0.000640137
0.00672234
0.0015013
0.0047443
0.000720257
0.00383396
0.000463365
0.00674574
0.00102641
0.00674522
0.00671847
0.00690679
0.00673401
6.07753e-05
0.00672326
0.00227392
0.00671735
0.00068748
0.0067214
0.000502526
0.0025418
0.000273745
0.00672561
0.00494372
0.00675672
0.000914518
0.00672578
0.00300825
0.0067188
0.00116599
0.00672119
4.98651e-05
0.00042222
0.000650558
0.00143708
0.000231157
0.00532234
0.000220512
0.000443607
0.00671976
0.000358765
8.31795e-05
0.0111834
0.000462353
0.000693144
0.000769226
0.00216173
0.00672489
0.00139016
0.00114571
0.00077179
0.00672106
0.00117485
0.000264481
0.00672548
0.00672754
0.00144188
0.00799951
0.000960912
0.000519116
0.000503871
0.00672537
0.00980209
0.00672168
0.0067214
0.0016657
0.00447933
0.00270148
0.000421414
0.0079532
0.00672056
0.000207849
0.00297947
0.000604796
0.000867577
0.000409478
0.000273726
0.000228033
0.00305328
0.00478049
0.000322937
0.00199941
0.00559418
0.000402246
0.0110274
0.00672589
0.00671837
0.00373716
0.00118173
0.0067187
0.00378302
0.000141465
0.00152241
0.00403319
0.00671954
0.00758622
0.0159281
0.00613291
0.00672667
0.00672285
0.00672527
0.00029704
0.000412062
4.98568e-05
0.00135824
0.00671838
0.0051471
0.00115141
0.00672091
0.000712085
0.00128428
0.00701359
0.00671973
0.00672123
0.000259204
0.00596564
0.000782808
9.55654e-05
0.00192378
0.00024592
0.0118356
0.00213472
0.0067268
0.00294047
0.00370359
0.00027047
0.00352893
0.00029838
4.46208e-05
0.000546475
0.00330182
0.00671927
0.00671802
6.72408e-05
0.00135992
6.46868e-05
0.00672569
0.00596027
0.000357398
0.00672279
0.0067198
5.61603e-05
0.0067232
0.0067174
0.000711263
0.010517
0.0118705
0.00659714
0.00319206
0.000428217
0.000243659
0.00671909
0.00675405
0.00672408
6.98571e-05
0.00672424
0.0067225
0.000422507
0.00265942
0.000253055
0.00672187
0.0067222
0.00672025
0.00672304
0.000330337
0.00672407
0.00424194
0.000502776
0.000122034
3.19344e-05
0.00672451
0.000244373
0.0156572
0.0105865
0.00112913
0.00272662
0.0016267
0.00672548
0.00671921
0.00131882
0.000916658
0.0149875
0.00108877
0.00672229
0.00672427
0.0152169
0.000248818
0.00350738
0.00672271
0.00672728
0.000299871
0.00671721
0.00672472
0.000783041
0.00124105
0.0067243
0.00505603
2.9506e-05
0.00408933
0.00128701
0.0067212
0.0017099
0.00016602
0.00672433
0.00108911
0.00672137
0.00116703
2.72079e-05
0.00672626
3.89686e-05
0.000758585
0.0135551
0.00675165
0.00118433
0.000815713
0.000270581
0.000113129
0.00144531
0.0010212
0.001395
0.00141611
0.00674753
0.00061941
0.00672158
0.00672532
0.00672817
0.0067251
0.000365456
0.0067263
0.00672628
8.97885e-05
0.000512294
0.00687643
0.00031572
0.00121717
0.00773568
0.00176271
3.4941e-05
0.00672664
0.000464884
0.000257415
0.0120709
0.00125731
0.0107314
0.00672573
0.00151533
0.00672033
0.00232398
0.00441727
0.000337763
0.000166797
0.000581439
0.00291428
0.00672223
1.32901e-05
0.0014135
0.00570005
0.00027626
0.000664712
0.0106278
0.00671976
0.000428067
0.00013491
0.00109236
0.000149311
0.00672606
0.00671893
0.00672604
4.91702e-05
0.00672283
0.00671967
0.00672607
0.00671965
0.00671861
0.00671939
0.00197029
0.00672203
0.00672317
0.00144925
0.000684846
0.000318976
0.00672195
0.0128258
0.00281099
0.000207811
0.00020721
0.00854302
0.000531446
0.00151735
0.00140765
0.000611998
5.09116e-05
0.00720042
0.000305873
0.00672412
0.00672012
0.00126414
0.000165259
0.00332734
0.00966043
0.00336541
0.000441267
0.00517081
0.000537695
0.00186726
0.00597814
0.00381886
0.000969029
0.00672192
0.00672561
0.00152127
0.00671887
0.0067234
0.000211693
0.000696145
0.00672156
0.0036986
0.00153347
0.000249605
0.000466564
0.00672345
0.000836068
0.00030086
0.00156726
0.00672019
0.00943755
0.00176611
0.00563313
4.75393e-05
0.000879287
0.00344076
0.000896013
0.0141576
0.0050241
0.00672801
0.0010452
0.000542212
0.00672745
0.00353513
0.0067261
0.0010276
0.00672076
0.00672174
0.00236184
0.00012551
5.0751e-05
0.00672488
0.00380279
0.00672156
0.00433484
0.00145408
0.00671857
0.000269253
0.000462647
0.0027927
0.00672031
0.00672434
0.006719
0.00189605
0.0103738
0.000833655
0.0067528
0.00672223
0.000153799
0.0112405
0.0067211
0.00671917
0.00672111
0.00674811
0.000556652
0.00058146
0.00675895
0.0067208
0.000697989
8.27071e-05
0.00672343
0.00672607
0.000736047
0.0030161
0.00110389
0.0016347
0.00172672
0.000387249
0.00672126
0.000822497
0.00311087
0.000502301
0.000344117
0.000881656
0.000595909
0.00672576
0.00372402
0.0010934
0.000432141
0.00534294
0.00611683
0.00672519
0.0024039
5.67902e-05
8.89114e-05
0.00060558
0.00198182
0.00671923
0.000466231
0.00289546
0.00295913
0.00133483
0.00092542
0.00265598
0.00672168
4.11169e-05
6.09479e-05
0.00671918
0.0022683
0.000307706
0.0048735
0.00672195
0.00672816
0.000349716
0.00137892
0.00117198
0.000604511
0.0018131
0.00672353
0.0164735
0.00671788
5.38038e-05
0.00672195
0.00118523
0.000222677
0.00255837
0.0067216
0.00362353
0.00143213
0.00129354
0.00672249
0.00672253
4.24666e-05
0.000549881
0.000740777
0.0110381
0.00020355
0.00672448
0.000210643
0.00450338
0.00214697
0.00672358
0.00256536
0.00677368
0.00161342
0.00672448
0.00167119
0.00672322
0.000674032
0.0174755
0.000486279
0.000287107
0.00375481
0.00672258
0.000420382
0.00057778
0.0067191
0.000888339
0.00617132
0.0129214
0.00897754
0.00672301
0.00105859
0.00672477
0.000573508
0.00672345
0.00022755
0.00672263
0.00413709
0.00676107
0.00184324
0.00133328
0.00672573
0.00672027
0.00303694
0.000397824
0.000346707
0.00378549
0.00117029
0.00158069
0.000237594
0.00386801
0.000518639
0.00143322
0.00311423
0.000919009
0.000900699
0.00672593
0.00671792
0.000505416
0.00520949
0.00013349
0.00132597
9.07884e-05
0.00215426
0.00672062
0.00575528
0.000516285
0.000268112
0.00672338
0.00118397
0.000366607
0.00148308
0.00672439
0.000904047
0.00672443
0.00124146
5.24589e-05
0.000839849
0.00265102
0.000980136
0.000682709
0.000271925
0.000260561
0.000814164
0.00156061
0.000976943
0.000372764
0.00290518
0.00165871
0.00402958
0.00357565
0.000892019
0.00566631
4.30103e-05
0.00246698
0.00274554
0.000141449
0.00672186
0.000483639
0.00129883
0.000668145
0.00394916
0.000159338
0.000624019
0.00671739
0.000737655
0.00934455
0.000142408
0.0051437
0.000974903
0.00671938
0.0049231
0.00123211
0.00672142
0.00671713
0.000417248
0.00297634
0.00107075
0.0051312
0.00671962
0.0111906
0.00350965
0.00673025
0.000985478
0.00672927
0.00675499
0.00672522
0.000930671
0.00200198
0.00672145
0.0067402
0.00038498
0.00151531
0.000876206
0.00672932
0.00028457
0.00134888
0.00503502
0.00135274
0.00672193
0.0067173
7.69324e-05
0.00031885
0.000585309
0.000929259
0.00030225
0.000347077
0.000413289
0.000380126
0.00109331
0.0104425
0.00392719
0.00278793
0.00671796
0.00672481
0.00025089
0.00671983
0.00439331
0.00727248
8.12567e-05
0.00672145
0.000890695
0.000261188
0.00673288
6.8395e-05
0.000193501
0.000230141
0.000430489
0.0104208
0.000361289
0.000371738
0.0166915
0.000523961
0.00183769
0.000676195
0.00563122
0.0113014
0.00175302
0.000363043
0.00672544
0.000687343
0.00672071
0.0081036
0.0107752
0.00672411
0.002815
0.000283927
0.000441195
0.000428496
0.000256283
0.00672951
0.0104506
0.00296736
0.00239009
0.00571907
0.00672416
0.00372633
0.00671953
0.000957614
0.0013725
0.0004757
0.000343631
0.00672238
0.00672054
0.000950455
0.00218853
0.00672018
0.000614445
0.00672147
0.00672113
0.000648544
0.000286284
0.0067206
0.00549609
0.00213928
0.00672577
0.00089202
0.000283757
0.00672566
0.00672569
0.000277858
0.000132051
0.00459616
0.0008762
0.000320111
0.000343893
0.00969838
0.00672543
0.000380259
0.0118149
0.00772289
0.00672165
0.00366339
0.000439051
0.000542594
0.000268721
0.00168147
0.00970971
0.000414893
0.000245485
0.00235905
0.00671902
0.00278686
0.000538372
0.00672331
0.00672576
0.0080192
0.00672624
0.00674689
0.00631157
0.00141674
0.00672397
0.000344084
0.002118
0.0015785
0.00672451
0.000713654
0.000840721
0.000202926
0.000551915
0.00188706
0.000284614
0.0067321
0.00477556
0.00370195
0.00672586
0.000172403
0.000337032
0.00394337
0.00275886
0.00672196
0.00671829
0.000297345
0.00672211
0.000139664
0.00150226
0.00672256
0.00973054
0.00647844
0.00672203
0.00950117
0.000274224
0.000446089
0.0067256
0.00673126
0.00235523
0.000291409
0.00671809
0.0067297
0.00672768
0.000816489
0.00672554
0.000377537
0.00672189
0.00672119
0.00259633
0.0186868
0.00808572
0.00674313
0.00278284
9.59354e-05
5.27024e-05
0.00066354
0.0101801
0.00994856
0.00679201
0.00672266
0.00206021
0.00107246
0.0157065
0.00672054
0.00672607
0.000129004
0.000245954
0.00672444
0.00672647
6.65723e-05
0.00672605
0.00672147
0.000173674
0.000353896
0.00843035
0.00671916
0.000449674
0.000168355
0.000466507
0.000985733
0.000513357
0.00671933
0.00681746
6.06629e-05
0.000639153
0.00671989
0.000813985
0.00566733
0.00672909
0.00673358
0.00673082
0.000141727
0.00671892
0.00672137
0.00671696
0.00671915
0.000330323
0.00778547
0.00184874
0.000644861
0.0109738
0.00959435
0.00672052
0.00357836
0.00672061
0.00672699
0.00672232
0.00672329
0.00672111
0.00672137
0.00671766
0.000720681
0.0017533
0.000277528
0.000715228
0.000834142
0.00672029
0.00101566
0.000407144
0.00194629
0.00672261
0.000243385
0.000398761
0.000351217
0.000525395
0.00674164
0.00356957
0.0013703
0.00672641
0.00361213
0.000419419
0.000516227
0.00113313
0.000627803
0.00672141
0.00672194
0.000280095
0.000550523
0.0010895
0.00134235
0.00672167
0.00672006
0.000301682
0.00028357
0.000705748
0.000299739
0.00153848
0.000142032
0.000302
0.000262255
0.00120961
0.00429246
0.00679192
0.00671849
0.00672122
0.00672182
0.00127595
0.000502726
0.00055372
0.00289116
0.0067214
0.00664931
0.0016482
0.00162305
0.000229753
0.00186554
0.000254851
0.00300879
0.00671803
0.000357581
0.00675842
2.08842e-05
0.00672401
0.000375121
0.00672549
0.000231519
0.000651382
0.00613091
0.00671884
0.000328705
0.00677755
0.00150634
0.00060059
0.00671927
0.00126169
0.0112169
0.000744127
0.00170597
0.000354478
0.00989195
0.000337654
0.00672082
0.000206422
0.000409613
0.00198275
0.00672145
0.00671991
0.00169001
0.000282428
0.00344473
0.00188598
0.00187545
0.00238619
0.015553
0.00377938
0.00384202
0.000134785
0.00671921
0.000306695
0.000492823
0.0182306
0.000505492
0.00519188
2.44934e-05
0.00672138
0.00671835
0.00672156
0.000194255
0.00036943
0.00432646
0.000507498
0.0067221
0.00672549
0.00671697
0.00573823
0.00672607
0.0067159
0.000422582
0.000406215
0.00124612
0.00452296
0.0167175
0.000434743
0.00096868
0.00298866
0.000135848
0.00147179
0.00103898
0.000797491
0.00113917
0.000228585
0.000376104
0.00673867
0.000865333
0.000570267
0.00100119
0.00151294
0.00751438
0.00672508
0.0003769
0.00672201
0.00672412
0.000939496
0.000358492
0.00134792
0.00103537
0.00672233
0.000233571
0.000383295
0.000384947
0.000471971
0.00672628
0.00671869
0.000386269
0.000391993
0.00671913
0.000484038
0.00671991
0.00672015
0.00768594
0.00672848
0.0077429
0.00383379
0.000440729
0.000395471
0.00319761
0.000878106
0.000416855
0.000285669
0.00301484
0.000406866
0.00208191
0.00672563
0.00407319
0.00581629
0.0151593
0.00672221
0.00672832
0.00677395
0.0056682
0.000328207
0.013265
0.00313133
2.45815e-05
0.00672465
0.00671688
0.00671921
0.000535879
0.00139161
0.000843874
0.00672154
0.00274764
0.00376055
0.00672533
0.00672545
0.000586621
0.000398367
0.00675918
0.00336433
0.000150065
0.000281076
0.00672316
0.00177202
0.000298343
0.00619749
0.00675536
0.00355107
0.000350423
0.00599052
0.000398464
0.000532693
0.00195763
0.00657281
0.00042959
0.00672214
5.65431e-05
0.000473675
0.00148475
0.000417716
0.000378417
0.00671812
0.00672685
0.00246979
0.000270943
0.000363073
0.00181984
0.000404355
0.00675444
0.0103055
0.000481901
0.00679266
0.0149794
0.0146726
0.00102498
0.000320755
0.000397775
0.00599803
0.00736305
0.00195454
0.000926004
0.000551906
0.00174139
0.00672044
0.00014132
0.00672025
0.00671741
0.00671987
0.000235565
0.00418378
0.00671821
0.00614124
0.00671945
0.00390715
0.00672492
0.000475224
0.000130679
0.00164275
0.00672534
0.000228224
0.00177815
0.00672184
0.00672309
0.00676973
0.0067216
0.00671882
0.000841622
0.000354165
0.00672471
0.000690567
0.000135903
0.0054744
0.000480863
0.0123903
0.00152043
0.00673446
0.00672158
6.46437e-05
0.00672436
0.00672407
0.00084812
0.000689076
0.000215304
0.000400832
0.00671764
0.00671693
0.00671873
0.000113517
0.00689171
0.00612369
0.000382973
0.00011824
0.00187108
0.000466178
0.00672264
0.00019314
0.000441287
0.00191995
7.87015e-05
0.000716617
0.00896363
0.00672435
0.00671956
0.00975358
6.04944e-05
0.000883667
0.000393866
6.38245e-05
0.000647193
0.000153704
2.65596e-05
0.00092954
0.00136778
0.00365723
0.000521964
0.000564843
0.000910526
0.000169945
0.00656051
0.0067263
0.00205248
0.00671957
7.55489e-05
0.00671674
0.00210706
0.000630642
0.00114872
0.00108672
5.49317e-05
0.000218075
0.00671839
0.00185174
7.0611e-05
0.000471061
0.00672165
0.0016487
8.61825e-05
0.000308548
0.000251225
0.000352942
0.0018185
0.000119192
0.006722
0.006724
0.0109271
7.55065e-05
0.00146817
0.000241196
0.00862407
0.00195083
0.00158055
0.00671894
0.000441108
0.0067204
0.00672192
0.000166189
0.00211022
0.00687398
0.00574513
0.000473179
0.00671597
0.000562466
0.000992053
0.000119317
0.000189507
0.00209447
0.00671824
6.29078e-05
0.000474349
0.00672076
0.000570588
0.00232028
0.00430502
0.00634148
0.000494138
0.000717366
0.000770352
0.00672585
5.4294e-05
0.000171498
0.000367128
0.000587016
0.00671983
0.00889303
0.0067319
0.001158
0.00171769
0.000882876
0.00674507
0.0067597
0.00269269
0.00030109
0.00612834
0.00671901
0.00463989
0.00416897
0.00672069
0.00248042
0.000267487
0.00198799
0.0162602
0.000942966
0.00672118
0.000274458
0.00133279
0.00756459
0.00672611
4.06886e-05
0.00673504
0.0067215
0.00217854
0.000455639
0.0139289
0.00672332
0.0070912
0.00229106
0.00672449
0.00130924
0.00577384
0.000948055
0.000132451
0.00803443
0.00672609
0.00192023
0.00182131
0.006561
0.00234506
0.00672166
0.000707017
0.00107164
0.00234458
0.00672203
0.00671684
0.00193412
0.000976791
0.00672428
2.70597e-05
0.00671922
0.00202313
0.000282037
0.00197
5.64603e-05
0.0114021
0.0010008
0.000101567
0.000915629
4.74013e-05
0.000267481
0.00476959
0.00466504
0.0011884
0.00114213
7.06143e-05
0.00671974
0.00058801
0.00671827
0.00671899
0.0166653
0.00672477
0.00347803
0.00673927
0.0008742
0.000459027
0.00671617
0.00672449
0.0105876
0.00968035
0.000237608
0.00672161
0.000800744
0.000538431
0.0067223
0.000654687
0.000265913
0.000561844
0.00689435
0.00453872
0.00162444
0.00672097
0.00672243
0.00671899
0.00672385
0.00231156
0.00113762
0.000596514
0.00672211
0.00672328
0.000616159
0.0017894
0.00674052
5.28754e-05
0.00675688
0.00026259
0.000377325
0.00933462
0.000477729
0.000116152
0.000114659
0.00674357
0.00672285
0.000235754
0.000680757
0.00672177
0.000345375
0.00673072
0.00672161
0.00672529
0.00040075
6.0866e-05
0.000338774
4.48566e-05
0.000884251
0.000495354
0.0041358
0.0037056
0.000505778
0.00123853
0.00672069
0.00522709
0.000390817
0.00796373
0.000271103
0.00757871
0.00114521
0.00623298
0.00821401
0.0030572
0.0111776
0.00493057
0.00674946
0.000512371
0.000697698
0.000743235
0.000245982
0.00460093
0.0100956
0.00101204
5.5425e-05
0.00207794
0.00234493
0.000920924
0.00108461
0.00672296
0.000144944
0.00433054
0.00222966
0.0013292
0.0093372
0.00013076
9.53518e-05
0.00672577
0.000887388
0.00287704
5.9351e-05
0.00339366
0.000965051
0.00671821
2.53464e-05
0.000337324
0.000534671
0.00390206
0.00860184
0.00674711
0.000244272
0.00672211
0.00110074
6.80263e-05
0.00119297
0.00131293
0.000330434
0.00671619
0.000454825
0.00216314
0.0117887
0.00122555
0.0067202
0.00671878
9.35373e-05
0.000209641
0.000190212
0.0109756
0.000414294
0.000306054
0.00676229
0.0100331
0.000345615
0.000455427
5.87753e-05
0.00115475
0.00647321
0.00445319
0.00399292
0.00651155
0.00414323
0.00234892
0.000358887
0.000481356
0.00562346
0.00337981
0.000351168
0.00671997
0.0052934
0.00672281
0.00672134
0.0067179
0.000608653
0.00672012
0.0084267
9.04979e-05
0.000602577
0.00679055
0.000335183
0.000134457
0.000596274
0.00365029
0.00246679
0.000893034
0.00025616
8.43874e-05
0.0050914
0.00676012
0.00671825
0.00812784
0.00672189
0.00405792
0.000615119
0.00173167
0.00220416
0.00672041
0.00811803
0.00672331
0.00672075
0.0028613
0.00265986
0.00112647
0.000900798
0.00629747
0.000308865
0.000681652
0.0101375
0.00470368
0.00962257
0.00672627
0.0111295
0.000605277
0.00975451
0.000371659
0.00271007
0.00672575
0.0106956
0.00387598
0.0011444
0.00672237
0.000851487
0.00986449
0.00671781
0.00672044
0.00647176
0.00672557
0.0026431
0.00644244
0.00433289
0.00671772
0.0093155
0.00780413
0.00672129
0.00389454
0.0067256
0.00862622
0.0109069
0.000416756
8.5122e-05
2.47036e-05
6.49528e-05
0.00709619
0.000412753
0.00292538
0.00673088
0.00671921
0.00952978
0.00730273
0.00125196
0.000389502
0.00726066
0.00673294
0.00506244
0.00442383
0.00433995
0.00674232
0.000965851
0.000413648
0.00568547
0.00956267
0.00672535
0.000785388
0.0118094
0.00624556
0.00672213
0.000305685
0.00672289
0.00681467
0.00671748
0.0158989
0.000305472
0.00672019
0.0067227
0.0192625
0.00355555
0.000233683
0.00671955
0.00925347
0.00672182
9.45363e-05
0.0031151
0.0088688
0.00409309
0.000469424
0.000399704
0.000386933
0.00672144
0.000131143
0.0102276
0.00533406
0.000310737
0.006723
0.000329575
0.00672153
0.0105962
0.0189635
6.28201e-05
0.00731825
0.0095733
0.000164078
0.00250489
0.000160225
0.00671811
0.00468951
0.000580349
0.000316473
0.00419231
0.000299953
0.000279347
0.000336716
0.00209948
0.00374145
0.00672391
0.00243719
0.000285566
0.00836185
0.013429
0.000409031
0.00673153
0.000147557
0.00418095
0.00026001
0.00429489
0.00672151
0.000931101
0.000898746
0.00296387
0.00506654
0.00041786
0.00176092
0.0067225
0.000405058
0.000287516
0.00038023
0.00671977
0.00672125
0.000313431
0.000296354
0.0067261
0.000433813
0.000300565
0.000287379
0.00676467
0.000144064
0.000335974
0.000282298
0.00603707
0.000372986
0.0055807
0.00672575
0.00683241
0.00672608
0.00309323
0.00672181
0.000299763
4.0555e-05
0.000459993
0.00100111
0.000453983
0.00672381
0.00052298
0.00257382
0.000283066
0.000294026
0.00451815
0.000515026
0.0044464
0.00671688
0.00149768
0.00672228
0.000132577
0.0067413
7.74325e-05
0.000311343
0.000460128
0.00635245
0.00562268
0.00684793
0.00672459
0.00671891
0.0094711
0.00604559
0.00672477
0.0067238
0.00984152
0.000314311
0.000519741
0.000568783
0.000934361
0.00672081
0.000478022
0.00671936
0.000145039
0.0067261
0.000267472
0.00561819
0.00325096
0.00124459
0.000941134
0.00132388
0.000445662
0.000575141
9.87773e-05
0.000304454
0.000350511
0.000302008
0.000288485
0.00549771
0.00654981
0.000664607
0.000528581
0.00305536
0.00226668
9.64826e-05
0.0067223
0.000138627
0.000780733
0.000329156
3.1001e-05
0.000182431
0.000139489
0.000139971
0.000141399
0.00672441
0.000556994
0.0067218
0.000159862
0.000235376
0.0102013
0.00672632
0.000262486
0.000474994
0.0100769
0.000481199
0.00038903
0.00672204
0.000279693
0.00672268
0.000361843
0.00132777
0.0108305
0.00673192
0.000517758
0.00671994
0.000289055
0.000364402
0.000449442
0.00135484
0.00672102
0.000928422
0.00013622
0.00671992
0.000430241
0.00863665
0.000304591
0.000546712
0.000299044
0.00464769
0.00468874
0.00277696
0.000160154
0.00677354
0.00246003
0.000581791
0.00457695
0.000194635
0.00510359
0.00936002
0.000187086
0.000318743
0.000297343
0.00145115
0.00672768
0.00435017
0.000125211
7.51323e-05
0.000446476
0.00595554
0.00672382
0.000901695
0.000434409
0.00793785
0.00674488
0.00068016
0.00671565
0.0114425
0.00671823
0.00672137
0.000174409
0.00671917
0.00177432
0.000248681
0.00225281
0.0017445
0.0053367
0.000290044
0.000618144
0.0179843
0.00672165
0.00212221
0.00671692
0.000306095
0.00672246
0.000359084
0.000486029
0.0108883
0.00468041
4.48784e-05
2.65579e-05
0.000224549
0.00032261
0.000111062
0.000421607
0.00672536
0.00672231
0.00895526
0.000115946
0.00672114
0.00671925
0.00671863
0.000868175
0.000165519
0.00672524
0.000289484
0.000302626
0.000338822
9.4721e-05
0.00671904
0.00672507
0.0145412
0.00153538
0.00675272
0.0149342
0.00391519
0.00673673
0.00672655
0.000509689
0.00672092
0.00017004
0.00672524
0.000691824
0.00672576
0.0186535
0.00283565
0.00235244
0.000504919
0.00307172
0.00050347
0.00673834
0.00394833
0.0067256
0.0005235
0.000330107
0.00444692
0.000285806
0.00672612
0.00672394
5.09411e-05
0.0066016
0.0067225
0.00672181
0.00672838
0.00282125
0.00673874
0.00672365
0.000221844
0.00671982
0.00503192
0.000139973
0.0067363
0.00672098
0.00672366
0.00222294
0.00737529
2.75156e-05
0.00267078
0.00221633
0.00383824
0.00672609
0.00037682
0.00672064
0.00671916
0.00122134
0.006719
0.000409566
0.000503824
0.000221063
0.00413374
0.00036505
0.00356404
0.000687157
8.04363e-05
0.00391325
0.00319408
0.00908739
0.000373431
6.23262e-05
0.0043595
0.00604055
0.000153057
0.00040787
0.00511697
0.00671704
0.00216062
0.000336721
0.00672217
0.000274827
0.00672233
0.000317918
0.00021046
0.000223113
0.000408218
0.00427413
0.00169979
0.00688305
0.00689337
0.00672874
0.00459284
0.00121207
0.00314834
0.000108181
0.00161718
0.000420886
0.00449881
0.0104407
0.00673286
0.00672151
0.000250555
0.00672581
0.000190819
0.000411437
0.000293686
0.00431688
0.00123449
0.00340199
0.000303785
0.00223877
0.000104571
0.00106391
0.00200761
0.00674118
0.00045908
0.0087571
0.00038314
0.000142994
0.012838
0.000765499
0.00024805
0.00672193
0.0109674
0.003152
0.00139889
0.00144576
0.000345919
0.00327171
0.000285297
0.000396951
0.000885498
0.00672217
0.000815275
0.00672393
0.000388326
0.00671912
0.00672407
0.00288149
0.000561477
0.000693166
0.00255553
0.00233569
6.04305e-05
0.0067261
0.00803315
0.000766807
0.00478385
0.00148023
0.000410588
0.00673575
0.00605822
0.0129922
0.00671994
0.0104958
0.000530866
0.000783714
0.00122578
0.00258327
0.00330084
0.00433448
8.86286e-05
0.00135123
0.00671881
0.00342876
0.00353552
0.00197586
0.000291196
0.00679196
0.000340623
0.000309285
8.20978e-05
0.00671987
0.00274021
0.00334462
0.000792013
0.00114369
0.00146051
0.000922361
0.00199066
0.00459981
0.00158232
0.0194253
0.000784776
0.000468191
0.000191339
0.00429591
0.00672577
0.000813557
0.000354056
0.000611524
0.00344804
0.0097266
0.00037286
0.0007407
0.00483966
0.00172422
0.00671705
0.00672404
0.0105636
0.00276344
0.000386129
0.000472493
0.000984052
0.000623886
0.000514579
0.00672088
0.00672248
0.000731222
0.00672014
0.00672129
0.00471794
0.00398152
0.000372204
0.00672365
0.00199571
0.00535104
0.000137135
0.00672232
0.00821061
0.00672685
0.0021739
0.00671676
0.00672526
0.00137404
0.00284383
0.00032723
0.00108146
0.00672141
0.000532862
0.00257156
0.00672564
0.00268361
0.000270945
0.00217045
0.00672085
0.006721
0.0067212
0.000849185
0.00672093
0.00672115
0.000351992
0.00672149
0.00319277
0.00149671
0.0171601
0.000396125