/*--------------------------------*- C++ -*----------------------------------*\
| =========                 |                                                 |
| \\      /  F ield         | OpenFOAM: The Open Source CFD Toolbox           |
|  \\    /   O peration     | Version:  v2012                                 |
|   \\  /    A nd           | Website:  www.openfoam.com                      |
|    \\/     M anipulation  |                                                 |
\*---------------------------------------------------------------------------*/
FoamFile
{
    version     2.0;
    format      ascii;
    class       volScalarField;
    location    "200";
    object      ddt0(k);
}
// * * * * * * * * * * * * * * * * * * * * * * * * * * * * * * * * * * * * * //

dimensions      [0 2 -3 0 0 0 0];


internalField   nonuniform List<scalar> 
10042
(
-3.90265e-07
-3.91735e-08
-1.25001e-06
-4.25247e-07
0.0244111
-3.29156e-07
-0.0163693
7.41647e-06
1.73923e-07
-4.81264e-07
0.02649
-2.72208e-07
-3.3894e-07
-9.57596e-07
1.13179e-09
5.73088e-07
4.93808e-07
-2.03938e-07
-3.04791e-07
3.18934e-07
1.1723e-06
3.83694e-06
-6.70848e-07
-1.34189e-06
-8.26298e-08
-6.88519e-07
3.76112e-07
-1.95203e-07
2.69071e-07
-3.92342e-07
-1.1445e-07
0.00409604
-8.93845e-07
-4.00683e-07
-8.27324e-07
-1.40837e-06
-5.42011e-07
-7.93066e-07
-1.98354e-07
-8.76623e-07
2.67714e-06
-1.60057e-07
-0.0175862
-1.12232e-06
0.0176621
-2.61952e-06
-7.90166e-07
-9.37494e-06
-6.76745e-07
-2.10198e-06
-6.07858e-08
-1.3231e-06
-5.8159e-07
-9.43704e-07
-5.77262e-07
5.44789e-08
2.52905e-07
-9.00234e-07
-6.02413e-07
-7.7225e-07
6.55827e-08
3.78086e-07
-8.24351e-07
-1.18143e-06
-2.06487e-07
-6.79685e-07
-3.54002e-07
5.72936e-08
0.0437952
-3.90964e-07
-8.37762e-07
9.88685e-06
-1.19667e-06
-2.01293e-07
-8.37889e-07
-2.27642e-06
0.0214292
-3.00247e-07
-3.21195e-07
-0.0243992
-4.07873e-07
0.0282086
-8.1227e-07
6.81632e-08
-4.56534e-07
-1.45957e-07
-7.65825e-07
-5.06169e-07
-1.05673e-06
-3.54231e-07
-5.13694e-07
0.0198366
-2.06973e-07
-8.90649e-07
-4.01858e-07
-6.77869e-08
-1.60152e-07
-1.77542e-07
-8.15185e-07
1.48442e-07
1.40874e-10
-4.97253e-07
-0.000267449
-5.82822e-07
1.56125e-08
-2.76976e-07
-1.04706e-06
-2.50915e-07
9.6222e-07
-2.3093e-07
-2.0661e-07
1.69353e-08
-6.98695e-07
0.0399689
-2.27091e-07
2.2025e-07
-2.92344e-07
-3.0227e-07
1.5091e-08
-0.0126609
-1.15275e-06
7.39442e-05
-5.52099e-07
-3.68925e-08
-1.92822e-07
-5.63015e-07
2.80775e-05
-8.06756e-07
-2.28624e-07
1.02962e-07
-3.46342e-07
-2.71141e-07
0.0221825
9.58547e-06
5.11842e-08
-4.86428e-07
-0.0189726
-1.03178e-06
-9.95504e-06
-9.52377e-07
-3.96756e-07
-3.02279e-07
-4.64752e-07
2.78089e-07
-1.25841e-06
-8.95588e-08
-7.15358e-07
-4.38924e-08
1.73548e-07
-4.53441e-07
-2.10201e-07
-2.19493e-07
-0.020309
0.00333354
1.26644e-06
-6.61588e-07
-3.2176e-07
4.70142e-07
-2.30122e-07
0.00507394
0.0148907
4.44181e-06
-2.87707e-07
-2.04654e-07
-9.52006e-07
-2.58648e-07
-2.61137e-07
0.0086049
-0.000112836
0.00429629
-1.09826e-06
-1.25586e-06
-0.0244286
2.3169e-06
-4.62027e-07
-0.00120824
-0.00273095
-9.57108e-07
2.25628e-07
-4.38196e-07
-3.01323e-07
0.00492255
-9.01115e-07
-7.4007e-07
-1.71712e-07
-0.0178731
8.96852e-06
-4.78054e-07
0.0349869
-9.99616e-08
1.44699e-05
-7.38682e-07
-0.0103223
0.00302142
1.81369e-06
-0.000694599
-4.723e-07
-8.83373e-07
-6.84163e-07
-6.06253e-07
-4.083e-07
-3.46514e-07
-6.10818e-07
4.5792e-06
-4.12307e-07
5.95088e-08
8.63239e-05
1.50623e-06
-3.73241e-07
-1.89823e-06
-0.00066233
1.99143e-07
-2.32321e-07
-3.64623e-06
-3.7739e-07
9.51162e-06
-7.7143e-07
-9.41987e-07
-3.88685e-07
-4.84801e-07
-7.16594e-07
-2.94322e-07
-1.37022e-06
-5.6563e-07
-6.72603e-07
-7.29458e-07
1.13809e-05
2.15772e-07
4.52015e-06
-8.49512e-07
1.3609e-07
8.60374e-07
-1.27187e-06
-8.76013e-07
-1.7407e-06
-4.48491e-07
5.11193e-07
-4.61746e-07
-3.19993e-07
-1.08159e-08
-7.30644e-08
-8.3849e-07
-6.85188e-07
-1.00546e-06
9.16483e-07
-3.18656e-07
-8.29096e-07
7.01349e-09
-1.2331e-06
-1.42915e-07
3.32064e-07
-3.18606e-07
-8.92989e-07
-1.2284e-05
3.5832e-06
0.0204827
-3.52368e-07
-4.98768e-07
6.63983e-09
-2.25262e-06
-0.0112034
-4.42764e-07
-9.98376e-07
-4.76884e-07
-6.11883e-07
3.20038e-07
-1.67695e-05
-1.42218e-06
-2.99049e-07
-2.00339e-06
-3.06223e-07
-8.76483e-07
-3.11293e-06
-3.42434e-07
-8.86435e-07
9.81983e-08
-6.64708e-08
1.96187e-07
-2.53318e-06
-1.14357e-06
-7.19977e-07
-9.40219e-07
-6.8407e-07
0.0151372
-5.30592e-07
-8.28303e-07
-0.0159483
-2.1843e-06
-1.03301e-06
-3.76838e-07
-7.06544e-07
-0.0026306
-1.10686e-06
3.92447e-07
-1.92036e-07
-5.83914e-07
1.54532e-07
8.95213e-08
1.24659e-05
9.18845e-09
6.32536e-07
-3.62552e-07
-6.23315e-07
-6.93961e-07
-1.62584e-07
-3.28124e-07
0.00115474
-9.78034e-07
0.000263931
1.48327e-06
-1.14103e-06
3.4336e-07
-0.0058407
1.19102e-07
0.00368228
-0.0233226
-1.75317e-06
-1.38787e-06
-3.80524e-07
-4.5268e-07
-7.05796e-07
-2.14102e-08
-6.01819e-07
-2.51951e-08
-7.98458e-07
-1.02492e-06
-9.19889e-08
3.74012e-07
-7.56234e-07
-5.23414e-07
-4.33313e-07
0.0227684
9.64316e-07
1.28006e-06
-9.99997e-07
-1.25148e-06
-6.88355e-07
1.46336e-06
-3.58792e-07
-3.56823e-05
-6.10613e-07
-7.87567e-07
-5.9587e-07
-9.04544e-07
-2.38754e-07
-2.43415e-07
2.69245e-05
-8.34223e-07
-4.96901e-07
-1.96284e-05
-5.89603e-07
-6.13048e-07
9.08485e-08
-1.96869e-05
-1.08684e-06
-6.31653e-07
-1.31743e-07
-6.07568e-07
-8.62515e-07
-6.0242e-07
-9.72419e-05
-7.76259e-07
-7.90836e-07
-6.2792e-07
-1.49452e-06
-6.64372e-07
-1.13658e-06
-4.69927e-07
-0.000845011
-7.34558e-07
-2.35717e-07
-6.05657e-07
1.19467e-10
3.80791e-07
-4.73755e-07
-6.81819e-07
6.38862e-07
-0.0161683
-4.2999e-07
0.000629128
2.50463e-05
-2.30824e-07
0.00546837
0.00744079
-8.68664e-07
2.75328e-07
1.16066e-06
-2.19009e-06
9.91754e-10
-8.45458e-07
-8.30726e-05
-1.24166e-07
-3.75077e-07
0.000359798
-3.6307e-07
1.86964e-06
-3.69999e-07
1.72537e-05
-1.83579e-07
-3.91057e-07
0.00276521
-1.4691e-08
-1.79418e-06
-6.4107e-09
-0.0174884
-2.3816e-07
-2.71336e-07
-1.22554e-07
8.86136e-07
-3.24604e-07
-7.17636e-07
3.7104e-05
-0.000159885
-8.12716e-07
3.57444e-05
-6.77661e-08
2.33841e-08
2.94029e-06
-1.68517e-06
0.000145331
-1.01177e-06
5.4249e-08
-1.05481e-06
-6.87376e-07
-7.77915e-08
-1.22406e-06
-8.92815e-07
-3.10594e-07
0.0384455
-4.02963e-07
0.00330858
-1.2734e-07
-6.66283e-07
1.84377e-07
-5.7339e-05
-5.33346e-07
3.07204e-08
-9.21736e-08
-6.13339e-07
0.00252174
1.12681e-07
1.55308e-07
-4.26343e-07
-0.00738582
7.44266e-07
-4.05705e-08
-2.04006e-07
3.38729e-07
0.00050057
0.00489202
5.80019e-07
-1.8725e-07
-7.46405e-07
5.27708e-07
8.39656e-07
-1.50563e-09
-0.0107516
-2.30337e-07
2.322e-07
-3.22421e-07
-2.84552e-05
-6.86565e-07
-3.1914e-07
-6.78937e-07
-0.00716345
-6.91551e-07
9.29833e-08
-6.04119e-07
8.45343e-06
-1.04093e-06
-1.92902e-07
-3.77079e-07
-3.02253e-07
-1.08174e-06
-2.58414e-07
-1.19853e-06
-6.61952e-07
-1.01035e-06
-5.73587e-07
0.00849012
-9.41837e-07
-1.42849e-06
-5.68906e-07
-7.31223e-07
-5.42483e-07
7.41382e-07
-7.81808e-07
0.0126181
-2.04169e-07
-0.0391367
-5.1763e-07
-1.15518e-07
6.26944e-08
-2.43006e-07
-1.45782e-06
-1.87375e-07
4.49985e-07
-3.80191e-07
-3.38373e-07
-0.033465
1.40735e-07
-6.36943e-07
-0.000129192
-7.89532e-07
-3.17697e-07
6.9067e-08
-1.57216e-06
-1.76589e-07
1.25099e-06
-0.064759
-0.0128141
-1.15572e-07
-7.94583e-07
-7.06124e-07
-7.30522e-08
-4.8591e-07
-3.33792e-07
1.201e-05
-1.07197e-06
-1.68523e-05
-4.74849e-07
-1.56913e-06
-1.84136e-06
-8.51018e-07
0.0674925
-8.10984e-07
-4.03051e-07
1.15647e-07
-3.35558e-07
-7.54436e-07
1.54627e-05
-3.58204e-08
-3.62102e-07
-0.00487587
-1.21562e-06
-9.09532e-07
-2.74432e-07
8.36869e-07
-4.94573e-08
-2.2418e-06
-7.03433e-07
0.00483784
-0.00274239
-4.14847e-07
5.55526e-08
-2.50482e-07
-4.23517e-07
-6.77661e-07
-5.00853e-07
0.0169946
-9.41234e-07
1.4834e-06
-2.83598e-06
1.95266e-07
5.54324e-06
-5.22997e-07
-1.2201e-06
-6.18513e-07
6.94795e-08
-8.76398e-07
-8.49456e-07
5.2081e-07
-3.51682e-07
-3.20938e-07
-1.03875e-06
-1.96934e-06
-1.12231e-06
-1.95896e-07
-6.365e-07
-5.98511e-07
7.17269e-08
-4.40438e-07
-5.17936e-07
-3.68647e-07
-4.68028e-07
-2.02371e-07
-2.27564e-07
-4.76349e-07
-2.22974e-06
4.74231e-07
-1.08512e-07
-6.80049e-06
-8.08332e-07
-8.41121e-07
-4.3446e-06
-2.46243e-07
-0.0253219
-1.59275e-06
3.82201e-07
9.96568e-06
-1.49748e-06
-3.90804e-07
-2.36099e-07
3.17458e-07
3.38092e-10
-3.23801e-07
-6.81068e-07
3.02139e-06
-2.40865e-07
3.90626e-07
-2.0057e-07
-6.30026e-07
-1.10663e-06
1.9552e-07
-4.36633e-07
-2.03254e-08
-4.14685e-07
-7.75449e-08
-9.98468e-07
7.65068e-07
-1.92855e-07
-6.54286e-07
-1.00155e-06
0.000274536
-7.91173e-08
-2.31955e-06
-8.69098e-09
-3.37453e-07
-4.19137e-07
-9.5424e-07
-5.51881e-07
-1.45558e-06
-7.70019e-07
7.6387e-06
-1.01678e-09
-0.0188649
1.99966e-08
-4.15156e-07
7.93515e-07
-7.78535e-07
-1.28683e-06
-3.60112e-07
5.43002e-08
-3.20167e-06
-0.00436591
3.25704e-05
-2.03601e-07
-5.95766e-07
-9.17322e-07
-3.67743e-07
-2.38288e-06
-2.83439e-07
-2.89861e-07
-2.41066e-07
0.000597115
-4.05408e-06
-0.00630497
-7.66839e-07
-1.93662e-07
1.14225e-09
-1.04453e-06
-1.39914e-07
1.3402e-06
-2.02528e-06
-1.07095e-06
2.40721e-06
-2.7264e-07
-2.62046e-07
-4.93897e-07
0.00101655
-4.88139e-07
-3.10301e-07
-2.34859e-06
-4.23852e-07
-0.0179551
-1.04312e-06
-1.04849e-06
-9.58469e-08
-2.90692e-07
-0.0101403
-3.72291e-06
0.00169021
2.18505e-07
-0.00296142
0.0212936
2.07333e-05
1.50938e-06
-2.49151e-06
5.89454e-06
-1.95922e-07
-8.81298e-07
2.95911e-07
-4.14553e-07
0.0107199
-8.90089e-07
-4.79709e-07
-0.000833655
-1.13876e-06
-9.05308e-07
-2.29255e-07
-3.2912e-07
-1.22045e-06
-1.12226e-06
-3.45581e-07
0.00159032
-8.9096e-07
-9.98896e-07
0.0288071
0.0116484
-8.08163e-07
1.16925e-07
-1.0732e-07
7.76054e-07
-5.13538e-05
-3.9067e-06
-1.764e-06
-1.32237e-07
-1.28627e-06
2.08792e-07
-2.16937e-07
3.31688e-08
-8.3027e-07
-6.42664e-07
0.00311782
3.07314e-07
-1.04416e-06
-3.17507e-07
-2.73633e-08
-6.4638e-09
-2.37459e-07
-8.44953e-07
-0.00202036
0.00259746
-4.41259e-07
1.24784e-06
-0.000197857
0.0168477
-2.1772e-07
-1.65277e-06
4.41486e-05
-3.24719e-06
-8.98898e-08
-8.57048e-07
-6.52985e-07
9.65333e-07
-7.87437e-06
-1.21396e-07
5.14636e-07
-2.23773e-07
0.0263486
-7.84072e-05
2.75211e-07
-2.4872e-07
-2.38924e-06
1.37343e-06
-4.34463e-07
-6.49495e-07
0.0305604
0.000645367
-0.000473449
-1.38954e-06
-1.62551e-06
-1.42766e-07
-1.6293e-07
8.18728e-08
5.7104e-07
-5.16938e-06
-1.20351e-07
1.25419e-07
-1.74032e-06
-4.53527e-07
-3.19563e-07
3.16826e-07
1.38879e-06
-6.90675e-08
-5.00171e-07
8.35888e-06
2.92783e-07
-3.17083e-07
-1.30026e-06
-2.2168e-07
-8.80665e-07
5.29752e-07
6.93964e-08
0.0200521
-0.00747079
-1.49542e-07
-0.0102899
0.00370036
-1.22795e-06
-2.90453e-07
-3.79495e-07
-1.86134e-07
-0.048283
-2.15073e-07
-2.75577e-07
-2.62223e-07
0.00607063
-3.2116e-07
-1.26278e-06
2.35079e-07
1.74449e-07
-6.50869e-07
-9.622e-07
-1.11564e-06
-1.17585e-07
-3.34017e-07
5.62295e-07
1.88113e-07
4.09914e-06
-8.37393e-07
-7.97595e-08
-3.25828e-07
-5.58481e-07
3.54624e-08
3.72501e-07
-5.55578e-07
-1.45407e-07
2.92691e-07
-1.27704e-05
1.96822e-10
-4.68813e-07
-4.42665e-07
-0.0684167
-6.67354e-07
-8.99565e-07
-6.48791e-08
8.41104e-08
-3.88108e-07
-6.14715e-07
-0.00407951
-0.0101525
-6.86262e-08
-7.10083e-07
1.95918e-05
5.72467e-07
-3.66151e-07
7.05992e-08
-1.50206e-07
-1.0509e-06
1.81348e-11
1.18133e-10
-3.25878e-07
-6.74206e-07
-8.97491e-07
-5.72694e-07
-3.40799e-07
-0.000165206
-2.41837e-07
-4.12791e-06
9.09606e-07
-2.90261e-06
-1.63833e-07
-0.0130238
4.06323e-07
0.0621301
2.00412e-08
-1.30429e-07
-2.04586e-07
-2.36149e-07
-1.03874e-06
-1.2821e-06
-3.21299e-07
-1.39339e-06
0.00130701
-4.11837e-07
6.96345e-06
-6.3049e-08
4.86215e-08
-1.8611e-07
-1.94694e-07
0.00151189
-9.97106e-08
-4.37985e-07
-2.31653e-07
-1.3476e-07
-4.17234e-07
-3.20486e-07
-9.07932e-08
-2.38239e-07
-2.02327e-06
-1.6706e-06
-5.12551e-07
4.30147e-07
-1.07952e-06
-1.27241e-06
-8.21267e-08
-8.41852e-07
9.73928e-07
1.94192e-06
-3.73878e-07
-6.65682e-07
-5.85836e-07
-1.1572e-07
-0.0944147
-3.44744e-07
-0.00313522
-4.0124e-07
0.00496935
-6.88403e-07
-4.81369e-07
-0.00164316
-1.16255e-06
-8.12445e-07
-0.000960796
-4.25577e-07
-2.32207e-07
-9.66587e-07
-6.05526e-07
1.7701e-07
6.15823e-08
0.00972782
-3.72858e-07
-0.014712
-0.0185775
-1.12204e-06
-5.45006e-07
-0.0209691
0.0163595
-1.90241e-07
2.60529e-07
1.24757e-06
-4.27441e-07
-8.55814e-09
3.23708e-08
-2.9446e-07
-0.000107995
2.32294e-08
-1.11685e-07
-3.85146e-07
-3.21769e-05
-3.16223e-06
-6.30118e-07
-3.60939e-07
1.40342e-06
-2.77429e-07
-3.37194e-07
0.00863787
-7.41706e-07
-2.73607e-07
4.26488e-05
-7.7789e-07
-6.37966e-07
0.0010494
0.0139618
-0.0209592
-7.77914e-07
-5.13001e-07
1.96685e-05
5.44798e-08
1.82287e-07
3.88446e-07
-3.06624e-07
8.86662e-07
4.81661e-07
-8.92643e-07
-3.8848e-07
-2.14808e-06
-7.6032e-07
-5.7069e-07
2.82302e-07
3.64502e-07
-4.44132e-07
3.23986e-07
3.70111e-06
-8.08763e-07
-7.00489e-07
7.41685e-07
-1.2909e-07
4.6642e-07
-4.68948e-07
0.0237589
-3.93003e-07
-3.25363e-07
-8.24071e-07
-2.56647e-07
-0.0977308
7.19552e-08
4.01637e-07
-2.68135e-07
-7.01187e-07
0.000669224
-1.4117e-06
-1.34331e-06
2.28726e-07
-5.9924e-07
-2.34633e-07
-2.406e-07
-4.46706e-07
-9.53965e-07
4.74397e-07
-1.35084e-06
-7.71623e-07
-0.0122963
-8.66907e-07
-3.41286e-07
-4.71839e-07
0.0257614
-3.01956e-07
-3.04012e-06
-1.05868e-06
1.93314e-05
-6.62162e-08
-1.52088e-06
2.40373e-07
-4.13766e-06
-1.36188e-06
-5.61806e-07
8.44067e-07
-4.58649e-07
1.7807e-07
-4.23977e-07
-0.000659044
-4.58164e-07
-4.67707e-08
-4.49051e-07
-8.25764e-07
-1.25192e-06
-0.00156059
-8.72332e-07
-8.9535e-07
2.01184e-08
-1.9362e-06
-0.000140628
3.83228e-07
-1.10996e-06
9.7153e-07
3.78242e-08
8.61491e-07
2.43487e-07
2.09785e-07
-1.61207e-06
-1.38016e-06
-0.000387194
-7.55239e-07
1.1707e-06
0.0236416
-1.00672e-06
-8.17831e-07
-2.20426e-07
-9.13002e-07
-1.52774e-07
-1.05283e-06
-6.61839e-07
-1.27123e-06
-4.15544e-07
0.00178821
-8.76488e-07
-7.19696e-07
-1.05039e-06
-7.92767e-07
-7.6928e-06
0.0621011
-2.81254e-07
-1.25725e-07
-7.1056e-06
-3.26198e-07
0.00054407
1.51536e-06
-8.06377e-07
3.28487e-08
-0.00848084
-1.80911e-07
-8.90224e-07
-2.40461e-07
-1.0083e-06
0.024929
-8.86369e-07
-7.1136e-07
-6.11496e-07
-3.89288e-07
-6.52715e-07
-8.53419e-07
-3.15685e-07
-2.9229e-07
2.61574e-08
-0.0393785
0.0109171
-2.06922e-06
-8.78125e-08
3.76489e-07
-0.000652198
-3.79445e-07
0.00535419
-1.85959e-08
-5.2827e-07
-1.50789e-06
-6.12666e-07
2.83156e-08
1.73765e-07
8.98404e-07
-3.29299e-07
8.80552e-06
-1.17241e-06
1.28967e-07
6.4627e-07
-3.69077e-07
-2.10448e-07
-7.84181e-07
1.01832e-07
-1.13698e-06
-3.74723e-07
-1.51702e-07
-6.77732e-07
1.66751e-07
1.68978e-07
-2.81465e-07
2.38148e-07
-3.1128e-07
-7.63173e-07
-1.19791e-07
-3.04489e-07
7.64997e-08
-1.023e-06
-3.85302e-06
-3.1771e-07
1.6825e-07
6.38095e-07
9.20535e-08
-7.41293e-07
-3.70862e-07
-2.28217e-07
-2.5594e-07
-0.00796882
-4.75651e-07
-5.16728e-07
0.0107373
4.88273e-08
-8.55121e-07
9.56072e-07
-1.65851e-07
2.88873e-07
0.00066379
-5.88128e-07
-6.92436e-06
6.19281e-07
-1.34701e-06
-4.44085e-07
-9.60197e-08
-2.52649e-07
-5.54161e-07
-2.00467e-06
-2.28815e-07
-1.08396e-06
-8.77104e-08
-4.83619e-07
-2.8194e-06
-1.94768e-07
-6.18612e-07
-4.21057e-07
-3.20438e-07
-8.90111e-05
-1.00343e-06
-7.41724e-07
0.00787353
-4.42659e-07
2.08375e-07
-6.08408e-07
3.54508e-07
-1.58129e-07
0.000112468
-4.52207e-07
-5.82727e-07
-8.04922e-07
-6.43524e-07
-8.53476e-07
-4.01552e-07
3.29692e-07
0.000802521
1.94416e-07
-7.26152e-07
-3.23867e-07
-5.59532e-07
1.96782e-07
-1.97411e-07
-0.0084081
-9.81868e-07
-1.06115e-06
-8.09278e-07
-3.06434e-06
-1.25627e-07
-9.94821e-07
1.43436e-07
-1.50525e-07
-9.20346e-08
-1.22252e-06
-3.66101e-07
9.8901e-07
-9.95809e-07
-4.07512e-07
-3.07388e-07
-8.98075e-07
-2.05618e-07
-3.84501e-07
-1.40391e-07
-3.80973e-07
-2.65167e-07
-4.0784e-07
4.8065e-05
1.36642e-07
-1.2237e-06
7.13718e-07
-2.70243e-07
-5.41561e-07
-1.07055e-07
0.00115717
0.0378739
5.33427e-05
-5.71253e-07
-2.55908e-07
-2.56989e-07
-6.38546e-07
-5.91559e-07
-1.25438e-07
-0.000126636
-4.02643e-06
0.0202082
4.30351e-07
-1.80631e-06
-0.0505625
-5.1054e-07
-6.46889e-07
-1.36399e-06
-1.69725e-07
-0.00088169
-6.2261e-07
-2.73185e-07
-8.20424e-07
-9.61633e-07
1.34019e-06
0.0550083
-0.000115857
3.67501e-07
-0.00998539
-3.72017e-05
-3.75469e-05
-7.25637e-07
-3.84486e-07
-8.80319e-07
0.0161228
-8.98023e-07
-5.05144e-05
0.0277334
3.69107e-07
-8.45168e-07
-2.81134e-07
-2.40628e-07
-1.03017e-06
-5.77818e-07
1.00349e-05
-1.0826e-07
1.03731e-06
-2.01793e-07
-5.45134e-07
9.25174e-09
-9.08961e-07
-4.97081e-07
-3.47661e-07
-0.000111943
-5.89368e-07
-6.23991e-08
-0.00155563
-9.12283e-07
5.96024e-07
-1.45562e-07
9.01523e-06
-2.46527e-07
1.29839e-07
2.64012e-06
-9.92572e-07
-6.95311e-08
-1.81456e-07
0.000171573
-1.14877e-06
0.0380463
-7.21917e-07
-1.47774e-05
0.0288147
0.0117352
7.09673e-07
-9.85186e-07
-3.40468e-06
-3.83354e-07
-3.95161e-07
-5.47144e-07
0.0346112
-6.61624e-07
4.07153e-06
-5.09325e-07
5.14244e-07
-0.0109227
-4.21639e-05
1.54048e-07
3.49415e-07
0.00524026
-2.20375e-07
-3.98095e-07
-5.78757e-07
-4.32429e-07
6.55279e-07
-3.69543e-07
-1.20817e-06
-3.80995e-08
5.77865e-08
-7.8806e-07
-0.0141804
-1.14487e-07
-7.13582e-07
0.0130889
-3.4967e-07
-3.0274e-07
-1.40133e-07
6.67744e-08
3.45669e-08
2.35127e-07
-2.08425e-07
-9.92813e-07
-7.41702e-07
2.91274e-07
7.54755e-07
-4.46103e-07
-1.02138e-06
-1.92585e-07
-1.85864e-07
-4.4389e-07
-0.00142011
0.0484738
-3.12232e-07
-7.61115e-05
-3.27836e-07
-7.57357e-07
1.10729e-06
8.73387e-07
0.0165002
2.64573e-09
-9.12189e-07
1.07459e-07
3.33811e-07
-8.85524e-07
-1.07748e-07
-1.49116e-05
9.16408e-07
-3.81215e-07
-1.1424e-06
0.0167392
0.00552851
-9.03373e-07
-5.89531e-07
-1.92728e-06
-4.29397e-06
-4.63313e-07
-0.00296103
0.0497934
-1.88534e-07
-3.36792e-07
-6.29792e-07
-2.56434e-07
-0.0423681
1.1517e-06
-2.52851e-07
-8.55514e-07
4.72977e-07
-2.99822e-07
-2.44121e-07
-1.29982e-06
-3.83893e-07
-5.76979e-07
1.14526e-07
4.0398e-07
0.00526148
1.5057e-07
-4.65902e-06
-3.68856e-07
-2.38292e-06
-8.71055e-09
-8.45658e-07
2.58211e-07
5.26035e-07
-7.2767e-07
-9.06944e-07
-2.25764e-07
-1.05267e-06
0.0196483
-1.21586e-06
1.29366e-07
-1.17697e-06
-1.37701e-07
-7.41288e-07
-1.38995e-06
-8.66617e-07
3.0236e-07
-8.57792e-06
0.0221887
-8.7743e-07
-1.57889e-05
0.0722193
0.0146828
-1.72755e-07
-5.82515e-07
-1.76725e-06
-1.15092e-07
1.43885e-06
-5.03026e-07
-1.77665e-06
-1.17941e-06
-2.20767e-07
-4.49557e-07
0.0202735
-1.51187e-07
2.05317e-05
1.10406e-08
-8.93675e-07
-4.93841e-07
-6.63508e-07
-8.8471e-07
1.54662e-06
-1.98947e-07
-8.99207e-07
3.45538e-05
-1.5895e-06
-1.70981e-06
0.00718611
-4.75694e-07
-8.92663e-07
2.42385e-07
1.19141e-05
-1.25857e-06
-2.89325e-07
-1.07027e-06
4.77485e-07
4.18467e-07
-5.90657e-07
-2.12246e-06
-5.69188e-07
-4.03836e-05
3.90168e-07
6.4261e-07
-2.80338e-05
-3.16531e-07
-5.84082e-07
5.18547e-06
-7.9254e-07
-6.41333e-08
1.10538e-05
-3.491e-07
-0.00537273
-4.95346e-07
-3.63036e-07
-5.56334e-07
1.23857e-07
8.61123e-07
-7.16587e-07
-1.38025e-06
-1.16372e-06
0.0275093
-9.32658e-09
-0.000345001
-9.65516e-05
-7.38023e-07
-2.06384e-06
-7.69707e-07
5.66058e-07
0.0079905
-7.68276e-07
2.05433e-06
-1.64358e-07
1.06338e-05
6.03033e-07
1.0458e-05
1.22731e-06
3.76235e-05
-1.22446e-06
0.0397577
-3.94605e-07
9.1751e-06
3.0888e-07
-7.97028e-07
-3.49528e-06
-4.79882e-07
-0.00503905
0.070019
7.36913e-05
-7.47763e-05
-1.60092e-06
0.0117244
-4.23025e-07
-1.71064e-07
-1.71622e-07
-7.59385e-07
-0.0152114
1.50159e-07
6.3881e-07
-5.90302e-07
-6.78191e-07
-2.42197e-07
-9.2317e-07
-1.02303e-06
-0.00161366
0.0228689
-1.11451e-06
-0.000329752
-7.46887e-08
-9.60737e-07
-8.05482e-07
-3.06067e-07
0.0223399
-2.11762e-07
-4.76218e-07
-9.04085e-06
3.86685e-07
-6.14431e-07
-8.59891e-07
3.87014e-07
-6.9195e-07
-1.05334e-07
-1.57056e-07
8.12455e-07
-4.88816e-07
-5.82724e-07
-0.0196509
-1.06095e-06
4.34477e-07
-0.0016551
9.41634e-06
4.78818e-07
6.32249e-08
-0.0606731
-2.86924e-07
-6.33399e-07
-5.22677e-07
-1.82559e-07
-8.94484e-07
-5.29378e-07
-5.36425e-07
4.11398e-05
-1.57678e-07
-6.55112e-07
-1.70034e-06
3.55826e-07
-1.8572e-06
-5.95388e-07
-8.865e-07
0.000413075
-2.82874e-07
-1.23716e-05
8.38595e-07
1.49273e-06
4.19506e-08
1.0188e-05
-4.48822e-07
2.07242e-07
-3.9018e-07
-6.56704e-07
-6.46755e-07
-8.0698e-06
-5.99355e-07
3.87733e-11
3.06314e-07
-4.04524e-07
-7.15915e-06
-2.92165e-07
-1.3186e-06
-3.86613e-07
2.88194e-07
0.0471062
-2.90168e-07
-0.000123707
-3.6316e-07
-3.3637e-07
-3.5535e-06
-8.00481e-07
-1.81992e-07
-1.23004e-05
1.94144e-06
1.06323e-07
-7.32989e-06
-6.3205e-07
8.16602e-07
-9.46071e-07
-0.0109751
0.0106544
-5.60647e-07
-1.09019e-07
1.43725e-07
-7.7653e-07
1.70885e-06
-0.0133949
-2.10336e-07
4.70528e-06
3.62864e-07
-4.94671e-07
-5.29776e-07
-0.000208792
-2.96413e-07
-7.30882e-07
-4.85655e-07
5.94325e-10
-9.85488e-07
-9.3198e-08
-2.46423e-07
-5.4497e-07
0.00513118
-2.03302e-07
-5.56063e-07
-4.87882e-07
-6.64774e-07
-1.78565e-06
0.000124328
-7.68149e-07
-4.69862e-07
3.27048e-07
-1.27586e-06
-2.67105e-06
-4.24425e-07
-5.5915e-06
-2.36862e-07
-1.46655e-06
-1.24518e-08
-9.25372e-07
8.0495e-07
-5.64748e-07
-3.0149e-07
-9.59414e-07
0.0638671
3.04955e-05
-6.67669e-07
5.95305e-07
-0.0115249
3.19234e-06
-8.8358e-07
-6.59233e-07
-5.41698e-06
-3.8115e-07
0.0577013
-3.6185e-06
-1.97916e-07
-0.0633491
0.0125715
-5.106e-07
-1.37924e-07
-1.05233e-06
-8.58172e-07
0.00191708
-1.134e-06
-4.18404e-07
-6.05377e-07
-7.25024e-07
2.79569e-07
-1.25704e-07
7.64835e-07
6.01189e-07
-3.93459e-07
0.0918072
-4.28182e-07
-4.85657e-07
-6.83881e-07
3.80733e-07
-1.80766e-07
8.62699e-07
-2.72596e-06
-3.86281e-07
4.9067e-08
8.0449e-07
-0.000198172
-9.95582e-07
-7.26753e-07
-6.64526e-07
-2.4159e-07
-5.63717e-07
-2.51145e-07
-3.85735e-07
-1.39684e-06
-2.9792e-07
-3.38853e-07
-3.58398e-07
-5.21444e-07
-4.71147e-07
-0.00355444
-1.65183e-06
-8.45333e-08
-1.72944e-07
-4.22494e-07
2.59799e-07
1.53449e-07
-6.10641e-07
-9.43458e-07
6.04645e-05
0.0044954
-6.54134e-09
6.07082e-07
-9.77532e-07
-2.2566e-07
-1.65264e-07
-4.69246e-07
-2.41124e-07
-3.03506e-07
-1.08999e-06
-5.08196e-07
-8.03732e-07
4.00919e-07
-2.00677e-05
-5.92171e-07
-6.62027e-07
-6.95315e-07
0.0588144
1.4918e-06
-3.08085e-07
0.0702285
-4.63279e-07
-6.03757e-07
-1.85498e-05
-1.95199e-07
-0.00345712
-1.32291e-07
-7.6242e-06
-2.11069e-08
-7.35408e-07
-0.0160803
-5.94099e-07
-4.02262e-05
-7.16045e-07
1.00675e-08
0.0406235
-9.47516e-11
-1.39173e-06
-5.75297e-07
-8.2145e-06
-1.16076e-06
0.00583026
-1.51536e-06
0.00164206
-4.74272e-07
-8.12224e-07
3.26657e-06
-5.25131e-07
-1.33126e-06
-1.23729e-06
-5.43697e-07
2.79398e-07
-3.11702e-07
-2.92003e-07
4.25073e-07
-2.61302e-07
-4.91398e-06
0.00798084
-4.83126e-07
-7.21857e-07
4.70015e-09
0.00827638
-4.81595e-07
-2.70922e-07
-1.69519e-07
0.0156252
-7.44008e-07
-2.005e-07
-7.503e-07
-4.63165e-07
-1.02042e-06
-5.33483e-07
-4.02212e-07
-7.79299e-07
-5.37249e-07
0.0348542
0.00204402
1.14725e-06
-6.67912e-07
-3.3529e-07
-9.36319e-07
-3.21179e-07
-6.61077e-07
-5.15137e-07
-7.07639e-07
-9.35636e-05
-1.80348e-07
5.54665e-08
-5.84058e-07
-0.017023
9.56235e-07
-2.31884e-07
4.99442e-05
2.79341e-05
-1.12746e-06
-6.9462e-07
2.40324e-08
-8.98719e-07
-3.46857e-07
-3.13127e-07
0.0605163
2.20116e-07
-9.16444e-07
-8.56729e-07
1.35552e-07
1.18534e-07
-1.23824e-07
-5.70572e-07
-4.4902e-07
1.69506e-07
5.15472e-07
1.53725e-07
-1.02349e-06
1.25058e-06
-1.13999e-06
1.049e-06
0.000139736
0.0168751
1.40484e-07
1.30123e-07
-4.36998e-07
7.75401e-08
-0.00134171
5.33993e-07
-8.2281e-07
-7.52661e-07
-2.36204e-07
-6.06458e-07
-9.44013e-07
-0.00217596
3.11874e-08
0.038055
-2.2407e-08
2.39131e-07
-7.38271e-07
-0.000139479
-4.0031e-07
-5.27951e-07
0.00498784
7.06367e-07
-9.18513e-07
-0.00705834
-2.25698e-08
0.00287523
5.69879e-07
-1.00421e-06
0.00738689
-4.52415e-07
-7.86716e-07
3.38116e-07
0.00833745
-5.00785e-07
1.39545e-06
-8.53608e-07
-1.02864e-07
-6.67508e-07
2.93934e-07
-0.0245408
-8.94096e-07
0.0532164
0.000541772
-2.63141e-07
-7.77711e-07
-2.34026e-06
6.96703e-06
-1.76347e-07
-5.3276e-07
-6.95759e-07
-7.94839e-07
-4.531e-07
-4.81944e-07
-6.52388e-07
-1.15991e-06
-5.20191e-07
0.0114976
-1.55354e-07
0.00349492
-5.56123e-07
2.92078e-07
-3.54035e-06
3.81847e-07
2.50899e-07
0.0722285
0.0145808
-4.70325e-07
-4.66056e-07
-3.99316e-07
-2.20029e-06
-1.00103e-07
-1.1564e-06
1.62251e-06
-1.53322e-06
-3.31727e-07
-0.019516
-0.0274067
9.5084e-07
-8.65008e-07
-2.41755e-07
-2.83902e-08
-8.56811e-07
-7.59969e-07
0.00240399
-7.20372e-07
2.49968e-07
-1.66321e-06
-0.0171779
-8.21075e-07
-0.000252583
-9.56014e-07
2.74416e-06
-9.29703e-07
-0.000300293
-3.79772e-06
-2.34769e-07
-2.27216e-07
-9.00426e-07
9.89081e-07
4.47022e-06
-1.04821e-06
-7.84013e-07
-1.18662e-05
8.84191e-07
-2.75808e-07
-5.6756e-08
-9.27651e-07
-1.0168e-06
1.03615e-05
-2.36008e-06
-2.20033e-07
-4.21965e-07
-1.02018e-06
-0.00803749
-3.57953e-05
-1.64437e-07
7.21191e-08
2.34083e-07
-9.96294e-06
0.0418304
-5.08549e-07
0.0183495
-2.46674e-07
-1.3671e-07
0.00861874
-6.80696e-07
0.0736796
0.00563371
-1.50089e-06
-3.95e-07
-8.89302e-05
-7.95734e-07
-6.40222e-07
-1.0283e-06
0.0177702
-6.86627e-07
-1.98083e-06
-0.00564178
0.00133826
7.98206e-08
-5.53079e-07
-9.19262e-08
-3.38805e-07
-0.017406
-1.09643e-06
2.25034e-07
0.00719629
-2.48507e-07
-2.71522e-07
-1.05621e-07
-0.00549408
-0.00919761
-5.21615e-08
-5.3639e-07
-6.08647e-07
-9.42499e-07
0.0713155
4.04717e-07
-6.54552e-07
-0.000443853
0.0563205
-1.15193e-06
3.54316e-06
1.2342e-07
0.000203919
-4.97544e-07
-5.69797e-07
-1.00709e-06
0.000101565
-1.64899e-06
-3.94536e-06
-0.00537017
0.0246691
-8.04994e-08
-6.3625e-07
2.05711e-07
-3.22995e-07
-0.000618779
6.89758e-07
0.0711911
-1.11487e-05
-4.35461e-07
-9.81514e-07
0.068143
8.27669e-07
-6.09282e-07
-1.03086e-06
0.00209038
-0.00580906
-0.0219823
-0.010702
0.0458306
-0.0151221
-3.1464e-07
-4.70326e-07
-8.8871e-07
-1.29593e-06
0.00770747
0.00010873
-5.51182e-07
-0.000309897
-3.32301e-07
3.0165e-08
-2.27445e-07
-4.49269e-07
2.72956e-07
0.0576806
-3.24777e-07
-1.03971e-05
-2.91417e-07
-9.83643e-05
-1.93781e-07
2.24101e-05
-0.0159834
-8.9513e-07
-4.86481e-07
-1.61992e-07
-4.6057e-07
5.12462e-08
-3.30363e-07
-1.12559e-06
0.0490805
-1.31961e-07
2.94236e-07
-5.6289e-05
-3.20711e-07
0.0145338
2.48272e-07
0.00568853
-1.03018e-07
1.4073e-07
-4.1429e-07
-8.08228e-07
-8.55843e-07
-2.15022e-07
-0.00479728
-4.23761e-07
-5.81358e-07
0.000322203
-8.53738e-07
0.0465435
-8.32155e-07
0.0672645
-0.000623271
0.0129769
-2.60996e-07
-3.66304e-07
7.2279e-08
-0.000214251
-1.56407e-06
-8.08281e-07
1.74055e-07
2.566e-08
0.0202674
-4.03073e-07
-6.17022e-07
-5.39889e-07
-6.62996e-08
0.00257877
0.00999408
1.13177e-07
1.30856e-07
0.0629364
0.0265602
1.26446e-06
-0.0107565
5.32131e-07
0.0559678
0.0526176
-4.98846e-06
1.04196e-06
-4.51669e-06
-5.22934e-07
0.0190073
-6.7127e-06
-7.52607e-07
-1.06737e-06
3.72437e-08
0.0627355
0.00528325
-1.41655e-07
-1.66026e-07
0.00963289
1.18707e-06
0.0094316
-3.4072e-07
-7.67594e-07
6.59161e-07
0.000438487
-5.91163e-06
-4.99247e-07
0.0273669
-1.73642e-07
3.56327e-05
-0.0338215
-5.40465e-07
7.68321e-07
4.73201e-06
1.23128e-07
-1.90552e-07
1.20888e-07
0.0143439
-3.36657e-07
-3.31642e-07
-1.14574e-06
0.00956862
-5.09326e-07
-1.19507e-07
-5.47119e-07
0.00679752
-8.54879e-07
-4.63346e-07
-4.04091e-07
0.00672664
-0.000371993
-6.49123e-07
-7.53645e-06
-8.21874e-07
-2.95571e-07
1.04273e-09
0.0143954
-6.2098e-07
1.57247e-06
3.25134e-07
7.59615e-05
8.24019e-07
0.0188921
0.00533168
-5.91048e-07
0.0378014
0.0187504
-5.25487e-07
-8.01412e-07
0.000215053
4.29844e-07
-0.0195865
-8.33273e-07
0.000877006
-2.71021e-07
-3.29272e-07
-6.0289e-07
-4.72963e-07
-1.26461e-06
-3.41232e-07
2.47466e-07
0.00534451
-3.27718e-07
0.0377296
-0.0882718
-1.23659e-07
8.54167e-07
-1.11837e-07
0.00586121
-5.35945e-07
1.44388e-07
1.10878e-07
0.00207133
0.000205494
-0.000360784
0.0240605
-7.98213e-07
-9.15622e-07
1.90474e-07
-7.08377e-07
-8.76494e-07
7.2695e-05
-4.74081e-07
-3.3577e-07
-0.000351908
-5.22918e-07
-8.80532e-08
-3.0393e-06
0.000203345
3.22251e-06
-1.94153e-07
-1.22683e-07
8.75976e-06
-8.87888e-05
-0.00153547
6.40958e-06
-3.60323e-07
-3.68605e-07
-7.23179e-08
1.36163e-08
-6.85401e-07
-4.60558e-07
-2.87931e-07
-4.00121e-07
-9.09786e-07
-4.38536e-07
-9.50126e-07
-1.61879e-07
-6.54545e-07
-7.96957e-07
-1.64463e-07
-3.46397e-07
-8.13e-07
-4.22549e-07
-9.41468e-07
-1.73065e-07
-2.33072e-07
8.26769e-07
-2.25381e-05
-4.95063e-07
-2.56372e-07
-5.74728e-05
-0.000112697
-0.00398255
0.0377907
-1.93217e-06
-1.19466e-08
-5.73401e-07
0.000112776
-7.45231e-07
-1.47316e-08
-8.85562e-07
-0.0124211
-4.96034e-07
-6.87989e-07
2.08466e-05
-6.4309e-07
-2.6444e-07
-4.55547e-07
-4.37905e-07
-1.18926e-07
3.49148e-07
-3.38341e-07
1.03519e-07
-5.2345e-07
-3.14907e-07
-4.40107e-07
-1.02896e-06
6.24199e-05
-1.94839e-06
-4.96449e-07
-6.16331e-07
-6.6509e-06
-4.18419e-07
-2.35268e-07
-1.11966e-06
0.0385911
5.49085e-08
-4.89408e-07
-8.20003e-07
-3.17545e-07
-4.90915e-07
-1.24398e-07
-5.05283e-08
-0.000322147
-3.6648e-07
1.32581e-06
1.56426e-07
-3.00308e-08
-2.43343e-07
-8.90375e-08
-5.58547e-07
-8.36194e-07
-3.72725e-07
-4.23427e-07
-7.17209e-07
0.000326616
-1.41013e-07
-6.20532e-07
-3.08953e-07
0.00953508
-9.66452e-05
-7.01489e-07
4.95206e-08
-8.15184e-07
-1.5666e-07
-5.51999e-07
-9.82057e-08
-0.00235486
-1.29665e-07
-3.51946e-07
3.08058e-07
-3.83646e-07
-1.50096e-05
-4.4762e-07
-0.000145182
-2.55632e-07
-2.61204e-07
-9.10701e-08
-4.96278e-07
-0.000104081
0.0505403
6.93028e-06
-2.76414e-06
-6.80644e-07
-1.1938e-09
1.93942e-07
-0.000324946
-8.42383e-07
1.31072e-07
-8.5643e-08
-3.69388e-08
-1.43591e-06
-8.49586e-06
-9.20972e-08
0.0571591
5.24493e-07
7.26212e-06
-7.40867e-07
-8.9602e-07
-2.18483e-07
-5.87282e-07
-7.58353e-07
-4.46221e-07
-3.31207e-07
0.0165569
-4.53796e-07
-5.66589e-07
-6.38206e-08
0.000225446
-1.63335e-06
-2.81246e-05
-1.08901e-07
0.052427
-8.85439e-07
4.1152e-07
-4.08718e-07
-1.77239e-07
-1.0616e-06
3.08641e-06
-1.61962e-06
-6.83157e-07
3.89813e-07
-4.23806e-07
-5.34325e-07
-0.0410771
-3.76725e-08
-1.44435e-06
7.15326e-07
5.52101e-06
-1.76489e-06
-1.70719e-07
-1.18564e-06
-0.00354667
-0.000518557
0.000154603
1.42467e-06
2.32252e-06
-3.83351e-07
-2.9582e-07
-3.39362e-07
1.05634e-06
7.62299e-07
0.0299061
-2.18674e-07
1.58338e-09
-7.6491e-07
-1.75918e-07
-4.50038e-07
2.01883e-07
-6.31444e-08
-5.34027e-07
3.94942e-06
1.04951e-05