/*--------------------------------*- C++ -*----------------------------------*\
| =========                 |                                                 |
| \\      /  F ield         | OpenFOAM: The Open Source CFD Toolbox           |
|  \\    /   O peration     | Version:  v2012                                 |
|   \\  /    A nd           | Website:  www.openfoam.com                      |
|    \\/     M anipulation  |                                                 |
\*---------------------------------------------------------------------------*/
FoamFile
{
    version     2.0;
    format      ascii;
    class       surfaceScalarField;
    location    "200";
    object      meshPhiCN_0;
}
// * * * * * * * * * * * * * * * * * * * * * * * * * * * * * * * * * * * * * //

dimensions      [0 3 -1 0 0 0 0];
oriented        oriented;


internalField   nonuniform List<scalar> 
14907
(
0.00110909
0.00230561
-0.00351687
-0.00147255
-0.0072932
0.00874588
0.00669705
-0.00778288
0.000762321
-0.000144578
-0.000104508
0.000311851
-0.00282173
0.00250948
0.00820407
0.00141263
-0.00988095
-0.00199084
-0.0039971
0.00599624
0.00247654
0.00183664
-0.00431665
0.000354541
-0.00608823
0.00580606
0.00229931
-0.00315746
0.000457066
0.00178701
-0.00271111
0.000924076
-0.000118576
-6.96688e-05
0.0041279
-0.00102681
-0.00346052
-4.4237e-05
-0.00067565
-0.000328495
-0.000919437
0.0078708
-0.00698267
-0.00153941
-0.00509877
0.0070342
0.00579825
-0.00697251
0.000153183
-0.000360864
-3.43879e-05
-0.00361315
0.00463374
-0.00425705
0.00328454
0.000969571
-0.000379218
0.00158899
-4.57904e-05
-0.00614182
0.00622398
-8.88659e-05
0.00346434
-0.000257876
-0.00398693
0.0012416
-0.00650254
0.00400796
0.00639563
-0.00791429
-0.000457748
-0.00605012
0.00648586
0.000836036
-0.00788149
0.00740455
-0.000215037
-0.00656214
0.00668918
-0.00123543
-0.00543635
0.00676652
0.000161745
0.00682503
-0.00713965
0.00742566
-0.00202705
-0.00546358
0.00284359
-0.00154434
-0.0012993
0.00180691
-0.000359342
0.00918191
-0.00583729
-0.00344311
-0.00696695
0.000471197
0.00635909
0.00338652
-0.00345299
-0.00120088
-0.00547897
0.00665509
-0.00767324
0.00661768
0.00108756
0.000678929
0.00251029
0.00865624
-0.00210038
-0.00661963
-0.00197642
-0.00228179
-0.000798159
-0.0069323
0.00767511
0.00359135
-0.00557311
-0.00695607
0.001478
0.00522692
0.00284816
-0.00253676
-0.00683799
0.000163372
0.00666629
0.00223929
0.00406717
-0.00641676
-0.00721969
0.00799148
-0.000758865
0.00825425
-0.00513716
-0.0031892
-0.00876509
-0.000561294
0.00931788
0.000299932
-0.000527829
0.000157607
0.013872
-0.0102941
0.0100522
-0.00467708
-0.00547329
0.00425842
0.00692494
-0.0113835
-0.00580413
0.00457866
-0.00129698
0.00954809
0.0050736
-0.00621234
-0.00593154
0.00801368
0.00267084
0.00634679
0.00293634
0.00697231
0.00605028
-0.000344376
-0.00565681
-0.00856127
0.0107726
-0.00199007
-0.00190471
-0.00517578
0.00713542
-0.000824614
-0.00390331
-0.0033385
0.00723348
-0.00791989
0.00782289
-6.8186e-05
-0.00852964
0.00285856
0.00560242
-0.000413298
-0.00428662
0.00469543
-0.00342661
0.00224568
0.00118075
0.00496807
-0.000774372
-0.00421307
-0.00843327
0.012503
0.00122086
-0.00520397
-0.00200735
0.00539095
0.000917714
-0.00631832
-0.00611081
0.00744102
-0.00153289
-0.00194882
-0.00648019
-0.00292827
0.000106023
-7.31814e-05
-0.00487925
0.00488029
-0.00122092
-0.00517858
0.00637773
0.00563264
-0.0018897
-0.00373438
0.0028605
0.00535866
-0.000298831
0.00314598
-0.00759311
0.0061536
0.00116245
0.000945489
-0.00798878
0.00702673
-0.00130618
-0.00733294
0.00371175
-0.00384349
-2.66755e-05
0.0032328
-0.0018519
-0.00166889
-0.00524556
0.00153579
0.00370683
-0.0013405
0.00396136
-0.00287527
0.000638402
0.00242309
-0.00698391
0.00087381
0.00599413
0.00219398
-0.00249363
0.00570574
-0.00600031
0.00192047
-0.00701424
0.00702073
0.00646635
-0.0018135
-0.004722
0.00319
-0.00961614
0.00638238
-0.00621228
0.00568431
0.000463834
0.000805511
0.00776373
0.00112917
-0.00638287
0.00532235
0.000260826
-0.000260826
0.00503644
-0.000479885
-0.00456905
-0.000194084
-0.00465042
0.00483737
-9.48972e-05
0.00319475
0.000435697
-0.00744957
0.00696764
0.00311395
0.00214023
-0.00526068
-0.00171754
-0.0033765
0.00476364
0.00877433
-0.00566841
-5.76608e-06
0.000666804
-0.0088298
0.00802775
-0.000641231
0.00243244
-0.0019619
0.00138041
0.00304396
-0.00432663
0.000861121
-0.00789961
0.00695508
-0.00195193
-0.00147475
0.00386435
-0.00778387
0.00149308
-0.000160376
-0.00121766
-0.00651811
-0.00204413
0.0084677
-0.00374793
0.000577241
0.00584424
0.0014046
-0.00275409
0.00134911
-0.00483123
0.00315521
-0.00319681
0.00566952
-0.00583045
0.000696747
0.00502502
-0.00709688
0.00725038
-0.000170077
-0.000465225
0.00548649
-0.00301931
-0.00474706
-0.00328053
0.00511445
0.00131351
0.00380313
-0.00519973
0.00696145
-0.00385612
-0.00180755
0.000333557
0.00147558
-0.00577923
0.00453788
0.000765159
0.00540699
-0.0062163
0.00346029
-0.00147554
-0.00198483
-0.00126952
0.00545168
-0.00419958
-0.00640208
0.00757508
-0.00621399
0.00512707
0.00106171
0.00224647
-0.00288549
0.000638812
-0.00444235
-0.00275407
-0.00813209
0.000909711
-0.00253684
-0.00271174
0.00768335
-0.00111564
-0.00668226
-0.00862529
0.00203948
-0.00832196
0.00106023
0.00714179
-0.00284335
-0.00243823
0.00526667
-0.00969088
-0.00159744
0.0109
-0.00237043
0.003789
-0.00322789
0.0062609
-0.00307034
-0.00353464
0.0134252
-0.00988694
-0.000654946
-0.0055325
-0.00046894
-0.00628021
0.00670644
-0.000104056
0.00555445
-0.00552217
0.000509044
-0.000307356
-0.000454523
-0.00117821
0.00451706
-0.00333327
0.00310889
-0.00272676
-0.000382396
-0.000252497
-0.00534159
0.00671401
0.00340758
2.36497e-05
-0.000256742
0.00813584
-0.00792731
-0.00979636
0.00145011
-0.00030348
-0.00592432
0.00305211
-0.00112246
-0.00192987
0.000688676
-0.00254568
0.00185695
-0.00114251
0.00549221
-0.00436775
-0.00806773
0.00528104
0.00265778
0.00526819
-0.00544017
0.00573119
-0.00638201
0.000382625
-0.00534756
0.00606017
0.00251945
-0.00495015
0.0024273
0.00246466
0.000587049
0.00112043
0.00164136
-0.000106282
0.00321484
-0.0135548
0.0113214
0.00198368
8.78525e-05
-0.00392729
0.00295905
0.00413255
-0.00193975
0.00378719
0.000819983
-0.00461048
-0.00643438
0.00560973
0.000807198
-0.000264856
0.00564857
-0.0053563
-0.00183038
-0.000541901
0.00237231
0.00103223
-0.0059355
0.00471392
0.0038537
-0.0042712
-0.00705498
0.00681052
0.000188069
-0.0082328
0.00793002
0.00144034
0.00140316
-0.0100405
0.00663923
0.0031801
0.00665046
-0.00544052
0.00677816
-0.00763353
-0.00182053
0.00322474
-0.00402691
-0.000873775
0.00489025
-0.0034752
0.00744883
-0.00407708
-0.00269177
0.000902739
0.00178896
-0.0076141
0.00689501
0.000680439
0.000133805
0.00275552
-0.00288947
-0.00302279
-0.00545264
-0.00507957
0.00390608
0.00166694
0.00246396
-0.00316837
0.00570367
-0.00254019
0.00426823
-0.00265917
-0.00161098
-0.00759018
0.00767078
-0.000119377
-0.00606934
0.000687376
0.00506333
0.0025489
0.000134317
0.00260058
0.00430438
-0.00698091
-0.00662355
0.0053124
0.00129167
0.00154987
-0.00508663
-0.00668328
0.00198981
0.00453866
0.00376373
2.04588e-05
-0.00726388
0.00816731
0.00130471
-0.00942789
-0.00200805
0.00214174
0.00959921
-0.0107277
0.00237625
0.00127404
-0.00162944
-6.68362e-05
0.00527919
-0.00797188
0.000862328
0.00173074
0.00253458
0.000222681
0.000112009
-5.40613e-05
-0.00339372
0.00590959
0.0036722
-0.000420427
-0.00325163
9.83446e-05
0.00797876
-0.003841
-0.000187083
-0.00742623
0.00150078
0.00569432
0.00785442
-0.00931355
0.000778057
0.00138961
0.0040739
-0.00548486
-0.00194204
0.00483748
-0.00311516
0.00721716
-0.00643803
0.00116195
-0.00886149
0.007653
-0.00395288
0.000539508
0.0034123
-0.00632133
-0.00129846
0.00198139
0.00392037
-0.00597498
-8.08673e-05
-0.00654994
0.00661799
0.000622819
0.00313756
-0.00376084
-0.000740838
-0.00188007
0.00276129
0.0033062
-0.00547573
0.00215384
0.00212832
-0.0107241
0.00568343
-0.00398132
0.00393885
4.01156e-05
0.00185375
-0.00258448
-0.00950802
0.011457
-0.00331235
-0.00484104
0.00553368
-0.00604025
0.00791506
-0.00657978
-0.0011108
7.15289e-06
8.7689e-05
-0.000665693
0.00999615
-0.00333848
-0.00669347
0.0012063
0.0091151
-0.0102991
-0.00626023
-0.0018423
-0.00495865
0.00629411
-0.000787106
-0.00263681
-0.005372
-2.21736e-05
0.00189276
0.00151493
0.00571924
-0.00193851
0.00246198
-0.00145996
-0.00668567
0.00707443
-0.0155925
0.00426101
0.0110393
-2.35948e-05
-2.06516e-05
-0.0021089
0.00243392
-4.05277e-05
-3.37707e-05
0.00500114
0.00633653
-0.00736261
0.000912478
-0.00359237
-0.000361847
0.00342402
-0.00458044
-0.00110474
-0.00158705
-0.00111145
-0.0053357
-0.00742272
0.00541961
0.00198173
-0.00669219
0.00574658
0.00824687
-0.00409872
-0.00414764
0.00320613
0.00225247
-0.00544348
0.00204682
0.00786435
0.0045287
-0.00662076
3.78437e-05
-0.000582495
-0.00556619
0.00807923
0.00185247
0.00618847
-0.00553702
-0.000596525
-0.00529065
0.00947214
-0.00435185
-0.00133916
-0.000469351
0.00385967
-0.00435606
-0.00227907
-0.00884595
-0.000286661
0.00395885
-0.0018246
0.00516609
-0.00440529
-0.0007655
-0.00332106
-0.00430028
0.0119725
-0.0107507
-0.00779482
0.00706998
0.000805795
0.00851769
-0.00589599
-0.00279909
-0.0109564
0.000987792
0.000389319
-0.00751985
0.0022882
-0.00342708
0.000881129
-0.00595955
0.00109608
0.00236407
0.00833874
-0.000425355
-0.000300574
0.00602105
-0.00602771
-0.00372159
0.00694863
0.00139351
0.00590169
0.00125051
-0.00663157
0.00616774
0.000212267
0.00712383
-0.000909054
-0.00592449
0.00568929
-0.00797464
0.0019081
0.00598593
0.00111752
-0.00397354
0.00021559
-0.000133448
0.00197945
-3.49866e-05
-0.0030099
-0.00620903
0.000154478
0.00492382
-0.00430118
0.000124326
0.0013967
-0.00159354
0.00631393
0.000108659
0.00467968
0.00130102
-0.0062288
-0.00112397
-0.00650259
-0.0025865
-0.00657446
0.00920835
0.00684862
-0.000206905
-0.00668772
-0.00573199
0.00166246
0.00406468
-0.00357889
0.00374487
-0.000167632
0.00971843
-0.00693638
0.00520821
-0.00330087
-0.00191012
-0.00116021
-4.61649e-05
0.00181588
0.00733068
0.00111575
0.00831758
-0.00717267
0.00148672
0.000821215
-0.003992
-0.00090847
0.00489142
-0.00433249
0.00141867
0.00291168
0.000543479
0.00949794
-0.00715146
-0.00364602
0.00358249
-0.00903304
-0.00457133
0.00378242
-0.00773863
0.00750331
0.000145842
-0.00614321
-0.000304111
0.00476244
-0.00448242
0.0014755
0.00397691
-0.00549716
0.00254992
-0.00319297
-0.00118168
-0.000713022
0.00095439
-0.00464983
-0.00492078
-0.000814106
-2.44523e-05
-0.000594447
0.00102894
0.00731482
-0.0005858
-1.45522e-06
-0.00531328
0.00517355
-0.000106616
0.00686942
0.00231882
0.000151401
-0.00247019
-0.000814765
-0.00687506
0.00766702
-0.00118389
-1.11425e-05
9.72997e-06
0.00634345
0.000387389
0.00764572
-0.00528472
-0.00240214
0.0019472
-0.00512399
0.00633876
-0.000929601
-0.00498092
0.0035728
0.00140533
0.0045116
-0.00704404
-0.000146562
0.00667335
-0.00548262
-0.000920044
-0.00537351
0.000529107
0.00478684
2.67911e-06
-0.000649409
-0.0011774
0.00438003
-0.00320373
0.00283921
-0.000764641
-0.00535693
-0.00998498
0.00948884
0.000452785
-0.00378313
-0.00946368
0.00555236
0.00382779
0.00770701
-0.00717416
-0.00283158
0.00910377
-0.00253697
-0.00679524
-0.0057333
0.00762341
0.00568036
0.0012764
-0.00515504
0.00657562
-0.00964909
0.0021881
0.00732118
-0.000205618
0.0063986
-0.00639763
-0.00251043
-0.00247397
0.0017175
-0.00497733
0.0112375
-0.0048364
-0.00651743
0.00123368
0.00636369
0.00482474
-0.00204322
-0.00359889
0.00148044
-7.38197e-05
0.00119717
0.0029446
-0.00432078
-0.00520769
-0.0043213
0.00328455
0.00103408
-0.0102695
-0.00120104
0.0113841
0.000170592
-0.00427653
0.00384843
0.00317041
0.00644426
-0.000207125
0.000207125
0.00178846
-0.00142819
0.00410129
-0.00584791
-0.00045939
-0.00617062
0.000559534
0.00590221
0.0027511
-0.000504864
0.00069298
-0.000940271
-2.99411e-05
0.000332597
-0.00514447
0.00480761
0.00314209
-0.00431988
-0.00125599
0.00663767
0.000678721
-0.00643948
0.00579467
0.00186111
-0.00668354
0.000194912
0.00641978
-0.00158565
-0.00239844
0.0087568
-0.000267279
-0.00750892
-0.0100522
0.00129804
0.000683501
-0.000683501
-0.00079777
-0.00597937
0.00664875
-0.002205
0.00784201
-0.00562557
0.00127701
-0.00802
0.00663931
-0.0019609
-0.0058413
0.000980275
0.0021899
0.00307835
5.06282e-05
0.00226269
0.000909768
0.00393967
0.00129281
-0.00524135
0.00117949
0.00157599
0.00480243
0.00298167
0.0128704
-0.00261191
-0.0104625
0.0023692
-0.00124882
-0.0044695
-0.00472218
-0.000326274
-0.0054568
0.00116706
0.00245881
0.00198787
-0.00398679
0.00316617
-0.00329268
-0.00144418
0.00815729
-0.00677309
-0.000658883
7.01908e-05
0.000881738
0.000284356
-0.00183679
0.00785767
0.000174502
0.0026949
-0.00339585
-0.00685362
0.00404231
-0.00105685
-0.00298675
-1.88527e-05
-0.000748888
-0.00175161
0.00180966
-0.00348108
0.00403192
-0.000555816
0.00887855
-0.000325845
-0.00899141
-0.0043213
-0.00513703
-0.00291282
-0.00725262
-0.000750308
0.00756507
-0.00860658
0.000457809
0.00285091
0.0096426
0.00511746
-0.00136465
-0.00375452
-0.00953631
-0.0069801
0.000220729
0.00705779
-0.000252842
-0.00691348
0.00264038
-0.000853398
-0.00774563
0.00778425
-0.00266777
0.0080849
-0.000268743
-0.00201637
0.00184136
-0.000284929
-0.0019464
0.00262326
-0.00404704
0.00142114
0.000398023
-0.000123495
-0.000625018
-0.00778258
0.00776187
1.6007e-05
-0.00176314
-8.54323e-05
0.00182312
0.00774853
0.00120104
0.0011834
-0.00230603
-0.00761471
0.00141184
0.00623216
-0.00909684
0.00546509
0.00371173
-0.0053269
0.00243866
0.00235586
-0.000545795
0.00257547
-0.00202974
-0.000972506
0.000131141
0.00110924
-0.002491
-0.0051158
-0.00103497
-0.00587675
0.00689696
-0.00581018
0.00140831
0.00263396
-0.00521446
-0.00183492
-0.00169239
0.00388547
0.00974344
-0.00589054
-0.0113751
0.00102366
0.000320684
0.000720069
-0.0066406
0.00644449
0.00721851
-8.68408e-05
-0.00246542
0.000519033
0.00194631
0.00820823
-0.000103165
-0.000267244
0.000744011
-0.00612113
-0.000249432
0.00635884
0.00482398
8.16553e-06
0.00375171
-0.00556528
0.00178112
1.10524e-05
0.000895997
0.00704571
-0.00030302
0.00260704
0.000927228
-0.00744115
-0.000464159
0.00780364
-0.00728344
-0.00649785
0.00608345
0.00310593
-0.00439052
0.00648665
0.00457093
-0.00233149
0.000185838
0.00640135
-0.000381111
-0.00605179
-0.00634884
2.05386e-05
0.00723495
9.00477e-05
-0.00623829
0.00736148
0.00658686
1.76446e-05
-0.0072893
-0.00448027
0.00625958
-0.0018021
0.00298164
-0.00666658
7.11815e-05
-3.79813e-05
-0.00195414
-0.000756976
0.000124438
-0.00157215
0.000763205
0.0111357
-0.000144083
-0.00156464
0.00688149
-0.00575876
3.00094e-05
0.00682956
-0.00310317
0.00703106
0.00249977
-0.0038508
0.00575529
0.000303748
-0.00290495
-0.00792793
0.00739033
0.000428153
0.00176599
0.00279425
-0.00455613
0.00825189
-0.00629495
7.18006e-05
-7.97868e-05
-0.000108171
0.00111067
-0.00477655
0.00366047
-0.00430628
0.00034858
0.00345858
-0.00146292
-0.00767138
-0.0022998
0.00119363
0.00162316
-0.0023913
0.0101035
-0.0077467
-0.00886723
0.00322228
0.00561148
0.00411873
0.00152041
-0.000635653
0.00150629
-0.0060137
0.00306733
-0.00731539
0.00830053
0.00298332
-0.0031611
-0.00018591
0.0071322
-0.00780459
0.000700347
-0.0093642
0.000535998
0.00842143
-0.00381365
-0.00019741
7.12984e-05
-0.00132772
0.00172379
-0.000960867
0.00313562
-0.0014194
-0.00146617
-0.00805598
0.00922855
0.00690994
-0.00318624
0.0130267
-0.00683674
-0.00619651
0.00562113
0.00746955
0.00104814
-0.00726581
0.00256376
-0.00254564
-0.000353076
-0.00581948
0.00589473
-7.69278e-05
0.00509181
2.29677e-05
0.000177703
0.00670215
0.000580585
-0.00143776
-0.00831013
0.000402988
0.00792193
-3.43367e-06
0.000168512
-0.00215331
0.00292723
-0.000774218
-0.0063987
0.00629443
3.74187e-05
-0.00725922
-0.00629355
0.00576154
0.000570965
-0.00269953
0.00203648
0.00036543
-0.00593593
0.00770897
-0.00200885
-0.000997308
-0.00616133
-0.00839083
0.000215106
-0.000732163
-0.00173328
0.00240331
-0.00122404
0.00264026
-0.00282452
0.000183936
0.00683774
-0.00470735
0.00704532
-0.000449848
-0.00594085
-0.000456079
-0.00859597
0.00905016
-0.00526866
0.00613121
-0.000914695
0.00212729
0.00120071
-0.00332799
0.00286963
-0.000405417
-0.00101035
-0.00615715
0.00709797
4.332e-05
-0.00167038
0.00133652
8.39561e-05
0.00687768
0.000342086
0.00369813
0.00593432
-1.8386e-05
-0.00213221
0.00250067
-0.00181205
0.000892878
-0.00361288
-0.00119173
0.00174506
5.07419e-05
-0.00710642
0.00703673
-0.00359067
-1.20952e-05
0.000827787
-0.0055375
0.00473454
0.0011615
0.00699432
0.00635943
-0.0067054
0.000323926
-0.00676207
0.00630267
0.000409123
-0.00525373
-0.00265686
0.00963017
-0.00724254
-0.00247747
-0.00597469
0.0063199
0.00404071
-0.0099204
0.00145135
0.00537057
-0.00459983
0.000990622
0.00360556
-0.000557606
4.28003e-06
0.00857295
-0.00914333
0.000144979
-0.00761173
0.00727624
-0.00752546
0.00558324
0.00755281
-0.00738133
-0.000794612
-0.000502646
-0.00499532
-0.0070162
0.00679927
0.000253713
-0.00681045
0.00589393
-0.00216484
-0.00531672
0.00490872
0.000393054
0.00105905
0.00679685
-0.0082291
-0.00604491
-0.00195973
-0.000341958
-0.00220587
-0.00792146
0.00725609
0.000525147
0.00177894
-0.00336782
-0.00168143
0.00216425
-3.76692e-05
-0.000431839
0.00679609
-0.00636919
0.00270737
0.00352178
0.00608547
5.28e-05
0.000947647
0.00557124
0.00365423
-0.00920381
-0.00525588
-0.000930251
0.00287541
-0.00194546
-0.00707886
0.000400122
0.00663222
-2.65655e-05
0.00226192
-0.00186692
0.00429076
-0.00383111
-0.00046036
0.00895963
-0.00437997
-0.0049051
-2.64659e-05
-0.00203784
0.00625312
-0.000601479
-0.00573339
-0.00749332
0.000619986
0.00701202
0.000180927
-0.000180927
-0.00214477
0.00607827
-0.00398373
-0.00788233
0.00179173
0.00180869
0.000594201
0.00703172
0.000565267
0.0078912
-0.000589559
-0.00643319
0.000906508
0.00549567
0.0030121
-0.00616624
-0.00624087
0.0054903
0.000698794
-0.00754086
0.000531294
-0.00933623
0.000572562
0.00876678
0.00510496
-0.00554103
0.00843499
-0.00175311
0.000884202
-0.00739947
0.00646815
-0.000625162
-0.00621316
-0.000837943
-0.005
-0.000797562
0.00833247
-0.0104369
0.00901226
0.00103147
-0.00261154
0.0017807
0.000239395
0.00386429
-0.00110605
-0.00275902
0.00675647
-0.00823416
-0.00292146
0.00469546
0.000553209
0.00664888
0.00842878
-0.00866744
0.000230916
0.000532709
0.00153654
-0.00238301
-0.00042803
0.00650997
-0.00609598
-0.00885296
0.00682966
-0.001778
-0.00534789
0.00610196
-0.00041362
0.00313766
0.00115273
0.00189078
-0.000104496
-0.00235196
0.00595647
0.00717255
-0.0106765
0.00669449
-0.00688597
0.00280049
-0.00224919
0.000338938
-0.00595932
0.0072316
-0.00699491
0.00416528
0.00375473
-0.00595338
0.000175742
-0.00642225
0.00627389
0.00117464
0.00307347
-0.000264705
-0.00280909
0.00695706
-0.00610099
0.00482426
0.00237935
-0.00719917
0.00532074
0.000993945
-0.00586449
0.000929295
0.00463967
0.00570257
-0.00554325
-0.00017043
0.00658622
-0.00642987
0.000168033
0.00139759
9.19846e-05
0.00628697
-0.0036407
-0.00096337
0.00305968
-0.000932394
0.0101242
-0.00141012
0.00347657
-0.00206836
-0.00623313
-0.00628789
0.00576964
0.000450699
0.00302759
-0.00332668
-0.00170801
0.0089474
0.00173821
-0.00508721
0.00838228
-0.0102058
0.00201438
0.00588245
-0.00831914
0.00762485
0.000522695
0.00595371
-0.00254004
0.000109976
9.11e-05
-0.00136612
-0.00661694
-0.00862523
-0.000716019
-0.00416808
0.00170853
0.00245887
-0.0004888
0.00708103
0.0065757
0.000418879
0.00881686
-0.0092774
-0.00719356
0.0015829
-0.00587584
-0.000941842
0.00791485
-0.00775457
-0.00623357
0.00531341
0.000297961
-0.00027296
0.00703639
-0.0059514
-0.000497205
0.00282322
-0.00133653
0.000129955
-0.00676437
0.00663449
-0.00275462
-0.00141404
-0.000129759
0.00236217
-0.00200552
0.00391884
-0.00151939
-0.00240077
0.00285654
-0.0025789
-0.000277884
-0.00143983
0.00458052
0.0110705
-0.00248131
0.00229657
-0.00640467
0.00530905
-0.00202311
0.00599601
-0.000441387
-0.00555804
-3.63555e-05
-0.0055085
0.00010675
-0.00177894
-0.00558742
0.00147639
0.000879202
0.00375672
-0.00445444
0.000428593
-0.00633922
0.000194578
0.00290896
-0.00474022
0.00183239
0.00262432
0.00191874
-0.00487992
-0.000355503
-0.000125634
-7.12716e-06
-0.00338173
-0.00426448
-0.000466804
0.00684288
-0.00647646
-0.00419122
-0.0034552
0.0103168
-0.00505553
-0.00549176
-0.00351455
0.00462054
-0.00279271
0.000131986
0.00756274
-0.000333532
0.00737262
0.00122724
-0.00270285
-0.00523964
0.00158151
0.00365949
-0.0040954
-0.00825586
0.00785649
-0.000491092
-0.000152345
-0.000278149
-0.00109012
-0.0023942
0.00727392
-0.00714381
-0.00274331
0.00232301
-0.000484036
-0.00116102
0.000110328
-0.00562426
-0.000121953
0.00582621
-0.00572712
0.00540695
-0.00674012
0.000607275
0.00614281
-0.00527623
0.00834177
-0.000888034
-0.00269218
0.00611535
0.000109418
-0.00603317
-0.000400332
0.00296169
-0.00347759
0.000933236
0.00476325
-0.00571027
0.00428746
-0.000454016
0.00996799
-0.00024466
-0.00964564
-0.00584654
0.00134848
0.00449403
0.00881444
0.000709759
0.00175367
-0.00258305
0.000829181
-0.000482372
-0.0022722
-0.000539055
-0.00585925
-0.000662688
0.00377124
-0.0041317
0.00035791
0.00221165
0.000192075
-0.00240374
-0.00603803
2.38107e-06
0.00603233
0.00530181
0.00150163
-0.00478476
-0.00378097
0.00342335
0.000354453
-0.00715195
0.00737852
-0.000246527
-0.00560186
0.00531966
-0.000153152
-0.00175001
-0.000698839
0.00316715
-0.00345382
-0.00200598
0.00684308
-0.00116862
0.00450546
-0.00334188
0.00011945
0.0026082
0.00198809
0.000330707
0.00407297
-0.000791644
-0.00722017
-0.000469606
-0.00874173
0.00987269
-0.00126924
0.00358527
0.013072
-0.0026605
0.00123078
-0.000948614
0.000334955
-0.00661336
0.00620885
0.00157328
-0.00256628
0.000992917
0.00239716
0.00101868
-0.00341552
0.00264666
0.00121608
0.01018
0.000638734
0.00405164
0.00230677
-0.00639907
0.000165955
0.00582916
-0.00138188
0.00192827
-0.00253214
-6.61381e-05
5.69117e-05
-0.00489173
-0.000671527
0.00383825
-0.00117104
0.000949484
9.50147e-05
0.000539047
0.0074076
-0.00282381
0.00684033
0.00602941
-0.00376868
0.00513928
-0.00131911
0.00145672
0.000155651
-0.0081774
-0.000475532
0.0095973
-0.00282735
-0.00643005
0.00707408
0.000107429
0.00532382
-0.000862132
-1.77511e-05
0.00411385
-0.00414805
-0.00587092
0.00532523
0.000492494
0.00158775
-0.00498367
0.0033627
-0.00293497
-0.000428717
0.00327429
-0.0026085
-8.77929e-05
-0.000881299
-0.00317513
0.00405247
-0.00171059
-0.0035258
-0.00263163
0.00440161
-0.00774254
0.000440646
-0.00221312
0.000198898
0.00201419
0.00262359
0.00521189
-0.0044124
0.00314284
0.00636227
-0.00758392
-0.000886084
0.00786188
-0.00701819
-0.00308153
-0.000965393
0.00404592
-0.00661567
0.001042
0.00624505
-0.00112609
-6.53366e-06
-0.00349666
0.00599417
-0.000302851
0.010427
-0.00054576
0.00696965
-0.00716256
0.000429789
-0.00720572
0.00725043
3.98704e-05
0.00657059
-0.00538012
0.001011
-0.000892605
0.000137416
-0.00046741
0.00765537
0.000869525
-0.00725959
-0.00312805
0.00371058
0.00725151
5.44001e-05
-0.00722237
-0.00292041
0.00169613
0.0049057
-0.00548044
-0.000211525
-0.0064163
3.32768e-05
0.000225581
-0.00741993
-0.00152301
0.00453558
-0.00302654
4.98574e-05
0.000755792
-0.00775902
0.00687633
-0.00775103
-0.000647845
0.00830182
0.00125392
0.00647723
-0.00139643
0.003374
-0.001978
-0.00103983
0.00103983
0.00068487
0.00267603
0.00683577
0.000328751
0.00256667
0.00123557
-0.0038015
-0.0045035
0.00365531
-0.00546533
0.00844031
-0.000696863
0.00294691
-0.00383174
-0.00108694
0.00501866
0.00242991
-0.0077993
0.00130584
-0.00271758
-0.00500939
0.00612188
-0.0010972
0.000626839
-0.0072377
0.00661705
0.00336474
-0.00170812
-0.00479067
0.00334903
-0.00749703
0.00764921
0.000220926
0.0041607
0.000202285
-1.15823e-05
-0.00572977
0.00577029
-0.000278458
-0.00710815
0.00611824
0.000928524
-0.00011092
0.00011092
-0.000594447
-0.00415149
-0.00170227
0.00701
-0.000753067
-0.00129871
0.000578795
0.00679181
-0.00160256
-0.0052204
-0.00906215
0.000135545
0.00268682
0.00881588
-0.000158411
-0.0086679
-0.00118776
0.00299591
0.000610809
-0.000244494
0.00661898
-4.54635e-05
-0.00471024
0.00209141
0.0026183
-0.00800089
0.000917843
0.00714921
-0.00275816
0.000604613
-0.00317724
3.90277e-05
0.0138751
-0.00650812
-0.00735185
-0.00279214
-0.00142872
0.00401112
0.0062094
-0.000506176
-0.00364758
-0.000994166
0.000731297
0.00559835
-0.00534543
0.00117628
0.0041607
0.00054357
-0.00918479
0.00863742
-0.000536068
0.00829119
-0.00740268
-0.00131376
-0.00119298
0.00294648
-0.00408338
0.0132226
0.00789725
-0.00808198
0.000218062
-0.00537786
0.00628584
0.00704058
-0.00103204
-0.00601911
-0.00319731
0.00271498
-0.0101415
0.00134104
-0.00392108
-0.00498294
-0.00391414
0.00549833
-0.00631334
-0.00547876
0.000149206
-0.000566065
0.00205739
0.00175595
-0.00387836
-7.18006e-05
-0.000970923
0.00351367
-0.00254423
0.00984453
0.00169627
-0.0127069
-0.00185132
-0.00163417
-0.00506405
0.0053975
-9.43483e-05
0.00155677
-9.02216e-06
-0.00210905
-0.00419545
-0.00516903
-0.00045599
-0.00614525
-0.00483666
0.00476918
0.000432295
-0.000518574
2.71915e-05
-0.00782572
-0.00622437
0.00649164
0.00646269
0.000292099
0.000621493
0.00753264
-0.00139791
0.00396429
-0.00102631
0.00611113
-0.00517972
0.00212058
0.00179693
-0.000708675
0.00600259
-0.00126601
0.00288888
-0.00162279
-0.00763111
0.0047355
0.00282571
0.012223
0.00160048
0.000698056
-0.00234193
0.00164381
-0.00560179
-0.000699907
-0.000103002
0.00391949
-0.00555829
0.00164056
0.00065144
0.0058883
-1.54343e-05
-0.000681725
0.00565827
-0.00681404
0.00103752
-0.00397396
0.00205868
-0.00547734
-0.00218912
0.00299742
-0.00080849
0.00382696
0.00133242
-0.00518726
0.00238251
0.000690491
-0.00605776
0.00956862
0.00789831
-0.00684834
-0.0018839
0.00203532
0.00691303
0.00704376
0.000319237
-0.000449532
0.00434883
0.00868816
-0.00811091
-0.00209476
0.00414354
0.00250375
9.70231e-05
-0.00617617
0.00585902
0.00623451
-0.00842029
-0.00809032
0.00035003
0.007538
-0.00557089
0.007528
-0.00755505
0.00373276
-0.00111209
-0.00895338
0.000352761
0.00848184
-0.00770016
-0.00134046
0.00644101
0.000352172
-0.00616572
0.00586349
0.000293946
-0.00745768
0.0070985
0.00870861
-0.00093903
-0.00800351
-0.00297612
0.000786812
-0.00649063
-0.00101607
0.0073401
0.00147998
-0.000208604
-0.00320116
0.00651655
0.00049652
0.00621256
-0.00754184
0.00156813
0.000891292
-0.00215753
-0.00423331
0.00641391
0.00205036
0.000824647
-0.00634118
-0.000251142
0.00634283
-0.00688364
0.00751813
-0.00135809
-0.00292896
0.00428665
-0.00504568
-0.0010044
-0.00524887
1.21801e-05
-0.0097527
0.0108481
-0.00110596
0.00606404
0.000825743
-6.71096e-05
-0.000859239
-0.0114308
-0.0041348
0.00541824
0.00399298
-0.00291004
-0.00108455
-0.000403319
0.0035445
-0.00350102
0.000296073
-0.00615509
0.00567326
0.00697338
-3.25358e-05
0.00711098
-0.00125422
0.00731523
0.00476947
-0.00362275
-0.000894971
0.00363392
0.00165747
-0.00624532
-0.00563315
0.000817559
0.00471562
-0.00218464
-0.00549043
0.00797885
0.00407088
-0.00437331
0.000290004
0.00218583
-0.0019732
0.000160202
-0.00533108
0.00554774
-0.000282252
0.00317933
-0.00160621
-2.5898e-05
0.00653228
0.0106636
0.000255816
-0.000443295
-0.00288893
-0.00182109
0.00677221
-0.00656182
0.00274276
-0.000238857
0.000243781
-0.00796901
-0.0023792
0.00368281
0.00911756
-0.00181984
-0.00114433
0.00146517
-0.00136813
0.00143472
0.00252491
0.00447111
-0.00171951
0.00473071
-0.00301378
-0.00079759
-0.00537007
0.0059642
-0.000219223
-0.00102894
0.000434136
-0.00691408
0.00637264
-0.00592943
0.00611094
-7.55344e-05
-0.00310619
-0.00616341
0.00916964
-0.00461783
-0.00252024
0.00703508
0.000958251
-0.00593667
-0.000522044
-0.000390166
0.00742965
-0.00725511
0.00759439
-0.0061788
-0.00148287
0.0037834
-0.000985271
-0.00279946
-0.00410162
0.00730268
-0.00668098
0.00128608
0.00537635
-0.00770015
0.000506715
0.00707419
0.00302297
0.00295583
0.000137615
0.00886782
-0.00929888
6.6983e-05
0.00802105
-0.006715
-1.61119e-07
0.00726462
-0.00377937
0.00312401
0.000194366
-0.00886624
-0.000490398
0.00921642
4.92134e-05
-0.000813241
0.00158648
0.000251203
0.00814342
-0.00409447
-0.0023188
-0.0025802
0.00489702
-0.000209544
-0.00698661
0.00720624
0.00714534
0.000654643
-0.000401748
0.006376
3.73571e-06
-0.00640975
0.00548692
-0.000407616
-0.00317436
-0.00264236
-0.00548564
0.000743116
0.0047425
0.00681067
-0.000428267
0.00593566
-7.31232e-05
-0.000439619
0.00190251
-0.00287442
0.00443283
-0.00270477
0.00270386
-0.00089782
-0.00145518
-0.0060228
-0.000651684
0.00538504
0.000316315
-3.42342e-05
-0.00556816
-0.000158076
-0.00670244
0.00746381
0.00071342
0.00603984
-0.000663492
0.00740301
-0.00301578
-0.00461387
0.0038777
-0.00706906
-0.000761221
0.00223709
-0.00147591
-0.00665861
0.00648983
-0.0061742
-0.00553956
0.00383102
-0.00561551
0.00504353
-0.000137862
0.00112176
0.00286959
0.000387319
-0.000756676
0.00013903
-0.0062533
0.00545918
-0.00590386
-0.00399085
-0.00187433
0.00564721
-0.00626922
0.00648074
-0.00074646
0.000296916
0.00982253
-0.000158038
0.00704531
-0.00697791
0.000585813
-0.00296724
0.00493584
0.00613542
0.000115978
0.00366416
-0.00306083
-0.000605195
0.00698227
-0.00312826
0.00510509
0.000790786
0.000637234
0.00228959
0.00570166
-3.41483e-05
-0.000375663
0.00327269
0.00330372
0.000722999
0.00732067
0.000651967
-0.00805628
-0.00389569
0.00277726
0.00111861
0.011365
0.00577059
0.000264293
0.000270365
-0.00012042
0.00197522
-0.00252108
-0.00150159
0.00101683
-0.00591157
0.00115804
-0.0074263
0.00601986
-0.00646046
-0.00705099
0.00717162
0.000648324
0.00544647
-0.00191454
0.0027644
-0.000966475
-0.0065116
-0.00412829
-0.00355638
-2.02642e-05
-0.00650213
0.00642699
-0.00164387
0.000194795
0.00123319
-0.00238813
-0.00476322
0.00711001
-0.000131466
-0.00168433
0.00448622
3.69678e-05
-0.00188016
0.0109376
-0.00233842
0.00211362
-0.00836412
0.000890621
-0.000556498
-0.00661263
0.00641207
-0.0086388
0.000646135
0.0076511
0.0012389
-0.00200016
0.00698026
-0.000733261
0.00547119
-0.0051135
0.0019028
-0.00628957
0.000863052
-0.0072206
0.000388401
0.00682865
-0.000329462
0.000674688
-0.000167673
-0.00631341
0.0044559
0.00685322
0.000924237
-0.003425
0.00492529
0.00577477
-0.000246042
-0.00554129
-0.0060794
0.00142685
0.00465809
-0.00131681
-0.00658279
0.00119964
0.00749798
-0.000297568
-0.00526532
-0.000174592
0.000608413
0.00698832
-0.00702527
0.00595339
0.000182933
-0.000676125
0.00756501
0.00979626
-0.000871265
-0.00893938
-0.000280246
7.86505e-05