/*--------------------------------*- C++ -*----------------------------------*\
| =========                 |                                                 |
| \\      /  F ield         | OpenFOAM: The Open Source CFD Toolbox           |
|  \\    /   O peration     | Version:  v2012                                 |
|   \\  /    A nd           | Website:  www.openfoam.com                      |
|    \\/     M anipulation  |                                                 |
\*---------------------------------------------------------------------------*/
FoamFile
{
    version     2.0;
    format      ascii;
    class       volScalarField::Internal;
    location    "200";
    object      V0;
}
// * * * * * * * * * * * * * * * * * * * * * * * * * * * * * * * * * * * * * //

dimensions      [0 3 0 0 0 0 0];


value           nonuniform List<scalar> 
10042
(
0.057217
0.111737
0.0375034
0.17358
0.00235596
0.12207
0.00784126
0.00552598
0.0597551
0.122377
0.00130313
0.17643
0.145809
0.154038
0.0226672
0.101131
0.10966
0.177449
0.0718911
0.00397153
0.142735
0.00848052
0.163327
0.135819
0.0989608
0.0199362
0.141122
0.0269063
0.0516977
0.0341761
0.0865021
0.00136566
0.140827
0.0338968
0.0207586
0.135197
0.0225889
0.0160318
0.145401
0.0126109
0.00292932
0.0227639
0.00755757
0.0438143
0.00238577
0.0151965
0.0236866
0.012627
0.0205279
0.022459
0.175045
0.0396395
0.0199899
0.0381222
0.0199419
0.102193
0.0490665
0.0309592
0.0390476
0.0226254
0.100438
0.0887603
0.017945
0.0467669
0.0279281
0.0374328
0.0330461
0.00595022
0.00209782
0.0495042
0.0403578
0.00271282
0.0416263
0.0122418
0.0358857
0.123
0.00179579
0.0672612
0.0122761
0.00691393
0.0180294
0.00300932
0.0401526
0.0251193
0.0389811
0.170224
0.0529264
0.00499355
0.0354873
0.0707805
0.0370778
0.00236411
0.023961
0.0432245
0.0340564
0.0418391
0.0864968
0.0425718
0.0187732
0.0465153
0.192294
0.00546807
0.00584359
0.158741
0.0277126
0.00696783
0.0516226
0.0833977
0.15639
0.0902358
0.134498
0.0638533
0.0202718
0.00174131
0.0305284
0.0667851
0.0592059
0.0567362
0.047897
0.001917
0.0413684
0.00583351
0.0359396
0.0671676
0.00698813
0.0346131
0.00599918
0.0141799
0.0085912
0.0649285
0.0112349
0.0431283
0.00170528
0.00719155
0.0539498
0.00855898
0.00171683
0.0320875
0.0117648
0.00448291
0.0261905
0.0452573
0.0290158
0.00537291
0.0514234
0.0610641
0.00801581
0.0786857
0.0410061
0.0196853
0.0516402
0.172485
0.00596786
0.00187091
0.131591
0.146901
0.0271443
0.06935
0.00807002
0.00150486
0.00137826
0.00804329
0.0657892
0.0494146
0.0332482
0.0461983
0.00610364
0.00189398
0.00140423
0.00211322
0.0407166
0.0978713
0.00233696
0.00456214
0.0089909
0.00950101
0.00134148
0.0365298
0.00527646
0.014889
0.0265133
0.00121161
0.0404923
0.0177265
0.0227106
0.00221667
0.00533469
0.0301366
0.00133601
0.0247697
0.00210202
0.0270129
0.00703238
0.00288874
0.00789518
0.0026788
0.0233047
0.0633979
0.147958
0.0242422
0.00961632
0.0245218
0.0663084
0.00340608
0.0373839
0.0848514
0.0015667
0.124818
0.169357
0.144163
0.00349969
0.184606
0.00741692
0.00318407
0.028427
0.00436474
0.0412893
0.104545
0.00901905
0.0859553
0.0185814
0.0267424
0.00368456
0.0146637
0.0134207
0.0174129
0.00507257
0.0663392
0.00620703
0.0347909
0.0555872
0.00327251
0.0901931
0.0367578
0.0305772
0.0173871
0.0672832
0.174371
0.0275412
0.0240488
0.0703128
0.0341963
0.0355642
0.0182332
0.0629641
0.0901767
0.165257
0.0264124
0.0405646
0.206712
0.135288
0.0525733
0.0183144
0.00294571
0.00656403
0.00127271
0.00868343
0.00991305
0.0191669
0.0146803
0.00782225
0.0336958
0.0621426
0.163062
0.027513
0.0626998
0.00950004
0.0240454
0.0604101
0.14096
0.00857508
0.037374
0.0035519
0.00992697
0.00489352
0.0182985
0.0270359
0.0715802
0.0131361
0.0409152
0.0144135
0.0394124
0.0186358
0.00201542
0.0707943
0.0518325
0.00946323
0.0134375
0.0404628
0.100087
0.0218635
0.0100044
0.0119667
0.00437664
0.16983
0.142389
0.0567769
0.0525859
0.0067194
0.0527847
0.0864965
0.0824305
0.0444159
0.0179159
0.016531
0.00584353
0.00259376
0.0213218
0.00354626
0.0647469
0.0160828
0.13156
0.00126198
0.00588348
0.00326346
0.00122922
0.107684
0.0228697
0.0425284
0.0206137
0.0165263
0.16804
0.0116447
0.116147
0.168944
0.0355683
0.00548807
0.164826
0.0289303
0.0379483
0.0190186
0.00160452
0.0614426
0.122271
0.174886
0.0470877
0.0101408
0.00703142
0.00849496
0.00431202
0.014785
0.0204216
0.0359081
0.143168
0.0299567
0.175885
0.00454103
0.0371414
0.0333631
0.0167218
0.0625706
0.0175696
0.0241221
0.014877
0.0340429
0.0173008
0.00958177
0.0140909
0.0278765
0.0636705
0.00329269
0.00645883
0.0289611
0.0118043
0.0818138
0.0918481
0.0907565
0.0175696
0.00358273
0.0248786
0.163035
0.0219453
0.175433
0.150955
0.00414845
0.0636497
0.0666699
0.00178753
0.090455
0.00635241
0.00443996
0.00987496
0.0112522
0.00146366
0.0147348
0.00287946
0.127616
0.0181814
0.191067
0.0297546
0.0141408
0.133165
0.0188587
0.00206444
0.146056
0.122757
0.00604215
0.00157223
0.0324145
0.0819275
0.00114965
0.00568454
0.0882557
0.00544212
0.00135747
0.0681972
0.16414
0.0782149
0.0598622
0.161016
0.0634314
0.00392523
0.00410404
0.0285121
0.00319564
0.14734
0.0600577
0.00348575
0.04083
0.00574489
0.0102651
0.0232606
0.079121
0.0813653
0.00382149
0.0349104
0.0153014
0.0278075
0.00129413
0.0286165
0.00266825
0.0237962
0.106378
0.0578027
0.00328323
0.0988459
0.0180854
0.0450428
0.0427464
0.00135182
0.0219011
0.0462755
0.190005
0.00148988
0.0656634
0.0168004
0.0233201
0.0635107
0.00302585
0.0102124
0.0873198
0.0323094
0.0239188
0.129438
0.0933991
0.0692936
0.00125899
0.0786003
0.143994
0.0120247
0.0064453
0.00841619
0.172137
0.014534
0.00157875
0.0160564
0.0580787
0.0637577
0.00576098
0.0305295
0.107547
0.0131551
0.0573516
0.0723329
0.0222854
0.0819643
0.00714965
0.0478752
0.0940362
0.00125323
0.108464
0.0384167
0.115868
0.0304833
0.0135515
0.0928032
0.0520094
0.00321564
0.0323553
0.00524829
0.0278081
0.2143
0.174346
0.00546152
0.0455647
0.0559507
0.17028
0.0358112
0.0131827
0.00647396
0.0624791
0.00903175
0.00178281
0.017394
0.171419
0.0633303
0.042426
0.147712
0.0624278
0.00197662
0.00126796
0.138642
0.0138703
0.0187062
0.0197371
0.0327829
0.148206
0.00760871
0.00493502
0.0023675
0.0842111
0.0405519
0.0464477
0.0883887
0.00176124
0.0121495
0.025306
0.0482977
0.140233
0.0452462
0.00728529
0.0205289
0.120349
0.00117515
0.00164864
0.00218205
0.00737085
0.0938693
0.0423395
0.0200209
0.0102432
0.00229806
0.00203934
0.0176983
0.0164938
0.152357
0.0261626
0.0302759
0.144758
0.00141773
0.121092
0.0649154
0.0146436
0.153213
0.00937583
0.0283598
0.00822655
0.0135518
0.135178
0.0265649
0.0190974
0.0150748
0.00768247
0.00444421
0.178741
0.0220381
0.0281413
0.0475197
0.144377
0.0292642
0.0865652
0.0165935
0.00789579
0.00774838
0.117546
0.0241353
0.159977
0.0505364
0.0030722
0.135161
0.024073
0.00633877
0.0795087
0.00813388
0.0182699
0.084283
0.00174747
0.0148276
0.140365
0.00401477
0.0318652
0.166653
0.0406798
0.0659176
0.168527
0.017305
0.0329628
0.00161126
0.0259587
0.0655576
0.034205
0.0121295
0.01377
0.069551
0.0230033
0.037791
0.0174835
0.04539
0.0135643
0.0633074
0.0253139
0.0872687
0.0925398
0.00221407
0.0732052
0.00414308
0.0672749
0.0298136
0.11735
0.0171032
0.12442
0.0126671
0.0403549
0.00360736
0.14587
0.00790133
0.0603135
0.0189143
0.167614
0.0413806
0.090872
0.0174311
0.0772225
0.0030661
0.00180924
0.0115279
0.0191965
0.00886978
0.0653521
0.00832436
0.0144357
0.124191
0.0123578
0.00431688
0.00246125
0.0194669
0.00248696
0.0185772
0.0313246
0.151618
0.0239482
0.0146662
0.0184254
0.119481
0.0259061
0.00578379
0.169082
0.0448614
0.0237002
0.00261521
0.0207786
0.016008
0.0203721
0.125542
0.00731782
0.109211
0.082689
0.0249872
0.047189
0.00138982
0.0118053
0.00249469
0.153603
0.00219801
0.00174827
0.0049383
0.0180316
0.010789
0.00656944
0.00833073
0.0372545
0.0426156
0.0113504
0.0012475
0.0561432
0.0116324
0.00394963
0.0434345
0.0868442
0.0408916
0.024365
0.0791777
0.0342331
0.00509351
0.00255582
0.0408332
0.118822
0.00154403
0.0061755
0.056942
0.0591362
0.160851
0.0595479
0.00250148
0.0123504
0.0024389
0.0259987
0.0842347
0.0507463
0.0253972
0.0959159
0.0161122
0.0234609
0.00204412
0.095053
0.130341
0.00976754
0.0565001
0.0186275
0.00506847
0.030937
0.00140977
0.00226906
0.0316342
0.0603434
0.00429272
0.00149267
0.0101052
0.0307199
0.00576719
0.00277171
0.014823
0.0394137
0.16273
0.1484
0.00310544
0.0194057
0.00428499
0.170934
0.000945817
0.00349972
0.0635193
0.077912
0.00341104
0.0890637
0.089576
0.0175023
0.00168817
0.00261502
0.00262172
0.0381993
0.00998589
0.00959374
0.121353
0.125241
0.130524
0.00332794
0.163713
0.0635238
0.0110484
0.0348541
0.00821095
0.137188
0.100392
0.137829
0.121292
0.00731577
0.146354
0.0483579
0.0113512
0.00612676
0.00204357
0.159817
0.00558328
0.00626104
0.00446852
0.0234155
0.00125847
0.00139581
0.0479824
0.114953
0.0258427
0.0210271
0.00344364
0.0218374
0.141049
0.157136
0.00575912
0.00933445
0.0392047
0.152558
0.052059
0.0100581
0.101291
0.161318
0.0179146
0.0255597
0.136778
0.0560665
0.00191378
0.0460058
0.025409
0.0806418
0.0320047
0.00474278
0.143528
0.0232629
0.0945093
0.0215481
0.00240362
0.175832
0.00256938
0.0186117
0.00312201
0.128084
0.0236366
0.0177534
0.00513092
0.00574327
0.0220661
0.00196711
0.00853936
0.0255636
0.16254
0.00522179
0.0977804
0.163481
0.0703287
0.164294
0.0119961
0.16345
0.165912
0.00463309
0.0149648
0.139323
0.0106994
0.0308857
0.00278974
0.0286894
0.00192078
0.0583389
0.0140311
0.00959458
0.00366814
0.0244823
0.00167042
0.170619
0.0212346
0.153537
0.0336824
0.0429446
0.00725941
0.00696216
0.0196622
0.000956441
0.151742
0.0013883
0.0272428
0.0580372
0.0117846
0.0139442
0.00274984
0.0760231
0.0115799
0.00662888
0.0218374
0.00594254
0.173056
0.100647
0.176842
0.00289592
0.103353
0.0935036
0.0762079
0.122118
0.0834994
0.0789832
0.0326938
0.0618145
0.112223
0.0278425
0.0170556
0.011976
0.0771288
0.00361373
0.0411537
0.00231678
0.00962261
0.0016497
0.0114226
0.0278564
0.00130413
0.0131394
0.00198533
0.00583792
0.0106982
0.148838
0.089805
0.0227888
0.00417814
0.0380996
0.00180166
0.0399517
0.00188238
0.00823728
0.0213019
0.0288057
0.00175195
0.00129614
0.0230103
0.0655719
0.132162
0.023313
0.104206
0.124503
0.00801826
0.0150917
0.103482
0.0491774
0.0285154
0.00277464
0.0189366
0.128603
0.0200245
0.00930024
0.0285662
0.102801
0.00175994
0.0334999
0.0388041
0.00150736
0.0199304
0.0439679
0.0013736
0.00995526
0.00178276
0.0483404
0.0229454
0.00443931
0.0728406
0.0406744
0.164351
0.0218594
0.0953405
0.121254
0.034104
0.00635883
0.00267249
0.0810773
0.0404035
0.0998277
0.0415515
0.0253836
0.112761
0.00585722
0.0154683
0.0397718
0.0611108
0.0801365
0.119356
0.0241597
0.00189267
0.0190087
0.0748531
0.0637104
0.00626803
0.00368264
0.0800127
0.119407
0.0739616
0.0804366
0.00246146
0.0196279
0.168532
0.128041
0.0117841
0.00446639
0.120945
0.190622
0.0175012
0.0352391
0.0194856
0.0195433
0.00742036
0.0108724
0.0936851
0.0166377
0.00249747
0.012287
0.00779962
0.0192817
0.00453792
0.163828
0.0389864
0.0226309
0.0137825
0.0433865
0.0482182
0.145475
0.0297196
0.00389068
0.00453689
0.0118026
0.0294536
0.146831
0.0132958
0.0424887
0.0292535
0.00690414
0.0202974
0.0374269
0.0668036
0.00242408
0.00339861
0.135779
0.0319703
0.00779378
0.048422
0.102863
0.0559323
0.0105485
0.0204195
0.0154407
0.00103828
0.0305369
0.124439
0.00670881
0.108219
0.00324541
0.160333
0.0231635
0.00820891
0.0350688
0.119595
0.0400237
0.0257909
0.00210006
0.0556318
0.147564
0.00259436
0.0107892
0.00718575
0.00190424
0.00895314
0.162685
0.00408113
0.046015
0.00305018
0.131004
0.0366245
0.176153
0.00140533
0.0934874
0.022769
0.11724
0.0168476
0.00626417
0.0158375
0.00946268
0.0348894
0.147494
0.0107703
0.0148068
0.0858375
0.016882
0.0529503
0.00536715
0.00166348
0.0888847
0.0188615
0.140329
0.0109025
0.127965
0.000902848
0.0676933
0.0450617
0.137095
0.0262752
0.023398
0.153056
0.054138
0.0404863
0.00576052
0.00816561
0.0422219
0.0228379
0.0234096
0.00889632
0.0440732
0.0137018
0.0266611
0.0404802
0.0197223
0.0187391
0.11503
0.117808
0.0148844
0.0522688
0.00456713
0.0241644
0.00407115
0.0309767
0.0965222
0.0466015
0.0175423
0.010333
0.0795925
0.023106
0.00989867
0.0171708
0.0814184
0.0149223
0.172671
0.00109195
0.00274341
0.0185763
0.00143711
0.0189863
0.0154339
0.00893422
0.00978179
0.0184048
0.00137074
0.0205015
0.00894306
0.0341911
0.0258338
0.046533
0.0438963
0.0128883
0.0565771
0.00235229
0.0355235
0.0336914
0.00509436
0.0601647
0.0138217
0.0228473
0.0173962
0.0349537
0.00692182
0.0163466
0.114695
0.0153348
0.00185496
0.00724078
0.0510678
0.0209878
0.121324
0.0456176
0.00321899
0.0741718
0.10339
0.0112345
0.0367956
0.0198991
0.055039
0.08968
0.0077167
0.0455224
0.0620679
0.0149492
0.048763
0.0676615
0.115295
0.00261956
0.0309569
0.123908
0.0789208
0.0093984
0.0251026
0.02024
0.0448859
0.0101345
0.0269031
0.0427538
0.0270463
0.0886486
0.0991332
0.00395872
0.010146
0.0147432
0.0194196
0.0103427
0.00895115
0.0128542
0.0125096
0.021663
0.00402343
0.0454483
0.0372686
0.125279
0.175416
0.0110752
0.146557
0.00291594
0.00120828
0.00445349
0.0999393
0.0153144
0.00993536
0.0893279
0.00443497
0.00697204
0.00219649
0.0140282
0.00165634
0.00911784
0.0059042
0.00286724
0.0146495
0.0327382
0.0111504
0.0589771
0.00261836
0.0247995
0.0111481
0.0639279
0.016851
0.094138
0.0014823
0.00278912
0.150486
0.00142973
0.00248455
0.0118172
0.0112898
0.00738338
0.0771754
0.00172796
0.0395685
0.00442852
0.00102305
0.149559
0.0349531
0.120601
0.0234931
0.0253073
0.00976895
0.00659465
0.144464
0.0772154
0.016813
0.0297411
0.11717
0.0160036
0.0593814
0.094663
0.0152847
0.00815475
0.0898367
0.00597555
0.0335537
0.161804
0.0186499
0.00409524
0.0459246
0.0767505
0.00622549
0.00452976
0.0480905
0.015074
0.00370414
0.0104185
0.00144908
0.0709904
0.00898985
0.00210504
0.00246737
0.115994
0.0349352
0.0140971
0.0147872
0.00740889
0.0259964
0.0018332
0.0114077
0.00422168
0.034728
0.122157
0.00125738
0.014115
0.116519
0.148953
0.00184466
0.0494663
0.0520381
0.0520459
0.0249255
0.143677
0.0114774
0.0313244
0.0225286
0.0905946
0.0161302
0.00176261
0.00565339
0.0124044
0.00159535
0.00773627
0.080376
0.044379
0.0461302
0.127647
0.00636076
0.0120849
0.0410414
0.0388354
0.0652596
0.113601
0.00956866
0.0958662
0.00676582
0.0216764
0.131684
0.0028148
0.00132547
0.128089
0.00371518
0.00981351
0.0126496
0.152109
0.0787166
0.00173207
0.00846295
0.113036
0.065427
0.0477512
0.0137347
0.171099
0.0101204
0.0940581
0.0950085
0.0357894
0.00384826
0.00177546
0.085496
0.0298948
0.0040746
0.00163135
0.0164703
0.0070954
0.00204341
0.055801
0.143273
0.0307454
0.0244271
0.00310614
0.0792567
0.169595
0.00412243
0.00570365
0.130528
0.0623012
0.00467359
0.174375
0.0952042
0.00575127
0.00934384
0.00170291
0.124193
0.0152442
0.00780049
0.012675
0.0159019
0.0151721
0.075073
0.140647
0.0041364
0.0162608
0.0827675
0.0183688
0.00144016
0.0907693
0.0586549
0.0889431
0.00460782
0.0867794
0.0997009
0.110847
0.0762413
0.00214864
0.00231434
0.0290998
0.00458946
0.0017027
0.0019244
0.0665445
0.0384696
0.0799984
0.0527446
0.104486
0.100494
0.107506
0.110392
0.10139
0.0175648
0.00120414
0.0101649
0.0103769
0.0177097
0.105256
0.0223884
0.0120437
0.0335967
0.0616339
0.00940451
0.0119413
0.00350715
0.0135242
0.0817252
0.00215
0.024215
0.0895203
0.0425447
0.00443963
0.0106951
0.0314129
0.0115587
0.0928883
0.107104
0.00927159
0.0138528
0.0217352
0.00442193
0.111008
0.132236
0.00224206
0.0103123
0.0181736
0.00650982
0.0269071
0.00596427
0.0049239
0.00678199
0.0013475
0.0503678
0.0544123
0.103996
0.0839565
0.0996554
0.0250685
0.0127187
0.0196428
0.00200714
0.107448
0.00375565
0.00324833
0.0269962
0.00243238
0.0361332
0.00558833
0.00121438
0.10337
0.00538905
0.0718739
0.00186236
0.1504
0.00646113
0.0627738
0.00394954
0.016377
0.00126792
0.0872795
0.00681971
0.0630594
0.0265369
0.00720519
0.0879106
0.00115326
0.00176337
0.0102995
0.00318228
0.00896724
0.00180555
0.0103916
0.0598261
0.00739024
0.0111289
0.00784184
0.101865
0.130224
0.0235545
0.00939903
0.0397369
0.0354689
0.0287111
0.00193402
0.00557783
0.0363533
0.00289569
0.00547502
0.0836005
0.00975584
0.0138344
0.00656125
0.0136515
0.0393295
0.00235644
0.0968993
0.105007
0.128882
0.00669578
0.00914884
0.0350448
0.0144569
0.104271
0.158636
0.112781
0.00196515
0.152151
0.114653
0.00814164
0.00626047
0.0220613
0.037842
0.00215527
0.0112138
0.0203466
0.0390051
0.00655733
0.025713
0.0192923
0.0188725
0.00463048
0.00845652
0.0101376
0.082081
0.0207503
0.018432
0.0199814
0.0182113
0.00238269
0.159147
0.00874575
0.0656938
0.128838
0.0229465
0.0068617
0.0244043
0.0222938
0.118348
0.00743965
0.0098344
0.0123951
0.0141348
0.164011
0.127118
0.0125879
0.0135061
0.0847998
0.0102229
0.112884
0.0673415
0.00142715
0.0522545
0.0018262
0.0433078
0.0129213
0.0101173
0.0372053
0.0183511
0.0158223
0.00741305
0.0415527
0.0138131
0.0299177
0.151521
0.0454359
0.00168506
0.00613552
0.0427918
0.0416597
0.0665631
0.0522391
0.00632544
0.00665962
0.0405896
0.00156412
0.0796839
0.115664
0.0756538
0.00689144
0.0257337
0.0235886
0.0611819
0.0377701
0.0319564
0.183306
0.172932
0.0131144
0.00176
0.0572507
0.0372907
0.0077472
0.00886409
0.0691197
0.00437804
0.0101751
0.0567607
0.0492292
0.0377219
0.00834981
0.0561433
0.0131858
0.0142833
0.0248537
0.0575937
0.0110633
0.0862783
0.00337367
0.0135935
0.0191125
0.00802512
0.00484443
0.111503
0.0610503
0.00103354
0.00484082
0.00970864
0.0284905
0.0122608
0.0722133
0.00207338
0.0137621
0.053426
0.00187282
0.0109825
0.0210039
0.0103661
0.011429
0.0458226
0.00303521
0.0304945
0.0188667
0.014413
0.028935
0.116352
0.00771441
0.0720433
0.112238
0.0773759
0.00183955
0.0447772
0.145058
0.0534507
0.0717881
0.0404153
0.146855
0.0133545
0.00679752
0.024574
0.140208
0.00229701
0.0285065
0.142808
0.0408042
0.0544171
0.0963309
0.124993
0.0196014
0.0096621
0.133867
0.0137667
0.00639372
0.0553799
0.0133938
0.00244614
0.0265334
0.125669
0.094284
0.00448867
0.133375
0.149857
0.0190833
0.0165738
0.00440321
0.00130887
0.102973
0.124212
0.0760145
0.00494165
0.160889
0.0584117
0.0116692
0.00479416
0.0301888
0.0118938
0.109952
0.00601404
0.0102066
0.0279073
0.00370304
0.0131808
0.00150106
0.132588
0.0704728
0.00200852
0.00378419
0.0197883
0.011267
0.00423293
0.00177794
0.00685931
0.00233588
0.0126822
0.0220918
0.00149366
0.0143715
0.0128054
0.0186461
0.00521753
0.00142322
0.162751
0.0307096
0.0778748
0.00367082
0.0897588
0.0011376
0.0146385
0.00192615
0.0227627
0.00387489
0.00461177
0.122354
0.0299822
0.00460167
0.0134495
0.0977692
0.0274396
0.00496537
0.0073647
0.00663239
0.00987809
0.00157215
0.00438901
0.133298
0.149629
0.00360563
0.00461732
0.0260948
0.0093569
0.00196287
0.0355459
0.0237757
0.0785913
0.0122551
0.124117
0.109507
0.00810584
0.0317008
0.155425
0.00136376
0.00155255
0.12429
0.0139642
0.018157
0.00360511
0.0074406
0.0284091
0.108193
0.00469299
0.00177833
0.0613637
0.0171979
0.032809
0.00672012
0.0583948
0.0136509
0.00684758
0.00744499
0.15749
0.00350515
0.00649861
0.0100441
0.0148149
0.118826
0.00204177
0.0584339
0.0203565
0.0339465
0.0177942
0.0763686
0.0543007
0.0331941
0.00888583
0.0607162
0.12493
0.0473721
0.0427645
0.0647456
0.033957
0.00821484
0.00306196
0.00558578
0.0154362
0.0870245
0.00910866
0.0233511
0.00197879
0.159677
0.00270688
0.129736
0.0725508
0.0306897
0.0142788
0.00623784
0.0630029
0.00131618
0.0317124
0.0787062
0.0244817
0.00366003
0.0194179
0.00669774
0.00186306
0.172818
0.0288176
0.00108032
0.0527394
0.00231466
0.0927418
0.0163292
0.00152664
0.0309782
0.111101
0.123646
0.00116959
0.0193354
0.0639776
0.00223546
0.0790762
0.0281605
0.00774633
0.00173334
0.00352494
0.00184954
0.00318139
0.00482938
0.021032
0.00262667
0.00499476
0.0456883
0.0480134
0.0216237
0.0202006
0.00445299
0.0816318
0.0157952
0.090489
0.0808284
0.00330806
0.148092
0.00159392
0.077585
0.0196416
0.0143664
0.112026
0.0680037
0.00171601
0.00185326
0.00679827
0.112512
0.0218352
0.0193604
0.0794497
0.0151555
0.00762513
0.0163641
0.155769
0.00158667
0.00170837
0.129664
0.141344
0.112961
0.145204
0.0295425
0.021595
0.00181307
0.140975
0.0611162
0.0186485
0.00165222
0.076417
0.0038452
0.0670506
0.00500891
0.00944347
0.00279849
0.0167901
0.00587325
0.00562489
0.0816966
0.091286
0.00444928
0.012993
0.104418
0.00327591
0.0598739
0.097442
0.0881059
0.0115652
0.00268867
0.00322317
0.00342648
0.0177863
0.013594
0.0446591
0.00172865
0.0112922
0.022163
0.059685
0.0511438
0.0139806
0.00222414
0.0107803
0.00234244
0.0284097
0.0660403
0.00155743
0.0391426
0.00188843
0.00261092
0.158719
0.0137012
0.0102163
0.0135768
0.0100228
0.0493605
0.00161607
0.0191048
0.00335015
0.00125294
0.00299554
0.0183767
0.0221004
0.117184
0.00458438
0.00190889
0.0325067
0.0233818
0.00173135
0.00616373
0.00550723
0.184789
0.0106335
0.00133627
0.00413935
0.0371178
0.018897
0.0896342
0.00325409
0.00826483
0.0130639
0.00299093
0.00146732
0.0770766
0.00568948
0.112453
0.00356434
0.0039335
0.0214317
0.0210531
0.00332141
0.120917
0.0124005
0.00113127
0.00198257
0.0232624
0.124086
0.0900552
0.00438178
0.00314107
0.00451216
0.00179989
0.0147316
0.00968039
0.148818
0.00161631
0.00904096
0.0139257
0.00332078
0.00115674
0.00152416
0.00144636
0.0016409
0.00137657
0.00153573
0.0321205
0.0108149
0.0128713
0.0536626
0.00170029
0.00334081
0.125027
0.00420219
0.116057
0.0677815
0.0984215
0.0109588
0.0744579
0.00154582
0.00524816
0.0107779
0.0547953
0.0034009
0.00677608
0.00390533
0.00140686
0.0303953
0.0190899
0.00977567
0.00490826
0.0592429
0.0489348
0.0883876
0.00141254
0.0815546
0.028957
0.0140418
0.0249615
0.00210567
0.118236
0.00186403
0.0587695
0.104602
0.0379725
0.0367607
0.0199709
0.0215818
0.00189776
0.00981154
0.0164323
0.00287157
0.0495293
0.00203404
0.0617225
0.00194533
0.0138581
0.00178585
0.00906566
0.0370345
0.146853
0.00343371
0.0422256
0.0180708
0.118608
0.0175214
0.00199629
0.147235
0.0831091
0.0544274
0.134355
0.0028093
0.00247379
0.0467468
0.115075
0.00154522
0.00229033
0.063696
0.00863868
0.141458
0.00213958
0.00180238
0.013431
0.00383046
0.00137056
0.00437369
0.00128797
0.0142306
0.0428959
0.0856888
0.0871841
0.00206247
0.0025498
0.0245459
0.0121326
0.00147882
0.0604189
0.00122188
0.0429449
0.0448157
0.066454
0.00312587
0.0142521
0.0553648
0.00140722
0.165689
0.00478117
0.00637784
0.0562375
0.0973739
0.00677701
0.056658
0.154091
0.101504
0.00633448
0.010077
0.122219
0.13212
0.00999613
0.0390885
0.00874271
0.0807041
0.00181463
0.11706
0.00469028
0.154983
0.00162069
0.00443734
0.0139677
0.0135581
0.0105285
0.0936793
0.00516226
0.00174566
0.0537204
0.00783614
0.0790279
0.00353266
0.0708996
0.00200356
0.0108858
0.00375765
0.00146146
0.00176411
0.00803421
0.031755
0.00305158
0.122043
0.00202521
0.0148949
0.00314142
0.052456
0.0101235
0.0088646
0.0122928
0.0311317
0.0433191
0.14956
0.00136829
0.0081848
0.00134894
0.00350102
0.0124418
0.0767428
0.00668994
0.00259273
0.00977651
0.0290745
0.0997519
0.00291807
0.00320902
0.00253008
0.00116647
0.0127853
0.0315938
0.0783305
0.0109647
0.00911669
0.00334572
0.0832371
0.0941096
0.000869141
0.00982796
0.161612
0.0126395
0.00321484
0.00762771
0.0550747
0.00692754
0.00346169
0.00286285
0.00561658
0.00623726
0.0442135
0.161221
0.134255
0.165988
0.0395697
0.0970666
0.0102879
0.00211382
0.0124674
0.0195062
0.0155621
0.118488
0.0139483
0.0313979
0.0103546
0.00993876
0.0496484
0.0144601
0.0404342
0.112386
0.0330177
0.105882
0.00340498
0.0785138
0.00380538
0.00355267
0.00339484
0.00190076
0.00141049
0.145419
0.153287
0.0771227
0.00277122
0.0508504
0.0967601
0.124055
0.0055258
0.0115429
0.010753
0.00384125
0.0210277
0.0774396
0.0134507
0.0759558
0.00705987
0.149758
0.0106548
0.0540212
0.0338675
0.0238199
0.0187
0.0251263
0.00361956
0.0141211
0.00434396
0.0103022
0.00891985
0.00995066
0.00689334
0.0496364
0.00131638
0.0160662
0.0139306
0.0356887
0.0282064
0.00399409
0.0726047
0.00603631
0.000906092
0.0108618
0.00239859
0.00599421
0.00567033
0.00590318
0.00526954
0.060327
0.0150863
0.0987505
0.00541319
0.00726735
0.00288012
0.0738204
0.00836244
0.0133076
0.00188069
0.00699565
0.0107631
0.105711
0.0103524
0.0795463
0.00888053
0.0244872
0.00288831
0.0626958
0.0137641
0.112093
0.0101245
0.00978903
0.012783
0.00316844
0.0810326
0.0198391
0.00549399
0.0872081
0.00512417
0.00211504
0.00715063
0.0180067
0.00955975
0.0477289
0.0566369
0.00292424
0.00406723
0.05281
0.031685
0.0158774
0.043869
0.00366901
0.044589
0.00195822
0.00595646
0.00671943
0.0106581
0.017883
0.0797092
0.0450958
0.00508065
0.00410503
0.0130804
0.00152912
0.134145
0.0163597
0.0125496
0.00309092
0.0777405
0.00750095
0.123528
0.0019379
0.0926695
0.0819558
0.00936223
0.125906
0.0327419
0.00597512
0.0316987
0.0275286
0.0407982
0.00948914
0.012362
0.00296641
0.0713786
0.0311481
0.114039
0.00656317
0.0708779
0.011957
0.0116306
0.00424551
0.00294809
0.00183485
0.00208971
0.00362519
0.0103313
0.00516127
0.0126698
0.144079
0.0972744
0.00167015
0.00572595
0.115384
0.0799943
0.109964
0.0200371
0.0055765
0.131322
0.00955154
0.00756318
0.00688426
0.0049162
0.0791732
0.160569
0.0051209
0.021853
0.0628762
0.0063981
0.00428871
0.0574241
0.0709643
0.0141548
0.0905569
0.00809217
0.160596
0.0128815
0.150753
0.00332225
0.0389819
0.00130421
0.0134798
0.0370107
0.0118149
0.0780687
0.0460314
0.145297
0.0146211
0.00351953
0.0467119
0.00546762
0.154525
0.149276
0.00376631
0.0510427
0.134183
0.0964353
0.15412
0.0374013
0.083477
0.119772
0.00481092
0.0923047
0.0529611
0.00572123
0.0712659
0.0676211
0.130706
0.0348934
0.00263305
0.00235076
0.0379765
0.0329046
0.0369105
0.148499
0.0105951
0.108919
0.118213
0.00123104
0.0824327
0.0108586
0.0143733
0.00617282
0.042353
0.00617245
0.0386804
0.0059658
0.00500792
0.0391679
0.0033198
0.00182884
0.0119307
0.00362085
0.0485323
0.0467849
0.00699267
0.00676539
0.0566867
0.111939
0.0216049
0.0105891
0.110193
0.0100789
0.116436
0.00963287
0.00483335
0.0100452
0.00927673
0.0465087
0.0290345
0.157733
0.150643
0.0748474
0.0442469
0.0232251
0.157913
0.00521778
0.0276064
0.0144333
0.0500356
0.00195813
0.167427
0.080136
0.0064287
0.150372
0.00605235
0.0142169
0.0103652
0.0513809
0.0239117
0.0402042
0.00914407
0.0321173
0.00581007
0.0193705
0.0303479
0.0608595
0.0134147
0.00347134
0.0112773
0.00746213
0.00651144
0.0140243
0.00951891
0.0950414
0.00185237
0.0407396
0.023955
0.0235096
0.00837732
0.0387824
0.0100903
0.0120181
0.0194725
0.136573
0.0133232
0.149938
0.010267
0.0826729
0.126312
0.0404111
0.0146785
0.00478231
0.0389251
0.00144548
0.00378184
0.100494
0.00318463
0.00746231
0.0467131
0.0251316
0.0146375
0.0591486
0.0446198
0.00322989
0.154772
0.00194493
0.014124
0.0175034
0.0239757
0.0311984
0.0404639
0.0452005
0.00520886
0.0264266
0.110026
0.0400236
0.0392888
0.00123462
0.0102739
0.147605
0.0119554
0.00676525
0.00480451
0.0675327
0.0368156
0.0398379
0.0191566
0.0223278
0.0282428
0.0184127
0.0065598
0.0479046
0.0260634
0.0113935
0.0190267
0.0157931
0.00493761
0.0461069
0.154927
0.0159891
0.0110582
0.0150658
0.00142417
0.00299984
0.00689883
0.00497147
0.0496414
0.0247117
0.118645
0.124161
0.00608917
0.0370981
0.010538
0.0188078
0.0223735
0.0188219
0.00355877
0.0816547
0.115037
0.0164513
0.0746375
0.0865083
0.048182
0.0401839
0.00994969
0.0545636
0.0323639
0.0530553
0.00674773
0.142247
0.00309511
0.0508515
0.026441
0.11294
0.140984
0.0251747
0.0376117
0.0102139
0.0208515
0.0635923
0.0148238
0.0445497
0.149208
0.0377876
0.00934546
0.0301326
0.075677
0.0790665
0.0809213
0.0173453
0.0714031
0.0685037
0.00988543
0.0874108
0.0394135
0.021562
0.00664244
0.0108389
0.0320889
0.0110947
0.00221524
0.00957892
0.00687749
0.0205433
0.0260771
0.0186453
0.0155053
0.0318108
0.0110089
0.0388341
0.119889
0.0144891
0.0997385
0.00829941
0.00788686
0.00877195
0.0235404
0.0382588
0.0148345
0.0140449
0.0187671
0.0212051
0.0266802
0.00715438
0.00453048
0.014266
0.0410934
0.0283583
0.00188276
0.0218681
0.154365
0.00154167
0.0031777
0.0395089
0.0296327
0.025747
0.00717154
0.00208744
0.0640882
0.00497608
0.00461774
0.00903562
0.0089363
0.0571512
0.0196017
0.0284486
0.00960757
0.133917
0.0110025
0.0243638
0.00724817
0.121326
0.0848989
0.00423546
0.023452
0.0198837
0.0297171
0.126257
0.0110279
0.0015442
0.0153782
0.0853183
0.00661082
0.015451
0.0306411
0.0380488
0.0566015
0.0191655
0.0489066
0.00706258
0.0512035
0.0199193
0.0163951
0.0139894
0.0146887
0.0455011
0.015051
0.0194413
0.0486604
0.0129034
0.0505441
0.0283844
0.0743936
0.159427
0.00180262
0.0120336
0.0310547
0.001498
0.0264981
0.0613088
0.00346594
0.0137704
0.00141121
0.0396508
0.0247208
0.0672211
0.0278501
0.0235025
0.00142751
0.0290834
0.00950814
0.0466306
0.0408427
0.0273386
0.0380164
0.0081948
0.00185762
0.00353439
0.0774387
0.0828456
0.00503848
0.02859
0.0330335
0.0146435
0.018352
0.0037618
0.00518905
0.026117
0.00532698
0.0148301
0.0264109
0.0523795
0.033027
0.0107881
0.00149154
0.165347
0.0197501
0.026992
0.095387
0.0702817
0.0386508
0.00178689
0.0129458
0.0572468
0.022187
0.104315
0.014872
0.0906294
0.0251876
0.038488
0.025746
0.00413272
0.0357171
0.129169
0.00966065
0.0733327
0.0718275
0.00432828
0.0618737
0.00167843
0.00109751
0.00181044
0.0145913
0.0307484
0.0941674
0.142973
0.0939856
0.0195071
0.0101561
0.0117636
0.00429846
0.00877904
0.0190541
0.0697659
0.0258878
0.0260808
0.141135
0.0309162
0.0729788
0.0048858
0.0260956
0.0018481
0.0312901
0.0247776
0.161369
0.0349265
0.00299978
0.00359815
0.0110233
0.0870226
0.011588
0.0258875
0.0759338
0.0147826
0.0978889
0.0240033
0.00184772
0.0636144
0.0440064
0.0442797
0.00183161
0.00150106
0.0593436
0.0263206
0.0305818
0.0313119
0.0583432
0.0389231
0.13157
0.0345086
0.0512172
0.126814
0.0273342
0.00162424
0.00886671
0.0649877
0.0607844
0.0304512
0.0336336
0.111982
0.0149858
0.0123645
0.00185426
0.0197387
0.0295581
0.0386466
0.0724266
0.0100567
0.0770594
0.152967
0.0179377
0.0145799
0.013056
0.00210052
0.160984
0.0174191
0.0284215
0.0264574
0.101357
0.065523
0.0254683
0.00836814
0.0139548
0.0537711
0.0131343
0.00791396
0.144909
0.0169943
0.0107855
0.00193702
0.151781
0.0200159
0.029357
0.0760561
0.00964615
0.0766015
0.067696
0.0194664
0.0100449
0.0112426
0.0497667
0.0338092
0.00134017
0.00137481
0.0663934
0.00303375
0.00671022
0.0835315
0.0645798
0.0538509
0.0317049
0.135391
0.074772
0.0143047
0.00186099
0.0414152
0.0805709
0.0760516
0.116861
0.0598058
0.0494711
0.0767289
0.00124794
0.0357618
0.0106282
0.0305671
0.0515552
0.0255964
0.0470783
0.114106
0.0176165
0.117996
0.0286955
0.00536061
0.0571694
0.0219764
0.146915
0.0454945