/*--------------------------------*- C++ -*----------------------------------*\
| =========                 |                                                 |
| \\      /  F ield         | OpenFOAM: The Open Source CFD Toolbox           |
|  \\    /   O peration     | Version:  v2012                                 |
|   \\  /    A nd           | Website:  www.openfoam.com                      |
|    \\/     M anipulation  |                                                 |
\*---------------------------------------------------------------------------*/
FoamFile
{
    version     2.0;
    format      ascii;
    class       volVectorField;
    location    "750";
    object      ddtCorrDdt0(U);
}
// * * * * * * * * * * * * * * * * * * * * * * * * * * * * * * * * * * * * * //

dimensions      [0 1 -2 0 0 0 0];


internalField   nonuniform List<vector> 
10042
(
(0.0222503 0.00398504 -1.93537e-19)
(-0.0289908 0.234628 -1.51822e-17)
(-0.0097353 0.0319909 -1.72656e-18)
(-0.000102923 -6.01417e-05 4.87183e-19)
(-0.000144474 -1.32956e-05 1.1283e-19)
(0.045541 0.0174815 5.8384e-19)
(-0.185061 -0.162801 3.24276e-18)
(-0.0158259 -0.00209833 4.21711e-18)
(-0.000341944 -0.000173487 -6.07835e-19)
(0.029151 -0.0136824 -2.14754e-18)
(0.00313365 0.0407385 -5.37281e-19)
(-0.0326634 0.244891 -2.10734e-18)
(-0.0184269 -0.0109481 -1.97914e-18)
(-0.00141164 -0.00113618 3.56728e-19)
(-0.00111672 -0.000416941 -1.03373e-18)
(-0.00127527 -0.00134288 -5.05226e-19)
(0.0454191 -0.00795396 2.75008e-18)
(0.00927127 0.0413492 -5.99505e-19)
(-0.00605112 -0.00236436 7.69379e-19)
(0.00724757 0.00870875 5.69123e-19)
(-0.0175905 -0.012778 2.10075e-18)
(0.0204229 0.00589886 3.54548e-19)
(-9.76577e-05 -4.88054e-05 -6.9595e-19)
(-0.0184615 -0.138546 -6.57459e-18)
(-0.000391302 -2.635e-05 -1.13919e-20)
(4.91269e-05 1.07261e-05 2.15485e-20)
(0.027078 -0.0122491 8.78803e-20)
(-5.93854e-05 -0.000150913 4.04552e-19)
(0.0427634 0.00803726 2.00401e-18)
(-0.0259547 -0.0439104 -4.11789e-18)
(-8.73197e-05 -1.04748e-07 -3.66385e-19)
(-0.023265 0.00829217 1.44241e-18)
(-0.000249491 -0.000206584 2.11327e-19)
(-0.000211675 -0.00019453 -3.22026e-19)
(-0.025687 0.00509532 -4.85291e-18)
(-0.00365768 0.0184454 5.44827e-19)
(-0.000263174 -1.72933e-05 3.24218e-19)
(-5.54214e-05 1.75857e-05 -5.43475e-20)
(-8.08646e-05 -1.83718e-06 -3.038e-20)
(0.00230456 -0.0015202 3.02286e-20)
(-0.0284995 -0.0776378 -4.43853e-18)
(-0.000290061 -0.000163833 5.65597e-19)
(-0.0895556 -0.0220104 -3.36742e-18)
(0.0431439 0.174431 -2.09448e-19)
(-0.000136637 7.75153e-05 -1.21487e-19)
(-0.00041288 -3.53516e-05 7.54598e-20)
(0.000218476 -1.71494e-05 2.93337e-19)
(-0.00100679 -0.000400794 4.64416e-19)
(0.0154935 -0.0403643 3.68806e-19)
(-0.0994897 0.0330031 2.42627e-18)
(-0.0957931 -0.0188398 3.73928e-18)
(-0.000143963 2.07652e-05 -2.4144e-19)
(0.0484423 -0.000573633 -3.24239e-18)
(-0.0054683 -0.00242939 2.37518e-19)
(-0.0289437 -0.0944303 1.52505e-17)
(-0.0881414 0.142196 -3.42146e-18)
(-0.0154996 -0.0125876 -5.54689e-19)
(0.00171883 0.022148 -1.23369e-19)
(6.88472e-05 -0.00149361 2.77671e-18)
(-5.96544e-05 7.63421e-05 -4.23614e-20)
(0.0193856 -0.0379732 2.44761e-18)
(-0.117403 -0.243419 3.2689e-18)
(-0.0818699 -0.0241104 -1.3883e-19)
(-0.0379323 -0.00521226 1.03399e-20)
(-0.0196712 0.00963069 9.24741e-19)
(-0.00113335 -0.00170367 -1.03441e-18)
(0.00483605 0.00893489 9.36788e-20)
(0.0276112 -0.0153583 -2.14022e-20)
(0.000218132 6.01036e-05 1.7132e-19)
(0.0298512 -0.0080062 1.35609e-20)
(-0.0901693 0.0136444 -3.34289e-18)
(0.00413526 0.000172752 8.51317e-19)
(0.000343139 -8.56357e-05 -3.44113e-19)
(-3.40954e-05 -0.00138077 -4.15874e-18)
(-0.000944369 -0.00153497 1.78067e-19)
(-0.0862642 0.00427379 4.18901e-18)
(-0.0042278 0.0210762 -9.45718e-20)
(0.000225553 -2.29978e-06 -3.55073e-19)
(-0.00163251 0.0222828 2.41657e-18)
(-0.00632457 -0.00181793 -2.89046e-18)
(0.0545424 0.169197 -8.22651e-19)
(-0.0207922 -0.104819 5.84532e-18)
(-0.000139515 -5.29289e-07 2.15473e-19)
(-0.00016323 -1.24563e-05 3.21508e-20)
(0.0209481 0.00095403 2.60931e-19)
(0.0441592 -0.0581026 1.91788e-18)
(0.00395664 0.00828142 -3.58614e-19)
(-0.0146486 0.0311515 -6.90854e-19)
(0.000743757 0.000305229 -2.65668e-19)
(-0.013691 0.0169028 -4.92789e-19)
(-0.0120594 -0.006763 2.99211e-18)
(-0.0011889 -0.00033386 -1.15784e-18)
(-0.0768499 -0.0285894 1.09589e-19)
(0.0551852 -0.0561344 -1.75688e-18)
(-0.022927 -0.00126799 3.57273e-19)
(0.000303971 0.000317011 -1.41502e-18)
(0.000177269 0.118846 6.05526e-17)
(0.00607819 0.00818986 -1.69671e-19)
(-0.0455923 0.108769 1.82401e-18)
(-0.000265973 -0.00124158 1.59486e-18)
(-0.0110511 -0.00670825 -2.35313e-19)
(0.0407995 -0.0174173 9.56086e-19)
(0.00184218 -0.00053988 -7.41712e-19)
(-0.0186517 0.00655247 -2.06711e-18)
(-0.00644316 -0.0056072 1.50419e-18)
(0.00106435 -0.000602278 2.22778e-18)
(0.0847178 -0.0774351 -3.91578e-18)
(-0.000962743 -0.00116766 2.23459e-19)
(-0.179125 -0.179422 9.48776e-20)
(0.00116895 -0.000739428 -6.52211e-19)
(0.000187405 -0.00123953 1.16237e-18)
(-0.059727 -0.134835 2.68181e-18)
(0.0388448 -0.0145982 -8.52544e-19)
(-0.0440427 0.000708425 5.22721e-19)
(-0.0197491 0.0070068 -2.92164e-19)
(0.000217725 0.000159815 5.05783e-19)
(0.0113923 -0.0212883 -8.03561e-20)
(-0.000102438 -7.73568e-06 -1.32195e-19)
(-0.00124357 0.0194848 1.33508e-18)
(0.000117933 0.000227926 1.47196e-20)
(-4.46535e-05 7.77577e-05 3.92819e-20)
(-0.0512383 0.108918 2.23043e-18)
(-0.0630252 0.102043 8.10951e-18)
(-0.000136512 9.26329e-05 -1.10628e-18)
(-0.0112779 0.019609 1.24715e-18)
(0.00103683 0.000435057 1.26775e-18)
(0.00122323 0.000392818 2.27545e-20)
(-0.112325 -0.226915 9.95799e-18)
(-0.0802761 0.0275261 -1.43986e-18)
(0.0135903 -0.0200679 5.93426e-20)
(-0.000186971 0.000154543 9.21425e-19)
(-0.000208635 -0.00112696 5.82889e-19)
(0.00162591 0.00128354 1.05554e-18)
(-0.00105435 -0.000377948 -4.63391e-19)
(-0.0290724 -0.126231 -1.49217e-18)
(-0.155843 -0.0254343 3.24833e-18)
(0.000902384 0.0103346 -1.26043e-19)
(0.040283 -0.0807355 -1.22249e-18)
(-0.00224004 -0.00347461 3.65499e-18)
(-0.0374894 0.119295 5.53088e-19)
(-0.0484668 -0.0227235 1.02383e-18)
(-9.26446e-05 -1.99971e-05 1.34338e-18)
(0.115431 -0.0602471 -6.15272e-19)
(-7.05992e-05 -0.000125412 -5.13647e-19)
(0.00300655 -0.0108666 2.33816e-19)
(-4.79289e-05 3.63262e-05 2.96895e-19)
(0.0192689 0.000716138 -2.03942e-19)
(0.000201329 6.97325e-05 2.70251e-19)
(0.002707 0.00225969 1.92535e-19)
(0.0244761 -0.0180254 -1.92051e-18)
(-0.000747703 -0.00105245 -6.48556e-19)
(-8.60758e-05 -1.14554e-05 1.42759e-18)
(-0.00271898 -0.00404043 -2.47655e-18)
(-0.024068 -0.011658 -2.89095e-18)
(-0.0215675 -0.00297319 -4.56488e-19)
(0.00396301 -0.011258 -1.3299e-19)
(-0.0781497 0.0215702 7.49273e-20)
(-0.0890411 0.126595 2.21518e-17)
(0.0018751 0.00102242 -1.66203e-19)
(2.37766e-05 5.31141e-06 -3.68721e-19)
(-0.000147254 -3.21258e-06 -2.37022e-22)
(0.00290043 -0.00147365 -8.48441e-20)
(-0.179737 -0.042055 1.21253e-18)
(0.000894535 0.00027502 -1.51411e-18)
(-0.00164744 -0.00273555 4.39038e-18)
(0.0242265 0.0372489 -1.42196e-17)
(0.000349116 -1.43771e-05 2.86665e-19)
(-0.020308 0.0064146 -1.40541e-18)
(-0.0110811 0.0098674 -3.27221e-19)
(-0.000138377 -0.000196581 4.23361e-19)
(-0.0241342 -0.0114161 1.01277e-19)
(-0.0292585 -0.0254726 -4.69037e-19)
(-0.0665051 -0.012116 -5.00516e-18)
(-0.000167937 -0.000217472 -1.62082e-20)
(-0.00522451 -0.0029682 2.67074e-18)
(-0.0643137 0.0241841 5.10319e-18)
(-0.000389731 0.000123887 4.44753e-20)
(-6.87089e-05 4.78129e-05 3.88089e-19)
(-0.000151109 -0.000976655 -2.48152e-19)
(0.000225227 3.18834e-05 -4.26231e-19)
(-0.00192919 -0.00336716 -3.70412e-18)
(-0.00463927 -0.00765269 -5.09281e-18)
(-0.000208464 -0.00138801 1.93628e-18)
(0.000119916 0.000133383 -3.82549e-19)
(0.0189329 -0.022207 -1.63354e-20)
(-0.0133037 -0.00190235 2.28975e-18)
(0.00425813 -0.000357865 5.72885e-20)
(-7.5663e-05 6.88517e-05 -2.67686e-20)
(-0.0474728 0.082017 -9.16562e-19)
(-0.000145448 3.76477e-06 4.84141e-19)
(-0.0342068 0.30445 1.47774e-17)
(-0.0142312 -0.0143081 1.32555e-19)
(-0.000169674 0.000188426 -2.47956e-20)
(-0.00438896 -0.00707507 3.1004e-18)
(-0.147994 -0.284546 1.65516e-17)
(-0.0011661 -0.000244592 2.97567e-18)
(0.161465 0.0363874 2.87314e-19)
(-0.0205085 -0.0209999 3.5487e-19)
(0.0663414 0.111003 1.10409e-17)
(-0.000155647 -8.46363e-06 -1.74526e-21)
(-0.0252154 0.0229928 -3.65104e-20)
(-0.0608946 -0.0244772 -4.62706e-19)
(-0.0571051 -0.0874113 -4.76385e-19)
(6.84965e-05 -4.56318e-05 2.96528e-19)
(-0.0358153 0.134893 -6.47689e-18)
(0.00130736 0.00119125 -3.25577e-19)
(0.00438171 -0.155675 -8.46486e-18)
(-0.0223705 -0.012545 2.98802e-18)
(0.000230649 -0.00111386 -6.13012e-19)
(-0.00118014 -0.000309737 6.19533e-19)
(-0.0214033 0.00801579 -3.35977e-18)
(8.28042e-05 -5.06527e-05 -4.9047e-19)
(-0.0632784 -0.102106 2.47187e-18)
(-0.060243 -0.0667368 4.91913e-19)
(-0.000190354 -2.24738e-05 -1.43618e-19)
(0.0244983 -0.0100388 3.37774e-20)
(0.000115414 -2.82117e-05 2.94228e-19)
(-0.0456962 -0.0117146 -8.84158e-19)
(-0.00010742 -1.22406e-05 4.8036e-19)
(-0.0492603 0.0188235 -2.62706e-20)
(0.132996 0.083324 2.22228e-19)
(-0.0204225 -0.0120927 -3.98938e-20)
(0.115959 0.0981779 3.29735e-19)
(0.0268432 -0.00682679 -6.09654e-21)
(-9.20094e-05 -7.13013e-05 5.02985e-19)
(-0.0669313 -0.0210086 3.73109e-19)
(0.00144917 0.00182687 -2.46683e-20)
(0.000293485 0.00945817 -4.35506e-19)
(0.0219572 -0.0109472 -6.75387e-19)
(0.00188806 -0.000794857 -1.47862e-19)
(-7.21681e-05 7.34608e-05 -4.46759e-19)
(0.00139607 0.000478146 9.30864e-19)
(-0.0131439 -0.00278902 3.75475e-19)
(-0.000108084 -3.74136e-06 1.11509e-19)
(-0.000414515 0.00010008 1.16434e-19)
(-0.0086246 -0.00285893 -4.68963e-19)
(-0.00275685 0.00794934 -1.13272e-18)
(0.0171703 0.122068 -4.93531e-17)
(0.00247783 -0.00971826 3.51677e-18)
(-0.0209275 -0.146273 9.42145e-18)
(-0.0338285 0.0162836 -1.43069e-18)
(-0.040906 0.00934352 -2.59189e-18)
(-3.24436e-05 8.25509e-05 -5.74569e-22)
(0.003172 -0.00216159 8.55621e-20)
(0.0652958 0.088956 9.10795e-18)
(-0.000149206 -1.37694e-05 2.24519e-19)
(-0.0423424 0.00557351 9.21466e-19)
(0.00294674 -0.0088943 -3.33417e-18)
(-0.00277289 -0.0044095 6.96087e-18)
(-0.00013616 -6.77647e-06 -2.34033e-20)
(-0.00609748 -0.00486768 -1.04998e-18)
(-0.000211128 0.000234599 -2.56523e-19)
(0.0518353 0.00726666 -2.11556e-19)
(0.0955995 0.0635526 5.27987e-18)
(0.0022554 0.00215746 -4.08174e-21)
(-0.0028522 0.00711556 -8.79293e-19)
(-0.000134817 9.28946e-07 -6.18871e-19)
(0.00130293 0.00324887 -1.18141e-19)
(-0.0310482 0.125371 3.47423e-17)
(-0.000109404 -1.06212e-06 2.25863e-19)
(-0.0150443 0.0171004 1.89417e-19)
(1.52673e-05 -3.0946e-05 3.36844e-19)
(-0.000150242 2.2246e-05 2.4731e-20)
(0.00023038 -3.34688e-05 -1.76379e-20)
(-0.0203176 -0.0107096 -1.25242e-18)
(0.0825382 0.0533968 -5.82665e-18)
(-0.0170877 0.0137502 -2.24576e-19)
(0.0471643 0.00410377 -2.13054e-19)
(-0.000113101 -4.38533e-06 -1.0941e-19)
(0.00140809 0.000691612 -1.34581e-18)
(-0.000379206 -0.000176735 1.2165e-18)
(-0.127121 0.0105198 -3.88098e-19)
(-0.0012587 5.3718e-05 1.23303e-19)
(-0.0641601 0.0400995 5.07998e-19)
(0.000966716 0.00296663 -1.47296e-19)
(-0.00859952 0.014138 -6.33187e-19)
(-0.00307997 -0.000714891 -4.38893e-20)
(-0.000235284 0.000113635 5.35154e-20)
(-0.000121907 -2.3985e-06 -6.76576e-19)
(-0.149658 -0.26526 -1.63254e-17)
(-7.85217e-05 -0.000162335 -5.35883e-19)
(-0.0382767 0.00446011 -3.99392e-19)
(0.171823 0.0241607 4.72906e-19)
(-0.00281074 -0.000759805 -3.17392e-18)
(-0.000350354 2.61733e-06 8.90945e-19)
(0.0588125 0.147891 -1.59126e-18)
(0.0189418 -0.0105291 5.22052e-19)
(0.00038744 -0.000110925 1.46653e-19)
(0.0161244 0.0104218 -5.61651e-19)
(-8.18066e-05 -1.02971e-05 -7.95752e-19)
(-0.0110623 -0.0151871 2.2059e-18)
(0.0129128 -0.00641972 4.34184e-19)
(-0.000298333 -5.60376e-06 7.05571e-19)
(-0.0388808 0.0010718 -7.26793e-19)
(-0.0179795 0.0133831 1.34596e-19)
(-0.000427174 -0.00168842 8.12198e-19)
(0.0385448 0.0332232 -3.06907e-19)
(-0.00112655 0.00927058 -3.81992e-19)
(-0.000403276 -0.000158932 -1.29607e-18)
(0.000108701 -3.44681e-05 -9.96792e-20)
(-0.00230677 -0.00401062 9.03654e-21)
(-0.068085 -0.0766102 8.94716e-19)
(-8.21998e-05 6.49776e-05 -1.26828e-20)
(-0.0349361 0.00778916 -8.91195e-19)
(0.0175661 -0.0125718 -4.11877e-20)
(-0.0163181 -0.135388 -4.56843e-18)
(-0.00163343 2.06073e-05 -9.1442e-20)
(0.00396606 -0.00208478 -9.59539e-21)
(0.0399203 0.0377425 3.25656e-19)
(-0.0407852 -0.00433988 1.67716e-18)
(-0.000269866 -5.76852e-06 4.63324e-19)
(-0.000780109 -0.000434014 2.985e-19)
(0.000297408 0.000218369 7.68675e-19)
(-0.000613572 -0.00156124 7.90497e-20)
(0.0134368 -0.00472958 5.75734e-19)
(0.0137021 0.0127364 -1.23283e-18)
(0.000216892 -4.88759e-05 2.70033e-19)
(0.0184998 -0.0181079 -1.44835e-20)
(-0.026975 -0.124567 8.0216e-18)
(0.000181968 0.000172667 -9.93326e-19)
(5.47881e-07 -9.43932e-06 2.95402e-19)
(-0.0687449 0.0492143 -9.93823e-19)
(-0.00908294 0.012038 5.5433e-19)
(-0.0030488 -0.0660955 3.02964e-18)
(0.0149849 -0.0340368 7.13764e-20)
(-0.000224297 -1.26529e-05 -1.10638e-19)
(8.13451e-05 -0.0112662 -6.50994e-19)
(1.94037e-05 -0.000965733 -1.8688e-19)
(-0.00147384 0.00838443 1.64118e-18)
(-0.00950447 -0.0145059 -7.95431e-19)
(0.00108722 0.00139046 -7.66017e-19)
(0.000331175 -0.000563406 -1.50348e-19)
(0.0202773 0.00128657 1.55756e-19)
(-0.000111894 -5.81462e-06 -6.27085e-19)
(-0.00731184 -0.155808 -1.68132e-18)
(0.0192139 0.01175 5.20938e-19)
(0.157274 -0.0309799 -6.71485e-20)
(-0.00178367 -0.0615723 6.88007e-19)
(-0.000191588 0.000286063 5.09292e-19)
(0.0378407 0.0643574 3.82642e-18)
(-0.0471525 -0.0282578 1.07638e-18)
(-0.0133784 -0.0181359 1.09499e-18)
(-1.87909e-05 8.16048e-05 -2.05257e-20)
(-0.00507597 -0.0100715 1.17245e-20)
(-0.000143695 -4.22782e-06 5.80604e-20)
(-0.000104131 8.43717e-05 -2.55123e-19)
(-0.000836824 0.000235184 -1.7776e-18)
(-0.000159303 -1.80563e-06 -1.57138e-20)
(0.00820707 -0.000415941 -6.5127e-19)
(0.0500188 0.111657 -1.34842e-17)
(-0.0018031 -0.000700765 -1.66485e-20)
(-0.0219232 0.00229534 6.4467e-19)
(0.0080631 0.000783272 -5.42653e-21)
(0.00109711 -0.00219694 6.47004e-19)
(-0.109766 -0.248335 -3.46779e-18)
(-0.000111192 -0.0128597 5.2747e-19)
(0.00173718 0.00157758 -2.00624e-19)
(-0.000108912 6.48651e-06 -8.41906e-20)
(0.0779523 0.0503016 1.32841e-18)
(-1.42722e-05 -3.07925e-06 -1.66002e-20)
(0.000894188 -0.00063475 -2.49292e-19)
(-0.000273334 -2.36354e-05 -3.71847e-19)
(-0.00135195 -0.00290041 -9.09709e-21)
(-0.0451571 -0.0571623 2.09439e-18)
(0.0347427 0.068919 5.78213e-19)
(-0.00192156 -0.00288262 -2.63093e-20)
(-0.000159336 7.36485e-06 -1.04976e-19)
(0.00665766 0.00207324 1.04783e-19)
(0.00699052 0.0010803 -6.8852e-20)
(-0.169103 -0.362518 -5.74298e-18)
(-6.34242e-05 6.79621e-05 3.6751e-20)
(-0.000146241 -3.93816e-06 1.09737e-20)
(-0.00141203 0.000151484 -1.05067e-18)
(-8.51129e-05 1.6131e-05 5.56889e-21)
(0.0339051 -0.0508004 8.47809e-19)
(-0.00194264 0.000617958 1.15067e-18)
(-0.00600442 0.0160626 -6.3357e-19)
(-0.0512523 0.00479698 -6.25214e-19)
(0.0418003 0.03401 3.67068e-18)
(0.0272455 -0.051163 -9.31035e-19)
(0.000599809 -0.000469063 9.05311e-20)
(-0.0432876 0.0182801 -9.4528e-19)
(0.0226296 -0.00838818 1.18216e-19)
(5.62727e-05 -0.00085025 1.20095e-21)
(-0.0332907 -0.00574552 -2.70903e-18)
(0.000164482 0.000221238 2.13685e-19)
(-0.00015633 -2.02863e-06 -9.00911e-20)
(0.00010705 0.000195427 -2.52869e-19)
(0.00192032 -0.00108684 -6.85836e-19)
(0.000343428 -0.000130488 -6.1574e-19)
(0.000481633 0.00310608 7.08073e-21)
(-0.0459643 0.191192 1.86905e-17)
(-0.00170279 -0.000852742 -1.79514e-18)
(0.00536206 -0.011861 5.44276e-19)
(0.0428334 0.0560858 -5.14379e-18)
(0.0983115 0.0512306 -5.06572e-19)
(-0.000112383 -0.000138526 -4.18229e-19)
(-0.0319892 0.00474456 2.47499e-18)
(-0.000293864 6.5309e-06 1.70598e-18)
(-0.0244082 0.00688747 3.84927e-18)
(-0.000132848 1.63513e-05 3.31126e-19)
(0.0910036 0.127117 9.01328e-18)
(-0.00368926 0.00221088 -2.85558e-20)
(-0.0352665 -0.114021 -7.10953e-18)
(-0.0599891 0.149453 -2.5714e-17)
(0.000896319 -0.00244802 -7.80642e-19)
(-0.0415754 -0.0287847 -2.19344e-18)
(0.00107359 -0.00405637 5.0556e-19)
(-0.0376403 0.0163832 -6.18332e-19)
(0.000251542 0.00279529 4.06777e-20)
(0.0648068 0.0406507 -5.9532e-18)
(-0.000441109 -0.0128587 2.36406e-18)
(-0.0393353 0.0110069 -7.80378e-19)
(-0.00151887 -0.000835312 1.00614e-18)
(-0.0476807 -0.0372219 1.24691e-18)
(0.000203665 -0.00468213 -9.57756e-20)
(0.00518649 -0.0134462 1.68792e-18)
(-0.177493 -0.34881 1.9031e-17)
(0.000208111 -0.00011213 -9.79089e-20)
(-6.6831e-05 -0.00421678 5.84973e-19)
(-9.40815e-05 -3.85459e-06 -1.56826e-19)
(0.0403277 0.0418559 6.80997e-19)
(-0.000120246 0.000112712 7.38094e-19)
(9.38449e-05 0.000139518 3.94116e-19)
(-0.0530844 -0.0211228 -8.8789e-19)
(-0.00464037 -0.00538163 -1.06606e-18)
(0.0230867 -0.00307684 -3.27065e-19)
(0.0677777 0.039955 -4.10565e-18)
(-0.000118934 5.26879e-06 9.08845e-19)
(-0.0150711 -0.016553 8.7076e-19)
(-0.0039469 -0.00546494 1.37578e-18)
(0.000253914 8.80284e-06 9.96714e-20)
(0.000450871 -0.0132917 -4.64806e-18)
(0.00523149 0.00744831 7.95785e-20)
(0.00059412 -0.00365533 -7.18208e-19)
(-0.00108788 -0.00269787 -2.51122e-18)
(-0.09656 -0.107559 3.75162e-18)
(-0.0044815 0.0183462 -1.70894e-19)
(2.60338e-05 -1.02053e-05 3.6415e-19)
(-0.0761572 0.166608 -1.13726e-17)
(-9.34421e-05 -8.99929e-05 -1.45178e-19)
(0.0120205 -0.00321799 6.25753e-19)
(-0.00692225 0.018573 -1.25761e-19)
(-0.0442189 0.0744696 2.48113e-18)
(-0.135127 0.0014939 -1.26927e-18)
(0.0274652 -0.0266978 -5.02021e-20)
(-0.0467522 -0.041517 -4.23678e-18)
(-0.174713 -0.0652642 -1.02491e-18)
(-0.0312438 -0.00355448 -3.1822e-18)
(3.99528e-05 0.000170122 5.30681e-20)
(-0.011 0.00979065 2.8272e-19)
(0.0362857 0.0467471 9.934e-19)
(0.0323755 0.049492 -2.27425e-19)
(-0.0310812 -0.00641105 1.54317e-18)
(-9.64634e-05 -5.19973e-05 3.08586e-20)
(-0.000916147 0.000325324 1.21279e-18)
(-0.0208466 0.00351507 -3.48337e-19)
(-0.065649 0.194089 -2.63e-17)
(0.000132988 0.000154946 2.92692e-19)
(0.00103075 -0.000652948 -6.4163e-20)
(-0.000126341 -4.81336e-06 2.52578e-19)
(-8.13631e-05 -0.000114283 8.42862e-19)
(-0.00164663 0.00280724 -7.46725e-19)
(-0.00149062 0.00332709 1.12637e-18)
(0.00175439 -0.000876761 2.01485e-19)
(-0.00022585 8.65845e-08 -1.1678e-19)
(0.0218686 0.00940451 1.43249e-19)
(-0.00287174 -0.000201131 -4.92652e-19)
(0.0123743 -0.00179638 3.98561e-19)
(-0.0238877 -0.00782296 3.73352e-19)
(-0.194321 -0.0843807 5.41601e-19)
(0.00013001 -0.00075017 -6.26596e-19)
(0.0494257 0.155554 -3.74173e-18)
(-0.130102 -0.111645 -4.97104e-18)
(-0.0620729 0.0168953 -1.96257e-18)
(-0.000113347 -4.03887e-06 1.05243e-18)
(-0.00962527 0.00175327 3.47168e-19)
(2.01052e-06 -1.26731e-05 -1.30044e-19)
(0.102055 0.0490342 3.7346e-18)
(-0.000348428 -0.000299552 -1.20622e-18)
(-0.0141385 -0.0196901 -3.92426e-19)
(-0.00141253 -0.000976581 1.69641e-18)
(-0.0436457 0.0949734 -8.39653e-19)
(-8.39932e-05 -1.81283e-05 -1.05629e-18)
(-0.00666069 -0.00416231 2.44532e-18)
(0.00115096 -0.000488082 -4.5192e-21)
(-0.0107944 0.00804994 9.27203e-19)
(0.0278686 0.160608 -2.97707e-18)
(4.75425e-05 -1.34376e-05 -2.50528e-19)
(-8.02229e-05 -1.03538e-05 3.24348e-19)
(-0.000913101 -0.000350154 -1.76178e-19)
(-0.0193373 0.306789 -2.20843e-18)
(9.67744e-06 -1.17293e-05 -3.8639e-19)
(-0.00686872 -0.0140769 -1.14826e-19)
(-0.0294765 0.025206 -1.42305e-18)
(-0.0387029 -0.0335562 2.7277e-18)
(0.000910522 -0.00184488 -2.14104e-19)
(-0.0105362 -0.0156045 9.94839e-20)
(-0.0366435 -0.000280235 7.83789e-19)
(-0.242127 -0.173355 -1.68678e-18)
(0.00013615 -0.000904517 4.84108e-19)
(-0.000144768 -3.6098e-06 9.51523e-20)
(-0.0379683 0.00789602 -9.17516e-19)
(-0.0387041 0.306666 -7.58117e-19)
(0.00241687 -0.0287645 3.79997e-18)
(0.0710443 0.022955 1.78047e-19)
(-0.000120824 8.83049e-06 -7.14734e-20)
(0.0166433 -0.00813309 -8.03755e-20)
(0.0168491 -0.00597493 6.66155e-19)
(0.0115705 -0.00980921 -6.92592e-20)
(0.00240775 -0.0072559 3.89315e-19)
(0.00911779 -0.163163 6.98043e-18)
(0.000652769 -0.00175826 1.15537e-19)
(-9.71519e-05 -3.60161e-05 -4.19615e-19)
(0.0011779 -0.00108983 -5.65365e-19)
(-0.0373884 -0.00999139 -4.5462e-19)
(-0.000107128 5.62979e-05 -4.08761e-19)
(-0.0428572 0.0139757 2.37404e-18)
(-9.25692e-05 -0.000106178 5.81171e-19)
(-0.00011914 -0.000760502 -1.33952e-18)
(-0.000236548 -0.000706553 5.70638e-19)
(0.00635496 -0.0126191 -1.49794e-18)
(0.0749023 0.0142842 -9.5275e-19)
(0.0017193 -0.000950826 7.61686e-19)
(-0.000781058 -0.00278715 3.85037e-18)
(0.0401168 -0.118613 -1.92177e-18)
(-0.0226441 -0.0178259 3.02946e-20)
(0.0190094 0.00889224 -2.84373e-19)
(0.00151294 -0.00092991 2.16612e-20)
(-0.0004468 -0.00146546 -5.44621e-20)
(0.0169711 -0.0110543 7.41136e-20)
(-0.248921 -0.166467 2.92898e-18)
(0.000668813 -0.000557676 2.79796e-19)
(0.000468066 -0.000316503 9.85247e-20)
(-0.0269053 0.0200264 -8.70923e-19)
(0.000389359 0.000365155 1.36093e-18)
(0.000279976 -0.000375888 6.74699e-19)
(0.0329297 0.0207505 -4.31041e-19)
(-0.000160142 0.000116238 -1.52067e-18)
(0.078237 0.0833907 -6.74547e-18)
(-0.000157886 1.6185e-05 6.54927e-20)
(0.0238034 -0.0131897 1.53348e-19)
(-0.0086449 -0.00241095 -5.11356e-20)
(0.108215 0.113469 -9.14903e-18)
(-9.40057e-05 4.57375e-05 -1.31842e-20)
(-0.0107858 0.000707404 4.92075e-18)
(-0.000103489 -1.22804e-05 -1.03611e-19)
(0.000209188 -2.37877e-05 -2.93386e-19)
(0.0441493 -0.0983635 -1.00317e-18)
(1.48769e-06 8.41404e-05 1.99944e-20)
(-0.0395667 -0.0107115 3.45301e-18)
(3.56504e-05 -0.0298809 -3.35772e-18)
(-0.000312981 -7.75627e-05 4.84912e-19)
(0.0034836 -0.00781718 -1.27283e-19)
(0.131724 -0.0171536 -2.83002e-20)
(-0.0450057 0.00863011 -3.86914e-19)
(-0.0215867 -0.0062438 -6.11316e-19)
(-0.000102884 -5.11192e-06 8.53659e-19)
(0.000505657 -0.000282135 2.54154e-19)
(0.0001623 6.87215e-05 -3.47142e-19)
(-0.00018983 0.00252243 -5.46427e-19)
(-0.0113137 0.0044075 2.64829e-19)
(0.00109052 -0.000924315 6.99797e-19)
(0.05379 0.0800016 -1.29851e-20)
(0.000316846 4.00918e-05 -1.04325e-18)
(-8.41593e-05 4.27938e-05 4.86281e-20)
(-0.0535333 -0.202944 5.35219e-18)
(-0.00595407 -0.00624828 6.67239e-19)
(-0.0120639 0.00584104 -1.03139e-18)
(1.53505e-05 -7.46428e-06 2.18381e-20)
(-0.000106125 -3.38152e-05 -1.51752e-19)
(-0.113144 -0.25554 -1.11167e-17)
(-0.0414966 -0.0626996 7.05219e-19)
(-0.00728138 -0.00265187 -5.01921e-19)
(0.0177889 -0.152502 7.81755e-18)
(-0.000377435 -8.89284e-05 -2.16032e-19)
(-0.0118138 -0.000653195 -2.13138e-19)
(0.000602953 -0.000673411 3.0092e-19)
(-0.00035344 -8.58037e-05 9.07966e-19)
(-0.00101127 -0.000634885 2.73056e-19)
(-0.000761992 -0.000554877 -1.54402e-19)
(0.000665895 -0.000780686 2.45067e-19)
(-0.000151668 7.78295e-07 -8.37035e-19)
(0.0790936 0.134936 -7.47281e-19)
(-0.00113209 -0.00105847 2.66904e-19)
(0.0400873 0.00322165 6.6097e-19)
(-0.000223572 7.5646e-05 1.03909e-19)
(-0.00470092 -0.00456808 4.45801e-19)
(0.000227255 -6.14438e-05 9.64788e-20)
(0.0215634 0.00891872 -1.42943e-19)
(-0.0379433 -0.00294329 1.2332e-18)
(-0.000305492 -2.85812e-05 -2.83639e-19)
(-0.000224494 9.85254e-05 1.93004e-19)
(0.0149084 -0.0288574 -1.9804e-19)
(-0.0186099 -0.0148564 -2.26575e-19)
(0.000212738 -9.51739e-05 8.58139e-19)
(0.0483521 0.0457413 3.96266e-19)
(-0.000153737 -1.83306e-06 -5.14911e-20)
(0.0170048 0.00537824 -6.91172e-20)
(-4.26379e-05 5.13056e-06 -5.21722e-19)
(-0.000109722 -4.98801e-06 2.90555e-19)
(0.000161533 -8.49117e-06 3.92772e-19)
(0.0970372 0.0444557 5.09406e-20)
(0.000201891 -6.43019e-05 2.07505e-19)
(-0.000174968 0.00120738 -6.75369e-19)
(-0.00224599 0.000543792 2.39667e-19)
(0.0530547 0.0685207 -1.5635e-18)
(-6.93189e-05 7.23119e-06 -3.05826e-21)
(-0.000891421 -0.000686145 -2.74061e-19)
(-0.00014697 -4.85471e-06 9.57795e-20)
(-0.00890698 0.0468555 -2.76658e-18)
(-9.85026e-05 -0.00014906 -4.67587e-19)
(-0.000270796 0.000226258 1.10523e-20)
(-9.16867e-05 -2.10539e-05 -5.0118e-19)
(-0.000254481 0.00023682 4.73151e-21)
(0.00218061 -0.00805056 2.39632e-18)
(-0.000390912 0.000163289 -8.52444e-20)
(-0.00384254 -0.0043756 -3.47021e-19)
(0.000657237 -0.000737334 -3.00501e-19)
(-0.0596815 0.140122 -4.1152e-18)
(0.070442 0.113445 2.24048e-19)
(0.00168298 0.186075 -2.1303e-18)
(-0.000189171 0.0028339 3.8874e-20)
(-0.0069667 0.000721548 -2.07548e-18)
(-0.000112034 -6.57513e-06 -3.66022e-19)
(0.0264631 0.0279253 -8.3555e-19)
(-0.000290564 9.33757e-06 6.54469e-19)
(-0.0291809 -0.121186 -7.13663e-18)
(0.0179268 -0.0732323 -1.17252e-18)
(-0.014063 0.171062 5.3119e-18)
(0.0154209 0.00720648 2.63193e-19)
(-0.0447874 -0.00305723 2.20849e-18)
(-0.000366344 -7.24469e-05 3.1505e-20)
(0.000436968 -0.000573056 7.68875e-19)
(-0.0168899 0.0136457 -4.54594e-18)
(-0.0117341 0.0421921 2.79652e-18)
(0.00164445 -0.0110882 -1.99812e-20)
(-0.0469219 0.013468 7.40649e-18)
(-0.000655485 -0.00109042 9.12284e-20)
(-0.0384111 -0.05132 1.0098e-18)
(0.000220343 -0.000161031 1.49954e-19)
(0.000351837 -0.000928239 -8.04032e-19)
(0.000204046 -0.00085147 6.49697e-19)
(-1.37786e-05 -8.90285e-06 -7.77306e-21)
(-0.000147167 -2.49125e-06 -8.60099e-20)
(-0.0181034 0.00685311 5.10931e-18)
(-0.00269278 -0.00102312 2.3689e-18)
(5.26625e-05 9.61111e-06 1.8146e-19)
(-0.016934 0.188252 -8.86334e-18)
(0.000142334 0.000111489 3.8649e-19)
(0.0282584 0.0246059 3.1206e-19)
(0.00208735 -0.00108879 -2.87051e-20)
(-0.00268625 -0.000306319 -4.89574e-18)
(-0.00649062 -0.0110712 5.67223e-20)
(-0.000129421 8.94111e-06 4.05871e-19)
(-0.0149881 -0.137978 1.30104e-18)
(0.000966238 -0.000906588 -2.52761e-19)
(-0.000668327 -0.000394879 -2.14952e-19)
(0.0378767 0.000817172 -2.96292e-19)
(-5.11463e-05 -0.000841296 4.2574e-19)
(-8.32034e-05 4.96224e-05 3.05266e-20)
(-0.000101981 1.20399e-06 1.65745e-19)
(0.000394618 -0.000245352 5.81519e-19)
(-2.87113e-05 -9.93875e-05 2.00416e-19)
(0.0350182 0.0330534 8.56596e-19)
(0.0360973 0.0201096 3.40622e-19)
(0.0579153 0.117275 1.89477e-19)
(-0.000968177 -0.000304742 -2.14323e-18)
(0.000658497 0.000193779 8.92031e-19)
(0.000270784 -0.000297545 1.55083e-18)
(-0.0420188 -0.0464926 -1.59787e-18)
(0.00459072 0.000558649 -1.22278e-19)
(-0.000659968 -0.0016038 -7.84207e-20)
(0.000117255 -2.06303e-05 -3.28899e-19)
(-0.00057354 0.000324583 4.62007e-20)
(-0.0463227 -0.00774313 -9.6864e-19)
(-0.0874998 0.0376668 -3.98001e-18)
(0.00756128 -0.00608055 1.68567e-19)
(0.00147173 0.00228062 -5.53661e-20)
(-0.000302771 -1.32244e-05 5.19077e-19)
(-0.115047 0.139985 -3.88095e-17)
(-0.0116274 0.00051526 -4.02981e-18)
(0.00935086 -0.0010833 1.02433e-18)
(0.0217479 0.00292362 -8.04157e-20)
(0.0227375 -0.0557343 1.39581e-18)
(0.0693674 -0.023998 2.5548e-18)
(-0.0473364 -0.0228845 -1.26905e-18)
(0.000231092 -0.000115497 -6.95688e-19)
(-0.000135552 -7.50609e-06 7.7538e-19)
(0.00104328 -0.00108029 5.45373e-19)
(-0.0475759 -0.013904 1.26086e-18)
(0.000188419 -9.01715e-05 2.98302e-19)
(-0.00803686 0.000956226 -1.04021e-17)
(0.00204088 3.11737e-06 5.40849e-19)
(1.77117e-05 7.79578e-05 -4.13498e-20)
(-0.00337756 -0.0106139 3.83304e-19)
(0.00334311 0.00108704 -1.50694e-18)
(0.0686278 0.0731478 -9.49494e-19)
(0.159244 0.054577 -1.0293e-17)
(0.0004061 -3.16099e-05 -6.27546e-19)
(-0.00015393 8.54872e-05 5.66569e-19)
(6.74926e-05 0.00012464 9.29037e-20)
(0.0237672 -0.0278967 1.77752e-19)
(-2.33818e-05 6.98012e-06 -4.91892e-19)
(0.06281 0.0179772 -2.92917e-18)
(0.00570539 0.00222243 2.54583e-20)
(-0.0630006 0.0689456 9.31844e-19)
(0.000605724 1.47079e-06 -6.40462e-19)
(0.000623722 -0.00135152 -2.98051e-19)
(-0.000315562 -6.8271e-06 9.72201e-20)
(-8.74056e-05 -3.50746e-05 8.97044e-19)
(0.000288965 -0.000495312 -1.22153e-18)
(0.000484047 -7.87333e-05 -9.22469e-20)
(-0.000383788 -0.00028028 1.26199e-19)
(-0.00133052 -0.0012951 -8.69197e-19)
(0.003709 -0.0125596 4.97206e-19)
(-0.00627564 -0.00351014 -1.43875e-18)
(0.0204531 0.129089 -1.64889e-18)
(-0.000369963 -1.3348e-05 -1.05264e-18)
(-0.00824817 0.0362275 5.41997e-19)
(0.00291668 -0.0983342 1.81615e-18)
(-0.000304667 5.68892e-06 1.07407e-18)
(-0.0206516 0.061649 -2.5344e-18)
(-0.000236643 3.60676e-05 2.07804e-19)
(-0.00146595 0.0013678 -3.78688e-19)
(-0.00412789 0.00290022 -1.43971e-19)
(-9.18947e-05 -1.15103e-06 3.12592e-19)
(0.0178575 -0.150395 -8.20349e-18)
(0.00198477 -0.000223084 1.69257e-19)
(-0.000326391 0.00252438 -3.6305e-20)
(-0.000207788 -0.000825719 -1.16061e-18)
(-0.109619 -0.158377 -5.62287e-19)
(0.000639225 -0.00120316 7.64212e-19)
(-0.0497394 -0.0181055 -4.46272e-20)
(-0.00382944 -0.0255556 -1.2497e-18)
(0.000704892 6.74069e-05 2.86299e-19)
(0.0449463 -0.017544 2.17333e-18)
(-0.0477405 -0.0010691 -2.02812e-18)
(0.00220259 -0.000632977 1.68196e-20)
(0.00039887 -0.00012885 2.29519e-19)
(-0.0482968 0.00964483 -3.5423e-18)
(-0.000113288 -4.15864e-06 -1.44276e-19)
(-0.0440394 0.0110495 -1.36043e-18)
(0.00505869 -0.0101688 3.75328e-19)
(0.000901994 0.0199183 -2.8046e-18)
(-0.00219758 -0.012833 -8.25184e-19)
(-0.000876792 -0.000303985 7.30152e-19)
(0.000112378 -0.00100473 -2.02642e-19)
(-0.00141177 -0.00117534 -1.25107e-19)
(0.0141233 0.00183975 -3.08683e-19)
(-0.00541815 0.00172106 2.14028e-19)
(0.0170655 -0.058649 -1.76582e-18)
(-0.0215834 -0.110229 -8.34642e-19)
(4.79777e-05 7.87342e-05 3.41643e-20)
(-0.000999776 0.00265576 -1.09888e-18)
(-0.0002871 5.64071e-06 -9.56403e-19)
(-0.00940105 0.0177681 -1.89505e-19)
(-0.0001145 -4.26026e-06 -3.26779e-19)
(0.0601025 0.00300386 1.01238e-18)
(-0.00132024 -0.000436761 -1.15264e-18)
(0.000812525 -0.000529815 -8.62746e-19)
(-0.00149002 -0.0919289 8.40131e-19)
(0.000511807 -0.000143647 3.15646e-19)
(-0.04536 0.00654384 1.05454e-18)
(0.0122246 -0.0114027 -1.00363e-18)
(-0.0003061 -9.78625e-06 1.44143e-18)
(-0.0414424 -0.0577685 3.89377e-18)
(0.00466233 0.00310014 1.22741e-20)
(0.000278135 0.00094155 -8.77111e-19)
(0.00288386 0.00259641 -2.96417e-19)
(0.0207016 -0.00674291 -1.31208e-18)
(-0.00181059 0.000140734 1.16636e-18)
(0.0931994 0.0204729 -6.43648e-18)
(-0.00115374 -0.0012363 1.23304e-18)
(0.0208116 -0.00414961 -1.2844e-19)
(-0.00845213 0.00142098 2.59965e-18)
(-0.075009 0.143421 4.68431e-20)
(0.00232956 0.00241769 1.14417e-18)
(0.00988469 -0.00960334 8.56633e-19)
(-0.00211209 -0.00449564 1.20445e-19)
(-0.00136352 -0.00149816 -2.83889e-18)
(-0.00199839 -0.0237803 1.26016e-18)
(-9.63202e-05 -0.00011496 -8.38205e-20)