/*--------------------------------*- C++ -*----------------------------------*\
| =========                 |                                                 |
| \\      /  F ield         | OpenFOAM: The Open Source CFD Toolbox           |
|  \\    /   O peration     | Version:  v2012                                 |
|   \\  /    A nd           | Website:  www.openfoam.com                      |
|    \\/     M anipulation  |                                                 |
\*---------------------------------------------------------------------------*/
FoamFile
{
    version     2.0;
    format      ascii;
    class       volScalarField;
    location    "750";
    object      k;
}
// * * * * * * * * * * * * * * * * * * * * * * * * * * * * * * * * * * * * * //

dimensions      [0 2 -2 0 0 0 0];


internalField   nonuniform List<scalar> 
10042
(
0.000473022
0.0128679
0.000197866
0.000141777
0.000142169
0.000390953
0.0274897
0.00273967
0.000134704
0.000193105
0.00381586
0.0116562
0.000167301
0.000142572
0.00014679
0.000142579
0.00277773
0.00367571
0.00015388
0.000162969
0.000167227
0.000445067
0.000141656
0.00752974
0.000141211
0.000150514
0.000189837
0.000134013
0.000198325
0.00522794
0.000157385
0.000168563
0.000134468
0.0001344
0.00276895
0.00332789
0.000150175
0.000135655
0.000149997
0.000147171
0.00588334
0.000134588
0.00637305
0.0171201
0.000141396
0.000141266
0.000132856
0.00014643
0.000200448
0.096537
0.0173432
0.000140754
0.00119413
0.000153498
0.00582461
0.0351789
0.000166455
0.000689333
0.00014774
0.000130692
0.000200528
0.0154494
0.000580562
0.00321117
0.00239416
0.000145289
0.000161107
0.0016551
0.000132653
0.00130506
0.0630623
0.000152424
0.00013774
0.00014744
0.000144992
0.0480895
0.000192927
0.00013283
0.000196479
0.000153907
0.0170811
0.00665454
0.000169965
0.000140155
0.000177321
0.000257338
0.000159654
0.000180889
0.000141887
0.000113597
0.000160543
0.000146797
0.000286391
0.000267927
0.00296526
0.000143901
0.0709539
0.00016138
0.0048149
0.000147127
0.000160251
0.000217828
0.000148743
0.000165016
0.000156283
0.000146987
0.00291534
0.000144308
0.0208327
0.000147462
0.000147069
0.00854829
0.000214641
0.00295571
0.00139067
0.000132626
0.000209985
0.000155485
0.000501434
0.000132422
0.000130671
0.00642926
0.005354
0.0001415
0.000208491
0.000143016
0.000143525
0.0131711
0.000234024
0.000208349
0.000135568
0.000143841
0.000146248
0.000143332
0.00638114
0.067587
0.000161052
0.000249063
0.000151593
0.00483855
0.000185907
0.0001382
0.0018249
0.000134046
0.000160554
0.000135688
0.000175413
0.000132521
0.000151369
0.00532527
0.000143936
0.000144938
0.000152548
0.000170321
0.00178004
0.000161143
0.000482262
0.0311968
0.000146662
0.000152582
0.000152826
0.000151475
0.0687743
0.000142359
0.000150467
0.00389969
0.000137619
0.000166016
0.0028935
0.000134172
0.00272612
0.00476602
0.00279772
0.000134258
0.000153489
0.00359182
0.000141448
0.000135583
0.000143252
0.000132652
0.000151402
0.000156936
0.000147422
0.000132249
0.0021415
0.000160039
0.000152594
0.000131185
0.0987339
0.000146169
0.018139
0.000166448
0.000135753
0.000156491
0.0164352
0.000146745
0.0613163
0.00215357
0.0844456
0.000140292
0.00507842
0.00017871
0.0100461
0.000137202
0.00585175
0.000145136
0.0101971
0.000170286
0.000146707
0.000143443
0.000167397
0.000135981
0.0129845
0.00869975
0.000151489
0.00101577
0.000136763
0.00188633
0.000144003
0.00497169
0.106928
0.00172719
0.109338
0.000959931
0.000141761
0.000165626
0.00014901
0.000159599
0.000181059
0.000149073
0.000135623
0.000144297
0.000160174
0.000162323
0.000141431
0.00281869
0.00015733
0.0730143
0.000159119
0.00792889
0.00396673
0.000977505
0.00013061
0.000159384
0.000938322
0.000142902
0.000917241
0.000158584
0.000152834
0.000146705
0.000155563
0.000135902
0.000357596
0.000934068
0.00015075
0.000156256
0.000149774
0.000150798
0.0706236
0.000141775
0.000891038
0.000136178
0.00014064
0.000132972
0.00016782
0.000682348
0.000742668
0.000308752
0.000163098
0.000144498
0.000143773
0.0946186
0.000140399
0.0913087
0.000150045
0.000523821
0.00014991
0.000141195
0.000163785
0.0137888
0.000134004
0.000773141
0.0488402
0.00014967
0.000161672
0.0851667
0.000206194
0.000133422
0.000396168
0.000148504
0.000165686
0.000189023
0.000165134
0.000759256
0.00224253
0.000142834
0.000274143
0.000159196
0.000143862
0.000137333
0.000152332
0.0123625
0.000131222
0.00387263
0.000205743
0.00683909
0.000141442
0.000165947
0.000296367
0.000873261
0.000155637
0.000142836
0.000143761
0.000142686
0.000188744
0.000366138
0.000132996
0.00168133
0.00729011
0.000132515
0.000154625
0.0972324
0.000486886
0.00632332
0.00319094
0.000154611
0.000241371
0.000143158
0.000157845
0.000164882
0.000144807
0.000144777
0.000449767
0.000146979
0.00950321
0.000448601
0.0171803
0.0062749
0.000136089
0.00223408
0.000190808
0.000168825
0.000130637
0.000240127
0.000157573
0.000135499
0.000139403
0.000143424
0.000168927
0.079345
0.000148297
0.00295994
0.000168679
0.000143091
0.0128342
0.00028749
0.000149346
0.000169115
0.0803639
0.000158138
0.00014651
0.00015125
0.000150455
0.00437095
0.00162984
0.000150711
0.000141173
0.000164258
0.000164695
0.0291955
0.000130818
0.000171317
0.000140799
0.000149484
0.000228455
0.000142615
0.000473523
0.0112356
0.000494781
0.000223652
0.00014532
0.00864028
0.000180862
0.000142737
0.000173701
0.000132542
0.000145346
0.000132304
0.000146752
0.000133372
0.000149621
0.0561839
0.000148292
0.000256855
0.000978953
0.00118256
0.000142307
0.00272239
0.000150752
0.000168778
0.000140863
0.102259
0.000160868
0.00809542
0.0707374
0.000143501
0.000188583
0.000154286
0.00882796
0.000148843
0.00770894
0.000162001
0.000751476
0.000148043
0.00419364
0.000152068
0.000164138
0.0209955
0.000133309
0.000150384
0.000144509
0.000771957
0.000135575
0.000132112
0.000186373
0.000155665
0.000181128
0.00741504
0.000141618
0.00016881
0.000155998
0.000132848
0.000162232
0.00319516
0.000150866
0.000150106
0.0635529
0.000595272
0.000154736
0.0483654
0.000134182
0.000185227
0.000180663
0.102613
0.0884937
0.00294665
0.00411798
0.0419506
0.00300769
0.000131989
0.000454114
0.000348465
0.000515771
0.000173199
0.00014164
0.000139696
0.00123441
0.0579393
0.000132284
0.000135869
0.000159733
0.000142093
0.000147286
0.000148849
0.000146066
0.000165181
0.000486607
0.000149517
0.000185247
0.00303556
0.0377283
0.000135518
0.0894845
0.070202
0.00259519
0.000145236
0.000156711
0.00015413
0.000804893
0.000143971
0.00144639
0.000148054
0.00418417
0.000139847
0.000155445
0.000135799
0.000354291
0.00758355
0.000153018
0.00013982
0.000142982
0.0144293
0.000136074
0.000515951
3.76742e-05
0.000191267
0.0001406
0.000705619
0.000718578
0.0697066
0.000145883
0.000157977
0.000741429
0.0131441
0.000178149
0.00101517
0.000147547
0.000892591
0.000171162
0.000166493
0.000156521
0.0105403
0.000140032
0.000141522
0.000148077
0.000791489
0.000141562
0.0109697
0.000142083
0.000145295
0.000135605
0.000164105
0.00141212
0.000148706
0.000150101
0.00795355
0.00260773
0.000180424
0.000148511
0.000144426
0.00112542
0.0659792
0.000145696
0.000134298
0.00010647
0.000144184
0.00014411
0.000227955
0.000135461
0.00103255
0.000140955
0.00018447
0.000191202
0.107419
0.000141653
0.000157659
0.00014521
0.000137099
0.00646355
0.000130608
0.00748591
0.000177982
0.000134671
0.000189375
0.0282983
0.00699926
0.00150812
0.000146668
0.000134293
0.000132407
0.000142062
0.000260868
0.000147592
0.0145955
0.000143689
0.000135319
0.0463193
0.00015651
0.000305411
0.000157034
0.000139421
0.049971
0.00554915
0.000185039
0.010609
0.000143672
0.000158751
0.000135638
0.000134748
0.000143478
0.000142903
0.00014626
0.000146644
0.0942537
0.000147808
0.000221411
0.000140893
0.000174029
0.000133086
0.000184627
0.00104647
0.000134716
0.000141089
0.00260654
0.00137615
0.000133216
0.000555095
0.000141482
0.000359669
0.000135761
0.000151781
0.000136907
0.0724472
0.000133124
0.000141643
0.000143462
0.000745402
0.000152535
0.00014346
0.000147003
0.000219747
0.000142294
0.00014178
0.000137581
0.000141843
0.000157112
0.000141578
0.000168999
0.000135944
0.0708405
0.0172676
0.00713703
0.000148315
0.000154171
0.000143551
0.000213511
0.000150286
0.00696574
0.0041795
0.00641942
0.00035901
0.00143502
0.000143644
0.000145109
0.00121815
0.000229308
0.000226915
0.000183377
0.000147201
0.00676189
0.000140285
0.000146166
0.000135841
0.000135955
0.000152334
0.00073878
0.000149662
0.000149448
0.0603033
0.000143063
0.000218099
0.000143577
0.000149318
0.000278966
0.000145942
0.00849523
0.000144079
0.000142515
0.000213676
0.000145616
0.00013308
0.000158508
0.000140963
0.000139496
0.000746116
0.000236184
0.0171422
0.000146144
0.000141461
0.000140838
0.00528618
0.000153151
0.000144998
0.000139029
0.000138959
0.00196624
0.0900281
0.000350988
0.000149751
0.000161417
0.078923
0.000158292
0.000173556
0.000180779
0.00521157
0.00373965
0.00278532
0.00014015
0.00014662
0.000144621
0.00365144
0.000139987
0.000155282
0.000146439
0.000130672
0.00022666
0.000151487
0.097448
0.0859586
0.000133347
0.000141298
0.000131967
0.00291821
0.000135854
0.00697244
0.000161291
0.0976782
0.000141281
0.000142385
0.000134762
0.000141435
0.000144499
0.00013256
0.000144072
0.000148357
0.000280007
0.000154767
0.00674112
0.000143623
0.000193951
0.00559637
0.00015358
0.0133817
0.000140653
0.000142816
0.000167541
0.000148735
0.0106446
0.000146273
0.000147632
0.000135949
0.00841889
0.000141726
0.00379152
0.00017354
0.00014166
0.000226613
0.00312859
0.000142261
0.00013799
0.000182425
0.000171227
0.00642025
0.000228286
0.000235674
0.000326861
0.000145859
0.000146237
0.000144826
0.000167733
0.000168134
0.00537665
0.00336205
0.000130691
0.000143513
0.000149287
0.000183843
0.000171174
0.00587261
0.000147245
0.000146105
0.00515226
0.000141102
0.000180542
0.000167926
0.000162912
0.00443613
0.000166929
0.000141651
0.00015267
0.000177353
0.000141927
0.00268136
0.000148088
0.000176846
0.000155594
0.0091722
0.000150919
0.000164578
0.000175624
0.000148661
0.000172683
0.000134141
0.000173156
0.000141962
0.000147773
0.000143093
0.000143972
0.000151903
0.000180289
0.000154783
0.000146638
0.00256455
0.000134271
0.00014145
0.000140942
0.000132118
0.000434459
0.000164736
0.000152381
0.00023836
0.00235269
0.000144343
0.000206094
0.00623395
0.000138781
0.000143495
0.000131961
0.00283318
0.00559944
0.000155972
0.000140524
0.000184468
0.0463059
0.0640174
0.000155598
0.00380595
0.0196177
0.00697874
0.000164127
0.000132936
0.000148747
0.00710056
0.000210765
0.000147797
0.0780748
0.000241382
0.00432953
0.0100324
0.000143818
0.000126921
0.00576074
0.00105147
0.000641802
0.0001674
0.0832508
0.000151586
0.00339996
0.000145508
0.00021825
0.000155933
0.000187223
0.000131275
0.000146631
0.000141239
0.000437263
0.000145006
0.000130794
0.0437407
0.000144657
0.00015976
0.000157693
0.0044301
0.000143844
0.000150562
0.000145356
0.000146009
0.000142958
0.00015637
0.000139626
0.0526621
0.000240261
0.000107215
0.000145552
0.0153323
0.000139235
0.000180015
0.00333583
0.000177046
0.000143275
0.000132615
0.000145603
0.000151244
0.00341513
0.000185568
0.000141088
0.0110682
0.000143564
0.0001458
0.00888074
0.000132273
0.000146349
0.00833539
0.000140021
0.00018083
0.000151542
0.000199702
0.000159309
0.000181891
0.000201302
0.000143936
0.0864986
0.086571
0.000140996
0.00017087
0.101374
0.0501832
0.00326468
0.000154587
0.00013952
0.000204281
0.000146672
0.000158624
0.00796665
0.000154211
0.000132386
0.000164576
0.00212945
0.00578745
0.000132542
0.000131972
0.000151217
0.000147502
0.00134749
0.00645883
0.000137391
0.000156083
0.00589581
0.000144894
0.000156533
0.0792811
0.000154712
0.0060807
0.000150396
0.000146267
0.000146374
0.000160509
0.000212892
0.000618323
0.000144288
0.00654767
0.00154449
0.0159813
0.000155311
0.000153969
0.0827725
0.000166708
0.00736878
0.000162024
0.000144957
0.00014316
0.0160388
0.00719938
0.000150006
0.000155671
0.000168927
0.000142646
0.00018868
0.000149853
0.000142814
0.000153526
0.000165535
0.000141397
0.000141287
0.102882
0.000139972
0.000139219
0.000181502
0.000157484
0.00478611
0.000156312
0.000147157
0.0166031
0.000183898
0.000156645
0.000171095
0.00782141
0.000141101
0.00013476
0.000156959
0.000209428
0.000140482
0.000151128
0.00014312
0.00014023
0.000142874
0.00939537
0.000145349
0.000385546
0.000145761
0.000177362
0.000140298
0.000147576
0.000189363
0.00410272
0.00743132
0.000143456
0.000152746
0.0041826
0.000329548
0.000175919
0.000149352
0.00683844
0.000141288
0.000202676
8.42574e-05
0.000144765
0.000152109
0.000140913
7.92959e-05
0.00973928
0.000343897
0.000145884
0.000151243
0.000157966
0.000310848
0.000139128
0.000137894
0.00017211
0.000131417
0.000138499
0.00632483
0.000150307
0.000434561
0.000135593
0.000138225
0.000136139
0.000174299
0.000153207
0.000152235
0.0751091
0.000138657
0.000145724
0.000416489
0.000143845
0.000121504
0.000157475
0.000171481
0.00443305
0.000154289
0.00429979
0.000163153
0.000145841
0.0938457
0.000149087
0.000142133
0.000132801
0.000140765
0.000171101
0.012119
0.000179432
0.00237313
0.00912356
0.000721073
0.000200233
0.00456023
0.000154222
0.00443615
0.000134156
0.00015925
0.000146329
0.000147649
0.000150189
0.0585669
0.00230895
0.00014345
0.0073127
0.000138773
0.000534282
0.000145615
0.000155395
0.00015904
0.000276474
0.00676037
0.000142288
0.000133417
0.0892505
0.000152877
0.000232235
0.000196513
0.00326188
0.000151778
0.00666441
0.000554108
0.000139306
0.000138244
0.00014125
0.000158614
0.000143336
0.00015055
0.000151564
0.000149932
0.000152471
0.000146568
0.00014728
0.00345564
0.00645187
0.000133589
0.00023941
0.000152197
0.000169302
0.000186339
0.000215053
0.000139364
0.000172574
0.000189566
0.000136333
0.000182161
0.00488814
0.000147139
0.000138388
0.000153519
0.00686802
0.00602785
0.000136793
0.00116483
0.000146423
0.000147265
0.0882293
0.000141056
0.000144628
0.000139007
0.000146879
0.000156362
0.00215491
0.00017062
0.000142573
0.000143216
0.000143786
0.000141597
0.00261485
0.000133281
0.000171355
0.00124505
0.000414224
0.000137843
0.00351179
0.000139036
0.000238455
0.000152998
0.000181235
0.000133987
0.00774096
0.054171
0.0163671
0.0001449
0.000170314
0.00327791
0.00927682
0.00015325
0.00233915
0.000142265
0.0105561
0.00702154
0.000178147
0.0466948
0.00740756
0.00182984
0.0920984
0.00224802
0.00728242
0.000138214
0.000153744
0.00189509
0.000191744
0.000143127
0.00584505
0.00014944
0.000139847
0.000139887
0.000189895
0.000182416
0.000174085
0.00088684
0.00016587
0.0092304
0.000149966
0.000141237
0.000145192
0.00145012
0.00555706
0.00016573
0.00390952
0.000149244
0.000151122
0.000168394
0.00775669
0.000181621
0.000139865
0.000225108
0.0106115
0.000147965
6.17833e-05
0.000136705
0.000164793
0.000172156
0.000140522
0.00507503
0.000329893
0.000142984
0.000150046
0.000140423
0.00909187
0.000156745
0.0671828
0.000984103
0.000141001
0.000142846
0.000133787
0.00017116
0.000138988
0.00021429
0.000163899
0.000209621
0.00693325
0.000150888
0.000160222
0.00729487
0.000148549
0.000151834
0.000151994
0.000145018
0.0672414
0.00339846
0.000150061
0.0563345
0.000173882
0.00600492
0.000140054
0.000145232
0.000185433
0.000156217
0.000180138
0.00586425
0.000154215
0.000156073
0.00398749
0.000172246
0.000155789
0.00258063
0.00498111
0.00305209
0.000140538
0.000132939
0.00499997
0.000139941
0.000416309
0.000338695
0.000204906
0.00740759
0.000149918
0.000146728
0.0822446
0.000282974
0.000141929
0.0842096
0.000170843
0.000142704
0.000186779
0.00015006
0.00014559
0.000173931
0.000156496
0.000142843
0.000153113
0.000140822
0.000155402
0.00796015
0.000162012
0.010605
0.000143957
0.000159081
0.000140731
0.000143091
0.0046337
0.000145745
0.00349562
0.00398567
0.000150605
0.00554058
0.000163887
0.000800877
0.000132104
0.00335292
0.000121668
0.00020576
0.000154807
0.000151587
0.000139211
0.0512526
0.000155768
0.00681571
0.000165081
0.000136263
0.00361204
0.000131784
0.0920292
0.000140775
0.0264882
0.000144546
0.000137769
0.000134864
0.0028988
0.000139647
0.000137813
0.000134255
0.000140611
0.000143595
0.000187968
0.00253836
0.00014061
0.000157524
0.000146744
0.000140662
0.000138965
0.00287963
0.0709438
0.000156071
0.000144471
0.000139086
0.000135854
0.000157706
0.000155713
0.000134605
0.00578119
0.0252025
0.00218071
0.000139391
0.000140708
0.000143222
0.000152459
0.000138298
0.000150207
0.000143633
0.000139675
0.000196378
0.000148937
0.000194794
0.000993415
0.0742157
0.00015493
0.000140662
0.000142349
0.0981295
0.000147218
0.00016236
0.000170181
0.000137664
0.000143934
0.000141336
0.00885204
0.000144397
0.00474266
0.00374088
0.000174064
0.000143748
0.000156563
0.00511103
0.000154717
0.000172694
0.000157344
0.000166279
0.000137368
0.000156945
0.0234561
0.00738133
0.000139519
0.00014567
0.000494917
0.00015495
0.000172534
0.000171189
0.000526318
0.000143395
0.000156564
0.000543937
0.000786596
0.00018883
0.000141629
0.000141885
0.000138707
0.000146668
0.000207357
0.00704613
0.00590307
0.000138136
0.102448
0.00015685
0.0257897
0.010243
0.000141331
0.0008182
0.000206752
0.000138887
0.000194953
0.000168361
0.000146429
0.00766049
0.000139742
0.0634577
0.00017412
0.0478319
0.0857412
0.000173908
0.000144262
0.000156413
0.000150193
0.000140532
0.000135463
0.000137066
0.0638521
0.000148746
0.000174143
0.00830537
0.0812111
0.000174073
0.000185096
0.000138765
0.0606951
0.000132675
0.00877538
0.0843146
0.0750744
0.0327167
0.0034201
0.0427045
0.000134124
0.000145989
0.000134825
0.000210099
0.000153669
0.0145997
0.000154886
0.107625
0.000158723
0.000138782
0.000138742
0.000146022
0.000134136
0.000942234
0.0144713
0.0750577
0.000140058
0.000171187
0.000154781
0.00015062
0.000186502
0.000144452
0.00704358
0.00735824
0.000149807
0.000155419
0.00941297
0.00015858
0.000562361
0.000851844
0.000147967
0.00721375
0.000154772
0.0979173
0.00014054
0.000216609
0.000144059
0.000408259
0.000196782
0.000516959
0.00325855
0.0952347
0.000251209
0.00137545
0.000148076
0.000150899
0.00434387
0.00177624
0.000158567
0.000158223
0.0971522
0.00156708
0.00555706
0.000168486
0.00731114
0.000159559
0.000167912
0.0122828
0.000154656
0.00015746
0.000170897
0.000133183
0.000137409
0.000140853
0.000143794
0.0636912
0.00014894
0.00238156
0.000132632
0.00666344
0.00437555
0.0104784
0.00013781
0.000148358
0.00980516
0.00381277
0.000167129
0.00313788
0.0534383
0.0105463
0.000139992
0.00016571
0.000156867
0.000167294
0.000197799
0.00611072
0.00446095
0.000175628
0.00014587
0.000152282
0.002419
0.00422048
0.000173881
0.00352428
0.000140576
0.000170498
0.000151893
0.00305862
0.000153109
0.000136349
0.000140222
0.000151659
0.000315835
0.0031679
0.000147783
0.000191758
0.00302309
0.000153875
0.00518433
0.000170809
0.000166937
0.000169017
0.000169313
0.0602226
0.000141493
0.000140532
0.000151109
0.00120676
0.000145364
0.000169413
0.00014981
0.000152407
0.000147514
0.000268487
0.000172015
0.000153226
0.000147247
0.00211446
0.000157482
0.00351257
0.000152057
0.000164822
0.000141324
0.0387977
0.000577191
0.000173993
0.0300233
0.000144001
0.000166313
0.00622591
0.000158638
0.00564638
0.0823272
0.000146917
0.000151342
0.081735
0.000143424
0.000313564
0.000147133
0.000498857
0.00697279
0.000769841
0.000152975
0.000140803
0.000141945
0.00014357
0.000156156
0.00013252
0.000147221
0.000140566
0.000138726
0.000154171
0.000152186
0.000151867
0.000151115
0.0929801
0.00014561
0.0100189
0.000148746
0.000145434
0.0781916
0.000141412
0.000866441
0.00480462
0.000145364
0.000150148
0.000168888
0.000247206
0.000171343
0.0468394
0.000163237
0.000156886
0.000435497
0.000139178
0.105277
0.000146554
0.00124191
0.000134032
0.0583952
0.0743025
0.00624852
0.000148038
0.000154491
0.000139398
0.000152692
0.00021533
0.000140971
0.000143538
0.000171382
0.000168608
0.0169955
0.00102552
0.000149103
0.000177549
0.000144569
0.000158461
0.000150496
0.000143507
0.000149556
0.0738169
0.0523272
0.000225473
0.00015367
0.00014967
0.000151347
8.03006e-05
0.0213963
0.000195354
0.000330403
0.000339013
0.000151573
0.000153726
0.000177368
0.000139687
0.000154196
0.000176773
0.000151267
0.00439953
0.000151389
0.00772244
0.000143442
0.000149771
0.000169771
0.000151852
0.00015334
0.000155023
0.000160919
0.00271577
0.000157527
0.000158988
0.0001467
0.0825873
0.00515599
0.000155609
0.000148305
0.000138777
0.000154555
0.000145067
0.000233878
0.000140334
0.000147513
0.000145797
0.000168798
0.000160991
0.000146272
0.038632
0.000148442
0.000150158
0.0416978
0.000153686
0.000155667
0.000491076
0.0001494
0.0046689
0.000139852
0.000138865
0.000149554
0.000177773
0.000137234
0.00403528
0.000149676
0.00014155
0.000337851
0.00421717
0.0554608
0.000407992
0.00393778
0.000159866
0.000137903
0.000153196
0.00530247
0.000161751
0.00847879
0.000151029
0.000163146
0.000262321
0.00421811
0.000138605
0.10672
0.00218117
0.000140604
0.000159763
0.000149017
0.000149688
0.00478813
0.000233154
0.000145972
0.000139533
0.000134014
0.00309006
0.000147515
0.00472603
0.000166471
0.000147247
0.000140428
0.000141637
0.000954442
0.004508
0.000140038
0.0604055
0.0134164
0.000149779
0.0024571
0.000146932
0.000138052
0.000138613
0.000146805
0.000137273
0.000145683
0.000148603
0.000152051
0.000147707
0.000190854
0.000153185
0.00677704
0.000165996
0.000143264
0.00892022
0.000134035
0.000144378
0.00019508
0.000140419
0.000185595
0.000141185
0.00017783
0.0836017
0.000138192
0.0677505
0.00590667
0.000146039
0.00014849
0.000143937
0.0491537
0.000146596
0.00908673
0.00443689
0.000150503
0.000160435
0.000179537
0.000216622
0.000145346
0.000454284
0.000147519
0.00418415
0.0361932
0.000188922
0.0056005
0.000144598
0.000449336
0.00517594
0.00443114
0.000145895
0.000175561
0.000152529
0.000173387
0.000137434
0.000156972
0.000650592
0.000159254
0.00190715
0.00400941
0.000170986
0.00370583
0.000137594
0.000417102
0.000146077
0.00015803
0.00109692
0.00286401
0.109622
0.000166083
0.000156962
0.00148792
0.00017092
0.00014067
0.000138754
0.000149788
0.000149046
0.000156109
0.00014151
0.00043254
0.00015722
0.00014284
0.00013653
0.000143131
0.000142747
0.000521407
0.000139943
0.0384234
0.000149585
0.000362883
0.000151665
0.000145195
0.000131948
0.000188868
0.000149027
0.0905899
0.000586048
0.00411508
0.00015891
0.000149446
0.000143838
0.000140342
0.000140256
0.00161914
0.000150142
0.000149409
0.000387042
0.000145259
0.00015104
0.107373
0.0239942
0.0026238
0.000153579
0.000720763
0.000272491
0.000141047
0.000139559
0.000170999
0.000333038
0.0373304
0.00216333
0.0132479
0.000143736
0.000139101
0.000675856
0.000163118
0.000149033
0.000195948
0.000148607
0.000152465
0.00637136
0.000181915
0.000200995
0.000157916
0.000157271
0.000176269
0.00513061
0.000146216
0.000140252
0.000144397
0.000749692
0.000140026
0.000155214
0.005957
0.107678
0.000137753
0.000140583
0.000132189
0.000146959
0.000145397
0.000175437
0.0155602
0.000150211
0.0574692
0.00168897
0.0405642
0.000169497
0.000151032
0.000145925
0.000142208
0.000139364
0.000135421
0.000146782
0.000297257
0.00202431
0.000143807
0.000137686
0.000149256
0.000146853
0.000448189
0.000176154
0.0145508
0.00550488
0.000724838
0.000197408
0.000142969
0.000143141
0.000142568
0.000147049
0.000451328
0.000143468
0.000154447
0.00287975
0.000250822
0.00293917
0.000816443
0.084846
0.00415819
0.00014349
0.000172758
0.000397206
0.00310011
0.000145338
0.000151397
0.00014604
0.000145505
0.000146142
0.000353706
0.000142176
0.000143549
0.0105021
0.000153804
0.00283022
0.000142892
0.000138214
0.000172942
0.00702291
0.00014648
0.0025213
0.00016226
0.00035687
0.000169623
0.000140695
0.000243522
0.000141458
0.000153152
0.000147333
0.000138537
0.103076
0.000352788
0.10018
0.000982024
0.0053889
0.00045532
0.010337
0.000140021
0.000148366
0.0420082
0.000143419
0.000148279
0.000154795
0.000144784
0.00035285
0.000146841
0.000242519
0.00240506
0.000134075
0.00278794
0.000149954
0.000141923
0.00016422
0.000163755
0.000166477
0.00016936
0.000170253
0.000354814
0.000147453
0.000142939
0.000141783
0.00016798
0.00370501
0.00014021
0.000149433
0.000439934
0.00037186
0.000141139
0.000171122
0.000171439
0.000139839
0.000144146
0.000144557
0.000331478
0.0817344
0.000171269
0.000150984
0.000143684
0.000170178
0.000228863
0.000146561
0.000242335
0.000348754
0.000146278
0.000170422
0.000876715
0.000639096
0.000175152
0.000134766
0.000139086
0.000238609
0.000192304
0.00111025
0.000159733
0.000396218
0.000169464
0.00627059
0.0044918
0.109068
0.00295719
0.00970114
0.00365523
0.000404876
0.000147964
0.00277986
0.000148801
0.000302732
0.000151756
0.000150618
0.000171353
0.000285793
0.00600532
0.000152096
0.000145772
0.00023865
0.000318414
0.000380287
0.000139204
0.000141549
0.000143639
0.000158867
0.000149299
0.000166767
0.00990979
0.00350749
0.00015771
0.000141833
0.00177587
0.000148271
0.000144651
0.000267526
0.000143986
0.000155081
0.000136055
0.000408561
0.0001903
0.00379932
0.000151375
0.000237252
0.000276891
0.00016319
0.00764143
0.0501811
0.00053028
0.00625896
0.00014099
0.000146388
0.000171898
0.000145407
0.000146119
0.000142843
0.000149444
0.000167793
0.00019531
0.000140812
0.00070812
0.000147324
0.000447876
0.000150627
0.00326222
0.00028286
0.000194309
0.0641826
0.00834112
0.000212379
0.000512376
0.0414303
0.000149415
0.000146854
0.000203183
0.000167434
0.00121359
0.000140748
0.000149519
0.00176121
0.000143315
0.000139259
0.000148153
0.000135832
0.00510768
0.000147226
0.000167064
0.000148137
0.0287628
0.000142753
0.0263018
0.00543469
0.000397013
0.00618894
0.000134607
0.00017114
0.000148659
0.000143695
0.000362089
0.000227524
0.0141284
0.00449376
0.000134543
0.000152924
0.000156865
0.000145621
0.00735758
0.000140723
0.000164017
0.00062753
0.00433713
0.00898903
0.000142787
0.000148684
0.00603201
0.000189627
0.00040214
0.000274707
0.000463542
0.00176172
0.000152207
0.000141062
0.000140606
0.000147905
0.00168978
0.00015221
0.00207441
0.000144366
0.000147791
0.000346056
0.00013733
0.000376578
0.000167285
0.000146881
0.000171345
0.000270165
0.000138871
0.000156041
0.0138236
0.000145644
0.000146351
0.000170375
0.101716
0.000156587
0.000195918
0.000137523
0.000299254
0.00400622
0.000218502
0.000145028
0.000138882
0.000172527
0.000146029
0.00501017
0.00620251
0.00235423
0.00201915
0.000143274
0.000209002
0.000141037
0.000232807
0.000145492
0.00779752
0.0061955
0.000144964
0.00280195
0.000143369
0.0473674
0.000167704
0.00013714
0.000614301
0.00013992
0.000140365
0.000138823
0.000132987
0.000187043
0.00440288
0.000145135
0.00013795
0.000151415
0.000134469
0.00014856
0.000150221
0.000142042
0.000144934
0.0143165
0.000191234
0.000134193
0.000151081
0.00015149
0.000144388
0.00366671
0.00961314
0.000144894
0.000141118
0.000149446
0.00167685
0.000145761
0.000150454
0.000151586
0.00020353
0.000134499
0.000152847
0.00619435
0.000145252
0.00539928
0.000142845
0.00014513
0.000141003
0.000141879
0.000138473
0.000143867
0.00350296
0.00386853
0.00013811
0.000155267
0.000159679
0.000601364
0.000169038
0.000190845
0.000143269
0.00014975
0.000205111
0.000152641
0.00355435
0.000214278
0.000141372
0.000144125
0.0787367
0.000149197
0.0141859
0.000299212
0.00014126
0.00962188
0.00497834
0.0054946
0.0101921
0.00164614
0.00016796
0.000140852
0.107288
0.000145266
0.000155521
0.000176566
0.000136271
0.000143558
0.0339911
0.000139138
0.0126483
0.000473032
0.000149279
0.000144941
0.00867615
0.000142636
0.00781704
0.000136813
0.00783148
0.000229258
0.00144956
0.000142789
0.000140361
0.000149954
0.00929428
0.00915077
0.003678
0.0246599
0.000192511
0.000143801
0.0115999
0.0481134
0.000143688
0.000136152
0.000171166
0.000141078
0.0643646
0.000215965
0.000137643
0.00407324
0.000140213
0.000139689
0.000136658
0.000143264
0.000143305
0.0564976
0.000142145
0.0117728
0.000140332
0.000149362
0.000148984
0.000147417
0.00014198
0.000143426
0.00034899
0.000138354
0.000211331
0.000365898
0.00485654
0.000169515
0.0084155
0.000187056
0.000143487
0.000134342
0.000142839
0.000134708
0.0350646
0.00376358
0.000153894
0.000152688
0.000363881
0.000151686
0.00708876
0.000149164
0.000141066
0.000145476
0.0051817
0.00198006
0.000339424
0.0385485
0.000171298
0.00423512
0.00866374
0.000144087
0.000141445
0.000139136
0.000164772
0.000166736
0.0182305
0.0654685
0.000169161
0.000140266
0.00019327
0.000142127
0.00405605
0.00014312
0.00282876
0.00014981
0.000539641
0.000163769
0.00014885
0.000171306
0.00364927
0.000168606
0.015447
0.000141153
0.000138984
0.000144642
0.00014344
0.00434305
0.000138483
0.000148032
0.000165556
0.000134214
0.00240376
0.000315722
0.000190215
0.000144201
0.000146144
0.000392431
0.000729745
0.000141269
0.000142954
0.000331933
0.000143079
0.000144037
0.000403325
0.000169797
0.00576562
0.00600417
0.00746539
0.000171855
0.000141746
0.000144231
0.000163063
0.000141167
0.000141247
0.0116496
0.000332662
0.000148594
0.000142764
0.000140332
0.000150959
0.081517
0.000142461
0.000150666
0.000145276
0.000136965
0.000141052
0.00256974
0.000161332
0.00014083
0.000136833
0.000148532
0.000138859
0.000172904
0.00700573
0.000175576
0.00013996
0.000143176
0.000143985
0.000142092
0.0011759
0.000143763
0.00281586
0.000251511
0.000141243
0.000138471
0.0031173
0.000138733
0.000140059
0.000140567
0.00185222
0.000170523
0.000204959
0.000140934
0.000133861
0.000144786
0.00551513
0.000142051
0.000148321
0.000177618
0.000990196
0.000196766
0.000133769
0.00411209
0.000130917
0.000261126
0.000140502
0.00013698
0.000138619
0.000146343
0.00014322
0.000367461
9.57403e-05
0.00377945
0.000177353
0.000177283
0.000942932
0.00014412
0.00823475
0.00226425
0.000154015
0.0066308
0.00021153
0.00449289
0.000142469
0.0122327
0.00014633
0.000138906
0.000148083
0.00230948
0.00884594
0.000155326
0.00368214
0.0747933
0.0016667
0.000143233
0.000155386
0.000173377
0.000712677
0.000443349
0.00017061
0.000146481
0.000167068
0.00119124
0.000140414
0.00590902
0.000151681
0.0146896
0.000138211
0.000137615
0.000164579
0.000162694
0.0459267
0.00347542
0.000506437
0.000140453
0.000144609
0.000310031
0.00477321
0.000314861
0.000139672
0.00015613
0.000138943
0.000140772
0.000141011
0.00128962
0.00113997
0.00145314
0.000682699
0.000323871
0.0143779
0.000140528
0.000146741
0.000147577
0.000139134
0.000168373
0.00014159
0.000144525
0.000143944
0.000140204
0.000161602
0.000532269
0.000191465
0.000140053
0.000140972
0.000338718
0.000178839
0.000154188
0.000177899
0.00279836
0.000359792
0.000142568
0.000162761
0.000244993
0.000140126