/*--------------------------------*- C++ -*----------------------------------*\
| =========                 |                                                 |
| \\      /  F ield         | OpenFOAM: The Open Source CFD Toolbox           |
|  \\    /   O peration     | Version:  v2012                                 |
|   \\  /    A nd           | Website:  www.openfoam.com                      |
|    \\/     M anipulation  |                                                 |
\*---------------------------------------------------------------------------*/
FoamFile
{
    version     2.0;
    format      ascii;
    class       volScalarField;
    location    "750";
    object      k_0;
}
// * * * * * * * * * * * * * * * * * * * * * * * * * * * * * * * * * * * * * //

dimensions      [0 2 -2 0 0 0 0];


internalField   nonuniform List<scalar> 
10042
(
0.000469799
0.0125048
0.000197082
0.000141777
0.000142169
0.000380669
0.0267251
0.00274273
0.000134705
0.000193088
0.00382121
0.0113286
0.000167349
0.000142579
0.000146792
0.000142586
0.00292186
0.00369095
0.000153891
0.000162957
0.000167273
0.000443696
0.000141656
0.00758787
0.000141212
0.00015051
0.000189822
0.000134014
0.000199542
0.00527036
0.000157384
0.000168592
0.000134469
0.0001344
0.0027672
0.00329293
0.000150176
0.000135655
0.000149996
0.000147195
0.00592862
0.000134589
0.00623903
0.0170533
0.000141396
0.000141267
0.000132856
0.000146431
0.000200438
0.0965847
0.0173092
0.000140754
0.0013037
0.000153508
0.00555396
0.0347123
0.000166496
0.000721601
0.00014774
0.000130692
0.000200528
0.0148616
0.000549864
0.0032423
0.00240839
0.0001453
0.000161094
0.00163354
0.000132652
0.00128771
0.063032
0.000152416
0.00013774
0.000147439
0.000145002
0.0480889
0.000190654
0.00013283
0.000193888
0.000153918
0.0170544
0.00670823
0.000169965
0.000140155
0.000177313
0.000256401
0.00015964
0.000179387
0.000141882
0.000114745
0.000160571
0.000146799
0.0003161
0.000266831
0.00296876
0.000143898
0.0708432
0.000161368
0.00476869
0.000147127
0.000160277
0.000217784
0.000148737
0.000165052
0.000156297
0.000146982
0.00293124
0.000144316
0.0201527
0.000147457
0.000147067
0.00822832
0.00021459
0.00296819
0.00139911
0.000132625
0.000209776
0.000155484
0.000512797
0.000132421
0.000130672
0.00625045
0.00520926
0.0001415
0.00021185
0.00014301
0.00014352
0.0126988
0.000296125
0.000208199
0.000135567
0.000143848
0.00014624
0.000143337
0.00613305
0.0673335
0.000161042
0.000220481
0.000151597
0.00479962
0.000186019
0.0001382
0.00183957
0.000134046
0.000160561
0.000135687
0.000175407
0.00013252
0.000151359
0.0051654
0.000143943
0.000144937
0.000152553
0.000170383
0.00178299
0.000161149
0.000529759
0.0306601
0.000146655
0.000152578
0.000152827
0.000151403
0.0683501
0.000142355
0.000150469
0.00378194
0.000137618
0.000166051
0.00287846
0.000134173
0.00271713
0.00480789
0.00272498
0.000134258
0.000153498
0.00350211
0.000141448
0.000135582
0.000143258
0.000132651
0.000151405
0.000156948
0.000147421
0.000132248
0.00212519
0.000160069
0.000152586
0.000131186
0.0987915
0.00014617
0.0176875
0.000166489
0.000135751
0.000156503
0.0159903
0.000146747
0.0622763
0.00213917
0.0842807
0.000140292
0.00520355
0.000179173
0.00989597
0.000137203
0.00580127
0.000145128
0.0102402
0.000170344
0.000146705
0.000143448
0.000167428
0.000135981
0.0128225
0.00856464
0.000151489
0.00100432
0.000136764
0.00185989
0.000144002
0.00510272
0.107257
0.00172154
0.109517
0.000948454
0.000141761
0.000166999
0.000148996
0.000159586
0.000181053
0.000149068
0.000135622
0.000144292
0.000160204
0.000162322
0.000141432
0.00281629
0.000157316
0.0728721
0.000159124
0.00799495
0.00407201
0.000998043
0.000130611
0.000159305
0.000917517
0.000142903
0.000936379
0.000158587
0.000152839
0.000146706
0.000155576
0.0001359
0.000353298
0.000903991
0.000150739
0.000156241
0.000149775
0.000150783
0.0705622
0.000141775
0.00090809
0.000136178
0.000140641
0.000132971
0.000167873
0.000667081
0.00075407
0.000306622
0.000163096
0.000144492
0.000143773
0.0946155
0.0001404
0.0913541
0.00015003
0.000536128
0.000149914
0.000141195
0.000163783
0.0133757
0.000134004
0.000767292
0.0497743
0.000149674
0.000161671
0.0849988
0.000206175
0.000133421
0.000394792
0.000148504
0.000165721
0.000189022
0.000165134
0.000754844
0.00225991
0.000142843
0.000274552
0.000159185
0.000143862
0.000137333
0.000152337
0.0122357
0.000131223
0.00392708
0.000205673
0.00649434
0.000141445
0.000165762
0.000296827
0.000866048
0.000155637
0.000142841
0.000143758
0.000142694
0.000188742
0.000364302
0.000132996
0.00166745
0.00737249
0.000132513
0.000154624
0.0972525
0.000494429
0.00634228
0.00317416
0.000154611
0.000241023
0.000143162
0.000157831
0.000164912
0.000144798
0.000144774
0.000445957
0.000146979
0.00957063
0.000446424
0.0177775
0.00628297
0.000136087
0.0021626
0.000190921
0.000168867
0.000130637
0.000240287
0.000157573
0.000135499
0.000139404
0.000143424
0.000168926
0.0791807
0.000148299
0.00296767
0.000168675
0.000143086
0.012288
0.000286786
0.000149334
0.000169115
0.0809109
0.000158134
0.000146505
0.000151251
0.000150457
0.00443787
0.00157894
0.000150714
0.000141173
0.000164257
0.000164695
0.0286882
0.000130818
0.000171316
0.000140801
0.000149486
0.000228513
0.000142615
0.000481773
0.0114069
0.000491199
0.000223795
0.000145315
0.00880631
0.000180857
0.00014274
0.000173772
0.00013254
0.000145347
0.000132303
0.000146758
0.000133372
0.000149603
0.0560551
0.000148294
0.000256215
0.000949662
0.0011386
0.000142307
0.00272263
0.000150751
0.000168807
0.000140863
0.102193
0.000160806
0.00774079
0.0707055
0.000143499
0.000188676
0.000154284
0.00896087
0.000148826
0.00774468
0.000162015
0.000753481
0.000148045
0.00421137
0.000152091
0.000164146
0.0203364
0.000133309
0.000150406
0.000144508
0.000750334
0.000135574
0.000132111
0.000186468
0.000155683
0.00018112
0.00746694
0.000141618
0.000168854
0.000156017
0.000132848
0.000162245
0.00316201
0.000150861
0.000150108
0.0638819
0.000613555
0.000154733
0.0480321
0.000134183
0.000185225
0.000180762
0.102673
0.0883931
0.00292615
0.00413445
0.0415983
0.00302845
0.000131988
0.000460721
0.000366962
0.000522244
0.00017327
0.000141639
0.000139697
0.00124059
0.0577583
0.000132283
0.000135874
0.000159735
0.000142092
0.000147304
0.000148873
0.00014607
0.000165182
0.000484716
0.000149521
0.000185242
0.00303402
0.037116
0.000135521
0.089359
0.0704776
0.00255935
0.000145236
0.00015673
0.00015413
0.000778849
0.00014397
0.00143371
0.000148056
0.00414614
0.000139847
0.000155459
0.000135809
0.000357687
0.00755161
0.000153016
0.00013982
0.000142987
0.0143104
0.000136074
0.000514654
3.55472e-05
0.000191367
0.000140603
0.000703492
0.000715111
0.0692308
0.000145882
0.000157977
0.000739853
0.012999
0.000178184
0.000979846
0.000147546
0.000885458
0.000171156
0.000166493
0.000156523
0.0105624
0.000140039
0.000141522
0.000148073
0.00078463
0.000141562
0.0111062
0.000142083
0.000145293
0.000135609
0.000164113
0.00136182
0.000148701
0.000150102
0.00775228
0.0025965
0.000180428
0.000148506
0.000144435
0.00111691
0.0652998
0.000145692
0.000134299
0.00010533
0.000144181
0.000144107
0.000227918
0.00013546
0.00100201
0.000140955
0.000184464
0.000191447
0.107451
0.000141652
0.000157681
0.000145209
0.000137098
0.00628484
0.000130609
0.00761666
0.000178018
0.000134672
0.000189334
0.0288238
0.00703215
0.00150846
0.000146667
0.000134293
0.000132406
0.000142038
0.000262448
0.000147588
0.0147464
0.000143686
0.000135321
0.0464379
0.000156524
0.000308345
0.000157031
0.000139422
0.0500586
0.0056365
0.000185144
0.0106147
0.000143672
0.000158776
0.00013564
0.000134749
0.000143483
0.000142908
0.000146256
0.000146645
0.0941192
0.000147809
0.000221386
0.000140894
0.000174049
0.000133086
0.000184644
0.00104891
0.000134717
0.000141089
0.00258829
0.00137069
0.000133216
0.000548977
0.000141482
0.000359409
0.000135761
0.000151779
0.000136906
0.0731314
0.000133124
0.000141639
0.000143459
0.000732057
0.000152538
0.000143466
0.000147004
0.000220598
0.000142293
0.00014178
0.00013758
0.000141843
0.000157116
0.000141578
0.000168995
0.000135946
0.0708116
0.0173134
0.00710909
0.000148297
0.000154184
0.00014355
0.000213614
0.000150285
0.00702528
0.00407673
0.00638693
0.000358863
0.00147804
0.000143644
0.000145105
0.00126907
0.000230238
0.000226677
0.000183387
0.000147202
0.00684081
0.000140284
0.000146164
0.000135844
0.000135955
0.000152334
0.000764796
0.000149665
0.000149444
0.0602014
0.000143061
0.000217747
0.000143604
0.000149322
0.00027917
0.000145941
0.0085775
0.000144082
0.000142519
0.000213621
0.000145615
0.000133081
0.000158506
0.000140963
0.000139496
0.000815629
0.000236178
0.0171843
0.000146145
0.000141457
0.000140838
0.00536744
0.000153142
0.000145009
0.000139028
0.000138959
0.00200908
0.0901436
0.000349694
0.000149737
0.000161417
0.0789314
0.000158316
0.000173551
0.000180773
0.00518636
0.00355743
0.00284519
0.00014015
0.00014662
0.000144625
0.0036766
0.000139986
0.000155298
0.000146437
0.000130673
0.000226869
0.000151486
0.0978127
0.0866669
0.000133346
0.000141298
0.000131966
0.00289797
0.000135854
0.00705079
0.000161291
0.0977522
0.000141279
0.000142391
0.000134763
0.000141435
0.000144496
0.000132559
0.000144071
0.000148358
0.000279104
0.000154779
0.00669226
0.000143623
0.000192725
0.00556847
0.00015358
0.0130595
0.000140654
0.000142813
0.00016743
0.000148734
0.0106473
0.000146272
0.000147616
0.000135953
0.00814287
0.000141731
0.00381111
0.000173575
0.000141657
0.000226534
0.00315328
0.000142229
0.00013799
0.000182454
0.000171226
0.00657702
0.000227914
0.000235066
0.000325866
0.00014586
0.000146235
0.000144835
0.000167723
0.00016804
0.00533445
0.00322309
0.000130691
0.000143507
0.000149286
0.000184029
0.000171173
0.0059771
0.000147246
0.0001461
0.005035
0.000141101
0.000180579
0.000167929
0.000162913
0.00445516
0.000166845
0.000141646
0.000152661
0.000177347
0.000141928
0.00256001
0.000148089
0.00017684
0.00015561
0.00903086
0.00015091
0.00016458
0.000175653
0.000148662
0.000172711
0.000134142
0.000173151
0.000141957
0.000147775
0.000143101
0.000143971
0.000151908
0.00018032
0.000154782
0.000146639
0.00254408
0.000134271
0.000141448
0.000140942
0.000132117
0.000432576
0.000164728
0.000152368
0.000238703
0.00233162
0.000144341
0.000207228
0.00639747
0.000138781
0.000143487
0.000131961
0.00274092
0.00558364
0.000155985
0.000140524
0.000184481
0.0453282
0.0639188
0.000155596
0.00368982
0.0191548
0.00694629
0.000164038
0.000132933
0.000148771
0.00708875
0.000210903
0.000147799
0.0779388
0.000241166
0.00435231
0.00998494
0.000143814
0.000125305
0.00587252
0.00106589
0.000629747
0.00016739
0.0830888
0.000151572
0.00345067
0.000145506
0.000218531
0.000155933
0.000187233
0.000131276
0.000146629
0.000141239
0.000437314
0.000145001
0.000130795
0.0437917
0.000144656
0.000159783
0.00015769
0.00438484
0.000143844
0.000150563
0.00014535
0.000145999
0.000142956
0.000156388
0.000139626
0.052994
0.000239509
0.000105105
0.000145548
0.0154788
0.000139234
0.000180058
0.00331638
0.000177086
0.000143273
0.000132614
0.000145593
0.000151244
0.00338551
0.000185583
0.000141087
0.0109408
0.000143566
0.000145798
0.00894446
0.000132272
0.000146349
0.00822709
0.000140021
0.000178977
0.000151546
0.000199694
0.000159334
0.00018189
0.000201232
0.000143933
0.0863185
0.0864633
0.000140997
0.000170865
0.10165
0.0505154
0.00313686
0.000154581
0.000139522
0.000204254
0.000146668
0.000158565
0.00799364
0.000154224
0.000132385
0.000164628
0.00209803
0.00576419
0.000132541
0.000131971
0.000151211
0.000147503
0.00144081
0.00649525
0.000137397
0.000156101
0.00589787
0.000144902
0.000156531
0.0792133
0.000154704
0.00607768
0.000150352
0.000146268
0.000146375
0.000160503
0.000212857
0.000625767
0.000144296
0.00653264
0.00150626
0.0160623
0.000155322
0.00015396
0.0826757
0.000166768
0.00725117
0.00016206
0.000144954
0.000143163
0.0159715
0.00725554
0.000150028
0.000155687
0.00016898
0.00014264
0.000188147
0.000149874
0.000142807
0.000153524
0.000165589
0.000141393
0.000141287
0.102917
0.000139973
0.00013922
0.000181489
0.000157504
0.00476459
0.000156313
0.000147144
0.0166013
0.00018391
0.000156642
0.000171117
0.007876
0.000141103
0.000134762
0.000156979
0.000209483
0.000140482
0.000151122
0.000143123
0.000140216
0.000142882
0.00901223
0.00014536
0.000379322
0.000145758
0.000177357
0.000140296
0.000147577
0.000189394
0.00415208
0.00713451
0.000143454
0.000152757
0.00424179
0.00032821
0.000176016
0.000149356
0.00690842
0.00014129
0.000203269
8.30985e-05
0.000144758
0.000152116
0.000140913
8.09224e-05
0.0101482
0.000339631
0.000145874
0.000151235
0.000157988
0.000310672
0.000139129
0.000137894
0.000172176
0.000131418
0.000138499
0.00628
0.000150296
0.000433729
0.000135592
0.000138226
0.000136142
0.000174297
0.0001532
0.000152188
0.0751853
0.000138657
0.000145717
0.000417543
0.000143837
0.000122545
0.000157473
0.000167756
0.00441145
0.000154302
0.00423029
0.000163141
0.000145837
0.0943254
0.00014909
0.000142127
0.0001328
0.000140766
0.0001711
0.011956
0.000179419
0.00236372
0.00902807
0.000756276
0.000200128
0.00453972
0.000154233
0.0043881
0.000134157
0.000159277
0.00014633
0.00014765
0.000150183
0.057933
0.00230813
0.000143447
0.00730196
0.000138773
0.000516771
0.000145616
0.000155398
0.000159001
0.000276641
0.00670964
0.000142288
0.000133417
0.0893356
0.00015293
0.000233544
0.000196819
0.00336189
0.000151771
0.00658796
0.000540926
0.000139306
0.000138244
0.000141249
0.000158617
0.000143336
0.000150551
0.000151562
0.000149962
0.000152463
0.000146556
0.0001473
0.00341304
0.00647803
0.000133588
0.000239388
0.000152204
0.000169361
0.00018633
0.000215788
0.000139364
0.000172582
0.000189554
0.000136332
0.000182201
0.00496086
0.00014714
0.000138388
0.000153514
0.00688878
0.00589964
0.000136798
0.00115221
0.000146425
0.000147263
0.0882822
0.000141062
0.000144635
0.000139008
0.000146896
0.0001563
0.00213981
0.000170615
0.000142574
0.000143216
0.000143777
0.000141597
0.00258918
0.00013328
0.000171354
0.00119514
0.000447159
0.000137842
0.00356841
0.000139035
0.000238406
0.00015302
0.000185807
0.000133988
0.00770529
0.0544898
0.0172334
0.000144899
0.000170509
0.00328774
0.00933648
0.000153251
0.00236127
0.000142259
0.0105736
0.00704008
0.000178134
0.0472395
0.0074148
0.00182006
0.0919646
0.00216058
0.00729493
0.000138216
0.00015374
0.00192278
0.000192141
0.000143127
0.00578069
0.000149444
0.000139847
0.000139898
0.000191241
0.000183056
0.000174077
0.000914842
0.000165875
0.00923614
0.000149971
0.000141238
0.00014518
0.00143471
0.00559318
0.000165736
0.00394376
0.000149238
0.000151109
0.000168417
0.0077986
0.000181628
0.000139864
0.000224724
0.0105281
0.000147964
6.54609e-05
0.000136704
0.000164843
0.000172984
0.000140527
0.00512567
0.000324055
0.000142984
0.00015005
0.000140424
0.00899981
0.000156747
0.066996
0.000972551
0.000141003
0.000142841
0.000133787
0.00017118
0.000138988
0.000214997
0.000163863
0.000209786
0.00695444
0.000150882
0.000160248
0.00730597
0.000148539
0.000151402
0.000151993
0.000145016
0.0671861
0.00343055
0.00015005
0.0568537
0.000174002
0.00603422
0.000140056
0.000145216
0.00018543
0.000156217
0.000180138
0.00583546
0.000154215
0.000156072
0.00398765
0.000172165
0.000155789
0.00260743
0.00481953
0.00306702
0.000140539
0.000132939
0.0050037
0.000139938
0.00041722
0.000351353
0.000204877
0.00741133
0.000149912
0.000146717
0.0819887
0.000280985
0.000141924
0.0840659
0.000170843
0.000142704
0.000186892
0.000150064
0.000145583
0.000173998
0.000156498
0.000142838
0.000153121
0.000140822
0.000155401
0.0080318
0.000162048
0.0106277
0.000143955
0.000159106
0.000140732
0.000143091
0.00466224
0.000145745
0.00347904
0.0039799
0.000150605
0.00545534
0.000163924
0.000791161
0.000132103
0.00333763
0.000117948
0.000205574
0.000154808
0.000151585
0.000139212
0.0507545
0.000155767
0.00680688
0.000165128
0.000136262
0.00361391
0.000131784
0.0919052
0.000140775
0.0265558
0.000144536
0.00013777
0.000134865
0.00289121
0.000139647
0.000137821
0.000134255
0.000140611
0.000143595
0.00018651
0.00253706
0.000140593
0.000157543
0.000146746
0.000140662
0.000138964
0.00287388
0.0708077
0.000156089
0.000144466
0.000139085
0.000135858
0.000157707
0.000155729
0.000134606
0.00568821
0.0246717
0.0021511
0.000139378
0.000140707
0.000143222
0.000152466
0.0001383
0.000150205
0.000143632
0.000139674
0.000196093
0.000148944
0.000194675
0.000975691
0.0742245
0.000154919
0.000140662
0.000142344
0.0980568
0.000147222
0.000162384
0.000170177
0.000137665
0.00014393
0.000141336
0.00858171
0.000144404
0.00468181
0.00374759
0.000174065
0.000143746
0.000156581
0.00513742
0.000154724
0.000172724
0.000157341
0.000166322
0.000137367
0.000156964
0.0226126
0.00738809
0.000139523
0.00014567
0.000486365
0.000154965
0.00017254
0.000171186
0.000546071
0.000143394
0.000156582
0.000538462
0.000757781
0.000188978
0.000141628
0.000141885
0.000138706
0.000146669
0.000207931
0.00703126
0.0059114
0.000138137
0.102431
0.000156848
0.0259408
0.0102864
0.000141331
0.000809738
0.000207056
0.000138886
0.000194936
0.000168383
0.000146418
0.00757106
0.000139742
0.0633434
0.000174213
0.0475651
0.0856407
0.000173978
0.000144258
0.000156432
0.000150192
0.000140533
0.000135463
0.000137069
0.0630429
0.000148749
0.00017416
0.00838326
0.0811722
0.000174089
0.000184994
0.000138773
0.0606256
0.000132676
0.00871566
0.0846669
0.0750517
0.0330583
0.00341846
0.0427827
0.000134125
0.00014598
0.000134826
0.000210092
0.000153671
0.014586
0.000154901
0.107652
0.000158744
0.000138788
0.000138729
0.000146022
0.000134137
0.000972799
0.0144805
0.0748929
0.000140063
0.000171184
0.000154788
0.000150628
0.000186895
0.000144452
0.00701542
0.00725346
0.000149805
0.000155431
0.00944719
0.000158602
0.000558598
0.000843913
0.000147967
0.00722011
0.000154774
0.0978442
0.00014054
0.000216193
0.00014406
0.000403603
0.000196213
0.000515571
0.0032991
0.0951602
0.000237219
0.00139345
0.000148116
0.000150878
0.00424082
0.00181254
0.000180574
0.000158247
0.0976689
0.00154789
0.00558881
0.000168548
0.00714808
0.000159533
0.000167949
0.0123546
0.000154656
0.000157436
0.000170897
0.000133183
0.00013741
0.000140855
0.0001438
0.0640041
0.000148944
0.00241153
0.000132394
0.00645947
0.00437492
0.0104642
0.0001378
0.000148359
0.00983614
0.00382275
0.000167119
0.00307561
0.0533566
0.0105083
0.000139991
0.000165745
0.000156866
0.000168575
0.000197641
0.00614046
0.00449044
0.000175629
0.000145862
0.000152281
0.00231121
0.00423074
0.000173949
0.00346751
0.000140577
0.000170494
0.0001519
0.00295018
0.000153117
0.000136349
0.000140223
0.000151664
0.00031552
0.00314195
0.000147785
0.000192085
0.0030128
0.000153898
0.00519743
0.000170805
0.000166955
0.000169014
0.000169328
0.059753
0.000141492
0.000140537
0.000151106
0.00115171
0.000144111
0.000169442
0.000149813
0.000152412
0.000147515
0.000269243
0.000172026
0.000153233
0.000147248
0.0021477
0.00015748
0.00354206
0.000152058
0.000164841
0.000141325
0.0386283
0.000572643
0.000173993
0.030645
0.000143996
0.000166312
0.00618016
0.000158639
0.0056655
0.0820729
0.000146917
0.000151349
0.0819222
0.000143424
0.000313531
0.000147133
0.000500348
0.00691508
0.000761416
0.000152979
0.000140803
0.000141945
0.000143568
0.000156166
0.000132519
0.000147208
0.000140567
0.000138726
0.000154177
0.000152184
0.000151868
0.000151112
0.0929929
0.000145611
0.010821
0.000148749
0.000145435
0.0782036
0.000141412
0.000856113
0.00478393
0.000145357
0.000150148
0.00016895
0.000244011
0.000171343
0.0471997
0.000163257
0.000156867
0.000430375
0.000139182
0.105437
0.000146554
0.00128089
0.000134033
0.0579958
0.0741878
0.00623398
0.000148039
0.000154495
0.000139398
0.000152701
0.000215766
0.000140967
0.000143538
0.000171452
0.000168605
0.0169764
0.00101222
0.000149106
0.000177564
0.000144569
0.000158486
0.000150499
0.000143507
0.000149559
0.0740879
0.0521806
0.000225506
0.000153674
0.000149672
0.000151352
6.53045e-05
0.0214221
0.000195362
0.000330068
0.000329838
0.000151579
0.000153734
0.000176197
0.000139687
0.000154202
0.000176792
0.000151272
0.00439781
0.000151396
0.0076259
0.000143431
0.00014977
0.000169664
0.000151859
0.000153351
0.00015502
0.000160924
0.00266848
0.000157516
0.000158908
0.000146689
0.0824134
0.00517806
0.000155616
0.000148292
0.000138777
0.000154554
0.000145077
0.000233558
0.000140334
0.000147479
0.000145797
0.000168811
0.000161021
0.000146262
0.0390503
0.000148445
0.000150158
0.0407471
0.00015369
0.000155674
0.000507597
0.000149398
0.00450476
0.00013985
0.000138864
0.000149556
0.000177787
0.000137235
0.0040393
0.000149678
0.000141551
0.000338229
0.004247
0.0551414
0.000437506
0.00401971
0.000159868
0.000137904
0.000153198
0.00532535
0.000161771
0.00859121
0.000151029
0.000163188
0.000261469
0.00422967
0.000138605
0.106726
0.00218754
0.000140604
0.000159764
0.000149015
0.000149693
0.00478873
0.000233176
0.000145972
0.000139532
0.000134014
0.0030775
0.000147516
0.00474358
0.000166524
0.000147248
0.000140428
0.000141639
0.00115211
0.00450665
0.000140038
0.0607048
0.0134678
0.000149779
0.00244471
0.000146933
0.000138054
0.000138612
0.000146802
0.000137263
0.000145695
0.0001486
0.000152052
0.000147704
0.000190943
0.000153187
0.00678697
0.00016602
0.000143262
0.00850122
0.000134036
0.000144375
0.00019509
0.000140419
0.000176253
0.000141185
0.000179167
0.0843477
0.000138191
0.0672341
0.0059281
0.000146036
0.000148489
0.000143944
0.0487499
0.000146597
0.00902193
0.00436308
0.000150499
0.000160455
0.000179561
0.000216832
0.000145346
0.000450381
0.00014752
0.00418047
0.0352413
0.000188863
0.00567392
0.000144585
0.000387197
0.00521088
0.00450145
0.000145894
0.00017556
0.000152532
0.000173448
0.000137434
0.000156969
0.000649192
0.000159273
0.00190924
0.00399335
0.000170984
0.00371074
0.000137594
0.000418818
0.000146078
0.000158048
0.001134
0.00285677
0.109766
0.000166137
0.000156979
0.00144551
0.000170916
0.00014067
0.000138754
0.000149786
0.000149051
0.000156125
0.000141511
0.000428803
0.000157241
0.000142843
0.000136521
0.000143131
0.000142747
0.000506565
0.000139948
0.0387293
0.000149572
0.000362326
0.000151672
0.000145193
0.000131949
0.000188957
0.000149031
0.0908499
0.000582869
0.00411456
0.000158909
0.000149449
0.000143838
0.000140343
0.000140253
0.00159112
0.000150135
0.000149408
0.000385882
0.000145256
0.000151041
0.107479
0.0230731
0.00252412
0.000153529
0.000709857
0.000272432
0.000141047
0.000139563
0.000171004
0.000332939
0.0369822
0.00211244
0.01285
0.000143733
0.0001391
0.000684435
0.000163116
0.000149032
0.000195971
0.000148605
0.000152473
0.00639163
0.000164241
0.00020072
0.000157939
0.000157253
0.000176358
0.00539962
0.000146216
0.000140252
0.000144397
0.000759776
0.000140026
0.000155229
0.00620158
0.107816
0.000137754
0.00014058
0.00013219
0.000146956
0.000145396
0.000175432
0.0156255
0.000150214
0.0567514
0.00166027
0.0405007
0.000169493
0.000151024
0.00014592
0.000142208
0.000139362
0.000135413
0.000146776
0.000379313
0.00225573
0.0001438
0.000137686
0.000149248
0.000146841
0.000440619
0.000176142
0.0146593
0.0054192
0.000718509
0.000197674
0.000142969
0.000143147
0.000142567
0.000147036
0.000450866
0.000143465
0.000154461
0.00274482
0.000251912
0.00296894
0.000785582
0.0847536
0.00408581
0.00014349
0.000172752
0.000395591
0.00334379
0.000145333
0.000151406
0.000146006
0.000145499
0.000146136
0.000351583
0.000142179
0.00014355
0.0106002
0.000153816
0.0027279
0.000142892
0.000138213
0.000172935
0.0066984
0.000146985
0.00249251
0.000162279
0.000355496
0.000169674
0.000140695
0.000244271
0.000141458
0.000153163
0.00014733
0.000138539
0.103397
0.000352785
0.100162
0.000937728
0.00531332
0.000451447
0.0104798
0.000140019
0.000148355
0.0410588
0.000143419
0.000148277
0.000154796
0.000144779
0.000352667
0.00014684
0.000242999
0.00240639
0.000134076
0.00270709
0.000149944
0.000141923
0.00016422
0.000163756
0.000166477
0.000169358
0.000170249
0.000352582
0.000147442
0.000142939
0.000141764
0.000168018
0.00370877
0.00014021
0.000149418
0.000438367
0.000371731
0.000141139
0.000171118
0.000171436
0.000139833
0.000144143
0.000144554
0.000331493
0.0819105
0.000171267
0.000150988
0.000143684
0.00017017
0.000229262
0.000146551
0.000242796
0.000350068
0.000146279
0.000170415
0.000856431
0.000635589
0.000175159
0.000134766
0.000139086
0.000238887
0.000192277
0.00108293
0.000159742
0.000397361
0.000169607
0.00647564
0.00452613
0.109161
0.00295727
0.00993344
0.00368948
0.000388945
0.000147964
0.00281374
0.00014881
0.000303991
0.000151761
0.000150618
0.000171353
0.000285605
0.0060224
0.000152094
0.000145764
0.000238936
0.00031864
0.000378016
0.000139204
0.000141546
0.000143636
0.000158866
0.000149289
0.000166811
0.0101226
0.00350292
0.000157711
0.000141833
0.00207462
0.000148269
0.000144649
0.000257047
0.000143992
0.000155086
0.000136045
0.000454902
0.000190246
0.00382998
0.000151373
0.00023657
0.000268113
0.000163232
0.00766196
0.0501307
0.000560876
0.00652771
0.00014099
0.000146384
0.000172089
0.000145405
0.00014611
0.000142848
0.000149437
0.000167785
0.000195214
0.000140812
0.000748858
0.000147288
0.000440385
0.000150614
0.00356112
0.000282815
0.000194097
0.0645182
0.00819513
0.000212657
0.000656696
0.041178
0.000149413
0.000146854
0.0002035
0.000167424
0.00117302
0.000140748
0.000149536
0.00169716
0.000143316
0.000139258
0.000148137
0.000135834
0.00516066
0.000147223
0.000167094
0.000148133
0.0289247
0.000142753
0.0259215
0.00538116
0.000391538
0.00607363
0.000134608
0.00017114
0.00014865
0.000143692
0.000342065
0.00022706
0.014202
0.00443766
0.000134537
0.000152914
0.000156863
0.000145618
0.00736301
0.000140724
0.000164041
0.00062235
0.00426632
0.00898728
0.000142786
0.000148671
0.00591625
0.00018966
0.000399811
0.000274085
0.000464512
0.00170467
0.000152201
0.000141061
0.000140607
0.00014789
0.00170045
0.000152208
0.00207121
0.000144366
0.00014778
0.000334727
0.000137326
0.000376573
0.000167284
0.00014687
0.000171345
0.000270219
0.00013887
0.000156053
0.0136524
0.000145638
0.000146345
0.000170439
0.101641
0.000156594
0.000195606
0.000137524
0.000299297
0.00408355
0.000218508
0.000145022
0.000138881
0.000172578
0.000146019
0.00504842
0.00637514
0.00231476
0.0019603
0.000143273
0.000208954
0.000141038
0.000232706
0.000145487
0.0078308
0.00621081
0.000144959
0.00306335
0.000143369
0.0475277
0.000167762
0.000137141
0.000617258
0.000139917
0.000140366
0.000138826
0.000132986
0.000187065
0.00431606
0.000145129
0.000137949
0.000152271
0.00013447
0.000148544
0.000150224
0.000142041
0.000144931
0.0143616
0.000191334
0.000134188
0.000151087
0.000151492
0.000144384
0.00355138
0.00977831
0.000144889
0.00014112
0.000149463
0.0016786
0.00014576
0.000150447
0.000151586
0.000203521
0.000134493
0.000152843
0.00621137
0.000145246
0.00551421
0.000142844
0.000145129
0.000141003
0.000141879
0.000138473
0.000143864
0.00334954
0.00386873
0.00013811
0.000155258
0.000159697
0.00058745
0.00016905
0.000190846
0.000143266
0.000149751
0.000205133
0.000152629
0.00354183
0.000214011
0.000141372
0.000144119
0.0783279
0.000149199
0.0140172
0.000296634
0.00014126
0.00976589
0.00489248
0.0055205
0.0102514
0.00165314
0.000167972
0.000140852
0.107512
0.000145259
0.0001555
0.000176563
0.000136265
0.000143558
0.0345157
0.000139138
0.0125928
0.000474406
0.000149281
0.000144936
0.008471
0.000142636
0.00786835
0.000136814
0.00796843
0.000229236
0.00141087
0.000142789
0.000140361
0.000149956
0.0092454
0.00932468
0.00362701
0.0247131
0.000192291
0.000143798
0.0116489
0.0484623
0.000143688
0.000136156
0.000171167
0.000141078
0.0643511
0.000216347
0.00013764
0.00403374
0.000140213
0.000139687
0.000136659
0.000143262
0.000143305
0.0563689
0.000142144
0.0117619
0.000140336
0.000149362
0.000148973
0.000147403
0.000141979
0.000143424
0.000350533
0.000138354
0.000209929
0.000346768
0.00487231
0.000169512
0.0084367
0.000186954
0.000143493
0.000134343
0.000142839
0.000134708
0.0355698
0.00376316
0.000153896
0.000152689
0.00036438
0.000151677
0.00705652
0.000149156
0.000141066
0.000145468
0.00516426
0.00193345
0.000338573
0.0379758
0.000171295
0.00423998
0.00863887
0.000144094
0.000141445
0.000139135
0.000164789
0.000166754
0.0190263
0.0652076
0.000169177
0.000140266
0.000193293
0.000142127
0.00402627
0.000143115
0.0028253
0.000149813
0.000534024
0.000163809
0.000148852
0.000171303
0.00359513
0.000168604
0.0155001
0.000141152
0.000138983
0.000144638
0.000143437
0.00430497
0.000138486
0.000148019
0.000165546
0.000134209
0.00232003
0.000314787
0.000189356
0.000144204
0.000146134
0.000385826
0.000724705
0.000141269
0.000142954
0.000329811
0.000143079
0.000144034
0.000403071
0.000169793
0.00579787
0.00602496
0.00746964
0.000171866
0.000141749
0.000144233
0.000163081
0.000141167
0.000141249
0.0118415
0.000331537
0.00014858
0.000142768
0.000140332
0.000150961
0.0813346
0.000142465
0.000150669
0.000145277
0.000136966
0.000141052
0.00252921
0.000161366
0.000140831
0.000136829
0.000148534
0.000138858
0.000172896
0.0069738
0.000175876
0.000139963
0.000143182
0.000143987
0.000142095
0.00114486
0.000143763
0.00276218
0.000251259
0.000141243
0.000138471
0.00305216
0.000138732
0.000140057
0.000140567
0.00185674
0.000170524
0.000204898
0.000140935
0.000133857
0.000144782
0.00544476
0.000142054
0.000148315
0.000177632
0.000974201
0.000196741
0.000133769
0.00411549
0.000130919
0.000260835
0.000140502
0.000136972
0.000138618
0.000146345
0.000143224
0.000371781
9.19157e-05
0.00379744
0.000177365
0.000177252
0.00128547
0.000144119
0.00800235
0.00226797
0.000154002
0.00655522
0.000211536
0.00456974
0.000142469
0.0124233
0.00014633
0.000138905
0.000148045
0.00226475
0.00889571
0.000155341
0.00355949
0.0747531
0.00163288
0.000143233
0.000155389
0.000173439
0.000725498
0.000435082
0.00017062
0.000146481
0.000167128
0.00114736
0.000140414
0.005786
0.000151679
0.0148239
0.000138211
0.000137616
0.000164581
0.000162698
0.0461425
0.00340675
0.000496936
0.000140454
0.000144609
0.00030679
0.00483389
0.000315074
0.000139672
0.000156152
0.000138942
0.000140772
0.000141011
0.00126666
0.0011172
0.00142017
0.000668022
0.000323616
0.0144059
0.000140529
0.000146741
0.000147549
0.000139137
0.000168379
0.00014159
0.000144532
0.000143944
0.000140205
0.000161596
0.000524374
0.000191449
0.00014005
0.000140972
0.00033485
0.000178865
0.000154196
0.000177798
0.00279211
0.000357796
0.00014257
0.000162765
0.000244644
0.000140126