/*--------------------------------*- C++ -*----------------------------------*\
| =========                 |                                                 |
| \\      /  F ield         | OpenFOAM: The Open Source CFD Toolbox           |
|  \\    /   O peration     | Version:  v2012                                 |
|   \\  /    A nd           | Website:  www.openfoam.com                      |
|    \\/     M anipulation  |                                                 |
\*---------------------------------------------------------------------------*/
FoamFile
{
    version     2.0;
    format      ascii;
    class       volScalarField;
    location    "750";
    object      p;
}
// * * * * * * * * * * * * * * * * * * * * * * * * * * * * * * * * * * * * * //

dimensions      [0 2 -2 0 0 0 0];


internalField   nonuniform List<scalar> 
10042
(
0.00356831
-0.0689317
0.011395
-0.00356211
0.00179703
-0.0140743
-0.0469532
-0.0227995
0.00396534
-0.00578369
0.00658101
-0.0618092
-0.0247704
0.00454158
-0.0147262
0.00458011
-0.0181605
0.00616246
-0.0276092
0.00336051
-0.0229859
0.00390472
-0.00336855
-0.0412061
0.00117411
0.00184479
-0.00529051
0.00369754
-0.0170912
-0.029927
0.00323847
-0.0495153
0.00390052
0.00388687
-0.0217559
-0.0274439
-0.00599457
0.00428161
0.00319437
0.000546818
-0.0325604
0.00394297
0.02171
-0.016426
-0.00149478
0.00129589
0.00292764
-0.0142013
-0.011708
0.0181402
0.0198562
-0.0004908
-0.0158557
-0.0264797
-0.0440156
-0.116768
-0.0228103
0.00673503
-0.0108246
0.000248256
-0.0115765
-0.0696875
0.00700564
-0.0185904
0.0057231
0.00357956
0.00381895
0.000504218
0.00282728
0.00126592
0.0327404
-0.00320594
0.00455626
-0.0108467
0.00347426
0.0336926
0.0071977
0.00291338
0.00682518
-0.029079
-0.0233935
-0.0378768
0.00191158
0.00111294
-0.0012003
-0.020326
0.00349093
0.0125735
0.00414055
0.00645637
-0.0273445
-0.0153248
0.0020671
-0.0222624
0.00433482
-0.0026156
-0.163883
0.0030322
-0.0246851
-0.0113593
-0.0269268
-0.00844608
-0.00509938
-0.0504661
-0.0240543
-0.0058403
-0.0111247
0.00321567
-0.0357773
-0.0061764
-0.00967036
-0.0390524
-0.00652221
-0.0151619
0.00548325
0.00279055
0.0032317
0.00251764
0.00667271
0.00265028
0.000330448
-0.0495457
-0.0385553
-0.00151706
0.00662439
0.00433937
0.00434896
-0.0567457
-0.00376925
0.00281488
0.00430245
0.0032893
0.0048422
0.00243838
-0.0361264
0.0135948
0.00523963
-0.00785153
-0.0184007
-0.0205911
-0.00889931
0.00384956
0.000789509
0.00370181
-0.0120371
0.00430137
-0.00143205
0.00275735
-0.000903855
-0.0405086
0.00311824
0.00388855
-0.0191366
-0.0239948
0.00403503
-0.011114
-0.00496234
-0.131081
0.00483944
0.00175532
0.000945005
0.000472252
0.0135228
0.00419541
-0.0170008
-0.0355368
0.00454455
-0.0486558
-0.0251164
0.00381317
0.00298569
-0.0250916
-0.0233367
0.00381794
-0.0253747
-0.0301342
0.000434305
0.00429119
0.00316845
0.0028588
-0.0176758
-0.0202473
-0.0113589
0.00252222
6.3659e-05
-0.0352537
-0.00380921
0.000282558
0.0252813
0.00383805
-0.0767311
-0.021209
0.00434624
-0.0202794
-0.0445314
-0.0152832
0.00373985
0.00199899
-0.128544
0.000986418
0.00155284
-0.0019138
-0.0079338
0.00328952
-0.0329912
0.00468877
-0.0383883
-0.0235206
-0.00910637
0.0024421
-0.0509752
0.00323787
-0.00945715
-0.00260946
-0.00495789
0.000694425
0.00303138
-0.0061072
-0.00250804
0.00185408
-0.00984221
0.00295008
-0.0125911
8.32697e-05
-0.00357056
0.0014918
-0.000865582
0.00475159
-0.00511576
-0.0055673
0.00430682
0.00455092
-0.0334611
0.00261584
0.000647127
-0.0244168
0.00513915
-0.151978
-0.0119577
-0.0387604
-0.00703353
-0.0101081
0.000265483
0.000612832
-0.0219284
0.00161508
-0.00900337
-0.0112458
-0.0193048
0.00176034
-0.0244271
0.00436125
-0.00436894
-0.0280176
-0.00082688
0.00480249
0.00390993
0.000699848
-0.176017
-0.00182628
0.00633578
0.00434357
-0.000311037
0.00300002
-0.0251043
-0.0208102
0.00692308
-0.00320417
0.00323874
0.00466568
-0.00861598
0.0136626
0.00463929
0.0350693
0.0005186
0.00655116
-0.0232493
-0.00038426
0.0036033
-0.0349672
0.00373224
-0.0074836
-0.00213869
-0.0223786
-0.00647742
-0.0766193
0.0037358
0.00322804
0.00389529
0.00397495
-0.0196836
0.00489279
-0.00565965
-0.0140214
0.00588594
0.00453098
0.00620761
0.00528456
-0.00882437
0.0030395
-0.0181922
-0.00651072
0.000182401
-0.00569935
0.0044746
-0.0541918
0.00471423
0.000521878
0.00609439
-0.0134303
-0.00604209
0.00236464
-0.00285767
0.00450787
0.00492518
0.00469526
0.00301748
-3.27106e-05
-0.0303971
0.00272679
0.00348239
0.0332713
0.00615168
-0.0123539
-0.00188256
-0.00505472
0.00395299
0.00322491
0.00476286
-0.0193966
0.00481474
-0.00671642
0.00275003
0.0041846
-0.0376848
0.00383115
0.0035458
-0.00904368
0.00440698
-0.028919
-0.00767662
-0.0185138
0.000331033
0.00411998
0.000486212
0.00429477
0.00449321
0.00080802
0.00525096
-0.144459
-0.0183423
0.00436004
0.00542842
0.00375445
-0.0649649
0.00341098
-0.0013779
0.00199185
0.0177727
0.00332523
-0.00611494
-0.00627981
-0.0162958
-0.0175222
-0.0252434
-0.0178149
0.000576858
0.00558361
0.00541102
-0.0582982
0.000336019
0.000472121
0.00469728
-5.73074e-05
-0.0160435
0.00488318
0.00643318
-0.010864
-0.0133184
-0.0160573
-0.00585028
-0.00981278
-0.00412283
0.00316235
-0.0252305
0.00271582
0.000951938
0.00257788
0.00431129
0.00324003
0.00103137
-0.099094
-0.0177912
0.00348531
-0.0202199
-0.034732
-0.00480805
-0.0192491
-0.00650203
-0.0459612
-0.000632445
-0.046187
0.00369286
-0.0619901
-0.177639
0.00379849
-0.00952219
0.00349198
-0.00508766
0.000825157
-0.0206458
-0.0146475
-0.00881709
-0.0169758
-0.0159601
0.00450042
-0.0104023
-0.0638005
0.0032301
0.0042694
0.004151
-0.0176507
0.004309
0.00244553
-0.00630826
0.00512944
-0.00192378
-0.0164092
-0.00162345
-0.0197412
0.00496652
0.00296486
-0.0138222
-0.026105
0.00350228
-0.015557
-0.0251908
0.00718459
0.00332322
-0.120687
0.00375877
0.00510726
0.00902566
0.029926
0.016148
-0.00131344
-0.0138924
0.00168863
-0.0202651
0.00234744
0.00611415
0.00787678
0.00968235
-0.0257395
-0.00343389
0.00454025
0.00553425
-0.12094
0.00259193
0.00055457
0.00192893
-0.00428896
0.00502778
0.00520701
0.00426591
-0.00557451
0.00268189
-0.0237416
0.00528545
0.00282555
-0.000936717
0.00368529
-0.0446863
-0.0230898
-0.0135721
0.004193
-0.0414097
0.0035513
-0.0323108
-0.00886579
0.00224371
-0.0164663
-0.013886
0.00390075
-0.0260275
0.000377088
0.00577244
-0.0233315
0.00314221
0.00298032
0.00231029
-0.0480973
0.0043451
0.00354038
0.0121001
-0.00882493
0.00353994
0.00315488
-0.013244
-0.0343833
-0.00882384
0.00080928
-0.0076251
-0.0410318
-0.0112562
-0.00856292
0.00367686
0.000729087
-0.0037783
-0.0067444
-0.011546
-0.0419942
0.00358836
-0.00300137
-0.00711647
-0.0164797
-0.00194096
-0.00672942
-0.00424975
-0.00940529
0.00381118
-0.00960048
-0.0108127
-0.00624368
-0.0147672
-0.0308844
0.00192603
0.00285302
-0.00633343
0.00339276
0.000431802
-0.0276104
-0.006122
0.00341699
0.010949
-0.00264289
-0.005791
0.00503057
0.00429393
-0.0238956
0.000433688
-0.00544994
0.00417044
-0.0390857
-0.00216793
-0.039377
-0.00258337
0.00446888
-0.0295638
0.000262527
-0.0301973
-0.0113953
0.00404124
0.00428706
0.000442656
1.37469e-05
0.00407935
0.0041255
0.00338034
0.00263298
0.00370794
0.00535951
-0.00675443
0.00545484
-0.00358683
0.000289641
-0.047693
-0.0226756
0.00555227
0.00333426
0.00239218
-0.0589194
-0.0152068
0.00417772
-0.0410837
-0.00845373
-0.0369976
0.00356198
0.00405191
0.00270214
0.0025529
-0.00692779
0.00403003
-0.0679658
-0.0151995
-0.00195551
-0.000120097
0.00370722
0.00307672
0.00281626
-0.00823207
0.00404108
-0.000358926
-0.00019183
0.00305164
0.00318101
-0.0166189
0.000830001
0.00348028
0.00428841
-0.00142068
0.0044502
0.0120047
0.00308487
0.004676
0.00490705
-0.0171238
-3.84003e-07
0.0027005
0.00415547
0.0127489
-0.00473028
-0.000586215
0.00386339
-0.000713426
-0.0119982
0.000316276
0.00382303
0.00357799
-0.182916
-0.00682984
-0.0348409
0.00128456
-0.0358698
-0.00230941
0.00803865
-0.00671349
-0.0338201
-0.00708949
-0.0312221
0.00399721
-0.00943705
-0.00828942
-0.00652967
-0.0210739
0.012653
0.00367675
-0.0266746
-0.0129095
-0.0103858
0.00323701
-0.00822013
0.00368794
0.00431948
0.00065293
-0.0200404
-0.0216318
0.00185116
-0.0863442
-0.00299508
0.00679484
0.000471701
-0.0226306
0.00377869
0.00370287
-0.0330573
0.00386941
0.00225397
-0.0022979
-0.0093563
0.000268972
0.00317576
0.00342507
0.00260275
0.00641386
0.00424456
-0.00316259
-0.0139622
0.00403483
0.00320151
-0.0120532
-0.00281472
0.00347575
0.00296449
0.00437095
-0.0124449
0.0226693
0.000956531
-0.00042316
-0.00657248
-0.202957
-0.0391996
0.00545426
0.000581307
-0.00864396
-0.0489343
-0.0130921
0.00332727
0.00415063
0.00391761
-0.0153477
0.0032953
-0.037788
0.00454897
0.000332288
0.00355383
0.00505077
0.01487
-0.0183754
0.00316016
-0.00123694
0.00230309
-0.00172493
0.00431343
-0.0185066
0.00546134
0.0169716
0.00383916
0.00466845
0.00407314
-0.00295223
-0.00643044
0.000289465
-0.00910959
-0.0160723
0.00368167
-0.0262979
-0.0114692
-0.00793283
0.0124586
-0.0147249
-0.00633611
-0.118515
0.000479163
0.00494536
0.00394213
0.00408587
-0.043268
0.00453252
0.00109101
0.00381729
-0.0282821
0.00464026
-0.0133712
-0.0132701
0.00395191
-0.0101724
-0.01331
0.000228068
0.0045653
-0.0238585
0.000351693
-0.0213992
0.00398626
0.00733993
0.00359519
-0.0133106
-0.00926172
0.00326349
-0.000243968
0.00383372
-0.00970874
-0.0234056
0.000269727
0.00372757
-0.00639902
0.00950972
3.13067e-05
-0.016784
-0.016261
-0.00586806
-0.00621664
0.0036373
-0.0252467
-0.00712044
-0.00537633
-0.0162478
0.00404946
0.00447778
0.00536148
-0.00374651
0.00479178
-0.043991
-0.0153287
-0.00271701
-0.0395223
-0.00117664
0.00520273
-0.00737756
0.00223303
-0.0161701
-0.0132507
0.00375663
-0.00422424
0.00478484
-0.0172222
0.00457013
-0.00158726
-0.0202541
-0.011912
0.00283661
-0.0135535
-0.000225613
0.00373099
0.00376032
-0.000514187
0.00242842
0.000742422
0.00332188
0.00149274
0.00437424
-0.00140095
-0.0060044
0.00663231
-0.0163788
0.00431693
0.00477507
0.00228233
-0.0171223
-0.011418
-0.0216307
0.0029414
-0.00987184
-0.0370798
-0.0636811
0.00526637
-0.016712
-0.0100044
-0.0239534
0.00421612
0.000360935
0.00373561
0.00119471
0.00525056
-0.0157173
-0.0560026
0.00784122
-0.0138439
-0.0398074
0.00499051
0.00770509
-0.0271241
0.00916948
-0.021718
-0.000612461
-0.0729385
0.00127504
-0.0163434
-0.00889753
0.00423248
0.00214362
0.00425567
0.000466763
-0.00859256
-0.000802444
-0.010956
0.00436354
0.000332607
-0.0452696
-0.00823374
-0.0247927
0.00532383
-0.0068345
0.00117944
-0.0145805
0.00109052
0.00491618
-0.00321562
-0.0396386
0.0026146
-0.0280664
0.0079786
0.0117071
0.00444092
0.00229038
0.00290667
-0.0211744
-0.00225402
0.00385916
-0.00309453
0.00280111
0.00499648
-0.0052158
-0.0016955
0.00552699
0.00333569
0.00252604
0.0037048
-0.00142506
-0.041737
0.00236986
-0.00498968
0.00249971
0.00126804
0.0111779
-0.0193778
0.000654121
-0.0280326
0.00538727
0.00391689
-0.00329668
-0.219994
-0.216855
-0.000141463
-0.00282679
0.0152335
-0.0211662
-0.0327045
0.0023301
0.00459997
0.00223865
-0.00666883
0.00402211
-0.0041255
-0.034563
0.00261579
-0.0388896
-0.00940073
-0.0185182
0.00270494
0.00223287
0.00223968
-0.0129976
-0.0211964
0.00360479
0.00391237
-0.0346317
0.0057357
0.00324062
-0.00199253
-0.0252939
-0.00247941
-0.00075623
0.00405511
0.00397917
-0.0137693
0.00349952
0.00640015
0.008601
0.00311638
-0.0227657
-0.00703091
0.00662523
-0.0218028
-0.00296036
-0.0298084
-0.0386364
-0.0359931
-0.0462472
-0.00606195
0.00341817
0.00240325
-0.00284898
0.00443978
-0.0331295
-0.0384434
0.00484763
0.011278
0.00454401
0.00466499
0.00343946
-0.0402602
0.00454036
-0.000612101
-0.100335
0.00459296
0.00458395
-0.000861939
-0.0292938
-0.00676447
0.00254263
0.00146082
0.000556369
-0.00995363
-0.00157313
-0.0125026
-0.0067385
0.00184876
0.00390321
-0.0344431
0.00821118
0.0032678
0.00515324
0.00348701
0.000216078
0.00457553
-0.0447189
0.00351989
-0.00088986
-0.00835997
0.00472382
0.00355738
-0.0170348
0.00449162
-0.0250206
-0.0228366
-0.00346661
0.00492433
0.00666705
0.00442386
0.00296125
-0.0220922
-0.00813206
0.00188765
0.00456194
0.0108683
0.00373793
-0.0232421
-0.000686196
0.00932455
0.00332677
0.000441208
0.00363683
-0.0042948
-0.0305177
0.00444686
0.00445158
0.00450832
-0.0228895
0.000552915
0.00430527
-0.00259499
0.00531187
-0.01215
0.00425839
0.00452102
0.00362661
0.00459776
0.00525313
0.00395426
-0.0290506
0.00434067
0.00143878
-0.00954346
0.00471322
0.00863839
-0.000457668
0.0098014
-0.00156046
0.00510272
-0.0330547
0.00269751
-0.00662525
0.00852527
-0.0210541
0.00456983
0.00291937
0.000465869
0.000151332
-0.00415241
0.0013279
-0.0201332
-0.0397603
0.00477239
0.00776002
0.0016893
-0.0251847
-0.00115616
0.00373059
-0.0371082
-0.0129673
0.00219638
-0.00452875
-0.1975
-0.0191332
-0.00282987
0.00171219
0.00457972
-0.0277388
0.00414559
-0.0120649
0.00452796
0.00438799
-0.00517235
-0.00155696
0.00328674
0.0139873
-0.0128727
0.00504204
0.00452987
0.00546969
0.00550079
-0.0367229
-0.0155803
0.00246882
0.00428824
0.00355084
-0.0106001
0.0010615
-0.0138155
-0.00174638
0.00346482
0.00540516
0.00129615
0.00354735
-0.00155354
-0.0356943
0.00246171
-0.00353306
-0.0222465
-0.0358167
0.000204083
0.0103876
0.00291782
-0.0572789
0.000917091
0.0028519
-0.0113685
0.00573912
-0.016134
0.00432489
0.00242291
-0.038374
-0.0321866
0.00390969
-0.00488832
0.00230584
-0.00972493
0.00446251
0.00463953
0.00358615
0.00460227
0.00356635
0.00415664
0.000352517
-0.00201637
0.00498273
-0.00701325
0.00502798
-0.00174492
-0.0215051
0.00317096
0.00515005
-0.0390986
0.00713146
0.0037131
-0.0232472
0.00287352
-0.00181878
0.0045172
0.0107831
0.00363928
-0.0127192
0.000273653
0.00111115
-0.00858292
0.00729935
0.00555121
-0.0167353
0.00513893
0.00567861
0.00474508
-0.0246
-0.039767
0.00511054
0.0227167
-0.0403094
-0.00177635
-0.0491252
-0.00668008
-0.0410124
0.00436136
0.00138573
0.00492651
-0.0072519
-0.00694268
-0.0374646
-0.0206407
0.00338052
0.00401174
0.00677739
-0.00675013
0.00544008
0.0134651
-0.00918399
-0.0085388
-0.024094
0.00095138
0.00505567
-0.00329322
-0.0138308
-0.00854323
-0.0133536
-0.00476505
0.000225531
-0.0139679
-0.00551944
-0.00889247
0.00374499
0.00614363
0.00463177
0.0041759
0.0103848
0.00247521
-0.0361304
0.00694578
0.00460042
0.00678182
0.00311726
-0.00642606
-0.02106
0.00100608
-0.0257656
0.00160838
0.0100286
0.00183463
0.00198324
0.00498987
0.00350239
-0.0115843
0.00309056
0.00487407
0.0045265
0.00298254
-0.00151105
-0.00462106
-0.025409
-0.0405341
0.00390857
0.00855957
-0.00029929
-0.00899743
-0.0355151
-0.0187687
-0.00137472
0.0196642
0.00441963
-0.0114511
0.00458872
0.00352147
0.00503733
-0.00558006
0.0037756
-0.00102115
0.00567839
0.00403223
-0.00270671
0.00812736
-0.010198
-0.0193379
-0.0010965
0.0046173
0.000997586
0.00301945
0.00214605
0.00239568
-0.00879874
0.00416658
-0.00799969
-0.0358797
-0.00486086
0.00360436
0.0123456
0.00265809
0.0046232
0.01619
0.00160526
0.00283364
-0.016896
-0.0218594
0.000777834
-0.0188047
-0.0107051
0.00342424
-0.024228
-0.000632686
-0.00477094
-0.0123002
-0.0436116
-0.0334768
-0.0053804
-0.0297957
0.00296805
-0.00666385
-0.0203265
-0.0122548
0.00218802
0.00531501
-0.0114905
-0.0398654
-0.0496328
0.0014069
0.00238466
0.00266317
-0.0119694
0.00775703
-0.0114924
0.00118642
0.0044274
-0.0760519
-0.0093554
-0.00197449
-0.0433886
0.00442154
0.000367566
0.00199422
-0.123007
-0.000718168
-0.0760168
0.00485797
0.00426885
0.00395394
0.000612305
0.00238307
0.00362883
0.00354693
0.00317473
-0.00808109
0.0116438
-0.0005954
0.00360529
-0.0277433
-0.0160574
-0.000510858
0.00317033
0.00317653
-0.0795086
-0.0362921
-0.00280368
0.00318449
0.00363523
-0.0101198
-0.0315763
0.00387184
-0.0136212
-0.051111
0.000170995
0.00353023
0.00339946
-0.007066
-0.0243116
0.00434991
-0.0109758
-0.00817271
0.00370074
0.00659907
0.00446329
0.00419051
-0.0122082
-0.187089
0.00366766
-4.73234e-05
0.0048812
-0.023207
0.00491158
-0.0188415
-0.00242471
0.00447141
-0.00197504
-0.0010388
-0.0583895
0.00295534
-0.0317353
-0.00543765
-0.0500996
-0.0051676
-0.0296869
-0.0217457
-0.0190332
-0.0129623
-0.00119541
-0.0448529
0.00450698
-0.0326734
-0.073692
-0.0377521
0.00454085
-0.0119019
-0.0217309
-0.0331908
-0.0525017
-0.00120614
0.00506453
-0.00514783
-0.0313079
0.00255878
-0.03828
-0.0106046
0.00358112
0.00479606
0.00144923
-0.0139786
0.0100516
-0.0246805
0.00566048
0.00430317
-0.00171586
-0.00361127
-0.0691666
-0.0293752
0.000677694
-0.00987631
0.00931275
0.0041809
0.000268654
-0.0133367
0.00054876
-0.0114563
0.00226981
-0.0916916
0.00430419
-0.0978535
-0.000367234
-0.0206647
-0.00195219
-0.0379376
-0.0102821
0.00294414
0.00425239
0.00367915
-0.0440757
-0.0207139
-0.0107179
-0.0147776
-0.206677
-0.0105112
0.00404563
0.00400746
-0.0591837
0.00037443
-0.00962766
0.0198123
-0.182748
0.0135638
-0.0113351
-0.0351744
0.00361838
0.000179626
0.00400864
-0.0126953
0.00228422
0.00711641
-0.034702
-0.0199147
-0.0256004
0.00362393
0.00354276
-0.0128098
0.0037642
0.00573425
0.00769395
-0.131133
0.00457912
-0.000459112
-0.0179796
0.00469683
-0.00105588
-0.0103906
-0.0254635
-0.0206522
-0.00982308
0.00372483
-0.0114162
-0.0272092
0.000788253
-0.00851287
0.0028281
-0.0269381
0.00163591
-0.105502
-0.000113801
0.0053263
0.00366195
0.00351848
0.00701481
-0.0129167
-0.0130143
-0.0184165
-0.00137494
0.00933103
0.00371423
0.00354023
-0.0282555
0.00390446
0.00212424
-0.0352688
-0.0584599
0.000579051
-0.0317431
-0.0335246
-0.0443034
0.00642363
-0.0184372
0.00976796
0.00557552
0.00588957
0.00151287
0.000485673
0.00439539
0.00196209
0.00259915
0.00432798
-0.0221899
0.00475415
-0.0035749
0.00124451
0.00166023
-0.0245834
0.00345414
-0.0166387
-0.0133569
0.00450708
0.00188625
-0.0117054
-0.0653012
-0.0275363
0.00349348
-0.0209895
-0.00878883
-0.00482892
0.00882288
-0.0350403
-0.0157891
-0.0423955
-0.000557217
-0.00336335
-0.0386969
0.00445747
-0.0270406
-0.00335446
-1.27421e-05
-0.00256172
-0.02528
-0.0389153
-0.0231159
0.00407614
0.00118077
-0.0232296
-0.00971395
-0.000483631
-0.0166373
-0.00888748
0.00100101
0.00451445
0.00131533
-0.00220749
-0.0129069
-0.00361939
-0.0113618
-0.00536755
-0.002675
0.00457818
0.00154309
-0.0205816
-0.0019958
-0.0142909
-0.0193938
-0.0173594
-0.0155162
0.00511965
-0.0101119
-0.0211107
-0.0143524
0.00722306
-0.000804152
-0.0202954
-0.0138684
-0.0145138
0.00147806
0.00691832
0.00258445
-0.0453376
-0.0028946
0.0035814
-0.00512414
-0.0221023
0.00108926
-0.0209281
-0.000466371
-0.013269
-0.0268651
0.00535427
-0.00766352
-0.00745238
-0.0118917
-0.0120596
-0.0383511
0.00164657
-0.0170014
9.16321e-05
-0.00396347
-0.0053429
-0.0182293
0.00231299
-0.000539049
-0.000162975
0.00413679
-0.0163749
-0.00064298
0.00471297
-0.00226735
0.0159282
-0.0130319
-0.00078362
-0.0212188
-0.0129286
-0.0283733
-0.00245531
-0.0074801
-0.00319448
-0.000610415
-0.0124794
-0.0309075
0.00415389
0.00107047
0.00238741
-0.0164107
0.00582003
-0.0171774
0.00452755
-0.0810566
-0.0122144
0.00805172
0.000702358
-0.146723
-0.0507092
-0.0165706
-0.0180865
-0.0134085
0.00270643
-0.0264738
0.00935364
0.00445021
-0.00795011
-0.0287378
-0.00391866
-0.00145359
0.00149203
-0.020414
-0.0093806
-0.0108003
-0.0335678
-0.0203696
-0.00797076
-0.0178138
0.00309308
-0.0903982
0.00726441
-0.0147195
-0.0156456
-0.0213164
0.00267082
-0.0346416
-0.0106174
-0.00156639
0.00272559
-0.0241786
-0.0229532
-0.00641821
0.00334684
-0.0172713
0.00423348
-0.0222313
0.00251302
-0.0260741
-0.0186618
0.00302662
-0.0112434
-0.00978654
-0.0262394
-0.0293965
-0.00241513
-0.0102345
-0.0036202
0.00573951
0.00358287
-0.00091704
-0.122506
-0.000339875
-0.0175396
-0.000930536
0.0032408
0.0032825
0.00369257
0.00510832
0.0011708
0.00304589
-0.012956
0.00430128
-0.0469069
-0.000199763
-0.00551392
-0.0207954
-0.0132229
-0.0806054
-0.0157242
-0.0165096
0.00661412
-0.0100883
-0.0483457
0.00356733
0.00325152
-0.0185317
0.00435367
0.00438157
-0.00169713
-0.016336
0.00156761
-0.000908341
-0.0178989
-0.130083
0.00350917
-0.0078809
-0.00996213
0.00429274
-0.014081
-0.0200049
-0.0184144
-0.0366728
-0.0127738
-0.0401145
0.00119829
0.00304542
0.00323599
-0.0144188
0.00571897
0.000312066
-0.00904584
-0.00900691
-0.024387
0.00135236
0.00733896
-0.012014
0.00376831
0.00370434
0.00297652
-0.0158664
0.000410406
-0.0320411
-0.0148275
7.89271e-05
0.00174522
0.000530982
0.00288488
0.00135473
-0.0351002
0.0092694
-0.0119405
-0.0199579
-0.0137138
0.00433617
0.00331337
-0.00783993
0.00345309
0.00376135
-0.00807478
-0.0130422
-0.007959
-0.0149992
-0.0132375
0.0045119
-0.0158553
-0.00479151
-0.0565284
0.00336114
0.00315543
-0.011048
0.000521625
-0.0100416
-0.00130534
-0.00713591
-0.0574828
0.00357035
-0.0426155
-0.0263624
-0.00767356
-0.00420246
0.00287028
-0.073974
-0.012667
-0.011012
-0.0124328
0.00148478
-0.020449
-0.0106787
0.00471712
0.00416625
0.00266547
-0.0144864
0.00168321
-0.0387754
0.00900634
-0.00699448
0.00506667
0.00289086
-0.0019239
0.010453
-0.0116106
-0.0376527
-0.0144472
-0.0303558
0.00445426
-0.003166
-0.0119975
-0.0224826
0.00549468
0.00172305
-0.000144232
0.00420189
0.00399617
0.0049115
-0.0131638
-0.0245678
0.0158612
0.00313295
-0.0165423
-0.0346255
-0.0265878
-0.0185104
-0.00157917
-0.000364534
0.00135378
-0.00918832
0.00441951
-0.0285673
9.04165e-05
-0.0190662
-0.0377093
0.00471269
0.00335579
-0.00698558
-0.00598717
-0.0254638
0.00456027
0.0254792
0.00421969
-0.0136037
0.0046383
-0.00174321
0.0011896
-0.0131658
0.00468416
0.0261026
-0.0122947
-3.05565e-05
-0.00862902
-0.0199516
-0.00810647
0.000551717
0.0042933
-0.0033705
-0.00398613
-0.0107537
-0.00524659
-0.00749732
-0.0135671
0.018719
-0.0706067
-0.0298139
0.00336414
-0.0160364
-0.00271437
-0.000545244
0.004552
0.00595307
-0.00808936
0.0165911
-0.0077478
-0.00762978
-0.00161068
0.0036071
0.00570042
-0.0069834
-0.00963847
0.00631026
-0.00862098
-0.025367
-0.0312577
0.000426306
0.00668913
-0.0322942
0.00598711
0.00616528
0.00884712
-0.0116676
0.000727389
-0.0102114
0.00597707
0.00122095
-0.0302717
0.0106737
0.0154786
0.00446832
0.00436628
0.00114517
-0.00839814
0.00405762
0.00201759
-0.00107996
-0.0194728
-0.0085181
-0.000605332
-0.0428756
-0.00316911
-0.00371533
-0.00536086
-0.0047227
0.00372806
0.00323901
-0.00533274
0.00351042
0.00785206
0.00360727
0.00401497
-0.00334859
-0.000124006
-0.0204875
0.00139016
0.00816008
-0.00751176
0.00270806
-0.00924051
-0.0066212
0.00290726
-0.00556071
-0.00135633
-0.0113436
-0.00158031
-0.0317624
-0.0421535
0.00750058
-0.0189078
-0.0305529
-0.00780902
-0.0134801
-0.00788512
0.00306372
-0.0156549
-0.0167022
-0.00467837
0.00455178
0.00287001
-0.00398155
-0.00460135
-0.0193304
0.00234968
0.00388123
-0.0475872
-0.0330405
-0.0229271
-0.0061735
0.00357642
0.00216078
-0.0535021
0.00697087
-0.0258372
0.0047251
-0.016962
-0.0212872
0.000116105
0.00809544
-0.00191346
-0.0339771
-0.00865536
0.00447223
-0.076404
-0.00709359
0.00221331
-0.00706476
-0.00696867
0.00290228
-0.0414254
0.00367389
-0.00273497
-0.074433
-0.00779425
-0.00882967
-0.0106902
-0.00406644
-0.0101156
-0.0118266
0.00922185
0.0031725
0.00372049
-0.0319832
0.00532236
-0.00374179
-0.00664399
-0.00631093
-0.00540945
-0.00409009
-0.0029588
-0.00359638
-0.00220013
-0.00645481
0.00253248
-0.0436193
0.000492369
0.000760618
5.80967e-05
0.0029613
-0.00883726
-0.000769243
-0.00179155
-0.00101753
0.00356574
-0.00415202
0.00430735
-0.00635602
-0.00409919
-0.000297155
-0.0203787
-0.00783804
0.00392659
0.00961909
-0.00174646
0.0106724
-0.00425177
-0.0125619
0.00291824
-0.00786346
-0.0116468
-0.00893991
0.00409587
0.00433857
0.0053909
0.00949417
-0.0153175
-0.0134889
-0.0072184
0.00608782
0.0128546
-0.00125939
0.00165496
0.0010857
0.00910094
-0.0169836
-0.0124985
-0.00666603
-0.0180176
0.00462016
0.00107275
-0.021293
-0.0122227
0.000797277
-0.00767885
-0.024794
-0.000985318
-0.00132341
0.0107965
-0.00474789
-0.00702277
0.00280234
0.00480059
-0.00421777
-0.00780395
0.00540096
-0.0429535
0.0117918
-0.00970477
-0.00919933
0.00157165
0.00454843
-0.00947158
-0.00731007
0.00523534
0.00261743
-0.0158996
0.0033405
-0.00973445
-0.0102903
-0.0198149
0.00460496
0.0122217
-0.00505906
-0.0428024
-0.00315436
-0.0583155
-0.00263641
0.00603456
-0.00107684
-0.00747498
-0.00478205
-0.00796187
0.000916376
0.00284741
-0.00390705
0.00370946
0.00619653
-0.000784278
0.00784494
0.00384009
0.00349506
-0.000191973
0.00302801
-0.00547666
0.00605082
-0.0034575
-0.0201068
0.00717546
-3.56808e-05
-0.0841979
-0.00877227
-0.0122986
0.00685201
0.00443998
-0.0274601
-0.000253216
0.00434054
-0.0330733
-0.00705031
0.00363766
0.000395289
0.00210186
-0.00820713
-0.00762347
-0.016168
-0.00770221
-0.0192751
-0.00598996
-0.0999402
-0.0183201
-0.00574028
-0.00589743
0.00332803
0.00137639
-0.0032579
-0.00227139
-0.0127624
0.0113769
-0.000558419
-0.0151523
0.00310593
-0.00222795
-0.00798564
-0.00733304
-0.0321063
0.00179598
-0.0167696
-0.0126039
-0.0189286
0.00448621
-0.00594467
-0.00179729
-0.0149931
0.00627548
0.00333215
0.00344825
-0.0103166
-0.0243317
0.00229681
0.00470199
0.00178399
-0.000461222
0.00623397
-0.00296531
0.00127732
-0.0102228
-0.00268195
0.00479975
0.00209888
0.00557811
-0.00495215
-0.00218553
0.00064414
-0.00367236
0.00298758
0.00525418
-0.0127848
-0.00441911
-0.00508743
-0.0288531
-0.0408785
-0.0159949
0.00634162
0.00443221
-0.00581818
-0.010532
-0.0134251
-0.000951926
0.00307346
0.00847438
-0.00175306
0.00737753
0.0119998
-0.00667433
-0.0269685
-0.00425537
0.00463066
0.00117368
-0.00839611
-0.00513918
-0.00575954
-0.0306668
-0.00380516
-0.0159994
-0.0076332
-0.00925841
-0.0303613
0.00438441
0.00500987
0.00406604
0.000851827
0.00448535
0.00305087
0.00442104
-0.00376587
-0.000252456
0.0036713
-0.00775568
0.00396384
-4.5656e-05
-0.0186673
-0.00434126
-0.00717255
0.0100468
0.00942714
0.00313729
-0.0249516
-0.0149739
-0.00392411
-0.0382445
0.0115643
-0.00450579
0.002281
0.00432454
0.00319402
-0.000994005
-0.0035451
-0.0124777
-0.0111084
0.00314158
-0.00721787
-0.0291354
0.000436116
0.011921
-0.00622722
-0.00985697
-0.000922003
-0.00392926
0.00422371
-0.00399264
-0.0382716
-0.00332147
0.00369606
0.00463935
0.00478312
-0.000363402
0.00777315
-0.00985687
-0.00246955
-0.0141217
0.00677645
0.00103144
-0.0170432
0.00473118
-0.00167646
0.00501435
-0.219506
-0.0190858
-0.0117568
-0.0209869
-0.0017671
0.0131324
-0.000662679
-0.0248584
0.00908291
0.00445279
0.00783897
-0.000292725
0.00548207
-0.00133722
0.00546454
0.00733955
0.00336354
-0.00812068
-0.0107721
0.00279977
0.00804613
-0.0112209
-0.0170236
-0.00337649
-0.0989611
-0.00567311
0.00803446
0.00433804
0.0120532
-0.000641314
-0.00470207
-0.00582307
0.00280915
-0.017075
0.00300747
-0.0296565
-0.0119659
-0.0785532
0.00593975
-0.00459955
0.00836194
-0.00434294
-0.00690321
0.00227596
0.00121603
-0.0013065
-0.0298967
0.0110047
0.00457841
-0.00531468
0.00278996
0.0040104
0.00432261
-0.00185199
-0.00688762
-0.0697489
-0.00115215
0.00447428
0.00463506
-0.0149445
-0.00231729
0.000271349
-0.00418604
-0.0040584
0.00468716
0.0041682
0.0117199
-0.00158962
0.00710194
-0.00381852
0.00765305
0.00796896
0.00286467
0.00389026
-0.00630122
0.00405578
-0.00365878
-0.00183064
0.00127245
-0.0126938
-0.00359795
-0.00319368
-0.035315
0.00534726
-0.00145562
9.20145e-05
0.00407789
-0.00278863
-0.0127285
-0.155603
-0.000813215
0.00702961
0.00414258
0.00280718
-0.00207727
0.00299913
-0.0134568
-0.0123035
-0.000758658
-0.158736
-0.0106675
0.000870224
0.00964025
-0.00457171
0.00389201
0.00492949
0.000568693
-0.020122
0.00257722
-0.0445476
-0.0194972
-0.00136947
0.0011758
0.00557229
0.00888722
-0.00183826
0.00367423
-0.00473994
-0.00221041
-0.00876378
0.0044681
-0.00180848
0.00419536
0.00310206
-0.0340723
0.000873
0.0107935
0.00237372
-0.000955812
0.000674334
0.000733939
-0.00160624
-0.00644079
-0.0177529
-0.00656056
-0.00477604
0.00548136
-0.00275815
-0.00105993
-0.0295201
-0.0393073
-0.0094875
0.00276388
0.00220448
-0.0154558
-0.00168672
0.00256142
-0.0333767
-0.015918
0.00335294
0.00294132
0.000408831
-0.0152282
-0.202897
0.00264059
-0.0186802
0.00124544
0.00436892
0.00116479
0.000526642
0.0053844
0.00237498
0.00190137
-0.0197707
0.00299536
0.00686292
-0.0355558
0.00630816
0.00458999
0.00278943
0.00192885
0.00269548
-0.00200775
-0.00788215
-0.00932029
0.00287566
-0.00219533
0.00403657
-0.0285058
0.00315807
0.00434322
0.000659347
0.00544102
0.00173794
0.00472506
0.00166617
0.00305534
-0.00516324
-0.0223234
0.00197955
-0.00503825
-0.00995856
0.000236046
0.00429168
0.00342606
0.00358264
0.000270624
0.00310276
0.00033347
0.00344163
0.0040735
-0.0150299
0.0020635
0.001682
-0.000670589
-0.0101851
-0.03414
0.00597595
0.000137752
-0.00116732
-0.0442232
0.00595088
0.00559056
-0.00640407
0.0110028
0.0112742
-0.0053727
-0.0405996
-0.00414847
0.00427814
0.00266859
0.00182519
-0.00983187
-0.0362567
-0.027309
-0.182933
-0.000104895
-0.00665789
-0.0129815
-0.019211
0.00585498
-0.000880322
0.00465277
-0.0112429
-0.0354315
-0.0178389
0.00304233
-0.0304252
-0.0101586
-0.00936767
0.00413504
0.00443109
-0.00836345
-0.00970546
-0.00852687
-0.00291521
0.000330697
0.00067471
0.00413869
0.00116839
-0.0113584
-0.00337086
0.00181605
0.00481745
0.0030793
-0.000867214
-0.00152511
-0.000334589
-0.00129308
-0.00498824
-0.000785113
-0.00164579
0.00541529
0.00220325
-0.010774
0.00356126
0.00451727
0.00625343
-0.000436126
0.00292857
0.00113257
0.000624025
-0.00344974
-0.0103614
0.00451412
0.00384514
0.00101656
0.00365282
0.00563752
-0.0193937
0.00553457
0.00156006
0.00361437
0.00350869
-0.00895989
0.00235772
0.00311127
0.00141801
0.00454856
0.00441738
0.00450044
-0.0501912
0.000450157
0.0028957
0.00454067
-0.00133626
0.00421728
0.00421092
-0.0463383
-0.0222935
-0.0360367
-0.00237584
0.00422556
-0.0453054
-0.00348882
0.00450764
0.00248638
0.00600607
-0.00680471
0.00489079
0.00391881
0.00406752
0.00451941
0.00375272
0.00391086
0.00643365
0.0126276
-0.0224723
0.00256602
0.00208458
0.00196622
-0.0136054
0.00461201
-0.00336626
-0.0106254
0.00287302
0.00429478
-0.00295847
0.0046838
-0.00398106
0.0025318
-0.00660207
0.0013403
0.00579244
0.00142536
-0.000810636
0.00393669
-0.011221
0.0063056
-0.00868547
-0.0138254
0.00487069
0.00464406
0.00477249
0.00272458
-0.0490305
-0.0264122
-0.00613132
0.00395047
0.00425454
0.00361737
0.000927386
0.00421845
0.00259553
0.00372897
0.00215613
-0.00916151
0.00554012
0.000964273
-0.0189245
0.00734654
0.00348907
0.00539723
0.00452529
0.00182871
0.0024854
0.00723974
-0.00552525
-0.0156405
-0.00513746
0.00381955
-0.00521933
0.00344711
-0.00538379