/*--------------------------------*- C++ -*----------------------------------*\
| =========                 |                                                 |
| \\      /  F ield         | OpenFOAM: The Open Source CFD Toolbox           |
|  \\    /   O peration     | Version:  v2012                                 |
|   \\  /    A nd           | Website:  www.openfoam.com                      |
|    \\/     M anipulation  |                                                 |
\*---------------------------------------------------------------------------*/
FoamFile
{
    version     2.0;
    format      ascii;
    class       volVectorField;
    location    "850";
    object      ddt0(U);
}
// * * * * * * * * * * * * * * * * * * * * * * * * * * * * * * * * * * * * * //

dimensions      [0 1 -2 0 0 0 0];


internalField   nonuniform List<vector> 
10042
(
(-0.00243306 0.0170904 2.09276e-18)
(0.0310441 0.0445958 -7.03863e-18)
(-0.0230431 -0.0218353 -8.44286e-20)
(0.000360244 0.000112375 -4.68655e-19)
(-0.0011832 1.10266e-05 5.03774e-19)
(-0.0104265 0.191147 -1.93958e-19)
(0.0578868 0.0211475 2.74167e-18)
(-0.000705045 -0.135648 4.59725e-18)
(9.34422e-05 -0.000190521 -7.85751e-19)
(0.0114754 0.0279993 -6.39137e-19)
(-0.0406983 -0.0112443 2.92396e-19)
(0.0202238 0.0469626 -4.99496e-18)
(0.0132288 -0.011153 1.96815e-18)
(0.00150138 -0.00156244 1.46171e-19)
(0.00126267 -0.000576523 3.16653e-20)
(0.00173161 -0.00139238 6.46124e-20)
(-0.036373 0.15206 5.68545e-18)
(-0.0424606 -0.00577474 -1.43819e-19)
(0.00305702 -0.00395832 3.85032e-18)
(-0.0112658 0.00487232 6.047e-19)
(0.0143642 -0.00991162 6.90867e-19)
(-0.00472703 0.0154559 7.14232e-19)
(-0.000458915 0.000105534 2.68737e-19)
(0.00847506 0.0220091 -6.00456e-18)
(-0.000304254 -0.000125507 2.42151e-19)
(-9.06306e-05 1.53966e-05 -1.33686e-19)
(0.00873071 0.0265873 1.1162e-19)
(0.000191248 -3.54078e-05 5.54459e-19)
(-0.0180839 0.197338 -3.17436e-18)
(0.00922711 -0.0168521 7.27271e-18)
(-2.90811e-05 3.06992e-06 9.81917e-19)
(0.000377172 -0.0205384 -1.24921e-17)
(-0.000161666 -0.000143236 1.00035e-18)
(-0.000389 -0.000120617 2.00572e-19)
(0.000278938 -0.143877 3.49256e-18)
(-0.00816945 -0.163811 7.0662e-18)
(-0.000913987 -1.11302e-06 -1.17343e-19)
(0.000130656 8.5453e-05 -1.42478e-19)
(-0.000477392 7.33205e-06 -1.14801e-18)
(0.0010165 0.00305323 -2.5381e-20)
(0.0137867 0.0117677 3.721e-18)
(-0.000168384 -0.00016456 5.3547e-19)
(0.0507911 -0.0484128 -2.31323e-17)
(-0.011412 0.0205088 8.92019e-19)
(-0.000319241 0.000106735 -1.66198e-18)
(0.000458969 -0.000151111 9.80559e-19)
(0.000132044 0.00010776 5.87027e-19)
(0.0016555 -0.000511089 -2.47436e-19)
(0.0276824 0.0147515 4.88062e-19)
(0.120355 -0.0201441 -2.66114e-18)
(0.0589128 -0.0467211 1.91862e-17)
(-0.000270264 2.88971e-05 -5.2161e-19)
(-0.0370003 0.157314 1.74729e-20)
(0.00317085 -0.00349523 -3.44108e-18)
(0.100294 0.00452971 1.46428e-19)
(0.0406235 -0.138503 2.75581e-17)
(0.0138224 -0.00845396 1.39765e-18)
(-0.0242584 -0.00671166 4.19114e-19)
(0.000716745 0.000617146 -1.0841e-19)
(-0.00017771 7.68354e-05 1.99711e-20)
(0.0264952 0.0170882 -1.17611e-18)
(0.118927 -0.0452581 1.07519e-18)
(0.044115 -0.0427505 -8.74061e-18)
(0.0225827 -0.0972491 2.30956e-18)
(-0.0196805 -0.0363952 9.51745e-20)
(0.00163464 -0.000475505 1.50731e-18)
(-0.0106752 0.00254599 -8.15254e-19)
(0.0118167 0.0226016 -8.71361e-20)
(4.85923e-05 0.000131918 -2.81795e-19)
(0.00866024 0.0218518 -1.91736e-20)
(0.0808082 -0.0529574 4.26114e-18)
(-0.00104942 0.0041691 -1.87009e-19)
(0.000108929 0.000463668 -1.03644e-18)
(0.000723551 0.000506712 4.96768e-19)
(0.00105214 -0.000309787 -1.01916e-18)
(0.0711605 -0.0557483 -2.74755e-18)
(-0.0264089 -0.007964 -7.3696e-20)
(0.000110497 0.000117166 -4.7634e-19)
(-0.027695 -0.004961 -1.33395e-18)
(0.00265184 -0.00426151 5.23348e-19)
(-0.0112786 0.0140188 -5.82966e-19)
(0.00586303 0.0232272 -1.08725e-18)
(-0.000167163 3.23509e-06 -7.17863e-19)
(0.000356646 6.58045e-06 4.79296e-19)
(-0.0059164 0.0222545 -5.33154e-19)
(0.0379279 0.0244853 1.88325e-20)
(-0.00991579 0.00198049 1.91627e-19)
(-0.0195662 -0.024556 -1.15789e-18)
(-6.54651e-05 0.000827529 -1.48497e-18)
(-0.0203836 -0.0196997 3.39451e-19)
(0.00808275 -0.00759285 -5.46028e-18)
(0.00105885 -0.000653567 1.66015e-19)
(0.0452131 -0.0379384 5.68823e-18)
(0.0385595 0.0270002 1.37276e-20)
(0.00698499 -0.0317742 4.89748e-20)
(-3.87226e-05 0.000538218 8.97112e-19)
(-0.0105539 0.0504184 2.92672e-17)
(-0.0104289 0.00400686 -5.66274e-19)
(-0.0310612 0.010903 -4.93825e-19)
(0.00117923 0.000294196 -5.17122e-19)
(0.00778126 -0.00682 -5.91273e-18)
(0.0185796 0.0358624 8.13564e-19)
(-0.00161114 0.00213625 -1.25908e-20)
(0.000172689 -0.0161604 -4.59565e-18)
(0.00575903 -0.0035389 3.59515e-18)
(0.000246768 0.00139723 -6.31801e-20)
(-0.160772 -0.312072 7.66089e-18)
(0.000942704 -0.000436774 -8.40078e-19)
(0.0560378 0.0243241 3.16585e-19)
(-0.000316492 0.00151725 -1.81156e-19)
(0.00126699 0.000696615 7.66113e-20)
(0.0511939 0.0233468 1.05867e-19)
(0.0155288 0.0354961 -7.25708e-19)
(0.0220575 -0.103815 5.57788e-20)
(-0.00833353 -0.0303044 8.07736e-20)
(0.000107762 0.000142861 1.03087e-18)
(0.0168194 0.00964262 3.9836e-19)
(-0.000463758 6.88645e-06 6.99652e-19)
(-0.0217255 -0.00741224 -1.78071e-19)
(7.06946e-05 0.000105663 1.09289e-20)
(-0.000179515 9.53613e-05 -9.08824e-21)
(-0.00696358 0.0132249 1.17846e-17)
(-0.0197328 0.00499538 -4.24529e-18)
(0.000255751 0.000117283 7.76673e-19)
(-0.0250418 -0.0172998 5.82283e-19)
(-0.000795874 0.00110456 3.18716e-18)
(-0.00180637 0.00130527 -2.45525e-19)
(0.0869118 0.00311522 -6.23711e-18)
(0.0133852 -0.067621 -3.7584e-17)
(0.0161886 0.0117062 -2.91132e-18)
(-6.95178e-05 1.02713e-05 8.40115e-19)
(0.00128257 0.000206447 3.89584e-19)
(-0.00185691 0.00164177 -1.12229e-19)
(0.00087525 -0.000633279 3.04536e-19)
(0.0496533 0.0256582 5.21228e-19)
(0.0804102 -0.0236435 -1.15165e-17)
(-0.0104551 -0.00181644 -2.34015e-18)
(-0.110871 -0.242179 -1.97143e-18)
(0.00289507 -0.000746552 2.80982e-18)
(-0.0336221 0.013008 -3.11967e-18)
(0.0310619 -0.0267942 -2.58736e-19)
(-2.42552e-05 -6.02615e-06 -2.74345e-19)
(-0.183066 -0.310159 -1.03143e-17)
(0.000168281 -3.43992e-05 -8.40777e-19)
(0.00826656 0.00497269 -3.17883e-19)
(0.000237029 9.8628e-05 5.88059e-19)
(-0.00547264 0.020681 1.83692e-18)
(4.32886e-05 0.000124708 6.3722e-19)
(-0.0041319 0.00241154 -2.11125e-19)
(0.053833 0.0514944 -1.05668e-17)
(0.00142013 -0.000303522 3.29365e-19)
(0.000252872 -9.83413e-07 5.9548e-19)
(0.00472225 -0.000957228 9.41153e-22)
(0.0152168 -0.0149572 -6.85268e-18)
(0.0114395 -0.0248419 1.41796e-19)
(0.00836497 0.00578807 5.59092e-19)
(0.0144374 -0.0632126 3.45889e-17)
(0.0971584 -0.11183 6.17813e-18)
(-0.00170779 0.00194581 -5.81367e-19)
(-6.15009e-05 1.20205e-05 -2.02416e-19)
(-0.000234624 6.66772e-06 -3.0044e-19)
(0.000879217 0.00360896 1.13122e-19)
(0.0788401 -0.015648 1.40504e-18)
(-0.00101466 0.000993943 -3.56951e-18)
(0.00219566 -0.00043916 2.05251e-18)
(0.0472683 0.101031 6.39795e-18)
(-2.10754e-06 0.000481259 -1.10494e-18)
(0.000935506 -0.0175731 -3.8692e-18)
(-0.00858654 -0.161863 -3.07371e-18)
(-0.000374804 -8.31311e-05 -8.82411e-19)
(0.0232249 -0.0186201 -8.81526e-20)
(0.0151441 -0.048039 -7.93751e-18)
(-0.0564064 -0.0896669 -5.48965e-18)
(-0.00042168 -9.96316e-05 -9.99716e-19)
(0.00356707 -0.00317874 -3.33711e-18)
(-0.0415215 -0.0519106 8.66033e-18)
(-0.000344308 -0.000111767 -6.88664e-20)
(0.000249482 8.61013e-05 1.9386e-19)
(0.000744904 0.000212055 -1.21876e-18)
(-5.78442e-06 0.000128822 4.22105e-19)
(0.00240876 -0.000523988 -4.28523e-18)
(0.00687377 -0.00170394 -2.07153e-18)
(0.000849079 0.000369115 7.26896e-19)
(0.000281266 0.000105343 -7.10387e-19)
(0.0224976 0.0169352 -6.16907e-19)
(0.00495565 -0.00978989 -4.59007e-18)
(-0.000563239 0.00436778 6.77068e-20)
(-0.000150191 5.64331e-05 -2.06152e-20)
(-0.0195544 -0.141362 -3.81303e-17)
(2.10975e-05 -2.94291e-05 2.23401e-19)
(0.0322209 0.0411961 1.26844e-17)
(0.014624 -0.00721451 1.86129e-18)
(-0.000375598 2.99408e-05 -4.38916e-19)
(0.00658007 -0.00166458 -1.72057e-18)
(0.0086007 0.0675858 -8.46387e-18)
(0.00106552 -0.000660406 -6.21754e-20)
(-0.248045 -0.10146 8.97053e-18)
(0.0251978 -0.00734265 -8.16749e-19)
(-0.0781864 0.0315524 9.52665e-18)
(0.000287731 6.84062e-06 -6.13265e-19)
(0.0217368 -0.0809455 -1.70358e-17)
(0.0379584 -0.0321146 7.59261e-19)
(0.0418328 0.00241738 -1.15976e-18)
(0.000613738 1.73525e-05 1.0016e-18)
(-0.0251839 0.0143035 9.98382e-19)
(-0.00147565 0.00130272 -6.43789e-19)
(0.0343218 -0.00098142 -3.28418e-18)
(0.0154341 -0.0134508 2.27513e-18)
(0.00175918 0.000703464 -1.04944e-19)
(0.000700716 -0.000748112 4.7266e-19)
(-0.000261512 -0.0189662 2.39028e-18)
(0.0004984 2.27421e-05 -6.09953e-19)
(0.0445002 0.00499415 3.31627e-19)
(0.0392087 -0.00395431 -3.80839e-19)
(-0.00151568 8.69294e-06 -1.28358e-19)
(0.00558834 0.0181509 -3.51449e-19)
(0.000262562 3.29771e-05 2.31943e-19)
(-0.0870843 -0.188835 3.52473e-19)
(0.00038385 4.24465e-05 -3.20439e-19)
(0.0251059 -0.0767825 1.78163e-17)
(-0.260238 -0.106683 -1.60806e-17)
(0.0203336 -0.0151658 -1.3495e-19)
(-0.252884 -0.104784 1.01804e-17)
(0.00550759 0.0190345 3.99628e-19)
(0.000594373 0.000123485 1.76594e-19)
(0.0381137 -0.0362364 7.56029e-18)
(-0.00278369 0.00132858 -3.63104e-19)
(-0.00968393 -0.00204644 -3.56118e-19)
(0.00649578 0.0221567 -1.9173e-18)
(-0.00121685 0.00222688 -9.89409e-21)
(0.000153102 9.16256e-05 6.00852e-19)
(-0.00160285 0.00153067 -3.02219e-19)
(0.0054346 -0.00928331 6.15056e-18)
(-0.00012171 4.57281e-06 -9.67746e-19)
(-0.000537373 -0.000137538 -2.16631e-19)
(-0.00546098 -0.146775 -2.54152e-18)
(-0.00743345 -0.00432484 -8.62437e-19)
(-0.0298898 0.0392849 -1.84026e-17)
(0.00744187 0.00457791 -2.78586e-18)
(0.0194563 0.0189039 3.83946e-18)
(-0.0101616 -0.149277 -3.05935e-18)
(0.00690739 -0.143719 -1.9121e-18)
(-0.000195734 0.000111815 2.72233e-20)
(0.00153786 0.00401677 -1.58391e-19)
(-0.00308964 0.197112 -6.91948e-18)
(-0.00117237 9.13712e-06 7.33873e-19)
(0.00867335 -0.128029 -1.58505e-18)
(0.00678944 0.00472683 2.99335e-18)
(0.00528041 -0.000952306 7.49585e-19)
(-0.000972435 1.023e-05 5.22518e-19)
(0.00506182 -0.00342982 -2.90895e-18)
(-0.000385851 -3.47748e-06 5.68096e-19)
(0.0351026 0.0488882 -6.46918e-19)
(0.123673 0.0130266 -1.31466e-18)
(-0.0043189 0.00202486 1.51654e-19)
(-0.00633296 -0.00413686 -9.13837e-19)
(0.00025096 -2.0387e-05 1.98973e-19)
(-0.00480043 0.000869531 -3.34195e-19)
(0.0156635 0.0459864 -3.35956e-17)
(0.000445401 5.04802e-05 -8.59598e-19)
(-0.0263141 -0.025319 -2.28176e-19)
(-7.91422e-05 0.000128589 -6.79771e-19)
(-0.000248195 2.41094e-05 3.0456e-19)
(0.000139508 0.000113085 1.6126e-18)
(0.0132006 -0.0125716 -1.26625e-18)
(0.114558 0.0488755 -1.39711e-18)
(-0.0208217 -0.0277704 3.6034e-19)
(0.0302888 0.0456623 -3.5315e-19)
(0.00124654 3.46913e-07 -5.07058e-19)
(-0.00138538 0.00150857 -1.71123e-20)
(0.00142377 -0.000101217 1.71938e-20)
(0.110368 -0.0161626 8.007e-18)
(-0.000121306 -0.00145621 1.33421e-19)
(0.091646 -0.063261 1.54337e-17)
(-0.00402062 0.000628164 2.4302e-19)
(-0.0152087 -0.0139519 5.63914e-19)
(0.00232736 -0.00201179 -1.8054e-18)
(-0.000782211 1.42906e-05 2.93836e-19)
(0.00124274 1.35413e-06 -1.4367e-19)
(-0.0507171 0.127352 2.71469e-18)
(4.29923e-05 -4.44239e-05 1.41554e-18)
(-0.0187312 -0.139982 4.02813e-19)
(-0.23376 -0.0906952 -1.39036e-17)
(0.00149239 -0.00180638 6.05756e-19)
(-0.00393967 -6.54747e-06 3.9688e-19)
(-0.157463 -0.0647562 -4.54304e-17)
(0.0102257 0.0175137 9.33693e-20)
(4.162e-05 0.00020948 -7.37495e-19)
(-0.00907837 0.0112933 8.05967e-19)
(0.000353276 -1.22895e-06 -9.6725e-19)
(0.0143859 -0.00483227 -5.79285e-19)
(0.00457271 0.0131442 -2.13477e-19)
(-0.00147436 2.75074e-06 5.49232e-21)
(-0.00780259 -0.161126 1.73428e-19)
(-0.0273323 -0.0346088 -5.88363e-19)
(0.00250998 -0.000373524 -2.6193e-19)
(-0.036344 0.0330558 -1.28749e-18)
(-0.00909019 -0.00333555 3.84281e-19)
(0.00130683 -0.000122964 -1.84751e-19)
(0.00027277 2.9621e-05 6.26953e-19)
(0.00394967 -0.000659158 -8.26298e-19)
(0.042938 -0.00158229 1.79612e-19)
(-0.000152979 5.12172e-05 5.84412e-20)
(-0.0438104 -0.17797 3.48255e-19)
(0.011646 0.015601 9.6035e-19)
(0.11149 -0.031072 -1.50071e-18)
(5.48058e-05 -0.00190878 -1.79947e-18)
(0.00136062 0.00479882 -1.41773e-20)
(-0.0423074 0.0338542 2.02784e-18)
(-0.0159257 -0.150496 -8.67016e-19)
(9.5005e-05 1.07036e-06 5.62605e-21)
(0.00111928 -0.00039836 2.35052e-19)
(-0.000539603 0.000539886 -8.38477e-19)
(0.00238636 -0.000588421 -6.15022e-19)
(0.00285805 0.0138952 -1.47812e-19)
(-0.0105127 0.00873762 -2.00408e-18)
(0.000119285 0.000100898 -2.33422e-18)
(0.0185282 0.0166598 1.58303e-19)
(0.0362301 0.0233807 -2.75406e-18)
(0.000116023 0.000129648 -1.13614e-19)
(0.000342179 2.7021e-06 6.79154e-19)
(0.091147 -0.0662484 -1.2518e-17)
(-0.0121196 -0.0131416 -8.52253e-19)
(0.0346996 0.0246546 5.92675e-19)
(0.0287166 0.0145119 2.26318e-19)
(-0.00150248 4.16341e-06 -2.95062e-20)
(0.0123601 0.000769417 9.60724e-20)
(0.000857999 0.000364744 1.08069e-18)
(-0.00822921 -0.00331137 -2.42257e-19)
(0.0134877 -0.0038499 -3.17569e-18)
(-0.00163097 0.00101271 1.01453e-18)
(0.00125168 0.000656358 -4.0668e-20)
(-0.00163668 0.0155277 -1.28124e-18)
(-0.000147605 1.1302e-06 -1.01436e-18)
(0.0316819 0.00222614 9.42504e-19)
(-0.00838616 0.014123 -8.14771e-19)
(-0.214103 -0.317311 1.93063e-18)
(0.0301053 0.0235893 -1.34334e-19)
(-0.000761152 1.95209e-05 -1.2772e-18)
(0.0522386 0.130103 -8.4526e-19)
(0.0339755 -0.0233738 -2.74621e-18)
(0.0171949 -0.00569269 1.96801e-18)
(-0.000171846 0.000133404 -1.67567e-20)
(0.0124644 -0.00491501 -1.05376e-18)
(0.000314516 8.34866e-06 8.2266e-19)
(0.000165391 6.61265e-05 -7.62328e-20)
(1.83559e-05 -0.000961442 4.97804e-19)
(-0.000170059 6.74378e-06 6.30492e-19)
(-0.00136444 0.00877321 1.52356e-18)
(-0.0535331 0.0428328 -8.88223e-18)
(0.00216111 -0.00103866 1.58102e-18)
(-0.00228354 -0.0359262 -1.79542e-19)
(-0.00272975 0.00858031 -1.32462e-18)
(0.00145199 0.000994723 3.17699e-19)
(0.129016 -0.0505003 1.38713e-19)
(0.0144671 0.000132634 8.97877e-19)
(-0.00272405 0.00165287 1.38589e-19)
(2.9039e-06 3.23834e-06 -6.21857e-20)
(-0.137263 -0.134923 4.64583e-19)
(0.000304085 2.61403e-06 2.95877e-21)
(0.000662381 0.00123844 5.51241e-21)
(-0.000946445 -4.36551e-06 -1.88411e-19)
(0.00229929 -0.000143485 -1.40602e-18)
(0.0460835 0.0114443 3.14224e-18)
(0.0401113 0.179016 2.19536e-18)
(0.00245516 -0.000623058 -9.82522e-19)
(0.000295977 9.92222e-06 4.88376e-19)
(-0.00373644 0.0070026 -3.4124e-18)
(-0.00260777 0.00743095 1.29076e-18)
(0.0958032 -0.0338597 1.91731e-18)
(-0.000156011 6.72202e-05 -1.15047e-20)
(0.00067425 6.31696e-06 -2.13284e-19)
(-0.000219359 -0.00164563 2.88934e-19)
(-0.000147077 8.06176e-06 6.52721e-22)
(0.0336718 0.0237318 4.0806e-19)
(-0.000279698 -0.00233892 -7.23454e-19)
(-0.0175657 -0.0112151 3.94339e-19)
(0.0802006 -0.0235191 8.81474e-19)
(-0.0741492 0.331411 1.4441e-17)
(0.0335329 0.0211374 -6.18144e-19)
(0.000598445 0.000905235 3.4189e-20)
(0.0645322 -0.05928 3.45257e-18)
(0.00408292 0.023158 2.33755e-18)
(0.000606455 0.000369493 -4.74058e-19)
(0.0140112 -0.0231884 3.96282e-18)
(4.1792e-05 0.000121 -3.34723e-19)
(-0.000244307 6.55042e-06 -1.70489e-19)
(0.000265079 0.000102663 -3.05999e-19)
(0.000447663 0.00224192 -2.20375e-20)
(0.000135602 0.000179832 4.10355e-19)
(-0.00403555 0.00013104 -7.30256e-19)
(-0.104799 -0.151845 5.61079e-18)
(0.0022273 -0.000928163 -4.32608e-19)
(0.012485 0.00605648 8.61836e-19)
(0.0394404 0.186182 1.51742e-18)
(0.131182 -0.0144283 -1.55742e-18)
(-9.78998e-05 0.000123848 -4.41336e-21)
(0.00681386 -0.130775 -7.47894e-18)
(-0.0044291 -1.3615e-05 1.44279e-19)
(0.00185819 -0.020916 1.5281e-17)
(-0.000117683 2.96565e-05 5.51989e-19)
(-0.209654 -0.0844534 9.88923e-18)
(-0.000441218 -0.00300171 2.15658e-19)
(0.127287 -0.0322886 5.60228e-18)
(0.0340791 0.0216847 6.14073e-18)
(0.00163385 0.000939959 -4.93165e-19)
(0.0316312 -0.0201375 8.16617e-18)
(0.00328673 0.00132386 -6.77984e-19)
(0.031122 -0.0959265 -2.17741e-20)
(-0.00319612 -1.01422e-05 8.33975e-19)
(-0.0621799 -0.00219821 3.88954e-19)
(0.0103328 0.00256215 1.40146e-19)
(-0.00210761 -0.154917 -5.43788e-18)
(0.00268534 -0.000799681 2.45895e-19)
(0.0412527 -0.0437127 -2.08144e-20)
(0.00399494 0.00115019 -6.48614e-20)
(0.00974969 0.00716559 2.23959e-18)
(0.108506 -0.0368034 2.31794e-18)
(0.000181978 9.16702e-05 -3.07981e-19)
(0.00359642 0.000934416 -5.48737e-19)
(-0.00017575 4.10523e-06 8.50623e-19)
(0.0237442 0.212743 2.97844e-18)
(-4.97638e-05 6.13734e-05 -3.25277e-19)
(0.000279997 9.96523e-05 2.75904e-19)
(0.0319974 -0.0301131 -6.90967e-20)
(0.00517241 -0.00285433 1.16138e-18)
(-0.00117954 0.0244497 7.94948e-20)
(-0.0608944 -0.00187538 6.98606e-19)
(0.000464114 4.71475e-05 -2.68073e-19)
(0.0165124 -0.00721354 6.10724e-19)
(0.00531666 -0.00219828 -1.01632e-18)
(4.95614e-05 0.000140666 -8.15249e-19)
(0.0104722 0.00339594 1.27989e-18)
(-0.00878397 -0.159601 -1.39548e-17)
(0.00302031 0.000889238 -2.09803e-19)
(0.00248236 8.14052e-06 1.26282e-18)
(0.0676263 0.0528172 5.43494e-18)
(-0.0205502 -0.0110304 2.15005e-19)
(8.5479e-05 4.62572e-06 -7.32199e-19)
(-0.00368973 -0.141965 -2.33201e-17)
(0.000182692 -3.60108e-05 5.77887e-19)
(0.000829117 0.0126539 6.04226e-19)
(-0.0152741 -0.0123683 -3.53285e-19)
(0.0249757 -0.108269 3.48827e-17)
(0.0938127 -0.0271382 -1.21559e-18)
(0.0297825 0.0255865 5.18638e-19)
(0.0420973 -0.0326324 1.29685e-18)
(0.0713594 -0.0117653 -2.03409e-18)
(0.0147283 -0.110408 1.12768e-18)
(0.000208931 8.74973e-05 -5.29477e-20)
(-0.00873183 -0.0145216 6.47238e-19)
(-0.0512198 0.012079 4.84827e-19)
(-0.0549984 0.00627488 -3.19697e-19)
(0.0136821 -0.0215164 4.25549e-19)
(-0.00100698 9.14909e-05 -1.38684e-19)
(5.52933e-05 -0.00106732 -9.006e-20)
(-0.00063876 -0.0288534 1.48251e-19)
(-0.044023 -0.122559 -4.6589e-18)
(0.000346363 0.000111182 6.89577e-19)
(0.000225445 0.00156416 -6.81794e-20)
(-0.00107493 4.51463e-06 -2.90381e-19)
(-0.000530425 0.000143725 -2.21263e-20)
(-0.00249362 -0.00166339 5.32427e-19)
(-0.00318573 -0.00160569 8.75644e-19)
(0.000156241 0.002049 2.90384e-19)
(-0.000545547 2.41217e-06 -1.08261e-19)
(-0.00617753 0.0167719 -6.97189e-19)
(0.00106703 -0.00198011 7.87617e-19)
(-0.000520896 0.013322 6.15962e-19)
(0.0198082 -0.0233055 2.74907e-19)
(0.0701388 -0.00495724 -6.6083e-18)
(0.000628095 9.60022e-05 -2.27767e-19)
(-0.225729 -0.144726 -3.1214e-18)
(0.0718789 0.0469955 -6.5916e-19)
(-0.0417587 -0.0452004 1.21026e-18)
(-0.000116106 9.95765e-07 7.46789e-19)
(0.0010251 -0.00774874 8.38377e-18)
(0.00033229 2.84166e-06 -9.23766e-19)
(0.128753 -0.0116027 1.13751e-18)
(0.00121508 -5.18877e-05 4.03712e-19)
(0.021774 -0.00577622 8.11037e-19)
(0.00273178 -0.000685008 -2.66411e-18)
(-0.0377235 0.00865495 2.09851e-18)
(4.81876e-05 -3.85562e-06 2.36942e-19)
(0.00467855 -0.00399857 -1.75611e-18)
(3.70029e-08 0.00165052 -1.08249e-19)
(-0.00619491 -0.0129905 -2.29648e-19)
(-0.0377523 -0.0043843 1.1138e-19)
(3.38577e-05 7.31221e-06 8.23071e-20)
(0.000388414 2.70953e-05 -6.66892e-19)
(0.00079283 -0.000532407 6.04524e-19)
(-0.00886653 0.0314992 4.56482e-18)
(-0.000108505 0.000133503 -1.30386e-19)
(0.0165617 -0.00556265 -2.28127e-19)
(-0.00836571 -0.030735 -6.34826e-19)
(0.0332127 -0.0169845 2.42459e-17)
(0.00111367 0.000774549 -1.85285e-19)
(0.0184056 -0.00728827 4.3034e-19)
(-0.00527568 -0.174843 3.92527e-18)
(0.0652688 0.03005 4.73323e-19)
(0.00122653 0.000543717 -3.20331e-19)
(0.000352542 7.20307e-06 -3.95733e-19)
(-0.0101216 -0.144988 4.56323e-18)
(-0.00963608 0.0387339 -5.16112e-18)
(0.0205686 0.00640003 6.84296e-20)
(0.0567064 0.054773 1.45386e-19)
(0.000187014 -1.76207e-05 -7.67699e-19)
(0.0103947 0.0153522 -2.87872e-19)
(0.00152145 0.0176119 -3.14039e-19)
(0.00606357 0.0125456 6.6159e-20)
(0.00534862 0.00396974 -6.28143e-19)
(0.027206 -0.000929441 2.24338e-18)
(0.00112236 0.00059021 -6.07931e-19)
(-0.000729293 8.6006e-05 2.67948e-20)
(0.000134844 0.00159656 -2.30004e-19)
(-0.00942663 -0.17382 -7.83562e-18)
(0.00128963 0.000145834 -2.44011e-19)
(0.0574411 -0.061813 -3.11117e-18)
(0.00142165 0.000139212 -2.62557e-19)
(0.00119273 0.000269 -2.89603e-19)
(0.000695741 -0.000141159 -1.59953e-19)
(0.00888253 0.0080698 -4.64033e-19)
(0.0613453 0.040134 -5.41409e-19)
(-0.00103177 0.00207183 -1.99811e-19)
(0.00246266 0.000277821 4.32378e-20)
(0.06812 0.010897 -6.25312e-19)
(0.0253043 -0.0106139 -3.23208e-19)
(-0.0165718 0.0192553 -5.48258e-19)
(-0.000736208 0.0018922 8.6446e-20)
(0.000926106 5.80923e-05 -4.82619e-20)
(0.0134339 0.0156809 2.18994e-19)
(0.0665909 0.0251437 -1.58698e-18)
(0.000860351 0.000991871 -6.71448e-20)
(-7.16157e-05 0.000265869 3.54895e-21)
(-0.00640235 -0.0277272 8.78168e-20)
(4.42958e-05 0.000600087 -5.96754e-20)
(-0.000466742 0.000568043 -1.67666e-20)
(-0.0363195 0.0370652 -3.35446e-18)
(-4.87928e-05 2.96544e-05 -1.84651e-18)
(0.057244 0.117391 1.97641e-19)
(0.000273606 1.06745e-05 -7.15954e-19)
(0.00875334 0.0236067 5.48307e-19)
(0.00379108 -0.00701311 4.75155e-19)
(-0.222024 -0.0806958 -7.68841e-18)
(0.00138888 0.000160295 4.50677e-19)
(0.0022404 -0.00830813 -3.52568e-18)
(0.000970867 3.55351e-05 -2.3621e-20)
(4.66162e-05 0.000327346 1.23632e-19)
(0.0665261 0.0137461 1.1203e-20)
(-0.000191119 0.000158162 -5.11676e-20)
(0.0753227 0.0207351 -4.87164e-18)
(0.0212564 0.00510276 1.52691e-18)
(-5.81104e-05 -0.000161395 -2.92999e-19)
(0.00814633 0.00453874 6.42205e-19)
(-0.217308 -0.305359 -2.22642e-18)
(-0.0733933 -0.157778 1.99666e-18)
(0.0156715 -0.0214798 -2.04615e-19)
(-0.000271536 3.46164e-06 2.45366e-18)
(-8.17801e-05 0.000292699 2.34149e-19)
(0.000126309 0.000107277 -2.86869e-19)
(-0.00169149 -0.000657313 -2.97786e-19)
(-0.00185551 -0.0116345 -1.40775e-19)
(-0.00011294 0.00148277 2.31167e-19)
(-0.0508364 0.000132122 2.18904e-19)
(-0.000838104 0.000572721 -3.42707e-19)
(-0.000176964 2.945e-05 -9.54651e-20)
(0.0672881 0.00199367 -4.72063e-19)
(0.00610857 -0.00295784 -9.19927e-19)
(-0.00309282 -0.0133436 8.18094e-19)
(0.000226979 2.38877e-06 1.28964e-19)
(-0.000585947 3.4315e-05 -1.26233e-18)
(0.0607572 0.0118709 3.99516e-19)
(0.050041 0.0243715 -2.91236e-19)
(0.00396088 -0.00582226 8.83133e-19)
(0.028275 0.0150655 1.05634e-18)
(0.00120295 -0.000124445 1.69727e-20)
(0.00371525 -0.00886899 -9.2478e-19)
(0.000263085 0.00039748 -3.4887e-19)
(5.74052e-05 -0.000186596 -9.91508e-19)
(0.000870575 -0.000566597 9.10387e-20)
(0.00114705 -0.00036093 -4.04807e-19)
(0.00101358 0.00103715 9.54486e-20)
(-1.04428e-06 -2.34822e-05 1.4087e-18)
(-0.175227 -0.0617832 3.42064e-17)
(0.00277667 -0.000461549 1.03717e-18)
(-0.00359954 0.0513311 2.56932e-19)
(0.000190638 8.66613e-06 -7.76776e-19)
(0.00505729 -0.00302937 -7.81806e-19)
(0.000121023 0.000104943 -3.31822e-20)
(-0.0171553 0.0223867 3.27367e-18)
(-0.0703995 -0.202416 3.11973e-18)
(3.09858e-05 -0.000134313 1.0904e-18)
(-0.000531213 1.75436e-05 2.49827e-19)
(0.024614 0.0144903 -2.50537e-19)
(0.0211009 -0.0121024 -2.01066e-19)
(0.000165112 9.63858e-05 -9.10402e-19)
(-0.0261682 0.26384 5.03748e-18)
(0.000523395 6.96489e-06 -4.35495e-19)
(-0.00615995 0.012854 1.72284e-19)
(0.000150788 9.31864e-05 5.64542e-19)
(-0.000744858 1.68228e-05 -2.77507e-19)
(-0.000312851 0.000286115 -7.36697e-19)
(-0.172789 -0.131273 -8.07564e-18)
(0.000125675 9.03226e-05 -6.3611e-20)
(-0.00147289 -0.00034426 -9.18278e-19)
(4.34953e-05 -0.00268673 -1.19806e-19)
(-0.0493657 0.278867 1.52026e-17)
(-0.000125404 7.00601e-06 1.02992e-21)
(0.00118375 -0.00043925 7.03251e-20)
(0.000207352 -1.57243e-05 -3.3731e-19)
(-0.0429748 -0.0310507 -1.11164e-19)
(-0.00041171 0.000140789 -1.77841e-19)
(-0.000815995 6.8713e-06 1.40594e-18)
(5.6941e-06 -7.13918e-06 7.56754e-19)
(-0.000492831 2.31892e-05 -1.46167e-18)
(0.00605665 0.003918 -3.24952e-19)
(-0.00037782 -0.000119172 -8.28082e-19)
(0.00454952 -0.00234731 7.73978e-19)
(0.000501845 0.000430802 6.93304e-19)
(0.03472 0.0334407 1.92401e-17)
(-0.016322 0.0134018 -9.34821e-19)
(-0.0301789 0.00870069 -2.38023e-18)
(-0.00305819 -0.000431843 -8.41235e-19)
(0.00134192 -0.00535079 -1.30959e-18)
(0.00039284 4.17561e-05 2.13447e-20)
(-0.0474888 0.019013 -7.33133e-18)
(-0.00299217 -1.64629e-05 2.50723e-19)
(0.0273393 0.0252088 1.98319e-18)
(0.0385176 0.0163515 1.20052e-18)
(-0.0289958 0.0149229 -3.27457e-19)
(-0.00785406 0.0109772 -4.23947e-19)
(0.0221935 -0.0967954 4.84614e-18)
(0.00151361 -0.000118537 2.62415e-20)
(0.000861814 0.000760111 1.08455e-19)
(0.0067487 -0.183702 -6.57715e-19)
(-0.0338731 -0.0297637 1.84235e-18)
(0.0118684 0.00252016 1.32342e-18)
(0.00699448 -0.0412174 -1.65697e-18)
(0.00186903 -7.8171e-05 7.87164e-19)
(0.0522061 0.0227149 1.50447e-19)
(0.000248766 0.000372984 1.79976e-18)
(0.00141975 0.000763264 -8.10746e-20)
(0.000681555 0.000155505 -8.04144e-20)
(1.32592e-05 0.000112318 -1.08059e-18)
(0.000299959 7.74118e-06 1.76866e-19)
(0.00360183 -0.191009 -5.94023e-18)
(0.0017405 -0.00166086 -1.79764e-18)
(-7.99885e-05 1.6576e-05 -7.10718e-20)
(-0.147389 -0.153202 -1.49888e-17)
(-0.00155534 0.000400816 -1.96367e-19)
(-0.0435001 0.0266108 1.74471e-18)
(0.000511682 0.00277595 -9.57821e-21)
(0.000710975 -0.00180427 -7.93439e-19)
(0.0138957 -0.00638728 1.63474e-19)
(0.00027692 -2.4144e-05 5.91311e-19)
(0.0379173 0.0119265 -7.49875e-19)
(0.000766193 0.00126683 -1.42974e-18)
(0.000106028 -0.000322688 4.58787e-20)
(-0.000179057 0.0443204 -2.54904e-18)
(0.0013036 0.000354381 5.73021e-20)
(-0.000161456 3.68329e-05 2.02024e-20)
(-2.25821e-05 2.98251e-06 -1.2357e-18)
(0.00031447 0.000559737 -1.1531e-18)
(0.000433841 0.000119039 1.4248e-18)
(-0.0273845 0.0157884 3.94132e-19)
(-0.0276679 0.0420476 1.08963e-18)
(-0.0280604 0.0128366 2.95468e-19)
(0.00141714 -0.000501085 2.85614e-19)
(-0.000625274 0.000752189 2.71016e-18)
(0.000524266 0.000448229 -3.68288e-18)
(0.0515952 0.0134132 3.62834e-19)
(-0.00142039 0.0045435 7.08698e-20)
(0.00104654 -5.27877e-05 6.65392e-20)
(0.000239621 2.86671e-05 4.01483e-20)
(0.00040243 -0.000648826 5.13535e-19)
(0.0280334 -0.0843047 -1.14673e-19)
(0.108422 -0.0261914 -6.6224e-18)
(0.00491244 0.00855276 2.09708e-19)
(-0.00366365 0.00124417 -1.1243e-19)
(0.00115724 -7.15876e-06 -2.26276e-20)
(0.0931298 0.0351068 4.03776e-17)
(0.0027784 -0.0088933 -4.25864e-18)
(-0.00128974 0.0100152 6.46163e-19)
(-0.0084094 0.0234322 1.43714e-19)
(0.0276966 0.0655219 -3.2568e-20)
(0.12274 -0.0327333 3.13712e-19)
(0.0392044 -0.0424076 -1.26597e-18)
(0.000194232 0.000374066 3.68745e-19)
(-0.000218931 -8.47221e-06 1.78991e-18)
(0.00088165 0.00137601 1.17529e-18)
(0.0339934 -0.0755085 5.37802e-18)
(-0.000650334 0.000325651 -8.25898e-19)
(0.00154788 -0.00623602 4.25651e-18)
(-0.000536717 0.0022461 -1.82993e-18)
(-0.000146722 0.000185651 4.87089e-20)
(0.0127845 -0.00299892 -4.79569e-20)
(-0.00216562 0.00349951 2.44977e-18)
(-0.209985 -0.16228 4.59324e-18)
(-0.258925 -0.0993619 2.01003e-17)
(-4.59634e-05 0.000225437 -4.8773e-20)
(-0.000420098 8.86097e-05 -1.07313e-18)
(0.000161152 9.18234e-05 7.18612e-20)
(0.0291602 0.0206545 -5.2158e-19)
(-1.19763e-05 0.000109971 -6.00143e-19)
(-0.065299 0.0178719 5.34127e-19)
(-0.0038489 0.00595537 3.09778e-18)
(0.0547294 -0.0911873 -2.18715e-17)
(-0.000663831 0.00072761 -3.02537e-18)
(0.00201607 0.000806798 -4.29668e-19)
(2.44309e-05 -0.000137713 4.02458e-19)
(-0.000631279 9.43677e-05 7.84008e-19)
(0.000518306 0.000600761 -3.04787e-20)
(-0.00019579 0.000789745 6.78126e-20)
(0.00125722 -8.33087e-05 -8.51021e-20)
(0.00255082 -0.000539503 6.71118e-19)
(0.0133956 0.00423235 -1.60527e-19)
(0.00392159 -0.00384806 4.57202e-18)
(-0.0380915 0.00820637 -1.81365e-18)
(0.00127296 -0.00011405 5.86082e-20)
(-0.0272831 -0.0229039 -1.5193e-18)
(0.0171507 0.0539984 -7.9736e-20)
(-0.00361254 -1.06241e-05 -2.75545e-19)
(0.125252 -0.108586 3.01073e-18)
(2.04595e-05 -1.76127e-05 -3.82952e-19)
(-0.00149081 -0.00189078 -3.34911e-19)
(-0.000817967 -0.00346055 -3.02392e-19)
(2.63881e-05 1.59846e-06 4.52369e-20)
(0.0177786 0.0296364 -1.98632e-20)
(-0.000409482 0.00218174 9.67392e-19)
(-0.00251951 -0.000492598 -2.54127e-19)
(0.000804409 -0.000115482 -6.28366e-20)
(-0.0979447 0.205005 3.39446e-18)
(0.00148883 0.00075724 -1.90039e-19)
(0.0371789 -0.065668 -4.22163e-19)
(0.0193116 0.00206095 1.2435e-18)
(-0.00046267 0.00082151 8.45766e-19)
(0.0200701 0.0384855 3.69369e-19)
(0.0276702 -0.0915362 1.23519e-19)
(-2.20548e-05 0.00281155 -3.43185e-20)
(0.000311254 0.000520501 6.40088e-19)
(0.0104996 -0.0403273 6.90277e-19)
(0.000656195 3.48049e-06 4.41991e-19)
(0.0801193 -0.0211507 1.91061e-19)
(0.0105184 0.00606606 6.28559e-19)
(-0.0257605 -0.00215885 7.20002e-19)
(0.0147343 -0.00193003 -1.09168e-18)
(0.00148328 -0.000435107 1.03649e-19)
(0.0015492 0.000558902 6.12468e-20)
(0.00124053 -0.00081545 -5.6651e-19)
(-0.00621712 0.0142421 2.72132e-19)
(0.000356297 -0.00405855 -3.33232e-19)
(0.0305772 0.0230404 8.30404e-19)
(0.0514287 0.016198 -4.99415e-18)
(-0.000172716 0.000219722 -1.11965e-19)
(-0.00152934 -0.00124957 -1.18445e-20)
(-0.00476256 -1.51372e-05 4.1658e-19)
(-0.0134218 -0.0140876 8.65653e-19)
(0.000741855 4.00171e-06 4.76242e-19)
(-0.0623766 0.0568742 3.1835e-18)
(0.00137821 -0.000752227 -9.94848e-19)
(0.00104565 0.00113501 1.00902e-19)
(0.0397068 0.013707 -6.13833e-19)
(-0.000198181 0.000658981 2.16207e-18)
(0.0114524 -0.0367645 9.23976e-20)
(0.00720066 0.0132029 -4.07163e-23)
(0.00111197 1.2006e-06 -2.95746e-19)
(0.0441712 -0.00981581 7.62561e-19)
(-0.00359197 0.00283615 7.41169e-19)
(-0.000873083 0.00021147 4.00584e-19)
(-0.00399781 0.00285929 4.04332e-19)
(0.00233224 0.0215014 -1.33557e-18)
(0.000220279 -0.002143 2.1239e-18)
(0.129591 -0.0305518 -2.2921e-19)
(0.0024181 -0.0004332 -1.04488e-18)
(-0.000436018 0.0217558 -4.36203e-19)
(0.00143269 -0.00668382 9.59908e-19)
(-0.0762058 -0.0385119 1.1131e-18)
(-0.00371913 0.00227785 -1.53296e-18)
(0.00631802 0.0109599 -3.02725e-19)
(0.00453915 -0.000284884 -5.88331e-19)
(0.00212895 -0.000517745 -1.85921e-19)
(0.0179554 0.00287519 -3.70231e-18)
(0.000169821 -4.26759e-05 -7.60761e-19)
(0.0028659 0.0189333 -7.37846e-19)
(-0.00170564 -0.000793008 2.63817e-18)
(0.00224995 -0.000875882 1.68325e-18)
(0.00222909 0.000630361 1.98075e-19)
(0.000393789 3.1932e-05 5.03295e-19)
(0.00382904 -0.00134914 -1.13156e-18)
(0.0208632 0.00930662 2.00586e-18)
(-0.00036438 7.30373e-06 -7.87554e-20)