/*--------------------------------*- C++ -*----------------------------------*\
| =========                 |                                                 |
| \\      /  F ield         | OpenFOAM: The Open Source CFD Toolbox           |
|  \\    /   O peration     | Version:  v2012                                 |
|   \\  /    A nd           | Website:  www.openfoam.com                      |
|    \\/     M anipulation  |                                                 |
\*---------------------------------------------------------------------------*/
FoamFile
{
    version     2.0;
    format      ascii;
    class       volVectorField;
    location    "850";
    object      ddtCorrDdt0(U);
}
// * * * * * * * * * * * * * * * * * * * * * * * * * * * * * * * * * * * * * //

dimensions      [0 1 -2 0 0 0 0];


internalField   nonuniform List<vector> 
10042
(
(-0.00242462 0.0170904 2.09275e-18)
(0.0315674 0.0444473 -7.03862e-18)
(-0.0222512 -0.021861 -8.4397e-20)
(0.000183158 0.000112072 -4.68618e-19)
(5.68234e-05 1.16713e-05 5.03716e-19)
(-0.0105357 0.191158 -1.93958e-19)
(0.0592577 0.0214399 2.74166e-18)
(-0.00051102 -0.135622 4.59724e-18)
(0.000284678 -0.000190464 -7.85744e-19)
(0.0123831 0.028042 -6.3913e-19)
(-0.0408158 -0.0112348 2.92394e-19)
(0.0206065 0.0468531 -4.99495e-18)
(0.0140937 -0.0110999 1.96817e-18)
(0.0018619 -0.00156107 1.4616e-19)
(0.00105519 -0.000577192 3.16435e-20)
(0.0020278 -0.00139112 6.46154e-20)
(-0.036542 0.152102 5.68542e-18)
(-0.0426191 -0.0057607 -1.43819e-19)
(0.00425188 -0.00393503 3.85024e-18)
(-0.0110584 0.00487043 6.04677e-19)
(0.0151703 -0.00986028 6.90924e-19)
(-0.00468611 0.0154553 7.14233e-19)
(0.000174096 0.000106655 2.68714e-19)
(0.00839579 0.0219884 -6.00456e-18)
(0.000203842 -0.000124066 2.42184e-19)
(-1.46909e-05 1.53858e-05 -1.33686e-19)
(0.010115 0.0266459 1.11629e-19)
(0.000238636 -3.54018e-05 5.54439e-19)
(-0.0182025 0.197355 -3.17436e-18)
(0.0093609 -0.0168157 7.2727e-18)
(1.70051e-06 3.07411e-06 9.81934e-19)
(0.00117152 -0.0205086 -1.2492e-17)
(0.000305922 -0.000143091 1.00032e-18)
(0.000289737 -0.000120424 2.0059e-19)
(0.000387559 -0.143867 3.49256e-18)
(-0.00816493 -0.163812 7.06619e-18)
(0.000275375 -5.18592e-07 -1.17338e-19)
(6.8979e-05 8.54413e-05 -1.42474e-19)
(-8.71312e-06 7.4497e-06 -1.14796e-18)
(0.000999794 0.00305333 -2.5381e-20)
(0.0139239 0.0118045 3.721e-18)
(0.000272356 -0.000164439 5.35465e-19)
(0.0514443 -0.0483093 -2.31322e-17)
(-0.0106343 0.0203394 8.92013e-19)
(2.98292e-05 0.000107606 -1.66187e-18)
(0.000242826 -0.000151767 9.80505e-19)
(7.15333e-05 0.00010779 5.87023e-19)
(0.00101145 -0.000512929 -2.47398e-19)
(0.0288468 0.0148705 4.88058e-19)
(0.121574 -0.019816 -2.66115e-18)
(0.0597958 -0.0465696 1.9186e-17)
(6.59511e-05 2.92903e-05 -5.21584e-19)
(-0.0371077 0.157336 1.74737e-20)
(0.00415774 -0.00347675 -3.44108e-18)
(0.10075 0.00470383 1.46416e-19)
(0.0408402 -0.138784 2.75581e-17)
(0.0144661 -0.00841504 1.3976e-18)
(-0.0235601 -0.00674405 4.19111e-19)
(0.00144302 0.000624152 -1.08412e-19)
(-0.000182871 7.68446e-05 1.99711e-20)
(0.0276726 0.0172037 -1.1761e-18)
(0.119783 -0.0450034 1.07518e-18)
(0.0449637 -0.0426239 -8.74052e-18)
(0.0227201 -0.097228 2.30955e-18)
(-0.0194895 -0.0363979 9.51752e-20)
(0.0019193 -0.000473531 1.50726e-18)
(-0.0103726 0.0025433 -8.15177e-19)
(0.0119976 0.0226043 -8.71381e-20)
(7.93782e-06 0.000131952 -2.81795e-19)
(0.00885666 0.0218535 -1.91707e-20)
(0.0819991 -0.0527254 4.26113e-18)
(-0.00150945 0.00416535 -1.87005e-19)
(0.000175296 0.000463731 -1.03642e-18)
(0.0013732 0.000512519 4.96775e-19)
(0.00172049 -0.000305487 -1.01912e-18)
(0.0720468 -0.0555888 -2.74756e-18)
(-0.0260692 -0.00797989 -7.3689e-20)
(5.6064e-05 0.000117197 -4.76336e-19)
(-0.0273591 -0.0049784 -1.33394e-18)
(0.00390551 -0.00423897 5.23319e-19)
(-0.0107872 0.0139103 -5.82959e-19)
(0.00580126 0.0232108 -1.08725e-18)
(4.62562e-05 3.25957e-06 -7.17889e-19)
(6.47847e-05 6.31985e-06 4.79223e-19)
(-0.00498397 0.0222586 -5.33179e-19)
(0.0390418 0.0246379 1.88338e-20)
(-0.00942562 0.00197688 1.91587e-19)
(-0.0187858 -0.0245767 -1.15786e-18)
(-0.00080189 0.000828094 -1.48489e-18)
(-0.0203771 -0.0197005 3.39447e-19)
(0.00914313 -0.00754752 -5.46022e-18)
(0.00102292 -0.000653714 1.66018e-19)
(0.0462888 -0.0377784 5.68813e-18)
(0.0394777 0.0271291 1.37259e-20)
(0.00675491 -0.0317796 4.89721e-20)
(-0.000443734 0.00053636 8.97083e-19)
(-0.0105869 0.0502798 2.92672e-17)
(-0.0101059 0.00400433 -5.66248e-19)
(-0.0308335 0.0108537 -4.9383e-19)
(0.00134431 0.000295556 -5.17113e-19)
(0.00890242 -0.00677424 -5.91266e-18)
(0.0199522 0.0359515 8.13546e-19)
(-0.000147462 0.00214933 -1.25892e-20)
(0.00101124 -0.0161358 -4.59566e-18)
(0.00684264 -0.00350562 3.5951e-18)
(0.000167658 0.00139672 -6.31803e-20)
(-0.160267 -0.311939 7.66085e-18)
(0.00140982 -0.000434026 -8.4006e-19)
(0.0573353 0.0245983 3.16589e-19)
(0.000270348 0.00152233 -1.81149e-19)
(0.00114491 0.000695641 7.66208e-20)
(0.0525317 0.0236033 1.05853e-19)
(0.0165148 0.0355509 -7.25692e-19)
(0.0221708 -0.103801 5.57811e-20)
(-0.00833757 -0.0303051 8.07776e-20)
(-6.78732e-05 0.000143067 1.03086e-18)
(0.0173103 0.00966099 3.98349e-19)
(2.08866e-05 6.99267e-06 6.99658e-19)
(-0.0207427 -0.00745074 -1.78064e-19)
(-8.97206e-05 0.000105896 1.09297e-20)
(-0.000174597 9.53519e-05 -9.08826e-21)
(-0.00621239 0.0130188 1.17845e-17)
(-0.019206 0.00485507 -4.24528e-18)
(1.45912e-05 0.000116662 7.76677e-19)
(-0.0250479 -0.0173 5.82283e-19)
(-0.00101147 0.00110488 3.18704e-18)
(-0.000978895 0.00130435 -2.45537e-19)
(0.0873201 0.00327918 -6.23709e-18)
(0.0141779 -0.0675401 -3.75839e-17)
(0.0166326 0.0117221 -2.91127e-18)
(-8.46958e-05 1.02722e-05 8.40089e-19)
(0.00117551 0.000205962 3.89513e-19)
(-0.00210855 0.00164279 -1.1223e-19)
(0.000763285 -0.000633873 3.04489e-19)
(0.0509331 0.0258991 5.21226e-19)
(0.0817673 -0.0233441 -1.15164e-17)
(-0.0101803 -0.00181914 -2.34012e-18)
(-0.110755 -0.242135 -1.97143e-18)
(0.00393434 -0.000727487 2.80975e-18)
(-0.0334924 0.0129814 -3.11965e-18)
(0.0319439 -0.0266916 -2.58707e-19)
(0.000127726 -6.01199e-06 -2.74347e-19)
(-0.182422 -0.309925 -1.03142e-17)
(0.000216235 -3.43942e-05 -8.40753e-19)
(0.00884212 0.0049954 -3.1787e-19)
(4.07421e-05 9.85897e-05 5.88038e-19)
(-0.0045495 0.0206856 1.83685e-18)
(4.37957e-06 0.000124742 6.37219e-19)
(-0.00303607 0.00241591 -2.11124e-19)
(0.054061 0.0515573 -1.05668e-17)
(0.00125743 -0.000304427 3.29349e-19)
(0.000133356 -9.92966e-07 5.95486e-19)
(0.0045595 -0.00096071 8.57046e-22)
(0.0160621 -0.0148975 -6.85266e-18)
(0.0112036 -0.0248473 1.41793e-19)
(0.00894753 0.00581132 5.59085e-19)
(0.0151704 -0.0631371 3.45889e-17)
(0.0973563 -0.112117 6.17812e-18)
(-0.00191685 0.00194657 -5.81353e-19)
(-1.71725e-06 1.20053e-05 -2.02413e-19)
(6.26654e-05 6.77696e-06 -3.00429e-19)
(0.000825511 0.00360931 1.13122e-19)
(0.0802113 -0.0153396 1.40504e-18)
(-0.000801996 0.000993865 -3.5694e-18)
(0.00317372 -0.000424523 2.05239e-18)
(0.047509 0.101089 6.39794e-18)
(8.23842e-05 0.00048132 -1.10493e-18)
(0.00181173 -0.0175435 -3.86911e-18)
(-0.00844106 -0.161856 -3.07371e-18)
(0.000285673 -8.29665e-05 -8.82399e-19)
(0.0229657 -0.0186311 -8.81512e-20)
(0.0152254 -0.0480175 -7.93751e-18)
(-0.0558216 -0.0897791 -5.48961e-18)
(0.000308247 -9.94215e-05 -9.99711e-19)
(0.00448863 -0.00316017 -3.33707e-18)
(-0.0407957 -0.0520751 8.66027e-18)
(7.04678e-05 -0.00011055 -6.88744e-20)
(2.85505e-05 8.60672e-05 1.93835e-19)
(0.000999206 0.000213174 -1.2187e-18)
(2.6443e-05 0.000128801 4.22106e-19)
(0.00374997 -0.000500369 -4.28512e-18)
(0.00801263 -0.0016642 -2.07157e-18)
(0.00143453 0.000374252 7.26834e-19)
(-3.13128e-05 0.000105699 -7.10383e-19)
(0.0226143 0.0169373 -6.16906e-19)
(0.00601188 -0.00975457 -4.58999e-18)
(-0.00105508 0.00436315 6.76977e-20)
(-0.000173919 5.64669e-05 -2.06152e-20)
(-0.0184615 -0.14109 -3.81302e-17)
(6.20377e-05 -2.94255e-05 2.23384e-19)
(0.0327351 0.0410581 1.26844e-17)
(0.0152626 -0.00717464 1.86124e-18)
(-0.000126066 2.99137e-05 -4.38897e-19)
(0.0074336 -0.00163648 -1.72051e-18)
(0.00904293 0.0677485 -8.46385e-18)
(0.000954134 -0.000660651 -6.21603e-20)
(-0.24735 -0.101423 8.97038e-18)
(0.0253648 -0.00733428 -8.16736e-19)
(-0.0781815 0.0314749 9.52663e-18)
(6.34596e-05 6.65676e-06 -6.13212e-19)
(0.0229034 -0.0808209 -1.70358e-17)
(0.0389919 -0.0319789 7.5917e-19)
(0.0419718 0.00243124 -1.15975e-18)
(0.000156952 1.73729e-05 1.00159e-18)
(-0.0249017 0.0142398 9.9839e-19)
(-0.00194376 0.00130434 -6.43771e-19)
(0.0340629 -0.00104581 -3.28417e-18)
(0.0163941 -0.0133837 2.27514e-18)
(0.00101056 0.000697449 -1.04952e-19)
(0.00070399 -0.000748152 4.72681e-19)
(0.00064547 -0.0189354 2.39018e-18)
(0.000158295 2.27591e-05 -6.09949e-19)
(0.0445428 0.00499887 3.31625e-19)
(0.039653 -0.00391419 -3.80835e-19)
(0.000244836 9.49423e-06 -1.28328e-19)
(0.00578074 0.0181527 -3.51452e-19)
(0.000128523 3.29948e-05 2.3194e-19)
(-0.0863048 -0.18882 3.52473e-19)
(0.000140013 4.22351e-05 -3.20419e-19)
(0.0260805 -0.0766751 1.78163e-17)
(-0.259924 -0.106683 -1.60805e-17)
(0.0202824 -0.015168 -1.34952e-19)
(-0.252511 -0.104797 1.01803e-17)
(0.00562572 0.0190353 3.99629e-19)
(0.000175476 0.000122685 1.76581e-19)
(0.0392057 -0.036091 7.56036e-18)
(-0.00229884 0.00133068 -3.63103e-19)
(-0.00901928 -0.00205163 -3.5611e-19)
(0.00815951 0.0222194 -1.91727e-18)
(7.32488e-05 0.00223926 -9.89391e-21)
(-6.30907e-06 9.16092e-05 6.00831e-19)
(-0.00119948 0.00153011 -3.02194e-19)
(0.00660756 -0.00924246 6.15051e-18)
(2.71055e-05 4.60275e-06 -9.677e-19)
(0.000100938 -0.000135644 -2.16613e-19)
(-0.0053103 -0.146758 -2.54152e-18)
(-0.00650237 -0.00432838 -8.62425e-19)
(-0.0299073 0.0391876 -1.84026e-17)
(0.00800227 0.00459834 -2.78581e-18)
(0.0192822 0.0188596 3.83946e-18)
(-0.00951809 -0.149197 -3.05931e-18)
(0.00745034 -0.14365 -1.9121e-18)
(-0.000190388 0.000111804 2.72232e-20)
(0.001529 0.00401682 -1.5839e-19)
(-0.00255492 0.197226 -6.91948e-18)
(5.88933e-05 9.80691e-06 7.33759e-19)
(0.00930276 -0.127942 -1.58503e-18)
(0.00719718 0.00474074 2.9933e-18)
(0.00489143 -0.0009611 7.49463e-19)
(5.51224e-05 1.05873e-05 5.22533e-19)
(0.0061658 -0.00339888 -2.90896e-18)
(-0.00017749 -3.51915e-06 5.68081e-19)
(0.0356215 0.0489049 -6.46911e-19)
(0.124385 0.0132363 -1.31465e-18)
(-0.00287216 0.00203064 1.51653e-19)
(-0.005723 -0.00413849 -9.13813e-19)
(5.78036e-05 -2.04123e-05 1.98982e-19)
(-0.00361461 0.000871923 -3.34186e-19)
(0.0156282 0.0457856 -3.35954e-17)
(0.000111969 5.01276e-05 -8.595e-19)
(-0.0262786 -0.0253207 -2.28173e-19)
(0.00013205 0.000128689 -6.79759e-19)
(6.3649e-05 2.44644e-05 3.04522e-19)
(8.31309e-05 0.000113111 1.61259e-18)
(0.0143781 -0.0124969 -1.26623e-18)
(0.115333 0.0490857 -1.3971e-18)
(-0.020797 -0.0277716 3.60332e-19)
(0.0306592 0.0456718 -3.53147e-19)
(1.21997e-05 4.98892e-07 -5.07056e-19)
(-0.00144357 0.00150877 -1.71095e-20)
(0.000452769 -0.000102796 1.71877e-20)
(0.112059 -0.0157249 8.00699e-18)
(0.000327689 -0.00145588 1.33443e-19)
(0.0930279 -0.0629799 1.54336e-17)
(-0.00320697 0.000630129 2.43e-19)
(-0.014397 -0.0139697 5.63908e-19)
(0.00207552 -0.00201377 -1.80535e-18)
(3.39949e-05 1.63272e-05 2.93775e-19)
(1.57477e-05 1.4048e-06 -1.43716e-19)
(-0.0500979 0.127541 2.71467e-18)
(0.000257511 -4.43888e-05 1.41553e-18)
(-0.0180865 -0.139974 4.02796e-19)
(-0.233093 -0.0906607 -1.39035e-17)
(0.00202386 -0.00180275 6.05731e-19)
(0.0002211 -6.03618e-06 3.96846e-19)
(-0.15735 -0.0648376 -4.54303e-17)
(0.0106948 0.0175227 9.33437e-20)
(0.000104003 0.000209457 -7.37486e-19)
(-0.00896056 0.0112903 8.05966e-19)
(0.000137889 -1.24647e-06 -9.67262e-19)
(0.0151208 -0.00478758 -5.79272e-19)
(0.00541606 0.0131521 -2.13467e-19)
(0.000265004 3.16595e-06 5.50834e-21)
(-0.00738129 -0.161114 1.73425e-19)
(-0.027153 -0.0346133 -5.88355e-19)
(0.00231806 -0.000374482 -2.61919e-19)
(-0.0350699 0.0328952 -1.28748e-18)
(-0.0083916 -0.00334024 3.84301e-19)
(0.000453866 -0.000124181 -1.84741e-19)
(0.000135552 2.96358e-05 6.26949e-19)
(0.00440834 -0.000649762 -8.26157e-19)
(0.0430584 -0.0015703 1.79612e-19)
(-0.000183278 5.126e-05 5.84412e-20)
(-0.0431619 -0.177909 3.48264e-19)
(0.0120446 0.0156102 9.60355e-19)
(0.112416 -0.0308209 -1.5007e-18)
(0.000467302 -0.00190839 -1.79943e-18)
(0.00134336 0.00479894 -1.41773e-20)
(-0.0414762 0.0337357 2.02783e-18)
(-0.0156876 -0.150497 -8.67007e-19)
(0.00028562 1.10909e-06 5.62567e-21)
(0.0007152 -0.000400165 2.35068e-19)
(-0.00034072 0.000540881 -8.3844e-19)
(0.00223786 -0.000589134 -6.14996e-19)
(0.00371751 0.0138999 -1.47806e-19)
(-0.0104055 0.00873457 -2.00408e-18)
(9.90329e-05 0.000100907 -2.3342e-18)
(0.0185771 0.0166603 1.58303e-19)
(0.0363763 0.023415 -2.75406e-18)
(-6.85705e-05 0.000129875 -1.13609e-19)
(0.000138834 2.71241e-06 6.79145e-19)
(0.0926953 -0.0659052 -1.2518e-17)
(-0.0112449 -0.0131567 -8.52241e-19)
(0.0346958 0.0246544 5.92672e-19)
(0.0287681 0.0145138 2.26318e-19)
(0.000254155 4.7064e-06 -2.95242e-20)
(0.0128981 0.000784181 9.60496e-20)
(0.000938444 0.000365101 1.08066e-18)
(-0.00733711 -0.00331594 -2.4228e-19)
(0.0142285 -0.00380718 -3.17562e-18)
(-0.00214399 0.00101466 1.01453e-18)
(0.00041248 0.000651291 -4.06647e-20)
(-0.0015821 0.0155274 -1.28123e-18)
(0.00016433 1.15708e-06 -1.01433e-18)
(0.0314064 0.00215817 9.42506e-19)
(-0.00819459 0.0141177 -8.14771e-19)
(-0.212656 -0.316741 1.93061e-18)
(0.0301209 0.0235906 -1.34335e-19)
(-0.000235957 1.93756e-05 -1.27719e-18)
(0.0526457 0.130184 -8.45268e-19)
(0.0348053 -0.0232734 -2.74616e-18)
(0.0177655 -0.00565295 1.968e-18)
(-0.0001792 0.000133421 -1.67567e-20)
(0.0127442 -0.00490765 -1.05375e-18)
(6.83485e-05 8.27111e-06 8.22587e-19)
(-1.47201e-05 6.61141e-05 -7.62256e-20)
(-1.96653e-05 -0.000961506 4.97766e-19)
(6.70579e-05 6.88428e-06 6.30434e-19)
(-0.000893929 0.008772 1.5235e-18)
(-0.0535516 0.0427107 -8.88222e-18)
(0.00159947 -0.00104167 1.58108e-18)
(-0.00250172 -0.0359295 -1.79542e-19)
(-0.00222467 0.00857757 -1.32459e-18)
(0.00167455 0.000995396 3.17695e-19)
(0.129648 -0.0502823 1.38714e-19)
(0.0147756 0.000142375 8.97874e-19)
(-0.00216147 0.00165559 1.38594e-19)
(2.55163e-05 3.24043e-06 -6.21252e-20)
(-0.136191 -0.134794 4.64596e-19)
(0.000116715 2.60834e-06 2.95939e-21)
(0.000259983 0.00123545 5.51149e-21)
(0.000269288 -3.77457e-06 -1.8839e-19)
(0.00320723 -0.000129434 -1.40607e-18)
(0.0464113 0.0115157 3.14224e-18)
(0.0405026 0.179071 2.19536e-18)
(0.00336428 -0.000608832 -9.82394e-19)
(6.24022e-05 9.74443e-06 4.88332e-19)
(-0.00368994 0.00700248 -3.41234e-18)
(-0.00256733 0.007431 1.29073e-18)
(0.0961531 -0.0337126 1.9173e-18)
(-0.000170847 6.72439e-05 -1.15047e-20)
(8.56318e-05 6.21261e-06 -2.13281e-19)
(0.000239565 -0.00164538 2.8888e-19)
(-0.000147077 8.06176e-06 6.52721e-22)
(0.0351867 0.0239185 4.08057e-19)
(-0.000260057 -0.00233903 -7.23441e-19)
(-0.0167171 -0.0112389 3.94333e-19)
(0.0811025 -0.0233692 8.81467e-19)
(-0.0731165 0.331377 1.44409e-17)
(0.0348678 0.0213001 -6.18139e-19)
(0.000208013 0.000902756 3.41891e-20)
(0.0654099 -0.0591376 3.45256e-18)
(0.00574577 0.0232089 2.33751e-18)
(0.000798164 0.000370222 -4.74086e-19)
(0.0151724 -0.0231018 3.96281e-18)
(-9.56771e-05 0.000121191 -3.34723e-19)
(6.68382e-05 6.70991e-06 -1.70459e-19)
(-6.62621e-05 0.000103115 -3.06e-19)
(0.000460075 0.0022421 -2.20542e-20)
(0.000133579 0.000179836 4.10345e-19)
(-0.0031781 0.000132911 -7.30223e-19)
(-0.104599 -0.152008 5.61078e-18)
(0.00167897 -0.00093151 -4.32606e-19)
(0.0128658 0.00606702 8.61844e-19)
(0.039478 0.186185 1.51742e-18)
(0.131853 -0.0142445 -1.55741e-18)
(0.00024489 0.000124658 -4.40516e-21)
(0.00699433 -0.130756 -7.47893e-18)
(0.000214043 -1.30414e-05 1.44241e-19)
(0.00267717 -0.020882 1.52809e-17)
(7.13889e-05 2.98623e-05 5.51954e-19)
(-0.209341 -0.0845282 9.88922e-18)
(-0.000389994 -0.00300192 2.15657e-19)
(0.127896 -0.0320683 5.60227e-18)
(0.0340729 0.0214778 6.14068e-18)
(0.00188435 0.000940839 -4.9316e-19)
(0.0328371 -0.0199982 8.16611e-18)
(0.00315672 0.00132311 -6.77981e-19)
(0.0316643 -0.095859 -2.17809e-20)
(-0.00279076 -9.11169e-06 8.33934e-19)
(-0.062161 -0.00220281 3.88969e-19)
(0.01118 0.00260137 1.40164e-19)
(-0.00160605 -0.154874 -5.43784e-18)
(0.00158979 -0.000806056 2.45863e-19)
(0.0412976 -0.0437056 -2.08167e-20)
(0.00440994 0.00115489 -6.48379e-20)
(0.0105629 0.00720251 2.23955e-18)
(0.108939 -0.0366276 2.31793e-18)
(0.000161431 9.16758e-05 -3.0798e-19)
(0.00394085 0.000938083 -5.48746e-19)
(0.000144263 4.14267e-06 8.50598e-19)
(0.0238174 0.212744 2.97844e-18)
(-5.10435e-05 6.13751e-05 -3.25265e-19)
(-3.15406e-05 0.000100025 2.75902e-19)
(0.0328291 -0.0300135 -6.91748e-20)
(0.005802 -0.00284428 1.16133e-18)
(-2.48811e-05 0.0244678 7.94796e-20)
(-0.0606934 -0.0019191 6.98605e-19)
(0.000104076 4.67728e-05 -2.68075e-19)
(0.0170533 -0.00717669 6.10737e-19)
(0.00586625 -0.00218974 -1.0163e-18)
(4.44212e-05 0.000140672 -8.15244e-19)
(0.0113049 0.00343491 1.27987e-18)
(-0.0086347 -0.159595 -1.39548e-17)
(0.00295558 0.000888894 -2.09804e-19)
(0.00295192 1.49715e-05 1.26286e-18)
(0.0680076 0.0529391 5.43493e-18)
(-0.0196073 -0.011062 2.15005e-19)
(0.00013014 4.62505e-06 -7.32196e-19)
(-0.00347896 -0.142233 -2.33201e-17)
(0.000188479 -3.60113e-05 5.77886e-19)
(0.00203046 0.0126566 6.04218e-19)
(-0.0144951 -0.0123813 -3.53284e-19)
(0.0264587 -0.107928 3.48826e-17)
(0.0954859 -0.0267513 -1.21559e-18)
(0.0297882 0.0255867 5.18638e-19)
(0.0421806 -0.0326197 1.29684e-18)
(0.0725118 -0.0115217 -2.0341e-18)
(0.0149077 -0.110381 1.12768e-18)
(-3.75373e-05 8.78439e-05 -5.29484e-20)
(-0.00793792 -0.0145307 6.47229e-19)
(-0.0504521 0.0119683 4.84825e-19)
(-0.054446 0.00620102 -3.19697e-19)
(0.0149002 -0.0214277 4.25583e-19)
(0.000183662 9.33884e-05 -1.38692e-19)
(-0.00012122 -0.00106739 -9.00672e-20)
(-0.000650455 -0.0288541 1.48253e-19)
(-0.0438685 -0.122773 -4.6589e-18)
(-4.60528e-05 0.000111657 6.89573e-19)
(0.000326315 0.00156365 -6.81794e-20)
(5.18326e-05 4.85614e-06 -2.90297e-19)
(0.000207039 0.000145482 -2.21135e-20)
(-0.00265677 -0.00166269 5.32416e-19)
(-0.00324709 -0.00160539 8.75639e-19)
(0.000269571 0.00204931 2.90377e-19)
(0.000179533 2.49774e-06 -1.08267e-19)
(-0.00598052 0.0167673 -6.97188e-19)
(0.00160007 -0.00197789 7.8761e-19)
(0.000652677 0.0133206 6.1594e-19)
(0.019525 -0.0233162 2.74902e-19)
(0.0712886 -0.004712 -6.60825e-18)
(0.000697198 9.60706e-05 -2.27774e-19)
(-0.225463 -0.144775 -3.12139e-18)
(0.072462 0.0471763 -6.59161e-19)
(-0.0414078 -0.0452603 1.21025e-18)
(0.000169347 1.02523e-06 7.46775e-19)
(0.00210046 -0.00773214 8.38371e-18)
(0.000145818 2.84987e-06 -9.23754e-19)
(0.129498 -0.0114263 1.13751e-18)
(0.000543538 -5.36478e-05 4.03691e-19)
(0.0221717 -0.00575798 8.11027e-19)
(0.00164994 -0.000692041 -2.66401e-18)
(-0.0374572 0.00860359 2.0985e-18)
(0.000129155 -3.8478e-06 2.36939e-19)
(0.00579633 -0.00396891 -1.75601e-18)
(0.000104603 0.00164993 -1.08249e-19)
(-0.00540884 -0.012997 -2.29638e-19)
(-0.0376949 -0.00439606 1.11378e-19)
(0.000133836 7.31195e-06 8.23084e-20)
(-1.29255e-05 2.69633e-05 -6.6686e-19)
(0.000681167 -0.000532957 6.04509e-19)
(-0.00865068 0.0314483 4.56478e-18)
(0.000105045 0.000133592 -1.30378e-19)
(0.016812 -0.00555395 -2.28125e-19)
(-0.00758963 -0.0307397 -6.34828e-19)
(0.0343971 -0.0168437 2.42458e-17)
(0.00142624 0.000775318 -1.85272e-19)
(0.0186577 -0.00727868 4.30333e-19)
(-0.0051205 -0.174837 3.92526e-18)
(0.0662238 0.0302915 4.7332e-19)
(0.000850067 0.000541136 -3.20282e-19)
(6.65998e-05 7.11924e-06 -3.95714e-19)
(-0.00951451 -0.144954 4.56323e-18)
(-0.00929919 0.0386528 -5.16109e-18)
(0.0221651 0.00653061 6.83877e-20)
(0.056679 0.0547715 1.45384e-19)
(9.71008e-06 -1.76497e-05 -7.67682e-19)
(0.0104331 0.015352 -2.87872e-19)
(0.00284677 0.017644 -3.14035e-19)
(0.00683048 0.0125723 6.61565e-20)
(0.00588183 0.0039854 -6.28139e-19)
(0.0266914 -0.00106196 2.24338e-18)
(0.00142077 0.000590936 -6.07935e-19)
(0.000162069 8.73538e-05 2.68047e-20)
(0.000626647 0.00160136 -2.29988e-19)
(-0.00934063 -0.17382 -7.8356e-18)
(3.51043e-05 0.000142616 -2.43969e-19)
(0.0579904 -0.0617376 -3.11114e-18)
(0.000209248 0.000136509 -2.6253e-19)
(0.000838492 0.000266965 -2.89585e-19)
(0.000727856 -0.000141127 -1.59954e-19)
(0.00973871 0.00810658 -4.64027e-19)
(0.0613164 0.0401316 -5.41402e-19)
(0.000279898 0.00208469 -1.99804e-19)
(0.00291467 0.000284539 4.32454e-20)
(0.069084 0.0110716 -6.25311e-19)
(0.0254761 -0.0106057 -3.23202e-19)
(-0.0150553 0.019227 -5.48274e-19)
(0.00035338 0.00190266 8.64448e-20)
(0.00151481 6.14413e-05 -4.82306e-20)
(0.0134523 0.0156809 2.18994e-19)
(0.0676716 0.0254078 -1.58698e-18)
(0.000269606 0.000987843 -6.7145e-20)
(0.000258573 0.000265863 3.54825e-21)
(-0.00610114 -0.0277281 8.78137e-20)
(-0.000517705 0.000597413 -5.96805e-20)
(0.000243583 0.000571924 -1.67673e-20)
(-0.0351174 0.0369698 -3.35445e-18)
(-4.9436e-05 2.9655e-05 -1.84648e-18)
(0.0577792 0.117543 1.97663e-19)
(6.2762e-05 1.05017e-05 -7.15907e-19)
(0.0103093 0.023675 5.48292e-19)
(0.00422229 -0.00700935 4.75149e-19)
(-0.221729 -0.0807423 -7.68843e-18)
(4.02215e-05 0.00015676 4.50664e-19)
(0.00325541 -0.00828664 -3.52572e-18)
(0.00014374 3.48963e-05 -2.36277e-20)
(0.000103595 0.000327389 1.23633e-19)
(0.0670509 0.013833 1.12022e-20)
(-0.000199743 0.000158184 -5.11676e-20)
(0.0761977 0.0209713 -4.87163e-18)
(0.0228323 0.00523593 1.52693e-18)
(0.000183544 -0.000161354 -2.92979e-19)
(0.00859184 0.00454686 6.42195e-19)
(-0.216584 -0.305059 -2.2264e-18)
(-0.0724461 -0.157734 1.99663e-18)
(0.0154338 -0.0214866 -2.04608e-19)
(0.000155063 3.50433e-06 2.45358e-18)
(0.000219929 0.000292666 2.34151e-19)
(5.93215e-06 0.000107378 -2.86868e-19)
(-0.0016938 -0.000657307 -2.97786e-19)
(-0.00105051 -0.0116356 -1.40777e-19)
(0.00048322 0.00148816 2.31157e-19)
(-0.0501084 1.01881e-05 2.18901e-19)
(-0.000181674 0.000575968 -3.42695e-19)
(-0.000166096 2.94407e-05 -9.54651e-20)
(0.0679547 0.00220419 -4.72062e-19)
(0.00719801 -0.00292303 -9.19932e-19)
(-0.0023124 -0.0133463 8.18081e-19)
(0.000133981 2.3936e-06 1.28971e-19)
(3.15555e-05 3.46755e-05 -1.26221e-18)
(0.0615198 0.0120983 3.99515e-19)
(0.0502887 0.0244209 -2.91241e-19)
(0.00404797 -0.0058216 8.83126e-19)
(0.0277809 0.0149408 1.05634e-18)
(0.00038483 -0.000125134 1.69752e-20)
(0.00460489 -0.00884494 -9.2469e-19)
(0.000515367 0.000397623 -3.48867e-19)
(0.000199376 -0.000186571 -9.9149e-19)
(0.000956005 -0.000566195 9.10186e-20)
(0.000823566 -0.00036242 -4.04822e-19)
(0.00048994 0.00103324 9.54493e-20)
(0.000100341 -2.34717e-05 1.40863e-18)
(-0.175039 -0.0618791 3.42063e-17)
(0.00158679 -0.000469666 1.03716e-18)
(-0.00236934 0.0513281 2.56939e-19)
(6.54818e-05 8.39583e-06 -7.76784e-19)
(0.0050781 -0.0030292 -7.81793e-19)
(0.000110349 0.000104948 -3.31779e-20)
(-0.0155402 0.0223547 3.27362e-18)
(-0.0696419 -0.202365 3.11973e-18)
(0.000144308 -0.000134303 1.09038e-18)
(4.62393e-05 1.89018e-05 2.49837e-19)
(0.0247217 0.0144933 -2.50537e-19)
(0.0210583 -0.0121044 -2.01064e-19)
(0.000145299 9.63922e-05 -9.1038e-19)
(-0.0251929 0.26393 5.03746e-18)
(6.385e-05 6.65515e-06 -4.35451e-19)
(-0.00611132 0.0128532 1.72282e-19)
(8.77434e-05 9.3172e-05 5.64507e-19)
(8.50503e-05 1.72346e-05 -2.77489e-19)
(8.64536e-05 0.000286309 -7.36689e-19)
(-0.171735 -0.131164 -8.0756e-18)
(0.000123312 9.0325e-05 -6.36133e-20)
(-0.00153731 -0.00034412 -9.18282e-19)
(-9.08393e-05 -0.00268686 -1.19793e-19)
(-0.0488052 0.278924 1.52025e-17)
(-0.000124625 7.00584e-06 1.02992e-21)
(0.000985857 -0.000440279 7.03468e-20)
(0.00014784 -1.5732e-05 -3.37295e-19)
(-0.0418821 -0.0311053 -1.11153e-19)
(0.000237323 0.000142416 -1.77819e-19)
(-6.46902e-05 9.22756e-06 1.40591e-18)
(0.000130367 -7.1288e-06 7.56746e-19)
(-8.20762e-05 2.45037e-05 -1.46162e-18)
(0.00658308 0.00393477 -3.2493e-19)
(4.90577e-05 -0.000117871 -8.28075e-19)
(0.00464395 -0.00234647 7.73968e-19)
(0.000586258 0.000430864 6.93295e-19)
(0.034706 0.0332518 1.92401e-17)
(-0.015151 0.0131569 -9.34819e-19)
(-0.0300422 0.00867169 -2.38022e-18)
(-0.00267167 -0.000430893 -8.41211e-19)
(0.00218338 -0.00534162 -1.30943e-18)
(0.000131275 4.15308e-05 2.13296e-20)
(-0.0463072 0.0189122 -7.33126e-18)
(0.000206111 -1.678e-05 2.50775e-19)
(0.0274755 0.0252429 1.98319e-18)
(0.0388908 0.0163864 1.20051e-18)
(-0.0288743 0.014897 -3.27442e-19)
(-0.00782196 0.0109766 -4.23942e-19)
(0.0228477 -0.0966887 4.84611e-18)
(0.000363689 -0.000119449 2.62392e-20)
(0.000377703 0.000757072 1.08451e-19)
(0.00645725 -0.183743 -6.57718e-19)
(-0.033151 -0.0297943 1.84233e-18)
(0.0124029 0.00253429 1.32338e-18)
(0.00741509 -0.0411858 -1.65692e-18)
(0.00140952 -8.14129e-05 7.87106e-19)
(0.0524314 0.022753 1.50443e-19)
(-4.52628e-05 0.000372692 1.79976e-18)
(0.000774743 0.000758488 -8.10694e-20)
(0.000764374 0.000155598 -8.04083e-20)
(0.000103923 0.000112355 -1.08053e-18)
(6.35494e-05 7.65113e-06 1.76851e-19)
(0.00339972 -0.191029 -5.94023e-18)
(0.00218522 -0.00165734 -1.79758e-18)
(-6.43093e-06 1.65639e-05 -7.10681e-20)
(-0.147282 -0.153269 -1.49888e-17)
(-0.000167656 0.000406745 -1.9637e-19)
(-0.0423385 0.0265165 1.74471e-18)
(0.000548876 0.00277572 -9.57826e-21)
(0.001633 -0.0018002 -7.93414e-19)
(0.0141104 -0.00638111 1.63473e-19)
(9.9244e-06 -2.4184e-05 5.91315e-19)
(0.0380392 0.0119551 -7.49878e-19)
(0.000528875 0.00126627 -1.42969e-18)
(0.0006358 -0.00032051 4.58583e-20)
(0.00100193 0.0443275 -2.54902e-18)
(0.0008812 0.000351733 5.73007e-20)
(-0.000168543 3.68403e-05 2.02024e-20)
(2.9399e-06 2.98245e-06 -1.23566e-18)
(-1.98211e-05 0.000559364 -1.15311e-18)
(3.727e-05 0.00011863 1.42473e-18)
(-0.0269518 0.0157415 3.94132e-19)
(-0.0262727 0.0419327 1.08962e-18)
(-0.0268376 0.0125924 2.95472e-19)
(0.000916886 -0.000502165 2.85587e-19)
(-0.000647061 0.000752249 2.71006e-18)
(0.000102806 0.000447598 -3.68276e-18)
(0.0519466 0.0134785 3.62835e-19)
(-0.00197013 0.00453944 7.08699e-20)
(0.00175736 -4.8341e-05 6.65029e-20)
(0.000122027 2.86857e-05 4.01531e-20)
(-0.000235131 -0.000648758 5.13532e-19)
(0.0285226 -0.084212 -1.14656e-19)
(0.109642 -0.0258365 -6.62238e-18)
(0.00491383 0.00855277 2.09708e-19)
(-0.00273514 0.00124747 -1.12415e-19)
(0.000237432 -7.17268e-06 -2.26178e-20)
(0.0931759 0.0348275 4.03775e-17)
(0.00369329 -0.00887173 -4.25864e-18)
(-0.000234089 0.0100133 6.4616e-19)
(-0.00744495 0.0234305 1.43717e-19)
(0.0276941 0.0655215 -3.25679e-20)
(0.123545 -0.0325192 3.1371e-19)
(0.0396814 -0.042312 -1.26596e-18)
(-0.000109399 0.000373822 3.68741e-19)
(0.000162254 -8.42219e-06 1.78986e-18)
(0.000684712 0.00137551 1.17528e-18)
(0.0340456 -0.0755011 5.37801e-18)
(-0.000121289 0.000326111 -8.25871e-19)
(0.00231872 -0.00622588 4.25647e-18)
(-0.000787938 0.00224637 -1.82988e-18)
(-0.000182853 0.000185748 4.87089e-20)
(0.0130316 -0.00299222 -4.79364e-20)
(-0.00221871 0.00349991 2.4497e-18)
(-0.208798 -0.162135 4.59321e-18)
(-0.258376 -0.0993378 2.01002e-17)
(3.54338e-05 0.000225389 -4.8774e-20)
(3.06928e-05 8.97019e-05 -1.07307e-18)
(-2.43224e-05 9.20436e-05 7.18609e-20)
(0.0292238 0.0206565 -5.2158e-19)
(8.23943e-05 0.000110004 -6.00124e-19)
(-0.0652882 0.0178689 5.34121e-19)
(-0.00380488 0.00595524 3.09772e-18)
(0.0558358 -0.0908932 -2.18714e-17)
(-0.000398842 0.000727728 -3.02528e-18)
(0.00176265 0.000805874 -4.29653e-19)
(0.000124123 -0.000137706 4.0246e-19)
(0.00015223 9.56295e-05 7.83983e-19)
(0.000360168 0.00059991 -3.04768e-20)
(-0.000175892 0.000789652 6.78126e-20)
(0.00055128 -8.50162e-05 -8.50908e-20)
(0.00187864 -0.000545006 6.71058e-19)
(0.0137683 0.00424345 -1.60512e-19)
(0.00519235 -0.0038178 4.57192e-18)
(-0.0377347 0.00814287 -1.81364e-18)
(0.000298953 -0.000114202 5.85975e-20)
(-0.0265536 -0.022933 -1.5193e-18)
(0.0171771 0.0540038 -7.9736e-20)
(0.000236707 -1.08262e-05 -2.75502e-19)
(0.125524 -0.108911 3.01072e-18)
(0.000100151 -1.74535e-05 -3.82933e-19)
(-0.00132906 -0.00189124 -3.34885e-19)
(-0.000764668 -0.00346081 -3.02389e-19)
(0.000143065 1.59737e-06 4.52364e-20)
(0.0173166 0.0295212 -1.98589e-20)
(-0.000524191 0.00218184 9.67373e-19)
(-0.00230884 -0.000492031 -2.5411e-19)
(0.00082294 -0.00011546 -6.28385e-20)
(-0.0972904 0.205144 3.39447e-18)
(0.00149889 0.000757308 -1.90043e-19)
(0.0372255 -0.0656615 -4.22168e-19)
(0.0207144 0.00216987 1.24348e-18)
(-0.000510088 0.000821569 8.45749e-19)
(0.0217294 0.0385998 3.69356e-19)
(0.027744 -0.0915275 1.23516e-19)
(5.21289e-05 0.00281102 -3.43185e-20)
(0.000241471 0.000520468 6.40085e-19)
(0.0109452 -0.0402912 6.90261e-19)
(5.94375e-05 3.41925e-06 4.42e-19)
(0.0816923 -0.0207867 1.91058e-19)
(0.0109742 0.00607671 6.28556e-19)
(-0.0252334 -0.00218451 7.19992e-19)
(0.01507 -0.00191932 -1.09168e-18)
(0.000869616 -0.000436425 1.03654e-19)
(0.000955442 0.000554548 6.12152e-20)
(0.00155464 -0.00081343 -5.66478e-19)
(-0.00532578 0.0142454 2.72113e-19)
(0.000491556 -0.00405892 -3.33232e-19)
(0.030679 0.0230467 8.30402e-19)
(0.0523955 0.0163747 -4.99412e-18)
(-0.00020567 0.000219818 -1.11965e-19)
(-0.00155527 -0.00124944 -1.18434e-20)
(0.0002312 -1.50756e-05 4.16512e-19)
(-0.0126243 -0.0140983 8.65625e-19)
(6.9891e-05 3.94208e-06 4.76222e-19)
(-0.0623436 0.0568658 3.1835e-18)
(0.00117719 -0.000752926 -9.94808e-19)
(0.000187815 0.00112892 1.00901e-19)
(0.04013 0.0137494 -6.13831e-19)
(-0.000188195 0.000659034 2.16199e-18)
(0.0117768 -0.0367387 9.24141e-20)
(0.0082528 0.0132437 -4.06126e-23)
(0.000275454 1.01054e-06 -2.95714e-19)
(0.0442521 -0.00980318 7.62561e-19)
(-0.00341401 0.00283481 7.41162e-19)
(-0.00137975 0.000212568 4.00616e-19)
(-0.00385299 0.00285829 4.04347e-19)
(0.00387896 0.0215417 -1.33557e-18)
(0.000321822 -0.002143 2.12386e-18)
(0.130354 -0.030328 -2.29209e-19)
(0.00175195 -0.00043841 -1.04486e-18)
(0.0011417 0.0217853 -4.36206e-19)
(0.00206447 -0.00667565 9.59932e-19)
(-0.0751902 -0.0386765 1.1131e-18)
(-0.00355161 0.00227678 -1.53295e-18)
(0.00677681 0.0109758 -3.02722e-19)
(0.00475697 -0.000284268 -5.88331e-19)
(0.00206539 -0.000518365 -1.8588e-19)
(0.0193262 0.00297523 -3.70228e-18)
(0.000210505 -4.26719e-05 -7.60755e-19)
(0.00439969 0.0189763 -7.37817e-19)
(-0.00159716 -0.000793354 2.63808e-18)
(0.00137116 -0.000879511 1.68319e-18)
(0.00211166 0.000629861 1.98077e-19)
(9.76665e-05 3.17023e-05 5.03253e-19)
(0.00399065 -0.00134627 -1.13155e-18)
(0.0225822 0.00944952 2.00582e-18)
(1.24453e-05 7.38284e-06 -7.87348e-20)