/*--------------------------------*- C++ -*----------------------------------*\
| =========                 |                                                 |
| \\      /  F ield         | OpenFOAM: The Open Source CFD Toolbox           |
|  \\    /   O peration     | Version:  v2012                                 |
|   \\  /    A nd           | Website:  www.openfoam.com                      |
|    \\/     M anipulation  |                                                 |
\*---------------------------------------------------------------------------*/
FoamFile
{
    version     2.0;
    format      ascii;
    class       volScalarField;
    location    "850";
    object      omega_0;
}
// * * * * * * * * * * * * * * * * * * * * * * * * * * * * * * * * * * * * * //

dimensions      [0 0 -1 0 0 0 0];


internalField   nonuniform List<scalar> 
10042
(
0.125376
0.565106
0.057749
0.0211219
0.0210691
0.533931
0.117211
0.347328
0.0201148
0.0437652
0.301614
0.591004
0.0359158
0.0210338
0.0215617
0.0210262
0.497563
0.296608
0.0237071
0.0248468
0.0356949
0.149075
0.0211065
0.164351
0.0209962
0.0215548
0.0412778
0.0200399
0.543654
0.293101
0.0225731
0.0454733
0.0200888
0.0200823
0.346472
0.354063
0.0220313
0.0202542
0.0217989
0.0207806
0.227786
0.0201048
0.133737
0.573877
0.0210547
0.020994
0.0198539
0.0215384
0.0526433
0.397172
0.137917
0.0209807
0.484885
0.0234335
1.13077
1.91473
0.0338955
0.288574
0.0215447
0.019574
0.0523218
0.962124
0.11263
0.349672
0.298913
0.0213883
0.0242262
0.137484
0.0198256
0.14532
0.198698
0.0220246
0.0204055
0.0215241
0.0213302
0.196442
0.240164
0.0198493
0.262415
0.0237875
0.466283
0.178037
0.0239891
0.0208892
0.0323439
0.077992
0.0237848
0.0496339
0.020862
0.197314
0.0286488
0.0215758
0.108632
0.0802001
0.164199
0.0212501
2.00635
0.0243151
0.297049
0.0215134
0.0280634
0.060154
0.0215483
0.0384153
0.0247223
0.0214315
2.36755
0.0212651
0.116017
0.0214593
0.0214804
0.105482
0.0567457
0.348776
0.193561
0.0198139
0.0320088
0.0223849
0.256532
0.0197896
0.0195731
0.64658
0.652206
0.0210634
0.255472
0.0209245
0.0209541
1.1281
0.142141
0.0322224
0.0202208
0.0211357
0.0211347
0.0211818
0.104637
0.16012
0.0242742
2.05637
0.0223906
0.259761
0.0750652
0.0204472
2.3965
0.0200453
0.0253914
0.0202557
0.0313142
0.0198109
0.0218812
0.566266
0.0211975
0.021062
0.0227119
0.0413902
0.101249
0.0256112
0.131756
1.985
0.0211674
0.0218369
0.0222255
0.0214079
0.147851
0.0208874
0.0220812
0.588656
0.0203918
0.0401067
0.350213
0.0200534
0.0794202
0.350647
0.736737
0.0200671
0.0233884
0.703243
0.0210344
0.0202411
0.021089
0.0198267
0.0223028
0.0246705
0.0215331
0.0197796
0.158741
0.0291129
0.0220705
0.0196203
1.47036
0.0213637
0.467602
0.0337269
0.0202361
0.0244324
1.1761
0.0215713
3.3966
0.0442605
2.11679
0.0209045
0.270985
0.0908264
0.0500972
0.0202712
0.273032
0.0210627
0.273457
0.0403657
0.0214575
0.0212056
0.0431719
0.0201647
0.0510082
0.0460026
0.0221525
0.0455124
0.0202122
0.916648
0.0213295
0.22465
3.43436
0.0538212
3.29096
0.0791134
0.0211176
0.0950811
0.0216111
0.0238634
0.0355598
0.0215795
0.0202418
0.0210029
0.0292343
0.0230836
0.0210299
0.349482
0.0233601
1.97893
0.024699
0.150598
0.737663
0.504258
0.0195632
0.0220605
1.23543
0.0211491
0.484688
0.0243438
0.0227972
0.0215327
0.0243422
0.0202434
0.469375
1.12845
0.0217982
0.02313
0.021743
0.0218628
2.08459
0.0210994
0.308857
0.0203109
0.0209678
0.0198682
0.0375199
1.1377
0.260835
0.367188
0.0232912
0.0210164
0.0213551
0.259876
0.0208108
0.423394
0.0217766
0.20027
0.0221418
0.0210205
0.0233797
1.25924
0.0200383
0.507681
3.44983
0.0220678
0.0234656
2.43737
0.0325755
0.0199037
0.164509
0.0213849
0.032047
0.0277346
0.0238975
0.505977
0.345156
0.020983
0.983111
0.0237736
0.0213655
0.0202657
0.0225973
0.0498984
0.0196228
0.835437
0.0317621
0.890648
0.0209305
0.0228778
0.996913
0.496347
0.0226745
0.0211164
0.0212419
0.0209857
0.027604
0.178902
0.0198732
0.147142
0.125178
0.019801
0.0219944
0.472044
0.151509
0.0495645
0.140086
0.0225078
0.0274874
0.0210568
0.0234467
0.0307452
0.021045
0.0213326
0.0761675
0.0213186
0.217462
0.196597
2.4703
0.0402689
0.0202569
0.599754
0.0740043
0.0354136
0.019567
0.0277697
0.0227018
0.0202274
0.0207095
0.0212242
0.0238667
2.01834
0.0217572
0.213693
0.0236983
0.0204718
1.06826
0.0289388
0.0216279
0.0239003
2.26157
0.0224532
0.0214056
0.0221638
0.0220514
0.210032
0.61289
0.0221638
0.021
0.0230806
0.0232212
1.12098
0.0195882
0.0242167
0.0208521
0.0214817
0.0696788
0.0210509
0.211749
0.263136
1.3174
0.0685189
0.0213459
0.366162
0.0352624
0.0210282
0.0525325
0.0198014
0.0214108
0.0197824
0.0212287
0.0199042
0.0217687
2.11969
0.02174
0.0273061
0.605603
1.0953
0.021182
0.346069
0.0220552
0.0459109
0.0209936
2.84441
0.0216762
1.11119
2.1292
0.0205107
0.0682398
0.0210759
0.478239
0.0216926
0.251568
0.0268106
0.512937
0.0216978
0.33769
0.0221702
0.0272494
1.1192
0.0199164
0.0219768
0.0210517
0.603113
0.0202285
0.0197648
0.0802737
0.0231013
0.0350978
0.227339
0.0210825
0.0356483
0.0231053
0.0198477
0.0268446
0.35468
0.0209339
0.0219662
0.229045
0.260949
0.0219624
1.91758
0.0200656
0.0268754
0.0306246
1.1568
0.189013
0.212477
0.321173
0.131512
0.347552
0.0197507
0.130942
0.959839
0.950518
0.0501173
0.0211057
0.0207359
0.150036
1.96506
0.0197816
0.0199961
0.0228399
0.0211527
0.0212159
0.0214719
0.0211718
0.0239393
0.183617
0.0220748
0.0270012
0.102138
0.126288
0.0201069
2.78012
0.206955
0.38888
0.021162
0.026427
0.0218754
1.04416
0.0213553
0.0374265
0.0216821
0.300576
0.0205933
0.0244117
0.0199823
0.0948562
0.131402
0.0217462
0.0207955
0.0211511
0.45777
0.0202993
0.0310882
0.0484891
0.0672748
0.0203585
0.0338347
0.507405
0.145173
0.0214134
0.0227292
0.511255
0.498525
0.0391905
0.49526
0.0215243
0.102925
0.0294413
0.0274286
0.0235152
0.309364
0.0203389
0.0210901
0.0215115
0.499288
0.0210749
0.373011
0.0211537
0.0213982
0.0201466
0.0269068
0.454736
0.021553
0.0219357
0.380622
0.0508274
0.0339406
0.0215356
0.0212258
0.108868
0.140017
0.0213662
0.0199664
0.0412854
0.0212654
0.0212883
0.340303
0.0202172
1.16162
0.0209822
0.0380272
0.0270091
3.00823
0.0210856
0.0271103
0.0214502
0.0203624
0.334893
0.019561
0.354139
0.0393887
0.0201213
0.0251319
2.50189
0.875981
0.0788973
0.0212707
0.0199605
0.0197995
0.0204108
0.0572513
0.0214773
0.872982
0.0212421
0.0199804
0.611336
0.0247169
0.0774817
0.0222603
0.0207788
0.490226
0.143448
0.0248548
0.342239
0.0213564
0.0279346
0.0200562
0.0201266
0.0211911
0.0211222
0.0214015
0.0213897
2.59945
0.0216313
0.0603501
0.0209887
0.022818
0.0198842
0.0373169
0.926019
0.0201318
0.02101
0.130246
0.0453966
0.0199052
1.27614
0.0210248
0.105107
0.0202692
0.0221503
0.0203479
2.5233
0.0198924
0.020862
0.0211535
1.29627
0.0218552
0.0211715
0.0213832
0.27789
0.0211771
0.0210779
0.0203887
0.0210853
0.0237982
0.021047
0.0222861
0.020071
2.15817
0.67431
0.131284
0.0216845
0.0242634
0.0212811
0.342833
0.0220332
0.148733
0.0500446
0.182227
0.129573
0.40941
0.0213577
0.0213452
0.511806
0.193223
0.0274255
0.0839957
0.021545
0.12944
0.0208084
0.0214153
0.0201161
0.0202898
0.0221876
0.510932
0.0220434
0.0214555
2.27739
0.0211979
0.301149
0.0205407
0.0220106
0.0291519
0.0213623
0.156094
0.0210534
0.0210808
0.0590146
0.0214116
0.0197823
0.0226987
0.0208482
0.0207807
0.464553
0.571257
0.751704
0.0215224
0.0208411
0.0208548
0.188448
0.0221575
0.0212998
0.0204032
0.0206701
0.388379
0.584621
0.0275857
0.0217015
0.0234967
2.52283
0.0277719
0.024459
0.0342574
0.258891
0.968788
0.318767
0.0207948
0.0213172
0.0210949
0.350569
0.0207814
0.0250586
0.0211514
0.0195683
0.0272795
0.0216098
2.72593
3.51906
0.019885
0.0210423
0.0197501
0.19588
0.0202768
0.327331
0.0227485
1.08862
0.0208405
0.0208181
0.0201366
0.0210778
0.0213165
0.0196934
0.0213658
0.0217076
0.0280845
0.0240634
0.149069
0.0213694
0.0744091
0.254496
0.022434
2.04548
0.0209551
0.0210368
0.022441
0.0214483
0.360413
0.0211516
0.0216145
0.0201651
1.33648
0.0207443
0.352531
0.0367097
0.0208567
0.0630656
0.350569
0.0204652
0.020424
0.0822712
0.0242191
0.374611
0.0264754
0.20588
0.0288955
0.0215039
0.0214334
0.0213613
0.0269324
0.0239951
0.175478
0.0983786
0.0195659
0.020488
0.0219236
0.0306168
0.0242293
0.366171
0.0216163
0.0213849
0.0493161
0.0208428
0.0752875
0.0283899
0.0236452
0.267297
0.0218024
0.020848
0.021731
0.0331063
0.0209879
1.05665
0.0216673
0.0326261
0.0254278
0.827492
0.0215649
0.0264709
0.0227428
0.0217545
0.0351402
0.02006
0.0306398
0.0209027
0.0216772
0.0209297
0.0213161
0.0225519
0.0401246
0.0222908
0.0215279
0.220353
0.0200728
0.0208563
0.0210005
0.0197649
0.0282223
0.0217306
0.0221103
0.0345207
0.228744
0.021303
0.167362
0.402678
0.0206537
0.0209696
0.0197486
0.44809
0.256145
0.0243144
0.0208641
0.0409625
0.125213
2.4891
0.0220524
0.379673
0.114442
0.133488
0.0216385
0.0197298
0.0206807
0.310381
0.0793412
0.0216481
2.61199
0.283701
0.22822
0.3793
0.0211397
0.170961
0.486681
0.0461676
1.15809
0.0268527
2.49512
0.0219972
0.280876
0.0213972
0.0307337
0.0224335
0.0278885
0.0196382
0.0214424
0.021031
1.29529
0.0210507
0.0195771
0.937515
0.0213535
0.0272195
0.0222698
0.156923
0.0208681
0.0220239
0.0214223
0.0211458
0.021194
0.0259776
0.0207901
0.283252
0.317095
0.0555234
0.0210868
0.833126
0.0207443
0.0743873
0.176668
0.0270102
0.0212123
0.0198138
0.0211284
0.022132
0.920594
0.0394275
0.0208637
0.872356
0.0208862
0.0214986
0.192035
0.0197832
0.0215977
0.88773
0.0208732
0.723477
0.0224052
0.0491506
0.0275043
0.035805
0.0259782
0.0212549
3.06475
2.92514
0.0209988
0.0290004
2.54658
0.331356
0.0978184
0.0219727
0.0205488
0.0236088
0.0214215
0.0213964
0.0770596
0.0242274
0.0197957
0.0360819
0.411337
0.254625
0.019814
0.0197509
0.0216147
0.0215714
0.566798
0.352536
0.0202813
0.0254796
0.454358
0.0213949
0.0226715
2.90795
0.0224607
0.0677046
0.0209345
0.0213627
0.0215236
0.0214876
0.0665953
0.0411928
0.0212774
0.298065
0.904751
0.880925
0.0239087
0.0223065
2.86355
0.0399572
0.401824
0.0328828
0.0213317
0.0210331
0.84695
0.790737
0.0219805
0.0250334
0.0449022
0.0209684
0.0420466
0.0219881
0.0209253
0.021826
0.0380325
0.0208363
0.0210314
2.64871
0.0207645
0.0205227
0.0348981
0.0259793
0.315433
0.0224495
0.0216054
0.822031
0.0402623
0.0226805
0.0330255
0.109444
0.0209598
0.0201085
0.0260171
0.198984
0.0208235
0.0215784
0.0210115
0.0203153
0.0209185
1.15865
0.0214268
0.142889
0.021399
0.0311572
0.0202036
0.0216489
0.0284447
0.417965
0.106635
0.0212261
0.0227247
0.454475
0.147837
0.0236191
0.0220016
0.152203
0.0209772
0.0335076
0.0387553
0.0205569
0.0227555
0.0210004
0.0370035
2.43942
0.197735
0.0204453
0.0218521
0.0265262
0.106468
0.0206843
0.0204456
0.044678
0.0196533
0.0206258
0.0479258
0.0215278
1.29231
0.0202103
0.0204725
0.0201076
0.0296323
0.0217839
0.0210312
0.175471
0.0206411
0.0214798
1.26772
0.0209837
0.0346619
0.0227477
0.761697
0.311696
0.0230004
0.377441
0.0249226
0.02138
3.43413
0.0219286
0.0208775
0.0198423
0.0209659
0.0242198
0.797267
0.032869
0.306883
0.38983
0.219217
0.0422392
0.303799
0.0236968
0.042132
0.0200429
0.0286016
0.0215087
0.0215968
0.0217089
2.64171
0.305643
0.0212216
0.231311
0.02048
0.0922329
0.0212692
0.023199
0.0225824
0.0772589
0.204793
0.0211458
0.0199203
0.25431
0.107678
0.0478062
0.0287084
0.41642
0.0216566
0.356227
0.57368
0.0207651
0.0205988
0.0208592
0.0242378
0.0208222
0.0219871
0.0221321
0.0208365
0.0217194
0.0215437
0.020672
0.0432709
0.227336
0.0199036
0.0943493
0.0227193
0.0453733
0.0373043
0.0892178
0.0207536
0.0555605
0.040795
0.0201584
0.0414992
0.417934
0.0216048
0.0206134
0.0218479
0.228783
0.410263
0.0202395
0.491534
0.0214648
0.0214929
0.21381
0.0208432
0.0204718
0.0204976
0.0205936
0.0212716
0.185358
0.0243093
0.0206159
0.021324
0.0207046
0.0210747
0.307521
0.0198854
0.0279884
0.915122
0.467482
0.0205757
0.455926
0.0203898
0.121498
0.0222302
0.0461705
0.020035
0.152576
0.847335
2.15703
0.0213682
0.227203
0.219082
0.0649376
0.0218098
0.217613
0.0209135
0.273622
0.23021
0.025368
0.977894
0.273255
0.499117
2.73682
0.0982771
0.250454
0.0205862
0.0219917
0.21632
0.0722183
0.0213092
0.309354
0.0219789
0.0207681
0.0204731
0.167162
0.0734973
0.0291783
0.597482
0.027861
0.0239252
0.0221863
0.0210033
0.0209338
0.485998
0.0916649
0.0274847
0.236648
0.0215922
0.02188
0.0316571
0.110052
0.0380414
0.0207518
0.477068
0.897963
0.0220549
0.042528
0.0201676
0.0359084
0.121233
0.0207789
0.443569
0.227924
0.0212562
0.0221122
0.0209211
0.373295
0.0225497
0.171949
0.0337147
0.020946
0.0206707
0.0200017
0.0326828
0.0204075
0.0374587
0.0231533
0.025009
0.100262
0.0217973
0.0278711
0.255692
0.022046
0.0323247
0.022156
0.0213816
2.76738
0.281771
0.0216915
0.673968
0.0218589
0.0659019
0.0207718
0.0205721
0.027114
0.0226875
0.0334582
0.0550578
0.0218947
0.0222371
0.14908
0.0306536
0.0231529
0.303612
0.106931
0.216436
0.0209321
0.0198597
0.481729
0.0204666
1.19342
0.220674
0.0520758
0.288014
0.0216618
0.0205193
0.167433
0.224815
0.0208745
0.215688
0.0240966
0.0210816
0.0819423
0.0221348
0.0214327
0.0458389
0.0234247
0.0204339
0.0231667
0.0209928
0.0225896
0.0824491
0.0328032
0.297514
0.0212756
0.0274661
0.0208632
0.0212661
0.238048
0.0214748
0.321509
0.303775
0.0219219
0.35908
0.0361873
0.0375247
0.0197649
0.321722
0.117511
0.0418771
0.0229491
0.021743
0.0206931
0.248527
0.0230682
0.0534373
0.0379086
0.020266
0.501355
0.019729
2.26596
0.0209886
0.106432
0.0210516
0.0205417
0.0201239
0.333048
0.0208028
0.0202311
0.0200535
0.0208381
0.0213576
0.038991
0.495124
0.0201865
0.0258453
0.021591
0.0209731
0.0207087
0.3289
2.38568
0.025508
0.0212847
0.0207176
0.020106
0.0238118
0.0249953
0.0200928
0.361927
1.15088
0.041008
0.0201334
0.0208303
0.0213232
0.0229147
0.0205994
0.0218476
0.0213335
0.0207379
0.0450004
0.0222205
0.0226819
1.48211
2.33891
0.0208873
0.0209667
0.0209615
2.99807
0.0210762
0.0283828
0.0242891
0.0204377
0.0212511
0.0210425
0.624474
0.0213241
0.346515
0.269354
0.0595658
0.0212618
0.0254089
0.220993
0.0235095
0.0349234
0.0227509
0.040405
0.0203735
0.025943
0.1611
0.277525
0.0206663
0.0214618
1.02182
0.0245955
0.0553986
0.0243109
0.218913
0.0212439
0.0254862
0.0357331
0.69922
0.0620673
0.0202652
0.0209746
0.0203413
0.0215426
0.0633284
0.282554
0.445884
0.0205856
3.15028
0.022723
0.114615
0.250176
0.0210185
1.47126
0.109884
0.0206646
0.0462918
0.0312821
0.021489
0.225699
0.0208164
2.22609
0.0222131
2.0471
0.173202
0.0468198
0.0212696
0.0259585
0.0218158
0.0208469
0.0202004
0.0201466
0.139072
0.0218615
0.0344563
0.0631897
2.61769
0.0340069
0.022614
0.0203959
2.5593
0.0197513
0.051602
1.35916
2.28882
0.378882
0.271202
1.01819
0.0200465
0.0214359
0.0201291
0.0568687
0.0221896
0.903941
0.0246352
3.14332
0.0265785
0.0202651
0.0201008
0.0214923
0.0200514
0.218141
0.855742
2.01673
0.0207133
0.0242585
0.0234605
0.022455
0.0873773
0.0214249
0.290403
0.380444
0.0217535
0.0209849
0.0337492
0.0266441
0.026459
0.497647
0.021603
0.273711
0.0223652
2.45004
0.0209557
0.0747708
0.0209486
0.212708
0.0648535
1.38803
0.251656
3.0338
0.11825
0.0509139
0.0206076
0.020926
0.416763
0.215192
0.0953425
0.0273422
3.37464
0.0348694
0.260794
0.0421597
0.619987
0.0240234
0.0337052
0.574139
0.0219784
0.023618
0.0241152
0.0197999
0.020451
0.0209313
0.0212452
0.482286
0.0219262
0.214485
0.0851526
0.116908
0.228454
0.318648
0.0200598
0.0217264
0.0618187
0.370538
0.0265442
0.387251
2.40894
0.351103
0.0207716
0.0322487
0.023387
0.0785429
0.0351121
0.236856
0.228744
0.064013
0.0214035
0.0222254
0.104542
0.317563
0.0551302
0.131297
0.0209593
0.024322
0.0227514
0.722524
0.0231056
0.0203046
0.0208988
0.0225899
1.08575
0.233532
0.0216618
0.0666503
0.329073
0.022289
0.448644
0.0243258
0.0300422
0.0242356
0.0311207
0.137935
0.0210826
0.0207631
0.0216584
0.0957614
0.0897752
0.0330634
0.0220155
0.0225726
0.021614
0.973125
0.0323233
0.0230589
0.0215747
0.297904
0.0227582
0.296391
0.0223202
0.0289371
0.0209963
0.146404
0.0317404
0.0593556
1.63409
0.0204045
0.023999
0.290054
0.0227801
0.20403
0.154424
0.0215354
0.0226263
0.253847
0.0213111
1.11081
0.0215265
1.36523
0.352692
0.0355918
0.0227277
0.0209769
0.0211398
0.0212562
0.0240719
0.0198044
0.0214974
0.0209586
0.0206507
0.0230988
0.0221835
0.0219742
0.0220844
0.216568
0.0214913
2.14444
0.0218764
0.0214915
0.164556
0.0210719
2.07028
0.309252
0.021367
0.0218747
0.0415791
0.2248
0.0241755
0.912845
0.0283697
0.0224368
1.08676
0.0206338
2.88206
0.0214985
0.296763
0.0198773
1.9694
2.65828
0.284481
0.0217178
0.0229877
0.0207666
0.0231259
0.179903
0.020809
0.0213225
0.0477253
0.0242149
0.760921
0.0397342
0.0219155
0.0357366
0.0214348
0.0273208
0.0221941
0.0213369
0.0219266
0.414786
2.18373
0.0980354
0.0228063
0.0218855
0.0224354
0.115012
2.41898
0.0480633
1.06177
0.23038
0.0226143
0.0233566
0.0975502
0.0207552
0.023177
0.0243096
0.0224543
0.232562
0.022611
0.357372
0.0203586
0.0217786
0.0984293
0.0227694
0.0235185
0.02251
0.025271
0.203301
0.0225638
0.0214811
0.0214514
2.12511
0.415253
0.0237547
0.0215586
0.0206881
0.021905
0.0212569
0.0847014
0.0209086
0.0206295
0.0214911
0.0234209
0.0316246
0.0214449
1.68219
0.0218262
0.0219073
0.189236
0.0228767
0.0237
0.2853
0.021695
0.685678
0.020759
0.020695
0.0219469
0.024321
0.020433
0.264779
0.0219116
0.0210168
1.03127
0.244926
1.92687
0.2204
0.264237
0.0247331
0.0205573
0.0226303
0.209386
0.0276087
0.288676
0.0220451
0.0340123
0.0260003
0.208999
0.0206691
3.17334
0.218647
0.0209548
0.0245231
0.0216229
0.022111
0.497647
0.152956
0.0214759
0.0207258
0.0200362
0.325332
0.0216297
0.466114
0.0376967
0.0215888
0.0209399
0.0210217
2.01904
0.16315
0.0208773
0.22692
0.434973
0.0218079
0.305814
0.02155
0.02057
0.020669
0.0214392
0.0200338
0.0213389
0.021566
0.0222745
0.0214935
0.0889487
0.022569
0.364363
0.0304046
0.0212324
0.147545
0.0200142
0.0204233
0.0475702
0.0209325
0.492585
0.0210347
0.0768548
3.62744
0.0206183
0.151277
0.203103
0.0214009
0.0218218
0.0212443
0.650814
0.0215137
0.155073
0.37355
0.0216039
0.0269995
0.0383574
0.100195
0.0211553
0.0286318
0.0216008
0.0944241
0.126267
0.0357583
0.194374
0.020925
0.0978752
0.352179
0.112815
0.0214619
0.0636214
0.0224588
0.0543263
0.0204182
0.0227337
1.45833
0.0264469
0.185109
0.0738058
0.0242245
0.222803
0.0205446
0.0501904
0.0215054
0.0258802
0.145355
0.328898
3.30035
0.0377749
0.0253598
1.35273
0.0243108
0.0209735
0.0203281
0.0217264
0.022228
0.0249906
0.0210453
1.13407
0.0265478
0.0211096
0.0200008
0.0213071
0.0212581
0.0917575
0.0207236
0.279454
0.0222179
1.14378
0.0218905
0.0214415
0.0196935
0.0813824
0.0216753
0.962498
1.25977
0.259439
0.0241204
0.0219612
0.0214019
0.0209257
0.0207628
0.36766
0.0216836
0.0217216
0.984342
0.0213645
0.0220845
2.71494
0.147146
1.19354
0.0210373
1.38939
0.876507
0.0210099
0.0206859
0.0275963
1.13822
0.136607
0.381827
0.112364
0.0212372
0.0206971
0.171257
0.0257538
0.0216467
0.0270306
0.0215819
0.0229545
0.228069
0.887132
0.0278385
0.0266405
0.0235833
0.0288469
0.920819
0.0214781
0.020911
0.0214062
0.164223
0.0208766
0.0245674
0.916854
2.85119
0.0204537
0.0207829
0.0197115
0.0214588
0.0211511
0.030541
0.0988969
0.0221013
0.132768
0.186959
1.11551
0.0242635
0.0218111
0.0213708
0.0211766
0.0207131
0.0199505
0.0214146
0.903412
0.916137
0.0203522
0.0205533
0.021589
0.0214873
0.841194
0.0312556
0.90224
0.229184
0.0327727
0.0654388
0.0212887
0.0211146
0.0212165
0.0214624
1.33942
0.0212194
0.0242172
0.118133
0.845441
0.302764
0.097153
0.160341
0.387272
0.0213373
0.0289046
1.14356
0.430136
0.0213375
0.0218157
0.020545
0.0213422
0.0213758
0.787869
0.0210464
0.021
0.265248
0.0239319
1.37365
0.0212448
0.0206203
0.0292706
0.127415
0.0912651
0.420134
0.0233201
1.07053
0.0378488
0.020967
0.627648
0.0210666
0.0236352
0.0214818
0.0205782
3.11778
1.17877
3.12997
0.0955331
0.139313
0.0173681
0.211651
0.0207646
0.0215253
0.145449
0.0213226
0.0215499
0.0228825
0.021306
1.14584
0.0215057
0.712468
0.0978396
0.0200372
0.719174
0.0215127
0.0211362
0.0239129
0.0238371
0.024066
0.0243356
0.0243285
0.546451
0.0214718
0.0212565
0.0203437
0.0435375
0.0848497
0.020907
0.0216929
0.0306563
1.20901
0.0210215
0.0243286
0.0243111
0.0201666
0.0212718
0.0210311
1.13715
0.218976
0.0242564
0.0223056
0.0213829
0.0275445
0.464801
0.021422
0.49417
1.13487
0.0214945
0.0278318
1.44571
1.33141
0.0337652
0.0201437
0.0206811
0.896281
0.0347783
1.40783
0.0252695
1.15974
0.0301882
0.887374
0.422026
3.25681
0.0602838
0.918929
0.264114
0.925475
0.0217854
0.29694
0.0216075
1.06757
0.0225592
0.0219574
0.0241969
0.929923
0.200483
0.0221799
0.0213781
0.300884
1.12297
0.993509
0.0207438
0.0209025
0.0212449
0.023979
0.0214765
0.0412747
0.913827
0.267526
0.0237095
0.020643
0.106791
0.0215669
0.0213362
0.318475
0.0212843
0.0234001
0.0199788
0.435941
0.0611163
0.281077
0.0218961
0.272453
0.866019
0.0342658
0.0734673
2.49924
0.859039
0.909953
0.0210133
0.021416
0.0798372
0.021379
0.0214802
0.0210795
0.021611
0.0266368
0.0263576
0.0209922
0.466073
0.020725
0.227307
0.0217947
0.894618
1.01363
0.0323072
0.381702
0.696629
0.0338527
0.883693
2.12847
0.0216738
0.0215196
0.029911
0.0264253
0.780592
0.0209796
0.0217176
0.748915
0.0213407
0.0207095
0.0216083
0.0199934
0.287086
0.0214632
0.0317715
0.0215257
2.59989
0.0212363
1.90122
0.286112
0.546026
0.797614
0.0200632
0.0241385
0.0215425
0.0212359
1.00885
0.146225
0.23421
0.278922
0.0199088
0.0221063
0.0232956
0.0213785
0.28897
0.0209266
0.0291747
1.41316
0.286502
0.058337
0.0212353
0.0215629
0.732801
0.0269645
0.0301101
0.434963
1.09706
1.25584
0.0217147
0.020857
0.0209131
0.0215448
0.212436
0.0222124
0.0393208
0.0214144
0.0214858
0.325296
0.0200738
0.295944
0.0241512
0.021435
0.0242081
0.93743
0.0207037
0.0224606
0.612109
0.0213518
0.0213923
0.0444802
2.92185
0.0240203
0.039248
0.0204446
1.08556
0.246537
0.0611746
0.0213321
0.0207038
0.0275997
0.0213898
0.459003
0.747956
0.373796
0.757986
0.021225
0.0341379
0.0209759
0.0705561
0.0213476
0.202348
0.197267
0.0213122
0.460093
0.0213103
2.79444
0.0394099
0.0204178
0.0734359
0.0207445
0.0209205
0.020604
0.0198676
0.0245264
0.829299
0.0213555
0.0205894
0.107065
0.0201056
0.0216165
0.0220818
0.0211569
0.0213468
0.814913
0.0307832
0.0198954
0.0224923
0.0222371
0.0212835
0.705052
0.897413
0.0213128
0.0209407
0.0216533
0.066855
0.0214899
0.0217367
0.0221558
0.0521044
0.019908
0.022194
0.198733
0.0213855
0.486032
0.0212486
0.0214012
0.0210133
0.0211372
0.0206248
0.0212554
1.14153
0.264882
0.020607
0.0222583
0.022925
0.045073
0.0265077
0.0440803
0.0212074
0.0218653
0.0277057
0.0221365
0.275232
0.0396633
0.021055
0.0207425
3.06485
0.0219001
0.698042
0.0852712
0.0210478
0.750178
0.872498
0.211311
0.243758
0.12056
0.0264001
0.0209885
3.32829
0.0213453
0.0231569
0.0305162
0.0199933
0.021333
0.832673
0.0207391
0.128538
1.15881
0.0218642
0.021311
1.96159
0.0212415
0.0986833
0.0203975
0.367721
0.105259
0.248376
0.0212599
0.020843
0.0219784
0.909801
0.225539
0.27343
0.115564
0.0300932
0.0212576
0.17532
0.72528
0.0213973
0.02003
0.0241551
0.0210263
2.82552
0.0522947
0.0203623
0.338327
0.0208286
0.020729
0.020385
0.0212051
0.0213398
0.185674
0.0211268
0.874954
0.0208005
0.0218245
0.0215779
0.0215475
0.0211497
0.02123
0.0426204
0.0206148
0.132028
0.337848
0.0558092
0.0243144
0.0772851
0.0289363
0.0211672
0.0200884
0.0212712
0.0201373
1.26315
0.159853
0.0223178
0.0224175
1.09066
0.0219125
0.297877
0.0215071
0.0210258
0.0213955
0.0451983
0.0419806
1.1092
2.07814
0.0242935
0.0500093
0.0517862
0.0212812
0.0210675
0.0207302
0.0286387
0.0295479
1.81544
1.99812
0.0306424
0.0209119
0.0306688
0.021168
0.0437372
0.0210436
0.0499885
0.0220363
0.0193838
0.0355791
0.0218555
0.0243205
0.0421296
0.026738
0.903371
0.0210389
0.0206856
0.0213033
0.0212184
0.285301
0.0205594
0.0215166
0.0257296
0.019893
0.735154
1.01545
0.0346659
0.0213245
0.0214137
0.0249313
0.0268794
0.0210464
0.0212872
0.397843
0.0213058
0.0212723
0.311859
0.0242716
0.252803
0.202145
0.284864
0.0318306
0.0209688
0.0213358
0.027932
0.0210398
0.0209358
0.15628
0.943576
0.020586
0.0210609
0.020925
0.0221152
2.61664
0.0210492
0.0221734
0.0213962
0.020401
0.0209761
0.0409422
0.0228588
0.0209097
0.0200524
0.021816
0.0207033
0.0285365
0.293677
0.060195
0.0207621
0.0211295
0.0212894
0.0210079
0.361266
0.0213952
0.263549
0.191292
0.0210519
0.0206296
0.41827
0.0206855
0.0207505
0.0209433
0.196399
0.0240692
0.0271476
0.0209523
0.0198784
0.0213135
0.293626
0.0210548
0.0215131
0.0361897
0.325323
0.0298575
0.0199577
0.22187
0.019577
0.401182
0.0209459
0.0200248
0.0206424
0.0215539
0.0211859
0.991248
0.105785
0.274315
0.0690679
0.0265013
2.12071
0.021327
0.502088
0.221422
0.0220657
0.0534991
0.0393837
0.202808
0.021208
0.139568
0.0215906
0.0206652
0.0208707
0.103604
0.0530614
0.0250339
0.55217
2.22692
0.0409546
0.0213266
0.0232587
0.0430928
0.200486
0.0471399
0.0244073
0.0214818
0.0397718
0.570047
0.020833
0.657139
0.0220862
0.14767
0.0206013
0.0204607
0.0267083
0.0260728
2.73557
0.892421
0.040801
0.0209331
0.0210512
0.0452163
0.307867
1.11765
0.0208231
0.0225188
0.0207084
0.0209887
0.021021
0.243374
0.0412643
0.0410476
0.0388594
0.538351
0.464182
0.0208904
0.0214856
0.0207074
0.0206133
0.0264889
0.0210612
0.0213613
0.0212749
0.0209069
0.0246334
0.566509
0.0286317
0.0207595
0.0209706
0.982096
0.0275214
0.0233272
0.02638
0.333478
0.0225246
0.0209627
0.0259086
0.0303238
0.0208051
0.833254
0.0209861
0.0209073
0.0207985
0.485662
0.020923
0.020723
0.0219827
0.0215043
0.0208454
0.0207455
1.12418
0.797636
0.541596
0.021631
0.0208086
0.281534
0.0212102
0.0205839
0.0207803
0.460422
0.0213233
0.965101
0.0200948
0.020717
0.0390989
0.0406471
0.0207467
0.0437795
0.919215
0.570021
0.0208534
0.0197406
0.0208067
0.571946
0.0221237
0.0243179
0.880817
0.0210278
0.0204218
0.0217155
0.0209333
1.1021
0.0209174
0.021308
0.0209662
0.0257874
0.242191
0.0213126
0.0206951
0.0214625
0.202392
0.0882866
0.275501
0.0238605
0.39901
0.0204813
0.0209473
0.180575
0.785221
0.0212723
0.0209779
0.497248
0.0316184
0.0208912
0.0207757
0.0207585
0.020967
0.0209555
0.273311
0.0216521
0.0241827
0.291286
0.609287
0.0211924
0.024792
0.0261966
0.0427249
0.0237964
0.0255593
0.0212907
0.10702
0.0211964
0.028917
0.245208
0.0211483
0.0834175
0.258112
0.021014
0.0222761
0.478922
0.167794
0.0220728
0.0207337
0.0205124
0.102219
0.0208944
0.020739
0.026833
0.0236451
0.0209565
0.334521
0.335595
0.0206395
0.0237579
0.0221967
0.0207733
0.0204301
0.0209246
0.0203918
1.22059
0.0219804
0.0227922
0.0207215
0.0199696
0.02072
0.0208707
0.0216811
0.0265698
0.022882
0.443772
0.0209902
0.0209004
0.0252207
0.0207591
0.0199689
0.0222313
0.552128
0.0208159
0.0334338
0.0251559
0.436154
0.0202123
0.5026
0.548686
0.349964
0.020378
0.020985
0.46871
0.0209892
0.293049
0.0210592
0.0252422
0.02341
0.0210256
0.276018
0.296299
0.280228
0.201235
0.0255837
0.0207232
0.0208224
0.85255
0.0434638
0.0208852
0.0214331
0.020034
0.0214765
0.0204635
0.278269
0.0206775
0.0202563
0.021489
0.0217025
0.0383953
0.0273591
0.02195
0.0207203
0.0205257
0.727077
0.0250725
0.0196959
0.722452
0.025914
0.0265164
0.0264206
0.0273029
0.0203828
0.0206453
0.32012
0.466429
0.0381162
0.0209666
0.0206131
0.250909
0.240571
0.0253102
0.0209267
0.0252999
0.0207231
0.021786
0.022084
0.024715
0.019869
0.0208503
0.0204347
0.0207829
0.0207493
0.0232635
0.0206474
0.0710893
0.434792
0.0206027
0.020796
0.0199287
0.0210117
0.0213952
0.0209449
0.315204
0.272933
0.0208734
0.0217884
0.312227
0.0211301
0.46873
0.253335
0.278936
0.0206798
0.467094
0.0380115
0.46106
0.0236437
0.0207028
0.391709
0.356416
0.308861
0.0218775
0.0203713
0.237614
0.346252
0.0206182
0.0206871
0.0207292
0.0247942
0.0246447
0.0214752
0.0207068
0.020587
0.176763
0.468366
0.121717
0.0209664
1.99392
0.0404066
0.0205571
0.115685
0.0210043
0.0208524
0.020824
0.463221
0.0208182
0.0390361
0.0207638
0.0206823
0.020811
0.020523
0.021006
0.0249695
0.0199317
0.0206262
0.157648
0.020637
0.021535
0.0205572
0.020231
1.05322
0.187262
0.0208189
0.381494
0.0208919
0.0206029
0.0291632
0.0238944
0.390673
0.0199158
0.0205438
0.0214167
0.0207983
0.474131
0.0205283
0.0207894
0.0221495
0.0196518
0.0210339
0.0209404
0.0209208
0.103723
0.0210367
0.474536
0.278501
0.344809
1.16774
0.019976
0.0205957
0.0863228
0.0207583
0.524407
0.0199453
0.492795
0.518089
0.0200921
0.0205251
0.0212097
0.502734
0.0208593
0.0209035
0.163677
0.466109
0.4067
0.022146
0.0290114
0.0196645
0.350091
0.51183
0.233127
0.155896
0.287883
0.23888
0.0207207
0.020791
0.026736
0.0886056
0.021186
0.0207067
0.0207629
0.214365
0.0200873
0.0201084
0.126955
0.0206475
0.440523
0.0208178
0.361564
0.0964715
0.0226114
0.0212281
0.0207949
0.0208911
0.0778393
0.865153
0.0656162
0.0913545
0.224088
0.0687567
0.0210903
0.0232404
0.459592
0.0214785
0.0205896
0.124047
0.0430895
0.404655
0.113585
0.209156
0.0277096
0.0215805
0.0209721
0.0347769
0.159997
0.283502
0.506898
0.0197106
0.0212837
0.0225257
0.0310384
0.289997
0.02062
0.0231112
0.178808
0.0217653
0.02378
1.93517
0.43035
0.108332
0.0220349
0.0207746
0.0813638
0.0210303
0.0196791
0.158497
0.0213234
0.0202159
0.328765
0.020155
0.02054
0.0926616
0.275669
0.0364133
0.020234
0.130038
0.0204943
0.359299
0.302641
0.0299342
0.0209401
0.228156
0.0273408
0.124181
0.0202977
0.0203764
0.0484585
0.443415
0.300267
0.0208006
0.0208633
0.0203781
0.020714
0.0327481
0.0209095
0.0372267
0.0225333
0.291659
0.0202526
0.0269064
0.0210988
0.0204027
0.020733
0.0530373
0.0578453
0.0196532
0.0199667
0.0204319
0.020612
0.236942
0.02054
0.0322621
0.0235971
0.0394683
0.277189
0.403861
0.796112
0.351747
0.0295432
0.0287346
2.46355
0.26385
0.369006
0.0298071
0.0177189
0.0206218
0.0617057
0.415229
0.020571
0.529183
0.503035
0.839021
0.265632
0.0205369
0.41449
0.452162
0.375936
0.0214055
0.0206921
0.192553
0.0818411
0.330126
0.0207556
0.154177
0.021067
0.357032
0.510303
0.380017
0.020738
0.0221918
0.408785
0.265708
0.0204106
0.65687
0.103369
0.413384
0.0210693
0.109786
0.0205051
0.504227
0.259258
0.381541
0.413217
0.347553
0.0259804
0.450926
0.0227706
0.029116
0.0213203
0.252162
0.021304
0.0206993
0.0344669
2.02585
0.0213343
0.312388
0.398527
0.283835
0.084708
0.309913
0.0201553
0.253953
0.0253792
0.197191
0.0206771
0.021347
0.0214451
0.0221704
0.0204087
0.078942
0.22247
0.0451266
0.0217198
0.0223198
0.0198922
0.0333665
0.275927
0.0200491
0.461716
0.884631
0.116048
0.366455
0.0207473
0.0211813
0.0205993
0.0263023
0.021213
0.0206513
0.0547679
0.0227423
0.021326
0.0199613
0.0206508
0.0236086
0.129737
0.0213221
0.25349
0.0207004
0.0208174
0.0297504
0.0257291
0.0214463
0.0207221
0.0204989
0.152101