/*--------------------------------*- C++ -*----------------------------------*\
| =========                 |                                                 |
| \\      /  F ield         | OpenFOAM: The Open Source CFD Toolbox           |
|  \\    /   O peration     | Version:  v2012                                 |
|   \\  /    A nd           | Website:  www.openfoam.com                      |
|    \\/     M anipulation  |                                                 |
\*---------------------------------------------------------------------------*/
FoamFile
{
    version     2.0;
    format      ascii;
    class       volVectorField;
    location    "850";
    object      U;
}
// * * * * * * * * * * * * * * * * * * * * * * * * * * * * * * * * * * * * * //

dimensions      [0 1 -1 0 0 0 0];


internalField   nonuniform List<vector> 
10042
(
(0.977209 -0.00926797 -2.19262e-21)
(0.89582 -0.243969 9.23979e-21)
(1.06024 -0.0385958 -1.21493e-22)
(1.01718 0.00188625 3.82567e-22)
(1.01333 0.000527863 -1.31193e-21)
(0.764578 -0.0490711 4.94081e-21)
(0.973929 0.210146 1.39607e-20)
(0.949432 0.102566 -1.66742e-20)
(1.01309 0.000290262 -1.58678e-21)
(0.954724 0.0499942 -3.11639e-21)
(1.01737 -0.0863742 1.77724e-22)
(0.902127 -0.247669 0)
(1.07594 0.0638488 -1.03693e-20)
(1.01875 0.00374134 0)
(1.03135 0.00292386 2.2587e-21)
(1.01839 0.00424503 0)
(0.798957 -0.171796 0)
(1.00436 -0.0919605 1.69199e-22)
(1.05597 0.0199351 -1.04858e-20)
(1.00811 -0.00912732 2.39394e-21)
(1.07132 0.0663071 0)
(0.980222 -0.0147027 0)
(1.01697 0.0017892 -2.18348e-22)
(0.942987 0.25047 0)
(1.0153 0.00288069 0)
(1.00919 -0.000142326 3.64359e-22)
(0.958705 0.045597 2.10059e-21)
(1.01199 0.000137549 2.13974e-21)
(0.774157 -0.0792604 -3.51016e-21)
(0.956628 0.2592 8.60462e-21)
(1.0097 0.000127151 2.22821e-21)
(1.1236 0.0384885 -6.28903e-21)
(1.01277 0.000293667 -1.67294e-21)
(1.0126 0.000269998 -1.77575e-21)
(0.971076 0.0667069 1.22051e-20)
(0.892643 -0.0123112 -1.01111e-20)
(1.0188 0.000509258 0)
(1.01218 0.000263851 -7.22109e-24)
(1.01122 0.000253508 1.16766e-21)
(1.01219 -0.00514318 -1.08006e-22)
(0.95506 0.258543 1.66692e-20)
(1.01286 0.000256389 1.69638e-21)
(1.15049 0.171756 5.41328e-21)
(0.903884 -0.192782 0)
(1.01629 0.00251272 -1.60209e-21)
(1.01533 0.00298201 -1.17977e-21)
(1.01199 -0.000463442 1.64799e-22)
(1.03043 0.00277436 -2.29274e-21)
(0.988954 0.103642 0)
(1.13603 0.296631 -1.44578e-20)
(1.14705 0.186153 6.95072e-21)
(1.01495 0.00117968 -6.50888e-22)
(0.781689 -0.139635 4.47829e-21)
(1.05348 0.019203 1.29245e-21)
(0.706206 0.271659 4.05015e-21)
(0.20669 -0.295665 8.66016e-21)
(1.06701 0.0628787 0)
(1.02319 -0.0491067 1.1347e-21)
(1.02602 0.00991479 0)
(1.01574 -0.00177682 0)
(0.981639 0.0994273 0)
(0.782966 0.216217 5.01867e-21)
(1.13995 0.160829 1.60325e-21)
(1.01225 0.139492 3.19361e-21)
(1.07847 -0.0177593 9.90633e-22)
(1.01596 0.00704543 -2.49585e-21)
(1.01326 -0.00891419 2.61941e-21)
(0.961537 0.0181041 0)
(1.01219 -0.000772404 -2.08354e-22)
(0.96249 0.0116922 0)
(1.16569 0.213744 0)
(1.01373 0.00948964 0)
(1.01266 0.000780243 0)
(1.02614 0.00917373 0)
(1.01559 0.00651853 2.50516e-21)
(1.16777 0.196614 -8.00398e-21)
(1.03539 -0.0498578 0)
(1.01202 -0.000528454 8.4053e-23)
(1.0286 -0.0543259 -1.93194e-21)
(1.05792 0.0183249 0)
(0.906073 -0.196411 5.24215e-22)
(0.946161 0.256812 0)
(1.00629 0.000113886 3.23497e-21)
(1.01384 0.000909592 4.20187e-22)
(0.972351 0.00812818 -1.92854e-21)
(0.953872 0.134817 -1.70937e-21)
(1.0147 -0.00733457 1.19163e-21)
(1.06596 -0.0328853 -4.82621e-21)
(1.01284 -0.000549028 -1.77075e-22)
(1.05854 -0.0358404 0)
(1.06775 0.044275 -1.95155e-20)
(1.03201 0.00232468 -1.76134e-22)
(1.12883 0.159803 5.69226e-21)
(0.943709 0.137235 1.38001e-21)
(1.08323 0.0161508 0)
(1.01843 0.00488614 -1.02168e-21)
(-0.0669934 -0.259934 1.34926e-19)
(1.01045 -0.00776718 -5.24265e-21)
(0.951908 -0.206179 4.87783e-21)
(1.02687 0.00829907 1.72943e-21)
(1.06487 0.0422393 4.5719e-21)
(0.930201 0.0674091 4.83112e-22)
(1.01862 0.00942883 7.30882e-23)
(1.11212 0.0296425 -1.14293e-20)
(1.05255 0.0317482 -1.08703e-20)
(1.02009 0.00833638 2.21967e-22)
(0.473743 0.0753105 7.76987e-20)
(1.01589 0.00595938 -2.28207e-21)
(0.96059 0.206095 -3.07165e-21)
(1.02023 0.00890303 -2.174e-22)
(1.02464 0.00892492 -1.48932e-21)
(0.959706 0.187205 3.10568e-21)
(0.931342 0.0588938 0)
(1.03303 0.108798 -6.16633e-21)
(1.07659 -0.0100203 -8.39252e-22)
(1.01252 -0.00114962 -3.07513e-22)
(0.991411 0.0385382 0)
(1.01037 0.000221043 0)
(1.0288 -0.0417929 0)
(1.01289 -0.00144458 -1.11365e-21)
(1.0156 -0.00195076 2.62885e-24)
(0.924928 -0.257264 2.82286e-20)
(0.933413 -0.255024 0)
(1.01644 0.00268692 1.90909e-21)
(1.05162 -0.0432109 0)
(1.01247 -0.00102874 -2.54041e-21)
(1.01209 -0.000976521 -4.30287e-22)
(0.705669 0.287073 -2.52214e-20)
(1.19828 0.107135 5.15408e-20)
(0.987569 0.0369382 4.72424e-21)
(1.01287 -6.39031e-05 2.36341e-22)
(1.01422 0.00482315 -2.88866e-21)
(1.01204 -0.00351604 -2.78842e-21)
(1.01665 0.004854 1.26599e-21)
(0.950103 0.182581 2.77431e-21)
(1.10304 0.235918 -2.2752e-20)
(1.0213 -0.0101167 0)
(0.435664 0.117063 0)
(1.03836 0.0189604 0)
(0.948703 -0.193869 -3.54565e-21)
(1.10742 0.122997 1.77679e-20)
(1.01149 9.44252e-05 0)
(0.562872 0.162794 2.49427e-20)
(1.01196 0.000118317 -2.9375e-21)
(1.02007 0.0410855 0)
(1.01229 0.000234699 2.84116e-21)
(0.976959 0.00863738 5.51906e-21)
(1.01226 -0.000817782 0)
(1.01557 0.0043817 0)
(0.851037 0.248253 1.69807e-21)
(1.01547 0.00550079 5.05825e-21)
(1.01032 8.01625e-05 -1.84073e-21)
(1.04009 0.0218064 3.04436e-21)
(1.08642 0.0737674 4.21969e-21)
(1.07387 0.0171936 0)
(1.01719 0.0415344 -8.19612e-22)
(1.18885 0.108709 -6.53217e-20)
(0.216394 -0.316231 4.55783e-21)
(1.01132 -0.00293145 0)
(1.00742 -0.00025523 0)
(1.01245 0.000370287 -2.87736e-23)
(1.01137 -0.00584681 0)
(1.08436 0.238068 -1.78395e-20)
(1.01258 -0.000511675 2.85318e-21)
(1.03565 0.0154529 -5.40117e-21)
(0.839167 0.228699 4.44708e-22)
(1.01265 0.000594721 1.86125e-21)
(1.1141 0.0345247 1.98831e-20)
(0.91779 0.0166755 1.60036e-20)
(1.01235 0.0002398 0)
(1.0666 0.0399935 -1.04563e-21)
(0.964907 0.249789 -3.51264e-20)
(0.975947 -0.215963 -3.95176e-21)
(1.0125 0.000276301 -1.80495e-21)
(1.05174 0.0207382 3.77553e-21)
(0.958927 -0.235621 0)
(1.01596 0.00298222 5.33311e-22)
(1.01231 0.000186099 1.43175e-21)
(1.01412 0.00442334 1.28774e-21)
(1.01211 -0.000687868 0)
(1.0369 0.0182023 0)
(1.0445 0.0361864 1.36164e-22)
(1.0269 0.00899838 1.32609e-22)
(1.01264 -0.00112756 0)
(0.960047 0.0202451 -5.958e-22)
(1.0798 0.0343486 -2.44993e-20)
(1.01372 0.01081 0)
(1.01565 -0.00143406 7.64321e-24)
(1.1707 0.267444 2.25224e-20)
(1.01147 0.000143034 1.10908e-21)
(0.899482 -0.230015 -1.05786e-20)
(1.0623 0.064921 0)
(1.01297 -0.000108992 0)
(1.04421 0.0341576 -4.75982e-21)
(0.710986 0.289388 -8.78674e-21)
(1.03182 0.00163224 1.32455e-21)
(1.02373 0.0328559 0)
(1.04196 0.0519527 1.51747e-21)
(-0.00370986 -0.211327 0)
(1.01396 0.000836301 -1.47311e-23)
(1.22454 0.115499 0)
(1.11773 0.13989 4.07295e-20)
(1.01179 0.101057 9.46871e-22)
(1.01141 -4.0502e-05 9.61192e-22)
(0.944437 -0.212564 -2.38215e-21)
(1.01263 -0.00316087 3.86503e-22)
(0.926173 0.228878 -4.17706e-21)
(1.08134 0.0728752 0)
(1.02398 0.00846456 1.19527e-23)
(1.01705 0.00494715 0)
(1.12055 0.0345788 -1.30041e-20)
(1.01165 -4.44154e-05 -9.26273e-22)
(1.00532 0.110571 -6.53886e-22)
(1.02872 0.0920486 -8.6707e-22)
(1.01773 0.000463986 -4.31894e-22)
(0.976886 0.0121823 -3.62829e-22)
(1.01153 -0.000121581 0)
(1.09195 -0.0176771 0)
(1.01646 0.000922469 -1.06603e-21)
(1.21247 0.118302 -5.89583e-21)
(0.712503 -0.0312722 6.81015e-20)
(1.05728 0.0362213 -1.52981e-24)
(0.645967 -0.0512337 -6.15749e-20)
(0.972048 0.00936703 0)
(1.01726 0.00201499 0)
(1.12684 0.142121 -5.21617e-20)
(1.01731 0.00447622 -9.63446e-22)
(1.02187 -0.00832434 0)
(0.971156 0.0408688 -1.59204e-21)
(1.01891 0.010089 -1.91913e-23)
(1.01243 0.000138921 6.18934e-24)
(1.01188 -0.00132325 -5.21183e-21)
(1.07724 0.0358198 2.43041e-20)
(1.00853 0.000200418 -1.553e-21)
(1.01587 0.0030068 0)
(0.922127 0.0769579 4.73798e-22)
(1.02606 -0.00462086 -1.33648e-23)
(-0.0541832 -0.253425 -8.09587e-20)
(1.02168 0.0380129 0)
(0.947293 0.242627 2.32519e-21)
(1.1358 0.117046 0)
(1.04921 0.110582 0)
(1.01573 -0.00216491 0)
(1.01037 -0.00491872 3.02349e-22)
(0.686008 0.199519 -1.13878e-20)
(1.01334 0.000552115 -4.29769e-22)
(1.05758 0.126344 0)
(1.0203 0.0355553 2.96522e-21)
(1.04038 0.0232571 4.45343e-21)
(1.01266 0.000352887 0)
(1.05239 0.0289449 1.48515e-20)
(1.0132 -0.000203809 0)
(0.876287 0.0370586 -1.8963e-21)
(0.704165 0.208504 1.73639e-21)
(1.01624 0.0043416 8.56231e-22)
(1.02569 -0.00329085 1.07507e-21)
(1.0105 0.000119065 -2.33224e-21)
(1.01761 0.00214708 -1.39336e-21)
(-0.0481305 -0.28081 5.00286e-20)
(1.01599 0.00110634 -1.19006e-21)
(1.06165 -0.0378905 0)
(1.01236 0.000481005 0)
(1.01482 0.00114875 0)
(1.01193 -0.000421592 -1.60723e-22)
(1.08044 0.0661267 0)
(0.682573 0.196323 -1.00494e-20)
(1.06891 -0.0286064 9.72671e-22)
(0.894484 0.030482 0)
(1.00529 -0.000123325 2.41724e-21)
(1.01199 -0.00187871 2.94216e-21)
(1.02248 0.0016321 -3.11484e-22)
(1.1111 0.279634 1.24536e-20)
(1.01809 0.000632113 -2.56292e-21)
(1.19368 0.227227 0)
(1.01801 0.00250961 1.79054e-21)
(1.04513 -0.0249999 3.52445e-22)
(1.04489 0.00726609 0)
(1.01581 0.00253538 4.12018e-22)
(1.00528 -4.11023e-05 -2.70261e-21)
(0.734201 0.268061 -1.07937e-20)
(1.01209 0.000162086 -1.00616e-21)
(1.0526 -0.00960786 0)
(1.0443 0.0343872 -1.91931e-20)
(1.04327 0.00699722 -1.43461e-21)
(1.01574 0.000123794 -6.11906e-22)
(0.226344 -0.199667 0)
(0.975878 0.0210041 0)
(1.01193 -0.000382262 1.79118e-21)
(0.986332 -0.0239717 2.42573e-21)
(1.0094 8.15655e-05 2.36418e-21)
(1.05406 0.0631979 1.73466e-20)
(0.987093 0.0115113 0)
(1.01425 0.000242469 -3.45566e-22)
(1.03616 -0.00118375 1.80079e-20)
(1.07099 -0.0295974 -1.44681e-21)
(1.01621 0.00497732 3.07334e-21)
(0.871988 -0.10537 -3.16162e-21)
(1.02421 -0.00742131 2.1823e-21)
(1.0227 0.00141716 -4.32465e-22)
(1.01146 -9.88362e-05 0)
(1.03826 0.0212306 -6.03038e-21)
(1.02425 0.101651 2.08139e-21)
(1.01579 -0.00142271 0)
(1.1314 0.0768961 7.68243e-21)
(0.979216 0.0245962 0)
(0.787036 0.200388 0)
(1.01937 0.000821922 -2.96811e-22)
(1.00912 -0.00573084 -1.53249e-22)
(0.847017 -0.116544 3.26662e-22)
(1.04083 -0.0348377 -1.93257e-20)
(1.01732 0.000208781 -2.7024e-23)
(1.01596 0.00438869 -2.85794e-21)
(1.01849 0.00492747 8.847e-22)
(1.01664 0.0046748 -8.2661e-22)
(0.985882 0.00776982 0)
(0.990577 -0.0272189 2.32949e-21)
(1.01191 -0.000361088 2.46314e-22)
(0.965173 0.0136474 -8.022e-22)
(0.957861 0.226402 -1.03267e-21)
(1.01261 -0.00121297 3.16669e-22)
(1.00678 -5.01302e-05 1.79471e-21)
(1.1889 0.247661 0)
(1.04447 -0.0200857 -1.51545e-21)
(0.97527 0.0891914 -1.26543e-21)
(0.963819 0.0387827 -4.61254e-22)
(1.01684 0.000314721 4.50473e-22)
(1.01693 0.0280743 2.55856e-21)
(1.01373 0.00414798 2.85274e-21)
(1.02422 -0.00580403 2.22237e-21)
(1.05107 0.0599177 -7.76976e-21)
(1.01328 -0.00359538 -3.8718e-22)
(1.02128 0.00638821 5.24035e-22)
(0.982977 -0.00463007 2.61508e-21)
(1.0102 8.70865e-05 -2.11592e-21)
(0.937787 0.229622 0)
(0.977081 -0.0250637 0)
(0.720616 0.245938 -1.88194e-20)
(0.976115 0.0769345 0)
(1.01331 -0.000280683 -2.10809e-21)
(0.814431 0.190188 -9.23141e-21)
(1.09896 0.127721 -1.66886e-20)
(1.05614 0.0724432 2.12387e-21)
(1.01562 -0.00231298 -1.42766e-22)
(1.02968 0.0266636 -2.25702e-21)
(1.01165 0.000324784 4.85285e-23)
(1.01248 9.25404e-05 -3.80293e-21)
(1.01656 2.62657e-05 0)
(1.01397 0.000598333 1.70459e-21)
(0.99754 -0.00146877 0)
(-0.0470458 -0.224232 -2.92933e-20)
(1.03677 0.00520264 -4.16963e-21)
(1.08425 0.0055914 0)
(0.998198 -0.00432699 0)
(1.01203 0.00317517 0)
(0.753464 0.243149 -4.4506e-21)
(1.01888 0.0322171 -1.87882e-21)
(1.01702 0.00505091 0)
(1.00373 7.50744e-05 -2.6688e-21)
(1.21087 0.120262 5.42404e-20)
(1.00382 3.1299e-05 0)
(1.02048 0.0080948 0)
(1.01874 0.000494962 -3.54479e-22)
(1.03429 0.0160051 5.17143e-21)
(1.0003 0.219377 1.41749e-20)
(0.801756 0.148788 9.54107e-21)
(1.03705 0.0161598 4.42996e-21)
(1.01427 0.000778748 -1.10286e-22)
(1.00173 -0.00712465 0)
(1.00063 -0.00476701 0)
(0.718089 0.293486 -4.24863e-21)
(1.01561 -0.00160144 7.67184e-23)
(1.00748 0.000181135 -4.86075e-23)
(1.01866 0.000417223 0)
(1.01163 -0.000412931 0)
(0.957295 0.122226 0)
(1.02063 -0.000625077 0)
(1.03905 -0.0308762 1.65248e-21)
(1.09961 0.178094 0)
(0.69212 0.0496471 -1.04019e-20)
(0.965975 0.121447 0)
(1.02044 0.0068854 -1.88441e-23)
(1.11889 0.171772 -1.32463e-20)
(0.968859 0.0341495 0)
(1.01365 0.00378729 -2.65948e-21)
(1.11089 0.0785917 -1.37808e-20)
(1.01277 -0.001375 0)
(1.01351 0.000518 -3.49398e-21)
(1.01284 -0.0013596 1.15704e-21)
(1.01006 0.00260977 0)
(1.01189 -0.00030072 -1.66165e-21)
(1.01868 0.00221549 1.90066e-21)
(0.237295 -0.249836 0)
(1.03604 0.00601159 -2.21203e-21)
(1.00508 0.0286119 2.7254e-21)
(0.77932 0.105083 -9.65086e-21)
(0.733886 0.1943 -3.28683e-21)
(1.01846 0.00237448 -2.15322e-22)
(0.99582 0.0868624 -2.06567e-20)
(1.0183 0.000123719 3.61622e-22)
(1.1216 0.0427277 2.3406e-20)
(1.01509 0.00108537 1.31069e-21)
(0.401408 -0.126593 -1.08974e-20)
(1.02095 -0.00448104 2.96624e-21)
(0.727246 0.252195 -1.73557e-20)
(-0.00318019 -0.316555 -2.31952e-20)
(1.01238 0.00368568 0)
(1.09108 0.121692 -1.60545e-20)
(1.01209 0.00636573 -1.0482e-21)
(1.13752 0.126849 3.40399e-21)
(1.01888 0.00259058 -1.20053e-21)
(0.849951 -0.200593 -2.35414e-21)
(1.02866 0.0481532 1.93212e-21)
(1.04943 0.0641897 5.70269e-21)
(1.03479 0.00581659 -1.87277e-21)
(1.02793 0.159234 1.86623e-21)
(1.01211 0.0115693 -3.20032e-23)
(1.01359 0.0473649 4.17147e-21)
(0.724082 0.283234 5.32735e-21)
(1.0118 -0.000168409 7.40721e-22)
(1.01281 0.0108034 -2.36901e-21)
(1.01054 0.000118448 2.08397e-21)
(0.773542 0.0584431 -1.31315e-20)
(1.01263 3.55368e-05 2.00685e-21)
(1.01275 -0.00118876 0)
(1.11602 0.126781 -2.12283e-20)
(1.02072 0.0159645 -1.59315e-21)
(0.966478 0.0197125 -2.87219e-21)
(0.851345 -0.18857 1.78805e-21)
(1.01586 0.0010853 8.53363e-23)
(1.06141 0.0709406 -1.14468e-20)
(1.01938 0.0156215 1.33479e-21)
(1.01202 -0.00061313 -1.57529e-21)
(1.02587 0.048694 -3.07161e-21)
(0.874061 0.00762788 -1.37583e-21)
(1.01293 0.00586165 -1.10267e-21)
(1.03307 0.0150412 0)
(0.909483 0.296883 6.97864e-22)
(1.03676 -0.0367935 0)
(1.00684 -1.68162e-05 1.99315e-22)
(0.195487 -0.289336 4.29639e-21)
(1.01197 9.83788e-05 -1.74042e-21)
(0.988966 0.00442931 2.45279e-21)
(1.0409 -0.0196157 0)
(1.20046 0.255964 -3.31203e-21)
(1.11862 0.249706 1.36026e-20)
(0.927636 0.0377144 -1.46856e-21)
(1.02994 0.153758 0)
(1.07378 0.222266 2.15766e-21)
(0.994152 0.12984 4.02869e-21)
(1.01302 -0.0014042 0)
(1.04793 -0.0141756 1.23204e-21)
(0.893368 -0.128702 2.22382e-21)
(0.915147 -0.123367 -6.38147e-22)
(1.10609 0.0764711 3.20021e-20)
(1.01693 0.00162379 -2.63297e-22)
(1.01695 -0.000183219 0)
(1.07795 -0.000265012 0)
(0.177596 -0.292808 2.24521e-20)
(1.01267 -0.00120117 -2.93452e-22)
(1.01472 -0.00488369 -6.17402e-23)
(1.01036 0.000306622 -6.00073e-23)
(1.01803 0.00242501 0)
(1.01936 -0.00501335 -4.13963e-21)
(1.0194 -0.00614053 2.07132e-21)
(1.01044 0.00217776 5.38726e-22)
(1.00924 0.000119648 3.54307e-22)
(0.972829 -0.0202837 0)
(1.04477 0.00420379 3.37197e-21)
(0.988162 0.00113903 0)
(1.07366 0.0340057 -9.17161e-22)
(1.05661 0.222077 -1.03126e-21)
(1.0128 0.000989423 -1.0484e-21)
(0.454673 -0.125377 2.91841e-20)
(0.929822 0.293495 0)
(0.990243 -0.179613 8.63114e-21)
(1.01077 0.000104359 2.60876e-21)
(1.079 0.0152089 0)
(1.00782 -4.34225e-05 -2.04235e-21)
(0.754818 0.172111 0)
(1.02307 0.00266639 -3.31252e-22)
(1.03594 0.0467841 -1.60566e-21)
(1.03409 0.00654865 -3.48999e-21)
(0.956604 -0.185115 3.5826e-21)
(1.0111 9.85425e-05 3.33653e-23)
(1.05522 0.0273502 5.6532e-21)
(1.01483 -0.00538473 -1.42585e-22)
(1.0448 -0.0107855 -1.59269e-21)
(0.907556 -0.186874 0)
(1.00804 -2.96253e-06 -1.89476e-22)
(1.01284 0.000345302 3.64246e-21)
(1.0164 0.00454954 0)
(0.919148 -0.2105 -9.2343e-21)
(1.01235 0.00042349 -2.31052e-21)
(1.03261 0.0354415 0)
(1.07702 -0.0120068 0)
(1.08218 0.124819 2.89051e-20)
(1.01223 0.00261516 -2.18333e-21)
(1.03749 0.0387946 0)
(1.0191 0.00115176 1.95253e-20)
(0.957635 0.245462 6.29144e-21)
(1.02361 0.00729403 0)
(1.01129 0.000300869 -1.70071e-21)
(1.05846 0.0355369 -2.19315e-20)
(0.922415 -0.215522 1.40832e-20)
(1.01529 0.0841727 1.72246e-21)
(0.847064 0.0866747 8.28697e-22)
(1.01113 0.000152945 0)
(0.980663 -0.00109825 9.32944e-22)
(0.983484 0.027028 0)
(0.997348 0.0369676 -4.11084e-22)
(1.02194 0.0306879 -6.23415e-23)
(0.925112 0.237925 -1.27598e-21)
(1.0126 0.00255953 1.01807e-21)
(1.01665 0.00153513 0)
(1.02103 0.0100076 9.75277e-22)
(1.00532 -0.032537 -8.30822e-21)
(1.0166 0.00264512 1.32574e-21)
(1.12576 0.144524 6.43226e-21)
(1.01791 0.00231452 6.53909e-22)
(1.02428 0.00603876 9.07023e-22)
(1.01346 0.0010727 1.11233e-21)
(1.01073 0.0449512 -5.69812e-21)
(0.860981 0.10001 7.60588e-22)
(1.01955 0.0102847 -4.07941e-22)
(1.03174 0.0153676 -1.575e-22)
(0.881448 0.160179 1.54737e-21)
(1.05028 0.0494369 3.26846e-22)
(0.979165 -0.0144958 -4.42071e-21)
(1.01996 0.0100083 4.9443e-22)
(1.0146 0.00578569 -3.48331e-22)
(0.976719 0.00293627 -1.12924e-21)
(0.973376 0.240311 -7.72263e-21)
(1.02065 0.00732655 1.54871e-22)
(1.01197 2.03605e-05 -2.76627e-21)
(1.06977 -0.00663774 2.05226e-21)
(1.01848 0.00505078 0)
(1.02035 0.00560096 -8.68993e-23)
(0.941863 -0.0685446 -4.77873e-22)
(1.01269 6.57946e-06 0)
(0.67202 0.223184 0)
(1.01438 0.000838896 0)
(0.967021 0.0469465 0)
(1.0313 0.00792405 -2.34789e-21)
(0.459972 -0.10018 1.98761e-20)
(1.01677 0.00270663 -6.34127e-22)
(1.07916 0.0213201 -1.04798e-20)
(1.0164 0.000798576 9.64041e-22)
(1.01263 0.000580285 -1.47434e-21)
(0.887392 0.148302 2.6925e-22)
(1.0158 -0.00255025 -9.67999e-24)
(1.03387 0.283318 0)
(1.02004 0.087068 -2.26694e-21)
(1.01288 0.000157771 1.52469e-21)
(1.00773 0.019005 2.91378e-21)
(0.819659 0.299101 2.43047e-20)
(1.12394 0.0225162 3.70216e-21)
(1.06915 0.0240193 9.20089e-22)
(1.01009 0.000101398 1.96703e-21)
(1.01195 -6.80523e-05 1.88435e-21)
(1.01235 -0.000812952 -1.20893e-21)
(1.01558 -0.00543363 -1.23181e-23)
(1.04182 -0.00349912 -1.46595e-21)
(1.02081 0.00932003 -4.87866e-22)
(0.906538 -0.15449 -5.68275e-22)
(1.0188 0.0050589 3.77487e-23)
(1.01483 -0.000872368 0)
(0.811241 0.246107 -1.71791e-21)
(1.05006 0.0330698 0)
(1.04577 -0.00573322 3.00399e-21)
(1.00625 -5.10451e-05 3.52218e-21)
(1.01303 0.000590949 2.36682e-21)
(0.818372 0.236545 1.07689e-21)
(0.999001 0.202087 -6.05586e-21)
(1.02862 0.00780603 4.62789e-22)
(0.914785 0.235021 1.27176e-21)
(1.022 0.0008134 -2.44494e-22)
(1.07892 0.0276114 3.09179e-21)
(1.01213 0.000626761 0)
(1.01307 0.000176061 -1.57913e-21)
(1.01638 0.00514646 -1.81722e-21)
(1.01578 0.00453082 2.84234e-21)
(1.02138 0.00801479 -3.67296e-22)
(1.01087 0.000116874 -2.51683e-23)
(0.270448 -0.170722 1.68346e-20)
(1.03224 0.00692797 0)
(0.909189 0.00841627 3.65979e-21)
(1.01533 0.00219234 -1.70157e-21)
(1.02275 0.00997653 2.80065e-23)
(1.01187 -0.000325958 9.74904e-22)
(0.972002 -0.0153764 6.53671e-21)
(1.10894 0.0357647 0)
(1.01279 9.95021e-05 -1.06148e-21)
(1.01565 0.00238904 1.66932e-21)
(0.966819 0.0296483 0)
(1.05042 0.0398647 -1.66419e-21)
(1.01182 -0.000216305 -1.68297e-21)
(0.67423 0.126036 1.90475e-20)
(1.01407 0.000686285 0)
(0.987547 -0.0148465 -2.27871e-21)
(1.01218 0.000308826 0)
(1.01448 0.000503093 0)
(1.0126 0.000519114 0)
(1.17376 0.0951162 -2.56018e-20)
(1.01187 -0.000274961 0)
(1.0159 -0.00270534 -2.94743e-21)
(1.02152 -0.00034585 0)
(0.696494 0.139911 2.78596e-20)
(1.00984 -0.000227813 0)
(1.01601 0.00503559 7.73905e-22)
(1.01064 0.00011367 -1.40996e-22)
(1.07555 -0.0603257 -1.7382e-21)
(1.01848 0.00254951 2.62874e-22)
(1.0166 0.00318852 -2.08262e-21)
(1.01155 8.4793e-05 1.76603e-21)
(1.01674 0.00325339 2.12133e-21)
(1.02263 0.0331916 -1.08043e-25)
(1.01614 0.00309435 1.16216e-21)
(1.02103 0.00917036 -1.53012e-21)
(1.01213 0.000733609 -1.08978e-21)
(-0.0163195 -0.30664 -1.28288e-21)
(0.892444 -0.18422 -1.44345e-21)
(0.922997 -0.195404 2.21567e-21)
(1.01942 0.00249867 0)
(1.06675 0.0108243 -9.5111e-21)
(1.01638 0.000912626 7.39744e-23)
(0.980919 -0.0815834 0)
(1.01873 -0.000103262 -3.34477e-22)
(0.955892 0.241615 6.87025e-21)
(0.968656 0.0918305 2.62809e-21)
(0.932112 -0.198096 -5.66444e-21)
(0.990941 -0.0188291 -2.38773e-21)
(1.05286 0.157297 0)
(1.02172 0.000769624 0)
(1.02109 0.00672966 -2.56853e-22)
(0.959523 0.101682 1.44078e-20)
(1.07633 -0.0510576 3.10648e-21)
(1.01287 0.0271857 0)
(1.15826 0.0789331 -1.81364e-20)
(1.02903 0.00724885 -1.47463e-22)
(1.00984 0.173201 0)
(1.01297 0.00117926 0)
(1.02285 0.0078575 -7.32051e-23)
(1.01277 0.00112948 -1.07538e-21)
(1.01227 0.000386762 -2.02805e-21)
(1.01277 0.000391315 9.93188e-23)
(0.969422 0.0574686 1.51043e-20)
(1.04229 0.00816271 4.70264e-21)
(1.00916 -0.000165799 -1.3728e-23)
(0.276027 -0.223087 3.1728e-20)
(1.01829 0.00440136 1.19583e-22)
(0.967616 -0.074831 0)
(1.01294 -0.00570302 2.5253e-22)
(1.04318 0.00437307 -6.02759e-21)
(1.03352 0.0292499 -1.32754e-22)
(1.0117 0.000138735 -1.36262e-21)
(0.944696 0.221203 0)
(1.01186 0.002851 -1.89156e-21)
(1.01576 0.00417101 -1.355e-21)
(0.919796 0.0146413 0)
(1.02426 0.00660186 -1.30374e-23)
(1.01531 -0.00104086 -1.42474e-22)
(1.00837 -1.1127e-05 -2.22536e-21)
(1.01283 0.00137022 0)
(1.01304 0.00110517 -2.36674e-21)
(0.91439 -0.0971704 -1.19428e-22)
(0.92261 -0.0685866 -5.15069e-22)
(0.895009 -0.177799 4.40084e-22)
(1.02995 0.00203424 0)
(1.01285 -0.00020098 0)
(1.01299 0.00169378 2.69065e-21)
(1.01446 0.190268 0)
(1.01268 0.00879634 0)
(1.01489 0.00635166 0)
(1.01112 -0.000149555 -7.22239e-22)
(1.01558 -0.000302469 4.73349e-21)
(1.03953 0.184591 5.49114e-21)
(1.12676 0.318453 3.83447e-20)
(1.00107 0.000198385 1.44952e-22)
(1.01728 0.00374968 1.62315e-21)
(1.01413 1.502e-05 8.08593e-23)
(0.073901 -0.325837 6.89894e-20)
(1.08094 0.0239117 -3.47223e-21)
(0.994955 -0.000174918 5.05485e-22)
(0.969866 0.00237871 0)
(0.87524 0.127875 -1.89583e-23)
(0.777346 0.194037 0)
(1.02991 0.200542 -7.32256e-21)
(1.01296 0.00098123 0)
(1.01047 0.000132273 -2.1224e-21)
(1.01169 0.00324006 1.4509e-21)
(1.03553 0.141786 0)
(1.01297 0.000891379 0)
(1.07123 0.0131 0)
(1.01032 -0.000325056 0)
(1.01571 -0.00268873 2.55401e-22)
(1.02547 0.0275669 0)
(1.00837 -0.00361178 -4.52765e-22)
(1.13325 0.108284 -3.0622e-20)
(0.893553 0.0157927 4.71695e-20)
(1.01202 -0.000596808 0)
(1.01612 0.00245162 -1.07317e-21)
(1.01286 -0.00117909 2.18317e-21)
(0.941286 0.0342597 8.10895e-22)
(1.01227 0.000336569 1.91612e-21)
(0.831747 -0.217163 -9.39322e-21)
(1.00389 -0.00722075 0)
(1.17507 0.29445 2.92546e-21)
(1.01273 0.000406232 2.21399e-21)
(1.01353 0.00402347 -1.39659e-21)
(1.01284 8.71922e-05 2.40921e-21)
(1.01658 0.00163246 0)
(1.02099 0.00602511 -2.35249e-22)
(1.01593 -0.00457211 -6.60054e-24)
(1.02335 0.00244828 4.03998e-22)
(1.03366 0.00830566 6.92851e-21)
(1.00939 0.0306329 0)
(1.05482 0.0244828 -9.63647e-21)
(0.916005 -0.162392 -2.83137e-21)
(1.02108 0.000116684 -2.09686e-24)
(1.06384 -0.0466406 -2.50123e-21)
(0.899328 0.193913 3.96623e-22)
(1.01769 -5.49212e-05 -7.81533e-22)
(0.25446 -0.302847 9.03873e-21)
(1.01487 0.00205691 1.91935e-21)
(1.01969 -0.00268749 -1.53816e-21)
(1.02187 -0.00526765 -1.51076e-21)
(1.00951 -9.68034e-06 -2.55939e-21)
(0.92136 0.2382 3.2532e-21)
(1.01031 0.00031354 0)
(1.01945 0.00284676 -1.19852e-21)
(1.01351 0.00126676 1.14505e-21)
(0.763963 0.223897 1.40578e-20)
(1.01333 0.00364858 1.484e-21)
(1.04175 0.141483 -1.92425e-21)
(1.03011 0.0803434 0)
(1.01265 0.000166214 0)
(0.921118 0.071295 4.80151e-21)
(1.04499 0.114539 6.48107e-21)
(1.01325 -0.00675103 -1.00706e-22)
(1.01269 0.000915361 -5.0181e-23)
(1.15305 0.0852991 1.65995e-20)
(1.00448 0.000104599 0)
(1.07726 0.246238 -1.88224e-20)
(1.00472 0.0243774 -5.96458e-21)
(1.02499 -0.0506504 1.69989e-21)
(1.02364 0.0324649 -5.99163e-22)
(1.02904 0.00205981 0)
(1.02413 0.00771833 0)
(1.0168 0.0064969 0)
(0.990426 0.00620584 1.70303e-21)
(1.02332 -0.00343234 -1.41089e-21)
(0.943306 0.0612112 -3.40625e-21)
(0.985803 0.182018 0)
(1.01589 -0.00292856 -1.35809e-22)
(1.01696 -0.00557023 3.32555e-21)
(1.01883 1.03331e-05 8.68226e-22)
(1.04432 -0.0164489 -2.7615e-21)
(1.00471 9.09571e-05 0)
(0.816951 -0.20599 -4.59622e-21)
(1.03333 0.00313057 -8.18763e-22)
(1.02033 0.00759554 1.1528e-23)
(0.975432 0.099129 0)
(1.01273 0.000933476 -2.71753e-21)
(1.14536 0.0834245 7.33395e-21)
(0.995735 0.0411213 0)
(1.01479 0.000231219 1.50691e-22)
(1.01549 0.157763 -1.71257e-21)
(1.00829 -0.0072437 -2.03065e-21)
(1.01449 -0.00215837 -5.90352e-21)
(1.01027 -0.00729356 0)
(0.973548 0.0295207 1.43054e-21)
(1.02 0.000571821 2.08098e-23)
(0.751091 0.208858 -4.09426e-21)
(1.03252 0.00795249 -3.19014e-21)
(0.972904 0.0223437 3.30838e-21)
(1.07414 0.0128573 0)
(0.96175 -0.170183 5.34619e-21)
(1.01134 -0.00666799 0)
(1.0016 0.0364709 -1.63598e-22)
(1.01685 0.00288023 -9.96895e-22)
(1.03392 0.00941851 -3.6118e-21)
(1.02713 0.0755039 3.81899e-21)
(1.012 0.000121673 1.00692e-22)
(0.979995 0.0310605 -2.13323e-21)
(1.01704 -0.00297469 -2.95515e-21)
(1.03492 0.00402703 0)
(1.01401 0.00472762 2.82052e-21)
(1.01575 0.000811828 8.11935e-22)
(1.04174 0.0187146 0)
(1.00787 0.0854737 0)
(1.01065 0.000211372 2.00834e-21)
(1.02976 0.00469546 0)
(0.920169 0.0252663 0)
(1.01197 8.69501e-05 -2.23339e-22)
(1.01263 0.000761787 7.53536e-22)
(1.01548 0.00213303 -1.57068e-21)
(1.01291 -0.00134407 0)
(0.999579 0.00269963 0)
(1.0142 0.00953042 1.46688e-21)
(1.01731 0.000497339 0)
(1.00379 -0.0151426 -1.77515e-21)
(0.904748 0.015113 0)
(1.0206 0.00594219 8.60698e-23)
(1.02949 -0.0313689 -4.5904e-22)
(1.09605 0.220184 3.73601e-21)
(1.0153 -0.000153903 -4.82921e-21)
(1.01442 -0.00350673 0)
(1.013 -0.00132238 -1.17945e-21)
(0.858085 0.125524 -4.63873e-22)
(0.885421 0.149793 -9.53508e-22)
(1.04717 0.0321195 -5.51648e-21)
(1.01285 0.00032522 -1.28358e-21)
(0.991349 0.0803997 2.25311e-22)
(0.980092 0.226125 -1.41098e-20)
(0.376161 -0.168347 -2.88325e-20)
(1.00651 -0.00523797 -1.95659e-21)
(0.877746 0.129594 0)
(1.04841 0.207833 -1.37401e-20)
(0.917534 -0.185819 0)
(1.0095 -0.00811522 0)
(1.01572 -0.00462627 0)
(1.01786 -0.00592333 3.02116e-23)
(0.929768 -0.132678 1.60323e-21)
(0.960154 -0.0526043 1.60228e-21)
(1.03297 0.0063092 0)
(0.386677 -0.160267 -5.75492e-20)
(1.00669 -0.0568367 0)
(1.01635 0.145356 -5.03148e-22)
(0.914249 0.221906 1.12958e-20)
(1.0207 -0.00280081 -1.36708e-21)
(1.04785 -0.0418366 0)
(1.05154 0.284547 0)
(1.08054 0.0288969 2.98242e-22)
(0.665506 0.198728 1.09342e-20)
(0.989272 0.00866418 0)
(0.274986 -0.193981 -3.22874e-20)
(1.01795 0.00109282 1.40176e-21)
(1.01402 0.21959 0)
(1.02369 0.00672712 1.28887e-23)
(1.0058 -0.0138709 -2.34576e-21)
(1.01062 0.000206465 0)
(1.00468 0.0319449 2.58777e-21)
(1.01536 -0.00138184 1.21803e-22)
(1.02328 0.00842975 -1.1404e-23)
(1.01595 0.00249372 0)
(0.698393 -0.0502962 1.49489e-20)
(1.01139 -0.00092598 2.69074e-21)
(1.01583 -0.00306176 -2.19191e-23)
(0.783272 0.256913 9.50689e-22)
(1.02283 0.00554536 7.75256e-23)
(1.0586 0.0421177 0)
(1.00493 -0.00517362 4.19217e-21)
(0.94866 0.0506298 1.22219e-21)
(1.01142 -0.000380881 0)
(1.03137 0.0168155 7.50066e-21)
(1.01931 0.00369886 0)
(1.01353 -0.00462018 0)
(1.01833 0.00432262 0)
(1.07592 0.0155618 0)
(1.0131 0.00120854 2.43268e-21)
(0.868957 0.300586 3.68132e-21)
(1.01281 -0.0582618 0)
(1.0752 -0.0197507 2.23258e-22)
(1.01095 -0.000955527 -2.86733e-21)
(0.88855 -0.166858 1.24145e-21)
(1.01289 0.000827285 0)
(1.14056 0.0900099 2.26342e-20)
(0.95027 0.0438459 1.091e-21)
(1.02481 -0.00246257 0)
(1.01844 0.00463605 0)
(1.01239 -0.00100878 0)
(1.0144 -0.00490539 0)
(1.01797 0.000418841 2.51613e-22)
(1.09696 -0.0134286 -9.19066e-22)
(0.986833 -0.0316003 1.23433e-21)
(1.01288 0.00164337 3.54809e-23)
(0.987004 -0.143363 -4.36116e-21)
(1.01032 5.91557e-05 1.94568e-21)
(1.01534 0.000704217 1.2698e-21)
(0.940022 0.239181 -2.33414e-21)
(1.01266 -0.000799831 -2.31691e-21)
(1.01838 0.000633891 3.15942e-22)
(1.01333 -0.122056 0)
(1.01373 0.000878841 1.4443e-21)
(1.02578 -0.0934035 -9.08578e-22)
(1.04004 0.0178515 0)
(0.94252 -0.00531883 0)
(1.06512 0.0381856 2.11678e-21)
(0.993023 -0.028822 0)
(1.00818 0.0221806 2.93282e-21)
(1.0187 0.00514403 0)
(0.30834 -0.367598 3.40757e-20)
(0.228242 -0.356483 -7.19872e-20)
(1.01549 0.0023413 -1.76668e-21)
(0.982796 0.0221686 -3.99e-21)
(1.1804 0.140361 -1.57152e-21)
(0.880167 0.321085 0)
(0.943912 0.168052 0)
(1.00729 -2.43305e-05 -3.56113e-22)
(1.01288 0.00195635 3.26915e-21)
(1.01609 0.00402361 1.18128e-21)
(1.02102 0.00838236 3.61884e-22)
(1.01059 -0.0073573 0)
(1.02128 0.116134 9.34114e-22)
(1.06552 0.0130852 4.14626e-22)
(1.01243 -0.000932491 1.28128e-21)
(1.09828 0.0428155 0)
(1.00042 -0.163361 5.99022e-22)
(0.897396 0.190897 -9.7456e-22)
(1.01227 -0.000757741 1.10488e-21)
(1.0129 -0.00111333 -9.25223e-22)
(1.00846 -0.000113047 0)
(1.02918 0.00809457 2.13969e-21)
(0.809449 -0.149768 1.39327e-20)
(0.918771 -0.118577 0)
(1.01461 0.00194195 1.16161e-21)
(1.06964 0.0207711 0)
(0.973908 -0.107776 0)
(1.01734 0.00649309 -1.49472e-21)
(1.01386 0.000440233 -1.01617e-21)
(0.64057 -0.0292719 -1.92754e-21)
(1.0104 0.00894243 5.82578e-22)
(1.04236 0.0818307 5.95465e-22)
(1.01343 -0.00718602 0)
(1.01134 0.00013984 -4.01112e-21)
(1.02989 0.00335387 5.00452e-22)
(1.01358 0.00829401 -3.57164e-21)
(0.970708 -0.0606459 4.55403e-21)
(1.07143 0.0298377 -2.48611e-21)
(1.01642 0.00592744 -2.88349e-21)
(0.949234 -0.240632 -9.62713e-21)
(1.0626 -0.0621043 3.18471e-21)
(0.922712 -0.152563 -1.37842e-21)
(1.04655 0.0303889 1.49953e-20)
(1.01151 0.00961789 0)
(0.577215 -0.0694335 1.95496e-21)
(1.10513 0.0485059 0)
(0.924502 0.175212 0)
(1.09855 0.0269106 0)
(1.02066 0.00658722 -2.56845e-22)
(1.01306 0.00361355 4.42024e-22)
(0.93848 -0.163684 -2.32814e-21)
(1.13836 0.0631004 -1.97193e-22)
(1.014 0.0107722 -4.21452e-21)
(1.06658 0.0204928 -2.28936e-21)
(1.11341 0.0524998 2.93131e-20)
(1.01776 -0.00337721 0)
(1.06089 -0.0257203 2.53378e-21)
(1.01476 0.011291 3.96327e-21)
(1.01468 -0.00309743 0)
(1.00763 -2.75795e-05 -2.58929e-21)
(1.10308 0.043028 0)
(1.01495 -0.00224334 -2.97095e-21)