/*--------------------------------*- C++ -*----------------------------------*\
| =========                 |                                                 |
| \\      /  F ield         | OpenFOAM: The Open Source CFD Toolbox           |
|  \\    /   O peration     | Version:  v2012                                 |
|   \\  /    A nd           | Website:  www.openfoam.com                      |
|    \\/     M anipulation  |                                                 |
\*---------------------------------------------------------------------------*/
FoamFile
{
    version     2.0;
    format      ascii;
    class       surfaceVectorField;
    location    "850";
    object      Uf;
}
// * * * * * * * * * * * * * * * * * * * * * * * * * * * * * * * * * * * * * //

dimensions      [0 1 -1 0 0 0 0];


internalField   nonuniform List<vector> 
14885
(
(0.978425 -0.011875 -1.12107e-21)
(0.980663 -0.00648876 -4.07721e-21)
(0.972236 -0.00877989 9.35372e-22)
(0.898978 -0.245736 4.58658e-21)
(0.897638 -0.236411 -7.11067e-23)
(0.888217 -0.245263 4.07991e-21)
(1.0636 -0.0357916 -2.46692e-21)
(1.06181 -0.0423009 -4.05755e-21)
(1.05431 -0.0364821 2.39754e-21)
(1.01708 0.00183246 9.04244e-23)
(1.01722 0.00197537 1.72163e-22)
(1.01727 0.00185604 1.59707e-22)
(1.0133 0.000543022 -9.61974e-22)
(1.01299 0.000407617 -6.00796e-22)
(1.01337 0.000588901 8.66785e-22)
(0.770126 -0.062865 6.88812e-22)
(0.762048 -0.011703 6.95906e-22)
(0.768959 -0.0679385 4.30503e-21)
(0.967181 0.208074 5.16014e-21)
(0.977012 0.220136 4.5605e-21)
(0.981132 0.201732 6.36451e-21)
(0.960061 0.0840977 -2.12902e-21)
(0.93655 0.0912317 -1.51346e-20)
(0.950431 0.126182 -4.25707e-21)
(1.01297 0.000275748 8.11003e-23)
(1.01318 0.000351992 2.76888e-22)
(1.01315 0.000264529 -6.6322e-22)
(0.956312 0.0484574 -2.51772e-21)
(0.956104 0.0539365 -6.2465e-22)
(0.949765 0.04938 -3.35468e-23)
(1.01095 -0.089322 1.733e-22)
(1.0209 -0.0916605 -5.35897e-21)
(1.02079 -0.0789081 1.29716e-22)
(0.903641 -0.252442 0)
(0.907669 -0.241998 0)
(1.07377 0.0650675 -5.14189e-21)
(1.07835 0.0651852 -4.69406e-21)
(1.07577 0.0604943 1.16172e-21)
(1.01861 0.00400287 0)
(1.01842 0.00332246 0)
(1.0193 0.00377919 0)
(1.03096 0.00279498 6.7546e-22)
(1.03167 0.00262058 9.92348e-22)
(1.03154 0.00333246 -3.61767e-22)
(1.01861 0.00476257 0)
(1.01798 0.00421435 0)
(0.790761 -0.154278 2.28891e-21)
(0.804592 -0.160829 7.18636e-21)
(0.80532 -0.190254 -6.09991e-21)
(1.00208 -0.0860874 -1.40763e-22)
(0.99959 -0.0996705 -1.24357e-21)
(1.05472 0.0194758 -4.36318e-21)
(1.05701 0.0190884 -4.99607e-21)
(1.05651 0.0216011 3.38027e-22)
(1.00936 -0.00843576 -1.81096e-21)
(1.00661 -0.00813188 9.90519e-22)
(1.00849 -0.0112242 1.52426e-21)
(1.0691 0.0646151 0)
(1.07113 0.0696294 1.24087e-21)
(0.976214 -0.0177065 0)
(0.984123 -0.0149293 -1.18851e-21)
(1.01695 0.00167179 -3.09174e-22)
(1.01687 0.00178957 2.42689e-22)
(0.944938 0.253683 0)
(0.944926 0.246962 1.14377e-21)
(0.941617 0.24861 0)
(1.01533 0.00296354 -6.76905e-22)
(1.01542 0.00288582 0)
(1.01519 0.00278109 -9.44108e-22)
(1.00817 -0.000194273 1.55363e-22)
(1.00911 -0.000143545 4.87028e-22)
(1.00994 -0.000178976 -5.93041e-22)
(0.962722 0.0464402 1.11929e-21)
(0.957159 0.0415463 -1.333e-21)
(1.01197 0.000125273 -4.433e-22)
(1.01205 0.000154582 3.21349e-22)
(1.01196 0.000132213 4.70537e-23)
(0.776647 -0.11349 6.7662e-21)
(0.78146 -0.0565985 -1.60096e-21)
(0.956662 0.258756 7.78372e-21)
(0.960764 0.254346 -1.24417e-20)
(0.948384 0.258882 4.23615e-21)
(1.01048 0.000200966 1.68384e-21)
(1.00901 3.86033e-05 -4.36282e-22)
(1.00887 8.18625e-05 1.01264e-21)
(1.1221 0.0365563 -9.52957e-21)
(1.1224 0.0408759 1.06094e-20)
(1.12687 0.0376756 1.42519e-20)
(1.01268 0.00028836 -1.72588e-21)
(1.01282 0.00027308 8.94683e-24)
(1.01285 0.000345548 1.44996e-22)
(1.01256 0.000270221 -1.7906e-21)
(1.01254 0.000239975 1.7309e-22)
(0.983389 0.0772637 -9.11747e-21)
(0.969699 0.03799 1.92877e-20)
(0.904469 0.000334415 -5.50082e-21)
(0.88234 0.000982931 5.48396e-21)
(0.891248 -0.0430662 5.91759e-22)
(1.01801 0.000308572 -1.48138e-23)
(1.01869 0.00051498 -1.84598e-22)
(1.01903 0.000573682 -2.27513e-22)
(1.01224 0.000247756 1.44604e-21)
(1.01218 0.000286419 -3.5847e-24)
(1.01214 0.000253287 -2.66345e-22)
(1.01161 0.000286806 1.12165e-21)
(1.01144 0.000206333 -5.68757e-22)
(1.01178 -0.00547248 -5.13007e-23)
(1.01264 -0.00553889 4.70256e-22)
(1.01213 -0.00441924 1.94713e-22)
(0.950021 0.257207 7.87701e-21)
(0.959636 0.254673 6.07211e-22)
(1.01278 0.000227209 1.84316e-21)
(1.14826 0.178301 6.16567e-21)
(1.14528 0.167274 3.86682e-21)
(1.15924 0.169047 -4.68355e-21)
(0.905047 -0.194711 2.73813e-22)
(0.897402 -0.187824 -8.21679e-22)
(0.908791 -0.196316 -2.11863e-21)
(1.01636 0.00259801 1.33661e-22)
(1.0162 0.00248193 -1.3411e-21)
(1.01629 0.00245913 -8.70172e-22)
(1.01527 0.00301394 2.15151e-22)
(1.01548 0.00308332 -5.67385e-22)
(1.012 -0.000502298 1.23355e-22)
(1.01197 -0.000443063 1.1442e-23)
(1.01201 -0.00046049 6.74126e-22)
(1.03018 0.00239199 -1.16033e-21)
(1.03012 0.00308681 -7.65073e-22)
(0.985623 0.101659 0)
(0.988891 0.10814 0)
(0.99294 0.100743 0)
(1.12359 0.287464 -6.8118e-22)
(1.13102 0.310618 1.24118e-20)
(1.15047 0.289369 -2.74952e-20)
(1.15811 0.192208 -3.52126e-22)
(1.13753 0.188682 3.42937e-21)
(1.01489 0.00116374 -3.12377e-22)
(1.01502 0.00112964 3.91095e-22)
(1.01495 0.00127225 -7.54605e-22)
(0.784421 -0.148083 5.07577e-21)
(1.05261 0.0199872 2.59038e-21)
(1.053 0.0178924 2.93162e-21)
(0.706136 0.279022 -8.59464e-21)
(0.716941 0.263599 -1.8354e-20)
(0.696621 0.267582 1.94988e-21)
(0.211457 -0.30572 7.92827e-21)
(0.200288 -0.293668 6.43728e-21)
(0.219245 -0.277185 5.24505e-21)
(1.06469 0.0638874 0)
(1.06719 0.0601482 -5.06894e-21)
(1.02599 -0.0451043 5.5288e-22)
(1.01781 -0.0516107 1.37673e-22)
(1.0249 -0.0519986 1.40535e-21)
(1.02609 0.00955811 0)
(1.0264 0.0101844 0)
(1.02559 0.0099598 9.67638e-22)
(1.01567 -0.00187672 1.39303e-24)
(1.01567 -0.00166632 4.37528e-23)
(1.01584 -0.00179867 -1.59742e-23)
(0.982188 0.0950236 0)
(0.976904 0.102333 1.06719e-21)
(0.785413 0.206659 2.17461e-21)
(0.76849 0.228066 -7.63054e-21)
(0.794865 0.214336 2.34096e-21)
(1.13489 0.159715 3.67335e-21)
(1.14467 0.152561 2.11431e-20)
(1.02255 0.123889 -1.50683e-21)
(1.00311 0.13473 3.6138e-21)
(1.00845 0.154249 2.67204e-21)
(1.07745 -0.0137518 1.93707e-21)
(1.07465 -0.0238782 -1.54196e-22)
(1.07921 -0.0172813 4.70925e-22)
(1.01578 0.00676987 1.37675e-22)
(1.01635 0.00706492 -8.08953e-23)
(1.01573 0.00739485 -1.72384e-22)
(1.01394 -0.00809549 1.92546e-21)
(1.0118 -0.00831903 -1.83421e-21)
(1.0138 -0.0106065 1.27011e-21)
(0.962011 0.0148784 0)
(0.95476 0.0196702 0)
(0.965265 0.0219043 -8.28731e-22)
(1.01221 -0.000789966 -1.17721e-22)
(1.01215 -0.000726643 -9.99596e-23)
(1.0122 -0.000819094 1.1528e-21)
(0.967425 0.0108596 0)
(0.959604 0.00773037 -8.45223e-22)
(1.16661 0.204798 -4.10427e-21)
(1.18004 0.220789 0)
(1.15283 0.21743 0)
(1.01371 0.0101823 0)
(1.01316 0.00912071 0)
(1.01425 0.00906022 -8.49726e-23)
(1.01265 0.000693594 8.55787e-22)
(1.01267 0.000866494 -2.97377e-23)
(1.01268 0.000798648 3.92761e-23)
(1.02654 0.00908382 6.86549e-23)
(1.02578 0.00893946 3.07431e-22)
(1.01574 0.0062568 1.80275e-22)
(1.0152 0.0064311 1.1584e-21)
(1.17854 0.19309 -2.8066e-21)
(1.03198 -0.0521724 -9.90105e-22)
(1.03634 -0.0444288 0)
(1.03777 -0.0506933 0)
(1.01202 -0.000572648 -8.02669e-22)
(1.01206 -0.000570151 4.79804e-25)
(1.02707 -0.0522675 -2.48219e-21)
(1.0223 -0.0596319 -1.83172e-21)
(1.05748 0.0168935 -2.6647e-21)
(1.05945 0.0189379 6.28842e-21)
(0.910554 -0.200003 1.42191e-21)
(0.901183 -0.195323 3.15055e-22)
(0.941307 0.258797 -6.73068e-21)
(1.00492 0.000109222 4.1636e-22)
(1.00856 0.000194062 1.39547e-21)
(1.00468 8.32554e-05 1.292e-21)
(1.0139 0.000868574 1.86173e-22)
(1.01379 0.000893448 9.59536e-22)
(1.01384 0.000985051 -8.37355e-22)
(0.974764 0.00878336 3.66966e-22)
(0.971211 0.00519885 -9.16578e-22)
(0.969293 0.0107771 -9.44563e-22)
(0.94948 0.136199 -3.41153e-21)
(0.955502 0.128904 -8.92831e-22)
(0.957178 0.139717 3.78233e-22)
(1.01417 -0.00608544 2.33068e-21)
(1.01595 -0.00762006 -1.92045e-23)
(1.06319 -0.0289114 -4.82988e-21)
(1.07275 -0.0342157 -3.13442e-21)
(1.01271 -0.000542758 1.33288e-21)
(1.01285 -0.00035386 -8.50927e-23)
(1.01298 -0.00073518 1.47476e-21)
(1.05423 -0.0398776 0)
(1.06029 -0.0367485 0)
(1.05748 -0.0321542 9.80802e-22)
(1.06645 0.0430673 -9.22629e-21)
(1.06766 0.0465539 -4.00418e-21)
(1.07025 0.0430418 -1.24464e-20)
(1.03188 0.00194572 6.03699e-22)
(1.03255 0.002449 -6.62029e-24)
(1.12768 0.149627 -2.21717e-20)
(1.12447 0.163642 2.78835e-21)
(0.939617 0.131964 8.43411e-22)
(0.941323 0.144815 5.73579e-22)
(1.07844 0.0169409 0)
(1.08408 0.0108814 0)
(1.08532 0.0201571 -7.4151e-24)
(1.01846 0.00491369 -2.74044e-22)
(1.01845 0.00499194 -4.35794e-22)
(1.01837 0.00478277 -4.98217e-22)
(-0.0614531 -0.257476 4.73419e-20)
(-0.0558859 -0.272886 8.465e-20)
(1.01018 -0.00607215 -3.83093e-21)
(0.95045 -0.200113 8.07899e-22)
(0.948278 -0.209523 -6.29715e-24)
(0.957458 -0.205327 2.55668e-21)
(1.02689 0.00865691 8.75905e-22)
(1.02724 0.00816621 8.63132e-22)
(1.0265 0.00808836 1.50786e-21)
(1.06502 0.0402714 3.35538e-21)
(1.06307 0.0431951 -1.9293e-22)
(0.930308 0.0640918 2.68117e-22)
(0.925039 0.0690607 3.53991e-21)
(0.934634 0.0718894 -3.08586e-22)
(1.01882 0.00980189 -9.54538e-23)
(1.01829 0.00936176 2.45701e-23)
(1.01872 0.00908522 3.5247e-23)
(1.11285 0.031707 3.9878e-21)
(1.10968 0.0292516 -2.07324e-20)
(1.05246 0.0303814 1.1878e-21)
(1.05126 0.0324175 -5.34953e-21)
(1.05415 0.0325017 -5.09294e-21)
(1.02016 0.00861125 -3.75431e-23)
(1.02028 0.00822752 1.14543e-22)
(1.01986 0.00814002 1.17793e-22)
(0.513683 0.11544 4.95039e-20)
(0.42419 0.0333634 3.77507e-20)
(0.486172 0.0727166 -3.12565e-20)
(1.01567 0.0057214 1.54394e-21)
(1.0162 0.00593972 -2.6228e-21)
(0.960481 0.196292 -2.44469e-21)
(0.954548 0.21257 -1.51176e-21)
(1.02052 0.00911763 -3.56915e-22)
(1.01999 0.00907861 -1.14855e-22)
(1.02431 0.00868615 -7.35916e-22)
(1.02459 0.00926917 -7.48038e-23)
(1.02506 0.00878441 -3.30457e-22)
(0.953834 0.184577 2.9274e-21)
(0.966035 0.181519 -5.62706e-23)
(0.9377 0.057986 -1.40446e-21)
(0.927682 0.0538865 4.86032e-21)
(1.03905 0.112052 2.18058e-21)
(1.03548 0.088638 -3.03882e-21)
(1.07752 -0.00521151 -4.23102e-22)
(1.07288 -0.0116457 -4.13065e-22)
(1.01256 -0.00118165 5.09673e-24)
(1.01245 -0.00107588 -1.46856e-22)
(1.01254 -0.00118891 -1.49315e-22)
(0.989613 0.0377798 2.28206e-21)
(0.993704 0.0354794 -9.99847e-22)
(0.992367 0.0422322 8.94841e-22)
(1.00934 0.000240294 -8.80561e-22)
(1.01041 0.000197417 1.03247e-21)
(1.01133 0.000171444 2.85691e-22)
(1.03296 -0.0392726 0)
(1.02733 -0.0401546 0)
(1.01283 -0.00140911 -5.46113e-22)
(1.01287 -0.00139965 2.28478e-23)
(1.013 -0.00153515 1.03876e-22)
(1.01566 -0.00205559 1.33951e-24)
(1.01549 -0.00192261 2.35792e-25)
(0.92917 -0.25623 1.41564e-20)
(0.920878 -0.255711 1.05106e-22)
(0.921376 -0.260034 1.53534e-20)
(0.934365 -0.250679 3.73722e-21)
(0.942369 -0.248775 0)
(1.01652 0.00272025 5.39889e-22)
(1.01643 0.00273268 9.2129e-22)
(1.04973 -0.0423647 0)
(1.04832 -0.0482525 1.26845e-21)
(1.01226 -0.000999126 -1.33836e-21)
(1.01254 -0.000734892 4.48443e-23)
(1.01262 -0.00125401 -1.42362e-22)
(1.01198 -0.00116334 -2.8108e-21)
(1.01196 -0.000624113 6.14059e-23)
(0.714333 0.285181 -9.80574e-21)
(0.706044 0.28687 -1.09173e-20)
(1.19386 0.107965 -3.08485e-21)
(1.20465 0.111687 2.51137e-20)
(1.19989 0.101066 3.94425e-20)
(0.984347 0.0396157 -3.0889e-21)
(0.987524 0.0332366 -3.12721e-21)
(1.01292 -8.57795e-05 1.15914e-22)
(1.01278 -2.63445e-05 1.11913e-22)
(1.01292 -6.88113e-05 -2.60018e-23)
(1.01418 0.00462505 -8.64561e-22)
(1.01403 0.00494174 -1.39411e-21)
(1.01451 0.00498751 1.07554e-21)
(1.01166 -0.00321529 -1.35809e-21)
(1.01235 -0.00332514 -1.10103e-21)
(1.01205 -0.00414158 3.34991e-22)
(1.01689 0.00490193 5.34366e-22)
(1.01653 0.00468877 6.44689e-22)
(1.01652 0.00499912 -2.71858e-22)
(0.947718 0.174164 1.29784e-21)
(0.944257 0.188563 5.07068e-21)
(1.09388 0.236983 -2.0296e-20)
(1.11096 0.243673 -6.49813e-21)
(1.10607 0.22431 -2.23152e-20)
(1.02158 -0.00914414 0)
(1.01994 -0.0102432 7.86986e-23)
(1.0224 -0.0112933 -1.75453e-21)
(0.429185 0.100612 6.67357e-21)
(0.494745 0.169146 3.72501e-21)
(1.03766 0.0185753 0)
(1.03827 0.0200283 -3.1516e-21)
(1.03925 0.0183703 0)
(0.952689 -0.189506 -2.10274e-22)
(0.942922 -0.192102 7.39981e-23)
(1.10342 0.125369 2.48226e-22)
(1.11196 0.125249 -2.23212e-21)
(1.10691 0.116365 -2.66502e-21)
(1.01128 0.000101813 1.80877e-23)
(1.0115 8.70787e-05 8.83126e-22)
(1.0117 6.84151e-05 -1.37487e-22)
(0.630937 0.211152 1.92742e-20)
(0.539642 0.162583 -2.10518e-20)
(1.01199 0.000120204 -1.33018e-21)
(1.01195 0.000105309 -1.23815e-21)
(1.01866 0.0413409 -4.13542e-22)
(1.02085 0.0393374 0)
(1.02134 0.042718 2.41322e-21)
(1.0123 0.000212212 2.20266e-21)
(1.01234 0.000241398 2.28456e-21)
(0.977698 0.011673 -1.45504e-21)
(0.979364 0.0069763 6.94627e-22)
(1.01226 -0.000782016 5.22099e-22)
(1.0123 -0.000885735 0)
(1.01588 0.00434765 3.89304e-22)
(1.01533 0.00495269 0)
(1.01537 0.00396286 0)
(0.846624 0.240105 4.98918e-21)
(0.84831 0.2408 -6.36811e-22)
(0.858881 0.257673 7.88637e-22)
(1.0156 0.00524596 -5.91143e-22)
(1.0152 0.0055238 -2.62238e-21)
(1.00982 9.71965e-05 2.64377e-22)
(1.01079 4.40478e-05 -1.14591e-21)
(1.01035 7.20927e-05 -8.23937e-22)
(1.04028 0.0227364 3.35396e-21)
(1.03922 0.0215157 -1.18791e-21)
(1.04104 0.0210067 1.38972e-21)
(1.08429 0.0731905 2.32987e-21)
(1.08787 0.0763036 1.06134e-20)
(1.0885 0.0707697 -1.05617e-20)
(1.07178 0.0205415 4.54725e-22)
(1.07059 0.013275 -5.81136e-22)
(1.01631 0.0403406 -7.67637e-22)
(1.01706 0.0436352 -3.25934e-21)
(1.18508 0.103753 -3.0446e-20)
(1.1875 0.114482 -2.21104e-20)
(0.237175 -0.3088 6.99078e-21)
(0.218874 -0.327449 -1.209e-20)
(1.01086 -0.00315405 2.1776e-21)
(1.01138 -0.00243684 2.82985e-22)
(1.00734 -0.000191204 2.10612e-22)
(1.006 -0.000227163 0)
(1.013 0.000450746 -1.8215e-21)
(1.01186 0.00033852 -8.08459e-22)
(1.01166 0.000317816 8.86493e-22)
(1.01084 -0.00538441 1.61102e-22)
(1.01153 -0.00654347 -5.81519e-23)
(1.07904 0.229725 -8.93016e-21)
(1.07911 0.249015 1.07127e-21)
(1.01243 -0.000285615 1.38459e-21)
(1.03499 0.0157305 -8.97876e-23)
(1.03636 0.0158479 -5.41237e-22)
(1.03563 0.0145516 -2.86619e-21)
(0.827088 0.209407 -2.24026e-21)
(0.847671 0.226099 1.14438e-20)
(1.01266 0.000532505 1.56263e-21)
(1.01265 0.000541714 -2.74774e-22)
(1.11746 0.0347677 3.02013e-21)
(1.11267 0.036755 1.4497e-20)
(0.919679 0.0456527 8.5427e-21)
(0.930073 -0.000979744 -5.01647e-21)
(1.01242 0.000260729 -8.26766e-22)
(1.01231 0.000239501 0)
(1.01232 0.000215974 -6.60807e-22)
(1.06188 0.038187 -1.70681e-21)
(1.07034 0.0369759 -9.81371e-22)
(1.06745 0.0457488 -5.75705e-22)
(0.959628 0.242224 -2.42321e-20)
(0.971852 0.245359 -1.82806e-20)
(0.967242 -0.226284 -1.90128e-21)
(0.986006 -0.197134 9.46327e-21)
(0.980634 -0.204683 -1.83158e-21)
(1.01255 0.00031348 -3.11541e-23)
(1.05194 0.0221078 1.8404e-21)
(1.05054 0.0204073 -9.35919e-22)
(0.95441 -0.239498 0)
(0.954134 -0.237164 -9.34148e-21)
(1.01592 0.00299832 2.62038e-22)
(1.01605 0.00304401 8.63558e-22)
(1.01591 0.0028932 -3.06617e-22)
(1.01237 0.000163041 6.98492e-22)
(1.01226 0.000177681 8.21668e-22)
(1.01391 0.00427988 2.11333e-21)
(1.01428 0.00436144 6.34553e-22)
(1.0121 -0.000698514 1.03e-21)
(1.0121 -0.000661955 -3.27111e-23)
(1.03697 0.0171123 2.29884e-21)
(1.03604 0.0185236 9.9468e-23)
(1.04439 0.0353423 -2.55502e-21)
(1.04328 0.037271 8.07844e-21)
(1.04625 0.03681 6.20694e-23)
(1.02731 0.00924035 -9.91675e-22)
(1.0127 -0.00115892 0)
(1.01266 -0.00116535 -1.50341e-22)
(1.01258 -0.00105483 -6.26286e-22)
(0.96304 0.0159001 2.68425e-21)
(0.963308 0.0252658 -2.82969e-22)
(0.953495 0.0210167 1.05815e-22)
(1.07867 0.0349977 -1.72991e-21)
(1.08001 0.031966 -1.15971e-20)
(1.08198 0.0359723 -1.32675e-20)
(1.01434 0.0110426 0)
(1.01314 0.0112794 1.19761e-23)
(1.01572 -0.00142539 3.62419e-24)
(1.01563 -0.00152768 -2.64485e-23)
(1.01556 -0.00134458 2.75754e-23)
(1.18577 0.260608 8.90906e-21)
(1.17335 0.281129 1.24402e-20)
(1.12679 0.249329 3.25302e-20)
(1.01096 0.000156766 -4.502e-22)
(1.01196 0.000111226 5.31234e-22)
(1.01148 0.000133787 2.19318e-22)
(0.902785 -0.226536 -8.80339e-21)
(1.06187 0.0679744 -5.76758e-21)
(1.06044 0.0633904 -5.28847e-21)
(1.01309 -0.000158871 0)
(1.01293 -9.20059e-05 -1.17044e-21)
(1.04569 0.0330664 -5.15674e-21)
(1.04287 0.0337163 -2.4644e-21)
(0.723616 0.279327 -9.83144e-21)
(0.708521 0.286527 1.14257e-20)
(0.709691 0.294567 -5.74355e-22)
(1.03141 0.00150652 -1.29665e-22)
(1.03222 0.00134236 5.34559e-22)
(1.03282 0.0326276 -1.00468e-20)
(0.949805 0.0229605 2.67712e-20)
(1.07691 0.046665 0)
(1.03892 0.0492031 -1.34232e-21)
(1.04614 0.0506766 9.10214e-22)
(1.0406 0.0572849 1.16056e-21)
(-0.0262487 -0.217452 -1.505e-20)
(0.0125154 -0.197293 -1.55739e-21)
(0.0102329 -0.218483 0)
(1.01397 0.000788677 -1.1255e-21)
(1.01401 0.000863114 9.54831e-22)
(1.21987 0.115987 -2.68979e-21)
(1.23853 0.118252 8.62056e-21)
(1.22363 0.106654 2.01443e-20)
(1.12248 0.141188 -7.28478e-21)
(1.11668 0.132288 7.71815e-21)
(1.11326 0.143216 8.34603e-21)
(1.00861 0.105978 1.42111e-22)
(1.01802 0.10135 1.63564e-21)
(1.00874 0.0960707 4.68791e-22)
(1.01154 -2.83427e-05 3.42892e-23)
(1.01113 -4.77577e-05 -3.16195e-22)
(1.01141 -3.77296e-05 1.38411e-21)
(0.944483 -0.217257 -2.6477e-21)
(0.939924 -0.210563 -1.77828e-21)
(1.01294 -0.00337721 2.285e-23)
(1.01261 -0.00271543 6.23199e-22)
(0.932256 0.229224 -2.1116e-21)
(0.925477 0.2331 -2.75031e-21)
(0.922474 0.223117 2.66597e-21)
(1.08071 0.0688707 0)
(1.07924 0.0746362 0)
(1.02405 0.00803923 5.55671e-24)
(1.02365 0.00844753 1.33551e-24)
(1.01716 0.00513616 0)
(1.01715 0.00482576 0)
(1.12214 0.0315384 -4.81345e-21)
(1.01174 -5.60418e-05 -9.7194e-22)
(1.01164 -5.6935e-05 3.19842e-22)
(1.00918 0.116032 -1.98324e-21)
(0.998577 0.109499 -3.01687e-22)
(1.02638 0.0969505 2.16531e-22)
(1.02522 0.0879118 -5.30208e-22)
(1.03508 0.0916708 -7.01514e-22)
(1.0173 0.000400603 -2.871e-22)
(1.01812 0.0005962 1.16457e-23)
(1.01695 0.000402911 -2.01548e-22)
(0.974314 0.0106803 -1.72201e-22)
(0.976607 0.0158705 -1.4252e-21)
(0.979958 0.0096669 3.38774e-21)
(1.01147 -0.000108627 0)
(1.01133 -0.000142939 -3.58621e-22)
(1.01169 -0.000138605 0)
(1.10131 0.00854948 0)
(1.09485 -0.0147896 -4.7112e-22)
(1.07579 -0.0452857 1.88226e-21)
(1.01644 0.000880911 -3.42223e-22)
(1.0164 0.000916716 -4.66382e-22)
(1.01655 0.000980933 -4.88685e-22)
(1.21245 0.125157 -2.10247e-21)
(0.685411 -0.0376865 3.22275e-20)
(0.655557 -0.0413586 9.6758e-21)
(0.80582 -0.011967 -3.53943e-21)
(1.0539 0.0380438 -1.02205e-21)
(1.05604 0.0317716 1.82603e-21)
(0.544261 -0.0775256 -1.79919e-20)
(0.692598 -0.0385509 -4.63241e-20)
(0.973519 0.0057508 -2.76536e-21)
(1.01737 0.0020826 0)
(1.01721 0.00206284 0)
(1.1314 0.136852 -2.41891e-20)
(1.01715 0.00476382 -4.83527e-22)
(1.0173 0.00412742 3.1177e-22)
(1.01751 0.00445355 9.64655e-23)
(1.02298 -0.00792445 9.96097e-22)
(1.02093 -0.00746866 -6.0442e-22)
(0.969747 0.0375622 -8.01159e-22)
(0.9693 0.0435365 -7.97682e-22)
(0.975108 0.0412377 -1.75884e-21)
(1.01921 0.0101765 -2.05604e-22)
(1.01873 0.0104235 -6.4714e-23)
(1.01245 0.000115814 -1.87359e-21)
(1.01248 0.000138258 2.29687e-24)
(1.01196 -0.00160013 -6.05218e-22)
(1.01162 -0.00111976 -1.17188e-21)
(1.0757 0.0340792 1.12685e-20)
(1.07725 0.0380386 4.95484e-21)
(1.00855 0.000129101 -6.85649e-22)
(1.00675 0.000178012 -4.78945e-22)
(1.01578 0.0029546 0)
(1.01595 0.00310997 -1.73415e-21)
(0.912982 0.093871 5.38398e-21)
(1.02587 -0.00393021 5.15744e-22)
(1.02519 -0.00522855 6.91921e-22)
(1.02727 -0.00500243 -1.25088e-22)
(-0.0505636 -0.238226 -5.08419e-20)
(-0.0401518 -0.262996 -2.09349e-20)
(1.02097 0.0370755 1.29629e-21)
(1.02345 0.0381549 0)
(0.951218 0.241839 4.51808e-21)
(0.94413 0.240865 1.42246e-21)
(1.13548 0.0962352 3.95482e-21)
(1.13602 0.122917 1.67193e-21)
(1.13114 0.128556 5.59512e-21)
(1.05304 0.118769 0)
(1.04974 0.0874467 2.8382e-21)
(1.04243 0.125973 -3.13171e-21)
(1.01567 -0.00223901 -7.24724e-23)
(1.01585 -0.00219284 0)
(1.00977 -0.0052824 -4.40608e-22)
(1.01035 -0.00409961 1.4341e-22)
(0.679534 0.212063 -5.67971e-21)
(0.690105 0.16954 8.39038e-21)
(0.696176 0.204502 -9.1847e-21)
(1.01328 0.000543747 -2.1747e-22)
(1.01347 0.000584048 1.02829e-21)
(1.05541 0.142226 0)
(1.06239 0.111046 0)
(1.02146 0.0342753 2.144e-21)
(1.01901 0.0349163 1.55021e-21)
(1.04159 0.0235654 2.81402e-21)
(1.03977 0.0240013 5.51315e-21)
(1.0121 0.000300048 -9.86453e-22)
(1.01262 0.000342761 6.38177e-22)
(1.05388 0.0280985 9.96224e-21)
(1.05093 0.0282003 2.07285e-21)
(1.01326 -0.000240137 -1.06439e-21)
(1.01326 -0.00020427 -1.07158e-21)
(0.885501 0.0336112 -9.35872e-22)
(0.865229 0.0334357 -8.81606e-22)
(0.876023 0.0473002 -3.97786e-21)
(0.696312 0.202879 -9.94057e-21)
(0.717705 0.200509 6.96756e-21)
(0.701691 0.224018 2.29154e-21)
(1.0164 0.00480663 5.64638e-23)
(1.01645 0.00399342 -2.66734e-23)
(1.0264 -0.00264631 -3.1758e-22)
(1.0247 -0.00308016 -6.18836e-22)
(1.0105 7.20823e-05 -1.36439e-21)
(1.00962 0.000134468 -4.3256e-22)
(1.01781 0.00231641 1.64292e-22)
(1.01778 0.0016206 3.32534e-23)
(1.01722 0.00239398 -7.25422e-22)
(-0.0355189 -0.29077 3.05394e-20)
(-0.051204 -0.274743 2.29395e-20)
(1.01592 0.00109494 -4.98779e-22)
(1.01597 0.00119844 -5.20992e-22)
(1.01608 0.00104659 2.23324e-22)
(1.06503 -0.0333223 4.75782e-22)
(1.05759 -0.04357 4.15901e-23)
(1.01235 0.000451443 -1.17804e-21)
(1.0124 0.00050486 0)
(1.01232 0.000484238 7.14294e-23)
(1.01477 0.00121405 -8.46007e-22)
(1.01481 0.00108503 0)
(1.01192 -0.000384506 8.5149e-23)
(1.01192 -0.000441362 -5.08068e-22)
(1.08281 0.0639753 8.5705e-21)
(0.674154 0.198217 -6.35272e-21)
(0.686905 0.183007 -7.11904e-21)
(1.07001 -0.0290815 -8.83308e-22)
(1.06792 -0.0246837 1.44603e-21)
(0.905112 0.0335417 -1.79944e-21)
(0.896035 0.023624 4.90722e-22)
(1.0052 -7.63067e-05 -1.02957e-22)
(1.00375 -8.52814e-05 -6.03281e-22)
(1.00736 -9.03989e-05 1.152e-21)
(1.01226 -0.00207916 1.92985e-21)
(1.01167 -0.00204176 1.65306e-21)
(1.02259 0.0015216 -3.73567e-22)
(1.02228 0.00159214 -8.73745e-24)
(1.02257 0.00178901 -1.59038e-22)
(1.11461 0.262585 1.7186e-20)
(1.09738 0.280071 6.59981e-21)
(1.01837 0.000544234 -1.25895e-21)
(1.01779 0.00048091 2.45801e-22)
(1.01805 0.000870389 -2.61166e-21)
(1.1908 0.236739 0)
(1.20541 0.222699 1.47299e-20)
(1.01833 0.00236611 1.84504e-21)
(1.01788 0.00292122 -5.80747e-23)
(1.04473 -0.0223083 1.38731e-21)
(1.04216 -0.028028 1.01407e-21)
(1.04768 -0.0252641 7.28436e-22)
(1.04416 0.0070395 -6.79108e-22)
(1.04563 0.00662085 3.00161e-21)
(1.04537 0.0082026 2.37211e-21)
(1.01573 0.00246372 1.04105e-21)
(1.01589 0.00256232 -6.18428e-24)
(1.01582 0.00258934 -9.12031e-22)
(1.00704 8.66039e-05 -1.26221e-21)
(1.00388 -5.91573e-05 -5.66569e-23)
(0.747302 0.246751 1.12812e-21)
(1.01212 0.000187871 7.70201e-22)
(1.01213 0.00017494 2.29014e-22)
(1.05624 0.0130522 -1.10385e-20)
(1.04887 -0.0239552 4.43548e-22)
(1.05327 -0.0210588 0)
(1.10951 0.0418368 5.59971e-21)
(0.994524 0.0251791 -2.20938e-20)
(1.04274 0.00761776 1.83703e-21)
(1.04289 0.00630906 -4.12644e-22)
(1.01721 7.40139e-05 -5.27532e-23)
(1.01307 1.54331e-05 -4.98767e-22)
(1.01246 0.000102108 -2.11815e-22)
(0.249677 -0.184136 8.78032e-21)
(0.252162 -0.196814 -1.63561e-20)
(0.175754 -0.220236 -1.76894e-20)
(0.977952 0.0230209 0)
(0.977708 0.0178528 1.8807e-21)
(0.972792 0.0223146 -1.55818e-22)
(1.01191 -0.000339151 4.6311e-23)
(1.01195 -0.00043626 7.88303e-22)
(1.01194 -0.000372114 8.65445e-22)
(0.988327 -0.0255805 2.37763e-21)
(0.981762 -0.0246753 1.20817e-21)
(0.988718 -0.0212981 1.83707e-21)
(1.0094 4.23592e-05 5.82222e-22)
(1.00863 9.38776e-05 2.29076e-21)
(1.05254 0.0615408 4.592e-21)
(1.05327 0.0658457 4.76117e-21)
(1.05639 0.0625033 3.33921e-21)
(0.986393 0.0096218 0)
(0.989478 0.0116481 0)
(0.985625 0.0133036 -1.78944e-21)
(1.01175 0.000199659 -3.97587e-22)
(1.01594 0.000270786 -2.90661e-22)
(1.01135 0.000223702 -1.64082e-22)
(1.03738 -0.0193494 1.3063e-20)
(1.02684 -0.00137753 1.88199e-20)
(1.03482 0.0259095 7.67602e-21)
(1.066 -0.0361454 -8.63687e-22)
(1.01647 0.00483662 1.49384e-21)
(1.01618 0.00542439 1.53345e-21)
(1.01588 0.00481522 1.33837e-21)
(0.859238 -0.111006 -1.37376e-21)
(0.86771 -0.100276 -1.56791e-21)
(0.891194 -0.105399 4.60812e-21)
(1.0242 -0.00650253 2.66826e-21)
(1.02546 -0.00812577 7.88986e-22)
(1.02257 0.00124737 -9.2697e-23)
(1.02291 0.00144565 2.27685e-22)
(1.01128 -6.57792e-05 -3.56451e-22)
(1.01167 -0.000133987 -9.33597e-22)
(1.03742 0.0215586 -3.24503e-22)
(1.0289 0.10695 1.98071e-21)
(1.01571 -0.00129926 -1.43926e-23)
(1.01587 -0.00146678 0)
(1.11935 0.060057 4.09811e-21)
(1.13416 0.0691069 1.33037e-20)
(0.979202 0.0277842 -1.01491e-21)
(0.98205 0.0228245 -4.29117e-22)
(0.780991 0.197858 0)
(0.803209 0.1903 2.38486e-22)
(1.01899 0.000581628 -1.4025e-22)
(1.01969 0.000707806 -1.30143e-22)
(1.01932 0.00115493 7.62504e-23)
(1.0092 -0.00656973 -9.77993e-23)
(1.00843 -0.00519623 1.66549e-22)
(0.829943 -0.117331 1.64158e-22)
(0.852997 -0.120346 -1.78862e-21)
(1.04279 -0.0303995 -8.73496e-21)
(1.03528 -0.0602296 -8.94348e-21)
(1.01568 0.000168983 -9.0997e-23)
(1.01721 0.000313514 2.62591e-23)
(1.01617 0.00447059 -1.47669e-21)
(1.01588 0.00447188 3.25777e-22)
(1.01584 0.00424001 -1.93578e-21)
(1.01859 0.00503357 4.53626e-22)
(1.01844 0.00478232 4.23318e-22)
(1.017 0.00480659 -1.52131e-21)
(1.01647 0.00428172 -1.01344e-21)
(0.987423 0.00609524 1.20021e-21)
(0.983324 0.00767474 0)
(0.994131 -0.0264809 1.11145e-21)
(0.987921 -0.0299136 -2.53325e-21)
(1.01189 -0.00034372 6.01401e-22)
(1.01193 -0.000362476 9.83352e-22)
(0.971858 0.0146328 -8.26064e-21)
(0.96467 0.0101771 -3.84639e-22)
(0.956834 0.233894 1.03242e-21)
(0.951376 0.223793 -5.15924e-22)
(0.964081 0.223205 -6.12439e-22)
(1.01269 -0.00129219 1.60733e-22)
(1.01259 -0.00117086 3.15119e-22)
(1.00735 -5.74398e-05 -3.04453e-23)
(1.00725 -2.93441e-05 -4.78206e-22)
(1.00518 -3.84759e-05 -1.85476e-22)
(1.19485 0.252633 -1.74293e-21)
(1.17658 0.252706 1.99767e-20)
(1.04639 -0.0171743 -1.35022e-22)
(1.04152 -0.0202286 -7.2109e-22)
(0.975777 0.0828033 -6.29331e-22)
(0.980601 0.0943572 -6.53567e-22)
(0.968565 0.0910948 2.5253e-21)
(0.965465 0.0337872 -2.2088e-22)
(0.956664 0.0415532 3.63793e-22)
(0.969149 0.0431142 1.3792e-21)
(1.01751 0.000357206 3.38226e-22)
(1.01511 0.000241731 4.62376e-22)
(1.01792 0.0300541 1.18412e-21)
(1.01483 0.0276408 1.28888e-21)
(1.01812 0.0262749 2.6173e-21)
(1.01369 0.00397276 1.79345e-22)
(1.01354 0.00422865 1.34689e-21)
(1.02318 -0.0053459 -9.07314e-22)
(1.04888 0.060381 -4.00209e-21)
(1.05176 0.0576457 -3.85762e-21)
(1.01341 -0.00410124 -1.93359e-22)
(1.01351 -0.00342811 -1.9519e-22)
(1.02119 0.0065663 1.72606e-22)
(1.02114 0.00619911 1.80072e-22)
(1.02151 0.00642434 3.93863e-23)
(0.980868 -0.00161937 2.93749e-21)
(0.985562 -0.00475842 1.99596e-21)
(1.01052 9.33675e-05 4.36581e-22)
(1.00925 7.04613e-05 -1.00522e-21)
(1.01049 0.000111734 -9.64012e-22)
(0.941086 0.22526 0)
(0.938743 0.234674 -1.16313e-21)
(0.974729 -0.0226211 0)
(0.973434 -0.0278925 0)
(0.775111 0.279799 4.97263e-21)
(0.712483 0.254305 -1.60557e-20)
(0.641028 0.178614 -4.01281e-20)
(0.981412 0.0759653 0)
(0.971407 0.0724559 0)
(1.01345 -0.000351185 1.26542e-22)
(1.01325 -0.000267436 -2.14661e-21)
(0.807555 0.168434 6.22986e-22)
(0.812145 0.188723 -4.35431e-21)
(1.09491 0.124685 -1.63649e-20)
(1.0986 0.133928 1.71372e-21)
(1.05879 0.0716851 -4.71982e-21)
(1.0543 0.0705254 -2.80142e-21)
(1.05519 0.075513 5.06144e-21)
(1.01571 -0.00243049 -6.64571e-23)
(1.01551 -0.00227865 -5.59683e-23)
(1.0316 0.0281047 -1.15891e-21)
(1.02758 0.0271193 -1.10868e-21)
(1.02992 0.024146 1.04784e-21)
(1.00956 0.000242906 -3.63532e-24)
(1.01221 0.000357312 7.39003e-23)
(1.01241 0.000378454 2.3769e-23)
(1.01255 6.41079e-05 -8.12995e-22)
(1.01242 9.12057e-05 -7.05503e-22)
(1.01675 -6.76005e-05 0)
(1.01632 -2.63631e-05 1.39849e-21)
(1.01657 0.000182964 -3.81682e-24)
(1.01374 0.000554823 -9.77259e-22)
(1.01403 0.000659938 7.25069e-22)
(1.01388 0.000575653 -4.49789e-23)
(0.997787 -0.00291586 0)
(0.996368 -0.000981699 2.43004e-22)
(0.998756 -0.0004662 -1.07837e-21)
(1.03642 0.00560338 -3.19729e-21)
(1.03646 0.00467746 -1.86376e-23)
(1.03743 0.00527117 -2.03763e-21)
(1.081 0.00249112 0)
(1.08524 0.00213068 1.56101e-23)
(0.999421 -0.00460404 0)
(0.997308 -0.00552548 -2.23596e-21)
(1.0122 0.00344546 0)
(1.01213 0.00288295 -1.12669e-21)
(1.01174 0.00299271 1.23218e-21)
(0.740065 0.247676 -1.09081e-20)
(0.750514 0.253793 -1.90772e-21)
(1.02123 0.0323441 -1.32546e-21)
(1.01733 0.034619 -9.39013e-22)
(1.01678 0.00509654 -4.95087e-22)
(1.01715 0.00533111 2.95433e-22)
(1.0048 0.000120575 1.36605e-22)
(1.18725 0.107099 8.02663e-21)
(1.17421 0.116261 2.08695e-20)
(1.228 0.122689 2.31497e-20)
(1.00512 -5.72021e-06 1.88431e-21)
(1.00291 4.1283e-05 9.66011e-22)
(1.00286 -2.06274e-05 0)
(1.02041 0.00783001 5.76359e-24)
(1.02074 0.00823817 1.79531e-22)
(1.01916 0.000390124 -9.87064e-22)
(1.01821 0.000534114 -8.17918e-23)
(1.03368 0.015518 2.56138e-21)
(1.03415 0.0168663 2.65979e-21)
(0.999738 0.210472 6.17913e-21)
(1.00752 0.219478 6.80494e-21)
(0.992057 0.224074 7.91727e-21)
(0.790161 0.127199 -3.81162e-21)
(0.812655 0.142926 1.26388e-20)
(1.03781 0.0156608 -8.6191e-22)
(1.01433 0.000810938 -5.06164e-23)
(1.01424 0.00070443 9.27764e-22)
(1.01422 0.000786319 -5.15169e-23)
(1.0011 -0.00592859 0)
(1.00287 -0.00723899 0)
(1.00115 -0.00849327 0)
(1.0015 -0.00371344 0)
(0.721248 0.287972 -1.45477e-21)
(0.714445 0.29717 1.52359e-21)
(0.725993 0.288547 -4.47452e-21)
(1.01551 -0.00159802 -1.92117e-23)
(1.00599 0.000152426 -2.42055e-23)
(1.0058 0.000143095 -2.39422e-23)
(1.01867 0.000143088 1.36512e-21)
(1.01063 -0.000295605 0)
(1.01256 -0.000523355 0)
(0.962512 0.122155 0)
(0.954919 0.117497 0)
(1.02108 -0.000503479 0)
(1.02026 -0.000389735 -7.80851e-22)
(1.02056 -0.00101927 -1.58277e-21)
(1.03788 -0.033816 8.17197e-22)
(1.03673 -0.0298894 -2.43004e-21)
(1.10983 0.17484 -6.72366e-21)
(1.09217 0.167885 1.39092e-21)
(1.09304 0.189681 3.46345e-21)
(0.682033 0.0885682 4.57412e-21)
(0.682413 0.0426063 -3.64485e-21)
(0.720236 0.0114287 -1.8311e-20)