/*--------------------------------*- C++ -*----------------------------------*\
| =========                 |                                                 |
| \\      /  F ield         | OpenFOAM: The Open Source CFD Toolbox           |
|  \\    /   O peration     | Version:  v2012                                 |
|   \\  /    A nd           | Website:  www.openfoam.com                      |
|    \\/     M anipulation  |                                                 |
\*---------------------------------------------------------------------------*/
FoamFile
{
    version     2.0;
    format      ascii;
    class       pointVectorField;
    location    "500";
    object      pointDisplacement;
}
// * * * * * * * * * * * * * * * * * * * * * * * * * * * * * * * * * * * * * //

dimensions      [0 1 0 0 0 0 0];


internalField   nonuniform List<vector> 
10400
(
(0 0 0)
(0 0 0)
(0 0 0)
(0 0 0)
(0 0 0)
(0 0 0)
(0 0 0)
(0 0 0)
(0 0 0)
(0 0 0)
(0 0 0)
(0 0 0)
(0 0 0)
(0 0 0)
(0 0 0)
(0 0 0)
(0 0 0)
(0 0 0)
(0 0 0)
(0 0 0)
(0 0 0)
(0 0 0)
(0 0 0)
(0 0 0)
(0 0 0)
(0 0 0)
(0 0 0)
(0 0 0)
(0 0 0)
(0 0 0)
(0 0 0)
(0 0 0)
(0 0 0)
(0 0 0)
(0 0 0)
(0 0 0)
(0 0 0)
(0 0 0)
(0 0 0)
(0 0 0)
(0 0 0)
(0 0 0)
(0 0 0)
(0 0 0)
(0 0 0)
(0 0 0)
(0 0 0)
(0 0 0)
(0 0 0)
(0 0 0)
(0 0 0)
(0 0 0)
(0 0 0)
(0 0 0)
(0 0 0)
(0 0 0)
(0 0 0)
(0 0 0)
(0 0 0)
(0 0 0)
(0 0 0)
(0 0 0)
(0 0 0)
(0 0 0)
(0 0 0)
(0 0 0)
(0 0 0)
(0 0 0)
(0 0 0)
(0 0 0)
(0 0 0)
(0 0 0)
(0 0 0)
(0 0 0)
(0 0 0)
(0 0 0)
(0 0 0)
(0 0 0)
(0 0 0)
(0 0 0)
(0 0 0)
(0 0 0)
(0 0 0)
(0 0 0)
(0 0 0)
(0 0 0)
(0 0 0)
(0 0 0)
(0 0 0)
(0 0 0)
(0 0 0)
(0 0 0)
(0 0 0)
(0 0 0)
(0 0 0)
(0 0 0)
(0 0 0)
(0 0 0)
(0 0 0)
(0 0 0)
(0 0 0)
(0 0 0)
(0 0 0)
(0 0 0)
(0 0 0)
(0 0 0)
(0 0 0)
(0 0 0)
(0 0 0)
(0 0 0)
(0 0 0)
(0 0 0)
(0 0 0)
(0 0 0)
(0 0 0)
(0 0 0)
(0 0 0)
(0 0 0)
(0 0 0)
(0 0 0)
(0 0 0)
(0 0 0)
(0 0 0)
(0 0 0)
(0 0 0)
(0 0 0)
(0 0 0)
(0 0 0)
(0 0 0)
(0 0 0)
(0 0 0)
(0 0 0)
(0 0 0)
(0 0 0)
(0 0 0)
(0 0 0)
(0 0 0)
(0 0 0)
(0 0 0)
(0 0 0)
(0 0 0)
(0 0 0)
(0 0 0)
(0 0 0)
(0 0 0)
(0 0 0)
(0 0 0)
(0 0 0)
(0 0 0)
(0 0 0)
(0 0 0)
(0 0 0)
(0 0 0)
(0 0 0)
(0 0 0)
(0 0 0)
(0 0 0)
(0 0 0)
(0 0 0)
(0 0 0)
(0 0 0)
(0 0 0)
(0 0 0)
(0 0 0)
(0 0 0)
(0 0 0)
(0 0 0)
(0 0 0)
(0 0 0)
(0 0 0)
(0 0 0)
(0 0 0)
(0 0 0)
(0 0 0)
(0 0 0)
(0 0 0)
(0 0 0)
(0 0 0)
(0 0 0)
(0 0 0)
(0 0 0)
(0 0 0)
(0 0 0)
(0 0 0)
(0 0 0)
(0 0 0)
(0 0 0)
(0 0 0)
(0 0 0)
(0 0 0)
(0 0 0)
(0 0 0)
(0 0 0)
(0 0 0)
(0 0 0)
(0 0 0)
(0 0 0)
(0 0 0)
(0 0 0)
(0 0 0)
(0 0 0)
(0 0 0)
(0 0 0)
(0 0 0)
(0 0 0)
(0 0 0)
(0 0 0)
(0 0 0)
(0 0 0)
(0 0 0)
(0 0 0)
(0 0 0)
(0 0 0)
(0 0 0)
(0 0 0)
(0 0 0)
(0 0 0)
(0 0 0)
(0 0 0)
(0 0 0)
(0 0 0)
(0 0 0)
(0 0 0)
(0 0 0)
(0 0 0)
(0 0 0)
(0 0 0)
(0 0 0)
(0 0 0)
(0 0 0)
(0 0 0)
(0 0 0)
(0 0 0)
(0 0 0)
(0 0 0)
(0 0 0)
(0 0 0)
(0 0 0)
(0 0 0)
(0 0 0)
(0 0 0)
(0 0 0)
(0 0 0)
(0 0 0)
(0 0 0)
(0 0 0)
(0 0 0)
(0 0 0)
(0 0 0)
(0 0 0)
(0 0 0)
(0 0 0)
(0 0 0)
(0 0 0)
(0 0 0)
(0 0 0)
(0 0 0)
(0 0 0)
(0 -0.000266859 0)
(0 -0.000271732 0)
(0 -0.000198811 0)
(0 -0.000156821 0)
(0 -0.000224691 0)
(0 -0.000100713 0)
(0 -0.000237195 0)
(0 -0.000230871 0)
(0 -0.000131888 0)
(0 -0.000190224 0)
(0 -0.00010878 0)
(0 -0.000111483 0)
(0 -0.000100544 0)
(0 -8.82299e-05 0)
(0 -6.89795e-05 0)
(0 -6.1444e-05 0)
(0 -5.38227e-05 0)
(0 -5.06407e-05 0)
(0 -0.000214971 0)
(0 -0.000182447 0)
(0 -3.30184e-05 0)
(0 -3.54803e-05 0)
(0 -0.000201295 0)
(0 -0.000161009 0)
(0 -0.000255753 0)
(0 -0.00027041 0)
(0 -0.000257198 0)
(0 -0.000232279 0)
(0 -0.000112728 0)
(0 -0.000145249 0)
(0 -8.56952e-05 0)
(0 -0.000103962 0)
(0 -8.70231e-05 0)
(0 -1.71936e-05 0)
(0 -1.80727e-05 0)
(0 -0.000261825 0)
(0 -0.000265319 0)
(0 -0.000274492 0)
(0 -0.000220876 0)
(0 -0.000211755 0)
(0 -0.000208922 0)
(0 -0.000192217 0)
(0 -0.00017321 0)
(0 -3.9314e-05 0)
(0 -8.66815e-05 0)
(0 -0.000143146 0)
(0 -0.000101644 0)
(0 -4.29237e-05 0)
(0 -5.64334e-05 0)
(0 -6.22902e-05 0)
(0 -0.000122431 0)
(0 -7.41094e-06 0)
(0 -0.0033582 0)
(0 -0.00345889 0)
(0 -0.00330468 0)
(0 -0.00340537 0)
(0 -0.00325355 0)
(0 -0.00335772 0)
(0 -0.00320334 0)
(0 -0.00330336 0)
(0 -0.00315191 0)
(0 -0.00324978 0)
(0 -0.00310427 0)
(0 -0.00320348 0)
(0 -0.0030623 0)
(0 -0.00315924 0)
(0 -0.00302383 0)
(0 -0.00312119 0)
(0 -0.00298696 0)
(0 -0.00308819 0)
(0 -0.0029543 0)
(0 -0.00307704 0)
(0 -0.00292118 0)
(0 -0.00302918 0)
(0 -0.00288752 0)
(0 -0.00554043 0)
(0 -0.00558103 0)
(0 -0.0056429 0)
(0 -0.00561618 0)
(0 -0.00567571 0)
(0 -0.00572489 0)
(0 -0.0057015 0)
(0 -0.00574822 0)
(0 -0.00578802 0)
(0 -0.00576734 0)
(0 -0.0058054 0)
(0 -0.00582222 0)
(0 -0.00583921 0)
(0 -0.00581874 0)
(0 -0.00585053 0)
(0 -0.00586706 0)
(0 -0.00587631 0)
(0 -0.00589576 0)
(0 -0.00587994 0)
(0 -0.00589734 0)
(0 -0.0059081 0)
(0 -0.00590692 0)
(0 -0.00589175 0)
(0 -0.00589765 0)
(0 -0.00590893 0)
(0 -0.00589789 0)
(0 -0.00588354 0)
(0 -0.0058821 0)
(0 -0.00589155 0)
(0 -0.00587427 0)
(0 -0.00586028 0)
(0 -0.00585296 0)
(0 -0.00583776 0)
(0 -0.00584057 0)
(0 -0.00581688 0)
(0 -0.00581103 0)
(0 -0.00578814 0)
(0 -0.00578794 0)
(0 -0.00575977 0)
(0 -0.00575618 0)
(0 -0.00572609 0)
(0 -0.00572619 0)
(0 -0.00569065 0)
(0 -0.00299296 0)
(0 -0.00285911 0)
(0 -0.00564913 0)
(0 -0.00564902 0)
(0 -0.00560625 0)
(0 -0.00555603 0)
(0 -0.00555972 0)
(0 -0.00551022 0)
(0 -0.00550219 0)
(0 -0.0054571 0)
(0 -0.0054584 0)
(0 -0.0054049 0)
(0 -0.00539864 0)
(0 -0.00534529 0)
(0 -0.0052816 0)
(0 -0.00528118 0)
(0 -0.00522255 0)
(0 -0.00515795 0)
(0 -0.00515628 0)
(0 -0.00509451 0)
(0 -0.00508801 0)
(0 -0.00502741 0)
(0 -0.00503156 0)
(0 -0.00496181 0)
(0 -0.00495199 0)
(0 -0.00488569 0)
(0 -0.00296659 0)
(0 -0.00283357 0)
(0 -0.00488935 0)
(0 -0.00481355 0)
(0 -0.0048061 0)
(0 -0.00473528 0)
(0 -0.00465441 0)
(0 -0.00466063 0)
(0 -0.00458185 0)
(0 -0.00457018 0)
(0 -0.00449939 0)
(0 -0.0045056 0)
(0 -0.00442502 0)
(0 -0.00441402 0)
(0 -0.00434209 0)
(0 -0.00434692 0)
(0 -0.00426553 0)
(0 -0.00425761 0)
(0 -0.00418186 0)
(0 -0.00409552 0)
(0 -0.00410348 0)
(0 -0.0040181 0)
(0 -0.00393113 0)
(0 -0.00393833 0)
(0 -0.00385269 0)
(0 -0.00384287 0)
(0 -0.00294912 0)
(0 -0.00281057 0)
(0 -0.0038563 0)
(0 -0.00377145 0)
(0 -0.00377105 0)
(0 -0.0036874 0)
(0 -0.0029238 0)
(0 -0.00278557 0)
(0 -0.00267379 0)
(0 -0.00265107 0)
(0 -0.00254062 0)
(0 -0.00252254 0)
(0 -0.0024115 0)
(0 -0.00240074 0)
(0 -0.00228736 0)
(0 -0.002286 0)
(0 -0.00217008 0)
(0 -0.00216257 0)
(0 -0.00205838 0)
(0 -0.00205719 0)
(0 -0.00195489 0)
(0 -0.00195668 0)
(0 -0.00185926 0)
(0 -0.00186784 0)
(0 -0.00176931 0)
(0 -0.00178855 0)
(0 -0.00168575 0)
(0 -0.00170907 0)
(0 -0.00160771 0)
(0 -0.00162897 0)
(0 -0.00153378 0)
(0 -0.00155723 0)
(0 -0.00146579 0)
(0 -0.00368327 0)
(0 -0.00148921 0)
(0 -0.00140263 0)
(0 -0.00360082 0)
(0 -0.00142821 0)
(0 -0.00134532 0)
(0 -0.00137318 0)
(0 -0.00129039 0)
(0 -0.00359297 0)
(0 -0.00289496 0)
(0 -0.00195369 0)
(0 -0.00215254 0)
(0 -0.00351175 0)
(0 -0.00350036 0)
(0 -0.00342002 0)
(0 -0.00340591 0)
(0 -0.00348263 0)
(0 -0.00165172 0)
(0 -0.00338511 0)
(0 -0.00345844 0)
(0 -0.00331005 0)
(0 -0.00328707 0)
(0 -0.00321346 0)
(0 -0.00151039 0)
(0 -0.00318852 0)
(0 -0.00311559 0)
(0 -0.0030894 0)
(0 -0.00342761 0)
(0 -0.00301713 0)
(0 -0.00298949 0)
(0 -0.00303604 0)
(0 -0.00300446 0)
(0 -0.00314764 0)
(0 -0.003115 0)
(0 -0.00325553 0)
(0 -0.00322249 0)
(0 -0.00335621 0)
(0 -0.00332784 0)
(0 -0.00347502 0)
(0 -0.0034267 0)
(0 -0.0035596 0)
(0 -0.00351439 0)
(0 -0.00364097 0)
(0 -0.00359827 0)
(0 -0.00373625 0)
(0 -0.0029177 0)
(0 -0.00288767 0)
(0 -0.00295358 0)
(0 -0.00367526 0)
(0 -0.00380158 0)
(0 -0.00355367 0)
(0 -0.00284955 0)
(0 -0.00291109 0)
(0 -0.0027853 0)
(0 -0.00374034 0)
(0 -0.00386444 0)
(0 -0.00274511 0)
(0 -0.0026819 0)
(0 -0.00264008 0)
(0 -0.00379844 0)
(0 -0.00391981 0)
(0 -0.00257795 0)
(0 -0.00253476 0)
(0 -0.0038467 0)
(0 -0.00396676 0)
(0 -0.00247405 0)
(0 -0.00242963 0)
(0 -0.00388716 0)
(0 -0.0040056 0)
(0 -0.00236993 0)
(0 -0.0024104 0)
(0 -0.00232417 0)
(0 -0.00237968 0)
(0 -0.00293021 0)
(0 -0.00391944 0)
(0 -0.00403514 0)
(0 -0.00379923 0)
(0 -0.00227287 0)
(0 -0.00232406 0)
(0 -0.00221885 0)
(0 -0.00394273 0)
(0 -0.0040551 0)
(0 -0.00216689 0)
(0 -0.00211367 0)
(0 -0.00395619 0)
(0 -0.00406754 0)
(0 -0.00206218 0)
(0 -0.00396145 0)
(0 -0.00407344 0)
(0 -0.00200962 0)
(0 -0.00321069 0)
(0 -0.00195835 0)
(0 -0.00395983 0)
(0 -0.00407219 0)
(0 -0.00190748 0)
(0 -0.0018551 0)
(0 -0.00418093 0)
(0 -0.00418103 0)
(0 -0.00406252 0)
(0 -0.0041712 0)
(0 -0.00428531 0)
(0 -0.00427431 0)
(0 -0.00415051 0)
(0 -0.00425206 0)
(0 -0.004376 0)
(0 -0.0043513 0)
(0 -0.00421912 0)
(0 -0.00431396 0)
(0 -0.0044471 0)
(0 -0.00440711 0)
(0 -0.00546886 0)
(0 -0.00180579 0)
(0 -0.0017527 0)
(0 -0.00179745 0)
(0 -0.00426014 0)
(0 -0.00435106 0)
(0 -0.0045103 0)
(0 -0.00443464 0)
(0 -0.00428487 0)
(0 -0.00437043 0)
(0 -0.00451252 0)
(0 -0.00445157 0)
(0 -0.00429992 0)
(0 -0.0043772 0)
(0 -0.00452615 0)
(0 -0.00444813 0)
(0 -0.00125903 0)
(0 -0.00459461 0)
(0 -0.00451502 0)
(0 -0.00436585 0)
(0 -0.00442836 0)
(0 -0.0036908 0)
(0 -0.00169451 0)
(0 -0.00173483 0)
(0 -0.00165119 0)
(0 -0.00457641 0)
(0 -0.00448602 0)
(0 -0.00431707 0)
(0 -0.00439338 0)
(0 -0.00454219 0)
(0 -0.00444553 0)
(0 -0.00429318 0)
(0 -0.00433591 0)
(0 -0.00449536 0)
(0 -0.00438888 0)
(0 -0.00412007 0)
(0 -0.00422235 0)
(0 -0.00427972 0)
(0 -0.00443422 0)
(0 -0.00432473 0)
(0 -0.00416847 0)
(0 -0.00421284 0)
(0 -0.00436485 0)
(0 -0.0042531 0)
(0 -0.00293531 0)
(0 -0.00384754 0)
(0 -0.00185359 0)
(0 -0.0040991 0)
(0 -0.0041397 0)
(0 -0.00429058 0)
(0 -0.00417674 0)
(0 -0.00432281 0)
(0 -0.00420788 0)
(0 -0.00406408 0)
(0 -0.00409369 0)
(0 -0.00423289 0)
(0 -0.00411678 0)
(0 -0.00398048 0)
(0 -0.00399981 0)
(0 -0.00159298 0)
(0 -0.00155082 0)
(0 -0.00413407 0)
(0 -0.0040127 0)
(0 -0.00386544 0)
(0 -0.003891 0)
(0 -0.00402353 0)
(0 -0.00389824 0)
(0 -0.00374616 0)
(0 -0.00376758 0)
(0 -0.00390568 0)
(0 -0.00377514 0)
(0 -0.00361309 0)
(0 -0.00364212 0)
(0 -0.00378062 0)
(0 -0.00364769 0)
(0 -0.00349191 0)
(0 -0.00351602 0)
(0 -0.00364853 0)
(0 -0.00351717 0)
(0 -0.00338647 0)
(0 -0.003387 0)
(0 -0.00149324 0)
(0 -0.00364301 0)
(0 -0.00145241 0)
(0 -0.00325271 0)
(0 -0.00325707 0)
(0 -0.00139544 0)
(0 -0.00312072 0)
(0 -0.00312677 0)
(0 -0.00135616 0)
(0 -0.00129944 0)
(0 -0.00133506 0)
(0 -0.00298872 0)
(0 -0.00299578 0)
(0 -0.00312859 0)
(0 -0.00299974 0)
(0 -0.00298079 0)
(0 -0.00286449 0)
(0 -0.00287075 0)
(0 -0.00126136 0)
(0 -0.00131717 0)
(0 -0.00120523 0)
(0 -0.00273332 0)
(0 -0.00274118 0)
(0 -0.00300078 0)
(0 -0.00116785 0)
(0 -0.00111311 0)
(0 -0.00260157 0)
(0 -0.00261062 0)
(0 -0.0024696 0)
(0 -0.00247975 0)
(0 -0.00107634 0)
(0 -0.00102337 0)
(0 -0.00233903 0)
(0 -0.00235089 0)
(0 -0.00248647 0)
(0 -0.00235988 0)
(0 -0.00222621 0)
(0 -0.00223615 0)
(0 -0.00232392 0)
(0 -0.000987545 0)
(0 -0.000936392 0)
(0 -0.000967638 0)
(0 -0.00236562 0)
(0 -0.00224288 0)
(0 -0.00211457 0)
(0 -0.00212246 0)
(0 -0.00088246 0)
(0 -0.000909084 0)
(0 -0.00337604 0)
(0 -0.00319392 0)
(0 -0.00199485 0)
(0 -0.00200428 0)
(0 -0.00150901 0)
(0 -0.00160586 0)
(0 -0.00152173 0)
(0 -0.00161719 0)
(0 -0.00153125 0)
(0 -0.0016252 0)
(0 -0.00153746 0)
(0 -0.000901421 0)
(0 -0.000947968 0)
(0 -0.00236665 0)
(0 -0.0027617 0)
(0 -0.00144399 0)
(0 -0.00144875 0)
(0 -0.00187684 0)
(0 -0.00188694 0)
(0 -0.00162965 0)
(0 -0.00310449 0)
(0 -0.000826019 0)
(0 -0.00084806 0)
(0 -0.00171803 0)
(0 -0.0017603 0)
(0 -0.00177065 0)
(0 -0.00135574 0)
(0 -0.00135928 0)
(0 -0.000862638 0)
(0 -0.000904727 0)
(0 -0.00172052 0)
(0 -0.00180949 0)
(0 -0.00174578 0)
(0 -0.00135889 0)
(0 -0.00141235 0)
(0 -0.00144179 0)
(0 -0.00138145 0)
(0 -0.00146758 0)
(0 -0.00152667 0)
(0 -0.00155364 0)
(0 -0.00161334 0)
(0 -0.00164398 0)
(0 -0.00170509 0)
(0 -0.00174305 0)
(0 -0.00167589 0)
(0 -0.00178143 0)
(0 -0.00184978 0)
(0 -0.00189512 0)
(0 -0.00181951 0)
(0 -0.00193907 0)
(0 -0.00196172 0)
(0 -0.00185383 0)
(0 -0.00197543 0)
(0 -0.00187962 0)
(0 -0.00200004 0)
(0 -0.00189464 0)
(0 -0.00201403 0)
(0 -0.00212449 0)
(0 -0.00213948 0)
(0 -0.00225274 0)
(0 -0.00227063 0)
(0 -0.00215267 0)
(0 -0.00228614 0)
(0 -0.00177919 0)
(0 -0.00216241 0)
(0 -0.00229556 0)
(0 -0.00238601 0)
(0 -0.00216242 0)
(0 -0.00229005 0)
(0 -0.00214678 0)
(0 -0.00227106 0)
(0 -0.00202382 0)
(0 -0.00241718 0)
(0 -0.00239822 0)
(0 -0.00224592 0)
(0 -0.00237137 0)
(0 -0.00189261 0)
(0 -0.00177704 0)
(0 -0.00165616 0)
(0 -0.00166318 0)
(0 -0.000767401 0)
(0 -0.000784708 0)
(0 -0.00154191 0)
(0 -0.0015506 0)
(0 -0.00126657 0)
(0 -0.00126922 0)
(0 -0.00221293 0)
(0 -0.00233627 0)
(0 -0.00393536 0)
(0 -0.00385263 0)
(0 -0.000820199 0)
(0 -0.000858064 0)
(0 -0.0031433 0)
(0 -0.00177998 0)
(0 -0.00142996 0)
(0 -0.00144029 0)
(0 -0.00180998 0)
(0 -0.00189979 0)
(0 -0.0018974 0)
(0 -0.00145122 0)
(0 -0.00254553 0)
(0 -0.00216917 0)
(0 -0.00229153 0)
(0 -0.000705554 0)
(0 -0.000689756 0)
(0 -0.000716694 0)
(0 -0.000798437 0)
(0 -0.00117647 0)
(0 -0.00117843 0)
(0 -0.00126919 0)
(0 -0.00117796 0)
(0 -0.00126653 0)
(0 -0.00117484 0)
(0 -0.00126099 0)
(0 -0.00116879 0)
(0 -0.00125236 0)
(0 -0.00115998 0)
(0 -0.00132239 0)
(0 -0.00133373 0)
(0 -0.00245558 0)
(0 -0.00241002 0)
(0 -0.00223694 0)
(0 -0.00235927 0)
(0 -0.00107663 0)
(0 -0.00106797 0)
(0 -0.000774134 0)
(0 -0.000807935 0)
(0 -0.00131277 0)
(0 -0.00229773 0)
(0 -0.00140374 0)
(0 -0.0010869 0)
(0 -0.00252828 0)
(0 -0.00248511 0)
(0 -0.00229275 0)
(0 -0.00242394 0)
(0 -0.00263336 0)
(0 -0.00255363 0)
(0 -0.00234524 0)
(0 -0.00248089 0)
(0 -0.00269238 0)
(0 -0.00261065 0)
(0 -0.00239765 0)
(0 -0.00253075 0)
(0 -0.000726292 0)
(0 -0.000809775 0)
(0 -0.000630284 0)
(0 -0.000615478 0)
(0 -0.00276326 0)
(0 -0.00265231 0)
(0 -0.00243402 0)
(0 -0.00255595 0)
(0 -0.00189792 0)
(0 -0.0019887 0)
(0 -0.00121725 0)
(0 -0.00123021 0)
(0 -0.00124067 0)
(0 -0.00277433 0)
(0 -0.00267753 0)
(0 -0.00244677 0)
(0 -0.00256481 0)
(0 -0.00144635 0)
(0 -0.00279622 0)
(0 -0.00268144 0)
(0 -0.00244744 0)
(0 -0.00256523 0)
(0 -0.000984683 0)
(0 -0.000976367 0)
(0 -0.000736119 0)
(0 -0.00232554 0)
(0 -0.00244561 0)
(0 -0.0026834 0)
(0 -0.0025655 0)
(0 -0.00280009 0)
(0 -0.00268419 0)
(0 -0.00244465 0)
(0 -0.00256535 0)
(0 -0.00280087 0)
(0 -0.00268358 0)
(0 -0.0024421 0)
(0 -0.00256132 0)
(0 -0.00279817 0)
(0 -0.00267555 0)
(0 -0.0024342 0)
(0 -0.00254769 0)
(0 -0.000893862 0)
(0 -0.00338926 0)
(0 -0.00278511 0)
(0 -0.00265339 0)
(0 -0.00241399 0)
(0 -0.00251771 0)
(0 -0.00111517 0)
(0 -0.000724557 0)
(0 -0.00069278 0)
(0 -0.000754389 0)
(0 -0.000559105 0)
(0 -0.000544766 0)
(0 -0.00275274 0)
(0 -0.00261714 0)
(0 -0.00237904 0)
(0 -0.00247954 0)
(0 -0.00223848 0)
(0 -0.00233905 0)
(0 -0.0025765 0)
(0 -0.00243699 0)
(0 -0.000902977 0)
(0 -0.000871909 0)
(0 -0.000965264 0)
(0 -0.000933459 0)
(0 -0.00102533 0)
(0 -0.000996884 0)
(0 -0.00108651 0)
(0 -0.00106557 0)
(0 -0.00115561 0)
(0 -0.0011414 0)
(0 -0.00124695 0)
(0 -0.00122506 0)
(0 -0.0013251 0)
(0 -0.00131282 0)
(0 -0.00141358 0)
(0 -0.00140657 0)
(0 -0.00130583 0)
(0 -0.0014018 0)
(0 -0.00130098 0)
(0 -0.00139817 0)
(0 -0.00129937 0)
(0 -0.00139947 0)
(0 -0.00129853 0)
(0 -0.00140461 0)
(0 -0.00130061 0)
(0 -0.00141046 0)
(0 -0.00130781 0)
(0 -0.00141947 0)
(0 -0.00131746 0)
(0 -0.00143188 0)
(0 -0.00133067 0)
(0 -0.00144904 0)
(0 -0.00155145 0)
(0 -0.00157133 0)
(0 -0.00147048 0)
(0 -0.0015078 0)
(0 -0.00167518 0)
(0 -0.00159563 0)
(0 -0.00149559 0)
(0 -0.00150826 0)
(0 -0.00162421 0)
(0 -0.00152306 0)
(0 -0.00165753 0)
(0 -0.00156044 0)
(0 -0.00175332 0)
(0 -0.00139075 0)
(0 -0.00169512 0)
(0 -0.00160087 0)
(0 -0.00117696 0)
(0 -0.00267054 0)
(0 -0.00253367 0)
(0 -0.00229806 0)
(0 -0.00239667 0)
(0 -0.00262865 0)
(0 -0.00249192 0)
(0 -0.00225843 0)
(0 -0.00235217 0)
(0 -0.00258158 0)
(0 -0.00244049 0)
(0 -0.00220987 0)
(0 -0.00229692 0)
(0 -0.00166704 0)
(0 -0.00252236 0)
(0 -0.00237883 0)
(0 -0.0021535 0)
(0 -0.00223678 0)
(0 -0.00201159 0)
(0 -0.00209637 0)
(0 -0.00231712 0)
(0 -0.0021786 0)
(0 -0.000818624 0)
(0 -0.000730924 0)
(0 -0.00195857 0)
(0 -0.00204307 0)
(0 -0.00225823 0)
(0 -0.00212458 0)
(0 -0.0013335 0)
(0 -0.00131903 0)
(0 -0.0014126 0)
(0 -0.00121765 0)
(0 -0.00190997 0)
(0 -0.00199228 0)
(0 -0.00198429 0)
(0 -0.00207608 0)
(0 -0.00207853 0)
(0 -0.00216669 0)
(0 -0.00216672 0)
(0 -0.0022559 0)
(0 -0.0022538 0)
(0 -0.00234379 0)
(0 -0.0023394 0)
(0 -0.00243054 0)
(0 -0.00242326 0)
(0 -0.00251597 0)
(0 -0.00250587 0)
(0 -0.00260001 0)
(0 -0.00258712 0)
(0 -0.0026825 0)
(0 -0.00276297 0)
(0 -0.00204729 0)
(0 -0.00049131 0)
(0 -0.0004776 0)
(0 -0.00173278 0)
(0 -0.00065447 0)
(0 -0.000893113 0)
(0 -0.00139537 0)
(0 -0.00148981 0)
(0 -0.00118183 0)
(0 -0.000885225 0)
(0 -0.000643692 0)
(0 -0.00061401 0)
(0 -0.00105201 0)
(0 -0.00177742 0)
(0 -0.00185948 0)
(0 -0.00142545 0)
(0 -0.00250697 0)
(0 -0.00243276 0)
(0 -0.00112929 0)
(0 -0.00101573 0)
(0 -0.00099732 0)
(0 -0.000427474 0)
(0 -0.000414278 0)
(0 -0.00130172 0)
(0 -0.000900069 0)
(0 -0.000435663 0)
(0 -0.00233349 0)
(0 -0.00206965 0)
(0 -0.00285881 0)
(0 -0.00164472 0)
(0 -0.00172639 0)
(0 -0.00193555 0)
(0 -0.00180326 0)
(0 -0.00159547 0)
(0 -0.00167289 0)
(0 -0.00187442 0)
(0 -0.00174502 0)
(0 -0.00154484 0)
(0 -0.00161686 0)
(0 -0.000565262 0)
(0 -0.000537942 0)
(0 -0.000801961 0)
(0 -0.000807137 0)
(0 -0.00079468 0)
(0 -0.00146945 0)
(0 -0.00156488 0)
(0 -0.000850705 0)
(0 -0.000367276 0)
(0 -0.000354956 0)
(0 -0.000920019 0)
(0 -0.00235684 0)
(0 -0.0024867 0)
(0 -0.00244382 0)
(0 -0.0025706 0)
(0 -0.00251656 0)
(0 -0.00264335 0)
(0 -0.00258065 0)
(0 -0.00270465 0)
(0 -0.00263497 0)
(0 -0.00277397 0)
(0 -0.00274957 0)
(0 -0.0026742 0)
(0 -0.00256195 0)
(0 -0.00259507 0)
(0 -0.00248196 0)
(0 -0.00250795 0)
(0 -0.00239497 0)
(0 -0.00241571 0)
(0 -0.00230594 0)
(0 -0.00270264 0)
(0 -0.00232299 0)
(0 -0.00221878 0)
(0 -0.00243085 0)
(0 -0.00141901 0)
(0 -0.00149274 0)
(0 -0.00155795 0)
(0 -0.000876561 0)
(0 -0.000874886 0)
(0 -0.00078523 0)
(0 -0.000705058 0)
(0 -0.000696721 0)
(0 -0.000808638 0)
(0 -0.000489457 0)
(0 -0.00046493 0)
(0 -0.00051268 0)
(0 -0.0023361 0)
(0 -0.00244281 0)
(0 -0.00178895 0)
(0 -0.00167684 0)
(0 -0.00168134 0)
(0 -0.00156984 0)
(0 -0.00156465 0)
(0 -0.00145241 0)
(0 -0.00143554 0)
(0 -0.00132101 0)
(0 -0.00133856 0)
(0 -0.00120693 0)
(0 -0.00122788 0)
(0 -0.00129182 0)
(0 -0.00109635 0)
(0 -0.00112439 0)
(0 -0.000990816 0)
(0 -0.0010309 0)
(0 -0.000888069 0)
(0 -0.000915983 0)
(0 -0.00220147 0)
(0 -0.00211989 0)
(0 -0.000311288 0)
(0 -0.000299703 0)
(0 -0.000895135 0)
(0 -0.000908229 0)
(0 -0.00194048 0)
(0 -0.000338665 0)
(0 -0.00028404 0)
(0 -0.0021037 0)
(0 -0.00202637 0)
(0 -0.0020374 0)
(0 -0.00194658 0)
(0 -0.00129593 0)
(0 -0.00137167 0)
(0 -0.000788539 0)
(0 -0.000818459 0)
(0 -0.000929126 0)
(0 -0.000838586 0)
(0 -0.000248691 0)
(0 -0.00193969 0)
(0 -0.00186331 0)
(0 -0.000827852 0)
(0 -0.000954 0)
(0 -0.000725588 0)
(0 -0.000983797 0)
(0 -0.000999103 0)
(0 -0.00107481 0)
(0 -0.00154139 0)
(0 -0.00163803 0)
(0 -0.000750783 0)
(0 -0.00031822 0)
(0 -0.000264055 0)
(0 -0.000293393 0)
(0 -0.00186614 0)
(0 -0.00178776 0)
(0 -0.001785 0)
(0 -0.00171391 0)
(0 -0.00171105 0)
(0 -0.00164254 0)
(0 -0.0016399 0)
(0 -0.0015739 0)
(0 -0.00157208 0)
(0 -0.00150843 0)
(0 -0.0021626 0)
(0 -0.000719773 0)
(0 -0.0015687 0)
(0 -0.00144473 0)
(0 -0.00125051 0)
(0 -0.00131885 0)
(0 -0.00150768 0)
(0 -0.00138105 0)
(0 -0.00119941 0)
(0 -0.00126255 0)
(0 -0.00143645 0)
(0 -0.00132055 0)
(0 -0.00114836 0)
(0 -0.00120783 0)
(0 -0.00108991 0)
(0 -0.00116835 0)
(0 -0.000616401 0)
(0 -0.000608584 0)
(0 -0.00100811 0)
(0 -0.00197629 0)
(0 -0.00205942 0)
(0 -0.00103765 0)
(0 -0.00109792 0)
(0 -0.0014098 0)
(0 -0.00125487 0)
(0 -0.00137811 0)
(0 -0.00121307 0)
(0 -0.00134045 0)
(0 -0.00116588 0)
(0 -0.00129512 0)
(0 -0.00104299 0)
(0 -0.00171957 0)
(0 -0.00118144 0)
(0 -0.00126452 0)
(0 -0.00126105 0)
(0 -0.00121675 0)
(0 -0.000595787 0)
(0 -0.000862042 0)
(0 -0.000738969 0)
(0 -0.000416581 0)
(0 -0.00124368 0)
(0 -0.00150698 0)
(0 -0.00234531 0)
(0 -0.00245244 0)
(0 -0.0025524 0)
(0 -0.00256375 0)
(0 -0.00266589 0)
(0 -0.000633266 0)
(0 -0.000652582 0)
(0 -0.00127535 0)
(0 -0.00136362 0)
(0 -0.00111166 0)
(0 -0.00123975 0)
(0 -0.00164122 0)
(0 -0.000659584 0)
(0 -0.000764638 0)
(0 -0.000672817 0)
(0 -0.00158496 0)
(0 -0.00107418 0)
(0 -0.000976957 0)
(0 -0.000776543 0)
(0 -0.00068421 0)
(0 -0.000509165 0)
(0 -0.000929976 0)
(0 -0.000990107 0)
(0 -0.00267983 0)
(0 -0.00278342 0)
(0 -0.00167047 0)
(0 -0.002561 0)
(0 -0.00137488 0)
(0 -0.000550894 0)
(0 -0.000572339 0)
(0 -0.00120273 0)
(0 -0.00104038 0)
(0 -0.000942498 0)
(0 -0.00100986 0)
(0 -0.000907731 0)
(0 -0.000983497 0)
(0 -0.000881977 0)
(0 -0.000616471 0)
(0 -0.000239578 0)
(0 -0.000264049 0)
(0 -0.00319192 0)
(0 -0.00244541 0)
(0 -0.00300735 0)
(0 -0.00190801 0)
(0 -0.00178678 0)
(0 -0.00186548 0)
(0 -0.00255711 0)
(0 -0.002685 0)
(0 -0.00291192 0)
(0 -0.00115236 0)
(0 -0.00104479 0)
(0 -0.000884619 0)
(0 -0.000939881 0)
(0 -0.00285313 0)
(0 -0.00280671 0)
(0 -0.00196475 0)
(0 -0.00204538 0)
(0 -0.00214097 0)
(0 -0.00212465 0)
(0 -0.00222089 0)
(0 -0.00202786 0)
(0 -0.00210545 0)
(0 -0.00261688 0)
(0 -0.00201483 0)
(0 -0.0026929 0)
(0 -0.00142686 0)
(0 -0.00246834 0)
(0 -0.00253601 0)
(0 -0.00267167 0)
(0 -0.00273133 0)
(0 -0.00259679 0)
(0 -0.00286702 0)
(0 -0.00278326 0)
(0 -0.00265044 0)
(0 -0.00280773 0)
(0 -0.00300149 0)
(0 -0.00294326 0)
(0 -0.00170167 0)
(0 -0.00443621 0)
(0 -0.00377263 0)
(0 -0.00376113 0)
(0 -0.0038879 0)
(0 -0.00387123 0)
(0 -0.00399543 0)
(0 -0.00397406 0)
(0 -0.0040949 0)
(0 -0.00407031 0)
(0 -0.00418855 0)
(0 -0.00416103 0)
(0 -0.00404399 0)
(0 -0.00413105 0)
(0 -0.00401595 0)
(0 -0.00427729 0)
(0 -0.00409894 0)
(0 -0.0039859 0)
(0 -0.00430504 0)
(0 -0.00439166 0)
(0 -0.00442043 0)
(0 -0.00406465 0)
(0 -0.00395353 0)
(0 -0.0045036 0)
(0 -0.00453267 0)
(0 -0.00461237 0)
(0 -0.00464041 0)
(0 -0.00457928 0)
(0 -0.00402751 0)
(0 -0.00391839 0)
(0 -0.00471844 0)
(0 -0.0047459 0)
(0 -0.00482105 0)
(0 -0.004849 0)
(0 -0.00413625 0)
(0 -0.00409369 0)
(0 -0.00492079 0)
(0 -0.00494947 0)
(0 -0.00487367 0)
(0 -0.00497494 0)
(0 -0.0042003 0)
(0 -0.00384167 0)
(0 -0.00380728 0)
(0 -0.00504703 0)
(0 -0.0050721 0)
(0 -0.00499628 0)
(0 -0.00509234 0)
(0 -0.00516318 0)
(0 -0.00518263 0)
(0 -0.00415252 0)
(0 -0.00510794 0)
(0 -0.00519781 0)
(0 -0.00526728 0)
(0 -0.00528097 0)
(0 -0.0052089 0)
(0 -0.00529104 0)
(0 -0.00521706 0)
(0 -0.00529795 0)
(0 -0.00536995 0)
(0 -0.00537656 0)
(0 -0.00530206 0)
(0 -0.00537776 0)
(0 -0.00544913 0)
(0 -0.00544683 0)
(0 -0.00536569 0)
(0 -0.00543802 0)
(0 -0.00550991 0)
(0 -0.00549599 0)
(0 -0.0054089 0)
(0 -0.00547433 0)
(0 -0.0055487 0)
(0 -0.00552649 0)
(0 -0.00544832 0)
(0 -0.00549801 0)
(0 -0.00541701 0)
(0 -0.00546377 0)
(0 -0.00553942 0)
(0 -0.00550475 0)
(0 -0.00542407 0)
(0 -0.00546373 0)
(0 -0.00554812 0)
(0 -0.00549741 0)
(0 -0.00541807 0)
(0 -0.00544708 0)
(0 -0.00551931 0)
(0 -0.00546766 0)
(0 -0.00539464 0)
(0 -0.00540835 0)
(0 -0.00547737 0)
(0 -0.00541406 0)
(0 -0.00534291 0)
(0 -0.00534461 0)
(0 -0.00541079 0)
(0 -0.00533806 0)
(0 -0.00526714 0)
(0 -0.00525789 0)
(0 -0.00532412 0)
(0 -0.00524263 0)
(0 -0.0051701 0)
(0 -0.00515133 0)
(0 -0.00522179 0)
(0 -0.00512746 0)
(0 -0.00519723 0)
(0 -0.00510048 0)
(0 -0.0051698 0)
(0 -0.00506921 0)
(0 -0.00499978 0)
(0 -0.00496531 0)
(0 -0.00503079 0)
(0 -0.00492441 0)
(0 -0.00498421 0)
(0 -0.0048619 0)
(0 -0.0049325 0)
(0 -0.00481967 0)
(0 -0.00487807 0)
(0 -0.00475965 0)
(0 -0.00481085 0)
(0 -0.0046741 0)
(0 -0.00473487 0)
(0 -0.00461247 0)
(0 -0.00465867 0)
(0 -0.00453353 0)
(0 -0.00449191 0)
(0 -0.00507589 0)
(0 -0.00469894 0)
(0 -0.00486154 0)
(0 -0.0045775 0)
(0 -0.00444638 0)
(0 -0.00372731 0)
(0 -0.00369278 0)
(0 -0.00376845 0)
(0 -0.00365451 0)
(0 -0.00357672 0)
(0 -0.00353951 0)
(0 -0.00345955 0)
(0 -0.00342135 0)
(0 -0.00334104 0)
(0 -0.0033017 0)
(0 -0.00526348 0)
(0 -0.00488762 0)
(0 -0.00504479 0)
(0 -0.00449151 0)
(0 -0.0032215 0)
(0 -0.00318235 0)
(0 -0.00435535 0)
(0 -0.00462247 0)
(0 -0.00425645 0)
(0 -0.00372599 0)
(0 -0.00485763 0)
(0 -0.00325308 0)
(0 -0.00310166 0)
(0 -0.00306392 0)
(0 -0.00440146 0)
(0 -0.00420378 0)
(0 -0.00455674 0)
(0 -0.0029823 0)
(0 -0.00294594 0)
(0 -0.00426072 0)
(0 -0.00421213 0)
(0 -0.00286347 0)
(0 -0.00282907 0)
(0 -0.0027454 0)
(0 -0.0027129 0)
(0 -0.00262832 0)
(0 -0.00259669 0)
(0 -0.00301552 0)
(0 -0.00251204 0)
(0 -0.00248177 0)
(0 -0.00374701 0)
(0 -0.00431021 0)
(0 -0.00337517 0)
(0 -0.00430492 0)
(0 -0.00255568 0)
(0 -0.00411454 0)
(0 -0.0040654 0)
(0 -0.00435861 0)
(0 -0.00239711 0)
(0 -0.00236858 0)
(0 -0.00424785 0)
(0 -0.00414825 0)
(0 -0.00440374 0)
(0 -0.0044585 0)
(0 -0.00290137 0)
(0 -0.00418772 0)
(0 -0.00408954 0)
(0 -0.00228373 0)
(0 -0.00225747 0)
(0 -0.00396567 0)
(0 -0.00391905 0)
(0 -0.00402006 0)
(0 -0.0038773 0)
(0 -0.00397902 0)
(0 -0.00383835 0)
(0 -0.00393871 0)
(0 -0.00380055 0)
(0 -0.00389938 0)
(0 -0.00217158 0)
(0 -0.00214749 0)
(0 -0.00206016 0)
(0 -0.00203748 0)
(0 -0.00195005 0)
(0 -0.00192819 0)
(0 -0.00184174 0)
(0 -0.00450021 0)
(0 -0.00455686 0)
(0 -0.00200561 0)
(0 -0.00181516 0)
(0 -0.00412407 0)
(0 -0.00402761 0)
(0 -0.00230602 0)
(0 -0.00459462 0)
(0 -0.00465297 0)
(0 -0.00401579 0)
(0 -0.00401266 0)
(0 -0.00559558 0)
(0 -0.00424437 0)
(0 -0.00534679 0)
(0 -0.00498433 0)
(0 -0.00494576 0)
(0 -0.00503875 0)
(0 -0.00499612 0)
(0 -0.00508471 0)
(0 -0.0051269 0)
(0 -0.00516832 0)
(0 -0.00521094 0)
(0 -0.00444034 0)
(0 -0.00532804 0)
(0 -0.00540389 0)
(0 -0.00538019 0)
(0 -0.00545239 0)
(0 -0.00542342 0)
(0 -0.00547597 0)
(0 -0.0055201 0)
(0 -0.00554413 0)
(0 -0.00248984 0)
(0 -0.00466615 0)
(0 -0.00161097 0)
(0 -0.00151434 0)
(0 -0.00170853 0)
(0 -0.005612 0)
(0 -0.00565576 0)
(0 -0.00566706 0)
(0 -0.00570803 0)
(0 -0.00571552 0)
(0 -0.00575215 0)
(0 -0.00574177 0)
(0 -0.000527438 0)
(0 -0.000516783 0)
(0 -0.00053247 0)
(0 -0.00444903 0)
(0 -0.00436026 0)
(0 -0.00449827 0)
(0 -0.00289628 0)
(0 -0.00302894 0)
(0 -0.00311297 0)
(0 -0.00324212 0)
(0 -0.00332065 0)
(0 -0.00344633 0)
(0 -0.00336842 0)
(0 -0.00302275 0)
(0 -0.0031284 0)
(0 -0.00323314 0)
(0 -0.00333284 0)
(0 -0.00343255 0)
(0 -0.0035265 0)
(0 -0.00342576 0)
(0 -0.00361502 0)
(0 -0.00351157 0)
(0 -0.00105948 0)
(0 -0.00209601 0)
(0 -0.00199217 0)
(0 -0.00184756 0)
(0 -0.00173951 0)
(0 -0.00159291 0)
(0 -0.00147984 0)
(0 -0.00162563 0)
(0 -0.00133232 0)
(0 -0.00144671 0)
(0 -0.00274423 0)
(0 -0.000318554 0)
(0 -0.00112737 0)
(0 -0.00243218 0)
(0 -0.00301647 0)
(0 -0.000266226 0)
(0 -0.000268644 0)
(0 -0.00021399 0)
(0 -0.0022016 0)
(0 -0.0020794 0)
(0 -0.00195346 0)
(0 -0.00182909 0)
(0 -0.00170142 0)
(0 -0.00157497 0)
(0 -0.00170346 0)
(0 -0.00144637 0)
(0 -0.00157022 0)
(0 -0.00144609 0)
(0 -0.00157756 0)
(0 -0.00131698 0)
(0 -0.00145441 0)
(0 -0.00150784 0)
(0 -0.0036712 0)
(0 -0.000972137 0)
(0 -0.00198319 0)
(0 -0.00153086 0)
(0 -0.0044625 0)
(0 -0.00457344 0)
(0 -0.00459259 0)
(0 -0.00469987 0)
(0 -0.00471374 0)
(0 -0.00467777 0)
(0 -0.00480103 0)
(0 -0.00477658 0)
(0 -0.00319369 0)
(0 -0.00350335 0)
(0 -0.00368496 0)
(0 -0.00153814 0)
(0 -0.00271637 0)
(0 -0.00269931 0)
(0 -0.00322894 0)
(0 -0.00109461 0)
(0 -0.00333388 0)
(0 -0.00352651 0)
(0 -0.00343088 0)
(0 -0.00362083 0)
(0 -0.00352741 0)
(0 -0.00473167 0)
(0 -0.00479691 0)
(0 -0.00485816 0)
(0 -0.0049177 0)
(0 -0.00497517 0)
(0 -0.00502858 0)
(0 -0.0049702 0)
(0 -0.0033948 0)
(0 -0.00326987 0)
(0 -0.00192306 0)
(0 -0.003258 0)
(0 -0.00219448 0)
(0 -0.00217377 0)
(0 -0.0023054 0)
(0 -0.001426 0)
(0 -0.00133407 0)
(0 -0.00120339 0)
(0 -0.00178192 0)
(0 -0.00168841 0)
(0 -0.00154799 0)
(0 -0.00144904 0)
(0 -0.0013096 0)
(0 -0.00284938 0)
(0 -0.0055481 0)
(0 -0.00404112 0)
(0 -0.000779936 0)
(0 -0.00297025 0)
(0 -0.00307718 0)
(0 -0.00416248 0)
(0 -0.00375852 0)
(0 -0.00137708 0)
(0 -0.00536401 0)
(0 -0.00173934 0)
(0 -0.00460472 0)
(0 -0.00472134 0)
(0 -0.00461151 0)
(0 -0.00159029 0)
(0 -0.00134464 0)
(0 -0.00338574 0)
(0 -0.00509369 0)
(0 -0.00499825 0)
(0 -0.00501445 0)
(0 -0.0049188 0)
(0 -0.00493343 0)
(0 -0.00483843 0)
(0 -0.00481949 0)
(0 -0.00485007 0)
(0 -0.00494277 0)
(0 -0.00473995 0)
(0 -0.00471841 0)
(0 -0.00485419 0)
(0 -0.00494444 0)
(0 -0.00491456 0)
(0 -0.00199576 0)
(0 -0.00368259 0)
(0 -0.0038391 0)
(0 -0.00372634 0)
(0 -0.00371117 0)
(0 -0.00359756 0)
(0 -0.00357696 0)
(0 -0.00361379 0)
(0 -0.0034863 0)
(0 -0.00350433 0)
(0 -0.0033791 0)
(0 -0.00339762 0)
(0 -0.00327439 0)
(0 -0.00328932 0)
(0 -0.00324978 0)
(0 -0.00314522 0)
(0 -0.00340402 0)
(0 -0.00329134 0)
(0 -0.00339621 0)
(0 -0.00328105 0)
(0 -0.00337808 0)
(0 -0.00326293 0)
(0 -0.00335136 0)
(0 -0.00317574 0)
(0 -0.000459679 0)
(0 -0.000689388 0)
(0 -0.000676329 0)
(0 -0.000757756 0)
(0 -0.000746668 0)
(0 -0.0058268 0)
(0 -0.00579261 0)
(0 -0.00579719 0)
(0 -0.00575989 0)
(0 -0.00576187 0)
(0 -0.00572085 0)
(0 -0.00572157 0)
(0 -0.00576043 0)
(0 -0.0056753 0)
(0 -0.00567225 0)
(0 -0.00571891 0)
(0 -0.00575503 0)
(0 -0.00567367 0)
(0 -0.00571839 0)
(0 -0.000786396 0)
(0 -0.000693555 0)
(0 -0.000606279 0)
(0 -0.00558187 0)
(0 -0.00550883 0)
(0 -0.00554443 0)
(0 -0.00546817 0)
(0 -0.00550183 0)
(0 -0.00541467 0)
(0 -0.00310096 0)
(0 -0.00151808 0)
(0 -0.00152647 0)
(0 -0.00162435 0)
(0 -0.00162816 0)
(0 -0.00173101 0)
(0 -0.00152475 0)
(0 -0.00173481 0)
(0 -0.00183916 0)
(0 -0.00183672 0)
(0 -0.00194699 0)
(0 -0.00194822 0)
(0 -0.00206164 0)
(0 -0.00206538 0)
(0 -0.00195243 0)
(0 -0.00207198 0)
(0 -0.00195923 0)
(0 -0.00208319 0)
(0 -0.00219563 0)
(0 -0.0022107 0)
(0 -0.00209758 0)
(0 -0.00222728 0)
(0 -0.00211486 0)
(0 -0.00224234 0)
(0 -0.00213565 0)
(0 -0.00226274 0)
(0 -0.00216032 0)
(0 -0.00228957 0)
(0 -0.00218623 0)
(0 -0.00231658 0)
(0 -0.00221356 0)
(0 -0.00234597 0)
(0 -0.0022421 0)
(0 -0.00237999 0)
(0 -0.00228046 0)
(0 -0.00241879 0)
(0 -0.00232559 0)
(0 -0.00218047 0)
(0 -0.00246076 0)
(0 -0.00235855 0)
(0 -0.00256017 0)
(0 -0.00376029 0)
(0 -0.0029759 0)
(0 -0.00571846 0)
(0 -0.00177858 0)
(0 -0.00369049 0)
(0 -0.00355018 0)
(0 -0.00366343 0)
(0 -0.00351563 0)
(0 -0.00362652 0)
(0 -0.00340496 0)
(0 -0.00347156 0)
(0 -0.00323278 0)
(0 -0.00330984 0)
(0 -0.000746597 0)
(0 -0.000782602 0)
(0 -0.000838002 0)
(0 -0.00503721 0)
(0 -0.00533193 0)