/*--------------------------------*- C++ -*----------------------------------*\
| =========                 |                                                 |
| \\      /  F ield         | OpenFOAM: The Open Source CFD Toolbox           |
|  \\    /   O peration     | Version:  v2012                                 |
|   \\  /    A nd           | Website:  www.openfoam.com                      |
|    \\/     M anipulation  |                                                 |
\*---------------------------------------------------------------------------*/
FoamFile
{
    version     2.0;
    format      ascii;
    class       volVectorField;
    location    "500";
    object      U;
}
// * * * * * * * * * * * * * * * * * * * * * * * * * * * * * * * * * * * * * //

dimensions      [0 1 -1 0 0 0 0];


internalField   nonuniform List<vector> 
10042
(
(1.05946 0.001701 -1.05271e-21)
(0.845058 0.324001 0)
(1.02628 -0.00814801 -4.09462e-22)
(1.01155 -1.19995e-05 0)
(1.01256 -0.00015152 0)
(0.700937 -0.00235293 -1.50479e-20)
(1.06289 0.113379 0)
(0.886222 -0.0529794 -1.54662e-21)
(1.01491 0.000603767 1.41837e-22)
(0.982197 -0.0121434 -8.52147e-21)
(0.981901 0.0111678 0)
(0.876605 0.320925 8.64876e-21)
(0.992748 0.0179625 0)
(1.0314 -0.00371153 6.86454e-22)
(1.01429 0.00233819 2.15345e-22)
(1.03174 -0.00242793 -6.41261e-22)
(0.740542 -0.15948 1.15587e-20)
(0.982445 0.0163132 -3.11099e-22)
(1.01216 0.0141712 1.1801e-21)
(1.01517 -0.0112264 5.39517e-22)
(0.992963 0.0158817 -2.35462e-21)
(1.05762 0.00793612 8.78865e-22)
(1.01155 3.81699e-06 4.62945e-22)
(0.839624 0.154221 6.30637e-21)
(1.01299 -0.000469131 4.57956e-22)
(1.01055 -0.000165017 -1.44079e-22)
(0.985369 -0.0126224 2.12957e-21)
(1.01469 0.000479941 -6.769e-23)
(0.699963 -0.0394672 1.13454e-20)
(0.79753 0.161409 -4.12388e-21)
(1.01169 -0.000184674 1.43405e-21)
(0.98992 0.0572731 0)
(1.01491 0.000526133 -6.37451e-24)
(1.01488 0.000517574 3.1113e-24)
(0.900403 -0.0638708 -3.69566e-21)
(0.823524 -0.117827 2.22827e-21)
(1.01078 0.000221464 0)
(1.01619 0.00151316 3.87937e-22)
(1.0131 -0.000215104 -5.12622e-22)
(1.01341 -0.0418266 0)
(0.802452 0.170765 -5.03264e-21)
(1.01489 0.000595751 0)
(0.923362 -0.089228 6.08959e-22)
(1.10727 0.0883464 -3.66957e-21)
(1.01213 -0.000237135 2.51202e-22)
(1.01312 -0.00048623 0)
(1.01383 0.000480129 0)
(1.01406 0.00205718 -9.98629e-23)
(0.988753 0.0145408 -3.2385e-21)
(0.961516 -0.292893 2.46802e-21)
(0.933033 -0.115065 2.4819e-21)
(1.01189 -9.33167e-05 -5.44759e-23)
(0.718889 -0.111209 0)
(1.01225 0.0129674 0)
(0.576342 -0.241496 2.29652e-20)
(0.940639 -0.642201 5.81989e-20)
(0.994971 0.0152285 1.07448e-21)
(0.994859 0.00871622 -2.45956e-22)
(1.01154 0.00171438 3.65874e-22)
(1.02016 -0.00410662 0)
(0.985403 0.0129739 5.93196e-21)
(0.552188 -0.017166 1.92496e-20)
(0.934476 -0.0661073 -6.02247e-22)
(0.952028 -0.0236557 0)
(1.02014 -0.183696 -4.85966e-22)
(1.01567 0.00137153 1.09073e-21)
(1.01638 -0.00996494 2.16269e-21)
(1.06778 -0.031106 -5.6624e-22)
(1.01358 0.000436745 -7.35575e-23)
(1.06932 -0.0244883 -2.23539e-22)
(0.902934 -0.176109 0)
(1.01055 -0.00423843 0)
(1.01884 0.0037667 0)
(1.01171 0.00166812 -5.16264e-22)
(1.01522 0.00121539 -5.36183e-22)
(0.897269 -0.14324 -2.86842e-21)
(0.955508 -0.0335244 0)
(1.01378 0.000490453 0)
(0.95482 -0.0261657 7.80652e-22)
(1.0131 0.0150179 5.0743e-22)
(1.13177 0.0838826 -1.34759e-21)
(0.832553 0.162609 0)
(1.00645 -1.44436e-05 -2.04221e-22)
(1.01232 -0.000264765 1.279e-24)
(1.00132 -0.0190497 -1.3917e-21)
(0.971292 0.0391051 9.52853e-21)
(1.01637 -0.00912746 -5.19206e-22)
(1.0255 -0.00797562 2.14358e-22)
(1.01167 -0.00429678 0)
(0.968474 -0.0836408 0)
(1.00147 0.0187947 0)
(1.01463 0.00246273 9.03459e-23)
(0.950855 -0.0613882 -1.7304e-21)
(0.960354 0.043225 -8.87553e-21)
(1.11598 -0.166794 8.37433e-21)
(1.01281 -0.000980731 1.20076e-21)
(0.696396 0.486521 -3.7959e-20)
(1.01533 -0.0103096 -1.08965e-21)
(0.974354 -0.0511398 2.44939e-21)
(1.01203 0.00177231 0)
(1.00259 0.0177927 -6.94117e-23)
(0.965051 -0.01356 -8.06817e-22)
(1.01125 -0.00166613 1.45968e-24)
(1.00237 0.0502754 0)
(1.00696 0.0128956 0)
(1.01159 -0.000821863 6.1791e-22)
(0.791998 -0.565058 6.0179e-20)
(1.01507 0.000733225 1.52407e-21)
(1.03759 0.12614 0)
(1.01141 -0.000763974 0)
(1.01161 0.00121122 0)
(1.01118 0.0986574 -2.75222e-21)
(0.969501 -0.0166552 5.86109e-22)
(0.96708 -0.034007 0)
(1.03531 -0.161208 4.28669e-22)
(1.01329 0.000496715 -8.56587e-25)
(1.02211 0.0356933 0)
(1.01141 -0.000111858 0)
(0.996739 0.00741263 1.22898e-22)
(1.01286 8.6507e-05 0)
(1.01979 -0.0046363 -3.70923e-23)
(0.890605 0.17175 2.456e-21)
(0.902935 0.158677 3.26852e-21)
(1.0122 -0.000261422 -5.02824e-22)
(0.957564 -0.0682537 3.04647e-22)
(1.01078 -0.0045488 -1.1718e-21)
(1.01034 -0.00424302 1.99099e-22)
(0.550095 -0.24793 -2.02884e-20)
(0.840975 0.0327812 0)
(1.01796 0.0379512 1.09829e-21)
(1.01549 0.00169032 3.42243e-23)
(1.01376 0.000655638 1.76113e-24)
(1.00824 -0.00634685 1.32038e-21)
(1.0148 -9.57684e-05 -1.20384e-21)
(0.991365 0.0994347 0)
(1.03711 -0.160657 0)
(1.01888 -0.00871968 1.24958e-21)
(0.696883 -0.285701 0)
(1.01051 0.00663473 2.69223e-22)
(0.982888 -0.046728 -2.68042e-21)
(0.966709 -0.0132736 -5.59967e-21)
(1.01468 0.000427194 -1.79806e-22)
(0.789734 -0.489187 2.94368e-20)
(1.01469 0.000467127 9.27868e-24)
(1.00144 0.00341577 0)
(1.01619 0.00165627 -5.11648e-22)
(1.00221 -0.0177355 6.72556e-21)
(1.0135 0.000292339 -8.1272e-23)
(1.01303 -0.00456024 0)
(0.796441 0.330512 -2.06743e-20)
(1.01463 0.000581039 0)
(1.01377 0.000337867 2.66614e-22)
(1.00973 0.00753175 1.05163e-22)
(0.986232 0.0178227 0)
(1.12284 -0.132589 0)
(1.0009 0.0027914 5.84832e-22)
(0.856764 0.0245191 -4.92578e-21)
(1.03442 -0.557605 -5.99768e-20)
(1.00793 -0.005234 0)
(1.00834 -0.000299364 7.33336e-23)
(1.011 -2.85893e-05 0)
(1.01613 -0.0480782 -3.61993e-23)
(1.07792 -0.128346 -1.37338e-21)
(1.01125 -0.00409577 1.35678e-21)
(1.0113 0.00530457 -1.85673e-22)
(0.774325 0.315245 -5.5509e-21)
(1.01844 0.00385035 7.5776e-24)
(0.997449 0.0507169 -1.62753e-21)
(0.848276 -0.0996467 4.43995e-21)
(1.01483 0.000498251 4.85867e-24)
(1.17253 -0.0499218 0)
(0.779239 0.15412 5.25379e-21)
(0.920275 -0.0145733 0)
(1.01488 0.000492144 4.05859e-22)
(1.01139 0.0122095 -6.86562e-22)
(0.928948 0.0477209 -1.13058e-21)
(1.01299 -0.000423662 0)
(1.01601 0.00158658 4.11019e-22)
(1.01353 0.00042314 -5.91976e-22)
(1.01365 0.000455275 2.21253e-22)
(1.01056 0.00605357 -1.82251e-22)
(1.00492 0.00997893 -1.88418e-22)
(1.01186 0.00186144 -1.17493e-22)
(1.01318 -0.000240637 -1.72355e-22)
(0.960091 -0.166252 2.05112e-22)
(1.00519 0.0264212 0)
(1.01003 -0.00396036 -9.69482e-22)
(1.01997 -0.0032164 -2.7922e-23)
(0.786955 -0.343537 -1.8405e-21)
(1.01582 -0.00013876 0)
(0.84093 0.380714 1.6091e-20)
(0.995309 0.0136297 1.1024e-21)
(1.01558 0.00188482 2.94878e-22)
(1.00578 0.00985826 1.63905e-22)
(0.612904 -0.331836 3.33363e-20)
(1.01477 0.0023335 4.34498e-23)
(0.720578 0.180983 -3.09805e-22)
(1.15254 0.0711487 6.15351e-21)
(0.675202 0.45349 4.20087e-21)
(1.01232 -0.000210486 5.17364e-22)
(0.797892 0.031949 1.31931e-20)
(0.959519 -0.0324051 0)
(1.13528 0.0650704 3.20145e-21)
(1.01394 0.000314991 -9.40262e-23)
(0.982956 -0.0252226 -5.67908e-22)
(1.0092 -0.00657625 8.94763e-22)
(0.818719 0.0930666 0)
(0.98836 0.0167174 0)
(1.01164 0.00102951 5.97059e-24)
(1.01503 -0.000134873 1.53362e-21)
(0.995458 0.0562047 1.86077e-21)
(1.01413 0.000361865 -9.78949e-23)
(1.14761 0.0945351 -2.18488e-21)
(1.12597 0.0230977 1.88479e-21)
(1.0107 8.9091e-05 1.8456e-22)
(1.04997 -0.016664 -1.63025e-22)
(1.01375 0.000292216 0)
(1.02526 -0.206028 0)
(1.0117 7.41395e-05 -4.59551e-22)
(0.812299 0.0176767 -1.27604e-20)
(0.625104 0.2026 1.19039e-20)
(1.16604 -0.0267281 -1.67836e-21)
(0.579921 0.204653 -1.56123e-20)
(1.05825 -0.01727 -1.76529e-22)
(1.0116 -3.42859e-05 -5.90358e-22)
(0.94918 -0.0369615 1.56799e-21)
(1.01356 -0.00334899 9.76602e-22)
(1.01868 -0.00806325 1.38574e-23)
(0.990689 -0.0104007 8.18415e-22)
(1.01101 -0.00147088 1.44007e-21)
(1.01597 0.00170461 -1.14055e-24)
(1.00973 -0.00430345 -8.39131e-22)
(1.00431 0.0248551 5.7012e-22)
(1.00959 1.85809e-05 0)
(1.01304 -0.000435875 6.67522e-22)
(0.860487 -0.0721899 -8.8979e-22)
(1.0197 -0.00648348 -7.29133e-22)
(0.687624 0.486251 1.38901e-20)
(1.00247 0.00332722 -1.65551e-21)
(0.820611 0.156981 -5.24023e-21)
(1.13931 -0.268853 -1.38737e-20)
(0.750704 0.0224208 -2.53247e-20)
(1.0202 -0.0051882 3.49676e-23)
(1.00878 -0.0528693 -6.93143e-22)
(0.744698 -0.282363 1.31686e-20)
(1.01243 -0.000138647 4.34368e-22)
(0.783136 0.055731 5.29743e-20)
(1.00307 0.0027599 1.46224e-21)
(1.00919 0.00772088 -1.35483e-22)
(1.01206 -0.0001797 0)
(1.00816 0.0128133 -3.44669e-22)
(1.01546 0.00195641 -3.01566e-22)
(0.934762 0.0666585 0)
(0.71272 -0.161252 -7.98732e-21)
(1.01329 -0.00418616 0)
(1.01943 -0.00597847 7.35048e-22)
(1.01485 -0.000109753 -1.11512e-22)
(1.01471 -0.00447327 0)
(0.701318 0.497137 0)
(1.01181 5.30248e-06 0)
(0.967414 -0.113087 1.34199e-22)
(1.01716 0.00189643 0)
(1.01192 -0.000110823 5.88791e-23)
(1.01391 0.000581365 -6.988e-23)
(0.990756 0.0187885 -1.06024e-22)
(0.75181 -0.16522 6.93158e-21)
(0.985635 -0.131974 -1.24468e-21)
(0.946421 0.062074 0)
(1.0071 -0.000259518 0)
(1.00948 -0.00489993 1.82575e-21)
(1.01221 0.000268216 -4.69804e-22)
(1.01072 -0.245109 1.82122e-22)
(1.02439 -0.00700321 -9.43563e-22)
(0.848503 -0.208147 0)
(1.01473 -0.00404948 0)
(0.999011 0.00142231 0)
(1.01603 0.00803099 0)
(1.01244 -0.000332575 -2.74947e-22)
(1.0073 -0.000138438 1.06902e-21)
(0.693089 -0.409534 -3.96966e-20)
(1.01473 0.000487583 2.92119e-22)
(0.800279 -0.212829 1.10394e-20)
(0.741965 0.196451 -1.18586e-21)
(1.01579 0.00728994 0)
(1.0082 0.000133149 -2.3869e-22)
(0.483648 0.351945 -7.60384e-20)
(1.00026 0.0340778 2.86888e-21)
(1.01451 0.0010937 1.67679e-23)
(1.0532 0.0202202 -1.23618e-21)
(1.01291 0.000290107 -5.00968e-22)
(0.996807 0.0119219 1.11222e-21)
(1.00114 0.021266 1.18249e-21)
(1.00736 0.000107721 9.28839e-23)
(0.745781 -0.145477 -7.03143e-21)
(0.992227 -0.168533 2.61772e-21)
(1.03095 0.00261369 0)
(1.05084 -0.0461214 2.10594e-22)
(1.01935 -0.00754777 1.40988e-21)
(1.01227 0.000259662 0)
(1.01374 0.000307587 1.62634e-22)
(1.00969 0.00687019 -8.52741e-23)
(1.15224 0.0401545 -3.05819e-21)
(1.02031 -0.00308915 8.84191e-24)
(1.09306 -0.253013 0)
(1.0046 0.0342763 0)
(0.601378 -0.0322035 0)
(1.0263 -0.00866771 5.45544e-22)
(1.00992 -0.061653 1.05329e-21)
(1.05219 -0.0475086 -3.49241e-23)
(0.770374 -0.203301 0)
(1.00956 6.8762e-05 0)
(1.01428 -0.000147518 1.3516e-21)
(1.01266 -0.000857592 -1.29511e-21)
(1.031 0.00143557 1.98239e-22)
(0.998082 0.0197007 3.91829e-23)
(1.04895 0.0251921 8.60906e-22)
(1.01396 0.000548387 2.67099e-23)
(0.959483 -0.167168 2.55133e-23)
(0.794082 0.176168 -1.40747e-20)
(1.01316 0.000300914 0)
(1.00909 5.00513e-05 0)
(0.851747 -0.249889 0)
(1.0007 0.000971162 0)
(1.01824 -0.059112 -1.58487e-21)
(0.959031 -0.131613 0)
(1.00977 8.13132e-05 0)
(1.06347 0.0367749 0)
(1.01323 0.000351712 0)
(1.0191 -0.00697607 1.31662e-23)
(0.997934 0.0114816 -7.42144e-22)
(1.00954 -0.00758766 -1.82651e-22)
(1.01186 3.72935e-05 -4.84599e-22)
(1.04932 -0.000777565 1.62681e-21)
(1.01453 0.000282632 0)
(0.814246 0.127919 0)
(1.06462 0.0200441 2.7197e-21)
(0.83837 -0.529213 0)
(1.0238 -0.0556042 1.15877e-21)
(1.01552 0.00218071 0)
(0.749373 0.264053 1.09691e-20)
(0.974749 -0.015523 -5.76627e-21)
(0.994757 0.0110419 3.9065e-22)
(1.01986 -0.00570843 6.70445e-24)
(1.09084 0.0172213 1.51e-21)
(1.00986 -4.44177e-06 0)
(1.01578 0.00160939 -3.07908e-22)
(1.02123 -0.00587775 0)
(1.01213 -8.24773e-05 9.41473e-22)
(0.999394 0.00651091 2.06121e-21)
(0.679893 0.466342 1.62155e-20)
(1.01498 0.00449648 6.85866e-22)
(1.08423 -0.189042 0)
(0.997827 0.00439762 1.04087e-21)
(1.01863 -0.000686554 -6.32235e-23)
(0.533501 -0.0847531 -2.15266e-21)
(1.07349 0.0440863 0)
(1.01317 -0.00334712 -9.76252e-22)
(1.00393 -1.28806e-05 0)
(0.689546 0.026929 0)
(1.00522 9.74327e-05 0)
(1.01164 -0.000582063 -1.15002e-23)
(1.0107 0.000207461 0)
(1.01088 0.00489177 3.24951e-23)
(0.775601 0.219675 -2.43838e-20)
(0.72447 0.222763 -1.01752e-20)
(1.01126 0.0058363 2.05738e-23)
(1.01217 -0.000116448 -5.67596e-22)
(0.997777 0.000178404 6.87103e-22)
(0.998865 0.00236564 -7.18668e-22)
(0.520444 -0.104147 4.65488e-20)
(1.01983 -0.00366042 0)
(1.00618 1.42941e-05 0)
(1.02464 -0.0081185 -4.92935e-22)
(1.01542 -0.000714183 0)
(0.972558 0.0283485 0)
(1.02466 -0.0123157 2.4171e-21)
(0.998611 0.00385386 2.3079e-22)
(1.24861 -0.165593 -4.72386e-21)
(0.841105 -0.232765 0)
(0.97915 0.0266604 0)
(1.01187 -0.000460503 5.14455e-22)
(1.21569 -0.229039 1.98304e-20)
(0.992002 -0.0130977 -8.08396e-22)
(1.01306 0.000136328 -1.21588e-21)
(0.97103 0.0237513 1.22486e-22)
(1.013 0.000334726 0)
(1.01189 -6.8155e-05 0)
(1.01292 -0.000122737 0)
(1.01005 0.000480127 0)
(1.01449 0.000987906 -7.13299e-23)
(1.0152 -0.00394779 7.0171e-22)
(0.610319 -0.353784 8.65666e-20)
(1.01453 0.00430758 5.87804e-22)
(1.0429 0.0473587 0)
(0.709296 0.166551 1.71531e-20)
(0.704424 -0.126568 1.45747e-21)
(1.01164 -1.54643e-06 -4.60745e-22)
(0.926197 -0.0507414 2.28222e-21)
(1.01018 0.000186536 -2.93975e-22)
(0.986759 0.0532585 -1.63003e-21)
(1.0119 -6.57925e-05 -1.23015e-22)
(0.512318 0.275519 -2.70086e-21)
(1.00045 0.00968085 -1.15054e-23)
(0.572869 -0.168948 -1.48803e-20)
(0.718807 0.528216 -5.13245e-20)
(1.01856 -0.00108533 6.77551e-23)
(0.979968 -0.00965647 -4.91416e-21)
(1.01977 -0.0029824 -1.32855e-22)
(1.15466 -0.228244 6.85456e-21)
(1.01516 -0.00356355 3.40148e-22)
(0.857376 -0.14756 2.05481e-21)
(1.00058 0.00636489 -2.43212e-21)
(0.753786 -0.0622868 -9.17729e-21)
(1.01431 0.0038521 0)
(0.98619 -0.0200022 -5.02301e-22)
(1.01606 0.00594963 2.42199e-22)
(0.999072 0.00266079 2.12551e-21)
(0.508356 -0.136645 -3.53729e-20)
(1.01428 0.000690328 0)
(1.01591 0.00522723 1.9124e-21)
(1.01437 0.000365208 9.35051e-23)
(0.69545 0.117719 -2.19841e-20)
(1.01573 0.00170878 0)
(1.01314 -0.000460577 -3.47051e-24)
(0.958379 -0.0173625 6.7039e-21)
(1.02238 0.00388208 -1.76619e-22)
(0.995979 -0.0180456 -2.78721e-21)
(0.870049 -0.128087 1.67646e-21)
(1.01184 -6.3179e-06 -5.43956e-22)
(0.99426 0.0121968 -3.99005e-22)
(1.02176 0.00440405 -3.73452e-22)
(1.01381 0.000644742 0)
(1.00013 0.00578092 2.53293e-21)
(0.817234 -0.120434 -9.87333e-21)
(1.019 -0.00272118 6.20598e-23)
(1.01105 0.00437611 -7.20221e-24)
(1.0155 0.388563 3.6458e-20)
(0.996714 0.00469144 -1.27757e-22)
(1.00894 0.000104893 0)
(0.828734 -0.561731 1.7532e-20)
(1.01474 0.000463529 1.89667e-22)
(0.99785 0.015788 1.20137e-21)
(1.02373 -0.00908064 0)
(0.78522 -0.28878 3.79589e-21)
(1.0066 -0.203138 -2.02631e-22)
(0.965242 -0.178009 1.20909e-23)
(0.990748 -0.0233577 0)
(1.08489 -0.0871186 1.45899e-21)
(0.931721 -0.0312612 -2.11548e-21)
(1.01295 -0.000856402 -4.71825e-23)
(1.00136 -0.00112224 3.41174e-22)
(1.0626 -0.0181813 -4.09725e-24)
(1.06171 -0.011974 -3.21195e-22)
(0.97513 0.0234005 0)
(1.01154 1.29911e-05 0)
(1.02125 -0.00671229 0)
(1.06623 -0.160491 -2.2115e-21)
(0.687845 -0.264489 -1.68897e-19)
(1.01311 -9.25689e-05 1.81038e-22)
(1.01719 -0.0256527 4.5314e-22)
(1.01017 5.67375e-05 -7.44115e-22)
(1.01169 -5.42921e-05 5.29754e-22)
(1.0115 0.00351302 6.86237e-24)
(1.01105 0.00408798 -4.77347e-25)
(1.01014 -0.000132222 0)
(1.0046 6.14467e-05 0)
(1.06884 0.0132949 8.63244e-22)
(1.01745 0.00756408 -9.86044e-22)
(0.995534 0.0145354 -7.35562e-22)
(1.16106 -0.0951567 7.32773e-21)
(1.10647 -0.050661 -4.2638e-22)
(1.01588 0.000344814 8.15389e-23)
(0.400232 0.0797165 0)
(1.07083 0.302363 -7.67016e-21)
(0.897926 -0.206637 6.27478e-21)
(1.01513 0.000319911 -2.78369e-22)
(1.01681 0.0271111 -2.48207e-21)
(1.01043 8.01805e-05 0)
(0.725529 -0.10477 -1.12998e-21)
(1.01228 0.000475224 0)
(1.13731 0.0693224 -6.83112e-21)
(1.01391 0.0036792 -3.51308e-22)
(0.973392 -0.0770428 2.29496e-21)
(1.01436 0.000394081 0)
(1.00891 0.0139933 -1.31415e-21)
(1.01965 -0.026331 -3.25865e-22)
(1.00289 -0.00129508 3.76326e-24)
(0.968273 -0.0574864 7.21355e-22)
(1.01036 0.000167946 1.44447e-22)
(1.01415 -0.000686941 0)
(1.01452 -0.000173516 -1.08005e-21)
(1.08442 0.196584 2.27896e-21)
(1.01696 0.00191475 4.51213e-22)
(1.11675 0.0380217 2.66817e-22)
(1.02354 -0.00970653 9.52614e-23)
(0.986339 -0.00940287 -1.00738e-20)
(1.01812 -0.000349887 -7.64133e-23)
(1.13663 0.0391963 0)
(0.740009 -0.124548 0)
(1.09563 0.206085 5.01029e-21)
(1.01183 0.000882885 -6.03846e-24)
(1.00984 -1.41883e-05 0)
(0.789556 -0.124958 2.77687e-20)
(1.05598 0.200434 -3.55149e-21)
(0.994699 0.00824193 5.00496e-21)
(0.895206 0.112382 1.22711e-21)
(1.01487 -0.000220028 0)
(0.968187 -0.163875 1.20753e-22)
(0.99813 -0.0106615 2.77261e-21)
(0.998552 -0.00392006 0)
(1.00465 0.00263962 -8.05272e-23)
(0.837247 0.0653674 1.72659e-21)
(1.01772 -0.00040233 5.0433e-23)
(1.01159 1.2036e-05 -2.5143e-22)
(1.01109 -0.000310747 -6.29691e-22)
(0.749553 -0.14755 -9.0813e-23)
(1.01208 -0.000203609 -1.19974e-24)
(1.19827 -0.210762 -1.39419e-20)
(1.01164 -3.54666e-05 -1.03715e-21)
(1.01211 0.00100599 -3.99557e-22)
(1.01556 8.69889e-05 0)
(0.999201 0.00150095 2.09306e-22)
(0.908448 0.128974 1.23679e-21)
(1.01097 -0.00111695 -8.89638e-22)
(1.01075 0.00399863 -1.6168e-22)
(0.913525 0.224556 0)
(1.16597 0.0399245 0)
(1.01053 -0.0217853 0)
(1.01107 -0.000919987 -3.1348e-22)
(1.01438 0.00113217 0)
(0.962979 -0.16468 -1.32749e-22)
(1.11833 0.152745 -6.18513e-21)
(1.01178 -0.000414954 -5.33899e-22)
(1.01529 0.00111259 1.05988e-22)
(1.02452 -0.0100433 7.71116e-23)
(1.01285 -0.00109567 0)
(1.01197 -0.000219696 -6.3941e-22)
(1.02612 -0.0453481 0)
(1.01556 0.00161285 0)
(0.724496 -0.240797 -8.63948e-21)
(1.01216 -0.000128532 8.92148e-22)
(0.987927 -0.0096676 0)
(1.01042 -0.00608498 -2.71681e-24)
(0.559154 0.27087 6.25806e-21)
(1.01205 -0.000191914 0)
(1.01299 0.0269998 -3.77127e-22)
(1.0115 9.06358e-05 2.22404e-22)
(1.01805 0.00310537 0)
(0.929862 0.20851 0)
(1.02037 -0.00637361 -4.19877e-23)
(0.959834 0.0320726 5.09908e-20)
(0.995048 0.00849171 -5.2191e-21)
(1.01488 0.000796445 -3.34438e-22)
(1.03945 0.0309879 -2.10626e-22)
(0.862672 -0.50559 -3.64348e-20)
(1.03233 -0.138837 1.05673e-21)
(1.14413 -0.101485 -7.36029e-21)
(1.01419 0.000321625 0)
(1.01527 0.0012066 -1.08291e-22)
(1.01347 1.77169e-05 1.49648e-24)
(1.01134 0.00825735 0)
(1.00506 -0.00304427 0)
(1.01129 -0.000440826 6.25845e-22)
(1.06301 0.0314909 4.19429e-22)
(1.01242 -0.000726211 -1.59378e-21)
(1.01921 -0.00185088 -1.41119e-23)
(0.570423 0.47023 0)
(1.0063 0.0119109 0)
(1.00372 -0.00302498 1.18814e-22)
(1.00838 3.49847e-05 0)
(1.01317 -0.000614343 -1.67863e-21)
(0.564779 0.399259 -6.67234e-21)
(0.797866 0.228317 1.16526e-20)
(1.0114 -0.00568636 9.70281e-24)
(0.840563 0.0224331 -7.72011e-21)
(1.01214 0.000130413 -2.74474e-22)
(1.00909 0.026429 -2.09046e-21)
(1.01622 0.000905591 3.51975e-23)
(1.01488 0.000795046 3.22702e-22)
(1.01486 0.000134545 -2.79685e-22)
(1.01431 -4.26231e-05 -1.34705e-21)
(1.01161 -9.04131e-05 0)
(1.0155 -4.14987e-05 1.26609e-21)
(0.516958 0.344082 3.38214e-20)
(1.01338 0.00309189 1.23038e-22)
(0.985733 -0.0446175 0)
(1.0123 -0.000303108 2.58585e-24)
(1.01438 -0.00618763 0)
(1.01403 0.000630366 0)
(1.00929 -0.0242592 -2.13369e-21)
(1.06443 -0.26935 0)
(1.01489 0.000876032 1.15929e-22)
(1.01235 -0.000305547 0)
(0.956131 -0.140102 0)
(1.16452 0.0076899 1.69239e-21)
(1.0142 0.000678172 8.49057e-23)
(0.808348 -0.233806 5.67351e-21)
(1.01226 -0.000125585 -6.38445e-22)
(1.04842 0.0101146 -1.87042e-21)
(1.01636 0.00155045 0)
(1.01075 2.72282e-05 0)
(1.01775 0.00287017 0)
(0.688952 0.0701748 -4.67883e-21)
(1.01407 0.000578166 0)
(1.01445 -0.00924065 0)
(1.02621 -0.0132924 -1.13726e-21)
(0.786222 -0.271803 -1.99676e-20)
(1.01278 -0.000387027 0)
(1.01464 0.000172727 0)
(1.01537 0.000135988 3.77163e-23)
(1.02936 -0.00417754 3.59368e-23)
(1.01168 -2.8306e-05 4.81516e-22)
(1.01281 -0.000469441 1.79472e-21)
(1.01468 0.000403621 3.93834e-22)
(1.01282 -0.000499194 -2.18949e-21)
(1.00403 0.00316809 0)
(1.01305 -0.000440815 0)
(1.01501 -0.00560613 0)
(1.01646 0.000864034 0)
(0.725517 0.507118 2.19442e-20)
(1.10411 0.0483588 4.92447e-21)
(0.988875 -0.0300112 -8.39766e-24)
(1.01557 -0.0034342 3.40052e-22)
(1.01824 0.0193524 6.1677e-22)
(1.01176 6.36356e-05 0)
(1.03384 -0.0321752 9.80914e-22)
(1.01059 6.07747e-05 -6.62175e-22)
(0.797346 0.173527 5.59733e-21)
(1.05081 0.113004 7.8133e-22)
(0.994647 -0.0192539 8.14022e-23)
(1.04623 0.0148641 0)
(0.787322 0.12846 -1.3768e-20)
(1.01205 0.000117163 2.89523e-22)
(1.01183 -9.28299e-05 4.91923e-22)
(0.77121 -0.00375641 4.20746e-22)
(1.02753 -0.00531112 0)
(1.05505 0.0388174 4.53946e-22)
(0.923601 0.0516174 -2.07952e-21)
(1.01262 0.00216928 1.39634e-22)
(0.845928 0.243221 1.49864e-21)
(1.01268 -0.00203885 1.2013e-21)
(1.01167 0.000589257 0)
(1.0161 0.000309308 -7.36236e-23)
(1.01674 0.00173925 -5.59205e-23)
(1.01098 -2.47009e-05 0)
(0.771888 -0.0426225 0)
(1.01513 0.00699412 0)
(1.01046 -0.000177131 -7.25658e-23)
(0.508324 -0.228841 0)
(1.01249 -0.000580269 0)
(1.03033 -0.036201 0)
(1.01725 -0.0386736 -1.77078e-22)
(1.01689 0.0069759 0)
(1.10808 0.0175709 -1.49747e-21)
(1.01552 -0.000277125 7.16148e-22)
(0.800782 0.150656 0)
(1.01159 -0.000189553 0)
(1.01403 -0.000184472 -1.09731e-21)
(0.984637 -0.037552 0)
(1.01202 0.00104174 3.62358e-22)
(1.01968 -0.0022467 3.99795e-25)
(1.01039 -0.000249473 -1.08019e-21)
(1.01233 -0.00198155 1.27146e-21)
(1.01286 -0.00125883 0)
(0.956597 0.0044316 -3.21979e-22)
(1.02592 -0.0517687 1.44022e-21)
(1.08396 0.0544821 -1.77972e-21)
(1.01412 0.00183664 1.7453e-23)
(1.01194 -0.0039374 0)
(1.01247 -0.0015404 1.25234e-21)
(0.812734 0.236426 -1.0967e-21)
(1.01056 -0.00488807 0)
(1.01482 0.00136721 -6.31678e-22)
(1.01331 0.000211789 0)
(1.0191 -0.0053649 0)
(0.76402 0.160378 -4.84304e-21)
(0.964179 -0.329633 -1.86933e-21)
(0.967508 -0.0891692 -1.7197e-22)
(1.01389 -0.00373675 7.84605e-22)
(1.00728 -2.32837e-05 5.19765e-22)
(0.75964 0.492188 2.80666e-20)
(1.01105 0.0278469 -3.03536e-21)
(0.998646 0.00915213 -1.6649e-21)
(1.00274 -0.0213326 -7.4641e-22)
(0.966474 -0.0995893 1.37338e-22)
(0.629119 -0.075467 0)
(0.774313 0.20219 2.05698e-20)
(1.01277 -0.0023047 1.1618e-21)
(1.01511 0.00024014 5.2456e-22)
(1.01158 0.000250602 0)
(0.981432 -0.0210778 -3.70926e-22)
(1.0129 -0.00232932 -1.28032e-21)
(1.01744 0.0221477 0)
(1.00871 -0.00229751 9.00701e-22)
(1.02002 -0.00695996 3.6009e-23)
(1.08222 0.0251449 -2.21629e-22)
(1.0048 -0.00318393 2.17381e-22)
(0.642346 0.00383305 0)
(0.699381 0.194479 0)
(1.01433 0.0011636 -1.16023e-22)
(1.01216 -0.000250792 7.94293e-22)
(1.01327 -0.000824963 -3.92343e-22)
(0.964654 -0.171178 2.73997e-23)
(1.01656 0.00172069 4.6492e-22)
(0.815615 -0.187667 -1.38531e-22)
(0.998985 -0.00159415 -2.08146e-21)
(0.849126 -0.350078 -1.45709e-21)
(1.01204 -0.00317921 -1.35487e-21)
(1.02687 0.00661636 6.36703e-23)
(1.01492 0.000956245 1.40218e-22)
(1.01159 -7.25992e-07 0)
(1.0119 -2.3765e-05 9.89735e-22)
(1.02142 -0.0161837 1.28587e-22)
(1.01236 0.000472777 4.06919e-22)
(1.01327 0.00372674 2.52625e-22)
(1.05139 0.0481495 0)
(1.01008 0.0137785 1.22018e-21)
(0.985482 -0.0119968 0)
(1.01188 9.051e-06 1.18922e-22)
(1.02755 -0.00770306 0)
(0.972587 -0.0843523 0)
(1.00973 1.56305e-06 0)
(1.08184 -0.620673 6.0483e-21)
(1.01237 -0.000390766 1.40765e-22)
(1.01962 -0.0134974 2.11954e-23)
(1.00052 0.0121796 5.65314e-22)
(1.01333 0.000185477 0)
(0.86232 -0.00792257 7.92753e-22)
(1.00906 -0.00177062 -1.51894e-21)
(1.01547 -0.00308661 -1.37783e-21)
(1.01573 -1.2039e-05 -4.26275e-23)
(0.731813 -0.461732 -3.98824e-20)
(1.02563 0.00617918 -3.55645e-22)
(0.989242 -0.0204795 -1.24636e-21)
(0.99578 0.00808372 3.85498e-21)
(1.0118 -0.00341576 0)
(0.958792 -0.0146822 -3.48719e-21)
(0.980712 -0.0283373 3.70136e-22)
(1.02241 -0.0384938 4.57639e-23)
(1.01931 0.00406915 0)
(0.926452 0.0404665 -4.30748e-21)
(1.00355 1.1797e-05 0)
(1.12268 -0.119464 0)
(1.03942 0.0409012 0)
(0.961759 -0.0239989 -8.4349e-22)
(1.08553 0.0403316 1.89133e-21)
(1.01388 0.00158453 -2.73855e-23)
(1.0118 0.00103321 -4.0954e-22)
(1.01582 0.000718511 0)
(1.00639 -0.0134459 1.69313e-21)
(0.995488 0.011119 5.91482e-22)
(1.05358 -0.0722874 5.78853e-22)
(1.03227 0.0630786 2.53304e-21)
(1.02057 -0.00769901 0)
(1.00895 0.00879518 3.13203e-22)
(1.01062 5.97788e-05 5.03715e-22)
(1.02402 -0.00873107 -4.7244e-22)
(1.00355 -3.72404e-06 0)
(0.78833 -0.180821 -1.39649e-20)
(1.01476 0.00301809 4.28464e-23)
(1.01176 -0.000626538 -5.68817e-22)
(1.0689 0.120775 -1.65844e-21)
(1.01219 -0.00253478 -1.75283e-22)
(0.93695 0.0371996 5.19533e-21)
(0.997112 -0.00340808 2.98545e-21)
(1.00755 9.70478e-05 -5.41224e-22)
(0.988417 -0.0289853 -2.00276e-22)
(1.02393 0.0102912 5.44609e-23)
(1.01295 -0.00731541 -4.19816e-23)
(1.00328 -0.00725783 -2.22238e-22)
(0.994716 -0.0131005 -7.25473e-22)
(1.02635 -0.00997593 5.13052e-22)
(0.644355 -0.122134 9.13876e-22)
(1.01315 0.00331681 -7.39706e-24)
(0.996717 -0.0151817 1.81458e-21)
(1.01792 0.0238332 8.50801e-22)
(0.99271 0.0731873 0)
(1.00475 -0.00788837 -1.66757e-21)
(0.999587 -0.002755 0)
(0.980289 -0.015293 0)
(1.01298 0.00396265 -2.55996e-22)
(0.996115 0.007775 -1.91815e-21)
(1.01472 0.000473321 -1.0418e-23)
(0.996011 -0.0106005 0)
(1.01568 -0.0107056 2.68524e-21)
(1.01488 0.003679 -4.84674e-22)
(1.02848 0.00640008 0)
(1.01175 2.07485e-05 -2.12653e-22)
(1.01104 0.00782434 -2.15721e-23)
(0.993256 0.00818227 6.87888e-22)
(1.01191 -0.000152647 0)
(1.0134 0.00205363 0)
(0.959891 -0.188516 3.12574e-22)
(1.01476 0.00043273 -1.99576e-23)
(1.01197 -0.00271698 6.78676e-22)
(1.01218 -0.000255651 1.06012e-21)
(1.01297 -0.000562572 2.34974e-22)
(0.95772 -0.0900397 0)
(1.019 -0.00523935 2.34133e-22)
(1.01515 -0.00538658 -1.65613e-21)
(1.03218 0.0158902 5.57553e-22)
(0.948413 -0.182935 0)
(1.01194 -0.000185149 -3.14967e-24)
(1.0004 0.00717261 2.07675e-22)
(1.18574 -0.178644 -3.19681e-20)
(1.01912 -0.00477637 0)
(1.01113 -0.0085719 0)
(1.01311 -0.000983904 1.71513e-22)
(0.898931 0.160858 -1.1357e-21)
(0.975391 -0.102367 2.1152e-22)
(1.00656 0.0107854 0)
(1.01406 -0.000556954 0)
(0.989463 0.00638098 5.24211e-21)
(1.09885 0.126661 0)
(0.461603 -0.28533 0)
(1.00219 -0.00256861 0)
(0.921265 0.174287 0)
(1.09079 -0.0256169 -3.54126e-21)
(0.983896 -0.0343851 -2.04052e-21)
(1.02268 0.0115098 0)
(1.02054 -0.0176243 -1.2714e-22)
(1.00779 0.00993724 0)
(0.978348 0.00320445 2.28955e-21)
(1.01975 -0.036089 1.75088e-21)
(1.01373 0.00327246 -2.43922e-22)
(0.394037 0.0169829 -5.04924e-20)
(0.96053 -0.013283 0)
(0.992904 -0.0333604 1.93301e-22)
(0.863091 -0.0480894 -7.85098e-22)
(1.02055 -0.0149432 8.57341e-23)
(0.961124 -0.0528266 -2.31475e-22)
(0.952436 -0.0950675 4.77241e-20)
(1.02971 -0.0196531 4.16405e-22)
(0.758241 -0.202399 -1.09555e-20)
(1.00522 -0.013445 0)
(0.437168 0.28367 -2.72025e-21)
(1.01522 -0.00487148 8.16974e-22)
(0.765065 0.209798 -1.30849e-20)
(1.01193 0.000890792 4.00812e-22)
(1.02983 0.0156934 0)
(1.01104 -0.000119298 -8.69239e-22)
(1.02438 0.0221545 -1.04578e-21)
(1.01916 -0.00319476 0)
(1.01157 0.000757969 -5.69481e-24)
(1.0123 -0.000293873 0)
(0.888206 -0.213183 -7.5183e-22)
(1.00944 -0.00353146 -8.337e-22)
(1.02018 -0.0083788 -6.16731e-23)
(0.549794 0.468319 -1.20819e-20)
(1.01201 0.000677109 -1.12008e-22)
(1.00305 0.0150975 0)
(1.00115 -0.00122317 0)
(1.05839 -0.0628943 0)
(1.01361 -0.000725941 1.79991e-23)
(1.01025 0.00406672 -2.02122e-22)
(1.01534 -0.00201754 0)
(1.00882 -0.00865661 1.52542e-21)
(1.01238 -0.000505546 4.79111e-22)
(1.01635 0.0250866 3.11172e-21)
(1.01282 -0.00127205 0)
(0.885073 0.50775 -2.3953e-21)
(0.957258 -0.0165445 0)
(1.02363 -0.00846888 1.14053e-22)
(1.00898 -0.00330821 -8.87606e-22)
(1.07681 0.0327899 5.16886e-22)
(1.01318 -0.00164397 -1.04375e-21)
(0.938987 0.0272205 1.79893e-21)
(0.964589 -0.147842 0)
(0.992448 0.0120534 2.24056e-23)
(1.01251 -0.000657279 0)
(1.0134 0.000451714 -9.19573e-23)
(1.0095 -0.00977965 0)
(1.01063 0.000102205 -5.0419e-22)
(1.01921 -0.140704 -3.85045e-22)
(1.01761 -0.0223952 -1.50126e-21)
(1.01235 -0.00164445 -1.28874e-21)
(0.987758 0.0537221 -9.52899e-23)
(1.01329 0.000254361 0)
(1.01153 2.17502e-05 0)
(0.825512 0.133442 -8.09988e-21)
(1.01368 -0.000435307 0)
(1.01143 9.90684e-05 -2.68699e-22)
(0.979354 0.0274331 -8.15776e-22)
(1.01238 -0.000284972 1.01694e-21)
(1.0414 -0.00703798 0)
(1.01114 0.00714713 0)
(0.998527 -0.0331528 3.0122e-21)
(1.00417 0.0183962 1.61266e-22)
(1.01782 -0.0199264 1.48994e-21)
(1.04298 0.0349425 1.60172e-22)
(1.01254 -0.000854088 1.20034e-21)
(0.865016 0.446456 -1.41006e-20)
(0.820826 0.463791 0)
(1.01238 -0.000318525 -2.20637e-21)
(0.999498 -0.0120515 0)
(0.652777 -0.055837 3.08407e-21)
(0.925665 0.464906 7.60536e-21)
(0.97559 0.0800905 0)
(1.00842 5.35501e-05 0)
(1.02194 0.00506658 3.21825e-22)
(0.975968 -0.0172263 6.72409e-22)
(1.01154 -0.000301993 0)
(1.02078 0.0108055 0)
(0.984556 0.230084 -1.49086e-20)
(1.01679 0.0187519 1.70291e-21)
(1.01336 -1.22346e-05 -1.60432e-22)
(0.996367 0.035779 0)
(0.891215 -0.254515 -4.62729e-21)
(0.975058 -0.088133 2.48069e-23)
(1.01352 0.000164809 0)
(1.01344 -0.000901508 3.82001e-22)
(1.00977 -3.82999e-05 2.92795e-23)
(1.01246 0.00233137 0)
(0.747972 -0.14448 -1.42436e-20)
(0.967689 0.0137079 0)
(1.01574 -0.000583154 5.16621e-23)
(1.01284 0.0212879 0)
(0.940555 -0.0925802 -1.97553e-21)
(1.01608 0.000554572 -6.53564e-22)
(1.0097 5.5387e-05 8.29123e-22)
(0.472818 -0.349236 5.27198e-20)
(1.01001 -0.00577791 0)
(1.10762 0.153366 0)
(1.01639 0.0109707 0)
(1.01599 -3.26097e-06 -7.82276e-22)
(1.01377 0.00195945 -6.71117e-23)
(1.01914 -0.00441708 0)
(1.02385 -0.033703 -1.38931e-21)
(1.0329 -0.017024 2.39802e-22)
(1.01534 0.000521748 -6.51713e-22)
(0.854293 0.00558852 0)
(1.00229 -0.184592 0)
(1.0498 0.0373583 0)
(1.00739 0.0104681 0)
(1.00999 -0.0051975 0)
(0.4179 -0.212149 0)
(0.990491 0.0381201 1.88321e-21)
(0.876633 -0.0913994 -5.52431e-21)
(1.00752 0.0400906 9.79903e-22)
(1.01188 -0.000297374 8.06093e-24)
(1.01268 0.000151731 -8.87215e-24)
(1.02783 0.0587921 7.69668e-23)
(1.07182 -0.181887 -1.16491e-21)
(1.01652 0.00449021 -3.03295e-21)
(1.01284 0.0196347 -1.93848e-21)
(0.983099 0.0415108 -4.88162e-22)
(1.01597 -0.0119353 -1.39725e-21)
(1.02494 -0.00846901 4.87362e-23)
(1.01709 0.00438248 2.18677e-21)
(1.01202 -0.00842971 0)