/*--------------------------------*- C++ -*----------------------------------*\
| =========                 |                                                 |
| \\      /  F ield         | OpenFOAM: The Open Source CFD Toolbox           |
|  \\    /   O peration     | Version:  v2012                                 |
|   \\  /    A nd           | Website:  www.openfoam.com                      |
|    \\/     M anipulation  |                                                 |
\*---------------------------------------------------------------------------*/
FoamFile
{
    version     2.0;
    format      ascii;
    class       volScalarField::Internal;
    location    "500";
    object      V0;
}
// * * * * * * * * * * * * * * * * * * * * * * * * * * * * * * * * * * * * * //

dimensions      [0 3 0 0 0 0 0];


value           nonuniform List<scalar> 
10042
(
0.190982
0.0798997
0.0870281
0.136284
0.171381
0.145095
0.0585179
0.15839
0.188528
0.0524321
0.141994
0.0787551
0.0492102
0.152491
0.0844427
0.15399
0.116591
0.131648
0.0657744
0.0996849
0.0484057
0.199808
0.144043
0.132383
0.165061
0.175848
0.0678274
0.195821
0.143287
0.110291
0.153306
0.0346632
0.175862
0.165665
0.156091
0.142098
0.172278
0.15431
0.145372
0.205028
0.141366
0.176441
0.0387047
0.107919
0.138965
0.122621
0.169332
0.10313
0.0509092
0.0442421
0.0403827
0.164636
0.111521
0.0607575
0.0643236
0.0338794
0.0467243
0.167095
0.0838334
0.192609
0.0577307
0.0628515
0.0390495
0.149877
0.138197
0.151145
0.0877151
0.142415
0.126575
0.140204
0.0367704
0.105119
0.160798
0.0859922
0.150758
0.0349376
0.116938
0.160578
0.111236
0.0598599
0.0986958
0.126652
0.186957
0.165293
0.0729374
0.0498924
0.0927524
0.0875427
0.139925
0.138818
0.0454107
0.0779169
0.0380845
0.0588742
0.132997
0.113278
0.0148279
0.0892886
0.115786
0.0856135
0.0502338
0.059669
0.0982333
0.0351071
0.0595806
0.0994933
0.0330778
0.159673
0.0547355
0.101752
0.114267
0.0543147
0.0744124
0.14857
0.137905
0.165438
0.109683
0.172664
0.158777
0.171908
0.170869
0.064829
0.0652158
0.137388
0.10763
0.158107
0.11944
0.0620986
0.0239338
0.117379
0.171096
0.128119
0.153886
0.134283
0.0466436
0.0427286
0.0899691
0.0339863
0.0749966
0.123854
0.0430002
0.166605
0.0394055
0.198213
0.0615617
0.145278
0.0716426
0.164405
0.0928991
0.0847152
0.143425
0.16444
0.0636461
0.035677
0.134671
0.0604471
0.0280191
0.0325974
0.146115
0.130723
0.165905
0.185489
0.0427391
0.140886
0.0790457
0.116013
0.188923
0.0423541
0.168778
0.13544
0.138379
0.105792
0.0813601
0.160241
0.0578507
0.07544
0.114015
0.172863
0.143511
0.116727
0.0788395
0.0501917
0.0801049
0.173318
0.180196
0.0423257
0.0955311
0.141104
0.0355575
0.154621
0.0695234
0.0477907
0.164683
0.057859
0.0620124
0.0720248
0.0206105
0.145208
0.0180589
0.141908
0.0235607
0.0411296
0.0937538
0.128482
0.117515
0.135652
0.132301
0.0439837
0.113425
0.0980787
0.0371666
0.133149
0.0927341
0.099164
0.176263
0.147056
0.15301
0.0994
0.146902
0.0280825
0.0220829
0.137588
0.0271893
0.132844
0.111524
0.0362124
0.101194
0.0848066
0.0770446
0.0715251
0.167714
0.120474
0.0426873
0.131852
0.110133
0.182532
0.0903328
0.0207447
0.0605055
0.136738
0.0967091
0.133326
0.17752
0.162622
0.0664658
0.171095
0.139158
0.0778981
0.0491736
0.144791
0.0648722
0.158329
0.105173
0.0526351
0.111418
0.0954894
0.128668
0.101883
0.0102106
0.150197
0.1312
0.151845
0.151926
0.173774
0.0407029
0.0696119
0.137021
0.102483
0.154616
0.108543
0.100874
0.0421803
0.145212
0.0348537
0.10637
0.161602
0.0669081
0.130091
0.147366
0.0571153
0.1402
0.143285
0.0187628
0.0744323
0.175123
0.0227965
0.108508
0.154689
0.164721
0.136325
0.0472806
0.111506
0.173765
0.13273
0.129373
0.120436
0.0694028
0.100991
0.0956988
0.151922
0.0685022
0.0927843
0.127242
0.0911532
0.0930453
0.0480581
0.156506
0.164342
0.0660076
0.123252
0.141997
0.130332
0.130899
0.11204
0.109677
0.16488
0.113904
0.143148
0.137659
0.160482
0.147865
0.0354579
0.155384
0.12821
0.177384
0.168787
0.13567
0.128529
0.0919292
0.0460307
0.135404
0.110974
0.161059
0.157242
0.135257
0.163451
0.0331715
0.126844
0.155249
0.118372
0.0415696
0.0480916
0.172181
0.144213
0.162637
0.172137
0.144286
0.15672
0.125454
0.0170903
0.0720606
0.135188
0.120683
0.144989
0.0708163
0.140094
0.101955
0.169788
0.0261264
0.166935
0.106089
0.158544
0.0765654
0.14123
0.107125
0.0730865
0.144513
0.127832
0.125538
0.0603842
0.145119
0.162399
0.140199
0.164122
0.0545573
0.130713
0.155933
0.0949978
0.0651074
0.0462876
0.113693
0.0921571
0.0780453
0.138173
0.0285286
0.16542
0.154778
0.165512
0.105314
0.148199
0.111583
0.0265856
0.0730189
0.143184
0.106159
0.0525873
0.136193
0.153909
0.129779
0.0266211
0.144698
0.0235447
0.148564
0.0707077
0.0238654
0.135187
0.0398722
0.147816
0.100187
0.112907
0.109253
0.054229
0.13456
0.0766026
0.149986
0.101107
0.0740798
0.0609602
0.143843
0.0909503
0.15247
0.095204
0.163332
0.166354
0.0360657
0.101207
0.0852542
0.108469
0.126794
0.0470583
0.100168
0.139913
0.0536003
0.0990324
0.137468
0.0751363
0.0416376
0.152557
0.156903
0.0326294
0.163527
0.11446
0.0893979
0.0319219
0.0380413
0.173403
0.141411
0.0403166
0.147983
0.169454
0.15388
0.0658637
0.0724762
0.0336958
0.109478
0.140233
0.140208
0.0261949
0.16498
0.137084
0.147929
0.119588
0.158955
0.158855
0.0984716
0.169374
0.159959
0.064826
0.0911304
0.138262
0.0409891
0.134994
0.0267648
0.0402325
0.123479
0.12654
0.0405829
0.129547
0.0515571
0.10024
0.137451
0.0779796
0.122633
0.14072
0.0571733
0.121764
0.152525
0.120575
0.159414
0.137069
0.139339
0.0800479
0.145972
0.147174
0.0935836
0.0402291
0.135975
0.148039
0.115309
0.0466957
0.10443
0.156941
0.141396
0.0840788
0.052472
0.11178
0.15834
0.140201
0.0717901
0.0694712
0.0774173
0.136714
0.145658
0.132945
0.0947975
0.122027
0.119978
0.0990301
0.123408
0.102467
0.129747
0.0718976
0.100122
0.0776362
0.0752122
0.1062
0.139495
0.0775478
0.106517
0.136307
0.11482
0.0376919
0.10952
0.141502
0.0933539
0.0842634
0.111175
0.0716139
0.153886
0.0661351
0.122588
0.0773666
0.13765
0.0225815
0.122566
0.043654
0.153572
0.132177
0.108947
0.173165
0.0922511
0.0501851
0.148475
0.134015
0.0269555
0.102318
0.137821
0.164774
0.13838
0.160935
0.161024
0.15842
0.0955065
0.0870226
0.118518
0.173274
0.0434614
0.0577321
0.145982
0.145103
0.133593
0.0474047
0.138193
0.137735
0.137107
0.0947669
0.0441803
0.140397
0.144923
0.141171
0.115822
0.106126
0.162987
0.020912
0.0836207
0.0649787
0.133166
0.145359
0.119811
0.0761536
0.104219
0.144563
0.129931
0.162995
0.136532
0.133026
0.0629225
0.116007
0.18328
0.152117
0.15992
0.140325
0.0223696
0.13186
0.137188
0.118797
0.0654274
0.125931
0.113657
0.152238
0.07099
0.127862
0.0988736
0.166563
0.097
0.0745533
0.103094
0.139455
0.129357
0.0158915
0.0816603
0.109514
0.109703
0.0463699
0.126882
0.0795878
0.123015
0.146668
0.0914732
0.124532
0.167333
0.131505
0.0897933
0.108633
0.0977464
0.0886431
0.137721
0.0278376
0.0814003
0.135143
0.13674
0.108235
0.133005
0.144549
0.162936
0.097852
0.0654419
0.168477
0.0267699
0.121769
0.0796077
0.15052
0.0762856
0.134762
0.125646
0.137441
0.106028
0.0893247
0.0632761
0.101005
0.167936
0.13379
0.135219
0.13787
0.119523
0.0694826
0.0834363
0.105673
0.129443
0.134971
0.136745
0.0814041
0.129675
0.155145
0.154562
0.132032
0.0320803
0.146585
0.104063
0.138497
0.0181563
0.0390259
0.135511
0.0660635
0.138969
0.0487343
0.134957
0.141691
0.160215
0.103592
0.141058
0.14455
0.0454191
0.11374
0.165034
0.139232
0.126734
0.0270166
0.0157033
0.159449
0.132836
0.157858
0.15637
0.152555
0.094075
0.123805
0.0346899
0.129425
0.133566
0.12574
0.0989063
0.108416
0.139196
0.0945334
0.0762164
0.141027
0.0615819
0.117141
0.128288
0.0874939
0.139956
0.1264
0.0274383
0.131278
0.129199
0.151383
0.132
0.136512
0.0995454
0.109591
0.126962
0.0619437
0.124899
0.145174
0.057461
0.13266
0.046448
0.141271
0.158499
0.110537
0.0306909
0.161092
0.0937971
0.139299
0.103309
0.139869
0.0928613
0.0985396
0.108188
0.0682829
0.156302
0.131378
0.050025
0.155621
0.148967
0.112643
0.0866641
0.161681
0.121298
0.0762567
0.106099
0.0866524
0.138326
0.0326131
0.0696011
0.142718
0.133385
0.158582
0.134173
0.125862
0.0775083
0.14175
0.0526206
0.0804002
0.089546
0.0434533
0.0902973
0.128406
0.070162
0.143369
0.0751128
0.0626662
0.175973
0.0752401
0.132269
0.0795528
0.131306
0.16337
0.0639727
0.0515633
0.163199
0.091679
0.164819
0.156494
0.127308
0.135019
0.166095
0.1411
0.130264
0.100199
0.15229
0.166962
0.10739
0.150917
0.092743
0.153055
0.134332
0.159597
0.109444
0.131457
0.0524399
0.129732
0.0656978
0.0399883
0.026302
0.126577
0.0974491
0.0410235
0.113797
0.153507
0.136631
0.151752
0.128173
0.0784514
0.081048
0.0254192
0.0931636
0.138341
0.137883
0.123651
0.0888971
0.0933768
0.10177
0.0635907
0.0612182
0.0222045
0.10111
0.130403
0.102223
0.147671
0.165098
0.0943402
0.135663
0.119118
0.132136
0.066411
0.117797
0.160219
0.0470161
0.100241
0.0503659
0.123061
0.132783
0.131087
0.0735033
0.106048
0.135084
0.119911
0.0396813
0.136619
0.0414969
0.0957783
0.0866782
0.111684
0.0823826
0.138988
0.03044
0.156352
0.147398
0.117909
0.151225
0.136285
0.130243
0.094511
0.0802098
0.13106
0.0890219
0.142126
0.150253
0.136175
0.149695
0.120924
0.0906356
0.14635
0.0661542
0.0659171
0.0726183
0.0511445
0.0807974
0.132986
0.137747
0.0164787
0.0151168
0.131431
0.0677709
0.0282294
0.0421622
0.0410005
0.121524
0.11072
0.138682
0.107756
0.152103
0.130611
0.0457695
0.151822
0.0362643
0.120862
0.127899
0.183514
0.157814
0.119025
0.0797
0.109452
0.119445
0.126487
0.0446504
0.121072
0.119226
0.158826
0.0292194
0.0695262
0.12914
0.149179
0.127475
0.0892433
0.128157
0.0794615
0.10163
0.122171
0.123819
0.0687805
0.0857807
0.0380606
0.0698741
0.0286382
0.0347898
0.129979
0.0336053
0.108464
0.106754
0.0900858
0.0923666
0.102162
0.0460073
0.0263546
0.128221
0.0882879
0.0810908
0.135612
0.147295
0.0325713
0.133015
0.12797
0.0183359
0.143188
0.12236
0.0700164
0.0472508
0.13727
0.168657
0.103081
0.0893945
0.0590977
0.154547
0.0561605
0.130282
0.121776
0.16021
0.0462369
0.0821837
0.135243
0.12632
0.107681
0.135107
0.119296
0.0625412
0.110784
0.0942191
0.105995
0.0824038
0.151887
0.065045
0.0835416
0.0919762
0.0484015
0.113252
0.104145
0.119746
0.150452
0.136438
0.078421
0.12729
0.122635
0.142776
0.0957972
0.152786
0.0569728
0.13494
0.0993425
0.0406375
0.0922907
0.155116
0.0755864
0.0454464
0.151095
0.135973
0.143541
0.0324822
0.129833
0.143182
0.132412
0.129044
0.0648352
0.130996
0.146615
0.126371
0.0829127
0.126779
0.147833
0.0428301
0.142583
0.105998
0.0673803
0.137659
0.0998773
0.149053
0.0636827
0.120855
0.0870975
0.119862
0.0703578
0.10836
0.0255524
0.0683053
0.131469
0.109702
0.129894
0.160633
0.0880397
0.0778814
0.146699
0.13013
0.150184
0.0823211
0.12655
0.055018
0.13192
0.172148
0.0380445
0.0930446
0.145641
0.0855745
0.023332
0.150185
0.120097
0.140911
0.118484
0.0464692
0.129543
0.0712652
0.13064
0.154249
0.12863
0.12741
0.142036
0.0394218
0.0265009
0.140519
0.144695
0.113386
0.125123
0.134279
0.103016
0.135008
0.143901
0.131181
0.0853405
0.13075
0.0744878
0.156481
0.151247
0.124867
0.107673
0.153362
0.13193
0.142117
0.152677
0.0662189
0.0566909
0.026786
0.0619809
0.0858295
0.137953
0.0257508
0.0690203
0.115061
0.0475708
0.118187
0.0710588
0.142859
0.143487
0.141723
0.129167
0.126695
0.121237
0.15031
0.0826707
0.0373399
0.149304
0.151424
0.121182
0.150928
0.152498
0.163613
0.158992
0.151173
0.127648
0.147102
0.121108
0.147252
0.152412
0.0867353
0.0513626
0.114911
0.142551
0.0877223
0.10865
0.0649262
0.100246
0.0947486
0.141879
0.0932944
0.0347011
0.039673
0.098758
0.165656
0.153017
0.130972
0.123798
0.153374
0.132898
0.131468
0.147451
0.10934
0.0292058
0.1457
0.124591
0.0245347
0.0404944
0.14863
0.144908
0.125437
0.152729
0.0419313
0.1247
0.116279
0.0657489
0.136974
0.130312
0.14528
0.0406519
0.0852751
0.0762622
0.0652486
0.132508
0.0457988
0.102998
0.137803
0.118183
0.133726
0.07353
0.147468
0.084187
0.110652
0.0537199
0.129615
0.0622667
0.134937
0.0760178
0.0904287
0.102292
0.0957702
0.141485
0.0366791
0.144503
0.139294
0.116746
0.150685
0.117666
0.0625543
0.131936
0.130743
0.181654
0.0343595
0.134352
0.128426
0.13671
0.139192
0.0548712
0.160961
0.138289
0.129897
0.132584
0.128435
0.0849505
0.0447209
0.145661
0.0929408
0.0982842
0.146739
0.10093
0.0286957
0.148319
0.0981553
0.0331565
0.147756
0.136948
0.14059
0.164354
0.0950307
0.132875
0.0822281
0.131095
0.128492
0.161848
0.153183
0.0987155
0.073406
0.148736
0.040185
0.151736
0.132605
0.165632
0.124084
0.12917
0.0681507
0.14969
0.051114
0.144752
0.0870191
0.15316
0.0408139
0.150085
0.133765
0.0342748
0.156719
0.130752
0.0293513
0.062766
0.108191
0.0464713
0.0746065
0.128753
0.0577747
0.137906
0.154222
0.131634
0.034805
0.127019
0.107679
0.0522879
0.132691
0.110875
0.150385
0.0915897
0.136442
0.132924
0.0764965
0.117492
0.0273884
0.133735
0.154696
0.133814
0.024377
0.082901
0.0715224
0.128382
0.138392
0.0478356
0.0726525
0.132537
0.0378805
0.144086
0.124995
0.152569
0.0176814
0.13768
0.0797827
0.130006
0.142291
0.160052
0.141636
0.134069
0.119431
0.150821
0.133757
0.0900981
0.0887262
0.122415
0.151191
0.0487622
0.0586554
0.138875
0.137924
0.140578
0.0241555
0.0431621
0.0867331
0.138579
0.157682
0.0745426
0.0468155
0.159753
0.131752
0.0569494
0.132588
0.151304
0.134222
0.124187
0.0571743
0.143404
0.0775699
0.108819
0.135005
0.132805
0.0981727
0.146208
0.0601192
0.0141067
0.152277
0.134822
0.131882
0.0259
0.135961
0.048553
0.156809
0.144518
0.111768
0.130951
0.065623
0.112432
0.124063
0.15052
0.0270856
0.110781
0.0476812
0.149447
0.0539776
0.0603818
0.153533
0.0438726
0.146409
0.046118
0.0501657
0.143923
0.139317
0.091694
0.0612474
0.0465551
0.0268924
0.154885
0.151129
0.112419
0.0465429
0.134023
0.03864
0.0399879
0.14773
0.125136
0.15524
0.0901672
0.0846592
0.145026
0.122128
0.143426
0.0270381
0.138421
0.0766056
0.134676
0.0856595
0.0607316
0.0845781
0.137607
0.0670127
0.0555579
0.10622
0.131101
0.131329
0.0254138
0.148186
0.0284704
0.0389288
0.0408869
0.107531
0.0402558
0.0763254
0.131746
0.123629
0.120598
0.0493136
0.0657435
0.0565378
0.132405
0.017654
0.0579627
0.141185
0.129187
0.0267032
0.151811
0.131054
0.0284824
0.0200345
0.0326533
0.149312
0.0367045
0.14936
0.104692
0.135384
0.0698861
0.161928
0.0891722
0.0463353
0.0242039
0.0504327
0.113213
0.150813
0.0903574
0.106435
0.151952
0.0905577
0.0194752
0.140332
0.153278
0.0588627
0.0999499
0.0380576
0.0987863
0.145032
0.130708
0.0793461
0.153208
0.13133
0.0502275
0.140047
0.110805
0.125625
0.144667
0.147882
0.018624
0.136565
0.149502
0.122123
0.156481
0.1477
0.0665226
0.146863
0.0270933
0.029076
0.0958368
0.149618
0.147335
0.130084
0.152285
0.0373193
0.0418113
0.0188903
0.133297
0.141865
0.0351768
0.0667975
0.0951688
0.0477359
0.0901318
0.126372
0.0957722
0.15423
0.170566
0.147068
0.130261
0.0792818
0.0343325
0.0643668
0.152794
0.0396266
0.0383522
0.153516
0.130729
0.150789
0.0740882
0.13014
0.133655
0.063868
0.131577
0.0282707
0.129747
0.134521
0.0470492
0.0731328
0.0406241
0.0824805
0.142148
0.149362
0.0275163
0.104211
0.133262
0.0472389
0.13561
0.030781
0.132363
0.136346
0.15712
0.0517918
0.0823272
0.053308
0.150346
0.137125
0.0582467
0.0639913
0.160394
0.0824355
0.0413913
0.139688
0.0717242
0.124159
0.156913
0.0583112
0.14923
0.0603201
0.0410918
0.119185
0.135003
0.161383
0.0545191
0.0371876
0.0520744
0.0658772
0.0689723
0.0799709
0.0682793
0.0613049
0.0479483
0.0813693
0.114818
0.150072
0.149458
0.0702578
0.0663712
0.0986547
0.0383013
0.135873
0.0275806
0.0415971
0.150273
0.158709
0.145179
0.157728
0.151651
0.041117
0.0862118
0.043578
0.0364882
0.115074
0.0649319
0.0853005
0.0683127
0.134296
0.133424
0.0771041
0.132773
0.109942
0.111123
0.0619151
0.150503
0.102412
0.137418
0.137985
0.0638413
0.149022
0.130158
0.16933
0.0388383
0.092133
0.0327668
0.0654493
0.087243
0.0411423
0.115141
0.0321537
0.12572
0.105241
0.077087
0.033149
0.150489
0.160544
0.0350337
0.0525796
0.12516
0.0717196
0.141705
0.0189667
0.0902441
0.102624
0.1361
0.0268623
0.02571
0.120817
0.0693596
0.0662226
0.140884
0.0580522
0.0839413
0.133101
0.11369
0.033695
0.143327
0.0829402
0.132542
0.0665436
0.0612574
0.0966549
0.0430063
0.0633416
0.125823
0.0675519
0.0354461
0.027955
0.118815
0.0671149
0.0742275
0.0617252
0.029576
0.0284032
0.0555545
0.0699527
0.148402
0.0570444
0.0533442
0.0306965
0.135125
0.0628123
0.134008
0.0596935
0.15338
0.0470723
0.13125
0.151231
0.0797555
0.0285453
0.0506208
0.0434794
0.176958
0.0689914
0.131737
0.124175
0.152712
0.103158
0.0182992
0.126163
0.0588504
0.101998
0.14429
0.141935
0.117967
0.149233
0.135882
0.152332
0.0912087
0.130236
0.0319443
0.103433
0.0395544
0.064381
0.075407
0.0491869
0.0655506
0.0591661
0.108583
0.0823551
0.0862808
0.137129
0.141333
0.066739
0.133042
0.146958
0.150174
0.0750261
0.0919572
0.0706994
0.15013
0.0304133
0.149729
0.128674
0.0819243
0.140252
0.0688028
0.151406
0.0516688
0.0938498
0.0743326
0.0358954
0.135152
0.13482
0.142705
0.0249256
0.151093
0.135106
0.0697687
0.0827571
0.0427304
0.123123
0.102256
0.0922804
0.1363
0.121297
0.13907
0.0785686
0.126822
0.0368569
0.0807302
0.137026
0.105744
0.0382179
0.137115
0.138168
0.0432516
0.0905972
0.0781413
0.148097
0.0830937
0.143102
0.142432
0.0973059
0.152006
0.117274
0.0863449
0.0712769
0.094345
0.0282154
0.0699564
0.117168
0.0521124
0.111056
0.0481499
0.145326
0.151875
0.0605351
0.134895
0.118218
0.121567
0.0414795
0.0182281
0.143531
0.0439722
0.149208
0.102134
0.1286
0.139594
0.0497556
0.0876733
0.130378
0.131021
0.166595
0.0481116
0.0603762
0.0755984
0.136461
0.133388
0.0807542
0.135809
0.048868
0.0852595
0.124954
0.139625
0.0368797
0.125037
0.0361612
0.0918905
0.0277441
0.0683019
0.0289302
0.144308
0.136295
0.0640218
0.0484928
0.151292
0.137883
0.157192
0.148867
0.143466
0.131647
0.0880286
0.0524475
0.0288272
0.138236
0.0266601
0.0365268
0.0533551
0.0614415
0.152693
0.138681
0.170513
0.0754813
0.0994213
0.0476501
0.0998975
0.0753188
0.0411201
0.116288
0.151526
0.122813
0.125023
0.0485281
0.139849
0.0285834
0.0928517
0.0630568
0.132332
0.171506
0.154154
0.03186
0.13338
0.028533
0.0654406
0.150564
0.0705467
0.0652381
0.113326
0.135852
0.133677
0.132224
0.0896152
0.0816641
0.0700309
0.104574
0.0732555
0.0279284
0.0523965
0.0614765
0.155469
0.0655755
0.0720032
0.133693
0.139033
0.0853466
0.0652469
0.0383062
0.131794
0.0418244
0.110341
0.138145
0.149495
0.0703168
0.0846309
0.11949
0.0864992
0.0548778
0.141856
0.0730722
0.131509
0.0437566
0.0990348
0.101254
0.0917245
0.0906241
0.1365
0.0965407
0.149924
0.13831
0.0498123
0.0800054
0.0273288
0.145779
0.134109
0.152983
0.112737
0.141913
0.0758524
0.0903184
0.064711
0.0401758
0.13176
0.0570773
0.151384
0.0778116
0.100477
0.126189
0.136832
0.152165
0.0974152
0.0722712
0.0820977
0.150337
0.142773
0.0932543
0.101757
0.0588527
0.0891229
0.0861477
0.130608
0.13525
0.0423733
0.124765
0.129718
0.115515
0.101139
0.0666583
0.112722
0.0486651
0.0488745
0.0730256
0.147394
0.0481907
0.0389286
0.130635
0.124997
0.0881676
0.0634376
0.0684835
0.102622
0.132985
0.151696
0.094115
0.0945408
0.0577653
0.1275
0.116308
0.0930167
0.0457166
0.0627289
0.111705
0.142713
0.0851464
0.0477242
0.130061
0.127955
0.114229
0.0619658
0.0474615
0.138022
0.0756849
0.123615
0.0461405
0.096129
0.141216
0.0182901
0.0673221
0.0275648
0.0414369
0.131439
0.133902
0.0958987
0.134232
0.0957207
0.0485978
0.115964
0.089983
0.0722264
0.105491
0.0635835
0.091268
0.0750375
0.141433
0.12664
0.0833146
0.124033
0.116776
0.147765
0.161807
0.157101
0.136706
0.153477
0.110637
0.0982283
0.121037
0.152679
0.0233286
0.142561
0.137475
0.10043
0.136032
0.0665059
0.133907
0.154651
0.152909
0.15115
0.110748
0.120621
0.0662804
0.0384465
0.157734
0.0629739
0.117645
0.0801195
0.0778487
0.100933
0.0880261
0.0684881
0.0913411
0.0838339
0.062325
0.0650308
0.0632978
0.163181
0.139297
0.0725847
0.0846335
0.0606737
0.0522565
0.0683905
0.1005
0.0892501
0.124803
0.0261658
0.142809
0.0820389
0.148417
0.0672976
0.122266
0.147171
0.132489
0.0670716
0.0573175
0.0757721
0.15718
0.0633758
0.149491
0.151852
0.103996
0.0925856
0.0669744
0.0694286
0.142809
0.129749
0.112249
0.0709303
0.126049
0.0285765
0.0826705
0.148553
0.0727863
0.154683
0.036569
0.0835362
0.105402
0.13438
0.0933219
0.0629224
0.151745
0.114897
0.0411672
0.149847
0.132105
0.0866336
0.0709246
0.0350864
0.130246
0.0281168
0.0719817
0.0919897
0.134625
0.0999464
0.0402932
0.102632
0.107574
0.141892
0.0896983
0.0783171
0.125401
0.134087
0.118292
0.146974
0.15278
0.117239
0.0750429
0.0635767
0.127015
0.0378997
0.0789081
0.120342
0.0736051
0.0282027
0.0782736
0.0857182
0.120802
0.0898611
0.0843324
0.137892
0.116101
0.0846767
0.12979
0.137633
0.102987
0.15256
0.131576
0.0969408
0.050186
0.0892331
0.0300108
0.119202
0.028989
0.145048
0.102169
0.0814109
0.151327
0.153153
0.0943905
0.107815
0.0665284
0.0833018
0.0978009
0.145117
0.152155
0.0818571
0.0731045
0.103904
0.145083
0.130863
0.0516365
0.0666744
0.14496
0.093679
0.114821
0.100664
0.077975
0.115088
0.139976
0.12002
0.0679993
0.0601395
0.11375
0.130751
0.131197
0.103479
0.151219
0.127465
0.142783
0.100553
0.0970695
0.134229
0.152961
0.135407
0.15295
0.0996857
0.157637
0.0654917
0.141803
0.127693
0.0928354
0.0952904
0.0979844
0.0310356
0.0230831
0.0599413
0.131917
0.14377
0.0656775
0.12973
0.0647895
0.10566
0.14175
0.0907549
0.102419
0.1175
0.0956402
0.13172
0.101635
0.112326
0.107098
0.155254
0.0619732
0.102984
0.101249
0.149236
0.0966259
0.0672914
0.115432
0.0309094
0.0346266
0.145652
0.137012
0.133402
0.133298
0.140956
0.145219
0.14813
0.0863683
0.106669
0.14096
0.0272983
0.146648
0.102155
0.0663717
0.121755
0.104066
0.0891437
0.079761
0.151137
0.0539556
0.0702917
0.10845
0.0798176
0.0971085
0.103779
0.126043
0.116414
0.141434
0.145055
0.0902871
0.0728419
0.0586519
0.1513
0.0754916
0.147892
0.107768
0.086073
0.12217
0.0976688
0.138481
0.143759
0.142853
0.111155
0.0597179
0.150195
0.139503
0.131669
0.114401
0.0938439
0.0893837
0.0605225
0.115209
0.076124
0.0956866
0.0887925
0.15036
0.150931
0.13617
0.143749
0.018618
0.0663112
0.0850494
0.0520528
0.131196
0.0864576
0.0895972
0.148226
0.0918821
0.13663
0.0971106
0.13334
0.0261651
0.104687
0.0918755
0.085305
0.150957
0.112155
0.0410508
0.14359
0.039328
0.0683144
0.0701409
0.097122
0.0274505
0.13308
0.0933937
0.146276
0.0900071
0.0671999
0.145562
0.130329
0.131791
0.0710403
0.0914535
0.0964265
0.145265
0.0798265
0.12652
0.107996
0.092753
0.0377379
0.124405
0.152396
0.154006
0.132329
0.0285778
0.0839083
0.142926
0.117258
0.132598
0.133801
0.146421
0.112707
0.130096
0.0450449
0.130296
0.0934068
0.138928
0.0740563
0.0977321
0.103704
0.119197
0.112334
0.128959
0.140506
0.0815944
0.131741
0.0969017
0.147064
0.0957894
0.0984821
0.0989173
0.15045
0.128639
0.17443
0.0380081
0.151946
0.152538
0.0704918
0.0693996
0.0914445
0.143338
0.126241
0.133333
0.106935
0.094383
0.11914
0.0629215
0.0234336
0.151217
0.0975272
0.0950057
0.107136
0.12123
0.140151
0.0654039
0.0578196
0.0368116
0.0212068
0.0608826
0.136145
0.0903598
0.118818
0.0966446
0.130633
0.142508
0.0639189
0.133292
0.0348501
0.069079
0.154147
0.100503
0.08613
0.0879408
0.133629
0.137317
0.104827
0.113823
0.118731
0.141241
0.0998951
0.0902828
0.15202
0.0792163
0.0685864
0.0939133
0.125805
0.103878
0.0934635
0.140357
0.137584
0.127643
0.0566863
0.132299
0.106379
0.134536
0.152152
0.125363
0.148537
0.144095
0.0629201
0.124347
0.109925
0.056501
0.132377
0.126812
0.0981331
0.0610141
0.151304
0.139417
0.136911
0.0735976
0.018463
0.1218
0.0656743
0.143072
0.146095
0.153919
0.102582
0.127144
0.128706
0.15305
0.0682903
0.143101
0.0861467
0.143916
0.126524
0.14098
0.0921695
0.110663
0.12289
0.132143
0.114777
0.145765
0.110984
0.128011
0.139772
0.129071
0.143585
0.133464
0.134324
0.150576
0.154252
0.148838
0.126858
0.1515
0.104942
0.145078
0.096993
0.103518
0.0595914
0.13217
0.105639
0.1423
0.14962
0.15157
0.111612
0.13729
0.150508
0.139281
0.0655142
0.126772
0.0703056
0.0304313
0.152695
0.0290159
0.103023
0.0410882
0.140823
0.0885455
0.150623
0.125747
0.130429
0.0859572
0.0906558
0.120826
0.0956824
0.130763
0.138592
0.152105
0.0371301
0.131304
0.0448234
0.100186
0.0191409
0.100763
0.133492
0.0661283
0.0494734
0.149242
0.107716
0.112092
0.0884673
0.0361473
0.101473
0.133409
0.0827025
0.073699
0.0940468
0.1413
0.14351
0.0729757
0.0668339
0.0305142
0.0893947
0.102505
0.136686
0.0998237
0.119976
0.130704
0.0677376
0.13193
0.125207
0.139008
0.128577
0.136111
0.131914
0.102679
0.114365
0.103237
0.110617
0.0918703
0.129993
0.0874942
0.172861
0.140678
0.0872551
0.155074
0.0842167
0.142044
0.138045
0.0726116
0.104292
0.113003
0.133248
0.12822
0.0678709
0.103112
0.0408229
0.103591
0.139445
0.133862
0.115461
0.0686098
0.107793
0.132783
0.0932808
0.124362
0.168055
0.136293
0.0854855
0.137818
0.140532
0.135604
0.100913
0.135158
0.133781
0.0518286
0.102801
0.0994441
0.0936154
0.13029
0.113234
0.136012
0.14065
0.139596
0.111709
0.13199
0.0653581
0.144697
0.134665
0.0783726
0.0985201
0.134107
0.0976773
0.0834842
0.100779
0.132128
0.152738
0.132789
0.102341
0.135564
0.151739
0.0688179
0.125148
0.145914
0.0922092
0.132526
0.0664594
0.127942
0.105232
0.153546
0.0863581
0.149338
0.142528
0.136154
0.0921051
0.149784
0.0314179
0.151849
0.112893
0.115205
0.142752
0.125365
0.0948316
0.0885836
0.130542
0.12191
0.1121
0.082885
0.137477
0.132152
0.136735
0.114688
0.12462
0.132706
0.127087
0.156727
0.144708
0.0915599
0.118389
0.135874
0.10758
0.117921
0.154334
0.0978884
0.128568
0.0935278
0.128278
0.110782
0.14567
0.14479
0.0413452
0.145292
0.111266
0.129117
0.111941
0.135829
0.0781922
0.136716
0.144184
0.0950465
0.129121
0.140591
0.118472
0.0719188
0.14149
0.139565
0.12933
0.1396
0.113427
0.115194
0.132661
0.141752
0.13797
0.143916
0.0645825
0.0738186
0.1142
0.1381
0.150411
0.135283
0.131565
0.14641
0.0980768
0.093526
0.112758
0.11762
0.130271
0.0684045
0.143553
0.143151
0.0993156
0.107733
0.132816
0.110437
0.121331
0.11407
0.14279
0.131313
0.109676
0.149476
0.152356
0.123595
0.108464
0.115863
0.144758
0.122675
0.120946
0.124621
0.122481
0.151815
0.111282
0.151764
0.149273
0.124926
0.141713
0.135376
0.0788793
0.131581
0.135121
0.0974022
0.147465
0.0900455
0.144171
0.130189
0.13774
0.149958
0.0911765
0.127555
0.101236
0.0532132
0.180019
0.14174
0.145382
0.079701
0.121303
0.152164
0.0678087
0.116987
0.119008
0.119517
0.103523
0.142815
0.154636
0.140083
0.113305
0.107802
0.147547
0.142524
0.112578
0.149736
0.122966
0.140422
0.122201
0.137885
0.0650045
0.135716
0.124499
0.151144
0.130037
0.145475
0.131618
0.137009
0.124957
0.138894
0.0421025
0.109626
0.141945
0.134376
0.150851
0.116506
0.0969277
0.160097
0.116954
0.103299
0.141447
0.0896824
0.132248
0.14205
0.121318
0.14593
0.145293
0.13787
0.110614
0.125687
0.120171
0.163244
0.135573
0.133097
0.131597
0.132642
0.0776977
0.146334
0.148922
0.116113
0.140107
0.143683
0.134449
0.123964
0.136159
0.091836
0.139656
0.142651
0.104053
0.121139
0.133657
0.15171
0.0191976
0.106061
0.141659
0.141136
0.132758
0.130156
0.136219
0.115503
0.13408
0.0981607
0.132684
0.136889
0.131271
0.142386
0.133766
0.0825646
0.150695
0.139909
0.133049
0.138974
0.103676
0.142536
0.153116
0.0499721
0.150604
0.134237
0.128296
0.137208
0.140792
0.0902946
0.124701
0.116818
0.146515
0.145328
0.0980879
0.144227
0.124101
0.142908
0.131154
0.110288
0.153527
0.134583
0.137392
0.138446
0.141055
0.134527
0.12272
0.149269
0.12625
0.0678233
0.153094
0.140413
0.112507
0.133129
0.122223
0.150591
0.13295
0.135264
0.15113
0.145534
0.111493
0.123303
0.129841
0.129858
0.127039
0.125449
0.118018
0.144899
0.133187
0.1533
0.142974
0.117295
0.142877
0.138737
0.126951
0.149387
0.130452
0.131886
0.120674
0.132864
0.125561
0.136048
0.134683
0.112184
0.152281
0.151269
0.128414
0.147619
0.116584
0.131577
0.132945
0.139155
0.153338
0.122496
0.137953
0.132765
0.130564
0.0542751
0.135215
0.140395
0.16303
0.130996
0.138083
0.100755
0.11169
0.0884634
0.1409
0.133631
0.13475
0.111828
0.130366
0.12965
0.0992733
0.134908
0.146294
0.130196
0.133231
0.130012
0.120366
0.15148
0.116615
0.126004
0.132495
0.147303
0.144443
0.0890981
0.121833
0.116002
0.125212
0.0383328
0.128179
0.150081
0.0955717
0.139773
0.131664
0.147013
0.152657
0.133457
0.116746
0.153486
0.130751
0.150307
0.146059
0.133511
0.09367
0.11107
0.161138
0.129158
0.143573
0.132375
0.131802
0.136444
0.137275
0.129936
0.110426
0.0388859
0.151408
0.143973
0.135037
0.0552831
0.139635
0.137125
0.136265
0.141775
0.137582
0.0923046
0.124163
0.132141
0.110654
0.130285
0.14517
0.130844
0.127208
0.140568
0.147694
0.130851
0.131985
0.153814
0.153065
0.14389
0.152983
0.134814
0.146326
0.131901
0.14272
0.0364124
0.131418
0.131842
0.0848015
0.130884
0.0890981
0.0669325
0.0184708
0.0864863
0.113816
0.134545
0.129729
0.139974
0.127934
0.128504
0.136477
0.110639
0.110196
0.0912786
0.145866
0.14209
0.129014
0.120395
0.130934
0.107741
0.137475
0.0702529
0.0924577
0.130955
0.137933
0.137932
0.129115
0.131668
0.111139
0.131988
0.139601
0.0709897
0.128969
0.132545
0.146388
0.0868409
0.0420286
0.128823
0.124941
0.0524839
0.142993
0.109646
0.14277
0.129923
0.117507
0.131061
0.119843
0.114422
0.0869425
0.136337
0.104952
0.141217
0.106607
0.13902
0.127244
0.0189147
0.107534
0.131457
0.129114
0.141919
0.09181
0.13293
0.139194
0.14869
0.111491
0.126675
0.136984
0.106799
0.0930754
0.13148
0.146185
0.131483
0.132317
0.135596
0.156076
0.143815
0.153471
0.142934
0.124629
0.152134
0.119042
0.087975
0.0948573
0.125229
0.139916
0.140092
0.14354
0.118551
0.113298
0.138446
0.1503
0.146883
0.105231
0.15365
0.138763
0.137905
0.0291592
0.106812
0.145897
0.142944
0.146405
0.14957
0.125454
0.0934963
0.139131
0.14354
0.0948018
0.132922
0.138843
0.126124
0.128636
0.0976207
0.114371
0.0709713
0.132198
0.132889
0.141596
0.0419749
0.124456
0.130449
0.0970923
0.150991
0.151308
0.141026
0.141729
0.102641
0.146415
0.151795
0.141045
0.126316
0.144457
0.114881
0.130137
0.129775
0.144828
0.137239
0.137743
0.0696348
0.151392
0.123605
0.134463
0.147499
0.134378
0.143993
0.146961
0.141218
0.101816
0.142746
0.0750798
0.145837
0.134364
0.153631
0.151834
0.103611
0.115691
0.153272
0.131601
0.126382
0.125756
0.139268
0.141338
0.113127
0.14486
0.113756
0.0655078
0.133874
0.135542
0.135172
0.139682
0.117479
0.129408
0.129405
0.145791
0.135728
0.108026
0.1319
0.139214
0.0959969
0.0910393
0.141744
0.0925994
0.151134
0.139067
0.152789
0.138098
0.104842
0.142689
0.0913308
0.14463
0.127565
0.0407129
0.101943
0.149517