/*--------------------------------*- C++ -*----------------------------------*\
| =========                 |                                                 |
| \\      /  F ield         | OpenFOAM: The Open Source CFD Toolbox           |
|  \\    /   O peration     | Version:  v2012                                 |
|   \\  /    A nd           | Website:  www.openfoam.com                      |
|    \\/     M anipulation  |                                                 |
\*---------------------------------------------------------------------------*/
FoamFile
{
    version     2.0;
    format      ascii;
    class       surfaceScalarField;
    location    "600";
    object      meshPhi;
}
// * * * * * * * * * * * * * * * * * * * * * * * * * * * * * * * * * * * * * //

dimensions      [0 3 -1 0 0 0 0];
oriented        oriented;


internalField   nonuniform List<scalar> 
14516
(
-0.002616
-0.00786043
0.0104288
-2.99803e-06
-0.000115708
0.00011622
0.0087698
-0.0114371
0.00279843
-0.00382576
0.000637422
0.0158683
-0.0110964
-0.00480303
-0.0125364
0.00156385
0.0108352
0.000913154
-7.97254e-05
-0.00121324
-0.00732598
0.0064552
0.000648392
0.0114762
0.00114197
-0.0127507
0.0065714
0.00927199
0.00935699
-0.0117202
0.00232889
0.010888
-0.000810995
-0.0101121
0.00279785
-0.000468016
-0.000108393
-0.00167222
0.00174842
-0.000208246
-0.000145272
-0.00162248
-3.49431e-05
0.00162112
-0.00679348
0.00230278
0.00441166
-0.00236052
-0.00453328
0.0134154
-0.00134734
-0.012098
-0.0017642
-0.00100704
-0.0114813
0.0124479
0.00127028
-0.0106239
0.00930047
0.00445554
-0.00151541
-0.0029601
-4.38774e-05
4.38774e-05
0.0107527
-0.00145686
-0.00942748
0.00178613
0.000538287
0.00150424
1.29585e-05
-0.00155443
-0.000152162
-0.00484708
0.00491508
-0.0133105
0.00445022
0.00881416
0.0122536
-0.000912353
0.0107772
-0.0128967
0.00204557
0.000865323
0.00355238
0.00744821
-0.00156737
-0.0058965
-0.00015308
-0.000145897
0.000197258
0.00490891
-0.0150872
0.0101391
0.0132401
-0.00147747
-0.0118036
1.28186e-05
0.00059067
-0.00955422
0.0107691
0.00845153
-0.00648767
-0.00217884
-0.00013943
0.000707149
-0.000707613
0.0137731
-0.00307989
-0.00070443
0.000146631
0.00108773
-0.00188477
0.00034861
-0.000105143
0.000907042
-0.0011572
0.00108417
-0.000548639
-0.000479202
-0.00843258
0.000257274
-0.00275703
0.00248126
-0.00159829
-0.0105638
0.0121318
-0.00103534
-0.0031455
-0.00693239
-0.00819092
0.000179594
-0.00947624
0.00926783
0.0126747
-0.00304264
-0.00972832
-0.0134118
0.0137696
-0.00053222
0.00136077
-0.00855163
0.00717462
0.0125108
-0.0129337
0.000382413
-0.00894743
0.00939135
-0.0110817
0.00283732
0.00822423
0.0107498
0.000381369
-0.0111662
0.00559385
0.00271107
1.26707e-05
0.000368532
-0.000524043
0.012057
-0.0019237
-0.0102249
0.0100761
-0.0115182
0.00141315
0.00111497
-0.00277507
0.000981753
0.00882432
0.0046959
-0.00091216
-0.00674313
0.00761184
0.0125694
-0.00253363
-0.0109029
0.0121214
-0.0012503
0.00146228
0.00938526
-0.000746399
0.0100704
-0.00852754
0.00987017
1.16294e-05
0
-1.36355e-05
0.0106828
-0.00195919
-0.00891943
-0.000213281
0.000183215
2.89069e-05
0.00317047
-0.0101413
-0.000232381
0.0109452
-0.00125957
-0.0094459
0.0104366
0.000104782
-6.1211e-09
-0.00010551
-0.00630257
0.00153704
0.0047041
-0.00746654
0.0023232
0.00505037
-0.0062867
0.00533848
-0.00715197
0.00165042
0.00541122
0.000129055
1.13651e-06
-0.000130829
-3.45235e-05
-0.00281265
0.00281623
0.0126473
0.00103904
0.000201932
-0.00269693
0.00247594
-0.00525167
-0.00229225
2.30768e-05
-0.010113
0.00984953
-0.0108713
0.0112365
-0.000494759
0.00778676
-0.00177834
-0.00610819
-0.000168709
0.0001635
-0.00118129
-0.0100866
0.0112524
0.00281674
-0.00229648
-0.000582703
0.00443145
-0.00360097
0.00108917
-0.00293838
0.00287297
0.0127513
-0.000274043
0.000118509
7.76073e-06
0.000802135
0.00194752
0.000420173
-0.00186525
0.00138618
-0.0015821
0.00193741
0.00778128
-0.00141459
-0.00647531
0.00326552
-0.000694949
-0.00266825
0.00247154
0.00069171
9.39239e-05
5.299e-06
0.0134928
-0.000922685
0.0129295
-0.00179595
0.000523673
-8.93953e-06
-0.00070522
0.0104816
0.00206648
-0.000465238
-0.00212867
0.00257998
4.80512e-08
7.35365e-06
0.000460508
0.0116603
-0.0121495
0.0116325
-0.00975545
-0.00300809
0.0148944
-0.0119338
0.00910823
-0.0089565
-0.0104695
0.00104517
-0.00647739
0.00540838
-0.00679918
0.00993065
-0.00125953
-0.00598239
0.00367896
0.000711755
0.00184284
-0.00231994
-5.33983e-06
1.07853e-06
1.40485e-06
0.00961618
-0.0102477
0.000322382
-0.000434056
-0.0122151
-0.000553425
-0.0102704
0.0107203
-0.0123813
0.0113338
-0.010106
0.00240179
0.0076717
0.00272934
-0.00254587
-0.00101378
-0.0053562
-0.0111583
0.00274394
0.00813802
3.02628e-06
1.35418e-05
-2.62253e-05
-0.00965005
-0.00554487
-0.00579919
-0.000799124
-0.00706935
0.00776236
0.00954668
0.00255169
0.000426593
-0.0104638
0.00980708
0.00128167
-0.000819558
0.000796354
-0.00124884
0.00117067
0.00994351
0.00030597
-0.000342553
-4.8904e-06
5.68526e-05
0.00928265
0.0109551
-0.00107704
-0.0100148
9.29047e-05
-0.00201986
0.00155001
-0.000395318
0.00175831
-0.00140243
-0.00177439
6.95409e-05
0.000133122
0.00172888
-0.00189649
2.04798e-06
3.29701e-05
-3.9334e-05
0.00169306
-0.00213507
0.00339682
-0.000975482
-0.00250596
0.00894525
-0.0101403
0.00960542
0.0022017
-0.0118296
-3.19677e-05
2.46717e-05
0.012417
-0.00284039
-0.00483956
0.0113873
0.000904953
0.00240194
-4.56356e-06
-3.12826e-06
-1.28359e-05
0.000114952
-0.000141285
0.00148083
0.00933307
-0.000452429
0.00208086
-0.0016545
0.00142733
-0.00542252
-0.00208939
0.0041399
-0.00436764
0.000104244
0.00136312
-0.00149984
-0.00255677
0.0155703
-0.0130453
-0.000163115
5.1429e-05
0.000110367
-0.0137337
0.00219052
-0.00245719
-0.012434
0.0113753
0.000998515
0.00157485
-0.000105035
0.00121724
-0.00763444
0.00630752
-0.0141483
0.00405054
0.00989096
0.00465328
-0.00922858
0.00456131
-0.000116884
-5.08325e-05
-0.00363015
0.00825679
-0.00114859
-0.00918656
0.0102298
0.0108322
-0.00991145
-9.21173e-05
7.27101e-05
1.35274e-05
0.00182687
-0.00878394
0.00675138
0.013925
-0.00637522
-0.00758199
0.0101644
-0.00765466
-0.00251718
-0.0121952
0.0112945
0.000838568
-0.00209602
0.0095474
0.0105664
0.000224726
-0.0108266
0.0104342
6.56655e-06
-0.00243421
-0.00866927
-0.00646081
0.00809024
-0.000231247
0.009725
-0.0097888
-0.00141307
0.00148577
-0.0107946
0.00953482
0.00586513
-8.91351e-05
-0.00613025
0.010638
-0.0122669
-0.0115494
0.0119815
0.00164324
0.00339852
0.0104893
-0.0160004
0.00401698
0.0119454
-0.000679231
-0.00610684
0.0066786
-0.0125087
0.00764875
2.16965e-05
0.000251122
0.0112265
-0.00180561
-0.0048068
-0.00888148
0.0136572
-2.19263e-05
-0.0129558
-0.00947298
0.00714574
0.00207002
-0.000730119
-0.00994676
8.99277e-05
1.66303e-06
-0.000532328
5.93541e-05
0.00155478
-0.00164917
0.0121348
0.0012928
-0.0109935
-0.000261148
0.0111993
0.000590432
0.00915911
-0.00979667
-0.000766327
0.011371
0.00120202
-0.011803
-0.0100079
-0.00351631
-0.00715578
-0.00887233
9.8111e-05
-0.000151033
-0.000962684
-0.00651306
0.00737927
-0.000617605
0.0111548
9.27137e-05
-5.88091e-06
0.0117405
-0.0111416
-0.000635152
-0.000671785
0.0105243
-0.00990346
-0.00408201
-0.0080182
0.0118359
-0.00983388
2.05371e-05
0.00535641
-0.000110651
-0.00272222
0.0107401
-0.011352
0.012774
-0.0031417
0.00227145
0.000785833
0.00870143
-0.0094187
0.00098372
-0.0094583
0.00844766
-2.18586e-05
-2.50788e-05
1.56242e-05
2.61009e-05
-0.00316956
-0.00907831
0.000124035
-0.000265392
0.000104703
-0.0105858
0.0020487
0.008511
0.0107134
0.000997613
-0.00932146
0.00880663
9.36929e-05
0.0100833
-0.0100626
-0.000241716
0.000394577
0.0123232
0.00171838
0.00581713
-0.00765083
0.0130445
-0.000968488
0.000104213
-0.00175738
0.00161887
6.01278e-05
0.00902479
-0.00930605
0.00683883
0.000583727
-0.00946196
-1.9311e-05
0.00925628
-0.00308375
0.00203189
1.47423e-05
0.00621637
0.0110239
-0.00969346
-0.00235598
-0.000368563
0.00012962
0.0013588
0.00842194
-0.00988411
-0.0123402
0.00143765
0.0108506
-0.000795878
0.00987521
0.00158011
-0.00985925
0.00825268
-0.00832282
0.00892061
-0.000845394
-0.000498544
0.011083
-0.0106482
-0.0129154
0.0106553
0.00204885
-0.00340375
-0.00897994
-0.000805187
-0.0107803
0.011456
-0.000289242
-0.00157333
0.00182488
0.00189836
0.000614726
-0.00251434
0.000408687
-0.00948116
0.00865798
0.000135566
-0.000177977
-9.29928e-06
-0.00279916
-0.00969091
5.75021e-05
-6.53088e-05
7.01131e-06
-8.33291e-06
6.57734e-05
-0.00859272
0.00913886
0.00451271
-0.0134244
-0.0107109
-0.00229513
0.0128344
-0.00153499
0.00121565
-0.000150365
-0.00116065
0.00126376
-0.0141007
0.0038603
0.0101728
-0.00142512
-0.00924106
0.0104294
0.000110453
7.41307e-05
-0.000185176
-4.65589e-05
0.000156961
-0.00694349
0.000531208
-0.0121087
-0.000173416
0.00257461
-0.00292983
-0.00855365
0.000840781
0.0100294
-2.82304e-05
8.94197e-05
-6.1945e-05
-0.00040147
0.000462204
-0.000281307
-0.000791462
0.000517813
0.00498882
-0.00927573
-0.00905194
0.0102989
-0.0148215
0.00625552
0.008516
7.24503e-05
0.00147587
-0.00192652
0.00963297
-0.0105753
-0.00857856
-0.0046649
0.00569321
0.00163131
-0.0124349
0.0106381
0.000603344
-4.16616e-05
2.94577e-05
-2.67897e-06
0.00669949
-0.00760324
0.000751445
-0.0114033
0.0105612
-0.00695251
-0.00791193
0.00326649
-0.00391214
0.00013237
-0.00884493
-0.00445343
0.0132648
-0.002316
-0.00359849
-0.00443364
0.00804104
0.00579449
0.000422695
-0.00620672
0.000426958
-7.8047e-05
0.000722714
-3.34214e-05
-0.000968035
0.000550628
0.00111302
-0.00169175
-0.00457261
-0.00958553
-0.00645969
-0.00363229
0.0100431
-0.00892737
0.00866466
0.00012925
0.00290935
-0.00650469
-3.82628e-05
0.00147269
-0.0020616
-0.00111813
0.00164024
0.00322934
-0.00973705
0.0112236
-0.000542432
-0.0107914
-0.0125726
0.010027
0.00242737
0.00651722
0.00115217
0.00259823
0.00968874
-0.00900991
-0.000853937
-0.0127959
0.0108678
0.00185927
-0.012224
0.00117845
0.00848752
-0.00802305
-0.000630269
-0.000162883
-0.0165578
0.00745237
0.00907923
-4.99091e-06
0.000185517
5.24714e-05
3.71802e-05
0.00395844
0.00619895
0.00114265
-0.0117203
0.0104958
-0.0107118
0.0110591
0.00225263
-0.009094
-0.00122236
0.00136275
-0.000175266
0.0102629
-0.00895415
0.0109022
0.00689868
0.000773007
0.0119426
0.00103602
0.00157465
0.00567351
-0.00727109
-0.00652766
0.00540157
0.000932404
0.00117738
-0.00120632
0.00771886
0.00333228
-0.000152159
-0.000196991
0.000266835
-0.00550674
0.000571442
-0.0143262
0.00875538
0.00552695
0.00272741
-0.00937179
0.00779284
0.000509061
0.0051766
-0.00584181
0.00744995
-0.0015116
0.00144243
-1.48599e-05
0.0103391
-0.0119845
0.00157047
-0.00675153
-0.0103411
-0.0109798
0.000362057
0.0105132
0.00824412
-0.0105895
0.00217409
0.0113595
-0.0113811
-0.000108006
-0.00736201
-0.0100694
0.00208466
0.00796782
0.0030545
0.0105483
-0.0118511
0.0124441
-0.000657342
-7.88929e-05
-0.0124362
0.00537132
0.00702349
0.00103653
-0.00958466
-0.0102486
0.0077956
-0.00581861
-0.00665961
0.0121941
-0.00194651
-0.00597674
0.00799861
-0.00212887
0.00491683
-0.0120978
0.000301763
-0.000405669
-0.00078268
0.00267803
0.00748559
-0.00107615
0.000169806
-8.09919e-05
-0.000445742
0.00624662
0.0127104
-0.000840457
-0.00773436
-0.00884691
0.00985183
-0.00177489
-0.00266209
-0.00794958
0.00851932
-0.0100295
0.000485516
-0.010269
0.00969575
-0.00871094
-0.000562425
0.00904661
-0.00624459
-0.0110506
0.00146495
0.00954498
0.000107935
0.00956703
-0.0101226
-0.0133822
0.002471
0.010779
0.000567462
0.0102917
-0.000446823
0.00321793
0.00131581
-0.011971
0.0105834
-7.01075e-05
-5.68531e-05
7.84261e-05
0.000547858
4.09617e-05
-0.00153435
-0.0104924
-0.00131872
0.0108262
-0.00423395
-0.005853
0.00655416
-0.0106163
0.00397628
0.000659544
0.00921088
0.000101008
0.00290403
-0.00302818
0.0123428
0.00915401
-0.0081958
-0.00010057
9.39106e-05
8.58464e-06
3.0631e-05
0.000579442
-0.000750815
0.00981304
-0.00223627
-0.0102786
0.0107604
-0.000498711
-0.00276928
0.0028476
0.00174319
-0.00167228
-0.00143718
0.0104548
-0.00911108
-0.00654015
-0.00530982
0.0118384
0.00107037
-0.00126816
-0.0132792
0.0102288
-0.0102247
-5.95744e-05
-0.0109305
-0.000112836
0.0011369
0.00945538
0.000491139
-0.0099981
-0.00504926
0.00762476
-0.00294224
-0.00813785
-0.0118792
-0.00154666
-0.00324636
0.00171067
0.000744428
0.00869127
-0.00952877
-0.0103156
-0.00923805
0.00988671
0.0012954
0.00607404
0.00210566
-0.00176053
0.00186102
-0.011008
0.0127512
-0.00177798
0.00209488
-0.0027336
-0.00412512
-0.0085485
-0.00793077
-0.0128153
0.0116111
0.00107679
-0.0114097
0.0104769
-0.0103389
0.00144835
-0.00011955
0.00274365
-0.009153
0.00114906
-0.00250756
0.000969296
-0.0138787
0.00963117
-0.000873356
-7.63886e-05
0.000915217
-0.00199918
0.00409911
-0.00212115
-7.78845e-05
0.0019032
-0.00391977
-0.00610121
0.00721756
0.00063003
-0.0109745
0.010306
7.30548e-05
0.00073847
-0.000850943
-0.000517128
0.00059111
-0.000400525
-0.00338829
0.00985913
-0.0107128
0.0104437
0.00596167
-0.00675057
0.0101986
-0.00918416
0.000128043
-0.00829922
-0.00599104
-0.0104735
-0.0149838
0.00843349
-0.00908579
-0.00386464
0.0106344
-0.00110681
-0.00954137
-0.0111394
0.0103396
-0.0145086
0.00950698
-0.00515675
-0.00474132
0.00719383
-0.0125612
0.00531406
-0.00811178
0.0108154
-0.000380585
0.00978097
3.16234e-07
-0.004722
0.00549444
-0.000786442
0.00135549
-0.00196334
0.00945033
-0.00861582
-0.000943151
-0.010546
0.00785844
-0.0111128
0.000568076
0.00516796
-0.00703388
0.009561
-0.0100879
-0.00360166
0.0027967
0.000318543
-9.0963e-05
2.83984e-05
0.0122144
-0.0122926
-0.0118746
0.00890123
-0.010982
0.0103354
-0.00274479
-0.000956795
-0.0140501
0.00941399
-1.3023e-06
7.02916e-05
-0.000406939
0.000158665
-9.56786e-06
5.50029e-05
-6.87792e-05
0.00673625
0.0126516
-0.00550465
-0.00715707
0.000868818
0.0084649
0.000101995
0.000950333
-0.00109418
-0.00230246
-0.00104968
0.00117527
-0.0111265
0.00984693
0.00280181
-0.000969886
-0.00169082
0.00141227
0.00405243
0.00501792
-0.00587881
0.00631221
0.0114493
0.00115886
-0.0100065
-0.00948526
-0.00206358
-0.0105474
5.6332e-05
-0.000171812
-2.12591e-05
0.000107814
-0.0104271
-0.00160502
-0.0103425
-0.00691538
-0.00707221
0.000960418
-0.00074051
-0.000709261
0.0015476
-0.00174847
-0.000325046
-0.00700369
0.000784527
-0.00903844
-0.00917819
0.000619082
3.29701e-05
-0.00079174
-0.00871998
0.000125998
-3.1189e-05
-0.0001286
-0.0105226
0.0144918
-0.00761542
-0.00692093
-0.00061498
0.00228232
-0.00172548
-0.0116313
0.0130885
-0.00551103
0.00697705
0.0122013
-0.000570426
-0.00821537
2.02045e-05
0.0106731
-0.0107142
0.000193326
0.00893296
-0.00908729
-0.00849113
-0.000994057
0.00925441
0.000182206
-0.0112861
0.00936757
0.0018826
-0.00604482
0.00560471
-0.00899328
0.00164312
-0.00231822
0.00949681
0.0122671
-0.000928893
0.0036764
0.000779958
-0.00457967
0.00941204
0.000276783
-0.00982929
-0.00843468
0.00778419
0.00898024
-0.00371571
-0.00541435
0.00427265
-0.000725038
0.00443905
-0.0014053
-0.00347881
0.00189747
0.0068806
5.95746e-05
-0.00783506
0.00597442
0.00846804
-0.00210224
0.00928279
-1.17412e-06
0.00917595
-0.00874367
-0.000612387
-0.0111582
0.0115048
-0.000489084
-2.87951e-06
-5.03571e-05
0.00242071
0.00155287
-0.0116471
-0.00100362
0.0126051
-0.00865629
-0.00161372
0.000111913
-0.00132123
0.00783679
-0.00812889
0.000212736
0.000512325
-0.0108073
0.0109384
-0.0107668
-0.00032262
-0.000346941
-0.00222998
0.00254879
0.0019876
-0.0139086
-4.75571e-05
-0.00606946
-0.0104313
-0.00965606
-0.00957717
0.00872945
7.36812e-05
-0.000102435
0.0148228
-0.00519559
0.011402
-0.0101552
-0.000783209
0.0109332
0.00148531
-0.000386236
-0.00274798
0.00498522
0.00025399
-2.35903e-05
-0.000232504
-0.00842517
0.00237109
0.00128397
-0.0108109
0.000555326
-0.00685903
0.00168438
0.00978972
-0.0114908
-0.00478605
-0.00652876
0.010473
-0.0104735
-0.0102973
0.00985876
-0.000547222
0.000123605
-0.00961315
0.00860818
0.000975129
0.00841627
-0.000654336
-0.00259821
0.000128557
0.00246958
-0.0114246
0.0101754
0.00110944
0.010074
0.000818856
-0.0109257
0.000101996
-0.000822772
0.000697504
-0.00218837
0.00257473
-0.000404909
0.000219756
-0.000803554
-0.000916916
0.000968902
-0.00958498
0.00172385
0.0078544
-8.46861e-05
0.00084519
-0.000788112
0.000197073
-0.000245207
-6.43194e-06
-0.0101258
0.00986891
0.000198358
-0.00697387
-0.00507237
0.0119985
-0.00850332
-0.00820848
0.00610135
-0.00909853
0.000132191
0.00869348
0.0101201
0.000677669
0.0105175
-0.000541871
0.0102432
-0.0116168
0.00430042
-0.00253703
-0.00205299
-0.00553005
0.000797391
0.0140592
-0.00862073
-0.00545102
0.00294284
0.000445951
-0.000615993
-0.00799892
-0.00609945
0.00903015
-0.0105622
0.00933817
-0.0105346
-0.0015299
0.0119335
-0.00971507
0.0101147
0.00556284
-0.0108093
-0.013254
0.00975455
-0.0112845
0.00426966
-0.00343549
0.00359917
-0.000328213
-0.00685677
0.0110217
0.00107521
-0.0131357
0.0096801
0.0108477
0.000264027
-0.00718553
-0.00483456
0.0105091
-0.00144634
-0.00907073
-0.000958666
0.00926892
-0.00846159
-0.0126807
0.00164152
0.00929569
-0.0110663
0.00172949
0.000664121
-0.00103636
7.20316e-05
-0.0094406
-2.75693e-05
-0.00501518
0.00490399
-0.00690486
-0.000639214
0.00742906
0.000892239
-0.00792311
0.00869794
-0.001876
-0.00134048
0.00316967
-2.12002e-05
2.12002e-05
0.000784543
-0.00357215
0.00164468
-0.000934969
-0.00420142
0.00468728
0.0115233
0.000128356
-0.0117235
0.000377523
-5.86262e-05
-0.000350159
-0.010075
0.00909351
-0.000230497
0.000231186
-0.000114651
-0.0104742
-0.000459367
0.011904
-0.00623632
-0.00705808
-0.00160637
-0.00803738
0.000522683
-4.21625e-05
0.00760854
0.00100635
-0.00883384
-0.00912297
0.0089333
-0.0042888
0.00366424
0.000470808
-0.000708504
-8.40712e-05
0.000772799
4.7698e-07
9.69549e-05
8.47379e-05
-0.000815733
0.0081808
-0.000556108
0.00642786
-0.00750386
0.000729887
-0.000842915
-0.00888675
0.00948839
-0.000646401
-0.00063833
0.000542585
-0.000685328
-0.000279973
-0.00946641
0.0089016
0.000369213
-0.000894538
0.0109299
-0.00622269
0.0014855
0.00438278
-0.00110622
0.000948682
0.0105188
-0.00821642
0.000162869
-9.15586e-05
0.0116818
-0.00961273
-0.00217884
-0.00259379
-0.00699704
0.00683577
-0.00839456
0.000955493
-0.000735706
-0.000674623
-8.36203e-05
5.10059e-05
-0.00454393
0.00736835
0.0048377
-0.00499852
-0.00242072
-0.00815235
0.0104928
0.000503699
0.00537372
-0.00560735
-0.00151752
0.00708593
0.00973581
0.00182497
0.00670953
0.00228738
-0.0091921
-0.00490934
0.00551846
-0.00062587
0.000962578
-0.00392603
0.00290664
-0.00101881
0.000102472
-0.000100431
-9.07807e-07
-0.0101881
0.0104964
-0.00998533
-0.000527983
-0.00013258
-0.000543621
-0.00791067
-0.00296259
0.00894845
-0.0119533
0.00410339
-0.00552408
-0.000475967
0.00772905
-0.0072761
0.00265709
-0.000213283
-0.00247507
-0.00978539
0.00896246
0.00829969
-0.000913406
-0.0139883
0.00608768
0.00784114
0.0118186
-0.000900988
0.007877
0.00259685
-0.000573563
0.00276526
-0.000141464
-0.00845994
0.00873491
-0.000306655
0.000642229
0.00734796
0.00135583
0.00807002
0.00740756
-0.00807463
0.000659667
-0.00911643
0.008329
0.00216141
-0.00253634
-0.00223057
0.00314645
-0.00547398
-0.00040677
0.0058688
-0.000263417
0.00239522
0.00566306
-0.00618628
0.000495933
0.000158708
-0.00199233
0.00182293
-0.00187375
-0.00390125
0.00570683
0.00974102
-0.0103712
0.000577291
0.00412324
-0.00855731
-0.00574672
-0.000844029
-0.000691452
-0.0049184
0.00515187
-0.000261313
0.000337411
-0.000235314
0.00119492
-0.00555821
0.00430548
7.02204e-05
0.000744756
-0.000787921
-0.000872838
0.0007632
-0.00525645
0.000590144
0.00465809
0.0102556
-3.61738e-05
0.00303997
-0.000323253
-0.00273454
0.000101112
-0.0113951
-7.00604e-05
0.010693
0.000300716
-0.00766405
0.00733848
-0.000222022
0.0108384
0.0110547
-0.000771102
-0.000778078
0.0104469
-0.000296253
-0.00806193
0.00833933
-0.000833157
5.27364e-05
0.000106425
-0.000304737
0.00264807
-0.00233897
-0.00993158
-0.000711965
0.0104822
-0.0023853
0.010254
-0.000750418
-0.00148542
0.00194193
0.00205705
-0.00026142
-0.00180334
-0.00392335
0.00293594
0.000894196
-0.00223682
-0.000531416
-0.00269155
0.00239062
0.00304841
-0.00497771
-0.000222978
0.00946114
-2.35884e-05
0.00211465
-0.00992839
-0.000247839
-0.00495882
0.0102905
0.000962367
-0.0124287
0.0114311
-0.0115137
0.012441
9.50148e-05
-0.000748594
0.000634933
-0.000587765
-0.00343175
-0.00104585
0.01617
-0.0110227
2.00189e-05
0.00104431
-0.0137932
0.00638759
0.00734934
0.000329872
-0.00259107
-0.000107635
-0.00676673
-0.000237122
0.00668605
0.000830525
0.00613074
-0.0066262
0.000738344
0.00984596
-0.0106521
0.0106531
-0.00976204
-0.00104735
-0.000444749
0.000208272
0.00383119
0.00142589
-0.00535192
-0.00754111
0.00190004
0.0109923
0.000235654
-0.00193741
0.00168433
-0.000477965
-0.00395217
-8.43894e-05
-0.00253943
0.00231206
-0.0110033
0.0100693
-0.00531035
0.000883836
-0.00433558
0.00875341
-0.00454324
-0.000721736
-0.00293765
0.000796852
0.00170816
0.000338308
0.00640134
-0.00623115
-0.000350571
0.0115744
0.00947421
0.00113406
-0.0106537
-0.0103479
0.0112328
-0.00094895
-0.00762066
-0.00546626
0.00394048
0.000980605
-0.0085217
0.00795816
-0.00581513
0.00089312
-0.00340228
0.00059679
0.00269484
-0.0071907
0.007467
0.00490138
-0.00115606
-0.00790529
-0.000881685
0.00877171
-0.0133332
0.00763767
0.00560657
-0.0013687
-0.00122526
0.00258472
-0.0108221
0.0114744
-0.00072129
0.000525662
0.00520756
-0.00580671
0.000413027
0.00855922
-0.00917831
9.39095e-05
-0.000773317
0.000666599
-0.00195676
-0.000165339
0.00209273
0.000463064
0.00497545
-0.00545655
-0.00227653
0.00639956
-0.000620012
-0.0101338
0.0106208
-0.000692365
-0.00965345
-0.00488812
0.00170757
0.00312417
0.00283126
-0.0100696
-0.00723021
-0.00680929
-0.00326541
0.0072182
-0.000929472
0.000202983
0.00026256
0.00808643
-0.00840164
0.00631652
-0.000100769
-0.00886572
0.000372457
0.0103698
3.56006e-05
0.00030643
0.000100436
-0.000423181
-0.00278418
0.00236989
8.11542e-05
-0.0101823
-9.15058e-05
0.0052421
-0.00558461
0.0122219
-0.0105133
-0.00176515
0.000731637
-0.00025567
-5.08764e-07
2.03228e-05
0.000809269
-0.000926716
0.0110768
-0.0101982
2.00205e-05
0.000147849
-0.000234743
-0.000617831
-0.00730144
0.000879927
0.000329694
-0.00738695
0.000221018
-0.00207156
0.00184825
-0.00670345
0.00534356
0.0009446
-0.000719166
0.0120117
-0.00271747
-0.000779338
-0.00231959
0.00202719
0.000143646
-0.000408535
-0.00317004
0.0092674
-5.51252e-06
0.000160794
-0.0111682
0.0103226
0.0108401
0.00037916
0.000555932
-0.000149888
0.00277791
-0.00294173
0.000231389
0.00163833
-0.00190164
0.00212066
-0.00832648
0.00040271
0.000510664
0.00909174
-0.00961725
0.000992022
0.00989322
-0.0109247
0.00969847
-0.0105729
-0.00125404
0.0106861
3.17209e-05
0.000221252
-6.89295e-05
0.00085659
-0.000810877
-0.00227065
-0.00032585
-0.0027057
0.00283452
0.0100688
-0.0110438
-0.00122168
0.0102728
-0.00907633
0.0126093
-0.00908754
-0.00356984
0.000245866
-0.00200468
0.00175568
0.000986394
-0.0109303
0.00985839
0.0044322
-0.000721133
-0.00372939
-0.000194597
0.00174245
-0.0100762
-0.00147186
-0.00182814
0.00983253
-0.00153073
0.00035456
0.000411418
0.0111435
-0.00273926
-0.00313929
0.00824719
-0.00830111
-5.35678e-05
-0.00841328
0.00932186
-0.000941055
8.62302e-05
-0.000751288
0.000647518
-0.000542029
0.000271401
0.00195614
-0.00225539
-0.00978159
-0.0123443
0.0103238
-0.00606568
0.000589581
-0.00299012
0.000823942
-0.000761499
0.000293182
-0.00249896
0.0138222
-0.0133501
-0.000501397
-0.000418281
-0.000847364
-0.00130598
0.000220477
-0.00196529
0.00172058
0.0042136
-0.0035145
-0.000799733
-0.000821052
0.00072942
-0.000839506
-0.000755147
-8.83503e-05
0.0109374
-0.0002435
-0.0017654
-0.0019378
0.00169017
-0.00132663
0.0058382
-0.0045817
0.0074605
-0.00839797
0.00091957
-0.00967097
0.000510496
-0.00494755
0.00555096
-0.000630139
-0.00930733
0.00603468
-0.000805689
-0.000600847
0.0110476
0.00104066
-0.000660894
-0.000557599
0.00668578
-0.00617002
0.0111578
-0.00513576
0.000152722
-0.000191909
-0.00313806
-0.0018117
-0.00045832
0.00907166
-0.00862089
0.00589917
-0.00486251
-0.00110694
-0.000476656
-0.00571952
8.89935e-05
-0.000800009
0.000694286
-0.0116607
0.010337
0.0012708
-0.0111852
-0.00886521
0.000516659
-0.00582072
0.00522946
-0.00753666
0.000928985
-0.0108886
0.00651948
-0.000754097
0.000826238
7.2211e-05
0.000728919
0.00115258
-0.0104447
0.00925494
0.000494693
0.00378284
-0.00434684
-0.000583786
0.00970207
0.000552027
-0.00145516
0.00124124
0.00017417
0.00209601
-0.00185629
-0.000245365
0.00351588
0.0105179
9.60411e-05
-0.000774585
0.000666531
-2.61009e-05
1.60846e-06
1.75323e-05
0.000165058
0.00128339
-0.00147951
0.00503546
-0.00611606
-0.00300959
0.0132288
0.0100646
-0.00894749
-0.00574088
0.000769053
-0.0081457
-0.00209018
-0.00597455
-0.00400939
0.00988248
-0.0107222
-0.00138698
0.0120465
-0.00934971
-0.00451192
-0.0118573
0.00984472
0.0019642
0.00962733
-0.0108764
0.00924803
-0.00904482
0.0080685
0.000603408
0.0126532
-0.0105181
-0.00969107
0.000764502
-0.000997217
-0.00831768
-0.00841314
-0.000337297
0.00854742
-0.000698705
0.000360634
-0.0025666
0.00220037
0.000314836
0.000326047
0.00839244
0.00116626
-0.0095865
-4.5644e-06
-0.00926082
0.00923155
-0.0107635
0.00133096
-0.000181306
-0.00124534
0.0105005
-0.00108947
-0.000845319
0.00193112
0.000708686
0.00678335
-0.00760381
0.000293303
-0.0089182
0.00196454
-0.00176705
-0.0111347
0.0109
0.000204538
-0.00380722
0.00731728
0.000754023
0.00923892
-0.00874223
0.00037212
0.0105348
-0.0110192
0.00871315
-0.00847031
-0.00796419
-0.000862723
0.00881264
0.00919316
-0.000824778
-0.0115567
0.000667564
-0.0107028
0.00995981
-0.000196662
-0.0029057
0.00308101
-0.00462979
0.00517257
-0.00315788
-0.00077127
-0.0115961
0.0107322
0.000721855
0.0103872
0.000777939
-0.00550173
0.00594303
0.000595476
-0.000161828
-0.0100488
0.00196486
-0.00181623
-0.00899134
0.00794518
-0.00884377
-0.0020754
-0.00629255
0.0069498
-0.00068134
-0.00155345
-0.000294302
0.00879249
-0.00893422
-0.000622469
0.0086875
-0.00463348
0.00482116
-0.00034634
-0.000775799
0.00457184
0.000905977
0.00310931
2.05351e-05
-0.00342987
0.0106654
0.000681888
-0.000717119
0.00146945
0.00766178
-0.000261153
-0.000890595
-0.00562755
-0.00411421
0.00968635
0.00116581
0.0107031
-0.0119213
-0.00225203
0.000263409
1.10634e-06
2.87018e-05
-3.0206e-05
-0.00878719
0.00778276
0.0027411
-0.00120221
-0.00154067
0.00846751
-0.000119884
-0.00924054
0.00877471
0.00971935
-0.00915637
-0.000585626
0.00814787
0.000659656
0.0102187
-0.000666741
-0.000674435
-0.0106987
-0.000862174
0.0115679
-0.0100487
0.00106518
0.00894091
0.00420846
0.00958816
0.00969544
0.000664515
-0.0102264
0.010255
-0.0018511
-0.00840435
0.0119177
-0.0108845
-0.00115566
1.21154e-05
-4.45782e-06
5.78535e-05
0.011211
-0.0113388
-0.00105391
0.0109052
-0.000755464
0.00839807
-0.000301525
-0.00823226
0.000301442
-0.0110106
0.0106833
0.00117076
0.000150706
0.010744
0.000599583
-0.0114492
0.00652083
0.000904134
-0.00765109
0.0134667
-0.000575294
-0.0129797
-0.000314034
-0.00237331
-0.00224074
-0.00366079
0.0103847
-0.00288698
-0.00994398
0.0106157
-0.00174663
-0.00891811
0.00910536
-0.000540393
-0.00757786
0.0068206
0.0114201
-0.0108761
0.00182654
-0.00661512
0.000297021
-0.00107021
-0.0121168
0.00642902
-0.0108749
0.00216857
0.00862727
-0.000718817
0.00929018
-0.000616564
0.00831341
-0.00821778
-0.000380044
0.00012938
0.00760836
-0.00776515
-0.000688475
0.0112674
-0.00562471
0.00993261
-0.0107212
-0.00904165
0.0103478
-0.00942404
-0.000929853
0.000925837
0.0101603
-0.0111493
-0.000929943
-0.00186769
-0.000178259
-0.00740686
0.00757708
0.00914456
-0.0102119
0.00857304
0.000373655
0.0109686
-0.0113699
-0.0017968
0.00204212
-0.000309253
-0.00877395
0.000806577
0.00777205
-0.000693549
0.00847418
-0.00878
0.0108432
-0.000466592
0.0107123
-0.0102793
0.000295354
-0.00215554
0.0107262
-0.0113573
0.00493633
-0.0049805
-0.000107965
0.0123385
-0.000536666
-0.00855093
0.000471824
-0.000715581
0.0120319
-0.00942466
0.00335953
0.000584276
-0.000852242
0.00850401
-0.000353762
0.010934
-0.000622563
0.00970845
-0.0103951
-4.74454e-05
0.000199913
-0.000190236
0.00646747
-0.00632875
-0.000425436
-0.00128916
0.00487155
-0.000996234
-0.00599458
0.00695756
0.000587626
0.0108129
-0.000278308
0.0093915
0.00616643
0.000436104
0.00924902
-0.000322176
0.00123146
0.008062
-0.000607688
0.011182
-0.000173114
0.00866894
-0.00878088
0.00813706
0.0110046
-0.0115407
0.00162875
-0.00101891
-0.000901566
0.011315
0.00261222
-0.00225761
0.000375775
0.00868179
-0.00907657
-0.00971609
0.000468228
-0.00063076
5.26815e-05
0.00055004
-0.00792177
-0.000619572
-0.000986089
0.0110113
6.48626e-05
0.000501714
0.00390574
-0.00265836
-0.00706888
0.0102615
-0.000302507
-0.0100936
-0.000615394
0.0112679
-0.00393827
-0.000487393
0.00436908
0.00182413
-0.0124396
-0.0121736
0.00138716
-0.00785451
0.00859366
-0.000841467
-0.00785273
-0.00127971
0.0105671
-0.00932722
0.000478366
-0.00446908
-0.0022019
0.00245539
-0.000282409
5.67817e-05
-0.000625768
0.000543216
-0.00903336
-5.43421e-05
-0.000604086
0.000629879
5.15323e-05
-0.000627795
0.000547525
-0.00866283
0.00901987
-0.000579095
0.0103328
-0.0111679
0.000778577
-0.010546
-0.000626108
0.000543222
0.000752649
0.0100555
-0.0108751
5.06177e-05
-6.87238e-05
-1.8842e-06
-0.00633186
-0.00709868
0.00636389
-0.00650002
-0.000225919
-0.0122692
-0.00843874
0.00793671
0.000484406
-0.000603166
-0.000531072
0.0114395
-0.0110775
0.000382299
-0.00999749
-0.00127547
0.0111581
-0.0103595
-0.000603335
0.0108662
-0.00536827
0.00187514
0.00101204
0.0076786
-0.00893975
0.0113022
-0.00130047
-0.0102317
0.000805435
-0.000721359
3.80655e-05
-3.18903e-05
-2.59984e-05
-0.00106477
0.0106588
0.010742
0.00134385
-0.000599761
0.0100163
0.000125639
-0.000603028
-0.00936371
-0.00111705
4.80819e-05
0.00673243
-0.00710556
-0.0106557
0.0023142
-0.00244124
-0.000340039
0.00197396
-0.000218945
-0.00180666
0.0101051
-0.00126237
-0.00890172
-0.00271534
0.00314846
-0.000544061
0.0085564
-0.00956152
0.000980479
0.000806474
-0.0102788
0.00048262
-0.00331716
0.000228429
-0.00191772
0.00167718
0.00541873
-0.00497211
0.00120421
-0.00302568
0.00219258
-0.00265296
-7.19545e-05
0.00580264
0.000332906
0.0047986
0.000716288
-0.00215605
0.0108764
0.0058596
-0.00223589
-0.00103152
0.00119061
0.00915127
0.000118945
-0.00010138
-7.76139e-05
0.00177037
0.00225917
0.000276001
-0.000946813
0.0119111
-0.0110374
-0.000344341
0.00273166
-0.00172624
-0.00992221
0.0115891
0.0041921
-0.00738824