/*--------------------------------*- C++ -*----------------------------------*\
| =========                 |                                                 |
| \\      /  F ield         | OpenFOAM: The Open Source CFD Toolbox           |
|  \\    /   O peration     | Version:  v2012                                 |
|   \\  /    A nd           | Website:  www.openfoam.com                      |
|    \\/     M anipulation  |                                                 |
\*---------------------------------------------------------------------------*/
FoamFile
{
    version     2.0;
    format      ascii;
    class       surfaceScalarField;
    location    "600";
    object      meshPhiCN_0;
}
// * * * * * * * * * * * * * * * * * * * * * * * * * * * * * * * * * * * * * //

dimensions      [0 3 -1 0 0 0 0];
oriented        oriented;


internalField   nonuniform List<scalar> 
14516
(
-0.000918107
-0.00289457
0.00346619
3.31167e-07
-1.63591e-05
-1.32565e-06
0.00290866
-0.00420599
-0.00397418
0.00510087
-0.000868721
0.0088222
-0.00634402
-0.00273123
0.0016816
-0.000196538
-0.00173164
0.000428584
-5.50382e-05
-0.000882833
-0.0023733
0.00243193
0.000146789
0.00273999
0.000302693
-0.00313777
0.00356392
0.00500097
0.00437198
-0.00569962
0.00113382
0.000417485
-4.99577e-05
-0.000447245
-0.00406019
0.000658592
-2.00979e-05
-0.00026949
0.000327736
-0.000552697
-0.000385561
-0.00036933
-8.78323e-06
0.000382805
-0.000374403
0.000200212
0.000387137
-0.000187907
-0.000358311
0.00458693
-0.000477628
-0.00426226
-0.000352117
-0.000128634
-0.00135077
0.00141623
-4.2448e-06
0.000198175
-6.65338e-05
0.00116159
-0.000397149
-0.000780265
-7.08457e-05
7.08457e-05
-0.000272808
4.40445e-05
0.000102552
-0.0025242
-0.000769818
0.000403368
3.57689e-06
-0.000432097
-2.38409e-05
-0.000738108
0.000929537
-0.00425505
0.00140793
0.00259333
0.00291032
-0.000199196
-0.00112702
0.00109614
-0.000203943
0.000219075
0.000894543
0.0015413
-0.000358763
-0.00142044
-5.97563e-05
-4.48644e-05
0.000114164
0.00154097
-0.00469039
0.00298578
0.00185386
-0.000227955
-0.00179729
6.43354e-06
0.000209442
-1.472e-05
0.000142308
0.000642145
-0.000718842
-0.00019411
9.86609e-05
-0.000343023
0.000533387
-0.00169739
0.000333611
-0.00181932
0.000365983
-0.00155025
0.00270372
-0.000523134
-9.83583e-05
0.000630387
-0.000892918
-0.00125529
0.000651636
0.000699756
-0.00283218
0.000115876
-0.00130518
0.0011863
0.000142794
0.000873487
-0.000926011
0.00126033
0.00396973
-0.00215152
-0.00269995
8.29301e-05
-0.00445993
0.00424284
-0.00114393
0.000255961
0.000811474
-0.000311331
6.05278e-05
7.68828e-07
0.000678106
-0.00434592
0.0035903
0.0016395
-0.00191496
5.04454e-05
-0.00138996
0.00126509
-0.00779854
0.00201386
0.00567473
-0.000181703
2.37494e-06
-8.55167e-05
0.000533607
0.000320394
-5.77707e-06
-1.40326e-06
4.81275e-05
-0.00162218
0.000242064
0.00132008
-0.00113002
0.00125583
-0.000157251
-5.23857e-05
-2.16154e-05
8.3928e-05
0.0050346
0.00269325
-0.000187966
-0.00124114
0.00140095
-0.00155575
0.000307999
0.00128439
-0.00141284
0.00016526
2.04935e-05
0.000298524
-0.00033773
0.00456222
-0.00428704
0.0048847
-1.86509e-05
-5.50773e-13
1.77794e-05
-0.00124321
0.000335752
0.0014554
0.000158759
-0.000120456
-2.0018e-05
0.000974602
-0.0033081
9.35465e-06
-0.00045233
-0.000101085
-0.000385291
0.000387807
0.000109875
-5.24436e-09
-0.000114539
-0.00129023
0.000366369
0.00114901
-0.00113594
0.000448402
0.000830411
-0.00148766
0.00126423
-0.00160063
0.000378276
0.00125277
5.9303e-05
1.03757e-06
-7.46202e-05
-9.40644e-06
-0.000805619
0.000817331
-0.00171508
-0.000136707
7.56749e-05
-0.00112415
0.00101904
-0.000661274
-0.000219123
8.12602e-09
2.09301e-05
-5.19852e-05
0.00153595
-0.00179839
7.41998e-05
0.00179683
-0.000428638
-0.00142936
4.12564e-05
-5.62563e-05
-0.00065593
-0.00559621
0.00617014
0.000265644
-0.000239756
-6.3538e-05
0.00115113
-0.000968551
-0.000157297
-0.000784991
0.000777459
0.00157284
-3.8233e-05
3.1757e-05
1.26286e-06
5.07451e-05
0.000130064
0.000171882
-0.000714454
0.000504772
-0.000708605
0.000834106
0.000589601
-0.000119198
-0.000465841
-0.000550213
8.86862e-05
0.000324802
-0.000533704
-0.000143095
7.08176e-05
5.08541e-06
-0.00186556
0.000119779
-0.00205045
0.000268921
0.000225874
-2.46801e-06
-0.000202655
-0.00116282
-0.000227129
-0.000229951
-0.00105808
0.00132861
-7.9349e-08
-2.08272e-05
6.63869e-05
0.00147959
-0.00150366
-0.00172704
0.000369856
-0.000563817
0.00264589
-0.00241374
0.0041227
-0.00416963
-0.00163236
0.000229215
-0.00161197
0.00114643
-0.00204719
0.0028308
-0.000277453
-0.00130565
0.000843477
0.000174473
0.000885997
-0.00107543
1.70728e-05
-3.98055e-06
-4.14434e-06
-0.00370911
0.00330742
-0.000102936
6.62679e-05
0.00145188
-3.61353e-05
-0.000796039
0.000615713
-0.00177044
0.00157741
-0.00618725
0.00147789
0.00452312
0.000906591
-0.000860264
-0.000182319
-0.000939596
0.00323674
-0.000866597
-0.00233798
-1.1021e-06
-1.90582e-05
1.1617e-05
-0.000413765
0.0016014
0.00183413
-1.81989e-05
-0.000238707
0.000360361
0.00210918
0.000616819
-6.26192e-07
6.70004e-06
-6.66057e-05
0.000163131
-1.08703e-05
0.000792591
-0.0012288
-0.000301068
-0.00260881
-4.61851e-05
2.90236e-05
1.77781e-06
-2.45002e-05
-0.00397593
-9.73164e-05
1.65927e-05
-8.83015e-06
2.11433e-05
-2.53194e-05
1.48425e-05
-0.000167557
0.000806353
-0.000563459
-0.000232267
9.26862e-06
1.32521e-05
0.000201852
-0.00021173
-9.56982e-07
-2.80054e-05
5.41853e-06
0.000781941
-0.00086918
-6.59775e-05
-2.30643e-06
-5.24098e-05
0.00496331
-0.00569166
0.00510391
0.00114327
-0.0064326
-7.80398e-06
-2.18961e-06
0.00638884
-0.00153089
-0.00258203
0.00588496
-3.69753e-05
-0.000149749
1.25092e-05
9.01552e-06
1.99263e-05
-0.000215506
0.00013933
-1.63931e-06
-0.000166709
-0.000206752
0.00098982
-0.000803934
0.000846769
-0.00123069
-0.000774517
0.000706382
-0.00058027
3.106e-05
0.00042459
-0.000424896
-0.000858108
0.00510467
-0.00433006
5.59445e-05
-2.9139e-05
-5.63618e-05
-0.00187994
0.000269584
-0.00101425
-0.000732307
0.000551679
5.56009e-05
0.000422879
-2.84145e-05
0.000148336
-0.000823207
0.000800108
0.000430531
-0.000336332
-0.000630432
0.000792702
-0.00172601
0.000829087
9.96142e-06
-9.79451e-06
-0.000510291
0.00111455
-7.9834e-05
-0.000588039
0.00051751
0.00366014
-3.89838e-05
-0.000130305
9.49104e-05
1.8588e-05
-0.000432494
0.00217575
-0.00169867
0.00314974
-0.00136532
-0.00182986
0.00788591
-0.00594838
-0.00198396
-0.00460098
0.004215
0.000300065
-0.000912436
-0.000336646
-0.000638606
-8.11149e-06
0.000393374
-0.000910449
-5.19188e-07
-0.00170549
-0.00624475
0.00145474
-0.00184904
8.99994e-05
-0.00365737
0.00303733
-0.000399668
0.000460417
-0.00105888
0.00081194
-0.00732991
0.000115601
0.00739167
-0.00108597
0.00133046
-0.00170726
0.00180886
-0.000178211
0.000833707
0.0022874
-0.00664452
0.00167291
0.0048188
-0.00014719
-0.00113354
0.00128054
-0.00684561
0.00398968
4.61789e-07
-7.73468e-05
0.00232064
-0.000365958
-0.00153757
-0.00270728
0.00410516
-3.72515e-06
-0.00221516
0.00254246
-0.00210658
-0.000516328
-4.73983e-06
-0.00011417
5.65553e-05
1.01129e-06
-7.17298e-05
1.551e-05
0.000441719
-0.000392154
-0.00158968
-0.000176855
-0.000785733
-1.57548e-05
0.00095729
0.000106157
0.00164745
-0.00193121
8.28964e-05
-0.00100926
-8.2405e-05
0.000959744
-0.000287399
-0.000121005
-0.00296228
-0.00378787
-0.000226798
0.000189752
-0.000109416
-0.000602824
0.000920557
4.82341e-05
-0.000864443
5.01063e-05
-3.93667e-06
-0.000168069
5.51423e-05
-5.51601e-06
-0.000226228
0.00333968
-0.00353681
0.000299827
0.000278116
-0.000533659
-0.000824819
-2.51491e-05
-0.00709814
-3.32644e-05
-0.000769213
0.00347611
0.00108908
-0.00154137
0.000174868
-0.000186291
-4.17907e-05
0.00276113
-0.00336127
0.000420691
-0.0040999
0.00357261
-3.22599e-05
-3.2616e-05
2.34004e-05
3.50066e-05
-0.00123038
-0.00338631
-2.02032e-05
-2.36652e-06
-3.32447e-05
-0.00588297
0.0011758
0.00458668
-0.000195488
-3.21849e-05
0.00289348
-0.00356856
-3.1168e-05
-0.00264582
0.00211841
5.4722e-05
4.21657e-05
0.00142435
0.000256505
0.00106144
-0.00138361
-0.00149817
0.000112591
1.78022e-05
-0.000273266
0.000289882
-1.18752e-05
-0.00153638
0.00113692
0.00136891
0.000124121
0.00263116
5.77995e-06
-0.00275573
-0.000118462
-5.34102e-06
7.96377e-06
0.00273883
-0.00019346
8.09925e-05
-0.000155606
-7.56605e-05
4.59552e-05
-1.58257e-05
-5.82171e-05
-4.32772e-05
-0.00109281
0.00014955
0.000867874
-0.000354776
0.00436454
0.00095087
-0.00578968
0.00471929
0.00235179
-0.00308013
0.000233061
5.64963e-06
-0.000238847
0.000300053
0.00156695
-0.00155362
-0.000305619
-0.000258651
-0.000897733
0.000106125
0.00161419
-0.00198959
-9.79189e-05
-0.000458221
0.000650317
0.000760581
0.00022507
-0.000931149
-0.000106583
-0.00421979
0.00376044
-9.12309e-05
0.000113702
3.54671e-06
-0.00017818
-0.000685917
3.61635e-05
-3.52635e-05
3.59045e-06
-6.93032e-06
6.00139e-05
-0.00156003
0.00149993
0.00130908
-0.00415593
0.00186506
0.000484495
-0.00277642
-0.000483093
0.000459046
-4.21621e-05
-0.000359855
0.000326807
0.000227261
-8.45893e-05
-0.000362847
2.11016e-05
0.000124358
-5.44547e-05
-2.61767e-05
-2.64292e-05
6.74983e-05
4.8499e-06
-2.01623e-05
0.00188644
7.96469e-05
-0.00173383
0.000159593
-0.00288367
0.00334103
-0.00536641
-3.48021e-05
-0.000337601
-3.47377e-05
0.000122536
-6.98899e-05
-0.000443388
0.000682046
-0.000395202
0.000596452
-0.000249279
-0.000553826
0.000915648
0.000228027
-0.000380403
-0.000840588
0.000329071
0.000405488
6.83157e-05
0.00163543
-0.00208374
-9.72414e-05
-2.43255e-05
0.00165337
-0.00104707
0.00107322
-0.000295763
0.00192337
-0.00219381
0.000421097
-4.3719e-05
2.2764e-05
-3.52766e-06
0.000198548
-0.0001288
6.54128e-05
-0.000859438
0.000711886
-0.000396817
-0.000490499
-0.0037695
0.00442329
-0.000151294
-0.00325495
-0.00172406
0.00465284
3.34967e-05
-0.000125941
-0.000106613
0.000349455
0.00137458
9.70981e-05
-0.00129489
0.000295253
-4.72869e-05
0.000745289
-2.38624e-05
-0.00105494
0.000223515
0.000461146
-0.00059709
5.80706e-05
-7.6908e-06
-1.21311e-05
-5.25017e-05
-2.6039e-05
0.000590755
-0.000772731
-1.26037e-05
0.000149203
-0.000204153
0.000109265
-0.00484329
0.00591059
-0.000430293
0.000737032
-3.34096e-05
-6.61131e-05
-0.00066927
2.81939e-05
0.000572368
1.74053e-05
-0.000131383
9.68396e-06
0.00147438
0.000252831
0.000874501
-0.00136724
0.00115367
0.000152605
0.000314884
-0.000429655
-4.2189e-05
-0.000821396
0.000108462
-0.00172081
0.0016686
0.000138356
0.000101635
-0.0064651
0.00295651
0.00341906
3.4316e-06
-0.000117598
2.82553e-05
2.26924e-05
0.00302425
0.004805
6.71848e-05
-0.000592676
0.000496658
-0.000306337
5.05878e-05
0.000694332
-0.00300463
-0.00041674
0.000462708
-5.41059e-05
0.00398552
-0.0034562
0.00313726
0.000661772
6.43148e-05
-0.00119569
-0.000119183
0.000763184
0.0027661
-0.00367474
-0.00400242
0.00372536
0.000644336
-0.00147416
0.00157961
0.00134401
0.00051709
4.35565e-05
1.09243e-05
-0.000110385
-0.000666858
8.70884e-05
-0.0060064
0.00346414
0.00226791
-0.00066193
0.00234676
-0.00167506
-0.000103534
0.00176496
-0.000691244
0.000884237
-0.000383925
0.000379989
-5.73535e-06
0.000285836
-0.000199585
2.15961e-05
-0.00366101
-0.00445661
-0.00100915
3.15921e-05
0.000783033
-0.00171636
0.00202836
-0.000474836
-0.000965774
0.000864607
8.27015e-06
-0.000836626
-0.00152011
0.000354784
0.00133358
3.26226e-05
-0.000153141
-4.27161e-05
-8.30324e-05
-1.39451e-07
-0.000119356
-0.00403586
0.00168579
0.00210349
0.000528869
-0.00492275
-0.00710485
0.00527364
-0.00196026
-0.00233761
0.000421314
-7.29178e-05
-0.000265444
0.000250932
-5.12882e-05
0.00199764
-0.0050576
-0.00017186
0.000202831
-0.000331025
0.00112398
0.0017259
-0.000260854
-8.21375e-05
6.55073e-06
-0.000107763
0.00164058
-0.0011228
7.40119e-05
-0.00297468
-0.00357981
-0.00217176
0.000343113
-0.00144
-0.00457788
0.00144105
-0.00181701
-3.27748e-05
0.000696023
-0.000566356
0.000334671
7.52313e-06
-2.53848e-05
-0.00161991
-0.00340304
0.000470064
0.00283196
-8.18563e-05
-5.86772e-05
0.000129377
-0.000489337
0.000176806
0.000294357
-5.66556e-05
-0.00128489
0.00046202
-0.00334803
4.48672e-05
-0.000305224
0.000321346
2.06918e-05
-6.05937e-06
-6.19193e-05
-6.81052e-05
-1.10169e-05
-0.000404728
-0.000571817
-6.85165e-06
7.34267e-05
-0.000680079
-0.000955915
0.000441109
-0.000789847
0.00034059
0.000477789
0.00645641
3.42246e-05
0.00101335
-0.0010774
0.00484563
0.00392503
-0.00360024
7.12269e-05
-3.76298e-05
-3.69661e-06
3.64608e-05
0.000790997
-0.000905302
0.00143996
-0.000444746
-0.00475359
0.00493439
-0.000226716
-0.000909933
0.000914902
0.000321738
-0.000270549
-0.000490182
0.00369406
-0.00338926
-0.00185032
-0.00156171
0.00329663
0.000254132
-0.000370292
-0.00267552
0.00181229
0.00149198
1.0739e-05
0.000122896
-2.11508e-05
0.000198774
0.00167669
9.38852e-05
-0.00202488
0.00118299
-0.00158781
-0.000858768
-0.00257165
-0.00164437
-0.000381291
-0.000873769
0.00045564
0.00015343
0.00204642
-0.00222532
-0.00102738
-0.00156663
0.00168844
0.000275231
0.00138836
-0.000344365
-0.000191766
0.000211754
-0.00325345
0.00359894
-0.000495745
-0.0022194
0.00298084
3.71727e-05
-6.69318e-05
-0.00387512
-0.00118592
0.00109048
0.000132846
0.00121887
-0.00136723
-0.000810275
0.000461905
-3.6289e-05
0.000560744
-0.00201076
0.00114239
-0.00234492
0.00102618
0.00028581
-0.000290992
0.000118907
1.44025e-05
-0.000131395
-0.000619945
0.00127787
-0.000701755
-1.12037e-05
0.000508608
-0.00112021
-0.000763948
0.00103936
-7.99407e-05
0.00133263
-0.00120104
-7.58766e-05
-0.000958041
-8.5299e-05
-0.00062472
0.00064694
-0.000552209
-0.000183197
0.000644184
0.000402352
-0.000653167
0.00153976
-0.00169319
0.00511543
-0.00470707
3.5857e-05
0.000241556
5.69038e-05
-0.00047767
-0.004172
0.00221421
0.000699164
0.000279644
0.00560757
-0.000574487
-0.0051144
0.00135664
-0.00111953
0.0012905
-0.00316089
0.00138485
0.00129237
0.000133586
-0.000314597
9.03764e-05
-0.00156197
0.00202148
-6.0619e-05
0.00144537
1.84194e-07
-0.00158914
0.00184441
-0.00028251
-0.00311155
0.00427432
0.0013037
-0.00142419
-0.000170565
-0.00554373
0.00397013
0.00303314
-0.000190833
0.00118763
-0.00164005
-0.00404239
0.0035917
0.000286757
-0.000352667
2.98803e-05
-4.19571e-05
6.44069e-06
0.0024607
-0.00289937
-0.00319249
0.00231902
0.000914852
-0.00104187
7.93795e-05
2.33671e-05
8.34971e-06
-0.00016614
-1.60838e-06
8.63957e-05
-9.31855e-05
4.82656e-05
-2.31666e-06
-1.41225e-05
1.14357e-05
0.00159926
0.000274262
-0.000163969
-0.000659935
8.21995e-05
0.000924158
1.22099e-05
6.49015e-06
-7.75245e-05
0.000146961
-1.898e-05
-0.000104584
0.000940324
-0.000991919
0.00136953
-0.000444898
-0.0012481
0.000957173
-0.00166982
-0.00209505
-0.00129544
0.00156554
-0.00113903
-0.000129217
-0.000948552
0.000900224
0.000194386
0.001335
-9.58436e-05
0.000114321
2.30349e-05
-8.37837e-05
-0.000153069
-1.73692e-05
0.000938782
0.00017301
2.95084e-05
-0.000732022
0.000648215
0.000462919
-0.000182015
0.000804735
0.000132107
-0.00125784
0.000122095
0.00078934
0.00212857
-0.000184389
-2.80054e-05
-0.000357235
-0.00403331
-0.000162859
2.42068e-05
9.37816e-05
0.000147485
0.00181484
-0.000939982
-0.000976088
-9.46482e-05
0.000274053
-0.000208025
0.00174432
-0.00262729
-0.00117374
0.00175469
0.00157801
-6.19455e-05
0.000404113
2.20997e-06
0.00118847
-0.00122691
6.72183e-05
-0.00235851
0.00194794
-0.00376586
-0.000436222
-0.00399023
-6.33912e-05
-0.00381149
0.00298381
0.000653285
-0.00139537
0.00144091
4.76571e-05
0.0003237
-0.000451874
0.00694232
-0.0014193
8.55353e-05
0.00139015
0.000316242
-0.00172062
-9.56248e-05
1.63936e-06
0.000100383
-0.00579616
0.00525922
-0.000261179
0.000110715
0.00011774
0.00152628
-0.000235866
-0.00638886
0.00187912
0.00453509
-9.44378e-05
-0.000403374
1.05905e-05
-0.00473063
0.000624712
0.00103652
0.000282723
-3.50243e-05
2.40746e-08
-0.00157636
0.00137696
0.00012768
-0.000134992
0.000107923
1.72873e-05
-2.42325e-06
-6.13894e-05
-0.00355882
-0.00235711
-0.00141142
-0.00010197
0.00141018
-0.00615303
-0.00110822
3.90429e-05
-0.000487467
0.00106538
-0.00110553
3.60387e-05
0.000241438
-0.00505074
-0.00405955
0.00415375
0.000142546
-0.000167717
-0.00103816
0.00115654
3.09784e-05
-0.000311825
-3.24805e-05
-0.00307724
0.000803045
0.000407976
-0.00721505
0.00654012
9.22916e-05
-0.000112035
0.0022988
-0.000291168
0.000535291
0.00129295
0.000102262
-0.00128447
-0.000115296
5.91051e-05
-0.000175001
0.000476959
-8.83598e-05
7.30873e-06
5.86338e-05
-0.000398323
0.000128839
-0.000111147
0.000776994
0.000143328
-0.00156615
0.000962971
0.00560309
-0.00665945
-0.00158782
-0.00235085
0.00108773
-0.00112147
-0.00178095
0.00141192
-0.00127612
0.000231317
-0.00357669
0.00309797
0.000375612
0.00118207
-6.91626e-05
-0.000946533
4.89903e-05
0.000998244
-0.000146757
-6.2159e-05
-5.59449e-06
-0.00110547
-9.53731e-05
0.00125963
-2.58614e-05
0.000184323
-0.00011466
-0.00115399
0.00137013
-0.000197308
0.000156058
-0.000697152
-0.000380343
-0.000151462
-0.0072182
0.00129789
0.00585108
2.93401e-05
-0.000269728
0.000249517
-0.000169774
0.000179245
8.74594e-06
-0.00312988
0.00301953
5.65647e-05
-0.000231735
-0.000125269
0.000454873
-0.00235285
0.00180943
-0.00106978
0.00324104
-3.93765e-05
-0.00308276
-0.0035289
-0.000199108
-0.00332319
0.000214583
0.00369374
-0.00430827
-0.00483044
0.00275395
0.00215682
-0.00182756
0.000245433
0.00288637
-0.00178636
-0.00120518
-0.00346166
0.000225084
-0.00021221
-4.4903e-05
-6.33214e-05
0.00286343
-0.00355151
-0.00436075
0.000455839
6.02316e-05
-0.000651815
0.000843926
-0.000787118
0.000370128
-0.000779151
-0.00548871
0.0039924
-0.000373259
0.000197328
-0.00083181
0.000619472
-5.5263e-05
-0.00142238
0.000327714
2.13679e-05
-0.000907047
0.000555523
-0.000683916
-1.69321e-05
-8.90686e-05
6.33438e-06
-6.00091e-05
9.04599e-06
4.55024e-05
7.42212e-05
-0.000729693
0.00061685
-0.00389347
0.000509408
0.00295206
-0.00363782
0.000582074
0.000528273
-0.000984612
-2.93697e-05
0.00333212
-6.29918e-06
-0.000695471
0.000969629
-0.000420098
-4.35805e-05
0.000238839
6.41504e-05
-0.000845251
-0.0024673
-0.000388198
-0.000281023
0.000654565
-2.34867e-05
2.34867e-05
-8.38648e-05
-0.000836496
0.000381044
0.000364293
0.000599768
-0.00100603
-0.000562873
-4.69449e-06
0.000595291
5.16895e-05
-9.11817e-06
-3.17876e-05
-0.00400924
0.00356544
-0.000362957
0.000386472
-0.000184891
-0.00105685
3.07022e-05
-0.000623402
-0.00249245
-0.00297239
-0.000586768
-0.00313849
0.000563136
-6.52443e-05
-0.00309107
-0.000368444
0.00354434
0.00411051
-0.00407969
-0.00183847
0.00147234
0.000215292
0.000123639
1.18899e-05
-0.000130614
-7.71079e-07
-0.00017568
-1.55371e-05
0.00012875
-0.00155028
0.00010495
-0.00069571
0.000765214
-0.000240406
0.000275068
-0.00209996
0.00202293
-0.000142433
-0.000616052
0.000580145
-0.00151574
-0.000594643
0.00205633
-0.00217478
-7.44068e-05
9.63883e-05
-0.0011914
0.0026392
-0.000350869
-0.0022123
-0.000175644
8.4538e-05
0.00525855
-0.00426233
0.000209314
-0.000107408
-0.00309345
0.00247592
0.000551786
-0.001954
-0.0053267
-0.000275834
0.000217735
0.000974902
-0.000482723
-0.000526857
-6.2636e-05
5.28166e-05
-0.00329207
0.00523798
0.00170634
-0.00145672
-0.00123658
-0.00445485
0.00591041
0.000114727
0.00134843
-0.00112939
-0.000299292
0.00136432
-0.0026844
-0.000510656
-0.00143055
-0.000560821
0.00183827
-0.00143865
0.00165846
-0.000200874
0.000122453
-0.000651533
0.000391998
5.50928e-05
-1.43213e-06
7.25069e-05
7.54458e-07
0.00129232
0.00505648
-0.00485386
-0.000259604
6.33958e-05
-0.00036937
-0.00551918
0.000510703
-0.0027214
-0.00282371
-0.00299065
0.00335139
-6.89985e-05
0.00132285
-0.00104825
0.000697788
-5.53737e-05
-0.000628036
-0.00439518
0.00386774
-0.003461
0.000414659
-0.000129892
6.5906e-05
1.34082e-07
0.00022881
-3.08869e-05
0.000702038
0.000225954
5.21775e-05
0.00075053
-3.752e-05
-0.00371144
0.00373362
-0.000131813
-0.000129227
-0.00127914
-0.000212344
0.00386399
0.00541997
-0.00597036
0.000487558
0.000320303
9.05929e-06
0.00103015
-0.00123903
-0.000243821
0.00024449
-0.00139384
-9.76474e-05
0.00148395
-0.000121867
0.00109622
0.00152257
-0.00173675
0.000132571
3.96129e-05
-0.000496887
0.000478381
-0.000450414
-0.00102861
0.00156359
-0.00136026
0.00140104
-8.66302e-05
0.00018481
-0.000313076
0.00145636
0.000421543
2.29452e-05
0.000781164
-0.000542716
-0.0002078
0.000336831
-0.000139658
0.000232418
-0.000934642
0.000895516
-2.03172e-05
-0.000237474
-0.000141731
0.000201568
-0.000185428
-0.00183644
0.000208296
0.00166049
0.00402211
-1.35766e-05
0.000841028
-9.73831e-05
-0.000769454
6.01122e-06
-0.000182279
-3.80128e-05
0.00562072
6.87702e-06
-0.00027718
0.000143519
-1.1806e-05
0.000441121
-0.00136168
0.000109611
0.00010656
-0.00158733
-0.000205512
-0.00571424
0.00580295
0.000195363
7.56392e-05
0.000140022
-8.1518e-05
0.000749606
-0.00055648
0.00494317
0.000364191
-0.00536017
-0.000235054
0.000909171
-0.000474885
-0.00105192
0.00176496
0.000484999
-6.4371e-05
-0.000407185
-0.00091541
0.000646553
0.000242939
-0.00102046
-0.000257268
-0.000732916
0.000762753
0.000657464
-0.00102661
-0.000171356
0.00726289
3.48003e-05
-0.00259876
-0.00306441
-8.1582e-05
-0.00160649
0.00307652
0.000251998
-0.00353635
0.00293158
-0.00312807
0.00303349
-3.83481e-06
-2.80717e-05
2.68256e-05
-0.000114275
-0.000842406
-0.000222799
0.00509412
-0.0035806
-3.53484e-07
0.000216533
0.00184042
-0.000738286
-0.000859857
0.000151985
-0.0012678
1.17863e-05
0.000838957
6.45081e-05
-0.00136893
4.5015e-05
0.000831083
-0.00072249
-6.68917e-05
-0.000817984
0.000983413
-0.00500568
0.00432827
0.000492832
0.0001297
-0.000141832
0.00090478
0.000291779
-0.000902093
-0.00168551
0.000415557
0.00524242
8.47074e-05
-0.000728016
0.000649275
-0.000186966
-0.00175869
1.09681e-05
0.000334913
1.76863e-05
0.00122282
-0.00111159
0.00102258
-9.75259e-05
-0.0014194
0.00264405
-0.0016072
-0.000257895
-0.00140418
0.000397458
0.000421293
7.65738e-05
-0.000680477
0.000733883
3.2648e-05
0.00105338
0.00156654
0.000225509
-0.00185056
-0.0030563
0.00317539
-0.000255365
-0.000647595
0.0064065
-0.00474659
-0.00109084
-0.00573655
0.00527266
-0.00164952
0.000235913
0.000221219
-2.15949e-05
-0.000337263
-0.000240425
0.000122851
0.00150705
-0.000311416
4.86219e-05
-1.13329e-05
0.000126367
-0.00249221
0.00130973
0.00116073
-0.00057598
-0.000554707
0.00115874
0.000501901
-0.000606925
3.80735e-05
8.77033e-05
0.000707803
-0.000869174
-3.70354e-05
-0.000892151
0.00105177
2.32079e-05
-0.00021446
0.000197497
-0.000624011
-4.72842e-05
0.00062422
0.000107076
0.00112547
-0.00134888
-0.000142475
0.000323629
0.000124388
0.0028532
-0.00281226
-0.000124499
-0.00188813
-0.0003283
0.00014684
0.000150022
5.48261e-05
-1.38489e-05
-0.000150808
-6.92834e-05
-0.00245863
0.00542971
0.00116964
-0.000329383
-0.00023765
0.00545705
-0.00577938
-0.000468993
1.00969e-05
-0.00402328
0.000168133
-0.00217082
3.54353e-06
5.33413e-05
0.000140346
-0.000602333
0.000980856
-0.00057599
4.51365e-05
-0.00573357
1.93836e-05
-0.00196535
0.00190368
2.61598e-05
5.43877e-05
1.28316e-05
0.000739491
-0.000271809
-1.37922e-07
1.45393e-05
-0.000222922
-0.000210147
0.00238647
-0.00248982
-2.52451e-05
-0.000176838
0.000230752
-0.000261529
0.000673372
-9.21409e-05
-1.48167e-05
0.000796845
3.2509e-05
-0.000294924
0.000304522
0.000752448
-0.000939603
1.38751e-05
-0.000106386
0.00159158
4.64308e-05
7.95765e-05
-0.00101986
0.000849883
2.33845e-05
-6.75518e-05
-0.000358881
0.00138034
1.66929e-06
-0.000181438
-0.000844209
0.000721332
-0.00111339
-3.86096e-05
-0.000261101
2.29795e-05
-9.04247e-05
0.000507068
6.25914e-05
0.000447599
-0.000249964
0.000324176
0.00018138
-8.01713e-06
0.000310806
0.00534381
-0.00574779
-0.00011061
-0.0009324
0.00100493
-0.00511646
0.0054288
-0.000169779
0.00171977
-1.00587e-05
-8.37357e-05
2.10162e-05
-0.00026539
0.000276171
-0.000744687
-0.000114195
-0.00100118
0.00115757
0.00210385
-0.00262692
-0.000587846
0.00503634
-0.00453398
1.87634e-05
6.63865e-05
2.1215e-05
3.54718e-05
-0.00033535
0.000322462
-8.9415e-05
0.00100911
-0.000965507
0.00125019
-0.000210822
-0.00112249
2.29364e-05
2.90004e-05
-0.000250372
-3.54333e-05
-0.000231798
0.00387326
0.000355845
-0.000192316
2.85876e-05
-0.000216858
0.00318927
0.00341311
0.00122019
-0.00150143
-7.40913e-06
-0.00461187
0.00494147
-0.000497839
-0.000230275
7.14363e-05
-5.62036e-05
-0.000173085
0.000114932
0.000742499
-0.000922303
-0.00338883
0.00129758
-0.00113961
-0.00148067
0.000151275
0.000779078
-0.000186942
0.000159485
0.000160668
-0.00126251
0.00331713
-0.00331105
-0.000127887
-0.000238861
0.000749846
0.000864858
6.9766e-05
-0.000680178
0.000581867
0.00139607
-0.00120485
-0.000261862
0.000235639
-0.000184563
-0.000220279
0.000219108
1.80803e-05
0.000134603
-4.98114e-05
-0.000289952
-0.000447963
0.00039662
-0.0003513
0.00178597
-0.00126038
-0.000102805
-2.00304e-06
-1.96138e-05
-0.00499995
7.11222e-05
-0.00146517
0.00167864
-0.000198444
-0.00703419
0.0044895
0.00114128
0.000708555
-0.00125047
-0.000103126
4.7122e-05
1.95325e-05
-0.000188653
0.000307477
-0.000512636
0.000352709
-0.000232367
0.000232991
-0.000314527
-0.000114302
-0.000345519
0.00685734
-0.00656722
0.000683885
-0.000534403
-7.17389e-05
-0.000128767
-0.00153607
1.45277e-05
-0.000170616
0.000147228
-0.00204382
0.00154597
0.000192937
0.000412796
-0.00505317
8.13919e-05
-0.000925432
0.000795042
-0.000437685
6.411e-05
-0.00380788
0.00218782
-8.262e-05
8.74653e-05
-1.75331e-05
-0.000158557
0.000516212
-0.00466976
0.00389897
0.000140358
0.00107992
-0.00137345
-0.000108664
0.00163655
9.36089e-05
-0.000614842
0.000530503
7.74985e-05
0.000489483
-0.000414059
-5.40232e-05
0.000643317
0.00207321
2.69108e-05
-0.00024467
0.000218463
-3.50066e-05
1.71831e-06
1.79253e-05
5.00383e-05
0.000403342
-0.000479378
0.000921525
-0.000936553
-0.00112422
0.00472601
0.00450157
-0.00423038
-0.00164689
0.000211479
-0.001683
-0.000707322
0.000871782
0.00043299
-0.00124679
0.000371064
6.22911e-05
-0.000550395
0.00132911
0.000634168
-0.00151103
0.00115953
0.000293546
0.00457079
-0.00526583
-0.000867058
0.000942363
-0.00315052
-0.000238417
0.00148853
-0.00143748
-0.00249559
0.000191468
-0.00075427
-0.00636572
0.000670774
3.28759e-05
-0.00032129
-0.000173876
0.000116995
-0.000773712
0.000657202
1.15731e-05
7.05164e-05
0.00426549
0.000631374
-0.00502603
-1.6753e-06
-0.00324582
0.00327665
-0.00417527
0.00132344
-0.000211823
-0.00037483
0.00324368
-0.000170912
-0.000135028
0.000366413
8.41059e-05
0.000766132
-0.0010957
-1.4856e-05
0.000960534
0.000604318
-0.00055783
0.000868841
-0.000950389
6.38243e-05
-0.00117192
-0.00311543
-0.000284478
0.0057523
-0.00552836
-3.25303e-05
-0.00112385
0.00115975
0.00347938
-0.00350974
-0.000830964
-9.71203e-05
0.00122486
0.00458406
-0.000396988
0.000450855
-2.61302e-05
-0.0020281
0.00166014
-4.92167e-05
-0.000713574
0.000802174
-0.00123034
0.0014171
-0.000795141
0.000226649
0.000253127
-0.000422407
-3.01174e-05
0.00282991
0.000232457
-0.000848735
0.000876273
0.00082589
-0.000222866
0.00109369
0.000495752
-0.000435625
-0.00342979
0.000325828
-0.000175966
-0.000968716
-0.00116214
0.00141733
-0.000136692
5.40637e-06
-7.63693e-05
-0.00248867
0.00256268
-0.000407512
0.00573865
-0.00182147
0.00182428
-0.000152266
-0.000236022
0.00153433
0.000284003
-0.000273491
-4.58639e-06
0.000832274
-1.59855e-05
3.14012e-05
-0.000562492
0.00133936
0.00556695
-0.000189825
-1.22941e-07
-0.000291061
-0.000248291
0.00033276
0.000223568
0.00197839
-0.00242511
-0.000793515
9.56555e-05
4.45541e-07
1.25071e-05
-1.11981e-05
-0.00666981
0.00583274
0.00106887
-0.000403042
-0.000581251
-0.00451042
6.03879e-05
-0.00690683
0.00650679
0.000749996
-0.000628335
-3.00715e-05
0.000213937
-2.92329e-07
-0.00530539
0.000347483
6.45486e-05
0.000152872
7.66915e-05
-0.00122801
-0.00342505
0.000364424
0.00292125
0.000958415
0.00225282
-0.00287344
-0.00016642
0.000809002
0.000544077
-4.96233e-05
-0.000313227
0.00169625
-0.00177516
-0.000198833
-2.35553e-05
8.01609e-06
-1.98011e-06
-0.000476726
0.000432603
8.38168e-05
-0.00108419
1.50703e-05
0.000644752
-2.4469e-05
-0.000989639
7.93431e-05
-0.000654038
0.00045483
0.000373075
5.29464e-05
0.000467622
3.84789e-05
-0.000674138
-0.000855253
-0.000126643
0.00100645
0.000610216
-3.17065e-05
-0.000522369
-8.88612e-05
-0.000548697
-0.000567624
0.000128802
-0.000411661
-0.000988151
0.000939045
-0.000906317
-0.000588978
0.000372566
-0.000903616
3.03237e-05
-0.000696172
0.000430045
0.000598606
0.000836527
0.000445682
-0.00123092
0.000258059
-0.00124642
-0.000718504
0.000213535
0.000635213
-0.000149727
-0.00046142
-0.000141718
0.00355485
-0.000236603
-0.00258947
0.00253091
0.000114481
7.43816e-05
0.00438225
-0.00469395
2.17288e-05
-0.000585392
0.00033391
-0.00132637
0.00153918
0.000575443
0.0001998
-4.89432e-05
-6.78228e-06
-0.000104697
-0.00107278
0.00124881
-0.000763108
-0.00143773
-1.33624e-05
-0.000293891
0.000624905
0.000288307
-0.00363501
0.00289155
4.08581e-05
0.00119018
-0.00131397
-0.000465115
0.000566022
-9.69211e-05
-0.000485784
6.61586e-05
-0.0034946
0.000340976
-0.00279881
0.00209945
0.00336777
1.89824e-05
-0.000506888
0.000256103
5.83782e-05
-0.000500153
-0.000617799
0.000612955
0.000526273
-0.000566491
-1.50266e-05
0.00170742
-6.93846e-05
-0.00616905
0.000341393
-3.54675e-05
0.000500256
0.00158135
-0.000625292
0.000425238
-0.000741821
0.00106838
-5.99098e-05
0.00290348
-0.000155112
-0.00412979
0.00475281
3.65348e-05
-0.000203504
0.000124871
-0.00407865
0.00363471
0.000291477
0.00139455
-0.00414788
-0.000191769
-0.00107984
0.00128289
-3.21977e-05
-0.000662868
-3.72473e-05
0.00522261
0.0013683
3.94143e-05
0.000680369
-0.000108239
0.000658468
0.00415548
5.09746e-05
-0.000724519
5.09365e-05
-0.00265245
-0.00564175
0.00511054
-0.000852917
0.00085132
0.00187929
-0.00107551
0.000113181
-0.00121387
0.000844663
-0.000735692
0.000244319
0.00546089
-0.00580249
8.91485e-05
-2.29798e-05
-0.000109715
8.39392e-06
8.58794e-05
-0.00542919
-0.000414173
-0.000195378
0.0020586
9.62421e-05
0.000135493
0.00101881
-0.000710499
-0.0019879
-0.00404774
0.000106242
0.0040129
-2.32327e-05
0.000486065
-0.00147614
-0.000177755
0.0015643
0.000157637
-0.000759205
0.00023737
-2.81858e-05
-0.00152313
0.00144932
-0.000143888
-0.00139291
-8.23333e-05
0.000703203
-0.000757352
0.00018006
-0.00171157
-0.000994042
0.00109805
-0.000132054
1.02586e-05
-0.000102099
8.31577e-05
0.00233285
-5.27253e-06
-6.743e-05
7.84642e-05
5.32241e-06
-7.85578e-05
6.45299e-05
-0.00582496
0.0059736
7.74683e-05
-0.000834195