/*--------------------------------*- C++ -*----------------------------------*\
| =========                 |                                                 |
| \\      /  F ield         | OpenFOAM: The Open Source CFD Toolbox           |
|  \\    /   O peration     | Version:  v2012                                 |
|   \\  /    A nd           | Website:  www.openfoam.com                      |
|    \\/     M anipulation  |                                                 |
\*---------------------------------------------------------------------------*/
FoamFile
{
    version     2.0;
    format      ascii;
    class       surfaceScalarField;
    location    "600";
    object      phi;
}
// * * * * * * * * * * * * * * * * * * * * * * * * * * * * * * * * * * * * * //

dimensions      [0 3 -1 0 0 0 0];
oriented        oriented;


internalField   nonuniform List<scalar> 
14516
(
0.368141
-0.22605
-0.142312
-0.740932
0.423144
0.317778
0.194314
0.173583
0.423532
0.0226927
-0.445251
-0.115612
0.295056
-0.179612
0.291835
-0.523677
0.231881
0.388387
-0.646742
0.258619
0.161717
0.402609
-0.563719
0.362056
-0.378461
0.0165713
0.188642
-0.304438
0.257008
-0.00457309
-0.252544
0.197444
-0.391061
0.193612
-0.17408
0.599018
0.619223
-0.376778
-0.242349
0.615125
-0.615298
-0.406562
0.661043
-0.254408
0.157017
-0.533809
0.377134
0.560313
-0.40326
0.0750744
-0.277602
0.202447
0.212758
0.431532
-0.252568
-0.178944
0.399585
-0.172349
-0.227021
0.272871
-0.566058
0.293211
-0.302123
-0.305758
0.314096
-0.550362
0.236403
0.452687
-0.625179
0.41121
-0.6673
0.256138
0.675343
-0.432024
-0.243009
0.102722
-0.249322
0.146459
-0.0572486
0.419535
0.342799
0.0128644
-0.355735
0.627797
-0.354897
-0.304125
0.569278
-0.265337
-0.594887
0.602571
-0.00748288
-0.288242
0.116475
0.171694
0.239893
-0.42361
0.183641
0.569712
-0.180929
0.259383
0.140426
0.199836
0.345636
-0.545307
0.687688
-0.361949
-0.325213
-0.0766627
0.419409
0.0809559
0.534022
-0.564468
0.0430566
0.52283
0.677181
-0.369248
-0.307583
0.0306636
-0.59323
0.496935
-0.185568
-0.66012
0.332989
0.327164
0.452137
-0.290038
-0.161961
-0.402568
0.426052
0.299931
-0.183532
0.300797
-0.175731
-0.125132
-0.228284
0.459505
-0.231107
-0.176134
-0.216191
0.392432
0.489554
-0.19573
-0.293864
-0.223065
-0.198618
0.421557
0.325575
0.178362
0.0720596
-0.207259
0.135138
0.295572
-0.414016
0.118272
-0.290241
0.490546
-0.67021
0.443752
0.226767
-0.278969
0.463907
-0.184818
0.400541
-0.018584
-0.381931
-0.574513
0.0996694
0.476141
-0.254986
0.157902
-0.583174
0.309156
0.274075
-0.0807851
0.481297
-0.307828
-0.122378
0.430299
0.385496
-0.188064
0.30964
-0.0527022
0.31498
0.174537
-0.496097
0.605375
-0.109275
0.268756
-0.529316
0.261426
0.283568
0.333925
-0.617474
0.39951
-0.0996697
0.483178
-0.187771
-0.576399
0.314694
0.262126
-0.517924
0.608892
-0.0909705
0.251003
-0.599364
0.348681
0.240829
-0.579188
0.338664
-0.281052
-0.302085
0.271997
-0.610775
0.338977
-0.420478
0.506184
-0.0857177
-0.752123
0.378231
0.373953
0.35266
-0.429296
-0.678951
0.359592
0.319368
-0.348407
0.589613
-0.529293
0.31241
0.217312
-0.150203
-0.348483
0.498763
-0.305234
0.624679
-0.319311
-0.30342
-0.437522
-0.322468
0.237688
0.0847355
-0.196549
-0.343187
0.539821
0.342847
0.284983
-0.429053
-0.336547
-0.415515
0.199156
-0.422251
0.141728
-0.562225
-0.535267
0.338769
0.72613
-0.287258
-0.438794
0.40598
0.320231
-0.307538
0.621386
-0.313637
-0.204183
0.53762
-0.333375
0.336619
-0.540721
0.135406
-0.653351
-0.0924397
0.445218
0.000759103
-0.349032
0.435254
-0.643519
0.208646
0.247665
-0.47593
-0.650582
0.446981
0.203663
-0.540018
0.0439268
-0.443899
0.248834
0.195157
0.214683
0.236509
-0.421548
0.168212
0.253127
0.150776
0.149957
-0.250452
-0.53808
0.303766
0.234147
0.261479
0.137933
0.584359
-0.312175
-0.272886
0.61569
-0.489814
-0.160708
0.0426712
0.440691
-0.483349
0.263108
0.249241
-0.512216
0.433508
-0.141605
-0.449096
0.255519
0.193578
0.190015
0.241535
0.0923419
-0.231622
0.139174
-0.346614
-0.332328
0.579896
-0.328614
0.117909
-0.431187
0.313832
-0.703359
0.484596
0.218773
-0.214192
0.398925
-0.280484
0.60468
-0.412858
-0.191527
0.331971
-0.389091
-0.521367
0.259004
0.262745
-0.00374232
-0.569346
0.441666
0.235871
0.51734
-0.302737
0.391445
0.230103
-0.621483
0.482062
-0.218691
0.282431
-0.510256
0.228004
0.682706
-0.298603
-0.383378
-0.702355
0.289247
0.413251
0.279042
-0.655716
-0.609827
0.362567
0.247329
-0.66604
0.320275
0.345752
-0.389275
-0.312919
-0.178198
0.521518
-0.343268
-0.229281
-0.093226
-0.344836
0.252856
0.0918552
-0.353403
-0.349944
-0.120597
-0.224405
0.416921
-0.228469
-0.508826
0.33069
-0.374483
0.417162
0.682472
-0.324727
-0.357721
0.504224
-0.221588
-0.755622
0.366471
0.290546
0.392788
-0.343928
0.50633
0.303488
0.372134
-0.618156
0.4076
0.210645
-0.244474
0.0636932
0.180766
0.243615
-0.6163
0.37266
0.227758
-0.480442
-0.300501
-0.148477
-0.175092
0.32357
-0.226218
0.637485
-0.613325
0.306104
0.307542
0.119515
-0.47576
0.356156
-0.544212
0.304623
0.239522
-0.386144
0.629717
-0.324835
-0.219497
-0.481488
0.273322
0.208231
-0.169411
-0.208583
0.217307
0.361502
-0.578813
0.576982
-0.240498
-0.336053
-0.0839464
0.253598
-0.169631
0.0240092
0.0458649
-0.0699016
-0.14561
-0.162732
0.308383
-0.349523
-0.195988
0.351792
-0.49738
0.145428
-0.26655
0.536065
0.222556
-0.150592
0.358074
0.219317
-0.497256
0.258855
0.238484
-0.391095
-0.226974
-0.198373
-0.283054
-0.436956
0.481166
-0.043378
0.290368
0.161919
-0.249721
-0.194092
-0.388485
-0.262878
0.178977
0.168829
-0.315392
0.146497
0.560251
-0.315627
-0.24442
0.274454
0.142259
0.540046
-0.148566
-0.0220534
0.354125
-0.23501
0.301218
-0.0662746
-0.405726
0.206918
0.220508
0.254366
-0.474457
0.463998
-0.204702
-0.479729
0.615128
0.467684
-0.644316
0.332277
0.312164
0.342381
-0.434607
-0.22363
0.363913
-0.140038
0.341049
-0.156763
-0.184356
0.506445
-0.215869
-0.453979
0.164016
0.22131
-0.397318
0.313104
-0.144317
0.437137
0.24536
0.586986
-0.343998
-0.242618
0.506515
-0.154827
0.0673913
-0.547123
0.223522
0.145307
-0.368866
-0.35846
0.16294
0.195236
0.516582
-0.310221
-0.205819
-0.175776
-0.585437
0.149595
0.672666
-0.294394
-0.171354
-0.287581
-0.236057
0.225474
0.319112
-0.544473
-0.225043
-0.133667
-0.267284
0.120193
0.147046
-0.677678
0.375567
-0.621526
0.31576
-0.307385
0.161861
0.612134
-0.160673
-0.451442
0.105495
-0.234507
0.128953
-0.147802
0.371326
-0.260879
-0.244818
0.505862
-0.225985
-0.310765
0.536744
0.420678
-0.221555
-0.654886
0.396421
0.258626
-0.0985544
0.44123
-0.625459
0.314842
0.310713
-0.553152
0.309049
0.244153
0.206794
-0.510914
-0.292663
0.541166
-0.248183
0.195469
0.326085
0.643999
-0.240681
0.270498
0.233912
-0.339736
-0.148144
-0.446552
0.411246
-0.244922
-0.166233
0.139218
-0.290001
0.150814
0.318669
-0.16794
-0.242109
0.115041
0.127011
-0.287481
-0.226562
0.514068
-0.423393
0.199901
0.223673
0.237612
0.262023
-0.499497
0.288759
-0.149516
0.522916
-0.310101
-0.212811
-0.669662
0.327963
0.341855
-0.546294
0.503491
0.0428549
-0.518326
0.148851
0.169776
0.427742
0.17821
-0.605831
-0.334154
0.185665
-0.483597
-0.0330944
0.516697
-0.699179
0.215598
0.178294
0.16269
0.227955
0.0731953
-0.358639
0.486515
-0.127934
-0.253473
-0.416065
0.602955
-0.382592
-0.220341
0.159735
-0.332557
0.172752
0.506764
-0.277615
-0.228617
0.598281
-0.53917
-0.0590965
0.561021
0.0372695
-0.210082
-0.469402
0.219782
0.620515
-0.359483
-0.259472
-0.149832
0.49805
-0.227422
-0.595864
0.192412
0.403469
0.556902
0.0111647
-0.567789
0.248444
0.439722
0.334889
0.182137
0.234285
0.177051
0.0218577
-0.252187
0.230329
-0.676381
0.434973
0.241785
0.232121
0.232175
0.256429
-0.297224
-0.241007
-0.465952
0.230644
0.235112
0.200872
0.275448
0.344226
-0.619668
0.356349
0.248609
-0.38672
0.208979
0.17784
0.239924
-0.218027
0.32418
0.253487
-0.57624
0.270192
-0.2307
-0.0397209
-0.283295
0.413714
-0.204423
-0.209202
0.177511
-0.448019
0.270647
-0.104075
0.539681
0.382086
-0.628982
0.247126
0.611589
-0.492427
-0.119029
0.312752
-0.153068
0.374313
-0.300705
-0.0735968
-0.267038
-0.232542
0.499658
0.294716
0.119056
0.635804
-0.367461
-0.266092
0.485323
0.126394
0.338893
0.0354328
0.211116
-0.403106
0.192138
0.183656
0.193703
-0.377229
0.249173
-0.554246
0.326093
-0.294074
-0.232439
0.526791
0.178094
0.155569
-0.333674
0.0787455
-0.302211
-0.294732
-0.242586
0.537711
-0.332755
0.109821
-0.286322
0.17647
0.639164
-0.305228
0.646632
-0.579234
0.0752346
-0.0512631
-0.385167
0.205596
0.179701
-0.275999
-0.138184
0.382244
-0.120922
-0.385694
-0.193035
0.578788
0.155707
0.184304
0.157013
0.262093
-0.5693
0.342137
-0.440402
0.307585
-0.178815
-0.128857
-0.306992
-0.275287
0.582978
0.26839
0.255723
-0.396275
0.374141
0.599257
-0.572332
-0.026819
0.107648
-0.539361
0.16917
0.161716
-0.33105
0.526141
-0.167511
0.228992
-0.523423
0.259624
-0.372101
-0.282633
0.291875
0.369237
0.613543
0.257596
0.110182
-0.367539
0.33776
-0.146272
0.23171
-0.417393
0.185707
-0.406457
0.06647
0.340166
-0.192907
-0.220539
0.413608
0.249462
0.0566852
0.361024
-0.417526
-0.413587
0.19755
-0.236361
-0.167613
0.403982
-0.404226
0.0145722
-0.209923
0.195208
0.438373
-0.123451
0.0812495
0.141229
0.205257
-0.190841
-0.185977
0.443803
-0.466386
-0.105542
0.572072
0.343676
-0.0306122
-0.372593
-0.297363
-0.492144
-0.0541148
-0.299343
0.548712
0.0747161
0.537435
0.468912
-0.291271
-0.113187
0.455594
0.270486
-0.1607
-0.0346886
-0.371552
0.226004
-0.120582
-0.283617
-0.140065
-0.506432
0.274764
0.231922
-0.289653
0.531878
-0.24151
0.271885
0.129803
-0.273655
0.143838
-0.293393
-0.256691
-0.166536
0.184318
-0.399065
0.214982
-0.540253
0.35021
0.527243
-0.201326
-0.376712
0.200321
0.176582
0.575061
-0.599281
0.0242692
0.162166
-0.523652
-0.375379
-0.22906
-0.440453
0.183988
-0.293353
0.349967
0.385333
-0.042608
-0.342569
-0.122186
0.213071
0.61434
-0.257021
-0.357301
0.0573064
-0.109882
-0.15744
0.26969
0.332719
-0.602386
-0.688446
0.457356
0.231288
-0.0570853
-0.339233
-0.09532
-0.217452
0.312762
0.288223
0.326134
-0.285852
-0.339513
0.353202
-0.158516
-0.194675
0.232437
-0.25709
0.0245709
0.385015
0.217963
-0.135833
-0.285904
0.171488
-0.482386
-0.18083
0.618924
-0.23389
0.16262
-0.343957
0.181206
0.398164
0.128497
0.265817
-0.135982
-0.279289
-0.316236
-0.00668079
-0.559358
-0.536804
0.248039
0.288919
-0.15492
-0.263104
-0.273547
-0.611063
0.311884
-0.357809
-0.353642
-0.256117
-0.14998
-0.14389
0.293801
0.369109
0.252831
0.343346
-0.15954
0.131749
0.198756
0.204056
-0.402536
0.252302
0.270628
-0.176056
-0.200291
0.607958
0.351467
-0.0978804
0.549003
-0.0355145
-0.512907
0.0775218
0.266019
-0.396304
0.637918
-0.241547
-0.627453
0.220162
0.407292
0.641688
-0.402508
-0.224905
-0.354497
-0.258523
-0.535695
0.249205
0.28661
0.472459
-0.202977
0.568484
0.556229
0.0197207
-0.575806
0.353779
0.0317303
0.157997
0.325017
0.315662
0.244792
0.1506
0.287707
-0.617237
-0.261683
0.381349
-0.170922
-0.0455909
0.277951
0.281086
-0.268225
-0.227176
0.398015
-0.170886
0.230172
0.276475
0.172092
0.0106967
-0.360317
0.349928
0.409789
-0.0864056
-0.323364
0.195285
0.156166
0.333989
-0.171528
0.564863
-0.272966
-0.123189
0.396157
0.393104
0.24473
-0.263273
-0.259598
0.522816
0.0873608
0.138572
-0.258568
0.507954
0.377728
0.247096
-0.23278
-0.2644
0.177149
0.360541
-0.110866
0.554876
-0.440873
0.185985
0.254594
0.114901
0.150962
0.188356
0.318056
-0.341781
0.518954
0.0856532
0.227025
0.62448
-0.26298
0.088021
0.514745
0.643595
-0.317371
-0.326184
-0.232861
0.0969866
0.31287
0.232859
-0.505165
0.241846
-0.630751
0.3905
0.240278
-0.402413
0.503314
-0.486245
0.237755
0.248548
-0.115637
-0.374122
-0.315235
-0.360802
-0.343512
0.354495
-0.201201
-0.246683
0.332667
-0.44579
-0.161853
0.301799
-0.32047
-0.305398
0.497382
0.0777638
0.524441
-0.0965787
-0.171675
0.372233
-0.233896
0.311826
-0.234173
-0.00487625
-0.532134
0.538281
-0.294515
-0.282622
0.578816
0.214506
-0.529922
-0.238216
0.224207
-0.511606
-0.285343
0.304206
-0.155451
0.323611
-0.597368
0.27378
-0.33954
-0.0270033
0.2594
-0.232404
0.613056
-0.324422
-0.288549
-0.241037
-0.225112
-0.321745
-0.277291
-0.16437
0.413292
0.231121
0.374597
-0.214156
-0.160434
-0.585903
-0.267647
-0.285457
-0.18444
0.304592
-0.236429
0.495476
0.0672584
0.174184
-0.241532
0.276967
0.192072
-0.154518
0.340041
0.273098
0.0828402
-0.125133
0.457836
0.350516
-0.561534
0.211239
0.235238
-0.481412
0.246447
0.112819
0.123801
-0.113363
0.405151
-0.291533
-0.216659
0.56733
-0.0814959
0.428214
-0.34585
-0.429187
0.315995
0.515913
-0.119524
0.222505
-0.249553
0.478162
-0.24726
0.4828
-0.291758
-0.2085
0.500536
-0.209621
-0.208009
0.417892
0.622732
-0.34728
-0.461814
0.381628
-0.227575
0.392843
-0.165274
-0.131107
0.212256
-0.599006
0.216427
0.268217
0.198207
-0.466277
-0.312995
0.217656
-0.212923
-0.246908
0.460331
0.576533
-0.358836
-0.217688
-0.354648
0.118206
0.269334
-0.183474
-0.351915
0.197045
0.076663
0.0841914
-0.416444
-0.179406
-0.237728
-0.344675
0.0925046
-0.3232
0.520895
-0.197585
-0.555336
0.533218
-0.520436
-0.0131571
-0.298161
0.583211
-0.285067
-0.0517432
-0.4145
0.468874
-0.167207
-0.544688
0.263727
0.253062
-0.185364
-0.0677506
0.216339
-0.14914
0.174581
0.200022
0.175741
0.158081
-0.183186
-0.432176
0.107765
0.137935
-0.245736
-0.161068
0.42947
0.250698
-0.552506
0.301899
0.194288
0.200548
-0.394764
0.272645
-0.511554
0.239024
-0.631899
0.277581
0.354401
-0.343412
-0.196547
0.540012
0.472003
0.0851577
0.325888
-0.534214
0.0492382
-0.147888
0.0986001
0.62891
-0.28314
-0.34571
0.377424
0.243269
-0.620573
-0.137652
-0.161982
0.299697
-0.352594
0.257614
0.0951594
-0.14792
-0.173838
-0.354834
-0.258052
0.495689
-0.237012
0.242387
-0.454744
-0.225068
0.468108
-0.218197
-0.0594784
0.0302846
0.281375
-0.311037
0.125447
-0.398386
0.128929
0.172282
-0.301281
-0.371573
-0.384489
-0.258711
0.281283
-0.195643
0.185557
0.167647
0.249549
0.206792
-0.420757
0.214092
-0.21353
-0.292658
-0.257906
-0.0867781
0.0470673
0.228164
-0.0867926
-0.265674
-0.359594
-0.208181
0.567846
0.262803
0.199132
-0.384989
0.0848343
0.20394
-0.20554
0.41684
0.339626
-0.229271
-0.230754
0.464549
-0.233784
-0.493338
0.265967
0.227624
0.144232
-0.294271
0.140505
0.136612
-0.277132
-0.377143
-0.269405
-0.482727
0.225244
-0.597404
0.230277
0.367632
-0.308475
0.570681
-0.26219
-0.571191
0.26263
0.273826
0.572454
-0.408829
-0.16355
-0.332462
-0.27519
-0.502354
0.23132
0.341172
-0.599794
0.336158
0.264452
0.209267
-0.408841
0.199736
-0.278283
0.615597
-0.337245
0.122565
0.203388
0.510477
0.00730522
-0.517711
-0.200105
0.406648
-0.197259
0.220612
-0.173446
0.247697
-0.140008
-0.153974
0.536297
0.286036
-0.522731
0.237187
-0.252437
-0.229739
0.226489
0.329645
-0.555978
-0.377922
0.631352
-0.253388
0.495029
-0.171375
-0.629836
0.251948
-0.312297
0.541815
-0.269329
-0.22379
0.370017
0.258952
-0.210477
-0.125666
0.33603
-0.331743
-0.356529
-0.455546
0.536735
0.0405921
0.374323
-0.414717
0.506479
-0.233752
0.224361
-0.524212
0.300593
0.248735
0.370211
-0.10086
-0.151757
0.0345152
-0.450946
-0.206583
-0.190408
0.397141
0.132108
-0.0829145
-0.304987
-0.245274
0.00459879
0.55149
-0.555255
0.212515
0.431117
-0.178229
-0.0290661
-0.276265
-0.320656
0.220039
-0.13276
-0.00197225
-0.47252
0.191929
-0.382184
0.568885
-0.186686
0.209829
-0.416274
-0.459979
0.386672
0.0735405
-0.283815
-0.166672
0.450536
-0.548876
0.279239
0.269621
0.217882
-0.614163
-0.345781
0.615474
-0.262238
0.0822604
0.238427
-0.320707
-0.488416
0.226867
-0.114094
-0.4191
-0.137768
-0.18803
-0.324622
-0.274252
-0.608342
0.342989
0.265581
-0.414575
0.58756
-0.172913
0.153744
0.150368
-0.242873
0.529372
-0.0181341
-0.222049
0.240239
-0.191888
0.391102
-0.260996
0.280468
0.527371
0.0672038
-0.481701
-0.126344
-0.128407
0.254712
-0.528044
0.216237
-0.435351
0.11909
0.109275
0.00587889
-0.115197
0.250163
0.282433
0.360736
0.215813
-0.345346
-0.203551
-0.201656
0.454033
-0.252361
0.601087
-0.240345
0.191201
0.276265
-0.467487
-0.585057
0.237681
0.347415
0.622147
-0.377883
-0.244058
-0.357738
-0.0152125
0.37301
-0.414198
0.209756
-0.285076
0.509451
-0.611164
0.318973
0.293296
-0.548019
0.0152132
0.533099
-0.587826
0.263202
0.324908
-0.651449
0.368377
0.392642
0.277924
0.36006
0.0862902
-0.388093
0.301847
-0.14735
0.30316
-0.305755
0.632181
-0.326415
-0.406602
0.197201
-0.327222
0.100046
0.542887
-0.327374
-0.21558
0.404877
-0.21127
-0.165939
0.516194
-0.439896
0.0821872
0.21105
-0.119224
-0.091896
-0.373455
0.419618
-0.38509
0.547818
-0.258398
-0.289328
-0.240435
0.470775
-0.230081
-0.219056
-0.0419503
-0.572922
0.513392
0.060303
-0.243116
0.574327
-0.331184
0.20741
0.322695
-0.529952
-0.199849
0.532884
0.244008
0.303904
0.397748
0.224577
0.111617
0.0844389
-0.484687
0.12641
0.15999
-0.297561
-0.295016
0.0849733
-0.352247
0.149644
0.202352
-0.263783
-0.0887097
-0.622877
0.276816
0.346092
0.534578
-0.327022
-0.381991
0.163043
0.0964106
-0.472509
0.17927
0.0161238
-0.381644
0.365845
-0.581748
0.222901
0.608411
-0.282215
0.550363
-0.267963
-0.518183
-0.313727
-0.294418
-0.484257
0.234627
0.249848
-0.213658
-0.239149
0.452937
0.152085
0.447282
0.473925
-0.536381
0.0629013
-0.0119197
-0.370326
-0.230753
-0.593705
0.245424
0.348319
0.5501
-0.323439
-0.625177
0.33565
0.290447
0.219898
0.286669
-0.273853
-0.489135
-0.252824
0.0033988
-0.303256
0.389537
-0.0739416
0.520992
0.339801
-0.582885
-0.265545
-0.299175
0.56514
-0.202323
0.15607
-0.305118
0.149082
-0.151449
-0.16284
0.314288
-0.173081
0.124519
0.356348
-0.479318
0.110116
0.116704
0.150336
-0.434105
0.243122
-0.553966
0.31093
0.275899
0.266923
-0.0141063
0.488456
-0.365747
0.623879
-0.257956
0.00353374
0.260466
-0.263851
0.51432
-0.53005
0.0157725
-0.184525
-0.205831
0.390427
-0.572823
0.314683
0.258213
-0.52882
0.280723
0.248599
-0.615071
0.262673
0.352428
-0.375186
0.614624
-0.239425
-0.434477
0.210908
0.223499
-0.286083
-0.128119
-0.461869
0.230418
0.231853
0.330347
-0.154722
-0.0489113
0.401236
-0.352246
0.426677
-0.0868339
-0.236421
0.218303
0.0855347
-0.0103373
-0.0230902
0.485703
-0.461189
0.125853
0.0851283
0.302918
-0.56791
0.124791
-0.251201
-0.220499
-0.569154
0.290943
0.437953
0.0726101
-0.319897
-0.304299
0.303905
-0.0662715
-0.591155
0.330566
0.261376
-0.202835
-0.168963
0.371989
-0.110591
0.552573
0.519026
-0.174789
-0.261799
0.328506
-0.173758
-0.154938
-0.62112
0.41542
0.205853
0.29895
0.236356
-0.535307
-0.540587
0.258873
-0.556538
0.212118
0.344463
0.257866
0.285044
-0.542276
0.43283
-0.191299
-0.302711
0.545927
0.247179
0.35392
-0.436471
-0.135782
-0.53659
0.223098
0.507713
-0.130218
-0.195329
-0.195732
0.236071
-0.428879
-0.453957
-0.635188
0.322388
0.313792
-0.502734
0.298556
-0.341703
-0.214794
0.266545
-0.632144
-0.234546
0.224465
0.0100262
-0.512334
0.280752
0.231622
0.250542
0.220495
0.307162
-0.151026
-0.533514
0.23535
0.654514
-0.297967
-0.356474
-0.290915
0.541689
-0.23714
-0.31527
0.156923
0.171393
0.360865
-0.131929
-0.228965
-0.191463
-0.186782
0.378432
-0.558588
0.203698
0.354916
-0.469715
0.236724
0.233112
-0.161183
0.49576
-0.334617
0.279773
-0.37427
-0.189934
0.384332
-0.346441
-0.175798
-0.0106725
-0.520271
0.532569
-0.208787
0.424856
-0.299378
0.248561
0.207993
-0.45661
-0.12885
-0.113586
0.242346
0.170344
0.266657
0.364735
-0.313434
-0.600504
0.368343
0.232155
-0.0787823
0.245906
0.218109
0.249798
-0.451392
-0.298588
-0.275383
-0.354422
-0.527198
0.183865
0.113737
0.152135
-0.265926
0.241189
-0.509
0.500643
-0.619934
0.260794
0.359161
-0.216657
-0.31774
0.534525
0.291786
0.362799
0.494896
-0.319911
0.597579
0.181017
0.527653
-0.32395
0.20235
0.325309
0.64305
-0.304477
-0.338283
0.35299
0.271488
-0.624556
0.202237
-0.391948
-0.302239
-0.1954
0.497703
0.00173668
0.0837343
0.496112
-0.517684
0.316916
-0.439177
-0.425957
0.561174
-0.257629
-0.408213
0.0955361
0.313091
-0.377913
-0.243071
0.327893
-0.376778
0.099252
0.0570178
-0.156305
-0.207036
-0.321052
0.528291
0.469533
-0.193184
-0.619483
0.268624
0.350883
0.202072
0.164207
-0.366453
-0.196173
0.112221
-0.563616
0.276022
0.287692
0.236131
-0.579743
-0.0872881
-0.165653
-0.359044
-0.260416
-0.643151
0.367822
-0.32303
0.163874
0.158997
-0.553133
0.300847
0.25228
-0.318127
0.161334
-0.555197
0.232653
0.358027
-0.590611
-0.224398
-0.341323
0.565751
0.297351
-0.168527
-0.609349
0.265746
0.343626
0.292017
-0.600844
0.325655
-0.612335
0.363313
0.249058
0.310557
0.269617
-0.294583
0.0763484
-0.14882
-0.174364
0.18335
-0.485516
-0.165775
0.26641
-0.447006
0.419568
0.0276826
-0.191905
0.377214
-0.185295
0.382247
-0.365883
0.142898
0.158726
-0.301585
0.163183
0.197638
-0.25906
-0.269261
0.296797
-0.523164
-0.164551
-0.315982
0.0610163
-0.271602
0.0795309
-0.0778571
-0.278448
0.532016
-0.252838
0.441703
-0.526013
0.221328
0.304697
0.5191
-0.521698
0.134136
-0.24428
0.110081
-0.312126
0.169559
0.142658
-0.0241287
-0.0914412
0.526562
0.281011
-0.140504
-0.496922
0.527406
-0.0304221
-0.564391
0.299732
0.264651
-0.528493
0.250695
-0.266326
-0.353585
0.187669
0.226099
-0.594945
0.235421
0.289672
-0.532057
-0.0345745
-0.200023
-0.423611
0.224365
0.199463
0.140625
0.127558
-0.326528
0.587265
-0.260443
-0.113182
0.247293
0.20228
-0.386748
0.182972
0.147252
0.617482
-0.338858
-0.278548
-0.210416
-0.334209
0.281014
-0.351316
0.197927
0.207507
-0.405343
0.169113
-0.331926
-0.297034
-0.266487
-0.101086
0.55855
-0.292381
-0.233545
-0.351475
-0.127735
0.330552
0.293504
-0.35333
-0.306397
-0.237552
0.544101
0.39856
0.5775
0.248796
0.247515
0.232634
-0.106853
-0.316843
-0.240019
0.557029
0.370302
0.284899
-0.40808
0.32896
-0.615357
0.287466
0.207642
-0.415436
0.593462
-0.0440344
-0.0301717
0.139421
0.619511
0.347104
-0.285252
-0.0619331
-0.354717
0.162085
0.19253
0.20845
-0.583642
-0.603563
0.324944
0.27862
-0.0242607
0.103731
-0.0761305
0.45706
-0.38085
0.269001
-0.513741
-0.0759538
0.175171
-0.291359
-0.214903
0.506388
0.277388
-0.518229
-0.236617
0.487581
-0.356189
-0.186372
0.440317
-0.204025
0.138763
-0.275935
0.137128
0.261875
-0.148185
0.24878
-0.473294
-0.231835
-0.245663
0.514477
-0.26865
0.200298
0.192065
-0.392381
-0.0648736
0.549484
-0.395963
0.193383
0.202671
0.503743
-0.222973
0.412361
0.338518
-0.621156
0.282564
-0.600112
0.216714
0.188194
0.404966
-0.597956
0.18279
-0.402465
0.219725
0.274438
-0.533294
0.259308
-0.24189
0.400599
-0.15849
0.535089
-0.291003
-0.314064
-0.487243
0.182462
0.29986
-0.231744
-0.252297
-0.332873
-0.248923
-0.245736
0.49488
0.261042
0.309663
0.202158
-0.235726
0.349963
-0.29549
0.457304
0.0990838
0.155291
0.191735
0.268349
-0.469857
0.20168
-0.346418
-0.125023
0.265578
-0.252746
-0.253704
0.50704
0.296948
-0.178018
-0.119091
0.4156
-0.207929
-0.265634
0.287948
0.233056
-0.277673
-0.244875
-0.224087
0.469103
-0.455336
0.217314
0.238207
-0.443153
0.408319
0.589613
-0.326425
-0.262887
-0.232775
0.102999
0.144619
0.410772
-0.233302
-0.177493
-0.325375
-0.241303
0.566803
0.273211
-0.599363
-0.24669
0.536782
0.25901
0.247009
-0.0941629
0.432479
-0.198273
-0.23435
-0.586728
0.261494
0.212514
0.205629
-0.252278
-0.30404
0.556557
-0.175616
0.376082
0.0887259
-0.208019
0.396226
-0.193992
-0.0795338
-0.367224
-0.393851
-0.234948
-0.202811
0.451366
-0.171102
0.340286
0.245457
0.223293
0.614889
-0.260261
-0.354594
-0.260766
-0.288317
0.54949
-0.558057
0.234638
0.541196
-0.315233
-0.22589
-0.393184
0.187414
0.379407
-0.117332
-0.276954
-0.502629
0.211307
0.576791
-0.242395
0.128749
0.424513
-0.211761
0.50467
-0.255412
0.102299
0.130264
0.19786
0.208905
-0.00488906
-0.507536
0.438784
-0.214168
-0.223457
-0.302552
-0.235897
0.157009
0.0788367
0.240684
-0.489257
0.284298
-0.64228
0.358021
-0.120081
0.230138
0.335236
-0.178447
-0.485255
-0.458041
0.296819
0.314139
-0.253236
0.266049
-0.470492
0.204763
0.384356
-0.201397
-0.325952
0.572782
-0.246803
-0.386946
0.158092
0.17856
-0.370489
0.262517
-0.188797
0.482926
-0.294017
0.403296
-0.190481
-0.212862
-0.558503
0.232601
-0.357141
-0.234152
0.591322
-0.641012
0.280121
0.360932
0.128373
0.638113
-0.356241
-0.281812
-0.643889
0.286439
0.357497
-0.152617
-0.0833307
0.531845
0.224153
0.204252
-0.428494
-0.152749
0.28802
0.350151
-0.487934
0.251626
0.236415
0.329092
0.243092
-0.57212
0.230065
-0.226467
-0.260626
-0.263796
0.52628
0.257808
-0.0840159
-0.311217
0.395406
-0.355822
0.414871
-0.213373
-0.201386
-0.549225
-0.264965
0.486329
-0.221232
-0.204611
0.381792
-0.176927
-0.296739
-0.379947
-0.499575
0.258345
0.241805
-0.217743
0.47142
-0.253743
-0.261516
-0.34781
0.0293272
0.556858
-0.586178
0.349437
-0.186393
0.284324
-0.446211
-0.356674
-0.259481
0.52196
-0.355803
-0.177544
0.341258
-0.549901
0.284241
0.265871
-0.172204
0.279141
0.27964
-0.557229
-0.239511
0.597074
-0.357416
-0.261114
0.520075
-0.25873
-0.319287
-0.241663
0.56106
0.133018
0.115968
-0.248977
-0.518198
0.241038
-0.580927
0.26172
-0.584666
0.247954
0.336771
-0.257693
-0.176849
0.493814
-0.0248451
-0.190747
-0.245346
0.437385
0.292613
-0.553121
0.311752
-0.507139
0.35884
-0.164749
0.275726
-0.539172
0.532495
-0.452003
0.207261
0.0286065
0.539115
-0.567551
0.348307
0.282386
-0.497432
0.383364
-0.160298
-0.222954
0.54371
-0.239769
0.380966
-0.19903
-0.182053
-0.39238
-0.144015
0.256531
-0.504444
0.248418
-0.40947
0.394157
0.145158
0.151605
0.326699
0.214366
-0.540949
-0.342236
-0.242372
0.0854433
-0.109739
0.515638
-0.24671
0.063589
-0.0697739
0.00615148
0.0557825
-0.024157
-0.0316583
0.00518837
-0.517901
0.513041
0.320297
-0.635325
0.274175
0.361175
-0.125972
0.304923
0.333468
-0.161826
-0.276147
-0.243182
0.519931
-0.552416
0.211156
-0.62787
0.260534
0.367359
0.250344
-0.110956
-0.139402
0.333673
-0.171028
-0.636389
0.278157
0.358267
0.489319
-0.20486
0.220585
-0.406475
0.186053
-0.544195
0.354666
-0.108734
0.28286
0.151698
0.144082
-0.295707
0.134266
-0.0595408
-0.0747298
0.116605
-0.192603
-0.349946
0.582672
-0.147063
-0.142425
0.0281503
0.114219
-0.611084
0.33539
-0.275192
0.135733
0.139478
-0.309905
-0.253661
0.564175
0.232616
-0.223251
0.509963
-0.593803
0.339216
0.254641
-0.31346
-0.228829
0.542405
0.135013
0.109549
0.0504109
0.124715
0.246972
-0.113899
-0.356233
-0.254239
0.529016
-0.199401
0.0664212
0.132936
0.603905
-0.203157
0.514865
-0.26847
0.409156
-0.394618
0.197577
-0.137063
-0.240963
0.514788
-0.519196
0.507169
-0.510798
-0.203762
0.401716
0.522041
-0.141002
-0.380958
0.546122
-0.513878
-0.111472
-0.333454
0.444971
0.397384
-0.163223
-0.234275
0.257982
-0.546031
-0.112387
0.16988
-0.0574684
0.232699
-0.0259163
0.0717463
0.355704
-0.193734
-0.454729
0.196595
-0.357142
-0.090621
0.17627
-0.0856436
0.0671098
0.0456478
0.249165
0.602074
-0.354087
0.480799
-0.231337
-0.0851896
0.188718
-0.103526
0.530166
-0.20333
-0.326846
-0.150442
0.321221
-0.170809
0.178154
0.178737
-0.356895
0.243344
0.358764
0.437934
-0.51396
0.523474
-0.245578
-0.138386
-0.282569
0.142076
0.140495
-0.509081
0.25713
-0.212029
0.22906
-0.472182
0.243201
-0.496957
0.179631
0.322345
-0.578299
0.256327
-0.612651
0.358988
0.253694
0.434806
-0.214121
0.466349
-0.231133
-0.234966
0.193914
0.197893
-0.391588
0.134652
0.130851
0.292075
-0.458658
0.520297
0.188454
0.251897
0.133326
-0.261816
0.197549
0.197832
-0.395119
-0.210499
-0.0187901
-0.232207
0.520355
0.507991
-0.250987
0.182981
0.592828
0.242445
-0.588685
0.3464
-0.00209361
-0.458272
0.34936
-0.588817
0.257303
0.274974
-0.30958
0.191009
0.191039
-0.646192
0.250083
0.396144
0.431057
0.158826
-0.26026
0.553241
-0.0644906
0.426838
-0.362333
-0.0367542
-0.496062
0.533952
0.17734
0.168943
-0.265276
-0.269802
0.535679
-0.234949
0.481115
0.301475
0.286078
-0.0997113
-0.112368
-0.25926
0.0507162
-0.163092
0.224208
0.279547
0.20354
0.204746
-0.408068
0.181293
0.175175
-0.502191
-0.29379
0.143679
0.150127
0.168817
0.212018
0.0114318
0.145896
0.0769002
0.136088
-0.281514
0.147043
0.174148
0.171181
0.143108
-0.400028
-0.246129
-0.140157
-0.0461839
0.357387
-0.213106
-0.14448
0.52036
0.32541
-0.178343
0.55046
-0.145102
0.146821
-0.238041
0.0911572
-0.238153
0.486724
-0.0945122
0.229556
-0.112927
0.259723
-0.353671
-0.0140297
-0.388002
0.177777
0.188508
0.187723
0.15132
-0.352976
0.173949
0.179124
-0.0427366
-0.123333
0.166089
0.0259955
-0.41109
0.385202
-0.368896
0.183606
0.185258
0.49466
-0.3215
-0.173162
-0.565185
0.311986
0.166563
-0.217276
-0.237871
0.506609
-0.58241
0.0786413
-0.321856
0.163718
0.158172
0.179481
0.183106
-0.362614
-0.276336
0.488399
-0.211897
0.259308
0.251601
-0.510569
0.303718
-0.146834
-0.442146
0.230543
0.211936
-0.307171
-0.303397
0.430322
-0.206129
-0.203166
0.397236
-0.503063
0.476622
-0.512335
-0.18655
0.364797
0.30493
-0.151307
0.147208
0.15605
-0.434692
0.165755
0.589426
-0.346046
0.179865
0.184022
0.245019
0.338251
-0.583279
-0.603089
0.364583
0.238515
0.352668
0.236794
0.556608
-0.487292
-0.0675004
0.333614
0.258343
0.228109
-0.182379
0.328745
0.328141
-0.157047
-0.271449
-0.574797
-0.247044
-0.365254
0.199649
0.149644
-0.614839
0.256447
0.358412
0.173315
-0.344276
-0.267418
0.516333
-0.248431
0.0309253
-0.209028
-0.290946
0.544562
-0.253295
-0.32933
0.584697
-0.254765
0.248876
-0.509867
0.261349
0.22693
-0.141867
0.612283
-0.355489
-0.256768
0.520586
-0.528227
0.00895358
0.358624
0.151853
0.165505
-0.31728
0.503695
-0.246186
-0.241641
-0.197142
-0.402065
0.35504
-0.279589
0.530405
-0.250045
0.23874
0.313544
-0.278458
-0.0352312
0.251414
0.062001
0.251418
-0.0823494
0.185968
-0.103622
-0.588439
0.347281
-0.241254
0.590683
0.339423
0.168183
0.16781
-0.335898
0.311267
-0.164886
-0.503747
0.258143
-0.263657
-0.351163
0.647304
-0.313713
-0.333653
-0.0500817
-0.206781
0.410519
-0.149361
0.315766
-0.166473
0.571011
-0.248426
0.251474
-0.487825
0.355478
-0.190627
-0.165064
0.207278
0.207505
-0.414602
0.471832
-0.242556
0.200727
0.195584
-0.518606
0.36964
-0.589989
0.238979
0.581597
-0.515567
-0.0651858
-0.296971
0.150892
0.146188
-0.615051
0.35142
0.152781
0.14621
-0.298847
-0.209835
0.293176
-0.083385
-0.494486
0.289395
-0.488584
0.252577
0.208201
0.253153
0.206819
0.215167
-0.421903
0.15927
0.36281
0.372106
-0.190043
-0.119635
0.389049
-0.0493496
-0.236887
0.488861
-0.517668
-0.196507
-0.150663
0.34715
-0.196522
-0.340634
0.162391
0.178297
0.137632
-0.230746
-0.264971
0.496775
0.188926
0.195602
-0.382756
-0.224859
-0.0671521
0.291929
0.419685
-0.263125
-0.156532
0.164572
0.427024
-0.257336
-0.169595
0.208784
0.203747
-0.346326
-0.254518
0.19109
0.142805
0.164421
0.251098
-0.609926
0.358844
0.209792
0.196583
-0.388348