/*--------------------------------*- C++ -*----------------------------------*\
| =========                 |                                                 |
| \\      /  F ield         | OpenFOAM: The Open Source CFD Toolbox           |
|  \\    /   O peration     | Version:  v2012                                 |
|   \\  /    A nd           | Website:  www.openfoam.com                      |
|    \\/     M anipulation  |                                                 |
\*---------------------------------------------------------------------------*/
FoamFile
{
    version     2.0;
    format      ascii;
    class       volVectorField;
    location    "600";
    object      U;
}
// * * * * * * * * * * * * * * * * * * * * * * * * * * * * * * * * * * * * * //

dimensions      [0 1 -1 0 0 0 0];


internalField   nonuniform List<vector> 
9793
(
(1.02319 -0.136889 9.72521e-22)
(0.937569 -0.0556002 1.67552e-23)
(1.00983 -0.137874 1.42112e-22)
(1.01345 0.000195814 5.87145e-22)
(0.905975 -0.496741 -6.1112e-20)
(1.00566 0.00153618 1.86069e-21)
(1.01316 -0.000161738 0)
(1.01644 0.000281133 1.30319e-21)
(1.0223 -0.000584946 4.0359e-23)
(0.957841 -0.485694 5.19859e-21)
(1.07223 0.0436379 -8.94751e-21)
(0.962373 -0.00725542 -2.04845e-21)
(1.01348 0.000168506 -9.23908e-22)
(1.01725 0.0015728 2.75731e-23)
(1.00477 -2.47315e-05 1.03825e-21)
(1.01742 0.00208441 -1.87284e-22)
(1.01028 0.00261453 0)
(1.00932 0.0029514 -1.2734e-21)
(0.771137 -0.210445 9.72527e-21)
(1.01726 0.00195519 1.67628e-22)
(1.01568 0.0283428 -2.41521e-21)
(1.0173 -0.0182882 2.3091e-21)
(1.09384 -0.00715406 1.59597e-21)
(1.01823 -0.00241521 0)
(1.01841 0.00830124 -4.14623e-22)
(1.01333 5.16089e-05 9.00255e-22)
(1.01757 0.00301391 -9.64915e-23)
(1.01263 -0.000124631 -1.15487e-21)
(1.08889 -0.028744 2.7754e-21)
(1.02193 -0.000792267 0)
(0.996735 0.00814516 -5.33567e-21)
(1.08538 -0.0101482 7.54262e-22)
(0.869664 -0.00748122 -5.09604e-21)
(1.01132 6.23747e-05 -5.8129e-22)
(1.09607 -0.0421774 0)
(1.02107 0.0880138 1.56843e-21)
(1.01117 9.85002e-05 0)
(1.01595 -0.0178282 -4.50794e-22)
(1.01798 0.000547876 -1.34304e-21)
(1.01405 2.89873e-05 0)
(0.997495 0.00916141 3.24232e-21)
(1.0077 -6.63907e-05 -9.31144e-22)
(1.01205 -4.83644e-05 -2.43666e-22)
(1.0129 -0.00015267 -1.14617e-21)
(1.0113 -6.9359e-05 0)
(1.01301 0.00012105 2.67147e-22)
(1.09713 -0.0299766 -2.36967e-21)
(1.00651 -0.0252126 4.20789e-22)
(1.00548 0.0453342 0)
(1.01341 0.000220749 -3.13082e-21)
(1.10263 -0.0452572 0)
(1.09729 0.0420024 -2.59223e-22)
(1.00488 -0.000725207 -2.40638e-21)
(1.02083 -0.00526531 2.38152e-21)
(1.32661 -0.112791 0)
(1.02106 -0.107696 0)
(1.01657 0.000647826 3.08907e-22)
(0.991916 0.101218 7.20369e-21)
(0.917648 0.221211 0)
(1.01772 0.000455878 1.57692e-21)
(1.01277 -3.11662e-05 0)
(1.00508 -0.003574 -6.31668e-22)
(0.941826 0.080281 -3.77446e-22)
(1.01202 -0.000173776 0)
(0.799254 -0.410647 0)
(0.953106 -0.0101916 3.36112e-21)
(0.957387 0.0770191 0)
(0.990107 0.0635009 0)
(0.966748 -0.0007839 0)
(1.07719 0.0367018 8.6046e-21)
(1.31093 -0.153872 0)
(1.01422 -0.000292888 0)
(1.0127 0.000647909 0)
(1.0388 -0.0546145 1.20717e-22)
(1.10615 -0.0587956 0)
(0.945844 0.198707 0)
(1.01686 0.000270972 0)
(1.02044 -0.00637148 -1.48899e-22)
(1.01567 -0.00679217 6.79191e-22)
(1.01268 -0.00183805 0)
(0.947573 0.00620714 -7.92069e-22)
(1.01833 -0.0071674 0)
(0.905128 -0.0501142 0)
(1.028 -0.0205091 2.4575e-22)
(0.999023 0.00817396 0)
(1.01416 -0.02641 0)
(1.01207 -0.00205968 0)
(1.01714 -0.000161522 -2.14685e-21)
(1.00661 -0.00309141 -2.81618e-22)
(1.02092 -0.0074693 1.63157e-21)
(0.932781 -0.0611375 1.58841e-22)
(1.08791 -0.17161 -9.74762e-20)
(1.01925 0.00193546 2.35438e-22)
(1.08036 -0.0252643 -7.44574e-22)
(1.00589 -0.00379523 0)
(1.03187 -0.0202957 0)
(1.04147 -0.069541 8.20726e-23)
(0.9128 -0.0488712 6.17574e-23)
(1.01882 0.00184963 0)
(1.01831 0.000564744 -3.44731e-22)
(1.01826 0.000516283 3.12187e-22)
(1.02325 -0.00411393 0)
(1.01578 0.00178282 -1.79228e-21)
(1.01568 0.00157099 5.91691e-22)
(1.02074 -0.00593204 1.37889e-22)
(1 0.00880707 2.43044e-22)
(1.00725 -0.00338257 6.84139e-22)
(1.01261 -8.70153e-05 0)
(1.00566 -0.0010227 -2.16268e-21)
(0.987197 -0.016773 0)
(1.01317 -0.000320624 0)
(1.01666 -0.0145577 -1.06018e-21)
(1.01536 0.000663183 2.16369e-21)
(1.01767 -0.0100079 -2.78957e-21)
(1.10732 0.0342537 2.66905e-22)
(1.01691 0.000504689 2.06022e-21)
(0.893297 -0.0813297 -3.92722e-21)
(1.09915 -0.0654342 4.21328e-23)
(1.01818 -0.00811229 0)
(1.07185 -0.0255639 -1.00668e-21)
(0.986879 -0.0223862 -9.61316e-22)
(1.00558 -2.56907e-05 3.68521e-24)
(1.01546 -0.0016288 1.90764e-21)
(1.00509 0.00209261 -2.14412e-21)
(1.02442 -0.00827334 -2.99259e-21)
(1.02205 0.0166907 2.37155e-21)
(1.04041 0.0109227 -1.79676e-21)
(1.01799 -0.0287401 0)
(1.01525 -0.00759687 1.36154e-21)
(1.01297 -0.000195154 -4.04303e-21)
(1.01257 -0.000212956 0)
(1.01722 8.39091e-05 8.88741e-24)
(1.01293 -0.000214389 0)
(1.02484 -0.000827909 5.09613e-22)
(1.02132 -0.000456247 -6.78986e-22)
(1.01735 -0.000631528 2.14271e-21)
(1.01135 -0.000132546 8.93743e-24)
(1.01318 -0.00014428 1.75442e-21)
(1.01511 0.000589339 1.81313e-21)
(1.01802 0.000300571 -9.73108e-23)
(1.01516 -0.00151438 7.04723e-24)
(1.01923 0.00748095 9.51496e-22)
(1.01407 6.23423e-05 -1.44169e-21)
(1.01853 0.000194981 2.83201e-22)
(1.01712 0.00134078 0)
(1.01664 0.00120403 -2.35361e-22)
(1.01574 -0.0385782 0)
(1.01862 0.000206998 2.65261e-22)
(1.01795 0.00209963 -2.39365e-23)
(1.05161 -0.01346 -5.04012e-20)
(0.903081 -0.316286 5.06702e-21)
(1.01226 -0.000202509 5.52986e-23)
(0.904737 -0.316372 8.5165e-22)
(0.959797 -0.425308 2.62924e-20)
(1.01763 0.00194282 -9.36746e-22)
(1.00922 3.35273e-05 -5.86076e-24)
(1.01633 -5.86605e-05 -5.17764e-24)
(1.01927 0.00694647 -3.92633e-22)
(1.01843 0.000365601 -5.11109e-22)
(1.0142 6.1608e-05 -2.36827e-22)
(1.01669 0.000267091 7.55781e-22)
(1.01253 0.000459296 -1.32532e-21)
(1.01819 0.00293273 0)
(0.732232 -0.133847 -3.57646e-21)
(1.02031 -0.0538463 1.13344e-22)
(1.01702 0.0461874 2.49111e-21)
(1.00952 -0.0292919 -3.66664e-22)
(1.03534 -0.0287657 5.23037e-22)
(1.01778 0.00300271 -1.10887e-23)
(1.02132 -0.00285164 -1.10029e-21)
(1.01329 0.00416512 1.10319e-21)
(0.840587 -0.334444 -1.55479e-20)
(1.00997 -0.05729 -7.11674e-23)
(0.870662 -0.29519 0)
(1.02455 -0.00700269 0)
(0.772114 -0.174998 -1.30933e-20)
(1.01745 -0.000368008 2.20317e-23)
(1.01853 -0.00208628 -1.98147e-23)
(1.0128 -0.00017775 2.51913e-21)
(1.05081 -0.0111455 1.67486e-21)
(0.353887 0.031397 0)
(1.03177 -0.00285245 0)
(1.01851 0.000397773 -5.72251e-22)
(1.0185 0.00767452 6.86351e-22)
(1.01282 0.23325 0)
(1.01277 0.000688425 1.22861e-21)
(0.981371 0.119473 0)
(1.01278 -4.21098e-05 8.54158e-22)
(1.0149 -0.00174053 1.81378e-21)
(1.01799 0.0026825 -1.23909e-22)
(1.02504 -0.00657316 0)
(1.01343 -8.43923e-05 0)
(1.0125 0.0468393 0)
(1.02352 -0.00647752 -2.47944e-21)
(0.975474 0.0667533 0)
(1.04921 -0.0108696 1.38979e-21)
(0.978458 -0.182676 0)
(1.01941 -0.00407382 -6.38289e-22)
(0.940924 -0.38992 0)
(1.01788 0.000254507 1.74673e-22)
(1.02101 -0.000624603 0)
(0.739307 -0.0390678 1.07967e-21)
(1.02499 -0.104585 0)
(1.01305 -0.000327176 0)
(1.01767 -0.00087327 -2.4515e-21)
(1.02012 -0.00531714 1.26671e-22)
(1.03106 0.0550425 0)
(1.01774 0.000766386 -3.43367e-22)
(1.00119 0.00765553 0)
(1.02927 -0.0107368 5.2107e-21)
(1.05881 -0.0226909 0)
(1.01541 0.0422882 1.48865e-22)
(1.00063 0.0487444 5.11746e-22)
(1.02142 -0.00548308 0)
(0.967119 -0.194504 -1.11794e-21)
(1.01658 -7.29506e-05 3.45375e-23)
(1.02246 -0.00165536 -1.12762e-21)
(1.04121 0.198976 -5.19807e-21)
(1.02028 -0.0049749 -1.39656e-22)
(0.867699 0.056191 3.47518e-21)
(1.08877 -0.112328 1.02177e-21)
(1.0161 -0.00115158 -9.45628e-24)
(1.02498 -0.00784183 1.72107e-21)
(1.01335 -2.4403e-05 1.6064e-21)
(1.02596 -0.0253725 -6.68446e-23)
(0.740822 -0.100306 5.85618e-21)
(1.00556 0.000696529 1.83971e-21)
(1.0171 0.00187122 4.94754e-22)
(1.10034 -0.104925 0)
(1.07883 0.0193834 1.10467e-21)
(1.01864 -0.0027123 8.92621e-24)
(1.0184 -0.00229587 -4.79238e-24)
(1.03246 -0.00267507 8.5829e-22)
(1.01757 0.000144159 0)
(1.0455 0.0210515 4.51745e-22)
(0.893986 0.0583041 0)
(1.01489 0.000311374 0)
(1.01372 0.00353225 7.01663e-23)
(1.02893 -0.064128 8.45867e-23)
(1.02122 -0.00524633 0)
(1.00215 0.00813612 9.71752e-22)
(1.0174 0.000850935 2.54015e-22)
(1.01453 0.00359957 -1.71737e-23)
(0.896151 -0.00276148 4.86274e-22)
(1.01382 0.00305008 0)
(1.01823 0.00193078 -5.02973e-22)
(1.01627 0.000205909 -1.22526e-21)
(1.01991 0.00667063 3.74098e-22)
(1.01858 0.00206988 0)
(1.01252 6.38472e-05 7.09607e-22)
(1.01603 -0.00779664 0)
(1.03829 -0.0139399 0)
(1.1044 0.0227903 0)
(1.04213 0.0155645 -2.16296e-21)
(1.01462 0.0029159 0)
(1.01074 -0.0188817 0)
(1.01292 0.00343177 0)
(1.03946 -0.0149151 0)
(1.00695 0.00582657 0)
(1.01786 0.00056985 7.08466e-22)
(0.933594 -0.0616439 -1.47815e-22)
(1.01364 0.00316527 0)
(1.11143 0.0134474 2.52023e-21)
(1.01311 -1.11728e-05 0)
(1.03795 -0.0298039 0)
(1.01931 -0.00383028 -1.01463e-23)
(1.01943 -0.00364233 -1.05482e-23)
(1.05814 -0.0262688 0)
(0.723809 0.00142189 -1.83344e-22)
(1.00816 -0.00255388 0)
(1.01795 0.000397917 0)
(1.01808 0.00193739 0)
(1.01448 -0.032797 0)
(1.01651 -0.000934691 0)
(0.957998 -0.0761606 0)
(0.963676 -0.0701767 0)
(1.01303 -0.000337225 3.0808e-21)
(1.03769 -0.00380087 1.68624e-21)
(1.01301 -0.000232286 0)
(1.03949 0.013429 -2.08113e-21)
(1.0199 0.00610399 0)
(1.01917 -0.00303382 1.83039e-23)
(1.0109 -5.62204e-05 0)
(1.01424 2.78228e-05 0)
(1.03941 0.00890156 2.33501e-21)
(1.01604 -0.00130125 3.8618e-21)
(1.01549 -0.00760928 0)
(1.03868 -0.0243212 -2.82783e-22)
(1.01441 -0.000104623 -1.80227e-21)
(1.01754 -0.00113386 -4.85865e-21)
(1.01511 0.000401777 2.09542e-21)
(0.899421 -0.0563014 0)
(1.00704 -0.000794857 -2.64725e-21)
(1.01124 -0.000107564 0)
(1.01246 -0.00023474 0)
(1.02492 -0.0016093 -1.02476e-21)
(1.02357 -0.0108526 4.06428e-22)
(1.04027 -0.0253248 3.0019e-22)
(1.01299 -0.000279621 0)
(0.709673 0.0965457 -3.11727e-20)
(1.01735 0.00204704 -1.67852e-23)
(0.763989 -0.0691145 0)
(0.822856 -0.116267 0)
(1.01093 5.53784e-05 0)
(1.01251 -0.000187487 -1.10249e-21)
(1.0183 0.000128437 -2.98964e-22)
(1.013 -0.0350075 4.27368e-21)
(1.02766 -0.0248097 -2.35407e-21)
(1.02037 0.0052582 2.43535e-23)
(0.759281 -0.0291371 0)
(1.01262 -0.000225362 0)
(1.01817 0.000234753 1.52629e-22)
(1.02668 -0.0261726 2.42299e-21)
(1.01321 -0.00789812 -2.87447e-21)
(1.01693 -0.00562292 2.12322e-21)
(1.02076 -0.00654397 -1.17802e-21)
(1.02195 -0.0244 -1.21931e-23)
(1.01639 0.00410556 0)
(1.01881 -0.0309325 1.98166e-21)
(1.03025 -0.0107082 -3.95849e-21)
(1.01594 0.00302127 2.01516e-21)
(1.02906 -0.0607899 0)
(0.903268 -0.192632 -4.19347e-22)
(1.03532 -0.0455467 -1.71003e-22)
(1.01993 -0.0045127 2.54894e-23)
(0.416232 0.0605036 0)
(1.02285 -0.012166 -7.38204e-24)
(0.884355 0.204247 1.56568e-21)
(1.10555 -0.0804407 1.27165e-21)
(1.01839 0.00255155 0)
(1.03675 -0.00082892 -3.44256e-22)
(1.09716 -0.087796 -3.66639e-22)
(1.02265 -0.00343494 -1.25356e-21)
(1.0031 0.00703492 -1.22197e-21)
(1.08629 0.0587533 7.73723e-21)
(1.0161 5.43786e-05 0)
(1.01205 -8.03763e-05 0)
(1.02047 -0.000493635 1.45987e-21)
(1.01414 8.40844e-05 5.15692e-22)
(1.01243 -0.000554247 1.52889e-21)
(1.012 -0.169446 -2.4606e-21)
(1.01268 3.54106e-05 1.73177e-21)
(1.0157 0.00282155 -1.02042e-21)
(0.751871 0.237723 9.94497e-20)
(1.02176 -0.00468329 1.05748e-21)
(1.01751 0.0023865 0)
(1.01952 -0.00430453 -1.64852e-23)
(1.01846 -0.014078 0)
(1.01631 0.000104045 4.44823e-24)
(1.00266 -0.185171 4.32764e-21)
(1.02411 -0.00957017 -1.88819e-22)
(1.01634 -0.00268739 7.19043e-22)
(1.01346 -0.00620507 0)
(1.02275 -0.00482004 0)
(0.964648 -0.307057 0)
(1.02065 -0.00478859 -2.49283e-21)
(0.989025 -0.0100076 0)
(1.0186 -0.0023 4.94746e-23)
(1.07101 -0.00520497 -5.19179e-21)
(1.31243 -0.22009 0)
(1.004 0.140163 -1.36662e-20)
(1.07477 -0.00401687 0)
(1.01764 -0.0131829 -1.39737e-21)
(1.02677 -0.000690882 4.67213e-22)
(0.942925 -0.200758 6.62079e-22)
(1.01241 -4.69986e-05 1.04165e-21)
(0.937803 -0.0712497 0)
(1.01984 -0.00607286 -1.21751e-21)
(1.01739 0.000142119 2.07008e-23)
(0.824663 -0.134354 0)
(1.00398 0.00736742 2.32742e-22)
(0.892529 -0.204592 0)
(1.01643 -0.00256465 -7.07168e-22)
(1.04537 0.0252973 -5.68994e-21)
(0.990901 0.115064 2.36188e-21)
(1.01409 0.0114191 0)
(1.01289 0.000620023 2.77772e-21)
(0.870026 -0.0366702 0)
(1.04473 -0.0065084 0)
(1.02032 -0.0442469 -4.65422e-23)
(1.01216 -0.0197204 0)
(1.02071 -0.00394321 0)
(1.07615 0.110889 0)
(1.01292 -0.000250157 -7.24099e-22)
(1.02186 -0.0134753 -1.69196e-21)
(1.01162 -1.4604e-05 -3.30102e-22)
(1.01328 -6.72892e-06 -5.19742e-22)
(1.0174 0.00267448 1.4776e-22)
(1.02104 -0.00441397 0)
(1.0135 -0.0185006 -8.29201e-22)
(0.925786 -0.326107 -1.0849e-20)
(1.02393 -0.00551414 -4.2436e-21)
(0.549998 0.709022 -4.08976e-20)
(1.05374 -0.0666545 0)
(0.929431 -0.187635 2.61516e-21)
(1.07257 0.0227293 -5.66994e-21)
(1.02921 -0.0301559 4.24798e-23)
(1.01437 7.5382e-05 -7.95701e-22)
(1.02035 -0.000232137 1.30406e-21)
(1.0626 -0.28013 1.53514e-20)
(1.04271 -0.0691322 -8.45217e-22)
(1.01751 0.00050297 4.03148e-23)
(1.02714 -0.00131413 0)
(0.743297 0.404306 2.93297e-20)
(1.01825 0.002047 1.22014e-22)
(1.00642 0.0802516 6.35698e-21)
(1.01353 0.0036627 -1.30519e-21)
(1.01489 -0.0191489 4.14168e-21)
(1.01829 0.00196968 -1.20754e-22)
(1.0602 -0.0334824 0)
(1.01268 0.000165101 9.92568e-22)
(1.04619 -0.00661939 0)
(1.03817 0.0128831 6.79799e-23)
(1.01782 0.000551304 -4.0536e-22)
(1.09617 0.0112939 -3.77666e-21)
(1.02547 0.00888092 0)
(1.02437 -0.0104608 -2.108e-21)
(1.02471 0.00936983 3.88084e-22)
(1.01976 -0.00531522 2.49631e-21)
(1.00798 -0.00316667 0)
(1.01676 0.000657909 0)
(0.860817 -0.0458 0)
(1.01305 -0.000248025 1.76581e-21)
(1.01692 -0.00596558 0)
(1.09728 0.0536754 -4.99706e-21)
(1.0207 -0.00310575 2.52135e-21)
(1.00739 0.00671528 -1.65855e-21)
(1.02376 -0.0118104 1.68488e-21)
(1.01834 0.00287588 0)
(1.05277 -0.0128956 -1.7427e-21)
(1.01423 6.66078e-05 0)
(1.01639 -0.00605245 3.46466e-21)
(1.01871 0.00191477 0)
(1.04345 0.127416 1.60389e-21)
(1.01686 0.00151665 -1.30227e-23)
(1.02521 0.144096 -1.88525e-21)
(1.0216 -0.00233664 0)
(1.0309 0.0439016 6.34479e-22)
(1.01011 0.000124366 -1.12522e-21)
(1.02176 -0.00345519 1.10892e-21)
(1.01116 -0.000103678 0)
(1.02354 -0.00566232 3.53306e-21)
(0.979705 0.206357 -4.73047e-21)
(1.0189 -0.00430512 -1.27446e-21)
(1.28336 -0.255702 0)
(1.01782 0.00269386 1.0532e-22)
(1.01333 0.00446351 -1.41045e-21)
(1.02293 -0.0131946 1.70899e-21)
(0.789372 0.441905 -2.37132e-20)
(0.995391 0.00827182 0)
(1.3334 -0.00442743 -5.39166e-21)
(1.02158 0.0413383 -1.49923e-22)
(1.00484 0.000227399 -1.94092e-21)
(1.01365 -0.000587275 3.97295e-21)
(0.984129 -0.00551342 3.85758e-21)
(1.05247 -0.0154653 -2.94507e-21)
(1.05554 -0.0335673 0)
(0.928256 -0.0517367 0)
(0.772858 0.0957278 -3.82854e-21)
(1.01281 -0.000222325 1.59947e-21)
(1.02394 0.00804473 6.77292e-22)
(1.05093 0.0272228 -5.66122e-21)
(1.01555 -0.00185022 0)
(1.02001 -0.00778807 -5.95085e-22)
(1.01508 -0.00173271 1.21407e-22)
(1.01604 0.00190176 5.31658e-22)
(1.01097 8.89452e-05 1.06762e-23)
(0.978209 -0.136081 0)
(1.04676 -0.00836197 -1.67973e-21)
(1.06973 0.16724 1.00906e-20)
(1.0162 0.00215647 -1.14368e-21)
(1.00917 -0.0345898 -1.97562e-21)
(1.01829 -0.00193718 0)
(1.01265 4.52908e-05 4.98106e-22)
(1.01274 -0.000172604 -3.43379e-23)
(1.01914 -0.00709422 0)
(0.985726 -0.00356091 -3.73326e-21)
(1.02231 -0.00223021 0)
(1.02321 0.00763844 -7.23329e-22)
(1.01885 0.0023686 4.25687e-23)
(1.01261 -0.000191079 0)
(1.00761 0.00850839 0)
(0.993501 -0.0240073 1.19581e-21)
(1.01427 -9.71222e-05 -8.51155e-23)
(1.01356 -0.00053612 4.06661e-21)
(0.819535 -0.0802403 -4.02904e-21)
(1.00476 0.00633968 0)
(1.02478 -0.00914671 2.01193e-22)
(0.925095 0.0898414 -1.14726e-21)
(1.02409 0.0470372 8.66438e-22)
(1.01317 -2.52064e-05 2.2144e-23)
(1.01112 0.000102931 6.89078e-23)
(1.02183 -0.0145711 1.73542e-21)
(1.00697 0.00765937 1.81848e-21)
(1.01638 -0.00638521 -4.06572e-21)
(1.01095 -3.14794e-05 2.1401e-21)
(1.01192 -0.000290636 0)
(1.02003 -0.00428567 -1.62321e-22)
(1.01289 0.00376587 -1.31108e-21)
(1.0145 0.00308995 2.96386e-22)
(1.01507 -0.0297491 1.35491e-23)
(1.12499 0.0158848 -2.69205e-21)
(1.01626 -4.14653e-05 -4.24257e-23)
(0.981047 0.243432 1.11491e-20)
(1.01713 -0.0545444 2.00965e-21)
(1.01851 0.00114427 0)
(1.00715 -0.001599 5.05911e-22)
(1.01653 -0.00701252 -6.24976e-22)
(1.00634 -0.0116915 2.02691e-21)
(1.02048 0.00579059 0)
(0.937553 -0.0984251 1.1094e-21)
(1.01829 0.00260049 0)
(1.01422 0.00350978 1.76842e-23)
(1.08678 0.0251054 0)
(1.01467 -0.00158366 -3.99905e-21)
(1.05914 0.000545335 1.33372e-21)
(0.818955 -0.150152 0)
(1.01771 -0.0331883 0)
(1.01856 0.000982996 8.37909e-22)
(0.550011 0.716323 0)
(1.00555 0.00659261 -1.15532e-21)
(1.01487 -0.000340837 1.59795e-21)
(1.01516 0.00523931 -5.46079e-24)
(1.02318 0.0209056 6.14316e-21)
(1.01719 0.00188295 0)
(1.01483 -0.000194706 -1.89646e-21)
(1.01304 -0.000276061 1.80299e-21)
(1.01694 0.00180673 4.87378e-22)
(0.929742 -0.0197054 -3.16102e-21)
(1.04148 0.0189129 5.46101e-21)
(1.01688 -0.0515764 -2.22366e-21)
(1.00631 -0.000496291 2.14594e-21)
(1.01535 0.00491839 -5.55475e-24)
(1.01616 0.00353308 0)
(1.01935 -0.00335325 0)
(1.01449 -0.000339615 -1.12007e-23)
(1.01304 -0.000267675 1.79826e-21)
(0.998187 -0.00324386 -1.38578e-21)
(0.995641 0.168022 -1.6721e-20)
(1.01804 0.00199402 -2.19464e-23)
(1.02743 0.00279888 0)
(1.0725 -0.312482 -1.22441e-20)
(1.01198 -0.00137633 0)
(1.00969 -0.00610116 -1.00439e-22)
(0.986738 -0.0116089 0)
(1.0148 -0.00027572 0)
(1.07569 0.0508438 0)
(1.06227 0.171523 -9.57739e-21)
(1.01644 -0.00112847 -2.35025e-21)
(0.873552 0.020528 -2.45349e-20)
(1.01947 -0.00307284 7.84505e-23)
(1.04173 -0.047553 1.5431e-20)
(1.03917 -0.021237 -2.37243e-21)
(1.10543 0.0547118 0)
(1.01282 0.000581343 -4.45143e-21)
(1.01466 0.00337684 0)
(1.01041 0.00142089 -2.40801e-23)
(0.907851 -0.0649035 -6.01739e-22)
(1.02728 -9.11953e-05 -2.6216e-22)
(0.926541 0.106608 1.23392e-21)
(0.916273 0.0180169 -3.84337e-22)
(0.811644 -0.205115 -9.97748e-20)
(1.06148 0.00161194 -3.57143e-21)
(0.91676 -0.076239 1.23074e-23)
(1.05324 -0.0371604 2.33813e-21)
(1.00733 -4.18947e-05 -1.30749e-21)
(1.05043 0.00131836 0)
(1.02699 0.00207121 -6.95677e-23)
(0.942103 -0.0237308 7.61043e-22)
(1.0193 -0.00559197 -1.45429e-21)
(1.03475 0.0423713 -5.11167e-23)
(1.02001 0.0020858 2.27633e-23)
(0.999942 0.000872928 -1.15346e-22)
(1.01189 -5.17542e-05 2.97012e-22)
(1.02906 -0.000540647 0)
(1.0159 0.00330925 0)
(0.844356 0.0656259 0)
(1.01957 0.0023872 0)
(1.01548 2.88049e-05 2.09172e-22)
(1.03131 -0.00533476 6.73248e-23)
(1.03001 -0.0132692 2.05006e-21)
(1.04845 -0.00846472 1.73871e-21)
(1.01264 0.00048095 0)
(1.01409 -0.00117074 1.81785e-21)
(1.01225 -0.00140525 0)
(1.01229 -0.00110069 -2.37806e-22)
(0.810638 -0.224267 4.70712e-21)
(1.01327 0.0002582 0)
(0.757508 0.0706922 7.51544e-21)
(0.928107 0.259579 0)
(1.01332 0.000230496 6.99446e-22)
(1.01229 -0.000106134 1.21137e-21)
(1.00792 -0.0366085 2.41214e-21)
(1.02708 -0.00188899 0)
(1.01501 -0.00154695 0)
(1.01444 -0.00781868 6.77765e-22)
(1.01319 0.0113333 0)
(1.04025 -0.0201017 -3.86232e-21)
(1.03164 -0.00124456 3.86925e-22)
(1.03071 -0.0127859 -1.0786e-21)
(1.0148 -5.97102e-06 0)
(1.01716 -0.00798492 0)
(1.018 -0.0120934 4.30282e-21)
(1.03894 -0.0169276 2.33981e-21)
(1.01311 -0.00718807 2.74325e-21)
(1.01844 -0.0150593 4.4196e-21)
(0.934328 0.0391581 4.06587e-22)
(1.01333 -0.00246642 0)
(0.848678 -0.0689585 1.37625e-21)
(1.043 -0.00483417 -2.12777e-21)
(1.01291 -0.000127068 -8.16061e-22)
(1.01426 -0.00129218 2.98582e-23)
(1.0165 -0.000358898 7.07596e-22)
(1.02678 -0.00378717 9.86895e-22)
(1.02809 -0.00347574 -9.72003e-22)
(1.01409 0.00318138 0)
(1.02142 0.00509347 6.44381e-22)
(1.01783 -0.00173712 0)
(1.0161 0.00385026 0)
(1.02198 0.00473725 0)
(1.01293 -0.000288281 0)
(1.00931 -0.0161908 4.9046e-23)
(1.01834 0.000422199 5.24561e-23)
(1.02909 -0.00114491 -8.81535e-22)
(1.01087 -1.03134e-05 7.63562e-22)
(1.02103 -0.00352856 0)
(1.00926 -0.0146475 1.53938e-21)
(1.03225 -0.00140476 -2.49549e-21)
(1.05211 0.00242378 -1.44709e-21)
(1.01072 4.93567e-05 1.2886e-21)
(1.0141 0.00237171 2.64463e-21)
(1.0144 -0.0013021 1.94681e-21)
(1.01494 -0.000279482 0)
(1.02227 0.00219445 2.11504e-22)
(1.01505 5.96457e-05 0)
(1.02244 0.00258239 -2.65467e-22)
(1.01571 0.00256966 -9.94953e-22)
(1.01351 -0.00266145 0)
(1.01981 0.00237115 0)
(1.06707 -0.0239822 3.65035e-22)
(1.01419 6.80908e-05 9.84385e-23)
(1.01115 -2.53777e-05 1.07892e-21)
(1.0158 -0.0016267 -3.26758e-22)
(1.03913 0.0353069 -3.22554e-22)
(1.01307 0.000255317 -1.42096e-21)
(1.01848 0.00205865 0)
(1.06076 0.0402338 -6.45929e-21)
(1.01954 -0.00286078 1.90922e-23)
(1.01084 0.00480995 0)
(0.814744 0.073722 3.19846e-20)
(1.01782 0.00846306 5.62547e-22)
(1.01127 3.21231e-05 1.73745e-21)
(1.01313 -0.00016591 -1.32377e-23)
(0.982518 0.0836045 -1.00661e-20)
(1.01652 -0.000243241 7.37058e-22)
(1.05175 0.0329613 0)
(0.837763 -0.349685 0)
(0.820169 -0.163561 -8.30875e-21)
(0.992476 -0.00648243 -1.1562e-21)
(1.01095 0.00434764 0)
(1.01601 -0.00196148 -2.09527e-21)
(0.834404 0.0397723 1.48588e-22)
(1.01315 0.00799894 4.6709e-22)
(1.0187 0.00203084 -2.96674e-23)
(1.02566 -0.0335275 -2.75587e-23)
(1.02808 0.0480705 -5.69532e-22)
(1.12899 -0.373 1.89341e-20)
(1.01461 -0.00142506 -3.72306e-24)
(1.01902 0.0259027 0)
(1.01605 -0.00183307 1.38367e-21)
(1.01556 -0.00155187 0)
(0.992015 -0.0657402 1.52065e-20)
(1.01295 -0.000317054 0)
(1.08978 0.0422229 -2.20054e-22)
(1.02651 -0.00209982 0)
(1.13085 0.00266547 1.96888e-21)
(1.0142 0.00225003 -3.48977e-21)
(1.02815 -0.0195422 2.39137e-21)
(1.01736 -0.0112862 -3.08672e-21)
(0.849553 0.0288171 2.69191e-20)
(0.66706 0.0261162 0)
(1.01361 0.00410428 1.19906e-21)
(1.02599 -0.00121103 0)
(1.04369 0.000444495 1.64706e-21)
(1.01548 0.0024008 0)
(1.00615 0.00570833 9.84431e-22)
(1.05897 0.0337059 0)
(0.533187 0.297279 0)
(1.01294 0.000764175 1.36735e-21)
(1.00918 -0.00376641 9.85652e-23)
(1.01237 0.0073634 -6.479e-22)
(0.80516 -0.128386 1.81097e-21)
(1.01001 -0.00231192 0)
(0.845486 -0.0792562 -2.65328e-21)
(1.00039 0.0178646 0)
(1.0136 -0.0034391 7.05854e-22)
(0.999195 0.00224675 -3.20727e-21)
(0.756418 -0.125424 4.4864e-21)
(1.01309 0.000310866 4.87723e-21)
(1.01293 -0.000260253 -2.87333e-21)
(1.01068 -1.38547e-05 0)
(1.01329 -0.00577242 -1.1559e-21)
(1.01933 0.0021736 -1.62055e-24)
(0.989628 -0.150876 0)
(1.01891 0.00195197 0)
(0.762767 0.154519 1.44483e-20)
(1.03609 -0.00117425 1.591e-21)
(1.02476 -0.0362046 1.20052e-22)
(1.08653 0.0342702 0)
(1.01986 -0.00343812 0)
(1.32916 0.0110487 0)
(1.00904 0.0596425 0)
(1.02354 -0.00791547 3.12054e-21)
(1.09665 0.0695362 0)
(0.999578 0.00170251 2.8803e-21)
(1.00496 0.0482147 0)
(1.01912 0.00215963 1.59266e-24)
(1.01934 -0.00270915 -8.02079e-23)
(0.916704 -0.0226721 1.86163e-22)
(1.01126 0.000111427 0)
(0.683352 -0.00511605 -2.54124e-22)
(1.0144 0.000127294 -2.39304e-22)
(0.983874 0.0322165 0)
(1.01468 0.000959493 1.4163e-23)
(1.00219 -0.0260431 -1.79355e-22)
(0.912132 -0.0128313 -1.76689e-22)
(1.01313 -0.00311253 -1.6017e-21)
(0.442608 0.658159 0)
(1.01293 -0.000208524 0)
(1.03214 -0.00513006 2.13488e-21)
(1.06682 -0.00243484 -2.78303e-21)
(0.930364 0.16702 -2.98809e-21)
(0.91384 0.284336 -2.1529e-20)
(1.02334 0.00164816 -6.70885e-23)
(1.01461 0.00111174 -6.71667e-22)
(1.01863 0.00227037 7.9278e-24)
(0.827285 -0.159614 8.23318e-22)
(0.742505 0.365765 0)
(1.01094 -0.000206745 0)
(1.00228 0.000911763 4.89592e-21)
(1.009 -0.00812966 2.28815e-22)
(1.01888 0.00224363 -1.19564e-23)
(1.01348 0.000992801 3.67587e-21)
(1.02553 -0.000453643 0)
(1.0782 0.0465789 -1.65344e-21)
(1.0155 0.0142828 1.15873e-21)
(1.01074 3.46331e-05 0)
(1.01468 7.09724e-05 -2.39922e-22)
(1.01727 0.000281149 -1.91985e-21)
(0.977247 0.0013716 2.33417e-22)
(1.11069 -0.325685 1.41136e-21)
(1.0121 0.00802031 0)
(1.01493 -0.000301281 3.18373e-22)
(1.01405 0.000272201 0)
(1.04306 0.029054 -1.23198e-22)
(1.01295 -0.000300918 0)
(1.10341 0.0852486 0)
(1.0872 -0.0204896 0)
(0.772079 0.186849 -9.35711e-21)
(0.981669 -0.0124345 0)
(0.989161 0.0251172 -1.35096e-24)
(1.01647 0.00129522 0)
(1.02014 -0.00309439 -2.59475e-21)
(1.03685 -0.00918696 2.38141e-21)
(1.02993 -0.00492382 0)
(1.03998 -0.017791 2.91366e-21)
(1.01295 -0.000288278 2.8524e-21)
(1.02258 0.0317548 9.40724e-21)
(0.814057 0.0211379 -1.33416e-21)
(1.01515 0.00125306 0)
(0.992044 -0.0272036 2.80807e-20)
(1.01714 0.000200334 1.65202e-21)
(1.19603 -0.00419737 4.35479e-21)
(1.02375 -0.00172423 1.77091e-21)
(0.972907 0.000881088 0)
(1.00478 -0.0160647 -1.76066e-21)
(1.00887 -0.00741332 1.51918e-21)
(1.01288 0.0012234 0)
(1.02763 0.00175514 5.56723e-22)
(1.01184 0.00280405 1.96151e-22)
(0.768267 -0.0851395 -9.79603e-21)
(0.767109 -0.162737 -1.15105e-21)
(1.01209 -0.00241053 1.86372e-21)
(1.05569 -0.0418296 0)
(1.01451 0.00600262 0)
(1.01761 -0.0157604 -3.59361e-21)
(1.02888 -0.0204039 2.44252e-21)
(0.440651 0.130695 0)
(1.00803 -9.00653e-05 -1.28681e-21)
(1.01181 0.057608 -1.24035e-20)
(1.0162 0.00124821 -1.74852e-21)
(1.04383 0.0011683 1.63596e-21)
(1.01321 0.00339447 2.00989e-23)
(1.01827 0.000354458 0)
(1.01192 1.87173e-05 -1.50095e-21)
(1.01396 0.000270742 -3.89036e-21)
(1.01044 -0.236675 1.0717e-19)
(1.01293 -0.000215278 1.44309e-21)
(1.02291 -0.0166308 1.75735e-21)
(1.01146 -4.6554e-06 -1.20705e-21)
(1.00984 5.08962e-05 0)
(1.01978 0.0021555 -1.10104e-23)
(1.06573 -0.0864829 1.55279e-23)
(1.01313 -5.89934e-05 0)
(1.03022 -0.0005749 -7.64529e-22)
(1.01659 0.00150214 0)
(1.01343 0.0010234 -2.63734e-21)
(0.939863 0.0619065 0)
(1.01301 0.000173751 5.38823e-21)
(1.01373 0.00981884 -2.3851e-21)
(1.01518 0.00142254 0)
(1.00991 -0.000353299 3.01713e-22)
(1.01467 7.66246e-05 -1.01733e-21)
(1.05542 0.0317687 2.76202e-21)
(1.01444 8.56922e-05 -1.46027e-23)
(0.967996 -0.0151503 -1.74824e-21)
(1.01384 -0.00587965 0)
(1.01104 -0.000109154 0)
(1.01412 0.00032548 -1.84098e-21)
(0.857072 0.0233254 3.37885e-21)
(0.934365 0.0589429 0)
(1.21013 0.0191054 8.19747e-21)
(1.0294 0.404486 2.31037e-20)
(1.04453 0.0206864 4.26379e-22)
(1.01124 0.000461974 -1.80812e-21)
(1.03573 -0.00960895 -2.34892e-21)
(0.915471 -0.0780128 1.42363e-21)
(1.02068 0.00273346 -1.14703e-22)
(0.933743 -0.0172872 0)
(0.942912 -0.0384671 6.66542e-22)
(1.05631 -0.0914729 3.10084e-22)
(1.253 -0.0740685 1.27491e-21)
(1.02042 -0.0158678 1.77798e-21)
(0.920522 0.0623911 -4.94771e-22)
(1.00804 0.0103635 -1.7878e-21)
(0.936136 0.225356 -1.22978e-21)
(0.915542 -0.0579409 -3.92961e-22)
(1.02296 -0.0153759 0)
(1.01943 -0.00608146 2.28044e-21)
(0.919846 0.0670987 4.96902e-22)
(0.741852 -0.0651101 -1.19621e-19)
(1.0098 -0.000119261 -2.48274e-21)
(1.01069 -0.0171064 -5.17674e-23)
(1.01295 -0.000322025 1.56866e-23)
(1.02411 0.00518195 6.30091e-22)
(1.04435 0.00743684 -2.84593e-21)
(1.01506 -7.77602e-05 4.81976e-23)
(1.02255 0.00190114 0)
(1.0307 -0.00470652 0)
(1.00913 0.0025019 0)
(1.06547 0.00081424 5.57969e-21)
(1.005 -0.00257465 3.04165e-21)
(0.805548 -0.145119 3.26507e-21)
(1.01405 0.000333018 1.95371e-21)
(1.0221 0.00283282 5.31902e-23)
(0.996612 -0.000628062 0)
(0.833527 0.112307 -2.1282e-21)
(1.04164 0.00709498 -2.56824e-21)
(1.01182 -0.000181671 2.55577e-21)
(1.01211 0.00605802 -3.1706e-23)
(1.01448 0.00044142 -2.09138e-21)
(1.02096 0.00260354 1.3181e-22)
(0.868158 -0.0961002 2.51517e-21)
(1.02029 0.00225365 -6.68581e-23)
(1.0206 -0.0147269 -1.66549e-21)
(0.893152 0.0603222 1.99928e-21)
(0.889856 0.0478611 3.83046e-21)
(1.0143 -0.0046173 -1.32499e-21)
(1.20134 0.0198555 -1.30368e-20)
(1.34549 -0.0913485 -2.09512e-20)
(1.00265 -0.00381188 0)
(0.913385 0.0209217 -1.67294e-21)
(0.433685 0.20072 1.78484e-20)
(1.0108 -0.00012434 2.45554e-21)
(1.00269 0.058152 0)
(1.01364 -0.00683291 -3.27126e-22)
(1.01609 0.00107258 1.88364e-21)
(1.01489 -0.00286598 0)
(1.01279 -7.08366e-05 2.70932e-22)
(1.01408 0.00636514 -9.80742e-22)
(0.429395 0.585225 1.76042e-20)
(1.01121 -0.00317009 0)
(0.831641 -0.0942273 0)
(1.0263 0.0023328 0)
(0.997996 -0.0585507 -1.92745e-21)
(1.01389 -0.00825502 -1.46703e-21)
(1.04301 0.00816752 0)
(1.01097 -0.00754481 1.86249e-22)
(1.0232 -0.00144873 1.14798e-21)
(1.08771 -0.0152259 -4.88986e-21)
(1.02589 0.00293243 -4.11707e-22)
(1.02165 0.0026329 0)
(1.16881 -0.0437613 2.20132e-21)
(1.01295 0.0125272 1.82759e-21)
(1.05514 -0.0202972 4.05494e-22)
(1.01202 -0.00297619 0)
(1.01787 0.0018996 0)
(0.986135 0.043611 0)
(0.959433 0.215367 3.13837e-21)
(1.03015 0.00112746 -6.39143e-23)
(1.01812 -0.00192625 0)
(1.0179 -0.00162791 -6.78208e-25)
(1.0183 0.00402938 0)
(1.01435 -0.00722687 1.4271e-21)
(0.84211 -0.198059 -6.0731e-21)
(1.16956 -0.0222745 1.66512e-21)
(0.897242 0.00769522 5.86858e-21)
(1.06192 -0.0294733 0)
(0.935713 -0.045681 2.13135e-22)
(1.01232 0.00597584 -4.19656e-22)
(0.996003 -0.0136662 4.7866e-22)
(1.00127 0.00103408 2.50394e-21)
(1.03767 -0.0112427 0)
(1.24227 -0.108277 -9.38514e-21)
(1.01278 0.00102518 -2.83317e-21)
(1.01447 0.00267461 -2.22662e-21)
(0.999158 0.0576149 2.48872e-21)
(1.07014 -0.0220453 0)
(0.360134 0.239611 -2.74002e-21)
(1.01309 0.00108399 2.69806e-21)
(0.805759 -0.152973 4.30469e-21)
(0.893892 0.0104529 -3.7799e-23)
(1.00896 -6.86161e-05 -9.77403e-24)
(1.04796 0.0152641 3.47843e-22)
(1.03765 -0.00181521 0)
(0.867975 -0.21027 2.07065e-21)
(1.01379 -3.68748e-05 1.86479e-21)
(1.04218 -0.00578338 1.45858e-21)
(0.974415 0.0216273 2.62753e-22)
(1.02653 -0.00709909 -1.0893e-21)
(1.013 0.0010734 -2.63852e-21)
(1.01161 0.00499618 2.13963e-22)
(1.01291 -0.00584464 -2.6284e-21)
(1.01484 -8.22875e-05 -5.92153e-22)
(1.01409 0.00204805 8.55897e-22)
(0.970254 0.438013 -1.12593e-20)
(1.01191 -0.0056628 -1.64983e-22)
(1.04175 0.000485824 7.02367e-23)
(1.12457 -0.0375084 -7.5674e-22)
(1.04997 0.0131125 4.216e-21)
(1.00434 -0.0179241 0)
(1.05216 -0.045481 0)
(1.04063 -0.0221292 -1.72087e-22)
(0.907229 0.0251822 -2.27251e-21)
(1.03583 -0.0241023 2.80545e-24)
(1.02135 0.00282218 0)
(1.01868 -0.00487046 2.67832e-21)
(1.02932 -0.00437559 0)
(1.01199 -0.00821446 5.45548e-22)
(1.01353 9.71008e-05 3.70278e-22)
(1.04204 0.0289997 3.21618e-22)
(0.997386 0.0167183 5.72467e-23)
(1.0376 -0.00111719 -1.77816e-21)