/*--------------------------------*- C++ -*----------------------------------*\
| =========                 |                                                 |
| \\      /  F ield         | OpenFOAM: The Open Source CFD Toolbox           |
|  \\    /   O peration     | Version:  v2012                                 |
|   \\  /    A nd           | Website:  www.openfoam.com                      |
|    \\/     M anipulation  |                                                 |
\*---------------------------------------------------------------------------*/
FoamFile
{
    version     2.0;
    format      ascii;
    class       volScalarField;
    location    "550";
    object      ddt0(k);
}
// * * * * * * * * * * * * * * * * * * * * * * * * * * * * * * * * * * * * * //

dimensions      [0 2 -3 0 0 0 0];


internalField   nonuniform List<scalar> 
10042
(
-0.000174946
-0.00467352
2.78208e-06
-5.8509e-08
-2.27631e-07
0.0020412
4.49976e-06
0.0016676
-2.55408e-08
-1.49186e-05
-0.000488547
-0.00672331
8.70395e-07
3.61437e-07
1.12986e-07
4.08181e-07
0.000990753
-0.00113247
3.32562e-07
-1.39217e-06
8.77783e-07
-0.000124659
-1.6366e-07
-0.00251296
-7.15494e-08
-2.06986e-07
-1.16032e-05
2.92325e-09
0.00186145
-0.00343122
-2.06344e-07
9.03687e-07
-5.02588e-08
-7.80482e-08
0.00367091
0.00357628
-2.39053e-07
-3.90804e-08
-1.94022e-07
-4.73049e-06
-0.00263337
-5.22663e-08
1.63925e-06
-0.008522
-1.2922e-07
5.0793e-08
-8.11955e-09
1.59716e-07
-6.41918e-06
2.59012e-06
7.77581e-07
-1.40536e-07
0.00110025
3.33098e-07
0.0300519
0.0187243
8.72609e-07
0.000579891
-1.06186e-07
1.29769e-08
3.23786e-06
0.0102305
1.33179e-06
0.000632019
0.000490881
4.08371e-07
-1.43495e-06
-0.000149327
-2.22684e-08
-7.33636e-05
4.11557e-06
-3.60766e-07
2.95864e-08
-1.06006e-07
3.39723e-07
3.91802e-06
0.000645347
-1.20009e-08
0.000627926
3.15983e-07
-0.0134437
-0.00239327
-1.99176e-07
-5.11673e-08
-5.04193e-07
4.63171e-05
-1.40964e-06
1.48382e-07
-7.87216e-08
0.000314245
6.22511e-07
1.13544e-07
1.60734e-06
7.08918e-05
0.000137247
-1.86382e-07
-0.000603575
-1.41437e-06
-0.00324345
-1.51706e-08
6.10544e-07
0.000104784
-5.54929e-07
7.907e-07
4.61087e-07
-2.75458e-07
-0.0106046
3.20929e-07
6.44873e-05
-3.69257e-07
-6.8435e-08
-8.78838e-06
5.12909e-05
0.00247988
0.000220537
-1.8299e-08
8.03232e-07
-1.92171e-07
0.000691556
-2.35453e-08
1.07186e-08
0.003235
0.00726505
-4.29251e-08
0.00049532
-1.88279e-07
-2.18927e-07
0.0324203
3.31586e-06
-5.87503e-06
-9.08429e-08
3.22228e-07
-3.1352e-07
2.28158e-07
1.1773e-05
-1.11862e-07
-1.42939e-06
-0.0235391
1.86501e-07
-0.00497089
1.26032e-06
-7.98714e-08
-0.0242342
-2.07991e-09
6.53205e-07
-2.76728e-08
5.96589e-07
-2.51582e-08
-1.14327e-06
0.0053329
3.8679e-07
-9.761e-08
4.31159e-07
9.47129e-07
5.12027e-05
6.55913e-07
2.81422e-06
0.0111086
-1.12279e-07
-2.39218e-07
-8.95081e-08
3.36334e-08
-6.8964e-06
-1.81323e-07
9.56904e-08
0.00630644
5.79966e-09
8.58897e-07
0.00373248
-7.57665e-08
3.42602e-05
-0.00400425
0.0250546
-9.05798e-08
3.48841e-07
0.022565
-9.61669e-08
-2.65693e-08
2.37186e-07
-2.8854e-08
1.13929e-07
4.53216e-07
-7.49091e-08
7.53574e-09
-0.000469243
6.31665e-07
-2.44593e-07
1.8885e-08
3.65339e-05
-5.9142e-09
-0.00730941
8.78075e-07
-1.33727e-07
5.04447e-07
0.0334445
1.22408e-07
0.000659217
-4.28921e-05
0.00523794
-5.79458e-08
6.88277e-06
2.37193e-07
-2.7306e-05
8.8372e-08
-0.00443232
-3.56605e-07
-0.00140571
9.17842e-07
-1.13685e-09
1.73431e-07
9.06475e-07
6.57482e-08
0.000334056
-4.82928e-05
-2.32957e-07
-0.000525808
3.84683e-08
0.00209753
-5.33765e-08
5.89213e-06
0.0107612
2.15275e-05
0.0137657
-0.000350398
-1.26761e-08
1.36002e-06
-8.82804e-07
-1.37907e-06
1.2133e-07
-5.07138e-07
-4.62061e-08
-2.0806e-07
6.19383e-07
-2.09033e-07
-1.24069e-07
0.00213262
-1.28907e-06
-0.000235513
5.66822e-07
-0.00224524
0.000202546
0.00140967
7.72568e-09
2.48414e-06
0.00674847
-2.23829e-07
0.00117756
5.63516e-07
4.84745e-07
-1.76511e-07
4.2964e-07
-1.45567e-07
0.00112685
0.0177886
-1.14271e-06
-1.20037e-06
5.94063e-08
-1.26611e-06
0.00120713
-5.46401e-08
0.000649327
-5.48039e-08
-1.36241e-07
-4.69646e-09
8.13251e-07
0.0130399
0.000437365
-0.000270765
-7.67218e-08
-2.41924e-07
9.60201e-08
-1.05111e-05
-1.30345e-07
8.81683e-06
-1.14145e-06
0.000289502
2.98151e-07
-1.63576e-07
-7.69216e-08
0.02139
-1.74394e-08
0.00290594
0.00113864
1.51167e-07
-8.29542e-07
0.0356719
0.000113023
-1.37704e-08
-1.86732e-05
-1.08963e-07
7.93671e-07
4.30321e-06
-3.28845e-07
0.00367894
0.000706348
6.36938e-07
0.00388579
-1.38467e-06
8.15403e-08
4.15329e-08
3.09945e-07
-2.47508e-05
2.22857e-08
0.000360531
5.3374e-05
0.0132512
-1.41913e-07
6.55937e-06
0.000207564
0.00415747
-1.49983e-07
2.58016e-07
-2.36424e-07
6.09371e-07
8.275e-06
1.38735e-05
-6.69382e-09
-0.000488037
-0.0015751
-1.47617e-08
1.35978e-08
3.41455e-06
0.000186379
-0.000760732
-0.00073811
-2.62645e-07
-2.3574e-05
2.004e-07
-1.30962e-06
7.61646e-07
-3.63947e-07
-3.8584e-08
-0.00028459
-3.55602e-08
-0.00172698
-9.90241e-05
0.00114951
-0.000823499
-1.97815e-07
0.00514912
1.09128e-06
9.36999e-07
7.70206e-09
1.29582e-05
-7.21514e-08
-4.44433e-08
-8.39726e-08
-1.34145e-07
-2.59152e-06
0.000747601
2.33447e-07
0.0002248
-4.41344e-06
5.13724e-07
0.0176115
-2.93801e-05
-8.78364e-07
-1.65737e-07
8.8399e-05
-3.27618e-08
-2.11229e-07
-2.83551e-07
9.64445e-08
-0.00386072
0.00449315
1.29269e-07
-7.75894e-08
-2.65227e-06
-2.07294e-06
0.0337998
1.61157e-08
-8.8572e-08
-1.86832e-07
-7.83337e-08
-2.75825e-06
-2.81745e-07
0.000391652
-3.12842e-05
0.00216139
-1.45128e-05
-1.75602e-07
1.82962e-05
-1.0238e-08
1.60044e-07
1.05978e-06
-3.00157e-08
-1.30965e-07
3.16391e-09
3.62394e-07
-2.50449e-09
-1.16042e-06
0.0365259
2.53043e-07
2.1787e-05
0.00355663
0.0182154
-1.07873e-07
0.0030818
-7.88431e-07
9.57182e-07
-1.23641e-07
0.0472943
7.61476e-07
0.0232802
0.00289172
5.50858e-07
1.30407e-06
1.61721e-06
6.47971e-05
-9.96023e-07
-0.00309631
6.76123e-07
0.00212444
3.70287e-07
-0.00373249
2.98991e-07
7.4147e-07
0.0346068
7.11228e-09
3.73602e-07
-1.31996e-07
0.00310849
-8.05417e-08
7.54398e-09
1.44453e-06
-2.17698e-07
-1.56802e-06
-0.00271211
-5.09767e-08
9.36991e-07
-1.54754e-07
-2.25059e-08
7.32745e-07
0.0027962
1.5925e-06
1.71584e-07
-0.0106538
0.000570602
-3.91671e-08
0.0235903
-7.37984e-09
5.19114e-06
-8.58962e-07
2.63647e-05
2.5865e-06
7.37121e-05
-0.00344675
-8.74263e-06
0.0012262
5.47077e-10
0.000130482
0.00975647
0.00975289
1.06104e-06
-2.39633e-07
-9.86492e-08
0.000144171
0.0245005
1.34711e-08
-2.7794e-07
-1.8697e-07
-1.78529e-07
7.27923e-08
2.03926e-07
2.62418e-07
-1.87367e-07
-4.87141e-05
1.59428e-07
3.22806e-06
3.70655e-05
-1.17841e-05
1.33796e-07
0.0350977
0.00103548
0.00328147
-1.48856e-08
4.37078e-07
1.57572e-08
0.0172328
6.07513e-08
-4.8371e-05
4.01709e-07
-0.00290104
-8.14541e-08
4.18155e-07
-3.9546e-07
8.06369e-05
-0.00557854
-2.87591e-08
-8.96891e-09
2.26015e-07
-0.0130263
-6.07449e-08
-1.41693e-05
4.15182e-07
3.89065e-07
3.062e-07
1.07666e-06
0.00379972
-3.42641e-05
-6.00489e-08
-3.91093e-08
0.0023448
-0.00958398
7.86023e-07
0.00413539
-7.65985e-08
-0.00052287
9.12388e-07
7.5501e-07
4.61062e-07
-0.00146956
1.82618e-07
-2.02268e-07
-2.95998e-07
0.00466486
8.1627e-08
3.12507e-05
8.77446e-08
-1.81727e-08
1.15568e-07
7.59467e-07
0.00445211
-4.61033e-07
2.10701e-07
0.00414636
7.7833e-06
1.29571e-06
-4.25508e-07
3.40356e-07
-0.00059949
0.000101446
-1.52728e-07
-2.52576e-08
5.61678e-07
-1.9056e-07
-2.46895e-07
0.0014941
-8.14643e-08
0.0112614
-7.61982e-08
8.46025e-07
-3.82429e-06
0.0392772
9.16063e-08
5.12625e-07
2.91495e-08
5.39214e-09
0.00421688
4.98676e-09
0.000593382
7.03334e-07
-5.53115e-08
-1.50142e-05
-0.000268326
0.000601368
1.95283e-05
-1.02709e-07
-3.04659e-08
-1.19847e-08
-3.10345e-08
3.00618e-05
-3.21053e-07
0.0158357
-2.70904e-07
2.7008e-08
-0.00982508
4.71576e-07
5.00031e-05
-3.08619e-08
-1.37265e-07
-0.00658443
-0.00345669
-3.42971e-06
-0.000693436
8.23624e-08
5.88452e-07
4.54513e-08
-4.44336e-08
2.72497e-07
2.73523e-07
-1.50498e-07
4.42367e-08
0.0408649
3.758e-07
0.000186938
-3.4063e-08
7.74044e-07
-4.89062e-09
1.96083e-06
0.00123801
-5.20859e-08
-1.28565e-07
-0.000688268
2.27878e-05
4.44054e-09
0.00339789
-5.1263e-08
-0.00011372
-2.98419e-08
-2.44314e-07
-4.86639e-08
0.000162605
-1.92955e-09
-4.37092e-07
-2.23365e-07
0.00421907
-1.21462e-07
3.02048e-07
8.86407e-08
9.85493e-05
-1.62729e-07
-1.85748e-07
-7.15918e-08
-1.44537e-07
5.1287e-07
-1.08755e-07
-3.52491e-07
9.42394e-08
0.00304339
-0.00602082
-0.00619529
-1.00045e-06
3.94507e-07
-4.99458e-08
0.00105681
-6.30784e-07
-0.00198027
-0.00295294
-0.00618732
-1.04327e-05
0.00057667
1.30797e-07
-1.2205e-07
0.00178252
5.65168e-05
-1.97483e-05
1.09788e-06
1.41073e-07
-0.00424412
-2.30184e-08
-6.07951e-08
1.54214e-07
-4.91874e-08
-4.09373e-08
0.00236692
1.63234e-07
-1.94812e-07
0.040804
-3.29741e-07
0.00114298
-4.31554e-06
7.56349e-08
1.76317e-05
-5.94442e-08
-0.00136947
2.10609e-07
9.14621e-08
-0.00440112
-2.12275e-08
2.64969e-08
-2.23238e-07
-1.77598e-08
1.94888e-08
-0.0035607
0.00260792
-0.00160097
1.2448e-07
-1.37331e-07
2.72394e-08
-0.00456205
-4.60356e-07
3.82821e-07
3.00565e-08
-3.49044e-08
-0.00277398
9.65614e-06
-0.000133037
-1.04903e-06
-1.28289e-08
0.00695087
5.52525e-07
-7.05542e-06
3.08865e-07
0.00144199
0.016095
-0.00463722
-3.17023e-08
2.66413e-08
2.47828e-07
0.000162889
-1.38186e-07
4.40614e-07
1.57252e-07
7.25709e-09
4.52474e-06
4.59831e-07
0.000236401
0.00435187
-2.877e-08
-1.40097e-07
-4.66119e-09
-0.000168619
-5.35227e-08
-0.00151621
-1.12363e-06
2.05253e-05
-1.72723e-07
5.47741e-07
-5.38916e-08
-1.97563e-07
-1.26915e-07
1.23169e-08
6.59983e-08
3.62331e-07
6.82698e-06
3.64616e-07
-0.00698647
1.11067e-07
1.0548e-05
0.000700539
-6.55125e-07
0.00692711
-5.10105e-08
-5.23484e-07
3.06532e-07
-1.01016e-07
-0.000475221
1.18056e-07
-8.47836e-07
1.63555e-07
0.011949
4.23309e-07
-4.51279e-06
7.2176e-07
-1.23192e-07
-0.00135306
0.00192481
-2.97945e-06
4.84038e-08
9.39184e-07
-8.82285e-08
1.14333e-05
1.69779e-05
0.000327256
-2.71313e-05
1.25724e-07
-1.8742e-08
2.86541e-07
-9.97038e-08
7.37807e-06
0.000377343
-1.49302e-05
3.69097e-09
4.30366e-07
-7.88207e-07
-8.26009e-07
-1.10397e-07
-0.000545145
1.92983e-07
-1.38211e-07
-0.00301353
-9.07388e-08
9.93619e-07
7.99797e-07
-2.64892e-08
-0.0030511
1.2799e-06
-2.97683e-07
-2.95614e-07
3.49025e-07
-1.2568e-07
0.0190042
3.36509e-07
3.49625e-07
4.65721e-07
0.021167
-4.74765e-07
7.50093e-07
-7.34174e-06
2.50326e-07
7.31795e-07
-5.96097e-09
1.16014e-06
-5.19525e-07
3.21411e-07
7.07214e-07
-6.65432e-08
3.46547e-07
3.71684e-07
-1.69461e-07
8.96282e-08
0.000291726
1.80959e-08
-1.12326e-07
-6.13901e-09
-1.1186e-09
-0.000137814
3.78524e-06
-1.52353e-06
-5.30718e-05
0.000470979
-1.35447e-07
0.000190779
-0.000101204
-4.97833e-08
-3.9416e-07
-8.24194e-09
0.0047482
0.00130675
4.54921e-07
-3.05306e-08
-1.31566e-06
-5.59919e-06
0.0397582
-6.69293e-08
0.00528354
-1.15452e-05
-0.00602238
1.09158e-06
1.27152e-07
7.2383e-07
-0.00524668
2.98342e-05
3.95531e-07
0.0421111
0.000629265
-0.00296912
0.00116524
-4.49257e-07
0.000275609
0.000846442
8.91273e-08
0.00913311
-2.24487e-08
0.041976
-1.38178e-06
-0.00477342
-4.04791e-08
-2.94185e-05
-1.3565e-07
-4.00713e-07
1.29772e-08
-3.71061e-08
-1.42842e-07
0.00110673
-1.38177e-07
1.14676e-08
-0.0116344
-4.90063e-08
5.72146e-07
-6.92303e-08
0.000239664
-4.77235e-08
2.2323e-07
-4.94605e-07
-4.51495e-07
-3.12045e-07
4.72687e-07
-4.24258e-08
-0.0415713
0.000685062
2.0209e-06
-3.75857e-09
0.00137299
-3.37409e-08
1.04515e-06
-0.000422332
6.68097e-06
-2.59792e-07
-1.85713e-08
-4.5963e-07
-1.75917e-07
0.00169976
-5.70773e-06
1.99685e-08
0.0129194
-4.22865e-09
-1.54713e-07
-0.00228502
-2.14407e-08
-6.45763e-08
0.00910258
-5.55763e-08
0.00202282
1.89507e-07
0.000112142
6.69188e-07
-4.52259e-06
-9.00459e-06
-2.50385e-07
0.0067789
0.00744998
-1.25729e-07
7.09323e-07
0.000134672
-0.041071
9.1416e-05
-2.41571e-07
4.03971e-08
-2.39333e-05
-1.77976e-07
1.34199e-06
-0.0016709
3.96106e-07
3.30847e-09
7.31621e-07
0.00802452
0.000709475
-1.1957e-08
-1.19738e-08
-2.17706e-07
1.15275e-07
0.00158176
-0.00499204
1.72534e-07
4.43143e-07
0.00515941
1.95875e-07
-1.02726e-07
0.00865383
-4.4069e-07
1.82755e-06
7.05108e-07
3.41602e-08
1.26302e-07
2.86239e-06
-1.3383e-05
7.18391e-07
2.83645e-07
-0.00152289
0.00419774
0.0192206
4.77343e-07
-1.6526e-07
0.0130332
8.89548e-07
0.0035119
6.37961e-07
-1.38826e-07
1.80473e-07
0.0203973
0.000320135
2.86044e-07
4.11117e-07
9.9482e-07
-5.43069e-07
3.46602e-07
2.79994e-07
-4.27215e-07
-1.31072e-08
7.61763e-07
-3.04878e-07
-1.4866e-07
0.0207266
-7.42129e-08
3.00685e-08
-1.81835e-06
5.26582e-07
-0.00243914
-1.37962e-07
-8.56284e-07
0.0204296
-2.30271e-06
-1.75582e-07
7.968e-07
-0.0044171
-1.44174e-08
9.47764e-09
4.78719e-07
0.000546738
1.03668e-07
2.39088e-07
1.22969e-07
-3.02352e-06
6.15531e-07
0.0293903
3.15159e-07
-0.0021002
-7.38452e-08
4.19037e-06
1.8743e-08
2.60803e-07
1.29902e-06
-0.00420699
-4.0265e-05
-2.70054e-07
-2.29238e-07
-0.000402951
1.25137e-05
5.3559e-06
7.9005e-08
-0.00455968
-5.19086e-08
-2.07257e-06
6.76445e-07
4.32655e-08
4.71338e-07
-1.10897e-07
-1.1554e-06
-0.00298934
-0.0010704
-5.02385e-07
-4.26572e-07
5.83939e-07
7.90944e-06
-5.26524e-09
9.93931e-08
9.91955e-07
1.03938e-08
-4.05535e-08
-0.000990823
-4.35218e-07
0.00177075
-1.29632e-07
1.06943e-07
1.27266e-07
4.54433e-07
-2.71049e-07
9.49235e-07
-0.000897413
-1.42423e-08
-6.23043e-07
0.000971347
-3.83023e-07
-8.82632e-07
-2.4489e-07
0.00250186
-0.00211409
-2.56539e-07
-0.000251959
-1.36575e-06
-1.38945e-07
0.000638549
1.83267e-08
-2.76236e-07
-2.80214e-08
-1.22169e-07
-9.92928e-08
0.0228344
-5.58442e-06
0.00200313
0.00220361
-0.000758136
-2.13413e-05
-0.00231236
3.845e-07
0.000347087
-5.1399e-08
5.70566e-07
6.56734e-08
-1.39247e-07
-5.64654e-07
0.00995755
0.00199043
-2.39905e-07
-0.00672006
3.41897e-08
4.41887e-05
9.0271e-08
4.08154e-07
-7.31467e-07
-1.32426e-05
-0.00690387
-1.68495e-08
1.66186e-08
-5.46322e-08
1.64643e-06
6.75589e-06
-1.69742e-06
-0.00425764
-8.96615e-07
0.00276369
0.00256587
-1.31696e-07
-7.23507e-09
-5.66521e-08
5.61165e-07
-4.46181e-08
2.63477e-07
-1.14745e-07
-9.8827e-07
-7.54963e-07
-7.05e-07
-3.24067e-07
-0.000908658
-0.000949234
-2.96804e-08
-0.0071134
4.76234e-07
1.0279e-06
3.73178e-06
5.45853e-05
-2.49087e-08
5.94026e-07
5.42364e-06
2.69917e-08
1.75499e-07
-0.00419994
1.36633e-07
-9.5721e-09
-2.07213e-07
-0.000962045
0.00415675
9.00038e-08
0.00513025
-1.44487e-07
-9.77137e-08
2.96509e-05
3.76514e-07
-5.44586e-08
-6.90954e-09
-3.23715e-07
1.03761e-06
-0.000293567
-3.29067e-07
-5.90821e-07
-1.55504e-07
-7.48074e-07
-2.49556e-09
0.00235359
-2.27818e-08
-1.30034e-06
0.0167439
-0.00281147
-2.33762e-07
-0.00388949
2.1355e-08
-0.0067394
3.8608e-07
1.08481e-06
2.26493e-08
-0.00659855
-0.000258722
-0.00755897
-2.1688e-08
0.000297427
-0.00036088
-0.000931171
6.77733e-07
-0.000531146
-5.13329e-07
-4.82049e-05
-0.000697548
8.18516e-07
2.46775e-05
-0.000167952
0.00381283
0.0432912
-8.05808e-08
-0.000632066
1.12711e-07
-2.63816e-07
-0.000706833
1.51434e-06
-1.48875e-07
-0.00305723
8.21454e-09
-1.41192e-07
3.4833e-07
0.000175074
1.23875e-06
-7.36761e-07
0.000645352
7.31494e-07
-0.00151318
2.85584e-07
-6.00827e-08
-4.96955e-07
0.00548057
-0.00150422
7.12176e-07
-0.000171552
-6.15154e-07
-1.27712e-06
7.19748e-07
-0.00261512
9.79886e-08
-2.18757e-07
0.00203336
0.00417884
-5.92916e-07
8.2869e-07
-5.69101e-08
7.15995e-07
0.000129808
4.20187e-07
-0.00245681
-0.000137909
-8.3653e-08
2.27361e-07
-7.91479e-08
0.00165878
-1.77474e-07
-3.34333e-06
6.89537e-05
-1.90583e-08
-6.84743e-08
2.06024e-08
8.06493e-07
5.37043e-08
7.89873e-06
-5.17452e-07
1.31851e-05
2.89521e-05
-4.5112e-07
6.3554e-07
-0.000265251
-7.67097e-07
-6.19018e-07
-1.97836e-07
-6.14368e-09
0.0101722
0.000208611
-9.72981e-07
1.51046e-05
-2.01057e-06
-0.00140427
-1.74974e-07
6.39386e-07
1.27231e-06
-2.61215e-07
7.42963e-07
0.000305111
-1.25747e-06
-6.89017e-08
-0.00231178
-1.1456e-06
3.98928e-07
0.00129325
-1.84535e-07
-0.000664679
-8.80247e-08
-2.01087e-08
0.00137978
-8.88242e-08
0.00150373
-0.000728653
1.15786e-05
0.00056209
-4.83467e-07
-5.6632e-07
-1.36545e-05
3.60758e-05
-4.28035e-07
-6.28538e-07
-2.18557e-07
-7.55424e-08
7.86329e-07
2.22139e-07
-4.88695e-07
1.05424e-06
4.63233e-07
5.88495e-07
4.87474e-07
1.22881e-07
-2.75631e-07
-0.00308183
6.34967e-07
-0.000573298
-2.42544e-07
6.27092e-07
-3.44705e-09
1.6811e-08
-0.00124067
2.19987e-08
0.000524966
-0.000525643
4.11059e-07
-0.000671041
7.35752e-07
-0.00169884
-5.83984e-09
0.00274897
2.17088e-06
-4.97364e-05
3.31604e-07
-2.09149e-07
-6.3431e-08
-0.00178902
4.246e-07
0.000220545
8.07463e-07
-2.25537e-07
0.00239596
-1.33683e-08
0.0080875
4.88287e-08
-0.00516461
-5.3674e-07
4.22558e-08
5.02575e-09
0.00309709
1.54518e-08
2.81472e-07
2.45506e-08
1.17544e-07
1.8704e-07
6.99451e-07
0.00380895
-2.69629e-07
5.33234e-07
1.65601e-07
4.65347e-08
-1.75744e-07
0.00182487
0.0414158
4.41431e-07
-2.15937e-07
-1.32406e-07
1.27453e-07
5.33894e-07
4.15608e-07
-1.62103e-08
0.00162418
0.0453077
-0.000516047
-1.75153e-07
1.0218e-07
-1.48107e-07
4.36011e-07
8.80381e-08
3.48396e-07
1.06398e-07
-2.48136e-07
2.5031e-05
-4.15093e-07
-1.43588e-05
0.00115729
0.0049408
-1.00717e-06
1.14642e-07
-5.44953e-07
0.0137058
4.87909e-07
7.03849e-07
-2.22828e-07
8.93905e-08
-1.68691e-07
-1.43257e-07
-0.00313936
1.68694e-07
-0.00151754
0.00251701
6.17627e-07
-2.1827e-07
4.57484e-07
-0.0016698
5.1881e-07
8.43374e-07
-3.47197e-07
8.81032e-07
-3.68643e-08
4.79754e-07
-0.0247784
0.000249757
3.32322e-07
1.05897e-08
0.0167184
4.21259e-07
6.26664e-07
-3.33184e-07
-0.000667398
-1.38927e-07
4.52748e-07
-0.00068137
0.0116802
5.68917e-07
1.53854e-08
-2.99442e-07
-4.02842e-08
1.36425e-07
1.9339e-05
0.000773815
0.000855352
1.69818e-08
0.00206313
-1.43093e-07
-0.00833173
-0.000565407
-1.20248e-07
0.000668407
0.000125432
-9.35501e-08
5.04557e-07
7.12944e-07
-6.1814e-07
0.00122213
1.78229e-08
0.0370415
-2.82287e-06
0.0341081
3.1594e-05
1.0144e-06
-1.85896e-07
4.68408e-07
2.29606e-07
7.78189e-08
-1.04681e-07
1.46674e-07
0.000306053
4.57202e-08
7.98701e-07
-0.00188631
0.00761417
8.40735e-07
-7.76305e-06
1.11865e-07
0.029026
2.18337e-08
-0.000598831
3.71012e-05
0.00554244
1.03972e-05
0.00294209
-0.0138433
2.02227e-08
-5.93087e-07
-3.37921e-08
-1.18317e-05
-1.49896e-07
0.00315862
4.27086e-07
0.0132723
5.80728e-07
2.75377e-07
-2.71132e-07
9.85072e-08
-7.58197e-08
-0.000570461
0.0012402
0.00507307
4.16882e-07
-2.27396e-07
5.22923e-07
-4.35203e-07
1.06097e-06
4.1237e-08
0.000868649
0.00190212
1.7309e-07
-1.27278e-06
-0.00174938
5.73319e-07
-0.000439623
0.00428648
-1.18942e-07
0.000720152
-1.73105e-07
0.0146493
1.41503e-08
7.70647e-05
-2.43493e-08
-0.00015365
4.94864e-05
0.00119268
0.000115155
0.00814073
1.98662e-06
7.50581e-07
-3.75513e-07
-7.81056e-07
0.00433332
-0.000954028
1.02413e-06
5.76648e-07
0.0451588
0.000158836
-0.00130439
9.65223e-07
0.00154755
-9.61578e-07
8.71389e-07
0.000248523
-9.81278e-07
-9.0098e-07
-2.20309e-07
1.81996e-08
5.73238e-08
-1.90983e-08
1.61669e-07
-0.000240339
-2.01282e-08
-0.00089751
-3.21387e-06
2.27277e-07
-0.00102118
0.00103013
-2.05289e-07
3.26288e-07
-0.000643488
0.000736606
-9.20042e-07
0.00158728
0.0317849
0.00112829
-1.51436e-07
8.08309e-07
4.84316e-07
-7.1902e-09
-3.04233e-05
-0.00095318
-0.000717069
6.40438e-07
-5.25681e-07
-1.4242e-07
-0.0136408
0.000501761
1.03788e-06
-0.00014971
1.14963e-07
-1.35206e-07
3.67856e-07
0.0158538
4.84767e-07
-4.92676e-08
-8.57891e-08
4.57466e-07
0.00554182
0.000573147
3.44139e-07
2.02412e-06
0.00344158
4.70951e-08
0.000945965
-2.84857e-07
6.90986e-07
2.70494e-10
7.36946e-07
2.48836e-06
-3.03878e-07
4.46725e-07
-1.77637e-07
5.26282e-06
-2.35486e-07
7.69769e-07
5.25684e-08
3.07649e-07
3.27266e-07
0.00219158
7.34676e-07
5.30905e-07
2.42232e-07
-0.000318121
-3.65718e-07
0.000262836
3.17285e-07
7.00863e-07
1.55108e-08
-1.14431e-06
-7.83866e-06
5.96834e-07
-0.00422236
-6.25548e-08
-5.07852e-07
0.000895491
-1.23952e-07
-0.00161399
1.00682e-06
1.28298e-07
3.26744e-07
-3.17663e-05
4.57198e-08
0.00248336
5.26474e-10
0.000712929
0.00149466
3.47607e-05
3.35244e-07
-2.2998e-08
4.18351e-08
-2.05255e-07
5.46289e-07
-2.10595e-08
-7.0397e-07
1.46445e-07
-6.52234e-08
4.4116e-07
-2.80026e-07
1.30294e-06
-4.15989e-08
-1.77397e-05
1.79572e-08
-0.0340108
5.11043e-08
-3.92279e-11
0.000181111
-3.04803e-07
-0.0260568
-0.00242487
-5.09826e-07
3.7203e-07
9.74773e-07
-0.000595975
-1.26546e-07
0.000983217
6.84245e-07
1.11097e-06
0.0147556
2.77156e-07
0.0360631
5.83356e-08
7.85665e-05
9.52463e-09
0.0123211
0.033381
-0.00141812
2.55508e-07
3.55536e-07
1.03243e-08
3.06272e-07
0.000289652
-3.06709e-07
9.09827e-08
1.04882e-06
-1.86631e-07
0.00512802
-0.000752156
1.94533e-08
4.72812e-07
-6.79932e-08
5.80385e-07
2.88271e-07
-4.70568e-09
5.94959e-09
-7.43102e-05
0.0364812
1.53757e-05
3.09704e-07
2.21772e-07
3.72817e-07
1.8946e-06
0.00854959
1.92592e-06
-0.00901456
-2.28195e-05
4.47304e-07
5.13728e-07
1.23847e-06
-1.8028e-07
4.55219e-07
-1.73938e-05
3.73841e-07
-0.000729574
3.30012e-07
0.00147413
-9.43036e-07
2.61374e-07
1.61596e-06
3.56166e-07
3.00626e-07
-3.55013e-08
5.73672e-07
0.00051755
1.42615e-06
2.84862e-06
-5.61288e-07
0.00790255
0.000619417
5.70716e-07
-7.86504e-07
-1.98342e-07
7.38157e-09
3.9583e-07
9.67872e-05
-7.77874e-08
-1.53053e-07
1.03695e-07
4.05078e-06
6.02123e-07
-5.95142e-07
0.000735272
9.86747e-08
3.47302e-07
-0.0033818
3.28564e-07
5.76575e-07
0.000349786
1.35464e-07
0.00406723
-1.58149e-07
-1.75345e-07
2.05298e-08
-6.23719e-06
7.22342e-08
0.00180574
1.86903e-07
-6.25028e-08
-0.00990329
-0.000332549
0.0199513
-0.000476306
-0.00280842
5.88426e-07
3.95607e-08
2.80991e-07
-0.00167042
6.28678e-07
-0.00174928
3.62613e-07
6.92516e-07
2.1793e-05
0.000152815
-1.14682e-07
0.00763067
0.000672793
3.94297e-08
5.62986e-07
1.98918e-08
2.7556e-07
0.00239674
5.70552e-05
-3.51377e-08
-2.59131e-07
-3.36007e-08
0.00322992
3.3416e-07
0.000980655
8.04377e-07
2.77542e-07
2.30115e-08
-5.79197e-08
-0.0232954
9.18523e-05
-1.24559e-07
-0.0441754
0.000138512
3.26836e-07
0.00287684
1.53178e-07
8.674e-08
-2.00324e-07
-1.18834e-07
-2.42083e-07
4.66651e-07
-1.10349e-07
3.38652e-07
-1.66302e-07
1.53746e-06
2.77747e-07
-0.00435363
7.01335e-07
-1.44056e-07
-0.0285411
2.64706e-08
-7.34469e-07
4.88553e-06
6.14468e-08
0.00144978
-6.14071e-08
1.63652e-06
0.0299627
-1.15341e-07
-0.00193877
-0.00180616
-8.96763e-08
-2.19937e-07
2.32836e-07
-0.00107877
8.40967e-08
-4.21517e-05
0.0015537
-1.94727e-07
5.74479e-07
1.2102e-06
6.80693e-05
-8.18685e-08
-0.00130796
2.84059e-07
4.26891e-05
-0.000389374
-3.21115e-06
-0.00371309
-4.77843e-07
2.02996e-06
0.000147588
-1.37901e-06
-5.09629e-08
5.81761e-07
2.76933e-07
9.82985e-07
7.99773e-08
-9.93354e-08
0.000643353
5.47065e-07
0.000406532
1.87809e-05
-1.50803e-07
-0.000387698
-1.78904e-07
1.78348e-05
1.23455e-07
5.15017e-07
3.92966e-06
0.00248577
0.00828353
8.01905e-07
4.7361e-07
0.00474808
-3.581e-07
1.42365e-07
-1.19036e-08
8.77036e-08
-4.52564e-07
4.16291e-07
-7.64798e-08
0.0119519
5.24208e-07
-1.71212e-08
-1.79013e-07
-1.66512e-07
-7.65454e-09
0.000143579
3.03946e-07
2.8241e-06
-6.92527e-07
0.00660153
-2.54036e-07
9.81752e-09
8.09265e-08
1.54762e-06
1.09807e-06
2.43392e-05
0.000286583
0.00131565
5.39679e-07
1.21848e-08
-2.27064e-07
3.10423e-08
-2.7058e-07
0.00100781
-6.36165e-07
2.13239e-07
-0.00762329
-8.97116e-08
3.17975e-07
0.000171344
-0.0123298
0.0148416
9.45499e-07
0.00236858
-0.0117183
-1.39842e-07
2.96762e-07
-1.54321e-06
0.00306385
-8.1767e-07
0.00120884
-6.04786e-06
-1.48728e-07
-1.85337e-07
0.000392516
6.55649e-07
7.24493e-08
-8.63966e-06
-7.57276e-08
4.2809e-07
-0.00126966
-0.0109829
-1.70728e-06
5.77595e-07
-8.85207e-07
2.13715e-06
0.00941067
-2.06321e-08
3.39904e-08
7.54914e-08
0.000297857
-1.10297e-07
3.83871e-07
0.0133055
0.000290203
1.13143e-07
-2.30177e-07
1.2068e-07
-7.49286e-08
-9.95881e-08
-1.98587e-06
9.12139e-06
1.70657e-07
2.19309e-05
0.000279191
0.00161821
1.88916e-08
-5.33316e-07
-1.54555e-07
1.16713e-07
-2.32331e-07
-1.14857e-07
-3.24786e-07
-0.00718317
-0.00141105
-2.12297e-07
-1.0866e-07
-7.49075e-07
-7.06646e-07
0.0115572
-2.29297e-06
0.0141651
0.0010365
-3.32731e-05
3.32359e-07
-3.68798e-07
3.21e-07
-2.10306e-07
-5.67011e-07
0.00051353
-1.57806e-07
3.79535e-07
-0.0361
0.00562255
0.000809193
-0.00545864
-3.02435e-05
0.0018211
1.47125e-07
-1.29883e-06
0.0083942
7.2521e-05
-1.96336e-07
-2.1428e-07
6.67879e-07
-2.75614e-07
-1.97615e-07
0.00717992
8.01836e-08
2.48195e-08
-0.00973886
3.56207e-07
0.00575772
-8.47825e-08
-1.30823e-07
-1.14726e-06
-0.0368204
8.01008e-05
0.00363311
-8.04228e-08
0.0120703
9.43887e-07
3.1465e-08
0.00406889
-8.13818e-08
3.33452e-07
-1.18623e-07
1.71484e-07
0.0455711
0.000710114
0.00121503
-6.34915e-06
6.54628e-05
-0.00136996
-0.0103846
-1.9831e-07
-6.47024e-07
-0.00909187
-1.14595e-08
-6.81536e-08
3.41268e-07
-2.50956e-07
0.00443159
3.94895e-08
0.00289922
6.54784e-05
-6.99125e-08
0.0234992
-7.27011e-07
5.06563e-08
-7.47331e-07
4.05744e-07
-5.0769e-07
-3.5566e-07
4.55727e-09
0.00239207
-4.67108e-07
-1.34363e-08
1.03758e-06
9.76104e-07
4.27259e-05
-5.08691e-08
-1.05604e-06
-3.54257e-05
0.00187824
-1.25833e-07
-3.54749e-07
-2.98902e-07
4.36939e-09
-2.82765e-07
-1.16363e-07
-0.00208737
-0.000241645
-1.74543e-07
2.29625e-07
9.96772e-09
-1.50559e-06
0.00139992
-4.11204e-07
0.000903547
-0.0047846
4.84002e-08
-1.25173e-06
0.00030553
0.000405801
5.44942e-07
-6.63118e-08
-7.50045e-08
0.00462374
-1.29269e-05
0.00290369
6.18072e-07
0.000194106
1.82891e-06
0.00435195
0.000441769
0.0019705
3.31731e-05
0.0186489
0.000101651
0.000321218
-7.43414e-07
0.000640783
5.46546e-07
-0.00449087
3.4406e-07
3.48343e-07
-8.28226e-08
-6.2164e-05
-0.00170456
-3.35906e-07
-3.79203e-07
0.000391381
-0.00280383
-0.0020031
2.73158e-08
-4.5797e-07
-2.5329e-07
5.41124e-07
-8.18946e-07
9.42979e-07
0.0094258
0.00188813
5.30875e-07
-4.43547e-08
1.74153e-06
-2.07095e-08
-6.96759e-08
-4.22386e-05
1.30443e-07
4.96183e-07
-1.40114e-07
0.000915662
6.23781e-07
0.000105645
1.19325e-06
0.000262423
-0.0134184
6.88111e-07
-8.70138e-05
0.0224071
-0.0127926
0.00161534
-1.77274e-07
-1.29608e-07
1.78417e-06
-6.97375e-08
-6.23367e-07
2.51816e-07
-6.69119e-07
-1.40117e-06
8.5769e-07
2.719e-08
-0.000703598
4.95917e-07
-0.000105905
-1.17183e-06
-0.00615012
-0.000631336
6.98181e-06
0.000152767
0.0183767
-5.37618e-05
-0.0102835
0.0313662
2.39195e-08
6.91404e-08
-2.89693e-05
-1.44627e-06
0.0141996
1.12123e-07
5.76618e-07
0.015308
-1.57211e-07
-1.98853e-07
-9.4213e-07
9.64956e-07
-0.00191085
-1.95798e-07
7.58525e-07
-2.30089e-07
0.00228869
-1.75932e-07
0.0194309
0.000841462
0.00274124
0.022149
4.36151e-08
-1.91577e-07
-6.38967e-07
-1.85677e-07
0.00014226
8.86081e-05
1.57303e-05
0.000800716
-1.10364e-07
-5.20808e-07
4.92567e-07
-1.08498e-07
0.000701426
9.7591e-09
7.19167e-07
0.00150843
0.00111218
-2.50364e-07
-2.11132e-07
-7.22013e-07
0.02372
2.19943e-06
-1.22861e-05
-0.000348824
0.000952879
0.00914182
-1.98742e-07
-3.68628e-07
-2.4675e-08
-7.9557e-07
0.000503455
-4.56321e-08
5.32673e-05
3.06269e-08
-4.61401e-07
2.44335e-05
6.86111e-07
-0.000237242
-5.55076e-07
-4.12929e-07
-7.65841e-08
-0.001781
-2.14475e-08
2.68036e-07
-0.00426817
-2.70599e-07
-1.96937e-07
9.99409e-07
0.0370419
5.66822e-07
1.63573e-05
8.3568e-08
-7.5653e-05
-0.00536788
-3.26672e-06
-3.76155e-07
-8.14663e-08
-9.90903e-07
-3.92078e-07
0.00214805
0.00116826
0.00121959
0.0198509
-1.65541e-07
-2.63372e-05
-5.46166e-08
-0.0020415
-1.79464e-07
-0.00420519
-0.00190479
-2.82952e-07
-3.34372e-05
-5.12314e-08
0.000613978
8.89731e-07
6.29361e-08
4.13704e-05
-1.89832e-07
-3.53428e-08
2.69243e-07
-9.23821e-09
-2.19026e-06
0.0169463
-5.05329e-07
-2.34792e-07
1.55758e-06
-5.30887e-08
-9.12298e-07
1.65235e-07
1.8188e-07
-2.4832e-08
0.000792038
-8.24374e-07
-1.19131e-07
4.12231e-07
2.66102e-07
-2.46519e-07
0.0155069
0.00282123
-2.41262e-07
-8.05255e-09
6.51564e-07
3.46069e-05
-3.09453e-07
-6.50072e-07
3.38831e-07
-1.62795e-06
-1.17342e-07
4.17772e-07
-0.00188597
-5.0575e-07
0.000219513
-1.7707e-07
-4.70762e-08
-1.06228e-07
1.42167e-08
-1.07737e-07
-2.79205e-07
0.0221248
0.00193167
-1.17897e-07
1.65171e-06
-1.03358e-07
-0.0008951
-9.20264e-07
2.01489e-06
-2.43637e-07
3.27889e-07
-8.30569e-05
-1.4158e-06
0.00144542
1.9126e-05
-8.85445e-08
-6.65619e-07
0.0077203
3.5065e-09
0.00193068
-0.000416588
-2.45816e-07
0.000700418
0.00986538
-0.00179315
3.8094e-05
9.8936e-05
-1.03258e-06
-6.84153e-09
0.00104978
-3.9931e-07
-1.03333e-06
-1.32489e-07
-1.1258e-07
8.46822e-08
-0.0235329
4.04621e-08
6.42686e-07
0.000599312
1.34101e-07
-2.97675e-07
0.00544615
4.37538e-08
6.62637e-06
4.01929e-08
0.000123607
-0.00314665
0.000475118
4.7933e-08
1.2079e-08
1.09094e-07
0.00278156
-0.000411751
0.000724416
-0.0065334
3.44339e-06
-2.53921e-07
1.62155e-05
0.00113182
3.7468e-08
3.47657e-07
-1.68231e-07
-1.80117e-07
0.00660542
3.37347e-06
-1.30083e-07
-0.0018357
-3.93335e-08
-1.97368e-07
1.5092e-08
-1.691e-07
-3.56895e-07
-0.00730581
-1.01757e-07
0.000999712
1.93358e-09
3.32534e-07
-7.16466e-07
-7.67879e-07
2.20162e-08
-2.38796e-07
6.67848e-06
-9.76234e-08
5.42969e-05
0.000303162
3.54316e-06
-5.0541e-08
6.83723e-06
2.35256e-07
3.50123e-07
-3.53076e-08
-1.96748e-07
-8.07567e-08
-0.00576931
-0.00153684
-1.27251e-07
2.95787e-07
-0.0088162
-4.93764e-07
0.000409847
-6.73841e-07
-2.50477e-07
-5.06565e-07
-5.41164e-06
0.000201654
0.00938751
0.00956069
-2.86704e-07
2.99912e-06
-2.31378e-06
1.70552e-07
-9.44354e-08
-3.55596e-08
6.87147e-07
6.84768e-07
-0.0510638
0.0100492
7.04787e-07
-5.96745e-08
-9.40457e-07
1.85431e-07
-3.68895e-06
-5.29568e-07
9.08732e-05
5.40393e-08
-0.00184338
7.03831e-07
6.61234e-08
-3.37378e-07
9.34111e-06
-1.44453e-06
0.0102382
-3.11337e-07
-1.8426e-07
-2.67466e-07
-1.8118e-07
-0.00410798
1.46408e-07
-5.97698e-07
-1.43404e-06
-9.63702e-08
0.0196155
-0.00791302
8.91717e-08
1.86408e-09
-5.38421e-07
-0.00476388
-0.000695272
-2.15952e-07
-1.94279e-07
-0.00272985
-3.65203e-07
-2.94294e-07
-9.83196e-05
-8.37843e-08
1.15193e-05
-0.00185479
-0.000244266
9.03813e-07
1.22229e-07
-3.21553e-08
6.77285e-07
-2.53508e-07
3.68438e-08
-0.0045079
0.00765252
-4.07338e-08
2.3247e-07
5.84967e-08
1.25887e-07
0.0089921
1.76799e-07
1.30197e-07
-2.48926e-07
2.65187e-08
-1.18099e-07
-1.57237e-05
5.8018e-07
-7.75165e-08
-6.63288e-07
1.52271e-07
-3.07818e-08
-1.10627e-06
-6.71278e-05
3.62687e-05