/*--------------------------------*- C++ -*----------------------------------*\
| =========                 |                                                 |
| \\      /  F ield         | OpenFOAM: The Open Source CFD Toolbox           |
|  \\    /   O peration     | Version:  v2012                                 |
|   \\  /    A nd           | Website:  www.openfoam.com                      |
|    \\/     M anipulation  |                                                 |
\*---------------------------------------------------------------------------*/
FoamFile
{
    version     2.0;
    format      ascii;
    class       surfaceScalarField;
    location    "550";
    object      meshPhiCN_0;
}
// * * * * * * * * * * * * * * * * * * * * * * * * * * * * * * * * * * * * * //

dimensions      [0 3 -1 0 0 0 0];
oriented        oriented;


internalField   nonuniform List<scalar> 
14885
(
0.000256081
0.000751329
-0.00101074
0.00725207
-0.00392293
-0.00338963
0.000463848
-0.00439731
0.00385322
0.000761865
-0.00111588
0.000310756
-0.000129394
0.00104408
-0.00122568
-0.00551017
0.00118401
0.0043257
-0.000850915
-0.0032851
0.0040305
0.00168451
-0.0020229
0.000309324
0.000871523
-0.0006216
-0.000301336
0.0043879
-0.00172786
-0.00271682
-0.000420911
-0.00176094
0.00219813
0.0035003
0.00370593
0.000433386
-0.00280521
0.0023269
-0.00091828
0.00219698
-0.00135351
0.00324878
-0.000971726
-0.00225863
-0.00227758
0.00129261
0.00433206
-0.00398969
-0.000340049
0.00172948
-0.00213002
0.0022641
-0.00048801
-0.00184225
0.00407981
-0.00108182
-0.0030299
0.0026976
-0.0023057
-0.000715099
0.000961359
0.000800823
-0.000191507
-0.000326233
0.00325581
-0.00291174
-0.00268666
0.000585629
0.00196436
5.52881e-05
-1.52177e-05
-6.39625e-05
0.00371051
0.00057156
6.1102e-05
-8.59301e-05
4.43793e-07
-0.000771172
-0.00474233
0.000868917
0.00196191
-0.00284277
-0.000540772
0.000190901
0.000238204
0.00251322
-0.000406739
-0.00212616
0.000740977
-0.000223453
-0.000613821
0.000212265
0.000404869
0.0019345
-0.0002642
0.00194845
-0.00174341
-0.000201246
-0.000290016
5.49624e-05
-9.07148e-05
-0.000962999
0.000103608
0.000834885
-0.000395471
-0.000298868
-0.00015708
0.00016622
-6.04542e-06
-0.00287012
0.00372498
0.000555015
-0.0029045
0.00345082
-0.00057638
-0.0070654
0.00623735
0.000721415
-0.0024632
0.000365117
0.00199246
-0.000773686
-0.00193238
-0.000173746
-1.09681e-05
0.000182495
0.0029288
0.000380782
0.00040245
-0.00336881
0.00289856
0.00399841
-0.00425876
0.000199752
-0.00323466
0.0002859
-5.08864e-05
0.00145992
-0.00156432
0.00355859
0.000239503
0.0019768
-0.00595371
0.00549329
0.000406269
-0.0037665
0.00344248
0.000274028
0.000387677
0.00227436
0.00262899
-0.000878796
-0.0018632
0.00288195
-0.00257745
-0.000369878
-2.96417e-06
3.35926e-06
-8.69718e-08
0.00372513
-0.00340145
0.0057577
-0.00542475
-0.000420083
0.00305044
0.000363289
0.00151213
-0.00177942
0.000248363
0.00293349
-0.00041896
-0.00255812
0.00402695
-0.00115927
-0.00294056
0.00395321
-0.00133847
-0.00264933
0.000957134
-0.00122247
0.000236995
5.56578e-05
0.000116465
-0.000177346
0.00110534
-0.000178111
0.00319774
-0.00337096
0.000120063
-0.000276066
-0.00298114
0.00329409
-0.000238393
-0.00123043
0.00144064
0.000517806
0.00230351
0.00305588
0.000833641
-7.628e-05
-0.00127541
0.00274547
-0.00152777
-0.000181826
4.48422e-06
0.00138653
-0.00271677
0.00158476
-0.00213558
-0.00634255
-0.000787415
-0.0031819
9.43222e-05
-0.000375193
9.02132e-05
0.000997116
-0.000168533
-0.000897108
0.00457086
-0.00181797
-0.00283612
-0.00400827
0.00409533
-0.000152394
0.0028664
0.00103341
0.00435362
-0.00396948
-0.00248332
0.00265438
-0.000109585
-0.000964028
-0.00220034
0.00313729
0.00296638
-0.00205221
-0.000960588
0.00158153
-0.00254998
0.00306048
-5.26671e-05
0.000452284
-0.00452366
0.00290325
-0.000321963
-0.00257279
0.00282045
-0.00318133
0.000376278
0.00211054
-0.00207368
0.00270346
0.00333333
-0.00393903
0.000578912
-0.00272014
0.00031105
0.00239203
0.00212942
0.000782505
0.00406121
-0.00448733
0.000330251
-0.00100605
-0.00250376
0.00336009
-0.0018984
0.00255915
0.00240793
-0.000256958
-0.00220587
-0.0027827
0.00277678
1.55027e-07
0.00138293
-0.00374529
0.0023204
0.00366726
-0.000732323
0.00311135
-0.00405691
0.000259891
-0.00311416
0.00291155
-0.00345509
0.000541507
-0.00109524
0.00411361
0.00441001
-0.000435535
0.0017737
-0.000276204
0.000394881
0.00251794
1.16371e-05
0.000150424
-0.000145977
-0.00147257
0.00380345
-0.00239945
0.000416625
-0.000116772
-0.000476263
0.000635187
0.00184304
-7.58072e-06
7.12124e-05
-4.7047e-05
-4.64899e-06
-7.06059e-08
0.0065135
-0.00346179
-0.00311449
0.00458063
0.00188778
-0.000580139
-0.00190118
0.00144918
-0.00243269
-0.00236646
0.0026087
-0.000251019
-0.00279013
0.000301145
-0.000407956
-0.00559645
0.00253557
-0.00237888
-0.000175293
-0.0039985
0.00245863
-0.000929604
0.000948253
-4.78508e-05
0.0032433
-0.0023024
-0.000965926
-0.00027828
0.0024604
-0.00218391
-0.00221367
0.00368426
-0.00149318
0.00252537
-0.00369684
0.00025179
-0.00347848
0.00315597
0.00409991
-0.000948056
-0.00319086
0.00234928
0.00280491
0.00304551
-0.00278163
-0.000335585
0.00412609
-0.00081381
0.000362502
-0.00302415
0.00261494
0.000187095
-2.6627e-05
-0.00020485
0.00449096
-0.00316258
2.58525e-06
3.39662e-05
-0.00204113
0.00306192
-0.00105955
-0.000177794
-0.000789278
0.0019471
0.00254246
0.000220265
-0.000171859
0.00296848
-9.9827e-05
-0.00298131
-0.00102099
0.0038274
-0.00283378
0.00267923
0.000967825
5.26293e-05
-4.6239e-05
-1.1454e-05
-0.0029629
0.00252381
0.000459572
0.0025513
-0.00281859
0.000235013
0.00038045
0.00253003
0.000696767
-0.00277773
0.00232638
0.000186667
-0.0030407
-0.00077012
-0.00241729
0.00213179
6.77456e-06
3.30761e-05
-0.000498663
0.000130978
0.000195654
-0.000139336
-8.22336e-06
0.0034456
-0.0032661
6.49527e-05
0.000278129
-0.0026372
0.00228177
0.00397935
-0.00504037
0.00151582
-0.00179049
-0.00260371
0.00067992
0.00017199
0.00175576
-0.000454628
0.000152236
0.000204659
0.00302402
-0.000380909
-0.00263007
-0.00187712
0.00383309
-0.00476997
-0.00104976
0.00575934
-0.000369909
-0.00191362
0.00211106
-0.00585585
0.00102104
-0.000752947
-0.00124653
0.00190507
-0.00109603
0.0009177
0.000863573
0.00230713
-9.63495e-05
0.00020055
0.00261174
0.000332514
0.00305632
-0.00126266
-0.00184549
-0.00225446
1.79642e-05
-0.000161826
0.00018491
0.000194823
-5.99572e-05
-0.000156298
0.00154909
0.000793846
-0.00237824
0.00278723
-0.00302688
2.02037e-06
-4.75646e-06
5.08033e-06
0.00319121
-0.000130938
-0.00309875
6.49686e-05
-0.000111379
-2.81155e-05
0.00111674
-0.00242479
0.00277638
-0.000988078
-1.1346e-05
0.000661361
0.0023547
-0.00582005
0.00607426
-0.000309154
0.00268276
-0.00109087
0.00142958
-0.00253512
0.00108628
0.00308872
-0.000376464
-0.00274536
-0.00218512
0.00202951
0.000148025
0.000936232
-2.45464e-06
0.00220264
-0.00258472
0.000356314
-0.00311553
0.00299707
6.94915e-05
-0.00484437
0.000843606
0.00397742
-9.9989e-06
5.07507e-05
9.54923e-07
-0.0033945
-0.000578181
0.000202077
0.00227748
-0.000246974
-0.00290187
0.00319073
0.00270923
-0.000204502
0.00295453
2.07086e-05
-0.00278494
0.000543692
-0.00011308
1.36271e-05
6.40158e-06
-0.00439908
-0.000462032
-0.00493126
0.00456546
0.000312618
0.000739664
-0.00207758
0.000914142
-0.000852261
-0.000233631
0.00105593
-1.26572e-05
0.000186848
-0.000166125
-0.000815226
0.0051175
-0.00438585
3.77566e-05
-7.10916e-06
-8.91336e-05
-0.000203762
-0.00230118
-0.000175831
0.00246328
0.000346807
0.00266085
-0.00249425
0.000175166
0.000236207
-0.00059016
-0.000524231
-0.000101209
-0.000229461
-0.00233149
0.00249657
0.00119516
0.00283725
0.000522979
-0.00399331
0.00332778
0.00153173
-0.00263395
-0.000185628
-0.000918529
-0.00176061
-0.00111036
0.00238498
-0.000878155
3.16217e-05
0.000273549
0.00117143
-0.00203903
-0.00187385
0.0046285
-0.00160414
-0.0031241
0.0022311
-0.000132101
0.00267764
0.000348621
0.00299772
0.000288834
-0.000443155
0.00471564
-0.00434136
0.00362861
-0.000453077
-0.00324213
-6.17491e-06
-2.99548e-08
-0.00011852
-2.1047e-05
0.00507176
0.000327349
-0.00546347
0.00100155
-0.00143974
0.000515479
0.00303165
0.00284038
-0.000195072
-0.00162517
-0.00130889
0.000830153
-2.46687e-05
-0.000231586
0.0025781
-0.00100205
-4.30507e-05
0.00528753
-0.00255119
-0.00281205
0.00154566
0.00305604
-0.00467473
0.00249766
0.000297071
0.00128358
0.003274
1.71247e-06
2.74095e-05
0.00326129
-0.00273914
-0.000655559
-0.00124118
-0.000842814
1.77256e-05
-0.000478269
0.000411498
0.000556797
-0.00278322
-7.26011e-05
-0.00100739
0.00101581
-0.00119938
0.00100806
0.000183233
-0.000197127
-0.000146374
-0.00472578
0.00616506
-0.00231484
0.00284593
0.00225131
0.00298409
-6.86844e-06
1.73683e-05
5.18212e-05
0.000539787
-0.00233198
-0.000660141
0.00323535
-0.00251348
0.00365079
0.000265154
-0.00237309
0.00228123
1.3049e-05
-0.00325169
-0.000170796
0.000720414
0.00243923
0.00217077
-0.000596938
-0.0017004
0.00265888
-0.000857054
-0.00177614
0.00186705
-0.000254446
-0.00175608
0.000150517
-9.78212e-05
-0.000598202
-7.43425e-05
-5.38211e-05
0.000391371
-0.00370009
0.00322393
0.00229998
-0.000887515
0.000334947
0.00228959
-0.0016774
0.000512992
0.000322574
0.00230069
6.40769e-05
-0.00237292
0.00141042
0.00246624
-0.00393753
0.000173548
1.79916e-05
-0.000210046
9.7946e-05
-0.000793447
0.000676039
2.1688e-06
5.6407e-05
0.0027633
-0.00243938
-0.00036734
-0.00016359
0.00305139
-0.00300159
0.000147463
-0.00086025
0.000276794
0.00257701
-0.00377313
0.00114469
-0.00277399
0.0010964
-0.00210502
0.00100858
-0.00495173
-0.000278337
0.00511878
0.00471998
-0.00361148
0.00244798
-0.00305959
0.000141033
-0.000145403
-0.000281892
-0.00410926
5.57196e-06
-5.56491e-07
-0.00459095
0.00408273
-0.00194497
0.00330954
0.00228362
0.00340461
0.00248178
-0.00276208
0.000196708
2.60742e-06
-0.000119084
-0.00480788
-0.000215774
0.00363331
-0.00108375
-0.000437152
-1.85692e-06
-0.00129845
-0.00195834
0.00326929
-0.000443871
0.00321005
-0.000837959
0.00193175
0.00277626
-0.00305347
0.00073006
-0.000649697
1.54911e-05
0.000161531
0.000116685
7.12433e-05
-0.0033204
0.000281152
0.00302401
-7.28237e-05
0.000101518
1.39964e-05
8.26691e-06
-1.60673e-05
-0.00328074
-2.95766e-05
0.000552583
0.00148868
0.00142933
-0.000172073
-0.00125734
0.000293155
-0.000271066
-3.13793e-05
-0.000799363
0.00112456
-0.00279317
0.000299508
0.00240994
0.00283599
-0.00201636
0.00302034
0.000361748
0.00235737
-0.00224067
0.00246796
-0.00304809
0.00329216
-0.000175568
-0.000407582
0.00114829
-0.000246788
0.000311256
-0.000143343
0.00304425
-0.0032467
-0.000132092
-0.000693375
0.00474745
-0.00318813
-0.00163741
0.00121509
0.00021124
-0.00103445
-6.60459e-05
-0.000567336
0.00447975
0.00289081
-0.00257185
-0.000363731
0.00287085
-0.00254006
-5.22231e-06
-8.90372e-07
-0.00286177
0.000308817
0.00249729
0.000118349
-0.000126564
-8.68521e-05
-0.00104101
0.000850717
-0.00216377
0.0023033
-0.000155416
0.000287655
-0.000619801
0.00018669
0.000351667
-0.00307567
0.00264451
0.00019806
0.00202221
-0.00217246
0.00261189
-0.00292706
0.00279755
-0.00252546
-0.000632235
0.000756437
-0.000159061
2.32455e-05
-0.00552452
-0.000332534
-0.00251616
-0.00261945
0.00231758
-4.82312e-05
-0.000303158
-0.00230816
0.00258417
1.97012e-06
-5.5173e-06
5.17989e-06
0.00297768
-0.000179299
0.00017516
-0.000422708
0.0024459
-0.00223738
0.00345058
-0.000450173
-0.0030419
0.00329481
-0.00392097
-9.29353e-05
-0.000300365
0.00039894
-0.000170133
-0.000282801
0.00277266
-0.00251245
0.00249287
0.00590856
-0.00527907
-0.000675711
-2.89122e-07
3.11255e-05
2.77454e-05
2.79909e-05
-1.24275e-06
1.24275e-06
0.0028507
0.00115101
-0.00255043
0.00242709
9.7907e-05
-0.00229056
0.0015659
-0.00058722
0.0047234
-0.0042303
-0.000471388
0.00531247
-0.00495346
0.00384992
-0.00106931
-0.00312159
0.00299231
0.00014475
0.0040938
-0.00476866
0.00387396
-0.00349603
0.0023035
0.000474736
0.00305645
-0.00115737
-0.00192908
-6.82359e-05
-0.000368233
0.000100982
1.19139e-05
0.00245871
-0.00211223
-0.000371116
0.000166881
-2.20875e-06
0.00345374
-0.00284451
-0.00280144
0.00277712
-5.47922e-07
0.00226625
-0.00202063
-0.000325318
0.00297841
-0.00271562
-0.000614631
0.00389102
0.00610973
-0.00312162
-0.00102536
5.23293e-05
0.000877963
0.00029468
0.00161406
-0.000898373
-0.00143949
0.00149291
-0.00191574
0.00152607
-0.000185469
0.00233081
-0.00250441
0.00015711
-0.000403947
0.000373643
2.06601e-05
0.00544022
-0.000600661
-0.00205075
0.00262951
0.00014492
-0.000814718
0.000200088
0.00263564
0.000775699
0.000107995
-0.000870396
0.000495175
0.00415864
0.000732366
0.00265834
0.00528253
-0.00253878
-0.00275906
-0.0013147
0.0024942
-0.00123733
0.00320152
-0.00371703
0.000154703
0.00220536
0.00175487
-0.000231708
-0.00152993
0.00373171
-0.000454739
-0.00333665
0.000716345
-0.00303184
0.00224705
0.00544954
5.10544e-06
9.50811e-05
-0.000109037
0.0013636
0.00232398
0.000253383
-0.000280328
-4.57416e-05
0.00277943
-0.0034142
-0.000202778
-0.000868521
-0.000155653
0.000212935
-6.9229e-05
0.00268159
0.0010507
-0.00381369
0.00390205
-0.000305482
-0.00371216
0.00227369
0.00297506
0.000520297
-0.000540913
-0.00281962
-0.000829089
0.00343659
-0.000103733
-8.99797e-05
0.00130873
-0.00267946
-0.000697701
-0.00105735
-8.60704e-05
0.000864692
0.000234761
0.0021759
0.00375237
0.000200602
-0.00397253
-0.00179398
-3.87259e-05
-1.95888e-05
3.32276e-05
0.00305966
0.000337838
-9.4104e-05
8.00096e-05
1.40624e-06
-0.000833692
0.00345221
0.000280502
0.00364135
-0.00400448
-0.000133654
9.6562e-05
0.000207978
-7.9086e-06
-0.000201398
0.000381951
0.00135978
0.000156454
0.00322752
-0.00150911
-2.43958e-05
0.00021004
-0.000154476
0.00198759
-0.00155157
0.00366775
-0.00478684
0.00105478
-0.00113515
0.00475101
0.00219853
0.000824338
0.000400773
0.000223764
-0.00217589
1.1249e-05
0.00298717
-0.00301996
0.000193206
-1.19587e-05
9.99412e-06
-0.00011248
8.91835e-05
-0.000286859
-0.000352709
0.001274
-0.000750816
-0.000661385
-0.00151895
0.00152746
2.41202e-06
-8.00625e-05
-0.00144201
0.000350009
0.00207368
-0.000118527
-0.000879734
0.00237426
-0.00235253
0.00182532
-0.0027835
0.00263239
-0.00299744
0.00346992
-0.00337686
-0.000605253
0.00052941
6.1108e-05
-0.00262685
2.02833e-05
0.00259189
0.00403026
-0.00030482
0.00426614
-0.000695694
-0.00361094
0.000124101
-0.000431053
0.00212781
-0.00193877
-5.7005e-06
2.29094e-05
0.00174665
0.00429045
-0.000356247
0.00297974
-0.00258205
0.00287881
0.000150868
0.00244652
-0.00219715
0.00353532
0.000559677
0.000159977
-1.4058e-06
0.00203156
-0.00231804
5.69436e-05
-5.91893e-05
0.000502039
0.00137017
0.000656487
-0.00367865
0.00300459
5.03036e-05
-0.000121927
0.000888735
-0.000849868
-5.16915e-05
0.00236087
0.00418512
0.00179612
-0.0060104
0.000855278
-0.000989765
-0.00311296
0.00281153
0.000249849
0.0045702
-0.00041394
-0.00424149
-0.00276542
0.00290996
0.000524252
0.000186781
-0.000289013
-0.00326999
-0.000522047
0.00338352
0.000488375
-0.00393179
-0.00289425
0.00295259
-3.56415e-05
-9.16377e-05
0.000137503
0.00351403
-0.00202573
0.00616882
-0.00235308
-0.00135728
0.00361748
0.000247968
-0.0038168
0.00355449
0.00011905
7.06287e-05
-0.00024048
-0.000104217
1.07915e-05
8.85934e-05
-0.00354871
0.000401648
0.00303729
-0.00322149
0.00279175
0.000365561
-0.00297302
0.00280008
0.000130489
0.000289861
-0.00311386
0.000624741
-0.000147789
-0.000427005
0.000200802
4.90913e-05
0.00273431
8.63194e-05
-0.00287585
5.91595e-05
-0.00334226
-0.0004587
-0.00143095
0.00198003
0.0045264
0.00056997
0.000791031
-0.00283422
0.00297104
-0.00011159
-0.000653082
0.00060585
3.83053e-05
-0.00225961
0.00290594
-0.00321771
0.00345321
0.00368079
-0.00225397
-0.0022893
0.00249017
0.00625225
-0.00331137
-0.00307219
0.00260559
-0.00301503
-0.00361649
0.00060207
0.00287815
0.000716852
0.00284393
-0.0032066
0.00022445
0.00287242
-9.28881e-05
-1.252e-05
0.00410161
-0.000772877
-0.00290523
-0.000179113
-0.000106887
-0.000114569
0.000169584
0.000619395
0.00390715
-0.00165105
-0.00150646
-0.00308878
0.000222339
0.00276088
-0.00437304
0.000135086
0.00412821
0.000716486
0.00546598
-0.000460701
0.000171484
-0.00053071
-0.000418276
0.00129505
-0.000146692
-0.00120797
-0.000177859
0.00132959
-0.00168612
-0.00228825
0.00240709
-0.000156472
4.19953e-05
1.70593e-05
0.0013974
-0.00137669
-4.58808e-05
0.00277388
0.0033984
-4.46634e-06
-2.14449e-08
-0.000549716
-0.00477782
0.00523721
-0.00352466
0.00108525
-0.000745824
0.000254021
0.000439517
-0.00271318
0.0025527
8.80701e-05
0.00235025
0.00236826
-0.00524308
0.000673581
0.00447224
0.00302056
-0.000190261
-0.000201112
0.000292912
0.000102705
-0.000256123
-0.000190805
-1.56107e-05
0.000214797
-0.000412428
-2.45971e-06
0.000409698
-0.00181765
0.000314665
0.00138026
0.00292552
-0.00530002
0.000581514
0.00463854
-0.00287956
0.00291908
-0.000140586
-9.86208e-06
3.04659e-06
3.74442e-06
0.00473871
-0.00443387
-0.000353002
0.00207342
-0.00238433
-0.00142554
-7.76841e-06
2.71709e-06
-0.00121303
0.000969011
0.000103975
0.000495955
0.00418238
0.00318802
0.000232686
0.000183121
0.0010966
-0.00274326
0.00310903
0.00415067
-0.00189095
-0.00221258
0.000306002
-0.00257204
0.00223418
-0.000580189
0.00021059
0.000329258
-0.000308204
-0.000472937
0.00219264
-0.00373707
-0.00274235
0.000786841
-0.00289882
0.00306435
-0.000136371
-0.00010697
9.2182e-05
-6.19504e-05
-0.00021542
-0.00241323
-0.000107274
0.00262985
0.00375307
-0.00421516
0.000367987
-0.00135046
0.000109507
0.00120742
0.00121
-0.000129912
-0.00108658
0.000178314
-0.000170205
-0.00324746
-0.000508368
-0.00549053
-0.000307866
0.000528087
0.000187145
0.00156642
0.000214927
0.00293538
0.000129917
-0.000133159
-0.00533183
0.00475324
-0.000346027
-0.000314151
9.11649e-05
0.000860656
-0.000836692
0.000916094
-0.000840885
0.000283798
0.000319674
4.86448e-05
0.00127755
-0.00226015
0.00193417
2.36854e-05
0.0001446
-0.00259965
5.98327e-05
0.00251393
-0.00227501
-0.000280602
-0.00506879
-1.30477e-06
-5.91535e-07
-0.000562604
-0.000261134
0.000403712
-0.000190748
0.00464843
-0.00440442
-0.000326822
-0.000297687
-0.000863166
-0.00208654
0.00289205
-0.000920871
0.000183603
-0.000250787
-0.00300298
0.000837709
-0.000168996
0.00113993
-0.00247335
0.000191865
0.00100076
-0.000322312
-0.000275159
-0.00185538
0.00552323
0.000593416
0.000885492
0.00279161
-0.00369932
0.00345182
-0.00277838
0.000256186
0.000209644
-0.000265243
-0.00043932
0.00453373
-0.00420887
-0.00185099
-0.000337606
-0.00257376
0.00422137
-0.0016922
0.0041732
-0.0033104
0.000761351
-0.00280912
0.00324429
0.00199722
0.00222768
2.06329e-05
-0.00304721
0.00204745
-0.00352967
0.00150707
0.00410024
0.0004756
-0.002587
0.00280209
0.000927992
-0.00223532
0.00129682
-0.00255742
0.00249576
0.000104738
-0.00331382
0.00306913
0.000217731
0.000116418
-0.00188663
0.00175712
-0.00322659
0.00307278
0.000199964
-5.07996e-05
-0.00057153
-6.55202e-05
0.000873287
-0.000311755
0.00346251
-0.00139958
0.0023799
-0.0020698
-9.50833e-05
5.73098e-05
0.0028788
-0.000110962
0.00252687
-0.00301448
0.000297461
0.00405097
-0.00460405
4.06932e-05
0.00011929
0.000130424
0.00218015
-9.59284e-05
0.000164699
-7.19298e-05
0.00331349
-0.00215789
0.000217233
0.00193952
0.0016381
0.00155454
-0.000398158
0.00406473
-1.61519e-05
-0.00278942
-5.62451e-06
-4.57441e-06
-4.48859e-05
0.00014374
9.61564e-05
-0.00174072
0.0016308
-0.00135232
0.000106077
0.00125756
-0.00347206
0.00353348
-0.000122992
-0.000222586
-0.00427212
0.00515993
0.000238427
0.00307942
-0.000101174
0.000311845
0.0023146
-0.00165937
0.00163842
1.78083e-05
-0.000168896
-0.00288173
-6.3469e-05
-0.0024957
0.000241019
-4.75034e-05
0.00239943
-0.00238839
5.05057e-05
0.000502744
-0.00337151
-0.00174834
-0.00255377
-0.000171386
1.6836e-05
0.000154657
0.000406219
-0.00284921
-1.42529e-06
0.00018315
-0.000192318
0.00246351
-0.00130385
-0.00118176
-0.00201158
-0.00293764
-0.00030397
0.00155671
-0.00345108
9.316e-07
-7.93528e-05
7.7407e-05
-0.00242485
0.00464294
-0.0028263
0.00326949
0.00204909
-0.00194475
-0.000320012
0.000484693
-0.000262934
-0.000232431
-0.00193173
0.00172805
-0.000353564
-0.00138159
0.000125462
0.00180714
-0.00223514
0.000296332
0.00133287
0.0014531
-0.00279066
1.00249e-06
-3.10163e-07
-0.00241336
0.00267235
0.000216293
-0.00265427
0.00242116
0.000241817
-0.00258048
-0.00180926
-0.000741056
0.000222131
-0.000263468
2.0278e-05
-0.00191896
0.00217048
-0.000212537
0.000238371
-5.60893e-06
2.46339e-05
0.000172818
-0.000952982
0.00102661
-0.00358059
0.00258649
0.000163527
0.00304762
-0.0032168
-0.00236248
0.000315717
0.00197744
0.00278719
-0.00107525
-0.00170279
0.000189846
-0.000526237
-0.000197402
-0.000357299
0.000407162
0.00287594
-1.08041e-05
1.79891e-07
7.88357e-06
-0.00277376
0.00245928
0.00243042
-0.00223648
-0.00013432
-0.00297276
0.00221535
-0.000252555
0.00426594
-0.00144811
-0.0028694
-0.00426455
0.00395556
0.000396474
-0.000371424
0.000213594
-0.000153718
-6.52663e-05
-0.00109556
-0.00020611
0.000741258
0.000115997
-0.00099259
0.000850981
8.12918e-05
-0.00246581
3.37061e-05
0.00238386
-0.00039196
-2.26758e-05
0.000207626
7.66457e-06
0.000266295
-0.00294164
0.00243752
-0.0011201
0.000633657
0.00277752
-2.37414e-05
-0.000637609
0.00564409
0.00166253
0.001103
0.00148923
0.00364915
-0.000226142
-0.0035129
-0.0020749
-0.00276019
-0.00181677
0.00140988
7.01601e-05
-4.20699e-05
-0.00158402
0.00034562
0.00263477
-0.00171981
-2.406e-05
0.00449602
0.000488677
-0.00513638
0.00269463
0.000212003
-0.0019355
0.00325271
-0.00280495
0.00284081
0.000290424
0.000101755
-0.00112645
0.00287979
-0.0018128
-0.00219037
0.00329249
-0.00117364
-0.00044808
0.000470622
-4.53449e-05
0.00136958
-0.00113608
-0.000249369
-0.00384581
0.000140218
0.00364137
5.73748e-06
9.18195e-09
-0.000377734
1.36547e-05
0.000363173
0.000409102
-0.00212314
-0.00367369
0.00387258
-1.95958e-05
-1.54232e-05
0.00474646
-0.00374284
-0.00247233
0.00228908
0.000204873
0.000141719
0.00145683
-0.00407701
-0.00201747
0.000129872
0.00183545
0.000302484
0.0023181
-0.00040574
-0.00290377
-0.000331818
0.000310194
0.00161678
-0.00124674
4.19625e-06
0.00056453
-0.000601303
-4.61974e-05
-0.00251764
0.00259474
0.00244063
-0.000206424
-0.0022764
0.00047319
0.00326453
-1.81188e-05
-0.00278124
-0.00561607
7.80659e-05
0.00421473
-0.00191644
0.00518147
-0.000551162
-0.004737
0.000225538
0.00216534
0.00311456
-0.000362859
-0.000317086
0.00030847
-2.26429e-05
1.1171e-05
-0.00223731
0.000536784
0.0030126
-0.0001121
-0.000416712
-0.00259957
4.5907e-05
0.0025066
0.00212876
0.00022865
-0.00227598
0.00111849
-0.00219916
0.000508732
-0.000855225
0.000280254
0.00268524
-7.62756e-05
-0.00261129
-0.00434643
0.00289054
-0.000697518
0.000425941
0.00317377
-0.000461982
-0.00268944
-7.67747e-05
6.90792e-05
9.5383e-05
3.2389e-06
-0.00175728
0.00156508
-0.00168927
0.000125009
-0.000149198
-0.000160982
-8.85029e-06
0.000860775
-0.000785983
-7.27229e-05
0.00334719
-0.000583249
-0.00284607
0.000751219
-0.000633251
-0.000107395
-7.67747e-05
-0.00268976
-0.00194651
0.000209672
0.00165204
0.00491002
-0.000553941
0.000123901
0.00230662
0.00250731
-2.60654e-05
-0.00245794
1.51762e-05
0.00127704
-0.004559
9.76485e-05
-9.76692e-05
0.00269432
0.00010908
0.000741098
0.000460115
0.0036357
-0.00420434
0.000749675
0.000140342
0.00272353
-0.00271758
0.00247796
0.000213657
0.00399081
0.0032658
0.000153116
0.0034315
0.000544692
-0.00057219
-2.27808e-05
-5.05114e-07
7.79092e-06
-0.000385438
-0.00380052
0.00361042
0.00010859
0.000437287
-0.00437516
0.00381876
0.00244637
-0.00269343
5.73107e-05
-0.000817819
0.00263953
-0.00188549
0.000274969
0.00132568
-0.0025849
0.00291986
-0.00235541
-0.000142971
0.00276581
-0.00133221
0.00486342
-0.00550123
0.00502626
-0.00063882
-0.00442695
0.000635079
0.000830422
-0.00308232
0.00234818
-0.00229198
0.000518486
-0.0033182
0.00296532
0.000672518
9.15335e-05
-7.79884e-07
-0.000350281
0.000202605
-0.00489864
0.00256769
0.00224128
1.04174e-05
-1.78432e-05
7.4079e-06
-0.00313941
-0.00189135
-0.000321687
0.00209308
-0.000474996
0.00526962
-0.00489442
-0.00346615
0.0022671
1.95222e-05
1.00952e-06
-0.00419221
-0.000279564
-0.00305033
0.00281718
0.000241502
-0.00271558
0.00223319
0.000421351
-0.000148227
0.000264004
0.00108803
-3.47429e-06
-2.5851e-06
1.0479e-05
0.000209187
-0.00252376
-0.00286087
-0.000336565
0.00319856
0.000154378
-0.0023863
-0.000140621
0.00248152
0.000186466
-8.63893e-05
-0.00131801
-0.00016246
0.00408793
-0.00395968
-0.00281647
0.00389186
-0.0043818
-0.00205521
-0.000238476
-0.00143038
0.00133772
6.55303e-05
-0.00217753
0.0024667
-0.000258104
9.91414e-06
-0.000477246
-0.000353664
-0.0027725
-1.5898e-05
0.000170934
0.00253548
-0.00237032
0.000481432
-0.00154162
-0.000241052
0.00373282
-0.000442622
-0.00346792
-0.00157397
0.000439735
0.00463921
8.11455e-07
-1.22539e-05
-5.63046e-06
-0.000481978
-0.00292482
0.000253858
-2.03059e-05
-0.000236406
-0.00103056
-0.00118744
0.00502965
-0.00469364
-0.00136674
0.00113091
-0.0034211
0.00483348
-0.00147746
0.00228837
0.00375583
0.000107114
-0.00396754
-0.000326125
0.00242235
0.00313052
0.000434154
-0.000122277
-0.00338562
0.00179557
0.000235141
0.00214214
-0.000363983
-0.00127878
0.00323237
-0.00293548
0.00270366
-0.00249344
0.00396229
-0.00415956
0.00497895
-0.00252129
-6.67298e-05
-1.87643e-05
6.28605e-05
0.00216354
-0.00166649
-0.000642877
-4.59935e-06
-0.000335061
-0.00305689
5.12916e-06
0.00051741
-0.00307995
0.00287376
0.000181434
-0.00187504
0.00210578
1.38294e-05
-0.000176933
-0.00240362
0.000250719
0.00211626
0.000856786
0.0033299
0.000102159
9.64182e-05
0.000212931
0.000232753
1.7158e-05
-7.67046e-06
-8.24256e-05
-0.000107785
-0.00244064
-0.00415511
0.000151117
0.00362267
-7.40909e-05
-0.00362368
0.000706636
6.58686e-06
-0.000734736
0.00220743
-0.00203104
-0.000216407
-0.000180891
0.00323249
-0.00311744
0.00212033
-0.00331592
-0.000245484
0.000340029
-0.000175813
-7.8549e-05
-0.00279556
0.00285597
0.00295263
-0.000322563
-0.00263179
-0.0029622
0.00015675
0.00278885
-6.1073e-06
0.000452865
-0.000459928
7.79216e-05
-0.000256882
-0.00264955
0.00307467
0.000127287
0.000753117
0.00436864
0.00459746
0.000402758
0.00206755
0.00188328
0.000115006
-0.0020086
-0.00535067
0.00088877
-0.00457767
0.00507685
0.00100992
0.00166574
0.000112054
0.00267512
-0.00277155
0.00212119
0.000266544
-0.00241417
-0.000220111
0.00274108
-0.00246251
0.000260588
0.00191285
-0.0022042
0.00303468
0.000275899
0.00192672
-0.00224282
-0.000641887
-0.00462242
0.00515999
0.00466528
-0.0020961
0.00339861
0.000258055
0.00190154
-0.00101717
0.00203818
-0.00103666
-9.89656e-05
-0.00254586
0.000497682
0.00377048
-0.00293829
0.000801371
0.00246569
3.30108e-05
-4.63914e-05
-0.000306948
-0.00250264
0.0024871
-0.00227034
-0.00202994
0.00209167
-6.47572e-06
0.00223897
0.000362456
0.00166182
-0.00323502
-0.00227011
0.000167049
0.00206332
0.00188473
-3.03996e-05
-0.00183726
-0.000377978
0.000225287
0.00336057
-0.00277045
-0.00532033
0.00370882
-0.00334766
-0.000231801
0.000369473
0.000416855
-0.00335
0.00285734
-0.00316716
0.00295717
0.000183767
-0.00201104
0.00014086
0.00178206
-0.000113313
0.000740553
-0.000660591
0.000250939
-0.00232622
0.00403437
0.000384898
-3.33125e-05
-0.00175379
-0.00232708
0.00252508
0.00220749
-0.00197368
2.21056e-05
4.74463e-05
0.00201402
-0.000895255
0.00042896
-0.00302074
0.00153673
0.00257572
-0.00413438
0.00306069
0.00349035
-0.000476355
-0.000561915
6.16048e-05
0.000490179
-0.000303526
-0.00250011
-0.00249149
0.00135494
-0.00322425
0.0001163
0.00245482
-0.00386426
0.00366203
0.000113967
-0.00341088
0.000201674
0.00315164
0.000656855
7.07117e-05
-0.00038748
0.000388322
-2.98773e-05
0.00235615
-0.000144071
-0.00203585
-0.000107798
0.00141395
-0.000254241
-0.00127004
-0.00401243
0.0045878
-0.000399224
0.000153201
-0.00215713
0.00204309
0.00159888
-0.000129568
0.00486395
-0.000297263
0.00124121
0.00375279
-6.36298e-05
0.000555143
-0.000492622
0.00294835
0.000232608
-0.00319238
-0.00216208
-0.000137534
0.000732663
-7.44217e-05
0.000314809
0.00203696
-0.00157665
0.00160823
-2.32108e-05
-0.00189263
-0.000959494
1.91272e-05
-1.02736e-05
-0.00223613
3.75885e-05
0.00219427
0.00300435
-0.000180471
-0.00284084
-0.0022142
0.0023954
0.00473915
0.000598036
3.12616e-06
-0.000632024
5.98244e-05
-0.0016725
0.000643332
-0.000491534
-0.000171592
0.000408527
0.00297389
-0.00257741
-0.000496167
0.000477088
0.00374322
0.000270739
-0.00208494
-0.00327862
0.000341331
0.000422578
0.00478454
0.00246579
0.00444975
0.000398017
-0.000203928
0.000198175
-0.000210666
0.00114358
-0.00462743
0.00164371
-0.00196313
0.000352662
-0.00288872
-0.0041178
0.00372434
0.000380816
-0.00295195
0.00184608
0.00291884
-0.00231772
3.77612e-05
0.00202804
0.000253066
-1.56276e-06
-0.000212381
-7.83094e-05
-0.0010385
-8.98039e-05
-0.00527522
0.00413556
-0.00267048
-0.000954048
-0.000131291
0.00109118
-0.00274917
-0.000121269
0.000878889
-0.000813361
-0.00433013
0.000405327
0.00377625
-0.000277425
0.00196456
0.000262385
0.000187954
0.0028001
0.000305311
9.83813e-06
-0.000423484
-0.00181413
0.00294046
0.000249094
2.54109e-05
0.000477317
-0.000700088
-0.00312846
0.00271122
0.000337163
-0.000202884
0.00290522
0.000137738
-0.00110095
0.000361419
-0.00387531
-2.67786e-05
-0.00183658
0.000314728
0.00143926
0.00351097
0.00142681
-0.000457133
0.000155038
0.00270863
4.913e-05
-0.00225669
0.00232876
-8.68201e-05
0.000106316
0.000321335
-0.000340058
0.000103445
-2.61947e-06
-9.87888e-05
0.000359505
0.00343801
-0.00386292
-0.00233999
9.92799e-05
0.00221406
0.0015067
-0.0013053
0.00120786
-0.0001913
-0.00332831
-0.000192693
-0.00234532
0.0025016
0.00156569
0.000166088
0.00397312
-6.32865e-05
-0.00128396
-0.0021859
5.76473e-05
0.00212816
-0.00165833
0.0029996
-0.00322911
-4.70544e-06
4.10453e-06
0.00257888
-0.00239805
-0.000579074
0.00073784
-8.76031e-05
-0.000652716
-0.00244677
0.00292571
0.000393396
9.61509e-05
0.000625115
0.00295955
-0.00278834
0.000184846
0.00137993
-0.00153986
0.000211644
-2.2654e-05
-0.000209163
0.000413445
-0.0044537
0.00395355
0.00231719
-0.00212498
0.000988512
-0.00201961
-0.00321135
-0.000318457
0.00448742
-0.000453184
-0.00417462
-7.31582e-05
-0.00137616
0.000196507
-0.00206904
-0.00375243
0.000427393
0.000220509
-0.000176209
-3.17213e-05
-0.00268233
-0.00176712
0.00338257
-0.000257727
-0.00215173
-3.94005e-05
3.91944e-05
-1.66269e-05
0.00153805
-0.00132791
0.000210269
0.00258443
-4.24237e-06
0.000697636
0.0031603
0.000256802