/*--------------------------------*- C++ -*----------------------------------*\
| =========                 |                                                 |
| \\      /  F ield         | OpenFOAM: The Open Source CFD Toolbox           |
|  \\    /   O peration     | Version:  v2012                                 |
|   \\  /    A nd           | Website:  www.openfoam.com                      |
|    \\/     M anipulation  |                                                 |
\*---------------------------------------------------------------------------*/
FoamFile
{
    version     2.0;
    format      ascii;
    class       volVectorField;
    location    "900";
    object      ddt0(U);
}
// * * * * * * * * * * * * * * * * * * * * * * * * * * * * * * * * * * * * * //

dimensions      [0 1 -2 0 0 0 0];


internalField   nonuniform List<vector> 
10042
(
(0.000436176 0.000402789 3.0789e-18)
(0.000144217 0.000892311 1.79665e-18)
(-0.00200701 -0.00219511 -3.17888e-18)
(-0.000248318 -9.24642e-06 1.57239e-18)
(0.0128115 -0.00450781 5.15285e-17)
(-0.000481358 0.000821358 -8.47968e-19)
(0.170775 -0.00627434 2.62125e-17)
(0.00882449 -0.0236342 -2.93924e-17)
(0.000248018 -0.00145597 -1.73938e-18)
(-0.000328616 0.000297769 7.2309e-19)
(-0.0553475 0.00461112 -3.3562e-17)
(5.81657e-07 -1.67826e-05 -1.5479e-18)
(-0.000895067 -0.000138237 -4.69354e-19)
(-0.00195797 -7.69139e-05 -6.17139e-20)
(0.00185761 0.00266323 2.21254e-17)
(0.00121315 0.000707412 -3.86179e-20)
(0.00107561 0.000688049 -3.61512e-18)
(-0.000286277 3.40636e-05 2.40184e-19)
(0.000537849 0.000425866 -2.78908e-18)
(0.00336823 0.0117112 3.95188e-18)
(0.00239137 -2.84856e-05 4.98502e-19)
(0.0128211 -0.0226904 -5.7752e-17)
(-0.0013017 -4.35364e-05 -1.0344e-18)
(-0.00221878 -0.000212257 3.41999e-22)
(3.0574e-05 0.000897342 4.45256e-19)
(0.00241679 -0.00905432 -2.58567e-18)
(0.00058613 0.00085016 -9.18658e-19)
(0.00197742 0.000975907 2.80776e-18)
(0.00131017 -0.000852942 7.77063e-19)
(0.00160692 0.000432601 -6.46551e-19)
(3.77923e-05 0.00105317 -5.91381e-18)
(-0.00279566 0.00249616 8.14312e-17)
(-0.00102283 0.000297713 -2.57199e-19)
(0.00161401 -0.000621918 4.29116e-20)
(0.00337763 -0.00422394 -5.77307e-18)
(-0.00234383 -0.000217 -1.42411e-18)
(0.00253504 -0.00826208 -2.13636e-19)
(0.000948482 -0.0126198 -2.5486e-17)
(-0.000178159 -0.000187708 5.10643e-19)
(0.00524186 0.00208429 6.93246e-19)
(0.00332486 0.0117639 1.78322e-17)
(0.00174186 0.00222407 -5.07004e-19)
(0.183769 -0.00310646 -7.21827e-18)
(0.000315114 0.000574664 8.53339e-19)
(0.00560171 -0.000698404 -3.5764e-17)
(0.00527001 -0.018137 -1.49734e-17)
(0.000418602 0.001489 8.07072e-20)
(0.00630088 -0.0271625 2.23577e-17)
(0.00274858 -0.00665616 2.95046e-18)
(-0.00582528 -0.0213434 -8.9834e-18)
(0.000175899 5.22219e-05 -3.659e-20)
(-0.00561496 -0.00202143 -3.04357e-18)
(0.000675499 0.00247087 9.10453e-18)
(-0.0053968 -0.00392891 -1.71348e-18)
(0.00277114 -0.00799901 -1.2345e-17)
(0.000296336 0.000817215 2.20519e-18)
(0.00133439 -0.000919734 3.16477e-19)
(0.000292399 0.00142367 8.41646e-18)
(0.00129782 -0.000688415 -2.14753e-20)
(0.000356684 0.00238004 2.17765e-18)
(0.000261802 0.00100776 3.54793e-18)
(0.000977442 0.0008903 -3.7408e-18)
(0.00354929 -0.00413636 -5.08393e-19)
(-0.0017503 -0.00209017 3.35096e-18)
(0.000544217 0.00183925 1.35917e-17)
(0.00128411 -0.000885068 9.93313e-19)
(0.000178676 0.0013719 6.56915e-18)
(0.00325 0.0103605 -1.6103e-17)
(-0.0408632 -0.000743473 -5.78114e-17)
(0.00110825 9.71786e-05 1.01676e-18)
(-0.0054548 -0.00368532 7.0209e-18)
(0.00318453 0.0122405 -7.82934e-18)
(0.000343346 0.00062362 3.1732e-19)
(0.00205014 0.00646426 -2.97958e-17)
(-0.00084023 0.00128116 -8.54975e-19)
(-0.00381485 -0.000243695 7.97017e-19)
(0.00958459 -0.000419261 -1.4699e-17)
(0.000560948 0.000496122 7.25443e-18)
(0.00258293 0.00540569 1.39335e-17)
(0.168646 -0.00584745 2.29382e-17)
(0.0029201 -0.00651102 -1.39127e-17)
(0.0199111 -0.0129006 1.3742e-17)
(0.000343628 -9.13283e-05 -4.99545e-19)
(0.00167946 0.00200499 -8.74611e-19)
(-0.000165643 0.00136825 -1.16049e-18)
(-0.000137983 0.000213615 2.8086e-18)
(-0.000372159 0.000260396 6.74718e-19)
(0.0195816 0.00556025 1.92056e-17)
(-0.00041615 0.00072442 1.45011e-17)
(0.000243864 0.000256881 -2.79167e-18)
(0.00100717 -0.00173576 2.2504e-18)
(0.00653237 -0.00363071 4.21928e-18)
(0.00209611 0.000966328 -1.64271e-19)
(-0.00475949 -0.00193442 -2.43708e-18)
(0.00148597 0.000463684 -1.66232e-18)
(0.00105136 -0.000554922 2.25157e-19)
(0.000373817 0.000368709 4.29503e-18)
(0.00108896 -0.000297643 1.45674e-19)
(0.00516772 0.00197913 -6.16682e-20)
(0.00120485 -0.00120401 -3.75524e-18)
(-6.34721e-07 6.08088e-06 -6.83238e-19)
(0.0187117 2.24031e-05 1.44333e-17)
(-0.00646124 -0.0247476 -3.36412e-17)
(-0.00086462 0.0002312 -3.28294e-18)
(0.00200695 0.00121161 -2.72239e-18)
(0.0109159 0.00423855 5.58128e-18)
(-0.000663503 0.000510833 2.15056e-18)
(0.000287847 0.000325007 -4.54108e-19)
(0.0020531 -1.4615e-05 -9.55291e-19)
(-0.00103053 -0.000267268 -1.7101e-18)
(-3.77941e-06 -6.4271e-05 3.62032e-19)
(0.00147927 -0.000173204 -1.4958e-18)
(0.00398325 -0.000940145 -4.68526e-19)
(-0.0536847 -0.000853787 2.65212e-18)
(0.000440833 0.00177786 -9.65661e-18)
(0.00123674 -6.28166e-05 -1.29747e-18)
(7.96963e-05 0.000846369 5.98656e-18)
(0.000582638 0.000472785 4.48898e-18)
(0.00111955 -0.000584718 -4.66131e-21)
(-0.0158049 0.00708388 6.25461e-17)
(-0.000655723 0.000702733 -2.19126e-18)
(0.012095 -0.0213011 5.71524e-18)
(0.000847589 0.00048489 -5.74823e-18)
(0.000208054 0.00101317 -2.12338e-18)
(0.018545 -0.000687824 1.03023e-17)
(0.000754804 4.4943e-06 9.11205e-19)
(0.0142111 -0.0226173 4.03419e-17)
(0.00375799 -0.00567753 5.51657e-18)
(0.0104786 0.00419102 9.88072e-18)
(0.000805772 0.0001948 -8.57652e-18)
(0.00272418 0.00558378 9.57704e-18)
(0.000449744 0.00108459 9.21569e-18)
(-0.0315924 0.00994616 7.67034e-17)
(0.0148541 -0.0193465 -6.60017e-17)
(0.00108692 -0.001139 2.56069e-18)
(0.0131682 0.000449625 3.21485e-17)
(-0.0110054 0.0056015 3.23759e-17)
(0.000439957 -0.00173879 1.0762e-18)
(0.00719491 -0.0270238 1.35808e-17)
(0.0202846 0.006196 1.29585e-17)
(0.0013281 0.00149673 -6.58672e-18)
(-6.21517e-05 0.00083489 -6.24212e-18)
(0.00120264 0.00133218 2.33479e-19)
(0.0217007 -0.00512092 3.40026e-17)
(-0.00405446 -0.00166171 -3.79331e-20)
(0.00125404 -0.000170634 7.68164e-19)
(0.0130337 -0.00274392 9.78742e-18)
(-0.00124435 -0.00059981 5.98824e-18)
(0.00146275 -0.000266887 1.6766e-19)
(0.00407714 0.00082552 1.10294e-19)
(-0.000423518 -0.00167931 -3.33747e-18)
(-0.00039173 1.20467e-05 1.71658e-18)
(0.11067 0.0080206 5.16668e-17)
(-0.0157282 0.0100754 -5.93974e-17)
(0.00206129 0.000524322 -4.78474e-18)
(-0.00153256 -0.00012836 1.00711e-18)
(-2.33481e-05 0.00250663 1.41315e-17)
(0.0011612 0.000889227 1.95568e-18)
(0.0134667 0.00099867 -2.97568e-17)
(-0.00119174 -0.00451514 7.78789e-17)
(-0.0664927 0.000698966 1.77403e-17)
(0.0146843 -0.0166267 6.49968e-18)
(-5.11232e-05 0.000976967 2.21206e-18)
(-0.000320201 -0.00163614 6.98712e-19)
(0.000273607 -0.000231541 2.74129e-20)
(0.000383217 0.00102187 -1.09218e-17)
(0.00839372 0.00816048 -1.08952e-18)
(-0.0264607 -0.010187 7.12851e-18)
(-0.00772495 0.00240986 -4.75218e-18)
(-0.018003 0.0107186 2.70293e-17)
(-0.00424813 -0.00358194 5.51419e-18)
(-0.00140744 -0.000250394 -4.31348e-19)
(0.0322389 0.0043334 3.52744e-17)
(0.00371222 0.0124448 -2.68705e-17)
(0.00485356 0.00646498 5.37381e-18)
(0.231895 -0.0019511 -4.13041e-19)
(-0.0721129 0.0371303 7.13152e-17)
(0.000434138 0.000529814 -2.19858e-19)
(0.00316367 0.0108566 3.96597e-17)
(0.00686123 -0.00146393 1.88281e-17)
(2.31647e-05 0.00263363 -3.4519e-18)
(-0.000355515 0.00480505 1.76704e-16)
(-0.000417797 0.00143946 -3.44754e-18)
(0.00378094 -0.00535949 -5.14362e-18)
(0.001627 0.00217868 1.16476e-17)
(-0.0177571 0.00677806 -3.73678e-17)
(0.0180175 -0.0186609 2.19688e-17)
(0.00107721 -0.000804983 4.20027e-18)
(-0.0656106 -0.00460447 6.54059e-17)
(0.00257072 -0.00371567 -4.87857e-18)
(0.00376969 0.0163165 2.52721e-17)
(0.000815643 0.00140176 -7.59667e-19)
(0.11386 0.00990126 -1.2573e-18)
(0.04164 0.000691363 -5.38073e-17)
(0.011559 -0.0179051 -7.12369e-17)
(0.0385751 -0.0144715 5.2197e-18)
(0.00185236 -0.00634527 -7.86696e-18)
(-0.000466155 0.000566998 2.2395e-18)
(-0.0014921 -0.000114791 2.25263e-19)
(0.00293478 -0.000919209 -1.78615e-18)
(0.00388739 0.00668838 6.22933e-18)
(0.00132915 -0.000873746 -9.67672e-20)
(0.000651907 -0.0002535 1.18965e-18)
(0.00405985 0.0125792 -3.65789e-17)
(0.000183861 0.00145437 8.02496e-18)
(0.00078812 -0.000578104 -2.46012e-19)
(0.00319975 0.0176425 -1.73528e-17)
(0.00243831 0.000694381 -9.56391e-18)
(-0.00064064 4.09388e-05 1.98174e-18)
(-0.0032899 0.000180912 -1.44288e-18)
(0.0340849 -0.0122666 2.81254e-17)
(0.000425535 -3.11079e-05 7.95237e-19)
(0.00803333 0.00794119 -3.82566e-21)
(0.0124743 0.0146579 -5.51969e-17)
(-2.52577e-05 0.00241581 6.65071e-19)
(0.019328 -0.018687 -6.87393e-18)
(-0.000931519 0.00110125 -1.93009e-18)
(-0.00118704 0.000498747 -7.26779e-19)
(0.0145204 -0.00537823 3.19255e-17)
(0.000140503 -0.000415402 1.47726e-20)
(0.00408033 -0.00117199 9.71935e-19)
(0.0003212 0.00261705 -6.03513e-18)
(0.0171928 0.0136306 -8.57454e-18)
(0.00124933 -0.0131779 1.23607e-17)
(0.00163542 0.00352217 1.28315e-17)
(0.00224954 -0.00982951 1.26504e-17)
(0.0141224 -0.0215745 2.95488e-18)
(0.001539 -0.000111438 -1.16243e-18)
(0.0178493 -0.0159851 -3.91986e-17)
(-0.00591281 -0.00390721 -3.46224e-19)
(0.000140724 -0.00151091 -3.45623e-18)
(0.00619188 0.0123667 3.7872e-18)
(-0.00142883 -0.000216346 -2.36808e-18)
(-0.00618553 -0.00367015 -4.48952e-18)
(-0.00251851 -0.00228929 -5.78988e-18)
(0.0042566 0.000729184 2.47896e-18)
(0.00147405 -0.000551299 2.18477e-19)
(-0.000944329 -5.8797e-05 2.13795e-18)
(0.000222073 -0.00460322 -3.9688e-18)
(-0.00703105 -0.00766453 -2.13886e-18)
(0.000224026 0.000991953 2.13195e-18)
(0.000628087 0.000537985 5.32001e-18)
(0.000513543 -0.000241814 7.96533e-20)
(0.00377731 -0.000764996 -5.34684e-18)
(0.00208887 -6.59197e-05 9.36856e-19)
(-0.000319005 0.00104357 -1.68178e-19)
(-0.00146665 -5.85063e-05 -7.4882e-19)
(0.00212381 0.00122776 -5.06447e-19)
(-0.00517829 -0.00367336 -3.17396e-18)
(-0.000180381 2.4517e-05 2.94593e-18)
(0.000494549 -7.46592e-05 1.34703e-18)
(0.00112479 5.76982e-05 -9.571e-19)
(0.00236933 0.00154351 -1.99029e-18)
(0.0176705 0.0143871 6.2446e-19)
(0.0150532 -0.016183 -2.85095e-17)
(-0.0673063 -0.00537835 -1.99708e-17)
(0.00498934 0.00679003 1.01921e-18)
(0.00518653 0.00608102 1.57465e-19)
(0.00199283 0.00274045 1.24018e-17)
(0.00667718 -0.0187196 -2.8681e-18)
(0.177106 -0.00666797 2.82888e-17)
(-2.68144e-05 -0.00439464 -1.18056e-17)
(-0.000617807 0.000549032 4.27504e-18)
(-0.00097308 -5.74645e-05 3.32832e-18)
(0.00281409 -0.000798981 -3.79595e-18)
(0.00110513 -0.000538234 -7.62091e-19)
(0.0154791 -0.0220647 2.60738e-17)
(-0.00353434 -0.00524362 -4.56437e-18)
(0.000196147 0.000216532 6.7722e-19)
(-0.00350442 0.000149671 2.83568e-18)
(0.00385357 0.00693247 1.00838e-17)
(-0.00483703 -0.00383972 5.067e-19)
(0.0131055 0.0140859 1.31369e-17)
(0.00533242 0.00638547 4.04224e-18)
(0.0221856 0.00282014 -4.18142e-17)
(0.0029835 -0.00368282 2.10473e-17)
(-0.00761256 -0.0074514 4.55311e-18)
(0.000834719 -0.000504367 4.79356e-19)
(-0.00336 -0.00749935 3.49587e-18)
(-0.00419516 -0.00182853 -6.24066e-18)
(0.00711565 -0.0015248 -1.97347e-17)
(-0.000224581 0.000499664 -7.77026e-19)
(0.00270866 -0.0087579 6.7688e-18)
(-0.0264515 0.0114669 -1.39353e-18)
(-4.22606e-05 -0.000564748 -7.78418e-20)
(-0.000838188 -0.00182084 2.64811e-19)
(0.15943 -0.00894996 -3.98398e-17)
(0.00573038 -0.0182081 1.99093e-17)
(0.000363411 -0.000821922 -7.94076e-19)
(-0.000538193 0.00103783 3.47258e-18)
(0.00242811 0.00145028 1.53847e-18)
(0.244451 -0.00249945 1.76719e-18)
(0.00989571 -0.010766 -1.62183e-17)
(0.0220894 -0.0057139 2.46072e-17)
(-6.61583e-05 4.2237e-05 -6.1852e-19)
(-0.00132329 -9.99411e-05 -9.32598e-19)
(0.00148797 -0.000111784 9.34755e-19)
(0.00027835 -0.0015001 1.08316e-18)
(0.0130306 -0.0216352 3.54659e-17)
(0.000592925 0.00028856 -6.13309e-18)
(0.00128967 0.000997621 -4.79905e-18)
(1.0152e-05 -0.000231976 1.69675e-18)
(-0.000746978 0.0011008 8.58147e-18)
(-0.00083519 -0.0140253 -1.5565e-17)
(0.00217146 0.00248093 1.29551e-19)
(0.0144973 0.00469825 -1.03384e-17)
(0.0601793 -0.0165867 -2.07631e-17)
(3.43832e-05 0.00220401 -2.52859e-18)
(0.0173596 -0.0278752 -3.53175e-17)
(0.00279928 -5.19981e-05 1.83526e-18)
(-0.00167472 -0.00724519 7.34418e-18)
(0.000546392 0.000899208 1.35445e-19)
(-0.0288399 0.00340374 -1.28988e-17)
(0.0188654 -0.00212996 1.04017e-17)
(0.0391809 0.00137353 1.17624e-16)
(-0.0643075 0.0484594 -2.62594e-17)
(-0.00273341 -0.000254527 -3.27277e-19)
(-0.00376485 -0.00535259 4.36726e-18)
(0.00116279 9.43585e-05 1.89372e-18)
(0.00222788 0.00210883 4.54774e-18)
(0.00259599 -0.00950636 3.03492e-18)
(8.95842e-05 0.000108297 3.92289e-19)
(0.00742469 -0.000183078 6.63775e-18)
(0.000331247 -6.59586e-05 -1.53592e-19)
(-0.00146329 -4.12634e-05 -5.5156e-19)
(0.000522615 0.000584969 6.38535e-19)
(0.0150382 0.00509916 1.48251e-18)
(0.000612149 3.31964e-05 -3.43212e-18)
(0.00168397 -0.00352883 -4.0942e-18)
(-0.000164204 0.000981313 -5.23225e-18)
(0.00187378 0.00232778 -7.53593e-19)
(-0.0685489 0.00755867 6.93068e-17)
(0.00206238 -4.78212e-05 -2.70146e-18)
(0.00207562 0.000590843 7.76925e-18)
(-0.000424614 5.85373e-05 -4.2234e-19)
(-0.00184375 -0.00200791 -1.17472e-18)
(0.00971278 0.000334486 -6.40503e-18)
(0.0114058 -0.018354 6.35071e-17)
(0.00563565 0.0059728 -7.01166e-18)
(0.0166663 -0.0238373 -2.75841e-18)
(-0.000113424 -0.0139083 -1.20525e-17)
(0.00365222 -0.00514663 -7.63347e-19)
(-0.000121461 0.00104181 3.02291e-18)
(-0.00185169 -7.71982e-05 -1.99575e-18)
(0.00114486 -0.0021684 -4.971e-18)
(-0.000411846 2.7508e-05 -2.80973e-18)
(0.0200728 -0.0224801 3.46525e-17)
(1.45265e-06 0.000517888 -7.7628e-19)
(0.00150937 -0.000800449 3.20917e-19)
(0.00279338 -0.0342371 7.50537e-18)
(0.000669985 -0.000211098 -7.88045e-19)
(0.00253274 0.00209578 1.21486e-19)
(0.00180791 0.00206314 -5.25877e-18)
(0.00508966 -0.0345524 -2.62202e-17)
(-0.00287956 -0.00232871 -5.54819e-18)
(0.00153566 0.00341321 5.89144e-18)
(0.0101962 0.00382021 8.50309e-18)
(0.00717863 3.82392e-06 3.00053e-18)
(0.00231417 -0.00124945 -7.09851e-18)
(-0.000179747 0.000642549 4.4939e-18)
(0.00781202 -0.0254629 -6.83952e-17)
(0.0132034 -0.0031006 -2.17542e-17)
(-0.00176638 -0.00345518 1.99585e-18)
(0.00971326 -3.53362e-05 -5.51821e-18)
(-0.00181407 0.00026404 -4.30577e-19)
(-0.000511376 -0.000194093 1.9331e-18)
(-0.00122441 0.000245349 -2.01732e-19)
(0.00276261 0.00219221 2.5447e-18)
(0.0325444 0.00132523 4.01693e-17)
(-0.00589016 -0.00630614 -3.33663e-18)
(-0.000401179 8.37422e-05 -9.94059e-19)
(0.000676623 0.00218287 5.4304e-18)
(-2.93631e-08 6.84089e-06 -4.49833e-19)
(0.000631023 7.19239e-05 4.99396e-18)
(0.00374064 0.0120464 8.499e-18)
(-0.000240385 0.000599931 -9.72634e-19)
(0.00094151 -0.000763576 6.80715e-19)
(-0.0115354 0.00642875 -7.3438e-17)
(-0.00039362 -0.000222634 3.00513e-19)
(0.00569171 -0.0220186 -8.00929e-18)
(0.0201763 -0.0223323 3.73013e-17)
(0.00215664 0.00651963 2.96426e-17)
(0.246001 0.00235919 -2.03334e-17)
(-0.0673209 -0.00685187 -2.775e-17)
(0.00470438 0.00163737 6.28352e-19)
(0.00569495 0.0124421 -8.33214e-19)
(0.00183079 0.000701625 2.70832e-19)
(-0.00470376 -0.022046 1.51811e-17)
(-2.85946e-07 2.27387e-05 2.12267e-18)
(0.0002962 0.00141361 2.18572e-18)
(0.0170613 -0.0438342 2.54443e-18)
(-7.14801e-06 0.000571875 2.03107e-18)
(0.00250688 0.00226946 -4.9739e-19)
(-0.000135735 0.0187855 2.1368e-17)
(-0.000664172 -3.19221e-05 1.44242e-18)
(0.00356999 -8.48449e-06 -8.8371e-19)
(0.00237153 0.00885542 -1.86548e-17)
(0.00402021 0.0173569 3.07307e-18)
(0.00169301 -0.000869342 -1.74044e-18)
(-0.00170255 -0.00062657 2.0671e-18)
(-0.00692566 0.00420177 4.1766e-17)
(0.0191802 -0.00141638 -1.26679e-17)
(-0.0022441 -0.000273524 5.67407e-19)
(0.00290008 0.0102569 -4.01961e-18)
(-0.0395555 -0.00713555 -8.23198e-18)
(0.000523913 -0.00042421 7.49494e-21)
(-0.000461566 5.40839e-05 8.40541e-19)
(0.000306091 -0.00057795 -2.53712e-18)
(0.00187551 9.87729e-05 -3.20469e-18)
(-0.000596516 -4.94355e-05 8.13026e-19)
(-0.000255153 -0.000544085 1.34705e-18)
(0.00546426 -0.0264008 5.96884e-17)
(-0.00172873 -0.0254071 -5.46135e-18)
(0.000344831 0.0014823 -1.02317e-18)
(0.0545191 -0.019738 -2.85612e-17)
(-0.00023775 -6.14066e-05 -1.52537e-18)
(0.000612097 0.000290587 2.05506e-18)
(0.0286308 0.00539548 3.06949e-17)
(-0.00304079 -0.0028045 4.13416e-18)
(0.00707541 -0.0233107 3.57761e-17)
(0.010193 -0.0110881 -2.82278e-18)
(0.00166668 0.00208907 2.86216e-18)
(-0.00174499 -0.00078046 -2.84588e-18)
(-0.00217929 -0.000611591 2.31291e-18)
(0.0135954 0.0106891 -4.05556e-17)
(-0.00473887 -0.0037665 5.80281e-19)
(0.00466327 0.00188447 -6.79299e-19)
(0.00148518 0.00078337 2.08085e-18)
(-0.0533507 0.00533076 -2.31414e-17)
(-7.22209e-05 0.00228207 -7.06685e-18)
(0.0443651 0.00169355 -1.47545e-17)
(0.00169736 0.00252357 -1.93919e-18)
(-0.000585292 0.00011129 -2.24768e-19)
(0.0012634 -6.60306e-05 1.31426e-18)
(0.0218344 0.0135027 5.63165e-17)
(-0.000381409 0.000182558 1.94424e-19)
(0.00101995 0.0045676 3.10478e-17)
(0.00104265 0.000164021 -2.24579e-18)
(-0.00194941 -0.00221623 -2.53041e-18)
(-0.00237882 -0.00245703 -9.42427e-17)
(0.00287359 -0.00607744 -2.19067e-18)
(0.00096052 0.000795807 7.3402e-18)
(-0.000456226 -4.56231e-05 -2.21364e-19)
(-0.0121712 0.00275235 6.61202e-17)
(0.00170284 0.000150138 -1.389e-18)
(0.00301333 -0.00615505 -8.53323e-19)
(0.0031013 -0.000463819 -3.31411e-19)
(0.00115405 -0.000517613 -5.11176e-19)
(0.0490164 -0.0226539 6.41382e-18)
(0.23897 0.00570416 3.76455e-18)
(0.00140631 -9.72088e-05 -1.97312e-19)
(0.000454533 0.00165493 8.31577e-18)
(-0.00551776 -0.00667127 -6.33138e-18)
(0.000859185 -8.39641e-05 -1.08573e-18)
(0.0017312 0.000633193 2.04807e-18)
(0.000185243 0.000995781 -2.92431e-18)
(-0.013418 0.00358422 4.9695e-17)
(-0.000112277 0.00106525 3.05935e-18)
(0.000475324 -3.82059e-05 -1.07391e-18)
(0.00470142 0.00337926 -1.25105e-18)
(0.00300942 -0.0228687 1.60258e-17)
(0.0131338 -0.00585946 5.11932e-17)
(-0.000552668 3.05242e-05 -2.29482e-18)
(0.00659876 -0.0018135 -6.81978e-19)
(-0.0274917 -0.00168354 -8.56172e-20)
(-0.000802382 -0.0148172 1.42652e-17)
(0.00024397 0.000872402 -2.28993e-18)
(-0.000214789 0.000668434 7.68839e-19)
(0.0150337 -0.0189846 -2.91492e-17)
(-0.00200045 -0.00335815 1.15051e-17)
(0.000177519 0.000133004 7.93292e-19)
(0.00206113 0.00532908 1.43976e-17)
(-0.000269234 -0.00162665 6.44899e-20)
(-0.000918861 -0.00052865 -1.16905e-18)
(0.000391793 0.00272088 -1.02037e-18)
(-0.000557322 -0.000308 -1.96487e-18)
(0.00619043 0.00547295 2.43122e-18)
(-0.000676701 0.000505675 -2.01339e-18)
(-0.00044804 0.000209263 1.02746e-18)
(-0.0611715 0.00288892 -4.78856e-17)
(-0.00103772 -0.000228991 1.43231e-19)
(-0.00475704 -0.00331978 -2.21252e-18)
(-0.00062913 0.000519974 -3.3249e-18)
(0.00101447 0.000675674 -3.39755e-18)
(0.00735623 -0.000632318 -1.13084e-17)
(0.00170758 -7.05711e-05 -1.44456e-19)
(-0.00107357 -0.00187971 -1.19258e-18)
(0.0364407 0.00252336 -1.75228e-16)
(0.00180193 0.000664255 -7.3511e-19)
(0.13796 -0.00533163 -8.2719e-17)
(4.80006e-05 -0.00417405 -1.64008e-18)
(-0.000126668 1.1372e-05 2.05921e-18)
(0.000218145 9.96867e-06 -2.96279e-18)
(0.0201787 0.00109532 -2.54475e-17)
(-0.00133506 0.000509951 -3.52282e-18)
(0.000349034 0.000800836 -4.78518e-18)
(0.00120789 9.98149e-05 1.73916e-18)
(-0.0014821 -0.00365996 -2.38057e-18)
(0.00344787 0.00394191 -6.81287e-18)
(0.165786 -0.00942223 -1.22505e-17)
(0.000847884 0.000168641 -2.03068e-18)
(0.00588621 0.0055681 1.68937e-18)
(0.00326378 0.0157335 -3.53228e-18)
(-0.00145439 -0.0150433 2.9697e-18)
(-0.00058345 4.94302e-05 -8.55532e-20)
(0.000503914 0.000900943 3.5518e-18)
(-0.00389361 -0.00267672 -1.3664e-18)
(-0.000235955 0.000249066 9.74933e-19)
(0.00240958 6.50814e-06 -7.14011e-18)
(-0.0117616 0.0436715 2.39457e-17)
(-0.0129241 0.00487851 -2.23523e-17)
(-3.31806e-05 0.000569162 -7.80488e-19)
(0.00365868 -0.00587799 -1.30578e-18)
(-0.00281479 -0.0107885 4.69327e-18)
(-0.0024062 -0.0104481 6.52888e-18)
(-0.00035458 0.00133794 -6.14309e-18)
(-0.000464157 -6.56261e-05 -3.94725e-19)
(0.0160274 -0.0208866 9.42436e-18)
(0.0140011 0.0101729 1.96708e-17)
(0.00353141 0.0161735 -2.1282e-17)
(-0.000557972 -0.00071781 3.06472e-18)
(-0.00373725 -0.00286513 4.73758e-18)
(-0.00305082 -0.0026526 -3.20617e-18)
(-0.00110637 -0.000225912 2.77158e-19)
(-0.0212017 0.00483726 -6.38485e-17)
(0.00768919 -0.00197616 -1.50381e-17)
(-0.00133324 -0.00363853 -2.09666e-18)
(0.00132659 -0.000868486 -2.80226e-18)
(-2.70881e-07 -3.24776e-05 -4.85739e-20)
(-0.000860298 0.00122458 2.31443e-20)
(0.0162457 -0.0215231 -1.96907e-17)
(0.00259485 -0.00636254 8.83162e-18)
(-0.000714212 0.000828913 -4.16757e-18)
(-0.0160253 0.00250764 -8.86372e-17)
(0.00462695 0.0166196 6.80584e-19)
(0.0111205 0.0158035 2.93125e-18)
(0.011261 0.00382053 -2.67216e-17)
(0.00170776 0.000656156 -2.89228e-19)
(0.00105266 -0.00114663 1.14801e-18)
(-0.00860769 -0.0249972 -9.03479e-18)
(0.0121939 -0.00338104 -2.99319e-18)
(-0.0240844 0.0143526 -5.61166e-17)
(-0.0426299 -0.0139277 -1.88039e-17)
(0.00143226 0.00339326 7.23962e-18)
(0.00100229 0.00465948 -3.93123e-17)
(-0.000375334 0.00018356 1.87001e-18)
(0.00183924 -0.0035506 7.34522e-18)
(-1.00775e-05 0.00163534 1.74287e-17)
(-0.000746046 0.000210419 -2.80529e-18)
(-0.0647513 0.0016731 4.25413e-17)
(-0.00165707 -6.42016e-05 1.2448e-18)
(0.00273628 -3.69665e-05 5.25216e-19)
(0.00353164 -0.0190935 3.95178e-18)
(0.000493821 0.000229648 -1.81905e-18)
(0.0207014 -0.0249181 2.67195e-17)
(-6.4104e-05 -0.00397719 4.41303e-18)
(0.0114007 -0.0208628 3.98763e-18)
(0.00549346 0.00122708 -1.12167e-19)
(4.19497e-05 0.000182317 1.00761e-19)
(-0.00207146 -0.00511243 4.17163e-18)
(0.00331722 -0.0045535 -1.51755e-17)
(-0.0101419 -0.016976 5.62543e-18)
(0.0111575 0.00339695 5.01851e-18)
(0.00908428 0.0100859 3.20225e-18)
(-0.00183647 4.02611e-05 2.03926e-18)
(-0.00692691 -0.0217976 -6.94649e-18)
(0.00168241 -0.00129404 -3.60651e-18)
(0.000907959 -0.00050383 2.51722e-19)
(-0.000910085 0.000295563 5.42358e-19)
(0.000764218 -0.00216566 6.1131e-18)
(0.000298599 0.00112956 8.8899e-19)
(0.00155397 0.00350629 -8.71295e-18)
(0.0131379 -0.00628909 -4.3976e-17)
(0.0031263 0.00767993 -2.44154e-17)
(-0.000926603 0.000818671 4.74499e-18)
(0.00174047 0.000728629 1.92905e-18)
(0.000640463 8.73976e-05 -1.42422e-18)
(-0.000108265 0.000671882 3.08832e-18)
(0.00542272 0.0121678 -4.73013e-18)
(0.00124827 2.6694e-05 1.25257e-18)
(0.00306204 -0.000177315 1.16511e-19)
(0.0133797 -0.022851 4.66715e-17)
(-0.000258456 -0.000286716 1.31383e-19)
(0.0123404 -0.00286987 1.17726e-17)
(-0.00786499 -0.0319318 7.46627e-18)
(-0.000210917 0.00105067 -3.34588e-18)
(-0.0166495 0.00614785 3.35231e-17)
(0.00473892 -0.012749 1.6856e-17)
(0.0011043 0.000266162 -1.12377e-18)
(0.021112 -0.0175281 -1.44139e-17)
(-0.0021496 -0.00250228 2.21704e-18)
(-0.000707983 3.3274e-05 -1.73593e-19)
(9.04629e-05 0.00102993 3.21603e-18)
(0.000774195 0.000980959 3.43844e-18)
(-6.96779e-07 1.60771e-05 -2.45277e-18)
(0.00269828 -0.0032302 -5.64221e-18)
(-0.000760747 0.00130057 2.14393e-18)
(0.00540953 0.0164152 5.29669e-18)
(0.00160033 0.00141022 7.74612e-18)
(0.000887661 0.000905121 -1.30048e-18)
(0.00173902 -0.00108229 1.50705e-18)
(0.00748551 -0.000837737 1.28712e-17)
(0.00407 -0.00941192 3.30824e-18)
(0.000437769 0.000996848 -4.35282e-19)
(-0.0018869 -0.00663897 -4.17828e-18)
(0.00108792 -0.00108663 1.24982e-18)
(0.000695398 -0.012392 4.38493e-18)
(-3.94683e-05 0.000965621 -8.39806e-19)
(0.00526484 0.00149628 -1.85301e-18)
(0.00113659 -0.000815401 9.30719e-20)
(0.000137879 0.00292211 1.46147e-17)
(-0.00198501 -0.000610162 -7.80694e-19)
(-0.000963305 0.00017159 7.70188e-19)
(0.0781496 -0.0236539 8.26809e-18)
(0.000425816 -0.000563542 -4.67298e-19)
(0.00531417 0.0117641 3.83357e-18)
(0.000151301 0.000967921 -2.90362e-18)
(-0.00133805 -0.00436156 -7.63168e-19)
(-4.5528e-05 -0.000216223 -2.29623e-20)
(0.00310339 -0.0108665 -1.81553e-17)
(-0.000614626 0.000523519 -3.11516e-19)
(0.00524228 -0.012889 2.58087e-17)
(0.000760047 -0.000870782 6.71671e-20)
(0.0208125 -0.0167263 4.65757e-17)
(-4.5857e-05 9.59541e-05 -5.60899e-18)
(0.165635 -0.00731273 -8.27213e-18)
(-0.00122498 -0.000560187 -1.00065e-18)
(0.00173171 0.00230331 -8.66112e-19)
(0.0013729 8.45426e-05 2.08912e-18)
(-0.000871499 0.00115735 2.51795e-18)
(-0.00151909 0.000320491 3.00709e-18)
(0.00268722 -0.00307475 5.15876e-18)
(0.000184411 0.00112843 1.76929e-17)
(0.00317619 0.0116153 -6.85301e-19)
(-0.0221169 -0.00506595 5.36169e-17)
(0.0227428 -0.0265247 -6.94152e-18)
(0.00059528 -0.00556694 1.55497e-18)
(0.00526597 0.00562409 4.09448e-20)
(0.000256669 -0.000309219 -4.08198e-19)
(0.0071642 0.00499108 -1.3149e-20)
(0.0048981 -0.018753 2.59948e-18)
(-4.8815e-05 0.000274521 -1.21904e-19)
(0.0021949 0.00512508 -2.14025e-17)
(0.00894249 0.0103674 -6.94917e-19)
(-0.013205 0.0120913 4.95014e-17)
(-0.00929505 -0.03184 -4.00131e-18)
(0.0486131 0.0233505 3.26129e-17)
(0.00371113 -0.00476492 1.37308e-17)
(0.00124592 0.000480434 9.50187e-19)
(0.000141587 0.000142677 -1.75856e-18)
(-0.00198884 -0.00710889 -5.56149e-18)
(0.00276485 -0.00349994 -1.62351e-17)
(-0.0082493 -0.0153016 -1.43146e-18)
(-0.00334258 -0.000247317 6.65078e-20)
(0.00195629 -0.00158417 3.84639e-18)
(0.0149902 -0.0155038 1.65705e-17)
(-0.000351881 1.0512e-05 3.59101e-19)
(0.000194234 0.000700508 4.49428e-18)
(-0.00204451 -0.00700499 -1.69357e-18)
(0.0557305 -0.00602881 3.81668e-17)
(0.00155837 0.00215254 6.55744e-19)
(0.00640246 -0.00178914 2.53501e-19)
(-0.0101459 -0.0253942 1.22522e-17)
(-0.000800269 0.000148139 4.56709e-19)
(0.175412 -0.00193023 1.27115e-17)
(-0.00158619 -0.000264498 -9.21011e-19)
(-0.00101873 -0.000294471 4.80855e-19)
(0.00198078 0.000375747 -6.19001e-19)
(-0.000344144 -0.00165722 -9.49836e-19)
(-0.0260562 0.00396105 -7.41444e-17)
(0.00514429 -0.0209214 -2.44777e-18)
(0.0334311 -0.00131285 3.61399e-17)
(0.000711699 5.13787e-05 -2.20542e-18)
(0.0300419 0.0202709 3.33341e-17)
(-0.0188586 0.0028405 -1.35688e-17)
(0.0185543 -0.0217925 -3.9534e-17)
(-0.00751989 -0.0149788 1.17989e-18)
(0.00645828 -0.0193873 1.12516e-17)
(0.0170376 -0.0162288 3.61665e-17)
(0.00837535 0.00422024 3.72226e-18)
(-0.000644193 0.000990853 -1.38894e-17)
(0.00161028 0.000209235 2.57009e-18)
(0.00220196 0.00550751 1.89063e-17)
(-0.0393179 0.00387333 -1.72283e-17)
(0.000136314 -0.000350498 -1.98276e-19)
(0.00466583 0.00357372 -4.60782e-18)
(0.110823 -0.00574536 -1.98303e-17)
(-0.0009225 0.00047865 -1.20847e-18)
(-0.000763289 4.66428e-05 5.14744e-19)
(0.000846529 -0.00047817 -2.43472e-20)
(0.00182443 0.00133231 2.53677e-18)
(-0.00135767 0.000332691 -4.05665e-19)
(-0.00311055 -0.00246176 -8.76095e-18)
(0.0195604 0.00171938 4.87139e-18)
(0.0387945 -0.0128608 -2.28086e-17)
(-0.00277947 -0.00237199 2.48504e-18)
(-0.00125625 0.000501598 2.26318e-18)
(-0.0351967 0.00893238 2.78985e-18)
(0.107249 0.0207749 -3.65825e-17)
(0.000395027 -0.000270018 -1.84529e-19)
(0.000275366 0.000886202 1.0212e-17)
(0.000100693 6.24812e-05 2.82034e-19)
(0.00175674 0.000130067 2.33361e-18)
(0.0288337 0.00640768 1.43199e-17)
(0.00458307 -0.0216192 -7.22744e-18)
(0.0117127 0.014351 -2.43975e-18)
(0.00183166 0.00130735 -2.69556e-18)
(-0.00133932 2.36245e-05 -5.34883e-19)
(-5.62423e-05 -0.00163597 -1.50677e-19)
(8.15206e-05 0.00274629 1.31149e-18)
(0.000186583 0.00100794 1.57728e-18)
(0.00202524 -0.0114877 -4.89188e-18)
(0.000680578 0.00204744 -6.34302e-18)
(0.052497 -0.0128731 -6.69265e-17)
(0.000818619 0.000674848 1.42088e-19)
(-0.00149795 0.000310282 2.25807e-18)
(0.00952478 0.00224517 1.46933e-17)
(0.00143764 -0.000316586 -2.61415e-20)
(-0.00506115 -0.0141764 1.72442e-18)
(0.00654468 0.00957424 -3.96664e-18)
(-0.00191536 -0.00485397 -8.36847e-19)
(-0.0154978 0.00122368 8.6262e-17)
(0.0181859 0.00336134 -3.54775e-17)
(0.00101616 0.000546161 -3.4221e-19)
(0.00245391 -7.45293e-06 1.0911e-18)
(0.0502133 -0.0246013 -2.19389e-17)
(-0.0534471 0.0048573 2.86169e-17)
(0.00711146 0.00409624 -3.29283e-19)
(-0.00240813 -0.00244201 -4.84747e-18)
(0.00944388 -0.023429 2.65431e-17)
(0.00501778 0.0128256 -1.43602e-17)
(0.0010176 0.00440671 -5.98313e-18)
(-0.000685955 0.000941393 -4.08012e-18)
(-0.000548405 5.69135e-05 -2.27951e-19)
(0.00205285 2.04615e-05 7.36757e-19)
(0.0139994 0.0144134 4.86091e-17)
(0.000708477 -0.00537492 -1.34927e-18)
(0.0047604 0.0111731 -2.29944e-18)
(-0.000398837 3.72219e-05 1.52236e-18)
(-0.0663884 0.00450774 -7.68708e-17)
(0.0321344 -0.000463997 -3.83354e-18)
(0.000738749 0.000921674 3.85069e-19)
(2.1075e-05 0.000787661 1.29614e-18)
(0.00330757 0.011249 -1.71589e-17)
(0.00230098 0.000730611 1.22183e-17)
(-0.000103053 -0.00022008 -2.35216e-19)
(0.00341406 0.00140535 8.61149e-20)
(-0.0284204 0.0103147 4.33793e-17)
(0.00321469 0.0168853 2.93351e-17)
(0.0721044 -0.0262249 3.84774e-17)
(-0.00447822 -0.00315253 -1.65197e-18)
(0.00659772 -0.0162214 4.47354e-17)
(0.00827415 0.00393051 -7.39432e-18)
(-0.00010432 -0.000186254 -1.00838e-18)
(0.000791428 -1.81148e-05 5.27164e-20)
(0.000972693 0.000490782 3.98563e-18)
(0.0145959 0.0138046 -3.8191e-17)
(-0.000209933 0.000155367 -1.98825e-18)
(0.000510834 0.000879877 -8.32686e-19)
(0.00645565 -0.0164802 -3.71233e-17)
(-0.000239994 0.00127631 -1.00493e-17)
(0.0142846 -0.00480349 4.21315e-18)
(0.000887763 8.31258e-05 4.2979e-19)
(0.00229425 0.000956764 3.21828e-18)
(0.000156527 -5.79968e-05 -4.81145e-20)
(-0.000989371 0.000761732 5.81333e-19)
(0.014264 -0.0192029 8.24997e-17)
(0.000537017 0.000179665 2.32608e-18)
(0.00107747 6.33707e-05 -1.24432e-18)
(0.00594365 -0.0111067 5.32505e-18)
(0.0075914 0.00813867 1.97805e-18)
(0.00585747 0.015275 -5.94762e-19)
(0.00135976 0.000249193 1.31614e-19)
(0.0163623 -0.009614 6.35206e-18)
(0.0982464 0.0299722 -1.89906e-17)
(0.143087 -0.00687884 1.33169e-17)
(0.00150096 0.00221178 1.37918e-18)
(-0.0199527 0.00358581 9.42406e-17)
(-0.00251408 0.00346239 -1.94647e-17)
(-0.00102647 0.00048179 -2.30291e-18)
(-0.00076098 -0.000137983 -6.99266e-19)
(0.00124967 0.00147044 1.19933e-18)