/*--------------------------------*- C++ -*----------------------------------*\
| =========                 |                                                 |
| \\      /  F ield         | OpenFOAM: The Open Source CFD Toolbox           |
|  \\    /   O peration     | Version:  v2012                                 |
|   \\  /    A nd           | Website:  www.openfoam.com                      |
|    \\/     M anipulation  |                                                 |
\*---------------------------------------------------------------------------*/
FoamFile
{
    version     2.0;
    format      ascii;
    class       volScalarField;
    location    "900";
    object      omega_0;
}
// * * * * * * * * * * * * * * * * * * * * * * * * * * * * * * * * * * * * * //

dimensions      [0 0 -1 0 0 0 0];


internalField   nonuniform List<scalar> 
10042
(
0.0219168
0.0220474
0.0218899
0.0232174
12.1387
0.0220683
5.47468
0.323002
0.0217553
0.0220078
5.4732
0.023159
0.0215366
0.021499
0.0234702
0.0220298
0.0220214
0.0222586
0.021919
0.134122
0.021903
0.16289
0.0215965
0.0216231
0.0220545
0.0270167
0.0221315
0.0226344
0.0217844
0.0223243
0.0220192
5.78229
0.0220188
0.0222085
0.0252193
0.0216352
0.0264873
0.0298316
0.0216371
0.0288915
0.145977
0.0230967
5.43321
0.0219965
12.1303
0.0493557
0.0223029
0.0762785
0.0259252
0.0408495
0.022167
0.022362
0.0231502
0.0228779
0.0265038
0.0220611
0.0217844
0.0222743
0.0222001
0.0229712
0.0220433
0.0220019
0.0253791
0.0218685
0.0222433
0.0222093
0.0220447
0.0735333
6.5128
0.0218821
0.0228451
0.158585
0.0220006
0.0319949
0.0220222
0.0216203
12.3262
0.0219283
0.0298016
5.86936
0.0254116
10.8562
0.0219783
0.0227508
0.0220512
0.0222139
0.021897
0.14777
0.0219495
0.0218987
0.0221223
10.3646
0.0227011
0.0222837
0.0222841
0.0218555
0.021936
0.0218519
0.0284315
0.0217848
0.0222908
0.0989433
0.367335
0.0222024
0.0225375
0.0495992
0.0219189
0.02193
0.0219113
0.0214655
0.0217157
0.0218334
0.0251354
5.76767
0.0222331
0.0218482
0.0219452
0.0219244
0.0218533
8.26653
0.0219435
0.259962
0.0220222
0.021984
0.0972389
0.0219831
0.292501
0.0265859
0.0477742
0.0218911
0.0307626
0.0220128
5.16266
0.155202
0.0217851
0.0546797
5.59744
0.0221306
0.0794274
0.173064
0.0226457
0.0219425
0.0224361
0.134119
0.021973
0.0218332
0.0538688
0.0215654
0.021864
0.0248903
0.0217776
0.0222555
5.23296
6.92311
0.0221855
0.0215316
0.0225979
0.021994
0.0559577
11.8554
6.24874
0.105966
0.0219867
0.0217786
0.0220352
0.0219956
0.0589787
28.7346
6.15483
8.20855
0.0225292
0.0218447
7.20737
0.172357
0.0376563
4.67718
7.7262
0.0220103
0.085188
0.0304018
0.0227379
6.38792
0.0220992
0.026541
0.0229877
9.83798
0.189865
0.0220317
5.19978
0.0234305
3.08549
0.0224319
4.99332
2.94215
0.0821381
0.866201
0.0245344
0.0219295
0.0215362
0.0231664
0.036668
0.0220646
0.0218261
0.179257
0.0220846
0.0216835
4.72363
0.0221564
0.0222604
0.0222431
0.663715
0.0218915
0.054732
0.31406
0.0225693
0.198009
0.0219721
0.0219879
0.0593959
0.0217735
0.0252017
0.0227176
0.379293
0.0306028
0.0252253
0.0276127
0.261946
0.0218406
0.134201
0.0230493
0.0217548
0.135895
0.0218529
0.0230259
0.021918
0.0250401
0.0217098
0.0214856
0.0229439
0.0252169
0.0219936
0.0220279
0.0219945
0.0251993
0.0218489
0.0220277
0.0216258
0.0225919
0.0226829
0.0222689
0.0215377
0.0218746
0.0240508
0.518389
0.106177
6.39767
0.0382891
0.0369315
0.0236499
0.0550508
4.61306
0.0227754
0.021922
0.0215044
0.0231115
0.0217094
0.194551
0.0230319
0.0218931
0.0222507
0.0384255
0.0227286
0.296904
0.0375488
0.176349
0.0234991
0.0252019
0.0217135
0.0242786
0.0219881
0.0315353
0.0219188
0.0270602
5.60456
0.0216851
0.021838
4.61386
0.0507173
0.0220034
0.0220422
0.0237958
4.56904
0.0485545
0.139219
0.022182
0.0215323
0.0218412
0.0217667
0.260816
0.0218908
0.0220372
0.0218431
0.0219731
0.0304666
0.0236614
0.0728001
10.1071
0.0227725
2.00283
0.0218518
0.0241204
0.022123
7.55093
0.096809
1.03855
10.1666
0.0216056
0.0230593
0.0218869
0.0238098
0.0276639
0.0222418
0.0316796
0.0217096
0.0215029
0.0220149
0.0797751
0.022284
0.0231876
0.0219778
0.0235112
5.27257
0.0218521
0.0221759
0.0219878
0.0218464
0.0402257
0.0820755
0.0368068
0.470119
0.0307663
0.0258271
0.021993
0.0214814
0.0221885
0.0222681
0.357352
0.0219189
0.0222121
0.0852878
0.0218284
0.0244501
0.0228601
0.0906439
0.0219071
0.0250372
0.0449338
0.0314696
0.0230843
0.0219352
0.779531
0.0546338
0.0222357
0.0398262
0.0219483
0.0218563
0.0219462
0.0243784
0.715823
0.0239409
0.0222494
0.022741
0.0222923
0.0222711
0.131845
0.0219331
0.0216246
5.946
0.0218399
1.18211
0.372213
0.0325769
4.34482
7.44885
0.0272427
0.139505
0.0221582
0.0419076
0.0222914
0.0222193
0.191349
0.0220637
0.0240338
13.1949
0.0220243
0.0219045
0.0501687
2.35863
0.0221396
0.0215607
5.80638
0.0979217
0.0218412
0.0740698
16.9316
0.0217724
0.0222642
0.0216434
0.0218751
0.021483
0.0216785
1.16378
0.503677
0.022255
9.5507
0.0215009
0.0218907
0.534799
0.0220288
1.33353
0.0519254
0.0227641
0.0215997
0.0215518
0.135409
0.0226185
0.0272671
0.0223281
5.11087
0.0224557
1.84848
0.0232819
0.021935
0.0218482
0.632825
0.0219504
0.0256835
0.0218755
0.0218837
8.94611
0.0245946
0.0219352
0.0217499
6.14812
0.0218829
0.0248519
0.023101
0.0217141
7.55499
4.39151
0.0218841
0.0221802
0.0240376
0.0215371
0.0220071
0.0219727
5.93326
0.0219959
0.021754
0.0280936
0.324796
0.0539963
0.0222686
0.0300098
16.9198
0.0317703
0.0219394
0.0219403
0.154947
0.0221778
0.021941
0.0291026
0.0217947
0.0216795
0.0228643
0.0215701
0.0373151
0.0219162
0.0219545
6.95706
0.0217648
0.0224777
0.0220658
0.0222675
0.0315177
0.0218882
0.0218227
1.03576
0.0224347
6.79139
0.0227514
0.022282
0.0222767
0.120539
0.0219157
0.0219401
0.0220124
0.0223054
0.0274624
5.8762
0.0218867
0.0372444
4.87162
0.0316579
0.0222612
0.0219604
0.0220651
0.0222032
0.0218639
2.462
5.41739
0.0220736
0.0265996
0.0266898
0.0263241
0.0220303
0.0216621
0.258427
0.135744
3.49563
0.0215944
0.0221008
0.0219887
0.0218449
7.44812
0.0330622
0.022312
0.0218369
0.021801
0.0219988
0.262552
0.0245888
0.0221392
7.24199
1.4551
0.443297
0.0503041
0.0220145
0.0217906
0.046317
0.0492882
4.99186
28.5108
0.0245795
0.0259815
0.0222107
0.0231431
0.022165
0.0221999
5.72191
0.0216192
0.0218557
0.0470035
0.0222104
0.202548
0.0226083
0.107184
0.0285606
0.0222451
0.0229255
0.025213
0.0335792
0.0502156
0.0818589
0.0222825
0.0407352
0.0227318
0.0218549
0.0221185
0.0222134
0.0220348
0.0248335
0.0540652
0.0408446
0.0221426
0.0224858
0.0220082
0.0219232
0.128804
0.021929
0.023079
0.145387
0.0215716
0.0494002
0.0598901
0.0220396
9.48736
0.0359396
0.02221
0.213175
0.0219664
0.0222687
0.0219723
0.0219808
0.0222924
0.0235164
0.0220064
1.05485
0.0226489
0.021965
0.0221363
0.0318964
0.0300288
0.0219791
0.0237107
0.021791
0.0291542
0.0219437
0.0287244
0.0216294
0.022959
0.021548
0.0219328
9.19819
0.0216495
0.112796
0.0219681
0.0225943
0.0217464
0.0297877
0.0220742
0.0371566
0.0220007
0.190306
0.0222623
5.06981
0.0215623
0.0233616
0.0222717
0.0219886
0.0219595
0.02348
0.0220342
0.12595
34.6899
0.204915
0.0234073
0.0358523
0.0218181
0.0376044
0.0493066
0.0220112
0.0287509
0.0862347
5.49412
0.0603168
3.86532
0.025792
0.0220954
0.0222315
0.0240616
0.0235033
0.0316621
0.0216097
0.0231179
0.0968652
0.0222649
0.0219237
0.0239672
9.52525
0.0232151
0.0288426
0.0460856
0.0222518
5.69801
0.0216257
0.0218311
0.0223477
0.0217986
6.55087
0.0550816
9.0821
0.0220565
2.68145
13.803
0.330517
0.03138
0.0553062
0.132745
0.0393926
0.0219783
0.0218793
0.0298803
8.39134
0.0218102
0.0287683
7.81159
0.0219114
0.0219093
0.0218605
0.0227842
0.0219515
0.0219529
0.118873
2.08354
0.021926
0.0219982
5.08298
4.18744
0.0218221
0.0219429
0.022155
0.0218788
0.583113
0.0549227
0.281599
0.0225365
0.0219039
0.0217598
0.0227686
0.0220519
0.0293099
0.0225759
10.4816
0.0220053
0.0220747
0.0393425
0.0218064
0.0298303
0.0653915
0.0227832
32.1989
7.8272
0.0221004
0.0218598
4.53404
6.52598
0.0345955
0.0219447
0.303188
0.189303
0.0256006
0.0219621
0.0219945
0.0219227
0.343848
0.0233771
0.0944582
0.0222686
5.27426
0.661157
0.021963
0.0219886
0.118755
0.0221496
0.0217437
0.0247088
6.86121
5.09433
8.28651
0.0223612
0.0495888
0.0377157
0.0216488
0.021862
0.0221937
0.32672
0.0222062
0.0219599
0.0494758
0.0220197
0.0588533
0.0221114
0.022106
0.0216954
0.0221509
0.14239
0.0221992
0.0218704
0.0359328
0.0549308
0.412416
0.0222102
0.0792426
3.68022
6.70342
0.0228692
6.09902
10.7104
0.0219128
0.0215482
0.0225855
0.0232378
3.36643
0.0231531
0.0221224
0.0222063
4.36748
0.0364667
0.0223123
0.0221421
0.0219394
0.0401339
0.0217575
0.021834
0.0284946
0.0227292
0.0222044
0.0217577
1.49005
0.0218379
0.0226485
0.0220292
0.0222993
0.137096
0.0222031
0.0229329
0.0220713
0.0241878
0.824058
0.0222919
0.383553
0.0251565
3.9482
0.0216756
0.0231558
0.0281685
0.0789687
0.0503806
0.022568
4.48155
2.63088
0.0224844
0.0218025
0.345297
0.0220791
0.0222513
0.0217316
0.022242
0.0453383
0.0222928
0.0222931
0.064563
0.0276391
0.0230099
0.0309232
0.0227255
9.71564
0.022893
0.924114
0.0218714
0.0470248
0.0360514
6.97065
0.0235779
6.56575
0.0222696
0.0245484
0.0220419
0.022051
0.02192
0.102189
0.0398752
0.039363
8.22776
0.0221192
11.3172
0.0247689
0.0217611
0.0311875
0.0279272
7.16171
0.0219832
0.0276728
0.0505932
0.0231238
0.0414021
0.0222838
0.0215798
0.0222833
0.317869
0.0221332
0.0220028
0.0217395
0.0217299
0.0219371
0.021988
0.0222096
0.021855
0.0221507
0.0224538
0.024834
0.0304222
0.0219907
4.49639
0.0219567
2.00867
0.0367098
4.56271
0.0334664
0.0243878
6.04106
0.0304216
0.340138
6.87627
0.0396638
0.0221994
0.0218492
0.0227583
0.139461
0.0218646
7.8229
0.0218687
17.815
5.13031
0.0442242
0.0226045
8.0248
5.16916
0.0231603
0.0219799
0.0222641
0.0237026
0.02157
0.0216745
0.0546987
0.179818
0.0220779
0.0218585
0.0223546
0.637973
0.0485017
0.0221558
0.0246155
0.0763044
0.0223838
0.0220258
6.7662
0.0222533
0.0218882
11.8041
0.0237468
0.0219574
6.05683
4.2717
12.5305
0.0219206
0.0230461
0.296584
0.0217382
0.0218457
0.0222845
0.027098
0.0220424
0.0221116
0.0232537
0.0459202
0.185483
0.0217866
0.0219439
0.0220794
0.021813
0.02248
0.0216038
0.116045
0.027992
0.0219615
0.0219845
0.0217702
0.0219746
0.0223132
7.53574
0.026754
0.0215554
0.0219318
0.0406665
6.26621
0.0220425
0.0219816
0.022029
0.0215571
2.94751
0.0393647
0.0217465
0.0220667
0.0274096
0.104996
0.0221692
0.0222829
0.0245835
0.0219605
0.0247134
0.0223149
4.28936
0.0333533
0.0220688
0.0250456
7.82143
0.0278121
0.118697
0.0245921
0.309942
0.022271
0.0221426
0.0241704
0.0523365
0.0219085
0.0218345
0.0222439
0.0225308
0.109112
0.118814
0.832017
0.0224747
0.0219919
0.027699
0.0219706
0.0219679
3.70685
0.0234532
0.0219526
0.0219842
0.296787
0.61708
0.0219905
0.0220423
0.0740604
0.0217853
0.0221038
0.0219367
0.0719736
0.0228127
0.0247271
12.0885
0.0222212
0.022168
3.54039
0.0219072
0.168215
0.0218938
0.0231158
0.0407854
0.0219976
0.0220888
0.0222263
0.0230938
4.5788
0.0219255
0.0221351
0.223919
0.0254124
0.255608
8.70476
0.0453032
0.0222123
0.397022
0.0218463
3.26912
0.0221675
0.0219871
0.0217281
6.67935
0.0222124
0.0223123
0.0221598
0.029765
3.15573
0.0274893
0.0458237
0.0219131
0.0221351
0.0346876
0.0276515
0.0218386
0.0245602
0.0218951
5.85731
5.80541
0.0221382
0.022904
0.0222231
1.0913
0.0221565
20.4021
0.0219789
0.0218132
0.0217416
0.0223232
0.0233212
0.0222715
0.0219904
0.0220073
0.350943
0.0831748
0.0218481
0.023845
0.0234593
0.0399714
0.0218333
0.0257456
0.0227198
0.0219724
0.0231879
0.0278411
0.0222802
0.0219136
0.0263973
0.0217432
0.149258
0.0228923
0.143389
0.0221121
0.0220368
0.0218571
0.0550919
0.0383459
0.0217724
0.0238597
0.0592649
0.0223992
0.0217758
0.0247278
0.0222247
9.71116
0.224698
0.0245155
7.14982
0.0230806
0.0302045
0.0785562
0.0367098
0.029553
5.75293
0.0273946
0.0992238
0.0219719
0.0227385
0.0218446
0.0219543
0.0252066
0.0217588
0.202249
0.0219737
0.0220034
0.0729085
0.0219447
0.0443717
0.0248325
0.0249535
0.0218714
0.0418921
0.164196
0.0214256
0.0283568
9.52797
0.0419691
0.0217609
0.0273688
0.0219929
0.0217753
2.46939
0.0218365
0.0217858
0.0432469
0.0219525
0.0253498
0.0217538
0.0220004
5.18771
0.0218421
0.0216694
0.0241451
0.0219193
0.0215487
0.0222519
2.97379
0.0221449
0.022084
0.0215852
0.0664086
0.0223969
0.0241106
0.0219315
0.0338377
0.022589
0.0219111
0.0227227
0.0220995
0.0217822
0.11686
0.0395088
0.0275918
0.0234239
0.0425135
0.0612113
0.0273076
0.0279726
0.0228678
7.74005
0.0219439
0.0219559
0.0219234
0.0222384
0.0347532
0.0218918
6.2746
5.06892
0.744158
0.0220835
0.0241481
0.0378362
0.0215433
0.0887412
0.0457151
0.788647
0.0521106
7.11348
0.0613833
0.127266
2.85752
0.0275568
0.0227339
0.0246133
0.0217763
6.03667
0.0224376
0.0289033
0.0218033
0.0247096
0.0220433
4.92977
7.43829
0.0222037
5.5492
0.603419
0.144067
0.0406861
0.0593992
0.0216732
8.46474
0.0219673
3.14337
5.40289
0.0222044
0.0219132
0.0220007
0.0232718
0.0240767
0.0323895
0.143127
0.0221247
0.0220378
0.0245139
0.0222686
0.0220355
0.0255744
0.0218403
0.022058
0.170752
0.055884
0.0220397
6.25514
0.0227069
0.0222723
0.0234315
0.22472
0.0219424
0.0217349
0.0919784
0.17696
0.0217928
0.0246411
0.533378
0.0478484
5.54392
0.021784
0.119562
7.21807
10.9819
0.0220816
0.0219266
0.0495813
0.0259195
0.03972
0.022298
10.1633
0.0432902
0.147336
0.0220387
0.0219756
5.6651
0.155493
0.0221492
0.0222724
8.96381
0.0219282
0.0216118
0.0218381
0.0230958
0.022197
0.0293651
0.0221141
0.0232849
0.0216267
0.0292777
23.5258
0.0563867
0.0315741
6.28494
0.0667914
0.0216492
0.0217735
0.0218544
0.0222837
0.11476
0.0295264
0.0221051
0.0219785
0.0219736
0.0216108
0.0318598
0.0216203
0.0476929
0.023516
0.0221231
8.00378
5.05345
0.0221014
8.11351
0.0332719
0.031647
0.0222644
0.0216302
11.8927
0.0647148
0.0219222
0.0217313
0.0219368
0.0254158
0.0222625
0.112579
0.0215279
0.0220585
0.0219878
3.04406
9.67341
0.0215368
0.0220104
0.150693
0.504663
0.0244973
5.31876
10.2917
0.0218158
0.0221419
0.0221351
0.0229559
3.19443
0.0220364
0.0222844
0.177742
0.0806329
0.0222123
0.0219459
0.073168
0.0222837
0.0220736
0.098001
0.0667105
7.462
0.0219823
0.0573397
0.0405887
0.0460659
0.0230903
0.0269836
0.0219397
0.0220118
0.121496
0.0254258
0.0219963
0.0244073
5.25231
0.0215483
0.0218168
0.0215411
0.0740324
0.0219477
0.022086
0.021446
0.0219469
0.612918
11.0606
0.022217
0.637342
6.51938
6.10631
0.0219384
0.0219534
0.0218342
0.0219006
0.0221159
0.0221494
0.0216306
0.0220822
0.0217832
0.0242234
6.14175
0.0352182
0.197277
0.0274248
0.0220296
0.0230832
0.0312674
0.0221754
0.021854
0.0388164
0.0310648
0.47175
0.0358288
0.0215187
6.16993
0.0226275
0.021504
0.0218485
0.21702
0.037648
0.0227722
0.0251587
0.0220728
0.0220929
0.0319251
0.0350051
0.0264652
2.40739
0.0220823
0.02203
0.588423
0.036244
0.0248129
0.106979
0.0228892
0.063604
0.203492
0.0593694
8.59277
0.0218326
0.0217896
0.0219398
0.0220478
0.0220949
0.0229229
0.0349041
0.0416115
19.6251
0.0220725
7.48309
2.05221
0.0239759
1.28115
0.0222141
0.0824913
9.60042
0.0219113
0.0777916
0.0215858
1.94544
0.0221977
0.153258
0.0218679
0.402269
0.0329916
5.25138
0.0218517
0.131598
0.0216642
0.0228938
0.218241
0.0218427
8.44779
7.53212
0.19844
2.56054
0.0766245
7.28209
0.0372351
0.0220166
0.0436947
0.0416187
4.67356
0.0220759
0.0220167
0.0225438
0.045451
0.0219581
0.0222217
0.0221976
21.0756
3.31821
0.0219217
5.26152
0.0573844
0.0217323
0.0368813
0.0270295
3.338
0.0288223
0.0217717
0.6902
0.022072
0.0219376
0.0220893
0.113055
0.0537078
0.0217933
0.0263568
0.0221107
0.0222607
0.0217955
13.4945
0.0222857
0.0218155
0.680662
0.173714
0.0235662
0.0218053
2.84815
0.0280288
0.0231811
0.0219466
0.0511158
0.0229146
0.0256052
0.024436
1.75222
0.0421928
0.0520072
0.0215101
0.0290267
0.0380294
0.0260482
0.0223703
9.43433
0.0222527
0.119772
0.0218937
0.0221936
0.0286767
0.14381
0.0231479
0.0243649
0.0221131
0.0366184
0.0553592
0.0702357
0.0275778
0.0222924
0.0219644
0.0280214
0.067108
0.0219393
0.0375019
0.0220133
0.0219422
4.92368
0.0219
11.526
0.0219465
0.0270382
0.0579209
0.0219371
0.0264876
0.0787896
0.0885213
0.0219384
0.0635467
0.0224528
0.0222636
0.0219087
5.65747
4.56317
0.0219119
0.0219333
0.0216479
0.0218159
0.0768506
5.40212
0.0219287
1.46766
0.0217361
0.0218004
0.0218949
0.265563
0.022698
0.0236966
0.0219498
0.0219517
0.0219274
0.0222569
0.0222596
0.0295994
13.3801
0.0216405
0.0219214
0.0418015
0.0621053
0.0218011
2.35254
0.0483048
0.021793
0.0215459
0.0222178
0.0900652
0.0217386
0.0624295
0.0278186
0.0233442
0.0217906
0.0406291
0.0215319
0.138824
0.0274145
0.0223672
1.08516
0.372035
0.0214328
0.0218673
6.63029
0.102103
0.0637449
0.0238708
0.0624569
0.021574
9.17931
0.051349
0.0218148
2.22827
4.15821
0.0231301
0.0420737
0.0474181
0.0217657
10.4576
0.0221778
0.0255166
0.028626
0.0222393
0.022049
0.0516591
0.021874
0.0218891
0.0218726
6.00554
0.0218446
0.0219378
0.0217544
0.0218918
0.0218548
0.0222305
0.0442109
0.0457201
0.0232354
0.0222501
1.31309
0.0222398
0.0218351
0.0219032
0.0216412
0.0220842
0.0219711
0.0267464
0.07351
0.0222242
0.0283297
0.0496662
0.0217424
0.0273016
5.59682
0.0225702
0.0215381
0.0220786
0.084436
0.022203
0.0222031
0.0240376
0.0246413
0.930119
13.929
0.021826
0.0218636
0.021943
0.0691364
0.023278
0.0218015
0.028232
0.073248
0.0221625
0.0267513
0.0221328
0.0975851
0.160642
0.0226894
0.128208
0.0253498
5.0802
0.0222052
0.021896
9.59077
0.118932
0.0240635
0.12089
0.0929347
32.6748
0.0455674
0.705838
0.0248096
0.0242557
5.50138
0.0264515
0.173496
0.0275557
0.115993
4.97754
0.0222933
0.0221319
0.0219763
0.367055
0.0214542
6.9922
0.0320038
24.9509
0.0229502
0.120859
0.175369
0.0219467
0.0221847
0.0805942
0.0289404
0.0220884
0.0245024
0.0778119
0.0655376
0.0694013
0.08581
13.3205
0.140015
0.0221151
0.0222015
7.37414
0.0769871
0.0225593
0.0372397
5.45322
0.0222143
0.0234535
0.0219418
0.0284126
0.0220384
0.022105
0.0390378
0.0221078
0.0227352
5.4161
33.2025
0.0217317
0.0256411
0.0255428
0.184984
0.0423849
0.0222868
0.0219259
0.105249
19.0197
0.0219333
0.0252243
0.022042
4.87915
0.0218356
0.0290167
0.260785
0.244709
0.0222724
0.14219
0.0820347
0.0505044
0.0255081
0.0220204
10.7763
0.0218206
0.0251085
0.0222338
0.0268452
0.0216174
0.0216392
0.0220578
0.0596839
0.0218247
0.0219771
0.0217738
0.022033
0.0218717
0.0220033
0.0783493
2.53438
3.41949
0.024665
0.0220566
0.0320991
0.0233192
10.3564
0.0222852
0.18746
0.0216284
0.021996
0.022346
0.032927
5.11777
0.0219598
5.04095
0.0221853
0.0215286
0.0229091
6.90954
0.0233037
0.0453007
10.7745
0.0222849
0.0221844
7.25134
0.0218954
4.47289
0.0220883
0.0289004
7.89996
0.0225381
0.0220955
0.0218578
11.2601
0.0253645
0.0218761
0.825599
0.0219591
0.0225559
0.0730925
25.0737
0.199402
6.93503
1.66629
0.0742017
0.0233789
0.191315
0.198411
0.0218289
0.0218641
0.0227701
0.0255689
0.0802126
0.0219894
0.0252871
0.0219046
0.0219603
3.28106
0.0222254
11.0117
0.0215699
0.0289552
0.0501174
0.021827
0.0215224
6.12608
9.61739
0.0597067
0.0220791
0.0245452
0.0430205
0.0217699
0.0308275
0.0867799
0.0346203
0.0234153
8.16214
27.1459
0.0215486
0.0221331
0.0216539
0.0221946
0.0226748
0.0258953
21.3046
0.0221202
0.0219628
0.0370009
23.1477
0.0215783
0.626181
0.0216106
0.113049
0.0507012
9.18137
0.0540041
0.0535647
0.0565169
0.0215295
0.0215144
0.207534
0.0250914
0.0220859
0.653358
0.0218336
0.0220831
0.0216262
0.0443885
0.219838
0.525937
0.14903
0.0264997
0.028776
0.0220342
14.3836
0.166418
0.022919
0.0219741
0.021743
0.0725107
11.3725
0.0356665
10.908
0.0229271
0.0217724
5.52226
0.0219438
7.98409
7.45174
0.0217055
0.0288197
0.198495
0.0240469
0.0357499
0.0218235
6.66477
0.0252186
0.165272
5.70128
3.23435
0.0262464
0.0264557
0.0221352
0.143458
14.7579
0.0228091
0.0235105
7.19182
0.049311
0.0677015
0.0222636
2.05238
5.50931
0.0987103
0.0219567
0.0253466
0.0218952
1.24319
0.063339
0.0310655
5.27122
4.94106
0.0215321
0.130509
0.0220996
1.22431
0.0948022
0.0254128
0.0243916
0.717311
0.0214075
0.0505394
6.53743
6.76198
0.0229018
0.0220303
0.0217919
0.0890594
0.819435
0.153128
7.05958
0.0740701
0.0398536
0.0217876
5.57526
0.0666577
0.0280454
0.198004
5.83046
6.33469
5.63177
11.4574
5.00965
6.67569
0.0220521
0.0288566
0.0312785
0.0219731
14.1414
0.610232
0.0220185
6.6863
0.0221288
0.0219917
0.0217738
0.0287864
0.0218702
5.02875
0.0622329
0.189793
0.0217516
0.50085
0.0478919
0.328861
5.46782
0.0225985
0.0261816
0.0373205
0.0677716
0.0217552
0.0216382
0.0218909
4.92324
0.0217822
0.0217589
0.15558
0.0230361
22.6982
0.0220452
10.2876
0.0219521
0.0220596
0.0219507
0.0219784
0.0255734
0.0240991
11.9626
0.0310097
0.0321136
9.12347
0.0218174
10.6472
0.0217978
9.1975
1.80158
9.10342
0.057227
0.0219659
0.0222727
8.09433
0.0220645
0.0251273
0.0221105
0.0274432
9.91624
0.0218841
0.0218514
0.0218836
0.0222652
4.14327
9.71123
0.0218197
0.0214468
5.28414
11.4604
0.0218656
4.73931
0.0222644
11.3563
8.04747
0.0554839
0.369838
1.0929
0.0872306
5.15288
0.0634241
0.021983
0.0215494
0.021787
10.4871
10.259
0.0228817
0.0282719
5.27674
0.0218407
5.3741
0.0218419
0.0219678
0.0216288
1.15272
0.0591231
0.0217453
5.59611
0.0222526
1.75359
6.03498
0.0217318
0.0221102
0.0992177
0.0219547
0.0219567
0.0218307
4.34917
0.0317359
0.0220304
0.0221296
3.56133
0.0219469
0.0402864
0.0219846
8.82535
0.0221009
0.104215
0.0236726
6.31671
5.91396
0.0302487
0.0672661
0.0490382
0.0220734
0.074521
7.88693
0.0217428
0.0706216
0.0217677
0.474948
0.0218983
8.96089
3.41989
0.108643
5.05593
5.91154
0.0413192
0.0224811
0.882894
0.0219304
14.7914
0.0252867
0.776023
0.0218682
0.0324694
0.0455679
0.0303613
0.0221096
0.0219465
0.0221956
5.89954
0.0646379
5.04917
4.09505
0.027606
0.0216234
0.0544098
8.10497
0.0334498
0.0217752
0.022079
1.88118
0.978286
5.88478
5.79308
0.0345054
0.0222699
0.0217796
0.0459818
0.0482529
0.564832
0.0219979
0.0220682
37.0463
0.0598037
0.0222854
0.0518132
0.607273
0.0893815
0.0216314
0.0484235
0.497102
0.86779
6.45463
0.16944
0.0218807
0.0222693
0.0221059
0.022285
0.0219652
0.0220896
0.0331415
0.2359
0.0325877
0.0260187
0.0284372
0.0221876
0.0260269
0.0224876
0.0344646
0.0326098
0.0218173
0.0277449
0.021903
0.0218415
0.0224553
0.0221204
0.40108
0.0216006
0.0789437
0.500651
0.550298
12.3561
5.04312
0.0223874
0.0222368
0.0219025
9.09538
0.0219471
0.0214776
0.022174
7.0202
0.0311237
0.031501
0.30848
0.02333
0.0220317
0.0289751
0.0218797
0.0481866
0.0222855
0.0339219
0.021785
0.0219327
0.0228403
0.0234377
0.0243826
0.491146
0.0336354
0.112311
0.0549555
0.0987349
0.0422697
0.0622842
0.0219075
5.23256
0.0245977
0.0265623
0.0219381
0.0225784
0.124327
0.0219837
0.063679
7.3455
0.029421
0.386103
0.096861
0.0536513
0.0685662
0.0598566
0.0219337
0.0277234
0.0220891
0.075885
0.0496946
8.75688
0.0217611
0.0462123
0.0264632
5.92651
0.240177
0.0424523
0.0220964
0.0493784
0.021575
0.0588601
0.022682
7.4112
0.0216564
0.0259169
0.0220151
0.0355644
0.101441
0.0300435
2.02151
0.0220388
0.0281234
0.060405
0.0220142
1.28222
10.7622
0.126735
0.0442955
0.0452946
0.0218145
0.0217573
3.47807
0.097341
0.0216503
0.0224175
0.0250876
0.0219109
0.39222
0.0217768
9.85651
0.129845
0.117294
0.0366986
0.0223164
0.0216662
0.0218134
0.148542
0.0828296
0.0266935
5.20381
0.0221735
0.0231194
0.0272446
9.13178
0.0215201
0.2444
0.0214074
8.01325
0.0219094
0.0219034
0.0384221
0.0219837
0.0222186
0.117661
0.0220812
0.0222857
0.021765
0.0426683
0.0252343
2.66222
0.0219912
0.0220994
0.0218473
0.106033
0.0218073
0.028633
0.036654
7.47453
6.43306
11.7937
0.912205
0.362739
0.0397003
0.0628878
0.0273519
0.0222514
0.0221204
10.4748
0.0577902
0.0215441
0.0219638
0.0219531
0.0261851
0.0779766
0.0222519
0.030319
0.0988169
0.131774
0.118177
0.0219659
0.0222376
4.02989
0.0233372
0.0215992
4.66121
4.94631
0.0216972
0.0214407
0.0267039
0.0220537
0.0384662
0.0222485
1.74065
0.0222727
2.59175
0.0219465
5.62873
0.0290111
0.0219459
0.049743
0.0215953
0.0219908
0.0222649
0.0307743
0.42653
0.021859
0.133372
0.0222856
0.0221997
0.118145
0.0217192
0.0221279
0.0221017
0.0214744
0.0219584
0.0215184
0.0221659
0.454635
0.0218598
0.0217462
0.0570173
0.0216329
0.0219387
0.0221671
0.0221269
9.66286
0.435504
0.0219928
0.0227383
0.0219185
0.0222856
0.140045
0.0220546
0.0219825
8.21697
0.0219602
0.0416226
0.0462243
0.037853
0.0218618
0.155241
0.0219131
0.231957
0.0702478
0.0218785
4.15554
2.69742
0.0283174
0.124877
0.021833
0.0218785
0.0453485
0.157664
0.0217551
0.0218567
0.0221554
0.0393368
0.0221022
0.0357786
0.0221099
0.0447574
0.357591
0.0389146
0.133475
0.021844
0.0243355
0.0228492
0.023688
0.0216911
0.0219053
0.0228034
0.0235319
0.0684171
0.022342
0.0740163
0.0219142
8.89679
0.021526
0.0217778
0.0665963
0.0222717
0.0968649
0.0684781
0.0366587
0.0219693
0.0228131
0.0219368
0.0365364
0.022083
0.0561303
0.0248043
0.0221498
0.0216772
0.0273111
8.1347
0.0313309
0.0518584
5.41405
1.04148
0.0383633
0.0215768
8.48109
0.0219432
0.0232642
0.0224096
0.0831589
0.0219078
0.0350631
0.0277911
0.0234652
0.0221214
0.0250456
0.0222
0.052222
0.0219345
0.0221855
0.0219508
0.0277055
0.539418
0.0219854
9.18864
0.0882816
0.0214608
8.97248
0.246454
0.0218309
0.0230521
0.068363
0.0217943
0.0219102
5.43211
0.0220268
7.61099
0.0255723
0.0243572
0.0226725
0.0223696
0.0219176
0.0218306
0.0620967
0.0225514
0.0219592
0.021916
0.0223244
5.74341
0.036111
0.0220289
0.0290924
0.118433
0.0674348
0.0218848
0.0219878
0.0219643
0.024607
0.0228103
0.0224315
0.025898
3.25094
0.021813
0.022861
3.50492
0.02437
0.0822981
0.129205
0.0218765
0.0222702
0.348205
0.0717298
0.153587
6.12426
8.06941
0.143356
1.29242
0.0217851
0.0230364
0.0216845
0.0221865
6.07838
0.0219986
0.048835
0.0525698
0.0278711
0.024966
0.449836
0.0219079
0.0221157
0.0249215
0.0219376
0.0220496
0.021764
0.0221068
0.0589165
0.0219415
0.0221491
0.0217842
0.0460988
0.0221323
9.31631
0.0219228
0.0229616
0.0218157
0.0222522
0.022678
0.0219462
0.0370106
0.0229664
0.0219336
0.0276291
0.0220081
0.0222648
0.0219876
0.0311694
0.0222727
0.0220331
0.0220463
0.0220594
0.0270773
0.0220202
0.022008
0.0853605
0.022074
0.0219207
0.0235208
4.01535
0.0459169
0.0223666
0.0438509
9.83077
0.0931041
0.154355
0.0238625
0.0227089
0.0257072
0.280475
0.0220458
0.185411
0.0226332
0.0218906
0.0276865
0.0220499
0.0626124
0.0673704
0.0580161
0.0228672
0.0219443
0.027675
0.0271109
0.0229428
0.0240256
0.0233653
0.0444328
0.0763725
0.0590087
0.0219308
0.0238908
2.29841
0.0231363
0.0222854
7.12985
0.487315
0.0219431
0.0223569
0.0231472
0.0670152
12.8852
0.0219588
0.28399
4.06724
0.0387679
0.0537194
0.0217187
0.0233603
0.02258
0.0683605
0.022232
0.0296545
0.0232353
0.228661
0.0221936
0.0220615
7.70955
0.0232837
0.0230166
0.0221278
0.0222126
0.0370035
5.3074
0.0274684
0.0220434
3.71893
0.0753164
0.0222567
0.0219599
0.0218328
0.0239445
0.0217467
0.14249
0.0218689
0.0240733
0.024928
0.0494182
0.0260986
0.021828
0.0269655
0.0240152
0.0218267
0.0765055
0.0220437
0.0231813
0.0216918
0.0222721
24.6158
0.0270662
0.0222406
5.40408
0.0226631
0.0219502
1.1191
0.0551775
5.03329
0.0219248
0.0228924
0.0218805
0.0224915
0.0229018
5.55986
0.0224294
0.0732111
0.0217771
0.0221797
0.0236118
0.0219392
0.036857
8.46066
0.449703
0.0219516
0.0217232
0.199818
0.0225769
0.0221054
0.0261843
0.0259083
0.379127
0.079684
0.0226944
6.30321
0.0695129
0.0223931
0.0217462
0.0221817
0.0284157
6.35163
0.022284
0.0526951
0.0226496
0.0220895
0.0215898
0.022426
18.9969
0.0269962
0.0217663
0.0236652
0.0220948
0.0254092
0.0214516
0.0231356
0.0219463
0.0228014
0.41467
0.022038
0.022213
0.0789424
0.0216155
0.0215814
7.20399
0.0218822
8.1334
5.81415
14.6728
0.0263772
0.0221387
0.0215127
0.022139
0.0214869
0.0235255
0.164347
0.0435275
0.401667
0.0721866
0.02395
0.0216134
0.0228519
0.0225393
0.0222726
0.0221293
0.0215708
0.0744726
0.0224339
24.2283
0.0222527
0.0226523
0.0222636
0.0220403
8.52063
0.144119
0.0287249
0.0215112
0.0451855
0.0229821
0.0219715
0.0642197
0.0214566
0.023177
10.9798
0.0219604
0.0219059
0.0219046
6.3089
5.53571
0.0216684
0.0225445
0.0243077
0.0221046
0.0216962
0.0219505
0.0220755
0.0219115
0.0218495
0.0218985
0.0242036
5.88935
0.0384292
0.0219389
0.0219369
0.0222611
0.0221044
0.0221773
0.0258241
0.0276242
18.5141
0.0250939
0.0221751
0.0227786
0.0219482
0.0769955
0.0216102
0.0222237
0.0232547
0.0278226
0.0267103
11.3811
0.0220964
0.0284517
0.0225959
0.022537
0.0221041
0.0216297
0.0228559
0.0901792
0.159469
0.0217431
0.0329341
0.0648743
0.0222648
0.0343852
0.0370437
5.82465
0.0222495
0.0234634
0.0224553
0.0216025
0.0635776
0.0219595
0.0219981
0.0432495
0.179124
0.17209
0.021772
0.0219183
7.44651
5.41733
0.0216078
0.76922
0.60617
0.0218259
0.0216042
0.0217746
0.0220745
0.0221401
0.0215629
0.0277752
9.64391
0.0217961
0.0219596
0.0216984
0.0221574
0.0217994
0.0218406
0.0215534
5.09889
0.0219977
0.183649
0.0221593
0.0218052
0.022829
0.0218385
0.0221755
0.027296
0.0221544
0.0223362
5.38888
0.0219917
0.0244907
0.0220154
0.0219878
0.0221402
0.0218178
0.0924563
0.0220565
0.0221057
0.0219907
0.162121
0.0300732
0.0221239
0.0221751
0.0219411
0.0229041
5.13484
0.0233046
0.0236111
0.0219519
0.0221224
0.0219562
0.0482922
0.0230167
0.0227371
0.364881
0.0422205
0.0218108
0.0245321
0.022002
0.0223408
0.0218229
5.28321
0.0219608
0.0220582
0.0218101
0.0299011
0.0232288
0.0229466
0.0219251
0.0217936
0.0536755
11.2406
0.0218205
0.056712
0.0233823
0.0233036
13.8616
0.0217542
0.0219841
0.0219514
0.0234533
0.0230825
0.0217948
0.0240746
0.0219082
0.0792475
0.0215379
0.0217226
0.0246115
0.0221421
0.0785959
0.0251103
18.0763
0.0554941
0.0222121
0.097744
5.13069
0.0226248
0.0240742
0.0220679
0.0252269
0.0217843
0.0346255
0.0418153
0.0218893
0.0290099
0.0218907
5.23356
0.0221928
0.0235923
6.08647
0.0371658
0.023687
0.152917
0.0221557
0.0219945
5.31611
0.0217534
13.9406
0.0218515
0.0218721
0.0597336
1.7846
0.0219169
0.0429025
6.17144
0.0218596
0.0221745
0.0219975
0.0262532
0.0248002
0.0226964
0.0220047
5.02516
0.0219639
0.0225203
0.021942
0.0219125
0.0220349
0.0232252
0.0285988
11.912
0.0222316
11.1275
0.0219429
0.0226577
0.0243728
0.0225501
0.0499448
0.052052
0.022375
0.0219364
0.0218297
0.0726562
0.0217313
0.0218377
0.424073
0.114124
0.0217345
0.0220021
0.021786
0.0220878
0.0244584
0.0804723
0.0219653
0.0221266
0.0217498
0.0221536
0.021964
0.0215137
0.0260793
5.15321
0.0217028
0.0222618
5.15685
0.0219117
0.0371824
0.0220685
0.0279918
0.0460729
21.4086
0.0222613
0.0220544
0.0217931
0.0221281
0.0220415
0.0214596
0.0221438
0.0221266
0.0230565
0.0460813
0.0244226
0.0232699
10.9056
0.0220283
0.144611
0.0217328
0.0218944
0.0220157
7.08831
0.0218468
0.0499689
0.0228656
0.0225586
0.0219338
0.0217557