/*--------------------------------*- C++ -*----------------------------------*\
| =========                 |                                                 |
| \\      /  F ield         | OpenFOAM: The Open Source CFD Toolbox           |
|  \\    /   O peration     | Version:  v2012                                 |
|   \\  /    A nd           | Website:  www.openfoam.com                      |
|    \\/     M anipulation  |                                                 |
\*---------------------------------------------------------------------------*/
FoamFile
{
    version     2.0;
    format      ascii;
    class       volVectorField;
    location    "700";
    object      ddt0(U);
}
// * * * * * * * * * * * * * * * * * * * * * * * * * * * * * * * * * * * * * //

dimensions      [0 1 -2 0 0 0 0];


internalField   nonuniform List<vector> 
10042
(
(0.00691898 0.0164674 4.49028e-19)
(0.0180981 -0.276306 -1.87936e-18)
(-0.0124917 -0.0318535 -3.18862e-19)
(-0.0011796 -1.5298e-05 -4.33239e-20)
(0.0014771 7.04029e-06 -1.42383e-19)
(-0.082882 -0.0273795 1.04421e-18)
(0.130397 -0.0192877 -7.76933e-18)
(-0.013678 -0.0300257 -3.81126e-18)
(0.000272858 -4.67274e-05 3.37307e-19)
(0.027221 0.0245534 -3.16723e-18)
(0.0184681 0.0347036 -4.03931e-19)
(-0.00887948 -0.286971 -1.28309e-18)
(-0.00190256 -0.0201114 3.21116e-18)
(-0.000111689 0.000691996 3.68505e-19)
(-0.0013948 -0.000561077 1.1201e-19)
(-0.000291368 0.000610916 -6.57216e-19)
(-0.0599317 -0.103018 -1.14572e-17)
(0.0247935 0.0305036 3.9071e-19)
(-2.2903e-05 -0.00423986 1.23592e-18)
(-0.00935549 0.00364269 7.84659e-19)
(0.000318914 -0.0205699 1.46993e-18)
(0.00391719 0.0171657 7.86336e-19)
(0.00018717 -1.57466e-05 -1.16803e-20)
(0.000234885 -0.0043007 -1.01465e-20)
(0.000330831 -4.48131e-05 3.72037e-19)
(8.75505e-05 -1.36581e-06 8.18349e-20)
(0.0250334 0.0237747 5.50431e-19)
(0.000117844 -6.48958e-05 4.09782e-19)
(-0.0732535 -0.0355507 3.02663e-18)
(-0.0119754 0.0852837 -5.35592e-19)
(-0.000195716 -9.6449e-06 -7.20418e-19)
(-0.0231684 -0.00589096 1.77441e-18)
(0.000747921 -7.30784e-05 8.7572e-20)
(0.00108495 -7.29885e-05 -3.20928e-19)
(-0.02346 -0.0052032 -9.25425e-19)
(0.00582571 0.0419469 9.21986e-19)
(0.00108411 -7.58755e-06 -6.83146e-19)
(-0.000294279 -4.81399e-06 1.09961e-19)
(0.000387238 -1.42041e-05 3.42366e-19)
(-0.000941963 0.002182 -1.65244e-19)
(-0.0146992 0.0496097 -7.62357e-18)
(0.000675369 -4.61787e-05 -9.58696e-19)
(-0.0485643 -0.128768 4.78643e-19)
(-0.0876241 -0.0323584 -3.13696e-18)
(-4.49646e-05 -0.000120407 -3.09112e-19)
(-0.000858164 -4.38435e-05 4.6353e-19)
(-8.85393e-05 6.93533e-05 7.88809e-19)
(-0.00209308 -0.000512631 6.54893e-19)
(0.0453677 -0.00569744 7.81325e-20)
(-0.346574 -0.334245 8.73363e-18)
(-0.0791021 -0.155864 -4.99317e-19)
(-0.000287756 -4.2354e-05 1.95844e-19)
(-0.0729115 -0.080069 2.42958e-18)
(6.49273e-05 -0.00396513 -1.07538e-18)
(0.0768646 -0.0312688 8.65314e-18)
(0.114058 -0.0959267 -3.07097e-18)
(0.000865506 -0.0185654 -5.1742e-18)
(0.00445216 0.0196187 -6.85079e-19)
(0.000850454 -0.000162235 2.30614e-18)
(-3.5215e-05 5.0024e-05 1.6444e-20)
(0.0455211 -0.00103125 4.78059e-20)
(0.0797139 0.00262878 1.2007e-18)
(-0.028528 -0.112899 -2.49316e-19)
(-0.042413 -0.0704267 4.62048e-20)
(0.0176659 0.0138451 -1.98841e-18)
(0.00113377 0.000576063 1.67902e-19)
(-0.00871908 0.00120104 -2.95419e-19)
(0.0235297 0.0146528 1.26172e-19)
(-2.63498e-05 7.73082e-05 -2.19215e-20)
(0.0199847 0.0157406 -2.47035e-19)
(-0.260015 -0.195639 -6.88366e-18)
(-0.00227058 0.00263819 1.8051e-20)
(0.00043416 -0.000242163 -4.94358e-19)
(0.000675242 -0.000179173 -1.52811e-18)
(0.00148459 0.0005627 -1.20122e-18)
(-0.21434 -0.173056 6.79007e-18)
(0.0150692 -0.0098394 1.45429e-19)
(-4.39446e-05 7.52387e-05 -8.40394e-19)
(0.0146444 -0.0128807 -2.61205e-19)
(-0.0003322 -0.00403524 -1.4978e-18)
(-0.0740237 -0.00655897 1.24855e-18)
(7.26083e-05 0.0241717 -2.49918e-18)
(-1.61263e-05 7.15511e-07 2.65858e-19)
(-0.00103791 1.39352e-05 -2.55791e-19)
(0.00279758 0.0229075 -5.08746e-19)
(0.071795 0.00451503 -3.61191e-19)
(-0.00714907 0.000660275 -4.62304e-19)
(-0.00673394 -0.0336595 9.12293e-19)
(-0.00147044 -0.000376415 9.09496e-19)
(0.0156966 0.00046023 -7.29236e-19)
(-0.000914902 -0.0116035 -3.75759e-18)
(-0.00116491 -0.000566084 2.24606e-19)
(-0.0156411 -0.110052 -6.27356e-20)
(0.0737981 0.00984468 4.23106e-19)
(0.00623884 0.0210318 -9.98009e-19)
(-0.00164611 2.57309e-05 1.03901e-19)
(-0.0430159 0.291663 -1.17961e-16)
(-0.00847088 0.00271654 -4.82422e-19)
(0.0706774 0.0120315 3.89505e-18)
(-0.000583606 -0.000284183 3.41954e-19)
(0.000234047 -0.0107576 2.88223e-18)
(0.0436891 0.0331866 -7.17781e-19)
(0.00214832 0.00106686 2.22145e-21)
(-0.0164827 -0.00442502 -5.77017e-19)
(0.0018206 -0.00653062 -1.65975e-18)
(-0.000373193 0.000583052 6.03597e-20)
(0.119398 -0.111816 -3.84364e-17)
(0.00122863 0.000364729 5.51833e-19)
(0.125339 -0.00778863 1.06387e-18)
(0.000732844 0.0006417 -3.02706e-20)
(-0.000539577 1.25216e-05 1.72966e-20)
(0.106831 -0.00688885 -2.06328e-18)
(0.0377266 0.0340903 3.50866e-19)
(-0.0486992 -0.0467834 3.03158e-20)
(0.013614 0.012647 -1.07258e-18)
(-0.000267095 7.00684e-05 -8.7041e-19)
(-0.00271655 0.017811 3.24991e-19)
(0.000440295 -8.22625e-06 4.79586e-19)
(0.00299652 0.0174387 -2.7216e-19)
(-0.000286054 1.1128e-05 3.00835e-19)
(-3.26222e-05 5.69695e-05 -1.64058e-20)
(-0.0218692 -0.349411 -1.47465e-18)
(-0.0282837 -0.340918 6.34479e-18)
(-0.00107841 -0.000127807 2.81715e-19)
(0.0169125 -0.00248803 3.53333e-19)
(-0.000770206 -0.000487679 -1.35024e-18)
(0.000776754 -0.000485273 1.36703e-18)
(0.0582599 -0.0382605 -9.27866e-19)
(-0.112804 -0.0412514 1.58026e-18)
(-0.00540137 0.0179583 1.06276e-18)
(0.000262308 0.000121404 2.82632e-19)
(-8.73256e-05 0.000486902 7.01383e-19)
(-0.000954823 -0.00104629 1.26298e-18)
(-6.47154e-05 -4.88153e-05 1.13593e-18)
(0.103353 0.00105224 5.95601e-19)
(-0.11413 -0.245619 4.28884e-18)
(-0.00755444 -0.0032693 -1.3306e-20)
(0.108488 -0.213029 -7.99796e-18)
(0.00300171 -0.00242355 -1.12409e-18)
(0.0724977 -0.0100079 2.70951e-18)
(-0.0145475 -0.0641486 3.35664e-18)
(0.000280905 1.0564e-05 -1.12721e-18)
(0.058718 -0.207739 -8.85643e-18)
(9.32271e-05 -5.46037e-05 -5.29975e-19)
(0.00946115 -0.00171684 -3.40903e-19)
(-0.00041973 3.63906e-06 -2.04542e-19)
(0.0028736 0.0210941 2.35782e-18)
(-2.93444e-05 6.45668e-05 -1.54688e-19)
(-0.000425121 0.00133049 -3.62055e-20)
(-0.052183 0.10643 7.51541e-18)
(8.80965e-05 0.000352315 9.64968e-19)
(-0.000147488 1.12136e-05 -3.18659e-19)
(1.09179e-05 -0.00309834 1.14966e-18)
(-0.00673868 -0.0261109 -5.71937e-19)
(0.0036138 0.0183468 -8.71172e-19)
(0.010047 -0.000911321 3.21683e-19)
(-0.101237 -0.0451439 -1.83636e-18)
(0.0833797 -0.112939 1.81406e-18)
(-0.00107711 -0.000953659 -1.36748e-19)
(5.95561e-05 -1.26728e-06 -3.90558e-19)
(-8.14223e-05 1.84855e-06 3.08654e-19)
(-0.00151785 0.00244475 2.3204e-19)
(-0.0271037 -0.211512 -5.77364e-18)
(-0.00012342 -0.000379422 3.41515e-19)
(0.00343873 -0.00171326 -6.41767e-19)
(-0.0535927 0.0503514 4.41158e-18)
(0.000496958 -0.000211488 8.07014e-19)
(-0.0181282 -0.00589753 4.16406e-18)
(-0.00213855 0.0265055 -5.74463e-18)
(0.00107408 -8.03045e-05 6.16904e-19)
(-0.00548528 0.0221193 2.1011e-18)
(-0.0189924 0.112885 1.58637e-18)
(-0.00105198 -0.321067 -7.2026e-18)
(0.00119101 -8.74006e-05 -8.95723e-19)
(0.00037185 -0.00412789 -1.86872e-18)
(-0.00594412 -0.345371 8.91439e-18)
(0.000259175 -0.000160867 -2.33608e-19)
(-0.000429671 2.59891e-05 -6.66305e-20)
(0.000259072 0.000427328 -3.59892e-19)
(9.01498e-05 7.78085e-05 -5.32177e-20)
(0.00381272 -0.002146 1.52103e-18)
(0.00437179 -0.00642653 2.14307e-18)
(0.000560399 -0.000281738 -6.33874e-19)
(-0.000512562 1.25933e-05 1.72088e-19)
(-0.00444257 0.0405901 8.93579e-19)
(-0.00505187 -0.00884012 -1.7956e-18)
(-0.00186956 0.00273399 -5.77297e-20)
(-3.38497e-05 3.55035e-05 6.31421e-20)
(-0.280473 -0.168382 -4.1916e-18)
(-0.000235507 8.22727e-06 -4.24179e-19)
(0.0462952 -0.193343 1.74278e-17)
(0.00311349 -0.0186062 6.66061e-19)
(0.000708636 0.000125983 1.15787e-19)
(0.00309378 -0.00598445 -1.7363e-18)
(0.0222934 -0.0302691 -1.55227e-17)
(-0.00135744 -0.00052017 -4.63017e-18)
(-0.0493392 0.0968192 -4.35796e-18)
(-0.0165786 0.0146709 -1.71835e-19)
(0.00984941 0.276678 7.15157e-18)
(-0.000876273 9.94817e-06 -4.43424e-20)
(-0.151969 -0.0329714 -1.92494e-18)
(-0.0221354 -0.0831209 1.9697e-18)
(0.0343942 0.0393523 5.40175e-19)
(-0.000576475 -4.00928e-06 5.86363e-20)
(0.0620769 -0.00564887 1.28722e-17)
(-0.0011357 -0.000928393 -3.3338e-19)
(-0.0359349 -0.0928273 5.76266e-19)
(-0.00357616 -0.0250041 -1.10112e-18)
(-0.00188687 5.83361e-05 9.70141e-19)
(8.20246e-05 -0.000136005 -1.21859e-18)
(-0.0205975 -0.00486522 1.49155e-18)
(-0.000415111 -7.40895e-07 5.59968e-19)
(0.0413411 0.0447681 1.88649e-19)
(0.0328928 0.032816 -1.97032e-19)
(0.00177514 5.58964e-06 1.93868e-19)
(0.0179501 0.0080301 -9.07325e-19)
(-0.000124894 1.75624e-05 5.90942e-20)
(0.0740028 -0.123295 2.01394e-18)
(-0.0014957 -1.88733e-05 4.99629e-22)
(-0.140846 -0.0451608 1.411e-18)
(-0.0587949 0.150918 9.30069e-18)
(-0.00673981 0.0182647 -2.57962e-18)
(-0.0674218 0.162299 -8.15644e-18)
(0.017142 0.011452 8.37845e-19)
(-0.00162242 -1.94647e-05 -1.80412e-19)
(-0.0309654 -0.0860481 -1.60893e-18)
(-0.0010285 0.00046904 5.973e-20)
(-0.00554062 -0.00331149 1.08717e-18)
(0.0212289 0.0185733 -7.17399e-19)
(0.00200536 0.00108805 -3.30308e-19)
(-0.000166756 4.03326e-05 4.5652e-19)
(3.39098e-05 -0.000569046 6.49237e-19)
(-0.00396439 -0.00924861 3.73602e-18)
(3.05382e-05 -3.33559e-06 -2.34614e-19)
(0.000533118 -0.000146017 2.05203e-19)
(-0.0028638 -0.0131682 -1.88665e-18)
(-0.00233979 -0.00489082 9.77628e-20)
(-0.0185874 0.288688 7.19237e-17)
(0.00801067 -0.00142769 6.32459e-19)
(-0.0148779 -0.0141927 -5.06173e-18)
(0.106013 0.0296128 -3.30884e-18)
(-0.017632 0.16805 1.74938e-18)
(-5.20425e-05 6.76506e-05 7.89908e-20)
(-0.00126673 0.00315044 -5.12187e-20)
(0.05154 0.193925 1.09278e-17)
(0.00147124 8.41849e-06 -2.12883e-19)
(-0.0230648 0.147659 1.84305e-18)
(0.00726506 -0.000701366 1.82403e-19)
(-8.89635e-05 -0.00334982 -3.21552e-19)
(0.00120867 5.25087e-06 1.34133e-19)
(0.0014012 -0.00586061 2.126e-18)
(0.000742265 0.000157164 -2.61171e-20)
(-0.0532166 0.0114274 2.28239e-20)
(0.124226 0.0187731 -2.18341e-18)
(0.000339924 0.00101893 -4.87739e-19)
(-0.00239291 -0.00453276 5.36414e-19)
(-0.000615104 5.46986e-06 -3.64565e-19)
(-0.000612044 3.5913e-05 -1.26925e-19)
(-0.0659128 0.305885 1.7446e-17)
(-0.00151619 -4.1094e-05 -1.84541e-19)
(0.0191629 0.003335 3.10473e-19)
(0.000276296 -8.78007e-05 -2.33451e-19)
(-0.000323224 -3.61994e-05 2.0628e-19)
(-7.44239e-05 7.16144e-05 -5.67053e-19)
(-0.0029998 -0.0215348 4.90993e-19)
(0.126907 0.0718332 1.16868e-20)
(0.0177446 0.00624038 1.70545e-18)
(-0.0464255 0.00963974 3.41422e-19)
(-0.00203268 -4.87669e-06 6.45857e-19)
(-0.000640732 -0.000688296 -5.12316e-19)
(-0.00283403 -0.000107044 3.41483e-19)
(-0.329203 -0.356017 -1.50465e-17)
(0.000654623 0.000492698 9.55581e-19)
(-0.327755 -0.182082 1.1751e-18)
(-0.00102105 -0.000141026 1.4467e-19)
(-0.00512222 0.013219 2.14999e-18)
(-0.00206003 -0.0016526 -3.24808e-19)
(0.000827125 -0.000134819 3.14664e-19)
(-0.00202353 -5.78325e-06 -7.39763e-19)
(-0.00117403 -0.0062658 3.26566e-17)
(0.000410054 -7.17358e-05 1.71523e-18)
(0.0393026 0.123962 1.95336e-18)
(-0.0283316 0.0835646 -5.38907e-18)
(9.90931e-05 -0.0015378 -8.65949e-19)
(0.00663625 -6.76707e-06 5.13398e-19)
(-0.0515619 0.218586 -5.04343e-18)
(-0.0141949 0.0108382 -1.47004e-19)
(0.00019335 0.00010153 5.60112e-19)
(-0.00118083 0.0167848 3.70399e-19)
(-0.000326692 7.67364e-06 8.0837e-19)
(0.00612731 -0.0163459 -2.1617e-18)
(-0.00760586 0.00513651 -8.14479e-19)
(0.00171268 -1.2513e-06 4.83743e-19)
(0.0230841 0.176864 1.3641e-18)
(0.0205441 0.0102063 -1.18353e-18)
(-0.00116924 3.18365e-05 4.28174e-19)
(-0.0612189 0.0343686 -1.11593e-18)
(-0.00459768 -0.00439148 8.56383e-19)
(-0.00262271 -0.000117726 7.80389e-19)
(-0.000124807 1.37298e-05 3.74212e-19)
(0.0016522 -0.0027477 -3.98592e-19)
(0.0369832 0.0356464 -1.32969e-18)
(-5.07723e-05 3.40428e-05 -2.71164e-20)
(0.106358 0.0012178 -1.69105e-18)
(-0.0120133 0.0125774 2.38359e-19)
(0.0915199 0.0075406 -3.7701e-18)
(0.000631302 0.000683564 6.71034e-19)
(-0.00204618 0.00357301 -1.08257e-19)
(-0.0662205 0.0260263 1.28351e-19)
(0.0416839 0.148062 -5.37245e-18)
(-0.000757264 -4.43004e-06 3.25438e-19)
(-0.000621033 4.66989e-05 -6.30111e-19)
(-0.000636073 5.3443e-05 -9.27497e-20)
(-0.00108725 0.00015919 -1.00946e-19)
(-0.00824926 0.00347968 4.49268e-19)
(-0.00438241 0.0157333 3.13611e-19)
(-2.84485e-05 6.29323e-05 7.22379e-19)
(-0.0057563 0.0352321 -9.22488e-20)
(-0.0447646 -0.00933342 4.35545e-18)
(-0.000284559 4.97485e-05 -4.74769e-19)
(-0.000146774 -3.90342e-06 2.27888e-19)
(-0.326298 -0.196023 1.08107e-19)
(-0.00508852 0.0109996 -4.36814e-19)
(0.0285857 -0.0436331 -1.46433e-18)
(0.00779994 0.0437256 -3.30138e-19)
(0.00177829 5.47308e-06 1.43572e-19)
(-0.00820052 -0.000657598 1.63893e-19)
(-0.000103786 0.000427315 3.29667e-19)
(-0.00344368 -0.00420446 -4.05904e-20)
(0.00689254 -0.0145259 -5.26702e-19)
(-0.00104422 -0.000964338 -5.76726e-19)
(-0.00212086 0.000217116 -5.78802e-19)
(0.00770869 0.0128106 -1.68623e-18)
(9.67734e-05 -9.25591e-06 -1.75752e-19)
(-0.0327946 -0.0578351 -2.61837e-18)
(0.00222205 0.0195747 -2.66713e-19)
(-0.0338422 -0.263499 1.93122e-17)
(0.0298763 -0.0328611 5.72597e-19)
(0.00142791 0.000166317 6.75504e-20)
(-0.0693253 0.0187442 -3.88711e-18)
(-0.00579436 -0.0655254 -4.317e-19)
(0.00692511 -0.0204343 -1.22778e-18)
(-6.38395e-05 7.60427e-05 -7.9807e-20)
(-0.00745972 0.00521934 -9.13179e-19)
(-0.00105423 -2.88071e-06 -2.05101e-20)
(-0.000200527 6.33945e-05 -4.99521e-19)
(-0.000105918 0.000261296 2.76643e-20)
(-0.000179946 1.89297e-06 4.80979e-19)
(-0.00434998 -0.000588888 -1.9766e-18)
(0.00353116 0.283793 1.2526e-17)
(-0.00169606 -0.00101774 -1.51494e-18)
(0.010068 0.0197941 -3.48009e-19)
(-0.00403493 -0.00161911 5.34918e-19)
(0.00115029 -0.000433443 6.36013e-19)
(0.0777767 -0.0220372 -1.18434e-19)
(-0.0105559 0.000229216 -1.05623e-18)
(-0.000763399 0.000719785 -1.09011e-19)
(-0.000230088 2.09871e-06 -4.85176e-19)
(-0.180899 0.0329991 5.31034e-18)
(-9.22121e-05 -9.28805e-07 -1.20797e-19)
(-0.00100267 0.00049229 2.14153e-19)
(0.0011666 -9.56367e-06 3.48685e-19)
(0.00349144 -0.00156761 1.65045e-19)
(-0.0646101 0.0602564 -5.19274e-18)
(-0.0661691 -0.00428003 -1.03464e-18)
(0.00281171 -0.00196985 3.53574e-19)
(-0.000999793 -1.60094e-06 -1.01027e-19)
(-0.00355239 -0.00250967 -9.49805e-19)
(-0.004005 -0.00174659 -3.82944e-19)
(0.0332358 -0.0338889 1.27604e-17)
(-2.33145e-05 4.15054e-05 -2.5476e-20)
(-0.00161362 -1.80343e-06 2.83325e-19)
(0.000777132 0.000538267 -5.16951e-19)
(-3.24198e-05 5.58889e-06 -1.46288e-21)
(0.0643454 0.00578011 1.40768e-20)
(0.000525068 0.000668426 -1.55079e-18)
(-0.00180392 0.0145997 1.98998e-19)
(0.0815312 0.0331006 2.33793e-19)
(0.0147389 0.437466 3.33355e-18)
(0.0617517 0.000681382 -2.49169e-19)
(-0.00136589 0.000337269 -5.91016e-20)
(0.0861729 0.0373714 7.93568e-19)
(0.0184506 0.0209811 9.06517e-20)
(9.06593e-05 0.000374802 -1.1448e-18)
(-0.0205951 -0.0299589 2.77725e-18)
(-0.000251471 3.64318e-05 2.26229e-19)
(-9.21392e-06 3.97088e-06 9.88112e-20)
(-0.000542102 4.34204e-06 -4.51539e-19)
(-0.00106616 0.000380548 -6.01205e-19)
(8.7809e-05 7.92785e-05 -2.4109e-19)
(-0.000888912 -0.000528791 -1.75922e-19)
(0.157201 -0.05507 -7.32225e-19)
(-0.00155356 -0.00103729 9.17525e-20)
(-0.00789096 -0.00647972 -6.26165e-19)
(-0.0785885 -0.00549375 1.10421e-18)
(0.123037 -0.00147628 -4.72594e-18)
(-0.000338113 3.20261e-05 3.02804e-19)
(-0.0329329 -0.020735 3.96742e-18)
(0.00772686 -3.24215e-06 -9.12181e-19)
(-0.0232184 -0.0084009 -1.44638e-18)
(-0.00061728 -3.92712e-05 -3.76977e-19)
(-0.0535746 0.198342 -5.99312e-18)
(-2.89626e-05 -0.00277822 -3.70809e-19)
(0.0888924 -0.0309247 2.75202e-18)
(-0.0665922 0.303122 -5.02033e-18)
(0.00118701 -0.000587733 -6.58071e-19)
(-0.000409162 -0.0587852 1.61077e-18)
(0.00123305 -0.00123505 1.42962e-19)
(0.0958051 0.0263009 1.38028e-18)
(-0.00127918 -0.000608341 4.23247e-19)
(-0.0197618 -0.203646 -2.43789e-17)
(0.0108861 -0.00567986 1.2209e-18)
(0.00306202 0.169577 4.30383e-19)
(-0.00261809 -0.000945957 -2.19001e-19)
(-0.0395013 -0.106437 -1.57508e-18)
(0.00114808 0.00250393 -1.3922e-18)
(0.0134191 -0.000756336 2.69543e-19)
(0.0515436 -0.0372202 -9.18545e-18)
(9.17825e-05 3.18294e-05 1.30234e-19)
(0.000934839 0.00218957 4.01794e-19)
(0.000393041 7.44271e-06 7.26234e-19)
(-0.0761509 -0.00858255 -3.08241e-18)
(0.000320322 8.15294e-05 -7.95654e-19)
(-0.000507978 -3.82953e-06 -2.21128e-19)
(-0.0218238 -0.0699035 -2.86473e-18)
(0.00470317 0.00171061 -6.30943e-19)
(0.0101143 0.0245255 -1.70222e-19)
(-0.0199491 -0.189726 -2.47207e-18)
(-0.00155433 -4.19458e-05 1.39777e-19)
(0.00429157 -0.0209977 -2.25994e-18)
(0.00425149 0.00202313 4.10202e-19)
(0.000113313 8.77504e-05 1.35822e-18)
(0.0113981 -0.00498353 -6.94996e-19)
(0.0159367 0.0243165 2.11271e-18)
(0.000991783 -0.00123219 1.08207e-19)
(0.00247474 -0.0013353 8.448e-19)
(0.0834832 -0.093736 -1.3017e-17)
(-0.000699668 0.0169103 1.43409e-18)
(0.000185681 -1.62841e-06 -4.65357e-19)
(0.135726 -0.101364 3.16331e-18)
(-1.00875e-06 -3.69511e-05 1.44884e-19)
(-0.00652921 0.00190737 1.44316e-19)
(-0.00743528 -0.0157547 -8.18337e-19)
(-0.296382 -0.159503 6.86449e-18)
(-0.271907 -0.303628 3.61064e-18)
(-0.0147704 0.0639725 1.1878e-18)
(-0.0346346 -0.104741 2.66706e-19)
(0.0727761 -0.147377 1.03658e-17)
(-0.0345824 -0.0571382 -2.30474e-18)
(-0.000418088 -3.69568e-05 -4.566e-20)
(-0.00744265 0.00896056 5.59285e-19)
(-0.0670621 0.0075808 -2.80034e-19)
(-0.0721161 -0.000468722 2.02814e-19)
(-0.0172843 -0.0286266 -3.70954e-18)
(0.000986897 -1.23176e-05 8.60434e-20)
(-0.000222555 0.000268098 -5.82051e-20)
(0.0106348 0.0151856 3.0466e-19)
(0.112426 -0.0879147 3.46199e-19)
(-0.000600551 2.03591e-05 -4.01864e-21)
(-0.000241439 0.000976431 2.00591e-20)
(0.00135803 1.73876e-06 1.08432e-18)
(0.000139276 1.37944e-05 1.05653e-19)
(-0.000520802 0.00172259 1.42322e-19)
(-0.000223877 0.00201601 -1.32803e-19)
(-0.000734567 0.000256015 -4.55754e-21)
(4.72832e-05 -3.78637e-07 -4.92374e-19)
(0.00559865 0.019915 -4.78384e-20)
(-0.000359002 -0.00126464 -7.30971e-19)
(-0.00695929 0.000474273 4.91108e-19)
(-0.00110984 0.0227946 -8.39744e-19)
(0.116303 -0.114822 5.75536e-18)
(0.00022945 -0.000221271 8.87732e-19)
(-0.0700457 0.125505 -4.99612e-19)
(0.0784817 -0.132353 1.29919e-17)
(0.0813814 0.0354845 3.42957e-18)
(1.8082e-05 -1.20034e-05 2.15109e-19)
(-0.00417499 -0.00323564 6.31575e-18)
(-0.000123314 -5.32734e-06 -2.66229e-19)
(0.125968 0.00560505 7.96079e-19)
(-0.00233491 -0.000100723 4.13971e-20)
(-0.015753 0.0105094 1.45143e-19)
(-0.00246682 -0.000948716 -1.83668e-18)
(0.0784611 0.0111015 -1.15266e-18)
(0.000151198 9.7838e-06 6.77927e-19)
(0.000645282 -0.00578014 2.90818e-18)
(-0.000392621 0.000914891 -7.91096e-20)
(-0.0066126 0.00710534 -1.38409e-18)
(0.0432137 -0.160571 3.45075e-19)
(0.000273073 -8.0545e-07 5.01797e-20)
(-0.000851958 -3.25171e-05 6.34954e-19)
(-4.87331e-05 -3.83505e-05 -7.38081e-19)
(-0.0674677 -0.0741353 -2.0742e-18)
(0.000295345 -7.08031e-05 6.44469e-19)
(-0.0114523 0.00736339 3.75954e-20)
(0.0106859 -0.0337218 1.43274e-20)
(0.00727266 -0.0580539 4.05173e-18)
(0.00111347 -0.000369556 5.70005e-19)
(-0.01231 0.0100966 3.71796e-19)
(0.011332 0.199298 -5.28253e-18)
(0.184775 0.016626 -5.70031e-18)
(-0.001382 6.19808e-05 7.30888e-19)
(-0.00102015 -8.0614e-07 -3.29715e-19)
(0.0206657 0.142634 -1.27246e-18)
(-0.0784799 -0.127318 3.4433e-18)
(0.0280183 -0.0116825 -4.44225e-19)
(-0.0743793 0.030656 -1.07552e-19)
(-0.00048612 1.91476e-06 -1.28641e-19)
(-0.00673034 0.0211787 -3.00851e-20)
(0.0116592 0.0149879 -1.16935e-19)
(0.0128561 0.00732381 -2.22526e-19)
(0.0060059 -0.00046759 -9.27929e-19)
(-0.0246167 -0.112365 1.93295e-18)
(0.000982034 -0.000426609 -2.67959e-19)
(0.000525032 -2.68889e-05 2.8825e-20)
(0.000660914 0.000621698 2.14334e-19)
(0.0162291 0.196411 3.44299e-18)
(-0.00300623 -0.000107585 7.98444e-20)
(0.0860561 0.0297183 5.41046e-19)
(-0.00281755 7.21298e-06 -1.92567e-19)
(-0.00117859 -6.05736e-05 -4.23794e-19)
(3.70478e-05 -0.000268374 -1.35612e-18)
(0.0131961 0.000755811 4.78692e-21)
(-0.0706411 0.0459752 -3.04807e-19)
(0.00215513 0.000963039 3.75655e-19)
(0.00258292 -0.00115715 1.15613e-18)
(-0.0534599 0.133641 9.26378e-19)
(-0.0129893 0.0184853 -3.41601e-19)
(-0.00894023 0.0209446 3.75251e-18)
(0.00155143 0.000853554 -5.15893e-20)
(0.00129152 0.00060638 1.0658e-18)
(-0.00533396 0.0247602 2.13463e-19)
(0.183431 -0.0110721 6.98636e-18)
(-0.00153735 0.000373471 -3.39759e-20)
(0.000630293 4.36806e-05 3.80303e-19)
(0.00948992 -0.028038 3.15901e-19)
(-0.00187377 4.99972e-05 2.075e-20)
(0.000766529 0.000206068 -1.57507e-19)
(-0.036775 0.0488756 2.4466e-18)
(0.000259628 9.91509e-05 3.14089e-19)
(0.0900158 0.111214 6.95242e-18)
(-0.000940076 -5.98529e-06 -4.38909e-21)
(0.0245161 0.0193979 -1.29273e-18)
(-0.00389896 -0.0023173 -1.40743e-19)
(-0.0463999 0.19549 5.42478e-18)
(-0.00321736 -9.98913e-05 -4.35356e-20)
(-0.00458752 -0.00489982 -1.68383e-18)
(-0.00244509 -1.35004e-05 1.75955e-20)
(0.000242347 -0.000161333 -9.38345e-20)
(-0.0535878 0.119695 -1.51889e-19)
(-6.87803e-05 8.94166e-05 -5.86073e-20)
(0.087623 0.0106344 -1.86286e-18)
(0.0271585 -0.0144697 -1.78581e-20)
(0.000351005 1.38868e-05 -1.29586e-18)
(-0.00397057 -0.0041577 9.28274e-19)
(-0.0961399 -0.310668 -1.38553e-17)
(0.0859262 -0.0651017 -1.2309e-18)
(2.1032e-05 0.0187723 6.29198e-19)
(0.000391904 -1.61907e-06 -9.7939e-19)
(0.000572069 7.5494e-05 2.77206e-19)
(-0.000208853 4.20066e-05 1.20484e-19)
(-0.00124217 -0.000367219 -2.19647e-19)
(-0.0064953 0.00354492 -1.0745e-19)
(0.000869032 0.000598847 -2.82663e-19)
(-0.0912946 -0.0447788 -1.38743e-18)
(0.000264556 0.000117417 1.12049e-20)
(-1.74976e-05 1.71979e-05 5.06586e-20)
(0.0312418 0.0996921 -9.26523e-19)
(0.00258826 -0.00652676 -4.70102e-19)
(-0.0077458 0.004967 -9.29875e-19)
(-4.19968e-06 -1.97985e-06 -3.24164e-19)
(0.000480452 -9.79173e-06 -1.23293e-18)
(0.0356957 0.0653745 2.36488e-18)
(-0.0724666 0.0428047 3.29252e-18)
(-0.0034346 -0.0023506 -9.43686e-19)
(-0.0274877 -0.149493 -1.17467e-17)
(-0.00243796 -0.000102875 7.3834e-20)
(-0.00525912 -0.00678904 1.24965e-18)
(0.000618399 -4.37219e-05 4.87136e-20)
(0.000202006 1.18308e-05 9.19947e-20)
(0.000296387 8.60982e-05 1.22598e-19)
(-0.000579131 0.000114002 3.02119e-19)
(-0.00124683 0.000366882 5.62782e-20)
(-6.01452e-05 3.23586e-06 -1.05665e-19)
(-0.0431204 0.221906 1.37933e-18)
(-0.00306246 -0.000833899 -6.9067e-19)
(0.0154628 0.0624561 1.11199e-18)
(-0.000556529 -9.51414e-05 1.10914e-19)
(-0.00132288 -0.00322415 1.8795e-20)
(-9.99643e-06 6.05609e-05 7.55795e-19)
(-0.00929898 0.0250676 2.80955e-19)
(0.0976759 -0.0500334 2.35127e-18)
(0.000167144 4.04474e-05 1.32512e-18)
(0.000501498 -0.000120597 -1.27353e-19)
(0.00484447 0.0396324 9.11389e-19)
(-0.0102674 0.0163 1.15477e-18)
(8.93427e-05 4.22045e-05 -1.08294e-18)
(0.0445305 0.346025 -1.13929e-17)
(-0.0012475 2.70307e-06 8.26159e-20)
(0.00169664 0.0148061 -3.57121e-19)
(-0.000314192 -2.39706e-05 7.81524e-20)
(0.000317261 -1.6784e-05 -1.73168e-19)
(0.000663973 -0.000136587 5.63955e-20)
(-0.151183 0.0516865 7.70471e-18)
(9.73777e-07 5.07575e-05 -4.28357e-19)
(9.16027e-05 -0.000443476 -9.11756e-19)
(0.000251212 0.00084959 1.37634e-18)
(0.0256626 0.320535 -2.50455e-18)
(-3.59594e-05 3.56483e-06 3.94074e-21)
(-0.000185334 0.000157247 -5.42375e-19)
(-0.000270095 -8.4022e-06 -1.39345e-18)
(-0.0356547 -0.0535564 1.54907e-19)
(0.00037203 3.34269e-05 -3.41348e-19)
(0.000654549 -0.000208785 -5.71148e-20)
(0.000239233 6.33168e-06 -8.39992e-19)
(0.000219687 -0.000218725 8.76046e-20)
(0.00643219 -0.00101966 5.09602e-19)
(0.000380624 -0.000184666 -1.66577e-23)
(-0.000747603 -0.00288856 1.20736e-18)
(0.000385454 -5.47943e-05 -1.94931e-19)
(-0.0734456 0.303039 1.95679e-17)
(-0.0865568 -0.016945 6.09192e-18)
(0.0505888 -0.120921 4.09164e-18)
(-0.00120233 -0.000906058 2.63003e-19)
(-0.0029876 -0.00265643 2.23286e-18)
(-0.00152243 -2.18881e-05 1.49933e-20)
(-0.0509937 0.0210941 1.94274e-18)
(0.00498565 -2.83704e-06 -7.34511e-20)
(-0.030953 0.00327862 -1.39522e-19)
(0.00633932 0.059472 2.16643e-18)
(0.060141 -0.0774402 -2.52228e-18)
(-0.0012752 0.014635 -3.26347e-20)
(-0.0402163 0.133003 1.92584e-19)
(-0.0029806 -9.11221e-05 -3.38888e-19)
(-0.00146433 0.000266142 3.26472e-19)
(-0.0136682 0.234507 1.01761e-17)
(-0.0228361 -0.0479856 -2.11198e-19)
(-0.00760576 -0.00249374 3.60954e-19)
(-0.0583429 -0.0225578 6.32654e-19)
(-0.00194368 -0.000526174 -1.81668e-18)
(-0.076685 0.0381322 1.08915e-20)
(-0.000874059 -3.79544e-05 -1.48779e-19)
(-0.00169613 0.000176393 -1.802e-19)
(0.000296403 -0.000236031 -1.5668e-18)
(5.5026e-07 -5.58325e-05 1.74787e-19)
(-0.000970333 -1.72756e-06 1.20413e-19)
(-0.0124825 0.2383 -8.1831e-18)
(8.61894e-05 -0.00161102 -2.325e-19)
(8.24395e-05 -1.16063e-06 -1.21928e-19)
(0.0919594 0.00874226 -3.26886e-19)
(0.00168749 4.57969e-06 1.34779e-20)
(-0.0456592 0.0305693 4.35383e-18)
(-0.000931903 0.00177067 1.33173e-19)
(0.000791456 -0.00123283 -1.01309e-18)
(-0.00844455 0.00706029 8.60721e-19)
(-0.000639313 4.04076e-06 5.23226e-20)
(-0.0459703 -0.0413973 2.35005e-18)
(-0.000822608 0.000336986 -3.60372e-19)
(0.000653363 6.72064e-05 2.18566e-19)
(0.017107 0.0525598 4.16773e-19)
(-0.00140657 -3.87326e-05 -1.23723e-19)
(-3.69977e-05 2.23226e-05 2.08603e-20)
(-0.000205964 -7.28285e-06 1.26918e-18)
(-0.000960009 -1.07801e-05 4.71102e-19)
(-0.000919212 -2.92789e-06 -1.81326e-19)
(-0.0134251 -0.0774356 -3.08146e-18)
(-0.0311954 0.0593054 -5.64369e-18)
(-0.0904319 -0.0399757 -4.57298e-18)
(-0.0018128 -0.000456142 -8.57156e-19)
(-0.000407275 -0.000308306 -7.11802e-19)
(-0.00112143 5.02208e-05 1.03358e-18)
(-0.0735065 0.0555573 -3.32944e-19)
(-0.00271403 0.00300424 1.28968e-20)
(0.00146195 0.000659947 -1.30303e-18)
(-7.78447e-05 1.56389e-05 2.02919e-19)
(-0.00103996 0.00011312 -1.85369e-18)
(-0.0482197 0.13383 6.57811e-19)
(-0.327796 -0.346208 -4.80583e-18)
(-0.00250642 0.00963765 8.24779e-20)
(-0.000510237 0.000383902 -2.88463e-19)
(-0.00255077 -4.56307e-06 -1.49089e-19)
(-0.100998 0.304549 2.42506e-18)
(-0.00572414 -0.00562167 1.747e-18)
(-0.00437306 -9.22981e-05 1.52962e-18)
(2.17788e-05 0.0251151 -4.52321e-19)
(-0.00933927 0.12177 1.84132e-19)
(0.102201 -0.00597079 -5.87533e-19)
(-0.0588425 0.106391 9.79632e-19)
(-0.000886678 -7.40595e-05 -1.44151e-18)
(0.000183468 -1.2898e-05 5.12839e-19)
(-0.000906636 0.000436229 1.14051e-19)
(-0.0494802 -0.0836596 -2.61331e-19)
(0.00046298 -8.40015e-05 5.67376e-19)
(-0.00391317 -0.00302869 7.32321e-20)
(-0.00141898 -0.00036453 2.28065e-19)
(-0.000113132 0.000101084 4.74514e-20)
(-0.00824387 0.00336201 -3.29928e-19)
(-0.00166676 -0.00123439 -1.0452e-18)
(-0.180752 0.0455587 -1.42693e-18)
(-0.0440198 0.123507 -6.63576e-18)
(0.000188181 0.000130911 -2.27186e-20)
(0.000111407 -0.000124241 -1.3066e-19)
(-0.000331751 -2.23015e-05 1.62693e-19)
(-0.00859658 0.0561085 1.46554e-21)
(2.01645e-05 -3.70514e-05 -1.02676e-18)
(-0.0395266 -0.205973 -8.44698e-18)
(-0.00283813 -0.00247274 1.01194e-18)
(-0.300606 -0.229065 1.56472e-17)
(0.000214779 -0.000196533 7.11899e-19)
(-0.000873191 -0.000624028 1.04603e-19)
(0.00011852 5.71393e-05 -9.48098e-19)
(0.000105107 -3.0969e-05 -8.48994e-21)
(-0.000793629 0.000209965 3.5158e-19)
(-0.000243748 0.000383104 -3.44957e-21)
(-0.00240663 -0.000119566 -3.7089e-19)
(-0.00133988 -0.000989648 -3.87316e-18)
(-0.00937673 -0.00459623 7.32701e-19)
(0.000837946 -0.00509609 2.87178e-18)
(0.0492027 -0.125567 8.82071e-19)
(-0.00241377 -7.89531e-05 1.57741e-19)
(-0.0181228 -0.0354563 2.6755e-19)
(-0.00409875 0.132795 2.48172e-19)
(0.00596137 6.52221e-07 -5.91543e-19)
(0.08576 -0.107334 -7.30218e-18)
(-0.000265823 -4.31071e-05 -4.82199e-19)
(0.00101301 0.000145982 -1.68727e-19)
(-0.000406954 -0.00326132 4.60374e-19)
(0.000115075 5.77658e-06 -2.85642e-19)
(-0.0181262 -0.170068 1.12528e-18)
(-0.00116673 -0.000203958 -6.08963e-20)
(-0.00118851 -0.000907617 -1.87135e-20)
(5.04734e-05 -0.000310148 1.555e-18)
(-0.0265193 0.0741956 -1.48853e-18)
(-0.000316176 -0.000587021 -2.5987e-19)
(-0.0494793 -0.0889124 -3.91707e-18)
(0.0211488 -0.0157353 -6.66962e-19)
(-0.000485366 -0.000245863 -9.73243e-19)
(0.0489111 0.0366151 -2.13373e-18)
(-0.053001 -0.0568947 -1.2993e-18)
(-0.00115672 0.00146072 -5.34737e-20)
(-3.25314e-05 -0.000281886 1.28838e-19)
(-0.0550587 -0.0293262 -1.45668e-18)
(-0.00162863 -2.23354e-06 -3.543e-19)
(0.0930444 0.0200226 -8.42686e-19)
(-0.00577539 -0.00612872 1.5998e-18)
(0.0116797 -0.0137955 8.33771e-19)
(-0.0106 0.00264853 -6.65536e-19)
(-0.00186234 -0.000413463 1.78904e-18)
(-0.0017617 1.99558e-05 -9.74065e-19)
(0.00124864 0.000234508 -7.44291e-20)
(-0.000116513 0.0134581 -5.84687e-19)
(0.00107288 -0.00379164 -2.52098e-19)
(0.0402628 -0.00103651 -5.35027e-20)
(0.0951495 -0.0288157 2.14983e-18)
(-0.000123004 0.000116923 -3.12272e-20)
(-0.0012349 -0.00095436 -7.26663e-19)
(0.00802854 -4.53179e-06 4.51712e-19)
(-0.00461757 -0.0168357 -6.6508e-19)
(-0.00178863 -2.7488e-06 4.66613e-20)
(-0.0538292 -0.176708 -8.4728e-18)
(-0.00161685 -0.000684406 -3.14699e-19)
(-0.00208017 0.000439726 -1.88142e-19)
(0.0148633 0.0617385 -4.68914e-19)
(-0.000291204 -9.52571e-05 4.43127e-19)
(-0.0487268 -0.029922 -1.3968e-18)
(0.015261 0.00735232 -2.7368e-19)
(-0.00243591 -1.06113e-05 1.26465e-19)
(-0.0218073 -0.108869 -1.55425e-18)
(-0.000959927 0.00306996 -5.48333e-19)
(-0.000849179 -0.000528493 2.32967e-19)
(-0.000670941 -0.00213156 4.7992e-19)
(0.0150526 0.0194916 -3.88708e-19)
(0.000331032 0.000745765 -3.92139e-19)
(0.109368 -0.0153839 9.84554e-18)
(-0.00189267 -0.000905988 7.66565e-19)
(0.0117821 0.0208055 -8.84703e-19)
(-0.00462885 -0.00307276 5.31517e-19)
(-0.064338 -0.202706 -8.34429e-18)
(-0.000353929 -0.00188128 -1.61227e-18)
(0.0112058 0.00560749 4.87185e-19)
(0.00398828 0.00133263 -4.42425e-19)
(-0.000209073 -0.0010744 5.32548e-18)
(0.0206459 -0.0132653 5.24676e-19)
(7.38757e-05 -4.90222e-05 7.96407e-20)
(0.0144355 0.0160112 1.54879e-18)
(0.00057453 -0.000329159 5.063e-19)