/*--------------------------------*- C++ -*----------------------------------*\
| =========                 |                                                 |
| \\      /  F ield         | OpenFOAM: The Open Source CFD Toolbox           |
|  \\    /   O peration     | Version:  v2012                                 |
|   \\  /    A nd           | Website:  www.openfoam.com                      |
|    \\/     M anipulation  |                                                 |
\*---------------------------------------------------------------------------*/
FoamFile
{
    version     2.0;
    format      ascii;
    class       surfaceVectorField;
    location    "700";
    object      Uf_0;
}
// * * * * * * * * * * * * * * * * * * * * * * * * * * * * * * * * * * * * * //

dimensions      [0 1 -1 0 0 0 0];


internalField   nonuniform List<vector> 
14885
(
(0.990187 0.00782453 2.89166e-21)
(0.99402 0.0118875 2.20147e-21)
(0.988356 0.0134399 2.70767e-21)
(0.85068 -0.221432 -1.47351e-20)
(0.827213 -0.245931 -5.73579e-21)
(0.81354 -0.186034 -1.68865e-20)
(1.06543 -0.0161443 8.94028e-22)
(1.06591 -0.0235723 -2.08784e-21)
(1.05653 -0.0199846 5.17589e-21)
(1.01527 0.00137977 -8.16948e-24)
(1.01538 0.00147972 7.05919e-23)
(1.01541 0.00139154 -1.41038e-22)
(1.01217 0.000418867 -7.17812e-22)
(1.01188 0.000303892 -1.25902e-22)
(1.01227 0.000451269 -1.2483e-22)
(0.962555 -0.271368 1.11805e-21)
(0.946574 -0.265767 -3.18918e-21)
(0.978017 -0.246129 -6.36935e-21)
(1.08358 0.234552 5.0173e-21)
(1.10865 0.242801 -7.99328e-21)
(1.09505 0.212314 6.21893e-21)
(0.911779 -0.269407 3.82823e-21)
(0.909501 -0.272188 -3.49279e-21)
(0.915822 -0.258514 0)
(1.01289 -0.000723225 6.88158e-22)
(1.01305 -0.00077985 6.53582e-22)
(1.01293 -0.000747898 -5.81687e-22)
(0.969652 0.0595982 0)
(0.971636 0.0657359 -1.28378e-21)
(0.96337 0.062897 1.79465e-21)
(0.943596 0.0206031 6.33269e-22)
(0.934113 0.0133307 -7.56788e-21)
(0.949815 0.00934782 4.91127e-21)
(0.881612 -0.183913 -1.44789e-20)
(0.884671 -0.248831 2.79576e-20)
(1.06784 0.031031 -2.52085e-21)
(1.06966 0.0291233 -3.59396e-21)
(1.06679 0.0280978 2.81095e-21)
(1.01331 -0.00104613 1.03643e-21)
(1.01324 -0.00077272 1.21481e-21)
(1.01316 -0.000877313 0)
(1.02687 0.00219505 -1.27921e-21)
(1.02742 0.00201932 -1.29246e-22)
(1.02736 0.00259498 9.40945e-22)
(1.01345 -0.00137923 2.41211e-21)
(1.01349 -0.0011893 1.70764e-22)
(0.982912 -0.262231 0)
(0.960863 -0.280019 8.9624e-22)
(0.986043 -0.243112 2.53416e-20)
(0.95503 0.0250478 0)
(0.939616 0.0319737 -1.82727e-21)
(1.04542 0.0118503 -1.40431e-21)
(1.04681 0.0113134 -3.18037e-22)
(1.04683 0.0129253 -1.11978e-21)
(1.00968 -0.00521288 -1.14079e-22)
(1.00729 -0.00504366 -9.18624e-22)
(1.00902 -0.00766701 -3.7414e-22)
(1.0654 0.0326976 3.2228e-22)
(1.06842 0.0340959 3.34449e-21)
(0.986222 0.00323396 -3.07961e-22)
(0.99257 0.0025937 -2.71858e-21)
(1.01517 0.00126509 -1.85789e-22)
(1.01512 0.00136259 -2.08272e-22)
(0.904059 -0.314142 0)
(0.904438 -0.313064 -2.12351e-21)
(0.903121 -0.312488 -1.09988e-21)
(1.01376 0.00238867 1.09239e-21)
(1.01383 0.00237684 1.78184e-22)
(1.01367 0.00224751 -4.71004e-22)
(1.00936 -0.000182267 -9.65761e-23)
(1.0104 -0.000113625 -3.72067e-22)
(1.01126 -0.0001324 1.60052e-22)
(0.975426 0.0555746 -1.45036e-21)
(0.968151 0.051982 0)
(1.01252 -0.000447019 -3.97263e-22)
(1.01259 -0.00048833 3.14269e-21)
(1.01259 -0.00045464 1.98562e-21)
(0.978456 -0.268085 3.62616e-21)
(0.947366 -0.294356 -3.82294e-21)
(0.894913 -0.293867 -2.13671e-20)
(0.89053 -0.27431 1.02118e-20)
(0.903621 -0.283782 1.09461e-20)
(1.00967 0.000186591 -8.05099e-22)
(1.0083 3.6292e-05 3.74328e-22)
(1.00817 7.14674e-05 -7.51748e-22)
(1.07264 0.0103132 3.91002e-21)
(1.07318 0.0103384 1.03123e-20)
(1.0729 0.00975994 5.7275e-21)
(1.01284 -0.000673876 7.83388e-22)
(1.01287 -0.000704548 7.47879e-22)
(1.01299 -0.000717594 -1.49436e-22)
(1.01282 -0.000655559 8.13729e-22)
(1.01271 -0.000632953 -8.79604e-22)
(0.917239 -0.263264 -5.7618e-21)
(0.907573 -0.267581 1.16123e-20)
(0.907986 -0.272088 -1.61599e-20)
(0.91268 -0.271268 1.51202e-20)
(0.912055 -0.259872 9.61787e-21)
(1.01568 0.000273751 -2.32339e-22)
(1.01631 0.000452509 -5.43558e-22)
(1.01664 0.000511605 -1.25566e-21)
(1.01205 -3.94354e-05 -1.13943e-21)
(1.012 -3.03536e-05 -1.8517e-21)
(1.01195 -3.88185e-05 -5.9741e-23)
(1.01072 0.00027351 3.84145e-22)
(1.01057 0.000190843 3.80057e-22)
(1.01626 -0.00653823 0)
(1.01666 -0.00602866 -5.3822e-23)
(1.01583 -0.00555774 0)
(0.8999 -0.308759 -1.22807e-20)
(0.894425 -0.302416 -8.00316e-21)
(1.01275 -0.000678921 8.67358e-22)
(1.1991 -0.0085631 -1.33115e-20)
(1.18025 -0.00313329 2.78479e-21)
(1.19083 -0.0239179 4.67973e-21)
(0.962665 -0.271546 -3.85913e-21)
(0.971194 -0.247342 7.97238e-21)
(0.991137 -0.250016 -2.35815e-21)
(1.01473 0.00212353 0)
(1.01459 0.00204624 2.29453e-22)
(1.01468 0.00200179 0)
(1.01372 0.00237801 1.9638e-22)
(1.01385 0.00248101 -2.96343e-23)
(1.01336 -0.000750446 1.60934e-23)
(1.01331 -0.000706422 -2.29683e-21)
(1.01333 -0.000690533 -8.95049e-22)
(1.02623 0.00191414 6.46644e-23)
(1.02623 0.00246377 -2.90717e-21)
(1.02279 0.101194 1.16014e-22)
(1.0296 0.105778 0)
(1.02908 0.0962114 0)
(1.0508 -0.0284181 0)
(0.956132 -0.0822286 -2.02783e-21)
(0.968902 -0.0873088 0)
(1.18507 -0.0234763 -4.18465e-21)
(1.21258 0.00935983 -4.36505e-21)
(1.01354 0.00100053 -3.37029e-22)
(1.01366 0.00096726 1.86892e-23)
(1.01359 0.00109275 -1.62908e-23)
(1.00431 -0.241116 -5.18883e-21)
(1.04421 0.0124462 6.61182e-23)
(1.04414 0.0110792 -2.71876e-22)
(0.81999 0.344833 2.51244e-20)
(0.815544 0.332674 3.75386e-21)
(0.805677 0.343045 9.77792e-22)
(0.710778 -0.418774 1.04979e-20)
(0.687152 -0.430029 1.83012e-21)
(0.687937 -0.400591 5.43494e-21)
(1.06305 0.0340862 2.69027e-21)
(1.06277 0.0312017 1.07384e-22)
(0.988677 0.00320633 -2.51605e-21)
(0.985933 0.00896628 -4.10221e-22)
(0.982247 0.00268508 1.44394e-21)
(1.02361 0.00767668 5.77594e-22)
(1.02395 0.00815889 -1.44436e-22)
(1.02327 0.0080176 1.09015e-21)
(1.01636 -0.0012095 3.43587e-24)
(1.01633 -0.0010714 3.14057e-24)
(1.01646 -0.00115855 2.55346e-23)
(1.01588 0.0964741 -1.02793e-21)
(1.01416 0.106405 1.53778e-22)
(0.842201 0.294639 -6.86402e-21)
(0.839355 0.30791 1.33632e-20)
(0.85427 0.306334 -7.38904e-21)
(1.16308 0.0057213 -3.021e-21)
(1.15558 -0.00798288 -1.00857e-21)
(0.954953 -0.22061 -1.31173e-21)
(0.945563 -0.230082 -4.60914e-21)
(0.963846 -0.202113 -1.57028e-21)
(0.996106 0.0261482 1.07717e-21)
(0.997614 0.0321508 -7.4088e-22)
(0.990908 0.0311254 -7.62243e-22)
(1.01354 0.0035444 1.09965e-21)
(1.0137 0.00393373 7.70023e-22)
(1.01335 0.00370991 -2.10977e-21)
(1.01353 -0.00466035 1.24619e-21)
(1.01181 -0.00498898 1.32698e-23)
(1.01356 -0.00672361 -2.71216e-22)
(0.996418 0.0390609 -4.04663e-22)
(0.99617 0.0465983 9.23207e-22)
(1.00335 0.0438111 9.41407e-22)
(1.01364 -0.000998808 8.25244e-22)
(1.01357 -0.000953196 3.26708e-22)
(1.01365 -0.0010456 6.58595e-22)
(0.996236 0.0321019 -6.95473e-22)
(0.990577 0.0328351 8.67737e-22)
(1.15351 -0.0410668 -7.735e-23)
(1.06829 -0.0703855 3.47413e-21)
(1.17113 -0.0237024 -9.74797e-21)
(1.01401 0.00938931 2.34533e-22)
(1.01346 0.00861819 1.4058e-22)
(1.0143 0.00839562 -1.28003e-22)
(1.01328 9.46517e-06 1.6601e-21)
(1.01337 -3.49281e-05 5.60512e-22)
(1.01316 -4.11374e-05 6.45166e-22)
(1.02391 0.00728717 1.73666e-22)
(1.02326 0.00719793 4.18471e-22)
(1.01365 0.00340972 1.4106e-21)
(1.01338 0.00319251 1.50943e-21)
(1.1384 -0.0535434 -1.41379e-21)
(1.03464 0.0228496 -1.26524e-22)
(1.03022 0.0206852 -2.04311e-23)
(1.03179 0.0260287 -7.26927e-22)
(1.01341 -0.000834935 1.12091e-21)
(1.01343 -0.000807764 1.49928e-21)
(1.03706 0.0193492 -1.18879e-22)
(1.04073 0.0249247 1.14807e-21)
(1.04687 0.00993455 1.21225e-21)
(1.04824 0.0109611 -1.23626e-21)
(0.955464 -0.290377 -7.51283e-21)
(0.940364 -0.278566 9.00297e-22)
(0.908892 -0.31002 -9.38053e-21)
(1.00442 8.97542e-05 0)
(1.00774 0.000155521 1.49118e-21)
(1.00419 6.45352e-05 0)
(1.0127 0.000705752 -1.0127e-23)
(1.0126 0.000712628 9.1321e-22)
(1.01264 0.000799394 2.4629e-22)
(0.978653 0.014008 -1.56453e-21)
(0.974344 0.0108538 -5.88444e-21)
(0.973496 0.0169181 -2.14486e-21)
(1.00515 0.159489 -6.93189e-23)
(1.00801 0.147556 -2.05818e-23)
(1.0171 0.158181 0)
(1.01366 -0.00304325 -5.13482e-22)
(1.01516 -0.00411416 1.2217e-21)
(1.06214 -0.00860663 9.15708e-22)
(1.07343 -0.0110116 4.05006e-21)
(1.01396 0.00040713 -1.12421e-21)
(1.01379 0.000463678 2.26592e-22)
(1.01394 0.0004845 7.83262e-24)
(1.01948 0.0282357 -7.95322e-22)
(1.01448 0.0302866 2.89984e-22)
(1.01576 0.0247014 1.43416e-21)
(1.05663 0.0229249 -3.89039e-22)
(1.05816 0.0243867 -2.80101e-21)
(1.05849 0.0220008 -5.23262e-21)
(1.02755 0.00147226 -1.01794e-21)
(1.02811 0.00184373 1.649e-21)
(1.14944 0.0121049 1.59391e-21)
(1.16743 0.0206717 4.77009e-21)
(0.990313 0.160322 4.64415e-22)
(0.999714 0.17429 9.5968e-22)
(0.986003 0.00874448 -8.6839e-22)
(0.984239 0.0146367 1.11994e-21)
(0.979525 0.0104276 -4.37898e-22)
(1.01661 0.00402054 1.93202e-22)
(1.01662 0.00412619 -5.91504e-23)
(1.0165 0.00394656 4.65614e-23)
(0.0486651 -0.00432468 -2.26924e-20)
(0.110739 -0.0271677 5.75926e-21)
(1.01038 -0.00320361 -1.11705e-21)
(0.968576 0.264336 6.15291e-21)
(0.95309 0.283064 1.17011e-20)
(0.945769 0.268564 5.35094e-21)
(1.02413 0.00694183 -4.68242e-22)
(1.02435 0.00654618 -1.23493e-21)
(1.02374 0.00651273 -1.25064e-21)
(1.05532 0.0217903 1.57652e-21)
(1.05506 0.0238747 5.40377e-21)
(0.946653 0.0863759 -2.73517e-22)
(0.942947 0.0947845 -1.46556e-21)
(0.955039 0.0940401 0)
(1.01785 0.00828108 -4.45955e-22)
(1.0174 0.00798782 0)
(1.01765 0.00769713 -3.11455e-22)
(1.07094 0.0105096 -8.06529e-22)
(1.07015 0.0104048 -4.33008e-21)
(1.0459 0.0189268 -2.41409e-22)
(1.0456 0.0204242 -6.3717e-21)
(1.04736 0.0198682 -4.12601e-21)
(1.01869 0.00708555 -7.90021e-26)
(1.0187 0.00673562 -1.56777e-23)
(1.01837 0.00669863 -5.24709e-22)
(0.560551 -0.33296 -2.51764e-20)
(0.566989 -0.343421 -4.15255e-20)
(0.563306 -0.357202 5.20874e-21)
(1.01372 0.00325154 4.24733e-22)
(1.01389 0.00356125 -2.40858e-22)
(1.06404 0.225524 0)
(1.06785 0.253743 1.63301e-22)
(1.01907 0.00749805 7.32547e-22)
(1.01864 0.00750211 3.15648e-22)
(1.02202 0.00702764 -9.95004e-24)
(1.02234 0.00748951 1.09088e-22)
(1.02265 0.00709008 1.11173e-21)
(1.04541 0.214764 3.3126e-21)
(1.05829 0.201423 0)
(0.952399 0.076313 -3.71913e-22)
(0.939981 0.0751038 -4.37042e-22)
(0.964798 -0.209621 -1.10433e-21)
(0.945572 -0.228912 2.15207e-21)
(0.994621 0.0206848 1.44183e-21)
(0.999955 0.022146 3.25748e-21)
(1.01405 -0.0013368 -4.6946e-24)
(1.01393 -0.00125758 0)
(1.01404 -0.00136214 -6.11119e-22)
(0.987281 -0.0061827 0)
(0.989554 -0.00289616 -1.49716e-21)
(0.985002 -0.00203976 0)
(1.00859 0.000200653 1.22117e-22)
(1.00959 0.000158844 0)
(1.01044 0.000127335 8.13394e-22)
(0.990891 -0.00112843 -1.2413e-21)
(0.992923 0.00404188 -2.81836e-21)
(1.01432 -0.00150041 5.32189e-22)
(1.01434 -0.00146902 -2.65172e-22)
(1.01447 -0.00158677 -4.40726e-22)
(1.01639 -0.00132776 5.22019e-23)
(1.01626 -0.0012392 0)
(0.969963 -0.08867 -7.83185e-21)
(0.938 -0.129332 9.64915e-21)
(0.940602 -0.0570538 -4.03583e-20)
(0.994646 -0.107715 -2.36909e-20)
(0.994485 -0.0303466 -1.25927e-20)
(1.01487 0.00221219 -6.81073e-23)
(1.01478 0.00224814 0)
(1.02286 0.0267245 2.5047e-21)
(1.02278 0.0321481 -5.49624e-22)
(1.01434 0.000219928 8.13592e-22)
(1.01414 0.000326351 -2.89582e-22)
(1.01434 0.000352967 9.74117e-22)
(1.01451 0.000113815 -1.26503e-21)
(1.01425 0.000139221 0)
(0.83204 0.342068 1.2434e-20)
(0.828389 0.352513 -8.01652e-21)
(1.09717 -0.0559971 3.57812e-21)
(1.09582 -0.0678293 -5.85936e-22)
(1.08504 -0.0581873 -2.76639e-21)
(0.985318 -0.01091 -1.03031e-22)
(0.990593 -0.0101765 0)
(1.01247 -0.00021509 0)
(1.01237 -0.00020628 -9.63369e-22)
(1.01243 -0.000265247 9.4632e-22)
(1.01332 0.00220662 1.19165e-22)
(1.01326 0.00220488 6.69331e-22)
(1.01338 0.0024574 -6.34809e-22)
(1.01556 -9.18531e-05 1.99646e-21)
(1.01543 0.0001817 1.5844e-21)
(1.01589 5.7217e-05 -5.21031e-22)
(1.01445 0.00360544 -2.97189e-22)
(1.01428 0.00340231 1.37991e-21)
(1.01424 0.00346745 1.20449e-21)
(1.03115 0.207461 4.09745e-21)
(1.03445 0.229293 7.32654e-21)
(1.23747 0.0952021 7.90982e-21)
(1.20505 0.0499312 0)
(1.2369 0.0708631 -4.05641e-22)
(1.01967 -0.00448782 1.17515e-21)
(1.01857 -0.00567278 -4.76071e-23)
(1.02066 -0.00609959 -2.78781e-22)
(0.546724 -0.269352 -6.22599e-21)
(0.542646 -0.227508 -2.2869e-20)
(1.03381 0.0134503 -3.07154e-22)
(1.03452 0.0143992 -1.88617e-21)
(1.03493 0.0130902 -8.96948e-23)
(0.982234 0.243314 0)
(0.991821 0.251935 -5.33439e-22)
(1.11835 0.0330861 0)
(1.1193 0.0250215 0)
(1.11106 0.0270891 -2.63883e-21)
(1.01149 -9.13958e-05 9.15833e-22)
(1.01172 -0.00013219 2.55388e-24)
(1.01188 -0.000165208 -6.78881e-22)
(0.578662 -0.303493 -1.7596e-20)
(0.557979 -0.297929 1.27582e-20)
(1.01247 -0.000432562 -1.47187e-21)
(1.0125 -0.000397392 -8.81725e-22)
(1.025 0.0341739 0)
(1.02621 0.0321842 1.28879e-21)
(1.0274 0.034487 0)
(1.01211 -5.14614e-05 -8.2781e-22)
(1.01217 -3.38766e-05 -4.91966e-22)
(0.98228 0.0163442 2.52962e-22)
(0.983038 0.0115274 3.02154e-21)
(1.01368 -0.000969651 0)
(1.01374 -0.00107156 0)
(1.01497 0.00460944 0)
(1.01463 0.00510224 -4.14321e-22)
(1.01456 0.00440323 -4.60201e-22)
(0.850459 -0.312972 1.7179e-20)
(0.834426 -0.289792 7.33137e-21)
(0.849249 -0.296729 2.74201e-20)
(1.01376 0.00312682 6.53729e-22)
(1.01357 0.00302957 -1.27498e-21)
(1.00999 -8.67875e-06 1.16884e-22)
(1.01091 -9.70108e-05 -7.66108e-22)
(1.01052 -5.70278e-05 -1.795e-21)
(1.03636 0.0160078 1.7562e-21)
(1.03541 0.0153002 2.94277e-21)
(1.03661 0.0146748 1.43118e-21)
(1.07561 0.029609 -2.30295e-21)
(1.07824 0.0292143 -3.3771e-21)
(1.07568 0.0268115 -3.20911e-21)
(0.987798 0.00390796 7.64228e-22)
(0.991131 0.00795986 7.46668e-22)
(1.02281 0.0340477 0)
(1.02442 0.0365093 0)
(1.09147 -0.0428602 3.14282e-21)
(1.10655 -0.0488957 5.07592e-21)
(0.728765 -0.397792 3.15308e-21)
(0.734164 -0.437779 4.6573e-23)
(1.01568 -0.00040912 0)
(1.01527 -0.000200619 -2.91323e-23)
(1.00843 -0.000177492 -2.2049e-22)
(1.00695 -0.000226899 6.68565e-22)
(1.01174 0.000370967 6.69144e-23)
(1.01066 0.000280162 -2.71604e-23)
(1.01048 0.000260886 -4.47237e-22)
(1.01564 -0.00711639 -2.00064e-22)
(1.01677 -0.00742345 0)
(1.23842 0.120907 7.81656e-22)
(1.23628 0.123189 7.72854e-21)
(1.01397 0.000336116 -1.03046e-21)
(1.03142 0.011692 2.09559e-21)
(1.03244 0.0116257 -1.81816e-21)
(1.03172 0.0107469 -5.04604e-22)
(0.861011 -0.317794 -5.38068e-21)
(0.869907 -0.333919 -1.70937e-20)
(1.01316 4.56587e-05 9.28178e-22)
(1.01337 7.2038e-05 -6.87972e-22)
(1.07177 0.010555 -5.60046e-21)
(1.07135 0.0114267 -5.1126e-21)
(0.906867 -0.275825 -1.79459e-20)
(0.903137 -0.270224 -1.71102e-20)
(1.01277 -0.000613088 1.24853e-21)
(1.01273 -0.000593967 -2.41401e-22)
(1.01266 -0.000586367 4.05153e-22)
(0.986852 -0.0115752 -4.357e-22)
(0.982015 -0.00693673 -1.74889e-21)
(0.97961 -0.0134891 -1.94495e-21)
(0.88812 -0.248193 1.24933e-20)
(0.878141 -0.256108 1.70427e-20)
(1.03522 0.0375494 3.51413e-20)
(1.04658 0.114399 -3.7472e-20)
(1.05758 0.0607537 -2.35935e-20)
(1.01292 -0.00065496 -1.83309e-23)
(1.0441 0.0138565 -1.01078e-21)
(1.04293 0.0129879 9.00672e-23)
(1.01213 0.0153734 3.0911e-20)
(1.02507 -0.0370933 6.25477e-20)
(1.01422 0.00256718 9.3178e-23)
(1.01432 0.0026222 -3.00711e-22)
(1.01423 0.00248318 -2.90243e-22)
(1.01216 -6.95771e-05 6.86573e-22)
(1.01205 -7.36889e-05 -5.95651e-22)
(1.01326 0.00198766 8.15839e-23)
(1.01335 0.00220084 -4.64896e-22)
(1.01352 -0.00094347 -3.81101e-22)
(1.0135 -0.000889397 -2.61285e-22)
(1.03311 0.0124599 2.16499e-21)
(1.03265 0.0135961 7.91846e-22)
(1.04188 0.0237003 -9.80787e-22)
(1.04166 0.0251449 -1.07504e-21)
(1.04349 0.0242742 -1.85676e-21)
(1.02455 0.00738218 6.70439e-22)
(1.01415 -0.00122195 4.96241e-22)
(1.01411 -0.00125467 4.06107e-22)
(1.01402 -0.00114873 -6.61335e-22)
(0.956535 -0.0245063 2.40288e-22)
(0.948377 -0.0139789 3.8248e-21)
(0.947952 -0.0295222 -6.24299e-21)
(1.06077 0.016378 0)
(1.06079 0.014697 -5.96132e-21)
(1.06224 0.0161518 4.95124e-21)
(1.01462 0.0100008 4.91167e-23)
(1.01374 0.0103842 4.98516e-23)
(1.01631 -0.000919036 9.02501e-23)
(1.01628 -0.000981583 9.01269e-23)
(1.0162 -0.000863413 8.19494e-23)
(0.787407 -0.183102 -3.61721e-21)
(0.796991 -0.18552 4.92208e-21)
(0.699141 -0.233545 2.49155e-21)
(1.00997 0.000111399 -6.25149e-23)
(1.01087 6.14409e-05 1.10501e-21)
(1.01045 7.45243e-05 1.39062e-21)
(0.827114 -0.285405 1.63959e-20)
(1.06319 0.037331 -2.19127e-21)
(1.06049 0.0355177 0)
(1.01256 -0.000221576 0)
(1.0125 -0.000164992 -1.01602e-21)
(1.0422 0.0219155 6.36182e-21)
(1.04042 0.0229063 2.45075e-21)
(0.849442 0.355834 5.28984e-22)
(0.83696 0.356017 -1.11482e-20)
(0.84311 0.349009 -5.32402e-21)
(1.02718 0.00114192 2.23361e-21)
(1.0278 0.000994905 0)
(0.688259 -0.0209032 -1.26567e-20)
(0.600285 -0.018107 1.66144e-21)
(0.6951 -0.0436344 3.37978e-20)
(0.998562 -0.0286803 3.33958e-21)
(0.991672 -0.0268392 -1.51259e-21)
(0.992558 -0.0340502 -3.23736e-21)
(-0.00527915 0.0497074 3.90146e-20)
(0.00421608 0.0703489 -2.46601e-21)
(0.0158808 0.0150424 2.13911e-20)
(1.01274 0.000643582 -4.92453e-22)
(1.01278 0.000712141 -8.36091e-22)
(1.0816 -0.0873257 9.07419e-22)
(1.0305 -0.0967747 0)
(1.07101 -0.0831823 5.75899e-21)
(1.13618 0.0173078 3.7691e-22)
(1.1279 0.0219801 0)
(1.13889 0.0286054 0)
(0.930325 0.0514813 -2.17771e-22)
(0.943689 0.0549947 7.89966e-22)
(0.942144 0.0420488 7.31747e-22)
(1.01251 -0.000202126 -2.26454e-22)
(1.01211 -0.000191747 -1.36644e-21)
(1.01235 -0.000207668 -1.65168e-21)
(0.939215 0.29947 -6.99188e-21)
(0.958416 0.291036 5.15899e-21)
(1.01536 0.000398479 -6.13339e-22)
(1.01508 0.000261434 -1.42378e-21)
(0.930808 -0.272017 0)
(0.931398 -0.253379 -2.28823e-21)
(0.949122 -0.245244 -1.06082e-20)
(1.07261 0.0295794 -1.11169e-21)
(1.07451 0.0328177 -1.74378e-21)
(1.02172 0.00650971 -9.21726e-24)
(1.02146 0.00684027 -2.49063e-24)
(1.01456 0.00378273 -1.95421e-21)
(1.01462 0.00367909 -2.42692e-21)
(1.07206 0.00998147 -1.22382e-20)
(1.01272 -0.000256731 8.37621e-23)
(1.01265 -0.000233357 4.57924e-22)
(0.91924 0.0621404 -1.30066e-21)
(0.915179 0.0455957 -3.12388e-22)
(0.954601 0.0591167 7.60765e-22)
(0.96229 0.0510302 1.49928e-22)
(0.965531 0.0626688 -2.66301e-22)
(1.01512 0.000339171 3.8364e-22)
(1.01592 0.000492857 -3.33283e-22)
(1.01482 0.000335245 -3.34552e-22)
(1.00111 0.0284056 0)
(1.00611 0.0303088 -1.22994e-21)
(1.00449 0.0235641 0)
(1.01258 -0.000246694 3.25119e-22)
(1.01247 -0.000263033 1.23652e-23)
(1.01282 -0.000288685 -1.8976e-22)
(1.08849 0.227347 0)
(1.10525 0.195481 -6.47126e-22)
(1.09994 0.209016 0)
(1.01472 0.000711818 2.30168e-22)
(1.01472 0.000736104 -4.56082e-23)
(1.01487 0.000773517 4.45412e-23)
(1.10013 -0.0832644 2.90261e-21)
(0.376236 -0.0619974 9.25574e-22)
(0.368227 -0.0323503 6.9421e-21)
(0.46018 -0.0542657 8.52556e-21)
(0.991262 -0.014454 -1.04698e-21)
(0.992004 -0.00901432 -4.31289e-22)
(0.287098 -0.0761661 -3.13483e-21)
(0.369807 -0.097379 1.20614e-20)
(0.996837 0.025273 0)
(1.01549 0.00155631 0)
(1.01537 0.00154396 1.96062e-22)
(1.13213 0.00737131 -1.28556e-21)
(1.01583 0.0046978 3.5559e-22)
(1.01587 0.00428306 2.89483e-23)
(1.01602 0.00443524 7.45801e-22)
(1.02058 -0.00331619 2.87402e-21)
(1.01895 -0.00334101 5.74274e-22)
(0.980085 0.0441706 3.90572e-21)
(0.981516 0.0505474 4.73008e-21)
(0.986456 0.0464184 2.66109e-21)
(1.01821 0.00854262 -5.89072e-22)
(1.01789 0.00882936 -2.57375e-22)
(1.01221 -9.64947e-05 8.91714e-22)
(1.01226 -6.38408e-05 2.20209e-21)
(1.01476 3.27952e-05 6.51411e-22)
(1.01464 -8.73032e-05 -1.25623e-21)
(1.05926 0.0165436 0)
(1.06062 0.0182871 7.05075e-21)
(1.00784 0.000103664 4.19698e-22)
(1.00618 0.000155492 1.05157e-22)
(1.01411 0.00251209 2.86332e-22)
(1.01422 0.00264851 -6.2752e-22)
(0.905848 -0.272114 5.78667e-21)
(1.02192 0.000339956 4.39974e-22)
(1.0217 -0.000811317 -4.93399e-23)
(1.02313 -0.000160488 -8.48058e-22)
(0.00922748 0.027055 4.35851e-21)
(0.0663758 -0.0480874 7.58585e-21)
(1.02555 0.0303486 -4.95493e-22)
(1.02778 0.0306302 -5.09519e-23)
(0.904592 -0.308769 -1.3374e-21)
(0.908358 -0.30579 -1.81139e-22)
(1.04979 0.212671 -4.82164e-21)
(1.03141 0.193896 -6.8517e-21)
(1.02559 0.222121 -3.18416e-21)
(0.81301 -0.0561624 8.28778e-21)
(0.805473 -0.0215365 2.35085e-21)
(0.81071 -0.0692007 1.22067e-20)
(1.01644 -0.00144889 -2.12539e-23)
(1.01654 -0.00141786 3.29667e-23)
(1.01504 -0.00779974 3.71997e-22)
(1.01461 -0.00654547 2.93812e-22)
(0.763768 0.30394 -2.17447e-20)
(0.767502 0.263843 -6.62801e-21)
(0.788101 0.308334 2.4567e-20)
(1.01212 0.000429035 -4.50574e-22)
(1.01233 0.000443793 4.51484e-22)
(0.8229 -0.082958 7.59862e-22)
(0.820553 -0.0435187 -9.48542e-21)
(1.02514 0.0279458 -9.24445e-22)
(1.0235 0.0290707 -9.95348e-22)
(1.03746 0.0163721 2.51405e-21)
(1.03629 0.0169106 -2.50627e-21)
(1.01102 0.000221511 -6.38269e-22)
(1.01154 0.000251209 -8.40529e-22)
(1.04631 0.0173015 9.11491e-21)
(1.04448 0.0178523 -1.89224e-21)
(1.01266 -0.000226223 -9.34405e-22)
(1.01262 -0.000286406 0)
(0.959121 -0.0956078 6.10378e-22)
(0.955416 -0.107278 0)
(0.938751 -0.104102 -7.05029e-22)
(0.754201 0.280509 8.83776e-21)
(0.772487 0.280359 1.52312e-20)
(0.772043 0.303454 2.5037e-20)
(1.01536 0.0048553 -3.47345e-22)
(1.01532 0.00430923 4.4733e-22)
(1.02199 0.00137065 -3.07708e-22)
(1.02095 0.00067603 4.34217e-22)
(1.00955 4.56947e-05 -1.10473e-21)
(1.00875 0.000100072 -4.77801e-22)
(1.01608 0.00318609 4.38967e-22)
(1.01607 0.00275435 -6.22384e-22)
(1.01572 0.00324732 -8.42705e-22)
(0.192019 -0.0851505 5.62699e-20)
(0.145684 -0.0307341 8.68269e-21)
(1.01441 0.000888225 0)
(1.01446 0.000963744 0)
(1.01453 0.000845369 -4.2337e-23)
(1.00955 0.0314079 1.40727e-21)
(1.01278 0.0361344 1.70107e-22)
(1.01223 -2.39839e-05 -9.54007e-24)
(1.01229 -3.08157e-05 1.15202e-22)
(1.01216 -3.1986e-05 1.77711e-22)
(1.01343 0.00105029 1.08202e-22)
(1.01348 0.00093524 -4.51481e-22)
(1.01323 -0.000659873 1.33471e-21)
(1.01328 -0.000735072 -1.42277e-21)
(1.07095 0.0268744 -3.01487e-21)
(0.733082 0.274507 7.92184e-21)
(0.730856 0.255408 1.78279e-21)
(1.00385 0.0323558 -1.82929e-21)
(1.00711 0.0266318 1.65673e-21)
(0.96245 -0.0859973 8.76259e-22)
(0.975547 -0.0894035 -8.83032e-21)
(1.00477 -7.268e-05 0)
(1.00343 -8.28128e-05 0)
(1.00677 -8.02828e-05 0)
(1.01486 0.000147884 1.07453e-21)
(1.01501 -5.54887e-05 1.66564e-21)
(1.01982 0.0013679 -2.41357e-23)
(1.01955 0.0014246 7.20855e-22)
(1.01981 0.00158473 0)
(1.14565 0.0221104 0)
(1.13158 0.0432964 1.75492e-20)
(1.01303 0.000445092 -5.19985e-22)
(1.01299 0.000417379 -1.13183e-23)
(1.01299 0.000264865 1.06529e-21)
(0.979561 -0.101752 -4.53715e-22)
(0.959572 -0.110608 3.04377e-21)
(1.01639 0.00321751 9.17851e-22)
(1.01614 0.00353327 3.80349e-22)
(0.999924 -0.0107669 -2.07235e-21)
(0.996673 -0.00801475 1.20102e-21)
(0.99693 -0.0134949 1.15613e-21)
(1.03712 0.00459195 1.5995e-21)
(1.03813 0.00420326 1.61395e-21)
(1.03804 0.00535829 -8.71588e-22)
(1.01417 0.00211673 0)
(1.0143 0.00219393 -5.13877e-22)
(1.01423 0.0022282 4.37169e-22)
(1.00646 8.52558e-05 0)
(1.00355 -5.51648e-05 5.26571e-22)
(0.860007 0.350088 -1.53196e-20)
(1.01267 -0.000520703 1.09177e-21)
(1.01261 -0.000515447 -2.39491e-22)
(0.812991 0.0560771 -3.53355e-21)
(0.817413 0.0930462 1.97502e-22)
(0.830482 0.0842894 6.83388e-22)
(0.783491 -0.0307675 -1.05851e-20)
(0.685899 0.00524255 -1.62965e-20)
(1.03618 0.00511273 -1.90973e-21)
(1.03617 0.00417048 -9.61133e-22)
(1.01498 7.56276e-05 -2.93086e-21)
(1.01122 1.92036e-05 -1.21825e-21)
(1.01068 8.44893e-05 3.08348e-22)
(0.155248 -0.156308 -4.11619e-21)
(0.184318 -0.213536 -2.40032e-21)
(0.152871 -0.193278 -1.46773e-20)
(0.997457 -0.019973 -3.45026e-21)
(1.00213 -0.0210683 6.45942e-22)
(0.999097 -0.0248152 1.17978e-21)
(1.01337 -0.000779131 -2.59836e-23)
(1.01344 -0.000846396 3.50801e-22)
(1.01345 -0.000825035 -4.41538e-22)
(0.990793 -0.0106499 -7.60205e-22)
(0.986818 -0.00684854 3.60762e-21)
(0.992815 -0.005763 1.19667e-21)
(1.00955 -4.80237e-05 4.92105e-22)
(1.00884 1.39663e-05 1.17168e-23)
(1.05529 0.0375457 -4.11651e-21)
(1.0575 0.0396775 -1.58976e-21)
(1.05801 0.0365774 -3.99313e-21)
(1.00883 -0.0143626 -8.70624e-22)
(1.00769 -0.0119922 -6.51453e-22)
(1.00622 -0.0147948 -4.05486e-22)
(1.01002 0.000181692 -4.82108e-22)
(1.01379 0.000235318 4.70331e-22)
(1.00967 0.000195404 4.1467e-22)
(0.806744 0.09734 -7.49701e-21)
(0.80976 0.0807316 4.47273e-21)
(0.807881 0.0485853 8.47458e-21)
(0.999956 0.0384458 -8.35505e-22)
(1.01408 -0.00153086 6.30923e-22)
(1.01435 -0.00178778 6.532e-22)
(1.01428 -0.00152807 5.93685e-22)
(0.89964 -0.139017 -9.33305e-22)
(0.893018 -0.124537 1.49293e-21)
(0.916081 -0.125728 -2.6887e-22)
(1.02123 -0.00193629 1.84306e-21)
(1.02247 -0.00297658 1.8736e-21)
(1.0198 0.00114849 -1.38611e-21)
(1.02009 0.00131248 1.28911e-21)
(1.01238 -0.000196162 0)
(1.01276 -0.000294429 -3.24306e-24)
(1.03419 0.0155831 1.37252e-21)
(0.948076 0.0694146 2.23829e-22)
(1.01626 -0.000842055 -7.13019e-23)
(1.01641 -0.000949578 -4.44182e-23)
(1.06791 0.22644 -2.21774e-21)
(1.07027 0.199212 1.58771e-21)
(0.994179 -0.017837 -1.76604e-21)
(0.997951 -0.0155953 1.47127e-23)
(0.834331 0.284255 0)
(0.850894 0.283164 1.60237e-21)
(1.01303 0.00049282 -1.34743e-21)
(1.01302 0.00052341 3.63082e-22)
(1.01298 0.000280695 1.70146e-21)
(1.01552 -0.00905232 1.95909e-22)
(1.01417 -0.0086657 -2.79452e-23)
(0.884748 -0.152463 0)
(0.906936 -0.149965 1.80059e-22)
(0.812141 0.104522 -5.19931e-21)
(0.810875 0.139418 -9.19863e-21)
(1.01351 0.000159899 2.05097e-22)
(1.01495 0.000281072 1.40845e-21)
(1.01411 0.00317703 1.13669e-22)
(1.01395 0.00303136 1.03511e-22)
(1.01397 0.00295389 -1.09084e-22)
(1.01674 0.00407376 -1.29913e-22)
(1.01658 0.00387036 -1.25045e-22)
(1.01392 -0.00150418 0)
(1.0139 -0.00131132 -3.89805e-22)
(1.01138 -0.0140149 1.01659e-21)
(1.01032 -0.0170167 -1.38166e-21)
(0.995127 -0.0142753 2.82658e-21)
(0.988767 -0.0160384 -8.22051e-22)
(1.01319 -0.000630107 1.80641e-21)
(1.01322 -0.000619685 1.8383e-21)
(0.964582 -0.0185593 6.07739e-22)
(0.964109 -0.0288461 1.77216e-22)
(0.908669 -0.299092 8.46877e-21)
(0.921635 -0.288201 6.74234e-21)
(0.911315 -0.285194 -2.9099e-21)
(1.01418 -0.00141722 4.00313e-22)
(1.01406 -0.00130693 -5.88899e-22)
(1.00819 -0.000117808 0)
(1.00811 -8.07802e-05 0)
(1.00589 -6.64674e-05 0)
(0.87811 -0.142465 -7.41527e-21)
(0.996065 -0.0923026 -1.48882e-20)
(1.00301 -0.0121555 -1.03378e-24)
(1.00197 -0.00810312 -1.20935e-21)
(1.05552 0.0651621 -1.00103e-21)
(1.0627 0.0579805 -1.91902e-21)
(1.05396 0.0747763 3.35632e-21)
(0.943168 -0.00342574 -5.59136e-22)
(0.932404 -0.0027875 -8.45327e-22)
(0.938941 0.0116374 -1.23271e-21)
(1.0153 0.000306179 3.60776e-22)
(1.01305 0.000208659 4.01417e-22)
(1.01725 -0.0162583 -9.60432e-22)
(1.01916 -0.0144884 -1.45456e-21)
(1.01653 -0.0135424 -4.40842e-22)
(1.01322 0.00179211 5.4354e-22)
(1.0132 0.00177694 4.95342e-22)
(1.02029 -0.00132856 -1.31054e-21)
(1.05267 0.0382075 -1.83192e-21)
(1.05329 0.0354679 1.33321e-21)
(1.01559 0.000566559 1.1677e-21)
(1.01522 0.000604808 -1.44958e-22)
(1.01912 0.00526366 -5.59555e-23)
(1.01902 0.00495642 -4.81963e-22)
(1.01936 0.00515387 5.42631e-22)
(0.99703 0.0156217 9.78536e-22)
(0.998406 0.0107901 -1.40453e-21)
(1.01023 -1.47635e-05 0)
(1.00903 -4.87032e-06 -1.03504e-21)
(1.01023 7.83952e-06 -5.68713e-22)
(0.926883 -0.284403 -9.03467e-22)
(0.917792 -0.293045 2.15858e-21)
(0.982572 -0.00162208 -1.85597e-21)
(0.978598 -0.00685042 -1.19873e-21)
(0.610959 -0.300024 1.03353e-20)
(0.596841 -0.298718 1.76739e-20)
(0.577398 -0.343171 2.3955e-20)
(1.05538 0.0563444 1.42129e-22)
(1.04786 0.067584 7.33902e-23)
(1.01276 -0.000231604 1.64391e-22)
(1.01271 -0.000168654 5.45202e-23)
(0.874329 -0.312275 -4.57217e-21)
(0.856275 -0.29598 -4.60172e-21)
(1.11444 0.0407557 0)
(1.12418 0.0398862 0)
(1.06326 0.0407419 -2.1981e-21)
(1.06007 0.0421102 1.96671e-21)
(1.06293 0.0444638 1.74245e-21)
(1.01651 -0.00157918 -5.49787e-23)
(1.01635 -0.00147864 -1.54945e-22)
(1.00753 -0.0133829 0)
(1.01012 -0.0132509 0)
(1.00876 -0.0108574 -1.66579e-21)
(1.00851 0.000202072 -4.2689e-22)
(1.01095 0.000298092 3.33299e-23)
(1.01112 0.000317274 -4.0272e-22)
(1.01226 -0.000127126 -1.30231e-21)
(1.01216 -0.000131221 1.50036e-21)
(1.01294 0.000581971 1.05051e-21)
(1.01285 0.000534667 -3.58041e-22)
(1.01286 0.000452424 1.05194e-21)
(1.01246 0.00045795 5.29277e-22)
(1.01275 0.000546027 3.47778e-22)
(1.01258 0.000479042 -5.87759e-22)
(1.01694 -0.00735667 -1.43684e-21)
(1.01573 -0.00826124 1.10111e-21)
(1.01551 -0.00680389 -2.20112e-21)
(1.03133 0.00406084 -2.77551e-21)
(1.0313 0.00335548 -2.98215e-22)
(1.03207 0.00374761 -2.87288e-21)
(0.989505 0.0183829 4.35887e-22)
(0.983983 0.021093 8.2929e-22)
(1.01774 -0.00644182 0)
(1.01866 -0.00791823 1.76275e-22)
(1.01565 0.000193582 -2.17086e-22)
(1.01535 3.91291e-06 1.38462e-21)
(1.01545 0.000225483 3.35755e-22)
(0.82649 0.31925 1.26402e-21)
(0.837254 0.322252 -2.56023e-21)
(1.01506 -0.0178089 -1.30548e-22)
(1.01848 -0.0198885 9.51462e-22)
(1.01563 0.00498198 1.02061e-22)
(1.0159 0.00506477 3.67981e-22)
(1.00432 0.000103549 4.31262e-22)
(0.739214 -0.0971543 2.16135e-20)
(0.703994 -0.11669 7.79059e-22)
(0.825696 -0.103783 6.10658e-21)
(1.00589 -2.66209e-05 0)
(1.00342 3.52814e-05 0)
(1.00338 -3.27332e-05 4.21749e-22)
(1.01874 0.00637947 5.24691e-23)
(1.01906 0.00671792 -8.91045e-23)
(1.01677 0.000344268 9.28768e-22)
(1.01586 0.000469521 0)
(1.03039 0.0116744 2.6209e-21)
(1.03095 0.0126124 3.19057e-22)
(0.887274 -0.233272 -6.79427e-22)
(0.869057 -0.22757 -8.38604e-21)
(0.884467 -0.255711 1.473e-21)
(0.889391 -0.301455 1.02201e-20)
(0.88664 -0.323258 -1.17164e-20)
(1.03349 0.0113239 2.07368e-21)
(1.01304 0.000688232 0)
(1.01292 0.000593605 4.72224e-22)
(1.01294 0.000663194 -3.09533e-22)
(1.01845 -0.00540995 0)
(1.01888 -0.00439643 -6.95285e-22)
(1.01992 -0.00546983 0)
(1.01719 -0.00529396 7.11484e-22)
(0.838702 0.337413 1.61376e-20)
(0.842189 0.340505 4.1263e-21)
(0.843062 0.333884 2.99374e-20)
(1.01622 -0.00102892 0)
(1.00526 0.000127009 -1.27965e-23)
(1.0051 0.000119321 -1.26573e-23)
(1.01307 0.000645096 -2.84238e-21)
(1.01115 -0.000204734 -2.47644e-22)
(1.0131 -0.000386256 -2.75161e-24)
(1.01082 0.135633 -2.64789e-22)
(0.999955 0.135448 1.86996e-21)
(1.01313 0.00118273 0)