/*--------------------------------*- C++ -*----------------------------------*\
| =========                 |                                                 |
| \\      /  F ield         | OpenFOAM: The Open Source CFD Toolbox           |
|  \\    /   O peration     | Version:  v2012                                 |
|   \\  /    A nd           | Website:  www.openfoam.com                      |
|    \\/     M anipulation  |                                                 |
\*---------------------------------------------------------------------------*/
FoamFile
{
    version     2.0;
    format      ascii;
    class       surfaceScalarField;
    location    "800";
    object      phi;
}
// * * * * * * * * * * * * * * * * * * * * * * * * * * * * * * * * * * * * * //

dimensions      [0 3 -1 0 0 0 0];
oriented        oriented;


internalField   nonuniform List<scalar> 
14907
(
-0.447867
0.314878
0.133002
-0.581861
0.363527
0.218347
-0.222861
-0.0242371
0.247164
0.588116
-0.588153
-0.0629414
0.0310274
0.0319143
0.426095
-0.529888
0.103879
0.147749
-0.077291
-0.0704587
0.152994
-0.15702
0.00402708
0.400073
-0.229301
-0.170792
-0.372606
-0.106956
0.479638
-0.0142245
-0.00206987
0.0162944
0.0648033
0.523226
0.35304
-0.61214
0.259215
0.643926
-0.340508
-0.303128
0.231323
-0.120458
-0.110851
0.542358
-0.362049
-0.180399
0.308461
0.233817
-0.290698
-0.300543
0.591292
-0.257689
-0.190171
-0.0131753
0.0719291
-0.058753
-0.386534
-0.144343
0.530583
0.115835
0.0467126
-0.162547
0.394192
-0.623372
0.229349
-0.545582
0.286202
0.259669
-0.338569
-0.243272
-0.260074
0.140241
0.119839
0.630659
-0.367502
-0.263232
0.266894
-0.151223
-0.115646
0.396009
-0.201289
-0.194738
-0.301442
0.199838
0.10164
-0.171812
0.409393
-0.237568
0.000592851
0.00717199
-0.00776483
0.213416
-0.585839
0.126406
0.127215
-0.253591
-0.103378
0.234132
-0.130724
-0.306482
-0.238792
-0.29533
0.157665
0.137672
0.0882532
0.121138
-0.209395
-0.579134
0.272668
-0.094505
0.149306
-0.0547849
0.0357883
-0.0489631
-0.230641
0.128831
0.101827
0.104642
0.0431055
-0.147412
0.287406
-0.139937
-0.036576
-0.0263651
-0.145933
0.233526
-0.0875885
-0.27922
0.207694
0.0715585
-0.10253
-0.0863791
0.188906
-0.0594734
-0.149565
0.209058
-0.161711
0.267396
-0.105684
-0.582471
0.114878
0.467567
-0.0795738
-0.192828
-0.0294189
0.162449
-0.133004
0.369133
-0.264193
-0.104902
-0.11174
-0.183583
0.434021
-0.00792998
0.307273
0.0887176
-0.170068
-0.109108
0.276747
-0.150298
-0.178209
0.148827
0.297677
-0.494785
0.197103
0.306885
0.139613
-0.446556
-0.224212
0.120861
0.0874083
-0.310191
-0.270384
0.211488
0.0589056
-0.142651
-0.113809
0.256502
-0.0866686
0.233982
-0.147297
0.0869918
-0.0805532
-0.00643748
-0.000832439
-0.0111245
0.0119571
-0.163767
0.349756
-0.185977
0.220856
0.14831
0.0620326
0.138275
-0.285635
0.133566
-0.156633
0.0230694
0.181888
0.0839859
-0.265826
0.495174
-0.208521
-0.00618026
0.0372078
0.415984
-0.218003
-0.197981
0.166773
-0.0962521
-0.0705126
-0.0531539
0.117667
-0.0645142
-0.183667
0.124204
-0.0910134
0.0544378
-0.132378
-0.141589
0.274029
0.243437
-0.12714
-0.116283
-0.255918
0.169278
0.521669
0.083233
-0.604874
0.0935845
-0.292718
0.199192
-0.00314507
-0.105408
0.108554
-0.328231
0.112141
0.216142
0.354324
-0.260704
-0.15115
0.277219
-0.126042
-0.0497466
-0.0412665
0.188084
0.0788327
-0.284907
-0.164838
-0.136569
0.137978
-0.286132
0.148171
0.488613
-0.195346
-0.293257
0.164153
0.15671
-0.320851
-0.196299
0.101816
-0.39929
0.128687
0.27058
0.395427
0.201588
0.111105
-0.130941
0.0198411
-0.152877
0.0717495
0.0811289
0.546903
-0.0250905
0.259843
-0.147704
-0.112122
-0.128304
0.134549
-0.00624258
-0.392392
0.310484
0.0819734
0.155363
0.333268
-0.590016
0.203212
-0.239217
-0.268632
0.572805
-0.302249
-0.270565
-0.466644
0.325624
0.140993
0.224645
-0.132501
-0.0921144
-0.0141776
0.0133452
-0.204635
-0.0657378
-0.240919
0.43899
-0.198088
0.263778
-0.352673
0.0889094
0.158296
0.298089
-0.160095
0.00442804
-0.00372754
-0.000700404
-0.131232
-0.196932
0.0896787
0.0633169
-0.145843
0.286265
-0.140388
0.192158
0.186642
-0.378804
0.144681
-0.0335718
-0.269912
0.137574
-0.116124
-0.0408946
-0.225355
0.181262
0.0441137
-0.0150569
-0.113242
-0.164465
0.373162
-0.208703
0.047294
0.119487
-0.366952
0.21571
0.151262
0.00462095
-0.0139385
0.00931757
-0.174956
0.0877906
0.0871703
-0.222307
-0.177002
-0.0947476
-0.0663224
0.161077
-0.00599408
-0.00238617
0.0083803
0.129639
-0.280745
0.0722028
-0.174732
0.0957716
-0.0989153
0.146118
-0.25445
0.108364
0.0112604
0.252532
-0.133848
0.250141
-0.116261
0.124588
-0.111311
-0.0132731
-0.232941
0.35123
-0.118204
-0.279393
-0.187264
0.142632
-0.0197639
-0.122859
0.444877
-0.225011
-0.219863
0.314137
-0.149984
0.237021
-0.130723
-0.106279
-0.363718
0.160027
0.203697
-0.00840518
0.529104
-0.520632
0.0519463
-0.0260991
-0.0258477
-0.000574778
-0.00471485
0.00528971
0.581997
-0.304029
-0.278236
-0.195739
0.548991
0.245459
-0.116505
-0.128937
-0.0479142
0.35474
-0.140039
0.0452968
0.00295379
-0.00658923
0.00363548
0.0197889
-0.00616179
-0.0136271
-0.183768
0.0864603
0.0973135
-0.137072
-0.216702
0.353794
-0.193282
-0.17043
-0.14314
-0.134009
0.277208
-0.190796
-0.176134
-0.110416
-0.0011779
0.111596
0.0187198
-0.0157659
0.00894451
-0.00762783
-0.00446964
0.00389496
0.131824
0.155105
-0.286888
-0.463834
0.284609
0.179419
0.0162177
-0.0659639
0.0710089
-0.0649194
-0.00608863
0.0251549
0.0932819
-0.118432
0.163702
-0.0855785
-0.0781283
-0.0227716
0.0185264
0.00424515
0.282443
-0.152141
-0.130255
0.0647614
0.0222315
0.109704
0.0827749
-0.192462
0.111027
0.134447
0.00535134
-0.00475847
-0.100552
-0.152895
0.253494
-0.0944456
-0.130884
-0.122216
-0.108407
0.000783999
0.00364414
-0.103301
0.136742
-0.0334376
0.26169
-0.107408
-0.154254
-0.000299445
0.0156134
-0.015314
-0.108458
-0.133105
0.241575
0.0575251
0.0180649
-0.07559
-0.264567
0.130758
0.0110751
0.0408707
-0.0833481
0.0995665
0.168832
-0.0298398
-0.138989
0.00192284
0.0829777
-0.0848999
-0.127463
-0.103333
0.230805
-0.21825
0.391276
-0.172964
0.365202
-0.560736
-0.292007
0.212802
0.0792279
0.0125246
0.106894
-0.119413
0.255377
0.00633127
-0.100858
0.327049
-0.226167
0.00989493
0.0611146
0.13345
-0.405264
0.450302
-0.0450791
0.00191241
0.0556128
0.410105
0.143909
-0.55431
-0.298726
-0.291541
0.590376
-0.530495
-0.00618163
0.537152
-0.106132
0.108055
-0.616066
0.603795
0.0121198
-0.112623
0.00220894
0.0909746
-0.096465
0.0054908
-0.25591
0.139423
0.0321876
-0.135487
-0.11938
0.301368
-0.181931
-0.310788
-0.152869
0.463821
-0.182317
0.147516
0.0348078
0.477818
-0.204956
-0.272824
0.142455
0.0822185
0.237938
-0.115514
-0.122408
0.0127018
-0.10378
0.0910786
-0.106529
0.194777
-0.194506
0.155167
0.0393581
-0.223175
0.117669
0.105511
0.175402
-0.0946292
-0.0807715
0.457877
-0.254623
-0.203286
0.138919
-0.0101055
-0.128809
0.362515
-0.141629
0.206772
-0.0615732
-0.00392306
0.0654969
-0.264097
-0.199556
0.207802
0.154747
0.190195
-0.214361
0.177564
0.0594737
-0.180264
-0.205632
0.385826
-0.731255
0.480577
0.250796
-0.0976224
0.242183
-0.144545
0.282822
-0.162125
-0.120702
0.226781
-0.363852
0.136639
0.141786
-0.284874
-0.231946
0.0994777
-0.390406
0.149416
-0.415763
0.243997
0.556014
-0.00182953
-0.553964
0.105858
0.154002
0.0889113
-0.26953
0.180671
-0.69292
0.402259
-0.326765
-0.214642
0.541336
-0.344303
0.180544
-0.133218
-0.0609817
0.194231
-0.0727492
0.0854515
-0.100038
-0.083725
-0.0141999
0.0139004
0.114402
-0.0892436
0.0231634
0.0950403
-0.118198
0.0759468
0.155389
-0.0285364
0.201015
-0.172477
-0.181632
0.149511
0.0321193
-0.275966
0.17837
-0.228716
-0.163603
-0.39762
-0.333516
-0.161534
-0.130445
-0.37886
0.198553
-0.0793805
0.195215
0.257739
-0.0575116
-0.200198
0.189891
-0.521406
-0.00859505
-0.0938853
0.106414
-0.175251
0.0924906
-0.00151558
0.116449
-0.0160685
-0.0962336
0.112304
-0.218843
0.110389
0.162203
0.120616
0.198873
0.196641
-0.395545
-0.00622756
0.138528
-0.132269
0.0529113
-0.285788
0.179097
-0.0693753
0.261357
0.00124123
-0.262548
-0.102403
0.0114903
-0.00686931
0.0012523
-0.406494
-0.377353
0.243256
0.134157
-0.118709
-0.0629255
-0.174462
0.195479
-0.302824
0.180627
0.271081
-0.451634
0.101415
-0.2346
0.0919544
0.0717421
0.0483003
-0.164468
0.116181
0.128389
-0.00379763
0.00868135
-0.591137
-0.175904
0.541288
0.178462
0.105205
-0.334522
0.0902336
0.0851703
-0.364327
0.246315
0.118029
-0.118204
0.41579
-0.324375
0.402027
-0.0776003
-0.316134
0.196805
-0.234637
0.142187
0.0924457
-0.125675
0.188034
-0.0623453
0.0194936
-0.112528
0.0930367
-0.0167412
-0.0244109
0.0411526
-0.0608282
-0.117342
0.0222315
0.0662386
-0.0884693
0.223112
-0.407341
0.184105
0.158624
-0.164838
0.257953
0.372643
0.0161944
-0.0162508
-0.113923
0.138416
-0.0244892
0.00816553
-0.102015
0.0938503
-0.00984524
-0.178103
-0.290314
0.468696
0.221539
0.0362297
0.123811
0.225955
0.096726
0.1053
-0.202001
-0.0829297
0.644588
-0.345197
-0.299404
-0.212866
0.141295
0.0715828
0.393242
0.179517
-0.585707
0.600777
-0.0148686
0.135307
-0.0854541
0.104949
0.58785
-0.345537
-0.242414
0.15155
-0.284621
0.305334
-0.165901
-0.139395
-0.210252
0.0845977
0.016208
-0.0179829
0.00177492
-0.167365
0.259289
0.322459
-0.341409
-0.231401
0.572912
-0.219502
0.30699
0.0981732
0.0635491
-0.16171
0.140069
0.0287662
-0.0209704
0.116015
0.00102736
0.108163
-0.10919
-0.18239
-0.0522527
-0.234643
0.140224
0.114574
0.246559
-0.145732
0.277444
-0.131697
-0.595998
0.295529
0.134886
-0.0313657
-0.103519
0.0022463
0.259151
0.134127
-0.0697494
-0.122062
0.191819
0.224792
-0.03563
-0.120737
0.15639
0.121235
0.120605
-0.190354
-0.131352
0.253012
-0.12161
-0.130302
-0.0641804
0.122521
-0.137573
-0.127036
-0.0858158
-0.0714293
0.230746
-0.159277
-0.387919
0.224575
0.163386
0.0857693
-0.084741
0.132028
0.0106123
0.00822321
0.191415
-0.199609
0.16957
-0.0713842
0.144849
-0.367245
0.222583
0.183696
-0.447695
0.397935
-0.252932
-0.157041
0.12143
0.0108988
0.096958
-0.107856
-0.147972
0.242764
-0.0947692
-0.601991
0.341301
0.260758
-0.185783
0.124981
0.300637
0.296378
0.334204
0.253552
0.00701048
0.165368
-0.383572
0.187361
-0.41386
0.226422
0.00330499
-0.00929901
-0.201512
-0.260493
0.462074
-0.159589
0.0683258
0.0912639
0.0987046
0.0361826
0.112194
0.0213758
-0.151123
0.083447
0.0676714
-0.015502
-0.108587
0.188478
-0.0798735
-0.0785293
0.0169569
0.333004
-0.572683
0.239451
0.0411472
-0.202861
0.323693
0.273321
0.291579
-0.169195
-0.122346
0.233442
-0.096067
-0.137378
-0.638363
0.226359
0.412033
0.207146
-0.110401
-0.0233453
0.0791069
-0.152531
0.546742
0.362852
-0.50759
0.0756002
-0.0870817
0.0114837
-0.035324
0.053389
0.150093
-0.263884
-0.213128
0.414226
-0.201047
0.00208959
0.00685494
0.0307619
-0.144954
0.429814
-0.014289
-0.0662633
0.00409985
0.348608
0.129214
-0.318526
-0.283389
-0.449099
0.240246
0.208835
-0.178739
0.36693
-0.188255
-0.562203
-0.0234471
-0.362993
0.364273
0.108002
-0.0631967
0.121547
-0.0177018
0.0633047
-0.0456024
-0.58179
0.241316
-0.19029
-0.17402
-0.0836665
-0.0273556
0.111023
-0.24804
0.296091
-0.0479594
-0.0878381
-0.101762
0.150075
0.0958582
-0.222987
-0.219599
-0.165161
0.384852
-0.422486
0.209449
0.0972003
-0.101657
0.00445707
-0.137663
0.0786307
-0.1872
-0.11922
0.25631
-0.137062
0.00202596
-0.0162505
-0.131946
-0.123944
-0.0751818
0.10445
-0.22489
-0.265353
-0.207764
0.473224
0.184354
0.124802
-0.0451748
-0.0796263
-0.193591
0.464621
-0.270952
0.134094
0.0572363
-0.191328
0.187329
-0.313563
0.126235
0.159478
-0.290799
-0.00687819
0.000288996
-0.0944103
0.229303
-0.134895
-0.100759
-0.184265
0.284992
0.00824118
0.543506
-0.551675
-0.013443
0.00486073
0.00858231
-0.177395
0.375398
-0.198062
-0.194505
0.100095
0.260016
-0.15271
-0.10729
-0.180033
-0.0802449
0.0625434
-0.0591737
-0.51179
0.418689
0.0930118
-0.0259557
-0.178668
0.0876805
-0.235635
-0.502793
-0.499893
0.200908
0.298859
0.180761
-0.387567
-0.00486993
0.0113084
-0.00643844
0.192231
-0.395769
-0.467713
-0.148496
0.0761492
-0.159766
0.0836227
-0.0810722
0.162203
0.164563
-0.0106171
-0.153938
-0.593177
0.294547
-0.104801
0.187594
0.00253296
0.241029
-0.0988482
-0.358842
0.184896
0.173939
-0.196012
-0.191863
-0.102924
-0.0720285
0.209619
-0.201357
0.206046
-0.471376
-0.0744016
0.16774
-0.0933269
-0.257141
0.362354
0.0653757
-0.42829
0.170483
0.0674682
-0.227053
0.43256
-0.205479
-0.125689
0.0368722
0.0888221
0.230143
0.0804003
0.258307
-0.451816
0.0150104
-0.0170803
0.537962
-0.254894
-0.282938
-0.138899
0.294059
-0.586771
0.198058
0.388818
-0.276909
0.157731
0.199887
-0.0585784
-0.362015
-0.149898
0.144187
-0.363637
-0.0911154
0.0809958
0.185605
-0.26657
0.0824491
-0.0707131
-0.0117359
-0.116837
-0.159105
-0.297466
-0.398212
0.599762
-0.135143
0.0275271
0.107618
0.160371
-0.309903
0.149633
-0.311667
0.2109
0.233384
-0.587224
0.353667
-0.308974
0.146104
0.162886
-0.00866152
0.123494
-0.114824
0.07616
-0.129314
0.195761
-0.13225
0.00656877
0.0284377
0.131719
0.109304
-0.33003
-0.262617
0.592748
-0.195849
-0.171658
0.367494
-0.164811
0.324034
-0.159142
-0.445894
0.529167
0.38382
-0.19714
-0.186779
-0.00935918
0.0147343
-0.00986824
0.00748209
-0.376342
-0.26199
0.0518807
0.1294
3.52807e-05
-0.157558
0.157524
-0.165371
0.165399
0.254333
-0.0724179
-0.312169
-0.28122
0.593443
-0.0837715
-0.0709076
0.154681
-0.00389874
0.1011
-0.0471521
0.220131
-0.439719
-0.325963
0.161226
-0.338334
0.0904047
0.244579
-0.44596
0.00890421
0.000123738
-0.00902785
-0.0911227
-0.0870915
0.178229
-0.117547
-0.152691
-0.188554
0.34124
-0.298995
-0.264816
0.563813
0.253455
0.0717849
-0.325183
-0.164842
0.101838
0.129869
-0.497279
-0.0133657
0.00849583
0.0286679
-0.0639918
-0.0179035
-0.0627062
0.08061
0.085516
0.0490373
-0.191558
-0.359105
0.136789
0.241212
-0.115788
-0.125428
-0.116085
-0.0622685
0.178365
-0.00157495
0.00921739
-0.00764233
0.00624456
0.0124754
0.206567
-0.122926
-0.0836203
0.171883
0.438156
0.138168
-0.576262
-0.102038
0.253609
-0.193038
0.167107
0.536705
-0.0984356
0.00274671
0.0170422
0.441849
0.114348
-0.198017
-0.209445
-0.221796
0.124817
0.0969832
0.126095
-0.572061
0.212301
-0.0613443
-0.15096
-0.268522
0.151711
0.0823601
0.0603061
-0.14266
-0.0929053
-0.0870786
0.18
-0.507449
0.501265
-0.100612
-0.148619
0.249249
0.106523
0.127636
-0.152479
-0.0235586
0.132005
-0.0464837
-0.0010641
-0.0869568
0.0880221
-0.28242
0.606441
0.126338
0.141058
-0.264419
0.145336
0.119128
-0.070797
-0.21531
-0.279847
-0.286505
0.566499
-0.270285
0.124582
0.280403
0.156164
-0.436587
0.076284
0.0401682
0.124401
0.0482398
0.0678329
-0.116068
-0.578918
0.352337
0.226694
-0.134683
0.215705
0.535785
-0.302477
-0.140603
-0.173791
0.314428
-0.058176
-0.0203524
0.301234
0.232766
-0.534128
0.255925
-0.125214
-0.130694
0.139852
-0.09314
0.194524
-0.421566
-0.13584
0.23254
-0.195388
-0.0371554
-0.235103
-0.00408908
0.00350028
0.000588874
-0.0704295
0.197972
-0.127532
-0.563498
0.321786
0.24156
-0.0355229
-0.0810815
0.116606
0.0116194
-0.207939
0.19638
-0.596855
0.305432
0.161161
-0.310631
0.149492
-0.190706
0.376453
-0.185785
0.336061
0.260954
-0.24342
0.111971
0.131464
0.028905
0.224588
-0.0320795
0.0607475
-0.0967687
0.242914
0.188379
-0.384274
0.14666
-0.298305
0.151664
0.161751
0.0381483
-0.104858
-0.0924885
0.197358
-0.189969
0.382099
0.110334
-0.238148
0.127819
-0.174128
-0.184986
-0.0980177
0.219148
0.322302
-0.156559
-0.165724
-0.181604
0.0887173
0.402461
-0.215188
0.240299
-0.10565
0.187518
0.241154
-0.428578
-0.186183
-0.216437
0.402756
-0.010405
0.0423417
-0.0319364
-0.259412
-0.189711
-0.0768285
0.0186537
0.387536
-0.206777
0.137124
0.13799
-0.275113
0.547732
-0.312858
-0.234853
0.233253
-0.132657
-0.100593
-0.299965
-0.286699
-0.184511
0.11409
-0.13444
0.329967
0.0747195
-0.110241
-0.218862
0.553074
0.161557
-0.0569161
0.283152
0.161724
-0.133114
-0.0771177
0.470442
0.171668
-0.642341
0.193989
0.107435
-0.0452366
-0.321828
-0.164243
-0.0791617
-0.415703
0.227384
0.188311
-0.0588336
0.0202081
0.0234367
-0.0436447
0.103176
0.109122
-0.230478
0.192557
0.0379246
0.100963
-0.121927
-0.148501
0.34548
-0.196926
-0.0536704
-0.0788795
0.132554
0.105516
0.128014
0.509725
-0.296269
-0.156157
0.0817653
-0.0854937
0.0844309
0.00561223
-0.00718703
0.0520984
0.0943889
-0.0144754
-0.0799129
-0.128096
-0.142483
-0.127175
0.269683
0.351971
0.292598
0.247275
-0.0886314
-0.19933
-0.0195046
-0.197097
0.00427147
0.192792
0.317454
-0.11428
-0.118579
0.232902
0.0172833
-0.117318
0.511867
-0.520213
-0.294089
0.153497
-0.136112
0.246452
-0.00622499
0.0168561
-0.0106308
-0.223702
0.0906126
0.101487
-0.206271
0.113981
0.127228
-0.0316463
-0.4757
0.0403749
0.512426
-0.273151
-0.239109
-0.181365
-0.233406
0.414907
0.216382
-0.0165283
0.0604586
-0.317585
0.00343511
0.0127593
0.190707
-0.0799409
-0.110765
-0.00102435
-0.00520031
-0.630817
0.256947
0.37378
0.0592401
-0.0932819
0.0340422
0.00261235
-0.0017802
-0.000832076
0.145516
-0.0468101
-0.0201597
-0.17697
0.164201
0.0368175
-0.00854552
0.14747
-0.0539908
0.134728
-0.0807331
-0.301031
0.135184
0.298884
-0.111577
0.0714971
0.0183919
-0.0167412
-0.193588
-0.15879
0.352428
-0.0792659
0.155423
0.0417709
0.00474736
-0.0465181
-0.350105
0.275872
0.0743001
0.248872
0.18646
-0.43522
-0.260443
0.18967
-0.250721
0.134165
0.116583
-0.330389
0.285299
-0.0346892
0.2218
-0.187054
-0.0904376
-0.0447024
-0.0381459
0.121124
0.218372
-0.547735
0.237143
-0.014277
0.000338558
0.00199427
-0.0314554
0.0294611
0.178584
-0.185841
-0.173011
-0.397253
0.512121
0.196604
-0.115378
0.0317125
0.0867798
0.103927
-0.0536816
-0.042783
-0.244453
-0.185967
0.434998
0.18376
-0.360119
0.176344
-0.272277
-0.222507
0.105184
-0.218578
0.113394
-0.225104
0.0393478
-0.0292143
0.0124735
0.268497
-0.506879
0.23834
-0.594439
0.263095
0.331561
-0.169794
0.15721
0.0125906
0.159785
-0.353397
0.130153
-0.212459
0.0822988
-0.0660814
0.0877167
-0.0216342
0.167452
-0.268045
-0.0114362
-0.027693
0.0391292
0.00172658
-0.00275072
-0.274057
0.131606
0.185706
0.0836101
0.0337995
-0.117409
-0.0133576
0.0222046
-0.00884704
0.0543896
-0.150305
0.0959187
0.201878
-0.1614
0.0452766
-0.00886866
0.061183
-0.0523136
0.0918086
0.0760462
-0.167849
-0.163507
-0.137467
-0.557741
0.216449
-0.289038
0.0943193
-0.00182834
-0.213712
-0.0167628
0.067748
0.00564787
-0.0733945
-0.591587
0.261626
0.00178678
0.0144213
-0.0156023
0.112561
0.192515
-0.364206
0.245637
0.166344
-0.411954
-0.000175271
0.036243
0.373664
0.188324
0.359428
0.208517
-0.112397
-0.0960981
0.0080765
-0.000492363
-0.00758408
0.00585194
0.00329346
-0.00914529
0.0530215
-0.0634261
0.160049
-0.298895
0.19858
-0.140589
-0.0579825
-0.150823
0.0968355
-0.439028
-0.140097
0.170049
-0.469137
-0.584404
0.280252
0.0915064
0.00281342
0.382585
0.242602
-0.625148
0.371184
-0.182824
0.143816
0.0547717
-0.171904
-0.128902
-0.0534096
0.286703
0.256564
-0.543379
0.26345
-0.492073
0.228401
0.401452
-0.327634
-0.251159
0.157618
-0.0698225
-0.157804
0.540315
-0.182148
-0.162147
0.072864
0.111883
-0.184736
-0.105798
-0.00682278
0.00652617
-0.0537037
0.0471778
0.40884
0.196701
-0.605754
-0.163285
0.110773
0.0525151
0.0207555
-0.0187615
0.0444445
0.0380045
-0.132273
0.228148
0.00862204
-0.0155012
0.00687912
-0.00152681
-0.119885
-0.193804
-0.41826
-0.12544
-0.128978
0.22076
-0.104658
-0.116094
-0.00888715
-0.000281173
0.00916866
0.0984973
-0.563793
0.283995
0.42715
-0.584877
-0.0203803
0.0895138
-0.14318
-0.147841
0.307941
0.293062
0.269862
-0.563012
0.167381
0.177757
-0.345155
0.102156
0.0674251
0.225228
-0.551988
0.00655833
0.545655
0.11608
-0.214111
-0.144834
-0.300524
-0.284008
-0.170797
0.375504
-0.204728
-0.0410464
-0.0229453
-0.208014
-0.169286
-0.260632
0.10943
0.395455
-0.280689
0.115891
0.127367
-0.0210964
-0.106267
0.534836
0.230173
-0.118417
-0.111721
-0.329827
0.438007
-0.108156
-0.228004
0.124667
-0.060254
0.0447353
0.0155189
0.304853
0.292162
-0.0592641
0.0657908
-0.0732402
0.215716
0.00891832
0.00157154
-0.0104898
-0.260143
-0.363104
0.141405
-0.0987032
0.214768
-0.0931309
-0.0701517
0.0839822
-0.0083799
-0.197502
-0.0275782
0.0858426
0.00854677
-0.101961
-0.0866302
0.188589
-0.255655
0.0976103
0.158051
-0.0112857
0.554945
0.0455659
0.0999521
0.168903
0.295582
-0.464588
0.273478
-0.618578
-0.408657
0.209328
0.199312
0.614816
0.0657176
0.11059
-0.176296
0.383764
0.213251
0.251478
0.0170299
-0.08311
0.10608
-0.193144
-0.154313
-0.433758
-0.046166
0.138459
-0.0922841
0.140691
-0.256185
0.0388943
-0.153022
0.251535
-0.0985016
-0.0595607
0.0274814
0.184474
0.182392
-0.116275
0.143906
-0.000437219
-0.0300679
0.0305055
0.109524
-0.241548
0.132022
-0.00142124
0.0103255
0.336774
-0.599391
-0.0551729
0.196152
-0.140979
0.502851
-0.565987
0.0631192
0.161336
-0.288485
-0.153996
0.314433
0.13819
-0.0558217
0.0245389
-0.107743
0.0832073
-0.235301
0.125073
0.110228
-0.0131908
-0.280967
-0.327399
0.60841
-0.0627735
0.0513373
-0.271131
0.109004
0.169623
0.189959
-0.359593
-0.0931827
-0.0634472
-0.0257725
0.160166
-0.134385
-0.00591387
0.00764071
-0.153623
0.399266
-0.108167
0.0995148
-0.102083
-0.00371299
0.103231
-0.035232
0.0834753
-0.292444
0.549123
-0.40553
-0.143589
-0.299549
-0.0943984
0.0673003
0.0270987
-0.406009
0.499005
-0.0927175
-0.405171
0.298263
0.226185
0.196944
-0.423196
0.159062
-0.461138
0.211911
-0.409154
0.256296
0.276349
-0.129649
0.204479
0.191836
-0.396399
0.476566
-0.25071
0.118782
0.0819747
0.126563
0.0999449
-0.146102
0.400413
-0.20818
0.00164629
0.00727226
0.315544
-0.131503
-0.184015
-0.0423674
0.101608
0.131707
-0.024808
-0.012559
0.00767254
0.00488654
-0.0376713
-0.111654
0.149341
0.174746
-0.229905
0.011111
-0.00542774
-0.00568324
0.0845206
-0.189366
-0.0715849
0.0926198
0.00653935
-0.0991586
0.171281
-0.0691161
0.565376
-0.469187
-0.126721
-0.101724
0.228474
0.01606
-0.346638
0.0862029
0.00237083
0.00352698
-0.00589775
0.29026
-0.291269
0.00101749
0.0741669
-0.0539588
0.042846
-0.132535
-0.117334
-0.151161
-0.0149822
-0.00300071
0.145525
-0.186836
0.373445
0.507652
-0.0374916
-0.103951
-0.134194
0.431346
0.117767
0.162429
-0.474639
-0.0784417
-0.0615913
0.116018
0.117421
0.16574
-0.495574
-0.18139
-0.165231
-0.115093
-0.135598
0.0512168
0.0735858
0.115915
-0.231706
0.172978
0.395639
-0.5685
0.165105
-0.238326
-0.112181
-0.0600811
0.172267
0.105687
0.150651
-0.20757
0.471176
-0.263557
-0.00464726
0.00701814
0.179753
-0.30021
0.120497
-0.000909202
0.247251
-0.060861
-0.109059
0.210503
-0.172662
-0.14342
-0.00761135
0.00842275
0.113839
-0.0695032
-0.0443392
0.0071634
-0.003663
0.166261
-0.317354
0.151152
0.124184
0.106023
0.136373
-0.106422
-0.0299494
-0.182489
-0.301261
0.148565
0.587422
-0.132188
-0.105799
0.237989
0.357562
-0.475909
0.454356
-0.167784
-0.134633
-0.0779768
-0.00910248
0.0139759
-0.0676159
0.0536405
0.494061
-0.258332
-0.235657
0.309734
-0.137592
-0.172103
0.273091
-0.486
0.0772253
-0.265798
0.12473
-0.2547
-0.233443
0.488054
0.121237
-0.129777
-0.117651
0.0453375
-0.258576
0.21326
-0.392956
0.214675
0.178198
-0.225194
-0.189311
0.414491
-0.28657
-0.227579
0.514042
-0.149952
-0.0915852
0.241555
0.00230069
0.00577588
0.238522
-0.118681
0.189254
0.390004
0.0923747
-0.0204056
0.0199685
-0.224897
-0.190816
0.225852
-0.512525
0.383574
-0.234875
0.0794013
0.00644198
-0.108963
0.559144
-0.551903
-0.00688581
-0.357315
-0.27358
-0.140638
0.114879
0.0918261
-0.00186344
-0.0899617
0.563609
-0.310429
-0.253099
0.628074
-0.354601
0.201332
-0.110347
-0.0909573
-0.15689
-0.134732
0.291603
-0.234145
0.129292
0.104869
-0.220569
0.157084
0.0635106
-0.158878
0.0744373
-0.165546
0.468696
-0.223534
-0.245094
-0.0364336
-0.141261
0.177716
-0.0183139
0.072813
-0.0544986
0.150617
-0.0271149
0.0195805
-0.138062
0.118486
0.0995037
-0.208654
0.109182
0.105009
0.28794
-0.606447
0.16431
0.153384
-0.317625
-0.101142
-0.126866
0.209133
-0.122353
0.14916
0.168939
-0.318007
-0.191985
0.335604
-0.143589
0.58345
-0.284855
-0.298869
0.281632
-0.144502
-0.00907932
-0.10113
0.0820667
0.0190647
-0.197285
0.149145
0.0481353
0.149596
-0.266904
0.304287
0.103395
-0.174227
0.0708416
0.163592
-0.303491
-0.159012
0.204388
0.0786873
-0.163474
0.0847874
0.105946
-0.214974
0.161128
-0.295517
-0.377551
-0.0444507
-0.0499473
-0.0147163
-0.0914144
0.0221452
0.44449
-0.466712
0.138067
-0.272013
0.120928
-0.150765
0.349041
-0.165286
0.501981
-0.271113
-0.231034
0.352253
-0.0769082
0.19784
-0.0579634
0.194173
-0.136168
-0.156134
-0.077997
0.00546208
-0.00148775
-0.00397432
-0.144783
-0.132083
-0.31362
-0.0038694
0.0246248
-0.247779
-0.229111
0.477064
-0.0665691
0.0805456
-0.53384
-0.0170608
0.550848
0.1165
0.0913222
0.0434092
0.288967
-0.27804
-0.0108753
0.396085
0.160952
-0.556955
-0.311043
0.163255
0.257905
-0.120971
-0.136913
0.0881251
-0.00872315
0.162614
-0.275369
0.568593
0.0100966
-0.0669286
0.0568325
0.0587753
0.0964072
0.0840216
-0.154928
0.00272278
-0.00259892
-0.0334315
0.155958
0.663135
-0.311147
0.100471
-0.127825
0.167793
-0.318449
0.150673
0.0197133
0.0806709
-0.100384
-0.232167
-0.139607
0.281453
0.522109
0.0816034
-0.00612605
-0.00731696
0.313265
0.349889
0.0457699
-0.266305
0.236056
0.125036
0.10822
0.0797664
0.10873
-0.160875
0.0986151
-0.267188
0.0524067
0.214806
-0.293849
0.107873
-0.145532
-0.196486
0.0912345
0.105276
-0.188875
0.429763
-0.240846
0.163639
-0.2211
0.0574777
-0.347344
0.157067
0.0254832
-0.0515828
0.00684309
-0.0129096
-0.392794
0.170768
-0.000278725
-0.259282
-0.304365
-0.0631524
-0.134137
0.318093
-0.562052
0.244084
0.00180051
0.00366158
-0.210447
-0.349911
0.141928
0.126637
0.432841
0.0972934
-0.247224
0.110957
-0.246363
0.135414
-0.501259
-0.151682
0.652879
-0.139278
-0.253764
0.184673
-0.306297
-0.101893
-0.0595056
-0.0768383
0.158832
-0.0819898
-0.145709
0.294289
-0.148577
0.232403
-0.122887
-0.247114
0.143165
-0.152697
0.0719675
0.303766
0.149047
-0.12995
-0.134425
-0.137162
0.298353
0.205626
-0.0600891
0.132912
-0.225457
0.0925449
0.00428221
-0.505589
-0.505516
0.257696
0.0943831
-0.171405
0.0770332
-0.349252
0.178428
0.0891599
-0.105227
-0.0867941
0.232159
-0.00548967
0.101268
-0.0957773
0.136908
0.12642
-0.263316
0.468176
0.137542
-0.329472
0.0874039
-0.202562
0.115155
-0.115381
-0.0544073
0.195665
-0.420912
0.131252
-0.0989746
-0.0787613
0.17774
-0.107461
-0.394252
0.127219
-0.55677
-0.0300044
0.586807
0.0138303
-0.0777029
0.0734191
0.00428426
-0.217724
0.0995413
0.118204
0.00317341
0.0152185
-0.10455
-0.0775147
0.182067
-0.105068
0.21025
-0.157978
0.0458017
-0.0588241
-0.0919959
-0.0787467
0.208887
0.00348318
-0.231044
0.0988602
-0.0635356
0.170645
-0.107103
0.130515
-0.287428
0.164439
-0.222358
-0.187393
0.344133
0.149658
0.0134815
-0.197142
-0.175883
0.377107
-0.20117
-0.049899
0.0410309
0.241022
0.0745418
0.0276955
0.261322
-0.0586394
0.0999999
-0.0413595
-0.372772
0.176791
-0.105132
0.207016
-0.101875
-0.0749772
-0.21757
0.0868669
0.0365973
0.253673
-0.0193981
-0.081721
0.101121
-0.249015
0.10642
0.142588
-0.269596
-0.257546
0.527314
-0.0847967
0.202468
0.0036361
-0.00010903
-0.0888259
0.0948482
-0.00601893
-0.200106
-0.137397
-0.0936421
-0.218475
0.507779
-0.289393
-0.371327
0.327432
0.0439101
-0.0162663
0.115834
0.220719
0.233377
-0.507719
0.274437
-0.188553
0.0825845
0.105979
0.138587
0.154112
-0.292677
0.00676617
-0.172843
0.166086
-0.185465
0.355109
0.469359
-0.110986
0.0807812
0.0302028
-0.146194
-0.155071
-0.295271
0.360672
0.19683
-0.0378766
-0.158938
-0.149627
0.31593
0.397657
-0.114526
0.43743
0.091705
-0.093495
-0.140512
0.262367
-0.121814
-0.26679
-0.327438
0.422854
-0.202674
0.08959
0.0838967
-0.173485
-0.129441
-0.126209
0.103286
0.114118
-0.217375
-0.146579
-0.160337
0.306903
-0.0940026
-0.0562993
-0.106609
0.31144
-0.162195
-0.252318
0.128248
0.124094
0.44034
-0.177028
-0.253471
0.487032
-0.00930361
-0.0684347
-0.102127
0.17057
-0.107443
-0.089018
0.066396
0.154372
0.0650256
0.103681
-0.168699
-0.164937
0.0659667
0.158721
-0.0720035
-0.0867074
-0.0870954
-0.0690526
0.0663935
-0.198645
0.0554756
-0.0137047
0.161685
-0.318243
0.13818
0.155411
-0.293517
-0.289171
0.521763
-0.516001
-0.0407171
-0.0490966
0.157
-0.107896
-0.122388
-0.411514
-0.0605313
0.0046198
0.00983268
-0.0144525
0.137498
-0.0971077
-0.0403891
-0.000440088
0.396581
0.0450721
0.151771
0.157652
-0.0572681
-0.10038
-0.20608
-0.241443
0.447652
0.079184
-0.0735349
-0.0274936
0.122608
-0.0951117
0.0433278
-0.0885022
0.120311
0.0888219
0.00294064
0.00543028
-0.00837086
-0.0705288
-0.0944028
0.110313
-0.0907327
0.000465499
-0.00935245
0.188027
-0.0819341
0.145036
-0.298034
0.148159
-0.0486286
-0.18085
0.366794
-0.185929
0.00432588
0.0015262
0.0918273
-0.234773
0.142965
0.0677486
-0.151441
0.0836982
0.392477
-0.214758
-0.177656
0.0889617
0.39388
0.102373
-0.496467
-0.00142632
-0.0149173
0.0163437
0.011863
-0.00753689
0.317875
0.265273
-0.583252
-0.00483266
0.00969342
-0.114869
0.0936868
0.0211826
-0.104967
-0.0881765
0.193143
-0.105812
0.183526
-0.0777021
0.136904
-0.448499
0.153292
0.000278672
0.00266205
0.291644
-0.128015
-0.0343594
0.117971
-0.00870199
0.0133218
0.234068
0.33903
-0.573195
-0.0420064
-0.225144
0.291289
0.233302
0.111181
0.0641272
-0.144033
0.0799186
0.0838084
0.0738146
-0.567477
0.0286765
0.36507
-0.0646015
-0.156485
-0.14794
-0.128604
0.276576
0.0119873
0.490803
-0.201431
0.0795446
0.121907
-0.31996
0.24241
-0.467724
0.195518
-0.133005
0.0128916
0.126391
-0.139276
0.465911
0.118189
-0.0255692
0.305463
0.385556
0.208115
-0.59382
0.0888173
0.116821
-0.0455008
0.104723
-0.0592206
-0.249701
0.260973
-0.224998
0.42191
-0.110178
0.127465
0.113689
-0.0760244
-0.0376635
-0.32878
0.179106
0.149668
-0.0131975
0.178313
0.0955197
-0.110235
-0.0987376
-0.0100408
-0.00181608
0.0118569
0.221296
0.095068
-0.169688
0.0746246
-0.0117644
0.000640005
0.00896235
-0.0487009
0.039739
0.331066
-0.542789
0.21162
-0.231626
0.232914
-0.0856587
0.210477
0.0776817
-0.178162
0.100491
0.0363219
0.120893
0.243295
0.00418912
-0.00377857
-0.000410428
-0.0792061
-0.109336
0.0851343
-0.0952375
0.157957
0.128341
-0.293364
0.51909
0.00518236
-0.0991413
0.215321
-0.116186
0.491058
0.329013
-0.581992
0.252894
6.07864e-05
-0.00315919
0.00309848
-0.218618
-0.0754681
-0.301949
0.136796
0.208643
0.126992
0.117799
0.140126
0.551766
-0.0821216
0.149878
0.124432
-0.264895
0.0973461
0.141842
-0.239192
0.221559
0.235905
-0.457494
-0.0935426
-0.0506872
0.0569318
-0.120279
0.0418411
0.163889
-0.0997444
0.0228343
-0.0210594
0.0904741
0.0633461
-0.153815
-0.426315
0.166901
-0.0720328
-0.299281
0.15239
-0.159944