/*--------------------------------*- C++ -*----------------------------------*\
| =========                 |                                                 |
| \\      /  F ield         | OpenFOAM: The Open Source CFD Toolbox           |
|  \\    /   O peration     | Version:  v2012                                 |
|   \\  /    A nd           | Website:  www.openfoam.com                      |
|    \\/     M anipulation  |                                                 |
\*---------------------------------------------------------------------------*/
FoamFile
{
    version     2.0;
    format      ascii;
    class       pointVectorField;
    location    "800";
    object      pointDisplacement;
}
// * * * * * * * * * * * * * * * * * * * * * * * * * * * * * * * * * * * * * //

dimensions      [0 1 0 0 0 0 0];


internalField   nonuniform List<vector> 
10356
(
(0 0 0)
(0 0 0)
(0 0 0)
(0 0 0)
(0 0 0)
(0 0 0)
(0 0 0)
(0 0 0)
(0 0 0)
(0 0 0)
(0 0 0)
(0 0 0)
(0 0 0)
(0 0 0)
(0 0 0)
(0 0 0)
(0 0 0)
(0 0 0)
(0 0 0)
(0 0 0)
(0 0 0)
(0 0 0)
(0 0 0)
(0 0 0)
(0 0 0)
(0 0 0)
(0 0 0)
(0 0 0)
(0 0 0)
(0 0 0)
(0 0 0)
(0 0 0)
(0 0 0)
(0 0 0)
(0 0 0)
(0 0 0)
(0 0 0)
(0 0 0)
(0 0 0)
(0 0 0)
(0 0 0)
(0 0 0)
(0 0 0)
(0 0 0)
(0 0 0)
(0 0 0)
(0 0 0)
(0 0 0)
(0 0 0)
(0 0 0)
(0 0 0)
(0 0 0)
(0 0 0)
(0 0 0)
(0 0 0)
(0 0 0)
(0 0 0)
(0 0 0)
(0 0 0)
(0 0 0)
(0 0 0)
(0 0 0)
(0 0 0)
(0 0 0)
(0 0 0)
(0 0 0)
(0 0 0)
(0 0 0)
(0 0 0)
(0 0 0)
(0 0 0)
(0 0 0)
(0 0 0)
(0 0 0)
(0 0 0)
(0 1.76314e-05 0)
(0 1.76314e-05 0)
(0 0 0)
(0 0 0)
(0 0 0)
(0 0 0)
(0 0 0)
(0 0 0)
(0 0 0)
(0 0 0)
(0 0 0)
(0 0 0)
(0 0 0)
(0 0 0)
(0 0 0)
(0 0 0)
(0 0 0)
(0 0 0)
(0 0 0)
(0 0 0)
(0 0 0)
(0 0 0)
(0 0 0)
(0 0 0)
(0 0 0)
(0 0 0)
(0 0 0)
(0 0 0)
(0 0 0)
(0 0 0)
(0 0 0)
(0 0 0)
(0 0 0)
(0 0 0)
(0 0 0)
(0 0 0)
(0 0 0)
(0 0 0)
(0 0 0)
(0 0 0)
(0 0 0)
(0 0 0)
(0 0 0)
(0 0 0)
(0 0 0)
(0 0 0)
(0 0 0)
(0 0 0)
(0 0 0)
(0 0 0)
(0 0 0)
(0 0 0)
(0 0 0)
(0 0 0)
(0 0 0)
(0 0 0)
(0 0 0)
(0 0 0)
(0 0 0)
(0 0 0)
(0 0 0)
(0 0 0)
(0 0 0)
(0 0 0)
(0 0 0)
(0 0 0)
(0 0 0)
(0 0 0)
(0 0 0)
(0 0 0)
(0 0 0)
(0 0 0)
(0 0 0)
(0 0 0)
(0 0 0)
(0 1.76314e-05 0)
(0 1.76314e-05 0)
(0 1.76274e-05 0)
(0 1.7649e-05 0)
(0 1.76073e-05 0)
(0 1.76288e-05 0)
(0 -4.7049e-05 0)
(0 -5.71316e-05 0)
(0 -5.9149e-05 0)
(0 -5.99872e-05 0)
(0 -7.32935e-05 0)
(0 1.76549e-05 0)
(0 -5.28146e-05 0)
(0 -8.09812e-05 0)
(0 1.76274e-05 0)
(0 -4.18114e-05 0)
(0 -4.94057e-05 0)
(0 -4.1568e-05 0)
(0 -3.486e-05 0)
(0 1.76311e-05 0)
(0 1.76427e-05 0)
(0 -2.04316e-05 0)
(0 -2.27955e-05 0)
(0 -6.37051e-05 0)
(0 -6.17165e-05 0)
(0 -5.49092e-05 0)
(0 1.76263e-05 0)
(0 1.7628e-05 0)
(0 -1.36433e-05 0)
(0 -1.42329e-05 0)
(0 -5.1882e-05 0)
(0 -5.53325e-05 0)
(0 -5.25044e-05 0)
(0 -4.40612e-05 0)
(0 -7.54433e-05 0)
(0 -8.67806e-05 0)
(0 -4.68191e-05 0)
(0 -3.59385e-05 0)
(0 -2.84764e-05 0)
(0 -3.82239e-05 0)
(0 -5.99079e-06 0)
(0 -5.30216e-05 0)
(0 -0.000103288 0)
(0 -0.000103974 0)
(0 -0.00015134 0)
(0 -0.000154012 0)
(0 -0.000198034 0)
(0 -0.000195892 0)
(0 -0.000239485 0)
(0 -0.000244131 0)
(0 -0.000282711 0)
(0 -0.000289013 0)
(0 -0.000324514 0)
(0 -0.00033072 0)
(0 -0.000363876 0)
(0 -0.000368756 0)
(0 -0.000399046 0)
(0 -0.000402168 0)
(0 -0.000428984 0)
(0 -0.000431747 0)
(0 -0.00045609 0)
(0 -0.000452849 0)
(0 -0.000477032 0)
(0 -0.000472636 0)
(0 -0.000493275 0)
(0 -0.000487989 0)
(0 -0.000505383 0)
(0 -0.000499174 0)
(0 -0.00051425 0)
(0 -0.000507456 0)
(0 -0.000519942 0)
(0 -0.000513079 0)
(0 -0.000522818 0)
(0 -0.000515841 0)
(0 -0.000523225 0)
(0 -0.000515729 0)
(0 -0.000530206 0)
(0 -0.000528771 0)
(0 -0.000536128 0)
(0 -0.000532908 0)
(0 -0.000540713 0)
(0 -0.000535803 0)
(0 -0.000543693 0)
(0 -0.000537492 0)
(0 -0.00054569 0)
(0 -0.000538132 0)
(0 -0.000546873 0)
(0 -0.000537664 0)
(0 -0.000528609 0)
(0 -0.000546797 0)
(0 -0.000536351 0)
(0 -0.000545633 0)
(0 -0.000534487 0)
(0 -0.000543811 0)
(0 -0.000531793 0)
(0 -0.000540992 0)
(0 -0.00052799 0)
(0 -0.000536823 0)
(0 -0.000523512 0)
(0 -0.00053271 0)
(0 -0.000518891 0)
(0 -0.000508424 0)
(0 -0.000529078 0)
(0 -0.000514342 0)
(0 -0.00052492 0)
(0 -0.000509164 0)
(0 -0.0005202 0)
(0 -0.000503881 0)
(0 -0.00051498 0)
(0 -0.000498291 0)
(0 -0.000509146 0)
(0 -0.000492618 0)
(0 -0.000503121 0)
(0 -0.000483812 0)
(0 -0.000498092 0)
(0 -0.00048038 0)
(0 -0.000493416 0)
(0 -0.0004748 0)
(0 -0.000488379 0)
(0 -0.000469159 0)
(0 -0.000484125 0)
(0 -0.000464429 0)
(0 -0.000525463 0)
(0 -0.00048079 0)
(0 -0.000460787 0)
(0 -0.000500011 0)
(0 -0.000476821 0)
(0 -0.000457843 0)
(0 -0.000479156 0)
(0 -0.000474236 0)
(0 -0.000455803 0)
(0 -0.000473567 0)
(0 -0.000454836 0)
(0 -0.000472936 0)
(0 -0.000454882 0)
(0 -0.000473505 0)
(0 -0.000455824 0)
(0 -0.000475114 0)
(0 -0.000458001 0)
(0 -0.000491053 0)
(0 -0.000477568 0)
(0 -0.000461499 0)
(0 -0.00048202 0)
(0 -0.000466561 0)
(0 -0.000548744 0)
(0 -0.000487909 0)
(0 -0.000472614 0)
(0 -0.000494251 0)
(0 -0.00048016 0)
(0 -0.000502247 0)
(0 -0.000489116 0)
(0 -0.000511338 0)
(0 -0.000499213 0)
(0 -0.000523703 0)
(0 -0.000521447 0)
(0 -0.000510161 0)
(0 -0.000487292 0)
(0 -0.000499007 0)
(0 -0.000475586 0)
(0 -0.00048794 0)
(0 -0.000510835 0)
(0 -0.000500799 0)
(0 -0.000477384 0)
(0 -0.000491115 0)
(0 -0.000514069 0)
(0 -0.000505426 0)
(0 -0.000481757 0)
(0 -0.000497247 0)
(0 -0.000520784 0)
(0 -0.000513816 0)
(0 -0.00053734 0)
(0 -0.000531201 0)
(0 -0.000507127 0)
(0 -0.000525287 0)
(0 -0.000500748 0)
(0 -0.000519982 0)
(0 -0.000544152 0)
(0 -0.000539728 0)
(0 -0.000515275 0)
(0 -0.000535699 0)
(0 -0.000510845 0)
(0 -0.000532144 0)
(0 -0.000556454 0)
(0 -0.000553347 0)
(0 -0.000528824 0)
(0 -0.000550224 0)
(0 -0.000525592 0)
(0 -0.000547737 0)
(0 -0.000522785 0)
(0 -0.000545932 0)
(0 -0.000520397 0)
(0 -0.000542652 0)
(0 -0.000517954 0)
(0 -0.000540358 0)
(0 -0.000516225 0)
(0 -0.000540349 0)
(0 -0.000515752 0)
(0 -0.000540033 0)
(0 -0.00051567 0)
(0 -0.000540529 0)
(0 -0.000516072 0)
(0 -0.000541412 0)
(0 -0.000516913 0)
(0 -0.000542797 0)
(0 -0.000518509 0)
(0 -0.00054484 0)
(0 -0.000520965 0)
(0 -0.000548495 0)
(0 -0.000524308 0)
(0 -0.000553501 0)
(0 -0.000528787 0)
(0 -0.000558561 0)
(0 -0.000534184 0)
(0 -0.000564696 0)
(0 -0.000540519 0)
(0 -0.000576438 0)
(0 -0.00056589 0)
(0 -0.000577185 0)
(0 -0.000495001 0)
(0 -0.000490939 0)
(0 -0.000448241 0)
(0 -0.000503575 0)
(0 -0.00043983 0)
(0 -0.000458601 0)
(0 -0.000508642 0)
(0 -0.000507912 0)
(0 -0.00050121 0)
(0 -0.000499802 0)
(0 -0.000433856 0)
(0 -0.000555801 0)
(0 -0.000850256 0)
(0 -0.000831984 0)
(0 -0.000827703 0)
(0 -0.000865032 0)
(0 -0.000808143 0)
(0 -0.000804534 0)
(0 -0.000784151 0)
(0 -0.000781324 0)
(0 -0.000760334 0)
(0 -0.0007588 0)
(0 -0.000776951 0)
(0 -0.000756761 0)
(0 -0.000772682 0)
(0 -0.000754481 0)
(0 -0.000768508 0)
(0 -0.000751617 0)
(0 -0.000736397 0)
(0 -0.000733451 0)
(0 -0.000746926 0)
(0 -0.000728797 0)
(0 -0.000714103 0)
(0 -0.000710025 0)
(0 -0.000722472 0)
(0 -0.000705332 0)
(0 -0.000691155 0)
(0 -0.00068875 0)
(0 -0.000672571 0)
(0 -0.000672236 0)
(0 -0.00068697 0)
(0 -0.000672309 0)
(0 -0.00065612 0)
(0 -0.000657243 0)
(0 -0.000671447 0)
(0 -0.000657281 0)
(0 -0.000641084 0)
(0 -0.00064114 0)
(0 -0.000654504 0)
(0 -0.000639327 0)
(0 -0.000623268 0)
(0 -0.000622048 0)
(0 -0.000635992 0)
(0 -0.000619152 0)
(0 -0.000631462 0)
(0 -0.000615468 0)
(0 -0.000626575 0)
(0 -0.000612459 0)
(0 -0.000599486 0)
(0 -0.000597821 0)
(0 -0.000610444 0)
(0 -0.000596878 0)
(0 -0.000609274 0)
(0 -0.000597116 0)
(0 -0.000609272 0)
(0 -0.000598914 0)
(0 -0.000585333 0)
(0 -0.000588959 0)
(0 -0.000601734 0)
(0 -0.000592986 0)
(0 -0.00060455 0)
(0 -0.000596599 0)
(0 -0.000606837 0)
(0 -0.000599948 0)
(0 -0.000588689 0)
(0 -0.000592745 0)
(0 -0.000602967 0)
(0 -0.000596186 0)
(0 -0.000584857 0)
(0 -0.000588423 0)
(0 -0.0005989 0)
(0 -0.000591133 0)
(0 -0.000600947 0)
(0 -0.000593334 0)
(0 -0.000602443 0)
(0 -0.000595192 0)
(0 -0.000584739 0)
(0 -0.000586285 0)
(0 -0.000596338 0)
(0 -0.00058654 0)
(0 -0.000596046 0)
(0 -0.000584809 0)
(0 -0.000574077 0)
(0 -0.000593951 0)
(0 -0.000581243 0)
(0 -0.000589918 0)
(0 -0.00057621 0)
(0 -0.000584647 0)
(0 -0.00056959 0)
(0 -0.000578178 0)
(0 -0.000561154 0)
(0 -0.000552512 0)
(0 -0.000542488 0)
(0 -0.000533395 0)
(0 -0.000601482 0)
(0 -0.000134402 0)
(0 -0.000124249 0)
(0 -0.00010975 0)
(0 -0.000114599 0)
(0 -0.000100587 0)
(0 -0.00010548 0)
(0 -9.17841e-05 0)
(0 -9.68905e-05 0)
(0 -0.000111049 0)
(0 -0.000102574 0)
(0 -8.88248e-05 0)
(0 -9.45899e-05 0)
(0 -8.14041e-05 0)
(0 -8.72132e-05 0)
(0 -7.46185e-05 0)
(0 -8.05297e-05 0)
(0 -9.35882e-05 0)
(0 -8.7049e-05 0)
(0 -7.43915e-05 0)
(0 -8.11426e-05 0)
(0 -6.88866e-05 0)
(0 -7.55602e-05 0)
(0 -6.40794e-05 0)
(0 -7.03598e-05 0)
(0 -5.98782e-05 0)
(0 -6.65001e-05 0)
(0 -5.61019e-05 0)
(0 -6.31347e-05 0)
(0 -5.3005e-05 0)
(0 -6.01986e-05 0)
(0 -5.06786e-05 0)
(0 -5.82186e-05 0)
(0 -4.87321e-05 0)
(0 -5.67393e-05 0)
(0 -4.73245e-05 0)
(0 -5.57425e-05 0)
(0 -4.64114e-05 0)
(0 -5.52318e-05 0)
(0 -4.61655e-05 0)
(0 -5.5473e-05 0)
(0 -4.66682e-05 0)
(0 -5.63432e-05 0)
(0 -4.79469e-05 0)
(0 -5.78879e-05 0)
(0 -4.99308e-05 0)
(0 -6.03652e-05 0)
(0 -5.25843e-05 0)
(0 -6.35248e-05 0)
(0 -5.60493e-05 0)
(0 -6.72133e-05 0)
(0 -5.99425e-05 0)
(0 -7.15901e-05 0)
(0 -6.43513e-05 0)
(0 -7.63761e-05 0)
(0 -6.97603e-05 0)
(0 -8.20776e-05 0)
(0 -7.58754e-05 0)
(0 -8.89405e-05 0)
(0 -8.25816e-05 0)
(0 -8.45733e-05 0)
(0 -6.48984e-05 0)
(0 -6.98733e-05 0)
(0 -7.65529e-05 0)
(0 -6.42874e-05 0)
(0 -7.09608e-05 0)
(0 -8.38044e-05 0)
(0 -7.81945e-05 0)
(0 -6.58249e-05 0)
(0 -7.30886e-05 0)
(0 -6.10653e-05 0)
(0 -6.84756e-05 0)
(0 -8.08891e-05 0)
(0 -7.65519e-05 0)
(0 -6.49211e-05 0)
(0 -7.26205e-05 0)
(0 -7.46407e-05 0)
(0 -8.50448e-05 0)
(0 -8.08833e-05 0)
(0 -6.84973e-05 0)
(0 -7.69225e-05 0)
(0 -6.47113e-05 0)
(0 -7.3394e-05 0)
(0 -6.17035e-05 0)
(0 -7.01085e-05 0)
(0 -5.91257e-05 0)
(0 -6.75654e-05 0)
(0 -5.71207e-05 0)
(0 -6.71809e-05 0)
(0 -5.57905e-05 0)
(0 -6.34351e-05 0)
(0 -5.40017e-05 0)
(0 -6.14252e-05 0)
(0 -5.21423e-05 0)
(0 -6.02812e-05 0)
(0 -5.12717e-05 0)
(0 -6.01947e-05 0)
(0 -5.0926e-05 0)
(0 -6.04706e-05 0)
(0 -5.10901e-05 0)
(0 -6.09201e-05 0)
(0 -5.174e-05 0)
(0 -6.20137e-05 0)
(0 -5.29661e-05 0)
(0 -6.37668e-05 0)
(0 -5.48193e-05 0)
(0 -6.59084e-05 0)
(0 -5.73026e-05 0)
(0 -6.89829e-05 0)
(0 -6.05342e-05 0)
(0 -7.35917e-05 0)
(0 -6.4564e-05 0)
(0 -7.82975e-05 0)
(0 -6.91532e-05 0)
(0 -8.31087e-05 0)
(0 -7.44654e-05 0)
(0 -8.91133e-05 0)
(0 -8.06097e-05 0)
(0 -9.62343e-05 0)
(0 -8.81161e-05 0)
(0 -0.000104359 0)
(0 -9.67083e-05 0)
(0 -0.000113773 0)
(0 -0.000105998 0)
(0 -0.000124351 0)
(0 -0.000116309 0)
(0 -0.000136052 0)
(0 -0.00012787 0)
(0 -0.000108572 0)
(0 -0.000120368 0)
(0 -0.00010167 0)
(0 -0.000113856 0)
(0 -9.56009e-05 0)
(0 -0.000127388 0)
(0 -7.05168e-05 0)
(0 -7.51363e-05 0)
(0 -0.000100739 0)
(0 -5.35857e-05 0)
(0 -5.10722e-05 0)
(0 -8.61921e-05 0)
(0 -9.76162e-05 0)
(0 -4.49003e-05 0)
(0 -6.62643e-05 0)
(0 -0.000132649 0)
(0 -6.87559e-05 0)
(0 -4.3715e-05 0)
(0 -4.16183e-05 0)
(0 -3.80316e-05 0)
(0 -4.91173e-05 0)
(0 -4.23996e-05 0)
(0 -0.000569028 0)
(0 -0.000521789 0)
(0 -0.000511778 0)
(0 -0.00049852 0)
(0 -0.000487718 0)
(0 -0.00051154 0)
(0 -0.000433794 0)
(0 -0.000460111 0)
(0 -0.000522053 0)
(0 -0.000434693 0)
(0 -0.000461128 0)
(0 -0.000435383 0)
(0 -0.000472765 0)
(0 -0.000461792 0)
(0 -0.000475832 0)
(0 -0.000445699 0)
(0 -0.000462935 0)
(0 -0.000433111 0)
(0 -0.000447302 0)
(0 -0.000417467 0)
(0 -0.00042886 0)
(0 -0.000398721 0)
(0 -0.000407269 0)
(0 -0.000375453 0)
(0 -0.000382445 0)
(0 -0.000351576 0)
(0 -0.000483551 0)
(0 -0.000737011 0)
(0 -0.000735267 0)
(0 -0.000710048 0)
(0 -0.000704611 0)
(0 -0.000613516 0)
(0 -0.000604212 0)
(0 -0.000608881 0)
(0 -0.000587594 0)
(0 -0.0006397 0)
(0 -0.000676569 0)
(0 -0.000575313 0)
(0 -0.000590381 0)
(0 -0.000583576 0)
(0 -0.000139556 0)
(0 -0.000574148 0)
(0 -0.000576177 0)
(0 -0.000571446 0)
(0 -0.000667105 0)
(0 -0.000539556 0)
(0 -0.000510303 0)
(0 -0.000492457 0)
(0 -0.00056624 0)
(0 -0.000501867 0)
(0 3.96506e-06 0)
(0 6.43423e-06 0)
(0 3.30779e-06 0)
(0 5.88402e-06 0)
(0 2.67209e-06 0)
(0 5.22e-06 0)
(0 -0.00035717 0)
(0 -0.000385934 0)
(0 -7.15443e-05 0)
(0 -0.000442309 0)
(0 -0.00058035 0)
(0 -0.000593478 0)
(0 -0.000325262 0)
(0 8.13555e-06 0)
(0 7.38044e-06 0)
(0 -0.000481501 0)
(0 -0.000358121 0)
(0 -0.000385678 0)
(0 -0.000636748 0)
(0 -0.000584159 0)
(0 -0.000595512 0)
(0 -0.000403603 0)
(0 -0.000623628 0)
(0 4.28936e-06 0)
(0 6.42723e-06 0)
(0 9.18529e-06 0)
(0 8.24319e-06 0)
(0 -6.92192e-05 0)
(0 -0.000585955 0)
(0 -0.000573837 0)
(0 -0.0005966 0)
(0 -0.000604082 0)
(0 -0.000340876 0)
(0 -0.000354063 0)
(0 -0.000381446 0)
(0 -0.000587068 0)
(0 1.0677e-05 0)
(0 9.7345e-06 0)
(0 7.22499e-06 0)
(0 8.62102e-06 0)
(0 1.09305e-05 0)
(0 9.71286e-06 0)
(0 1.18195e-05 0)
(0 1.05959e-05 0)
(0 1.245e-05 0)
(0 1.11951e-05 0)
(0 1.2906e-05 0)
(0 1.16179e-05 0)
(0 1.3209e-05 0)
(0 1.18743e-05 0)
(0 1.33794e-05 0)
(0 1.20456e-05 0)
(0 1.36758e-05 0)
(0 1.21316e-05 0)
(0 1.34882e-05 0)
(0 1.20387e-05 0)
(0 1.33178e-05 0)
(0 1.18182e-05 0)
(0 1.30711e-05 0)
(0 1.15293e-05 0)
(0 1.27651e-05 0)
(0 1.11972e-05 0)
(0 1.24524e-05 0)
(0 1.08044e-05 0)
(0 1.20192e-05 0)
(0 1.03409e-05 0)
(0 1.15412e-05 0)
(0 9.86415e-06 0)
(0 1.11132e-05 0)
(0 9.25952e-06 0)
(0 1.06401e-05 0)
(0 8.49705e-06 0)
(0 9.99538e-06 0)
(0 8.3458e-06 0)
(0 7.68135e-06 0)
(0 9.23359e-06 0)
(0 6.77353e-06 0)
(0 8.41564e-06 0)
(0 1.04137e-05 0)
(0 4.94977e-06 0)
(0 1.06132e-05 0)
(0 9.86545e-06 0)
(0 7.5006e-06 0)
(0 9.02458e-06 0)
(0 6.47379e-06 0)
(0 8.08461e-06 0)
(0 1.03766e-05 0)
(0 9.50953e-06 0)
(0 7.01625e-06 0)
(0 8.51376e-06 0)
(0 1.1569e-05 0)
(0 5.77858e-06 0)
(0 7.35803e-06 0)
(0 1.24819e-05 0)
(0 1.00248e-05 0)
(0 9.66808e-06 0)
(0 7.00206e-06 0)
(0 4.34562e-06 0)
(0 6.03699e-06 0)
(0 8.82157e-06 0)
(0 7.56422e-06 0)
(0 1.00755e-05 0)
(0 8.89232e-06 0)
(0 2.50362e-06 0)
(0 1.11205e-05 0)
(0 1.00475e-05 0)
(0 7.56678e-06 0)
(0 8.78458e-06 0)
(0 5.98801e-06 0)
(0 7.28287e-06 0)
(0 9.86865e-06 0)
(0 8.399e-06 0)
(0 1.35577e-05 0)
(0 1.07197e-05 0)
(0 9.31324e-06 0)
(0 6.67738e-06 0)
(0 7.7138e-06 0)
(0 1.01456e-05 0)
(0 8.50191e-06 0)
(0 1.08256e-05 0)
(0 9.00509e-06 0)
(0 1.12699e-05 0)
(0 9.33492e-06 0)
(0 1.15012e-05 0)
(0 9.44291e-06 0)
(0 1.15005e-05 0)
(0 9.32192e-06 0)
(0 1.13126e-05 0)
(0 8.95071e-06 0)
(0 1.08797e-05 0)
(0 8.32554e-06 0)
(0 1.02013e-05 0)
(0 7.4594e-06 0)
(0 9.31191e-06 0)
(0 6.33989e-06 0)
(0 8.29343e-06 0)
(0 4.89154e-06 0)
(0 5.28051e-06 0)
(0 9.62256e-07 0)
(0 6.83825e-06 0)
(0 6.27745e-06 0)
(0 -0.000656657 0)
(0 -0.000608157 0)
(0 -0.000642961 0)
(0 -0.000596748 0)
(0 -0.000587278 0)
(0 -0.000457022 0)
(0 -0.000548308 0)
(0 -0.00059181 0)
(0 -0.000606411 0)
(0 7.65073e-07 0)
(0 -1.36236e-06 0)
(0 -0.000347895 0)
(0 -0.000374147 0)
(0 1.44615e-05 0)
(0 -0.000619411 0)
(0 -0.00011719 0)
(0 -0.000527377 0)
(0 -0.000590027 0)
(0 -0.000321085 0)
(0 -0.000148921 0)
(0 -8.43775e-05 0)
(0 -0.000402738 0)
(0 -0.000407551 0)
(0 -0.000435937 0)
(0 -0.000406961 0)
(0 -0.000338449 0)
(0 -0.000364229 0)
(0 -0.000400158 0)
(0 -0.000389975 0)
(0 -0.000351711 0)
(0 -0.000377076 0)
(0 -0.000559575 0)
(0 -0.000575738 0)
(0 -0.000435215 0)
(0 -0.000404982 0)
(0 -0.000433524 0)
(0 -0.000402097 0)
(0 1.35161e-05 0)
(0 -0.000595668 0)
(0 -0.000586791 0)
(0 1.27328e-05 0)
(0 -3.4539e-06 0)
(0 -5.88266e-06 0)
(0 -0.00052654 0)
(0 -0.000543036 0)
(0 -0.000425595 0)
(0 -0.00033663 0)
(0 -0.000362095 0)
(0 1.4411e-05 0)
(0 -0.000300505 0)
(0 -0.00031446 0)
(0 -0.000286503 0)
(0 -0.000301252 0)
(0 -0.000273661 0)
(0 -0.000288763 0)
(0 -0.000261505 0)
(0 -0.000278517 0)
(0 -0.000250778 0)
(0 -0.000268806 0)
(0 -0.000242131 0)
(0 -0.000262883 0)
(0 -0.000234388 0)
(0 -0.000251699 0)
(0 -0.000227009 0)
(0 -0.000245311 0)
(0 -0.000221027 0)
(0 -0.000239707 0)
(0 -0.000216124 0)
(0 -0.000235234 0)
(0 -0.000212698 0)
(0 -0.000231937 0)
(0 -0.000210431 0)
(0 -0.000229718 0)
(0 -0.000208903 0)
(0 -0.000228395 0)
(0 -0.000249934 0)
(0 -0.000248754 0)
(0 -0.000227729 0)
(0 -0.000248505 0)
(0 -0.000227686 0)
(0 -0.000249025 0)
(0 -0.000228426 0)
(0 -0.000250647 0)
(0 -0.000230143 0)
(0 -0.00025254 0)
(0 -0.000232511 0)
(0 -0.000254278 0)
(0 -0.000235421 0)
(0 -0.000257062 0)
(0 -0.000239148 0)
(0 -0.000261084 0)
(0 -0.000244034 0)
(0 -0.000264816 0)
(0 -0.000249329 0)
(0 -0.000270751 0)
(0 -0.000255118 0)
(0 -0.000280936 0)
(0 -0.000259366 0)
(0 -0.000282655 0)
(0 -0.000264346 0)
(0 -0.000288319 0)
(0 -0.000271444 0)
(0 -0.00029516 0)
(0 -0.000279372 0)
(0 -0.000277652 0)
(0 -0.000254977 0)
(0 -0.000263849 0)
(0 -0.000290368 0)
(0 -0.000272687 0)
(0 -0.000250122 0)
(0 -0.000259306 0)
(0 -0.000281016 0)
(0 -0.000268604 0)
(0 -0.000244986 0)
(0 -0.000256692 0)
(0 -0.000279435 0)
(0 -0.000267157 0)
(0 -0.000242789 0)
(0 -0.000255587 0)
(0 -0.000233851 0)
(0 -0.000245077 0)
(0 -0.000223494 0)
(0 -0.000235795 0)
(0 -0.000214644 0)
(0 -0.000228291 0)
(0 -0.000207348 0)
(0 -0.000221806 0)
(0 -0.000201371 0)
(0 -0.000216389 0)
(0 -0.00019655 0)
(0 -0.000212003 0)
(0 -0.000192842 0)
(0 -0.000208879 0)
(0 -0.000228279 0)
(0 -0.000225589 0)
(0 -0.000206881 0)
(0 -0.000223888 0)
(0 -0.000205741 0)
(0 -0.00022322 0)
(0 -0.000205608 0)
(0 -0.000223973 0)
(0 -0.000243682 0)
(0 -0.000267065 0)
(0 -0.000206573 0)
(0 -0.000225747 0)
(0 -0.000208459 0)
(0 -0.000228093 0)
(0 -0.000211206 0)
(0 -0.000231921 0)
(0 -0.000214667 0)
(0 -0.000236096 0)
(0 -0.000218722 0)
(0 -0.000239802 0)
(0 -0.000223363 0)
(0 -0.000244505 0)
(0 -0.000229847 0)
(0 -0.000253845 0)
(0 -0.000237442 0)
(0 -0.000258843 0)
(0 -0.000242791 0)
(0 -0.000266849 0)
(0 -0.000254644 0)
(0 -0.000275985 0)
(0 -0.000280371 0)
(0 -0.000243003 0)
(0 -0.000250166 0)
(0 -0.000260705 0)
(0 -0.00027104 0)
(0 -0.000269204 0)
(0 -0.000299156 0)
(0 -0.000263434 0)
(0 -0.000285299 0)
(0 -0.000238633 0)
(0 -0.000272444 0)
(0 -0.000300289 0)
(0 -0.000187919 0)
(0 -0.00033224 0)
(0 -0.000272846 0)
(0 -0.00029505 0)
(0 -0.000307776 0)
(0 -0.000317452 0)
(0 -0.000330294 0)
(0 -0.000339779 0)
(0 -0.00032734 0)
(0 -0.000349649 0)
(0 -0.0003371 0)
(0 -0.000359374 0)
(0 -0.00034674 0)
(0 -0.000368982 0)
(0 -0.000221727 0)
(0 -0.00019515 0)
(0 -0.000207744 0)
(0 -0.000356504 0)
(0 -0.000378849 0)
(0 -0.000372322 0)
(0 -0.000211286 0)
(0 -0.000187426 0)
(0 -0.000216732 0)
(0 -0.000197751 0)
(0 -0.000190347 0)
(0 -0.000244409 0)
(0 1.3067e-05 0)
(0 -0.00036578 0)
(0 -0.000387509 0)
(0 -0.000246306 0)
(0 -0.000374044 0)
(0 -0.00039508 0)
(0 -0.000215853 0)
(0 -0.000507776 0)
(0 -0.000457965 0)
(0 -0.000377043 0)
(0 -0.000492777 0)
(0 -0.000511119 0)
(0 -0.000381644 0)
(0 -0.000402738 0)
(0 -0.000431006 0)
(0 -0.000398991 0)
(0 -0.000785321 0)
(0 -0.000576475 0)
(0 -0.000576838 0)
(0 -0.000319627 0)
(0 -0.000346062 0)
(0 -0.000387509 0)
(0 -0.000372152 0)
(0 -0.000412221 0)
(0 -0.000397195 0)
(0 -0.00035672 0)
(0 -0.000382338 0)
(0 -0.000420859 0)
(0 -0.000406842 0)
(0 -0.000367883 0)
(0 -0.00039355 0)
(0 -0.000353383 0)
(0 -0.000380424 0)
(0 -0.000415138 0)
(0 -0.000422528 0)
(0 -0.000368095 0)
(0 -0.000364563 0)
(0 -0.000419014 0)
(0 -0.00040793 0)
(0 -0.000366903 0)
(0 -0.000396734 0)
(0 -0.000356034 0)
(0 -8.35268e-06 0)
(0 -0.00059344 0)
(0 -0.00059986 0)
(0 -0.000286452 0)
(0 -0.000352489 0)
(0 -0.000383557 0)
(0 -0.000430144 0)
(0 -0.000412313 0)
(0 -0.00029376 0)
(0 -0.000294878 0)
(0 -0.000411019 0)
(0 -0.000430175 0)
(0 -1.10785e-05 0)
(0 -8.48482e-06 0)
(0 -1.40635e-05 0)
(0 -1.12619e-05 0)
(0 -0.000367893 0)
(0 -0.000398066 0)
(0 -1.74036e-05 0)
(0 -1.44934e-05 0)
(0 -0.000596135 0)
(0 -0.000600668 0)
(0 -0.000458273 0)
(0 -0.000478632 0)
(0 -0.000533396 0)
(0 -0.000495963 0)
(0 -0.000443535 0)
(0 -0.000462783 0)
(0 -0.000509518 0)
(0 -0.000478122 0)
(0 -0.000323652 0)
(0 -0.000438386 0)
(0 -0.00042678 0)
(0 -0.000382266 0)
(0 -0.000413812 0)
(0 1.2111e-05 0)
(0 1.29236e-05 0)
(0 1.36748e-05 0)
(0 1.43531e-05 0)
(0 1.48793e-05 0)
(0 1.54392e-05 0)
(0 1.58113e-05 0)
(0 1.62346e-05 0)
(0 1.64959e-05 0)
(0 1.5919e-05 0)
(0 1.61324e-05 0)
(0 1.67024e-05 0)
(0 1.64002e-05 0)
(0 1.68689e-05 0)
(0 1.65817e-05 0)
(0 -0.000331416 0)
(0 -0.000328234 0)
(0 -0.000361227 0)
(0 -0.000325519 0)
(0 -0.000564694 0)
(0 -0.00056554 0)
(0 -0.000422154 0)
(0 -1.3958e-05 0)
(0 -1.11058e-05 0)
(0 1.70101e-05 0)
(0 1.674e-05 0)
(0 1.71219e-05 0)
(0 1.68941e-05 0)
(0 -0.000419523 0)
(0 -0.000438049 0)
(0 -0.000434063 0)
(0 -0.000365536 0)
(0 -0.000275338 0)
(0 -0.000522342 0)
(0 -0.00042775 0)
(0 -0.000445641 0)
(0 -0.000455892 0)
(0 -0.000462963 0)
(0 -0.000452422 0)
(0 -0.000468983 0)
(0 -0.000458403 0)
(0 -0.000474208 0)
(0 1.72158e-05 0)
(0 1.70179e-05 0)
(0 1.6613e-05 0)
(0 1.67709e-05 0)
(0 1.71234e-05 0)
(0 1.69022e-05 0)
(0 1.72117e-05 0)
(0 1.70147e-05 0)
(0 1.66219e-05 0)
(0 1.67628e-05 0)
(0 1.71133e-05 0)
(0 1.68902e-05 0)
(0 1.61841e-05 0)
(0 -0.00035192 0)
(0 1.71955e-05 0)
(0 1.69973e-05 0)
(0 1.72621e-05 0)
(0 1.70948e-05 0)
(0 1.65823e-05 0)
(0 1.63221e-05 0)
(0 -0.000357885 0)
(0 -0.000322636 0)
(0 -0.000236027 0)
(0 -2.10928e-05 0)
(0 -1.81994e-05 0)
(0 -0.000492788 0)
(0 1.6265e-05 0)
(0 -0.000595708 0)
(0 -0.000598788 0)
(0 -0.00059133 0)
(0 -0.000604152 0)
(0 -0.000600994 0)
(0 -0.00060638 0)
(0 -0.000602081 0)
(0 -0.000607651 0)
(0 -0.000602306 0)
(0 -0.000607842 0)
(0 -0.000601756 0)
(0 -0.000607116 0)
(0 -0.000600234 0)
(0 -0.000605834 0)
(0 -0.000598384 0)
(0 -0.000604274 0)
(0 -0.000596321 0)
(0 -0.000602719 0)
(0 -0.000594485 0)
(0 -0.000601455 0)
(0 -0.000593387 0)
(0 -0.000600579 0)
(0 -0.00059283 0)
(0 -0.000600264 0)
(0 -0.000593003 0)
(0 -0.000600744 0)
(0 -0.000593732 0)
(0 -0.000607897 0)
(0 -0.000601907 0)
(0 -0.000595198 0)
(0 -0.000611208 0)
(0 -0.000603631 0)
(0 -0.000597095 0)
(0 -0.000605838 0)
(0 -0.000599759 0)
(0 -0.00060859 0)
(0 -0.000603125 0)
(0 -0.000608941 0)
(0 -0.000612045 0)
(0 -0.000606775 0)
(0 -0.000596175 0)
(0 -0.000600501 0)
(0 -0.00061103 0)
(0 -0.000605918 0)
(0 -0.000616283 0)
(0 -0.000612638 0)
(0 -0.000622454 0)
(0 -0.000620226 0)
(0 -0.000629121 0)
(0 -0.000627695 0)
(0 -0.000587032 0)
(0 -0.000636003 0)
(0 -0.000635199 0)
(0 -0.000624884 0)
(0 -0.00063375 0)
(0 -0.000642998 0)
(0 -0.000643145 0)
(0 -0.000651535 0)
(0 -0.000652524 0)
(0 -0.000642269 0)
(0 -0.000652141 0)
(0 -0.00064041 0)
(0 -0.000651142 0)
(0 -0.000661877 0)
(0 -0.000662165 0)
(0 -0.000650019 0)
(0 -0.000662496 0)
(0 -0.00067369 0)
(0 -0.000675225 0)
(0 -0.000662556 0)
(0 -0.000676356 0)
(0 -0.000662152 0)
(0 -0.000677765 0)
(0 -0.000690974 0)
(0 -0.000694582 0)
(0 -0.000679859 0)
(0 -0.000698932 0)
(0 -0.000711964 0)
(0 -0.000717666 0)
(0 -0.000703812 0)
(0 -0.000723294 0)
(0 -0.000708782 0)
(0 -0.000729345 0)
(0 -0.000742603 0)
(0 -0.000749327 0)
(0 -0.000735226 0)
(0 -0.000755304 0)
(0 -0.000740537 0)
(0 -0.000760901 0)
(0 -0.000745173 0)
(0 -0.000774604 0)
(0 -0.00076651 0)
(0 -0.000749879 0)
(0 -0.000772672 0)
(0 -0.000755514 0)
(0 -0.000779296 0)
(0 -0.000761354 0)
(0 -0.000795078 0)
(0 -0.000785587 0)
(0 -0.000766903 0)
(0 -0.000741059 0)
(0 -0.000746953 0)
(0 -0.000776459 0)
(0 -0.000753228 0)
(0 -0.00072424 0)
(0 -0.00072538 0)
(0 -0.000731441 0)
(0 -0.00075937 0)
(0 -0.000737968 0)
(0 -0.000765508 0)
(0 -0.000745545 0)
(0 -0.000599634 0)
(0 -0.000583579 0)
(0 -0.000705509 0)
(0 -0.000588291 0)
(0 -0.000460556 0)
(0 -0.000457965 0)
(0 -0.000292728 0)
(0 -0.000295664 0)
(0 -0.000454108 0)
(0 1.6741e-05 0)
(0 1.68638e-05 0)
(0 1.7184e-05 0)
(0 1.6977e-05 0)
(0 1.72586e-05 0)
(0 1.70769e-05 0)
(0 1.73227e-05 0)
(0 1.71611e-05 0)
(0 1.67247e-05 0)
(0 -0.000249292 0)
(0 -0.000463326 0)
(0 -0.000484013 0)
(0 1.22596e-05 0)
(0 1.69907e-05 0)
(0 -0.000478042 0)
(0 -0.000536515 0)
(0 1.73487e-05 0)
(0 -6.2682e-05 0)
(0 1.72249e-05 0)
(0 -0.000624543 0)
(0 1.42221e-05 0)
(0 -5.81815e-05 0)
(0 -4.50582e-05 0)
(0 1.68674e-05 0)
(0 1.66496e-05 0)
(0 -0.000500559 0)
(0 -0.000492422 0)
(0 -3.82796e-05 0)
(0 -4.04946e-05 0)
(0 -0.000461378 0)
(0 3.05656e-06 0)
(0 -5.21698e-05 0)
(0 -4.26884e-05 0)
(0 1.32262e-05 0)
(0 -0.000600986 0)
(0 -0.000440289 0)
(0 -5.42751e-05 0)
(0 -0.000551599 0)
(0 -0.000435084 0)
(0 -0.000177565 0)
(0 -0.000482322 0)
(0 -0.000592861 0)
(0 -0.000408987 0)
(0 -0.000724859 0)
(0 -4.45531e-05 0)
(0 -0.000532234 0)
(0 -0.000584053 0)
(0 -0.000719145 0)
(0 -0.000490152 0)
(0 -0.000190076 0)
(0 -0.000687812 0)
(0 -0.000475288 0)
(0 -0.000456765 0)
(0 -0.000449242 0)
(0 -0.000430828 0)
(0 -0.000422835 0)
(0 -0.00040458 0)
(0 -0.000413601 0)
(0 -0.000554811 0)
(0 -0.000560435 0)
(0 -0.000578118 0)
(0 -0.0005832 0)
(0 -0.000647348 0)
(0 -0.000629291 0)
(0 -1.71698e-05 0)
(0 -1.42198e-05 0)
(0 -0.000493072 0)
(0 4.16512e-06 0)
(0 -9.63788e-05 0)
(0 -0.00010298 0)
(0 -0.00011128 0)
(0 -0.000118202 0)
(0 -0.000127439 0)
(0 -0.000134912 0)
(0 -0.000144634 0)
(0 -0.000137296 0)
(0 -0.000155065 0)
(0 -0.000147864 0)
(0 -0.000152654 0)
(0 -0.000143145 0)
(0 -5.64619e-05 0)
(0 -0.000202546 0)
(0 -0.000412851 0)
(0 -0.000593852 0)
(0 -0.000550159 0)
(0 -0.000515185 0)
(0 -9.11464e-05 0)
(0 -0.000685516 0)
(0 -0.000589594 0)
(0 -0.000548567 0)
(0 -0.000625415 0)
(0 -0.000211814 0)
(0 -0.000659961 0)
(0 -0.000615842 0)
(0 -0.000778799 0)
(0 -0.000793942 0)
(0 -0.000784637 0)
(0 -0.000798691 0)
(0 -0.00058557 0)
(0 -8.17986e-05 0)
(0 -0.000603952 0)
(0 -0.000729561 0)
(0 -9.42387e-05 0)
(0 -0.000761673 0)
(0 -0.000589466 0)
(0 -0.000235833 0)
(0 -0.000255921 0)
(0 -0.000243385 0)
(0 -0.000588054 0)
(0 1.73773e-05 0)
(0 1.72339e-05 0)
(0 1.69428e-05 0)
(0 1.70373e-05 0)
(0 1.73023e-05 0)
(0 1.7121e-05 0)
(0 1.62824e-05 0)
(0 1.6805e-05 0)
(0 -2.51765e-05 0)
(0 -2.21562e-05 0)
(0 -1.54773e-05 0)
(0 -1.93638e-05 0)
(0 -1.29894e-05 0)
(0 -1.68248e-05 0)
(0 -1.06387e-05 0)
(0 -1.4487e-05 0)
(0 -8.08858e-06 0)
(0 -1.25493e-05 0)
(0 -1.87633e-05 0)
(0 -1.68252e-05 0)
(0 -1.09976e-05 0)
(0 -1.49849e-05 0)
(0 -9.61985e-06 0)
(0 -1.31961e-05 0)
(0 -8.41187e-06 0)
(0 -1.19525e-05 0)
(0 -7.32993e-06 0)
(0 -1.1273e-05 0)
(0 -6.66523e-06 0)
(0 -1.05739e-05 0)
(0 -6.1259e-06 0)
(0 -1.00497e-05 0)
(0 -5.6947e-06 0)
(0 -9.98902e-06 0)
(0 -5.69965e-06 0)
(0 -1.87726e-05 0)
(0 -1.01988e-05 0)
(0 -6.03869e-06 0)
(0 -1.07911e-05 0)
(0 -6.63597e-06 0)
(0 -0.00055662 0)
(0 -0.000354747 0)
(0 -0.000319626 0)
(0 -0.000286214 0)
(0 -0.000283502 0)
(0 -0.000316395 0)
(0 -0.00028059 0)
(0 -0.00031254 0)
(0 -0.000276571 0)
(0 -0.000307282 0)
(0 -0.00027041 0)
(0 -0.000389218 0)
(0 -0.000614399 0)
(0 -0.000563651 0)
(0 -0.000442635 0)
(0 -0.000456153 0)
(0 -0.000474837 0)
(0 -0.000487328 0)
(0 -0.000502962 0)
(0 -0.000491939 0)
(0 -0.000489554 0)
(0 -0.000401571 0)
(0 -0.000345442 0)
(0 -0.000312333 0)
(0 -0.00016169 0)
(0 -0.000444688 0)
(0 -0.000290814 0)
(0 -8.94662e-05 0)
(0 -3.20349e-06 0)
(0 -7.10519e-06 0)
(0 -7.9509e-06 0)
(0 -1.22846e-05 0)
(0 -1.3342e-05 0)
(0 -1.81536e-05 0)
(0 -1.68312e-05 0)
(0 -1.94699e-05 0)
(0 -2.35262e-05 0)
(0 -1.45906e-05 0)
(0 -2.94898e-05 0)
(0 -3.60026e-05 0)
(0 -2.1013e-05 0)
(0 -1.63342e-05 0)
(0 -4.45886e-05 0)
(0 -0.000612432 0)
(0 -0.000427313 0)
(0 -0.000445812 0)
(0 -0.000439313 0)
(0 -2.34087e-05 0)
(0 -0.000574282 0)
(0 -0.000673776 0)
(0 -0.000526847 0)
(0 4.86602e-06 0)
(0 -0.000715535 0)
(0 -0.000730247 0)
(0 -0.000603187 0)
(0 -0.000322413 0)
(0 -0.000305198 0)
(0 -0.000274344 0)
(0 -0.000303328 0)
(0 -0.000314888 0)
(0 -0.000326865 0)
(0 -0.000338657 0)
(0 -0.000326471 0)
(0 1.6409e-05 0)
(0 -0.000786096 0)
(0 -0.000649786 0)
(0 3.81934e-06 0)
(0 -0.000722758 0)
(0 -9.86388e-05 0)
(0 -0.000108722 0)
(0 -0.000113408 0)
(0 -0.000124306 0)
(0 -0.000129294 0)
(0 -0.000119705 0)
(0 -0.000136107 0)
(0 -0.000131614 0)
(0 -0.000161578 0)
(0 -0.000152266 0)
(0 -0.000682715 0)
(0 -0.000693571 0)
(0 -0.000689608 0)
(0 -0.000326636 0)
(0 -0.000350823 0)
(0 -0.000339073 0)
(0 -0.000363187 0)
(0 -0.000352041 0)
(0 -0.000375899 0)
(0 -0.000365549 0)
(0 -0.000361584 0)
(0 -0.000341255 0)
(0 -0.000355569 0)
(0 -0.000611853 0)
(0 1.62851e-05 0)
(0 -0.000300133 0)
(0 -0.000262584 0)
(0 -0.000290979 0)
(0 -0.000252762 0)
(0 -2.62424e-05 0)
(0 -0.000606562 0)
(0 -0.000566543 0)
(0 -0.000258592 0)
(0 -0.000436043 0)
(0 -0.000398662 0)
(0 -0.000331439 0)
(0 -0.00034638 0)
(0 -0.000322876 0)
(0 -0.000338602 0)
(0 -0.000316018 0)
(0 -0.000334838 0)
(0 -0.000360308 0)
(0 -2.3363e-05 0)
(0 -3.20205e-05 0)
(0 -2.83584e-05 0)
(0 -3.78947e-05 0)
(0 -3.40204e-05 0)
(0 -2.4908e-05 0)
(0 -3.07767e-05 0)
(0 -2.202e-05 0)
(0 -2.81905e-05 0)
(0 -1.97109e-05 0)
(0 -2.58922e-05 0)
(0 -1.81668e-05 0)
(0 -2.38311e-05 0)
(0 -1.6782e-05 0)
(0 1.74008e-05 0)
(0 -7.79436e-05 0)
(0 -0.00063565 0)
(0 -0.000351847 0)
(0 -0.000343447 0)
(0 -0.000365327 0)
(0 -0.000357472 0)
(0 -0.000380244 0)
(0 -0.000372252 0)
(0 -0.000563469 0)
(0 -0.000283045 0)
(0 -0.000312204 0)
(0 -0.000472744 0)
(0 4.57937e-06 0)
(0 -0.000157714 0)
(0 -6.6472e-05 0)
(0 1.5483e-05 0)
(0 -0.000230401 0)
(0 -0.000241871 0)
(0 -1.18126e-05 0)
(0 -7.66713e-06 0)
(0 -0.000112831 0)
(0 1.67246e-05 0)
(0 1.57827e-05 0)
(0 -7.55662e-05 0)
(0 -6.64635e-05 0)
(0 -0.000499661 0)
(0 -8.13278e-05 0)
(0 1.73576e-05 0)
(0 1.71903e-05 0)
(0 -0.000372354 0)
(0 -0.000388553 0)
(0 -1.62115e-05 0)
(0 -7.12531e-05 0)
(0 -0.000242868 0)
(0 -1.42773e-05 0)
(0 1.60966e-05 0)
(0 9.28524e-06 0)
(0 -0.000254659 0)
(0 7.05221e-06 0)
(0 -0.000582554 0)
(0 -0.000579181 0)
(0 -0.000606781 0)
(0 -0.000484392 0)
(0 -0.00080948 0)
(0 -0.000812891 0)
(0 -0.000552763 0)
(0 -0.000565395 0)
(0 -0.000553096 0)
(0 -0.000564223 0)
(0 -0.000601473 0)
(0 -0.000395122 0)
(0 -0.000387273 0)
(0 -0.000364398 0)
(0 -0.000379736 0)
(0 -0.000357076 0)
(0 -0.000373133 0)
(0 -0.000350492 0)
(0 -0.000367236 0)
(0 -0.000344552 0)
(0 -0.000362036 0)
(0 -0.00033955 0)
(0 -0.000357839 0)
(0 -0.000335468 0)
(0 -0.000354709 0)
(0 -0.000332239 0)
(0 -0.000352247 0)
(0 -0.000329701 0)
(0 -0.00035013 0)
(0 -0.000327913 0)
(0 -0.000349432 0)
(0 -0.000543206 0)
(0 1.60136e-05 0)
(0 1.63632e-05 0)
(0 1.7362e-05 0)
(0 -2.29292e-05 0)
(0 -1.84905e-05 0)
(0 1.6656e-05 0)
(0 -0.000398626 0)
(0 -0.000166435 0)
(0 -0.000159403 0)
(0 -0.000279683 0)
(0 -0.000241327 0)
(0 -0.000254093 0)
(0 -0.000256388 0)
(0 2.64291e-06 0)