/*--------------------------------*- C++ -*----------------------------------*\
| =========                 |                                                 |
| \\      /  F ield         | OpenFOAM: The Open Source CFD Toolbox           |
|  \\    /   O peration     | Version:  v2012                                 |
|   \\  /    A nd           | Website:  www.openfoam.com                      |
|    \\/     M anipulation  |                                                 |
\*---------------------------------------------------------------------------*/
FoamFile
{
    version     2.0;
    format      ascii;
    class       volScalarField;
    location    "200";
    object      p;
}
// * * * * * * * * * * * * * * * * * * * * * * * * * * * * * * * * * * * * * //

dimensions      [0 2 -2 0 0 0 0];


internalField   nonuniform List<scalar> 
10042
(
0.0290852
0.0261062
-0.0104866
0.0036976
-0.35595
0.0250476
-0.272574
-0.252311
-0.00487333
0.0195656
-0.369291
0.00335075
0.00390964
0.00337133
0.0673898
0.0241628
0.0243027
0.0195838
0.028866
0.257693
0.0165198
-0.211802
0.0043167
0.00597733
0.0260117
-0.0611044
0.0261018
0.0343186
0.00475429
0.0265499
0.0284799
-0.38434
0.0194735
0.0092939
-0.0356385
0.00637123
-0.0569729
-0.0722445
0.00654209
0.024382
0.278179
0.0593884
-0.279628
0.0347457
-0.358861
-0.1185
0.050832
-0.143561
-0.0498646
-0.0793327
0.0184729
-0.0166273
0.0673912
-0.0234363
-0.0568542
0.0249541
0.00392948
0.0501168
0.00857658
0.0653738
0.0273894
0.0279685
-0.0363038
-0.00961836
0.0598751
0.00594525
0.0517663
0.243671
-0.324956
0.026238
-0.0227211
0.285839
0.035865
0.153252
0.0504111
0.00577427
-0.354318
0.028973
0.119347
-0.271717
-0.0475108
-0.348019
0.0206289
0.0565429
0.0518755
0.0218091
0.0284764
-0.16066
0.0404842
0.028075
-0.00458025
-0.357373
0.0333904
-0.015981
0.0275494
0.0115327
0.0250309
0.0169874
0.0239662
-0.000524951
0.0194171
-0.154381
-0.248422
0.0216971
0.0400419
-0.0255722
0.0317554
0.0249864
0.0165268
-0.00118707
0.00949909
0.0213696
-0.00651498
-0.325092
0.0587691
0.0239775
0.0338664
0.0291835
0.0108468
-0.384464
0.0402685
-0.242583
0.0316813
0.0309638
-0.151766
0.0214482
-0.245637
-0.0493908
-0.0176218
0.027528
0.121225
0.0467602
-0.379502
-0.211471
0.000361347
-0.0828382
-0.388549
-0.00454076
-0.15024
-0.171451
0.0459589
0.034287
0.0445433
-0.194399
-0.0127999
0.0215577
-0.101134
-0.00431478
0.0171815
0.0183282
-0.0069947
0.0188776
-0.276082
-0.386424
0.0252673
0.00389989
0.0712432
0.0282899
-0.0821622
-0.392931
-0.356614
-0.187569
0.0295898
-0.00648759
0.0172889
0.0459282
0.0541152
-0.381218
-0.384537
-0.383546
-0.0218551
0.0180962
-0.351736
0.242194
0.107792
-0.298022
-0.316268
0.0333373
0.251289
-0.030873
0.0735551
-0.385422
0.0529889
-0.0469184
0.0592848
-0.385208
-0.221837
0.00761312
-0.348975
-0.024855
-0.0291807
0.046323
-0.279894
-0.348402
-0.167927
-0.30575
-0.0422567
0.0306791
0.00413486
0.00120102
0.128747
0.00661242
0.0198869
0.217502
0.0531673
0.00502798
-0.0804267
0.0255031
0.0200453
0.0243731
-0.298783
0.00315168
0.0605601
-0.0932166
0.069624
-0.226319
0.047057
0.0231096
-0.124889
0.0135743
-0.00954598
0.0726481
-0.175128
-0.0749174
0.0821822
-0.0646761
-0.234185
0.0227685
-0.204326
-0.0238465
-0.00561989
0.130996
0.0184546
-0.0232246
-0.0108627
0.0156981
0.00706912
0.00288479
-0.0277713
-0.0363071
0.0296479
0.0330418
0.0172689
-0.00577091
0.023494
0.0282718
0.00631937
0.0395979
-0.0225481
0.0194813
0.00416084
0.0255546
0.0373334
-0.191254
-0.187931
-0.347857
0.114336
0.0941524
0.067983
-0.129026
-0.27483
-0.0260803
0.0315543
0.00308522
0.00321287
0.00724558
-0.217784
-0.0295501
0.0280325
0.0242777
0.137228
-0.0235991
-0.0980625
0.0997415
-0.189708
-0.0251465
-0.0353657
0.00807026
-0.0426842
-0.0135474
-0.0340245
0.0360773
-0.0604361
-0.380612
0.00535407
-0.00695526
-0.274926
-0.123039
0.0076196
0.0277035
0.03644
-0.29513
-0.118466
-0.2008
0.018503
0.00407977
0.0225497
-0.00486679
-0.234584
0.0314921
0.0273507
0.0188666
0.0469675
-0.0713731
0.0603046
-0.0824732
-0.310072
0.0639717
-0.27355
0.0233942
-0.0408818
0.0262895
-0.386713
-0.157198
-0.315434
-0.315213
0.00510956
-0.0301954
0.0259012
0.050798
-0.0643728
0.021653
-0.0226542
0.00915682
0.00255046
0.0345516
-0.0885145
0.0235683
-0.0228818
0.0454005
0.0581636
-0.324659
0.0238333
0.0253703
0.0167183
-0.00918171
-0.0458542
-0.170599
0.0856671
-0.260972
-0.0727571
-0.0436549
0.0462692
0.00314783
-0.00903291
0.0197045
-0.249023
0.0358019
0.00680054
-0.136178
0.0205767
0.0472425
0.056905
-0.142419
-0.0132094
0.0806626
-0.0160752
-0.018132
-0.00152945
0.0316664
-0.267248
-0.1068
-0.019642
-0.0460176
0.0220383
0.0183155
0.021733
0.0497644
-0.300258
-0.0330985
0.0211593
0.0620455
0.0198353
0.0235549
0.242501
0.0308917
-0.000601213
-0.388034
0.0151961
-0.258419
-0.251489
0.152034
-0.308853
-0.345207
0.0235447
0.14906
0.0256251
-0.0843454
0.0239902
0.0505572
-0.199465
0.0223273
0.0531133
-0.10598
0.00418524
0.0167677
0.220011
-0.000470892
0.00626883
-0.00383042
-0.383531
-0.160133
0.0182416
0.248739
-0.344911
0.0131646
0.021183
0.00280183
0.0263422
0.00264776
0.00532744
-0.275889
-0.253513
0.0512943
-0.31897
0.00356566
0.0313046
-0.269984
-0.0151681
-0.263487
-0.123828
0.0583223
-0.00166018
-0.00342092
-0.073016
-0.022821
0.0277637
0.033506
-0.367828
0.067528
-0.329864
0.0644597
0.0192192
0.0236899
-0.243478
0.0197523
0.110805
0.0288483
-0.0124138
-0.390938
-0.042233
0.0343158
0.0088573
-0.38756
0.0269783
-0.0433728
0.00739474
0.00785092
-0.312214
-0.299898
0.0164336
0.0568423
-0.0346612
0.00427953
0.0240929
0.0317785
-0.38775
0.03033
0.00333522
0.0560036
-0.250675
-0.116852
0.0199338
-0.0321759
-0.336262
-0.0744384
0.0351847
0.0312858
-0.212257
-0.0187545
0.0191285
0.121047
-0.00581942
0.00562813
0.0747024
0.00306089
0.0632035
0.0322307
0.0200588
-0.368349
0.0115529
-0.0206051
0.0217884
0.0323221
-0.025472
0.0165654
-0.00831805
-0.313587
0.02978
-0.272383
-0.0248677
0.0195038
0.0193109
-0.168184
0.0367417
0.034362
0.0172049
-0.0208753
0.0774284
-0.27121
0.0275066
0.0701403
0.0557448
-0.0736976
0.0205718
0.0323574
-0.0159819
0.0220361
0.0244816
-0.296041
-0.388247
0.0223079
-0.0492707
-0.0547564
-0.0527753
0.0514964
0.00754945
-0.232921
-0.0787317
0.0279887
-0.00120973
-0.0168787
-0.0142708
0.0154863
-0.351282
-0.043033
-0.0206481
0.00537454
0.010546
0.0493102
-0.238079
-0.0435313
0.0260302
-0.38779
0.0303013
-0.0806964
-0.0336592
0.024027
0.000589961
-0.0785705
-0.0954172
-0.29588
-0.378282
0.0815608
0.114006
0.0210781
-0.0225308
0.055954
0.0211809
-0.360775
0.00604829
0.0236381
-0.112252
0.0221577
-0.22414
-0.0232334
-0.186272
0.0107735
0.0244575
-0.029224
-0.0379158
-0.0557928
-0.0365863
0.0425084
0.024118
-0.0776658
-0.000694339
0.0127327
0.0199232
-0.008909
0.0286419
0.0829769
-0.116972
0.168372
0.0260365
0.0310228
0.0170811
0.0348978
0.167039
0.0168272
0.0115504
-0.204624
0.00333736
-0.0949318
-0.0911611
0.0279663
-0.386312
-0.0937674
0.0228497
-0.231098
-0.0125531
0.0201812
0.0460149
0.030946
0.0231229
-0.0227353
0.0502297
0.0259385
0.0438315
0.0319479
0.00316886
-0.0296385
-0.0726098
0.0312444
-0.0370597
0.00125614
-0.0693409
0.0439117
0.0140506
-0.00111079
0.0786809
-0.00281333
0.0212716
-0.288294
0.00323824
0.170018
0.0320337
-0.0250215
0.0109309
-0.0734383
0.0218279
-0.0964921
0.00626159
-0.22556
0.023695
-0.278557
-0.0043474
0.0589844
0.0247346
0.0481626
0.0222127
-0.0211585
0.028658
0.292994
-0.363145
-0.22021
-0.0347399
0.0813183
0.0185618
0.0448132
-0.11905
0.0192163
0.11516
0.0433291
-0.29314
-0.0859984
-0.337698
-0.0409675
0.0300976
0.0216393
-0.0397698
-0.0242369
-0.0543618
0.00531975
-0.00518822
-0.182495
0.0188338
0.0349489
-0.0387229
-0.288427
0.0569126
-0.0293246
-0.0755421
0.0244845
-0.275798
0.00564447
0.0179188
0.0249601
-0.00581501
-0.386731
-0.125573
-0.292486
0.0173954
-0.314279
-0.381543
-0.243559
-0.0547404
-0.13138
-0.201127
0.0171353
0.0456457
0.0294148
0.123552
-0.3839
0.0170753
0.0578524
-0.276399
0.0325519
0.0205098
0.0133978
0.0406528
0.0224994
-0.0143296
-0.160303
-0.320352
-0.0134949
0.02286
-0.379022
-0.282155
0.019204
0.0345457
0.0185113
0.0269351
-0.277856
-0.124439
-0.0704921
0.0421549
0.0206802
-0.00719005
0.0751811
0.0271465
-0.0716953
0.0600327
-0.321609
0.0246895
0.0195738
-0.0205639
0.0170303
-0.0606462
0.11391
-0.0276548
-0.374515
-0.289319
0.0316213
0.0243309
-0.27033
-0.374827
0.0373169
-0.0118125
-0.248849
0.176335
0.106972
0.0447422
0.0167865
0.0168285
-0.1191
-0.0334344
0.191461
0.0204474
-0.321834
-0.292462
0.0322242
0.0274427
0.286889
0.025514
0.0106065
0.0302601
-0.371306
-0.289497
-0.290339
-0.0197771
-0.122527
0.018052
0.00695927
0.010874
0.0252662
-0.124647
0.0204668
0.0320104
-0.121161
0.0505352
-0.119549
0.0181643
0.0264684
0.00890981
0.0258859
-0.205738
0.0205799
0.0259585
-0.0930736
0.0738157
0.0788335
0.0225043
-0.159785
-0.282546
-0.27506
0.0607601
-0.389262
-0.39037
0.0321844
0.0041659
0.0462132
0.0782001
-0.286812
0.00547284
0.0198014
0.0207637
-0.279092
0.0444682
-0.0186904
0.0197737
0.0350641
-0.0529057
0.0112134
0.0124163
-0.0665112
0.0412427
0.0251742
-0.00172306
0.0811518
-0.00619471
0.036738
0.028795
0.0295867
-0.190865
0.0223642
0.0522143
0.0274467
-0.0400851
0.179781
0.0203306
0.077245
-0.0113146
-0.288681
0.00461314
-0.000609718
-0.0638774
-0.158778
0.217879
0.0601278
-0.345277
-0.27085
0.0645692
0.00851569
-0.244798
0.0272839
0.0214903
0.00983912
0.0213106
-0.110084
0.0187517
0.0234262
0.124997
0.011779
0.00422415
0.10035
0.0724097
-0.306643
-0.0280172
0.0512539
0.0262666
-0.113408
0.037695
-0.278347
-0.0327914
-0.355295
0.0207272
-0.0368112
0.0180684
0.0292572
0.0376553
-0.181773
0.153235
-0.0703779
-0.352931
0.0202689
-0.266954
-0.0352116
0.00369631
0.148244
-0.0596658
-0.290485
0.0278123
0.0809862
0.079138
0.0094651
0.176171
0.0199461
0.00512537
0.0197179
-0.0384195
0.0255034
0.0197798
0.0105863
0.00973174
0.0215717
0.0233741
0.00281184
0.0212572
0.025633
0.0668525
0.0278735
0.0949874
0.0305847
-0.285765
0.0254186
-0.306227
0.122061
-0.305415
-0.0651338
-0.0353682
-0.384783
-0.0748615
-0.062499
-0.273071
-0.053794
0.0208789
0.0187519
0.02544
-0.1973
0.0142967
-0.379471
0.0224773
-0.345349
-0.278465
-0.0700243
-0.0220983
-0.38728
-0.318431
0.0813796
0.0311471
0.0246955
-0.0367029
0.00491765
0.00779411
-0.0735781
-0.202263
0.0273117
0.0151536
0.064848
-0.247369
-0.0840451
0.02478
-0.00991496
-0.159782
0.0327503
0.0231098
-0.380891
0.0422042
0.0310384
-0.173468
0.0335186
0.0458308
-0.383998
-0.300541
-0.386042
0.0347269
0.0520618
-0.241744
0.0104085
0.00599546
0.0232707
-0.0464783
0.0270679
0.0180955
-0.0240596
0.2117
0.0513983
0.0145836
0.0433097
0.0272208
0.0060834
0.0444656
0.00595611
-0.194019
0.0283391
0.034589
0.0294501
0.0130363
0.0183184
-0.00431503
-0.37187
-0.0583953
-0.00390823
0.0314825
0.161453
-0.278071
0.0283374
0.0182685
0.028829
-0.00327394
-0.33698
-0.0730235
0.00539612
0.0175411
-0.0572031
-0.0155638
0.0256468
0.0238494
0.0358394
-0.00608819
-0.0457138
0.0450826
-0.274452
-0.0422442
0.0271502
-0.0279179
-0.348157
0.0737842
-0.191355
0.000787574
-0.242618
0.0210404
-0.0170647
-0.0385981
-0.118734
0.0355248
-0.0108532
0.0226485
-0.0239158
0.18942
-0.0450213
-0.255131
-0.0205642
0.0168769
0.0415432
0.0338019
0.0357001
-0.263075
0.0327059
0.00681819
0.030828
-0.0138129
-0.298286
0.0164918
0.0186054
-0.159588
-0.00804867
0.0266697
0.0354677
-0.155025
-0.0136412
-0.0459505
-0.37228
0.0329859
0.0254994
-0.284232
0.0177076
0.0499621
0.014122
-0.00428316
0.00903786
0.0444585
0.0202357
-0.0178535
-0.0241444
-0.34652
0.0309967
0.0195882
0.0733598
0.0803701
-0.228973
-0.352819
-0.0229472
0.0214611
-0.257171
-0.0111622
-0.309978
0.0253745
0.0161289
0.00285327
-0.387501
0.0214626
0.046002
0.025783
-0.0737764
-0.284035
0.0197205
-0.0888849
0.0336168
0.0198795
-0.0670085
-0.027769
0.0170483
-0.0237201
0.0318321
-0.276814
-0.381026
0.0253432
0.0765871
0.0228282
-0.263376
0.0244865
-0.369358
0.0313104
-0.00523213
0.00511491
-0.00352368
-0.0292208
0.0189957
0.0292674
0.0497435
-0.251538
-0.166427
0.00882197
-0.0348803
-0.0350675
0.0234441
-0.00684057
0.110411
0.00143105
0.0459165
0.0821543
-0.0555504
0.01905
0.0176208
0.0684428
-0.000952576
-0.179259
-0.00157506
-0.102406
0.0494117
0.0277214
-0.0115113
-0.0923428
-0.0138032
0.0131567
-0.0364084
-0.139533
0.0465717
0.0135846
-0.0260955
0.0187104
-0.389628
-0.0327379
0.0124728
-0.38384
0.078177
-0.0747186
-0.163824
0.0247306
-0.0578755
-0.384217
-0.0490398
-0.177619
-0.00595334
-0.0125769
0.0159047
0.0449255
-0.0452669
0.00845608
0.187644
0.0248418
0.0454312
-0.0520567
0.0314173
-0.109678
-0.0364645
0.0219293
0.0217209
0.119272
-0.179514
0.00174403
-0.0675229
-0.379382
0.193193
-0.00664763
-0.0499577
0.0187722
0.00808724
-0.332956
0.0184117
0.012446
-0.108946
0.0302686
-0.0492634
0.00338239
0.0244333
-0.281138
0.00719845
0.00542783
-0.0129836
0.0353599
-0.00397928
0.0188825
-0.337438
0.0481995
0.0196795
-0.0010563
-0.145409
0.0632068
0.00479977
0.0362501
0.0426121
0.0373664
0.0363123
0.0101264
0.0266321
0.0123691
-0.0310855
-0.0602635
-0.0238434
0.0801541
-0.0771768
-0.144149
0.112658
0.112794
0.0622719
-0.273281
0.043653
0.0114897
0.0165497
0.0187719
0.0625175
0.014409
-0.317022
-0.378514
-0.2641
0.0203192
-0.0150488
-0.00139427
-8.61041e-06
0.177014
-0.00209948
-0.258209
-0.117102
-0.374803
-0.14291
-0.197441
-0.290985
0.00851883
-0.0265051
0.000411078
0.0113112
-0.284978
-0.0063677
0.104164
0.0162629
0.0337401
0.0266241
-0.352713
-0.284443
0.0199121
-0.387045
-0.273357
-0.196354
-0.0996554
-0.122969
0.00567368
-0.376084
0.0326294
-0.265754
-0.378191
0.0201684
0.0338789
0.0190378
0.0618754
-0.0404741
-0.0651896
-0.205334
0.0201279
0.0268735
-0.0218291
-0.013009
0.0179008
0.0259811
0.0192765
0.0271688
-0.184308
-0.126047
0.0264021
-0.270357
-0.0263856
0.0248454
0.0848942
-0.234522
0.0343736
0.0102133
-0.176454
-0.182313
-0.00358989
-0.01117
-0.287979
-0.115647
-0.371885
0.0141613
-0.19007
-0.318755
-0.336579
0.0229501
0.0371808
-0.116332
0.0614721
-0.0243449
0.0436456
-0.365433
-0.106897
-0.211063
0.0312151
0.018018
-0.387581
-0.178999
0.0246574
0.0249196
-0.382097
0.0345028
-0.00182004
-0.0108381
-0.0257616
0.0200078
0.109111
0.0466671
-0.0336717
0.00489105
-0.0708932
-0.363127
-0.0725288
-0.0642461
-0.332484
-0.146823
0.00374711
0.00857397
0.00954106
0.018736
-0.184023
0.113202
-0.0161014
0.0311076
0.0313866
0.00613563
0.0796982
0.00526071
0.0948059
-0.0353823
0.0217012
-0.282804
-0.35175
0.0214669
-0.274202
0.0607338
-0.0390743
0.0248166
0.00322714
-0.383269
-0.143131
0.0182779
0.00964795
0.0353174
-0.0345292
0.0208705
-0.183
0.00273753
0.0273969
0.0113073
-0.282984
-0.380821
-0.0025117
0.050359
-0.122235
-0.072616
0.0838522
-0.27789
-0.356729
-0.0101492
0.0195049
0.0509328
0.0545829
-0.288084
0.0270475
0.0204615
-0.192425
-0.163826
0.0251701
0.0342579
0.263526
0.0201933
0.0269307
-0.164522
-0.149971
-0.38341
0.0179752
-0.0951337
0.112241
-0.114021
0.0780474
0.0355732
0.0262198
0.00337723
0.124854
0.0285974
0.0277963
0.00396211
-0.382058
0.00103522
0.0188246
0.000363517
-0.0494503
0.0246232
0.0193785
0.00266209
0.0261247
-0.278285
-0.335672
0.0516706
-0.258871
-0.339105
-0.378893
0.029019
0.044112
0.0177926
0.0312657
0.0262909
0.0249447
0.00593899
0.0192645
0.0125697
0.0821044
-0.336705
0.0249068
-0.219551
-0.0614685
0.0228511
0.0568952
-0.00990405
0.0509394
0.0215681
-0.0084191
-0.0015247
-0.279663
-0.0941345
-0.00232378
-0.330501
0.0252305
0.000774121
0.0077274
-0.228868
-0.0972384
0.0745031
-0.0031213
0.0273982
0.0233518
0.100928
-0.090428
-0.0452422
-0.264775
0.0234078
0.0170038
-0.267567
0.00053893
0.0245218
-0.187636
-0.02064
-0.0258797
-0.223428
-0.131621
-0.390056
0.0158113
-0.00936429
0.0195582
0.0281771
0.02689
-0.000381694
-0.0902318
-0.071774
-0.381348
0.0211327
-0.271261
-0.295842
-0.032678
-0.291362
0.0421447
-0.167846
-0.386911
0.0180245
-0.164392
-0.00470127
0.104362
0.0202767
-0.211974
0.0251173
-0.255332
-0.0750553
-0.355807
0.0178504
-0.20011
-0.00706742
-0.022316
-0.22343
0.0174863
-0.386778
-0.338571
-0.23134
-0.30104
-0.161277
-0.379476
-0.0551927
0.0288006
-0.000762943
-0.102385
-0.289852
0.0227604
0.0168286
-0.00749712
-0.0831342
0.0451075
0.0465906
0.0352869
-0.382976
-0.285628
0.0371492
-0.30623
0.0148474
0.0102514
-0.0215371
0.0516665
-0.28423
-0.0120177
0.010054
0.217753
0.0274455
0.0188165
0.0199218
-0.180613
-0.13147
-0.00296893
0.0640082
0.0265064
0.0202967
0.0128127
-0.381137
0.0243464
0.0128194
-0.262345
-0.217549
-0.0312387
0.00584101
-0.290139
0.0741725
0.0540811
0.0290638
0.090529
-0.0206356
-0.0510616
0.0153558
-0.263841
-0.0183836
-0.127349
-0.00194262
-0.0486522
-0.077372
-0.0509782
0.0488771
-0.295919
0.0187845
-0.188414
0.0269966
0.0251382
-0.0459442
-0.206392
-0.0244668
-0.0388103
0.0216786
0.0589852
-0.134543
-0.139085
0.0369209
0.020894
0.0166707
0.115475
-0.131028
0.0254731
-0.0981262
0.0231378
0.028528
-0.357208
0.0319181
-0.380156
0.0439846
0.107819
-0.130693
0.0318524
-0.0570451
-0.13301
-0.174435
0.0247478
-0.123975
-0.0201825
0.0228009
0.0349881
-0.387071
-0.279133
0.0288039
0.0358222
-0.0066317
0.0177864
-0.163667
-0.276704
0.0282823
0.12708
0.0104118
0.0129085
0.0225663
-0.2448
0.0121659
0.0382722
0.0310594
0.0160763
0.0377898
0.0193764
0.0198057
-0.0635366
-0.301097
-0.00422601
0.0310448
0.194988
-0.137681
0.0155847
-0.266645
-0.107697
0.0149269
-0.004117
-0.0179567
-0.171947
0.00523331
-0.128827
-0.0099875
-0.0297649
0.0149467
-0.101921
0.00288855
0.0678515
0.0492427
0.0478399
-0.260327
-0.249631
0.00166044
0.0256199
-0.388226
-0.184643
-0.145545
-0.0309474
-0.130562
-0.00421254
-0.356406
-0.0932554
-0.010066
-0.297235
-0.297218
0.0487973
-0.0770696
-0.115618
0.00972885
-0.324609
0.0449508
-0.0517984
-0.0306421
0.0403066
0.017726
0.0549288
0.0220069
0.0157395
0.0211913
-0.211862
0.0192423
0.0155542
0.00884487
0.0228624
0.0194304
0.0226575
-0.109257
0.21303
-0.0324783
0.0227995
-0.282116
0.0348031
0.012733
0.0285907
-0.00608166
0.0267199
0.0168619
-0.0591988
-0.156543
0.0250894
-0.0625255
0.124814
0.00395475
0.0445514
-0.290054
0.00219659
0.00330566
0.0252853
0.235539
0.0227103
0.0196651
0.0155498
0.0389649
-0.255728
-0.387296
0.0145676
0.0143692
0.0231563
0.103946
0.00318629
0.0163083
0.103071
-0.019774
0.0435882
0.0755546
0.0261377
-0.171418
-0.20101
-0.0255296
-0.0586141
0.001725
-0.350289
0.0250478
0.0233235
-0.348424
0.104774
0.00276704
-0.188614
0.207619
-0.366402
0.0884249
0.258698
-0.0428618
-0.0403879
-0.386958
0.0496344
-0.191061
-0.0531977
-0.181061
-0.346945
0.0242214
0.0421325
0.0267826
-0.1488
0.00261013
-0.381774
-0.080882
-0.375073
0.0648658
0.22417
-0.222299
0.0157871
0.0390092
0.22033
-0.00195872
0.0269681
-0.0309509
0.0703449
-0.147837
-0.147819
-0.166851
-0.380143
-0.148075
0.019082
0.0194441
-0.277632
0.19312
0.0124421
0.0314036
-0.310374
0.000193349
-0.0346641
0.0246213
0.0428427
0.0191986
0.0198527
0.187904
0.0485687
0.00608648
-0.374001
-0.366402
0.0101449
0.0736623
-0.0501113
-0.185994
0.0328526
-0.013052
0.0185939
0.133404
-0.325817
0.0292619
0.106842
0.00988661
-0.269766
0.021495
-0.0229631
-0.235863
-0.230012
0.0243575
0.0907591
-0.132123
-0.122554
0.062579
0.0174849
-0.351723
0.0193142
-0.0478269
0.048015
-0.058896
-0.00149607
-0.00469537
-0.00151868
-0.136736
0.0197768
0.0177297
0.00189402
-0.0152822
0.0223084
0.0100615
-0.161674
-0.303955
-0.282954
-0.0411318
0.0278756
0.131779
-0.0276902
-0.382654
0.0229628
0.15035
0.00508068
0.0302572
-0.0187568
-0.0578503
-0.278314
0.0325887
-0.36142
-0.0116784
0.0020247
-0.00392949
-0.272992
0.0505161
0.201505
-0.377354
0.0247083
0.0486988
-0.38735
0.0316289
-0.322938
0.0270377
-0.0702003
-0.333997
-0.0241509
0.0249268
0.0142971
-0.379238
-0.0501381
0.0258287
0.149705
0.0263431
-0.0240006
-0.153347
-0.38063
-0.0134456
-0.329228
-0.314641
0.0544287
0.037296
0.0731141
-0.229631
-0.0106877
0.0253957
0.0274771
-0.046693
0.207298
0.0268747
0.0705439
0.0201214
0.0242612
-0.281632
0.0218143
-0.385225
-0.00119466
-0.050243
-0.0921736
0.0131078
0.00180583
-0.347289
-0.374294
-0.121988
0.0249096
-0.00666344
-0.0767899
0.0128261
-0.0777193
-0.171346
-0.0901337
0.00278179
-0.386594
-0.379149
0.00434081
0.0193404
0.00725695
0.0195217
-0.0254355
-0.0447986
-0.348104
0.0190123
0.0324098
-0.0731387
-0.378234
-0.00141037
-0.293436
-0.00437843
-0.190585
-0.124637
-0.281028
-0.0951939
0.110065
0.116378
-0.00265494
0.00242039
-0.230381
0.00258712
0.0250406
-0.298199
0.0211934
0.0265076
0.00458544
-0.107552
-0.047868
-0.277577
0.203363
-0.057753
-0.00476402
-0.0152942
-0.384456
-0.201746
0.0076325
0.0301489
-0.000179682
-0.132182
-0.345293
0.0579952
-0.339593
0.0769516
0.0114751
-0.382215
0.0305873
-0.342754
-0.327273
0.005756
-0.0185852
-0.211253
0.0397479
0.0736687
0.0165582
-0.376703
-0.049331
0.0276127
-0.385702
-0.31719
-0.0556639
-0.0461704
0.0233994
-0.177914
-0.383944
-0.0266198
-0.0322072
-0.381084
0.114347
0.0765601
0.0187467
-0.278994
-0.386225
0.223301
0.042601
-0.0511008
0.0193252
-0.313873
-0.144425
-0.0658662
-0.289818
-0.355615
-0.00313741
-0.201546
0.0235352
-0.31238
0.125746
-0.0445752
-0.0421447
-0.292979
0.00169926
-0.102532
-0.389873
-0.314108
0.011774
0.0192861
0.0133181
0.000915886
-0.310731
-0.207962
-0.347556
-0.125033
-0.0600567
0.0060695
-0.350906
-0.149494
0.0335302
0.00725843
-0.385178
-0.386035
-0.38765
-0.385842
-0.34168
-0.386478
0.0278718
0.0998732
-0.0496147
-0.0127672
-0.384757
-0.291121
0.0191341
-0.26814
0.0236036
0.030409
0.0121939
-0.0653937
0.0214724
-0.347289
0.228334
-0.212118
-0.00884973
-0.272115
0.10658
-0.246592
-0.387459
-0.0242951
-0.0555326
0.0113587
0.203162
0.0007655
-0.00459913
0.0194673
-0.360363
0.0137279
0.00344205
-0.163754
-0.0308322
-0.381451
0.017805
-0.378938
0.0328815
0.0184938
0.027298
0.0324054
-0.0468788
-0.0049211
-0.380225
0.0821256
-0.0713871
-0.27932
0.0157154
-0.358979
0.0158118
-0.343572
-0.262386
-0.375941
-0.136755
0.0268025
0.0249284
-0.276266
-0.0161662
-0.0476976
0.0234884
-0.0613219
-0.370621
0.0144659
0.0198985
0.0299464
0.0249243
-0.323558
-0.33271
0.0123127
0.00200649
-0.343804
-0.345112
0.0220778
-0.297138
0.0249141
-0.351691
-0.361676
-0.120855
-0.153881
0.172466
0.160083
-0.381561
-0.121361
0.0444748
0.00066129
0.0132316
-0.348982
-0.330429
0.00978413
0.106661
-0.383304
0.0222749
-0.384755
-0.010785
-0.0144259
-0.000148512
-0.306097
-0.122392
0.00477781
-0.376507
0.0187447
-0.261879
-0.268139
0.00489944
0.0265795
-0.182148
0.0324636
0.00273378
0.0146292
-0.280622
0.0736727
0.0189644
0.0215227
-0.291449
0.0419594
0.00253064
0.0266495
-0.380751
0.0199843
-0.053095
0.0026774
-0.382163
-0.267346
-0.0258405
-0.132812
-0.122231
0.0267048
-0.065323
-0.377617
0.00143499
-0.155648
0.0127285
-0.272967
0.0270205
-0.373709
-0.303397
0.0971828
-0.373948
-0.377284
0.183741
-0.0229963
-0.318193
0.0165723
-0.381986
0.0775074
-0.298451
0.0244487
0.0643163
-0.0774292
0.0894792
0.0455695
0.0444024
0.0197545
-0.382721
-0.145763
-0.373526
-0.285718
0.104819
0.00273142
0.035766
-0.354025
0.073774
0.00255741
0.0213023
-0.328767
-0.296438
-0.347265
-0.372409
-0.0620562
0.0469743
0.0136682
-0.114109
-0.0995261
-0.288222
0.0267313
0.0269377
-0.38724
-0.133859
0.021043
-0.121661
-0.297207
-0.177258
-0.0055271
0.0731637
-0.279629
-0.300701
-0.2625
-0.217001
0.0297262
0.0238401
0.00227971
0.0207421
0.0437446
0.0265144
0.0541285
0.0968934
-0.0534409
-0.0518092
0.0188763
0.0254262
0.0732064
-0.023125
0.0308341
0.0707702
0.0149314
0.0042749
0.0347476
0.0142726
0.027503
0.0263001
-0.210018
-0.000819428
0.0849093
-0.282296
-0.287487
-0.379115
-0.344774
0.00861425
0.0186756
0.0227095
-0.27995
-0.0119575
0.000842467
0.0242276
-0.272665
0.0885211
-0.067129
-0.244751
0.0532928
0.0283715
-0.00929042
0.0214132
0.0617193
0.0248989
0.0498923
0.012765
0.0336236
0.0178601
0.0497035
-0.0420723
-0.279975
-0.0864514
-0.076138
-0.128107
-0.179326
-0.0713449
-0.136832
-0.0121573
-0.371906
0.0993487
0.07591
0.0345078
-0.0246631
-0.0915546
0.0310497
-0.0351691
-0.384517
0.13165
0.274916
-0.161839
0.0252694
-0.0709161
-0.0143901
0.0334594
-0.0223134
0.0262935
-0.111923
-0.0756453
-0.281107
0.0123176
-0.0769286
0.106929
-0.305427
-0.242265
-0.101855
0.0252701
-0.101508
0.0038934
-0.140604
0.0178537
-0.282293
0.00414875
0.105245
0.0246058
0.00705473
-0.176933
-0.0112815
-0.290513
0.028094
-0.050402
-0.00512372
0.0251744
-0.259742
-0.342617
-0.200489
-0.0881617
-0.0932253
-0.00992533
-0.00268217
-0.286736
-0.149306
-0.00659046
-0.0225888
0.103285
0.0363408
-0.239629
0.0105906
-0.337269
-0.19384
-0.194542
-0.0150738
0.0499233
0.00573627
-0.00448072
-0.162274
0.148676
0.111408
-0.383381
0.0247858
0.0717055
0.10001
-0.278808
-0.00277365
-0.23804
0.00185677
-0.327844
0.0199595
0.0275686
0.168002
0.0177042
0.0437334
-0.194818
0.0441635
0.0398582
-0.00140975
-0.0713956
0.00905145
-0.289342
0.0305204
0.0420312
0.0143441
-0.188881
0.0160321
0.111661
-0.0962207
-0.273973
-0.302961
-0.221357
0.107555
-0.252434
-0.0658955
0.0732355
0.114492
0.0224832
0.0263706
-0.366899
0.0921212
0.00342459
0.0259557
0.0193412
-0.0544869
-0.122772
0.0249695
0.13336
-0.182201
-0.200768
-0.0687728
0.0239453
0.0186999
-0.28243
-0.0331297
-0.00382795
-0.279376
-0.26722
0.00542107
-0.000110229
0.0583497
0.0274244
0.179211
0.0186511
-0.273834
0.0249473
-0.289804
0.00596295
-0.383664
-0.0164594
0.0317257
-0.102338
-0.000324366
-0.0149448
0.0249594
-0.057243
-0.271715
0.0240234
-0.20168
0.0213519
0.0192395
0.206475
-0.00823355
0.0204704
0.0196569
0.00237038
0.0286212
-0.00180685
0.0237969
-0.255531
0.019669
-0.00255722
0.0048169
0.00178456
0.0298014
0.0246948
0.000790531
-0.302556
0.223622
0.00409152
-0.026695
-0.0122697
0.0249086
-0.205347
0.0184255
0.0185867
-0.388229
0.0249535
-0.0995839
-0.0923473
0.0522028
-0.0108443
-0.210941
0.0312016
-0.227609
0.227135
-0.0113124
-0.26844
-0.298257
0.122853
0.0637363
0.0166287
0.0291676
0.078054
-0.211813
-0.000150324
0.0148392
-0.00209043
-0.0661267
0.0246891
0.0125492
0.0230836
-0.0917959
-0.248923
0.0305618
-0.196982
0.0199991
-0.0329585
0.00548159
0.00230363
0.00687346
0.0342668
0.0237431
0.00295265
0.0527907
0.0411904
-0.121156
-0.013428
-0.321506
0.00279162
0.0133028
-0.14252
0.0226438
-0.165465
-0.12489
-0.0111313
-0.0142616
0.0216707
-0.0128392
-0.0246873
0.0461841
0.165349
-0.0469395
0.0391953
0.002962
0.0650591
-0.273693
-0.00640424
0.0432891
-0.277089
-0.244486
0.00424252
0.00416737
-0.332568
0.0227858
-0.0287449
0.0598474
-0.167016
-0.00524048
0.0188841
0.0981082
0.0430304
0.0192561
0.00894404
0.019061
-0.128406
0.0258723
0.0241682
0.0204374
-0.0122619
-0.259754
0.0184808
-0.381267
0.265868
0.000244301
-0.284877
-0.231832
-0.0110802
-0.0253358
-0.121904
0.015578
0.0350165
-0.281027
0.0173923
-0.30861
0.106702
0.00969452
0.0705037
-0.0215359
0.0286157
-0.00990535
0.22179
0.0681898
0.019243
0.0300039
-0.0185023
-0.382677
-0.00437434
0.0130676
0.124022
-0.19459
0.192172
0.0227065
3.30918e-05
0.0448425
-0.00495681
0.0722742
0.0657969
-0.0544653
-0.268135
-0.00945574
-0.0220231
-0.296384
0.0209976
-0.109213
-0.199038
0.0269711
0.0229562
-0.226255
-0.156584
-0.158992
-0.386225
-0.284171
-0.206306
-0.261602
-0.00856971
-0.0302373
0.00857753
0.024696
-0.271157
0.0492465
-0.120967
-0.0861918
-0.0449357
0.0742422
-0.275653
0.0274714
0.0228756
0.00556622
0.0282394
0.0280849
-0.00406185
-0.0160049
-0.140363
0.0329643
0.0492155
0.0120209
0.124663
0.0188865
-0.283554
0.0342216
-0.0277139
0.0133505
0.0250076
0.0159294
0.0148886
-0.0315478
0.0738865
0.0301074
0.00132182
0.00485197
0.0224842
0.0294266
0.128538
-0.014261
0.0285344
0.02803
0.0275573
-0.0603785
0.0290604
0.0296378
-0.16685
0.0271119
0.0270464
-0.0359518
-0.282813
-0.115845
-0.0218345
-0.0955841
-0.350631
-0.1726
-0.21193
0.0475508
0.00835233
-0.0532537
-0.210107
-0.000101611
-0.209902
-0.0208689
0.0155352
-0.00562534
0.0240167
-0.141545
-0.149411
-0.133138
0.0138555
0.0171159
-0.0182549
0.0564464
0.0773765
-0.00649899
-0.029442
0.108554
0.17909
-0.120333
0.0234624
-0.0303496
-0.295541
0.0753144
0.0226466
-0.387451
-0.266128
0.0192718
-0.0167366
-0.0286886
-0.144371
-0.385259
0.0302701
-0.23821
-0.266262
0.177512
-0.124356
-0.0083852
-0.0224917
-0.0227576
-0.151331
0.0251076
0.129919
-0.0330134
-0.225302
0.0253913
0.0277254
-0.27194
-0.0330302
0.0762617
0.00468016
0.025234
-0.0345039
-0.356552
0.015844
0.0282995
-0.283935
-0.111964
-0.0141578
0.0336588
0.0210704
0.0130219
-0.00894495
-0.202807
0.0274441
-0.00185503
0.0706045
-0.114933
0.0516372
0.0102797
0.0310635
0.0077801
0.014901
-0.142196
-0.013314
-0.0207117
0.0071627
0.0213463
-0.364763
-0.0543663
-0.0151903
-0.381791
-0.0201456
0.0336102
-0.324497
-0.118786
-0.368401
0.0297769
-0.028783
0.0258942
-0.0183797
0.00574009
-0.384454
-0.0207281
-0.156509
-0.00418468
-0.0168359
-0.0299725
0.00199542
0.14227
-0.289277
-0.272597
0.0264439
0.00987325
-0.227561
0.0701022
-0.000159426
0.0559059
-0.0536569
-0.249888
-0.121374
-0.00193187
-0.275671
-0.113899
0.0410222
-0.00328795
-0.0103367
0.0952856
-0.376722
0.0245286
-0.082625
-0.0254756
0.0267033
-0.00351417
-0.0192846
-0.384225
0.10553
0.00183565
0.0416141
0.0269309
0.10293
-0.000629564
-0.0288044
0.00813422
-0.0276789
-0.25135
0.0297926
0.0249238
-0.161501
-0.000510353
-0.00299348
-0.269927
0.0230075
-0.382222
-0.384494
-0.384646
0.0452764
0.0447295
0.0012925
0.0188337
0.00071042
0.0252017
-0.203214
-0.109587
-0.246668
-0.157317
0.0181573
-0.00388241
-0.0278809
0.0107896
0.0248671
0.0407484
-0.00270632
0.0271895
-0.00933252
-0.365521
0.0303845
0.0196133
0.0215045
-0.00392182
-0.277425
0.0282178
0.12802
0.000946189
-0.114038
-0.0297436
0.0271622
-0.114712
0.00215325
-0.0317161
-0.381421
0.0298164
0.0353449
0.035019
-0.257495
-0.388084
-0.0072621
0.00735575
-0.0335608
0.0433077
-0.0077767
0.0183454
0.0182877
0.0321087
0.0209758
0.0152264
-0.0302395
-0.343879
0.164187
0.0305397
0.0334598
-0.0153772
-0.00787114
0.0255457
0.0573556
0.119411
-0.384008
-0.0374026
0.0373313
-0.0216813
0.0275995
-0.16114
-2.25099e-06
0.0224932
0.0741133
-0.0163251
0.100964
-0.361263
0.0118585
-0.0529988
0.0269349
0.0142328
0.0267162
-0.00613347
-0.0286414
-0.172131
-0.175862
0.00228226
-0.0848527
-0.147491
0.0249652
-0.076163
-0.0494573
-0.317985
0.0186941
0.0298563
-0.0212506
7.89881e-05
-0.146134
0.0270416
0.029142
-0.0798966
-0.211948
-0.199744
0.00598704
0.0320748
-0.387794
-0.374687
-0.0046696
-0.313632
-0.25288
0.0162635