/*--------------------------------*- C++ -*----------------------------------*\
| =========                 |                                                 |
| \\      /  F ield         | OpenFOAM: The Open Source CFD Toolbox           |
|  \\    /   O peration     | Version:  v2012                                 |
|   \\  /    A nd           | Website:  www.openfoam.com                      |
|    \\/     M anipulation  |                                                 |
\*---------------------------------------------------------------------------*/
FoamFile
{
    version     2.0;
    format      ascii;
    class       surfaceScalarField;
    location    "250";
    object      meshPhiCN_0;
}
// * * * * * * * * * * * * * * * * * * * * * * * * * * * * * * * * * * * * * //

dimensions      [0 3 -1 0 0 0 0];
oriented        oriented;


internalField   nonuniform List<scalar> 
14516
(
-0.00123072
-0.00367689
0.00503467
-3.31783e-06
-0.000100744
0.000119174
0.00415109
-0.00524183
0.00161765
-0.00206427
0.000345254
0.00643051
-0.00439412
-0.00194828
-0.00551534
0.000688054
0.00483673
8.24264e-06
1.26747e-05
0.000143262
-0.000612257
0.000332775
8.08551e-05
0.00565903
0.000553657
-0.00634262
0.00267425
0.00386265
0.00506562
-0.00626948
0.00124614
0.00408498
-0.000299394
-0.00377323
0.00167652
-0.000276521
-7.92104e-05
-0.0012462
0.00126557
0.000150525
0.000105006
-0.00114354
-2.42224e-05
0.00112991
-0.00392798
0.00128627
0.00251173
-0.00135645
-0.00255634
0.00559298
-0.000561783
-0.00496395
-0.00128321
-0.000408426
-0.00480175
0.00522003
0.000733545
-0.00630411
0.0054357
0.0024824
-0.000843192
-0.00164224
2.18355e-05
-2.18355e-05
0.00289378
-0.000397315
-0.00249952
0.0010662
0.000311881
0.0010377
8.89614e-06
-0.00106888
-7.60101e-05
-0.00238947
0.00236367
-0.00752292
0.00252769
0.00505912
0.00592243
-0.000452674
0.00459217
-0.0054149
0.00088018
0.000486864
0.00200406
0.0027957
-0.000585319
-0.00211076
-3.69941e-05
-4.73403e-05
2.91147e-05
0.00277893
-0.00852883
0.00578296
0.00542471
-0.000607108
-0.00476897
7.00812e-07
2.38084e-05
-0.00546059
0.00605693
0.00186815
-0.00135579
-0.0004664
-0.000152964
0.000648625
-0.000779782
0.00590975
-0.00128886
0.00050051
-0.000101991
0.000642706
-0.00115223
0.000225013
-1.03924e-06
4.0488e-05
1.42696e-06
0.000478378
-0.000255607
-0.000302544
-0.0047238
0.000125631
-0.00131649
0.0011743
-0.000586666
-0.00391077
0.00441563
-0.000503371
-0.00162064
-0.00390574
-0.00458034
9.61294e-05
-0.00508709
0.00500162
0.00563321
-0.00133779
-0.00434854
-0.00756328
0.00782312
-0.000302998
0.000647576
-0.00406698
0.00343927
0.00472586
-0.0047928
0.000142142
-0.0040005
0.00423396
-0.00505965
0.00129268
0.00378232
0.00365304
0.000126854
-0.003677
0.00116267
0.000548935
1.1605e-05
0.000231557
-0.000368705
0.00594215
-0.000926549
-0.00507042
0.00390171
-0.00446483
0.000552694
0.000203911
-0.000358393
1.48841e-05
0.00374818
0.00195556
-0.000333874
-0.00259111
0.00291234
0.00490342
-0.000979439
-0.0042017
0.0046379
-0.000483524
0.000558989
0.0035494
-0.000405972
0.00547883
-0.00399404
0.00466035
2.8217e-05
-1.39847e-13
-3.00027e-05
0.00341503
-0.00070096
-0.00307067
-0.000349637
0.000287981
4.56281e-05
0.00177128
-0.005604
-8.03999e-05
0.00382241
-0.000609954
-0.00474832
0.00519276
-4.7423e-06
-5.22688e-10
9.15994e-06
-0.00213193
0.000487137
0.00151104
-0.00340306
0.00100835
0.00233089
-0.00216287
0.00182735
-0.00216154
0.000486423
0.00163257
7.21755e-05
1.53978e-07
-5.87032e-05
-1.97863e-05
-0.0015868
0.00159573
0.00546198
0.000456553
0.00010596
-0.00135708
0.00125373
-0.00240541
-0.00111392
1.2031e-05
-0.00527255
0.00508558
-0.00533499
0.00559597
-0.000240243
0.00211392
-0.000483272
-0.00161515
-0.000207503
0.000217529
-0.000532676
-0.00447877
0.0050436
0.00202842
-0.00164549
-0.000414989
0.00248581
-0.00199382
0.000550023
-0.00168313
0.00165272
0.0048453
-0.000103803
8.83665e-05
6.4938e-06
0.000593984
0.00143484
0.000222887
-0.00101259
0.000768776
-0.0008133
0.00101759
0.00242642
-0.000436229
-0.00199864
0.00275134
-0.000568509
-0.00215753
0.00217434
0.000600289
2.04125e-05
2.48452e-07
0.0058014
-0.000387015
0.00642357
-0.000901311
0.000217769
-4.67823e-06
-0.000354537
0.00471684
0.000944978
-0.000227742
-0.00106106
0.00123833
1.17422e-07
2.53656e-05
0.000171091
0.00435215
-0.00456885
0.0065557
-0.00502088
-0.00112266
0.0055225
-0.00428595
0.00486341
-0.00475692
-0.00474729
0.000407879
-0.00246605
0.00214459
-0.00376553
0.00560796
-0.000390208
-0.00181102
0.00212846
0.000405418
0.000898327
-0.00117228
-1.94658e-05
4.48266e-06
4.76165e-06
0.00620985
-0.00637419
0.000200949
-0.000191976
-0.00532544
-0.000329598
-0.00602549
0.00630587
-0.00485444
0.0044555
-0.00494399
0.00117466
0.00381848
0.00148321
-0.0013749
-0.000361254
-0.00188164
-0.00481964
0.0011936
0.00337734
3.52761e-06
2.77677e-05
-3.35726e-05
-0.00490211
-0.00241149
-0.00263202
-0.000263076
-0.00228602
0.00245431
0.00459704
0.00122104
0.000221634
-0.00541898
0.00504784
0.000111827
-0.00017146
8.47446e-05
-5.4082e-05
0.000713879
0.00608871
0.000240782
-0.000260366
-4.63587e-06
3.74722e-05
0.00613437
0.0028395
-0.000281059
-0.00260066
-1.58062e-05
0.000167778
-0.000165646
-0.000214863
0.000931684
-0.000787355
-0.00136634
5.30671e-05
0.000105461
0.00135689
-0.00149867
2.92613e-06
5.87185e-05
-4.42546e-05
0.000871539
-0.00116453
0.00269312
-0.000762243
-0.00191966
0.00409579
-0.0046006
0.00355814
0.000814833
-0.00429003
-2.0852e-05
2.1739e-05
0.00472168
-0.00105886
-0.00196298
0.00474905
0.000729091
0.00197689
-1.50091e-05
-1.08401e-05
-2.25329e-05
0.000227743
-0.000190757
0.000379988
0.00240727
-0.000232119
0.00106134
0.000424833
-0.000457813
-0.000744642
-0.000141282
0.00209338
-0.0022611
6.89721e-05
0.000883078
-0.00100322
-0.00105725
0.00638493
-0.00530642
-0.000212569
7.75138e-05
0.00016143
-0.00563901
0.000929207
-0.00124594
-0.00801453
0.00736796
0.000637884
0.00107925
-7.21051e-05
0.000357516
-0.00232793
0.00188655
-0.00392662
0.00124989
0.00283573
0.00122745
-0.00240141
0.0012094
-0.000127676
-4.35584e-05
-0.000984389
0.00227985
-0.000691703
-0.00551831
0.00612475
0.00455157
-0.00519718
2.90126e-05
-1.62745e-05
-3.71362e-06
0.000771879
-0.00384557
0.00292934
0.00858036
-0.00395828
-0.00464135
0.0044146
-0.00330738
-0.00108524
-0.00640889
0.00590623
0.000445355
-0.00108682
0.00256591
0.00366659
7.63154e-05
-0.00365415
0.00313378
1.88149e-06
-0.0011097
-0.00391504
-0.00266714
0.00330256
-0.000145811
0.00599956
-0.00580198
-0.000952075
0.000971216
-0.0064599
0.00568712
0.0054096
-8.48248e-05
-0.00566368
0.003904
-0.00457954
-0.00435322
0.00448293
0.000634349
0.0020661
0.00646848
-0.00689226
0.00175033
0.00519978
-0.000193735
-0.00180683
0.00195838
-0.00493321
0.0030938
1.4378e-05
0.000221665
0.00540088
-0.000877448
-0.00196137
-0.0036189
0.00563043
-8.03689e-06
-0.00467063
-0.00387659
0.0028678
0.000813369
-0.000374658
-0.00515099
2.96918e-05
5.3513e-07
-0.000214864
4.08216e-05
0.00105015
-0.00115567
0.00513167
0.000562778
-0.0069329
-0.000164462
0.00693279
0.00036558
0.00569819
-0.0060233
-0.000278437
0.00406004
0.00044425
-0.00439856
-0.00569223
-0.00199599
-0.00305687
-0.00379448
0.000227039
-0.00023536
-0.000276565
-0.00191521
0.0020619
-0.000217291
0.00394675
3.84137e-05
-1.82539e-06
0.00430224
-0.00403038
-0.00022873
-0.000350843
0.00554296
-0.00503446
-0.00213903
-0.00407771
0.00604256
-0.00589103
1.82718e-05
0.00491504
-6.172e-05
-0.00153675
0.00445516
-0.00494233
0.00564155
-0.00254341
0.00188464
0.000631153
0.00464333
-0.00485421
0.000539171
-0.00513762
0.00460115
8.64119e-06
6.67276e-06
-6.23339e-06
-6.96541e-06
-0.0016642
-0.00483996
9.55693e-05
-0.00017431
9.18723e-05
-0.00539852
0.00103089
0.0043838
0.00395015
0.000369536
-0.00586119
0.00587202
5.92114e-05
0.00358208
-0.00338175
-7.98352e-05
0.000150471
0.00471217
0.000507083
0.00168763
-0.0021769
0.00537793
-0.00039394
7.6694e-05
-0.00130854
0.00118096
1.7733e-05
0.00246731
-0.00238679
0.00259407
0.000212395
-0.00336436
-6.85506e-06
0.00334136
-0.00233248
0.00159242
-4.57314e-07
6.59671e-05
0.00299232
-0.00264213
-0.0017425
-0.000115154
2.45033e-05
0.000706212
0.00437473
-0.00512152
-0.0080901
0.000936213
0.00713471
-0.000422759
0.00528678
0.00077982
-0.00491662
0.00415156
-0.00261356
0.00304266
-0.000257406
-0.000282709
0.00625625
-0.00607578
-0.00422109
0.00354296
0.000698145
-0.00224526
-0.0058668
-0.000317175
-0.00441425
0.00477869
-0.000183722
-0.00105154
0.00114641
0.00108465
0.00036646
-0.00148991
0.000147533
-0.00502197
0.00459801
0.000164721
-0.000214691
-9.81734e-06
-0.00181435
-0.00619618
1.87729e-05
-2.62745e-05
2.7529e-06
-1.37366e-06
5.28552e-06
-0.00528658
0.00568971
0.0018395
-0.00541539
-0.00535952
-0.00116619
0.00661954
-0.00099092
0.000737463
-0.000105188
-0.000788937
0.000915762
-0.00874006
0.00242031
0.00635442
-0.000717214
-0.00468619
0.00520665
0.000135496
9.88208e-05
-0.000249221
-5.18064e-05
0.00017693
-0.00295905
0.000203146
-0.00459963
-0.000126514
0.00203668
-0.00239866
-0.00414776
0.000243856
0.00274212
4.82375e-06
-2.65573e-05
6.27335e-06
-2.9968e-05
-6.76763e-05
2.73412e-05
-0.000906017
0.000500884
0.00268987
-0.00497543
-0.0047428
0.00541023
-0.00973357
0.00413124
0.0055959
-2.5348e-05
-0.000591115
0.000720959
0.00495822
-0.0054437
-0.00496351
-0.00178721
0.00226862
0.000787638
-0.00579612
0.00517287
5.73343e-05
2.58137e-06
4.20602e-06
8.21218e-07
0.0021771
-0.00252572
0.00042935
-0.006543
0.0060304
-0.00455408
-0.00520863
0.00302502
-0.00367632
0.000121161
-0.00324249
-0.00161695
0.00500869
-0.00180851
-0.00137926
-0.00169772
0.00303012
0.0023282
0.000167606
-0.00258653
0.000115714
-2.36401e-05
0.000147309
-1.36607e-05
-0.000182485
0.000317353
0.00063179
-0.00102153
-0.00280763
-0.00590857
-0.00414127
-0.00232614
0.00644644
-0.00274545
0.00270238
4.23343e-05
0.00111275
-0.00252812
-5.46312e-05
0.0023307
-0.00293594
-0.000661537
0.000908171
0.00207448
-0.00624055
0.00585573
-0.000285467
-0.00564082
-0.00647285
0.00516496
0.00125026
0.00181972
0.000312949
0.00141054
0.00262059
-0.00244341
-0.000249694
-0.00808548
0.00690277
0.00118096
-0.0077991
0.000739356
0.00236377
-0.00226605
-0.000183689
-0.00024883
-0.00699913
0.00315959
0.00387449
-8.11302e-06
0.000287958
2.13834e-05
1.34957e-05
0.00173392
0.0027094
0.000661393
-0.00679439
0.00602804
-0.0034917
0.00371898
0.00122362
-0.0048861
-0.000769574
0.000864378
-0.000113733
0.00570122
-0.00501945
0.00599897
0.00210772
0.000236438
0.00478895
0.00043224
0.000840063
0.0030289
-0.00382594
0.000442908
-0.000606943
-9.69219e-05
0.000625399
-0.000688914
0.00380554
0.00165817
-0.000152801
-0.00016314
0.000278213
-0.00273919
0.000274071
-0.00630337
0.0039217
0.00247375
0.00113416
-0.00402645
0.00219827
0.000139099
0.00193479
-0.00175596
0.00228238
-0.00105071
0.0009906
-7.59409e-06
0.00570371
-0.00676572
0.000893848
0.000158816
-0.00450323
-0.00628101
0.000209039
0.00603367
0.00485451
-0.00617003
0.00127572
0.00596351
-0.00595947
-5.57697e-05
-0.0021905
-0.00283153
0.000579863
0.00215409
0.001728
0.00602531
-0.00606658
0.00639165
-0.000330909
3.15012e-05
-0.00714699
0.00312377
0.00410233
0.000476193
-0.00443941
-0.00469036
0.00360688
-0.00330038
-0.00376117
0.00660661
-0.00104556
-0.00188855
0.0025979
-0.000696232
0.0020903
-0.00510599
0.000288755
-0.000381883
-0.000432488
0.00148737
0.00209023
-0.000300377
0.000167811
-5.80079e-05
-0.000181083
0.00241047
0.00498677
-0.000325466
-0.00326066
-0.00370558
0.0058232
-0.00104155
-0.00137034
-0.00399785
0.00349251
-0.00405525
0.000157584
-0.00329111
0.00308055
-0.00234871
-0.000136648
0.00223005
-0.00228
-0.00645748
0.000851735
0.00560585
0.00018248
0.00543275
-0.0058092
-0.00742604
0.00132687
0.00593459
0.000202845
0.00377603
-0.000396118
0.00273879
0.000768999
-0.00701286
0.00610257
-6.05752e-05
-3.48432e-05
8.94863e-05
0.000381192
3.11846e-05
-0.00106307
-0.0057932
-0.000745872
0.00604864
-0.00116248
-0.00165266
0.00386554
-0.00633013
0.0023293
0.000273002
0.00388379
5.48744e-05
0.00155034
-0.00160274
0.00529691
0.00502729
-0.00448885
-0.000165873
0.000129446
1.20303e-05
-4.95954e-06
-0.000198248
0.000137481
0.00492587
-0.00108509
-0.00455063
0.00479013
-0.000220194
-0.00152483
0.00158191
0.00126621
-0.0012391
-0.000716212
0.00511898
-0.00443603
-0.00251245
-0.00204825
0.00460945
0.000779634
-0.000864115
-0.00496589
0.00394293
-0.00322183
-2.01964e-05
-0.00634575
-8.60592e-05
0.000889607
0.00576906
0.000298708
-0.00599633
-0.00206494
0.00298436
-0.00173302
-0.00474536
-0.00469164
-0.00107163
-0.0017868
0.000945465
0.000155174
0.00172568
-0.00189691
-0.00592945
-0.00203457
0.00217465
0.000367358
0.00172251
0.00106181
-0.00138092
0.00144988
-0.00470039
0.00551457
-0.000759229
0.00164618
-0.00222633
-0.00212879
-0.00441111
-0.00419618
-0.00676751
0.00601216
0.00055307
-0.00430398
0.00402911
-0.0059875
0.000929999
-7.76615e-05
0.001708
-0.00566069
-0.000521438
0.00104526
-0.000470941
-0.00721694
0.00499726
-0.000873915
-7.91064e-05
0.000923918
-0.00102505
0.00210502
-0.00106847
-5.97978e-05
0.00101543
-0.00205399
-0.00174374
0.00201944
0.000232028
-0.00400404
0.00369682
3.16511e-05
0.000387604
-0.000264746
-0.000107609
0.000162382
-4.55796e-05
-0.00200513
0.00572972
-0.00367116
0.00367923
0.00160738
-0.00184116
0.00466942
-0.00415725
8.67595e-05
-0.00239546
-0.00159933
-0.00616698
-0.00571407
0.00324678
-0.003763
-0.00161704
0.00507348
-0.000526721
-0.00452206
-0.00409733
0.00369845
-0.0063555
0.00556432
-0.00289305
-0.00262779
0.00355614
-0.00622617
0.00267309
-0.00505945
0.00677245
-0.000234032
0.00609816
1.46835e-07
-0.00203464
0.00238549
-0.000337422
0.00165349
-0.00230154
0.00221708
-0.00191936
-0.000207215
-0.0054894
0.00414704
-0.00670321
0.000354697
0.00148423
-0.00196714
0.00621579
-0.00630582
-0.00283511
0.00229682
0.000170832
-3.08148e-05
9.6937e-06
0.00423734
-0.00407667
-0.00710113
0.00533466
-0.00387061
0.00371481
-0.00206094
-0.000719366
-0.0084833
0.00571578
2.36581e-07
-1.13712e-05
-0.00017235
6.7691e-05
-3.67545e-06
4.14864e-05
-5.03074e-05
0.00192938
0.00617549
-0.00264615
-0.00215218
0.000217606
0.00209772
8.11423e-05
0.000836411
-0.000902135
-0.000470132
-0.000105471
0.000427498
-0.00397327
0.00355438
0.00134541
-0.00048093
0.000470097
-0.000395962
0.00255148
0.00312476
-0.0023087
0.00238778
0.004503
0.000471738
-0.0058509
-0.00361115
-0.000793727
-0.00394284
9.57801e-05
-0.000185995
-3.09582e-05
0.000137333
-0.00623957
-0.000948134
-0.0038602
-0.00359826
-0.00366021
0.000139374
-0.000145791
-6.77978e-05
0.000600319
-0.000998353
-0.000179368
-0.00206312
0.000237136
-0.00286546
-0.00271786
0.000204858
5.87185e-05
-0.000413337
-0.00455368
0.000195155
-3.6997e-05
-0.000149983
-0.00350828
0.00833314
-0.00436134
-0.0039663
-0.000417106
0.00159619
-0.00120615
-0.00555915
0.00651794
-0.00177157
0.00212561
0.00452363
-0.000214096
-0.00250605
7.31936e-06
0.00390603
-0.00391015
0.0001215
0.00296279
-0.00284975
-0.00460526
-0.000535722
0.00589962
0.000108915
-0.0065375
0.0054973
0.00108684
-0.00255708
0.00227881
-0.0056393
0.00107049
-0.0015132
0.00395123
0.00487575
-0.000355246
0.00144544
0.000283871
-0.00177251
0.00217536
6.36156e-05
-0.00234567
-0.00400178
0.00370823
0.00213539
-0.000889078
-0.00126695
0.00173788
-0.000312854
0.00443371
-0.00138236
-0.0033314
0.000462171
0.00171469
2.36134e-05
-0.003868
0.00345807
0.00490442
-0.000952173
0.00206033
-2.71242e-07
0.00249105
-0.00236502
-0.000179796
-0.00605012
0.00617182
-0.000273714
-4.3302e-07
8.81082e-06
0.00240144
0.00159236
-0.00434766
-0.000377032
0.00474113
-0.00390965
-0.000739785
7.29979e-05
-0.000831287
0.0020282
-0.00210474
5.09657e-05
0.000227158
-0.00475268
0.00618329
-0.00618712
-0.000190347
-0.000169857
-0.00111101
0.00129267
0.00102513
-0.00703338
-1.47221e-05
-0.00320239
-0.0036492
-0.00498492
-0.00434739
0.00398545
-1.30663e-05
4.87569e-06
0.00564336
-0.00343954
0.00755294
-0.00372525
-0.000286188
0.00394794
0.000451664
-9.88657e-05
-0.00152985
0.00273004
0.000338343
-3.04983e-05
-0.000288318
-0.0026306
0.000735159
0.000479051
-0.00400256
0.00018006
-0.00238138
0.000723241
0.00426076
-0.00495457
-0.00277777
-0.00372741
0.00376876
-0.00375826
-0.00622845
0.00609507
0.000295607
-3.44898e-05
-0.00550074
0.0049644
0.000554502
0.00216844
-0.000181768
-0.00158194
7.63263e-05
0.0014383
-0.00620062
0.00556159
0.000615411
0.00354949
0.000295054
-0.00390634
0.000108013
-0.000850457
0.000692324
-0.00109253
0.00127262
-0.000214158
6.42202e-05
-0.000168177
-0.000444477
0.000251322
-0.00433645
0.000781901
0.0035763
-9.56406e-05
0.000943123
-0.000872908
0.000262321
-0.000308711
-1.0326e-05
-0.00557243
0.00541341
0.000110508
-0.00452968
-0.00328917
0.00768185
-0.0050816
-0.00319771
0.00223399
-0.00533055
7.27895e-05
0.00503746
0.00557288
0.000363156
0.00558993
-0.000304455
0.0043111
-0.00481333
0.00191516
-0.0011155
-0.000859527
-0.00238296
0.000347578
0.00545947
-0.00331982
-0.0021111
0.00135865
0.000180207
-0.000303216
-0.00478135
-0.00368779
0.00456831
-0.00531244
0.00621444
-0.00553557
-0.000807137
0.00629451
-0.00322964
0.00333602
0.0036741
-0.00711776
-0.00676337
0.00494616
-0.00740854
0.00276839
-0.00167799
0.00192914
-0.000176709
-0.00220545
0.00592753
0.000594018
-0.00867832
0.00641783
0.00564371
0.000136407
-0.0040655
-0.00281891
0.00328536
-0.000452605
-0.00282718
-0.000451217
0.00429752
-0.0039533
-0.00535189
0.000701694
0.00543137
-0.00643419
0.00100547
-0.00016355
0.000305359
4.44003e-05
-0.0055554
-3.98538e-06
-0.000975865
0.000780972
-0.00211266
-0.000193555
0.00239021
0.000267212
-0.00222797
0.00292765
-0.00116338
-0.000813601
0.00196656
1.68797e-06
-1.68797e-06
0.000195883
-0.00216517
0.0010195
-0.000498887
-0.00165298
0.00208399
0.00645775
7.23085e-05
-0.00662563
0.000229019
-3.52194e-05
-0.000229941
-0.00500778
0.00447772
0.000158913
-0.000179498
8.11224e-05
-0.0055791
-0.000257082
0.00664027
-0.00324222
-0.00361925
-0.000920049
-0.00453896
9.2825e-05
3.92349e-06
0.00284733
0.000368701
-0.00334718
-0.00585445
0.00572373
-0.00149193
0.00136229
0.000150487
-0.000675941
-7.73871e-05
0.000732343
8.50222e-07
0.000184107
8.20298e-05
-0.000769221
0.0022197
-0.000153964
0.00312807
-0.00367536
0.000815859
-0.000934818
-0.00532312
0.00577053
-0.000389552
-1.33204e-05
-4.97672e-05
0.000338631
0.00013092
-0.00553806
0.00529378
0.000213719
-0.000310178
0.00382165
-0.00169367
0.000299208
0.00124184
-0.000858311
0.000792292
0.00557452
-0.00430206
-3.18994e-05
8.91265e-06
0.00496717
-0.00406284
-0.000896275
-0.00117166
-0.00314852
0.00190973
-0.00231131
-0.000559837
0.000312692
0.000308655
5.61808e-07
-1.43815e-05
-0.00205293
0.00335326
0.000372165
-0.000566437
-0.0012733
-0.00418277
0.00449955
0.000219689
0.00231601
-0.00201152
-0.00056204
0.00258389
0.00414572
0.000797646
0.00392595
0.00136422
-0.00534245
-0.00218963
0.00246471
-0.000277034
0.000562674
-0.00222179
0.00169565
-0.000950352
9.32194e-05
-0.000166876
-1.60198e-06
-0.00376868
0.00465523
-0.00440324
-0.00023444
-8.76287e-05
-0.000259109
-0.0037319
-0.00168864
0.00552422
-0.00411208
0.00292289
-0.0035072
-0.000122437
0.00189725
-0.00185009
0.00159262
-0.000128209
-0.00149229
-0.00508312
0.00472282
0.00312531
-0.000356019
-0.00899045
0.00391027
0.00502576
0.00635735
-0.000474891
0.00264523
0.000862937
-0.000162228
0.00165662
-8.50111e-05
-0.00469948
0.00489347
-0.000170653
0.000172737
0.00193421
0.000569681
0.00433782
0.0032871
-0.00354786
0.000291724
-0.00223825
0.00184417
0.00108263
-0.00124708
-0.0013151
0.00191042
-0.00229705
-0.000175898
0.00243633
-0.000135822
0.00122898
0.0021014
-0.00224337
0.000181709
0.000114669
-0.00144165
0.00130017
-0.000716086
-0.00138923
0.00206414
0.00464081
-0.00491556
0.000275115
0.00151872
-0.00320509
-0.00127825
-0.000251654
-0.000219401
-0.00169781
0.00171912
-3.77659e-05
3.87984e-06
-5.75078e-05
0.000435464
-0.00211536
0.00157446
7.70937e-05
0.000834041
-0.000276373
-0.000926557
0.00081938
-0.00227909
0.000251224
0.00202004
0.00563956
-2.01882e-05
0.00172953
-0.000180534
-0.0015563
5.31826e-05
-0.00625063
-3.32254e-05
0.00509185
9.25592e-05
-0.00231545
0.00224784
-0.00012894
0.00639224
0.00404151
-0.000287241
-0.000372351
0.00502711
-0.000137907
-0.0037243
0.00390301
-0.000883086
-1.7331e-05
-2.29099e-05
-0.0002044
0.0017437
-0.00160406
-0.00580053
-0.000411787
0.00614599
-0.000803202
0.0034625
0.000227215
0.000483932
-0.000815548
0.00150784
-0.000190297
-0.00133553
-0.00197243
0.00151593
0.000423226
-0.00109726
-0.000252684
-0.00179957
0.00153075
0.00124571
-0.00200044
-9.15223e-05
0.00392952
-2.17956e-05
0.00173336
-0.00550498
-0.000135318
-0.00287856
0.00607044
0.000342266
-0.00420147
0.00399872
-0.00413499
0.00461386
7.88697e-05
-0.000573346
0.000481206
-0.000312914
-0.00168116
-0.000760981
0.00615922
-0.00411535
6.38844e-06
0.000220025
-0.00650244
0.00295949
0.0033643
0.000164308
-0.00124661
-0.00010397
-0.00113947
-5.1928e-05
0.0012595
0.000259307
0.0016193
-0.00180714
0.000241487
0.00316639
-0.00347081
0.00612937
-0.00553348
-0.000594442
-0.000454892
0.00026489
0.000547186
0.000221973
-0.000945227
-0.00260531
0.000646308
0.00490755
0.000153433
-0.00124802
0.0010722
-0.000183833
-0.00131967
-9.66761e-07
-4.51188e-05
-0.000154979
-0.00381129
0.0034599
-0.00212297
0.000319366
-0.00245233
0.00502786
-0.00194774
-0.00031527
-0.00151695
0.000404164
0.00124085
0.000250016
0.00163495
-0.00167294
-8.88684e-05
0.0059167
0.00595186
0.000699274
-0.00668461
-0.00568144
0.00617357
-0.000527573
-0.00500796
-0.00525008
0.00383787
0.000921215
-0.004065
0.00381779
-0.00259594
0.000402143
-0.0025498
0.000434175
0.00215411
-0.00220079
0.00231743
0.000514528
-0.000146852
-0.00243969
-0.0002652
0.0026263
-0.0072108
0.0041504
0.00296486
-0.000790473
-0.000674043
0.00142711
-0.00602449
0.0063789
-0.000397228
0.000214246
0.0022312
-0.00246137
0.000115274
0.00235645
-0.00265486
5.70443e-05
-0.000449355
0.000371669
-0.00124475
-0.000110404
0.00135912
0.000209712
0.00227387
-0.00245591
-0.000811105
0.00233138
-0.000323215
-0.00559262
0.0057509
-0.000414717
-0.00575153
-0.00301285
0.00104785
0.00196007
0.00157922
-0.00580377
-0.00465125
-0.00437117
-0.00143884
0.00320049
-0.000333715
0.000107429
5.09325e-05
0.00380466
-0.00390176
0.00147245
-2.51015e-05
-0.00487084
0.000206004
0.00366579
2.25483e-05
0.000173998
-6.22683e-05
0.00025657
-0.000358781
0.000140628
3.5494e-05
-0.00448134
-3.19574e-05
0.00213701
-0.00218421
0.00747675
-0.0065361
-0.00108266
7.86327e-05
-3.35512e-05
-2.85643e-07
2.88537e-06
0.000874848
-0.000524982
0.0063942
-0.0057436
3.34766e-05
0.000240315
-0.000350566
-0.000304634
-0.00190395
0.000231083
4.90309e-05
-0.00130853
0.000175513
-0.00164891
0.0014456
-0.00109135
0.000880809
0.000114446
-0.000274433
0.00474773
-0.00193118
-0.000607288
-0.00124986
0.00111947
9.12143e-05
-0.000275569
-0.000869344
0.00239899
-5.47455e-06
0.000231958
-0.00411161
0.0038209
0.00574635
0.000203737
0.000324139
-4.66776e-06
-7.86548e-05
-0.000150414
0.000162685
0.00114757
-0.00152534
0.00167297
-0.00261143
0.000125702
0.000241961
0.00434562
-0.00455318
0.000341737
0.00331112
-0.00367076
0.00556365
-0.00604305
-0.000799441
0.00669482
4.12846e-05
0.000300458
-7.39248e-05
0.000926337
-0.000891169
-0.00143298
-0.000202129
-0.00161434
0.00161913
0.00573796
-0.00613764
-0.000589627
0.00495178
-0.00434834
0.00747273
-0.00549359
-0.00211999
0.000195065
-0.00155448
0.00134419
0.000350786
-0.00388329
0.00348858
0.00231068
-0.000371596
-0.00189272
-0.00021565
0.00105745
-0.00545863
-0.000785404
-0.00147214
0.00360034
-0.00053789
0.0001756
8.69055e-05
0.00623802
-0.00258451
-0.00287293
0.00192689
-0.00183632
-1.27659e-05
-0.00431968
0.0048498
-0.000488301
0.000218244
-0.000659616
0.0005626
-0.000293926
0.000151855
0.0011669
-0.00130511
-0.00559638
-0.00578216
0.00480128
-0.00260926
0.000243651
-0.000274922
0.000825904
-0.000754184
0.000140759
-0.00128227
0.00564343
-0.00540929
-0.000205638
-0.00021172
-0.00057436
-0.000749939
0.000146745
-0.00128185
0.0011312
0.00179519
-0.00146796
-0.000341443
-0.000865026
0.000753972
-0.000316524
-0.000811837
-8.93205e-05
0.0063429
-0.000182398
-0.00137263
-0.00141454
0.00122971
-0.000454991
0.00185913
-0.00149018
0.00232435
-0.00259396
0.000289122
-0.00456882
0.00018951
-0.00216231
0.00241723
-0.000275751
-0.0040633
0.00266697
-0.000342055
-0.000188534
0.00418249
0.00039268
-0.000349425
-0.000116017
0.00134492
-0.00298202
0.0053094
-0.00250703
0.000277999
-0.000313159
-0.00189043
-0.00111593
-0.000192356
0.0038403
-0.00361295
0.00266558
-0.00217978
-0.000535012
-0.000178551
-0.00211517
6.10085e-05
-0.000510913
0.000440693
-0.00616656
0.00557133
0.000692577
-0.00588787
-0.00447518
0.000204967
-0.00235358
0.00211263
-0.00235221
0.000282787
-0.00607419
0.00367813
-0.000556414
0.000608624
7.35544e-05
0.000726674
0.000582686
-0.00523317
0.00475765
0.000250149
0.00192464
-0.00214354
-0.000363444
0.00608283
0.000233763
-0.000855904
0.000733968
0.000100211
0.00154343
-0.00138089
-0.000182753
0.00137393
0.00413284
5.70569e-05
-0.000434055
0.000362025
6.96541e-06
-1.06337e-07
-8.84353e-07
0.000109646
0.000837447
-0.000962153
0.00181735
-0.00228752
-0.00126962
0.00561578
0.00513203
-0.00444678
-0.00251179
0.000334876
-0.0049271
-0.00129335
-0.00214688
-0.00135941
0.00341754
-0.00575143
-0.00073741
0.00648287
-0.00443854
-0.0021661
-0.00763915
0.00636101
0.00125183
0.00462079
-0.00518818
0.00264388
-0.00270762
0.0028985
0.000222022
0.00547928
-0.00447445
-0.00572257
0.000455615
-0.00043225
-0.0035946
-0.00208607
-8.25762e-05
0.00188418
-0.000305859
0.000231919
-0.0016963
0.00146304
1.45533e-05
4.15991e-05
0.00440605
0.000598731
-0.00498317
-2.60178e-06
-0.00535094
0.00527572
-0.004499
-0.000500937
7.32718e-05
-0.000729998
0.00615458
-0.000843345
-0.000657613
0.00145983
0.000196382
0.00192287
-0.00202684
7.1861e-05
-0.00239199
0.00130092
-0.00116115
-0.00570009
0.0055933
9.03045e-05
-0.00169133
0.0027007
0.000266626
0.00435995
-0.00408627
0.000190336
0.005391
-0.00566958
0.00501876
-0.00483042
-0.00207833
-0.000221123
0.0021584
0.00484714
-0.000440243
-0.00644065
0.000375456
-0.00632364
0.00597517
-0.000114178
-0.00169064
0.00177557
-0.0014599
0.00161457
-0.00182706
-0.000815298
-0.00636231
0.0059075
0.00040468
0.00569512
0.000421167
-0.00216205
0.00233242
-0.000233073
6.21765e-05
-0.0034932
0.00141413
-0.0013252
-0.00509707
0.00230566
-0.00265
-0.00108474
-0.00241382
0.00260875
-0.000260655
-0.000833366
-0.000211062
0.00463269
-0.00477934
-0.000295713
0.00413664
-0.000723874
0.000741332
-4.91073e-05
-0.000249223
0.0019991
0.000397674
4.13159e-05
1.59629e-06
-0.000308844
0.00570444
0.000352922
0.000266893
-0.000664641
0.00342641
-0.000116046
-0.000274304
-0.00352369
-0.00258014
0.00615214
0.000600539
0.00546442
-0.00599655
-0.00138305
0.000157375
6.95033e-07
1.63683e-05
-2.06707e-05
-0.00377684
0.0033795
0.00164661
-0.000778854
-0.000936984
0.00609054
-8.55583e-05
-0.00386444
0.00370695
0.00274685
-0.00262522
-0.000171588
0.00182014
0.000165817
0.00575989
-0.000371143
-0.000594986
-0.00558488
-0.000444497
0.00610981
-0.00585344
0.000622809
0.00524323
0.00171361
0.00395178
0.00500315
0.000335979
-0.00366571
0.00300951
-0.00056147
-0.00251793
0.00667828
-0.00605976
-0.000637749
2.97092e-05
-1.08826e-05
3.29558e-05
0.00633358
-0.00642423
-0.000343807
0.00365202
-0.000428317
0.00249298
-8.82516e-05
-0.00223571
0.000173318
-0.006339
0.00616608
0.000766914
9.56959e-05
0.00613689
0.000341949
-0.00651941
0.00148979
0.000199331
-0.00179774
0.00713364
-0.000299793
-0.0069899
-0.000208306
-0.00164671
-0.000726405
-0.00102451
0.0028797
-0.00156041
-0.00328869
0.00346703
-0.00115167
-0.00437672
0.00464647
-0.000265778
-0.00220252
0.00209066
0.00593382
-0.00559768
0.00133049
-0.0018316
0.000114744
-0.000239277
-0.00750985
0.00403587
-0.00346288
0.000691748
0.0026787
-0.000473755
0.00541433
-0.000358263
0.00406746
-0.00408857
-0.000180074
6.39668e-05
0.00377426
-0.00375747
-0.000371162
0.00621164
-0.000899211
0.00362013
-0.00397032
-0.00240007
0.00314014
-0.00290338
-0.000287532
0.000341293
0.0036491
-0.00407893
0.000339572
0.000634773
-4.99771e-05
-0.00217959
0.00212143
0.00293804
-0.00587203
0.00499454
0.000138716
0.0041289
-0.00425011
-0.0010995
0.00121299
-0.000177813
-0.0024751
0.000218253
0.0028861
-0.000274423
0.00528749
-0.00516268
0.004186
-0.000164609
0.00384602
-0.00359125
0.000192281
-0.00136425
0.00605031
-0.00646852
0.00113223
-0.00121919
-2.50866e-05
0.00686462
-0.000301247
-0.00390042
0.000216404
-0.000366737
0.00625713
-0.00350087
0.00127111
0.000251462
-0.000299908
0.00204169
-7.87161e-05
0.00597083
-0.000345159
0.00548145
-0.0060679
-5.66083e-05
0.000269818
-0.000212766
0.00229971
-0.00223221
-0.000166462
-0.0011488
0.00382718
-0.00037636
-0.00224381
0.00261285
0.000330264
0.0060128
-0.000162659
0.0047723
0.00213458
0.000120291
0.00260739
-0.000204611
0.000640407
0.00423685
-0.000347122
0.00627369
-8.86372e-05
0.00457982
-0.00419385
0.00393284
0.00611242
-0.00644062
-0.000888766
0.000494859
-0.000461637
0.00575869
0.00167745
-0.00144139
0.000175083
0.00408754
-0.004249
-0.00467652
0.000233448
-0.000453137
3.84536e-05
0.000400794
-0.00374517
-0.000294821
-0.000560863
0.00638231
-2.47941e-05
0.000263711
0.0020846
-0.00155544
-0.00411514
0.00602652
-0.000174873
-0.00598047
-0.000347359
0.0063704
-0.00187385
-0.000235535
0.0021034
0.000997683
-0.00693504
-0.00648527
0.000747855
-0.00296352
0.00192723
-0.000194502
-0.00175641
-0.000477651
0.00397526
-0.00346604
0.000223366
-0.00209404
-0.00112145
0.00125883
-0.000141737
4.00474e-05
-0.000447102
0.00039451
-0.0054094
-4.14097e-05
-0.000458467
0.00046477
3.9622e-05
-0.000475028
0.000412608
-0.0039843
0.00417245
-0.000161503
0.00426376
-0.00452391
0.000313863
-0.00549717
-0.000484986
0.00040915
0.000254218
0.00337946
-0.00366442
6.03502e-05
-9.58585e-05
-2.86164e-06
-0.00347151
-0.00378949
0.00346922
-0.0041504
-0.000152145
-0.00577657
-0.00237893
0.00213992
0.00013787
-0.000468381
-0.000261917
0.00566911
-0.0054672
0.000247194
-0.00376388
-0.000477741
0.00423609
-0.00566512
-0.000329275
0.0058156
-0.00214876
0.00102384
0.000396239
0.00282462
-0.00346906
0.00610447
-0.000686055
-0.0053425
0.000503873
-0.000461744
-4.61466e-05
3.15914e-05
2.85476e-05
-0.000515122
0.00521692
0.00389153
0.00049113
-0.000424405
0.00502495
6.54459e-05
-0.000449613
-0.00457996
-0.000555758