/*--------------------------------*- C++ -*----------------------------------*\
| =========                 |                                                 |
| \\      /  F ield         | OpenFOAM: The Open Source CFD Toolbox           |
|  \\    /   O peration     | Version:  v2012                                 |
|   \\  /    A nd           | Website:  www.openfoam.com                      |
|    \\/     M anipulation  |                                                 |
\*---------------------------------------------------------------------------*/
FoamFile
{
    version     2.0;
    format      ascii;
    class       volScalarField;
    location    "850";
    object      ddt0(k);
}
// * * * * * * * * * * * * * * * * * * * * * * * * * * * * * * * * * * * * * //

dimensions      [0 2 -3 0 0 0 0];


internalField   nonuniform List<scalar> 
9793
(
1.22498e-08
-0.00156189
2.00674e-07
0.000432011
1.59451e-07
2.39019e-06
1.08271e-07
0.0030569
-2.24414e-08
0.000329683
1.79006e-07
1.81804e-07
-3.45522e-08
0.00183457
5.21419e-07
-3.02521e-08
4.77857e-07
-2.63009e-07
-0.000461836
3.48981e-07
1.4576e-07
1.99015e-10
0.000525388
0.00307899
0.00164883
-4.25282e-10
6.98995e-08
-5.79869e-08
3.62779e-07
1.5532e-07
0.000576689
1.95724e-05
3.89936e-07
1.57484e-07
4.13739e-07
1.91114e-07
-2.5034e-07
1.20829e-07
-0.000484092
1.97202e-07
1.32898e-07
-0.00133111
0.00441383
9.22309e-08
-5.06253e-08
-1.06285e-07
0.00182494
1.01008e-07
-9.83469e-08
-1.73678e-07
2.06315e-07
3.41639e-07
3.73196e-07
1.10092e-07
2.17186e-09
0.000471983
-8.63278e-08
1.43876e-06
-7.66295e-08
2.55916e-10
5.30383e-08
-3.52472e-07
1.36195e-07
2.16809e-09
-1.20427e-07
-4.53356e-08
0.000864267
2.56963e-07
-2.77081e-07
0.00181529
8.55426e-08
2.1543e-07
0.00286691
-0.0543277
0.00161548
1.41998e-07
-7.34923e-08
0.00207802
1.09364e-07
7.41403e-08
4.45067e-07
-0.000201825
5.35142e-07
1.07421e-07
-2.72011e-07
-7.13556e-06
1.91556e-07
1.87611e-06
-0.000430057
-1.19251e-07
0.000669189
0.00337828
-0.0017773
1.67188e-07
0.00416008
1.60444e-08
0.00238386
1.91807e-07
2.3102e-07
1.51186e-07
0.000944392
4.01748e-07
0.0129981
-3.77834e-08
-0.00118955
0.00467578
-0.0643463
2.50621e-07
6.49856e-08
1.41545e-07
1.56592e-07
0.000582981
2.12277e-06
0.00017615
5.39806e-08
3.41532e-07
-1.01279e-07
-2.54457e-07
0.0004579
-5.10636e-08
-0.00207868
1.88172e-06
0.000965256
5.33997e-07
-2.54953e-07
-9.79574e-08
3.27337e-07
0.000734577
5.31171e-06
7.83947e-06
-1.48551e-07
2.96939e-07
-7.79335e-10
2.60225e-07
1.49372e-07
4.89596e-07
0.000126381
-1.06812e-07
6.16073e-08
6.02654e-07
0.000554226
2.15872e-07
-2.51157e-07
1.33602e-06
0.00199939
-8.33067e-05
-7.35221e-08
0.00256588
2.10391e-07
-1.13128e-07
2.11331e-07
-0.00013383
1.3024e-07
7.18921e-08
7.82518e-08
0.00294689
4.79086e-07
-1.53983e-08
-1.53109e-05
1.46912e-07
1.67828e-06
3.9525e-08
1.33441e-07
-2.95959e-06
-1.99806e-08
-0.00041258
0.0126524
7.79274e-09
4.35864e-08
1.39585e-08
-1.02057e-07
0.000161814
0.00283039
0.000759611
-3.18759e-08
2.66238e-06
6.29223e-07
-3.78451e-06
8.02103e-08
2.24594e-07
-0.00087757
0.00174498
1.9058e-06
-1.30242e-07
-1.49233e-07
1.50882e-07
-0.00190724
0.00251878
0.00148595
0.010335
-7.57269e-09
0.000803229
-9.16272e-06
4.90426e-08
1.02596e-07
1.94938e-08
-1.20339e-06
-2.75598e-09
-2.40587e-07
-4.77899e-08
-3.13363e-09
1.98456e-07
2.4433e-07
-1.62944e-08
-0.000614241
-1.14502e-07
2.33628e-07
2.66459e-08
5.17811e-08
5.28867e-06
6.06653e-07
0.000967835
1.96587e-07
0.00128775
1.27243e-07
-9.40517e-07
4.00492e-07
-7.79886e-07
2.65793e-07
1.34762e-07
1.60453e-07
1.90308e-07
-1.70503e-06
0.00217949
1.38686e-07
1.26032e-09
8.58678e-07
0.00612659
-2.20571e-07
-3.21169e-07
0.000119937
1.37932e-06
-1.02036e-06
4.19061e-08
-3.51204e-07
-3.25691e-08
0.000465926
0.000288576
-1.00098e-07
3.56664e-08
-0.00319564
5.91806e-08
1.64873e-07
1.32247e-06
1.60479e-06
-2.9396e-08
2.16861e-07
2.44673e-07
1.44223e-07
9.67295e-08
1.00212e-07
8.12725e-08
-0.000192464
1.24031e-07
0.00137658
1.52558e-07
-2.53934e-07
4.24437e-07
0.000439526
-6.16203e-08
0.00129735
0.00016937
3.13552e-07
1.31148e-07
-0.00197726
1.068e-07
2.33541e-07
1.07837e-08
-3.93465e-05
-7.9005e-08
-1.05616e-07
1.87003e-06
1.30001e-06
0.0131133
0.000373745
1.10427e-07
-0.00175645
-2.61124e-07
0.0063988
6.28912e-05
0.000144267
-0.00175486
2.05113e-06
-1.68122e-07
5.02501e-07
-4.64908e-08
2.65465e-07
-1.64008e-08
2.5523e-06
-5.65579e-09
9.73405e-08
-1.57586e-08
1.63989e-08
3.49953e-07
1.59732e-07
0.00042397
6.08244e-08
5.36744e-07
4.39311e-07
-1.11814e-08
-0.00108625
0.000131809
-2.96119e-08
1.17317e-07
1.31821e-06
6.58605e-07
-0.0382384
-0.000733908
-5.79168e-08
0.000799745
-4.96609e-08
4.4427e-08
-0.00118072
-0.0675022
4.29095e-07
1.1792e-07
5.44337e-05
9.99418e-08
-6.24744e-08
5.34149e-07
8.62518e-08
0.00415616
4.0621e-09
1.42129e-07
-7.87452e-08
1.26848e-07
2.43284e-07
4.74058e-06
1.54682e-07
3.58329e-07
3.08729e-09
8.80203e-05
0.000603542
0.000560903
-3.53001e-08
2.41633e-07
-8.67246e-08
1.32337e-05
9.74436e-07
-1.25064e-07
-1.52035e-07
4.56289e-09
4.66977e-07
-6.47257e-08
0.00284652
3.75938e-07
1.31691e-07
0.00111705
0.000409236
0.000594609
3.74828e-07
0.000820508
-3.16044e-09
9.5035e-07
0.00336905
0.00011861
2.16797e-07
2.21432e-07
-7.15502e-05
0.000711279
0.000619092
5.6781e-08
-1.4816e-07
-6.99865e-08
-1.02222e-07
4.83496e-07
-3.68411e-08
-1.3793e-07
1.74502e-13
0.00313987
2.09427e-08
1.10025e-07
2.7234e-07
-0.0167404
-1.26638e-07
1.17695e-07
0.000524404
3.34308e-06
0.00220254
9.74015e-07
-5.65118e-08
2.07197e-07
1.42526e-07
2.85097e-05
3.02636e-08
0.000305652
2.38569e-07
6.50025e-07
0.000818412
0.00477475
6.41185e-07
1.23609e-07
-0.000127357
-4.03695e-05
-2.38367e-07
0.00280643
7.37777e-07
-2.54517e-07
6.89325e-05
1.1211e-08
1.39144e-06
-3.04466e-08
0.0107541
2.15957e-07
-2.31556e-08
-0.00153861
-4.50473e-08
1.07134e-06
2.87983e-08
6.69713e-09
-1.05328e-07
0.00268679
1.87504e-07
-1.51556e-07
1.34184e-07
3.29159e-08
-1.11811e-07
6.5525e-07
0.00185205
-1.70561e-07
2.54121e-07
1.25746e-05
2.21339e-08
-0.000182381
-9.94136e-07
-1.50029e-07
3.75208e-07
1.05983e-08
7.27855e-07
-1.02061e-07
0.000943038
1.34497e-07
-0.0030887
-3.1479e-08
4.12699e-08
5.33267e-07
1.14727e-07
0.000543406
1.06153e-07
6.42352e-08
2.5415e-07
7.35503e-05
2.12801e-08
9.54379e-08
1.28922e-08
2.95493e-09
-1.82646e-08
2.08797e-07
-1.93782e-07
3.79507e-07
-2.26361e-09
-3.60541e-08
1.28475e-06
-2.89963e-07
5.09772e-06
-3.8886e-08
1.95521e-06
0.000591351
2.66589e-07
-0.00163532
-5.12955e-08
8.20575e-08
3.52029e-07
-3.27228e-07
-0.00320418
1.27141e-06
3.13662e-07
4.11209e-07
-2.66924e-07
4.61034e-08
2.53789e-07
0.00314629
-1.39052e-07
-8.82447e-09
1.93235e-08
0.00169556
0.000202347
-3.83764e-08
3.07393e-07
0.00154838
-0.00121355
-3.88523e-06
-1.00281e-07
2.81151e-07
-0.000676042
-2.09452e-07
5.292e-07
-0.0207856
2.42057e-09
-4.92387e-08
2.21648e-07
0.000860605
-9.83905e-08
-0.000777834
-4.7485e-05
6.57981e-08
6.48207e-05
-1.183e-07
-2.03891e-05
1.24066e-07
4.96269e-08
3.16443e-07
-1.89118e-07
0.000973833
-1.48466e-08
-2.61893e-08
1.1049e-07
-4.41212e-08
3.6807e-07
1.83273e-07
1.21522e-07
-9.31553e-09
3.44483e-07
2.47173e-07
0.000222603
-6.85633e-08
-3.07457e-08
0.000852048
-1.76064e-08
-4.2357e-09
8.53147e-08
-3.67072e-08
0.000289309
-4.49128e-08
-1.53551e-07
0.000979896
-0.00160956
1.28833e-08
-3.24621e-07
1.16677e-07
6.0771e-08
2.17178e-08
0.00192525
1.07542e-08
-9.99721e-05
-2.41975e-07
-6.94237e-06
1.43929e-07
0.000740246
-6.06012e-08
6.86369e-07
-1.72355e-07
3.20801e-06
-7.9929e-05
1.67216e-07
-0.00416956
3.76844e-07
2.80925e-08
1.1272e-07
-0.000339424
-0.000395689
-2.13419e-07
2.79808e-07
-8.96224e-08
0.00203447
-4.53648e-07
4.69477e-08
-0.000700299
1.10373e-07
-3.74278e-07
3.00228e-07
1.54137e-08
2.34688e-08
-1.3824e-08
1.33182e-06
-2.59943e-07
0.00131162
2.52612e-08
-6.30707e-10
2.03076e-07
-2.8094e-07
-0.00104818
5.66055e-07
0.000955408
1.15329e-07
-3.01723e-07
1.9838e-07
-3.81135e-08
-6.36668e-08
-8.7782e-08
1.06367e-07
-1.11313e-06
-7.03238e-07
-0.00218293
7.27509e-07
3.8646e-08
2.0311e-08
-0.000497296
2.46937e-07
0.00192252
0.00181905
1.12704e-06
0.00417137
-0.0140661
3.67204e-07
6.71314e-08
-2.04546e-06
3.7416e-08
-9.7483e-08
-1.21477e-06
6.70543e-08
-9.80074e-07
9.12384e-08
-2.67474e-08
-1.26791e-08
0.000337381
0.00330016
6.68915e-08
2.44622e-06
-2.29848e-08
-1.22006e-06
-6.08484e-08
-2.19578e-07
-1.38933e-07
-1.53608e-08
2.3807e-07
-1.52052e-06
4.67114e-06
0.00266346
2.77338e-07
2.09459e-08
0.000939973
4.1683e-07
5.32374e-07
8.99725e-07
8.53344e-08
2.1985e-05
-0.00225057
-2.53832e-07
-7.52538e-09
-1.2468e-05
0.00242879
3.57604e-09
-7.78673e-08
0.00371099
1.9068e-07
-0.0034987
2.76013e-06
-0.0207424
3.65044e-09
2.24111e-07
5.11516e-08
1.65489e-07
3.08306e-05
2.89034e-08
0.000112766
6.57199e-07
-9.49255e-08
1.82387e-08
-1.41905e-07
-5.74823e-08
2.03512e-07
4.39e-07
-2.78026e-08
4.69536e-07
-0.00394647
0.00141894
-7.13834e-08
1.88037e-05
-3.7058e-07
0.00116923
8.8741e-07
-8.02197e-08
-6.92589e-08
1.61495e-05
3.08196e-07
2.18855e-07
3.51626e-08
-1.21675e-07
-1.76136e-08
7.06981e-07
0.00122749
2.24854e-07
2.41339e-05
-0.000425518
1.85167e-07
0.00474429
-0.000740626
9.34532e-08
2.70022e-07
-3.21678e-08
2.88234e-09
1.15619e-07
2.74787e-08
-0.000181322
0.00337343
3.72193e-08
-8.17448e-08
4.19787e-07
-1.65887e-07
1.22596e-07
1.28997e-07
1.45291e-07
8.74863e-07
6.58132e-07
-0.00077542
2.2385e-07
5.82937e-08
1.03573e-07
5.03405e-05
-1.56603e-07
-3.60195e-07
-3.61541e-07
7.36927e-07
-9.26815e-08
-2.36562e-07
1.19203e-07
-2.29392e-07
3.54887e-07
1.37344e-07
7.12101e-06
8.54602e-08
1.49945e-06
6.09148e-07
1.53717e-08
-0.00211064
0.000626075
-1.54044e-05
2.80061e-07
3.53812e-08
-0.0277965
1.09209e-07
-0.00646758
1.27774e-07
1.53752e-07
0.000286601
0.00600114
1.40173e-07
1.43371e-06
-1.61525e-08
1.03463e-07
-2.278e-08
-1.66113e-08
0.00273454
-1.90165e-07
1.64304e-11
0.000768266
7.2804e-09
1.94186e-05
-1.09151e-07
-9.1097e-08
0.000302116
-4.48057e-07
7.71524e-08
-1.57789e-08
8.99761e-08
0.000418297
-2.49768e-07
-6.60687e-08
-7.18124e-08
5.53183e-09
-3.70349e-07
1.44019e-07
0.00580866
1.52182e-07
-2.33709e-08
-1.42595e-07
6.10879e-08
3.88032e-07
-3.8072e-08
-1.11874e-08
7.08411e-08
3.61424e-07
2.43467e-07
-0.000307506
0.00155009
2.23396e-08
0.00326954
2.21776e-08
-1.46999e-08
0.0019945
-1.09927e-05
2.18184e-07
-2.37605e-07
-6.96303e-07
8.9095e-07
-3.5931e-07
1.4392e-07
0.00071957
4.78526e-08
2.02286e-07
3.5291e-07
3.41576e-07
1.51908e-07
-3.30958e-07
2.2028e-07
3.64592e-08
5.43125e-08
-1.08869e-07
6.73562e-08
-2.11322e-07
-1.46115e-07
-4.636e-08
4.6104e-09
9.83109e-09
8.72448e-08
1.95691e-08
1.84416e-07
4.14587e-07
1.06733e-06
0.00206747
4.41719e-07
7.25829e-07
-1.94433e-08
-1.38186e-08
0.000243867
-0.0305958
-7.48253e-08
0.0044352
0.00059965
1.02583e-07
-1.39146e-07
2.71412e-07
6.16504e-08
1.20078e-06
-3.79139e-06
1.33519e-08
3.84899e-07
8.82309e-09
8.04395e-08
-3.03385e-07
1.26974e-07
3.60092e-08
-2.41064e-06
4.01185e-08
-6.99988e-08
1.9455e-08
1.88269e-08
1.64572e-07
-8.19097e-07
-2.33208e-08
0.000992709
0.000719429
0.0046719
7.42469e-07
1.63272e-07
7.4515e-05
2.71535e-06
1.51645e-06
9.23175e-08
-4.07155e-08
4.26447e-06
2.70018e-07
0.000406999
-6.39231e-08
-2.1942e-07
-2.40262e-09
-1.54379e-07
4.57566e-07
-0.00540847
0.00279516
0.000471768
-4.42221e-08
0.000514019
2.34727e-08
-0.00315111
0.00496831
4.96572e-08
2.47462e-08
4.84242e-07
-0.00809088
1.66558e-08
0.00387885
3.07813e-08
1.37043e-06
-2.61642e-08
-8.94166e-05
0.00126456
-1.85431e-06
1.64356e-07
2.7712e-07
-3.63892e-07
0.00472802
3.0942e-07
-1.00008e-06
5.41216e-06
-5.68472e-07
0.00334247
0.0018393
1.16494e-07
1.47917e-07
-2.8588e-07
3.93875e-06
0.00336114
0.000304366
4.43937e-07
1.01776e-06
-2.56404e-07
1.49576e-06
-1.59986e-07
0.00130838
0.00134691
-1.49261e-07
-3.79538e-08
1.81812e-07
-2.4871e-07
5.52789e-08
0.00139184
-1.61728e-07
0.00270253
-5.56106e-07
-1.41041e-07
-1.76822e-07
1.68557e-06
-0.0050978
2.46547e-07
0.00207835
0.0165369
9.7289e-05
3.05984e-08
-6.59379e-08
2.46446e-07
-2.74737e-08
1.72973e-07
0.000544347
-0.00471437
-4.5553e-08
1.90389e-07
3.87459e-08
4.66343e-06
3.45367e-07
-1.30408e-07
4.4609e-07
-1.00732e-08
-4.81059e-08
1.573e-07
1.49832e-06
-7.75647e-08
-1.04788e-07
0.000472813
2.0802e-07
1.51831e-07
2.84473e-06
5.38472e-07
-6.91379e-08
1.10403e-07
3.36934e-07
5.92747e-08
-3.51539e-07
3.00018e-07
0.00490428
-0.00744614
7.76666e-08
3.59115e-07
-1.23842e-07
-3.685e-07
6.90126e-08
-0.00226476
3.57705e-07
5.41303e-07
5.01126e-08
-3.32747e-06
8.56639e-07
-1.2008e-07
2.19676e-07
0.00200811
0.000764627
2.14511e-05
4.94983e-06
-2.19904e-07
2.22214e-07
3.75957e-07
0.000135575
-6.05809e-08
-0.00588022
1.35634e-07
-4.3099e-08
-3.9086e-08
-6.44081e-08
-1.29505e-07
2.40012e-08
8.50328e-08
-0.00299197
-1.71462e-08
1.32011e-07
-1.12966e-08
-7.02496e-08
0.00216063
0.000489605
1.09666e-06
0.000720122
-1.35473e-07
3.0862e-08
2.95127e-07
-0.010459
2.86328e-07
3.30298e-08
0.00396132
2.22299e-08
9.51353e-08
2.59724e-08
1.12565e-06
-0.0029241
-0.000686245
-7.67846e-08
-5.47998e-09
-2.22731e-06
-3.06533e-07
-0.0001282
1.09688e-06
-2.1208e-07
-2.55896e-08
1.44632e-07
1.55625e-06
1.38659e-06
-3.31476e-07
3.36435e-06
5.52279e-07
-2.81979e-07
-3.00799e-09
4.19765e-07
-5.86559e-08
8.64612e-08
1.21561e-05
3.47683e-07
3.03949e-07
2.19094e-07
3.38357e-07
2.19794e-07
1.27405e-07
-0.000367235
6.17074e-08
9.27291e-08
0.00147661
-1.4281e-07
0.00276011
-4.48723e-08
0.00025939
1.15663e-07
7.49289e-08
-1.38839e-07
1.50337e-07
0.00108924
4.30034e-06
1.20404e-07
3.06502e-07
2.47948e-07
2.12095e-07
1.32249e-07
1.92987e-08
0.000706755
2.36104e-07
1.59303e-07
7.01396e-07
-3.72122e-07
-0.00293193
2.86625e-07
0.00801887
-1.29784e-08
4.17527e-07
-2.28766e-07
-5.90473e-07
-2.71179e-06
8.47856e-08
0.00148903
-6.29071e-06
-6.17038e-08
-0.000968743
7.31571e-07
5.66951e-08
7.32055e-08
1.67543e-07
-2.5002e-09
6.02444e-08
-0.000822457
9.72236e-07
3.8358e-07
-1.41224e-05
3.03788e-07
-0.00112751
-1.13317e-06
-3.48795e-07
0.00364841
1.69665e-07
-1.83743e-07
5.37152e-08
0.00110275
0.0136672
9.4993e-07
-3.33648e-08
-1.69183e-07
4.23814e-05
1.38451e-09
9.19696e-08
-2.17943e-07
-5.31244e-08
1.50495e-07
-0.0044116
3.39869e-08
-7.27755e-08
-4.76455e-08
2.96587e-08
5.47958e-06
2.87366e-07
-1.77192e-07
-9.73883e-08
1.06837e-07
-0.000835468
0.000724786
4.81877e-07
4.24719e-07
4.8362e-07
2.02578e-07
0.00213159
0.00509241
-2.56296e-06
-8.4025e-08
2.38425e-07
0.0046546
-0.0272645
1.40796e-07
0.00360721
-2.53266e-08
1.68061e-07
0.000118718
1.44623e-07
0.00171529
0.00259357
4.7692e-07
0.000777227
-0.00510148
2.54815e-07
6.84032e-09
1.13727e-06
0.000103786
1.52455e-08
0.000989508
2.46765e-07
1.32819e-07
-4.26478e-08
2.37959e-07
4.1468e-07
2.71558e-07
2.18671e-06
0.000802916
1.61968e-06
-6.9903e-09
-1.24377e-07
1.02499e-07
-8.21835e-07
3.79302e-07
6.88631e-07
1.2247e-07
1.70904e-07
4.15743e-10
-5.31028e-08
-9.68941e-08
6.46182e-08
-1.13585e-05
2.24416e-07
5.41499e-08
0.000754898
0.00130986
1.59885e-06
1.37457e-07
1.52862e-07
2.36712e-07
5.93634e-08
-0.00426883
-0.0042709
-1.13356e-07
2.31374e-07
-0.00279628
-0.00080002
1.54502e-07
8.31984e-09
0.0046131
5.69003e-07
1.74144e-07
-1.34739e-07
-1.21795e-07
2.05296e-07
-4.70965e-08
0.00305177
4.23639e-05
-6.28834e-08
-5.02865e-06
7.70218e-07
0.000762486
0.00136887
-0.00126936
3.08524e-06
8.10543e-08
3.16486e-07
8.8928e-08
-1.40354e-07
5.02064e-07
-9.14345e-08
2.28182e-07
1.71157e-07
-0.00475008
2.91072e-07
0.000800191
-9.39522e-08
0.00232103
2.25463e-07
5.41926e-06
-2.2528e-07
2.53219e-06
4.70603e-06
9.9865e-08
-7.76795e-08
0.00486437
6.93567e-07
0.00059621
-1.3647e-07
-0.00582094
3.69156e-07
0.00274279
8.2419e-05
1.29476e-07
6.77468e-08
-4.30855e-07
0.00105128
0.0017341
8.89139e-08
-1.95504e-07
-0.00180214
1.45262e-07
5.76868e-07
0.00545048
6.82679e-07
1.39941e-07
-0.0204994
6.46986e-08
-2.0051e-08
1.29586e-07
-0.0034288
1.38719e-07
-1.88972e-08
1.0451e-05
-6.71916e-06
-1.41975e-07
1.31282e-07
-2.15944e-07
1.34914e-08
2.36788e-08
-5.8158e-06
6.00081e-08
8.32621e-08
-2.10634e-07
-1.33523e-07
-0.000252381
1.65501e-07
0.00309276
-0.035554
8.3371e-05
1.03751e-07
2.61856e-07
2.40227e-07
2.47361e-07
4.71142e-07
3.73792e-07
0.000465657
2.1973e-07
3.57484e-05
1.20579e-07
-5.99324e-09
-7.88792e-08
1.58134e-06
-6.84648e-05
0.000247028
3.40546e-08
0.000551488
-2.55271e-08
-0.00064851
4.57259e-06
8.41222e-07
-4.22296e-09
-8.60115e-08
1.07922e-07
0.000158793
1.1882e-07
2.40875e-08
1.96568e-07
6.17802e-07
-7.28661e-08
0.000101432
-0.000699162
9.45015e-07
4.37186e-07
2.32898e-07
0.00388749
-1.63126e-07
-3.73246e-08
4.02399e-07
-0.000188425
1.3162e-07
4.89178e-08
3.33056e-07
-2.44058e-07
4.28319e-07
0.00877116
8.89337e-08
1.50191e-06
-1.68359e-06
2.68629e-05
1.67612e-05
-2.50232e-07
7.55586e-08
-0.00276214
-9.16237e-08
1.53879e-07
1.36022e-06
1.99897e-07
3.04296e-07
0.00259011
8.76157e-08
-8.59294e-07
-7.80173e-08
-8.60166e-07
1.21264e-07
-5.51342e-07
-7.46453e-08
2.67954e-07
0.00629857
-9.64841e-06
2.19649e-07
3.50314e-08
1.93014e-06
-0.00134517
2.52326e-06
-1.32123e-05
-2.33213e-07
-1.41651e-07
2.06563e-07
-0.000809535
2.14658e-07
-0.00380045
-9.60238e-08
0.00386529
-2.27789e-07
-3.42544e-08
1.52072e-07
3.94409e-07
7.04069e-08
6.35569e-06
0.00135216
-0.000953057
-1.05609e-06
3.88049e-07
1.9709e-06
1.61819e-07
1.83449e-06
6.05387e-07
2.08538e-07
2.39029e-08
1.33468e-07
3.8573e-07
1.62032e-06
2.72095e-08
8.78173e-08
7.51166e-08
-0.00101006
-0.000320146
-4.13748e-07
-0.000895533
-5.49557e-09
3.24201e-07
-1.02231e-07
-1.14891e-06
3.07821e-07
1.32256e-07
6.62642e-07
0.00102304
-5.51601e-08
1.24829e-06
3.99842e-07
1.91503e-07
0.0022126
1.39041e-07
7.66063e-07
1.08268e-07
3.05463e-07
0.00176635
2.09767e-06
3.11174e-07
1.28847e-07
-4.36883e-06
0.00136122
0.00926534
4.57437e-07
1.96531e-06
1.00117e-06
-0.00185168
1.55017e-07
-0.00174832
0.00104527
6.17666e-08
-2.36179e-07
-1.20199e-07
2.34072e-05
-1.98462e-07
7.70235e-08
0.00125825
1.23239e-07
-7.21941e-08
-5.72165e-07
1.46705e-06
0.000962946
0.00113004
1.96669e-06
0.000393327
-1.39737e-07
4.27508e-08
4.69643e-07
-4.42735e-08
-0.00891138
3.29503e-08
0.000599909
1.68861e-07
0.00298306
3.48418e-08
-2.05375e-08
4.47828e-07
-3.54073e-09
1.41971e-07
1.07885e-07
3.41513e-07
-5.25334e-05
3.11124e-07
1.08062e-06
9.0272e-09
0.00058032
5.5878e-08
-4.2658e-07
4.16273e-07
6.13806e-07
2.11094e-07
3.17693e-07
3.40302e-07
8.68929e-08
-2.87101e-07
5.15682e-07
2.55545e-07
-7.64703e-08
-0.0185621
0.00230785
0.00255105
-0.000851024
1.42918e-07
-1.26067e-07
-5.25966e-09
6.31444e-07
2.30447e-07
1.24093e-07
3.36436e-05
1.43432e-07
5.14971e-08
-1.15016e-07
4.02219e-07
-4.29064e-08
0.00301417
-4.41298e-08
-1.30379e-07
0.00460583
7.64526e-07
6.59953e-07
0.00100549
0.00145799
1.90086e-07
1.45446e-05
-3.42214e-06
1.82258e-07
-5.99272e-08
-6.38126e-09
1.54704e-07
-3.03636e-08
-4.6984e-07
-1.63884e-07
-1.25874e-07
-2.68478e-07
3.39365e-07
0.00100156
-5.51045e-07
-2.41209e-08
-1.87388e-07
-3.10942e-10
0.00374718
6.42033e-08
-3.75454e-08
1.18127e-07
1.4047e-07
1.19627e-07
4.82863e-06
-0.000856153
0.000253791
0.000758864
2.10943e-06
4.03644e-08
-1.75221e-07
0.00419597
1.79952e-06
1.14191e-07
7.86398e-07
1.35876e-10
3.02832e-07
-4.26869e-07
0.00505278
-1.81214e-07
-3.37183e-07
2.84642e-07
3.66891e-06
3.19961e-08
5.01435e-07
-4.25261e-07
3.05859e-06
2.26362e-06
-0.0117608
-1.29611e-07
-1.46735e-08
-6.21817e-08
1.00953e-07
6.41849e-08
-7.04404e-08
-5.23237e-07
-0.0114128
-1.77411e-08
-3.56939e-06
0.00495743
7.67279e-09
-0.00113038
1.2179e-07
5.13903e-08
5.40168e-07
6.64534e-08
-3.8465e-08
4.92983e-07
4.8526e-07
3.02936e-07
-9.29187e-08
-0.0213565
-0.00497336
1.25738e-07
1.22347e-07
1.06013e-06
-1.92323e-07
2.29366e-06
-4.79578e-06
2.9713e-07
1.08107e-07
4.66335e-08
-2.20234e-07
4.90177e-07
5.1117e-08
0.00410657
1.28556e-07
-1.92144e-07
-6.19939e-07
0.0010227
-5.24166e-07
-0.000283611
2.43139e-07
4.19635e-08
-2.67272e-06
-1.09908e-05
3.46553e-08
0.000178806
-4.58436e-08
-1.88054e-05
3.74768e-07
3.35013e-07
0.000211333
-0.000267062
-1.51009e-07
1.98149e-07
4.365e-07
-4.69381e-06
-3.0974e-07
-7.40958e-07
5.09637e-08
-9.89472e-08
6.00629e-07
-1.88524e-06
0.00274142
3.22131e-07
7.75138e-07
0.00238071
1.68365e-07
4.28591e-06
0.00067786
0.000169964
0.00677375
5.75339e-07
-1.49457e-07
-0.000532033
1.67567e-07
-4.18567e-08
6.52594e-06
0.000630042
-4.23422e-08
-1.0194e-07
0.000464414
-1.59825e-06
2.4018e-06
0.00464284
-0.000805925
0.00110707
-1.37911e-07
-8.34285e-08
7.67761e-08
2.54795e-07
0.014495
5.68418e-09
6.2147e-06
2.37398e-05
2.07228e-07
7.75846e-09
0.000109784
4.16943e-08
1.97058e-07
7.15748e-08
7.7013e-08
-0.00035747
-0.00411288
-1.01848e-07
-6.41666e-08
-6.08809e-07
-0.0445059
2.19787e-06
0.00134395
7.812e-08
1.71799e-07
1.86889e-07
-3.22323e-07
1.16543e-06
-7.41553e-08
1.34925e-07
-0.0488182
-3.2843e-06
-3.07036e-05
1.8324e-07
1.21704e-07
-7.21975e-08
-0.00840435
9.98384e-09
1.96159e-08
4.39774e-07
-9.47536e-09
-3.29893e-08
0.000192875
-0.000289235
-0.000852804
1.32e-05
0.00101704
1.67686e-07
6.02956e-08
0.00629327
1.60526e-09
3.66733e-06
-0.0114438
1.63956e-08
0.00433988
-0.000980184
1.21943e-07
9.55857e-08
-2.61923e-06
5.435e-08
-3.70569e-06
1.10712e-07
0.000499386
3.25049e-07
1.40769e-07
7.7401e-08
7.99128e-06
8.17246e-07
-3.57696e-07
0.000875475
0.00797298
-7.27414e-08
2.3791e-06
2.93932e-06
1.56183e-07
2.46962e-07
0.00120523
6.71534e-08
5.89545e-07
-0.00376523
-1.97001e-07
1.09617e-07
-2.34777e-07
3.67308e-07
5.73452e-07
2.42984e-07
1.04847e-07
-0.00459808
-1.09593e-06
0.000468429
0.000633037
-0.000889151
-5.24291e-08
4.89858e-06
-0.00272016
-1.46184e-08
-0.0049898
-0.00661664
-0.00562764
-4.25463e-08
5.1963e-08
0.00069943
-0.000902067
-1.53656e-07
2.71517e-06
4.94373e-07
-1.09668e-08
-9.79636e-07
5.39005e-08
0.000283596
0.00152187
-0.000402952
-0.00804544
1.24557e-07
4.28034e-07
2.69409e-08
1.09049e-07
4.18225e-08
7.99232e-07
1.1563e-07
-3.54336e-06
0.000379619
3.62805e-09
1.28871e-07
7.2971e-06
-5.05037e-08
2.33168e-06
-1.16145e-09
0.000151012
0.000236425
1.11554e-05
0.00111405
0.000373675
0.000668035
0.000374902
-0.000896708
-1.4332e-06
4.21437e-08
5.36868e-07
2.9879e-07
0.00226679
-0.0114627
3.19608e-07
-6.46741e-07
0.0014176
0.00054425
-6.60999e-08
0.00108434
8.8289e-08
-3.43382e-07
-0.00262471
-0.0314685
2.06527e-07
0.000562549
6.06965e-06
-6.8393e-08
1.55484e-07
0.00401233
0.00422007
0.00240187
0.00334989
1.84897e-07
0.00207416
0.000462655
1.01696e-07
-2.68729e-06
-2.73897e-07
2.60386e-07
1.95077e-07
0.000370232
-0.00132676
2.82618e-07
-1.64335e-07
0.000629952
2.76087e-07
-0.000894853
1.64761e-08
2.70913e-05
0.000530371
-4.06654e-08
0.00161908
4.67569e-08
-3.73094e-07
-2.15135e-07
-4.95767e-07
-5.79449e-07
7.86861e-08
6.76957e-06
2.81923e-08
-0.0153588
2.41641e-06
-0.000664421
0.00155627
0.000580855
2.68263e-07
-0.00145074
-6.55019e-07
0.000288329
5.99899e-08
2.43529e-07
0.00166463
0.000113685
-0.00138317
-9.59229e-09
-5.3701e-08
-3.23175e-07
-0.00528969
0.000306125
1.33361e-07
-0.00490452
-7.38818e-08
-8.32059e-08
0.00115632
-2.4626e-08
0.0161593
5.93481e-08
-1.07616e-06
0.000711633
0.00229016
3.74745e-05
5.12204e-06
0.000104401
0.000377768
-0.000725345
9.0193e-08
0.000294026
-3.35182e-07
-1.11668e-07
4.5735e-09
-7.10562e-08
0.00038777
2.46171e-09
0.000209092
-0.000216861
-5.45749e-07
3.35977e-06
3.04654e-06
-0.000768182
-8.60576e-08
0.00363022
0.00100449
3.04341e-06
7.25777e-08
4.51652e-08
-0.000491293
8.14864e-07
-4.26019e-06
0.00105842
-0.000806778
3.16302e-06
-3.91761e-07
1.49678e-07
-4.60163e-07
-5.64058e-08
1.26071e-07
2.3836e-07
0.000347445
-9.86051e-07
-2.02308e-07
0.00102315
2.36433e-06
9.59181e-05
-0.0167463
0.000731643
0.000100236
-0.00110038
0.00112633
-0.000694766
6.67962e-09
3.0712e-07
-3.39927e-08
-1.7307e-06
5.80158e-07
1.06295e-06
3.22713e-08
6.52513e-08
3.80345e-07
-1.19337e-07
-0.0112606
-3.87748e-07
-2.44145e-07
5.35129e-07
-0.00121431
2.26356e-07
4.15412e-07
1.78565e-08
0.000442715
-6.2595e-07
-1.2924e-07
1.22024e-06
4.56833e-08
1.42631e-06
5.2332e-07
-2.14532e-07
1.14584e-07
4.3118e-06
-1.16521e-07
9.37206e-08
3.54205e-07
-0.014272
-2.84653e-08
0.00350666
-2.51937e-07
0.000498933
-4.544e-08
3.0297e-09
-6.97677e-08
1.54895e-06
-4.45777e-07
0.000168898
-0.000500031
-7.42872e-07
8.3083e-08
-3.63986e-08
0.00242724
8.79349e-05
2.84791e-07
4.88244e-06
-0.000376328
1.44944e-07
3.96645e-07
2.97751e-07
7.56992e-08
1.75956e-07
0.00120716
5.26067e-08
-1.9162e-07
0.0038965
3.89059e-08
-2.41779e-08
-1.64296e-05
2.40762e-07
2.21686e-07
1.35239e-07
0.00420916
5.38853e-08
5.86612e-08
-2.54602e-08
1.28454e-07
3.39353e-07
3.49393e-08
-0.0107268
-9.50002e-05
1.5024e-07
5.23112e-07
-0.00117438
-9.4678e-08
5.4816e-08
-3.88883e-07
1.62603e-05
0.00387703
3.43194e-08
0.00494203
0.000758863
1.57898e-08
0.000363779
5.19167e-05
0.00136506
-0.00102375
1.18176e-06
1.73492e-06
3.7531e-06
1.1606e-07
-2.80161e-07
-5.92276e-08
5.575e-08
0.0036343
3.52085e-07
0.000270227
-5.99743e-08
-9.43298e-07
4.47149e-07
4.7172e-08
2.25421e-07
0.0118643
-0.0016568
0.000455749
0.000772166
2.35625e-07
2.02967e-06
0.00224526
1.5118e-07
0.000512985
4.47583e-08
-3.42088e-08
-0.000573894
-1.76624e-06
2.94787e-07
2.53861e-07
8.47573e-07
2.55044e-07
0.000530342
-0.000769857
3.46249e-07
-2.81524e-07
-2.28437e-07
1.81892e-07
0.00165719
2.17792e-07
4.60317e-08
-4.49969e-08
4.82191e-08
-9.16251e-08
-6.01416e-08
0.00132211
5.72264e-07
1.32655e-07
-1.97601e-08
8.17833e-07
2.79627e-07
-5.95304e-08
2.39245e-05
0.00113915
2.13325e-07
2.35622e-06
3.62281e-08
2.53853e-08
1.13019e-06
0.00218753
1.35797e-07
0.000366439
-0.0219787
5.39362e-08
1.09203e-07
-8.56601e-07
6.09674e-08
6.18607e-08
0.0037762
5.95789e-07
-8.09447e-08
3.03481e-07
-0.00111431
0.00108485
8.84502e-08
1.63822e-06
2.18439e-07
-4.02466e-07
1.92727e-06
-3.82893e-06
-8.48965e-08
-4.00873e-07
-0.00110419
-8.30795e-08
-5.6307e-08
5.48752e-08
0.00588757
0.000626397
2.99518e-07
0.000376622
-3.64452e-07
3.6508e-07
-1.51358e-05
-1.85774e-07
0.000472741
-5.12963e-08
-1.107e-07
0.00214154
9.64056e-07
3.13303e-07
2.65954e-07
4.88773e-06
2.07223e-07
1.40218e-07
1.47128e-06
-9.49971e-08
1.99168e-07
0.00150928
2.90569e-07
1.14202e-07
-0.0010776
-3.69474e-07
-0.00249599
0.00259524
3.00047e-07
1.47756e-06
2.73079e-06
2.17467e-08
7.93132e-07
4.36513e-07
0.00643712
6.63609e-06
-9.29008e-08
-0.00967761
0.00178629
4.15584e-08
-1.3653e-07
1.16882e-06
-1.57841e-07
0.000518605
0.00074209
-9.48592e-08
1.49578e-07
0.00101684
4.50757e-07
9.30905e-07
2.02814e-06
1.09935e-07
0.00415347
1.29235e-06
-4.10088e-08
-2.82478e-06
-0.000234202
-3.78072e-08
-0.00975192
2.00104e-07
1.66159e-09
1.92394e-08
-1.01717e-07
-0.00546499
-2.88712e-07
-5.89767e-07
0.0244701
-0.000786959
-5.20947e-08
1.31226e-07
4.55079e-06
0.00120395
1.00993e-07
-0.000712726
3.06019e-07
4.48821e-07
4.9682e-07
1.81454e-07
2.25047e-07
-1.59461e-08
2.83764e-07
-0.0138741
-2.99391e-07
1.4938e-07
2.15088e-07
0.00491496
-4.03024e-08
-1.27332e-07
2.1573e-08
2.47306e-07
6.5217e-08
2.22248e-07
0.000313997
-0.00137913
1.04162e-07
-1.43219e-08
-2.70145e-07
7.49656e-08
5.94434e-07
0.00877509
0.00122347
5.64075e-08
0.00122962
2.56534e-07
-7.99161e-06
0.00106692
0.000687217
5.83364e-07
3.45024e-07
1.07177e-06
0.00351891
7.40629e-07
2.75777e-07
0.00429434
-3.76269e-06
-1.20083e-07
-0.0137337
-1.86818e-07
-5.59307e-08
-8.72793e-09
-0.00425172
1.28431e-07
-0.0199123
-7.30596e-08
0.000766676
-1.21795e-06
-4.50867e-07
0.0086495
4.15769e-08
-8.28282e-08
7.60589e-06
-9.33781e-08
-7.17453e-08
0.0027032
2.92363e-06
2.78179e-08
-1.87503e-06
8.99516e-08
4.57918e-07
1.61587e-07
0.000145127
-5.45756e-08
2.50753e-07
1.30138e-08
1.24853e-07
6.77019e-07
0.00255782
-0.0362176
-1.05478e-07
1.36174e-07
1.94087e-07
-0.0164263
-0.00621314
-6.3931e-07
1.15e-07
-4.35287e-07
-1.74767e-07
0.00616384
7.03284e-08
1.22673e-07
0.00590037
1.36282e-06
-6.51151e-08
3.11523e-06
1.2081e-06
3.08909e-07
3.75405e-07
1.59587e-07
-7.34057e-06
3.70345e-07
1.15267e-07
-0.00121027
0.00138649
-6.72413e-05
-8.26068e-08
1.53193e-07
1.82559e-07
2.36426e-09
3.84149e-07
6.28849e-07
1.72638e-07
1.22833e-06
0.00520854
6.60595e-08
-1.15928e-07
0.000950377
1.01009e-05
0.000297308
2.14002e-06
2.39161e-08
8.7278e-08
-9.13767e-09
3.5311e-07
3.12957e-07
6.68451e-07
8.34246e-08
-2.05117e-08
-2.0121e-07
1.72247e-07
1.44599e-07
2.01414e-07
7.9792e-08
-4.25019e-07
1.17709e-07
2.6688e-07
3.35388e-07
-5.41309e-08
8.90856e-08
-3.34997e-07
-1.47395e-07
4.28905e-08
1.12167e-06
3.3298e-08
1.96382e-07
1.53992e-07
1.62811e-07
0.00101893
0.00157473
0.000172038
-0.00346316
-0.00388726
3.2272e-06
-1.20368e-07
1.23609e-07
1.52502e-08
-5.47324e-06
-6.75991e-08
1.18453e-07
1.395e-07
7.30953e-07
-1.18352e-07
3.99084e-07
-6.52798e-08
0.00189108
-6.75105e-07
1.94916e-09
0.00422011
-0.00012857
-1.09515e-07
3.63283e-06
-1.10608e-07
-3.43014e-08
7.04518e-05
1.07838e-07
7.07088e-08
1.95254e-06
-9.46572e-08
-8.8407e-08
2.3751e-07
-0.000718204
8.18172e-09
1.54094e-07
0.000731834
1.41319e-07
-0.000581227
6.03432e-07
0.000519051
9.99946e-08
0.000634041
-9.09793e-08
-2.18852e-08
-3.40005e-07
8.55582e-07
0.000302678
-0.000319852
0.000304366
0.00281425
1.71096e-06
5.17252e-07
6.65523e-07
1.01328e-06
-7.63667e-08
2.31731e-07
-6.88083e-08
7.01455e-08
-6.03379e-08
7.31141e-08
2.28342e-07
1.21044e-06
-0.049132
0.00077376
-5.44618e-05
-0.000337678
1.55822e-07
-2.78068e-08
6.85466e-07
1.06742e-07
1.07818e-06
1.35796e-07
-1.92239e-07
2.84722e-08
1.83622e-07
-8.56057e-09
5.12302e-07
2.7851e-06
2.46476e-07
-8.783e-08
1.08036e-07
-1.68351e-08
-0.000237334
0.0013335
2.38823e-07
3.7026e-07
-1.3069e-07
0.00118845
0.000869302
2.23969e-07
3.36563e-07
1.37731e-07
-1.77116e-07
-0.000305595
3.28458e-05
0.00197587
-6.62677e-08
-0.0243516
1.01757e-07
-0.0001375
5.63281e-07
4.59954e-08
1.83e-07
-0.012334
5.11606e-08
2.16442e-07
6.10937e-08
6.67887e-07
-0.00402271
-3.25236e-08
3.66763e-07
8.91394e-08
-3.92374e-05
5.3932e-07
-0.000764283
-0.0288388
6.70487e-08
4.21505e-07
0.00018015
1.72388e-06
1.27123e-07
-0.0988986
0.0483032
0.00706493
-0.0393638
1.77491e-07
2.47903e-06
-3.59884e-08
0.00196209
0.00526116
-7.92551e-06
1.78687e-06
1.03988e-07
0.000787897
3.64019e-07
1.2662e-07
1.08128e-07
-0.00696372
-2.3803e-07
-0.00349176
-1.76726e-07
-6.15307e-08
-3.61141e-08
0.000270011
2.07262e-08
4.99016e-08
-2.64985e-07
0.000937362
0.000427563
-0.000486988
0.000722361
2.81681e-07
9.27486e-08
9.33691e-08