/*--------------------------------*- C++ -*----------------------------------*\
| =========                 |                                                 |
| \\      /  F ield         | OpenFOAM: The Open Source CFD Toolbox           |
|  \\    /   O peration     | Version:  v2012                                 |
|   \\  /    A nd           | Website:  www.openfoam.com                      |
|    \\/     M anipulation  |                                                 |
\*---------------------------------------------------------------------------*/
FoamFile
{
    version     2.0;
    format      ascii;
    class       volScalarField;
    location    "850";
    object      p;
}
// * * * * * * * * * * * * * * * * * * * * * * * * * * * * * * * * * * * * * //

dimensions      [0 2 -2 0 0 0 0];


internalField   nonuniform List<scalar> 
9793
(
0.0596761
-0.347177
0.0301767
-0.298748
0.0231248
-0.290838
-0.158506
-0.472115
-0.00956489
-0.346913
0.0183676
0.0183604
0.0141181
-0.293479
-0.00655849
-0.0527964
-0.164284
0.0267241
-0.358774
-0.00477506
-0.0097324
0.0226788
-0.297137
-0.473745
-0.292213
0.0927632
0.0184971
0.0143364
-0.00466111
-0.199513
-0.523621
-0.343215
0.0261596
0.0227626
0.00648426
-0.0830943
-0.0481247
0.106821
-0.332069
-0.0849753
-0.186655
-0.384333
-0.400896
0.0142355
0.0321941
0.0277725
-0.45927
0.0204688
-0.0168453
0.0272294
-0.0823245
0.00622594
-0.117339
0.0204977
0.0999583
-0.302028
0.0133125
-0.193357
-0.0168555
0.0207148
0.117912
0.0993616
0.0282532
-0.0914634
0.0094444
-0.00846411
-0.465092
-0.0490734
-0.0483092
-0.372202
0.0437314
0.356011
-0.460786
-0.0597928
-0.371303
0.0178416
0.187777
-0.453196
0.0284788
0.0220032
0.199011
-0.361926
-0.157005
0.0305013
-0.0496825
-0.320803
0.0222429
-0.132883
-0.33121
0.119672
-0.300731
-0.418047
-0.419125
-0.104492
-0.395176
0.0236478
-0.373783
-0.153516
-0.0381939
0.0229255
-0.308362
-0.112319
-0.18562
0.0316335
-0.370489
-0.448442
-0.0371883
0.00929862
0.02867
0.0229091
0.0150127
-0.297929
0.509556
-0.540394
0.0427724
0.022666
-0.0356476
0.0270331
-0.306983
0.0285148
-0.360817
-0.142648
-0.369908
-0.130566
-0.0494339
0.0283863
-0.175155
-0.521634
-0.165933
-0.157891
-0.0497019
0.00807519
0.0577137
-0.0416406
-0.0771036
-0.2536
-0.32066
-0.0373325
0.017663
-0.181216
-0.365763
-0.0810832
0.0356598
-0.12286
-0.450493
-0.263201
0.0285392
-0.376609
0.00850363
0.0286461
0.0212515
-0.542582
-0.0351404
0.018812
0.0385534
-0.420041
-0.172134
0.0280085
-0.352357
0.0376354
-0.13184
-0.051791
-0.0095276
0.246808
-0.0261489
-0.435003
-0.224334
-0.0293307
0.00900466
0.0187158
0.036688
-0.540365
-0.523485
-0.320316
0.0137408
-0.280007
-0.0875632
0.221119
0.028669
-0.0498996
-0.370951
-0.453602
-0.144333
0.0280758
0.0265873
0.00889187
-0.368188
-0.465384
-0.509191
-0.175525
-0.00590409
-0.334875
0.427947
0.105816
-0.0181088
0.054343
0.50639
-0.00269652
0.0269152
0.0224176
0.0462521
-0.0116101
-0.0859129
-0.0594107
-0.328186
0.0420693
-0.0725116
-0.0303683
0.0497829
0.0248544
-0.173344
-0.370981
-0.00116558
-0.371477
0.0352748
-0.0466004
-0.00658528
-0.255311
0.0226339
0.246337
-0.161928
-0.0115802
0.367065
-0.304674
-0.0963925
0.0242229
-0.149389
-0.284298
0.230564
0.230633
-0.318477
-0.161166
-0.0488376
-0.0948668
0.430272
-0.0128138
-0.310636
-0.541037
-0.00244887
0.0230027
-0.376234
0.0328954
0.0151916
-0.197224
-0.214679
-0.00647831
-0.052209
-0.0771991
0.0445562
-0.0537235
0.0288912
-0.0827674
-0.320039
-0.0108072
-0.313794
0.0202735
0.0186637
0.000325746
-0.304709
0.0311522
-0.443157
-0.365773
0.0148174
0.0222761
-0.43511
0.000251274
0.021569
-0.000724841
-0.368905
0.263851
0.080994
-0.03801
-0.193551
-0.211858
-0.300272
-0.0306814
-0.390583
0.0197849
-0.283148
-0.201702
-0.324085
-0.362112
-0.165512
-0.0501378
-0.149041
-0.0571789
-0.0184933
-0.0323331
0.0191758
0.0957847
0.0223008
0.0132294
-0.00143887
-0.00381114
-0.0106244
-0.297984
0.00953298
-0.00446363
-0.00368891
0.0134703
-0.329085
-0.277147
0.289053
0.0745991
-0.128213
-0.00369237
-0.0275386
-0.532373
0.0314592
-0.368996
-0.0915787
0.0323707
-0.345528
-0.0383629
0.0257249
-0.0849196
-0.338172
0.0447977
0.179443
-0.00568725
0.0503819
-0.290456
0.0921952
0.0227857
0.0283018
0.0721279
-0.16021
0.494818
0.0304391
0.00924718
-0.0152061
-0.539428
-0.370662
-0.544947
-0.0124022
0.0885218
0.183634
-0.130378
-0.183079
-0.012697
-0.0145764
-0.0145755
-0.14321
0.0266296
-0.517401
0.0245671
0.00562618
-0.255664
-0.300403
-0.367204
-0.00380133
-0.312322
0.027096
0.249655
-0.505756
-0.319784
0.0176147
-0.0877626
-0.322144
-0.301418
-0.299147
0.120485
0.015004
0.0856344
-0.0158647
0.00866435
0.0274238
0.0180121
0.0129845
-0.525343
0.0186994
-0.177264
-0.0851062
-0.340657
-0.0124889
0.0280508
-0.302962
0.459212
-0.294945
-0.17614
0.0058737
0.0149891
0.0295183
-0.317394
-0.00204314
-0.366448
-0.0481557
-0.14873
-0.54149
-0.290526
0.0146879
0.0226818
-0.326141
-0.325771
0.0419452
-0.50703
0.0148325
0.0220173
0.0111239
-0.00119854
-0.198657
-0.0129332
-0.250132
0.0243125
-0.0264905
-0.279687
0.341585
-0.0556918
0.105537
0.0144167
0.0154748
-0.364057
-0.149241
-0.0100264
0.0235578
0.108159
0.180555
-0.0505575
-0.445713
0.0227002
0.0232169
0.181952
0.0142054
-0.320161
0.196002
0.0268288
0.0250688
-0.0313553
0.0146692
-0.014758
-0.310032
0.245199
-0.443786
0.135785
-0.0380376
-0.131032
0.103142
-0.307271
0.114151
0.0233078
-0.0510655
-0.264959
0.0408609
0.038646
0.0454303
-0.00182031
0.0204222
-0.00196811
0.0273561
0.0147006
0.0444673
-0.0569951
-0.193584
-0.0031883
0.497625
0.0935344
-0.0717882
-0.301561
-0.0188193
-0.2423
-0.153212
-0.0182986
-0.00197035
0.0344675
-0.353583
-0.198137
-0.00210116
0.0247206
0.0222084
0.271053
-0.0893264
-0.445007
0.0096953
0.0385414
0.151
-0.462487
-0.321669
0.0826282
-0.0436393
-0.313389
-0.426886
-0.25346
0.0412796
0.0068596
-0.330129
0.0257784
-0.11177
-0.338993
-0.0095925
0.247602
-0.0664903
-0.308582
0.0151438
-0.353615
-0.332377
-0.0522385
-0.422336
0.0243855
-0.11447
0.0249586
0.0212064
0.0184435
0.0269229
-0.372492
0.0236197
-0.0160869
0.0710935
-0.0124123
0.00727925
-0.0729
0.02967
-0.0945285
0.0127771
0.0129109
-0.305069
0.316622
0.0803235
-0.320245
-0.0545462
0.0320674
0.03099
-0.0153893
-0.543019
-0.0159453
0.0111377
-0.491125
-0.384062
0.0315701
0.0140007
0.0224583
-0.0228642
0.0200874
-0.309208
0.0467671
-0.137517
-0.0482864
0.395566
0.0217734
-0.468848
0.00243157
-0.186094
0.0272861
-0.0931585
-0.316751
0.0247707
-0.367415
0.0306806
0.0125218
-0.00923756
-0.367976
-0.327276
0.035623
-0.0708724
-0.0158807
-0.306654
-0.00307335
-0.0900317
-0.354768
0.108928
0.0106693
0.175621
0.01366
-0.024516
-0.0144353
-0.182376
0.0101166
-0.307237
0.0132539
0.0231991
-0.0911066
0.1814
-0.30731
-0.00369242
-0.460477
0.0219699
-0.114355
0.0358975
-0.0293206
0.0251887
0.0134631
0.0224599
-0.116881
-0.0536958
-0.371866
-0.246136
0.16758
0.0860402
-0.0172268
-0.0445373
-0.308413
-0.389117
-0.193538
-0.495049
-0.3351
-0.136211
-0.0250545
0.501366
-0.0875501
-0.0274781
-0.218737
0.0137634
-0.0264795
0.0288598
-0.274419
0.13207
-0.300404
-0.407618
-0.0893382
-0.264421
0.0228195
-0.194866
0.0774259
0.0270706
0.0296026
-0.0325354
-0.140417
-0.321898
-0.00927362
-0.435413
-0.0397
0.0546432
-0.306487
0.435575
-0.0414073
-0.171455
0.0509763
0.170565
-0.270683
0.026773
0.285577
0.184499
-0.403575
0.00931755
0.0869619
-0.374547
-0.0813236
-0.36497
-0.101842
-0.321987
0.0586577
-0.0457514
-0.00764686
0.0378399
-0.153446
0.0209955
-0.155842
-0.263933
-0.119565
0.0130997
0.0145716
-0.038028
-0.0228333
0.00621158
0.0335891
-0.234783
-0.347729
-0.291353
0.0149143
-0.283315
0.0144185
-0.393293
-0.120241
0.205663
0.177735
-0.326567
0.00340302
0.0212886
0.163659
0.0267051
-0.0213586
-0.175493
-0.298896
-0.0121013
-0.164351
-0.331968
-0.0558231
-0.288524
-0.337458
-0.00257746
-0.165332
-0.0552286
-0.0043912
-0.00861168
0.316588
-0.32881
-0.437928
0.0417284
0.0286341
-0.00641802
-0.0347216
0.0267013
0.0372635
0.318823
-0.116506
0.0148353
-0.418458
-0.086646
0.159642
-0.0212329
-0.530613
-0.0479671
0.0086552
-0.131821
0.511181
-0.0106865
0.0274125
0.0289895
-0.0493872
0.00328239
-0.0933589
-0.333244
0.0199166
-0.180069
-0.0394159
-0.0194622
-0.316305
-0.375942
-0.244561
0.0209058
-0.0115242
-0.250992
0.109602
-0.191389
-0.0102135
0.0316526
-0.538774
-0.144492
-0.079703
-0.197927
0.286382
0.0234311
0.0132076
-0.000317416
-0.38742
0.0110253
0.0131445
-0.302536
0.127501
-0.334391
0.171416
0.0136172
-0.369877
0.0195461
0.0336971
0.00103407
0.0795333
-0.299748
0.0184034
0.03166
0.0270203
0.0243735
0.0141654
-0.00742945
-0.504509
0.0852353
0.0450239
0.0177178
0.0945129
-0.180829
-0.05048
0.135351
0.0130492
-0.00637311
0.00463513
-0.323937
-0.298281
-0.0360253
-0.432975
0.0232473
0.0599059
-0.403752
0.494598
-0.00806454
0.0186912
0.418992
-0.14806
0.00838839
0.0217937
-0.313439
0.0128876
-0.178551
0.0255208
0.462318
0.0213187
0.00156874
0.0244204
-0.0598629
-0.0218044
0.0797828
0.116873
0.379281
0.00983204
0.0200405
0.0130823
0.0205765
-0.0254566
-0.0234768
-0.0876012
0.0248915
-0.133273
-0.290296
-0.136016
-0.182659
0.0228866
-0.0150302
-0.542156
-0.187733
-0.00826728
-0.291438
-0.518895
-0.0118032
0.0318292
0.0155487
-0.184831
-0.132324
0.503876
0.00901932
-0.017984
0.00797996
0.0510837
0.00124274
-0.106092
-0.0254914
-0.316804
0.0205534
0.0453376
0.0105282
0.0510407
0.0354092
-0.0549716
0.26202
-0.493856
-0.0566178
-0.290323
-0.143666
0.031908
0.0267846
0.508316
-0.143659
-0.0230289
0.0183377
0.49151
0.0151699
-0.299189
-0.0133103
-0.0739651
-0.0282161
0.0240431
-0.00794844
-0.36064
-0.382762
-0.299344
0.306362
-0.541894
0.0272944
-0.347539
-0.458044
0.0127806
0.0242292
0.00227868
-0.314404
-0.00904709
-0.435362
0.156948
-0.26046
0.00632614
-0.366207
-0.431417
0.51077
0.0654665
-0.0970312
0.0108687
-0.533695
-0.00969903
0.409252
-0.300853
0.148497
-0.417883
-0.36928
-0.0506854
-0.00172373
0.0100871
-0.0795131
-0.460704
-0.540652
0.00298551
0.332191
-0.0478681
-0.208985
0.364756
-0.300628
-0.297829
-0.0143751
0.0955344
-0.0885318
-0.0478614
-0.0389841
-0.297139
0.0217021
-0.479919
-0.00294105
-0.0136204
-0.163144
-0.208967
-0.303009
-0.0307016
-0.501545
-0.506105
-0.382805
0.123472
0.0131424
-0.0292974
0.0130458
0.0369687
-0.377656
-0.174451
-0.0115895
0.0366726
-0.0903849
0.486493
-0.0105512
0.0374713
0.449399
0.0284656
0.0239484
-0.0101609
-0.124196
0.0279762
-0.0539194
-0.295991
-0.180602
0.00274457
0.364259
0.361334
0.0280881
-0.0351786
-0.1049
0.0128145
0.0151702
-0.00334798
-0.504015
-0.0390337
0.0184755
-0.110182
0.19237
-0.19682
0.0414288
-0.361943
0.00876869
0.00336435
0.453639
-0.287744
-0.177896
0.0301658
0.0163096
-0.442115
-0.314192
-0.27031
0.298961
0.0179484
-0.0339474
0.0263278
-0.536354
0.075533
-0.251812
0.0715782
-0.00493963
-0.039153
-0.0016107
0.00868215
0.0307043
0.00532901
-0.35534
-0.000949799
0.0482127
-0.0106671
-0.0522334
-0.292745
-0.298358
-0.115853
-0.530504
0.0158907
0.0190526
-0.0437697
-0.355572
-0.0190257
-0.0140449
-0.184005
0.0955858
0.146051
0.0182979
-0.244415
-0.37311
-0.36411
0.0393902
0.170564
0.37934
-0.0801985
-0.398721
-0.254352
-0.167329
-0.00935531
0.0692164
-0.136368
0.160105
0.0156617
-0.0892346
0.00269592
0.022273
0.0312978
-0.000769691
0.0331206
0.0305237
0.327169
-0.0202965
-0.0304333
-0.0726987
0.00249026
0.0347279
-0.0749561
-0.36868
0.297464
-0.166257
-0.290665
0.0146342
-0.528677
0.015977
-0.539063
0.00684426
0.0237047
-0.0245801
-0.0461394
-0.540803
0.479754
-0.0848607
-0.0579965
-0.00568624
0.0247359
0.0202804
0.0233184
-0.508369
-0.0614821
-0.0191077
-0.27129
0.403591
-0.363466
-0.0282091
-0.190177
0.272574
-0.128384
-0.0842665
0.40774
-0.247839
0.0106869
-0.297836
-0.280912
0.207556
-0.35908
-0.135829
-0.0276146
0.0127272
0.0346988
0.0471971
0.122885
-0.522078
-0.142789
0.00681227
-0.325678
0.0136202
-0.332962
0.485674
0.014949
-0.517016
-0.000381961
-0.00835358
-0.0244875
-0.295232
-0.521345
-0.127679
0.152073
-0.0165991
-0.361005
0.0125388
-0.0529975
0.0177982
0.0542535
-0.0176321
-0.351574
0.048327
0.209955
0.0224797
0.0154994
0.212601
-0.24906
-0.0861825
0.0283141
-0.0488265
-0.35335
-0.262679
-0.0207898
-0.00186563
-0.0205666
0.0323205
-0.423977
-0.494211
-0.306473
0.0335017
0.00604753
-0.40623
-0.241605
0.0159508
-0.518882
1.10563e-05
-0.213709
-0.525907
0.00223616
-0.434338
-0.525541
-0.239141
-0.516457
-0.352945
0.0164502
0.0485048
0.278522
-0.3205
0.0457262
-0.530487
-0.0419521
0.0324125
0.0237801
-0.0431454
-0.12544
-0.0503774
0.401228
-0.510808
0.341761
0.165295
0.0113185
-0.107948
0.515787
-0.000239078
0.421928
-0.121144
0.0153185
0.0301177
0.0148719
0.0433058
0.14209
0.439929
-0.0335508
0.00568977
-0.54377
-0.305442
-0.153938
0.0212935
-0.167536
0.0339681
0.00858576
-0.34544
-0.440375
0.00922002
-0.00479135
-0.34534
-0.327488
-0.12518
0.0472679
-0.438165
-0.0369558
0.0116833
-0.0298657
0.00952171
-0.00568638
-0.00186164
-0.416029
-0.122202
0.033937
0.331971
-0.128007
-0.313192
-0.370424
-0.353598
-0.246639
0.0404412
0.0184723
-0.0303013
0.0109577
0.116828
0.0105469
0.348786
-0.0801669
-0.316272
0.024503
-0.302023
0.188514
-0.508625
0.00845278
0.407006
-0.0780494
-0.257019
-0.318954
-0.0594138
-0.00207037
-0.396567
-0.168113
-0.406934
-0.00767071
-0.346447
0.0248811
-0.45488
-0.285094
0.192083
0.0328104
0.026642
-0.317809
-0.437546
-0.0918206
-0.0118706
-0.251451
-0.119697
-0.139479
-0.0863616
0.197485
0.0257929
-0.191936
0.0349281
-0.0936517
-0.0130303
-0.45538
-0.0131907
-0.031119
-0.328694
0.515969
0.0237829
-0.180986
-0.0505864
0.130369
0.00961127
-0.237226
0.0880328
0.0123646
0.0318108
0.0109468
-0.323656
-0.0807335
-0.450078
-0.171087
-0.313596
0.0691358
-0.0130958
-0.00408594
-0.0589583
-0.113043
-0.0939398
-0.293712
-0.0406134
-0.125162
0.0659873
0.0236575
0.00393491
-0.147498
-0.31681
-0.530534
0.0339109
-0.308929
0.00824718
-0.369269
0.494146
-0.137044
0.0300192
-0.00743551
-0.127021
-0.424197
-0.0199675
0.0210307
-0.0350042
-0.138355
-0.0334569
-0.165876
-0.354943
0.426999
0.0242791
-0.0655718
-0.478019
0.0217489
0.283433
-0.00460926
-0.3825
0.052555
0.0324907
0.0739748
0.263968
-0.0220208
-0.263786
0.0331108
-0.258885
-0.0234399
-0.320975
0.10654
0.0219925
0.0541142
-0.510529
0.0303418
0.0498146
-0.183355
-0.0381358
-0.00971437
-0.462698
0.10336
0.425989
-0.0295186
0.186351
0.0302914
0.334349
0.0886572
-0.0462681
-0.247589
0.0397081
0.0208747
0.0171664
-0.0030578
-0.355665
0.469255
-0.11688
-0.0721483
0.0382225
0.00850937
-0.338779
0.0242789
-0.358882
-0.190519
-0.294452
0.0116219
0.00055859
0.00605248
-0.133479
-0.0476438
0.402373
-0.306387
-0.403709
-0.277661
-0.00154979
0.490921
0.00887205
-0.111275
-0.0389365
-0.126513
0.266496
0.0346928
-0.0043361
-0.138187
-0.00434503
-0.0808996
0.277095
-0.350322
-0.371653
-0.0674504
-0.341761
-0.00830668
-0.0126169
0.0138698
0.293483
0.154532
-0.135487
-0.226528
-0.438851
0.0691394
-0.0150879
-0.00588434
-0.0039324
-0.531754
-0.0164813
0.0863547
-0.00585161
0.0202565
-0.28879
0.38297
0.0135437
-0.206684
0.44031
-0.365639
-0.265708
-0.00898049
-0.110417
-0.119278
-0.428218
0.0105195
-0.363916
-0.543201
0.0911242
-0.0459276
-0.00672806
0.0628034
-0.0171245
0.0308025
-0.296224
0.014769
-0.00838378
-0.298499
-0.104746
-0.311183
-0.308357
0.451475
-0.301164
-0.0134692
0.0334673
0.015795
0.0219279
-0.356483
0.0048708
-0.30525
0.012333
-0.444174
0.100367
0.051783
0.00046747
0.0558868
0.0700343
-0.0219211
-0.0092557
-0.306374
0.0107536
-0.110129
0.0457753
-0.524371
0.100872
0.0268888
-0.0218482
-0.160281
0.0105233
0.00384726
0.021519
0.0236338
-0.0331208
0.0168254
0.00066697
0.159173
-0.209266
-0.509026
-0.445747
-0.336931
0.00424202
0.0112212
0.0381538
-0.00553109
0.0333368
0.00160808
-0.112609
0.0196099
0.0155344
0.0137509
0.0249096
-0.00647252
-0.525233
-0.0341559
0.0156725
-0.534298
-0.119789
0.00174851
-0.538903
-0.470361
0.0147303
-0.230366
-0.11809
0.0141332
0.235759
0.0916109
-0.0036954
0.0239683
-0.00310007
-0.0671673
0.0112292
0.0198319
0.00217579
-0.440909
-0.0547334
0.138389
0.0114757
0.017344
-0.425943
0.112468
0.015289
-0.0178059
-0.0311375
0.0152231
0.21042
-0.542048
-0.403535
-0.295296
0.364253
0.0880807
0.0145273
-0.476604
-0.273893
0.00926251
-0.175004
0.0212297
0.0299596
0.0193259
-0.303461
0.071773
0.0158865
0.0242718
-0.278525
0.00134302
-0.0820344
0.0331293
0.316574
-0.307279
-0.30895
0.0266261
0.0776503
0.159507
0.0705683
0.00810958
0.109278
0.333626
-0.324759
-0.0018029
0.285172
-0.431276
-0.00889231
-0.345955
0.127794
0.367675
-0.223837
0.0333873
0.00701571
-0.122695
0.000811967
-0.0551648
-0.00423753
-0.187517
-0.426181
0.0809103
0.00655618
-0.263302
0.315995
0.453937
0.114858
0.00677601
-0.0767227
0.0330612
0.0318303
-0.124028
0.146642
-0.525566
0.0100763
0.363341
-0.00213161
-0.40064
-0.290569
-0.315812
-0.00185801
0.0734091
0.504813
0.451695
0.183889
-0.300675
-0.0326986
0.150581
0.0105428
0.0186596
-0.305859
-0.222966
-0.0362377
0.0239198
0.0927726
0.415737
0.362636
0.127692
0.0046269
0.01651
0.00202375
0.435425
-0.426123
-0.00229499
-0.125661
-0.296272
-0.202888
-0.232118
-0.305143
-0.537849
-0.269821
-0.00253727
-0.0310721
-0.329317
0.0166296
0.135913
0.378542
-0.540735
0.0859903
0.152411
-0.29937
0.442449
0.357368
-0.4133
-0.33991
-0.307484
0.017133
-0.0017751
0.0303486
-0.0341303
-0.510065
0.264544
0.351607
0.139462
0.142902
-0.0140683
-0.116553
-0.0123779
-0.0897872
0.0117248
0.129905
-0.531719
-0.438847
0.0121135
-0.00651825
-0.0592543
-0.179273
-0.273126
-0.537594
0.209407
0.0125042
0.322007
-0.00608539
0.33768
0.166931
0.0350988
-0.14197
0.324012
-0.355247
-0.108809
0.0124218
-0.0109379
-0.470978
0.107316
-0.0046833
0.0244097
0.0235332
0.00118515
-0.528823
-0.414174
-0.339567
0.488054
-0.54146
-0.0364798
0.0341606
-0.306228
-0.054357
-0.0653206
-0.34959
0.00811048
-0.427878
-0.34204
-0.16915
0.155095
0.361369
0.0291593
0.508484
-0.0540233
-0.299884
0.0115255
0.0213636
0.0617447
0.518135
-0.250022
0.20441
-0.537481
-0.269593
0.306582
-0.267218
0.403688
-0.0359477
0.447541
-0.444491
-0.00241646
0.17236
-0.340058
-0.0863861
0.0648594
0.0173432
-0.114419
-0.11645
-0.121237
0.0202418
-0.363426
0.300683
-0.299735
-0.53732
-0.340487
0.0828968
0.474085
-0.367463
0.00750807
-0.0370114
-0.123081
-0.364092
0.0124971
0.097482
-0.292497
-0.435306
-0.00730744
0.395212
0.00390794
0.0129892
0.477222
0.110608
-0.306363
-0.300139
-0.360641
-0.35741
-0.00157868
-0.109568
0.0494626
0.00724889
0.351476
-0.167078
-0.0718849
0.517052
-0.309072
0.0199745
-0.0699612
0.420368
-0.0453327
-0.08604
0.242655
-0.320428
-0.320115
-0.344026
-0.382543
-0.533365
-0.302183
-0.318648
-0.340871
-0.0398571
0.100971
-0.0365367
0.00228536
-0.295603
-0.353092
0.0152714
-0.00145927
-0.534851
-0.299283
-0.0530933
-0.53268
0.0393156
0.44465
-0.358123
-0.193911
0.0112876
-0.300267
0.496913
0.00790949
0.048231
-0.441887
-0.422115
-0.440874
-0.391219
0.0138206
-0.455384
-0.310989
0.171538
-0.204783
0.327487
0.00273655
-0.0649041
-0.301588
-0.360803
-0.0456215
0.0122319
-0.294802
0.324365
-0.341938
-0.169415
-0.0624616
-0.317287
0.0301183
-0.459092
0.0129047
-0.0712595
0.0376915
-0.00280943
0.00200902
-0.0655473
0.0307522
-0.00479595
-0.467287
-0.0919542
-0.389717
-0.536638
-0.302249
0.0101785
-0.363629
0.505726
-0.309003
0.0369022
0.0353845
-0.453799
-0.340569
-0.35252
0.253781
0.0878741
0.00140789
-0.463918
-0.539677
0.0546644
-0.44288
0.159306
0.02675
-0.304352
0.262144
-0.504573
-0.0127021
-0.0433527
-0.303655
-0.450388
-0.321901
-0.253675
-0.322019
-0.311261
-0.40093
0.0238554
-0.540471
0.0499556
0.0147884
-0.00804179
0.0344359
-0.541813
0.25149
-0.321036
-0.325158
-0.0638016
0.325315
-0.0620161
-0.332223
0.388464
-0.466851
-0.536371
0.483721
0.0824766
-0.00864272
-0.251307
0.174246
-0.0621496
-0.306573
-0.366901
0.452846
0.0263982
-0.0422643
0.211681
0.0156569
-0.0125856
-0.0509701
-0.320295
-0.0440198
-0.0346036
-0.303307
-0.100044
-0.303108
-0.436847
-0.315505
-0.335041
-0.343786
-0.523326
-0.331851
0.203854
-0.0960655
0.0490311
0.494504
-0.215893
-0.304855
0.292187
0.280835
-0.00384795
-0.283832
-0.344864
-0.0442799
-0.0016582
-0.0416295
-0.413005
0.0121811
0.0261262
-0.152987
-0.312791
-0.0537093
0.199481
0.0462384
0.143476
-0.141687
0.0147652
0.0226663
-0.0963765
-0.285128
0.0411963
-0.0520803
0.350624
-0.341617
0.0508735
-0.484016
0.00191901
-0.318739
0.0830092
0.0802813
-0.00402888
-0.28646
-0.0744717
-0.533473
-0.544704
0.296121
0.0235994
-0.0231389
-0.373265
-0.419743
-0.0194302
-0.233927
-0.32495
-0.147701
0.310011
-0.00571932
0.0207015
0.0319876
-0.305553
-0.123572
0.0164082
-0.495433
0.0270183
0.252935
-0.299513
0.00284502
0.181461
-0.162002
-0.533401
0.0613596
0.116545
0.0864827
-0.151525
-0.00507767
0.0222342
-0.335833
-0.312951
-0.197855
-0.00353135
-0.348884
0.0432872
0.0293587
0.00972156
-0.362856
-0.486737
-0.0326772
-0.443708
-0.417524
-0.156272
-0.301318
-0.410552
-0.532522
-0.404898
-0.125887
-0.118523
-0.308617
-0.137872
0.00964783
0.151687
-0.0828588
-0.51685
0.0215696
-0.37119
0.030963
0.430835
-0.199974
-0.00223305
-0.00351167
-0.474142
-0.525873
-0.295767
-0.303583
0.0066338
-0.0871351
-0.474646
-0.067165
-0.428203
0.186005
0.340391
-0.33524
-0.041299
0.0134148
-0.246996
-0.271002
0.0364634
-0.312308
-0.399009
0.00138153
0.0190234
0.0117515
0.0145273
-0.534118
-0.0233202
-0.133299
0.015109
-0.0305206
0.166734
0.0345191
-0.302602
-0.217279
0.012639
-0.00482157
-0.244146
-0.0405083
0.265158
-0.530105
-0.52836
-0.0833584
0.419467
0.162206
-0.00412282
-0.263561
-0.533626
-0.0217655
-0.316266
-0.323095
0.287553
-0.0643352
-0.0418933
-0.187432
0.100292
-0.455746
0.0220086
0.00450149
-0.0192722
-0.363369
-0.453345
0.0818041
-0.0594719
-0.0151374
-0.0463924
-0.165314
-0.320745
0.0306023
-0.0948655
-0.353137
0.329286
0.0298046
0.0371763
-0.524558
-0.533107
0.0326093
-0.381469
-0.0738711
-0.293077
-0.228637
0.0123399
-0.297065
-0.0786009
0.0114701
-0.298774
-0.297502
0.0308807
0.0240153
-0.313316
0.0023109
0.0236
-0.134243
0.201703
0.221506
-0.474736
-0.0534555
-0.0709884
-0.348518
0.00242749
-0.378469
-0.470473
-0.052361
-0.0979835
-0.267359
0.0482015
-0.272765
-0.00456824
-0.282482
0.441307
0.0163272
-0.348518
-0.365199
0.0393424
0.0430732
0.456973
-0.0715512
-0.298746
-0.301318
0.0261128
-0.120977
-0.520922
-0.0355819
-0.129361
-0.124883
0.0655492
-0.302561
-0.260854
-0.0331166
-0.31079
-0.424428
0.235244
-0.0423198
0.0109204
-0.00360674
0.0168931
0.215181
-0.343734
0.0119058
-0.070544
-0.494279
-0.35213
0.0223569
-0.0353241
0.46862
-0.309085
0.0225636
-0.383004
-0.102587
-0.193073
-0.107994
0.00550431
-0.0574906
0.0429696
0.0311517
-0.337964
0.00913814
0.258166
0.0277322
-0.385457
-0.0320795
-0.0313173
-0.00439969
-0.0464241
0.0194219
-0.124008
-0.540641
-0.217565
-0.0769419
0.22601
0.0104037
0.14591
-0.158791
-0.249549
-0.536456
0.00680067
-0.40432
0.0263296
0.51155
-0.304179
-0.544902
0.00726341
-0.0660379
-0.177183
-0.489884
0.42701
0.0169728
-0.230739
0.321355
0.197832
-0.131375
-0.026784
0.0501189
0.120796
-0.340133
0.0395408
-0.344925
0.179938
-0.4306
0.32005
-6.43339e-05
-0.267989
-0.00427661
0.0394208
-0.291975
-0.00216388
0.411579
-0.437824
-0.242718
0.124101
0.343377
0.0414402
-0.216305
-0.123835
-0.389804
0.0494236
-0.0117496
0.00256524
-0.0402828
-0.124717
-0.303823
-0.0185544
0.191189
0.371601
0.00927276
-0.0154652
-0.353398
-0.209483
0.0377356
0.0193116
-0.0292386
-0.30184
0.0520589
-0.0691465
-0.286141
-0.178122
0.0469572
0.337709
-0.183046
0.0272084
-0.0128061
-0.238978
0.500197
-0.121977
-0.105623
-0.347503
-0.303258
-0.213546
0.0130463
0.0548105
-0.0132417
0.101753
-0.260053
-0.166788
-0.0737771
-0.178483
-0.399087
0.0950232
0.0297503
-0.534671
0.0450772
-0.298188
-0.24406
0.00844262
0.0907612
0.0522897
0.000741093
0.025871
-0.127047
-0.00866196
0.0778533
0.00591766
0.015424
0.0244518
0.0322547
0.167694
-0.071432
-0.0227612
0.0333829
0.0151296
0.0741057
0.063901
0.410326
0.0276468
0.0863911
0.477055
-0.0119691
0.0193199
0.0607496
-0.073829
-0.526706
-0.532724
-0.308504
-0.33396
-0.212033
-0.274522
0.0184101
-0.163812
0.00850812
-0.335526
-0.0324514
0.0571473
0.0577255
-0.160242
0.0222674
-0.0921605
0.00559859
-0.295269
-0.278666
0.0156545
-0.376575
-0.229275
-0.0267249
-0.0761227
0.0262569
-0.00685617
-0.541272
-0.0244273
-0.180164
-0.295867
0.0259003
-0.00756794
-0.195585
-0.335106
0.105224
-0.0445263
-0.300133
0.0237203
-0.366057
-0.153252
-0.491727
-0.00188116
-0.308467
0.0340742
0.0242178
-0.28884
-0.166328
-0.367783
-0.326606
-0.535956
-0.299943
-0.119076
-0.242923
0.0124521
-0.125073
-0.0243166
0.00713052
0.334
0.021659
0.0302255
-0.00598476
-0.00145117
-0.104864
-0.139768
-0.306193
-0.284751
-0.368257
-0.0449845
0.14592
-0.0377136
0.0318295
-0.182696
0.0176992
-0.0168283
0.00913359
-0.0469431
0.0820761
0.377348
-0.089536
-0.13605
0.0233915
0.268462
0.270859
-0.36306
-0.49574
-0.0428339
-0.119018
0.0263927
-0.502685
-0.29382
0.0317096
0.0105816
-0.0242492
0.0239878
-0.170219
-0.303271
-0.482439
0.0528506
-0.0452286
0.0205976
-0.315692
-0.152211
0.00587238
-0.0378157
-0.217934
0.11924
-0.0454318
-0.0840582
-0.209689
-0.35007
-0.0174346
0.0102109
0.0567334
-0.049709
0.0179463
-0.335021
-0.00827193
0.0446407
-0.00530841
-0.541793
-0.096896
0.038667
-0.378257
-0.502354
-0.280161
0.0104705
-0.0777618
0.437406
0.0158268
-0.468451
-0.305364
-0.0661512
-0.0894086
-0.013821
-0.542342
0.00458119
0.0123864
-0.00397551
-0.00207721
-0.00327446
-0.360234
-0.0303181
0.0278711
0.0773641
-0.317343
-0.0248692
0.000907802
0.0119129
-0.401462
-0.296922
-0.467258
-0.316872
-0.0840006
0.0405036
0.0960765
-0.138071
0.36189
0.0279298
-0.114275
-0.0263173
-0.130158
-0.0167305
-0.306298
-0.488318
-0.0793128
0.0121266
-0.0292932
0.0316608
-0.0116641
0.0327907
0.0250994
-0.0218781
0.343525
0.021176
-0.140102
0.0703859
0.0175317
-0.54243
-0.0790602
-0.0282954
0.0064623
-0.311317
-0.00974979
-0.00310085
-0.00622281
0.00610424
-0.233546
-0.0839891
0.0120079
0.232591
0.00241778
-0.074047
-0.0171514
-0.240212
0.00908258
0.0306341
-0.342989
-0.034753
-0.248758
-0.102785
0.0874227
-0.137267
-0.00492727
0.023825
0.0229201
-0.448539
-0.0479591
0.0369431
0.498561
0.015245
-0.00418722
0.00859126
-0.38084
0.126256
-0.150171
0.173327
0.141058
0.252838
-0.0196294
-0.00321896
0.245928
-0.32788
0.0390419
-0.00988162
-0.000722502
-0.059405
-0.281657
0.00795954
-0.0463957
-0.299883
0.138465
-0.00819296
-0.510893
-0.00119736
0.0778162
-0.299024
-0.0758685
0.0268592
-0.0556745
0.0360377
-0.0329566
0.0109419
0.0165242
0.00341549
0.0100038
0.0117254
0.16445
0.0431127
-0.222456
-0.0112451
0.090795
0.0365105
-0.0485109
-0.306842
0.00878823
-0.0181927
0.336201
-0.0334401
0.00696411
-0.219725
-0.411198
-0.296827
0.0512623
-0.0176962
-0.0777028
0.0235464
0.020199
-0.104652
0.100818
-0.00373763
0.161546
0.0475435
0.0156165
-0.0126606
-0.00493947
-0.0378782
-0.128051
-0.103985
-0.0709294
-0.342652
-0.0392001
0.0263215
-0.00742847
-0.290863
-0.00305458
-0.295058
0.0477252
-0.14499
-0.0437937
0.035942
0.023271
0.141603
-0.326557
-0.303972
-0.0223991
-0.0740473
-0.3855
0.075306
-0.285703
-0.473155
-0.336721
-0.0772576
0.0481167
-0.116587
-0.117096
-0.0367059
-0.459814
-0.35298
-0.331384
-0.0281648
0.0144302
0.0386182
-0.234374
-0.00952612
-0.00124426
-0.112242
0.0318506
-0.0139646
0.00850867
0.250128
-0.0154905
0.00466032
0.0227467
-0.313619
-0.00923317
0.0506752
0.0223259
-0.0320986
0.0093607
0.307674
-0.102546
-0.346126
-0.0121401
0.000815933
-0.149537
-0.542135
-0.346152
0.0274576
0.0167084
0.202013
0.331364
0.0130811
0.388602
0.0340324
-0.000116319
0.0182607
-0.315401
0.00356552
0.0366506
-0.0794751
0.0435603
-0.0231299
0.0150301
-0.157456
-0.0105576
0.0667847
0.014676
0.0457685
-0.114889
-0.0199521
0.0166581
-0.060552
0.087162
-0.0397033
-0.0185441
-0.317109
-0.361033
0.017167
-0.199582
0.0204561
-0.0404649
-0.179159
-0.285804
-0.00813346
0.0187744
0.053262
0.406231
-0.0363975
-0.0275747
0.0303419
0.0231296
-0.0134145
-0.0214077
-0.0840909
-0.0234128
0.182868
0.243023
-0.11334
0.0352121
0.464674
0.00891797
0.0162452
-0.531569
-0.315064
0.00849314
-0.00441874
0.0275783
0.0474825
0.0346692
-0.0115016
-0.00139981
0.0270953
-0.461291
-0.312327
-0.0696635
0.0424294
-0.355055
-0.0284812
0.00178323
-0.541036
-0.043877
-0.00803205
0.0266263
0.0260806
-0.0751658
0.0162108
0.0142749
0.036106
0.00504172
0.0456447
-0.0989973
-0.108924
0.0153497
-0.111021
-0.310122
0.081788
0.0213364
0.283411
-0.00661974
0.0103188
0.0171708
-0.0797462
0.0158359
-0.473052
0.0434343
0.423345
0.500152
-0.146569
-0.0403676
-0.0268843
0.0198276
0.0320655
-0.0301647
-0.263447
-0.244547
0.00827963
0.0927638
-0.528048
-0.0118727
0.0264696
0.0178974
-0.0303348
-0.0665867
0.117809
0.0142089
-0.0673178
0.0639988
0.188253
-0.302747
-0.375053
-0.0214075
0.0105643
0.170121
-0.0302355
0.0259702
-0.148227
-0.0363238
-0.156018
0.00487852
0.297604
0.011537
0.308055
-0.14153
-0.314753
-0.541931
0.0163772
-0.11696
-0.0593337
-0.298827
-0.00740904
-0.0171809
-0.252832
0.0328595
-0.0154413
0.00255227
-0.00656759
0.0554283
-0.0667567
-0.526476
0.014183
-0.083948
0.0146277
-0.00661632
-0.00329078
-0.300714
-0.16212
0.0350543
0.0560742
0.0143852
-0.542188
0.00715974
0.0440003
0.0681655
0.0463273
0.152015
0.00672543
-0.33429
0.0221738
-0.0325644
-0.0276578
0.0231828
-0.0036616
0.0193336
-0.445516
0.00494472
0.0444429
-0.314199
-0.0127518
0.028024
0.0202218
0.0238722
-0.160439
0.0327809
0.0280816
0.450123
-0.0417038
0.0124895
0.061983
-0.0104752
-0.330883
0.0790235
0.053794
0.0317113
-0.0676801
0.0232773
-0.368179
0.00520971
0.0240149
-0.425591
0.0100755
-0.157924
0.0589499
-0.00528522
-0.00920939
0.155171
-0.0130177
0.01569
0.0194592
-0.0452911
0.0319036
0.0261835
0.050746
-0.0213411
-0.0170645
-0.0176217
-0.310554
0.023351
0.0145951
-0.360515
0.0434353
-0.0716595
-0.254807
-0.310139
0.0108359
0.0481286
0.0269874
-0.00379526
0.0793469
-0.116607
0.074176
-0.0597992
0.00129968
-0.0472263
0.0119029
-0.00502613
-0.0395326
-0.121849
0.048943
-0.0389474
0.014048
0.0260166
0.0119935
-0.353781
-0.0357908
0.0190262
-0.400153
-0.0298623
-0.0749121
0.0274071
0.0240566
-0.00297171
-0.300926
0.00854839
-0.00387813
-0.03716
0.0273105
0.0311799
0.0268462
-0.0183272
-0.0525036
0.0325657
0.174367
0.0187468
-0.119371
-0.00965847
-0.00374567
-0.0466363
-0.362974
0.020159
0.0277401
0.0717282
0.041381
-0.0495976
-0.289337
0.0737596
0.0895235
-0.299738
-0.240406
0.0694853
-0.0325361
-0.110667