/*--------------------------------*- C++ -*----------------------------------*\
| =========                 |                                                 |
| \\      /  F ield         | OpenFOAM: The Open Source CFD Toolbox           |
|  \\    /   O peration     | Version:  v2012                                 |
|   \\  /    A nd           | Website:  www.openfoam.com                      |
|    \\/     M anipulation  |                                                 |
\*---------------------------------------------------------------------------*/
FoamFile
{
    version     2.0;
    format      ascii;
    class       surfaceScalarField;
    location    "850";
    object      phi;
}
// * * * * * * * * * * * * * * * * * * * * * * * * * * * * * * * * * * * * * //

dimensions      [0 3 -1 0 0 0 0];
oriented        oriented;


internalField   nonuniform List<scalar> 
14470
(
-0.116747
0.254651
-0.137903
-0.00572761
0.00642147
-0.203533
-0.20116
0.404778
-0.00431988
-0.000650212
0.00497009
-0.365287
-0.213336
0.578797
0.0971888
0.0488243
-0.146011
-0.168586
0.0849979
0.0835916
0.00694698
-0.00688054
-6.64473e-05
-0.19591
0.353421
-0.157531
0.703288
-0.371054
-0.332108
0.318636
0.384761
0.651172
-0.405929
-0.245448
0.0145886
0.000381842
-0.014972
-0.0329714
-0.340362
0.373569
-0.22637
-0.0653935
0.291877
0.0991571
0.115362
-0.214499
-0.243366
0.468827
-0.225665
0.00288838
-0.00573787
0.00284951
-0.531088
0.0803836
0.45068
-0.524924
0.359045
0.165816
0.322032
0.274983
-0.00492637
0.00879848
-0.0038721
0.000956144
0.00599084
0.0124437
0.00214317
0.212915
-0.0883346
-0.124577
-0.0892255
0.481953
-0.392745
-0.568421
-0.0345264
0.602779
-0.46935
-0.0617474
-0.0628727
0.158691
-0.0958149
-0.0151284
0.0164358
-0.00130741
0.0663953
0.0766615
-0.143057
-0.253911
-0.188751
0.4429
-0.525739
0.343206
0.182569
0.573298
-0.587238
0.0138434
0.277823
-0.199505
-0.078283
0.184401
-0.345453
0.161041
-0.225381
0.157813
0.0675841
-0.0140174
0.0122135
0.00180356
-0.0382883
-0.17255
0.210857
-0.173163
0.110293
0.0889489
-0.100879
0.0119312
-0.00808844
0.00259364
0.00549488
-0.612698
0.0443328
-0.458752
0.320183
0.13854
0.542503
-0.287739
-0.254841
-0.0129076
0.0148217
-0.00191413
0.597313
-0.354686
-0.242509
-0.494801
0.204373
0.29026
-0.454942
0.211405
0.178363
0.0995115
0.160634
0.412473
-0.102981
-0.0977267
0.200727
0.347549
0.249892
-0.0397599
-0.123119
0.162884
-0.00578037
0.00146051
0.389363
-0.57347
0.183834
-0.190708
0.11895
0.0717598
-0.29668
-0.19826
0.242329
-0.0888678
0.176412
-0.0875353
-0.127875
0.0888428
0.0390317
0.275213
0.154674
-0.429836
0.0842808
-0.238894
0.15464
-0.651355
0.329794
0.320993
-0.371194
0.175255
0.0134028
-0.0134028
0.309438
-0.179931
-0.129455
-0.336457
0.213759
0.122705
-0.00247857
0.0045397
-0.00206084
-0.0487946
0.254631
-0.205821
-0.0649213
0.0435153
0.0214055
0.0105276
-0.00252948
-0.00799814
0.0331935
0.0553295
-0.0885039
-0.0173181
0.00102158
0.0162962
-0.510987
-0.0201967
0.531293
0.0724274
0.0584493
-0.130874
-0.0012603
0.0572689
-0.0560082
-0.203086
0.420993
-0.217836
0.290643
0.288157
-0.578728
0.0973159
-0.0248878
0.00638765
-0.00349922
-0.0993149
0.198486
-0.134167
0.29405
-0.159855
-0.152046
0.0834175
-0.15251
0.0690938
-0.272057
0.562924
-0.0847184
-0.135373
0.22015
-0.0137226
-0.000295311
-0.0945964
-0.033278
0.00204437
0.00551939
-0.00756372
-0.144349
0.0965827
0.0477668
-0.0634175
-0.080931
-0.18151
-0.0268579
0.208381
-0.00483819
-0.00325016
-0.241972
0.485171
-0.243268
-0.016987
-0.000331169
0.096791
-0.189252
0.0924737
-0.124251
0.26455
-0.14026
-0.634115
0.268971
0.00661055
-0.0162327
0.00962194
-0.20245
0.0994966
-0.0259422
0.0444731
-0.0185145
-0.241219
-0.217557
-0.00406017
0.00804231
-0.00398016
0.000520068
-0.0323297
0.0318099
-0.0769439
0.110155
0.197698
0.317385
-0.515127
0.207484
-0.410539
-0.311963
-0.246453
-0.276023
0.522529
-0.00823668
0.00331033
-0.00517612
0.0104623
-0.00528617
0.0134987
-0.0140367
0.000538049
-0.270695
0.221902
-0.639424
0.226685
0.413014
-0.405609
0.187314
0.218376
0.279199
-0.502103
0.222718
0.00497262
-0.000241127
-0.00473151
-0.415218
0.0273401
0.38785
-0.00234057
-0.00653397
0.00887609
0.12946
-0.214129
0.00900948
0.0186666
-0.0276752
-0.234576
0.138815
0.0957775
-0.209249
-0.136218
0.0449348
-0.460217
-0.0532367
0.183098
-0.129848
-0.0144378
-0.000690558
0.169367
-0.0363649
-0.132999
0.0339184
0.135452
-0.148031
0.278337
-0.130336
-0.0860742
0.414066
-0.327958
-0.246923
0.130174
0.185995
-0.302942
0.117002
0.0807003
0.174797
-0.255472
0.156434
-0.120587
-0.0358442
-0.160487
0.108341
0.0521462
-0.133654
-0.27189
0.116082
-0.627031
-0.0606642
0.14505
-0.084377
0.00692565
-0.00208272
-0.00484278
-0.118771
-0.0662439
0.312015
-0.245906
-0.223052
0.131173
0.0919247
0.0130693
-0.0109422
-0.00212708
0.122039
-0.0798057
-0.0422333
0.357038
-0.464508
-0.0127265
-0.00426054
-0.364478
0.278388
0.401926
0.603852
-0.299802
-0.303938
-0.000182212
0.010269
-0.0100868
-0.291328
0.167106
-0.419178
0.329921
-0.11829
-0.215115
0.333426
0.0759674
0.0471361
-0.123103
0.17131
-0.0559336
-0.18057
0.455733
0.122701
-0.0563061
0.245363
-0.384341
0.139009
0.0874783
-0.222802
0.140623
-0.288643
-0.148226
-0.376757
-0.0576113
0.0537335
0.00387793
0.381823
-0.179525
-0.202365
0.0900639
-0.0913237
-0.0232748
0.0314506
-0.00815799
0.35252
-0.200479
-0.152082
0.322735
0.193681
-0.516661
0.671824
-0.348208
-0.32369
-0.274982
0.208679
0.0121727
0.000247201
-0.0124199
0.0182847
-0.0253934
0.00710866
-0.0342105
0.0277427
0.00646988
0.266975
0.384012
-0.0723074
0.1695
-0.0492672
0.125696
-0.0764274
0.0286263
0.0221974
-0.0508236
-0.225251
-0.221906
0.447185
0.315742
-0.186875
-0.128824
-0.0175545
0.0134965
0.000161748
0.212148
-0.082646
0.209853
0.332568
0.510718
-0.251904
-0.258929
0.520297
-0.046125
0.0551356
0.00945357
0.00107403
0.0663271
-0.0480423
-0.0445285
0.0186034
0.170916
-0.382951
0.212015
-0.00380469
-0.0100548
0.0138594
-0.0293063
0.0275082
0.00179808
0.0716907
0.109345
-0.181029
0.259596
-0.429489
0.169831
0.257821
-0.131497
-0.126313
-0.00562172
0.0117715
-0.00614975
-0.115939
0.435296
-0.319648
0.330097
0.138578
0.254757
0.302726
-0.55756
-0.350786
0.235493
0.115281
-0.46279
0.383428
0.0793409
0.121329
-0.280782
0.159504
-0.138068
-0.131105
0.269194
-0.00592924
0.00183316
0.00409607
-0.148666
0.311465
-0.162839
0.134859
0.0846229
-0.21946
0.184217
0.168274
0.302868
-0.172203
-0.130655
0.0413943
-0.0792643
0.0378702
0.110659
0.00170844
0.00521735
0.183291
0.253409
-0.436867
-0.00170385
-0.000774497
-0.270494
0.136359
-0.184031
-0.0781021
0.262173
-0.306922
0.274086
0.0948343
0.0616017
-0.37435
-0.264852
0.0767293
-0.110681
0.0339507
0.172776
-0.0759704
-0.362841
-0.0999769
-0.00993615
-0.0282884
0.0382245
0.0391559
-0.0335148
-0.00563128
-0.153782
-0.0277197
0.25696
-0.482671
0.225628
0.223559
-0.123148
-0.100389
0.0137164
0.028924
-0.0426369
0.10175
0.00958819
-0.11134
0.0832569
0.0184927
0.00484561
-0.00760989
0.00276422
-0.195077
0.16323
0.0318527
-0.297383
0.11341
0.215993
-0.131685
-0.0334068
0.00410043
-0.453283
0.274466
0.178647
-0.0101474
0.000882252
0.0126164
-0.410619
0.294302
0.276767
0.278637
-0.555383
0.0936363
-0.00468654
-0.148156
-0.219783
0.367916
-0.506222
0.259853
0.220859
-0.112876
-0.107978
0.20703
-0.132165
-0.074857
-0.200305
0.230471
0.0853065
-0.0752026
0.210076
0.122446
-0.165943
0.0435078
-0.103931
-0.161359
0.265306
0.195808
-0.0482972
0.169939
-0.121635
-0.00305935
0.0018418
0.00121756
-0.556688
0.193782
-0.0396336
0.0126294
0.0270097
0.529421
-0.181694
0.393568
-0.635854
0.241964
-0.0105425
-0.392326
0.40271
-0.000807774
-0.229468
0.409918
-0.180471
0.118531
-0.0425634
0.000419909
-0.00101284
0.00059344
-0.332122
-0.258514
0.590789
-0.587979
0.213701
-0.0453966
0.140513
-0.0951165
-0.488961
0.477814
-0.284439
-0.27227
0.556917
0.56458
-0.568107
0.0028292
0.00095615
-0.000536162
-0.0220361
-0.0355751
0.125823
-0.212014
0.0861764
-0.0533942
-0.0428762
0.0962705
0.128553
-0.190525
0.0619751
0.0212146
0.0112559
-0.00669347
-0.00456241
-0.382356
0.181879
-0.00424908
-0.00826761
0.0125167
-0.20284
0.563813
-0.361347
0.0408437
-0.0271268
-0.0101479
-0.0392679
0.0494158
0.0197553
-0.0112007
-0.00855541
0.00570275
-0.0463903
-0.148681
0.147741
0.130565
0.0970794
-0.196379
-0.258232
0.120171
-0.454824
0.300396
0.15445
-0.289403
0.0256449
0.26372
0.0874806
-0.0460863
0.157021
0.0558956
-0.189334
-0.398616
0.62595
-0.348151
-0.277853
0.403113
-0.22007
-0.636248
0.37754
0.258452
-0.197686
0.00797904
-0.00152112
-0.00645793
-0.0856804
0.477591
-0.39211
0.460387
-0.268937
-0.19123
0.563102
-0.463803
-0.0994178
-0.102409
0.491564
0.00340711
-0.00436239
0.000955272
0.0675118
0.0545282
0.025281
-0.0770953
0.0518134
-0.289593
0.19073
0.0988889
-0.0628267
-0.160182
-0.0336514
-0.0563308
-0.0971766
0.153523
-0.00178346
0.00160129
0.177185
-0.418428
0.00596869
-0.00698144
0.139912
-0.250827
0.11094
-0.0484857
0.368692
-0.00572761
-0.133261
0.189868
-0.443526
-0.160787
0.112499
0.00196947
-0.0546552
0.182397
0.109127
-0.291503
0.0875943
-0.132389
0.0447887
0.120254
0.317314
-0.197165
-0.120131
-0.0140093
-0.0150648
0.0290725
0.183672
-0.0672686
-0.1164
-0.285581
-0.240125
0.255586
-0.472432
0.216796
-0.172041
-0.117523
0.0770294
-0.121547
0.0445185
-0.00581622
-0.00705369
0.0128699
0.187748
-0.391225
0.498311
-0.180892
-0.482332
0.283191
0.199066
-0.000576982
0.0127497
-0.00870849
0.00445943
-0.00499975
0.00234272
0.00265706
0.259755
-0.468046
0.208118
0.128742
0.0549333
-0.0391703
0.126757
0.0578068
-0.0770118
0.0192052
-0.074506
0.168538
-0.0940296
0.482569
-0.22803
-0.254759
0.442356
-0.260553
-0.182016
-0.251144
-0.231271
-0.102553
0.199642
-0.372831
0.183805
0.188989
-0.000250565
-0.000370471
0.000621108
-0.513662
0.0499189
0.463977
-0.283583
-0.166084
0.449579
-0.0513039
0.0339167
0.0173954
0.000850832
0.00712819
-0.00232572
0.000622007
-0.408971
-0.227534
-0.00512537
0.0117358
0.176672
-0.279119
0.102449
0.0444578
-0.026119
-0.0183387
5.17458e-05
0.000428741
-0.000480447
0.00498985
-0.000144263
0.286788
-0.136505
-0.150231
-0.170937
0.13266
-0.0788995
-0.0815872
-0.00636386
0.00840828
-0.00271726
-0.162372
0.1326
0.0297768
-0.580987
0.0548932
0.525846
0.200464
-0.0746489
-0.4416
0.250461
0.190966
-0.201029
-0.304531
0.505725
-0.157057
-0.215806
-0.190829
-0.316819
0.507392
0.311817
0.285198
-0.00310962
0.00285916
0.300709
0.20504
-0.11429
-0.0907399
-0.099161
-0.119908
0.219086
0.139108
-0.0981084
-0.040998
0.262689
0.219693
0.152064
0.142012
-0.00236629
0.000594414
0.00177187
0.00938852
-0.0289502
0.0195617
0.00703917
0.0120603
-0.0191033
-0.183094
0.108594
0.193683
-0.477495
0.137942
0.148893
-0.438206
0.237092
0.135052
-0.0863224
-0.0487289
-0.591742
0.0538617
0.53735
-0.000434886
-0.0018907
0.0439599
0.0658609
-0.10982
-0.0363474
-0.132236
-0.0069626
0.00196287
0.0215553
-0.035566
0.345037
-0.560562
0.21598
0.293155
0.133152
-0.426326
-0.024192
0.132533
0.0553761
0.0796758
0.179229
-0.327978
0.00513263
-0.00508087
0.55797
-0.212393
-0.195093
-0.341799
0.536602
0.0379922
-0.04814
0.444274
-0.191184
-0.062153
-0.193694
0.0208467
0.0106218
-0.0231036
-0.490435
0.140984
0.240779
-0.0402724
0.0330681
0.00720942
-0.0340624
-0.0308592
0.260628
-0.0892974
-0.171316
-0.109784
0.181482
-0.0391897
-0.380282
0.419308
-0.20235
0.34699
-0.144765
0.0267911
-0.00812398
-0.098876
-0.0903629
0.278616
0.175607
-0.454537
-0.263008
-0.267239
0.53036
-0.130465
0.09071
-0.095569
0.137653
-0.042088
0.137586
0.123056
-0.0120704
0.0011282
-0.285433
0.539999
-0.014377
0.357662
-0.0396481
-0.0253931
0.0650413
0.395887
-0.435237
-0.00283266
-0.000226701
-0.0283406
0.056967
0.282119
0.22849
0.268685
-0.475116
0.206659
-0.295587
0.00615544
0.226444
0.466269
-0.183225
-0.0114849
-0.00474784
0.0863167
-0.1156
0.0702032
-0.0497481
0.14528
0.164161
-0.309395
-0.136797
-0.0977637
-0.120971
-0.104395
-0.00635067
0.00610953
-0.168634
0.0797795
0.4315
-0.64475
0.122607
0.11658
-0.0490677
0.355857
-0.153434
-0.202437
-0.0163322
0.261707
-0.0961611
-0.072882
-0.519419
-0.242826
0.483424
-0.240699
0.225504
-0.416062
0.190592
-0.199862
0.478928
0.363144
0.213089
-0.57598
-0.296146
0.177637
0.118511
-0.127846
-0.130381
0.128065
0.092798
-0.526201
-0.0108363
0.536151
0.0106066
-0.0162283
0.218855
-0.133308
-0.0855486
-0.05874
0.1027
0.00945741
0.00179846
-0.195208
-0.0207966
-0.0304886
0.155852
-0.0708493
-0.17886
-0.250697
0.471518
0.00821268
-0.479905
-0.120849
-0.209419
0.330119
0.00127645
0.0168774
-0.0181513
-0.119768
-0.0707543
0.525168
-0.25436
0.53927
-0.284612
0.534002
-0.231565
-0.0427732
-0.0104543
0.0532272
0.0803995
-0.129666
0.0577893
-0.438525
-0.213417
-0.296949
0.178652
0.148049
-0.0623413
-0.0857047
0.00231243
0.0125092
0.00931417
0.0104406
-0.22654
0.171662
0.0548737
0.30304
-0.147818
-0.15515
-0.0102727
-0.0293559
0.0161473
0.0739172
0.166441
-0.161985
-0.0044478
-0.186046
-0.126982
0.312987
-0.167854
0.423631
-0.255754
-0.00526197
-0.000667286
0.280855
0.157313
-0.438362
0.0680622
0.0576347
0.0254923
-0.0967083
0.0712176
-0.252864
0.531253
-0.068267
0.0462312
0.145199
0.0973784
-0.242548
-0.00290475
0.00838441
-0.0054797
0.17614
-0.378625
-0.00260688
0.00668777
-0.00408088
0.155728
-0.0352693
-0.120458
0.0883838
-0.314647
0.115798
0.0247153
0.193204
-0.435325
-0.0237322
0.081539
-0.621521
0.246763
0.37483
0.121802
0.331967
-0.453835
-0.592045
0.244109
-0.254815
-0.200289
0.0069907
0.295677
0.189414
0.490045
-0.150962
-0.339221
-0.272203
0.190572
0.0816509
-0.232788
-0.235439
0.246285
0.0543509
0.106463
-0.160806
0.100878
-0.282275
0.181438
-0.0989629
-0.590644
0.417577
0.173158
-0.40996
-0.180652
-0.00215467
-0.000211624
-0.0517025
-0.00236195
0.0540639
-0.131217
-0.0953259
-0.0215785
-0.269027
0.141188
0.353025
-0.205217
-0.147816
-0.399096
0.341611
0.124552
0.00381981
-0.00147702
0.193222
0.585929
-0.647878
0.0614428
0.0157498
-0.0147923
-0.000957553
-0.0523993
-0.0484797
-0.0409098
0.163361
-0.50877
0.58229
-0.307154
0.297244
-0.138387
-0.158871
-0.28169
-0.257613
0.539265
0.0363954
-0.00938099
-0.103736
0.286127
0.0317138
-0.0464814
0.0147905
0.335847
-0.186
-0.149874
0.0173121
-0.0272483
0.563483
-0.275195
0.00120391
0.0121989
-0.572329
0.0643883
0.507266
-0.0440937
0.121124
-0.440754
0.281345
0.159278
-0.253432
0.168389
0.0850851
-0.000427085
0.00226888
-0.334011
-0.287399
-0.0547859
0.00261745
0.0521691
0.220639
0.17496
-0.395466
-0.39526
-0.223982
0.619133
-0.274014
0.439725
-0.032374
0.00337276
0.0290005
0.00379837
-0.00196522
0.191073
0.229849
-0.23739
0.0288904
-0.439433
-0.0876665
0.146572
0.0233698
-0.00644114
0.00383429
0.157053
0.000772053
-0.533702
-0.00763154
0.540593
-0.0625713
0.121023
-0.520292
0.531737
-0.0114905
0.335613
-0.0383891
0.445711
-0.264972
-0.180828
0.205169
-0.0770961
0.319617
-0.562932
0.242805
0.00186809
-0.0353774
0.00046609
-0.410599
-0.388156
0.247637
0.140512
0.271925
-0.177169
-0.0947181
0.0729052
0.0186993
-0.0916029
-0.148952
0.127567
0.0213857
0.174232
-0.442939
-0.0110904
0.414946
-0.0417719
0.122172
0.37703
-0.165251
-0.211717
-0.199165
0.383319
0.473928
-0.407943
0.408123
0.31037
-0.0879513
0.04618
-0.138332
-0.158992
-0.0566545
0.00186924
-0.0614824
0.142763
-0.0812787
-0.0990245
0.120734
-0.0217053
-0.0852068
-0.0835283
0.168743
-0.0185662
0.0565584
-0.112409
0.298452
0.017338
0.019061
-0.0034643
0.00716998
-0.00370564
0.0704466
-0.11454
-0.0720963
0.0936133
-0.0215167
0.124572
-0.0990782
-0.0534842
0.112062
0.223544
-0.00955141
0.00373518
0.124694
0.14728
-0.378786
0.10107
-0.0306231
-0.0193192
-0.500953
0.0340865
0.153907
-0.194809
0.0809596
0.073503
-0.154458
-0.154885
0.132792
0.0220923
-0.00684381
0.00769461
-0.0107483
0.00258331
0.00816501
-0.274515
0.0973798
-0.0827294
0.163698
0.549589
-0.272842
0.0825539
-0.0892212
0.00666749
0.105442
-0.195183
-0.245714
-0.352598
0.195473
-0.159107
0.331525
-0.172361
-0.195478
0.0966123
-0.00450002
-0.00310993
0.0503178
-0.093194
-0.00310476
0.0112934
-0.00818865
-0.119538
-0.183351
0.19583
0.0619984
-0.0105521
0.00764728
0.0271829
0.0073234
-0.0345065
-0.168742
-0.139559
0.30843
0.0977388
-0.18943
0.0916998
0.221997
0.0808838
0.0337336
0.0107242
0.00721352
-0.0474755
-0.22016
-0.0337278
0.0590082
-0.0816362
0.0419883
-0.00832985
-0.00241838
-0.171513
0.500963
0.11212
1.76954e-06
-0.0169596
0.0169582
0.270915
-0.149539
0.0061836
-0.0523073
-0.0692837
-0.184106
0.0162207
0.12289
-0.215734
0.104539
0.111199
-0.292295
-0.0859835
-0.264426
0.350398
-0.396296
0.181249
0.0340982
-0.154046
0.119947
0.574758
-0.332443
-0.110466
0.144564
0.0785802
0.0868327
-0.165411
0.164131
-0.0748621
-0.0892678
-0.336354
0.598855
-0.26255
-0.643837
0.360726
0.282892
0.143934
-0.3011
0.157199
0.198805
-0.336771
0.137988
-0.352306
0.512879
0.209819
-0.358027
0.0768812
-0.13836
-0.0162971
0.0175758
0.00476908
-0.0386724
-0.542408
0.0235165
-0.109839
0.616609
-0.306088
-0.311015
-0.00899631
0.00553203
0.273515
-0.146166
-0.127298
-0.0605408
-0.0609117
0.121453
-0.134745
0.057204
0.0985251
0.0871331
-0.392548
0.305315
0.202249
0.401692
-0.126228
0.0636609
0.438527
0.222759
-0.361194
-0.0781008
-0.120805
0.19892
-0.0114101
-0.000641848
0.0120513
0.248341
0.13508
-0.120131
-0.00976725
-0.00900594
0.0187724
0.142297
-0.246202
0.0257766
-0.017533
0.00776455
0.411541
-0.186051
0.119556
-0.25585
0.190545
-0.130911
-0.252053
0.195746
-0.469871
-0.0253032
0.0679032
-0.0426005
-0.0202075
-0.00634304
-0.00413091
0.010474
0.201336
0.15451
0.419131
-0.163589
0.263315
-0.447933
0.184732
0.149664
-0.34432
0.194729
-0.182771
0.283693
-0.123804
-0.146659
0.0162657
-0.047416
0.0311503
0.170568
0.103002
-0.196953
0.108423
-0.0922745
-0.102375
0.0561017
-0.155121
-0.199764
0.422519
0.000237926
-0.0116118
0.0113739
0.309332
-0.16162
0.56292
-0.285202
-0.278318
0.0805541
0.0835787
0.00929031
0.00248118
0.461681
-0.286325
-0.487755
-0.283499
0.302181
0.387287
-0.300212
-0.0584915
0.062054
-0.137094
0.075041
0.361259
-0.220727
-0.140508
0.154178
0.0509978
-0.312801
0.144206
0.166717
-0.366524
-0.0258842
-0.123067
-0.00952591
0.00453685
0.00498911
0.0962317
0.0852974
-0.181525
-0.497475
0.197801
-0.36042
-0.0747562
0.435057
0.10183
0.0239512
-0.125775
-0.059277
0.117889
-0.146991
0.0291056
0.453399
-0.126413
-0.327102
0.380832
-0.160177
-0.011733
-0.00230374
-0.012794
-0.247738
-0.059194
0.178145
-0.0836074
0.0303999
0.0532074
0.390074
0.289539
-0.40056
0.280665
0.119874
-0.00260509
0.00599794
-0.0033928
0.509839
0.0755213
0.248864
0.00141918
-0.00778297
-0.107246
-0.0476388
-0.0457206
0.129139
-0.0875096
-0.0448857
-0.290074
-0.283629
-0.004305
-0.00522083
0.244039
-0.447324
0.157727
-0.403278
0.245551
-0.225558
-0.175032
0.105171
0.0884023
-0.19356
0.00368996
-0.00454156
0.000851603
0.519526
-0.126286
0.230836
0.179058
0.335875
0.102559
-0.187059
0.326052
-0.282131
0.196163
-0.0679866
-0.00410952
-0.0630104
0.168195
-0.130928
-0.165221
0.356328
0.192391
-0.548996
-0.186122
0.1426
0.0405087
0.12361
0.168362
0.0830431
0.560725
-0.154238
0.417617
0.258212
-0.0543095
-0.203835
-0.00339324
0.000560586
0.0184692
0.00222777
-0.0206981
-0.169379
0.314688
-0.0094478
0.537997
-0.259381
-0.122857
-0.0928739
0.0429577
-0.123523
0.0805662
-0.00740492
-0.00808735
0.0154923
-0.149705
0.387047
-0.237306
-0.317479
-0.0207042
-0.009183
0.029887
0.142403
0.0811715
0.303172
0.259149
0.279175
-0.031926
0.0337986
0.302201
-0.582406
0.280221
-0.0795091
-0.0936527
0.458765
0.0193099
-0.00992138
-0.558436
0.286256
-0.726191
0.439058
0.286178
-0.534683
0.280475
-0.100331
-0.116328
0.216661
0.334515
-0.135738
-0.129661
-0.0823666
-0.102866
-0.0595016
-0.0463595
0.042862
0.00349729
-0.335018
0.249078
-0.468373
0.225414
0.399284
0.199511
-0.00455979
0.336458
0.301149
-0.32133
0.020175
0.183196
0.172481
-0.355726
0.111708
0.205541
0.204428
-0.0744122
-0.129987
0.0190346
-0.0119994
-0.199098
0.09655
0.0992051
-0.177294
0.264139
0.194491
0.00106429
-0.0134971
0.0124329
0.0555062
-0.0825323
0.0270391
-0.259919
0.455437
-0.0301226
-0.000424523
0.0305437
-0.01479
0.000352192
-0.347765
-0.0127225
0.407963
0.481272
-0.259856
-0.22137
-0.0641907
-0.0912445
0.155439
-0.0237601
0.228226
-0.012581
0.276334
0.181189
-0.287956
0.106846
-0.181016
-0.330284
0.511004
0.145124
-0.288065
-0.439038
0.159397
-0.106075
-0.0533213
0.0739147
0.227215
-0.0720633
-0.0804446
0.260656
0.253847
-0.514554
0.141682
-0.0505402
-0.0911405
0.275629
-0.523652
0.247801
0.132211
-0.263703
-0.389725
0.243137
0.146625
-0.267976
0.129695
-0.0801572
0.0373837
0.00242814
0.0133217
0.0208222
-0.0384714
-0.0373745
0.00725487
0.0962843
-0.219413
0.161067
0.0404329
-0.0589991
0.000910877
0.210914
-0.152929
-0.0579421
0.276096
-0.433833
0.157721
0.291015
0.000501471
-0.0129169
0.0124154
0.29223
0.189085
0.00303976
-0.16671
0.440995
-0.13552
0.27058
-0.135036
-0.396798
0.247468
0.149296
-0.522295
0.415426
0.106781
0.224015
0.0891051
-0.0864866
0.00214103
-0.00474603
0.00510637
-0.000136276
-0.0609056
0.00920247
-0.0109691
0.0120334
-0.435415
-0.00902139
0.0212974
-0.0122735
-0.000119564
-0.03221
0.255071
0.32442
-0.579469
-0.204352
-0.551046
0.265818
0.28532
0.154501
-0.138278
-0.458404
0.20535
-0.00748078
0.00334992
0.0825398
0.0655135
-0.0891721
0.173816
-0.0846376
-0.1133
-0.197105
0.310394
0.141121
-0.0803167
-0.0608033
0.00868848
0.00136106
-0.0100495
0.00972739
-0.0018175
-0.00790988
0.10099
0.0971442
-0.198114
0.116357
0.100181
-0.216518
-0.453387
-0.0809196
0.0342271
-0.023958
-0.211339
0.458328
-0.246995
-0.0369655
0.0331071
0.00385827
0.123932
-0.0751066
0.0346491
-0.106642
0.0719948
0.0537232
-0.0468449
-0.00687787
0.00352494
0.00101508
0.121844
-0.283182
-0.110541
-0.167065
0.277651
0.563178
-0.2441
-0.24623
0.105787
0.14048
0.00430866
-0.00683813
0.00924537
-0.00899817
-0.533959
0.330791
0.203229
-0.0219719
-0.0127169
0.0346888
0.305418
-0.181751
0.0941603
-0.0515647
0.0052048
0.00059942
-0.0120103
-0.0126997
0.0132988
0.235453
0.206709
0.0942758
0.14051
-0.252744
0.112278
0.126565
-0.135319
0.279321
0.0064373
0.603114
-0.326313
-0.277019
0.0404434
-0.0419054
0.00146216
0.388493
-0.6205
0.230931
0.475961
-0.240725
-0.091666
-0.0696179
0.161288
-0.191353
0.139877
0.0146263
-0.330461
0.168814
0.161691
0.0377751
0.028552
0.050894
0.0249979
-0.0758916
-0.122007
0.0401283
0.081879
0.0253561
0.378129
-0.540137
0.161893
-0.191892
-0.138522
-0.108319
0.48636
-0.198785
-0.185512
-0.0790483
-0.0628965
0.180791
0.259026
0.0943777
0.217484
0.159601
-0.247944
0.137973
0.110003
-0.0169695
0.0088822
-0.128054
-0.138176
0.266295
0.34097
-0.113638
-0.227376
0.024988
0.00219485
0.289942
0.165741
0.0095639
-0.53189
0.241968
0.218698
-0.262631
0.324863
-0.249646
-0.0751992
-0.00609187
0.008181
-0.00208913
0.0751994
-0.57279
-0.0279305
0.00595858
-0.00453979
0.0480547
0.501246
0.147309
-0.31665
0.0991424
-0.204724
0.105605
0.55727
0.587106
-0.282024
-0.305534
0.264937
-0.438885
0.174024
-0.0801449
0.0542
0.0259451
0.0801323
-0.177299
0.211456
0.149825
-0.103286
0.0378688
0.0888818
0.102828
-0.0202732
-0.0938454
-0.176847
0.0054691
-0.0120016
0.193812
-0.212213
-0.321621
-0.00570378
-0.0154732
0.021177
0.0752103
-0.146248
0.0710398
-0.08535
-0.201753
-0.150907
0.264982
0.183933
-0.448904
-0.00910097
-0.00296947
0.0157718
-0.0057447
-0.010027
-0.0910547
0.114571
0.000153338
-0.0262724
-0.165248
0.521216
-0.307358
0.14836
-0.393631
0.205076
-0.0145129
0.00277998
-0.223664
0.0939954
-0.159069
0.177786
-0.0187207
-0.242668
0.0706515
0.39995
-0.191562
-0.208435
-0.136906
0.377261
0.203068
-0.581039
0.487519
-0.294203
0.125765
0.0159187
0.462794
-0.269233
0.00785694
0.434482
0.129529
-0.300874
-0.386736
0.260157
0.188676
0.0165123
-0.00445461
0.000807692
0.00429869
0.23667
-0.144704
-0.00153667
0.0120678
-0.0105311
-0.311062
0.546944
-0.23613
0.028282
0.125627
0.13937
0.163734
-0.0724186
0.0786037
0.370506
-0.0700749
-0.427382
0.0316003
0.0186522
-0.05023
0.0776834
-0.148003
0.0819713
0.0660395
-0.558069
0.0463954
0.120052
0.0933512
0.00028596
-0.00158858
-0.00153807
0.00312649
-0.314059
0.127978
-0.148446
0.0805089
0.0679373
-0.00249299
-0.0257955
-0.146107
-0.114237
0.260354
0.132328
-0.0851912
-0.0823313
0.160915
-0.240397
-0.157954
0.398263
-0.09479
-0.147852
0.148131
0.107555
-0.532062
0.220595
-0.0778048
-0.220112
0.338592
0.1085
0.244518
0.44106
-0.253529
-0.187395
-0.235334
-0.0343882
0.269684
-0.187529
-0.0265679
0.0428335
0.22948
-0.0482361
-0.160579
0.309014
-0.148371
-0.106426
0.203629
-0.458465
0.25489
0.166207
0.182381
-0.348504
0.0778463
-0.180972
0.103134
0.000782202
-0.00172564
0.000944185
-0.0741854
0.0488818
0.0941899
-0.173698
-0.0173374
-0.282904
-0.361131
0.00273084
0.00337386
-0.00610459
-0.224212
0.172718
0.051494
0.00742603
-0.00805218
0.000626156
-0.0257427
-0.107433
0.133179
-0.531953
0.269012
0.349918
0.15997
0.126332
-0.286274
-0.00152074
-0.0012783
0.00279911
0.0172402
-0.0167387
-0.0597125
0.166184
-0.0638043
0.301144
-0.455387
0.198861
0.176764
-0.375583
0.247879
0.270737
0.0148714
6.28394e-05
-0.0149343
-0.247393
0.133647
0.113776
-0.222832
0.38956
-0.161474
0.0192156
-0.0399199
0.00329533
-0.0531508
0.0498542
0.151024
-0.311541
0.050221
-0.0540847
-0.0295225
0.243116
-0.0607714
-0.182332
0.0976644
-0.243765
-0.0153871
-0.0215785
-0.133197
0.0421425
0.296397
-0.0499383
-0.246434
-0.0135648
0.000864278
-0.0918836
0.165391
0.0314322
-0.0952615
0.0638265
-0.00503748
0.00344894
0.235124
-0.169593
-0.217547
0.54198
-0.231955
0.309854
0.0611678
0.11525
-0.000432819
0.000702597
-0.000269786
0.014155
0.128269
-0.479634
-0.107718
-0.150924
0.0602405
0.0906832
0.537487
-0.272501
-0.26491
-0.00100966
0.00441677
0.0146762
-0.00538348
-0.00929275
0.280595
-0.0215958
-0.00379762
-0.126552
-0.442056
0.154427
-0.394993
-0.165906
0.349071
-0.0109571
0.0102336
0.00072294
-0.0161939
0.0670881
-0.220539
0.0848113
-0.147152
0.433655
-0.183389
-0.0850806
0.12521
0.116884
-0.512239
0.207894
-0.0857254
-0.122162
0.204061
-0.321693
0.078106
0.24357
-0.382304
0.15948
-0.0570253
0.0494415
0.00758403
-0.292889
0.161971
0.0840335
-0.0526044
-0.173387
-0.0508233
-0.273988
-0.263485
0.537401
0.0778453
-0.155105
0.0772622
0.252314
-0.0523114
0.228972
0.281832
-0.00271569
-0.00372544
0.0411374
0.383695
-0.170654
-0.212931
0.1763
0.264906
0.250963
0.132808
-0.0701885
0.21628
-0.146043
0.00699143
-0.00991046
0.00291905
-0.0118276
-0.0683171
-0.0750553
0.14415
0.188508
-0.240829
0.257544
0.0209269
-0.00308886
-0.0178377
-0.0154079
0.117242
0.365635
-0.154134
0.0251428
0.0157157
-0.0408584
-0.556996
0.275603
0.281216
-0.0785684
0.148844
-0.0702722
-0.0042482
0.00381538
0.471683
-0.257104
-0.214663
0.0107858
-0.00209735
-0.000378675
-0.0701575
0.148005
-0.0135784
-0.00121165
-0.0533096
-0.00371674
0.31214
-0.413545
0.101453
-0.172593
-0.12029
-0.0387216
0.038875
-0.0085996
0.00409952
-0.311949
0.13936
0.00971092
-0.0112476
0.209251
0.0553295
-0.395499
-0.475288
0.484792
0.157777
-0.297286
0.106333
-0.155993
0.26225
-0.106218
0.0206465
-0.046452
0.0258054
0.014507
0.000364377
-0.0277166
-0.0297245
0.0574413
-0.0659054
-0.203771
-0.444565
0.0777096
-0.151574
0.07387
0.00605495
0.00367245
-0.44928
0.195866
0.0191328
0.00413826
-0.0232711
0.173934
-0.131876
-0.0420534
0.262562
-0.536452
-0.127049
-0.559023
-0.302012
0.174995
-0.0645179
-0.0834781
-0.020921
0.0201733
0.000747766
0.237653
-0.211973
-0.17262
-0.296293
0.468734
0.00479948
-0.00963342
0.00483394
-0.0164462
0.00386058
0.0125859
0.213349
-0.0836416
-0.129674
-0.260851
-0.297506
-0.190252
0.210272
-0.413007
0.202831
0.367247
-0.582471
0.214911
-0.0335995
0.0173074
-0.0990612
0.0150409
0.0840206
-0.550316
0.303075
0.246866
-0.460647
0.390433
0.0700464
0.0187754
0.00252304
-0.00265674
-0.00170564
0.0215245
0.152415
0.155466
0.0270013
-0.0301428
0.00314179
0.165785
0.144435
-0.310092
0.292853
0.221621
-0.514526
-0.333113
-0.229327
-0.321383
-0.170885
0.471994
0.477726
-0.0749486
0.0266564
0.0270671
0.0844148
0.11313
-0.197539
0.168517
0.0199879
0.0184534
0.0197711
0.201474
-0.106768
-0.0946768
0.0042867
0.0337451
-0.0337429
-0.0107758
0.00435802
0.00641715
-0.0810638
0.168317
-0.0872401
-0.257565
0.163732
-0.280656
-0.311136
-0.134889
0.316578
-0.563793
0.246826
0.0263421
0.0796101
-0.105951
-0.219072
0.494425
-0.059146
0.0373344
0.0218111
0.0901827
-0.0264651
0.154034
0.218673
0.25475
-0.473262
0.00853122
-0.00711197
0.066888
0.070761
0.00781917
-0.00268652
-0.0794079
0.446493
0.00790224
0.0212194
-0.0291216
-0.249745
-0.163785
0.0742632
0.0684043
-0.142667
0.107567
0.0667114
0.015253
0.00338124
-0.018634
0.0919699
-0.21276
-0.0900935
-0.0334294
-0.46121
0.201016
-0.00537807
0.0548207
-0.238951
-0.235952
-0.0104489
0.00245081
0.0356503
0.0809297
0.06318
-0.123717
0.408764
-0.196497
-0.212266
0.45931
-0.220539
-0.239044
0.00526337
0.0224797
0.00168487
-0.107404
-0.171014
-0.0401103
-0.118962
0.0845357
0.226194
-0.0934196
-0.132762
-0.00517851
0.0260186
0.0677633
-0.0490634
-0.172949
0.371825
-0.0180408
0.0456645
-0.0276042
-0.397205
-0.112836
-0.497486
0.264637
-0.005873
-0.0931879
-0.1733
-0.324236
0.156824
0.17475
-0.00643562
0.00114944
0.233776
0.284905
-0.518822
-0.0865684
0.196864
0.0323657
-0.218383
-0.068254
-0.573238
0.0520029
0.187171
-0.0787386
-0.108425
0.100025
0.215896
-0.359624
0.143612
-0.240795
0.556986
0.000405125
0.123282
0.14768
-0.00682612
-0.00362283
-0.0153833
0.0709073
0.000673515
-0.0011006
-0.135402
-0.13678
0.328077
0.131991
-0.460045
0.439218
-0.141905
-0.105456
0.230424
-0.11354
-0.116855
0.230223
-0.113834
0.00123793
-0.0073298
-0.30058
0.181082
0.0751579
0.126395
-0.201547
-0.00371075
-0.107485
0.111198
0.0610487
-0.536337
0.391095
-0.204194
-0.186953
0.0746239
0.138762
-0.146601
0.0677021
0.0118322
-0.0115943
0.284979
0.139529
-0.424523
-0.00512362
-0.00122706
0.306204
-0.0290795
-0.00343643
0.0140431
-0.157593
0.171773
0.189281
0.214982
-0.404262
0.247369
0.172716
-0.420217
0.0978404
0.0986155
-0.196446
-0.0831466
-0.0399559
-0.154414
0.269562
-0.115124
0.31389
-0.135082
-0.172164
0.128444
0.318925
-0.171632
-0.03415
-0.0543622
0.0885124
0.000949917
0.0160019
-0.0215075
0.00550556
0.537078
-0.268355
-0.268376
0.241866
-0.108189
-0.00380372
0.0442471
0.261109
-0.0847949
0.00769899
0.461356
-0.253959
-0.207241
0.0510276
-0.0951686
-0.070764
0.34249
-0.257456
-0.0850218
0.125031
-0.0342368
-0.0340299
0.361156
-0.169446
-0.191628
0.0377795