/*--------------------------------*- C++ -*----------------------------------*\
| =========                 |                                                 |
| \\      /  F ield         | OpenFOAM: The Open Source CFD Toolbox           |
|  \\    /   O peration     | Version:  v2012                                 |
|   \\  /    A nd           | Website:  www.openfoam.com                      |
|    \\/     M anipulation  |                                                 |
\*---------------------------------------------------------------------------*/
FoamFile
{
    version     2.0;
    format      ascii;
    class       volScalarField;
    location    "900";
    object      k;
}
// * * * * * * * * * * * * * * * * * * * * * * * * * * * * * * * * * * * * * //

dimensions      [0 2 -2 0 0 0 0];


internalField   nonuniform List<scalar> 
9793
(
0.000199968
0.0086849
9.82316e-05
0.000140628
0.0315666
0.00014869
0.000147033
0.000138785
0.000144709
0.026783
0.000177004
0.00192012
0.000141035
0.000148603
0.000163273
0.000147382
0.000145529
0.000147812
0.0331412
0.000148808
0.000281806
0.000149247
0.00962028
0.000130179
0.000147694
0.000141912
0.00015495
0.000141063
0.000169638
0.000144612
0.000167025
0.00746172
0.0161996
0.000156068
0.000173561
0.0003156
0.000154144
0.000149222
0.000139488
0.000142789
0.000165954
0.000163658
0.000149844
0.000149395
0.000150076
0.000143457
0.000172161
0.000625744
0.000238986
0.000140381
0.000174396
0.000180904
0.000149504
0.000144728
0.000282468
0.00355712
0.000143615
0.000190345
0.0176859
0.000139323
0.000149873
0.000149508
0.00231051
0.000147673
0.0312884
0.00850523
0.001285
0.000478193
0.00147779
0.000176907
0.000200725
0.000150709
0.00014139
0.00034709
0.000179681
0.0199499
0.000143563
0.000134922
0.000145908
0.000142128
0.00705894
0.000146689
0.00821916
0.000297383
0.000161811
0.000567426
0.000143589
0.000143522
0.000147949
0.000148468
0.00870871
0.0100575
0.000138238
0.00733151
0.000148778
0.000324979
0.00318564
0.00858316
0.000137653
0.00013609
0.00013591
0.00014666
0.000137056
0.00013684
0.000134972
0.000160645
0.000147464
0.000149027
0.000148628
0.000549254
0.000153736
0.000176154
0.00014349
0.00532294
0.000180816
0.000143628
0.015996
0.000178523
0.000148583
0.00544936
0.000653671
0.000173388
0.000142867
0.000149512
0.000146617
0.000290844
0.000165174
0.000702319
0.000147991
0.000141589
0.000160623
0.000143589
0.00014158
0.000148305
0.00014441
0.000143493
0.000150216
0.000147509
0.000143444
0.000133668
0.000142798
0.000147258
0.000142026
0.000136962
0.000150631
0.000160302
0.000573607
0.000137063
0.000137258
0.00165666
0.0250856
0.00016001
0.0224808
0.0245263
0.000136894
0.000168718
0.00014389
0.000146791
0.000136335
0.00014163
0.000138785
0.000141137
0.000144466
0.0179945
0.000832253
0.00028917
0.00075693
0.000153074
0.000153451
0.000142794
0.000142167
0.0169241
0.00191341
0.0171391
0.000146361
0.0259795
0.000143557
0.00013032
0.000141671
0.000155881
0.0335307
0.000148221
0.000136473
0.00014727
0.0375671
0.000141294
0.000196074
0.00014163
0.000142678
0.000144477
0.000146427
0.000142948
0.000275294
0.000212626
0.000973863
0.000155539
0.0166078
0.000141844
0.0218991
0.000134513
0.000144343
0.00578662
0.00390494
0.000141646
0.000143544
0.000133214
0.000305864
0.000138776
0.000157755
0.000148472
0.000158982
0.00026511
0.000283516
0.000144931
0.024592
0.000142153
0.000143964
0.0372091
0.000133251
0.0058967
0.000205572
0.000143126
0.000146676
0.000142963
0.000541065
0.0100968
0.00014875
0.000136632
0.00019905
0.000171803
0.000130501
0.000130262
0.000148456
0.000136356
0.000169243
0.00466963
0.000143319
0.000141509
0.00278438
0.00014503
0.000156976
0.000146011
0.00014125
0.0146328
0.000141183
0.000137257
0.000138675
0.000146762
0.000137681
0.000152925
0.000145195
0.00015152
0.00017865
0.000167326
0.000140792
0.000150536
0.000141885
0.000151942
0.000149027
0.000137334
0.00311672
0.000141316
0.000178333
0.000153467
0.00015371
0.000131398
0.000131444
0.000158843
0.003917
0.000146367
0.000137597
0.000135651
0.00015296
0.00014327
0.00734799
0.00736447
0.000141653
0.000163706
0.000143369
0.000167088
0.000146337
0.000130958
0.000154183
0.000141459
0.00016504
0.000143101
0.000145133
0.000152964
0.000141126
0.00014348
0.000143362
0.015696
0.000147007
0.000154716
0.000161905
0.000148196
0.000147131
0.000153505
0.000142416
0.00936679
0.000136893
0.0059006
0.0178003
0.000155843
0.000149497
0.00013732
0.000153561
0.000151118
0.000145788
0.00738225
0.000146157
0.000137127
0.00015112
0.000145704
0.000144071
0.000146601
0.000455706
0.000141493
0.000152019
0.000148699
0.000140583
0.000819921
0.0299275
0.000283573
0.000132327
0.0151897
0.000147428
0.0106497
0.000184486
0.000139513
0.000150243
0.000181566
0.000145177
0.000154493
0.000182384
0.000138469
0.000148855
0.000144191
0.000144818
0.000141614
0.00276151
0.000141628
0.000140444
0.00572668
0.000145152
0.00014709
0.000131993
0.000147785
0.000138578
0.0138278
0.000146871
0.000143104
0.00014462
0.000146565
0.0145566
0.000144546
0.000164902
0.000130389
0.000164331
0.000424761
0.0001964
0.000165912
0.000147522
0.00015272
0.0276741
0.000151856
0.00334569
0.00014509
0.000136967
0.0177699
0.000153877
0.0312711
0.000143128
0.000171007
0.000328024
0.000150254
0.000141163
0.0166945
0.00015388
0.000646922
0.000150515
0.00014439
0.0205024
0.000142688
0.000147734
0.000160236
0.000145432
0.000154478
0.000144599
0.000149786
0.0152687
0.000145786
0.00798748
0.00752095
0.0279788
0.000171941
0.000179429
0.000142296
0.000144183
0.0278253
0.00697695
0.000146093
0.000146543
0.000516048
0.00013564
0.00531224
0.000141672
0.000149806
0.00013536
0.00016015
0.000141581
0.000154526
0.000265661
0.000138952
0.00956671
0.000175267
0.000147174
0.000172755
0.000143835
0.000146727
0.000159728
0.00140304
0.000143179
0.00014422
0.000182109
0.000144289
0.000148967
0.000147448
0.000143726
0.000156799
0.000141677
0.000144234
0.000134718
0.0127065
0.00015679
0.0123143
0.000142976
0.00180612
0.00015669
0.000143943
0.000153456
0.000145753
0.0292443
0.00014172
0.00173237
0.000145572
0.00014229
0.000147736
0.000729323
0.00017091
0.000274061
0.000223899
0.000149594
0.000142454
0.000171541
0.000156531
0.00015883
0.00861544
0.00640014
0.000145434
0.000160197
0.000171418
0.000142885
0.000148431
0.000142749
0.000137017
0.000157233
0.00420063
0.000154625
0.0327084
0.000137287
0.000154363
0.000130191
0.000152964
0.000161126
0.000146787
0.000172505
0.000143856
0.000155573
0.000136453
0.000143928
0.000150194
0.000710143
0.000141998
0.000142451
0.0166781
0.000151948
0.000146922
0.0036107
0.000120102
0.000156064
0.000159921
0.000148055
0.000150236
0.000144346
0.000151986
0.000149181
0.000142602
0.000142085
0.00014093
0.000425842
0.000183104
0.000143078
0.0367423
0.000157244
0.000136765
0.000147097
0.000146222
0.000248615
0.000146282
0.00181989
0.000140003
0.000141299
0.000175348
0.000142609
0.000161546
0.0178973
0.000152529
0.000136627
0.0128074
0.000151365
0.000137285
0.000142561
0.00017403
0.000140025
0.000137191
0.000142569
0.000139938
0.012247
0.000168976
0.000156564
0.00014783
0.000142245
0.000140968
0.000143938
0.000151462
0.000142712
0.000238533
0.000203651
0.000135911
0.000157078
0.029002
0.000142595
0.000286511
0.000165566
0.000149058
0.000178677
0.024771
0.000143226
0.000201502
0.000131155
0.0043667
0.000152767
0.0212579
0.000141262
0.000141088
0.000145488
0.00885349
0.000153755
0.00351132
0.00955982
0.0261354
0.000162357
0.0016255
0.00015854
0.000162818
0.000158886
0.000155111
0.00167873
0.000144396
0.014265
0.000135953
0.000297118
0.000152685
0.000147172
0.000140777
0.00021404
0.000136762
0.00014265
0.000148275
0.000149158
0.00015527
0.000141467
0.000142397
0.000142457
0.000142329
0.0335918
0.000140335
0.00674088
0.00389802
0.000140441
0.000150916
0.000154913
0.000146556
0.000142733
0.000145379
0.000150324
0.000152801
0.000148077
0.000149188
0.000136891
0.000147952
0.000147103
0.000152077
0.000145318
0.000148085
0.0168219
0.000142582
0.00329267
0.000153243
0.000148719
0.00014246
0.000138278
0.000152975
0.00015558
0.000141131
0.000144351
0.000129954
0.000141232
0.000144331
0.000141821
0.000150251
0.000132719
0.000147201
0.000157744
0.000144453
0.000149915
0.000148269
0.0001599
0.000154826
0.000140656
0.000142537
0.000137124
0.000143773
0.000148894
0.000146387
0.000140288
0.000142656
0.000136678
0.00016188
0.000143543
0.000154385
0.000142974
0.0136907
0.000140759
0.000135325
0.000175969
0.000131107
0.000144178
0.000233146
0.000147719
0.000152131
0.000160708
0.000189856
0.000138356
0.000173503
0.0296929
0.0189658
0.00198358
0.000143835
0.000143008
0.0033025
0.000147539
0.000135008
0.000220344
0.00797056
0.0279522
0.000142601
0.000175912
0.000143033
0.000142926
0.00533724
0.000141923
0.000424204
0.000168984
0.000183758
0.000140544
0.000150087
0.000146803
0.000214325
0.0114647
0.000141988
0.000161674
0.000155382
0.000140198
0.000149805
0.000173978
0.00191682
0.000141083
0.000294636
0.000147411
0.0135025
0.000280688
0.0171141
0.00254015
0.000142571
0.000158979
0.00580058
0.000140762
0.000141709
0.000156527
0.000146465
0.000135467
0.00334122
0.000134676
0.0121777
0.000149945
0.00141047
0.000176867
0.000144069
0.000246838
0.0207104
0.000146293
0.0187884
0.000157871
0.000182052
0.000135558
0.000130933
0.00557693
0.000142582
0.0104407
0.000140248
0.00284737
0.000137326
0.000729713
0.0059923
0.000142544
0.0436191
0.000143751
0.000148521
0.000163348
0.00940571
0.0101338
0.000148347
0.000137543
0.000136494
0.0191598
0.00159021
0.000153884
0.000152995
0.000303371
0.000136084
0.000140429
0.000149533
0.000521841
0.00015697
0.000143018
0.000142422
0.000139034
0.00183842
0.0267336
0.000126812
0.000137179
0.000139937
0.0189006
0.000141804
0.0238669
0.000169021
0.0138087
0.000427098
0.00211158
0.000139522
0.000144142
0.000150531
0.000147762
0.000152481
0.000142181
0.000176265
0.00459822
0.000136925
0.0208257
0.000138944
0.00234443
0.00014526
0.000361192
0.000152308
0.00015748
0.000141174
0.000195715
0.000282282
0.010023
0.00568658
0.00014298
0.000160085
0.000143456
0.000148368
0.000150424
0.0102
0.000163942
0.000182316
0.000139417
0.000155907
0.000141682
0.000132917
0.000155334
0.000140153
0.0208101
0.000141602
0.000148725
0.000153784
0.000166382
0.000136037
0.000175941
0.000151601
0.000147603
0.000139648
0.000140507
0.00767643
0.000140863
0.000278996
0.000137119
0.000290267
0.000142179
0.000499092
0.0001477
0.00185353
0.00014429
0.000142783
0.000139603
0.0064074
0.00679046
0.00267914
0.000268906
0.0266028
0.000142512
0.000150198
0.00854656
0.000140544
0.0031171
0.00202563
0.000177445
0.000224141
0.000148377
0.00901647
0.000151469
0.0147939
0.00887929
0.000148405
0.000144609
0.00885962
0.0164288
0.000160667
0.000150181
0.000142066
0.000152825
0.000161997
0.000148596
0.000143017
0.000147998
0.000306916
0.000163401
0.000149499
0.0153258
0.000139743
0.000147475
0.000305779
0.000389096
0.000162723
0.000148138
0.000304455
0.000137506
0.000140421
0.0165858
0.000137391
0.000148083
0.00884255
0.00876106
0.000143432
0.0120752
0.000300034
0.000240003
0.00220082
0.00758772
0.000151815
0.000447203
0.000144962
0.000139326
0.00014284
0.000152915
0.000144318
0.027999
0.00014658
0.0170881
0.000187056
0.00016191
0.000145729
0.000162662
0.000153836
0.000145046
0.000169158
0.000187524
0.000142414
0.000201603
0.000152482
0.000157569
0.000144428
0.000136274
0.00539799
0.00297353
0.000403894
0.000130105
0.000130031
0.000164915
0.000147822
0.0327627
0.000198232
0.00322716
0.000160356
0.00260378
0.000144079
0.000157708
0.000154355
0.00015102
0.000245563
0.000141253
0.000140666
0.000266589
0.000162784
0.0243447
0.000140942
0.0165748
0.00645327
0.000161691
0.000166187
0.000150694
0.032068
0.000144187
0.000152774
0.000815157
0.000155362
0.000141028
0.000294516
0.000144549
0.000136971
0.000140469
0.000271161
0.000144885
0.000153866
0.000138946
0.000165194
0.000152679
0.000159721
0.000548304
0.00727054
0.000469128
0.00014291
0.00014403
0.000147517
0.000154183
0.000146366
0.025007
0.000833621
0.000150717
0.00279518
0.000308342
0.00214546
0.00014421
0.00338195
0.000142314
0.00688035
0.000181167
0.000137754
0.00935858
0.00406665
0.000139387
0.000143823
0.00014337
0.000781086
0.00910809
0.000152841
0.000169455
0.000289627
0.000158305
0.0179524
0.000325255
0.000143953
0.000143326
0.0209799
0.0117425
0.000141141
0.000142333
0.00015013
0.000145431
0.000144026
0.000152647
0.000303973
0.00014222
0.000151508
0.0150451
0.000145552
0.000164019
0.000151512
0.0256384
0.000144224
0.000158581
0.000870561
0.00014625
0.000137281
0.000146511
0.000139824
0.000147935
0.00677456
0.00353032
0.00014606
0.00110274
0.000155689
0.000187744
0.000143049
0.000152763
0.00014755
0.00014493
0.00423956
0.00014691
0.000151602
0.000152803
0.000147245
0.000200096
0.000153492
0.000142096
0.000198656
0.000143868
0.000140862
0.0185639
0.000141112
0.0184081
0.000155511
0.000140218
0.000922279
0.000155738
0.000160129
0.00281931
0.000135278
6.1149e-05
0.000140365
0.000143242
0.00121376
0.00694104
0.000135498
0.000143861
0.00013814
0.000145329
0.000182596
0.00014719
0.000144052
0.000150307
0.000151531
0.000147282
0.000142249
0.000137211
0.000140181
0.000141943
0.000540251
0.000151259
0.00013426
0.000166145
0.000146518
0.0126917
0.000300165
0.000160694
0.000143742
0.000142247
0.000181953
0.000149987
0.000143442
0.000144519
0.00596869
0.000224919
0.00014311
0.00013362
0.000178412
0.000173719
0.000130629
0.0140781
0.000165459
0.00014313
0.000146195
0.000157136
0.000144788
0.000158259
0.00243284
0.000148829
0.000246764
0.000158475
0.00024486
0.000134062
0.000142946
0.000133089
0.00013328
0.000221752
0.000141077
0.000171284
0.000169433
0.00013302
0.000146548
0.000160999
0.000162658
0.000145374
0.000143304
0.000147854
0.0109138
0.000133345
0.000144041
0.00428791
0.000147344
0.000144914
0.000158092
0.000141202
0.000145099
0.000141854
0.000144006
0.000489559
0.00016575
0.0002404
0.000194104
0.000134162
0.000143505
0.000133696
0.000208064
0.000140585
0.000151444
0.000143051
0.000135569
0.000165584
0.000136676
0.000157795
0.000143356
0.000136808
0.00452414
0.0117275
0.000146046
0.00014503
0.000140173
0.00134214
0.000138834
0.000143318
0.011151
0.0187158
0.000157682
0.000289579
0.00789295
0.000150268
0.00470664
0.000183737
0.000646493
0.000141927
0.000162282
0.000198438
0.000136474
0.0018487
0.0292957
0.000143281
0.0414301
0.0384881
0.000164277
0.00478851
0.000135422
0.000154972
0.000171238
0.000142337
0.00517714
0.000136248
0.000167154
0.000196631
0.000134654
0.000185208
0.000145258
0.000147327
0.000160745
0.000151147
0.00125553
0.0217142
0.000137664
0.000151493
0.00894765
0.000138319
0.000152488
0.000139132
0.00710746
0.00154984
0.000224409
0.00014599
0.000152858
0.00698955
0.00818114
0.00015717
0.000134795
0.000139719
0.00523821
0.00203065
0.000911595
0.000148772
0.000149142
0.000153869
0.00013593
0.000150252
0.000164575
0.000149578
0.000139944
0.000164612
0.0152088
0.000230529
0.00014027
0.000223349
0.000151197
0.000226677
0.0375007
0.000166664
0.0174539
0.0023707
0.000135611
0.000193531
0.000194487
0.0101903
0.00653352
0.000142117
0.000199465
0.00702512
0.000168213
0.000151431
0.00870329
0.000286293
0.000141062
0.000153227
0.000152111
0.000142107
0.000179446
0.000142418
0.000170197
0.00013775
0.00013712
0.000144868
0.000142973
0.000148473
0.000153486
0.00348464
0.000162782
0.00792329
0.000139236
0.000154615
0.000144509
0.000896179
0.0172188
0.00014186
0.000171182
0.000146751
0.000135046
0.000142788
0.000135191
0.000140999
0.000214368
0.000144867
0.00637087
0.000143817
0.000140086
0.0134364
0.000151446
0.000146526
0.000141492
0.000142137
6.99945e-05
0.000179108
0.0167796
0.000192536
0.0259293
0.000144214
0.000146072
0.000147085
0.000151671
0.00018271
0.000182494
0.00246537
0.000140275
0.000168086
0.000147782
0.0073696
0.0217893
0.000152496
0.0424903
0.0245753
0.000152895
0.000165521
0.000140102
0.000170479
0.000149252
0.000190006
0.000169358
0.000136496
0.0419171
0.00948941
0.000145293
0.000149549
0.000146784
0.000243724
0.00014567
0.000145779
0.00899698
0.000139087
0.00767252
0.000155504
0.000158659
0.000147734
0.000146277
0.000244142
0.000141571
0.000492184
0.000152094
0.000142532
0.000138397
0.000178893
0.00014816
0.0142832
0.000148051
0.000163269
0.000151135
0.000188647
0.000149936
0.000142569
0.00990734
0.00014562
0.000136522
0.0134011
0.0112563
0.000163286
0.000137111
0.000147299
0.00989479
0.000191981
0.000141693
0.000255583
0.000164733
0.000233165
0.00468161
0.000147038
0.000141363
0.000193716
0.000140224
0.000138545
0.000143174
0.000185637
0.0375179
0.000259025
0.000161
0.000146289
0.00014747
0.00745874
0.000160466
0.000156293
0.000145837
0.000140781
0.000276922
0.0288301
0.0306012
0.000142163
0.000208445
0.000135095
0.000134946
0.000152659
0.000147264
0.000167637
0.000143047
0.00265873
0.0066866
0.0414233
0.000151678
0.000144084
0.000144355
0.000165471
0.000137663
0.000142164
0.000158706
0.000143929
0.000142328
0.00014722
0.000161023
0.000134789
0.0392486
0.000168088
0.000163426
0.00015077
0.00036709
0.000150337
0.0236962
0.000143126
0.000142396
0.00014397
0.000140863
0.000143799
0.000139941
0.00020189
0.000214928
0.000144682
0.000148285
0.000142027
0.000164468
0.000149095
0.000177414
0.000147559
0.00429492
0.00014273
0.000146176
0.000144648
0.000189417
0.000144013
0.00548917
0.000143996
0.000144153
0.00013012
0.00522355
0.000150212
0.010245
0.00300998
0.000146459
0.000143943
0.000141443
0.000143388
0.000180611
0.000147834
0.00015279
0.00509314
0.000144727
0.00015496
1.61954e-05
0.000150651
0.000206469
0.00014397
0.000150783
0.000140451
0.000136317
0.000135206
0.000143049
0.000250386
0.000194204
0.000139271
0.00946522
0.000333098
0.000142377
0.000238669
0.000136085
0.000158934
0.000149419
0.000140665
0.000800114
0.000143804
0.000152549
0.000150642
0.00017993
0.000184595
0.000146776
0.000140319
0.000147947
0.0428992
6.6442e-05
0.000164333
0.000155115
0.000143713
0.000143414
0.00635937
0.00014481
0.000157696
0.000129429
0.00768671
0.000143719
0.00016342
0.000143655
0.000145866
0.000158686
0.000159472
0.000156545
0.000147727
0.000146794
0.000154118
0.00161968
0.000201824
0.000136555
0.000153067
0.000186339
0.000150672
0.000167351
0.000145072
0.000145662
0.000142979
0.00015748
0.0211808
0.000170503
0.000143685
0.00129364
0.000164059
0.000154965
0.000144155
0.000142981
0.000143122
0.000145861
0.000179451
0.000155588
0.000148472
0.000147552
0.000142913
0.000143667
0.00022824
0.000143458
0.000143318
0.000145989
0.0084833
0.000223879
0.000143628
0.00014169
0.000143933
0.0129748
0.000146807
0.000291706
0.00014379
0.000176008
0.000143639
0.000144447
0.00019118
0.000145443
0.000160906
0.0001458
0.000143971
0.00013623
0.000148284
0.000237139
0.00014529
0.000147289
0.00700269
0.000143924
0.000147665
0.000147502
0.000144464
0.000142139
0.000146809
0.000302789
0.000138641
0.000139172
0.000140082
0.000386305
0.000151645
0.00737519
0.000144092
0.000145027
0.000555288
0.000375754
0.005341
0.000154166
0.000161033
0.00539647
0.000143975
0.0152243
0.000146313
0.000193483
0.000140336
0.012613
0.000118437
0.000130206
0.000150274
0.000152945
0.000147634
0.000143007
0.000527271
0.000139688
0.005532
0.000145507
0.000143313
0.000145914
0.0001442
0.000145879
0.000219653
0.000142926
0.000141533
0.000141507
0.000144146
0.000143183
0.000107146
0.0172397
0.00680539
0.000143921
0.00015353
0.000151265
0.000143941
0.000142778
0.000189379
0.000167122
0.000147743
0.00014286
0.00017749
0.000149123
0.000555464
0.00217024
0.000148749
0.000135851
0.000142635
0.000178412
0.0117079
0.000143512
0.000142078
0.000172311
0.000199284
0.000170235
0.018891
0.00014263
0.000159252
0.000158256
0.000139011
0.000146017
0.000335628
0.0116858
0.000310492
0.000142477
0.01842
0.000145706
0.000143745
0.000164187
0.000147035
0.00016481
0.00016117
0.000142154
0.000143937
0.000142653
0.000139595
0.000135023
0.000141532
0.000152455
0.0121505
0.000199297
0.000130138
0.000134567
0.000142543
0.000146542
0.000142819
0.0083247
0.000147258
0.000147466
0.000147032
0.00518535
0.000142338
0.00014982
0.000934455
0.000142727
0.000142474
0.0329542
0.000141959
0.00014312
0.000142267
0.000297664
0.000192691
0.000165327
0.000145944
0.000271338
0.0001516
0.000134705
0.00013662
0.000142247
0.000173163
0.000142477
0.000145412
0.000169368
0.00014294
0.00712435
0.000159359
0.000157471
0.000146054
0.00013667
0.000159495
0.000143753
0.0001415
0.000148232
0.000144564
0.00014275
0.000329252
0.00014025
0.000191916
0.00014171
0.00014418
0.0260513
0.000140996
0.00664241
0.000185636
0.000142586
0.000485168
0.000141577
0.000146858
0.000142347
0.000146032
0.00013846
0.00014279
0.000142393
0.000142745
0.000214823
0.000144001
0.000140218
0.000146549
0.000138986
0.000142013
0.000142007
0.000143498
0.000137039
0.000142778
0.00014222
0.000143204
0.000142313
0.000146471
0.00380009
0.000143831
0.000147667
0.000167205
0.0124208
0.000148218
0.000178211
0.000140346
0.000143295
0.000142498
0.000143272
0.016797
0.0119813
0.000141364
0.000148835
0.00408176
0.000144203
0.00171347
0.00686709
0.000138561
0.00215126
0.0001439
0.000518182
0.00015066
0.000340721
0.00292177
0.0121269
0.000140426
0.000141289
0.000158909
0.000151189
0.000191835
0.000148189
0.000207361
0.00551164
0.000143418
0.0014404
0.000171487
0.000249503
0.000136418
0.000159068
0.000156704
0.000142452
0.000140704
0.000179322
0.00016085
0.000159972
0.000164153
0.000159452
0.000162211
0.00986259
0.000141066
0.000142099
0.000141644
0.00053204
0.000164153
0.000165171
0.000260805
0.00163955
0.000278652
0.000140833
0.000164322
0.000142076
0.000161972
0.000143077
0.000147085
0.000176407
0.000152518
0.000121606
0.000137498
0.00557395
0.000169501
0.000190113
0.00568386
0.0173343
0.000141358
0.000142995
0.000142922
0.000732736
0.00014344
0.000139579
0.000142916
0.000156328
0.00783655
0.00431388
0.000164075
0.000202917
0.000843286
0.000165145
0.00565261
0.0001855
0.000171226
0.000165151
0.000341582
0.00149707
0.00014137
0.000141471
0.000141471
0.000242396
0.000211678
0.000167062
0.000149551
0.000142162
0.000142022
0.000235051
0.000141782
0.000141791
0.000140916
0.000160751
0.000140131
0.000141646
0.000135994
0.000153922
0.000651298
0.000157838
0.000158758
0.000144118
0.011733
0.000159205
0.000147621
0.000142893
0.00223588
0.000326032
0.000144103
0.000144236
0.000292858
0.000141581
0.000140541
0.000140272
0.000143205
0.000175467
0.000140508
0.000144277
0.000141361
0.000144771
0.000142042
0.000141509
0.00014098
0.000142056
0.00014264
0.000214936
0.000142339
0.000138246
0.00017412
0.000178721
0.000177966
0.000177103
0.000140374
0.00010911
0.00014265
0.000180731
0.000141137
0.000176674
0.000141394
0.000142204
0.000134523
0.000173501
0.000163399
0.000141928
0.000329721
0.000141906
0.000134638
0.000141951
0.000147935
0.000155772
0.000140235
0.019565
0.000143702
0.0080201
0.000177005
0.000142743
0.000160681
0.000140516
0.000137729
0.000141866
0.005949
0.000178056
0.000564322
0.000190058
0.000393502
0.000154631
0.000162865
0.00016463
0.000142529
0.000134535
0.00029624
0.000199945
0.000140338
0.000169373
0.000140095
0.00014067
0.0145584
0.000137321
0.00014229
0.000136125
0.000164518
0.027275
0.000142393
0.000140755
0.000209455
0.000140069
0.000170842
0.000212464
0.000141866
0.00117291
0.000350726
0.00267075
0.000142852
0.000147312
0.000141433
0.000139427
0.00268546
0.000144767
0.000143404
0.000164904
0.000138117
0.000243837
0.000142706
0.000147839
0.000163732
0.0202026
0.000161511
0.000144762
0.00024069
0.00813269
0.000142098
0.000201233
0.000144412
0.000142211
0.000142677
0.00014044
0.000164068
0.000157442
0.000205491
0.000141651
0.00016436
0.000145213
0.000132967
0.000140825
0.000142393
0.00015545
0.000139081
0.000141985
0.000145744
0.000143252
0.0166815
0.00014316
0.000146315
0.000172969
0.000146968
0.000135026
0.0130315
0.00867114
0.0109948
0.00873289
0.000178894
0.000137493
0.000146863
0.011415
0.00743205
0.000334321
0.00244519
0.0126295
0.00014387
0.0136877
0.0260506
0.000143764
0.000207537
0.000146453
0.0290623
0.00200067
0.00647459
0.000146492
0.000140697
0.000174531
0.00014226
0.000142878
0.0135159
0.00284386
0.000142846
0.000143453
0.00014172
0.00709713
0.000141219
0.000141009
0.00014219
0.000140507
0.000140621
8.95755e-05
0.000146558
0.000140199
0.000142938
0.000160508
0.00602082
0.0282238
0.000142298
0.000141456
0.000148448
0.000142301
0.000140457
0.000141478
0.0268017
0.00014198
0.000163474
0.000141507
0.000143491
0.00013573
0.000142493
0.0021878
0.00180419
0.000137166
0.000144635
0.00123556
0.00975841
0.000113208
0.0297029
0.000142466
0.000160482
0.00014129
0.000132824
0.000141245
0.000134866
0.000140981
0.000142233
0.000144377
0.000182495
0.000139053
0.000422258
0.0289197
0.000138482
0.000146568
0.000166337
0.000146153
0.000141435
0.000142113
0.000143746
0.000141007
0.0076588
0.000135398
0.000141438
0.00554538
0.000141222
0.000142554
0.000140343
0.000225057
0.000143185
0.000143113
0.0270767
0.000138029
0.000137588
0.000141177
0.000214177
0.000142235
0.000130804
0.000141213
0.000140848
0.0169476
0.000189493
0.000140748
0.0141574
0.000133954
0.000142131
0.000150777
0.00184584
0.00844577
0.000133714
0.000152282
0.000142703
0.000141526
0.000141276
0.000141214
0.000949022
0.00733791
0.000142306
0.000146147
0.00417701
0.000140174
0.000140994
0.000162347
0.000154594
0.0262623
0.000142384
0.000150849
0.0060849
0.000141381
0.000164162
0.000664806
0.000885066
0.000143674
0.000140115
0.000141916
0.000141496
0.000140287
0.00579305
0.000140898
0.00753649
0.000225981
0.000146752
0.000163658
0.00168233
0.000158762
0.00304356
0.000104569
0.000299925
0.000153931
0.000141784
0.000150958
0.00460019
0.000139104
0.000870186
0.000140167
0.000134278
0.000133796
0.000134358
0.000141439
0.00901266
0.000144112
0.0159406
0.0011218
0.000185182
0.00266596
0.00013337
0.000143197
0.000149291
0.000220988
0.000141718
0.000739743
0.000156863
0.0001339
0.000139941
0.00601689
0.000139907
0.000166428
0.0120357
0.000140834
0.00487795
0.000145853
0.000183666
0.000164563
0.000143245
0.000137541
0.000182606
0.000126231
0.000141907
0.000149337
0.000134551
0.000215045
0.000139467
0.00378876
0.000140545
0.000144721
0.000176033
0.000134347
0.00497241
0.000143374
0.000141812
0.000141733
0.00748054
0.000140312
0.00013964
0.00219076
0.000169444
0.000292887
0.000144232
0.000134553
0.000161943
0.000976819
0.00040195
0.000232697
0.000158518
0.00016047
0.000143858
0.000142394
0.000164897
0.000145564
0.000141492
0.000136232
0.000142021
0.00016534
0.000139873
0.000130702
0.000143678
0.000137455
0.000144685
0.000166135
0.00253502
0.00164744
0.000163321
0.00245009
0.00705688
0.000137853
0.000140033
0.000146762
0.000161335
0.000136521
0.00014468
0.000139753
0.000140565
0.000141514
0.00017524
0.000142239
0.00050189
0.000142423
0.000139558
0.00038035
0.000161688
0.000145205
0.000139743
0.000139351
0.0248608
0.00724703
0.000143544
0.000135159
0.000174826
0.000139966
0.000142159
0.000140583
0.00020937
0.00014043
0.000139301
0.000162949
0.000136821
0.00018802
0.000164374
0.000140734
0.000142617
0.00548133
0.000982417
0.00201452
0.00143427
0.000164357
0.00014979
0.000145588
0.000142415
0.000170522
0.00013923
0.000319429
0.0169542
0.000148462
0.000162006
0.000785823
0.000139483
0.0091541
0.000167714
0.00141473
0.000180395
0.000138844
0.000139002
0.000145624
0.000141058
0.00100432
0.00813747
0.000310365
0.000141739
0.000139933
0.000139347
0.00135459
0.00016783
0.000506265
0.000139513
0.000144026
0.000274374
0.000140867
0.00034742
0.00144428
0.000139527
0.000142849
0.000132477
0.000142244
0.0104247
0.0227865
0.000139381
0.000140908
0.000138048
0.00193063
0.000141583
0.000151165
0.000228001
5.20615e-05
0.0224856
0.00133235
0.018776
0.000142282
0.000155672
0.000144404
0.000141108
0.000149639
0.0101894
0.000136733
0.000141353
0.000544575
0.000142201
0.000167969
0.00871915
0.000141495
0.000141246
0.000409972
0.000158785
0.000134808
0.000134898
0.0001669
0.000140237
0.000178435
0.0210898
0.000278631
0.0249829
0.000140275
0.000251571
0.00021758
0.000281833
0.00457934
0.000154388
0.0249628
0.012526
0.000482528
0.00013762
0.000140572
0.000135934
0.00014206
0.000184241
0.000138714
0.000174984
0.000150526
0.000148949
0.000142632
0.00284355
0.000142848
0.000172481
0.000155697
0.000162711
0.000222974
0.000247726
0.000331826
0.000131923
0.000161577
0.000142039
0.000354065
0.000143187
0.00017238
0.000126779
0.000180775
0.0136076
0.000138899
0.000472345
0.000164499
0.000172469
0.000143152
0.000792507
0.000143855
0.000139574
0.000141947
0.0138832
0.00014345
0.000182251
0.000241664
0.000159088
0.000232297
0.000139205
0.000134246
0.00203389
0.000174281
0.00874276
0.0114242
0.000139604
0.00765386
0.00970817
0.000171645
0.00013808
0.000288539
0.0110991
0.000138737
0.000184184
0.000132881
0.000257501
0.00697472
0.0125892
0.000334388
0.000138955
0.000137953
0.000145387
0.00013466
0.000153313
0.00016433
0.000147294
0.000136649
0.0091189
0.000151107
0.000144026
0.000370136
0.00139009
0.0141795
0.000184023
0.000162578
0.000153046
0.0297833
0.000138869
0.0048327
0.000142737
0.000163793
0.0338652
0.000147517
0.00895023
0.000136333
0.000136944
0.000139045
0.000139183
0.000137937
0.000139334
0.000132516
0.00667318
0.00016456
0.0001405
0.00611437
0.000139581
0.000145205
0.000137823
0.0156759
0.000141755
0.000148803
0.000247588
0.000224777
0.000139693
0.00013277
0.0234904
0.000141813
0.013779
0.032903
0.000145186
0.00014518
0.000159356
0.000144434
0.000237296
0.000135504
0.000137792
0.000152378
0.000175145
0.000150015
0.000300188
0.000224446
0.000151665
0.00014583
0.000175877
0.00014676
0.000207506
0.00828383
0.00013724
0.0131894
0.000213152
0.000142571
0.000139843
0.000139786
0.000139559
0.000137847
0.000140558
0.000138539
0.000150323
0.000208154
0.000151776
0.000143538
0.000150346
0.000152648
0.000137498
0.000138295
0.000292623
0.000147737
0.000157988
0.000137377
0.000147549
0.000137215
0.000134025
0.00468591
0.000142916
0.000140965
0.00119978
0.0170728
0.000112341
0.000139548
0.00463724
0.000143626
0.00293319
0.00597983
0.000146173
0.018061
0.000138079
0.000135598
0.010883
0.000139223
0.00017497
0.00672843
0.00105251
0.000164363
0.000217139
0.00014474
0.000139311
0.000153484
0.000137867
0.000561344
8.70234e-05
0.000139427
0.00361647
0.00382674
0.000132148
0.000137987
0.000213647
0.000159226
0.000171278
0.000178837