/*--------------------------------*- C++ -*----------------------------------*\
| =========                 |                                                 |
| \\      /  F ield         | OpenFOAM: The Open Source CFD Toolbox           |
|  \\    /   O peration     | Version:  v2012                                 |
|   \\  /    A nd           | Website:  www.openfoam.com                      |
|    \\/     M anipulation  |                                                 |
\*---------------------------------------------------------------------------*/
FoamFile
{
    version     2.0;
    format      ascii;
    class       surfaceScalarField;
    location    "900";
    object      meshPhiCN_0;
}
// * * * * * * * * * * * * * * * * * * * * * * * * * * * * * * * * * * * * * //

dimensions      [0 3 -1 0 0 0 0];
oriented        oriented;


internalField   nonuniform List<scalar> 
14516
(
-0.00309264
-0.0092101
0.0126666
-4.86559e-06
-0.000145372
0.000177342
0.0104956
-0.0131959
0.00589855
-0.00764881
0.00130897
0.0162315
-0.0111094
-0.00491473
-0.0149245
0.00185287
0.0131377
-0.000463998
5.33362e-05
0.000861015
-0.00230865
0.00150121
0.00026866
0.0116226
0.0011271
-0.0130279
0.0067464
0.00972371
0.0122233
-0.0151135
0.00300277
0.011294
-0.000824873
-0.0104583
0.006058
-0.000978029
-0.000119515
-0.00190719
0.00193213
0.000675154
0.000470987
-0.00169321
-3.53345e-05
0.00167587
-0.00702115
0.00227956
0.00441792
-0.00239468
-0.00454593
0.0145147
-0.00145604
-0.0129274
-0.00190807
-0.00109006
-0.0128469
0.0139316
0.00179281
-0.0154656
0.0132638
0.00436431
-0.00147824
-0.00288573
2.59784e-05
-2.59784e-05
0.00873829
-0.00119312
-0.00752755
0.00379297
0.00115483
0.00146509
1.25824e-05
-0.0014986
-0.000135331
-0.00431202
0.00415724
-0.0183409
0.00615423
0.0123673
0.0121746
-0.000938721
0.0127135
-0.0149369
0.00242217
0.000860343
0.00353279
0.00545735
-0.00112666
-0.00410177
-6.25165e-05
-7.23227e-05
3.16829e-05
0.00679486
-0.0209043
0.0141899
0.0145482
-0.00162492
-0.012802
-7.5766e-06
-0.000280629
-0.0133648
0.0147404
0.00510621
-0.00359109
-0.00128135
-0.000205214
0.000777065
-0.00107012
0.0164135
-0.00358918
0.00222629
-0.00044886
0.00229499
-0.00404232
0.000760978
0.000107175
-0.000731259
0.000914512
0.00185057
-0.000997476
-0.00103974
-0.0115034
0.00018731
-0.00193764
0.00173023
-0.00169035
-0.0112162
0.0126421
-0.00192664
-0.00598387
-0.00959525
-0.0112128
0.000231625
-0.0122732
0.0120584
0.0149249
-0.0035533
-0.0114999
-0.0172467
0.0178821
-0.00069678
0.00159395
-0.0100387
0.00844578
0.0128431
-0.0130388
0.00038786
-0.00789789
0.00834381
-0.0119892
0.00305873
0.00896056
0.0105845
0.000367142
-0.0106465
0.00330195
0.00150222
1.43709e-05
0.000194659
-0.00037491
0.0155327
-0.00243106
-0.0132669
0.011247
-0.0128982
0.00159444
0.000200571
-0.000505875
5.05923e-05
0.00944802
0.00493652
-0.000653638
-0.00507758
0.00570992
0.0141157
-0.00282346
-0.0121078
0.0134115
-0.00139684
0.00154855
0.00977464
-0.000979525
0.0132139
-0.00986092
0.0114458
3.99796e-05
1.73345e-13
-4.21635e-05
0.00946978
-0.00191948
-0.00849006
-0.000547603
0.000454334
7.16528e-05
0.00437213
-0.0138162
-0.0002333
0.0110868
-0.00124783
-0.00989459
0.0107487
1.64251e-05
-2.20054e-09
-1.05914e-05
-0.00417808
0.000946194
0.00292829
-0.00632275
0.00183824
0.00427027
-0.00421512
0.00356301
-0.00421044
0.000943496
0.0031791
9.59403e-05
1.22634e-07
-7.35454e-05
-3.33385e-05
-0.0026473
0.00265103
0.0151698
0.00126086
0.000164727
-0.00206203
0.00191993
-0.00453377
-0.002107
2.555e-05
-0.011309
0.0108259
-0.0139261
0.0146149
-0.000630065
0.00406777
-0.000922529
-0.00311403
-0.00030216
0.000321312
-0.0013307
-0.0112035
0.0125805
0.00334674
-0.0026953
-0.000683486
0.00437153
-0.00349639
0.00143208
-0.00286566
0.00280325
0.0131485
-0.000280868
0.000124523
9.06726e-06
0.000982782
0.00238778
0.00035225
-0.00161421
0.00124131
-0.00124781
0.00158333
0.00524066
-0.000936801
-0.00434876
0.0045549
-0.000939112
-0.00354631
0.00361429
0.000992929
4.94311e-05
1.47746e-06
0.0161192
-0.00108181
0.0167359
-0.00233774
-0.000111247
3.53929e-08
8.47867e-06
0.0125294
0.00249937
-0.000324938
-0.00148927
0.00173095
1.67374e-07
3.62695e-05
0.000457238
0.0116757
-0.0123035
0.0136486
-0.010198
-0.00303663
0.0149464
-0.0116044
0.0116979
-0.01145
-0.00946176
0.000770473
-0.00458827
0.00403257
-0.00935385
0.0138798
-0.0007609
-0.00351816
0.00378677
0.000715975
0.00130572
-0.0017079
-2.80254e-05
6.40938e-06
6.88446e-06
0.0145541
-0.0148955
0.000466752
-0.000523072
-0.0143854
-0.000762024
-0.013955
0.0146013
-0.0129547
0.0118584
-0.0117056
0.00277996
0.00903925
0.00237712
-0.00218854
-0.000711127
-0.003711
-0.0132562
0.00333418
0.00948939
5.11035e-06
4.02493e-05
-4.8537e-05
-0.0103028
-0.00657303
-0.00714686
-0.00059847
-0.00525632
0.00559342
0.00951573
0.00250198
0.000479165
-0.0117767
0.0109139
-0.00012345
-9.98934e-05
-0.000897829
0.00127229
0.00151338
0.0128993
0.000314891
-0.000342648
-6.33819e-06
8.85914e-05
0.0144179
0.00867967
-0.000856865
-0.00789714
-2.97527e-05
0.000174715
-0.000249156
-0.000325278
0.00138331
-0.00119693
-0.00210158
8.24809e-05
0.000164616
0.00208658
-0.00230624
4.67002e-06
9.21398e-05
-7.22478e-05
0.00130767
-0.00178682
0.00447333
-0.00126391
-0.00316756
0.0102377
-0.0115316
0.00903558
0.00207376
-0.0108948
-2.98638e-05
3.1238e-05
0.0119919
-0.00268358
-0.00495572
0.0119569
0.00121069
0.00329878
-2.16217e-05
-1.55496e-05
-3.19983e-05
0.000325364
-0.000263721
0.00116612
0.00741707
-0.000351634
0.0015834
0.000902952
-0.00103633
-0.00235988
-0.000546977
0.00362365
-0.00401853
9.61057e-05
0.00121779
-0.0013934
-0.00274418
0.016567
-0.013834
-0.000339515
0.000122368
0.00025663
-0.0150837
0.00248528
-0.00189045
-0.0197026
0.018086
0.00156697
0.00152569
-0.000100988
0.000747266
-0.00490355
0.0039103
-0.0120223
0.00371936
0.00870839
0.00297766
-0.00575216
0.00289292
-0.000206929
-7.30646e-05
-0.00243637
0.00563384
-0.00158762
-0.0127249
0.0140907
0.0117582
-0.0112066
3.06544e-05
-1.42606e-05
-3.72469e-06
0.00204533
-0.0100526
0.00774827
0.0205864
-0.00953157
-0.0111225
0.0107762
-0.00808883
-0.00265052
-0.0138574
0.0127393
0.000968623
-0.00167464
0.0077966
0.0106369
0.000221355
-0.0105973
0.00873967
5.31368e-06
-0.00263321
-0.00927875
-0.0070398
0.00883039
-0.000346227
0.0142016
-0.0135992
-0.00134516
0.00136433
-0.0147494
0.0129531
0.0123156
-0.000195018
-0.0128008
0.0112875
-0.0132611
-0.0116305
0.0119312
0.00182787
0.0049207
0.0154823
-0.0173795
0.00439496
0.0130942
-0.000385229
-0.00364555
0.00394241
-0.0124858
0.0078138
1.79515e-05
0.000294396
0.0112622
-0.00183503
-0.00509049
-0.00942905
0.0146088
-2.17757e-05
-0.0127067
-0.0109358
0.00832155
0.00233005
-0.000817287
-0.0112336
6.14114e-05
1.1413e-06
-0.000576454
6.16816e-05
0.00156186
-0.00175961
0.0142695
0.00155517
-0.0163485
-0.000388843
0.0162185
0.000891402
0.0138549
-0.0146735
-0.000808874
0.0117337
0.00126806
-0.0126331
-0.0130239
-0.00453979
-0.00772907
-0.00956568
0.000328325
-0.000330762
-0.000589949
-0.00416914
0.00439038
-0.000630122
0.011447
7.36949e-05
-3.78963e-06
0.012349
-0.011607
-0.000654103
-0.000872023
0.0138133
-0.0124806
-0.00470474
-0.00886953
0.0130986
-0.0135875
4.11013e-05
0.0112703
-0.000101203
-0.0025579
0.0115128
-0.0132055
0.0151314
-0.00423033
0.00313926
0.00104825
0.0115891
-0.0120541
0.00129755
-0.012368
0.0110532
9.52028e-06
5.96437e-06
-6.99446e-06
-6.64e-06
-0.00359493
-0.0105408
0.000121287
-0.000214373
0.000120172
-0.0128633
0.00245099
0.0104401
0.0112945
0.00106397
-0.0125194
0.0125984
0.000125951
0.0108437
-0.0103396
-0.000247686
0.000409454
0.0127664
0.00104339
0.00338685
-0.00437881
0.0149679
-0.00110294
0.0001201
-0.00204533
0.00183098
5.79307e-05
0.00832026
-0.00813625
0.00504621
0.000417078
-0.0101566
-2.09e-05
0.0100174
-0.0038659
0.00265755
6.15716e-07
0.000884249
0.0090008
-0.00788794
-0.00286474
-0.000225572
5.50038e-05
0.00167805
0.0103541
-0.012138
-0.0194469
0.00223996
0.0171442
-0.00101583
0.0127168
0.00184928
-0.0116793
0.00984887
-0.00853536
0.00974363
-0.000856934
-0.000699985
0.0155268
-0.0151568
-0.0123366
0.0104266
0.00201377
-0.00542709
-0.0141208
-0.000894731
-0.0123861
0.0134266
-0.000272752
-0.00157794
0.00167009
0.00161369
0.000550125
-0.00224471
0.000439477
-0.0120725
0.0110539
0.000204807
-0.000275977
-1.21086e-05
-0.00446276
-0.0152524
3.74463e-05
-5.01637e-05
5.29627e-06
-3.38131e-06
1.82886e-05
-0.0129388
0.0138983
0.00480617
-0.0141536
-0.0139828
-0.00307315
0.0173451
-0.00149962
0.00108474
-0.00014439
-0.00107712
0.00125892
-0.0219625
0.00606344
0.0159848
-0.00155066
-0.0101187
0.0111404
0.000205556
0.000149503
-0.000372504
-7.84307e-05
0.00027225
-0.0081691
0.000542763
-0.0123388
-0.000298421
0.00492821
-0.00591244
-0.00983365
0.000716494
0.00827178
2.95433e-06
-2.62083e-05
-3.55323e-07
0.000474177
-0.000788247
0.000447776
-0.00126644
0.00062205
0.00596572
-0.0110641
-0.0113261
0.0129034
-0.0238641
0.0101039
0.0137126
-6.68089e-05
-0.00168225
0.00201237
0.0108548
-0.0119578
-0.0104257
-0.00340096
0.00435726
0.00209702
-0.015461
0.0138528
-0.000561078
5.38475e-06
4.98235e-06
1.33632e-06
0.0049078
-0.00574713
0.00100368
-0.0153661
0.0141382
-0.0111941
-0.0127781
0.00625517
-0.00770907
0.000255765
-0.00857795
-0.00426142
0.0132577
-0.00299445
-0.00318972
-0.00396429
0.00695458
0.00438906
0.000319506
-0.0049451
-0.000225559
3.20875e-05
-0.00093383
2.77732e-05
0.00120861
0.000472545
0.000941014
-0.00156281
-0.00707532
-0.014828
-0.0101713
-0.00570154
0.0157991
-0.00788754
0.00779548
0.000119268
0.00253587
-0.00586395
-0.000147808
0.00593515
-0.00756759
-0.00098803
0.00131437
0.00509971
-0.0153425
0.01423
-0.000692266
-0.0137439
-0.0151332
0.0120579
0.00290511
0.00351433
0.000610315
0.00226566
0.00850349
-0.00784147
-0.000792704
-0.0202012
0.0172524
0.00294062
-0.0185198
0.00173782
0.00772685
-0.00741384
-0.000593158
-0.000390682
-0.0178317
0.00802817
0.00987523
-1.27951e-05
0.000455167
4.10103e-05
2.63848e-05
0.00423176
0.00660355
0.00156185
-0.0161113
0.0142584
-0.0101042
0.0107695
0.00304947
-0.0121437
-0.00105323
0.00118392
-0.000156353
0.0127288
-0.0112808
0.0149632
0.00448313
0.000509865
0.0133401
0.00119595
0.00202957
0.00730693
-0.00923736
0.000351542
-0.000838622
-0.000140803
0.00215714
-0.00234922
0.00800579
0.00352356
-0.00019667
-0.000199291
0.000374362
-0.00505326
0.000500439
-0.0157548
0.00982201
0.00617557
0.00302222
-0.0106386
0.00712964
0.000457347
0.00514793
-0.00368361
0.00477822
-0.00151446
0.00142902
-1.40596e-05
0.0137132
-0.0163101
0.00215265
-0.000302101
-0.0112699
-0.0146176
0.000485063
0.0140375
0.0113767
-0.0145051
0.00301949
0.0143988
-0.014417
-0.000135229
-0.00463353
-0.00676009
0.0013606
0.00515452
0.00393057
0.0138229
-0.0159196
0.0167712
-0.000871543
3.59273e-05
-0.0172546
0.00753291
0.00992599
0.00117661
-0.0109931
-0.0111557
0.00857686
-0.00797283
-0.0090547
0.0158271
-0.00250736
-0.00442428
0.00602551
-0.00161342
0.00529757
-0.0129372
0.000365628
-0.000491246
-0.000640555
0.00219407
0.00406709
-0.00057657
0.000221779
-7.20061e-05
-0.000337317
0.00447196
0.0138939
-0.000912647
-0.00833492
-0.00944266
0.0136194
-0.00241975
-0.00326877
-0.00952083
0.00930398
-0.0108127
0.000455197
-0.00960514
0.0089223
-0.00661852
-0.000393926
0.00635354
-0.0043137
-0.0151079
0.00198595
0.0131012
0.000286887
0.0133916
-0.0143943
-0.0167383
0.00295499
0.0133955
0.000588902
0.0109433
-0.000782867
0.00541871
0.00183256
-0.0167865
0.0145619
-7.21988e-05
-2.99613e-05
0.000108109
0.000331418
3.21253e-05
-0.00152163
-0.0130111
-0.00182917
0.0148191
-0.00278839
-0.00388904
0.00877779
-0.0143761
0.00524453
0.000677416
0.00966858
8.91626e-05
0.0025385
-0.00260671
0.0134302
0.0120798
-0.0108085
-0.000261828
0.000207656
1.92469e-05
-1.83991e-05
-0.000498715
0.000423127
0.0104304
-0.00225442
-0.0113727
0.0119497
-0.000551426
-0.00246412
0.00257367
0.00198688
-0.00195855
-0.00149888
0.0106218
-0.00920873
-0.0067105
-0.00546491
0.0122739
0.00107798
-0.00118646
-0.0134262
0.0106568
-0.00985623
-6.03165e-05
-0.0156238
-0.000119896
0.00123862
0.0141825
0.000733253
-0.014759
-0.00551767
0.00797159
-0.00407354
-0.011129
-0.0125689
-0.00164413
-0.00310947
0.00164627
0.000423172
0.00465075
-0.00508524
-0.0138243
-0.0056063
0.00602169
0.000725633
0.00338389
0.00275096
-0.00217024
0.00227834
-0.0120528
0.0141271
-0.0019541
0.00377165
-0.00526075
-0.00500385
-0.0103202
-0.0101322
-0.0149183
0.0132421
0.00120378
-0.0121798
0.0114179
-0.0140984
0.00128229
-0.000106704
0.00412342
-0.01365
-0.00130291
0.00256196
-0.00116369
-0.017027
0.0117832
-0.00126187
-0.000114362
0.0013254
-0.00169361
0.00349942
-0.00175498
-9.05349e-05
0.00171105
-0.00342366
-0.00366622
0.00417496
0.000674982
-0.0116211
0.0107556
0.000112238
0.00135396
-0.000558785
0.000730034
-0.000836912
0.000647751
-0.00458092
0.0129779
-0.0106467
0.0106811
0.00314178
-0.00361118
0.0115159
-0.0102841
0.000123554
-0.00721347
-0.00498163
-0.0146711
-0.0153315
0.00869352
-0.0103863
-0.00443606
0.0124988
-0.00130156
-0.0111787
-0.0119267
0.0107634
-0.0169469
0.0119518
-0.00615635
-0.00564499
0.00939742
-0.0164496
0.00703953
-0.0122436
0.0163662
-0.000576455
0.0149808
2.05455e-07
-0.00330606
0.00387745
-0.000539009
0.00439474
-0.0061338
0.00618026
-0.00534555
-0.000568947
-0.0131269
0.00992159
-0.0156139
0.00083359
0.00285461
-0.00379053
0.0147732
-0.0148497
-0.00467426
0.00381538
0.000107517
3.50042e-06
2.62393e-05
0.0115197
-0.0110744
-0.0168016
0.0125927
-0.0112192
0.0107652
-0.00336414
-0.00118082
-0.0214305
0.0144586
1.57943e-07
-7.01071e-06
-0.000248751
8.06992e-05
-4.19195e-06
5.24791e-05
-6.53735e-05
0.00370863
0.0162852
-0.00700171
-0.0046313
0.00061462
0.00585311
0.000115184
0.00120403
-0.00129431
-0.000747796
-0.000261989
0.00121339
-0.0112907
0.0101199
0.0019478
-0.000710293
0.00114663
-0.000963324
0.00552138
0.00682536
-0.00445874
0.00454771
0.0125667
0.0013081
-0.0135553
-0.0104358
-0.00229549
-0.0114501
0.000144526
-0.000253716
-3.98798e-05
0.000166778
-0.0149834
-0.00228005
-0.010904
-0.00850126
-0.00862102
0.00110848
-0.000968168
-0.000711707
0.00044227
-0.00139991
-0.000238395
-0.00417728
0.000485367
-0.00834659
-0.00901553
0.000654295
9.21398e-05
-0.000995959
-0.0109667
0.000271899
-4.9896e-05
-0.00020247
-0.0101709
0.020757
-0.0109022
-0.00986632
-0.000700531
0.00269566
-0.00202367
-0.0146614
0.017261
-0.0034717
0.00411798
0.0120774
-0.000576043
-0.00718212
2.01872e-05
0.0107236
-0.0107839
0.000166952
0.00932725
-0.00903486
-0.0110973
-0.00128862
0.0140092
0.000255165
-0.0156544
0.0131557
0.00259082
-0.00475747
0.00417053
-0.0140746
0.00179316
-0.00251717
0.00978267
0.0136346
-0.000998651
0.00193692
0.000377428
-0.00244107
0.00715843
0.000207315
-0.00751618
-0.00945533
0.00877564
0.00658834
-0.00270234
-0.00392764
0.00232484
-0.000432692
0.0102864
-0.00313342
-0.00769929
0.00144647
0.00526325
4.60075e-05
-0.00919306
0.00862487
0.0121728
-0.00254487
0.00693298
-8.95907e-07
0.00817776
-0.00772996
-0.000579008
-0.0136975
0.0139352
-0.000626377
-5.66842e-07
1.46162e-05
0.00558781
0.00362186
-0.011582
-0.0010085
0.0126168
-0.00930115
-0.00176365
9.93445e-05
-0.00112916
0.00496096
-0.00516009
0.000125918
0.000566732
-0.011903
0.0158839
-0.0159718
-0.000497559
-0.000251132
-0.00166297
0.00194147
0.00267724
-0.0184345
-2.05883e-05
-0.00771465
-0.0106019
-0.0109325
-0.0104222
0.00954007
-8.91514e-06
-7.83822e-06
0.0152751
-0.00839265
0.0184196
-0.0107568
-0.000825224
0.0113837
0.00124809
-0.000343384
-0.0027742
0.00487431
0.000495075
-4.42321e-05
-0.000417462
-0.00621637
0.001739
0.00138513
-0.0115863
0.000351793
-0.00467157
0.00181919
0.010701
-0.0124751
-0.00666259
-0.00890558
0.010404
-0.0104236
-0.0153766
0.0150355
0.00158886
-0.000299034
-0.0130092
0.011741
0.00130988
0.00527489
-0.000439283
-0.0023365
0.000112544
0.00208579
-0.014296
0.0128589
0.00142222
0.0103013
0.000855276
-0.0113221
0.000156948
-0.00124569
0.000993787
-0.00147361
0.00172134
-0.000294291
-0.000142838
0.000685896
-0.000924039
0.000835711
-0.0103921
0.0018734
0.00856641
-0.000141728
0.0013854
-0.00129922
0.000313528
-0.000381135
-1.38367e-05
-0.0123711
0.011969
0.000246818
-0.0108628
-0.00792288
0.0183819
-0.0120537
-0.00866536
0.00605904
-0.0122861
0.000164498
0.0115523
0.0142475
0.000915473
0.0141999
-0.000788292
0.0111205
-0.0124579
0.00756302
-0.00431426
-0.00344556
-0.00389719
0.000577618
0.0147005
-0.00896781
-0.0056838
0.00539841
-0.000155593
7.19672e-05
-0.0121111
-0.00930534
0.00959947
-0.0111673
0.0148126
-0.0133444
-0.0019371
0.0151551
-0.00938643
0.00962471
0.0089303
-0.0173501
-0.0144566
0.010462
-0.0178694
0.00663444
-0.00227111
0.00264533
-0.000247073
-0.00431028
0.0141636
0.00142324
-0.0210591
0.0155541
0.0136796
0.000332248
-0.00982876
-0.00682472
0.00896029
-0.00123027
-0.00773578
-0.00105992
0.0100916
-0.00930415
-0.0137481
0.00179415
0.0126239
-0.014974
0.0023351
-0.000586744
0.00100404
0.000104017
-0.0128587
-1.03555e-05
-0.00240442
0.00195298
-0.00477008
-0.000431848
0.00540698
0.000610128
-0.00501877
0.00915356
-0.00192297
-0.00134824
0.00324277
-8.08876e-07
8.08876e-07
0.000648618
-0.00355723
0.00166636
-0.00103237
-0.00342586
0.00417535
0.0161193
0.00018008
-0.0166064
0.000287916
-4.40966e-05
-0.000296769
-0.0104942
0.00935928
0.000270654
-0.000321749
0.000143619
-0.0122862
-0.000643693
0.0165175
-0.00698047
-0.00776936
-0.00217897
-0.0107372
-0.000757522
8.07263e-05
0.00859291
0.00110051
-0.010121
-0.0138819
0.0135311
-0.00179871
0.00163831
0.00016995
-0.00109829
-0.000126216
0.00118286
1.19783e-06
0.000259902
0.000133347
-0.00126177
0.00719975
-0.000496364
0.00735296
-0.00865759
0.00119928
-0.00139316
-0.0129939
0.0140777
-0.000952282
0.000207773
-0.00030934
0.00180966
0.000709178
-0.012699
0.0121421
0.000485179
-0.000900727
0.0110987
-0.00675325
0.00132221
0.00520588
-0.00120582
0.00112014
0.0134025
-0.0103326
-2.55628e-05
9.68423e-07
0.0141705
-0.0115592
-0.00254389
-0.00280985
-0.00755274
0.00571399
-0.00689767
-0.00128738
0.000678943
0.000679081
1.11211e-05
-2.8734e-05
-0.0048548
0.00792822
0.00113598
-0.00158831
-0.00305237
-0.00999782
0.0113126
0.000406484
0.00420141
-0.0039715
-0.00109508
0.00507446
0.0118062
0.00227658
0.00902655
0.00316644
-0.0123133
-0.00364548
0.0040758
-0.000452437
0.000967876
-0.00377286
0.0029042
-0.00136876
0.000133205
-0.000263106
-2.51758e-06
-0.0109244
0.0115982
-0.0110031
-0.000583801
-0.000209743
-0.000613281
-0.00880969
-0.00384397
0.0127113
-0.0111236
0.00617197
-0.00756161
-0.000299098
0.00458036
-0.00452423
0.00266137
-0.000214104
-0.00250602
-0.0122803
0.0113886
0.00937692
-0.0010822
-0.0218602
0.00948432
0.0122194
0.0151761
-0.00113342
0.00759513
0.00248354
-0.00051196
0.00274106
-0.000141496
-0.0109342
0.0113782
-0.00039653
0.000564403
0.00628217
0.00158757
0.0104331
0.00801626
-0.00866175
0.000712187
-0.00647342
0.00541746
0.00159073
-0.00182551
-0.00228019
0.00333803
-0.00411384
-0.000314488
0.00435271
-0.000199142
0.00181986
0.00390347
-0.00418032
0.000340788
0.000164486
-0.00205777
0.00184438
-0.00130657
-0.00254418
0.00372671
0.0125191
-0.0132687
0.000743643
0.00355289
-0.00755288
-0.00506199
-0.000972607
-0.000468671
-0.00400236
0.00387081
0.000163053
-0.000310274
8.8924e-05
0.000841288
-0.00408539
0.00299171
0.000112838
0.00121454
-0.000754574
-0.00134589
0.0011828
-0.00365368
0.000403653
0.00321835
0.0125131
-4.50507e-05
0.00287156
-0.000293532
-0.0025685
0.000118639
-0.0141403
-8.15714e-05
0.012496
0.000243099
-0.00607712
0.00594711
-0.000298816
0.0147874
0.0116883
-0.000831161
-0.00100267
0.0135552
-0.000326231
-0.00880086
0.00923077
-0.00129409
-1.84656e-05
-2.01992e-05
-0.000313505
0.0026687
-0.00249651
-0.0156628
-0.00111763
0.0166004
-0.00230173
0.00989323
0.000502172
0.00110487
-0.00194092
0.00217128
-0.000271488
-0.00193369
-0.00298235
0.00226898
0.000626519
-0.00162453
-0.000369545
-0.00274896
0.00229418
0.00227457
-0.00369985
-0.000225419
0.00966663
-5.56735e-05
0.00425314
-0.0122955
-0.000299214
-0.00692258
0.0146314
0.000927502
-0.0113799
0.0108203
-0.0112141
0.0125011
0.000130683
-0.000956018
0.000799958
-0.000481544
-0.00256464
-0.00106457
0.0164229
-0.010991
2.02097e-06
-0.000234138
-0.0174221
0.00789331
0.00899806
0.000246875
-0.00184453
-0.000151175
-0.00400224
-0.000176076
0.00449411
0.000602896
0.00397732
-0.00448778
0.000704952
0.00923341
-0.0101233
0.016541
-0.0149259
-0.00161204
-0.000581353
0.000363159
0.00159372
0.00065912
-0.00264925
-0.005116
0.00127963
0.0122014
0.000203796
-0.00163584
0.00139622
-0.000234855
-0.0016075
-1.93038e-05
-0.000601747
1.60245e-05
-0.0110615
0.0100487
-0.00462961
0.000923618
-0.00595549
0.0122435
-0.00311337
-0.000499661
-0.00214218
0.000559205
0.00177518
0.000362912
0.0051889
-0.00518963
-0.000277795
0.013034
0.0140007
0.00163389
-0.0157416
-0.0125503
0.0136085
-0.00117122
-0.0121402
-0.0112871
0.00811264
0.00193711
-0.00962661
0.00904917
-0.00436676
0.000684062
-0.00408759
0.000686056
0.00346101
-0.0057341
0.00608779
0.00163306
-0.000425461
-0.00663257
-0.000709191
0.00707498
-0.0153943
0.00885057
0.00625587
-0.00111654
-0.00094593
0.00200172
-0.0153251
0.0161661
-0.00101196
0.00039484
0.00413133
-0.00453577
0.000327981
0.0067684
-0.00757545
9.67724e-05
-0.000764303
0.000638033
-0.001831
-0.000160983
0.00200989
0.000372494
0.00401467
-0.00431461
-0.00190122
0.00541378
-0.000798255
-0.0141285
0.0144032
-0.0010258
-0.0142047
-0.00526744
0.00181615
0.00344038
0.00381978
-0.014097
-0.0113019
-0.0106469
-0.00351624
0.00780941
-0.00173273
0.000478174
0.000364323
0.00900945
-0.00923191
0.00480731
-8.09841e-05
-0.0113448
0.000480126
0.0107988
2.8531e-05
0.00021119
-9.27448e-05
0.000396422
-0.00156472
0.000892617
8.88498e-05
-0.0112349
-8.00788e-05
0.00562861
-0.00582358
0.0180259
-0.0158115
-0.00262047
-0.000930654
0.000307544
-4.04079e-07
3.20444e-06
0.00126368
-0.00131438
0.016006
-0.0143634
4.85703e-05
0.000338458
-0.000486476
-0.000635115
-0.00587481
0.000723237
0.000172684
-0.00435443
0.000260083
-0.0024367
0.00211991
-0.00507316
0.00443084
0.000574156
-0.000728852
0.012613
-0.00308497
-0.000985564
-0.00182394
0.00164623
0.000107264
-0.000315184
-0.00216988
0.0058941
-5.48318e-06
0.000281505
-0.0112896
0.010465
0.0138702
0.000490693
0.000870666
-4.06483e-05
0.000260598
-0.000932034
0.000228582
0.00160339
-0.00228576
0.00248972
-0.00714101
0.000346034
0.000598494
0.0107673
-0.0113059
0.000992
0.00956356
-0.0106032
0.0151926
-0.0164945
-0.0018924
0.0157265
6.08543e-05
0.000444308
-0.000114629
0.00141694
-0.00138914
-0.00215315
-0.000299228
-0.00240661
0.00237226
0.0143674
-0.0153529
-0.00144065
0.0120341
-0.0105911
0.0180333
-0.0133076
-0.00513832
0.000286939
-0.00226741
0.00194771
0.000998345
-0.0110856
0.00997571
0.00381098
-0.000609345
-0.00308809
-0.000308891
0.0025383
-0.0125816
-0.00181102
-0.00218796
0.00946096
-0.000462509
0.000250354
-3.75989e-05
0.0154159
-0.00562837
-0.00622804
0.00512259
-0.00486296
-3.42714e-05
-0.0101954
0.0114281
-0.00115045
0.000315645
-0.00108548
0.000920095
-0.000645222
0.000219172
0.00168357
-0.00185634
-0.0134292
-0.0152184
0.0126249
-0.00472386
0.000440935
-0.00132692
0.001331
-0.00122619
0.000188011
-0.00174116
0.0147866
-0.0142109
-0.000538393
-0.000500373
-0.00104949
-0.00123742
0.000204052
-0.0017368
0.00153658
0.00259121
-0.00213782
-0.000500136
-0.00136091
0.00116262
-0.000585054
-0.00121635
-0.000132732
0.0152594
-0.000262607
-0.00200817
-0.00201602
0.00174624
-0.000845035
0.00340304
-0.00279645
0.0063218
-0.00693226
0.000786946
-0.0113166
0.000503377
-0.0035884
0.00398376
-0.0004493
-0.0099315
0.00651714
-0.00164516
-0.00103476
0.0120981
0.00113294
-0.000843469
-0.000386467
0.00458082
-0.00683101
0.0121283
-0.0057775
0.000415383
-0.000456298
-0.00327041
-0.001955
-0.000471813
0.00939984
-0.00886147
0.00505576
-0.00412713
-0.00102343
-0.000332485
-0.00397652
0.000102771
-0.000866249
0.000747913
-0.015462
0.0139931
0.00173839
-0.0142322
-0.0105748
0.000388205
-0.00439345
0.0039702
-0.00521813
0.00062688
-0.0147037
0.00890552
-0.000932781
0.00102081
0.00011697
0.00115374
0.00141578
-0.0127549
0.0116122
0.000403765
0.00309729
-0.00338875
-0.000881638
0.014769
0.000435401
-0.00116754
0.000985214
0.000135575
0.00220047
-0.0019806
-0.000260411
0.00370712
0.0111147
9.46907e-05
-0.00072334
0.000611144
6.64e-06
1.18868e-07
2.02267e-06
0.000150744
0.00114536
-0.00131277
0.00355911
-0.00450762
-0.0032575
0.0144284
0.0124734
-0.0107916
-0.00420739
0.000566941
-0.0120729
-0.00195223
-0.00623511
-0.00399226
0.00999362
-0.0149964
-0.00193041
0.0168901
-0.0119367
-0.00580934
-0.018187
0.0151459
0.0029668
0.0112859
-0.0127002
0.00748673
-0.00762607
0.00913144
0.00068879
0.0146141
-0.0119311
-0.0139756
0.00111041
-0.00105636
-0.00878531
-0.00609415
-0.000242322
0.00558262
-0.00054928
0.000341976
-0.00250993
0.00215994
-3.18037e-06
-5.90427e-05
0.0104612
0.00142
-0.0118543
-5.87973e-06
-0.0121604
0.0119129
-0.0115459
-0.00143804
0.000220458
-0.00169761
0.0142827
-0.00127598
-0.000987326
0.00218441
0.000425854
0.00412886
-0.00431907
0.000208486
-0.00689364
0.0018507
-0.00164753
-0.0138988
0.0136123
0.000117098
-0.00224517
0.00813574
0.000796727
0.0107286
-0.0100765
0.000466928
0.0132928
-0.0140099
0.0116576
-0.0112447
-0.00530061
-0.000559827
0.00540326
0.0114759
-0.00104543
-0.0164335
0.000953125
-0.0156599
0.0147908
-0.000196775
-0.00293263
0.0030627
-0.00284792
0.00312715
-0.00312992
-0.00130067
-0.0147257
0.0136772
0.000938114
0.0125213
0.000921203
-0.00413744
0.00449447
-0.000583637
0.000141245
-0.0101387
0.00203678
-0.00191922
-0.0115309
0.00607061
-0.00705181
-0.00155987
-0.00467552
0.00497645
-0.000496948
-0.00192422
-0.000298561
0.0104985
-0.0108976
-0.000701074
0.009805
-0.00113412
0.00116434
-6.80392e-05
-0.000674495
0.00324234
0.000655431
0.00064346
8.06823e-06
-0.00148585
0.0128855
0.000787864
0.000661924
-0.00166732
0.00833675
-0.000282353
-0.000736374
-0.00867824
-0.00635418
0.0151437
0.00150861
0.0137432
-0.0151008
-0.00201488
0.000232638
1.26166e-06
3.06124e-05
-3.66054e-05
-0.00921983
0.00825055
0.00233229
-0.00111997
-0.00134085
0.0132385
-0.000186621
-0.00950936
0.00910286
0.00716182
-0.00689752
-0.000450867
0.00527325
0.000468159
0.0157197
-0.00101902
-0.000981928
-0.0133545
-0.00107249
0.0147038
-0.0135762
0.00144241
0.0121435
0.00449475
0.0103302
0.01268
0.000839416
-0.0104003
0.00795254
-0.00149656
-0.00670037
0.014513
-0.0131814
-0.00137653
4.30771e-05
-1.57406e-05
8.27249e-05
0.015933
-0.0162218
-0.000988153
0.0105526
-0.000980069
0.00576492
-0.000206969
-0.00517666
0.000292398
-0.0147318
0.0143165
0.00105019
0.000130449
0.0143503
0.000797086
-0.015261
0.00503879
0.000683837
-0.00601907
0.0171249
-0.000720263
-0.0168365
-0.000315989
-0.00255286
-0.00141989
-0.00306108
0.00865742
-0.00246796
-0.00963704
0.0101584
-0.00156832
-0.00893018
0.0094633
-0.000543509
-0.00485477
0.00462178
0.0141903
-0.0136809
0.00188533
-0.00367338
-0.000309688
0.00140697
-0.0185405
0.00995884
-0.00993159
0.00199335
0.0076728
-0.000797563
0.0125651
-0.00083275
0.00938041
-0.00946113
-0.000422723
0.000154267
0.00908763
-0.00903658
-0.000858119
0.014385
-0.00385316
0.0104207
-0.0114455
-0.0068546
0.00847554
-0.00787977
-0.000774717
0.00097511
0.0104896
-0.0117043
0.000802754
0.00151265
-0.000128774
-0.00570417
0.00534644
0.00679798
-0.0139507
0.0118626
0.000379618
0.0112586
-0.0116256
-0.00185241
0.00205135
-0.00029855
-0.00646722
0.000565295
0.00869613
-0.000829797
0.0111455
-0.0108276
0.0111279
-0.000476761
0.0111396
-0.0104013
0.000325618
-0.00229624
0.0139
-0.0148933
0.00252791
-0.0026709
-5.34456e-05
0.0148549
-0.000656996
-0.00921933
0.000511392
-0.000877305
0.0149527
-0.0100828
0.00364732
-0.000519901
0.00081757
0.00545303
-0.000207221
0.013087
-0.000762424
0.0143124
-0.0159189
-7.93599e-05
0.000386493
-0.000297028
0.00741907
-0.00705509
-0.000528171
-0.00249096
0.00804047
-0.000723139
-0.00439453
0.00507377
0.000832803
0.015182
-0.000195571
0.0112992
0.00411556
0.000314537
0.00681859
-0.000293939
0.00150793
0.00995877
-0.000800363
0.0143758
-0.000202287
0.0103499
-0.0099603
0.00934901
0.01534
-0.0162186
-0.00222019
0.00121268
-0.00114389
0.0141638
0.00248506
-0.00214008
0.000422538
0.00989135
-0.0102905
-0.00959932
0.000477282
-0.000637812
5.31577e-05
0.000555449
-0.00886154
-0.00069859
-0.00140489
0.0160003
-2.74295e-05
0.000439264
0.00348913
-0.00380101
-0.01004
0.0156093
-0.00044904
-0.0155418
-0.0008135
0.0148548
-0.00280394
-0.000354764
0.00320497
0.00222008
-0.0155781
-0.0168971
0.00193946
-0.00577027
0.00485108
-0.000478237
-0.00441499
-0.0012952
0.010733
-0.00935441
0.000337946
-0.00313175
-0.00168313
0.00189047
-0.000210435
5.79828e-05
-0.000662131
0.000570788
-0.0126283
-5.54554e-05
-0.000613642
0.000617832
5.35489e-05
-0.000646989
0.000556593
-0.00959224
0.0100371
-0.000466644
0.0117968
-0.012497
0.000863514
-0.0138002
-0.000651336
0.000545777
0.00074296
0.00987296
-0.0106981
8.00644e-05
-0.000131857
-3.92673e-06
-0.00746655
-0.00806876
0.00643225
-0.00838416
-0.00030568
-0.0152269
-0.00551326
0.00497172
0.000315912
-0.000634846
-0.000565375
0.012212
-0.0117311
0.000377565
-0.0107263
-0.00136517
0.0120686
-0.012171
-0.0007117
0.0124284
-0.00399151
0.00219163
0.000999886
0.00753243
-0.00899119
0.0132162
-0.00148314
-0.0114663
0.000837692
-0.000759949
-7.26084e-05
4.97387e-05
4.50146e-05
-0.00126249
0.0127619
0.0111317
0.00139849
-0.000611664
0.0103704
0.000137536
-0.000621658
-0.0111381
-0.00135785
2.48402e-05
0.00373036
-0.00346036
-0.0152671
0.00149952
-0.00239996
-0.00024365
0.00124292
-0.00013422
-0.00124948
0.0057615
-0.000702727
-0.00525158
-0.003128
0.00386002
-0.000711493
0.0113892
-0.0127318
0.00128334
0.000883728
-0.0114577
0.000476686
-0.00352204
0.000212986
-0.00182601
0.00154335
0.00434256
-0.00390681
-0.00151926
0.00278044
0.000299168
-0.000749072
-9.68145e-05
0.00727191
0.000372349
0.00350114
0.00053116
-0.00260767
0.0134674
0.00495483
-0.00208739
-0.000975905
0.00095766
0.00733
9.81423e-05
-0.000124003
-9.93001e-05
0.00171356
0.00215744
0.000270647
-0.00148384
0.0185777
-0.0173356
-0.00031986
0.00256238
-0.00188209
-0.0107192
0.0128246
0.0030088
-0.00539506
0.00776691
0.00055381
-0.00870795
-0.00674443
-0.00630431
-0.0102577
0.010646
0.0038164
-0.00457347
0.000753595
-0.00167286
0.00181701
-0.000472862
-0.00868728
-0.000179128
0.0140674
-0.000504729