/*--------------------------------*- C++ -*----------------------------------*\
| =========                 |                                                 |
| \\      /  F ield         | OpenFOAM: The Open Source CFD Toolbox           |
|  \\    /   O peration     | Version:  v2012                                 |
|   \\  /    A nd           | Website:  www.openfoam.com                      |
|    \\/     M anipulation  |                                                 |
\*---------------------------------------------------------------------------*/
FoamFile
{
    version     2.0;
    format      ascii;
    class       surfaceVectorField;
    location    "900";
    object      Uf;
}
// * * * * * * * * * * * * * * * * * * * * * * * * * * * * * * * * * * * * * //

dimensions      [0 1 -1 0 0 0 0];


internalField   nonuniform List<vector> 
14516
(
(1.0205 0.045019 -4.6924e-21)
(1.0104 0.0477939 -1.85218e-21)
(1.01498 0.0352903 1.92661e-21)
(0.860617 0.00846619 -9.19873e-23)
(0.847776 0.0128059 1.03508e-21)
(0.874385 0.0134015 2.90023e-21)
(1.0328 0.0410495 -7.516e-23)
(1.03328 0.0569861 6.67854e-21)
(1.01471 2.64563e-05 0)
(1.01468 4.09754e-05 -1.94611e-21)
(1.01469 2.91086e-05 0)
(0.712013 0.172758 2.37639e-20)
(0.747846 0.250721 1.12824e-20)
(0.710753 0.0491682 9.38543e-21)
(1.00856 0.00159888 2.45746e-21)
(1.00891 0.000929713 1.37025e-21)
(1.00937 0.00163242 -1.97548e-21)
(1.0122 -4.14601e-05 1.55423e-21)
(1.01294 -0.000211252 6.84952e-22)
(1.01357 -0.000271838 -1.73473e-21)
(1.01607 -0.000898528 -2.13611e-21)
(1.01591 -0.000815424 3.38213e-22)
(1.01604 -0.000797842 -1.23799e-21)
(1.02142 0.000172699 7.51451e-23)
(1.02156 0.000425995 3.15611e-22)
(1.02187 5.09513e-05 2.81283e-23)
(0.718667 0.234437 7.48546e-21)
(0.686634 0.0994948 -2.42719e-20)
(1.03892 -0.0510684 -7.63901e-23)
(1.04084 -0.0543443 1.83651e-22)
(1.04294 -0.0499456 -5.43197e-22)
(0.97854 0.0614003 0)
(0.970978 0.0637227 0)
(0.984092 0.073956 0)
(1.01466 -2.47025e-05 0)
(1.01474 1.07384e-05 1.04556e-21)
(1.00222 0.000145224 3.60902e-22)
(1.00228 -0.00163275 -4.1954e-22)
(1.00365 -0.000845641 -1.07547e-21)
(1.00659 -5.51968e-05 -9.64842e-22)
(1.00661 1.00342e-05 -2.31894e-21)
(1.00238 0.0018251 1.16805e-22)
(1.0027 0.00346847 -8.03277e-22)
(1.00394 0.0022098 -6.8972e-22)
(1.02019 0.00888536 6.03345e-22)
(1.01922 0.00838008 -1.61605e-21)
(1.02019 0.00807154 2.78185e-22)
(1.02119 0.0093382 2.18096e-22)
(1.02012 0.0098759 2.58761e-22)
(1.23046 -0.163785 -2.0169e-21)
(1.25438 -0.106181 1.70844e-20)
(1.22897 -0.198452 -2.09113e-21)
(1.00062 0.00122692 7.32552e-22)
(0.945597 -0.038647 -5.69975e-21)
(0.947217 -0.0499299 -8.05088e-21)
(0.955748 -0.043236 -4.21743e-21)
(1.01869 -0.00792347 -1.05253e-21)
(1.01904 -0.00809046 1.01916e-21)
(1.01893 -0.00767788 -7.06812e-22)
(1.12191 0.0105215 1.39101e-21)
(1.12072 0.0246013 3.80157e-21)
(1.13134 0.0110533 1.13921e-21)
(1.02278 -0.00222947 3.08135e-23)
(1.02268 -0.00207073 -3.16181e-23)
(1.02333 0.00516577 -8.02153e-22)
(1.02298 0.00589768 -1.34075e-21)
(1.02416 0.00594022 -1.15566e-22)
(1.01443 -3.22906e-06 1.75959e-22)
(1.01451 -2.14416e-05 1.14419e-21)
(1.00129 0.00822338 -4.40054e-22)
(1.00031 0.00643145 0)
(0.998969 0.00832776 1.33147e-22)
(1.01715 0.00558818 -1.00643e-21)
(1.01659 0.00573799 -6.0889e-22)
(1.0167 0.00505985 -6.03224e-22)
(1.00981 -0.0306001 2.66826e-21)
(1.01333 -0.030871 4.65574e-21)
(1.01131 -0.0279668 1.77654e-21)
(1.02097 0.000290867 0)
(1.02126 -4.44137e-05 -3.39065e-22)
(0.998065 0.0124443 3.44138e-21)
(0.99644 0.0132926 1.7756e-21)
(0.996761 0.0107662 3.4845e-21)
(1.12011 -0.00516687 -1.44282e-21)
(1.10846 0.00762894 0)
(0.79953 0.0736058 1.13448e-20)
(0.786807 0.101224 1.30788e-21)
(0.767115 0.0712801 -1.24892e-20)
(1.01116 -9.18294e-05 9.85286e-22)
(1.01108 -0.000120015 -1.45996e-22)
(1.00829 -5.39402e-05 5.73082e-22)
(1.00621 -0.0296211 -1.13419e-21)
(1.00251 -0.0281812 0)
(1.00475 -0.0254009 2.81666e-21)
(0.922169 -0.0691133 0)
(0.923156 -0.0866688 0)
(0.905027 -0.0778247 -1.87305e-21)
(1.01128 -5.00714e-05 1.02603e-21)
(1.00957 5.2232e-05 9.6648e-22)
(1.0184 -0.00817636 -1.01225e-21)
(1.01829 -0.00772953 -2.19498e-21)
(1.01702 -0.00144071 -7.17718e-22)
(1.01725 -0.0016458 -7.9455e-23)
(1.01733 -0.00144641 0)
(1.01471 -6.44274e-05 -6.95677e-22)
(1.01423 -8.65048e-05 0)
(1.0151 -2.52739e-06 0)
(0.999822 0.0114444 3.89353e-22)
(0.999743 0.0138009 -8.00255e-22)
(1.00989 1.62984e-05 -5.98106e-23)
(1.00618 -7.41806e-05 -1.65787e-22)
(1.01319 -0.000141079 1.00158e-21)
(1.01388 2.86951e-05 1.6294e-21)
(1.01333 -0.00013141 2.89389e-21)
(1.01288 -0.000170935 -4.06645e-22)
(1.01211 -0.000234772 -8.19422e-22)
(1.01359 -0.000106526 4.20457e-22)
(1.01103 -8.4374e-05 -1.84728e-21)
(1.0131 -6.17594e-05 6.92051e-23)
(1.01436 3.48191e-05 1.51849e-22)
(1.00813 -0.0340464 2.46095e-22)
(1.01681 -0.0693681 1.5414e-22)
(1.0116 -0.0730498 6.55071e-21)
(1.01084 -0.0653586 -1.75624e-21)
(1.01006 0.0162794 1.10455e-21)
(1.01252 0.016626 6.49833e-22)
(1.01081 0.0185121 -1.43427e-21)
(1.01465 6.60217e-05 -3.11617e-21)
(1.01467 4.91279e-05 -1.09637e-21)
(0.997746 -0.0273566 0)
(1.00009 -0.0326741 1.52252e-21)
(1.02855 -0.0570718 0)
(1.03277 -0.0592557 0)
(1.03208 -0.0543873 0)
(1.00913 -0.00121833 -1.72563e-21)
(1.00857 -0.000750042 -3.02437e-21)
(1.00847 -0.00164259 5.83135e-23)
(1.02028 -0.00242761 -4.93162e-22)
(1.02001 -0.00219647 -4.29907e-22)
(1.0199 -0.00238701 -1.0807e-21)
(0.922288 -0.100907 -3.16734e-21)
(0.924819 -0.121036 1.3827e-21)
(0.938867 -0.102468 -8.5739e-22)
(0.901236 0.0416025 0)
(0.903895 0.0628044 1.56507e-21)
(0.921208 0.0760738 -1.23537e-21)
(1.01668 0.00135126 -2.89718e-22)
(1.01637 0.00134216 2.84748e-23)
(1.07911 -0.0647593 0)
(1.07788 -0.0595933 0)
(1.07307 -0.0638411 1.17734e-22)
(0.974067 -0.157062 -5.40041e-23)
(0.989421 -0.189837 4.37876e-22)
(0.951555 -0.188105 -5.30293e-23)
(1.01685 -0.00130006 1.45338e-22)
(1.01678 -0.00138846 -1.47091e-21)
(1.01288 -0.000160589 0)
(1.01222 -3.55278e-05 3.4154e-22)
(1.01384 -0.00019411 8.71369e-22)
(1.0103 -0.00362141 2.59304e-21)
(1.00972 -0.0032868 1.77988e-21)
(1.00982 -0.00419023 -2.1152e-21)
(1.03231 -0.0252982 2.3809e-22)
(1.04557 -0.0350338 2.5331e-22)
(1.04286 -0.0167796 -5.12049e-22)
(1.01296 -6.30969e-05 1.15692e-21)
(1.01365 -6.61775e-05 -6.49883e-22)
(1.01283 -8.24252e-05 4.42536e-23)
(0.74174 -0.321683 -4.19691e-21)
(0.728264 -0.216917 1.57164e-20)
(0.872394 0.0446681 1.40437e-22)
(0.860925 0.066373 1.04214e-20)
(0.889834 0.0605209 -1.41763e-20)
(1.02133 -0.0118294 -5.01899e-22)
(1.01831 -0.0256863 0)
(1.01447 -0.0045551 -7.63855e-21)
(1.01007 0.00231991 4.31257e-22)
(1.00635 -0.00426968 3.17232e-22)
(0.986093 0.0581586 0)
(0.977677 0.0512402 0)
(1.0352 -0.0508951 0)
(1.03764 -0.0468125 0)
(0.901044 -0.0994124 2.14308e-21)
(0.920885 -0.0804071 -4.46668e-22)
(1.01753 -0.000241809 0)
(1.01792 -0.000219833 -8.41278e-25)
(1.01919 -0.000145856 0)
(1.01487 0.000725595 -8.59135e-22)
(1.01481 0.000690941 5.25843e-22)
(1.01485 0.000795368 1.40142e-22)
(0.996864 -0.00559695 -1.47202e-21)
(1.00245 -0.00664241 3.92644e-22)
(0.998727 -0.0093289 8.02572e-22)
(0.994478 -0.0233746 0)
(0.991755 -0.0281447 3.31839e-23)
(0.960236 -0.103542 -4.51682e-22)
(0.991567 -0.126776 0)
(1.01684 0.00122905 1.46447e-21)
(1.01701 0.00108997 1.51189e-21)
(1.01666 0.00111276 -4.89097e-23)
(1.02304 -0.00599417 -3.01257e-24)
(1.02257 -0.00567944 -1.31917e-23)
(1.0227 -0.00642095 4.15008e-27)
(1.00956 0.00323686 2.09764e-21)
(1.00991 0.00250326 1.11876e-21)
(1.01046 0.00317801 8.12692e-22)
(1.01493 0.00601388 -4.61332e-22)
(1.01455 0.0053693 -6.00196e-22)
(1.01537 0.00555752 -2.89742e-23)
(0.858311 0.0307119 1.80297e-21)
(0.888804 0.0302633 0)
(1.00965 -6.67504e-05 0)
(1.01024 -0.000644085 0)
(1.01048 0.000274552 -1.7238e-21)
(0.805818 0.00726751 -1.2954e-22)
(0.798522 0.00969068 -1.46598e-22)
(0.790681 0.00348231 -5.32256e-21)
(1.03655 -0.041628 -1.87788e-22)
(1.03467 -0.0472084 1.31828e-24)
(1.03097 -0.0413892 0)
(1.0013 0.01047 -6.19324e-22)
(0.999951 0.00910687 4.6279e-21)
(1.02594 -0.0612091 0)
(1.02166 -0.0657753 -1.2599e-23)
(1.01962 -0.0581885 0)
(1.01442 0.00658099 2.07424e-23)
(1.01538 0.00674327 9.52719e-22)
(1.01713 0.000962991 8.08272e-22)
(1.01725 0.000819896 -7.7711e-22)
(1.01693 0.000857812 0)
(1.01078 -0.00314912 2.12735e-22)
(1.01127 -0.00275335 2.64135e-23)
(1.01083 -0.00237276 4.93879e-22)
(1.01091 -0.00305692 -6.45277e-22)
(1.01014 -0.0026004 0)
(1.01024 -0.0037897 0)
(0.848297 0.00230202 -1.9484e-21)
(0.873032 0.00409128 -8.7182e-21)
(0.837719 -0.283565 3.26633e-21)
(0.795107 -0.296115 3.14551e-21)
(0.808181 -0.252547 3.53104e-21)
(1.02058 -0.00328984 -6.13642e-22)
(1.02117 -0.00342961 7.65412e-23)
(1.02074 -0.00377276 -6.18856e-22)
(1.11601 -0.0195798 3.83535e-21)
(1.12833 -0.0218171 -5.23219e-21)
(1.01087 -0.00390667 8.41874e-22)
(1.04377 -0.0425206 -5.67946e-21)
(1.03753 -0.0365309 -1.69775e-22)
(0.898669 0.0249726 -3.24597e-21)
(0.884738 0.00763968 3.89589e-21)
(0.826157 0.0104155 2.19242e-22)
(0.814438 0.00333714 2.11257e-22)
(1.02042 -0.00289224 2.94391e-22)
(1.02003 -0.00319297 0)
(1.01661 -0.0039589 1.36047e-21)
(1.01705 -0.00426822 7.09773e-22)
(1.01682 -0.00372124 -8.27634e-22)
(1.01634 -0.00427864 5.63729e-22)
(1.01617 -0.00369513 9.15815e-22)
(1.01454 -0.00553232 0)
(1.01384 -0.00557072 1.26655e-21)
(1.01441 -0.00642507 6.98139e-22)
(1.0188 0.000840798 -7.48638e-22)
(1.0191 0.000711383 6.21837e-22)
(1.01906 0.00103239 0)
(1.01853 0.00067218 -5.00413e-24)
(1.01851 0.000933207 -7.39218e-22)
(1.02324 -0.00549768 8.82815e-23)
(1.0235 -0.00628559 8.5085e-23)
(1.00268 0.00954326 -2.73184e-21)
(1.00254 0.0114572 -2.55114e-21)
(1.01176 -0.00254248 4.17827e-22)
(1.01165 -0.00318097 -2.2643e-22)
(1.01228 4.01142e-05 3.58989e-22)
(1.01285 -8.83031e-05 1.39988e-21)
(1.01375 -7.51331e-05 -5.20115e-22)
(1.00979 -0.000854436 0)
(1.00972 -0.00161761 -1.562e-21)
(0.991947 -0.0809078 6.91947e-22)
(0.987291 -0.079004 2.66021e-21)
(0.989041 -0.073908 -1.47844e-22)
(1.01734 -0.000178963 0)
(1.01553 -0.000264842 -3.97375e-23)
(0.931564 -0.00471175 -1.88589e-21)
(0.936789 0.00463794 -1.39275e-21)
(0.924533 0.00504577 6.59405e-21)
(1.01531 0.00128463 2.14964e-22)
(1.01554 0.00127961 7.9486e-22)
(0.838786 -0.0115096 -6.07752e-21)
(0.860934 0.0158912 8.33823e-22)
(0.848927 0.0420152 -2.53539e-21)
(1.02452 -0.0548923 0)
(1.0244 -0.0601011 1.17643e-21)
(1.01703 0.00133625 6.87407e-22)
(0.83282 0.128581 -4.68478e-21)
(0.82751 0.148406 -1.02195e-20)
(0.862369 0.13376 -1.26859e-20)
(0.990967 -0.0194015 0)
(0.996817 -0.0190608 2.7635e-21)
(1.00904 0.000694905 -6.21389e-22)
(1.00876 -0.000378204 -9.91902e-22)
(1.10199 -0.017098 -1.07112e-20)
(1.10997 -0.0308133 1.42284e-21)
(0.996866 -0.0819517 -2.57171e-21)
(0.994212 -0.0881956 -1.28729e-21)
(1.01064 4.38909e-05 5.26806e-23)
(1.00644 -1.96531e-05 -6.92293e-24)
(1.00673 -2.70475e-05 -7.2512e-24)
(1.01596 2.98163e-05 -1.07243e-21)
(1.01614 -4.41331e-05 7.75774e-22)
(1.0161 3.74991e-05 1.2462e-21)
(1.00829 0.00234212 4.59022e-21)
(1.00769 0.00163065 -2.70567e-21)
(1.02224 -0.00455351 8.92056e-22)
(1.02205 -0.00483831 -3.62136e-22)
(1.02179 -0.00437708 8.44269e-22)
(0.935682 -0.0333475 1.85503e-21)
(0.946511 -0.0285333 -3.62208e-21)
(1.05246 -0.0290533 -2.37043e-21)
(1.05291 -0.0272798 3.25226e-22)
(1.05092 -0.0278211 -2.84234e-22)
(1.02934 -0.0567673 -1.23681e-24)
(1.03399 -0.0652382 0)
(1.00919 0.00413359 -1.06605e-21)
(1.00856 0.00335942 9.13526e-22)
(1.01475 0.000158826 2.00511e-21)
(1.01475 0.000106242 2.53894e-21)
(1.01473 0.000191659 5.98224e-22)
(1.01596 -0.000140138 1.22121e-22)
(1.01511 -7.57275e-05 -4.01859e-22)
(1.01759 -0.000188465 2.02535e-22)
(1.01734 0.00105996 -3.08245e-22)
(1.01475 0.000189666 0)
(1.01477 0.000107932 1.38368e-21)
(1.01798 -0.0075947 -6.70629e-22)
(1.01883 -0.00800046 0)
(1.01851 -0.00702 0)
(1.02058 0.000396751 0)
(1.02076 0.000595417 -3.63497e-22)
(1.01736 0.000679219 -1.52454e-21)
(1.01748 0.000517733 2.22497e-22)
(1.01716 0.0005867 -7.67964e-22)
(1.01126 -3.89972e-05 -2.10681e-22)
(1.01298 -4.53019e-05 -2.51576e-22)
(1.01236 -5.29906e-05 4.36442e-22)
(1.01361 -0.000176366 -1.79569e-21)
(1.01521 0.00116829 2.59447e-22)
(1.01506 0.00125514 -7.00543e-22)
(1.01857 0.00155732 9.83847e-23)
(1.01869 0.00181085 -4.69297e-22)
(1.01839 0.00165766 -4.94159e-22)
(1.01583 2.93915e-05 -1.77738e-21)
(1.01578 0.000100648 -8.2019e-22)
(1.02392 0.00373399 -4.06175e-22)
(1.02371 0.00445604 -1.38485e-21)
(1.02479 0.00428434 -1.5551e-21)
(1.01459 -0.00017958 -1.0163e-21)
(1.01472 -0.000121767 1.0528e-21)
(1.0144 -0.000189761 -2.72666e-22)
(1.01515 -0.00523725 7.5144e-22)
(1.01482 -0.00476888 5.58389e-22)
(1.01467 -0.00547321 -1.45773e-21)
(1.00066 -0.00264267 -1.05899e-23)
(1.00235 -0.00341619 -2.88278e-23)
(0.999429 -0.00590972 -1.78996e-23)
(0.999064 -0.00381714 -9.64301e-23)
(0.997232 -0.00520592 8.82284e-22)
(1.00381 0.000646693 -7.53682e-23)
(1.00804 0.00112242 5.01815e-23)
(1.0029 0.00315523 0)
(1.01561 -0.00493613 -2.70174e-22)
(1.0157 -0.00566552 0)
(1.01988 -0.00175725 -3.1322e-22)
(1.02007 -0.00213694 -3.47094e-22)
(1.02033 -0.0017275 0)
(0.874769 -0.272035 6.65973e-22)
(0.861845 -0.315683 0)
(1.02517 0.583224 -3.19868e-20)
(1.0485 0.516843 -5.02189e-20)
(1.00521 0.596472 3.01865e-20)
(1.01741 -4.4592e-05 -5.16869e-23)
(1.0143 -0.000177116 5.3343e-22)
(1.03298 0.561829 4.04804e-20)
(0.991956 0.619968 4.94154e-20)
(0.748348 0.353576 -4.7744e-21)
(0.723973 0.245774 3.43969e-21)
(1.01968 -0.00142892 2.22069e-23)
(1.01943 -0.00176761 -3.03101e-22)
(1.01375 1.80276e-05 4.90237e-23)
(1.0134 2.75183e-05 3.43627e-22)
(1.01821 0.00059127 -3.86291e-22)
(1.0173 0.000473863 -3.28176e-22)
(1.01858 0.000783729 4.9545e-22)
(1.02407 0.0030246 1.4742e-21)
(1.02321 0.00335318 1.3667e-21)
(1.01604 -0.0045956 -5.6174e-22)
(1.0156 -0.00424265 -2.68388e-22)
(1.01472 -0.00016169 -1.15795e-21)
(1.01446 -0.000133312 -5.38325e-22)
(1.01626 -0.000964907 -1.8455e-22)
(1.01612 -0.000984069 -5.48929e-22)
(1.01756 0.00535443 8.68436e-22)
(1.01765 0.00601917 3.58838e-23)
(1.00582 0.00906653 -1.76554e-21)
(1.00694 0.0102903 9.0534e-22)
(1.00534 0.010841 -8.56023e-22)
(1.20441 -0.192608 0)
(1.16398 -0.214385 0)
(1.16401 -0.259074 0)
(0.990725 0.00117526 2.60607e-22)
(0.994496 -0.00215003 -2.87764e-22)
(0.999499 5.81999e-05 -7.94084e-23)
(0.935653 -0.0601942 3.25429e-21)
(0.948605 -0.0636287 -3.24716e-22)
(1.02457 -0.0748481 4.63006e-21)
(1.02083 -0.0113986 -9.52316e-22)
(1.02123 -0.0112471 2.66327e-21)
(1.02082 -0.0109154 2.88052e-21)
(1.0032 0.007974 4.4858e-22)
(1.00228 0.00990895 5.1387e-22)
(1.01535 -0.00416459 -5.80255e-23)
(1.01483 -0.00422473 5.97509e-22)
(1.01496 -0.00361758 2.78557e-22)
(1.01619 0.00306099 8.15567e-22)
(1.0159 0.00280126 -6.33671e-22)
(1.01626 0.00280272 3.48927e-22)
(0.732031 0.0655192 1.46616e-21)
(0.729349 0.0856261 -8.41637e-22)
(0.755466 0.0704827 0)
(0.979391 0.00171035 1.6904e-23)
(0.98473 0.0039026 2.18337e-22)
(0.718334 0.0472033 5.14951e-22)
(0.746506 0.0465473 2.55576e-21)
(1.02252 -0.00395307 0)
(1.02238 -0.00427578 6.33841e-23)
(1.0221 -0.00380158 -6.4594e-23)
(1.21885 -0.130695 -6.76342e-21)
(1.01759 0.000769958 1.90496e-22)
(1.02295 -0.00192116 6.77684e-23)
(1.02279 -0.00173003 0)
(1.02305 -0.00182298 8.75644e-23)
(1.01475 0.000267557 1.96658e-21)
(1.01476 0.000193968 1.05369e-21)
(1.01477 0.000194863 -3.61851e-22)
(1.02822 -0.0185341 0)
(1.02719 -0.0191962 0)
(1.02869 -0.0196639 0)
(1.18807 0.0268433 2.733e-21)
(1.16026 0.0641036 1.81272e-21)
(1.1242 0.0761396 2.35472e-21)
(1.02917 -0.00439368 -1.2541e-22)
(1.02864 -0.00396092 2.52988e-22)
(1.02851 -0.00454797 1.97758e-22)
(1.01654 -0.00494148 3.59446e-22)
(1.02271 0.00456368 2.02181e-22)
(0.90775 0.0774393 0)
(0.906737 -0.00584988 3.22667e-22)
(0.883289 0.0634732 5.95399e-23)
(1.01488 0.000679459 3.80781e-22)
(1.01492 0.00075858 -1.74206e-21)
(1.08014 -0.0715347 9.59228e-22)
(1.08567 -0.0664174 1.05526e-21)
(1.01475 0.000345134 9.37331e-22)
(1.01475 0.000331853 6.93778e-22)
(1.01587 -0.000135686 -3.99264e-25)
(1.01574 -0.000139984 -5.35618e-23)
(1.01588 -0.000225519 -5.21687e-23)
(1.00493 0.00780482 -3.02385e-22)
(1.0064 0.00750185 -8.84109e-22)
(1.023 -0.0041092 0)
(1.02266 -0.00362177 3.00414e-22)
(1.01381 0.000454793 2.90877e-23)
(1.01387 0.000425221 2.05231e-21)
(1.01393 0.000498868 -5.34454e-22)
(1.00675 0.0163133 3.50679e-21)
(1.00656 0.0128951 4.63333e-22)
(0.928001 -0.0144844 -4.38197e-22)
(0.940015 -0.0127241 -2.13541e-22)
(1.02479 -0.000300363 -4.35087e-22)
(1.02933 -0.0178935 -2.22475e-22)
(1.02796 -0.0175268 8.90753e-23)
(1.06322 0.127095 1.43585e-22)
(1.03459 0.110941 -3.80568e-21)
(1.0687 0.100565 1.11459e-21)
(1.01327 -0.00160408 -1.25328e-21)
(1.01342 -0.00222315 8.04335e-22)
(1.01369 -0.0018775 -1.11767e-21)
(0.797994 0.46838 -2.48114e-20)
(0.803604 0.431521 0)
(1.01873 0.00144486 1.47623e-21)
(1.01834 0.00132651 6.42523e-22)
(1.02023 0.000468913 0)
(1.02047 0.000214755 5.1153e-22)
(1.12515 -0.208224 7.66069e-23)
(1.08913 -0.216541 7.76958e-23)
(1.10133 -0.178267 3.65753e-21)
(0.883827 0.0410949 4.83659e-21)
(0.897067 0.0810412 -2.92086e-21)
(1.01475 6.00812e-05 5.86373e-22)
(1.01471 9.3059e-05 8.79797e-22)
(1.01474 2.0205e-05 0)
(1.01757 0.000373154 1.74169e-21)
(1.01778 0.000454303 -4.83687e-23)
(1.02341 -0.00511708 4.97064e-22)
(1.02301 -0.00488287 8.58251e-23)
(0.921469 -0.0525071 1.94888e-21)
(1.00912 -0.0034366 1.09129e-23)
(1.00896 -0.00241549 -4.8399e-23)
(1.00817 -0.00315994 -1.5119e-22)
(1.00393 0.00886474 6.77984e-22)
(1.00289 0.00771881 0)
(1.02426 -0.00721591 4.53274e-22)
(1.02372 -0.00708941 4.82594e-22)
(1.02398 -0.00670414 3.69351e-22)
(1.02047 -0.0194959 6.97796e-22)
(1.02208 -0.0196602 1.3532e-21)
(1.02107 -0.0209695 -6.16358e-22)
(1.0044 0.0181359 -9.8218e-22)
(1.00698 0.0193733 9.61033e-23)
(1.01538 0.0184626 -8.10152e-22)
(1.01485 0.0146023 0)
(1.02051 -0.00277505 -3.87413e-22)
(1.02069 -0.00251134 -8.55574e-24)
(1.09185 0.145788 2.702e-21)
(1.04766 0.162626 2.88683e-22)
(1.01794 0.00055368 -1.66908e-22)
(1.01903 0.000704251 7.22825e-22)
(1.01633 -0.00510434 -6.43328e-22)
(1.01692 -0.0055418 -6.43987e-22)
(1.01677 -0.00485621 -9.41416e-22)
(0.91028 0.159234 0)
(0.929997 0.0899367 0)
(1.02359 -0.00478199 -7.11017e-23)
(1.02379 -0.00532497 -1.01156e-22)
(1.09306 0.0440326 1.27168e-21)
(1.11179 0.0471965 -1.43003e-20)
(1.09675 0.067315 1.22974e-21)
(0.980007 -0.00162324 6.86142e-21)
(0.986126 0.00398542 4.93985e-21)
(0.977337 0.0076669 -3.57075e-21)
(1.01638 0.000257472 5.84712e-22)
(1.01652 0.000308537 -2.47067e-22)
(1.01627 0.000344831 -1.78057e-22)
(1.0227 -0.00472998 5.46654e-23)
(1.01373 0.000478041 0)
(1.01371 0.000397295 -2.0337e-21)
(1.03257 -0.0517552 8.26464e-23)
(1.04065 -0.0540162 2.99328e-22)
(1.1581 -0.173444 -1.32969e-21)
(1.00868 0.000139788 -9.69317e-22)
(1.00945 0.000330861 1.57543e-21)
(1.0195 -0.00114393 5.37493e-23)
(1.0191 -0.00118087 -3.19951e-22)
(1.0193 -0.000892435 3.38487e-23)
(0.983464 -0.00846719 -3.38968e-22)
(0.974631 -0.00691593 -9.91725e-22)
(1.03378 -0.043428 6.79774e-22)
(1.03107 -0.0456772 3.18515e-22)
(1.03073 -0.042371 6.31799e-22)
(1.02309 -0.00250398 -5.9258e-23)
(1.02286 -0.0024696 1.93297e-23)
(1.02287 -0.00201836 8.17909e-23)
(1.0226 -0.00183388 2.63088e-22)
(1.02981 -0.00433286 2.93886e-22)
(1.02957 -0.00499921 -2.5622e-23)
(1.01854 0.00112298 -4.27147e-22)
(1.01872 0.0012812 5.71448e-22)
(1.01826 0.00108555 -2.90922e-22)
(1.04983 -0.0371428 1.09683e-22)
(1.05075 -0.0349548 0)
(1.04807 -0.0354702 0)
(1.0743 0.0423582 0)
(1.08869 0.0256539 -1.1764e-22)
(1.01513 0.0010661 8.31167e-22)
(1.01492 0.00104106 2.52661e-23)
(1.01506 0.000970814 1.2964e-23)
(1.01619 0.00201852 -1.56081e-21)
(1.01622 0.00226507 3.63923e-22)
(1.01643 0.00213995 1.65143e-22)
(0.910998 0.0376298 -3.11745e-21)
(0.904988 0.0136598 -1.15936e-20)
(1.01304 -0.00396868 -2.33095e-21)
(1.01278 -0.00317696 -3.03384e-22)
(1.01232 -0.00387294 0)
(1.00509 0.00816343 4.15258e-22)
(1.00492 0.00974579 -9.57654e-22)
(1.00519 -0.00456656 1.72076e-21)
(1.00384 -0.00408658 6.09918e-22)
(1.00505 -0.00309649 6.52965e-22)
(1.01676 0.00185195 -2.28458e-21)
(1.0169 0.00169028 1.40798e-22)
(1.01705 0.00193162 -1.43884e-21)
(0.832143 0.0722307 8.34612e-22)
(0.810553 0.0485417 -2.71344e-21)
(1.01614 0.00181156 -1.01341e-22)
(1.01629 0.00169592 -8.16679e-22)
(1.01609 0.00160881 -1.65381e-21)
(1.02024 -0.00247317 -1.38922e-22)
(1.01974 -0.00244803 -6.80278e-22)
(1.01577 -0.000785894 5.00099e-22)
(1.01575 -0.000720844 1.02069e-21)
(1.0241 0.00225976 0)
(1.02502 0.00260505 -1.45676e-21)
(1.02077 -0.002514 3.06304e-22)
(1.01251 -0.000268644 -2.86483e-22)
(1.01096 -5.3808e-05 3.76139e-22)
(1.01723 -0.00375277 -8.39526e-22)
(1.01742 -0.00360214 1.49058e-22)
(1.01747 -0.00390372 -7.99217e-22)
(1.02577 -0.011985 0)
(1.0264 -0.0116832 -1.00279e-21)
(1.02565 -0.0113442 9.15076e-23)
(1.02069 -0.0517194 -1.04127e-21)
(1.02462 -0.0499037 0)
(1.05212 -0.0310106 -7.9362e-22)
(1.05154 -0.0329758 3.04115e-22)
(1.04987 -0.0315272 3.10726e-22)
(1.01665 0.00130218 0)
(1.01654 0.00113847 0)
(1.01675 0.00115537 -2.32637e-21)
(1.01765 -0.00922736 -1.35745e-21)
(1.01712 -0.00907752 1.2044e-21)
(1.01731 -0.00966333 1.28341e-21)
(1.01568 0.00258637 -9.39284e-22)
(1.01576 0.00237341 0)
(1.01548 0.00236992 0)
(1.02519 -0.0122242 3.72906e-22)
(1.02594 -0.0126805 0)
(1.01028 0.00614382 1.17433e-21)
(1.00962 0.00572853 -5.39792e-22)
(1.01036 0.00526976 8.59165e-22)
(1.01081 -0.00386037 -1.539e-22)
(1.00992 -0.00369614 -4.86684e-22)
(1.01052 -0.00300771 -5.75524e-22)
(0.947873 -0.149089 4.23449e-22)
(0.946104 -0.135848 9.33449e-22)
(0.930003 -0.148515 -1.74713e-21)
(1.01596 0.00188175 1.70729e-21)
(1.01618 -0.0537635 -3.41193e-21)
(1.01738 -0.0486504 1.46292e-21)
(1.01099 0.000248724 -7.08465e-22)
(1.01279 0.00019585 6.3722e-22)
(1.01156 0.00013039 6.23591e-22)
(1.02089 -0.0120529 -3.12278e-21)
(1.02036 -0.0115701 5.99299e-22)
(1.0234 -0.00360704 1.81308e-23)
(1.02328 -0.00381231 2.1837e-23)
(1.02315 -0.00348418 5.21798e-24)
(1.02365 -0.00365328 2.03051e-23)
(1.02341 -0.00327391 -1.9285e-22)
(1.01894 -0.0192835 0)
(1.02019 -0.0181144 0)
(1.05223 -0.213544 0)
(1.06343 -0.25301 6.70027e-21)
(1.01197 -0.0022324 -2.41123e-22)
(1.01179 -0.00159874 -2.59405e-21)
(1.01229 -0.00185132 0)
(1.01093 -0.00467738 -5.08316e-22)
(1.01143 -0.004049 3.74126e-22)
(1.012 0.00668722 -7.87161e-22)
(1.01137 0.00615616 2.96294e-22)
(1.01203 0.00581144 -7.73767e-22)
(1.02086 -0.0102442 1.7104e-21)
(1.02062 -0.00995293 1.63783e-21)
(1.02039 -0.0102887 1.54948e-21)
(1.01665 0.000368593 7.33768e-22)
(1.01681 0.000429356 9.727e-22)
(1.01654 0.000479242 1.01121e-21)
(0.910073 0.00570118 -2.3962e-22)
(0.912003 0.000225156 3.2799e-22)
(0.893359 0.0050114 -2.07295e-21)
(0.90947 0.0105229 7.27031e-21)
(0.92554 0.00572545 -1.61429e-21)
(1.01478 2.21581e-05 -5.47819e-22)
(0.923986 -0.0259157 2.04263e-21)
(0.913276 -0.0176085 1.52206e-23)
(1.01371 3.38499e-05 -6.64551e-22)
(1.0136 1.0754e-05 -1.15178e-21)
(1.0137 0.000109831 1.48818e-22)
(1.05408 -0.0303467 -1.57513e-22)
(1.0241 0.0015104 -8.71284e-22)
(1.02335 0.00201174 0)
(1.02363 -0.00298176 -3.01747e-23)
(1.02333 -0.00274243 -3.79876e-23)
(1.02338 -0.00300763 -1.9824e-23)
(1.0119 -6.11817e-05 -5.20639e-22)
(1.00941 -4.81304e-05 9.31844e-23)
(1.01185 -7.28989e-06 6.5122e-22)
(1.01519 -0.000115506 -6.41681e-22)
(1.01436 -4.7013e-05 7.11083e-22)
(1.01628 0.000201965 -2.07453e-22)
(1.01647 0.000175384 -4.32008e-23)
(1.01699 -0.00390653 1.56357e-21)
(1.01699 -0.00359464 -1.56342e-21)
(1.02209 -0.0124656 2.23626e-21)
(1.02269 -0.0123753 -1.83788e-21)
(1.02211 -0.0119432 9.76622e-22)
(1.01427 -0.000242506 1.44863e-21)
(1.01405 -0.000175767 1.78542e-22)
(1.01448 -0.000254337 -1.95776e-22)
(1.01737 0.000299102 1.1641e-22)
(1.01765 0.000220673 -9.11295e-22)
(1.01537 0.00108648 -1.83472e-22)
(0.811712 0.119161 -5.80465e-21)
(0.843712 0.108656 9.53306e-22)
(1.01082 -0.000953433 -1.46032e-22)
(1.01037 -0.00057996 -1.39667e-21)
(1.01093 -0.000343905 1.80271e-22)
(1.0096 -0.000174619 0)
(1.01719 -0.000236739 1.79995e-22)
(1.01451 3.56645e-05 5.42231e-24)
(1.01593 -0.000100425 0)
(1.01716 -0.0071834 -3.31482e-22)
(1.0173 -0.00818537 1.36712e-21)
(1.02142 -0.00551815 -6.19161e-22)
(1.02118 -0.00572339 -1.22829e-22)
(1.02099 -0.00532303 -2.02005e-21)
(1.02141 -0.0124101 3.2183e-22)
(1.02199 -0.0131069 -1.97304e-22)
(1.01404 4.60681e-05 -1.00399e-21)
(1.01405 7.81363e-05 1.46514e-21)
(1.01402 6.19112e-05 4.7086e-22)
(0.868537 -0.463871 2.69155e-20)
(0.892645 -0.509649 3.54358e-20)
(0.919927 -0.44585 4.18364e-21)
(1.01989 -0.0010694 -4.9775e-23)
(0.819872 -0.137221 1.043e-21)
(0.824961 -0.137648 1.19445e-21)
(0.833051 -0.128937 3.08659e-22)
(0.725502 0.223946 -7.1606e-22)
(0.707423 0.217182 1.49616e-22)
(0.712666 0.237338 -7.96461e-21)
(1.00971 2.50757e-05 -6.91233e-22)
(1.0118 5.92116e-05 0)
(1.0118 7.96938e-07 5.33355e-23)
(1.01251 -0.00011678 5.10216e-22)
(1.01327 -0.000158259 5.27981e-23)
(1.01301 -0.00504427 8.29591e-23)
(1.01352 -0.00510769 -3.96609e-22)
(1.01334 -0.00574071 4.39464e-22)
(1.0211 -0.0106384 -2.54242e-21)
(1.02125 -0.0100473 2.02239e-21)
(1.02085 -0.00953578 1.49151e-21)
(1.02107 -0.00972891 -4.74903e-21)
(1.021 -0.00934097 -3.80185e-21)
(1.02392 0.000872651 -7.94718e-22)
(1.02317 0.00074413 1.46855e-21)
(1.02371 0.000234923 8.06101e-22)
(0.808004 -0.125907 -6.82538e-22)
(0.811742 -0.145847 8.67142e-22)
(1.01309 -9.2323e-05 1.27306e-21)
(1.01271 -0.00016213 6.22395e-22)
(1.01321 5.54768e-05 1.22749e-21)
(1.01247 -0.00485995 3.81098e-22)
(1.01274 -0.00426539 6.55796e-22)
(1.02071 -0.00941991 1.22984e-21)
(1.02069 -0.00969369 2.24305e-21)
(1.01587 -0.00416853 0)
(1.01615 -0.00436678 0)
(1.01582 -0.00450478 1.70362e-21)
(1.01768 -0.00249275 0)
(1.01752 -0.00229173 1.50912e-21)
(1.0178 -0.00234342 -2.0138e-21)
(1.01152 -0.00249003 4.13802e-22)
(1.01163 -0.0034835 -6.14891e-22)
(1.02642 -0.0501685 1.85831e-23)
(1.01852 0.00153622 9.09869e-22)
(1.0188 0.00178564 -1.77767e-22)
(1.01886 0.00148608 1.48067e-21)
(1.02051 -0.00974431 1.61962e-21)
(1.02022 -0.00970128 -1.55575e-21)
(1.02041 -0.00962081 -3.66727e-23)
(1.0245 -0.00763731 7.25461e-22)
(1.02478 -0.00721961 0)
(1.01753 0.000806927 5.52689e-22)
(1.01776 0.00095665 8.58673e-24)
(1.01776 0.000769051 7.86354e-22)
(0.989602 -0.00440218 -2.52999e-22)
(1.19303 0.104166 -2.51466e-21)
(1.15638 0.107905 -2.07766e-20)
(1.18594 0.0680118 -7.71328e-21)
(1.0058 -0.00515555 1.23537e-22)
(1.00584 -0.00858969 1.69257e-21)
(1.02344 -0.00429307 -1.07304e-22)
(1.02383 -0.00453946 -2.36455e-23)
(1.22274 -0.00232042 -2.00494e-21)
(1.20073 0.0129952 0)
(1.02095 -0.00591967 -7.20167e-22)
(1.0207 -0.00611758 -6.38499e-22)
(1.02053 -0.00572034 -7.43494e-22)
(1.00862 -0.209034 -1.11768e-20)
(1.03078 -0.173004 5.34065e-21)
(0.987419 -0.0149545 -5.21465e-21)
(0.983574 -0.0193357 5.02875e-22)
(1.00943 0.00919603 -4.35962e-22)
(1.0104 0.00866662 -5.05161e-22)
(1.01037 0.00994836 1.90798e-23)
(1.03412 -0.00598541 -5.15219e-22)
(1.03485 -0.00675993 2.36596e-22)
(0.991121 -0.00975496 -4.24955e-21)
(1.01471 -0.00482775 3.0542e-22)
(1.01522 -0.00549 0)
(1.00616 0.00760701 -1.14664e-21)
(1.00533 0.00667578 -2.50933e-21)
(1.03726 -0.060861 0)
(1.03971 -0.0579015 1.03011e-22)
(1.04076 -0.0633448 0)
(1.01562 -0.000740013 -3.23148e-24)
(1.0155 -0.000664201 0)
(1.01549 -0.000680622 -7.00839e-22)
(1.01251 5.36282e-05 -7.79214e-22)
(1.01377 -0.000134988 6.53232e-22)
(1.01993 0.00062768 -1.238e-22)
(1.01985 0.000410389 4.70195e-22)
(1.01324 -0.000121269 0)
(1.01334 -0.000137297 4.67406e-22)
(1.01202 -8.78343e-05 0)
(1.01642 0.00627198 7.77474e-22)
(1.01599 0.00566258 1.09622e-21)
(1.01883 0.0939477 -2.72626e-21)
(1.02993 0.0768898 3.39481e-21)
(1.00592 0.076914 2.44109e-21)
(1.01474 0.000420676 -2.73369e-21)
(1.01473 0.000363042 -1.02468e-21)
(1.0173 0.000675205 -1.44336e-21)
(1.01731 0.000828813 -1.51025e-21)
(0.846528 -0.410233 -3.20683e-21)
(1.01341 -0.0048127 -9.65878e-22)
(1.01367 -0.00403177 1.92266e-22)
(1.00154 0.0047755 0)
(1.00338 0.00497564 1.03377e-21)
(1.02311 -0.0039647 -1.30628e-22)
(1.01874 -0.00630197 1.17345e-21)
(1.01892 -0.00664276 5.3635e-22)
(1.01911 -0.00637161 1.32042e-21)
(1.01575 -0.000832326 1.10871e-21)
(1.00209 0.118904 -2.97295e-21)
(1.02164 -0.00531599 2.29537e-22)
(1.02186 -0.00507485 -1.09392e-21)
(1.02142 -0.00488185 6.42102e-23)
(1.01693 -0.000524917 0)
(1.017 -0.000625305 0)
(1.01682 -0.000576288 -1.53604e-21)
(1.01593 -0.00324273 8.11792e-23)
(1.01594 -0.003525 1.7544e-22)
(1.01568 -0.0033184 1.46253e-21)
(1.01305 -0.00565056 2.25251e-21)
(0.840407 0.025973 0)
(0.868779 0.00878447 -2.40974e-21)
(0.867966 0.0206183 0)
(1.0201 -0.00198248 -3.08454e-23)
(1.01972 -0.00196297 -1.42682e-21)
(1.00893 -0.0222911 -2.50176e-21)
(1.00891 -0.0196642 2.79213e-21)
(1.00665 -0.0207485 4.10226e-21)
(1.02315 -0.0021485 -9.70983e-23)
(1.02502 -0.0318739 -1.47029e-21)
(1.02683 -0.0307338 -7.97375e-22)
(1.02452 -0.0302092 -2.56075e-22)
(0.878379 -0.0958041 -7.32992e-22)
(0.881361 -0.120918 -2.26498e-21)
(1.08015 -0.0783475 1.09254e-21)
(1.0732 -0.0755883 -4.13134e-22)
(1.02298 -0.0331536 -1.95056e-21)
(1.02582 -0.0339624 -7.08474e-22)
(1.01858 -0.00586462 -1.25708e-21)
(1.01834 -0.00616115 -7.32016e-22)
(1.01972 -0.0100941 -1.14088e-21)
(1.01918 -0.00893093 7.05237e-22)
(1.0187 -0.00983539 6.44502e-22)
(1.12869 0.138139 1.19877e-21)
(1.11307 0.1827 1.0098e-24)
(1.01211 -0.000228027 0)
(1.0136 -5.15604e-05 0)
(0.950722 -0.164466 9.2166e-21)
(0.965946 -0.149397 2.61882e-21)
(1.012 -0.00205982 7.12628e-22)
(1.01147 -0.00155202 -7.971e-22)
(1.01801 0.000938582 3.64735e-22)
(1.01879 0.00112875 -1.42559e-22)
(0.74856 0.216275 -4.10933e-21)
(0.749721 0.209857 3.65596e-22)
(1.00716 0.00702414 -1.58064e-22)
(1.00698 0.00834602 -6.0436e-22)
(1.22633 0.0893652 0)
(1.19324 0.153819 -4.03769e-21)
(1.01682 -0.000424024 -1.23197e-21)
(1.01703 -0.000492816 1.12117e-21)
(1.04884 -0.0392781 -6.83431e-23)
(1.05163 -0.0387527 -8.52168e-24)
(0.935117 -0.0939444 0)
(0.920996 -0.104556 0)
(1.01758 0.0105434 1.0428e-21)
(1.01837 0.0111499 6.39336e-23)
(1.01848 0.010104 -1.08845e-21)
(1.01488 0.00063561 -5.97905e-22)
(1.01491 0.000648153 -2.4402e-21)
(1.01487 0.000590641 1.55283e-22)
(0.775084 0.127211 9.038e-21)