/*--------------------------------*- C++ -*----------------------------------*\
| =========                 |                                                 |
| \\      /  F ield         | OpenFOAM: The Open Source CFD Toolbox           |
|  \\    /   O peration     | Version:  v2012                                 |
|   \\  /    A nd           | Website:  www.openfoam.com                      |
|    \\/     M anipulation  |                                                 |
\*---------------------------------------------------------------------------*/
FoamFile
{
    version     2.0;
    format      ascii;
    class       volScalarField;
    location    "50";
    object      k_0;
}
// * * * * * * * * * * * * * * * * * * * * * * * * * * * * * * * * * * * * * //

dimensions      [0 2 -2 0 0 0 0];


internalField   nonuniform List<scalar> 
10042
(
0.000172597
0.0143863
0.000178891
0.000141643
0.000141667
0.00123154
0.0444962
0.00365103
0.00013855
0.000195848
0.00823154
0.0157619
0.000182778
0.000149019
0.000145961
0.000149244
0.000880634
0.00721349
0.000152849
0.000155751
0.000181529
0.000168504
0.000141534
0.00154662
0.000140889
0.000144976
0.000191425
0.000139422
0.000958835
0.0016787
0.000153507
0.000175225
0.000138722
0.000138672
0.00363423
0.00450326
0.000149387
0.000138023
0.000147193
0.000138147
0.00154856
0.000138482
0.00452451
0.00425112
0.000141218
0.000140884
0.000140528
0.000145672
0.000434591
0.0145782
0.00486803
0.000140627
0.000945379
0.000152561
0.0247535
0.0285268
0.000178384
0.00300034
0.000146557
0.000139596
0.000325364
0.00679471
0.00436748
0.00414755
0.000166076
0.000143049
0.00015421
0.000229973
0.000140035
0.000216841
0.0037865
0.000150231
0.000140562
0.000146295
0.000142796
0.0028512
0.000161124
0.000140432
0.00016103
0.000152865
0.00399461
0.00159605
0.000170561
0.000139919
0.000169666
0.00291444
0.000153324
0.000182118
0.00014057
0.00016121
0.000163039
0.000146019
0.00633134
0.00161378
0.000168378
0.00014299
0.035384
0.000154844
0.000844206
0.000146023
0.000162854
0.000225732
0.000146865
0.000166737
0.000156536
0.000145412
0.00654108
0.000142566
0.0386998
0.000145836
0.000145837
0.0275758
0.000217838
0.00433463
0.000164525
0.000139848
0.000166726
0.000153653
0.00202223
0.000139459
0.000139015
0.0187863
0.0197767
0.000141305
0.000162132
0.000141159
0.000141398
0.025303
0.0105522
0.00016551
0.000137809
0.000142037
0.000142551
0.000142157
0.0221721
0.0174598
0.000153028
0.0136265
0.000150757
0.000841885
0.0301325
0.000142601
0.0143646
0.000139199
0.000161694
0.000138041
0.000168016
0.000139841
0.000148314
0.00366099
0.000142259
0.000146745
0.000151844
0.000189967
0.000167811
0.000162339
0.0107086
0.0361794
0.000142551
0.000146155
0.000151667
0.000138161
0.021798
0.000140847
0.00014958
0.00282976
0.000140418
0.000169744
0.00405178
0.000139126
0.000175353
0.00173466
0.0204028
0.000138958
0.000152576
0.0204132
0.000141137
0.000137928
0.000141679
0.000140127
0.000150565
0.000157737
0.000146303
0.00013938
0.000138442
0.00016094
0.000150442
0.000140202
0.0010536
0.000147417
0.0145278
0.000177469
0.000137918
0.000156926
0.0259709
0.000145929
0.0181173
0.000176844
0.0355604
0.000140068
0.00750029
0.0164226
0.00271149
0.000141905
0.000997524
0.000142188
0.00093799
0.000188522
0.000145503
0.000142298
0.000171667
0.000141543
0.00327325
0.00226233
0.000150172
0.00020374
0.000141888
0.0177343
0.000143573
0.00600847
0.0168092
0.000172031
0.0178264
0.000200442
0.000141619
0.0113678
0.000146373
0.000152142
0.000182087
0.000147274
0.000137933
0.000141755
0.00016141
0.000159695
0.000141114
0.00374607
0.000149928
0.0351967
0.000159805
0.00120477
0.0161378
0.000789563
0.000138892
0.000138049
0.0235932
0.00014237
0.000549056
0.000158657
0.000152146
0.000145758
0.000155316
0.000138079
0.000515874
0.0196879
0.000147705
0.000149359
0.000149643
0.000147283
0.0352444
0.000141605
0.000165141
0.000138154
0.000140512
0.000140801
0.000186468
0.0219181
0.000164249
0.000320043
0.000161943
0.000141815
0.00014349
0.0168878
0.000143023
0.00224895
0.00014681
0.00297905
0.000148782
0.000140979
0.000162718
0.022787
0.000139393
0.00046182
0.0239244
0.000148611
0.000160518
0.0277114
0.000159607
0.000140919
0.000158379
0.000148491
0.00017502
0.000150783
0.00016354
0.00163077
0.000166938
0.000148364
0.00079923
0.000151409
0.000143583
0.000142067
0.00015162
0.00348357
0.000140367
0.0165104
0.000160588
0.00642309
0.000144166
0.000137991
0.00159225
0.00163811
0.000154609
0.000141785
0.000142897
0.000148678
0.000150153
0.000155582
0.000140819
0.000138399
0.000857226
0.000139721
0.000150044
0.00260646
0.00213188
0.000713106
0.000138515
0.000153254
0.000164482
0.000141595
0.000150647
0.000173282
0.000142197
0.000143908
0.000171637
0.000147066
0.000932637
0.000164418
0.0170638
0.000570932
0.000138262
0.00247033
0.0318971
0.000190458
0.000138345
0.000163316
0.000156242
0.000137828
0.000142108
0.000143072
0.0001466
0.0369544
0.000147399
0.000167583
0.000146428
0.000142139
0.0132125
0.000165649
0.000146631
0.000169813
0.0113027
0.000152131
0.000145033
0.00015051
0.000149573
0.000713317
0.00193727
0.000149843
0.000140974
0.000145711
0.000145882
0.0215157
0.000139738
0.000172643
0.000142746
0.000143091
0.000776823
0.000142618
0.00250549
0.0155727
0.0164914
0.001404
0.000144141
0.0154868
0.000179771
0.000141363
0.000195979
0.000139558
0.000144755
0.000139424
0.00014292
0.000140931
0.000146456
0.0370374
0.000147399
0.000166987
0.00183129
0.0147527
0.00014208
0.00382062
0.000150396
0.000176962
0.000140736
0.0236462
0.000139253
0.0190842
0.0308355
0.000142484
0.0296854
0.000148076
0.0154308
0.000146017
0.002306
0.000165186
0.000897957
0.000147165
0.00330874
0.00014475
0.000167016
0.0210451
0.000140853
0.000144435
0.000146448
0.00148352
0.000137834
0.00013932
0.0294518
0.000145792
0.00017558
0.00242866
0.000141457
0.000189886
0.000145829
0.000140573
0.000165317
0.00456728
0.000146721
0.000149174
0.0222585
0.00336091
0.000149613
0.0350538
0.000138867
0.00014903
0.00016158
0.00132707
0.0151869
0.000138584
0.00319294
0.0249316
0.00388915
0.000139225
0.00204335
0.000543501
0.000456205
0.000147557
0.000141524
0.0001416
0.000164719
0.0401431
0.000139512
0.000137975
0.000157043
0.000141882
0.000156593
0.000159837
0.000142651
0.000163587
0.000168476
0.000148378
0.000148937
0.000174168
0.0300949
0.0001392
0.0252052
0.0285768
0.000323095
0.000146454
0.000154742
0.000149458
0.0124118
0.000143581
0.000173183
0.000147178
0.000616878
0.00014387
0.000155148
0.000138053
0.00137507
0.0023497
0.000148578
0.000139297
0.000141976
0.0118118
0.000138124
0.000166985
0.000199644
0.0320417
0.000141081
0.0001688
0.00282292
0.0416918
0.000144813
0.000156492
0.000416569
0.0132145
0.000202008
0.00250234
0.000145597
0.000138345
0.000168351
0.000166428
0.000155917
0.00101057
0.000140871
0.000141416
0.000146573
0.00355422
0.000141383
0.0154728
0.00014188
0.000144422
0.00013899
0.000165919
0.00218322
0.000147045
0.000149154
0.00437476
0.000177091
0.000166504
0.000146857
0.000142427
0.000138332
0.0435563
0.000144433
0.000140244
0.000188352
0.000143156
0.00014334
0.000189615
0.000137769
0.0259356
0.000140781
0.000186896
0.000335706
0.021438
0.000141461
0.000156395
0.000144632
0.000139784
0.00326397
0.000138219
0.0162299
0.000202237
0.00013816
0.000160836
0.020165
0.015548
0.000167854
0.000146807
0.000140332
0.000139482
0.000140354
0.000860823
0.000146092
0.000173162
0.000142877
0.000141234
0.000304653
0.000156843
0.00124249
0.000151197
0.000139086
0.000267213
0.00057761
0.000262546
0.00100441
0.000143454
0.000158295
0.000139369
0.000138318
0.000142205
0.000141798
0.000144951
0.000149313
0.0256209
0.000146949
0.000196198
0.000140717
0.000191317
0.000140884
0.00016886
0.0170654
0.000137838
0.000140892
0.000138395
0.000172015
0.000140853
0.0192937
0.000141239
0.000160944
0.000138067
0.000150849
0.00013941
0.0127205
0.000140845
0.000140983
0.000144029
0.0194231
0.000143694
0.000142091
0.000148682
0.000212685
0.000142056
0.000141459
0.000142139
0.000141516
0.000156852
0.000141236
0.000175609
0.000139388
0.0348813
0.00112207
0.00203612
0.000145716
0.000152482
0.00014317
0.000170427
0.000149978
0.00106443
0.000966472
0.00152522
0.000157834
0.000474887
0.000143451
0.000144106
0.0038119
0.000208339
0.00016483
0.0134972
0.000146233
0.000370313
0.000139679
0.000145007
0.000139305
0.000138087
0.000151316
0.00412012
0.000148597
0.000145024
0.0341414
0.000142466
0.000174585
0.000138167
0.000148254
0.000164142
0.000144562
0.000804284
0.000141932
0.000141568
0.000213097
0.000144648
0.000140864
0.000156098
0.000140138
0.000139148
0.000446341
0.000198005
0.00047787
0.00014541
0.000140331
0.000140125
0.000448777
0.000150718
0.000142758
0.000142584
0.000140243
0.000719216
0.015838
0.000137693
0.000146756
0.000160278
0.0360233
0.000157283
0.000147302
0.000170644
0.000138141
0.00794881
0.000644538
0.000139565
0.000147902
0.000142218
0.00412361
0.000139432
0.000153636
0.000142532
0.000137732
0.000163457
0.000143769
0.0108134
0.017799
0.000140844
0.000141128
0.000139203
0.00013857
0.000138078
0.00193602
0.000145386
0.00574612
0.000140211
0.000144418
0.0001378
0.000141334
0.000143686
0.000137412
0.000143681
0.00014747
0.000166837
0.000154099
0.00135659
0.000143484
0.000180587
0.000138156
0.000152917
0.020958
0.000140462
0.000141673
0.000139424
0.000148029
0.0010361
0.00014251
0.000145299
0.000139169
0.0169853
0.000143805
0.00406495
0.000191438
0.000140405
0.000235366
0.00464426
0.000138272
0.000140879
0.0191585
0.000172767
0.0163044
0.000164915
0.000159181
0.000165326
0.000145201
0.000145082
0.000142947
0.00016144
0.00013909
0.000399486
0.0413325
0.00013765
0.000140061
0.000148887
0.000161213
0.000172662
0.0016182
0.000146432
0.000144716
0.00115937
0.000140153
0.0118517
0.000168895
0.000161622
0.00250986
0.000143407
0.000140746
0.000144154
0.000175052
0.000143921
0.0118899
0.000147208
0.000172892
0.000153679
0.011706
0.000143828
0.000164268
0.000138125
0.000147759
0.0001892
0.000138915
0.000171694
0.000141322
0.000146915
0.000145766
0.000143606
0.000151023
0.000202039
0.000151488
0.000145774
0.000138582
0.000139148
0.000140316
0.000140787
0.000139291
0.000137683
0.000157268
0.000148343
0.000148247
0.000138467
0.000143526
0.000767071
0.0159376
0.000140444
0.000141778
0.000139183
0.00305564
0.000138252
0.000156238
0.00013985
0.000206044
0.0445196
0.0284786
0.000144538
0.00257214
0.0350016
0.00201391
0.000143093
0.00013742
0.000140001
0.000583417
0.000170393
0.000146946
0.0282782
0.00016261
0.00229664
0.000989061
0.000142009
0.000159446
0.0161006
4.80498e-05
0.0244699
0.000161793
0.0288418
0.000147755
0.000815651
0.000144534
0.000146518
0.000153991
0.000153394
0.000139562
0.000145382
0.000141047
0.0153307
0.000141994
0.000137391
0.00155725
0.000143921
0.0001622
0.000144852
0.000345612
0.000142039
0.000149619
0.00014391
0.000142636
0.000142398
0.000154716
0.000139263
0.0113832
0.000162257
0.000199076
0.000142207
0.000242969
0.000138882
0.0193892
0.000138563
0.000139028
0.0001426
0.000139946
0.000142678
0.000150052
0.0168187
0.000166047
0.000140268
0.0104885
0.000144186
0.000145309
0.00118681
0.000139244
0.000145612
0.0130407
0.000139778
0.000211463
0.00015068
0.000188828
0.000160772
0.000164146
0.000163269
0.000143018
0.0414615
0.0392263
0.000140806
0.000167674
0.00908788
0.0143247
0.0107021
0.000147557
0.00014229
0.000138072
0.000145275
0.000142502
0.000211581
0.000152526
0.000139465
0.000169783
0.000287122
0.0001382
0.000139669
0.000139169
0.000146125
0.000146561
0.000741146
0.000633944
0.000139966
0.000154919
0.00022482
0.000143021
0.000155174
0.0123283
0.000151965
0.000189805
0.000141682
0.00014925
0.000145578
0.000153257
0.000168872
9.16672e-05
0.00014259
0.00766104
0.0183522
0.000709072
0.000155105
0.000151443
0.0191304
0.000175975
0.000911178
0.000162198
0.000143943
0.000141575
0.00480505
0.0159194
0.000144378
0.000154717
0.000183391
0.000141743
0.000177552
0.000144369
0.000141428
0.000149079
0.000170795
0.000140688
0.000141063
0.0416014
0.000142311
0.000142086
0.000174093
0.000157768
0.00804262
0.000153436
0.000145057
0.00202609
0.000200515
0.000155366
0.000183574
0.000258075
0.000140632
0.00013875
0.000156283
0.000170775
0.000139835
0.000143716
0.000141539
0.000138274
0.000145953
0.0266124
0.000143122
0.000295598
0.000144681
0.000162784
0.000140099
0.000146729
0.000154412
0.00234718
0.0451366
0.000142718
0.000145341
0.000242662
0.000152027
0.000138423
0.000148284
0.000283309
0.000140777
0.000517329
0.000188614
0.000140334
0.000151138
0.000140782
0.000139071
0.0211398
0.000278346
0.000141084
0.000149327
0.000158106
0.000151443
0.000141811
0.000141054
0.000164897
0.000139391
0.000141337
0.000190399
0.000143819
0.016481
0.000138286
0.000141667
0.000139416
0.000161151
0.000144171
0.000141905
0.0333085
0.0001413
0.000144086
0.0157185
0.000141793
0.000153947
0.000156241
0.000203732
0.0105052
0.000145623
0.00577581
0.000156243
0.000144634
0.0145156
0.000148079
0.000141047
0.000140447
0.000140563
0.000172397
0.00889301
0.000168914
0.000259031
0.000951889
0.00016113
0.000168315
0.0114738
0.000153519
0.00018575
0.000139461
0.000159084
0.000145512
0.000145914
0.000148305
0.0478194
0.000217093
0.000142705
0.000878521
0.000141494
0.00865862
0.000148459
0.000154828
0.000154136
0.000148861
0.000923144
0.000142085
0.000140908
0.0237682
0.0285701
0.000777757
0.000376202
0.000632156
0.000144329
0.00592285
0.00152997
0.000138975
0.000141986
0.000140284
0.00015848
0.000141968
0.000149586
0.000150584
0.000144048
0.000144343
0.000144651
0.000142835
0.000183555
0.00230933
0.000139695
0.000149192
0.000151261
0.000183874
0.000174689
0.000173263
0.00013899
0.000180797
0.000177006
0.000141686
0.00022136
0.000511582
0.000146331
0.000142008
0.000147242
0.00214547
0.000882767
0.000139525
0.00020366
0.000144678
0.000146024
0.0287305
0.000148295
0.000141333
0.000141716
0.000142136
0.000142319
0.000138521
0.000170603
0.000144899
0.000143075
0.00014673
0.000141392
0.000301482
0.000140933
0.000159373
0.00612324
0.000316376
0.000137691
0.00252383
0.000142393
9.39812e-05
0.000144934
0.000164998
0.000139564
0.00167301
0.0234634
0.0231794
0.000144099
0.000610806
0.000148307
0.000373006
0.000144145
0.000150809
0.00014135
0.000471156
0.00208675
0.000147617
0.00893373
0.00156911
0.000161951
0.0261293
0.0385415
0.00190495
0.000143296
0.000145594
0.000153238
0.0354818
0.000142969
0.00190036
0.000148431
0.000139323
0.000142628
0.000760022
0.032449
0.000160701
0.000237919
0.00016865
0.00025364
0.000148815
0.000140929
0.000149958
0.000153794
0.00114797
0.000167278
0.000196131
0.000147232
0.000147716
0.000179719
0.000219152
0.000193832
0.000139315
0.000178993
0.0115261
0.000144643
0.000136831
0.000140548
0.000170068
0.000158667
0.000147601
0.000302022
0.000171295
0.00014269
0.000149018
0.000140189
0.000485164
0.000154702
0.00885513
0.000174394
0.000140525
0.000143847
0.000140218
0.000182527
0.000142614
0.000549453
0.000156208
0.000138389
0.000192791
0.000149073
0.000162786
0.00176053
0.000145131
0.000171793
0.000151153
0.000144215
0.0135167
0.000184051
0.000147231
0.00745315
0.000141655
0.000902333
0.000141555
0.000142886
0.000148397
0.000154805
0.000165284
0.000188487
0.000144944
0.00015128
0.000138709
0.000167236
0.000154816
0.000196213
0.0325647
0.00015019
0.000140299
0.000140793
0.000181255
0.000141524
0.0156412
0.000165595
0.000210151
0.00118839
0.000148065
0.000141344
0.0245652
0.000179273
0.000141034
0.0102798
0.000171853
0.000141605
0.0285964
0.000149024
0.00014407
1.24484e-05
0.000155731
0.000141975
0.000152289
0.000140707
0.000153866
0.000354876
0.000162547
0.000712049
0.000143195
0.000160384
0.000140105
0.000142781
0.000161968
0.000145044
0.00908974
0.00984708
0.000149515
0.00829687
0.000164558
0.000177243
0.00013924
0.00928504
0.0259746
0.000168645
0.000153976
0.00014463
0.000140944
0.00035558
0.000154609
0.000193018
0.000170099
0.000138626
0.000175876
0.000139114
0.0392367
0.000140666
0.0197218
0.000142253
0.000142556
0.000138609
0.00716644
0.00013932
0.000140048
0.000140269
0.000139949
0.000143418
0.000178355
0.000171448
0.000140393
0.000157766
0.00014595
0.000140546
0.000138645
0.00886398
0.0317612
0.000154824
0.000143354
0.00013874
0.000139328
0.000157053
0.00015474
0.000138797
0.000263042
0.0245581
0.000180074
0.000140233
0.000139956
0.000143076
0.000151437
0.000143115
0.000149096
0.000143319
0.000139173
0.000154381
0.000144769
0.000146114
0.011775
0.0353988
0.000139379
0.000140524
0.00014166
0.0200243
0.000145276
0.00016743
0.000169893
0.000140918
0.000143018
0.000141135
0.0164999
0.000142833
0.00248638
0.000140306
0.00019601
0.000143025
0.000156181
0.000156208
0.000154578
0.000188873
0.000156096
0.000171484
0.00014008
0.000156382
0.00150377
0.00135677
0.0001458
0.000144936
0.011055
0.000153525
0.000180885
0.000171706
0.000156698
0.000142792
0.000156169
0.000175203
0.00227517
0.0244333
0.000140309
0.000142409
0.000141017
0.00014586
0.000172722
0.000700065
0.000245585
0.000142463
0.0118176
0.000155094
0.0209783
0.000581313
0.000141032
0.0141409
0.000170808
0.000138534
0.000182241
0.000178559
0.000144632
0.000229066
0.000139413
0.0339791
0.000142067
0.0252381
0.0326599
0.000126503
0.000143206
0.000154892
0.000149026
0.000139957
0.000137923
0.000139606
0.0367705
0.000147759
0.00018738
0.000422477
0.037387
0.000185638
0.000144894
0.000141622
0.0194462
0.000140455
0.000234842
0.00722179
0.0309221
0.00531994
0.000141193
0.00244245
0.000139798
0.000144411
0.000138384
0.000287365
0.000150621
0.00730366
0.000153504
0.0194106
0.000160065
0.000140287
0.000140247
0.000145259
0.000139181
0.000153681
0.00495782
0.0264238
0.000146164
0.000172181
0.00015464
0.000145066
0.0266141
0.000144159
0.000696108
0.00036405
0.000148635
0.000139607
0.000286088
0.000159824
0.000137781
0.000601016
0.000145777
0.00081598
0.000153123
0.0373593
0.000140412
0.00014179
0.000144529
0.000164463
0.000156197
0.0137361
0.000213324
0.0160968
0.00814017
8.49217e-05
0.000139737
0.000145038
0.000804661
0.000160445
0.0180562
0.000158089
0.0426907
0.000176568
0.00274988
0.000184003
0.019728
0.000149771
0.000184956
0.00103993
0.000144942
0.000148774
0.000172166
0.000140414
0.000140882
0.0001404
0.000142496
0.0261155
0.000147897
0.000156822
0.0330299
0.0107482
0.000148747
0.000418173
0.000140109
0.000147468
0.00031565
0.000169873
0.00015931
0.000308437
0.0200131
0.000527162
0.000139409
0.000175827
0.000155698
0.0363521
0.000168119
0.00255424
0.000177272
0.000186345
0.000144338
0.000150951
0.00173463
0.000169564
0.000103978
0.000189892
0.00014045
0.000170254
0.000150712
0.0170051
0.000152286
0.000140899
0.000139983
0.000150586
0.013175
0.000138474
0.000146926
0.0312748
0.00745993
0.0001451
0.000180556
0.000170861
0.000174941
0.00016799
0.00017826
0.0334637
0.000141386
0.000147221
0.000144749
0.02917
0.0175721
0.000184806
0.00014883
0.000151728
0.000146682
0.00116655
0.000181217
0.000152587
0.000146397
0.00441486
0.000156264
0.000166308
0.000151154
0.000171133
0.000140905
0.0107736
0.000169628
0.000203837
0.0234438
0.000140935
0.000164729
0.00059845
0.000156924
0.000155026
0.0296409
0.000145994
0.000150078
0.0299907
0.000143117
0.0153108
0.000146098
0.0136723
0.00577486
0.000173841
0.000152355
0.000140627
0.000141772
0.000142936
0.00015641
0.000139275
0.000145165
0.00014044
0.000138305
0.000153841
0.000151328
0.000151592
0.000150086
0.0216877
0.000145019
0.023039
0.00014775
0.000144911
0.0385272
0.000141308
0.00754044
0.00981281
0.000143998
0.000149124
0.000189261
0.000165938
0.000172624
0.0236125
0.000168744
0.00014572
0.0145336
0.000144811
0.0395339
0.000145565
0.00271081
0.000140006
0.0446925
0.025644
0.0092766
0.000147154
0.000153952
0.000139053
0.000151568
0.000170661
0.000140349
0.000143228
0.000170646
0.000167398
0.00296274
0.000176941
0.000148101
0.000189113
0.000144253
0.000158326
0.000149532
0.00014327
0.000148614
0.025718
0.0275528
0.000155788
0.000153106
0.00014874
0.000150365
0.00489608
0.00105384
0.000239091
0.0170776
0.000179603
0.000150475
0.000153145
0.022806
0.0001392
0.000153853
0.000159479
0.000150251
0.000147126
0.000150134
0.000308493
0.000138587
0.000148682
0.025722
0.000150676
0.000152074
0.000153669
0.000161474
0.000185784
0.000145661
0.000139079
0.000144883
0.0280832
0.000179844
0.000155699
0.000145848
0.000138478
0.000149561
0.000142627
0.000142339
0.000140089
0.00013856
0.000145125
0.000158393
0.00016001
0.000144579
0.0231196
0.000147485
0.000149169
0.000343475
0.000153135
0.000155693
0.00177128
0.000148248
0.0155746
0.000139308
0.000138561
0.000148611
0.000160076
0.000140309
0.000140245
0.000148751
0.000141067
0.0172502
0.000175321
0.043517
0.000172491
0.000334527
0.000159912
0.000142689
0.000152435
0.000158928
0.000165787
0.0153255
0.000150024
0.000165601
0.000137732
0.000172839
0.000138335
0.0172559
0.000142349
0.000140442
0.000159318
0.000147782
0.000148561
0.000185599
0.000157703
0.00014516
0.000139104
0.000139545
0.00883323
0.000146682
0.000177337
0.000175013
0.000146427
0.000140286
0.000141101
0.0182301
0.000176725
0.000139798
0.0130581
0.00129449
0.000148736
0.00024394
0.000146083
0.000143186
0.000138328
0.000145468
0.000140107
0.000142952
0.000147258
0.000151105
0.000146298
0.0301471
0.000152395
0.000506917
0.000174668
0.00014268
0.000868653
0.000140744
0.000138741
0.000226247
0.000140253
0.00172146
0.000141056
0.0395481
0.0431611
0.000137933
0.0289627
0.000148353
0.000144857
0.000147461
0.000142479
0.000358465
0.000145693
0.000244577
0.000209068
0.000144947
0.000163425
0.0001962
0.000165756
0.000146079
0.000175186
0.000146665
0.000180898
0.0331207
0.00016648
0.000287055
0.000149832
0.0133928
0.000187559
0.0148214
0.000145034
8.78381e-05
0.000151732
0.000139977
0.000140229
0.000155294
0.0142357
0.000161322
0.000140834
0.000181896
0.000172204
0.000147618
0.000137922
0.000163158
0.000145344
0.000159125
0.00284984
0.00868052
0.0169001
0.000175244
0.000157289
0.0158891
0.000171174
0.000140554
0.000140843
0.000148571
0.000144861
0.000155848
0.000141205
0.0195753
0.000156165
0.000147068
0.00014
0.000142967
0.000142588
0.00126968
0.00014691
0.00363611
0.000145363
0.0187544
0.000151411
0.000144716
0.000137426
0.0301862
0.000151047
0.0046142
0.0172915
0.000140614
0.000158055
0.000148438
0.000143738
0.000140179
0.00013977
0.000138751
0.000148032
0.000148304
0.0177433
0.00014429
0.000150074
0.00637723
0.000759309
0.0264002
0.000138914
0.0142379
0.0185111
0.000140877
0.000146137
0.000159037
0.0176324
0.0150307
0.000293619
0.0400217
0.000142887
0.000138776
0.000142401
0.000162369
0.000147851
0.000149739
0.000147349
0.000151442
0.0020051
0.0118586
0.00015223
0.000158022
0.000148229
0.000157906
0.000632717
0.000145285
0.000140066
0.000144046
0.00014183
0.000139792
0.000154423
0.000320363
0.00886226
0.000141029
0.000140089
0.000137399
0.00014567
0.000146129
0.000164938
0.0100189
0.000149258
0.0381524
0.000179721
0.0120585
0.000168691
0.000148979
0.00014449
0.000142017
0.000138984
0.000139915
0.000145145
0.00458954
0.00139197
0.000140647
0.000137894
0.000146934
0.000144982
0.00464006
0.00016634
0.000109587
0.000211251
0.00016952
0.0310706
0.000142811
0.000141768
0.000142339
0.000145071
0.0142758
0.000142724
0.00015325
0.000953738
0.000254567
0.00017753
0.000760946
0.0371184
0.000252206
0.000143275
0.000162352
0.0205982
0.0356978
0.000144007
0.000151023
0.000138438
0.000144064
0.000144564
0.00335831
0.000141312
0.000141585
0.0120451
0.000152376
0.0147207
0.000142604
0.000137982
0.000162866
0.00145227
0.000158443
0.000692255
0.000146523
0.0128094
0.000191593
0.000140534
0.000203875
0.000141303
0.000151552
0.00014601
0.000143633
0.0433386
0.0174579
0.00813781
0.0430262
0.000201541
0.000171338
0.0138959
0.000139402
0.000146084
0.00111552
0.000143173
0.000146981
0.00015388
0.000143595
0.0189468
0.000145786
0.000193668
0.00343302
0.000139483
0.0193072
0.000143964
0.000141751
0.000162977
0.000162282
0.000164872
0.000168149
0.000169743
0.00271543
0.000145374
0.000142676
0.000138185
0.000175455
0.00198124
0.000140022
0.000146494
0.000166836
0.0177392
0.000140962
0.000171486
0.000172403
0.000140069
0.000143204
0.000141852
0.0177103
0.0340686
0.000172695
0.000150035
0.000143576
0.000160088
0.000182716
0.000144764
0.000184528
0.0171838
0.000145402
0.000160543
0.0199935
0.0181018
0.000184011
0.000137684
0.000139286
0.000477781
0.000167694
0.0137426
0.000161094
0.0163607
0.000158693
0.0002544
0.000182415
0.0136469
0.0012286
0.000390321
0.00018789
0.0200635
0.000147744
0.000200713
0.000150563
0.0106806
0.000150854
0.000149577
0.000172676
0.0048388
0.000150376
0.000151209
0.000144245
0.000181466
0.0162715
0.0168536
0.000138867
0.000141101
0.000142876
0.000157608
0.000143954
0.000173751
0.000208169
0.000141671
0.000156794
0.000142052
0.00878175
0.000147073
0.000143861
0.000260237
0.000142667
0.00015484
0.000139989
0.00186126
0.0237848
0.000167625
0.000151457
0.000180049
0.0191966
0.000165312
0.000197162
0.0110655
0.0177629
0.00103131
0.00014087
0.000145132
0.0306469
0.000144426
0.000144459
0.000141573
0.000147233
0.000158601
0.000151322
0.000140699
0.000226492
0.000141305
0.000171543
0.000147436
0.00320722
0.00766327
0.000153441
0.0284621
0.0141286
0.000153335
0.00906399
0.0141361
0.000148156
0.000145892
0.000152222
0.000158114
0.0189937
0.000140615
0.000144048
0.0169668
0.000143198
0.000138888
0.000145711
0.000137815
0.00562865
0.000145849
0.000177959
0.000146754
0.000103358
0.000142506
0.0168762
0.000497034
0.00264588
0.0154724
0.000141002
0.000172297
0.000146371
0.000142863
0.0208122
0.000177284
0.0125183
0.000433057
0.000139624
0.000150414
0.000155419
0.000144548
0.000983685
0.000140334
0.000171113
0.0132938
0.000512524
0.00172232
0.000142514
0.000146237
0.0163904
0.00014904
0.000167846
0.000265105
0.0157468
0.0227844
0.000146813
0.000140807
0.000140221
0.000145633
0.000142474
0.00015094
0.000581387
0.000144069
0.000145611
0.000269046
0.000137844
0.000152619
0.000165715
0.000144961
0.000172856
0.0045702
0.000138567
0.000149429
0.00747616
0.000144198
0.00014479
0.000179584
0.0232863
0.000156883
0.000154368
0.00014083
0.0123335
0.000478209
0.000267151
0.000143761
0.000138576
0.000155491
0.000144406
0.000222784
0.000219879
0.000152774
0.0180343
0.000142643
0.000157804
0.000140724
0.000241426
0.000144163
0.00238557
0.000145381
0.000143695
0.0380559
0.000143094
0.000727463
0.000183588
0.000139912
0.000163919
0.000139593
0.000140168
0.000144427
0.000140869
0.000141531
0.0173812
0.000143831
0.000137773
0.0229589
0.000137969
0.000145933
0.000149295
0.000141874
0.000144057
0.00106707
0.000161242
0.000139807
0.000149905
0.000150611
0.000143326
0.0182353
0.000173938
0.000143693
0.000140534
0.000144028
0.00207884
0.000145312
0.000148306
0.000150564
0.000232636
0.000139817
0.000151224
0.00014643
0.000143882
0.000224468
0.000142596
0.000144354
0.000140872
0.000141737
0.000139452
0.000143004
0.0265705
0.000140649
0.000137954
0.000152238
0.000146004
0.000289203
0.000154033
0.000208601
0.000142588
0.000148789
0.000153582
0.0001488
0.000141809
0.000141836
0.000141217
0.000146878
0.0442802
0.000148234
0.00687352
0.000547246
0.000141142
0.00016902
0.0164475
0.000150624
0.00125731
0.00433935
0.000153093
0.000140702
0.0127182
0.000143924
0.000147897
0.000160381
0.000139869
0.000143287
0.00837399
0.000138808
0.00896621
0.0151463
0.000148357
0.00014366
0.0124571
0.000142476
0.000757498
0.000139258
0.0001378
0.000153047
0.000258866
0.000142628
0.00013986
0.000149037
0.0136896
0.0164072
0.000367144
0.0183079
0.000153647
0.000143003
0.00114567
0.0229074
0.00014365
0.0001379
0.000172564
0.000140966
0.00782653
0.000174969
0.000139849
0.000452843
0.000139729
0.00013941
0.000138862
0.000142591
0.000143191
0.00129345
0.000141955
0.0117307
0.000144069
0.000148423
0.000146492
0.000145241
0.000141818
0.000142722
0.000163094
0.00013853
0.000176944
0.0004477
0.000383909
0.000168509
0.000566316
0.000163178
0.00014207
0.00013822
0.000142681
0.000137753
0.0203972
0.000138736
0.000152604
0.000151752
0.0178989
0.000149468
0.000921134
0.000144069
0.000140959
0.000144043
0.00080192
0.000581829
0.0155214
0.0464927
0.000172065
0.000257132
0.00142169
0.000142632
0.000141304
0.000138795
0.000170702
0.000173955
0.0210442
0.0423126
0.00017688
0.000140073
0.000160815
0.000141947
0.000642673
0.000141908
0.000906021
0.000148819
0.000175118
0.000165264
0.000147894
0.000171965
0.000912825
0.000157741
0.000386031
0.000141054
0.000138686
0.000143571
0.000142705
0.00063232
0.000143397
0.000145728
0.000156931
0.000139634
0.0180289
0.0124486
0.000174721
0.00014288
0.000144504
0.000272897
0.000137771
0.000141136
0.0001428
0.000210457
0.000142935
0.000143184
0.00013707
0.000169242
0.00019156
0.000145948
0.00140255
0.000179287
0.000140834
0.000142911
0.000168157
0.000141064
0.000140561
0.0157431
0.00747129
0.000138958
0.000141471
0.000140171
0.000150062
0.0353061
0.000141358
0.000149763
0.000144618
0.000139386
0.000140789
0.000685375
0.000149342
0.0001403
0.000137839
0.000147594
0.000138555
0.000158867
0.000897988
0.000156872
0.000144396
0.000141857
0.000142757
0.000141085
0.000220341
0.000143671
0.000326333
0.00021177
0.000141147
0.00013811
0.000708522
0.000138446
0.000139715
0.000140367
0.00014125
0.000171635
0.000141903
0.000140549
0.000139801
0.000143698
0.000590224
0.00014136
0.000146354
0.000190894
0.000200699
0.000158306
0.000140677
0.00014967
0.000137349
0.000244659
0.000140351
0.000139895
0.000138264
0.000145598
0.000142192
0.00996012
0.00917374
0.00014002
0.000720002
0.000153924
0.020414
0.000143767
0.00520282
0.000141795
0.000145195
0.00021387
0.000171704
0.000190883
0.000142259
0.0143915
0.000145551
0.000138793
0.000138314
0.019006
0.000306315
0.000153715
0.0040062
0.0290574
0.000508291
0.000143109
0.000154862
0.000106172
0.000144061
0.000270271
0.000148054
0.000145454
0.000175894
0.00320547
0.000139842
0.0189459
0.000150474
0.0149077
0.00013858
0.000141015
0.000165145
0.000163633
0.00817281
0.0173591
0.000261978
0.000140262
0.000141994
0.000224242
0.00504051
0.0169618
0.000139391
0.00014545
0.000138627
0.000140663
0.00014091
0.000188358
0.000399315
0.000463716
0.000298122
0.00206927
0.00700831
0.000140096
0.000145631
0.000144034
0.000144442
0.000157367
0.000141431
0.000142949
0.000143491
0.00014002
0.000158302
0.00291151
0.000155251
0.000139461
0.000140725
0.00535946
0.000154862
0.000153911
0.000153564
0.00775349
0.000170179