/*--------------------------------*- C++ -*----------------------------------*\
| =========                 |                                                 |
| \\      /  F ield         | OpenFOAM: The Open Source CFD Toolbox           |
|  \\    /   O peration     | Version:  v2012                                 |
|   \\  /    A nd           | Website:  www.openfoam.com                      |
|    \\/     M anipulation  |                                                 |
\*---------------------------------------------------------------------------*/
FoamFile
{
    version     2.0;
    format      ascii;
    class       volScalarField;
    location    "50";
    object      omega_0;
}
// * * * * * * * * * * * * * * * * * * * * * * * * * * * * * * * * * * * * * //

dimensions      [0 0 -1 0 0 0 0];


internalField   nonuniform List<scalar> 
10042
(
0.0242603
0.812598
0.0334222
0.0211163
0.0210186
0.30563
2.01937
0.352648
0.0207201
0.0502988
0.45967
0.825604
0.0506804
0.0215873
0.0215351
0.0215969
0.277034
0.453271
0.0232928
0.0235878
0.0494584
0.023994
0.0211019
0.290571
0.0209613
0.0213782
0.0463462
0.0208656
0.266647
0.267471
0.022047
0.0482009
0.0207745
0.0207753
0.354593
0.372367
0.0219325
0.0205784
0.0214756
0.0209443
0.267243
0.0207129
1.16395
0.567652
0.0210408
0.0209556
0.0214482
0.0215141
0.132823
1.5111
1.20133
0.0209692
0.275999
0.0231693
1.45959
2.76157
0.0453516
0.364562
0.0215345
0.0208356
0.109086
0.923578
1.2352
0.381502
0.0254087
0.0211022
0.023118
0.0294407
0.0213713
0.0282532
1.07526
0.0219667
0.0209472
0.0215103
0.0210817
1.03768
0.0252773
0.0214292
0.0253378
0.0233165
0.546743
0.288568
0.0238537
0.0208705
0.0302893
0.497987
0.0228643
0.034583
0.0208264
0.0243629
0.0298902
0.0215456
1.35502
0.338856
0.0252298
0.0211976
2.77716
0.0232747
0.202328
0.0214968
0.0296263
0.0727052
0.021517
0.0353834
0.0250009
0.0214057
1.02611
0.0210612
2.01763
0.0214384
0.0214688
1.92534
0.064909
0.385235
0.0246826
0.0213322
0.0257187
0.0221189
0.320494
0.0211609
0.0207361
0.834101
0.850729
0.021048
0.0248466
0.0208658
0.0208839
1.46335
1.91263
0.0255353
0.0205621
0.0209988
0.020975
0.0210423
1.76257
1.62338
0.0229157
1.42461
0.0224069
0.202767
2.12402
0.0211913
1.44245
0.0208473
0.0272223
0.0205922
0.0292813
0.0213063
0.0216959
0.429966
0.0210294
0.0216512
0.022744
0.0671535
0.0246586
0.0276143
1.9303
2.74684
0.0209873
0.021531
0.0220582
0.020929
1.73295
0.0208448
0.0220757
0.36123
0.020958
0.0394772
0.36157
0.0208541
0.0255412
0.267049
0.855491
0.0208188
0.0231515
0.860555
0.0210001
0.0205779
0.020978
0.0213911
0.0223261
0.0254069
0.0215197
0.0210955
0.0217138
0.0285611
0.0220456
0.0209142
0.750828
0.021481
0.83961
0.0443179
0.0205832
0.0250267
1.5013
0.02154
2.73884
0.0254187
2.96708
0.0208859
1.84432
1.82909
0.356934
0.0212837
0.24999
0.0209377
0.229161
0.0648488
0.0214447
0.0210553
0.0420049
0.0213018
0.387302
0.346641
0.0219921
0.0267906
0.0214131
0.796895
0.0212778
1.69744
2.63374
0.0249117
2.60227
0.0265842
0.0211105
1.72153
0.0214632
0.0226878
0.0396202
0.0215591
0.0205827
0.020913
0.0289255
0.0226756
0.020995
0.352072
0.0222057
2.87038
0.0261383
0.249816
0.751244
0.164922
0.0207353
0.0209101
1.51379
0.0210911
0.121265
0.0255027
0.0228426
0.0214203
0.0243688
0.0205959
0.179462
1.37027
0.0216257
0.0220804
0.021707
0.0215942
2.7773
0.0210833
0.0253532
0.020599
0.0209562
0.0215571
0.0563265
1.44309
0.0249513
0.0845026
0.0228861
0.0209176
0.0213411
1.62422
0.0210028
0.911458
0.0215326
0.353248
0.0219728
0.0210004
0.0229606
1.50369
0.0208739
0.118454
2.87361
0.0219317
0.0232375
2.51983
0.0249172
0.0216849
0.0232012
0.0218065
0.0411478
0.0230381
0.0237678
0.259019
0.0258756
0.0214893
0.190676
0.022532
0.0213522
0.0214132
0.0226617
0.417038
0.0209445
0.765064
0.0250173
0.851384
0.0210695
0.020883
0.31187
0.259471
0.0225324
0.0210086
0.0211967
0.0215238
0.0229303
0.0230479
0.0215543
0.0215987
0.167865
0.0212793
0.0218638
0.913898
0.292984
0.093
0.0218305
0.0223504
0.023297
0.0209618
0.0223514
0.0387265
0.0209305
0.0213115
0.0241868
0.0214611
0.215374
0.0237056
1.58007
0.0723839
0.0206246
0.352913
2.11737
0.0568921
0.0206445
0.0234183
0.0224933
0.0205664
0.0210013
0.0211731
0.0219243
2.90074
0.0216952
0.0252718
0.0218965
0.020971
1.13971
0.0234632
0.021495
0.0237718
2.14099
0.0221576
0.0213822
0.0220602
0.0220631
0.121776
0.300348
0.0221597
0.0209778
0.0216762
0.0217149
1.3448
0.0208451
0.0243311
0.0209104
0.021256
0.207976
0.0208403
0.3119
0.726948
1.25485
0.296789
0.0213173
0.728013
0.0373468
0.0209474
0.0829803
0.0212035
0.0213348
0.0211552
0.02106
0.0216881
0.0214931
2.57749
0.0216903
0.0231353
0.317779
1.22845
0.021171
0.369337
0.0219835
0.0508256
0.0209821
2.5544
0.0212993
1.31387
2.76866
0.0209958
2.05642
0.0213378
0.751196
0.0214445
0.437128
0.0300411
0.180603
0.0216543
0.351947
0.0213546
0.0308289
1.33779
0.021648
0.021295
0.0215589
0.285271
0.0205692
0.0210715
2.13395
0.021584
0.0339305
0.451684
0.0210678
0.0562814
0.0215926
0.021548
0.0300157
0.366788
0.0212897
0.0219726
1.83614
0.365858
0.0218277
2.64949
0.0207773
0.0226938
0.0256665
0.786268
1.53557
0.0218687
0.34636
1.78894
0.374581
0.021046
0.328079
0.126783
0.108097
0.0816345
0.0211001
0.0208987
0.0244308
2.59216
0.0211887
0.0208804
0.0225103
0.0211418
0.0226889
0.0228571
0.0210272
0.0238262
0.0239888
0.0218949
0.0226845
0.0255518
1.85432
0.0208419
2.43446
1.96611
0.13135
0.0213964
0.0243711
0.0217837
1.13203
0.0213393
0.0248717
0.0216473
0.154876
0.0213605
0.0243676
0.0208905
0.234786
0.434579
0.0217474
0.0207564
0.0210311
0.835789
0.0205967
0.024027
0.0367466
2.08382
0.0209233
0.0243302
0.340516
1.9967
0.0213963
0.0225071
0.113573
0.866898
0.0669059
0.411047
0.0212715
0.0213896
0.0300784
0.0296438
0.0241213
0.254602
0.0209246
0.021085
0.0215019
0.386169
0.0210619
0.742859
0.0211434
0.0213785
0.0207679
0.0298213
0.374409
0.0215397
0.0219508
0.521679
0.0256142
0.0286474
0.0215218
0.0210365
0.021457
1.99508
0.0213404
0.0213415
0.033442
0.0212085
0.0212625
0.0553914
0.0205567
1.54728
0.0209636
0.0434773
0.0482434
2.64339
0.021073
0.0252971
0.0213762
0.020897
0.436057
0.020633
0.735002
0.0685669
0.0206448
0.0226129
1.73785
0.785072
0.024606
0.0215059
0.0213893
0.0211173
0.0215923
0.158621
0.0214647
0.0839459
0.0212031
0.0210568
0.500239
0.0250993
0.231869
0.0219787
0.020758
0.414477
0.100029
0.0358006
0.261592
0.0213443
0.0265141
0.0208658
0.0206754
0.0210387
0.0210075
0.0213831
0.0216507
2.5556
0.021608
0.0559
0.020972
0.0256637
0.0216567
0.0299858
0.769109
0.0205827
0.020992
0.0217143
0.0248899
0.021663
1.37944
0.0209969
0.023279
0.0205796
0.0219932
0.0208414
2.34683
0.0216063
0.020806
0.021008
1.37546
0.0213266
0.0210287
0.0215715
0.047859
0.0211656
0.0210457
0.0211125
0.0210549
0.0245287
0.0210105
0.0239825
0.0208679
2.78313
0.326457
0.376099
0.0214083
0.0232403
0.0212363
0.0388176
0.0219665
0.212891
0.144945
0.304129
0.0230899
0.108871
0.0213462
0.0213225
0.402172
0.045525
0.0231293
1.76702
0.0215279
0.0672424
0.020788
0.021401
0.0208525
0.0205867
0.0220265
0.412494
0.021927
0.0213915
2.50445
0.0211637
0.0420956
0.0209445
0.0218646
0.0236167
0.0211953
0.171062
0.0209641
0.0209916
0.0561403
0.0213926
0.0210066
0.0223305
0.0208223
0.0207632
0.107196
0.0705457
0.306756
0.0214979
0.0208115
0.0208312
0.0817259
0.0220786
0.0210665
0.0214479
0.0207407
0.137708
1.57789
0.0208311
0.0215171
0.0233244
2.72206
0.0258876
0.0221505
0.0309201
0.0217485
0.947378
0.120852
0.0207748
0.0215396
0.0209865
0.384991
0.0207619
0.0237832
0.020998
0.0205647
0.0234112
0.0211686
2.15609
2.7662
0.0216597
0.0210272
0.0209828
0.02187
0.0205846
0.395477
0.0215458
1.04761
0.0208117
0.0211595
0.0205744
0.0210731
0.0212936
0.0205774
0.02135
0.0216803
0.023208
0.0238101
0.322159
0.0213609
0.0347627
0.0218512
0.0223209
2.62918
0.0209373
0.0208297
0.0213385
0.0217087
0.268362
0.0210007
0.0213673
0.0207805
1.34812
0.0211158
0.388299
0.0578638
0.0208244
0.0765673
0.391129
0.0209405
0.020965
1.94781
0.0243685
0.717887
0.0229718
0.0250609
0.023618
0.0214824
0.0214167
0.021099
0.0259032
0.0212659
0.049935
2.07663
0.0205531
0.0215248
0.0218552
0.0254329
0.0244116
0.373355
0.0215806
0.0213573
0.169464
0.0208139
1.67633
0.0313001
0.023459
0.296316
0.0214552
0.0208049
0.0212034
0.0342278
0.0210063
1.10386
0.0216431
0.0325935
0.0238093
0.779383
0.0211403
0.0283048
0.0209986
0.0217267
0.0533253
0.0207954
0.0322536
0.0208232
0.0216291
0.021263
0.0212643
0.0225233
0.066405
0.0219008
0.0215075
0.0217777
0.0207954
0.0208253
0.0209859
0.021075
0.0208449
0.0221319
0.021759
0.0220398
0.0216009
0.0212784
0.161665
0.712632
0.0207924
0.0208901
0.0209936
0.449419
0.0218406
0.0247103
0.0208093
0.0642219
1.99802
2.50857
0.0213225
0.391086
1.89059
0.384048
0.021485
0.0206051
0.0215059
0.142848
0.0371636
0.0216183
2.42053
0.0263012
0.274492
0.267005
0.0208394
0.0243065
0.72312
0.0382541
1.51948
0.0261148
2.45756
0.0216732
0.139817
0.0213785
0.0218553
0.0221863
0.0232086
0.0208098
0.02143
0.0210133
1.18619
0.020941
0.0205312
0.774141
0.0213344
0.0288759
0.0214046
0.0425612
0.0210751
0.022055
0.021227
0.0209748
0.0211637
0.0243468
0.0207729
1.40829
0.0260752
0.0373433
0.0209612
0.127703
0.0207266
1.91381
0.02189
0.0212734
0.021176
0.0213757
0.0209714
0.0219937
0.800057
0.0289929
0.0208372
0.752727
0.0212241
0.0214197
0.257034
0.0209321
0.0215154
0.786862
0.0208549
0.0504607
0.0224062
0.0402998
0.0281878
0.0278985
0.022789
0.0212082
2.76874
2.72776
0.0209798
0.0295066
1.87273
1.58174
1.13346
0.0216354
0.0210259
0.0210072
0.0214043
0.0215067
0.0335917
0.0232368
0.0211333
0.0382749
0.10372
0.0218384
0.0211819
0.0209397
0.0214924
0.0215554
0.249471
0.152168
0.020844
0.0243799
0.0436257
0.0211153
0.02245
2.2612
0.0223757
0.0274737
0.0215973
0.0216455
0.0215011
0.0217832
0.0358042
0.0350127
0.0210682
0.448316
0.809099
0.184185
0.024146
0.0222408
2.465
0.0470868
0.258954
0.0300409
0.0213063
0.020951
0.578977
0.777701
0.0212896
0.0242621
0.0565078
0.0208529
0.0311896
0.0212878
0.0208615
0.0217813
0.0397868
0.0207916
0.0210121
3.04833
0.0210244
0.0210115
0.0331002
0.025911
0.459539
0.0221117
0.0213359
0.446849
0.0590247
0.022465
0.0465823
0.045321
0.0209223
0.0207601
0.0251498
0.0361091
0.0208023
0.0211454
0.0209401
0.020938
0.0212831
1.52559
0.021119
0.0587979
0.0213817
0.026854
0.020854
0.0216049
0.0234812
0.318157
2.02871
0.0211887
0.021487
0.0484975
0.0227349
0.0211022
0.0218701
0.0532981
0.0209347
0.0874016
0.0319909
0.0215861
0.0226263
0.0209865
0.0241132
1.78104
0.0558764
0.0209479
0.0218166
0.0261876
0.0225382
0.0209558
0.0209381
0.0611217
0.0207826
0.0209926
0.0280927
0.021129
1.25516
0.0206623
0.0209827
0.0208649
0.0260608
0.0212213
0.0215764
1.97325
0.0209406
0.0212458
1.19916
0.0208967
0.0252953
0.0225332
0.0483152
0.49885
0.021545
0.456629
0.023748
0.0213585
2.48633
0.0218235
0.0208317
0.0215172
0.020946
0.0243667
0.727703
0.0296073
0.140243
0.263005
0.0240025
0.0315156
0.510443
0.0235793
0.0268594
0.0208875
0.0270229
0.0214889
0.0214174
0.0216729
2.77883
0.144982
0.0211792
0.211658
0.0209871
1.06346
0.0215433
0.0236532
0.0222714
0.0222718
0.222786
0.0211217
0.0216605
1.89703
2.29973
0.151554
0.058395
0.15046
0.0211945
0.392339
0.320858
0.0207451
0.021136
0.0208286
0.0252949
0.0210737
0.0220263
0.0219736
0.0210191
0.0212073
0.0213018
0.0209577
0.0268041
0.268611
0.020969
0.071895
0.0226188
0.0592126
0.0332713
0.03464
0.0207361
0.0604778
0.0344209
0.021301
0.0736214
0.120308
0.0215697
0.0211151
0.0216025
0.244863
0.253202
0.0207917
0.0572026
0.0212926
0.021482
1.96926
0.0215209
0.0208965
0.0210023
0.0209311
0.0215422
0.021784
0.0244046
0.0213344
0.0213153
0.0217523
0.0210602
0.146554
0.0216984
0.0252073
0.877879
0.0727435
0.0205625
0.320523
0.0213279
0.0565611
0.0213918
0.030474
0.0209125
0.376005
2.03713
1.9552
0.0213493
0.223639
0.0235353
0.0626529
0.0212363
0.0235278
0.020837
0.111515
0.244687
0.0222831
1.91836
0.181229
0.0376966
2.44039
1.95078
0.218183
0.0213405
0.0214817
0.0236536
2.07761
0.0212999
0.330837
0.0218838
0.0207493
0.0211566
0.224207
2.06939
0.0258808
0.0566031
0.0316629
0.0394513
0.0219854
0.0209714
0.022138
0.0398547
0.150372
0.0305716
0.0566631
0.0215537
0.0216451
0.0429981
0.036868
0.0526856
0.0207368
0.0489302
0.76121
0.0213301
0.0247172
0.0210244
0.0382731
0.0237935
0.0215094
0.0652812
0.0244689
0.0212438
0.0220115
0.0209011
0.170875
0.0222935
1.28957
0.0246627
0.0209104
0.0209362
0.0211448
0.044786
0.0214154
0.101992
0.0224511
0.021169
0.0281831
0.0217758
0.0294771
0.206943
0.0213762
0.0266388
0.0220074
0.0213626
2.32122
0.102288
0.0215523
1.66676
0.0216373
0.116765
0.0209161
0.0209696
0.0225317
0.0225099
0.0280239
0.0269889
0.0212744
0.0220882
0.0218502
0.0259035
0.023605
0.135333
1.85795
0.0236702
0.0209104
0.0216157
0.0302697
0.0210917
1.17008
0.0242957
0.0605091
0.139343
0.0216362
0.0209315
1.82788
0.025522
0.0208196
1.3249
0.0240297
0.0209801
2.15665
0.022016
0.0212479
0.0704445
0.0239576
0.0209427
0.0230141
0.0209811
0.0224086
0.059817
0.0302455
0.186184
0.0212484
0.0278698
0.0208387
0.0212523
0.0752219
0.0214562
0.469804
0.478289
0.0219772
0.524782
0.0329077
0.0259778
0.0209949
0.466968
2.33663
0.0328684
0.023325
0.0213677
0.0208059
0.282319
0.023465
0.0283854
0.0394378
0.0206542
0.0337397
0.0208951
2.98429
0.0209783
1.04818
0.0209324
0.0212384
0.0207231
0.423618
0.0207851
0.0208927
0.0210046
0.020816
0.0213479
0.0318845
0.0365425
0.0212057
0.0258598
0.0215537
0.0209618
0.0206933
0.439245
2.43411
0.02436
0.0212286
0.0207031
0.0208597
0.0245931
0.0242572
0.0207786
0.0678569
1.44212
0.0261719
0.0212158
0.0208057
0.0213135
0.022721
0.0213041
0.021891
0.021319
0.0207251
0.0228035
0.0213636
0.021684
1.06665
2.73894
0.0213344
0.0209517
0.0208386
2.43516
0.0211849
0.0327343
0.02436
0.0209076
0.0211905
0.0210258
0.818047
0.0210954
0.369208
0.0223755
0.0836765
0.021234
0.024978
0.0662409
0.0238092
0.0519221
0.022536
0.0410633
0.0209355
0.0251507
0.363066
0.162121
0.0214079
0.0214432
1.07672
0.0236775
0.0589027
0.0244569
0.0236377
0.021219
0.0250032
0.0254673
0.637721
1.85673
0.020865
0.0208284
0.020968
0.0215206
0.0326773
0.0891389
0.0492328
0.0212145
2.26053
0.0224896
1.10607
0.141058
0.0209865
1.10591
0.0341784
0.0206434
0.0377218
0.0417071
0.0213022
0.0415971
0.0207979
2.46699
0.0216374
2.64177
1.9847
0.112499
0.0212066
0.0244065
0.0218616
0.0208249
0.0205853
0.0208718
1.9794
0.0217635
0.0493326
0.0717907
2.75446
0.0466764
0.0215992
0.0210734
2.50044
0.0209386
0.036945
1.61307
2.76892
1.43683
0.0228881
0.819351
0.0209253
0.0212784
0.0206768
0.103562
0.0218713
0.674121
0.0236863
2.48362
0.0274066
0.0208982
0.0213211
0.0214726
0.0208538
0.0235034
0.612066
2.805
0.0214048
0.0244334
0.0237936
0.0214251
1.90848
0.0214118
0.0869897
0.129671
0.0217882
0.0213981
0.0453547
0.0272849
0.0208915
0.156613
0.0213607
0.105048
0.0221566
3.04872
0.0209434
0.0218905
0.0212695
0.023761
0.0233068
1.12052
0.0623155
2.45166
1.70384
0.0481753
0.0214386
0.0210775
0.249215
0.0242484
1.69939
0.0264261
3.06076
0.0249982
0.317644
0.0572497
0.876151
0.0222199
0.0489465
0.278548
0.0212896
0.0220217
0.0240893
0.0209276
0.0208601
0.0208984
0.0210714
2.06473
0.0217962
0.0240068
1.97458
1.44927
0.0241228
0.111982
0.0213038
0.0216897
0.0525483
0.0263491
0.0249363
0.0917053
2.53645
0.163926
0.0207508
0.0418325
0.0239207
2.04928
0.0312331
0.297405
0.0598171
0.0866399
0.0212778
0.0220509
0.363994
0.0260258
0.14661
0.0312848
0.020946
0.0244436
0.0225003
0.808874
0.0229981
0.021065
0.0208794
0.0224379
1.1517
0.0216869
0.0216214
1.99993
0.431866
0.0214227
0.0299008
0.0244748
0.0383475
0.0242342
0.0406798
1.9185
0.0210766
0.0214815
0.0213549
1.98677
1.8531
0.0471181
0.0219519
0.0226566
0.0215872
0.25989
0.0425126
0.0230841
0.0215551
0.405857
0.0225456
0.118547
0.0224281
0.0352966
0.0209558
1.39035
0.0238207
0.0929151
2.03612
0.020888
0.0238923
0.0747642
0.0225372
0.0484258
1.90417
0.0215172
0.0223334
2.03489
0.0212974
1.23002
0.0215104
1.10397
0.388324
0.0248519
0.0228561
0.0209591
0.0211315
0.0212319
0.0246594
0.0209136
0.0213523
0.0209459
0.0206177
0.0234001
0.0220328
0.0220664
0.0219258
1.78113
0.0214711
1.97655
0.0217667
0.0214717
2.00357
0.0210655
1.10102
0.494288
0.0212524
0.0219084
0.0619716
0.0240979
0.0242098
2.06208
0.0334315
0.0213662
1.21298
0.0213265
3.09341
0.0214792
0.365959
0.020866
2.6829
2.47148
0.482691
0.0216612
0.023348
0.0207496
0.0228021
0.0356941
0.0207648
0.0213073
0.0651385
0.0241912
0.492098
0.025898
0.0218231
0.04879
0.0214213
0.0264613
0.0221177
0.0213249
0.02189
2.01809
2.57523
0.0241791
0.023067
0.021881
0.0223572
1.4357
0.443803
0.0818295
1.21391
0.0252408
0.022437
0.0233119
2.19854
0.0207376
0.0234353
0.0225757
0.0223432
0.0238968
0.0223318
0.083871
0.0210876
0.0218075
2.20516
0.0225044
0.0230007
0.0223004
0.0269017
0.0333632
0.021391
0.0212354
0.021325
2.8845
0.0299486
0.0242419
0.0214183
0.0206726
0.0218007
0.021048
0.0219789
0.0208877
0.0210736
0.0214709
0.0226344
0.0280017
0.0212997
2.01127
0.0217245
0.0219355
0.249523
0.0231128
0.0242018
0.326511
0.0217165
0.797529
0.0207398
0.0206814
0.0218935
0.0227317
0.0207992
0.022384
0.0218958
0.020968
1.22043
0.0742657
2.66463
0.0249424
0.0723055
0.0260476
0.0212565
0.0228331
0.0544387
0.0311148
0.735999
0.0221093
0.0333434
0.0208506
0.0262539
0.0206542
2.47967
0.0225426
0.0209379
0.0256122
0.0216324
0.0219245
0.0324291
0.0247671
0.0214569
0.0207154
0.0208976
0.453729
0.0215956
0.0307818
0.0445938
0.021565
0.0209267
0.0209675
1.76515
0.026339
0.0208581
1.46455
0.422308
0.0218325
0.163099
0.0215304
0.0213242
0.0206515
0.021428
0.0213545
0.0210781
0.0215669
0.0223863
0.0214855
2.20576
0.0227815
0.120359
0.0391205
0.0212069
0.275689
0.0212413
0.0211413
0.0778287
0.020916
0.368654
0.0210234
2.06198
2.89778
0.0205939
1.94421
0.0577491
0.0213842
0.0217019
0.0210621
0.505969
0.021495
0.0424512
0.0626067
0.0213885
0.0294129
0.0576741
0.0392918
0.021408
0.0251694
0.0215801
0.0263985
2.01314
0.0288909
0.0570795
0.0222654
1.62686
0.0301215
1.556
0.0214427
0.065227
0.0225939
0.07304
0.0208357
0.0224988
1.10764
0.0280016
0.0222232
0.0263452
0.0243931
0.0236426
0.0206022
0.0236654
0.0214845
0.0266463
1.18306
0.440452
2.55578
0.0450109
0.0255259
1.24405
0.0244345
0.0209619
0.020943
0.0217594
0.0213772
0.0247621
0.0210135
1.38073
0.0251648
0.0213905
0.0212943
0.0212968
0.0212499
0.288246
0.021482
1.20997
0.0214296
1.35917
0.0218479
0.0213708
0.0205902
2.17679
0.0218533
1.26545
1.13531
0.0225766
0.0249894
0.0218813
0.0213947
0.0209105
0.0207267
0.0381329
0.0216317
0.0217414
1.22668
0.0213462
0.0221428
1.47576
0.246803
1.55124
0.0211917
1.16003
1.23089
0.0209929
0.0214637
0.0250472
1.31697
1.5318
0.0677915
1.93874
0.0211765
0.0206882
0.0222069
0.0271523
0.0216587
0.0230348
0.0215882
0.0227353
0.241428
1.08837
0.0223962
0.0261957
0.0219398
0.023649
0.118745
0.0214588
0.0208945
0.0213919
0.0221692
0.0208581
0.0240745
0.0746982
1.92055
0.0209061
0.0207507
0.0205843
0.0214488
0.0214537
0.027592
0.691923
0.0220431
1.94923
0.0322133
1.15661
0.0242863
0.021752
0.0213371
0.0211676
0.0207045
0.0212531
0.0213821
0.615059
0.261844
0.0209377
0.0205872
0.0215144
0.0213294
0.79426
0.0283314
0.12327
0.0391094
0.0240773
2.02318
0.0212801
0.020996
0.0212057
0.0213466
1.12065
0.0211621
0.0235323
0.258927
0.0689962
0.130939
0.215164
2.0019
0.0959826
0.0213262
0.0263755
1.42029
1.37478
0.0212966
0.0217878
0.0210303
0.021293
0.0213346
0.692698
0.0209705
0.0209303
0.72731
0.0231503
1.21433
0.0212316
0.0206009
0.0266696
0.341705
0.0235663
0.24713
0.0217564
1.13842
0.05998
0.0209515
0.0513141
0.0210552
0.0228442
0.021473
0.0212397
3.03075
1.28975
1.82995
1.99485
0.0332472
0.0246015
0.733799
0.0207459
0.0214356
0.283777
0.0213101
0.0215481
0.0232475
0.0212611
1.36817
0.0214878
0.047797
0.327694
0.02091
0.831441
0.0211324
0.0211275
0.0236933
0.0236891
0.0239824
0.0243592
0.0244267
0.438168
0.0213737
0.0212441
0.0209451
0.0482024
0.205963
0.020891
0.0214848
0.0238823
1.30767
0.0210056
0.0245072
0.024529
0.0209526
0.0212331
0.0209365
1.31126
2.04711
0.0244676
0.0222522
0.0213753
0.0253261
0.0418939
0.0213217
0.0419329
1.25493
0.0214751
0.0255783
1.20881
1.15572
0.0438554
0.0205487
0.0206704
0.131923
0.0299868
1.14021
0.0270248
1.20554
0.0240339
0.0617759
0.030693
2.3975
0.138575
0.0761602
0.0826783
1.16724
0.0217398
0.11229
0.0217432
1.01475
0.0224947
0.022008
0.0242736
0.76267
0.0482835
0.022026
0.0212777
0.0386103
1.25555
1.20241
0.0207266
0.020788
0.0212114
0.0246884
0.0211239
0.0450981
0.0523635
0.0230964
0.0243873
0.0210617
1.40916
0.0215675
0.0213167
0.0321195
0.0210904
0.023815
0.0213021
0.378247
1.91718
0.103206
0.0219714
0.0368795
1.23502
0.033244
0.0296508
2.02752
1.23868
0.183657
0.0210019
0.0214018
2.04605
0.0213618
0.0212786
0.0209769
0.0215516
0.0247209
0.0221353
0.0209814
0.0459032
0.0216192
0.024355
0.0215937
0.459782
0.923031
0.0224864
2.06766
0.830088
0.0235028
0.926444
2.25471
0.0216958
0.0215023
0.0230439
0.0245174
0.84776
0.0209659
0.0212248
0.822405
0.0213326
0.0206991
0.0214024
0.0207896
0.420299
0.0214534
0.0430171
0.0215242
0.400706
0.0212247
2.27562
0.0627388
0.424549
0.829538
0.0212433
0.0241244
0.0214665
0.0211841
1.18086
0.0342986
0.73255
0.0548612
0.0211937
0.0219927
0.0237351
0.0213604
0.120681
0.0208972
0.0354552
1.10583
0.0661231
0.355859
0.0212231
0.0214476
0.847475
0.0226745
0.0235515
0.0722816
1.1417
1.49306
0.0215571
0.0207645
0.0208856
0.0213903
0.0224736
0.0220373
0.0686037
0.0214014
0.021399
0.0366242
0.0208174
0.0111533
0.024096
0.0213425
0.0243226
0.652296
0.0206891
0.0216729
0.692043
0.0213061
0.0213549
0.0636817
2.49204
0.0247558
0.0227659
0.0208709
1.11054
0.0923024
0.0996448
0.0212361
0.0206892
0.0236604
0.0212967
0.0423394
0.0541433
0.0454027
0.805206
0.0211963
0.0252276
0.0209465
0.0793402
0.0213112
0.44946
0.0539163
0.0212625
1.40953
0.0212969
0.638115
0.0550004
0.020749
0.0239219
0.0207259
0.0209016
0.0213307
0.0216397
0.0216778
0.840324
0.0212335
0.0205708
2.24873
0.0206362
0.0214295
0.0220391
0.0211493
0.0213273
0.423568
0.0253644
0.0211926
0.0222778
0.0223019
0.0212377
0.818725
0.0493106
0.0212707
0.0209022
0.0212139
0.225629
0.0214136
0.0216722
0.0222462
0.0808259
0.0211972
0.0223163
0.0564245
0.0212308
0.0677465
0.021237
0.0213814
0.0210009
0.0211311
0.0207173
0.0212163
1.53292
0.022545
0.0205932
0.0221751
0.0216365
0.0478245
0.023241
0.0648146
0.0211665
0.0218745
0.0243208
0.0218199
0.0236477
0.0217979
0.0210426
0.0216436
2.78958
0.0218323
0.681646
0.174446
0.0210379
0.0587181
0.822372
0.0659995
0.255635
0.379039
0.0230064
0.0209723
2.36273
0.0212536
0.0218407
0.0256597
0.0211791
0.0213187
1.28535
0.0207214
1.33537
1.1231
0.0218325
0.0212584
1.94005
0.0212331
0.230138
0.0206902
0.0738999
0.0559039
0.0342538
0.0212503
0.0208216
0.0219603
0.783047
0.744866
0.0469433
1.0075
0.022472
0.0212245
0.380153
2.04498
0.0213924
0.0208183
0.0241824
0.0210161
1.67265
0.0328829
0.0209106
0.106292
0.0208086
0.0207063
0.0206452
0.0211575
0.0213319
0.348225
0.0211031
0.752512
0.0211146
0.0218185
0.021478
0.0213591
0.021143
0.0211974
0.0236259
0.0206227
0.0342185
0.0624869
0.167739
0.0243599
0.282794
0.025196
0.0210225
0.0206826
0.0212631
0.0205702
1.9859
0.021854
0.022139
0.0225828
1.24306
0.0218396
0.146162
0.0211206
0.0210169
0.0212502
0.216759
0.0977893
1.24081
2.77213
0.0244597
0.152681
0.353147
0.0210798
0.0210572
0.0207137
0.0345699
0.0367616
1.98317
2.6823
0.0387226
0.0208945
0.0251125
0.0211604
0.184522
0.0208601
0.104208
0.0219556
0.0248332
0.0334497
0.0217778
0.0245215
0.179406
0.0244747
0.302432
0.0210317
0.0206776
0.0212665
0.0211699
0.149842
0.021187
0.0214068
0.0240678
0.0211828
0.817634
1.107
0.0300121
0.0211152
0.0212982
0.0439308
0.0209401
0.0210357
0.0212786
0.309622
0.0212973
0.0212395
0.0139672
0.0243182
0.029462
0.0633878
0.167509
0.0401646
0.0209155
0.0211232
0.0325514
0.0210316
0.0208954
0.750042
0.913511
0.0212148
0.0209662
0.0209103
0.0221579
2.76794
0.0209647
0.022153
0.0213162
0.0206985
0.0209496
0.135639
0.021665
0.0208781
0.0208169
0.0217316
0.0206887
0.0249839
0.17024
0.0231575
0.0212356
0.0210047
0.0211135
0.0209396
0.0382224
0.0213879
0.0421129
0.0376267
0.021046
0.0205881
0.242354
0.0206709
0.0207227
0.0209241
0.0222652
0.0239906
0.02171
0.0209203
0.0212191
0.0212789
0.0757562
0.0209836
0.0214739
0.0514956
0.0297203
0.0241724
0.0214782
0.0239931
0.0205246
0.0556981
0.0209309
0.0211641
0.0206085
0.0215233
0.0210571
1.01259
1.69205
0.0222394
0.297191
0.0228616
1.85383
0.0212731
0.561688
0.0224684
0.0212773
0.03338
0.0303664
0.0702649
0.0211978
0.745195
0.0215028
0.0206617
0.0209879
1.68804
0.0499756
0.0237976
0.503193
2.75823
0.0919929
0.0213177
0.0237257
0.072606
0.0225281
0.0453698
0.0221052
0.0214634
0.0468772
0.479328
0.0208121
0.874667
0.0221909
0.728895
0.0206365
0.0208805
0.0290975
0.0282998
1.15103
0.823227
0.0433234
0.0209157
0.0209577
0.0369415
0.407282
1.25736
0.0208048
0.0215058
0.0206937
0.020979
0.0210131
0.0340172
0.0713188
0.0788597
0.0500522
0.369055
0.659355
0.020864
0.0214681
0.0210402
0.0212616
0.0243157
0.0210417
0.0211114
0.0212103
0.0208915
0.0246671
0.465159
0.0235886
0.0207438
0.0209458
0.696114
0.0229801
0.023565
0.0227125
0.426814
0.0243605
0.0209114
0.0277148
0.0334438
0.020786
0.767293
0.0208998
0.0208556
0.0207594
0.583286
0.0209084
0.0207068
0.0219631
0.0213805
0.0208142
0.0207192
1.26936
0.788338
0.517035
0.0215299
0.0207826
0.427212
0.0211872
0.0211778
0.0207632
0.0461293
0.0213153
0.543178
0.0206705
0.0206935
0.0293993
0.116003
0.0207347
0.0942937
0.0765718
0.484884
0.0208313
0.0209028
0.0207885
0.473098
0.0219909
0.0243883
1.16035
0.0209482
0.0208055
0.0216324
0.021461
1.17705
0.0208823
0.0212869
0.0209355
0.0238373
0.0237079
0.0212607
0.0206746
0.0214487
0.022462
2.1761
0.0220679
0.0219346
0.0415695
0.0215108
0.0209018
0.731116
0.802958
0.0212638
0.0209159
0.0949807
0.0271723
0.0208741
0.020752
0.020741
0.0209127
0.0209139
0.459235
0.0211835
0.0242563
0.0734096
0.597448
0.0210223
0.0231813
0.0226319
0.0367212
0.0235901
0.022695
0.0212742
0.734713
0.0211864
0.0235365
0.0355771
0.0211825
2.03684
0.0371642
0.0209246
0.0214282
0.0671853
0.22263
0.0221677
0.0207185
0.0212318
0.753771
0.0208663
0.0207215
0.0226316
0.0242077
0.0209448
0.431868
0.206711
0.0206179
0.0219067
0.0214155
0.0207364
0.0212843
0.0209106
0.0212591
1.28223
0.0220575
0.0216167
0.0207047
0.0210966
0.0207068
0.0208444
0.0214081
0.023017
0.021722
0.0497347
0.0209166
0.0208743
0.0266384
0.0207412
0.0213693
0.0213545
0.457579
0.0207967
0.0317128
0.0222538
0.0387515
0.0210947
0.18505
0.446892
0.366723
0.020965
0.0209263
0.0420671
0.020927
0.147583
0.0210506
0.0223133
0.0215034
0.020951
0.0221759
0.0357125
0.0226232
0.0429831
0.0220483
0.0207073
0.020804
0.0626625
0.0261843
0.0208651
0.0214231
0.0209786
0.0214582
0.0210443
0.476793
0.0206639
0.0209738
0.0214748
0.0211995
0.0801665
0.0307087
0.0219965
0.020704
0.0207023
0.762059
0.0220933
0.0207034
1.21043
0.0237055
0.0223334
0.0223041
0.0228055
0.0209133
0.021627
0.44605
0.0429356
0.0347176
0.0209333
0.0208585
0.173974
0.0234241
0.0219915
0.0211792
0.0220436
0.0212435
0.0216972
0.0232474
0.0217763
0.0212499
0.0213155
0.0208796
0.0207501
0.0213109
0.0214742
0.0206152
2.03932
0.338862
0.0205834
0.0207599
0.0211938
0.0209316
0.0213812
0.0208762
0.12201
0.439141
0.020833
0.0216887
0.0280796
0.0211229
0.0343962
0.0436337
0.0567428
0.0213829
0.0387974
0.02286
0.0348097
0.0233806
0.0206726
0.253334
0.0472068
0.480739
0.0219338
0.0206159
0.0257007
0.0988184
0.0205834
0.0206737
0.0206959
0.0218164
0.0229552
0.0214567
0.0206916
0.0209985
0.455294
0.0312961
0.0240303
0.0210185
2.71281
0.0315728
0.0212507
0.334099
0.0209952
0.0207589
0.0207946
0.0325065
0.0207985
0.0486663
0.0207365
0.0206589
0.0207585
0.0212364
0.0209969
0.0235133
0.0212338
0.0205903
0.0242106
0.0214337
0.0212765
0.0205548
0.0205748
1.05092
0.0222418
0.0207852
0.0339783
0.0208741
0.0205837
0.0244494
0.0216106
0.0714148
0.0216785
0.0205585
0.0214026
0.0213736
0.0289861
0.0212593
0.0207621
0.0235901
0.0207385
0.0210205
0.0209267
0.0215002
0.188008
0.0210297
0.0298794
0.0244159
0.0284338
1.26633
0.0207521
0.0213922
0.0250823
0.0207293
0.290704
0.0211378
0.0739463
0.0790158
0.0206637
0.0206293
0.02114
0.0541665
0.0208234
0.0208753
0.0278809
0.0286862
0.479243
0.0216218
0.0247084
0.0207857
0.367904
0.352109
0.222305
0.220758
0.0283067
0.0239515
0.0212367
0.02075
0.0229468
0.0284412
0.0211767
0.0206907
0.0211444
0.03285
0.0210867
0.0206608
0.0276851
0.0211274
0.0356033
0.020761
0.233102
0.350965
0.0223045
0.0212172
0.0207774
0.0208429
0.0235866
0.761808
0.0267577
0.024153
0.178365
0.0328145
0.0210636
0.0217923
0.249908
0.0214603
0.0207495
0.12723
0.0255061
0.412033
0.0937455
0.0694337
0.0239281
0.0216359
0.0209612
0.0245776
0.0309571
0.0568252
0.322764
0.0207396
0.0212293
0.0212751
0.0239827
0.198327
0.0205973
0.0222706
0.265699
0.0212657
0.0215109
1.77095
0.0560178
0.0219514
0.0214526
0.0207568
0.0270258
0.0215563
0.020716
0.144027
0.0213104
0.0205594
0.0487886
0.0205508
0.020562
0.106056
0.935074
0.0301238
0.020572
0.0773125
0.0212085
0.23669
0.0349715
0.0238026
0.020927
0.059588
0.0222552
1.61422
0.0212206
0.02136
0.0260062
0.339646
0.41955
0.0213618
0.0212131
0.0207032
0.021391
0.0277441
0.0207595
0.0249018
0.0214341
0.0508634
0.0208693
0.0282204
0.0210759
0.0208414
0.0211483
0.0299136
0.0303394
0.0206819
0.0207517
0.0209409
0.0209401
0.0347437
0.0205517
0.0241083
0.0232995
0.0593232
0.0374147
0.253298
0.843796
0.0410606
0.0275885
0.0325461
2.97633
0.0464113
0.0881679
0.0237076
0.0294785
0.0213914
0.0235
0.231921
0.0210909
0.389622
0.443096
0.680603
0.19771
0.0211782
0.186271
0.0431151
0.376941
0.0211807
0.0213248
1.37992
0.528087
0.0448767
0.0207374
0.188641
0.0215007
0.0312215
0.172926
0.244851
0.02072
0.0222659
0.230239
0.0334086
0.0207372
0.789931
1.99576
0.190718
0.0209776
0.164494
0.0211734
0.528502
0.20999
0.201639
0.0610265
0.0354861
0.0220698
0.0335421
0.0221107
0.023626
0.0213
0.034943
0.0212157
0.0214315
0.023432
2.6872
0.0213181
0.0364944
0.147309
0.42581
0.0324766
0.467785
0.0205439
0.0324498
0.0223806
0.0291585
0.0206577
0.021207
0.0214257
0.0271024
0.0207427
0.027085
0.0332518
0.0241751
0.021759
0.0221202
0.0206921
0.0339743
0.0334171
0.0211163
0.0306265
0.531012
0.747111
0.281449
0.0211907
0.0227689
0.0208905
0.0220537
0.0211845
0.0214132
0.0217772
0.0221376
0.0213068
0.020753
0.0214509
0.0224031
1.18686
0.0212118