/*--------------------------------*- C++ -*----------------------------------*\
| =========                 |                                                 |
| \\      /  F ield         | OpenFOAM: The Open Source CFD Toolbox           |
|  \\    /   O peration     | Version:  v2012                                 |
|   \\  /    A nd           | Website:  www.openfoam.com                      |
|    \\/     M anipulation  |                                                 |
\*---------------------------------------------------------------------------*/
FoamFile
{
    version     2.0;
    format      ascii;
    class       surfaceScalarField;
    location    "50";
    object      phi;
}
// * * * * * * * * * * * * * * * * * * * * * * * * * * * * * * * * * * * * * //

dimensions      [0 3 -1 0 0 0 0];
oriented        oriented;


internalField   nonuniform List<scalar> 
14885
(
0.762507
-0.515894
-0.246601
0.05289
-0.22269
0.169642
0.485763
-0.277518
-0.208362
0.408721
0.0731815
-0.480721
-0.6812
0.376899
0.304631
0.264375
-0.523788
0.259453
0.462126
-0.24759
-0.214835
-0.224926
-0.23644
0.461304
0.256187
0.34637
-0.602467
0.106601
-0.322267
0.215595
-0.663225
0.396536
0.26677
0.247768
-0.195006
0.387686
-0.221398
-0.166452
0.731334
-0.272095
-0.459152
0.146639
-0.423686
0.277461
0.243377
0.488077
-0.241009
-0.276638
0.517749
-0.386142
-0.276996
0.186201
-0.437169
0.250784
0.161756
-0.444739
0.283122
0.181237
0.206299
0.462624
0.299882
-0.0890847
0.498618
-0.527216
0.206382
0.320873
0.254099
-0.595306
0.34175
0.306956
-0.643523
0.336588
-0.267922
0.374277
-0.449894
-0.173247
0.623271
0.508784
-0.244332
0.52725
-0.479787
-0.0475097
-0.102848
0.523513
-0.420031
-0.158103
0.273512
-0.115471
0.252342
-0.552972
0.30061
0.538889
-0.286637
0.23597
-0.460914
0.344585
0.0990324
-0.443596
0.365118
-0.675762
0.311485
0.306874
-0.610095
0.303456
0.381128
-0.483529
0.438866
0.167735
-0.606593
0.348825
0.178369
-0.296787
0.0973457
0.110789
-0.208184
-0.222731
-0.196241
0.418692
-0.255806
0.567963
-0.311533
0.47592
-0.221178
0.564888
-0.635559
0.0707581
-0.331407
0.478718
0.446163
-0.178168
-0.268209
0.34272
-0.164969
-0.177917
-0.149808
0.247078
0.665326
-0.427052
-0.237406
0.267821
0.38837
-0.20227
-0.0935404
-0.232238
0.325693
-0.2995
0.0401641
0.259217
0.374921
-0.193775
0.194604
-0.581953
0.387129
-0.24209
-0.182915
0.425126
-0.328805
-0.354866
0.683678
0.178831
0.267083
-0.0304795
0.293511
-0.263259
0.308328
-0.197631
-0.306533
-0.198151
0.504656
0.251217
-0.601411
0.350219
0.251072
-0.563088
0.312238
0.133282
-0.412936
0.279792
0.488786
0.0445569
-0.533374
0.6068
-0.544394
-0.0623466
-0.0571306
0.54588
-0.0250126
-0.17305
0.197946
-0.548804
0.354977
0.194277
0.691486
-0.400892
-0.290442
-0.447621
0.205731
-0.29343
0.544596
-0.174898
-0.570453
0.0801369
0.490278
-0.0577599
0.622737
-0.515023
-0.0554518
-0.299455
-0.137895
0.173126
-0.395976
-0.178362
0.574304
-0.0510871
-0.522529
-0.378608
0.647135
-0.267486
-0.154167
0.377787
-0.22379
0.444154
-0.076695
-0.367621
-0.290629
0.42399
0.227688
0.257959
-0.271947
-0.267088
0.539767
-0.587179
0.410668
0.176597
0.111397
0.18788
-0.299432
-0.425954
0.00259106
0.0702765
0.237961
0.376465
0.0675006
0.235362
-0.581462
0.346271
-0.395934
-0.0986509
0.495175
-0.0208281
0.160955
-0.251041
-0.362267
-0.161503
0.523736
0.261255
-0.453768
0.192876
-0.211044
0.322249
0.238066
0.107114
-0.345452
-0.458506
0.365329
0.0929607
0.221362
0.0296529
-0.247892
0.401864
-0.154126
-0.212871
-0.261627
0.474812
0.236039
-0.156266
-0.0798624
0.298543
-0.591861
0.173868
0.287994
-0.466836
0.254056
0.297633
0.177407
-0.474551
0.471935
-0.298323
-0.182156
0.420015
0.190764
-0.497306
0.596603
-0.345268
0.659901
-0.409851
-0.249942
0.65097
-0.275573
-0.375441
-0.324306
0.653817
-0.328982
0.544743
-0.350339
-0.662946
0.317943
0.345107
0.262894
-0.591693
0.0781042
-0.240178
0.161894
-0.163944
0.24194
-0.584009
0.329109
-0.482129
-0.104974
-0.355896
-0.276323
0.632722
0.106375
-0.462262
-0.299508
0.205883
0.147527
-0.00481816
-0.142757
0.242962
0.40798
-0.306009
-0.275998
0.582188
0.154736
0.320481
-0.474809
-0.668466
0.313931
0.354876
-0.428018
-0.0185867
0.447055
0.185289
0.286441
0.286772
-0.311877
0.0249212
0.145716
-0.424927
0.279323
-0.112944
0.162083
0.250933
0.149019
-0.400103
0.184165
-0.546467
0.343498
-0.269327
-0.0742978
-0.361806
0.656879
-0.294927
0.197438
0.0384943
-0.651323
0.201592
0.407959
-0.0890592
-0.31894
0.599539
-0.292433
-0.38006
0.225688
0.196232
0.410644
0.254065
-0.439316
0.185078
0.477434
-0.165703
-0.31183
-0.260373
0.559328
-0.311767
-0.307599
0.619626
0.100608
0.249728
-0.350116
0.263712
-0.000910265
-0.262896
0.591216
-0.355658
0.38256
0.0253651
-0.0277427
0.175215
0.0277515
-0.327353
-0.189689
-0.478469
0.483748
-0.176776
0.0254322
-0.53919
0.514553
-0.154729
0.593607
0.283089
0.00349109
-0.547947
0.450664
-0.232202
-0.21866
0.289907
0.187384
0.394838
0.296817
-0.10151
0.32278
0.505334
-0.160802
-0.160527
0.475726
-0.315284
0.248684
-0.591699
0.343208
-0.258449
-0.221371
-0.339629
0.303428
0.0360241
0.378253
0.229681
0.158607
-0.0533915
-0.28641
0.580761
-0.474566
-0.105893
0.323235
0.276595
0.525009
-0.369911
-0.339067
-0.205287
-0.169173
0.419855
-0.0994167
0.302566
-0.203288
-0.186177
0.663945
-0.320807
-0.342981
0.137013
-0.559475
0.422431
0.352404
-0.283195
-0.0693376
-0.383698
-0.164695
0.580502
-0.165552
-0.41494
0.0486064
0.166892
-0.215602
-0.308234
-0.283939
0.592631
-0.266467
0.182258
0.19257
0.273622
-0.579575
-0.322065
0.222601
0.181632
0.139749
-0.321515
-0.096479
-0.329159
-0.112037
0.0581317
0.0538618
0.280395
-0.591962
0.31161
0.0721401
-0.206315
0.134173
0.133457
-0.511222
0.153941
-0.0440481
-0.109948
-0.301367
0.0230665
0.278176
0.280289
-0.475992
0.195718
0.324912
0.18895
-0.513646
0.364236
-0.525807
0.584256
-0.269911
-0.542181
0.332904
0.209406
-0.0774033
0.340948
-0.230247
0.528673
0.00881754
-0.43653
-0.259697
-0.187019
0.512117
-0.160727
0.441111
0.311256
0.163627
-0.474966
-0.57135
0.0587351
0.513218
0.554768
-0.576833
0.0220242
-0.645423
0.411122
0.234446
0.525213
-0.167481
-0.357972
-0.422663
0.626537
-0.202526
0.149071
0.0902702
-0.0585295
-0.0317707
0.584663
-0.335869
0.0221028
0.0681373
0.497616
-0.342745
0.41682
-0.231218
-0.497126
0.305355
0.191886
0.411092
-0.265362
0.449596
-0.182371
-0.267671
-0.392364
-0.0662435
0.588272
-0.264797
0.520353
-0.413869
0.0826276
0.26961
-0.486466
0.162656
0.444284
0.136724
0.268833
0.11044
-0.386272
0.275718
-0.216121
0.195283
0.262458
-0.351548
-0.339536
0.546002
-0.556172
0.270277
0.285764
0.231999
-0.562067
0.329889
-0.343404
0.6063
0.395008
-0.549729
-0.233004
0.434492
-0.201613
-0.477647
-0.203224
0.586851
-0.355029
-0.213698
0.476163
-0.203419
0.304221
-0.154547
0.531751
-0.382438
0.134375
-0.298787
0.572479
-0.0231003
0.370478
-0.347452
0.313075
-0.286144
-0.0271071
-0.289227
0.543041
0.399106
-0.288664
-0.479083
0.171333
0.171091
0.295555
-0.466794
0.200753
-0.0398144
0.635113
-0.234227
-0.399667
0.61859
-0.207835
0.633667
-0.324643
-0.308923
0.287176
0.378962
-0.517823
-0.117648
-0.29901
0.233242
0.0795627
0.400983
0.217694
-0.363545
0.340443
0.74349
-0.445898
-0.296513
0.494607
0.0259875
-0.509961
0.171284
0.339651
0.113636
0.228837
-0.293767
-0.269564
0.563452
-0.0135152
-0.159663
0.489171
-0.318121
0.249647
-0.55933
0.309573
0.12111
-0.388597
0.267754
0.248543
-0.555246
0.307066
0.294925
0.44959
0.353992
0.340917
-0.514123
0.605634
-0.313296
-0.292536
-0.0575498
-0.0545249
0.404043
-0.282908
-0.0771194
0.565008
-0.488857
-0.111578
0.119495
-0.00790765
-0.566656
0.323944
0.242655
-0.368924
0.536101
-0.167116
0.640821
-0.245569
-0.395279
-0.487349
0.175846
0.174349
0.195053
-0.369526
0.587031
-0.289434
-0.297756
-0.576344
0.0431322
0.533864
-0.612298
0.111267
0.500856
-0.200399
-0.585419
0.170141
0.415505
0.222913
-0.358505
0.135252
0.105232
0.30585
-0.312271
-0.196791
-0.422675
-0.222605
0.398802
-0.164733
0.0912162
0.489296
-0.299111
-0.25718
-0.390555
-0.176119
0.196462
-0.227134
-0.245778
-0.333461
0.579354
0.595862
-0.200847
-0.142847
0.365552
-0.143653
-0.468741
-0.146199
0.512477
-0.449309
0.524006
-0.0741508
-0.568622
0.17317
-0.451641
-0.133577
0.28645
0.300419
0.286295
0.354503
-0.481068
-0.0366983
-0.344031
0.481031
-0.244604
0.549047
-0.304478
0.393941
0.266067
-0.541775
0.571677
-0.0297145
-0.189286
0.175615
0.54299
-0.293488
0.161582
-0.508461
0.346904
0.225162
0.344176
-0.569352
-0.556752
-0.014042
-0.245832
0.568445
-0.322681
0.216039
0.30933
-0.281115
0.360186
-0.185952
0.311739
0.272942
0.281004
0.217828
-0.497999
-0.532039
0.0161417
-0.560589
-0.00061795
0.561411
-0.313418
-0.228626
-0.642151
0.396529
0.185583
0.00401829
-0.18981
-0.346004
0.50761
0.293487
-0.592328
0.532684
-0.243011
0.227291
0.11609
-0.379019
0.183389
0.19556
0.259276
-0.60267
-0.278631
0.589945
-0.311296
-0.0144993
0.553418
-0.537816
0.296334
0.292192
-0.280923
-0.27346
0.554709
0.478113
0.0476762
-0.524988
0.541065
-0.246271
-0.294877
0.431057
-0.270418
-0.160227
-0.33511
-0.246185
0.241855
0.299121
-0.525309
-0.0323423
0.557672
0.336781
-0.0434461
-0.589044
0.343222
-0.190594
-0.306445
0.574974
-0.0855273
-0.00215912
0.087597
0.0154608
-0.487936
0.472672
0.22845
-0.489581
-0.255739
-0.419256
0.179883
0.270608
0.247175
-0.559532
0.312227
0.316095
0.216382
-0.401501
-0.513325
-0.0229081
0.537215
-0.557027
0.253518
0.303654
-0.315027
0.0713841
0.215622
-0.287072
-0.520407
-0.547334
0.5341
-0.53943
-0.375884
-0.222505
-0.449105
0.372137
0.265275
0.251151
-0.516223
-0.230079
-0.329373
-0.526036
0.160402
0.365395
-0.437299
0.263275
0.173668
-0.131195
-0.318097
-0.242723
-0.270849
0.514179
-0.346696
-0.179555
0.149343
0.2998
-0.315723
0.532078
0.0917224
-0.2244
0.132594
-0.268912
0.504274
-0.314088
0.632184
0.198358
0.285701
-0.483809
0.170053
-0.538902
0.195048
0.294063
-0.241863
0.0567419
0.1851
0.163294
0.268175
-0.580048
0.266734
0.313292
0.531935
-0.215885
-0.14651
-0.139782
0.337331
-0.534784
0.198273
0.478216
-0.242288
-0.425823
0.347769
0.189678
0.0837837
0.0952696
-0.521417
-0.096603
0.0177411
0.0788399
-0.248588
-0.313772
0.562365
0.104368
-0.196137
0.247646
-0.0515368
-0.529824
0.00452428
0.347931
-0.120811
-0.429209
0.582462
-0.153154
0.590385
-0.320182
0.49452
-0.299326
-0.0873792
-0.333575
0.420975
0.438596
-0.104372
-0.33439
-0.373231
-0.188993
0.447993
-0.284104
0.140195
-0.519704
0.379512
-0.170463
0.408864
-0.238304
0.494184
-0.1341
-0.360244
-0.228214
0.593908
-0.364824
-0.228991
-0.410669
0.240324
0.319224
0.275397
-0.594465
0.327091
0.204783
0.569035
-0.272535
0.345811
0.318283
-0.246363
0.471618
-0.439846
-0.0317904
-0.33876
0.481942
-0.14343
0.330318
-0.417748
0.347591
0.288558
-0.196822
0.465715
0.00592743
0.510918
-0.568614
0.297423
0.141029
0.36345
-0.26445
-0.551899
0.122767
0.439167
-0.259286
-0.149441
0.171
-0.0215747
0.314484
0.554707
-0.609828
0.0552298
0.283422
-0.243351
0.309364
0.287374
-0.596577
0.540625
-0.254475
0.489948
-0.272221
-0.217838
-0.140801
-0.198449
-0.370709
0.606596
-0.235892
0.511973
-0.371774
0.301879
-0.0189294
0.280024
-0.645238
0.306253
0.339113
0.237915
0.304961
0.366117
-0.0108034
-0.355508
0.390456
-0.024483
-0.164336
0.255956
-0.403523
0.314849
0.277254
-0.557807
0.261617
-0.0432914
-0.198596
-0.634721
0.587995
-0.304396
-0.283622
-0.455847
0.405002
-0.100404
0.439788
-0.33881
-0.316609
-0.256389
0.573167
-0.586706
0.270235
0.451128
-0.252589
-0.575124
-0.179581
0.230584
0.1463
0.385761
0.154626
-0.342394
-0.249099
0.259189
0.0425441
0.293344
0.248847
-0.542122
-0.02089
-0.0998057
0.120687
0.0248672
-0.174361
0.184101
-0.513584
0.329389
-0.45015
-0.110264
0.132871
0.175284
-0.438114
-0.103498
-0.25419
0.107511
-0.507449
0.187574
0.320713
-0.260851
0.541199
0.199148
0.249446
-0.345117
0.529201
0.15501
-0.516661
-0.269693
-0.112898
0.303079
0.284896
0.53842
-0.300672
0.61864
-0.229258
-0.389406
0.510016
0.0447819
-0.317375
-0.235304
0.5534
-0.467451
0.366748
-0.328099
-0.0386482
0.357993
0.275769
-0.312655
-0.253749
0.566423
0.202688
-0.489009
0.28618
0.128784
0.218972
-0.539853
0.50749
-0.573507
-0.358085
0.469271
-0.260894
0.298756
-0.0380039
-0.238684
-0.263075
0.502359
-0.532631
-0.005541
0.232223
0.306687
0.0600059
-0.388433
0.323342
0.0648289
-0.553945
0.285017
0.269025
0.540514
-0.587365
0.047465
-0.348539
0.600801
-0.252264
-0.142628
0.41412
-0.271793
-0.146678
-0.271577
0.418092
-0.214146
-0.224972
0.439057
0.556542
-0.223404
0.0665314
-0.606391
0.168193
0.319904
-0.487435
0.207839
-0.477527
0.269826
-0.548915
0.190771
-0.590711
0.363549
0.228342
0.243611
0.357763
-0.456895
0.278144
0.206204
-0.483755
0.308696
0.23953
-0.548143
0.32262
0.171397
-0.283723
-0.270134
-0.19046
-0.202006
0.262205
0.176968
-0.021976
0.31954
-0.297937
-0.341929
-0.249994
-0.147557
0.442691
-0.295592
-0.469978
0.279511
-0.217477
0.531005
-0.313469
0.134314
-0.482852
-0.030729
-0.230315
0.256965
-0.499046
0.631839
-0.436515
-0.195343
0.500048
-0.297304
-0.411455
0.313271
-0.224292
0.507345
-0.282861
-0.16411
0.399143
-0.235374
0.293191
0.140546
-0.373671
-0.421692
-0.0908028
-0.450677
0.223956
-0.543118
0.319086
-0.0745258
-0.34793
-0.241527
0.171508
0.125808
-0.297474
0.126696
-0.547735
0.338936
0.209098
-0.547892
0.326225
-0.348367
-0.356761
0.616043
-0.370767
0.315359
0.0551027
-0.049582
-0.339102
0.0597879
-0.459845
0.400119
-0.250597
-0.289387
0.539954
0.181178
0.004305
-0.296949
0.546002
-0.24923
0.249022
-0.563172
0.561876
0.00144072
0.446464
0.185364
0.361495
-0.638247
0.276856
0.365189
-0.59886
0.23371
-0.243603
0.559978
-0.316613
-0.258916
-0.182618
0.438736
-0.256368
0.312421
0.201633
-0.513779
-0.00468715
0.534618
-0.529928
0.0580989
0.148017
-0.206189
0.218044
0.183667
0.29466
0.426532
-0.410924
0.30234
0.280219
-0.582036
0.238642
-0.180683
-0.286058
0.533147
0.551364
-0.327365
0.314989
0.241781
-0.117371
0.417047
-0.298719
-0.300304
0.118589
0.181597
-0.0608285
0.449002
-0.388171
0.450524
-0.390648
0.48626
-0.0388229
0.018641
0.505838
0.262378
0.224393
-0.486221
0.55467
0.00237963
-0.556638
-0.0938433
0.278351
-0.46085
0.183222
-0.279404
-0.103249
0.382368
-0.256691
0.555536
-0.298091
0.224124
-0.537993
0.313941
-0.343492
-0.137519
0.281222
-0.429153
0.225864
-0.597219
0.137478
0.55407
-0.305063
-0.334339
0.24284
0.255527
0.338466
-0.2515
-0.186136
0.393256
-0.344754
0.66203
-0.362148
-0.310844
-0.299021
0.0210926
-0.537146
0.51689
0.582296
-0.243349
-0.0566157
-0.0289857
-0.547718
0.2043
0.315472
-0.57553
0.260433
-0.222717
0.488189
0.182866
0.160203
-0.536084
0.505302
-0.552068
0.0166237
0.535817
0.279134
0.101966
-0.381311
0.567744
-0.229905
-0.461981
0.0658265
0.39637
0.410135
0.246898
-0.0541748
-0.407523
-0.427868
-0.369188
-0.105178
0.531823
-0.30764
0.357145
-0.417924
0.00460013
0.175116
-0.37175
0.548806
-0.394012
-0.154825
0.187692
0.306974
0.335637
0.382416
0.245291
-0.43214
0.176897
0.254899
0.170979
-0.584187
-0.443214
0.0350911
0.40817
0.187383
0.361393
0.266756
0.38371
0.202963
-0.398845
0.282574
0.501079
-0.219465
-0.472314
0.166219
0.306168
-0.20293
0.48195
0.315999
0.252378
0.257335
-0.0805905
-0.176753
0.25619
0.202709
-0.458317
-0.252611
-0.283156
0.535678
0.572133
-0.271577
-0.30001
-0.205502
-0.28509
0.49128
0.531783
-0.23838
0.627359
-0.269224
0.0218482
-0.145081
-0.327195
0.159744
0.244346
-0.210728
-0.432774
0.223802
-0.167029
-0.357841
-0.160895
0.518677
-0.250028
-0.182456
0.495285
-0.327551
0.451692
-0.221206
-0.532357
0.0940022
0.447022
0.235603
-0.234544
0.509577
-0.274734
-0.366947
0.292915
-0.373414
0.0937688
0.489763
-0.211014
-0.517852
0.513172
0.561208
-0.0371649
-0.550352
0.276897
0.274029
-0.264593
0.58086
-0.315508
0.311003
0.219662
-0.530776
-0.387231
0.222736
-0.223842
0.398532
0.189712
-0.520445
-0.523529
0.256825
0.292818
0.2603
-0.552485
-0.538818
-0.101408
0.456826
0.32719
-0.116199
0.52745
0.309547
0.263861
-0.572803
0.583233
-0.199701
0.0618007
-0.226871
-0.294978
0.593407
-0.298422
0.491415
-0.186116
0.700034
-0.437724
-0.26066
-0.17977
0.274883
-0.0951336
-0.128905
0.329718
-0.57634
0.40122
-0.0235816
-0.596539
0.346101
0.250437
0.316418
-0.120119
0.36255
0.220507
0.287626
0.28508
0.557777
-0.00115967
-0.556384
-0.499747
0.26551
0.163775
-0.50336
0.339596
0.584242
-0.296332
-0.148376
0.328525
-0.558107
0.398833
0.15957
0.237767
-0.594509
0.343992
0.245981
0.555046
-0.243169
-0.311643
0.0897534
-0.0920158
-0.00215243
0.0602514
-0.39424
-0.169776
0.56407
0.319058
0.249462
0.283304
0.313332
-0.596528
-0.567326
0.19659
0.316665
-0.535176
0.201619
-0.276223
0.529905
0.249302
-0.0825135
0.26226
-0.517723
0.255766
0.0284018
-0.427515
0.399357
-0.470425
-0.126694
0.397122
-0.228333
0.502604
-0.284252
-0.317346
0.600293
-0.28295
-0.194282
-0.312365
0.167434
0.260484
-0.427455
-0.264068
0.138452
-0.408359
0.188039
-0.536505
0.348359
0.224746
0.285673
-0.508891
-0.480552
-0.0927215
-0.371864
0.464575
-0.489081
0.552461
-0.0639589
0.269567
-0.244812
-0.318879
0.564303
0.290373
-0.532453
0.242279
0.325835
-0.574419
-0.170789
0.490192
0.557697
-0.242505
-0.150065
-0.407827
0.487338
-0.299413
0.530945
-0.222167
0.25451
-0.372532
0.401077
-0.355928
0.233549
-0.377044
0.143206
-0.260862
0.320183
-0.213334
-0.31259
0.137529
0.357746
0.0122701
-0.412996
0.1499
0.107416
-0.546038
-0.342712
0.449557
-0.107397
-0.288551
0.55524
-0.269922
-0.245156
-0.245049
-0.27845
0.468789
-0.468318
-0.548223
0.154691
0.393597
-0.381586
0.0208206
0.360601
0.321938
0.234124
-0.556084
0.155849
0.345728
-0.50158
-0.15934
0.417052
-0.257824
-0.338328
0.576108
0.334486
-0.582482
0.248031
-0.447074
-0.0430136
0.263299
0.226535
0.549572
-0.548173
-0.285704
-0.249466
-0.0391512
-0.389857
0.429401
0.486163
-0.427326
-0.0158988
0.26142
-0.5384
0.277381
0.250106
-0.100202
-0.424422
0.277513
0.437202
0.264494
0.116667
0.395313
0.65184
-0.341576
-0.310282
0.570911
-0.277361
-0.292995
0.234251
-0.557588
0.323468
0.442429
-0.293493
-0.505399
0.172158
0.176455
0.446295
0.103189
0.167988
0.210021
-0.440471
0.230094
0.570876
-0.336504
0.153178
-0.424821
0.316343
0.198637
-0.515029
0.436038
-0.175276
0.425536
-0.192307
-0.341813
-0.436496
0.305618
-0.555715
0.250373
-0.329673
0.47369
-0.143451
-0.598022
0.170711
0.482831
0.109754
-0.591179
0.178375
-0.371474
0.193221
0.0838035
0.239244
0.219044
0.435307
0.206023
-0.476748
0.271217
0.333595
0.272999
-0.301708
0.589298
-0.25597
-0.296864
-0.263254
0.561046
-0.299299
0.255947
-0.55092
0.203451
0.311418
-0.514791
0.186105
-0.481066
0.294944
0.284337
0.31763
-0.601925
-0.263046
0.278839
-0.282624
0.579193
-0.296688
0.132783
-0.475983
0.589194
-0.27913
0.290289
-0.573237
0.283413
0.589655
-0.505054
0.221224
-0.330607
-0.265934
-0.10409
-0.543541
0.226802
0.40583
-0.249848
-0.156274
-0.278499
0.144229
0.0795773
-0.252379
-0.297062
0.549612
-0.178933
-0.077309
0.336408
0.224609
0.315633
0.336189
0.26886
-0.586227
0.573813
-0.23929
-0.271567
-0.291237
0.562599
0.43006
-0.173103
-0.257271
-0.260998
-0.135347
0.114471
0.548357
-0.250741
-0.297706
0.528292
-0.411629
0.323547
0.234353
-0.232097
0.522639
-0.170565
-0.311503
-0.311201
-0.0598594
0.213562
-0.499143
0.285626
0.373494
-0.365296
-0.0164312
0.0665578
0.0529463
0.481636
-0.19711
0.227301
-0.294751
0.579139
0.63929
-0.268171
-0.370509
0.0266775
-0.368552
0.341757
-0.573057
0.167742
0.405325
0.324002
0.316714
-0.565062
0.248826
-0.44518
0.274096
0.170751
-0.0699893
-0.343795
0.277137
-0.615428
-0.11767
0.265652
-0.213656
-0.277044
0.491274
-0.133288
-0.208387
0.341457
-0.528423
0.510565
-0.354726
0.561309
-0.515153
-0.0461167
0.43362
-0.17136
0.312426
-0.502649
0.190583
0.590022
-0.277933
-0.52923
0.171345
0.300781
-0.573853
0.309773
-0.14516
-0.0166737
0.161756
0.278359
-0.275823
-0.213302
0.329023
-0.406789
-0.266748
-0.309944
0.577314
0.0887731
0.161336
-0.223179
0.548894
-0.22698
-0.505807
0.345121
-0.608954
0.199188
0.268046
0.322333
-0.441451
-0.114648
-0.464727
0.158901
-0.433525
0.274045
-0.256968
0.447695
-0.23797
-0.616933
0.276592
0.34049
0.504913
0.317467
0.300657
-0.572684
0.272096
0.402675
-0.342974
0.232454
0.214943
0.280791
0.367251
-0.354843
0.0326205
0.322069
-0.221856
-0.325406
0.41202
-0.0868846
-0.369278
0.158128
-0.279241
0.437591
-0.539275
-0.255711
-0.259509
0.232195
-0.0874995
-0.17202
0.29785
0.110887
0.302948
0.133121
-0.0434739
-0.124864
-0.0203765
-0.112471
0.297599
0.36946
-0.422303
0.0528587
0.139003
0.277008
-0.416179
0.524087
-0.207783
-0.2267
0.646292
-0.330659
-0.234058
-0.302548
0.536628
0.203558
0.132021
0.603205
-0.241579
-0.139299
0.298406
-0.15925
0.511987
-0.328095
-0.434361
0.341611
-0.4419
-0.297037
0.610455
0.564062
-0.194592
0.450031
-0.193428
0.21133
-0.487953
-0.302687
0.52986
-0.227355
-0.325963
0.548481
-0.222464
0.135491
0.189431
-0.325066
-0.566579
0.247729
0.318703
-0.357502
-0.190648
0.5385
-0.0102145
-0.526847
-0.115005
-0.0989953
0.213977
-0.290209
0.409907
-0.119422
-0.230848
0.544954
-0.314094
-0.627201
0.274184
0.353034
0.441092
0.113856
0.2892
0.190072
0.518149
-0.314584
0.179719
-0.276351
0.489996
-0.437044
-0.262888
0.443858
-0.180978
-0.035673
-0.322541
0.267289
0.171183
-0.25384
0.149767
-0.391211
0.0790344
-0.194063
-0.129617
0.294074
-0.16454
-0.531842
0.224639
0.30737
0.287464
-0.142235
-0.145355
0.230841
0.513869
-0.280596
-0.233037
-0.446637
0.261472
0.184821
0.288652
-0.458376
0.0477972
0.338892
-0.203581
0.270744
-0.0532538
-0.217533
0.544964
-0.239104
0.493765
-0.266224
-0.0665787
-0.391678
-0.288248
0.578962
-0.183183
-0.269007
0.300519
0.270941
-0.238132
0.193516
-0.0631046
-0.556651
0.287319
0.442781
-0.30393
0.257955
-0.145555
0.347074
-0.201649
-0.302284
0.524782
-0.22243
0.288784
0.35113
0.18119
0.306345
-0.179674
0.146777
0.25879
-0.532187
-0.00385834
0.385531
-0.155608
-0.230153
-0.230972
-0.297314
0.528282
-0.250982
0.560236
-0.308923
-0.601017
0.279546
0.321548
0.336212
-0.146946
-0.26864
0.44517
-0.555025
0.284367
0.32066
0.234614
0.235977
0.278127
0.463629
-0.3261
-0.169103
-0.428723
0.345529
-0.169332
0.503629
-0.305957
-0.197572
0.217881
0.162402
-0.442009
-0.259589
0.593051
-0.333419
-0.368412
0.3269
-0.300346
-0.467536
0.209109
-0.374299
-0.303985
0.222491
0.237405
-0.459929
-0.226762
0.543265
-0.316607
-0.292854
0.579158
0.315771
0.212413
-0.528228
0.168691
-0.514207
0.308862
-0.559682
0.230777
-0.549269
0.318291
0.302913
0.197196
-0.217256
0.372392
-0.151556
-0.220551
0.267083
-0.563279
0.205524
-0.481788
0.201301
0.140118
-0.609292
0.271417
0.337932
-0.374267
0.410614
-0.036166
0.184799
-0.330451
0.289569
-0.582402
-0.542388
0.269418
-0.28251
-0.283954
0.566743
0.240416
-0.241409
-0.0678092
-0.505238
-0.287476
0.580296
-0.29243
0.235388
-0.546047
0.310661
0.337736
0.233275
-0.182234
-0.313916
0.554807
-0.240797
-0.573245
0.290903
-0.260434
-0.222679
0.483166
0.442449
-0.280275
-0.236798
-0.292985
-0.334199
-0.190584
0.215472
0.302195
-0.18905
0.501589
0.453573
-0.17969
-0.299818
-0.283759
0.489399
0.513269
0.0103769
-0.522935
-0.339741
-0.015242
-0.330962
-0.180212
0.511328
-0.217392
-0.154956
-0.340301
0.495233
-0.151098
-0.293536
-0.274029
0.0154962
-0.0721573
-0.235532
0.404083
-0.564994
0.171891
-0.557169
0.312762
0.00486863
-0.179336
0.0999862
0.301071
0.333119
-0.562012
0.228912
-0.208134
-0.590409
0.227254
0.363041
-0.176527
0.443198
-0.267082
-0.568754
0.237981
0.368062
0.544558
-0.309151
-0.249383
0.580401
-0.331106
-0.164744
-0.263673
0.470162
0.597025
-0.312633
-0.284007
-0.0933404
-0.380386
0.473702
-0.281768
0.0781243
0.577699
-0.244596
0.518624
0.34526
-0.617071
-0.140382
0.433261
-0.292922
-0.366487
0.253921
-0.112076
-0.439672
0.192077
-0.417098
0.299766
0.242209
-0.541809
0.607239
0.533158
0.458505
0.223336
-0.570955
0.347713
0.228563
0.043739
-0.272517
-0.132906
0.187909
-0.0550779
0.24161
0.318153
-0.312413
0.533595
-0.222695
-0.557509
0.334474
0.223159
-0.200647
0.473745
-0.196655
0.577452
-0.274649
-0.283645
0.586687
-0.302642
-0.261118
0.182475
0.2937
0.12896
0.432383
0.167547
0.26612
0.00761553
0.240221
-0.586477
0.346319
-0.219659
-0.312437
0.493836
0.599497
-0.359243
0.238064
0.306512
0.5077
-0.333975
-0.173666
0.313824
-0.598586
0.284801
0.374213
-0.0878224
-0.286641
0.145062
0.227612
0.246945
0.0237632
0.343392
-0.367095
0.178773
-0.45249
0.273264
-0.573839
0.307716
0.23243
-0.11254
-0.0556216
0.398737
0.0659112
0.376341
-0.442145
-0.22799
0.311479
0.230804
-0.387021
0.297042
0.513475
0.0135666
-0.526995
0.177387
0.330373
0.528929
-0.304118
-0.5503
0.224414
-0.286251
0.530326
-0.244308
0.329257
0.394527
-0.216836
0.240102
-0.0117497
0.265269
-0.58693
0.321771
-0.247196
0.594863
-0.347633
0.302254
0.352336
0.353307
0.618992
-0.533961
0.524948
0.317013
0.248299
-0.565193
0.300614
0.248652
-0.548633
0.289768
-0.55363
0.264026
-0.219552
-0.224032
-0.337967
0.141918
-0.165438
0.449233
-0.283879
-0.102696
-0.151638
-0.304554
0.524228
-0.591788
0.276606
0.315149
-0.161618
-0.305881
-0.383323
0.449339
0.107175
0.266787
0.108518
0.300453
0.496898
-0.193966
0.234337
0.293971
-0.528132
-0.428686
-0.107923
0.197322
-0.0416423
-0.155773
0.187372
0.0137719
-0.481848
0.268838
-0.633168
-0.594392
0.371515
0.222843
-0.534063
0.229826
0.304157
-0.54002
-0.599631
0.364332
0.23524
-0.239969
-0.232882
0.530778
-0.298001
0.543066
-0.365649
-0.085208
0.414604
0.136756
-0.0492442
-0.545411
0.187335
0.358081
-0.23161
-0.307275
0.538745
-0.0332557
-0.245646
0.354714
-0.109139
0.17309
0.370007
-0.590806
0.296611
0.294731
0.285727
-0.471641
0.185945
-0.369691
-0.230003
-0.362214
0.133466
0.228547
-0.542008
0.291332
0.251286
0.51119
-0.147018
-0.241235
0.40078
0.32221
0.262313
-0.325612
0.549762
-0.224086
0.249708
-0.23362
0.276776
-0.332109
0.433945
0.446719
-0.124258
0.539697
-0.234773
-0.304966
-0.309258
-0.0791763
-0.216837
-0.378105
0.537254
-0.24729
-0.518036
0.136758
0.374503
-0.511257
0.168021
0.278519
-0.569231
0.349076
0.220204
-0.103761
0.468925
-0.356708
-0.110272
0.387775
-0.177025
-0.211012
-0.531366
-0.267667
0.414076
0.268803
-0.574002
0.305362
0.216325
-0.229329
0.461583
0.288055
0.168806
-0.456932
0.30091
0.196021
0.308889
0.260428
-0.569303
0.159717
0.138538
-0.395841
0.572617
0.555652
-0.29005
0.310228
-0.537026
0.589389
-0.209323
-0.380209
-0.23478
0.534328
-0.298861
-0.398139
0.162938
0.235307
-0.2516
0.562706
-0.310599
0.236235
-0.527647
0.291451
-0.00125064
0.610099
-0.608485
-0.0480852
0.245923
-0.241709
0.555724
-0.313899
0.254447
0.306137
0.305002
0.253506
-0.558386
0.234712
0.301504
-0.536093
0.232324
0.152989
0.137627
-0.560127
-0.307856
0.543825
-0.243944
-0.214005
0.529728
-0.543019
0.312171
-0.467506
0.188795
-0.372318
0.290402
0.165551
-0.455905
0.200666
-0.48438
-0.011287
0.525383
-0.274985
-0.239907
0.14086
0.230629
-0.572474
0.341838
-0.479959
-0.0140718
0.150732
-0.58406
0.369472
0.214581
-0.37167
-0.279168
-0.300064
-0.303888
0.603989
0.300269
-0.39782
0.27658
0.165634
0.310942
0.234025
-0.561229
0.329873
0.231529
-0.00323966
0.547755
-0.544229
-0.365823
0.580696
-0.214848
-0.286915
0.487511
-0.186868
0.429907
-0.243112
0.348969
0.228718
-0.323029
-0.230091
0.309352
-0.560501
-0.441769
-0.126766
0.54018
-0.220977
-0.319382
0.537839
-0.228935
0.253359
0.199999
-0.368483
-0.222038
0.158729
-0.340982
-0.547184
0.192878
0.354312
-0.484093
-0.359464
-0.249774
0.275618
-0.272342
-0.368862
0.588497
-0.219741
-0.274647
-0.246723
-0.522709
0.521997
0.295879
-0.566964
0.271615
-0.151341
0.24009
-0.153691
-0.187561
-0.31469
-0.358844
0.192595
0.166117
0.25213
0.257635
-0.224487
0.383273
-0.299516
0.568002
-0.0519129
0.56556
0.30328
0.232314
0.15801
0.129327
-0.312201
0.521691
0.223153
0.284402
-0.184598
0.255454
0.300229
-0.555205
-0.523299
0.289423
0.578976
-0.349215
-0.22979
0.468874
-0.197616
-0.270857
0.32307
0.26146
-0.584456
0.636223
-0.239634
0.179094
-0.436255
0.257337
0.320011
-0.474974
0.210946
0.240613
-0.551441
0.310919
-0.278139
0.611289
-0.288222
-0.160696
-0.44551
0.426419
-0.234428
0.533208
-0.247448
-0.278048
0.0290506
0.20711
-0.236295
0.250815
0.179012
-0.235101
-0.137157
-0.131962
-0.272585
0.566021
-0.225873
-0.317743
0.543434
-0.601289
0.270422
0.330933
-0.0724787
0.579119
-0.262087
-0.31582
-0.277005
0.0516618
0.551752
-0.286357
0.577843
-0.291136
-0.254568
-0.605786
0.322805
0.283
-0.573287
0.261216
0.312757
0.402912
-0.577805
0.174944
-0.281825
-0.261683
0.543683
-0.29382
0.408673
-0.182656
0.217782
-0.533313
0.250138
-0.5914
0.341326
0.199308
0.147635
0.310101
0.130052
0.315614
0.264712
-0.269808
0.575784
-0.305776
-0.327978
0.642684
-0.314707
0.00166637
-0.13698
-0.132594
-0.192605
-0.51889
0.107921
0.304605
-0.574075
0.271422
0.434625
0.195988
0.142718
0.580143
-0.23789
0.536271
-0.298416
-0.309129
0.547248
0.592315
-0.342158
0.559238
-0.240786
-0.375887
-0.311634
-0.278642
0.439225
-0.259914
0.522045
-0.295032
-0.225891
0.574616
-0.305805
-0.23173
-0.340586
0.572473
0.255756
-0.461997
0.206225
0.287445
-0.582179
0.437344
-0.138085
-0.299388
-0.175182
-0.577285
0.26355
0.256487
0.318557
-0.573784
0.297236
0.247981
0.0851103
0.0355576
0.308723
0.250529
-0.559172
0.157885
0.20081
-0.358883
-0.534954
0.532647
0.00382139
0.292503
-0.576203
-0.189452
0.509872
-0.319782
-0.245509
-0.0241487
0.271817
0.119241
-0.476655
0.170812
-0.368939
0.579901
-0.210971
-0.114101
0.234396
-0.120374
-0.297147
0.520556
-0.340595
0.138768
0.22872
0.350222
0.382819
-0.216724
-0.165994
0.269625
-0.00642576
0.523826
0.185538
0.603953
0.144784
0.191258
0.0131037
0.266602
-0.279786
-0.359844
0.284974
0.282939
-0.567589
0.270322
0.198953
0.344556
-0.237268
-0.339328
0.135655
0.118279
0.51881
-0.524189
0.595317
-0.368163
-0.221777
0.519686
-0.2975
0.551374
-0.310683
0.117581
-0.220377
0.372211
-0.153408
0.317632
-0.577166
-0.254052
0.598115
-0.35372
-0.244353
-0.187014
-0.266119
0.444541
0.357798
-0.560752
0.202926
-0.342506
-0.224219
0.275453
-0.164124
0.0938394
0.0702345
0.468905
0.0120866
-0.479883
-0.272201
-0.54515
0.0924566
0.352024
0.305787
0.131417
-0.27313
-0.179804
0.274032
0.295634
-0.569175
-0.381348
0.157357
-0.303392
0.499662
-0.195915
-0.536485
0.234156
0.30226
-0.310349
-0.262266
-0.165334
-0.212833
-0.371233
0.0835489
0.199809
-0.0150377
0.254929
-0.118547
0.3175
-0.506331
0.168107
0.184504
0.254936
-0.299262
0.555467
-0.539774
0.225986
-0.467482
0.532806
-0.0652811
0.262557
0.0360507
-0.395569
0.160009
0.398836
-0.166716
-0.230867
0.187357
0.145407