/*--------------------------------*- C++ -*----------------------------------*\
| =========                 |                                                 |
| \\      /  F ield         | OpenFOAM: The Open Source CFD Toolbox           |
|  \\    /   O peration     | Version:  v2012                                 |
|   \\  /    A nd           | Website:  www.openfoam.com                      |
|    \\/     M anipulation  |                                                 |
\*---------------------------------------------------------------------------*/
FoamFile
{
    version     2.0;
    format      ascii;
    class       surfaceScalarField;
    location    "1000";
    object      meshPhi;
}
// * * * * * * * * * * * * * * * * * * * * * * * * * * * * * * * * * * * * * //

dimensions      [0 3 -1 0 0 0 0];
oriented        oriented;


internalField   nonuniform List<scalar> 
14470
(
-0.0132758
0.00417079
0.0091099
-0.0017884
-0.00117805
0.0165165
-0.0164514
-5.05316e-05
-0.000876766
-0.00117078
0.00204754
-0.0028033
0.00297007
-0.000143834
-0.00553957
0.00555579
-1.51957e-05
0.00388916
-0.00769043
0.00380228
-0.00077642
-0.00210739
0.00288383
-0.0148276
0.00251675
0.0123795
0.000469276
0.00464944
-0.00507524
0.00509662
-0.00459021
-0.000109766
-0.0131052
0.0134394
0.00563585
-0.00259464
-0.00304135
0.0203684
-0.0146563
-0.00559974
-0.0107802
0.01314
-0.00234229
-0.00831104
0.00829843
1.62961e-05
0.0162821
-0.00519093
-0.0110098
-0.00316076
0.00265943
0.000501336
0.00591747
-0.0125212
0.00698052
0.00795008
0.00896891
-0.016691
0.000944855
-0.000944855
-0.000499586
0.00247827
-0.00197869
-0.00252351
0.00174711
0.00364214
0.00199358
0.00254886
-0.0102145
0.00766952
0.0132296
-0.00411788
-0.00901391
-0.00110878
0.00163566
-0.000397932
-0.00460202
0.0108307
-0.00665679
0.00166286
0.0049955
-0.0016032
-0.000662951
0.00226615
0.00539791
-0.00486957
-0.000527551
-0.0144874
0.0143044
0.000186228
0.0028209
0.0117047
-0.0144538
0.00104787
0.000927075
-0.00132032
-0.00520828
-0.00408012
0.00929984
0.0100756
0.00136018
-0.0113941
0.00126573
0.00685667
-0.00812601
0.00163112
0.00212827
-0.00375934
0.0111165
-0.00777347
-0.00333308
-6.64303e-05
-0.00658805
-0.00273787
-0.0014969
0.00423498
0.000979468
-0.0025807
0.00160126
3.1006e-05
-0.00109197
-0.00179044
-0.0115108
0.0133008
-0.00190956
-0.0108823
0.0128033
0.00141019
0.00117062
-0.0025808
-0.000165609
0.000948997
-0.000813391
0.0037618
-0.0140514
0.0104532
0.000903451
0.0154647
0.00679907
-0.0119943
0.00275226
-0.00106349
-0.011402
0.00794285
0.00346631
-0.00276195
0.0025696
0.00964728
-0.00657866
-0.00306667
-0.00312188
0.00224511
0.0135386
0.000319313
-0.0135892
0.000548514
0.00647157
-0.00701597
-0.00887761
0.012782
0.000948997
-0.00937302
0.00173032
0.00764118
0.00268272
-0.00515991
0.00247753
-0.0156256
0.0157687
-0.00011976
0.0124049
-0.00219462
-0.0101981
0.000649102
-0.00344195
0.00338369
-0.000420131
-0.0143298
-0.00116976
-0.00118634
0.000152447
-0.0104118
0.01028
0.000902635
0.0104791
-0.0113477
0.00412539
-0.00123453
-0.00289074
-0.0169287
0.00742978
0.00950383
0.00050929
0.00340907
-0.00391834
0.00172695
-0.00309436
0.00136743
-0.0091232
0.00879071
0.000332318
-0.00330933
0.00508331
-0.00177362
-0.00195205
0.00241526
-0.000449312
0.00587285
-0.00712202
0.00124948
-0.00463965
0.00187233
0.00276743
0.0155581
-0.00402971
-0.0115448
0.00235011
-0.00242818
6.74494e-05
0.000392277
0.00548091
-0.00245155
-0.000709201
-0.00737043
-0.000936262
0.0109719
-0.00243098
-0.00852924
0.0110104
0.00432781
0.000428258
-0.00475556
0.00269084
-0.000394081
0.00946282
-0.00787923
-0.00158288
-0.00204636
0.00367753
-0.00154686
0.00422991
0.00216715
0.000692353
-0.00285951
0.000173367
-0.00309282
0.0029196
0.00390806
-0.00373451
-0.00488099
0.00824974
-0.00336436
0.00301868
-0.00203918
0.0161458
-0.00308398
-0.0129851
0.00141585
-0.00472488
0.0073389
-0.000189045
-0.0071468
-0.0113396
0.00199293
0.0093624
-0.000202186
-0.00256126
-0.00201146
-0.00185124
0.00386266
-0.00234151
-0.00905329
-0.00757438
0.00848702
-0.000913698
0.0124097
-0.0142012
-0.00601624
0.00467403
0.00134239
-0.00371514
0.00175551
0.0019597
-0.00846154
-0.000661589
-0.0127053
0.0119795
0.00102717
0.0128193
0.00274515
0.000788902
0.00289775
-0.00284257
4.91899e-05
-0.00259739
0.0020978
-0.000771782
-0.00202787
0.00279965
-0.00184282
-0.000485962
0.00232878
-0.0042285
-0.0126868
0.00320067
-0.010155
0.00696016
0.00492418
-0.0138085
0.00892002
0.0112726
-0.00020671
-0.0110159
0.000839666
0.00206617
-0.00290584
0.0106016
-0.0125892
0.00199282
-0.00222246
-0.00286276
0.00508526
0.00917645
0.000288172
-0.00498015
0.0045857
0.000394617
0.000978704
0.00749896
-0.00847082
-0.0118686
0.0132776
0.0122084
-0.00159164
-0.00837602
0.00288667
0.00549175
0.00125429
-0.0028575
0.00550743
-0.00784187
0.002337
0.00851509
-0.00300472
0.0117172
2.49559e-05
-0.0117016
0.0192544
-0.00623017
-0.0128425
-0.00103369
-0.0122372
0.0110249
0.000843047
-0.0118406
0.0119785
-0.0104301
-0.00153063
-0.00237665
-0.00245164
0.00482879
-0.000128039
0.00477408
-0.00464516
0.0111743
-0.00622139
-0.00206043
0.00013012
-0.00788365
0.00296307
0.00492261
-0.00370212
0.00269674
0.0010054
0.0079098
0.0175108
-0.00534818
-0.0121135
0.00111882
0.00777943
-0.00889471
0.00110026
0.00157414
-0.0026744
-0.00142261
-0.00221781
0.00364051
-0.012667
0.000479271
-0.00118547
0.00260146
0.00970353
0.00970304
-0.000469515
0.0033925
-0.013775
0.0104787
0.00275824
-0.00361328
0.000855061
0.000423216
-0.0117406
0.00629394
0.00704074
0.0140375
-0.0131844
-0.000855712
0.00301994
-0.00436212
0.00134233
0.000352624
0.00794904
-0.0152315
-0.000346307
0.00112817
0.00427037
0.0110253
0.00247531
-0.0134899
-0.00870394
0.000826382
0.0104363
0.00131178
0.0133216
-0.00519046
0.000541894
-0.00272302
0.00218115
-0.00362229
0.0156134
-0.0118865
-0.00201833
-0.00262116
-0.00812569
0.00719217
0.000930212
-0.00160754
0.0143188
-0.0126212
0.011776
-0.0130753
0.00167776
0.000385072
-0.00447555
0.00419561
0.00944614
0.00809592
0.00195225
-0.00304054
0.00108829
-0.00335319
0.00209903
0.00125418
-0.00189063
0.00533977
-0.00344964
0.0123394
-0.0122463
-0.00527029
-0.000268198
0.00548792
-0.00241733
-0.00307019
-0.00388632
0.000919299
0.00296703
0.0176649
-0.0132353
-0.0044117
0.00265106
0.00877031
-0.011398
-0.00416969
-0.00184636
0.00251045
0.0018023
0.00737593
-0.0115404
0.00964368
5.70106e-05
0.0100313
-0.0100501
-0.000599625
-0.00351022
-0.00146962
-0.00113516
0.00286212
-0.0017025
-0.00165066
-0.00801049
0.000434467
0.0145632
-0.00308651
-0.0114027
0.000535275
-0.001983
0.00144772
0.00328458
-0.000547004
-0.00273757
-0.00967003
0.0093847
0.000284559
0.0119409
0.00201199
-0.0138117
0.000952707
-0.0114631
0.0105208
0.00245892
0.000291328
-0.00275025
-0.0128768
0.00549783
0.0077729
0.00693569
-0.0120626
0.0064379
-0.00684842
0.000461469
0.00561553
0.00828306
-0.0138904
0.00462438
0.0064972
-0.0109813
-0.00979398
0.00210432
0.00769991
-0.0127852
0.00993836
0.00287267
-0.00106323
0.00318354
-0.00212031
0.0149824
-0.00322608
-0.011748
0.0088539
-0.00985193
0.00100857
-0.0133021
0.0117768
0.00305761
0.0103076
-0.0133517
-0.00440398
0.00325957
0.00114448
-0.00752795
-0.00279797
-0.000904132
0.0106751
-0.0108597
0.000573644
0.00320019
0.000925276
0.00233296
0.00864894
-0.0098733
0.0112337
-0.00134806
0.0103374
0.0101192
0.00321873
-0.00559484
-0.00693115
0.010138
-0.00649239
0.00127611
0.00521652
0.00103351
0.00630771
-0.00920242
0.0140013
-0.00249128
-0.000180415
0.00267169
0.00266374
-0.00646238
0.00379743
0.00281171
-0.00768924
-0.0169901
0.00404303
0.0130226
0.00148201
-0.00883153
0.00735476
0.00687248
1.69339e-05
-0.00688962
-0.00544882
0.00560955
-0.000160237
-4.97621e-05
-0.00539887
-0.00198369
-0.00123391
0.0032176
-0.00491105
-0.00247299
0.00738715
0.000924164
-0.0107844
0.00464074
0.00777299
0.000626998
0.00265759
0.00090212
0.0128008
-0.0134953
-0.00177077
-0.00291322
0.00107041
-0.00388227
-0.00856897
-0.00569823
0.00564255
9.46015e-05
0.00232047
-0.00505806
0.0179037
-0.0157536
-0.00211111
0.000828426
0.00210678
0.00133938
0.00535175
-0.00668824
0.000484618
-0.00660314
0.00612109
0.0142199
-0.00647049
0.0091409
0.00932288
-0.000458718
-0.00773596
-0.000150566
0.00788817
0.010842
-0.00937215
-0.00144578
0.0136204
0.00859404
-0.00493093
-0.00366049
0.0024283
0.000234021
-0.00266232
0.00484078
-0.0138454
-0.00288136
-0.0035216
0.00640214
-0.000682996
-0.00215118
-0.00763319
0.000653634
0.00708311
-0.00394207
0.00239845
0.00218522
-0.00228221
0.0128041
-0.000245809
-0.0125682
-0.000708023
0.00372808
0.00302931
-0.00457879
0.00154964
-0.00907294
0.00756336
0.00171177
0.00263906
-0.0095313
0.00448419
-0.00193952
-0.00254444
-0.00160291
-0.00142754
0.00392116
-0.00395789
1.76901e-05
0.00135693
0.00133674
-0.0017922
8.10297e-05
0.00294839
-0.00298148
0.0035234
0.00955341
0.00065443
-0.0102011
0.00429652
-0.00233777
-0.0019586
0.00598829
0.000828188
-0.00681265
0.000359425
0.0024771
-0.00208952
-0.000387582
0.00346984
0.0109267
-0.000772093
0.00204044
-0.00126834
-0.00264184
0.000293733
0.00248023
0.00726356
-0.000391076
-0.000731691
0.00196978
-0.00123809
0.00232608
-0.00515633
0.00283038
0.00245167
-0.00743549
0.00252747
-0.0116618
0.0117272
-0.00785587
0.000489519
-0.00127027
-0.0114858
0.00125874
0.0128269
-0.0139495
-0.0089922
0.0141293
-0.00506661
-0.00229193
-0.00211192
-0.0049689
0.00752067
0.00776515
-0.00508021
3.07796e-05
-0.000218537
0.000235711
0.00294678
0.00806925
0.000341996
-0.00204204
0.0023989
0.0140043
0.00283731
-0.00112123
-0.00171608
0.0155402
-0.00413398
-0.0110977
-0.000950776
-0.0141058
0.0151644
-0.00133641
-0.000490729
0.00236248
0.0141951
-0.000395302
-0.00249231
0.00259658
-0.000104279
-0.00357259
0.00215007
0.00567108
-0.00320616
-0.00246493
-0.00163718
-0.00794801
0.0095819
0.00822126
-0.00709919
-0.00134792
0.00853762
-0.00761327
-0.000923053
0.00306401
-0.000305758
0.0124627
-5.82225e-05
-0.00241102
-0.00216751
0.0113124
-0.000754058
-0.0105448
-0.0153456
0.00382518
0.000567696
7.66341e-05
-0.0137073
-0.000773367
0.00349174
0.00510462
-0.00117805
-0.00199295
0.0125063
-0.01427
0.00177782
0.00566418
0.000982993
-0.00664702
-0.0154958
-0.000538471
-0.011293
0.0118395
-0.000722692
-0.00563472
0.0063578
0.000597945
-0.0066626
0.00606631
-0.01273
0.0156287
0.0115011
8.92379e-05
-0.0115746
0.00886961
-0.0105105
0.00281273
0.00222485
-0.00503722
0.00212647
-3.68558e-05
-0.00208961
0.012461
0.00406541
-0.000778419
0.0130455
-0.00184091
-0.00968148
0.0116372
0.00239327
-0.000441027
0.0017707
-0.00254279
0.00278303
-0.00347357
0.000690549
0.0124571
0.000521847
-0.0127655
-0.00537622
0.00597563
0.00686752
-0.00120304
-0.00378918
0.00217144
0.00161776
-0.00830395
0.00349374
0.00481402
0.00105182
0.0118296
-0.0127008
-0.000582685
-0.012632
0.0134037
0.0112405
-0.0129518
-0.00737279
-0.000477773
0.00207976
-0.0140387
0.0120009
-0.00254886
0.000337669
0.0022112
-0.0077993
0.0106902
-0.00290381
-0.0149994
0.0184502
-0.00323065
-0.00650281
0.00175388
0.00474842
0.00135365
0.00148365
0.00152135
0.00167891
-0.00194194
0.00306495
-0.00383628
0.00182481
0.00812722
0.00255841
-0.0106717
-0.00243918
0.000828861
0.00161032
0.00340187
-0.0019896
-0.00141225
0.00116354
-0.00314723
-0.000615893
-0.00968876
0.0103149
0.00557841
0.00554565
-0.00457858
0.00445138
-0.000861008
0.00302815
-0.00190505
-0.00135432
-0.0049228
0.00627545
-0.000756394
0.00220539
-0.00134554
0.000700899
0.00885861
0.0025013
0.0114183
-0.013752
0.014856
-0.0130948
-0.0014838
0.0138492
-0.0117291
0.0128627
-0.0108693
-0.00179854
0.000199327
-0.000199327
0.000780038
-0.00332889
0.00512921
0.000106354
-0.0064969
0.00639294
0.010329
-0.00925302
-0.00106564
-0.00159638
-0.00437901
0.0059761
-0.00969266
0.0108974
0.00746388
-0.00988462
-0.00248935
-7.65637e-05
0.00256591
0.00376457
-0.00138895
-0.00237562
0.00432146
0.000673672
-0.00499488
-0.00100646
-0.00729275
-0.0158991
0.00114717
-0.00951363
0.00890725
-0.00189414
-0.0145253
-0.00286667
-0.00171524
0.00458214
-0.00413181
0.00646765
-0.00160802
-0.0019976
0.00351905
0.00375472
-0.00575167
0.00199733
0.00523365
-0.00134374
0.000462225
0.00232081
0.00591597
-0.0066382
0.00720053
-0.000715652
-0.00635217
-0.0165376
0.015528
0.00109064
0.0050525
-0.000277626
-0.00482832
0.00196186
0.0125899
0.00239855
0.00195524
0.00144664
0.000678019
0.00665914
0.00813762
-0.00609262
-0.00195214
-0.00257291
0.00184122
-0.00274973
-0.0076928
0.00654059
0.0135627
0.00700654
0.000183258
-0.0106132
0.00282307
-0.0130761
0.00954363
-0.00354965
0.00562997
-0.0020807
0.00381152
-0.00330223
-0.0020968
0.00892769
-0.00682145
-0.00782102
-0.00185086
-0.0116147
0.00569369
0.00614853
-0.014466
0.000384494
0.014182
0.00186194
0.002724
-0.00726638
0.00708036
-0.0152463
0.0155767
-2.8033e-05
0.00691926
-0.00684356
-5.58314e-05
0.00515287
0.00449587
-0.00612207
-9.93814e-05
0.00622104
0.00780306
-0.00988964
-0.000739532
0.00231367
0.00684617
-0.000318729
0.0152069
-0.00345888
-0.00234633
0.0042251
-0.00187872
-0.00550533
-0.00587632
-0.00028985
0.00271815
-0.00150212
-0.00238417
-0.00999075
0.0100839
0.0140091
-0.000655347
-0.0133464
0.00418336
-0.0131081
-0.00824007
0.00527599
-0.0148106
-0.00451725
0.00266596
-0.000882674
0.00100693
0.00347742
-0.00876159
-0.0135061
0.0137262
-0.000182455
-0.00688154
0.00786661
-0.00671478
0.00797705
-0.0010402
0.00310637
-0.00109116
-0.0082828
0.00222015
0.000739256
0.00894043
0.000108152
-0.00368057
-0.0016459
-0.0115053
0.0131671
0.0145634
-0.00353045
0.0130533
-0.0051868
0.00178644
-0.0158109
0.00381393
0.0121287
0.013474
0.00064585
-0.014011
0.0113033
3.63964e-06
0.00631987
-0.00623193
4.29463e-05
0.00141964
0.0102908
-0.0116923
-0.0113273
0.010083
-0.00445073
0.00579264
0.00161796
-0.00155158
0.000754838
0.00316723
-0.000708309
-0.000434855
-0.0083528
0.00879028
0.00435895
-0.00060401
0.00267305
-0.000195949
0.0133262
-0.000644018
-0.0058604
-0.00231082
-0.00537841
0.0135297
-0.011381
-0.00572832
0.00735114
-0.00104665
0.0149165
-0.0112809
-0.00358279
-0.00239245
0.00619959
-0.00380706
-0.00524337
0.00607485
0.00136147
-0.00945945
0.000592274
0.00883387
-0.000771669
-0.0059891
0.00364975
-0.00532635
0.00167648
0.00279682
0.00269151
-0.00184272
-0.00273599
0.00397693
0.00635482
0.00768197
-0.00113735
0.00741451
-0.006277
0.00239364
-0.00122302
0.00426038
-0.00193423
-0.00237084
-0.00493457
0.00730735
-0.000426713
-0.010729
0.0111828
0.00330995
-0.00619195
-0.00454067
0.00252248
-0.00270964
-0.00333717
0.00604809
-0.0105403
0.0145473
-0.00398235
0.0184435
-0.00625914
-0.0120182
0.00211701
-0.00318023
-0.015823
0.0150923
0.000817166
0.00304448
-0.00546139
-0.00538119
0.00163465
0.00374697
-0.0128382
-0.00210219
0.00152992
-0.00451134
0.00892587
-0.00985156
0.000936933
0.0020413
0.00105318
-0.0030945
-0.0146192
0.000261442
-0.00150868
-0.001472
0.00298069
-0.00240293
0.00459595
-0.00219242
-0.01175
0.000987791
0.00252544
-0.00446472
0.0143914
0.00184521
-0.00177314
-0.002016
-0.00166961
0.0104411
-0.00875855
0.0146434
-0.013695
-0.000856796
2.50413e-05
-0.00449438
0.014737
-0.013754
0.00267256
0.0111889
-0.0142048
-0.00527716
0.0143206
-0.0088743
0.00170379
0.00879691
-0.0105007
0.0137655
-0.0130192
0.0123736
-0.00817434
0.00497937
0.00319672
-0.0159691
0.00635142
0.00963732
0.00912885
-0.00325711
-0.00430665
0.00772774
0.00564692
-0.00869707
-0.000517001
-0.00197235
0.00375395
-0.0049349
0.00118096
0.00740844
-0.00977668
-0.00541275
0.00019165
-0.0114889
0.000437813
-0.0131061
0.0127023
0.000867619
-0.00735689
0.0127623
-0.00135175
-0.00212181
-0.0139954
0.00107499
0.000845581
-0.0014754
-0.00142733
-0.000928766
0.0023561
0.00212476
-0.00362151
-0.00791518
0.000181725
0.0013543
-0.000103784
-0.000878241
0.00433445
-0.0154903
0.0112257
0.00416597
-0.00414488
4.40806e-05
0.00308889
0.00331251
0.0125458
-2.20337e-05
0.00685574
-0.00878267
0.00192577
0.000478683
0.0102031
-0.0106405
1.97869e-05
-0.00251107
-8.31354e-05
-0.00236345
-0.00235843
0.00118867
-0.000457766
0.00170271
-0.000394268
0.00483056
-0.0020175
-0.00319356
-0.00959561
0.0128579
0.00342476
0.0058213
-0.00924358
0.00239893
-0.00216491
0.00877355
-0.0104316
0.00211822
-0.00454438
0.00242638
0.0152388
-0.0149596
-0.000263442
-0.000389919
0.000539156
2.12628e-05
-0.0137988
-0.00264297
-0.00369455
0.00584592
-0.00215075
0.000139012
0.00304453
0.00960441
-0.000915542
-0.0113848
0.00597272
-0.000716435
0.00306379
0.00144967
-0.00637823
0.00190939
-0.00341805
-0.00154509
0.0083996
0.00204216
-0.00261147
0.0010843
-0.0057038
-0.00141786
0.00123951
0.000289859
-0.00145884
-0.00718124
0.0115787
-0.000125582
-0.0128739
0.0131304
0.00288019
-0.00732801
0.00779334
0.000322228
-0.00769871
-0.00440138
-0.00206194
0.0121398
-0.00623929
0.00189767
0.0115299
-0.0133904
-0.00250942
-0.00599407
0.00850971
-0.00507782
0.00491296
0.000165006
0.00214701
0.00373702
-0.00588311
-0.0151113
0.00110686
0.00120731
-0.001832
0.00538987
-0.00259275
0.000869452
-0.0140005
0.013132
-0.0137866
0.000582823
-0.00133322
0.00570035
0.00671977
0.00255471
0.00340818
0.00198186
-0.0101692
0.0111067
-0.00228637
0.00440477
-0.00576287
0.000464901
0.00529911
-0.0062809
-0.00158557
0.00786646
0.00905317
-0.00793693
-0.00111426
-0.000896018
-0.00167689
0.011242
-0.000190472
-0.00194607
0.00503434
0.00277262
-0.00171969
-0.00105292
0.00301305
0.00181773
0.00268384
2.53914e-05
-0.00270918
-0.00172706
-0.00365351
0.00526969
-0.0137975
0.00668051
0.00250498
-0.000378511
-0.00992399
0.00742126
0.001939
-0.000782824
0.00379605
0.00156387
-0.000279649
0.00200469
-0.00735718
-0.000554828
-0.00547619
0.00511119
0.00036588
0.00411302
0.00267336
-0.00678746
-0.000992113
0.00234575
0.00194997
-0.00339608
0.00144613
0.00434501
-0.0103312
-0.00565413
0.000178698
-0.000510266
-0.00515872
-0.00453948
0.00131152
0.00322807
-0.00901598
-0.0122322
0.00910464
0.00215875
0.0117378
0.0135713
-0.00174485
-0.0117818
0.000277135
-0.0075396
0.00213085
-0.00336474
-0.00444663
0.00210905
-0.00277441
0.000951057
0.00182336
0.0112955
-0.0104266
-0.00731773
0.00827797
-0.00112617
0.00316744
-0.00239562
0.00423553
-0.00183991
-0.0116286
0.0116815
-2.97752e-05
0.00701644
-4.86995e-05
-0.00696361
-0.00671298
0.00977957
-0.00245894
1.97641e-05
0.00414508
-0.00769576
-0.0101495
0.00407885
0.00159221
0.00210868
-0.00445492
-0.000702699
0.00265269
-0.00275046
-0.000231509
-0.00950701
-0.00417386
0.00208001
0.00209397
-0.0016319
-0.00815018
-0.00488018
0.0013702
0.00814992
-0.00472374
-0.0059155
0.00431992
0.00249853
0.00743835
-0.00992957
0.000854107
0.0167524
-0.0120577
-0.00460121
0.000374373
-0.0135721
0.00827318
-0.00177398
-0.00649603
0.000142804
0.000843697
0.00464484
0.00363143
-0.00633441
0.00417708
0.00215859
-0.00115778
0.00505583
-0.00389726
0.000582524
0.000134294
-0.000635689
0.00035775
0.00283045
-0.00307252
0.0145331
-0.00246926
-0.0120266
-0.0125817
0.000635631
0.0120144
0.00258654
0.00074577
0.0114931
0.00644454
-0.00635218
0.000590412
-0.00615525
0.00376305
0.000301811
-0.000944538
0.000235857
-0.0056374
0.00392241
0.000103264
0.0117047
-0.0115212
0.00184988
0.000922751
-0.000243345
0.00819397
-0.00794651
-0.00614496
0.00622934
-8.39695e-05
0.000745293
-0.00517678
0.0027745
-0.0124233
0.00380952
0.00900036
0.0110961
-0.00762534
0.00108477
-0.00678838
0.00557663
-0.0147318
-0.000660485
0.00846503
-0.00736833
-0.0010927
-0.000830832
-0.00284777
0.00367852
-0.00514265
0.0117461
0.00674467
-0.0048063
0.00332608
0.00148037
0.00847539
0.00238565
0.00162932
-0.00169443
-0.00311172
-0.000459391
0.0140453
-0.00733982
0.0050254
0.00812823
-0.0112057
0.0081772
-0.0145678
0.00102656
-0.00427524
-5.36987e-05
0.00432906
-0.00183019
0.00184154
-0.00315076
0.00130923
0.0110377
-0.012669
-0.000305497
0.011817
-0.0148214
0.00132621
0.0136685
-0.0125452
0.00241491
0.0101603
-0.0115167
-0.0044338
0.0110876
-0.00874451
-0.00177817
-0.00143783
0.00321598
0.00851223
-0.00875107
0.00573562
-0.00191212
-0.00262841
0.00891282
-0.0072863
0.00100562
-0.0136129
-0.00101489
-0.00275742
0.00120501
0.00155241
-0.000742155
-0.0108787
-0.000212528
-0.00485285
0.00552749
0.00311521
-0.00427236
0.00225525
-0.00196392
0.00394201
0.0119005
0.0004524
0.0139085
-0.00124194
-0.00415304
-0.00790748
0.00899307
-0.0047633
-0.00018963
0.00495356
-0.000220379
-0.0120346
0.0122841
-0.00330392
0.00618696
0.000518282
-0.0121222
-0.0142557
0.000741159
0.0055965
-0.0034486
0.00261957
0.000692898
-0.00331246
0.00666963
-0.00591178
-0.000755854
-0.0017902
-0.0118823
0.00989137
-0.0120069
0.00229687
-0.00413931
0.00638142
-0.00224168
0.00829261
-0.00491184
-0.00126477
0.00617714
-0.00285175
0.0156763
-0.0125765
0.000615262
0.0146616
0.00224347
-0.00272943
-0.0011561
0.00156022
0.00669048
-0.000214891
0.000872673
-0.00582606
0.00495331
-0.001378
0.000658383
-0.00303453
-0.00801804
0.0111141
-0.00204832
-0.000596323
0.00264466
-0.00112071
0.00267782
-0.000218537
0.00221579
-0.00307682
-0.00349285
0.00760455
0.00495174
-0.000623425
-0.00597365
0.00695679
0.0114469
-0.0109001
-0.000245202
0.00286478
-0.00190102
-0.00058924
0.0141158
-0.000635976
-0.0134581
0.011388
-0.0143427
0.00775163
-0.00877107
0.00102158
0.00241836
-0.00224173
-0.000176627
0.000283267
-0.00776425
-0.0126142
0.0123594
-0.00770107
0.0133399
0.0152944
0.0118305
0.00835636
0.00846185
-0.000437078
0.00312096
0.00862399
-0.000870792
0.0116667
-0.0102284
0.0104532
-0.0100767
-0.000163482
0.00204748
-0.00296832
0.00585678
-0.0117714
0.00944522
-0.00608948
8.2444e-06
-0.0139108
-0.000728513
-0.00464167
0.0140365
-0.00938176
0.00245016
-0.00274001
0.00362609
0.00211896
-0.00574543
-0.0116607
-0.0017986
-0.00093285
0.000342051
0.00538208
-0.0073636
0.00986985
-0.00422447
0.00211462
0.00210996
0.00285028
-0.000710252
-0.00214003
0.01769
-0.00239865
-0.0151586
0.00583164
0.00190173
-0.00287091
0.00096919
-0.00506958
0.00655562
0.00544462
-0.00519607
0.00382119
-0.00693646
0.00253444
-0.000525469
4.90352e-06
0.000556712
-0.00624833
0.00618407
0.000312431
0.000597849
0.00316672
-0.00040216
-0.00352937
-0.000105453
-0.000532556
0.00152399
-0.000260038
-0.00920529
0.00970798
-0.0084257
-0.00127218
-0.000474922
-0.0120281
-0.00919687
0.00985784
0.00506253
-0.00641859
0.0021315
0.00192647
-0.00405797
0.0075864
0.00820203
-0.00171542
-0.0139468
-0.000868155
0.00108232
-0.0153169
0.00169615
-0.00828977
-0.00120274
0.00954802
0.0119921
-0.0119067
6.6496e-06
0.00700524
0.00933393
0.00436187
-0.00821453
0.00385497
0.00584569
-0.00152404
0.00053772
-0.00790444
0.00571399
0.00275385
0.00636386
0.0112279
-0.00250243
0.00149375
0.00100868
-0.00241634
-0.00402533
0.00644125
-0.0131258
-0.00117255
-0.00786339
0.0034401
0.00442386
-0.00118089
0.00243518
-0.00215231
0.012185
-0.000157898
-0.000756592
-0.0128231
0.0136889
-0.00432932
0.00582773
-0.00149763
0.0069019
-0.0025378
0.0020785
0.0110192
0.00888428
0.00226022
-0.0111368
0.0135874
-0.0103308
-0.00285583
0.00977619
0.00131642
-0.000570043
-0.00233878
-0.00302088
0.00536053
-0.0133851
0.00515618
-0.00380422
0.00423292
0.0124641
-0.0118702
-0.000489099
0.000328716
-0.00571902
0.00539135
0.0136374
0.000972579
-0.014302
-0.0128769
0.00142808
-0.000747995
-0.0123427
0.0131022
-0.000400528
-0.00975939
0.000190451
0.00345911
-0.00277759
0.00135026
0.00812677
-0.00782821
-0.00479181
-0.003072
-0.00946045
0.000635587
-0.0151007
-0.00280979
0.00191378
0.000477108
-0.000948147
-0.00702141
0.00797163
0.0114171
0.00260315
-0.0139204
0.00885699
0.00187032
-0.0027765
0.000906186
0.0127281
-0.0133787
0.00124758
0.0135099
-0.000512394
0.0103202
-0.00105378
-0.00924871
0.00579169
0.00823899
-0.0139523
-0.00116959
-0.00097345
0.0021312
0.0121865
-0.00204868
-0.00249546
-0.00330885
0.00126057
0.00273641
-0.00068887
-0.000519474
0.00427343
-0.00118789
-0.00131454
-0.000438639
-0.00416099
0.00606711
-0.00190635
0.00338635
-0.00163078
0.000388176
-0.000382678
2.29355e-05
-0.0121037
0.00299388
-0.0119422
0.00926258
-0.00227006
-0.00364446
0.00103542
-0.0136041
-0.00136047
-0.00179027
0.00620208
-0.0073393
0.00601561
-0.000772971
-0.00524152
0.0158492
-0.0134698
-0.0023302
-0.00205347
0.00423958
-0.00218598
-0.0018453
0.00229007
-0.000444767
0.000868383
-0.00293769
0.00206931
0.00768173
-0.009095
0.0014155
-0.00956074
0.00890983
0.000659561
-0.000882614
0.00333765
-0.00149772
-0.00211555
0.0140509
-0.00186362
-0.0119717
-0.000707673
0.00285106
-0.00214338
0.00227556
0.003281
0.00463042
0.000424281
-0.0050545
-0.000196832
-0.00296886
0.00316578
0.00295044
-0.00418483
-0.0118131
0.00246803
0.0139358
-0.0111522
-0.00276472
-0.000488958
0.00870219
0.00228841
-0.00938071
0.00709592
-0.00148423
-0.00161011
-0.00173665
-0.00130388
0.00329293
0.00814427
-0.0111473
-0.00230514
6.91728e-05
0.00223596
-0.00142446
-0.0103218
0.00583861
-0.00196438
0.00409585
0.00337902
-0.00420994
-0.0015026
0.00488134
-0.012174
0.0117655
0.0072369
0.00842258
0.00117873
-0.00959102
-0.0113441
0.0111465
0.00341825
-0.00133208
-0.000443448
0.00605399
-0.00553779
0.00230578
0.00119063
-0.00349634
-0.00226349
0.000336578
0.00273729
0.000278346
-0.0122706
0.00663916
-0.00483335
-0.00180456
9.02689e-05
0.00389055
-0.00615948
-1.12392e-05
0.00960558
-0.00956048
-0.00332952
0.00162704
0.00258383
-0.00387373
0.00128993
0.00206586
-0.00485078
0.00278507
-0.00841692
-0.00122177
-0.00012628
0.00143439
-0.0103239
0.0103492
-0.0011724
4.06994e-05
0.0151212
-0.0126355
-0.00215848
-0.00563478
0.000723696
-0.00700711
0.00956934
-0.0127055
0.0135764
0.000587482
0.008987
-0.00956292
0.00202037
-0.00273062
-0.0109167
0.00962288
0.00130056
0.0011791
-0.012183
0.0110042
0.00120174
-0.00359736
-0.0160399
0.0157416
-0.00152116
0.000350594
0.0114164
-0.000922396
-0.011435
-0.00362203
-0.00748834
0.0111424
-0.00209528
0.00210231
-7.02589e-06
0.00560018
0.000384643
-0.00234446
3.93197e-05
0.00462808
-0.00121899
-0.000509671
-0.0126775
0.00106149
0.0100044
-0.00137584
-0.00862113
-6.9233e-05
-0.000759406
0.0123578
-0.0113343
0.0142286
0.00142041
-0.0155116
0.00187846
0.00161943
-0.00349783
-0.00850109
0.000890464
-0.0105547
0.0103592
0.00766925
-0.00641393
0.00521123
-0.00168813
-0.00285125
-0.0157339
0.0115169
0.00316962
-0.0060322
-0.0135709
0.0105638
-0.00702252
0.00313122
-0.00351022
0.000378998
-0.00589319
0.000159577
0.00573471
0.0060139
-0.0114045
0.0136089
0.013193
-0.012952
-0.000128142
0.00201475
-0.00275428
0.00139021
0.00277971
-0.00416995
-0.00329402
-0.00234299
-0.00134863
0.0021775
0.0105815
0.000120782
0.00247594
0.0111344
0.00312448
0.0111599
0.000152205
0.00209127
0.000936738
-0.0101271
-0.0042786
-0.00200214
0.0062829
-0.000721402
0.00958814
0.00316445
-0.014884
0.0118112
0.0112918
-0.00228047
0.00305937
6.03278e-05
-0.0034395
-0.0092773
-0.00517829
0.00550803
-0.00237501
-0.0133026
0.00203869
-0.000941965
0.00301318
0.00126066
0.00785652
0.00802724
0.00969008
0.00378472
-0.00311088
0.00142255
0.00131386
-0.00120488
-0.00768515
-0.00274045
0.00120202
0.00153844
-0.0113627
-0.00103453
0.0126103
-0.00868442
0.00133014
0.00968411
-0.0100863
-0.00316556
-0.00171432
-0.00173182
0.0146638
0.00105723
0.00749379
0.000618196
-0.00811402
0.00598809
0.00113365
0.00622197
-0.0073559
0.00169956
-0.00671448
0.00400632
-0.00214261
0.00446331
0.00409121
-0.00352078
-0.000570297
0.00295399
-0.013468
0.000308911
-0.00396337
0.00365456
0.00245516
-0.00263558
0.0109215
-0.00981731
-0.00108635
-0.00124445
-0.00311748
-0.00534457
-0.000988471
-0.0135491
0.0158437
-0.0021513
-0.0099225
0.00919788
0.00727526
-0.000447139
0.00140827
-0.0125333
0.00811239
0.0114189
0.0074595
0.0116207
-0.011153
-0.00129383
-0.0135087
0.0149206
-0.0150686
0.0117121
0.00337464
-0.0121399
-0.00322819
0.00145002
-0.00183199
0.0107234
-0.0107949
-0.000184248
0.0110077
-0.00468085
-0.0146916
0.00278667
0.0120701
-0.0138575
0.013516
0.000329322
0.00773131
0.000645082
-0.00837208
0.00275371
-0.00472451
0.001971
0.000595233
-0.00487033
-0.00642801
0.000182274
-0.00557308
0.00232025
-0.00185671
0.00207299
-0.00317793
0.00110495
0.00625388
0.00349099
-0.00973675
-0.00165297
-0.00116806
0.00282103
0.00741935
-0.00362102
-0.0037972
0.000586261
0.00633771
-0.00187292
0.0104383
-0.0116289
0.00122127
0.00156644
0.00164809
-0.00321452
0.00260094
-0.000730626
0.00711008
-0.00212928
-0.00305976
-0.0148906
0.00119575
0.013144
-0.0136843
0.000578362
0.00342309
-0.00642484
-0.00155029
0.0023561
-0.000805809
0.00148159
0.00862201
-0.0100893
-0.0133296
-0.000832219
0.000746298
0.00364358
-0.00174187
0.00539964
-0.00332584
-0.00207311
-0.0111663
0.00040261
0.00792654
-0.00442338
0.00529591
-0.00187341
0.00778082
-0.00590066
0.00947884
0.00145961
0.00225854
-0.00296621
0.00175554
-0.00504914
-0.00511863
0.016652
-0.0114952
-0.00458246
0.00307968
0.00480382
0.000308257
0.00706584
-0.00241089
-0.00465458
0.00128855
0.00280279
-0.00195555
0.0110039
-0.00026963
-5.35951e-05
0.0133798
-0.00256816
0.0059362
-0.0042068
0.00312701
-0.00224345
-0.000883547
-0.00957011
0.00450367
-0.000996942
0.00254884
0.000309379
-0.00438124
0.00407269
-0.000846427
-0.00898848
0.0100072
-0.000494331
-0.00199798
0.00179228
0.000166963
-0.00195924
0.0111933
-0.000166785
0.00226583
0.00354775
-0.00138854
-0.0156706
0.0022801
0.0124229
-0.000345301
-0.00202738
0.00417753
-0.00215032
0.0032279
-0.000644035
-1.69865e-05
0.00599069
0.00142433
-0.0021843
0.0137703
-0.00294185
-0.00190873
-0.000295865
2.49966e-05
-0.00255179
0.00988359
-0.00732321
-0.0105154
-0.00219698
0.0105289
-0.00832458
0.00127509
-0.0145088
-0.00366807
-0.00215502
0.00582374
0.00177494
0.00990561
0.00242253
0.00464374
-0.00306626
0.00932767
-0.00361359
0.00348165
0.000254295
-0.00531914
0.00120871
0.00411095
-0.000703758
0.0103769
-0.00223573
-0.00134496
0.00319237
-0.00128296
0.00589848
0.00373797
0.0104702
-0.0141349
-0.0150985
0.0139236
-0.00620081
0.00999203
-0.015116
0.00485454
0.0102748
-0.00235567
0.000501025
0.00185465
0.00342123
-0.0015427
-0.00462155
-0.000133357
0.0071885
0.00320202
0.0123631
0.00265016
-0.0040471
0.001397
-0.00608153
0.00194255
0.00323501
-0.0137591
-0.00330254
0.00178833
0.00151422
0.00182619
0.0105266
-0.0121265
-0.00561597
-0.000730448
0.00634798
0.00205813
0.00106888
-0.00165207
-0.0124734
0.0143473
0.000492245
-0.00233754
0.00285303
-0.00469052
-0.00062784
0.0012852
-0.00246608
0.00214752
-0.00581471
0.010818
0.00179054
-0.0125611
-0.00971581
0.011505
0.00172798
-0.00307661
-0.00115916