/*--------------------------------*- C++ -*----------------------------------*\
| =========                 |                                                 |
| \\      /  F ield         | OpenFOAM: The Open Source CFD Toolbox           |
|  \\    /   O peration     | Version:  v2012                                 |
|   \\  /    A nd           | Website:  www.openfoam.com                      |
|    \\/     M anipulation  |                                                 |
\*---------------------------------------------------------------------------*/
FoamFile
{
    version     2.0;
    format      ascii;
    class       volScalarField;
    location    "1000";
    object      omega_0;
}
// * * * * * * * * * * * * * * * * * * * * * * * * * * * * * * * * * * * * * //

dimensions      [0 0 -1 0 0 0 0];


internalField   nonuniform List<scalar> 
9793
(
0.0221846
33.2834
0.0219242
4.63962
0.02226
0.234078
0.0770625
11.9987
0.0219403
37.4368
0.0221961
0.0221869
0.0219088
3.72939
0.0217156
0.0240392
0.0504515
0.02192
9.24796
0.0215383
0.0215705
0.0222917
4.70403
12.1954
3.76221
0.02564
0.0220996
0.022262
0.0215487
0.0737573
16.49
0.34107
0.0220067
0.0219353
0.0218596
0.0262384
0.0229728
0.0242247
4.69918
0.0287972
0.0645247
2.85608
11.616
0.0222718
0.0219543
0.0220411
12.8936
0.0222846
0.0215661
0.0219263
0.025939
0.0218437
0.0344861
0.0222689
0.0315256
4.47383
0.0219196
0.0962086
0.0215745
0.0222915
0.0260838
0.0917093
0.0219414
0.0304789
0.0219612
0.0218957
40.0145
0.0231848
0.0231957
6.56848
0.0219253
0.0951891
12.1425
3.47874
3.39362
0.0222624
0.043575
8.595
0.0219756
0.0222709
0.0460624
9.76973
0.0485636
0.023387
0.0232397
0.213676
0.0222617
0.0598372
4.77099
0.0867431
4.14919
0.680633
0.719467
0.0383063
11.1593
0.021886
3.39559
0.0471225
0.0237527
0.0222689
4.55544
0.0329672
2.74727
0.0219602
2.8795
10.3568
3.16026
0.0218701
0.0219803
0.0222837
0.0222335
4.2713
3.27479
15.3994
0.0219149
0.0221133
0.0227017
0.0220486
4.61225
0.0220275
3.3319
0.0672266
2.87451
0.039389
0.0230025
0.0220329
0.057432
14.3139
0.204164
0.213983
0.0227231
0.0217907
0.0221155
0.022648
0.0254015
0.143984
0.516732
0.0227374
0.0222739
0.0581878
10.1375
0.025582
0.0219006
0.048439
12.1893
0.603112
0.0220342
3.7893
0.0217863
0.0220284
0.0220695
21.6759
0.0233921
0.0220928
0.0218977
0.792519
0.0538761
0.0219352
0.388371
0.0218877
0.0572292
0.0228152
0.0215787
0.343235
0.0217692
5.20343
2.74217
0.0218725
0.0218721
0.0222171
0.0219046
9.65009
31.1359
5.2399
0.0219009
0.215901
0.128781
0.713462
0.0219594
0.0231152
2.4609
13.8375
0.0728668
0.0220337
0.0220719
0.0218646
1.95613
12.1106
23.5412
2.8383
0.0218538
17.6288
0.377455
0.0246826
0.021567
0.0228383
2.01716
0.021579
0.0219162
0.0222038
0.0219364
0.0215563
0.0267358
0.0234712
4.90109
0.021895
0.0263831
0.0218683
0.0221353
0.468874
0.0559964
10.5231
0.0216205
6.87182
0.0234092
0.0350093
0.0217228
0.139425
0.022122
0.0472061
0.0504589
0.0215616
1.28085
4.03491
0.036784
0.0218695
0.048147
3.03058
0.0465461
0.0471059
4.65432
0.139998
0.0332411
0.0310849
0.342981
0.0214975
14.8273
13.9627
0.0215864
0.0222223
2.29987
0.0218789
0.0222313
0.119527
0.139963
0.0218957
0.0231185
0.0272617
0.0360369
0.0231076
0.0219658
0.041292
5.79046
0.0215634
4.21717
0.0222624
0.0221694
0.0216389
4.59262
0.0219742
1.19221
4.53303
0.0221035
0.0221313
0.970341
0.0217271
0.0222398
0.0216998
5.05189
0.256658
0.0242563
0.438423
0.0896091
2.76133
8.11199
0.0219013
23.5633
0.0222645
2.885
7.90683
5.31644
3.16264
0.133505
0.0227246
0.0442828
0.0232641
0.0215712
0.0218853
0.449447
0.0257918
0.0221395
0.0222838
0.0216173
0.0215776
0.0215697
5.63278
0.0218587
0.0217157
0.021706
0.0219117
7.34115
0.573311
0.058932
0.0225576
0.0497346
0.0217812
1.73255
18.2646
0.0219665
4.54045
0.0292768
0.0219478
47.0805
2.65744
0.0220153
0.043414
12.6781
0.0220128
0.0322868
0.0217126
0.022068
2.82987
0.0386588
0.0219451
0.0220199
0.0224615
0.162729
3.39673
0.021929
0.021864
0.0216315
9.21771
18.073
13.0711
0.0215035
0.0408814
0.0329652
2.32641
0.0692541
0.021474
0.021513
0.0216351
0.0430721
0.0219323
13.0732
0.0220884
0.0217614
3.2641
5.97678
6.85228
0.0216274
4.61538
0.0239798
4.13528
12.7395
4.70508
0.0230925
0.0300568
0.515488
4.13251
4.21567
0.0255702
0.0222634
0.0245368
0.0215455
0.0218438
0.0219227
0.0220821
0.022292
13.5448
0.0222063
0.0577852
0.028261
0.788536
0.0214697
0.0234522
6.99555
0.50664
3.87311
0.0666036
0.0217677
0.0231476
0.0219282
0.42195
0.0215573
6.55775
0.150256
0.0775388
11.616
2.44524
0.0221371
0.0218692
0.564599
0.381272
0.0218953
12.6379
0.0221313
0.0221752
7.39764
0.0216185
0.0998745
0.0215061
2.86096
0.0220943
0.0217701
3.81091
0.0881878
0.0412807
0.0246487
0.0220748
0.0218242
2.86091
0.0467239
0.021515
0.0221947
0.032387
0.0329922
0.0409559
12.9733
0.0221955
0.021931
0.309245
0.0220811
5.26823
0.726349
0.0220633
0.0220119
0.021876
0.0221165
0.0216202
4.61112
0.0476334
1.3385
0.0277463
0.0222875
0.0395595
0.0239764
4.56054
0.0254414
0.0222682
0.0231817
0.485385
0.0219062
0.0218905
0.0219241
0.0215604
0.0219805
0.0217335
0.0220425
0.0221573
0.022516
0.0232613
0.11807
0.0217532
1.47938
0.0248595
0.203223
10.5686
0.0215793
3.30312
0.074878
0.0215768
0.0215599
0.0219
4.01741
0.0924192
0.0215564
0.0221209
0.0221971
0.0618964
0.143792
9.12737
0.0219749
0.0219003
0.0301929
13.341
5.19403
0.0231859
0.0223727
4.30097
4.05905
0.30732
0.0220328
0.0217761
4.9233
0.0218904
0.126632
0.867282
0.0215079
0.23351
0.0254383
4.55793
0.021824
7.76961
0.25197
0.023766
0.779991
0.0218891
2.06962
0.0220949
0.021867
0.0222227
0.0219353
3.75382
0.0218798
0.0215761
0.0225141
0.0215119
0.0217764
0.0433063
0.0224523
0.0302627
0.0220326
0.0220373
6.23969
0.0695105
0.023148
4.99019
0.0230178
0.0220088
0.0219795
0.0216177
16.1101
0.0215662
0.0220689
17.1665
2.96235
0.0365157
0.0219172
0.0222845
0.0218549
0.0222411
4.02603
0.022037
3.08663
0.0228195
1.71158
0.0222625
32.6794
0.0219505
0.210158
0.021898
0.0663052
6.71692
0.0221038
3.59079
0.0218772
0.0222182
0.0215656
1.79543
4.6802
0.0219051
0.026076
0.0215542
4.03895
0.0216774
0.041848
7.95559
0.0245072
0.0220259
0.0432115
0.0222451
0.0218729
0.0216503
0.105805
0.0219533
4.12978
0.022051
0.021934
0.0333311
0.0720414
0.567623
0.0217105
32.8238
0.0218649
0.189111
0.0218917
0.021835
0.0218856
0.0220491
0.0222685
0.206026
0.0333833
4.47379
0.105274
0.0334569
0.0325314
5.85774
0.0228218
3.98578
14.7373
0.243971
4.36177
0.745485
0.167262
0.0218683
3.49718
0.0328379
0.0218009
0.330442
0.022251
0.446307
0.0339225
0.295495
0.0265642
5.39618
15.2394
0.0316017
0.257275
0.0222159
0.640794
0.022566
0.0219025
0.0219293
0.0222924
0.0432383
4.56597
0.267188
12.2999
0.0226501
0.022939
4.51505
0.353149
0.0222604
0.0602839
0.0221522
5.27975
3.62933
0.0220572
0.0593178
0.281853
17.8012
0.0219561
0.025027
6.78155
0.0260906
1.97529
0.0716221
0.75384
0.0248784
0.0229289
0.0217927
0.021899
0.297084
0.0222844
0.334863
0.13162
0.0751963
0.0222596
0.0222237
0.0223953
0.0216799
0.0218254
0.0218794
0.0962037
4.5075
3.70287
0.0222797
0.304288
0.0219448
15.7983
0.0411832
0.0440463
0.0324854
0.245064
0.0217384
0.0220595
0.0408419
0.0218893
0.021825
0.0585543
4.22255
0.0215535
0.270572
5.26561
0.0232744
3.10598
5.12808
0.0217411
0.0513371
0.0244539
0.0218513
0.0215668
0.096641
5.39566
11.7609
0.0219148
0.0220147
0.02162
0.0228733
0.0224795
0.0232662
0.539794
0.0403965
0.0221512
1.88165
0.0268622
0.0320024
0.0217979
31.7476
0.0226113
0.0219148
0.0772784
2.18203
0.0215135
0.0220484
0.0219365
0.0234469
0.021734
0.0324091
0.50293
0.0219866
0.105295
0.0221695
0.0217707
0.613016
12.9115
0.388099
0.0220749
0.0215159
1.87215
0.0250487
0.655177
0.0214961
0.0218778
14.8048
2.9418
0.0278101
0.108386
0.0585515
0.0218659
0.0222717
0.0218296
12.0014
0.0220568
0.0222928
4.21667
0.0264229
0.244637
0.0312391
0.0219295
11.8318
0.0222683
0.0218887
0.021824
0.0292705
5.29985
0.0221612
0.0219663
0.0218851
0.0218746
0.0219357
0.021809
5.43531
0.0301498
0.0224641
0.0221105
0.0302039
0.0579226
0.0239658
0.027357
0.022284
0.0216143
0.022824
4.86434
4.65057
0.022196
11.8411
0.0222153
0.0244609
0.899726
2.28175
0.0217009
0.0221799
0.301934
0.0481122
0.0219034
0.0222489
4.69817
0.0222682
0.0639988
0.022007
0.517065
0.0222477
0.0219537
0.0221269
0.0289817
0.0216558
0.0238128
0.0252747
0.142346
0.0218539
0.0219916
0.0222498
0.021863
0.0218414
0.021674
0.028669
0.0221116
0.046307
3.88107
0.0399767
0.0610242
0.0222017
0.0216459
14.2587
3.95508
0.0215603
4.0012
16.1
0.021521
0.0219614
0.0218623
0.0883203
0.0482816
2.51481
0.0218473
0.024125
0.0218518
0.022096
0.0220029
0.0802109
0.0218224
0.214515
0.0220941
0.0542828
0.0218855
0.0226978
0.0218861
0.0315755
0.057419
15.5454
3.1287
3.96341
0.0444956
0.0218775
3.16823
3.76014
0.056331
0.0217791
0.0220854
2.01069
0.0218547
5.0255
0.0214993
0.0262099
0.0218548
0.0222702
0.0217076
1.96211
10.9475
4.77656
0.0673379
12.3681
0.0219408
5.22022
10.8705
0.0222705
0.0219271
0.0217145
0.649822
0.021509
11.4946
0.0309093
0.159917
0.0220461
0.832739
15.1393
1.689
0.0282603
0.0295821
0.0220404
23.3011
0.0214801
0.538175
0.253712
0.0637827
8.54151
5.71658
0.0228943
0.0228679
0.0219463
0.068804
11.9336
9.66654
0.0217312
4.07928
0.0236767
0.136402
0.110801
4.15636
3.95451
0.0215059
0.0251628
0.0274618
0.0228024
0.0225206
4.77255
0.0221966
11.2541
0.021643
0.0214945
0.0722556
0.122892
0.597544
0.0221272
25.1034
7.17173
0.570457
0.0259556
0.0222329
0.0221337
0.0222269
0.021886
0.67209
0.613132
0.0219532
0.0218899
0.0282673
1.81766
0.0248358
0.0219091
0.42504
0.021927
0.0222752
0.0214851
0.051836
0.0220281
0.0232644
7.11275
0.0577998
0.0220982
4.37579
0.120816
0.0219203
0.022107
0.0312864
0.0222624
0.0219601
0.0216987
8.1041
0.724617
0.0220097
0.0325978
0.0342811
0.636513
0.0219056
3.36733
0.0218532
0.0217392
0.571157
0.334355
0.0649856
0.0219193
0.0218806
12.385
4.80129
0.261187
3.01023
0.0221039
0.0223973
0.0220112
16.601
0.0236022
0.598672
0.0224184
0.0218106
0.0223927
0.0216178
0.0218683
0.0599973
0.0217618
4.96689
0.0216963
0.0220406
0.0214999
0.0232209
3.79806
4.66329
0.0449325
13.5075
0.021976
0.0340998
0.0223685
1.23707
0.0215787
0.0215103
3.02912
0.0328578
0.0312767
0.0221124
0.291913
2.24871
4.64222
0.0219891
0.0326972
0.833363
0.0275715
0.605627
0.126182
0.0747091
0.0216836
0.0223234
0.055356
0.0720712
0.0219834
0.0735923
0.0217229
0.0221825
0.0220458
0.0217151
0.0218803
0.021988
0.726998
0.0246067
0.0223613
0.0429667
0.0217227
0.0219124
0.0357535
3.94887
0.079202
0.0572609
4.09173
0.0222339
14.7627
0.0279641
9.64577
0.057735
0.0222018
0.0217982
0.0226031
14.8362
1.76517
0.0473567
0.146558
0.0216154
0.0218586
0.0222482
0.0222009
16.5575
0.0242372
0.0217512
0.171825
0.259867
1.22449
0.0222394
2.95456
0.0519388
0.0373626
0.0281698
0.383904
0.225404
0.0220257
3.85974
0.351967
0.0367694
4.61108
0.0418109
0.0218652
0.0222638
0.0218879
0.0227336
0.0261895
21.5237
0.0459992
0.0218647
0.315935
0.0220011
7.12108
3.37488
0.0219512
31.9349
0.0217001
0.0216789
0.0216956
4.12618
10.635
0.0431877
0.0298064
0.0215538
0.462808
0.0222313
0.0290538
0.0220915
0.0220213
0.021731
1.41642
0.0224496
0.039674
0.0276871
0.0222112
0.337635
0.120657
0.0295484
0.0244939
0.0227746
7.41787
3.36971
0.0216103
0.0217103
0.0216067
0.0222645
14.3952
8.13573
0.183681
0.0247445
0.0217642
9.25501
1.78472
0.0220016
26.6252
0.021686
0.0798921
13.6207
0.0217177
13.5814
13.6462
0.114272
14.6121
1.15277
0.0218219
0.0223565
2.58932
4.60276
0.0222662
12.4282
0.0238644
0.0218809
0.0222742
0.0223381
0.0370479
0.0240023
0.292906
14.9468
0.225408
0.0325253
0.0220787
0.0556943
2.34484
0.0217124
3.83868
0.0444377
0.0222197
0.0238965
0.0222415
0.0220352
0.0301249
2.31066
0.0219329
0.021779
11.088
4.34318
0.066819
0.0222617
0.0523448
0.021912
0.0219288
3.32516
2.5197
0.0219174
0.0214726
5.38913
7.2147
0.0450836
0.0220817
9.98132
0.0220922
0.0219224
0.0224029
0.0219289
0.02161
0.0216055
8.53951
0.243047
0.0250078
1.50452
0.0408683
4.72616
5.96881
4.55983
0.194827
0.0219007
0.0222389
0.0219062
0.0219908
0.0697123
0.0218726
0.104461
0.0272355
0.634125
0.0220444
4.2588
0.0342992
12.5273
0.0219219
1.74112
0.0267223
0.221218
0.257241
0.0291352
0.0216024
8.79929
0.053825
1.10737
0.021561
1.30895
0.022023
12.0003
0.477089
0.0408128
0.0219036
0.0220879
4.78629
13.1717
0.0284303
0.0214551
0.510472
0.079741
0.0419958
3.01349
0.0735803
0.0218656
3.72352
0.0218924
0.029386
0.0215225
3.7114
0.0215288
0.0222783
0.316929
3.34712
0.0222217
0.0635072
0.0229179
0.0733286
0.021871
0.307626
0.0229845
0.0597323
0.021892
0.0219834
4.78465
0.0260195
11.8981
3.90219
7.43927
0.0224168
0.021553
0.0217033
0.0242691
0.0338059
0.0289173
8.40627
0.0227314
0.375889
0.0393851
0.0222813
0.0218259
0.0643908
0.427958
17.8226
0.0218824
4.62855
0.021855
1.612
1.52157
0.0430814
0.0219931
0.0216685
0.0399333
0.964529
0.023485
0.022269
0.022407
0.0419195
0.0220375
1.59867
8.28055
4.06617
0.0221558
0.0247659
11.2163
0.0221863
0.0570817
0.0217324
0.762736
0.0345159
0.0219401
0.0406051
0.177617
0.0216387
2.9253
0.0218932
0.156569
0.240554
0.434757
0.30227
0.022166
0.0220593
20.6594
0.0219829
0.0376392
0.0859009
0.0227427
0.0214696
9.5004
0.0242052
0.339633
0.0221813
0.0613763
0.0222381
0.37666
0.024507
0.0235781
3.06813
1.23778
0.0220899
0.022273
0.155383
4.28064
1.99419
0.805063
0.0261583
0.0219052
0.0217765
5.28805
0.0221382
1.25045
0.0915094
2.17171
0.0221068
0.0216924
0.0217825
0.0401109
0.0370041
3.84914
4.35343
0.675551
0.298009
0.021591
2.71221
0.0226055
0.0523656
0.022173
0.037541
0.0560786
0.0219086
0.0215512
0.0578307
0.0216064
0.036678
0.0638492
8.99598
2.12584
0.03126
4.6512
0.0216707
0.0215483
0.0220735
0.189325
0.0578253
0.0432505
0.103307
1.085
0.037198
0.14692
0.0217339
0.021871
21.9516
0.0217361
0.272782
0.0214424
0.0218445
3.84117
0.309919
0.0218025
0.0744283
0.466207
4.60941
2.87159
0.0241638
0.0549925
0.0431547
1.28472
0.0219028
1.57918
11.4623
0.0232203
0.0236453
0.0215714
0.489796
0.0215533
0.0219795
3.96106
0.0220238
0.0215201
0.174299
0.0484291
4.71845
4.55564
3.41825
4.62496
0.0214885
0.0218815
0.0218172
0.0222048
1.72648
0.0219136
4.4301
0.0225989
11.8593
0.0238253
0.0220106
0.0216667
0.0220732
0.0290303
0.0217785
0.0214642
0.379166
0.0218071
0.043501
0.0222132
15.5819
0.0238624
0.0220774
0.0216323
0.0507377
0.0218998
0.0217506
0.0220892
0.0222146
0.02271
0.0218217
0.0228681
0.0300791
3.78373
12.6446
11.9854
6.08868
0.0217468
0.0220033
0.0219042
0.0214079
0.0219169
0.0217085
0.196739
0.0218438
0.0222518
0.0220679
0.02204
0.0218162
12.8579
0.0225617
0.0219662
24.4609
0.0388921
0.021698
14.2956
15.5794
0.022017
0.436654
0.724847
0.0218956
0.0431484
0.0234296
0.0215405
0.0263203
0.0218051
0.0328311
0.0220111
0.0222475
0.0217185
43.5516
0.0252114
0.0430354
0.0220314
0.0222657
11.6939
0.0249739
0.0220339
0.023151
0.0233385
0.022252
0.229377
17.577
0.815645
4.54826
0.213491
0.0354694
0.0222597
3.93563
0.144885
0.0224156
0.0582267
0.0222932
0.0218743
0.0222465
1.68813
0.0437034
0.0219943
0.0220387
0.216991
0.0217044
0.435492
0.0218991
1.91127
0.239169
0.671288
0.0220784
0.0228097
0.0303463
0.033744
0.0220452
0.0367011
0.0803762
0.699579
0.0217822
0.454612
10.01
0.021519
4.59091
0.0409407
0.311443
0.0973384
0.0218983
0.0265884
0.0371158
0.0216703
0.0238345
0.0215252
1.57045
1.11038
0.0311415
0.021819
0.136673
0.0692721
2.88169
0.264753
0.0228632
0.0255827
0.0219376
0.0218879
0.0372699
0.0491275
24.7822
0.021802
0.424724
0.0221233
6.62243
0.159918
4.87608
0.0215869
0.0225853
1.90708
1.82402
0.0404108
7.39397
0.0220267
0.240192
0.0219076
0.0218356
5.05977
0.393393
0.0229121
0.0220944
0.0716028
2.16359
0.180409
0.062872
0.0217522
0.0220103
0.021703
2.41041
13.1426
0.0217046
0.0406597
3.92676
0.0707997
0.257582
4.4109
11.5218
2.98153
0.0217145
0.021969
4.77488
0.0218756
0.0462647
1.59544
16.346
0.0229478
0.0289203
6.6918
0.51753
2.0638
11.122
4.71319
4.50838
0.0221113
0.0215842
0.0219876
0.0219681
27.8117
0.0513996
0.336846
0.379612
0.0535571
0.0217755
0.317011
0.0216158
0.0275899
0.0219154
0.0384527
12.3899
1.02883
0.0220708
0.0215672
0.0316561
3.22988
0.165815
13.2702
0.0417724
0.0219047
0.0777801
0.021436
0.0883623
0.0305417
0.0218835
3.46121
0.159
0.482054
0.053725
0.0220309
0.0215108
2.70978
0.0244176
0.0215923
0.0221447
0.0222564
0.0216708
8.52624
4.54858
5.82513
1.45765
12.2494
0.0225147
0.0219347
2.0384
0.0230318
0.0598175
0.993398
0.0218588
11.227
7.06493
0.0564522
0.0320965
0.729369
0.0226914
1.61775
0.035245
4.36941
0.0218068
0.0225146
0.0384703
3.64169
0.111981
0.0632511
12.073
2.85994
0.0668756
0.187059
3.39913
0.0232955
0.338696
32.13
0.0338483
0.0589729
5.12697
0.028258
0.0349326
0.022104
0.0337941
0.0353751
0.0524692
0.0220891
2.95086
0.152807
4.293
12.7643
6.22096
0.0373325
1.62571
3.59377
0.021838
0.483488
3.17117
2.00351
0.0266786
0.0236302
4.49514
3.86336
0.0215705
0.225886
0.021741
0.0219
4.13894
0.0246156
4.86191
3.93885
8.62801
1.68689
0.0216061
0.0321152
0.0219215
0.0218351
0.10267
0.0553628
0.0247661
2.54166
4.74108
0.0222734
0.0244111
1.33292
0.0224667
0.39246
0.0451628
4.64292
4.76015
0.332417
7.02666
15.647
4.22035
4.88163
5.81192
0.0267013
0.0244614
0.110215
0.113744
3.87104
1.47119
0.0221318
0.0221545
12.1524
4.34722
0.0231098
12.2298
0.021893
0.699236
1.73627
3.97976
0.0219171
4.17815
1.61561
0.025701
0.032878
11.4555
11.3028
12.042
11.6303
0.0218616
1.82015
4.72403
0.0385762
0.208867
0.101727
0.0217221
0.0250681
5.47373
4.09088
0.0234782
0.0221716
4.69589
0.0768342
6.04544
0.0685489
2.38871
4.94476
0.0219877
9.0381
0.0222852
0.0267174
0.0219497
0.0216814
0.0216931
0.0348053
0.269132
0.0214763
14.82
0.055158
1.88502
13.6981
4.27014
0.0219027
1.93148
1.57036
4.81694
0.0324762
0.0219097
1.72741
0.353275
4.33697
0.0514371
0.0229955
0.0216755
1.52175
10.3413
0.0317163
16.0849
0.0297136
0.0219969
4.36871
0.0503924
21.5122
0.0217606
0.025652
4.29533
11.8622
4.57092
0.291695
4.6533
4.75095
1.61219
0.0220454
14.142
0.0448706
0.021817
0.0215147
0.0218906
11.2107
0.0462485
4.8388
4.56457
0.0303079
0.136262
0.0559443
5.83435
0.24185
11.9817
12.023
1.31979
0.0848645
0.0215946
0.424249
0.0533426
0.0724103
4.47461
3.9526
1.6404
0.0220941
0.0231749
0.045331
0.0220586
0.0217934
0.026227
4.96867
0.0251278
0.023098
4.45126
0.0574121
0.37546
2.95281
4.97744
0.391621
4.94375
12.4336
5.43054
0.0587291
0.0288124
0.0219965
1.29232
0.0979953
0.249056
0.0587031
0.0570332
0.0214405
0.192009
1.0235
0.0239078
0.0215696
0.0222557
0.982491
0.0218624
0.0220217
0.0583699
4.72114
0.0251867
0.0504908
0.171566
0.0292341
0.0544529
0.0218102
0.0219746
0.0383044
0.289243
0.0220502
0.0294036
0.251934
0.942206
0.0220074
11.7176
0.0217825
5.04475
0.0228477
0.022937
0.0215334
0.160219
0.0291883
10.2114
19.2763
0.0645263
0.0221616
0.0216859
2.8667
0.862838
0.0215981
0.224351
4.60057
0.0491553
0.0724103
0.0214022
0.0223437
0.0219062
4.39734
0.0392206
0.022049
12.3796
0.0221142
0.0532869
0.320753
0.0217237
0.0911172
0.0564885
23.0858
0.0221944
0.0252942
0.0229554
0.0509325
0.0213832
0.0218871
1.12319
0.298565
0.0709769
0.0217293
4.62282
0.0221337
0.0221156
0.0219553
0.401751
12.2873
0.0229654
10.4057
0.627238
0.0595071
5.06198
1.29577
12.1087
2.14779
0.046555
0.0533608
0.19409
0.0447406
0.0219481
0.0288238
0.0266768
13.149
0.0220793
3.76726
0.0219736
0.344559
0.0836404
0.0224191
0.0224349
2.23839
16.7241
9.48949
4.30245
0.0218019
0.0515371
12.1303
0.0241625
5.73846
0.0381577
0.0996939
4.76673
0.0284965
0.0219896
0.113139
0.134884
0.0218877
4.70513
0.508634
0.0216925
0.0222394
0.0221209
0.0220067
12.7791
0.0216665
0.0442635
0.0220226
0.0218431
0.0307998
0.0219318
4.20289
0.0797111
0.0219602
0.0215959
0.108888
0.022549
0.0512304
10.5622
12.3071
0.0493718
0.210816
0.0383505
0.0215703
0.144869
16.3088
0.0356018
4.68495
0.857387
0.0693872
0.0361891
0.0246873
0.0632772
0.0356418
11.7278
0.0221141
0.021967
0.0215888
4.08796
4.50508
0.0340092
0.0658388
0.0217202
0.0239535
0.105046
0.261794
0.0218818
0.0557153
4.90091
0.0809482
0.0219869
0.0218937
23.5148
13.611
0.0219202
0.447794
0.026816
0.218048
0.328708
0.0218479
5.31742
0.0261313
0.0220238
4.06373
0.21352
0.0219035
0.022162
0.281614
0.0217279
0.0220383
0.14032
0.0392855
0.042548
14.1074
0.0239804
0.034087
4.87802
0.0217695
4.42912
12.1699
0.0238482
0.0474606
0.216692
0.0219103
0.174572
0.0214526
2.57
1.48132
0.0219995
0.898407
4.12204
0.0219008
0.0218971
0.552823
0.0313843
4.23689
4.21658
0.0220949
0.0399811
12.7972
0.0219856
0.0433715
0.0592618
0.0320371
2.63826
0.26213
0.0221917
0.22395
1.64952
0.0427859
3.23557
0.0219052
0.0215343
0.0222675
0.0396073
1.71001
0.0220653
0.0283199
15.6056
9.1979
0.0222176
0.0280672
1.95847
4.57638
0.0222246
5.55846
0.0310147
0.0796031
0.0317573
0.0226527
0.0245014
0.0219131
0.0219537
0.951034
0.0219307
0.0490082
0.0219757
9.59112
0.0221785
0.0224172
0.0215662
0.0228348
0.0219764
0.0383317
10.4789
0.45885
0.0352458
0.0399086
0.0219652
0.0301743
0.0482071
2.99421
11.8918
0.0218223
0.514423
0.0220196
2.08404
4.4407
11.3889
0.0218181
0.0999372
0.0713175
12.3466
0.22349
0.0218266
3.10919
0.295796
0.0357551
1.04495
0.0218263
0.0219215
0.0370515
4.8729
0.0218922
0.880435
0.0322172
1.38391
0.0838489
0.0219934
2.91863
0.0267338
0.021975
0.333735
0.0218123
2.75122
8.53515
0.191951
0.0265102
0.136529
0.0218949
0.092715
0.0408368
5.24207
0.0219402
0.0215436
0.0256626
0.027753
0.0390125
4.02208
3.1764
0.0338744
0.211683
0.021782
3.10346
0.925715
0.167415
0.0218929
0.0222605
0.0220801
2.55936
0.0219649
0.0244535
2.80472
0.0835301
0.0219212
0.236978
0.0796783
0.0219814
0.0241042
0.107915
1.442
0.0636147
0.0400085
4.43341
4.18702
0.388984
0.0255092
0.021997
0.0235353
0.0239383
0.126354
0.0536976
0.0250712
0.0768283
10.2944
0.0234735
0.0219927
12.2648
0.269669
4.6034
0.227995
0.0247066
0.0231964
0.0230318
0.0217174
0.0218609
0.0391057
0.021503
0.0225718
0.0219597
0.0225411
0.0229977
0.0219376
0.0364173
0.0301611
0.0218081
0.0219217
0.0221192
0.0224339
0.0221453
0.208098
0.0220561
0.0229613
1.37644
0.0216079
0.0227453
0.022084
0.0250434
12.4636
16.2855
5.12977
5.09078
3.28739
0.254455
0.0218552
0.0544565
0.0218613
0.492071
0.0220989
0.0280027
0.0220343
0.0505758
0.0219507
0.0282046
0.0217685
4.12916
0.148672
0.0220788
8.90757
3.21803
0.0217994
0.0626713
0.0219397
0.0215569
11.1603
0.0218234
0.0607723
0.17278
0.0221051
0.021516
0.0682968
5.24916
0.0242008
0.0225145
4.30259
0.0219324
10.9719
0.046283
2.72108
0.0216469
4.59945
0.0218893
0.0219716
0.289829
0.0553115
10.9804
4.76873
14.746
3.34011
0.147813
0.12217
0.0220455
0.116809
0.0217095
0.0218116
0.0850289
0.0218926
0.0219788
0.0215689
0.021598
0.0456078
3.69079
4.48524
0.355496
4.28161
0.0226104
0.0289315
0.0221043
0.0223853
0.0749869
0.0218919
0.021544
0.0218007
0.0227141
0.022754
0.183967
0.059842
0.0423058
0.0221097
0.0508795
0.0513011
9.30168
13.1733
0.0235996
0.0352981
0.022088
6.97736
4.29966
0.0219006
0.0219295
0.0235045
0.0222129
0.433982
0.324429
12.1933
0.0220027
3.39996
0.0219304
5.48455
0.0465519
0.0218026
0.0264797
0.716979
0.0259508
0.0262099
0.0267499
0.0773768
2.03709
0.0215537
0.0219101
0.0267466
0.12103
0.0218281
5.43456
3.11769
0.021909
0.0214008
11.8322
0.0500295
0.0218921
5.196
16.8462
2.80891
2.62915
0.0254177
1.84873
0.0220711
11.9885
1.73321
0.839703
0.0489344
0.0231381
11.2881
0.0240822
0.0218548
0.0214375
0.165054
0.0216102
0.949149
0.0219093
0.0219795
0.0242588
4.65486
0.023037
0.0223991
0.0220733
7.05084
5.77226
6.77362
5.06347
0.0342656
0.0218926
0.023511
0.253681
0.100006
0.0219814
0.0416669
0.138408
2.41764
0.021752
11.4213
12.45
0.0313615
0.0220627
0.0229727
0.0219423
0.0216447
0.021927
0.0220285
0.0216802
0.0875463
0.0220965
0.107136
0.0223179
0.0223449
12.0146
0.0502623
0.0221611
0.0224066
4.98588
0.0214983
0.0222476
0.0248896
0.0218069
0.564446
0.0274024
0.0223834
0.0414169
0.0218301
0.0252977
0.0215465
0.165895
0.0218106
0.0218796
0.914568
0.0222851
0.226722
0.0302057
0.0232126
0.071399
0.0213889
0.0220887
0.0223055
11.6997
0.0226103
0.0218945
1.90546
0.021857
0.0215956
0.0218778
0.519776
0.0305015
0.121228
0.031686
0.0292431
0.0461211
0.0230878
0.0257898
0.044478
5.17583
0.0220464
0.0268619
0.0217348
0.237838
0.2471
0.0219012
0.0251334
4.08094
0.0284958
0.0215043
12.9022
0.0247489
0.0742608
4.35337
0.0255531
0.0218658
0.0273828
0.0218961
0.0225528
0.0218982
0.0228292
0.0248181
0.0219683
0.0220679
0.0302889
0.0220078
0.088189
0.0217635
0.023164
0.0218935
0.0255551
4.4993
0.0219091
0.0217721
0.089064
0.0221106
0.0218279
0.321488
10.6183
4.87777
0.0219683
0.0235496
0.029295
0.0222449
0.0221258
0.0303191
0.178279
0.0215192
0.049563
0.0219085
0.0218752
0.021651
0.0215048
0.0221023
0.0391531
0.030496
0.0246348
6.04478
0.0231809
0.0267473
0.0216608
4.09195
1.47549
2.56109
0.0219548
0.0429309
0.0264879
0.0219241
0.0221209
0.0386997
4.59173
4.75597
0.0216534
0.0250876
8.74486
0.0224488
0.188127
2.10085
5.41216
0.02609
0.0219247
0.035383
0.0383503
0.109746
7.62518
1.27264
4.93634
0.0221937
0.0221735
0.0218953
0.10258
0.0217778
0.0216616
0.033578
0.0218832
0.0217259
0.0218708
0.0478459
0.0217718
0.0217657
0.0219642
5.20903
0.0214916
0.0219446
0.0221079
0.021919
0.0219363
0.0668755
0.0532137
0.884034
0.0214874
0.0268702
0.102558
11.1998
7.27232
0.022017
0.0222754
0.0485459
0.086053
0.0247861
0.339491
0.0219179
2.40097
0.0222782
4.78463
0.0224198
0.0218883
0.0356902
0.0219012
0.0216586
0.022381
0.697299
0.0235786
0.0222235
0.0221779
0.0219098
0.0351656
0.0216072
0.0219065
0.0244605
0.0962678
0.0232889
0.0215712
4.66997
1.21246
0.0218624
0.479528
0.022143
0.0257193
0.0682789
0.249003
0.0228459
0.0225665
0.0219686
0.246587
0.0267298
0.021825
0.02188
0.0227511
0.124137
0.0216515
0.0294938
0.0230927
0.0329405
0.0472883
0.0336902
0.0819959
3.60584
0.0240743
0.0220371
8.47649
0.36869
0.0219275
0.0214741
0.0220619
0.0219105
0.0218841
0.02318
0.0216515
0.0220773
1.38453
4.78106
0.0274327
0.0219009
4.54457
0.0230557
0.0216887
11.6423
0.0225
0.0215969
0.0220936
0.0220345
0.0302799
0.0219014
0.0509249
0.0219047
0.0217695
0.0219013
0.0292426
0.032054
0.0218797
0.0468146
4.64468
0.0227402
0.0218736
0.0565314
0.0216603
0.0218642
0.0218459
0.0267555
0.0220511
12.0108
0.022105
0.215646
3.2337
0.051436
0.0222881
0.0219047
0.0218976
0.0219263
0.0277228
0.184919
0.118403
0.0217977
0.0232661
12.2439
0.0215089
0.159
0.0219583
0.0220969
0.0287497
0.0580938
0.0219514
0.0282352
0.0268897
0.053915
4.36563
7.74805
0.0216341
0.0219222
0.0308752
0.0219572
0.0223261
0.0458015
0.0220445
0.0937906
0.0217716
0.064495
0.0221057
0.0757755
0.052345
4.67959
11.1853
0.021912
0.0350861
0.930713
0.205132
0.0215557
0.0215446
0.136347
0.0219316
0.0217565
0.0217214
0.0214846
0.0658435
0.0521716
23.0084
0.0220181
0.0358247
0.0222551
0.0215529
0.0225927
4.11497
0.171879
0.0218898
0.0219993
0.0218286
13.1011
0.0219757
0.0218958
0.0222317
0.0219005
0.0406195
0.0218262
5.24383
0.0219787
0.0219265
0.0219525
0.0218516
0.0216927
0.0220024
13.5335
0.021771
0.0219012
0.225097
0.0217454
0.0220419
0.0221126
0.0221556
0.0498944
0.0218825
0.0219674
2.56244
0.0223941
0.0220373
0.0220889
0.0214406
4.66154
0.0226181
0.0220559
0.0218802
0.0241197
0.0219603
0.94358
0.0217863
0.0220057
10.8783
0.0219753
0.0570604
0.0220386
0.0213903
0.0214537
0.0291538
0.034964
0.0218153
0.0222864
0.0226433
0.0218811
0.0221103
0.0219842
0.0216437
0.0215446
0.0215569
0.807818
0.0219495
0.0218279
8.15925
0.0218998
0.0250032
0.12472
4.60762
0.021803
0.0219706
0.0219494
0.0216096
0.0225881
0.035908
0.02329
0.0302114
0.0217229
0.0233924
0.0218596
0.0214558
0.0246364
0.053732
0.0230397
0.0251762
0.0220242
0.0219491
0.0221199
4.0951
0.0222933
0.0220073
14.6231
0.0220142
2.77993
0.0220618
0.0219193
0.0216915
3.87799
0.0218316
0.0240924
0.0221119
0.022071
0.0219591
0.0220872
0.0217933
0.0228955
0.0218803
0.0367207
0.022248
0.0354597
0.0214322
0.0216059
0.0226323
2.90489
0.0221479
0.0220471
0.0223281
0.0218942
0.0227658
3.79467
0.0224336
0.0261349
4.18368
0.441664
0.0224068
0.0219682
0.126456
0.0874846
0.0222001
0.0221155
0.0216272
3.15405
0.0219178
12.3885
0.0215976
0.0215235
0.0221041
0.021588
0.0227703
0.0215654
0.0219865
0.0222654
0.0460489
0.0232362
0.0219727
0.0215851
0.317306
0.0474866
0.0214817
0.0221036
0.0229772
0.0222392
0.0220582
0.0215452
4.23252
0.0215501
0.0218999
0.062408
0.0215411
6.2659
0.0218133
0.0348463
0.0242394
0.0219613
0.0214929
0.0219017
0.021676
0.0220425
0.0215319
0.0215815
0.580991
4.14489
4.96902
0.0215795
0.980077
0.0218665
0.0444585
0.0218996
0.0219067
0.0221099
1.04692
0.0219371
0.0218836
0.0221263
0.0218604
0.728683
0.0218957
6.86139
0.0214273
0.0218661
3.82642
12.3693
0.0219815
0.0219487
0.0250227
0.0220116
0.127341
0.0217387
0.421379
0.0217282
0.0330588
0.0221388
0.021807
0.0219313
0.0218656
0.0227668
0.0218493
0.0274628
0.0292165
0.111227
0.0215205
1.38521
0.0218751
9.6095
0.0218856
7.52618
0.579339
0.0217358
0.0218874
0.0215509
0.0217909
0.0220433
0.0216291
0.0215461
0.0218739
0.0214211
0.0792733
0.02211
4.40099
0.0215426
0.0214814
0.0219094
0.0219024
0.0219753
0.929436
0.0221137
3.25601
0.0214591
0.0221196
0.0291641
0.0215655
0.165735
0.0224603
0.0219153
0.036566
0.021491
0.0219703
0.0221254
0.0215442
0.0275346
0.0370953
0.0215909
0.0221122
0.0220454
11.1459
0.0229546
0.0214801
11.9762
0.0427978
0.0215861
0.0219016
0.156868
0.0220357
0.0214182
2.17628
0.195355
0.0220435
0.0214206
0.0222398
0.0329546
0.0215488
0.166431
0.021583
0.0215881
0.036809
0.0490794
0.0215819
0.021548
0.021432
0.0216754
0.0216894
0.0385017
0.0219619
0.0216864
0.022111
0.0218297
3.55968
0.0222722
0.837938
0.0242922
0.0254963
0.0221419
5.52198
0.0217765
3.9788
0.0214423
0.0219502
0.420462
0.0219659
0.0224022
0.0216341
0.0239783
0.0216224
0.0247034
0.0214785
2.91226
0.022039
0.0214946
0.0214994
0.0215551
0.0922157
0.0217389
2.60651
0.0218998
0.0240476
0.0214863
0.0220123
0.26602
0.0219949
0.101373
0.0218056
0.0226265
0.0220095
0.0221329
0.0221373
0.0218908
0.0219752
0.245491
0.0215541
0.0219356
0.0222974
0.0220563
0.0220533
0.0302712
0.0215816
0.0218998
0.0218386
0.0215755
0.0217506
0.02199
2.95992
0.175226
0.615086
0.021418
0.0225085
0.0221265
0.0247106
0.107083
0.197932
0.029301
0.0215387
0.021973
0.0216144
0.0221435
0.022115
0.0218937
0.767072
0.0473952
0.0219244
0.145906
0.0221371
8.40341
0.0219531
0.021874
0.0217945
0.0214859
0.0214698
0.0216204
0.0216371
0.0217404
0.0389635
0.0223468
0.0218907
7.32564
0.0215494
0.0219767
0.0219793
0.0214915
0.0218946
0.274533