/*--------------------------------*- C++ -*----------------------------------*\
| =========                 |                                                 |
| \\      /  F ield         | OpenFOAM: The Open Source CFD Toolbox           |
|  \\    /   O peration     | Version:  v2012                                 |
|   \\  /    A nd           | Website:  www.openfoam.com                      |
|    \\/     M anipulation  |                                                 |
\*---------------------------------------------------------------------------*/
FoamFile
{
    version     2.0;
    format      ascii;
    class       volScalarField;
    location    "450";
    object      omega_0;
}
// * * * * * * * * * * * * * * * * * * * * * * * * * * * * * * * * * * * * * //

dimensions      [0 0 -1 0 0 0 0];


internalField   nonuniform List<scalar> 
9793
(
0.0670862
0.229474
0.0604508
0.0210232
1.6759
0.0231579
0.0220542
0.0207972
0.0215987
1.70814
0.0498009
0.0649272
0.0210765
0.0204646
0.0231547
0.0203767
0.0218835
0.0235143
1.32441
0.0204404
0.145221
0.0230334
0.352212
0.0196409
0.0220842
0.0211884
0.0207367
0.0210981
0.0386348
0.0215878
0.0331427
0.309274
0.407884
0.0221074
0.0428495
0.894472
0.0226971
0.0230156
0.0208911
0.0211394
0.0327078
0.023176
0.0223103
0.0221818
0.0223262
0.0214039
0.0414794
0.125593
0.05515
0.0209931
0.0439674
0.05359
0.0233772
0.0216293
0.114456
0.37805
0.0214446
0.0832732
0.653124
0.0208789
0.0218509
0.0232577
0.302572
0.0219663
1.78802
0.331582
0.397004
0.250584
0.0607463
0.0489389
0.117481
0.0209245
0.0211673
0.258153
0.0485962
0.678256
0.0214386
0.0210811
0.0224102
0.0213499
0.275392
0.0223412
0.237313
0.0386464
0.0300648
0.0210874
0.0216257
0.0214343
0.0227021
0.022705
0.229157
1.30805
0.0205162
0.250532
0.0229439
0.0385012
0.349957
0.234115
0.0204654
0.020318
0.020298
0.0222181
0.0204481
0.0204296
0.0210663
0.0297131
0.0225347
0.0219204
0.0229982
0.273652
0.0211072
0.0802284
0.021424
1.21834
0.0531487
0.021448
0.43306
0.0469054
0.0228355
0.197746
0.267751
0.0226247
0.0213448
0.0234819
0.0219209
0.108957
0.0362541
0.0272915
0.0229131
0.0211775
0.0215125
0.021444
0.0211805
0.0223107
0.0215616
0.021432
0.0223377
0.0219908
0.0214155
0.0199938
0.0213336
0.0219282
0.021246
0.0203259
0.0205371
0.0214304
0.25292
0.0203342
0.0204405
0.825731
1.67402
0.0214936
1.64037
1.70125
0.02041
0.0220818
0.0207561
0.0218073
0.0203118
0.0211897
0.0208037
0.0211052
0.0202235
1.34911
0.251481
0.269205
0.0732549
0.0251995
0.0205743
0.0215073
0.0212789
0.609077
0.244805
0.611452
0.0218622
1.36655
0.0214409
0.0196159
0.0212055
0.0263595
0.804949
0.0222771
0.0203278
0.0219536
0.747879
0.0211502
0.0920025
0.0211995
0.0213207
0.020234
0.0218698
0.0213354
0.0328517
0.0926553
0.182807
0.0261087
1.18333
0.0214085
1.64848
0.0200728
0.0215526
1.40712
0.618241
0.0211816
0.0214413
0.0208694
0.471981
0.0202623
0.0275751
0.0224042
0.029073
0.0353648
0.0589826
0.0216571
1.51835
0.0206479
0.0216466
0.754332
0.020904
0.083084
0.0575956
0.0213798
0.0219289
0.0213377
0.0411482
1.39154
0.0231666
0.0203945
0.058629
0.0421511
0.0196735
0.0196338
0.0223485
0.0202336
0.0405056
0.0749785
0.0213966
0.0211681
0.18918
0.0219633
0.0272993
0.020467
0.0211039
0.381281
0.0211181
0.0204359
0.0207856
0.0217818
0.0204712
0.0219359
0.0217714
0.0236921
0.049687
0.0383786
0.0210446
0.0236723
0.021254
0.0239543
0.0233367
0.0202439
0.331018
0.0211407
0.0493645
0.0217521
0.0255898
0.0200164
0.0198817
0.0290085
1.38596
0.0222863
0.0202721
0.0200421
0.0258712
0.0214
0.229233
0.228854
0.0211863
0.139534
0.0213796
0.0384642
0.0216894
0.0197138
0.0223689
0.0210064
0.0362034
0.0213758
0.0217696
0.02475
0.0211363
0.0214326
0.0214044
0.428344
0.0225085
0.0228234
0.0215675
0.0222878
0.0220711
0.0252195
0.0212514
0.942021
0.0204165
0.0743882
0.470093
0.0223451
0.0221648
0.0203028
0.0265659
0.0240035
0.0215878
0.0640989
0.0217913
0.0202868
0.0241555
0.0219238
0.0215692
0.0222905
0.0351982
0.0211104
0.0251052
0.0224583
0.0210105
0.25281
1.55446
0.257778
0.0204621
0.463064
0.0221794
0.602466
0.0531871
0.0201041
0.0230478
0.0527254
0.0219061
0.0258246
0.0574374
0.0207601
0.022173
0.0215322
0.021222
0.0212211
0.195091
0.0212026
0.0209964
0.943751
0.0219806
0.020339
0.0203993
0.0223853
0.0207742
0.716443
0.0219892
0.0213934
0.0217388
0.0222014
0.536003
0.0216026
0.0322955
0.0196332
0.0332719
0.125737
0.0922554
0.0352167
0.0223313
0.0231665
1.56529
0.0218877
0.327307
0.0220156
0.0202899
0.472253
0.0255617
1.53974
0.0213972
0.0429712
1.08434
0.0233296
0.021123
0.423789
0.0249905
0.253044
0.0236958
0.0215735
0.782896
0.0212818
0.0223046
0.0219425
0.0214202
0.0207546
0.021603
0.0233024
0.547948
0.0217626
1.97438
0.135866
1.56918
0.0424189
0.253889
0.0210626
0.0215312
1.43681
0.100504
0.0205176
0.0218539
1.1568
0.0200341
1.32528
0.0211958
0.0233252
0.0200162
0.0302397
0.0211959
0.0254717
0.188269
0.0202898
0.379395
0.0278152
0.0220761
0.0275304
0.0217777
0.0223327
0.0211329
1.35125
0.021353
0.0215923
0.0568313
0.0215538
0.0233034
0.0221798
0.020194
0.0270745
0.0212036
0.0216041
0.0199645
0.358616
0.0209828
0.354048
0.0215186
0.35495
0.0232608
0.0217084
0.0225837
0.0217634
0.706317
0.0213947
0.106277
0.0202711
0.0212991
0.0222929
1.18988
0.0349591
0.123303
0.026934
0.0234193
0.021269
0.0370462
0.0268577
0.0293111
0.232868
0.207935
0.0216771
0.0242663
0.0430657
0.0213521
0.0226672
0.0213307
0.0204396
0.0222352
1.01439
0.0254876
0.765229
0.0204631
0.0269174
0.0195934
0.0219329
0.0216537
0.0223744
0.0373675
0.0216387
0.0231545
0.0200198
0.0214362
0.0237723
0.249686
0.0212604
0.0212666
0.46
0.024526
0.0219951
0.394191
0.204853
0.0216927
0.0221546
0.0224239
0.02381
0.0216217
0.0225863
0.022202
0.0215298
0.0212863
0.0210639
0.252437
0.0543874
0.0207641
0.724284
0.0309621
0.0203862
0.0225189
0.0224337
0.0683057
0.021671
0.13777
0.0201278
0.0211213
0.0462264
0.0213096
0.0310706
0.476979
0.0257635
0.0203763
1.82691
0.0243009
0.0205883
0.0212724
0.050122
0.0209306
0.0205681
0.0212734
0.0209242
0.387675
0.0405687
0.0302226
0.0227955
0.0212242
0.0210533
0.0215108
0.0210038
0.0212905
0.0546846
0.0993208
0.0200607
0.0236929
1.5454
0.0214184
0.0534364
0.0331157
0.020883
0.0526446
0.780357
0.0213938
0.125316
0.0197384
0.863038
0.0245343
0.664256
0.0211398
0.0210819
0.0219063
0.232542
0.023262
0.505827
0.269619
1.90808
0.0319636
0.116756
0.0292169
0.0231857
0.0287911
0.0234068
0.309994
0.021597
0.581855
0.0199483
0.25658
0.0221922
0.0219833
0.0210326
0.136216
0.0199864
0.020882
0.0222967
0.0226495
0.0259701
0.0211815
0.021273
0.0213855
0.0213578
1.36262
0.0209897
0.207587
1.32291
0.0210018
0.022009
0.0275401
0.021853
0.0213241
0.0218364
0.0234131
0.0245333
0.0222273
0.0226558
0.020515
0.0228057
0.0221681
0.0240335
0.0218716
0.022503
0.221787
0.0213765
1.457
0.0246278
0.0221813
0.0212837
0.0207477
0.0235141
0.02407
0.0211003
0.0213155
0.0195642
0.021081
0.0212874
0.0211798
0.0234812
0.0198794
0.0219831
0.0222839
0.0215765
0.0233397
0.0222847
0.0298455
0.0225551
0.0210351
0.0212935
0.020562
0.0200982
0.0210889
0.0201613
0.0209774
0.0213833
0.0199787
0.0314962
0.0211644
0.0224313
0.0213606
0.56005
0.0210474
0.020008
0.0489361
0.0197107
0.0218054
0.145904
0.0221174
0.0226575
0.0215553
0.0835474
0.0207578
0.0460008
1.87835
0.480688
0.18847
0.0217189
0.0213698
0.225602
0.0234931
0.0199814
0.255022
0.520226
1.4726
0.0213041
0.0539444
0.0213725
0.0213536
1.19944
0.021194
0.572157
0.0227732
0.0540094
0.0210185
0.0232301
0.0221101
0.136324
0.121352
0.0212408
0.0224252
0.0261465
0.0209694
0.0236131
0.0461202
0.241587
0.0211106
0.105589
0.02346
0.415878
0.069156
0.4457
0.242908
0.0215157
0.0281973
0.10391
0.0210485
0.0211672
0.0223553
0.0223796
0.0199649
0.66816
0.0199547
0.215226
0.0229217
0.0348864
0.0487636
0.0215287
0.111707
0.573895
0.0218711
0.744675
0.0276334
0.0666951
0.0199734
0.0196998
0.334305
0.0214413
0.122187
0.0209908
0.237183
0.0205203
0.189715
0.32941
0.0214896
2.16517
0.0214313
0.0223743
0.0328871
1.29771
1.27297
0.0201449
0.0205438
0.0200271
0.479088
1.01308
0.0229228
0.0249366
0.0812426
0.0200003
0.0210073
0.0224416
0.563501
0.0257591
0.0215432
0.021041
0.0208382
0.148998
1.34808
0.221708
0.0205718
0.0209389
0.600894
0.0211798
0.712565
0.0381693
0.23031
0.277904
0.239276
0.0208783
0.0215344
0.0231665
0.0221493
0.024251
0.0212235
0.0535746
0.228307
0.0204538
0.587451
0.0208281
0.607723
0.0216718
0.273434
0.0245204
0.0246879
0.0211343
0.0217638
0.082799
0.313709
0.126658
0.021491
0.0307412
0.0214342
0.0226255
0.0234797
0.38669
0.0245713
0.066777
0.0208668
0.0265724
0.0212134
0.0199058
0.0220952
0.020968
1.7595
0.0211552
0.0226988
0.0226253
0.0219285
0.0199571
0.0472891
0.021783
0.0220939
0.0208943
0.0210191
0.227671
0.0210591
0.0782231
0.0204702
0.111754
0.0210257
0.544021
0.0212117
0.0662753
0.0216668
0.021487
0.0208949
0.278178
0.220454
0.60628
0.158436
0.645681
0.021429
0.0230401
0.233122
0.0200345
0.314879
0.320673
0.0475941
0.0886838
0.0225887
0.244603
0.0243346
0.343801
0.230963
0.0225309
0.0216282
0.231603
0.877551
0.0242546
0.0234936
0.0212084
0.0225957
0.032253
0.0210718
0.0200901
0.0222057
0.198328
0.0328172
0.0232518
0.456131
0.0209141
0.0201677
0.260913
1.39854
0.0332631
0.0220793
0.178588
0.0205737
0.0200247
0.445213
0.0199709
0.0224519
0.251661
0.262576
0.0217772
0.600299
0.131443
0.058582
0.272719
0.339332
0.0225368
0.0517163
0.0217838
0.0208555
0.0213729
0.0218328
0.0218197
1.10091
0.0223567
0.456079
0.0211806
0.036057
0.0219256
0.0331127
0.024643
0.0217709
0.0381955
0.0211465
0.0200819
0.0661488
0.022697
0.0277159
0.0218098
0.0200893
0.245383
1.35602
0.0238851
0.0195887
0.0195644
0.0210355
0.022785
1.45131
0.0659665
0.268887
0.0303404
0.327526
0.0216993
0.0277079
0.0256406
0.0234147
0.086487
0.0211486
0.0210315
0.380301
0.0321264
0.648352
0.0210906
0.466513
0.288647
0.0243605
0.0367303
0.0232529
1.47336
0.0215637
0.0243633
0.238136
0.0242561
0.0211053
0.156027
0.0217382
0.0205307
0.0210105
0.157297
0.0218234
0.025128
0.365745
0.0353722
0.0247547
0.0306666
0.0506703
0.196317
0.0469119
0.0200883
0.0215415
0.0220746
0.0246015
0.0213976
0.645356
0.242482
0.0232754
0.611457
0.173484
0.285353
0.0215696
0.242124
0.0212627
0.269846
0.0626838
0.0206812
1.2905
0.213929
0.0208663
0.0214939
0.0214499
0.20811
0.609319
0.0256389
0.0407153
0.110089
0.206521
0.515084
0.254384
0.021791
0.0213974
0.90834
0.484994
0.0211152
0.021388
0.0201703
0.0218378
0.0216285
0.024283
1.38412
0.0213312
0.0243893
0.414837
0.02171
0.0217895
0.0241643
0.635088
0.0215512
0.0247152
0.0447418
0.0218678
0.0200772
0.0219313
0.0209263
0.0224962
0.336823
0.193738
0.0218525
0.0249115
0.0255622
0.209992
0.0213591
0.0234704
0.02233
0.0218237
0.244936
0.0223417
0.022343
0.0256327
0.0224052
0.0217634
0.0248576
0.0212326
0.0819499
0.0215175
0.0210596
0.60594
0.0211192
0.272531
0.0268418
0.0209894
0.583372
0.0240993
0.029863
0.158853
0.0202625
0.500243
0.0209958
0.0213862
1.08072
0.580697
0.0202817
0.0215047
0.0207434
0.0216835
0.0701734
0.0222547
0.0217182
0.0221738
0.0224369
0.0220229
0.0213479
0.0203288
0.0209733
0.0211939
0.0851963
0.0239645
0.0200488
0.0367875
0.0224351
0.513342
0.169143
0.0310375
0.0214875
0.0212523
0.0627296
0.0233271
0.0214604
0.0217671
0.309591
0.112078
0.0213692
0.0198442
0.0581398
0.0448921
0.0196881
0.332101
0.0347917
0.021534
0.0218864
0.0403835
0.0216279
0.0281493
0.269897
0.0221353
0.0544359
0.0554934
0.0219601
0.0198499
0.0213621
0.0198592
0.0198433
0.113466
0.0211165
0.0470907
0.0412547
0.0198482
0.0219356
0.0303361
0.0217213
0.0216839
0.0213898
0.0226827
0.356048
0.0198557
0.0215141
0.32736
0.022696
0.0216302
0.025142
0.0211348
0.0216553
0.0212088
0.0215065
0.0232546
0.0218247
0.0806213
0.0529139
0.0198631
0.0214296
0.0198576
0.0750052
0.0210291
0.0241821
0.0213135
0.0202376
0.0259251
0.020438
0.027949
0.0214124
0.0204535
0.252089
0.367785
0.0217756
0.021632
0.0209721
0.306389
0.0621638
0.0213919
0.38685
0.264137
0.0220804
0.099186
0.317368
0.0235265
0.314713
0.0405458
0.540593
0.0212148
0.03018
0.0812744
0.0203991
0.249751
0.855486
0.0213898
1.64975
2.73299
0.0240314
0.300746
0.019868
0.0257787
0.0405656
0.0212513
0.236732
0.0198895
0.0373379
0.054686
0.0198574
0.0514866
0.0219205
0.0219744
0.030452
0.0234771
0.225575
1.3419
0.0201168
0.0236891
0.454875
0.0207464
0.0242199
0.0208327
0.330627
0.312173
0.0214824
0.0217327
0.0244676
0.34813
0.60525
0.0274351
0.0198709
0.0209125
0.817286
0.531264
0.32173
0.0228226
0.0229756
0.0250189
0.0200688
0.0224379
0.0245261
0.0231812
0.0209233
0.0244073
0.328772
0.202865
0.0209856
0.153147
0.0239746
0.137795
1.33943
0.0384816
0.206118
0.127058
0.0198816
0.101816
0.108926
0.0888012
0.253776
0.0213084
0.109448
0.222339
0.0383764
0.0245511
0.256956
0.258732
0.0211024
0.0246374
0.0239951
0.0212312
0.0623106
0.0212962
0.0221146
0.0206697
0.019911
0.0218577
0.0213748
0.0227007
0.0248396
0.236705
0.0244855
0.219531
0.0208448
0.025615
0.0215787
0.22625
0.548506
0.021205
0.0405094
0.022114
0.0202456
0.0213001
0.0202166
0.0211025
0.0801905
0.0216278
0.0513263
0.0216499
0.0209602
0.332241
0.0225175
0.0218401
0.0211433
0.0213218
0.287206
0.0620449
0.47039
0.166348
0.631386
0.0215402
0.0217713
0.0218321
0.0237506
0.0404509
0.0714917
1.29489
0.0209947
0.038241
0.0221487
0.04339
0.68225
0.0242352
1.42642
1.50773
0.0227593
0.03638
0.0209356
0.0413298
0.0233908
0.0778669
0.0396425
0.0199008
2.69628
0.165804
0.0216821
0.0227514
0.0219122
0.163957
0.0218589
0.0217469
0.297571
0.0208271
1.29342
0.0268574
0.0239626
0.0221318
0.0218232
0.0461637
0.0211656
0.18685
0.0239973
0.0213221
0.0207565
0.0443904
0.0226138
1.28432
0.022962
0.0245313
0.0243425
0.0597709
0.0229123
0.0213614
0.259349
0.0217119
0.0204324
0.15073
0.262933
0.0244625
0.0205555
0.0226726
0.898245
0.0517226
0.0211669
0.0188829
0.0210411
0.082477
0.0834353
0.0219565
0.02114
0.0769803
0.0209781
0.0207639
0.0213772
0.071937
2.18804
0.0307998
0.0242861
0.0218075
0.0220563
0.290418
0.0308404
0.0217582
0.0217419
0.0210636
0.0691717
1.49
1.38172
0.0212423
0.117728
0.0202473
0.0201962
0.0231381
0.0220049
0.0369851
0.0213581
0.0918193
0.164226
2.45592
0.0237601
0.0215227
0.021559
0.035262
0.020653
0.0213478
0.0319396
0.0215199
0.0212836
0.0222546
0.0243261
0.0200253
1.07591
0.0388403
0.0241023
0.0232878
0.04887
0.0230863
1.65819
0.0213764
0.0212699
0.0215069
0.0210775
0.0214855
0.0209235
0.109693
0.078545
0.0216029
0.0221213
0.0213158
0.0240424
0.0229824
0.0536826
0.022094
0.296132
0.021312
0.021885
0.0214669
0.0684997
0.021509
0.376607
0.0215038
0.0215463
0.0195704
0.505101
0.0230333
0.121451
0.69816
0.021994
0.0215003
0.0211539
0.0214146
0.0285062
0.0220522
0.0243579
0.59179
0.0216042
0.0466038
0.0831806
0.0232703
0.0879171
0.021577
0.0233014
0.0210054
0.0203847
0.02026
0.0213624
0.256311
0.0748494
0.0208499
0.377762
0.0501028
0.0212597
0.280261
0.0203598
0.0317833
0.0222323
0.0210404
0.193218
0.021513
0.0226934
0.0238813
0.0569331
0.0675847
0.0220054
0.020991
0.0224915
1.73681
0.603212
0.0349276
0.0260197
0.0214782
0.0214204
0.13744
0.0218567
0.0278168
0.0545381
0.223799
0.021494
0.0336025
0.0215394
0.0218428
0.0310541
0.0292231
0.0300309
0.0221328
0.0219139
0.0251758
0.338327
0.0439663
0.020428
0.0245625
0.0806622
0.0232673
0.0367567
0.0216546
0.0217721
0.0213494
0.0365483
0.60645
0.0498945
0.0215078
0.232307
0.024093
0.0257593
0.0215296
0.0213513
0.0213678
0.0202479
0.0537529
0.0242947
0.0224028
0.0220958
0.0213693
0.0214809
0.15074
0.0214174
0.021404
0.0218124
0.431517
0.0921449
0.0214643
0.0212346
0.0214965
0.265689
0.0221064
0.108785
0.0214999
0.0501887
0.0214714
0.0217649
0.0412727
0.0217291
0.030435
0.0217481
0.0214592
0.0203738
0.0225914
0.139917
0.0219174
0.0220214
0.257421
0.0216261
0.0224166
0.0220758
0.0216538
0.0213452
0.0220115
0.0498733
0.020777
0.0208373
0.0209597
0.33202
0.0238562
0.311773
0.0215449
0.0217862
0.0640455
0.26225
0.266061
0.0252805
0.0298476
0.237913
0.0215406
0.313857
0.0222778
0.100637
0.0209899
0.164012
0.182166
0.0195833
0.0235244
0.022673
0.022418
0.0200544
0.065314
0.0209092
0.249192
0.0217135
0.0214014
0.0218246
0.020069
0.0218435
0.103301
0.021363
0.021151
0.0211543
0.0216879
0.0213823
0.297757
0.33942
0.0754974
0.0215386
0.0205464
0.0235422
0.0214985
0.021341
0.0937105
0.0372271
0.0227819
0.0213247
0.558314
0.022693
0.589302
0.335953
0.0228028
0.0203346
0.0212895
0.0311751
0.445336
0.021684
0.0212356
0.0439991
0.108736
0.0412103
0.504594
0.021319
0.0240613
0.0238308
0.0199849
0.0217875
0.337825
0.372218
0.980049
0.0212795
0.581792
0.0217737
0.0215403
0.0245174
0.0219589
0.0245158
0.0319442
0.0212531
0.0214953
0.0213597
0.020897
0.0199895
0.0212024
0.024586
0.262464
0.0260155
0.0195715
0.0200098
0.0212767
0.0218714
0.0213527
0.131154
0.0220076
0.0220583
0.021972
0.258323
0.0212605
0.0231628
0.0563143
0.0213112
0.021297
1.02936
0.0213059
0.0213678
0.021232
0.175509
0.0267828
0.0361402
0.021826
0.633727
0.0204318
0.0201825
0.0204404
0.0212732
0.0357054
0.0212783
0.021686
0.0395742
0.0213751
0.346389
0.0247955
0.0280317
0.0217824
0.188178
0.0299246
0.0215119
0.0211434
0.022026
0.0215837
0.0213442
0.338
0.0209801
0.0440598
0.0211873
0.0218596
1.4337
0.0210963
1.32305
0.0716561
0.0213201
0.053625
0.0211698
0.0219076
0.02126
0.0218148
0.0207538
0.0213557
0.0213482
0.0214507
0.101477
0.0215253
0.0209755
0.0218622
0.0208146
0.0212226
0.0212252
0.021427
0.0205446
0.0213117
0.0213082
0.0213787
0.0212752
0.0219583
1.12426
0.0214322
0.021969
0.042846
0.276113
0.020431
0.0266508
0.0209959
0.0217067
0.0213065
0.0216008
0.611408
0.273094
0.0211242
0.0228573
0.22329
0.0216165
0.0229543
0.627024
0.0199964
0.262194
0.0215005
0.0539736
0.023867
0.236444
1.44046
0.416514
0.0210065
0.0211294
0.0202457
0.02433
0.0533193
0.02261
0.0540525
0.146251
0.0213845
0.375481
0.0416034
0.0221305
0.0204177
0.0310239
0.0299605
0.0213325
0.021051
0.0205682
0.0242809
0.0241883
0.0246304
0.0241017
0.024433
0.49738
0.021115
0.0213271
0.0211733
0.205532
0.024463
0.0245392
0.146703
0.18849
0.0743593
0.0210726
0.0243315
0.0212408
0.0321754
0.0213598
0.0221093
0.0416004
0.0247386
0.0477956
0.0199268
0.269163
0.0338683
0.0770346
0.250264
0.580908
0.0211446
0.0213488
0.0213396
0.0546714
0.0214202
0.020894
0.0213441
0.0283428
1.31686
0.236319
0.0242117
0.026142
0.0757335
0.0349711
0.274561
0.0414503
0.0397819
0.0352858
0.129265
0.263334
0.0211242
0.0211372
0.0211699
0.0471753
0.0270503
0.040941
0.0209609
0.0212603
0.0213212
0.177414
0.0211943
0.0212697
0.021084
0.0321894
0.0209661
0.0211766
0.0203491
0.0252817
1.16969
0.0276903
0.0239819
0.0215228
0.309061
0.0272145
0.0202357
0.0213293
0.0325356
0.244425
0.0216152
0.0216906
0.163189
0.0212209
0.021025
0.0209834
0.0216027
0.0412736
0.0210174
0.0215715
0.0211362
0.0217125
0.0212972
0.0211704
0.0210721
0.0212802
0.0214462
0.0380377
0.0212507
0.0207049
0.043976
0.0506413
0.0355542
0.0573744
0.0209999
0.14117
0.0212914
0.0323562
0.021106
0.0529777
0.021177
0.0212407
0.0201636
0.0500281
0.024543
0.0212193
0.491276
0.0212863
0.0201613
0.021302
0.0220516
0.0263769
0.0209775
0.683379
0.0214718
0.0571259
0.0380739
0.0214853
0.0310566
0.0210166
0.0206926
0.0212024
1.30969
0.0272197
0.027266
0.0374096
0.219963
0.0256408
0.0395362
0.0246251
0.0213403
0.0198306
0.172749
0.0442921
0.0209939
0.0339027
0.0209331
0.0210445
0.435303
0.0205515
0.021328
0.0877951
0.039156
0.693192
0.0213963
0.0210584
0.0284189
0.0209576
0.0203449
0.250257
0.0212865
0.0316089
0.794255
1.03073
0.0213381
0.0223373
0.0211435
0.0200526
0.0310768
0.0216079
0.0214084
0.0321714
0.0207245
0.0319857
0.0214534
0.0225209
0.023892
0.538018
0.0243626
0.0218851
0.150583
0.265085
0.0213365
0.0440409
0.0217884
0.0213185
0.0214713
0.0210017
0.0241321
0.0696065
0.0327927
0.0212391
0.0242349
0.0220139
0.01977
0.0210686
0.0214052
0.0249934
0.020824
0.0212238
0.0221703
0.0216082
0.675544
0.0213715
0.0223526
0.0448779
0.0225811
0.020245
0.269001
0.460565
0.661941
1.16931
0.0579719
0.0206118
0.0221814
0.497664
0.175829
0.192334
0.314901
0.281745
0.0214927
0.290977
0.698698
0.0215778
0.036973
0.0219544
0.678604
0.111688
1.31074
0.0220517
0.0210304
0.0438857
0.0213732
0.0215217
0.179549
0.142438
0.0213508
0.0214237
0.0211657
1.32302
0.0211366
0.0210993
0.0212411
0.0210176
0.0210373
0.0227555
0.0218638
0.0209756
0.0215375
0.0292518
0.418267
0.63403
0.0213408
0.0211944
0.0227069
0.0213181
0.0210119
0.0211369
1.45692
0.021299
0.0331298
0.021152
0.0216776
0.0203242
0.0213723
0.521844
0.22956
0.0205694
0.0219849
0.266645
0.642426
0.166593
0.689904
0.0214075
0.02931
0.021133
0.0197564
0.0211507
0.0201805
0.0210906
0.0212572
0.0216687
0.11048
0.019993
0.264559
0.647965
0.0200463
0.05284
0.0379593
0.0219491
0.0211469
0.0212135
0.0214262
0.0210661
0.257
0.0198593
0.0211167
0.481979
0.0211272
0.0213074
0.0209946
0.0484199
0.0213846
0.0213711
0.594849
0.0207106
0.0206401
0.0211348
0.0293987
0.0212633
0.0196391
0.0211216
0.0200343
0.570933
0.252058
0.0210575
0.172956
0.0198079
0.0212913
0.0225244
0.31618
0.10537
0.0200243
0.0239671
0.021329
0.021178
0.0211529
0.0211169
0.229767
0.260291
0.0213696
0.0219091
0.0373489
0.0209715
0.0211004
0.0244282
0.0266275
0.589937
0.0213802
0.0237649
0.151823
0.0211528
0.0240626
0.0549615
1.38968
0.0207827
0.0209622
0.0213514
0.0211852
0.0209875
0.275958
0.0210825
0.204465
0.0425842
0.0218897
0.0240694
0.271006
0.0205674
0.386321
0.344271
0.195452
0.0252959
0.0211981
0.0224934
0.155601
0.0208273
0.0281855
0.0209698
0.0200336
0.02009
0.020152
0.0211573
0.404073
0.0217085
0.459855
0.20974
0.0675395
0.559361
0.0197879
0.0213782
0.0226526
0.0597481
0.0211838
0.0561725
0.030577
0.0200223
0.020942
0.278855
0.0209366
0.0278448
0.279081
0.0210706
0.209447
0.0218682
0.039366
0.0691601
0.0213909
0.0206367
0.0365323
0.0565379
0.0212886
0.0227417
0.0201947
0.0214898
0.0208779
0.335063
0.0210151
0.0202866
0.0422075
0.0201282
0.228919
0.0214101
0.0211841
0.0211834
0.41984
0.0209855
0.0209016
0.241145
0.0532255
0.0423696
0.0214832
0.0201465
0.0321049
0.0673841
0.36686
0.137415
0.0238949
0.0242564
0.02164
0.0212856
0.0245442
0.0218012
0.0211333
0.020392
0.0625687
0.0245163
0.0209331
0.0196261
0.0215858
0.0206197
0.0215046
0.0283801
0.452929
0.0644737
0.026983
0.062945
0.35554
0.0207006
0.0209538
0.0220502
0.0323574
0.0202626
0.0215881
0.0209182
0.021014
0.0211647
0.0460233
0.021361
0.494302
0.0212694
0.0208888
0.351927
0.0343021
0.0215959
0.0209014
0.0208603
0.619258
0.0311592
0.0215416
0.020258
0.022189
0.0209449
0.0212458
0.02103
0.095667
0.0210062
0.0208553
0.0391452
0.0204944
0.0597554
0.0240757
0.0210525
0.0213318
0.108661
0.473282
0.25824
0.0976661
0.0238946
0.0223845
0.0217105
0.0212473
0.0291253
0.0208495
0.0423174
0.698258
0.022748
0.0375903
0.240944
0.0208744
0.415491
0.0264529
1.53436
0.0225244
0.0208001
0.0208209
0.0217847
0.0210982
0.402024
0.264653
0.191181
0.0212531
0.0209256
0.0208629
0.337013
0.0260902
0.353661
0.0208857
0.0213619
0.176055
0.0210487
0.232413
0.432593
0.0208838
0.0214952
0.0197408
0.021263
0.26867
1.52424
0.0208663
0.02108
0.0207362
0.270651
0.0211623
0.0234931
0.125498
0.0283634
1.5523
0.140506
0.585181
0.0212499
0.0263077
0.0215632
0.0211151
0.0227924
0.0770949
0.0204788
0.0211585
0.36056
0.0213621
0.0204514
0.269809
0.0201486
0.0210922
0.366529
0.0375814
0.0200356
0.0202288
0.0398827
0.343578
0.0382622
0.695693
0.0234256
0.613459
0.0209848
0.0300777
0.145663
0.770664
0.102285
0.02442
0.577358
0.11347
0.194622
0.0206507
0.0210214
0.0202801
0.0213103
0.185103
0.020782
0.0443536
0.0204476
0.0221692
0.0214631
0.218403
0.0213212
0.247949
0.0250169
0.0268564
0.0232431
0.0335996
0.0270493
0.0197253
0.0345419
0.0212871
0.0347655
0.0216006
0.0406585
0.0689148
0.0305293
0.394975
0.0208047
0.191495
0.0240049
0.0293472
0.0214058
0.0677427
0.0217724
0.0208947
0.0212126
0.202832
0.021505
0.0303402
0.238577
0.0262865
0.0728828
0.0208416
0.0200232
0.0669636
0.0364029
0.276569
0.61948
0.0208878
0.0426248
0.198828
0.0420722
0.0207264
0.347832
0.272689
0.0207878
0.0236384
0.0198015
0.33526
0.250068
0.294221
0.369587
0.0208102
0.0206988
0.0217345
0.0202004
0.0227436
0.0242029
0.0220398
0.020413
0.589465
0.0226112
0.0213559
0.0245974
0.282738
0.187738
0.0240739
0.0261212
0.0241858
0.744963
0.0208062
0.0684115
0.0213035
0.0328869
0.999006
0.0220291
0.407207
0.0204119
0.0199695
0.0208294
0.0208399
0.0207154
0.0208657
0.0197783
0.552024
0.0240082
0.0210173
0.393682
0.0208885
0.0215036
0.0206824
0.472548
0.0214216
0.0228648
0.296715
0.114056
0.0209086
0.0197894
0.525391
0.0212712
0.425974
1.00433
0.0214954
0.0216935
0.0305964
0.0438111
0.589093
0.0202181
0.0206714
0.0226889
0.0335522
0.0229491
0.48484
0.151384
0.022392
0.0217415
0.0275472
0.0220469
0.0914298
0.618105
0.0205831
0.405926
0.118119
0.0212822
0.0209298
0.020905
0.0208809
0.0206736
0.0210237
0.0207587
0.0227748
0.0655735
0.0234706
0.0217532
0.0230966
0.0242971
0.0206339
0.0207299
0.0999791
0.0228717
0.025098
0.0206059
0.0220293
0.0205751
0.019997
0.152656
0.0213423
0.0210693
0.327675
0.604698
0.0671635
0.0208892
1.19914
0.0215069
0.268262
0.477352
0.022177
0.614718
0.0207113
0.0203107
0.625515
0.0208437
0.0441591
1.17389
0.256679
0.0241169
0.141475
0.0216107
0.0208565
0.0221711
0.0206835
0.120208
0.136099
0.020874
0.206208
0.564909
0.0197347
0.0207109
0.0834973
0.0356142
0.0425418
0.0278351
0.253448
0.447495
0.0212856
0.380457
0.38375
0.0498313
0.608592
0.0355197
0.271476
0.0197716
0.0272106
0.0352681
0.0198434
0.15118
0.0980915
0.0459159
0.0196408
0.085132
0.0204057
0.0206995
1.67391
0.305487
0.0207028
0.0220236
0.19268
0.0198439
0.0229846
0.0208102
0.278202
0.19324
0.0221159
0.0214909
0.255641
0.10575
0.432725
0.0346401
0.0210677
0.290289
0.0210324
0.266583
0.0260162
0.0203478
0.130377
0.021516
0.0376957
0.0213615
1.60939
0.0211345
0.0216843
0.0202475
0.021397
0.0205162
0.0218271
0.148375
0.660381
0.0206235
1.5046
0.364665
0.0203272
0.0205808
0.465177
0.0863667
0.16098
0.400726
0.438798
0.0205887
0.0212588
0.306804
0.025977
0.367413
0.0289119
0.0206467
0.0212757
0.0209996
0.0198152
0.020647
0.0329102
0.0206158
0.286435
0.020906
0.0213566
0.0524888
0.0197764
0.0333502
0.440141
0.0208866
0.0207918
0.0209634
0.0281781
0.0196403
0.0201956
0.0352484
0.343957
0.0310796
0.0216914
0.030121
0.0205515
0.0215437
0.0212507
0.465241
0.0127663
0.281249
0.0136819
0.0312354
0.0332796
0.0751553
0.0210306
0.0251202
0.0196513
0.0196542
0.0261965
0.0208206
0.417095
0.258092
0.024426
0.418128
0.0294655
0.109634
0.0332367
0.0200339
0.225345
0.0231306
0.349504
0.0213298
0.0204659
0.0201354
0.0301357
0.0815839
0.349181
0.226128
0.0209723
0.165978
0.0206103
0.322115
0.0391564
0.0204889
0.0231569
0.021405
0.333405
0.254103
0.0216604
0.0196332
0.236527
0.0241691
0.0409915
0.0214823
0.0214976
0.436553
0.252822
0.0205526
0.0279554
0.020738
0.0238547
0.0217603
0.385762
0.020713
0.0223834
0.0271128
0.0213391
0.0208509
0.280499
0.333857
0.0214755
0.0213913
0.021684
0.0206148
0.0205198
0.343774
0.2238
0.020911
0.0273348
0.0208327
0.0213604
0.0213491
0.0211518
0.41214
0.239388
0.116531
0.351068
0.0207591
0.0277072
0.020842
0.0220557
0.52496
0.0218892
0.103897
0.0207402
0.255371
0.0214967
0.333764
0.282696
0.0202731
0.0208364
0.0462235
0.033693
0.496378
0.226776
0.0278689
0.416172
0.0242262
0.0211903
0.276986
0.0207687
0.272002
0.019948
0.0227869
0.0278457
0.0208438
0.0216971
0.0208786
0.0499568
0.274204
0.0215782
0.150919
0.0240359
0.0394081
0.0204858
0.0238108
0.352556
0.0204508
0.031006
0.20021
0.0202159
0.392246
0.0987955
0.568881
0.0204725
0.387384
0.020998
0.0202674
0.220627
0.0204732
0.465909
0.0199816
0.0208226
0.0205313
0.0238511
0.348381
0.0207518
0.237984
0.0197662
0.0260137
0.0491804
0.0213633
0.241426
0.311083
0.032487
0.0873128
0.0217933
0.0205533
0.0951157
0.0204985
0.0203763
0.0209348
1.8375
0.287733
0.5932
1.39416
0.0201178
0.0210453
0.0209674
0.357152
0.0206855
0.624355
0.139728
0.0212387
0.356247
0.539884
0.120618
0.0203993
0.0202328
0.027949
0.021334
0.0519655
0.390987
0.0203352
0.0233963
0.0207137
0.236101
0.338434
0.0211899
0.0764743
0.0209838
0.0214216
0.0197934
0.0207675
0.0747389
0.347954
0.0204458
0.0105055
0.359004
0.0198866
0.248868
0.0206489
0.0208901
0.0296178
0.0203997
0.12922
0.0198305
0.0786888
0.554097
0.0197709
0.0200971
0.0209951
1.61969
0.0255463
0.160319
0.290576
0.0207118
0.0237191
0.332612
0.0205123
0.527701
0.0737663
0.0206589
0.263683
0.477872
0.35121
0.24755
0.346125
0.0203852
0.274931
0.0577001
0.264099
0.278151
0.0204815
0.0203557
0.0207445
0.0855505
0.0203253
0.0201658
0.34071
0.0535466
0.0213127
0.0203625
0.0208544
0.0202984
0.0203512
0.0428164
0.0208246
0.0522267
0.254184
0.0360564
0.0238453
0.0206395
0.0204105
0.361905
0.232922
0.697678
0.459983
0.0205175
0.0206791
0.0346664
1.38366
0.281749
0.0204256
0.619162
0.396446
0.0199331
0.0342284
0.0436491
0.0201557
0.0209494
0.020987
0.0214987
0.0201014
0.336953
0.075356
0.021053
0.291808
0.0213929
0.0337165
0.0209068
0.0213357
0.0309177
0.0262487
0.0257453
0.0203382
0.0198279
0.0203104
0.0203129
0.233403
0.0650466
0.351724
0.0630795
0.281626
0.0318324
0.0203392
0.087261
0.251462
0.0212686
0.254711
0.0222132
0.0197707
0.206443
0.432795
0.0233647
0.0568371
0.0169143
0.21695
0.0579329
0.0202841
0.0239754
0.0207107
0.295862
0.0207129
0.350962
0.313112
0.047682
0.337908
0.0357334
0.118548
0.312359
0.0209976
0.0203977
0.0210088
0.0208529
0.283894
0.0206431
0.0206674
0.0237976
0.0217582
0.0202165
0.335412
0.236056
0.0495701
0.0202522
0.710349
0.287254
0.243197
0.0213479
0.0204343
0.0231489
0.020185
0.306788
0.0268485
0.0202996
0.0338493
0.0205941
0.391601
0.0491243
0.0206275
0.601793
0.150236
0.0203565
0.27033
0.380395
0.0239161
0.0211459
0.341762
0.259913
0.019647
0.0205127
0.303947
0.0443568
0.0212163
0.232524
0.0210938
0.0204115
0.0205347
0.0203493
0.201005
0.0201976
0.0203835
0.228171
0.115812
0.0205027
0.0209016
0.106925
0.216041
0.0216312
0.165043
0.0203878
0.579095
0.0915665
0.0215682
0.0202303
0.408766
0.203284
0.0231335
0.0201143
0.38688
0.0273135
0.0202321
0.249613
0.0209207
0.153194
0.0204758
0.36919
0.269602
0.338362
0.35263
0.0204212
0.318659
0.0212241
0.0698879
0.275218
0.0201687
0.0239989
0.0200727
0.399626
0.0206954
0.0203514
0.0199783
0.0204584
0.0202716
0.0201222
0.0477689
0.0214645
0.0627682
0.023041
0.0197396
0.0236936
0.359829
0.0205661
0.114622
0.020276
0.0211143
0.19612
0.0232832
0.342105
0.0238657
0.0331784
0.0200837
0.0201495
0.0225139
0.0215167
0.0202492
0.0244293