/*--------------------------------*- C++ -*----------------------------------*\
| =========                 |                                                 |
| \\      /  F ield         | OpenFOAM: The Open Source CFD Toolbox           |
|  \\    /   O peration     | Version:  v2012                                 |
|   \\  /    A nd           | Website:  www.openfoam.com                      |
|    \\/     M anipulation  |                                                 |
\*---------------------------------------------------------------------------*/
FoamFile
{
    version     2.0;
    format      ascii;
    class       volScalarField;
    location    "450";
    object      omega;
}
// * * * * * * * * * * * * * * * * * * * * * * * * * * * * * * * * * * * * * //

dimensions      [0 0 -1 0 0 0 0];


internalField   nonuniform List<scalar> 
9793
(
0.0670961
0.229365
0.0606983
0.0210232
1.67658
0.0231577
0.0220542
0.0207971
0.0215986
1.70857
0.049846
0.0649967
0.0210765
0.0204639
0.023155
0.0203759
0.0218817
0.0235003
1.32347
0.0204393
0.148857
0.0230298
0.354092
0.0196408
0.0220842
0.0211883
0.0207336
0.0210982
0.0386548
0.0215877
0.0331409
0.311929
0.406334
0.0221073
0.0428726
0.912799
0.0226971
0.0230121
0.0208908
0.0211393
0.0327139
0.0231762
0.0223102
0.0221819
0.022326
0.0214038
0.0415037
0.122968
0.0559641
0.0209931
0.043989
0.0536305
0.023376
0.0216289
0.114259
0.390088
0.0214446
0.0833473
0.649855
0.0208786
0.0218507
0.0232556
0.292242
0.0219662
1.78911
0.32852
0.388168
0.239319
0.0608045
0.0489804
0.117116
0.0209244
0.0211673
0.258194
0.0486221
0.675334
0.0214386
0.0210799
0.0224121
0.0213504
0.271375
0.0223427
0.23712
0.038653
0.0300641
0.0208915
0.0216254
0.0214343
0.0227006
0.0227069
0.229122
1.27132
0.0205161
0.253268
0.0229419
0.03853
0.361022
0.233964
0.0204653
0.0203181
0.0202981
0.0222182
0.020448
0.0204295
0.0210672
0.0297135
0.0225335
0.0219205
0.0229971
0.273259
0.0211071
0.0810491
0.021424
1.22952
0.0531874
0.021448
0.432577
0.0469245
0.022837
0.200237
0.267147
0.0226246
0.0213448
0.0234817
0.0219202
0.111151
0.0362846
0.0276058
0.0229186
0.0211775
0.0215123
0.021444
0.0211805
0.0223097
0.0215615
0.021432
0.0223376
0.0219909
0.0214155
0.0199938
0.0213335
0.0219279
0.021246
0.0203263
0.0205365
0.021415
0.252925
0.0203345
0.0204404
0.777351
1.67758
0.0214935
1.6392
1.7017
0.0204098
0.0220817
0.020756
0.0218068
0.020312
0.0211897
0.0208035
0.0211051
0.0202228
1.34695
0.251486
0.276976
0.0704032
0.0251984
0.0205728
0.0215071
0.0212794
0.608799
0.244781
0.610878
0.0218616
1.36524
0.0214408
0.0196158
0.0212055
0.0263669
0.809419
0.0222773
0.020328
0.0219534
0.745841
0.0211503
0.0920795
0.0211996
0.0213206
0.0202333
0.0218693
0.0213354
0.0338947
0.0940535
0.172795
0.0261157
1.17491
0.0214088
1.64899
0.0200728
0.0215525
1.40483
0.63517
0.0211816
0.0214412
0.0208732
0.48508
0.0202625
0.0275755
0.0224034
0.0290831
0.0361701
0.0592393
0.0216567
1.51457
0.0206479
0.021646
0.752836
0.0209089
0.0836049
0.0576203
0.0213798
0.0219283
0.0213377
0.0414167
1.38916
0.0231663
0.0203943
0.0586815
0.0421851
0.0196733
0.0196337
0.022349
0.0202336
0.0405421
0.0763908
0.0213966
0.0211685
0.19479
0.0219636
0.0272999
0.0204684
0.0211042
0.379125
0.0211184
0.0204357
0.0207855
0.0217812
0.0204711
0.0219357
0.0217705
0.023693
0.049723
0.0384131
0.0210448
0.0236673
0.0212544
0.0239555
0.0233381
0.0202443
0.3308
0.021141
0.0494003
0.0217523
0.0255906
0.0200161
0.0198804
0.0290187
1.38335
0.0222856
0.0202725
0.020042
0.0258645
0.0214
0.229244
0.228821
0.0211863
0.14297
0.0213796
0.0384984
0.0216887
0.0197136
0.022369
0.0210064
0.0362335
0.0213757
0.0217687
0.0247505
0.0211363
0.0214325
0.0214044
0.427559
0.0225079
0.0228235
0.0215674
0.0222867
0.02207
0.0252208
0.0212514
0.937888
0.0204163
0.0752101
0.46941
0.0223452
0.022165
0.0203031
0.0265591
0.0240005
0.021587
0.0646559
0.0217914
0.0202872
0.024152
0.0219226
0.0215688
0.0222916
0.0355853
0.0211105
0.0250998
0.0224576
0.0210105
0.252847
1.55297
0.257809
0.0204639
0.464835
0.0221781
0.597981
0.0531879
0.0201039
0.0230499
0.0527352
0.0219059
0.0258261
0.0574844
0.02076
0.0221729
0.0215321
0.021222
0.0212208
0.18861
0.0212026
0.0209964
0.939967
0.0219809
0.0203381
0.0204011
0.0223831
0.0207741
0.701991
0.0219883
0.0213932
0.0217381
0.0222014
0.542111
0.0216023
0.0322877
0.0196332
0.0332907
0.126247
0.0923163
0.0352398
0.0223291
0.0231659
1.563
0.0218875
0.327024
0.0220165
0.0202899
0.471718
0.025563
1.53884
0.0213971
0.0430103
1.09889
0.0233318
0.0211231
0.422739
0.0249959
0.253038
0.0236907
0.0215733
0.782855
0.0212817
0.0223029
0.0219427
0.0214201
0.0207514
0.0216026
0.023298
0.551512
0.0217622
1.95256
0.138429
1.56725
0.0424535
0.253919
0.0210625
0.0215312
1.42426
0.102924
0.0205187
0.0218538
1.15155
0.0200339
1.32556
0.0211961
0.0233208
0.0200161
0.0302512
0.0211959
0.0254779
0.193638
0.0202902
0.379442
0.0278211
0.022075
0.0275335
0.0217784
0.0223317
0.0211242
1.35291
0.021353
0.0215918
0.0568756
0.0215536
0.0233048
0.0221785
0.0201933
0.0270829
0.0212036
0.0216036
0.0199643
0.357981
0.020976
0.353372
0.0215183
0.347833
0.0232605
0.0217082
0.0225839
0.0217629
0.704064
0.021395
0.108066
0.0202702
0.0212997
0.0222913
1.18441
0.034964
0.122985
0.0257607
0.0234184
0.021269
0.0370481
0.0268651
0.0293193
0.232683
0.207864
0.0216772
0.024262
0.0431044
0.021352
0.0226691
0.0213306
0.0204395
0.0222349
1.03147
0.0254937
0.764243
0.020463
0.0269101
0.0195933
0.0219328
0.0216536
0.022376
0.0373665
0.0216382
0.0231533
0.0200197
0.0214361
0.023774
0.248718
0.0212604
0.0212666
0.459097
0.0245273
0.0219943
0.385021
0.1961
0.0216928
0.0221548
0.022422
0.0238117
0.0216212
0.0225861
0.0222019
0.02153
0.0212869
0.021064
0.252456
0.0544222
0.0207641
0.722037
0.0309593
0.0203861
0.0225183
0.0224353
0.0686525
0.0216702
0.140528
0.0201275
0.0211216
0.0462631
0.0213095
0.0310895
0.476564
0.0257579
0.0203764
1.80712
0.0243023
0.0205885
0.0212728
0.0501743
0.0209304
0.0205683
0.0212734
0.020924
0.385715
0.0406054
0.0302191
0.022795
0.0212246
0.0210533
0.0215106
0.0210037
0.0212905
0.0547455
0.0993882
0.0200606
0.0236921
1.53388
0.0214183
0.0519874
0.0331059
0.0208829
0.0526884
0.779386
0.0213938
0.12547
0.0197381
0.882393
0.0245352
0.66663
0.0211399
0.0210821
0.0219054
0.232666
0.0232611
0.498873
0.265458
1.90567
0.0319843
0.118415
0.0292251
0.023186
0.0288061
0.0234067
0.310438
0.0215966
0.578672
0.0199482
0.256476
0.0221924
0.0219834
0.0210326
0.136356
0.0199862
0.0208821
0.0222966
0.0226486
0.0259771
0.0211816
0.021273
0.0213855
0.0213577
1.36222
0.0209897
0.207801
1.31971
0.0210018
0.0220091
0.0275323
0.0218529
0.021324
0.0218353
0.0234143
0.0245342
0.0222277
0.0226549
0.0205152
0.0228068
0.0221664
0.0240348
0.0218706
0.0225006
0.216858
0.0213763
1.45596
0.0246328
0.0221813
0.0212837
0.0207476
0.0235153
0.0240721
0.0211005
0.0213166
0.0195642
0.021081
0.0212883
0.0211798
0.0234765
0.0198794
0.0219833
0.0222836
0.0215763
0.0233354
0.0222851
0.0298619
0.0225553
0.0210352
0.0212935
0.0205622
0.020098
0.0210889
0.0201612
0.0209773
0.0213831
0.0199785
0.0315108
0.0211642
0.0224315
0.0213606
0.556864
0.0210474
0.0200078
0.0489786
0.0197106
0.0218064
0.146032
0.0221174
0.0226575
0.0215553
0.0836237
0.0207577
0.0460436
1.87798
0.480531
0.183525
0.0217199
0.0213697
0.22587
0.0234978
0.0199812
0.255062
0.515572
1.45585
0.021304
0.0539996
0.0213724
0.0213535
1.21198
0.021194
0.572265
0.0227808
0.0540462
0.0210185
0.0232277
0.0221085
0.136467
0.121588
0.0212412
0.0224288
0.0261555
0.0209694
0.0236141
0.0461616
0.242065
0.0211107
0.103709
0.0234647
0.41794
0.0678566
0.444918
0.242802
0.0215175
0.0281965
0.105887
0.0210485
0.0211672
0.0223553
0.0223803
0.0199647
0.685361
0.0199546
0.213651
0.0229233
0.0355448
0.0488059
0.0215285
0.111629
0.572319
0.0218704
0.746227
0.027633
0.0667573
0.0199733
0.0196997
0.334424
0.0214414
0.122451
0.0209908
0.236873
0.0205205
0.187797
0.329669
0.0214912
2.16099
0.0214313
0.0223745
0.0329088
1.29426
1.26806
0.0201454
0.020544
0.0200269
0.478734
1.0085
0.0229228
0.0249351
0.0789596
0.0200002
0.0210073
0.0224403
0.563476
0.025744
0.0215433
0.0210411
0.020838
0.1432
1.32812
0.221513
0.0205719
0.0209389
0.598864
0.0211797
0.714516
0.0381917
0.227862
0.277872
0.239148
0.0208782
0.0215342
0.0231674
0.0221491
0.0242525
0.0212235
0.0536297
0.22896
0.0204538
0.585987
0.0208279
0.607002
0.0216716
0.274008
0.0245139
0.0246993
0.0211344
0.0217656
0.0820653
0.316935
0.129321
0.0214908
0.0307496
0.0214339
0.0226228
0.0234775
0.387938
0.0245707
0.0668417
0.0208667
0.0265825
0.0212138
0.0199058
0.0220949
0.0209681
1.74457
0.0211552
0.0226965
0.0226254
0.0219284
0.019957
0.0472993
0.0217832
0.0220942
0.0208942
0.0210192
0.227072
0.0210591
0.0790685
0.0204701
0.110242
0.0210258
0.544469
0.0212118
0.0663916
0.0216662
0.0214871
0.0208949
0.277666
0.220372
0.605303
0.1583
0.645246
0.0214292
0.0230404
0.233307
0.0200342
0.315275
0.320942
0.0476425
0.0887401
0.0225863
0.243884
0.0243369
0.342963
0.230978
0.0225289
0.0216277
0.230803
0.872568
0.0242545
0.0234889
0.0212084
0.0225944
0.0322758
0.0210717
0.0200901
0.0222057
0.197634
0.0328383
0.0232498
0.457467
0.0209141
0.0201675
0.260851
1.39731
0.033288
0.0220793
0.178122
0.0205739
0.0200244
0.44475
0.0199707
0.0224497
0.250935
0.261947
0.0217797
0.59912
0.130901
0.0586984
0.273341
0.340172
0.0225366
0.0489041
0.0217829
0.0208554
0.0213727
0.0218328
0.0218178
1.09936
0.0223583
0.455304
0.0211755
0.036057
0.0219244
0.0331374
0.0246487
0.0217701
0.0382184
0.0211427
0.0200816
0.0661389
0.0226813
0.0277238
0.0218085
0.0200891
0.244897
1.35323
0.0238235
0.0195886
0.0195644
0.0210383
0.0227896
1.45042
0.0660329
0.269764
0.0303518
0.327691
0.0217004
0.0276987
0.025639
0.0234155
0.0865222
0.0211488
0.0210316
0.390832
0.0321431
0.650044
0.0210907
0.467694
0.28968
0.0243601
0.0367617
0.0232552
1.47276
0.0215637
0.0243672
0.23829
0.0242589
0.0211054
0.155413
0.0217375
0.0205308
0.0210106
0.157139
0.0218225
0.025135
0.371205
0.0354003
0.0247477
0.0306752
0.0510666
0.190951
0.0471079
0.0200879
0.0215412
0.0220745
0.0245998
0.0213974
0.644646
0.242423
0.0232778
0.611904
0.172523
0.282029
0.0215692
0.241891
0.0212627
0.269246
0.0627438
0.0206814
1.28716
0.213988
0.0208663
0.0214937
0.0214499
0.208438
0.608196
0.0256361
0.0407015
0.108912
0.206545
0.516114
0.254674
0.0217915
0.0213974
0.906443
0.483374
0.0211152
0.0213882
0.0201705
0.0218368
0.021628
0.0242872
1.38404
0.0213312
0.0243912
0.41266
0.0217098
0.0217894
0.0241582
0.63476
0.0215509
0.0247192
0.0452261
0.0218671
0.0200771
0.0219304
0.0209263
0.0224936
0.33692
0.188376
0.0218528
0.0253159
0.0255533
0.209734
0.021359
0.0234714
0.0223278
0.0218229
0.244559
0.0223425
0.0223432
0.0256296
0.0224067
0.0217627
0.0248638
0.0212326
0.0819987
0.0215172
0.0210596
0.609083
0.0211192
0.268928
0.0268394
0.0209894
0.582632
0.0241015
0.0298798
0.163011
0.0202625
0.505755
0.0209959
0.0213862
1.07562
0.575204
0.0202817
0.0215045
0.0207433
0.0216833
0.070246
0.0222527
0.0217193
0.0221739
0.0224356
0.0220226
0.0213479
0.0203288
0.0209734
0.0211938
0.0798423
0.0239589
0.0200488
0.0368187
0.0224364
0.512188
0.168378
0.031058
0.0214873
0.0212523
0.0627874
0.0233228
0.0214604
0.0217664
0.310441
0.112107
0.0213692
0.0198442
0.0581972
0.0449178
0.019688
0.331179
0.0348098
0.0215338
0.0218855
0.0403942
0.0216276
0.0281394
0.266188
0.0221341
0.0544835
0.0555283
0.0217902
0.0198499
0.0213621
0.0198591
0.0198433
0.1135
0.0211166
0.0471072
0.0412414
0.0198482
0.0219347
0.0303571
0.0217213
0.0216838
0.0213898
0.0226814
0.362269
0.0198556
0.021514
0.327609
0.0226978
0.02163
0.0251611
0.0211349
0.0216551
0.0212088
0.0215065
0.0232487
0.0218246
0.0807133
0.0526168
0.0198631
0.0214296
0.0198576
0.0750147
0.0210292
0.0241762
0.0213135
0.0202379
0.0258983
0.020438
0.0279623
0.0214123
0.0204535
0.251956
0.37096
0.0217756
0.021632
0.0209721
0.306795
0.062341
0.0213919
0.386642
0.260818
0.0220805
0.0983307
0.3184
0.0235233
0.315172
0.0405617
0.540961
0.0212148
0.0301804
0.0813201
0.020399
0.24966
0.856317
0.0213898
1.65622
2.74033
0.0240312
0.301398
0.019868
0.0257842
0.0405829
0.0212513
0.23621
0.0198895
0.0373682
0.0547505
0.0198574
0.0512496
0.0219195
0.0219744
0.030469
0.0234797
0.225978
1.33806
0.0201167
0.0236904
0.454327
0.0207463
0.0242244
0.0208326
0.331154
0.305051
0.0214793
0.0217316
0.0244729
0.348409
0.602548
0.0274468
0.0198709
0.0209125
0.814035
0.535969
0.321788
0.0228193
0.022972
0.0250244
0.0200687
0.0224379
0.0245255
0.0231774
0.020923
0.0244068
0.327611
0.207718
0.0209857
0.153238
0.023969
0.14132
1.34585
0.0384752
0.2023
0.129612
0.0198816
0.101912
0.109023
0.0868787
0.253579
0.0213083
0.109546
0.222645
0.0383893
0.0245468
0.256749
0.258986
0.0211025
0.0246423
0.0239988
0.0212312
0.0623737
0.0212962
0.0221146
0.0206697
0.0199112
0.021857
0.0213747
0.0226976
0.0248457
0.237211
0.024485
0.219622
0.0208447
0.025623
0.0215785
0.207904
0.552087
0.0212049
0.040525
0.0221133
0.0202456
0.0213001
0.0202168
0.0211026
0.0801727
0.0216275
0.0501525
0.0216499
0.0209603
0.330953
0.0225173
0.0218402
0.0211433
0.0213218
0.292274
0.0621067
0.470381
0.166353
0.631266
0.0215401
0.0217713
0.0218309
0.0237536
0.0404658
0.0715695
1.27233
0.0209947
0.0382547
0.0221485
0.0438207
0.682459
0.0242398
1.42834
1.50772
0.0227594
0.0363903
0.0209353
0.0413654
0.0233927
0.0779362
0.0396749
0.0199008
2.70252
0.160001
0.0216818
0.0227528
0.0219118
0.16405
0.0218631
0.0217467
0.303263
0.0208271
1.29144
0.0268556
0.0239625
0.0221319
0.0218229
0.0443073
0.0211656
0.182311
0.0240011
0.021322
0.0207564
0.0443987
0.022611
1.2684
0.0229637
0.0245307
0.0243375
0.0597966
0.0229139
0.0213613
0.259112
0.0217118
0.0204325
0.15158
0.262705
0.0244619
0.0205557
0.0226744
0.890878
0.051717
0.0211668
0.0187536
0.0210427
0.0821069
0.0837714
0.0219563
0.02114
0.0770368
0.0209782
0.0207638
0.0213772
0.0720052
2.18069
0.0307741
0.0242858
0.0218074
0.0220564
0.291622
0.030854
0.0217583
0.0217418
0.0210637
0.0696357
1.49499
1.38596
0.0212423
0.117827
0.0202473
0.0201964
0.0231373
0.0220048
0.037003
0.0213581
0.0920721
0.166385
2.46555
0.0237631
0.0215226
0.0215588
0.0352766
0.020653
0.0213479
0.0319324
0.0215196
0.0212835
0.0222526
0.024326
0.0200252
1.0803
0.0388737
0.0241021
0.0232899
0.0489406
0.0230882
1.65759
0.0213764
0.0212698
0.0215068
0.0210776
0.0214854
0.0209232
0.109259
0.0784987
0.0216027
0.0221212
0.021316
0.0240422
0.0229787
0.0537091
0.0220936
0.296305
0.021312
0.021884
0.0214683
0.0685495
0.0215089
0.375963
0.0215038
0.0215461
0.0195703
0.502693
0.0230334
0.122068
0.686994
0.0219927
0.0215002
0.0211539
0.0214146
0.0284833
0.0220522
0.0243617
0.586667
0.021604
0.0467431
0.085196
0.0232704
0.0879547
0.0215765
0.0233035
0.0210055
0.0203847
0.02026
0.0213624
0.256351
0.0748972
0.0208498
0.374526
0.0501393
0.0212597
0.283089
0.0203597
0.0317755
0.0222321
0.0210404
0.18965
0.0215127
0.0226934
0.0238772
0.0569758
0.0676457
0.0220043
0.0209911
0.0224889
1.73939
0.602583
0.0349555
0.0260286
0.021478
0.0214203
0.139384
0.021856
0.0278258
0.0545989
0.228496
0.0214937
0.0336277
0.0215391
0.0218419
0.0310448
0.0292376
0.0300245
0.0221329
0.0219136
0.0251806
0.336219
0.0439903
0.020428
0.0245677
0.0807427
0.0232674
0.036775
0.0216543
0.0217715
0.0213494
0.0365603
0.605247
0.0499845
0.0215075
0.226814
0.0240927
0.0257648
0.0215295
0.0213512
0.0213678
0.0202466
0.0537805
0.0242975
0.0224019
0.0220954
0.0213691
0.0214808
0.150803
0.0214174
0.021404
0.0218118
0.428465
0.0930883
0.0214642
0.021235
0.0214965
0.265497
0.0221048
0.109713
0.0214997
0.0502117
0.0214713
0.0217643
0.0412887
0.0217286
0.0304521
0.0217478
0.0214592
0.0203737
0.0225887
0.140007
0.0219164
0.0220212
0.257055
0.0216256
0.0224142
0.0220757
0.0216532
0.0213456
0.0220104
0.0498621
0.0207769
0.0208373
0.0209597
0.331377
0.0238562
0.314956
0.0215446
0.0217854
0.0594381
0.262746
0.2656
0.0252876
0.029838
0.237126
0.0215402
0.312641
0.0222771
0.100727
0.02099
0.164687
0.185827
0.0195832
0.0235211
0.0226537
0.0224156
0.0200537
0.0606045
0.0209092
0.24856
0.0217132
0.0214014
0.0218239
0.0200686
0.0218426
0.103331
0.0213629
0.021151
0.0211542
0.0216873
0.0213823
0.302729
0.341369
0.0711083
0.0215382
0.0205448
0.0235445
0.0214985
0.0213409
0.0938054
0.0372578
0.0227815
0.0213247
0.56072
0.0226914
0.588562
0.333594
0.0227996
0.0203346
0.0212895
0.0311864
0.442873
0.0216844
0.0212355
0.0440346
0.108827
0.0412472
0.508324
0.0213189
0.0240611
0.0238306
0.0199846
0.0217871
0.337369
0.374686
0.99644
0.0212795
0.580423
0.0217731
0.0215399
0.0245168
0.0219587
0.0245153
0.0319516
0.0212531
0.0214952
0.0213596
0.020897
0.0199894
0.0212027
0.0245849
0.26226
0.026043
0.0195715
0.0200097
0.0212767
0.021871
0.0213526
0.131639
0.0220076
0.0220584
0.0219717
0.257774
0.0212605
0.0231601
0.0563833
0.0213112
0.0212969
1.03337
0.0213063
0.0213678
0.021232
0.17511
0.0268243
0.0361529
0.0218253
0.648063
0.0204308
0.0201827
0.0204404
0.0212732
0.0357079
0.0212783
0.0216859
0.0396063
0.021375
0.345738
0.0247996
0.0280389
0.0217822
0.191737
0.0299427
0.0215116
0.0211434
0.0220259
0.0215836
0.0213441
0.337324
0.0209802
0.0440834
0.0211873
0.0218602
1.41176
0.0210963
1.32021
0.0717244
0.02132
0.0536743
0.0211698
0.0219077
0.02126
0.0218142
0.0207537
0.0213556
0.0213481
0.0214506
0.101543
0.0215251
0.0209756
0.021862
0.0208145
0.0212226
0.0212252
0.021427
0.0205447
0.0213117
0.0213082
0.0213787
0.0212752
0.0219572
1.11853
0.0214312
0.0219689
0.042823
0.275903
0.020434
0.0266217
0.020996
0.0217098
0.0213065
0.0216009
0.6166
0.272874
0.0211242
0.0228541
0.22328
0.021616
0.0234281
0.62272
0.0199962
0.268827
0.0215004
0.0540133
0.0238627
0.236316
1.43894
0.422818
0.0210066
0.0211294
0.0202455
0.0243249
0.0532185
0.0226072
0.054084
0.149767
0.0213844
0.373963
0.0415711
0.0221447
0.0204177
0.0310142
0.0299536
0.0213324
0.0210511
0.0205668
0.0242807
0.0241882
0.0246298
0.0241015
0.0244325
0.49536
0.0211152
0.0213272
0.0211733
0.20562
0.0244624
0.0245387
0.146592
0.182092
0.0732801
0.0210727
0.0243311
0.0212408
0.0321981
0.0213598
0.0221079
0.0416216
0.0247369
0.0478754
0.019927
0.26874
0.0338705
0.0771044
0.249878
0.578861
0.0211446
0.0213488
0.0213395
0.0546382
0.0214202
0.020894
0.0213441
0.0283335
1.31473
0.236192
0.0242114
0.0261562
0.0726703
0.0349852
0.274215
0.0414422
0.0397297
0.0353138
0.123153
0.26307
0.0211241
0.0211372
0.0211699
0.0471294
0.0270604
0.0408823
0.0209608
0.0212603
0.0213215
0.177589
0.0211943
0.02127
0.0210841
0.0321958
0.0209661
0.0211766
0.020349
0.0252765
1.1723
0.0276809
0.0239818
0.0215227
0.284765
0.0272237
0.0202345
0.0213293
0.0329351
0.24403
0.0216147
0.02169
0.162884
0.0212212
0.021025
0.0209834
0.021603
0.0410433
0.0210174
0.0215711
0.0211362
0.0217118
0.0212972
0.0211704
0.0210721
0.0212802
0.0214463
0.0381506
0.0212506
0.0207049
0.0438644
0.0506537
0.0354297
0.0574335
0.0209999
0.14386
0.0212914
0.0323618
0.0211061
0.0530111
0.0211772
0.0212407
0.0201637
0.0500306
0.0245425
0.0212192
0.496223
0.0212864
0.0201614
0.0213022
0.0220517
0.0263825
0.0209775
0.681175
0.0214717
0.0574121
0.0380817
0.0214855
0.031077
0.0210166
0.0206929
0.0212023
1.30958
0.0271972
0.027212
0.0374194
0.217672
0.0256489
0.0395519
0.0246245
0.0213402
0.0198306
0.172492
0.0449747
0.0209939
0.0339039
0.0209328
0.0210446
0.436274
0.0205517
0.021328
0.0893565
0.0391181
0.692396
0.0213964
0.0210585
0.0283733
0.0209576
0.0203447
0.25377
0.0212867
0.0316129
0.802952
1.02553
0.0213381
0.0223352
0.0211435
0.0200526
0.0311286
0.0216077
0.0214085
0.0321641
0.0207244
0.0315955
0.0214534
0.0225184
0.0238919
0.541476
0.0243623
0.0218846
0.150718
0.264621
0.0213367
0.0443564
0.0217879
0.0213184
0.0214716
0.0210017
0.0241319
0.069893
0.0334061
0.0212394
0.0242346
0.0220135
0.01977
0.0210688
0.0214055
0.0249874
0.020824
0.0212242
0.0221699
0.0216084
0.672835
0.0213715
0.0223524
0.0449205
0.0225811
0.020245
0.268805
0.458545
0.658321
1.16464
0.0580271
0.0206121
0.0221796
0.494946
0.178618
0.191189
0.314646
0.281539
0.0214926
0.291187
0.697588
0.0215774
0.0374477
0.0219533
0.678562
0.108085
1.31075
0.0220502
0.0210305
0.0438494
0.0213734
0.0215222
0.180906
0.145922
0.0213507
0.0214237
0.021166
1.32137
0.0211369
0.0210995
0.021241
0.0210176
0.0210374
0.0232873
0.0218636
0.0209756
0.0215378
0.0292432
0.415859
0.635897
0.0213407
0.0211947
0.0227038
0.021318
0.021012
0.0211368
1.45827
0.0212991
0.0331449
0.021152
0.0216781
0.0203241
0.0213722
0.51552
0.22408
0.0205696
0.0219855
0.266489
0.638488
0.165427
0.68991
0.0214076
0.0293014
0.021133
0.0197565
0.021151
0.0201806
0.0210907
0.0212572
0.0216681
0.110585
0.0199927
0.261423
0.649678
0.0200468
0.052784
0.0379541
0.0219479
0.0211469
0.0212135
0.0214252
0.0210662
0.25648
0.0198593
0.0211169
0.480295
0.0211272
0.0213073
0.0209946
0.0483549
0.0213845
0.0213711
0.596596
0.0207105
0.0206402
0.021135
0.0293362
0.0212632
0.019639
0.0211217
0.0200341
0.569929
0.253274
0.0210576
0.173836
0.0198079
0.0212913
0.022523
0.316131
0.105378
0.0200243
0.0239675
0.021329
0.021178
0.0211532
0.021117
0.22921
0.259875
0.0213696
0.021908
0.0374423
0.0209715
0.0211006
0.0244277
0.0266189
0.591196
0.0213801
0.0237599
0.155356
0.0211528
0.0240624
0.054995
1.39064
0.0207826
0.0209622
0.0213529
0.0211855
0.0209875
0.275672
0.0210827
0.209275
0.0392372
0.0218897
0.0240691
0.270804
0.0205758
0.384522
0.343893
0.194926
0.0252905
0.0211981
0.0224933
0.15339
0.0208273
0.0281235
0.0209698
0.0200335
0.0200901
0.0201521
0.0211573
0.400979
0.021708
0.46002
0.207904
0.0676018
0.554127
0.0197879
0.0213782
0.0226537
0.0554643
0.0211838
0.056048
0.030579
0.0200223
0.020942
0.278658
0.0209366
0.0278522
0.278883
0.0210706
0.208221
0.0218671
0.0393628
0.0693025
0.0213909
0.0206367
0.0365348
0.0565169
0.021289
0.0227404
0.0201947
0.0214861
0.0208779
0.334326
0.0210152
0.0202891
0.0421272
0.0201283
0.227929
0.0214101
0.021184
0.0211838
0.415712
0.0209856
0.0209016
0.246772
0.0532967
0.0422159
0.0214833
0.0201466
0.0321115
0.0670998
0.366671
0.137462
0.0238947
0.0242562
0.0216395
0.0212856
0.0245436
0.0218003
0.0211336
0.0203919
0.0625173
0.0245158
0.0209331
0.0196261
0.0215854
0.0206198
0.0215035
0.0283189
0.451587
0.0645132
0.0269882
0.0644826
0.35771
0.0207007
0.0209538
0.0220488
0.0323642
0.0202626
0.0215884
0.0209182
0.0210141
0.0211647
0.046061
0.0213611
0.495394
0.0212694
0.0208886
0.351973
0.0342967
0.0215957
0.0209012
0.0208602
0.619145
0.0319407
0.0215413
0.020258
0.0221975
0.0209449
0.0212457
0.0210301
0.0956998
0.0210062
0.0208552
0.0389996
0.0204945
0.0597747
0.0240755
0.0210526
0.0213317
0.105918
0.473237
0.258429
0.0981034
0.0238944
0.0223845
0.0217104
0.0212472
0.0291434
0.0208493
0.0378236
0.70252
0.0227452
0.0375937
0.240542
0.0208742
0.415199
0.0264567
1.49642
0.0225373
0.0208
0.0208208
0.021784
0.0210982
0.401281
0.267261
0.191731
0.0212534
0.0209255
0.0208629
0.335924
0.0260864
0.353773
0.0208857
0.0213613
0.176818
0.0210488
0.231755
0.432684
0.0208837
0.0214952
0.0197408
0.0212635
0.268392
1.52281
0.0208662
0.0210801
0.0207363
0.270399
0.0211622
0.0234957
0.125578
0.0286005
1.5526
0.137349
0.584568
0.0212499
0.0263132
0.0215631
0.0211154
0.0227936
0.0775535
0.0204789
0.0211588
0.361191
0.0213624
0.0204511
0.269327
0.0201481
0.0210924
0.368441
0.0376204
0.0200355
0.0202288
0.0398782
0.343273
0.0382712
0.69327
0.0234267
0.613488
0.0209849
0.029642
0.143985
0.781741
0.104276
0.0243902
0.578218
0.114135
0.19456
0.0206508
0.0210214
0.0202803
0.0213103
0.186185
0.0207819
0.0443701
0.0204481
0.0221678
0.0214635
0.218038
0.0213212
0.247997
0.025012
0.0268618
0.0233429
0.0331742
0.0274448
0.0197254
0.0345371
0.0212871
0.0350273
0.0216011
0.0406729
0.0699669
0.0306204
0.392535
0.0208046
0.187261
0.0240047
0.0294196
0.0214057
0.0678489
0.021773
0.0208947
0.0212126
0.203924
0.0215046
0.0303506
0.242303
0.0262898
0.0735965
0.0208416
0.0200231
0.0680441
0.0364087
0.276157
0.618496
0.0208876
0.0434105
0.198903
0.0420845
0.0207263
0.350786
0.272442
0.0207877
0.0236131
0.0198015
0.33428
0.251809
0.294337
0.371338
0.0208101
0.0206988
0.0217339
0.0202004
0.0227465
0.0242027
0.0220393
0.0204129
0.593159
0.0226097
0.0213552
0.0245998
0.282438
0.18853
0.024062
0.0261301
0.0241694
0.745199
0.0208061
0.0665013
0.0213035
0.0329059
0.998227
0.0220278
0.404603
0.020412
0.0199697
0.0208292
0.0208399
0.0207154
0.0208655
0.0197783
0.551474
0.024008
0.0210173
0.39978
0.0208884
0.0215027
0.0206824
0.477354
0.0214222
0.0228615
0.299717
0.115976
0.0209086
0.0197894
0.528486
0.0212714
0.426103
1.01597
0.0214945
0.0216931
0.0305989
0.0441342
0.588695
0.0202184
0.0206714
0.0226889
0.0334374
0.0229505
0.487852
0.153971
0.0223951
0.0217414
0.027541
0.0220456
0.0926632
0.618008
0.0205833
0.407514
0.119697
0.0212822
0.0209298
0.0209048
0.0208807
0.0206736
0.0210237
0.0207587
0.0227742
0.0665206
0.0234698
0.0217546
0.0230985
0.0243013
0.0206341
0.0207298
0.100223
0.022872
0.0251024
0.020606
0.0220281
0.0205752
0.019997
0.156095
0.0213422
0.0210693
0.333081
0.603444
0.0682125
0.0208892
1.20958
0.0215066
0.276782
0.483071
0.0221785
0.613598
0.0207112
0.0203107
0.62197
0.0208437
0.0441742
1.16802
0.261566
0.0241166
0.137142
0.0216096
0.0208563
0.0221711
0.0206835
0.122776
0.138839
0.020874
0.210674
0.564614
0.0197348
0.0207109
0.0848922
0.0357164
0.0426475
0.0278448
0.253195
0.447253
0.0212857
0.37778
0.382139
0.0503301
0.607571
0.0353033
0.276749
0.0197717
0.0282065
0.0352939
0.0198434
0.152614
0.100085
0.0458728
0.0196408
0.0866988
0.0204057
0.0206994
1.67194
0.30526
0.0207027
0.0220248
0.192476
0.0198436
0.0229249
0.0208101
0.277308
0.189934
0.0221153
0.0214906
0.255743
0.105401
0.430477
0.0344475
0.0210682
0.290363
0.0210324
0.267936
0.026016
0.0203475
0.13339
0.0215156
0.0378575
0.0213615
1.60931
0.0211347
0.0216842
0.0202474
0.0213968
0.0205164
0.0218279
0.148136
0.659668
0.0206235
1.50496
0.365088
0.0203272
0.0205809
0.464526
0.0871582
0.160916
0.399981
0.436639
0.0205888
0.021259
0.304695
0.0259826
0.366067
0.0289156
0.0206467
0.0212758
0.0210004
0.0198152
0.0206471
0.0329046
0.0206159
0.286127
0.020906
0.0213566
0.052597
0.0197764
0.0333418
0.440667
0.0208863
0.0207918
0.0209634
0.0281845
0.0196403
0.0201958
0.0352588
0.343449
0.0310985
0.0216903
0.0301108
0.0205516
0.0215449
0.0212507
0.463103
0.0132958
0.281032
0.013296
0.0312285
0.0332912
0.0752586
0.0210306
0.0251229
0.0196513
0.019654
0.0261871
0.0208205
0.41812
0.257927
0.0244241
0.41037
0.0294883
0.112011
0.0332669
0.0200339
0.222816
0.0231321
0.349529
0.0213297
0.0204659
0.0201355
0.0301354
0.0828461
0.346638
0.22476
0.0209723
0.165896
0.0206104
0.322107
0.0392144
0.020489
0.0231518
0.0214058
0.336024
0.253641
0.0216603
0.0196332
0.237797
0.024149
0.0411794
0.021482
0.0214988
0.43682
0.252395
0.0205528
0.0279575
0.020738
0.0238545
0.021761
0.384362
0.020713
0.0223821
0.0274238
0.0213391
0.0208509
0.279254
0.333155
0.0214753
0.0213911
0.0216839
0.0206148
0.02052
0.343753
0.223726
0.0209106
0.0273374
0.0208326
0.0213604
0.0213491
0.0211518
0.412278
0.239057
0.117406
0.350658
0.020759
0.0276942
0.020842
0.0220571
0.524865
0.0218882
0.0998444
0.0207402
0.252389
0.0214965
0.333677
0.282315
0.0202737
0.0208364
0.0462382
0.0337035
0.510556
0.22714
0.0286669
0.416991
0.0242258
0.0211903
0.276729
0.0207686
0.271812
0.0199479
0.0227565
0.0278359
0.0208437
0.0216953
0.0208785
0.0502435
0.275203
0.0215794
0.147373
0.0240248
0.039417
0.0204859
0.0238134
0.352502
0.0204509
0.0307204
0.200165
0.0202159
0.392769
0.0974385
0.56811
0.0204726
0.388611
0.0209978
0.0202674
0.222601
0.0204733
0.463782
0.0199816
0.0208225
0.0205314
0.023851
0.348044
0.0207518
0.237016
0.0197659
0.0260191
0.0496798
0.0213647
0.241479
0.309978
0.0324907
0.0873527
0.0217946
0.0205534
0.0954348
0.0204986
0.0203762
0.020935
1.82946
0.287508
0.592567
1.34713
0.0201179
0.0210454
0.0209693
0.361771
0.0206855
0.623507
0.141024
0.0212386
0.355852
0.541132
0.117364
0.0203993
0.0202331
0.0279317
0.0213339
0.05199
0.397208
0.0203351
0.0233957
0.0207136
0.234836
0.338377
0.0211906
0.0778296
0.0209838
0.0214219
0.019793
0.0207733
0.0747814
0.347813
0.0204459
0.0105417
0.358528
0.0198862
0.247109
0.020649
0.0208901
0.028371
0.0203996
0.132183
0.0198305
0.0789642
0.553233
0.0197709
0.0200972
0.0209951
1.61804
0.0255459
0.152642
0.288411
0.0206546
0.023719
0.332543
0.0205124
0.530559
0.0748557
0.0206589
0.263617
0.474068
0.351041
0.237874
0.346121
0.0203851
0.273482
0.0561966
0.264088
0.277945
0.0204816
0.0203556
0.0207444
0.0872967
0.0203252
0.0201658
0.340437
0.0532703
0.0213126
0.0203625
0.0208542
0.0202983
0.020352
0.0425864
0.0208246
0.0498674
0.254236
0.035816
0.0238453
0.0206395
0.0204104
0.360685
0.228966
0.69876
0.459755
0.0205175
0.020679
0.0346735
1.38201
0.28135
0.0204256
0.618299
0.395922
0.019933
0.0341891
0.0438626
0.0201557
0.020949
0.0209877
0.0214979
0.0201015
0.336964
0.0766714
0.0210537
0.291831
0.0213928
0.033713
0.0209069
0.0213357
0.0308868
0.0246069
0.0257533
0.0203382
0.0198279
0.0203103
0.0203128
0.234943
0.0654652
0.351202
0.0631275
0.281314
0.0315979
0.0203391
0.0876848
0.251313
0.0212686
0.25512
0.0222123
0.0197707
0.206286
0.430833
0.023366
0.056466
0.016778
0.205384
0.0583544
0.0202841
0.0239753
0.0207107
0.295074
0.020713
0.350614
0.315567
0.0481441
0.337829
0.0356839
0.119366
0.313522
0.0209972
0.0203976
0.0210083
0.0208528
0.283634
0.0206432
0.0206675
0.0237814
0.0217565
0.0202165
0.335215
0.234028
0.0506834
0.0202523
0.70863
0.287014
0.243058
0.0213486
0.0204342
0.0231422
0.020185
0.306514
0.0268431
0.0202995
0.0338003
0.0205942
0.39283
0.0491245
0.0206276
0.601721
0.149278
0.0203564
0.269937
0.382419
0.0235923
0.0211454
0.341628
0.259523
0.019647
0.0205128
0.304389
0.0444894
0.0212171
0.231981
0.0210938
0.0204114
0.0205348
0.0203493
0.198365
0.0201977
0.0203834
0.22793
0.116875
0.0205028
0.0209016
0.104394
0.218427
0.021634
0.166308
0.0203879
0.579614
0.093108
0.021568
0.0202303
0.406438
0.198353
0.0231245
0.0201144
0.386479
0.0272612
0.0202322
0.250132
0.0209207
0.150825
0.0204759
0.368394
0.269373
0.338274
0.352373
0.0204212
0.319171
0.0212249
0.0703349
0.275032
0.0201688
0.0244999
0.0200741
0.399358
0.0206953
0.0203513
0.0199783
0.0204584
0.0202718
0.0201223
0.0477694
0.0214643
0.0627478
0.0230418
0.0197396
0.0236959
0.359379
0.0205662
0.11617
0.020276
0.0211144
0.191504
0.0232706
0.341875
0.0238655
0.0332256
0.0200838
0.0201496
0.0225137