/*--------------------------------*- C++ -*----------------------------------*\
| =========                 |                                                 |
| \\      /  F ield         | OpenFOAM: The Open Source CFD Toolbox           |
|  \\    /   O peration     | Version:  v2012                                 |
|   \\  /    A nd           | Website:  www.openfoam.com                      |
|    \\/     M anipulation  |                                                 |
\*---------------------------------------------------------------------------*/
FoamFile
{
    version     2.0;
    format      ascii;
    class       volScalarField;
    location    "750";
    object      k;
}
// * * * * * * * * * * * * * * * * * * * * * * * * * * * * * * * * * * * * * //

dimensions      [0 2 -2 0 0 0 0];


internalField   nonuniform List<scalar> 
9793
(
0.000149202
0.0132643
0.000147546
0.0293326
0.000149706
0.000198313
0.000170871
0.0543992
0.000148735
0.00461211
0.000149247
0.00014918
0.000147288
0.0492508
0.000147114
0.000157376
0.000170531
0.000147488
0.0357377
0.000144925
0.00014587
0.000149939
0.0273353
0.0553476
0.0500569
0.000154353
0.000148538
0.000149723
0.000144984
0.000173561
0.0193082
0.00022169
0.000147947
0.000147532
0.000146974
0.000158773
0.000154508
0.000152798
0.043169
0.000159996
0.000171334
0.0377165
0.05533
0.000149794
0.00014766
0.000148147
0.0306182
0.000149886
0.000147157
0.000147535
0.000158586
0.000146822
0.000165256
0.000149772
0.000158042
0.0315558
0.000147338
0.00018386
0.00014716
0.000149938
0.00015452
0.000168217
0.000147607
0.000165154
0.000147558
0.00014846
0.0101718
0.000153257
0.000155329
0.0527997
0.000147989
0.000168081
0.0499347
0.0877692
0.0637598
0.000149727
0.000161275
0.0650566
0.000147772
0.000149786
0.000161945
0.036842
0.000170248
0.000151964
0.000155341
0.000196408
0.000149717
0.000179844
0.0438228
0.000167828
0.0319331
0.000371497
0.000534547
0.000163965
0.054396
0.000147327
0.0672519
0.000168693
0.000153661
0.000149771
0.0413602
0.000163994
0.0849204
0.000147686
0.0645721
0.0820479
0.0710374
0.000146989
0.000147796
0.000149879
0.000149516
0.0294257
0.000427288
0.0149082
0.000147886
0.000148636
0.000154486
0.000148204
0.034441
0.000148051
0.062407
0.000181069
0.0777739
0.000168395
0.000154547
0.00014809
0.000171791
0.0235698
0.000205767
0.000207966
0.000152955
0.000146572
0.000148966
0.000151927
0.000157551
0.000181495
0.000307392
0.000154546
0.000149808
0.000172983
0.0396097
0.000157917
0.000147753
0.000175577
0.0318199
0.00021764
0.000148095
0.0652094
0.000146572
0.000148052
0.00014833
0.0461926
0.000153006
0.000148491
0.000147618
0.0002813
0.000171427
0.000147575
0.000264156
0.000147645
0.000178464
0.000153182
0.000145927
0.000183611
0.000148819
0.0381762
0.0705839
0.000149447
0.000146994
0.000149398
0.000147818
0.0124431
0.0347691
0.0561007
0.000147248
0.000196139
0.000173425
0.000198953
0.000147681
0.000153216
0.0680649
0.026454
0.000183265
0.0001481
0.000148359
0.000146949
0.0772029
0.0459745
0.0223852
0.0939081
0.000148137
0.0150533
0.000188899
0.000153291
0.000147506
0.000150967
0.000304007
0.00014512
0.000147477
0.000149299
0.000148081
0.000146086
0.000159757
0.000155202
0.0375785
0.000147724
0.000157663
0.00014947
0.000149077
0.000190524
0.000172312
0.0415995
0.000145326
0.0488795
0.000151979
0.000170537
0.000147194
0.000181307
0.000148697
0.000161688
0.00016953
0.000146081
0.000244705
0.0629738
0.000163347
0.000147281
0.000172231
0.0674618
0.000161816
0.000162097
0.0385733
0.000197797
0.000169433
0.00016565
0.000185575
0.000146152
0.0278309
0.0176369
0.000145136
0.000149433
0.0256234
0.000147524
0.000149501
0.000188737
0.000190601
0.000148403
0.000153293
0.000158624
0.000160297
0.000153536
0.000147722
0.000163626
0.030433
0.000145991
0.0583295
0.000149724
0.000149053
0.000145592
0.032548
0.000147737
0.00109562
0.0510463
0.000148568
0.000148769
0.00187519
0.000147815
0.000149561
0.000147669
0.0483657
0.000179309
0.000152905
0.000191215
0.000182124
0.0773976
0.0240135
0.000149521
0.0200855
0.00014974
0.0667521
0.000603141
0.0465508
0.0618942
0.000195996
0.00015308
0.000168897
0.000154579
0.000147726
0.000149849
0.000190048
0.000154489
0.00014883
0.000149882
0.000145313
0.000146666
0.000146002
0.0279949
0.000146932
0.000146981
0.000148553
0.000147296
0.0245072
0.000219968
0.00016387
0.000150202
0.000175538
0.000149577
0.0182796
0.0368684
0.000147709
0.0544278
0.000163653
0.000147637
0.00845267
0.0333571
0.000147996
0.000164053
0.000738228
0.000148534
0.000157868
0.000146995
0.000148814
0.0683345
0.000160762
0.000147587
0.000148013
0.000149976
0.000177193
0.000430737
0.000147565
0.00014695
0.000147132
0.0104304
0.0346056
0.0409481
0.000145985
0.000161352
0.000158151
0.000272804
0.000177354
0.000146248
0.000146734
0.000147128
0.000168508
0.000148272
0.0575742
0.000148461
0.00014642
0.0873375
0.0287213
0.0455475
0.000147344
0.0409057
0.00015297
0.000412424
0.0586843
0.0379036
0.000151562
0.000160773
0.000356396
0.0325378
0.030302
0.0001541
0.000149733
0.000153267
0.000146961
0.000146824
0.000148178
0.000148411
0.000149941
0.0632356
0.00014932
0.000171273
0.000159768
0.0304997
0.000146234
0.000152129
0.0229721
0.000194227
0.0534414
0.000176772
0.000146422
0.000151706
0.000147559
0.000206225
0.000144814
0.0451531
0.000174374
0.000170587
0.0364701
0.0694066
0.000148815
0.000147244
0.000512654
0.000208496
0.000147714
0.052221
0.000148771
0.000149092
0.000503402
0.000145312
0.000183874
0.000146197
0.0688654
0.000148501
0.000148872
0.0826287
0.000167449
0.000175248
0.000153346
0.000148361
0.000146946
0.0753791
0.000168081
0.000145467
0.00014923
0.00015857
0.000158142
0.000175068
0.0276666
0.000149237
0.000147517
0.000182645
0.000148409
0.0321368
0.00019936
0.000148302
0.000147977
0.000149724
0.000148662
0.000147055
0.0422956
0.000162045
0.00443946
0.000155781
0.000152443
0.000168317
0.000152528
0.035186
0.000154002
0.000149765
0.000153317
0.000211593
0.000147826
0.000147674
0.000147996
0.000144836
0.000147768
0.000147053
0.000148159
0.000148962
0.000150226
0.00015449
0.000188683
0.000149361
0.000256747
0.000153593
0.000178303
0.0228721
0.000147727
0.0922652
0.000170842
0.00014752
0.000144846
0.00014778
0.0729141
0.000182084
0.000144822
0.000148694
0.000149249
0.000164419
0.000174441
0.0713794
0.000147652
0.00014763
0.000157055
0.0269478
0.04551
0.000151405
0.000152068
0.0605872
0.0288182
0.000212229
0.000148654
0.000146496
0.0385326
0.000147382
0.000173434
0.0363757
0.000145356
0.000177296
0.000156514
0.0385376
0.000146921
0.0362196
0.00020578
0.000156738
0.00125464
0.000147343
0.000269134
0.00014851
0.000147204
0.000149441
0.000147568
0.0582578
0.000147297
0.000147002
0.000150127
0.000146031
0.000146507
0.000163705
0.000150121
0.000164539
0.000148069
0.000148099
0.025729
0.000165344
0.000151331
0.0580118
0.000153847
0.000148691
0.000147761
0.00014706
0.0487986
0.000146983
0.000148316
0.0213516
0.0294284
0.000160552
0.000147338
0.000149885
0.000148854
0.00014957
0.0569182
0.00014867
0.110065
0.00015386
0.000273966
0.000149724
0.0115211
0.000151835
0.000182105
0.000147421
0.000186866
0.0263286
0.00014857
0.0663427
0.000147449
0.000149404
0.000145754
0.0742843
0.0371074
0.000147823
0.000157348
0.000146972
0.0608138
0.000148177
0.000163963
0.0371766
0.000153109
0.000148011
0.000161241
0.000149599
0.000149036
0.000147207
0.000187463
0.000147512
0.0655106
0.000148197
0.000148344
0.000167955
0.000165983
0.0010479
0.000146853
0.0133741
0.000147212
0.000178723
0.00014758
0.00014933
0.000147341
0.000148181
0.000149769
0.000179228
0.00016946
0.07036
0.00018115
0.000158416
0.000158588
0.000414851
0.000152437
0.0553686
0.0430709
0.000184275
0.025104
0.0170765
0.000177424
0.00014905
0.000480927
0.0001679
0.000149007
0.000191999
0.000149642
0.000191112
0.000159645
0.000202605
0.000154877
0.0302023
0.046008
0.000166555
0.000200401
0.000149386
0.000205074
0.000150212
0.000147432
0.000148214
0.0001531
0.000167191
0.0394133
0.000181375
0.0422894
0.000151889
0.000151122
0.0387832
0.000185046
0.000151522
0.000175003
0.000149142
0.000478597
0.0865441
0.000148259
0.000163927
0.000179666
0.0441224
0.000147521
0.000153715
0.0814302
0.000159178
0.0751325
0.000187436
0.0238854
0.000153729
0.000152663
0.000147833
0.000147601
0.000220027
0.000149886
8.17855e-05
0.000185788
0.00016966
0.000149706
0.000149444
0.000153032
0.000149197
0.000146676
0.000147539
0.000179325
0.0761467
0.0495986
0.00014985
0.000203258
0.000147503
0.039552
0.000171463
0.000161311
0.000157977
0.000202994
0.00014608
0.000148267
0.000160632
0.000147391
0.000148679
0.000173595
0.041498
0.000146085
0.000208245
0.0463407
0.00015379
0.0665181
0.0470004
0.000147189
0.00017031
0.000158152
0.000148094
0.000145657
0.000168037
0.0470652
0.051282
0.000147891
0.000147975
0.000145922
0.000155262
0.000150151
0.000151698
0.000193332
0.000171467
0.000148917
0.0114558
0.00015982
0.000157859
0.000148509
0.00640536
0.000152789
0.000147243
0.000170035
0.0003178
0.000145631
0.000148201
0.000147585
0.000156011
0.00014605
0.000166844
0.000294816
0.000148617
0.000187516
0.000151066
0.000148306
0.00196283
0.0384064
0.000232565
0.000148368
0.000145832
0.0505484
0.000153586
0.00417195
0.000145399
0.000147477
0.0176727
0.103895
0.00015902
0.000185879
0.000163895
0.000147251
0.000149793
0.000147884
0.0482762
0.000148231
0.000149947
0.0338287
0.000154775
0.000203282
0.000157428
0.000147403
0.0369503
0.000149768
0.000147519
0.000147829
0.000157015
0.0268004
0.000148993
0.0001477
0.000147379
0.000147285
0.000147447
0.000147928
0.0335049
0.000157469
0.000150023
0.000148616
0.000157476
0.000172113
0.000157369
0.000155386
0.000149883
0.000145866
0.000151174
0.0345229
0.0678003
0.000152158
0.0484791
0.000149381
0.000153296
0.000211424
0.000329254
0.000147075
0.000149129
0.000184386
0.000172284
0.000147167
0.000149626
0.0656396
0.000149768
0.000170922
0.000147945
0.000202765
0.000149618
0.000152065
0.000148739
0.000158995
0.000149002
0.000152438
0.000153853
0.000173127
0.000146899
0.00014784
0.000149634
0.000147165
0.000148948
0.000148419
0.000160003
0.000148628
0.000173531
0.0552058
0.000167271
0.000173983
0.000149284
0.000147217
0.016189
0.0865437
0.00014556
0.0643492
0.0198111
0.000145906
0.000147678
0.000147062
0.000173366
0.000174286
0.00032883
0.000146853
0.000153737
0.000146854
0.000148928
0.000151774
0.000169874
0.000148866
0.000196494
0.000148496
0.000164284
0.000147103
0.000150593
0.000147567
0.000168084
0.000163586
0.0240679
0.120119
0.0643
0.000170747
0.000147496
0.000307891
0.000439906
0.000176993
0.000148562
0.000148436
0.000291651
0.000147018
0.0273835
0.000146336
0.000160363
0.000149157
0.000149779
0.000147113
0.0433079
0.0498533
0.0278392
0.000165079
0.0214883
0.0001476
0.069782
0.0832142
0.000149785
0.000148256
0.000145967
0.00667568
0.00014523
0.0575449
0.00015738
0.000190052
0.00014892
0.000222968
0.0272678
0.000281886
0.000156449
0.000161164
0.000148113
0.0515101
0.000145204
0.000197985
0.000199984
0.000164965
0.0775278
0.0546635
0.000152893
0.000151317
0.000147466
0.000188932
0.0565664
0.0169018
0.000146061
0.000413891
0.000156814
0.000190586
0.000169924
0.0426657
0.0436676
0.000146747
0.000153892
0.00016095
0.000153825
0.000153601
0.0711167
0.000149248
0.0781606
0.000147508
0.000146513
0.000171138
0.000187684
0.00414911
0.000150224
0.0250512
0.0258789
0.000207536
0.000154358
0.00014951
0.00015022
0.000149466
0.000147612
0.000217289
0.00303717
0.000148815
0.000147603
0.000162263
0.000274694
0.000154534
0.000147578
0.000190188
0.000147545
0.000149817
0.00014532
0.000177042
0.000148062
0.000155049
0.0225567
0.000171581
0.000152258
0.000477296
0.000170437
0.000147518
0.000151589
0.000162608
0.000149724
0.000147606
0.00014668
0.0559286
0.00257323
0.000148713
0.00016369
0.000158632
0.000207031
0.000147814
0.0663131
0.000146881
0.000146115
0.000203199
0.000205971
0.000176025
0.000148114
0.000147172
0.0322203
0.0437804
0.000192508
0.00032462
0.000148564
0.000153454
0.000147971
0.0136511
0.00015209
0.00406223
0.000149881
0.000147855
0.000152918
0.00014627
0.000146967
0.000165147
0.000146386
0.0699208
0.000147638
0.000148661
0.000145554
0.000155024
0.052115
0.0279981
0.000174185
0.0259844
0.000147713
0.000159683
0.000152095
0.060755
0.000147898
0.000146575
0.100146
0.000158715
0.000157565
0.000148628
0.000206312
0.0388127
0.0479965
0.000148483
0.00015814
0.000211617
0.000162265
0.000266961
0.000184924
0.000171209
0.000147024
0.000149637
0.000177177
0.000166084
0.00014776
0.000190104
0.00014602
0.000149146
0.000148842
0.000146708
0.000147511
0.000147804
0.000207518
0.000154489
0.000150858
0.000163655
0.000146235
0.000147556
0.000162162
0.0527666
0.000166306
0.000169267
0.0603046
0.000149518
0.0653575
0.000156807
0.0158485
0.000165132
0.000149283
0.000148746
0.000152181
0.0535771
0.000285221
0.000164928
0.00017453
0.000145778
0.000147533
0.000149622
0.000149277
0.0200061
0.000155155
0.000148199
0.000191727
0.000180645
0.0775778
0.000150411
0.0933882
0.000162737
0.00016695
0.000162787
0.000188172
0.000184956
0.000148834
0.0449717
0.000213618
0.000159476
0.0471666
0.0001697
0.000149184
0.000149735
0.000147542
0.000150586
0.000154611
0.0223147
0.000172365
0.000146955
0.000209501
0.00014786
0.0270543
0.000444833
0.000147551
0.0289456
0.000147513
0.000146889
0.000148666
0.0424808
0.0431171
0.000172208
0.00015685
0.000147149
0.000211967
0.000149497
0.000158891
0.000148477
0.000148562
0.000147966
0.0782228
0.000150033
0.000160233
0.000156617
0.000149355
0.000183693
0.000179819
0.000164388
0.000153518
0.000152711
0.0377922
0.0848166
0.000148177
0.000146728
0.000148171
0.000149655
0.0391702
0.055575
0.000191978
0.000153826
0.000146449
0.0846193
0.0445522
0.000148721
0.0421104
0.000145953
0.000175962
0.0127697
0.000146143
0.0317558
0.0597358
0.000179399
0.0233705
0.0773169
0.000147099
0.000149792
0.000300259
0.0398185
0.000149534
0.0312158
0.000153893
0.000147499
0.000149809
0.000151717
0.000166947
0.000154427
0.000181959
0.0233498
0.000178074
0.000158059
0.000148388
0.000166934
0.000312964
0.000146613
0.000457598
0.000165616
0.000149416
0.000152724
0.000149573
0.000148663
0.000157076
0.000312804
0.000150112
0.000146407
0.0300605
0.0445831
0.000179551
0.000149719
0.000169984
0.000147559
0.000147334
0.0789227
0.0144159
0.00014727
0.000144349
0.0670711
0.0264622
0.000165954
0.000148832
0.0829182
0.000150613
0.000147336
0.000153843
0.000147346
0.000145727
0.00014525
0.0770316
0.000214534
0.000154098
0.000247696
0.000170307
0.0428071
0.0812785
0.0471115
0.000195348
0.000147775
0.000149554
0.000149522
0.000147771
0.00016586
0.000147021
0.000168569
0.000158699
0.00392049
0.000148174
0.0342437
0.000158667
0.0474026
0.000147294
0.000271148
0.000160831
0.000197712
0.000203426
0.000159264
0.000145222
0.085107
0.000172199
0.000362845
0.000145478
0.0780623
0.00014804
0.0472953
0.000211519
0.000160655
0.000147523
0.000148469
0.0547949
0.0277409
0.000162178
0.000146006
0.00120599
0.000169978
0.000169039
0.112501
0.000166288
0.00014762
0.101659
0.00014756
0.000163372
0.00014626
0.0235035
0.00014626
0.000153114
0.000213321
0.000434228
0.000149429
0.000171349
0.000154017
0.000166487
0.000147006
0.000190513
0.00015107
0.000165297
0.000147723
0.00014772
0.0355071
0.000159108
0.0508367
0.0861711
0.0236136
0.000149909
0.00014635
0.000146787
0.000155095
0.000164907
0.000160836
0.0200088
0.000152064
0.000222075
0.000161181
0.000149862
0.000147796
0.000179475
0.000235503
0.0147909
0.00014752
0.036443
0.000146877
0.0757747
0.00025837
0.000170724
0.000147845
0.00014669
0.000165769
0.000555905
0.000152838
0.000149772
0.000153425
0.000169209
0.000151348
0.000248548
0.0355372
0.00047261
0.00014895
0.000155914
0.0814817
0.000149173
0.000163539
0.000147172
0.0002095
0.000159691
0.00014761
0.000161454
0.000174374
0.000148335
0.0723177
0.000147513
0.000189805
0.000180177
0.000254093
0.000183086
0.000149024
0.00014873
0.0265804
0.000148524
0.000160857
0.000182135
0.00015204
0.000145132
0.0702238
0.000152766
0.000189304
0.000152745
0.00016469
0.000149533
0.000186584
0.000153183
0.000153674
0.0825285
0.000221932
0.000148465
0.000149804
0.000174417
0.0489889
0.000291452
0.000206127
0.000160313
0.000147591
0.000146689
0.0484672
0.000148821
0.0776597
0.000173414
0.0730005
0.000148594
0.000145984
0.000146435
0.000167046
0.000171982
0.000408464
0.0456903
0.00024629
0.000203802
0.000145085
0.000342389
0.000150612
0.000178625
0.000151032
0.000165858
0.000163412
0.000147559
0.000145001
0.000178256
0.000145518
0.000162801
0.000164753
0.0309824
0.0702959
0.000167557
0.0462842
0.000146816
0.000146316
0.000148355
0.000175082
0.000164005
0.00016669
0.000176404
0.00260773
0.000160378
0.000173643
0.00014721
0.000150838
0.0418095
0.000147948
0.000180981
0.000144261
0.000147151
0.0559991
0.000183022
0.000147219
0.000173866
0.000194884
0.0559181
0.0686745
0.000153643
0.00018003
0.000172766
0.00425205
0.000148245
0.0762848
0.0364039
0.000151417
0.000156804
0.000145456
0.000191231
0.000147316
0.000147768
0.0436477
0.000148808
0.000145211
0.000189312
0.000177199
0.0443301
0.0438906
0.000411467
0.0309944
0.000146519
0.000147524
0.000147234
0.000149308
0.0367032
0.000148351
0.0344359
0.000150586
0.0479676
0.000152321
0.000148503
0.000145619
0.000148814
0.00015695
0.000148492
0.000145015
0.000223263
0.000146719
0.000174134
0.000149361
0.0205036
0.000152374
0.000148398
0.000148355
0.000171604
0.000147185
0.000146169
0.000148462
0.000149376
0.000154918
0.000147144
0.000151322
0.000156937
0.0990544
0.0480329
0.0419908
0.0327367
0.000146306
0.000147857
0.000147604
0.000143961
0.000147558
0.000146106
0.000210853
0.000147114
0.000149649
0.000148316
0.000148146
0.000147908
0.0572815
0.000154181
0.000147652
0.0473639
0.000169802
0.000145823
0.0480875
0.0247861
0.000147972
0.00019547
0.000205896
0.000148188
0.000161102
0.00015174
0.000144816
0.000155502
0.000150236
0.000168834
0.000147911
0.000149617
0.000146195
0.0102074
0.000159724
0.000161258
0.000148053
0.000149748
0.0519194
0.000153619
0.000148086
0.000152195
0.000152849
0.000149651
0.000178061
0.0247062
0.000285688
0.0404702
0.000177032
0.000159683
0.000149709
0.0237161
0.000183751
0.000150105
0.000173744
0.00014995
0.000147423
0.00014961
0.0808214
0.000162102
0.000147831
0.000148138
0.000196494
0.000146059
0.000192064
0.000147808
0.000266788
0.000200556
0.00939315
0.000148403
0.000150733
0.000157134
0.000159215
0.000148926
0.000159975
0.000166641
0.0106652
0.000149429
0.000189765
0.0837682
0.000145298
0.046994
0.00016089
0.000182627
0.00017645
0.000147527
0.000155991
0.000167785
0.000145641
0.000154363
0.000144742
0.0228747
0.000394951
0.000157992
0.000146628
0.000183422
0.000165378
0.000336423
0.000180301
0.000151259
0.000158749
0.000147605
0.000147662
0.000167612
0.000162528
0.0406085
0.000146684
0.000188471
0.000154425
0.0670406
0.000187633
0.0682278
0.000145061
0.000150303
0.000310559
0.000277861
0.000160689
0.0311453
0.000151336
0.000177457
0.00014723
0.000147123
0.0306107
0.000383633
0.000155321
0.000148501
0.000165903
0.000299063
0.000174967
0.000164675
0.000146343
0.000147938
0.000145856
0.000323256
0.0428473
0.00014666
0.000170411
0.0545185
0.000173707
0.000188173
0.0349998
0.0167742
0.0734139
0.000146833
0.000151108
0.0392416
0.000147148
0.000162019
0.000254398
0.0529513
0.000151007
0.000156454
0.0232185
0.000203797
0.000283677
0.0610812
0.0450338
0.0428579
0.000148622
0.000145465
0.000147809
0.000150367
0.0165106
0.000162664
0.000185306
0.000188365
0.000163277
0.00014802
0.00023804
0.000146729
0.000160969
0.000147296
0.000160205
0.0158698
0.000846066
0.000148332
0.000145382
0.000167973
0.0439341
0.000185612
0.0486683
0.00016097
0.00014825
0.000165905
0.000144272
0.000167342
0.000157148
0.000147553
0.0460114
0.000173355
0.000222871
0.000166696
0.000148864
0.000145632
0.00390524
0.000153043
0.00014541
0.00014887
0.000149679
0.000145606
0.00961189
0.036582
0.0358138
0.000262661
0.0408381
0.000153771
0.000147568
0.0818623
0.000153794
0.000185992
0.0682004
0.000146898
0.0610465
0.0316295
0.000169557
0.000157953
0.00020367
0.000150714
0.000289856
0.000161542
0.0298586
0.000146754
0.000150266
0.000160937
0.000425687
0.000182396
0.000164918
0.0306424
0.0707603
0.000164916
0.000193406
0.000414502
0.000152948
0.000185461
0.0138284
0.000159981
0.000164102
0.0732115
0.000162758
0.000159743
0.000148568
0.000165306
0.000166991
0.000166775
0.000148459
0.0702995
0.000172813
0.0309235
0.0254619
0.034626
0.00016044
0.000266474
0.0728892
0.000146762
0.00169232
0.115153
0.0304636
0.000155938
0.000152071
0.0418162
0.0238746
0.000145528
0.000178033
0.000146112
0.000147224
0.000453487
0.000153241
0.0322865
0.0451351
0.0377792
0.0494493
0.000145218
0.000164236
0.000148078
0.00014674
0.000168981
0.000173148
0.000156519
0.000372141
0.0351523
0.000149805
0.000156232
0.000245568
0.000152226
0.000189722
0.000161439
0.0408193
0.0417989
0.000227957
0.0794549
0.0185731
0.032821
0.042883
0.037751
0.000163007
0.000153031
0.000171077
0.000170895
0.0533539
0.0440184
0.000148775
0.000155125
0.0420274
0.0299372
0.00015461
0.03377
0.000147704
0.000215408
0.0771871
0.080245
0.0001473
0.0320942
0.000260525
0.000155225
0.000159031
0.0608789
0.057847
0.0390166
0.0499051
0.000147973
0.00720836
0.0370691
0.000160003
0.00018184
0.000168517
0.000145975
0.000156143
0.0270507
0.0504954
0.000153545
0.000149069
0.0396125
0.000166523
0.0368767
0.00017093
0.00027765
0.0442214
0.000147818
0.066629
0.000149891
0.000161448
0.000148242
0.00014813
0.000145745
0.00016169
0.00018132
0.000144386
0.00990006
0.000181877
0.0106851
0.0531226
0.0319583
0.000147198
0.0751821
0.000265684
0.0341679
0.000159053
0.000147559
0.0017395
0.000209883
0.0496509
0.00016267
0.000151112
0.000145629
0.00297239
0.0180523
0.000158499
0.0078692
0.000156753
0.000148608
0.0413235
0.000162424
0.0283883
0.000147837
0.000161128
0.0341903
0.0385749
0.0404726
0.000205953
0.0414494
0.0365005
0.0071326
0.00014818
0.0213067
0.000162629
0.000146965
0.000145127
0.000147669
0.0200775
0.000161707
0.0424653
0.0396786
0.000166623
0.000172104
0.000184168
0.0323453
0.000178987
0.0598744
0.0334721
0.000252275
0.0001676
0.00014598
0.000512243
0.000163213
0.000196124
0.0408241
0.0524087
0.000275563
0.000148511
0.000152897
0.00016177
0.000148251
0.000148052
0.000156815
0.0436983
0.000160187
0.000156125
0.0384706
0.000182082
0.000213811
0.00181368
0.0457704
0.000212723
0.0493481
0.032633
0.0341698
0.000164171
0.000160836
0.000148439
0.00025165
0.000176173
0.000200442
0.000163872
0.00016346
0.000144005
0.000193825
0.0693417
0.000157643
0.000144987
0.000151545
0.00247463
0.000147
0.000148034
0.000168863
0.0380814
0.00015977
0.000162861
0.000175332
0.000156561
0.000176204
0.000147257
0.000147752
0.00016376
0.00020238
0.000148782
0.000159211
0.000179298
0.0633728
0.000148491
0.0806477
0.00014785
0.0451616
0.000150794
0.000150974
0.000144807
0.00018758
0.000164896
0.0144414
0.0563039
0.000164351
0.000148992
0.00014829
0.0728777
0.00147341
0.000147697
0.000185409
0.0391338
0.000167828
0.000165478
0.000143963
0.000149859
0.000147513
0.0423897
0.000165551
0.00014819
0.0619509
0.00014909
0.000163174
0.000206097
0.000145988
0.000168049
0.000169293
0.0562913
0.000149247
0.000153936
0.000150994
0.000167896
0.000143733
0.000147299
0.0713879
0.000203991
0.000173497
0.000149059
0.0462231
0.00014911
0.000149111
0.000147521
0.000209319
0.0620052
0.000152227
0.0833268
0.000422187
0.000168943
0.02864
0.00442268
0.039092
0.0159011
0.000174202
0.000178467
0.000193509
0.000166566
0.000147473
0.000156269
0.000160192
0.0636476
0.000148396
0.05667
0.000147741
0.000189234
0.000173722
0.000150275
0.000157714
0.00876052
0.0218158
0.0206326
0.0346181
0.000146541
0.000180327
0.0433266
0.000155994
0.0457934
0.000160028
0.00016839
0.0446782
0.000165311
0.000147785
0.000179688
0.00018345
0.000147593
0.0384232
0.000246239
0.000145833
0.000149559
0.0001487
0.000147902
0.0486598
0.000148501
0.000166546
0.00014801
0.000149733
0.000157214
0.000147555
0.0430927
0.000176124
0.000148517
0.000145467
0.000182007
0.000151744
0.000162593
0.0129215
0.0336757
0.000165455
0.000178177
0.000160019
0.000145128
0.000187845
0.0669882
0.000160983
0.0397858
0.0421022
0.000165307
0.000161982
0.000159578
0.000171535
0.000159787
0.0606552
0.00014864
0.000148616
0.000147694
0.0500907
0.0318801
0.000159256
0.00019141
0.000147721
0.000157664
0.000189696
0.000205053
0.00014759
0.000166644
0.0442059
0.000166718
0.000147818
0.000147697
0.0457307
0.0240889
0.000147557
0.000216407
0.000161488
0.000196785
0.000225203
0.000146927
0.0261296
0.000159741
0.000148
0.075494
0.000196196
0.000147492
0.000148995
0.00020541
0.000146637
0.000148134
0.000204587
0.000160281
0.000161097
0.0275875
0.000154456
0.00016982
0.0440742
0.000147422
0.0639924
0.0478318
0.000154316
0.000177193
0.000196635
0.00014798
0.000191769
0.000144175
0.0683874
0.000259069
0.000147868
0.0187968
0.0797666
0.000147768
0.000147778
0.000199106
0.000167447
0.032887
0.0336168
0.000148514
0.000165346
0.0296271
0.000150537
0.000171825
0.000180053
0.000158509
0.0817811
0.000201049
0.000152425
0.000198332
0.00740243
0.000160816
0.124072
0.000147223
0.000144762
0.000149763
0.000160236
0.0793962
0.000148293
0.000163963
0.0125854
0.033216
0.000149399
0.000157827
0.000285644
0.0460499
0.000149451
0.0690107
0.000162305
0.000173392
0.000163396
0.00015072
0.000155286
0.000147889
0.000147667
0.0654669
0.000147352
0.000162096
0.000147773
0.0637957
0.000152411
0.000153799
0.000145115
0.000152509
0.000147744
0.000165682
0.0194788
0.000955127
0.000162229
0.000160265
0.000147593
0.000157035
0.000170516
0.0769738
0.0387367
0.000146653
0.00024742
0.000148026
0.000335581
0.0393709
0.0266978
0.000146646
0.000170501
0.000178316
0.0582535
0.000177786
0.00014709
0.089321
0.000182225
0.000159057
0.00641931
0.000149047
0.000148096
0.000159968
0.0762107
0.000147668
0.0516891
0.000157966
0.000588062
0.000166704
0.000153176
0.0696726
0.000156242
0.000148371
0.000207905
0.000147798
0.000335038
0.0688847
0.000195566
0.000154872
0.00017196
0.000147735
0.000176199
0.000165617
0.0541743
0.000148155
0.000146002
0.000155112
0.00015772
0.00016908
0.0576517
0.109054
0.000158496
0.000176699
0.000146722
0.124312
0.0137691
0.000179721
0.000147621
0.000149711
0.000152099
0.07854
0.000148313
0.000156242
0.0711641
0.000182055
0.000148006
0.00017883
0.000180188
0.000147804
0.000153649
0.000179374
0.0002747
0.000168458
0.00016428
0.0485806
0.0442177
0.000276908
0.000154854
0.000148493
0.000152784
0.000152482
0.000182857
0.000171966
0.000157816
0.000180028
0.0660452
0.000151838
0.000147847
0.0312597
0.000181178
0.0321933
0.000199273
0.000154034
0.000151387
0.000151364
0.000146595
0.000147414
0.000168963
0.000145138
0.000150232
0.000149125
0.000150378
0.000151347
0.000147599
0.00015949
0.000166225
0.000148651
0.000147568
0.000148683
0.000149904
0.000149093
0.00017858
0.000148251
0.000150974
0.000251994
0.000146604
0.000150849
0.000148872
0.000157255
0.0305982
0.0627212
0.0312601
0.0733454
0.0994623
0.000199846
0.000147082
0.000169507
0.000148011
0.000323803
0.000151875
0.000156422
0.000148671
0.000171866
0.000147613
0.000160416
0.000146405
0.0714411
0.000186699
0.00014839
0.0611737
0.0938729
0.000148946
0.000186804
0.000147592
0.000145327
0.0106119
0.000148768
0.000171401
0.000190873
0.000148585
0.000145062
0.000173475
0.0385817
0.000152825
0.000151981
0.0341566
0.000147529
0.0325232
0.000170327
0.0147506
0.000145669
0.0368594
0.00014763
0.00014853
0.000203217
0.000173435
0.037825
0.037568
0.0182775
0.0775019
0.000208303
0.000179646
0.000148155
0.000199017
0.000148535
0.000146604
0.000167114
0.000147316
0.000147777
0.000145338
0.000145155
0.000175609
0.0649057
0.0364531
0.00020307
0.050475
0.000152143
0.000156411
0.000150841
0.000149963
0.000178678
0.000148107
0.000147302
0.000146636
0.000152351
0.000150587
0.000175108
0.000184242
0.000166988
0.000148609
0.000162519
0.000162736
0.0377595
0.0308519
0.000153646
0.00016652
0.000148467
0.0516533
0.042853
0.000147493
0.000147366
0.000152951
0.000149364
0.000207489
0.000208692
0.0402535
0.000148473
0.118199
0.000148317
0.0312705
0.000170051
0.000146514
0.000156642
0.00888711
0.000154457
0.000156668
0.000160266
0.000175842
0.0789501
0.000147496
0.000147241
0.000155492
0.000189691
0.000147236
0.0356887
0.115683
0.000147888
0.000143891
0.0136257
0.000178771
0.000147631
0.00185369
0.0100199
0.0693004
0.10122
0.000158106
0.000284393
0.000148338
0.0363301
0.0833231
0.000207775
0.000178739
0.000152093
0.0308899
0.000153304
0.000146958
0.000143996
0.000552307
0.000145436
0.0096379
0.000150667
0.000148488
0.000152935
0.039431
0.000152152
0.000150175
0.000148351
0.0717964
0.0242859
0.0480301
0.0468376
0.000169373
0.000147685
0.000151877
0.000217806
0.000168939
0.000147802
0.000172646
0.00012405
0.0211657
0.000148038
0.0260338
0.0350914
0.000167069
0.000148274
0.000152166
0.00014762
0.0001469
0.000147578
0.000148077
0.000149371
0.000167469
0.000148513
0.000193506
0.000149608
0.000149855
0.024417
0.000180168
0.000152736
0.000150104
0.0335097
0.000145284
0.00015613
0.000154533
0.000146546
0.00188265
0.000161421
0.00015
0.000160618
0.000147853
0.000156946
0.000147915
0.000192352
0.000146653
0.000147549
0.0626823
0.000152728
0.000198668
0.000162096
0.000151416
0.000183324
0.000143741
0.00014846
0.000149723
0.0571617
0.000152876
0.000147591
0.000290535
0.000147919
0.000145391
0.000147019
0.000234813
0.000157343
0.00019565
0.000157648
0.000156607
0.000161668
0.000152122
0.000155468
0.000161331
0.0338273
0.000148761
0.000156524
0.00014703
0.000180117
0.000199042
0.000147153
0.000160064
0.0776196
0.000156168
0.000145062
0.0630458
0.000154282
0.000166733
0.0292376
0.000158737
0.000147471
0.000157848
0.000147584
0.000154197
0.000147182
0.000151037
0.000154354
0.00014761
0.00014831
0.000157011
0.000148509
0.00017836
0.000147783
0.000151368
0.000147714
0.000160723
0.0361575
0.000148303
0.00014823
0.000167374
0.000151878
0.000147777
0.00020445
0.0673643
0.0268093
0.000148304
0.000152891
0.00016479
0.000149596
0.000148724
0.000162887
0.00017575
0.000144638
0.000162557
0.000147967
0.000147132
0.000147056
0.000144648
0.000150883
0.00016591
0.000162882
0.000156919
0.0384678
0.000152843
0.000155951
0.000146601
0.0588591
0.0230848
0.0740872
0.000148201
0.000168781
0.000156896
0.000148032
0.000148688
0.000160194