/*--------------------------------*- C++ -*----------------------------------*\
| =========                 |                                                 |
| \\      /  F ield         | OpenFOAM: The Open Source CFD Toolbox           |
|  \\    /   O peration     | Version:  v2012                                 |
|   \\  /    A nd           | Website:  www.openfoam.com                      |
|    \\/     M anipulation  |                                                 |
\*---------------------------------------------------------------------------*/
FoamFile
{
    version     2.0;
    format      ascii;
    class       volVectorField;
    location    "900";
    object      ddt0(U);
}
// * * * * * * * * * * * * * * * * * * * * * * * * * * * * * * * * * * * * * //

dimensions      [0 1 -2 0 0 0 0];


internalField   nonuniform List<vector> 
10042
(
(0.00699084 0.016477 6.17007e-20)
(0.0181668 -0.280079 -3.04765e-17)
(-0.0124738 -0.0320163 -3.79609e-19)
(-0.00116053 -1.88026e-05 2.31408e-19)
(0.00146237 6.32948e-06 -4.46736e-19)
(-0.0827055 -0.0263587 9.54807e-18)
(0.131009 -0.0198233 3.35473e-18)
(-0.0138776 -0.0300544 -9.14361e-19)
(0.000272036 -5.04559e-05 -6.84154e-19)
(0.0272841 0.0245592 -1.21029e-19)
(0.018257 0.0347683 3.45619e-19)
(-0.00897746 -0.290689 1.86096e-17)
(-0.00202053 -0.0200787 2.14545e-18)
(-0.000118698 0.000708113 -1.30296e-18)
(-0.00139704 -0.000555432 -2.9136e-18)
(-0.000298398 0.00062659 3.40624e-19)
(-0.0601844 -0.101569 6.60132e-18)
(0.0245885 0.0306523 -5.96938e-19)
(-6.85395e-05 -0.00422024 -3.46616e-18)
(-0.0093918 0.00361917 -3.06373e-19)
(0.000200145 -0.0205486 -1.73292e-18)
(0.00399149 0.0171892 -2.17431e-19)
(0.000195154 -1.79817e-05 -2.36603e-19)
(0.000869596 -0.00440081 -1.28182e-17)
(0.000348576 -5.16041e-05 -5.53965e-20)
(8.7865e-05 -1.33851e-06 -5.32097e-19)
(0.0250746 0.0237832 3.92688e-19)
(0.000119097 -6.65044e-05 -2.58995e-19)
(-0.0732704 -0.0344312 -5.18205e-18)
(-0.0113024 0.0860431 -2.03528e-17)
(-0.000184101 -9.54556e-06 -5.46313e-19)
(-0.0231992 -0.00575874 4.27539e-18)
(0.000742829 -7.63501e-05 7.46618e-19)
(0.0010763 -7.63113e-05 2.15972e-19)
(-0.0236812 -0.0054255 2.59498e-18)
(0.00562035 0.0413396 7.67401e-18)
(0.00107845 -7.56292e-06 -5.44544e-19)
(-0.000288225 -5.45276e-06 -2.15615e-19)
(0.000390184 -1.38966e-05 1.02029e-19)
(-0.000947635 0.00216349 -8.67177e-20)
(-0.0140376 0.0501124 -5.70963e-18)
(0.000670376 -4.99792e-05 -2.39378e-19)
(-0.0498842 -0.12854 -3.57173e-18)
(-0.0884244 -0.0335627 1.7803e-18)
(-4.19326e-05 -0.00012528 2.06111e-19)
(-0.000832614 -5.05816e-05 -1.22001e-19)
(-8.59618e-05 6.96724e-05 2.06145e-18)
(-0.00208348 -0.000507578 1.22523e-18)
(0.0453882 -0.0058543 -1.91274e-20)
(-0.345759 -0.331895 2.0026e-18)
(-0.0806935 -0.155452 3.54562e-18)
(-0.000281689 -4.45001e-05 3.09698e-19)
(-0.0729475 -0.0787909 1.25496e-18)
(2.46732e-05 -0.00394755 2.82225e-18)
(0.0768951 -0.032434 -3.63019e-18)
(0.11015 -0.0973229 6.03511e-19)
(0.000756732 -0.0185506 5.31362e-19)
(0.00432762 0.0196548 1.03241e-18)
(0.000829811 -0.000163482 -3.60257e-19)
(-3.40445e-05 4.95263e-05 -9.17428e-21)
(0.0455609 -0.0011685 -1.08795e-19)
(0.079653 0.00286274 4.52902e-18)
(-0.029348 -0.112741 -6.84135e-19)
(-0.0426269 -0.0702533 -2.09166e-19)
(0.0177024 0.0138447 -5.75564e-19)
(0.00114633 0.000562489 2.37348e-19)
(-0.00875114 0.00117217 -2.61652e-18)
(0.0235793 0.0146008 9.62986e-20)
(-2.4872e-05 7.78465e-05 4.04628e-19)
(0.0200405 0.015704 2.25504e-20)
(-0.261044 -0.194338 3.125e-18)
(-0.00227743 0.00262597 -1.27763e-20)
(0.000426554 -0.000240527 -1.46439e-19)
(0.000661304 -0.000180647 -9.39173e-19)
(0.00149064 0.000549485 -6.79605e-19)
(-0.215799 -0.17214 -3.62231e-18)
(0.0150392 -0.00979127 -1.4569e-19)
(-4.19105e-05 7.56624e-05 -2.24332e-18)
(0.0146109 -0.0128223 5.33599e-19)
(-0.000378026 -0.00401445 9.33059e-19)
(-0.0746997 -0.00742797 1.38798e-18)
(0.000750866 0.0244572 2.9758e-18)
(-1.51649e-05 5.2742e-07 2.51977e-19)
(-0.00102526 1.24379e-05 -1.98933e-19)
(0.00276731 0.0229439 1.65197e-18)
(0.0719783 0.00429648 3.8863e-20)
(-0.00718009 0.000632542 1.26353e-19)
(-0.00667569 -0.0338232 5.67836e-19)
(-0.00144085 -0.000374188 -1.13217e-18)
(0.0156954 0.000475172 7.83093e-19)
(-0.000987616 -0.0115767 -9.90562e-19)
(-0.00116945 -0.000559834 8.78566e-19)
(-0.0163755 -0.109939 5.62211e-19)
(0.0740131 0.00963652 -1.5551e-20)
(0.00632632 0.0211034 9.11634e-19)
(-0.00164111 1.55674e-05 4.19168e-20)
(-0.0430012 0.290833 4.25724e-17)
(-0.00850456 0.0026907 4.28948e-19)
(0.0707091 0.0112444 -3.31379e-18)
(-0.000583022 -0.000283714 -2.79299e-18)
(0.000164912 -0.0107274 -3.53185e-19)
(0.0438243 0.0331697 -7.91051e-19)
(0.00211663 0.00105678 -5.92474e-20)
(-0.0165135 -0.00432721 -1.44008e-18)
(0.00176579 -0.0065177 5.80108e-19)
(-0.000386087 0.000575577 -7.36982e-20)
(0.120618 -0.108614 -5.52752e-19)
(0.00123758 0.000352867 2.7998e-19)
(0.125928 -0.00823699 3.35053e-19)
(0.00071643 0.000634189 3.83154e-20)
(-0.000543456 1.05539e-05 -1.59795e-18)
(0.107182 -0.00731588 -3.40843e-18)
(0.0378606 0.0341 -2.19159e-20)
(-0.0488798 -0.0467427 -2.43453e-18)
(0.013658 0.0126669 -1.54831e-18)
(-0.000263584 7.09934e-05 9.41213e-20)
(-0.00272289 0.0176942 -2.08936e-19)
(0.000443862 -8.03946e-06 -6.351e-19)
(0.00288572 0.0174489 -1.94421e-18)
(-0.00028268 1.21849e-05 -5.81079e-20)
(-3.14576e-05 5.6404e-05 2.66934e-20)
(-0.0214703 -0.352022 8.35112e-19)
(-0.0198679 -0.342321 -1.2524e-17)
(-0.00105936 -0.000132908 -2.19695e-19)
(0.0168997 -0.00246928 6.55777e-20)
(-0.000748055 -0.000485033 4.96405e-19)
(0.000781393 -0.000483755 -1.37036e-19)
(0.0581934 -0.0393932 -1.61386e-17)
(-0.113302 -0.0403634 4.82499e-18)
(-0.00539139 0.0178274 1.50974e-18)
(0.000259104 0.000118658 7.23509e-19)
(-6.62484e-05 0.000477071 3.48198e-19)
(-0.000927684 -0.00103989 -1.96393e-18)
(-4.69457e-05 -6.10045e-05 -1.16587e-18)
(0.103685 0.000689376 -1.89418e-18)
(-0.117964 -0.246411 -6.27094e-18)
(-0.00757932 -0.00331297 1.19983e-18)
(0.109497 -0.210659 5.94645e-18)
(0.0029676 -0.00241851 1.71586e-18)
(0.0725835 -0.0107291 -1.76739e-18)
(-0.0149191 -0.0641259 1.16697e-19)
(0.000279701 9.76011e-06 2.34142e-19)
(0.0610108 -0.204068 -2.12157e-17)
(9.4685e-05 -5.61579e-05 2.8929e-19)
(0.00943142 -0.0017373 8.69049e-19)
(-0.000413824 2.88258e-06 4.26488e-19)
(0.0028444 0.0211226 -1.60597e-18)
(-2.80914e-05 6.51554e-05 3.56066e-19)
(-0.000460503 0.00131318 2.2495e-19)
(-0.0532732 0.103775 1.19751e-17)
(0.000106552 0.000340504 -2.76008e-19)
(-0.000144559 1.07843e-05 -2.71638e-19)
(8.49558e-06 -0.00309215 5.70491e-19)
(-0.00689335 -0.0260556 -5.3964e-19)
(0.00367172 0.0184352 -1.17859e-18)
(0.0100189 -0.000933781 -6.80465e-20)
(-0.101292 -0.0436761 -3.87535e-18)
(0.0841025 -0.111362 4.48402e-18)
(-0.00104892 -0.000949631 1.10481e-19)
(6.02162e-05 -1.34204e-06 8.44686e-19)
(-9.03417e-05 1.1586e-06 4.90901e-19)
(-0.00152136 0.00242166 7.19967e-20)
(-0.0312617 -0.213334 2.15572e-18)
(-0.000108082 -0.000377412 -3.047e-19)
(0.00340097 -0.00170928 -9.99628e-19)
(-0.0545972 0.0482184 9.53721e-18)
(0.000488793 -0.000210305 -8.80198e-20)
(-0.0181707 -0.00578805 5.54856e-18)
(-0.00234942 0.0260227 -4.42219e-18)
(0.00106566 -8.31053e-05 1.33376e-19)
(-0.00541068 0.0222223 6.67698e-19)
(-0.0183713 0.113747 2.25861e-17)
(0.0055748 -0.326127 1.27528e-17)
(0.00118202 -9.02635e-05 3.34628e-19)
(0.000332335 -0.00411226 3.41368e-19)
(-0.00729794 -0.329186 -8.97014e-18)
(0.000268378 -0.000167808 1.86067e-19)
(-0.000423387 2.4889e-05 1.78937e-19)
(0.000278284 0.000418038 5.1052e-19)
(9.08673e-05 7.85311e-05 -6.43463e-19)
(0.00377017 -0.002142 -2.16435e-18)
(0.00432005 -0.00641762 -1.98471e-18)
(0.000542381 -0.000282451 2.40074e-18)
(-0.000506687 1.32376e-05 -2.06395e-19)
(-0.00461272 0.0403912 -2.2963e-19)
(-0.00511806 -0.00879218 6.57423e-20)
(-0.00187648 0.00272327 1.07898e-19)
(-3.2615e-05 3.51294e-05 -1.19332e-21)
(-0.279382 -0.165976 -4.46048e-19)
(-0.000229728 9.18725e-06 9.12893e-19)
(0.0465571 -0.197411 1.98662e-17)
(0.00300577 -0.0186035 -9.08149e-19)
(0.000701082 0.00012319 -2.3617e-19)
(0.00305037 -0.00597267 1.40621e-18)
(0.0216176 -0.030113 6.1916e-19)
(-0.00136174 -0.000514687 5.10541e-19)
(-0.0480115 0.0973808 7.27557e-19)
(-0.0166372 0.0148054 -2.31964e-18)
(0.0103408 0.276326 4.17385e-18)
(-0.00087114 8.57928e-06 5.34002e-19)
(-0.151246 -0.0309909 3.98129e-18)
(-0.0226804 -0.0828664 2.37748e-20)
(0.0340241 0.039436 5.036e-19)
(-0.000567958 -4.20589e-06 7.80203e-19)
(0.0619801 -0.00637341 7.70499e-18)
(-0.0011064 -0.000921796 1.47339e-19)
(-0.0354721 -0.093926 -1.40069e-18)
(-0.00373056 -0.0249673 -5.39569e-19)
(-0.001875 5.65752e-05 1.0735e-18)
(9.53919e-05 -0.000150324 7.87246e-19)
(-0.0206312 -0.00474582 -1.13219e-17)
(-0.000408287 -9.55226e-07 -1.16748e-18)
(0.0409168 0.0448371 -1.42027e-18)
(0.0326738 0.0329608 1.16514e-18)
(0.0017641 5.15156e-06 -6.12471e-19)
(0.0180059 0.00799243 -6.19897e-19)
(-0.00012132 1.75082e-05 -2.04952e-20)
(0.0749731 -0.122299 1.52831e-18)
(-0.0014716 -2.01958e-05 -1.04932e-21)
(-0.140395 -0.0438685 -3.24358e-18)
(-0.0574671 0.151607 2.83941e-19)
(-0.00670871 0.0183597 4.49577e-19)
(-0.0662507 0.16324 -1.54933e-18)
(0.0172036 0.0114167 7.61314e-19)
(-0.00159936 -2.35469e-05 6.18622e-20)
(-0.0315018 -0.0858656 1.48796e-19)
(-0.00104176 0.000452326 2.57438e-19)
(-0.00557819 -0.00335201 -1.22005e-18)
(0.0212323 0.018576 -1.23734e-19)
(0.00197939 0.00107896 -3.16232e-19)
(-0.000164323 3.90109e-05 -6.75209e-20)
(4.90005e-05 -0.000565522 1.18378e-18)
(-0.00403298 -0.0092093 -1.43652e-18)
(3.73536e-05 -3.21062e-06 4.35314e-19)
(0.000542097 -0.000153127 2.22657e-19)
(-0.00305258 -0.0133432 -3.36687e-18)
(-0.00237823 -0.00492921 8.95109e-20)
(-0.0183999 0.288989 -3.70443e-17)
(0.0079853 -0.00144208 -1.16993e-18)
(-0.014302 -0.0145222 1.05331e-17)
(0.106252 0.0306782 2.13453e-18)
(-0.0174302 0.169146 -2.38589e-18)
(-5.07824e-05 6.69361e-05 2.88297e-20)
(-0.00127543 0.00312443 -1.54384e-20)
(0.0517327 0.193758 3.84215e-17)
(0.00145687 7.92988e-06 1.46517e-19)
(-0.0229272 0.148795 1.88106e-18)
(0.00724167 -0.000716027 8.03535e-19)
(-9.11523e-05 -0.00334495 1.67525e-18)
(0.00119546 4.58587e-06 5.67302e-19)
(0.00134943 -0.00584608 2.84612e-19)
(0.000733722 0.000153985 -7.16455e-19)
(-0.0526223 0.011274 -6.0041e-19)
(0.124736 0.0187128 1.31945e-18)
(0.000305713 0.00100234 -6.07741e-19)
(-0.00241258 -0.00456917 -1.80808e-19)
(-0.000606401 6.37651e-06 -4.47757e-20)
(-0.000640832 1.4822e-05 4.29289e-19)
(-0.0665764 0.305439 -1.16475e-18)
(-0.00149831 -4.29426e-05 4.21665e-20)
(0.0191696 0.00332352 -1.30781e-18)
(0.000273321 -8.71699e-05 -1.66352e-19)
(-0.000316551 -3.84656e-05 1.96531e-19)
(-7.17604e-05 7.19273e-05 5.47889e-19)
(-0.00314006 -0.0214934 3.17247e-19)
(0.127415 0.0719879 3.64908e-18)
(0.017768 0.0062315 4.15586e-19)
(-0.0459449 0.00951781 -3.75919e-19)
(-0.0020024 -4.86746e-06 1.39582e-19)
(-0.000617078 -0.000684178 -9.83045e-19)
(-0.00280956 -0.000107889 -4.37612e-19)
(-0.330171 -0.354759 -7.59616e-18)
(0.000652987 0.000506686 1.05574e-18)
(-0.327297 -0.180295 -3.32316e-19)
(-0.00104287 -0.000160851 -5.10787e-19)
(-0.00520836 0.0131721 5.29309e-19)
(-0.00206595 -0.00163912 -2.20001e-18)
(0.000822917 -0.00014021 -2.1474e-19)
(-0.00199339 -5.77163e-06 -8.2431e-19)
(-0.00177676 -0.00682477 -4.13958e-18)
(0.000408446 -7.37291e-05 4.8111e-19)
(0.0394422 0.124397 1.30678e-19)
(-0.0272606 0.0837538 1.96602e-18)
(7.99595e-05 -0.00152589 -2.18437e-18)
(0.00657062 -6.60888e-06 -2.86018e-19)
(-0.0514903 0.220073 2.1387e-18)
(-0.0141173 0.0107646 -3.7813e-19)
(0.000195488 0.000101925 -2.09228e-19)
(-0.00110044 0.0168264 -1.90459e-19)
(-0.000321181 7.43528e-06 2.07369e-18)
(0.0060284 -0.0163567 -2.00967e-18)
(-0.00754355 0.00509916 3.57789e-19)
(0.00169409 -1.30454e-06 1.34227e-19)
(0.0232565 0.177316 2.69585e-18)
(0.0205677 0.0101809 -5.6484e-19)
(-0.00117225 4.41691e-05 -9.45286e-19)
(-0.0614016 0.0344446 -7.27401e-19)
(-0.00462975 -0.00443277 4.466e-19)
(-0.00259845 -0.000117151 5.57755e-20)
(-0.000121187 1.36835e-05 -3.68981e-19)
(0.00163657 -0.00274394 -1.34973e-18)
(0.0366556 0.0358041 -1.89087e-18)
(-4.93682e-05 3.36833e-05 2.80755e-20)
(0.106707 0.00213216 7.03457e-19)
(-0.0119523 0.0124852 7.5939e-19)
(0.0918356 0.00744541 5.11681e-19)
(0.00062903 0.000699668 2.96662e-22)
(-0.00205195 0.00353999 -1.23121e-20)
(-0.0663536 0.0260717 1.1383e-18)
(0.041836 0.148288 2.89311e-18)
(-0.00074406 -4.2922e-06 5.25007e-19)
(-0.000599489 3.67795e-05 3.03175e-19)
(-0.000644328 4.42296e-05 -2.36453e-20)
(-0.00108994 0.000172128 -3.1848e-19)
(-0.00818726 0.00345474 -2.70297e-19)
(-0.00431166 0.0157917 -1.91532e-19)
(-2.60484e-05 6.32327e-05 -3.39336e-19)
(-0.00591476 0.0350495 1.13291e-18)
(-0.0443234 -0.00965443 -7.53415e-18)
(-0.000281066 5.0663e-05 -7.27386e-19)
(-0.000143042 -4.04946e-06 1.22826e-19)
(-0.325899 -0.193855 7.95842e-19)
(-0.00515909 0.0109536 -3.00401e-19)
(0.028465 -0.0436882 -3.28991e-19)
(0.00757394 0.0436774 -2.50528e-19)
(0.00176656 5.24184e-06 5.68494e-19)
(-0.00825107 -0.000647023 -2.16447e-18)
(-8.37156e-05 0.000418926 -1.0765e-19)
(-0.0034816 -0.00424288 -6.60115e-19)
(0.00680627 -0.0145375 1.45453e-18)
(-0.001015 -0.000956434 5.56762e-20)
(-0.00210812 0.000212268 -1.09413e-19)
(0.00777308 0.0128124 -3.49184e-19)
(9.71314e-05 -9.18073e-06 3.97276e-19)
(-0.0323129 -0.0587136 2.67325e-19)
(0.00232428 0.0196093 1.51039e-18)
(-0.0313047 -0.260018 -4.07567e-18)
(0.0297761 -0.0329384 1.46712e-20)
(0.00141223 0.000162976 5.23706e-19)
(-0.0699601 0.0173977 -8.46414e-18)
(-0.00619049 -0.0654703 7.75689e-19)
(0.00681279 -0.0204537 -1.5795e-18)
(-6.24348e-05 7.5229e-05 -3.96804e-20)
(-0.00750122 0.00526339 5.16404e-19)
(-0.00105937 -3.27904e-06 5.05646e-19)
(-0.00019752 6.16987e-05 -1.08371e-18)
(-9.72851e-05 0.000272498 -3.28683e-19)
(-0.000186813 9.68057e-07 -1.10798e-18)
(-0.00430533 -0.000595941 -6.23912e-19)
(0.00381296 0.284349 1.67466e-18)
(-0.00169499 -0.00100939 -4.88676e-19)
(0.0101529 0.0198349 2.2734e-18)
(-0.00399051 -0.00162068 -1.22606e-19)
(0.00115889 -0.000437334 1.29521e-18)
(0.0780899 -0.0225983 -5.88642e-18)
(-0.0106108 0.000245049 1.34024e-18)
(-0.000778531 0.000704395 1.08938e-19)
(-0.000225 1.96859e-06 -2.84184e-19)
(-0.179512 0.0345607 -8.53974e-19)
(-8.92422e-05 -9.50416e-07 -2.32143e-19)
(-0.00100637 0.00048521 -1.52539e-19)
(0.0011583 -9.63829e-06 7.98237e-19)
(0.00345543 -0.0015648 1.52831e-18)
(-0.0643553 0.0607813 1.77365e-18)
(-0.0666744 -0.00477636 -1.5161e-18)
(0.00277685 -0.00196499 1.92729e-19)
(-0.000996471 -2.80598e-06 5.42916e-20)
(-0.00350462 -0.00250573 -5.73349e-19)
(-0.00395665 -0.00174671 -8.2426e-19)
(0.033032 -0.0338998 -1.56863e-17)
(-2.21933e-05 4.1144e-05 -1.67004e-20)
(-0.00161657 -2.07136e-06 -7.4791e-20)
(0.000775101 0.00055329 -1.27754e-18)
(-3.12827e-05 5.55282e-06 5.45244e-21)
(0.0644784 0.005591 8.6049e-20)
(0.000528774 0.000686388 8.33265e-19)
(-0.00189651 0.014575 2.01602e-18)
(0.0812196 0.0331745 6.15539e-19)
(0.0156021 0.438148 -1.53136e-18)
(0.0618652 0.000482322 1.65537e-19)
(-0.0013673 0.000330888 2.07601e-19)
(0.0862519 0.0376626 1.32211e-18)
(0.0184493 0.0209956 -2.18044e-18)
(0.000103962 0.000367028 -1.15932e-18)
(-0.020774 -0.0298169 -3.04341e-19)
(-0.000248277 3.75132e-05 8.57385e-20)
(-1.73183e-05 3.12644e-06 6.2956e-19)
(-0.000536117 5.25004e-06 4.26686e-19)
(-0.00104189 0.000373938 -1.20145e-18)
(9.11221e-05 7.94998e-05 8.04112e-19)
(-0.000909522 -0.00054977 1.18827e-19)
(0.153972 -0.0569971 -6.88217e-18)
(-0.0015536 -0.00102968 -1.06837e-19)
(-0.00795226 -0.00648436 -1.4052e-19)
(-0.0786989 -0.00544655 1.47186e-18)
(0.12327 -0.00161917 -2.30513e-19)
(-0.000341926 2.95211e-05 -6.25254e-20)
(-0.0331445 -0.0208315 -3.89848e-18)
(0.00764957 -3.07952e-06 -4.05687e-19)
(-0.0232612 -0.00826049 8.27046e-18)
(-0.000599822 -4.16574e-05 -3.86884e-19)
(-0.0527283 0.199445 1.98781e-18)
(-3.57739e-05 -0.00277348 2.58612e-19)
(0.0890848 -0.0312465 7.29417e-18)
(-0.0684437 0.302817 1.12921e-17)
(0.00119489 -0.000592436 -1.23331e-18)
(-0.000780231 -0.0587819 1.91546e-18)
(0.00125009 -0.00124168 -2.60641e-19)
(0.0958216 0.0270815 -4.43019e-19)
(-0.00128742 -0.000628054 5.09046e-19)
(-0.0200092 -0.202515 -1.0292e-17)
(0.0108362 -0.00570408 3.93756e-19)
(0.00324526 0.170486 1.36421e-18)
(-0.00260983 -0.000939013 -2.78988e-19)
(-0.0396536 -0.106151 5.48697e-18)
(0.00116349 0.00248462 -9.85407e-19)
(0.0133835 -0.000783371 1.58776e-19)
(0.0505992 -0.0371483 2.01457e-18)
(9.41992e-05 3.17379e-05 -3.90329e-19)
(0.00095034 0.00217237 1.89401e-19)
(0.000392789 7.07081e-06 -7.29108e-19)
(-0.0762191 -0.00806631 -6.40854e-18)
(0.000317023 7.95631e-05 7.4572e-19)
(-0.000502234 -3.22114e-06 4.32984e-19)
(-0.0222277 -0.0696588 -2.48203e-19)
(0.00471133 0.0016921 1.07408e-18)
(0.0101086 0.0245622 2.59449e-18)
(-0.0201584 -0.18866 1.90816e-17)
(-0.00153597 -4.37483e-05 1.78662e-19)
(0.00417502 -0.021005 4.98876e-19)
(0.00425795 0.0020042 -2.54375e-19)
(0.000113911 8.81501e-05 -7.54977e-20)
(0.0113535 -0.00500951 -2.80858e-19)
(0.015773 0.0237837 4.67471e-18)
(0.00100612 -0.0012392 2.45029e-20)
(0.00245181 -0.00133274 -4.96071e-20)
(0.0805665 -0.100962 5.80676e-18)
(-0.000816604 0.016896 1.72181e-18)
(0.000185984 -1.65856e-06 -4.00694e-20)
(0.132034 -0.103657 -1.66894e-19)
(9.44833e-07 -3.85163e-05 -2.27502e-19)
(-0.00648271 0.00189372 -1.08771e-19)
(-0.00744491 -0.0158382 2.98714e-19)
(-0.295639 -0.157262 2.64308e-18)
(-0.274935 -0.303344 9.59303e-18)
(-0.014968 0.0636265 -2.08953e-18)
(-0.0347498 -0.104445 3.08186e-19)
(0.0705881 -0.148891 -2.18113e-18)
(-0.0348025 -0.0570262 -3.20716e-20)
(-0.00041317 -3.62616e-05 6.13956e-20)
(-0.0074988 0.00890036 2.06365e-18)
(-0.0673141 0.00770275 -5.3141e-19)
(-0.072406 -0.000448456 1.65385e-19)
(-0.0174503 -0.0284962 2.85648e-18)
(0.000990147 -1.47054e-05 -7.41374e-22)
(-0.000211661 0.000280009 6.22369e-19)
(0.0106785 0.0152274 1.26244e-20)
(0.108136 -0.088188 9.94526e-18)
(-0.000594092 2.11196e-05 2.53127e-19)
(-0.000244021 0.000967259 5.92943e-20)
(0.00134494 1.61082e-06 8.15468e-19)
(0.000128712 1.13893e-05 -2.4701e-19)
(-0.00053084 0.00171059 3.42858e-19)
(-0.000236735 0.00200436 5.53776e-21)
(-0.000714909 0.000249968 1.17633e-18)
(3.99252e-05 -4.34893e-07 -3.21603e-19)
(0.00569947 0.0199333 -3.70326e-19)
(-0.000370287 -0.00125073 -1.73149e-18)
(-0.00691363 0.000462704 1.41922e-19)
(-0.00102046 0.0228911 7.32697e-19)
(0.115096 -0.116139 3.96674e-18)
(0.00023424 -0.000224288 -2.72489e-19)
(-0.0703577 0.126998 1.88765e-18)
(0.0751362 -0.139111 -1.1701e-17)
(0.081318 0.0348596 7.48504e-19)
(1.98598e-05 -1.20536e-05 -1.20244e-18)
(-0.00421722 -0.00319047 8.13858e-18)
(-0.000119791 -5.55889e-06 1.34283e-19)
(0.126167 0.00562237 -8.75927e-19)
(-0.00231639 -9.97252e-05 -7.95628e-19)
(-0.015822 0.0106077 1.50788e-19)
(-0.00245884 -0.000943434 3.5184e-18)
(0.0784773 0.0103928 -2.05178e-18)
(0.000151615 9.18674e-06 -2.07497e-20)
(0.000594758 -0.00576262 -2.04698e-18)
(-0.000393899 0.00090514 8.71318e-20)
(-0.00665846 0.00705071 -4.54709e-19)
(0.0427714 -0.160689 -1.8405e-18)
(0.000272525 -8.30779e-07 4.3914e-19)
(-0.00083378 -3.21956e-05 -1.81053e-19)
(-3.39628e-05 -4.89135e-05 -9.29936e-19)
(-0.0679836 -0.0763965 -2.58539e-17)
(0.000292197 -7.05128e-05 1.75599e-20)
(-0.0114937 0.00741911 4.77573e-19)
(0.0108328 -0.0338289 -7.9617e-19)
(0.00692945 -0.0581045 2.25563e-18)
(0.00111863 -0.000372923 1.05991e-19)
(-0.0123433 0.0101681 -7.51984e-19)
(0.011517 0.199695 -2.23304e-18)
(0.18555 0.0156764 -6.19664e-18)
(-0.00137838 5.96881e-05 -2.68311e-19)
(-0.00102281 -1.13834e-06 4.22848e-19)
(0.0208031 0.143377 -3.79319e-18)
(-0.0788841 -0.129709 1.19732e-17)
(0.0279554 -0.0117798 2.98541e-20)
(-0.0736003 0.0300956 1.17078e-19)
(-0.000473301 2.75547e-06 -2.02776e-19)
(-0.0068519 0.0210164 -1.77984e-19)
(0.0116421 0.0149934 -8.2366e-19)
(0.0128392 0.00730905 -4.55753e-19)
(0.00598004 -0.000478241 -2.49217e-18)
(-0.0241556 -0.113539 -6.64895e-19)
(0.000987069 -0.000430528 6.8056e-19)
(0.000539661 -2.9386e-05 -2.97831e-20)
(0.000648683 0.000615324 1.16223e-19)
(0.0163647 0.196508 -4.53059e-18)
(-0.00297455 -0.000112312 4.04816e-20)
(0.0859249 0.0301634 -1.33793e-18)
(-0.00277733 5.01757e-06 -1.25255e-19)
(-0.00117268 -6.17198e-05 4.28098e-19)
(4.15504e-05 -0.000272848 4.5094e-19)
(0.0131623 0.000727241 -4.31555e-19)
(-0.0699676 0.0450554 -8.6337e-20)
(0.00212686 0.000953731 3.13272e-19)
(0.00256067 -0.00115588 -5.97799e-19)
(-0.0538804 0.131594 1.44758e-18)
(-0.0130021 0.0186211 -3.80649e-19)
(-0.00903846 0.0209648 -9.43725e-19)
(0.00153213 0.000845461 -1.50166e-19)
(0.00129798 0.000594756 -1.81914e-19)
(-0.00547249 0.0245912 1.31371e-19)
(0.184039 -0.0123053 4.36904e-18)
(-0.00153551 0.00036694 2.69449e-20)
(0.000631129 4.34387e-05 -5.87863e-19)
(0.00961346 -0.0281184 -7.84284e-20)
(-0.00186723 3.99664e-05 1.03134e-19)
(0.000750572 0.000200578 -2.98172e-19)
(-0.0368609 0.0488119 9.20978e-19)
(0.000257169 9.68621e-05 3.27158e-19)
(0.0900965 0.111137 -3.0016e-17)
(-0.000936547 -7.49913e-06 1.08048e-19)
(0.0245368 0.0193936 2.38625e-19)
(-0.00389144 -0.00235324 -8.0353e-20)
(-0.0454326 0.196429 -2.34448e-18)
(-0.00318486 -0.000104471 -5.17381e-20)
(-0.00463359 -0.00485183 1.8402e-18)
(-0.00242111 -1.46081e-05 -8.71505e-21)
(0.000237544 -0.000160344 -1.60173e-20)
(-0.0537416 0.117754 -5.00423e-19)
(-6.74584e-05 8.84202e-05 2.73046e-20)
(0.087829 0.0111479 -3.49504e-18)
(0.0270823 -0.0145703 6.48656e-19)
(0.000347986 1.02807e-05 1.89501e-20)
(-0.00400334 -0.00415718 -6.43219e-19)
(-0.0936526 -0.307125 -2.72444e-17)
(0.0864738 -0.0645457 -2.56159e-18)
(7.00519e-05 0.0188699 2.15454e-20)
(0.000389677 -1.68719e-06 9.97434e-19)
(0.00057329 7.54963e-05 -1.70008e-19)
(-0.000205786 4.24449e-05 5.84857e-19)
(-0.00124291 -0.000359235 1.01277e-18)
(-0.00652194 0.00349113 -1.66936e-19)
(0.000851825 0.00059199 1.16095e-20)
(-0.0917379 -0.0454861 4.16204e-18)
(0.000250594 0.000108973 -9.34763e-20)
(-1.6361e-05 1.70421e-05 7.18841e-21)
(0.0310568 0.101039 1.76415e-18)
(0.00253208 -0.00651581 -2.81594e-19)
(-0.00777884 0.0049065 -1.11984e-18)
(-2.12335e-06 -2.0553e-06 -6.45085e-19)
(0.00048042 -1.01818e-05 -1.1377e-19)
(0.0354705 0.0660988 7.79339e-19)
(-0.0723636 0.0431538 -9.93676e-20)
(-0.00342377 -0.00238168 -1.94704e-19)
(-0.0270365 -0.15068 4.04174e-18)
(-0.00241333 -0.000101921 1.18801e-18)
(-0.00530966 -0.00673993 -6.75364e-19)
(0.000620954 -4.47762e-05 7.4704e-19)
(0.000200591 7.96626e-06 4.48021e-19)
(0.000308896 7.64239e-05 7.91158e-19)
(-0.000557166 0.000104876 -5.72513e-19)
(-0.00124627 0.000361309 2.78305e-19)
(-5.84148e-05 4.02714e-06 -3.62655e-19)
(-0.0426319 0.22295 -1.95029e-18)
(-0.00304638 -0.000830385 -4.03382e-19)
(0.0155022 0.0627182 -2.05361e-18)
(-0.000540823 -9.9859e-05 9.32579e-21)
(-0.00131035 -0.0032445 -7.43931e-19)
(-7.6752e-06 6.07584e-05 2.39365e-19)
(-0.00938039 0.0251018 -1.47034e-18)
(0.0983198 -0.0487264 -2.00793e-18)
(0.000165823 3.68517e-05 -3.47834e-19)
(0.00050355 -0.000125628 -7.3866e-19)
(0.00463743 0.0395512 -3.29539e-19)
(-0.0102533 0.0163938 7.89234e-20)
(9.17156e-05 4.2168e-05 -1.09491e-18)
(0.0451656 0.346565 -2.12293e-17)
(-0.0012453 1.60141e-06 -4.40843e-19)
(0.00175852 0.0148363 1.29368e-18)
(-0.000308248 -2.42835e-05 4.0236e-19)
(0.000313034 -1.76275e-05 -8.58064e-21)
(0.000655039 -0.000135885 -5.29894e-20)
(-0.149818 0.0525223 -1.58051e-18)
(3.61674e-06 5.08351e-05 -4.1747e-19)
(0.000106117 -0.000432667 -1.58978e-20)
(0.000258284 0.000868842 -1.16905e-18)
(0.0261274 0.320661 2.15557e-17)
(-3.4695e-05 3.52891e-06 -1.70109e-20)
(-0.000167888 0.000146957 -3.31132e-19)
(-0.000262877 -7.87686e-06 9.15172e-19)
(-0.0358435 -0.0539367 -1.6444e-19)
(0.000351711 3.05221e-05 1.76914e-19)
(0.000650455 -0.000215865 1.24163e-19)
(0.000238679 5.44564e-06 -2.37445e-19)
(0.000219386 -0.000226393 6.79139e-21)
(0.00640572 -0.00103132 2.04167e-18)
(0.000386143 -0.000192446 3.48497e-19)
(-0.000739305 -0.0029066 6.83928e-19)
(0.000390561 -5.61833e-05 -5.06949e-19)
(-0.0741494 0.302794 -1.83338e-17)
(-0.0872702 -0.0178297 4.60839e-19)
(0.050441 -0.121303 -9.07361e-18)
(-0.00120849 -0.000926365 -7.48286e-20)
(-0.00301041 -0.00262797 6.21732e-18)
(-0.00149819 -2.31467e-05 -3.33974e-21)
(-0.0511638 0.0211954 3.51595e-18)
(0.00494152 -2.70442e-06 -7.64903e-20)
(-0.0304187 0.00318111 6.05928e-18)
(0.00598915 0.0591341 2.86917e-18)
(0.0600412 -0.0780178 6.92858e-19)
(-0.00121578 0.0146725 -7.4234e-20)
(-0.0401185 0.134156 -3.73565e-18)
(-0.00294301 -8.98501e-05 -6.42146e-19)
(-0.0014635 0.000260899 2.95195e-19)
(-0.0132652 0.235183 1.64722e-17)
(-0.0229097 -0.0482985 -7.89135e-19)
(-0.00765434 -0.00248818 6.59238e-19)
(-0.0584006 -0.0221788 -2.1754e-19)
(-0.00193063 -0.000523973 -2.74852e-18)
(-0.0768735 0.0384795 6.76543e-19)
(-0.000853237 -3.93625e-05 -1.5728e-18)
(-0.00169062 0.000172756 1.98677e-19)
(0.000301375 -0.000239061 9.98569e-20)
(1.99089e-06 -5.57122e-05 3.65395e-19)
(-0.000973582 -2.64572e-06 -5.30074e-19)
(-0.0121156 0.238816 -2.23937e-18)
(6.69836e-05 -0.00160035 6.26117e-19)
(8.2894e-05 -1.10729e-06 2.30257e-20)
(0.0909268 0.00867956 -1.18032e-19)
(0.00166271 -3.33692e-06 2.6498e-20)
(-0.045798 0.0305872 2.20396e-18)
(-0.000934973 0.00175385 6.86085e-20)
(0.000771215 -0.00122038 3.58939e-19)
(-0.00847991 0.00711358 6.95106e-19)
(-0.000627232 5.29439e-06 6.11692e-19)
(-0.0455398 -0.0420888 -3.31037e-18)
(-0.00079985 0.000330625 1.29923e-19)
(0.000662944 5.7784e-05 -2.71105e-19)
(0.0171657 0.0528134 4.7501e-19)
(-0.00139857 -4.01153e-05 -2.81276e-19)
(-3.56799e-05 2.21242e-05 7.06946e-20)
(-0.000194148 -7.34087e-06 2.52795e-19)
(-0.000937681 -1.27281e-05 -9.47709e-19)
(-0.000890796 -4.17448e-06 2.408e-19)
(-0.0135231 -0.0772086 1.63116e-19)
(-0.0312222 0.0593033 -2.50088e-18)
(-0.0911035 -0.0410226 -1.22983e-18)
(-0.00180532 -0.00045126 -1.10004e-18)
(-0.000390893 -0.000306332 1.34382e-18)
(-0.00109539 4.74568e-05 3.43811e-19)
(-0.0735401 0.0560854 -6.04388e-19)
(-0.00271911 0.0029925 7.14337e-20)
(0.00146865 0.00064779 9.27346e-20)
(-7.49984e-05 1.56077e-05 1.6124e-19)
(-0.00101821 0.00012244 -1.21172e-18)
(-0.0480374 0.134974 1.57971e-18)
(-0.326811 -0.344246 1.92114e-17)
(-0.00255154 0.00958592 4.17459e-19)
(-0.000533199 0.000366321 3.86948e-20)
(-0.00252248 -4.6002e-06 -3.89898e-19)
(-0.102874 0.303822 -1.8977e-17)
(-0.00577314 -0.0055736 -9.09503e-19)
(-0.0043337 -0.000100771 -1.09646e-18)
(-2.27258e-05 0.0251672 -8.18246e-19)
(-0.00955867 0.121319 3.68741e-19)
(0.102608 -0.00673923 -3.03504e-19)
(-0.0586857 0.107369 3.50093e-19)
(-0.00086546 -7.47361e-05 -3.47471e-19)
(0.000185557 -1.25074e-05 -8.5441e-19)
(-0.000886501 0.000429273 3.53968e-19)
(-0.049653 -0.0834432 -1.05041e-18)
(0.000469755 -8.44632e-05 -7.38498e-20)
(-0.00394228 -0.00299454 5.12641e-19)
(-0.00138879 -0.000365372 -1.31333e-19)
(-0.000111415 9.99576e-05 -2.15946e-20)
(-0.00828791 0.00339332 -6.55906e-19)
(-0.0016345 -0.00123178 -7.2537e-19)
(-0.179158 0.0473001 -2.74002e-18)
(-0.0424081 0.123903 -1.73266e-18)
(0.000189733 0.000131621 -2.53848e-19)
(0.000112809 -0.000129105 -3.50436e-19)
(-0.000327503 -2.17782e-05 2.62341e-19)
(-0.00879506 0.0558472 1.93345e-18)
(2.16073e-05 -3.72612e-05 -1.40646e-18)
(-0.0397887 -0.204686 -2.45331e-18)
(-0.00279526 -0.00246755 1.63793e-19)
(-0.299798 -0.22673 7.40414e-18)
(0.00022692 -0.000196058 -7.96868e-19)
(-0.000878274 -0.000616779 -9.48304e-20)
(0.000117591 5.33999e-05 3.37369e-20)
(0.00011008 -3.35721e-05 5.78888e-20)
(-0.000794916 0.000205264 8.58261e-20)
(-0.000242591 0.000378485 -1.03791e-20)
(-0.00238832 -0.000118236 6.23416e-19)
(-0.00133386 -0.000983045 -4.31298e-18)
(-0.00943818 -0.004598 6.63218e-19)
(0.000789931 -0.00507898 2.16492e-18)
(0.0486712 -0.125653 -1.13876e-18)
(-0.0023903 -7.78571e-05 -1.05295e-22)
(-0.0181517 -0.0356617 1.49541e-18)
(-0.00420036 0.132747 3.14473e-19)
(0.0058975 9.44736e-07 -1.01595e-18)
(0.0872529 -0.104678 -4.78686e-18)
(-0.000248216 -4.85126e-05 1.17853e-19)
(0.00101835 0.000162737 -4.49576e-19)
(-0.000414186 -0.00325614 -8.37033e-19)
(0.000116565 5.42881e-06 -1.11519e-20)
(-0.0177321 -0.171179 3.60245e-18)
(-0.00114096 -0.000206961 -1.62491e-19)
(-0.00119054 -0.000926954 5.8762e-19)
(5.56854e-05 -0.000314767 -7.33881e-20)
(-0.0268094 0.073365 8.09511e-19)
(-0.000325006 -0.000579971 5.31382e-19)
(-0.0496272 -0.0886796 -2.64367e-18)
(0.0210564 -0.0158096 2.053e-18)
(-0.000467995 -0.000245237 -2.00865e-19)
(0.0490718 0.0366009 6.10476e-19)
(-0.0531568 -0.0567954 4.13476e-18)
(-0.00115698 0.00144353 -1.87532e-20)
(-3.56836e-05 -0.000279955 5.14547e-19)
(-0.0551623 -0.0289312 -1.3915e-18)
(-0.00163224 -2.29305e-06 -2.48196e-19)
(0.0926837 0.020324 -7.52081e-19)
(-0.00582263 -0.00613284 -2.85428e-19)
(0.0116597 -0.0137279 -5.64044e-19)
(-0.0106527 0.00267701 4.29518e-19)
(-0.00185259 -0.000409019 -1.59637e-18)
(-0.0017558 1.7676e-05 -4.43091e-19)
(0.00125709 0.000220297 -9.21244e-19)
(-0.000158128 0.0134658 4.2129e-19)
(0.00106452 -0.00378782 -2.88653e-19)
(0.0402458 -0.00120558 -3.4977e-20)
(0.0953035 -0.0293452 3.04726e-18)
(-0.000121336 0.000115569 -8.36514e-20)
(-0.00123739 -0.000946843 8.62054e-19)
(0.00794801 -4.076e-06 9.96425e-19)
(-0.004619 -0.0169181 -2.20582e-19)
(-0.00178836 -2.82033e-06 -2.34939e-20)
(-0.0540499 -0.175325 -4.63969e-18)
(-0.00161175 -0.000677574 5.40023e-19)
(-0.0020743 0.000432854 -1.68104e-20)
(0.0144487 0.0614823 7.34743e-20)
(-0.000277435 -9.61706e-05 -5.36319e-19)
(-0.0488662 -0.0295777 3.38595e-18)
(0.0152432 0.00733386 -2.6194e-19)
(-0.00240916 -1.04668e-05 -2.44649e-20)
(-0.0219271 -0.108574 -7.40578e-19)
(-0.000948817 0.00308583 -5.96487e-19)
(-0.000826244 -0.000520872 5.31765e-19)
(-0.00064151 -0.00212133 -1.09117e-18)
(0.0150431 0.0195076 1.56726e-18)
(0.000333387 0.000763001 -1.9371e-19)
(0.109471 -0.0158612 1.78367e-18)
(-0.00189066 -0.000902485 3.5775e-18)
(0.011765 0.0208297 -4.6004e-19)
(-0.00465411 -0.00303472 -1.13097e-18)
(-0.0639667 -0.204091 -3.43805e-18)
(-0.000328162 -0.00187124 9.92906e-19)
(0.0111899 0.00559148 2.18196e-19)
(0.00396676 0.00133953 6.4504e-19)
(-0.000212949 -0.00106814 8.42538e-19)
(0.0205645 -0.0133325 -3.01205e-18)
(7.51883e-05 -5.0767e-05 -9.40925e-20)
(0.0144198 0.0160154 -3.04374e-19)