/*--------------------------------*- C++ -*----------------------------------*\
| =========                 |                                                 |
| \\      /  F ield         | OpenFOAM: The Open Source CFD Toolbox           |
|  \\    /   O peration     | Version:  v2012                                 |
|   \\  /    A nd           | Website:  www.openfoam.com                      |
|    \\/     M anipulation  |                                                 |
\*---------------------------------------------------------------------------*/
FoamFile
{
    version     2.0;
    format      ascii;
    class       surfaceScalarField;
    location    "900";
    object      meshPhiCN_0;
}
// * * * * * * * * * * * * * * * * * * * * * * * * * * * * * * * * * * * * * //

dimensions      [0 3 -1 0 0 0 0];
oriented        oriented;


internalField   nonuniform List<scalar> 
14885
(
-0.000301763
-0.000897698
0.00119418
-0.00503661
0.00276704
0.00236762
-0.000164704
0.00153277
-0.00123663
0.00164082
-0.00224967
0.000475697
8.30404e-05
-0.000613567
0.000792146
0.003026
-0.0006394
-0.00241528
0.000670578
0.00262617
-0.00312502
-0.00213712
0.00254563
-0.000396813
-0.000998985
0.000729928
0.000336959
-0.00132511
0.000534688
0.000858801
0.000494064
0.00206647
-0.00260486
-0.00239469
-0.00256161
-0.000344167
0.00235501
-0.00188364
0.000508096
-0.00117972
0.000737317
-0.00158232
0.00044802
0.00104944
0.0012784
-0.000716376
-0.00245787
0.00222265
0.000195615
-0.00202214
0.00246659
-0.000788685
0.000201151
0.00072283
0.00141606
-0.000409993
-0.00101952
-0.0020404
0.00181469
0.000819062
-0.00111589
0.00249172
-0.000799461
0.000269357
-0.00270845
0.00242001
-0.00116577
0.000254971
0.000964891
-4.58232e-05
1.39281e-05
5.34599e-05
-0.00098508
-0.000156051
9.44055e-05
-6.90623e-05
9.9752e-07
0.000430602
0.00256109
-0.000708749
-0.0015871
0.00232076
3.90442e-05
3.96792e-05
-0.000100108
-0.0031506
0.000505425
0.00271197
-0.0008532
0.000259715
0.000733943
-0.000236616
-0.000431218
-0.00246977
0.000330865
-0.00234615
0.00208571
0.000235507
0.00162402
-0.00033996
-0.00107495
9.68157e-05
-7.04186e-06
-0.00013896
-5.09467e-06
0.00010619
0.000227167
-0.000241005
8.69006e-06
0.00236724
-0.00304392
-0.000608447
0.00292573
-0.00347326
0.000593209
0.0044924
-0.00386414
-0.000457126
-0.000846949
0.000121383
0.000738988
-0.000393421
-0.000876858
0.000106382
7.06277e-06
-0.000124393
-0.0015578
-0.000202855
-0.000222616
0.00199456
-0.00163156
-0.00396342
0.00427244
-0.000200421
0.00326441
-0.000282185
-6.19747e-07
-0.000140616
0.00010759
-0.00205158
-6.96172e-05
-0.000614008
0.00470563
-0.00427683
-0.000315279
0.00486368
-0.00440964
-0.000347598
-0.000283759
-0.00167912
-0.00307696
0.00102792
0.00221315
0.000233945
-0.000160855
-3.88337e-05
-6.66612e-06
7.12804e-06
6.53424e-07
-0.00189606
0.00183445
-0.00438998
0.00423694
0.000330661
-0.00303691
-0.000369754
-0.00201644
0.00234679
-0.000331711
-0.00100551
0.000140763
0.000879184
0.000132305
-3.51653e-05
-2.90834e-05
0.0011273
-0.000423702
-0.000727577
-0.00113969
0.00145242
-0.000280858
-3.58804e-05
-7.88134e-05
0.000117893
-0.00131684
0.000212752
-0.00323893
0.0034279
-0.000119289
-3.71661e-05
-0.000596743
0.000452045
0.000111531
0.000593855
-0.00065113
2.94013e-05
0.000231749
0.000228229
4.43246e-05
7.88166e-05
0.000442048
-0.000923502
0.000515061
0.00010695
-2.8014e-06
-0.000494125
0.000969449
-0.000716123
0.00105044
0.0040932
0.000497305
0.00262189
1.83535e-05
1.66694e-05
-2.1044e-05
0.000518884
-1.93947e-05
-0.000656028
-5.44365e-05
3.01863e-05
0.000169834
0.00258573
-0.0025809
0.00010081
0.000877594
0.000272666
-0.00156859
0.00153506
0.000411724
-0.000608344
3.26084e-05
0.000313724
0.000707263
-0.00105513
-0.00195003
0.00140333
0.000656253
-0.000738371
0.00113059
-0.0030101
5.1236e-05
-0.000286001
0.00299906
-0.00119817
0.000121513
0.00100279
0.00045296
-0.000649011
5.7179e-05
-0.00330085
0.0032525
0.000970666
-0.00208172
0.00252235
-0.000376532
-5.66967e-05
-1.5596e-05
4.15828e-06
-0.001324
-0.00048802
-0.00152681
0.00182659
-0.000129006
-0.000117692
-0.000348347
0.000669493
0.00230376
-0.00306865
-0.000894712
9.66103e-05
0.000922912
-0.000871736
0.000831451
5.13332e-08
-0.00159721
0.00441944
-0.00271911
0.000410249
-6.50582e-05
-0.00238929
0.0032117
6.51973e-05
-0.000876852
0.000239403
-0.00038653
5.14622e-05
0.000818636
-0.00305583
-0.00154681
0.000160412
-0.00238173
0.000366245
-0.000142562
-0.000889581
2.27289e-06
-5.34874e-05
2.24542e-05
0.000733124
-0.00184588
0.00121152
-0.00010525
5.99997e-05
0.000132805
-0.000738508
-0.00210606
-1.80087e-05
0.000111738
-0.000124941
-5.53226e-06
-1.55301e-08
-0.00422439
0.00229026
0.0020442
-0.00293931
-0.001201
-0.000243838
-0.000726315
-0.000470969
0.000755094
0.000333897
-0.000447508
5.23626e-05
0.000524706
-4.56638e-05
0.000328368
0.00448993
-0.00307045
0.00290153
0.000218408
0.00202556
-0.00119674
0.000445542
-0.000430626
2.70278e-05
0.000634924
-0.000499112
-0.000161465
2.97171e-05
-0.000282731
0.000180885
-0.000416368
0.000635204
-0.000271681
-0.00183158
0.00277417
-0.000238721
0.00335196
-0.0030015
0.000416047
-0.000140594
-0.00025916
-0.00268218
-0.00313361
-0.000886862
0.000942502
0.000114089
-0.00252557
0.000489769
-0.000337405
0.00288951
-0.00248075
-0.000150183
2.62317e-05
0.000176766
-0.00507736
0.00360319
2.78516e-06
0.000114815
6.04715e-05
-6.50045e-05
6.24351e-05
1.96661e-05
1.1767e-05
-7.42614e-06
0.00010671
-0.00013511
0.00010351
0.00161686
-4.75064e-05
-0.00143663
0.000660584
-0.00249441
0.00188971
0.000284088
8.84415e-05
8.35708e-05
-9.44022e-05
-8.19795e-06
0.00102489
-0.000899565
-0.000172668
-0.00229155
0.00257666
-0.000219089
-0.000171035
-0.00110724
-3.42473e-06
0.000116315
-0.00280336
-0.000220132
0.00394603
0.00100953
0.000297154
-0.000326711
-4.81893e-06
-2.85279e-05
-0.000411525
0.000305078
0.000103616
0.000200012
1.195e-05
-0.00317573
0.00305266
-6.12519e-06
-1.96341e-05
0.000438188
-0.000197105
-0.00246685
0.00320608
-0.000711919
0.000892775
0.00321132
-0.000816326
-0.000212794
-0.00212629
0.000457186
-0.000132305
-0.000177434
-0.00156297
0.000183712
0.00130088
0.00151075
-0.00308176
0.00290405
0.000632285
-0.00342734
0.00041417
0.000580262
-0.000558854
0.00364585
-0.000628553
-0.000276476
-0.000424443
0.000734496
0.000144298
-0.000203263
0.000213829
0.000449035
6.27767e-05
-0.000126283
-0.000580581
-7.41878e-05
-0.00097103
0.000410991
0.000667222
-8.40521e-06
-9.81353e-06
4.86176e-05
-0.000113201
-0.00028755
8.84637e-05
0.00023385
-0.00127
-0.000673371
0.00205477
0.000244165
-0.000448725
4.85359e-06
-8.71008e-06
3.74271e-06
-0.00335802
0.000135556
0.00331002
0.000636832
-0.000561664
-0.000103576
-0.000795146
0.00176368
-0.00196882
0.000550002
5.20908e-06
-0.000217608
-0.000687499
0.00481666
-0.00494478
0.000256671
-0.00131927
0.000517163
-0.00208853
0.0036852
-0.00155649
-0.00186313
0.000219256
0.00168275
0.0033933
-0.00314662
-0.000227343
0.000409336
-3.56896e-06
-0.00272013
0.00323852
-0.000453453
0.00302797
-0.00287907
-6.59705e-05
0.00244571
-0.000423628
-0.00201861
-4.35689e-05
-2.53864e-05
-5.08496e-06
0.00222867
0.000364798
-2.73753e-05
-0.000361273
0.000215867
0.00255152
-0.00282671
-0.00235847
0.000174389
2.08307e-06
3.7731e-07
-0.000544081
0.000101152
0.000143251
-9.65263e-05
-3.0386e-06
0.00220863
0.000234447
0.00248394
-0.00227127
-0.000155224
-0.000712441
0.00194373
-0.000902734
0.00101718
0.000277315
-0.0012597
1.84959e-05
-0.000284522
0.000246906
0.000428456
-0.00258347
0.00230868
0.00155166
-4.69501e-05
-0.00169635
0.000244694
0.0032821
0.000254732
-0.00350548
-0.000187048
-0.00140167
0.0035754
-0.000246688
-0.000282859
-0.00108374
-0.00132248
0.000100745
-0.000192384
-0.00185059
0.00208226
9.11421e-05
0.00040835
-8.93602e-05
0.000834547
-0.000471751
0.000188281
-0.000178645
3.57622e-05
7.44047e-05
0.000356497
0.000234068
-0.00183489
0.000690787
4.44216e-06
-9.54457e-05
0.000406998
-0.000622774
0.00234397
0.000131106
-5.85537e-05
5.38405e-05
-0.00347722
0.000203945
-9.35782e-06
-1.1639e-05
-0.00250668
-0.000243143
0.000227298
-0.00238041
0.00227528
-0.0025202
0.000312525
0.00234935
-6.13841e-06
4.07535e-07
0.000168904
3.00221e-05
-0.00386529
-0.000251082
0.00424644
-0.00064867
0.000991512
-0.000364689
-0.00203481
3.26823e-05
-4.47059e-06
0.000554365
0.000421345
-0.000444687
1.37624e-05
8.69523e-05
-0.00085321
0.000632864
2.87054e-05
-0.00279012
0.00135339
0.00153211
-0.00111405
-0.00218683
0.00344771
0.00165166
0.000198007
5.44002e-06
0.000196531
7.42041e-05
0.000490512
0.00169677
-0.00118157
-0.000343776
0.00194156
0.00133463
4.41308e-05
-0.00148503
0.00123746
-0.000179654
0.000868286
6.77051e-06
0.000181721
-0.000152034
-0.00030361
0.000266075
-0.000130174
0.000126761
0.000129741
0.0034119
-0.00431321
0.000749885
-0.000949498
-0.00119297
-0.00153629
3.10441e-05
9.28869e-05
-0.000423953
-8.55055e-05
0.000426691
0.000507624
-0.00261022
0.00183885
-0.00356205
-0.000258861
0.00124395
-0.00115498
-6.87115e-06
0.00333696
0.000178622
0.000354845
0.00144626
-0.00252522
0.000690892
0.00203295
-0.00125293
0.000408619
0.000791264
0.00122367
-0.00010744
-0.000999754
-0.000543582
0.000290357
0.000496488
-9.83687e-06
2.21101e-07
-0.000247367
0.00238478
-0.00196988
-0.0033793
0.00132286
-0.000140361
-0.00103086
0.00232334
-0.000735528
-0.000421018
-0.00333647
-9.17145e-05
0.00344887
-0.000633137
-0.00106055
0.00177231
-0.000121498
-1.49691e-05
0.000162634
-0.000107493
0.000882539
-0.000750323
5.10137e-06
3.82914e-05
-0.00181401
0.0016425
0.000252983
5.93354e-05
-0.00106248
0.0011736
-1.5502e-05
0.000617327
-0.000281996
-0.00176499
0.00267954
-0.000790722
0.000901958
-0.00062957
0.00118025
-0.000589561
0.00253897
0.000136957
-0.00245384
0.000248263
-4.9912e-05
-0.00202486
0.00230234
-0.000198595
0.000197559
8.71219e-05
0.00205929
6.58548e-06
-3.43119e-06
0.00237731
-0.0020359
0.000904631
-0.00147611
-0.00169765
-0.0025516
-0.00134495
0.00153448
-0.000109641
-3.71508e-06
0.000168583
0.00256439
0.000112533
-0.00243959
0.000749025
0.0015047
3.91176e-05
-0.000204074
-0.000183533
0.000277329
-9.42267e-05
0.00050938
0.000471644
-0.00113262
-0.000955706
0.0011853
-0.000796326
0.000710612
-1.15166e-05
-0.000121093
-0.000170477
-0.000105634
0.00275187
-0.000235897
-0.00248482
-6.91368e-05
4.10312e-05
-3.99311e-05
-2.2534e-05
4.26548e-05
0.00340061
2.98314e-05
-0.000647418
-0.00167995
-0.00169283
0.000205296
0.00149004
-0.000428015
0.000396966
4.5216e-05
0.000762504
-0.00115895
0.0018153
-0.000200508
-0.00150072
0.000706167
-0.000503036
0.000306105
-0.000223931
-0.00149457
0.000349358
-0.000491593
9.99772e-05
-0.000348522
2.07946e-05
0.000491875
-0.00138349
3.53852e-05
-3.5599e-05
1.53797e-05
-0.00262864
0.00278097
0.000149404
0.000776856
-0.00523768
0.00355499
0.00185894
-0.00143923
-0.000248447
0.000798624
4.47254e-05
0.000333705
-0.00268983
-0.00263224
0.00236062
0.000261291
-0.001973
0.00177997
-8.29263e-06
-3.10716e-07
0.00158752
-0.000171505
-0.00135152
0.00049477
-0.000377653
-0.000274705
0.000250395
-0.000253429
0.00105925
-0.00116975
8.04721e-05
0.000291654
-0.000790664
0.000480617
-4.29436e-05
0.000417782
-0.000264153
-4.29221e-05
-0.000533123
0.000496988
-0.000980893
0.00103138
-0.00024937
0.000319375
0.00074684
-0.000888536
0.000186985
-1.8014e-05
0.00441428
0.000207189
0.00168184
-0.00196191
0.0018251
-9.38498e-06
0.000399868
0.0029765
-0.00329265
-2.46829e-05
1.38385e-05
-2.52718e-06
0.000765676
-4.29822e-05
-0.00163218
0.00149671
-1.56945e-05
0.000198584
-0.00269155
0.00035142
0.00240533
-0.00183129
0.00226326
2.21419e-05
-0.000739234
0.00104347
-0.000437743
2.54223e-05
-0.000236732
0.00022361
-0.000213378
-0.00487788
0.00441563
0.000571203
-1.43174e-07
0.000142418
0.000106048
-1.46373e-05
4.9486e-06
-4.9486e-06
-0.0017269
-0.000678154
0.00129406
-0.00124337
-4.70998e-05
0.00265913
-0.00176559
0.000306045
-0.00237853
0.0022349
0.000344559
-0.00373417
0.00362436
-0.00228166
0.00067861
-0.000380279
0.000218957
1.59703e-05
-0.00207312
0.00253048
-0.000504866
0.000690486
0.000600704
0.000124766
-0.00322747
0.00125846
0.00203327
-0.00011094
-0.000111835
3.35703e-05
4.87381e-06
0.00014602
-0.000107366
-5.36475e-05
-0.000114117
1.31401e-06
0.00163223
-0.0011598
0.00364771
-0.00360909
6.99678e-07
-0.000444359
0.000323168
0.000243889
-0.00227952
0.00212155
0.000331292
-0.00214448
-0.00430778
0.0022548
-0.00246636
0.000152
0.00229013
-0.00038461
-0.00207873
0.00125415
0.00206521
-0.00181997
0.00237748
-0.000256903
4.1899e-05
-0.00335698
0.00362236
-0.000223386
0.0004213
-0.000387031
-2.24223e-05
-0.00413601
0.000931538
0.00313893
-0.00402024
-0.000171948
0.000967144
-0.000177857
-0.00237582
-0.000903047
-0.000124687
0.000993215
-0.000247451
-0.00203028
0.000311813
0.00136549
-0.0030666
0.00148393
0.00159352
0.000252342
-0.00042423
0.000285222
-0.00211919
0.00257382
-3.23072e-05
-0.000578254
-0.00234314
0.000313686
0.00203872
-0.000451941
5.3002e-05
0.000461175
-3.82137e-05
0.000319516
-0.00016043
-0.00443524
-3.25003e-06
-4.01371e-05
5.2936e-05
-0.000174571
-0.000245821
-0.000118988
0.000150324
2.81255e-05
-0.00147996
0.00183506
7.41222e-05
0.000222308
7.18104e-05
-0.000152845
6.77668e-05
-0.000580024
-0.000240953
0.000920603
-0.000422398
3.26661e-05
0.000581792
-0.00130133
-0.00172396
0.000778035
-0.000910909
0.00208798
0.000169798
-0.000659511
6.82502e-05
5.82302e-05
-0.000183783
0.000537042
0.00084116
0.0012392
0.00010039
-0.00102
6.35643e-06
0.000105187
-0.00328443
-0.000173886
0.00352239
0.00213321
4.57132e-05
1.9841e-05
-3.67553e-05
-0.00388119
-0.000436558
-1.56716e-05
2.21843e-05
-5.33352e-07
0.000262197
-0.000986845
-6.54854e-05
-0.000684267
0.000885495
0.000143073
-9.45616e-05
-0.000313825
1.20586e-05
0.00030332
-0.000498194
-0.00180299
-0.000140662
-0.00294426
0.00197225
1.07162e-05
-0.000128377
5.9082e-05
-0.0023501
0.00188332
-0.0017557
0.00239222
-0.000513011
0.000542501
-0.00220491
-0.00230459
-0.000836378
0.00114489
0.00147139
0.00101203
-5.1166e-06
-0.00115379
0.00394946
-0.000257167
-1.67252e-06
-1.38718e-05
0.000156014
-0.000120132
0.000117182
0.000108194
0.00266897
-0.00137921
-0.00125445
0.00170108
-0.00173951
-2.69396e-06
8.97424e-05
0.00158478
-4.52437e-06
0.000160305
1.24601e-05
0.00101317
-0.0012429
0.00127949
-0.000529084
0.000971205
-0.00122393
0.00132602
-0.00300811
0.00296184
0.000740664
-0.000651059
-7.58549e-05
0.00356618
-2.80148e-05
-0.00350705
-0.0034681
0.000268446
-0.00283058
0.000462663
0.00245221
-1.69082e-05
5.49731e-05
-0.00182541
0.00173978
1.91335e-05
-7.32789e-05
-0.00121142
-0.00294618
0.000188187
-0.00164053
0.00123509
-0.00167949
-9.27504e-05
-0.000478262
0.000280063
-0.00211294
-0.000347314
-0.000124697
8.3358e-07
-0.000781405
0.000982971
-7.79574e-05
8.43448e-05
-0.000600595
-0.00157424
-0.00038364
0.00214837
-0.00173524
-6.81585e-05
0.000156189
-0.000279565
0.000164925
9.12608e-06
0.000386473
-0.00272787
-0.00117551
0.00394662
-1.96917e-05
6.30884e-05
0.00178842
-0.00157799
-0.000145404
-0.00175695
0.000166699
0.00173015
0.00243732
-0.00253692
-0.000610824
-0.000216349
0.000162822
0.00235663
0.000379336
-0.0027977
-0.000403854
0.00331176
0.000185626
-0.000345598
3.9615e-06
-0.000252438
0.000411038
-0.00220974
0.00130696
-0.00396639
0.00120977
0.00065161
-0.00169938
-0.000133156
0.00205548
-0.00193366
-0.000736008
-0.000439518
0.00110558
0.000151838
-1.57793e-05
-0.000127989
-8.4572e-06
1.47019e-05
0.00019471
-0.000173724
0.00026168
3.33492e-05
-8.71116e-05
0.000143046
7.7735e-06
-0.000253352
0.00268315
-0.00072181
0.000173292
-0.00288682
0.00236461
0.000613727
0.000560873
1.49865e-05
-0.000546153
-4.21168e-05
0.00243397
-0.000300503
-0.000864245
0.000832195
-0.00221614
0.000965327
0.00138666
0.000380411
-0.000519644
1.53872e-05
0.000809594
-0.000757798
-4.7723e-05
7.67744e-05
6.27736e-06
0.00171311
-0.00185704
0.000552
-0.000221143
1.90965e-05
0.000110935
-0.00358111
0.00194738
0.001845
-0.00143454
0.00169078
-0.000197836
7.46136e-05
0.000402203
0.000122746
0.000563546
-0.000300899
3.0789e-05
0.000403576
0.000136501
1.82062e-05
-0.00333785
0.00064123
-0.000518714
-2.52096e-05
8.26203e-05
8.57808e-05
-9.46803e-05
-0.000235415
-0.00146415
-0.000409232
-0.000359316
3.53157e-05
2.25402e-05
3.60559e-05
0.0015042
-4.58891e-05
-0.00123678
-0.000319729
-0.00408363
0.000349044
0.000405915
-0.00125134
0.000100465
-0.00160025
0.000180552
0.00153117
0.00025941
0.00103871
-0.0017033
0.00199196
-0.00201044
0.000137761
0.00157696
-0.000368686
-0.000531508
0.000532584
1.98015e-05
-0.0015357
-0.00192821
-9.43901e-06
5.23323e-07
0.000375582
0.00330504
-0.00351811
0.00195755
-0.000594165
0.000751685
-0.000238349
-0.000449476
0.00195986
-0.00180362
-6.6058e-05
-0.00253666
-0.00260433
0.00250339
-0.00032274
-0.00202143
-0.00147847
5.97759e-05
8.59317e-05
-8.29407e-05
-7.84819e-05
0.000226359
0.000130131
1.0289e-05
-0.000163702
0.000393048
2.37773e-06
-0.00039115
0.00219242
-0.000381858
-0.0016139
0.000685129
0.00284897
-0.000308221
-0.00238001
-0.000695576
0.000801159
-4.30303e-05
-7.06321e-06
4.9414e-06
3.82766e-06
-0.0041124
0.00390548
0.000308913
-0.000707855
0.000925722
0.00176081
-2.98456e-06
-2.12302e-05
0.00044565
-0.000330696
-3.97017e-05
-0.000425664
-0.00356397
-0.00246076
-0.000182003
-0.000228971
-0.0013287
0.0023664
-0.00273839
-0.00412155
0.00179728
0.00211433
-0.000262624
0.00217725
-0.00181962
0.000638958
-0.000221847
-0.000361337
0.000327177
0.000467251
0.00031965
-0.000604163
-0.000313616
3.45547e-05
-0.000515692
0.000389289
-1.46522e-05
-0.000233243
0.000441588
-0.000209354
0.00031644
0.000288623
2.2116e-05
-0.000548066
-0.00130037
0.0016145
-0.000126156
-0.00180738
0.000186442
0.00155837
-0.00147732
0.00016179
0.00134621
-0.000135102
0.000122197
5.66051e-05
2.19697e-06
0.00296128
0.000277685
-0.000480765
0.000174313
0.00112412
-0.000310758
-0.00164619
-8.76152e-05
9.3698e-05
0.00402638
-0.00345702
-0.000320658
-0.000605297
-0.000103294
-0.00100652
1.67965e-06
-6.0228e-05
-1.36055e-06
0.000115898
-4.80145e-05
-1.43678e-05
-0.000436624
0.00306515
-0.00259447
-1.85402e-05
-0.000117127
0.00115783
-2.59485e-05
-0.00116079
0.00111667
0.000146297
0.00390487
2.71167e-06
1.71459e-06
-5.36606e-05
-8.52676e-06
-2.01739e-05
-4.47478e-06
-0.00183476
0.0018426
0.000127052
-0.000570852
-0.00183071
4.23148e-06
7.97495e-05
-7.77532e-06
-0.0001848
0.000257267
3.38723e-05
5.42534e-06
-3.5372e-07
0.00035778
-0.000738694
-0.000230425
-0.00121122
0.000348351
0.000307718
0.0029049
-0.003289
-0.000354896
-0.000529963
-0.00164797
0.00221577
0.00128954
-0.000939852
-0.000189208
0.000950725
-0.0011669
0.000142903
-0.00144785
0.00154106
0.00250152
0.000276505
0.0013072
-0.00212615
0.000862388
-0.00251249
0.00202166
-0.0008526
0.00206986
-0.00231593
-0.00207037
-0.00229692
6.65795e-07
-5.54192e-05
-0.00155428
0.00268186
-0.00116325
-0.00152871
-0.0001918
0.00184601
-0.00193082
-0.0011292
0.00277406
-0.00161825
0.00032892
-0.000468127
-1.96626e-05
0.00252821
-0.00232131
-0.00016708
6.86082e-06
-0.000264004
0.000163444
5.92748e-05
-0.000248722
-8.13152e-06
6.12053e-05
0.00069623
-2.97574e-07
-2.41315e-05
-0.000775194
-0.00261795
0.00104138
-0.000961498
0.000880397
8.9661e-05
-5.56696e-05
-0.00374904
0.000147387
0.000852962
-0.000692454
7.21056e-05
-0.00115776
0.00153825
-5.9555e-05
-0.000172777
-5.93571e-05
-0.00103854
5.25297e-05
-0.00118946
0.000378604
-0.00283836
-0.000387335
3.44564e-05
0.000314902
0.000214333
0.000103614
0.000141873
-0.0012789
1.94715e-06
0.000230061
-4.01593e-06
-4.48549e-06
-5.75477e-05
7.76156e-05
5.84096e-05
-0.000972298
0.000817735
-0.000636883
2.49996e-05
0.000504487
0.00150945
-0.0014772
5.14345e-05
7.85358e-05
0.00166838
-0.00290903
-0.000139799
-0.00176377
5.34363e-05
-3.57423e-05
-0.000591902
-0.00101628
0.000883615
1.07203e-05
0.000128547
-0.000734686
-1.64575e-05
-0.000123653
-0.000370124
7.38516e-05
-0.00140961
0.00126244
-2.70543e-05
-0.000381483
0.00253273
0.00175885
0.00259952
0.000239765
-2.36351e-05
-0.000216539
0.000285159
-0.00201327
4.0493e-05
-8.96648e-05
-0.000272483
-0.00387507
0.00204456
0.00187747
0.00181476
0.000607876
5.67079e-05
1.06257e-06
0.000163925
-1.1441e-06
0.000102103
-0.000101906
0.00178094
-0.00334728
0.00218051
-0.00247462
-7.93239e-05
-1.31636e-05
8.5463e-05
-0.000109564
5.77218e-05
-4.69517e-05
-0.000383767
-0.00234957
0.000480633
0.00186639
-5.57234e-06
1.33012e-05
0.00182548
-0.000231138
-0.000283519
-0.000352617
0.000581279
-1.64848e-05
-9.37723e-07
0.00141344
-0.00153026
-1.90748e-05
0.00023666
-0.000239026
-0.000306173
0.00338027
0.00264796
0.00106406
-0.000190821
0.000239826
-1.8005e-05
-0.000689015
0.000841798
0.000156417
-0.000202818
4.39946e-06
-3.68081e-05
-0.000260297
-1.22852e-06
-0.000601783
0.0020887
-0.000216329
-1.35198e-05
-0.00309981
0.00332296
-1.52584e-05
5.80153e-05
1.89192e-05
-0.00192514
0.000699662
0.00117704
-0.000162062
0.000464302
-0.000987363
-0.00187329
-2.25207e-05
-0.000404988
1.12651e-07
5.69963e-08
4.45561e-06
0.00137165
-0.00139356
-0.000151239
4.94656e-05
1.03791e-05
0.0021724
-0.000734268
9.66813e-05
-0.00238295
0.000814193
0.00164825
0.00478808
-0.0046227
-0.000444778
0.000126175
-0.000242605
0.000170676
6.63158e-05
0.00127883
0.000205567
-0.00073169
-0.000149708
-0.00205738
0.00187123
0.000159264
0.00112766
-1.54347e-05
-0.00107921
0.000412369
2.2719e-05
-0.000100616
-2.60809e-06
-0.000226552
0.00248223
-0.000496543
0.000189308
0.000197151
0.00110491
2.92277e-05
0.000782329
-0.00462348
-0.00112577
-0.000790998
-0.0020289
-0.0019178
0.000131247
0.00196299
-7.52985e-05
0.0011924
0.000810206
-0.00190524
-0.00010248
6.17083e-05
0.000737628
-0.000155396
-0.00312284
0.00202738
-0.000110089
-0.00270594
-0.000304974
0.00329722
-0.0020166
-0.000165576
0.000681268
-0.00111123
0.00169969
-0.00172882
-0.000176946
-3.23571e-07
-9.62092e-05
0.000250387
-9.53583e-05
-0.00039315
0.000742519
-0.000233777
0.000515087
-0.000533044
5.03537e-05
-0.00159519
0.00132645
0.000291042
0.00296379
-0.000106557
-0.00279245
-2.23711e-05
-2.61484e-08
0.000355284
-1.27386e-05
-0.000344166
-0.000545972
0.00272098
0.000972893
-0.000903024
-0.0001554
-0.00012231
-0.00278347
0.00219059
0.000981431
-0.00098471
-8.30885e-05
3.34969e-05
-0.000742429
0.00210127
-0.000643326
5.91409e-05
0.00057981
-0.000348834
-0.0027617
-3.47559e-06
-2.13016e-05
0.000821235
-0.00109069
-0.00206528
0.00160471
-4.723e-06
-0.00062783
0.000675697
1.99562e-05
0.00101678
-0.00115676
-0.000136756
1.21896e-05
0.000147728
-4.40964e-05
-0.000204451
9.76727e-06
0.00154098
0.00418118
-5.23614e-06
-0.000166185
0.0016004
-0.00268277
0.00030237
0.00258137
-1.15774e-05
-9.80816e-05
0.000359657
-2.79194e-05
0.000412984
-0.000391894
2.90173e-05
-1.35544e-08
3.43629e-05
-0.000252063
-0.00147719
5.92238e-06
1.61274e-05
0.00122683
-2.15572e-05
-0.00119267
-0.000778063
-7.18129e-05
0.000694422
-0.00069631
0.00137105
0.000110543
-0.00069602
0.000364289
-0.00104054
2.98766e-05
0.00101866
0.00210919
-0.00127684
0.000372541
-0.000251644
-0.00144955
0.000222399
0.00112123
0.000116743
-0.000105629
-2.15388e-05
2.33811e-06
-0.000542075
0.00104908
-0.00130955
0.000112932
2.41982e-05
0.000225449
1.23704e-05
-0.000955445
0.000865103
8.06418e-05
0.00127323
-0.000225854
-0.000952302
-0.000848594
0.000709431
0.000120855
0.000116743
-6.92178e-05
0.00216207
-0.000232628
-0.00179514
-0.0027685
0.000323373
-7.69695e-05
-0.00144739
-0.000809016
6.85185e-06
0.000687531
-1.05626e-05
-0.000697856
0.00248806
-0.000116737
0.000114679
-0.000849415
-4.45012e-05
-0.00030183
-0.00018769
-0.0014934
0.00186817
-0.000601188
-0.000178963
-0.00354985
0.000231387
-0.000208244
-1.70348e-05
-0.00215815
-0.00281909
-0.000128801
-0.00200328
-0.000603987
0.000641281
2.04453e-05
3.61516e-07
-7.36542e-06
0.000358633
0.00194926
-0.00176499
-5.54779e-05
-0.000108257
0.00115411
-0.000818581
-0.000687435
0.00365783
-7.62554e-05
0.00028935
-0.000877185
0.000657365
-0.000342776
-0.00167593
0.002172
-0.00251093
0.00107933
6.47734e-05
-0.000921895
0.000423932
-0.0032693
0.00380569
-0.00223091
0.000276085
0.00199815
-0.000461603
0.00013486
-0.000424917
-0.00330286
0.00323144
0.000194843
0.00259457
-0.000493645
-0.000766125
-0.000103853
-7.38487e-07
-0.000185186
0.000219038
0.00209988
-0.00103433
-0.000931941
-1.3803e-06
4.83781e-07
1.71961e-06
-0.000188368
-0.000761021
-0.000118397
0.000949869
0.00032215
-0.00346455
0.00334643
0.000817907
-0.000505805
-4.36895e-05
-2.93186e-06
0.00374708
0.000247874
0.000760622
-0.00078058
-6.48027e-05
0.00162107
-0.00123783
-0.000238023
1.30153e-05
-0.000307811
-0.00126808
-1.63825e-05
-1.20617e-05
1.35531e-05
-5.4592e-06
0.000110242
-0.000676723
-7.28398e-05
0.000692185
-2.91374e-05
0.000299163
-6.2192e-05
0.00114534
-0.000153294
-5.33362e-05
-0.000572004
0.000145456
-0.00357902
0.00353428
0.00103585
-0.00150067
0.00179125
0.000475552
0.000130574
-0.000167943
9.36274e-05
6.58633e-06
0.00243687
-0.00277455
0.00037909
-1.17389e-05
0.00055482
-9.35308e-05
-0.000494582
9.32197e-06
-7.21873e-05
-0.000678645
0.000566244
-0.000429247
0.00133405
0.000115419
0.000265863
-2.06453e-05
9.50737e-05
-0.00105376
-0.000214583
-0.00228295
3.28197e-06
-4.14586e-05
5.50523e-05
5.3929e-05
0.00249314
-0.000249976
1.9415e-05
0.00022575
0.000895684
0.00101252
-0.00232075
0.00229246
0.00018259
-0.000331087
0.00147027
-0.00198977
0.000646863
-0.000779676
-0.000642334
-1.78346e-05
0.000829837
0.000203683
-0.00142797
0.000552426
4.02529e-05
8.63894e-05
-0.000818441
-0.00281438
-0.000365323
-0.00335878
0.000576159
-0.00155524
0.000243704
-4.0024e-05
-0.00329716
0.00309321
-0.003585
0.00383386
-0.00351283
0.0017882
7.05381e-05
1.9267e-05
-6.68458e-05
-0.00138742
0.00114808
0.000446135
6.0569e-06
0.000443062
-0.000668718
-5.61032e-06
-0.000568611
0.00223506
-0.00206502
-0.000134097
0.0013383
-0.001455
-8.51097e-06
8.62194e-05
0.00266313
-0.000269673
-0.00228806
-0.000561844
-0.00213567
-0.00012066
-0.000106837
-0.000149181
-0.000216372
-1.52786e-05
8.20556e-06
8.61525e-05
1.01743e-05
0.00023022
0.00230705
-8.27232e-05
-0.00165061
3.4906e-05
0.00172517
-0.0008564
-7.95672e-06
0.000885826
-0.0015236
0.0014662
0.000161056
8.37845e-05
-0.00147262
0.00148201
0.000246838
-0.000270628
-0.000246277
0.000266412
-0.000257326
9.96821e-05
0.0034733
-0.00352759
0.000908785
-0.000109066
-0.000867007
0.00194448
-0.000106446
-0.00179912
6.43008e-06
-0.000466324
0.00047712
0.000103301
-0.000317868
0.00133797
-0.00168193
-0.000143445
-0.000854627
-0.00103869
-0.00203565
-0.000186117
0.000255377
-0.00197726
-0.000120736
0.00209433
0.00290358
-0.000464454
0.00244931
-0.00259104
-0.000320075
-0.000507196
2.77284e-05
-0.00346629
0.00361062
-0.00239731
-0.00029847
0.00277061
0.000183404
-0.00233625
0.00205762
-0.000287054
-0.00213027
0.00251173
6.45976e-05
5.05396e-05
0.000429292
-0.000474112
0.000349706
0.00253233
-0.00267574
-0.00220949
0.000264284
-0.000377903
-0.00016179
-0.00123439
0.00118134
-0.0023679
0.00122968
4.73326e-05
0.00120176
-0.000180137
-0.00124083
0.000427409
-0.000103602
-0.000858316
-1.20109e-05
3.70302e-05
0.000348887
0.00105005
-0.00114903
-0.000775867
0.00313714
-0.0032349
3.25052e-06
-0.00112834
-0.000211245
-0.000980706
0.000358303
0.0013852
-9.28756e-05
-0.00118506
-0.00207197
3.37707e-05
0.00199643
-0.000117329
0.000150788
0.000893698
-0.000679703
0.00299832
-0.00138407
0.00136459
-9.83116e-05
0.000123229
-0.000151074
0.00138146
-0.00109022
0.0023547
-0.00217652
-0.000138455
-0.000727032
4.74708e-05
0.0007375
0.000137231
-0.000908697
0.000815737
-0.00017751
0.00176718
-0.00109934
-0.000121555
-1.17411e-05
-0.000541854
0.000150605
-0.000188214
0.000368329
-0.000308786
-3.23371e-05
-6.93398e-05
-0.00126724
0.00053876
-0.000343059
-8.95618e-05
-0.000832694
-0.00139467
0.00223961
-0.000404131
0.000878666
-0.000107896
0.000616102
-6.75781e-05
-0.000541563
0.000118525
0.00113172
0.00109638
-0.00107615
0.0025762
-9.10022e-05
0.000816374
0.000860906
-0.000742209
-2.52633e-05
0.00151312
-8.80904e-05
-0.00134962
-0.000720647
-7.73057e-05
0.00049567
-0.000488222
3.76182e-05
-0.000945005
0.000106512
-0.000564005
-3.72939e-05
-0.00172257
0.000308953
0.00159661
0.00155799
-0.00173665
0.0003778
-5.21172e-05
0.000627168
-0.000662485
0.00109768
-7.53904e-05
-0.00213825
0.000125206
-0.00136437
-0.00198762
6.76624e-05
-0.000589089
0.000514627
7.61957e-05
1.19209e-05
-0.000155472
0.00138642
9.07192e-05
-0.00081182
8.22621e-05
-0.000167222
-0.00113875
0.000882305
-0.000958307
1.26918e-05
0.00173242
0.000910182
-5.43879e-07
1.77078e-06
0.0014324
-2.42169e-05
-0.00145824
-0.00221089
0.00013103
0.00210766
0.000211856
-0.000205346
-0.00321017
-0.000427623
-2.30332e-06
0.000472915
-3.58365e-05
0.000924478
-0.000753723
0.000577571
0.000196159
0.000107841
0.00094729
0.000188604
0.000531561
-0.000508157
-0.00319635
-0.000229799
0.00125141
-0.000659038
6.85369e-05
-0.000273204
-0.00306553
-0.000602194
-0.00195866
-0.000183793
-0.000124652
0.000266556
-5.86128e-05
-0.000483591
0.00207583
-0.00184563
0.00218076
-0.000400394
0.000713998
0.00295372
-0.00263621
-0.000276378
-0.00116131
0.000747648
0.000207999
0.00316897
-5.24912e-05
-0.000695783
-8.60715e-05
5.67836e-07
0.00014915
-0.000152796
-0.00182145
-0.000527862
0.00302677
0.000211924
-4.82561e-05
0.0010787
0.000147488
-0.00123125
0.00226452
0.000147154
-0.00104652
0.000986872
0.000958251
-8.46096e-05
-0.000597488
0.000309004
-0.00223442
-8.04452e-05
-0.000140349
-0.00204589
-0.000267106
-9.11518e-06
0.000442308
0.00161617
-0.00142908
-0.000104944
2.07665e-06
-3.20624e-05
0.00016635
-8.45761e-05
0.000146594
1.85963e-05
0.000291997
-0.00411152
-0.000157751
0.00125476
4.58801e-05
0.00209391
1.39092e-05
0.00095616
-0.000150174
-0.000690867
-0.00245378
-0.000974048
-4.35708e-05
5.37913e-06
0.000199936
2.08866e-06
0.00113079
-0.00119055
4.38414e-05
-0.00011826
-0.000177654
-0.000170439
-3.51162e-05
-4.68391e-07
2.47393e-05
-0.000343505
-0.0033194
0.00379011
0.00280252
-0.000115572
-0.00263225
-0.0018316
0.00163031
-0.00142982
8.57021e-05
0.00149048
2.69981e-05
0.00049498
-0.000505057
-0.0016748
-0.000181823
-0.00215171
2.20641e-05
0.000492955
0.00146386
-4.00866e-05
-0.00147811
-0.000921351
0.000168722
-0.000132568
-3.66923e-05
8.51865e-06
4.80635e-05
3.90475e-05
-0.00052442
-0.000834893
9.93026e-05
0.000727714
0.000261972
0.0008317
8.6137e-05
-0.000107503
-0.000711209
-0.00223693
0.00212192