/*--------------------------------*- C++ -*----------------------------------*\
| =========                 |                                                 |
| \\      /  F ield         | OpenFOAM: The Open Source CFD Toolbox           |
|  \\    /   O peration     | Version:  v2012                                 |
|   \\  /    A nd           | Website:  www.openfoam.com                      |
|    \\/     M anipulation  |                                                 |
\*---------------------------------------------------------------------------*/
FoamFile
{
    version     2.0;
    format      ascii;
    class       volScalarField;
    location    "900";
    object      p;
}
// * * * * * * * * * * * * * * * * * * * * * * * * * * * * * * * * * * * * * //

dimensions      [0 2 -2 0 0 0 0];


internalField   nonuniform List<scalar> 
10042
(
0.00575791
-0.083193
0.00612558
-0.000947275
0.00304555
-0.0286381
-0.0238861
-0.0278025
0.00418408
0.00780732
0.00732804
-0.0955229
-0.0170255
0.00509049
-0.0103468
0.00513218
-0.0489055
0.00644074
-0.0204457
0.00742299
-0.0158791
0.00602569
-0.000796996
-0.0379576
0.00274999
0.00188765
0.0085826
0.00391072
-0.0354843
-0.0447413
0.00403174
-0.0353217
0.00412279
0.00410238
-0.0262
-0.0311073
-0.00308304
0.0044767
0.00398925
0.000762228
-0.0396103
0.00415994
-0.00777592
-0.0330601
0.000743969
0.00284628
0.00305144
-0.00990641
-0.00126128
-0.0635327
-0.0132443
0.0014047
-0.0422239
-0.0195528
-0.0473873
-0.0260721
-0.0155325
0.00622696
-0.00616751
0.0002461
0.000209848
-0.0303579
-0.000817119
-0.0246963
0.00657604
0.00464685
0.00673928
0.00413729
0.00290845
0.00476663
-0.0150959
0.0015645
0.00469108
-0.00625765
0.00451289
-0.00889588
0.0051224
0.00303638
0.00492016
-0.0218269
-0.0359478
-0.0385343
0.00312722
0.00257098
0.0102527
-0.00368719
0.00633979
0.00407259
0.00465079
0.00585317
-0.0192328
-0.0108851
-0.00563763
-0.00435203
0.00775619
0.000279493
-0.190689
0.00685037
-0.0277406
-0.00682052
-0.0189847
0.00797788
-0.000909962
-0.0379894
-0.016716
-0.00185104
-0.0635928
0.00435625
-0.0248127
-0.00201903
-0.00525138
-0.0189199
0.0104104
-0.0200694
0.006201
0.00286101
0.00906081
0.00347467
0.00609326
0.00268352
0.000328893
-0.0917252
-0.100328
0.000737006
0.00548667
0.00476564
0.00482174
-0.0480154
0.0172065
0.00924346
0.00446013
0.00432855
0.00499581
0.00378878
-0.0154453
-0.0479252
0.0065107
-0.0637867
-0.0122476
-0.0253671
-0.00926665
0.0040588
-0.0763784
0.00391666
-0.00400384
0.00448898
0.00996972
0.00283849
0.0027369
-0.0531885
0.00425731
0.00410413
-0.0127303
-0.0163953
0.00713128
-0.00292292
0.0120895
-0.0266333
0.00499028
0.00179481
0.0024338
0.00058829
-0.0491107
0.00468945
-0.0112082
-0.0456791
0.00466724
-0.0358621
-0.0286253
0.00403444
0.00830461
-0.0448002
-0.0838487
0.0040465
-0.018484
-0.0826823
0.00222408
0.00447251
0.00423219
0.00296322
-0.011615
-0.0130532
-0.00676573
0.00257347
0.0040488
-0.0261029
0.00118488
0.000281559
-0.022389
0.00429811
-0.0685213
-0.0142264
0.00449004
-0.0131865
-0.0495413
-0.0109217
0.0663021
0.00746763
-0.112547
0.0024783
0.0239272
-0.00783299
0.00923549
0.00345949
-0.0342701
0.00496518
-0.040496
-0.0161535
-0.0048312
0.00376146
-0.0372311
0.0034058
0.00833414
0.00825839
-0.0021682
0.00548114
0.00317192
-0.0329159
-0.000163015
0.0145173
0.0504827
0.00740132
0.0421407
0.00509015
-0.000938176
-0.00627998
0.0022602
0.00623951
0.00722982
-0.00124155
0.0044812
0.00484029
-0.0246373
0.00358082
0.00237542
-0.0288156
0.00572109
-0.166208
-0.00460195
-0.0367149
-0.0143435
-0.0191609
0.000262394
0.000816261
-0.0810775
0.00290473
-0.0135787
-0.00385522
-0.0128177
0.00300102
-0.0172195
0.0044993
0.00466408
-0.0342031
0.00254367
0.00554494
0.00437415
0.0034865
-0.220867
0.000379221
0.00545428
0.00455163
0.00153821
0.00313794
-0.0174712
-0.0410868
0.0059154
0.00580037
0.00397472
0.00486579
-0.00520758
-0.070064
0.00497668
-0.0089046
0.00324222
0.00644277
-0.01747
0.00158231
0.00431397
-0.0545059
0.00394451
-0.0115194
0.0620999
-0.0167481
-0.0036459
-0.0243295
0.00809971
0.00340466
0.00594469
0.0041875
-0.0126131
0.00675427
-0.00277254
-0.0246462
0.00585168
0.00504627
0.0084376
0.00604778
-0.00540778
0.00318601
-0.011838
0.00841622
0.000179113
-0.0182169
0.00762963
-0.0267933
0.00506756
0.000628379
0.00551716
-0.0165624
-0.00312312
0.00369127
4.02192e-05
0.00501668
0.00668498
0.00630682
0.00316127
0.00340823
-0.0305943
0.00278385
0.00366092
-0.0184763
0.00599039
-0.00558961
0.00567662
-0.0022528
0.00567545
0.00429633
0.0058705
-0.0121704
0.00491769
-0.002992
0.00543307
0.00443858
-0.0374573
0.00662482
-0.0807597
-0.00239246
0.00452825
-0.0376515
-0.0112058
-0.0120454
0.000328519
0.00607172
0.00210086
0.00446468
0.0048385
0.00233925
0.00584378
-0.141877
-0.0133205
0.00689224
0.00565577
0.00419488
-0.0338061
0.00577054
0.00197164
0.00317051
0.0445296
0.00350785
-0.00214653
-0.00335068
-0.0104599
-0.0200739
-0.037717
-0.0119272
0.00217905
0.00538954
0.00556716
-0.0390218
0.00033532
0.00208702
0.00502917
-7.6977e-05
-0.000420294
0.00513247
0.00607079
-0.00550147
-0.0947973
-0.00091048
-0.00215671
-0.00974229
0.00863389
0.00421392
-0.0164528
0.00276679
0.00244016
0.00262003
0.0050466
0.00342004
0.00342175
-0.0141229
-0.01276
0.00478721
-0.0303038
-0.030817
-0.00192531
-0.024089
-0.00366946
-0.0321972
0.00129321
0.0100069
0.00310317
-0.0397191
-0.217794
0.0042282
-0.01073
0.00423332
-0.00947205
0.00324015
-0.0466693
-0.0065502
-0.0216549
-0.0120552
-0.021565
0.00571531
-0.00202966
-0.0399307
0.0034012
0.0056484
0.00436657
-0.0329232
0.00447329
0.00248105
-0.00788041
0.00599485
0.0103375
-0.045242
0.000536579
-0.0130924
0.00597981
0.00308341
-0.00579144
-0.0284572
0.0042179
-0.00992403
-0.093406
0.0067448
0.00348444
-0.0248426
0.00396918
0.00638132
0.00677486
-0.0101835
-0.0520738
0.00351644
-0.0165873
-0.0406424
-0.0265585
0.00236657
0.0061376
-0.00230006
-0.00225917
-0.0172058
-0.000852192
0.0048729
0.00703788
-0.0295988
0.00263962
0.000558733
0.00314199
-0.00147728
0.00491281
0.00501703
0.00496414
-0.00270361
0.00597635
-0.0182166
0.00622864
0.00762559
-0.0415244
0.00399398
0.00975248
-0.0996361
-0.0167231
0.00445095
-0.0327683
0.00373418
-0.0242881
-0.00530865
0.00681389
-0.0115347
-0.0191202
0.0041093
-0.0186924
0.000417389
0.00578259
-0.0492889
0.00331025
0.00383143
0.00365128
-0.0577988
0.00454399
0.00643129
0.00345714
-0.0111965
0.0040801
0.00708359
-0.0416125
-0.0487787
-0.00471759
0.0023395
-0.0107143
-0.0630187
-0.00303025
-0.00138527
0.00422899
0.00149945
0.00647857
0.00245525
-0.00457138
-0.0442007
0.00410116
-0.000517272
-0.00271818
-0.0451331
0.000403196
-0.00523655
-0.00147749
-0.00537808
0.00410843
-0.00124436
-0.000470108
-0.00174601
-0.00916418
-0.0129371
0.00725989
0.0117881
-0.00194838
0.00453465
0.00238703
-0.0492733
-0.00229948
0.00364678
0.00493328
0.000311042
-0.00232737
0.0158278
0.00445576
-0.0655138
0.002076
0.00816618
0.00467903
0.0198811
0.000236953
-0.0305837
-0.000212734
0.00463643
-0.00338377
0.000256941
-0.0281677
-0.00387182
0.00423552
0.00501029
-0.0910294
-0.0167621
0.00769948
0.00436208
0.00360952
0.00271122
0.00344016
0.00551867
-0.00251535
-0.0144381
-0.000536031
0.000288966
-0.0372947
-0.0154324
0.00569667
0.00351619
0.0034516
-0.0361751
-0.0139509
0.00469329
-0.0482736
-0.00516405
-0.0281707
0.00386478
0.00424555
0.00396556
0.00383675
-0.00290619
0.00443328
-0.0145894
-0.0103717
0.0161218
0.00175183
0.00437314
0.00323233
0.0131652
-0.0322019
0.00424268
0.00158919
0.00377638
0.0077926
0.00334359
-0.0869724
0.00235859
0.00550861
0.00449075
0.000673857
0.0046203
0.0462285
0.00324084
0.00485871
0.0051763
-0.0924277
-1.23776e-05
0.00398798
0.00448826
0.00366651
-0.00184321
0.0015099
0.00406911
0.00143164
-0.00483517
0.00215164
0.00444548
0.0038908
-0.237938
-0.0230577
-0.0437742
0.00339823
-0.0283713
-8.57117e-07
0.0134037
-0.00387233
-0.0346511
0.00833124
-0.0395302
0.0058771
-0.011995
-0.00503917
-0.00278286
-0.0584543
0.00360877
0.00531429
-0.00996641
-0.00830569
-0.00648361
0.00408994
-0.00409982
0.0040027
0.0045248
0.00222492
-0.0556744
-0.0160092
0.00188731
-0.0131654
-0.000172867
0.0136878
0.00054096
-0.0171819
0.00664467
0.00424061
-0.033066
0.00468998
0.00357102
0.0156517
-0.00527321
0.000268733
0.00395089
0.00425232
0.00362931
-0.00790254
0.0170747
-0.0228765
-0.00975111
0.00458402
0.00411234
-0.00882847
0.00207562
0.0046255
0.00310983
0.004739
-0.0182707
-0.066596
0.00154254
0.00264656
-0.00363058
-0.273448
-0.0302342
0.00582688
0.0107635
-0.00273
-0.0251634
-0.0162406
0.00414107
0.00445033
0.0047768
-0.0209269
0.00410914
-0.0298784
0.00500298
0.000328658
0.00602142
0.00521029
0.040542
0.0464427
0.00330974
0.000929809
0.00233503
0.0054755
0.00450917
-0.0561668
0.00538881
-0.0490556
0.00449037
0.00496092
0.00426941
-0.000469432
-0.00281881
0.000273581
-0.00554175
-0.0110136
0.00528217
-0.019084
-0.027193
-0.00479703
0.00465916
-0.0112678
-0.00344928
-0.0305451
0.0021824
0.00506447
0.00311077
0.00430518
-0.0502718
0.00494384
0.00324409
0.00411844
-0.0649798
0.00493867
-0.0180367
-0.00643351
0.00455716
0.00909767
-0.0173587
0.000331905
0.00471758
-0.00920504
0.00200284
-0.0161122
0.00496401
0.00395676
0.00600575
-0.00919234
-0.00503808
0.00444745
0.00728738
0.00297486
-9.91028e-05
-0.0188266
0.000263322
0.00332069
-0.00351472
0.00618717
0.00176638
-0.052636
-0.0116617
-0.00202777
0.00734566
0.00437956
-0.0116428
0.00269718
-0.0026136
-0.0182846
0.00434892
0.00478767
0.00512266
0.00785349
0.00510434
-0.0304166
-0.0103811
0.00907423
-0.0314045
-0.0439729
0.00513401
0.00153838
0.00241588
-0.0109985
-0.00577367
0.00396582
0.00694833
0.00492556
-0.0124175
0.00492831
0.000553517
-0.0139924
-0.00363827
0.00374038
-0.00914023
0.00320296
0.00393747
0.00445477
0.00145245
0.00246123
0.00233836
0.00420058
0.00412749
0.00519093
0.00244668
-0.00245314
0.0058806
-0.0126562
0.00471
0.00489518
0.00231071
-0.000894354
-0.00464939
-0.0146021
0.0038087
0.00090535
-0.0377164
0.00212442
0.00531118
-0.00310041
-0.030679
-0.0434281
0.00439086
0.00036885
0.0033566
-0.0139837
0.0153462
-0.0108996
0.00424279
0.00319252
-0.0150404
-0.0531092
0.00511822
0.00435432
-0.0277841
0.00397295
-0.0575064
0.0071036
-0.0152891
0.00387634
-0.0214777
-0.00484593
0.00485077
0.00321818
0.00771032
0.000464754
-0.00432437
0.00126708
-0.0809096
0.00494556
0.000326782
-0.0343501
-0.00443597
-0.0171389
0.00536679
0.00107453
0.00119274
-0.00888145
0.00298563
0.00498839
-0.00037457
-0.031252
0.00364699
-0.0975786
0.00286751
0.00466416
0.00500261
-0.0160589
0.00382066
-0.0102896
0.00520127
0.00303094
-0.000208971
0.00287989
0.00497093
-0.00238709
-0.0304503
0.0124488
0.0042011
-0.0348666
0.00389897
0.000676325
-0.0381838
0.00242814
-0.002192
-0.0378746
0.00267998
0.000575956
-0.0132129
0.0151613
-0.0200295
0.0112961
0.00495973
-0.000276733
-0.266612
-0.27617
0.00174675
0.00752246
0.0291585
-0.11324
-0.0151652
0.00241245
0.00479478
0.00244089
-0.00262708
0.00415573
0.00333946
-0.0270778
0.00268838
-0.0283483
-0.0114975
-0.00631686
0.0027943
0.00226798
0.00230495
-0.00829491
-0.0497801
-0.0124624
0.00423998
-0.0266021
3.59149e-05
0.00439429
0.000235232
0.00421094
0.00275871
0.00651116
0.00390674
0.00437489
-0.00946403
0.0042612
0.0152377
0.00484939
0.00430265
-0.0213047
-0.0413337
-0.0182769
-0.0148986
0.00228766
0.014769
-0.0274927
-0.0545287
-0.0354308
-0.00238009
0.00439753
-0.0295088
-0.0147975
0.00545155
-0.0253088
-0.0270138
0.00498039
0.00573838
0.00545849
0.00487797
0.00360613
-0.0292133
0.00479258
0.00142603
-0.0460852
0.00493596
0.00478332
0.0109421
-0.0214186
-0.00640781
0.00355368
0.00337487
-0.0244233
0.00155404
0.000558024
-0.00447022
-0.00023915
0.00322303
0.00414213
-0.0262405
0.0122077
0.00412715
0.00513912
0.00444439
0.000246226
0.00490811
-0.053545
0.00459446
0.00436383
-0.00427957
0.0108661
0.00389176
-0.0123366
0.0075988
-0.0481319
-0.024037
-0.000486412
0.00563712
-0.00162462
0.00561101
0.00267762
-0.0165941
-0.0017784
0.0032718
0.00493623
0.00436416
0.00345687
-0.0167713
0.00131294
0.00490995
-0.0944428
0.00404648
0.00410063
0.000546206
-0.0224568
0.00569943
0.00480246
0.00471243
-0.0161952
0.000551862
0.00469811
0.00453929
0.00506343
-0.0810111
0.00441838
0.0047299
0.00396463
0.00990445
0.00520309
0.00395344
-0.0718912
0.00472643
0.0032545
-0.0616582
0.0048931
0.0057074
0.00140235
0.00124893
-0.00160772
0.00580961
-0.0359295
0.00710179
-0.00273563
0.0496891
-0.0157001
0.00481324
0.00304556
0.00218305
0.00185076
-0.0375554
0.0110588
-0.0242184
-0.0525713
0.00561854
0.0122907
0.00225739
-0.0181501
0.00424587
0.00395992
-0.028062
-0.00865123
0.00330955
-2.40611e-05
-0.109396
-0.0277298
2.7509e-05
-0.0225629
0.00474119
-0.0123067
0.00448713
-0.00521703
0.00551132
0.00512442
-0.0248387
0.000584594
0.00348429
-0.0937475
0.00227036
0.00528176
0.00493773
-0.0103891
0.00506211
-0.0381656
-0.0266968
0.00350551
0.00468251
0.00433366
-0.00292349
0.00106833
-0.00811349
0.000433818
0.00420313
0.00512086
0.00324465
0.0041517
0.00335245
-0.0383471
0.00253912
0.0161088
-0.0158059
-0.0246272
0.0131421
0.00972575
0.00383528
-0.0393899
0.013643
0.00297747
-0.00335051
-0.0112647
-0.0116007
0.00471292
0.00249961
-0.0382259
-0.0550916
0.00422767
-0.00397843
0.00338226
-0.00521147
-0.097534
0.00503729
0.0040873
0.0047521
0.00416288
0.00415022
0.00299115
0.000221416
0.00483164
-0.00397905
0.00487439
0.000574194
-0.0236817
0.00332835
0.00890545
-0.0183597
-0.0036186
0.00428707
-0.0502622
0.00299048
0.017961
0.00581423
0.00418861
0.00384619
-0.0312351
-0.128994
-0.104517
-0.00468742
0.00656106
0.000965158
-0.0151548
0.00526317
0.00341858
0.00491662
-0.0308297
-0.0371133
0.00608752
0.038438
-0.0295384
0.0020884
0.0085058
-0.0204162
-0.0353389
0.00473765
0.00141981
0.00402034
-0.012191
-0.00388332
-0.0355551
-0.015132
0.0041538
0.00436235
0.00625301
-0.010981
0.00973753
-0.00370735
-0.000484773
-0.0051231
-0.0182892
0.00259944
0.00489795
-0.000341992
-0.0096593
0.000473012
-0.0138979
-0.000515297
0.00330287
-0.0064262
0.00299732
0.00202861
0.00436886
0.0153813
-0.027678
0.00485322
0.00406266
0.00255782
-0.0262217
0.00520699
0.00496283
-0.0051855
0.00576419
-0.00324989
-0.0152746
0.00255444
-0.044727
0.00289555
-0.0341698
0.00437663
0.00331768
0.0048145
0.00370458
-0.00307981
0.00324203
0.00518704
0.0054957
0.00273445
0.00737366
0.000152472
-0.0176966
-0.0323871
0.00465266
0.00561033
0.00152255
-0.00507242
0.00163002
-0.0247951
0.00212709
0.0273099
0.00394933
-0.00692505
0.00491584
0.00411743
0.00624753
-0.00270295
0.011752
0.00669124
0.00507275
0.00424868
0.00417823
0.00597559
-0.00337716
-0.0283362
-0.0259614
0.00226495
0.00256023
0.00315129
0.00728607
0.00247766
-0.0563727
0.00516195
0.00973943
-0.0217924
-0.00039031
0.00409773
-0.0641299
0.00473327
0.00485351
-0.0498484
0.00289987
0.00374607
-0.0073509
-0.0160899
0.002845
-0.0132631
-0.00358485
0.00408512
-0.017473
0.00134349
-0.00201149
-0.00770783
-0.0330897
-0.0396381
-0.00198383
-0.0215672
0.00396053
-0.00343158
-0.0229307
-0.008112
0.00337429
0.00572829
-0.00590088
-0.0402294
-0.0376871
0.00212935
0.00242861
0.0033364
0.00637329
0.0134199
-0.00486503
0.00119606
0.004786
-0.0314036
-0.00250723
0.00510645
-0.0318999
0.00453749
0.00569396
0.00201813
-0.0929672
0.00126127
-0.0495015
0.00496237
0.00465143
0.00418333
0.00171224
0.00348999
0.00405898
0.00374478
0.00407206
-0.00490997
0.00471978
0.00450324
0.00384978
-0.0200386
-0.0117692
0.00141301
0.00398286
0.00425807
-0.0159707
-0.0281681
0.000201204
0.00399644
0.00395892
-0.00283125
-0.0238484
0.00410656
-0.028103
-0.0411064
0.00345552
0.0037427
0.00421158
-0.00400683
-0.0176949
0.00472748
-0.00557206
-0.00478559
0.00434048
0.00536229
0.00511466
0.00484241
-0.117943
-0.250021
0.00305868
0.00178159
0.00499275
0.02413
0.00478819
-0.0114682
-9.98222e-05
0.00469428
0.000756407
0.001096
-0.105452
0.0042225
-0.0332166
-0.014267
-0.0320226
-0.00186364
-0.0219235
-0.0214694
-0.0121744
-0.00472557
0.000841212
-0.0327034
0.00465324
-0.024633
-0.0203002
-0.025202
0.00489303
-0.00775391
-0.0143962
-0.0255812
-0.035134
0.000834599
0.00513674
-0.00192722
-0.0234247
0.00287879
-0.015215
-0.0106704
0.00398215
0.00508109
0.00147376
-0.00957384
0.00968348
-0.00960444
-0.00147234
0.00469417
0.0257713
-0.0010481
-0.0441412
-0.0338827
0.00239773
-0.126871
0.0106331
0.00460919
0.014742
-0.00546723
0.00279264
-0.0152056
0.00341426
-0.0163735
0.00410173
-0.0179412
-0.0803818
-0.0144933
0.000805498
-0.0296026
-0.00491113
0.003922
0.00441243
0.00398879
-0.039605
-0.0155012
-0.00211121
-0.012791
-0.272924
-0.00096359
0.00454922
0.00434551
-0.00862906
0.000374537
-0.00778562
0.0248036
-0.221513
0.0140972
-0.0225286
-0.0335667
0.00382207
0.00249548
0.00421979
0.00235856
0.00340435
-0.0232516
-0.0270289
0.0313651
-0.0179495
0.00405844
0.00369962
-0.00858146
0.0039903
0.00515546
-0.0138939
-0.120789
0.00491562
0.00139766
-0.0111784
0.00531434
-0.012586
-0.00683272
-0.0101778
-0.03965
-0.00464047
0.0032356
-0.00712132
-0.0194238
0.00219801
-0.0183517
0.00372835
-0.0126664
0.00289163
-0.0630455
0.00170702
0.00392201
0.00386216
0.00616337
0.00545802
-0.112421
-0.0151339
0.0196663
0.0063321
0.00370494
0.00319819
0.00420282
-0.0539312
0.00408529
-0.014319
-0.0266861
0.0153702
0.0044845
-0.0378983
-0.0233165
-0.0926244
0.0055888
-0.0115472
-0.00516035
0.00512404
0.00557479
0.0028406
0.000486104
0.00467765
0.00328393
0.0038909
-0.129651
-0.0169214
0.00404565
-0.0149694
-0.0178856
-0.00368699
-0.0350798
0.00359858
-0.0115914
-0.0119969
0.00640667
0.00775866
-0.0339048
-0.00855791
-0.0410737
0.00423013
-0.0137452
-0.00181319
-0.0128902
0.0116267
-0.0394072
-0.0171351
-0.0248762
0.002008
-0.00084062
-0.00858639
0.00735336
-0.0177872
-0.005
0.00179774
-0.000203311
-0.0188128
-0.102614
-0.0163862
0.00428858
0.00266657
-0.0169084
-0.00553476
0.00230202
-0.011839
-0.0107548
0.00170184
0.00596582
0.0081504
7.09568e-05
-0.0050101
-0.00104614
-0.00280257
-0.0513191
-0.000226117
0.00495197
0.00157268
-0.0175557
-0.0129561
-0.00696112
-0.0137343
-0.0110135
-0.0108062
0.0106957
-0.000753605
-0.0144868
-0.00973458
0.00703426
0.00114024
-0.0301719
-0.00778977
-0.00679813
0.00297626
-0.0310768
0.00593328
-0.0282124
-0.126368
0.00408197
-0.0023114
-0.00790726
0.00253601
-0.0172465
-0.0682056
-0.00875676
-0.0205551
-0.109604
-0.00434164
-0.00488119
-0.00732686
-0.113557
-0.0401684
0.00376947
-0.010601
0.00190312
-0.00125267
-0.00204484
-0.0110579
0.00237157
0.00220558
0.00167803
0.00458584
-0.00967497
0.00126315
0.00539789
1.69462e-05
-0.0792313
-0.00900399
-0.107089
-0.0160364
-0.00901793
-0.0702783
-5.66781e-05
-0.0561414
-0.00285383
0.00192218
-0.00696913
-0.0216665
0.00650492
0.00251913
-0.133979
-0.00899211
0.00511157
-0.0200044
0.00485272
-0.0188768
-0.00781327
0.00722938
0.000705682
-0.0448223
0.00269339
-0.0152635
-0.013181
-0.00674192
0.00369619
-0.0196759
0.0115431
0.00476866
-0.00457056
-0.0197657
-0.00129259
-0.0275158
0.00298668
-0.0150383
0.00117071
-0.00719081
-0.0251752
-0.0144523
-0.00470222
-0.0122822
-0.121385
-0.0151275
0.00419588
-0.00818409
-0.0101258
-0.0151419
0.00376021
-0.0413533
0.000705592
-0.00177562
0.00629545
-0.0178386
-0.0161367
-0.00197909
0.00412607
-0.0105745
0.00504492
-0.0160471
-0.00581045
-0.0197495
-0.034323
0.0026463
-0.00592203
-0.00115802
-0.0197871
-0.0223332
-9.88389e-05
-0.00252064
-0.00736185
0.00513177
0.00291718
0.00188467
-0.101321
0.00797851
-0.0106513
0.00209549
0.00402055
0.00346865
0.00469227
0.00426526
0.00267085
0.00267635
-0.00882764
0.0052773
-0.0363928
0.00230451
-0.132385
-0.0157485
-0.00768734
-0.0281009
-0.00918775
-0.0096146
0.00588617
-0.0049812
-0.0988103
0.00426737
0.00403038
-0.012999
0.00525204
0.00465634
-0.0102177
-0.0108223
0.00306135
-0.00293562
-0.0206532
-0.0297391
0.00555401
-0.00408535
-0.00236329
0.00467749
-0.00771029
-0.0181021
-0.0109923
-0.0335074
-0.00698778
-0.0297264
0.00207322
0.00769098
0.00400723
0.0303756
0.00190589
0.00205187
-0.00121962
-0.0041444
-0.0187265
0.00686193
0.00350277
-0.0077864
0.00437111
0.00392472
0.00429649
-0.0111874
0.00679691
-0.0227875
-0.0102107
0.00184631
0.00319327
-0.0708725
0.0085182
0.00277896
-0.0722214
-0.00577297
-0.00659812
-0.0277788
-0.00920419
0.00470716
0.00406037
-0.00359776
0.00354089
0.00482175
-0.00342196
-0.00697045
-0.00351791
-0.00453879
-0.00686048
-0.012913
-0.00843016
-0.00163504
-0.015719
0.003545
0.00279079
0.00180526
0.00219217
-0.0257933
0.000784921
-0.0135114
0.0213725
0.00421185
-0.0473241
-0.0210935
-0.0036194
-0.00152466
0.00411522
-0.0322606
-0.00826144
-0.0120976
-0.0299792
0.00150388
-0.0130026
0.000153034
0.0171881
0.00440467
0.00217095
-0.0097768
0.00773825
-0.0355446
0.00947344
-0.00185587
0.00492418
-0.0130903
0.00697957
-0.0201586
-0.00738633
-0.0216593
-0.00819237
-0.0202819
0.00467357
-0.000684776
-0.128119
-0.015016
0.00158212
0.00836111
0.00163577
-0.000176106
0.0044708
0.00665814
-0.00894794
-0.0170156
0.0130832
0.00456196
0.0347992
-0.0247487
-0.0189783
-0.0942035
0.000557085
0.00153173
0.00137522
-0.00404782
0.00505695
-0.0209725
0.00199062
-0.0328302
-0.0291406
0.00515518
0.00344534
-0.00390201
-0.00303852
-0.0034584
0.00494156
0.0189261
0.00486961
-0.0268383
0.00523587
0.000439001
0.0011653
-0.00715017
0.00527747
0.0199068
-0.121739
-0.0100371
-0.00116364
-0.014425
-0.00501953
0.00220472
0.00468306
-0.0168581
0.000311451
-0.00561113
-0.0186611
-0.00359796
-0.007763
0.0191481
-0.0228065
-0.0678938
0.00289452
-0.109574
-0.008981
0.00143858
0.00489651
0.00875262
-0.0166478
-0.0302289
-0.0263751
-0.0310751
0.00100165
0.0042651
0.00367677
0.00145634
-0.00472037
0.00484884
-0.00393405
-0.0187238
-0.0341437
-0.00562667
0.0052841
-0.0241085
0.00547847
0.00688533
-0.00460021
-0.00736841
0.00232992
-0.00656358
0.00309326
0.0026789
-0.0227303
-0.00860329
0.0288184
0.00470596
0.00470922
0.00110955
-0.00409856
0.00429294
0.0111606
0.00184866
-0.0136903
-0.0486479
-0.00408505
-0.0282112
-0.000683022
0.000855082
-0.00160434
-0.00188567
0.00434686
0.00328641
-0.001417
-0.00520156
-0.00599438
0.00399403
0.004487
0.000604354
0.00241618
-0.00826982
0.0106489
-0.015212
-0.0112442
0.00622113
-0.0110614
-0.00359635
0.00408225
-0.00256135
0.00163336
-0.096785
0.000982032
-0.0243493
-0.0101582
0.0112739
-0.0307985
-0.0051661
-0.0776801
-0.034014
-0.00464777
0.00990862
-0.0378545
-0.0829096
-0.00114375
0.00516558
0.00253502
-0.000557703
-0.000940715
-0.00319415
0.00366826
0.00464452
-0.0499083
-0.025715
-0.0836092
-0.00302553
0.00421675
0.0100319
-0.0139564
0.00554074
-0.0482246
0.0063848
-0.0129622
-0.0145464
0.00191138
0.0106019
0.000414226
-0.0268821
-0.00427212
0.00479467
-0.0056747
-0.0281808
0.0160275
-0.0212613
-0.00795416
0.000923679
-0.0361113
0.00433877
0.000881869
-0.0272876
-0.00453508
-0.00420582
-0.00399173
-0.00074343
-0.0267333
-0.00734531
0.00946554
0.00428943
0.00395543
-0.105366
0.00508616
-0.00107033
-0.00374328
-0.00336744
-0.00255329
-0.00144184
-0.000517504
-0.00493507
0.00111052
-0.0032984
0.00232126
-0.0305942
0.00212706
0.00234567
0.00285101
0.00648277
-0.0428761
0.00127632
0.000394644
0.000974343
0.00386923
-0.000916357
0.00483882
-0.0131521
-0.111957
0.00151566
-0.014334
-0.00475891
0.00942193
0.00963417
0.001299
0.00880569
-0.0118996
-0.00824053
0.00932664
-0.123564
-0.129387
0.00136861
0.00428632
0.00471918
0.013328
0.00991353
-0.10735
-0.00584594
-0.0375808
0.00693895
-0.0074404
0.00588883
0.0372459
0.00304849
-0.00913182
-0.0218209
-0.0961571
-0.00376352
-0.0254044
0.00523374
0.00712063
-0.0149911
-0.00661809
0.00232658
0.00646818
-0.0185693
0.00100778
0.00147484
0.0073425
-0.0056513
-0.0320786
0.0037486
0.00498638
-0.00106041
-0.000212572
0.00505293
-0.0306994
-0.0105673
-0.0231266
-0.00189371
0.00160436
-0.0171885
-0.00475482
-0.00355755
0.00165117
0.00384841
-0.00910058
0.00337525
-0.0298228
-0.0109488
-0.0273576
0.00538251
0.00612336
-0.0177821
-0.0320326
0.00556048
-0.0165352
-0.0114479
-0.00761852
0.0010117
-0.00338511
-0.0117646
-0.00401356
0.00295013
0.00401945
0.000221936
0.00839484
0.0054229
0.00121931
-0.00135949
0.00375441
0.00692939
0.0028654
-0.00784994
0.00760891
0.00566624
-0.135443
-0.0522036
0.00418282
-0.00881069
-0.0197454
-0.00383119
-0.00780088
0.00463712
0.00852903
-0.0870246
0.00163265
0.00539334
-0.0925011
-0.00404587
0.00428519
0.00287746
0.00198867
-0.0134584
-0.0033332
-0.00900297
-0.00322613
-0.0489641
-0.00291302
-0.0252169
-0.00477432
-0.00276811
-0.0537346
0.00350888
0.00274445
0.000520223
0.000510623
-0.111547
0.00747072
-0.00207997
-0.00351518
0.00312166
0.00244411
-0.00094413
-0.0034046
-0.0171738
0.00316128
-0.00932365
-0.11855
-0.00890123
0.00375829
-0.00285344
0.00158387
-0.0606933
0.00497628
0.00564818
0.00150737
-0.0694524
-0.0804849
0.00237394
0.00495503
0.0031356
0.00233519
0.00219245
-0.00051823
0.00328374
-0.0066497
0.00079721
-0.000159157
0.00197059
0.0029988
-0.00216357
0.00102139
0.0022134
0.0107806
0.00385374
0.00551798
-0.041179
-0.000888052
-0.00132672
-0.0199849
0.0149159
-0.00897269
0.0056987
0.00468688
0.00105946
-0.00853807
0.0016452
0.00163721
0.00391297
0.00575892
0.00121536
-0.00111369
-0.00491631
-0.0234666
-0.0975901
-0.0011727
0.00672799
0.00273566
0.0111303
-0.00151191
-0.0434757
-0.0206205
-0.000491428
-0.0899378
-0.0043434
-0.0490742
-0.0212576
0.0046483
0.00718308
0.00454663
0.00243687
0.00482892
0.00318512
0.00399917
-0.0592691
0.00211919
0.00426575
0.00219541
0.00416769
0.00268547
-0.0128947
-0.00158176
-0.0033903
-0.0114747
0.00603242
0.00320604
-0.0187492
-0.00900484
-0.000690474
-0.109013
-0.00880361
-0.00108252
0.00353278
0.00543095
0.00442984
0.00100794
0.000743417
-0.00659243
0.00245504
0.00320274
-0.00138068
-0.0208105
0.00256924
-0.00240248
-0.00312411
-0.00585811
0.00114035
-0.00125582
0.00464202
-0.000845866
-0.0572598
-0.0142117
0.00429167
0.00553239
0.0061146
0.00839521
0.00596133
0.00243728
0.000280475
-0.00867014
0.0043489
0.00397642
-0.0248037
0.00415375
0.000587476
0.0048528
-0.204514
-0.0136817
-0.035973
-0.000967119
0.000491957
-0.00684715
-0.0432601
-0.022324
-0.00132382
0.00531671
0.00572715
0.00161313
0.0416087
0.00140594
0.00534076
0.00863053
0.00350415
-0.00477447
-0.0999828
0.00374138
-0.0197958
-0.089558
-0.0116189
-0.00016812
-0.0260719
-0.00276547
0.00146649
0.00461276
-0.0037064
0.0175758
0.00185003
-0.00290284
0.00383
-0.0114271
-0.0282288
-0.0206047
-0.00133077
-0.0552055
0.00591993
-0.00136362
-0.00113779
-0.142888
-0.00401927
0.00211677
0.00262487
0.000841591
-0.00960788
0.00869055
0.00466058
-0.0113199
0.00379908
0.00451981
0.00459475
0.000750522
-0.00390345
-0.0346792
0.000894141
-0.0162226
0.00499588
-0.00957846
0.00126163
0.0027356
-0.00146675
-0.000981951
0.00706071
0.00460172
0.00621889
-0.0152644
0.00354277
-0.00121475
0.0020158
0.00584334
0.00410746
0.00410122
-0.00331027
0.00425258
-0.137882
0.00393122
0.002674
-0.00651452
-0.0093869
0.0013158
-0.0241346
0.00511983
0.000717031
0.00239748
0.00557429
0.0103119
-0.0141434
-0.0401996
0.00113026
0.00418249
0.00483229
0.00407046
0.000272413
0.00387762
-0.00557348
-0.00386142
-0.119136
-0.0590847
-0.00157847
0.00243968
0.00552035
-0.00177387
0.00639742
0.00504338
0.00246932
-0.0144602
0.00163286
-0.0334062
-0.0142321
0.000717856
0.00781264
0.00813058
-0.0185752
0.00041679
0.00429929
-0.0013166
0.000507927
-0.0171354
0.00478953
0.00145967
0.00792109
0.00312407
-0.104008
0.00202255
0.00488736
0.00372676
0.00178646
0.00570727
0.00300822
0.000626662
-0.00344275
0.00141186
-0.00357521
-0.00145233
0.00177546
-0.000354482
0.00676069
-0.0227106
-0.0279435
0.000377722
0.00390622
0.00362799
-0.00790424
0.000543846
0.00373379
-0.0212123
-0.00529672
0.00284698
0.00411763
0.00209341
-0.00936044
-0.215305
0.00386463
-0.0127774
0.00265264
0.00462952
0.00259858
0.00879543
0.0056258
0.00357701
0.00184309
-0.0146564
0.00385588
0.00812225
-0.0263054
0.00573671
0.00494087
0.00400043
0.00342281
0.00388924
-0.0158353
-0.00481936
-0.000476655
0.00444214
0.000131879
0.00451904
-0.0512501
0.00396136
0.0046983
0.00231017
0.00222484
0.00299318
0.00409172
0.00308498
0.0031286
-0.00165777
-0.00992165
0.00337852
-0.000930511
4.84392e-05
-0.00787422
0.00805861
0.00363884
-0.00147814
0.000261999
0.00264152
0.00205743
0.00359398
0.00454006
-0.0108409
0.00347573
-0.00113656
0.00122697
-0.014776
-0.01816
0.00665424
-0.085932
0.000878491
-0.0322839
0.000979133
0.00516029
-0.0052733
0.00724757
0.000186652
-0.00241971
-0.028517
-0.00148625
0.00467426
0.00244227
-0.015573
-0.00500349
-0.0283685
-0.021665
-0.200021
0.00914329
-0.00368864
-0.00617356
-0.0135485
0.00397835
0.00933151
0.00682546
-0.00688235
-0.0251914
-0.0112548
0.0039835
-0.0769902
-0.00441322
-0.00199572
0.00457856
0.00469693
0.000267763
-0.00163237
-0.0643376
-0.0413674
0.00948036
0.00231105
0.00482395
0.00824488
-0.018543
-0.00140806
0.00308256
0.00592827
0.00392022
0.00114018
0.000644738
-0.00561679
0.0102518
0.0120187
0.0098387
-0.00360292
-0.00669525
0.00343287
-0.00636995
0.00419184
0.00484437
0.00785579
0.00143024
0.00416161
0.00257487
0.00224041
0.00418646
-0.00989628
0.00765631
0.00443618
0.00249586
0.00204341
0.0070297
-0.0126593
0.00689013
0.0024596
0.00226054
0.00441542
-0.000506563
0.00626741
0.00400542
-0.0153189
0.00491337
0.00477092
0.00477959
-0.0459902
0.00211612
0.00380121
0.00505885
0.00174153
0.0046679
0.00462467
-0.0320199
-0.0959148
-0.0296627
0.00138311
0.00465024
-0.0410414
-0.000935117
0.00481147
0.0035477
-4.01035e-05
-0.00381515
-0.00150248
0.00412933
0.00454153
0.012393
0.00696416
0.00446188
0.00508912
-0.00437503
-0.0186391
0.00366516
0.00211543
0.00317784
-0.0135266
0.00516496
-0.000844272
-0.0586577
0.00402041
0.00460414
0.00115209
0.00504246
0.00398621
0.00368838
-0.00300462
0.00285218
0.00738297
-0.00995132
0.00114578
0.00446142
-0.00767764
0.00339118
-0.00490642
-0.0107973
0.00644305
0.00202942
0.0047419
0.00384906
-0.0444294
-0.0974928
-0.00317154
0.00467073
-0.00194631
0.0105348
0.00246408
0.0046353
0.00361094
0.00455142
0.00344316
-0.0117907
0.00509749
0.00244917
-0.0120495
-0.00708677
0.00458082
0.0043522
0.00724152
0.00825673
0.00351914
0.00587763
-0.00264809
-0.00109709
-0.00221799
0.00794875
-0.00101
0.00423611
-0.0146356
0.000898333
0.00484014
0.00576315
-0.000522299
-0.0152161
-0.00136246
0.00427362
0.00463547
-0.0144239
0.00354091
0.00367348
0.00469713
-0.000236879
0.0015895
0.00375477
-0.0439598
0.00460624
0.00647431
0.00583743