/*--------------------------------*- C++ -*----------------------------------*\
| =========                 |                                                 |
| \\      /  F ield         | OpenFOAM: The Open Source CFD Toolbox           |
|  \\    /   O peration     | Version:  v2012                                 |
|   \\  /    A nd           | Website:  www.openfoam.com                      |
|    \\/     M anipulation  |                                                 |
\*---------------------------------------------------------------------------*/
FoamFile
{
    version     2.0;
    format      ascii;
    class       surfaceVectorField;
    location    "900";
    object      Uf_0;
}
// * * * * * * * * * * * * * * * * * * * * * * * * * * * * * * * * * * * * * //

dimensions      [0 1 -1 0 0 0 0];


internalField   nonuniform List<vector> 
14885
(
(0.99015 0.00797672 8.56076e-22)
(0.994 0.0120348 1.15007e-21)
(0.988337 0.0136127 1.83172e-21)
(0.849236 -0.21952 2.95833e-20)
(0.825528 -0.244412 -1.87171e-20)
(0.811824 -0.183731 2.0711e-20)
(1.06578 -0.0161248 0)
(1.06628 -0.0235794 1.21773e-22)
(1.05685 -0.019998 3.31181e-22)
(1.01529 0.00137407 1.92542e-22)
(1.0154 0.00147342 1.07602e-22)
(1.01543 0.00138525 -4.31682e-23)
(1.01218 0.000423525 8.67183e-23)
(1.01188 0.000308088 -1.27757e-22)
(1.01228 0.000456643 -1.26669e-22)
(0.962655 -0.269627 -1.01292e-20)
(0.946636 -0.263796 2.42933e-21)
(0.977973 -0.24448 -8.04317e-22)
(1.08445 0.234427 2.99362e-21)
(1.10967 0.242615 2.36152e-21)
(1.09583 0.212046 4.73819e-21)
(0.911462 -0.269419 1.54415e-21)
(0.909188 -0.272255 3.10611e-21)
(0.915561 -0.258555 3.90433e-21)
(1.01291 -0.000729676 0)
(1.01308 -0.000786157 9.06395e-22)
(1.01295 -0.000755519 0)
(0.969675 0.0595284 7.31372e-22)
(0.971671 0.0656739 6.11945e-22)
(0.963387 0.0628426 3.91607e-22)
(0.943546 0.0201477 0)
(0.934094 0.0128303 3.80865e-22)
(0.949839 0.00891143 0)
(0.880367 -0.181565 0)
(0.883528 -0.247371 0)
(1.06771 0.0308366 0)
(1.06951 0.0289291 0)
(1.06665 0.0279204 0)
(1.01323 -0.0010661 -1.05719e-21)
(1.01317 -0.000788567 3.71934e-23)
(1.01308 -0.000893546 -8.03147e-22)
(1.02685 0.00216706 -3.19506e-21)
(1.0274 0.00199159 -1.5696e-21)
(1.02734 0.00256542 -6.66245e-22)
(1.01338 -0.00140387 1.50186e-21)
(1.01342 -0.00121318 -7.36467e-22)
(0.983188 -0.261069 0)
(0.961264 -0.27891 -8.90815e-22)
(0.986448 -0.242309 -9.38436e-21)
(0.954956 0.0246473 5.78842e-22)
(0.939483 0.0315017 0)
(1.04535 0.0117854 9.75929e-22)
(1.04673 0.011251 -4.47525e-21)
(1.04676 0.0128556 -7.36538e-21)
(1.00978 -0.00530748 5.45516e-22)
(1.00739 -0.00514573 -7.01711e-22)
(1.00913 -0.00776911 5.48706e-22)
(1.06528 0.0325038 3.32267e-21)
(1.0683 0.0338836 -2.44061e-21)
(0.986161 0.00339446 -2.96182e-21)
(0.99252 0.00272653 1.37002e-21)
(1.01519 0.00126009 2.05384e-22)
(1.01514 0.00135759 1.01334e-22)
(0.904573 -0.314691 9.92355e-21)
(0.904816 -0.313712 0)
(0.903452 -0.312939 0)
(1.0138 0.00240323 -4.40353e-22)
(1.01386 0.00238958 0)
(1.0137 0.00226154 5.86256e-22)
(1.00936 -0.000181881 0)
(1.01041 -0.000113046 0)
(1.01126 -0.000131681 0)
(0.97545 0.0554929 5.81662e-22)
(0.968162 0.0519016 2.9841e-21)
(1.01254 -0.000448427 3.24275e-22)
(1.01261 -0.000489746 7.9127e-22)
(1.0126 -0.00045552 -5.4054e-22)
(0.978606 -0.266646 -3.59748e-21)
(0.94756 -0.292579 3.751e-21)
(0.895794 -0.294377 -2.18406e-20)
(0.891542 -0.274698 4.75898e-21)
(0.904605 -0.284026 -2.88686e-20)
(1.00966 0.00018921 8.93487e-23)
(1.00829 3.8231e-05 -3.91648e-22)
(1.00816 7.32756e-05 -3.81947e-22)
(1.07237 0.0102868 0)
(1.0729 0.0102984 0)
(1.07261 0.00974279 0)
(1.01286 -0.000678166 -7.88256e-22)
(1.01289 -0.00070995 -7.52288e-22)
(1.01301 -0.000721704 1.50189e-22)
(1.01284 -0.00065909 8.22677e-22)
(1.01273 -0.000637475 1.0046e-21)
(0.916926 -0.26322 -1.31634e-21)
(0.907189 -0.267646 7.20554e-22)
(0.90757 -0.272405 9.21315e-21)
(0.912298 -0.271631 -9.66687e-21)
(0.911585 -0.260384 8.32401e-22)
(1.01569 0.000271861 -7.36104e-22)
(1.01632 0.000450243 -1.07433e-21)
(1.01665 0.000508773 -1.70295e-23)
(1.01205 -5.68923e-05 -9.93754e-22)
(1.012 -4.71191e-05 3.2481e-24)
(1.01195 -5.47538e-05 -1.30515e-23)
(1.01071 0.000276971 4.58708e-22)
(1.01056 0.000194235 -3.11259e-23)
(1.01631 -0.00653382 2.6464e-23)
(1.0167 -0.00602261 2.71939e-22)
(1.01588 -0.00555909 -4.34657e-23)
(0.900585 -0.309346 3.75024e-21)
(0.895137 -0.30318 -9.3329e-21)
(1.01277 -0.000685502 0)
(1.19833 -0.00967722 -8.52393e-22)
(1.17962 -0.00411145 -1.21612e-21)
(1.18991 -0.0249172 6.37479e-22)
(0.963047 -0.272631 5.16496e-21)
(0.971682 -0.24828 -4.43135e-21)
(0.991742 -0.250681 5.08447e-21)
(1.01476 0.00212137 -8.05699e-23)
(1.01462 0.00204501 -2.39605e-22)
(1.01471 0.00199972 1.37215e-22)
(1.01376 0.00239404 1.64251e-22)
(1.01389 0.00249575 -3.6911e-22)
(1.01337 -0.00074759 7.10135e-23)
(1.01332 -0.000703585 -2.77373e-22)
(1.01334 -0.000688002 5.71335e-23)
(1.02622 0.00188753 9.01056e-23)
(1.02622 0.00243534 0)
(1.02295 0.10105 0)
(1.02978 0.105616 0)
(1.02922 0.0960443 0)
(1.04852 -0.0312092 -6.74641e-21)
(0.954009 -0.0849918 1.72409e-21)
(0.96668 -0.0897051 -1.66794e-20)
(1.18372 -0.0247908 1.68749e-21)
(1.21192 0.00810612 3.18797e-21)
(1.01356 0.00100322 3.8135e-22)
(1.01368 0.000969371 7.6625e-23)
(1.01361 0.00109518 1.56379e-22)
(1.0044 -0.239961 -6.67598e-21)
(1.04415 0.0123793 7.40172e-21)
(1.04408 0.0110177 7.84272e-21)
(0.82074 0.3457 -1.15835e-20)
(0.816205 0.333596 1.00605e-20)
(0.806438 0.344036 -2.47688e-20)
(0.711875 -0.419743 -1.45481e-20)
(0.688811 -0.430887 2.2704e-21)
(0.689487 -0.401163 -2.66345e-21)
(1.06294 0.0338952 2.7866e-21)
(1.06266 0.0310238 3.61452e-21)
(0.988732 0.00297373 5.61117e-22)
(0.985955 0.00872083 5.30543e-22)
(0.982306 0.0024097 -2.8354e-21)
(1.02361 0.00762991 -2.76285e-22)
(1.02395 0.00811007 -1.49992e-21)
(1.02327 0.00796942 1.40984e-21)
(1.01637 -0.00120659 1.23221e-24)
(1.01634 -0.00106879 -6.17707e-24)
(1.01647 -0.00115564 0)
(1.01602 0.0963482 0)
(1.01433 0.106289 4.9049e-23)
(0.842724 0.295487 0)
(0.839904 0.30873 3.70534e-21)
(0.854786 0.307222 4.21816e-21)
(1.16259 0.00483724 -2.18342e-21)
(1.15497 -0.0087757 -1.40733e-21)
(0.954792 -0.220438 0)
(0.945385 -0.229977 -6.03569e-21)
(0.963736 -0.202023 0)
(0.995909 0.0262439 -1.79721e-21)
(0.99743 0.0322482 -3.00132e-23)
(0.990718 0.0312339 -3.50788e-22)
(1.0136 0.00358615 -1.39876e-21)
(1.01376 0.00397363 -2.05765e-21)
(1.01341 0.00375434 -7.49644e-22)
(1.01364 -0.00474094 0)
(1.01191 -0.00507654 0)
(1.01368 -0.00680776 6.99339e-22)
(0.996479 0.0392457 0)
(0.996254 0.0467935 5.07501e-22)
(1.00342 0.0439816 -4.41959e-22)
(1.01365 -0.000995594 9.63194e-22)
(1.01358 -0.000949956 2.45848e-22)
(1.01366 -0.00104208 5.60517e-22)
(0.99628 0.0322736 0)
(0.990622 0.0330265 0)
(1.15166 -0.042475 2.65571e-22)
(1.06609 -0.0718409 2.97045e-21)
(1.16926 -0.0253941 9.09471e-21)
(1.01406 0.00931714 -2.00706e-22)
(1.0135 0.00854555 -4.60763e-23)
(1.01435 0.00832723 1.55863e-22)
(1.01326 -2.36179e-05 0)
(1.01335 -6.86352e-05 0)
(1.01315 -7.21971e-05 -1.09679e-21)
(1.02391 0.00724192 1.40481e-21)
(1.02326 0.00715326 -9.6692e-22)
(1.0137 0.0034491 1.63412e-22)
(1.01344 0.00323582 9.03791e-22)
(1.13651 -0.0547574 -7.90867e-23)
(1.03443 0.0229673 7.70731e-22)
(1.03003 0.0208023 0)
(1.03159 0.0261328 -7.35306e-22)
(1.01342 -0.00083175 -7.44768e-22)
(1.01344 -0.000804836 5.39351e-22)
(1.03685 0.0194838 -1.7664e-21)
(1.04049 0.0250409 -7.51586e-22)
(1.04679 0.00987743 0)
(1.04816 0.0109003 1.9816e-21)
(0.955705 -0.291592 0)
(0.94054 -0.279898 0)
(0.909538 -0.310414 9.74321e-21)
(1.00442 9.0507e-05 1.29195e-22)
(1.00775 0.000156939 2.55486e-23)
(1.00419 6.5267e-05 1.22718e-22)
(1.01271 0.000711694 -5.77646e-22)
(1.01261 0.000719316 -4.30621e-22)
(1.01266 0.000806289 7.08356e-22)
(0.978678 0.0138727 2.11699e-21)
(0.974363 0.0107106 -2.71141e-21)
(0.97351 0.0167849 0)
(1.00548 0.159484 -4.07992e-23)
(1.00831 0.147522 1.60665e-22)
(1.01745 0.15813 -3.64995e-23)
(1.01376 -0.00311911 5.21537e-22)
(1.01527 -0.00418686 1.16835e-21)
(1.06245 -0.00856364 0)
(1.07379 -0.0109499 -5.34829e-22)
(1.01394 0.000463266 2.06032e-21)
(1.01378 0.00051627 -5.53113e-22)
(1.01392 0.000538373 1.05606e-21)
(1.0193 0.0283236 5.54152e-22)
(1.0143 0.0303703 -2.84369e-23)
(1.01559 0.0247888 -5.96768e-22)
(1.05652 0.0228014 1.34384e-21)
(1.05804 0.0242533 0)
(1.05837 0.0218789 -3.16111e-21)
(1.02753 0.00144614 1.15403e-21)
(1.02809 0.00181611 3.67046e-21)
(1.14899 0.0113407 1.40566e-21)
(1.16706 0.0197698 -1.48659e-21)
(0.990611 0.160366 0)
(1.00008 0.174327 0)
(0.985757 0.00879747 -2.72317e-21)
(0.984001 0.0147143 5.27226e-21)
(0.979256 0.0105061 -1.2728e-21)
(1.01665 0.00399884 -9.09768e-24)
(1.01666 0.00410335 -6.53653e-23)
(1.01654 0.003926 1.85545e-22)
(0.049258 -0.00221947 -8.26287e-20)
(0.111342 -0.0250601 -6.81269e-20)
(1.01048 -0.00329298 -1.30148e-21)
(0.969643 0.264 -4.02799e-22)
(0.954281 0.282746 3.62639e-21)
(0.946898 0.268428 1.22882e-20)
(1.02413 0.00689797 5.53648e-22)
(1.02435 0.00650394 -2.58224e-21)
(1.02374 0.00647081 -8.0307e-22)
(1.05521 0.0216751 1.42792e-21)
(1.05496 0.0237495 2.9084e-21)
(0.946675 0.0863957 -3.19319e-22)
(0.942977 0.094833 -2.33342e-21)
(0.955094 0.094061 -2.56945e-22)
(1.01789 0.00822698 7.16231e-23)
(1.01743 0.0079339 0)
(1.01769 0.00764544 6.09238e-24)
(1.0707 0.010478 -1.12657e-21)
(1.06993 0.0103731 -1.0974e-20)
(1.04583 0.0188333 -1.9232e-21)
(1.04553 0.0203248 2.03615e-21)
(1.04729 0.0197699 0)
(1.01871 0.00703969 -1.18577e-22)
(1.01873 0.00669215 -6.05554e-22)
(1.01839 0.00665498 -6.00098e-22)
(0.562137 -0.334179 1.92907e-20)
(0.568904 -0.344118 1.3609e-20)
(0.565068 -0.358032 2.5814e-21)
(1.01377 0.0032881 7.88874e-22)
(1.01394 0.00359609 4.92945e-22)
(1.06479 0.225455 1.71143e-22)
(1.06873 0.25376 0)
(1.01909 0.0074504 5.59691e-22)
(1.01867 0.00745384 1.47562e-22)
(1.02203 0.0069839 -6.83142e-22)
(1.02235 0.00744362 0)
(1.02266 0.00704597 -1.10802e-21)
(1.04605 0.214729 2.63461e-21)
(1.0589 0.201296 -7.34354e-22)
(0.952412 0.0762972 0)
(0.939968 0.0751083 0)
(0.964654 -0.209392 -1.10543e-21)
(0.945361 -0.228709 0)
(0.994413 0.0207685 -3.01684e-21)
(0.999757 0.0222295 -4.75175e-21)
(1.01406 -0.00133309 -5.39386e-22)
(1.01394 -0.00125384 -3.09243e-22)
(1.01405 -0.00135812 -9.62923e-22)
(0.987506 -0.00607062 0)
(0.989759 -0.00279577 -8.94999e-22)
(0.985231 -0.0019596 0)
(1.00859 0.000202524 0)
(1.00959 0.000161461 0)
(1.01044 0.000130669 -2.02967e-22)
(0.990976 -0.00134403 -3.91103e-22)
(0.99298 0.00383619 -1.83119e-21)
(1.01433 -0.00149682 -6.08322e-22)
(1.01434 -0.00146569 4.86886e-22)
(1.01448 -0.0015833 -6.36062e-22)
(1.0164 -0.0013246 -9.0092e-25)
(1.01627 -0.00123634 9.94439e-23)
(0.969079 -0.0860837 -5.97542e-20)
(0.937093 -0.126846 -1.00844e-20)
(0.93951 -0.0541521 -1.97539e-20)
(0.994036 -0.105484 1.73967e-21)
(0.993416 -0.0278013 1.24063e-20)
(1.0149 0.00220908 -1.91798e-23)
(1.01481 0.00224593 -7.73209e-23)
(1.02267 0.0268187 7.25361e-22)
(1.02258 0.032233 -9.10219e-23)
(1.01433 0.000284817 -7.17968e-22)
(1.01413 0.000386345 4.06746e-22)
(1.01432 0.000414975 -1.86998e-21)
(1.0145 0.000182466 1.27726e-21)
(1.01425 0.000205209 0)
(0.832754 0.342824 -7.66261e-21)
(0.829213 0.353312 3.43092e-21)
(1.09612 -0.0560522 9.53616e-22)
(1.09467 -0.0679143 -4.45809e-21)
(1.08394 -0.0581469 3.51973e-21)
(0.98557 -0.0107773 0)
(0.990804 -0.0100304 0)
(1.01247 -0.000236217 -1.39181e-23)
(1.01238 -0.000225835 4.82043e-22)
(1.01244 -0.00028483 -9.52698e-22)
(1.01336 0.00224796 -5.95955e-22)
(1.0133 0.00224927 1.25838e-21)
(1.01342 0.00249832 -1.49432e-21)
(1.01553 -9.45559e-06 -1.00245e-21)
(1.01541 0.000259473 -3.14972e-22)
(1.01586 0.000141553 -8.13244e-22)
(1.0145 0.00362872 -4.38786e-22)
(1.01433 0.00342596 -1.28926e-21)
(1.01429 0.00349397 -2.8971e-22)
(1.03173 0.207477 -7.67141e-21)
(1.03509 0.22935 -7.06429e-21)
(1.23679 0.0932239 1.39694e-20)
(1.20354 0.047604 7.44554e-21)
(1.23628 0.0690845 -1.00776e-20)
(1.0198 -0.00454068 1.75758e-21)
(1.0187 -0.00573463 0)
(1.02079 -0.0061554 -1.2406e-21)
(0.548433 -0.270774 -4.05393e-21)
(0.544035 -0.229491 8.46252e-21)
(1.03378 0.0133814 -2.80129e-21)
(1.03449 0.0143268 2.86301e-21)
(1.0349 0.0130224 1.08492e-21)
(0.983191 0.242957 -7.98924e-21)
(0.992829 0.251427 -1.1905e-20)
(1.11807 0.0325555 2.11072e-21)
(1.11895 0.0244834 0)
(1.11075 0.0266193 0)
(1.0115 -9.41134e-05 -1.59114e-23)
(1.01173 -0.00013499 -7.78946e-22)
(1.01189 -0.000168579 0)
(0.579661 -0.305384 3.31263e-20)
(0.559369 -0.299595 -1.1208e-21)
(1.01248 -0.000434494 0)
(1.01251 -0.000398727 0)
(1.02501 0.034052 -1.14751e-23)
(1.02621 0.0320651 -9.35619e-22)
(1.0274 0.0343624 4.61697e-22)
(1.01211 -6.94626e-05 -1.06712e-21)
(1.01217 -5.29106e-05 -9.75619e-22)
(0.982308 0.016214 -7.84039e-22)
(0.983071 0.0113919 1.98782e-21)
(1.01369 -0.000966707 8.73816e-23)
(1.01375 -0.00106834 1.05108e-22)
(1.01503 0.00455543 0)
(1.01469 0.00504488 4.85975e-22)
(1.01463 0.00434641 0)
(0.849761 -0.311977 1.8433e-20)
(0.83373 -0.289007 1.30951e-21)
(0.848253 -0.296388 1.72121e-20)
(1.01381 0.00316069 1.66896e-21)
(1.01362 0.00306722 9.01142e-22)
(1.01 -1.0718e-05 1.27335e-21)
(1.01091 -9.98493e-05 -3.92256e-22)
(1.01053 -5.93358e-05 -3.62996e-22)
(1.03633 0.0159294 -4.10664e-21)
(1.03537 0.0152245 -3.07457e-22)
(1.03657 0.0146008 -3.61333e-21)
(1.07543 0.0293837 1.80548e-21)
(1.07805 0.0289763 -6.20117e-22)
(1.07548 0.0265982 5.39947e-21)
(0.987547 0.00393339 -2.74493e-21)
(0.990895 0.00800181 -3.79473e-21)
(1.02282 0.0339279 1.61532e-22)
(1.02443 0.0363831 -2.16332e-23)
(1.09051 -0.0429537 -1.03075e-21)
(1.10549 -0.0491322 -2.16971e-22)
(0.729702 -0.398823 -2.2911e-21)
(0.735181 -0.438463 -2.58967e-21)
(1.01566 -0.000321413 -1.48776e-21)
(1.01526 -0.000120005 2.9411e-23)
(1.00844 -0.000177227 0)
(1.00695 -0.000226748 0)
(1.01176 0.000373562 1.06369e-21)
(1.01067 0.000281961 -3.87249e-24)
(1.0105 0.000262743 0)
(1.0157 -0.00711385 8.92208e-23)
(1.01682 -0.00741262 2.41931e-23)
(1.23847 0.119299 -6.85478e-22)
(1.23574 0.121056 5.10329e-21)
(1.01396 0.000394304 1.04058e-21)
(1.0314 0.0116294 2.12752e-21)
(1.03241 0.0115632 1.13395e-21)
(1.0317 0.0106876 0)
(0.860615 -0.316126 -9.02492e-21)
(0.869298 -0.332609 -7.88059e-21)
(1.01315 1.33274e-05 0)
(1.01335 3.68611e-05 8.58139e-22)
(1.07152 0.0105241 0)
(1.07111 0.0113792 -5.40387e-21)
(0.906498 -0.276 5.85979e-21)
(0.902694 -0.270484 5.27779e-21)
(1.01279 -0.000615857 1.76591e-21)
(1.01275 -0.000596313 -1.21674e-21)
(1.01268 -0.000589437 8.73704e-22)
(0.986552 -0.0116116 -4.38685e-22)
(0.981701 -0.0069401 0)
(0.979249 -0.013505 1.95452e-21)
(0.88932 -0.24833 2.2912e-21)
(0.879219 -0.256503 2.59762e-20)
(1.03445 0.0400466 4.29933e-21)
(1.04567 0.116882 0)
(1.05704 0.0631081 0)
(1.01293 -0.000657452 -4.20722e-22)
(1.04404 0.0137839 2.35185e-21)
(1.04287 0.0129191 1.48517e-21)
(1.01137 0.0182636 1.7428e-20)
(1.02484 -0.0349304 1.93701e-21)
(1.01425 0.00257541 3.52405e-22)
(1.01436 0.00262911 3.39583e-22)
(1.01426 0.00249032 0)
(1.01216 -8.80584e-05 0)
(1.01205 -9.06018e-05 -1.13859e-22)
(1.0133 0.00202941 1.11783e-21)
(1.01339 0.00223962 0)
(1.01353 -0.000940101 1.42376e-22)
(1.01351 -0.000886349 -7.75382e-24)
(1.03308 0.0123944 -2.86656e-21)
(1.03262 0.0135268 -6.97782e-22)
(1.04184 0.0235926 3.06365e-21)
(1.04161 0.0250311 -3.86222e-21)
(1.04343 0.0241628 -2.21001e-21)
(1.02455 0.00733643 -4.89001e-22)
(1.01415 -0.00121912 -1.27967e-23)
(1.01412 -0.00125166 -5.17763e-23)
(1.01403 -0.0011459 5.25955e-22)
(0.956734 -0.02483 0)
(0.948507 -0.0143802 9.67329e-22)
(0.948129 -0.0298789 0)
(1.06063 0.0162867 0)
(1.06065 0.0146156 0)
(1.06209 0.0160604 8.51138e-21)
(1.01466 0.009929 -1.47923e-22)
(1.01379 0.0103082 2.2101e-22)
(1.01632 -0.00091675 1.69476e-23)
(1.01629 -0.000979179 3.30845e-23)
(1.01621 -0.000861287 3.8396e-23)
(0.785535 -0.184426 -1.3461e-21)
(0.795166 -0.187155 2.08393e-20)
(0.697677 -0.234736 8.906e-22)
(1.00995 0.0001114 2.60601e-22)
(1.01085 6.15059e-05 -5.96414e-22)
(1.01043 7.43049e-05 8.5502e-23)
(0.82538 -0.28469 -2.65458e-20)
(1.0631 0.0371259 -1.11349e-21)
(1.0604 0.0353289 1.76187e-21)
(1.01257 -0.000244346 -1.33886e-23)
(1.01251 -0.000187632 3.28365e-24)
(1.04215 0.0218129 2.89534e-22)
(1.04038 0.0228018 1.00516e-21)
(0.850405 0.35649 5.32227e-21)
(0.83786 0.356752 2.65451e-20)
(0.84396 0.349674 2.43794e-20)
(1.02716 0.00111712 2.2364e-21)
(1.02778 0.000970185 0)
(0.688259 -0.0198085 -3.77687e-21)
(0.600168 -0.0168391 -1.59604e-21)
(0.694853 -0.0426121 1.51587e-20)
(0.998255 -0.0288243 -1.5045e-21)
(0.991326 -0.026954 -1.51591e-21)
(0.9922 -0.0342161 4.38783e-21)
(-0.00482967 0.0518748 2.69845e-21)
(0.00463843 0.0724706 4.03826e-21)
(0.0162789 0.0172609 -2.26864e-20)
(1.01275 0.000648845 0)
(1.01279 0.000717566 0)
(1.08037 -0.0873323 -9.32125e-22)
(1.02926 -0.0966906 -3.40879e-21)
(1.06986 -0.0830398 -3.7237e-21)
(1.13573 0.0166333 -3.58576e-22)
(1.12752 0.0213929 0)
(1.13854 0.0279132 0)
(0.930499 0.051098 -3.77033e-22)
(0.943786 0.0546811 -7.39799e-23)
(0.942342 0.0417536 -1.66475e-21)
(1.01252 -0.000201334 -3.42086e-26)
(1.01213 -0.000191099 -3.6393e-23)
(1.01237 -0.000207021 1.31911e-21)
(0.94055 0.29914 -2.34689e-21)
(0.959662 0.290546 5.45551e-21)
(1.01533 0.000472243 5.57689e-22)
(1.01506 0.000333942 1.38744e-21)
(0.930845 -0.272447 1.15691e-22)
(0.931304 -0.253476 -1.45058e-21)
(0.949079 -0.245498 -8.24865e-21)
(1.07244 0.0293708 -2.74738e-21)
(1.07435 0.032586 1.73042e-21)
(1.02173 0.0064684 8.62302e-23)
(1.02146 0.00679742 -6.97291e-22)
(1.01462 0.00380649 1.85699e-23)
(1.01468 0.00370043 1.23567e-21)
(1.0718 0.00996989 -1.14204e-20)
(1.01274 -0.000255797 -1.60977e-21)
(1.01266 -0.000232439 -1.96089e-21)
(0.919345 0.06165 6.27856e-22)
(0.915433 0.045148 -9.09484e-22)
(0.954651 0.0588686 7.08541e-22)
(0.962372 0.0508349 1.33717e-21)
(0.965538 0.0624786 1.317e-21)
(1.01513 0.000337119 -9.48604e-23)
(1.01593 0.000490046 3.30281e-22)
(1.01484 0.000333216 -2.9406e-22)
(1.00115 0.0285589 0)
(1.00616 0.0304488 0)
(1.00453 0.0237001 -3.86518e-22)
(1.01259 -0.000245631 3.35311e-22)
(1.01248 -0.000262036 0)
(1.01284 -0.000287455 8.55314e-22)
(1.08767 0.228265 -5.95983e-21)
(1.10465 0.196491 -5.67527e-21)
(1.09925 0.210286 1.30308e-20)
(1.01474 0.000710304 -3.11231e-24)
(1.01474 0.000734712 -6.74847e-24)
(1.01489 0.000771753 1.16904e-22)
(1.09887 -0.0835006 -2.8987e-21)
(0.375897 -0.0604395 -1.971e-20)
(0.368013 -0.0307431 1.60296e-20)
(0.459827 -0.0528254 1.34074e-20)
(0.990975 -0.014517 -1.05483e-21)
(0.991744 -0.0090567 -2.11267e-21)
(0.286814 -0.0744402 -1.74169e-20)
(0.369336 -0.0958885 -1.11575e-20)
(0.996862 0.0254348 6.54999e-22)
(1.01551 0.00154927 0)
(1.01539 0.00153747 1.8561e-23)
(1.1316 0.00674483 -1.85008e-21)
(1.01589 0.00465409 3.90423e-22)
(1.01593 0.00424054 3.81834e-22)
(1.01607 0.00439525 8.80948e-23)
(1.02071 -0.00336155 1.17483e-21)
(1.01907 -0.00339299 3.11875e-23)
(0.980107 0.0440707 -2.55464e-21)
(0.981544 0.050454 -9.66729e-22)
(0.986485 0.0463168 -2.42485e-21)
(1.01824 0.00848783 -6.31761e-22)
(1.01792 0.00877236 -3.17562e-23)
(1.01221 -0.000115314 0)
(1.01226 -8.3945e-05 3.1427e-23)
(1.01474 0.000105023 -2.81518e-22)
(1.01463 -1.39096e-05 9.26506e-22)
(1.05913 0.0164509 0)
(1.06048 0.0181864 0)
(1.00784 0.000105229 0)
(1.00618 0.000156602 -4.69304e-22)
(1.01414 0.00252159 -1.05168e-23)
(1.01425 0.00265798 4.36361e-22)
(0.905545 -0.272241 -6.65404e-21)
(1.02204 0.000316469 -1.47177e-21)
(1.02182 -0.000841405 -1.02512e-21)
(1.02325 -0.000182862 9.75665e-23)
(0.00985991 0.0292621 6.40963e-20)
(0.0670686 -0.0458835 9.86576e-20)
(1.02555 0.0302339 8.03353e-22)
(1.02778 0.0305136 -6.01076e-23)
(0.904983 -0.309599 -6.80808e-21)
(0.908604 -0.306432 0)
(1.049 0.213055 2.55337e-21)
(1.03067 0.194061 2.67766e-21)
(1.0247 0.222308 6.18256e-21)
(0.813564 -0.0561347 0)
(0.806217 -0.0212603 -6.96405e-21)
(0.811548 -0.0691524 0)
(1.01644 -0.00144544 -2.09392e-24)
(1.01654 -0.00141433 5.58487e-24)
(1.0151 -0.0077989 -1.10641e-22)
(1.01467 -0.00655175 -1.47704e-22)
(0.764403 0.30509 -5.77325e-21)
(0.768172 0.265025 -5.13179e-20)
(0.788924 0.309532 1.31913e-20)
(1.01213 0.000433168 -1.13597e-22)
(1.01234 0.000449124 -6.64548e-22)
(0.823261 -0.0831986 -3.74132e-21)
(0.820803 -0.0434833 8.02556e-22)
(1.02515 0.0278362 1.82912e-21)
(1.02351 0.0289594 8.86606e-22)
(1.03742 0.0162921 2.8334e-21)
(1.03625 0.016829 4.5071e-22)
(1.01102 0.000224733 1.26883e-21)
(1.01155 0.000255122 0)
(1.04624 0.0172146 -4.6423e-21)
(1.04442 0.0177639 3.5667e-22)
(1.01267 -0.000250658 0)
(1.01263 -0.000309122 9.51016e-22)
(0.959598 -0.0947917 -3.57892e-23)
(0.955834 -0.10632 -6.12312e-22)
(0.939345 -0.103209 2.08249e-21)
(0.754472 0.281538 2.09931e-21)
(0.772773 0.28138 2.70764e-21)
(0.772436 0.304527 3.53129e-22)
(1.01542 0.00480482 -8.53402e-23)
(1.01538 0.00425952 -1.19146e-21)
(1.02211 0.00135307 -1.14594e-21)
(1.02107 0.000651306 2.1012e-21)
(1.00953 4.59668e-05 1.46502e-21)
(1.00874 0.000100088 4.42712e-22)
(1.01615 0.00314504 2.03435e-22)
(1.01614 0.00271125 0)
(1.01579 0.00320179 8.61804e-22)
(0.192688 -0.0830082 -9.51255e-21)
(0.146332 -0.0287259 6.1996e-20)
(1.01443 0.000887663 -1.21437e-22)
(1.01448 0.000962812 -7.62611e-23)
(1.01455 0.00084451 -3.08497e-23)
(1.00937 0.0314938 6.93044e-22)
(1.0126 0.036217 -4.7921e-22)
(1.01222 -4.37522e-05 1.00949e-21)
(1.01228 -5.12563e-05 -1.29183e-22)
(1.01215 -5.069e-05 0)
(1.01345 0.0010536 4.20247e-22)
(1.0135 0.000938164 -6.2498e-22)
(1.01325 -0.000657105 -2.86769e-22)
(1.01329 -0.000731951 -7.10556e-22)
(1.07078 0.0266871 -4.40131e-21)
(0.733328 0.275523 4.01105e-21)
(0.730923 0.256341 5.33797e-21)
(1.00367 0.0324469 -1.40841e-21)
(1.00692 0.0267185 2.68689e-21)
(0.962962 -0.0852903 5.74626e-22)
(0.975932 -0.0886387 -8.74183e-21)
(1.00476 -7.17698e-05 0)
(1.00343 -8.22386e-05 0)
(1.00676 -7.8763e-05 0)
(1.01484 0.000219632 -9.47372e-22)
(1.01499 2.05798e-05 -1.34229e-21)
(1.01982 0.00135067 1.36961e-22)
(1.01955 0.00140783 -1.89563e-21)
(1.01981 0.00156693 7.09421e-22)
(1.14351 0.0194235 0)
(1.12943 0.0403285 -1.74957e-20)
(1.01296 0.000452927 -5.84241e-22)
(1.01293 0.000425067 0)
(1.01292 0.000268997 -1.17369e-21)
(0.977234 -0.103211 -4.35541e-22)
(0.957277 -0.111765 2.18079e-21)
(1.01647 0.00318087 4.22642e-22)
(1.01621 0.00349425 -3.0915e-22)
(1.00006 -0.0109207 1.25345e-21)
(0.996796 -0.00819168 2.54296e-21)
(0.997089 -0.0136697 -2.81076e-21)
(1.03708 0.00455309 5.95639e-22)
(1.03808 0.00416566 -2.68796e-22)
(1.03799 0.00531717 -3.88742e-21)
(1.0142 0.00212025 -2.85972e-22)
(1.01433 0.00219656 2.86278e-25)
(1.01426 0.00223199 9.34871e-23)
(1.00645 8.64805e-05 0)
(1.00355 -5.46369e-05 5.31849e-22)
(0.861069 0.350827 9.4201e-21)
(1.01269 -0.000521861 -1.25653e-21)
(1.01262 -0.000517247 4.41289e-22)
(0.813522 0.0567283 1.82807e-21)
(0.818115 0.0938346 0)
(0.830871 0.0850423 0)
(0.783483 -0.0298571 -1.18414e-20)
(0.686156 0.00637106 -6.26092e-21)
(1.03614 0.00507231 3.87445e-21)
(1.03613 0.00413325 -2.15044e-21)
(1.01498 7.47142e-05 8.06301e-22)
(1.01122 1.86604e-05 5.89272e-22)
(1.01068 8.39983e-05 4.70664e-22)
(0.155206 -0.154373 3.58152e-21)
(0.184312 -0.211815 5.65483e-21)
(0.152984 -0.191322 1.32553e-20)
(0.997649 -0.0197494 -3.44544e-21)
(1.00229 -0.0208314 1.00765e-21)
(0.999306 -0.0245672 1.18566e-21)
(1.01338 -0.000774396 4.98954e-23)
(1.01345 -0.000841511 -3.52443e-22)
(1.01347 -0.000819783 4.54673e-23)
(0.99068 -0.0105375 -6.99668e-23)
(0.986718 -0.00670947 -4.21809e-21)
(0.99273 -0.00564856 -1.22884e-21)
(1.00955 -4.99527e-05 5.0033e-22)
(1.00884 1.24507e-05 1.91553e-22)
(1.05522 0.0373652 4.91377e-22)
(1.05743 0.039483 0)
(1.05793 0.0363927 2.3444e-21)
(1.00892 -0.0141609 -5.66446e-23)
(1.00778 -0.0118079 -1.11588e-21)
(1.00633 -0.0145921 2.37427e-22)
(1.01003 0.000180932 0)
(1.0138 0.000233939 7.23273e-22)
(1.00968 0.000194668 5.10229e-22)
(0.80799 0.0981647 -4.76405e-21)
(0.811216 0.0815438 1.73436e-20)
(0.809069 0.049265 1.38645e-20)
(0.999781 0.0385422 -2.72146e-22)
(1.01401 -0.00156495 7.36323e-22)
(1.01429 -0.00182602 0)
(1.01422 -0.00156507 9.6589e-22)
(0.899571 -0.139487 -6.21661e-22)
(0.892892 -0.12499 -8.71648e-22)
(0.915965 -0.126164 8.24572e-22)
(1.02135 -0.00197291 -4.64117e-22)
(1.0226 -0.00301384 -1.26559e-21)
(1.0198 0.00113212 1.08193e-21)
(1.02009 0.00129499 5.01756e-22)
(1.01239 -0.00019522 -1.11459e-22)
(1.01277 -0.000293296 5.74138e-22)
(1.03416 0.0155068 1.37168e-21)
(0.948069 0.0690967 9.61053e-22)
(1.01627 -0.000839932 -3.12488e-23)
(1.01642 -0.000947166 -6.44227e-23)
(1.0671 0.22705 0)
(1.06962 0.199751 0)
(0.99439 -0.0176338 -1.77512e-21)
(0.998127 -0.0153966 -2.30096e-21)
(0.834727 0.285088 -3.50832e-21)
(0.851314 0.28395 2.07462e-21)
(1.01296 0.000500936 -1.15743e-21)
(1.01295 0.000531395 -8.93186e-23)
(1.01291 0.000284317 -4.99395e-22)
(1.01559 -0.00904322 -8.02127e-24)
(1.01424 -0.00866633 -2.63704e-23)
(0.884699 -0.152968 1.68239e-21)
(0.906911 -0.150456 1.17736e-21)
(0.813155 0.105344 -2.45447e-21)
(0.812182 0.140271 7.67143e-21)
(1.01352 0.000158771 2.47133e-22)
(1.01496 0.000279574 1.04632e-21)
(1.01416 0.00320142 4.28263e-23)
(1.01399 0.00305806 -3.96549e-22)
(1.01401 0.00297886 8.66344e-22)
(1.01678 0.0040511 -9.26743e-23)
(1.01661 0.00384999 6.23777e-23)
(1.01385 -0.00153554 -7.71249e-23)
(1.01384 -0.00134174 2.24661e-21)
(1.01145 -0.0138135 1.22855e-22)
(1.0104 -0.016798 -1.3059e-21)
(0.995011 -0.0141875 -3.65178e-21)
(0.988627 -0.0159318 1.11061e-21)
(1.0132 -0.000627374 0)
(1.01323 -0.000617166 0)
(0.964779 -0.0188643 7.44418e-23)
(0.964359 -0.0291113 -1.77488e-22)
(0.909075 -0.3001 -2.63577e-21)
(0.921927 -0.289176 1.00811e-21)
(0.91171 -0.286345 1.129e-20)
(1.01419 -0.00141355 -6.50804e-22)
(1.01407 -0.00130349 4.02139e-22)
(1.0082 -0.000117873 0)
(1.00812 -8.07644e-05 4.00608e-22)
(1.0059 -6.64898e-05 0)
(0.875985 -0.143849 -2.81691e-21)
(0.993713 -0.0940827 -3.02386e-21)
(1.00315 -0.0122884 2.51493e-21)
(1.00209 -0.00824374 0)
(1.05564 0.0651469 1.14113e-22)
(1.0628 0.0579366 -9.18945e-22)
(1.05411 0.0747309 -8.61261e-22)
(0.943217 -0.00389178 1.19402e-21)
(0.932409 -0.0033151 5.02264e-22)
(0.938895 0.0111329 -1.84037e-21)
(1.01531 0.000304111 0)
(1.01306 0.000207392 -4.95791e-22)
(1.01712 -0.0163878 -6.52585e-22)
(1.01905 -0.0146127 -2.67469e-21)
(1.01641 -0.0136583 -4.52074e-22)
(1.01326 0.00183427 1.16297e-22)
(1.01323 0.00182195 1.65691e-21)
(1.0204 -0.00136641 0)
(1.05261 0.0380318 -1.47744e-21)
(1.05322 0.0352993 4.81481e-22)
(1.01556 0.000641592 1.0316e-21)
(1.01518 0.000674651 -1.63838e-22)
(1.01914 0.00522964 -5.54406e-23)
(1.01903 0.00492423 -4.771e-22)
(1.01938 0.00512033 -5.35232e-22)
(0.99703 0.0157659 1.72637e-22)
(0.998395 0.01092 -2.96917e-22)
(1.01023 -1.79796e-05 7.85263e-25)
(1.00902 -7.12948e-06 -2.35414e-25)
(1.01023 4.64302e-06 8.02333e-25)
(0.927047 -0.285137 -1.15527e-21)
(0.917931 -0.293619 -1.14996e-21)
(0.982485 -0.0014578 1.16384e-21)
(0.97848 -0.00668147 -1.18608e-22)
(0.611299 -0.302286 -2.44247e-20)
(0.597458 -0.300867 -2.48334e-20)
(0.578472 -0.344702 -2.14386e-21)
(1.05548 0.0563524 -2.77773e-23)
(1.048 0.0676043 8.05975e-22)
(1.01277 -0.000257876 1.04498e-21)
(1.01272 -0.000194763 0)
(0.874219 -0.310203 -4.5344e-21)
(0.856161 -0.294079 -4.57232e-21)
(1.11422 0.0402355 2.30403e-21)
(1.12394 0.039292 -3.6032e-21)
(1.06318 0.0405254 -1.40118e-22)
(1.06 0.0419001 5.02229e-22)
(1.06286 0.0442355 4.88849e-22)
(1.01652 -0.00157544 0)
(1.01635 -0.0014753 0)
(1.00736 -0.0134827 1.00647e-22)
(1.00997 -0.0133545 0)
(1.0086 -0.0109443 -1.48892e-21)
(1.00853 0.000203037 0)
(1.01097 0.000299706 2.76466e-23)
(1.01114 0.000318791 -6.58952e-24)
(1.01226 -0.000146275 4.48969e-22)
(1.01216 -0.000148813 0)
(1.01289 0.000595041 0)
(1.0128 0.000546942 0)
(1.01281 0.00046218 -2.17804e-21)
(1.01247 0.000461176 1.29752e-22)
(1.01276 0.000549833 -1.19668e-21)
(1.01259 0.000482103 1.74956e-23)
(1.01695 -0.00719329 0)
(1.01576 -0.00809338 1.66437e-22)
(1.01554 -0.00664886 1.96476e-22)
(1.03131 0.00402465 -2.70419e-21)
(1.03128 0.00332164 0)
(1.03204 0.00371227 -3.25827e-21)
(0.989283 0.018466 4.22234e-21)
(0.983764 0.021195 1.63951e-21)
(1.01774 -0.00628303 0)
(1.01866 -0.0077463 0)
(1.01568 0.000214884 2.18786e-22)
(1.01538 2.3078e-05 1.21063e-21)
(1.01548 0.000247481 -1.4369e-22)
(0.827085 0.320104 1.27254e-20)
(0.837832 0.32303 2.42703e-21)
(1.01492 -0.0179408 1.291e-21)
(1.01834 -0.0200347 1.29149e-21)
(1.01569 0.00493448 -8.1785e-23)
(1.01596 0.00501995 5.78154e-23)
(1.00432 0.000104232 -3.97653e-25)
(0.738171 -0.0965235 1.28423e-22)
(0.702802 -0.116111 -6.16861e-21)
(0.824391 -0.103409 8.41865e-21)
(1.0059 -2.65535e-05 8.44724e-22)
(1.00342 3.53779e-05 0)
(1.00338 -3.27114e-05 -4.24016e-22)
(1.01876 0.00633834 1.70562e-22)
(1.01909 0.00667504 -1.40119e-23)
(1.01678 0.000341359 -1.87474e-22)
(1.01587 0.000467741 0)
(1.03037 0.011612 1.82567e-21)
(1.03093 0.0125467 4.59357e-23)
(0.887727 -0.234561 3.08977e-21)
(0.869623 -0.228696 1.59827e-21)
(0.885003 -0.256932 0)
(0.889405 -0.299216 1.01798e-20)
(0.886533 -0.32114 -1.17498e-20)
(1.03346 0.0112623 -2.03577e-21)
(1.01305 0.00069211 0)
(1.01294 0.000596974 -5.07278e-22)
(1.01296 0.000667312 3.15265e-22)
(1.01844 -0.0052572 1.32621e-21)
(1.01887 -0.00424947 5.90675e-22)
(1.01989 -0.00531083 1.31583e-21)
(1.01719 -0.00514721 7.17362e-22)
(0.839394 0.338116 -7.32354e-21)
(0.842935 0.341181 1.94922e-21)
(0.843758 0.334577 -1.55962e-20)
(1.01623 -0.00102651 1.0361e-22)
(1.00528 0.000127554 0)
(1.00512 0.000119863 -4.7416e-22)
(1.01301 0.000656949 5.90736e-22)
(1.01115 -0.000204146 7.73086e-24)
(1.01311 -0.000385464 0)
(1.01108 0.135566 2.54254e-22)
(1.00019 0.135419 -1.82771e-21)
(1.01306 0.00120102 1.11092e-21)
(1.0131 0.00105367 3.44078e-22)
(1.01322 0.00133013 5.46328e-22)
(0.99388 -0.00552651 3.3868e-21)
(0.997204 -0.00343864 1.66393e-21)
(0.973012 0.179626 -6.6732e-24)
(0.962961 0.160556 -3.06173e-22)
(0.952516 0.180072 -3.06488e-22)
(0.726642 0.143829 -1.92671e-20)
(0.708798 0.0699839 2.74622e-21)
(0.747367 0.0586163 2.96746e-20)
(1.0159 0.125951 -5.85896e-22)
(1.02077 0.135961 9.96924e-22)
(1.01873 0.0056922 -4.53458e-23)
(1.01866 0.00537885 3.36045e-22)
(1.0184 0.00542053 0)
(0.993311 0.178766 -7.24757e-21)
(0.986351 0.200139 1.59291e-21)
(0.98019 0.0376745 -2.24004e-21)
(0.974148 0.0411389 2.23068e-21)