/*--------------------------------*- C++ -*----------------------------------*\
| =========                 |                                                 |
| \\      /  F ield         | OpenFOAM: The Open Source CFD Toolbox           |
|  \\    /   O peration     | Version:  v2012                                 |
|   \\  /    A nd           | Website:  www.openfoam.com                      |
|    \\/     M anipulation  |                                                 |
\*---------------------------------------------------------------------------*/
FoamFile
{
    version     2.0;
    format      ascii;
    class       volScalarField;
    location    "300";
    object      ddt0(k);
}
// * * * * * * * * * * * * * * * * * * * * * * * * * * * * * * * * * * * * * //

dimensions      [0 2 -3 0 0 0 0];


internalField   nonuniform List<scalar> 
9793
(
3.30797e-08
0.000575728
8.84504e-08
0.000155279
1.07823e-07
6.24003e-06
1.21698e-07
0.000955368
1.90384e-07
0.00126275
1.01608e-07
1.04105e-07
-3.49173e-08
0.00133166
3.45602e-07
6.43672e-07
4.96693e-07
-1.84989e-07
0.00031425
2.03821e-07
9.22766e-08
-3.35344e-10
0.000305508
0.000878532
0.0016624
1.00941e-07
5.30898e-08
-4.25883e-08
2.07936e-07
7.04666e-07
0.000275112
-7.11157e-05
2.33534e-07
6.30773e-08
2.55531e-07
6.62538e-07
3.03227e-07
4.40058e-08
-0.000348784
4.46727e-07
4.52072e-07
0.0251993
-0.00571126
5.36438e-08
-4.55029e-08
-5.77816e-08
-0.000586788
6.15118e-08
-6.21218e-08
-1.23329e-07
6.69421e-07
1.99861e-07
4.97879e-07
6.50825e-08
9.71791e-08
0.000152964
-5.47898e-08
1.59012e-06
-5.02282e-08
-2.95919e-10
5.43086e-08
-2.37019e-07
5.40951e-08
9.20323e-07
-8.72004e-08
1.67617e-07
0.000153565
4.36532e-07
3.60327e-07
-0.00471159
9.9264e-09
-4.82243e-08
0.000471954
0.00282909
-0.00511578
7.91636e-08
2.93845e-07
0.0102848
5.53127e-08
5.19179e-08
-3.43531e-07
6.61005e-06
3.567e-07
2.43456e-07
3.67307e-07
1.14803e-05
1.3293e-07
1.21423e-06
-0.000376748
-1.26997e-06
0.000267557
6.41726e-05
0.0139597
3.27865e-07
-0.0057566
-3.92386e-08
-0.00555371
4.0986e-07
4.07522e-07
9.38145e-08
0.000166477
5.34281e-07
0.00219545
-3.94995e-08
-0.00219478
0.00465806
0.0009281
1.22004e-07
3.41073e-08
8.79612e-08
8.7955e-08
0.000306396
-3.38343e-06
-0.000110255
1.71259e-10
2.36824e-07
3.69635e-07
-1.43635e-07
0.000122414
-3.71961e-08
-0.00178296
1.18673e-06
0.00157
4.49766e-07
3.04922e-07
-6.64093e-08
4.74938e-07
0.000307882
4.68335e-06
4.74082e-06
2.14032e-07
1.12792e-07
5.08603e-09
3.84357e-07
5.53203e-07
-1.56448e-08
0.000320591
3.74411e-07
3.31823e-08
5.53692e-07
-0.000844266
6.22789e-07
-1.5713e-07
9.82998e-07
-0.00212889
-0.000206772
-4.96877e-08
-0.00573838
7.09245e-08
-7.52863e-08
1.45387e-07
-0.0031089
3.66252e-07
5.89603e-08
1.47391e-08
0.003605
6.05027e-07
-3.78541e-08
0.000257369
2.20871e-09
1.07512e-06
3.05817e-07
9.16566e-08
5.00279e-07
6.26119e-08
0.0179326
-0.000201111
1.12255e-07
1.38397e-10
-3.22603e-09
-6.28343e-08
-0.000180032
-0.000123355
-0.000685146
-3.74993e-08
4.05119e-06
5.52684e-08
-1.98452e-06
3.52366e-08
4.1269e-07
-0.00217716
-0.000849443
1.3517e-06
-7.19833e-08
-8.17854e-08
6.14175e-08
0.00791917
0.000488499
-0.0237259
0.00226477
1.67449e-07
0.000570094
4.54901e-06
4.42511e-08
-8.26354e-10
1.41701e-07
3.35991e-07
-1.1242e-08
-1.82254e-07
-2.06206e-08
-2.47598e-08
9.78592e-08
7.58104e-07
4.25275e-07
0.000266714
-7.58652e-08
5.62227e-07
1.14712e-07
7.30302e-08
4.02065e-05
6.01766e-07
-0.00156417
9.07415e-08
-0.00370642
2.29691e-07
1.25285e-06
2.96257e-07
-2.69091e-06
1.87648e-07
-1.51317e-07
4.76083e-07
9.85461e-08
3.74932e-06
-0.000697566
3.05059e-07
-7.15905e-08
6.30803e-07
-0.000728718
2.54038e-07
6.964e-07
0.000140059
2.68734e-06
1.2379e-06
9.48046e-07
2.32793e-06
-9.59686e-08
0.000564166
-0.000139707
-7.18074e-08
3.97634e-08
0.0285433
-4.8506e-08
9.695e-08
2.41771e-06
2.82599e-06
1.6421e-07
4.1928e-07
4.65459e-07
2.11344e-07
3.63698e-07
4.24553e-08
2.69932e-07
0.000365512
8.03951e-08
-0.000644097
9.18185e-08
-1.62091e-07
2.10256e-07
0.000116852
-2.58024e-08
-0.013858
-0.00292217
1.72727e-07
8.98787e-08
0.0103453
-5.54053e-09
1.36392e-07
-1.01063e-07
-0.0024982
1.95539e-06
5.0025e-08
4.23499e-06
1.28404e-06
0.000918028
0.000392203
1.78562e-07
-5.75771e-05
-1.73471e-07
-0.000577326
0.000296642
-0.000333384
-0.0019292
2.53108e-06
2.08747e-07
4.22012e-07
3.79823e-07
9.47637e-08
1.06031e-07
2.02282e-05
9.9152e-08
6.29459e-08
-1.24939e-08
-1.32487e-08
2.58117e-07
9.94407e-08
0.000495504
-4.20048e-09
3.54485e-07
3.35985e-07
-1.63977e-08
0.000594812
5.57722e-05
-3.19621e-08
5.59544e-08
1.0493e-06
4.8133e-07
0.000182543
-0.00166878
-3.91621e-08
-0.00362373
8.77171e-07
1.1681e-08
0.000766928
0.00045828
2.55584e-07
2.71227e-07
0.000119435
5.9325e-08
-8.33265e-08
3.61974e-07
5.32155e-08
-4.43788e-05
2.3932e-07
6.0677e-08
-3.50073e-08
5.96528e-08
-5.0782e-07
-2.78812e-06
6.1203e-08
1.79686e-07
1.50194e-08
-0.00016493
-5.81153e-05
-0.000747692
-7.40844e-08
-3.26818e-08
-6.8895e-08
7.76278e-05
8.08125e-07
-1.96411e-07
-1.66866e-07
1.6495e-08
4.22256e-07
3.00983e-08
-0.00119006
2.20528e-07
4.00801e-08
-0.000548747
0.000569385
-0.00258043
2.69942e-07
0.000105694
2.17386e-07
-9.72694e-05
-0.000669671
0.000174481
3.27874e-07
3.0337e-07
0.000407402
0.000308304
0.000283573
-1.33873e-09
-9.50621e-08
6.15554e-08
-6.79186e-08
2.39305e-07
2.72083e-08
-8.75778e-08
-1.44727e-11
-0.00210313
1.72382e-09
4.4191e-07
5.12032e-07
0.0181081
-2.06244e-07
2.69155e-07
7.53929e-05
1.83366e-06
0.00128601
7.74329e-07
-6.16191e-08
3.27524e-07
4.97794e-08
-1.72784e-05
7.93689e-09
-0.00228796
-2.2352e-07
7.31563e-07
-0.000350651
-0.000272837
3.68279e-07
-8.81287e-09
0.00110297
-6.73419e-07
-1.43107e-07
-0.000201924
4.29541e-07
-1.73276e-07
-0.000497624
-2.62148e-08
1.5707e-06
-8.66223e-08
-0.00119076
1.25375e-07
6.12256e-08
-0.00107035
-7.29741e-08
1.27744e-06
6.56415e-08
-1.32105e-09
-9.2438e-08
-0.00384514
4.33871e-07
-9.82033e-08
1.11221e-07
1.33726e-07
-4.18623e-08
1.29803e-06
-0.00274229
-8.14379e-08
1.14923e-07
1.19235e-05
2.00025e-08
0.000336985
6.468e-06
-8.25241e-08
2.3539e-07
1.18804e-07
4.23978e-07
-4.19888e-08
0.000138037
-7.77184e-08
0.0145592
-6.2673e-08
2.70192e-07
5.01297e-07
4.41986e-08
0.000152137
6.98003e-08
4.50167e-08
4.39991e-07
1.36814e-05
-4.54265e-08
-7.17526e-09
-2.53489e-08
-1.13768e-08
-1.68959e-08
1.84636e-07
-1.05104e-07
2.18182e-07
1.25717e-07
3.72055e-07
2.36246e-06
-1.83107e-07
-3.22947e-06
6.70445e-08
5.39817e-06
0.00040856
9.22213e-08
-0.000212493
2.26229e-07
6.06159e-09
2.01375e-07
-1.91345e-07
-0.00116165
1.25664e-06
1.78267e-07
2.57831e-07
-1.69061e-07
-6.62599e-08
-6.88755e-09
0.00869573
-9.78053e-08
-2.19004e-08
4.20957e-08
-5.3234e-05
-0.000264009
2.99502e-08
4.00779e-07
-0.000783449
0.0231078
7.99981e-06
-5.55126e-09
1.23171e-07
0.000205864
-1.69171e-07
-2.42194e-07
0.0304911
-1.44094e-08
5.98525e-08
5.1354e-07
0.000191399
-9.80669e-08
0.000287213
8.73027e-05
6.14226e-07
0.00562631
-1.16228e-07
-1.04084e-05
7.51746e-08
-3.85962e-08
1.82926e-07
-1.23134e-07
-0.00396115
-6.22245e-08
-2.02216e-08
5.76162e-08
-6.7439e-08
1.60473e-07
2.66092e-07
2.22912e-07
8.81595e-07
2.05469e-07
1.46288e-07
0.000125643
-8.89455e-08
2.86258e-08
-0.000792083
3.3234e-07
9.08328e-08
4.52111e-08
-1.27023e-08
-0.00146842
-3.57395e-08
-1.10554e-07
0.000621654
0.0263307
1.57808e-07
-1.9712e-07
8.21091e-08
1.77961e-07
1.16065e-09
-0.000324168
3.36831e-08
0.00247057
2.35718e-07
-2.06277e-06
9.02617e-08
0.000820564
3.47132e-08
2.16513e-06
-1.4935e-07
1.10592e-06
0.000305712
1.03627e-07
0.0227715
1.21289e-07
9.24347e-09
7.49864e-08
-0.00156361
0.000259861
-1.31938e-07
5.39444e-07
-5.17235e-08
-0.000594668
-2.96579e-07
2.36376e-07
4.14686e-05
3.18028e-08
-2.46382e-07
1.15917e-08
3.99385e-09
1.66172e-07
3.59943e-08
2.06508e-06
-1.75426e-07
-0.000868614
1.30414e-08
9.15245e-08
1.08125e-06
5.57202e-07
0.000960955
3.63836e-07
0.000791137
-1.13183e-08
2.92849e-07
5.42598e-08
7.68542e-08
-9.93394e-08
-5.4815e-08
7.47306e-08
-1.04012e-06
1.24425e-06
0.019467
3.04365e-07
6.24616e-08
1.34837e-07
-0.000150456
3.95439e-07
-0.000191779
-0.00306758
1.24348e-05
0.0123451
0.0147461
-3.40102e-07
1.95166e-07
1.16921e-06
1.12732e-06
3.77448e-08
-4.49545e-05
3.95039e-08
6.6767e-06
1.91746e-07
2.61877e-07
-5.02159e-08
0.000653862
-0.00849774
1.03991e-06
4.19184e-06
1.29541e-08
-2.19199e-05
-6.50964e-08
-1.72269e-07
-3.55778e-08
2.69518e-07
3.79064e-07
0.000104601
4.77274e-06
-0.0053532
3.90684e-07
1.39265e-07
0.000245408
-1.39956e-07
4.83045e-07
6.57371e-07
8.82284e-08
0.000108722
-0.000823493
-1.41622e-07
-5.56453e-08
-1.1607e-05
-0.00499774
-8.81132e-09
6.49106e-08
-0.00025735
7.13654e-07
0.0153728
1.27193e-06
0.0127025
1.82275e-07
3.96629e-07
1.7228e-07
6.29189e-08
5.16368e-06
9.27219e-09
3.60517e-06
1.75549e-06
-6.36958e-07
6.44756e-09
-9.9223e-08
2.58012e-07
7.43863e-08
2.54877e-07
-9.74519e-08
9.04756e-07
-0.000573273
0.0017747
-4.809e-08
-2.97659e-05
-2.13385e-07
-0.00171386
9.07231e-07
4.96652e-07
-1.23062e-07
-7.05884e-05
1.33438e-07
1.46502e-07
2.29804e-07
-1.26396e-07
1.36476e-07
5.95465e-07
0.000685963
1.14376e-07
6.03838e-06
-0.000524721
4.28942e-07
-0.000263866
-0.000682602
1.45077e-07
5.02542e-07
7.06094e-07
1.6799e-07
7.20961e-08
7.43487e-08
-0.000468339
-0.00177651
-3.44539e-08
-4.58726e-08
2.6492e-07
4.1077e-07
2.35807e-07
2.37203e-07
-3.45752e-06
9.58179e-07
3.77396e-07
0.0197984
7.53392e-07
7.11342e-08
1.81538e-07
0.000141771
2.07639e-07
-2.36701e-07
-6.62458e-07
-1.33068e-07
-7.63312e-08
-1.32091e-07
4.51422e-08
4.44579e-07
1.67995e-07
1.0059e-06
0.000433137
1.67821e-07
1.99074e-06
4.91364e-07
1.26636e-07
0.00174115
-0.0004975
4.25466e-05
1.77908e-07
-9.33955e-09
0.00800035
6.92297e-08
0.000220513
4.05918e-08
5.8994e-10
-5.87998e-05
0.00250847
4.80422e-07
1.87455e-06
4.16303e-08
-2.51014e-08
-1.68691e-08
1.3761e-07
-0.00451315
-1.33145e-07
-1.15424e-11
0.000296844
-3.86066e-08
-1.02068e-05
-1.06152e-08
-5.47207e-08
8.41334e-05
-2.96402e-07
-2.95618e-08
1.28953e-07
1.74081e-07
9.8119e-05
-1.59559e-07
-2.7078e-08
-1.03982e-07
-6.0342e-08
-2.15233e-07
2.19932e-07
0.0111388
1.94312e-07
9.49543e-08
-8.49323e-08
1.51477e-07
5.0609e-07
6.27725e-07
-5.59754e-08
4.22928e-08
2.24538e-07
3.6126e-07
0.000348231
0.00175123
2.3208e-07
-0.00331594
3.7493e-08
1.62861e-07
0.000812635
6.27828e-06
1.93234e-07
-1.52588e-07
-6.65726e-10
6.45309e-07
-2.36821e-07
8.97672e-08
-0.001232
2.7741e-08
3.7649e-07
2.07627e-07
-1.11452e-06
8.12603e-08
-2.60494e-07
1.46769e-07
2.75579e-07
-4.75036e-09
4.37586e-08
4.57211e-09
6.70126e-08
-1.18886e-07
-3.39814e-08
-1.93567e-09
-6.91029e-08
1.782e-07
6.08895e-08
4.70811e-07
2.58851e-07
7.77849e-07
0.00160027
3.84115e-07
6.05483e-07
1.5955e-08
3.83138e-08
-0.00016851
0.0105895
-3.4741e-08
-4.63486e-05
0.000317725
3.67155e-08
-7.38142e-08
1.02867e-07
7.19525e-07
9.15529e-07
-6.45077e-07
-3.60974e-08
4.6796e-07
-2.04843e-08
6.04095e-08
-2.3088e-07
3.46623e-07
1.41686e-07
8.49033e-06
2.96607e-08
3.66493e-07
-7.58096e-09
1.20351e-07
1.18274e-08
1.13288e-06
-7.02879e-08
0.000585664
-0.00101725
-0.000288651
5.27501e-07
-1.40322e-09
9.16806e-05
-2.92223e-06
1.0281e-06
1.56605e-07
-1.02789e-08
-1.08546e-06
9.98251e-08
0.000123172
-1.12227e-07
6.84906e-07
1.30697e-07
-8.8378e-08
3.15631e-07
0.0289151
-0.00496786
0.000169309
1.79942e-08
-0.000117149
-1.73897e-09
-0.00155564
0.0023841
2.90422e-08
8.95321e-08
2.51592e-07
0.00293474
1.75598e-09
-0.00081207
4.97089e-08
2.18838e-06
1.74832e-07
0.00099459
-0.00688262
1.95286e-06
2.05154e-07
5.27906e-07
-2.38884e-07
-0.00239685
1.42698e-07
7.01465e-08
7.40947e-06
-3.54252e-08
0.0104842
-0.00488218
3.4811e-07
3.27608e-07
-1.92133e-07
1.08689e-06
0.00101958
-0.0002102
2.27932e-07
2.12874e-06
5.16724e-07
3.03327e-06
-4.39271e-08
0.000691758
0.000899038
-1.69391e-07
7.34546e-08
8.15785e-07
2.32922e-07
3.68402e-07
0.00177185
-1.19888e-07
0.00334252
-3.76503e-07
-1.93691e-07
6.19938e-07
2.14573e-06
0.00183797
3.42421e-07
-0.00798735
0.0106182
0.00132943
-1.2586e-08
-4.7626e-08
3.44796e-07
-2.44467e-08
1.76849e-08
-0.000765873
0.000149758
1.81694e-07
4.5258e-08
8.38563e-07
-1.50634e-05
4.45217e-07
-7.80776e-08
-4.49582e-07
-4.1269e-08
-2.49171e-08
5.01234e-08
1.10224e-06
-3.50832e-08
3.96937e-07
0.000321505
4.46615e-07
1.58394e-07
2.40493e-06
-5.10935e-09
-8.38862e-08
2.42872e-07
4.94672e-07
3.30833e-08
-1.98638e-07
2.13857e-07
0.00546927
2.61202e-05
1.73143e-07
4.78654e-07
-6.00316e-08
-4.83154e-05
1.04877e-08
-0.00177922
1.77402e-07
2.86031e-07
-4.26747e-07
-6.30461e-06
7.24887e-07
-4.18972e-08
7.92868e-08
-0.00452453
7.97032e-06
-2.1192e-07
5.28274e-06
-1.33548e-07
4.14703e-07
2.46885e-07
-3.24782e-05
6.24114e-08
0.00033782
5.8975e-08
1.24973e-07
2.61178e-07
-1.18213e-07
-1.00934e-07
2.89099e-07
1.40156e-08
-0.00156056
-1.15148e-07
6.33777e-08
-5.57652e-08
4.0323e-07
0.00123881
0.000192773
1.00526e-06
0.000205152
-7.09085e-08
1.76113e-07
3.97126e-07
0.0280579
1.04272e-07
-6.17826e-08
0.00145004
1.0556e-07
9.01951e-08
2.03796e-08
2.77664e-06
0.0270808
-0.00196129
1.76592e-08
3.5453e-08
-8.60031e-07
7.74809e-07
-0.0035165
1.49455e-06
3.28383e-07
6.42441e-08
6.38635e-08
1.00961e-06
9.18715e-07
-1.8428e-07
1.19692e-06
2.92277e-07
-1.79161e-07
9.68456e-08
2.69385e-07
-1.05464e-07
4.42385e-08
4.29522e-05
4.46081e-07
4.02242e-07
2.93193e-07
1.6992e-07
9.43443e-08
3.18358e-07
-0.00257285
-9.13839e-08
3.41766e-07
0.00220126
-9.9981e-08
-0.00275416
2.15026e-07
-0.000129038
2.07257e-07
6.25954e-08
6.23158e-08
3.38432e-07
-0.00171251
-1.84683e-06
3.65174e-07
1.47779e-07
1.55965e-07
7.86975e-08
7.6614e-08
3.73301e-08
0.000451763
4.78757e-07
1.86009e-07
2.48427e-06
3.50045e-09
0.00437785
3.75697e-07
0.00138418
5.6837e-09
4.86753e-07
8.15663e-07
-1.04028e-07
6.72891e-06
2.11976e-07
0.000882303
1.26302e-05
1.06286e-08
-0.00164273
5.6261e-07
1.55935e-07
4.18337e-08
1.62179e-08
1.41452e-07
5.83601e-08
-0.0014845
6.63071e-07
2.33101e-07
-5.47328e-05
1.87035e-07
0.000666028
3.03923e-06
-1.99156e-07
0.000540934
8.05461e-09
-1.41872e-08
7.92154e-08
0.00119959
0.00508819
7.98986e-07
3.50916e-08
-1.1979e-07
-6.21602e-05
-5.88537e-09
3.73604e-07
-1.3074e-07
-1.66144e-08
1.77004e-07
0.00301908
1.22755e-07
-4.83444e-09
2.0637e-07
7.80448e-09
8.70948e-06
1.17373e-06
8.65958e-07
1.85386e-07
3.34192e-07
-1.09088e-05
-0.000816081
2.23594e-07
2.81099e-07
2.20738e-07
2.43277e-07
-0.00932026
0.00514042
4.2521e-06
1.80958e-07
1.06192e-07
0.00546843
0.00743803
2.06044e-07
0.00142103
-1.78225e-08
4.46592e-07
-0.000619649
6.70826e-08
-0.00749237
-0.00182517
1.13516e-06
0.000376758
0.00390258
9.24123e-08
1.04297e-07
-2.39105e-05
7.06626e-05
8.9649e-08
0.000187706
4.20915e-07
-9.78241e-09
-2.13175e-08
3.60298e-07
4.33609e-07
4.5703e-07
-2.15811e-07
0.000437079
-2.79023e-06
3.32752e-08
-9.12573e-08
9.11882e-08
8.47774e-07
2.42225e-07
-5.1199e-06
2.96868e-07
9.97594e-08
1.97785e-07
-3.83236e-08
5.20175e-09
7.97234e-08
7.36908e-06
2.34818e-07
-5.99226e-09
-0.000166423
0.00033688
1.1584e-06
7.11118e-08
3.80117e-07
9.82631e-08
1.90822e-08
0.000552721
0.0206343
-9.53699e-08
1.37648e-07
-0.00150342
0.000537404
3.18391e-07
3.75977e-08
0.00546638
4.53952e-07
9.57077e-08
2.66766e-07
-9.96243e-08
1.28267e-07
-4.78649e-08
0.0106444
5.3338e-06
1.85497e-07
-4.58489e-07
8.20076e-07
3.38113e-05
0.00900749
-0.00113533
3.33862e-06
1.24623e-08
1.82687e-07
1.70866e-07
-9.92674e-08
4.08378e-07
-8.08259e-08
-6.99955e-08
5.45514e-07
0.0025321
1.77591e-07
0.00035704
6.24322e-09
5.32045e-05
1.29728e-07
6.48081e-06
6.88485e-07
2.10065e-06
-1.14428e-06
2.42929e-07
-6.1128e-08
0.00305177
5.0124e-07
0.00325218
-6.93741e-08
0.0036473
2.34394e-07
-0.000104351
0.000168331
-6.5424e-08
-1.5888e-08
-2.57613e-07
-0.000488413
-0.00563029
8.00433e-07
-2.31023e-07
0.000135994
1.91044e-07
4.38664e-07
0.00285079
-2.60203e-06
4.48846e-08
0.00453788
-2.61545e-08
8.32713e-07
2.04708e-09
0.0156116
2.30829e-08
2.55622e-07
-7.89294e-05
1.36493e-06
-7.70025e-08
5.04542e-07
2.62149e-07
-5.14764e-07
-1.14471e-08
-5.04887e-05
9.65234e-09
2.46935e-07
-1.21896e-07
-9.34391e-08
0.000304581
7.10048e-07
-0.000261671
0.0114535
0.0002174
5.60172e-08
1.40407e-07
1.91241e-07
4.71353e-07
6.07793e-07
6.2738e-07
0.00024912
3.69797e-07
-2.16935e-05
1.6929e-07
5.31892e-10
9.04394e-08
1.14279e-06
0.000318263
0.00015707
-6.48529e-08
0.000154086
-4.13581e-08
-2.94177e-05
-2.94768e-06
6.6901e-07
-1.24119e-08
1.42935e-08
3.12995e-07
0.0100994
3.45041e-07
6.76702e-09
4.16486e-07
4.04438e-07
1.18624e-07
7.5334e-05
0.000383514
2.80381e-06
2.8758e-07
5.2538e-07
0.00172998
-1.20538e-07
-1.03463e-08
3.00093e-07
0.00028544
2.01274e-07
1.4785e-08
1.00696e-07
-1.25217e-06
2.23705e-07
-0.00090454
-1.95907e-08
2.52589e-06
-5.21016e-06
0.000149696
5.17736e-06
-1.73375e-07
3.90915e-08
0.000940546
2.62959e-08
1.72081e-07
1.35592e-06
3.72378e-07
1.31828e-07
0.00751942
3.5929e-09
1.37045e-07
1.78345e-07
-1.0675e-06
1.97942e-07
3.53769e-07
5.297e-08
4.38113e-07
-0.000400305
-1.47017e-05
1.41597e-07
1.87625e-08
1.67462e-06
-0.00130182
-3.12492e-06
-2.83268e-05
6.77637e-07
-8.37654e-08
1.08462e-07
-0.000774528
1.43084e-07
0.00344217
5.74873e-07
-0.000130486
-1.54713e-07
-2.69301e-08
4.62374e-08
3.50823e-07
1.30196e-06
1.45281e-06
0.000313228
-0.00231914
-2.28248e-06
2.10791e-07
1.36771e-06
3.04862e-07
1.08733e-06
4.92595e-07
2.93357e-07
-9.07185e-08
5.50641e-08
2.22033e-07
1.09838e-06
1.93879e-08
2.97341e-07
-8.69722e-08
0.000812185
-0.00245577
1.10745e-06
-0.00072691
6.34797e-08
1.60575e-07
-6.11784e-08
-2.652e-06
4.30925e-07
3.42669e-07
8.03621e-07
0.00997173
1.84123e-07
1.28437e-06
3.02354e-07
1.84839e-07
-0.00267397
1.74638e-07
-4.38222e-06
5.74713e-08
7.61118e-08
0.00197144
1.80074e-06
1.75841e-07
7.37315e-07
1.53237e-06
-0.00442659
-0.00203375
4.94738e-07
1.15702e-06
9.81936e-07
0.0115543
1.99824e-07
8.19194e-05
-0.000321358
6.18771e-09
5.23021e-07
-5.81011e-08
1.58202e-05
-1.61556e-07
4.17155e-08
0.0011543
2.03713e-07
-4.35262e-08
4.10247e-06
1.05097e-06
8.99835e-05
0.000215754
1.53005e-06
0.000635934
-1.97368e-07
-5.66725e-08
2.41229e-07
-3.71073e-08
0.0330544
1.68427e-07
0.000160723
3.00242e-07
-0.0013518
3.11882e-08
-1.15265e-08
2.28773e-07
3.19813e-09
2.07676e-07
1.65848e-07
1.5399e-07
-0.000139172
1.22623e-07
9.92047e-07
8.28417e-08
0.000266193
-1.88971e-08
-2.5552e-07
2.15428e-07
4.56864e-07
1.08427e-07
1.42252e-07
2.15364e-07
7.00465e-08
3.12306e-07
2.36081e-07
3.75679e-07
-5.97193e-09
0.00422891
2.22503e-05
-0.00263859
0.000601672
5.1126e-08
-9.06167e-08
-1.26084e-08
3.61696e-07
1.02048e-07
5.82129e-08
2.34467e-06
-2.26357e-09
2.67641e-08
-6.93441e-08
2.44533e-07
1.29988e-07
-0.0010313
3.66056e-07
-6.94392e-08
-0.000994195
8.90591e-07
3.59122e-07
-0.00122894
0.000448675
1.26521e-07
4.62336e-05
-5.90585e-06
2.03284e-07
-8.37178e-08
2.89588e-08
8.269e-08
2.00621e-07
-3.11453e-07
1.15582e-06
-8.95284e-08
-1.77514e-07
1.80943e-07
0.000354301
6.33347e-07
-2.03402e-08
-1.25561e-07
-4.94195e-09
-0.00381762
4.55256e-08
-1.00546e-08
3.30646e-07
3.6634e-07
7.04821e-08
2.7907e-06
9.57144e-05
-0.00298187
0.00133118
-1.53193e-06
1.07139e-07
-1.2025e-07
0.0129998
-2.52527e-07
2.69672e-07
5.78986e-07
-2.71015e-10
7.77617e-08
-2.76345e-07
0.000449255
1.73026e-07
-1.86133e-07
1.80376e-07
2.51809e-06
5.48289e-09
3.66472e-06
-2.24777e-07
-2.57595e-05
-3.84622e-06
0.00276811
-7.30695e-08
2.20466e-08
5.38734e-09
1.71559e-07
1.96647e-07
7.70776e-08
2.03683e-08
0.00922172
-1.32896e-07
-8.76496e-07
0.00419613
3.67304e-10
-0.000883232
1.23251e-07
-1.46315e-07
4.16538e-07
-1.975e-08
2.24834e-07
6.1133e-07
2.44435e-07
4.69431e-07
-6.10907e-08
0.00280547
0.00727101
1.83737e-07
4.25633e-08
4.54836e-07
-3.0972e-07
1.06232e-06
-9.42374e-06
3.8319e-07
6.73492e-07
1.45133e-08
-1.42123e-07
5.69567e-07
7.55066e-08
0.000631482
2.47659e-08
-1.50266e-07
-5.11261e-07
0.0163588
2.75998e-06
-0.00136169
1.23366e-07
3.74926e-08
-3.29726e-06
9.00132e-06
1.91152e-07
0.000820831
1.29339e-07
-1.80113e-05
2.07704e-07
1.07636e-07
0.000134974
2.73463e-05
4.22612e-07
1.26116e-07
3.24594e-07
2.72125e-06
-1.6499e-06
-4.72823e-07
9.12823e-10
-4.53954e-08
3.21967e-07
1.53971e-06
-0.00828561
2.236e-07
7.54562e-07
0.000923773
7.63812e-07
-9.58791e-07
0.000183109
-9.85915e-05
-0.00098396
3.593e-07
3.89899e-08
0.000143624
4.58613e-08
1.80121e-07
1.06729e-05
-0.00183428
8.22682e-10
2.21374e-08
3.51647e-05
3.04305e-07
1.38544e-05
-0.00334811
-0.000607353
0.000237933
-7.86291e-08
-9.20077e-08
4.11012e-08
2.455e-07
-0.0123572
-2.18466e-08
5.39515e-06
2.39301e-05
-1.16136e-07
1.44477e-07
-4.31323e-06
4.80233e-08
8.09321e-07
3.31502e-08
1.82125e-07
-0.000239797
-0.0075922
-7.19472e-08
-2.72458e-08
1.14144e-06
0.00719284
1.83395e-05
-0.00104622
-1.83094e-07
2.08321e-07
-3.29028e-08
-2.01774e-07
-8.79738e-08
-2.86201e-08
-1.35437e-08
0.00546612
-3.74674e-06
1.95114e-05
1.75696e-07
2.14643e-07
-6.86531e-08
0.00943557
-2.65017e-08
1.15157e-08
2.90443e-07
3.79731e-09
-6.08042e-08
-4.60704e-05
0.0235156
0.000445425
-5.23901e-06
-0.00061303
4.21942e-07
4.27507e-08
8.12235e-05
3.32531e-07
1.10188e-06
0.0141706
-1.48928e-08
-0.00148664
0.000766342
3.64373e-07
1.03897e-07
-8.60305e-06
2.13931e-07
3.45899e-06
2.5958e-07
0.000456696
1.16787e-07
2.56328e-07
1.68498e-07
-9.93953e-06
1.27169e-06
1.19923e-07
-4.65941e-05
-0.000897069
-8.64806e-08
1.95887e-06
-5.58439e-07
3.7568e-07
2.4389e-06
0.000481685
2.20588e-07
1.67539e-07
-0.00142559
8.04509e-07
1.84656e-07
-1.36875e-07
6.96074e-07
7.59838e-07
3.17192e-07
7.15624e-08
0.0221227
-2.5154e-06
0.000564429
6.69517e-06
0.000538123
1.43734e-07
-7.23338e-06
0.0189566
-3.54015e-08
1.47593e-05
0.00345831
0.0308474
2.17648e-07
-1.92061e-08
0.00159454
0.0205737
-7.6174e-08
-4.88008e-06
2.47272e-07
-2.0242e-08
2.74759e-06
-5.21595e-09
0.000129367
0.000665612
-0.000229619
0.030106
4.70513e-08
7.16315e-07
-9.9262e-09
3.72819e-08
-3.58378e-08
6.04063e-07
4.86257e-07
7.24586e-06
0.000117881
2.1378e-09
5.09392e-07
2.12792e-06
2.43869e-07
-8.10443e-06
-3.16595e-08
-1.87924e-05
-7.99693e-05
6.19762e-05
0.0135077
0.000124251
0.00022716
-0.000103737
0.00025482
8.34082e-07
7.55449e-08
5.10066e-07
2.34822e-07
0.000972406
0.033828
1.63049e-07
-5.28096e-07
-0.000418843
0.000220041
3.65987e-07
6.38001e-05
-1.77068e-09
6.77503e-07
0.000425208
0.011778
1.12451e-07
0.000554179
-2.94062e-06
2.0233e-07
2.68848e-07
7.90772e-05
-0.00255661
-0.0044166
-0.00499812
1.89758e-07
0.00422275
0.000147654
-4.67498e-08
1.07797e-06
1.87304e-07
1.22492e-07
5.15198e-07
9.44938e-05
-0.00160391
4.43109e-07
-1.14341e-07
0.00138735
2.06643e-08
0.000341416
4.43495e-07
-1.03079e-05
-9.80318e-05
-2.76633e-08
0.00849695
2.70859e-08
7.24043e-07
-6.9264e-08
-3.45642e-07
-3.98551e-07
2.75035e-07
4.65836e-06
2.13801e-08
0.0065639
1.08047e-06
0.0249004
-0.00145574
0.000201488
1.40739e-07
-0.00108265
2.13314e-07
0.000113985
2.06187e-07
1.00611e-07
-0.00372869
0.000126446
-0.00119535
-1.03447e-07
-6.6256e-09
-2.42041e-07
0.0145443
-0.000206498
2.50244e-07
0.0657814
-1.0917e-07
5.5549e-08
0.000387637
-4.86805e-08
0.00579922
1.6491e-07
7.10609e-07
0.000214942
-0.00201643
1.26625e-05
-2.13012e-06
-7.10082e-05
0.000143037
0.0213851
6.3543e-08
-0.000246205
1.66535e-07
-8.51953e-08
-7.65648e-10
-8.50285e-08
-0.000203709
-4.10656e-08
-0.000125398
9.64319e-05
1.05915e-06
3.39375e-06
1.31476e-06
0.000547158
-8.00417e-08
0.000891237
-6.82825e-05
-1.13635e-06
6.49822e-07
4.52275e-08
9.82676e-05
1.63165e-07
1.41469e-06
0.000288273
-0.00214344
4.97476e-07
-2.33885e-07
3.91359e-07
7.70055e-07
-2.80305e-08
2.13338e-07
4.29447e-07
-0.000144442
5.95604e-07
4.66594e-07
0.000410745
1.12572e-06
1.80411e-05
-0.0249595
-7.3322e-05
0.000107887
-0.00093455
0.000328488
0.000482905
9.19785e-07
6.97362e-07
-3.35229e-08
4.7473e-06
3.21231e-07
-5.88162e-06
2.55897e-07
-1.20625e-07
2.16636e-07
8.79566e-07
0.0107484
5.75473e-07
-1.66885e-07
4.78931e-07
0.00876454
1.01716e-07
2.66181e-07
4.4022e-07
0.000134363
6.27448e-07
-1.83506e-07
1.62821e-07
6.54873e-08
9.79459e-07
2.76891e-07
-1.19626e-07
2.71939e-07
-5.53467e-06
1.26681e-08
2.74299e-07
-1.19309e-07
0.0187087
-2.57966e-08
0.00167316
-1.91787e-07
-0.000145464
-2.25775e-09
2.56549e-08
-4.73707e-08
2.43653e-06
9.22574e-07
-0.000115047
-0.00218361
-1.696e-07
8.15527e-08
3.94075e-08
-0.00406963
0.0065124
1.15817e-07
6.95846e-06
0.00015036
3.35771e-07
-1.14418e-07
1.59169e-07
2.22971e-07
5.20152e-08
0.000373454
2.87536e-07
-1.05178e-07
-0.0008157
1.47466e-07
-1.48847e-07
3.887e-05
1.06027e-07
-1.18969e-07
3.64521e-07
-0.00264794
5.22337e-08
4.66734e-08
-9.94518e-09
3.51664e-07
1.91472e-07
-3.943e-08
0.00832521
-6.59849e-05
7.49319e-07
3.92715e-07
-0.00093229
3.50987e-08
1.48417e-07
-2.56703e-07
-0.00040757
-0.000321697
3.0178e-07
0.00368614
-0.00333092
4.89474e-07
0.000110522
0.0137688
-0.000137866
0.0223926
8.86717e-07
1.13792e-06
1.92013e-06
3.13579e-07
-1.93011e-07
-4.83591e-09
7.1418e-07
-0.00176204
2.23091e-07
-0.00312645
-3.96123e-08
8.61462e-08
2.6824e-07
2.56692e-07
1.77118e-07
0.0171141
-0.00036054
0.000350174
0.000242032
1.00616e-07
1.07715e-06
0.000550664
5.09486e-07
0.018889
9.64016e-09
-8.03593e-08
-0.000495292
9.61588e-07
1.81317e-07
1.12771e-06
4.39088e-07
7.03133e-08
0.00012492
-0.00221808
1.69011e-07
-1.85836e-07
-1.55732e-07
1.2143e-07
-0.000902652
1.40826e-07
3.44043e-07
-1.4066e-08
1.14288e-07
-1.01677e-08
-2.25215e-08
0.000509007
6.8516e-07
2.10169e-07
-7.00693e-09
4.24144e-07
3.86963e-07
1.25833e-09
-9.79628e-05
0.000208422
5.73629e-07
-6.84819e-06
2.41435e-08
1.15977e-08
2.07926e-06
-0.00304739
2.4061e-07
5.3666e-05
0.0128537
-8.77088e-08
2.87858e-07
6.15535e-07
4.81706e-07
1.42562e-07
0.000943344
3.63848e-07
1.33536e-07
1.19301e-07
-0.00172352
0.0166822
1.7406e-07
1.45107e-06
2.11333e-07
5.68498e-07
2.14367e-06
2.58935e-05
-9.55205e-08
2.5679e-07
-0.000894069
-4.47034e-08
-2.90017e-08
-2.24428e-08
0.000998928
0.000147756
1.28711e-07
0.000747846
7.29027e-07
6.67966e-06
3.36504e-05
-1.47332e-07
0.000345447
6.62036e-07
-8.05956e-08
0.00129941
2.32919e-06
1.14797e-07
1.93641e-07
8.66125e-05
1.37865e-07
9.49679e-08
2.22851e-06
6.48545e-08
-2.26497e-07
0.00040011
4.67998e-07
1.22733e-06
-0.000763231
-2.72636e-07
0.0213556
0.000642631
4.75832e-07
1.04191e-06
1.71653e-06
-1.09405e-08
2.45768e-06
2.57611e-07
-0.000729131
2.92936e-06
-4.26193e-08
0.0314481
0.00552752
-2.54383e-08
-9.135e-08
-6.34491e-07
1.11609e-06
0.000674786
0.000442765
-5.41099e-08
2.75764e-07
0.00036049
3.63783e-07
8.31046e-07
1.15278e-06
1.44803e-07
0.00111751
-1.76441e-06
1.98592e-07
1.54367e-05
0.017538
5.21493e-08
-0.00373177
1.05848e-07
-6.17182e-09
7.63083e-09
8.66561e-08
0.00321482
-1.87409e-07
8.32921e-07
-0.00163906
0.000685743
-2.37941e-08
3.13341e-07
-1.27725e-06
0.000164352
7.5615e-08
0.0183701
4.76593e-07
1.02594e-07
7.23889e-07
3.1534e-07
4.66866e-07
-4.60586e-08
1.53198e-07
0.0112206
-2.02392e-07
2.34614e-07
1.20276e-07
-0.00670082
1.96005e-07
2.74622e-07
8.08754e-09
4.04114e-07
3.96024e-08
2.41069e-07
-0.000268274
4.46517e-05
2.90375e-07
4.02821e-08
-1.81214e-07
7.24126e-08
2.94837e-07
-0.000588049
-0.000284199
6.14815e-09
-0.00618863
1.5986e-07
1.19137e-06
0.000385111
-0.000127726
3.02786e-07
8.41559e-07
8.76899e-07
-0.000279096
4.86202e-08
9.37597e-08
1.66873e-05
6.2806e-07
-7.48522e-08
0.000295103
2.87181e-08
-5.64397e-08
7.56145e-08
-0.000874635
3.30279e-08
0.0271555
1.81008e-08
-0.00559127
1.01684e-07
-4.05795e-07
-0.000972925
2.44575e-07
-6.03886e-09
0.000105426
9.7859e-08
2.71947e-06
0.0110763
3.6933e-06
5.61173e-08
1.60296e-06
1.43712e-08
5.31039e-07
2.77482e-07
0.0193075
-4.50119e-08
1.06635e-07
2.53376e-07
3.6103e-07
7.65953e-07
-0.000150815
-2.70917e-05
-9.95879e-08
-1.10329e-07
1.05257e-07
-0.00220292
0.0280595
-4.20968e-07
2.49e-08
-2.83335e-07
9.04808e-08
-0.000376273
2.39783e-08
5.09159e-07
-0.000874029
1.37359e-06
-4.45351e-08
2.28025e-06
1.0886e-06
1.77193e-07
4.55057e-07
9.67896e-07
-1.56907e-06
3.95237e-07
2.77363e-07
-0.00100372
0.000494545
-3.69142e-06
2.1643e-07
7.52596e-08
3.6939e-07
-3.29168e-08
1.1872e-06
5.06079e-07
6.36916e-07
1.06871e-06
-0.0054703
-3.37959e-08
-6.96442e-08
5.97368e-05
5.31356e-06
0.000803149
8.43368e-06
2.61089e-07
-1.37531e-08
1.58339e-07
2.21222e-07
1.00697e-07
6.96122e-07
4.17046e-08
-2.85111e-09
4.41153e-08
2.84637e-07
2.72959e-07
1.03003e-07
1.3179e-07
1.02597e-06
1.84143e-07
1.2504e-07
1.73699e-07
-3.97053e-08
2.73452e-08
2.0329e-07
-9.21728e-08
-8.22378e-09
-7.2649e-07
5.51405e-08
3.01427e-07
6.45335e-08
5.84878e-07
0.000305001
-0.00252554
0.000165063
-0.00140922
0.000742759
7.0137e-06
-1.30932e-07
3.56385e-07
1.29598e-07
0.000356923
1.45124e-07
2.09365e-07
6.24539e-08
4.91423e-07
-8.42658e-08
7.4052e-07
-7.74488e-08
0.00111199
1.68151e-06
3.81856e-10
-0.00721158
8.35654e-05
4.56426e-08
1.1718e-06
-7.53923e-08
-1.13622e-08
-0.000174932
1.83077e-07
4.64171e-07
-1.01605e-06
-5.37125e-08
-5.29548e-08
5.90345e-07
0.000198416
-3.36701e-08
3.37239e-07
0.000541804
5.82025e-08
0.000563801
3.22575e-07
0.0111646
4.28356e-08
0.000159372
-9.35551e-08
9.571e-08
-9.69758e-06
5.83981e-07
-0.000241044
0.000237691
1.27733e-05
0.00105539
1.36024e-06
4.49247e-07
3.98191e-07
1.5928e-06
3.30951e-08
9.9431e-08
-2.23086e-08
-2.04179e-08
-2.96115e-08
4.76006e-08
1.07663e-07
1.02263e-06
0.00941256
0.000197472
-5.35993e-05
-0.00242832
3.52293e-07
5.17311e-08
5.06713e-07
2.04911e-07
9.2406e-07
1.58407e-07
-1.65611e-07
-2.68342e-08
3.697e-07
-8.83655e-09
2.61903e-07
1.09451e-06
3.54207e-07
-2.53739e-08
1.53903e-07
-1.1366e-09
-0.000271118
0.000438304
4.24913e-07
6.09012e-07
-7.31932e-08
0.00874536
0.00152805
6.06963e-08
1.89075e-07
3.51143e-07
-9.9093e-08
7.45865e-06
7.86854e-05
0.000517676
-2.8887e-08
0.00190189
1.50048e-07
0.000286873
3.30187e-07
-7.04912e-09
3.83792e-07
0.000663226
7.26214e-08
4.19764e-07
7.28073e-07
6.63951e-07
0.00114807
-7.97504e-08
2.02383e-07
2.20319e-07
1.52929e-06
2.63419e-07
0.000435588
-0.000267533
7.99187e-09
2.4252e-07
-0.000195662
1.03869e-06
3.52199e-08
0.275826
-0.0671731
-0.000905063
-0.000267924
6.46311e-07
-1.34291e-07
-1.72179e-08
6.51958e-05
0.00081168
-1.93073e-05
1.01977e-06
3.19669e-07
-0.000149877
4.19138e-07
4.06597e-08
5.99846e-08
2.9853e-06
-1.43093e-07
0.0252588
4.9355e-09
5.16627e-08
8.97254e-08
9.23921e-05
2.94728e-07
2.52683e-07
-1.71867e-07
0.0154199
9.26569e-05
0.0112726
-0.000122095
1.19432e-06
1.37655e-08
7.15328e-10
3.48644e-06
1.52445e-08