/*--------------------------------*- C++ -*----------------------------------*\
| =========                 |                                                 |
| \\      /  F ield         | OpenFOAM: The Open Source CFD Toolbox           |
|  \\    /   O peration     | Version:  v2012                                 |
|   \\  /    A nd           | Website:  www.openfoam.com                      |
|    \\/     M anipulation  |                                                 |
\*---------------------------------------------------------------------------*/
FoamFile
{
    version     2.0;
    format      ascii;
    class       volScalarField;
    location    "300";
    object      k_0;
}
// * * * * * * * * * * * * * * * * * * * * * * * * * * * * * * * * * * * * * //

dimensions      [0 2 -2 0 0 0 0];


internalField   nonuniform List<scalar> 
9793
(
0.000149543
0.00965533
0.000147528
0.0281823
0.000149709
0.000205588
0.000171592
0.0645644
0.000148922
0.0095319
0.000149259
0.000149194
0.000147249
0.0471205
0.000147301
0.000157454
0.000170806
0.000147447
0.0310561
0.000145067
0.000146002
0.00014994
0.0284824
0.0650353
0.0484946
0.000154755
0.000148555
0.000149723
0.000145127
0.000174464
0.0207533
0.000245997
0.000147921
0.000147465
0.00014699
0.000159337
0.000154438
0.00015316
0.0363469
0.000160479
0.000172
0.062137
0.0589103
0.000149794
0.000147693
0.000148155
0.0343717
0.000149887
0.000147229
0.000147485
0.000159123
0.000146827
0.000166142
0.000149774
0.00015838
0.0301545
0.000147303
0.000186635
0.000147227
0.000149938
0.000154915
0.000169272
0.000147563
0.000166494
0.000147564
0.000148677
0.0129529
0.000153378
0.000155257
0.0481018
0.000148226
0.000168867
0.0597071
0.00931616
0.0611298
0.000149729
0.000161718
0.0886239
0.000147748
0.000149787
0.000162489
0.0321402
0.000170645
0.000152385
0.000155284
0.000201444
0.00014972
0.000183022
0.036929
0.000168808
0.0321094
0.000726218
0.00159994
0.000164106
0.0560758
0.000147316
0.0674142
0.000168807
0.000153893
0.000149772
0.0381358
0.000164842
0.0755181
0.000147714
0.0560756
0.0986283
0.00505069
0.000146978
0.000147775
0.00014988
0.000149519
0.0303277
0.00043316
0.0145538
0.000148111
0.000148651
0.0001541
0.000148206
0.0321841
0.000148066
0.0522752
0.000184264
0.0866835
0.000169668
0.000154479
0.000148105
0.00017219
0.0256072
0.000210325
0.00021188
0.000152952
0.000146714
0.000149311
0.00015198
0.000158004
0.000183831
0.000473585
0.000154147
0.00014981
0.000173639
0.0348243
0.000158373
0.00014807
0.000178397
0.0340166
0.0002139
0.000148115
0.0647252
0.000146733
0.000148072
0.000148333
0.0430423
0.000153224
0.000148506
0.000147716
0.000430442
0.000171916
0.000147528
0.000428858
0.000147821
0.00018152
0.000153189
0.00014606
0.000185174
0.000148759
0.0666009
0.0699774
0.00014938
0.000146983
0.000149407
0.000148137
0.0123054
0.0429868
0.0464829
0.000147211
0.000202778
0.000174688
0.000202734
0.000147653
0.000153323
0.0622331
0.029358
0.000186341
0.000148108
0.000148362
0.000146941
0.0871339
0.0544767
0.029559
0.0773764
0.000148395
0.0197476
0.000191769
0.000153682
0.00014755
0.000151422
0.000313251
0.000145267
0.000147432
0.000149312
0.000148334
0.000146195
0.000160426
0.000155326
0.032007
0.000147847
0.000158167
0.000149395
0.000149493
0.000190402
0.00017281
0.0368161
0.00014546
0.0436306
0.000152436
0.000174255
0.00014741
0.000183467
0.000148713
0.000162169
0.00016981
0.000146191
0.000243457
0.0526458
0.000163398
0.000147332
0.000173647
0.058478
0.000162379
0.000162554
0.0340825
0.000199893
0.00017237
0.000167085
0.000187913
0.000146259
0.027352
0.017589
0.000145279
0.000149442
0.0479112
0.0001477
0.000149505
0.000191803
0.00019409
0.000148644
0.000153393
0.000159183
0.000160625
0.000153619
0.000147695
0.000163833
0.0259813
0.00014611
0.0485794
0.000149727
0.00014907
0.000145722
0.0306315
0.000147779
0.00410509
0.0439042
0.000148581
0.000148786
0.00879451
0.000148004
0.000149568
0.000147994
0.0413288
0.000180789
0.000153345
0.000192602
0.000184652
0.0726473
0.0261609
0.000149453
0.0177468
0.000149743
0.0588348
0.000599389
0.0396024
0.0520633
0.000198664
0.000153056
0.000169031
0.000154673
0.000147757
0.000149746
0.000191663
0.000154885
0.000148848
0.000149882
0.000145453
0.00014712
0.000146122
0.0297196
0.000146925
0.000147209
0.000149175
0.00014726
0.0201558
0.000220897
0.000164544
0.000150546
0.000178239
0.000150254
0.000604326
0.0341374
0.000147741
0.047945
0.000164764
0.000147662
0.0066431
0.000963199
0.000147972
0.000164324
0.000731642
0.000148934
0.000158344
0.000147226
0.000149203
0.0612608
0.000161074
0.000147512
0.000148019
0.000150316
0.000179167
0.000431002
0.000147547
0.000146942
0.000147198
0.0102756
0.0298764
0.0412428
0.000146098
0.000161692
0.00015864
0.000287306
0.000179121
0.000146373
0.000146813
0.000147198
0.00016887
0.000148741
0.0595474
0.000148467
0.000146593
0.071685
0.030283
0.0398031
0.000147873
0.0375737
0.000153432
0.000413079
0.0638243
0.0333446
0.000151978
0.000161081
0.000589676
0.032914
0.0307613
0.000154483
0.000149734
0.000153694
0.000147051
0.000146825
0.000148647
0.000148425
0.000149941
0.0640971
0.000149331
0.000171713
0.000160371
0.0227623
0.000146363
0.000152576
0.0204873
0.000196087
0.0504829
0.000178445
0.000146571
0.000152102
0.000147531
0.000211885
0.000144935
0.0390826
0.000175875
0.000171342
0.0375714
0.0620728
0.000148826
0.000147287
0.000798578
0.00020971
0.000147831
0.0577812
0.000148783
0.000149108
0.000506935
0.000145447
0.000186626
0.000146297
0.0674467
0.00014851
0.000148806
0.0676262
0.00016823
0.000180515
0.00015375
0.000148372
0.00014721
0.0814008
0.000168318
0.000145598
0.000149242
0.000158907
0.000158653
0.000180497
0.0281803
0.000149252
0.000147443
0.000188318
0.00014842
0.0276432
0.000201663
0.000148306
0.000147951
0.000149633
0.000148675
0.000147127
0.0385978
0.000162539
0.0206376
0.000156213
0.00015221
0.000169463
0.000152886
0.0331649
0.000154396
0.000149767
0.000153432
0.000215481
0.000148065
0.000147852
0.000148223
0.000144958
0.000147723
0.000147335
0.000148163
0.000148972
0.000150697
0.000154581
0.000191706
0.000150133
0.000265036
0.000154005
0.000180573
0.0252631
0.000147756
0.0750223
0.000171597
0.000147561
0.000144968
0.000148133
0.0641083
0.000184572
0.000144945
0.000148703
0.000149263
0.000165196
0.000175991
0.0930564
0.00014766
0.000147731
0.000157465
0.0309319
0.038992
0.000151816
0.000151991
0.0502882
0.061331
0.00022081
0.000149088
0.000146655
0.0327139
0.000147377
0.000174706
0.0321995
0.000145489
0.000178694
0.000156923
0.0365402
0.000147168
0.0310044
0.000217333
0.000156814
0.00572767
0.000147339
0.000282631
0.000148518
0.000147231
0.00014945
0.000147507
0.0526512
0.000147301
0.000147074
0.000150505
0.000146139
0.000146675
0.000164017
0.000150563
0.000165786
0.000148076
0.000148107
0.0227194
0.000166039
0.00015174
0.0479286
0.000153898
0.000149157
0.000147806
0.00014713
0.0479587
0.000147066
0.000148324
0.0250087
0.0538758
0.000160871
0.000147299
0.000149885
0.000148861
0.000149576
0.0482112
0.000149068
0.0778032
0.000153797
0.000268109
0.000149727
0.0146129
0.000152203
0.000185116
0.000147406
0.000190874
0.0221102
0.000148578
0.0845708
0.000147566
0.000149404
0.000145891
0.0741243
0.0318958
0.000148161
0.000157857
0.000147054
0.0509462
0.000148813
0.000164183
0.0317958
0.000153475
0.000148021
0.000161714
0.0001496
0.000149027
0.000147279
0.000190405
0.000147513
0.054192
0.000148206
0.000148808
0.000169926
0.000166757
0.000858508
0.000147103
0.0168238
0.000147266
0.000180973
0.000147662
0.000149256
0.00014735
0.00014819
0.00014977
0.00018149
0.00017246
0.09008
0.000183264
0.000158842
0.000158927
0.000412345
0.00015251
0.047199
0.0387271
0.000187939
0.0524422
0.0127905
0.000179447
0.000149038
0.000481971
0.000169804
0.000148937
0.00019708
0.000149643
0.000191639
0.000159942
0.000212284
0.00015528
0.031525
0.0416435
0.000168138
0.000209142
0.000149397
0.000211582
0.000150436
0.000147406
0.000148677
0.000152627
0.000167246
0.0345572
0.000184052
0.0437621
0.000151951
0.000151582
0.0369207
0.000187224
0.000151446
0.000176403
0.00014956
0.000480506
0.0710336
0.000148262
0.000164618
0.000180996
0.0368302
0.000147527
0.000154133
0.0954269
0.000159767
0.0867209
0.000191191
0.0152058
0.000154176
0.000152744
0.000148033
0.000147691
0.000223384
0.000149887
0.000208543
0.000188999
0.00017035
0.000149707
0.000149448
0.000152752
0.000149041
0.000146676
0.000147702
0.000181034
0.0677782
0.0485224
0.000149851
0.000211233
0.000147467
0.035712
0.000173671
0.000161832
0.000158472
0.000211445
0.000146128
0.000148267
0.000161064
0.000147391
0.000148686
0.000174577
0.0398596
0.000146193
0.000219337
0.0387769
0.00015392
0.059088
0.0389818
0.000147461
0.000170474
0.000158368
0.000148369
0.000145801
0.000168677
0.0395596
0.0607001
0.00014816
0.000147984
0.000146087
0.000154765
0.000150594
0.000152113
0.000195502
0.000173722
0.000148928
0.0327127
0.000160492
0.000158275
0.000148521
0.0064754
0.000152744
0.000147242
0.000170863
0.000325
0.000145758
0.000148206
0.000147551
0.000155961
0.000146101
0.000168554
0.000468937
0.000149075
0.000190454
0.000150975
0.000148328
0.00142136
0.0338031
0.000235245
0.000148376
0.000145949
0.0267893
0.000153975
0.000841567
0.000145532
0.0001476
0.0176905
0.0774242
0.000159571
0.000188834
0.000164538
0.00014732
0.000149794
0.000148205
0.0464436
0.00014824
0.000149947
0.0338722
0.000155175
0.000210949
0.000157898
0.000147368
0.0320927
0.00014977
0.000147598
0.000148165
0.000157361
0.0254026
0.000149012
0.000147745
0.000147396
0.000147321
0.00014741
0.000148125
0.0672423
0.00015781
0.000150468
0.000148633
0.00015781
0.000172575
0.000157432
0.000155804
0.000149883
0.000146032
0.00015152
0.0296273
0.0642707
0.000151893
0.0553249
0.000149391
0.000153764
0.000235163
0.000328837
0.000147248
0.000149144
0.000185332
0.000173803
0.000147165
0.000149631
0.0538611
0.000149768
0.000171595
0.000147914
0.000204932
0.000149623
0.00015239
0.000148751
0.000159218
0.000148866
0.000152893
0.000154228
0.000173885
0.000146893
0.0001478
0.000149634
0.000147218
0.000148923
0.000148362
0.00016057
0.000148637
0.000175802
0.0529201
0.000167506
0.000174906
0.000149296
0.00014728
0.0160331
0.0584402
0.000145707
0.0568653
0.0215248
0.000146021
0.000147721
0.000147067
0.000174404
0.000176704
0.000331946
0.000146853
0.00015408
0.00014685
0.000149324
0.000152064
0.000170606
0.000148833
0.000202318
0.00014851
0.000164733
0.000147085
0.00015105
0.000147676
0.000170338
0.000164283
0.0276976
0.0398
0.0561055
0.000172041
0.000147649
0.000318651
0.000437266
0.000179546
0.000148542
0.000148451
0.000301273
0.000147037
0.0261936
0.000146433
0.000161021
0.000149105
0.00014978
0.000147291
0.0631878
0.0481555
0.0272317
0.00016575
0.0221218
0.000147545
0.0584558
0.0983813
0.000149785
0.00014873
0.000146052
0.00311953
0.000145368
0.0699996
0.000157794
0.000194191
0.000149291
0.000324967
0.0177288
0.000282943
0.0001568
0.000161884
0.000148122
0.0553595
0.000145343
0.000198879
0.000207748
0.000165556
0.0980218
0.0498221
0.00015294
0.000151638
0.000147464
0.000193727
0.0682945
0.0171046
0.000146129
0.00042177
0.000156732
0.000193902
0.000170723
0.0406625
0.0418372
0.00014682
0.000154296
0.000161708
0.000153761
0.000153278
0.0672457
0.000149263
0.0945682
0.000148035
0.000146608
0.000171905
0.000190926
0.0019656
0.000150219
0.0364383
0.0549167
0.000201337
0.000154746
0.000149511
0.000150223
0.000149467
0.000147757
0.000265688
0.000647785
0.000148996
0.000147709
0.000163186
0.00027584
0.000154948
0.00014766
0.000192474
0.000147507
0.000149818
0.00014546
0.000180121
0.000148067
0.000155072
0.0245556
0.000172019
0.000152623
0.000490708
0.000171451
0.000147478
0.000151378
0.000163376
0.000149724
0.000147571
0.000146921
0.0828454
0.0002914
0.000149157
0.00016447
0.000159139
0.000212273
0.000148011
0.0565816
0.000146876
0.000146178
0.000205725
0.000218437
0.000177559
0.000148568
0.000147144
0.0309689
0.038947
0.000198529
0.000324943
0.000148581
0.000153015
0.000147954
0.0132803
0.000152546
0.00102908
0.000150203
0.000148098
0.000152665
0.000146564
0.000146958
0.000165632
0.000146534
0.0592308
0.000147948
0.000149045
0.000145687
0.000155042
0.0492774
0.0276794
0.000177128
0.0276446
0.000147682
0.000159971
0.000151993
0.0708304
0.000147905
0.000146654
0.0785734
0.000159052
0.00015796
0.000148647
0.000215033
0.0608442
0.0402837
0.000148916
0.000158567
0.000212738
0.000163138
0.000420533
0.00018796
0.00017198
0.000147174
0.000149952
0.000179942
0.000166802
0.000147735
0.000194039
0.0001461
0.000149162
0.000149307
0.000146988
0.000147649
0.000147845
0.000207707
0.000154844
0.000150921
0.000163946
0.000146423
0.000147606
0.0001623
0.0452768
0.000166971
0.000169759
0.0590682
0.000149521
0.0650729
0.000157096
0.0162108
0.000165595
0.000149294
0.000148716
0.000152171
0.0525966
0.000292231
0.000165295
0.000176095
0.000145948
0.00014792
0.000149627
0.000149289
0.0225075
0.000155425
0.000148224
0.000196133
0.000181547
0.0807408
0.000150472
0.0770472
0.000163348
0.000167954
0.000163746
0.000189304
0.000188092
0.000149242
0.042741
0.000231404
0.00015997
0.0392956
0.000171039
0.000149134
0.000149735
0.000147631
0.000151028
0.000155006
0.0178752
0.000173948
0.000146966
0.000230336
0.000147855
0.0224611
0.000460846
0.000147513
0.0350222
0.000147758
0.000147055
0.000148593
0.0415676
0.0657275
0.000174327
0.000157255
0.000147222
0.000216157
0.000149497
0.000159109
0.000148492
0.000148849
0.00014801
0.0782182
0.000150485
0.000160774
0.000156919
0.000149361
0.000185865
0.000181718
0.000165681
0.000153947
0.000152751
0.0320354
0.0694869
0.000148149
0.000146997
0.000148144
0.000150101
0.031086
0.0810645
0.000196413
0.000154245
0.000146624
0.104145
0.0229475
0.000149154
0.0486626
0.00014612
0.000177164
0.011049
0.000146303
0.0241116
0.0604764
0.000181208
0.0257547
0.0784979
0.000147431
0.000150238
0.000305737
0.0351488
0.000149985
0.0334975
0.000154141
0.000147602
0.00014981
0.000151637
0.000168046
0.00015467
0.000184138
0.0260519
0.000179231
0.000158485
0.000148396
0.000167529
0.000316266
0.000146896
0.000456566
0.000165826
0.000149421
0.000153142
0.000149576
0.000149095
0.000157476
0.000310884
0.000149991
0.000146475
0.0312574
0.0408152
0.000182299
0.000149722
0.000170234
0.000147597
0.000147337
0.0732873
0.0423713
0.000147266
0.000144452
0.0553929
0.0219186
0.000166162
0.000149245
0.1006
0.000150532
0.000147314
0.00015322
0.000147343
0.000145896
0.000145391
0.0972791
0.00022081
0.000154505
0.00024646
0.000172095
0.0384203
0.0982279
0.0388262
0.000201125
0.000147972
0.00014956
0.000149455
0.000147776
0.000166543
0.000147007
0.000169471
0.000159297
0.00215411
0.000148167
0.0344277
0.000159189
0.0526851
0.000147298
0.00027305
0.000161567
0.000204301
0.000212395
0.000159328
0.000145366
0.104005
0.000172848
0.000685898
0.000145628
0.0778959
0.000148019
0.0562161
0.000219421
0.000161148
0.000147552
0.000148472
0.0459288
0.0235492
0.000163122
0.000146178
0.000445924
0.000170714
0.000169967
0.0618939
0.000167133
0.00014803
0.0761671
0.000147638
0.000164461
0.000146355
0.0509646
0.000146357
0.000152617
0.000235868
0.000425019
0.000149436
0.000172015
0.000154002
0.000167206
0.000146994
0.000200985
0.000151375
0.000165773
0.000148092
0.000147723
0.0306189
0.000159695
0.0610075
0.0532955
0.0195964
0.000150262
0.000146443
0.000147022
0.000155358
0.000165941
0.000161603
0.0219248
0.000152133
0.000228283
0.00016152
0.000149862
0.000148168
0.000182331
0.000290685
0.0150584
0.000147627
0.0341129
0.000146873
0.077744
0.000265606
0.000172281
0.000147869
0.00014686
0.000165773
0.00147132
0.000153118
0.000149774
0.000153021
0.000170274
0.000151104
0.000263004
0.0306592
0.000485539
0.000148962
0.000156235
0.095787
0.000149189
0.000164188
0.000147415
0.000224014
0.000160013
0.00014763
0.000161834
0.000175292
0.000148293
0.0638187
0.000147567
0.0001937
0.000182067
0.000354166
0.000185641
0.000149042
0.000149069
0.0357301
0.000148994
0.00016119
0.000184684
0.00015213
0.000145277
0.0928911
0.00015312
0.000190371
0.000152204
0.000165463
0.000149988
0.000188016
0.000153607
0.000153869
0.0696087
0.000227849
0.000148477
0.000149805
0.000175905
0.0403757
0.000291367
0.000209963
0.000160979
0.000147678
0.000146974
0.0400509
0.000148832
0.0791563
0.000174463
0.0650984
0.0001486
0.000146148
0.000146503
0.000167309
0.000176515
0.000424389
0.0414685
0.000377528
0.000214431
0.000145216
0.000340557
0.000150976
0.000182179
0.000150962
0.000166027
0.000164125
0.000147604
0.000145147
0.000181099
0.000145681
0.000162917
0.000165573
0.0264232
0.0668433
0.000169535
0.0383038
0.00014697
0.00014641
0.000148366
0.000176174
0.00016457
0.000166865
0.000177823
0.0119858
0.000160704
0.000175005
0.000147436
0.000151677
0.0414281
0.000148002
0.000183636
0.000144375
0.000147409
0.0546783
0.000185247
0.000147619
0.000174814
0.000196475
0.0500028
0.0668152
0.00015402
0.00018404
0.0001753
0.0169422
0.00014867
0.0765195
0.0377212
0.00015173
0.000156715
0.000145612
0.000192145
0.000147379
0.000147802
0.0423532
0.000149234
0.000145352
0.000193796
0.000181009
0.0396849
0.0399269
0.000427287
0.0323079
0.000146614
0.000147637
0.000147622
0.000149321
0.0544966
0.000148728
0.0329576
0.000150965
0.0564408
0.00015268
0.000148828
0.000145728
0.000149138
0.000157289
0.000148489
0.000145161
0.000256423
0.000146892
0.000177077
0.000149804
0.0219441
0.000152712
0.000148402
0.000148305
0.000172436
0.000147167
0.000146212
0.000148475
0.000149385
0.000154301
0.000147494
0.000151651
0.000157352
0.0767668
0.0528757
0.0467244
0.0276854
0.000146462
0.000147863
0.000147693
0.000144071
0.000147582
0.000146271
0.000215296
0.000147347
0.000149651
0.000148326
0.000148135
0.00014814
0.0601443
0.000153681
0.000147616
0.0505544
0.000171777
0.000145906
0.0479632
0.0290154
0.000147968
0.00020594
0.000210162
0.000148629
0.000161572
0.000152102
0.000144947
0.000155839
0.00015109
0.000171381
0.000147918
0.000149622
0.000146377
0.0111288
0.000160059
0.0001617
0.000148061
0.00014975
0.0597112
0.00015401
0.000148087
0.000152462
0.000153066
0.000149653
0.000177848
0.0250646
0.000483581
0.0402648
0.000178114
0.000160016
0.000149709
0.0590851
0.000186296
0.000150482
0.000174723
0.00014995
0.000147549
0.000149614
0.0733654
0.000162466
0.00014781
0.000148126
0.000202768
0.000146222
0.000192993
0.00014819
0.000274803
0.000209421
0.00356201
0.000148407
0.000151118
0.000157552
0.000159542
0.000149308
0.000160335
0.000167496
0.00683989
0.000150006
0.00019187
0.101561
0.000145436
0.0387096
0.000161294
0.000183925
0.000177842
0.000147575
0.000156292
0.00016923
0.000145744
0.000154581
0.000144872
0.00653844
0.000782629
0.000158322
0.000146635
0.000185962
0.000166095
0.000346428
0.000183908
0.000151605
0.00015927
0.000147629
0.000148012
0.000168957
0.00016297
0.0442677
0.000146865
0.000190077
0.000155319
0.0902781
0.000191409
0.0557962
0.000145193
0.000150671
0.000315251
0.000279165
0.000161205
0.0320115
0.00015109
0.000178788
0.000147213
0.000147415
0.0278537
0.000263049
0.00015482
0.000148511
0.000166498
0.000300716
0.000175716
0.000165369
0.000146501
0.000147924
0.000145933
0.000330818
0.0403882
0.000146918
0.000172279
0.0501806
0.000174526
0.000194205
0.0337755
0.017223
0.0629017
0.000147091
0.000150838
0.0334574
0.00014713
0.000162458
0.000259005
0.0517579
0.000151334
0.000156873
0.0214652
0.000204652
0.00028519
0.0721119
0.0374076
0.0393606
0.000148639
0.000145664
0.000147839
0.000150246
0.025045
0.000163279
0.000187311
0.000188499
0.000163777
0.00014812
0.000230158
0.000146828
0.000161754
0.000147271
0.000160582
0.0152621
0.00315545
0.000148341
0.000145537
0.000170288
0.0168175
0.000189086
0.0490445
0.00016144
0.000148682
0.000166734
0.000144392
0.000168135
0.000157612
0.000147672
0.0115955
0.000174214
0.000225913
0.000167228
0.000149272
0.000145756
0.0115805
0.000153397
0.000145571
0.000148882
0.000149681
0.000145702
0.00971816
0.0672105
0.0302124
0.000257811
0.0417321
0.000153358
0.000147634
0.0742553
0.00015385
0.000192071
0.0663396
0.000146892
0.0741322
0.0271313
0.000170006
0.000158363
0.00020624
0.000151151
0.000290276
0.000161717
0.0312278
0.000146963
0.000150689
0.000161258
0.000447354
0.000184805
0.00016559
0.0322651
0.0620367
0.000165554
0.000198619
0.000420732
0.000153143
0.000186934
0.0162934
0.000160225
0.000164719
0.061791
0.000163766
0.000160071
0.000148585
0.000166401
0.000168442
0.000167256
0.000148472
0.0861794
0.000173574
0.0322497
0.0265644
0.0292723
0.000160773
0.000265947
0.0902885
0.000146764
0.000260858
0.0745752
0.0508849
0.000156243
0.000152402
0.041592
0.0559154
0.000145681
0.000179476
0.000146168
0.000147192
0.000466134
0.000153599
0.0296581
0.0422576
0.0325998
0.066557
0.000145353
0.000165366
0.000148211
0.000146741
0.000169899
0.000174234
0.000156876
0.000364393
0.0323696
0.000149806
0.000156524
0.00024832
0.000152181
0.00018999
0.000161995
0.0359735
0.0367646
0.00026441
0.100062
0.019107
0.0324539
0.0376694
0.0317284
0.000163324
0.000153441
0.000172154
0.000172049
0.0493527
0.0582181
0.000148789
0.000156138
0.043841
0.0296594
0.00015462
0.0359743
0.000147878
0.00021656
0.0754859
0.0527351
0.000147279
0.0332015
0.000262147
0.000155553
0.000159343
0.0745956
0.0688733
0.040497
0.0491926
0.000148415
0.0248445
0.0341964
0.000160442
0.000184352
0.000169221
0.000146036
0.000156523
0.0251107
0.041893
0.000153728
0.00014907
0.0396541
0.000167123
0.0310476
0.000171699
0.000291284
0.0387384
0.000147838
0.0909808
0.000149891
0.000162176
0.000148656
0.00014872
0.000145819
0.000161834
0.000183567
0.000144495
0.018665
0.000186435
0.0317962
0.0529606
0.0313183
0.000147183
0.0729343
0.000268461
0.0312189
0.000159349
0.000147617
0.00536223
0.000213535
0.0408076
0.000163331
0.000151438
0.000145717
0.0118096
0.0184043
0.00015883
0.0131996
0.000157214
0.000149079
0.0389342
0.000163076
0.04166
0.000147952
0.000161282
0.0335202
0.0428493
0.0354787
0.000214464
0.0362686
0.0334113
0.0228703
0.000148172
0.0221579
0.000162958
0.000147256
0.000145268
0.000147958
0.0204003
0.000162282
0.0371065
0.0343566
0.000168425
0.000172812
0.00019055
0.0272292
0.000180105
0.0713803
0.0353351
0.000257114
0.000168451
0.000146121
0.000312775
0.000163817
0.000197322
0.0382795
0.0444415
0.000281004
0.000148514
0.000153051
0.000162182
0.00014826
0.00014818
0.000157273
0.0380915
0.000160247
0.000155485
0.0372969
0.000186559
0.000243398
0.00356946
0.0400062
0.000217106
0.0405742
0.0355803
0.0288902
0.000164725
0.000161606
0.000148769
0.000255243
0.000177544
0.000208975
0.000164523
0.000164085
0.000144073
0.000199362
0.065786
0.000157529
0.000145121
0.000151444
0.0108275
0.000146993
0.000148021
0.00016942
0.0348586
0.000160053
0.00016348
0.0001766
0.000156964
0.000178684
0.000147659
0.000147692
0.000163874
0.000213032
0.000149235
0.000159276
0.000180712
0.0601299
0.000148822
0.0949712
0.000147993
0.0392471
0.000151119
0.000151362
0.000144941
0.000191424
0.000166108
0.0146192
0.0538661
0.000165
0.000149007
0.00014825
0.077153
0.00719674
0.00014772
0.000189141
0.0336736
0.000168065
0.000166133
0.000144083
0.000150282
0.000147534
0.0395568
0.000165612
0.000148193
0.0688528
0.000149555
0.000163858
0.00021936
0.000146048
0.000168897
0.000169779
0.0602088
0.000149586
0.000154324
0.000151298
0.000168211
0.000143834
0.000147275
0.0674654
0.000208847
0.000174348
0.000149812
0.0380747
0.000149565
0.000149574
0.000147525
0.00021497
0.0704584
0.000152394
0.0998592
0.00195425
0.000169516
0.0268019
0.0162921
0.0413819
0.0375039
0.000176735
0.000181971
0.000198261
0.000166739
0.000147474
0.00015669
0.000160883
0.0659123
0.000148405
0.0500338
0.00014777
0.000190297
0.000174776
0.000150573
0.000159097
0.0306094
0.0198663
0.0231088
0.0341539
0.000146575
0.000185302
0.0507507
0.000156243
0.073587
0.000160484
0.000169248
0.0373881
0.000166071
0.000147777
0.000181476
0.000185938
0.000147707
0.0353947
0.000302255
0.000145938
0.000149565
0.000148704
0.000147895
0.0497401
0.00014844
0.000166762
0.000148008
0.000149622
0.000157688
0.000147626
0.0404297
0.000177371
0.000148945
0.000145629
0.00018437
0.00015177
0.000163188
0.0128942
0.0363115
0.00016585
0.000179919
0.000160459
0.000145278
0.000191495
0.0656222
0.000161202
0.0358193
0.0290544
0.000165858
0.000162151
0.000159393
0.000172167
0.000160111
0.0737721
0.000148657
0.000148984
0.000147721
0.0417781
0.0605534
0.000159585
0.00019566
0.000147801
0.00015756
0.000192473
0.000214883
0.000147919
0.000167115
0.0365306
0.000167453
0.000147828
0.000147939
0.055452
0.02541
0.000147568
0.000195466
0.000162238
0.000203761
0.000225617
0.000146951
0.0277255
0.000160367
0.000148008
0.0699078
0.000202488
0.000147509
0.000149008
0.000219067
0.000146945
0.000148123
0.000203467
0.000160739
0.000161588
0.0320528
0.000154689
0.000172575
0.0364151
0.000147537
0.084369
0.0565503
0.00015453
0.000181007
0.000203041
0.000148106
0.000196489
0.000144266
0.0610133
0.000258881
0.000147848
0.0280968
0.0933112
0.00014801
0.000147912
0.000203201
0.000169522
0.0339465
0.0341964
0.000148519
0.00016546
0.0325695
0.000150419
0.000173811
0.000183442
0.000158839
0.0764071
0.000208707
0.00015205
0.00020587
0.0246537
0.000161319
0.0275637
0.000147203
0.000144889
0.000149765
0.000160715
0.077705
0.000148302
0.000165077
0.0207472
0.0286847
0.000149409
0.00015802
0.00029218
0.0411374
0.00014946
0.0906617
0.000162997
0.000174442
0.000164343
0.000151078
0.000155589
0.000148118
0.00014767
0.0597777
0.000147352
0.000162629
0.000147741
0.0684701
0.000152031
0.00015322
0.000145263
0.000152574
0.000147695
0.000165733
0.0196618
0.000355041
0.000162368
0.000160741
0.000147595
0.000157437
0.000170928
0.0670333
0.0405715
0.00014666
0.000293105
0.000148016
0.000330861
0.0378004
0.0277804
0.000146663
0.000171346
0.000180338
0.0659477
0.000179045
0.000147403
0.0737318
0.000183921
0.000159576
0.000840142
0.000148998
0.00014822
0.000160316
0.0662171
0.000147796
0.0447646
0.000158418
0.0018861
0.000167423
0.000153665
0.062877
0.000156529
0.000148796
0.000225381
0.000148092
0.000335217
0.0910029
0.000201063
0.00015527
0.000172814
0.000147884
0.000177566
0.000165679
0.0795616
0.000148365
0.00014612
0.000155459
0.00015799
0.000170758
0.0493677
0.00795689
0.000158983
0.00017799
0.000147015
0.0120393
0.0247845
0.000181968
0.000147726
0.000149714
0.000151676
0.0699432
0.00014853
0.000156537
0.0636729
0.000184569
0.000148207
0.000180667
0.000182474
0.000147774
0.000153996
0.000181073
0.000275373
0.000169148
0.000164432
0.0399358
0.0411276
0.000241014
0.000155217
0.000148714
0.000153094
0.000152817
0.000185127
0.000172653
0.000158235
0.000182297
0.0750852
0.000152147
0.000147862
0.0332275
0.000184708
0.0333279
0.000205824
0.000154447
0.000151684
0.000151821
0.000146887
0.000147726
0.000170537
0.000145277
0.000150504
0.000149719
0.000150778
0.000151773
0.00014761
0.000159926
0.000167736
0.000148644
0.000147594
0.000148696
0.000150149
0.00014931
0.000179363
0.000148259
0.000151259
0.000256707
0.000146712
0.000151259
0.00014909
0.000157651
0.0332782
0.06105
0.0281606
0.061292
0.078357
0.000208158
0.000147139
0.000169833
0.000148423
0.000577285
0.000151569
0.000156767
0.00014889
0.000172719
0.000147546
0.000161207
0.000146532
0.06564
0.000189865
0.000148402
0.0630529
0.0760536
0.000148888
0.00019221
0.00014753
0.000145479
0.0103288
0.000148755
0.000171879
0.000195321
0.000148589
0.000145206
0.000174181
0.032532
0.000153166
0.000151978
0.0347766
0.000147453
0.0262137
0.000170928
0.0412209
0.00014583
0.0347564
0.000147901
0.000149001
0.000214507
0.000174551
0.033253
0.0324478
0.0184171
0.0712147
0.000207222
0.00018158
0.000148163
0.000199793
0.000148483
0.000146631
0.000167888
0.000147283
0.000147788
0.000145494
0.000145289
0.00017897
0.0245225
0.0351137
0.000206932
0.0430451
0.000152171
0.000156818
0.000150754
0.000150412
0.000180657
0.000148565
0.000147373
0.00014678
0.000152383
0.000150863
0.000175759
0.000189036
0.000167097
0.000148623
0.000163099
0.000163375
0.0328994
0.0353342
0.00015385
0.000167776
0.000148471
0.0829314
0.0423367
0.000147523
0.000147356
0.000153224
0.000149372
0.000208539
0.000229007
0.0467648
0.000148754
0.0182675
0.000148785
0.0270108
0.000170627
0.000146528
0.000156935
0.00186447
0.000154856
0.000156987
0.000160962
0.000176927
0.0753162
0.000147549
0.000147228
0.000155865
0.000212947
0.000147608
0.0301221
0.00493358
0.000148073
0.000143993
0.0134632
0.00018311
0.000147745
0.00259434
0.0156138
0.0621608
0.00198998
0.000158571
0.000278846
0.000148348
0.0420218
0.0776984
0.000211398
0.000183105
0.00015237
0.0321768
0.000153699
0.000146959
0.000144066
0.000230421
0.000145593
0.0214751
0.000150446
0.000148964
0.00015339
0.035287
0.000152365
0.000150492
0.000148359
0.0941454
0.0237152
0.0803688
0.0406248
0.000171774
0.000147818
0.000152203
0.000220854
0.000169739
0.000147777
0.00017523
0.000221247
0.0038034
0.000148093
0.0277439
0.0403651
0.000168805
0.000148283
0.000152348
0.00014762
0.000147009
0.000147592
0.000148062
0.000149179
0.000168231
0.000148528
0.000196128
0.00014985
0.000150278
0.0253765
0.000185294
0.000152187
0.00015047
0.0300497
0.000145418
0.000157321
0.000154943
0.000146559
0.000517682
0.000162209
0.00015039
0.000161148
0.00014821
0.000157351
0.000147933
0.000196682
0.000146736
0.000147854
0.0572828
0.000152407
0.000205489
0.000162952
0.00015177
0.000186465
0.000143836
0.000148468
0.000150165
0.0697845
0.000152813
0.000147679
0.000300879
0.000148369
0.000145549
0.000147011
0.000273181
0.000157709
0.000198506
0.000158089
0.000157004
0.000162262
0.000152365
0.000155793
0.000161912
0.028705
0.000149214
0.000156794
0.000147322
0.000183468
0.000206631
0.000147154
0.000160172
0.073202
0.000156568
0.000145203
0.0668704
0.000154677
0.000167417
0.0294461
0.000159252
0.000147811
0.000158146
0.000147665
0.000153668
0.000147161
0.000151434
0.000154765
0.000147614
0.000148319
0.000157456
0.000148921
0.000179926
0.000147923
0.000151699
0.000147987
0.000160991
0.03461
0.000148713
0.00014827
0.000168236
0.000151576
0.000148182
0.000218636
0.080487
0.0273636
0.000148559
0.000153188
0.00016613
0.000149601
0.000148744
0.000163877
0.000176357
0.000144755
0.000163008
0.000148085
0.000147111
0.000147145
0.000144771
0.000150782
0.000165819
0.000163888
0.000157259
0.0322568
0.000153019
0.000156275
0.000146768
0.0567754
0.000381033
0.0658887
0.00014848
0.000169139
0.00015723
0.00014843
0.000148703
0.0001606
0.0347146