/*--------------------------------*- C++ -*----------------------------------*\
| =========                 |                                                 |
| \\      /  F ield         | OpenFOAM: The Open Source CFD Toolbox           |
|  \\    /   O peration     | Version:  v2012                                 |
|   \\  /    A nd           | Website:  www.openfoam.com                      |
|    \\/     M anipulation  |                                                 |
\*---------------------------------------------------------------------------*/
FoamFile
{
    version     2.0;
    format      ascii;
    class       surfaceScalarField;
    location    "300";
    object      meshPhiCN_0;
}
// * * * * * * * * * * * * * * * * * * * * * * * * * * * * * * * * * * * * * //

dimensions      [0 3 -1 0 0 0 0];
oriented        oriented;


internalField   nonuniform List<scalar> 
14470
(
-0.00178325
0.00057337
0.00121318
-0.000357689
-0.000235616
0.000586181
-0.000519651
-1.72613e-06
-0.000175341
-0.000234148
0.00040949
-0.000639179
0.000811686
-3.69764e-05
-0.00109497
0.00109996
-3.00835e-06
0.000766726
-0.00151471
0.000750447
-0.000155282
-0.000421469
0.000576771
-0.00197027
0.000334652
0.00165911
5.89401e-06
0.000185933
-8.37061e-05
7.92539e-05
1.99034e-05
-2.13098e-06
-0.000212078
0.000189809
0.00111886
-0.000515143
-0.000604324
0.00229707
-0.00155921
-0.000562318
-0.00117004
0.00149382
-0.000254995
-0.0015558
0.00156666
3.06738e-06
0.000567465
-0.000199859
-0.000460595
-0.000632046
0.000531809
0.000100257
0.000370469
-0.00054778
0.000340162
0.000641009
0.000651872
-0.00122624
0.000117567
-0.000117567
-9.99154e-05
0.000495658
-0.000395737
-0.000504694
0.000349426
0.000722394
0.000395735
0.000466249
-0.00185635
0.00139263
-0.00174363
0.000616581
0.00116688
-0.00039972
0.000430773
-8.85943e-05
-0.000344733
0.000853199
-0.00129997
0.000325186
0.000977616
-0.000320648
-0.000132593
0.000453244
0.00107393
-0.000968276
-0.000104935
-0.000410362
0.000565175
6.44489e-06
9.99244e-05
0.000489562
-0.000534458
0.000153846
0.000200393
-7.456e-05
-0.000802164
-0.000629836
0.00145886
0.00102717
0.000141612
-0.00114941
0.000224076
0.00122732
-0.00144537
0.000325269
0.000424579
-0.000749979
0.00200177
-0.00139081
-0.000594727
-1.2959e-05
-0.00128425
-0.000545651
-0.000298419
0.000844525
0.000195837
-0.000515982
0.000320196
1.3605e-05
-0.000350374
-0.000114175
-0.00078381
0.000873687
-0.00013166
-0.000809057
0.000898414
0.000282045
0.00023413
-0.000516174
1.23368e-05
-3.48807e-05
9.31875e-05
0.00020965
-0.000760864
0.000524944
3.04669e-05
0.000472015
0.00104049
-0.00180544
0.000347257
1.00873e-05
-0.00202562
0.00142478
0.000616752
0.000299071
-0.000209987
0.00185176
-0.00125844
-0.000589975
-0.000624285
0.00044895
0.000394542
1.2404e-05
-0.000452953
0.0001028
0.00121482
-0.00131279
-0.000552549
0.000744036
-3.48807e-05
-0.00170657
0.00031754
0.00139267
0.000533883
-0.0010272
0.000493569
-0.000448484
0.000495908
-3.92457e-06
0.001789
-0.000316904
-0.0014509
4.32266e-05
-0.000420245
0.000272552
-5.59551e-05
-0.00189332
-0.000233958
-0.000237275
2.31843e-05
-0.00157155
0.00158844
9.08521e-05
0.0010518
-0.00111695
0.000823934
-0.000246521
-0.000577204
-0.00172277
0.000774295
0.000959312
0.00010116
0.000677577
-0.00077893
0.000345392
-0.000618868
0.000273487
-0.00167901
0.0016304
6.15632e-05
-0.000659415
0.00101262
-0.000353025
5.01071e-05
1.73038e-05
1.89057e-05
0.0011557
-0.00140006
0.000245519
-0.000926637
0.000374
0.000552907
0.000840973
-0.000197301
-0.00060891
0.000104465
-4.78951e-05
-1.21915e-06
7.72561e-05
0.00107896
-0.000490209
-0.000141806
-0.00136984
-0.000174537
0.00192503
-0.000426173
-0.00147796
0.00114368
0.000859523
8.49567e-05
-0.000943151
0.000289041
-4.21277e-05
0.00167937
-0.00137243
-0.000275699
-0.000407875
0.000732984
-0.000307629
0.000841827
0.000433314
0.00013845
-0.000571751
3.45626e-05
-0.000616517
0.00058229
0.000779333
-0.000744335
-0.000926492
0.00157527
-0.000638691
0.000603583
-0.000407679
0.000947558
-0.000176026
-0.000772288
0.000282379
-0.000941573
0.00139402
-3.58994e-05
-0.00134861
-0.00181526
0.00032358
0.00152063
-3.62885e-05
-0.000484187
-0.000401202
-0.000369036
0.000770121
-0.000414703
-0.00159026
-0.00147916
0.00166757
-0.000178071
0.00070216
-0.00083874
-0.00119247
0.000927033
0.000266361
-0.00074229
0.000350847
0.000391619
-0.00154485
-0.000120928
-2.96617e-05
0.00012808
1.05827e-05
0.000702489
0.000161254
0.000187868
-0.00030616
0.000397043
-6.59504e-06
-0.000519431
0.000419526
-0.000154355
-0.00040558
0.000559932
-0.000368573
-9.7195e-05
0.000465769
-0.000417885
-0.00129563
9.95742e-05
-5.87392e-05
0.000158206
0.000402484
-0.00103586
0.000696371
0.000999442
-2.09877e-05
-0.00107498
0.000167901
0.000413102
-0.000581005
0.000697371
-0.000852649
0.000136578
-0.000440784
-0.000567348
0.00100887
0.00165467
5.19634e-05
-0.000992177
0.000913994
7.868e-05
0.000173839
0.00133008
-0.00148968
-0.0012635
0.0014274
0.000754312
-9.68347e-05
-0.00159713
0.000551753
0.0010544
0.000250865
-0.000571511
0.00104695
-0.00148913
0.000446538
0.00162068
-0.00056834
0.00149949
3.15184e-06
-0.0015018
0.00104064
-0.00028717
-0.000654771
-0.000134832
-0.00164904
0.00159324
0.00012113
-0.00166952
0.00184285
-0.00158084
-0.000235575
-0.000471066
-0.000486032
0.00095851
-2.53776e-05
0.000945867
-0.000919338
0.000983805
-0.000528959
8.52306e-05
5.03137e-06
-0.00149528
0.00056339
0.0009387
-0.000740105
0.000539201
0.000200993
0.00123947
0.00198638
-0.00063747
-0.00140033
0.00018841
0.00130833
-0.00147047
0.000220059
0.000314836
-0.000534893
-0.00028394
-0.000442657
0.000726959
-0.000744426
2.61343e-05
-0.000236512
0.000518961
0.000573294
0.000525577
-2.98905e-05
-0.000259796
0.00133032
-0.000940189
0.000551611
-0.00072258
0.000171003
6.68258e-05
-0.00185316
-0.000734658
-0.0009692
0.00129956
-0.00120797
-8.09416e-05
0.000602263
-0.000869564
0.000267666
6.66427e-05
0.00151049
-0.000451844
-9.83661e-06
0.000224448
0.000849868
0.000958684
0.00020496
-0.00114766
-0.001489
0.000144093
0.00134718
0.000172008
0.00113726
-0.000448301
0.000108224
-0.000543931
0.000435768
-0.00032628
0.00144971
-0.00111876
-0.000402914
-0.000523361
-0.00160549
0.00143173
0.00018379
-0.000149982
0.00134123
-0.00118225
-2.79584e-05
2.83901e-05
3.48843e-06
1.81811e-05
-0.000321938
0.000299764
0.00104591
0.000925632
0.000390461
-0.000608125
0.000217665
-0.00067064
0.000419811
0.000250839
-0.000377161
0.00106488
-0.000686651
0.000267574
-0.000291748
-0.00103914
-5.28835e-05
0.00109377
-0.000481413
-0.000611434
-0.000776743
0.000183776
0.000593021
0.000802004
-0.000587749
-0.000186404
0.000389504
0.00131079
-0.0016636
-0.000825812
-0.000365517
0.000502105
0.000325366
0.00135258
-0.000847274
0.00066948
6.56579e-06
0.00120359
-0.0012673
1.01248e-06
-0.000698892
-0.000292502
-0.000227035
0.000572436
-0.000340489
-0.000330121
-0.00155559
8.50624e-05
0.00192003
-0.00040239
-0.00149328
0.000107056
-0.00039661
0.000289548
0.000655972
-0.000109273
-0.000546731
-0.00172408
0.00167602
5.03874e-05
0.000424497
8.00213e-05
-0.000486822
0.000164149
-0.00195061
0.00179818
0.000491697
5.82611e-05
-0.000549954
-0.00135785
0.000522586
0.000827351
0.000250314
-0.000518257
7.53229e-05
-0.00011772
2.06028e-05
0.000591577
0.000883175
-0.00147671
0.000288626
0.000395755
-0.000636693
-0.00146205
0.000321669
0.00117499
-0.00157475
0.00124957
0.000352949
-0.000212574
0.000636532
-0.000423958
0.00138664
-0.000300038
-0.00111062
0.00156201
-0.00172212
0.000177964
-0.00120593
0.00106786
0.000419564
0.00138453
-0.00179342
-0.000879991
0.000651362
0.000228744
-0.00141854
-0.000559279
-0.000180755
0.0016376
-0.0016505
8.78709e-05
0.000639285
0.000184824
0.000409713
0.0015364
-0.00133856
0.00155119
-0.000182159
0.00124967
0.00116264
0.000638008
-0.00110759
-0.000175295
0.000439419
-0.00127661
0.000250672
0.00102525
0.000196516
0.00120693
-0.000592556
0.000941113
-0.000498071
-3.60622e-05
0.000534087
0.000538085
-0.00130477
0.000770004
0.000534871
-0.0014542
-0.00108763
0.000245389
0.000829131
0.000268496
-0.00159647
0.00134303
0.00140691
3.4645e-06
-0.00140919
-0.0010725
0.00110343
-3.15113e-05
-9.80115e-06
-0.00106308
-0.000396562
-0.000246633
0.000643172
-0.000931556
-0.000467242
0.00140533
0.000124536
-0.00142129
0.000670351
0.00113931
0.000125186
0.000530755
5.09567e-05
0.000734541
-0.000802494
-0.000354152
-0.000582658
0.000214087
-0.000470857
-0.000935875
-0.000469654
0.000496132
1.44062e-05
0.000462312
-0.00100743
0.00151592
-0.00133219
-0.000183545
-6.18874e-05
-0.000168657
0.000252975
0.00101161
-0.00125937
9.17419e-05
-0.00124784
0.00116202
0.00188555
-0.00093934
0.00135903
0.00165641
-8.0745e-05
-0.001493
-2.90054e-05
0.00152886
0.00155697
-0.00133045
-0.000205537
0.000635984
0.0016612
-0.000950158
-0.000705353
0.00048565
4.68046e-05
-0.000532454
0.000326158
-0.000864988
-0.000577629
-0.000703709
0.00128369
8.74641e-05
0.000299829
0.00023223
-1.80633e-05
-0.000388808
0.000678617
-0.000249992
-0.000225849
-0.000456394
0.00062978
-1.16656e-05
-0.000631863
-0.000141217
0.000743801
0.000604679
-0.000913414
0.000309093
0.000707181
-0.000354455
-0.000169316
8.73404e-05
-0.000193749
0.000894851
-0.000386962
-0.000507555
0.000380762
0.000335344
0.000152031
-1.05151e-05
6.4612e-07
-1.52913e-05
-0.000185542
0.000177115
1.61796e-05
0.00058864
-0.000595242
0.00070356
0.00171629
0.000116817
-0.00183835
0.00085847
-0.000467034
-0.000391325
0.00112225
0.000155143
-0.00127216
7.11566e-05
0.000495429
-0.000417915
-7.75176e-05
0.000331577
0.00104005
-0.000154419
0.000408096
-0.000253671
0.000156433
-2.88809e-05
-0.000330649
0.00148707
-8.00445e-05
-0.00014634
0.000393966
-0.000247622
0.000462282
-0.00102445
0.000561908
0.000486769
-0.00140752
0.000481731
-0.00145186
0.00145586
-0.00144913
9.06803e-05
-0.00015777
-0.0013935
4.46748e-05
0.000440982
-0.000417088
-0.000718921
0.00111641
-0.000386045
-0.000457974
-0.000421925
-0.000913283
0.00138112
0.000294155
-0.000166404
1.43534e-05
-0.000120793
9.22695e-05
0.00043462
0.00119975
3.91058e-05
-0.000118402
0.000266668
0.00104229
0.000567449
-0.000224248
-0.000343208
0.000364412
-0.000113038
-0.000246951
-0.000102808
-0.00151771
0.00179458
-0.000435037
-2.40152e-05
0.000655878
0.000395858
-8.95872e-06
-0.000498469
0.000519325
-2.08563e-05
-0.00071279
0.000429175
0.00111886
-0.000632428
-0.000487002
-0.00025747
-0.00126319
0.0015274
0.00141233
-0.0011993
-0.000398404
0.00154775
-0.00136913
-0.000166026
0.000612789
-6.11473e-05
0.000685515
-2.91869e-06
-0.000480708
-0.000432481
0.00164588
-0.000110574
-0.00151423
-0.00104443
0.000267391
0.000113542
1.39887e-05
-0.000223053
-1.61639e-05
0.000677206
0.000990014
-0.000235613
-0.000398586
0.00160793
-0.00181426
0.000221383
0.0010913
0.000189143
-0.00128406
-0.00148144
-7.12409e-05
-0.0014692
0.00155092
-0.00014789
-0.00115296
0.00130056
0.000116691
-0.00129672
0.00118284
-0.000330943
0.000485158
0.00085659
6.75004e-06
-0.000883109
0.00137273
-0.00162173
0.000560419
0.000443186
-0.00100301
0.0004253
-7.3712e-06
-0.00041793
0.000479718
0.000146199
-1.1551e-05
0.000292409
-0.000160753
-0.000814953
0.000969207
0.000478669
-8.8208e-05
0.000354131
-0.000508539
0.000556577
-0.000694653
0.000138101
0.000696448
2.88279e-05
-0.000739103
-0.00105005
0.00116926
0.00131939
-0.000232045
-0.000757598
0.000434171
0.000323487
-0.0015461
0.000650563
0.000900877
4.68909e-05
0.000551883
-0.000655653
-2.91468e-05
-0.000678586
0.000654235
0.00101692
-0.0011843
-0.00135222
-8.79198e-05
0.000298528
-0.00203282
0.00172989
-0.000509634
6.7518e-05
0.000442162
-0.000545485
0.000916498
-0.000220918
-0.000232143
0.000308583
-3.1537e-05
-0.0013192
0.000356785
0.000966093
0.000270716
0.000296723
0.000303942
0.000335465
-0.000392208
0.000661457
-0.000765395
0.000364131
0.00145163
0.000454415
-0.00189619
-0.00048783
0.000165769
0.000322065
0.000680322
-0.000397868
-0.000282419
0.000232635
-0.000629206
-0.000104132
-0.00161715
0.00175447
0.0010106
0.00100197
-0.000907598
0.00088333
-0.000172134
0.00060546
-0.000380976
-0.000248922
-0.000906736
0.0011564
-5.24464e-05
-0.000122881
4.91465e-05
0.000126774
0.00158718
0.000128068
0.000555855
-0.000705476
0.000542842
-0.000273018
-4.64162e-05
0.00198946
-0.0016926
-0.00197461
0.00160845
0.000275998
7.95424e-05
-7.95424e-05
0.000155956
-0.000665521
0.000204967
2.04762e-05
-0.00124958
0.00123592
0.00183388
-0.00163054
-0.000188075
-0.0003151
-0.000864945
0.0011815
-0.000408087
0.000406109
0.00132169
-0.00172897
-0.000497878
-1.53132e-05
0.000513191
0.000751949
-0.000277376
-0.000474585
0.000861892
0.000134217
-0.000997329
-0.000187306
-0.00135044
-0.00028895
2.90647e-05
-0.00160091
0.00152713
-5.71712e-05
-0.000419774
-0.000571517
-0.000341955
0.000913753
0.000274581
-0.000434482
0.000160753
-0.000399042
0.000703132
0.000749425
-0.00114763
0.000398652
0.00103346
-0.000264793
9.24411e-05
0.000464153
0.00121001
-0.0013581
-0.000672326
7.14328e-05
0.000954271
-0.00102399
0.000982546
6.50528e-05
0.00100178
-5.49656e-05
-0.00096227
0.000391098
0.00111824
0.000216648
0.000391025
0.000289316
-5.45108e-05
-0.000203031
0.000232539
-0.000316115
-8.03719e-05
-0.000514571
0.000368239
-0.000437855
-0.00122419
0.00122968
0.000731003
0.00140318
3.67007e-05
-0.000662721
0.00020373
-0.00115613
0.000832116
-0.000721052
0.00114514
-0.000421598
0.00075653
-0.000655553
-0.000304637
0.00131413
-0.000997203
-0.00138978
-0.000331701
0.00155833
-0.000738236
-0.000826418
-0.00118898
3.07182e-05
0.00113709
0.000371101
0.000543345
-0.00137976
0.00135327
-0.000928911
0.000872903
-1.66505e-06
0.000143844
-4.35941e-05
8.89037e-07
0.000988264
0.00086716
-0.00117327
-1.90676e-05
0.0011893
0.00112946
-0.00142144
-0.00014791
0.000462748
-1.08037e-05
6.9483e-06
0.000731095
-0.000171286
-0.000468564
0.000843963
-0.000375315
0.000773084
0.000798207
-5.79667e-05
0.000543614
-0.00030016
-0.000476507
-0.00106226
0.00101459
8.51236e-05
2.24139e-06
7.65028e-05
0.000348388
-0.00105471
0.00111061
0.000435244
-0.00128248
-0.000900068
0.000530974
-0.000173719
0.000200969
0.000694174
-0.00163031
-0.0011887
0.00125207
-1.68843e-05
-0.0012223
0.00140911
-0.00117301
0.00140253
-0.000207943
0.000621036
-0.000196748
-0.0015039
0.000662306
0.000206978
0.00136824
2.15722e-05
-0.000734064
-0.000174471
-0.00118818
0.00135777
0.00128675
-0.000319818
0.00136455
0.000305772
-4.87036e-05
-0.000232866
6.75819e-05
0.000152295
0.00190253
9.00438e-05
-0.00192466
0.000931977
2.87713e-07
-0.000749347
0.000984066
-4.83397e-06
0.000235715
0.00172857
-0.00195482
-0.00142112
0.00128352
-0.000839656
0.00109703
-0.000152716
-2.14367e-05
-8.45892e-06
0.000633315
-0.000141619
-7.84276e-05
-0.00149416
0.0015721
0.000870441
-0.000120577
0.000534617
-3.91907e-05
0.000532423
-0.00012983
-0.00118126
-0.000454549
-0.00105676
0.000568349
-0.000475446
0.000191232
-3.43256e-05
6.04459e-06
0.00182842
-0.0014302
-0.000458384
-0.000473298
0.00122742
-0.00075271
-0.000983656
0.00114372
-8.24358e-05
-6.72609e-05
2.38975e-05
0.000237499
-1.06425e-05
-0.000266463
0.000718741
-0.00104976
0.000330584
0.000557737
0.00053674
-0.000368049
-6.26425e-05
-1.0304e-05
0.000576141
0.000719416
-0.000220102
0.00142966
-0.00120816
0.000478743
-0.000244611
0.000846921
-0.000384799
-0.000399698
-0.000839498
0.00123681
-5.04959e-05
-0.00127951
0.00138458
0.000665787
-0.00124125
-0.000906006
0.00050345
-0.000525918
-0.000648624
0.00117969
-0.00141343
0.00195187
-0.000546045
0.000642882
-0.000155231
-0.000393242
0.000423214
-0.000635786
-0.000833251
0.000714962
3.99939e-05
0.000606426
-0.00108701
-0.00106525
0.000324
0.000742243
-0.000806005
-0.000124626
0.000305286
-0.000900356
0.00154375
-0.00168346
0.000161869
0.000407508
0.000210301
-0.000617846
-0.00123752
2.22107e-05
-0.000301669
-0.000294356
0.000596038
-0.000477183
0.000913659
-0.000435415
-0.00121189
0.000106655
0.000503933
-0.000890542
0.000796227
0.000106463
-0.000354468
-0.000403046
-0.000139026
0.00103073
-0.000834055
0.000884638
-0.000828965
-5.00028e-05
1.37985e-06
-0.000132619
0.000429892
-0.000462198
0.000532274
0.00065659
-0.00084454
-0.000363077
0.00103413
-0.000678462
0.000265289
0.00139586
-0.00165482
0.000736113
-0.000721427
0.000471357
-0.00159314
0.000973043
0.000625657
-0.00264189
0.00105809
0.00161568
0.0013459
0.00048047
0.000651676
-0.00098816
-0.000719879
0.00132538
-0.000103402
-0.000394478
0.000743055
-0.000977518
0.000234103
0.00123207
-0.00163446
-0.00107958
2.43874e-05
-0.00142629
6.36835e-05
-0.00187555
0.00182301
4.66238e-05
-0.000613034
0.00103319
-0.00027031
-0.000424296
-0.000928543
-0.000105868
-0.000145236
0.000124866
-0.000285473
-0.000185758
0.000471233
0.00042377
-0.000721858
-0.00152382
3.51989e-05
3.03389e-05
-7.43061e-06
-1.57245e-05
0.000488453
-0.00173722
0.00127104
-0.000530877
0.000537656
-4.95573e-06
0.000619261
0.000666232
0.00161459
-2.89274e-06
0.00132321
-0.00168544
0.000372818
5.24712e-05
0.00114003
-0.00118653
3.95647e-06
-0.000502046
-2.34166e-06
4.80782e-05
-0.000471699
0.000237742
-6.47507e-05
-3.66615e-05
7.44367e-05
0.000962857
-0.000401981
-0.000122255
-0.000411992
0.000484017
0.000583411
0.000981893
-0.00154074
0.000479795
-0.000432991
0.000481052
-0.000535125
0.000422299
-0.000905534
0.000483665
0.00121634
-0.00111113
-1.9606e-05
4.80775e-05
-3.56334e-05
-2.10874e-06
-0.00100525
-0.000171147
-0.000731564
0.00115741
-0.000425492
2.77971e-05
0.000608732
0.00115634
-0.000158318
-0.000647018
0.00120656
0.000153292
-0.000544597
0.000279626
-0.00122644
0.000381752
-0.000683393
-0.000279127
0.00151043
-0.0002375
8.70244e-05
-0.000108622
-0.00112003
-0.00027883
4.37001e-05
4.51496e-06
-4.4527e-05
-0.000803003
0.00130717
-1.1749e-05
-0.00124124
0.00125229
0.000541786
-0.00137472
-0.0011037
-5.40882e-05
0.000998796
-0.000886195
-0.000416739
-0.00151846
0.0008058
0.000274026
0.00168899
-0.00194819
-0.000367228
-0.000870112
0.0012629
-0.0010081
0.000976169
3.27416e-05
0.000423881
0.000737137
-0.00115965
-0.00145885
0.000118329
0.000241468
-0.000117305
0.00107545
-0.000517039
7.4259e-05
-0.00113801
0.0010991
-0.00125565
5.15434e-05
-7.15482e-05
-0.000728064
-0.000847906
0.000367337
0.000680297
0.000395591
-0.00135684
0.00152376
-0.000455894
0.00087861
-0.00113328
9.14885e-05
0.00104368
-0.0012244
-0.000309927
0.001536
0.00174273
-0.00152247
-0.000214598
-0.000179192
-0.000335364
0.00166201
-2.76512e-05
-0.000389102
0.00100967
0.000554475
-0.000343898
-0.000210551
0.000600871
0.000362492
0.000535955
5.07008e-06
-0.000540841
-0.000341447
-0.000722736
0.00105032
-0.00151334
0.000734212
0.000501004
-7.57043e-05
-0.00142609
0.00109057
0.000184366
-0.000156105
0.000757337
0.000109023
-2.90062e-05
0.000400618
-0.00141195
-0.000106092
-0.00107147
0.0010029
7.17771e-05
0.000762309
0.000496856
-0.00126156
-0.000198401
0.000469097
0.000389961
-0.000679148
0.000289217
0.000628549
-0.00147311
-0.00110135
3.4815e-05
-1.86049e-05
-0.000438786
-0.000907136
0.000262108
0.000645202
-0.00142468
-0.000514729
0.000334131
0.000307041
0.00166062
0.000889363
-0.000103801
-0.000726416
5.26808e-05
-0.00142392
0.000425828
-0.000672476
-0.000888172
0.000421279
-0.00055488
0.000190214
0.000364673
0.00165763
-0.00149353
-0.00126862
0.00144129
-0.000224751
0.000632202
-0.000478216
0.000845177
-0.000367054
-0.00134816
0.00143648
-3.50491e-06
0.00130619
-9.05996e-06
-0.00128804
-0.000941065
0.00137093
-0.000491784
3.9529e-06
0.000843002
-0.00155913
-0.00117532
0.000804084
0.000314387
0.000420906
-0.000889329
-0.000140525
0.00053052
-0.000397388
-3.53195e-05
-0.00173238
-0.000832966
0.000415242
0.000417955
-0.000237882
-0.00119018
-0.000971014
0.000272896
0.00142207
-0.000814848
-0.00116508
0.00085162
0.000453879
0.00135215
-0.00179882
0.000128363
0.00211947
-0.00151728
-0.000566902
3.24628e-05
-0.00120495
0.00156653
-0.000336707
-0.00122729
-4.28148e-06
-1.936e-05
0.000882938
0.00068713
-0.00124646
0.000823227
0.000425307
-0.000228853
0.00100088
-0.000770572
0.000216816
4.02996e-05
-0.000250296
-4.70726e-05
-0.000451606
0.000398099
0.00128363
-0.000222114
-0.00102292
-0.00056144
3.27677e-05
0.000573263
0.000525493
7.8181e-05
0.000966362
0.000526378
-0.00124637
0.000115941
-0.00121709
0.000745092
5.98261e-05
-0.000131824
3.56983e-05
-0.00112368
0.000782035
2.83224e-06
0.000120067
-0.000307269
0.000369951
0.000184545
-3.9591e-05
0.00136283
-0.00129199
-0.00120854
0.00122537
-1.65203e-05
0.000142671
-0.00102744
0.000551203
0.00196347
-0.00051928
-0.00133553
-0.000659141
0.000502644
0.000212575
-0.00133078
0.000260105
-0.00164813
-7.425e-05
0.00160227
-0.00138515
-0.000205598
-0.000165267
-0.000567007
0.000731969
-0.000301022
0.000738977
0.00128654
-0.000956008
0.000661203
0.000294599
0.0012353
0.000347224
0.00033345
-0.000336924
-0.000619394
-6.47709e-05
0.00200859
-0.00138932
0.000590397
0.000957686
-0.0014416
0.00105932
-0.00104093
8.24674e-05
-0.000850478
-1.06919e-05
0.00086095
-0.000363443
0.000368301
-0.000630129
0.000261844
0.00117882
-0.00135507
-2.23441e-05
0.000856074
-0.000863313
7.27667e-05
0.000944147
-0.00087236
0.000181703
0.00074621
-0.00187898
-0.000728133
0.00194643
-0.00151588
-0.000355165
-0.000287081
0.000642156
0.00138738
-0.00139359
-0.000317983
-0.000381284
-0.000524225
0.00139348
-0.00141736
0.000195406
-0.00149622
-0.000111284
-0.0005515
0.00024101
0.000310491
-9.0999e-05
-0.00135742
3.50679e-06
-3.82393e-05
-0.000157244
0.0006157
-0.000843364
0.000451029
-0.000392768
0.000213382
0.000627227
3.80109e-05
0.000475782
-0.000125349
0.000753993
0.0013401
0.00132214
-0.000945375
-3.76672e-05
0.000983925
-3.31452e-05
-0.00178006
0.00184341
-0.000620692
0.00116886
5.88695e-05
-0.00131285
-0.00156187
8.287e-05
0.00110621
-0.000681179
0.000523829
0.000138567
-0.000662362
0.00129844
-0.00114766
-0.000147011
0.000214747
0.00125486
0.000516973
-0.000629219
0.000123557
-0.000801248
0.00124036
-0.00043482
0.00148516
-0.000938333
-0.000241975
0.00118314
-0.000155333
0.000891924
-0.000692932
4.98058e-05
0.00118967
0.000448706
-0.0005459
-0.000222552
0.000279772
0.00125936
-4.03848e-05
0.000171904
-0.00114992
0.000977797
-9.12599e-05
0.000213787
-0.000396573
-0.00103781
0.00145078
-0.000409523
-0.000119232
0.000528794
3.23545e-05
-0.000289947
-0.000120793
0.000442895
-0.000615003
-0.000646211
0.00140682
0.000984379
-0.000123901
-0.0011469
0.00133209
0.000449529
-0.000477456
-4.90309e-05
0.000572903
-6.08191e-05
-2.6218e-05
0.00112662
-5.05131e-05
-0.00107238
0.00151137
-0.00188779
0.00146826
-0.00165223
0.000192191
0.00048366
-0.000448335
-3.53256e-05
-1.10257e-05
8.95309e-05
-0.000656745
0.000630386
-0.00039747
0.00063015
0.000892713
0.000271729
0.00108406
0.00107556
-8.72837e-05
0.000623388
0.00164244
-0.000166053
0.00190215
-0.00165951
-0.00124896
0.00114321
1.64598e-05
0.000389049
-0.000566082
0.00112465
-0.00124174
0.00104519
-0.0011363
3.95881e-06
-0.000692289
-4.68315e-05
-0.000724371
0.00222889
-0.00145945
0.000489972
-0.000547939
0.000736299
0.000429787
-0.00116666
-0.000995894
-0.00015122
-0.000186564
1.44982e-05
0.000517105
-0.00133377
0.00179388
-0.000842598
0.000421936
0.000421027
0.000570027
-0.000142039
-0.000427993
0.00166765
-0.000218368
-0.00137456
-8.11859e-05
0.000379472
-0.000573023
0.000193481
-0.000912871
0.00119252
-0.000208187
2.02027e-05
0.000243488
-0.00139318
0.000508515
-0.0001183
1.74444e-06
0.00014723
-0.0012183
0.00120793
4.26114e-06
0.000119452
0.000632495
1.0494e-05
5.95211e-05
2.47931e-05
0.000146799
-0.000382681
5.06627e-06
3.63738e-05
0.00178477
-0.00154302
-0.000234062
-1.88397e-05
-0.000523523
-0.001629
0.00174056
0.00092743
-0.00117532
0.000424059
0.00038351
-0.000807698
0.000126902
0.000178401
-2.06456e-05
-0.000242049
-0.00017538
0.000213854
-0.00094526
0.00010808
-0.00084974
-0.000127549
0.000995293
0.000816743
-0.000801522
4.60075e-07
0.00125186
0.000687765
0.000741787
-0.0013904
0.000666489
0.00116524
-0.000304463
9.8428e-05
-0.00144336
0.00108805
0.00052392
-1.59036e-05
0.00100475
-0.000500497
0.000298758
0.000201741
-0.0004666
-0.000777973
0.00125255
-0.000984622
-7.89944e-05
-0.00160878
0.00070372
0.00090418
-0.000236183
0.00048705
-0.000112874
0.000655661
-9.22467e-06
-4.63065e-05
-0.00079485
0.000924149
-0.000852786
0.00115044
-0.000295338
0.00119408
-0.000429847
0.000415674
0.000411927
0.00152794
0.000383114
-0.00186378
-0.000165876
7.55081e-05
7.74783e-05
0.00132184
-0.000325265
0.000151831
-0.000463554
-0.000598601
0.00106319
-0.00134744
0.000509883
-0.000753904
0.000840041
-0.00160248
0.0015556
6.37183e-05
6.50757e-05
-0.0011296
0.00106624
0.000206516
1.18343e-05
-0.000220907
-0.00217866
0.000239637
-6.09913e-05
-0.000988408
0.00106841
-5.30936e-05
-0.00126981
3.74664e-05
0.000680844
-0.000555532
0.00027006
0.0015342
-0.00146906
-0.000980102
-0.000627792
-0.00169558
0.00011483
-0.00125739
-0.000561873
0.000382705
9.54241e-05
-0.000166138
-0.00123293
0.00142289
0.00117153
0.000267699
-0.00140758
-0.001374
0.00037403
-0.00055526
0.000181231
0.000779636
-0.000746229
0.000249516
0.000739505
-2.95356e-05
0.00141435
-0.000142168
-0.00125072
0.000560657
0.000785252
-0.00133296
-0.000315892
-0.000235386
0.000484639
0.00122749
-0.000407943
-0.000496979
-0.000661461
0.000251997
0.00054726
-0.000137774
-0.000102681
0.000845329
-0.000237581
-0.000262911
-1.29326e-05
-0.000824384
0.0012039
-0.000378236
0.000676927
-0.000325934
7.378e-05
-4.91926e-05
5.30455e-06
-0.00174043
-0.000130163
0.000454804
-0.000112265
-0.000446242
-0.000717313
6.7768e-05
-0.000868052
-0.000272067
-0.000358024
0.00120506
-0.00142349
0.00118301
-0.000151583
-0.00102772
0.00226835
-0.00191579
-0.000331843
-0.000409688
0.000846092
-0.000436058
-0.000369067
0.000458026
-8.89552e-05
0.000173667
-0.000587467
0.000413804
0.0014356
-0.00168709
0.000262859
-0.001678
0.00157734
0.000116933
0.000105812
-0.000557237
-0.000299488
-0.000423035
0.000701778
-7.67566e-05
-0.00052455
-0.000141336
0.000569528
-0.000428259
0.000450512
0.000650583
0.00091863
8.40164e-05
-0.00100153
-3.93005e-05
-0.000592803
0.000632351
0.000589143
-0.000835418
-0.00165398
0.000349134
0.00214255
-0.00168582
-0.000420475
5.78154e-05
-0.00133682
0.000382324
-0.00153675
0.00117715
-0.000296835
-0.000322007
-0.000347338
-0.000260783
-0.000248196
-0.000507323
0.000936918
-0.000461014
1.38334e-05
0.000447172
-0.000147506
-0.00105035
0.00110867
-0.000390463
0.000814277
0.000671429
-0.000837047
-0.000298277
0.000969423
-0.000595688
0.000518422
0.00131381
0.00127292
0.000179072
-0.00142168
-0.00120487
0.0010384
0.000301786
-0.00027069
-2.58233e-05
0.000309465
-0.000404041
0.000460897
0.000237986
-0.000698755
0.000767099
-0.000141426
-0.000949606
1.34172e-05
-0.000666665
0.0013046
-0.00094766
-0.00035431
1.70394e-05
0.000763813
-0.00120845
-1.40742e-06
0.00121267
-0.00116903
-0.000665859
0.000325399
0.00051624
-0.000773782
0.000257727
0.000411869
-0.000966653
0.000555273
-0.00155322
-5.87113e-05
-1.26403e-05
3.34965e-05
-0.00128401
0.00132818
-7.51096e-05
-1.00957e-07
0.00124616
-0.0010172
-0.000430313
-0.0010728
0.00013794
-0.000920532
0.00126809
-0.00107579
0.00118182
8.79172e-05
0.00133278
-0.00139708
0.000404003
-0.00054604
-0.00191843
0.00172671
0.000231284
9.99852e-05
-0.001017
0.00088955
0.000239998
-0.000718247
-0.000445623
0.000422669
-0.000430914
9.57744e-05
0.000591855
-0.000154956
-0.000861108
-0.00040468
-0.000847176
0.00128135
-0.000419069
0.000420474
-1.40521e-06
0.00108076
5.44075e-05
-0.000468881
7.86405e-06
0.000919859
-0.000242478
-1.4754e-05
-0.00104079
9.13449e-05
0.00177114
-0.000243672
-0.00151026
-1.13312e-05
3.46117e-06
-0.00026855
9.62055e-05
0.00130573
0.00012758
-0.00133026
0.000375221
0.000323501
-0.000698558
-0.00151936
0.000160413
-0.00158461
0.0015774
0.00137304
-0.00124169
0.00100601
-0.000337257
-0.000569565
-0.00150014
0.00109385
0.00062776
-0.00119435
-0.000126031
-0.000587739
0.00054253
0.000625445
-0.000701189
7.57357e-05
-0.00115912
3.14354e-05
0.00112996
0.00112565
-0.00164061
0.00192792
0.000933933
-0.000864526
-8.86433e-06
0.00040296
-0.000550868
0.000276845
0.000552976
-0.000829807
-0.000656405
-0.000466859
-0.000269714
0.000435484
-0.00136183
-1.68635e-05
0.000181263
0.000791124
0.000138229
0.000561494
3.04417e-05
0.000418266
0.000164244
-0.0017953
-0.000829724
-0.000387297
0.00121831
-0.000109938
0.00148974
0.000409212
-0.00191731
0.00152344
0.00106663
-2.49158e-05
-4.29778e-05
6.35615e-06
-1.65909e-06
-4.82432e-05
-0.00102601
0.00109273
-2.01336e-05
-0.000244795
0.000403674
-0.000107404
6.33603e-05
0.000160576
0.000437726
0.000442321
0.00105998
0.000753141
-0.000619753
0.000284495
0.00026277
-0.000195718
-0.00125008
-0.000548096
0.000240407
0.000307693
0.00042148
3.08552e-05
-0.000512464
-0.00166647
0.000256976
0.00114745
-0.00114903
-0.000629388
-0.000340739
-5.73787e-05
0.000566729
5.65151e-05
0.00147218
0.000121748
-0.00158375
0.00115662
0.000219242
0.00120723
-0.00142354
-0.00018436
-0.00129868
0.000777641
-0.000426809
0.000889649
0.0008163
-0.000702362
-0.000113841
0.00038687
-0.00180377
6.01772e-05
-0.000773123
0.000713149
0.000490651
-0.000526759
0.001527
-0.00135927
-0.000150014
-0.000247994
-0.000621173
-0.0010495
-0.000194154
-0.00122144
0.00143207
-0.000200359
-0.00147004
0.00136825
0.00127092
-8.88271e-05
-5.20743e-05
0.000321826
0.0013851
-0.000408469
4.56972e-05
0.00172462
-0.00165075
-0.000141663
-0.00147915
0.00175299
-0.00123824
0.000948048
0.000273484
-0.000692531
-0.000644972
0.000289725
-0.000317155
0.00187946
-0.00150346
-2.5887e-05
0.00158003
-0.000909246
-0.000117575
1.65279e-05
0.000207949
-0.00096222
0.00098221
2.27456e-05
0.00147464
0.000122525
-0.0015899
0.00054855
-0.000940998
0.000392957
0.000118282
-0.000968943
-0.0012514
3.55309e-05
-0.00111662
-0.000315143
0.000177797
0.000414456
-0.000635296
0.000220913
0.00115937
0.000652561
-0.00180649
-0.000330602
-0.000233617
0.000564222
0.00146867
-0.000715345
-0.000751041
3.25256e-05
0.000165961
-0.000185335
0.00144311
-0.00157937
0.000167419
0.000313236
0.000329559
-0.000642749
0.000520123
-0.000146101
0.00139377
-0.000415646
-0.000610166
-0.000640829
4.43086e-05
0.00193692
-0.00197867
8.2521e-05
-0.000371124
3.47017e-06
-0.000310065
0.000471233
-0.000161166
0.000243766
0.00142104
-0.00163948
-0.00142884
-8.76265e-05
0.000147124
0.000726797
-0.000347394
0.00106952
-0.000659088
-0.000410391
-0.00150768
5.55915e-05
0.00156583
-0.000870093
0.00104187