/*--------------------------------*- C++ -*----------------------------------*\
| =========                 |                                                 |
| \\      /  F ield         | OpenFOAM: The Open Source CFD Toolbox           |
|  \\    /   O peration     | Version:  v2012                                 |
|   \\  /    A nd           | Website:  www.openfoam.com                      |
|    \\/     M anipulation  |                                                 |
\*---------------------------------------------------------------------------*/
FoamFile
{
    version     2.0;
    format      ascii;
    class       pointVectorField;
    location    "300";
    object      pointDisplacement;
}
// * * * * * * * * * * * * * * * * * * * * * * * * * * * * * * * * * * * * * //

dimensions      [0 1 0 0 0 0 0];


internalField   nonuniform List<vector> 
10232
(
(0 0 0)
(0 6.61177e-06 0)
(0 6.61177e-06 0)
(0 6.61177e-06 0)
(0 6.61177e-06 0)
(0 0 0)
(0 6.61177e-06 0)
(0 6.61177e-06 0)
(0 6.61177e-06 0)
(0 6.61177e-06 0)
(0 0 0)
(0 0 0)
(0 0 0)
(0 0 0)
(0 0 0)
(0 0 0)
(0 0 0)
(0 0 0)
(0 0 0)
(0 0 0)
(0 0 0)
(0 0 0)
(0 0 0)
(0 0 0)
(0 0 0)
(0 0 0)
(0 0 0)
(0 0 0)
(0 0 0)
(0 0 0)
(0 0 0)
(0 0 0)
(0 0 0)
(0 0 0)
(0 0 0)
(0 0 0)
(0 0 0)
(0 0 0)
(0 0 0)
(0 0 0)
(0 0 0)
(0 0 0)
(0 0 0)
(0 0 0)
(0 0 0)
(0 0 0)
(0 0 0)
(0 0 0)
(0 0 0)
(0 0 0)
(0 0 0)
(0 0 0)
(0 0 0)
(0 0 0)
(0 0 0)
(0 0 0)
(0 0 0)
(0 0 0)
(0 0 0)
(0 0 0)
(0 0 0)
(0 0 0)
(0 0 0)
(0 0 0)
(0 0 0)
(0 0 0)
(0 0 0)
(0 0 0)
(0 0 0)
(0 0 0)
(0 0 0)
(0 0 0)
(0 0 0)
(0 0 0)
(0 0 0)
(0 0 0)
(0 0 0)
(0 0 0)
(0 0 0)
(0 0 0)
(0 0 0)
(0 0 0)
(0 0 0)
(0 0 0)
(0 6.61177e-06 0)
(0 6.61177e-06 0)
(0 6.61177e-06 0)
(0 6.61177e-06 0)
(0 6.61177e-06 0)
(0 6.61177e-06 0)
(0 6.61177e-06 0)
(0 6.61177e-06 0)
(0 6.61177e-06 0)
(0 6.61177e-06 0)
(0 6.61177e-06 0)
(0 6.61177e-06 0)
(0 6.61177e-06 0)
(0 6.61177e-06 0)
(0 6.61177e-06 0)
(0 6.61177e-06 0)
(0 6.61177e-06 0)
(0 6.61177e-06 0)
(0 6.61177e-06 0)
(0 6.61177e-06 0)
(0 6.61177e-06 0)
(0 6.61177e-06 0)
(0 6.61177e-06 0)
(0 6.61177e-06 0)
(0 6.61177e-06 0)
(0 6.61177e-06 0)
(0 6.61177e-06 0)
(0 6.61177e-06 0)
(0 6.61177e-06 0)
(0 6.61177e-06 0)
(0 6.61177e-06 0)
(0 6.61177e-06 0)
(0 6.61177e-06 0)
(0 6.61177e-06 0)
(0 6.61177e-06 0)
(0 6.61177e-06 0)
(0 6.61177e-06 0)
(0 6.61177e-06 0)
(0 6.61177e-06 0)
(0 6.61177e-06 0)
(0 6.61177e-06 0)
(0 6.61177e-06 0)
(0 6.61177e-06 0)
(0 6.61177e-06 0)
(0 6.61177e-06 0)
(0 6.61177e-06 0)
(0 6.61177e-06 0)
(0 6.61177e-06 0)
(0 6.61177e-06 0)
(0 6.61177e-06 0)
(0 6.61177e-06 0)
(0 6.61177e-06 0)
(0 6.61177e-06 0)
(0 6.61177e-06 0)
(0 6.61177e-06 0)
(0 6.61177e-06 0)
(0 6.61177e-06 0)
(0 6.61177e-06 0)
(0 6.61177e-06 0)
(0 6.61177e-06 0)
(0 6.61177e-06 0)
(0 6.61177e-06 0)
(0 6.61177e-06 0)
(0 6.61177e-06 0)
(0 6.61177e-06 0)
(0 6.61177e-06 0)
(0 6.61177e-06 0)
(0 6.61177e-06 0)
(0 6.61177e-06 0)
(0 6.61177e-06 0)
(0 6.61177e-06 0)
(0 6.61177e-06 0)
(0 6.61177e-06 0)
(0 6.61177e-06 0)
(0 6.61177e-06 0)
(0 6.61177e-06 0)
(0 6.61177e-06 0)
(0 6.61177e-06 0)
(0 6.61177e-06 0)
(0 6.61177e-06 0)
(0 6.61177e-06 0)
(0 6.61177e-06 0)
(0 6.61177e-06 0)
(0 6.61177e-06 0)
(0 6.61177e-06 0)
(0 6.61177e-06 0)
(0 6.61177e-06 0)
(0 6.61177e-06 0)
(0 6.61177e-06 0)
(0 6.61177e-06 0)
(0 6.61177e-06 0)
(0 6.61177e-06 0)
(0 6.61177e-06 0)
(0 6.61177e-06 0)
(0 6.61177e-06 0)
(0 6.61177e-06 0)
(0 6.61177e-06 0)
(0 6.61177e-06 0)
(0 6.61177e-06 0)
(0 6.61177e-06 0)
(0 6.61177e-06 0)
(0 6.61177e-06 0)
(0 6.61177e-06 0)
(0 6.61177e-06 0)
(0 6.61177e-06 0)
(0 6.61177e-06 0)
(0 6.61177e-06 0)
(0 6.61177e-06 0)
(0 6.61177e-06 0)
(0 6.61177e-06 0)
(0 6.61177e-06 0)
(0 6.61177e-06 0)
(0 6.61177e-06 0)
(0 6.61177e-06 0)
(0 6.61177e-06 0)
(0 6.61177e-06 0)
(0 0 0)
(0 0 0)
(0 0 0)
(0 0 0)
(0 0 0)
(0 0 0)
(0 0 0)
(0 0 0)
(0 0 0)
(0 0 0)
(0 0 0)
(0 0 0)
(0 0 0)
(0 0 0)
(0 0 0)
(0 0 0)
(0 0 0)
(0 0 0)
(0 0 0)
(0 0 0)
(0 0 0)
(0 0 0)
(0 0 0)
(0 0 0)
(0 0 0)
(0 0 0)
(0 0 0)
(0 0 0)
(0 0 0)
(0 0 0)
(0 0 0)
(0 0 0)
(0 0 0)
(0 0 0)
(0 0 0)
(0 0 0)
(0 0 0)
(0 0 0)
(0 0 0)
(0 0 0)
(0 0 0)
(0 0 0)
(0 0 0)
(0 0 0)
(0 0 0)
(0 0 0)
(0 0 0)
(0 0 0)
(0 0 0)
(0 0 0)
(0 0 0)
(0 0 0)
(0 0 0)
(0 0 0)
(0 0 0)
(0 0 0)
(0 0 0)
(0 0 0)
(0 0 0)
(0 0 0)
(0 0 0)
(0 0 0)
(0 0 0)
(0 0 0)
(0 0 0)
(0 0 0)
(0 0 0)
(0 0 0)
(0 0 0)
(0 0 0)
(0 0 0)
(0 0 0)
(0 0 0)
(0 0 0)
(0 6.61177e-06 0)
(0 6.61177e-06 0)
(0 6.61177e-06 0)
(0 6.61177e-06 0)
(0 6.61177e-06 0)
(0 6.61177e-06 0)
(0 6.61177e-06 0)
(0 6.61177e-06 0)
(0 6.61177e-06 0)
(0 6.61177e-06 0)
(0 6.61177e-06 0)
(0 6.61177e-06 0)
(0 6.61177e-06 0)
(0 6.61177e-06 0)
(0 6.61177e-06 0)
(0 6.61177e-06 0)
(0 6.61177e-06 0)
(0 6.61177e-06 0)
(0 6.61177e-06 0)
(0 6.61177e-06 0)
(0 6.61177e-06 0)
(0 6.61177e-06 0)
(0 6.61177e-06 0)
(0 6.61177e-06 0)
(0 6.61177e-06 0)
(0 6.61177e-06 0)
(0 6.61177e-06 0)
(0 6.61177e-06 0)
(0 6.61177e-06 0)
(0 6.61177e-06 0)
(0 6.61177e-06 0)
(0 6.61177e-06 0)
(0 6.61177e-06 0)
(0 6.61177e-06 0)
(0 6.61177e-06 0)
(0 6.61177e-06 0)
(0 6.61177e-06 0)
(0 6.61177e-06 0)
(0 6.61177e-06 0)
(0 6.61177e-06 0)
(0 6.61177e-06 0)
(0 6.61177e-06 0)
(0 6.61177e-06 0)
(0 6.61177e-06 0)
(0 6.61177e-06 0)
(0 6.61177e-06 0)
(0 6.61177e-06 0)
(0 6.61177e-06 0)
(0 6.61177e-06 0)
(0 6.61177e-06 0)
(0 6.61177e-06 0)
(0 6.61177e-06 0)
(0 6.61177e-06 0)
(0 6.61177e-06 0)
(0 6.61177e-06 0)
(0 6.61177e-06 0)
(0 6.61177e-06 0)
(0 6.61177e-06 0)
(0 6.61177e-06 0)
(0 6.61177e-06 0)
(0 6.61177e-06 0)
(0 6.61177e-06 0)
(0 6.61177e-06 0)
(0 6.61177e-06 0)
(0 6.61177e-06 0)
(0 6.61177e-06 0)
(0 6.61177e-06 0)
(0 6.61177e-06 0)
(0 6.61177e-06 0)
(0 6.61177e-06 0)
(0 6.61177e-06 0)
(0 6.61177e-06 0)
(0 6.61177e-06 0)
(0 6.61177e-06 0)
(0 6.61177e-06 0)
(0 6.61177e-06 0)
(0 6.61177e-06 0)
(0 6.61177e-06 0)
(0 6.61177e-06 0)
(0 6.61177e-06 0)
(0 6.61177e-06 0)
(0 6.61177e-06 0)
(0 6.61177e-06 0)
(0 6.61177e-06 0)
(0 6.61177e-06 0)
(0 6.61177e-06 0)
(0 6.61177e-06 0)
(0 6.61177e-06 0)
(0 6.61177e-06 0)
(0 6.61177e-06 0)
(0 6.61177e-06 0)
(0 6.61177e-06 0)
(0 6.61177e-06 0)
(0 6.61177e-06 0)
(0 6.61177e-06 0)
(0 6.61177e-06 0)
(0 6.61177e-06 0)
(0 6.61177e-06 0)
(0 6.61177e-06 0)
(0 6.61177e-06 0)
(0 6.61177e-06 0)
(0 6.61177e-06 0)
(0 6.61177e-06 0)
(0 6.61177e-06 0)
(0 6.61177e-06 0)
(0 6.61177e-06 0)
(0 6.61177e-06 0)
(0 6.61177e-06 0)
(0 6.61177e-06 0)
(0 6.61177e-06 0)
(0 6.61177e-06 0)
(0 6.61177e-06 0)
(0 6.61177e-06 0)
(0 6.61177e-06 0)
(0 6.61177e-06 0)
(0 6.61177e-06 0)
(0 6.6038e-06 0)
(0 6.60771e-06 0)
(0 6.6265e-06 0)
(0 6.58634e-06 0)
(0 6.60895e-06 0)
(0 6.64164e-06 0)
(0 6.61325e-06 0)
(0 6.60762e-06 0)
(0 6.61205e-06 0)
(0 6.62169e-06 0)
(0 6.6127e-06 0)
(0 6.67036e-06 0)
(0 6.59628e-06 0)
(0 6.60399e-06 0)
(0 -1.70685e-05 0)
(0 -3.18259e-05 0)
(0 -1.37793e-05 0)
(0 -4.6568e-05 0)
(0 -2.9723e-05 0)
(0 -5.77909e-05 0)
(0 6.63455e-06 0)
(0 6.61209e-06 0)
(0 -2.85566e-05 0)
(0 6.60806e-06 0)
(0 6.60739e-06 0)
(0 -1.63023e-05 0)
(0 -2.31375e-05 0)
(0 -2.01884e-05 0)
(0 -1.21025e-05 0)
(0 6.6076e-06 0)
(0 6.61122e-06 0)
(0 6.61205e-06 0)
(0 6.61095e-06 0)
(0 6.62085e-06 0)
(0 6.61125e-06 0)
(0 -1.13087e-05 0)
(0 -6.5435e-06 0)
(0 -5.49427e-05 0)
(0 -4.3949e-05 0)
(0 -3.78195e-05 0)
(0 -1.94677e-05 0)
(0 -1.22044e-05 0)
(0 6.60519e-06 0)
(0 6.60333e-06 0)
(0 6.60639e-06 0)
(0 6.60827e-06 0)
(0 6.64407e-06 0)
(0 6.60967e-06 0)
(0 -6.18895e-06 0)
(0 -5.36913e-06 0)
(0 -5.51291e-05 0)
(0 -3.32381e-05 0)
(0 -1.73267e-05 0)
(0 -2.97702e-05 0)
(0 -2.36626e-05 0)
(0 -1.40705e-05 0)
(0 -9.3985e-06 0)
(0 -1.44324e-05 0)
(0 -2.36681e-06 0)
(0 -0.000434781 0)
(0 -0.000444201 0)
(0 -0.000417807 0)
(0 -0.000427076 0)
(0 -0.000401346 0)
(0 -0.000410756 0)
(0 -0.000386188 0)
(0 -0.000395608 0)
(0 -0.000372233 0)
(0 -0.000381768 0)
(0 -0.000359333 0)
(0 -0.000369251 0)
(0 -0.000347539 0)
(0 -0.000357538 0)
(0 -0.000336692 0)
(0 -0.00032604 0)
(0 -0.000316558 0)
(0 -0.000327108 0)
(0 -0.000308169 0)
(0 -0.000318776 0)
(0 -0.000301535 0)
(0 -0.000305302 0)
(0 -0.000418739 0)
(0 -0.000311458 0)
(0 -0.000295074 0)
(0 -0.000305054 0)
(0 -0.000288783 0)
(0 -0.000299262 0)
(0 -0.00028402 0)
(0 -0.000272797 0)
(0 -0.000269439 0)
(0 -0.000257583 0)
(0 -0.000255317 0)
(0 -0.000266814 0)
(0 -0.000254065 0)
(0 -0.000243219 0)
(0 -0.000315156 0)
(0 -0.000265371 0)
(0 -0.00025419 0)
(0 -0.00026499 0)
(0 -0.000254761 0)
(0 -0.000264896 0)
(0 -0.000255483 0)
(0 -0.000264615 0)
(0 -0.000256382 0)
(0 -0.000246841 0)
(0 -0.000249467 0)
(0 -0.000239611 0)
(0 -0.000243777 0)
(0 -0.000233642 0)
(0 -0.000239072 0)
(0 -0.000228325 0)
(0 -0.00023492 0)
(0 -0.000221938 0)
(0 -0.000231229 0)
(0 -0.00021964 0)
(0 -0.000228746 0)
(0 -0.000215908 0)
(0 -0.00022769 0)
(0 -0.000216709 0)
(0 -0.000228531 0)
(0 -0.00021798 0)
(0 -0.000230985 0)
(0 -0.000240553 0)
(0 -0.000244423 0)
(0 -0.000252949 0)
(0 -0.000258139 0)
(0 -0.000252261 0)
(0 -0.000265607 0)
(0 -0.000271868 0)
(0 -0.000278108 0)
(0 -0.000285193 0)
(0 -0.000290163 0)
(0 -0.000220718 0)
(0 -0.000297658 0)
(0 -0.000301397 0)
(0 -0.000308671 0)
(0 -0.000311356 0)
(0 -0.000318107 0)
(0 -0.000319234 0)
(0 -0.000294073 0)
(0 -0.00020936 0)
(0 -0.000325449 0)
(0 -0.000325072 0)
(0 -0.000319875 0)
(0 -0.00032476 0)
(0 -0.000330953 0)
(0 -0.000320334 0)
(0 -0.000324527 0)
(0 -0.000319849 0)
(0 -0.000323309 0)
(0 -0.000317835 0)
(0 -0.000320331 0)
(0 -0.000540217 0)
(0 -0.000538785 0)
(0 -0.000531902 0)
(0 -0.000529948 0)
(0 -0.00052348 0)
(0 -0.000521084 0)
(0 -0.000314061 0)
(0 -0.000315527 0)
(0 -0.000322053 0)
(0 -0.000316311 0)
(0 -0.000322039 0)
(0 -0.000514636 0)
(0 -0.000511315 0)
(0 -0.000407264 0)
(0 -0.000504301 0)
(0 -0.000315577 0)
(0 -0.000320458 0)
(0 -0.000332249 0)
(0 -0.000337894 0)
(0 -0.000308638 0)
(0 -0.000312729 0)
(0 -0.000316899 0)
(0 -0.000307674 0)
(0 -0.000310864 0)
(0 -0.000500343 0)
(0 -0.000493089 0)
(0 -0.000504908 0)
(0 -0.000300272 0)
(0 -0.000302232 0)
(0 -0.000493843 0)
(0 -0.000496355 0)
(0 -0.00029028 0)
(0 -0.000303313 0)
(0 -0.00048524 0)
(0 -0.000486045 0)
(0 -0.000291408 0)
(0 -0.00027823 0)
(0 -0.000273689 0)
(0 -0.000302933 0)
(0 -0.000474649 0)
(0 -0.000473757 0)
(0 -0.000292049 0)
(0 -0.000302753 0)
(0 -0.000463044 0)
(0 -0.000460169 0)
(0 -0.000463456 0)
(0 -0.000291956 0)
(0 -0.000301896 0)
(0 -0.00045066 0)
(0 -0.00044583 0)
(0 -0.000493617 0)
(0 -0.000482788 0)
(0 -0.000291139 0)
(0 -0.000300763 0)
(0 -0.000307215 0)
(0 -0.000301753 0)
(0 -0.000300288 0)
(0 -0.00029522 0)
(0 -0.000293617 0)
(0 -0.000288848 0)
(0 -0.000287092 0)
(0 -0.000282532 0)
(0 -0.000281065 0)
(0 -0.000276435 0)
(0 -0.000275826 0)
(0 -0.000270497 0)
(0 -0.000271559 0)
(0 -0.000268761 0)
(0 -0.000264944 0)
(0 -0.000267594 0)
(0 -0.000259464 0)
(0 -0.000262871 0)
(0 -0.0004372 0)
(0 -0.000430545 0)
(0 -0.000439997 0)
(0 -0.000422895 0)
(0 -0.000432224 0)
(0 -0.000413843 0)
(0 -0.000422705 0)
(0 -0.000403795 0)
(0 -0.000412304 0)
(0 -0.0003924 0)
(0 -0.000400312 0)
(0 -0.000379803 0)
(0 -0.000387427 0)
(0 -0.000366389 0)
(0 -0.000358804 0)
(0 -0.000345596 0)
(0 -0.000352563 0)
(0 -0.000331492 0)
(0 -0.000337858 0)
(0 -0.000316843 0)
(0 -0.000323144 0)
(0 -0.000302653 0)
(0 -0.000308942 0)
(0 -0.000288456 0)
(0 -0.000294582 0)
(0 -0.000274191 0)
(0 -0.000280329 0)
(0 -0.000259977 0)
(0 -0.00026625 0)
(0 -0.000246144 0)
(0 -0.000252727 0)
(0 -0.000232731 0)
(0 -0.000226589 0)
(0 -0.000213527 0)
(0 -0.000219688 0)
(0 -0.000200815 0)
(0 -0.00020706 0)
(0 -0.000188493 0)
(0 -0.000182758 0)
(0 -0.000170805 0)
(0 -0.000165558 0)
(0 -0.000176404 0)
(0 -0.000159229 0)
(0 -0.000164637 0)
(0 -0.000148109 0)
(0 -0.000153484 0)
(0 -0.000137476 0)
(0 -0.000142805 0)
(0 -0.000127564 0)
(0 -0.000117981 0)
(0 -0.000113842 0)
(0 -0.000282546 0)
(0 -0.000134738 0)
(0 -0.000115076 0)
(0 -0.000128355 0)
(0 -0.000149347 0)
(0 -0.000142997 0)
(0 -0.000122571 0)
(0 -0.000137446 0)
(0 -0.000117662 0)
(0 -0.000132888 0)
(0 -0.000113436 0)
(0 -0.000129285 0)
(0 -0.000110403 0)
(0 -0.000126729 0)
(0 -0.000108563 0)
(0 -0.00012449 0)
(0 -0.000107551 0)
(0 -0.000147938 0)
(0 -0.000122848 0)
(0 -0.000107041 0)
(0 -0.000122304 0)
(0 -0.000106352 0)
(0 -0.000122737 0)
(0 -0.000107055 0)
(0 -0.000124227 0)
(0 -0.000109094 0)
(0 -0.00014159 0)
(0 -0.000126486 0)
(0 -0.00011151 0)
(0 -0.000129624 0)
(0 -0.000115057 0)
(0 -0.000133748 0)
(0 -0.000119591 0)
(0 -0.00013861 0)
(0 -0.000124882 0)
(0 -0.000106651 0)
(0 -0.000112679 0)
(0 -9.5642e-05 0)
(0 -0.000101629 0)
(0 -8.42753e-05 0)
(0 -9.24341e-05 0)
(0 -7.85811e-05 0)
(0 -8.61128e-05 0)
(0 -7.28036e-05 0)
(0 -8.00691e-05 0)
(0 -6.52668e-05 0)
(0 -7.39489e-05 0)
(0 -6.1562e-05 0)
(0 -6.91753e-05 0)
(0 -5.78952e-05 0)
(0 -6.5426e-05 0)
(0 -5.45759e-05 0)
(0 -6.21873e-05 0)
(0 -5.06075e-05 0)
(0 -5.94797e-05 0)
(0 -5.00857e-05 0)
(0 -5.84745e-05 0)
(0 -4.9372e-05 0)
(0 -5.78101e-05 0)
(0 -4.88603e-05 0)
(0 -5.69592e-05 0)
(0 -4.85471e-05 0)
(0 -5.6411e-05 0)
(0 -4.84965e-05 0)
(0 -5.62225e-05 0)
(0 -4.87726e-05 0)
(0 -5.66003e-05 0)
(0 -4.94119e-05 0)
(0 -6.64366e-05 0)
(0 -5.72989e-05 0)
(0 -5.04277e-05 0)
(0 -8.88819e-05 0)
(0 -5.84015e-05 0)
(0 -5.17847e-05 0)
(0 -4.42729e-05 0)
(0 -4.59045e-05 0)
(0 -5.97813e-05 0)
(0 -3.88085e-05 0)
(0 -4.07368e-05 0)
(0 -0.000165304 0)
(0 -3.39632e-05 0)
(0 -3.6068e-05 0)
(0 -0.000130394 0)
(0 -0.000153984 0)
(0 -6.42879e-05 0)
(0 -4.1144e-05 0)
(0 -2.95399e-05 0)
(0 -3.1267e-05 0)
(0 -9.44027e-05 0)
(0 -3.88656e-05 0)
(0 -3.5253e-05 0)
(0 -4.23301e-05 0)
(0 -3.86489e-05 0)
(0 -3.20003e-05 0)
(0 -3.54048e-05 0)
(0 -2.89442e-05 0)
(0 -3.27759e-05 0)
(0 -9.00543e-05 0)
(0 -2.65543e-05 0)
(0 -3.08338e-05 0)
(0 -2.47393e-05 0)
(0 -2.93016e-05 0)
(0 -2.28e-05 0)
(0 -2.81067e-05 0)
(0 -2.26483e-05 0)
(0 -2.78536e-05 0)
(0 -2.2791e-05 0)
(0 -2.8567e-05 0)
(0 -2.23311e-05 0)
(0 -2.96766e-05 0)
(0 -3.47614e-05 0)
(0 -6.71834e-05 0)
(0 -4.23962e-05 0)
(0 -2.43716e-05 0)
(0 -3.1496e-05 0)
(0 -3.71707e-05 0)
(0 -3.94608e-05 0)
(0 -4.52381e-05 0)
(0 -4.82972e-05 0)
(0 -0.000337066 0)
(0 -4.46929e-05 0)
(0 -5.39553e-05 0)
(0 -5.8045e-05 0)
(0 -0.00027321 0)
(0 -2.05749e-05 0)
(0 -2.66281e-05 0)
(0 -6.44343e-05 0)
(0 -6.89653e-05 0)
(0 -0.00040519 0)
(0 -0.000329124 0)
(0 -7.64956e-05 0)
(0 -8.09896e-05 0)
(0 -0.000252789 0)
(0 -0.000255479 0)
(0 -0.000289491 0)
(0 -0.000299535 0)
(0 -0.000278026 0)
(0 -8.90678e-05 0)
(0 -8.5568e-05 0)
(0 -9.39365e-05 0)
(0 -0.000479704 0)
(0 -0.000469035 0)
(0 -6.20676e-05 0)
(0 -0.000245281 0)
(0 -0.000248744 0)
(0 -0.000241205 0)
(0 -1.79848e-05 0)
(0 -0.000102357 0)
(0 -0.000107663 0)
(0 -0.000237775 0)
(0 -0.000241954 0)
(0 -0.000287344 0)
(0 -0.00029854 0)
(0 -0.00034013 0)
(0 -2.01216e-05 0)
(0 -2.2524e-05 0)
(0 -0.000462826 0)
(0 -0.000452491 0)
(0 -0.000346088 0)
(0 -1.64111e-05 0)
(0 -1.88372e-05 0)
(0 -1.3235e-05 0)
(0 -1.56259e-05 0)
(0 -1.07549e-05 0)
(0 -1.31178e-05 0)
(0 -8.6377e-06 0)
(0 -1.11064e-05 0)
(0 -1.59646e-05 0)
(0 -1.41725e-05 0)
(0 -1.94929e-05 0)
(0 -1.7866e-05 0)
(0 -1.26984e-05 0)
(0 -2.37562e-05 0)
(0 -1.65212e-05 0)
(0 -1.16347e-05 0)
(0 -1.54316e-05 0)
(0 -1.10104e-05 0)
(0 -6.62879e-06 0)
(0 -1.46606e-05 0)
(0 -1.05498e-05 0)
(0 -1.42686e-05 0)
(0 -1.02841e-05 0)
(0 -1.47644e-05 0)
(0 -1.01474e-05 0)
(0 -0.000116084 0)
(0 -0.000122439 0)
(0 -0.000230508 0)
(0 -0.000235742 0)
(0 -0.000246771 0)
(0 -0.000242296 0)
(0 -0.000285274 0)
(0 -0.000297467 0)
(0 -0.000349182 0)
(0 -0.000355405 0)
(0 -6.70005e-06 0)
(0 -6.67278e-06 0)
(0 -1.00885e-05 0)
(0 -6.80728e-06 0)
(0 -0.000230203 0)
(0 -0.000238536 0)
(0 -0.000251329 0)
(0 -0.000249403 0)
(0 -0.00026318 0)
(0 -0.000265291 0)
(0 -0.000278061 0)
(0 -0.000281758 0)
(0 -0.000268256 0)
(0 -0.000285776 0)
(0 -0.0003002 0)
(0 -0.000305598 0)
(0 -0.000319141 0)
(0 -0.000325645 0)
(0 -0.000311014 0)
(0 -0.000331424 0)
(0 -0.000345223 0)
(0 -0.000351143 0)
(0 -0.00036416 0)
(0 -0.000369932 0)
(0 -0.000382864 0)
(0 -0.000388493 0)
(0 -0.000401854 0)
(0 -0.000407701 0)
(0 -0.000392378 0)
(0 -0.000412105 0)
(0 -0.000428003 0)
(0 -0.000433706 0)
(0 -0.000449712 0)
(0 -0.000457383 0)
(0 -0.000472967 0)
(0 -0.000315842 0)
(0 -0.000462829 0)
(0 -0.000130461 0)
(0 -0.000138159 0)
(0 -0.000272153 0)
(0 -7.37111e-06 0)
(0 -0.000442861 0)
(0 -0.000433384 0)
(0 -0.000442362 0)
(0 -0.000423598 0)
(0 -0.000431549 0)
(0 -0.00041301 0)
(0 -0.000421035 0)
(0 -0.00040238 0)
(0 -0.00041071 0)
(0 -0.000392133 0)
(0 -0.000408018 0)
(0 -0.000225762 0)
(0 -1.84898e-05 0)
(0 -0.00014551 0)
(0 -0.000154283 0)
(0 -1.03729e-05 0)
(0 -7.12219e-06 0)
(0 -0.000161298 0)
(0 -0.000170889 0)
(0 -0.000177751 0)
(0 -3.71144e-06 0)
(0 -0.000188014 0)
(0 -0.000194834 0)
(0 -0.00028287 0)
(0 -0.00027614 0)
(0 -0.000262972 0)
(0 -0.000259167 0)
(0 -0.000245511 0)
(0 -0.000240208 0)
(0 -0.000226496 0)
(0 -0.000220295 0)
(0 -0.00020687 0)
(0 -0.000213157 0)
(0 -0.000193647 0)
(0 -0.000200072 0)
(0 -0.000179707 0)
(0 -0.000185787 0)
(0 -0.000200499 0)
(0 -0.000213342 0)
(0 -0.000359237 0)
(0 -0.000365347 0)
(0 -0.000394924 0)
(0 -0.000399789 0)
(0 -0.000381352 0)
(0 -0.000269557 0)
(0 -0.000272131 0)
(0 -0.000125642 0)
(0 -2.77074e-05 0)
(0 -0.000205556 0)
(0 -0.000375159 0)
(0 -0.000164385 0)
(0 -0.000169174 0)
(0 -0.000222331 0)
(0 -0.000420145 0)
(0 -0.000390853 0)
(0 -0.000378555 0)
(0 -9.86853e-05 0)
(0 -0.000147176 0)
(0 -1.08871e-05 0)
(0 -7.70348e-06 0)
(0 -4.13706e-06 0)
(0 -5.10799e-06 0)
(0 -8.38594e-06 0)
(0 -6.69439e-05 0)
(0 -6.81386e-05 0)
(0 -7.59923e-05 0)
(0 -7.7016e-05 0)
(0 -8.54781e-05 0)
(0 -8.6545e-05 0)
(0 -9.55123e-05 0)
(0 -9.66026e-05 0)
(0 -0.000106122 0)
(0 -0.00010731 0)
(0 -0.000117228 0)
(0 -0.000116503 0)
(0 -0.000118755 0)
(0 -0.000109257 0)
(0 -0.000127918 0)
(0 -0.000127943 0)
(0 -0.000121683 0)
(0 -0.000112153 0)
(0 -0.000139626 0)
(0 -0.000140502 0)
(0 -0.000124873 0)
(0 -0.000115579 0)
(0 -0.000280567 0)
(0 -0.000277478 0)
(0 -1.45061e-05 0)
(0 -0.000212493 0)
(0 -0.000223362 0)
(0 -0.000193705 0)
(0 -0.000205694 0)
(0 -0.000369949 0)
(0 -0.00036136 0)
(0 -0.000375294 0)
(0 -0.000283917 0)
(0 -0.000147525 0)
(0 -0.000150855 0)
(0 -0.000265734 0)
(0 -0.000251586 0)
(0 -0.000429068 0)
(0 -0.000152423 0)
(0 -0.000153875 0)
(0 -0.000230189 0)
(0 -0.000241382 0)
(0 -0.000128028 0)
(0 -0.000119715 0)
(0 -0.000186173 0)
(0 -0.000197345 0)
(0 -0.00012995 0)
(0 -0.000132311 0)
(0 -0.000388281 0)
(0 -0.000404041 0)
(0 -0.000369885 0)
(0 -0.000360197 0)
(0 -0.000402948 0)
(0 -0.000380594 0)
(0 -0.000206991 0)
(0 -0.000348352 0)
(0 -0.000392226 0)
(0 -0.000247506 0)
(0 -0.000259301 0)
(0 -0.000272377 0)
(0 -2.22453e-06 0)
(0 -5.39151e-06 0)
(0 -3.31476e-06 0)
(0 -6.94405e-06 0)
(0 -4.71508e-06 0)
(0 -9.58349e-06 0)
(0 -6.43029e-06 0)
(0 -1.09354e-05 0)
(0 -8.2185e-06 0)
(0 -4.30527e-06 0)
(0 -6.11609e-06 0)
(0 -1.03407e-05 0)
(0 -8.18221e-06 0)
(0 -4.36784e-06 0)
(0 -6.32164e-06 0)
(0 -2.83312e-06 0)
(0 -4.68412e-06 0)
(0 -8.59025e-06 0)
(0 -6.95773e-06 0)
(0 -3.31009e-06 0)
(0 -5.56651e-06 0)
(0 -9.58762e-06 0)
(0 -8.10763e-06 0)
(0 -4.38746e-06 0)
(0 -6.85452e-06 0)
(0 -3.448e-06 0)
(0 -5.82915e-06 0)
(0 -2.72853e-06 0)
(0 -5.13705e-06 0)
(0 -2.21241e-06 0)
(0 -4.75667e-06 0)
(0 -1.90831e-06 0)
(0 -4.61901e-06 0)
(0 -1.86356e-06 0)
(0 -4.65755e-06 0)
(0 -1.66909e-06 0)
(0 -4.94326e-06 0)
(0 -2.51158e-06 0)
(0 -7.94788e-06 0)
(0 -5.62486e-06 0)
(0 -3.35247e-06 0)
(0 -6.5732e-06 0)
(0 -4.35706e-06 0)
(0 -1.26034e-05 0)
(0 -8.09545e-06 0)
(0 -1.11472e-05 0)
(0 -1.52431e-06 0)
(0 -2.55829e-06 0)
(0 -9.36503e-08 0)
(0 -1.15747e-06 0)
(0 1.01588e-06 0)
(0 6.16266e-09 0)
(0 1.90341e-06 0)
(0 9.12721e-07 0)
(0 2.71322e-06 0)
(0 1.56567e-06 0)
(0 2.92785e-06 0)
(0 2.00331e-06 0)
(0 3.23979e-06 0)
(0 2.32597e-06 0)
(0 3.49335e-06 0)
(0 2.58017e-06 0)
(0 3.68934e-06 0)
(0 2.78332e-06 0)
(0 3.84274e-06 0)
(0 2.98153e-06 0)
(0 3.97196e-06 0)
(0 3.10702e-06 0)
(0 4.04519e-06 0)
(0 3.19372e-06 0)
(0 4.06129e-06 0)
(0 3.2342e-06 0)
(0 4.07745e-06 0)
(0 3.25873e-06 0)
(0 4.2375e-06 0)
(0 3.31747e-06 0)
(0 4.11837e-06 0)
(0 2.23882e-06 0)
(0 3.27236e-06 0)
(0 4.02949e-06 0)
(0 3.12858e-06 0)
(0 3.93455e-06 0)
(0 1.25518e-06 0)
(0 2.98357e-06 0)
(0 3.80279e-06 0)
(0 -3.75454e-07 0)
(0 2.80662e-06 0)
(0 3.61291e-06 0)
(0 2.14562e-06 0)
(0 2.59359e-06 0)
(0 3.41703e-06 0)
(0 -3.90227e-06 0)
(0 1.57264e-06 0)
(0 2.30723e-06 0)
(0 3.17167e-06 0)
(0 4.44096e-06 0)
(0 -0.000264491 0)
(0 -0.000277072 0)
(0 -0.000284905 0)
(0 -0.000280462 0)
(0 -5.06053e-07 0)
(0 1.92892e-06 0)
(0 2.81881e-06 0)
(0 -0.000177839 0)
(0 -0.00018766 0)
(0 -0.000113255 0)
(0 -0.000335853 0)
(0 -0.000323524 0)
(0 4.85254e-06 0)
(0 -0.000142412 0)
(0 -0.000166861 0)
(0 3.91605e-06 0)
(0 3.59322e-06 0)
(0 -7.69271e-07 0)
(0 4.76507e-06 0)
(0 -0.000246371 0)
(0 -0.000232272 0)
(0 -0.000310029 0)
(0 -0.000484976 0)
(0 -0.000166055 0)
(0 -0.000167955 0)
(0 -0.000155647 0)
(0 -0.000170404 0)
(0 -0.000157972 0)
(0 -0.000173464 0)
(0 -0.000161067 0)
(0 -0.000177402 0)
(0 -0.000165099 0)
(0 -0.000182372 0)
(0 -0.000169949 0)
(0 -0.000188089 0)
(0 -0.000200502 0)
(0 -0.000206669 0)
(0 -0.000194921 0)
(0 -0.000216521 0)
(0 -0.000202762 0)
(0 -0.000223287 0)
(0 -0.000211512 0)
(0 -0.000233243 0)
(0 -0.000221713 0)
(0 -0.000244093 0)
(0 -0.000233269 0)
(0 -0.000257126 0)
(0 -0.000246297 0)
(0 -0.000272185 0)
(0 -0.000261032 0)
(0 -0.000289151 0)
(0 -0.000278926 0)
(0 -0.000308273 0)
(0 -0.000297696 0)
(0 -0.000219185 0)
(0 -0.000280844 0)
(0 -0.000132329 0)
(0 -0.000124822 0)
(0 -0.000241646 0)
(0 -0.000411374 0)
(0 -0.000115128 0)
(0 -0.000132693 0)
(0 -0.000289021 0)
(0 -0.000281255 0)
(0 -0.000294299 0)
(0 -0.000199011 0)
(0 -0.000164464 0)
(0 -0.000359564 0)
(0 -9.84551e-05 0)
(0 -0.000382237 0)
(0 -0.000138208 0)
(0 2.84395e-07 0)
(0 4.56324e-06 0)
(0 -0.000245993 0)
(0 -2.38339e-05 0)
(0 -2.20172e-05 0)
(0 -0.000167985 0)
(0 -0.000176207 0)
(0 2.37224e-06 0)
(0 3.17827e-06 0)
(0 -0.000102971 0)
(0 -0.000186286 0)
(0 -0.000308535 0)
(0 -0.000296545 0)
(0 -0.000405586 0)
(0 -0.000393988 0)
(0 4.51543e-06 0)
(0 2.71137e-06 0)
(0 -0.000287137 0)
(0 -0.000282101 0)
(0 -0.000277029 0)
(0 -0.000293318 0)
(0 -0.000112278 0)
(0 -0.000118339 0)
(0 -0.00013076 0)
(0 -0.000124973 0)
(0 -0.000112932 0)
(0 -0.000120243 0)
(0 -0.000108642 0)
(0 -0.00011677 0)
(0 4.00679e-06 0)
(0 -0.000167273 0)
(0 -0.00017858 0)
(0 -0.000115653 0)
(0 -0.000131675 0)
(0 -0.000190474 0)
(0 -0.000225768 0)
(0 -0.000212373 0)
(0 -2.55036e-05 0)
(0 -3.04446e-05 0)
(0 -0.000105564 0)
(0 -0.000114579 0)
(0 -0.000361603 0)
(0 -0.00022133 0)
(0 -0.000156383 0)
(0 -0.000163991 0)
(0 -0.00031563 0)
(0 -0.000389712 0)
(0 -0.000183503 0)
(0 -0.000171568 0)
(0 -0.000151463 0)
(0 -0.000159695 0)
(0 1.77243e-06 0)
(0 2.58709e-06 0)
(0 -0.000358301 0)
(0 -0.000350954 0)
(0 -0.000295339 0)
(0 -0.000303442 0)
(0 -0.000278329 0)
(0 -0.000274408 0)
(0 -9.55232e-05 0)
(0 -0.000297812 0)
(0 -0.000310772 0)
(0 -0.000279457 0)
(0 -0.000268962 0)
(0 -0.00028935 0)
(0 -0.000176844 0)
(0 -0.000310421 0)
(0 -8.28581e-05 0)
(0 -1.88017e-05 0)
(0 -1.70065e-05 0)
(0 -0.000253612 0)
(0 -0.000218511 0)
(0 -0.00019934 0)
(0 -0.000137523 0)
(0 -0.000148755 0)
(0 -0.000521675 0)
(0 -0.000191359 0)
(0 -0.000253992 0)
(0 -0.000271686 0)
(0 -0.000191513 0)
(0 -0.000125899 0)
(0 -0.000124519 0)
(0 -0.000308384 0)
(0 -0.000324607 0)
(0 -0.00040516 0)
(0 -0.000394119 0)
(0 -7.79888e-05 0)
(0 -0.00053442 0)
(0 -0.000382863 0)
(0 -0.000383551 0)
(0 -0.000138225 0)
(0 -0.000147715 0)
(0 -0.000114879 0)
(0 -0.000305244 0)
(0 -0.000314432 0)
(0 -0.000191115 0)
(0 -0.000178708 0)
(0 -2.04504e-05 0)
(0 -1.55656e-05 0)
(0 -0.000324526 0)
(0 -0.000210372 0)
(0 -0.000416571 0)
(0 9.95768e-07 0)
(0 -4.20333e-08 0)
(0 1.82323e-06 0)
(0 3.27918e-06 0)
(0 -0.000364868 0)
(0 -0.000169415 0)
(0 -0.000158213 0)
(0 -0.000135506 0)
(0 -0.000146796 0)
(0 -0.000103565 0)
(0 -0.00041399 0)
(0 2.4837e-06 0)
(0 3.78809e-06 0)
(0 9.08418e-07 0)
(0 -0.000311898 0)
(0 -3.23857e-05 0)
(0 -3.79492e-05 0)
(0 -0.000324868 0)
(0 -0.000317535 0)
(0 -3.61757e-05 0)
(0 -4.42489e-05 0)
(0 -4.2744e-05 0)
(0 -5.13996e-05 0)
(0 -5.31328e-05 0)
(0 -6.09357e-05 0)
(0 -6.27548e-05 0)
(0 -7.13865e-05 0)
(0 -5.01134e-05 0)
(0 -7.30563e-05 0)
(0 -8.26191e-05 0)
(0 -8.42415e-05 0)
(0 -9.4578e-05 0)
(0 -9.64135e-05 0)
(0 -0.000106913 0)
(0 -0.000109544 0)
(0 -0.000121614 0)
(0 -0.000396743 0)
(0 -0.000123379 0)
(0 -0.000135423 0)
(0 2.83271e-06 0)
(0 4.16541e-06 0)
(0 4.78176e-06 0)
(0 5.05412e-06 0)
(0 4.46876e-06 0)
(0 5.24622e-06 0)
(0 4.61127e-06 0)
(0 5.3311e-06 0)
(0 4.63975e-06 0)
(0 5.31991e-06 0)
(0 4.57021e-06 0)
(0 5.20564e-06 0)
(0 4.38881e-06 0)
(0 4.99076e-06 0)
(0 4.09193e-06 0)
(0 4.70239e-06 0)
(0 5.48437e-06 0)
(0 -8.12979e-05 0)
(0 -0.000249833 0)
(0 -0.000240991 0)
(0 -7.92932e-05 0)
(0 -0.000274886 0)
(0 -0.000313802 0)
(0 -0.000123533 0)
(0 -0.000136404 0)
(0 -1.42047e-05 0)
(0 -0.000292909 0)
(0 -0.000135988 0)
(0 -0.00013524 0)
(0 -0.000189677 0)
(0 -0.000205187 0)
(0 -0.000275192 0)
(0 -0.000272447 0)
(0 -9.46781e-05 0)
(0 -1.92683e-05 0)
(0 -1.44562e-05 0)
(0 -0.000217068 0)
(0 -6.81755e-05 0)
(0 -7.1529e-05 0)
(0 -0.000255511 0)
(0 -0.000264276 0)
(0 -5.03495e-05 0)
(0 -0.000138296 0)
(0 -0.000151738 0)
(0 -0.000154022 0)
(0 -0.000168078 0)
(0 -9.27959e-05 0)
(0 -0.000259877 0)
(0 -0.000323474 0)
(0 -0.000339626 0)
(0 3.71235e-06 0)
(0 4.34928e-06 0)
(0 5.18255e-06 0)
(0 4.84171e-06 0)
(0 5.53485e-06 0)
(0 5.20901e-06 0)
(0 2.91348e-06 0)
(0 5.81451e-06 0)
(0 5.49334e-06 0)
(0 -0.00049508 0)
(0 -0.00016838 0)
(0 -0.000156759 0)
(0 -0.00031563 0)
(0 -0.000325732 0)
(0 -0.000205329 0)
(0 -0.000301714 0)
(0 -0.000181602 0)
(0 -0.000309794 0)
(0 -0.000424308 0)
(0 -0.000419595 0)
(0 -1.80721e-05 0)
(0 -1.36352e-05 0)
(0 4.8658e-06 0)
(0 5.18478e-06 0)
(0 5.70758e-06 0)
(0 5.447e-06 0)
(0 4.82991e-06 0)
(0 5.10068e-06 0)
(0 5.72486e-06 0)
(0 5.36236e-06 0)
(0 -0.000441631 0)
(0 -0.000226435 0)
(0 -0.000237784 0)
(0 -0.000274412 0)
(0 -0.0002505 0)
(0 -0.000213307 0)
(0 -0.000227148 0)
(0 4.62991e-06 0)
(0 4.91384e-06 0)
(0 5.57155e-06 0)
(0 5.17089e-06 0)
(0 -0.000308802 0)
(0 -0.00032407 0)
(0 -1.68958e-05 0)
(0 -1.29224e-05 0)
(0 -1.60779e-05 0)
(0 -1.22168e-05 0)
(0 -1.54473e-05 0)
(0 -1.15861e-05 0)
(0 -1.50084e-05 0)
(0 -1.1242e-05 0)
(0 -1.48014e-05 0)
(0 -1.0226e-05 0)
(0 -0.000170466 0)
(0 -0.00018539 0)
(0 -0.00028979 0)
(0 -0.000282507 0)
(0 -5.78833e-05 0)
(0 -6.13157e-05 0)
(0 -0.000494838 0)
(0 3.15394e-06 0)
(0 4.34743e-06 0)
(0 4.64634e-06 0)
(0 5.39304e-06 0)
(0 4.90653e-06 0)
(0 5.56379e-06 0)
(0 5.10317e-06 0)
(0 -0.00028368 0)
(0 -8.39586e-05 0)
(0 5.82783e-06 0)
(0 -4.86283e-05 0)
(0 -0.000316935 0)
(0 -0.000278627 0)
(0 -0.000274912 0)
(0 -0.000496105 0)
(0 -0.000475752 0)
(0 -0.000111418 0)
(0 -0.0001246 0)
(0 -0.000147574 0)
(0 -0.000138268 0)
(0 3.72689e-06 0)
(0 -0.000207774 0)
(0 -0.000384718 0)
(0 -0.000187302 0)
(0 -0.000473512 0)
(0 -0.00045496 0)
(0 -0.000457257 0)
(0 -0.00043746 0)
(0 -0.000440334 0)
(0 -0.00042117 0)
(0 -0.000424057 0)
(0 -0.000405895 0)
(0 -0.000402112 0)
(0 -0.000408353 0)
(0 -0.000392039 0)
(0 -8.22606e-05 0)
(0 -9.1865e-05 0)
(0 -8.46585e-05 0)
(0 5.66863e-06 0)
(0 -0.000500057 0)
(0 -0.000113506 0)
(0 -0.000127757 0)
(0 -0.000259811 0)
(0 -5.17442e-05 0)
(0 -1.10214e-05 0)
(0 -1.47339e-05 0)
(0 -6.43003e-05 0)
(0 -7.49499e-05 0)
(0 -0.000189178 0)
(0 -0.000202976 0)
(0 -0.000151041 0)
(0 -0.000141496 0)
(0 -0.000146789 0)
(0 -0.000146736 0)
(0 -0.000135549 0)
(0 -0.000147904 0)
(0 -0.00014804 0)
(0 -0.000394341 0)
(0 -0.000203023 0)
(0 -0.000204046 0)
(0 -1.09602e-05 0)
(0 -0.000219694 0)
(0 -0.000212456 0)
(0 -0.000515939 0)
(0 -8.58997e-05 0)
(0 -0.000428796 0)
(0 -0.000422384 0)
(0 -8.83828e-05 0)
(0 -0.000325403 0)
(0 -0.000132831 0)
(0 5.84566e-06 0)
(0 4.68156e-06 0)
(0 -0.000203128 0)
(0 -0.000219611 0)
(0 -0.000188417 0)
(0 -0.000116829 0)
(0 -0.000130381 0)
(0 -9.93817e-05 0)
(0 -1.11114e-05 0)
(0 -0.00030638 0)
(0 -0.000234111 0)
(0 -0.000206499 0)
(0 -0.000371758 0)
(0 -0.000404695 0)
(0 -0.000309251 0)
(0 1.89651e-07 0)
(0 -0.000207845 0)
(0 -0.000153721 0)
(0 -0.000142571 0)
(0 -0.000118758 0)
(0 -0.000130572 0)
(0 -1.29267e-06 0)
(0 -8.67108e-05 0)
(0 -5.08054e-05 0)
(0 -9.36302e-05 0)
(0 -0.000143088 0)
(0 -0.000253022 0)
(0 -0.000259466 0)
(0 -0.000244788 0)
(0 -0.000273776 0)
(0 -0.00023603 0)
(0 5.87226e-06 0)
(0 -0.000236 0)
(0 -0.00032252 0)
(0 -0.000322882 0)
(0 -0.000436972 0)
(0 -0.000422012 0)
(0 -0.000428805 0)
(0 -0.000414198 0)
(0 -0.000104162 0)
(0 -0.000442337 0)
(0 -8.45492e-06 0)
(0 -1.89621e-05 0)
(0 -1.91e-05 0)
(0 -1.48778e-05 0)
(0 -1.9455e-05 0)
(0 -0.000165034 0)
(0 -0.000178526 0)
(0 -0.000215347 0)
(0 -0.000190209 0)
(0 -0.000223346 0)
(0 -0.000198598 0)
(0 -0.000166445 0)
(0 -0.000175665 0)
(0 -0.000145783 0)
(0 -0.00020388 0)
(0 -0.000220456 0)
(0 -0.000221117 0)
(0 -7.74184e-06 0)
(0 -1.03739e-05 0)
(0 -1.18106e-05 0)
(0 -1.49632e-05 0)
(0 -1.66413e-05 0)
(0 -2.03289e-05 0)
(0 -2.20165e-05 0)
(0 -1.87853e-05 0)
(0 -2.47675e-05 0)
(0 -2.33943e-05 0)
(0 -2.99038e-05 0)
(0 -2.90534e-05 0)
(0 -3.72399e-05 0)
(0 -3.56853e-05 0)
(0 -9.57534e-05 0)
(0 -2.84017e-05 0)
(0 -3.53894e-05 0)
(0 -1.52848e-05 0)
(0 -2.00914e-05 0)
(0 -0.000427495 0)
(0 5.95125e-06 0)
(0 -0.000254262 0)
(0 -0.000305557 0)
(0 -0.000341476 0)
(0 -0.000306784 0)
(0 -2.95403e-05 0)
(0 -0.000297046 0)
(0 -0.000360724 0)
(0 -2.83426e-05 0)
(0 -3.56199e-05 0)
(0 -0.000383622 0)
(0 -0.000129643 0)
(0 -0.000112486 0)
(0 -0.000148152 0)
(0 -0.000190474 0)
(0 -0.000202102 0)
(0 -0.000210064 0)
(0 -1.65009e-05 0)
(0 -1.17929e-05 0)
(0 -4.03638e-05 0)
(0 -1.30949e-07 0)
(0 1.09783e-06 0)
(0 1.89291e-06 0)
(0 2.88149e-06 0)
(0 3.45146e-06 0)
(0 4.16919e-06 0)
(0 4.60374e-06 0)
(0 5.12227e-06 0)
(0 4.69177e-06 0)
(0 5.41049e-06 0)
(0 4.94958e-06 0)
(0 5.63793e-06 0)
(0 5.22995e-06 0)
(0 5.81766e-06 0)
(0 5.44546e-06 0)
(0 5.54024e-06 0)
(0 5.29758e-06 0)
(0 2.37615e-06 0)
(0 5.98483e-06 0)
(0 5.95589e-06 0)
(0 5.61084e-06 0)
(0 -1.27976e-05 0)
(0 -0.000259942 0)
(0 -0.000280889 0)
(0 -0.000225195 0)
(0 -0.000215681 0)
(0 -0.000231347 0)
(0 5.20536e-06 0)
(0 5.75153e-06 0)
(0 2.46471e-06 0)
(0 -0.000257579 0)
(0 -0.000105168 0)
(0 -0.000241512 0)
(0 -0.000180526 0)
(0 -0.00015593 0)
(0 -0.000167729 0)
(0 -0.00018222 0)
(0 -0.000299841 0)
(0 -0.00010811 0)