/*--------------------------------*- C++ -*----------------------------------*\
| =========                 |                                                 |
| \\      /  F ield         | OpenFOAM: The Open Source CFD Toolbox           |
|  \\    /   O peration     | Version:  v2012                                 |
|   \\  /    A nd           | Website:  www.openfoam.com                      |
|    \\/     M anipulation  |                                                 |
\*---------------------------------------------------------------------------*/
FoamFile
{
    version     2.0;
    format      ascii;
    class       volScalarField;
    location    "300";
    object      ddt0(omega);
}
// * * * * * * * * * * * * * * * * * * * * * * * * * * * * * * * * * * * * * //

dimensions      [0 0 -2 0 0 0 0];


internalField   nonuniform List<scalar> 
10042
(
-1.4283e-05
-4.59511e-06
-5.59446e-05
-2.51973e-05
-0.196297
-2.5624e-05
-0.443356
1.47038
1.91942e-05
-2.40757e-05
-0.220749
-1.57073e-05
-3.01561e-05
-6.31914e-05
1.52738e-05
2.99898e-05
2.52583e-05
-9.57589e-06
-9.51897e-06
0.000553746
6.81109e-05
-0.00661611
-4.76062e-05
-8.33098e-05
-7.32064e-06
0.00029696
1.68883e-05
-3.61289e-06
2.6957e-05
-1.36816e-05
-3.74701e-06
-0.0464139
-4.64661e-05
4.56848e-06
3.72832e-05
-8.84802e-05
0.000244405
0.000597228
-1.59274e-05
-3.67845e-05
0.00257186
-1.2452e-05
-0.540018
-4.88673e-05
-0.184101
-0.000195973
-3.06345e-05
-0.000101947
0.000164486
0.00146035
3.24418e-06
-3.24506e-05
-2.81197e-05
5.07651e-05
0.000248013
-1.82278e-07
2.85717e-05
-3.66588e-05
-6.07389e-06
-4.70584e-05
1.7085e-06
2.21593e-05
3.75919e-05
-5.24241e-05
1.83672e-06
-8.81552e-06
-1.82612e-05
-0.000426175
-0.481151
-9.37989e-07
4.74438e-05
-0.011163
-4.64631e-05
4.74435e-06
-5.04507e-05
-0.000135552
-0.214331
-7.08455e-06
-1.87801e-05
-0.574215
0.00017565
-0.182422
-4.60553e-05
9.42034e-06
-2.48677e-05
-8.48322e-06
-4.62909e-05
-0.0055572
-6.31106e-05
-2.18841e-05
1.71328e-06
-0.179089
-2.83186e-06
-2.358e-05
-1.75489e-05
1.92535e-06
-4.00199e-06
-3.1357e-06
-6.02419e-05
2.66524e-05
6.43719e-09
-0.00887661
2.06347
-3.2881e-05
6.67329e-06
-0.00107031
-5.23498e-05
-8.7959e-06
5.65648e-05
-2.12373e-05
-8.51082e-06
1.24913e-05
-8.40192e-06
-0.54683
-9.23855e-07
1.39359e-05
-9.16633e-06
-7.37523e-06
5.57275e-06
0.15837
-7.13351e-05
1.27193
-2.20959e-05
3.17496e-06
-0.00550528
-3.07894e-05
1.11047
8.28503e-05
-0.000419114
-1.53829e-06
-2.6707e-05
-1.03816e-05
-0.158588
-0.00352182
2.11641e-05
-0.0010763
-0.0444462
-2.7379e-05
-0.000425505
-0.0395093
-1.15533e-05
-9.00204e-06
-1.60556e-05
-0.00725353
-6.22017e-05
4.49069e-06
-0.00102579
-1.13767e-05
1.34881e-05
1.26966e-05
-7.18814e-07
-1.32262e-05
-0.485471
-0.0129404
6.74359e-05
-4.99124e-05
-1.38175e-05
2.70963e-05
-0.00111723
-0.163683
-0.333588
-0.00458527
-1.20438e-05
-6.487e-07
-4.74629e-05
-1.21204e-05
-0.000647247
0.176571
-0.0967564
0.0435291
9.20876e-06
-7.76861e-05
-0.173997
0.00832551
-0.000135872
-0.51885
-2.82435
-3.90971e-05
-0.000568335
-5.05192e-05
-1.43219e-05
0.173692
-4.9972e-05
6.70303e-05
-1.00533e-05
0.275076
-0.00516401
-4.19672e-06
-0.464875
7.68325e-05
0.2771
-3.23489e-05
-0.466811
-0.608738
-0.00226274
-0.0235822
0.000175488
-3.96639e-05
-5.02422e-05
1.74882e-05
-0.000108002
5.3063e-06
-1.80575e-05
0.0257513
-1.93024e-05
8.94185e-06
-0.307399
7.81519e-05
-2.11156e-05
-0.000112106
0.287204
2.2264e-06
-0.000479099
0.0594452
-1.55384e-05
-0.00479294
-4.96654e-05
-5.65936e-05
-0.00146876
-2.15394e-05
-1.813e-05
-7.34669e-06
-0.00284399
0.000641567
-2.41844e-05
0.000370166
-0.0708
1.48516e-05
-0.0062412
6.89456e-05
1.83139e-05
-0.0364529
-7.83606e-05
6.46706e-05
-7.62708e-05
9.37714e-06
3.40556e-05
-3.45691e-05
7.74097e-05
0.000426889
5.21224e-07
-3.5588e-05
-3.79105e-05
-2.09842e-05
5.01515e-05
-1.7762e-05
-5.45565e-05
1.0381e-05
1.24499e-05
-5.97424e-06
8.80678e-06
1.97698e-06
-2.93098e-05
-0.145546
-0.00426956
-0.544394
-0.000140636
-0.000116098
5.35591e-06
-0.000482568
-0.117238
4.90006e-05
-4.89067e-05
-3.51917e-05
6.97082e-06
2.28865e-05
-0.00488956
6.73231e-05
-2.49864e-05
-0.000118782
-0.000115751
3.87364e-05
-0.0140652
-0.000121297
-0.0115851
7.46248e-05
0.000418829
1.77658e-05
0.000113612
-5.42592e-05
-0.00010526
-5.87985e-05
0.000296851
-0.147279
-2.79473e-05
-3.31539e-05
0.00282547
-0.00028446
-4.19577e-05
-2.38631e-05
-1.68238e-05
-0.51578
-0.00068891
-0.00766716
-4.5633e-06
-4.48842e-05
1.24242e-05
1.40991e-05
-0.00386673
-1.44786e-05
3.60664e-05
-2.61328e-05
-4.14885e-05
0.000709612
4.7416e-06
-0.00177723
-0.382781
-5.5006e-05
-0.049432
7.89864e-05
0.000184993
1.52985e-05
-0.225357
-0.00185515
-0.108821
-2.25601
-0.000100202
6.83744e-05
2.29801e-07
-4.0691e-06
0.000361974
2.11438e-07
-9.3921e-05
1.62426e-06
-5.07809e-05
-4.29887e-05
-0.00187475
2.00231e-05
2.96141e-05
-3.30251e-05
-2.19224e-05
-1.14906
4.96472e-05
6.76211e-05
-3.28873e-05
-5.88067e-05
-0.00046042
-0.00211401
-8.71041e-05
0.859668
0.000751067
4.94484e-05
-3.24133e-05
-5.94514e-05
1.59175e-05
-1.34907e-05
0.14002
-5.14121e-05
1.67883e-06
0.000849723
-1.87679e-05
-2.07456e-05
2.01129e-05
0.000711727
-5.0345e-05
-2.9069e-05
-0.000170723
-8.33681e-05
4.41099e-06
-2.51959e-05
1.06866
-0.00101277
-5.52155e-07
-0.000424605
-8.43472e-05
-4.27161e-05
-6.28976e-05
-1.18473e-05
-0.085189
0.000198752
-1.47387e-05
-3.34836e-05
-1.11414e-09
2.05188e-05
-0.00230015
-2.8302e-05
3.89985e-05
-0.00837771
-3.00413e-05
0.770222
0.0846639
-7.40029e-08
-0.661715
-0.660659
-3.85925e-05
-0.0300211
5.94909e-05
0.00137828
-2.06055e-08
-3.28296e-05
0.023135
-1.16315e-05
1.47149e-06
-0.109739
-2.65415e-05
0.00010901
-0.000127663
-0.534322
1.6629e-05
-3.08663e-05
-0.0836506
-0.0027906
-0.000108563
-0.000391348
-1.20837
-6.1937e-06
-1.66609e-05
-2.86456e-06
3.84101e-05
-2.47274e-05
-3.56771e-05
0.33327
0.991249
-3.27612e-05
-0.318633
-1.16863e-05
-1.18196e-05
-0.0401358
-7.01678e-05
1.14297
-0.000984636
1.02131e-05
-5.48121e-05
-4.61836e-05
0.00464668
1.03572e-05
-2.86821e-05
-1.55449e-05
-0.219899
-1.55396e-05
-0.946967
-1.94922e-06
-3.74278e-05
1.33202e-05
0.0743538
-3.05797e-05
1.44023e-05
-5.21976e-06
-1.82063e-05
0.319813
0.000193266
1.82041e-05
-2.35573e-05
-0.156718
3.16162e-05
0.000179678
2.75144e-05
2.36656e-05
-0.233311
-0.554815
3.26675e-05
-2.16662e-06
0.000215171
1.95084e-05
4.6057e-05
3.27562e-06
-0.151646
-4.57312e-06
2.87932e-06
-1.45078e-07
1.86278
-0.000920036
-1.81073e-05
-0.000117278
0.565006
0.000886241
1.03342e-05
-2.54003e-05
-0.00276927
-2.10419e-05
-1.02046e-05
-2.18697e-05
-4.56943e-06
-5.63519e-05
-3.7427e-06
-3.43548e-05
0.00060918
-5.3861e-05
-3.28988e-05
-0.265039
-4.97508e-05
-2.02046e-05
-2.92141e-05
-3.66538e-05
-8.08613e-05
4.25196e-05
-3.11124e-05
-0.282376
-5.8619e-06
-0.580013
4.2106e-05
-4.11004e-06
6.89082e-06
-0.00509251
-9.46383e-05
-1.00962e-06
3.00896e-05
3.4009e-05
1.01715e-06
-0.535959
-1.41715e-06
-0.000305614
-0.0505519
0.000874254
-2.01861e-05
7.84726e-06
-6.30655e-05
-1.13347e-05
6.1292e-05
-0.0414687
-0.097687
-1.1864e-05
9.59776e-05
0.000497376
0.000497
-2.86499e-05
-2.27781e-05
0.140328
-0.00350433
-0.225327
-1.55224e-05
-5.71083e-05
-8.26694e-05
-5.45388e-05
-0.388855
-0.000112202
3.06081e-05
2.19233e-05
-1.36324e-05
-4.77663e-05
0.172043
0.000186093
-2.76712e-05
-0.173356
0.00382963
-0.00485194
-0.000985904
4.59937e-05
1.86448e-05
0.00173464
-0.000673835
-0.177094
0.0889793
-1.67684e-05
1.33427e-05
-1.45307e-05
4.85243e-05
-3.01785e-05
-2.67357e-05
-0.289094
-6.08295e-05
7.71153e-05
1.13611e-05
1.33616e-05
-0.107487
2.6502e-05
-0.00348756
-2.28173e-05
8.66326e-07
8.68705e-05
4.47622e-05
0.00163087
-0.00103817
-0.00132966
-6.21856e-05
0.00143622
-1.57719e-05
-6.95879e-06
-2.95944e-05
-8.15263e-06
8.87565e-06
-1.91162e-05
-0.00108039
-0.000103116
-3.38797e-05
-7.1102e-07
5.51653e-06
-2.41116e-05
0.0280746
2.92329e-05
3.44133e-05
0.00878808
-2.58397e-05
-0.000771412
0.00148974
-1.33835e-05
0.29164
0.000178774
3.27985e-05
-0.013107
-6.26341e-05
-2.33784e-05
-1.92501e-05
2.17268e-05
-3.06932e-09
4.60103e-05
-4.25694e-05
0.0650882
-4.81716e-06
2.56869e-05
2.01985e-05
-8.37673e-05
0.000232193
1.53713e-05
0.000190161
1.9277e-05
0.000646343
-9.57531e-06
-7.95067e-05
4.77171e-05
-8.0727e-06
-4.46282e-05
-5.43957e-05
-0.360288
-6.38698e-08
0.00794115
1.2793e-06
6.78511e-05
-1.66094e-05
0.000424439
-2.81787e-05
-1.01773e-05
-2.17827e-05
-0.00840871
-2.52724e-06
-0.322173
-7.36518e-06
-1.91482e-05
4.58666e-05
-4.99086e-05
-7.32283e-05
4.48106e-05
4.36802e-06
-0.00160796
-0.152133
-0.0207763
0.000145661
-0.000126181
-3.71104e-05
-9.95876e-05
-0.000281606
-1.25174e-05
-1.51789e-05
-0.00139074
-0.234205
0.00153915
-1.58928
5.04956e-05
-7.87011e-06
1.77619e-06
0.000190502
6.47587e-05
0.0013543
-0.000120274
-8.25873e-06
-0.00377756
-1.1895e-05
-1.10077e-05
0.000220669
-0.674875
-2.78466e-05
2.52326e-05
0.00172161
-2.68878e-05
-0.615477
-6.28341e-05
-6.35434e-05
3.63901e-06
-2.69013e-06
-0.202199
-0.000116525
-0.544126
1.7823e-05
-3.29468
0.489331
0.0230559
0.00129676
-0.000246314
-0.00604753
7.76173e-06
-5.44531e-05
1.82824e-05
-2.352e-05
-0.27031
-3.79979e-05
-2.54437e-05
-0.608724
-6.49998e-05
-4.84524e-05
-1.38654e-05
-1.59097e-05
-7.11715e-05
-5.06712e-05
-0.00367681
-0.0793902
-3.7212e-05
-5.88668e-05
-0.165642
-0.361478
-3.10726e-05
1.13716e-05
-1.333e-07
3.2381e-05
-0.0417389
-0.000104875
0.0107045
1.69583e-06
-7.11711e-05
2.25117e-05
-8.44025e-06
-3.28385e-07
0.000522179
-3.07869e-05
-0.461147
1.38386e-05
-5.56343e-05
2.69683e-05
1.36125e-05
0.00092496
-0.000566548
6.2429e-05
-1.64892
-0.418032
-2.05343e-05
6.21831e-05
-0.232763
-0.273681
-0.000200734
-7.17403e-05
1.91573
-0.00500237
-1.18366e-05
-5.41523e-05
-2.79414e-05
5.6787e-05
-0.0523057
0.000137945
0.00163086
-1.3713e-05
-0.913229
-0.091624
1.95378e-05
-1.44669e-05
-0.000783129
7.21289e-05
-1.82368e-05
-4.5066e-05
-0.241586
-0.234824
-0.29008
-2.89394e-05
-0.000565755
-0.000354048
-1.45299e-05
1.07966e-05
3.12582e-05
-0.00298548
-8.14609e-06
1.15276e-05
-0.0004239
-2.68284e-05
-0.000557421
2.45014e-05
7.45628e-05
-3.71166e-06
-3.60785e-05
-0.00307582
1.66325e-05
1.10137e-06
5.95788e-05
-0.000498856
0.0307882
4.10609e-05
-0.00336425
-0.281501
-0.573147
-7.8517e-07
-0.172659
0.543189
-6.87392e-05
-2.63284e-05
-1.18549e-05
-5.5258e-06
-0.132439
3.44064e-05
-1.13025e-05
-1.67461e-05
-0.375104
-1.32114e-05
-2.98084e-05
1.66529e-05
1.64177e-05
-0.000360563
-5.05477e-05
-5.53239e-05
0.000605076
-1.97791e-05
3.10176e-05
2.33179e-05
-0.0721684
-3.31657e-05
3.64183e-06
-1.12318e-05
-2.72985e-05
-0.00913959
2.08197e-05
-8.86946e-06
-7.878e-06
0.000187899
0.0284165
-2.90917e-09
0.0660106
6.94046e-06
-0.144963
-4.63251e-05
1.02568e-05
0.000612409
-0.00314207
-0.000177506
-2.80411e-05
0.152311
0.750636
5.38825e-06
-4.01779e-05
0.057492
3.56256e-05
-2.08116e-05
8.83031e-06
-9.07512e-06
-0.000519423
-6.49104e-10
-4.31428e-09
-0.000578178
-2.57722e-05
-5.24368e-05
-4.11629e-05
-1.23333e-05
-0.307097
8.64436e-05
0.0423619
3.97054e-05
3.54042e-05
-0.000128589
-0.517325
0.000131267
-0.350061
-7.75582e-07
0.000320472
-1.92459e-06
-7.74676e-06
-6.70138e-05
-0.00183547
-0.000102604
0.00156959
-0.375008
-1.69401e-05
-1.82539
0.000358924
1.40596e-05
-1.04504e-05
0.000132424
-0.376198
-5.37252e-06
-2.16785e-05
-0.000361372
3.61559e-05
-0.000119163
-1.81024e-05
-1.24092e-05
-1.31224e-05
-0.0951587
-9.58587e-05
-2.56602e-05
3.09132e-05
-5.6853e-05
-6.92815e-05
-5.85655e-06
-1.05252e-05
4.88943e-05
0.000103346
-1.69159e-05
-1.52041e-05
-4.56247e-05
-2.32898e-07
-0.18771
-1.22768e-05
6.34262
-0.000107282
-0.148985
-5.65872e-05
0.000286022
-0.115577
0.000176814
-0.0226096
-0.519446
-0.000281137
-1.34644e-05
-6.0821e-05
-1.3912e-05
-0.011583
7.57328e-07
-0.109545
4.80443e-07
-22.5924
-0.326243
0.0019271
2.03693e-05
0.169054
-1.04786
-6.84998e-06
1.96257e-05
7.15729e-05
0.000194156
-7.28206e-06
-1.29877e-06
-0.0010093
0.00761796
2.14328e-06
-6.92793e-06
-1.76406e-05
-0.0361645
0.00141308
-3.46316e-05
4.08698e-05
-0.00259082
-1.31833e-05
-2.06521e-05
-0.115586
-2.97785e-05
-3.04332e-05
-0.274792
-8.4278e-06
-4.30652e-05
0.00811169
-0.578355
0.375732
-4.41048e-05
-2.39946e-05
-0.000774819
8.60334e-06
2.31701e-05
2.2896e-05
0.000659068
5.04964e-05
3.36508e-05
8.41714e-05
-0.000117556
0.0115689
-3.64891e-05
-4.0846e-05
1.95769e-05
3.6698e-05
-1.31651e-05
1.48378e-05
-0.00582021
-5.47672e-05
-1.96133e-05
4.68165e-05
9.75685e-07
2.86201e-05
1.27788e-05
-0.225354
0.000343205
-2.66841e-05
-3.72349e-05
-9.22844e-05
-0.416019
5.11377e-06
2.66315e-05
-1.13795e-05
-4.67361e-05
-0.916316
0.00158323
-8.28467e-05
1.84606e-05
0.000121315
-0.00199979
-2.35754e-05
-2.70294e-05
-4.06756e-05
4.90064e-05
0.000228241
-2.67449e-05
-0.108335
-0.000100558
-2.34366e-05
3.47501e-05
-0.249175
-1.53815e-09
-0.00315791
-2.96968e-05
-0.00169891
-4.64248e-06
-5.46601e-05
0.000177701
9.35017e-05
-9.15767e-05
-2.57329e-05
5.96752e-05
5.75838e-05
-0.00219611
-0.00162206
1.22139
1.6545e-05
1.29187e-05
-4.59857e-05
-2.58737e-05
-5.06158e-05
-0.0297242
-2.56699e-05
-3.22807e-05
6.06342e-06
0.00985765
-0.345624
1.98018e-05
-5.75191e-05
-0.00177346
1.25399e-05
5.44947e-05
1.97904e-05
-0.00164139
-3.72252e-05
0.000229331
0.311653
-3.61471e-05
6.03327e-05
-0.283188
-5.69482e-05
-0.00320651
3.72441e-07
2.27287e-06
-0.000289146
-5.58286e-05
-2.60367e-05
-3.76071e-05
4.30715e-05
-0.989685
-3.98992e-05
-3.60141e-05
0.0181469
-2.90123e-05
-0.0380812
-0.399774
0.000138186
-5.69692e-06
-0.021925
-5.77313e-06
-0.107665
7.92733e-05
-4.16041e-05
-6.7946e-06
-0.179188
-8.95411e-06
-3.42017e-05
-2.39645e-05
0.000419016
-0.210062
-4.40238e-05
-0.000601506
-3.25321e-05
-1.76264e-05
-3.19882e-05
-2.32313e-05
-2.15467e-05
2.69449e-05
-1.17258e-05
-0.540783
-0.133146
-0.000120972
5.42392e-06
3.23601e-05
1.69868
-3.37828e-05
1.03702
2.78625e-06
-1.66336e-05
-9.35442e-05
1.30903e-05
9.2766e-05
1.27439e-05
5.5904e-05
-2.1439e-05
0.878846
-0.00188327
1.36868e-05
0.000162645
0.000167363
-0.000192039
-2.90383e-05
4.62949e-05
-2.70383e-05
-2.57791e-05
-4.68948e-06
0.000684638
1.31138e-05
1.14753e-05
1.36033e-06
2.62343e-05
-0.00504249
3.98837e-06
-0.0130585
-2.82006e-06
3.75901e-06
-4.87342e-05
0.00144478
-0.00041473
1.83766e-05
0.000169558
-0.00115988
-3.45378e-05
-1.2677e-05
2.45882e-05
-7.22766e-06
-0.207297
-0.0270733
-1.252e-05
-0.2491
1.28134e-05
0.000511627
-0.00275247
-0.000145617
0.000965956
-0.102195
0.000670262
-0.000993412
5.78068e-05
-2.71326e-05
-2.14068e-05
-1.05407e-05
0.000164404
-3.32315e-05
-0.00931467
-6.43374e-06
-5.5997e-05
-0.00143615
-1.87246e-05
4.49117e-05
0.000361529
1.15674e-05
-2.74068e-06
-0.00014711
0.00318311
-6.02183e-05
0.000421945
-0.0781361
-0.000202458
2.1906e-05
0.000674673
2.31468e-05
-9.04331e-06
-0.145295
-3.04019e-05
-3.71357e-05
-0.00043771
-1.68376e-05
0.000331988
-8.15986e-06
1.63668e-05
-0.626074
1.95706e-05
-3.29474e-05
2.35568e-05
-3.42893e-05
3.51959e-06
-9.35008e-06
-0.798274
-3.69445e-05
-5.6593e-05
-3.49286e-05
-0.000866161
4.96674e-06
-7.75693e-06
1.38436e-05
0.000260824
1.32307e-06
-8.32404e-05
1.74784e-05
5.28957e-05
-6.84102e-05
-0.00397512
-0.000219921
-9.34111e-05
-6.108e-06
-0.000378525
-0.00132971
-1.79736e-05
-8.6445e-06
-1.84623e-05
-0.571559
4.23252e-06
-5.82171e-05
4.30493e-05
-1.04552e-05
-9.04257e-05
4.79315e-06
-0.215599
-0.177971
1.30775
-2.02609e-05
4.0673e-05
-0.000172145
-5.73535e-05
-0.00107807
-0.00025838
-0.520578
5.52434e-05
-0.195128
-0.00131228
-0.00144988
-0.0811331
-5.89538e-05
4.82058e-05
-3.26612e-05
-9.76677e-06
-0.293026
9.86347e-06
-8.94911e-06
-4.02512e-05
-4.3046e-05
7.85671e-05
-0.364745
-0.407769
2.23325e-05
-0.0971451
-0.0416342
0.00385297
-0.000326374
-0.00197368
-4.35492e-05
-0.196199
-2.88974e-05
-0.116645
-0.202008
2.12588e-05
-4.53607e-05
-1.24915e-05
-1.62989e-05
0.000186833
-1.91692e-05
-0.00399174
-2.38465e-06
5.99582e-05
3.20103e-05
1.66429e-07
1.08352e-05
-3.22902e-05
-3.32185e-05
-2.48934e-05
0.00591496
-0.00117267
-5.11217e-06
-0.43065
5.29133e-05
3.15558e-05
-5.95102e-06
-0.0119049
-7.09115e-06
1.33195e-05
-0.00374626
-0.00327245
1.04316e-05
6.06751e-05
-0.0632103
-0.000667487
-0.211561
-3.35223e-05
-0.000850341
-0.455715
-0.324332
3.10384e-05
-5.91446e-05
2.43638e-05
-1.00437e-05
0.000159466
-2.16691e-05
-0.351017
-0.000436306
-0.00200013
-2.11132e-05
3.22138e-05
-0.12385
0.00638502
8.93403e-08
1.94816e-05
0.0277249
-4.99072e-06
-1.81596e-05
-2.64679e-05
4.41892e-05
3.96281e-05
-2.05161e-05
-5.00654e-05
0.00016112
2.33275e-06
0.000461444
-1.24006
-0.000773036
-2.82103e-05
-2.20972
-0.00169277
-1.18762e-05
-8.367e-06
1.02797e-05
2.26813e-06
-0.00421811
-1.34035e-05
-3.27503e-05
-2.38965e-05
2.03078e-05
3.81985e-05
-4.87443e-05
-6.10271e-05
-0.000277508
0.000178132
-1.12234e-05
-0.479088
-0.392853
-3.2758e-06
-0.545936
-3.28831e-06
-1.07606e-05
6.27502e-05
5.07572e-05
0.326165
-0.00168588
-5.08353e-05
1.12686e-05
2.58237e-05
3.21941e-05
-8.04727e-06
-0.000585403
5.36683e-05
-2.56074e-05
-5.54241e-05
-0.140501
0.00289332
-6.12446e-05
-3.67363e-05
0.0241334
-0.087217
-2.79822e-05
-0.592537
-0.388027
-6.80788e-06
-1.40552e-05
-1.99529e-05
-1.4846e-05
-0.113789
6.64242e-05
-1.51695e-05
-0.00838301
-0.00301838
-1.76613e-05
-1.06397e-05
-0.000204418
-2.30728e-05
-3.93128e-05
-0.00296244
-0.00146869
-0.0219844
1.33453e-05
0.00128765
-0.000185413
-0.000183435
7.38689e-06
-6.07417e-05
1.60522e-05
1.95337e-05
-0.00250962
1.20122e-06
-1.20906e-05
-2.90046e-05
-0.180239
-8.42068e-05
1.9403e-05
-8.98403e-05
-0.00197337
-3.99051e-05
-7.7921e-05
-5.70102e-05
1.77041e-05
-0.0138729
-0.389077
-3.5196e-05
0.921991
-0.43959
-0.148543
-4.14725e-07
-4.06726e-05
-0.000106791
-1.31721e-05
7.71677e-05
-2.36578e-05
-0.00010772
-6.32375e-05
-2.26647e-05
-2.43088e-05
-2.14948
0.000160747
-0.0291168
0.000524963
-5.38257e-05
-3.27757e-05
-6.05567e-05
-3.48042e-05
8.18382e-05
-0.00102129
-8.90187e-05
-0.037398
0.000176601
-0.000109014
-0.159067
-9.73888e-06
-5.2521e-05
2.12359e-05
-0.0204084
-0.000165836
-1.23677e-05
-1.87292e-05
3.08309e-05
1.98208e-05
-5.86362e-05
0.000289466
0.000532791
0.0218476
1.87634e-05
4.00769e-05
-0.0671337
0.000274955
2.55749e-06
-0.00377554
3.42107e-06
-0.00094935
-0.0116584
-0.00142623
-0.189724
-2.40925e-05
-1.9951e-05
-3.14654e-05
7.30488e-06
5.407e-05
1.12468e-05
0.000112638
0.00174875
0.527037
1.26069e-05
-0.353832
0.243291
0.000197707
-0.8096
-3.00676e-05
-0.00285906
0.277828
-4.21876e-05
-0.00219726
-1.86218e-05
-0.237963
3.52423e-05
-0.00162463
5.93897e-05
0.171504
0.000950116
-0.324618
-2.64129e-05
-0.00305739
1.28317e-05
4.05706e-06
-0.0187392
-3.14904e-05
-0.206009
-0.451065
0.230586
0.0159308
-0.00194186
-0.134942
-0.000194878
-6.55518e-06
-0.00144474
-0.000327284
-0.207277
-1.38306e-06
3.99166e-05
8.54531e-06
-0.000514308
-2.07586e-05
-4.00875e-05
-5.43601e-05
0.833802
-0.216056
-6.84317e-05
-0.194957
-0.000691902
-6.37879e-05
-0.000511054
2.71645e-07
-0.278777
-3.23513e-05
-2.83266e-05
-0.20741
2.34942e-05
-3.43522e-05
-4.10081e-05
-0.0041233
-0.00106356
9.03427e-06
1.52747e-05
5.64605e-05
-2.96646e-05
-3.76503e-05
0.3261
-6.19706e-05
3.59411e-05
0.627355
-0.00212933
0.000134073
1.73102e-05
-0.0785856
-3.80235e-06
-3.703e-05
-1.31928e-05
-0.000377215
3.05233e-06
0.000389454
1.71144e-05
0.527977
0.000609744
-0.000822686
-0.00010941
0.000955979
0.001379
0.000447709
-4.21178e-05
-0.461275
-1.20788e-05
0.000614033
4.4813e-05
8.49336e-05
0.000928189
-0.00157709
5.41065e-05
0.000146504
-7.93375e-06
-0.000173414
-0.00101849
-0.000284933
-2.79772e-06
-3.97817e-09
2.1874e-05
-1.90943e-05
0.000178743
-1.17656e-05
-7.16863e-06
-2.38614e-05
2.22782e-05
-0.305919
-2.57222e-05
0.0738245
-2.44836e-05
-1.78394e-05
-0.00035679
-2.65022e-05
0.000377437
0.000278517
-0.00298633
1.79603e-05
0.000455782
1.46205e-05
5.18671e-05
-6.16599e-05
-0.0440006
-0.435556
-2.64161e-05
1.14052e-06
4.79457e-06
-3.01919e-05
-0.00219127
-0.506546
7.02168e-06
-0.145592
2.76616e-05
-2.99796e-05
-2.76299e-05
0.85199
1.66689e-05
-2.41675e-05
-2.02936e-05
1.27201e-06
-5.92245e-05
-1.37939e-06
-1.29622e-05
3.55825e-05
10.7083
-1.27358e-05
-1.20159e-05
-0.000209858
-0.00119982
-9.89278e-05
0.238395
-0.000284322
-1.64421e-05
1.07283e-05
-3.72772e-05
-0.00161822
-1.78786e-05
0.000109225
5.33396e-05
8.41113e-05
1.16275e-05
-0.000330005
4.63237e-05
-0.00249017
3.68027e-05
-4.51118e-05
1.93669
0.579141
-3.96961e-05
2.22614e-05
-0.200287
-0.00433982
-0.00123477
0.00018425
0.000119056
-3.01502e-05
-0.376585
0.00110333
-9.43411e-06
-0.0336581
-0.581049
-3.11657e-05
-0.000356465
-0.000636306
-5.30424e-05
-0.328873
-4.55435e-05
0.000250791
-0.000111274
-3.16882e-05
1.80738e-05
-0.000434464
4.02567e-05
3.52036e-05
-2.58063e-05
23.7033
-1.03611e-05
-1.7724e-05
-4.01278e-05
2.27302e-05
3.32673e-06
6.1319e-05
7.81332e-05
-4.58927e-05
0.000163748
5.1535e-05
0.353091
-4.77712e-05
-3.26922e-05
-3.65694e-05
-1.76403e-05
-3.87377e-05
-8.93575e-06
0.00033953
-0.00161669
-1.75586e-05
0.000155287
-0.00028153
-2.04291e-05
-1.12279e-05
-0.267828
-5.55627e-05
-1.56026e-05
-1.63404e-05
-0.000628599
2.58472e-05
1.1482e-05
1.06265e-05
-5.09168e-05
0.423337
-0.19888
-5.5766e-06
3.94011e-05
-5.53211e-05
-0.000625477
-9.75025e-06
-1.38755e-05
-9.88894e-06
-0.00136503
-4.09463e-05
-7.9561e-06
-5.13218e-05
-0.00370182
0.00437997
5.01936e-05
-0.00265533
4.45542e-06
-0.386968
8.50284e-05
-1.86564e-05
-0.438673
-0.00382465
5.24131e-06
0.00614459
-0.00621812
0.129767
-0.000261114
-0.232363
0.000170921
0.000244789
-0.05322
-5.30204e-05
0.000108578
0.000671194
-0.00831922
-0.518697
-8.88125e-09
-6.27766e-05
-3.44396e-05
0.00220203
-7.57928e-05
0.308899
0.000540764
0.62991
-2.521e-05
-0.00123644
-0.00949544
-2.00978e-05
-7.22181e-05
-0.000732232
4.32946e-07
1.97353e-05
0.000286185
-0.00101918
-0.00174432
-0.00195587
-0.00122935
0.609705
-0.0160136
-3.74925e-05
2.8765e-06
-0.531771
-0.000836212
1.53523e-05
-0.000101635
-0.356068
-2.45563e-06
0.00017741
-3.90895e-05
2.48377e-05
-5.29598e-05
-2.39955e-05
-9.51957e-05
-2.77521e-05
-2.14759e-05
-0.206284
-0.329651
7.02196e-05
-2.71684e-05
0.000242261
-0.00474216
-0.000522858
-5.8555e-06
-2.79877e-05
-0.000756621
-4.02288
7.11258e-08
-9.59659e-06
-1.64641e-05
-0.26403
6.01699e-05
-1.20714e-05
0.231956
0.114261
-6.57665e-05
-0.00341341
-0.00194432
-0.000798984
-1.31446e-05
-8.96917e-06
-0.416066
2.04666e-05
0.000304667
-3.06497e-05
0.000471391
1.14971e-05
-8.3225e-06
-9.55747e-07
-0.00125929
2.25139e-05
3.31298e-05
2.56926e-05
-3.83736e-05
6.65011e-05
-5.37057e-05
-0.00255339
0.267642
-0.228043
0.000175257
7.49337e-06
-6.22779e-05
8.9513e-05
0.160144
3.23926e-05
-0.00363778
-5.21883e-05
-8.20917e-06
6.30262e-06
-7.66307e-05
-0.485043
4.91487e-06
-0.265395
2.84306e-05
2.69657e-05
1.2302e-05
-0.349127
-2.92653e-05
-0.000261927
-0.0786083
4.10036e-05
-3.45137e-05
-0.209597
-1.40541e-05
-0.142793
3.56042e-05
0.000376993
-2.66259
5.68059e-05
-5.46284e-05
2.20111e-05
0.589598
0.000251117
6.91503e-05
0.0599783
-7.22642e-06
3.20168e-05
-0.00210418
0.208831
-0.0157859
-0.458957
-0.215515
-0.000948708
-3.1715e-05
0.0147616
-0.00970571
1.19234e-07
-1.38247e-05
-2.21909e-05
0.000395451
0.000207602
-2.83558e-05
-2.96259e-05
-6.40758e-05
-2.88132e-05
-0.165338
-8.99775e-06
0.401064
-2.81739e-05
0.000940164
0.00103823
3.31018e-05
2.61746e-05
-0.401805
-0.217675
-0.000645639
-3.34763e-05
2.88382e-05
0.00165146
1.71166e-06
0.000503643
-0.00324866
0.00018387
-2.16252e-05
0.27761
0.191575
4.38766e-05
-4.5049e-05
-1.76783e-05
1.60986e-06
4.87365e-05
0.000443867
-4.37924
-3.92088e-05
1.74042e-05
0.00143198
0.751198
-3.56761e-05
0.0842261
-6.07512e-05
-0.00498572
-0.000718817
-0.69274
0.00111368
-0.000367077
-0.00036332
-6.10659e-05
6.24489e-05
-0.0106806
-2.08119e-05
-5.45957e-05
-0.167734
5.38529e-05
-2.08371e-05
-5.34715e-06
-0.000474744
-0.00508901
-0.0420417
-0.000743081
0.000361771
-3.24922e-05
-3.80758e-05
0.469944
-0.0034896
3.13756e-05
8.96737e-06
2.61401e-05
0.000253595
-0.382245
-0.000222394
-0.297446
-1.00559e-05
-7.44198e-06
-0.129803
-1.94457e-05
-0.440106
-0.209686
-9.19928e-05
-1.14756e-05
0.0359028
-1.76057e-05
-0.000493023
-5.11715e-05
-0.169687
0.000264068
-0.00555528
-0.0986123
-0.00613912
0.000407644
0.000545017
1.65276e-05
-0.00566585
0.401337
5.01462e-05
0.000128293
-0.0868769
-0.000279007
-0.00066488
-5.94543e-06
1.4248
-0.059814
-0.0033149
-3.4605e-05
0.000255131
-5.26266e-05
-0.441145
-0.00133029
1.3617e-06
-0.2061
-0.318061
-7.55598e-05
-0.00666253
4.985e-06
0.34064
-0.00159082
0.000404512
0.000232029
-0.061909
-9.80819e-05
0.000738068
-0.181386
-0.428222
3.46119e-05
-3.16733e-05
1.15887e-05
-0.00164564
-0.401976
-0.00739862
-0.40222
0.00082498
-0.000244682
-6.12408e-05
-0.36101
-0.00166157
-1.46176e-05
0.00391645
-0.0177271
0.00671897
-0.0322189
0.391659
-0.681357
0.15428
-1.51747e-05
-2.18051e-05
-0.000108826
-6.46232e-05
0.503026
-0.0690712
-2.69942e-05
-0.34545
-1.27466e-05
6.9877e-06
-2.2576e-05
0.000162527
1.08879e-05
-0.435111
-0.000446767
0.00595013
-1.89674e-05
-0.0435377
-0.000287645
-0.00503013
-0.068817
3.88119e-05
0.000285718
-0.000120802
-0.000570364
1.91416e-05
-2.19642e-05
-6.42663e-05
-0.280661
-1.13844e-06
3.09192e-05
0.00942588
0.000114816
0.333422
1.79036e-05
-0.0306495
4.31109e-07
1.70276e-05
-1.12111e-05
-2.33126e-05
0.000395622
4.93367e-05
0.195003
-2.92819e-05
0.00100291
-0.619192
-4.24438e-05
-0.366346
-3.95844e-05
-0.455306
1.75189
-0.173491
-0.00121121
-8.83174e-06
-8.63308e-07
-0.606913
-6.33351e-05
0.000311641
7.96161e-06
0.000541583
-0.268254
-7.19184e-06
-4.01043e-05
-4.29589e-05
-1.55696e-05
-0.113564
-0.249068
7.8681e-06
7.16677e-06
-0.456521
-0.32758
6.63425e-05
-0.209864
3.12216e-05
-0.395463
-0.344363
0.000158334
0.00334563
-0.191374
-0.00125218
-0.154972
0.00051989
-4.10728e-05
-8.47689e-05
5.12978e-06
-0.435311
-0.292491
3.03262e-05
-4.30327e-06
-0.136786
7.10479e-05
-0.169447
-8.1563e-06
-2.87823e-05
4.06094e-05
-0.541917
0.000278814
-2.04964e-05
-0.1835
-7.47145e-06
0.146739
-0.560603
-2.34494e-05
4.50831e-05
-0.00402092
1.27524e-05
-1.79969e-05
1.98294e-06
-0.42093
-4.44196e-05
-1.32702e-05
-5.05618e-05
-0.39041
-3.59727e-05
-0.000737158
-3.26883e-05
-0.0466798
-4.08793e-05
0.00233731
-2.62882e-05
-0.0988405
-0.322951
-3.6888e-05
0.000180332
-0.000531603
-2.16879e-05
-0.00380657
-0.161358
-2.2586e-05
-0.00213193
2.7116e-05
-0.0384418
4.60926e-05
-0.234859
-0.458947
-0.00226901
-0.189433
-0.160158
-0.000169104
3.23185e-05
-1.37653
2.77942e-05
0.370619
-4.24968e-05
-0.0967575
5.72161e-06
2.6523e-05
-0.0003985
-3.72208e-05
-5.08544e-05
-2.42956e-05
1.70558e-05
0.0782453
-0.00176804
-0.192273
-0.167961
-6.78391e-06
4.96064e-05
-0.00054717
-0.227708
-6.26132e-05
2.45052e-05
2.54954e-05
-1.74858
0.0112841
-0.215592
-0.231228
-5.8845e-05
-3.79157e-05
1.95043e-05
-0.000516947
-0.000654034
0.0412534
-2.75647e-05
-2.46635e-05
-0.527723
-0.00120104
-5.7969e-06
-0.000288489
-0.0752039
-0.00332096
-1.52757e-05
-0.000347458
-0.0386609
-0.127386
-0.516522
0.020898
-3.03507e-05
-2.26754e-05
-7.54629e-06
-1.12686e-06
-4.18183e-05
-3.20305e-05
-0.000277731
0.00800942
-0.000129611
0.000448
-5.1132e-05
-2.12945e-05
-1.95797e-05
3.19688e-05
-0.000610719
-6.15081e-05
-4.31573e-05
2.15655e-05
-6.24768e-05
-1.09697e-05
-6.62184e-06
5.75651e-05
-0.0138374
-1.71269e-05
-0.000999331
0.0415277
0.193201
0.134368
-0.619855
-9.55455e-05
2.26528e-06
-2.88584e-05
-0.653352
-3.6232e-05
-6.18123e-07
-5.87146e-05
-0.572826
-4.76284e-05
-2.26816e-05
-0.0240839
-3.82558e-05
-1.40674e-05
-1.48357e-05
-2.69435e-05
-0.000367103
1.94824e-05
-3.99711e-06
7.99259e-06
-1.45799e-05
8.91963e-06
-7.98799e-06
0.000235734
0.000223404
0.000300189
-0.0332442
-0.000983994
-0.00125357
-0.000350791
-0.00132916
-5.40514e-05
-0.202829
7.56069e-06
-2.05316e-05
-2.78646e-05
6.98391e-05
0.0143576
-1.17849e-06
-0.000911297
-0.153596
-1.34177e-05
0.0137929
-0.00439059
-0.000572706
0.00047199
-0.000913541
-2.33214e-05
-6.77967e-05
-2.4013e-05
-0.00404144
-0.000472297
-0.588123
-3.95933e-07
-0.00045861
-1.3739e-05
-0.303345
1.0366
-0.000301826
-7.3847e-07
-0.000743653
1.14172e-05
-0.00141214
1.93356e-05
-0.412533
9.88892e-08
-1.14169e-05
1.42368e-05
-0.000749877
-0.000894117
-5.09824e-07
0.0830393
-1.35819e-05
0.0008022
-0.000842149
-3.12164e-05
0.344919
-0.457833
-0.0052509
0.00134214
-0.000507053
7.95748e-06
2.37684e-05
-0.0865136
-0.00604322
1.33759e-06
6.46625e-05
9.33106e-06
-9.51204e-05
-0.0197525
-6.16536e-06
-0.504024
-0.00579185
-0.00474552
-0.000482017
-3.81318e-05
-5.91785e-06
-1.96356e-05
-0.000171349
-0.00118008
-5.02244e-06
-0.161786
-2.75601e-05
-2.67416e-05
6.2877e-06
-0.507075
-0.000102641
0.514207
-8.87458e-06
-0.482603
-4.78186e-05
2.47487e-05
-8.69542e-05
-4.21532e-06
-4.03537e-05
-0.00480149
-7.29594e-05
-2.0999e-05
3.76784e-05
-0.000370568
-1.35842e-05
-0.0573141
3.58523e-06
-6.1675e-05
4.15303e-05
-0.00338699
-9.97379e-05
-5.73248e-06
-4.57313e-05
-0.586697
-0.236116
-0.26237
0.1288
-0.031831
-0.000200192
-0.000724945
-1.88383e-05
6.90474e-05
4.48064e-05
-0.330727
-0.000511861
-3.0261e-06
-4.62316e-05
-9.8255e-06
0.000287505
-0.000892922
-1.55453e-05
-2.93646e-05
-0.0035739
-0.00270214
-0.000680492
1.89527e-08
-7.47238e-06
-0.276329
0.000148797
-8.64455e-05
-0.451247
-0.195683
3.10061e-05
7.50764e-05
2.22317e-05
-2.26403e-05
-0.000138389
1.89615e-05
2.0558
5.74907e-06
-0.051305
-6.51698e-06
0.00433962
2.87361e-05
-2.84041e-05
0.00068314
-1.95897e-05
-5.4414e-05
2.82574e-06
-6.01377e-05
-0.0427978
2.86859e-07
-0.00600106
-1.99044e-05
-9.40716e-06
-0.000186557
-1.1401e-05
1.61121e-05
-4.11322e-05
-4.35001e-05
-1.16352e-05
-0.000110069
-5.5161e-06
1.2117
-5.72986e-05
2.84639e-05
-0.000714616
1.20064e-05
-1.96176e-05
-3.215e-05
1.42792e-05
-0.37889
0.0327268
-1.15771e-06
5.51216e-05
-6.57469e-05
-5.91727e-07
0.0121722
1.13974e-05
1.95904e-05
-0.0765127
-1.66226e-05
-0.000313659
0.00116374
-0.00018475
-3.66035e-05
-0.00188319
-1.26493e-05
-0.0227842
-0.000545353
-5.73322e-05
-0.158857
-0.0252565
-2.89538e-05
-0.00286175
-2.48236e-05
-4.44578e-05
-0.000254714
0.00716735
1.74501e-05
3.6899e-06
-8.5445e-06
-0.000208906
-5.10223e-05
-0.000459514
4.24185e-05
-0.000406085
0.949478
-0.000217551
0.00623027
-1.06737e-05
0.000267988
-4.86209e-05
2.74067e-05
-8.03642e-05
-3.79697e-05
-9.44315e-06
-1.17794e-05
-0.000884561
-1.38699e-05
0.000971056
-1.31401e-05
-0.513949