/*--------------------------------*- C++ -*----------------------------------*\
| =========                 |                                                 |
| \\      /  F ield         | OpenFOAM: The Open Source CFD Toolbox           |
|  \\    /   O peration     | Version:  v2012                                 |
|   \\  /    A nd           | Website:  www.openfoam.com                      |
|    \\/     M anipulation  |                                                 |
\*---------------------------------------------------------------------------*/
FoamFile
{
    version     2.0;
    format      ascii;
    class       volScalarField;
    location    "300";
    object      k_0;
}
// * * * * * * * * * * * * * * * * * * * * * * * * * * * * * * * * * * * * * //

dimensions      [0 2 -2 0 0 0 0];


internalField   nonuniform List<scalar> 
10042
(
0.000147257
0.00014819
0.000147711
0.000157887
0.0791816
0.000148344
0.0818365
0.00164898
0.000146882
0.000147893
0.0318037
0.000157705
0.000144563
0.000144305
0.0001512
0.00014806
0.000147997
0.000149697
0.000147279
0.000170322
0.000147134
0.000223802
0.000145362
0.000145201
0.000148243
0.000158939
0.000148788
0.000149869
0.000146956
0.000149167
0.000147987
0.0070794
0.000147971
0.00014886
0.000155102
0.000145287
0.000157988
0.000163522
0.000145289
0.000157138
0.000171375
0.000150641
0.0834049
0.000148083
0.0788038
0.0001775
0.000149069
0.000192314
0.000156759
0.000176568
0.000149028
0.000149474
0.000150657
0.000151213
0.000158005
0.000148291
0.000146972
0.000148981
0.000148827
0.000150347
0.000148157
0.000147852
0.000155299
0.000147617
0.000148848
0.000148848
0.000148248
0.000165175
0.0622857
0.000147503
0.000151097
0.000172661
0.00014811
0.000157066
0.00014815
0.000145191
0.0839147
0.000147333
0.0001563
0.0856724
0.000156044
0.0667939
0.000148034
0.000150025
0.000148264
0.000149373
0.000147166
0.000181517
0.000147812
0.000147154
0.000148605
0.0629305
0.000150018
0.000149223
0.000149062
0.000147424
0.000147364
0.000147367
0.000156512
0.000147008
0.000149933
0.000176855
0.00650776
0.000149291
0.000149627
0.000164351
0.000147309
0.000147323
0.000147193
0.000144266
0.00014584
0.000147027
0.00015417
0.0549737
0.000148815
0.000147044
0.000147525
0.000147306
0.000147384
0.037425
0.00014777
0.00179338
0.000148197
0.000147752
0.000176917
0.000148038
0.000901296
0.000157237
0.000164044
0.00014712
0.000156751
0.000148124
0.0384568
0.000202077
0.000147006
0.000167633
0.0254658
0.000148649
0.000193086
0.00018334
0.000149877
0.000147512
0.000149378
0.000185809
0.00014807
0.000147015
0.00016858
0.000145231
0.000147446
0.000153466
0.000147085
0.000149676
0.068223
0.0401802
0.000149171
0.000144522
0.000149612
0.000147794
0.000167569
0.0149237
0.0277991
0.000188651
0.000147755
0.000147057
0.000148257
0.000148051
0.000164682
0.0168992
0.00664326
0.0447976
0.000150205
0.000146759
0.0447784
0.00017293
0.000159586
0.0797639
0.0253593
0.000148146
0.000166449
0.000159165
0.000149877
0.0104239
0.000148449
0.00015706
0.000150441
0.0395663
0.000206775
0.000148283
0.0331968
0.000152138
0.000305278
0.000149397
0.068293
0.0127775
0.000185795
0.00154918
0.000154693
0.000147356
0.000144547
0.000151138
0.000159063
0.000148367
0.000147
0.000173326
0.000148382
0.00014589
0.000359328
0.000148966
0.00014971
0.000149583
0.000428922
0.000148216
0.000163881
0.00018706
0.00014956
0.000207753
0.000147927
0.000147749
0.000171483
0.000146386
0.000154328
0.000149859
0.000196324
0.000164465
0.000153242
0.000159947
0.000188833
0.000147028
0.000193253
0.000151645
0.000146911
0.000171593
0.000146808
0.000151588
0.000147857
0.000153726
0.00014609
0.000144276
0.000151319
0.000156749
0.000147805
0.000148227
0.000148109
0.000154228
0.000147007
0.000148044
0.000145269
0.000149779
0.000150655
0.000149772
0.000144572
0.000147425
0.000152164
0.000205425
0.000188727
0.0261776
0.000159746
0.000159539
0.000151413
0.000179483
0.0647492
0.00015088
0.000147321
0.000144438
0.000151032
0.000146056
0.000209971
0.000151777
0.000147143
0.000149638
0.000159614
0.000150787
0.000185222
0.000159642
0.00018658
0.000152229
0.000156706
0.000146041
0.000154673
0.00014817
0.000159778
0.000147619
0.000158965
0.0432378
0.000145878
0.000147411
0.0638287
0.000177609
0.000148142
0.000148149
0.000151875
0.0805509
0.000171539
0.000186919
0.000149136
0.000144528
0.000147053
0.000146976
0.00019758
0.000147305
0.000148113
0.000146772
0.000147929
0.000164715
0.000151498
0.000169466
0.0971136
0.000150047
0.0485959
0.000146962
0.000154354
0.000148727
0.0161728
0.000177605
0.000106212
0.0213533
0.000145103
0.000151832
0.000147535
0.000151768
0.000159961
0.000149575
0.000159437
0.000145791
0.000144559
0.000148177
0.000170563
0.000149883
0.000151616
0.00014796
0.000151294
0.038901
0.000146997
0.000149103
0.000147739
0.000147477
0.000163265
0.000186177
0.000159508
0.00183829
0.000164974
0.000156126
0.000148034
0.000144169
0.000148892
0.000149766
0.000217758
0.000147635
0.000148869
0.000200977
0.000147027
0.000152589
0.000150229
0.000201535
0.000147844
0.000153025
0.00016341
0.000159195
0.000151068
0.000147403
0.0104747
0.000168841
0.000149235
0.00016299
0.000147456
0.000146825
0.00014744
0.000152587
0.000310457
0.000154015
0.00014963
0.000149963
0.000149943
0.000149787
0.000170432
0.000147382
0.000145545
0.0287401
0.000146696
0.0250109
0.000133549
0.000157366
0.0844566
0.0224145
0.0001556
0.000171666
0.000148977
0.00017716
0.000149937
0.000148835
0.000232015
0.000148306
0.000152118
0.000769373
0.000148988
0.000147147
0.000161854
0.000273822
0.000148682
0.000145151
0.00771694
0.000177569
0.000146745
0.000165183
0.00486374
0.000146387
0.000149738
0.000145563
0.000147053
0.000144327
0.000145794
0.0270291
0.00942194
0.00014893
0.087512
0.000144328
0.000147278
0.00023723
0.000148391
0.0259015
0.000172894
0.000150037
0.000145364
0.000145049
0.000174865
0.000150481
0.000155685
0.000149157
0.0355238
0.000149325
0.00283116
0.000150881
0.000147363
0.000147064
0.000227781
0.000147475
0.000153375
0.000147312
0.000147739
0.0118925
0.00015476
0.000147462
0.000146362
0.0113621
0.000147083
0.000155104
0.000150964
0.000146077
0.0732339
0.0841725
0.000147001
0.000148656
0.000154274
0.000144561
0.000147891
0.000147692
0.0153265
0.000147833
0.000146868
0.000155832
0.00401594
0.0001702
0.00014977
0.000158915
0.0070757
0.00016644
0.000147539
0.000147431
0.000202235
0.000149007
0.000147408
0.000155873
0.000147139
0.000145791
0.000150117
0.000144871
0.000159967
0.000147303
0.000147505
0.0259321
0.000146167
0.00015
0.000148319
0.000149002
0.000159531
0.000147029
0.000147359
0.000162343
0.000149434
0.0867921
0.000150779
0.000149868
0.000149831
0.000179863
0.000147546
0.0001475
0.000147918
0.00014951
0.000155151
0.0839526
0.000147106
0.000159905
0.000375073
0.000166327
0.000149716
0.000147599
0.000148537
0.000149297
0.000146989
0.0325992
0.0216417
0.000148376
0.000157278
0.000159401
0.000158792
0.000148183
0.000145476
0.000324613
0.000174397
0.000315318
0.000145287
0.000148714
0.00014823
0.000146731
0.0655967
0.000160823
0.000149514
0.000147301
0.000146795
0.000148054
0.00011525
0.000154802
0.00014884
0.0111893
0.000229228
0.000191482
0.000164845
0.000147946
0.000147043
0.000181593
0.000167429
0.049568
0.0249749
0.000152535
0.000153627
0.000149349
0.000151514
0.000148664
0.000149273
0.0296908
0.000145206
0.000146962
0.000177022
0.000149349
0.000188367
0.000150402
0.000195494
0.000156792
0.000149597
0.000151461
0.000155172
0.000169676
0.00016491
0.000167794
0.00014987
0.00017661
0.000150289
0.000147407
0.000148687
0.000148966
0.000148092
0.000152799
0.000170294
0.000160049
0.000148863
0.000149593
0.000147886
0.000147408
0.000170716
0.000147322
0.000150888
0.000217672
0.000144877
0.000167521
0.000190863
0.000148127
0.0353744
0.000168245
0.000149346
0.000209454
0.000148109
0.000149771
0.000147917
0.000147724
0.000149944
0.00015218
0.000148084
0.000214534
0.000149857
0.000147624
0.000148668
0.00015974
0.00016235
0.000147725
0.000153481
0.000147042
0.000162746
0.000147753
0.000156856
0.000145622
0.000150253
0.000144979
0.000147343
0.0967814
0.000145604
0.000169752
0.000147664
0.00015046
0.000146043
0.000162685
0.00014838
0.000168983
0.000148113
0.000203439
0.000149724
0.0740177
0.000145208
0.000151062
0.000149792
0.000148005
0.000147537
0.000152094
0.000148088
0.000169991
0.0118726
0.000204332
0.000152523
0.000159298
0.000146968
0.00016027
0.000177518
0.000147916
0.000155663
0.000168093
0.0523258
0.000191376
0.00405924
0.000156004
0.000148468
0.0001495
0.000154211
0.000152212
0.000167163
0.000145117
0.000151117
0.000186047
0.000149742
0.00014741
0.000154043
0.0855837
0.000150849
0.000158335
0.000181506
0.000149646
0.0856215
0.000145243
0.000146702
0.00014921
0.000147181
0.0185531
0.000181412
0.0767025
0.000148232
0.000618307
0.0306488
0.000166158
0.000166853
0.000180057
0.000193261
0.000161287
0.000147956
0.000147352
0.00015628
0.0175782
0.000146934
0.000156275
0.0861788
0.000147297
0.000147178
0.000147471
0.000150191
0.00014748
0.000148069
0.000179062
0.0141833
0.000147943
0.000147825
0.0368404
0.0634872
0.000147006
0.000147546
0.000148944
0.000147072
0.000241136
0.00018143
0.000183492
0.00014965
0.000147139
0.000146985
0.000149925
0.000148219
0.000162497
0.000149658
0.0985146
0.000147877
0.000148373
0.000162143
0.00014687
0.000164538
0.000164753
0.000151035
0.00566797
0.0660321
0.000148496
0.000146987
0.0713974
0.0251298
0.00015946
0.000147997
0.00207731
0.000174498
0.000153291
0.000147876
0.000147789
0.000147275
0.000189763
0.000152441
0.000168073
0.000149771
0.0437778
0.000292377
0.000147616
0.000147753
0.000169378
0.00014892
0.000146024
0.000153045
0.0566344
0.0502886
0.0872185
0.000149629
0.000175889
0.000160866
0.000145372
0.000147605
0.000149228
0.000188501
0.000149317
0.000147588
0.000175941
0.000148141
0.000170883
0.000148629
0.000148608
0.000145732
0.000148922
0.000200247
0.000149266
0.000147381
0.000167227
0.000163788
0.000186621
0.000149347
0.000178186
0.0598644
0.0877828
0.000150227
0.0170488
0.0146344
0.000147298
0.000144645
0.00014972
0.000150733
0.0430056
0.000151077
0.000148714
0.000149318
0.0627764
0.000159986
0.000149433
0.000148855
0.000147526
0.000163559
0.000146118
0.000146812
0.000161822
0.000150023
0.000149304
0.000146845
0.000231418
0.000147398
0.000149905
0.000148051
0.000149093
0.000185164
0.000149297
0.000150382
0.000148353
0.000154054
0.000204248
0.000149941
0.000185917
0.000154328
0.044615
0.000146038
0.000151174
0.000161512
0.000177924
0.000161917
0.000149634
0.00696253
0.0367136
0.00014942
0.000147013
0.000132694
0.000148406
0.000149644
0.000146132
0.000149576
0.000169796
0.000149948
0.000149949
0.000164703
0.000156263
0.000156577
0.000157052
0.000149856
0.0904559
0.000151243
0.000209975
0.000147052
0.000176887
0.000159948
0.0731439
0.000152693
0.0601392
0.000149778
0.000155362
0.000148131
0.000148326
0.000147603
0.00019472
0.000159904
0.000175603
0.0220571
0.000148693
0.000173177
0.000155852
0.000146801
0.000156763
0.000159314
0.0626234
0.000147714
0.000155344
0.00016298
0.00015099
0.000160166
0.000149882
0.000144868
0.000149878
0.00018469
0.000148805
0.000147858
0.000146152
0.000145973
0.000147375
0.000147751
0.000148863
0.000146866
0.000148925
0.000149322
0.000153352
0.000156826
0.000147799
0.0478294
0.00014795
0.000565174
0.00015916
0.0457508
0.000162633
0.000155072
0.00853031
0.00016268
0.000187339
0.0889871
0.000163316
0.000149269
0.000146796
0.000150184
0.000185967
0.000147466
0.0532103
0.000147426
0.00627495
0.0777308
0.000180417
0.000150332
0.0338172
0.0411192
0.000150561
0.000147722
0.000149736
0.000153402
0.000144798
0.000145641
0.000166889
0.000231021
0.000148399
0.000147437
0.000149101
0.000227693
0.000182598
0.000148964
0.000153572
0.000180012
0.000149304
0.00014803
0.048595
0.00014893
0.000147301
0.000508652
0.000151762
0.000147845
0.00522723
0.0861181
0.0427927
0.000147397
0.000150577
0.000241911
0.000146167
0.000147368
0.000149886
0.000160364
0.000148151
0.000148627
0.000152105
0.000161044
0.000175586
0.000146465
0.000147754
0.000148404
0.000147188
0.00014953
0.00014504
0.000189562
0.000156214
0.000147912
0.000147729
0.000146341
0.000147651
0.000149224
0.0587504
0.000158647
0.000145117
0.000147375
0.000160048
0.0647845
0.000148144
0.000147702
0.00014805
0.000145081
0.00347909
0.000175445
0.000146655
0.000148305
0.000158474
0.000170843
0.000149051
0.000149874
0.000152836
0.000147986
0.000155616
0.000149145
0.0593876
0.00016084
0.00014834
0.000154624
0.0417291
0.000155499
0.000199557
0.000153366
0.000250983
0.000149788
0.000148848
0.000153915
0.000180928
0.000147434
0.000147448
0.000149589
0.000150245
0.000168968
0.000172802
0.00143071
0.000149971
0.000147771
0.000155783
0.000147976
0.000147966
0.0551264
0.000151426
0.000147937
0.000147748
0.000182206
0.000223447
0.000147759
0.000148289
0.000183425
0.000147124
0.000148581
0.000147524
0.000183279
0.000150638
0.000155594
0.00597012
0.00014887
0.000149047
0.060844
0.000147163
0.000174539
0.000147165
0.000151151
0.000161849
0.000148047
0.000148477
0.000149141
0.000151475
0.0107079
0.000147336
0.000148804
0.00017728
0.000153441
0.000164417
0.0715801
0.000163522
0.000149362
0.000213819
0.000147541
0.0397029
0.000149045
0.000148069
0.000146678
0.0109356
0.000149363
0.000149088
0.000148984
0.000162853
0.058635
0.000155995
0.000166681
0.000147619
0.000148805
0.000162961
0.000157351
0.00014671
0.000153789
0.00014729
0.0752076
0.043917
0.00014884
0.00015018
0.00014944
0.00263609
0.00014897
0.00959313
0.000147728
0.000147252
0.000146657
0.000149271
0.000152104
0.000149792
0.000147771
0.000148083
0.00288794
0.00018808
0.000147362
0.000153201
0.000152851
0.00016135
0.000147378
0.00015349
0.000150203
0.000147929
0.000150604
0.000161487
0.000149855
0.00014721
0.000154412
0.000146751
0.000183716
0.000150609
0.000176127
0.000148493
0.000148108
0.000147596
0.000187211
0.000161648
0.000146339
0.000153331
0.000178588
0.000149295
0.000146382
0.000154151
0.000149448
0.0118618
0.00017933
0.000153118
0.0201805
0.000150471
0.000163545
0.000180256
0.000160391
0.000164117
0.0090023
0.000160828
0.000195022
0.000148058
0.000150442
0.000147319
0.000147822
0.000155633
0.00014667
0.000175148
0.000148025
0.000148083
0.000168479
0.000147462
0.000174977
0.000155997
0.000153568
0.000147442
0.00016068
0.000237659
0.000143785
0.000161018
0.0583824
0.000160171
0.000146955
0.000160802
0.000147783
0.000146826
0.0107241
0.000146736
0.000146314
0.000170052
0.00014791
0.000156919
0.000146739
0.000147841
0.0850253
0.000147332
0.000145699
0.000152976
0.000147408
0.000145096
0.000149648
0.00821661
0.000148604
0.000148441
0.000145198
0.000184772
0.000149232
0.000152661
0.000147506
0.000159029
0.000149758
0.000147474
0.00015018
0.000148559
0.000146293
0.000171967
0.000163605
0.000157001
0.000151013
0.000165304
0.000178741
0.000154747
0.000155196
0.000150203
0.0899653
0.000147756
0.000147934
0.00014728
0.000149549
0.000159023
0.000147108
0.0640831
0.0356679
0.0141348
0.000148439
0.00015304
0.000161201
0.00014479
0.000167186
0.00016321
0.000249013
0.000180903
0.0553737
0.000178511
0.000201555
0.0405681
0.000156102
0.000150823
0.000153547
0.00014677
0.0553165
0.000149613
0.000155903
0.000146595
0.00015315
0.000148158
0.0417727
0.0644453
0.000149298
0.0150099
0.000237528
0.000219252
0.000168154
0.00017157
0.000145714
0.0606191
0.000147962
0.0514663
0.0311777
0.000149304
0.000147608
0.00014784
0.000150889
0.000154322
0.000162386
0.000200317
0.000148732
0.000148117
0.000153679
0.000149193
0.000148085
0.000154242
0.000146762
0.000148264
0.000236016
0.000171732
0.000148134
0.0844736
0.000150812
0.000149796
0.000150934
0.000210029
0.00014752
0.00014611
0.00018465
0.000185454
0.000147104
0.000153613
0.00028219
0.000170769
0.0474489
0.000146463
0.000203869
0.0669118
0.0915561
0.000148437
0.000147673
0.00017889
0.000154045
0.000162325
0.000149056
0.0741251
0.000169667
0.000196282
0.000148277
0.000147658
0.0154314
0.000230582
0.00014892
0.000149797
0.0500503
0.000147416
0.000145489
0.000147489
0.000151534
0.000149249
0.000156116
0.000148506
0.000152365
0.000145293
0.000162264
0.0164674
0.000167067
0.000161732
0.0249623
0.000176008
0.000145577
0.000146808
0.000147418
0.000149877
0.000182501
0.000156148
0.000148669
0.000148015
0.000147677
0.000145084
0.000157725
0.000145207
0.000162176
0.000152891
0.000148728
0.0705234
0.0354391
0.000148573
0.0948924
0.000158597
0.000160137
0.000149738
0.000145416
0.0229651
0.000175665
0.000147271
0.000146157
0.000147512
0.000155297
0.000149725
0.000202767
0.000144537
0.000148266
0.000148077
0.0511556
0.0547035
0.000144869
0.000148099
0.000177508
0.000195452
0.000152395
0.0851236
0.0779044
0.000147332
0.000148852
0.000148572
0.000150411
0.0432766
0.000148107
0.000149886
0.000186396
0.000179383
0.00014936
0.000147564
0.000165048
0.000149881
0.000148377
0.000178317
0.000181044
0.0450306
0.000147706
0.000188259
0.000160354
0.000175405
0.000150475
0.000155334
0.000147395
0.000149244
0.000170489
0.000153852
0.000147812
0.000153085
0.030508
0.000144774
0.000146842
0.000144747
0.000168757
0.000147449
0.000148451
0.000143919
0.000147443
0.000245745
0.0934919
0.000148816
0.01401
0.0620246
0.0475814
0.000147397
0.000147813
0.000146707
0.000147243
0.000148677
0.000148919
0.000145268
0.000148424
0.000146307
0.000152105
0.0225986
0.000159887
0.000182137
0.00016035
0.000148058
0.000150638
0.000158872
0.000148703
0.00014687
0.000161748
0.00015856
0.000236613
0.000168509
0.00014472
0.0512698
0.000149897
0.000144423
0.000147386
0.000250979
0.000168291
0.000149926
0.000154127
0.000148358
0.00014852
0.000157534
0.000167938
0.000159163
0.0522314
0.000148443
0.000148043
0.000235064
0.000160689
0.000153268
0.000190648
0.000150951
0.000166691
0.000220689
0.000172821
0.0103299
0.000147239
0.000147162
0.000147399
0.000148184
0.000148517
0.000150711
0.000166667
0.000177885
0.0445134
0.000148365
0.0915323
0.0218372
0.000154083
0.000332775
0.000148819
0.000179915
0.0222777
0.000147194
0.000183584
0.000145413
0.000247406
0.000149255
0.000204262
0.000147012
0.000187091
0.000168062
0.0330069
0.000146794
0.0001985
0.000146278
0.000150993
0.00019295
0.00014674
0.0106798
0.0688358
0.000126048
0.0346979
0.000185662
0.0526734
0.000162725
0.000147966
0.000162728
0.000168371
0.0624008
0.000148395
0.000147951
0.000149888
0.000166025
0.000147853
0.000148849
0.000148798
0.0386487
0.0562015
0.000147629
0.0601962
0.000164926
0.000145977
0.000161379
0.000155096
0.0634163
0.000157497
0.000146757
0.000196904
0.000148354
0.000147382
0.000148478
0.000182675
0.000175
0.000147086
0.000154406
0.00014863
0.000149713
0.000146379
0.0544499
0.000149895
0.000146499
0.00780004
0.000213265
0.000152587
0.000147159
0.0399901
0.000155641
0.000150817
0.000147882
0.000162991
0.000150995
0.000157418
0.000152912
0.0333279
0.000162867
0.000174656
0.000144628
0.000163509
0.000173943
0.000158255
0.00014922
0.0998851
0.000149651
0.000204138
0.000147114
0.000149228
0.000162961
0.000202822
0.000151592
0.000154146
0.000148657
0.000159788
0.000176814
0.000189622
0.000155765
0.000149944
0.000147574
0.000155184
0.000189276
0.00014739
0.000168857
0.000147938
0.00014742
0.0388059
0.000147263
0.0608163
0.000147777
0.000154557
0.000181968
0.000147801
0.000158355
0.000196597
0.000183159
0.00014786
0.00018852
0.000149874
0.000149733
0.000147527
0.0284854
0.0693465
0.000147237
0.000147502
0.000146098
0.000146983
0.000183558
0.0757197
0.000147791
0.000228321
0.000146103
0.000146411
0.000147084
0.00115216
0.000150088
0.000151625
0.000147494
0.000147927
0.000147671
0.000149684
0.000149705
0.000160796
0.00349128
0.000145886
0.000147722
0.000160122
0.000174074
0.000146534
0.0416096
0.000168776
0.00014679
0.000145077
0.000149113
0.000191353
0.000146552
0.000186245
0.000156967
0.000152568
0.000146733
0.00016849
0.00014457
0.000172319
0.00015547
0.000149215
0.0144545
0.000403916
0.000143842
0.000147032
0.0169234
0.000186692
0.000180702
0.000153808
0.000186183
0.000145276
0.0722908
0.000184178
0.000147358
0.0328809
0.0867064
0.00015074
0.000165172
0.000171261
0.000146696
0.0923797
0.000148714
0.000156587
0.000158015
0.0001489
0.00014818
0.00016335
0.000146959
0.000147034
0.000146945
0.00113546
0.000147282
0.000147384
0.000146601
0.000147065
0.000147354
0.000149493
0.000175133
0.000160986
0.000152222
0.000149635
0.000345838
0.000148922
0.000146761
0.000147191
0.000145997
0.000148452
0.000147622
0.000158694
0.000185301
0.000149446
0.000159839
0.00016245
0.000146636
0.000155423
0.0530439
0.000149874
0.000144817
0.000148419
0.000166419
0.000149296
0.000149293
0.00015244
0.000152967
0.0221272
0.0134595
0.000146601
0.00014685
0.000147417
0.000165621
0.000158396
0.000146827
0.00015546
0.000167506
0.000148686
0.000154699
0.000148793
0.000179784
0.000221835
0.000150673
0.000173303
0.000154218
0.0465088
0.000149311
0.000147095
0.0772886
0.000170348
0.000152616
0.000209515
0.000167302
0.01843
0.000161816
0.000198157
0.000154979
0.000154722
0.0184979
0.000154678
0.000233503
0.000161053
0.000181772
0.0373237
0.000149951
0.000148582
0.000147664
0.000193353
0.000143964
0.0127038
0.000165555
0.0225606
0.000150359
0.000169847
0.000196993
0.000147448
0.000148757
0.000166074
0.000157402
0.000148468
0.000155147
0.00016687
0.000178876
0.000175629
0.0001907
0.0212876
0.000179406
0.000148658
0.000149281
0.0767667
0.000165826
0.000149793
0.000160435
0.052701
0.000148886
0.000152788
0.000147406
0.000156209
0.000148112
0.00014859
0.000159416
0.000148489
0.000155382
0.0308963
0.0152443
0.000145914
0.000153707
0.000156564
0.000185872
0.000161771
0.000149274
0.000147299
0.000168841
0.00660357
0.000147364
0.000153016
0.000148306
0.0705216
0.000146953
0.000158137
0.00013858
0.000154502
0.000149796
0.000172401
0.000173468
0.000172894
0.000153664
0.000147976
0.0832201
0.000146837
0.000156371
0.000148858
0.0001593
0.000145513
0.000145883
0.000148374
0.000174014
0.000146938
0.000147668
0.000146892
0.000148412
0.000146951
0.000148135
0.000179614
0.024414
0.0551037
0.000154714
0.000148245
0.0001573
0.000152017
0.0503999
0.00014989
0.000174771
0.000145459
0.000147828
0.000149551
0.00016165
0.0751293
0.000147605
0.0358457
0.000148916
0.000144573
0.000150708
0.0881549
0.000151019
0.000160914
0.0639002
0.000149889
0.000148721
0.0135393
0.000147267
0.0397547
0.00014847
0.000161623
0.0171328
0.000150284
0.00014854
0.000146809
0.017641
0.000156394
0.000147039
0.000204038
0.000147533
0.000150295
0.000177721
0.0479655
0.000177882
0.0652783
0.0115984
0.000166606
0.000151269
0.00017582
0.000203632
0.00014742
0.000147318
0.000150208
0.00015751
0.000166428
0.000147761
0.000153347
0.000147144
0.000147543
0.051567
0.000149456
0.0278443
0.000145068
0.000163381
0.00018287
0.000146583
0.000144531
0.0582523
0.0656007
0.000171058
0.000148423
0.000153405
0.000178831
0.0001463
0.00016433
0.00018224
0.000167148
0.000159252
0.0262915
0.0377904
0.000144679
0.000148788
0.000145408
0.000149231
0.000150712
0.000158164
0.0110579
0.000148694
0.000147625
0.000173061
0.0310602
0.00014515
0.000686917
0.000145607
0.000189212
0.000173471
0.0955211
0.000185798
0.00016328
0.000163571
0.000144823
0.000144459
0.000203091
0.000153966
0.000148471
0.000318968
0.000146898
0.000148446
0.000145298
0.000169551
0.000180346
0.000236371
0.000171974
0.000158495
0.000157274
0.000148398
0.0416269
0.000227281
0.00015061
0.000147659
0.000146717
0.000192694
0.0910127
0.000159514
0.0889592
0.000150201
0.00014671
0.0401016
0.00014785
0.0702167
0.0682061
0.000146259
0.000157705
0.000223678
0.000152215
0.000159295
0.000147139
0.05185
0.000156215
0.000174735
0.0116405
0.0282432
0.000158108
0.000159188
0.000148819
0.000182925
0.0518217
0.000151118
0.000152574
0.0490032
0.000162436
0.000165479
0.000149739
0.0240566
0.0149143
0.000167869
0.00014785
0.000156459
0.00014708
0.00043969
0.000178382
0.000161698
0.0660249
0.043336
0.000144883
0.00019175
0.000148567
0.00793529
0.000168096
0.000157211
0.000155042
0.000294986
0.000143652
0.000182411
0.0143468
0.06356
0.000150543
0.000148054
0.000146387
0.000168949
0.000825275
0.000190852
0.0646534
0.000195701
0.000163789
0.000147027
0.0530162
0.000180887
0.000156156
0.000176947
0.0067151
0.0325888
0.022204
0.032489
0.0392518
0.021876
0.000148312
0.000155888
0.000160544
0.000148084
0.036445
0.000311606
0.000147969
0.0867756
0.000148774
0.000147796
0.000146245
0.000160384
0.000146932
0.044613
0.000163755
0.000227798
0.000146949
0.000236577
0.000162216
0.000248987
0.0185779
0.000150468
0.000157714
0.000160814
0.00016465
0.00014679
0.000145872
0.000147051
0.0401659
0.000146378
0.000146787
0.00023672
0.000151718
0.0512174
0.000148153
0.0592829
0.000147548
0.000148259
0.000147914
0.000148031
0.000157486
0.000152811
0.0571267
0.00015723
0.000167157
0.0809319
0.000147091
0.0786835
0.000146571
0.0764166
0.00271584
0.0615081
0.000176493
0.000147982
0.000149799
0.0895411
0.000148555
0.000156451
0.000148645
0.000160288
0.0698677
0.000147011
0.000146817
0.000147235
0.000149745
0.0446485
0.0794934
0.000147174
0.000143929
0.0496122
0.0911248
0.000146921
0.0726045
0.000149738
0.0878501
0.0665201
0.000183121
0.00019351
0.000213222
0.000167104
0.0351906
0.000188476
0.000147985
0.000144808
0.000146361
0.0826526
0.088117
0.0001505
0.000155471
0.035902
0.000146991
0.0277927
0.000147489
0.000148131
0.000145569
0.00780427
0.000185562
0.000146635
0.0463533
0.000149656
0.0422145
0.0830865
0.000146482
0.000148628
0.000187749
0.000147556
0.000148832
0.000146631
0.0695943
0.000157683
0.000148053
0.000148774
0.0817832
0.000147788
0.000161772
0.000147723
0.0538966
0.000148561
0.000171787
0.000160615
0.0445342
0.0815529
0.000158805
0.000189238
0.000173421
0.000148377
0.000169342
0.056686
0.000146695
0.000180976
0.000146298
0.000236883
0.000147137
0.0645854
0.0859679
0.000169601
0.0360469
0.0471179
0.000160025
0.000150087
0.000267942
0.000147331
0.0569353
0.000153357
0.000316892
0.000147393
0.000158157
0.000165667
0.000156812
0.000148497
0.000147776
0.00014924
0.0134946
0.000176064
0.0400786
0.0465019
0.000155003
0.000145367
0.000164129
0.05733
0.00015842
0.000146901
0.000148412
0.00768361
0.00588804
0.0394517
0.029425
0.000162479
0.000148962
0.000146374
0.000171229
0.000167713
0.000284375
0.000147823
0.000148337
0.00991773
0.000173738
0.000149893
0.000179383
0.000289149
0.000184801
0.000145869
0.000162553
0.000236523
0.000312978
0.0862292
0.00021545
0.000147276
0.000149774
0.000150115
0.00014989
0.000147903
0.000148493
0.000158595
0.000177736
0.000161311
0.000158176
0.000156555
0.000149182
0.000154049
0.00015013
0.000159442
0.000158175
0.000147109
0.000156512
0.00014747
0.000146696
0.000149468
0.000148699
0.000203047
0.000145333
0.000166834
0.000278387
0.00107591
0.0624668
0.034419
0.00015313
0.000149533
0.000147132
0.0864066
0.00014793
0.000144227
0.000149092
0.0894243
0.000157277
0.000162194
0.000245931
0.000151053
0.000148071
0.000157659
0.000146985
0.000162669
0.000149893
0.000159033
0.000146818
0.000147765
0.000150373
0.000151231
0.000154951
0.000272554
0.000166464
0.000173321
0.000172061
0.000195047
0.00016478
0.000173888
0.000147816
0.0335209
0.000152311
0.000154486
0.0001478
0.000150394
0.00017478
0.000147756
0.000166847
0.00586212
0.000155945
0.000184916
0.000178318
0.000164121
0.000168373
0.000165705
0.000147429
0.000157277
0.00014849
0.000171081
0.000166252
0.0810147
0.000146311
0.000165847
0.000154099
0.0564002
0.00054644
0.000168187
0.000148547
0.000168044
0.000144886
0.000176649
0.000150047
0.0658404
0.000145626
0.000153635
0.00014795
0.000160227
0.000197815
0.000158238
0.0296405
0.000148125
0.00016207
0.000165745
0.000147943
0.0322521
0.0875095
0.000195394
0.000178985
0.00016698
0.000147355
0.000146878
0.0504134
0.000176117
0.000146132
0.000149892
0.000152804
0.000147504
0.000209443
0.000146789
0.0819339
0.000186466
0.000194167
0.000161177
0.0001491
0.000145631
0.000147233
0.000181385
0.000166744
0.00015429
0.0310514
0.000149089
0.000150597
0.000154807
0.0991088
0.000144768
0.00044534
0.000143643
0.0724025
0.000147179
0.000147167
0.000159296
0.000147715
0.00014883
0.000189006
0.000148398
0.00014903
0.000146907
0.000164968
0.000153984
0.0415555
0.000147797
0.000148475
0.000146736
0.000190639
0.000146563
0.00015564
0.000168247
0.0874796
0.0706178
0.000474805
0.000208661
0.000213997
0.00016402
0.000165119
0.000154714
0.000149644
0.000148702
0.074886
0.000164151
0.000144642
0.000147569
0.000147494
0.000157633
0.000172015
0.000149647
0.00015644
0.000187701
0.000198455
0.000173373
0.000147584
0.000149549
0.056825
0.000152381
0.000145465
0.0750522
0.0748321
0.000146014
0.000144003
0.000154758
0.000148231
0.000159236
0.000149627
0.00462019
0.000149799
0.042261
0.000147879
0.0125201
0.000157908
0.000147868
0.00018138
0.000145252
0.000148251
0.000149742
0.000160831
0.00023625
0.000147311
0.000196082
0.000149894
0.000149268
0.000169673
0.000146765
0.000148756
0.000148566
0.000144298
0.000147945
0.000144686
0.000149036
0.00888388
0.000146862
0.000146777
0.000164954
0.000145513
0.000147405
0.000149043
0.000148641
0.0971467
0.000187162
0.000148083
0.000150907
0.000147883
0.000149894
0.000217074
0.000148224
0.000147708
0.00948943
0.00014754
0.000167994
0.000179862
0.000160301
0.000147588
0.000204738
0.000147663
0.000209381
0.000164845
0.000147685
0.0642239
0.0345936
0.00015533
0.000171293
0.000147219
0.000147238
0.000161888
0.000211335
0.000146821
0.000146804
0.000148727
0.000163925
0.000148588
0.000160279
0.000148639
0.000166815
0.00193571
0.000160876
0.000213924
0.000147253
0.000154888
0.000156133
0.00016088
0.000145838
0.000147517
0.000150288
0.000159791
0.000166104
0.00014917
0.000195712
0.000147887
0.0776553
0.000144704
0.000146343
0.000174707
0.000149792
0.000179011
0.000191832
0.000161074
0.000148127
0.000150302
0.000147972
0.000161363
0.000148403
0.000163207
0.000155474
0.000148642
0.000145932
0.000155149
0.0956316
0.000158885
0.000163549
0.0805923
0.00108434
0.000161306
0.000144887
0.074365
0.000147884
0.000151984
0.000149279
0.000188264
0.00014774
0.000159833
0.000155223
0.000151321
0.000148704
0.000153792
0.00014927
0.000175094
0.000147355
0.000149173
0.000147925
0.000156687
0.00941579
0.000148059
0.0178074
0.000166748
0.000144129
0.0978751
0.000148244
0.000147467
0.000151436
0.000191811
0.000146728
0.000147389
0.06153
0.00014802
0.0681562
0.000153345
0.000152961
0.000149784
0.000149718