/*--------------------------------*- C++ -*----------------------------------*\
| =========                 |                                                 |
| \\      /  F ield         | OpenFOAM: The Open Source CFD Toolbox           |
|  \\    /   O peration     | Version:  v2012                                 |
|   \\  /    A nd           | Website:  www.openfoam.com                      |
|    \\/     M anipulation  |                                                 |
\*---------------------------------------------------------------------------*/
FoamFile
{
    version     2.0;
    format      ascii;
    class       surfaceScalarField;
    location    "650";
    object      meshPhi;
}
// * * * * * * * * * * * * * * * * * * * * * * * * * * * * * * * * * * * * * //

dimensions      [0 3 -1 0 0 0 0];
oriented        oriented;


internalField   nonuniform List<scalar> 
14470
(
-0.00534111
0.00167768
0.00366557
-0.00071538
-0.000471232
0.00668464
-0.00665573
-2.04381e-05
-0.000350717
-0.000468326
0.000819042
-0.00122309
0.00128744
-6.24372e-05
-0.00221588
0.00222235
-6.07843e-06
0.00155576
-0.00307636
0.00152099
-0.000310576
-0.000842977
0.00115356
-0.00594072
0.00100805
0.00495879
0.000194514
0.00193692
-0.00210739
0.00211046
-0.00189547
-4.42828e-05
-0.00528918
0.00542425
0.0022557
-0.00103842
-0.00121731
0.00817726
-0.00588304
-0.00224678
-0.00431755
0.00526289
-0.00093815
-0.00332565
0.00332049
6.52064e-06
0.00659113
-0.00210152
-0.00446001
-0.00126435
0.00106381
0.000200541
0.00239439
-0.00506256
0.00282073
0.00320209
0.00361199
-0.00672037
0.000415867
-0.000415867
-0.00019984
0.000991336
-0.000791497
-0.00100943
0.000698862
0.00145771
0.000797971
0.00102153
-0.00409413
0.00307426
0.00533112
-0.00165638
-0.00363432
-0.000476396
0.000696101
-0.000168712
-0.0018644
0.00438503
-0.00266284
0.000665185
0.00199829
-0.000641299
-0.000265188
0.000906487
0.00215917
-0.00194785
-0.000211024
-0.00589037
0.00582165
7.5707e-05
0.00114293
0.00474276
-0.00585445
0.000441509
0.000391913
-0.000555453
-0.00208461
-0.00163297
0.00372227
0.00403351
0.000544545
-0.00456166
0.000508193
0.00275262
-0.00326223
0.000652515
0.000851388
-0.00150388
0.00444733
-0.00310985
-0.00133344
-2.6573e-05
-0.00263535
-0.00109518
-0.000598773
0.00169404
0.000391801
-0.00103232
0.000640526
1.34453e-05
-0.000468057
-0.000730161
-0.00469206
0.005424
-0.000780506
-0.00445305
0.00523612
0.00056409
0.000468261
-0.00103235
-6.98494e-05
0.000402401
-0.000341121
0.00151171
-0.00564665
0.00419738
0.00036574
0.00625665
0.00272154
-0.00480077
0.00115693
-0.000444785
-0.00456405
0.0031794
0.00138754
-0.00116004
0.00108331
0.00386185
-0.00263356
-0.00122754
-0.00124879
0.000898074
0.00546923
0.000129183
-0.00549184
0.000219574
0.00259078
-0.00280891
-0.00357165
0.00513838
0.000402401
-0.00375985
0.000694009
0.00306542
0.00107318
-0.00206414
0.000991086
-0.0063233
0.0063841
-4.85031e-05
0.00497011
-0.000879127
-0.0040857
0.000271478
-0.0014475
0.00141156
-0.00016837
-0.0057424
-0.000467915
-0.000474549
6.09643e-05
-0.00416382
0.0041112
0.000361362
0.00419618
-0.00454389
0.00165032
-0.00049387
-0.00115642
-0.00683422
0.00299912
0.00383747
0.000203735
0.00136374
-0.00156747
0.000690797
-0.00123778
0.000546988
-0.00366389
0.00353049
0.000133414
-0.00132405
0.00203381
-0.000709638
-0.000813046
0.00101442
-0.000186838
0.00235013
-0.00285
0.000500045
-0.00185591
0.000748952
0.001107
0.00633561
-0.00163984
-0.0047005
0.00103389
-0.00106529
2.96714e-05
0.000156965
0.00219331
-0.000980656
-0.000283692
-0.00294941
-0.000374662
0.00440171
-0.000975216
-0.00342219
0.00440782
0.00173122
0.000171312
-0.00190236
0.00118446
-0.000173091
0.00379233
-0.00315777
-0.000634446
-0.000818641
0.00147118
-0.000618799
0.00169209
0.00086689
0.00027695
-0.00114384
6.93494e-05
-0.00123717
0.00116788
0.00156328
-0.00149385
-0.0019527
0.00330034
-0.00134594
0.00120752
-0.000815705
0.00653088
-0.00124664
-0.00525278
0.00056646
-0.00189042
0.00293625
-7.56345e-05
-0.00285947
-0.00453578
0.000797165
0.00374514
-8.86319e-05
-0.00112072
-0.000804653
-0.000740572
0.00154522
-0.000937232
-0.0036238
-0.00304321
0.00340973
-0.000367226
0.00506286
-0.00579123
-0.00240738
0.0018703
0.00053714
-0.00148609
0.000702222
0.000783899
-0.00339783
-0.000265768
-0.00511291
0.00482298
0.000413421
0.00522131
0.00111871
0.000344342
0.00119594
-0.00117351
2.02284e-05
-0.00103899
0.000839147
-0.000308721
-0.00081117
0.00111989
-0.000737147
-0.00019439
0.000931537
-0.00170717
-0.00512052
0.00131086
-0.00415338
0.0028404
0.00197555
-0.00554143
0.00357982
0.00461836
-8.48185e-05
-0.00451527
0.000335878
0.0008265
-0.00116238
0.00433039
-0.00514245
0.00081395
-0.00088933
-0.00114561
0.00203498
0.0036772
0.000115463
-0.00199251
0.00183469
0.000157876
0.0003918
0.00300214
-0.00339128
-0.00475186
0.00531563
0.00498504
-0.000649976
-0.0033513
0.00115499
0.00219723
0.000501731
-0.00114303
0.00220693
-0.00314219
0.000936283
0.00341243
-0.00120432
0.00468719
9.98396e-06
-0.00468117
0.00773262
-0.00249965
-0.00515824
-0.000415972
-0.00492288
0.00440882
0.000337142
-0.00473485
0.00479378
-0.00417405
-0.000612513
-0.000950686
-0.000980688
0.00193157
-5.12204e-05
0.00190986
-0.0018583
0.00448239
-0.0024955
-0.000853227
5.46571e-05
-0.00315445
0.0011856
0.0019696
-0.00148091
0.00107874
0.000402181
0.0031655
0.0070575
-0.00215546
-0.00488388
0.000448375
0.00311797
-0.00356505
0.000440118
0.000629673
-0.00106979
-0.000569066
-0.000887162
0.00145626
-0.00517186
0.000195641
-0.000474284
0.00104079
0.00389967
0.00389526
-0.000191746
0.00137045
-0.00556437
0.0042363
0.00110333
-0.00144535
0.000342034
0.000169286
-0.00469597
0.0025408
0.00283542
0.00569758
-0.00534913
-0.000347165
0.00120802
-0.00174491
0.000536948
0.000141096
0.00318056
-0.00616425
-0.000140104
0.000451267
0.00170815
0.00445085
0.000999397
-0.00544427
-0.00348843
0.000331157
0.00417489
0.000524735
0.00536736
-0.00209082
0.000216766
-0.00108925
0.000872493
-0.0014528
0.00626476
-0.00477301
-0.00080735
-0.00104849
-0.00326446
0.00288931
0.000373831
-0.000644118
0.00573696
-0.00506131
0.0047386
-0.00526717
0.000675688
0.000161009
-0.001878
0.00176276
0.00380764
0.00326216
0.00078092
-0.00121625
0.000435329
-0.00134131
0.000839636
0.000501685
-0.000756964
0.00213781
-0.00138096
0.00497697
-0.00493914
-0.00210818
-0.000107282
0.00219534
-0.000967007
-0.00122818
-0.00155458
0.000367731
0.00118685
0.00718106
-0.00537879
-0.0017914
0.00106012
0.0035072
-0.0045579
-0.00166848
-0.000738835
0.00100421
0.000722277
0.0029553
-0.00471734
0.00393986
2.34578e-05
0.00413256
-0.00414346
-0.000241359
-0.0014044
-0.000588
-0.000454078
0.00114488
-0.00068102
-0.000660284
-0.00321852
0.000174496
0.00583766
-0.00123749
-0.00457156
0.000214116
-0.000793221
0.000579104
0.00131388
-0.00021881
-0.00109507
-0.00387959
0.00376544
0.00011419
0.00478427
0.000806439
-0.00553707
0.000382302
-0.00460073
0.00422211
0.000983596
0.000116535
-0.00110013
-0.0052357
0.00223308
0.00315905
0.00280627
-0.00488405
0.00275343
-0.00293539
0.000198672
0.00226614
0.00334162
-0.00560427
0.00186168
0.00261569
-0.00442019
-0.00392067
0.000842373
0.00308254
-0.00511604
0.00397696
0.00114966
-0.000425311
0.00127347
-0.000848156
0.00606579
-0.00130535
-0.00475863
0.00354194
-0.00394105
0.000403463
-0.00532897
0.00471378
0.00122828
0.00414154
-0.00536406
-0.00176166
0.00130388
0.000457806
-0.00301225
-0.00111924
-0.000361668
0.00434741
-0.00442049
0.00023319
0.00128021
0.000370143
0.000935991
0.00346939
-0.00396951
0.00451641
-0.000542122
0.00415193
0.00406257
0.00128752
-0.00223799
-0.00285345
0.00416326
-0.00259804
0.000510682
0.0020874
0.000413507
0.00252361
-0.00370538
0.00563861
-0.000996541
-7.2168e-05
0.00106871
0.00106715
-0.00258918
0.00152158
0.00112485
-0.00307619
-0.00685973
0.00163269
0.00525699
0.000593312
-0.00353548
0.00294414
0.0027551
6.78833e-06
-0.00276222
-0.0021805
0.0022448
-6.41278e-05
-1.99122e-05
-0.00216051
-0.000793508
-0.000493585
0.00128709
-0.00196746
-0.000990879
0.00295938
0.000371459
-0.00433583
0.00185966
0.00311444
0.00025081
0.00106308
0.000363885
0.00516431
-0.00544922
-0.000708327
-0.00116532
0.000428174
-0.00158047
-0.00348623
-0.00244096
0.00240583
4.07714e-05
0.000928223
-0.00202328
0.0072241
-0.00635638
-0.000851559
0.000343286
0.000868812
0.000536264
0.00214252
-0.00267779
0.000193994
-0.00264311
0.00245
0.00569894
-0.00258749
0.00365544
0.00372965
-0.000183508
-0.00309557
-6.0251e-05
0.00315652
0.00433648
-0.0037484
-0.000578301
0.00553787
0.0034382
-0.00197267
-0.00146447
0.000971348
9.36111e-05
-0.00106496
0.00194933
-0.00557344
-0.00115397
-0.00141018
0.00256387
-0.000286168
-0.000899623
-0.00313729
0.00026955
0.00290967
-0.00157988
0.000962564
0.000877225
-0.000912913
0.00522969
-0.000100358
-0.0051324
-0.000283219
0.00149128
0.00121192
-0.00183185
0.000619971
-0.00370413
0.0030887
0.000697188
0.00109158
-0.00393005
0.00179374
-0.000775834
-0.00101781
-0.000640441
-0.00057063
0.00170316
-0.00170695
7.64148e-06
0.00055117
0.000539839
-0.000724052
3.24166e-05
0.00117953
-0.00119264
0.00140942
0.00383018
0.000262408
-0.00408989
0.00171868
-0.000935153
-0.000783476
0.00239698
0.000331483
-0.00272713
0.000144349
0.000990868
-0.000835831
-0.000155037
0.00139002
0.0043737
-0.000308846
0.000816198
-0.000507352
-0.00111096
0.000123067
0.00103823
0.00291149
-0.000156777
-0.000292684
0.000787933
-0.000495248
0.00093062
-0.00206302
0.00113244
0.000981022
-0.00297881
0.00101238
-0.00466603
0.004692
-0.00314377
0.000195886
-0.00050824
-0.00459603
0.000504205
0.00513782
-0.00558997
-0.00359154
0.0056417
-0.00202266
-0.000916812
-0.000844805
-0.00199119
0.00301396
0.00322324
-0.00211271
1.34442e-05
-9.59011e-05
0.000102539
0.00120086
0.0032841
0.000144852
-0.000869064
0.0010178
0.00564131
0.00113495
-0.000448505
-0.00068645
0.00626664
-0.00166725
-0.00447323
-0.00038168
-0.00566255
0.00609056
-0.000579947
-0.000209864
0.00101796
0.00573328
-0.000159497
-0.00099695
0.00103866
-4.17126e-05
-0.0014291
0.00086006
0.00226885
-0.00128272
-0.000986143
-0.000658046
-0.00319382
0.0038512
0.00329435
-0.00284479
-0.000591798
0.00342846
-0.00305738
-0.000370779
0.00122564
-0.000122307
0.00508592
-2.37596e-05
-0.000964609
-0.000867165
0.00453084
-0.000301982
-0.00422335
-0.00625157
0.00155828
0.000227085
3.07655e-05
-0.00556681
-0.000314432
0.00139696
0.00204215
-0.000471231
-0.000797203
0.00502611
-0.00573448
0.000714596
0.0022679
0.000393619
-0.00266144
-0.00621687
-0.000216409
-0.00453958
0.00476001
-0.000289637
-0.00225833
0.00254775
0.000239266
-0.00266619
0.00242749
-0.00515594
0.00633247
0.0046984
3.64672e-05
-0.00472929
0.00356609
-0.00422493
0.00112516
0.000889995
-0.00201502
0.00085061
-1.47427e-05
-0.000835867
0.00504437
0.00164619
-0.000313578
0.005256
-0.000740706
-0.00389693
0.00468306
0.000957336
-0.000176416
0.0007083
-0.00101715
0.00111324
-0.00138947
0.000276227
0.0050241
0.000210474
-0.00515382
-0.00215124
0.00239101
0.00274966
-0.000481639
-0.00151572
0.000868603
0.000647121
-0.00332372
0.00139843
0.00192663
0.000424769
0.00477719
-0.00512905
-0.000234719
-0.00508833
0.00539319
0.00452149
-0.00521107
-0.00295058
-0.000191207
0.000836752
-0.005647
0.00482665
-0.00101957
0.000135071
0.000884505
-0.00318361
0.00437412
-0.00118611
-0.00600034
0.00738096
-0.00129118
-0.00260782
0.000703291
0.00190426
0.000541475
0.000593477
0.000608604
0.000671623
-0.000821513
0.00129473
-0.00153463
0.000729979
0.00325823
0.00102591
-0.00427924
-0.000975697
0.000331553
0.000644144
0.00136078
-0.00079586
-0.000564916
0.000465436
-0.00125894
-0.000247041
-0.00388675
0.0041382
0.00223169
0.0022186
-0.00183155
0.00178065
-0.000344416
0.0012113
-0.000762042
-0.000543331
-0.00197462
0.00251731
-0.000320606
0.000920407
-0.000563276
0.000280975
0.00355161
0.00100504
0.00458637
-0.00552747
0.00599092
-0.00527852
-0.000598333
0.0055735
-0.00472093
0.00517177
-0.00437218
-0.000722848
8.69535e-05
-8.69535e-05
0.000312024
-0.00133159
0.00213915
4.25505e-05
-0.00259926
0.00255762
0.00413241
-0.00370185
-0.000426355
-0.000638833
-0.00175234
0.00239147
-0.00391344
0.00439987
0.00299374
-0.00396517
-0.000995767
-3.06263e-05
0.00102639
0.00150589
-0.000555602
-0.000950285
0.00173027
0.000269709
-0.00199995
-0.000402821
-0.00291922
-0.00636226
0.000459511
-0.00381545
0.00357249
-0.000766535
-0.00587436
-0.00114671
-0.000686127
0.00183293
-0.00167381
0.00262145
-0.000649311
-0.000799131
0.00140776
0.00150198
-0.00230084
0.000798996
0.0020936
-0.000537539
0.000184895
0.00092835
0.0023711
-0.00266096
0.0029513
-0.000293601
-0.0026033
-0.00667744
0.00626998
0.000440492
0.00202122
-0.000111067
-0.0019314
0.000784772
0.005095
0.000971718
0.000782119
0.000578671
0.000277635
0.0027293
0.00345788
-0.00259165
-0.000825654
-0.00102919
0.000736507
-0.00111987
-0.00312696
0.00261789
0.00546542
0.00281463
7.35934e-05
-0.00432407
0.00115218
-0.00524301
0.00382374
-0.00142302
0.00225694
-0.000834045
0.00152478
-0.00132104
-0.000842656
0.00358742
-0.00274064
-0.00313754
-0.000742404
-0.00471342
0.0023136
0.00249076
-0.00582459
0.000154723
0.00570878
0.000744952
0.00108982
-0.00290715
0.00283266
-0.00615059
0.00628046
-1.13035e-05
0.00288985
-0.00286768
-2.32624e-05
0.00206278
0.00179962
-0.00245119
-3.97876e-05
0.00249087
0.00313687
-0.00397506
-0.000295821
0.000925495
0.0029122
-0.000135189
0.0061638
-0.00140158
-0.00093857
0.00169011
-0.000751516
-0.00223037
-0.00238829
-0.000115944
0.00108729
-0.000600871
-0.000953702
-0.00410545
0.00414078
0.00568457
-0.000265771
-0.00540837
0.00167202
-0.00523813
-0.00336403
0.0021246
-0.0059632
-0.00180709
0.00106651
-0.000353193
0.000402787
0.00139102
-0.003512
-0.00540562
0.00549505
-7.30135e-05
-0.00275481
0.0031491
-0.00269625
0.00320308
-0.000416097
0.0012426
-0.000437755
-0.00332221
0.000958955
0.000320677
0.00357532
4.32625e-05
-0.00147229
-0.000663921
-0.00464136
0.00531273
0.00587996
-0.00142485
0.00526865
-0.00210153
0.000726554
-0.00640905
0.00154574
0.00491496
0.00541737
0.000259658
-0.00563232
0.00462905
1.48906e-06
0.00259379
-0.00255399
1.76089e-05
0.000570086
0.00413152
-0.00469504
-0.00453181
0.00403406
-0.00178214
0.00231928
0.000666508
-0.00064239
0.000313758
0.00126693
-0.000283332
-0.000174331
-0.00334892
0.00352447
0.00174368
-0.000241618
0.00106925
-7.83818e-05
0.00533695
-0.000258295
-0.00235019
-0.000924384
-0.00215152
0.00542204
-0.00456364
-0.00232579
0.00298559
-0.000425542
0.00601107
-0.0045483
-0.00144387
-0.000957644
0.00248142
-0.00152372
-0.00209854
0.00243116
0.000551334
-0.00388218
0.000243091
0.00363349
-0.000329471
-0.00257225
0.00146018
-0.00213093
0.000670705
0.0011188
0.00107668
-0.000737104
-0.00114523
0.00165254
0.00257977
0.00311843
-0.000455643
0.00297073
-0.00251509
0.000957484
-0.000489222
0.00170446
-0.000773818
-0.000951719
-0.00198058
0.00293335
-0.000170707
-0.00429171
0.0044744
0.00132583
-0.00248003
-0.0018163
0.00100901
-0.00108454
-0.00133565
0.00242059
-0.00423577
0.0058451
-0.0016001
0.00739249
-0.0025062
-0.00481745
0.000846842
-0.00127215
-0.00639761
0.00610019
0.000330575
0.00121788
-0.00218473
-0.00215332
0.000654108
0.00149939
-0.00518072
-0.000848257
0.000611998
-0.00180462
0.00357043
-0.00394056
0.000374777
0.000816578
0.000421301
-0.00123788
-0.00588778
0.000105329
-0.000603495
-0.000588823
0.00119232
-0.000961221
0.00183845
-0.000877018
-0.00470504
0.000395538
0.00101021
-0.00178594
0.00582044
0.000746813
-0.00070928
-0.000806424
-0.000683955
0.00428539
-0.00358847
0.00591248
-0.00552993
-0.000346061
1.05155e-05
-0.0018771
0.00596458
-0.00556997
0.00106927
0.00452087
-0.00573981
-0.0021249
0.0057675
-0.00357585
0.000684607
0.00353409
-0.00421816
0.00554794
-0.00525253
0.00495907
-0.00327037
0.00199209
0.00127895
-0.00641323
0.00255105
0.00386972
0.00365651
-0.00130999
-0.00172968
0.00311104
0.00227779
-0.00349941
-0.000206806
-0.000788961
0.00150183
-0.00197428
0.00047245
0.00297457
-0.00392489
-0.00216727
7.66701e-05
-0.0045964
0.000175983
-0.00526918
0.00510562
0.00035449
-0.00296333
0.00513907
-0.000540713
-0.000848746
-0.00563338
0.000456105
0.000357188
-0.000628572
-0.000570947
-0.000371516
0.000942464
0.000849922
-0.00144863
-0.00316728
7.27166e-05
0.000547243
-4.57565e-05
-0.000387863
0.00173825
-0.00621278
0.00449982
0.00174067
-0.00172933
1.84032e-05
0.00123692
0.00132666
0.00504225
-8.8534e-06
0.00275453
-0.00352856
0.000773437
0.000191645
0.00408461
-0.00425963
7.915e-06
-0.00100446
-3.62913e-05
-0.00102915
-0.000943397
0.000475483
-0.000195279
0.000716813
-0.000163712
0.00193232
-0.000807043
-0.00129102
-0.00387799
0.00519459
0.00137434
0.00233674
-0.00371031
0.000959601
-0.00086599
0.00359706
-0.00426889
0.000847329
-0.00181785
0.000970606
0.00615132
-0.00603667
-0.000106359
-0.000164616
0.00022764
8.93702e-06
-0.00555644
-0.00106412
-0.00147837
0.00233923
-0.000860635
5.56069e-05
0.00121786
0.00386907
-0.000366233
-0.00457816
0.00239263
-0.000290587
0.00125253
0.000579945
-0.00255166
0.000763793
-0.00136728
-0.000620178
0.00337187
0.000854453
-0.00110151
0.000452968
-0.0022825
-0.000567338
0.000526305
0.000122426
-0.000618615
-0.00287991
0.00464082
-5.0504e-05
-0.00517751
0.00527973
0.0011534
-0.00293457
0.0031237
0.000128964
-0.00309136
-0.00176327
-0.000826183
0.00490323
-0.00252161
0.000763068
0.00463557
-0.00538363
-0.00100582
-0.00240241
0.0034109
-0.00203136
0.00196542
6.60113e-05
0.000859133
0.00149541
-0.00235417
-0.00606249
0.000444282
0.000482935
-0.000739516
0.00215607
-0.00103716
0.000351907
-0.00566683
0.00531785
-0.00552715
0.000233407
-0.000538748
0.00230423
0.00271124
0.00112323
0.00136335
0.000792785
-0.00408623
0.00446288
-0.000914588
0.00176199
-0.00230551
0.00018599
0.00211997
-0.00251547
-0.000634951
0.00315046
0.0036237
-0.00317696
-0.000445982
-0.000358417
-0.000670772
0.00449577
-7.61665e-05
-0.000779217
0.00201592
0.00110909
-0.0006879
-0.000421183
0.00120528
0.000727131
0.00107357
1.01569e-05
-0.00108371
-0.000691105
-0.00146196
0.002108
-0.00553563
0.00267873
0.00100202
-0.000151408
-0.00397752
0.00297462
0.00077827
-0.000313144
0.00151849
0.00066422
-0.00011956
0.000801907
-0.002944
-0.00022202
-0.00219113
0.00204509
0.000146391
0.00164918
0.00107175
-0.00272135
-0.000396857
0.000938328
0.000780014
-0.00135848
0.000578468
0.00174129
-0.00414021
-0.00226236
7.15039e-05
-0.000217894
-0.0022242
-0.00181587
0.000524631
0.00129128
-0.00362631
-0.00494833
0.00368178
0.000868801
0.00472201
0.00544618
-0.000700437
-0.00472792
0.000110875
-0.00301653
0.00085238
-0.00134596
-0.00177875
0.000843665
-0.0011098
0.000380433
0.000729365
0.00451753
-0.00416988
-0.00293625
0.00332122
-0.000450503
0.00126708
-0.000958286
0.00169428
-0.000735997
-0.00465036
0.0046729
-1.19087e-05
0.00280812
-1.94896e-05
-0.00278719
-0.00269637
0.00392853
-0.000983602
7.90586e-06
0.001662
-0.00308542
-0.00417278
0.00163186
0.00063699
0.000843512
-0.00178205
-0.000281089
0.00106111
-0.00116554
-9.7653e-05
-0.00381056
-0.00166964
0.000832049
0.000837637
-0.000653277
-0.00326243
-0.00195249
0.00054818
0.00326994
-0.00189519
-0.00236728
0.00172877
0.00100143
0.00298058
-0.00397939
0.000341581
0.0067185
-0.00483719
-0.00184504
0.000151893
-0.00550414
0.00331635
-0.000711014
-0.00260424
6.10524e-05
0.00036377
0.00186155
0.00145574
-0.00253407
0.00167102
0.000863544
-0.000463158
0.00202254
-0.00155908
0.000252682
5.79501e-05
-0.00027592
0.000147326
0.00115999
-0.0012604
0.00582279
-0.000988764
-0.00481815
-0.00504256
0.000254633
0.00481525
0.00108589
0.000311609
0.00463708
0.00260092
-0.00254127
0.0002362
-0.00246399
0.00150645
0.00012079
-0.000402983
0.000100556
-0.00225506
0.00156904
4.18256e-05
0.00473896
-0.00467074
0.000739976
0.000369112
-9.75044e-05
0.00328288
-0.00318373
-0.00245953
0.00249332
-3.36051e-05
0.000298436
-0.00207083
0.00110984
-0.00493545
0.00151361
0.00357765
0.00448632
-0.00308063
0.000434118
-0.00271647
0.0022526
-0.00591177
-0.000264926
0.0033871
-0.00294845
-0.000437238
-0.000332389
-0.00113926
0.00147165
-0.00206988
0.00472842
0.00270265
-0.0019229
0.00133071
0.000592248
0.00339008
0.000954136
0.000653014
-0.000677927
-0.00124492
-0.000184683
0.00564711
-0.00293678
0.00201281
0.00325575
-0.00449352
0.0032785
-0.00586779
0.000413502
-0.00171032
-2.14819e-05
0.00173185
-0.00073227
0.000736639
-0.00126034
0.000523707
0.0044512
-0.00510813
-0.000124774
0.00482712
-0.00594931
0.000531959
0.00548904
-0.00503861
0.000969558
0.00408129
-0.00462553
-0.00178027
0.00444861
-0.0035089
-0.00071129
-0.000575151
0.00128643
0.00341098
-0.00350667
0.00235424
-0.000764856
-0.00105138
0.00356782
-0.00291816
0.000402787
-0.00546605
-0.000407477
-0.001103
0.000482019
0.00062098
-0.000296973
-0.00435278
-8.64424e-05
-0.00197934
0.00224684
0.0012462
-0.00170912
0.000902123
-0.000785589
0.00158954
0.00479639
0.000185389
0.00563307
-0.000497412
-0.00164942
-0.003139
0.0036042
-0.00190535
-7.5852e-05
0.00198146
-8.85518e-05
-0.00483623
0.00493755
-0.00132317
0.00247752
0.000207262
-0.0048468
-0.00572654
0.00029757
0.00223941
-0.00137993
0.00104786
0.000277168
-0.00132503
0.00267017
-0.00236691
-0.00030258
-0.000722938
-0.00479475
0.00398734
-0.00484192
0.000926318
-0.00165862
0.00255691
-0.000898072
0.00332759
-0.00196839
-0.000506774
0.00247553
-0.00115082
0.00632511
-0.00507405
0.000248283
0.00591939
0.000897414
-0.0010918
-0.000464667
0.000624178
0.00267823
-8.60333e-05
0.000349154
-0.00233094
0.00198174
-0.000556215
0.000284872
-0.00121723
-0.00321591
0.00445676
-0.00081936
-0.000238538
0.0010579
-0.00047617
0.00113058
-9.59011e-05
0.000886353
-0.00123077
-0.00140076
0.0030494
0.00198079
-0.000249385
-0.0023923
0.002786
0.00463561
-0.00441621
-9.80845e-05
0.00114595
-0.000802605
-0.000249378
0.00570896
-0.000257272
-0.00544121
0.00456861
-0.00575518
0.00310327
-0.00351145
0.000409011
0.000967372
-0.000896719
-7.06528e-05
0.000116059
-0.00319235
-0.00514878
0.00504567
-0.00310986
0.00538628
0.00617864
0.00478495
0.00335159
0.0033924
-0.000174837
0.00124842
0.00345243
-0.000348582
0.00468475
-0.00410793
0.00422224
-0.00407389
-6.62227e-05
0.00081971
-0.00118768
0.00234334
-0.00471562
0.00378393
-0.00244075
3.6078e-06
-0.00558187
-0.000292674
-0.00185999
0.0056265
-0.00376028
0.000980098
-0.00109604
0.00145273
0.000848883
-0.00230182
-0.0046662
-0.000720028
-0.000373151
0.000144524
0.00228164
-0.00295205
0.00395624
-0.00168985
0.000845876
0.000844009
0.00114014
-0.000284109
-0.000856035
0.00709587
-0.000962018
-0.00608013
0.00241293
0.000760717
-0.0011484
0.000387688
-0.00202974
0.00262458
0.00220835
-0.00211411
0.00166755
-0.00277856
0.00101515
-0.000226753
2.13439e-06
0.000240753
-0.0024994
0.0024737
0.000126785
0.000239148
0.00126674
-0.000173072
-0.00151167
-4.24859e-05
-0.000212638
0.000611827
-0.000106829
-0.00377359
0.00388454
-0.00337159
-0.000509053
-0.000190457
-0.00482131
-0.00368811
0.00395312
0.00203129
-0.00257527
0.000852646
0.000770629
-0.00162328
0.00305658
0.00330645
-0.00069547
-0.00565506
-0.000370877
0.000462514
-0.00618514
0.000684697
-0.00332765
-0.000482799
0.00383019
0.00479959
-0.00476889
2.66257e-06
0.00280268
0.00383479
0.00174758
-0.00329107
0.00154431
0.00234051
-0.000610265
0.000215189
-0.00316346
0.00228624
0.00110187
0.00269362
0.00451558
-0.001001
0.000597517
0.000403482
-0.000969078
-0.00161416
0.0025831
-0.00529026
-0.00047243
-0.00315163
0.00137877
0.00177289
-0.000472368
0.0009741
-0.000867327
0.0049107
-6.44329e-05
-0.000305426
-0.00517927
0.00553186
-0.00173184
0.00233123
-0.000599094
0.0027652
-0.00101685
0.000831423
0.00444555
0.00355737
0.000905098
-0.00445886
0.00547216
-0.00416393
-0.00114994
0.00392863
0.000532471
-0.000232036
-0.000935611
-0.0012085
0.00214444
-0.00537554
0.00206938
-0.00152176
0.00169323
0.0050366
-0.00479258
-0.000197835
0.000131514
-0.00228814
0.00215698
0.00549761
0.000392195
-0.00576585
-0.0051689
0.00057329
-0.000302478
-0.00498808
0.00529723
-0.000160863
-0.00392081
7.61957e-05
0.00138391
-0.00111107
0.00054012
0.00327052
-0.00315004
-0.00192072
-0.00123124
-0.00378741
0.000254427
-0.00609179
-0.00112395
0.000765531
0.000190848
-0.000379887
-0.00281297
0.00319355
0.00458808
0.00104611
-0.0055966
0.0035596
0.000748147
-0.00111063
0.000362484
0.00513579
-0.00539547
0.000499046
0.00544655
-0.000206783
0.00413412
-0.000422152
-0.00370501
0.0023231
0.00330252
-0.00559846
-0.000499429
-0.000413621
0.000903572
0.00488915
-0.00081952
-0.000998234
-0.0013236
0.000504248
0.0010946
-0.000275556
-0.000207829
0.00170966
-0.000475168
-0.000525829
-0.000177583
-0.00166555
0.00242868
-0.000763159
0.00135457
-0.000652329
0.000167465
-0.000164701
9.93185e-06
-0.00486867
0.00119917
-0.00478164
0.00371268
-0.000908454
-0.00145844
0.000417912
-0.00549216
-0.000544203
-0.000716127
0.00248434
-0.00294002
0.00240633
-0.000309199
-0.00209669
0.00635523
-0.00540105
-0.00093412
-0.000821419
0.0016959
-0.000874426
-0.000738139
0.000916052
-0.000177912
0.000347363
-0.00117511
0.000827748
0.00307531
-0.00364119
0.000566746
-0.00382602
0.00356563
0.000263929
-0.000370935
0.00139122
-0.000599102
-0.000846241
0.005671
-0.00075202
-0.00482989
-0.000283078
0.00114046
-0.000857379
0.000910234
0.00131241
0.00185238
0.000169735
-0.00202203
-7.8735e-05
-0.00118757
0.00126635
0.00118034
-0.00167416
-0.00472449
0.000987001
0.00558282
-0.00446713
-0.00110725
-0.000196389
0.00348464
0.000918813
-0.00376775
0.00285003
-0.000593709
-0.00064406
-0.000694678
-0.000521568
0.00131518
0.00325814
-0.0044526
-0.00092208
2.76699e-05
0.00089441
-0.000570775
-0.00413496
0.00233728
-0.000785803
0.00163844
0.00135188
-0.00168428
-0.000601203
0.00195304
-0.00491037
0.00474028
0.00290097
0.00337222
0.000471903
-0.00383996
-0.00454173
0.00446592
0.00137021
-0.000533703
-0.000189215
0.00259543
-0.00236795
0.000922338
0.000476265
-0.00139858
-0.000909448
0.000134501
0.00109998
0.000112347
-0.00495182
0.00265587
-0.0019335
-0.00072189
3.61308e-05
0.00155703
-0.00246505
-4.49627e-06
0.00384199
-0.00382467
-0.00133185
0.000650835
0.00103356
-0.00154954
0.000515987
0.000826371
-0.00194037
0.00111406
-0.00337589
-0.000514151
-5.35624e-05
0.000603441
-0.00413075
0.0041401
-0.000493894
1.70316e-05
0.00610824
-0.00510275
-0.000863421
-0.00225805
0.000290062
-0.00280639
0.00383173
-0.00513928
0.00549416
0.000235228
0.00359872
-0.00382933
0.00080817
-0.00109228
-0.00437296
0.00385512
0.000520917
0.000478883
-0.00494852
0.00446985
0.000480715
-0.001439
-0.006487
0.00636594
-0.000651831
0.000150116
0.00460799
-0.000369731
-0.00467514
-0.00145016
-0.00299797
0.00446089
-0.000838137
0.000840947
-2.81044e-06
0.00224057
0.000164085
-0.000937808
1.57283e-05
0.00185137
-0.00048763
-0.000206119
-0.00507153
0.000424542
0.00400424
-0.000550643
-0.00345048
-2.97834e-05
-0.000307348
0.00499696
-0.00458893
0.0057065
0.000569577
-0.00621875
0.000751409
0.000647791
-0.00139918
-0.0034142
0.000357524
-0.00424016
0.00416248
0.00306966
-0.00256765
0.00208614
-0.000675279
-0.00114055
-0.00635244
0.00465097
0.00126849
-0.00241401
-0.00546656
0.00421868
-0.00279994
0.00125253
-0.00140413
0.000151604
-0.00235782
6.38431e-05
0.0022944
0.00240669
-0.00459214
0.00547771
0.0053381
-0.00523789
-5.18584e-05
0.000805923
-0.00110174
0.000556151
0.00111204
-0.0016682
-0.00131767
-0.000937232
-0.000539468
0.000871023
0.00426959
4.86529e-05
0.000993268
0.00446833
0.00127296
0.00454588
6.08836e-05
0.00083653
0.000375693
-0.00406122
-0.00171331
-0.000801854
0.00251602
-0.000290096
0.00385534
0.00126931
-0.00597196
0.00473776
0.00452087
-0.000918072
0.00123552
2.453e-05
-0.00138543
-0.00374027
-0.00207174
0.0022036
-0.0009494
-0.00532465
0.000815953
-0.000384801
0.00122669
0.000506859
0.00316947
0.00323907
0.00387939
0.00151512
-0.0012454
0.000569038
0.00052556
-0.000482964
-0.00308021
-0.00109621
0.000480821
0.000615392
-0.00459346
-0.000418205
0.00509467
-0.00347513
0.000532257
0.00387482
-0.00403469
-0.00126648
-0.000685894
-0.000693873
0.00587285
0.000425733
0.00300887
0.000248136
-0.00325791
0.00239676
0.000454061
0.00249182
-0.00294584
0.00068718
-0.00268767
0.0016036
-0.000857081
0.0017854
0.00163675
-0.00140856
-0.000228153
0.0011873
-0.0054132
0.000123724
-0.00158735
0.00146361
0.000982095
-0.00105426
0.0043749
-0.00393255
-0.00043519
-0.000497797
-0.00124703
-0.0021381
-0.000395431
-0.00543581
0.00635566
-0.000863314
-0.0039903
0.00369924
0.00291519
-0.000178873
0.000569464
-0.00507124
0.00325638
0.00457312
0.00316503
0.00466997
-0.00448305
-0.000519266
-0.00542152
0.00599145
-0.00608482
0.00473009
0.00136224
-0.00496043
-0.00129132
0.000580024
-0.000733459
0.00429408
-0.00431838
-7.37009e-05
0.0044034
-0.00187274
-0.0058563
0.00111095
0.00481437
-0.00562004
0.00548388
0.000133617
0.00309303
0.000258078
-0.00334937
0.00110173
-0.00189024
0.000788558
0.000238131
-0.0019484
-0.0025713
7.29119e-05
-0.00223174
0.000958516
-0.000768392
0.000829217
-0.00127121
0.000441994
0.00250385
0.00139758
-0.00389859
-0.000661206
-0.000467235
0.00112844
0.00296837
-0.00144876
-0.00151921
0.000245708
0.00263973
-0.000752508
0.00417452
-0.00465051
0.000488369
0.000626595
0.000659253
-0.00128584
0.00104041
-0.000292258
0.00284447
-0.000851831
-0.00122401
-0.00597359
0.00047928
0.00530329
-0.00552058
0.000233397
0.00143414
-0.00270436
-0.000620131
0.000942464
-0.000322332
0.00059256
0.00344844
-0.0040352
-0.00535576
-0.000334415
0.000298531
0.00145748
-0.000696773
0.00216069
-0.00133086
-0.000829578
-0.00446717
0.000161075
0.00318254
-0.00176985
0.00211894
-0.000749944
0.00311467
-0.00236206
0.00379705
0.000584655
0.000903443
-0.00118652
0.000702251
-0.00201975
-0.00205318
0.0066821
-0.00461232
-0.00183352
0.0012323
0.00192208
0.000123342
0.00282842
-0.000965154
-0.00186323
0.000515508
0.00112127
-0.000782933
0.00441171
-0.000115797
-2.30025e-05
0.00541356
-0.00103083
0.0023808
-0.00168705
0.00125084
-0.000897406
-0.000353429
-0.00383186
0.00180332
-0.000422989
0.00108021
0.000123753
-0.00175251
0.00162907
-0.00034186
-0.00362851
0.00404503
-0.000197738
-0.000799212
0.00071693
6.6787e-05
-0.000783717
0.0045263
-6.67157e-05
0.000906356
0.00143074
-0.000556554
-0.00628777
0.000914531
0.00496914
-0.000138157
-0.00081115
0.00167142
-0.000860294
0.0012912
-0.000257622
-6.80482e-06
0.00240006
0.000570724
-0.000876832
0.00552599
-0.00117677
-0.000763515
-0.000124542
1.06062e-05
-0.00102103