/*--------------------------------*- C++ -*----------------------------------*\
| =========                 |                                                 |
| \\      /  F ield         | OpenFOAM: The Open Source CFD Toolbox           |
|  \\    /   O peration     | Version:  v2012                                 |
|   \\  /    A nd           | Website:  www.openfoam.com                      |
|    \\/     M anipulation  |                                                 |
\*---------------------------------------------------------------------------*/
FoamFile
{
    version     2.0;
    format      ascii;
    class       surfaceScalarField;
    location    "600";
    object      phi;
}
// * * * * * * * * * * * * * * * * * * * * * * * * * * * * * * * * * * * * * //

dimensions      [0 3 -1 0 0 0 0];
oriented        oriented;


internalField   nonuniform List<scalar> 
14907
(
-0.449876
0.309498
0.140389
-0.580769
0.367942
0.212863
-0.227761
-0.0186478
0.24634
0.587957
-0.587285
-0.0581707
0.0282507
0.0299199
0.420925
-0.530455
0.109453
0.105529
-0.0603589
-0.0451653
0.161325
-0.159777
-0.00154872
0.399217
-0.222753
-0.176332
-0.379743
-0.0978153
0.477598
-0.0103528
-0.00123779
0.0115906
0.0664346
0.522284
0.349256
-0.610804
0.261764
0.643488
-0.344386
-0.299087
0.231068
-0.124087
-0.106984
0.543644
-0.356985
-0.186421
0.302559
0.241315
-0.292329
-0.299065
0.591379
-0.250648
-0.199196
-0.00976642
0.0686494
-0.0588841
-0.397526
-0.131547
0.529837
0.115091
0.0524577
-0.167549
0.393983
-0.622679
0.229015
-0.546501
0.291155
0.255187
-0.342127
-0.238626
-0.260139
0.141522
0.118638
0.630165
-0.36271
-0.267307
0.26595
-0.146547
-0.119422
0.396332
-0.19619
-0.200014
-0.3005
0.194416
0.106053
-0.181029
0.411847
-0.230804
0.000263915
0.00684202
-0.00710595
0.204459
-0.584319
0.119045
0.131155
-0.250198
-0.100492
0.232945
-0.132481
-0.313073
-0.23362
-0.29503
0.158898
0.136152
0.0894001
0.12117
-0.210537
-0.580261
0.267505
-0.0967903
0.148519
-0.0517493
0.0369922
-0.0467591
-0.229532
0.131985
0.0975341
0.0826145
0.0229196
-0.137984
0.284877
-0.146961
-0.033574
-0.024597
-0.148476
0.236276
-0.0877908
-0.280055
0.204847
0.0751753
-0.106328
-0.0876194
0.193961
-0.0619208
-0.147714
0.209635
-0.163183
0.271024
-0.107827
-0.583458
0.117155
0.466535
-0.0812
-0.191773
-0.0344285
0.164474
-0.130079
0.369239
-0.265103
-0.104165
-0.110379
-0.184634
0.434704
-0.0137104
0.302763
0.093691
-0.165994
-0.114109
0.273749
-0.154716
-0.179374
0.144894
0.289664
-0.494215
0.204593
0.311723
0.133659
-0.445238
-0.222442
0.121926
0.0813047
-0.309133
-0.267649
0.213807
0.053849
-0.135927
-0.11983
0.255741
-0.0791033
0.231545
-0.152462
0.0865844
-0.0769016
-0.00968442
0.000189922
-0.00721995
0.00702995
-0.171764
0.350309
-0.178499
0.221625
0.147591
0.0604272
0.144374
-0.282428
0.130331
-0.156865
0.0265314
0.187361
0.077111
-0.264544
0.495575
-0.204869
-0.00560098
0.0338514
0.415825
-0.210157
-0.205635
0.16663
-0.0931518
-0.0734854
-0.0308139
0.0801181
-0.0492996
-0.184265
0.122361
-0.0855398
0.0519655
-0.124516
-0.147662
0.272114
0.242272
-0.122548
-0.119721
-0.2548
0.175665
0.518405
0.0863888
-0.604811
0.0808126
-0.286512
0.205636
-0.00256075
-0.102151
0.104711
-0.325547
0.10493
0.220537
0.350777
-0.269965
-0.144424
0.275743
-0.131309
-0.0462697
-0.0392704
0.183684
0.082248
-0.28519
-0.15963
-0.140903
0.129517
-0.283323
0.153844
0.485985
-0.188592
-0.29733
0.170135
0.150581
-0.320681
-0.19475
0.0979327
-0.399401
0.132961
0.266553
0.39619
0.200825
0.108366
-0.127271
0.0189007
-0.153273
0.0636015
0.0896692
0.546942
-0.0287176
0.258663
-0.142702
-0.11596
-0.12668
0.131338
-0.00465995
-0.389845
0.314864
0.0748886
0.148817
0.337214
-0.589524
0.192737
-0.235648
-0.27097
0.572489
-0.303286
-0.268721
-0.468624
0.319806
0.148928
0.222737
-0.128674
-0.0940851
-0.00837111
0.008561
-0.207517
-0.0601284
-0.250824
0.439198
-0.18825
0.269537
-0.350868
0.0813216
0.165206
0.296684
-0.167114
0.00173219
-0.00231738
0.000585043
-0.122954
-0.202702
0.0875139
0.0738106
-0.138625
0.284796
-0.146188
0.199517
0.179183
-0.378677
0.14066
-0.0322993
-0.266258
0.141709
-0.124161
-0.0356165
-0.224813
0.179472
0.0453268
-0.0167194
-0.109962
-0.151993
0.369753
-0.217698
0.0501245
0.116498
-0.367508
0.210238
0.157269
0.00286083
-0.00988826
0.0070274
-0.17632
0.0926138
0.0837002
-0.217488
-0.181798
-0.0921383
-0.0655287
0.157659
-0.00491086
-0.00158735
0.00649813
0.133174
-0.277637
0.0729494
-0.179272
0.0926432
-0.0952049
0.141069
-0.252964
0.111864
0.0187338
0.250794
-0.128359
0.248744
-0.120411
0.120061
-0.108823
-0.0112433
-0.230588
0.351411
-0.120917
-0.273304
-0.195235
0.140012
-0.0194725
-0.120552
0.444793
-0.227227
-0.217463
0.314103
-0.143904
0.235492
-0.127004
-0.108495
-0.363172
0.154075
0.209166
-0.00878969
0.529272
-0.520527
0.0296155
-0.0105371
-0.0190755
-0.000183285
-0.00303505
0.00321823
0.582069
-0.300402
-0.281208
-0.198872
0.548232
0.245868
-0.120848
-0.125036
-0.0419231
0.353782
-0.137044
0.0449018
0.00379264
-0.0063589
0.00256618
0.0138274
-0.00421074
-0.00961666
-0.183814
0.0896273
0.0941798
-0.128689
-0.222371
0.351056
-0.198479
-0.164627
-0.14811
-0.12804
0.276079
-0.184635
-0.182875
-0.109656
0.00126908
0.108387
0.0238147
-0.0200223
0.00793016
-0.00689909
-0.00216648
0.00198307
0.133775
0.153543
-0.287356
-0.463639
0.294551
0.168886
0.0171498
-0.06342
0.0672048
-0.0647584
-0.00244759
0.0283224
0.0893865
-0.117715
0.12806
-0.0595164
-0.0685288
-0.0134792
0.0112418
0.00223744
0.28052
-0.144278
-0.13629
0.0613844
0.0251985
0.110211
0.0802995
-0.190524
0.11521
0.130643
0.00491297
-0.00464909
-0.0921075
-0.158795
0.250825
-0.0960557
-0.128775
-0.125459
-0.104087
-0.000147041
0.00187908
-0.105909
0.134795
-0.0288907
0.263765
-0.113226
-0.150539
-5.2378e-05
0.0103803
-0.010328
-0.104907
-0.135673
0.240603
0.0565661
0.0153601
-0.0719263
-0.262015
0.133611
-0.00091282
0.0305309
-0.0786589
0.0958081
0.168676
-0.0274841
-0.141192
0.00599249
0.0754041
-0.0813973
-0.125058
-0.105618
0.230696
-0.209956
0.390083
-0.180202
0.361401
-0.560134
-0.291745
0.209822
0.0819127
0.0161344
0.10307
-0.119211
0.253365
0.0104121
-0.0890855
0.323084
-0.233969
0.00697205
0.0602316
0.139412
-0.4089
0.449113
-0.040039
0.00399034
0.0525757
0.409029
0.146188
-0.554699
-0.29971
-0.290813
0.590414
-0.531001
-0.00680246
0.537116
-0.100131
0.106123
-0.613799
0.604185
0.0104741
-0.109057
-0.000600185
0.0864132
-0.0934852
0.00707227
-0.256188
0.135322
0.0281656
-0.134075
-0.112273
0.300012
-0.187824
-0.316952
-0.146115
0.462901
-0.179025
0.145571
0.0334489
0.480827
-0.214452
-0.26632
0.138837
0.0838772
0.237423
-0.111046
-0.126387
0.013788
-0.100438
0.0866502
-0.106598
0.196036
-0.194729
0.152661
0.0420431
-0.223474
0.118941
0.104556
0.176826
-0.0916078
-0.0852184
0.459408
-0.246664
-0.212616
0.139866
-0.0140769
-0.125795
0.362939
-0.141333
0.200859
-0.057788
-0.00647073
0.064258
-0.274172
-0.189656
0.208397
0.154519
0.192096
-0.210828
0.173993
0.061493
-0.18604
-0.199893
0.386166
-0.730652
0.477163
0.25384
-0.100722
0.243024
-0.142277
0.283899
-0.162801
-0.121056
0.233123
-0.361793
0.141856
0.13514
-0.2833
-0.229299
0.10059
-0.389685
0.13909
-0.417648
0.236601
0.55603
-0.00276333
-0.553048
0.109521
0.149142
0.0905923
-0.270263
0.179617
-0.693023
0.40068
-0.323815
-0.216445
0.540795
-0.343626
0.17192
-0.135756
-0.05688
0.1926
-0.068668
0.0824556
-0.0975178
-0.0863008
-0.00959018
0.00953779
0.113788
-0.0854694
0.0266933
0.0913028
-0.118002
0.0790373
0.152027
-0.0275332
0.202876
-0.175332
-0.141974
0.124276
0.0177067
-0.276371
0.175653
-0.23489
-0.155058
-0.393922
-0.336425
-0.158152
-0.133605
-0.379828
0.193978
-0.0862197
0.201317
0.258771
-0.0590579
-0.199737
0.198776
-0.521296
-0.0104463
-0.0907256
0.106856
-0.174528
0.0898122
-0.00339895
0.116077
-0.0152474
-0.0930793
0.108325
-0.2167
0.111816
0.162829
0.121114
0.20483
0.191102
-0.395735
-0.00778981
0.139692
-0.131946
0.0552528
-0.285907
0.177094
-0.0669043
0.254172
0.0106827
-0.264927
-0.101222
0.00779511
-0.00493433
-0.00308376
-0.405768
-0.376536
0.237082
0.139423
-0.0970606
-0.044902
-0.176006
0.189794
-0.303083
0.189047
0.262709
-0.451832
0.097034
-0.232828
0.0625587
0.0655174
0.0466482
-0.163237
0.116568
0.125233
-0.00517718
0.0071976
-0.590513
-0.179139
0.540694
0.186208
0.111598
-0.334241
0.0957621
0.0810643
-0.36476
0.23691
0.127868
-0.125705
0.415558
-0.331429
0.399743
-0.0682888
-0.315235
0.202888
-0.236139
0.143452
0.0927283
-0.128591
0.187361
-0.0587817
0.0201186
-0.110081
0.0899617
-0.0136033
-0.0181715
0.031774
-0.0658239
-0.113607
0.0252535
0.0505549
-0.0758093
0.232853
-0.406444
0.173915
0.157505
-0.165295
0.25366
0.376634
0.0127138
-0.0128475
-0.11136
0.134613
-0.0232553
0.005528
-0.0958617
0.0903328
-0.00611665
-0.181047
-0.288286
0.469107
0.221306
0.037442
0.130533
0.219817
0.100217
0.100878
-0.201122
-0.0819298
0.644616
-0.345053
-0.299491
-0.210783
0.138648
0.0721225
0.392699
0.180263
-0.583298
0.600476
-0.01695
0.140549
-0.082187
0.102305
0.587803
-0.346913
-0.240711
0.147802
-0.283498
0.305186
-0.159278
-0.145948
-0.209403
0.0807855
0.00951576
-0.0108064
0.00129064
-0.156609
0.262376
0.320122
-0.345941
-0.226501
0.57258
-0.22509
0.306314
0.0952982
0.0633908
-0.158702
0.142316
0.0263588
-0.0238143
0.115115
-0.00586631
0.112739
-0.106873
-0.183775
-0.0523248
-0.233603
0.137526
0.120513
0.249601
-0.140321
0.276338
-0.135998
-0.59602
0.296874
0.133473
-0.0259975
-0.107476
-0.0069143
0.261031
0.137825
-0.0713002
-0.126353
0.197651
0.23074
-0.030708
-0.12291
0.153591
0.116815
0.125287
-0.196583
-0.135668
0.253969
-0.11834
-0.127094
-0.0676671
0.118783
-0.135502
-0.124136
-0.0866627
-0.0666858
0.228649
-0.161992
-0.387509
0.216786
0.170688
0.0752026
-0.0810702
0.129721
0.0102812
0.00502253
0.192617
-0.197647
0.166744
-0.0714608
0.133385
-0.36333
0.229715
0.172374
-0.446584
0.393857
-0.260643
-0.15402
0.123293
0.00859721
0.0937386
-0.102337
-0.147909
0.243421
-0.0955111
-0.601971
0.341475
0.260427
-0.187136
0.121275
0.301104
0.295911
0.338099
0.249872
0.00388984
0.172778
-0.382777
0.192691
-0.41385
0.221418
0.00215008
-0.00706103
-0.190473
-0.269082
0.459602
-0.146229
0.0536306
0.092598
0.102583
0.0308899
0.11262
0.0177077
-0.118108
0.0546504
0.0634743
-0.0102895
-0.104959
0.186706
-0.0817681
-0.076135
0.018346
0.329876
-0.572523
0.243029
0.0425961
-0.205759
0.325467
0.271548
0.291628
-0.164868
-0.126799
0.246327
-0.10155
-0.144761
-0.63883
0.231506
0.407379
0.207077
-0.106878
-0.0239434
0.0766478
-0.151613
0.546057
0.371484
-0.502162
0.0726684
-0.0876151
0.0149434
-0.0356514
0.0510115
0.145685
-0.265496
-0.216453
0.414187
-0.1977
0.00154834
0.00638181
0.0292951
-0.135716
0.429961
-0.0102169
-0.0666858
0.00273226
0.344348
0.136572
-0.318256
-0.283798
-0.447779
0.235044
0.212878
-0.166939
0.365122
-0.198002
-0.562326
-0.0205506
-0.366828
0.363755
0.100455
-0.0657605
0.125595
-0.0125548
0.0514899
-0.0389356
-0.581086
0.237128
-0.17965
-0.185084
-0.0803224
-0.0256105
0.105931
-0.251909
0.296025
-0.0442348
-0.082628
-0.102173
0.148799
0.0995122
-0.222056
-0.22518
-0.158852
0.383988
-0.422879
0.206414
0.0924777
-0.0982851
0.00580704
-0.136531
0.0806952
-0.185678
-0.123382
0.255592
-0.132232
0.00104288
-0.0113957
-0.127757
-0.128449
-0.0731318
0.100012
-0.224111
-0.276895
-0.194546
0.471416
0.192638
0.119085
-0.0422612
-0.0768246
-0.181952
0.462842
-0.280886
0.137716
0.0537674
-0.19148
0.196147
-0.312506
0.116398
0.155526
-0.291188
-0.00631192
-4.70491e-05
-0.0917672
0.228584
-0.136772
-0.0926984
-0.188984
0.281737
0.00796964
0.543514
-0.550925
-0.0113828
0.00389225
0.00749055
-0.164704
0.372933
-0.208055
-0.193308
0.10157
0.259193
-0.149014
-0.110166
-0.174801
-0.0678183
0.0552635
-0.0555332
-0.516853
0.412793
0.104364
-0.0333429
-0.174165
0.0883785
-0.236283
-0.502348
-0.500279
0.207334
0.293229
0.172881
-0.38757
-0.00387267
0.00937764
-0.005505
0.184246
-0.395752
-0.468139
-0.144958
0.0782642
-0.158373
0.0801081
-0.0786783
0.168346
0.162545
-0.0110932
-0.151461
-0.593187
0.293361
-0.105557
0.185838
0.00125868
0.242912
-0.0994203
-0.358561
0.17755
0.181047
-0.188466
-0.199081
-0.100357
-0.0759691
0.207645
-0.202653
0.192647
-0.469428
-0.0774154
0.167326
-0.0899209
-0.250217
0.361872
0.0609419
-0.427838
0.173627
0.0637874
-0.23029
0.432003
-0.201618
-0.122089
0.0336356
0.088446
0.225779
0.0889954
0.267689
-0.449654
0.011041
-0.0122788
0.538305
-0.263733
-0.274545
-0.140763
0.294235
-0.585545
0.192829
0.392663
-0.276062
0.152624
0.198366
-0.0597323
-0.354682
-0.161806
0.138376
-0.363489
-0.0872654
0.0858095
0.180047
-0.265875
0.0577919
-0.0455924
-0.0121974
-0.119693
-0.156682
-0.296828
-0.398504
0.599416
-0.130963
0.0263117
0.104649
0.169336
-0.31042
0.140919
-0.31038
0.217703
0.226176
-0.584387
0.358792
-0.308254
0.143474
0.164813
-0.004256
0.121103
-0.116857
0.0616013
-0.0924115
0.205109
-0.131366
0.00926755
0.0253613
0.133059
0.109894
-0.330018
-0.262836
0.592748
-0.202747
-0.164037
0.366828
-0.161851
0.323763
-0.162013
-0.442862
0.529265
0.382709
-0.186237
-0.196208
-0.00676876
0.00961236
-0.00784939
0.00626201
-0.372359
-0.266415
0.0496096
0.129848
-0.00045107
-0.15803
0.158505
-0.166269
0.165871
0.253582
-0.0662549
-0.312967
-0.279684
0.59308
-0.0941365
-0.0664085
0.160546
-0.00565347
0.0981305
-0.046565
0.214512
-0.439566
-0.325433
0.163486
-0.338254
0.0861968
0.253183
-0.443711
0.00609626
-0.00093492
-0.00516146
-0.0888529
-0.0873933
0.176227
-0.115617
-0.145771
-0.194139
0.340008
-0.302331
-0.261144
0.563948
0.258664
0.0648831
-0.323635
-0.172814
0.103564
0.13454
-0.49738
-0.0111497
0.00727699
0.0261318
-0.0617832
-0.0189272
-0.0592477
0.0781748
0.0821601
0.0491758
-0.197432
-0.358178
0.140773
0.24483
-0.116199
-0.128623
-0.114034
-0.0614545
0.175473
-0.000424785
0.00590135
-0.00547657
0.00567199
0.0181426
0.206407
-0.119602
-0.0868296
0.172062
0.442115
0.134237
-0.576354
-0.104992
0.252798
-0.195967
0.162589
0.536711
-0.0946791
0.00163743
0.0121899
0.441139
0.115013
-0.187389
-0.218734
-0.224529
0.125882
0.0986507
0.129318
-0.572011
0.222753
-0.068172
-0.154568
-0.268642
0.148941
0.0875696
0.0573434
-0.14492
-0.0895836
-0.0884819
0.178051
-0.507795
0.50102
-0.102861
-0.147051
0.249921
0.108051
0.124869
-0.154298
-0.0225294
0.129034
-0.0468778
0.0013151
-0.0857032
0.0843871
-0.28185
0.606813
0.126927
0.144111
-0.263396
0.148478
0.114872
-0.0623149
-0.220985
-0.281875
-0.284756
0.566578
-0.269172
0.128843
0.288065
0.148901
-0.436918
0.07929
0.0401924
0.122348
0.0511922
0.0644189
-0.115617
-0.579391
0.349144
0.23009
-0.130339
0.216136
0.5341
-0.307537
-0.133378
-0.180475
0.313823
-0.058485
-0.0176511
0.309867
0.22423
-0.533641
0.254842
-0.128215
-0.126613
0.146205
-0.093744
0.190902
-0.421075
-0.133521
0.235637
-0.199947
-0.0356699
-0.228601
-0.00200292
0.00202363
-2.08302e-05
-0.0706229
0.198671
-0.12805
-0.563363
0.317468
0.246172
-0.0312634
-0.0831551
0.114418
0.00640462
-0.205272
0.198792
-0.596851
0.305875
0.154115
-0.309958
0.155827
-0.183265
0.375864
-0.192513
0.337153
0.259862
-0.241595
0.108936
0.13266
0.0353533
0.223255
-0.03285
0.0589816
-0.100658
0.241708
0.181068
-0.383713
0.151586
-0.298169
0.146614
0.159212
0.0391393
-0.103964
-0.0932823
0.197246
-0.182013
0.381591
0.111733
-0.238574
0.126877
-0.177573
-0.18053
-0.0992414
0.220457
0.32158
-0.149558
-0.17203
-0.179579
0.0899706
0.402714
-0.209754
0.240966
-0.109794
0.191991
0.236564
-0.428551
-0.173763
-0.226776
0.400426
-0.00609775
0.0316726
-0.0255751
-0.262388
-0.185249
-0.0736748
0.0151879
0.387027
-0.214131
0.135095
0.140151
-0.275205
0.550025
-0.304759
-0.245039
0.233913
-0.133846
-0.100045
-0.295068
-0.290527
-0.184966
0.114339
-0.139686
0.329455
0.0761845
-0.107448
-0.214668
0.552777
0.120403
-0.0377813
0.281652
0.163233
-0.136037
-0.0733914
0.469796
0.172974
-0.642385
0.19974
0.100189
-0.035247
-0.328296
-0.165243
-0.0763534
-0.415918
0.23448
0.181469
-0.0592849
0.0187003
0.0266269
-0.0453272
0.111019
0.111749
-0.231801
0.191826
0.04001
0.0972844
-0.121106
-0.137577
0.343073
-0.205525
-0.0552512
-0.0755041
0.130753
0.107424
0.128861
0.508599
-0.304025
-0.155665
0.0782427
-0.0817944
0.0831082
0.0042836
-0.00470839
0.0506118
0.0917967
-0.0133309
-0.0784665
-0.125571
-0.136437
-0.132107
0.268539
0.350495
0.294199
0.247956
-0.0904497
-0.199411
-0.0172806
-0.199442
0.00538306
0.194155
0.314176
-0.10981
-0.121841
0.231609
0.0205311
-0.118053
0.511583
-0.520408
-0.292854
0.159478
-0.135223
0.24699
-0.00512985
0.0114711
-0.00634157
-0.222682
0.0866121
0.0988847
-0.204453
0.113972
0.130866
-0.0324085
-0.475538
0.0197647
0.512136
-0.275825
-0.236357
-0.172628
-0.241477
0.413991
0.215778
-0.0213653
0.0664632
-0.316627
0.00247972
0.010234
0.19387
-0.0822323
-0.111628
-0.00112353
-0.00400658
-0.630834
0.260699
0.370572
0.0554362
-0.0891759
0.0337392
0.000799158
-0.00194937
0.00115012
0.143857
-0.0412746
-0.0211149
-0.178225
0.166829
0.0360514
-0.00488307
0.144742
-0.0552142
0.132763
-0.0775479
-0.300882
0.14153
0.297984
-0.101755
0.074165
0.0140868
-0.0128926
-0.201342
-0.149638
0.350952
-0.0757031
0.153962
0.0298565
-0.000413992
-0.0294419
-0.353955
0.27244
0.0814147
0.258805
0.1741
-0.432987
-0.256378
0.194067
-0.249471
0.129527
0.119919
-0.325101
0.289677
-0.0389975
0.223671
-0.184721
-0.0877013
-0.0432636
-0.0373289
0.112732
0.214946
-0.547131
0.229967
-0.0104292
0.000540868
-0.00801475
-0.0145616
0.0225775
0.185494
-0.17872
-0.179801
-0.395517
0.512865
0.206154
-0.110202
0.0298783
0.0889874
0.104893
-0.0506565
-0.0428286
-0.243366
-0.174722
0.433358
0.188968
-0.35958
0.170736
-0.265024
-0.229163
0.106422
-0.219376
0.112982
-0.221893
0.0347217
-0.0224422
0.00883841
0.261919
-0.506737
0.244966
-0.593776
0.257766
0.335812
-0.167356
0.153578
0.0137751
0.150702
-0.35193
0.130636
-0.214041
0.083456
-0.0616765
0.0855329
-0.0238575
0.165444
-0.268299
-0.0132809
-0.0278241
0.041105
0.00139527
-0.00251879
-0.272828
0.136369
0.195578
0.0708127
0.022569
-0.0933825
-0.00995337
0.0163571
-0.00640379
0.0559951
-0.148434
0.0924401
0.198422
-0.162147
0.0379853
-0.00594721
0.0577009
-0.0517549
0.0950382
0.0727253
-0.167769
-0.15657
-0.144391
-0.55782
0.212028
-0.278954
0.0898806
-6.82087e-05
-0.213001
-0.0187648
0.0676169
0.00251028
-0.0701291
-0.591578
0.261487
0.000899198
0.00861655
-0.0132425
0.10698
0.199793
-0.363754
0.250568
0.160481
-0.411052
-0.00290052
0.0355468
0.373825
0.196156
0.35404
0.206924
-0.108446
-0.0984971
0.00440283
0.000141251
-0.00454412
0.00432527
0.00234353
-0.00666868
0.0444011
-0.0504994
0.15827
-0.299101
0.200746
-0.141146
-0.0596083
-0.148714
0.0935018
-0.4346
-0.145392
0.167086
-0.468857
-0.584429
0.284251
0.0888525
0.0010281
0.386577
0.238859
-0.625401
0.370655
-0.189529
0.144572
0.0561679
-0.177721
-0.126922
-0.0521082
0.282995
0.260114
-0.542747
0.267413
-0.491837
0.224814
0.401196
-0.324552
-0.255011
0.158459
-0.0658523
-0.153584
0.540378
-0.189633
-0.15394
0.0728481
0.111799
-0.184652
-0.104884
-0.00417236
0.00390839
-0.0504319
0.0465232
0.405202
0.200739
-0.605565
-0.161007
0.107926
0.0530801
0.00554084
-0.0135537
0.0270748
0.0307191
-0.12782
0.227322
0.00716869
-0.0125453
0.00537662
-0.001399
-0.128295
-0.191485
-0.41913
-0.128846
-0.124146
0.220994
-0.108229
-0.112774
-0.00562176
-0.00217467
0.00779609
0.101054
-0.563898
0.2821
0.431195
-0.584827
-0.0154732
0.0859614
-0.141215
-0.149905
0.308114
0.291615
0.27167
-0.563012
0.174064
0.17127
-0.345283
0.0995943
0.0671361
0.233566
-0.551105
0.00521863
0.546047
0.115955
-0.21514
-0.139977
-0.296008
-0.288187
-0.175833
0.374928
-0.198957
-0.0378766
-0.0239067
-0.212673
-0.163893
-0.259512
0.112955
0.395483
-0.279905
0.120229
0.123151
-0.0193406
-0.103816
0.534737
0.228944
-0.113868
-0.115119
-0.324323
0.438497
-0.114188
-0.228142
0.122575
-0.058173
0.041255
0.0169179
0.304811
0.292204
-0.0586063
0.062514
-0.0752752
0.214103
0.00573809
0.00198654
-0.00772432
-0.260781
-0.361637
0.143107
-0.0998399
0.215852
-0.0907388
-0.0702684
0.0842926
-0.0116272
-0.198504
-0.0234196
0.0837339
0.00806216
-0.0924253
-0.0745938
0.167028
-0.255946
0.101694
0.154262
-0.0103551
0.554213
0.0399369
0.103919
0.175146
0.289806
-0.464768
0.273373
-0.61854
-0.408152
0.215504
0.192808
0.614846
0.0644278
0.110597
-0.175039
0.383603
0.213412
0.250102
0.0192512
-0.0809301
0.102589
-0.191082
-0.153609
-0.43331
-0.049257
0.138228
-0.0889819
0.145352
-0.256416
0.0333179
-0.155603
0.251489
-0.0958505
-0.057481
0.0246308
0.172874
0.192429
-0.117102
0.141958
-0.00408721
-0.0170093
0.0210965
0.112002
-0.241428
0.129482
-0.000137134
0.0062333
0.336564
-0.599384
-0.05571
0.196965
-0.141218
0.496403
-0.568846
0.0726867
0.155135
-0.287244
-0.146937
0.316173
0.141375
-0.0538161
0.0275421
-0.107683
0.080138
-0.238247
0.127934
0.110325
-0.00926375
-0.282898
-0.325609
0.608551
-0.0611202
0.0478392
-0.272002
0.109249
0.163573
0.195725
-0.359174
-0.0902322
-0.0666364
-0.0273865
0.159979
-0.132582
-0.00455913
0.00595439
-0.147688
0.398284
-0.105616
0.101348
-0.0985388
-0.00634602
0.105841
-0.0316563
0.0828437
-0.292201
0.547266
-0.40628
-0.140707
-0.300187
-0.0914127
0.0634527
0.0279595
-0.407002
0.498709
-0.0921277
-0.400513
0.302716
0.232968
0.189851
-0.422562
0.15755
-0.460697
0.219911
-0.405902
0.259843
0.275863
-0.124294
0.211795
0.185035
-0.396596
0.476649
-0.250997
0.12322
0.0842545
0.12265
0.0959706
-0.14524
0.399865
-0.215616
-0.000527664
0.0062657
0.315842
-0.138164
-0.177677
-0.0407983
0.096234
0.130902
-0.0278378
-0.00804773
0.00508503
0.00296273
-0.0363904
-0.11135
0.147724
0.174949
-0.230638
0.00970066
-0.00464566
-0.00505502
0.0851112
-0.189082
-0.0695836
0.0709624
-0.000582627
-0.0703786
0.16863
-0.0690437
0.565432
-0.467266
-0.129998
-0.0967766
0.226743
0.0143229
-0.347928
0.0915826
0.00129192
0.00166952
-0.00296152
0.284562
-0.292583
0.00806168
0.0727513
-0.0540512
0.0233504
-0.135816
-0.120589
-0.148065
-0.00870204
-0.00210435
0.142392
-0.193895
0.373154
0.507747
-0.0374827
-0.105712
-0.132823
0.43191
0.115654
0.161791
-0.47426
-0.075898
-0.0611503
0.120316
0.12603
0.171499
-0.495801
-0.188494
-0.159408
-0.119818
-0.131199
0.0483831
0.0707008
0.119361
-0.235553
0.169672
0.398198
-0.56803
0.161634
-0.236913
-0.113863
-0.057385
0.171246
0.109906
0.145665
-0.213546
0.471615
-0.25806
-0.00277611
0.00406797
0.183576
-0.298766
0.115148
-0.0114443
0.248339
-0.0571299
-0.112028
0.209029
-0.178838
-0.136472
-0.00691827
0.00791885
0.0819956
-0.0601704
-0.0218132
0.00817217
-0.00614869
0.173247
-0.316967
0.143647
0.127379
0.101524
0.133196
-0.108114
-0.0250822
-0.175017
-0.29951
0.15382
0.58746
-0.132555
-0.106744
0.239324
0.3513
-0.476721
0.45409
-0.170705
-0.134618
-0.0750597
-0.012559
0.0111778
-0.0642894
0.0531111
0.494235
-0.266211
-0.228038
0.309378
-0.130983
-0.178451
0.266862
-0.486009
0.0698892
-0.26391
0.119873
-0.257366
-0.230408
0.488221
0.122606
-0.127496
-0.114077
0.0540939
-0.259546
0.205446
-0.391027
0.219378
0.171803
-0.233163
-0.180129
0.413454
-0.293668
-0.219001
0.51303
-0.145455
-0.0956067
0.241066
0.000791076
0.00361169
0.238822
-0.120148
0.18701
0.389495
0.0919588
-0.0141022
0.0100153
-0.231656
-0.184228
0.218281
-0.511599
0.383348
-0.230909
0.0765812
0.00715174
-0.111307
0.55844
-0.55106
-0.0073274
-0.359645
-0.27082
-0.140872
0.113483
0.0902881
-0.00393536
-0.0863533
0.564033
-0.307202
-0.256933
0.627626
-0.356304
0.199794
-0.106277
-0.0935517
-0.151631
-0.139412
0.291145
-0.234153
0.130303
0.103844
-0.217074
0.158244
0.0588024
-0.1302
0.0746193
-0.16349
0.469009
-0.229351
-0.239726
-0.0389502
-0.138321
0.177259
-0.0162502
0.0694421
-0.0531924
0.151522
-0.0304233
0.0157414
-0.140158
0.124411
0.101748
-0.207436
0.105653
0.107199
0.288169
-0.606428
0.161931
0.155585
-0.317603
-0.103591
-0.124502
0.21263
-0.123634
0.157244
0.160823
-0.318219
-0.188871
0.335488
-0.146589
0.583265
-0.281592
-0.301212
0.281634
-0.146508
-0.00605948
-0.0974815
0.080921
0.0165601
-0.212827
0.160845
0.0519948
0.146236
-0.266832
0.308009
0.099837
-0.172753
0.0729094
0.155319
-0.302302
-0.153728
0.207771
0.0560654
-0.134638
0.0785741
0.101539
-0.213609
0.154981
-0.294705
-0.377127
-0.0445214
-0.0468916
-0.0105805
-0.0895518
0.0259268
0.442987
-0.468431
0.142528
-0.27065
0.124053
-0.151536
0.348691
-0.159633
0.502122
-0.265983
-0.235856
0.351671
-0.0751832
0.199237
-0.0622408
0.195189
-0.133004
-0.157028
-0.0771329
0.00381547
-0.000873788
-0.0029417
-0.139603
-0.136516
-0.309771
-0.0135778
0.0191201
-0.261927
-0.214475
0.476302
-0.0658226
0.0769999
-0.532105
-0.0189402
0.551597
0.118814
0.0881236
0.0446394
0.292868
-0.275672
-0.0172642
0.39859
0.1579
-0.556507
-0.311125
0.161157
0.257394
-0.123712
-0.133685
0.0856611
-0.00908076
0.155126
-0.276917
0.568435
0.00743509
-0.0634493
0.0560136
0.0551566
0.0974812
0.0905451
-0.156952
0.000491958
-0.00142704
-0.0343152
0.153095
0.663512
-0.312954
0.0967214
-0.122334
0.163405
-0.318572
0.155206
0.0140834
0.0745976
-0.0886809
-0.23402
-0.145342
0.280424
0.520253
0.0846584
-0.00529756
-0.00608528
0.315197
0.348331
0.0492946
-0.266406
0.239379
0.12461
0.109325
0.081674
0.10501
-0.158404
0.0969393
-0.260128
0.0425995
0.217511
-0.292191
0.107296
-0.143699
-0.194819
0.0921675
0.102623
-0.177668
0.42791
-0.250183
0.163644
-0.218144
0.0544964
-0.346289
0.16666
0.0215463
-0.0320807
0.00501896
-0.0149253
-0.392549
0.169786
0.00384061
-0.26344
-0.29965
-0.0687671
-0.144049
0.321255
-0.56223
0.240848
0.000888751
0.0029267
-0.217851
-0.348662
0.136001
0.125614
0.432807
0.101639
-0.247096
0.11326
-0.246006
0.132775
-0.501112
-0.151724
0.652977
-0.133414
-0.257455
0.179393
-0.307328
-0.107316
-0.0548317
-0.0753195
0.161063
-0.0857459
-0.13748
0.29185
-0.154308
0.232484
-0.120416
-0.247617
0.141943
-0.15029
0.0727416
0.303537
0.148807
-0.133135
-0.130305
-0.144013
0.298099
0.206137
-0.0637521
0.13329
-0.226751
0.0934814
0.00456945
-0.505591
-0.503985
0.242343
0.0905164
-0.170438
0.079916
-0.348708
0.173014
0.0864798
-0.101728
-0.0828619
0.231329
-0.00669653
0.098334
-0.0916378
0.142038
0.120922
-0.26295
0.467343
0.140414
-0.329315
0.090904
-0.206617
0.11573
-0.11217
-0.0551892
0.187291
-0.420235
0.128962
-0.101178
-0.0774669
0.178643
-0.103797
-0.394474
0.124692
-0.556169
-0.0311318
0.587359
0.0113813
-0.0764362
0.0703054
0.00613076
-0.21627
0.0960767
0.120185
0.00220311
0.0118837
-0.100471
-0.0812139
0.18169
-0.104779
0.21123
-0.156387
0.042522
-0.0601389
-0.0885734
-0.0797112
0.210406
0.00280154
-0.232383
0.0998431
-0.0619638
0.17434
-0.112385
0.135265
-0.286785
0.159827
-0.222124
-0.193636
0.344214
0.142734
0.0117658
-0.196018
-0.181494
0.375916
-0.194431
-0.0470567
0.0411086
0.235836
0.0800129
0.033743
0.259057
-0.0554592
0.0971882
-0.0417279
-0.372163
0.183677
-0.106767
0.209183
-0.10242
-0.0750022
-0.216011
0.0889926
0.0298091
0.254783
-0.0223465
-0.0783391
0.100683
-0.261362
0.108571
0.152815
-0.266215
-0.260092
0.526345
-0.0840002
0.202968
0.00391404
-0.00224461
-0.0858344
0.0953962
-0.00956679
-0.205382
-0.13778
-0.0945868
-0.209591
0.506852
-0.296932
-0.373147
0.324034
0.0491517
-0.0131003
0.108907
0.227125
0.241075
-0.50752
0.266519
-0.18798
0.0817165
0.106254
0.145028
0.146853
-0.291885
0.00763841
-0.173758
0.166138
-0.190608
0.35424
0.46941
-0.0757039
0.0641471
0.0115633
-0.138166
-0.161261
-0.299747
0.36072
0.193897
-0.0350555
-0.158841
-0.142164
0.31536
0.397778
-0.115979
0.437145
0.0921261
-0.0893829
-0.145504
0.261686
-0.116225
-0.263177
-0.330793
0.422435
-0.207877
0.0925173
0.0838666
-0.176382
-0.125593
-0.130344
0.105584
0.110277
-0.215893
-0.153048
-0.153775
0.306864
-0.0904293
-0.0580032
-0.110381
0.311554
-0.154444
-0.251169
0.131586
0.119585
0.44019
-0.172523
-0.245833
0.486833
-0.00719371
-0.0682748
-0.099854
0.168123
-0.104677
-0.09017
0.0696468
0.151339
0.0644462
0.101738
-0.16619
-0.165488
0.0643056
0.158297
-0.0749649
-0.0833435
-0.0836445
-0.0720275
0.0705325
-0.198376
0.0358694
-0.00601123
0.168231
-0.317768
0.143654
0.149127
-0.292869
-0.295608
0.520354
-0.516428
-0.0397286
-0.0511204
0.154662
-0.103549
-0.11884
-0.412722
-0.0537351
0.00365773
0.00693138
-0.0105891
0.127123
-0.0933885
-0.0337356
0.00301083
0.395587
0.042057
0.151843
0.155391
-0.058224
-0.0971667
-0.212609
-0.235517
0.448091
0.0757706
-0.0732619
-0.0288609
0.120851
-0.0919897
0.0419633
-0.084225
0.121853
0.0907848
0.00134755
0.00357098
-0.00491859
-0.0689341
-0.0965578
0.111389
-0.0956434
0.00178976
-0.00741157
0.186071
-0.0834873
0.142493
-0.298095
0.147986
-0.0462682
-0.187843
0.367275
-0.179381
0.00387088
0.000454593
0.0959204
-0.23404
0.138117
0.0704404
-0.150742
0.0802972
0.391833
-0.221737
-0.170113
0.0913148
0.398375
0.0969814
-0.494951
-0.000553871
-0.0102604
0.0108142
0.00849834
-0.00462736
0.320294
0.26329
-0.58333
-0.00426235
0.00815456
-0.109771
0.0896048
0.0201651
-0.106561
-0.0946055
0.201175
-0.105626
0.182789
-0.0771728
0.134475
-0.448693
0.148936
0.00112914
0.000218319
0.290068
-0.134779
-0.024389
0.0952008
-0.00622572
0.00988344
0.231121
0.342386
-0.573268
-0.032491
-0.227679
0.29912
0.231979
0.112736
0.062596
-0.14252
0.0799112
0.0882524
0.0701998
-0.567529
0.0352729
0.363363
-0.0615519
-0.15659
-0.143057
-0.133086
0.276132
0.00445956
0.492211
-0.199836
0.081639
0.118172
-0.314581
0.246286
-0.467743
0.202645
-0.141023
0.0115585
0.125691
-0.137256
0.464957
0.0849442
-0.0139798
0.305596
0.383447
0.210554
-0.593771
0.0923627
0.113767
-0.0404021
0.102249
-0.0618476
-0.243704
0.262436
-0.231399
0.421449
-0.108325
0.128855
0.109723
-0.0732513
-0.0364738
-0.326365
0.183809
0.14264
-0.0156711
0.177309
0.0942443
-0.104826
-0.0988302
-0.00708914
-0.000826715
0.00791582
0.227911
0.100798
-0.174855
0.0740519
-0.00705917
-0.000160832
0.00668228
-0.0408501
0.0341674
0.326411
-0.542593
0.216441
-0.228604
0.239217
-0.0876579
0.213548
0.0803158
-0.177067
0.096742
0.0344295
0.119144
0.242354
0.0038347
-0.00438968
0.000554861
-0.0785013
-0.109489
0.0814759
-0.0955548
0.151168
0.13361
-0.299622
0.518306
0.00408005
-0.103174
0.225296
-0.122091
0.490998
0.326396
-0.582014
0.255765
-0.000514911
-0.000780305
0.00129512
-0.224694
-0.068147
-0.299527
0.14074
0.20565
0.129867
0.120204
0.137188
0.551792
-0.0784649
0.148898
0.11862
-0.264185
0.099385
0.14005
-0.239382
0.224357
0.233118
-0.457234
-0.0947377
-0.053215
0.0588868
-0.117397
0.0414974
0.162596
-0.100018
0.0137911
-0.0125005
0.0911153
0.0608787
-0.151999
-0.424291
0.162017