/*--------------------------------*- C++ -*----------------------------------*\
| =========                 |                                                 |
| \\      /  F ield         | OpenFOAM: The Open Source CFD Toolbox           |
|  \\    /   O peration     | Version:  v2012                                 |
|   \\  /    A nd           | Website:  www.openfoam.com                      |
|    \\/     M anipulation  |                                                 |
\*---------------------------------------------------------------------------*/
FoamFile
{
    version     2.0;
    format      ascii;
    class       volScalarField;
    location    "150";
    object      ddt0(k);
}
// * * * * * * * * * * * * * * * * * * * * * * * * * * * * * * * * * * * * * //

dimensions      [0 2 -3 0 0 0 0];


internalField   nonuniform List<scalar> 
9793
(
-1.13614e-08
0.00111937
1.03351e-07
-0.000353308
1.22032e-07
-6.00835e-06
6.63044e-08
-0.00213338
-1.3816e-07
-0.00142247
1.98926e-08
2.1438e-08
-6.78427e-08
-0.00162908
9.44141e-08
1.90977e-07
-2.31753e-07
-1.07189e-07
0.000469941
-1.5089e-08
-1.98447e-08
4.02456e-11
-2.19499e-06
-0.00210447
-0.00175103
-5.31231e-08
-4.10912e-08
-6.88003e-08
-9.22774e-09
-3.58499e-07
-0.000691228
-2.88904e-05
1.70922e-07
5.76225e-08
-4.34381e-08
-1.88748e-07
5.58563e-08
4.87076e-08
1.88025e-05
-2.3887e-07
-2.91205e-07
-0.0113758
0.000402838
1.57942e-08
5.05795e-09
-8.31116e-09
-0.000129721
4.38047e-08
-9.27066e-08
-6.43631e-08
-1.56348e-07
-8.55675e-08
-2.64954e-07
4.16566e-08
-5.25697e-08
-0.000368582
-1.1526e-07
-1.56394e-06
-8.33543e-08
4.25643e-11
1.6644e-08
-4.1886e-08
7.69989e-08
-3.95497e-07
-2.67181e-07
-1.38806e-07
-0.000516121
-4.85431e-08
8.38472e-08
0.00259655
3.96711e-08
1.19143e-07
-0.00169693
0.00579507
0.00321773
2.53434e-08
2.81192e-07
-0.00644009
6.12386e-08
3.485e-08
5.99675e-07
0.000609012
-3.38194e-07
-8.9164e-08
8.82274e-08
4.51152e-06
1.27576e-07
-1.221e-06
-4.59472e-05
-5.6638e-07
-0.000295535
0.00142429
-0.000766972
-1.11586e-07
0.000659181
9.0025e-09
0.00334556
-1.30036e-07
-1.13689e-07
6.12108e-08
-0.000834099
-2.36009e-07
-0.00370389
9.94268e-09
0.00248445
-0.00383895
0.00987971
-3.41942e-08
4.83018e-08
4.76843e-08
2.96863e-09
-9.00695e-05
5.68802e-06
-0.000204742
2.21365e-08
1.73516e-07
2.68052e-07
-1.04042e-07
-0.000410995
1.36256e-09
0.00186489
-1.28381e-06
0.00232968
-3.67187e-07
5.27725e-08
-1.08124e-08
-2.75462e-07
-0.000846583
-3.17187e-06
0.000281114
-7.91606e-08
3.96496e-08
-1.63116e-08
-7.00822e-09
-1.63883e-07
-6.50054e-07
-0.00233118
2.72636e-07
3.21967e-09
-3.38645e-07
0.000900639
-1.63209e-07
-1.13316e-07
-8.62289e-07
0.000804284
-6.70511e-05
8.63026e-09
0.00332363
-2.67995e-09
-2.07833e-09
4.03628e-08
0.00101903
-1.18119e-07
-3.77032e-08
5.20537e-08
0.000189607
-3.21296e-07
1.9815e-08
-9.55094e-06
5.11174e-08
-1.12452e-06
-1.98124e-08
-3.73998e-08
2.15032e-06
-4.53233e-08
-0.0117587
-0.00451811
-6.92833e-08
-1.38526e-07
-6.89756e-08
-5.26814e-08
-0.000191527
-0.000827939
-0.000470332
-6.57553e-08
-7.71206e-06
1.34922e-06
-6.81864e-07
3.97362e-08
-5.75827e-08
0.00273755
0.000307926
-1.73422e-06
-1.82896e-08
-4.42606e-08
-8.13697e-08
0.00117456
-0.00152576
-0.0117497
-0.00315568
-1.19571e-07
0.00013826
-7.73582e-07
8.88798e-09
8.77093e-09
-7.12782e-08
-4.84068e-07
-1.81028e-07
-9.78096e-08
-3.0731e-08
5.82871e-09
7.26073e-09
-2.1119e-07
5.15263e-09
-0.000125036
-4.85667e-08
-2.47216e-07
-5.05865e-08
-2.10972e-08
1.53653e-05
-3.48138e-07
0.00102931
-1.14615e-07
0.00222882
-6.4761e-08
-6.01466e-07
4.86892e-08
-2.79317e-07
1.3813e-07
4.08226e-08
-1.69156e-07
3.68123e-09
-1.13543e-06
-0.00110477
-5.29118e-08
4.81741e-09
-5.16739e-07
-0.00223291
-9.83203e-08
-2.06555e-07
-0.000358279
-4.25469e-06
-4.70007e-07
-4.02677e-07
-1.51709e-06
-5.80832e-08
-0.000468537
-0.000318552
-2.62531e-07
6.02504e-08
-0.0126035
2.27215e-08
1.33338e-08
-3.37736e-06
-4.14381e-06
-1.27172e-07
-4.1204e-08
-1.86465e-07
-3.02218e-08
-7.14376e-08
6.16977e-08
-6.387e-08
-0.000124345
-1.46131e-08
-0.000772768
7.79909e-08
-1.75602e-07
-4.34064e-08
-0.000396304
1.19317e-08
-0.00668485
0.00219354
4.00148e-08
3.52806e-08
-0.00636878
-1.59008e-07
5.76474e-08
-2.03835e-07
0.00195732
4.00683e-06
-1.11842e-07
8.93445e-06
-1.47416e-06
-0.00387368
0.000227655
-3.60388e-08
0.00255807
-1.84006e-07
-0.0024057
8.41093e-06
-0.000358431
0.00201336
-2.83896e-06
-7.43185e-08
-1.67923e-07
-1.99146e-08
1.08594e-07
1.05209e-08
1.03451e-05
-5.25438e-08
5.25737e-09
-2.86036e-08
-1.99758e-07
-1.62875e-07
-2.5574e-09
-1.47813e-06
-1.07073e-07
1.06328e-07
-1.55624e-07
-8.8651e-08
0.000167622
6.26096e-06
2.91816e-07
3.8485e-08
-8.36464e-07
-3.3392e-08
0.0156034
0.00173064
1.11288e-08
0.00261423
-3.76476e-07
3.87454e-08
0.000235533
0.0129996
1.82885e-07
-5.98917e-08
8.44516e-06
3.3196e-09
-2.22449e-08
1.05756e-07
-3.7919e-10
-0.00187326
-1.52552e-07
5.11969e-08
-5.31873e-09
4.83591e-08
-5.30327e-07
2.49982e-06
8.61991e-08
1.92201e-08
-8.43596e-08
-0.000153784
-0.000307001
-0.000405897
-6.32321e-08
4.54008e-07
5.22722e-09
-8.67223e-06
-8.9417e-07
-2.70518e-08
-1.11073e-07
-8.7101e-08
-2.98187e-07
-1.07166e-07
-0.000868609
1.05975e-07
-5.05318e-08
-0.000710713
-0.000160778
0.00184291
-1.52067e-07
-0.000746991
-1.53719e-07
-1.85695e-06
-0.00125754
-0.000318038
-5.33735e-08
-2.17288e-07
-0.00332979
-0.000341656
-0.000196161
1.52797e-08
-1.02554e-07
-8.21682e-08
-8.06523e-08
7.37872e-08
-9.08766e-08
-1.65707e-07
5.37014e-12
-0.000292671
-6.51845e-08
-2.28697e-07
-2.11654e-07
-0.00486182
-2.28555e-08
-1.06061e-07
-0.000483481
-3.92371e-06
-0.00147505
-8.08892e-07
-1.3139e-07
-5.95625e-08
7.9364e-08
3.0873e-05
-2.63698e-07
0.00180552
-7.00701e-07
1.08316e-07
-0.000671753
-0.00214323
1.99968e-07
4.44848e-08
-0.0072994
4.85085e-06
-9.9127e-08
-0.00135052
2.45371e-07
-1.94505e-07
2.06174e-06
-2.31273e-07
-1.58216e-06
-6.72163e-08
-0.00481111
2.79042e-08
-4.22537e-08
0.000137853
9.54177e-08
-1.18963e-06
9.27343e-09
-1.05037e-07
-1.07223e-07
0.00303274
-9.38845e-08
-1.76122e-07
1.14175e-07
-4.17795e-08
-3.81151e-08
-1.17516e-06
0.00146333
-5.22781e-08
1.08802e-07
-1.2944e-05
-8.84894e-08
-0.000180315
5.75123e-06
-4.41328e-08
1.40941e-07
3.81428e-09
2.4228e-07
-1.26383e-07
-0.000831402
-8.2499e-08
-0.0110271
-3.42908e-09
2.07622e-07
-4.2497e-07
4.54937e-08
-0.000438302
3.19007e-08
1.24426e-07
-4.17979e-08
5.4767e-05
-1.12023e-08
2.53573e-08
1.26753e-08
-2.71752e-07
-5.67266e-08
-3.26945e-08
-6.6177e-08
8.68551e-08
-8.23379e-08
-3.23964e-08
-3.12616e-06
-4.71005e-07
-2.14445e-06
-5.43313e-08
1.14993e-06
0.000306434
1.0448e-07
-0.000243796
-1.13639e-07
-1.49007e-09
-1.02689e-07
-1.56073e-07
0.00239943
-1.41911e-06
-1.17844e-07
1.73391e-07
-1.66701e-07
1.96646e-09
-7.13244e-08
-0.00550317
-2.75719e-07
1.62568e-08
-1.56085e-08
-0.00043642
-0.000402501
-4.99606e-08
1.42631e-07
-0.000761199
-0.0122241
-0.00021806
-8.53226e-08
3.03964e-08
-0.000102036
-8.49403e-08
1.3612e-06
-0.00489201
-1.0896e-07
-1.56127e-06
-2.04611e-07
-0.00071919
-8.93655e-08
0.000412119
3.73546e-05
1.75146e-07
-0.0043976
-5.11192e-08
-8.60905e-06
1.25455e-08
-8.24797e-09
8.24755e-08
-7.13468e-08
0.00287955
-4.03248e-09
-8.09602e-08
1.05111e-08
-7.61753e-08
6.80952e-08
-9.02288e-08
-6.44878e-08
-3.92804e-07
4.12057e-08
-2.38736e-09
-0.000412529
3.93612e-07
-4.55785e-08
-0.000484067
-3.13267e-08
-7.63934e-08
7.62354e-08
-1.04856e-07
3.39177e-05
-8.46587e-08
-2.55108e-07
-0.00118997
-0.0131153
-1.85708e-07
-2.13545e-07
6.98511e-08
-8.63664e-08
-5.68777e-08
-0.00103052
-3.14769e-08
-0.00170234
1.01319e-08
-3.23286e-06
4.58941e-08
-0.000885879
-2.20604e-07
-8.19917e-07
-6.44118e-08
-1.29298e-06
-0.000231216
3.53354e-08
-0.00652412
1.60026e-07
-7.0499e-08
-6.2867e-08
0.0030702
-0.000182999
-9.82088e-08
-1.86527e-07
-6.9456e-08
-0.0010805
-5.13984e-07
-6.54188e-08
0.000532926
4.43799e-08
-3.75867e-07
4.19004e-07
-3.76181e-08
-1.00386e-07
-9.97909e-08
-2.99486e-06
-3.02311e-07
-0.000795637
-9.9754e-08
-7.7957e-08
-4.6079e-07
-1.25174e-06
-0.0119621
1.27796e-07
-0.000800649
3.32548e-08
-1.87612e-06
9.3608e-08
-5.77988e-08
-2.98241e-08
-1.55205e-07
5.96318e-08
-1.12617e-06
-4.93308e-07
-0.00555535
-1.6851e-06
-1.45514e-08
-4.82423e-08
8.24624e-06
-4.82677e-08
-0.00103723
0.000735706
-2.61149e-06
-0.0110794
-0.00855252
-1.94703e-07
-7.43324e-08
1.05617e-05
-4.35386e-07
-8.18929e-08
-3.55488e-06
6.03978e-09
1.43446e-05
-6.29544e-08
-5.63488e-06
8.15045e-10
-0.000207245
0.0010331
-4.23257e-07
-1.40067e-05
5.03646e-08
-8.98762e-06
-1.79873e-09
-8.35242e-08
-1.33323e-07
3.08944e-07
-1.17735e-08
-0.000344057
7.59038e-10
0.000974973
-4.2692e-08
-7.23718e-08
-0.000790616
8.42922e-08
1.99286e-07
-6.93409e-07
-1.0513e-08
-2.45402e-06
0.000117036
-1.05135e-07
2.62839e-07
-5.83675e-06
0.00108848
-2.06873e-07
-8.95977e-08
0.000143059
-1.42604e-07
-0.000480793
-2.25728e-06
-0.004808
-8.63202e-08
-6.49412e-08
-9.94456e-08
8.63385e-08
0.000815949
-3.67392e-08
0.00252425
-2.9986e-07
-2.0814e-07
-3.42579e-08
-1.22936e-07
2.17164e-07
1.94355e-07
-2.01608e-08
-1.67316e-08
-3.90299e-07
0.00252317
-0.00177912
-6.92661e-08
-2.41779e-05
-2.40251e-07
0.000629066
-5.86806e-07
-5.46529e-07
2.47081e-08
1.59337e-05
-7.10321e-08
4.02914e-08
-8.45951e-08
-5.09854e-08
-1.16614e-07
-4.85107e-07
-0.00118979
7.17992e-09
0.000355353
-2.62921e-05
-5.81614e-08
-0.00204977
0.000173764
-8.31294e-08
-2.32271e-07
1.40301e-07
-1.1749e-07
-7.50773e-08
-1.50754e-08
-0.000172931
-0.000830128
-7.80073e-09
5.57857e-10
8.15409e-08
3.0925e-07
-6.10889e-08
-5.95241e-08
2.33342e-06
-5.66504e-07
2.07471e-07
-0.0146245
-2.08199e-07
-1.42668e-08
-6.56706e-08
-0.000133979
-3.13933e-08
-3.78682e-07
-2.81617e-07
-1.44697e-06
-1.23644e-07
-7.04784e-08
7.05262e-08
1.34394e-07
-3.89288e-08
-4.33517e-07
-0.00125879
-4.65589e-08
-3.13127e-06
2.03143e-07
-1.08327e-07
-0.0116381
0.000487694
-0.00109282
3.88156e-08
-4.60185e-08
0.000967712
3.72176e-08
0.00268605
-3.63335e-08
7.40403e-08
-0.00032336
-0.00267189
-2.41043e-07
-1.88797e-06
-1.47499e-08
3.74893e-08
-3.20443e-08
-1.21068e-07
0.000896392
-2.82087e-07
1.65883e-12
-0.000452165
2.70034e-09
5.45388e-06
-8.07506e-08
-1.18636e-07
0.000487527
-3.0034e-07
3.04124e-08
-1.18924e-07
-4.83724e-08
-0.000423862
-2.01417e-07
8.69634e-09
-2.74642e-08
1.17283e-08
-2.38586e-07
-5.8633e-08
-0.0118972
-2.4832e-08
-7.98584e-08
-1.63878e-07
-4.54056e-08
-3.04698e-07
1.84824e-07
-3.55098e-09
1.4977e-08
3.79799e-08
-4.68175e-08
-0.000142629
-0.000458655
2.0935e-07
-0.000105523
4.99247e-08
-1.01777e-07
-0.00166719
4.52641e-06
-3.14227e-08
-1.62756e-07
-1.65593e-07
-5.39729e-07
-3.7697e-07
4.34379e-08
-0.000324545
1.73163e-09
-2.57751e-07
1.4699e-07
1.56508e-06
-5.30379e-09
-3.10029e-07
8.66374e-08
-1.53393e-07
1.34638e-07
-1.06431e-07
2.23045e-08
1.44834e-06
-1.98832e-07
-9.79953e-08
-4.0446e-08
-3.37874e-08
-7.25012e-08
4.29466e-09
-2.5335e-07
1.74127e-07
-6.55884e-07
-0.00145715
-1.52968e-07
-4.57916e-07
4.81899e-08
-1.03701e-07
-0.00027263
0.00231912
-1.565e-07
-0.00175384
-0.000762809
-2.78031e-08
-2.45953e-08
6.57792e-08
-4.04749e-07
-7.10392e-07
2.21884e-06
-1.29272e-07
-4.90058e-08
-1.55067e-07
-4.56727e-09
-3.08467e-07
-2.46111e-07
-8.12149e-08
5.43109e-06
-5.95326e-08
-8.70528e-07
-1.08536e-07
-7.32009e-08
6.52961e-08
-3.48463e-07
2.09931e-07
-0.00121477
4.87928e-05
-0.00183559
-4.14176e-07
7.20414e-08
5.76593e-06
6.24326e-06
-9.82038e-07
-4.53812e-08
-9.82389e-08
-2.6547e-08
6.48498e-08
-0.000378389
-5.92283e-08
-1.52965e-07
-7.85348e-08
-7.00441e-08
6.63317e-08
-0.00960462
0.00108461
-0.000339528
-1.78661e-07
-0.000522756
3.44299e-08
0.00172952
-0.00298582
4.46232e-09
-6.10574e-08
5.59881e-08
-0.00816974
-1.23388e-07
-0.00152716
-1.69468e-08
-2.03248e-06
-1.16362e-07
0.000166692
0.00383492
-8.08744e-07
-3.88134e-08
-2.6185e-07
-3.60808e-07
-0.00250769
2.68001e-08
2.99621e-07
-1.07444e-05
-1.21388e-07
-0.005533
0.00277433
-4.56345e-08
-8.43272e-08
-3.12778e-07
-3.13793e-06
-0.00221528
-0.000332155
4.75027e-08
2.70024e-06
1.73167e-07
-2.85984e-06
-4.15264e-07
-0.00125097
-0.00139588
-1.0718e-07
-5.34459e-08
-2.64904e-07
5.86146e-09
2.69824e-07
-0.000181424
-1.63457e-07
-0.00325259
-5.45033e-07
-6.62756e-08
-4.70635e-07
-1.78763e-06
-0.00771013
-3.2383e-08
-0.0101724
-0.0128809
0.000382495
5.90491e-09
-8.27768e-08
-3.79078e-08
-7.81657e-08
6.40754e-08
0.000239171
0.0035718
-1.42249e-07
8.86152e-08
-3.34477e-07
-5.83106e-06
-8.10072e-08
-3.12659e-08
1.68911e-08
2.16993e-08
-2.8569e-09
-2.4266e-08
-9.61487e-07
-7.0539e-09
6.50665e-08
0.000152671
-2.70793e-07
-1.30102e-07
4.7524e-06
7.88683e-07
-2.556e-08
1.97756e-07
-2.22093e-07
-1.21335e-08
-2.28368e-07
1.84693e-08
-0.00837595
0.0204807
-5.50763e-08
-2.24996e-07
-3.13282e-08
-1.02158e-05
3.15162e-08
0.00209445
1.87227e-08
1.01478e-07
1.92935e-07
0.000172082
-8.10996e-07
-1.22207e-07
3.23873e-08
0.00200464
-0.000715952
-1.38179e-06
-4.08966e-06
-2.15348e-07
3.56682e-07
1.72066e-07
-0.000173136
-9.87522e-08
-0.00165219
4.22112e-08
-1.30446e-07
2.07524e-07
-2.91313e-07
-2.17093e-07
3.9334e-07
-7.36716e-08
0.00197125
-2.18136e-07
1.68209e-08
-8.66248e-08
8.09875e-08
-0.00149938
-0.000295512
-7.8914e-07
-0.000771395
-1.316e-07
-8.05103e-08
1.52686e-07
-0.00370363
1.40712e-07
-3.74942e-08
-0.00187555
-4.93984e-08
-1.13377e-08
-8.02053e-08
-8.45502e-05
-0.011029
0.00166899
-7.77452e-08
-2.93037e-08
-1.00113e-06
-2.90179e-07
-0.000705331
-1.43276e-06
-3.27271e-07
-1.21355e-07
4.61958e-08
-9.27019e-07
-3.0302e-07
-2.20256e-07
-3.29791e-06
9.74722e-08
-1.81461e-07
-8.12143e-08
6.61627e-08
-2.47776e-08
7.62673e-08
1.35417e-05
-4.37595e-08
-2.19552e-08
-1.0794e-07
3.03983e-08
1.17148e-07
-4.1879e-08
0.0021704
5.84152e-08
-2.00757e-07
-0.0010857
-1.23976e-07
1.39085e-05
-1.16319e-07
-0.000302671
-6.96459e-08
7.95213e-08
-1.42095e-07
-1.86922e-08
8.894e-05
1.07318e-06
-1.46945e-07
-2.07585e-07
-8.56964e-09
3.85336e-08
5.5549e-08
5.09502e-08
-0.00096978
-1.29155e-07
-4.18892e-08
1.23991e-08
-6.10112e-07
0.00229635
-1.90498e-08
-0.00264485
-2.77833e-08
-3.97694e-07
-3.75799e-07
2.32421e-07
3.4379e-06
-7.22473e-08
-0.00140285
-0.000294503
-3.18314e-08
0.00139825
-3.84693e-07
-6.42826e-08
-4.83114e-09
7.12515e-08
-6.51863e-08
1.7919e-08
0.00228821
-5.27214e-07
-5.49581e-08
0.00013038
2.94927e-08
0.000297549
2.09271e-06
-2.24959e-07
0.000716563
-1.35398e-07
-1.86024e-07
3.32731e-08
-0.00153779
-0.00998372
-6.06234e-07
-2.93953e-08
-1.2524e-07
-7.10182e-07
-6.45026e-08
-1.77285e-07
-2.13338e-07
-3.42072e-08
-5.24623e-08
0.00246133
-5.96237e-08
-3.46071e-08
-1.20629e-07
-6.34522e-08
-6.18687e-07
-7.35962e-07
-4.06841e-07
-1.82604e-07
-3.96157e-08
0.000506495
-0.000632419
2.20138e-07
6.85189e-08
2.26593e-07
-8.19302e-09
0.00226514
-0.00670007
-8.23731e-07
-1.63046e-07
8.45099e-09
-0.00371298
0.000920504
-4.19107e-08
-0.00268144
-1.15581e-07
-4.52008e-07
0.000192421
-5.06544e-08
0.00322868
-0.000341396
-4.78694e-07
-0.000925644
0.00201115
6.77848e-08
-6.22196e-08
-8.06581e-06
-0.000386793
-6.38574e-08
-0.000929885
-1.20496e-07
5.71942e-08
6.83268e-08
8.32554e-08
-3.44886e-07
-1.26195e-07
6.71455e-07
-0.00101113
4.22432e-07
-3.08721e-08
-2.32092e-07
-2.13292e-07
-8.75449e-06
5.40806e-08
-2.69448e-06
-4.56558e-08
2.70724e-08
-1.27656e-07
-6.2361e-08
-7.90201e-08
-1.41094e-08
2.13741e-06
9.77042e-08
-1.00927e-07
-0.000736463
-0.00101548
-1.21037e-06
-1.85576e-08
-1.92102e-07
1.21054e-07
-2.19652e-07
0.00286933
-0.014879
-2.42605e-07
-1.00256e-07
0.00129533
9.53222e-05
-4.47338e-08
-3.81297e-08
-0.0040248
1.53148e-07
-3.26453e-08
3.34275e-07
-2.47143e-07
-3.28012e-08
-2.29402e-07
-0.00562085
0.00352195
-1.52201e-07
-2.81846e-06
-4.60483e-07
-0.000724184
-0.00121478
0.000904328
-3.65204e-06
3.08415e-08
8.33749e-08
-4.56937e-08
-2.35748e-07
5.3553e-07
-1.60831e-07
8.96094e-08
-2.79737e-07
-0.0103915
8.87674e-08
-0.000529677
-5.1973e-08
-0.00137935
-1.08129e-07
3.00202e-08
-2.19018e-07
5.14244e-06
-1.16314e-06
-1.04406e-07
-2.44309e-07
-0.00267456
-3.7493e-07
-3.4427e-05
-1.90228e-07
0.00216837
1.34306e-07
-0.0012648
4.03813e-05
-4.74858e-08
3.56303e-08
-1.71121e-07
-0.00064839
0.00286054
-3.0226e-07
-6.31777e-08
-0.00273905
-2.0476e-07
-4.1785e-07
-0.00251673
6.22521e-07
-3.06286e-09
0.00107617
3.54783e-08
-3.80237e-07
-1.5982e-08
-0.012048
-1.80541e-08
3.06779e-07
-4.8146e-05
3.92277e-06
-3.01706e-08
-3.21989e-07
-1.53547e-08
-1.08086e-06
-1.21412e-07
-7.8886e-06
2.99457e-08
3.73821e-07
-1.1286e-07
-2.34415e-07
-0.000180633
-1.30208e-07
-0.00140272
0.00245748
-0.000470628
1.60488e-08
7.78639e-08
-5.77327e-09
-1.50215e-07
-2.96318e-07
-2.41462e-07
8.08108e-05
-7.13491e-08
0.00720982
-1.71604e-08
8.45779e-08
-1.3584e-07
-1.18176e-06
-0.000306935
-0.000352118
1.38128e-08
-0.000470375
-1.69575e-07
0.00295059
-5.95864e-07
-4.6303e-07
3.58455e-08
-1.45517e-07
-3.2795e-08
0.00417204
-1.28049e-07
-3.43107e-08
3.52563e-07
-3.95207e-07
1.36754e-07
-1.17103e-05
0.000411334
6.04335e-06
2.27751e-07
-1.43673e-07
-0.00268968
-1.67877e-07
-2.62076e-07
5.40594e-08
0.000113343
-6.81008e-08
6.36335e-08
4.52748e-08
1.2759e-06
1.84296e-07
-0.00287604
3.69709e-08
-2.81149e-06
-7.62912e-07
-0.000666282
-1.36785e-05
-2.05282e-07
9.52684e-09
-0.0132166
-1.12476e-07
1.19561e-08
-1.49267e-06
-7.63947e-08
2.78345e-08
-0.00499097
3.41769e-08
-1.54287e-08
2.99479e-07
7.01592e-07
-3.84291e-08
4.59904e-07
-7.49254e-08
-8.57765e-08
-0.00192156
-8.1748e-06
8.0061e-09
7.69847e-09
-4.51168e-07
0.00102207
4.55872e-07
-3.79284e-06
-1.50872e-07
-3.53636e-08
6.9746e-09
0.000229819
8.44347e-08
0.00238345
-3.7933e-07
-0.00169315
-2.73652e-07
-1.21906e-07
-5.59498e-08
-1.73963e-07
-8.26799e-07
3.60896e-06
-0.00104506
-0.000839528
9.09455e-05
-3.34274e-08
-5.21255e-06
-7.20476e-08
-1.14913e-06
1.85914e-07
-1.77495e-07
-6.27262e-08
8.23305e-08
4.58893e-09
-1.14192e-06
-1.27277e-07
-6.74678e-08
-1.43822e-07
0.000300332
0.00304159
-4.03869e-07
0.000309715
-1.09866e-07
6.65754e-08
-1.52073e-07
3.26431e-06
7.2748e-08
-7.05633e-08
-5.60155e-07
-0.00648242
-1.35341e-07
1.02213e-07
5.30793e-08
-3.04023e-07
0.000231779
-5.82733e-08
-1.07944e-05
-1.39339e-07
8.83298e-08
-0.0014371
1.49925e-07
6.55746e-08
-3.764e-07
-1.04751e-06
0.00284216
-0.00541285
-3.0132e-08
-1.47568e-06
-6.63399e-07
-0.0109467
-3.61376e-08
0.002942
-0.000858336
3.51659e-08
1.75736e-07
-1.89397e-07
7.63494e-06
-1.2369e-07
7.82066e-08
-0.00153071
-4.98866e-08
-1.74421e-07
-3.52135e-06
-1.15444e-06
-0.00082538
-0.000932288
3.55024e-06
-0.000234966
-6.70455e-08
5.11597e-09
1.36126e-07
-8.88403e-08
-0.00989212
-9.20011e-08
-0.000425848
-6.88649e-08
-0.000756574
1.51968e-08
-2.21021e-08
2.7581e-08
-1.40746e-08
-1.1879e-08
-4.52846e-08
3.14779e-08
-0.000209687
5.53804e-08
-7.66761e-07
-4.96325e-08
-0.000688587
3.55932e-08
-1.69739e-07
1.88176e-07
-4.05647e-07
-3.6373e-08
-6.00261e-08
1.05526e-07
9.20555e-08
3.09407e-07
1.56285e-07
-4.61904e-08
-8.03597e-08
0.00103526
-0.00130656
0.000134565
0.000117691
-5.97288e-08
-2.29009e-07
1.70655e-08
1.24031e-07
1.19213e-07
-5.95944e-08
4.20899e-05
2.10247e-08
-3.35265e-08
-1.58456e-07
1.50501e-07
-1.31219e-07
-0.000981053
3.31201e-07
-1.27859e-07
-0.000623872
-4.68826e-07
1.48572e-07
-0.000339331
-0.000902314
-1.34462e-08
-7.92098e-06
-1.56386e-06
-1.46273e-08
-1.08131e-07
3.64094e-09
-1.24997e-07
-1.44546e-07
-5.0738e-07
-5.35288e-07
-2.24082e-07
-1.8492e-07
4.76196e-08
0.000995673
1.30795e-08
-5.26324e-07
-2.46008e-07
-2.35153e-08
-0.000272824
1.86311e-08
-1.14246e-07
-1.19633e-07
-1.40514e-07
-1.82652e-08
1.15484e-05
0.00298109
-0.000986125
-0.00155198
2.35456e-07
-1.78869e-08
-1.26468e-07
-0.0143109
7.90632e-08
-7.4606e-08
-5.09048e-07
6.73857e-11
1.2117e-07
-2.57597e-07
-2.37024e-05
-4.50576e-07
-2.24676e-07
8.21719e-08
-8.49401e-06
-1.02809e-07
7.59162e-06
-2.02241e-07
-6.93049e-06
9.34834e-06
-0.00591802
-2.91902e-08
-2.36222e-08
-5.07369e-08
-1.15472e-08
-6.90249e-08
-5.67401e-08
-2.18649e-07
-0.00758857
-2.29239e-07
1.41244e-06
-0.00378633
-1.29955e-07
0.000524825
1.94301e-07
1.53439e-06
-5.08136e-07
3.3579e-08
-1.49647e-07
-3.37639e-07
6.41584e-08
-7.69915e-08
-2.22948e-07
0.00200085
0.00265688
-4.15707e-08
-1.07538e-07
-9.99733e-07
4.52283e-07
1.9582e-06
-1.57531e-05
-2.8699e-08
-9.52092e-08
5.64996e-08
-1.16782e-07
-3.90507e-07
7.02113e-07
7.2136e-05
-1.91589e-08
1.89366e-06
-5.30742e-07
-0.00727863
3.33877e-07
0.000198461
-1.06654e-07
5.5938e-10
-7.03725e-07
2.69865e-06
-3.7979e-07
-0.000493455
1.47812e-07
5.11942e-06
3.82524e-08
1.02156e-07
-0.000373606
-0.000927321
3.19079e-07
3.94336e-08
5.56754e-07
7.61888e-07
-4.87776e-07
-3.03938e-07
-8.611e-08
-1.15362e-07
9.73205e-08
1.33028e-06
0.00144763
3.32564e-08
-4.62703e-07
-0.00142115
-3.83283e-07
-2.07791e-06
-0.000462995
-4.42086e-05
-0.00216215
1.26904e-07
1.33092e-07
-0.000152191
1.45974e-08
-1.61756e-07
1.64164e-07
0.000106617
-1.95682e-08
-4.82482e-08
-0.000480091
7.34265e-07
-3.05552e-06
-0.000765354
0.00023239
-0.000942597
-1.45451e-07
-3.1876e-07
7.76548e-08
1.25856e-07
-0.0138811
-1.0575e-08
1.12627e-06
1.42975e-05
-2.46692e-07
-1.04019e-07
0.00449265
-8.60574e-08
-2.22987e-07
-7.54763e-08
3.02597e-08
0.000802455
-6.82171e-05
-1.83534e-07
-1.67064e-07
-3.98143e-07
0.00271375
-1.4168e-06
-0.000421794
1.22369e-08
-2.15737e-08
-1.31025e-07
-3.45475e-07
4.42356e-09
1.36323e-09
5.00646e-08
0.00342556
-3.27723e-07
-0.000166571
-1.33648e-07
-6.1197e-08
-1.16918e-07
0.000986698
1.17877e-08
-1.44858e-07
2.30006e-07
1.07288e-07
-2.39768e-07
-0.000126506
-0.0107108
0.000106364
-1.41752e-06
-0.000691934
3.48473e-07
5.96045e-08
-0.000240184
-3.51972e-08
-2.68441e-06
-3.58592e-05
-1.51688e-07
-0.00149337
0.000244937
-2.25795e-07
-4.99876e-09
1.63937e-08
-9.84212e-08
-5.96756e-07
-2.47935e-08
7.00475e-06
7.45531e-08
-4.59822e-08
4.04564e-08
-9.96957e-06
-1.11363e-06
7.89017e-07
-0.000804063
-0.00265299
-4.86681e-07
-1.08107e-08
-2.34666e-06
-1.10971e-07
6.59963e-07
0.000480112
-5.21776e-08
-4.32929e-07
0.00171939
-3.69303e-07
-2.157e-08
-1.90349e-07
-3.04306e-07
-3.62879e-07
-8.1619e-08
-2.00577e-08
-0.00395223
-8.9027e-07
-0.000184976
-0.000650182
0.000140097
-9.80442e-08
-1.83605e-06
-0.0031387
-1.66627e-07
0.0142628
-0.000993274
-0.0113484
-1.33788e-07
3.83688e-08
-0.00172385
-0.0143081
-1.99133e-07
3.33888e-07
5.41082e-08
-8.86372e-08
3.29192e-06
2.1295e-08
-0.000381912
-0.0012932
0.000694406
-0.00736024
-1.6841e-07
-2.92308e-07
9.89838e-09
-1.11978e-07
-1.16377e-07
-4.88152e-07
-1.46313e-07
-1.2261e-06
-0.000405006
2.53963e-08
-9.72817e-08
9.90068e-07
-1.24439e-08
7.3288e-06
-2.33935e-08
-0.000407677
-0.000440699
-2.12104e-05
-0.00422157
-0.00046383
-0.000361111
-0.000509141
0.00016054
1.56467e-07
-2.89224e-09
5.85403e-07
-8.50451e-09
-0.00144008
-0.00721643
4.95142e-08
-5.40075e-07
-0.000836718
-0.000286014
4.64313e-08
-0.000929069
3.12102e-08
-7.16389e-07
0.002931
0.00238468
-2.42619e-08
-0.000360469
-5.05242e-06
-1.93485e-07
-5.18983e-08
-0.00209353
-0.000874274
0.0010933
0.000801851
-3.99148e-09
-0.0107392
-0.000457764
3.06018e-08
-3.44115e-06
-7.65923e-09
-5.81576e-08
-1.65604e-07
-0.000449397
0.00132495
-8.06125e-08
-2.00758e-07
-0.00154969
-4.25631e-08
0.000172604
-3.86337e-07
-1.12506e-05
-0.000588024
2.17292e-08
-0.0055052
1.24743e-09
-1.91117e-07
-1.19288e-07
-5.11089e-07
-5.32345e-07
-3.39587e-08
-1.35662e-06
-1.9992e-07
0.00524792
-1.93867e-06
-0.0166537
-0.000176425
-0.000332813
-2.32431e-08
0.00301937
-2.06488e-06
-0.000379023
-7.16741e-08
1.2122e-07
-0.0113023
3.31914e-05
0.000862866
-3.01959e-08
-1.71102e-08
-3.94667e-07
-0.00251143
-0.00038085
-4.41041e-08
0.0289007
-2.16366e-10
-1.1523e-07
-0.00102225
-1.27909e-08
-0.00795317
-8.50064e-08
1.31718e-07
-0.000435899
0.000159056
-0.000360064
-9.01947e-05
-0.000375069
-0.000418487
-0.0174494
-9.219e-09
0.000116293
-5.13824e-07
-1.12058e-07
-1.34708e-07
-3.72806e-08
-0.000354074
-1.39348e-08
-0.000416262
-0.000275476
-3.12525e-07
-2.26802e-07
-1.54884e-06
9.49756e-05
-4.6371e-07
-0.00235938
-0.000860987
9.83376e-07
-3.43732e-07
-8.17318e-08
-0.00235482
-5.37487e-07
-8.26968e-06
-0.000921233
0.0018983
5.12354e-07
-1.53166e-07
-9.17634e-08
2.26799e-07
-1.26163e-07
-6.6687e-08
-1.94765e-07
-0.000483549
1.08413e-07
3.77111e-07
-0.000919389
-1.88748e-06
6.29104e-05
-0.00269801
-0.000679559
-4.70295e-05
0.000456359
-0.00105175
2.60425e-05
1.84496e-08
-2.52658e-07
-2.95788e-08
-7.48023e-07
-5.02561e-07
8.70933e-06
3.92195e-07
-1.89621e-07
-9.66878e-08
4.65849e-06
0.000576563
1.86649e-07
-3.82022e-07
2.11486e-07
-0.00947011
2.75256e-08
1.92401e-07
-2.63217e-07
-0.000476854
3.87084e-08
-1.14095e-06
-8.56319e-07
-7.24312e-09
-8.14531e-07
1.53571e-07
-1.25464e-07
-7.34123e-08
-4.85251e-06
-8.74046e-08
-2.36344e-08
2.96153e-06
-0.000984565
-2.47863e-08
-0.00210871
-3.17093e-07
-0.000561472
-2.25727e-08
-2.33699e-08
-2.10313e-07
-6.8227e-07
-3.48205e-07
-5.27678e-05
0.00108406
1.05218e-07
7.27802e-08
-4.68203e-08
0.00314384
-0.00446267
9.6521e-08
-1.64561e-06
-0.000236024
-1.27302e-07
6.1303e-08
-3.48873e-08
-7.83374e-08
8.27457e-08
-0.00104562
-6.44779e-08
-1.76301e-07
-0.00164713
-7.72747e-08
-6.77167e-08
-1.87668e-05
-1.0226e-07
-2.53156e-07
-1.96531e-07
-0.00234838
4.04598e-09
2.48825e-08
6.83238e-10
-9.88191e-08
-4.93192e-08
4.70329e-09
0.00106506
-1.90045e-05
-3.44207e-07
-8.20678e-08
0.00066448
-9.09743e-08
-6.89054e-08
-3.68721e-07
-9.64936e-06
-0.00194946
-1.49169e-07
-0.00333315
-0.000690229
-3.01602e-07
-0.000414789
-0.0156705
-0.000947035
-0.016454
-7.17308e-07
-1.25627e-06
-1.97203e-06
-3.59041e-08
-3.25277e-07
-1.34527e-08
-2.1113e-07
-0.000785665
1.12229e-07
0.00260397
1.09609e-08
-3.17226e-10
-3.9048e-07
-1.14907e-07
-2.51986e-07
-0.00201235
0.00243056
0.000212583
-0.000486495
-2.44207e-08
-1.76044e-06
-0.00154217
-6.27753e-08
-0.010581
1.1616e-07
-4.76467e-07
6.17052e-05
3.11118e-08
2.57482e-08
-7.60942e-08
-1.87559e-06
1.11263e-07
-0.000525341
-0.000464649
-5.92372e-08
-1.92478e-07
-2.73298e-07
-1.61854e-08
-0.00060871
9.40636e-08
-2.03111e-08
-1.1658e-07
4.80544e-08
-4.76208e-08
7.15309e-09
-0.00116992
-5.09879e-07
-3.37539e-08
-1.4925e-07
-6.41676e-07
-1.41512e-08
-7.23333e-08
0.000193599
-0.00100744
-1.55567e-07
1.16137e-07
-1.48556e-07
-1.39565e-07
-2.36176e-06
0.000251123
-5.69205e-08
-0.000495583
-0.00189165
-3.34397e-08
-4.69162e-08
2.04178e-07
-3.20653e-07
-3.27527e-08
-0.00238708
2.03864e-07
-1.39214e-07
1.078e-07
0.00151518
-0.0132012
-3.15237e-08
-8.12924e-06
-3.03488e-08
1.82794e-07
-2.96937e-06
-2.13831e-06
-6.00375e-08
-4.99322e-07
0.000748962
3.37231e-07
1.37424e-08
1.90318e-08
-0.00323114
-0.000680803
1.4732e-07
0.000177369
-2.01109e-07
3.98036e-06
-0.000535333
-1.47246e-07
0.000114684
-1.68577e-07
-2.16892e-07
7.10177e-05
-2.67458e-07
1.41494e-07
1.67608e-07
0.000106474
-1.3127e-08
1.48127e-08
-5.79468e-05
5.1016e-09
-9.69121e-09
-0.00104919
-1.05425e-07
-5.68569e-07
0.000650791
-4.02774e-07
-0.00717327
-0.00173153
-8.68763e-08
-1.15203e-06
5.79733e-06
8.03618e-09
2.16613e-07
-2.69409e-08
-0.00270289
2.27076e-06
-1.10492e-07
-0.011488
0.000652452
6.7499e-09
-5.81091e-08
-1.93268e-07
-4.24768e-07
-0.000541409
-0.000509164
-1.21361e-08
-4.04971e-08
-0.0010231
1.92445e-07
-5.84778e-07
-1.38487e-06
-1.2711e-08
0.00083209
-2.42434e-06
2.42164e-07
-4.79925e-06
-0.0109754
-2.18349e-08
0.00282642
-2.72802e-08
-2.23959e-07
3.51399e-09
-3.69675e-08
0.00250326
-2.85863e-07
-2.87513e-07
0.0102726
0.000315471
-2.81252e-08
-7.36062e-08
7.06926e-07
-0.000930171
6.0881e-08
-0.00658057
-2.27408e-07
-3.44886e-07
-2.0582e-07
-6.9522e-08
-1.75347e-07
-3.14922e-08
1.53738e-07
-0.000157704
-3.3763e-07
-9.28622e-08
1.09156e-07
0.00076962
2.41814e-07
3.30881e-07
-1.44541e-07
-3.09391e-08
-4.97437e-08
-5.27072e-08
-0.00030008
2.65087e-06
-1.79907e-08
-2.01226e-08
-3.07953e-07
-1.00644e-08
-3.0899e-07
-0.00262023
-0.000869514
-1.31232e-07
-7.41255e-05
1.17127e-07
7.50075e-07
-0.000959615
-0.000687473
1.21312e-07
2.81619e-07
-1.03743e-06
-0.00182647
1.13881e-08
8.11178e-08
-0.00148019
-9.95449e-07
-4.9437e-08
0.00653683
-1.56186e-07
-2.68773e-08
-9.13046e-08
0.00221899
6.33371e-08
-0.00290818
-4.90374e-08
0.00466968
-1.15103e-08
-3.82135e-07
-0.0032503
-1.20595e-07
-7.48973e-08
9.1634e-05
-1.44624e-07
1.0978e-06
-0.00646462
-8.14293e-06
-7.53062e-09
-4.00645e-07
5.06352e-08
-5.134e-07
-6.83546e-08
-0.00933725
-2.80107e-08
-6.25047e-09
-1.57297e-07
-1.65269e-07
-4.25059e-07
-0.00124483
0.00857655
-4.46845e-08
-4.39986e-07
9.31551e-09
0.0071082
-0.0145741
-2.25717e-06
5.98024e-08
-2.69313e-07
2.1505e-07
-0.00141007
2.80433e-08
-1.1109e-07
-0.00286524
-1.51846e-06
-2.56477e-08
-1.00002e-07
-1.28625e-06
1.45731e-07
-4.99843e-08
-1.96937e-07
6.19971e-06
-7.36372e-08
-5.83437e-08
0.000609318
-0.00120379
7.76154e-05
-1.77042e-07
5.7902e-08
-1.1507e-07
2.25069e-08
-1.14188e-06
-4.33317e-07
-6.73905e-08
-1.27504e-06
-0.000191535
4.98189e-08
-1.32042e-08
-0.000868445
-9.92169e-06
-0.000530291
7.65428e-06
-1.75457e-07
5.32078e-08
-9.25637e-08
4.40612e-08
9.48239e-08
-4.28238e-07
-9.79844e-08
4.49421e-09
-5.18305e-07
-5.60073e-08
-7.51144e-08
1.30261e-07
3.92797e-08
-3.58823e-07
-5.74524e-08
1.30638e-07
5.62289e-08
-1.05596e-08
3.09516e-08
-1.03915e-06
-3.07167e-08
3.11501e-08
7.78165e-07
-8.7881e-08
-5.53061e-08
5.62359e-08
-1.09524e-07
-0.0009954
0.000469128
-0.000365862
0.00149466
-0.000381673
1.11915e-05
-9.15044e-08
-2.10209e-07
-9.62423e-08
-0.00159555
1.89429e-07
-6.56614e-08
5.08807e-08
-3.69062e-07
-7.71009e-08
-2.12119e-07
-1.47484e-07
-0.000447872
-2.24061e-07
-1.00556e-07
0.00155923
-0.000707474
-9.60255e-08
-1.58903e-06
-3.02891e-08
-1.54269e-07
-0.00010092
-6.67217e-08
-2.79721e-07
-2.96467e-06
-1.14119e-08
-1.79544e-07
-4.88791e-07
-5.6244e-05
1.70626e-08
-1.16873e-08
-0.000631457
5.46054e-08
-5.28586e-06
-3.44692e-07
-0.013574
-1.09324e-07
-0.000515379
-3.86301e-08
-8.85752e-08
-1.59717e-05
-5.6579e-07
0.000661113
-0.000224045
-0.000366629
0.000189914
0.000817391
-5.94676e-07
1.89943e-07
-2.50115e-05
-4.80119e-08
-2.78907e-08
-7.81962e-07
1.53815e-08
1.191e-08
-1.11812e-07
-7.84794e-08
-9.43509e-07
0.00347441
-0.000569293
-1.81858e-06
0.0020485
-4.00651e-08
-1.64132e-08
2.36337e-07
-5.94903e-08
-1.04055e-06
-2.30785e-08
-1.15654e-07
-7.64727e-08
-3.25724e-08
1.14478e-08
-2.9501e-07
-1.56711e-06
-8.69602e-08
-4.15392e-08
3.49152e-08
1.27985e-07
0.000731167
-0.00134415
-9.7355e-08