/*--------------------------------*- C++ -*----------------------------------*\
| =========                 |                                                 |
| \\      /  F ield         | OpenFOAM: The Open Source CFD Toolbox           |
|  \\    /   O peration     | Version:  v2012                                 |
|   \\  /    A nd           | Website:  www.openfoam.com                      |
|    \\/     M anipulation  |                                                 |
\*---------------------------------------------------------------------------*/
FoamFile
{
    version     2.0;
    format      ascii;
    class       volScalarField;
    location    "150";
    object      p;
}
// * * * * * * * * * * * * * * * * * * * * * * * * * * * * * * * * * * * * * //

dimensions      [0 2 -2 0 0 0 0];


internalField   nonuniform List<scalar> 
9793
(
0.0662819
-0.465031
0.0340928
-0.313403
0.0250478
-0.205585
-0.0730096
-0.314967
0.00940602
-0.460322
0.0232319
0.0232556
0.0216664
-0.342406
0.00681407
-0.0494081
-0.106789
0.0319924
-0.284685
0.00227028
-0.00114272
0.0249342
-0.335273
-0.315459
-0.34519
0.108974
0.0237093
0.0204445
0.00252932
-0.117839
-0.336129
-0.238206
0.0292467
0.0287639
0.0138519
-0.0573243
-0.0408157
0.108627
-0.29881
-0.0439199
-0.108439
-0.272267
-0.290573
0.0203691
0.0328789
0.0283898
-0.309819
0.0242042
-0.00934781
0.0322073
-0.057984
0.0136191
-0.0776378
0.0242397
0.128036
-0.314967
0.0208007
-0.152911
-0.00901438
0.0243067
0.124
0.154595
0.0323127
-0.078764
0.0165625
0.00985222
-0.310636
-0.0228114
-0.0431993
-0.28151
0.0485904
0.353729
-0.310811
-0.138775
-0.274982
0.0228113
0.210833
-0.302593
0.0311576
0.0248007
0.22125
-0.28465
-0.102538
0.0545217
-0.0430959
-0.203594
0.0248865
-0.123578
-0.299644
0.170874
-0.329753
-0.267209
-0.266843
-0.0474884
-0.289261
0.0306499
-0.275252
-0.0932543
-0.00680435
0.025003
-0.32284
-0.0735104
-0.17903
0.0323012
-0.273636
-0.299521
-0.13236
0.0171103
0.0310883
0.0249818
0.0209456
-0.33391
0.51717
-0.343267
0.0479834
0.0260253
-0.0354221
0.028311
-0.312771
0.0287778
-0.272502
-0.13001
-0.273138
-0.0956416
-0.0408858
0.0285104
-0.11124
-0.335463
-0.162564
-0.16336
-0.0331324
0.0178718
0.0646758
-0.0180803
-0.0512095
-0.14519
-0.234584
-0.0365892
0.0226957
-0.122055
-0.28439
-0.0543284
0.0442175
-0.111669
-0.306656
-0.133986
0.0282066
-0.277731
0.018364
0.028472
0.0256961
-0.345047
-0.00503609
0.0238988
0.0404766
-0.261122
-0.11292
0.0323709
-0.245073
0.0430847
-0.120395
-0.0342595
-0.000706548
0.294398
-0.0140752
-0.290138
-0.202195
-0.0153597
0.0167492
0.0233935
0.044909
-0.345885
-0.334585
-0.299464
0.0214367
-0.19906
-0.00124092
0.277475
0.0317487
-0.0253643
-0.269215
-0.307475
-0.13363
0.0287608
0.0275376
0.0167122
-0.270015
-0.312615
-0.321858
-0.176612
0.0115413
-0.431173
0.44194
0.112853
-0.0117105
0.0712346
0.497412
0.00482087
0.0323852
0.025164
0.0514564
-0.00341947
-0.062988
-0.0439785
-0.293744
0.0436588
-0.0354738
-0.0169308
0.0606108
0.107697
-0.115839
-0.285909
0.00642516
-0.283221
0.0588687
-0.073158
0.00723732
-0.148092
0.0258963
0.255805
-0.0995713
-0.00318838
0.324622
-0.2962
-0.0409117
0.0318166
-0.111251
-0.29272
0.244587
0.245685
-0.304188
-0.153995
-0.0719285
-0.0822598
0.441176
-0.00695301
-0.383052
-0.343662
0.005002
0.0251936
-0.268227
0.0397007
0.0210683
-0.160791
-0.170108
0.011507
-0.0277249
-0.0390396
0.087185
-0.0316641
0.0316965
-0.0220351
-0.286585
-0.00241631
-0.301122
0.0241404
0.0234985
0.00745958
-0.312491
0.0310127
-0.279208
-0.279613
0.0209679
0.0256665
-0.292936
0.00735668
0.0247268
0.00617119
-0.282496
0.306991
0.0968197
0.0515279
-0.150063
-0.197933
-0.357499
-0.0160842
-0.282944
0.0238983
-0.29741
-0.0910858
-0.30759
-0.271257
-0.15478
-0.0345254
-0.096009
-0.0415599
-0.0127332
-0.0211057
0.10078
0.112695
0.0255867
0.0196154
0.00618645
0.00123223
-0.00201322
-0.349932
0.0175373
0.00858779
0.00118455
0.0210285
-0.277653
-0.1458
0.282225
0.0805297
-0.11322
0.00108295
-0.124842
-0.33737
0.0318393
-0.277791
-0.0753106
0.0333085
-0.461121
-0.131643
0.0289343
-0.0218795
-0.476166
0.0551347
0.178624
0.00736897
0.0599084
-0.317389
0.130011
0.0285627
0.0293274
0.0778886
-0.0597027
0.509805
0.0340872
0.0171401
-0.00441033
-0.345416
-0.281032
-0.344063
-0.00611307
0.128436
0.181265
-0.0123009
-0.13789
-0.00783181
-0.0088539
-0.00366358
-0.0929396
0.0412615
-0.32917
0.0270741
0.0155839
-0.237146
-0.3553
-0.281818
0.00137516
-0.322097
0.0541607
0.311756
-0.32822
-0.302893
0.0424358
-0.0450676
-0.243664
-0.333512
-0.329865
0.118415
0.0209264
0.101253
-0.00893765
0.0167652
0.0413953
0.023466
0.0194281
-0.335097
0.0234106
-0.109742
-0.0463725
-0.248685
-0.00787248
0.0531463
-0.295852
0.460212
-0.344219
-0.132325
0.0155794
0.0408078
0.0335964
-0.182561
0.00457797
-0.282321
0.0351925
-0.0640095
-0.342043
-0.311233
0.0208148
0.0304448
-0.248628
-0.189811
0.0431389
-0.329852
0.0209336
0.0251803
0.107818
0.00630958
-0.154899
-0.00674806
-0.224718
0.0268938
-0.0149541
-0.247933
0.33957
-0.0868384
0.114065
0.0207108
0.0259671
-0.268824
-0.0884486
-0.00300342
0.0254604
0.134848
0.174998
-0.0836263
-0.304861
0.0252941
0.0292284
0.239065
0.0205489
-0.289918
0.254318
0.0278164
0.0286494
-0.0199043
0.0208408
-0.00448117
-0.322843
0.256998
-0.290196
0.131423
-0.0319238
-0.0941286
0.104785
-0.316367
0.121166
0.0250449
-0.0251349
-0.138079
0.0471161
0.0440081
0.0502841
0.00485505
0.0260949
0.0116097
0.0284398
0.020789
0.0616938
-0.0404361
-0.160021
0.00254501
0.486316
0.107384
0.0179279
-0.365285
-0.0126234
-0.222763
-0.0701842
-0.0114866
0.00477177
0.0439278
-0.260697
-0.151532
0.0045526
0.026496
0.0251326
0.256851
-0.000604842
-0.297324
0.0167724
0.0401251
0.161337
-0.310442
-0.307987
0.0918231
-0.0298219
-0.297277
-0.291863
-0.201803
0.0534336
0.0167465
-0.294294
0.0322418
-0.021452
-0.251288
-0.00277609
0.290951
-0.0320075
-0.325685
0.0254501
-0.285633
-0.222282
-0.0478808
-0.279015
0.0311266
-0.00280489
0.0270334
0.029177
0.023219
0.0317086
-0.277705
0.0309011
-0.00786355
0.0787473
-0.00586326
0.0172265
-0.0100376
0.0497624
-0.0786396
0.0195212
0.0195962
-0.294627
0.314337
0.0892186
-0.297388
-0.0379492
0.0469845
0.0306059
-0.00521568
-0.341606
-0.00804352
0.0179671
-0.322793
-0.27056
0.0759183
0.0214714
0.0249019
-0.00621309
0.0240801
-0.30928
0.0571126
-0.154852
-0.0380425
0.356142
0.0247442
-0.312454
0.00977967
-0.0793107
0.033317
-0.118421
-0.28417
0.0268129
-0.271569
0.0371763
0.0190708
-0.000854316
-0.263506
-0.296748
0.0448009
-0.0351875
-0.00858138
-0.300884
0.00275803
-0.0285665
-0.28597
0.10991
0.0175833
0.201613
0.0199462
-0.00791081
-0.00279938
-0.153137
0.0173025
-0.286342
0.0198548
0.0387984
-0.0852842
0.219497
-0.231913
0.00902098
-0.309111
0.029974
-0.0195147
0.0397933
-0.0165806
0.0319387
0.0200249
0.0249226
-0.0200949
-0.073387
-0.27178
-0.159753
0.181138
0.117715
0.0843973
-0.020239
-0.312538
-0.289821
-0.0830829
-0.308857
-0.246009
-0.0397991
-0.00880795
0.513906
-0.0841907
-0.0148144
-0.102035
0.0200217
0.0628705
0.0719282
-0.207287
0.129851
-0.354307
-0.293581
-0.0815062
-0.199956
0.0251965
-0.0765357
0.0763964
0.0329278
0.0432062
-0.0310062
-0.0817461
-0.304947
0.0731139
-0.301839
-0.0157696
0.0723731
-0.326666
0.425028
-0.0268615
-0.126071
0.0622374
0.244414
-0.238653
0.0280064
0.276673
0.238521
-0.292792
0.016452
0.103713
-0.278152
-0.0597463
-0.269797
-0.122927
-0.235627
0.0817029
-0.0203321
0.00837827
0.0400114
-0.15922
0.0244324
-0.15671
-0.177495
-0.0381552
0.0195172
0.0206332
-0.0337348
-0.0183068
0.0136149
0.0400406
-0.150937
-0.254937
-0.347452
0.0208604
-0.156865
0.0215578
-0.291845
-0.101599
0.223149
0.173811
-0.220149
0.0112996
0.0258359
0.189913
0.0330759
-0.0051916
-0.121776
-0.334528
-0.00402395
-0.168888
-0.300276
-0.0327028
-0.312436
-0.296876
0.0113973
-0.103829
-0.0514022
0.0126205
-0.000252889
0.332731
-0.303395
-0.302478
0.0482622
0.0294685
0.0031969
-0.036651
0.0469247
0.0597346
0.277568
-0.101016
0.020902
-0.283342
-0.0623422
0.17396
-0.00574422
-0.338676
-0.0333352
0.0159486
-0.0489993
0.501142
-0.00368622
0.0282273
0.0329161
-0.0450651
0.0111316
-0.0831685
-0.240913
0.0368224
-0.153422
-0.024928
-0.00435397
-0.238452
-0.28514
-0.191622
0.025429
-0.00469629
-0.201981
0.116056
-0.188386
-0.00375198
0.038088
-0.34229
-0.159607
-0.039901
-0.157454
0.285158
0.0312661
0.0195992
0.0162727
-0.288478
0.017881
0.0195505
-0.332361
0.125163
-0.213602
0.170527
0.0209695
-0.285011
0.0237681
0.0384418
0.0172755
0.108361
-0.308718
0.0233571
0.0315216
0.0335361
0.0316852
0.0214325
0.00898305
-0.316306
0.114208
0.061331
0.0231315
0.122017
-0.116827
-0.0483581
0.132154
0.0194779
0.00302419
0.0300486
-0.291738
-0.354659
-0.0303155
-0.300945
0.0252771
0.0818689
-0.244989
0.506291
0.00495672
0.0234654
0.400219
-0.112138
0.0157181
0.0247824
-0.284044
0.019354
-0.100799
0.0289781
0.46061
0.0246122
0.00884568
0.026374
-0.0166306
-0.0174253
0.0945392
0.115237
0.369814
0.0178438
0.0257403
0.0195045
0.0287627
-0.00995234
-0.0147252
-0.0473114
0.0266991
-0.111689
-0.344985
-0.0870592
-0.126161
0.0252973
-0.00358381
-0.344629
-0.178658
-0.00011772
-0.317743
-0.334321
-0.00474592
0.0319517
0.0238942
-0.0949186
-0.112597
0.512227
0.017119
0.0147294
0.0157824
0.0611507
0.00847124
-0.0254474
-0.0104049
-0.199741
0.0250691
0.0996202
0.0182966
0.067772
0.0401117
-0.0717178
0.247414
-0.324288
-0.117996
-0.309926
-0.105697
0.038732
0.115695
0.517623
-0.122533
-0.00879793
0.0236661
0.471586
0.023728
-0.311216
-0.00758987
-0.0630664
-0.0134168
0.0249539
0.00537636
-0.265753
-0.286496
-0.31706
0.303079
-0.34424
0.031787
-0.267283
-0.302893
0.0192714
0.0391585
0.0104914
-0.228073
-0.00217214
-0.300756
0.168049
-0.18436
0.0255043
-0.216751
-0.300651
0.507947
0.0949752
-0.0584572
0.017751
-0.337278
-0.00360985
0.38167
-0.213314
0.189845
-0.28414
-0.278939
-0.028868
0.024303
0.0173005
-0.117165
-0.31021
-0.34601
0.0111185
0.276962
-0.0457658
-0.167789
0.354864
-0.335757
-0.33749
-0.00896702
0.110265
-0.067334
-0.0389108
-0.0350773
-0.353158
0.0249478
-0.313384
0.00306129
-0.00834003
-0.080403
-0.164621
-0.227034
-0.0106663
-0.310535
-0.311791
-0.233031
0.12207
0.0195531
-0.00907749
0.0194795
0.0421289
-0.227521
-0.180183
0.0076114
0.0407374
-0.0713386
0.498555
0.0227275
0.0382478
0.439043
0.0329968
0.0249568
-0.00394642
-0.114949
0.0289435
-0.0436377
-0.341176
-0.113962
0.0101076
0.312944
0.356401
0.0329633
-0.0288987
-0.0660125
0.0192978
0.0220824
0.00875442
-0.324927
-0.126591
0.0360228
-0.0702101
0.189957
-0.0795062
0.0464609
-0.26966
0.0167517
0.0115009
0.439008
-0.213556
-0.131607
0.043149
0.0242436
-0.303648
-0.318147
-0.148254
0.352004
0.0233177
-0.0324179
0.0291802
-0.340904
0.0904431
-0.193438
0.0764905
0.011281
-0.0335701
0.00500788
0.0164252
0.0885285
0.0149727
-0.266721
0.00589949
0.0578442
-0.00406706
-0.0430764
-0.341529
-0.319555
-0.106601
-0.33833
0.0225631
0.0634417
-0.030738
-0.263649
-0.0135178
-0.00816719
-0.185356
0.125794
0.162984
0.0235286
-0.193864
-0.269498
-0.282981
0.051386
0.18143
0.342214
-0.0689329
-0.249559
-0.171288
-0.0818644
0.00314554
0.0740144
-0.119068
0.201745
0.022307
-0.120888
0.0109104
0.0252418
0.0469183
0.0114659
0.0389983
0.0301385
0.284252
0.013762
-0.00762107
-0.0113741
0.0124892
0.0371253
-0.0207918
-0.279318
0.315529
-0.0918075
-0.353898
0.0206719
-0.334292
0.0524917
-0.344891
0.0666679
0.0254146
-0.0100834
-0.0257079
-0.339946
0.457749
-0.0187896
0.0250584
0.00357262
0.036246
0.0241675
0.0253794
-0.330146
-0.0312215
-0.00458127
-0.191276
0.38391
-0.260377
-0.00617805
-0.189979
0.271513
-0.0902473
-0.0717827
0.382315
-0.131665
0.0294012
-0.337361
-0.21353
0.20988
-0.28296
-0.100809
-0.0124166
0.0192301
0.0392282
0.0647766
0.129116
-0.33864
-0.108796
0.0141644
-0.227199
0.0203884
-0.277827
0.460628
0.0219897
-0.33366
0.00658871
0.00392662
-0.0158134
-0.341315
-0.321991
-0.106347
0.160805
-0.00980142
-0.218702
0.019084
-0.00935635
0.0232888
0.0595737
-0.00342038
-0.248496
0.063933
0.210948
0.0575874
0.0213096
0.265818
-0.146088
-0.0753344
0.0562972
-0.0280453
-0.287635
-0.240708
-0.0145096
0.0104613
-0.0146486
0.0503583
-0.298328
-0.313405
-0.194638
0.0613098
0.016072
-0.284417
-0.200813
0.0337446
-0.326091
0.00938412
-0.134441
-0.342864
0.0117951
-0.301314
-0.333639
-0.140342
-0.333495
-0.249416
0.0277156
0.0632811
0.334826
-0.30734
0.0603684
-0.338036
-0.010134
0.038389
0.0249982
-0.0277045
-0.0893793
-0.0191269
0.41813
-0.33128
0.368381
0.175331
0.018115
-0.0349711
0.51209
0.0116781
0.455762
-0.0571773
0.0211738
0.0559965
0.0208417
0.0549332
0.157879
0.467425
-0.0219455
0.0144282
-0.345121
-0.327325
-0.131194
0.0245758
-0.102307
0.0369642
0.0157971
-0.24896
-0.295607
0.0165587
0.00107773
-0.272428
-0.279578
-0.0615376
0.0582779
-0.296766
-0.0218602
0.0191241
-0.0309484
0.0168017
0.00339199
0.00571132
-0.286486
-0.143355
0.0626792
0.283617
-0.100518
-0.318579
-0.274559
-0.287305
-0.187526
0.0456047
0.0232128
-0.0152485
0.0179704
0.164908
0.0183927
0.360074
-0.0425975
-0.23543
0.0277557
-0.334265
0.18272
-0.329458
0.0156894
0.438823
-0.065912
-0.194402
-0.219885
-0.0149662
0.0054132
-0.283764
-0.115586
-0.245902
0.0004451
-0.244178
0.0283375
-0.308433
-0.154088
0.210693
0.0367732
0.0269109
-0.306448
-0.302153
-0.0708723
-0.0073767
-0.190522
-0.0370784
-0.098042
-0.126956
0.23437
0.0374587
-0.183654
0.0390548
-0.0749178
-0.00628518
-0.30096
-0.00618126
-0.0305253
-0.227022
0.51983
0.0252618
-0.106139
-0.0392829
0.178021
0.0175071
-0.117773
0.088947
0.0728442
0.0420182
0.0179858
-0.294227
-0.0608111
-0.306658
-0.1711
-0.284647
0.0763612
-0.00514531
0.00832044
-0.0282661
-0.0779907
-0.0573256
-0.334498
-0.0155876
-0.153227
0.108627
0.0249968
0.0199457
-0.128811
-0.23019
-0.338625
0.039275
-0.31623
0.0160657
-0.26414
0.479096
-0.104983
0.0303224
0.00426977
-0.07023
-0.263792
0.0101078
0.0244614
-0.0324613
-0.09882
-0.0274317
-0.0469539
-0.284505
0.386964
0.0259328
-0.0345064
-0.311757
0.0250352
0.278451
0.00922685
-0.229694
0.0925534
0.0339303
0.116069
0.302595
-0.0150045
-0.264561
0.0376559
-0.185006
0.0594627
-0.233674
0.174804
0.0252512
0.0609448
-0.319174
0.0449738
0.093046
-0.146451
-0.0129458
-0.0038858
-0.306503
0.102997
0.412431
-0.0287335
0.221069
0.0481364
0.297601
0.102884
-0.0159932
-0.238705
0.124218
0.0253164
0.022383
0.074201
-0.285883
0.488216
-0.00926687
-0.0632988
0.0389777
0.0195645
-0.295563
0.0261883
-0.254805
-0.0975972
-0.316211
0.0183597
0.00991452
0.0148453
-0.0835822
-0.0759558
0.358467
-0.327094
-0.248924
-0.20729
0.0055506
0.505784
0.0323381
-0.113232
-0.0237214
-0.0780308
0.25696
0.0374801
0.00293624
-0.122511
0.00418425
-0.0246001
0.264689
-0.278817
-0.268067
-0.0759848
-0.295267
0.00362868
-0.00484436
0.0203021
0.327644
0.192929
-0.0765511
-0.128406
-0.293736
0.108493
0.062333
0.00807729
0.00103537
-0.336892
-0.00207689
0.154023
-0.000309988
0.0302635
-0.349331
0.404264
0.0262189
-0.124413
0.453468
-0.276178
-0.229167
0.0229727
-0.115305
-0.104562
-0.28752
0.0273864
-0.259091
-0.343363
0.0919566
-0.0453852
0.00152458
0.139642
-0.0108907
0.0309034
-0.341217
0.0332047
-0.00125112
-0.186605
-0.108321
-0.320612
-0.324873
0.4171
-0.350958
-0.00848825
0.039124
0.0279698
0.0249954
-0.265751
0.0227348
-0.319401
0.035757
-0.304591
0.102852
0.0582635
0.00820094
0.0625284
0.100205
-0.00733571
-0.0035403
-0.224568
0.0208301
-0.104796
0.0596357
-0.336046
0.099732
0.0271765
-0.0152479
-0.110599
0.0181303
0.0117577
0.0256637
0.0253089
-0.0346561
0.0283445
0.0268852
0.165149
-0.190417
-0.328828
-0.305255
-0.283168
0.0138921
0.0181754
0.0395314
-0.000507976
0.0361957
0.0112173
-0.142575
0.0294609
0.0213082
0.0202371
0.0280279
0.0100211
-0.334959
-0.0336549
0.0224787
-0.338029
-0.0973299
0.00958824
-0.338822
-0.31388
0.0212676
-0.109267
-0.0121805
0.030403
0.244396
0.0969393
0.00314427
0.0564983
0.0028177
-0.0782842
0.018162
0.0239378
0.012043
-0.30296
-0.0552534
0.171721
0.0183355
0.0225
-0.298726
0.117006
0.0216422
0.0110904
-0.00144097
0.0210815
0.258688
-0.346741
-0.247659
-0.342509
0.386586
0.122941
0.020583
-0.296568
-0.16565
0.0318265
-0.123254
0.0245165
0.0368478
0.0236749
-0.330954
0.115411
0.0224018
0.027751
-0.199708
0.0108177
0.0153185
0.0434474
0.364958
-0.21247
-0.2236
0.0273351
0.0853419
0.167185
0.106571
0.0273788
0.142483
0.336074
-0.244302
0.00476113
0.240352
-0.292801
-0.00179038
-0.292025
0.16102
0.338002
-0.129032
0.0375355
0.0421611
-0.0922853
0.00854607
-0.0254154
0.00245582
-0.169247
-0.261276
0.111841
0.0144296
-0.160187
0.315792
0.421317
0.179491
0.0324176
-0.0582043
0.034469
0.0415589
-0.0914152
0.182434
-0.334075
0.0201657
0.33027
0.00427801
-0.27943
-0.18303
-0.277391
0.00518321
0.0807217
0.510329
0.474918
0.205077
-0.359189
-0.0275002
0.208458
0.0180789
0.0292236
-0.302206
-0.199952
-0.0372635
0.0267208
0.144587
0.448014
0.382255
0.172225
0.0143808
0.0227914
0.00984791
0.400445
-0.2991
0.00976738
-0.101012
-0.338446
-0.125968
-0.115381
-0.322357
-0.3442
-0.267167
0.0101165
-0.0260809
-0.297528
0.0246377
0.17159
0.415143
-0.339481
0.0891977
0.158021
-0.301607
0.426745
0.399258
-0.293456
-0.296658
-0.325561
0.0227062
0.00481623
0.0304334
-0.0231116
-0.319422
0.265621
0.381826
0.203691
0.18133
0.00156959
-0.15656
-0.00205453
-0.0668695
0.0192324
0.16108
-0.341572
-0.27807
0.0188241
0.0015358
-0.0732065
-0.175269
-0.160985
-0.338072
0.224228
0.0293635
0.326537
-0.000540608
0.345325
0.167404
0.0402214
-0.159483
0.350904
-0.212158
-0.0375229
0.0312403
-0.00413028
-0.289501
0.106077
0.00356322
0.0261023
0.0250803
0.00862917
-0.34015
-0.285797
-0.287125
0.497376
-0.341598
-0.0337825
0.0342986
-0.324623
-0.0367529
-0.109245
-0.249472
0.0158361
-0.298133
-0.279918
-0.0972193
0.171332
0.32374
0.0507868
0.508488
-0.00144102
-0.344573
0.0218404
0.0426717
0.103543
0.507014
-0.164451
0.235429
-0.340769
-0.272122
0.308118
-0.19218
0.440878
-0.00689151
0.449371
-0.303997
0.0444124
0.207529
-0.261151
-0.0718859
0.103193
0.0228852
-0.0808112
-0.0882251
-0.0497187
0.0249176
-0.270695
0.331413
-0.345154
-0.341176
-0.285041
0.120307
0.489897
-0.271646
0.0153773
-0.129685
-0.14936
-0.268939
0.0476224
0.0965025
-0.342601
-0.292226
0.000997287
0.410005
0.0118723
0.0207081
0.449184
0.109251
-0.305867
-0.333633
-0.286877
-0.26561
0.00583932
-0.0776393
0.0498783
0.0150961
0.35685
-0.118296
-0.0456177
0.518031
-0.309875
0.0239912
-0.046144
0.44778
-0.0298161
0.00998339
0.245494
-0.308804
-0.310793
-0.236275
-0.276527
-0.339952
-0.326217
-0.312365
-0.290016
-0.0527856
0.109989
0.040979
0.0745935
-0.338438
-0.264568
0.0212633
0.00498464
-0.338686
-0.322352
-0.0419117
-0.338699
0.044366
0.422969
-0.254052
-0.176233
0.0187647
-0.343246
0.503094
0.0415589
0.0872182
-0.302779
-0.296553
-0.303505
-0.288164
0.0295885
-0.295032
-0.313257
0.193455
-0.0949882
0.344046
0.0105248
-0.0318385
-0.303234
-0.283675
-0.0164555
0.0188433
-0.342899
0.331516
-0.28794
-0.0879242
0.0429513
-0.313842
0.0306687
-0.302363
0.019367
-0.0654434
0.0489117
0.00331192
0.00945733
-0.0124985
0.106083
0.00122464
-0.282655
-0.113014
-0.270001
-0.337673
-0.323148
0.0177364
-0.259327
0.500482
-0.306594
0.0773905
0.0376198
-0.281721
-0.204223
-0.287254
0.242452
0.0902762
0.00883484
-0.296941
-0.345467
0.0913124
-0.265646
0.156976
0.0424895
-0.329692
0.25513
-0.31123
0.00252041
-0.0520117
-0.325825
-0.306859
-0.306693
-0.199956
-0.308536
-0.310216
-0.274975
0.0274534
-0.34354
0.0986626
0.0256285
-0.00108233
0.0428846
-0.345766
0.252447
-0.31016
-0.302401
-0.0724342
0.349511
-0.104915
-0.283786
0.365428
-0.312735
-0.340151
0.467151
0.138951
0.000668519
-0.200908
0.207043
-0.114692
-0.32723
-0.280184
0.424714
0.0268598
-0.014104
0.230126
0.0218188
0.00353971
-0.0121068
-0.312227
-0.0508679
-0.0377844
-0.332217
-0.114965
-0.222599
-0.263742
-0.315485
-0.198819
-0.292084
-0.335448
-0.286417
0.233314
-0.0602816
0.0563161
0.498474
-0.121495
-0.212675
0.293466
0.284273
0.00159447
-0.19738
-0.243397
-0.046264
0.00500678
-0.0278538
-0.276634
0.0203863
0.0288545
-0.0775767
-0.312961
-0.0557548
0.225322
0.116587
0.154789
-0.11954
0.0273909
0.0278899
-0.0386492
-0.210299
0.0541178
-0.00734471
0.321379
-0.245587
0.0579936
-0.316241
0.00923545
-0.31281
0.0861721
0.0883413
0.00279947
-0.178815
-0.07339
-0.341958
-0.343038
0.302327
0.0257801
-0.0129711
-0.273023
-0.280242
-0.0119908
-0.119881
-0.298662
-0.081444
0.319254
-0.000777586
0.0412808
0.0361329
-0.329927
-0.0691063
0.0224583
-0.325477
0.0441876
0.239612
-0.218952
0.0106812
0.224065
-0.0903303
-0.335328
0.0681638
0.12143
0.0881556
-0.0825607
-0.000362407
0.0294342
-0.236526
-0.182803
-0.120222
0.00176031
-0.290204
0.0569885
0.046126
0.0168788
-0.221964
-0.321424
-0.00473584
-0.297132
-0.271969
-0.0783494
-0.306905
-0.277988
-0.338043
-0.276332
-0.10926
-0.115921
-0.198262
-0.0742701
0.0168361
0.155862
-0.0650056
-0.332331
0.0257977
-0.277334
0.031321
0.415374
-0.110007
0.0215576
0.00175503
-0.296967
-0.333412
-0.346431
-0.328634
0.0150714
-0.108211
-0.316679
-0.0447106
-0.291261
0.203273
0.327113
-0.299886
-0.0582647
0.0202702
-0.147912
-0.167493
0.0409479
-0.315646
-0.251221
0.0095831
0.0235276
0.0184614
0.0211641
-0.337031
-0.0155001
-0.0720905
0.0215593
-0.0203009
0.164358
0.0343846
-0.331907
-0.138729
0.0300875
0.00359955
-0.163406
-0.0180332
0.262108
-0.341574
-0.337148
-0.0158478
0.424416
0.186519
0.00341465
-0.182764
-0.335989
0.0280128
-0.312647
-0.231263
0.304414
-0.00996301
-0.0481989
-0.112489
0.133177
-0.308268
0.0256854
0.0229805
-0.0122508
-0.282877
-0.303225
0.115993
-0.110447
-0.00107453
-0.0471132
-0.148715
-0.218589
0.0402401
-0.0240242
-0.2908
0.325423
0.0308255
0.044175
-0.328223
-0.339554
0.0356836
-0.237086
-0.0660452
-0.205132
-0.19201
0.0210136
-0.340268
-0.0621022
0.0183477
-0.346957
-0.204515
0.0355296
0.0258366
-0.219312
0.014167
0.0274138
-0.147499
0.215326
0.234884
-0.315989
-0.0222627
-0.081925
-0.291752
0.00978558
-0.274229
-0.314665
-0.0224155
-0.106197
-0.196773
0.0486264
-0.190427
0.00105991
-0.295511
0.464805
0.0227341
-0.257634
-0.27293
0.0457639
0.0448084
0.444834
-0.0771374
-0.343124
-0.338019
0.0269834
-0.064392
-0.334622
-0.024476
-0.105279
-0.121016
0.100699
-0.344404
-0.199495
-0.0299803
-0.210991
-0.28417
0.242307
-0.117655
0.0185004
0.0031257
0.0222109
0.225177
-0.243079
0.0186504
-0.0699457
-0.306033
-0.280363
0.0250738
0.00680773
0.44274
-0.322566
0.0250958
-0.274597
-0.0628873
-0.1068
-0.0718645
0.0298958
-0.0251834
0.0485893
0.0329326
-0.23832
0.0163843
0.263318
0.030808
-0.284182
-0.0297673
-0.0316452
0.00305047
-0.0226278
0.0255199
-0.0721199
-0.345421
-0.185456
-0.0240141
0.232595
0.017528
0.159891
-0.105693
-0.245179
-0.339535
0.0147042
-0.258044
0.0288498
0.513436
-0.331613
-0.346224
0.0155211
0.0147098
-0.137283
-0.322517
0.422397
0.0279578
-0.221325
0.285445
0.197349
-0.153841
-0.0125567
0.0501047
0.151865
-0.255248
0.0428255
-0.253289
0.184043
-0.264482
0.332676
0.00696074
-0.270431
0.032254
0.0507561
-0.215032
0.0141248
0.371804
-0.295773
-0.186397
0.132466
0.364137
0.0445936
-0.125339
-0.0651225
-0.273556
0.052692
-0.00403259
0.0362964
0.00080408
-0.0966394
-0.312873
-0.115552
0.192085
0.348433
0.020358
-0.111066
-0.259421
-0.101583
0.0411284
0.0236574
-0.0277117
-0.312586
0.0550856
-0.0443422
-0.293723
-0.144981
0.0504185
0.367558
-0.143002
0.0304318
0.0188658
-0.14364
0.501185
-0.045239
-0.0457144
-0.290469
-0.331553
-0.177328
0.0451077
0.0575411
0.0166418
0.0997919
-0.160747
-0.112596
-0.0550196
-0.141523
-0.288345
0.0933616
0.0305158
-0.33965
0.120101
-0.348219
-0.19021
0.0395144
0.0900816
0.0708745
0.0125438
0.035976
-0.096646
-0.0019578
0.0795331
0.0133144
0.0378657
0.0480618
0.0342419
0.188067
-0.0748245
-0.00747733
0.0358834
0.0211864
0.0751177
0.065405
0.39635
0.027555
0.0866082
0.456954
-0.00197609
0.0423857
0.0627221
-0.0498493
-0.336995
-0.334111
-0.300095
-0.262487
-0.202762
-0.202708
0.0269501
-0.0948333
0.024834
-0.242736
-0.028693
0.0877856
0.0601067
-0.112351
0.0280546
-0.0581019
0.0150602
-0.342016
-0.176219
0.0217318
-0.282227
-0.215935
-0.0135626
-0.112793
0.0311501
0.00102531
-0.346207
-0.00871097
-0.108631
-0.191199
0.0267374
-0.000582312
-0.122006
-0.293233
0.102984
-0.0251273
-0.338913
0.0295776
-0.282711
-0.104604
-0.312094
0.00687871
-0.318923
0.0420677
0.0401984
-0.210532
-0.11961
-0.284834
-0.298981
-0.340865
-0.344505
-0.141464
-0.140223
0.0191747
-0.139874
-0.0141677
0.0154924
0.32296
0.028814
0.0313009
0.00203369
0.00590523
-0.105626
-0.15661
-0.324573
-0.157294
-0.281018
-0.0239259
0.154046
-0.0239982
0.0508839
-0.139743
0.0332424
-0.0109742
0.0188946
-0.0248223
0.0830663
0.393451
-0.114485
-0.0799605
0.0263319
0.271641
0.265822
-0.285588
-0.325335
-0.0124074
-0.0866626
0.0270699
-0.331203
-0.343701
0.0362198
0.0179345
0.00643457
0.0253122
-0.164172
-0.219008
-0.319944
0.0579979
-0.126178
0.0364188
-0.290614
-0.101998
0.0137546
0.00072478
-0.18415
0.128203
-0.00717029
-0.064348
-0.134466
-0.249321
-0.0117978
0.0177034
0.0850091
-0.119564
0.0297431
-0.287789
-0.113815
0.0482835
-0.000363172
-0.346216
-0.10861
0.0418024
-0.215099
-0.31205
-0.287931
-0.111632
-0.0560796
0.404978
0.0218946
-0.313901
-0.33982
0.0322834
-0.106192
0.0143855
-0.343815
0.0344058
0.0206472
0.0014045
-0.115544
0.00496196
-0.261333
-0.0248538
0.0428732
0.0944366
-0.30989
0.00324051
0.0240125
0.0186447
-0.283422
-0.314478
-0.310465
-0.314658
-0.0858591
0.0435151
0.0959611
-0.153555
0.36252
0.0307437
-0.103106
-0.117108
-0.150977
-0.00179348
-0.372268
-0.322271
-0.079506
0.0188477
-0.0016085
0.033846
-0.000238558
0.0351829
0.028315
-0.0184239
0.335398
0.0254169
-0.142313
0.0720136
0.0382963
-0.344352
-0.105031
-0.028225
0.0289716
-0.301008
-0.00319555
0.00283101
0.0272817
0.0140217
-0.197533
-0.0687106
0.0337288
0.235056
0.0187963
-0.0432409
-0.0132511
-0.181759
0.0182669
0.0398159
-0.242822
-0.0315457
-0.191256
-0.0673101
0.0914282
-0.131438
-0.000130398
0.026814
0.0426173
-0.3053
-0.0342817
0.0401854
0.481929
0.0304522
0.00400328
0.0161926
-0.234576
0.147445
-0.148294
0.178455
0.154108
0.249891
0.00866345
0.0319267
0.250912
-0.287604
0.0523948
0.0279284
0.0127001
0.0297895
-0.20479
0.0152316
-0.0516781
-0.353048
0.149013
-0.00144314
-0.330667
0.0311326
0.133574
-0.326526
-0.0589717
0.0370932
-0.0152366
0.0395235
-0.0334456
0.0185947
0.0405317
0.0358046
0.0171132
0.0184865
0.167762
0.054053
-0.146127
0.00399527
0.0931725
0.0439954
-0.0541672
-0.322101
0.0262081
-0.0028923
0.346686
-0.0288115
0.0226755
-0.185113
-0.291246
-0.32666
0.0556896
0.0129765
-0.0739224
0.0251358
0.024631
-0.073114
0.163462
0.00276103
0.194597
0.0475582
0.0236767
-0.00104924
0.00155123
-0.0248547
-0.073818
-0.0709777
-0.0506885
-0.290436
-0.0110432
0.0596461
0.00395757
-0.349293
-0.116392
-0.309911
0.0536186
-0.0959654
-0.00451978
0.0465535
0.0261627
0.170529
-0.302016
-0.308322
-0.0140505
-0.0537734
-0.278771
0.0769705
-0.19702
-0.297031
-0.293504
-0.0625812
0.0512328
-0.0689233
-0.0973261
-0.115589
-0.307789
-0.263554
-0.297601
-0.0069273
0.020566
0.0447221
-0.157287
0.00611247
0.00781687
-0.083974
0.0406374
0.000226657
0.0161714
0.243381
8.68561e-05
0.013055
0.0281336
-0.295823
-0.00281826
0.0535712
0.0258929
-0.0244857
0.0165955
0.311718
-0.113052
-0.25661
-0.00641761
0.0374187
-0.143684
-0.345639
-0.282674
0.0436236
0.022088
0.225741
0.324819
0.0441173
0.362334
0.0363204
-0.115066
0.0230458
-0.31558
0.026821
0.0432969
-0.0870242
0.0470451
-0.015814
0.0366794
-0.0445778
0.0197516
0.0689445
0.0207444
0.0490822
-0.0888684
-0.0158428
0.0241099
-0.0284742
0.143487
-0.0104188
-0.0141781
-0.311564
-0.259098
0.0322541
-0.179234
0.0246633
-0.0506495
-0.0965874
-0.205809
0.0183272
0.0410659
0.0558835
0.417458
0.00308987
-0.0137752
0.0365417
0.0459774
-0.111425
-0.0175892
-0.0758464
0.00541188
0.183603
0.232476
-0.0830742
0.0978609
0.433295
0.0387399
0.0224017
-0.341744
-0.226826
0.0156976
0.00149335
0.0272659
0.0483116
0.0417759
0.0171723
0.0072734
0.0269685
-0.301313
-0.320016
-0.0673757
0.0462173
-0.268982
3.54832e-05
0.00924683
-0.345371
-0.0348713
0.00117112
0.0266794
0.02842
-0.0759209
0.0323765
0.0709976
0.0384645
0.0136651
0.0460911
-0.0665693
-0.0788096
0.0233204
-0.107802
-0.318639
0.0841939
0.0290399
0.289175
0.00455362
0.026664
0.0261317
-0.0656654
0.0219954
-0.315854
0.0564984
0.425123
0.480241
-0.0762288
-0.0314088
-0.0103905
0.0352147
0.0350147
0.0106519
-0.191068
-0.167244
0.0178337
0.0927773
-0.336492
-0.00528257
0.0983167
0.0244495
-0.028047
-0.0240234
0.162042
0.0213037
-0.0691389
0.0912245
0.218712
-0.333452
-0.27855
-0.0129482
0.0179732
0.17212
-0.0260162
0.0454845
-0.0908176
-0.0239946
-0.142844
0.0131746
0.306267
0.0182906
0.319991
-0.0691323
-0.31597
-0.344749
0.0237627
-0.0798016
0.039901
-0.203638
0.000491155
-0.0125962
-0.175956
0.0349367
-0.000372717
0.0119452
-0.000335406
0.111551
-0.103613
-0.331057
0.0207932
-0.0884771
0.0206584
0.0010838
0.0214142
-0.337636
-0.156615
0.0425934
0.0583661
0.0241129
-0.346847
0.0144944
0.04406
0.0697586
0.0463645
0.180774
0.0145263
-0.290291
0.0274659
-0.0241792
-0.0101071
0.0350132
0.00816837
0.0250811
-0.263203
0.0134019
0.0471686
-0.211444
0.0020066
0.0281726
0.0247256
0.0258982
-0.102143
0.0407515
0.0312875
0.476022
-0.033164
0.0192269
0.0634458
-0.0057664
-0.302313
0.0813931
0.0612476
0.0400874
-0.0462971
0.028602
-0.257326
0.0130858
0.0281882
-0.295782
0.0171574
-0.0843227
0.0608582
-0.000496862
-0.00371731
0.15676
0.0360375
0.027544
0.0237133
-0.0367602
0.0376087
0.0264035
0.0568529
-0.0124179
-0.0118157
-0.0133265
-0.226979
0.0288698
0.0245114
-0.285911
0.0464578
-0.0423536
-0.173777
-0.32203
0.0211388
0.0549822
0.0313138
0.00466807
0.0803517
-0.0664187
0.088182
-0.0711823
0.0133012
-0.0440279
0.0277134
0.000729545
-0.0471083
-0.0484892
0.0680011
-0.0482563
0.020641
0.0307373
0.0186662
-0.285105
-0.0317247
0.0247843
-0.292231
-0.0269421
0.0341644
0.0275148
0.0300506
0.00858465
-0.333868
0.0243236
0.0269303
-0.0282693
0.02698
0.0323972
0.0267011
-0.00243844
-0.0379542
0.0401308
0.192542
0.0233607
-0.0854857
-0.00487869
0.00455495
-0.0359199
-0.270356
0.0244644
0.0281012
0.0727417
0.0436829
-0.0371588
-0.350124
0.0760568
0.108954
-0.339078
-0.201508
0.0758474
-0.0260681
-0.136026
-0.14238
-0.0298753
0.0243562
-0.013702
-0.116479
-0.0247732
-0.318956
-0.00425161
0.00277265
0.0264325
-0.0149413
0.0852196
0.00401109
0.0168486
0.0235163
-0.101369
0.0903513
-0.0215592
0.00157447
0.435899