/*--------------------------------*- C++ -*----------------------------------*\
| =========                 |                                                 |
| \\      /  F ield         | OpenFOAM: The Open Source CFD Toolbox           |
|  \\    /   O peration     | Version:  v2012                                 |
|   \\  /    A nd           | Website:  www.openfoam.com                      |
|    \\/     M anipulation  |                                                 |
\*---------------------------------------------------------------------------*/
FoamFile
{
    version     2.0;
    format      ascii;
    class       volVectorField;
    location    "150";
    object      U_0;
}
// * * * * * * * * * * * * * * * * * * * * * * * * * * * * * * * * * * * * * //

dimensions      [0 1 -1 0 0 0 0];


internalField   nonuniform List<vector> 
9793
(
(0.958353 -0.0124059 2.83269e-20)
(-0.281714 -0.0372195 0)
(0.991189 -0.0069545 -1.12183e-20)
(-0.0372464 0.151011 4.38965e-20)
(0.999934 -1.43076e-05 0)
(1.20894 -0.136892 -3.75135e-22)
(1.06528 -0.252537 2.79462e-20)
(-0.0838551 0.0228719 -8.24126e-20)
(1.01995 -0.0448104 -5.28515e-21)
(-0.104508 -0.0376162 1.37206e-19)
(0.999914 -0.001296 -8.49426e-21)
(0.999885 -0.00145046 0)
(1.00177 -0.0104499 -4.76389e-21)
(-0.0238008 0.0629147 9.28479e-20)
(1.021 -0.0267095 -4.56222e-21)
(1.09444 -0.00803738 4.66815e-21)
(1.12949 -0.125206 -2.17828e-20)
(0.993386 -0.0095624 -1.07562e-20)
(-0.0664321 -0.0252182 2.67461e-20)
(1.01993 -0.00574657 2.02855e-22)
(1.02661 -0.0115412 -2.79988e-23)
(0.999997 -2.40014e-05 -8.28637e-21)
(-0.0446234 0.196388 3.24846e-20)
(-0.076558 0.0216857 6.60085e-20)
(0.00635579 0.0571715 1.46711e-20)
(0.911714 -0.0502621 8.50251e-20)
(0.999638 -0.00340074 1.25716e-20)
(1.00001 -0.000374457 -7.56173e-22)
(1.01975 -0.00606896 1.79778e-22)
(1.12277 -0.190091 2.29641e-20)
(-0.217591 -0.00888903 5.33208e-20)
(1.23287 -0.16383 1.23975e-19)
(0.995829 -0.00382058 -1.68983e-20)
(0.996322 -0.0100442 0)
(1.00597 -0.000633113 -4.88719e-21)
(1.0955 -0.0596968 0)
(1.08198 -0.0141469 1.46849e-20)
(0.911841 0.0123418 -9.13402e-21)
(-0.137177 0.0525494 5.49369e-20)
(1.07328 -0.101679 1.35715e-20)
(1.11541 -0.185279 3.43424e-20)
(0.590063 -0.0365547 5.15935e-20)
(-0.0770205 -0.00891899 5.60406e-20)
(1.00001 -0.000269961 4.34575e-22)
(0.991696 -0.000270437 -8.87151e-21)
(0.996289 0.000355026 0)
(-0.155587 0.0122127 0)
(0.999999 -0.000146293 0)
(1.03734 -0.00930622 -1.76126e-21)
(0.993174 -0.009012 1.21204e-21)
(1.09714 -0.0563055 -1.52829e-20)
(1.00643 -0.000781953 5.38716e-21)
(1.11109 -0.0882833 0)
(0.999976 -0.00029151 0)
(0.885789 -0.109422 -2.66607e-20)
(-0.0440955 0.143804 2.76821e-20)
(1.00218 -0.00952807 0)
(1.18988 -0.07048 0)
(1.03712 -0.0102417 1.96882e-21)
(1 -7.60447e-05 0)
(0.894898 -0.00567821 -2.42126e-20)
(0.800794 -0.303499 7.21291e-20)
(0.992972 -0.00695637 2.07198e-20)
(1.1267 -0.0333848 -3.03908e-20)
(1.00306 -0.00148066 -8.78537e-21)
(1.01935 -0.0428689 6.98911e-21)
(-0.121791 -0.00180172 2.14581e-19)
(1.05565 -0.0631982 -3.25203e-22)
(1.08541 -0.0100376 -7.79643e-21)
(-0.0399382 -0.0120367 0)
(0.976468 -0.00914844 0)
(0.582041 0.0619061 0)
(-0.109506 0.0251585 0)
(0.399044 -0.0346614 3.48873e-21)
(-0.00614487 -0.00482818 0)
(0.999974 -0.000478667 0)
(0.785689 -0.110932 3.50215e-20)
(0.492218 -0.034137 1.35232e-19)
(0.993956 -0.00376183 1.07081e-20)
(0.999969 -0.000151564 -9.46365e-21)
(0.770402 -0.112541 -1.02011e-19)
(-0.070213 -0.0261036 7.09256e-23)
(1.12759 -0.118587 3.0811e-20)
(0.970748 -0.0715977 3.65062e-20)
(1.08537 -0.0130333 0)
(1.18484 -0.226194 4.27981e-20)
(0.999944 -0.000155359 6.99516e-21)
(1.17861 -0.0314959 4.49321e-20)
(-0.142265 0.0550275 -5.44136e-20)
(0.788377 -0.285031 -9.52672e-20)
(-0.0544598 0.164212 5.34387e-20)
(1.25745 -0.264637 2.15304e-19)
(1.25322 -0.272786 5.8306e-21)
(1.06658 -0.150542 -1.64912e-22)
(-0.0733549 -0.0163998 -1.39942e-19)
(0.994827 -0.0134078 9.66377e-21)
(0.0210993 -0.00668889 2.39897e-20)
(1.11373 -0.138307 1.50617e-21)
(1.0364 -0.081658 1.59888e-21)
(0.999962 -4.58046e-05 -1.99429e-21)
(-0.107031 0.097199 1.22523e-19)
(1.10685 -0.0868059 0)
(-0.125324 -0.165314 0)
(0.992285 -0.000278252 -8.00986e-21)
(-0.0779744 0.00599053 0)
(0.251096 0.000666476 -8.7235e-20)
(0.515324 -0.0214582 -5.5698e-21)
(1.00483 -0.00822098 1.0237e-21)
(0.993989 -0.00330709 0)
(0.999988 -2.55857e-05 1.03459e-20)
(1.00006 -0.000750871 0)
(-0.0500117 0.184084 2.92233e-20)
(0.0950111 -0.0702431 0)
(-0.215306 -0.0130334 7.60688e-20)
(0.977276 -0.00979417 6.69898e-21)
(0.998726 -0.00189421 -5.97554e-21)
(1.07573 0.0058263 -1.17305e-22)
(0.996566 -0.000532768 0)
(-0.0564278 0.126122 -1.11267e-19)
(0.995714 0.000750373 1.28784e-21)
(-0.121826 0.0104574 0)
(1.18344 -0.0350289 4.80985e-20)
(0.133129 -0.00731326 1.15678e-19)
(1.13258 -0.0754739 0)
(1.08175 -0.0172618 0)
(0.995971 0.000980755 0)
(1.13056 -0.139488 0)
(-0.202704 -0.00793084 0)
(1.24054 -0.0215042 -6.30983e-20)
(1.24184 -0.0165215 7.92002e-20)
(1.0702 -0.0362998 0)
(1.00689 -0.0166286 0)
(0.9601 -0.0136468 -2.6285e-20)
(1.05093 -0.0558407 0)
(1.08848 -0.059582 0)
(1.12467 -0.268556 0)
(1.24714 -0.118303 0)
(1.07696 0.00331818 -1.25062e-20)
(0.999994 -0.000362951 0)
(1.14564 -0.120743 -7.08988e-20)
(-0.0706248 -0.0285363 0)
(1.09207 -0.0604046 -1.89193e-20)
(0.981727 -0.0192658 0)
(1.16428 -0.0340581 0)
(-0.145086 0.010957 -8.41228e-20)
(1.05332 -0.433323 8.11183e-20)
(0.996071 0.00163256 1.80154e-20)
(0.0133379 -0.00344635 -4.5094e-20)
(1.00653 -0.0170223 0)
(0.99584 0.00139688 -2.0231e-20)
(0.99868 -0.00381641 0)
(0.146639 -0.0733735 -6.15503e-20)
(1.03478 -0.0782146 -3.4203e-23)
(0.999565 -0.00337508 -9.2168e-21)
(0.984191 -0.00217346 -1.30177e-21)
(1.25068 -0.295298 0)
(1.13576 -0.125709 -1.54696e-20)
(0.992969 -0.00759791 -1.97157e-20)
(1.25482 -0.166086 -1.19398e-19)
(0.982487 -0.0107042 1.60065e-20)
(1.17379 -0.0350519 -2.43074e-20)
(1.07131 -0.038999 0)
(1.02622 -0.0121081 -3.60526e-22)
(0.560625 -0.37833 0)
(1.04589 -0.0228663 3.56841e-21)
(0.689684 -0.0670881 0)
(-0.13481 -0.194795 2.98797e-20)
(1.04815 -0.0282453 -8.57904e-21)
(1.00491 -0.00754585 -1.79036e-21)
(0.999919 -0.000981915 -8.25192e-21)
(0.980771 -0.0186086 1.33352e-20)
(-0.167253 -0.022312 8.8155e-20)
(0.40463 -0.222469 -1.82747e-20)
(-0.200483 0.035006 6.97619e-20)
(1.00204 -0.0109184 -9.6604e-21)
(1.20594 -0.132739 -3.9965e-20)
(0.964081 -0.348666 -1.36717e-21)
(0.527887 -0.47066 -1.05221e-19)
(0.993391 -0.00470977 0)
(1.05903 -0.0584495 1.06953e-20)
(-0.0500274 0.00653838 6.31309e-20)
(-0.152028 0.00813241 8.93259e-20)
(1.18859 -0.032919 -5.50283e-20)
(0.995937 0.000189449 0)
(0.997278 0.00014975 8.00646e-21)
(1.00511 -0.00798764 0)
(0.198154 -0.00469464 4.47689e-20)
(-0.124141 0.0235165 -1.61326e-20)
(0.823911 -0.406219 1.36476e-20)
(-0.114417 -0.14248 0)
(1.01719 -0.0402041 -1.72166e-21)
(-0.126957 0.399957 0)
(0.389118 -0.107809 0)
(0.907799 -0.0109645 -3.79143e-20)
(1.04012 -0.00628984 5.27599e-21)
(0.953568 -0.0484318 -1.62474e-20)
(0.177199 0.139884 0)
(1.01712 -0.00590477 1.35247e-21)
(0.993087 -0.0100108 7.00407e-21)
(0.99966 -0.00045287 -1.264e-21)
(0.973721 -0.00927788 0)
(1.02932 -0.0105745 0)
(1.10329 -0.0527164 -1.05254e-21)
(1.08381 -0.0338454 -9.39813e-21)
(-0.0730438 0.0502397 -4.46822e-20)
(0.980741 -0.00052904 1.23635e-20)
(1.06576 -0.0920482 5.97711e-21)
(1.04984 -0.0269677 -5.35943e-21)
(0.964817 -0.0266518 -3.18891e-20)
(0.757872 -0.509953 1.24482e-20)
(1.14012 -0.119882 0)
(-0.0696938 -0.0292225 0)
(1.01513 -0.00555722 5.13259e-21)
(-0.0529529 -0.0133531 0)
(0.966177 -0.0710777 -6.57818e-21)
(1.13885 0.0301611 -1.84739e-20)
(1.02086 -0.0278395 -1.83189e-22)
(1.13023 -0.260357 3.87336e-20)
(0.998862 -0.00164222 -1.68195e-20)
(0.732648 -0.0274669 0)
(1.11916 -0.140754 -3.14205e-20)
(1.02915 -0.0111678 0)
(0.373954 0.500151 2.06648e-19)
(-0.211062 0.00752678 -5.86395e-20)
(1.06027 -0.147807 1.06582e-20)
(0.993843 -0.015286 0)
(1.14741 -0.0788788 0)
(-0.186453 -0.048938 4.15491e-20)
(0.745688 -0.0562357 0)
(0.742036 -0.0665923 0)
(-0.0817957 0.0855333 8.29814e-20)
(1.2106 -0.026036 0)
(1.13533 0.0255907 0)
(1.13093 -0.0330468 2.60992e-20)
(0.397457 -0.0847821 0)
(1.03255 -0.00441559 0)
(-0.183951 0.249576 -6.14896e-20)
(-0.199597 -0.0139679 0)
(1.01676 -0.00573532 1.40129e-21)
(0.999763 -0.000125351 -3.04884e-22)
(0.673737 -0.0386357 0)
(0.986003 -0.0142552 2.28545e-20)
(1.00004 -0.000692211 1.07551e-20)
(1.20124 -0.0617776 4.23843e-20)
(1.20507 -0.0706917 -4.27546e-20)
(1.01739 -0.042262 5.6146e-21)
(1.06164 -0.0578691 1.4206e-20)
(1.06934 -0.0944073 -7.23162e-21)
(0.92262 -0.16744 2.32262e-20)
(1.06711 -0.0510648 4.12254e-21)
(0.99343 -0.00418928 0)
(1.03429 -0.183822 0)
(-0.0333054 0.051279 0)
(1.02811 -0.0111576 7.20691e-22)
(-0.203746 0.0280905 0)
(0.999976 -0.000358576 -2.5335e-21)
(0.999807 -0.00174954 0)
(1.01324 -0.00106536 -3.39799e-21)
(-0.0471222 0.133471 -1.34826e-19)
(0.993248 0.00123723 -1.18784e-20)
(1.25308 -0.29247 6.56386e-20)
(-0.0739509 0.000417857 4.80131e-20)
(1.00042 -0.00274201 3.84012e-21)
(0.999011 -0.00162935 0)
(1.21936 -0.21144 -1.02166e-19)
(1.01324 -0.000673816 0)
(0.999888 -0.000380665 -9.49454e-21)
(1.01397 -0.000627131 2.22068e-21)
(-0.0814247 9.83867e-05 0)
(0.564354 -0.34451 0)
(0.925529 -0.0472327 -2.93321e-20)
(0.848389 -0.474771 1.60504e-21)
(1.18435 -0.0775757 0)
(-0.14575 -0.171326 -9.15421e-20)
(-0.0609909 0.244646 -2.71989e-19)
(1.04892 -0.0303732 4.38274e-21)
(-0.0690742 -0.0982372 -9.98305e-20)
(0.99998 -0.000368337 -7.08081e-21)
(-0.162526 -0.0621423 -9.96522e-21)
(0.366024 -1.07778 0)
(-0.160375 0.0605675 1.92556e-19)
(-0.110531 0.00931685 0)
(1.20848 -0.0285456 -2.17119e-20)
(1.07202 -0.0337696 -1.51434e-20)
(1.12165 -0.117239 0)
(1.08078 -0.0337553 1.00537e-20)
(1.04132 -0.00457218 5.23146e-21)
(1.05465 -0.0211183 3.48662e-21)
(0.784718 -0.483646 -2.44657e-20)
(0.907598 -0.0530506 -2.27319e-20)
(0.999121 -0.00140352 0)
(1 -8.96674e-05 -6.87003e-21)
(1.01551 -0.00575946 -3.14504e-21)
(1.01877 -0.000159151 2.50364e-22)
(1.02777 -0.0117396 -7.22216e-22)
(-0.0669642 0.208038 0)
(1.0049 -0.00944864 6.28047e-21)
(1.01873 -0.0259598 0)
(1.01858 -0.000241007 -2.8083e-22)
(1.00214 -0.00996396 -3.33138e-22)
(-0.0212687 0.011651 0)
(1.06717 -0.425006 -6.62829e-20)
(0.685624 0.0985889 0)
(0.943108 -0.00843779 0)
(1.16403 -0.0392922 -6.84674e-20)
(1.01787 -0.000157126 0)
(0.817842 0.00640514 -6.38401e-21)
(0.0464269 -0.0434828 1.78213e-19)
(0.992619 0.000330382 1.25912e-20)
(-0.0521647 -0.00333394 -8.19023e-20)
(1.12073 -0.0393874 -4.07803e-20)
(0.991284 -0.000717175 2.25096e-20)
(-0.172562 -0.0283465 0)
(0.663486 -0.0023715 9.13031e-22)
(0.996142 -0.00388894 9.69163e-21)
(1.03244 -0.190696 7.61798e-21)
(0.358269 1.07225 1.03872e-19)
(0.970626 -0.0249661 -1.36797e-20)
(0.830363 0.0373805 2.96584e-20)
(1.02003 -0.0257285 3.63957e-21)
(0.965528 -0.0222037 -1.88322e-20)
(-0.0736307 -0.0775519 7.68853e-20)
(0.874546 -0.162272 -3.39353e-20)
(0.996451 -0.00942396 0)
(0.995443 -0.000496431 9.75876e-21)
(0.945888 -0.00805556 0)
(1.01836 -0.35827 1.60096e-20)
(0.0941184 -0.152753 0)
(0.991175 -0.00625294 1.33412e-20)
(1.00498 -0.00866686 0)
(1.03264 -0.0185423 -9.50701e-22)
(-0.175493 -0.02174 -5.20543e-20)
(-0.0681881 -0.0602937 -6.97789e-20)
(-0.0189266 -0.0297633 -7.15682e-20)
(1.03157 -0.00546898 -2.38429e-21)
(0.874358 -0.174493 -3.31554e-20)
(0.826352 0.0468393 -5.96397e-20)
(0.793767 -0.665785 -2.03844e-21)
(1.17161 -0.0834236 -4.34398e-20)
(1.03317 -0.00161717 0)
(1.03539 -0.00410541 2.05097e-21)
(1.03174 -0.0189562 0)
(1.12018 -0.111633 4.01227e-20)
(0.985637 -0.0367886 1.0573e-20)
(0.00577748 -0.0180174 0)
(0.997925 -0.00153737 1.13529e-20)
(1.00914 -0.0163532 -1.30872e-20)
(-0.190582 -0.0530557 1.62746e-19)
(-0.0748662 0.206905 -1.0785e-21)
(-0.0676028 -0.0103119 0)
(1.01847 -0.00015063 0)
(-0.106852 0.0979213 -1.55357e-19)
(0.970619 -0.0826348 0)
(0.225385 -0.59817 -5.33939e-20)
(-0.0165609 -0.0115203 0)
(-0.0751963 0.0825499 2.26271e-20)
(0.98375 -0.0718517 1.77649e-20)
(1.07426 -0.105558 1.62927e-21)
(1.23769 -0.122214 0)
(-0.0590334 0.162709 -8.14653e-20)
(-0.0492999 0.173795 -6.26314e-20)
(0.90011 0.0310821 1.71849e-20)
(1.00002 -0.000411031 -6.29582e-21)
(0.920678 -0.046468 5.48673e-20)
(1.03636 -0.00760877 -3.92147e-21)
(1.00563 -0.00939719 3.77154e-21)
(0.985359 -0.0347566 0)
(0.999728 -0.00395363 1.01733e-20)
(1 -3.60033e-05 0)
(0.0471022 -0.025393 -1.23825e-19)
(0.999902 -0.00116746 9.0276e-21)
(1.12568 -0.151319 0)
(1.07747 -0.0941978 1.87374e-20)
(0.56277 -0.00251334 -1.05564e-19)
(1.03306 -0.000985363 0)
(0.972109 -0.0752111 1.27893e-20)
(-0.0195425 0.111453 -4.07438e-20)
(0.356291 0.0160977 1.47728e-19)
(-0.0306523 0.0458299 2.35722e-20)
(1.16639 -0.0833598 3.46774e-20)
(1.00884 -0.0155482 1.31357e-20)
(0.985547 -0.0748315 1.08452e-20)
(0.991761 -0.00718089 1.35826e-20)
(1.13003 -0.346346 3.69751e-20)
(1.01585 -0.0017602 -8.9329e-22)
(-0.0729206 -0.00685866 0)
(0.912332 -0.382241 1.48659e-20)
(1.05506 -0.256735 0)
(-0.060961 -0.023207 0)
(-0.077323 -0.0945579 6.93952e-20)
(1.00032 -0.00212414 -1.29028e-20)
(0.995152 -0.0154689 1.28399e-21)
(1.1826 -0.102283 -8.56996e-21)
(1.13856 -0.336373 -4.79336e-20)
(0.981235 0.000319943 -5.82579e-21)
(-0.0602221 -0.00854031 0)
(1.00033 -0.00226991 1.28957e-20)
(0.999503 -0.000867957 1.08374e-20)
(0.498615 -0.784596 6.62183e-20)
(1.01517 -0.00529595 -3.82578e-21)
(1.18951 -0.0758468 0)
(1.03254 -0.00523023 2.42346e-21)
(-0.124339 -0.196725 -3.21248e-21)
(0.998101 -0.00146214 -1.17737e-20)
(1.04682 -0.021606 4.18743e-21)
(-0.193644 -0.0266577 5.8112e-20)
(0.606101 0.0610589 -6.94856e-20)
(1.15868 0.02266 0)
(0.906775 -0.0154495 6.3349e-20)
(1.00061 -0.00322977 2.19868e-21)
(1.00008 -0.0215483 -6.23933e-21)
(0.0923456 -0.00636146 -1.40295e-19)
(1.10819 -0.142851 -9.5018e-20)
(1.02764 -0.0070819 0)
(0.999521 -3.37271e-05 1.71637e-22)
(0.876948 -0.107006 3.84023e-20)
(0.832599 0.06519 2.69648e-20)
(1.15678 0.0279811 4.95267e-20)
(-0.14057 0.00592679 0)
(0.999582 -0.000416585 -1.13421e-20)
(0.995928 -0.0103676 5.6866e-21)
(0.629015 -0.42268 -6.07077e-20)
(1.00066 -0.00317963 -1.05684e-20)
(-0.0395433 0.0584234 3.06493e-20)
(0.571633 -0.46707 -1.55741e-19)
(0.996995 1.53925e-05 -8.60034e-21)
(0.996395 -0.00444504 0)
(1.05308 -0.0218991 -7.08616e-21)
(1.00041 -0.00256181 0)
(1.03238 -0.0170591 3.40599e-21)
(-0.113539 0.0922264 -3.76742e-22)
(0.729095 -0.0416063 -3.23169e-20)
(1.12208 -0.192549 -1.19147e-19)
(0.883924 0.0468828 -3.45221e-20)
(1.06979 -0.00870273 -2.04074e-20)
(1.13023 -0.0797643 -1.9735e-20)
(0.916015 0.0126844 9.51433e-21)
(-0.0621297 0.128767 5.12794e-20)
(0.898415 -0.00993415 3.76338e-20)
(0.99995 2.34157e-05 -7.97073e-21)
(1.0585 -0.062339 -1.21823e-20)
(1.07422 -0.400189 2.6877e-20)
(0.978409 -0.0127073 -1.30569e-20)
(0.981436 -0.0106218 0)
(0.974893 -0.00852403 0)
(1.01555 -0.00170501 0)
(0.998313 -0.00755703 -1.37369e-20)
(1.01578 -0.0278783 2.48323e-21)
(0.996377 -0.000328221 -8.74361e-21)
(1.00025 -0.00175224 -7.84403e-21)
(0.963896 -0.0483558 0)
(1.07913 -0.0370065 -1.97406e-20)
(1.20241 -0.057972 0)
(1.01704 -0.000389823 0)
(0.214884 0.164288 -5.31087e-20)
(0.914024 -0.0394855 0)
(0.9198 -0.406213 -2.2411e-21)
(-0.0688481 0.266777 1.46775e-19)
(1.04148 -0.00574103 -5.17412e-21)
(-0.168253 -0.0513465 -1.12578e-19)
(1.06604 -0.241302 8.94846e-22)
(1.04011 -0.00741964 -7.64583e-21)
(1.01578 -0.00240515 1.65875e-21)
(0.982183 -0.0216716 -6.11229e-21)
(-0.0940756 0.00883897 -1.29598e-21)
(1.18378 -0.082817 4.85093e-20)
(1.01597 -0.00226741 -1.54328e-21)
(0.998486 -0.000326921 5.93247e-21)
(0.999632 -0.000562024 4.01794e-21)
(0.711857 0.154425 5.60007e-20)
(0.954225 -0.369755 6.14658e-21)
(0.392187 -0.0198014 0)
(1.00279 -0.00143677 1.19326e-20)
(0.984401 -0.00137016 0)
(0.852374 -0.0255905 -2.25994e-20)
(-0.163138 0.00920248 -2.29559e-20)
(-0.153442 0.06504 -1.38168e-19)
(0.931202 -0.0200688 -5.40582e-20)
(1.06641 -0.0288426 -1.24566e-20)
(-0.209661 0.0205985 0)
(0.739412 -0.0689738 6.12978e-20)
(1.24731 -0.065058 0)
(0.972543 -0.030383 -3.36634e-20)
(1.00799 -0.0165522 5.14502e-21)
(-0.0822091 0.0475436 -4.10541e-23)
(0.993254 -0.0125846 0)
(0.984645 -0.346804 1.77119e-21)
(0.530089 -0.00644331 -7.79142e-20)
(1.02712 -0.00655977 0)
(0.596537 -0.33417 0)
(1.06308 -0.0853875 -1.19979e-20)
(-0.0882022 0.115626 9.06604e-20)
(1.00047 -0.0209404 -3.38626e-22)
(-0.0700463 -0.00987656 5.54594e-21)
(1.20788 -0.184464 0)
(1.09177 -0.0100815 8.9728e-21)
(1.24419 -0.209502 9.7203e-20)
(0.994369 -0.0129785 2.10438e-22)
(0.821095 -0.624284 0)
(0.997971 -0.000959001 -6.34594e-21)
(0.996329 -0.0155378 -1.25657e-21)
(0.999941 -0.000929502 0)
(0.993623 -0.00831671 -1.31426e-21)
(-0.0405438 -0.00391269 -9.64747e-20)
(0.994664 -0.0141502 0)
(1.03558 -0.0112468 1.48202e-21)
(0.945279 -0.0150403 -2.68907e-20)
(1.03146 -0.0062178 0)
(1.00762 -0.0169602 5.54215e-21)
(1.0178 -0.200242 4.37037e-21)
(0.976435 -0.0558982 8.87109e-21)
(1.12506 -0.0387963 8.21368e-20)
(1.00139 -0.0040037 1.07033e-20)
(1.00127 -0.00380368 -4.37555e-21)
(-0.0247321 0.101871 -4.08023e-20)
(0.644085 0.0646772 0)
(0.934063 -0.019596 -4.04243e-20)
(-0.2042 0.029683 0)
(1.07609 -0.0366763 1.83342e-20)
(0.97964 -0.0384159 2.59914e-20)
(0.993556 0.00166431 -1.54036e-21)
(1.03321 -0.0166877 -6.0689e-23)
(0.0459175 -0.0353063 9.65096e-23)
(1.03574 -0.0103582 -3.18791e-21)
(1.00131 -0.000552393 -8.06381e-21)
(-0.20342 0.00200032 -8.91998e-20)
(0.656596 -0.0468917 6.83842e-20)
(0.933909 -0.170888 1.95168e-20)
(1.00181 -0.0100212 0)
(0.999988 -5.46215e-05 9.81137e-21)
(1.03729 -0.0358844 6.4128e-23)
(0.999927 -0.000583007 -9.05163e-21)
(-0.191227 0.0315486 -1.28574e-19)
(0.968556 -0.0248522 1.9881e-20)
(-0.0398291 -0.109007 8.14534e-20)
(1.0778 -0.0210926 0)
(0.313404 0.486771 -1.75634e-19)
(0.999953 -0.000210044 -9.59847e-21)
(-0.178508 0.0020989 -1.12074e-19)
(1.00933 -0.00038747 4.51621e-21)
(1.03289 -0.370707 8.53993e-22)
(0.992268 -0.0115909 0)
(1.19314 0.000487527 7.95938e-20)
(-0.0235779 0.0529759 0)
(0.998186 -0.000779535 -1.20481e-20)
(0.356263 -0.0096188 0)
(0.988599 -0.0134749 0)
(1.00013 -0.000102821 0)
(1.026 -0.0107141 1.46688e-22)
(0.036991 0.00492423 3.61539e-20)
(-0.0674479 0.059598 4.78732e-20)
(0.981185 -0.0207392 0)
(1.06634 -0.0877826 -5.6841e-21)
(1.03615 -0.00853123 -3.40882e-21)
(-0.205838 0.01579 6.2933e-20)
(1.01754 -0.000477446 0)
(1.04098 -0.182321 7.39353e-23)
(-0.0761054 -0.00858742 0)
(0.909711 0.0161488 1.26817e-20)
(1.00181 -0.00100468 0)
(0.79491 -0.125126 6.75627e-20)
(1.00008 -0.000457201 8.95829e-21)
(1.03915 -0.0361277 0)
(1.03106 -0.0208668 -2.14642e-23)
(1.19848 -0.0529142 -8.44396e-20)
(1.00309 -0.00406754 -4.94908e-22)
(-0.21733 0.00468541 5.78319e-20)
(1.00111 -0.00370642 5.25488e-22)
(0.988295 -0.0394164 0)
(1.13778 -0.023347 -1.47167e-20)
(0.748748 -0.222048 1.25481e-19)
(0.993728 -0.0446252 1.59564e-19)
(1.01805 -0.024664 0)
(-0.160531 0.000919782 -1.9011e-19)
(0.995613 -0.0159141 0)
(0.968605 -0.388208 -3.00895e-21)
(0.985469 -0.00706559 -8.95849e-21)
(1.04915 -0.0249943 5.46092e-22)
(0.993593 -0.0131332 -9.949e-21)
(1.00104 -0.0037676 -1.75415e-20)
(0.999962 -0.000107617 -1.09915e-21)
(0.962624 -0.405422 6.36867e-21)
(1.13674 0.0203788 0)
(0.310508 -0.00862061 6.08691e-20)
(1.16334 -0.172852 2.69763e-20)
(0.827193 -0.0445754 0)
(0.895052 -0.12573 -4.90666e-20)
(0.556711 -0.756626 1.25826e-20)
(1.05334 -0.0576142 0)
(-0.182551 0.0381537 1.51376e-19)
(-0.0888947 -0.0362035 0)
(1.02931 -0.389342 -8.93128e-22)
(0.967916 -0.201189 4.90691e-20)
(0.670065 -0.0165227 -6.81479e-20)
(0.998002 -0.363876 -1.40029e-20)
(1.04029 -0.0352769 -1.50469e-21)
(0.0627968 -0.126934 0)
(1.13785 -0.0191161 0)
(1.04687 -0.0245387 -3.41515e-21)
(1.04453 -0.400337 0)
(1.00005 -0.000407101 -6.51631e-21)
(0.823596 -0.496175 -1.363e-20)
(0.940918 -0.159378 -1.55392e-20)
(1.22887 -0.0955509 -4.7361e-20)
(0.887206 0.0366098 2.9358e-20)
(-0.0763835 0.190086 -1.65547e-19)
(-0.103559 -0.0134405 0)
(1.13304 -0.0258728 0)
(1.22093 -0.091445 -7.96842e-20)
(0.999723 -0.000214374 1.01584e-20)
(0.98036 -0.487215 -1.53993e-20)
(0.945716 0.0170009 -2.28349e-20)
(0.992637 -0.0111368 0)
(0.983476 -0.0339716 6.02473e-21)
(1.06847 0.0042368 0)
(1.10248 -0.139549 6.27276e-20)
(-0.0905543 0.0793945 -8.1288e-20)
(0.842609 -0.438283 -2.10213e-20)
(-0.121519 0.0106463 0)
(1.04824 -0.0573092 -3.24443e-21)
(0.952173 -0.0509499 0)
(-0.0882078 0.114373 -1.24235e-19)
(0.419406 0.147892 -2.70592e-20)
(1.06251 -0.030647 9.83901e-21)
(1.15876 -0.0888716 3.5488e-20)
(0.963186 -0.0278226 -1.43996e-20)
(0.24362 -0.702779 1.00699e-21)
(-0.182836 -0.0334911 -1.09805e-19)
(0.996868 -0.000339506 8.67755e-21)
(0.691162 0.112356 0)
(0.652154 -0.385945 -1.31735e-21)
(-0.10077 -0.0239462 0)
(1.00319 -0.00130923 7.25805e-21)
(0.917609 -0.0520361 -3.72579e-20)
(0.100847 -0.00595031 1.47398e-22)
(1.10049 -0.0492269 -9.7242e-22)
(0.265438 -0.004166 -2.53494e-20)
(1.19447 -0.00443191 -4.50501e-20)
(0.58759 -0.000222157 5.02311e-20)
(0.940914 -0.0754241 0)
(1.0531 -0.0611415 0)
(1.02043 -0.0354121 6.82596e-21)
(0.984822 -0.00281955 8.81997e-21)
(1.22393 -0.0116802 0)
(0.999994 -0.000131433 -8.73543e-21)
(1.15203 -0.000363757 -5.21265e-20)
(1.18225 -0.159984 -7.58398e-20)
(1.02782 -0.266418 1.45815e-20)
(1.00003 -0.000202355 -5.56926e-21)
(1.00009 -0.000827955 0)
(1.07226 -0.00475947 -5.72215e-21)
(1.04942 -0.00130613 5.80619e-21)
(1.00652 -0.00117354 0)
(0.985534 -0.0132476 1.9866e-22)
(1.15633 -0.171383 -3.48404e-20)
(-0.0818893 0.00736204 -5.36398e-20)
(0.0256766 0.0561025 8.55023e-20)
(1.00001 -0.000252113 9.0522e-21)
(1.115 -0.349204 2.99705e-20)
(1.00142 -0.00870729 9.90583e-21)
(-0.0915932 -0.0440233 -3.91353e-20)
(1.14871 -0.0454967 3.37117e-20)
(0.772797 -0.0767391 0)
(0.834625 0.0555422 2.73552e-20)
(1.20744 -0.177993 5.98443e-20)
(1.01008 -0.00595252 -3.24616e-21)
(0.998575 -0.00418646 0)
(0.809956 -0.123764 -9.96006e-20)
(0.992517 -0.0124875 0)
(1.03587 -0.0348769 4.18383e-21)
(1.14848 -0.109378 5.51771e-20)
(-0.0673779 0.0969326 3.41832e-20)
(1.02997 -0.0103739 -1.29478e-21)
(1.2384 -0.0147261 1.16208e-20)
(-0.160083 0.0506809 0)
(1.0679 -0.0539927 0)
(-0.120291 -0.0598115 4.91825e-20)
(-0.161465 0.0432787 -4.90384e-20)
(1.01619 -0.0292054 -4.62897e-21)
(1.12453 -0.135986 0)
(1.09773 -0.0089303 0)
(1.01577 -0.0395739 1.96198e-21)
(1.02507 -0.0106361 -8.17043e-23)
(0.61246 -0.100313 1.14189e-19)
(-0.16462 0.0541961 0)
(-0.104051 0.020322 3.01256e-20)
(0.97729 -0.0136334 -2.56303e-22)
(0.995233 -0.000235929 -5.45016e-21)
(1.02202 -0.014084 0)
(1.0772 0.0111987 5.87954e-21)
(0.979661 -0.0561805 1.52872e-20)
(0.965341 -0.0668577 -2.01262e-20)
(0.520907 0.468597 1.00293e-19)
(1.14955 -0.0408428 2.9797e-20)
(1.00025 -0.00188648 8.67189e-21)
(0.930252 -0.100569 -5.65562e-20)
(1.10176 -0.0561799 1.84842e-20)
(0.837132 -0.0474499 1.11328e-20)
(1.03627 -0.0330748 -2.4118e-21)
(-0.249968 -0.00955554 1.27764e-19)
(1.07067 -0.0314032 0)
(1.00415 -0.00310926 4.00099e-21)
(1.03835 -0.265775 1.3238e-20)
(0.149677 0.150614 0)
(1.02862 -0.00715991 -6.43921e-22)
(0.996513 8.10012e-05 8.72654e-21)
(0.992391 -0.00667656 -1.32874e-20)
(1.08822 -0.00823861 -9.38688e-21)
(1.01015 -0.00561921 0)
(1.13349 -0.0299802 -2.6263e-20)
(1.26146 -0.136556 0)
(0.990377 -0.0433894 0)
(1.19991 -0.0497745 4.75932e-20)
(1.06007 -0.0303039 -9.44409e-21)
(1.03457 -0.0316049 0)
(0.956448 -0.0439987 2.89315e-20)
(-0.0737416 -0.0426356 -1.0023e-19)
(1.20836 -0.0408044 -1.57288e-20)
(0.998848 -0.00380083 -6.08177e-21)
(1.0301 -0.00698962 -2.01159e-21)
(0.377276 0.0103756 0)
(0.90406 -0.00786861 5.90097e-20)
(0.800352 0.00388161 0)
(1.02821 -0.00571753 4.81729e-22)
(0.987676 -0.0133122 0)
(-0.204612 -0.0134411 -8.17434e-23)
(-0.0621216 -0.131236 -4.95872e-20)
(1.0689 -0.100062 -1.01399e-20)
(1.19505 -0.0685017 0)
(0.689771 0.0508031 3.49459e-20)
(0.994378 -0.0158631 -1.4445e-21)
(1.00002 -0.000172592 7.54474e-21)
(1.01195 -0.0382997 0)
(-0.0758175 -0.0275445 9.24627e-20)
(1.00144 -0.000691619 -6.40893e-21)
(0.999997 -4.33155e-05 0)
(-0.0635967 0.152525 1.30688e-19)
(0.892359 0.036754 0)
(1.1913 -0.224095 -9.87739e-20)
(0.840063 0.0368625 -4.50785e-22)
(1.00194 -0.00911034 0)
(-0.0700695 -0.0390331 1.19091e-19)
(0.999996 -0.00033096 1.15201e-20)
(0.987003 -0.0091633 2.42128e-20)
(1.01077 -0.0374907 8.33277e-21)
(0.908896 -0.105606 0)
(-0.0283315 0.144765 0)
(0.999845 -0.00192077 -6.2543e-22)
(0.992718 0.00125949 0)
(0.992103 -0.0129175 7.13711e-21)
(0.993967 -0.0144423 0)
(1.00163 -0.00911911 0)
(1.01997 -0.0366337 -1.38486e-21)
(0.874266 -0.179309 -1.26217e-19)
(0.901657 -0.10946 6.74952e-21)
(0.964185 -0.0450094 -1.22565e-20)
(0.999842 -0.00316126 0)
(0.893599 -0.10361 -1.20482e-20)
(1.1358 -0.13704 0)
(1.09368 -0.00447721 -1.57619e-20)
(0.883259 0.0421501 -3.80752e-20)
(1 -7.87902e-05 0)
(1.02204 -0.013407 -1.1394e-21)
(0.997465 -0.070814 0)
(-0.0502187 0.0544534 0)
(0.0876422 -0.0329653 1.99757e-20)
(1.06754 -0.007318 8.00294e-21)
(-0.109563 0.0145112 6.94087e-20)
(0.9997 -6.73321e-05 -1.31439e-21)
(0.941161 -0.0701198 0)
(1.2089 -0.345256 -5.3487e-20)
(0.154592 -0.119086 0)
(1.02283 -0.0252333 0)
(0.999843 -0.00152941 1.01921e-20)
(0.432813 0.24582 -1.75181e-19)
(1.14946 -0.0756456 0)
(1.00443 -0.00318966 -1.17886e-20)
(0.999912 -0.000294611 0)
(-0.215233 0.00970192 -5.62e-20)
(1.00002 -0.000127242 -1.39732e-20)
(1.10735 -0.190217 1.85568e-21)
(0.996091 -0.00439369 -5.30161e-22)
(0.34632 0.054247 -4.69215e-20)
(0.999919 -0.000377591 7.53162e-21)
(1.01035 -0.000242219 0)
(0.99861 -0.000449476 -1.30655e-20)
(1.04191 -0.11861 0)
(1.04802 -0.000742955 -3.37355e-22)
(0.928195 -0.0420971 -2.82219e-20)
(0.903744 0.0284369 -1.74538e-20)
(0.538748 0.134207 -1.32854e-19)
(1.00473 -0.00970227 -3.23068e-21)
(0.998553 -0.00739624 1.33036e-20)
(1.00005 -0.00028099 -5.88644e-21)
(0.996709 -0.0159486 -3.12981e-21)
(1.04156 -0.0326824 4.33422e-21)
(1.04565 -0.0133554 0)
(1.07758 -0.0989848 0)
(0.998278 -0.000446895 9.08435e-22)
(1.15779 -0.0493834 0)
(0.00651842 0.0345339 0)
(1.11467 -0.110113 -2.23498e-20)
(1.15156 -0.114072 0)
(0.99962 -0.000288891 2.14329e-20)
(1.03201 -0.020376 2.46938e-23)
(-0.198637 -0.0146395 -6.62408e-20)
(0.163342 -0.00723416 0)
(1.02471 -0.00985703 8.47831e-23)
(-0.133692 -0.0324904 3.46888e-22)
(-0.218359 -0.00764412 1.05343e-19)
(1.03035 -0.00743092 2.45112e-21)
(0.992399 0.000800645 2.01208e-22)
(1.00081 -0.0144943 7.69384e-21)
(1.08734 -0.246008 -2.03419e-20)
(1.16026 -0.0470854 6.73316e-21)
(0.136253 -0.0795621 0)
(1.00537 -0.00967591 4.49031e-21)
(1.01209 -0.0919438 1.10433e-21)
(1.00574 -0.00718219 0)
(0.964142 -0.02365 2.25506e-20)
(1.00946 -0.000332224 0)
(1.01025 -0.283068 7.12033e-21)
(1.04223 -0.0313677 -1.7035e-21)
(1.17991 -0.233096 -4.28568e-20)
(0.999094 -0.0032534 0)
(0.890801 -0.240581 4.43469e-21)
(1.004 -0.0089039 1.01675e-21)
(0.957303 -0.0477369 0)
(0.985293 -0.0090808 0)
(1.13241 0.0164696 0)
(0.727272 0.153527 0)
(-0.199438 0.00191606 4.57208e-20)
(0.159865 -0.129046 -4.93369e-20)
(-0.162824 -0.0270475 -5.88263e-20)
(1.1416 -0.0789575 -3.77781e-20)
(0.987118 -0.0143144 -1.61094e-20)
(0.561582 -0.709295 -2.20489e-20)
(0.0748475 -0.0890935 0)
(1.16979 -0.0479781 2.09436e-20)
(1.03957 -0.0291593 -6.79285e-21)
(0.999645 -0.00381845 5.92024e-21)
(0.170828 0.269871 1.36993e-19)
(1.00108 -0.0150544 0)
(-0.0306829 0.150719 -5.96733e-20)
(1.03343 -0.00402645 0)
(1.10906 -0.0273798 3.35448e-20)
(1.0455 -0.0310779 1.13004e-20)
(0.999954 0.000154215 -1.29383e-20)
(1.02253 -0.0264726 0)
(0.515202 -0.021192 0)
(-0.0679444 -0.0255011 -1.04476e-19)
(-0.0337435 0.16105 4.92714e-20)
(0.661733 0.0713206 -3.12221e-20)
(-0.167785 -0.0174789 6.47239e-21)
(0.993529 -0.00775666 1.04914e-20)
(-0.149459 0.0102305 6.64646e-20)
(0.214101 0.00423286 -7.09851e-22)
(1.00002 -8.98411e-05 0)
(0.987738 -0.0374446 -4.64673e-22)
(1.01154 -0.00780997 -2.65522e-21)
(0.778709 -0.01357 0)
(1.02623 -0.00658551 7.8095e-22)
(-0.0829992 0.0233806 -1.43259e-19)
(0.84423 -0.0307782 2.28788e-20)
(1.19619 -0.130077 -1.75877e-20)
(1.00266 -0.0490429 -4.06579e-21)
(1.16333 -0.365225 -1.31995e-19)
(-0.120622 -0.00492375 -1.0653e-19)
(0.163786 0.0636526 3.81787e-19)
(0.923766 -0.105445 0)
(1.09052 -0.0905615 2.53847e-21)
(1.00164 -0.00103736 2.01278e-21)
(0.453083 -0.166914 1.15186e-19)
(1.02765 -0.00465599 1.1449e-21)
(0.404051 0.342364 -7.41946e-20)
(1.21317 -0.136316 -6.59999e-22)
(0.787532 -0.226418 0)
(0.277684 0.000684286 1.7622e-19)
(-0.0356986 -0.00938502 -1.14355e-19)
(1.06405 -0.050343 -9.622e-21)
(1.00369 -0.0715493 -4.2684e-21)
(1.00321 -0.00441337 -4.83518e-22)
(1.19712 0.0097828 1.82775e-20)
(-0.0796145 0.0264282 -1.12433e-19)
(-0.135643 -0.0260323 9.01195e-20)
(1.01072 -0.0074011 -3.00856e-21)
(0.212576 0.65245 -5.26561e-21)
(1.09028 -0.00303994 1.41839e-20)
(1.20562 -0.0659368 -6.484e-21)
(0.564917 0.137321 2.42521e-19)
(-0.0693588 0.0927312 -1.19746e-19)
(-0.0546221 0.087383 1.64929e-19)
(1.03534 -0.00322592 3.78272e-21)
(0.910423 -0.0427721 -8.2457e-20)
(1.10914 -0.0487813 2.13762e-20)
(1.07862 -0.0183071 -6.70954e-21)
(1.07451 -0.00367745 -6.84636e-21)
(0.133967 -0.0482529 -8.01811e-20)
(0.999669 -0.000712333 -1.00671e-20)
(0.407397 -0.0284348 1.51985e-21)
(1.01739 -0.000376122 9.64912e-22)
(1.03431 -0.00280766 -1.01723e-22)
(1.07861 -0.229072 -1.67908e-20)
(1.20027 -0.0723424 -1.49254e-21)
(0.827384 -0.0149784 0)
(1.04273 -0.0461831 4.8411e-21)
(0.865909 -0.402878 -1.0019e-19)
(0.969453 -0.240652 0)
(1.18599 -0.315889 4.31707e-20)
(0.895594 0.0299148 0)
(1.00009 -0.000426213 -1.45785e-20)
(1.04083 -0.0470098 -3.31357e-21)
(1.00011 -0.000439846 1.1383e-20)
(0.98337 -0.00999355 -1.42113e-20)
(1.18396 -0.328573 -9.58632e-20)
(0.897648 0.00830623 -1.41459e-20)
(1.02177 -0.0453325 2.85886e-21)
(0.984535 -0.00746494 0)
(1.11491 -0.0443372 0)
(0.192622 -0.124912 1.99922e-19)
(1.00305 -0.0972918 0)
(0.986142 0.000305004 0)
(0.383324 0.140357 0)
(0.992371 -0.0081525 0)
(0.99997 9.9804e-05 1.28046e-20)
(1.02828 -0.00506535 0)
(1.1692 -0.0317764 -2.30045e-20)
(0.995815 -0.000300435 0)
(1.08472 -0.0224677 -1.76553e-20)
(-0.0379423 0.226349 0)
(1.13051 -0.148272 0)
(1.00592 -0.000217804 -3.48808e-21)