/*--------------------------------*- C++ -*----------------------------------*\
| =========                 |                                                 |
| \\      /  F ield         | OpenFOAM: The Open Source CFD Toolbox           |
|  \\    /   O peration     | Version:  v2012                                 |
|   \\  /    A nd           | Website:  www.openfoam.com                      |
|    \\/     M anipulation  |                                                 |
\*---------------------------------------------------------------------------*/
FoamFile
{
    version     2.0;
    format      ascii;
    class       surfaceVectorField;
    location    "150";
    object      Uf_0;
}
// * * * * * * * * * * * * * * * * * * * * * * * * * * * * * * * * * * * * * //

dimensions      [0 1 -1 0 0 0 0];


internalField   nonuniform List<vector> 
14470
(
(0.959194 -0.0129925 2.19439e-21)
(0.957278 -0.012621 1.19985e-20)
(0.958779 -0.0108944 1.51369e-20)
(-0.223813 -0.0318799 0)
(-0.233436 -0.0301476 0)
(0.991178 -0.00656529 2.17758e-21)
(0.99149 -0.00703079 1.0485e-21)
(0.990843 -0.00724592 -1.24267e-20)
(-0.0393067 0.148235 3.79483e-20)
(-0.0337005 0.150692 -1.55729e-20)
(-0.0356858 0.15668 4.66906e-20)
(0.999948 -3.10065e-05 -9.94736e-22)
(0.999941 6.27128e-06 -3.97194e-21)
(0.999904 -2.11372e-05 5.38402e-21)
(1.20773 -0.135263 -1.89056e-20)
(1.21137 -0.136675 -5.41882e-22)
(1.20768 -0.14042 -2.60112e-20)
(1.05883 -0.254463 1.22218e-20)
(1.06561 -0.246868 1.44608e-20)
(1.0716 -0.257028 6.33671e-22)
(-0.0785018 0.0224949 1.28009e-21)
(-0.0725329 0.0235965 -1.13291e-21)
(-0.102069 0.0228233 -1.70416e-20)
(1.01968 -0.0438832 2.12546e-22)
(1.02108 -0.0451198 -3.67461e-22)
(1.01899 -0.0457181 -2.43218e-21)
(0.999903 -0.00137944 -3.88967e-21)
(0.999907 -0.00122958 4.60857e-22)
(0.999925 -0.0012607 9.60522e-22)
(0.999862 -0.00149247 5.09065e-21)
(0.999898 -0.00154683 4.78127e-22)
(1.00192 -0.0106961 -7.33498e-21)
(1.00181 -0.0101997 -2.17938e-21)
(1.00154 -0.0105051 1.32094e-21)
(-0.00798875 0.0598325 5.18636e-20)
(-0.0338997 0.0668501 -6.31909e-20)
(-0.0299222 0.0612506 5.97793e-20)
(1.02092 -0.027403 -2.09741e-21)
(1.02044 -0.0262726 8.32542e-22)
(1.0219 -0.0265916 -1.99941e-21)
(1.09301 -0.00916087 6.83898e-21)
(1.09632 -0.00890795 2.1052e-21)
(1.09397 -0.0061104 -6.41961e-21)
(1.12835 -0.121375 6.97934e-21)
(1.13276 -0.12591 -1.82149e-20)
(1.12676 -0.127888 -2.23893e-20)
(0.993289 -0.00930817 -5.12843e-21)
(0.993198 -0.00981042 -7.12399e-22)
(0.993722 -0.0095584 2.63793e-21)
(-0.0682323 -0.0254919 1.46065e-20)
(-0.0660805 -0.0213599 4.19226e-20)
(-0.0642575 -0.0293717 -5.98043e-21)
(1.01982 -0.00591484 1.90228e-22)
(1.01974 -0.00545118 4.39108e-23)
(1.02021 -0.00570555 -1.65956e-22)
(1.02637 -0.0118516 -4.14127e-23)
(1.02724 -0.0116338 -3.9628e-22)
(1.02629 -0.0110967 1.7225e-22)
(0.999991 -2.77547e-05 1.01709e-21)
(0.999991 -3.65895e-05 9.59645e-22)
(-0.047704 0.190476 3.10609e-20)
(-0.0456496 0.2034 -3.10384e-20)
(-0.0393096 0.195835 1.35138e-20)
(-0.0586904 0.0188449 4.09434e-20)
(-0.0918652 0.0205596 3.15298e-20)
(0.0164799 0.056854 5.26454e-20)
(0.02245 0.0507597 6.70335e-21)
(0.909399 -0.0518496 2.32082e-20)
(0.914669 -0.0511132 2.42168e-20)
(0.910941 -0.0460788 -6.9454e-21)
(0.999594 -0.00335692 5.62358e-22)
(0.999653 -0.00363083 8.97538e-21)
(0.999682 -0.00325624 -1.46178e-22)
(1.00002 -0.000313953 -1.16055e-22)
(1.00002 -0.000357672 3.6597e-21)
(1.00004 -0.00044889 -3.24743e-22)
(1.0195 -0.00604796 5.92864e-22)
(1.01994 -0.00632041 1.0332e-21)
(1.11938 -0.188103 2.80746e-20)
(1.12653 -0.188752 -1.05541e-20)
(1.12206 -0.19566 -3.42523e-21)
(-0.210718 -0.00843861 2.86641e-20)
(-0.212356 -0.00836627 -2.00335e-20)
(-0.234414 -0.00833332 -4.86145e-20)
(1.24499 -0.165393 -1.26349e-20)
(1.22699 -0.159612 6.19691e-20)
(1.23112 -0.167959 4.72635e-20)
(0.995989 -0.00385205 -3.46945e-21)
(0.99585 -0.00354493 -1.40826e-21)
(0.99562 -0.00406679 -7.95591e-21)
(0.996375 -0.0097448 0)
(0.996112 -0.0102144 3.24724e-21)
(0.996525 -0.0102853 0)
(1.00618 -0.000724864 1.95325e-22)
(1.00587 -0.000718592 1.57398e-21)
(1.00565 -0.000413955 -2.31621e-21)
(1.09617 -0.0582003 -6.66302e-21)
(1.0937 -0.060075 -9.71115e-21)
(1.0969 -0.0611234 0)
(1.08369 -0.0136026 7.16175e-21)
(1.08187 -0.0155762 7.94399e-21)
(1.08055 -0.0132819 -8.61989e-22)
(0.914129 0.0124998 2.63478e-22)
(0.910791 0.0146374 3.24714e-21)
(0.910655 0.00958784 -5.59211e-20)
(-0.139903 0.0537397 -2.2031e-22)
(-0.134108 0.0559234 2.46165e-20)
(-0.135784 0.0480392 2.51428e-20)
(1.07387 -0.104381 6.77772e-21)
(1.07085 -0.101092 2.848e-21)
(1.07558 -0.10019 6.16514e-21)
(1.1113 -0.187827 1.75762e-20)
(1.11555 -0.181536 3.16419e-20)
(0.629915 -0.0379131 2.73672e-20)
(0.631007 -0.041745 5.85975e-20)
(0.487698 -0.0224865 2.26345e-20)
(-0.0751188 -0.0122031 -3.16297e-20)
(-0.0705411 -0.00512737 2.71835e-20)
(-0.0853329 -0.00879872 2.8444e-20)
(1.00001 -0.000202771 7.95898e-21)
(1.00002 -0.000298141 -1.19828e-21)
(0.991993 -0.000272905 -8.47794e-21)
(0.991503 -0.000522854 7.60914e-21)
(0.99159 8.96154e-05 -1.48504e-20)
(0.996104 0.000266138 0)
(0.996402 0.000196408 4.73045e-21)
(0.996388 0.000561914 -4.32627e-21)
(-0.154046 0.00993647 4.62526e-20)
(-0.159171 0.0104425 -1.21365e-20)
(-0.150713 0.0155718 -4.09118e-20)
(0.999988 -0.000218187 0)
(1 -0.000109434 0)
(1 -0.000112354 4.46153e-21)
(1.03724 -0.00980582 2.89442e-22)
(1.03671 -0.00888 -2.6192e-21)
(1.0381 -0.00910803 -8.0414e-22)
(0.993408 -0.00864965 -1.04629e-22)
(0.99283 -0.00896536 6.31556e-22)
(1.09982 -0.0561305 2.75144e-21)
(1.09587 -0.0547151 -4.98714e-21)
(1.00647 -0.00100507 2.64463e-21)
(1.00653 -0.000675204 5.76112e-21)
(1.1089 -0.0879173 0)
(1.11089 -0.0921849 2.53391e-21)
(1.11325 -0.0869397 -8.45366e-21)
(0.999974 -0.000324324 -1.39402e-21)
(0.999965 -0.000315572 -4.89492e-21)
(0.880645 -0.106857 1.06488e-20)
(0.889969 -0.106264 -1.94231e-20)
(0.886276 -0.11586 5.49289e-21)
(-0.045573 0.138527 -5.30962e-20)
(-0.0475024 0.145105 1.42755e-20)
(1.00216 -0.00976231 -1.78907e-22)
(1.00203 -0.00930125 0)
(1.00238 -0.00951964 5.79055e-21)
(1.18967 -0.0732548 0)
(1.19258 -0.0694464 0)
(1.18776 -0.0685408 -1.91878e-20)
(1.03646 -0.010295 -5.12332e-22)
(1.03772 -0.0105978 9.05692e-22)
(0.999998 -0.000108208 -4.52211e-21)
(0.896738 -0.00771356 6.55552e-21)
(0.891516 -0.00594257 -9.32986e-21)
(0.896468 -0.00196852 -2.61149e-20)
(0.793792 -0.294099 -1.08642e-20)
(0.810043 -0.303974 2.68173e-20)
(0.785746 -0.322109 2.14934e-20)
(0.992959 -0.00725252 1.06029e-21)
(0.992668 -0.00684285 3.77457e-21)
(0.993248 -0.00669258 3.59583e-21)
(1.12896 -0.0333901 6.22182e-22)
(1.12531 -0.0364011 2.90639e-20)
(1.12509 -0.0314921 -2.40935e-21)
(1.00291 -0.00145676 1.65984e-21)
(1.00312 -0.00136657 -1.31294e-22)
(1.00315 -0.00165115 -4.04044e-21)
(1.01834 -0.042565 6.29173e-21)
(1.02014 -0.0422129 2.17323e-21)
(-0.150886 0.000279921 4.59998e-20)
(-0.141904 -0.000249274 7.68575e-21)
(1.05712 -0.0627366 -6.6931e-21)
(1.05437 -0.0621805 -1.63012e-22)
(1.05545 -0.0652462 6.15831e-21)
(1.08547 -0.0115735 -3.81245e-21)
(1.08681 -0.00916873 -8.62361e-21)
(1.08371 -0.0090038 8.39558e-21)
(-0.0474826 -0.012395 0)
(-0.0382945 -0.010686 -5.384e-20)
(-0.0295879 -0.0129764 0)
(0.976872 -0.00933315 3.18202e-21)
(0.975636 -0.00887169 0)
(0.976865 -0.0082109 0)
(0.596356 0.061277 -3.57337e-20)
(0.577547 0.0756778 -1.93601e-20)
(0.574543 0.0479557 8.26418e-20)
(-0.11679 0.0242267 -8.19548e-21)
(-0.0954553 0.0260318 -5.28461e-20)
(-0.11473 0.0244844 3.52265e-20)
(0.450915 -0.0261095 -6.84293e-22)
(0.338961 -0.0452108 1.30401e-21)
(0.405088 -0.0257992 -2.21675e-21)
(0.00800491 -0.00574974 1.24164e-20)
(-0.0240311 -0.00410244 -5.00767e-20)
(0.00258877 -0.00352041 0)
(0.999985 -0.000421643 0)
(0.99998 -0.000449193 0)
(0.999991 -0.000580132 5.73496e-21)
(0.777247 -0.111011 -5.11909e-20)
(0.790677 -0.118854 5.2201e-20)
(0.789698 -0.103248 6.58617e-20)
(0.585464 -0.0468989 7.14127e-20)
(0.43526 -0.0274752 6.12608e-20)
(0.453718 -0.0317942 -4.51908e-20)
(0.993973 -0.00353661 5.38969e-21)
(0.993709 -0.00396657 5.60706e-21)
(0.994167 -0.00384229 -1.8881e-21)
(0.999955 -0.000155568 -1.32389e-21)
(0.99996 -0.000179154 -9.53173e-21)
(0.999981 -0.00011628 -9.30704e-21)
(0.766468 -0.11661 -3.4619e-20)
(0.765923 -0.0999952 -3.77796e-20)
(-0.0705622 -0.0295527 2.23445e-20)
(-0.071722 -0.0231725 -2.25032e-20)
(1.12451 -0.117999 1.51473e-20)
(1.12982 -0.116085 1.20964e-20)
(0.968408 -0.0714058 1.43795e-20)
(0.97141 -0.073505 2.39164e-20)
(0.972341 -0.0698463 9.45282e-21)
(1.08686 -0.0139785 1.20301e-21)
(1.18798 -0.225435 -3.36595e-20)
(1.18216 -0.229862 -2.79961e-21)
(1.18286 -0.221022 2.11701e-20)
(0.999952 -0.000129812 3.07648e-21)
(0.999922 -0.000188561 9.65323e-21)
(1.18101 -0.0332543 4.65027e-20)
(1.1761 -0.0333817 9.79013e-21)
(1.17866 -0.0289039 2.19995e-20)
(-0.145341 0.0520494 2.42121e-20)
(-0.14273 0.0591445 -6.77467e-20)
(0.791159 -0.274606 -7.50051e-20)
(0.768568 -0.291607 1.45868e-20)
(-0.0567333 0.163483 -1.46629e-20)
(-0.0516865 0.169367 -8.99465e-21)
(-0.0552478 0.159358 2.47243e-20)
(1.2543 -0.268152 1.23605e-19)
(1.25783 -0.259165 9.24227e-21)
(1.25135 -0.260094 1.03831e-19)
(1.25906 -0.280073 2.48344e-21)
(1.24173 -0.271026 -1.6674e-20)
(1.06267 -0.149209 5.92222e-21)
(1.06683 -0.156359 8.8023e-21)
(1.06972 -0.148969 5.84074e-21)
(-0.0779618 -0.0209388 3.62565e-20)
(-0.0646285 -0.0158211 -6.49057e-20)
(0.994587 -0.0131809 4.72667e-21)
(0.994732 -0.0138017 4.5201e-21)
(0.995157 -0.0132545 4.63173e-21)
(0.0144149 -0.00403685 -2.34299e-20)
(0.0498495 -0.00602635 5.38583e-20)
(1.11659 -0.139772 -1.63471e-20)
(1.11103 -0.140589 -4.70149e-20)
(1.11335 -0.135065 -1.31403e-20)
(1.03565 -0.0801474 1.12017e-21)
(1.03833 -0.0820708 -3.10432e-22)
(1.035 -0.0835133 1.61722e-21)
(0.999979 -3.51394e-05 4.2842e-21)
(0.999946 -6.65641e-05 -9.28461e-22)
(-0.107338 0.0973764 -2.80204e-20)
(-0.109644 0.0947218 6.58782e-20)
(-0.101395 0.100032 9.51222e-20)
(1.1048 -0.0892619 0)
(1.10643 -0.0846276 0)
(-0.119948 -0.153885 0)
(-0.135621 -0.16786 -4.54691e-20)
(-0.113437 -0.175061 3.90027e-20)
(0.992456 6.58811e-05 3.2738e-21)
(0.992438 -0.000498105 -3.97594e-21)
(-0.0660927 0.00705817 2.7734e-20)
(-0.0948384 0.00654935 0)
(-0.0780563 0.00564148 -1.42396e-20)
(0.318082 -0.00830022 -4.57975e-20)
(0.232381 0.00209508 -4.00527e-20)
(0.214024 0.00527686 -4.74153e-20)
(0.597548 -0.0112066 -1.96579e-21)
(0.515429 -0.0240582 1.07535e-21)
(1.00497 -0.00811413 5.17624e-22)
(1.00491 -0.00845385 4.99914e-22)
(1.00462 -0.00809948 -4.22892e-21)
(0.993758 -0.00322073 -7.57913e-22)
(0.994235 -0.00310849 -6.90786e-21)
(0.999993 -1.1321e-05 4.8344e-21)
(1.00004 -0.000703941 5.93807e-21)
(1.00006 -0.000692339 4.45153e-21)
(1.00006 -0.000838258 4.75857e-21)
(-0.049534 0.178421 -1.97186e-20)
(-0.0532645 0.182873 1.40079e-20)
(0.116953 -0.0745937 0)
(0.0832265 -0.0809554 0)
(0.0826476 -0.0422389 0)
(-0.20808 -0.0134389 4.1206e-20)
(-0.21026 -0.0132345 4.05154e-20)
(-0.230498 -0.0124389 6.4098e-20)
(0.978062 -0.00959355 -8.50368e-22)
(0.977033 -0.0102574 3.05033e-21)
(0.998796 -0.00177212 -1.12435e-20)
(0.998749 -0.00206922 -9.96152e-21)
(0.99863 -0.00195527 1.06481e-20)
(1.07638 0.00445871 -6.79057e-21)
(1.07431 0.0058636 8.61226e-21)
(1.07727 0.00745773 1.52234e-20)
(0.99647 -0.000428883 -4.45131e-21)
(0.996727 -0.000433774 4.44055e-21)
(0.996494 -0.000747092 3.00821e-22)
(-0.0521074 0.129704 -1.22606e-19)
(-0.0591379 0.127467 -3.2264e-20)
(-0.0577878 0.121115 -8.22957e-20)
(0.995864 0.000833779 6.82488e-22)
(0.995726 0.000505905 -1.53381e-22)
(0.995535 0.000742189 -6.90685e-21)
(-0.114382 0.0102673 0)
(-0.116189 0.00970176 0)
(-0.136189 0.0131969 0)
(1.18622 -0.0338694 -7.19704e-21)
(1.18329 -0.0386029 6.8466e-20)
(0.160566 -0.00473573 8.52912e-20)
(0.109536 -0.00888223 -3.15497e-20)
(0.125794 -0.0064103 4.7785e-20)
(1.13165 -0.0777336 -1.02598e-20)
(1.13521 -0.0750458 2.64985e-20)
(1.13108 -0.0730442 2.26515e-20)
(1.07996 -0.0179831 -3.55499e-21)
(1.08339 -0.0184595 8.68028e-21)
(0.995898 0.00116826 -1.07099e-20)
(0.996147 0.000967867 4.34374e-21)
(1.12752 -0.137903 0)
(1.13387 -0.137961 0)
(1.13047 -0.144224 0)
(-0.211482 -0.00793146 5.71483e-20)
(-0.188974 -0.0079383 0)
(1.24115 -0.0191564 3.81127e-21)
(1.23033 -0.0199619 8.59144e-21)
(1.24204 -0.0243152 -2.90169e-20)
(1.24013 -0.015459 4.52882e-20)
(1.24004 -0.0111803 -1.64498e-20)
(1.07075 -0.0376363 0)
(1.07118 -0.035034 -7.57509e-21)
(1.06875 -0.0361574 0)
(1.00669 -0.0168205 0)
(1.00729 -0.0168108 2.93625e-21)
(1.00679 -0.0162454 1.1386e-21)
(0.961366 -0.0129592 -1.15119e-20)
(0.959969 -0.0146966 -1.22306e-20)
(1.05212 -0.0568096 0)
(1.04958 -0.0565957 -1.66383e-21)
(1.05099 -0.0544015 0)
(1.0905 -0.060344 -1.11428e-20)
(1.08807 -0.0578588 0)
(1.08674 -0.0611987 8.81613e-21)
(1.12666 -0.264321 1.86518e-20)
(1.11768 -0.267789 2.29857e-20)
(1.12703 -0.275904 0)
(1.23823 -0.120382 0)
(1.21582 -0.106208 -4.55826e-21)
(1.25231 -0.119184 0)
(1.07884 0.00348899 -5.64285e-21)
(1.07568 0.00190487 -7.90845e-21)
(0.999994 -0.000413767 4.94289e-21)
(0.999993 -0.000271069 0)
(1.1432 -0.120725 -4.12513e-20)
(1.14762 -0.120032 -1.03697e-20)
(1.14565 -0.125072 -1.40138e-20)
(-0.0702946 -0.0293943 0)
(-0.0708183 -0.0303548 2.20224e-20)
(-0.0711502 -0.0254796 0)
(1.09198 -0.0631528 3.32714e-21)
(0.981177 -0.0187016 7.32217e-21)
(0.981428 -0.0200946 0)
(0.982461 -0.0190003 0)
(1.1642 -0.0367669 -3.53552e-20)
(1.16676 -0.0329297 -1.16613e-20)
(1.16209 -0.0327293 0)
(-0.14834 0.00940539 4.13467e-21)
(-0.142742 0.00819838 -3.89035e-20)
(-0.141783 0.0138931 -4.30398e-20)
(1.06048 -0.428815 2.24133e-21)
(1.04698 -0.430026 1.16295e-21)
(1.05078 -0.445764 5.63992e-20)
(0.995968 0.00148061 -2.92776e-21)
(0.996243 0.00161374 8.40488e-21)
(0.0221979 -0.00263473 3.80156e-20)
(-0.000182982 -0.00439185 -4.71843e-20)
(1.00616 -0.0169021 -5.38265e-24)
(1.00667 -0.0174154 4.22758e-21)
(0.99564 0.00138775 -1.57507e-20)
(0.998619 -0.00402464 0)
(0.998773 -0.00380331 -3.27078e-21)
(0.998664 -0.0035837 -4.67381e-22)
(0.0890127 -0.0612541 7.40728e-20)
(0.301881 -0.115969 2.82045e-20)
(0.16779 -0.0785783 -5.69289e-20)
(1.03271 -0.0779609 -1.6245e-23)
(1.03587 -0.0767251 -8.88865e-22)
(0.999559 -0.00318024 -4.44554e-21)
(0.999511 -0.00348211 -9.07939e-23)
(0.984303 -0.00168748 -5.55663e-22)
(0.9845 -0.00244879 3.39071e-21)
(0.983664 -0.00225109 1.45833e-22)
(1.25357 -0.29224 3.52414e-20)
(1.23906 -0.290544 -2.02861e-20)
(1.24576 -0.300717 5.39268e-20)
(1.13803 -0.122738 -7.58905e-21)
(1.13695 -0.129838 3.41726e-20)
(0.993257 -0.00768381 -4.06964e-21)
(0.99268 -0.0078751 -9.86869e-21)
(1.25583 -0.163431 -5.71857e-20)
(1.26173 -0.170245 -2.9654e-20)
(0.981954 -0.0105979 6.98207e-21)
(0.982902 -0.0103669 1.67965e-21)
(0.982702 -0.0114008 -1.69773e-21)
(1.17146 -0.033348 -2.37749e-20)
(1.17384 -0.0377395 -2.50477e-20)
(1.07291 -0.039152 -3.01671e-22)
(1.07034 -0.0401332 3.92629e-21)
(1.02655 -0.0125034 -1.67415e-22)
(1.02573 -0.0120592 -2.01612e-22)
(0.562661 -0.36437 0)
(0.572177 -0.393342 6.80661e-20)
(0.535824 -0.384016 2.71051e-20)
(1.04644 -0.0221955 3.90294e-21)
(1.04635 -0.0236422 3.5257e-22)
(1.0448 -0.022828 3.8899e-21)
(0.718538 -0.0695292 3.21096e-20)
(0.748763 -0.080314 2.64686e-20)
(-0.140694 -0.183849 -2.69225e-20)
(-0.129639 -0.194847 9.18243e-21)
(-0.124816 -0.20609 7.48834e-20)
(1.04913 -0.027596 -6.91543e-21)
(1.04853 -0.0292893 -2.20935e-21)
(1.04703 -0.0279877 -2.53837e-21)
(1.00502 -0.00776505 -8.72463e-22)
(1.00503 -0.0074241 -7.96707e-22)
(1.0047 -0.00744085 -1.90407e-21)
(0.999911 -0.00107888 7.83294e-22)
(0.999932 -0.000952865 -3.95544e-21)
(0.999923 -0.000919902 1.02065e-21)
(0.980873 -0.0178109 3.00013e-21)
(0.979885 -0.0186657 5.74622e-21)
(-0.171996 -0.0218076 1.19677e-20)
(-0.151143 -0.0245348 8.91544e-20)
(-0.17875 -0.0195355 -3.51205e-20)
(0.592623 -0.308353 -4.59078e-21)
(0.403642 -0.226252 -1.60501e-23)
(0.289051 -0.178067 -8.54288e-21)
(-0.201727 0.0323505 3.69645e-20)
(-0.196244 0.0380127 2.8188e-20)
(-0.199453 0.034668 -1.29232e-20)
(1.0019 -0.0112846 -4.2379e-21)
(1.00227 -0.0109599 1.29665e-20)
(1.2032 -0.133621 4.7932e-22)
(1.2072 -0.130031 4.23555e-22)
(0.959206 -0.3578 2.18121e-21)
(0.975112 -0.347945 -7.50829e-22)
(0.958656 -0.339746 -2.67444e-21)
(0.548687 -0.468358 -1.29e-19)
(0.51142 -0.502328 -1.8486e-20)
(0.511506 -0.441119 3.89432e-20)
(0.993411 -0.00444227 0)
(0.993661 -0.00479528 3.60092e-22)
(0.993106 -0.00492817 0)
(1.06046 -0.0581311 1.26304e-20)
(1.05866 -0.0604671 -8.71676e-22)
(1.05774 -0.0572387 9.95335e-21)
(-0.0278468 0.00518474 -4.24603e-20)
(-0.0474907 0.00674551 3.19502e-20)
(-0.148078 0.00378247 -1.50703e-20)
(1.18876 -0.0307547 -4.31644e-20)
(1.19108 -0.0353113 -2.46241e-20)
(0.995877 -7.12218e-05 0)
(0.995844 0.000277654 -8.15209e-22)
(0.997139 8.0687e-05 -5.3287e-22)
(0.99734 0.000325281 -2.05686e-22)
(0.997358 5.13116e-05 -1.12127e-22)
(1.00533 -0.00808491 0)
(0.233385 -0.00504684 7.4279e-21)
(0.211395 -0.00315564 1.31287e-20)
(-0.120095 0.023266 9.76443e-21)
(-0.134237 0.0218622 4.34919e-20)
(0.837289 -0.399504 -4.57049e-20)
(0.954563 -0.471398 7.15498e-21)
(-0.0899436 -0.136718 -2.33538e-20)
(-0.126093 -0.134445 4.44306e-20)
(1.01725 -0.0412649 1.54107e-21)
(1.01618 -0.0398895 8.3847e-22)
(1.01789 -0.0396116 -4.33608e-21)
(-0.167055 0.32767 -2.84003e-20)
(-0.0702018 0.364903 0)
(-0.207707 0.377832 3.66243e-20)
(0.393455 -0.0975216 0)
(0.37104 -0.111333 3.94034e-20)
(0.399806 -0.123163 5.18634e-20)
(0.90725 -0.0132074 1.42238e-20)
(0.905808 -0.00925614 1.45166e-20)
(0.910465 -0.00974598 -5.33182e-20)
(1.04078 -0.00603822 -1.42022e-22)
(1.04014 -0.0068693 -1.31295e-21)
(1.03947 -0.00597895 2.66313e-21)
(0.952832 -0.0498818 -6.85653e-21)
(0.955339 -0.0480774 -8.61909e-21)
(0.952359 -0.0464576 -2.61983e-21)
(0.195653 0.151957 -2.61113e-20)
(0.161467 0.145831 0)
(0.186599 0.113277 -2.06554e-19)
(1.01693 -0.00583906 1.37729e-21)
(1.01739 -0.00596395 4.28333e-22)
(1.01711 -0.00618869 2.07478e-22)
(0.992854 -0.0102006 3.38964e-21)
(0.993318 -0.0103453 -2.71333e-21)
(0.99962 -0.00043548 -6.42282e-21)
(0.999646 -0.000508459 1.45919e-21)
(0.999708 -0.000401867 5.35338e-21)
(0.974396 -0.00892162 0)
(0.973023 -0.00905472 0)
(0.97398 -0.0102082 -8.11152e-21)
(1.02922 -0.0108316 0)
(1.0297 -0.0104574 -7.39838e-22)
(1.02894 -0.0100821 0)
(1.10186 -0.0509168 -1.19286e-21)
(1.10245 -0.0545164 9.14331e-21)
(1.10568 -0.0525623 1.10109e-20)
(1.08229 -0.0338532 -1.36203e-22)
(1.08451 -0.035801 -1.78329e-20)
(1.08466 -0.0327061 -1.19433e-20)
(-0.0774768 0.0489266 -2.30052e-20)
(-0.0701381 0.0554615 4.58196e-21)
(-0.0686942 0.0451459 -3.51793e-20)
(0.980991 -0.00015515 3.64221e-21)
(0.98011 -0.000666196 -5.25104e-21)
(0.981123 -0.00107864 -1.05093e-21)
(1.0675 -0.0934381 -9.05671e-22)
(1.06609 -0.0901182 5.97668e-22)
(1.06364 -0.0931338 2.9014e-21)
(1.04952 -0.0260601 -2.65661e-21)
(1.05094 -0.027262 5.68798e-22)
(0.963895 -0.0273211 -2.18003e-20)
(0.964424 -0.0250025 -2.44813e-21)
(0.966039 -0.0269177 -1.6291e-20)
(0.770107 -0.495919 -3.87421e-21)
(0.734457 -0.49904 -1.95817e-21)
(0.760887 -0.537256 -2.17614e-21)
(1.13944 -0.117816 1.53127e-21)
(-0.0677028 -0.0272891 -2.64754e-20)
(-0.0702023 -0.0314318 5.57952e-20)
(1.01533 -0.00568905 6.423e-22)
(1.01515 -0.00540734 5.59915e-22)
(1.01489 -0.005612 1.34386e-21)
(-0.0605234 -0.0123063 0)
(-0.0528234 -0.0150302 0)
(0.96569 -0.0689754 -1.34009e-20)
(0.964386 -0.0726353 -3.24861e-21)
(1.13714 0.0279489 -9.65168e-21)
(1.14205 0.0297418 -6.86635e-21)
(1.13735 0.032965 -1.89132e-20)
(1.02015 -0.0281362 1.3198e-21)
(1.02159 -0.0283133 4.02358e-22)
(1.13619 -0.26162 -2.64569e-20)
(1.1285 -0.254959 2.02766e-20)
(0.998934 -0.00164058 -8.05823e-21)
(0.998861 -0.0015386 3.98301e-21)
(0.730861 -0.0355048 -1.77773e-20)
(0.741624 -0.0256537 0)
(0.723491 -0.0200937 0)
(1.12152 -0.138592 -1.70964e-20)
(1.11936 -0.144509 -1.6327e-21)
(1.02867 -0.0111634 3.33173e-22)
(1.02956 -0.0114986 0)
(0.338301 0.496182 3.94647e-21)
(0.388492 0.476784 1.03498e-19)
(0.383731 0.531621 6.55601e-20)
(-0.208167 0.0117306 4.741e-21)
(-0.214294 0.00637084 4.8265e-22)
(-0.207484 0.00357086 3.62563e-21)
(1.05812 -0.151013 1.01276e-20)
(1.05956 -0.145271 -7.75298e-22)
(0.994119 -0.015577 -7.69896e-22)
(0.993943 -0.0148573 0)
(0.99336 -0.0155089 1.77174e-21)
(1.14861 -0.0770294 0)
(1.14465 -0.0789749 -1.77534e-20)
(1.14892 -0.0821326 0)
(-0.175573 -0.0559164 1.69192e-20)
(-0.185972 -0.0419409 1.70195e-20)
(-0.197146 -0.0494315 -6.0909e-20)
(0.743898 -0.0624873 0)
(0.736547 -0.0485921 -1.76468e-20)
(0.753648 -0.0538201 4.82602e-20)
(0.731251 -0.0707222 0)
(0.747819 -0.0745116 -2.72224e-20)
(-0.0783317 0.0838495 5.02827e-20)
(-0.0859659 0.082356 6.76932e-22)
(-0.0802138 0.0911547 3.54427e-20)
(1.20938 -0.0274051 -1.11655e-20)
(1.20917 -0.0231664 0)
(1.21486 -0.0264654 -1.76291e-20)
(1.13627 0.0229834 0)
(1.13236 0.0264655 0)
(1.13208 -0.0315614 -1.11329e-21)
(1.13222 -0.0359573 1.10911e-20)
(0.412542 -0.0797208 0)
(0.382506 -0.0704149 0)
(1.03257 -0.00482877 1.22507e-21)
(1.03299 -0.00422953 0)
(1.03209 -0.00416655 -1.32005e-21)
(-0.131534 0.24199 3.7534e-20)
(-0.185999 -0.0144767 -1.01585e-19)
(-0.207177 -0.0135784 6.25458e-20)
(1.01653 -0.00572975 1.95761e-21)
(1.01681 -0.00554406 -5.43553e-22)
(0.999741 -0.00016846 5.03553e-21)
(0.999729 -9.78904e-05 -8.27103e-22)
(0.999806 -0.000104828 1.04882e-23)
(0.615769 -0.0324956 -5.58944e-20)
(0.768731 -0.0503588 0)
(0.985741 -0.0136814 1.05939e-20)
(0.986603 -0.0142474 3.07603e-21)
(0.98555 -0.0148619 4.86044e-21)
(1.00003 -0.000625204 2.9602e-21)
(1.00004 -0.000750096 5.15662e-21)
(1.20195 -0.0597276 1.97014e-20)
(1.20367 -0.0640958 1.61625e-20)
(1.19835 -0.0620885 -4.73757e-21)
(1.20522 -0.0681888 -2.36432e-20)
(1.20265 -0.0715177 -2.18806e-20)
(1.20732 -0.0729432 1.34382e-20)
(1.01659 -0.0428117 -2.20104e-23)
(1.06199 -0.056272 -9.12809e-21)
(1.06283 -0.0595184 6.14944e-21)
(1.06907 -0.0968313 -9.06176e-21)
(1.07145 -0.0931701 -7.71147e-21)
(0.928356 -0.169198 2.13428e-20)
(0.920952 -0.160918 2.30599e-20)
(0.918249 -0.171921 7.82137e-23)
(1.06751 -0.0525664 1.93859e-21)
(1.06569 -0.0507016 -2.34451e-21)
(1.06818 -0.0499772 -1.1935e-20)
(0.993138 -0.00411697 0)
(1.03335 -0.187007 3.82135e-21)
(1.03801 -0.182961 4.13955e-23)
(1.03111 -0.180386 -5.42943e-22)
(-0.0364654 0.0549876 1.57274e-20)
(-0.0281076 0.0521863 0)
(-0.0360113 0.0454263 -3.84784e-20)
(1.02793 -0.011448 -4.8196e-24)
(1.02774 -0.0106534 3.37826e-23)
(-0.20661 0.0241387 0)
(-0.204213 0.0288021 0)
(-0.197205 0.0299835 -6.72949e-20)
(0.999955 -0.00042667 5.24438e-21)
(0.999977 -0.00032083 -1.27317e-21)
(0.999824 -0.00183629 -3.31147e-22)
(0.999835 -0.00163253 5.44554e-21)
(0.999771 -0.00181502 0)
(1.01324 -0.000941456 -1.86369e-21)
(1.01303 -0.00116459 1.01892e-21)
(1.01342 -0.00116971 -1.52054e-21)
(-0.0438606 0.131367 1.76762e-20)
(0.993405 0.00145939 -6.56154e-21)
(0.992981 0.00124853 -5.81243e-21)
(0.993352 0.00101525 3.75135e-22)
(1.25589 -0.287605 3.30119e-20)
(1.24424 -0.295775 -4.40227e-20)
(-0.0784169 0.000572207 2.12881e-20)
(-0.0652038 -0.00147212 -4.42893e-21)
(-0.0806162 0.00203125 -8.9865e-21)
(1.00042 -0.00264742 1.91912e-21)
(1.00037 -0.00268277 -3.08197e-21)
(1.00047 -0.00287361 -1.2344e-21)
(0.999084 -0.0015115 0)
(0.999015 -0.00175192 -5.87585e-21)
(1.16939 -0.206203 -1.11097e-19)
(1.22599 -0.208261 6.12966e-21)
(1.25408 -0.218144 -4.90672e-20)
(1.01274 -0.000574636 1.26495e-21)
(1.01325 -0.000581589 -1.95731e-22)
(0.999899 -0.000335764 -4.73921e-21)
(0.999904 -0.000380013 -7.27053e-22)
(0.999857 -0.000436506 -4.55745e-21)
(1.0143 -0.000689564 -4.03366e-22)
(1.01402 -0.000713409 1.06149e-21)
(1.01302 -0.000431593 -2.5735e-22)
(-0.0798992 -0.00053132 0)
(-0.0888779 0.00202459 -1.01257e-20)
(0.578802 -0.339775 0)
(0.545344 -0.328951 5.40752e-20)
(0.922932 -0.0468333 1.55798e-20)
(0.926895 -0.0446229 -2.87678e-20)
(0.926838 -0.0494313 -1.43864e-20)
(0.835202 -0.486657 -6.43676e-21)
(0.845457 -0.45699 -9.46294e-21)
(0.867587 -0.478852 8.76682e-22)
(1.18692 -0.076749 0)
(1.18406 -0.0803637 2.57901e-20)
(1.18211 -0.0756839 -3.56246e-20)
(-0.154574 -0.160814 -9.13405e-20)
(-0.0633185 0.253511 -5.67675e-20)
(-0.0479073 0.248611 -5.74873e-20)
(-0.0637924 0.229166 -1.03076e-19)
(1.04817 -0.0310879 3.60141e-21)
(1.05035 -0.0306116 2.84236e-21)
(-0.0693783 -0.0816734 -8.68455e-20)
(-0.0349115 -0.0975704 1.57072e-20)
(-0.104034 -0.0855703 6.16914e-20)
(0.999992 -0.000338311 3.7748e-21)
(0.999965 -0.000454425 -3.95751e-21)
(0.999979 -0.00031061 -3.17862e-21)
(-0.140127 -0.0604046 2.15715e-20)
(-0.163815 -0.0714783 1.25764e-21)
(0.4477 -0.94452 2.86317e-20)
(0.197795 -0.931201 0)
(0.449613 -1.07124 -4.98774e-21)
(-0.15626 0.0628363 1.09925e-20)
(-0.162446 0.0575544 9.90943e-20)
(-0.161405 0.0612787 6.51866e-20)
(-0.118026 0.0113341 -2.79356e-20)
(1.20699 -0.0285374 3.7154e-21)
(1.20986 -0.0310602 2.24767e-20)
(1.07137 -0.0326138 -7.85322e-21)
(1.0735 -0.0339171 9.15555e-22)
(1.1209 -0.114398 1.98536e-20)
(1.1194 -0.119472 -1.15391e-20)
(1.07994 -0.0354756 -5.75134e-21)
(1.08005 -0.0323165 9.70701e-21)
(1.04145 -0.00518061 -1.55858e-22)
(1.04189 -0.00415458 -1.54763e-21)
(1.04054 -0.00423056 2.46661e-21)
(1.05371 -0.0216194 -8.2704e-22)
(1.05551 -0.0219517 1.59781e-21)
(1.05466 -0.0199257 4.56797e-21)
(0.806346 -0.490887 -1.86419e-20)
(0.781337 -0.465692 -2.54872e-20)
(0.907651 -0.0568499 2.23772e-21)
(0.904789 -0.0512624 -2.75021e-20)
(0.999122 -0.00130833 -4.13167e-21)
(0.999188 -0.00138381 0)
(1.00001 -0.000133191 6.91546e-22)
(1 -6.44568e-05 -3.41735e-21)
(1 -6.95863e-05 5.24464e-22)
(1.01574 -0.00581601 -3.13346e-21)
(1.01546 -0.006021 -1.45448e-21)
(1.01857 -0.000148389 1.3243e-22)
(1.01839 -0.000224955 1.27147e-22)
(1.01887 -0.000265194 5.70971e-24)
(1.02812 -0.0121202 1.85929e-22)
(-0.0701141 0.208107 -4.56594e-22)
(-0.0669257 0.213862 0)
(-0.064209 0.203877 0)
(1.0048 -0.00959635 4.8092e-22)
(1.00515 -0.00957162 5.41869e-21)
(1.00481 -0.00920485 -6.56045e-22)
(1.01935 -0.0258454 1.78858e-21)
(1.0184 -0.0252869 0)
(1.01834 -0.0264953 0)
(1.01831 -0.000226047 -1.61834e-22)
(1.01824 -0.000247835 8.96598e-23)
(1.0188 -0.000203564 1.46083e-24)
(1.00198 -0.00998398 -1.68346e-22)
(1.00233 -0.0102164 5.64906e-21)
(-0.0248506 0.00712225 0)
(-0.0233029 0.0166583 -5.18203e-20)
(-0.0139792 0.0121594 -1.21876e-19)
(1.07023 -0.413593 -2.40663e-20)
(1.07591 -0.431631 -5.85908e-21)
(0.68868 0.106223 0)
(0.691463 0.0905996 -2.10601e-20)
(0.671857 0.0949325 0)
(0.944506 -0.00824696 0)
(0.942703 -0.00990078 -4.22886e-21)
(0.942132 -0.00667752 -3.5344e-21)
(1.16663 -0.0409982 -1.69417e-20)
(1.16189 -0.0403541 -1.69418e-20)
(1.0163 -7.39725e-05 -1.33793e-22)
(0.738585 0.00243942 -2.6503e-21)
(0.894019 0.00952536 -3.17447e-21)
(0.820013 0.00544234 2.31032e-22)
(-0.00960045 -0.0297059 1.16799e-19)
(0.0497586 -0.0437427 2.64722e-21)
(0.992506 0.000563301 6.34314e-21)
(0.992896 0.000333646 1.22061e-20)
(-0.0460661 -0.00377031 -8.92246e-20)
(-0.045134 -0.00405954 1.40773e-20)
(1.12296 -0.0392088 2.57102e-20)
(1.11985 -0.0420513 -1.79643e-20)
(1.119 -0.0375063 -1.91614e-20)
(0.991329 -0.00102088 1.6685e-20)
(0.990963 -0.000706211 7.43212e-22)
(-0.200614 -0.0343847 -6.56062e-20)
(0.663543 -0.00193867 -2.57528e-22)
(0.996111 -0.00412586 4.62937e-21)
(0.996296 -0.00365466 4.05411e-21)
(1.02709 -0.191767 3.67671e-21)
(1.03586 -0.194558 8.3716e-22)
(0.26267 0.409697 4.83526e-20)
(0.350398 1.15951 5.9457e-20)
(0.96955 -0.0248918 4.033e-21)
(0.971226 -0.0257502 -1.12114e-20)
(0.971153 -0.0238236 -1.3978e-20)
(0.828274 0.0420062 -1.49464e-20)
(0.835197 0.0371143 1.49671e-20)
(0.827591 0.0333064 -3.43482e-20)
(1.02028 -0.0250114 7.28276e-22)
(0.96486 -0.0229853 3.42595e-21)
(0.966596 -0.0224211 1.06137e-21)
(0.965063 -0.0209404 -1.18999e-20)
(-0.0746575 -0.085958 7.37376e-20)
(-0.0971739 -0.0692629 6.31745e-20)
(-0.0411641 -0.0767193 1.58255e-20)
(0.874047 -0.168739 -3.35242e-20)
(0.880818 -0.159944 -1.67684e-20)
(0.867597 -0.158755 3.89103e-20)
(0.996683 -0.00930851 0)
(0.996315 -0.009215 0)
(0.99533 -0.000362212 1.77387e-21)
(0.995623 -0.00040006 4.9612e-21)
(0.99535 -0.000722728 -5.9242e-22)
(0.946448 -0.00627575 1.16744e-20)
(0.947 -0.00947789 0)
(1.02554 -0.364846 8.22251e-21)
(1.0091 -0.361405 -4.90782e-22)
(1.02013 -0.348843 8.25623e-21)
(0.0790573 -0.136539 0)
(0.111093 -0.152096 0)
(0.0839366 -0.18087 0)
(0.990851 -0.00613925 6.3816e-21)
(0.99152 -0.0060268 2.83831e-21)
(1.00521 -0.00877738 -3.88821e-21)
(1.00486 -0.0087912 -3.69707e-21)
(1.03218 -0.0187409 -5.03192e-22)
(1.03246 -0.0177965 1.90303e-21)
(1.03324 -0.0189529 -2.05272e-21)
(-0.192028 -0.0176577 -2.26313e-20)
(-0.168043 -0.0232269 2.47064e-20)
(-0.0618164 -0.0534649 -3.25755e-20)
(-0.0727361 -0.0569023 3.0344e-21)
(-0.0434133 -0.0278496 -3.17241e-20)
(0.0124117 -0.0310114 -3.5375e-20)
(-0.01928 -0.0300708 -3.19858e-20)
(1.03205 -0.00536792 2.31965e-22)
(1.03153 -0.00583428 -1.22263e-21)
(1.03116 -0.00521372 -1.10559e-22)
(0.881783 -0.178381 2.65069e-20)
(0.866505 -0.178993 -1.26543e-20)
(0.830286 0.0512641 -1.72083e-20)
(0.821238 0.0486183 2.27332e-20)
(0.807015 -0.642186 -1.05413e-21)
(0.764273 -0.66193 7.83311e-22)
(0.815485 -0.69339 4.93804e-21)
(1.16922 -0.0836389 -9.70171e-21)
(1.17281 -0.0824046 -2.15535e-20)
(1.1727 -0.0870406 -1.86826e-20)
(1.03311 -0.00127497 0)
(1.03371 -0.00180097 1.81468e-21)
(1.03273 -0.00183897 0)
(1.03537 -0.00364759 2.95681e-21)
(1.0349 -0.00431909 1.02005e-21)
(1.03594 -0.00436831 1.86831e-23)
(1.03185 -0.0196766 1.33759e-23)
(1.03112 -0.0185408 0)
(1.11741 -0.11092 9.24088e-21)
(1.12225 -0.10939 2.14974e-20)
(0.985459 -0.0357674 5.28485e-21)
(0.986688 -0.0371565 4.92408e-21)
(0.984746 -0.0376113 5.04324e-21)
(0.0222583 -0.0220553 -5.19729e-20)
(0.00554596 -0.0175858 0)
(-0.0244926 -0.0146326 0)
(0.998031 -0.00148806 3.47124e-22)
(0.997896 -0.00136482 7.63814e-21)
(0.997873 -0.00171576 7.74624e-21)
(1.009 -0.0159331 -7.45299e-23)
(1.00892 -0.0165765 -5.95342e-21)
(1.0096 -0.0164833 -6.17555e-21)
(-0.179887 -0.0519635 2.80013e-20)
(-0.192042 -0.0487415 5.8018e-20)
(-0.197406 -0.0603749 1.05868e-19)
(-0.0761415 0.198611 -7.98451e-20)
(-0.0831767 0.213693 6.32545e-20)
(-0.069567 -0.00861699 0)
(-0.0704371 -0.010852 2.51989e-20)