/*--------------------------------*- C++ -*----------------------------------*\
| =========                 |                                                 |
| \\      /  F ield         | OpenFOAM: The Open Source CFD Toolbox           |
|  \\    /   O peration     | Version:  v2012                                 |
|   \\  /    A nd           | Website:  www.openfoam.com                      |
|    \\/     M anipulation  |                                                 |
\*---------------------------------------------------------------------------*/
FoamFile
{
    version     2.0;
    format      ascii;
    class       volScalarField;
    location    "200";
    object      ddt0(k);
}
// * * * * * * * * * * * * * * * * * * * * * * * * * * * * * * * * * * * * * //

dimensions      [0 2 -3 0 0 0 0];


internalField   nonuniform List<scalar> 
9793
(
-6.23402e-05
0.000138289
-6.77e-05
-2.7875e-08
-0.0200234
7.24006e-07
1.19611e-07
-9.81513e-08
-3.76586e-07
-0.0203718
1.24273e-06
-0.0079353
-9.13902e-08
3.43398e-07
2.12444e-07
1.22999e-07
9.4292e-07
3.71222e-06
0.0273742
2.96267e-07
4.22683e-07
-5.97599e-07
-0.00320621
-8.67233e-08
-1.02472e-06
-1.30625e-07
7.37509e-07
-6.63179e-07
-3.08853e-06
-4.23995e-07
9.33774e-07
-0.00292291
0.000420107
1.01751e-07
-4.48738e-06
-4.1202e-06
7.33151e-08
-5.8118e-07
9.20256e-08
-1.92873e-07
-4.10999e-08
1.8421e-07
-7.01258e-08
8.77647e-08
-1.00673e-07
-8.47879e-08
-4.17985e-06
0.000282576
-0.00383678
-1.45225e-08
-3.58252e-06
1.05595e-06
5.58597e-07
-2.42243e-07
-0.00302066
0.00033665
-6.59951e-08
4.31223e-06
0.00189909
-6.99441e-08
-7.91187e-08
4.51745e-07
0.00289122
-1.18694e-08
-0.0119562
0.000498328
0.00152168
-0.00151756
-0.003994
7.2697e-07
-0.0059855
1.17667e-07
-2.13488e-07
0.00036868
-3.57681e-06
0.00179818
-1.59547e-07
4.10472e-07
-3.21267e-07
-5.40105e-07
0.00109634
4.27141e-07
0.00054537
-0.00144344
-1.11207e-06
0.000137859
-1.02594e-06
-2.01838e-07
4.87343e-07
-2.58717e-07
0.000114916
-0.00330755
4.28372e-07
-0.00276715
4.26245e-07
-0.00137697
7.92008e-05
0.000325858
4.33467e-07
2.35555e-07
2.03144e-07
2.4957e-07
-6.65714e-08
-9.56865e-08
5.69814e-07
-3.86845e-06
3.36039e-07
-1.34624e-07
6.21637e-07
0.000228292
1.4548e-07
-3.72767e-06
3.28252e-07
1.34104e-05
1.09149e-06
-1.41518e-07
-0.00250663
-3.35268e-06
-4.50657e-08
-0.00251391
0.000284779
4.22335e-07
6.05554e-08
7.21135e-07
-3.7861e-07
-1.34784e-05
-3.64815e-07
-1.05418e-06
-6.09572e-06
-1.62229e-07
2.27202e-07
-2.06327e-07
-1.71622e-07
2.09671e-07
-3.03658e-07
-1.85543e-07
-9.98147e-08
8.21342e-08
2.28432e-07
-1.78634e-08
-1.70556e-08
-1.30738e-06
-3.86092e-08
1.38707e-07
6.42125e-07
6.19321e-06
0.00108579
1.58581e-07
2.66424e-07
-0.0015919
-0.0230418
2.12969e-07
-0.0234581
-0.0201291
2.45435e-07
3.23907e-07
5.31605e-08
-1.33899e-06
2.40611e-07
-4.29508e-08
-1.76375e-07
-6.93894e-07
-8.18944e-08
0.00645519
0.000560167
-2.50688e-06
0.000413379
-1.52881e-06
4.11181e-07
4.14721e-07
1.19805e-07
-0.00637719
0.000371085
-0.00694018
-4.36225e-07
0.0121579
-1.88587e-07
-7.48702e-08
3.74928e-10
-2.30322e-06
-0.0555578
-6.61718e-07
2.67589e-07
-1.19887e-06
-0.000480648
-1.37955e-07
-1.60791e-05
-3.21304e-09
9.9129e-08
-4.55025e-08
-4.35929e-07
-2.37038e-07
-0.00305542
-1.54229e-05
0.000276573
-2.31702e-06
0.00527522
4.88083e-07
-0.022814
-8.83282e-09
-2.79289e-07
0.00115313
3.34198e-05
-1.36837e-07
-1.71266e-07
1.18156e-07
2.49463e-06
4.37649e-08
8.22988e-07
-9.09607e-07
-2.61932e-06
-0.00283032
-0.00352157
-3.4721e-07
0.0138399
7.44376e-08
2.36944e-07
-0.0045938
4.25305e-09
0.0081117
-1.26264e-05
-1.7381e-07
-3.88236e-07
-2.558e-07
-0.000830755
0.00230977
7.02419e-07
1.34868e-07
-7.82756e-06
-2.34401e-07
-1.53736e-07
-6.88433e-08
-7.17405e-07
9.26257e-09
-3.37796e-07
0.00795381
8.871e-08
-1.20826e-08
7.76746e-05
4.73948e-07
7.28021e-07
-2.88879e-07
-1.16569e-07
0.000601636
-1.08374e-07
3.58628e-07
-1.21963e-07
-1.31342e-06
3.66287e-07
1.00804e-07
-1.0322e-07
-1.29182e-06
-4.62258e-07
-2.48256e-07
2.32773e-08
-4.03082e-07
3.20118e-08
-1.39772e-06
9.73514e-07
1.11064e-08
0.00111554
-1.47226e-07
-6.05886e-07
-2.53209e-07
-1.72574e-06
-2.1418e-07
-4.19841e-07
-2.65176e-06
0.000708641
5.8952e-07
6.88941e-08
-5.34913e-08
-8.27511e-07
-2.19781e-07
-1.55309e-05
-5.32963e-05
-2.5835e-07
-3.41958e-06
-2.64563e-07
-2.0897e-07
-1.19156e-06
-2.28e-07
-6.91921e-08
-1.81897e-07
-2.59863e-07
-1.89247e-07
-6.90831e-08
-1.55901e-06
3.62949e-08
-1.70173e-07
2.10093e-07
-0.000807976
7.48024e-07
1.09542e-07
2.23408e-07
3.38e-07
-4.3842e-07
-1.74464e-06
-3.12787e-07
0.0131017
1.6447e-07
0.000600279
-0.00333383
-1.32275e-07
3.47997e-08
7.51174e-09
-9.76035e-07
-1.06118e-06
-1.06208e-06
0.00213939
-3.16306e-07
1.27968e-08
-1.13094e-06
8.04206e-09
-1.57622e-07
-7.41207e-07
-0.000536711
-4.92868e-07
-1.07144e-06
-9.16813e-07
-2.98643e-07
0.000201097
0.0147861
0.000486319
-3.0366e-07
-0.0630966
-4.92775e-07
0.00214524
-1.86296e-06
-2.95966e-08
-8.18795e-07
-3.4327e-06
6.80214e-08
-2.52491e-07
1.83503e-06
-1.27312e-07
-1.2257e-07
-4.72776e-08
2.51365e-08
-6.41018e-07
0.000415027
-1.02473e-07
-2.16195e-07
0.00970753
4.11166e-07
4.81885e-08
-1.00718e-07
-5.40617e-07
-1.19476e-07
0.00614096
-3.75552e-07
-7.38541e-08
5.48807e-09
4.85119e-07
-0.00394754
-2.97048e-07
-5.70919e-07
-7.24097e-08
-2.45134e-06
-0.0032383
-1.61261e-05
-2.27788e-06
-3.85235e-07
3.30555e-07
0.0213036
-6.98758e-08
0.00126942
-2.75408e-07
1.87036e-08
-0.00266497
3.90837e-07
0.0347495
-1.11927e-07
2.03037e-07
-6.45078e-07
2.55682e-07
-1.61416e-07
5.49277e-05
-1.69311e-06
0.000930554
-4.23348e-07
-3.86524e-07
-0.0067641
-4.48509e-07
-5.78359e-07
-2.43191e-07
-2.11728e-07
8.2281e-07
-3.37959e-07
-5.19672e-07
-0.0037761
-4.529e-07
0.0121332
-6.22265e-06
0.017655
-1.70064e-07
0.000728282
-2.53929e-08
-7.83748e-08
0.0228106
0.000409179
-1.97697e-07
-3.43279e-07
0.000626671
-4.10384e-08
-9.21464e-05
3.77446e-08
-5.44872e-07
-3.11729e-08
-2.61965e-06
-1.30357e-07
-1.90789e-06
4.6443e-06
9.76128e-08
-0.00197154
2.92432e-07
-4.71566e-07
-2.93256e-07
3.0963e-07
4.41345e-07
5.63233e-06
7.63065e-05
-2.82685e-07
-1.97607e-07
2.20819e-06
-4.22797e-07
9.98997e-07
-5.39827e-07
-4.33122e-08
-2.36172e-06
-1.81212e-08
-1.83172e-07
-2.0736e-08
0.00147655
3.06372e-06
0.00155987
3.46975e-07
-0.00269543
-4.82285e-09
2.64444e-07
1.05239e-07
-4.79525e-07
0.00106694
5.93932e-07
0.00511702
-3.6983e-08
-5.09492e-08
-6.27685e-07
0.000363944
2.92539e-06
-0.0121259
-0.00242809
5.63462e-07
9.59129e-08
6.46192e-07
-2.28968e-06
-2.39534e-06
0.000172302
-0.000775855
-3.31185e-07
-1.23187e-06
-9.48924e-08
3.94475e-08
7.77218e-08
9.56837e-08
-4.0001e-08
-6.87887e-09
6.68626e-05
-2.02507e-06
-0.0058272
5.18946e-11
-9.5064e-07
-5.54782e-08
9.02637e-08
1.11609e-07
1.23935e-07
5.63356e-07
3.05701e-07
-1.14017e-06
3.16501e-08
-7.79149e-08
9.43183e-07
0.000329345
2.79679e-08
1.86398e-07
-0.00445994
7.88277e-07
-3.84061e-07
0.00255295
-0.00225233
-2.00135e-07
-2.89208e-07
-7.00237e-07
9.14001e-07
-1.49271e-07
1.4696e-07
-3.99633e-07
5.83814e-07
1.27101e-07
-4.20407e-08
0.00102036
-1.44257e-06
3.07531e-08
0.000790628
-1.81759e-06
3.53204e-07
7.37651e-07
-5.89704e-07
-1.17888e-05
-1.16933e-06
-0.0176909
-7.02971e-08
-7.81778e-08
1.07223e-07
2.67078e-08
-1.68382e-06
-0.00219464
-1.03693e-06
3.37536e-07
0.0114125
8.13278e-07
-1.64311e-07
-4.34261e-07
4.37161e-07
-1.68757e-07
-1.36368e-07
-1.84121e-07
-7.92674e-08
0.00031164
-1.1921e-07
-1.64595e-06
7.65315e-07
-5.08715e-07
-3.53763e-07
-3.18544e-07
1.3094e-07
-2.74789e-07
-1.52032e-07
6.60874e-05
-5.18521e-08
-7.10386e-07
0.00903634
1.40004e-07
-0.000200281
-5.54077e-07
9.43263e-08
1.16116e-06
-0.00729671
-2.27265e-07
-6.32281e-06
-2.31477e-07
0.00014857
-1.61113e-06
-0.00705601
-1.93102e-07
-7.77681e-08
3.77355e-07
0.000249191
1.11612e-07
0.00205661
0.00152954
-0.00247494
-1.62269e-06
-0.0171752
-2.30812e-06
1.78161e-07
-1.22948e-06
-8.79667e-07
0.000190742
-1.79147e-07
-0.00367937
6.9555e-08
-0.00087371
-6.57126e-08
-5.4875e-07
-2.31703e-07
2.20512e-05
6.83158e-08
-1.51646e-07
-6.87634e-07
-9.57802e-07
-2.27117e-06
-1.87246e-07
-1.83245e-07
3.84406e-08
-3.07432e-08
0.0410435
-4.7003e-08
-0.00143897
1.82741e-05
-8.68269e-09
-1.14071e-07
-1.03518e-06
-3.32045e-07
-1.2028e-08
-9.30703e-09
2.54567e-07
-1.58027e-06
-6.81319e-07
-9.84297e-07
7.49911e-10
-1.74449e-07
-2.67062e-07
-1.41491e-06
1.68141e-09
-5.56715e-07
0.0142757
9.13962e-08
0.000230939
-1.4732e-06
1.28529e-07
-1.58735e-07
-5.7283e-08
2.36605e-07
6.14896e-07
-1.47017e-07
9.89357e-07
-3.58353e-08
-3.91694e-07
1.05645e-06
1.31944e-08
-2.60389e-07
-1.07228e-08
-5.42135e-07
2.12577e-07
-3.63683e-07
-1.01871e-07
-7.36359e-07
-9.82749e-07
2.77128e-08
-1.82969e-07
-1.64568e-07
-2.60322e-08
7.78228e-08
2.32901e-08
2.92656e-08
-2.77878e-07
5.37901e-08
8.9853e-08
-2.92825e-06
-2.55333e-08
-1.61536e-08
-2.94982e-08
-0.00288602
-1.24533e-07
-1.2978e-08
6.93799e-07
-1.60109e-07
9.18781e-07
0.000143934
-8.89374e-07
6.54486e-08
1.48387e-07
2.49459e-06
-5.75998e-08
6.14177e-07
-0.00644491
-0.00201939
0.000853902
6.94284e-07
-6.87242e-08
-0.00152263
2.42166e-06
7.28078e-09
0.000982631
-0.00330142
0.000278788
-1.13144e-07
8.27136e-07
-8.39418e-08
5.08164e-08
0.00029079
4.28331e-09
1.14788e-05
-5.13402e-06
-1.12319e-06
-1.3348e-07
-9.50428e-07
-1.53882e-07
3.24707e-05
0.0048732
9.63005e-08
1.62313e-06
-1.02046e-06
-2.37964e-07
9.25004e-07
5.63509e-07
-0.0647489
-1.72893e-07
-0.000291715
2.2807e-06
-0.00207645
0.000189086
-0.00250175
-0.00155045
-4.61659e-07
-5.1759e-07
-0.000746701
1.87376e-07
-1.01431e-07
-1.04952e-07
-3.78921e-06
5.20991e-08
0.00102098
-8.78471e-10
6.15324e-05
-9.09071e-07
-5.22432e-05
5.53448e-07
-3.49074e-07
-0.0104379
0.00024183
-3.66875e-07
-0.00636838
8.29445e-09
2.00562e-06
1.76817e-08
-1.39699e-07
0.000172122
3.96878e-07
0.00571372
-1.17109e-07
-0.00189982
-2.77229e-07
0.000423681
-0.000171106
-4.50178e-07
0.00607134
-1.74123e-07
-7.5537e-07
-2.12958e-06
-8.73291e-05
-5.76555e-05
2.016e-07
-2.92189e-07
-2.38312e-09
-0.00198498
0.00362919
-2.78055e-07
4.42306e-07
-4.09262e-05
1.9572e-08
6.62593e-08
3.20703e-07
1.60045e-05
2.81743e-08
5.92838e-07
2.70383e-08
-1.34692e-07
0.00104946
0.010617
0.000582477
-5.61919e-08
-1.56064e-07
-0.00334356
-1.57632e-07
-0.00630412
-3.33267e-06
0.000527583
0.000108689
-0.00197947
-1.73092e-07
-3.53746e-07
-1.07066e-06
-5.70194e-07
-1.43061e-06
-3.04136e-07
1.01601e-06
-0.0028656
-1.35356e-07
0.00036928
-1.30673e-07
-1.89214e-05
-3.91697e-07
-0.000136484
-5.11838e-08
7.37522e-06
-1.16563e-07
-1.41986e-05
0.000184623
-0.00274119
-0.00169831
1.73388e-07
-2.71873e-06
9.54053e-09
-5.79337e-07
-1.08079e-06
-0.0685151
9.2158e-08
1.71128e-06
-2.09087e-07
-9.32045e-07
9.57186e-08
-1.4402e-08
1.96018e-07
-1.56271e-07
-0.00300808
-1.44224e-08
-7.12994e-07
6.45887e-08
2.54458e-07
6.9525e-08
-2.10041e-06
-1.04556e-07
-5.64093e-07
-7.73175e-08
-8.98338e-08
-0.00118338
-4.42085e-08
-5.13616e-06
-1.52633e-07
0.000417992
5.43136e-08
1.28112e-05
-1.83778e-07
-0.000471451
3.64997e-08
5.25223e-07
-1.76648e-07
0.00217231
-0.00149674
-4.01028e-06
-0.0336787
-0.00375098
4.08576e-07
-1.10962e-06
0.000199265
1.36638e-07
0.000133324
0.00041791
-1.81426e-06
0.00165998
-6.30429e-07
-0.000413182
9.23683e-07
0.00329365
0.000296268
-7.77199e-07
-2.2083e-07
-0.000795978
0.0246514
-1.67433e-07
-2.7188e-07
-1.13349e-07
-1.07351e-06
-5.46194e-07
4.66251e-08
4.69434e-08
-5.6729e-07
0.000362011
-2.00255e-06
4.74395e-07
-0.00201662
-1.75681e-07
1.30295e-07
-0.000664669
2.36316e-05
-3.70865e-07
-4.57988e-07
0.000360375
-2.77538e-07
2.3763e-07
-0.00311044
4.89893e-08
-6.67459e-07
-0.000199052
0.000160614
-4.63712e-07
0.000113499
-0.00388518
1.30182e-07
-0.00126784
-0.0625729
3.1985e-08
-0.00170704
2.82565e-08
-2.36993e-07
-1.76811e-07
-8.61957e-08
5.83901e-07
-0.00784909
-1.29261e-06
-0.00381463
-4.01625e-06
-1.31348e-06
-2.10467e-08
-5.51558e-07
9.86092e-06
9.22041e-08
-3.08253e-06
-3.37572e-06
2.68939e-07
7.94957e-06
2.295e-07
-2.42573e-06
-1.32315e-06
-8.5156e-08
-0.00133801
8.8915e-06
2.50783e-05
-5.57991e-08
-3.86127e-08
8.06564e-07
-6.70253e-06
0.0308915
1.88592e-05
-0.00229828
-2.7272e-06
0.000744324
2.98102e-07
2.02674e-07
4.20893e-07
-1.15663e-06
-0.00394074
-8.67894e-08
-3.7756e-08
2.76687e-06
-2.86257e-06
-0.0466095
-2.14677e-07
-0.00230883
-0.00189636
5.12183e-08
-5.19825e-07
-1.03609e-06
0.0429842
9.70377e-08
-1.51035e-06
-0.00146615
-5.94818e-06
-1.69565e-07
0.000370171
4.23347e-08
-1.25243e-09
-1.79579e-07
-0.0396102
5.26687e-08
-8.88031e-07
0.000176917
-4.2127e-07
-2.01517e-07
-2.41019e-06
-0.00137942
0.00192436
-0.00189247
3.21731e-07
-1.86987e-07
-5.43369e-07
1.09618e-05
6.66771e-08
-0.00452229
-0.00183127
-1.05151e-06
0.000404749
-8.70503e-06
-0.000328657
-1.8011e-07
-0.00168193
-1.74938e-07
0.000635229
1.59774e-06
4.53824e-08
0.000209309
-0.00107149
-2.05494e-07
-2.52593e-07
1.67909e-09
-0.0522242
0.000278061
-1.41504e-06
-1.31739e-06
0.000307521
9.25232e-05
-0.037916
-0.00156206
3.31452e-07
1.58688e-07
-0.00337551
0.00375771
-1.49369e-07
2.52762e-07
1.15236e-07
-3.93537e-08
2.37977e-08
-1.25568e-06
1.30329e-05
-1.69326e-08
9.13919e-07
0.00661847
-2.47415e-07
2.55884e-07
-2.83079e-07
-0.00181505
-3.06411e-07
-1.75693e-06
-0.000572692
-3.53281e-07
-2.64719e-08
-3.47899e-07
-1.72409e-07
-3.49934e-07
-0.000901455
0.00109337
-8.06523e-07
0.000206715
-1.79845e-08
0.000535425
2.17607e-08
9.94159e-07
-3.56846e-07
3.8934e-08
-0.00161556
-4.32155e-07
7.67845e-08
-1.30375e-06
2.11453e-07
-1.53359e-05
-9.15071e-07
-1.46831e-07
-4.94329e-06
-1.96808e-07
-6.76753e-08
-0.00805248
-1.52158e-07
0.0150686
2.66509e-06
-9.67271e-08
8.15732e-05
-1.18629e-06
-1.33947e-06
9.09029e-07
1.37312e-07
3.37397e-05
-1.1674e-07
8.85712e-08
0.00164195
0.00237578
1.58068e-07
-3.15035e-07
3.75622e-08
-3.88592e-07
1.64176e-06
-1.4612e-07
4.00814e-07
4.97395e-08
-9.83099e-07
-5.65906e-07
-1.22092e-08
-1.92377e-08
-8.48474e-08
-9.10495e-08
-6.21319e-05
-9.88278e-08
-2.60333e-10
-2.49495e-07
-3.64082e-06
0.00376182
0.00035084
-7.87431e-07
-2.50075e-07
-9.28467e-08
1.53441e-06
-9.24216e-08
-3.5034e-08
8.1366e-08
-0.00188014
-0.00119424
-5.3184e-08
6.48304e-08
1.07484e-06
-2.8624e-06
-1.44215e-07
0.00320599
-3.06541e-06
2.97515e-07
-4.16014e-07
1.15962e-05
-4.03806e-07
1.84466e-08
0.000549725
-4.00987e-07
-1.73818e-05
2.58286e-05
6.66888e-05
7.01719e-08
-8.18217e-08
1.9481e-08
4.61119e-08
0.00227022
-7.10676e-08
0.000211973
-1.0985e-06
1.89371e-08
-3.60166e-07
4.59936e-06
9.91901e-08
-3.16421e-07
-6.85545e-07
5.12377e-07
-0.00139681
4.84123e-08
-2.16767e-07
0.000315164
1.10784e-06
-4.72291e-07
5.44687e-06
-1.51644e-07
-4.61961e-07
-1.86613e-07
-1.649e-08
2.5378e-05
2.29361e-07
-0.00312796
-0.00541625
7.07472e-08
-1.06771e-07
7.46508e-08
-3.88178e-05
6.09113e-08
-2.98721e-07
-2.18376e-07
6.93617e-08
-9.25199e-07
-1.32132e-07
-1.21186e-06
-2.03139e-07
-1.212e-07
0.00123959
-0.00263515
-1.66286e-08
-9.26343e-08
2.27935e-08
-0.00102501
-3.93915e-05
-4.04135e-07
-0.00437686
0.0142621
-2.31164e-07
0.000176882
-0.0020695
-1.01896e-06
-0.000440573
2.28291e-06
4.21918e-05
-1.28166e-07
1.91167e-06
-6.70723e-06
-7.4177e-08
0.000487021
-0.0238547
2.22267e-07
-0.020333
-0.0158213
2.54571e-07
-0.00190804
7.79215e-08
-2.18405e-06
-4.12696e-06
3.48438e-08
-0.00148152
7.80277e-08
-1.62827e-07
-6.67814e-06
8.83991e-08
-0.00380429
1.4343e-07
-1.01416e-08
-2.06017e-06
-1.15251e-06
-0.0243288
0.00502806
-7.92901e-08
-1.32494e-06
-0.02699
-8.31466e-08
-1.11602e-06
-2.11042e-07
-0.00188072
-0.00155689
2.12994e-06
-3.57337e-07
-9.98335e-07
-0.0507786
-0.00893656
-1.45176e-06
9.66036e-08
-1.49012e-07
0.00357599
0.000375638
0.00105373
-5.1995e-07
-2.76951e-07
-1.59324e-06
-5.23253e-08
-1.63965e-08
2.36785e-07
4.31786e-08
2.1048e-08
8.15546e-08
0.00547014
2.55859e-06
-1.71793e-08
0.00392281
-1.14304e-07
3.47273e-06
-0.0415609
-8.97829e-07
0.0128749
-0.00714033
1.04917e-07
-4.90627e-07
2.31132e-06
0.00338436
0.00155405
-1.17783e-07
-2.48116e-06
-0.00194591
-3.88284e-06
-1.06023e-06
0.00171913
-0.00142713
-7.91977e-08
-1.36525e-06
-1.17493e-06
-2.39669e-07
1.38434e-06
1.04921e-07
1.27877e-07
-3.50684e-08
-1.06306e-07
2.55685e-07
-6.63555e-08
-3.53269e-07
-9.88984e-07
-0.0017408
1.22481e-07
-0.00165299
-2.26671e-07
-9.45464e-07
-4.62917e-07
-0.00449873
-0.00990333
-1.1356e-07
-4.38591e-06
4.73183e-08
7.29482e-08
-3.36683e-07
8.92018e-08
-1.01752e-07
-9.76665e-05
-4.62323e-07
-0.000415432
-9.45363e-07
-2.43336e-08
0.00591847
1.23077e-07
-3.67725e-07
1.01337e-08
-8.39191e-08
0.000138267
1.56402e-06
-0.00194786
-0.0197034
-0.00100882
-3.9942e-07
-2.85025e-07
-6.18797e-07
-1.23187e-06
3.08049e-06
1.27092e-06
0.011117
-1.50949e-07
-3.79434e-06
-5.53945e-07
-0.000616602
-0.0171747
-1.03767e-06
-0.0144051
-0.00960247
5.43764e-08
-3.65723e-06
-1.46331e-07
-3.27226e-08
1.06973e-06
2.84579e-06
-1.00489e-07
9.07188e-08
-0.0124651
0.00243718
-3.91928e-07
-8.09743e-07
-5.04035e-07
-0.00560961
1.27045e-06
-2.70298e-07
-0.00250052
-1.30264e-07
0.000382233
1.46888e-06
-4.94915e-07
-5.66868e-07
-3.31486e-07
0.000909549
4.07637e-08
-0.000233758
-1.09756e-06
-5.16712e-08
-8.7075e-08
7.51712e-05
-1.49806e-07
0.00787097
1.12521e-06
2.56014e-07
-9.82787e-07
-4.7095e-06
-9.10166e-07
-7.00046e-08
0.00195326
-2.83906e-07
-1.87996e-08
1.34267e-05
0.00178899
5.64634e-08
-7.29851e-08
1.15828e-06
0.00250247
-1.32111e-06
-1.86272e-08
-1.84859e-05
8.36467e-07
-0.00129788
3.1428e-05
-5.76122e-07
-3.47539e-08
-2.78601e-06
-6.7956e-08
-1.14749e-07
-4.12997e-08
2.24103e-06
0.00862259
1.07909e-05
-4.66902e-08
-3.00693e-07
-5.8715e-07
-0.0020969
-6.68139e-07
-2.35297e-07
-2.63874e-07
-2.76384e-07
-1.46799e-06
-0.00976599
-0.00310129
-9.07757e-08
6.47003e-06
9.24382e-08
6.83313e-08
-1.43338e-06
-5.70837e-07
-3.37065e-06
8.01823e-08
4.25692e-05
-0.00134752
-0.0272626
-1.20144e-06
-3.27911e-07
-4.20888e-07
-3.33245e-06
2.65023e-08
2.42502e-07
-1.20502e-06
-2.66e-07
1.06402e-08
-1.34733e-07
-2.52813e-07
-3.53063e-08
-0.0344217
-1.08779e-07
2.20774e-07
-1.1971e-06
9.98007e-06
-1.10546e-06
0.0051751
-2.41364e-07
-3.77536e-07
-2.1683e-07
-2.28803e-07
-1.2272e-07
3.66507e-08
-0.00355621
-4.35733e-05
-4.07285e-07
1.58835e-07
9.24614e-08
3.20641e-07
-2.82246e-07
2.84882e-06
-5.70051e-07
-0.042291
-4.10782e-07
-3.95797e-07
9.06818e-07
1.37755e-06
-1.04044e-07
-0.0204906
-1.23758e-07
-2.95242e-07
-4.23988e-08
-0.00487558
-1.05411e-06
9.09684e-05
0.00693416
-2.08397e-07
-9.17979e-08
-7.91337e-08
-1.73394e-07
7.17787e-06
-2.32253e-07
-1.58805e-06
0.00175979
-5.35522e-07
3.81857e-06
0.0118256
-1.20026e-06
8.84922e-05
-7.40908e-08
-1.20765e-06
-1.32486e-07
-7.60517e-08
1.09246e-07
-1.4165e-07
0.000854516
1.53175e-06
-1.28741e-07
0.0108907
-0.000379674
-4.94513e-08
-7.68969e-08
-4.62298e-08
-1.09369e-06
1.01735e-07
6.42231e-08
7.08346e-06
-1.78428e-07
3.76656e-09
-1.01475e-06
7.56624e-06
1.82937e-06
-3.6136e-07
-4.0585e-08
-3.47004e-07
-0.00173567
-9.93151e-05
-3.31544e-07
-8.72571e-07
-2.36257e-07
-2.02804e-07
-0.000788934
2.57442e-07
-2.49277e-06
2.16376e-05
-0.000911712
-2.10794e-07
-6.56777e-07
-2.71503e-10
-3.45499e-07
-7.37302e-07
-1.99659e-06
-1.54413e-06
-5.75107e-07
-5.16513e-07
-1.98511e-06
-0.00105737
-5.51782e-06
-7.52662e-08
-1.03819e-06
2.91683e-06
-1.12606e-06
-3.33963e-06
-4.46332e-07
-3.78863e-07
1.54019e-08
7.92448e-06
0.000858523
1.05272e-05
-4.32128e-08
2.62787e-05
1.77797e-07
-2.06628e-06
-2.4317e-07
-1.67612e-07
1.22974e-07
-6.53131e-07
2.64519e-06
-7.51792e-07
-8.75298e-07
-5.79134e-07
-3.91506e-08
-2.32502e-07
-0.0162912
2.33723e-07
-2.14594e-07
-4.28213e-07
0.00287568
0.00707777
-1.03823e-07
5.88732e-11
-1.10064e-07
0.00104908
-1.27173e-07
0.00803682
-2.42326e-07
5.98661e-07
-2.21814e-07
9.40843e-08
-5.63371e-06
-3.92828e-07
-2.43158e-06
-2.74373e-07
-3.89237e-07
-4.05858e-08
-5.56622e-07
0.000456909
1.41667e-07
-5.57407e-07
-0.00043102
3.31795e-08
-1.21569e-07
-5.49451e-07
-1.00716e-07
2.60804e-08
-3.81432e-07
-0.00369548
-1.23887e-07
-1.32967e-07
8.46681e-08
0.00214407
-1.33271e-06
-0.000865584
-2.03167e-07
-4.06894e-09
-0.000450555
-0.000587365
0.000215795
-9.94199e-07
1.55107e-07
0.00149518
-1.80879e-07
0.00556907
6.09639e-07
-3.247e-06
-1.31872e-07
8.58523e-05
0.00030461
-5.2549e-08
-9.44097e-07
6.59524e-07
-1.5512e-07
-2.61325e-07
0.000742377
-1.18909e-07
0.00102966
-4.57151e-07
-6.92702e-08
-3.84399e-07
-2.60559e-07
-3.58783e-07
-0.00013382
-6.93844e-08
4.59902e-08
8.27195e-08
3.07987e-08
-1.24329e-07
-6.20739e-05
-0.00131826
0.00257968
-1.64578e-07
3.49223e-07
-1.21125e-06
-9.19485e-10
7.67429e-08
2.94817e-06
-5.06392e-07
7.6188e-07
4.47625e-08
-6.155e-05
-9.05648e-07
5.75374e-05
-0.000902518
-5.13041e-07
-4.77523e-08
-1.66407e-08
2.13112e-06
0.00620367
7.93916e-07
-7.46818e-08
0.000138149
4.6696e-06
2.28131e-08
-0.0105761
1.66031e-07
-3.09689e-07
2.15567e-07
2.15306e-07
-3.78904e-07
0.00138015
-0.00229448
5.82721e-06
-3.80136e-07
0.00391987
-4.14344e-07
-4.7836e-08
1.0883e-07
-5.89811e-07
2.33149e-07
-1.45236e-05
-8.07067e-08
-3.32993e-07
-1.32567e-07
-1.21203e-07
-1.17286e-08
-2.19961e-09
-1.53841e-06
0.00137095
7.12599e-05
-3.61482e-08
-4.95602e-08
-1.65606e-08
-4.09168e-07
5.69766e-08
0.000114447
-5.83342e-07
-5.89163e-07
-5.1165e-07
0.000595854
-2.29336e-07
-8.57229e-07
-0.00811296
-1.61773e-07
8.70908e-08
-0.00826586
3.11465e-08
8.13185e-08
-3.57771e-07
-0.0170176
6.15663e-05
-3.37959e-06
-4.06838e-07
2.86399e-06
2.06957e-07
9.09684e-08
-8.25322e-08
1.90202e-08
-1.92929e-07
-3.58717e-07
-3.28092e-07
-3.30438e-07
-1.96349e-07
0.00163027
-2.24327e-06
-2.31344e-06
-1.94741e-07
-5.59168e-05
-7.49388e-07
-7.19627e-08
1.02579e-08
3.76705e-08
-4.78551e-07
7.17424e-08
0.00205795
-2.20701e-08
-3.86627e-06
-9.09664e-08
1.12756e-06
-0.00461954
-1.57824e-07
1.948e-05
2.93631e-06
1.35597e-07
-0.000507276
-3.5852e-08
-3.46605e-07
-1.94717e-07
-4.52698e-07
-1.05649e-07
-1.47363e-07
1.19016e-08
1.78028e-07
0.00174764
-2.83244e-07
-4.84547e-08
-4.18193e-07
-1.4239e-07
-1.40615e-07
-1.28986e-07
-3.80022e-08
8.88943e-09
-2.43835e-07
-1.3111e-09
2.24112e-07
2.90811e-09
-3.56728e-07
0.000430512
-2.95104e-07
-1.64109e-07
-8.47008e-05
0.00174722
-2.4656e-06
1.90332e-07
6.09042e-08
-3.93502e-07
1.09028e-07
6.54309e-07
-0.00592956
0.00192005
-1.56426e-07
-8.71531e-08
-0.00158644
-7.92647e-08
-0.000545308
-0.00134749
4.25269e-08
-0.0101812
-2.62232e-07
0.000380322
-9.4228e-07
0.000624589
0.000276593
-0.00193876
1.75588e-07
-3.86369e-08
-4.36109e-08
-9.3986e-07
-3.85683e-06
-1.40026e-07
2.58478e-05
-0.000482476
-3.90356e-07
-0.0101827
-8.02574e-05
1.89938e-06
-5.27956e-08
-6.83094e-07
-1.40223e-06
-1.37258e-07
-2.81322e-07
-5.68236e-07
-5.03452e-08
-3.67321e-07
2.89374e-07
-9.86557e-09
3.90538e-08
0.00280019
-5.07832e-08
1.05445e-07
-6.03246e-08
-0.0387064
1.08511e-08
2.90694e-07
-0.0324778
0.0014903
0.000271132
-1.69823e-07
-9.88382e-09
-1.64873e-07
-6.48725e-07
2.01623e-07
-4.00696e-07
0.000171679
5.14886e-07
-1.28259e-05
7.39887e-09
8.75258e-05
-2.27703e-07
4.00709e-06
-0.00111571
-0.000653686
-1.93864e-07
1.45822e-07
-4.00416e-08
-0.0074536
-1.06887e-07
-1.02508e-07
-2.66328e-07
-6.56405e-07
-8.07335e-05
0.000489259
3.76136e-07
-2.57754e-05
0.00106087
-3.27298e-06
-0.000197159
-1.44335e-05
0.000270844
-6.01586e-07
0.00180693
3.14173e-05
-7.45263e-08
-8.80413e-08
-1.00047e-07
0.000750832
-3.94142e-05
8.4804e-05
1.10868e-07
-6.64574e-08
-1.61253e-08
-0.0227493
-1.25971e-07
-9.77123e-08
-1.72913e-07
-3.00773e-06
-5.83551e-08
4.06421e-08
-1.81269e-08
5.0388e-07
1.71955e-05
3.81008e-07
-6.49742e-07
-8.08432e-08
0.00578839
-1.63101e-06
-6.72224e-07
-1.5401e-07
-0.000452601
-0.000652135
6.53304e-09
2.01946e-08
-0.0197399
-9.11551e-08
-2.39404e-07
-1.13286e-07
7.18096e-07
-2.25987e-05
2.52856e-07
-2.21124e-07
4.91215e-08
-3.40794e-08
-1.14835e-07
-7.56473e-08
-6.61154e-08
3.04659e-08
4.02971e-07
-0.00200232
1.20222e-07
9.63668e-08
-9.41667e-05
2.72343e-07
1.59318e-05
9.24863e-07
-1.02336e-07
-3.82179e-05
-3.15401e-07
2.8388e-06
5.3251e-09
-0.00353514
-9.64345e-08
-1.7295e-07
8.42657e-08
-0.00124067
2.74486e-07
-1.8197e-07
-1.09757e-05
-2.61925e-08
3.6565e-08
6.02957e-08
-3.994e-07
-2.21839e-06
-1.2998e-07
-0.00396223
-1.09093e-07
1.39567e-05
-2.00843e-06
4.34337e-07
-6.05849e-07
1.4016e-07
-6.99357e-08
-2.01481e-07
0.000461657
1.72926e-07
1.25922e-06
5.26065e-06
-6.46404e-05
-8.70252e-07
-0.000138633
4.6062e-08
-1.61454e-07
6.23242e-08
-0.0236865
-0.000641433
1.63468e-07
1.86608e-06
-1.54786e-07
-2.10612e-07
-0.0016742
-2.2158e-07
-1.64938e-08
-1.90014e-05
-2.76267e-05
-0.00770431
3.36788e-07
-2.17422e-07
-0.000167548
-1.12628e-07
2.99719e-07
4.76348e-07
-4.52849e-08
-0.000147604
5.90642e-06
0.00192764
-1.4556e-07
-6.28557e-08
9.97979e-08
-5.70975e-07
1.84652e-05
-5.33942e-07
1.61356e-07
3.4909e-07
6.68682e-09
2.62797e-05
3.79683e-07
-4.151e-08
2.9669e-08
-0.0107405
-9.14048e-08
5.14309e-07
9.71647e-05
0.000616137
3.31897e-08
-9.73373e-05
4.03197e-07
-8.98729e-09
4.14348e-07
-5.22425e-08
1.02447e-07
1.60533e-05
9.79452e-06
-3.68518e-08
4.31794e-07
5.54034e-07
4.11135e-09
-1.41318e-07
1.69006e-07
-2.81554e-07
-2.02156e-07
9.88008e-08
6.44329e-07
6.75468e-07
-0.00320446
2.45473e-07
7.53905e-07
-2.50767e-06
7.93797e-07
3.94758e-08
0.00123319
0.00388743
0.00129388
0.001146
1.08196e-06
-2.41778e-07
-3.68896e-08
0.00446987
-0.000563814
-0.000227427
0.000831753
0.00161139
-1.21295e-07
-0.00116347
-0.00740314
1.4495e-08
6.18223e-06
-3.30995e-07
-0.00787991
0.000831466
0.000170355
-7.06812e-08
-9.02086e-09
-1.18293e-06
1.90192e-07
4.76264e-07
0.000377233
-0.000100404
5.98938e-08
-1.77852e-07
-7.30161e-08
-6.55618e-05
-1.40035e-07
-1.05457e-07
-2.43124e-07
1.81261e-07
-2.33927e-07
5.20803e-05
-4.27541e-07
-5.31045e-08
4.8314e-07
-2.4152e-07
0.00185823
-0.00577533
-2.45965e-08
-6.72789e-08
-3.49966e-07
-6.1226e-09
-9.55971e-08
-1.47787e-08
-0.0048333
-1.98146e-09
-3.0237e-06
2.97127e-08
8.39345e-07
-1.44376e-08
2.81918e-08
-0.00222546
0.000852252
-2.43939e-08
1.10327e-06
-4.37031e-05
0.0018507
3.06504e-06
-0.00945373
3.47591e-07
1.26172e-08
-1.38791e-07
-1.07674e-08
-7.97337e-08
3.4115e-08
-8.38341e-08
-6.4836e-08
1.8776e-09
-0.000425538
1.58757e-07
-0.00088795
-0.00752666
-5.72269e-07
-1.88631e-06
-7.39441e-07
-1.71349e-07
3.42598e-08
-3.21186e-07
-2.81578e-07
-9.14519e-08
-0.000339943
6.95385e-08
-2.19568e-07
0.00135859
-1.4263e-07
8.92122e-08
1.20011e-07
-0.000274372
-2.28925e-07
-1.29508e-07
-0.00446219
-6.2778e-08
2.55557e-08
-1.0401e-07
-0.000193274
-8.90041e-08
-9.42836e-08
-1.50446e-07
2.35299e-07
0.00531543
4.97925e-05
-1.96457e-07
0.000110268
3.45341e-08
2.35019e-08
-1.08337e-06
0.000569919
0.00893659
-2.24193e-08
5.72762e-09
1.5457e-07
-9.67149e-08
-1.06244e-07
1.75256e-08
0.000144596
-0.000269063
1.60233e-07
-2.99769e-07
2.61754e-05
9.9314e-08
-6.84917e-08
1.66133e-07
-7.18947e-07
-0.00269592
1.5885e-07
5.671e-08
0.000752491
-2.00205e-07
2.74906e-07
-0.00851579
3.94485e-05
1.65387e-08
-1.59413e-07
-4.89285e-07
-4.93164e-08
-5.78056e-08
-0.000637297
-1.24529e-07
-0.000181536
-0.000445458
-4.19969e-07
1.07796e-07
-6.19516e-05
-3.19621e-06
0.000740851
0.00108715
0.00053102
4.63638e-07
-7.13507e-08
7.20682e-08
-4.89691e-06
-1.45291e-07
-6.66247e-06
-1.15732e-07
-3.50603e-08
5.00525e-09
6.9356e-08
-1.89346e-07
0.00871278
2.21002e-07
-0.0020454
0.00059859
2.40138e-06
-0.00350606
1.4387e-08
1.22434e-07
-8.65256e-07
-0.000324678
-5.04801e-08
-0.00508497
7.02532e-06
-2.98963e-08
-1.75276e-07
-0.00087223
-1.46992e-07
-2.49803e-05
0.00189655
-2.05333e-07
0.00174209
-2.72648e-07
-2.23781e-05
-3.05708e-06
-1.21806e-07
3.95221e-08
-2.297e-06
-1.34929e-05
-2.47691e-08
-9.39537e-07
4.03656e-09
2.06602e-06
-1.71987e-07
0.00204255
-4.09971e-08
-1.49173e-06
-6.9974e-05
1.38386e-08
0.001497
-7.81512e-08
-7.7428e-08
-7.18306e-08
0.002595
-1.67155e-07
-1.45992e-07
-0.00470643
7.33709e-07
-0.000104241
-8.23794e-07
5.48026e-09
-2.51922e-05
-0.00110121
-0.0013181
0.00426008
4.42372e-07
-2.82124e-07
7.44563e-08
2.77598e-09
1.69496e-07
-3.42882e-07
-2.00434e-07
-1.06702e-07
-1.09285e-06
1.54418e-07
-1.4266e-07
-3.65792e-08
1.09595e-08
9.6953e-09
-4.94671e-07
-2.7261e-05
0.000479159
-0.0102879
-2.09529e-05
0.0104782
-0.00122228
8.03664e-08
-1.76375e-07
-2.92835e-07
-2.93086e-06
-1.02246e-08
-7.9276e-07
-1.53235e-07
-9.48581e-08
-1.25312e-07
-7.53361e-07
2.8805e-07
1.68349e-05
-1.99378e-07
5.59814e-08
0.00342961
-9.93733e-07
-1.1129e-06
-6.01246e-08
-1.38899e-07
0.00308374
-0.000725405
-1.38119e-09
6.501e-08
1.57918e-05
-1.21524e-07
-8.06334e-08
-1.22342e-07
0.000116116
1.78945e-07
-1.47643e-07
-0.000391101
-7.84233e-08
-7.75622e-06
2.44803e-07
-1.94783e-07
-6.3621e-08
-0.00016256
5.64906e-05
0.000116749
-0.0079865
9.40724e-08
-3.8256e-08
-2.64255e-07
-4.63566e-07
-7.46193e-06
-9.74792e-08
-0.0020207
-0.00546772
2.0408e-08
-0.000137616
0.000180938
-7.63375e-08
-0.0020106
7.16606e-07
0.0116389
2.22943e-05
-1.48205e-07
-1.29295e-07
-3.93155e-07
-6.5257e-08
0.00011565
-0.00350248
9.97444e-06
5.26928e-08
-9.2213e-08
-1.36229e-07
0.000216782
-1.26038e-08
0.00193862
-1.17095e-07
-8.84265e-07
3.38332e-06
-8.74387e-08
-0.000217126
0.000105615
-1.807e-07
5.18829e-07
-5.25175e-09
-8.1052e-08
0.00236186
0.00527411
-1.56116e-07
-1.48999e-07
9.14581e-08
-2.75998e-05
2.63424e-08
-1.14914e-06
0.000545484
1.64519e-05
-0.00277369
0.000441243
0.0065551
-1.70984e-07
-2.08479e-06
-3.95166e-07
-1.24963e-07
-9.71327e-07
2.67788e-05
-5.4622e-08
-9.7362e-08
2.36649e-05
9.31e-08
2.05877e-07
0.0017216
-6.45878e-07
-2.11691e-07
9.39131e-06
-0.00254693
-5.21587e-08
5.95034e-08
-3.72411e-06
0.000650708
3.08919e-06
0.000397488
2.54095e-06
0.00852598
1.07297e-07
5.77473e-05
9.62265e-06
4.74979e-06
0.00158066
-1.32229e-06
-0.0015917
-1.19073e-05
-0.070598
5.36847e-08
-1.05458e-07
1.68241e-07
-8.9127e-08
2.74836e-05
-2.26619e-07
-3.24205e-06
-2.3558e-06
-3.94019e-07
3.26395e-07
-0.000147922
-2.45227e-07
0.000695485
-3.25287e-07
7.81713e-06
-4.99997e-05
2.652e-05
-0.00053407
2.29661e-09
-1.11444e-06
-3.41804e-08
-0.000820105
6.09079e-07
-3.89189e-05
0.000125663
-4.06211e-05
0.00757293
-1.41354e-07
-0.000373301
1.17621e-07
-2.77159e-05
1.00596e-08
-0.00059263
9.40005e-07
-4.39581e-08
-1.98341e-07
0.000313371
-2.04662e-08
-3.47566e-05
1.9662e-06
-9.23821e-07
1.74883e-06
-2.79856e-07
-3.2874e-08
0.00635966
-6.44718e-06
0.00268195
0.00039585
2.83191e-08
-0.000897466
-0.000803863