/*--------------------------------*- C++ -*----------------------------------*\
| =========                 |                                                 |
| \\      /  F ield         | OpenFOAM: The Open Source CFD Toolbox           |
|  \\    /   O peration     | Version:  v2012                                 |
|   \\  /    A nd           | Website:  www.openfoam.com                      |
|    \\/     M anipulation  |                                                 |
\*---------------------------------------------------------------------------*/
FoamFile
{
    version     2.0;
    format      ascii;
    class       volScalarField;
    location    "200";
    object      nut;
}
// * * * * * * * * * * * * * * * * * * * * * * * * * * * * * * * * * * * * * //

dimensions      [0 2 -1 0 0 0 0];


internalField   nonuniform List<scalar> 
9793
(
0.00175372
0.0213506
0.00133191
0.00671191
0.0254751
0.00515557
0.00690312
0.0067295
0.00679845
0.0313476
0.00116563
0.00165005
0.00672004
0.00692868
0.00699588
0.00688943
0.00729337
0.00756828
0.0092234
0.00692162
0.00326193
0.00361267
0.0069888
0.0067236
0.00685154
0.00673485
0.00695475
0.00694025
0.00154147
0.00679807
0.00304743
0.00529819
0.00923247
0.00695802
0.00149016
0.00341381
0.0069581
0.00356312
0.00676753
0.00682108
0.00318368
0.00700231
0.00684893
0.00691135
0.00685178
0.00676039
0.00140695
0.0108444
0.017812
0.0067083
0.00121086
0.00106042
0.00446616
0.00681508
0.0101765
0.00264238
0.00673837
0.0007067
0.00574312
0.00676397
0.0069389
0.00432558
0.00800386
0.00681196
0.0166349
0.00860008
0.00939386
0.0179356
0.00219408
0.00133993
0.00778845
0.00691593
0.00674625
0.0163957
0.00123952
0.0038316
0.00674171
0.00723314
0.00717506
0.00698734
0.00900711
0.00714753
0.0214759
0.00661795
0.00294957
0.0110922
0.00704794
0.00674668
0.00499268
0.00719857
0.0216182
0.0426974
0.00683855
0.00912126
0.00447025
0.00483863
0.00358454
0.0219336
0.00681238
0.00675332
0.00674685
0.00706383
0.00676973
0.00675639
0.0071652
0.00326415
0.00541717
0.00692397
0.00484709
0.00993925
0.00694009
0.00362825
0.00672884
0.00338487
0.00108227
0.00674219
0.0106498
0.00126583
0.00727627
0.00856471
0.0102419
0.00706578
0.00674417
0.00492203
0.00653818
0.00347659
0.00193472
0.011111
0.00730775
0.00673317
0.00699358
0.00674672
0.0067359
0.00705382
0.00679305
0.00675137
0.00684628
0.00689125
0.00672766
0.00670852
0.00674122
0.00686103
0.00675798
0.00677444
0.00697514
0.00733627
0.0142298
0.00677737
0.00679554
0.0426543
0.0351114
0.00698656
0.0357724
0.035818
0.00677916
0.0070486
0.00686289
0.00686728
0.00675816
0.00675219
0.00673507
0.00693992
0.00683258
0.00534514
0.0171347
0.00349876
0.0111027
0.00302514
0.00691543
0.00693122
0.00679369
0.0117843
0.0178512
0.00892295
0.0067825
0.00637125
0.00675093
0.00670023
0.00674607
0.00580263
0.020886
0.00649258
0.00676409
0.00685593
0.00109074
0.00674293
0.000823947
0.00674524
0.00674523
0.00683483
0.00678065
0.00671554
0.01956
0.00346648
0.0159272
0.00585828
0.00409582
0.00690409
0.036044
0.00672511
0.00679184
0.00345806
0.00428181
0.00673067
0.00675643
0.00702841
0.00356399
0.00681027
0.00310163
0.00590656
0.00287744
0.0169853
0.0191776
0.00681354
0.00655707
0.00685274
0.00695983
0.00238212
0.00697742
0.0114722
0.00142309
0.00674311
0.00650364
0.00671543
0.00944911
0.00393782
0.00510782
0.00676657
0.00146582
0.00141947
0.00673153
0.00671276
0.00617834
0.00676093
0.00162387
0.0120448
0.00672615
0.00677719
0.0033947
0.00702384
0.00342929
0.00687915
0.00677427
0.00944126
0.0067641
0.00679476
0.00672723
0.00687312
0.00681401
0.00693717
0.00682351
0.00576384
0.00119014
0.001878
0.00675519
0.00305044
0.00678763
0.00549584
0.00559691
0.00678187
0.0114884
0.00677006
0.00115821
0.00696446
0.00286044
0.00682061
0.00680165
0.00265823
0.00317692
0.00628
0.0067882
0.00673733
0.00219375
0.00674488
0.0207819
0.0207227
0.00673336
0.00360988
0.00673024
0.00190977
0.00687927
0.00674927
0.00696604
0.00680332
0.00155263
0.00674271
0.00682738
0.00351223
0.00676743
0.00675751
0.00672716
0.0088786
0.00602313
0.00698637
0.00700208
0.00704927
0.00578648
0.00344216
0.00671603
0.00701953
0.00677922
0.0174554
0.0132776
0.00694721
0.0069274
0.00678089
0.00211782
0.00333797
0.00688461
0.0174851
0.00678312
0.00677798
0.00306574
0.00639094
0.00683014
0.00709314
0.0101094
0.00680011
0.00237506
0.00574715
0.00676854
0.0174101
0.00600363
0.014796
0.00688423
0.0154094
0.00532881
0.00588964
0.00141804
0.00677851
0.00613724
0.0015288
0.00700444
0.00348671
0.00108933
0.00672259
0.0068386
0.00678475
0.00685628
0.00696155
0.00195388
0.00674822
0.00676037
0.00600315
0.00702718
0.00688045
0.00688759
0.0047514
0.00672552
0.00533267
0.00618007
0.00676869
0.00684196
0.00706587
0.0149164
0.00681474
0.00217476
0.00671173
0.00223939
0.0194237
0.000942097
0.00189916
0.00478453
0.00711156
0.00818995
0.00692217
0.0120372
0.00704534
0.00677352
0.0138524
0.00384124
0.0117579
0.00676887
0.00142372
0.00341462
0.00658909
0.00673526
0.00929271
0.00611094
0.014898
0.00300752
0.00681213
0.0101041
0.0067241
0.00492074
0.00698012
0.00686647
0.0069641
0.00681179
0.00334528
0.0146968
0.00672705
0.0365205
0.0140095
0.00754194
0.00160279
0.0114829
0.00682829
0.0067841
0.0273477
0.0139323
0.00689069
0.00659101
0.00319349
0.00673942
0.00324738
0.00678318
0.00324318
0.00673131
0.00217906
0.00674756
0.00601678
0.00369222
0.00681151
0.00324905
0.00699791
0.00581117
0.00694845
0.0069869
0.00630537
0.00736317
0.0029272
0.00672699
0.0068301
0.000973845
0.00680724
0.00546133
0.00547289
0.00681845
0.0056716
0.00676054
0.00683372
0.0067193
0.0109812
0.00714961
0.0109584
0.00693189
0.0218993
0.00692886
0.00696821
0.00696754
0.00679749
0.00200648
0.00690082
0.0197047
0.00685306
0.00679603
0.00497609
0.00307368
0.00288955
0.0132592
0.0187444
0.0044557
0.00671986
0.00210227
0.0048681
0.00230299
0.0215459
0.0256845
0.00677304
0.0070005
0.00147065
0.00674843
0.0071934
0.00674523
0.00677187
0.006956
0.00331826
0.00599679
0.00599948
0.00678671
0.00213619
0.0066952
0.00693679
0.00698672
0.00714844
0.00236024
0.00696068
0.00696606
0.00674322
0.00675468
0.00501371
0.0103021
0.00678279
0.0067193
0.011014
0.0040566
0.00613437
0.00511451
0.021017
0.00698102
0.00696214
0.00456889
0.00496449
0.00683538
0.00687077
0.00683146
0.00693302
0.00679291
0.00676034
0.0123107
0.00111117
0.00686533
0.00206631
0.00162732
0.00677508
0.00600846
0.00718604
0.00365279
0.00688199
0.0090013
0.00679019
0.00677222
0.00131116
0.00674206
0.00393803
0.0151273
0.00226463
0.0067715
0.0385696
0.00459246
0.00673083
0.00680057
0.0010379
0.00676591
0.00672606
0.00671532
0.00676025
0.00890392
0.00154618
0.00191224
0.00540581
0.00680124
0.0067838
0.00680148
0.00691921
0.00671893
0.00312079
0.00099566
0.00674597
0.00711937
0.0348597
0.00681246
0.00908774
0.00218826
0.00691019
0.000931601
0.00704882
0.00674517
0.000806435
0.00675588
0.00341566
0.00384152
0.0134462
0.00673818
0.00676843
0.00727598
0.0224515
0.00711523
0.00480976
0.0101423
0.0245823
0.00288727
0.0140156
0.00216487
0.00700223
0.00556124
0.00710914
0.0105052
0.00682128
0.0231357
0.00672502
0.0107803
0.00692691
0.00655168
0.00677618
0.000887361
0.006736
0.00685996
0.00648701
0.00525959
0.00590268
0.00674825
0.00673329
0.0068027
0.00679347
0.0118058
0.00670736
0.0253832
0.0031793
0.00670807
0.00691332
0.0019522
0.00673829
0.00674124
0.00682349
0.00649332
0.00422479
0.0053468
0.00467446
0.00671036
0.00726272
0.0050044
0.00485013
0.00682925
0.00445324
0.0212524
0.00679423
0.00289505
0.00620564
0.00690671
0.00673528
0.0067268
0.00722512
0.00726453
0.00676493
0.00711495
0.00668951
0.00679091
0.00710986
0.00671223
0.00317237
0.00669017
0.0065791
0.00697835
0.00680843
0.00341243
0.00610748
0.00543034
0.00695644
0.00674297
0.00673575
0.0067154
0.0067735
0.00691374
0.00678975
0.00675452
0.00679494
0.00673401
0.00236782
0.00683834
0.00695617
0.00674603
0.0229805
0.0067103
0.00673255
0.00115261
0.00673978
0.00683585
0.000772439
0.00684898
0.00690281
0.00699465
0.000661521
0.00672844
0.00129368
0.025003
0.016743
0.00898508
0.00682999
0.00675097
0.025273
0.00745116
0.00672565
0.012273
0.0219096
0.0382571
0.00673806
0.000957965
0.00675107
0.00674373
0.00347957
0.00671274
0.00611362
0.00759141
0.00108075
0.00673888
0.00407448
0.00539563
0.000780867
0.0147511
0.00678981
0.00748314
0.00601588
0.00674802
0.00494122
0.00133181
0.0161647
0.00673399
0.00972662
0.00745711
0.0167482
0.00872321
0.00972285
0.0174258
0.00700756
0.00278691
0.019093
0.00671149
0.00671219
0.00695739
0.00711392
0.00672661
0.00106382
0.00671938
0.0253776
0.00624993
0.0118074
0.00118594
0.00680628
0.00461253
0.00595696
0.00672398
0.0121593
0.00293576
0.000785404
0.00672756
0.00673235
0.00992327
0.00681705
0.0149529
0.00673042
0.0185067
0.00676093
0.010675
0.00982885
0.00700863
0.0410999
0.00673924
0.00646019
0.00278751
0.00323422
0.00305778
0.00678067
0.00677717
0.00674272
0.0157166
0.00465539
0.00689306
0.00351228
0.00988176
0.00673501
0.00671798
0.00706979
0.00611728
0.00495458
0.00683682
0.00684855
0.00674742
0.00909388
0.0331995
0.00777944
0.00671983
0.0067119
0.0240942
0.00671258
0.0110822
0.00171461
0.0253425
0.00965785
0.0171901
0.00674179
0.00680348
0.00648047
0.00641336
0.00499496
0.00671349
0.000954722
0.02459
0.00674953
0.00574371
0.00674482
0.00678142
0.00680122
0.00963843
0.00278698
0.00750412
0.00674538
0.00746871
0.00569242
0.020586
0.0181622
0.00683272
0.00196632
0.00713288
0.00388847
0.0043431
0.0136237
0.0069273
0.000819775
0.0067352
0.00597141
0.00678074
0.00669409
0.00695222
0.00671415
0.0389306
0.00671255
0.00436988
0.00696693
0.00702355
0.00672692
0.0014533
0.00695439
0.00605327
0.00674744
0.00671965
0.0215524
0.00670974
0.00338384
0.00676115
0.00812815
0.00684226
0.00625495
0.00690497
0.00059118
0.00684557
0.00682745
0.0067082
0.0217164
0.020557
0.00619259
0.0258142
0.0258082
0.00681417
0.00649726
0.0220396
0.00676081
0.0101999
0.0106491
0.00146098
0.00227053
0.00449475
0.0229459
0.00460728
0.0127303
0.02214
0.00448952
0.00682115
0.0225762
0.0086704
0.00686803
0.00325476
0.00671296
0.00698871
0.00273224
0.00691865
0.00677356
0.00650308
0.0102105
0.00334158
0.00437447
0.0164873
0.00670952
0.00678906
0.0103716
0.00302775
0.00268966
0.00681534
0.00649348
0.00676455
0.00675838
0.0109465
0.00673545
0.00442072
0.0232803
0.0231912
0.00704859
0.00686287
0.0150661
0.00316591
0.023611
0.0183963
0.00686961
0.0206701
0.00683595
0.00673197
0.0067784
0.00692996
0.00719077
0.0402127
0.00724015
0.0107193
0.00690534
0.00161976
0.00643669
0.00244741
0.00814376
0.00698516
0.00161573
0.00704833
0.00676891
0.00134447
0.0078405
0.00332404
0.00705827
0.00675429
0.0209721
0.00322063
0.00878487
0.00669477
0.00668353
0.00698391
0.00712283
0.0098366
0.00127691
0.0234335
0.00230397
0.0109433
0.00681587
0.00231559
0.00320849
0.00640824
0.000176638
0.00674657
0.00674924
0.00329029
0.00215623
0.0258577
0.00673425
0.0171478
0.0131293
0.00688167
0.00199328
0.00651858
0.0128892
0.00682567
0.00624316
0.0135938
0.00728712
0.00673682
0.00704009
0.00684664
0.0067128
0.00673412
0.0205151
0.00684573
0.00620956
0.0064467
0.00233782
0.00260775
0.00186534
0.0044593
0.0106839
0.00693706
0.00677205
0.00681854
0.0064323
0.00812925
0.00687289
0.0245907
0.01603
0.00630811
0.00431914
0.0103271
0.00883789
0.00682016
0.0181796
0.00673237
0.0232421
0.000873726
0.00672354
0.0034254
0.025608
0.00670651
0.00679554
0.00679426
0.0102264
0.00595072
0.0024286
0.001708
0.0061359
0.00621774
0.0292587
0.0107653
0.0069903
0.0067241
0.0415617
0.00907761
0.00673108
0.00680423
0.00678847
0.00682085
0.00684474
0.00628824
0.00311523
0.00678435
0.00462626
0.010814
0.00680045
0.00701581
0.00280519
0.0251146
0.00680968
0.00724326
0.0109387
0.00659241
0.00676116
0.00622866
0.00673067
0.00453698
0.00941097
0.00893022
0.00683067
0.0117633
0.00501877
0.00835317
0.00672879
0.00724068
0.00485726
0.00684049
0.019809
0.0071007
0.00693312
0.00243584
0.00684619
0.00715594
0.00623399
0.00672752
0.00102765
0.00681448
0.00671014
0.0153017
0.00673821
0.0180116
0.00380766
0.00673299
0.00602859
0.00723355
0.00520327
0.00150764
0.00672426
0.00684675
0.00673122
0.00672575
0.00364221
0.0053272
0.00673039
0.0068041
0.00673082
0.00680126
0.00071849
0.00495541
0.00682059
0.00692024
0.00698316
0.0067188
0.00679205
0.00677504
0.00671788
0.00671252
0.0107212
0.00295812
0.0067233
0.00205381
0.00718522
0.00912546
0.00850253
0.0032501
0.00679841
0.00673029
0.000848789
0.00340266
0.00679182
0.00684986
0.0113349
0.000915302
0.00673025
0.00669938
0.000904882
0.00146143
0.00673465
0.0127391
0.00208368
0.00684191
0.00644709
0.0079701
0.0068113
0.00216584
0.00829124
0.00699587
0.00388359
0.00794623
0.0063066
0.00670465
0.0067515
0.00669193
0.00669468
0.00221681
0.00674175
0.00237598
0.00171536
0.00669017
0.00638346
0.00409783
0.00701584
0.00680139
0.00671721
0.00534005
0.0158232
0.00669677
0.00678845
0.010272
0.0068652
0.00680422
0.00741289
0.0067411
0.00680372
0.00673148
0.00677348
0.00877812
0.00702467
0.00285774
0.0116052
0.00670597
0.00673924
0.00670138
0.00103086
0.00671791
0.00282362
0.00674328
0.00673516
0.00651584
0.00673199
0.0057114
0.00674808
0.00673804
0.0118964
0.0191665
0.00677713
0.00675533
0.00671546
0.0228122
0.00179892
0.00671634
0.00497763
0.0192521
0.0069721
0.00521734
0.0133136
0.00357543
0.00932398
0.00263648
0.00622324
0.00672885
0.00267911
0.0011547
0.00673971
0.0128157
0.0346986
0.00672291
0.0347515
0.034832
0.00707073
0.0104591
0.00671526
0.00588998
0.00148798
0.00671882
0.0205317
0.00672299
0.00205627
0.00166363
0.0067095
0.00963248
0.00684411
0.00679849
0.00474242
0.00646139
0.00462987
0.0416938
0.00676993
0.0062998
0.0345271
0.00672354
0.00633725
0.00672909
0.0108413
0.0204602
0.00720927
0.00696335
0.00631382
0.0245711
0.0406337
0.00577321
0.00671137
0.00672744
0.0423216
0.00210385
0.0207798
0.00389424
0.00365969
0.00611955
0.00674413
0.00689504
0.00696719
0.00366906
0.00677607
0.00699713
0.0156361
0.00292224
0.00671947
0.00122375
0.00298303
0.00296264
0.0266666
0.00174492
0.0227709
0.00193053
0.00671647
0.000645952
0.000622958
0.0153685
0.0132433
0.00677667
0.000759935
0.018805
0.00149974
0.00272489
0.0120615
0.0109675
0.00672874
0.00621367
0.00636202
0.00672476
0.000846367
0.00675008
0.00705504
0.00671652
0.00673121
0.00684971
0.00676507
0.00392768
0.00623539
0.0247989
0.00423832
0.020273
0.00673184
0.0061183
0.00680681
0.0431043
0.0186403
0.00672703
0.00144734
0.00703065
0.00671392
0.00672034
0.0067248
0.00674067
0.000586797
0.00680683
0.0173086
0.00705499
0.00671366
0.0160554
0.00685816
0.00648095
0.00671421
0.00678363
0.00141996
0.00086634
0.015307
0.00401875
0.0260265
0.00680045
0.00678881
0.00696883
0.00639251
0.00261391
0.000857324
0.0388995
0.00672941
0.00144304
0.00633725
0.0162677
0.0371324
0.00633768
0.0369
0.0382712
0.00695135
0.00157048
0.00677185
0.00159367
0.00575387
0.000796345
0.00180214
0.00672485
0.0366269
0.0118064
0.00680431
0.00587683
0.00677162
0.00397371
0.00720088
0.0067969
0.0154771
0.0067247
0.00399053
0.00384794
0.00685157
0.00634196
0.00678595
0.0124604
0.00672529
0.0107555
0.00636628
0.00676106
0.00672512
0.00311108
0.00423966
0.0414088
0.00640973
0.00690817
0.00283804
0.00114934
0.00657281
0.00678597
0.0130312
0.00679471
0.00671747
0.0086418
0.0120156
0.00693234
0.00672059
0.00686958
0.00355523
0.00170154
0.00671261
0.00754801
0.00698759
0.00202126
0.00784617
0.00676392
0.00672758
0.000836202
0.0067253
0.00671957
0.00672787
0.000785028
0.0408116
0.00676835
0.00687085
0.00678311
0.00645728
0.0139813
0.00416381
0.00697364
0.00679151
0.00673064
0.00343172
0.0368474
0.0356181
0.00672932
0.00092527
0.00671785
0.00671899
0.00711003
0.00674044
0.00158533
0.00672613
0.00747632
0.0124162
0.0308072
0.00639363
0.00679613
0.00680387
0.00170751
0.00671363
0.00679568
0.00175089
0.0068122
0.00674649
0.00492288
0.00336733
0.0067277
0.029642
0.0018794
0.00703368
0.00648953
0.00698485
0.00654264
0.0376016
0.00673849
0.00672955
0.00679043
0.00673303
0.00678701
0.00677657
0.00724683
0.000971519
0.00680671
0.00681301
0.00678675
0.00706715
0.00368933
0.00176814
0.00646067
0.0282271
0.00672758
0.0063861
0.0071491
0.000957523
0.00678068
0.0371681
0.00676619
0.00681303
0.00668454
0.042041
0.00626132
0.00870694
0.0420384
0.00575569
0.00678249
0.00672991
0.00674304
0.00696771
0.00680703
0.00623433
0.00328122
0.00680532
0.00202856
0.0135212
0.00622065
0.000988481
0.00683685
0.00648405
0.00673956
0.00673293
0.00672003
0.00673293
0.014189
0.00109815
0.00672764
0.0137038
0.00190246
0.00672045
0.00236992
0.00672799
0.00170095
0.00683155
0.00671857
0.00196749
0.00681777
0.00693167
0.00313921
0.00180679
0.000833934
0.00584618
0.00672709
0.00429235
0.0409064
0.00586291
0.00220721
0.00606643
0.00678951
0.00674748
0.0130062
0.00685652
0.00376764
0.00669436
0.0157826
0.00680966
0.00270745
0.00683575
0.00656318
0.00183893
0.00542833
0.00191389
0.00658909
0.00676879
0.00602778
0.010571
0.00287343
0.00672503
0.00626375
0.000694692
0.00573121
0.00147295
0.00680533
0.00680088
0.00672831
0.00815791
0.0234555
0.00193996
0.00682286
0.00187902
0.00705906
0.00568111
0.00679309
0.00673132
0.00672436
0.00681881
0.00178305
0.0072819
0.00581253
0.00640586
0.00676606
0.00680044
0.00406691
0.00672557
0.00674065
0.00679247
0.00985398
0.0102996
0.00678298
0.00678156
0.00676795
0.0104615
0.00526518
0.014594
0.00680696
0.00182845
0.00679136
0.00685558
0.00289061
0.00680483
0.00366907
0.00679486
0.00674471
0.00673393
0.00401791
0.00101791
0.00683735
0.00666566
0.0207332
0.00684896
0.0045456
0.00656772
0.00683783
0.00679733
0.00596211
0.00401882
0.00672204
0.00672491
0.00671098
0.0105265
0.00451926
0.0168701
0.00681501
0.00683256
0.0165972
0.0100922
0.0166532
0.00614634
0.00213051
0.0184808
0.00682095
0.0167278
0.00651468
0.000669616
0.00673589
0.00869003
0.00126703
0.00668662
0.00346219
0.00780154
0.00455888
0.00679858
0.0095594
0.00672361
0.0175285
0.00680088
0.00673692
0.00677128
0.00679377
0.00662151
0.00147564
0.00675857
0.00671634
0.00672381
0.00685317
0.00673496
0.00596315
0.0287518
0.0123039
0.00682456
0.00690924
0.00642191
0.00677493
0.00675356
0.000636593
0.00204877
0.00543393
0.00671765
0.00611069
0.00477332
0.0061616
0.00866077
0.00384356
0.00672298
0.00671548
0.00595115
0.0104864
0.0068486
0.00673206
0.00139468
0.00084157
0.00165229
0.0235603
0.0067493
0.00685145
0.00685578
0.00674443
0.00679049
0.00970584
0.0179763
0.00339505
0.00673034
0.0185383
0.00679913
0.00683245
0.0069534
0.00670007
0.00698226
0.00396687
0.00673842
0.00676032
0.00677877
0.00672187
0.00672469
0.0067741
0.00308937
0.0107902
0.00802246
0.0066807
0.0067209
0.00671539
0.00677717
0.00676034
0.00856765
0.00651374
0.00643791
0.00675824
0.016927
0.00672785
0.00366622
0.0168205
0.00672488
0.00674552
0.0348517
0.00678888
0.00672659
0.00671611
0.0368808
0.00905181
0.00149032
0.00679253
0.00346161
0.00688085
0.00671255
0.00672319
0.0067455
0.00260572
0.00672719
0.00679563
0.00172925
0.00677035
0.0107395
0.00720893
0.00260873
0.00679115
0.00606701
0.00335153
0.00681973
0.00671323
0.00682414
0.00680366
0.00676048
0.010729
0.00670738
0.0027071
0.0067282
0.00686243
0.0408315
0.00673139
0.00316082
0.000758986
0.0067551
0.00152191
0.00672841
0.00679273
0.00672508
0.00679059
0.00671855
0.00676717
0.00678567
0.00682204
0.00513553
0.00680905
0.00670714
0.0067793
0.0067223
0.00672664
0.0067299
0.00673561
0.00671251
0.00671556
0.00677006
0.00672293
0.00674182
0.00608541
0.00311423
0.00691823
0.0068123
0.000570961
0.012776
0.00681013
0.00692376
0.00671739
0.00704654
0.00675089
0.00684717
0.016075
0.0131393
0.00671222
0.00391854
0.0190652
0.00683759
0.00543241
0.00487278
0.0067464
0.0202874
0.00679349
0.00137593
0.00301766
0.00957611
0.00295793
0.0156087
0.00671568
0.00672639
0.00681301
0.00273332
0.00185957
0.00422095
0.00389384
0.0157111
0.00673385
0.040879
0.00132022
0.00817486
0.00671372
0.00177899
0.00173866
0.00677203
0.0067296
0.00693492
0.00354933
0.00309461
0.00452525
0.00270806
0.0040356
0.00809726
0.00674595
0.0067888
0.00672373
0.00369578
0.00598693
0.00648795
0.0195954
0.00694328
0.00658374
0.00673661
0.00700012
0.00673592
0.00291781
0.00672325
0.00555931
0.00209209
0.00339233
0.00200544
0.00673207
0.016509
0.00266525
0.000764749
0.0202857
0.0225563
0.00673201
0.00672513
0.00672714
0.00580105
0.00673896
0.00670696
0.00673408
0.00185384
0.00324793
0.0188871
0.00702809
0.00508267
0.00827786
0.00157608
0.0166236
0.00406359
0.00231798
0.00231933
0.0112292
0.0191086
0.00671174
0.00671184
0.00673967
0.0049128
0.00396402
0.00190642
0.00690089
0.00674276
0.00679162
0.00292314
0.00672607
0.00678293
0.00673024
0.00165657
0.00672468
0.00672648
0.00672832
0.00292458
0.00258021
0.00230099
0.00328308
0.00678641
0.0322598
0.00541352
0.00682605
0.0067169
0.00558314
0.0110685
0.00684177
0.00684824
0.0330034
0.00677528
0.00672673
0.00673111
0.00683953
0.0018355
0.00671423
0.00681743
0.00672455
0.00683331
0.00677522
0.00673644
0.00670956
0.00676323
0.00681988
0.0113793
0.00671772
0.00671086
0.000557731
0.00183308
0.0024579
0.000879811
0.00672422
0.00738518
0.00671484
0.00563201
0.0067236
0.0105622
0.00676859
0.00672311
0.00670854
0.00896823
0.00444887
0.00673244
0.00232615
0.00677884
0.00671322
0.00678521
0.00681851
0.00462518
0.00673623
0.00942935
0.0067813
0.0082329
0.0026151
0.00682394
0.00300169
0.00670965
0.00674053
0.00672434
0.00384938
0.00700692
0.00594674
0.00306268
0.00148341
0.00611306
0.00156956
0.00518715
0.006773
0.0067096
0.0338497
0.00730684
0.00671154
0.0027345
0.00677254
0.00673296
0.0149192
0.00674987
0.00677818
0.00754878
0.00287264
0.0155604
0.00680725
0.00672693
0.0040959
0.00672836
0.00683816
0.00240367
0.00678327
0.00460354
0.00263027
0.00392415
0.00673733
0.00489043
0.00672291
0.00679964
0.00794148
0.00680203
0.00672411
0.00225678
0.00672264
0.00465266
0.00682179
0.00452516
0.00706764
0.0193815
0.00389091
0.00686049
0.00118907
0.0219865
0.00679276
0.00578501
0.00685854
0.0067771
0.00682024
0.00674581
0.0070496
0.00833615
0.00427518
0.00677502
0.00702526
0.0068611
0.00669447
0.00674119
0.00680758
0.00565204
0.00670642
0.00679144
0.00685892
0.00684356
0.00421182
0.00672165
0.00680792
0.00142636
0.00632841
0.00670983
0.0115148
0.00898434
0.00270118
0.00268427
0.000917801
0.00675304
0.00525226
0.0122367
0.0196436
0.0104197
0.0115662
0.0123977
0.00678516
0.0224727
0.0103093
0.00684264
0.00382839
0.00598213
0.0224026
0.00599592
0.0034789
0.00561691
0.00675635
0.00164349
0.0068021
0.00682463
0.0145439
0.00149378
0.00675386
0.00674302
0.00678758
0.00308917
0.00676263
0.00675095
0.00672557
0.00671611
0.00672758
0.00297198
0.00677692
0.00672188
0.00682941
0.00224036
0.00693925
0.0258437
0.00678556
0.00676799
0.00399229
0.00677117
0.00672496
0.00671144
0.0372828
0.00678071
0.00180042
0.0067215
0.00684355
0.00671724
0.00679475
0.00743531
0.00497135
0.00671175
0.00687046
0.0192838
0.00367961
0.00521227
0.0184519
0.00680956
0.00229331
0.00672971
0.00669434
0.00675607
0.0067181
0.00672762
0.00673554
0.00684082
0.00566076
0.00674647
0.0122938
0.0244724
0.00679881
0.00605644
0.00175373
0.00604256
0.00672553
0.00671432
0.00691961
0.00677063
0.0221746
0.00671647
0.00678429
0.00606579
0.00673232
0.0067462
0.0067138
0.000437743
0.00673853
0.00673332
0.0272697
0.00671976
0.00671268
0.00675606
0.00278104
0.00673934
0.00669357
0.00672853
0.00675665
0.0135077
0.00844628
0.00673372
0.0107368
0.00670463
0.00676462
0.00703843
0.0111184
0.0143006
0.0067034
0.006075
0.00674984
0.0067401
0.00676199
0.00672463
0.0158553
0.0212555
0.00679971
0.0061535
0.00810701
0.00670944
0.00674532
0.00689383
0.00214905
0.0269756
0.00680176
0.00317913
0.0155821
0.00673595
0.00706639
0.0100578
0.00298404
0.00686477
0.00673322
0.00697856
0.00677526
0.00672253
0.0166577
0.00674142
0.0158427
0.0124091
0.00649714
0.00703733
0.0189458
0.00728716
0.00563219
0.00959929
0.00802991
0.00288575
0.00672923
0.00687868
0.0190618
0.00670687
0.00566281
0.00672862
0.00671621
0.00668906
0.0067039
0.00673344
0.0117869
0.00685559
0.0149589
0.0109654
0.000864168
0.0130474
0.00669876
0.00672463
0.0058824
0.0125405
0.00672463
0.0185876
0.00806535
0.00670944
0.00672242
0.017607
0.00673012
0.00714633
0.013217
0.00672794
0.0200821
0.0064478
0.00401011
0.00215059
0.0067353
0.00671514
0.00294686
0.0019286
0.0067889
0.00503335
0.00669323
0.0072287
0.00672542
0.010981
0.00674483
0.00682918
0.00133723
0.00670851
0.0189165
0.00673717
0.00671399
0.00678604
0.0138254
0.00674196
0.00672804
0.0211465
0.00220414
0.012846
0.00682396
0.00671288
0.00394527
0.0200525
0.0190853
0.000316341
0.00282988
0.00323082
0.00685102
0.00674263
0.00607192
0.00680734
0.00678251
0.00671123
0.0062351
0.00699796
0.00672585
0.00668043
0.00684492
0.00671243
0.0069282
0.00557954
0.00535489
0.01662
0.00724874
0.00843534
0.0167992
0.00672681
0.006723
0.005685
0.00174179
0.00676268
0.00681828
0.00672044
0.00675201
0.00673112
0.00128127
0.00679771
0.00621397
0.00672578
0.00676262
0.0151048
0.00167674
0.00684367
0.00675625
0.0067275
0.0221128
0.0128745
0.00683733
0.00671587
0.00837557
0.00672608
0.0067331
0.00673052
0.000896598
0.00671194
0.00672288
0.00327541
0.00671554
0.00114795
0.00706222
0.00673753
0.00676126
0.0186914
0.00598289
0.0237683
0.0206486
0.00707034
0.00688012
0.00679689
0.00671964
0.00733325
0.00674439
0.0207894
0.0148416
0.00421594
0.0029389
0.0160638
0.00675013
0.00956196
0.00704464
0.036853
0.00863456
0.0067255
0.00673336
0.00680269
0.00672543
0.00543458
0.0216258
0.00618519
0.00678096
0.00675716
0.00671958
0.0053689
0.00702638
0.0184782
0.00672151
0.00686594
0.00629814
0.00676497
0.0103834
0.00587234
0.00673033
0.00682995
0.00669065
0.00679484
0.0152071
0.00438504
0.00672319
0.00674631
0.00673242
0.0186634
0.00672229
0.00645686
0.000845794
0.0029194
0.0386774
0.00453907
0.0106243
0.00672384
0.00429074
0.00680152
0.00675701
0.0065184
0.00848398
0.0067127
0.00676888
0.00620597
0.00679836
0.00684803
0.0219812
0.00680729
0.00677926
0.00626295
0.00417398
0.0067258
0.00670921
0.00141525
0.00915002
0.00269807
0.00111506
0.00746787
0.0208086
0.00670945
0.00454681
0.00481725
0.00268281
0.0152162
0.00794203
0.0276683
0.00876112
0.0143354
0.0067162
0.00670833
0.00674589
0.00678191
0.00851989
0.00671887
0.00139309
0.00686619
0.00700497
0.00681526
0.0254571
0.00671601
0.0103314
0.00554946
0.00755059
0.00358708
0.00453029
0.00965346
0.00668299
0.0016688
0.00676877
0.00885469
0.00683346
0.00193618
0.00234083
0.00358814
0.0115959
0.00672186
0.0117109
0.00707349
0.00478611
0.00677884
0.0200868
0.00685263
0.00671863
0.00672518
0.0138049
0.00682893
0.00696404
0.00655974
0.00553879
0.00305524
0.00670636
0.00671761
0.0156658
0.00275569
0.0199248
0.00380829
0.00676007
0.0102628
0.0255062
0.0014456
0.00672553
0.00642634
0.0143643
0.00672298
0.00755797
0.0066902
0.0168844
0.021828
0.0219497
0.00636999
0.00671833
0.0067184
0.0068076
0.00670306
0.00755829
0.00703464
0.00658822
0.00674856
0.00355656
0.00706966
0.00686676
0.00760123
0.0205849
0.00936789
0.00803557
0.00794339
0.00788865
0.00879403
0.00673001
0.0130899
0.00671533
0.00246648
0.0333581
0.00700083
0.0114644
0.00670934
0.00679034
0.00673973
0.00671766
0.00672855
0.00675415
0.00668599
0.00628087
0.00706761
0.00672981
0.00746584
0.00673924
0.00689163
0.00671784
0.0208766
0.00690865
0.00395333
0.0065281
0.00686583
0.00670651
0.00668879
0.0250216
0.00677766
0.0121929
0.0342277
0.00689343
0.0068113
0.00417867
0.00111996
0.00636892
0.00673413
0.00671434
0.00696886
0.00378736
0.00655663
0.00645093
0.00669004
0.00743586
0.00679304
0.00706408
0.00553054
0.00677486
0.00239593
0.00671194
0.0159247
0.00677092
0.00671738
0.00672089
0.00675592
0.00675
0.00671227
0.00673416
0.00671567
0.00711391
0.00631252
0.00684881
0.00699727
0.00653724
0.00629404
0.00671814
0.00671492
0.00390386
0.00572298
0.00746525
0.00671185
0.0069982
0.00670892
0.00671338
0.0151491
0.00673085
0.00670946
0.00262327
0.00561264
0.000253894
0.00672539
0.00256787
0.00682476
0.00136105
0.00193275
0.0068382
0.00472748
0.00671714
0.00671266
0.0132365
0.00670613
0.00135271
0.00307546
0.00239867
0.00705667
0.0131927
0.00695357
0.00674502
0.00695345
0.00671548
0.00710703
0.00276433
0.00671987
0.0114099
0.00621976
0.00668512
0.00672242
0.00643917
0.00341294
0.00288947
0.00690944
0.0175377
0.01306
0.00677466
0.0128687
0.00823432
0.00362039
0.0031533
0.0068535
0.00790736
0.00668236
0.012328
0.00504813
0.00670975
0.0180412
0.0150885
0.00251413
0.00667869
0.00249112
0.006715
0.00671604
0.0349758
0.0281047
0.0067139
0.00708636
0.00707892
0.00675473
0.00624878
0.00672609
0.00576055
0.0140309
0.0062495
0.0068118
0.0120396
0.00576088
0.0097734
0.0112616
0.00696047
0.0218725
0.00670851
0.0168638
0.00419115
0.00682727
0.0154264
0.00684842
0.00292093
0.00673395
0.0373987
0.00675042
0.00696665
0.00670516
0.00680362
0.00673533
0.00681744
0.0245582
0.0238065
0.00670992
0.0378332
0.0199615
0.00671123
0.00670629
0.0129024
0.0114356
0.00241098
0.00874258
0.00977861
0.00670912
0.00677194
0.0142084
0.00759785
0.0119446
0.00478939
0.00670833
0.00676864
0.00704451
0.00669365
0.00672283
0.00157649
0.00671533
0.0173298
0.00671888
0.00673631
0.00195356
0.0066838
0.00178743
0.0285014
0.00676877
0.00671938
0.00672028
0.00532528
0.00667871
0.00672631
0.00289335
0.00990123
0.00361804
0.0069208
0.00186771
0.00670911
0.00695416
0.00672702
0.00931113
0.0122264
0.0112555
0.0123629
0.00220695
0.00524829
0.00066298
0.00672044
0.00704719
0.00667992
0.00669928
0.00856908
0.00671875
0.0142574
0.0176779
0.00641157
0.018423
0.00742097
0.0155489
0.0100227
0.0067085
0.0143653
0.00650876
0.01257
0.00675557
0.00671352
0.00670034
0.00268683
0.0145308
0.00819842
0.0251554
0.00671138
0.0356195
0.00670931
0.0188706
0.0131859
0.00672262
0.00760609
0.00690389
0.0288439
0.0215884
0.00679683
0.00668189
0.00645687
0.00773872
0.0121642
0.00681605
0.00702448
0.0132856
0.0189662
0.00672843
0.00466317
0.00672741
0.00706126
0.00684677
0.00837399
0.0067053
0.00705222
0.00837922
0.00672468
0.00671778
0.0121929
0.013918
0.00680292
0.00683202
0.00679788
0.00670695
0.00672561
0.009756
0.0252941
0.00677666
0.00698725
0.0067206
0.00672169
0.00672311
0.00673953
0.0108495
0.0233369
0.00867535
0.00934038
0.00670587
0.00529077
0.00670671
0.00708953
0.0060513
0.00699285
0.013043
0.00671561
0.0128258
0.00683265
0.0129966
0.0177517
0.00683693
0.00670915
0.00187061
0.00172371
0.00227084
0.0174174
0.0117348
0.0119732
0.00700783
0.00671581
0.0117875