/*--------------------------------*- C++ -*----------------------------------*\
| =========                 |                                                 |
| \\      /  F ield         | OpenFOAM: The Open Source CFD Toolbox           |
|  \\    /   O peration     | Version:  v2012                                 |
|   \\  /    A nd           | Website:  www.openfoam.com                      |
|    \\/     M anipulation  |                                                 |
\*---------------------------------------------------------------------------*/
FoamFile
{
    version     2.0;
    format      ascii;
    class       volVectorField;
    location    "600";
    object      ddtCorrDdt0(U);
}
// * * * * * * * * * * * * * * * * * * * * * * * * * * * * * * * * * * * * * //

dimensions      [0 1 -2 0 0 0 0];


internalField   nonuniform List<vector> 
9793
(
(0.000593581 -0.00200952 1.19486e-17)
(0.00811463 0.00613616 2.59247e-18)
(0.000249401 -0.000255924 7.38777e-18)
(-0.0020328 -0.0644916 3.4448e-17)
(2.12411e-06 -0.000149073 -5.40087e-19)
(0.02152 0.0211766 2.86593e-17)
(0.0152276 -0.00293791 -8.79201e-18)
(-0.0198594 0.00125693 -4.0192e-17)
(0.00127404 0.00133084 3.73243e-19)
(-0.0135162 0.0157992 -4.53044e-17)
(4.20192e-05 -0.000286611 -3.43352e-18)
(4.96433e-05 -0.000312624 6.03408e-19)
(0.000268491 0.000107072 -2.79998e-18)
(-0.0475484 -0.0393182 7.42812e-18)
(0.000398428 0.000892829 1.0727e-18)
(-0.00802647 0.00352094 1.56266e-18)
(0.0103752 0.0118229 2.3961e-17)
(0.000326418 -0.0001693 2.30387e-18)
(0.00339387 -0.0495533 8.65748e-17)
(-0.000206794 0.000228879 -3.93573e-19)
(-0.000364351 0.000543602 2.70485e-19)
(-7.64348e-07 -2.64744e-05 -3.26289e-18)
(-0.00229417 -0.0601039 4.05779e-17)
(-0.0196293 0.00045138 -7.87244e-17)
(-0.053665 -0.0361642 -5.412e-18)
(0.00187606 -0.00326056 -2.40003e-17)
(0.000152949 -0.000380187 3.02873e-18)
(2.56808e-06 -4.03486e-05 -4.12265e-18)
(-0.000189153 0.000248246 -2.83483e-19)
(0.0168857 0.00563503 -3.59317e-17)
(-0.0320801 -0.00163071 -1.00477e-16)
(0.0250228 0.0180777 5.08797e-17)
(0.000175107 -0.000286124 -9.11021e-19)
(0.000333167 -4.36309e-05 2.87735e-18)
(4.20841e-05 9.65629e-06 1.81158e-19)
(-0.000165162 0.00866672 -8.25584e-18)
(-0.0054256 0.00298691 6.12497e-18)
(-0.000148357 -0.00334078 1.02228e-17)
(0.0123564 -0.0576062 3.88624e-17)
(0.00522395 0.00611684 -7.15867e-19)
(0.0158061 0.00555912 -5.52109e-18)
(0.0658864 0.0122853 3.88845e-17)
(-0.0282443 -0.00892538 6.76215e-17)
(1.46875e-06 -2.68749e-05 3.37218e-18)
(2.03044e-05 -0.000250284 4.77632e-18)
(3.40333e-05 -0.000475754 -3.03864e-18)
(-0.0321363 0.00373294 -7.15257e-17)
(4.46709e-06 -4.08735e-05 4.75219e-18)
(-0.000990178 0.000334493 -3.73237e-18)
(0.000310802 -0.000172746 9.00432e-19)
(-0.000757338 0.00871983 1.41306e-18)
(3.17334e-05 1.08773e-05 -4.30756e-19)
(0.00428688 0.0109998 -5.58089e-18)
(7.6538e-06 -9.44203e-05 4.26499e-19)
(0.00353468 -0.00430741 1.31874e-18)
(-0.00250255 -0.064051 -1.08942e-17)
(0.000240758 0.000115477 -1.05953e-18)
(0.00594112 0.0281529 -2.41159e-17)
(-0.00096577 0.000426651 2.3364e-18)
(1.68418e-06 -2.33051e-05 -3.74172e-18)
(0.000415476 -0.00376698 -2.29893e-17)
(0.00540006 -0.009414 3.95387e-18)
(0.000251397 -0.000183719 4.65036e-18)
(-0.00670138 0.0129848 2.95616e-18)
(9.30981e-05 2.03624e-05 4.0666e-19)
(0.00118672 0.00124964 6.01661e-19)
(-0.0217616 0.00178693 1.49353e-17)
(0.0015211 0.00433795 -4.58551e-19)
(-0.00636529 0.00267433 -1.20868e-17)
(0.0231941 -0.0265739 -2.24827e-17)
(0.000407089 -0.00125831 -8.3167e-19)
(-0.000522271 -0.00890339 3.07056e-18)
(-0.026061 0.00252117 -9.3272e-18)
(0.212911 0.115611 -4.96368e-19)
(0.0622176 -0.0136575 -3.56161e-18)
(1.97502e-06 -8.53555e-05 1.49062e-18)
(0.00243755 -0.00671174 7.56005e-17)
(0.0420402 0.00948193 4.53778e-17)
(0.000156064 -0.00021206 1.99965e-18)
(2.70269e-06 -0.000101644 -3.95006e-18)
(0.00223719 -0.00694191 -7.6335e-17)
(0.00409904 -0.0471131 -9.28439e-19)
(0.0093526 0.0120542 -9.55356e-18)
(0.00293668 -0.00105434 -6.7181e-18)
(-0.00603299 0.00319899 -2.41613e-17)
(0.0279567 0.0068459 1.36129e-17)
(6.9948e-06 -0.000136983 5.49256e-18)
(-0.00764461 0.0293683 -1.00378e-17)
(0.00918143 -0.0611708 -6.23347e-19)
(0.00505732 -0.00912016 -7.8603e-18)
(-0.00499548 -0.0595449 -1.9177e-17)
(0.0457691 0.0054532 -2.04735e-17)
(0.0456665 0.0024439 -3.78797e-18)
(0.0096552 0.00383171 -5.25967e-18)
(-0.0245085 -0.0144959 -1.00724e-16)
(0.000416229 -0.000159464 2.40623e-19)
(0.0638167 -0.00793544 -2.00299e-17)
(0.0109805 0.00907108 -8.10096e-18)
(0.00336456 0.00302102 -4.60074e-18)
(2.46134e-07 -0.000112061 -5.17643e-19)
(-0.0129102 -0.0579863 -2.8279e-17)
(0.00400479 0.0104411 -1.49538e-17)
(0.0338975 0.208926 -7.11664e-17)
(2.28877e-05 -0.00024645 -5.87104e-18)
(0.0883126 -0.0306097 4.87158e-17)
(0.0375208 0.00304057 2.82587e-17)
(0.205836 0.0979043 2.49776e-18)
(0.000152064 0.000100017 -1.03088e-18)
(0.000141475 -0.000227148 -1.38419e-18)
(-9.74614e-07 -4.99074e-05 3.28553e-18)
(1.28931e-05 -9.79238e-05 -5.17207e-18)
(-0.0032354 -0.0589903 1.25259e-17)
(0.000477563 -0.0106321 1.25246e-16)
(-0.0182344 -0.00344261 3.90212e-17)
(0.000429827 -0.00126823 3.72008e-18)
(0.000115541 -0.000573365 2.6595e-18)
(-0.0062556 -0.00104601 -9.0481e-18)
(6.59105e-05 -0.000501435 -3.98162e-18)
(-0.00231794 -0.0640326 -5.72308e-17)
(1.35201e-05 -0.000398949 4.60881e-18)
(0.0818265 -0.0391125 -8.94565e-18)
(-0.00551755 0.0309057 -2.68916e-17)
(0.0849534 0.00495393 2.52596e-17)
(0.00250533 0.0149071 -1.08536e-17)
(-0.00504076 0.00341259 1.07136e-17)
(6.01696e-07 -0.000431117 -3.52801e-18)
(0.012369 0.0108321 -4.29083e-18)
(-0.031507 -0.00190667 7.71397e-17)
(0.00108024 0.0509808 4.97061e-17)
(0.000680035 0.0539529 -6.55566e-17)
(-0.00182396 0.00433157 -1.22464e-17)
(0.000360746 4.1048e-06 3.52298e-19)
(0.000652172 -0.00191908 -1.04575e-17)
(0.00101737 0.00376591 4.69154e-19)
(6.44422e-05 0.00773567 6.53492e-18)
(0.0213844 -0.00310232 -4.5101e-17)
(0.0223319 0.0309929 -1.56994e-17)
(-0.0063029 -0.000433217 7.72453e-18)
(2.02146e-06 -5.92619e-05 -1.23742e-18)
(0.0110347 0.0142202 1.27496e-18)
(0.00277601 -0.0409022 -1.0607e-17)
(0.000125917 0.00816278 -4.34383e-19)
(0.000732106 -0.000994985 -2.95223e-18)
(-0.00732645 0.0238644 -1.93888e-17)
(-0.0318979 0.0049876 3.8678e-17)
(0.0131954 -0.0138203 3.34536e-17)
(-2.22701e-05 -0.000431756 -8.25296e-18)
(0.0561856 -0.0104086 -2.25996e-17)
(0.000385126 -2.36475e-06 -2.13483e-19)
(-1.02614e-05 -0.000409439 8.35848e-18)
(0.000178857 -0.000416044 -9.07441e-19)
(-0.0224235 0.00220313 9.28438e-17)
(0.00311287 0.00289579 -5.95839e-18)
(0.000151743 -0.000397774 -6.42124e-18)
(9.54095e-05 -0.000713915 -9.10097e-19)
(0.0460018 -0.00890418 2.80978e-17)
(0.0109399 0.0125148 -2.57516e-17)
(0.000268449 -0.000176161 -3.02033e-18)
(0.0241604 0.0186001 2.4155e-17)
(0.000425714 -0.000902168 -4.15478e-18)
(-0.00680001 0.0270857 5.18865e-18)
(-0.00162715 0.00461771 1.03581e-17)
(-0.000328762 0.000577483 2.92922e-20)
(0.00246629 -0.0113973 5.15818e-18)
(-0.00111216 0.00171685 -3.6739e-18)
(0.0439375 0.0120898 -2.96302e-17)
(-0.00943153 0.219817 -4.91198e-17)
(-0.000932719 0.00223266 4.94261e-19)
(0.000135747 9.75876e-05 -5.22262e-19)
(2.33088e-05 -0.000236073 2.79776e-18)
(0.000717946 -0.00108435 -2.00054e-18)
(-0.00264263 -0.00103716 -3.24139e-17)
(-0.050742 0.0236016 5.61374e-17)
(0.00903619 -0.0429084 1.56406e-17)
(0.000274281 0.00010586 -1.27922e-18)
(0.0203914 0.0214687 -3.99274e-17)
(0.0106346 -0.00972863 1.36594e-18)
(0.0018562 -0.0122644 -3.5625e-17)
(0.000184637 -0.000198066 1.80969e-18)
(0.000975999 0.00451122 -1.50508e-17)
(0.101413 -0.024805 -1.01652e-17)
(-0.0314988 0.00386762 -5.22493e-17)
(-0.00576127 0.0327933 2.40712e-17)
(4.11857e-05 -0.000431025 -2.89907e-19)
(4.28954e-05 -0.000590237 2.64058e-18)
(0.000142092 9.4e-05 -6.35574e-20)
(0.10005 0.00996273 2.12849e-17)
(-0.0277294 0.0026266 2.97686e-17)
(-0.0143462 0.00750901 -2.09903e-17)
(0.0496622 0.195654 7.55189e-17)
(0.00112216 0.00101867 -4.65785e-19)
(0.00593292 -0.0698256 4.31775e-17)
(0.000236193 -0.0105085 8.36515e-17)
(0.000618832 -0.0033902 2.11214e-17)
(-0.00120999 2.04185e-05 7.24136e-18)
(0.00194668 -0.00188685 4.04621e-18)
(-0.000533225 -0.0115468 -1.31085e-16)
(-9.27013e-05 0.000218159 -4.96895e-19)
(0.000342129 -0.000175481 5.24232e-18)
(2.82115e-05 -0.000402936 6.92201e-18)
(0.000418753 -0.00139442 7.30644e-18)
(-0.000507976 0.000472346 -9.50515e-19)
(-0.00153028 0.00952869 -1.26893e-17)
(-0.00319917 0.0054866 8.62405e-18)
(0.00548979 -0.0617843 -2.46089e-17)
(7.88786e-05 -0.000976405 -1.83962e-18)
(0.00421668 0.00551999 1.30492e-17)
(-0.00111809 0.00218758 4.52293e-19)
(0.0011248 -0.00170514 -3.06815e-18)
(0.00468887 -0.0136225 4.39802e-18)
(0.0104604 0.0136944 1.75932e-20)
(0.000654923 -0.0383852 -2.75711e-18)
(-3.70123e-05 0.000164051 2.09564e-19)
(0.0192546 -0.0298318 1.97933e-17)
(0.00290234 -0.00125487 8.82319e-18)
(-0.0283908 0.00385993 -4.85484e-18)
(0.000450119 0.000928441 -7.07514e-19)
(0.0218849 -0.00184051 2.64535e-17)
(0.000102813 -0.000582506 -1.6371e-18)
(0.000721756 -0.00715049 1.63528e-17)
(0.0116508 0.00943354 -1.2653e-17)
(-0.000493924 0.00052047 3.50808e-19)
(-0.00200814 -0.0118755 3.38142e-17)
(0.00238222 -0.009697 -4.18403e-17)
(0.00917939 0.00349126 7.23728e-20)
(0.000497558 -0.000271424 4.15659e-19)
(0.00378605 0.0176086 3.78681e-17)
(-0.0215822 0.0552095 -4.13119e-17)
(0.00119585 -0.00703688 8.41592e-18)
(0.00137912 -0.00711506 -9.12554e-18)
(0.00091224 -0.0642408 -1.34526e-17)
(-0.00267125 0.0441422 1.12257e-17)
(-0.0256482 0.00421598 1.56677e-18)
(-0.00698691 0.013773 7.63918e-18)
(9.05218e-05 -0.0101246 -6.91176e-17)
(-0.000704776 -8.80796e-05 -1.74963e-18)
(0.0169458 -0.0576175 4.36506e-17)
(-0.0165354 -0.00475242 -1.09288e-17)
(-8.78523e-05 0.00021102 5.00794e-20)
(1.37888e-05 -0.00033029 -4.3219e-19)
(0.0675793 0.0165237 2.81754e-17)
(0.000527823 -0.000728158 5.3816e-19)
(1.04889e-05 -9.09231e-05 1.80793e-18)
(0.00522145 0.0320714 2.00681e-17)
(0.00812663 0.0315914 2.70938e-18)
(0.00121804 0.00108438 1.80284e-19)
(0.000860765 0.0046815 1.41878e-18)
(0.00448343 0.00584939 -1.32904e-17)
(0.00586 -0.0040522 -6.86429e-18)
(-9.52165e-05 0.00493905 -1.13407e-17)
(0.000166378 -0.000209767 -7.25648e-18)
(0.0101669 0.000127994 1.62384e-17)
(0.00264615 -0.0644118 -4.8764e-17)
(-0.000447801 0.000515896 -1.74429e-18)
(0.00311908 -0.0326773 1.51068e-17)
(1.17065e-05 -0.000112562 -2.14589e-18)
(6.25441e-05 -0.000369238 4.72834e-18)
(-2.58844e-05 2.94566e-05 1.43267e-19)
(-0.00199743 -0.0645317 6.98506e-17)
(-2.21445e-05 -0.000244177 -4.53747e-20)
(0.0426246 -0.00568903 -1.13544e-17)
(0.0440065 -0.0312397 -4.56488e-18)
(0.000113569 -0.000224606 -2.69387e-18)
(9.91383e-05 -0.000565363 3.92786e-19)
(0.0370512 0.0213782 -6.10347e-17)
(-3.69024e-05 2.43284e-05 1.14694e-19)
(1.07275e-05 -0.00021826 1.66457e-18)
(-6.96986e-05 2.27274e-05 8.46498e-20)
(0.0384784 -0.0351874 -1.26131e-17)
(0.00242323 -0.0110757 1.9701e-17)
(0.00183486 -0.00285965 -1.26302e-17)
(0.00681618 -0.0135857 -1.83566e-18)
(0.0069116 0.0259102 -2.26574e-17)
(0.01383 0.20467 4.03183e-17)
(0.00171685 -0.0612324 -2.31235e-18)
(-0.000849793 0.00239987 -2.84599e-18)
(-0.00820202 -0.0778949 -2.95103e-17)
(6.9203e-06 -9.72707e-05 6.3018e-20)
(-0.0353601 0.0666561 4.06205e-17)
(-0.000388277 -0.0157495 5.00814e-17)
(0.00280555 -0.0593604 -8.87404e-17)
(0.081506 -0.0365117 -3.45672e-17)
(-0.0022163 0.0421074 9.85515e-18)
(-0.00222238 0.00427935 9.18657e-18)
(0.00877396 0.0112877 -9.06388e-19)
(-0.00284623 0.00521382 8.55347e-19)
(-0.00130973 -0.00017784 3.44862e-18)
(-0.00183053 0.00188516 5.69416e-18)
(0.00528074 -0.0131396 -3.29158e-18)
(0.00195654 -0.00334457 6.91638e-18)
(8.47616e-05 -0.000562194 3.42247e-18)
(2.42381e-07 -7.25401e-06 -2.83615e-18)
(-4.17174e-05 0.000176342 -3.35091e-21)
(-0.000175178 -1.63058e-06 -7.23797e-19)
(-0.000419208 0.000559022 3.46359e-19)
(-0.000363916 -0.0547172 -5.83177e-17)
(0.000176274 9.47008e-05 3.41162e-18)
(0.000447008 0.000735988 -9.76646e-20)
(-0.000169566 -1.84047e-06 4.83959e-20)
(0.000246044 0.000114552 3.36745e-19)
(0.00131977 -0.0645498 -1.60449e-17)
(0.0136103 -0.0142479 -1.68742e-17)
(-0.00118303 -0.00795642 7.04484e-17)
(0.000484915 -0.00245198 -1.17842e-17)
(-0.0056021 0.0236971 6.03194e-18)
(-0.000169081 5.05972e-07 1.93601e-19)
(0.130571 0.0822725 8.80619e-18)
(-0.0158509 -0.0011753 -4.57095e-17)
(8.40372e-06 -0.000242495 9.46864e-18)
(0.0462963 -0.0255056 4.62155e-17)
(-0.00492346 0.0119903 9.11469e-18)
(3.84182e-05 -0.000259413 4.11216e-18)
(-0.00310114 0.00648241 -1.14756e-17)
(0.206008 0.0780978 -7.89147e-18)
(0.000179912 -0.000301235 9.82261e-19)
(0.0105201 -0.000317038 -1.35485e-17)
(0.00398433 -0.00983303 -3.43115e-17)
(0.00103612 -0.00150589 4.15367e-18)
(-0.000629968 -0.00531053 -1.20656e-17)
(0.000404883 0.000814162 -5.54889e-19)
(0.000954133 -0.00170053 3.39376e-18)
(-0.0820895 0.0810124 -5.89226e-18)
(0.00478986 -0.00535829 -8.22547e-18)
(0.000313082 -4.71248e-05 -2.52134e-18)
(5.87588e-05 -0.000375831 -3.8991e-18)
(0.000482893 -0.00239445 -1.10816e-17)
(0.013058 -0.0102061 3.91485e-18)
(-0.000412606 -0.0110979 -1.00511e-17)
(0.000229458 -0.000261201 -1.30723e-17)
(0.000157637 9.63293e-05 1.05078e-18)
(-0.000463604 0.00103127 -7.7107e-19)
(-0.00193665 -0.000901827 8.34813e-17)
(-0.0236856 -0.0516944 5.40299e-17)
(-0.00980874 -0.013288 -5.26789e-17)
(-0.000658665 2.18451e-05 2.2187e-18)
(0.00507169 -0.00553811 -2.16157e-17)
(-0.000846724 -0.005415 1.67842e-17)
(0.0027123 -0.01639 2.04932e-17)
(0.00670877 0.0221257 -2.14104e-18)
(-0.000673606 -0.000344155 7.19841e-19)
(-0.000860452 -0.000161452 9.314e-19)
(-0.000398625 0.00104545 -1.1549e-18)
(0.00791993 0.0114367 2.2653e-17)
(0.00141998 -0.000761674 -4.82041e-19)
(-0.0272236 -0.00520182 -1.75923e-17)
(0.000110078 -0.000583191 -5.63527e-18)
(0.000321561 6.43109e-05 -1.14786e-18)
(0.0526077 0.0792979 -4.52288e-17)
(-0.000628655 -0.0534264 -3.07587e-18)
(0.021327 -0.0332759 -4.6476e-17)
(-0.000176477 3.34026e-07 -9.44872e-19)
(-0.0103735 -0.059287 3.28851e-17)
(0.00342326 -0.00102436 -7.54976e-19)
(-0.000163105 -0.0113818 2.12169e-18)
(-0.0179265 0.0017486 -6.86093e-17)
(0.00122093 -0.0648929 1.38302e-17)
(0.00296099 -0.000426859 -3.97821e-19)
(0.00569584 0.00617778 2.1818e-17)
(0.0238776 0.0293472 7.08169e-17)
(-0.00636978 -0.0577 4.51173e-17)
(-0.00381525 -0.060236 2.57416e-18)
(-0.000702018 -0.00364121 -9.38296e-19)
(3.86951e-06 -4.75793e-05 2.00442e-19)
(0.00179683 -0.00298179 2.14083e-17)
(-0.000934045 0.000170906 -1.29282e-18)
(0.000161396 8.04746e-05 -1.05235e-18)
(0.00133513 -0.000807501 1.89493e-18)
(0.000175854 -0.000327477 4.16325e-18)
(4.98216e-08 -2.97178e-06 -1.9336e-18)
(-0.0200415 -0.00445178 -8.95378e-19)
(3.49224e-05 -0.000277187 -2.04028e-19)
(0.0132702 0.00935162 2.45445e-18)
(0.00447499 0.00672383 9.16305e-18)
(0.145012 0.0308085 4.97565e-17)
(-0.000643334 -0.000400515 1.74063e-18)
(0.00310038 -0.000973194 1.0349e-18)
(0.000507869 -0.0672312 9.0768e-18)
(-1.86153e-06 -0.010407 -1.68922e-16)
(-0.0557804 -0.030151 1.42261e-17)
(0.0062644 0.0212564 4.26298e-18)
(0.000301587 5.39354e-05 2.55995e-18)
(0.00310318 -0.000317129 2.51724e-18)
(0.000261582 -0.000229507 -1.93357e-18)
(0.0206895 -0.0117147 1.79332e-17)
(-0.000112042 6.87388e-05 3.621e-19)
(0.0246288 -0.035377 4.63833e-17)
(0.00880259 -0.0110034 -8.10574e-19)
(0.0145918 -0.00363026 3.16263e-17)
(-0.0103349 -0.0118434 7.37016e-18)
(-0.0817044 0.0967321 8.01716e-17)
(8.44355e-05 -0.000213919 -4.17925e-18)
(0.000472021 -0.000225191 -8.76478e-20)
(0.0231207 0.033204 7.78406e-17)
(0.0215922 -0.0109297 -2.71694e-17)
(3.25493e-05 -0.000954279 1.70534e-18)
(-0.0218456 0.000852042 -1.0036e-16)
(9.20567e-05 -0.000225603 2.80961e-18)
(5.17591e-05 -0.000485908 2.12997e-18)
(-0.00379069 -0.015387 -1.66212e-18)
(-4.48334e-05 0.000159109 -1.51984e-19)
(0.0071778 0.0272629 3.40437e-17)
(-0.000704022 -4.30221e-06 -6.73067e-18)
(-0.0365981 0.211635 2.54286e-17)
(0.000106945 -0.000602245 4.82928e-18)
(-0.0012456 0.00162348 7.26913e-18)
(0.0588882 0.0386288 5.15089e-17)
(-0.000496558 -0.00869433 1.08625e-17)
(-0.0321504 0.0150578 1.00748e-17)
(0.000739334 -0.00338597 -7.08456e-18)
(0.000130257 -0.000189595 -3.04689e-18)
(0.000640056 -0.000222637 -1.97571e-18)
(0.078061 0.00132622 -4.80074e-17)
(0.0111092 0.00813725 7.61767e-18)
(-0.000482897 0.000222033 -1.39319e-18)
(2.44474e-05 -0.000472893 -3.77732e-18)
(0.0033326 -0.00451199 -3.2608e-18)
(-0.00126856 -0.00533147 -1.9971e-17)
(-0.0341339 0.0122871 -2.47398e-18)
(-0.0306684 0.00500994 -1.7728e-17)
(3.04932e-05 -0.000445081 -4.64494e-19)
(0.000331106 -5.61201e-05 -2.85724e-18)
(0.0032108 -0.0118519 1.81518e-17)
(0.000132178 -0.00017961 -2.16966e-18)
(0.00139176 -0.0628803 4.16609e-17)
(0.00233415 -0.0122928 1.04495e-17)
(5.29161e-05 -0.000568596 -8.92368e-19)
(0.000197382 -0.000281553 1.29124e-18)
(-0.00169478 0.00190432 -3.18026e-18)
(0.000106347 -0.000218049 -1.79327e-18)
(-0.000500212 0.000948249 4.99844e-18)
(-0.0130448 -0.0582593 5.71556e-17)
(0.000970462 -0.00729945 -9.51014e-19)
(0.035988 0.0245793 -1.47227e-18)
(-0.00110928 -0.00414414 4.26592e-18)
(-0.00428858 0.00114392 -2.30408e-18)
(0.00325459 0.0144511 1.9266e-18)
(-0.000166172 -0.00323865 -2.93655e-18)
(-0.00353043 -0.0630503 3.71769e-17)
(0.000520439 -0.00369455 2.00209e-17)
(4.98224e-06 -0.000124764 5.07699e-18)
(0.00133509 0.00455526 1.7208e-17)
(0.014727 -0.0133394 3.60433e-17)
(0.000526801 -0.00115613 -2.24092e-19)
(0.000424739 -0.000969168 4.3065e-18)
(0.00038283 -0.00134174 -8.38156e-19)
(-0.000101112 6.53191e-05 -1.98725e-19)
(0.000273174 -9.50788e-05 1.9825e-18)
(0.000609193 0.000598247 -3.78488e-19)
(5.50077e-05 -0.000475264 7.70625e-18)
(6.32635e-05 -0.000198906 -4.60855e-18)
(0.00196254 -0.001509 -7.26876e-20)
(-0.00240069 0.00526318 1.4587e-18)
(0.00429829 0.033102 -1.25152e-17)
(-0.000177307 1.27921e-05 -3.51427e-19)
(-0.00064432 -0.0114926 8.29947e-17)
(0.00155233 -0.00319298 2.29426e-17)
(0.00903588 -0.0118364 4.50805e-19)
(0.00186727 -0.0634006 -1.2862e-17)
(-0.00132317 -3.68243e-05 -7.49114e-18)
(0.0692387 0.0828276 3.21543e-17)
(0.0149342 -0.00210748 -2.40073e-17)
(-0.00120674 0.000138611 -2.88896e-18)
(-0.000106842 9.61942e-05 -1.25298e-19)
(0.000847949 -0.00106154 -4.94006e-18)
(0.114571 -0.026631 -2.19982e-17)
(0.00803112 0.0251096 2.58232e-17)
(-0.000114464 9.204e-05 1.19269e-19)
(6.17308e-05 -0.000658596 -4.3008e-18)
(3.61332e-05 -0.000423764 -5.06425e-18)
(-0.00221465 -0.00783388 2.20021e-17)
(0.0102672 -0.010518 -4.55554e-18)
(0.0423341 0.00615886 -1.26664e-17)
(9.72627e-05 1.65168e-05 1.27698e-18)
(7.88425e-05 -0.000701718 -2.73058e-18)
(0.000966849 -0.00486178 2.91876e-18)
(-0.0325594 0.00294189 8.39864e-17)
(0.00110519 -0.0598349 8.6897e-17)
(0.000901669 -0.00271884 2.52631e-18)
(-0.00225023 0.00336443 1.1104e-17)
(0.00773428 -0.0259814 4.80242e-17)
(0.0464598 0.0112959 4.12402e-17)
(0.0115027 0.0390872 -5.87346e-17)
(0.00123684 -0.00136726 3.79048e-18)
(0.000341557 3.0663e-05 1.43025e-18)
(0.00699133 -0.0612088 6.28666e-18)
(0.000418073 -0.0002347 -3.53228e-18)
(0.011536 -0.00961327 -1.18372e-17)
(0.147549 0.0297462 5.2058e-17)
(-0.000464103 0.00018554 4.41202e-19)
(0.00266917 -0.01091 -7.51142e-20)
(0.00355315 0.00528359 -4.85702e-18)
(-0.0104837 -0.0587601 -1.06405e-17)
(0.000610018 -0.000200561 3.97058e-19)
(0.00730053 -0.0525486 -1.20655e-17)
(0.0259223 0.0154364 -1.99514e-17)
(-0.00732126 0.00349531 8.64053e-19)
(0.0341142 0.0237446 -2.22609e-17)
(0.000429713 -0.000187682 3.26595e-19)
(0.00439333 -0.0152965 3.45565e-18)
(8.66386e-05 -0.000614528 -3.11984e-18)
(0.000474373 -0.000183275 -1.44498e-19)
(1.89216e-05 -0.000208911 -4.56752e-18)
(0.00029089 -0.000148574 -7.90496e-19)
(0.0557727 -0.0212098 6.06496e-17)
(0.000431041 -0.000188862 -5.10946e-18)
(-0.000842456 0.000524793 -4.34723e-18)
(0.000729027 -0.00237605 1.82253e-17)
(-0.000663609 9.82276e-05 -2.52368e-18)
(0.000359616 2.34145e-05 1.66829e-18)
(0.0102771 -0.00149479 1.35527e-17)
(0.00225114 -0.000908694 -1.29397e-17)
(-0.00530512 0.012792 -6.24255e-18)
(0.000157441 -5.11595e-05 -1.82024e-18)
(0.000152205 -7.17307e-05 -5.74782e-19)
(0.000846831 -0.0668147 -5.48406e-17)
(-0.0006164 -0.00830466 6.47324e-17)
(0.00088457 -0.00267475 -7.00501e-18)
(0.011144 -0.0380984 -6.88022e-17)
(-0.0022189 0.00493003 9.48011e-19)
(0.0015202 -0.000991091 2.84698e-18)
(-3.85685e-05 -0.000251338 7.61731e-19)
(-0.000547079 0.000923446 -1.69781e-18)
(-0.0137724 -0.0144472 4.45031e-18)
(-0.000872113 0.000440682 -1.42061e-18)
(9.07459e-05 -1.8712e-05 -1.97028e-18)
(-0.035125 0.00121023 7.50795e-17)
(0.0615608 0.0125313 -5.7577e-17)
(0.00615119 -0.00379001 1.22142e-17)
(0.000256063 0.00010803 2.94295e-18)
(1.71748e-06 -5.00973e-05 -1.22587e-18)
(0.00017932 0.00210042 6.27671e-19)
(1.25523e-05 -0.000185453 1.25405e-18)
(-0.00910218 -0.0321153 -7.29992e-17)
(0.00103799 -0.0015726 -3.63395e-18)
(0.081317 0.184363 5.71919e-19)
(-0.00418248 0.00353741 -9.93791e-20)
(-0.00148641 -0.0113019 -4.32375e-17)
(4.05398e-06 -0.000127046 -2.80383e-18)
(-0.034028 0.00178668 -9.91825e-17)
(5.3181e-06 9.2581e-06 6.77781e-19)
(0.0136414 -0.0109895 2.26963e-17)
(0.000392708 -0.000253633 1.81034e-18)
(-0.0233679 0.0394905 2.56867e-17)
(0.00215053 -0.0662051 1.14359e-17)
(8.02573e-05 -0.000636967 2.842e-18)
(0.0821632 0.0117758 9.90339e-18)
(0.000470504 -0.000544957 4.19639e-18)
(1.17025e-05 -1.00173e-05 1.30543e-18)
(-0.00035949 0.000496598 -1.26903e-18)
(0.114209 -0.00794824 4.91647e-17)
(0.0032196 -0.0642138 2.52996e-17)
(0.000798723 -0.00105125 6.0083e-19)
(0.00378075 0.00561711 9.94778e-18)
(-0.00092364 0.000271489 1.72883e-18)
(-0.00191664 -0.0179202 -4.04608e-17)
(-0.000173731 1.59925e-05 3.82598e-19)
(0.0104013 0.000546239 8.65824e-19)
(0.00942162 -0.0510252 -2.83892e-18)
(-0.000274698 -0.00342129 -4.9574e-18)
(9.99251e-05 -1.16757e-05 1.04529e-18)
(0.00286717 -0.00667823 -5.19665e-17)
(8.80245e-06 -4.89672e-05 3.66359e-20)
(9.37724e-05 0.00221567 -1.34066e-18)
(-0.000283453 0.00113193 -3.72609e-19)
(0.00240643 0.0327711 1.57799e-17)
(0.000121341 6.4911e-05 -2.29231e-18)
(0.0168702 -0.0083271 -2.43415e-18)
(0.000148397 -9.80157e-05 2.94555e-19)
(0.00151051 -0.000596377 -4.77905e-18)
(-0.0101771 0.015087 2.44933e-18)
(0.00370425 -0.00850621 -1.20578e-17)
(0.0178133 0.0427549 -1.07305e-16)
(0.000423537 0.000668498 -1.64348e-19)
(-0.0315135 0.00228619 -2.47426e-17)
(0.000514642 -0.00023548 -1.43464e-18)
(0.0106973 -0.0113361 1.96655e-17)
(0.000271924 -0.000645958 3.6428e-18)
(-0.00119554 0.00200817 -4.97869e-18)
(0.000425826 -0.000239564 4.32286e-18)
(0.000148782 -0.000104673 1.89955e-18)
(4.43815e-06 -0.000112505 -6.43861e-19)
(0.0103393 -0.011893 2.20401e-17)
(-0.0244217 0.00651118 -6.40899e-18)
(0.0752651 0.00894219 3.69553e-17)
(0.0193819 0.0114048 2.17321e-17)
(0.00122074 -0.00538077 -1.56407e-17)
(0.00409163 -0.00423097 -2.42517e-17)
(-0.00180441 -0.0162823 -2.83712e-18)
(0.00109804 0.0040028 1.93071e-19)
(-0.0126426 -0.0361325 9.49431e-17)
(-0.0173363 -0.0349825 3.86633e-19)
(0.0131977 -0.0118909 -1.5365e-17)
(0.000600864 0.00484825 -1.3977e-17)
(0.108491 0.0355848 -8.26761e-17)
(0.0120893 -0.0103816 -2.14868e-17)
(-2.72927e-05 0.00218915 1.84441e-18)
(0.000216465 -0.011379 -1.65934e-17)
(-0.0114046 0.0146592 9.44118e-19)
(-0.0010721 0.00187679 6.18445e-18)
(0.01371 -0.0125558 1.80882e-17)
(6.10968e-06 -4.23079e-05 -5.05607e-19)
(0.0060265 -0.0138384 3.45874e-18)
(0.00604322 -0.00327725 -3.92869e-19)
(0.0182205 0.0321449 -4.23604e-18)
(-0.000745877 -0.00394763 7.24781e-18)
(-0.00224415 -0.0502015 2.63051e-17)
(-0.0375369 -0.0103955 -2.06972e-17)
(-0.00923238 0.0139419 7.35043e-18)
(0.016506 0.0318763 5.36553e-18)
(1.79977e-05 -0.000358417 2.56442e-18)
(0.0110812 -0.0148431 8.50037e-19)
(-0.000413022 -0.00246588 1.68763e-19)
(0.000374053 -0.000224568 -1.73198e-18)
(0.00131511 -0.000895314 5.24708e-18)
(-0.00485603 -0.00111696 -1.57692e-18)
(0.0103996 0.00776618 -6.96515e-18)
(0.00189222 -0.0633508 2.53059e-17)
(0.00672833 -0.0125332 2.91986e-18)
(-0.0343982 0.00444319 -7.64277e-17)
(0.00123319 0.00358782 -5.143e-18)
(0.0020638 -0.00191796 1.39723e-18)
(-0.0123526 -0.0576492 1.98878e-18)
(-0.000291245 -0.0105887 -4.18226e-17)
(-0.00177725 0.00322903 3.35324e-18)
(0.00664831 0.0192117 -4.41166e-18)
(0.00116925 -0.00172053 3.36605e-18)
(-0.000665787 -0.0120559 4.87669e-17)
(0.0665181 0.0497575 5.76076e-18)
(7.60795e-05 -0.000544395 -8.21628e-19)
(-0.00157835 -0.00802485 -6.70268e-17)
(0.00339811 -0.0115002 5.20343e-18)
(-0.0344671 -0.0215221 7.10809e-18)
(8.85671e-05 1.74847e-05 -1.01208e-18)
(0.00195512 -0.00310407 1.76468e-17)
(0.0406242 -0.000774448 -3.00784e-17)
(-0.00199157 0.00893452 1.89788e-18)
(0.103515 0.0123761 -1.19062e-17)
(-0.0199225 0.0402382 4.26892e-18)
(0.146732 0.0326421 1.25232e-17)
(0.00293168 -0.00230705 2.61796e-18)
(0.00140857 0.00407641 2.73466e-18)
(0.000792337 0.00109878 1.70588e-18)
(0.000114282 -0.000664185 -4.44063e-18)
(-0.00591808 0.0629256 2.49986e-19)
(2.1711e-06 -4.35561e-05 2.87263e-18)
(-0.0135369 0.0642857 -1.83991e-17)
(0.020008 0.0150126 -4.53108e-17)
(0.0130495 -0.00492055 -1.76917e-17)
(2.50117e-06 -1.83683e-05 2.38949e-18)
(1.84728e-05 -0.000103946 1.63337e-18)
(-0.00490234 0.000650882 -4.89355e-18)
(-0.00206657 -0.000606422 5.26615e-18)
(3.10893e-05 1.32383e-05 -2.87688e-19)
(0.000498942 -0.000746175 2.34066e-19)
(0.0184952 0.0108705 -3.51073e-17)
(0.124312 -0.0221722 1.4221e-17)
(-0.0548356 -0.0328764 1.45886e-17)
(1.48482e-06 -2.62378e-05 2.5775e-18)
(0.0191037 -0.011107 -1.96303e-17)
(0.000246927 9.11657e-05 -2.78557e-18)
(-0.0166116 -0.0421135 -3.21394e-17)
(-0.00417481 0.0190974 -1.32013e-18)
(0.00168051 -0.00659505 2.00384e-17)
(-0.00103874 -0.00529151 1.07727e-17)
(0.0252629 0.0159977 3.24549e-17)
(5.16645e-05 4.60349e-05 4.29586e-19)
(0.000194568 -0.000373228 9.34705e-19)
(0.0029708 -0.00630268 2.75825e-17)
(0.000415538 -0.000265256 -2.67593e-18)
(0.000168458 0.00199712 -1.4193e-18)
(0.0094412 0.0156734 5.30523e-18)
(-0.0262362 -0.049691 4.60026e-18)
(-0.000549155 0.000448177 3.61409e-18)
(-0.000525508 0.0550668 1.50458e-17)
(0.0124303 -0.0593863 -7.1213e-17)
(0.000188827 0.00513597 -8.61498e-18)
(-0.0586497 0.0638292 2.49219e-17)
(0.0193463 -0.0582953 2.4172e-17)
(0.000649808 0.00065837 2.93442e-19)
(0.0114994 0.0104868 2.73149e-17)
(-0.00835735 0.00418822 -1.26637e-18)
(0.0011136 0.000893909 7.62968e-19)
(-0.000319975 0.000484853 6.54692e-19)
(0.00105669 -0.00893156 -2.28264e-17)
(0.00883415 -0.0592686 7.63322e-17)
(-0.0307867 0.00275449 1.07521e-19)
(0.000556079 -0.00122221 4.84456e-18)
(4.33957e-05 -0.000352986 4.419e-18)
(-9.25612e-05 0.000587244 1.56048e-18)
(-0.00685777 -0.00211133 -3.16068e-18)
(0.00226136 -0.000758222 -2.89187e-18)
(0.00272431 -0.00132083 4.76527e-18)
(-0.00255432 -0.0117179 1.06292e-16)
(-0.0055567 0.019282 -1.77816e-17)
(7.12306e-05 -0.000213169 3.057e-18)
(0.0413316 0.0132153 7.12314e-17)
(-0.000919204 0.00942885 8.03908e-19)
(0.00136151 -0.00510496 -1.04137e-18)
(3.23103e-05 0.00192871 -1.24564e-18)
(-0.0297516 -0.0011914 5.14091e-18)
(-0.00236564 0.00395508 -6.67721e-18)
(8.56452e-05 5.56621e-05 4.15295e-19)
(0.0136586 -0.00465009 -4.77834e-18)
(-0.000767752 -0.0117093 6.03742e-17)
(-0.000526113 0.000218268 1.16958e-19)
(4.31429e-05 -0.000492396 -1.98828e-18)
(0.000245905 -0.000202862 5.17915e-19)
(-0.00698281 0.00274343 1.03587e-17)
(4.95546e-05 4.3989e-05 -3.8343e-19)
(-0.00809638 0.0144583 -1.38098e-17)
(0.0250846 0.0249059 5.89577e-17)
(0.00165981 -0.000439361 -1.93769e-18)
(0.00169875 0.0338413 1.99834e-17)
(-0.0016281 0.00303127 -1.95042e-18)
(3.9463e-05 0.00176805 8.38664e-19)
(0.0321398 0.0417874 6.05151e-17)
(-0.00680468 -0.0425467 2.03797e-17)
(0.0035993 0.0444007 1.66452e-17)
(0.000174536 -0.000419442 1.32493e-19)
(-0.000599496 0.000174399 -4.5256e-19)
(0.24264 0.0365065 -5.01731e-17)
(0.000500096 -0.00356228 -2.10458e-17)
(0.0803758 0.0631121 1.47797e-17)
(-0.000505244 9.40663e-05 -2.31439e-18)
(0.000472199 -0.000614781 -1.08753e-18)
(-0.020184 -0.00437759 -5.89353e-17)
(0.0661141 0.199115 -7.57956e-19)
(0.00499401 0.00569847 3.16252e-18)
(0.00616182 0.0295814 4.33017e-18)
(-0.000566946 -0.00778875 -6.51e-17)
(0.000524203 -0.000262299 -3.08383e-18)
(1.64345e-06 -1.52257e-05 2.18041e-19)
(0.00115853 0.00064573 -1.28265e-19)
(-0.0154489 -0.0267781 -2.59096e-17)
(9.3475e-05 -1.71286e-05 1.38489e-18)
(-2.08375e-07 -3.64308e-06 3.37763e-18)
(-0.00770143 -0.0573684 1.16475e-18)
(-0.00074959 -0.00388455 2.50558e-18)
(0.0291739 0.00802959 -2.91785e-17)
(-0.000637242 -0.00508212 1.35913e-18)
(0.000240811 0.000108274 5.37697e-20)
(-0.00341401 -0.0457243 -3.00391e-17)
(6.25782e-06 -7.97811e-05 1.79554e-18)
(0.000333519 -0.000563532 -9.21349e-19)
(0.00114156 0.000557562 -4.75052e-19)
(0.00369755 -0.0035533 -7.10653e-18)
(-0.00161209 -0.066251 1.71449e-17)
(7.6407e-05 -0.000374403 -3.13193e-18)
(-2.39796e-05 -0.000242726 -4.62003e-19)
(0.000424605 -0.000294888 -7.12317e-18)
(0.000455624 -0.000241148 1.26202e-18)
(0.000248157 0.000104845 -6.35345e-19)
(0.000873413 0.00112111 -2.84609e-19)
(-0.015886 6.52553e-05 -1.12479e-17)
(0.00372737 -0.00381718 1.03384e-17)
(0.00183625 -0.00153854 -7.73154e-18)
(0.000140054 -0.000355051 -5.62397e-18)
(0.00347377 -0.0040412 -1.27998e-18)
(0.0124307 0.0115661 3.52678e-18)
(-0.00842326 0.00279577 3.59171e-18)
(-0.000886521 -0.00414796 -2.12808e-17)
(2.89089e-07 -6.23731e-06 -1.77663e-18)
(-0.000112996 0.000567704 -1.00209e-18)
(0.00289881 0.000325427 -4.12916e-19)
(0.00233601 -0.0631137 6.95669e-18)
(-0.108959 0.0300962 5.2377e-17)
(-0.00409863 0.000816426 1.11274e-18)
(-0.0334784 0.00284844 2.46284e-18)
(1.49502e-05 -0.000370066 -1.07903e-18)
(0.00271616 -0.00228596 4.14697e-18)
(0.0337511 -0.0155159 -2.52412e-17)
(3.63319e-05 -0.0104962 4.4972e-18)
(0.000265607 0.000969544 3.52762e-19)
(5.19527e-05 -0.000343702 3.15868e-18)
(-0.00136055 -0.0106407 7.31085e-17)
(0.00313371 0.0182219 -1.29087e-17)
(8.00025e-05 5.62133e-05 1.17754e-18)
(8.47633e-06 -0.000189677 -2.04858e-19)
(0.0257037 -0.016695 4.7674e-18)
(1.88016e-06 -1.09298e-05 -4.11613e-19)
(0.0154609 0.00444497 -1.95963e-17)
(0.000193291 -0.000267768 -1.17239e-18)