/*--------------------------------*- C++ -*----------------------------------*\
| =========                 |                                                 |
| \\      /  F ield         | OpenFOAM: The Open Source CFD Toolbox           |
|  \\    /   O peration     | Version:  v2012                                 |
|   \\  /    A nd           | Website:  www.openfoam.com                      |
|    \\/     M anipulation  |                                                 |
\*---------------------------------------------------------------------------*/
FoamFile
{
    version     2.0;
    format      ascii;
    class       volScalarField;
    location    "600";
    object      omega;
}
// * * * * * * * * * * * * * * * * * * * * * * * * * * * * * * * * * * * * * //

dimensions      [0 0 -1 0 0 0 0];


internalField   nonuniform List<scalar> 
9793
(
0.0223729
15.7045
0.0219368
2.624
0.0222597
0.20523
0.0831485
5.22191
0.0221406
14.7824
0.0221966
0.0221873
0.0219176
1.7525
0.0217844
0.0265208
0.0532852
0.0219321
2.17947
0.0215571
0.021625
0.0222917
2.65009
5.34226
1.83666
0.0265702
0.0220991
0.022262
0.0215674
0.079994
7.73356
0.379087
0.0220115
0.0219457
0.021868
0.0284906
0.0245767
0.0249278
1.5952
0.0307662
0.068785
8.84989
4.15612
0.0222717
0.0219609
0.0220421
5.88006
0.0222844
0.0217162
0.0219393
0.0282074
0.021851
0.0374381
0.0222686
0.0330814
2.19263
0.0219264
0.0905767
0.0217229
0.0222914
0.027016
0.0972398
0.0219519
0.0350997
0.0219629
0.0220671
25.7504
0.0242149
0.0250555
3.19142
0.0219722
0.102288
4.77278
4.15008
4.23258
0.0222624
0.0461351
10.6225
0.0219821
0.0222705
0.0491176
2.11939
0.0514246
0.0239416
0.0250789
0.242641
0.0222612
0.068222
1.60803
0.0934517
1.84282
1.39059
1.60594
0.0411248
3.90528
0.0219047
4.77066
0.0502245
0.0247261
0.0222685
1.45064
0.0356183
2.37462
0.0219661
3.50064
10.3289
4.09748
0.021878
0.0219861
0.0222835
0.0222335
2.17658
3.28765
7.42694
0.02195
0.0221125
0.0243945
0.0220503
1.86743
0.0220278
3.03517
0.0730225
6.7003
0.042189
0.0246082
0.0220335
0.0607252
6.076
0.187361
0.195653
0.0238315
0.0218011
0.0222697
0.0234177
0.0273717
0.160837
0.611138
0.0244372
0.0222737
0.0609304
2.24194
0.0276331
0.0219301
0.0556745
5.67828
0.626827
0.0220342
4.58376
0.0217973
0.0220282
0.0220697
14.7301
0.0242658
0.0220921
0.0219186
1.48636
0.0568019
0.0219469
0.553172
0.0219134
0.0641612
0.0239421
0.021632
0.350224
0.0220849
9.61093
2.31118
0.0222819
0.0218792
0.0222173
0.0219433
6.19754
26.9032
1.95629
0.021911
0.186374
0.136631
0.738979
0.021967
0.0241543
3.88158
7.14233
0.0801157
0.0220349
0.0220729
0.0218726
7.22612
4.62648
21.7548
2.50027
0.0219925
22.1761
0.412155
0.0254123
0.0217603
0.0232915
1.98565
0.0215941
0.02193
0.022204
0.0219907
0.0216252
0.0293046
0.0251635
1.7612
0.0219249
0.0280903
0.0222799
0.0223281
0.480581
0.0585605
2.39688
0.0216323
2.7638
0.0239627
0.0431341
0.0217972
0.15567
0.0221213
0.0503718
0.0537284
0.0216286
1.41719
2.06835
0.0394112
0.02189
0.0511496
2.08877
0.049562
0.0503175
1.60429
0.13834
0.0408241
0.0358167
0.366118
0.0215912
4.54833
6.33046
0.0216
0.0222223
8.3903
0.0219011
0.0222313
0.109669
0.121737
0.0220576
0.0241852
0.0291569
0.038162
0.0242563
0.0219732
0.0440302
2.93854
0.0216259
1.97564
0.022262
0.02217
0.021659
2.1226
0.0219773
2.64601
2.78187
0.0221032
0.022131
3.31285
0.0218349
0.0222397
0.0218002
2.51997
0.272749
0.0249375
0.442032
0.0847978
2.3001
3.93197
0.0223044
21.6346
0.0222643
2.09528
7.80185
1.64471
3.13347
0.134682
0.0238609
0.04751
0.0247723
0.0217945
0.0223851
0.469917
0.0267381
0.0221395
0.0222838
0.0216297
0.0216552
0.0216291
2.50909
0.0218684
0.0217751
0.0218416
0.0219195
5.44729
0.604741
0.0638969
0.0228653
0.0562032
0.0219478
3.18218
10.7531
0.0219713
3.22406
0.0332766
0.0219552
24.909
4.01495
0.0220194
0.0462209
13.2429
0.0221282
0.033913
0.0217755
0.0222151
2.24496
0.0409921
0.0219551
0.0220215
0.0227383
0.172796
3.34431
0.0219408
0.021872
0.0217473
6.90024
4.5444
7.32748
0.0215862
0.0433319
0.0347395
2.17477
0.0683855
0.0215863
0.0216442
0.0217477
0.0459904
0.022053
7.08904
0.0220881
0.0217769
2.61902
2.41461
2.41398
0.0217269
1.44401
0.0246778
4.10922
6.38461
1.67835
0.0236037
0.032004
0.72653
1.71037
2.09891
0.0264795
0.0222634
0.0253152
0.0216834
0.0218527
0.022034
0.0220813
0.022292
8.29443
0.0222065
0.0609223
0.0303618
6.12598
0.0215811
0.024028
5.2993
0.496985
1.86143
0.0664916
0.0217806
0.0236852
0.0219405
0.46205
0.0215651
2.33729
0.159879
0.0836018
5.91333
2.28724
0.0221373
0.0218899
0.995015
0.402225
0.021924
5.55173
0.0221313
0.0221756
6.75102
0.0216305
0.092238
0.0216014
2.36353
0.0220934
0.022097
2.67474
0.0965325
0.0530855
0.025399
0.0220746
0.0218322
6.08344
0.049954
0.0215693
0.0221946
0.0342582
0.0347201
0.0526229
6.89664
0.0221956
0.0219426
0.393647
0.0220812
2.55077
0.721966
0.0220646
0.0220164
0.0223521
0.0221163
0.0217322
1.47157
0.0508294
5.77028
0.028918
0.0233933
0.0424018
0.0246431
1.73327
0.0262656
0.0222678
0.0242282
0.519939
0.0219389
0.0219168
0.0219714
0.0215681
0.0219867
0.0217937
0.0220439
0.0221576
0.0228577
0.0247317
0.108875
0.0219318
1.46546
0.0256365
0.213796
5.02861
0.0218018
2.79267
0.0810788
0.0217694
0.0215684
0.0219346
3.5631
0.0863417
0.0215649
0.0221205
0.0221972
0.0674224
0.153477
10.4819
0.0219763
0.0219204
0.0316041
6.50722
1.60174
0.0236777
0.0233142
2.0533
9.57339
0.249633
0.0221716
0.0217887
1.66589
0.0219096
0.13451
7.11682
0.0215576
0.239495
0.0269964
1.42893
0.0218332
1.93167
0.290657
0.0260222
2.57326
0.0219076
1.93589
0.0220945
0.0218863
0.022223
0.021947
3.57575
0.0218994
0.0217053
0.0228174
0.0215956
0.0217894
0.0461211
0.022779
0.0344704
0.0220339
0.0220382
4.11127
0.0747489
0.0236294
2.01968
0.0243229
0.0221752
0.0219817
0.0217311
9.24848
0.0216955
0.0220691
8.1138
8.62827
0.0388764
0.0219252
0.0222842
0.0221323
0.022241
1.89291
0.0221742
2.87184
0.0242279
1.86369
0.022262
18.962
0.0222081
0.226519
0.0219161
0.0881951
4.12309
0.0221032
8.86348
0.0218993
0.0222182
0.0216149
4.8236
1.80838
0.0219432
0.0277879
0.021691
2.00499
0.0218205
0.0446877
1.84283
0.02523
0.0220264
0.0455508
0.0222451
0.0221809
0.0217647
0.101765
0.0219558
2.18937
0.0220518
0.02207
0.0390739
0.0768282
1.52094
0.0217633
18.0206
0.0218845
0.20193
0.0219151
0.022235
0.021905
0.0220496
0.0222682
0.21832
0.0409739
9.02522
0.110415
0.0352085
0.0342183
5.31451
0.0237089
1.84033
3.62735
0.262697
11.5796
5.3059
0.178301
0.0221874
3.41589
0.0387276
0.0221374
0.360891
0.0222509
0.458883
0.0358546
0.216004
0.0276076
2.09254
4.66142
0.0368295
0.197488
0.022216
0.652692
0.022863
0.0219195
0.0220388
0.0236164
0.0463044
1.55304
0.28688
4.70821
0.0234217
0.0234045
1.42037
0.355796
0.0230684
0.0612987
0.0223511
4.92718
2.7812
0.0220586
0.0641921
0.255087
4.85527
0.0219578
0.0257963
7.85619
0.0286307
7.81404
0.0916519
6.11416
0.0256781
0.0238169
0.0219157
0.0219191
0.254523
0.0222842
0.304923
0.131281
0.0806777
0.0222596
0.0222238
0.0236615
0.0221184
0.0218328
0.021903
0.100881
3.69276
1.87103
0.0222797
0.340679
0.0219504
4.10784
0.0463346
0.0470911
0.0341776
0.269555
0.0217475
0.0220604
0.0431384
0.0219086
0.0220815
0.0600563
1.48229
0.0216245
0.236065
1.70199
0.0244604
2.12623
1.77755
0.0218103
0.0545577
0.0271843
0.0219852
0.0216118
0.10272
1.696
4.68542
0.0219529
0.0220158
0.0216596
0.0248146
0.0228091
0.0237969
0.573688
0.046009
0.0221514
6.46415
0.0294098
0.0335544
0.0220371
18.9692
0.0237034
0.021918
0.0825031
2.10773
0.0215737
0.0220499
0.0219472
0.0254974
0.0217432
0.0375625
0.621592
0.0221574
0.101227
0.0228696
0.021986
2.15026
2.84878
0.358671
0.0220749
0.0215876
5.25115
0.0258518
2.32459
0.021552
0.0219002
6.60442
2.66573
0.0297486
0.0994588
0.0628848
0.0218862
0.0222717
0.02194
3.27513
0.0220571
0.0222928
1.58808
0.0274481
0.297265
0.0328062
0.0219358
2.59261
0.022268
0.0219105
0.0219291
0.0305727
3.44212
0.0221619
0.0219705
0.0219063
0.0218945
0.0219421
0.0219283
13.3965
0.0315281
0.0227815
0.0221098
0.0316292
0.0609587
0.0264664
0.0284849
0.0222839
0.021653
0.0232995
2.1584
2.45661
0.023243
4.56955
0.0222153
0.0252111
1.18979
2.20046
0.0217754
0.0221804
0.34514
0.0510283
0.021907
0.0222486
2.26089
0.0222681
0.068696
0.0220116
0.618837
0.0222475
0.0222424
0.0221268
0.0308592
0.0220711
0.0244793
0.0261031
0.16372
0.0218631
0.0219976
0.0222498
0.021881
0.0221489
0.0219612
0.0306787
0.0221112
0.0516916
1.96698
0.0427967
0.0630405
0.0222018
0.0217642
6.64343
4.50184
0.021602
2.05226
7.3929
0.0215937
0.0219662
0.0218774
0.0956461
0.0536603
2.43597
0.0218566
0.0250666
0.0218594
0.0222596
0.0222297
0.0856739
0.0221236
0.247624
0.0220931
0.0581012
0.0218937
0.0230892
0.0219102
0.038511
0.0601472
6.89671
2.86327
2.028
0.0476375
0.0218991
2.96863
3.76976
0.0613157
0.0220355
0.0220847
1.98508
0.0218698
3.15009
0.0216065
0.0293803
0.0221989
0.0222698
0.0217818
8.54959
3.21885
2.90229
0.0723571
5.27113
0.0219517
3.04406
10.3427
0.0222705
0.0220549
0.0217269
3.42266
0.0215527
5.09683
0.0323882
0.142001
0.0222478
0.987905
7.89189
1.70953
0.0294642
0.0318437
0.0220407
18.6595
0.0215323
0.606926
0.221076
0.0687377
9.8453
3.37202
0.0238792
0.0233735
0.021949
0.0968542
5.31315
5.24616
0.0217419
3.94955
0.0260086
0.120157
0.122659
1.50917
1.55384
0.0216375
0.0259941
0.0304125
0.0242045
0.0239444
2.63405
0.0221969
11.4047
0.0217608
0.0216168
0.0783853
0.109627
3.03847
0.0226063
22.884
14.3167
0.722002
0.026853
0.022233
0.0226098
0.022227
0.0219112
0.815726
1.87294
0.0221652
0.0219152
0.0317363
1.71186
0.0258359
0.0219224
0.435773
0.0219395
0.0222749
0.0215419
0.0597167
0.0220293
0.0249657
4.3526
0.0608258
0.0222599
4.26058
0.129252
0.021935
0.0230021
0.0337115
0.0222624
0.0219654
0.0217449
12.7857
1.93246
0.0221856
0.0352725
0.0361673
0.652719
0.021939
3.27489
0.0218616
0.0217498
0.693595
0.249226
0.0648506
0.0220141
0.0218949
5.74183
1.51508
0.289104
2.85792
0.0221027
0.0238053
0.0220151
8.26135
0.0241906
2.32032
0.0226859
0.0219235
0.0236235
0.02167
0.0218756
0.0641582
0.0217756
3.22822
0.0218007
0.0221674
0.0215606
0.024924
1.8216
2.7916
0.0520107
5.48026
0.0219809
0.0359887
0.0233081
7.9745
0.0218267
0.0216256
2.68475
0.0346008
0.0327564
0.0221115
0.222101
8.58872
2.35449
0.0221112
0.0343961
0.914166
0.0313781
0.894156
0.122671
0.0809127
0.0217618
0.0225527
0.0609656
0.0768338
0.021988
0.0999621
0.0217348
0.0221829
0.0222359
0.0217596
0.0219038
0.0219891
0.757961
0.0256886
0.02293
0.0458716
0.0217449
0.0219263
0.0380894
2.81716
0.0843501
0.0609971
2.309
0.0222339
9.37199
0.0292529
5.32461
0.0615043
0.0222018
0.022086
0.0234602
8.71959
1.73969
0.0506117
0.156462
0.0216499
0.0218914
0.022248
0.022201
7.6939
0.0255934
0.0219614
0.156991
0.288297
5.90702
0.0227283
2.51157
0.0557065
0.0401694
0.0320536
0.426757
0.247259
0.0222232
1.58484
0.284117
0.0387002
2.21948
0.0449706
0.0222086
0.0222638
0.0219109
0.0231125
0.0271382
18.719
0.0502646
0.0218705
0.296524
0.0220039
4.30902
3.35405
0.021957
27.9164
0.0217967
0.0217479
0.0220212
1.57011
14.7592
0.0484189
0.0312134
0.0217109
0.549227
0.0222313
0.0308619
0.0220906
0.0221257
0.0219083
5.22056
0.0227684
0.0420585
0.0289505
0.0222115
0.367877
0.133309
0.0340981
0.0252903
0.0237641
1.76269
2.59777
0.0218855
0.0217567
0.0218829
0.0225421
5.49013
12.8339
0.207649
0.0255786
0.0217796
9.34053
5.12136
0.022182
22.4804
0.0217064
0.0844187
11.805
0.0217373
6.43306
7.92312
0.125428
6.26754
5.63161
0.0218386
0.0226428
2.47523
1.51703
0.022521
4.87883
0.0249074
0.0219043
0.0222738
0.0231561
0.0398904
0.0251889
0.313414
6.46025
0.239737
0.0342017
0.0220789
0.0601634
2.18208
0.0217527
3.64085
0.0475167
0.0222198
0.024567
0.0222415
0.0221709
0.0314642
2.30142
0.0224754
0.0217881
5.175
1.53468
0.0699793
0.0222613
0.0558673
0.0219273
0.0219312
4.12331
8.56286
0.0219211
0.0214857
2.79851
4.40103
0.0481722
0.0222317
9.94733
0.0226957
0.0219278
0.0239468
0.0219321
0.0216437
0.0216183
9.68086
0.20137
0.0258609
1.61516
0.0449728
1.48721
8.47877
2.02108
0.158515
0.0219296
0.0222387
0.0223076
0.0219924
0.0748821
0.0218813
0.109093
0.029108
2.93513
0.0220465
1.52164
0.0361683
5.15165
0.0219246
1.74609
0.0299219
0.176406
0.255827
0.0309927
0.0216152
9.00281
0.0560391
1.57561
0.0215992
5.30142
0.0220265
4.62651
0.507178
0.0431985
0.021921
0.0220886
1.88037
7.04696
0.0317733
0.0215596
1.37662
0.085165
0.0447405
2.72134
0.0790604
0.0219088
3.74296
0.021915
0.0331107
0.021612
8.82614
0.0216193
0.0236018
0.319278
3.57032
0.0222218
0.0671105
0.0243467
0.0785254
0.0218795
0.344603
0.0234079
0.0637979
0.0219249
0.0219852
2.00835
0.0285415
4.74848
4.45268
5.15131
0.0227051
0.0216367
0.0217541
0.0256114
0.0367139
0.031235
5.56468
0.0235061
0.639628
0.0418516
0.022281
0.0219292
0.0690006
0.410252
8.91182
0.0219059
1.62124
0.0218624
5.26515
1.46055
0.0465997
0.0219951
0.0217264
0.0428862
1.79909
0.0242901
0.0222687
0.0238143
0.0446272
0.0228907
1.53212
2.0857
3.90342
0.0221561
0.0262686
11.111
0.0221866
0.0617707
0.0218012
0.811689
0.0363959
0.021949
0.0431313
0.185749
0.0219306
2.18021
0.0219142
0.138945
0.25446
0.469392
0.344023
0.0221662
0.0221814
19.3735
0.0221324
0.0399021
0.0826591
0.0235154
0.0215226
10.8859
0.0248671
0.40458
0.023413
0.0661986
0.0225096
0.402789
0.0252245
0.0246281
2.38289
1.17461
0.0220889
0.022273
0.164706
2.14685
1.94145
0.778227
0.0293155
0.02192
0.0217961
1.84857
0.0221382
5.54801
0.0986091
2.47932
0.022107
0.0217129
0.0217915
0.0429366
0.0458084
3.72534
1.56422
0.920302
0.224653
0.0216013
2.53174
0.0230075
0.0631616
0.0228715
0.0401664
0.0607923
0.0219239
0.0215697
0.0642433
0.0216313
0.0392138
0.0707632
3.33878
4.29195
0.0376988
1.78989
0.0217368
0.0216303
0.0220738
0.199852
0.0615143
0.0463112
0.112729
4.00818
0.0394593
0.155039
0.0218063
0.0220778
15.3376
0.0219098
0.290169
0.0214625
0.0218544
2.08912
0.332818
0.0218444
0.0800591
0.50836
3.4891
2.55778
0.0250451
0.0668548
0.0491366
4.90082
0.0220424
4.9407
5.67324
0.0236997
0.0259791
0.0216059
0.507921
0.0217306
0.0219825
1.58877
0.0222116
0.021559
0.203047
0.0589862
1.52636
1.51344
3.34256
1.85388
0.0216097
0.0219057
0.0218501
0.0222051
8.44631
0.0220625
1.74977
0.0229863
4.59453
0.0244618
0.0221031
0.0216781
0.0222154
0.0302981
0.0220279
0.0215123
0.338894
0.0218159
0.051395
0.0224434
7.03963
0.0245052
0.0220784
0.0219303
0.0531083
0.0219064
0.0217597
0.0220884
0.0222146
0.0245657
0.0218424
0.0233726
0.0315292
3.76353
5.27475
4.60151
2.50928
0.021763
0.0220047
0.0219207
0.0214249
0.021931
0.0217294
0.186619
0.0218541
0.0222517
0.0220683
0.0220424
0.0219354
6.90877
0.0241929
0.0219717
19.7798
0.0433073
0.0217089
7.94417
7.58132
0.0220195
0.462675
0.707214
0.0220284
0.0459081
0.0239376
0.0215541
0.027404
0.0220203
0.0400063
0.0220122
0.0222473
0.0217401
27.9716
0.0284659
0.0456392
0.0220321
0.0222653
4.58864
0.0257585
0.0220356
0.0238327
0.0241912
0.0222519
0.237177
11.6711
1.25101
1.56075
0.230355
0.0374248
0.0222597
12.1662
0.162311
0.0227365
0.0598098
0.0222932
0.0218954
0.0222464
2.87907
0.0463107
0.0219985
0.0220414
0.185539
0.0217248
0.435202
0.0219408
1.8573
0.228139
3.86998
0.0220792
0.0231939
0.0317918
0.0355655
0.0222493
0.0388272
0.0857766
5.33011
0.0219756
0.49595
9.54386
0.021562
1.8839
0.0434026
0.333719
0.106256
0.0219176
0.0277828
0.0405087
0.0216817
0.0250378
0.0215399
4.30429
1.79326
0.0326536
0.0218266
0.151182
0.0749325
2.82618
0.280626
0.0233388
0.0281072
0.0219467
0.0219144
0.0405796
0.0516422
20.0487
0.0218113
0.448821
0.022552
9.68667
0.179167
2.40793
0.0215973
0.0229332
1.99447
1.8033
0.043024
2.16992
0.0228805
0.221461
0.0219132
0.0218468
2.64545
0.522885
0.0248563
0.0220936
0.075223
2.16498
0.196099
0.0661716
0.0217678
0.0220139
0.0217138
2.39506
4.90984
0.0217489
0.0448787
1.84197
0.0747836
0.284011
1.64394
5.63919
2.20657
0.0217649
0.0227776
1.60631
0.0218905
0.0493061
1.55632
9.6258
0.023375
0.0302201
4.95881
0.627145
2.01495
5.04929
1.71973
1.4866
0.0221107
0.0216136
0.0219895
0.0225612
25.1957
0.0548192
0.369065
0.457552
0.0563304
0.0219409
0.439274
0.0216995
0.0304979
0.0219215
0.0406723
7.04919
2.22346
0.022071
0.0215983
0.0385434
4.72044
0.188267
7.2121
0.0445859
0.0220426
0.0833747
0.02146
0.0957339
0.0320155
0.021908
4.7127
0.172032
0.54999
0.0577975
0.0222276
0.0215737
6.39737
0.0252165
0.0216171
0.022145
0.0222559
0.0216803
5.57806
9.66292
1.96094
1.4102
6.19235
0.0239974
0.0219416
2.92854
0.0243274
0.0858911
6.53599
0.021866
5.31341
2.85091
0.0598532
0.0336804
0.794262
0.0230932
1.79051
0.0375754
1.99967
0.0218167
0.0228513
0.0408779
3.24992
0.11505
0.0682034
4.91589
2.1462
0.0717643
0.161392
3.28784
0.0241964
0.364529
18.4273
0.0358454
0.0631773
3.14097
0.0321241
0.0368435
0.0221033
0.0368126
0.0390766
0.05627
0.0220882
8.60249
0.162623
1.81708
5.18122
2.15017
0.0396483
1.59866
8.67953
0.0218458
1.15885
3.06103
8.44235
0.0278143
0.0242141
1.64087
9.44258
0.0216072
0.241999
0.0217504
0.021909
4.17473
0.0253854
2.28917
1.56837
1.88014
8.49834
0.0216175
0.0352164
0.0219838
0.0218429
0.11082
0.0570646
0.0264961
2.79647
1.84093
0.0222731
0.0261398
1.35145
0.0234234
0.397684
0.0478682
1.48565
1.48627
0.40822
9.18662
7.1109
1.80702
1.5041
1.72865
0.0312554
0.0251657
0.117145
0.120622
1.81546
8.33994
0.0221318
0.0226074
5.50711
2.32273
0.0247075
4.87422
0.0219214
0.819606
4.65879
4.78559
0.0219228
1.65195
1.55254
0.0268031
0.0346805
5.53138
4.89888
4.76981
3.61691
0.0219743
6.24871
1.61523
0.0406926
0.223485
0.108144
0.0217323
0.0265826
3.48741
2.33711
0.0245229
0.0221716
1.55978
0.0851657
1.8174
0.0743612
2.2258
1.53735
0.0219904
11.0823
0.0222852
0.0303116
0.0220418
0.0218217
0.0217017
0.0371802
0.287414
0.0214899
15.7886
0.0713391
6.92215
7.7764
1.9842
0.0219088
4.52981
1.52651
2.00678
0.034338
0.0219237
3.82932
0.411494
2.11154
0.055048
0.0234292
0.0216846
4.88236
5.35114
0.0333967
15.7847
0.0310249
0.02216
1.45612
0.0540084
20.0224
0.0218993
0.0295365
1.65953
4.69182
1.50131
0.220194
1.49077
1.70172
6.01297
0.0220474
7.75123
0.0477026
0.02183
0.02155
0.0219149
5.17626
0.0493182
1.5032
1.55768
0.0365038
0.152167
0.0786692
2.58751
0.263686
5.73554
4.91652
1.29942
0.0885728
0.0216454
0.690363
0.0566024
0.110612
1.44153
2.67781
1.71508
0.0220944
0.0240831
0.0485969
0.0220591
0.021954
0.0277134
1.53038
0.0286743
0.0253144
1.41555
0.0724971
0.309901
4.13762
1.57815
0.430193
1.95158
4.83043
2.23205
0.0627005
0.0311518
0.0220895
1.30334
0.106947
0.223887
0.0629237
0.0607612
0.0214484
0.17842
6.16588
0.0265604
0.0215819
0.0230599
3.73108
0.0218744
0.0220252
0.0624728
1.5475
0.0284604
0.0549381
0.177653
0.0304801
0.0590029
0.0218494
0.0219824
0.0411146
0.224857
0.0222111
0.0312009
0.270742
6.88707
0.0221027
11.5412
0.0218688
1.57026
0.0232252
0.0233728
0.0215486
0.180101
0.0342702
5.59194
11.7233
0.068166
0.0221618
0.0219389
5.61362
2.85332
0.0218027
0.246073
1.60264
0.0524391
0.0770928
0.0214224
0.0226387
0.0219228
1.48016
0.0422572
0.0220502
6.44194
0.0223309
0.0576528
0.259991
0.0217338
0.0967001
0.0599237
18.3709
0.0223887
0.0261512
0.0233749
0.0542312
0.0213994
0.0219053
5.80356
0.328988
0.0751278
0.0218756
1.89788
0.0223359
0.0223342
0.0219574
0.470276
6.28176
0.0237259
9.95167
1.53
0.0640664
2.98287
4.80717
5.09136
7.0284
0.0527512
0.0630922
0.216915
0.047919
0.0219505
0.0300563
0.0295132
7.89629
0.0220788
3.29071
0.0219774
0.40984
0.0910435
0.0227822
0.0229522
8.71808
11.4747
5.42771
1.57585
0.0218102
0.0668866
4.58506
0.0259084
9.76819
0.0406526
0.107156
1.66145
0.0340578
0.021993
0.124079
0.148433
0.0219129
1.50365
0.731773
0.0217058
0.0222394
0.0221212
0.0220094
6.56105
0.021976
0.0474256
0.0220248
0.0223376
0.0322664
0.021938
1.50554
0.0840012
0.0221251
0.0216221
0.110242
0.0233024
0.0551917
6.15629
4.8247
0.0532911
0.229537
0.0403952
0.0215891
0.136262
10.4385
0.0377615
1.48055
6.0778
0.074822
0.0386113
0.0280571
0.0666886
0.0377507
5.68376
0.0221131
0.0221383
0.0217982
2.3976
9.47334
0.0358231
0.098641
0.0218647
0.0265975
0.106935
0.271021
0.0219031
0.0597738
1.85984
0.087478
0.0219903
0.0219197
19.9261
5.56734
0.0219335
0.612724
0.0304153
0.198127
0.293763
0.0218598
2.95791
0.0289647
0.0220247
2.71653
0.202653
0.0219206
0.0221622
0.263165
0.0217668
0.0220409
0.152262
0.0418506
0.0453433
6.38541
0.0251788
0.0415133
1.79928
0.0218348
9.13408
4.71345
0.025044
0.0586354
0.177979
0.0219631
0.158735
0.0214645
2.19027
1.50701
0.0220037
6.5131
7.84525
0.02193
0.0219321
0.570875
0.0378133
1.58085
1.53318
0.022095
0.0429047
4.99154
0.02262
0.0479845
0.0683065
0.03368
3.01871
0.19716
0.0233243
0.225345
5.62833
0.0452783
3.10065
0.0219116
0.021547
0.0222675
0.0420469
4.92761
0.0220656
0.0331165
15.1827
2.67611
0.0222177
0.0296858
1.97464
1.57295
0.0222247
9.28465
0.0334456
0.0868474
0.0343492
0.0230434
0.0258419
0.0219485
0.0219616
6.11601
0.0219334
0.0519538
0.0219824
4.76198
0.0233118
0.0239525
0.0215857
0.0237163
0.0219831
0.04124
5.2298
1.02033
0.0377071
0.0422102
0.0219673
0.0315162
0.0511491
2.25375
5.25539
0.0218301
0.859749
0.0220228
2.30736
1.42334
5.07402
0.0218267
0.105934
0.0701186
5.87891
0.236599
0.0218397
2.54249
0.320647
0.0377515
3.18878
0.0221674
0.021987
0.0391736
3.45444
0.0219193
7.00283
0.0338385
2.42176
0.0893503
0.0223746
2.18998
0.0279725
0.0220808
0.269919
0.0219191
2.80125
10.3195
0.156675
0.0274872
0.152386
0.0219256
0.101444
0.0438562
9.63535
0.0220044
0.0216141
0.0267193
0.029393
0.0426703
1.88666
3.71174
0.0356863
0.225899
0.0218009
3.27459
6.12934
0.181127
0.0219171
0.0222602
0.0231486
2.76359
0.0220445
0.0261878
2.39149
0.0818216
0.021972
0.264575
0.0769132
0.0219878
0.0250252
0.11787
1.55095
0.0687932
0.0428691
1.97497
1.533
0.418181
0.0265176
0.0220961
0.0242963
0.024599
0.137418
0.0559987
0.0273142
0.0754934
5.29809
0.0240249
0.0219952
4.87747
0.30281
1.74073
0.178803
0.0256103
0.0236673
0.0235325
0.021757
0.0218776
0.0427181
0.0215428
0.0228813
0.0220191
0.0228888
0.0234771
0.0219469
0.0384227
0.0359384
0.0220678
0.021934
0.0221191
0.0226963
0.0223091
0.246051
0.0220573
0.0233735
1.43431
0.0216875
0.0231572
0.0222236
0.0270288
4.86556
9.90318
2.57154
2.9854
2.94058
0.200434
0.0218719
0.0577423
0.021981
0.690736
0.0230912
0.0292476
0.022152
0.0530071
0.0219597
0.0305774
0.0217805
2.50029
0.161834
0.0220785
4.31194
2.74496
0.02213
0.087662
0.0219511
0.02159
7.29162
0.0221014
0.0639243
0.189982
0.022105
0.0215494
0.0712722
1.66201
0.0249364
0.0233602
1.48765
0.0219438
3.82906
0.0490965
9.2715
0.0216662
1.55287
0.0219106
0.0221358
0.230421
0.057121
2.29868
1.75221
6.65549
2.77004
0.164844
0.135629
0.0220461
0.132631
0.0220009
0.0218197
0.0924047
0.0219091
0.0219831
0.0215983
0.0216089
0.0547547
4.64453
1.50324
0.394495
2.63152
0.0234706
0.0301934
0.0227785
0.0226909
0.0727586
0.0220109
0.0217218
0.0218095
0.0235999
0.02311
0.201086
0.0793545
0.045478
0.0221088
0.0541115
0.0551723
1.98719
5.25147
0.0246361
0.0386208
0.0220883
11.9006
1.64459
0.0219189
0.0219336
0.0243376
0.0222129
0.622997
0.277043
4.59653
0.0220973
3.52072
0.022069
2.6962
0.0493204
0.0218102
0.0279282
3.61932
0.0268432
0.0276617
0.0296159
0.0799568
4.4346
0.0217547
0.0219153
0.0278296
0.156527
0.0218521
1.98937
3.55438
0.0219485
0.0214178
6.18144
0.0628219
0.0219174
5.05537
15.5472
2.23184
3.68413
0.0276509
1.96149
0.0220712
4.71946
3.05966
0.80614
0.0624044
0.0237941
5.18115
0.024876
0.0218672
0.0214465
0.480417
0.0216298
5.7622
0.0226204
0.022126
0.0249212
1.51086
0.0237589
0.022744
0.0220735
9.58565
4.05563
11.2618
1.61417
0.0409128
0.0219204
0.0240617
0.231906
0.108939
0.0219874
0.0483478
0.189879
3.89136
0.0219307
4.04425
4.78699
0.0372505
0.0220629
0.0237135
0.0219515
0.0217308
0.0219386
0.0220317
0.0221578
0.0955042
0.0220954
0.1188
0.0225445
0.0226403
5.07074
0.0660908
0.0233966
0.0227312
2.18556
0.0215494
0.0227469
0.0259235
0.0218147
1.93357
0.0306739
0.0226951
0.0439636
0.0219385
0.0270248
0.0218078
0.139203
0.0218191
0.0218981
6.42071
0.0234844
0.177881
0.0326436
0.0236889
0.0799383
0.0214037
0.022088
0.022588
5.23737
0.0237245
0.0219167
1.91765
0.0219631
0.0216179
0.021884
0.733959
0.0318881
0.131585
0.0332703
0.0305461
0.0493125
0.0237655
0.0269666
0.0471166
2.28798
0.0222101
0.0282253
0.0217938
0.252447
0.199702
0.0219046
0.028626
2.90406
0.0297034
0.0215413
7.24242
0.0257187
0.0808138
2.36878
0.0280704
0.0218869
0.029032
0.0219179
0.024185
0.0219052
0.0232576
0.0257834
0.0219701
0.0220681
0.0316655
0.0221199
0.0896163
0.0218974
0.0236417
0.021922
0.0292302
1.55679
0.0220539
0.0219757
0.0971191
0.0230982
0.0219306
0.259475
5.76883
2.97007
0.0220428
0.0243437
0.034314
0.0222447
0.0221251
0.033104
0.184107
0.0215309
0.0524918
0.0219615
0.0218896
0.0217484
0.0215214
0.0227783
0.0422698
0.0332917
0.0266213
1.67216
0.024083
0.0278634
0.0217176
2.13342
3.57967
2.53537
0.0220195
0.0459089
0.0279606
0.0219895
0.02212
0.0409903
1.5341
2.39533
0.0219194
0.02733
8.3207
0.0227173
0.177314
5.4313
1.61804
0.0289
0.0219784
0.0379169
0.0430157
0.148081
11.1287
8.11484
1.57317
0.0226741
0.0221737
0.0219214
0.101636
0.0219076
0.0216818
0.0371093
0.021903
0.0218663
0.0218774
0.0515724
0.0219462
0.0217755
0.0219724
2.40619
0.0215373
0.022012
0.0221066
0.0225726
0.0219389
0.0712459
0.0665559
6.81566
0.0215753
0.0280907
0.108619
5.34552
2.38124
0.0221901
0.0222752
0.0518125
0.0943267
0.0256974
0.360625
0.0219299
3.86012
0.0222781
1.4826
0.0227617
0.0219128
0.0432868
0.0219369
0.0219755
0.022691
0.688687
0.0243354
0.0224175
0.0221782
0.0219526
0.0390497
0.0219512
0.0219177
0.0258114
0.101433
0.0242015
0.021855
1.47264
6.37004
0.0219662
0.901001
0.022143
0.0297108
0.0740309
0.20594
0.0233758
0.0229219
0.022052
0.264016
0.0282409
0.0221649
0.0219023
0.0231683
0.149692
0.0220758
0.0341738
0.0238013
0.0347328
0.0500532
0.0371293
0.087557
3.59445
0.0248621
0.0220389
6.8371
0.329911
0.0219307
0.021486
0.0220632
0.0219615
0.0219066
0.0238284
0.0216691
0.0220785
5.12273
1.55673
0.0316024
0.0219339
3.08961
0.023786
0.0216979
5.87116
0.0236931
0.0216439
0.0220942
0.0220369
0.0359836
0.0220322
0.0541831
0.0219211
0.0217793
0.0219445
0.0318378
0.0351462
0.0218936
0.0553464
1.50149
0.0231039
0.0218921
0.0602953
0.0217097
0.0219843
0.0218602
0.0299792
0.0220521
4.63086
0.022287
0.232534
3.14716
0.0548092
0.0232867
0.02225
0.0220157
0.0219383
0.0292838
0.158845
0.112702
0.0218071
0.0237578
4.95186
0.0215809
0.167995
0.0219653
0.0231614
0.0306146
0.0611657
0.0219567
0.0331044
0.0279188
0.0574658
1.45454
7.63056
0.0218664
0.0219269
0.0323783
0.0227682
0.0226019
0.0489466
0.0226916
0.0980336
0.0217806
0.0689656
0.022106
0.0795792
0.0558204
1.47309
5.16738
0.021922
0.0381199
0.884434
0.203871
0.0215906
0.0217742
0.125092
0.0219419
0.0219271
0.0217396
0.0215087
0.0698344
0.0707258
20.2158
0.0220201
0.0433802
0.022255
0.0215828
0.0230162
1.73516
0.165359
0.0219125
0.0221002
0.0218373
6.71509
0.0220078
0.0219322
0.022428
0.0219451
0.0427557
0.0218336
1.84682
0.0219858
0.0225769
0.0223323
0.0218899
0.0217374
0.0220075
12.3069
0.0217804
0.021939
0.230981
0.0218834
0.0220425
0.0221116
0.0221559
0.0529861
0.0219029
0.0219748
2.46618
0.0235382
0.0220381
0.0222312
0.0215153
1.5553
0.02293
0.0221788
0.0218984
0.0258679
0.021969
5.40443
0.0217941
0.0220108
6.09339
0.0219769
0.0610053
0.0221591
0.0214071
0.0215028
0.0304516
0.037083
0.0218406
0.0222862
0.0239864
0.0219044
0.0221106
0.0220736
0.0218705
0.021747
0.021815
5.93363
0.0219589
0.0218353
1.87293
0.021937
0.0266565
0.12083
1.60456
0.0218133
0.0220457
0.0219595
0.0216318
0.0228991
0.038565
0.0238339
0.0364551
0.0217635
0.025449
0.0219742
0.0214707
0.028025
0.0578124
0.0234784
0.0289434
0.0220262
0.021959
0.0221201
2.2416
0.0235008
0.0220117
3.79269
0.0229455
2.57925
0.0220632
0.0219329
0.0217311
1.5982
0.0219337
0.0249084
0.0229278
0.0220724
0.0219654
0.0220882
0.0220062
0.0242196
0.0218993
0.0386704
0.0222479
0.0386448
0.0214938
0.0216278
0.0238775
8.29614
0.0221482
0.0220483
0.0225568
0.0219242
0.0240526
2.08667
0.0226999
0.0270545
1.94638
0.683245
0.0226554
0.0227125
0.146557
0.0899778
0.0231451
0.0221146
0.0218786
3.97831
0.0226249
6.06225
0.0216889
0.0215364
0.0221045
0.0219052
0.0231367
0.0215809
0.0219877
0.0222651
0.0583798
0.0237198
0.0225259
0.0216235
0.347074
0.0619592
0.0215085
0.0221043
0.0233924
0.022239
0.0220586
0.0215846
1.48676
0.0215973
0.021928
0.0660304
0.0215745
2.04494
0.0218215
0.0429036
0.0272316
0.0219685
0.0215341
0.0219209
0.0221645
0.0220428
0.0217698
0.0216139
2.14019
1.62872
1.87649
0.0216074
5.00195
0.0219579
0.0547931
0.0219193
0.0219236
0.0221091
5.78336
0.0219474
0.0219061
0.0221259
0.0219546
1.61812
0.0219275
1.74139
0.0214442
0.0224887
2.51236
4.86242
0.0219827
0.0219571
0.026766
0.0220163
0.140233
0.02175
0.570354
0.0217631
0.0352837
0.0221391
0.021815
0.0219424
0.0219475
0.0231262
0.0218725
0.0307634
0.0347258
0.118278
0.0217324
4.38995
0.0218951
12.6593
0.0219092
5.54692
1.26046
0.0217471
0.0219093
0.0215938
0.0218592
0.0220438
0.0220241
0.0215825
0.0224926
0.0214377
0.0864891
0.0221106
1.50612
0.0215743
0.021528
0.0219254
0.02192
0.0226542
4.13853
0.0230122
3.03392
0.02154
0.0221189
0.034728
0.0215806
0.141504
0.0231928
0.0219295
0.0394189
0.0215037
0.0219717
0.0224118
0.0217026
0.0286494
0.0398288
0.0216318
0.0221124
0.0220458
6.3738
0.0233763
0.0215789
4.70956
0.0514662
0.0216215
0.0219178
0.153737
0.0228106
0.021436
3.80748
0.212145
0.0228203
0.0214423
0.0222398
0.0351684
0.0215651
0.191523
0.0216135
0.0216766
0.0410281
0.0523812
0.0216075
0.021608
0.0215022
0.0217302
0.0217421
0.0408314
0.0219701
0.0217499
0.022111
0.0218469
2.92346
0.0222722
3.21924
0.0262452
0.0277395
0.0221421
1.75627
0.0219085
1.91622
0.0215265
0.0219595
0.453875
0.0219721
0.0227915
0.0216533
0.0247283
0.0217035
0.0269176
0.0215652
2.63865
0.0221584
0.0215727
0.0215327
0.0215714
0.101265
0.021776
3.84419
0.0219163
0.0247863
0.0214977
0.0220168
0.213409
0.0219995
0.107408
0.0218145
0.0230407
0.022123
0.0221329
0.0224218
0.0219167
0.0219824
0.256493
0.0215693
0.021947
0.0225156
0.022057
0.0220541
0.032713
0.02186
0.021917
0.0218474
0.021619
0.0217612
0.0219962
10.6927
0.189124
3.5594
0.0214331
0.0235994
0.0221258
0.0263887
0.11692
0.222896
0.0318844
0.021567
0.0219781
0.0219546
0.0221438
0.0221145
0.0219112
2.60817
0.0505161
0.0219285
0.440413
0.0221369
5.80709
0.0219626
0.0218914
0.0218028
0.0215629
0.0214807
0.021836
0.0216565
0.0217899
0.0414975
0.0228812
0.0219161
1.75076
0.0215634
0.0227192
0.0219866
0.0215965
0.0219243
0.303465
0.021786
6.59402
0.0219086
0.0215937