/*--------------------------------*- C++ -*----------------------------------*\
| =========                 |                                                 |
| \\      /  F ield         | OpenFOAM: The Open Source CFD Toolbox           |
|  \\    /   O peration     | Version:  v2012                                 |
|   \\  /    A nd           | Website:  www.openfoam.com                      |
|    \\/     M anipulation  |                                                 |
\*---------------------------------------------------------------------------*/
FoamFile
{
    version     2.0;
    format      ascii;
    class       volScalarField;
    location    "600";
    object      p;
}
// * * * * * * * * * * * * * * * * * * * * * * * * * * * * * * * * * * * * * //

dimensions      [0 2 -2 0 0 0 0];


internalField   nonuniform List<scalar> 
9793
(
0.0597147
-0.347665
0.0302187
-0.298828
0.0231657
-0.290588
-0.158319
-0.471341
-0.00948471
-0.347459
0.0184166
0.0184094
0.014174
-0.293779
-0.0064836
-0.0526845
-0.164129
0.0267699
-0.358581
-0.0047069
-0.00965822
0.0227205
-0.297319
-0.473016
-0.292513
0.0928141
0.0185467
0.0143899
-0.00459286
-0.19931
-0.523212
-0.342804
0.0262015
0.0228116
0.00654474
-0.0829851
-0.0480188
0.106844
-0.332001
-0.0848554
-0.186461
-0.383889
-0.400518
0.014289
0.032229
0.0278089
-0.458565
0.0205146
-0.0167644
0.0272745
-0.0822158
0.00628665
-0.117215
0.0205434
0.100028
-0.302104
0.0133688
-0.193275
-0.0167746
0.0207602
0.117944
0.0994775
0.0282961
-0.0913589
0.00950253
-0.00838488
-0.464396
-0.0489729
-0.0482011
-0.372059
0.0437715
0.356041
-0.460013
-0.0600382
-0.370976
0.017891
0.187838
-0.452238
0.028519
0.0220464
0.199071
-0.361731
-0.156857
0.0305737
-0.0495751
-0.320486
0.0222856
-0.132841
-0.33115
0.119781
-0.300872
-0.417734
-0.418824
-0.10435
-0.394856
0.0236982
-0.373494
-0.153358
-0.0380943
0.0229668
-0.30846
-0.112197
-0.185456
0.0316685
-0.370071
-0.44745
-0.0372626
0.00935786
0.0287097
0.0229504
0.0150654
-0.298098
0.50963
-0.539985
0.0428132
0.0227099
-0.0355399
0.0270711
-0.307035
0.0285501
-0.360477
-0.142618
-0.369792
-0.130451
-0.0493285
0.0284213
-0.174987
-0.521217
-0.166162
-0.158159
-0.0496014
0.00813773
0.0577536
-0.0415438
-0.0769949
-0.253351
-0.320572
-0.0372252
0.0177126
-0.181056
-0.365573
-0.0809735
0.0357085
-0.122791
-0.449815
-0.262963
0.0285732
-0.376355
0.00856599
0.0286805
0.0212983
-0.542312
-0.0350427
0.0188611
0.0385886
-0.419714
-0.171976
0.0280521
-0.351911
0.0376779
-0.131787
-0.05169
-0.00945349
0.246927
-0.0260608
-0.434083
-0.224091
-0.0292408
0.00906398
0.0187643
0.0367357
-0.540101
-0.523216
-0.320409
0.0137972
-0.279781
-0.0873973
0.221257
0.0287099
-0.0497993
-0.370497
-0.452918
-0.144322
0.0281122
0.0266249
0.00895138
-0.368036
-0.464629
-0.509024
-0.175453
-0.00582673
-0.335369
0.428018
0.10585
-0.0180261
0.0544003
0.506429
-0.00262942
0.0269613
0.0224605
0.0462914
-0.0115344
-0.0858043
-0.0593061
-0.328103
0.0421028
-0.0723979
-0.0302776
0.0498314
0.0250265
-0.173187
-0.37079
-0.00109958
-0.371322
0.0353456
-0.0464375
-0.00651023
-0.255062
0.0226777
0.246378
-0.161765
-0.0115045
0.367011
-0.304874
-0.0962549
0.0242741
-0.149274
-0.284482
0.230612
0.230683
-0.318464
-0.161281
-0.0486819
-0.0947642
0.430338
-0.0127374
-0.310985
-0.540623
-0.00238207
0.0230442
-0.375914
0.0329424
0.0152441
-0.197174
-0.214604
-0.00640028
-0.0521079
-0.0770833
0.0446511
-0.0536222
0.0289315
-0.082628
-0.319953
-0.0107321
-0.313944
0.0203196
0.0187125
0.000389953
-0.304767
0.0311857
-0.442842
-0.365501
0.0148707
0.0223204
-0.434559
0.000315447
0.0216131
-0.000660317
-0.368643
0.263961
0.0810455
-0.0378346
-0.193452
-0.211686
-0.300542
-0.0305908
-0.390113
0.0198318
-0.283335
-0.201512
-0.324096
-0.361728
-0.165606
-0.0500367
-0.148895
-0.0570752
-0.0184099
-0.0322403
0.0193424
0.0958365
0.0223449
0.0132839
-0.00137263
-0.00374803
-0.0105494
-0.298208
0.00959235
-0.00439034
-0.00362634
0.0135267
-0.32894
-0.276902
0.289066
0.0746343
-0.128142
-0.00363009
-0.0278896
-0.532083
0.0314938
-0.368715
-0.091473
0.0324061
-0.346012
-0.0388283
0.0257673
-0.084777
-0.338583
0.0448466
0.179461
-0.00561319
0.0504282
-0.290646
0.09228
0.0228343
0.0283388
0.0721631
-0.160015
0.494903
0.0304804
0.00930657
-0.0151265
-0.539182
-0.370342
-0.544431
-0.0123263
0.0886099
0.183648
-0.130128
-0.182964
-0.0126206
-0.0144977
-0.0144963
-0.14307
0.0266903
-0.517125
0.0246085
0.00569034
-0.255901
-0.300638
-0.367026
-0.00373796
-0.312404
0.0271729
0.249814
-0.505245
-0.319762
0.017691
-0.0876406
-0.322005
-0.30157
-0.299295
0.1205
0.0150567
0.0856851
-0.0157847
0.00872435
0.0274834
0.0180623
0.0130393
-0.5251
0.0187479
-0.177089
-0.0849884
-0.340052
-0.0124128
0.0281251
-0.302959
0.459264
-0.295392
-0.176024
0.00593746
0.0150672
0.0295609
-0.317089
-0.00197805
-0.366252
-0.0479973
-0.148546
-0.541003
-0.29069
0.0147412
0.0227341
-0.326086
-0.325447
0.041978
-0.506517
0.0148856
0.0220612
0.0113234
-0.00113264
-0.198563
-0.0128566
-0.249912
0.0243541
-0.0264021
-0.279932
0.341614
-0.0555361
0.105573
0.0144704
0.0155343
-0.363901
-0.149083
-0.00995271
0.0235984
0.108226
0.180563
-0.0503881
-0.445056
0.0227426
0.0232657
0.182083
0.0142593
-0.320083
0.19614
0.0268663
0.0251122
-0.0312634
0.0147225
-0.0146788
-0.310133
0.245244
-0.443222
0.135795
-0.0379363
-0.130915
0.103165
-0.307337
0.114184
0.0233483
-0.0509644
-0.26471
0.040904
0.0386879
0.0454694
-0.0017553
0.0204719
-0.0018959
0.0273936
0.0147538
0.0445271
-0.0568917
-0.193548
-0.00312414
0.497658
0.0935813
-0.07162
-0.301866
-0.0187357
-0.242577
-0.153028
-0.0182158
-0.00190512
0.0345178
-0.353459
-0.198028
-0.00203596
0.0247605
0.0222517
0.27105
-0.0891582
-0.444005
0.0097532
0.038576
0.151039
-0.461784
-0.321683
0.0826682
-0.0435407
-0.313558
-0.425991
-0.253371
0.0413324
0.00692293
-0.330044
0.0258272
-0.111596
-0.338547
-0.00951949
0.247711
-0.06638
-0.308676
0.0152032
-0.353435
-0.332011
-0.0521282
-0.421766
0.0244356
-0.11424
0.024999
0.0212595
0.0184923
0.0269678
-0.372161
0.0236704
-0.0160068
0.0711323
-0.0123361
0.00734243
-0.0727604
0.0297372
-0.0944239
0.0128326
0.0129661
-0.305057
0.316648
0.0803628
-0.320348
-0.0544437
0.0321269
0.031023
-0.0153096
-0.542472
-0.0158653
0.0111943
-0.490483
-0.383493
0.0316684
0.0140566
0.0225005
-0.0227781
0.0201338
-0.309403
0.0468155
-0.137514
-0.0481831
0.395526
0.021817
-0.468147
0.00249471
-0.185887
0.0273334
-0.0931472
-0.316665
0.0248112
-0.367505
0.0307273
0.0125771
-0.00916392
-0.367441
-0.3272
0.0356723
-0.0707603
-0.0158007
-0.306844
-0.00300906
-0.0898893
-0.354595
0.10895
0.0107263
0.175687
0.0137142
-0.0244292
-0.014356
-0.182345
0.0101743
-0.307437
0.0133088
0.0232623
-0.0910053
0.181489
-0.307007
-0.00361986
-0.459786
0.0220228
-0.114179
0.0359374
-0.0292306
0.0252382
0.0135178
0.0225022
-0.116702
-0.0535491
-0.371855
-0.245901
0.167621
0.086116
-0.01701
-0.0444391
-0.308605
-0.388821
-0.193328
-0.494918
-0.334655
-0.136026
-0.0249674
0.501446
-0.0874475
-0.0273892
-0.218513
0.0138174
-0.0263014
0.0289571
-0.274283
0.132084
-0.300638
-0.407214
-0.089235
-0.264288
0.0228614
-0.194653
0.0774471
0.0271176
0.0296609
-0.0324324
-0.140265
-0.321879
-0.00911172
-0.43479
-0.0396039
0.0547018
-0.306596
0.435604
-0.0413103
-0.171332
0.0510254
0.170739
-0.270985
0.0268113
0.285586
0.184624
-0.403201
0.00937577
0.0870142
-0.374561
-0.0812153
-0.364923
-0.10185
-0.321377
0.0587239
-0.0456524
-0.00756965
0.0378759
-0.153792
0.0210405
-0.156253
-0.263685
-0.119395
0.0131544
0.0146248
-0.0379248
-0.0227439
0.00627231
0.0336356
-0.234558
-0.347445
-0.291632
0.0149671
-0.283043
0.0144736
-0.392968
-0.12015
0.205715
0.177746
-0.326206
0.00346624
0.0213354
0.163724
0.0267531
-0.0212736
-0.175348
-0.299081
-0.0120251
-0.164654
-0.331907
-0.0557209
-0.288732
-0.337357
-0.00250459
-0.16517
-0.055116
-0.00431495
-0.00853865
0.316647
-0.32878
-0.437259
0.0417715
0.0286704
-0.00634586
-0.0346105
0.0267696
0.0373323
0.318768
-0.116418
0.0148884
-0.417641
-0.0865368
0.159686
-0.0211482
-0.530224
-0.0478667
0.00871409
-0.131644
0.511219
-0.0106122
0.0274496
0.029032
-0.0492776
0.00334562
-0.0932569
-0.332997
0.0199826
-0.180051
-0.03932
-0.0193785
-0.31605
-0.375652
-0.244622
0.0209527
-0.0114489
-0.251708
0.109635
-0.192061
-0.01014
0.0316989
-0.538372
-0.144451
-0.0795854
-0.197852
0.286405
0.0234831
0.0132622
-0.000243447
-0.387171
0.011082
0.0131992
-0.302678
0.127516
-0.334056
0.171433
0.0136731
-0.369626
0.0195933
0.0337393
0.00110707
0.0796048
-0.299806
0.0184525
0.0316933
0.0270684
0.0244239
0.0142208
-0.00735211
-0.504376
0.0853068
0.0450822
0.0177681
0.0945816
-0.18066
-0.0503672
0.135363
0.013104
-0.00630117
0.0047158
-0.32386
-0.298783
-0.0359249
-0.43235
0.0232883
0.0599698
-0.403384
0.494677
-0.00798906
0.0187398
0.418999
-0.147951
0.00844752
0.0218374
-0.31363
0.0129425
-0.178362
0.0255638
0.462366
0.0213632
0.00163235
0.0244608
-0.0597473
-0.0217159
0.0798327
0.11689
0.379301
0.00989121
0.0200907
0.013137
0.0206303
-0.0253693
-0.0233897
-0.0874815
0.0249314
-0.133189
-0.290823
-0.135878
-0.182508
0.0229286
-0.0149505
-0.54173
-0.188547
-0.0081947
-0.291694
-0.518451
-0.0117275
0.0318631
0.0156051
-0.184628
-0.132244
0.503951
0.0090791
-0.0178894
0.00804
0.0511307
0.00130649
-0.105925
-0.025404
-0.316497
0.0206006
0.0454487
0.0105866
0.0510984
0.0354508
-0.0548306
0.262015
-0.49323
-0.056234
-0.290542
-0.14355
0.0319551
0.026974
0.508391
-0.14359
-0.0229432
0.0183875
0.491526
0.0152268
-0.29926
-0.0132332
-0.0738565
-0.0281271
0.0240815
-0.00787283
-0.360726
-0.382565
-0.299438
0.306384
-0.541454
0.0273386
-0.347487
-0.457045
0.0128356
0.0242912
0.00234306
-0.313994
-0.00897467
-0.434673
0.156989
-0.260251
0.00639955
-0.365858
-0.430836
0.510822
0.0655408
-0.096911
0.0109255
-0.533448
-0.00962617
0.409238
-0.300592
0.148589
-0.417033
-0.369115
-0.0505852
-0.00164059
0.0101449
-0.0794957
-0.45991
-0.540398
0.00304931
0.332104
-0.0477559
-0.208924
0.364773
-0.300823
-0.298048
-0.0142966
0.0955828
-0.0884238
-0.0477575
-0.0388796
-0.297655
0.0217463
-0.479025
-0.00287654
-0.0135428
-0.162956
-0.208885
-0.30268
-0.0306106
-0.501286
-0.5056
-0.382453
0.123489
0.013197
-0.0292071
0.0131005
0.0370107
-0.377321
-0.175112
-0.0115082
0.0367126
-0.0902778
0.486572
-0.0104579
0.0375047
0.449433
0.0285094
0.023987
-0.0100875
-0.124134
0.0280131
-0.053814
-0.296205
-0.180427
0.00280754
0.364187
0.36136
0.0281326
-0.0350796
-0.104779
0.0128694
0.0152246
-0.00327611
-0.503674
-0.039355
0.0185428
-0.110059
0.192385
-0.196616
0.0414702
-0.361611
0.0088285
0.00342789
0.453654
-0.287599
-0.177773
0.0302231
0.016365
-0.441471
-0.314271
-0.270045
0.299097
0.0179985
-0.0338429
0.0263692
-0.535957
0.0755838
-0.252219
0.0716118
-0.00486375
-0.0390504
-0.00154596
0.00874166
0.0308224
0.00539304
-0.35515
-0.000885214
0.0482596
-0.010593
-0.0521274
-0.293154
-0.298467
-0.115777
-0.53014
0.0159442
0.019153
-0.0436707
-0.355552
-0.0189414
-0.0139669
-0.184102
0.0956588
0.146101
0.0183476
-0.244357
-0.372941
-0.363809
0.0394429
0.170603
0.379301
-0.0800908
-0.398401
-0.254117
-0.167138
-0.00927919
0.0692502
-0.136302
0.160198
0.0157153
-0.0892389
0.00276002
0.0223163
0.0313586
-0.000699318
0.0331648
0.0305569
0.327112
-0.0202002
-0.0303417
-0.0725609
0.00255648
0.0347654
-0.0748256
-0.368346
0.297525
-0.166076
-0.291301
0.0146873
-0.528458
0.0160669
-0.538881
0.00696622
0.0237449
-0.0244932
-0.0460411
-0.540408
0.479763
-0.0847146
-0.0578377
-0.00561498
0.0247928
0.0203265
0.0233595
-0.507847
-0.0613757
-0.0190245
-0.271064
0.403594
-0.362871
-0.0281185
-0.1902
0.272597
-0.128263
-0.0841599
0.407732
-0.24759
0.0107582
-0.298061
-0.280764
0.207581
-0.358842
-0.135716
-0.027526
0.0127822
0.0347403
0.0472568
0.122916
-0.521683
-0.142682
0.0068725
-0.32533
0.0136751
-0.332805
0.485681
0.0150037
-0.51658
-0.000317522
-0.00827833
-0.0243993
-0.295476
-0.520954
-0.127589
0.152108
-0.0165182
-0.360677
0.0125941
-0.0528833
0.0178485
0.0542912
-0.0175498
-0.351125
0.0483836
0.209977
0.0225674
0.0155517
0.212728
-0.248815
-0.0860766
0.0283919
-0.0487271
-0.353183
-0.262935
-0.0207041
-0.00179451
-0.0204809
0.0323847
-0.423439
-0.493985
-0.306172
0.0335785
0.00611154
-0.405569
-0.242367
0.0160193
-0.518909
7.82557e-05
-0.213502
-0.52556
0.00230208
-0.433735
-0.525297
-0.238904
-0.516001
-0.352415
0.0165103
0.0485601
0.278673
-0.320493
0.0457818
-0.530131
-0.041851
0.0324573
0.0238192
-0.0430477
-0.125323
-0.050274
0.401303
-0.510309
0.341846
0.165336
0.0113749
-0.107788
0.515838
-0.000169304
0.422047
-0.120991
0.015371
0.0301925
0.0149248
0.0433572
0.142137
0.440034
-0.0334572
0.00575251
-0.543285
-0.305598
-0.153881
0.0213379
-0.167367
0.0340067
0.00864459
-0.345221
-0.439617
0.00927861
-0.00472499
-0.345388
-0.327357
-0.125025
0.0473173
-0.437215
-0.0368614
0.0117405
-0.0297605
0.00958001
-0.00561522
-0.00179515
-0.415243
-0.122525
0.0340149
0.331898
-0.127905
-0.313266
-0.370435
-0.353375
-0.246513
0.0404827
0.018521
-0.030211
0.0110147
0.11693
0.0106054
0.34884
-0.0800509
-0.315911
0.0245459
-0.302171
0.188522
-0.508155
0.00851172
0.407115
-0.0779416
-0.256886
-0.318609
-0.0592972
-0.00200385
-0.396133
-0.167969
-0.406517
-0.0075987
-0.346098
0.0249243
-0.454139
-0.284832
0.192136
0.0328515
0.0266778
-0.317939
-0.436929
-0.0917129
-0.0117953
-0.251652
-0.119524
-0.139355
-0.0860299
0.197572
0.0258496
-0.192496
0.0349688
-0.0935454
-0.0129534
-0.454653
-0.0131137
-0.0310159
-0.328327
0.516034
0.0238225
-0.180799
-0.0504826
0.130471
0.00967043
-0.236992
0.0880566
0.0124872
0.0318626
0.0110038
-0.323586
-0.0806258
-0.449343
-0.171832
-0.313517
0.0691743
-0.0130187
-0.00401337
-0.0588526
-0.112926
-0.093822
-0.293902
-0.0405164
-0.125589
0.0660814
0.0236969
0.00400634
-0.147448
-0.31663
-0.53015
0.0339541
-0.308989
0.00830707
-0.368713
0.494171
-0.136938
0.030054
-0.00736123
-0.126875
-0.423859
-0.0198747
0.0210756
-0.0348999
-0.138234
-0.0333589
-0.165655
-0.354756
0.426964
0.0243189
-0.0654639
-0.477075
0.0217931
0.28345
-0.00453535
-0.382125
0.0526457
0.032527
0.0740662
0.264068
-0.0219342
-0.263882
0.0331529
-0.258688
-0.02328
-0.320751
0.106688
0.0220366
0.0541547
-0.510485
0.0304014
0.0499097
-0.183277
-0.0380397
-0.00964207
-0.461713
0.10338
0.426007
-0.029417
0.186433
0.0303558
0.334306
0.0887053
-0.0461666
-0.247756
0.03989
0.0209216
0.0172166
-0.00290765
-0.355418
0.469345
-0.116675
-0.072039
0.0382556
0.00857328
-0.338671
0.0243192
-0.358299
-0.190311
-0.294586
0.011678
0.000625414
0.00611506
-0.133341
-0.0474782
0.402324
-0.306553
-0.403366
-0.277512
-0.00148426
0.491005
0.0089494
-0.111221
-0.038841
-0.126378
0.266504
0.0347305
-0.00426801
-0.138131
-0.00427547
-0.0807652
0.277094
-0.350108
-0.371157
-0.0673289
-0.34163
-0.00823159
-0.0125402
0.0139241
0.293577
0.154619
-0.135336
-0.226299
-0.438228
0.0692282
-0.0149384
-0.00580963
-0.00386947
-0.531661
-0.0163997
0.0864966
-0.0057845
0.0203131
-0.289408
0.38305
0.0136069
-0.206477
0.440383
-0.365405
-0.265428
-0.00888907
-0.110385
-0.119194
-0.427543
0.0105889
-0.363378
-0.542748
0.0911475
-0.0458144
-0.00665678
0.0629669
-0.0170429
0.0308367
-0.29646
0.0148386
-0.00831187
-0.298212
-0.104682
-0.311287
-0.308488
0.451455
-0.301385
-0.0133918
0.0335112
0.0158566
0.0219716
-0.356643
0.0049437
-0.305334
0.0124092
-0.44348
0.100392
0.0518235
0.000532445
0.0559262
0.0701091
-0.021836
-0.00918396
-0.306188
0.0108149
-0.110054
0.0458297
-0.523979
0.10089
0.0269246
-0.0217616
-0.160143
0.0105815
0.00391021
0.021565
0.023674
-0.0330126
0.0168856
0.000749647
0.159203
-0.209849
-0.508597
-0.445066
-0.336783
0.00430674
0.0112779
0.0381882
-0.00546537
0.0333755
0.00167447
-0.112838
0.0196665
0.0155865
0.0138053
0.0249522
-0.00639563
-0.524903
-0.0340503
0.0157263
-0.534239
-0.119691
0.00181276
-0.538466
-0.469655
0.0147842
-0.230136
-0.117891
0.0142005
0.235796
0.0916429
-0.0036285
0.0240542
-0.00303562
-0.0670434
0.0112858
0.0198786
0.00224207
-0.440282
-0.0546168
0.138467
0.0115321
0.0173941
-0.425363
0.112496
0.0153424
-0.0177148
-0.0310414
0.0152756
0.210535
-0.541983
-0.403168
-0.295496
0.364333
0.0881614
0.0145805
-0.476452
-0.273629
0.00933876
-0.174864
0.0212742
0.0300074
0.0193734
-0.303637
0.0718685
0.0159398
0.0243154
-0.278312
0.00140945
-0.0818479
0.0331809
0.31671
-0.306968
-0.308633
0.0266632
0.0776884
0.159538
0.0706518
0.00818244
0.109355
0.333662
-0.324284
-0.00173821
0.285102
-0.430388
-0.00881988
-0.34579
0.127871
0.367652
-0.223611
0.0334285
0.00710718
-0.122585
0.000876666
-0.0550606
-0.00417038
-0.188232
-0.425787
0.0809853
0.00661725
-0.263046
0.316025
0.453922
0.114997
0.00685621
-0.0766153
0.0330971
0.0318819
-0.123915
0.146724
-0.52562
0.010138
0.363309
-0.00206699
-0.39995
-0.290286
-0.31598
-0.00179234
0.0734469
0.504882
0.451792
0.183946
-0.300917
-0.0326003
0.150709
0.0106009
0.0187177
-0.305875
-0.223209
-0.0361269
0.0239621
0.0928809
0.41585
0.36271
0.127789
0.00469148
0.0165625
0.00208776
0.435402
-0.425568
-0.00222381
-0.125562
-0.296673
-0.20269
-0.231884
-0.305237
-0.537712
-0.269993
-0.00246547
-0.0309749
-0.329245
0.0166849
0.135994
0.378657
-0.540235
0.0860188
0.15244
-0.2994
0.44246
0.357493
-0.412773
-0.33979
-0.307613
0.0171839
-0.00171026
0.0303829
-0.0340359
-0.509669
0.26457
0.351702
0.139605
0.142988
-0.0139877
-0.116934
-0.0123006
-0.0896785
0.011782
0.129979
-0.531586
-0.43856
0.0121693
-0.00644733
-0.05912
-0.180102
-0.272864
-0.537234
0.209455
0.0125729
0.322045
-0.00601799
0.337726
0.166951
0.0351412
-0.142831
0.324095
-0.354935
-0.108651
0.0124926
-0.0108634
-0.470519
0.107334
-0.00461375
0.0244496
0.0235732
0.00124925
-0.528602
-0.413279
-0.339428
0.488127
-0.541028
-0.0363744
0.0341937
-0.306339
-0.0542549
-0.0652405
-0.348947
0.00817033
-0.42723
-0.341863
-0.168972
0.155143
0.361327
0.0292288
0.508542
-0.0538995
-0.300091
0.0115868
0.0214347
0.0618377
0.518173
-0.249785
0.204486
-0.537095
-0.269748
0.306613
-0.267018
0.40381
-0.0358505
0.447592
-0.443844
-0.00231042
0.172442
-0.340008
-0.0862795
0.0649467
0.017394
-0.114303
-0.116342
-0.121075
0.0202894
-0.36359
0.300771
-0.299939
-0.536931
-0.340337
0.0829815
0.47417
-0.367588
0.00756852
-0.0371595
-0.122978
-0.364047
0.0125874
0.0975012
-0.292707
-0.434415
-0.00723561
0.395281
0.00397093
0.0130461
0.477222
0.110625
-0.306392
-0.300346
-0.360457
-0.357607
-0.00151263
-0.109454
0.0494919
0.00730947
0.35152
-0.166943
-0.0717772
0.517112
-0.309105
0.0200211
-0.0698545
0.420469
-0.045234
-0.0858605
0.242683
-0.320428
-0.320128
-0.343615
-0.382248
-0.532986
-0.302304
-0.318679
-0.340736
-0.0397198
0.101009
-0.0363873
0.00242653
-0.295997
-0.353301
0.0153241
-0.00139491
-0.534527
-0.2994
-0.0529888
-0.532333
0.039357
0.444656
-0.357698
-0.194727
0.0113451
-0.300459
0.496982
0.00799957
0.0483207
-0.441142
-0.421528
-0.440226
-0.390925
0.0138875
-0.4549
-0.31103
0.171597
-0.204565
0.327549
0.00280007
-0.0647953
-0.30162
-0.360519
-0.0455208
0.0122874
-0.295
0.324408
-0.341796
-0.169226
-0.0622382
-0.317337
0.0301536
-0.458157
0.0129596
-0.0711486
0.037744
-0.00274487
0.00207256
-0.0654203
0.0309037
-0.00472944
-0.467094
-0.0919103
-0.389
-0.536326
-0.302359
0.0102368
-0.363153
0.505773
-0.309029
0.0369951
0.0354218
-0.453429
-0.340259
-0.352296
0.253783
0.0879008
0.00147181
-0.463645
-0.539465
0.0547501
-0.442823
0.15932
0.0268123
-0.304503
0.262155
-0.504392
-0.0126225
-0.0432233
-0.303768
-0.449691
-0.321888
-0.253576
-0.322016
-0.311289
-0.400145
0.0238993
-0.540373
0.0500592
0.0148487
-0.0079704
0.0344849
-0.541446
0.251515
-0.321049
-0.32512
-0.0636765
0.325393
-0.0619048
-0.332092
0.388458
-0.466034
-0.536005
0.483741
0.0825924
-0.00856902
-0.251391
0.174323
-0.0621071
-0.306691
-0.366569
0.452839
0.0264343
-0.0421653
0.211735
0.0157097
-0.0125057
-0.0508608
-0.320327
-0.0438936
-0.0344911
-0.303432
-0.100002
-0.302955
-0.436424
-0.31558
-0.334731
-0.343637
-0.522951
-0.331731
0.203927
-0.0959481
0.0490737
0.494568
-0.215672
-0.304557
0.292216
0.280867
-0.00378375
-0.283572
-0.344331
-0.0441633
-0.00159333
-0.041532
-0.412327
0.0122392
0.0261675
-0.15281
-0.312827
-0.0535913
0.199547
0.0463801
0.143516
-0.141612
0.0148278
0.0227139
-0.0962368
-0.284964
0.0412499
-0.0519652
0.3506
-0.340995
0.0509153
-0.483193
0.00198243
-0.318787
0.083038
0.0803194
-0.0039617
-0.286182
-0.0743598
-0.533321
-0.544086
0.29616
0.0236406
-0.0230527
-0.373001
-0.419124
-0.0193465
-0.23369
-0.324897
-0.147537
0.310057
-0.00565344
0.0207719
0.0320293
-0.305708
-0.123429
0.0164603
-0.494747
0.0270825
0.252933
-0.299322
0.00290853
0.181558
-0.161827
-0.533002
0.0613984
0.116575
0.0865081
-0.151356
-0.00501325
0.0222855
-0.335514
-0.312656
-0.197658
-0.00346787
-0.348698
0.043342
0.0294215
0.00977956
-0.362536
-0.485968
-0.0325817
-0.442741
-0.41706
-0.156092
-0.301367
-0.409779
-0.532194
-0.404084
-0.125808
-0.118472
-0.308311
-0.137714
0.00970591
0.151713
-0.0827514
-0.516513
0.0216157
-0.370832
0.0309976
0.430848
-0.199765
-0.00215175
-0.00344827
-0.473895
-0.525795
-0.295997
-0.303704
0.00669555
-0.0870682
-0.473898
-0.0670592
-0.427253
0.186055
0.340398
-0.335162
-0.0411534
0.01347
-0.246754
-0.270739
0.0365042
-0.312354
-0.398705
0.00144652
0.0190714
0.0118075
0.0145816
-0.533815
-0.0232328
-0.133145
0.0151626
-0.0304284
0.166748
0.0345515
-0.302777
-0.217071
0.0127083
-0.00475174
-0.24392
-0.0404123
0.265177
-0.529927
-0.528009
-0.0832109
0.41952
0.162268
-0.00405456
-0.263327
-0.533385
-0.0216516
-0.316292
-0.322687
0.287611
-0.0642069
-0.0417695
-0.187242
0.100369
-0.45494
0.0220534
0.00457514
-0.0191885
-0.363075
-0.45248
0.0818841
-0.0593877
-0.0150569
-0.046277
-0.165337
-0.320395
0.0306544
-0.0947114
-0.35294
0.32931
0.0298411
0.0372218
-0.524253
-0.532735
0.0326488
-0.381156
-0.0737614
-0.292809
-0.228735
0.0123985
-0.297261
-0.0784933
0.0115265
-0.299042
-0.297205
0.0309238
0.0240555
-0.313007
0.00237909
0.0236444
-0.134395
0.201748
0.221551
-0.474031
-0.0533511
-0.0708696
-0.348342
0.00249063
-0.378336
-0.469709
-0.0522577
-0.097917
-0.267194
0.0482312
-0.272527
-0.00450264
-0.282624
0.441403
0.01638
-0.348671
-0.365307
0.0393863
0.0431068
0.456999
-0.0714347
-0.298938
-0.301484
0.0261504
-0.120832
-0.520521
-0.0354866
-0.129267
-0.124843
0.0656318
-0.302859
-0.260734
-0.0330153
-0.310463
-0.423653
0.23528
-0.041983
0.0109783
-0.00354012
0.0169437
0.215219
-0.343471
0.0119618
-0.0704297
-0.493954
-0.351921
0.0223997
-0.0352156
0.468619
-0.309222
0.0226059
-0.382734
-0.102465
-0.19287
-0.107875
0.00558375
-0.0573843
0.0430102
0.0311894
-0.337563
0.00919665
0.2582
0.0277736
-0.385222
-0.0319781
-0.0312124
-0.00433134
-0.0463252
0.0194725
-0.123869
-0.54035
-0.218018
-0.0768123
0.226043
0.0104612
0.145955
-0.158645
-0.249656
-0.5361
0.00686163
-0.403956
0.0263703
0.511612
-0.304265
-0.544442
0.00732453
-0.0658814
-0.177084
-0.489167
0.427045
0.0170323
-0.230945
0.321312
0.197851
-0.132054
-0.0266958
0.0501472
0.12087
-0.340049
0.0395781
-0.34436
0.179964
-0.430211
0.320103
-2.55363e-08
-0.268057
-0.0041815
0.0394729
-0.291816
-0.00208931
0.411543
-0.436834
-0.242603
0.124135
0.343449
0.0414762
-0.216086
-0.123687
-0.389119
0.0494586
-0.0116738
0.00265612
-0.0401745
-0.124612
-0.30405
-0.018319
0.191211
0.371592
0.0093363
-0.015042
-0.353489
-0.209261
0.0377738
0.0193591
-0.0291384
-0.30191
0.0520928
-0.0690399
-0.28619
-0.178056
0.0469933
0.3378
-0.182952
0.0272502
-0.012714
-0.238742
0.500257
-0.121809
-0.105478
-0.347323
-0.303438
-0.213889
0.013134
0.0548432
-0.0131512
0.10177
-0.259799
-0.16664
-0.07367
-0.178398
-0.398691
0.0950411
0.0297862
-0.534308
0.0452311
-0.298399
-0.243959
0.00852817
0.0907815
0.0523501
0.000810165
0.0259255
-0.126938
-0.00859008
0.0778799
0.00597863
0.0154983
0.024525
0.0322922
0.167749
-0.0713162
-0.0226755
0.0334207
0.0151825
0.0741315
0.0639294
0.410343
0.0276816
0.0864138
0.477067
-0.0118923
0.0193937
0.0607795
-0.0737216
-0.526335
-0.53244
-0.308503
-0.333981
-0.212344
-0.27436
0.0184654
-0.163639
0.00857773
-0.335241
-0.0323516
0.0572243
0.0577568
-0.160108
0.0223161
-0.0920449
0.00566224
-0.29554
-0.278393
0.0157072
-0.376449
-0.229531
-0.0266367
-0.0760715
0.0263022
-0.0067851
-0.540979
-0.0243405
-0.179982
-0.295573
0.0259378
-0.00749703
-0.195395
-0.335004
0.10524
-0.0444288
-0.300307
0.0237686
-0.365773
-0.153115
-0.491428
-0.00181323
-0.308536
0.0341226
0.0242812
-0.288651
-0.166199
-0.367564
-0.326551
-0.535571
-0.300205
-0.119286
-0.242682
0.0125077
-0.125192
-0.0242294
0.00719186
0.334011
0.0217104
0.030262
-0.00591435
-0.00138529
-0.104794
-0.140575
-0.306289
-0.284478
-0.367953
-0.0448867
0.145953
-0.0376183
0.031895
-0.182589
0.0177643
-0.0167468
0.00919545
-0.0468444
0.0821008
0.377416
-0.0895001
-0.135902
0.0234343
0.268493
0.270875
-0.362868
-0.495115
-0.0427334
-0.118904
0.02643
-0.501979
-0.294055
0.0317521
0.0106393
-0.0241546
0.024027
-0.170688
-0.303052
-0.481729
0.0528881
-0.0450843
0.0206621
-0.315635
-0.152072
0.00593392
-0.0377102
-0.218526
0.119276
-0.0453246
-0.0839504
-0.209491
-0.349794
-0.0173523
0.0102691
0.056807
-0.0497167
0.0180065
-0.334897
-0.00788863
0.0446776
-0.00524317
-0.541475
-0.0968369
0.0387044
-0.378224
-0.502178
-0.280245
0.0110059
-0.0776539
0.437387
0.0158793
-0.467726
-0.305601
-0.0659587
-0.0893396
-0.0137318
-0.541869
0.004667
0.0124444
-0.00391128
-0.00174452
-0.00320605
-0.360152
-0.0302222
0.027932
0.0774181
-0.317355
-0.0247764
0.00098735
0.0119688
-0.400849
-0.297011
-0.466426
-0.316949
-0.083897
0.0405401
0.0960975
-0.138357
0.361926
0.0279705
-0.114193
-0.0262481
-0.130865
-0.0166486
-0.306615
-0.48765
-0.079204
0.0121823
-0.0291991
0.0316988
-0.0115869
0.0328287
0.025142
-0.0217886
0.343542
0.0212223
-0.140175
0.0704135
0.0176033
-0.541992
-0.0789785
-0.0281939
0.00653936
-0.311313
-0.00967679
-0.00303641
-0.00613057
0.00616567
-0.233997
-0.0838822
0.0120824
0.232618
0.00249027
-0.0739369
-0.0170683
-0.240086
0.00914376
0.0306856
-0.342385
-0.0346503
-0.248646
-0.102667
0.0874525
-0.137267
-0.00486294
0.0238678
0.0229887
-0.447776
-0.0478584
0.0369814
0.498584
0.0153106
-0.00411815
0.00865063
-0.380532
0.126313
-0.150268
0.173357
0.141101
0.252856
-0.0195382
-0.00312552
0.24596
-0.327777
0.0390971
-0.00978376
-0.000651141
-0.0592369
-0.281465
0.00801888
-0.0462716
-0.300056
0.138504
-0.00812158
-0.510422
-0.00110774
0.0779308
-0.299159
-0.0757611
0.0269135
-0.0555627
0.0360767
-0.0328504
0.0109998
0.0165999
0.00350418
0.0100615
0.0117815
0.164475
0.0431631
-0.22225
-0.0111664
0.0908215
0.0365571
-0.0483869
-0.306928
0.00885911
-0.0181097
0.336252
-0.0333405
0.00703384
-0.21989
-0.410657
-0.296971
0.051299
-0.0176036
-0.0775929
0.0235864
0.0202462
-0.104538
0.10095
-0.00367129
0.161624
0.0475724
0.0156724
-0.0125826
-0.00487197
-0.0377825
-0.127908
-0.103869
-0.0708228
-0.342517
-0.0391022
0.0264073
-0.00735434
-0.291433
-0.00312299
-0.295113
0.0477656
-0.144852
-0.043686
0.0359933
0.0233138
0.141674
-0.326512
-0.304017
-0.0223128
-0.07394
-0.385138
0.0753328
-0.285433
-0.4728
-0.336614
-0.0771501
0.0481517
-0.116454
-0.117001
-0.0366651
-0.45894
-0.353077
-0.331305
-0.028075
0.0144837
0.0386617
-0.234163
-0.00944818
-0.0011765
-0.112132
0.0319011
-0.0138847
0.00856818
0.250139
-0.0154091
0.00472332
0.0227946
-0.313587
-0.00916083
0.0507091
0.0223704
-0.0320033
0.00941904
0.30771
-0.102503
-0.346208
-0.0120645
0.000909917
-0.149612
-0.541742
-0.34598
0.0275202
0.0167592
0.202075
0.331383
0.0131651
0.388591
0.0340698
7.41904e-05
0.0183095
-0.315455
0.00364438
0.0366957
-0.079368
0.0435973
-0.0230425
0.0151036
-0.157248
-0.0104674
0.0668139
0.0147292
0.0458045
-0.114782
-0.0198657
0.0167125
-0.0604449
0.0872787
-0.0396045
-0.0184597
-0.31713
-0.360462
0.0172317
-0.200032
0.0205028
-0.0403339
-0.178965
-0.285592
-0.00804772
0.0188475
0.0532948
0.406294
-0.0362915
-0.0274858
0.0303881
0.0232022
-0.0132033
-0.0213192
-0.083985
-0.0233199
0.182889
0.243025
-0.113228
0.035337
0.464664
0.00900261
0.0162976
-0.531349
-0.314829
0.00855203
-0.00435279
0.0276127
0.0475131
0.0347159
-0.0114127
-0.00133232
0.0271302
-0.460873
-0.312434
-0.0695502
0.0424676
-0.354764
-0.0283869
0.00184695
-0.540734
-0.043775
-0.0079589
0.0266617
0.0261211
-0.0750534
0.0162772
0.0143923
0.0361428
0.00510474
0.0456751
-0.0988823
-0.108811
0.0154056
-0.110951
-0.310186
0.0818154
0.021389
0.283448
-0.00654636
0.0103877
0.0172273
-0.0796386
0.0158885
-0.472322
0.0434878
0.423393
0.500171
-0.1464
-0.0402676
-0.0267959
0.0198917
0.032105
-0.0300588
-0.263264
-0.244333
0.00834175
0.0927853
-0.527717
-0.0117971
0.0266123
0.0179496
-0.0302347
-0.06647
0.117904
0.0142641
-0.0672009
0.06407
0.188326
-0.302931
-0.374982
-0.0213223
0.0106222
0.170144
-0.0301382
0.0260378
-0.148076
-0.0362287
-0.156026
0.00494126
0.297648
0.0115932
0.308106
-0.14136
-0.314795
-0.54149
0.0164316
-0.11684
-0.0591332
-0.298526
-0.00733745
-0.0170983
-0.252615
0.0328971
-0.0153601
0.0026178
-0.00649865
0.0555428
-0.0666525
-0.526251
0.0142374
-0.0838448
0.0146808
-0.00654565
-0.00320828
-0.300885
-0.162285
0.0351015
0.0561057
0.0144442
-0.542016
0.00721974
0.0440302
0.0681934
0.0463566
0.152085
0.00678629
-0.334179
0.0222217
-0.0324694
-0.0275689
0.0232408
-0.00358974
0.0193837
-0.445116
0.0050076
0.0444782
-0.313864
-0.0126725
0.0280591
0.0202692
0.023913
-0.160284
0.0328297
0.028123
0.450226
-0.0416026
0.0125451
0.0620117
-0.010402
-0.330833
0.0790512
0.0538358
0.0317612
-0.0675742
0.0233247
-0.36788
0.00527168
0.0240599
-0.424914
0.0101332
-0.157748
0.0589801
-0.00522033
-0.00913784
0.155192
-0.0129064
0.0157512
0.0195065
-0.0451879
0.0319482
0.0262194
0.050786
-0.0212561
-0.0169825
-0.0175384
-0.310352
0.0233988
0.0146542
-0.360337
0.0434713
-0.0715508
-0.25458
-0.310283
0.0108973
0.0481706
0.0270314
-0.00372619
0.0793719
-0.116471
0.0742255
-0.0596687
0.0013686
-0.0471159
0.0119706
-0.0049597
-0.0394076
-0.121685
0.0490045
-0.038819
0.0141024
0.0260617
0.0120493
-0.353538
-0.0356886
0.0190764
-0.399817
-0.0297635
-0.0746845
0.0274425
0.0241049
-0.00290051
-0.301144
0.0086176
-0.00378922
-0.0370621
0.0273449
0.0312164
0.0268811
-0.018244
-0.0524014
0.0326139
0.174418
0.0187951
-0.119256
-0.00958657
-0.00367682
-0.0465341
-0.363125
0.020206
0.0277758
0.0717543
0.0414161
-0.0494952
-0.290014
0.0737879
0.0895794
-0.299921
-0.240559
0.069522
-0.0324394
-0.110816