/*--------------------------------*- C++ -*----------------------------------*\
| =========                 |                                                 |
| \\      /  F ield         | OpenFOAM: The Open Source CFD Toolbox           |
|  \\    /   O peration     | Version:  v2012                                 |
|   \\  /    A nd           | Website:  www.openfoam.com                      |
|    \\/     M anipulation  |                                                 |
\*---------------------------------------------------------------------------*/
FoamFile
{
    version     2.0;
    format      ascii;
    class       surfaceVectorField;
    location    "650";
    object      Uf;
}
// * * * * * * * * * * * * * * * * * * * * * * * * * * * * * * * * * * * * * //

dimensions      [0 1 -1 0 0 0 0];


internalField   nonuniform List<vector> 
14516
(
(0.960749 0.0834177 -4.25782e-21)
(0.949388 0.0776184 0)
(0.960848 0.0679271 -4.44797e-21)
(0.968556 -0.039815 1.16672e-21)
(0.956625 -0.0738694 -1.14575e-20)
(0.975147 -0.068356 1.11707e-21)
(0.975424 0.0875832 -4.38038e-21)
(0.962319 0.0992283 7.81982e-21)
(1.01345 -0.000762478 -3.70193e-22)
(1.01346 -0.000831719 0)
(1.01354 -0.000785535 -7.24749e-22)
(0.5314 -0.0421764 1.32333e-21)
(0.544798 -0.00209019 -9.35116e-21)
(0.525962 -0.101924 4.57687e-21)
(1.01361 -0.0140219 -1.13674e-22)
(1.01473 -0.0137286 2.00337e-21)
(1.01393 -0.0127341 -6.29418e-22)
(1.00887 -6.08459e-05 -8.74502e-22)
(1.00968 -0.00021905 -3.24443e-22)
(1.01039 -0.000311726 -1.71191e-22)
(1.01269 -0.00108034 1.50073e-21)
(1.0126 -0.00102435 0)
(1.01267 -0.00109431 -1.39059e-21)
(1.02676 -0.00228904 1.61324e-22)
(1.02704 -0.00197931 -1.69224e-21)
(1.02728 -0.00253942 2.86113e-21)
(0.538766 -0.00570422 -1.41985e-20)
(0.544324 -0.0668301 -1.85682e-21)
(1.00794 -0.0978688 0)
(1.00754 -0.104787 0)
(1.01542 -0.100445 -5.79658e-21)
(0.921058 -0.0982923 0)
(0.926464 -0.111434 0)
(0.908682 -0.111089 0)
(1.01337 -0.000685973 -1.00767e-22)
(1.01336 -0.000724338 -4.22812e-22)
(1.01364 0.00233555 4.37292e-23)
(1.01338 0.00206558 6.59729e-23)
(1.01357 0.00186744 1.04352e-21)
(1.00388 -4.74134e-05 -1.15945e-21)
(1.0039 1.22014e-05 -6.8514e-22)
(1.01396 0.00258347 7.5485e-22)
(1.01424 0.00268831 8.65851e-22)
(1.01405 0.00227706 -1.00485e-21)
(1.01393 -0.00377556 -1.10617e-21)
(1.01459 -0.0034848 -3.91166e-22)
(1.01382 -0.00310798 -1.33212e-21)
(1.01318 -0.00404134 0)
(1.01417 -0.00472867 2.97309e-22)
(0.904019 0.25524 1.34874e-21)
(0.879538 0.265134 -3.99114e-22)
(0.889881 0.275559 -3.09425e-21)
(1.01382 0.00287985 -6.97294e-24)
(1.07227 -0.116729 6.97443e-23)
(1.08982 -0.118145 7.40148e-23)
(1.07883 -0.102543 4.35516e-23)
(1.02398 -0.0059264 7.12046e-22)
(1.02363 -0.00574142 1.49836e-22)
(1.02371 -0.00617557 -1.68537e-23)
(1.05831 0.058908 0)
(1.04872 0.0761515 0)
(1.06132 0.0646179 -1.67465e-21)
(1.01818 0.00238769 2.24174e-23)
(1.01798 0.00231539 0)
(1.01753 0.000804309 -1.40493e-22)
(1.01732 0.00140848 -7.74423e-22)
(1.01829 0.00137567 2.25415e-24)
(1.01313 -0.000527925 5.06204e-22)
(1.01333 -0.000604978 -1.25473e-21)
(1.01523 0.00352204 0)
(1.01487 0.0035542 0)
(1.01537 0.0040513 0)
(1.01506 -0.00167273 -5.03033e-22)
(1.01545 -0.00171159 -1.52779e-22)
(1.01509 -0.00136954 -1.04958e-21)
(0.975953 -0.0412556 -3.08824e-22)
(0.981892 -0.0432485 2.02944e-22)
(0.980052 -0.0371536 3.94541e-22)
(1.02624 -0.00205024 -7.83716e-22)
(1.02648 -0.00252694 0)
(0.989044 -0.0285922 1.20463e-21)
(0.987232 -0.032084 0)
(0.992692 -0.0318255 0)
(1.06615 0.0398334 6.1393e-22)
(1.05471 0.0517628 1.77972e-22)
(1.08786 0.00614455 -1.10181e-20)
(1.08161 -0.028803 -1.59508e-20)
(1.07174 0.0183211 -1.48526e-20)
(1.00824 6.02125e-05 -1.36359e-21)
(1.00823 3.22037e-05 -6.14597e-22)
(1.00598 3.53592e-05 -8.37822e-22)
(0.970093 -0.0380583 7.75174e-22)
(0.964697 -0.0341579 4.61458e-22)
(0.969562 -0.0304091 4.27087e-24)
(1.11604 -0.160808 9.24183e-22)
(1.14331 -0.165191 -4.37664e-21)
(1.12391 -0.189829 7.78452e-22)
(1.00793 -4.39385e-05 -5.60485e-22)
(1.00625 5.11505e-05 -1.26499e-21)
(1.0244 -0.00567087 -4.63962e-22)
(1.02419 -0.00611858 5.82975e-22)
(1.01316 -0.00139587 1.618e-21)
(1.01324 -0.00146869 9.13489e-23)
(1.0133 -0.00150992 0)
(1.01051 -3.25932e-05 -6.66265e-22)
(1.01007 -6.26317e-05 6.28489e-23)
(1.0109 -1.36433e-05 -4.2026e-22)
(0.991588 -0.0246403 -2.41125e-21)
(0.986288 -0.0232933 1.05957e-21)
(1.00644 1.72514e-05 7.54801e-22)
(1.00357 -5.50865e-05 8.99725e-22)
(1.01183 -0.000478577 -1.74302e-21)
(1.0125 -0.000404184 -9.57447e-22)
(1.01187 -0.000458872 -6.72035e-22)
(1.00955 -0.000147571 0)
(1.00875 -0.000191631 -5.96424e-22)
(1.01039 -0.000123203 0)
(1.00953 -0.000272592 6.81665e-22)
(1.0119 -0.00039816 8.76824e-24)
(1.01295 -0.000466663 -1.3427e-22)
(0.971296 -0.0460819 2.14358e-22)
(1.00577 -0.0553053 -2.02969e-21)
(0.997867 -0.0579244 5.30726e-21)
(0.999434 -0.0479816 1.74692e-21)
(0.931242 0.0683686 -4.00013e-22)
(0.918505 0.0605853 -3.15939e-21)
(0.9367 0.0549652 -2.87122e-21)
(1.01347 -0.000915957 0)
(1.01339 -0.000878382 1.96534e-22)
(0.957483 -0.03154 4.52087e-22)
(0.959179 -0.0404248 4.49117e-22)
(0.985627 -0.0959265 -5.96825e-21)
(0.989664 -0.102653 1.51322e-21)
(0.993689 -0.0957411 -6.0838e-21)
(1.01795 -0.0145472 6.21566e-22)
(1.01722 -0.0152375 -2.22282e-21)
(1.01848 -0.0157686 1.8012e-22)
(1.0246 -0.00521613 8.96255e-22)
(1.02436 -0.00497001 3.63649e-22)
(1.02421 -0.00518153 -7.02738e-22)
(0.84822 -0.0858739 -3.01151e-21)
(0.842742 -0.102447 2.81951e-21)
(0.862732 -0.0937538 -2.0367e-21)
(0.995343 -0.215911 1.69624e-22)
(0.988425 -0.23709 1.69104e-22)
(0.972033 -0.22247 -2.65225e-21)
(1.02117 0.000167112 1.04986e-22)
(1.02078 0.000218636 4.98561e-24)
(1.03745 -0.173845 5.53551e-21)
(1.04753 -0.167271 -5.92708e-21)
(1.03562 -0.163382 -6.33734e-21)
(0.827572 0.310735 -3.33211e-22)
(0.81151 0.311099 8.43775e-21)
(0.835479 0.333767 -9.0192e-21)
(1.01309 -0.00135043 6.81952e-22)
(1.01304 -0.00130224 -5.94371e-22)
(1.00884 -5.33727e-05 6.6402e-22)
(1.00829 3.82816e-05 4.79343e-24)
(1.0097 -6.39817e-05 0)
(1.02135 -0.013631 -2.76845e-22)
(1.02093 -0.0144029 3.52474e-23)
(1.02212 -0.0145392 -2.70654e-22)
(0.829202 0.147003 5.84389e-23)
(0.805714 0.1601 -5.22219e-23)
(0.814317 0.128968 -3.18733e-23)
(1.0143 -0.00037432 -5.51386e-22)
(1.01493 -0.000491834 -2.18174e-22)
(1.01402 -0.000376561 6.65177e-23)
(0.560403 -0.240953 -5.9729e-21)
(0.536232 -0.209725 1.44449e-20)
(1.09523 0.0320792 -2.64525e-22)
(1.09767 0.000402392 -8.97974e-22)
(1.0974 0.00154855 -1.15676e-21)
(0.853641 0.128383 3.27654e-21)
(0.851634 0.155413 1.14496e-22)
(0.873857 0.116377 8.61715e-21)
(0.892516 0.103924 1.19115e-21)
(0.892274 0.121937 8.45745e-22)
(0.916063 -0.0857835 0)
(0.930393 -0.0880593 7.39319e-23)
(1.00154 -0.093421 0)
(1.00979 -0.0895341 -5.84718e-21)
(0.832256 -0.0769301 0)
(0.852529 -0.067679 0)
(1.01316 0.000254169 3.72333e-22)
(1.0136 0.000313943 -3.424e-23)
(1.01438 0.000478839 -5.18001e-23)
(1.0151 -0.00356255 4.98364e-22)
(1.0153 -0.00375605 -4.75508e-22)
(1.01513 -0.00374972 -1.18985e-21)
(1.05923 0.00500379 0)
(1.05961 0.00228108 -6.88748e-23)
(1.05852 0.0185088 -3.35995e-22)
(0.95333 -0.0246066 -3.15577e-22)
(0.947935 -0.0310425 0)
(0.84621 0.299366 -3.49828e-22)
(0.824149 0.284186 -3.32549e-22)
(1.02133 -5.88896e-05 2.23645e-22)
(1.02149 -0.000305494 1.01631e-22)
(1.02105 -0.000202768 -3.96543e-24)
(1.02146 0.00319491 -1.91544e-22)
(1.02149 0.00281186 2.36351e-22)
(1.02204 0.0031285 1.54376e-22)
(1.01893 0.00315246 1.64193e-21)
(1.01803 0.00314429 7.43376e-22)
(1.01815 0.00247572 4.14861e-23)
(1.01682 -0.00148968 1.03476e-21)
(1.01672 -0.00103971 8.39969e-22)
(1.01621 -0.00138354 -1.84804e-22)
(1.09078 0.0586413 6.7771e-21)
(1.089 0.0544195 1.00605e-21)
(1.01633 0.00434042 -1.44121e-21)
(1.01553 0.00390009 0)
(1.01605 0.00352993 1.3862e-21)
(0.929725 -0.0789426 -4.30262e-21)
(0.922147 -0.109064 3.55001e-22)
(0.916375 -0.0838207 1.42632e-20)
(1.03674 -0.0249129 6.24994e-22)
(1.03408 -0.0311776 1.15637e-21)
(1.03061 -0.0243384 -5.29709e-22)
(0.994592 -0.021765 -6.9275e-22)
(0.997052 -0.0251842 -5.07892e-21)
(1.02038 -0.0467075 6.78617e-22)
(1.0134 -0.0520357 -2.2706e-21)
(1.01359 -0.042093 6.85415e-22)
(1.01751 -0.00164941 0)
(1.01689 -0.00205317 0)
(1.02161 -0.000519398 1.28896e-22)
(1.02171 -0.000752498 3.80041e-22)
(1.0213 -0.000641161 -2.46417e-23)
(1.02076 -0.0128528 0)
(1.02027 -0.0119658 2.91202e-22)
(1.01979 -0.0125143 -8.85871e-22)
(1.0137 0.00374248 3.86537e-22)
(1.01423 0.00441427 0)
(1.01337 0.00455831 1.24817e-21)
(0.959699 -0.0113398 0)
(0.977976 -0.00888254 4.53259e-22)
(0.722898 -0.174421 -4.16046e-21)
(0.683212 -0.182762 -1.59813e-21)
(0.715391 -0.15301 -3.87915e-21)
(1.01471 0.00116638 1.51026e-21)
(1.01491 0.00130527 2.54453e-22)
(1.01495 0.00114423 3.14578e-21)
(1.07053 0.0221176 6.22261e-22)
(1.07499 0.0251083 6.22584e-22)
(1.02182 -0.0129502 5.73965e-22)
(1.04373 -0.0253688 -3.56826e-22)
(1.03816 -0.0191783 1.61674e-23)
(1.00111 -0.196119 -1.21169e-21)
(1.01723 -0.207693 0)
(0.942466 -0.0772511 -1.04658e-20)
(0.936516 -0.0429258 -1.1437e-21)
(1.01448 0.00114633 1.48809e-23)
(1.01451 0.00103967 2.01176e-24)
(1.01415 0.000257655 -2.11562e-21)
(1.01431 0.000285237 -8.71311e-22)
(1.01408 0.000332988 5.35055e-22)
(1.01422 0.000167523 8.01213e-22)
(1.014 0.000224999 -2.04508e-21)
(1.01184 0.000588019 1.55546e-21)
(1.01177 0.00122217 1.53283e-21)
(1.01134 0.000718237 0)
(1.01296 0.000299963 -1.90168e-21)
(1.01303 0.000403566 -7.983e-22)
(1.01303 0.000304375 -8.31007e-23)
(1.01287 0.000299834 -1.24086e-21)
(1.01288 0.000216433 4.12792e-23)
(1.02096 0.00318734 -1.90796e-22)
(1.02136 0.00358026 -1.01513e-23)
(0.996902 -0.0193166 2.98963e-21)
(0.992701 -0.0177241 2.79187e-21)
(1.02015 -0.0114044 2.34239e-21)
(1.0209 -0.0116225 6.83764e-22)
(1.00842 1.34484e-05 7.9991e-22)
(1.00897 -9.57209e-05 1.16698e-21)
(1.00979 -0.000120685 -4.22752e-22)
(1.01759 -0.013446 1.60618e-21)
(1.01868 -0.0138513 2.18457e-21)
(0.958094 -0.0645898 -9.3241e-22)
(0.94462 -0.0615143 8.80013e-21)
(0.956655 -0.0493746 -9.46296e-22)
(1.01288 0.000265641 -4.57344e-23)
(1.01172 0.000111743 -6.536e-23)
(1.02216 -0.13246 -5.30185e-22)
(1.00966 -0.12649 3.07011e-22)
(1.00835 -0.142212 1.57004e-22)
(1.01942 0.000401106 0)
(1.01971 0.000324109 0)
(1.05363 -0.302284 1.46592e-20)
(1.03019 -0.275145 1.5887e-20)
(1.01966 -0.3034 -3.37049e-21)
(0.982376 -0.0892235 -4.13436e-22)
(0.977451 -0.0962933 0)
(1.02162 6.84103e-05 -5.03646e-23)
(1.08101 -0.0889038 -1.56244e-21)
(1.06674 -0.122508 -5.99324e-21)
(1.07425 -0.114054 7.62629e-21)
(0.948081 -0.018123 2.19967e-21)
(0.957544 -0.0182381 -3.51271e-21)
(1.01722 0.00459531 -1.40538e-21)
(1.01654 0.00529197 -7.12663e-22)
(1.06576 0.020273 0)
(1.07291 0.0069306 0)
(0.969167 -0.0667623 0)
(0.960621 -0.0797898 -9.15008e-22)
(1.00813 0.000145863 7.40753e-23)
(1.00504 5.08866e-05 -6.69162e-23)
(1.00519 4.55793e-05 -1.7641e-23)
(1.01951 -0.00218449 -1.61972e-22)
(1.01975 -0.00233411 -8.21816e-23)
(1.01974 -0.00212895 -7.63936e-23)
(1.01232 -0.0139065 2.30197e-22)
(1.01328 -0.0152238 -3.66932e-22)
(1.0259 -0.00763464 -4.9898e-23)
(1.02558 -0.00784192 2.00641e-22)
(1.0255 -0.00732866 -1.28328e-21)
(1.06202 -0.130833 -1.29888e-21)
(1.05725 -0.115411 -2.84739e-22)
(1.05805 -0.0721703 7.84282e-21)
(1.06116 -0.0683857 6.46518e-21)
(1.05619 -0.0680197 -6.50471e-22)
(1.02593 -0.0417422 -1.24405e-22)
(1.02811 -0.0514935 -1.82639e-22)
(1.0199 0.00289307 -1.44516e-21)
(1.01971 0.0038973 -1.10898e-21)
(1.01616 -0.00334933 0)
(1.01623 -0.00323954 -6.09716e-22)
(1.01601 -0.00320078 -3.80677e-22)
(1.01146 0.000172047 6.47367e-23)
(1.01099 0.000187161 -5.90166e-23)
(1.01269 0.00026507 -2.61331e-23)
(1.02192 -0.000409596 2.93461e-22)
(1.01613 -0.00343432 0)
(1.01633 -0.00348201 0)
(1.01149 -0.00229913 7.74931e-22)
(1.01167 -0.00303008 7.28188e-22)
(1.01202 -0.0025995 -3.43655e-24)
(1.0258 -0.0018301 3.22717e-22)
(1.02611 -0.00160076 -1.00118e-21)
(1.0218 -0.000979241 4.10401e-22)
(1.0219 -0.00123426 1.87554e-22)
(1.02151 -0.00108823 8.11478e-24)
(1.01238 -0.000216164 6.45759e-22)
(1.01446 -0.000339579 0)
(1.00897 -4.80609e-05 0)
(1.01035 -0.00019371 3.28135e-22)
(1.01923 0.000233923 -1.35891e-22)
(1.01908 0.000423246 2.63134e-22)
(1.01331 0.000409542 -9.80437e-23)
(1.01346 0.000456305 5.80573e-22)
(1.01332 0.000428562 1.4068e-21)
(1.01928 -0.00222221 9.95663e-23)
(1.01927 -0.00203944 1.03649e-22)
(1.01779 -0.000317006 1.65694e-22)
(1.01776 0.000250878 1.87294e-21)
(1.01852 -1.14974e-05 4.35311e-22)
(1.01213 -0.000461407 -2.8854e-22)
(1.01234 -0.000451218 -1.32718e-21)
(1.01196 -0.000455706 -8.98514e-22)
(1.01436 -0.000127403 1.17988e-21)
(1.01422 -8.15864e-05 -3.88501e-22)
(1.01434 -0.000209936 9.42976e-22)
(1.0131 0.00227204 8.80784e-22)
(1.01308 0.00171178 -1.97304e-21)
(1.01226 0.00202167 2.2042e-21)
(1.01271 0.00255583 1.42988e-21)
(1.0122 0.00279943 -1.66079e-21)
(1.05165 -0.0371446 -1.88155e-22)
(1.04514 -0.0440882 -6.53643e-21)
(1.04217 -0.0534644 -1.78679e-22)
(1.01434 -3.07538e-05 0)
(1.01457 -0.000162438 -8.83647e-22)
(1.01386 0.00102446 -1.64314e-21)
(1.01405 0.0010762 -2.60891e-22)
(1.01397 0.00113374 1.34837e-22)
(0.749166 -0.176969 1.42014e-22)
(0.723284 -0.199686 -5.3152e-21)
(0.783607 0.374741 1.34675e-21)
(0.79633 0.357489 -3.99546e-21)
(0.798364 0.383763 -6.5722e-21)
(1.01231 0.00030477 8.89969e-22)
(1.0102 5.56732e-05 1.13493e-22)
(0.769143 0.358515 -2.22466e-23)
(0.763745 0.383659 -1.46211e-21)
(0.550696 0.0699657 2.59834e-21)
(0.554106 0.015439 2.11288e-21)
(1.01366 0.000962281 6.73575e-22)
(1.01372 0.000939638 0)
(1.01029 0.000212582 4.67021e-23)
(1.01017 0.000216061 2.29633e-22)
(1.01214 0.000209893 0)
(1.01152 0.000152055 4.00447e-22)
(1.01252 0.000277953 0)
(1.01777 -0.000809947 -9.25922e-22)
(1.01724 -0.000475903 2.30465e-21)
(1.0143 7.65122e-05 1.96711e-21)
(1.01415 7.11453e-05 0)
(1.01225 -0.000475858 5.58121e-22)
(1.01193 -0.00036725 1.25768e-21)
(1.01279 -0.00113836 2.50364e-22)
(1.01271 -0.00106522 1.14203e-21)
(1.01471 -0.00158545 0)
(1.0149 -0.00194194 1.2122e-22)
(1.01521 0.00271176 -1.75694e-21)
(1.0154 0.00264312 -2.17756e-22)
(1.01563 0.0029404 -1.87699e-21)
(0.930509 0.240038 4.3284e-21)
(0.965969 0.218617 0)
(0.946775 0.240913 -1.17579e-21)
(1.05266 -0.0255332 7.76749e-22)
(1.05757 -0.00905428 0)
(1.05435 -0.0268709 0)
(1.10143 -0.13741 0)
(1.11118 -0.117742 1.09461e-21)
(1.0134 -0.0632144 -5.66273e-22)
(1.01315 -0.00956598 -7.93551e-23)
(1.01497 -0.00999113 -4.30331e-22)
(1.01426 -0.00821924 -9.19117e-23)
(1.01513 0.00309955 9.2018e-22)
(1.01555 0.00340034 8.7205e-22)
(1.0125 -2.95511e-05 -1.35536e-21)
(1.01251 0.000377606 -2.52498e-21)
(1.01272 0.000302624 5.34966e-22)
(1.01368 -0.00245511 1.81375e-21)
(1.01372 -0.00273232 9.67598e-22)
(1.01379 -0.00238793 1.09208e-21)
(0.791688 -0.0336933 7.15931e-21)
(0.811126 0.00318854 1.01632e-20)
(0.792979 0.0264116 6.06086e-21)
(1.04873 -0.0214249 3.21524e-21)
(1.04569 -0.0415612 7.46344e-22)
(0.791712 -0.0942336 -1.6449e-20)
(0.784899 -0.0614596 -1.36431e-20)
(1.02647 -0.00719123 1.44194e-21)
(1.0262 -0.00750086 0)
(1.02603 -0.00691016 -6.18743e-22)
(0.920107 0.234151 2.35801e-21)
(1.02213 -0.000877037 -5.16728e-23)
(1.01756 0.00227889 8.45577e-23)
(1.01739 0.00215889 -2.75465e-24)
(1.01733 0.00223907 -2.97535e-22)
(1.01615 -0.00388035 7.93519e-23)
(1.01635 -0.00403317 -4.94672e-22)
(1.01625 -0.00380066 6.2807e-22)
(1.02026 -0.0313718 5.86118e-21)
(1.01761 -0.031902 2.18401e-21)
(1.02 -0.0338886 2.54786e-21)
(1.08893 -0.40049 3.83408e-20)
(1.08847 -0.436289 4.87569e-20)
(1.12492 -0.424692 -5.84664e-21)
(1.03445 -0.0107435 2.68672e-22)
(1.034 -0.0099609 2.16255e-21)
(1.03347 -0.010652 7.48741e-21)
(1.01449 8.07976e-05 6.63778e-22)
(1.01703 0.000407429 -5.91955e-22)
(0.897285 0.302788 6.9602e-22)
(0.882579 0.315859 6.99799e-21)
(0.894284 0.319905 -6.78733e-21)
(1.01505 -0.00340184 9.97269e-22)
(1.01492 -0.00336984 1.58682e-21)
(1.02728 -0.179768 0)
(1.04006 -0.185962 1.11831e-20)
(1.01602 -0.0039402 -6.02013e-22)
(1.01596 -0.00370879 4.23731e-22)
(1.01927 -0.00262212 -2.57203e-22)
(1.01904 -0.00265011 -1.39358e-22)
(1.01926 -0.00281749 -4.61382e-24)
(1.015 0.00277481 -1.44682e-23)
(1.01489 0.0024908 -5.54889e-22)
(1.02691 -0.00754097 -1.58384e-21)
(1.02677 -0.00696131 6.41296e-22)
(1.017 -0.000190865 0)
(1.01701 -0.000265137 3.50401e-22)
(1.01715 -0.000198316 1.74933e-22)
(0.946015 0.0745873 -4.91197e-21)
(0.929008 0.0826548 1.63939e-21)
(1.03588 -0.138801 7.43382e-22)
(1.03357 -0.122874 -2.05119e-22)
(0.853999 0.10371 -1.792e-21)
(1.02278 -0.0312535 2.46785e-21)
(1.02072 -0.0294115 -1.9197e-22)
(0.87328 0.141837 7.93454e-21)
(0.894999 0.126876 9.40477e-21)
(0.915244 0.136924 -7.46327e-21)
(1.01372 0.00151763 0)
(1.01346 0.00147532 0)
(1.0135 0.00120816 1.421e-21)
(0.58784 0.150454 0)
(0.582143 0.13184 -5.65575e-22)
(1.01329 0.000388399 -1.4845e-21)
(1.01306 0.000354282 -3.43218e-22)
(1.02539 -0.00167421 1.34352e-21)
(1.02561 -0.00204603 1.05817e-21)
(1.00726 0.185241 0)
(1.03465 0.156245 0)
(1.04589 0.141949 0)
(1.00544 -0.253461 -1.26484e-21)
(0.981151 -0.257118 0)
(1.0163 -0.00315398 -5.86414e-22)
(1.01615 -0.00299758 -4.55697e-22)
(1.01636 -0.0030559 9.05011e-22)
(1.02198 -0.001459 -4.85913e-22)
(1.02228 -0.00136095 -3.54117e-22)
(1.02043 0.00318442 -3.86667e-24)
(1.02056 0.00290722 -9.72713e-24)
(1.08858 -0.15455 2.62097e-21)
(1.01366 0.000454738 -1.58026e-22)
(1.01367 0.000663044 1.31749e-21)
(1.01361 0.000630528 -9.43209e-23)
(0.999257 -0.0171752 -7.31835e-22)
(1.00088 -0.0199335 -1.90177e-21)
(1.02609 -0.0111567 -5.81109e-22)
(1.02557 -0.0106377 2.22294e-21)
(1.02619 -0.0105106 1.98884e-21)
(1.00336 -0.0267665 3.68944e-22)
(1.00674 -0.0282623 -1.69533e-21)
(1.00351 -0.0300572 1.08267e-21)
(0.960728 0.0765103 -8.3323e-22)
(0.962687 0.0653913 -2.82004e-21)
(0.905283 0.049599 -3.37648e-21)
(0.899071 0.0663207 5.91214e-21)
(1.02475 -0.00562595 9.06237e-22)
(1.02502 -0.00535583 -3.24434e-22)
(0.850052 0.15651 -7.01243e-21)
(0.828224 0.143125 4.07644e-21)
(1.01187 0.000228251 2.67867e-22)
(1.01271 0.000262161 5.97407e-22)
(1.01226 -0.000787912 -7.77464e-22)
(1.01224 -0.00124002 -7.78261e-22)
(1.01247 -0.00110903 -1.31149e-22)
(0.915151 0.295819 5.46786e-22)
(0.901896 0.283762 6.83104e-22)
(1.02002 0.00316945 -1.48835e-22)
(1.02035 0.00345528 2.39727e-22)
(0.744869 -0.0127057 -1.3139e-22)
(0.728198 -0.0148873 -6.52743e-21)
(0.742194 -0.0570854 -9.29239e-22)
(0.932772 0.0068786 -4.17196e-22)
(0.939818 0.015065 -5.91162e-21)
(0.927399 0.0181339 5.15448e-22)
(1.02029 -0.00156188 3.08842e-23)
(1.02052 -0.00147599 4.19495e-24)
(1.02018 -0.00139174 6.82803e-23)
(1.02624 -0.0080112 -2.80288e-22)
(1.01697 -0.00011424 0)
(1.01687 -0.000183008 0)
(1.03096 -0.0360553 3.89034e-22)
(1.03849 -0.0383847 -3.28078e-21)
(0.985647 0.19476 -2.54797e-21)
(1.01586 -0.0146473 -6.06103e-22)
(1.0157 -0.0132748 1.80203e-21)
(1.01351 0.000893045 1.16643e-22)
(1.01339 0.000821271 -5.66963e-22)
(1.01336 0.000815849 8.28535e-22)
(0.937548 -0.00225306 -2.2393e-21)
(0.925841 -0.000471896 -2.43897e-22)
(1.00722 -0.0799593 4.37201e-21)
(1.00075 -0.0813474 -3.51153e-22)
(1.00345 -0.0755118 -9.03883e-22)
(1.01818 0.00252881 -2.91139e-23)
(1.0184 0.00249179 9.1834e-23)
(1.01777 0.00231022 8.96636e-23)
(1.01781 0.00218057 0)
(1.03544 -0.0109476 -1.19182e-21)
(1.03469 -0.0118043 2.32433e-21)
(1.01289 0.000330109 5.53215e-22)
(1.01315 0.000344649 -7.96565e-22)
(1.01278 0.000314814 0)
(1.04285 -0.0859534 1.05909e-20)
(1.04748 -0.0826466 6.66068e-21)
(1.04173 -0.0808056 -4.26369e-21)
(0.765226 -0.0123761 1.75673e-22)
(0.749328 0.0266032 -6.03414e-22)
(1.01908 0.000100177 -3.68891e-23)
(1.01879 0.000133223 4.5952e-22)
(1.01892 -2.46663e-05 -1.58432e-22)
(1.01397 -0.00239568 -9.29891e-23)
(1.01393 -0.00240178 -8.85137e-22)
(1.01394 -0.00221072 0)
(0.985516 -0.184445 -9.1561e-22)
(1.0041 -0.177454 1.54189e-21)
(1.01268 0.00189295 -2.82215e-21)
(1.01319 0.00212336 -3.70317e-22)
(1.01292 0.00256322 -1.25765e-21)
(1.00104 -0.0154051 -2.9318e-22)
(0.997986 -0.0141019 -6.82766e-22)
(1.01322 0.000864678 2.0995e-21)
(1.01316 0.00123337 -1.10674e-21)
(1.01337 0.00119275 1.04203e-21)
(1.014 -0.00193106 0)
(1.01402 -0.00181746 0)
(1.01405 -0.00177913 -2.15331e-22)
(1.09501 0.00078923 7.83733e-21)
(1.0889 0.0418942 5.11902e-22)
(1.014 -0.00236815 -9.19828e-23)
(1.01398 -0.00221088 1.52846e-21)
(1.01401 -0.00234476 0)
(1.01426 0.00112163 1.26966e-21)
(1.0141 0.00101234 5.65981e-22)
(1.01251 -0.000941604 0)
(1.0125 -0.000966331 1.21821e-21)
(1.01763 -0.00133533 0)
(1.01832 -0.00125083 0)
(1.01441 0.00125648 -1.82508e-21)
(1.00936 -3.4558e-05 3.3274e-22)
(1.00801 8.52066e-05 -5.40179e-22)
(1.02236 -0.00657346 6.63395e-23)
(1.02238 -0.00642074 6.79029e-23)
(1.02257 -0.00658103 -1.90224e-23)
(1.02271 -0.018107 -1.6866e-21)
(1.02414 -0.0183532 -1.72407e-21)
(1.02337 -0.017078 -1.63606e-22)
(0.979241 -0.0815389 1.55319e-21)
(0.986818 -0.0820656 -1.06564e-21)
(1.05502 -0.0759703 0)
(1.0514 -0.0794979 3.8865e-21)
(1.04994 -0.0748295 0)
(1.01395 -0.00184112 -1.86291e-22)
(1.0139 -0.00183417 1.21172e-21)
(1.01393 -0.00175787 -4.897e-24)
(1.02625 -0.00525523 -1.8187e-21)
(1.02644 -0.00589814 -4.97482e-22)
(1.02715 -0.00521838 -6.95076e-24)
(1.0138 -0.00297525 -1.21877e-21)
(1.01391 -0.00287302 -3.26187e-22)
(1.01392 -0.00321601 1.68508e-22)
(1.02138 -0.0178065 -1.96795e-21)
(1.02214 -0.0193583 2.37554e-21)
(1.00789 -0.00806145 -1.51794e-22)
(1.0081 -0.00953994 1.66063e-21)
(1.00907 -0.00873045 -5.37011e-22)
(1.01377 0.000182411 -7.6969e-22)
(1.01371 0.000306621 -1.01226e-21)
(1.01371 0.000358081 1.0713e-21)
(0.942271 -0.200667 1.54258e-21)
(0.929619 -0.197145 3.23742e-21)
(0.929617 -0.215985 -5.94331e-21)
(1.01401 -0.00256692 1.2845e-23)
(0.971387 -0.0810455 -6.82642e-22)
(0.976805 -0.0743992 2.80146e-22)
(1.00836 0.000125926 7.78421e-22)
(1.00982 4.15716e-05 -1.89692e-21)
(1.00886 3.7692e-05 -8.05472e-22)
(1.01215 -0.0112528 6.43615e-22)
(1.01109 -0.00903198 -1.79825e-22)
(1.0191 0.00290194 0)
(1.01941 0.00293614 8.48385e-23)
(1.01918 0.00280461 0)
(1.01895 0.00300508 0)
(1.01882 0.00281952 -9.09133e-23)
(1.00013 -0.0252189 1.9449e-22)
(1.00384 -0.0236201 1.45877e-21)
(1.06388 0.116585 0)
(1.02753 0.166777 3.66887e-21)
(1.01964 -0.0109564 1.4317e-21)
(1.01892 -0.0109189 -2.62947e-21)
(1.01919 -0.0102709 -1.03375e-21)
(1.01383 3.06248e-05 -2.06011e-22)
(1.01381 8.75092e-05 -7.6726e-22)
(1.01437 0.00162605 8.39594e-22)
(1.0143 0.00163932 -5.71952e-22)
(1.01418 0.00152111 0)
(1.02375 0.00295669 6.41566e-22)
(1.02228 0.00163387 2.05065e-21)
(1.02428 0.00145057 -3.80694e-22)
(1.02073 -0.00137789 -5.17846e-23)
(1.02098 -0.00128996 -1.49016e-22)
(1.02063 -0.00117549 2.34669e-23)
(1.00464 -0.014846 -2.44579e-21)
(1.0052 0.0143367 -1.73949e-21)
(0.992807 -0.00264941 -1.38274e-21)
(1.00559 -0.0437589 -6.1739e-21)
(1.01698 -0.0275944 -1.42739e-21)
(1.01645 -0.00329528 -2.32485e-24)
(1.0507 -0.144567 -3.78379e-22)
(1.03655 -0.157453 -1.43914e-21)
(1.0165 -0.000347301 -3.22295e-22)
(1.01647 -0.000316568 1.17992e-23)
(1.01653 -0.000305396 3.2979e-22)
(1.06025 -0.0767261 0)
(1.01747 -0.00177286 -1.07731e-21)
(1.01711 -0.0013541 1.06474e-22)
(1.01836 0.00279847 3.30558e-23)
(1.01829 0.00266153 1.16166e-23)
(1.01855 0.00274833 5.04553e-23)
(1.00819 -7.21607e-05 6.78963e-22)
(1.00602 -3.92488e-05 -1.30663e-22)
(1.00816 -2.5857e-05 5.23397e-22)
(1.01095 -6.96586e-05 -4.59374e-22)
(1.01017 3.23414e-06 -1.06421e-22)
(1.02012 -0.00168313 0)
(1.02039 -0.00173998 0)
(1.02234 -0.00672625 2.59234e-22)
(1.02213 -0.00655704 0)
(1.01481 -0.0138375 2.24393e-22)
(1.01634 -0.0146079 -9.84802e-22)
(1.01592 -0.012929 1.30822e-22)
(1.01131 -0.000317732 9.22853e-22)
(1.01104 -0.00022835 -3.28627e-22)
(1.01155 -0.000348408 -4.30395e-22)
(1.02169 -0.00155165 -1.56004e-22)
(1.02204 -0.00169456 -2.20812e-22)
(1.01938 6.17783e-05 -1.1813e-22)
(1.08171 -0.0626012 4.06823e-21)
(1.09063 -0.0616617 -1.54826e-21)
(1.01791 -0.0118971 1.02663e-21)
(1.01727 -0.0123865 1.00226e-21)
(1.01708 -0.0115279 1.80138e-22)
(1.00632 -0.000147608 -3.38922e-22)
(1.01195 0.000145158 -2.401e-22)
(1.01013 0.0002048 0)
(1.01099 0.000150993 0)
(1.0115 -0.00163437 -4.03129e-22)
(1.01096 -0.00195241 0)
(1.02464 -0.00801205 -4.6662e-22)
(1.02436 -0.00799422 -2.83608e-22)
(1.02443 -0.00768527 2.12706e-22)
(1.01298 -0.0129373 8.82432e-22)
(1.01347 -0.0150373 -1.00995e-21)
(1.01615 -0.000558652 1.46449e-22)
(1.01618 -0.000648305 -6.2421e-22)
(1.01624 -0.000575296 -4.12345e-22)
(0.928623 0.259128 -2.94168e-20)
(0.910657 0.304955 3.49131e-20)
(0.941369 0.26049 2.99615e-20)
(1.01361 0.000974876 -7.66516e-22)
(0.935324 0.290808 0)
(0.917627 0.300384 4.96444e-21)
(0.930609 0.283117 1.50619e-21)
(0.980836 -0.218768 0)
(0.97935 -0.186986 0)
(0.961432 -0.224823 1.30022e-20)
(1.0062 2.39525e-05 -9.45465e-22)
(1.00798 3.43404e-05 -7.32347e-22)
(1.00828 -1.72299e-05 -6.59769e-23)
(1.00901 -0.000116202 -6.39711e-22)
(1.00978 -0.000191068 -2.25535e-22)
(1.01404 -0.000163407 -9.67977e-22)
(1.0141 -0.000173637 5.7391e-22)
(1.01422 -0.000290887 -1.13245e-21)
(1.02531 0.00433923 -5.37588e-22)
(1.0228 0.00469351 -1.70451e-22)
(1.019 -0.00641159 -3.9778e-22)
(1.01863 -0.00737236 3.59312e-23)
(1.01959 -0.00706712 1.12992e-22)
(1.01719 -0.00212565 -1.17492e-21)
(1.01672 -0.00204312 1.01288e-21)
(1.01692 -0.00241145 -1.97869e-21)
(0.950633 0.275738 -5.43709e-21)
(0.934085 0.298169 0)
(1.01612 -0.000312233 -2.26113e-22)
(1.01574 -0.000360252 -6.91687e-22)
(1.01629 -0.000167747 -5.13419e-22)
(1.01397 -0.000109539 2.71185e-22)
(1.01391 -1.74387e-05 -4.87228e-22)
(1.01948 -0.00543364 -4.51206e-23)
(1.01821 -0.00550806 3.91255e-24)
(1.02212 -0.00744383 0)
(1.02238 -0.00735459 0)
(1.02242 -0.00760922 -5.27077e-22)
(1.02215 -0.00553476 4.55127e-23)
(1.02193 -0.00537729 4.06815e-23)
(1.0222 -0.00536499 1.27042e-22)
(1.01386 0.00318507 -9.06355e-22)
(1.01321 0.00315934 -7.04664e-22)
(1.0244 -0.0335873 6.79406e-23)
(1.01451 -0.00135434 -7.75686e-22)
(1.01464 -0.00126264 1.52923e-22)
(1.01465 -0.00133799 -1.61174e-21)
(1.02138 0.000364685 3.06976e-22)
(1.02204 -0.000788711 3.56194e-22)
(1.02046 -0.000921488 -1.13843e-21)
(1.02597 -0.0116959 -3.81893e-21)
(1.02664 -0.0115544 -6.08295e-22)
(1.01404 -0.00152601 -1.53479e-21)
(1.01415 -0.00150675 -6.22209e-24)
(1.01411 -0.00151623 -2.30152e-21)
(1.05687 0.0102463 0)
(0.844926 0.209913 -9.02596e-22)
(0.856885 0.191342 0)
(0.879843 0.199452 2.14174e-22)
(1.05931 -0.0103713 2.61444e-22)
(1.05894 0.00186482 -6.21639e-21)
(1.01968 0.00305168 -2.59301e-22)
(1.01959 0.00324767 -2.17917e-22)
(1.06616 -0.38512 1.49292e-20)
(1.09266 -0.379601 -1.21329e-21)
(1.02409 -0.00792921 8.38637e-22)
(1.02386 -0.0078403 1.64383e-22)
(1.02396 -0.00761658 4.54501e-22)
(0.802825 0.299441 6.76052e-21)
(0.788078 0.28123 -1.28157e-20)
(0.943433 -0.0114284 2.53604e-22)
(0.937389 -0.0171989 5.88784e-21)
(1.01505 0.0021971 0)
(1.0149 0.00202761 0)
(1.01515 0.00212202 4.40737e-22)
(1.04083 -0.0153911 3.06812e-21)
(1.04152 -0.0169442 -2.44444e-21)
(0.948757 -0.00394561 1.12159e-21)
(1.01222 0.000513392 4.26983e-23)
(1.01191 4.8516e-05 1.45517e-21)
(1.00294 -0.013856 5.61414e-22)
(1.00402 -0.0160317 2.50391e-21)
(0.99425 -0.109508 7.61325e-21)
(1.00088 -0.108838 2.32664e-21)
(0.996626 -0.117039 3.04991e-21)
(1.01243 -0.000851924 -3.26912e-22)
(1.01235 -0.000822114 -2.89785e-22)
(1.01236 -0.000778897 -6.7035e-22)
(1.01089 -0.000202503 -8.56833e-22)
(1.01225 -0.000498888 2.51551e-21)
(1.02507 -0.00141778 2.70105e-22)
(1.02491 -0.00170516 -1.16616e-21)
(1.01038 5.30926e-05 -9.88099e-22)
(1.01043 6.11107e-05 -3.36332e-22)
(1.00926 5.68928e-05 -8.91467e-22)
(1.01586 -0.00198756 2.12199e-23)
(1.01583 -0.00157627 -9.95169e-22)
(0.914122 0.11239 9.61868e-21)
(0.945693 0.110001 1.2381e-20)
(0.92915 0.100189 -2.29396e-21)
(1.0159 -0.00397771 -6.94068e-22)
(1.0161 -0.00413813 -6.38162e-22)
(1.01393 -0.001535 -6.25907e-23)
(1.01398 -0.00155448 6.93283e-25)
(0.952747 0.186135 -3.23378e-20)
(1.01224 0.00161975 -1.51341e-21)
(1.01261 0.00133029 -1.72492e-21)
(1.01454 0.00312052 0)
(1.01451 0.0027551 0)
(1.01975 0.00287648 8.45714e-23)
(1.02361 -0.00690617 -1.91049e-22)
(1.02358 -0.00682455 -1.55625e-22)
(1.02352 -0.00698381 1.25887e-22)
(1.01251 -0.000894965 -7.83688e-23)
(0.876175 0.115871 3.24216e-21)
(1.02495 -0.00799816 1.44047e-22)
(1.02527 -0.00792254 6.58023e-22)
(1.02497 -0.00758815 0)
(1.02088 -0.00312472 9.44546e-23)
(1.02097 -0.0032877 -8.16459e-23)
(1.02071 -0.00325236 -7.83592e-23)
(1.02132 -0.00686153 3.67684e-22)
(1.02156 -0.00706204 3.97918e-22)
(1.02128 -0.00712134 -1.2101e-22)
(1.01179 0.00191751 1.84031e-22)
(0.786234 0.0779748 0)
(0.798983 0.107794 7.49567e-21)
(0.789849 0.0600166 1.13089e-21)
(1.02451 -0.00473075 -4.97822e-23)
(1.02409 -0.00468883 3.38262e-22)
(1.05015 -0.0174631 -7.2373e-22)
(1.04622 -0.0170875 -8.15662e-22)
(1.04827 -0.0211223 -2.18628e-21)
(1.0177 0.00241551 1.38546e-23)
(1.00255 -0.0530302 -4.50834e-21)
(1.00678 -0.052326 -4.04741e-21)
(1.0033 -0.0497918 -1.27355e-21)
(0.817157 -0.0659079 -4.13397e-21)
(0.810877 -0.08518 2.30445e-21)
(1.01671 -0.185748 1.47003e-20)
(1.01642 -0.173773 0)
(0.997706 -0.0539386 -1.87774e-21)
(1.00207 -0.0571054 5.8266e-23)
(1.02356 -0.00694562 -2.14667e-23)
(1.02363 -0.00691724 -3.63249e-23)
(1.01087 -0.00427897 -1.64494e-21)
(1.01124 -0.00351364 8.40227e-22)
(1.0105 -0.00328943 7.75636e-22)
(0.852536 0.17383 -2.61189e-21)
(0.814737 0.180928 -2.27564e-21)
(1.00816 -0.000117817 5.9594e-22)
(1.00949 2.57937e-05 8.88116e-23)
(0.955208 -0.202467 4.43738e-21)
(0.957411 -0.185392 3.65933e-21)
(1.01399 0.00266716 -8.65072e-22)
(1.01444 0.00305971 9.55605e-22)
(1.01239 0.000301693 9.81438e-22)
(1.013 0.000351343 1.54361e-22)
(0.981559 -0.239488 0)
(1.00199 -0.209438 7.99452e-21)
(1.00445 -0.0125387 0)
(1.00211 -0.0114536 0)
(0.842883 0.229126 6.00033e-21)
(0.816228 0.2224 -7.93444e-22)
(1.02074 -0.00297227 2.59736e-23)
(1.02102 -0.00304031 1.86345e-22)
(1.03824 -0.0887727 7.93027e-21)
(1.04432 -0.0913182 -1.46767e-21)
(1.15402 -0.146358 -3.63772e-21)
(1.16239 -0.168689 -7.91082e-21)
(1.01119 0.0044425 -1.23264e-21)
(1.01204 0.00567132 1.32024e-21)
(1.01243 0.00440894 -1.2602e-21)
(1.01498 -0.00320777 6.52583e-22)
(1.01481 -0.00304685 5.54413e-22)