/*--------------------------------*- C++ -*----------------------------------*\
| =========                 |                                                 |
| \\      /  F ield         | OpenFOAM: The Open Source CFD Toolbox           |
|  \\    /   O peration     | Version:  v2012                                 |
|   \\  /    A nd           | Website:  www.openfoam.com                      |
|    \\/     M anipulation  |                                                 |
\*---------------------------------------------------------------------------*/
FoamFile
{
    version     2.0;
    format      ascii;
    class       pointVectorField;
    location    "150";
    object      pointDisplacement;
}
// * * * * * * * * * * * * * * * * * * * * * * * * * * * * * * * * * * * * * //

dimensions      [0 1 0 0 0 0 0];


internalField   nonuniform List<vector> 
10400
(
(0 0 0)
(0 0 0)
(0 0 0)
(0 0 0)
(0 0 0)
(0 0 0)
(0 0 0)
(0 0 0)
(0 0 0)
(0 0 0)
(0 0 0)
(0 0 0)
(0 0 0)
(0 0 0)
(0 0 0)
(0 0 0)
(0 0 0)
(0 0 0)
(0 0 0)
(0 0 0)
(0 0 0)
(0 0 0)
(0 0 0)
(0 0 0)
(0 0 0)
(0 0 0)
(0 0 0)
(0 0 0)
(0 0 0)
(0 0 0)
(0 0 0)
(0 0 0)
(0 0 0)
(0 0 0)
(0 0 0)
(0 0 0)
(0 0 0)
(0 0 0)
(0 0 0)
(0 0 0)
(0 0 0)
(0 0 0)
(0 0 0)
(0 0 0)
(0 0 0)
(0 0 0)
(0 0 0)
(0 0 0)
(0 0 0)
(0 0 0)
(0 0 0)
(0 0 0)
(0 0 0)
(0 0 0)
(0 0 0)
(0 0 0)
(0 0 0)
(0 0 0)
(0 0 0)
(0 0 0)
(0 0 0)
(0 0 0)
(0 0 0)
(0 0 0)
(0 0 0)
(0 0 0)
(0 0 0)
(0 0 0)
(0 0 0)
(0 0 0)
(0 0 0)
(0 0 0)
(0 0 0)
(0 0 0)
(0 0 0)
(0 0 0)
(0 0 0)
(0 0 0)
(0 0 0)
(0 0 0)
(0 0 0)
(0 0 0)
(0 0 0)
(0 0 0)
(0 0 0)
(0 0 0)
(0 0 0)
(0 0 0)
(0 0 0)
(0 0 0)
(0 0 0)
(0 0 0)
(0 0 0)
(0 0 0)
(0 0 0)
(0 0 0)
(0 0 0)
(0 0 0)
(0 0 0)
(0 0 0)
(0 0 0)
(0 0 0)
(0 0 0)
(0 0 0)
(0 0 0)
(0 0 0)
(0 0 0)
(0 0 0)
(0 0 0)
(0 0 0)
(0 0 0)
(0 0 0)
(0 0 0)
(0 0 0)
(0 0 0)
(0 0 0)
(0 0 0)
(0 0 0)
(0 0 0)
(0 0 0)
(0 0 0)
(0 0 0)
(0 0 0)
(0 0 0)
(0 0 0)
(0 0 0)
(0 0 0)
(0 0 0)
(0 0 0)
(0 0 0)
(0 0 0)
(0 0 0)
(0 0 0)
(0 0 0)
(0 0 0)
(0 0 0)
(0 0 0)
(0 0 0)
(0 0 0)
(0 0 0)
(0 0 0)
(0 0 0)
(0 0 0)
(0 0 0)
(0 0 0)
(0 0 0)
(0 0 0)
(0 0 0)
(0 0 0)
(0 0 0)
(0 0 0)
(0 0 0)
(0 0 0)
(0 0 0)
(0 0 0)
(0 0 0)
(0 0 0)
(0 0 0)
(0 0 0)
(0 0 0)
(0 0 0)
(0 0 0)
(0 0 0)
(0 0 0)
(0 0 0)
(0 0 0)
(0 0 0)
(0 0 0)
(0 0 0)
(0 0 0)
(0 0 0)
(0 0 0)
(0 0 0)
(0 0 0)
(0 0 0)
(0 0 0)
(0 0 0)
(0 0 0)
(0 0 0)
(0 0 0)
(0 0 0)
(0 0 0)
(0 0 0)
(0 0 0)
(0 0 0)
(0 0 0)
(0 0 0)
(0 0 0)
(0 0 0)
(0 0 0)
(0 0 0)
(0 0 0)
(0 0 0)
(0 0 0)
(0 0 0)
(0 0 0)
(0 0 0)
(0 0 0)
(0 0 0)
(0 0 0)
(0 0 0)
(0 0 0)
(0 0 0)
(0 0 0)
(0 0 0)
(0 0 0)
(0 0 0)
(0 0 0)
(0 0 0)
(0 0 0)
(0 0 0)
(0 0 0)
(0 0 0)
(0 0 0)
(0 0 0)
(0 0 0)
(0 0 0)
(0 0 0)
(0 0 0)
(0 0 0)
(0 0 0)
(0 0 0)
(0 0 0)
(0 0 0)
(0 0 0)
(0 0 0)
(0 0 0)
(0 0 0)
(0 0 0)
(0 0 0)
(0 0 0)
(0 0 0)
(0 0 0)
(0 0 0)
(0 0 0)
(0 0 0)
(0 0 0)
(0 0 0)
(0 0 0)
(0 0 0)
(0 0 0)
(0 0 0)
(0 0 0)
(0 0 0)
(0 0 0)
(0 0 0)
(0 0 0)
(0 0 0)
(0 0 0)
(0 0 0)
(0 0 0)
(0 0 0)
(0 0 0)
(0 0 0)
(0 0 0)
(0 0 0)
(0 0 0)
(0 0 0)
(0 -0.000139356 0)
(0 -0.000139949 0)
(0 -0.000106671 0)
(0 -8.56489e-05 0)
(0 -0.000117935 0)
(0 -5.85665e-05 0)
(0 -0.000120135 0)
(0 -0.000121608 0)
(0 -7.32186e-05 0)
(0 -0.000100981 0)
(0 -6.36417e-05 0)
(0 -6.19407e-05 0)
(0 -5.67862e-05 0)
(0 -5.12008e-05 0)
(0 -3.92859e-05 0)
(0 -3.55688e-05 0)
(0 -3.06909e-05 0)
(0 -2.89876e-05 0)
(0 -0.000113726 0)
(0 -9.87572e-05 0)
(0 -1.8756e-05 0)
(0 -2.02378e-05 0)
(0 -0.000104681 0)
(0 -8.10262e-05 0)
(0 -0.000131902 0)
(0 -0.000139531 0)
(0 -0.000134083 0)
(0 -0.000121076 0)
(0 -6.304e-05 0)
(0 -8.00778e-05 0)
(0 -4.99035e-05 0)
(0 -6.07015e-05 0)
(0 -4.9554e-05 0)
(0 -9.69331e-06 0)
(0 -1.02742e-05 0)
(0 -0.000135168 0)
(0 -0.000138011 0)
(0 -0.000144542 0)
(0 -0.000115549 0)
(0 -0.000111724 0)
(0 -0.00011161 0)
(0 -0.000103637 0)
(0 -9.41363e-05 0)
(0 -2.23387e-05 0)
(0 -5.03012e-05 0)
(0 -7.92951e-05 0)
(0 -5.92999e-05 0)
(0 -2.45441e-05 0)
(0 -3.24503e-05 0)
(0 -3.55504e-05 0)
(0 -6.82163e-05 0)
(0 -4.18436e-06 0)
(0 -0.00169543 0)
(0 -0.00174833 0)
(0 -0.00167008 0)
(0 -0.0017227 0)
(0 -0.0016456 0)
(0 -0.00169976 0)
(0 -0.00162123 0)
(0 -0.00167353 0)
(0 -0.00159635 0)
(0 -0.00164756 0)
(0 -0.00157345 0)
(0 -0.00162517 0)
(0 -0.0015531 0)
(0 -0.00160366 0)
(0 -0.00153429 0)
(0 -0.00158515 0)
(0 -0.00151633 0)
(0 -0.0015689 0)
(0 -0.00150044 0)
(0 -0.00156334 0)
(0 -0.00148395 0)
(0 -0.00153899 0)
(0 -0.00146708 0)
(0 -0.00284474 0)
(0 -0.0028691 0)
(0 -0.00290429 0)
(0 -0.00289104 0)
(0 -0.00292499 0)
(0 -0.00295374 0)
(0 -0.00294222 0)
(0 -0.0029701 0)
(0 -0.00299477 0)
(0 -0.00298453 0)
(0 -0.00300836 0)
(0 -0.00301651 0)
(0 -0.00302952 0)
(0 -0.00301917 0)
(0 -0.00303902 0)
(0 -0.00304718 0)
(0 -0.00305567 0)
(0 -0.00306889 0)
(0 -0.0030613 0)
(0 -0.00307382 0)
(0 -0.00307853 0)
(0 -0.00308235 0)
(0 -0.00307505 0)
(0 -0.00308202 0)
(0 -0.00308742 0)
(0 -0.0030863 0)
(0 -0.00307905 0)
(0 -0.00308235 0)
(0 -0.0030872 0)
(0 -0.00308242 0)
(0 -0.00307924 0)
(0 -0.0030752 0)
(0 -0.00307177 0)
(0 -0.00307323 0)
(0 -0.0030652 0)
(0 -0.00306218 0)
(0 -0.00305447 0)
(0 -0.00305422 0)
(0 -0.00304394 0)
(0 -0.00304214 0)
(0 -0.00303108 0)
(0 -0.00303129 0)
(0 -0.00301776 0)
(0 -0.00152105 0)
(0 -0.00145333 0)
(0 -0.00300094 0)
(0 -0.00300051 0)
(0 -0.00298301 0)
(0 -0.00296169 0)
(0 -0.00296318 0)
(0 -0.00294196 0)
(0 -0.00293796 0)
(0 -0.00291822 0)
(0 -0.00291876 0)
(0 -0.0028946 0)
(0 -0.00289136 0)
(0 -0.00286745 0)
(0 -0.00283804 0)
(0 -0.00283857 0)
(0 -0.00281159 0)
(0 -0.00278164 0)
(0 -0.00278138 0)
(0 -0.00275279 0)
(0 -0.00274884 0)
(0 -0.00272115 0)
(0 -0.00272317 0)
(0 -0.00269018 0)
(0 -0.00268507 0)
(0 -0.00265377 0)
(0 -0.00150837 0)
(0 -0.00144096 0)
(0 -0.00265563 0)
(0 -0.00261943 0)
(0 -0.00261558 0)
(0 -0.0025817 0)
(0 -0.00254227 0)
(0 -0.00254551 0)
(0 -0.00250705 0)
(0 -0.00250113 0)
(0 -0.00246691 0)
(0 -0.00246996 0)
(0 -0.00243069 0)
(0 -0.00242515 0)
(0 -0.00238982 0)
(0 -0.00239212 0)
(0 -0.00235168 0)
(0 -0.00234759 0)
(0 -0.00230976 0)
(0 -0.00226636 0)
(0 -0.00227046 0)
(0 -0.00222755 0)
(0 -0.00218335 0)
(0 -0.00218701 0)
(0 -0.00214326 0)
(0 -0.00213815 0)
(0 -0.00149981 0)
(0 -0.00142934 0)
(0 -0.00214489 0)
(0 -0.0021014 0)
(0 -0.00210076 0)
(0 -0.00205799 0)
(0 -0.00148693 0)
(0 -0.00141679 0)
(0 -0.00136002 0)
(0 -0.00134891 0)
(0 -0.00129274 0)
(0 -0.00128402 0)
(0 -0.00122743 0)
(0 -0.00122237 0)
(0 -0.00116484 0)
(0 -0.00116464 0)
(0 -0.001106 0)
(0 -0.00110256 0)
(0 -0.00105029 0)
(0 -0.00104986 0)
(0 -0.000998642 0)
(0 -0.000999589 0)
(0 -0.000950308 0)
(0 -0.000954599 0)
(0 -0.000904441 0)
(0 -0.000914132 0)
(0 -0.000861912 0)
(0 -0.00087366 0)
(0 -0.000822402 0)
(0 -0.000833007 0)
(0 -0.00078502 0)
(0 -0.000796685 0)
(0 -0.000750842 0)
(0 -0.00205521 0)
(0 -0.000762653 0)
(0 -0.000719361 0)
(0 -0.00201323 0)
(0 -0.000732175 0)
(0 -0.000690448 0)
(0 -0.000704394 0)
(0 -0.0006625 0)
(0 -0.00200831 0)
(0 -0.00147253 0)
(0 -0.000997575 0)
(0 -0.00109777 0)
(0 -0.00196691 0)
(0 -0.00195993 0)
(0 -0.00191868 0)
(0 -0.00191013 0)
(0 -0.00194943 0)
(0 -0.000844245 0)
(0 -0.00189781 0)
(0 -0.00193518 0)
(0 -0.00185921 0)
(0 -0.00184561 0)
(0 -0.00180764 0)
(0 -0.000773341 0)
(0 -0.00179292 0)
(0 -0.00175514 0)
(0 -0.00173964 0)
(0 -0.00192355 0)
(0 -0.00170199 0)
(0 -0.00168559 0)
(0 -0.00154442 0)
(0 -0.00152872 0)
(0 -0.00160174 0)
(0 -0.00158551 0)
(0 -0.00165735 0)
(0 -0.00164081 0)
(0 -0.00170927 0)
(0 -0.00169511 0)
(0 -0.00177037 0)
(0 -0.00174609 0)
(0 -0.00181404 0)
(0 -0.00179128 0)
(0 -0.00185607 0)
(0 -0.00183475 0)
(0 -0.00190574 0)
(0 -0.00164794 0)
(0 -0.00163015 0)
(0 -0.00166454 0)
(0 -0.00187531 0)
(0 -0.00194063 0)
(0 -0.0018128 0)
(0 -0.00160788 0)
(0 -0.00163974 0)
(0 -0.0015744 0)
(0 -0.00190984 0)
(0 -0.00197404 0)
(0 -0.00155096 0)
(0 -0.00151803 0)
(0 -0.00149353 0)
(0 -0.00194067 0)
(0 -0.0020036 0)
(0 -0.00146107 0)
(0 -0.00143572 0)
(0 -0.00196658 0)
(0 -0.00202895 0)
(0 -0.00140386 0)
(0 -0.00137786 0)
(0 -0.00198862 0)
(0 -0.00205031 0)
(0 -0.00134632 0)
(0 -0.00136997 0)
(0 -0.00131963 0)
(0 -0.00134865 0)
(0 -0.0014857 0)
(0 -0.00200651 0)
(0 -0.00206732 0)
(0 -0.00194353 0)
(0 -0.0012897 0)
(0 -0.00131611 0)
(0 -0.00126135 0)
(0 -0.00202031 0)
(0 -0.00207992 0)
(0 -0.00123095 0)
(0 -0.001203 0)
(0 -0.00202923 0)
(0 -0.00208833 0)
(0 -0.00117268 0)
(0 -0.00203364 0)
(0 -0.00209271 0)
(0 -0.00114498 0)
(0 -0.00163181 0)
(0 -0.00111478 0)
(0 -0.00203399 0)
(0 -0.002093 0)
(0 -0.00108772 0)
(0 -0.00105703 0)
(0 -0.00214929 0)
(0 -0.00215032 0)
(0 -0.00208867 0)
(0 -0.00214635 0)
(0 -0.00220587 0)
(0 -0.00220193 0)
(0 -0.00213757 0)
(0 -0.00219242 0)
(0 -0.00225683 0)
(0 -0.00224585 0)
(0 -0.00217755 0)
(0 -0.00222865 0)
(0 -0.00229755 0)
(0 -0.00227908 0)
(0 -0.00280524 0)
(0 -0.00103055 0)
(0 -0.000999531 0)
(0 -0.0010236 0)
(0 -0.00220289 0)
(0 -0.00225258 0)
(0 -0.00233549 0)
(0 -0.00229845 0)
(0 -0.0022205 0)
(0 -0.00226693 0)
(0 -0.00234069 0)
(0 -0.00231085 0)
(0 -0.00223222 0)
(0 -0.00227426 0)
(0 -0.00235167 0)
(0 -0.00231374 0)
(0 -0.000646729 0)
(0 -0.00239014 0)
(0 -0.00235201 0)
(0 -0.00227404 0)
(0 -0.00231066 0)
(0 -0.00188114 0)
(0 -0.000965807 0)
(0 -0.000987419 0)
(0 -0.000942545 0)
(0 -0.00238797 0)
(0 -0.00234473 0)
(0 -0.00225672 0)
(0 -0.00230016 0)
(0 -0.002378 0)
(0 -0.00233092 0)
(0 -0.00225118 0)
(0 -0.00227668 0)
(0 -0.00236076 0)
(0 -0.00230833 0)
(0 -0.00211062 0)
(0 -0.00222057 0)
(0 -0.00225517 0)
(0 -0.00233679 0)
(0 -0.00228384 0)
(0 -0.00220114 0)
(0 -0.00222908 0)
(0 -0.00230977 0)
(0 -0.00225454 0)
(0 -0.00165894 0)
(0 -0.00197499 0)
(0 -0.00105862 0)
(0 -0.00217248 0)
(0 -0.0021974 0)
(0 -0.0022779 0)
(0 -0.00222024 0)
(0 -0.00229846 0)
(0 -0.00224008 0)
(0 -0.00216282 0)
(0 -0.00218183 0)
(0 -0.00225699 0)
(0 -0.0021976 0)
(0 -0.00212409 0)
(0 -0.00213755 0)
(0 -0.00090873 0)
(0 -0.000886048 0)
(0 -0.0022102 0)
(0 -0.00214773 0)
(0 -0.002068 0)
(0 -0.00208514 0)
(0 -0.00215715 0)
(0 -0.00209253 0)
(0 -0.00200972 0)
(0 -0.00202476 0)
(0 -0.00210017 0)
(0 -0.00203237 0)
(0 -0.00194403 0)
(0 -0.00196329 0)
(0 -0.00203937 0)
(0 -0.00197043 0)
(0 -0.00188508 0)
(0 -0.00190228 0)
(0 -0.00197535 0)
(0 -0.00190718 0)
(0 -0.00183519 0)
(0 -0.0018397 0)
(0 -0.000852528 0)
(0 -0.00197683 0)
(0 -0.000830401 0)
(0 -0.00176571 0)
(0 -0.00177209 0)
(0 -0.000797265 0)
(0 -0.00169662 0)
(0 -0.00170347 0)
(0 -0.000775857 0)
(0 -0.000742913 0)
(0 -0.000762284 0)
(0 -0.00162665 0)
(0 -0.00163407 0)
(0 -0.00170792 0)
(0 -0.00163987 0)
(0 -0.0016189 0)
(0 -0.00156475 0)
(0 -0.00157183 0)
(0 -0.000722053 0)
(0 -0.000754458 0)
(0 -0.000689485 0)
(0 -0.00149551 0)
(0 -0.00150322 0)
(0 -0.00164405 0)
(0 -0.000668906 0)
(0 -0.000637187 0)
(0 -0.00142558 0)
(0 -0.00143397 0)
(0 -0.00135545 0)
(0 -0.00136446 0)
(0 -0.000616828 0)
(0 -0.000586135 0)
(0 -0.00128582 0)
(0 -0.00129555 0)
(0 -0.00137134 0)
(0 -0.00130339 0)
(0 -0.00122826 0)
(0 -0.00123644 0)
(0 -0.00127408 0)
(0 -0.000566142 0)
(0 -0.000536446 0)
(0 -0.000553911 0)
(0 -0.00130917 0)
(0 -0.00124272 0)
(0 -0.00117046 0)
(0 -0.00117739 0)
(0 -0.0005052 0)
(0 -0.000520117 0)
(0 -0.00171209 0)
(0 -0.00162653 0)
(0 -0.00110551 0)
(0 -0.0011132 0)
(0 -0.00087237 0)
(0 -0.000927422 0)
(0 -0.000879504 0)
(0 -0.000933552 0)
(0 -0.000884563 0)
(0 -0.000937697 0)
(0 -0.000887674 0)
(0 -0.000516827 0)
(0 -0.000543943 0)
(0 -0.00131239 0)
(0 -0.00140303 0)
(0 -0.000834695 0)
(0 -0.000836971 0)
(0 -0.00104156 0)
(0 -0.00104968 0)
(0 -0.000939855 0)
(0 -0.00156965 0)
(0 -0.000472547 0)
(0 -0.000484922 0)
(0 -0.000990132 0)
(0 -0.000978638 0)
(0 -0.000986833 0)
(0 -0.000784154 0)
(0 -0.000785769 0)
(0 -0.000495047 0)
(0 -0.000519643 0)
(0 -0.000991254 0)
(0 -0.00104169 0)
(0 -0.000968273 0)
(0 -0.000704874 0)
(0 -0.000731549 0)
(0 -0.000746981 0)
(0 -0.000717197 0)
(0 -0.000761142 0)
(0 -0.000790608 0)
(0 -0.000805663 0)
(0 -0.00083572 0)
(0 -0.00085181 0)
(0 -0.000881979 0)
(0 -0.000900798 0)
(0 -0.000866922 0)
(0 -0.000919027 0)
(0 -0.000953311 0)
(0 -0.00097544 0)
(0 -0.000937675 0)
(0 -0.000997693 0)
(0 -0.00100889 0)
(0 -0.000955702 0)
(0 -0.00101701 0)
(0 -0.000969712 0)
(0 -0.00103048 0)
(0 -0.00097726 0)
(0 -0.00103763 0)
(0 -0.00109327 0)
(0 -0.001101 0)
(0 -0.0011581 0)
(0 -0.0011674 0)
(0 -0.00110694 0)
(0 -0.00117435 0)
(0 -0.000919275 0)
(0 -0.00111039 0)
(0 -0.00117768 0)
(0 -0.00122486 0)
(0 -0.0011093 0)
(0 -0.00117479 0)
(0 -0.00110139 0)
(0 -0.00116503 0)
(0 -0.0010379 0)
(0 -0.00123912 0)
(0 -0.0012289 0)
(0 -0.00115051 0)
(0 -0.00121374 0)
(0 -0.00105541 0)
(0 -0.000992793 0)
(0 -0.000924704 0)
(0 -0.00093083 0)
(0 -0.000438653 0)
(0 -0.000448412 0)
(0 -0.000862407 0)
(0 -0.000869189 0)
(0 -0.000733 0)
(0 -0.000734173 0)
(0 -0.00113153 0)
(0 -0.00119473 0)
(0 -0.0020101 0)
(0 -0.0021424 0)
(0 -0.00047119 0)
(0 -0.000493375 0)
(0 -0.00159755 0)
(0 -0.00099675 0)
(0 -0.000801088 0)
(0 -0.000808525 0)
(0 -0.00104167 0)
(0 -0.00109239 0)
(0 -0.000969515 0)
(0 -0.000743559 0)
(0 -0.00130416 0)
(0 -0.00110852 0)
(0 -0.00117193 0)
(0 -0.000403028 0)
(0 -0.000394225 0)
(0 -0.000409326 0)
(0 -0.00045613 0)
(0 -0.000681244 0)
(0 -0.000682084 0)
(0 -0.000733844 0)
(0 -0.000681536 0)
(0 -0.000731995 0)
(0 -0.000679482 0)
(0 -0.000728443 0)
(0 -0.000675696 0)
(0 -0.000723079 0)
(0 -0.000670275 0)
(0 -0.000741748 0)
(0 -0.000749564 0)
(0 -0.00125704 0)
(0 -0.0012343 0)
(0 -0.00114575 0)
(0 -0.00121019 0)
(0 -0.00062289 0)
(0 -0.00061759 0)
(0 -0.000445204 0)
(0 -0.000465074 0)
(0 -0.000734679 0)
(0 -0.00116953 0)
(0 -0.000729212 0)
(0 -0.000629486 0)
(0 -0.0012972 0)
(0 -0.00127685 0)
(0 -0.00117765 0)
(0 -0.00124602 0)
(0 -0.00135433 0)
(0 -0.00131314 0)
(0 -0.00120576 0)
(0 -0.0012756 0)
(0 -0.00138462 0)
(0 -0.00134281 0)
(0 -0.0012329 0)
(0 -0.00130221 0)
(0 -0.000414767 0)
(0 -0.000462251 0)
(0 -0.000360117 0)
(0 -0.000351853 0)
(0 -0.00142276 0)
(0 -0.00136616 0)
(0 -0.00125274 0)
(0 -0.00131712 0)
(0 -0.00109102 0)
(0 -0.00114211 0)
(0 -0.00068332 0)
(0 -0.000691823 0)
(0 -0.000716024 0)
(0 -0.00143039 0)
(0 -0.00138174 0)
(0 -0.00126203 0)
(0 -0.00132491 0)
(0 -0.000813445 0)
(0 -0.00144478 0)
(0 -0.00138729 0)
(0 -0.00126588 0)
(0 -0.00132874 0)
(0 -0.000570073 0)
(0 -0.000565063 0)
(0 -0.000420054 0)
(0 -0.0012046 0)
(0 -0.00126726 0)
(0 -0.0013905 0)
(0 -0.00132976 0)
(0 -0.0014517 0)
(0 -0.00139306 0)
(0 -0.00126845 0)
(0 -0.00133369 0)
(0 -0.00145642 0)
(0 -0.0013979 0)
(0 -0.00127176 0)
(0 -0.001336 0)
(0 -0.00145967 0)
(0 -0.00139745 0)
(0 -0.00127154 0)
(0 -0.00133235 0)
(0 -0.000514377 0)
(0 -0.00172608 0)
(0 -0.00145668 0)
(0 -0.00138964 0)
(0 -0.0012641 0)
(0 -0.0013206 0)
(0 -0.000626419 0)
(0 -0.000417161 0)
(0 -0.000398479 0)
(0 -0.000434769 0)
(0 -0.000319609 0)
(0 -0.000311494 0)
(0 -0.00144421 0)
(0 -0.00137496 0)
(0 -0.00124974 0)
(0 -0.00130433 0)
(0 -0.00117728 0)
(0 -0.00123155 0)
(0 -0.00135723 0)
(0 -0.00128497 0)
(0 -0.000468378 0)
(0 -0.000452819 0)
(0 -0.000499618 0)
(0 -0.000483533 0)
(0 -0.000529545 0)
(0 -0.000515053 0)
(0 -0.000559999 0)
(0 -0.000549187 0)
(0 -0.000594342 0)
(0 -0.000586742 0)
(0 -0.000639664 0)
(0 -0.000627958 0)
(0 -0.000678279 0)
(0 -0.000671079 0)
(0 -0.000721805 0)
(0 -0.000717272 0)
(0 -0.00066665 0)
(0 -0.000714144 0)
(0 -0.000663639 0)
(0 -0.000711683 0)
(0 -0.000662188 0)
(0 -0.000711526 0)
(0 -0.000661063 0)
(0 -0.000713348 0)
(0 -0.000661649 0)
(0 -0.000715767 0)
(0 -0.000664968 0)
(0 -0.000719944 0)
(0 -0.000669498 0)
(0 -0.000725753 0)
(0 -0.000675561 0)
(0 -0.00073377 0)
(0 -0.000784711 0)
(0 -0.000794112 0)
(0 -0.000743708 0)
(0 -0.000765198 0)
(0 -0.000846092 0)
(0 -0.000805604 0)
(0 -0.000755314 0)
(0 -0.000767586 0)
(0 -0.000819109 0)
(0 -0.000768033 0)
(0 -0.000834984 0)
(0 -0.000785867 0)
(0 -0.000883544 0)
(0 -0.000702613 0)
(0 -0.000853151 0)
(0 -0.000805354 0)
(0 -0.000605593 0)
(0 -0.00140866 0)
(0 -0.00133787 0)
(0 -0.00121335 0)
(0 -0.00126771 0)
(0 -0.00139002 0)
(0 -0.00132026 0)
(0 -0.00119659 0)
(0 -0.00124788 0)
(0 -0.00136964 0)
(0 -0.00129628 0)
(0 -0.00117352 0)
(0 -0.00122168 0)
(0 -0.000861392 0)
(0 -0.00134198 0)
(0 -0.00126772 0)
(0 -0.00114713 0)
(0 -0.00119405 0)
(0 -0.00107273 0)
(0 -0.00112061 0)
(0 -0.00123934 0)
(0 -0.00116668 0)
(0 -0.000466663 0)
(0 -0.00041651 0)
(0 -0.00104759 0)
(0 -0.00109451 0)
(0 -0.00121063 0)
(0 -0.00113934 0)
(0 -0.000769097 0)
(0 -0.000760425 0)
(0 -0.000813943 0)
(0 -0.000620031 0)
(0 -0.0010236 0)
(0 -0.00106946 0)
(0 -0.00113935 0)
(0 -0.00119079 0)
(0 -0.00119245 0)
(0 -0.00124144 0)
(0 -0.00124178 0)
(0 -0.00129129 0)
(0 -0.00129043 0)
(0 -0.00134033 0)
(0 -0.00133817 0)
(0 -0.0013886 0)
(0 -0.00138483 0)
(0 -0.00143593 0)
(0 -0.00143062 0)
(0 -0.00148211 0)
(0 -0.00147524 0)
(0 -0.00152712 0)
(0 -0.0015708 0)
(0 -0.00104643 0)
(0 -0.000280913 0)
(0 -0.000273064 0)
(0 -0.000871289 0)
(0 -0.00037373 0)
(0 -0.00051743 0)
(0 -0.000803554 0)
(0 -0.000857468 0)
(0 -0.000603178 0)
(0 -0.000512674 0)
(0 -0.00037066 0)
(0 -0.000353226 0)
(0 -0.000541934 0)
(0 -0.000953534 0)
(0 -0.000999708 0)
(0 -0.000728694 0)
(0 -0.00127626 0)
(0 -0.00138945 0)
(0 -0.000635419 0)
(0 -0.000570979 0)
(0 -0.000559633 0)
(0 -0.000244373 0)
(0 -0.000236769 0)
(0 -0.000750102 0)
(0 -0.000505459 0)
(0 -0.000249147 0)
(0 -0.00125209 0)
(0 -0.00118687 0)
(0 -0.00162245 0)
(0 -0.000883411 0)
(0 -0.000929473 0)
(0 -0.00104298 0)
(0 -0.000972985 0)
(0 -0.000859745 0)
(0 -0.00090339 0)
(0 -0.0010131 0)
(0 -0.000944009 0)
(0 -0.000834853 0)
(0 -0.000875581 0)
(0 -0.000325544 0)
(0 -0.000309495 0)
(0 -0.000464882 0)
(0 -0.00046798 0)
(0 -0.000460462 0)
(0 -0.000845219 0)
(0 -0.00089953 0)
(0 -0.000442064 0)
(0 -0.000209876 0)
(0 -0.000202776 0)
(0 -0.000517539 0)
(0 -0.00120948 0)
(0 -0.00127408 0)
(0 -0.00125217 0)
(0 -0.00131522 0)
(0 -0.00128758 0)
(0 -0.00135084 0)
(0 -0.00131878 0)
(0 -0.00138131 0)
(0 -0.00134565 0)
(0 -0.00141642 0)
(0 -0.00140395 0)
(0 -0.00136481 0)
(0 -0.00130797 0)
(0 -0.0013239 0)
(0 -0.00126731 0)
(0 -0.00127979 0)
(0 -0.00122364 0)
(0 -0.0012337 0)
(0 -0.00117907 0)
(0 -0.00137839 0)
(0 -0.00118746 0)
(0 -0.0011349 0)
(0 -0.00124117 0)
(0 -0.000767836 0)
(0 -0.000809515 0)
(0 -0.000835006 0)
(0 -0.000491413 0)
(0 -0.000506344 0)
(0 -0.000454737 0)
(0 -0.000408714 0)
(0 -0.000403693 0)
(0 -0.000454439 0)
(0 -0.000281894 0)
(0 -0.000267488 0)
(0 -0.000295546 0)
(0 -0.00119361 0)
(0 -0.00124674 0)
(0 -0.000922653 0)
(0 -0.000867258 0)
(0 -0.000867561 0)
(0 -0.000813718 0)
(0 -0.000809064 0)
(0 -0.00075491 0)
(0 -0.000744158 0)
(0 -0.000687877 0)
(0 -0.000698736 0)
(0 -0.000631434 0)
(0 -0.000643833 0)
(0 -0.000670839 0)
(0 -0.000577371 0)
(0 -0.000592785 0)
(0 -0.000526269 0)
(0 -0.000546008 0)
(0 -0.000475102 0)
(0 -0.000486709 0)
(0 -0.00112649 0)
(0 -0.00108435 0)
(0 -0.00017777 0)
(0 -0.000171105 0)
(0 -0.000510561 0)
(0 -0.000517188 0)
(0 -0.00105052 0)
(0 -0.000193476 0)
(0 -0.000162201 0)
(0 -0.00107686 0)
(0 -0.00103698 0)
(0 -0.00104233 0)
(0 -0.000996844 0)
(0 -0.000702604 0)
(0 -0.000745324 0)
(0 -0.000423272 0)
(0 -0.00043468 0)
(0 -0.000491 0)
(0 -0.000443088 0)
(0 -0.000141837 0)
(0 -0.000993366 0)
(0 -0.000954761 0)
(0 -0.000466171 0)
(0 -0.000505244 0)
(0 -0.000384543 0)
(0 -0.000560492 0)
(0 -0.00056825 0)
(0 -0.000611582 0)
(0 -0.000885518 0)
(0 -0.000940422 0)
(0 -0.000436895 0)
(0 -0.000181948 0)
(0 -0.000150954 0)
(0 -0.000168019 0)
(0 -0.0009568 0)
(0 -0.000916933 0)
(0 -0.000914915 0)
(0 -0.00087909 0)
(0 -0.000877562 0)
(0 -0.000842708 0)
(0 -0.000841932 0)
(0 -0.000808009 0)
(0 -0.00080798 0)
(0 -0.000774984 0)
(0 -0.00123981 0)
(0 -0.000404945 0)
(0 -0.000852473 0)
(0 -0.00078681 0)
(0 -0.000680997 0)
(0 -0.000720031 0)
(0 -0.000823054 0)
(0 -0.000755929 0)
(0 -0.000656388 0)
(0 -0.000692564 0)
(0 -0.000788048 0)
(0 -0.000725927 0)
(0 -0.000630884 0)
(0 -0.000665111 0)
(0 -0.000619159 0)
(0 -0.000664037 0)
(0 -0.000357445 0)
(0 -0.0003527 0)
(0 -0.000511183 0)
(0 -0.00113452 0)
(0 -0.00118065 0)
(0 -0.000570818 0)
(0 -0.000605613 0)
(0 -0.000728792 0)
(0 -0.000648551 0)
(0 -0.000709395 0)
(0 -0.00062318 0)
(0 -0.000686983 0)
(0 -0.000597072 0)
(0 -0.000662636 0)
(0 -0.000534956 0)
(0 -0.00099036 0)
(0 -0.000670426 0)
(0 -0.00071799 0)
(0 -0.00073015 0)
(0 -0.000658197 0)
(0 -0.00034082 0)
(0 -0.000498572 0)
(0 -0.000416828 0)
(0 -0.000239862 0)
(0 -0.000652203 0)
(0 -0.000775339 0)
(0 -0.00119756 0)
(0 -0.00125113 0)
(0 -0.00130166 0)
(0 -0.00130719 0)
(0 -0.00135881 0)
(0 -0.000356836 0)
(0 -0.000368778 0)
(0 -0.000723025 0)
(0 -0.000773488 0)
(0 -0.000570372 0)
(0 -0.000635585 0)
(0 -0.000842369 0)
(0 -0.000384106 0)
(0 -0.000444969 0)
(0 -0.000391727 0)
(0 -0.000911689 0)
(0 -0.000543913 0)
(0 -0.00049652 0)
(0 -0.000451712 0)
(0 -0.000398187 0)
(0 -0.000292583 0)
(0 -0.000512371 0)
(0 -0.000547042 0)
(0 -0.00136594 0)
(0 -0.00141813 0)
(0 -0.00085406 0)
(0 -0.00130237 0)
(0 -0.000705296 0)
(0 -0.000311111 0)
(0 -0.000324145 0)
(0 -0.000614597 0)
(0 -0.000528027 0)
(0 -0.000480086 0)
(0 -0.000513644 0)
(0 -0.000463719 0)
(0 -0.000501476 0)
(0 -0.000451897 0)
(0 -0.000346439 0)
(0 -0.00013717 0)
(0 -0.000151381 0)
(0 -0.00161097 0)
(0 -0.00125054 0)
(0 -0.00152288 0)
(0 -0.000982167 0)
(0 -0.000916863 0)
(0 -0.000956314 0)
(0 -0.0013099 0)
(0 -0.00137516 0)
(0 -0.0015094 0)
(0 -0.000637261 0)
(0 -0.000578647 0)
(0 -0.000489672 0)
(0 -0.000521578 0)
(0 -0.00144792 0)
(0 -0.00147922 0)
(0 -0.00112747 0)
(0 -0.00117205 0)
(0 -0.00122551 0)
(0 -0.00121559 0)
(0 -0.00126937 0)
(0 -0.00116123 0)
(0 -0.00120391 0)
(0 -0.00133919 0)
(0 -0.00103514 0)
(0 -0.00153244 0)
(0 -0.000822558 0)
(0 -0.00132379 0)
(0 -0.00136158 0)
(0 -0.0014333 0)
(0 -0.00146744 0)
(0 -0.00139626 0)
(0 -0.0015387 0)
(0 -0.00149782 0)
(0 -0.00142778 0)
(0 -0.00150428 0)
(0 -0.00160798 0)
(0 -0.00157393 0)
(0 -0.000981544 0)
(0 -0.00235535 0)
(0 -0.0020442 0)
(0 -0.00204225 0)
(0 -0.00210788 0)
(0 -0.0021032 0)
(0 -0.00216726 0)
(0 -0.00216039 0)
(0 -0.00222266 0)
(0 -0.00221415 0)
(0 -0.00227505 0)
(0 -0.00226478 0)
(0 -0.00220438 0)
(0 -0.00225319 0)
(0 -0.0021936 0)
(0 -0.00232445 0)
(0 -0.00224046 0)
(0 -0.00218168 0)
(0 -0.00233475 0)
(0 -0.00238284 0)
(0 -0.00239352 0)
(0 -0.0022262 0)
(0 -0.00216831 0)
(0 -0.0024396 0)
(0 -0.00245036 0)
(0 -0.00249446 0)
(0 -0.00250452 0)
(0 -0.00248146 0)
(0 -0.00221014 0)
(0 -0.00215331 0)
(0 -0.00254768 0)
(0 -0.00255728 0)
(0 -0.00259869 0)
(0 -0.00260841 0)
(0 -0.00226647 0)
(0 -0.0022476 0)
(0 -0.00264783 0)
(0 -0.00265773 0)
(0 -0.00261645 0)
(0 -0.00266599 0)
(0 -0.00230253 0)
(0 -0.00211003 0)
(0 -0.00209552 0)
(0 -0.00270538 0)
(0 -0.00271351 0)
(0 -0.00267241 0)
(0 -0.00271951 0)
(0 -0.00275827 0)
(0 -0.00276383 0)
(0 -0.00228097 0)
(0 -0.00272311 0)
(0 -0.00276699 0)
(0 -0.00280509 0)
(0 -0.0028074 0)
(0 -0.0027682 0)
(0 -0.00280793 0)
(0 -0.00276811 0)
(0 -0.0028068 0)
(0 -0.0028457 0)
(0 -0.00284427 0)
(0 -0.00280442 0)
(0 -0.0028403 0)
(0 -0.00287823 0)
(0 -0.00287196 0)
(0 -0.0028289 0)
(0 -0.00286253 0)
(0 -0.00290051 0)
(0 -0.00288883 0)
(0 -0.00284308 0)
(0 -0.00287345 0)
(0 -0.00291291 0)
(0 -0.00289725 0)
(0 -0.00285614 0)
(0 -0.00287867 0)
(0 -0.00283635 0)
(0 -0.00285724 0)
(0 -0.00289722 0)
(0 -0.00287571 0)
(0 -0.00283265 0)
(0 -0.00285028 0)
(0 -0.00289503 0)
(0 -0.00286405 0)
(0 -0.00282246 0)
(0 -0.00283398 0)
(0 -0.00287166 0)
(0 -0.00284111 0)
(0 -0.002803 0)
(0 -0.00280679 0)
(0 -0.0028431 0)
(0 -0.0028069 0)
(0 -0.00276952 0)
(0 -0.00276756 0)
(0 -0.00280242 0)
(0 -0.00276168 0)
(0 -0.00272457 0)
(0 -0.00271774 0)
(0 -0.00275216 0)
(0 -0.00270753 0)
(0 -0.00267016 0)
(0 -0.0026578 0)
(0 -0.00269372 0)
(0 -0.00264252 0)
(0 -0.00267774 0)
(0 -0.00262586 0)
(0 -0.00266052 0)
(0 -0.00260718 0)
(0 -0.00257209 0)
(0 -0.00255217 0)
(0 -0.00258473 0)
(0 -0.00252857 0)
(0 -0.00255819 0)
(0 -0.00249367 0)
(0 -0.00252949 0)
(0 -0.00247002 0)
(0 -0.00249966 0)
(0 -0.00243727 0)
(0 -0.00246312 0)
(0 -0.00239125 0)
(0 -0.00242202 0)
(0 -0.00235812 0)
(0 -0.00238102 0)
(0 -0.00231604 0)
(0 -0.00229558 0)
(0 -0.00261925 0)
(0 -0.00240651 0)
(0 -0.00249699 0)
(0 -0.00233769 0)
(0 -0.00226985 0)
(0 -0.00205038 0)
(0 -0.00203585 0)
(0 -0.00207879 0)
(0 -0.00201929 0)
(0 -0.00197489 0)
(0 -0.00195868 0)
(0 -0.00191307 0)
(0 -0.00189615 0)
(0 -0.00185049 0)
(0 -0.00183265 0)
(0 -0.0027109 0)
(0 -0.00263532 0)
(0 -0.00258869 0)
(0 -0.00229198 0)
(0 -0.001787 0)
(0 -0.00176902 0)
(0 -0.00222181 0)
(0 -0.00235981 0)
(0 -0.00233427 0)
(0 -0.00205991 0)
(0 -0.00248688 0)
(0 -0.00180964 0)
(0 -0.00172292 0)
(0 -0.00170566 0)
(0 -0.00224447 0)
(0 -0.00231003 0)
(0 -0.00245823 0)
(0 -0.00165894 0)
(0 -0.00164232 0)
(0 -0.00217217 0)
(0 -0.0021483 0)
(0 -0.00159507 0)
(0 -0.00157925 0)
(0 -0.0015314 0)
(0 -0.00151659 0)
(0 -0.00146835 0)
(0 -0.00145403 0)
(0 -0.00167384 0)
(0 -0.00140577 0)
(0 -0.00139195 0)
(0 -0.00203864 0)
(0 -0.00219627 0)
(0 -0.0018653 0)
(0 -0.00236172 0)
(0 -0.00143422 0)
(0 -0.00209696 0)
(0 -0.00207268 0)
(0 -0.00238619 0)
(0 -0.00134361 0)
(0 -0.00133031 0)
(0 -0.00233507 0)
(0 -0.00228395 0)
(0 -0.00241183 0)
(0 -0.00243679 0)
(0 -0.00162095 0)
(0 -0.00230649 0)
(0 -0.00225602 0)
(0 -0.0012818 0)
(0 -0.0012693 0)
(0 -0.00202026 0)
(0 -0.00199706 0)
(0 -0.00204973 0)
(0 -0.00197576 0)
(0 -0.0020285 0)
(0 -0.00195567 0)
(0 -0.00200759 0)
(0 -0.00193617 0)
(0 -0.00198755 0)
(0 -0.00122032 0)
(0 -0.00120889 0)
(0 -0.00115918 0)
(0 -0.00114854 0)
(0 -0.00109864 0)
(0 -0.00108828 0)
(0 -0.00103878 0)
(0 -0.00246062 0)
(0 -0.00248643 0)
(0 -0.0011327 0)
(0 -0.00102595 0)
(0 -0.00227585 0)
(0 -0.00222619 0)
(0 -0.00129183 0)
(0 -0.00250806 0)
(0 -0.00253455 0)
(0 -0.00204473 0)
(0 -0.0021718 0)
(0 -0.00293399 0)
(0 -0.00232193 0)
(0 -0.00284349 0)
(0 -0.00268284 0)
(0 -0.00266742 0)
(0 -0.00271302 0)
(0 -0.00269515 0)
(0 -0.0027387 0)
(0 -0.00275585 0)
(0 -0.00277938 0)
(0 -0.00279648 0)
(0 -0.00243274 0)
(0 -0.00283863 0)
(0 -0.00287481 0)
(0 -0.00286748 0)
(0 -0.00290159 0)
(0 -0.00289137 0)
(0 -0.00290856 0)
(0 -0.00293289 0)
(0 -0.00294027 0)
(0 -0.00137879 0)
(0 -0.00242486 0)
(0 -0.000924443 0)
(0 -0.000869588 0)
(0 -0.000979722 0)
(0 -0.00294705 0)
(0 -0.00296642 0)
(0 -0.00297686 0)
(0 -0.00299464 0)
(0 -0.0030031 0)
(0 -0.0030183 0)
(0 -0.00300852 0)
(0 -0.000305888 0)
(0 -0.000299512 0)
(0 -0.000309001 0)
(0 -0.00226773 0)
(0 -0.00222044 0)
(0 -0.0022916 0)
(0 -0.00152803 0)
(0 -0.00159722 0)
(0 -0.00164312 0)
(0 -0.00171066 0)
(0 -0.00175426 0)
(0 -0.00181946 0)
(0 -0.00177562 0)
(0 -0.00156802 0)
(0 -0.0016224 0)
(0 -0.00167788 0)
(0 -0.0017286 0)
(0 -0.00178157 0)
(0 -0.00182898 0)
(0 -0.00177511 0)
(0 -0.00187311 0)
(0 -0.00181799 0)
(0 -0.000603758 0)
(0 -0.0011031 0)
(0 -0.00104724 0)
(0 -0.000971838 0)
(0 -0.000913759 0)
(0 -0.000837537 0)
(0 -0.000777109 0)
(0 -0.000853053 0)
(0 -0.000700464 0)
(0 -0.00076198 0)
(0 -0.00150846 0)
(0 -0.000182047 0)
(0 -0.000646432 0)
(0 -0.00137568 0)
(0 -0.00169693 0)
(0 -0.000151984 0)
(0 -0.000153508 0)
(0 -0.000122288 0)
(0 -0.00114122 0)
(0 -0.0010774 0)
(0 -0.00101307 0)
(0 -0.000947449 0)
(0 -0.000883252 0)
(0 -0.000816203 0)
(0 -0.00088055 0)
(0 -0.000752619 0)
(0 -0.00081721 0)
(0 -0.000747575 0)
(0 -0.000814982 0)
(0 -0.000680283 0)
(0 -0.000751511 0)
(0 -0.000862691 0)
(0 -0.00204789 0)
(0 -0.000533537 0)
(0 -0.00109658 0)
(0 -0.000872755 0)
(0 -0.00237297 0)
(0 -0.00242811 0)
(0 -0.00244248 0)
(0 -0.0024957 0)
(0 -0.00250732 0)
(0 -0.00247963 0)
(0 -0.00254541 0)
(0 -0.00252798 0)
(0 -0.00168762 0)
(0 -0.00194339 0)
(0 -0.00205703 0)
(0 -0.000858178 0)
(0 -0.00153821 0)
(0 -0.00152431 0)
(0 -0.00181718 0)
(0 -0.000593416 0)
(0 -0.00173134 0)
(0 -0.00183203 0)
(0 -0.00178332 0)
(0 -0.00188314 0)
(0 -0.00183528 0)
(0 -0.00246207 0)
(0 -0.00249368 0)
(0 -0.0025292 0)
(0 -0.00255812 0)
(0 -0.00259174 0)
(0 -0.00261735 0)
(0 -0.00258381 0)
(0 -0.00179584 0)
(0 -0.00173059 0)
(0 -0.00102315 0)
(0 -0.00182857 0)
(0 -0.00120469 0)
(0 -0.00118992 0)
(0 -0.0012603 0)
(0 -0.000765062 0)
(0 -0.000714342 0)
(0 -0.000644883 0)
(0 -0.000948341 0)
(0 -0.000896502 0)
(0 -0.000821848 0)
(0 -0.000767548 0)
(0 -0.000693457 0)
(0 -0.00154891 0)
(0 -0.00285278 0)
(0 -0.00206693 0)
(0 -0.000447678 0)
(0 -0.00166998 0)
(0 -0.00172775 0)
(0 -0.00213708 0)
(0 -0.00206326 0)
(0 -0.000779804 0)
(0 -0.00281204 0)
(0 -0.000898197 0)
(0 -0.00245313 0)
(0 -0.00251549 0)
(0 -0.00246075 0)
(0 -0.000843312 0)
(0 -0.00071146 0)
(0 -0.00172545 0)
(0 -0.00263098 0)
(0 -0.00257962 0)
(0 -0.00259027 0)
(0 -0.00253847 0)
(0 -0.00254794 0)
(0 -0.00249576 0)
(0 -0.00248433 0)
(0 -0.0025038 0)
(0 -0.00255473 0)
(0 -0.00244219 0)
(0 -0.0024298 0)
(0 -0.00250782 0)
(0 -0.00255686 0)
(0 -0.00256284 0)
(0 -0.00102055 0)
(0 -0.00188068 0)
(0 -0.00197139 0)
(0 -0.00191277 0)
(0 -0.00190525 0)
(0 -0.00184696 0)
(0 -0.00183616 0)
(0 -0.00185463 0)
(0 -0.00178935 0)
(0 -0.00179715 0)
(0 -0.00173274 0)
(0 -0.00174057 0)
(0 -0.00167757 0)
(0 -0.0016841 0)
(0 -0.00166621 0)
(0 -0.00161194 0)
(0 -0.00174211 0)
(0 -0.00168403 0)
(0 -0.00173641 0)
(0 -0.00167734 0)
(0 -0.00172553 0)
(0 -0.00166683 0)
(0 -0.00171079 0)
(0 -0.00162338 0)
(0 -0.000262841 0)
(0 -0.00036062 0)
(0 -0.000354066 0)
(0 -0.000394521 0)
(0 -0.000388817 0)
(0 -0.00302682 0)
(0 -0.00300556 0)
(0 -0.00301111 0)
(0 -0.00298796 0)
(0 -0.002992 0)
(0 -0.00296682 0)
(0 -0.00297001 0)
(0 -0.00299471 0)
(0 -0.00294216 0)
(0 -0.00293828 0)
(0 -0.00297219 0)
(0 -0.00299547 0)
(0 -0.00298483 0)
(0 -0.0030093 0)
(0 -0.000457232 0)
(0 -0.000403438 0)
(0 -0.000324099 0)
(0 -0.00287392 0)
(0 -0.00283325 0)
(0 -0.00285493 0)
(0 -0.00281272 0)
(0 -0.00283284 0)
(0 -0.00278201 0)
(0 -0.0015773 0)
(0 -0.000774431 0)
(0 -0.000779387 0)
(0 -0.000827938 0)
(0 -0.000830499 0)
(0 -0.000881858 0)
(0 -0.000778907 0)
(0 -0.000884343 0)
(0 -0.000936692 0)
(0 -0.000934895 0)
(0 -0.000990959 0)
(0 -0.000991045 0)
(0 -0.0010487 0)
(0 -0.00105001 0)
(0 -0.000992469 0)
(0 -0.00105256 0)
(0 -0.000995035 0)
(0 -0.00105711 0)
(0 -0.00111475 0)
(0 -0.00112094 0)
(0 -0.00106298 0)
(0 -0.0011278 0)
(0 -0.0010704 0)
(0 -0.00113424 0)
(0 -0.00107989 0)
(0 -0.00114366 0)
(0 -0.00109151 0)
(0 -0.00115635 0)
(0 -0.00110391 0)
(0 -0.00116927 0)
(0 -0.00111721 0)
(0 -0.00118337 0)
(0 -0.00113069 0)
(0 -0.00119959 0)
(0 -0.00114893 0)
(0 -0.00121812 0)
(0 -0.00117073 0)
(0 -0.00110859 0)
(0 -0.00123805 0)
(0 -0.0011859 0)
(0 -0.00128901 0)
(0 -0.00190248 0)