/*--------------------------------*- C++ -*----------------------------------*\
| =========                 |                                                 |
| \\      /  F ield         | OpenFOAM: The Open Source CFD Toolbox           |
|  \\    /   O peration     | Version:  v2012                                 |
|   \\  /    A nd           | Website:  www.openfoam.com                      |
|    \\/     M anipulation  |                                                 |
\*---------------------------------------------------------------------------*/
FoamFile
{
    version     2.0;
    format      ascii;
    class       volVectorField;
    location    "900";
    object      ddt0(U);
}
// * * * * * * * * * * * * * * * * * * * * * * * * * * * * * * * * * * * * * //

dimensions      [0 1 -2 0 0 0 0];


internalField   nonuniform List<vector> 
9793
(
(0.000767225 -0.00201562 -1.97456e-17)
(0.00789254 0.00616863 -1.35065e-17)
(0.0014918 -0.000266496 -1.11342e-17)
(-0.00199148 -0.0649112 -1.43885e-18)
(0.0010518 -0.000147869 2.53316e-18)
(0.0223993 0.0206255 -2.26348e-17)
(0.0158459 -0.00309546 9.0387e-18)
(-0.0190317 0.00123296 1.09739e-17)
(0.00194023 0.00130888 1.30063e-18)
(-0.0136982 0.015985 -3.77657e-17)
(0.00119714 -0.000288573 4.13302e-18)
(0.00122494 -0.000315158 5.55289e-18)
(2.41216e-05 0.000109022 4.36274e-18)
(-0.0476215 -0.0385027 3.94624e-17)
(0.00453359 0.000804949 -1.22168e-19)
(-0.00407769 0.00356653 -6.57693e-18)
(0.0121634 0.0116735 -1.33454e-19)
(-0.0015508 -0.000154205 1.40804e-18)
(0.00308242 -0.0501166 -1.76846e-17)
(0.00230376 0.000219453 -2.27684e-19)
(0.000908972 0.000537693 4.51818e-19)
(-7.01482e-07 -2.47633e-05 7.92782e-18)
(-0.00220121 -0.0605642 1.6258e-17)
(-0.0189375 0.000387772 -5.25788e-17)
(-0.0537673 -0.0352045 -2.69805e-17)
(0.00215763 -0.00328714 -2.44663e-17)
(0.000624217 -0.000384066 2.99772e-18)
(-0.000382612 -3.93284e-05 9.25143e-20)
(0.00243084 0.000238061 1.75783e-19)
(0.0175439 0.00549887 2.16237e-17)
(-0.0322969 -0.00136903 8.83114e-17)
(0.0248722 0.0177957 2.03832e-17)
(0.00286967 -0.000299788 -3.54134e-18)
(0.00137293 -5.5133e-05 1.85294e-18)
(0.00291079 8.10738e-06 -1.13326e-19)
(0.00225782 0.00861714 4.47934e-18)
(-0.00482206 0.00302635 1.32965e-17)
(0.000528567 -0.00334681 7.93979e-18)
(0.0115187 -0.0589418 -7.3256e-18)
(0.00667698 0.00601157 -1.53999e-18)
(0.0162574 0.00545225 -3.36096e-17)
(0.0637155 0.0105714 -1.0992e-17)
(-0.0282683 -0.00997607 -6.5844e-17)
(0.000609571 -2.63465e-05 4.21163e-19)
(-0.000307976 -0.000253443 1.21583e-17)
(-0.000643801 -0.000480662 -1.55423e-18)
(-0.0312447 0.00375478 4.03609e-17)
(0.000671185 -3.94708e-05 7.84017e-19)
(-0.00170757 0.000350537 5.289e-18)
(-0.000938239 -0.00016412 4.73108e-19)
(0.00192196 0.00867388 1.10269e-17)
(0.00240162 9.35348e-06 -1.58681e-18)
(0.00598233 0.0109331 -2.04752e-18)
(0.000730555 -9.32644e-05 3.92155e-18)
(0.00389903 -0.00437031 -6.91921e-19)
(-0.00244694 -0.0644565 5.39041e-18)
(-0.000322053 0.000119918 -4.15781e-19)
(0.00660356 0.0283191 5.4206e-18)
(-0.00152299 0.000441898 -3.62398e-18)
(1.57688e-06 -2.17994e-05 -2.07741e-18)
(0.000865342 -0.00378469 4.69591e-18)
(0.00542099 -0.00943727 7.79141e-18)
(0.00113424 -0.000191981 3.60693e-18)
(-0.00505336 0.0130432 -1.48541e-18)
(-0.000696925 2.13335e-05 -2.74392e-18)
(0.00172085 0.00123355 -1.07222e-18)
(-0.0209327 0.00179735 -2.54189e-17)
(0.00392956 0.00423782 1.91826e-19)
(-0.00533877 0.00271768 1.5342e-18)
(0.022531 -0.0274424 6.02313e-17)
(0.000864702 -0.00126365 -1.33224e-17)
(-0.000575611 -0.00890905 -6.56463e-17)
(-0.0253145 0.00239184 -1.31393e-17)
(0.214814 0.115387 4.1193e-18)
(0.0613623 -0.0137339 2.3776e-17)
(0.000927486 -8.46014e-05 -3.88957e-19)
(0.00265302 -0.00676215 -7.99085e-19)
(0.0409621 0.00903865 -1.79214e-18)
(0.000950833 -0.000218157 -1.79835e-18)
(0.00049401 -0.000100088 -9.04165e-18)
(0.00233732 -0.0069721 4.02084e-17)
(0.00365498 -0.047767 5.78559e-17)
(0.0109219 0.0119338 -1.98794e-18)
(0.00419144 -0.00115169 3.25422e-18)
(-0.00493715 0.00323966 1.78462e-18)
(0.0282947 0.00657785 -4.06419e-18)
(0.00127624 -0.000136111 4.96422e-18)
(-0.00380344 0.029569 2.14076e-17)
(0.00959949 -0.0611013 1.68329e-17)
(0.00510911 -0.00915521 -6.54177e-19)
(-0.00485658 -0.0599559 1.47781e-17)
(0.0473384 0.00701664 -7.58107e-17)
(0.0458572 0.000709653 -5.79212e-18)
(0.010912 0.00366369 2.04847e-18)
(-0.0245677 -0.0155887 4.52364e-17)
(0.000309495 -0.000158975 -4.68283e-18)
(0.0630917 -0.00819747 2.10307e-17)
(0.0124988 0.00890994 2.80723e-17)
(0.00545826 0.0028831 -1.15353e-17)
(0.000997028 -0.000110774 -1.60982e-18)
(-0.0128044 -0.0581545 2.25917e-17)
(0.00610447 0.0103563 -9.30131e-18)
(0.0339151 0.207953 1.0278e-17)
(-0.000216394 -0.000249481 4.58531e-18)
(0.0879329 -0.0297474 9.35374e-17)
(0.0372838 0.00242537 1.12744e-17)
(0.207815 0.0971451 -1.92444e-18)
(0.00183955 8.87852e-05 5.012e-20)
(0.000649075 -0.000232159 -2.58463e-18)
(0.000934497 -4.83466e-05 -4.23155e-18)
(0.00103808 -9.81822e-05 1.4625e-18)
(-0.00310344 -0.0594461 -1.01886e-17)
(0.000462291 -0.0105904 -9.32197e-17)
(-0.0191691 -0.00336512 -5.91512e-17)
(0.000717734 -0.00127279 8.47204e-18)
(0.00243264 -0.000582081 -2.96707e-19)
(-0.00375948 -0.00099485 -3.73384e-18)
(-0.00158941 -0.00050498 4.57251e-18)
(-0.00225264 -0.0644064 -1.02126e-17)
(-0.00030302 -0.000403968 -4.7325e-18)
(0.0816072 -0.0383096 9.25892e-18)
(-0.00230602 0.0311211 2.21438e-17)
(0.0851689 0.00426817 4.23386e-17)
(0.00407489 0.0148987 -6.72479e-18)
(-0.00444152 0.00344944 -3.29499e-18)
(-0.000634826 -0.000436495 4.13556e-18)
(0.0139472 0.0106649 2.44477e-17)
(-0.0316503 -0.00161782 2.54595e-17)
(0.00125228 0.0508453 3.72668e-17)
(0.000990216 0.0536471 -3.65586e-17)
(-0.00182643 0.00435747 9.57545e-19)
(0.00226681 -2.16756e-05 -7.13506e-19)
(0.000710939 -0.00192618 1.62214e-17)
(0.00345039 0.00367719 -1.14737e-18)
(0.00169533 0.0077057 -2.77866e-18)
(0.0219747 -0.00318978 3.1634e-17)
(0.0240533 0.0308504 -3.64145e-17)
(-0.00384331 -0.000384962 8.86787e-18)
(0.000404014 -5.81599e-05 9.48947e-19)
(0.0125737 0.0140975 -2.50052e-17)
(0.00233641 -0.0417062 -4.63021e-17)
(0.00269205 0.00810356 -3.60423e-18)
(-0.00106895 -0.000962162 6.98602e-20)
(-0.00399836 0.0240006 -1.75091e-18)
(-0.0310966 0.00500959 2.45794e-17)
(0.0137991 -0.0148511 2.13308e-17)
(-0.000510911 -0.00043718 -1.06223e-17)
(0.0554357 -0.010816 5.47623e-17)
(0.00172964 -2.00685e-05 3.08142e-19)
(-0.000743101 -0.000414965 1.23177e-17)
(0.00166569 -0.000425463 -3.25929e-18)
(-0.0232228 0.00128146 -1.04027e-16)
(0.00467907 0.00279689 1.14993e-17)
(0.000666004 -0.000401707 5.86958e-19)
(0.000547218 -0.000715841 1.13562e-19)
(0.0462232 -0.00671655 1.50186e-17)
(0.012637 0.0123682 -6.50124e-18)
(0.000111278 -0.000177455 -6.53091e-18)
(0.0242854 0.018261 -2.72517e-17)
(0.00118357 -0.00091279 -1.39378e-19)
(-0.00327484 0.0272546 -1.71001e-17)
(-0.000365931 0.00461255 -3.11149e-18)
(0.000861319 0.000571531 -1.97131e-18)
(0.00246062 -0.0114453 1.05815e-17)
(-0.000966358 0.00172964 -2.19896e-18)
(0.0424596 0.0121591 1.47458e-17)
(-0.00944744 0.218549 4.50351e-18)
(-0.000482962 0.00223861 -1.72198e-19)
(0.000426109 9.65496e-05 -3.39885e-19)
(8.97729e-05 -0.000235471 -4.50235e-19)
(-7.49462e-05 -0.00106961 -1.87525e-19)
(-0.00281445 -0.00136378 -6.48285e-17)
(-0.0416253 0.0105805 1.32667e-16)
(0.00916022 -0.0427731 8.35542e-17)
(3.00516e-05 0.000108193 1.85157e-18)
(0.0216362 0.0210461 5.75464e-17)
(0.010877 -0.00992536 1.11123e-17)
(0.00181494 -0.012357 -4.75223e-18)
(0.000727391 -0.000203496 -1.4447e-18)
(0.00310915 0.00443588 -6.14573e-18)
(0.101145 -0.0237654 -4.2646e-17)
(-0.0305664 0.00388549 -6.3906e-17)
(-0.00249544 0.0330183 -1.08218e-17)
(-0.00079666 -0.00043608 -2.01126e-18)
(-0.000925345 -0.000593881 7.53678e-19)
(0.00114831 8.7887e-05 8.62889e-19)
(0.10071 0.00924218 6.90237e-18)
(-0.0269383 0.00259208 1.89945e-17)
(-0.0291622 -0.0014561 3.00016e-18)
(0.0498223 0.194699 3.65767e-18)
(0.00182248 0.000997328 5.24945e-19)
(0.00620879 -0.0707526 -2.24722e-17)
(0.000214574 -0.0104872 -2.73403e-17)
(0.000949811 -0.00340378 3.07807e-17)
(-0.000525688 2.86974e-05 2.52694e-18)
(0.0025127 -0.0019232 1.22797e-17)
(-0.000521655 -0.0115587 -8.59586e-17)
(-2.60957e-05 0.000219638 -4.35874e-19)
(-0.00140695 -0.000161144 -3.91594e-18)
(-0.000291598 -0.000402029 -1.17782e-18)
(0.000324823 -0.00139552 -5.70064e-18)
(0.00105529 0.000465925 -3.32392e-18)
(0.00133988 0.00949535 7.81445e-18)
(-0.0016011 0.0054912 1.09705e-17)
(0.00541229 -0.0623686 -1.53098e-17)
(-0.000661206 -0.000976452 2.97641e-18)
(0.00597181 0.00540497 1.39861e-17)
(-0.000504713 0.00219206 1.03954e-18)
(0.00165341 -0.00172465 -2.97055e-18)
(0.00501007 -0.0136587 -2.52495e-18)
(0.0121705 0.0135637 -7.71455e-18)
(0.000242837 -0.0392286 9.17217e-17)
(0.00136966 0.000159516 1.96926e-20)
(0.0185228 -0.0306542 1.29784e-17)
(0.00432453 -0.00136527 -9.92127e-19)
(-0.0263854 0.0040394 4.02617e-18)
(0.00373942 0.000856771 1.60243e-18)
(0.0224276 -0.00194311 2.60632e-17)
(0.00190796 -0.000589123 -4.92603e-18)
(0.000624824 -0.00715528 -1.58611e-17)
(0.0135311 0.00924046 -2.67103e-17)
(0.00105675 0.000513276 1.32431e-18)
(-0.00199065 -0.0118682 -5.03164e-18)
(0.00239777 -0.00970709 2.33665e-17)
(0.0103262 0.00333843 5.40452e-18)
(0.000186064 -0.00026791 -4.85028e-18)
(0.00572336 0.017606 -6.49514e-18)
(-0.0214258 0.0547174 1.14455e-17)
(0.00106254 -0.00703569 -3.66044e-18)
(0.0012927 -0.00711704 -3.44947e-18)
(0.000918329 -0.064641 -5.69718e-17)
(-0.00215036 0.044229 -1.28281e-17)
(-0.0231059 0.00438569 9.8777e-19)
(-0.00507735 0.0138364 2.96443e-17)
(7.63407e-05 -0.0101048 2.73527e-17)
(-0.000988528 -7.90924e-05 2.25056e-18)
(0.0173681 -0.0583506 3.36526e-17)
(-0.0174995 -0.00473716 9.62341e-17)
(-0.00071039 0.000216621 1.70179e-19)
(0.000245166 -0.000329504 -1.16328e-18)
(0.0655331 0.0151172 -6.17433e-17)
(0.000641048 -0.000728882 1.09661e-18)
(0.00109702 -9.10709e-05 -1.66236e-18)
(0.0061066 0.0323383 2.37915e-18)
(0.00936427 0.0318755 1.86553e-17)
(0.00177294 0.00106693 7.55156e-19)
(0.00302177 0.0046076 -9.1955e-18)
(0.00590307 0.0057553 -1.67973e-17)
(0.00672821 -0.00423188 -1.45861e-17)
(0.00134236 0.00490885 -2.82732e-17)
(0.000881767 -0.000215641 4.02863e-18)
(0.01109 -4.34519e-05 -4.32093e-18)
(0.00185186 -0.0650771 2.36391e-17)
(0.0006574 0.000511912 -5.43371e-19)
(0.00318767 -0.0326765 3.57178e-17)
(0.00102061 -0.000111645 -4.55023e-18)
(-0.00165568 -0.000365569 -5.86193e-21)
(0.0027895 2.73875e-05 -1.68965e-19)
(-0.00193891 -0.0649153 1.96806e-17)
(-0.000408019 -0.00024805 8.84606e-19)
(0.0421234 -0.00571704 2.51832e-18)
(0.0431172 -0.0314982 -9.4098e-17)
(0.00222609 -0.000231629 -2.69547e-18)
(0.00100535 -0.000569445 1.39045e-18)
(0.0367305 0.0258438 7.2336e-17)
(0.000631787 2.4379e-05 3.10529e-20)
(0.0015495 -0.000218599 -7.98424e-18)
(-6.52657e-05 2.31145e-05 -1.768e-19)
(0.0376642 -0.0355032 9.39086e-17)
(0.00241704 -0.0111159 7.04677e-17)
(0.0014658 -0.00284809 -3.16559e-18)
(0.00669066 -0.0131522 6.27361e-18)
(0.00766572 0.0260257 1.23119e-18)
(0.0138673 0.203442 3.91795e-17)
(0.00185856 -0.0618656 -1.40997e-17)
(0.000343359 0.00238892 1.10866e-17)
(-0.00830654 -0.0785683 8.37276e-18)
(-0.00171348 -9.43985e-05 -2.10489e-18)
(-0.035038 0.0659771 -3.2565e-17)
(-0.00112871 -0.0154614 -1.77176e-17)
(0.00279564 -0.0594628 -2.47417e-17)
(0.0811686 -0.03581 -6.28809e-17)
(-0.00161626 0.0422726 1.24979e-17)
(-0.00222572 0.00430839 -7.14352e-18)
(0.0104241 0.0111659 2.97934e-18)
(-0.00173127 0.00522767 -9.21838e-18)
(0.000551841 -0.000172676 -1.96427e-18)
(-0.00140811 0.0018984 -1.13432e-18)
(0.00544729 -0.0131931 1.95318e-18)
(0.00220895 -0.00337315 3.9776e-19)
(0.000762107 -0.000565572 -4.42181e-18)
(-0.000104784 -6.73684e-06 -1.8158e-18)
(0.000135487 0.000177271 -1.50222e-19)
(0.00231523 -1.279e-06 3.12471e-19)
(0.000926144 0.000552414 1.94965e-19)
(-0.00014667 -0.0552841 -4.89126e-18)
(0.000536526 9.28155e-05 2.2816e-18)
(0.00462729 0.000648527 1.30574e-21)
(0.00303219 -1.53643e-06 1.50211e-19)
(0.00017345 0.000115103 7.11814e-19)
(0.00124011 -0.0648785 -2.60914e-17)
(0.0146786 -0.0143991 7.952e-18)
(-0.00130794 -0.00797696 3.04764e-17)
(0.00132142 -0.00247082 6.34494e-18)
(-0.00226876 0.0238289 -1.43525e-17)
(0.0045143 4.35555e-07 -8.92016e-20)
(0.131222 0.0831988 -3.95005e-18)
(-0.0158892 -0.00235795 7.29576e-17)
(-0.000359819 -0.000245831 -7.33628e-18)
(0.0453384 -0.0257923 -3.94894e-17)
(-0.00330216 0.0120314 1.26316e-17)
(0.000341104 -0.000262349 -7.18278e-18)
(-0.00338963 0.00653467 -5.44695e-18)
(0.20736 0.0778597 1.39773e-18)
(0.00314128 -0.000316113 3.38021e-18)
(0.01159 -0.00051832 3.93175e-19)
(0.00408729 -0.00966665 3.11969e-17)
(0.00181071 -0.00152947 4.95336e-19)
(-0.00112746 -0.00533321 3.32358e-17)
(0.00460772 0.000727643 8.10679e-19)
(0.00159322 -0.0017197 -5.60144e-18)
(-0.0817883 0.0802152 3.465e-17)
(0.00507879 -0.00543524 1.24573e-17)
(0.00127662 -5.75751e-05 -2.70479e-18)
(-0.000410298 -0.000379953 5.87996e-18)
(0.00139203 -0.0024129 6.03046e-18)
(0.013355 -0.0104183 -1.13466e-17)
(-0.000405617 -0.0110521 1.19565e-17)
(0.00120288 -0.000269318 9.0423e-18)
(0.0025759 7.89082e-05 -3.43223e-19)
(-0.000232909 0.00103622 -7.75123e-19)
(-0.00198908 -0.00116187 1.53667e-16)
(-0.0240475 -0.0523187 -8.17721e-17)
(-0.0106763 -0.0135467 -2.34667e-18)
(-0.00093391 3.04293e-05 2.27989e-18)
(0.00536204 -0.00562131 -1.17842e-18)
(-0.00144532 -0.00544709 -2.7761e-17)
(0.0052656 -0.0164418 -2.80435e-18)
(0.00750339 0.022176 -2.49369e-18)
(-0.00182565 -0.000335438 -1.20557e-18)
(-0.00207679 -0.000148179 -2.47363e-18)
(-0.00015318 0.00104961 -1.70111e-19)
(0.00911442 0.011352 5.73041e-17)
(0.00129987 -0.00075948 5.79186e-18)
(-0.0282848 -0.00392001 -4.29692e-17)
(0.00264916 -0.000592192 1.03247e-17)
(0.00118678 5.4674e-05 -3.21741e-19)
(0.0529551 0.0785671 4.90621e-17)
(-0.000363873 -0.0539787 1.22348e-17)
(0.020608 -0.0339745 -4.51651e-17)
(0.00251515 1.95545e-07 9.92522e-19)
(-0.0102651 -0.0594964 -5.09489e-17)
(0.00387147 -0.00106959 -1.50141e-18)
(-0.000309567 -0.0112536 -5.88836e-17)
(-0.0169859 0.00289631 9.52269e-17)
(0.0012277 -0.0653486 8.23568e-17)
(0.00507615 -0.000578631 2.49526e-18)
(0.00693048 0.00608304 2.00955e-17)
(0.0254924 0.0289347 -3.59422e-18)
(-0.00618782 -0.0581283 1.71981e-17)
(-0.00370438 -0.0606823 1.29649e-18)
(-0.000450119 -0.00364668 1.29633e-17)
(-0.000981414 -4.60032e-05 -9.08265e-19)
(0.00164535 -0.00298285 4.38102e-18)
(-0.00176003 0.000186208 -1.88645e-19)
(0.00340171 5.49763e-05 -7.12382e-19)
(0.00131221 -0.000808734 -1.15388e-18)
(-0.000707857 -0.000326533 6.48407e-21)
(5.29054e-08 -2.5867e-06 1.92958e-19)
(-0.0197959 -0.00318951 2.04551e-17)
(0.000144034 -0.000276958 9.02475e-19)
(0.0144837 0.00919177 7.3137e-18)
(0.0059175 0.0066333 6.08165e-18)
(0.145906 0.0318831 -4.74424e-18)
(-0.00182628 -0.000392572 -1.45028e-18)
(0.00438057 -0.0010764 -2.70004e-18)
(0.000529207 -0.0675447 -1.76969e-18)
(-6.06919e-07 -0.0103885 9.23741e-17)
(-0.0561303 -0.0308326 -3.84277e-17)
(0.00729135 0.0212968 -2.01328e-17)
(-0.000146338 6.2633e-05 1.05353e-18)
(0.00520599 -0.000474734 1.05428e-18)
(0.00114577 -0.000237982 -1.12465e-18)
(0.0207565 -0.0121875 -6.029e-17)
(0.000171179 6.85744e-05 2.88037e-19)
(0.0239056 -0.0360218 1.09587e-17)
(0.00880469 -0.0111211 -1.15993e-17)
(0.0151384 -0.003782 -1.6438e-17)
(-0.0114761 -0.0118578 -3.08101e-17)
(-0.0814801 0.0958824 -2.54773e-17)
(0.00434587 -0.000224266 2.1703e-18)
(0.00102911 -0.000234087 4.19407e-18)
(0.0246582 0.0331238 5.15232e-17)
(0.0220657 -0.0109347 5.81846e-17)
(-0.00153908 -0.00095406 -4.6384e-18)
(-0.0217979 0.0023122 9.82916e-17)
(0.00501668 -0.000238247 -1.29198e-18)
(-0.00162292 -0.000483057 -1.38248e-18)
(-0.00458773 -0.0154695 -1.88424e-18)
(9.7152e-05 0.000160592 1.11527e-19)
(0.00790278 0.02741 -5.76423e-18)
(-0.000979317 8.06621e-06 -2.90765e-18)
(-0.0366801 0.210476 -8.69839e-18)
(0.00157259 -0.000608719 -8.36948e-18)
(-0.00114677 0.00163686 -1.01033e-18)
(0.0593932 0.0379463 -3.54956e-17)
(-0.000554897 -0.00870307 -5.00157e-17)
(-0.030846 0.0152446 7.08416e-19)
(0.00110967 -0.00340178 4.17394e-18)
(0.000214165 -0.000191048 3.48281e-18)
(-0.000259435 -0.000203684 1.6754e-18)
(0.0778812 0.000774765 -7.02182e-17)
(0.0126178 0.0079659 -2.0209e-17)
(-0.00147328 0.000233822 2.97673e-19)
(0.000911551 -0.00047375 -9.45054e-18)
(0.00382022 -0.00459112 -1.76182e-17)
(-0.00165527 -0.00536649 -6.91509e-18)
(-0.032925 0.0124872 9.56e-18)
(-0.0298353 0.00500799 1.82253e-17)
(-0.00110759 -0.000443234 -5.35703e-19)
(0.00199206 -7.35244e-05 -9.73238e-19)
(0.00324125 -0.0119147 4.63202e-17)
(0.000279951 -0.000181194 2.74057e-18)
(0.00132625 -0.0640631 5.38904e-18)
(0.002333 -0.0123899 1.42515e-17)
(-0.000920043 -0.000570914 1.42031e-18)
(0.00281051 -0.000296402 2.37904e-18)
(-0.00116221 0.00191358 -1.88547e-18)
(0.00496994 -0.00023175 -1.72455e-19)
(-0.00104435 0.000963571 -2.35647e-18)
(-0.0129549 -0.0583785 -6.24034e-17)
(0.000882903 -0.00730184 -2.52921e-17)
(0.0338819 0.0274268 -2.28868e-17)
(-0.00135198 -0.00416655 1.14104e-17)
(-0.00228519 0.00116749 -3.53028e-18)
(0.00480777 0.0144315 1.08353e-17)
(0.000468059 -0.0032425 -3.54636e-18)
(-0.00343526 -0.0634279 -2.73001e-18)
(0.00123586 -0.00372653 -7.97968e-18)
(0.000423497 -0.000123166 -2.85421e-18)
(0.00373768 0.00446002 1.41565e-17)
(0.0152016 -0.0130401 -1.39742e-17)
(0.000514047 -0.00115806 -6.13103e-18)
(0.000918223 -0.000976414 3.1869e-19)
(0.000377372 -0.00134408 6.05766e-18)
(-2.39748e-05 6.51484e-05 -3.74691e-19)
(0.000248582 -9.66898e-05 -8.46822e-18)
(0.00253876 0.000555843 -7.09373e-19)
(-0.00119908 -0.00047874 1.49385e-19)
(0.00257175 -0.000204126 -6.46053e-19)
(0.00239372 -0.00153652 9.88774e-18)
(-0.00133922 0.0052718 1.79183e-17)
(0.00509319 0.0333752 2.92698e-17)
(-0.00215265 1.39053e-05 -4.67724e-19)
(-0.00062269 -0.0114899 8.15371e-17)
(0.00159008 -0.00320396 3.71063e-18)
(0.00900479 -0.0119086 1.13164e-17)
(0.00198954 -0.0640817 4.40986e-17)
(0.000528923 -3.2628e-05 -2.05002e-18)
(0.0695239 0.0821743 -3.29569e-17)
(0.0157386 -0.00229396 -1.54642e-17)
(-0.000656865 0.000147414 -4.255e-18)
(0.00239465 9.29183e-05 -3.07382e-19)
(-0.00148388 -0.00100752 -3.07694e-18)
(0.116166 -0.0263087 -2.2689e-17)
(0.00887965 0.0252025 3.18197e-17)
(0.00213073 8.90209e-05 3.00215e-19)
(0.00280226 -0.000664592 -5.29596e-19)
(-0.00172726 -0.000420732 -4.30421e-18)
(-0.00228381 -0.00785685 -6.1714e-17)
(0.0103552 -0.0106985 1.30277e-18)
(0.0415852 0.00551416 -1.17115e-19)
(-0.000815768 1.74583e-05 -1.53546e-18)
(-5.18382e-05 -0.000702586 -6.98924e-19)
(0.00120875 -0.00488464 4.53115e-18)
(-0.0316123 0.00296773 6.16048e-17)
(0.00111511 -0.0599168 -3.94158e-17)
(0.000793965 -0.00272535 8.1877e-18)
(0.00088889 0.00333118 -7.28212e-18)
(0.00785574 -0.0259748 -8.26646e-17)
(0.0449648 0.0106877 1.33128e-17)
(0.0131312 0.0399236 1.31089e-17)
(0.000676689 -0.00135222 -1.35347e-18)
(0.00219739 6.21136e-06 -3.16049e-19)
(0.00686185 -0.0617935 -1.46904e-19)
(-0.00122697 -0.000215409 -5.84031e-18)
(0.0117862 -0.00982571 -4.12739e-18)
(0.148741 0.0298295 -1.40562e-18)
(-0.000401459 0.000190906 4.40159e-19)
(0.00270006 -0.0109746 -7.34103e-17)
(0.0055262 0.00516605 -1.74e-18)
(-0.0103404 -0.0590391 2.26068e-17)
(-0.000251239 -0.000182787 -2.53017e-18)
(0.00688319 -0.0529579 4.29539e-18)
(0.0261678 0.0152843 -4.99082e-17)
(-0.00344719 0.00353224 -2.05503e-18)
(0.0328539 0.0251573 -6.7378e-17)
(-0.000579147 -0.000176148 9.82921e-19)
(0.00582763 -0.0161382 -7.53644e-18)
(0.000927243 -0.000619722 -4.35576e-18)
(0.000525795 -0.000183485 2.77003e-18)
(0.00209166 -0.000211064 1.9974e-18)
(-0.00102188 -0.000140704 4.3457e-18)
(0.0548284 -0.0213212 5.67954e-18)
(6.94391e-05 -0.000184435 1.99065e-18)
(-0.0010114 0.000536239 1.84382e-18)
(0.00145723 -0.00239762 -6.34262e-18)
(-0.000924783 0.00010724 4.51659e-19)
(0.00280207 -1.06563e-05 1.90263e-19)
(0.0112507 -0.00169489 1.17213e-17)
(0.00367586 -0.000992424 -1.01479e-17)
(-0.00377671 0.0128394 -2.00253e-17)
(0.00249589 -6.09231e-05 4.34934e-19)
(0.00183135 -7.89167e-05 1.65794e-18)
(0.000854953 -0.0671081 3.80247e-17)
(-0.000709891 -0.00831553 -4.41341e-17)
(0.000849247 -0.00268239 1.05373e-17)
(0.0113149 -0.0380467 -6.36906e-17)
(-0.00109532 0.00493522 -8.27466e-18)
(0.00185321 -0.00100704 -1.65346e-17)
(0.000560958 -0.000253894 4.16017e-18)
(-0.000682648 0.0009335 2.27525e-18)
(-0.0143398 -0.0146148 1.5867e-17)
(-0.00122004 0.000453579 -1.76008e-18)
(-0.00094546 -1.84408e-05 1.04244e-18)
(-0.0343645 0.000894006 -5.03989e-17)
(0.059477 0.0104609 1.89303e-17)
(0.00670428 -0.0039127 9.26305e-18)
(-0.00192561 0.000127151 -3.59762e-18)
(0.000777692 -4.85133e-05 -3.1461e-18)
(0.00107648 0.00208347 -2.57088e-20)
(0.000161631 -0.00018445 -3.08185e-19)
(-0.00906221 -0.0321435 -3.54401e-17)
(0.00123786 -0.00158133 -2.7496e-18)
(0.081551 0.183866 -1.70302e-17)
(-0.00405281 0.00357342 7.65085e-18)
(-0.00148079 -0.0112815 -3.14659e-17)
(0.000950295 -0.000125911 1.15737e-17)
(-0.0328854 0.00181011 -1.16029e-16)
(3.7282e-05 9.21097e-06 -2.94922e-19)
(0.0139206 -0.0112054 1.96983e-17)
(-0.000971262 -0.000240112 1.25415e-18)
(-0.0206724 0.0396239 7.02037e-18)
(0.00119844 -0.0657775 5.64582e-18)
(0.00120424 -0.000641982 5.239e-18)
(0.0802143 0.0115074 1.71828e-17)
(0.00266557 -0.000575645 1.55547e-18)
(0.00019478 -9.97057e-06 4.88809e-20)
(0.000639258 0.000492985 1.58116e-18)
(0.113519 -0.00663575 -3.64629e-17)
(0.00321954 -0.0647363 2.20111e-17)
(-0.000749917 -0.00101762 7.92821e-18)
(0.00572153 0.00549973 -8.39652e-18)
(-0.00159843 0.000286442 -2.5118e-19)
(-0.00185999 -0.0179572 5.32855e-17)
(-0.00339402 1.81776e-05 3.59541e-19)
(0.0110228 0.000422525 1.08211e-18)
(0.00891181 -0.0515372 -5.98338e-18)
(0.000353085 -0.00342427 -1.89035e-17)
(-0.00240818 -9.67279e-06 -2.25855e-19)
(0.00308394 -0.00673248 -4.4707e-17)
(0.000108491 -4.84831e-05 2.13487e-19)
(0.000760619 0.00220656 -1.70239e-18)
(-0.000104664 0.0011368 8.73767e-19)
(0.00348093 0.0330201 1.46461e-17)
(-0.00160245 7.07497e-05 -1.30983e-18)
(0.017072 -0.00848597 2.84809e-17)
(0.000343497 -9.9777e-05 -1.06435e-18)
(0.00194813 -0.000615044 4.61804e-18)
(-0.00763537 0.0151749 -2.01381e-17)
(0.00394006 -0.00860024 -2.63376e-18)
(0.0187198 0.0432273 8.83496e-17)
(0.00483215 0.000580619 2.55286e-19)
(-0.0303481 0.00232327 7.0855e-17)
(0.00100269 -0.000242863 -4.29619e-18)
(0.0108715 -0.0115246 -7.52255e-18)
(0.00141699 -0.000655987 3.08346e-18)
(-0.00110417 0.00202256 -1.10506e-18)
(-0.000250643 -0.00023228 4.42717e-18)
(-0.000407676 -0.000104036 9.59839e-19)
(0.000709247 -0.000111207 4.79744e-18)
(0.0105124 -0.0121684 9.35802e-18)
(-0.0218616 0.00667617 -1.32701e-17)
(0.073304 0.00823109 -2.04776e-17)
(0.0199476 0.0112258 -1.63259e-18)
(0.00152985 -0.0054152 -1.47155e-17)
(0.00467407 -0.00433293 2.09059e-18)
(-0.0019123 -0.0165865 4.72901e-18)
(0.00342062 0.00391675 2.45274e-18)
(-0.0126404 -0.0361739 2.29233e-18)
(-0.017403 -0.0358322 5.53659e-17)
(0.0135453 -0.0120845 2.52157e-17)
(7.50553e-05 0.0022354 3.36192e-17)
(0.108756 0.0357574 -1.29689e-17)
(0.0123649 -0.0106866 -1.15802e-17)
(0.000981701 0.00217292 3.45153e-18)
(0.000205966 -0.0113343 3.06837e-17)
(-0.00860734 0.0147552 -1.5067e-17)
(-0.00140785 0.00189841 1.44861e-18)
(0.0140836 -0.0129283 -1.45686e-17)
(0.000446983 -4.18946e-05 2.15192e-19)
(0.00620551 -0.0136192 1.30794e-18)
(0.00669705 -0.00340831 7.61909e-18)
(0.0199326 0.0322871 -3.64942e-17)
(-0.00088359 -0.00396367 4.28616e-18)
(-0.00197758 -0.0507268 -2.09933e-17)
(-0.0374815 -0.011166 6.80358e-17)
(-0.0071385 0.0140201 1.02638e-17)
(0.0185816 0.0321137 2.3233e-17)
(-0.000143691 -0.000357409 2.69325e-18)
(0.00919904 -0.0157117 -2.26545e-17)
(-0.000872446 -0.00247701 2.98053e-18)
(-0.00128903 -0.000208761 2.76115e-18)
(0.000593239 -0.000873391 -5.88196e-19)
(-0.00253466 -0.00107705 -6.83271e-18)
(0.0115921 0.00762773 1.21484e-17)
(0.00183508 -0.0637594 -8.88828e-19)
(0.00669382 -0.0124503 -1.73081e-18)
(-0.0339291 0.00418052 -1.62954e-18)
(0.00368822 0.00349296 8.34932e-19)
(0.00263165 -0.00195647 -7.79341e-19)
(-0.0121982 -0.0579366 -1.01829e-17)
(-0.00032381 -0.0105782 5.84131e-17)
(0.00276066 0.00315871 -1.01112e-17)
(0.0079962 0.0192126 5.37451e-18)
(0.00188752 -0.00174742 -2.13783e-18)
(-0.000711068 -0.0118852 9.58485e-18)
(0.0669516 0.0490133 2.50414e-17)
(-0.00158085 -0.000546174 -1.54076e-18)
(-0.00167175 -0.00804439 -5.62103e-17)
(0.00344043 -0.0115619 -4.44909e-17)
(-0.0344771 -0.0224722 -6.60207e-17)
(0.000141718 1.75191e-05 2.64853e-18)
(0.00177448 -0.00310225 1.19235e-17)
(0.0400272 -0.00190478 8.26621e-17)
(0.000780036 0.00890708 -8.66093e-18)
(0.104413 0.0116377 -3.08902e-17)
(-0.0170014 0.0403663 -5.91201e-19)
(0.147565 0.0345372 1.3019e-17)
(0.00342091 -0.00235806 -2.56865e-18)
(0.00364136 0.00398678 -7.85172e-18)
(0.00184652 0.00107194 1.26035e-18)
(0.00112847 -0.000669574 -4.32525e-18)
(-0.00621416 0.062257 -2.85674e-19)
(0.000185787 -4.1996e-05 1.86246e-18)
(-0.0137515 0.0633597 -8.53287e-18)
(0.0205686 0.0147701 1.97655e-17)
(0.0134308 -0.00505714 -2.53664e-17)
(0.000121061 -1.79744e-05 -5.01664e-20)
(-0.000928873 -0.000102419 -6.23421e-19)
(-0.0031882 0.000683239 6.25833e-18)
(-0.000288773 -0.000591221 -3.89943e-18)
(0.00304845 1.04655e-05 -9.69046e-20)
(7.73816e-05 -0.000744934 -5.62524e-18)
(0.0193743 0.0106785 1.42064e-17)
(0.12624 -0.021986 8.30654e-18)
(-0.0542031 -0.0316715 -9.7642e-18)
(-0.000473369 -2.5225e-05 -1.77372e-19)
(0.0193244 -0.0111191 2.6499e-17)
(-0.00220458 0.000108903 2.49127e-18)
(-0.016741 -0.0429076 -2.88268e-17)
(-0.000968794 0.0191722 1.35714e-17)
(0.00172625 -0.00661156 -8.30479e-18)
(-0.00150509 -0.00532411 1.20135e-17)
(0.0253961 0.0157312 -9.8772e-17)
(0.00212335 3.71198e-05 2.27829e-19)
(0.00173451 -0.000383519 -1.89189e-19)
(0.0033526 -0.00638395 7.58618e-18)
(-0.000642393 -0.00025399 4.35693e-18)
(0.000572481 0.00199542 -3.72343e-18)
(0.0109926 0.0155904 -9.21836e-18)
(-0.0258977 -0.049874 6.21886e-17)
(0.00123203 0.000439181 2.3713e-18)
(-0.00111941 0.0545335 -4.70642e-17)
(0.0123734 -0.0595269 -6.13136e-18)
(0.00214512 0.00508399 -4.75452e-18)
(-0.0582251 0.0630439 -4.01986e-17)
(0.0191724 -0.0584245 3.57843e-17)
(0.00184615 0.000632211 9.04081e-19)
(0.0133964 0.0103044 -2.72499e-17)
(-0.00455408 0.00423853 -8.18741e-18)
(0.00186365 0.000870612 -6.15863e-19)
(0.00068488 0.000480953 4.38014e-19)
(0.000994891 -0.0089214 -2.73794e-17)
(0.00877122 -0.0593335 -5.09819e-18)
(-0.0303316 0.00236 1.18467e-17)
(0.000630561 -0.00122553 -1.65088e-18)
(-0.000445913 -0.000357534 -6.90202e-18)
(0.00314057 0.000554199 -1.56083e-18)
(-0.00419814 -0.00205106 -3.74311e-18)
(0.0036547 -0.000839631 -4.25946e-19)
(0.00408368 -0.0014212 -3.14983e-18)
(-0.00254947 -0.0117186 -1.26214e-17)
(-0.00238265 0.0193675 1.6799e-17)
(0.00443813 -0.000222811 1.64988e-18)
(0.0394819 0.0130547 -6.29149e-17)
(0.0018951 0.00938543 7.92096e-18)
(0.00175941 -0.00514459 1.88805e-17)
(0.00122318 0.00190648 5.23494e-18)
(-0.0303823 -0.0011333 -6.0716e-17)
(-0.00230405 0.00398213 1.71975e-18)
(-0.00232192 6.22725e-05 -9.77703e-19)
(0.0140475 -0.00478051 6.04822e-18)
(-0.000753203 -0.0117166 2.50813e-17)
(-0.00114498 0.000227842 -7.03721e-19)
(-0.00150417 -0.00049722 -1.4046e-18)
(0.00100828 -0.000210328 3.0256e-18)
(-0.00500033 0.00278773 1.30323e-18)
(0.00243325 3.41507e-05 1.72619e-19)
(-0.00603771 0.0145289 1.42886e-18)
(0.026553 0.0242428 3.61234e-17)
(0.00275975 -0.000486836 5.23572e-18)
(0.00279936 0.0340926 -3.73624e-17)
(0.00328065 0.00295132 4.93752e-18)
(0.000585718 0.00176286 -1.92891e-18)
(0.0326491 0.0421176 -2.08486e-17)
(-0.00709375 -0.0432501 -6.6028e-17)
(0.0037141 0.0456781 -8.6446e-18)
(0.00210156 -0.000430035 2.07466e-18)
(-0.000314129 0.000180147 -1.4146e-18)
(0.244565 0.0356702 -3.43877e-17)
(0.00121462 -0.00358886 -3.77922e-17)
(0.0801412 0.0610582 -2.4091e-17)
(0.00037663 9.51006e-05 -1.36065e-18)
(0.00118804 -0.000626476 -4.86507e-19)
(-0.0210814 -0.00427163 7.92124e-17)
(0.0665473 0.19835 2.62499e-18)
(0.00624433 0.00560744 1.67499e-18)
(0.00680243 0.029786 1.22597e-17)
(-0.000593129 -0.00779541 9.23233e-17)
(0.000887682 -0.000268249 -4.30847e-18)
(-0.00015032 -1.47077e-05 4.9092e-18)
(0.00172603 0.000627986 1.55629e-19)
(-0.0156241 -0.0277558 -4.54346e-17)
(-0.00118706 -1.65554e-05 -8.00032e-19)
(-1.76512e-07 -3.17206e-06 4.77757e-19)
(-0.00753283 -0.0578202 -6.13543e-17)
(-0.000797082 -0.00389506 3.04203e-17)
(0.0295345 0.00779538 8.51385e-18)
(-0.00116368 -0.00510628 5.52365e-17)
(-0.000344197 0.000112403 -2.22384e-19)
(-0.00371757 -0.0464257 6.53149e-17)
(-0.00295712 -7.62472e-05 3.36745e-18)
(0.000636723 -0.00056765 -3.10734e-18)
(0.00168829 0.00054163 1.62528e-20)
(0.00453297 -0.00366893 1.36113e-17)
(-0.00156501 -0.0666437 -1.02759e-17)
(-0.00160771 -0.000370629 -1.19476e-18)
(-0.000446522 -0.000246424 -4.97139e-19)
(-0.000331835 -0.000287206 -2.04373e-18)
(0.000228565 -0.000239044 4.26262e-19)
(-0.00221157 0.000123764 3.0411e-19)
(0.00245659 0.00107755 5.53847e-19)
(-0.0141927 0.00254141 -4.98506e-17)
(0.00465827 -0.00395071 -4.17352e-18)
(0.00213055 -0.00155781 -2.37936e-18)
(-0.000801206 -0.000353755 -2.3141e-18)
(0.00401284 -0.00412358 1.15644e-17)
(0.0141294 0.0113907 1.54539e-17)
(-0.00452155 0.00284915 -6.23831e-18)
(-0.00100932 -0.00416319 -5.57597e-18)
(0.00046732 -5.85477e-06 5.37964e-19)
(0.00269525 0.000541361 -2.67875e-19)
(0.00532943 0.000162727 1.08661e-19)
(0.00224272 -0.0637672 -2.40511e-17)
(-0.108584 0.0296581 1.35411e-17)
(-0.00230224 0.000841404 -7.57499e-19)
(-0.0330885 0.00244462 -1.61291e-18)
(0.000155155 -0.000369413 3.51469e-18)
(0.00310396 -0.00232553 -3.29089e-18)
(0.030497 -0.0187585 -1.57837e-17)
(2.63617e-05 -0.0104668 7.82748e-17)
(0.00226183 0.000932977 -2.1674e-19)
(-0.00155618 -0.000340277 1.82283e-18)
(-0.00138297 -0.0106513 6.62081e-18)
(0.00503215 0.0182334 -6.37657e-18)
(-0.00232519 6.31031e-05 1.49489e-18)
(0.000952316 -0.000189148 3.84347e-18)
(0.0259671 -0.0167558 -1.13414e-17)
(0.000317274 -1.06472e-05 2.64367e-18)
(0.0159078 0.00434108 4.73221e-17)
(0.00266456 -0.000281806 -1.55124e-18)
(8.47923e-05 -0.0107205 -1.52964e-17)
(0.000996974 -0.000185269 8.60182e-18)