/*--------------------------------*- C++ -*----------------------------------*\
| =========                 |                                                 |
| \\      /  F ield         | OpenFOAM: The Open Source CFD Toolbox           |
|  \\    /   O peration     | Version:  v2012                                 |
|   \\  /    A nd           | Website:  www.openfoam.com                      |
|    \\/     M anipulation  |                                                 |
\*---------------------------------------------------------------------------*/
FoamFile
{
    version     2.0;
    format      ascii;
    class       volScalarField;
    location    "900";
    object      omega;
}
// * * * * * * * * * * * * * * * * * * * * * * * * * * * * * * * * * * * * * //

dimensions      [0 0 -1 0 0 0 0];


internalField   nonuniform List<scalar> 
9793
(
0.0223728
15.6809
0.0219368
2.62393
0.0222597
0.203879
0.0831343
5.22676
0.0221403
14.7506
0.0221966
0.0221873
0.0219176
1.75117
0.0217843
0.0265129
0.0532686
0.0219321
2.18073
0.0215571
0.0216249
0.0222917
2.64985
5.34637
1.83477
0.0265699
0.0220991
0.022262
0.0215674
0.0800073
7.73727
0.380651
0.0220115
0.0219457
0.0218679
0.0284826
0.0245721
0.0249278
1.59567
0.0307602
0.068787
8.84725
4.16671
0.0222717
0.0219609
0.0220421
5.88807
0.0222844
0.0217161
0.0219393
0.0281993
0.021851
0.0374255
0.0222686
0.0330969
2.19269
0.0219264
0.0905509
0.0217227
0.0222914
0.0270158
0.0983132
0.0219519
0.0350797
0.0219629
0.0220668
25.7594
0.0242123
0.0250501
3.20445
0.0219723
0.102298
4.77877
4.15175
4.24938
0.0222624
0.0457758
10.6292
0.0219821
0.0222705
0.0496934
2.12106
0.0514139
0.0239403
0.0250734
0.243005
0.0222612
0.0681521
1.60848
0.0948837
1.84273
1.43566
1.4755
0.0411204
3.91536
0.0219047
4.79203
0.0502102
0.0247237
0.0222685
1.4505
0.0356095
2.37454
0.0219661
3.50584
10.3375
4.09594
0.021878
0.0219861
0.0222835
0.0222335
2.17639
3.28828
7.42501
0.02195
0.0221125
0.0243903
0.0220502
1.86756
0.0220278
3.03791
0.0729329
6.72767
0.0421745
0.0246035
0.0220335
0.0607095
6.08092
0.186836
0.194619
0.0238285
0.0218011
0.0222697
0.0234158
0.0273651
0.161305
0.607645
0.024433
0.0222737
0.0609271
2.24491
0.0276262
0.0219301
0.0556294
5.68537
0.610707
0.0220342
4.60503
0.0217973
0.0220282
0.0220697
14.7544
0.0242639
0.0220921
0.0219186
1.51574
0.0567855
0.0219469
0.569071
0.0219134
0.0641067
0.023939
0.0216319
0.357208
0.0220844
9.61207
2.30827
0.0222811
0.0218792
0.0222173
0.0219433
6.19633
26.9035
1.95707
0.021911
0.18612
0.136768
0.740039
0.021967
0.0241517
3.88856
7.15127
0.0800102
0.0220349
0.0220729
0.0218726
7.24913
4.63202
21.7434
2.50128
0.0219923
22.1708
0.411979
0.0254122
0.0217601
0.0232908
1.98582
0.0215941
0.02193
0.022204
0.0219907
0.0216252
0.0292947
0.0251584
1.76143
0.0219249
0.0280857
0.022279
0.022328
0.472686
0.0585516
2.40058
0.0216323
2.77302
0.0239578
0.0430922
0.0217971
0.155648
0.0221213
0.0503841
0.0537119
0.0216285
1.41768
2.06905
0.0393943
0.02189
0.0511314
2.08856
0.049528
0.0503821
1.6045
0.138046
0.0407954
0.0357957
0.366035
0.0215911
4.54894
6.32948
0.0216
0.0222223
8.3807
0.0219012
0.0222313
0.109574
0.121673
0.0220573
0.0241824
0.0291516
0.0381743
0.0242531
0.0219732
0.0440415
2.93857
0.0216258
1.97632
0.022262
0.02217
0.021659
2.12262
0.0219773
2.96598
2.78942
0.0221032
0.022131
3.46988
0.0218347
0.0222397
0.0218001
2.52573
0.270765
0.0249374
0.440653
0.0847374
2.29898
3.93183
0.0223035
21.6773
0.0222643
2.09432
7.8021
1.64501
3.13682
0.134462
0.0238578
0.0474993
0.0247679
0.0217942
0.0223841
0.458484
0.0267373
0.0221395
0.0222838
0.0216297
0.0216552
0.021629
2.50841
0.0218684
0.0217751
0.0218417
0.0219195
5.4491
0.583637
0.0638963
0.0228652
0.0561599
0.0219478
3.16089
10.771
0.0219713
3.23503
0.0332592
0.0219552
24.8836
4.0063
0.0220194
0.0462402
13.2377
0.0221281
0.0339135
0.0217755
0.0222151
2.24235
0.0409891
0.021955
0.0220214
0.0227382
0.173405
3.34441
0.0219408
0.021872
0.0217472
6.89933
4.53754
7.34541
0.0215862
0.0433581
0.0347397
2.15803
0.0683658
0.0215862
0.0216441
0.0217476
0.0459796
0.0220529
7.09207
0.0220881
0.0217769
2.62096
2.41382
2.4201
0.0217269
1.44397
0.0246776
4.10956
6.38435
1.67855
0.0236029
0.0319983
0.738307
1.71023
2.09873
0.0264797
0.0222634
0.0253147
0.0216833
0.0218527
0.022034
0.0220813
0.022292
8.30016
0.0222065
0.060913
0.0303551
6.09608
0.021581
0.0240275
5.29467
0.497457
1.86008
0.066474
0.0217806
0.0236841
0.0219405
0.466535
0.0215652
2.34258
0.159277
0.0834226
5.92133
2.28438
0.0221373
0.02189
0.982559
0.397319
0.021924
5.55241
0.0221313
0.0221756
6.75286
0.0216305
0.0921643
0.0216013
2.35914
0.0220934
0.0220964
2.67661
0.0965058
0.0530511
0.0253986
0.0220746
0.0218322
6.11072
0.0499474
0.0215692
0.0221946
0.0342557
0.0347165
0.0525861
6.9046
0.0221956
0.0219425
0.350688
0.0220812
2.55049
0.71836
0.0220646
0.0220164
0.0223512
0.0221163
0.021732
1.47141
0.050807
5.93285
0.0289181
0.0233907
0.0423865
0.0246432
1.73338
0.0262656
0.0222678
0.0242255
0.510427
0.0219389
0.0219168
0.0219714
0.0215681
0.0219867
0.0217936
0.0220439
0.0221576
0.0228565
0.0247274
0.108782
0.0219318
1.46562
0.0256362
0.212152
5.02881
0.0218015
2.79492
0.0812014
0.0217691
0.0215684
0.0219346
3.56627
0.0863367
0.0215649
0.0221205
0.0221972
0.0674246
0.153252
10.489
0.0219763
0.0219204
0.0316048
6.51582
1.60196
0.0236776
0.0233119
2.05413
9.57426
0.249593
0.0221717
0.0217887
1.66621
0.0219096
0.134673
7.11254
0.0215576
0.239568
0.0269917
1.4289
0.0218332
1.93252
0.291671
0.0260152
2.61857
0.0219076
1.94317
0.0220945
0.0218863
0.022223
0.021947
3.58836
0.0218994
0.0217051
0.0228174
0.0215956
0.0217894
0.0461465
0.0227784
0.0344518
0.0220338
0.0220382
4.10903
0.0747622
0.0236293
2.02053
0.0243192
0.0221753
0.0219817
0.0217309
9.27332
0.0216954
0.0220691
8.12481
8.62227
0.0388954
0.0219252
0.0222842
0.0221318
0.022241
1.89314
0.0221741
2.87422
0.024224
1.86348
0.022262
18.9857
0.0222077
0.226809
0.0219161
0.0880571
4.12469
0.0221032
8.87401
0.0218993
0.0222182
0.0216148
4.83656
1.80851
0.0219432
0.0277829
0.0216908
2.00549
0.0218205
0.0446919
1.84388
0.0252301
0.0220264
0.0456654
0.0222451
0.0221803
0.0217645
0.101635
0.0219558
2.19041
0.0220518
0.0220699
0.0390494
0.0776649
1.47885
0.0217632
18.0507
0.0218845
0.201861
0.0219151
0.0222342
0.021905
0.0220496
0.0222682
0.217964
0.0409446
9.03738
0.110396
0.0352069
0.0342039
5.32658
0.0237067
1.84039
3.62886
0.26456
11.5732
5.2503
0.178583
0.0221867
3.41646
0.0387036
0.0221368
0.36015
0.0222509
0.451942
0.0358462
0.218595
0.0276077
2.09155
4.67162
0.0368067
0.197892
0.022216
0.661657
0.0228629
0.0219195
0.0220388
0.0236136
0.0463006
1.55328
0.276168
4.71564
0.0234198
0.0234041
1.42026
0.355876
0.0230665
0.0612907
0.022351
4.92728
2.78317
0.0220586
0.0641921
0.291408
4.86677
0.0219578
0.025796
7.88734
0.0286212
7.83511
0.0915034
6.0849
0.0256709
0.0238147
0.0219155
0.0219191
0.251818
0.0222842
0.301284
0.131322
0.0813579
0.0222596
0.0222238
0.0236585
0.0221178
0.0218328
0.021903
0.100872
3.69573
1.86896
0.0222797
0.338214
0.0219504
4.10447
0.0463045
0.0468255
0.0341773
0.271538
0.0217475
0.0220604
0.0431094
0.0219086
0.022081
0.0600545
1.48166
0.0216244
0.232573
1.70253
0.0244572
2.12451
1.77827
0.0218102
0.0545384
0.0271751
0.021985
0.0216118
0.102713
1.69645
4.69337
0.0219529
0.0220158
0.0216595
0.0248097
0.0228087
0.0237913
0.567802
0.0459789
0.0221514
6.45278
0.0294
0.0335515
0.0220367
18.9608
0.0237005
0.021918
0.0825127
2.1078
0.0215736
0.0220499
0.0219472
0.0254913
0.0217432
0.0375396
0.616708
0.0221574
0.10109
0.022868
0.0219857
2.09531
2.8485
0.353254
0.0220749
0.0215875
5.2477
0.0258518
2.31177
0.0215519
0.0219002
6.60418
2.66723
0.0297436
0.0994008
0.0628838
0.0218862
0.0222717
0.0219398
3.28139
0.0220571
0.0222928
1.58797
0.0274482
0.292907
0.0328061
0.0219358
2.5935
0.022268
0.0219105
0.021929
0.0305789
3.44141
0.0221619
0.0219705
0.0219063
0.0218945
0.0219421
0.0219282
13.3848
0.0315289
0.0227842
0.0221098
0.0316394
0.0609435
0.0264584
0.0284849
0.0222839
0.021653
0.0232987
2.15831
2.45348
0.0232407
4.57731
0.0222153
0.025215
1.18738
2.20026
0.0217753
0.0221804
0.345044
0.0510092
0.021907
0.0222486
2.26208
0.0222681
0.0686898
0.0220116
0.619048
0.0222475
0.022242
0.0221268
0.0308548
0.0220705
0.024479
0.0261034
0.163686
0.0218631
0.0219975
0.0222498
0.021881
0.0221483
0.0219608
0.0306725
0.0221112
0.0516567
1.96514
0.0427877
0.0630415
0.0222018
0.021764
6.64155
4.50388
0.021602
2.05092
7.39836
0.0215937
0.0219662
0.0218774
0.095793
0.0536208
2.43573
0.0218566
0.0250646
0.0218594
0.0222595
0.0222293
0.0856962
0.022123
0.248853
0.0220931
0.0581615
0.0218937
0.0230893
0.0219102
0.0384851
0.0601466
6.90645
2.86471
2.02739
0.0476244
0.0218991
2.96271
3.77013
0.0612687
0.0220351
0.0220847
1.98505
0.0218698
3.14988
0.0216064
0.0293682
0.0221982
0.0222698
0.0217817
8.54651
3.22697
2.90206
0.0723499
5.27047
0.0219517
3.0461
10.3509
0.0222705
0.0220548
0.0217268
3.37045
0.0215527
5.10628
0.0323868
0.141843
0.0222475
0.993417
7.90285
1.70903
0.0294546
0.0318348
0.0220407
18.6665
0.0215322
0.606988
0.219351
0.0683954
9.85475
3.38603
0.0238765
0.0233726
0.021949
0.096776
5.31956
5.24562
0.0217419
3.94914
0.0260014
0.120064
0.122642
1.50851
1.55298
0.0216373
0.0259937
0.0304004
0.0242007
0.023941
2.63082
0.0221969
11.4099
0.0217608
0.0216167
0.0785117
0.109572
2.97362
0.0226052
22.8552
14.2986
0.726432
0.0268533
0.022233
0.0226088
0.022227
0.0219112
0.787868
1.86403
0.0221649
0.0219152
0.0317213
1.71178
0.025836
0.0219223
0.435893
0.0219395
0.0222749
0.0215418
0.0596689
0.0220293
0.0249607
4.35251
0.0608147
0.0222595
4.26093
0.129304
0.021935
0.0230001
0.0337032
0.0222624
0.0219653
0.0217449
12.7845
1.91035
0.0221856
0.0352642
0.036167
0.650302
0.021939
3.27803
0.0218616
0.0217498
0.693121
0.253137
0.0648397
0.022014
0.0218949
5.74932
1.51501
0.288217
2.85873
0.0221027
0.0238023
0.0220151
8.25948
0.0241903
2.29848
0.0226858
0.0219234
0.0236206
0.0216699
0.0218756
0.0641354
0.0217756
3.23062
0.0218006
0.0221674
0.0215605
0.024919
1.82034
2.79146
0.051972
5.48327
0.0219809
0.0359629
0.0233057
7.98798
0.0218264
0.0216255
2.68672
0.0346206
0.0327598
0.0221115
0.222606
8.58355
2.35798
0.022111
0.0343962
0.915411
0.0313626
1.01157
0.122742
0.0811204
0.0217617
0.0225527
0.0609146
0.0771356
0.021988
0.0998528
0.0217348
0.0221829
0.0222362
0.0217596
0.0219038
0.0219891
0.745217
0.0256869
0.0229288
0.0458901
0.0217448
0.0219263
0.0380541
2.82304
0.0843425
0.0610047
2.30605
0.0222339
9.38295
0.0292628
5.32524
0.0614178
0.0222018
0.0220854
0.023458
8.73852
1.73978
0.0506349
0.156207
0.0216499
0.0218914
0.022248
0.022201
7.7013
0.0255896
0.021961
0.156661
0.288236
5.92479
0.0227273
2.51271
0.055707
0.0401547
0.0320374
0.42664
0.247164
0.022223
1.58396
0.281511
0.0386998
2.22197
0.0449539
0.0222079
0.0222638
0.0219109
0.0231107
0.027138
18.6618
0.0502394
0.0218705
0.316137
0.0220039
4.31049
3.35377
0.021957
27.9192
0.0217966
0.0217479
0.0220207
1.56887
14.7478
0.0483859
0.0312124
0.0217107
0.5633
0.0222313
0.0308555
0.0220906
0.0221256
0.021908
5.23066
0.0227672
0.0420592
0.0289602
0.0222115
0.351426
0.133364
0.0340781
0.025289
0.0237615
1.76355
2.59948
0.0218851
0.0217566
0.0218825
0.0225425
5.50042
12.837
0.207252
0.0255764
0.0217796
9.35701
5.11669
0.0221819
22.4887
0.0217064
0.0844221
11.7853
0.0217373
6.44266
7.92944
0.12548
6.27377
5.64411
0.0218386
0.0226432
2.47556
1.51726
0.0225208
4.8811
0.0249053
0.0219043
0.0222738
0.023154
0.0398747
0.025186
0.313226
6.46707
0.239328
0.0342017
0.0220789
0.0602144
2.18217
0.0217527
3.64116
0.0475067
0.0222198
0.0245669
0.0222415
0.0221709
0.0314713
2.30162
0.0224743
0.0217881
5.17741
1.53423
0.0699218
0.0222613
0.0558613
0.0219273
0.0219312
4.12719
8.55741
0.021921
0.0214857
2.80024
4.40321
0.0481628
0.0222316
9.95705
0.0226944
0.0219278
0.023944
0.0219321
0.0216437
0.0216183
9.69042
0.200924
0.0258599
1.6132
0.0449494
1.48713
8.50414
2.02241
0.158168
0.0219295
0.0222387
0.0223068
0.0219924
0.0745032
0.0218813
0.109093
0.0291027
2.89586
0.0220465
1.52143
0.0361708
5.15318
0.0219246
1.7462
0.0299091
0.176189
0.254314
0.0309866
0.0216152
9.0246
0.0560338
1.68081
0.0215992
5.3102
0.0220265
4.6328
0.499135
0.0434387
0.021921
0.0220886
1.88083
7.05552
0.0317588
0.0215595
1.35502
0.0851994
0.0447272
2.72257
0.0793255
0.0219088
3.74634
0.021915
0.0330946
0.0216119
8.82342
0.0216192
0.0235991
0.327232
3.57065
0.0222218
0.0671196
0.0243427
0.0805182
0.0218795
0.34194
0.0234078
0.0637419
0.021925
0.0219852
2.00831
0.0285321
4.75545
4.45527
5.15458
0.022705
0.0216366
0.021754
0.0256077
0.0367004
0.0312265
5.56506
0.0235043
0.636662
0.0418641
0.022281
0.0219291
0.068937
0.422819
8.91303
0.0219059
1.62137
0.0218624
5.28067
1.46079
0.0465777
0.0219951
0.0217264
0.0428873
1.68972
0.0242885
0.0222687
0.0238112
0.0446143
0.0228889
1.53776
2.0866
3.90383
0.0221561
0.0262642
11.1178
0.0221866
0.0617705
0.0218011
0.812896
0.0364164
0.021949
0.0432079
0.185106
0.0219302
2.1799
0.0219142
0.138891
0.250483
0.47913
0.303665
0.0221662
0.0221814
19.3348
0.0221322
0.0398932
0.0826191
0.0235136
0.0215226
10.8926
0.0248672
0.404444
0.0234106
0.0662045
0.0225091
0.405878
0.0252243
0.0246256
2.3841
1.21743
0.0220889
0.022273
0.165176
2.14841
1.94144
0.811402
0.0293034
0.02192
0.0217962
1.84942
0.0221382
5.56184
0.0988909
2.47563
0.022107
0.0217129
0.0217915
0.0429287
0.0457556
3.72532
1.56374
0.879262
0.228918
0.0216013
2.53187
0.0230069
0.0631055
0.0228699
0.0401605
0.0607937
0.0219239
0.0215697
0.0641908
0.0216313
0.0392014
0.0707676
3.33951
4.30203
0.0376739
1.79067
0.0217367
0.0216302
0.0220738
0.199701
0.0610093
0.0463094
0.112536
4.0629
0.0394477
0.155021
0.0218062
0.0220778
15.3532
0.0219095
0.29336
0.0214625
0.0218544
2.0867
0.332857
0.0218444
0.0800937
0.508176
3.50307
2.5516
0.0250417
0.0668018
0.0491033
4.70812
0.0220423
4.95225
5.67921
0.0236997
0.0259721
0.0216058
0.485953
0.0217303
0.0219825
1.58762
0.0222114
0.021559
0.202515
0.0589368
1.52616
1.51312
3.34232
1.853
0.0216096
0.0219057
0.0218501
0.0222051
8.44366
0.0220623
1.74985
0.0229858
4.60142
0.0244618
0.0221031
0.0216781
0.0222154
0.030306
0.0220275
0.0215123
0.342707
0.0218159
0.0513587
0.0224432
7.04364
0.0245052
0.0220784
0.0219298
0.0531017
0.0219064
0.0217597
0.0220884
0.0222146
0.0245614
0.0218424
0.0233717
0.0315292
3.76673
5.27568
4.60802
2.50959
0.021763
0.0220047
0.0219207
0.0214249
0.021931
0.0217294
0.186441
0.0218541
0.0222517
0.0220683
0.0220424
0.0219352
6.90982
0.0241893
0.0219717
19.7884
0.0432826
0.0217089
7.96136
7.59248
0.0220194
0.465847
0.725358
0.0220282
0.0459008
0.0239375
0.0215541
0.0274118
0.0220202
0.0399789
0.0220122
0.0222473
0.0217401
28.002
0.0284545
0.0456101
0.0220321
0.0222653
4.5977
0.0257582
0.0220356
0.0238314
0.0241895
0.0222519
0.223775
11.6596
1.27481
1.55919
0.230262
0.037424
0.0222597
12.1232
0.162179
0.022736
0.05981
0.0222932
0.0218954
0.0222464
2.87557
0.0462441
0.0219984
0.0220414
0.184991
0.0217248
0.438275
0.0219408
1.8578
0.232044
3.81543
0.0220792
0.0231938
0.0317916
0.0355488
0.022249
0.0388357
0.085731
5.26349
0.0219755
0.501442
9.55579
0.021562
1.88488
0.0434369
0.333566
0.106177
0.0219176
0.0277803
0.0404931
0.0216817
0.0250346
0.0215399
4.29534
1.87403
0.0325724
0.0218266
0.151077
0.0749889
2.82643
0.296578
0.0233379
0.028098
0.0219467
0.0219144
0.0405632
0.0515662
20.054
0.0218113
0.449302
0.0225517
9.69594
0.179473
2.40934
0.0215973
0.0229332
1.99437
1.80342
0.0430391
2.16879
0.0228787
0.264296
0.0219132
0.0218468
2.64531
0.515226
0.0248513
0.0220936
0.0747477
2.16526
0.196097
0.0663648
0.0217678
0.0220139
0.0217138
2.39501
4.91889
0.0217489
0.044855
1.84085
0.0748003
0.282397
1.64399
5.64001
2.20717
0.0217648
0.022776
1.60663
0.0218905
0.0492758
1.55654
9.65096
0.023375
0.0302198
4.95672
0.626949
2.01581
5.06165
1.7204
1.48631
0.0221107
0.0216136
0.0219895
0.0225599
25.1948
0.05482
0.36922
0.357763
0.0563468
0.0219406
0.437945
0.0216994
0.0304858
0.0219215
0.0406702
7.05331
2.24018
0.022071
0.0215983
0.0385171
4.71435
0.188422
7.22325
0.0446036
0.0220424
0.0833762
0.02146
0.095739
0.0320146
0.021908
4.70922
0.171844
0.56772
0.0577653
0.0222273
0.0215737
6.46099
0.0252164
0.0216171
0.022145
0.0222559
0.0216803
5.57769
9.66521
1.96128
1.41029
6.20185
0.023994
0.0219416
2.92496
0.0243237
0.0858698
6.55046
0.021866
5.32458
2.85146
0.0598557
0.0336802
0.794791
0.0230925
1.78951
0.0375758
1.9992
0.0218167
0.0228511
0.0408642
3.2505
0.115065
0.068007
4.91744
2.146
0.0717399
0.16103
3.28813
0.0241944
0.364891
18.4538
0.0358102
0.0628182
3.143
0.0321079
0.0368568
0.0221033
0.0367973
0.039059
0.0562081
0.0220881
8.61284
0.162441
1.81643
5.18277
2.15052
0.0396334
1.59861
8.6929
0.0218458
1.14655
3.06381
8.4343
0.0278111
0.0242141
1.63893
9.43878
0.0216072
0.242275
0.0217504
0.0219089
4.17423
0.0253854
2.28922
1.56764
1.88163
8.49951
0.0216175
0.0352015
0.0219837
0.0218429
0.110813
0.0570608
0.0264905
2.79669
1.84109
0.0222731
0.0261342
1.35148
0.0234209
0.397772
0.0478687
1.48589
1.4865
0.398121
9.20327
7.11324
1.80699
1.50418
1.72905
0.0312463
0.0251656
0.117129
0.120143
1.81434
8.34441
0.0221318
0.0226071
5.50994
2.32263
0.0247028
4.8762
0.0219215
0.819374
4.66673
4.78585
0.0219228
1.65139
1.55329
0.0268007
0.0347096
5.54083
4.90925
4.77633
3.62313
0.0219742
6.40133
1.61539
0.0406627
0.224236
0.108123
0.0217323
0.0265782
3.48663
2.33922
0.0245203
0.0221716
1.55822
0.0851248
1.81781
0.0743834
2.22173
1.53739
0.0219904
11.0873
0.0222852
0.0302973
0.0220417
0.0218217
0.0217017
0.0371592
0.279255
0.0214899
15.8035
0.0712864
6.92136
7.78928
1.98422
0.0219088
4.53861
1.52658
2.00696
0.0343489
0.0219237
3.8543
0.415946
2.11293
0.0550485
0.0234293
0.0216846
4.77822
5.35158
0.0333781
15.8095
0.031024
0.02216
1.45576
0.0540087
20.0139
0.0218991
0.0295229
1.65953
4.69793
1.50156
0.218285
1.491
1.7019
6.01818
0.0220474
7.75514
0.0476495
0.02183
0.0215499
0.0219149
5.17542
0.0493183
1.50343
1.55796
0.0364799
0.15274
0.0786373
2.58792
0.26366
5.74085
4.9183
1.29967
0.0889035
0.0216453
0.678565
0.0571038
0.110547
1.44129
2.68194
1.71506
0.0220944
0.024081
0.0475177
0.0220591
0.0219537
0.0277098
1.5305
0.0286623
0.0253087
1.41525
0.0724373
0.296837
3.99725
1.57812
0.433421
1.95262
4.83368
2.23222
0.0620727
0.0311433
0.0220894
1.30312
0.106838
0.228315
0.0629294
0.0607613
0.0214484
0.178958
6.17958
0.0265522
0.021582
0.0230579
3.61281
0.0218744
0.0220251
0.0624856
1.54766
0.0284491
0.0551004
0.180902
0.0304796
0.0589607
0.0218494
0.0219823
0.0411033
0.219158
0.022211
0.0311953
0.270822
6.90342
0.0221026
11.547
0.0218686
1.57031
0.0232251
0.0233728
0.0215486
0.18006
0.0342501
5.59232
11.7591
0.0681552
0.0221618
0.0219385
5.63818
2.955
0.0218025
0.245271
1.60291
0.0524392
0.0770975
0.0214224
0.0226383
0.0219228
1.47976
0.0422522
0.0220502
6.44297
0.0223306
0.0576572
0.26779
0.0217338
0.0962479
0.0599245
18.3742
0.0223886
0.0261508
0.0233748
0.0542155
0.0213994
0.0219054
5.81491
0.331717
0.0751462
0.0218756
1.89891
0.0223358
0.0223337
0.0219574
0.454
6.28392
0.0237243
9.96098
1.58138
0.0641028
2.98254
4.80521
5.09308
7.02889
0.0527151
0.0630362
0.216615
0.0479235
0.0219505
0.0300555
0.0295022
7.89851
0.0220788
3.30019
0.0219774
0.409688
0.0909663
0.0227815
0.0229521
8.74899
11.4787
5.42831
1.5758
0.0218102
0.0668407
4.59021
0.0259029
9.77187
0.0406452
0.107157
1.662
0.0340362
0.021993
0.124165
0.148291
0.0219129
1.5038
0.701123
0.0217058
0.0222394
0.0221212
0.0220094
6.56792
0.0219755
0.0474292
0.0220248
0.0223367
0.0322657
0.021938
1.50499
0.0839981
0.022125
0.0216221
0.1103
0.0233006
0.0551912
6.15813
4.82709
0.0532528
0.229324
0.0404729
0.0215891
0.136497
10.4562
0.0377427
1.48074
6.07446
0.074934
0.0385987
0.0280464
0.0666978
0.03774
5.69126
0.0221131
0.0221381
0.021798
2.40028
9.46774
0.0358148
0.098602
0.0218645
0.0265893
0.106756
0.262445
0.0219031
0.0600042
1.86095
0.0874789
0.0219902
0.0219197
19.9299
5.57009
0.0219335
0.63085
0.0304008
0.200697
0.289773
0.0218598
2.95769
0.0289539
0.0220247
2.71307
0.201491
0.0219206
0.0221622
0.273137
0.0217668
0.0220409
0.151782
0.0418133
0.0456013
6.39485
0.0251758
0.0414843
1.80019
0.0218346
9.14278
4.71853
0.0250409
0.0585897
0.176109
0.0219631
0.158725
0.0214645
2.18809
1.50702
0.0220037
6.48414
7.87163
0.02193
0.0219321
0.571005
0.0377883
1.58011
1.53288
0.022095
0.0429068
4.99561
0.0226186
0.0479553
0.0682386
0.0336824
3.01554
0.197524
0.0233219
0.22206
5.79268
0.0452797
3.10265
0.0219116
0.021547
0.0222675
0.0420445
4.93427
0.0220656
0.0330974
15.1061
2.67689
0.0222177
0.0296872
1.97506
1.57262
0.0222247
9.29581
0.033437
0.0867695
0.0343383
0.0230429
0.0258383
0.0219485
0.0219616
6.12457
0.0219334
0.0519511
0.0219824
4.77905
0.0233094
0.0239493
0.0215857
0.0237141
0.0219831
0.0412369
5.2293
1.01089
0.037691
0.0422107
0.0219673
0.0315131
0.0511402
2.25418
5.25765
0.0218301
1.01228
0.0220228
2.30625
1.42303
5.07483
0.0218267
0.105968
0.0700903
5.8808
0.23653
0.0218398
2.54421
0.323882
0.0377516
3.17522
0.0221667
0.0219869
0.0391818
3.45678
0.0219193
7.01333
0.0338378
2.24614
0.0893622
0.0223742
2.18849
0.0279631
0.0220809
0.262138
0.021919
2.80122
10.3268
0.156644
0.027487
0.152279
0.0219256
0.101419
0.0438669
9.63998
0.0220044
0.021614
0.0267232
0.0293895
0.0426512
1.88662
3.7143
0.0356864
0.225911
0.0218009
3.27637
6.10077
0.181316
0.0219171
0.0222602
0.0231465
2.75971
0.0220445
0.0261823
2.38773
0.0817635
0.0219719
0.26464
0.076867
0.0219877
0.0250232
0.117909
1.55048
0.0685179
0.0428566
1.97608
1.53242
0.414863
0.0265182
0.0220961
0.024295
0.024599
0.137389
0.0559901
0.0273063
0.0754365
5.31503
0.0240249
0.0219952
4.8793
0.289404
1.73962
0.179076
0.0256078
0.0236672
0.0235336
0.021757
0.0218777
0.0426991
0.0215428
0.0228813
0.0220189
0.0228884
0.0234765
0.0219469
0.0383783
0.0359153
0.0220673
0.021934
0.0221191
0.0226963
0.0223091
0.245987
0.0220573
0.0233735
1.43501
0.0216874
0.0231567
0.0222235
0.027022
4.86861
9.92201
2.5713
2.98722
2.94312
0.198551
0.0218719
0.0577468
0.0219809
0.671581
0.0230892
0.0292277
0.022152
0.0530014
0.0219596
0.0305686
0.0217805
2.49695
0.161999
0.0220785
4.32945
2.747
0.0221294
0.0875915
0.0219511
0.02159
7.28981
0.0221009
0.0639293
0.19081
0.022105
0.0215494
0.0712797
1.66234
0.0249364
0.0233581
1.48721
0.0219438
3.82889
0.0490875
9.34792
0.0216662
1.55297
0.0219107
0.0221357
0.233127
0.0571196
2.30061
1.75237
6.65676
2.76665
0.164641
0.135637
0.0220461
0.132221
0.0220004
0.0218197
0.0924001
0.0219091
0.0219831
0.0215983
0.0216089
0.0547112
4.64306
1.50326
0.389546
2.63677
0.0234684
0.0301932
0.022777
0.0226903
0.072732
0.0220108
0.0217216
0.0218095
0.0235977
0.0231099
0.201249
0.0792651
0.0454724
0.0221088
0.0541106
0.0551722
1.98908
5.25866
0.0246337
0.0386047
0.0220883
11.9039
1.64281
0.0219189
0.0219336
0.024336
0.0222129
0.616123
0.283815
4.60167
0.0220973
3.52354
0.0220687
2.69587
0.0493114
0.0218102
0.0279252
3.60478
0.026843
0.0276584
0.0296046
0.0799524
4.4398
0.0217545
0.0219153
0.0278075
0.156431
0.0218521
1.98961
3.55602
0.0219485
0.0214178
6.17944
0.0627755
0.0219174
5.01555
15.5865
2.22937
3.68367
0.027643
1.9612
0.0220712
4.72543
3.05642
0.837235
0.0623646
0.0237929
5.18384
0.024879
0.0218672
0.0214465
0.474024
0.0216298
5.73763
0.022619
0.022126
0.0249212
1.51105
0.0237574
0.0227433
0.0220735
9.59664
4.05518
11.2627
1.61417
0.0408867
0.0219204
0.0240617
0.23095
0.109014
0.0219874
0.048316
0.189492
3.88229
0.0219305
4.04274
4.7931
0.0372278
0.0220629
0.0237119
0.0219515
0.0217307
0.0219386
0.0220317
0.0221572
0.0954973
0.0220954
0.118561
0.0225444
0.0226399
5.07133
0.0660468
0.0233945
0.0227308
2.18563
0.0215494
0.0227466
0.0259283
0.0218146
1.90822
0.0306604
0.0226947
0.0439637
0.0219384
0.0270196
0.0218076
0.138954
0.0218191
0.0218982
6.4258
0.0234817
0.17811
0.032635
0.023689
0.0798343
0.0214037
0.022088
0.0225877
5.24529
0.0237216
0.0219167
1.91762
0.0219631
0.0216179
0.021884
0.683666
0.0318788
0.131293
0.033269
0.0305501
0.0493121
0.0237641
0.0269608
0.0471179
2.28804
0.0222102
0.0282225
0.0217938
0.248592
0.202666
0.0219046
0.028614
2.90072
0.0297036
0.0215413
7.24255
0.0257124
0.0808646
2.36865
0.0280613
0.0218869
0.0290281
0.0219179
0.0241813
0.0219052
0.023257
0.025782
0.0219701
0.0220681
0.031666
0.0221199
0.0896259
0.0218972
0.0236416
0.021922
0.0292169
1.55685
0.0220538
0.0219754
0.0970952
0.0230961
0.0219305
0.255965
5.7842
2.96961
0.0220428
0.0243422
0.034294
0.0222447
0.0221251
0.0330914
0.185738
0.0215309
0.0522548
0.0219615
0.0218896
0.0217483
0.0215214
0.0227767
0.0422669
0.0332793
0.0266148
1.67262
0.024081
0.0278804
0.0217175
2.13102
3.56556
2.53151
0.0220195
0.0458974
0.0279575
0.0219895
0.02212
0.0410114
1.53442
2.39528
0.0219189
0.0273222
8.34792
0.0227173
0.178239
5.47408
1.61843
0.0288893
0.0219783
0.0379112
0.0429911
0.148568
11.1321
8.12354
1.57352
0.0226731
0.0221737
0.0219214
0.101678
0.0219074
0.0216818
0.0370931
0.0219031
0.0218661
0.0218774
0.0515725
0.0219459
0.0217755
0.0219724
2.40604
0.0215373
0.022012
0.0221066
0.0225713
0.0219389
0.0712237
0.0665081
6.78692
0.0215752
0.028085
0.108438
5.34716
2.38183
0.0221899
0.0222752
0.0524899
0.0943215
0.0256951
0.360586
0.0219299
3.8561
0.0222781
1.48261
0.0227611
0.0219128
0.0432574
0.0219369
0.021975
0.0226906
0.704834
0.0243343
0.0224174
0.0221782
0.0219526
0.0390324
0.0219507
0.0219177
0.0258077
0.102205
0.0241994
0.0218547
1.47281
6.39001
0.0219662
0.892369
0.022143
0.0296969
0.074029
0.207019
0.0233749
0.0229218
0.0220519
0.264289
0.0282391
0.0221642
0.0219023
0.0231678
0.150278
0.0220752
0.0341535
0.0237998
0.0347335
0.0500541
0.0371129
0.0874801
3.59397
0.0248627
0.0220389
6.83752
0.336076
0.0219307
0.021486
0.0220632
0.0219615
0.0219066
0.0238272
0.0216691
0.0220785
4.88629
1.55652
0.0315859
0.0219339
3.09205
0.0237843
0.0216979
5.87466
0.0236902
0.0216438
0.0220942
0.0220369
0.035961
0.022032
0.0541257
0.0219211
0.0217793
0.0219444
0.0318279
0.0351311
0.0218936
0.055302
1.50159
0.0231039
0.0218921
0.0603017
0.0217097
0.0219842
0.0218602
0.0299664
0.0220521
4.63629
0.0222869
0.232466
3.14706
0.054807
0.0232843
0.0222493
0.0220158
0.0219383
0.0292864
0.159384
0.112772
0.0218071
0.0237578
4.95354
0.0215808
0.168345
0.0219653
0.0231593
0.0306116
0.0612868
0.0219567
0.0330849
0.0279266
0.0579665
1.45407
7.6614
0.0218661
0.0219269
0.032378
0.0227667
0.0226014
0.0489345
0.0226902
0.0978745
0.0217806
0.0689589
0.022106
0.0796693
0.055803
1.47323
5.16782
0.021922
0.0381058
0.940163
0.202467
0.0215906
0.021774
0.125214
0.0219419
0.0219268
0.0217395
0.0215087
0.0699254
0.0706742
20.2214
0.0220201
0.0433513
0.022255
0.0215828
0.0230153
1.73491
0.164742
0.0219125
0.0221001
0.0218373
6.72017
0.0220077
0.0219321
0.0224279
0.021945
0.042702
0.0218336
1.84706
0.0219858
0.0225756
0.0223315
0.0218899
0.0217373
0.0220075
12.2629
0.0217804
0.021939
0.234136
0.0218832
0.0220425
0.0221116
0.0221559
0.0529672
0.021903
0.0219748
2.4665
0.0235354
0.0220381
0.0222311
0.0215152
1.55569
0.0229299
0.0221788
0.0218985
0.0258623
0.0219689
5.38952
0.0217941
0.0220108
6.10686
0.0219769
0.0610129
0.0221591
0.0214071
0.0215027
0.0304524
0.0370452
0.0218406
0.0222862
0.0239829
0.0219044
0.0221106
0.0220736
0.0218702
0.0217468
0.0218148
5.92912
0.0219589
0.0218353
1.87472
0.0219369
0.0266514
0.120903
1.60424
0.0218133
0.0220457
0.0219595
0.0216318
0.0228991
0.0385597
0.0238337
0.0364309
0.0217634
0.0254428
0.0219741
0.0214707
0.028013
0.0577387
0.0234737
0.0289407
0.0220262
0.021959
0.0221201
2.24323
0.0234981
0.0220117
3.7961
0.0229438
2.56189
0.0220632
0.0219329
0.021731
1.59743
0.0219336
0.024906
0.0229259
0.0220724
0.0219654
0.0220882
0.0220059
0.0242159
0.0218993
0.038684
0.0222479
0.0386287
0.0214938
0.0216278
0.0238743
8.31421
0.0221482
0.0220483
0.0225567
0.0219242
0.0240492
2.0842
0.0226998
0.0270564
1.94611
0.672673
0.0226553
0.022711
0.146443
0.0898471
0.0231429
0.0221146
0.0218782
3.978
0.0226235
6.06591
0.0216888
0.0215364
0.0221045
0.0219049
0.0231366
0.0215809
0.0219877
0.0222651
0.0583413
0.0237198
0.0225247
0.0216234
0.347127
0.0619211
0.0215085
0.0221043
0.0233924
0.022239
0.0220586
0.0215846
1.48601
0.0215973
0.021928
0.0656565
0.0215745
2.04767
0.0218215
0.042883
0.0272224
0.0219685
0.0215341
0.0219209
0.0221639
0.0220428
0.0217696
0.0216139
2.08064
1.62837
1.87663
0.0216074
4.97142
0.0219578
0.0547525
0.0219193
0.0219236
0.0221091
5.79257
0.0219473
0.0219061
0.0221259
0.0219546
1.61476
0.0219275
1.74204
0.0214442
0.0224875
2.5149
4.86466
0.0219827
0.0219571
0.0267604
0.0220163
0.139995
0.02175
0.569485
0.0217631
0.0352836
0.0221391
0.021815
0.0219424
0.0219475
0.0231261
0.0218725
0.0307498
0.0347034
0.118139
0.0217322
4.38043
0.0218951
12.6573
0.0219092
5.55305
1.23017
0.0217471
0.0219093
0.0215938
0.0218592
0.0220438
0.0220237
0.0215825
0.0224914
0.0214377
0.0864081
0.0221106
1.50609
0.0215743
0.021528
0.0219254
0.02192
0.0226527
4.16829
0.0230102
3.03629
0.02154
0.0221188
0.034706
0.0215806
0.142105
0.023191
0.0219295
0.0394139
0.0215037
0.0219717
0.0224113
0.0217024
0.0286414
0.0398246
0.0216318
0.0221124
0.0220458
6.3848
0.0233762
0.0215788
4.71559
0.0514287
0.0216215
0.0219178
0.153003
0.0228088
0.021436
3.80501
0.212134
0.0228185
0.0214423
0.0222398
0.0351697
0.0215651
0.171424
0.0216135
0.0216765
0.0410071
0.0523811
0.0216075
0.0216079
0.0215021
0.0217301
0.021742
0.0408313
0.0219701
0.0217499
0.022111
0.0218469
2.92837
0.0222722
3.21479
0.0262388
0.0277315
0.0221421
1.75685
0.0219082
1.91485
0.0215264
0.0219595
0.454093
0.0219721
0.0227908
0.0216533
0.0247272
0.0217034
0.0269099
0.0215651
2.63984
0.0221583
0.0215727
0.0215327
0.0215714
0.101284
0.021776
3.84858
0.0219163
0.0247858
0.0214977
0.0220168
0.211609
0.0219995
0.107365
0.0218145
0.0230399
0.0221229
0.0221329
0.0224214
0.0219167
0.0219824
0.256614
0.0215693
0.021947
0.0225155
0.022057
0.0220541
0.0327039
0.0218597
0.021917
0.0218474
0.021619
0.0217612
0.0219962
10.6472
0.189342
3.49892
0.0214331
0.0235965
0.0221258
0.0263833
0.116928
0.222857
0.0318745
0.021567
0.0219781
0.0219541
0.0221438
0.0221145
0.0219112
2.60711
0.050508
0.0219285
0.433038
0.0221369
5.80699
0.0219625
0.0218914
0.0218028
0.0215628
0.0214807
0.0218357
0.0216565
0.0217898
0.0414961
0.0228809
0.0219161
1.75178
0.0215634
0.0227177
0.0219866
0.0215964
0.0219243
0.30036
0.021786
6.60216
0.0219086