/*--------------------------------*- C++ -*----------------------------------*\
| =========                 |                                                 |
| \\      /  F ield         | OpenFOAM: The Open Source CFD Toolbox           |
|  \\    /   O peration     | Version:  v2012                                 |
|   \\  /    A nd           | Website:  www.openfoam.com                      |
|    \\/     M anipulation  |                                                 |
\*---------------------------------------------------------------------------*/
FoamFile
{
    version     2.0;
    format      ascii;
    class       surfaceVectorField;
    location    "900";
    object      Uf;
}
// * * * * * * * * * * * * * * * * * * * * * * * * * * * * * * * * * * * * * //

dimensions      [0 1 -1 0 0 0 0];


internalField   nonuniform List<vector> 
14470
(
(0.96282 -0.0161997 3.43324e-21)
(0.960953 -0.0159805 -5.64106e-21)
(0.962255 -0.014197 -1.7223e-20)
(-0.129618 -0.000814474 -5.81511e-20)
(-0.137289 0.000623195 4.90296e-20)
(0.99219 -0.00633326 -9.11836e-21)
(0.992529 -0.0067575 5.42598e-21)
(0.991914 -0.00704521 -8.44758e-21)
(-0.0432308 0.104104 -1.84175e-20)
(-0.0374781 0.103047 5.05533e-20)
(-0.0390841 0.110974 -4.58908e-20)
(0.999963 -0.000554592 -4.25537e-21)
(0.999958 -0.00053118 3.88568e-21)
(0.999928 -0.000718001 -3.49248e-21)
(1.22756 -0.0253144 9.1807e-21)
(1.23475 -0.0232164 -1.18655e-19)
(1.23231 -0.031281 -1.06835e-19)
(1.11524 -0.236038 1.276e-20)
(1.12069 -0.22563 -1.50132e-20)
(1.1306 -0.235218 -2.51193e-20)
(-0.0994095 0.0484931 4.13342e-20)
(-0.0889262 0.0515458 -9.95441e-20)
(-0.137369 0.0490989 -4.95582e-20)
(1.02094 -0.037438 1.41944e-21)
(1.02234 -0.0383653 1.33483e-21)
(1.02063 -0.0391459 1.54328e-21)
(1.00005 -0.0020289 -1.28174e-21)
(1.00004 -0.00189152 -4.60289e-22)
(1.00005 -0.00189244 -3.37618e-21)
(1.00002 -0.0021632 -4.2102e-21)
(1.00008 -0.00217961 3.13858e-21)
(1.00223 -0.00945793 -1.1835e-21)
(1.00212 -0.00899604 8.54918e-22)
(1.0019 -0.00928527 -1.92831e-22)
(-0.0647733 0.144373 4.39278e-20)
(-0.0846737 0.143183 -1.905e-21)
(-0.0844039 0.147661 5.60284e-20)
(1.01994 -0.0233391 -2.31493e-21)
(1.01937 -0.0223848 -1.51581e-21)
(1.02067 -0.0224825 -1.83698e-21)
(1.06636 -0.00397102 2.7853e-21)
(1.06787 -0.00350785 -7.22282e-21)
(1.06645 -0.0024625 -1.06967e-20)
(1.13676 -0.0665388 3.50302e-20)
(1.14303 -0.0686113 1.18828e-20)
(1.13861 -0.0735868 1.65568e-20)
(0.994336 -0.00873622 -9.18699e-23)
(0.994293 -0.00921863 6.74498e-21)
(0.994767 -0.00891914 -6.63685e-21)
(-0.0679949 -0.0658139 -9.21301e-21)
(-0.0665731 -0.0647198 -1.91225e-21)
(-0.0683667 -0.0756359 1.60309e-20)
(1.01763 -0.00513641 3.177e-22)
(1.01756 -0.00474609 -5.22991e-22)
(1.01797 -0.00495387 -1.55783e-22)
(1.02328 -0.0100403 0)
(1.02398 -0.0098252 -3.93469e-21)
(1.02318 -0.00942444 0)
(0.99999 -0.000212223 0)
(0.999991 -0.000221803 3.75396e-21)
(-0.0448002 0.151646 -5.3322e-20)
(-0.0408993 0.16123 3.27228e-22)
(-0.0369962 0.152039 0)
(-0.0690547 0.0445265 -1.68794e-20)
(-0.121795 0.0457783 8.08031e-20)
(-0.0435446 0.140488 7.67323e-21)
(-0.041103 0.143858 6.49913e-20)
(0.919323 -0.0591391 -4.13024e-20)
(0.92433 -0.0579629 9.35962e-21)
(0.920232 -0.0534332 -6.42145e-21)
(0.99996 -0.00356116 -5.35761e-22)
(1.00003 -0.00375282 3.63134e-21)
(1.00005 -0.00348486 3.16807e-21)
(1.00003 -0.000428205 -2.63589e-22)
(1.00003 -0.000490406 8.63747e-23)
(1.00006 -0.000604977 -2.44796e-22)
(1.01737 -0.00525172 2.90664e-22)
(1.01774 -0.00548309 -7.14331e-22)
(1.16053 -0.139441 9.52136e-21)
(1.1686 -0.137569 4.88415e-20)
(1.16653 -0.146958 2.96336e-20)
(-0.295971 0.0187427 -3.73068e-20)
(-0.298191 0.0187995 3.10656e-20)
(-0.329505 0.018991 -3.89049e-20)
(1.27429 -0.0423002 -3.41858e-20)
(1.26309 -0.0427607 3.96214e-20)
(1.27004 -0.0507212 0)
(0.996588 -0.00359292 5.13381e-22)
(0.996429 -0.00332027 0)
(0.996246 -0.00376246 0)
(0.997234 -0.00885114 7.27848e-21)
(0.997004 -0.00930669 3.18418e-21)
(0.997399 -0.00934598 2.02301e-21)
(1.0056 -0.000626009 1.24916e-21)
(1.00532 -0.00062013 1.78007e-21)
(1.00516 -0.000353509 2.35746e-21)
(1.08186 -0.0313767 -1.89595e-20)
(1.08085 -0.0335056 1.48454e-20)
(1.08334 -0.0328096 -5.0837e-21)
(1.06244 -0.00755965 -1.10685e-20)
(1.06173 -0.00889047 -1.03457e-20)
(1.0607 -0.00780492 -8.14198e-21)
(0.916996 0.00375047 1.87205e-20)
(0.913558 0.00545972 2.18854e-20)
(0.913968 0.000554859 4.78802e-20)
(-0.148068 0.0602206 -3.28527e-20)
(-0.142826 0.056018 8.49592e-20)
(-0.140836 0.0502294 -3.13685e-20)
(1.08107 -0.0757139 0)
(1.07719 -0.0737356 3.29722e-21)
(1.08095 -0.0711766 0)
(1.15152 -0.142535 -6.15129e-20)
(1.15329 -0.133706 -1.77445e-20)
(1.05466 0.0422019 1.42682e-20)
(1.04969 0.0378614 1.18102e-19)
(0.893221 0.0531161 8.61719e-21)
(-0.103736 0.0162747 4.64702e-20)
(-0.0943927 0.0318277 4.08546e-20)
(-0.125967 0.0232866 1.4656e-21)
(1.00001 -0.000277385 2.98469e-21)
(1.00002 -0.000404274 -1.02454e-21)
(0.992526 -0.000341584 3.89895e-21)
(0.992085 -0.000608374 4.21288e-22)
(0.99213 -3.71275e-05 -4.0214e-21)
(0.996427 1.37829e-05 -4.2286e-21)
(0.99671 -0.000123054 -6.67082e-21)
(0.996667 0.000217511 -6.42693e-21)
(-0.246087 0.0413364 5.90767e-20)
(-0.251566 0.0402547 -1.58848e-20)
(-0.230222 0.0469776 1.21265e-19)
(0.999997 -0.000494748 -7.5214e-21)
(1.00001 -0.000254697 7.19298e-21)
(1.00002 -0.000249608 -8.11168e-21)
(1.03188 -0.00811468 -3.72619e-21)
(1.03146 -0.0073946 7.60016e-21)
(1.03253 -0.00754931 -4.29114e-21)
(0.994413 -0.00808792 4.86639e-21)
(0.993889 -0.00844574 0)
(1.08339 -0.0286446 -5.52742e-21)
(1.08031 -0.0292947 -1.90551e-20)
(1.00585 -0.00086744 -2.04998e-21)
(1.0059 -0.000578959 -2.97389e-21)
(1.10357 -0.0478593 0)
(1.10699 -0.0503611 3.42198e-20)
(1.10642 -0.0456824 1.28331e-20)
(1.00001 -0.000718089 -3.19534e-21)
(0.999995 -0.000746295 -2.79641e-21)
(0.897943 -0.117284 2.56697e-20)
(0.907332 -0.115668 1.8672e-20)
(0.904632 -0.125891 -1.4712e-20)
(-0.0507827 0.0960355 -2.75951e-20)
(-0.0524746 0.104717 1.43069e-20)
(1.0024 -0.0085782 1.21349e-22)
(1.00228 -0.00814867 0)
(1.00258 -0.00835416 0)
(1.1538 0.0175834 2.71278e-20)
(1.15224 0.0232232 2.6772e-20)
(1.14809 0.0193339 2.44006e-20)
(1.03128 -0.00850939 -3.56992e-21)
(1.03226 -0.00872194 -2.76441e-21)
(1.00001 -0.000263946 3.04193e-21)
(0.90205 -0.0177371 6.07465e-21)
(0.896742 -0.0163257 -2.41993e-20)
(0.901307 -0.0120703 -7.27686e-21)
(0.828832 -0.323515 8.60744e-21)
(0.847074 -0.332692 2.89453e-22)
(0.82208 -0.354076 -2.74903e-20)
(0.993907 -0.00679819 -4.37396e-21)
(0.993625 -0.00644666 4.83543e-21)
(0.994142 -0.00624687 -9.7533e-23)
(1.09019 -0.00395935 -5.81684e-21)
(1.08977 -0.00688483 1.83012e-20)
(1.08733 -0.00469171 -6.07703e-21)
(1.00279 -0.00124837 -1.86535e-21)
(1.00296 -0.00117133 2.99647e-22)
(1.00299 -0.00141541 0)
(1.01963 -0.0365124 -2.32028e-21)
(1.02106 -0.0359529 -2.28571e-21)
(-0.259015 0.0275861 -7.91242e-20)
(-0.251006 0.0269492 5.59668e-21)
(1.05479 -0.0460906 1.19943e-22)
(1.05255 -0.0462928 -3.59077e-22)
(1.05411 -0.0484742 -1.47675e-20)
(1.0631 -0.00632115 -6.28045e-22)
(1.0635 -0.00487819 1.15698e-21)
(1.06188 -0.00519403 -1.06619e-22)
(0.0223325 0.002616 2.14227e-20)
(0.0481362 0.0129941 3.01414e-20)
(0.056429 0.0106702 -3.89082e-20)
(0.979055 -0.010838 -9.3068e-21)
(0.977834 -0.0105049 0)
(0.978961 -0.00971269 -2.3702e-21)
(0.599091 0.0279928 7.313e-20)
(0.579402 0.0413134 7.31216e-20)
(0.577893 0.0132353 -1.54636e-20)
(-0.162817 0.054609 1.26877e-20)
(-0.126871 0.0574886 8.37591e-20)
(-0.160906 0.0577243 -5.53794e-20)
(0.524624 0.211692 3.41688e-21)
(0.400245 0.231571 1.42929e-20)
(0.519152 0.229381 0)
(0.184322 0.0491366 3.62688e-20)
(0.124368 0.0446832 -1.45649e-19)
(0.183331 0.0550737 -5.34376e-20)
(0.999999 -0.000694581 0)
(0.999992 -0.000751515 3.55938e-21)
(1.00002 -0.000944889 4.79294e-21)
(0.793008 -0.133117 1.74577e-20)
(0.807812 -0.140151 -5.85346e-20)
(0.80526 -0.124126 -7.59205e-20)
(0.925994 0.0123196 -1.10133e-19)
(0.755379 0.0254582 -8.6417e-20)
(0.763607 0.0195795 6.71828e-20)
(0.994638 -0.003274 7.91813e-21)
(0.994416 -0.00368749 -8.88926e-21)
(0.994846 -0.00354354 1.23029e-21)
(0.999973 -0.00063326 1.25752e-21)
(0.999977 -0.000638288 9.29799e-21)
(0.999987 -0.000434817 2.74015e-22)
(0.782572 -0.139512 1.157e-19)
(0.781127 -0.122467 3.85863e-21)
(-0.0715995 -0.0656068 1.10522e-20)
(-0.0674858 -0.0575175 -7.69975e-20)
(1.1313 -0.0655769 -1.90495e-20)
(1.13513 -0.0610453 -2.98038e-21)
(0.978811 -0.0701734 7.63495e-22)
(0.981981 -0.0716804 -7.40151e-21)
(0.982301 -0.0680861 -1.70968e-21)
(1.06416 -0.00736332 9.58873e-21)
(1.2617 -0.150682 -1.50415e-20)
(1.25565 -0.159644 9.41875e-20)
(1.25198 -0.148296 4.28197e-20)
(0.999968 -0.00063212 -2.92235e-21)
(0.999947 -0.000818996 -4.43949e-21)
(1.10981 0.0329649 -1.44367e-21)
(1.1075 0.0280633 -1.55394e-20)
(1.1041 0.0320166 1.21945e-20)
(-0.153074 0.0645998 -1.14075e-20)
(-0.153819 0.0696099 -2.83808e-20)
(0.824378 -0.302576 1.63328e-20)
(0.800958 -0.323175 -7.12778e-21)
(-0.0593696 0.133357 3.83096e-20)
(-0.0531829 0.134706 2.37234e-20)
(-0.0586935 0.126542 -6.63165e-21)
(1.35501 -0.18523 5.01259e-20)
(1.349 -0.172819 -6.94651e-20)
(1.36814 -0.175305 9.54303e-20)
(1.37059 -0.201153 -3.39534e-20)
(1.33908 -0.193684 -3.75644e-20)
(1.08652 -0.121155 1.0122e-20)
(1.09273 -0.126978 -3.94417e-20)
(1.09321 -0.118581 -3.55891e-20)
(-0.107583 -0.00508166 0)
(-0.0786013 0.00909141 -4.29161e-20)
(0.99577 -0.0123452 4.6267e-21)
(0.995947 -0.0129351 0)
(0.996306 -0.0123565 -5.34901e-21)
(0.187453 0.0512904 -1.54448e-19)
(0.261146 0.0565635 -4.86033e-20)
(1.13517 -0.0902285 -3.86459e-20)
(1.13011 -0.0936416 9.80207e-22)
(1.12966 -0.0869989 4.61491e-20)
(1.04131 -0.0655558 5.47286e-21)
(1.04411 -0.0667 4.26394e-21)
(1.04154 -0.0687301 -6.97438e-21)
(0.999988 -0.000388742 0)
(0.999962 -0.000602159 0)
(-0.127819 0.104147 3.69397e-20)
(-0.131716 0.108243 3.24634e-20)
(-0.123249 0.111638 -9.15895e-21)
(1.10114 -0.0508405 0)
(1.10011 -0.0461535 0)
(-0.0899137 0.241442 -2.03617e-20)
(-0.0971745 0.228701 0)
(-0.0824592 0.213231 0)
(0.992947 4.80053e-06 3.40549e-21)
(0.992965 -0.000531699 -4.18647e-21)
(0.089589 0.0932977 -4.36799e-20)
(0.0289425 0.0891728 -5.77647e-20)
(0.0585921 0.0809038 -1.00859e-19)
(0.60025 0.0381376 -7.40285e-20)
(0.465645 0.0434021 -3.08885e-21)
(0.449328 0.0488938 -8.27314e-20)
(0.680693 0.173148 6.90386e-22)
(0.54364 0.18588 2.82405e-21)
(1.00475 -0.00712642 0)
(1.00471 -0.00743036 0)
(1.00445 -0.00710128 3.80703e-21)
(0.994416 -0.00298893 -7.55975e-22)
(0.994861 -0.0028781 4.76688e-21)
(0.999986 -0.000189999 0)
(1.00008 -0.000966186 5.91861e-22)
(1.0001 -0.000942996 3.36453e-21)
(1.00012 -0.00112341 -4.14138e-22)
(-0.0488337 0.142083 -5.13059e-20)
(-0.050871 0.149172 6.62524e-21)
(0.114993 -0.120774 1.01953e-19)
(0.0798872 -0.128038 2.84472e-20)
(0.0842954 -0.088659 2.51111e-19)
(-0.287369 0.0107357 0)
(-0.291296 0.011147 -3.97331e-20)
(-0.315717 0.0131802 0)
(0.980214 -0.0109791 -1.31229e-20)
(0.979336 -0.0116856 7.1817e-21)
(0.999142 -0.00250011 -2.33645e-21)
(0.999124 -0.00270226 -7.45865e-21)
(0.998985 -0.00257598 2.11038e-21)
(1.05717 0.00129431 -9.05671e-21)
(1.05607 0.00201829 1.36056e-20)
(1.0576 0.00289615 1.01377e-20)
(0.99682 -0.00070257 4.59647e-21)
(0.99707 -0.000778636 -4.55731e-21)
(0.996869 -0.000997873 4.8078e-21)
(-0.0584295 0.0889196 1.88163e-20)
(-0.0665485 0.0904642 -1.84231e-20)
(-0.064931 0.081949 8.48585e-20)
(0.996129 0.000622522 -2.97892e-21)
(0.996026 0.000339966 6.45163e-21)
(0.995839 0.000574156 3.39389e-21)
(-0.0104871 0.0987926 2.41137e-20)
(-0.00735473 0.109803 -3.93634e-21)
(-0.0554819 0.104062 2.34797e-20)
(1.1122 0.0373972 8.55104e-21)
(1.11576 0.0327846 -2.52931e-20)
(0.463377 0.0711155 -4.16581e-20)
(0.36568 0.0587132 4.62477e-20)
(0.39049 0.0656492 -6.95308e-20)
(1.11507 -0.0286643 1.23202e-20)
(1.11593 -0.024496 1.32838e-20)
(1.11213 -0.0256361 -7.94241e-21)
(1.06094 -0.0104981 0)
(1.06303 -0.0103688 -5.49146e-21)
(0.996154 0.000932398 -8.20176e-22)
(0.9964 0.000657271 3.3282e-21)
(1.14489 -0.0827348 -7.0184e-21)
(1.15125 -0.0801638 7.5451e-22)
(1.15076 -0.0879052 -5.55141e-20)
(-0.296726 0.0188915 9.93556e-20)
(-0.267249 0.0193784 -5.7391e-20)
(1.09976 0.101855 4.18926e-20)
(1.10387 0.0946687 4.57894e-20)
(1.10905 0.102437 -4.53091e-20)
(1.09464 0.109962 -2.92257e-20)
(1.08855 0.10106 -5.36698e-20)
(1.05889 -0.0245177 3.63501e-22)
(1.05867 -0.022693 -1.13822e-20)
(1.05724 -0.0238807 -1.11413e-20)
(1.0068 -0.0150846 -2.98879e-22)
(1.00732 -0.0150441 6.08659e-22)
(1.00685 -0.0145613 6.77047e-22)
(0.964845 -0.0159856 1.18089e-20)
(0.963715 -0.0177259 1.01134e-20)
(1.04955 -0.0425056 0)
(1.04749 -0.0429039 0)
(1.04808 -0.0407984 0)
(1.07886 -0.0346906 1.76849e-20)
(1.07605 -0.0336598 1.09157e-21)
(1.07638 -0.0366089 0)
(1.19897 -0.227073 -1.88029e-20)
(1.18901 -0.23437 -5.30122e-20)
(1.20305 -0.241404 -3.39988e-20)
(1.2524 0.0232617 -8.29142e-20)
(1.25407 0.0293622 3.28744e-20)
(1.24111 0.0261173 -2.45334e-20)
(1.05837 0.000901758 -1.22883e-20)
(1.05692 2.71248e-05 -1.31776e-21)
(1.00001 -0.000668455 0)
(0.999998 -0.000447526 -3.39443e-21)
(1.15024 -0.0578255 4.48637e-20)
(1.15376 -0.0550101 -2.05566e-20)
(1.1549 -0.0609532 4.19771e-20)
(-0.0654094 -0.0526682 0)
(-0.0701414 -0.0598595 3.96084e-20)
(-0.0619374 -0.0499864 -1.75075e-20)
(1.08085 -0.0363338 1.3339e-20)
(0.983926 -0.0191288 1.29027e-20)
(0.984249 -0.0204601 0)
(0.985154 -0.0193237 0)
(1.10632 0.0164679 9.88664e-21)
(1.104 0.0198553 3.73366e-20)
(1.10239 0.016292 -2.01642e-21)
(-0.2383 0.0429358 0)
(-0.231338 0.0440406 -2.44654e-21)
(-0.219756 0.0503237 -5.56022e-20)
(1.15061 -0.446392 0)
(1.13406 -0.450118 2.55789e-20)
(1.14105 -0.468407 -8.22358e-20)
(0.996175 0.00121408 1.73056e-21)
(0.996444 0.00126134 -3.98972e-23)
(0.198156 0.0536503 -7.81517e-20)
(0.155003 0.042995 -4.92674e-20)
(1.00636 -0.0151667 -1.71841e-21)
(1.00684 -0.0156277 3.56725e-22)
(0.995886 0.00115775 1.23676e-21)
(0.999105 -0.00400872 5.12653e-22)
(0.999231 -0.00387203 -8.73612e-22)
(0.999125 -0.00371802 -6.15869e-21)
(0.0578834 -0.0427571 8.65542e-20)
(0.279834 -0.0935895 4.70317e-20)
(0.133894 -0.0566544 -1.64491e-19)
(1.03829 -0.0643588 3.8286e-21)
(1.04064 -0.0625666 0)
(0.999913 -0.00345151 -4.09438e-21)
(0.999899 -0.00366193 -1.14909e-21)
(0.98539 -0.00261775 1.17775e-20)
(0.985653 -0.00332398 -5.34375e-21)
(0.984843 -0.00326698 -4.92788e-21)
(1.36931 -0.223602 3.70503e-20)
(1.34333 -0.222424 9.96434e-20)
(1.35776 -0.237505 -2.14989e-20)
(1.14637 -0.0625407 2.58432e-20)
(1.14921 -0.0705465 -2.36986e-20)
(0.994211 -0.00717783 -4.74778e-21)
(0.993677 -0.00742497 1.04312e-22)
(1.27874 -0.0341965 3.18213e-20)
(1.29003 -0.0423729 8.90305e-21)
(0.983929 -0.0114047 3.78224e-21)
(0.984802 -0.0110843 0)
(0.984708 -0.0120885 8.25238e-21)
(1.1059 0.0234794 -2.64275e-20)
(1.11077 0.0239184 -2.27113e-20)
(1.06065 -0.0251024 1.09042e-20)
(1.05913 -0.0263204 2.36904e-20)
(1.02345 -0.0105555 0)
(1.02278 -0.0102208 0)
(0.586286 -0.412552 0)
(0.597458 -0.443078 2.73723e-20)
(0.558156 -0.434516 1.14118e-20)
(1.03949 -0.0170085 4.93932e-22)
(1.03962 -0.0180763 -1.75546e-21)
(1.03835 -0.0176303 -7.13026e-22)
(1.07888 -0.00167215 -2.45696e-20)
(1.09879 -0.0127489 3.08112e-20)
(-0.0884583 0.208722 -2.81809e-20)
(-0.0599632 0.19123 8.04519e-21)
(-0.0589831 0.175887 -4.09159e-21)
(1.04211 -0.0207713 -1.3582e-20)
(1.04187 -0.0220769 -4.39491e-21)
(1.04059 -0.0212621 -5.71476e-21)
(1.00478 -0.00681188 5.3208e-22)
(1.00477 -0.00650659 -1.91841e-21)
(1.00449 -0.00650881 -2.56934e-21)
(1.00002 -0.00172984 2.66925e-21)
(1.00002 -0.00155639 2.90521e-21)
(1.00001 -0.00154873 2.41919e-21)
(0.983538 -0.0183065 3.08306e-21)
(0.982725 -0.0192412 -2.4955e-21)
(-0.22745 0.00174423 6.23517e-20)
(-0.203347 -0.00259052 -9.6862e-22)
(-0.236623 0.00409018 1.52269e-20)
(0.541385 -0.275367 2.15209e-19)
(0.329773 -0.186356 -7.83581e-20)
(0.206973 -0.135819 3.55403e-20)
(-0.213437 0.167095 5.10131e-20)
(-0.212423 0.162429 -6.35858e-20)
(-0.209099 0.154477 -1.24924e-19)
(1.00224 -0.0100184 -1.58587e-22)
(1.00255 -0.00971113 1.09162e-21)
(1.21959 -0.0280268 7.60118e-20)
(1.22191 -0.0203994 6.2335e-20)
(1.01999 -0.375257 2.25133e-22)
(1.03709 -0.361617 -2.30662e-20)
(1.01693 -0.354486 8.23576e-22)
(0.573105 -0.523948 8.37075e-22)
(0.534001 -0.560113 3.3913e-20)
(0.533097 -0.495751 -9.60578e-20)
(0.99416 -0.00414396 -8.19854e-21)
(0.994428 -0.00444604 -1.31626e-21)
(0.993914 -0.00460275 -3.85078e-21)
(1.05629 -0.0417194 1.54494e-20)
(1.05548 -0.0439954 4.47176e-22)
(1.05391 -0.0416157 9.53144e-21)
(0.164529 0.0936942 4.67173e-20)
(0.132787 0.105524 5.59779e-21)
(-0.259064 0.0350354 8.57694e-20)
(1.10853 0.0407677 2.75553e-20)
(1.11491 0.0423201 3.44066e-20)
(0.996236 -0.000249313 -2.26392e-21)
(0.99616 0.000100261 5.98878e-21)
(0.997424 -0.000448458 4.51204e-21)
(0.997598 -0.000302741 4.371e-21)
(0.997633 -0.000552705 -8.62117e-23)
(1.00506 -0.00710627 0)
(0.594393 0.0760559 -7.35088e-20)
(0.560666 0.0798411 5.30196e-20)
(-0.167324 0.0512795 -1.53938e-20)
(-0.19265 0.051045 5.86078e-20)
(0.835491 -0.387432 -1.38766e-19)
(0.979353 -0.474291 2.57979e-20)
(-0.0678943 0.254856 2.15542e-20)
(-0.0948196 0.263638 -1.95539e-20)
(1.01855 -0.0355739 0)
(1.01743 -0.0345293 -7.82013e-22)
(1.01883 -0.0340273 1.38181e-21)
(-0.117077 0.253771 5.85544e-21)
(-0.0541875 0.278969 -3.57858e-20)
(-0.146858 0.283433 1.33379e-19)
(0.400322 -0.140951 6.73686e-20)
(0.378082 -0.156424 1.129e-19)
(0.409243 -0.16703 2.32963e-20)
(0.912852 -0.0218933 0)
(0.911029 -0.0182422 -6.54471e-21)
(0.915516 -0.0183095 2.25384e-20)
(1.03454 -0.00515486 4.04297e-23)
(1.03406 -0.00579051 -1.07299e-20)
(1.03357 -0.00511098 -4.25244e-21)
(0.961024 -0.0518568 -8.67869e-21)
(0.963092 -0.0498672 -1.72504e-21)
(0.960162 -0.048723 -1.5271e-21)
(0.195705 0.10572 1.88869e-20)
(0.16195 0.0990323 -1.0912e-19)
(0.187994 0.0670865 3.2485e-20)
(1.01516 -0.00509253 4.25608e-22)
(1.01556 -0.00520811 -1.33984e-22)
(1.01531 -0.00539892 2.62477e-22)
(0.993998 -0.00964691 6.02917e-21)
(0.994445 -0.00971135 4.26184e-21)
(0.999736 -0.00150857 1.15631e-23)
(0.999771 -0.0015523 8.16348e-24)
(0.999805 -0.00140722 9.71956e-21)
(0.976708 -0.0106779 7.16247e-21)
(0.975423 -0.0109435 -7.04641e-21)
(0.976456 -0.0119191 7.08659e-21)
(1.02557 -0.00910169 1.95034e-21)
(1.02596 -0.00880166 2.24485e-21)
(1.02535 -0.00848505 -4.4652e-22)
(1.08279 -0.0245028 0)
(1.08448 -0.0266009 1.43145e-20)
(1.08579 -0.0240938 4.19666e-21)
(1.06568 -0.0196936 -6.95791e-23)
(1.06746 -0.0202601 1.29591e-20)
(1.06667 -0.0185466 3.37013e-20)
(-0.0825786 0.00897971 -2.64305e-20)
(-0.0760005 0.0121051 2.60844e-21)
(-0.0737833 0.000579794 1.42379e-20)
(0.982189 -0.00164049 1.86416e-20)
(0.981404 -0.00220437 -7.83479e-21)
(0.982386 -0.00248275 1.02817e-20)
(1.07201 -0.0682918 -5.14989e-21)
(1.06972 -0.0658115 1.09408e-20)
(1.06861 -0.0693335 -1.97034e-20)
(1.04224 -0.0195882 -5.85275e-21)
(1.04337 -0.0203125 7.61542e-22)
(0.968718 -0.0291487 -3.07643e-21)
(0.96901 -0.0269555 -7.38857e-21)
(0.970681 -0.0286183 4.76761e-21)
(0.816687 -0.547981 -3.17215e-21)
(0.777189 -0.552913 0)
(0.808235 -0.594322 -1.49739e-22)
(1.14467 -0.0569687 3.05584e-20)
(-0.0576874 -0.0436309 0)
(-0.0706508 -0.0514838 -1.12139e-20)
(1.01376 -0.00497552 2.0175e-22)
(1.01358 -0.00472978 1.77462e-22)
(1.01337 -0.00490757 6.69064e-23)
(-0.00445802 -0.00412791 5.33357e-20)
(0.00342489 -0.00684252 -2.34266e-20)
(0.975876 -0.0682541 -5.53861e-23)
(0.975224 -0.0719459 2.30015e-21)
(1.07172 0.0102653 -6.0297e-21)
(1.07087 0.0104053 9.95748e-21)
(1.07127 0.00975937 1.20873e-20)
(1.01944 -0.0239763 -1.95935e-21)
(1.02058 -0.0240104 2.06196e-21)
(1.20981 -0.219946 -3.00654e-20)
(1.19783 -0.214865 3.18668e-20)
(0.999249 -0.00244113 -7.96053e-21)
(0.999177 -0.00235716 6.39596e-21)
(0.740254 -0.0608568 -2.39484e-20)
(0.750261 -0.0498895 2.87624e-20)
(0.731373 -0.0459416 -2.96506e-20)
(1.13944 -0.0864739 -6.20824e-20)
(1.14018 -0.0937344 4.25134e-21)
(1.02514 -0.00940811 2.30521e-21)
(1.0259 -0.00963984 -8.06406e-22)
(0.332147 0.448705 -3.29532e-20)
(0.380778 0.429603 -2.30739e-20)
(0.375751 0.483254 9.28886e-20)
(-0.219224 0.21492 -1.92368e-20)
(-0.217529 0.222665 -2.48569e-20)
(-0.217229 0.22504 -2.20972e-20)
(1.08255 -0.124717 3.00695e-20)
(1.08213 -0.117977 2.66507e-20)
(0.995526 -0.0147332 0)
(0.995306 -0.0140574 0)
(0.994823 -0.0147553 1.43925e-21)
(1.12642 -0.0182414 0)
(1.12527 -0.0218563 0)
(1.13019 -0.021455 0)
(-0.173508 0.25618 4.75139e-21)
(-0.187429 0.255919 2.43224e-22)
(-0.191579 0.26703 2.69915e-20)
(0.755558 -0.0870913 4.5097e-21)
(0.746921 -0.0737551 0)
(0.764587 -0.0775564 0)
(0.74339 -0.096169 4.92909e-20)
(0.760348 -0.0985899 -3.46106e-21)
(-0.0872841 0.0479993 -5.74071e-22)
(-0.0958152 0.0510985 -3.30565e-20)
(-0.090047 0.0579795 -1.07791e-19)
(1.11342 0.0744525 0)
(1.10652 0.0755932 2.08765e-20)
(1.11181 0.0815793 0)
(1.07224 0.010363 -1.05035e-20)
(1.07193 0.00975101 -1.00787e-20)
(1.09044 -0.00175442 0)
(1.09273 -0.00381324 0)
(0.418578 -0.122195 -7.41239e-20)
(0.387453 -0.11416 -7.77028e-20)
(1.02823 -0.00414362 3.7466e-21)
(1.02858 -0.00366004 7.0291e-22)
(1.02785 -0.0035983 -2.77632e-21)
(-0.0957784 0.195359 -2.8974e-20)
(-0.259919 0.00859898 0)
(-0.285104 0.0105194 -6.34478e-21)
(1.01479 -0.00499904 -5.23356e-22)
(1.01504 -0.00483091 0)
(0.999815 -0.00117507 5.15303e-21)
(0.999801 -0.00112512 1.43897e-22)
(0.99986 -0.00102556 4.99686e-21)
(1.04646 0.0462302 -7.02606e-20)
(1.16969 0.0345718 -7.01436e-20)
(0.9877 -0.0138363 1.87215e-21)
(0.988563 -0.0143218 -1.01582e-21)
(0.987594 -0.0150059 -3.35447e-21)
(1.00007 -0.00086987 3.11733e-22)
(1.00008 -0.00103443 -3.82792e-21)
(1.14835 0.0391053 2.57544e-20)
(1.15447 0.0381671 2.10522e-20)
(1.1489 0.0337304 -5.33105e-21)
(1.16065 0.0367613 -2.90647e-20)
(1.16196 0.0307021 3.78868e-20)
(1.16815 0.035138 -1.94413e-20)
(1.01819 -0.0369656 7.94523e-22)
(1.05707 -0.0398882 4.53136e-21)
(1.0583 -0.0421637 2.33895e-20)
(1.07446 -0.0706865 4.09057e-21)
(1.07522 -0.0668258 1.52543e-20)
(0.955238 -0.173546 6.20541e-21)
(0.946592 -0.166226 1.1628e-20)
(0.945315 -0.177679 2.28203e-21)
(1.06007 -0.0358384 -1.66146e-20)
(1.05827 -0.0348555 -1.80504e-20)
(1.05996 -0.0337886 6.08416e-21)
(0.993878 -0.0038537 -5.20951e-21)
(1.06803 -0.168756 -2.44655e-20)
(1.07143 -0.16337 -3.76345e-21)
(1.06366 -0.162715 -1.18708e-20)
(-0.0404338 -0.00159682 2.57269e-20)
(-0.0310436 -0.00803565 -3.30189e-20)
(-0.0397683 -0.0125895 1.01104e-21)
(1.02454 -0.00966192 -3.85508e-21)
(1.02436 -0.00901553 -2.52529e-21)
(-0.218755 0.192042 -8.38999e-20)
(-0.216666 0.179022 1.54867e-19)
(-0.215984 0.187007 -7.0087e-20)
(0.999974 -0.000923236 2.0872e-21)
(1.00001 -0.000708713 3.45312e-21)
(1.00004 -0.00246908 1.26381e-21)
(1.00002 -0.00230894 5.27989e-21)
(0.999991 -0.00249007 -1.94137e-21)
(1.01183 -0.000809354 -6.1472e-23)
(1.01169 -0.00100495 1.10122e-22)
(1.01203 -0.00101115 -3.94749e-22)
(-0.0491774 0.0868908 2.78196e-20)
(0.993758 0.00136049 -5.69316e-22)
(0.993372 0.00114295 1.31328e-20)
(0.993742 0.000939884 6.4897e-21)
(1.37728 -0.213635 2.65027e-20)
(1.37948 -0.227976 2.09539e-20)
(-0.00155842 0.0245667 0)
(0.0300856 0.0277421 1.09584e-19)
(0.00347598 0.0310056 -9.75254e-20)
(1.00065 -0.00273177 -2.98751e-21)
(1.00061 -0.0027898 -5.466e-21)
(1.00071 -0.00289492 -5.04176e-21)
(0.999366 -0.00236738 4.24893e-21)
(0.999332 -0.00252768 -8.20431e-21)
(1.35284 -0.113157 2.46522e-20)
(1.36567 -0.106939 0)
(1.36948 -0.117423 0)
(1.01133 -0.000485707 7.28089e-22)
(1.01177 -0.000489576 -8.06772e-23)
(0.999943 -0.00103085 -2.81722e-22)
(0.999951 -0.00105851 0)
(0.99992 -0.0012241 5.02992e-21)
(1.01272 -0.000590874 5.48151e-23)
(1.01248 -0.000611609 1.95651e-22)
(1.01149 -0.000361944 1.57372e-22)
(-0.0121435 0.0166419 9.95007e-20)
(-0.0258795 0.019092 -1.46963e-20)
(0.602135 -0.385839 0)
(0.566533 -0.375997 5.09679e-20)
(0.9319 -0.0527337 1.09018e-21)
(0.935495 -0.0501681 2.57354e-20)
(0.936017 -0.0548607 -1.17026e-21)
(0.889566 -0.534122 -6.52809e-21)
(0.899346 -0.499788 -7.13473e-21)
(0.925954 -0.523345 1.20743e-20)
(1.15482 0.0123513 -2.18905e-20)
(1.15587 0.00687688 2.41278e-20)
(1.15035 0.00887887 3.81454e-20)
(-0.111222 0.237695 -2.95771e-20)
(-0.0501707 0.197448 -5.30331e-20)
(-0.0387828 0.19219 6.25866e-20)
(-0.0511039 0.183826 2.2495e-20)
(1.04183 -0.0234673 4.3411e-21)
(1.04339 -0.0228268 8.7627e-21)
(-0.1104 -0.170222 1.60938e-19)
(-0.0490477 -0.200667 -4.77883e-20)
(-0.168193 -0.186651 7.43966e-20)
(1.00002 -0.00067329 2.96979e-21)
(1 -0.000908985 4.1046e-21)
(1 -0.000641224 0)
(-0.14065 0.245838 4.63905e-21)
(-0.156037 0.253768 -1.18265e-21)
(0.456945 -1.04035 6.73156e-21)
(0.207962 -0.999696 -2.51778e-20)
(0.447549 -1.14125 6.9525e-20)
(-0.174189 0.097796 -1.14959e-19)
(-0.177948 0.0972296 5.35581e-20)
(-0.180661 0.105912 1.2652e-19)
(-0.022442 0.0891204 4.99711e-20)
(1.11524 0.0681714 2.97959e-20)
(1.12017 0.0740288 7.6323e-20)
(1.05831 -0.0210106 0)
(1.05994 -0.021495 -3.88306e-22)
(1.12623 -0.0641531 -6.99513e-20)
(1.12752 -0.0696223 -1.98561e-20)
(1.06437 -0.0211771 -1.2703e-20)
(1.06389 -0.0189909 -1.55639e-20)
(1.03505 -0.00451073 4.2776e-21)
(1.0354 -0.00374995 1.30385e-21)
(1.03437 -0.00379004 4.24545e-21)
(1.04474 -0.0159742 2.66628e-21)
(1.046 -0.0160856 0)
(1.04529 -0.014693 0)
(0.857217 -0.540279 -3.31824e-21)
(0.827551 -0.513228 1.68951e-21)
(0.91815 -0.064243 6.2894e-21)
(0.914878 -0.0592732 -4.30897e-20)
(0.999392 -0.00224111 -1.65585e-21)
(0.999436 -0.00229717 3.39135e-21)
(1.00001 -0.000175279 2.34649e-21)
(1 -8.50152e-05 2.46941e-21)
(1 -9.2118e-05 5.18247e-21)
(1.01412 -0.00508153 6.13623e-22)
(1.01388 -0.00526336 -1.74698e-22)
(1.01651 -0.000116154 -1.09702e-21)
(1.01632 -0.000194293 -4.8885e-22)
(1.01679 -0.000205921 -6.06358e-22)
(1.02472 -0.0101975 1.56476e-21)
(-0.0586577 0.172651 -2.71121e-20)
(-0.0543201 0.175101 3.22178e-20)
(-0.0542922 0.16851 -2.48646e-20)
(1.00467 -0.00846559 0)
(1.00498 -0.00845548 1.31344e-21)
(1.00467 -0.00811071 0)
(1.01845 -0.0221104 2.1941e-21)
(1.0176 -0.0217031 4.12333e-23)
(1.01767 -0.0227165 1.19321e-22)
(1.01623 -0.000182533 -4.16578e-22)
(1.01616 -0.000208184 8.86876e-22)
(1.01671 -0.000160206 1.96225e-22)
(1.00225 -0.00879207 3.83315e-21)
(1.00257 -0.00900855 -1.55027e-23)
(-0.0267799 -0.0595163 -6.60671e-20)
(-0.0255769 -0.0496521 4.65556e-20)
(-0.0153996 -0.0615018 -2.90575e-20)
(1.16059 -0.426289 0)
(1.17155 -0.449088 2.27553e-20)
(0.687968 0.0774327 -3.34269e-20)
(0.691832 0.0623551 -1.06793e-19)
(0.672533 0.0653564 7.55719e-21)
(0.948382 -0.0131364 -7.78925e-21)
(0.946899 -0.0149942 0)
(0.945849 -0.0119501 0)
(1.11057 0.0167361 -2.82731e-20)
(1.10819 0.0134257 9.60427e-21)
(1.01429 -5.31414e-05 -3.39084e-22)
(0.808656 0.14131 -4.91155e-21)
(0.907502 0.115086 0)
(0.830834 0.117399 0)
(-0.0445166 -0.0130656 -5.16822e-20)
(0.0199082 -0.0269142 9.86122e-20)
(0.992966 0.000477456 -2.7453e-22)
(0.993352 0.000282426 6.74945e-21)
(0.0741751 0.0350199 -5.00084e-21)
(0.0655844 0.0308377 5.15287e-20)
(1.08987 -0.00946918 2.43855e-20)
(1.08959 -0.0122824 -1.7944e-20)
(1.0872 -0.010101 -3.54818e-21)
(0.99197 -0.00108247 -1.06179e-20)
(0.991598 -0.000851531 -1.0676e-20)
(-0.10935 -0.00281458 2.63065e-20)
(0.788273 0.163389 5.36048e-21)
(0.996726 -0.00384267 5.1221e-22)
(0.996881 -0.00345363 4.40704e-21)
(1.06284 -0.175512 -1.11738e-20)
(1.07286 -0.176247 0)
(0.296778 0.454125 3.39378e-20)
(0.348325 1.09532 3.46999e-20)
(0.973771 -0.0262705 -3.56937e-21)
(0.975434 -0.0269283 3.28879e-24)
(0.975168 -0.0251106 -1.62954e-20)
(0.830174 0.0245491 8.07582e-21)
(0.83748 0.0203208 -7.50805e-22)
(0.83034 0.0158406 -4.14895e-20)
(1.01916 -0.0213409 2.11901e-21)
(0.969207 -0.025013 -1.18177e-20)
(0.970752 -0.0242805 -2.22879e-21)
(0.969164 -0.0230684 1.44369e-20)
(-0.0673554 0.222574 -7.09289e-20)
(-0.0980144 0.231215 -3.67333e-20)
(-0.0441213 0.214162 -1.45692e-20)
(0.899502 -0.181021 2.32454e-20)
(0.905192 -0.171126 2.42303e-21)
(0.891643 -0.171826 1.48263e-21)
(0.997497 -0.00840933 -4.49155e-21)
(0.997143 -0.00836124 -1.32998e-23)
(0.995721 -0.000430543 7.37815e-23)
(0.996009 -0.000508114 4.33725e-24)
(0.995774 -0.000766474 -5.35407e-21)
(0.950053 -0.0110788 -1.00573e-20)
(0.950871 -0.0140875 -1.58426e-20)
(1.09894 -0.373815 2.30707e-20)
(1.07889 -0.372255 1.92686e-20)
(1.09009 -0.355554 8.74565e-22)
(0.0780213 -0.18582 -2.72064e-20)
(0.111247 -0.20264 3.74025e-20)
(0.08236 -0.23213 1.08155e-19)
(0.991859 -0.0059886 1.2029e-21)
(0.992463 -0.00578838 -1.31364e-20)
(1.00499 -0.00772514 0)
(1.00469 -0.00773211 0)
(1.02836 -0.0153565 2.84648e-21)
(1.02853 -0.0146312 3.7028e-21)
(1.02917 -0.0154726 -1.00381e-20)
(-0.249984 0.00744795 3.64019e-20)
(-0.222075 0.000138948 -1.11354e-19)
(-0.0874294 -0.106589 -1.33117e-20)
(-0.10776 -0.105372 0)
(-0.0850087 -0.0124124 0)
(-0.0129697 -0.0165346 -5.78431e-20)
(-0.053899 -0.0156228 8.13412e-20)
(1.02781 -0.00458683 4.35323e-22)
(1.02739 -0.0049661 -4.82347e-21)
(1.02709 -0.00445109 -1.67597e-22)
(0.908778 -0.190148 0)
(0.892944 -0.192919 1.28141e-21)
(0.831393 0.0338087 2.99046e-20)
(0.822754 0.0303914 1.51442e-20)
(0.862075 -0.712832 1.43676e-20)
(0.813558 -0.736401 0)
(0.872508 -0.770667 0)
(1.14746 -0.00825589 4.30465e-20)
(1.14864 -0.00477171 1.21017e-21)
(1.15247 -0.0086237 -9.11834e-20)
(1.02877 -0.00126024 -7.82504e-22)
(1.02921 -0.00170492 3.20791e-21)
(1.02843 -0.00169937 5.25897e-21)
(1.03046 -0.00323773 1.50222e-21)
(1.03008 -0.003764 1.55933e-21)
(1.03089 -0.00382186 2.57053e-22)
(1.02818 -0.016171 3.51014e-21)
(1.02746 -0.0152737 1.2681e-21)
(1.12133 -0.0628409 1.36879e-21)
(1.12484 -0.059088 -3.52485e-20)
(0.989712 -0.0345729 3.8106e-21)
(0.991014 -0.0357095 6.98231e-21)
(0.989289 -0.0363875 -9.65917e-22)
(0.0184812 0.0071626 5.36609e-21)
(-0.00482242 0.0140371 -3.10107e-20)
(-0.048831 0.0167386 1.04853e-19)
(0.998403 -0.00207386 0)
(0.998261 -0.00192235 2.29972e-21)
(0.998246 -0.00219546 0)
(1.00874 -0.0141824 -3.15467e-22)
(1.00874 -0.0147559 2.04112e-21)
(1.00932 -0.0146164 7.86858e-22)
(-0.133602 0.299833 2.7581e-21)
(-0.152059 0.292418 1.4558e-19)
(-0.162428 0.293049 1.64841e-20)
(-0.0641489 0.168414 0)
(-0.067987 0.176339 0)
(-0.0187164 -0.00274354 -3.97245e-20)
(-0.0271714 -0.0101523 5.3224e-20)