/*--------------------------------*- C++ -*----------------------------------*\
| =========                 |                                                 |
| \\      /  F ield         | OpenFOAM: The Open Source CFD Toolbox           |
|  \\    /   O peration     | Version:  v2012                                 |
|   \\  /    A nd           | Website:  www.openfoam.com                      |
|    \\/     M anipulation  |                                                 |
\*---------------------------------------------------------------------------*/
FoamFile
{
    version     2.0;
    format      ascii;
    class       volVectorField;
    location    "500";
    object      cellDisplacement;
}
// * * * * * * * * * * * * * * * * * * * * * * * * * * * * * * * * * * * * * //

dimensions      [0 1 0 0 0 0 0];


internalField   nonuniform List<vector> 
10042
(
(0 -0.000592125 0)
(0 -0.000527672 0)
(0 -0.00064001 0)
(0 -2.95601e-05 0)
(0 9.01888e-06 0)
(0 -0.000496932 0)
(0 -4.60326e-05 0)
(0 -3.1352e-05 0)
(0 -0.000671048 0)
(0 -0.00049101 0)
(0 1.10171e-05 0)
(0 -5.65602e-05 0)
(0 -0.000415591 0)
(0 -0.000260354 0)
(0 -0.000172328 0)
(0 -0.000540643 0)
(0 -0.000551911 0)
(0 -5.96272e-05 0)
(0 -0.00059458 0)
(0 7.38499e-06 0)
(0 -0.000488554 0)
(0 -8.74535e-05 0)
(0 -0.000134981 0)
(0 -0.000500629 0)
(0 -0.0005155 0)
(0 -0.000298599 0)
(0 -0.000388472 0)
(0 -0.000264347 0)
(0 -0.000593351 0)
(0 -0.000317381 0)
(0 -0.00053059 0)
(0 1.10113e-05 0)
(0 -0.000475984 0)
(0 -0.00037727 0)
(0 -0.00024651 0)
(0 -0.00049458 0)
(0 -0.000302838 0)
(0 -0.000314038 0)
(0 -0.000470762 0)
(0 -8.84793e-05 0)
(0 7.81783e-06 0)
(0 -0.000196878 0)
(0 -5.03183e-05 0)
(0 -0.0004066 0)
(0 9.12774e-06 0)
(0 -0.000183336 0)
(0 -0.000287234 0)
(0 -0.000192267 0)
(0 -0.000288155 0)
(0 -0.000353254 0)
(0 -7.25636e-05 0)
(0 -0.000794636 0)
(0 -0.000196266 0)
(0 -0.000693251 0)
(0 -0.000296037 0)
(0 -0.000506334 0)
(0 -0.000592442 0)
(0 -0.000296934 0)
(0 -0.000387483 0)
(0 -0.000203019 0)
(0 -0.00052656 0)
(0 -0.000568925 0)
(0 -0.000233188 0)
(0 -0.000642464 0)
(0 -0.000274748 0)
(0 -0.000398018 0)
(0 -0.000336781 0)
(0 3.17521e-06 0)
(0 1.05336e-05 0)
(0 -0.000497652 0)
(0 -0.000705198 0)
(0 8.42355e-06 0)
(0 -0.000401185 0)
(0 -3.62965e-05 0)
(0 -0.000345115 0)
(0 -0.000521875 0)
(0 9.31692e-06 0)
(0 -0.000593788 0)
(0 -5.32118e-05 0)
(0 -3.58633e-05 0)
(0 -0.000298903 0)
(0 8.67036e-06 0)
(0 -0.000432986 0)
(0 -0.000225938 0)
(0 -0.000335312 0)
(0 -0.000213754 0)
(0 -0.000591749 0)
(0 -1.19686e-06 0)
(0 -0.000436089 0)
(0 -0.000594704 0)
(0 -0.000469326 0)
(0 8.75236e-06 0)
(0 -0.000256165 0)
(0 -0.000799757 0)
(0 -0.000325515 0)
(0 -0.000516521 0)
(0 -0.000614788 0)
(0 -0.000517593 0)
(0 -9.54497e-05 0)
(0 -0.000612891 0)
(0 -1.14616e-05 0)
(0 -1.18818e-05 0)
(0 -3.83429e-05 0)
(0 -0.000228411 0)
(0 -0.000269895 0)
(0 -2.28211e-05 0)
(0 -0.000563923 0)
(0 -0.00061661 0)
(0 -0.000470942 0)
(0 -0.000793833 0)
(0 -0.000154862 0)
(0 -0.00056781 0)
(0 -0.00018409 0)
(0 1.06879e-05 0)
(0 -0.000281479 0)
(0 -0.000572631 0)
(0 -0.000516959 0)
(0 -0.0005916 0)
(0 -0.000524398 0)
(0 1.08557e-05 0)
(0 -0.000442806 0)
(0 -3.51383e-05 0)
(0 -0.000398098 0)
(0 -0.000520298 0)
(0 -1.42579e-05 0)
(0 -0.000425035 0)
(0 -3.00171e-05 0)
(0 -0.000229547 0)
(0 -2.48607e-05 0)
(0 -0.000593995 0)
(0 -4.85864e-05 0)
(0 -0.000378568 0)
(0 1.09788e-05 0)
(0 -3.75167e-05 0)
(0 -0.000612184 0)
(0 -3.21944e-05 0)
(0 1.09661e-05 0)
(0 -0.000457243 0)
(0 -0.000180049 0)
(0 3.95548e-07 0)
(0 -0.000246984 0)
(0 -0.000511451 0)
(0 -0.000278761 0)
(0 -1.19097e-05 0)
(0 -0.000816511 0)
(0 -0.000572666 0)
(0 -4.48354e-05 0)
(0 -0.000852586 0)
(0 -0.00050669 0)
(0 -0.000160705 0)
(0 -0.000679284 0)
(0 -2.49595e-05 0)
(0 -1.47688e-05 0)
(0 1.08736e-05 0)
(0 -0.000285212 0)
(0 -0.000386415 0)
(0 -0.000206047 0)
(0 -0.000569941 0)
(0 -2.83942e-05 0)
(0 1.09835e-05 0)
(0 1.10106e-05 0)
(0 -4.64061e-05 0)
(0 -0.000548708 0)
(0 -0.000671529 0)
(0 -0.000414004 0)
(0 -0.00038894 0)
(0 -6.42214e-06 0)
(0 1.09462e-05 0)
(0 1.10142e-05 0)
(0 1.08173e-05 0)
(0 -0.00069431 0)
(0 -0.00061935 0)
(0 8.40184e-06 0)
(0 8.33708e-06 0)
(0 -2.64274e-05 0)
(0 -8.85424e-05 0)
(0 1.09084e-05 0)
(0 -0.0004017 0)
(0 4.46618e-06 0)
(0 -0.000114417 0)
(0 -0.000195567 0)
(0 1.09999e-05 0)
(0 -0.000326238 0)
(0 -0.000229228 0)
(0 -0.000204909 0)
(0 1.08262e-05 0)
(0 -2.08266e-05 0)
(0 -0.000435463 0)
(0 1.09868e-05 0)
(0 -0.000341544 0)
(0 1.08643e-05 0)
(0 -0.000273212 0)
(0 -1.75255e-05 0)
(0 7.86838e-06 0)
(0 -8.4385e-05 0)
(0 5.52091e-06 0)
(0 -0.000354686 0)
(0 -0.000575965 0)
(0 -0.000350412 0)
(0 -0.000265812 0)
(0 -2.65915e-05 0)
(0 -0.000430054 0)
(0 -0.000574551 0)
(0 8.40552e-06 0)
(0 -0.000324215 0)
(0 -0.00066846 0)
(0 1.0904e-05 0)
(0 -0.000353651 0)
(0 -6.88346e-05 0)
(0 -0.000155952 0)
(0 4.53913e-06 0)
(0 -0.000110448 0)
(0 -8.28021e-06 0)
(0 7.9022e-06 0)
(0 -0.000214969 0)
(0 -1.77549e-05 0)
(0 -0.000376717 0)
(0 -0.000574939 0)
(0 -4.55609e-05 0)
(0 -0.000627301 0)
(0 -0.000181744 0)
(0 -0.000201804 0)
(0 7.31268e-06 0)
(0 -0.000305523 0)
(0 -0.000114538 0)
(0 -0.000296607 0)
(0 -2.94912e-05 0)
(0 -0.000572819 0)
(0 -2.70093e-05 0)
(0 -0.00070345 0)
(0 -0.000676838 0)
(0 7.15432e-06 0)
(0 -0.000618533 0)
(0 -0.000714247 0)
(0 -0.000629052 0)
(0 -0.000155894 0)
(0 -0.000651749 0)
(0 -0.000227629 0)
(0 -0.000464713 0)
(0 -0.000592296 0)
(0 -0.000544189 0)
(0 -0.000392057 0)
(0 -0.000427939 0)
(0 -0.000174337 0)
(0 -0.00058028 0)
(0 -0.000531059 0)
(0 -0.000157206 0)
(0 -0.000260989 0)
(0 -0.000698897 0)
(0 -4.61195e-05 0)
(0 -0.000253686 0)
(0 -0.00050946 0)
(0 -0.000170972 0)
(0 7.94919e-06 0)
(0 -4.39238e-05 0)
(0 1.10065e-05 0)
(0 -2.29302e-05 0)
(0 -3.03539e-05 0)
(0 -0.000164195 0)
(0 -0.00016295 0)
(0 -7.31536e-05 0)
(0 -0.000476381 0)
(0 -0.000565855 0)
(0 -0.00022003 0)
(0 -0.000269984 0)
(0 -0.000650881 0)
(0 -8.61226e-05 0)
(0 -0.000584027 0)
(0 -0.000590812 0)
(0 -0.000136021 0)
(0 -2.34438e-05 0)
(0 -0.000690056 0)
(0 7.42776e-06 0)
(0 -2.67673e-05 0)
(0 -2.03619e-06 0)
(0 -0.000328402 0)
(0 -0.000603458 0)
(0 -0.000645235 0)
(0 -0.000454138 0)
(0 -0.000802555 0)
(0 -0.00010738 0)
(0 -0.000474441 0)
(0 -0.000291474 0)
(0 1.09347e-05 0)
(0 -0.000665632 0)
(0 -0.00062421 0)
(0 -6.89322e-05 0)
(0 -0.000171421 0)
(0 -0.000448198 0)
(0 -0.000521717 0)
(0 -0.000181871 0)
(0 -9.57171e-05 0)
(0 -9.99386e-05 0)
(0 -1.11138e-05 0)
(0 -6.14687e-05 0)
(0 -0.000320865 0)
(0 -0.000568157 0)
(0 -0.000660254 0)
(0 -3.20076e-05 0)
(0 -0.000537706 0)
(0 -0.000533384 0)
(0 -0.000622159 0)
(0 -0.00037437 0)
(0 -0.000339623 0)
(0 -0.000167662 0)
(0 -1.11672e-05 0)
(0 7.61574e-06 0)
(0 -0.000215147 0)
(0 -1.71023e-06 0)
(0 -0.000591175 0)
(0 -0.000463664 0)
(0 -0.000409431 0)
(0 1.10138e-05 0)
(0 -1.66536e-05 0)
(0 7.08877e-06 0)
(0 1.09424e-05 0)
(0 -0.00054942 0)
(0 -0.000585494 0)
(0 -0.000490024 0)
(0 -0.000170148 0)
(0 -0.000289027 0)
(0 -0.000135006 0)
(0 -9.22746e-05 0)
(0 -0.000160504 0)
(0 -0.000183473 0)
(0 -0.000395887 0)
(0 -8.94372e-06 0)
(0 -4.23329e-05 0)
(0 -0.000353324 0)
(0 -0.000398965 0)
(0 -0.000176628 0)
(0 1.08293e-05 0)
(0 -0.000583906 0)
(0 -0.000311901 0)
(0 -0.000196605 0)
(0 -0.00065627 0)
(0 -5.33882e-05 0)
(0 -8.4802e-05 0)
(0 -3.07708e-05 0)
(0 -4.74271e-06 0)
(0 -0.000328548 0)
(0 -0.000240447 0)
(0 -0.000388449 0)
(0 -0.00026356 0)
(0 -0.000473328 0)
(0 -4.94985e-05 0)
(0 -1.09835e-05 0)
(0 -0.000471985 0)
(0 -0.000387873 0)
(0 -0.000236372 0)
(0 -0.000568379 0)
(0 -0.000157952 0)
(0 -0.000216862 0)
(0 -0.000224304 0)
(0 -0.00071414 0)
(0 -0.000121485 0)
(0 -2.89787e-05 0)
(0 -9.38587e-05 0)
(0 -0.000283496 0)
(0 -0.000562396 0)
(0 -3.27365e-06 0)
(0 -4.34853e-05 0)
(0 -0.00060814 0)
(0 -5.83229e-05 0)
(0 -0.000602921 0)
(0 -0.000615451 0)
(0 -0.000600965 0)
(0 -0.000151971 0)
(0 6.17041e-06 0)
(0 -0.000602173 0)
(0 -0.000115108 0)
(0 -0.00022268 0)
(0 -1.28682e-05 0)
(0 -8.12043e-05 0)
(0 7.5879e-06 0)
(0 -0.000572493 0)
(0 -0.000728871 0)
(0 1.09417e-05 0)
(0 -0.000548352 0)
(0 -4.10322e-05 0)
(0 -1.15964e-05 0)
(0 -3.47493e-05 0)
(0 -0.000104693 0)
(0 1.10094e-05 0)
(0 -0.000113027 0)
(0 7.44553e-06 0)
(0 -0.000347043 0)
(0 -0.000335796 0)
(0 -2.53224e-05 0)
(0 -0.000306479 0)
(0 -0.000185975 0)
(0 -0.000481662 0)
(0 -0.000160263 0)
(0 1.10023e-05 0)
(0 -9.78765e-05 0)
(0 -0.000501535 0)
(0 -5.40378e-06 0)
(0 1.07467e-05 0)
(0 -0.000410154 0)
(0 -0.000833895 0)
(0 1.10105e-05 0)
(0 -1.40281e-05 0)
(0 -0.000620963 0)
(0 2.6704e-06 0)
(0 1.09738e-05 0)
(0 -0.00062855 0)
(0 -8.24317e-05 0)
(0 -0.000691788 0)
(0 -0.000589907 0)
(0 -0.000212791 0)
(0 -0.000666765 0)
(0 -3.18727e-06 0)
(0 -3.51403e-05 0)
(0 -0.000296951 0)
(0 7.17443e-06 0)
(0 -0.000220787 0)
(0 -0.00054485 0)
(0 5.60597e-06 0)
(0 -0.000647475 0)
(0 -3.73001e-05 0)
(0 -9.41313e-05 0)
(0 -0.000223319 0)
(0 -0.000758328 0)
(0 -0.000824954 0)
(0 3.36535e-06 0)
(0 -0.000687525 0)
(0 -0.000107892 0)
(0 -0.000306897 0)
(0 1.10015e-05 0)
(0 -0.000225676 0)
(0 7.71614e-06 0)
(0 -0.000182451 0)
(0 -0.000567247 0)
(0 -0.000568243 0)
(0 7.77549e-06 0)
(0 -0.000563863 0)
(0 -9.20215e-05 0)
(0 -0.00053278 0)
(0 -0.000718484 0)
(0 1.09949e-05 0)
(0 -0.000333961 0)
(0 -0.000519679 0)
(0 -0.00010376 0)
(0 1.10125e-05 0)
(0 -0.000592238 0)
(0 -0.000320537 0)
(0 -0.000262701 0)
(0 -0.000647285 0)
(0 6.40948e-06 0)
(0 -9.65814e-05 0)
(0 -0.000536727 0)
(0 -0.000295674 0)
(0 -0.000585568 0)
(0 -0.000283951 0)
(0 -0.000567048 0)
(0 -0.000505857 0)
(0 1.10085e-05 0)
(0 -0.000507119 0)
(0 -0.000132826 0)
(0 -8.58708e-05 0)
(0 -4.3034e-05 0)
(0 -5.55538e-05 0)
(0 -5.33492e-05 0)
(0 -0.000123115 0)
(0 1.09257e-05 0)
(0 -0.00033336 0)
(0 -0.000484163 0)
(0 -0.000565522 0)
(0 -3.49179e-05 0)
(0 -0.000618013 0)
(0 -0.000557225 0)
(0 -5.82058e-05 0)
(0 -0.000653672 0)
(0 -0.000663438 0)
(0 -0.000192721 0)
(0 -0.000616562 0)
(0 -3.17382e-05 0)
(0 -0.000557733 0)
(0 -0.000566218 0)
(0 1.10274e-05 0)
(0 -0.000452915 0)
(0 -0.000711515 0)
(0 -0.000470813 0)
(0 -0.000320715 0)
(0 -9.91411e-05 0)
(0 -0.000530121 0)
(0 -0.000660639 0)
(0 6.952e-06 0)
(0 -0.00029492 0)
(0 -1.38444e-05 0)
(0 -0.000471441 0)
(0 -2.36579e-05 0)
(0 -1.81111e-05 0)
(0 -7.35926e-06 0)
(0 -0.000486931 0)
(0 -0.000516576 0)
(0 -0.000232274 0)
(0 -0.000614254 0)
(0 -8.82166e-05 0)
(0 -3.72965e-05 0)
(0 -0.000589404 0)
(0 -3.16127e-05 0)
(0 1.09679e-05 0)
(0 -0.000343087 0)
(0 -7.79732e-05 0)
(0 -0.000528514 0)
(0 -0.000719845 0)
(0 -0.000231315 0)
(0 -0.000596175 0)
(0 1.05223e-05 0)
(0 1.09921e-05 0)
(0 -0.000464402 0)
(0 -0.000238062 0)
(0 -0.000428 0)
(0 -0.000438902 0)
(0 -0.000333786 0)
(0 -0.000167666 0)
(0 -4.91534e-05 0)
(0 2.57095e-06 0)
(0 1.09028e-05 0)
(0 -0.000751407 0)
(0 -0.000705196 0)
(0 -0.000652023 0)
(0 -0.000556932 0)
(0 1.05942e-05 0)
(0 -0.000101592 0)
(0 -0.00060578 0)
(0 -0.000548533 0)
(0 -8.9693e-05 0)
(0 -0.000352034 0)
(0 -4.37825e-05 0)
(0 -0.000339851 0)
(0 -0.000374077 0)
(0 1.10165e-05 0)
(0 1.06472e-05 0)
(0 8.75904e-06 0)
(0 -2.33788e-05 0)
(0 -0.000556857 0)
(0 -0.000601062 0)
(0 -0.000368789 0)
(0 -5.45871e-05 0)
(0 9.91903e-06 0)
(0 1.09019e-05 0)
(0 -0.000128952 0)
(0 -8.64927e-05 0)
(0 -0.000204852 0)
(0 -0.000368078 0)
(0 -0.000302279 0)
(0 -0.000222196 0)
(0 1.10089e-05 0)
(0 -0.000179584 0)
(0 -0.000594497 0)
(0 -0.000212158 0)
(0 -0.000215728 0)
(0 -0.000111435 0)
(0 -0.000483158 0)
(0 -8.61096e-05 0)
(0 -0.000103838 0)
(0 -0.000152317 0)
(0 -0.000556914 0)
(0 -0.000249438 0)
(0 -0.000466091 0)
(0 -2.62209e-05 0)
(0 2.85266e-07 0)
(0 -4.73445e-05 0)
(0 -0.000365143 0)
(0 -0.000319376 0)
(0 -0.000516768 0)
(0 -0.000325028 0)
(0 -0.00046044 0)
(0 -0.000496337 0)
(0 -0.000121859 0)
(0 -5.90781e-05 0)
(0 -1.59922e-05 0)
(0 -0.000362443 0)
(0 -0.000281636 0)
(0 -0.00021277 0)
(0 -0.000523515 0)
(0 7.17227e-06 0)
(0 -0.000446335 0)
(0 -0.000256367 0)
(0 -9.38936e-05 0)
(0 -0.000599825 0)
(0 -4.96141e-05 0)
(0 -0.000331993 0)
(0 -0.000522793 0)
(0 1.08573e-05 0)
(0 -0.000199486 0)
(0 -0.000223144 0)
(0 -1.38338e-05 0)
(0 -0.000621616 0)
(0 -5.71734e-05 0)
(0 -0.000394264 0)
(0 -0.000532004 0)
(0 -2.06067e-05 0)
(0 -0.000313033 0)
(0 -0.000341038 0)
(0 1.0479e-05 0)
(0 -0.000251456 0)
(0 -0.000533816 0)
(0 -0.000419799 0)
(0 -9.64418e-05 0)
(0 -0.000227878 0)
(0 -0.000515753 0)
(0 -0.000511399 0)
(0 -0.000600296 0)
(0 -0.000330542 0)
(0 -0.000405887 0)
(0 -9.79421e-05 0)
(0 -0.000731747 0)
(0 -0.000175235 0)
(0 -0.000805653 0)
(0 -0.000604947 0)
(0 5.75449e-06 0)
(0 -0.000686733 0)
(0 6.36615e-06 0)
(0 -0.000509317 0)
(0 -0.00059173 0)
(0 -0.000446608 0)
(0 -0.000264352 0)
(0 -0.00045567 0)
(0 -0.000187183 0)
(0 -0.000458926 0)
(0 -1.58307e-05 0)
(0 -0.000102104 0)
(0 -5.68166e-05 0)
(0 -0.000861599 0)
(0 -0.000182818 0)
(0 -7.90474e-05 0)
(0 -0.000366801 0)
(0 -0.000596407 0)
(0 -0.000309396 0)
(0 -0.000503042 0)
(0 7.50952e-06 0)
(0 1.09597e-05 0)
(0 -0.000119203 0)
(0 -0.000441466 0)
(0 -3.48705e-05 0)
(0 -0.000576749 0)
(0 -3.44803e-05 0)
(0 -0.000189893 0)
(0 -0.000470386 0)
(0 -6.34396e-05 0)
(0 1.78861e-06 0)
(0 9.51996e-06 0)
(0 -0.000346539 0)
(0 8.76279e-06 0)
(0 -0.000238243 0)
(0 -0.000371791 0)
(0 -0.00016613 0)
(0 -0.000477703 0)
(0 -0.000323113 0)
(0 -0.000473318 0)
(0 -0.000528802 0)
(0 -0.000295973 0)
(0 -4.59625e-05 0)
(0 -2.1189e-05 0)
(0 -0.000521158 0)
(0 -0.000502698 0)
(0 7.76461e-06 0)
(0 -0.00019302 0)
(0 -0.000130932 0)
(0 -0.000382415 0)
(0 -0.000129567 0)
(0 -3.98868e-05 0)
(0 -0.000553737 0)
(0 -0.00062173 0)
(0 -0.000322301 0)
(0 -0.000643176 0)
(0 1.10115e-05 0)
(0 -0.00019003 0)
(0 8.357e-06 0)
(0 -9.2729e-05 0)
(0 9.43203e-06 0)
(0 1.08832e-05 0)
(0 -1.47953e-05 0)
(0 -0.000470352 0)
(0 -0.000164619 0)
(0 -3.05306e-05 0)
(0 -3.55148e-05 0)
(0 -0.000397428 0)
(0 -0.000523886 0)
(0 -5.345e-05 0)
(0 1.10282e-05 0)
(0 -0.000579019 0)
(0 -7.91147e-05 0)
(0 -1.65394e-06 0)
(0 -0.000552697 0)
(0 -0.000610108 0)
(0 -0.000507546 0)
(0 -0.000238939 0)
(0 -0.000598135 0)
(0 -0.000714642 0)
(0 -7.53011e-06 0)
(0 5.94322e-06 0)
(0 -0.000721521 0)
(0 -0.000566843 0)
(0 1.09939e-05 0)
(0 -1.98479e-05 0)
(0 -0.000571189 0)
(0 -0.000489479 0)
(0 -8.54921e-05 0)
(0 -0.00058728 0)
(0 6.34758e-06 0)
(0 -0.000198686 0)
(0 7.78415e-06 0)
(0 -0.000265129 0)
(0 -0.000613287 0)
(0 -0.000699681 0)
(0 -0.000187449 0)
(0 -0.000515336 0)
(0 -0.000292574 0)
(0 -0.000235249 0)
(0 8.21043e-06 0)
(0 -0.000568199 0)
(0 -0.000386292 0)
(0 -4.49216e-05 0)
(0 -0.000586735 0)
(0 -0.00042428 0)
(0 -1.43343e-06 0)
(0 -0.000566117 0)
(0 1.09982e-05 0)
(0 8.60737e-06 0)
(0 -0.000365665 0)
(0 -0.00059185 0)
(0 -2.22745e-06 0)
(0 1.10349e-05 0)
(0 -4.679e-05 0)
(0 -0.00063043 0)
(0 -2.54343e-05 0)
(0 8.40997e-06 0)
(0 -9.69014e-05 0)
(0 -0.000407613 0)
(0 -0.000175134 0)
(0 -0.000465848 0)
(0 7.70748e-06 0)
(0 -0.000443239 0)
(0 5.24586e-06 0)
(0 -6.11662e-05 0)
(0 1.07895e-05 0)
(0 5.43068e-06 0)
(0 -0.000525075 0)
(0 -0.00058123 0)
(0 6.84098e-06 0)
(0 -0.000368735 0)
(0 -0.000454646 0)
(0 -0.000156401 0)
(0 1.07722e-05 0)
(0 8.44601e-06 0)
(0 5.05249e-06 0)
(0 -0.000716815 0)
(0 -0.000151523 0)
(0 -4.01009e-05 0)
(0 -0.000461471 0)
(0 -6.19039e-05 0)
(0 -0.000268563 0)
(0 7.24385e-06 0)
(0 -0.000188425 0)
(0 -0.000537179 0)
(0 -0.000158069 0)
(0 -0.000346538 0)
(0 -4.60998e-05 0)
(0 -0.000112767 0)
(0 -0.000438255 0)
(0 -0.000140618 0)
(0 -0.000341137 0)
(0 -4.27152e-05 0)
(0 -0.000205885 0)
(0 -0.000515895 0)
(0 -0.000173885 0)
(0 -7.83278e-06 0)
(0 9.83518e-06 0)
(0 -0.000219646 0)
(0 -4.05256e-05 0)
(0 -1.9171e-05 0)
(0 -1.66939e-05 0)
(0 -0.000211335 0)
(0 1.10117e-05 0)
(0 1.09873e-05 0)
(0 -0.000557709 0)
(0 -0.000415742 0)
(0 -0.000255713 0)
(0 -0.000171525 0)
(0 5.63238e-06 0)
(0 -0.000258787 0)
(0 -0.00030827 0)
(0 -0.000196849 0)
(0 -1.67383e-05 0)
(0 -3.90707e-05 0)
(0 -0.000733294 0)
(0 -0.00027105 0)
(0 -0.000494167 0)
(0 -5.86971e-05 0)
(0 -0.000459619 0)
(0 -6.81331e-05 0)
(0 -0.00033952 0)
(0 -0.000246911 0)
(0 -0.000238924 0)
(0 -0.000642802 0)
(0 1.06254e-05 0)
(0 -0.000619821 0)
(0 -0.000258158 0)
(0 -0.000496081 0)
(0 -0.00031834 0)
(0 -1.01711e-05 0)
(0 -0.00023359 0)
(0 -0.00021636 0)
(0 -0.000474163 0)
(0 -0.000364704 0)
(0 1.05076e-05 0)
(0 -1.5153e-05 0)
(0 9.48803e-06 0)
(0 -0.000191013 0)
(0 7.06336e-06 0)
(0 -0.000135296 0)
(0 -0.00027163 0)
(0 -0.000356068 0)
(0 -3.87071e-05 0)
(0 -4.57645e-06 0)
(0 -0.000239599 0)
(0 8.87282e-06 0)
(0 -6.51513e-05 0)
(0 -0.000238977 0)
(0 -8.25149e-05 0)
(0 -1.58402e-05 0)
(0 -0.000454755 0)
(0 -0.000117521 0)
(0 -0.000635164 0)
(0 -0.000132804 0)
(0 -0.000103841 0)
(0 -2.1605e-06 0)
(0 -2.07926e-05 0)
(0 -7.98507e-07 0)
(0 -0.000112319 0)
(0 -5.04753e-05 0)
(0 -5.14342e-05 0)
(0 -0.000202491 0)
(0 7.06599e-06 0)
(0 -0.000491179 0)
(0 1.03128e-05 0)
(0 -0.000584802 0)
(0 -0.000203872 0)
(0 -4.15643e-05 0)
(0 -1.93067e-06 0)
(0 -0.000375569 0)
(0 1.07137e-05 0)
(0 -6.38154e-05 0)
(0 -0.000580096 0)
(0 -0.000305183 0)
(0 -0.000386311 0)
(0 -0.000477319 0)
(0 -9.28884e-05 0)
(0 -1.83075e-05 0)
(0 -0.000397372 0)
(0 1.10159e-05 0)
(0 -0.000337748 0)
(0 1.09606e-05 0)
(0 -0.000596334 0)
(0 -0.000615619 0)
(0 -4.11026e-05 0)
(0 -0.000226522 0)
(0 8.32834e-06 0)
(0 -0.000582263 0)
(0 -8.48587e-05 0)
(0 -9.94084e-06 0)
(0 -0.000252657 0)
(0 -1.35423e-05 0)
(0 -2.71026e-05 0)
(0 -0.000397428 0)
(0 -2.51501e-05 0)
(0 8.58633e-06 0)
(0 -0.000397256 0)
(0 -0.000496187 0)
(0 -0.000628346 0)
(0 -0.000126885 0)
(0 -0.000605945 0)
(0 -0.000573857 0)
(0 -0.00040686 0)
(0 -0.000616514 0)
(0 -0.000360895 0)
(0 -0.000227129 0)
(0 -0.000151588 0)
(0 -5.66692e-05 0)
(0 -0.00051158 0)
(0 6.043e-06 0)
(0 -0.000434476 0)
(0 9.09625e-06 0)
(0 -2.62702e-05 0)
(0 1.04703e-05 0)
(0 -0.000123492 0)
(0 -0.000588371 0)
(0 1.1012e-05 0)
(0 -0.00021619 0)
(0 8.29144e-06 0)
(0 -1.42566e-05 0)
(0 -6.39968e-05 0)
(0 -0.000214893 0)
(0 -0.000621461 0)
(0 -0.00026137 0)
(0 -9.7215e-06 0)
(0 -0.000504735 0)
(0 1.07813e-05 0)
(0 -0.000507841 0)
(0 1.08914e-05 0)
(0 -6.11686e-05 0)
(0 -0.00040132 0)
(0 -0.000477969 0)
(0 1.08815e-05 0)
(0 1.07863e-05 0)
(0 -0.000165588 0)
(0 -0.000524063 0)
(0 -0.000101913 0)
(0 -0.000503362 0)
(0 -0.000390233 0)
(0 -0.000136314 0)
(0 -2.83147e-05 0)
(0 -0.000196381 0)
(0 -0.000463365 0)
(0 -0.000509699 0)
(0 -0.000237989 0)
(0 7.52968e-06 0)
(0 -0.000351046 0)
(0 -0.000355575 0)
(0 -0.00020353 0)
(0 -5.68461e-05 0)
(0 -0.000298459 0)
(0 -0.00053806 0)
(0 1.08501e-05 0)
(0 -0.000313142 0)
(0 -0.000538059 0)
(0 1.09665e-05 0)
(0 -0.000188504 0)
(0 -0.000384347 0)
(0 1.10148e-05 0)
(0 -8.07417e-05 0)
(0 1.07705e-05 0)
(0 -0.000527949 0)
(0 -0.000208252 0)
(0 -1.29854e-05 0)
(0 -0.000632605 0)
(0 -0.000538289 0)
(0 -4.14308e-05 0)
(0 -0.000513678 0)
(0 -0.000530378 0)
(0 -0.000104133 0)
(0 -0.000710979 0)
(0 -7.80248e-06 0)
(0 7.83586e-06 0)
(0 -0.000625752 0)
(0 -0.000423417 0)
(0 -0.000445523 0)
(0 -0.000557706 0)
(0 -0.000269336 0)
(0 -0.00039104 0)
(0 -3.46275e-05 0)
(0 -9.9187e-05 0)
(0 -0.000432098 0)
(0 -0.000565167 0)
(0 -0.000624596 0)
(0 -0.000475626 0)
(0 -0.000412971 0)
(0 1.0731e-05 0)
(0 -0.000315439 0)
(0 -0.000844542 0)
(0 -0.000565348 0)
(0 -1.58149e-05 0)
(0 -1.08485e-06 0)
(0 -0.000495494 0)
(0 -0.000459472 0)
(0 -0.000502942 0)
(0 -0.000815154 0)
(0 8.51701e-06 0)
(0 -0.000384253 0)
(0 -0.000101586 0)
(0 -8.8534e-05 0)
(0 -0.00023505 0)
(0 2.3804e-06 0)
(0 -0.000302341 0)
(0 -4.69768e-05 0)
(0 -0.000155675 0)
(0 -0.000542843 0)
(0 -0.000436933 0)
(0 -0.000293015 0)
(0 -5.8551e-05 0)
(0 -9.46761e-05 0)
(0 -0.00049198 0)
(0 -0.00022702 0)
(0 8.65674e-06 0)
(0 -8.57693e-05 0)
(0 -8.84081e-05 0)
(0 -0.000188109 0)
(0 -1.33726e-05 0)
(0 -6.53109e-05 0)
(0 -0.000733652 0)
(0 -0.000359329 0)
(0 -0.000211881 0)
(0 -0.000509618 0)
(0 -0.00082216 0)
(0 -0.000141855 0)
(0 -0.000607859 0)
(0 6.2231e-06 0)
(0 2.57541e-06 0)
(0 -0.000160001 0)
(0 -0.000488638 0)
(0 -0.000216032 0)
(0 -9.57641e-05 0)
(0 -0.000422125 0)
(0 -0.000422133 0)
(0 -4.40559e-05 0)
(0 -0.000199912 0)
(0 -0.000472467 0)
(0 -0.000527865 0)
(0 8.53366e-06 0)
(0 4.34639e-06 0)
(0 -0.000101024 0)
(0 -0.000405502 0)
(0 -9.00316e-05 0)
(0 -0.000695848 0)
(0 -0.000413314 0)
(0 -0.000486249 0)
(0 -9.76948e-05 0)
(0 -0.000352734 0)
(0 -0.000428299 0)
(0 1.10352e-05 0)
(0 -0.000329033 0)
(0 -0.00032177 0)
(0 -2.25173e-05 0)
(0 -0.000552446 0)
(0 7.17364e-06 0)
(0 -6.14238e-05 0)
(0 -0.000284623 0)
(0 -3.39568e-05 0)
(0 -0.000397838 0)
(0 -0.000389722 0)
(0 -0.000738507 0)
(0 -0.000385413 0)
(0 8.72026e-06 0)
(0 -0.000572936 0)
(0 -0.000270911 0)
(0 8.53433e-06 0)
(0 -0.000112603 0)
(0 -5.05866e-05 0)
(0 1.04208e-05 0)
(0 -3.16944e-05 0)
(0 -0.000180033 0)
(0 4.62659e-06 0)
(0 -0.000714003 0)
(0 5.53595e-06 0)
(0 -0.000328245 0)
(0 -0.000436271 0)
(0 -0.000136335 0)
(0 1.10151e-05 0)
(0 -0.00020283 0)
(0 -0.000294153 0)
(0 -0.000324965 0)
(0 -0.000270862 0)
(0 -2.2158e-05 0)
(0 -0.000109369 0)
(0 -5.98827e-05 0)
(0 -0.000476304 0)
(0 -0.000288545 0)
(0 -0.000115925 0)
(0 -0.00014869 0)
(0 -0.000611762 0)
(0 -0.000242022 0)
(0 -0.000542461 0)
(0 -1.46589e-05 0)
(0 1.09182e-05 0)
(0 -0.000385379 0)
(0 -0.00018418 0)
(0 -0.000192225 0)
(0 -0.000148635 0)
(0 -0.000352279 0)
(0 1.10436e-05 0)
(0 -0.0005071 0)
(0 -0.000627694 0)
(0 -0.000122844 0)
(0 -0.00040186 0)
(0 -0.00038211 0)
(0 -2.52739e-05 0)
(0 -0.000562733 0)
(0 -0.000338905 0)
(0 -2.35071e-05 0)
(0 -0.000100257 0)
(0 -0.000530085 0)
(0 -0.000364743 0)
(0 -0.00051248 0)
(0 -3.25342e-05 0)
(0 -0.000635695 0)
(0 -9.09925e-05 0)
(0 -0.000320409 0)
(0 -0.00039538 0)
(0 -0.0001634 0)
(0 -0.000442957 0)
(0 -1.93111e-05 0)
(0 -0.000540926 0)
(0 -0.000103026 0)
(0 -0.00064896 0)
(0 -3.61013e-06 0)
(0 -0.000307578 0)
(0 2.20762e-06 0)
(0 -0.00033707 0)
(0 -0.000529019 0)
(0 -0.000810231 0)
(0 -0.000329367 0)
(0 -4.7167e-05 0)
(0 -0.000620402 0)
(0 -0.000369742 0)
(0 -0.000111959 0)
(0 -0.000279426 0)
(0 -0.000625114 0)
(0 -0.000236853 0)
(0 -3.95579e-05 0)
(0 1.10163e-05 0)
(0 7.54551e-06 0)
(0 -0.000177034 0)
(0 1.10226e-05 0)
(0 -0.00017552 0)
(0 -0.000283782 0)
(0 -5.11372e-05 0)
(0 -4.20511e-05 0)
(0 -0.000440159 0)
(0 1.1009e-05 0)
(0 -0.000495434 0)
(0 -0.000104244 0)
(0 -0.000530552 0)
(0 -0.000364304 0)
(0 -0.000524667 0)
(0 -0.000395955 0)
(0 -0.000299901 0)
(0 -0.000613937 0)
(0 8.86083e-06 0)
(0 -0.000425376 0)
(0 -0.000386558 0)
(0 -8.14878e-06 0)
(0 -0.000562115 0)
(0 -0.000202271 0)
(0 -0.000582902 0)
(0 -0.000153314 0)
(0 -0.000508515 0)
(0 -1.68186e-05 0)
(0 -0.000221853 0)
(0 -0.000463977 0)
(0 -0.000288391 0)
(0 1.06673e-05 0)
(0 -1.22637e-05 0)
(0 -0.000691298 0)
(0 -0.000484662 0)
(0 -0.000474516 0)
(0 -0.000596007 0)
(0 7.36715e-06 0)
(0 -0.00062165 0)
(0 -0.000472362 0)
(0 -0.000126471 0)
(0 -0.000435872 0)
(0 -0.00043911 0)
(0 -0.000624836 0)
(0 -0.00057186 0)
(0 -5.27892e-05 0)
(0 -0.000538551 0)
(0 -0.000663829 0)
(0 -0.00023612 0)
(0 -0.00051973 0)
(0 -0.000864514 0)
(0 -3.5203e-05 0)
(0 8.20081e-06 0)
(0 -0.000329678 0)
(0 -0.000371931 0)
(0 -0.000751993 0)
(0 -0.00014859 0)
(0 -0.000248858 0)
(0 -0.0002015 0)
(0 -0.000490463 0)
(0 -4.9609e-05 0)
(0 -0.000266267 0)
(0 -0.000500383 0)
(0 -0.000291763 0)
(0 -0.000444894 0)
(0 -0.000488442 0)
(0 3.12071e-06 0)
(0 -6.9923e-05 0)
(0 -0.000148966 0)
(0 -0.000162355 0)
(0 -6.48249e-05 0)
(0 -0.000103636 0)
(0 -7.48304e-05 0)
(0 -6.89252e-05 0)
(0 -0.000210656 0)
(0 -3.96226e-06 0)
(0 -0.000404781 0)
(0 -0.000458509 0)
(0 -0.000431976 0)
(0 -3.63725e-05 0)
(0 -4.22247e-05 0)
(0 -7.22853e-05 0)
(0 6.38539e-06 0)
(0 1.10056e-05 0)
(0 -8.63827e-06 0)
(0 -0.000404836 0)
(0 -0.000240327 0)
(0 -4.50858e-05 0)
(0 -0.0007283 0)
(0 4.26811e-06 0)
(0 -2.47384e-05 0)
(0 8.33905e-06 0)
(0 -0.000221704 0)
(0 1.07877e-05 0)
(0 -0.000100228 0)
(0 -8.51262e-05 0)
(0 6.60759e-06 0)
(0 -0.000118633 0)
(0 -0.00050028 0)
(0 -0.000179197 0)
(0 -0.000597134 0)
(0 7.636e-06 0)
(0 -0.000390019 0)
(0 -6.47952e-05 0)
(0 -0.00062191 0)
(0 -0.000150478 0)
(0 -0.000531334 0)
(0 1.09501e-05 0)
(0 7.14953e-06 0)
(0 -0.000167348 0)
(0 1.09988e-05 0)
(0 6.68248e-06 0)
(0 -0.000138906 0)
(0 -0.000127782 0)
(0 -4.9813e-05 0)
(0 -0.000659048 0)
(0 1.06708e-05 0)
(0 -0.000426336 0)
(0 -4.44993e-06 0)
(0 1.10221e-05 0)
(0 -0.000178698 0)
(0 -0.000479331 0)
(0 -0.000479979 0)
(0 -0.000185209 0)
(0 -0.000484854 0)
(0 -0.000141903 0)
(0 -4.55135e-05 0)
(0 -0.000321755 0)
(0 -0.000538149 0)
(0 -0.000237606 0)
(0 -0.000480191 0)
(0 -0.000301571 0)
(0 -0.000136344 0)
(0 -0.000621857 0)
(0 -0.000508011 0)
(0 -0.000210432 0)
(0 -6.22911e-05 0)
(0 -0.000534739 0)
(0 -1.77815e-05 0)
(0 -0.000582982 0)
(0 -7.47551e-05 0)
(0 -0.000154296 0)
(0 -1.07846e-05 0)
(0 -0.000506962 0)
(0 -0.000626163 0)
(0 -5.02365e-05 0)
(0 -7.37514e-07 0)
(0 -0.00062983 0)
(0 -0.000211416 0)
(0 3.23919e-06 0)
(0 -9.77878e-05 0)
(0 1.09128e-05 0)
(0 -0.000626403 0)
(0 -0.000118027 0)
(0 1.03389e-05 0)
(0 8.38168e-06 0)
(0 -0.00046088 0)
(0 -0.00046699 0)
(0 -0.00020691 0)
(0 -0.000113328 0)
(0 -4.73866e-05 0)
(0 -0.000300009 0)
(0 1.03328e-05 0)
(0 -0.000123665 0)
(0 -2.36608e-05 0)
(0 -0.00038898 0)
(0 -0.00045027 0)
(0 1.10062e-05 0)
(0 -0.000200114 0)
(0 -0.000364988 0)
(0 -7.22684e-05 0)
(0 1.07692e-05 0)
(0 -0.000525733 0)
(0 -0.000757142 0)
(0 -0.000833485 0)
(0 -0.000389101 0)
(0 -0.000184933 0)
(0 -5.9089e-05 0)
(0 -0.000342178 0)
(0 -0.00049229 0)
(0 -0.000616874 0)
(0 -0.00028631 0)
(0 1.08157e-05 0)
(0 -2.52154e-05 0)
(0 -0.000149925 0)
(0 1.09075e-05 0)
(0 -5.55804e-05 0)
(0 -0.000680408 0)
(0 -0.00059935 0)
(0 -0.000521473 0)
(0 -2.7755e-06 0)
(0 -1.49075e-05 0)
(0 -5.83899e-05 0)
(0 -0.000749182 0)
(0 -0.000421794 0)
(0 -0.000531369 0)
(0 -0.000363779 0)
(0 -5.16466e-05 0)
(0 -0.000560039 0)
(0 -1.17812e-05 0)
(0 -0.000483119 0)
(0 -0.000369598 0)
(0 6.14485e-06 0)
(0 1.09833e-05 0)
(0 -0.000398665 0)
(0 -1.635e-06 0)
(0 -4.80501e-05 0)
(0 -0.00010839 0)
(0 -9.52632e-05 0)
(0 -0.0006801 0)
(0 1.09174e-05 0)
(0 -6.13629e-05 0)
(0 -0.000553287 0)
(0 -0.000637866 0)
(0 -0.000495558 0)
(0 -0.000229301 0)
(0 -8.10997e-05 0)
(0 -0.000127306 0)
(0 -0.000559602 0)
(0 -0.000503219 0)
(0 -0.000445216 0)
(0 -7.92571e-06 0)
(0 1.07099e-05 0)
(0 -0.000804525 0)
(0 -0.000335514 0)
(0 1.83032e-06 0)
(0 9.07506e-06 0)
(0 -0.000129125 0)
(0 -4.8326e-05 0)
(0 1.01768e-05 0)
(0 -0.000844817 0)
(0 -0.000252042 0)
(0 -0.000325111 0)
(0 -0.000212228 0)
(0 4.6911e-06 0)
(0 -0.000537552 0)
(0 -3.10978e-05 0)
(0 -7.72037e-07 0)
(0 -4.25003e-05 0)
(0 -0.000220845 0)
(0 -0.00048655 0)
(0 3.38134e-06 0)
(0 -2.93589e-05 0)
(0 -0.000487812 0)
(0 -1.62149e-05 0)
(0 -0.000102688 0)
(0 1.08377e-05 0)
(0 -0.000432483 0)
(0 -0.000323983 0)
(0 -1.97376e-05 0)
(0 -0.000189766 0)
(0 -0.000175926 0)
(0 -0.000107652 0)
(0 -0.000610099 0)
(0 -0.000105492 0)
(0 6.28573e-06 0)
(0 -0.000140868 0)
(0 -0.000573381 0)
(0 -0.000190466 0)
(0 1.10079e-05 0)
(0 -0.000694764 0)
(0 -0.000593496 0)
(0 -0.000715531 0)
(0 -6.59156e-06 0)
(0 -0.000610389 0)
(0 -0.000331329 0)
(0 -0.000333066 0)
(0 -0.00060794 0)
(0 6.49846e-06 0)
(0 8.89887e-06 0)
(0 -0.000306049 0)
(0 -9.75266e-06 0)
(0 1.06488e-05 0)
(0 1.0888e-05 0)
(0 -0.000592109 0)
(0 -0.000414759 0)
(0 -0.00062082 0)
(0 -0.000559772 0)
(0 -0.000419763 0)
(0 -0.000369914 0)
(0 -0.000534365 0)
(0 -0.000322586 0)
(0 -0.000513563 0)
(0 -0.000136366 0)
(0 1.09387e-05 0)
(0 -4.72812e-05 0)
(0 -0.000136506 0)
(0 -0.000364456 0)
(0 -0.00052996 0)
(0 -0.000200266 0)
(0 -8.91661e-05 0)
(0 -0.000315941 0)
(0 -0.000613709 0)
(0 -4.33485e-05 0)
(0 -8.51918e-05 0)
(0 4.43658e-06 0)
(0 -0.000206533 0)
(0 -0.000811279 0)
(0 7.33709e-06 0)
(0 -0.000274352 0)
(0 -0.000682051 0)
(0 -0.000529774 0)
(0 -3.02299e-05 0)
(0 -0.000166554 0)
(0 -0.000193347 0)
(0 -0.000173791 0)
(0 -0.000456639 0)
(0 -0.00044648 0)
(0 -4.68148e-05 0)
(0 -0.000219306 0)
(0 -0.000520526 0)
(0 -9.37966e-06 0)
(0 -0.000464404 0)
(0 -6.54475e-05 0)
(0 6.71272e-06 0)
(0 -5.04415e-05 0)
(0 -0.000157789 0)
(0 -5.16552e-05 0)
(0 -0.000394491 0)
(0 -9.53888e-06 0)
(0 -3.30413e-05 0)
(0 -5.72564e-05 0)
(0 1.10168e-05 0)
(0 -0.000535269 0)
(0 -0.000867385 0)
(0 -0.000570079 0)
(0 -0.000494745 0)
(0 -0.000429079 0)
(0 -0.000294679 0)
(0 -0.000185052 0)
(0 -0.000392036 0)
(0 1.08091e-05 0)
(0 -0.000425107 0)
(0 -1.85951e-06 0)
(0 3.49985e-06 0)
(0 -0.000612324 0)
(0 8.70028e-06 0)
(0 -0.000322175 0)
(0 -4.16473e-05 0)
(0 1.09286e-05 0)
(0 -0.000557982 0)
(0 -7.7097e-05 0)
(0 -0.000838781 0)
(0 1.08312e-05 0)
(0 -0.000196202 0)
(0 -4.60155e-05 0)
(0 -0.000594006 0)
(0 -6.20426e-06 0)
(0 -0.000345996 0)
(0 1.09982e-05 0)
(0 -0.000613133 0)
(0 -5.11548e-05 0)
(0 -0.000830099 0)
(0 -0.000397148 0)
(0 -5.68304e-05 0)
(0 -0.000614308 0)
(0 1.10165e-05 0)
(0 1.04845e-05 0)
(0 -0.000127157 0)
(0 4.57541e-06 0)
(0 -0.000103519 0)
(0 1.08027e-05 0)
(0 -7.58287e-05 0)
(0 -0.000535031 0)
(0 -2.84263e-05 0)
(0 -0.000118748 0)
(0 -8.05358e-05 0)
(0 -0.000467705 0)
(0 -6.62848e-05 0)
(0 -0.000378348 0)
(0 -5.95796e-05 0)
(0 -0.000403615 0)
(0 -0.000312832 0)
(0 -0.000332131 0)
(0 1.08503e-05 0)
(0 -1.56624e-05 0)
(0 -0.000472548 0)
(0 5.50577e-06 0)
(0 -9.8753e-06 0)
(0 -0.000541233 0)
(0 -5.65168e-05 0)
(0 -0.000100683 0)
(0 -3.00458e-05 0)
(0 -0.000117914 0)
(0 -0.000600356 0)
(0 1.03778e-05 0)
(0 -0.000465242 0)
(0 -0.000552718 0)
(0 -0.000374227 0)
(0 -1.77503e-05 0)
(0 -0.000106573 0)
(0 -0.000624798 0)
(0 -0.000105142 0)
(0 -0.000399427 0)
(0 -7.4535e-05 0)
(0 -0.000467958 0)
(0 1.06432e-05 0)
(0 -4.21668e-05 0)
(0 -0.000212156 0)
(0 -7.30945e-05 0)
(0 -4.38047e-05 0)
(0 -0.000370848 0)
(0 -0.000566987 0)
(0 7.28513e-06 0)
(0 -8.02684e-05 0)
(0 -0.000196895 0)
(0 -0.000440424 0)
(0 -9.51177e-06 0)
(0 -0.000380172 0)
(0 -0.000427665 0)
(0 -0.000179799 0)
(0 -1.24154e-05 0)
(0 -3.66011e-05 0)
(0 -0.000115062 0)
(0 -0.000798503 0)
(0 -0.000506447 0)
(0 -0.000360227 0)
(0 -0.000438644 0)
(0 -0.000280435 0)
(0 5.69039e-06 0)
(0 -2.64183e-05 0)
(0 -0.000111641 0)
(0 -0.000600195 0)
(0 -0.00027243 0)
(0 -0.00052485 0)
(0 -5.16791e-05 0)
(0 -0.000370494 0)
(0 -0.000324124 0)
(0 -0.000390395 0)
(0 -3.46111e-05 0)
(0 -0.000117011 0)
(0 -0.000195159 0)
(0 -9.94031e-05 0)
(0 -1.65696e-05 0)
(0 -0.000304871 0)
(0 -6.90039e-05 0)
(0 -0.000218553 0)
(0 -0.000612824 0)
(0 -0.000179325 0)
(0 -0.00055108 0)
(0 -0.000595614 0)
(0 1.09748e-05 0)