/*--------------------------------*- C++ -*----------------------------------*\
| =========                 |                                                 |
| \\      /  F ield         | OpenFOAM: The Open Source CFD Toolbox           |
|  \\    /   O peration     | Version:  v2012                                 |
|   \\  /    A nd           | Website:  www.openfoam.com                      |
|    \\/     M anipulation  |                                                 |
\*---------------------------------------------------------------------------*/
FoamFile
{
    version     2.0;
    format      ascii;
    class       volScalarField;
    location    "500";
    object      ddt0(omega);
}
// * * * * * * * * * * * * * * * * * * * * * * * * * * * * * * * * * * * * * //

dimensions      [0 0 -2 0 0 0 0];


internalField   nonuniform List<scalar> 
10042
(
-6.76808e-06
-3.23174e-06
1.2368e-05
-8.58476e-05
0.224595
9.86709e-06
-0.0514177
0.03744
-3.02115e-05
-2.80678e-06
0.391128
-9.04623e-05
-2.25133e-05
-4.39587e-06
5.17309e-05
-2.94865e-05
-2.59861e-05
1.99422e-06
-9.39902e-06
0.00223502
-6.88504e-05
0.00487729
-2.79482e-05
1.08993e-05
-1.0601e-06
0.000358979
-1.34257e-05
4.95721e-05
-2.08805e-05
3.89629e-05
-1.15038e-06
0.130469
1.26054e-05
2.82908e-05
0.000234601
1.36527e-05
0.000313101
0.000569378
-3.26412e-05
0.000263817
0.0037298
5.88821e-05
0.0671071
2.65199e-05
0.348215
0.00209801
3.97827e-05
0.00255227
0.000270039
0.00111539
-1.67229e-05
-6.49903e-05
5.88062e-05
-8.04606e-05
0.000317294
-8.34521e-06
-2.17773e-05
3.93352e-05
3.2865e-05
5.60125e-05
-5.01553e-06
-2.14247e-05
0.000254436
1.33956e-05
1.0321e-05
3.30108e-05
9.51125e-06
0.00082588
0.343418
-3.01361e-06
-9.29407e-05
-0.0207882
2.46269e-05
8.23217e-05
2.70576e-05
4.41503e-05
0.0535904
-1.04978e-05
0.000134734
0.166737
0.000204324
1.34371
3.40356e-05
3.7978e-05
1.33727e-05
8.15182e-07
1.10467e-05
0.00675885
2.50372e-05
-2.22638e-06
1.28782e-05
1.64222
5.1304e-05
-7.56711e-05
3.73082e-05
1.18563e-06
-8.35888e-06
-2.67463e-06
0.000283785
-2.62368e-05
-7.05491e-09
0.00409437
0.00175591
1.54906e-05
3.61755e-05
0.00122121
1.82531e-05
-6.72058e-06
-6.13519e-05
-2.3034e-05
-4.71812e-05
-2.20518e-05
0.000212807
0.445509
1.0506e-05
-1.89593e-05
1.76702e-06
-1.06358e-05
-8.05552e-07
-0.587433
2.84708e-05
0.0254915
1.87782e-05
-4.01976e-06
0.00404872
2.51877e-05
0.0272042
0.00035987
0.00108125
-1.46408e-05
0.00015413
6.02153e-06
0.266908
0.0103168
-2.30034e-05
0.00135895
0.0445584
2.74478e-05
0.00285854
0.00687298
5.60895e-05
3.60852e-06
4.02608e-05
0.00752887
-2.96422e-05
-1.78707e-05
0.00136592
-2.74082e-05
-8.30735e-06
0.00016657
-2.36807e-05
4.46127e-06
0.252335
-0.317224
-4.7378e-05
-1.19532e-05
1.95839e-05
-2.56247e-05
0.00155481
-0.204792
0.368058
0.00625482
4.95806e-07
-2.15205e-05
4.2384e-05
5.71775e-06
0.00081723
-1.00069
0.189579
-0.647948
-6.04077e-05
2.37798e-05
3.59559
0.0155986
0.000290046
-0.0194657
1.93801
2.5645e-05
0.00149881
0.000438699
2.26365e-05
-0.116723
2.52415e-05
0.000348982
4.88894e-05
-0.889934
0.0146837
2.07138e-05
0.671317
7.07292e-05
0.390817
5.15719e-05
0.260144
1.18524
0.0040669
0.142513
0.000128022
1.19306e-05
-1.49072e-05
8.03568e-05
0.000214176
1.71995e-05
-5.91317e-06
-0.00784868
1.20956e-05
-3.12504e-05
-0.765418
-5.61657e-05
9.99585e-06
6.71685e-05
0.0508888
-6.61594e-05
0.000665448
-0.0226455
1.98446e-05
0.0161748
2.70983e-05
2.21239e-05
0.00237115
-9.71706e-06
0.000222055
2.24649e-05
-0.0151415
0.000642266
0.000126395
0.000405066
0.0201734
-2.45662e-05
0.0086913
-9.97821e-05
-3.00951e-05
-0.0123346
2.42628e-05
-0.000102003
2.3304e-05
0.000180137
-4.37087e-05
-2.90208e-05
1.72371e-05
-7.97299e-05
-3.3667e-06
2.56394e-05
3.20938e-05
0.000231862
-3.98405e-05
4.18129e-06
-1.94413e-05
4.2555e-05
-6.58247e-05
1.49361e-06
-5.8687e-05
-7.20072e-06
0.000135572
-0.129943
0.00634017
0.586332
0.000275981
0.000296877
5.92248e-05
0.00243313
-0.422447
1.43167e-05
1.70595e-05
-2.69754e-05
7.83122e-05
-3.74231e-05
-0.000371723
-2.13212e-05
-1.44944e-06
7.38437e-05
0.000224223
-7.81602e-05
0.049028
0.000289435
0.0092987
8.04482e-05
-9.0333e-05
-3.13834e-05
0.000102725
-2.99212e-05
0.0004868
1.78346e-05
0.000361976
0.0849682
-1.74878e-05
5.70076e-06
-0.37818
0.00219928
3.40266e-05
1.16501e-05
0.000113824
0.0505534
0.00151933
0.00811027
-1.02405e-05
-1.80182e-05
-2.25195e-05
-2.86054e-05
0.0194629
-5.39858e-06
-2.88595e-05
-4.39886e-06
2.24454e-05
0.000601859
8.11813e-05
0.00200563
0.262144
6.26468e-05
0.77935
-5.66314e-05
5.82196e-05
-1.25359e-05
0.502095
0.00442063
0.255714
1.01891
2.26546e-05
-2.1124e-05
-3.93425e-06
0.000107209
0.000411413
-6.32178e-06
0.00038933
-5.4642e-05
-1.98866e-05
2.34611e-05
0.00223125
-1.50828e-05
7.31704e-05
1.68453e-05
8.0847e-05
0.531778
-4.004e-05
-4.74568e-05
-1.29893e-05
1.18881e-05
0.000647735
0.00405048
0.000285267
0.0352858
0.00063608
0.000287098
1.7502e-05
-6.11261e-06
5.44707e-06
7.0685e-06
0.0354838
1.44581e-05
3.02917e-05
0.00158598
-4.08642e-06
0.000129346
4.26641e-05
0.00150507
-9.21415e-06
0.000113311
0.000925833
0.000362866
8.52543e-05
6.38842e-06
0.175528
0.00125142
-1.26274e-05
0.000729596
3.57186e-05
3.93874e-06
2.41171e-05
0.000119356
0.0739346
-5.16914e-05
5.99218e-06
4.76862e-05
3.26162e-11
-1.54615e-05
-0.00163828
6.72436e-06
-5.01739e-05
-0.0376076
-7.6947e-06
-0.0323194
0.0246955
0.000105531
0.164333
0.604753
0.000221119
0.0186507
-4.03695e-05
0.00125149
-4.29957e-09
3.43424e-05
-0.00614769
-5.17702e-06
0.000101543
-0.0944205
-5.30808e-05
-9.23386e-05
0.000471916
-0.271771
1.75376e-05
-1.3355e-05
0.142129
0.00439542
4.14246e-05
0.000912961
-2.21936
-1.80521e-05
7.18891e-06
-2.96812e-05
-3.80948e-05
-3.86474e-05
-1.30147e-05
0.17356
-0.00856748
3.54022e-05
0.601218
-4.33631e-05
-6.69245e-06
-0.0412576
1.48685e-05
0.0515548
0.0018164
3.68734e-05
-1.19309e-07
-3.01271e-06
0.00595773
-5.8138e-05
0.000228923
3.68464e-05
0.334357
1.93026e-05
1.30729
5.95678e-05
4.02569e-06
-1.88118e-05
0.0156651
1.51488e-07
2.8692e-05
-1.2102e-05
-2.11205e-05
-0.557764
0.000127712
-1.91566e-05
-4.08336e-05
0.280458
-3.39468e-05
0.000157895
7.18463e-05
-3.84874e-05
1.41457
0.121807
-4.53453e-05
8.10505e-06
-4.76796e-05
-6.70942e-05
-3.91724e-05
-3.58707e-06
0.2876
2.1518e-06
-6.86117e-05
0.00017631
0.0146318
0.00177639
1.01708e-05
0.000541017
2.51767
0.00070795
-4.73697e-06
7.03629e-06
0.0104597
-6.46501e-06
-1.2901e-05
0.000116041
-1.88639e-05
2.63904e-06
2.57902e-05
-2.45736e-05
-0.0010269
1.81369e-05
2.61415e-06
0.470352
-5.62321e-06
-5.28191e-05
8.46833e-06
4.62175e-05
0.000392257
-5.16614e-05
-1.47717e-06
0.28124
4.36666e-05
0.302981
1.94166e-05
1.88441e-07
-7.00737e-06
0.00563811
3.87021e-05
-8.21467e-06
-4.51062e-05
-2.88641e-05
0.000146106
0.0389864
-1.52391e-05
0.00144651
-0.0748203
0.000710104
9.12707e-06
-8.60551e-06
-1.30958e-05
-8.04188e-07
-5.01305e-05
-0.178229
0.172534
-4.9881e-06
0.00035379
0.00020754
0.000174278
1.6029e-05
-3.93513e-05
0.0168667
0.00144233
0.198391
-2.41129e-05
-1.05455e-05
2.04054e-05
8.33901e-06
0.0289946
0.00049327
-2.84197e-05
-1.38104e-05
-4.5916e-05
2.5869e-05
0.0153012
0.000130494
1.53504e-05
0.310695
0.0709114
-0.063024
0.00124772
-3.92482e-05
-1.98096e-05
0.00115477
0.00121782
-0.13543
-0.676166
9.71094e-05
3.23671e-05
1.27295e-06
5.69582e-05
1.86037e-05
9.3617e-06
0.355061
-1.52517e-05
-5.58945e-05
0.00193871
-1.52119e-05
0.00111432
1.66615e-05
0.00535853
0.000318331
-2.22472e-06
-2.08819e-05
0.000232617
0.00050818
0.00131358
0.00130009
3.94345e-05
0.0011503
7.65731e-05
4.31481e-06
1.0467e-05
1.8142e-05
-6.82972e-06
0.000100545
0.00185988
0.000193197
1.92856e-05
4.66371e-05
-3.46358e-05
7.41417e-06
0.0168954
-4.35238e-05
7.15965e-05
0.00513392
-3.05259e-05
0.00138955
0.0017268
1.35417e-06
-0.783569
0.00127177
-2.80643e-05
0.0175232
1.74135e-05
1.42e-05
6.7931e-06
-1.53665e-05
-2.925e-09
9.13715e-05
2.31899e-05
0.00908814
5.06675e-05
-1.90787e-05
1.73188e-05
0.000414499
0.000685443
-1.09121e-05
3.26884e-06
-2.01018e-05
0.000489264
5.16886e-06
0.000252159
-5.49643e-05
2.18308e-05
-4.90968e-06
1.57286e-05
0.501998
-3.12147e-05
-0.012231
-1.87417e-06
-3.82878e-05
-2.85098e-05
0.000609337
7.79656e-06
0.00140286
2.46979e-05
0.014538
-8.3628e-07
-0.285173
-2.86276e-05
7.44441e-05
-3.17822e-05
2.67273e-05
3.05276e-05
9.04731e-05
-4.12616e-06
-0.00220905
-1.34224
-0.00480631
2.74241e-05
0.000315047
3.33633e-06
0.000291906
0.00209075
-1.0323e-05
0.00011719
0.00136773
-0.0952147
0.00171333
2.99539
0.000283259
2.09578e-05
-7.50037e-06
4.15357e-05
8.10517e-05
0.000341468
3.43662e-05
9.41759e-05
0.00571991
3.63984e-06
-1.89218e-06
1.3951e-05
0.245558
7.12005e-05
0.000431889
0.00116033
1.74331e-05
0.251613
9.97818e-07
1.64865e-05
3.33166e-05
-1.59157e-05
0.45406
0.00237066
0.125667
-3.56346e-05
-8.38642
-1.08017
0.0247938
0.000384067
0.00237119
0.00878278
0.000350605
2.58533e-05
-2.3711e-05
0.000138669
0.629107
5.47361e-06
0.000264435
0.276856
2.30966e-05
1.18136e-05
6.49934e-06
5.77475e-05
2.6611e-05
-7.75562e-06
0.00531975
0.763045
-1.60365e-05
2.45162e-05
0.293122
0.175949
3.92441e-07
-5.22411e-06
-1.54536e-05
-3.44894e-05
-0.755933
0.00241354
-0.0198128
3.93175e-05
2.45069e-05
-3.37407e-05
1.85441e-05
-3.54564e-06
0.000556617
4.11776e-05
0.0399361
-1.97835e-05
2.41387e-05
0.000583632
-2.41963e-05
0.000412531
0.000707313
-1.90186e-05
1.4756
-0.0789292
2.573e-05
-5.05053e-05
0.94756
0.613394
0.00045925
1.71465e-05
0.0426692
-0.00162556
4.93105e-05
2.53937e-05
-9.6015e-06
-6.13868e-05
0.0902708
3.01419e-05
0.0131913
6.30297e-06
0.517942
0.0823669
-1.44948e-05
1.41593e-07
-0.00046995
-5.22026e-05
-2.84184e-05
0.000152523
-0.124965
-0.00522223
0.889101
-4.90604e-05
0.00208484
0.000292225
-3.36129e-05
-5.84668e-05
-2.2844e-05
0.0453086
-1.64444e-06
-1.13654e-05
0.00203687
1.40207e-05
0.00203937
-3.48424e-05
-5.16363e-05
-5.1912e-05
2.04459e-05
0.00892043
-1.91366e-05
-7.50567e-06
0.00127693
0.000670193
-0.12691
-3.35997e-05
0.00397245
0.0921902
0.306343
4.27854e-05
0.369108
-0.824603
2.45642e-05
-2.47243e-05
5.30612e-05
3.14958e-05
-0.0305735
7.37432e-05
-4.70747e-06
5.37212e-06
0.185879
0.000151172
-4.99107e-05
-2.39797e-05
-9.74215e-06
0.000680901
-5.13163e-06
-1.07724e-05
0.000423666
5.54753e-05
-2.27353e-05
-2.64632e-05
0.085719
6.3956e-06
4.69218e-05
6.53255e-06
4.16852e-05
0.00758214
-2.05742e-05
6.96297e-05
3.01664e-06
9.45657e-05
0.139117
-9.4192e-10
0.0175875
0.000210189
0.00651481
-3.10854e-05
8.80062e-05
0.000371138
0.0038468
0.000412928
3.8682e-05
2.25386
-0.344446
1.43668e-05
-3.20696e-05
0.0194459
-2.48369e-05
9.91505e-06
-2.65542e-05
2.56774e-07
0.00120233
2.67791e-10
-5.25207e-09
0.000699593
0.000250347
-6.52627e-05
0.000181339
2.17548e-05
0.441096
-2.4689e-06
0.039964
-3.90461e-05
0.00194141
0.000234134
0.22289
5.36925e-05
0.183729
-1.44174e-06
-5.61886e-05
-2.13405e-05
2.0054e-05
2.4369e-05
0.005005
0.000214013
0.00092654
0.315182
-6.56858e-06
-4.51
-7.52253e-05
-2.0616e-05
7.49388e-05
0.000476962
-0.109391
-5.78974e-06
0.000157511
0.000542811
7.25588e-05
0.00020461
1.01547e-05
-4.06131e-05
6.79389e-06
-0.0302884
5.56604e-05
-4.75616e-06
-4.12787e-05
-1.4676e-05
2.815e-05
-7.9852e-06
3.46566e-05
-4.70307e-05
-7.08313e-05
1.94197e-05
0.000164289
0.000176557
-2.91698e-07
0.0336793
1.11744e-05
1.86879
0.000212714
-0.213275
0.000672621
-5.09715e-05
0.215072
0.00074665
0.0776388
0.308177
0.000652225
1.26808e-06
1.57297e-05
6.63159e-05
0.00814849
-2.53742e-06
-0.471978
-4.90226e-06
-15.3969
-0.155985
0.00099499
1.65588e-05
-0.500236
0.287729
2.53084e-05
-1.35573e-05
-4.89085e-05
3.96085e-06
-4.20353e-05
-5.52694e-05
0.00116468
-0.0047726
-2.43296e-06
4.27595e-07
1.86222e-05
-0.219448
0.00135398
1.65232e-05
0.000175922
0.00343933
4.29811e-05
-7.18518e-07
-0.215999
3.50228e-05
2.89866e-06
-0.143889
0.000113815
2.30063e-05
0.0245261
0.232764
-1.06232
1.85927e-05
7.30962e-05
0.0274537
-2.65779e-05
-1.29452e-05
-1.75618e-05
9.90393e-05
-3.98377e-05
-4.23583e-05
-0.000128804
0.00044143
0.028876
5.60755e-07
1.52071e-05
-1.30743e-05
-2.24899e-05
4.70869e-05
-5.55424e-05
0.00705447
0.000229075
6.58861e-06
-3.42945e-05
-2.67109e-05
-3.87671e-05
2.51858e-05
-0.313716
0.000316456
-1.66343e-05
1.17317e-05
0.00019901
0.186582
-4.54661e-06
-3.77673e-05
6.48997e-06
-9.15407e-07
1.71125
0.000927668
-9.3105e-06
-3.6116e-05
0.00043605
0.00174529
1.27883e-05
1.67165e-05
0.000160193
-2.52874e-05
0.000125659
4.15786e-05
-0.454386
0.000448349
1.19786e-05
0.000213943
1.83868
0.000154853
0.00661929
0.000187635
0.0365967
2.64193e-07
-2.54855e-05
9.25271e-05
0.00222188
3.6101e-05
-3.74082e-05
-4.52862e-05
-4.48138e-05
-0.0155232
0.00439545
-0.079449
1.10822e-05
-3.88378e-05
0.000211281
1.57066e-05
2.42166e-05
-0.222521
0.000104133
2.67865e-05
-5.327e-06
-0.0284777
0.0599586
-4.23061e-05
4.66877e-05
0.00349837
-3.0521e-05
-3.68631e-05
-1.07156e-05
0.00329559
7.43286e-05
0.000118474
-0.335391
4.35097e-05
-4.08509e-05
0.0756924
1.39144e-05
0.00567484
-4.45056e-05
8.86521e-05
0.00109852
2.67357e-05
2.06481e-06
-4.59891e-05
5.00205e-05
0.629157
1.18184e-05
1.25365e-05
0.00787436
0.000126393
0.0160231
-0.238609
0.000534942
-5.13796e-06
0.0168656
-2.52512e-05
1.19844
-5.76089e-05
3.65748e-05
-6.01413e-05
0.310429
-1.91522e-06
4.32285e-05
1.32633e-05
0.000609938
0.0176393
0.000227843
0.0011498
5.41147e-06
-2.44034e-07
0.0004877
0.000434059
-9.62465e-06
0.000174363
-6.80214e-06
0.295247
0.0253165
7.33425e-05
2.05746e-05
-2.77717e-05
-0.115275
1.56645e-05
-1.03788
-3.34871e-06
-4.51079e-06
-2.45264e-06
3.27729e-05
5.17149e-05
-1.27027e-05
-3.91981e-05
1.29173e-05
0.0350425
0.00383358
-7.50213e-06
7.06578e-05
-7.88978e-06
0.000648872
2.4759e-06
3.60564e-05
7.17279e-05
1.09074e-05
2.63752e-05
0.000289157
-1.10813e-05
-2.90333e-05
0.00013646
-2.95012e-05
0.00689026
7.31858e-05
0.0031843
8.71265e-06
-4.89811e-06
-2.32425e-05
0.00183775
0.00113412
-3.59083e-05
5.85208e-05
0.00243078
4.32635e-05
-1.81322e-05
0.000188208
-3.77569e-06
0.381466
0.00787745
0.000148501
0.577179
1.91317e-05
0.00064243
0.00321672
0.00087515
0.000342382
0.1749
0.000171275
0.00470622
-2.73499e-05
6.79921e-05
4.95477e-06
5.63833e-06
0.000197796
4.09148e-06
-0.022612
1.17613e-05
2.86165e-05
0.0011863
3.69641e-06
0.00182452
-4.3634e-05
0.000168422
-1.54446e-06
0.000309183
-0.00896042
-7.23475e-06
0.000485564
-0.790969
0.000105387
-3.19709e-05
0.000170549
-3.46266e-05
-6.6064e-06
1.31161
-2.03806e-06
-9.99401e-06
0.001382
8.50262e-06
0.000124665
-9.71828e-06
-2.22333e-05
0.249487
-1.16602e-05
-1.56507e-05
0.000141345
1.1231e-05
-3.5025e-05
9.11554e-07
2.80101
3.12693e-05
2.49868e-05
-1.339e-05
0.00279471
1.1847e-05
0.00015092
-9.57431e-06
0.000476231
4.79443e-05
3.32766e-05
5.70043e-05
-3.75374e-05
9.80685e-06
0.000936921
0.000672135
0.000421887
3.73971e-05
0.00091001
0.00250648
9.41423e-05
0.00010633
5.00395e-05
0.324727
-3.20325e-06
4.22482e-05
-5.41578e-05
-8.36197e-08
2.07834e-05
-4.76111e-05
1.36176
0.336724
0.150351
-1.12895e-08
0.000131163
0.000206036
3.16753e-06
0.00114045
0.000257155
2.03454
0.00224279
-0.257605
0.00255935
0.00467456
-0.0572044
0.000233713
4.44901e-06
0.00019277
-8.87541e-06
-0.0147233
3.01817e-05
0.000132638
2.65136e-06
0.000166437
-5.72495e-05
0.563817
0.00266522
-2.25729e-05
0.19561
-0.0698751
0.00411727
0.00124543
0.0021969
-5.38487e-06
-0.542949
1.67138e-05
0.696929
0.464024
-2.11944e-05
1.36126e-05
-1.04032e-05
6.30287e-05
5.25387e-05
0.000704343
0.00886946
-1.20444e-05
-4.4406e-05
0.000165063
1.76937e-05
-3.10911e-05
0.000210527
2.47737e-07
1.18368e-05
-0.00815123
0.00157411
-4.17347e-06
0.204982
-2.41368e-05
-1.94924e-05
2.65486e-05
0.0190415
1.35155e-06
-3.2016e-05
0.00522076
0.00855584
-2.05053e-05
0.0001715
0.0801432
0.00143824
0.148646
-8.15977e-07
0.00460601
0.188958
0.0616386
-2.79035e-05
2.01518e-05
0.00207807
0.000134391
0.000439571
3.60458e-05
-0.506065
0.0013793
0.00966698
2.0183e-05
-4.27414e-05
0.243608
-0.00658702
-7.74749e-06
-1.33102e-05
-0.781724
-4.84196e-06
-2.33541e-05
-3.89436e-05
4.87271e-05
-3.56577e-05
0.000132842
3.63966e-05
-7.71962e-06
-3.71541e-05
0.000567934
-3.29461
0.000958555
0.000767113
1.88264
0.00287813
-2.53757e-05
-7.86696e-06
-4.21357e-06
-4.31071e-06
0.00584381
0.000130966
-4.04094e-05
1.66509e-05
-1.46849e-05
-7.38147e-05
0.000211415
-3.09456e-07
0.000454362
3.28545e-06
-4.51148e-06
0.113268
0.596634
-1.03331e-05
0.367814
0.000348993
0.000524503
-4.03113e-05
-6.10483e-05
-0.580396
0.002695
1.25395e-05
-2.64053e-05
-1.70937e-05
0.000258358
3.34253e-07
0.00390665
-7.82405e-05
1.3437e-05
4.15098e-05
-0.0311544
-0.859335
5.39697e-06
1.98009e-05
0.00281275
0.330973
8.75656e-05
0.230669
-0.417638
-4.80985e-05
-1.19663e-06
1.79475e-05
5.68535e-05
-0.0276325
-4.90185e-05
7.20255e-06
0.00902818
0.004041
1.01071e-05
5.69491e-06
0.000952327
1.39976e-05
2.2261e-05
0.00477101
0.00294523
-0.434292
-3.07605e-05
0.001812
0.000331147
0.00194646
2.43828e-05
0.000185933
-2.21924e-05
-8.315e-05
0.00353774
0.000196787
-1.08099e-06
0.000171495
0.427945
1.94413e-05
-3.1033e-05
2.3198e-05
0.00157758
1.39935e-05
2.54517e-05
-1.08221e-05
-2.28263e-05
0.875201
-0.0495948
3.16141e-05
0.126349
0.398218
-0.0537778
-1.33381e-05
1.52782e-05
4.04016e-05
-4.43718e-06
-5.32627e-05
8.01741e-06
2.78209e-05
2.4016e-05
-1.70283e-05
8.45594e-05
1.86618
8.8882e-05
-0.00172588
0.00032815
2.02472e-05
7.30438e-05
0.000341163
2.98451e-05
-6.57164e-05
0.00105689
0.000381596
0.0479331
0.00126936
3.32304e-05
1.77898
6.10611e-05
-5.81189e-06
-1.23814e-05
0.0200701
0.00138775
2.0357e-05
0.000224764
-2.08499e-05
-1.87638e-05
0.000201978
0.00117716
8.3442e-05
0.419703
-1.80647e-05
-5.37621e-05
0.0878315
0.000197775
0.000163171
0.00604273
5.55678e-05
0.00145975
0.0142249
0.00141461
0.328919
4.87893e-06
-4.16224e-05
4.04906e-07
-5.74305e-06
-3.6595e-05
7.30255e-05
0.00119105
0.000948165
-1.49002
-2.29827e-05
0.625886
1.00359
-6.52329e-05
-0.71468
3.23796e-05
0.0041221
-0.490244
7.03892e-06
0.00370329
-2.15886e-05
0.163761
-3.20441e-05
0.00949525
-4.91239e-05
0.0216127
0.000798544
0.43572
-6.68434e-06
0.00787808
-4.30394e-05
5.33127e-05
0.0177785
-3.64409e-06
0.368258
0.211552
-0.00908979
1.47726
0.00352029
-0.332268
0.000612521
5.54061e-08
0.000615009
0.00116261
-0.547111
-1.18963e-05
-5.36155e-05
3.5989e-05
0.000900702
7.50341e-06
3.5506e-05
4.41665e-05
-1.63104
0.0229154
2.44959e-05
1.88881
0.000905761
4.81139e-06
0.000688712
0.000135189
0.0647827
0.000379544
8.81877e-07
0.115155
-1.596e-05
2.43964e-06
1.4268e-05
0.00598916
0.00199417
-1.99061e-05
0.000123927
-3.81113e-05
1.68328e-05
-9.6292e-06
-1.17028
3.84927e-05
-6.77266e-05
-0.0480183
0.0111692
5.33301e-05
-1.28782e-05
-0.0641994
0.00015867
7.59336e-05
6.10621e-06
0.000555704
6.17295e-05
0.00013708
0.000156411
0.225803
-0.000211609
0.00195915
3.32516e-05
0.000215852
0.00100144
0.000161017
4.77855e-05
0.372237
2.33592e-06
0.00471132
-4.09103e-05
-5.83413e-05
0.000136334
0.00868686
5.71683e-05
0.000122823
-6.65904e-06
0.000298283
0.00224045
0.00258204
0.000192736
-5.28732e-10
-4.27953e-05
0.000109481
0.00237193
-5.56199e-06
0.00138661
1.39191e-06
-2.63615e-05
0.452993
1.93694e-06
-0.972028
1.18678e-05
9.58044e-05
0.00245628
1.1312e-05
0.000260732
0.00213207
0.00454668
-3.83292e-06
0.00226088
4.6106e-06
-3.70501e-05
1.90436e-05
0.0434815
0.247901
9.03329e-07
-1.2697e-06
-3.71431e-05
8.7928e-07
0.0036624
0.297501
-4.98946e-06
0.10299
-4.24273e-05
-1.4234e-05
1.17372e-07
0.00584784
5.60617e-05
0.000113253
5.01964e-06
1.17048e-05
2.02875e-05
-4.18958e-06
4.61371e-06
0.000640466
6.63795
-2.02747e-05
3.04333e-06
6.73146e-05
0.00226578
3.57041e-05
0.452532
0.00117278
-4.09904e-06
-4.22779e-05
-4.16306e-05
0.00408887
-6.52184e-06
0.0024434
0.000340638
-3.46824e-05
-2.08798e-05
0.00122568
-7.47153e-05
0.00239765
0.000226495
4.95256e-05
0.0527562
0.0250886
-1.81105e-05
-2.93775e-05
0.415261
0.00609508
0.00273019
-9.44418e-05
0.00243933
-1.28541e-05
-0.328532
0.00176082
-4.84461e-05
-0.155785
0.239295
8.23859e-05
0.000887616
0.0015522
1.33669e-05
0.238559
3.70917e-05
0.000200555
0.000361278
3.50055e-05
-3.43668e-05
0.000627272
-4.03206e-05
-5.10674e-05
-1.74332e-06
7.33008
-1.03379e-06
-2.30716e-05
5.71832e-06
-3.02713e-05
-7.91966e-06
-4.65171e-05
0.00182923
0.000621876
-2.11341e-05
-3.69106e-05
-0.300062
4.83829e-05
-2.70002e-05
5.76739e-06
-2.08248e-05
2.19312e-05
-2.06202e-05
0.000321775
0.00326894
9.98607e-06
0.000498
0.000471091
-4.31358e-06
0.00020706
-0.0662036
7.45888e-05
-5.08699e-05
3.51828e-06
0.00135608
-2.57974e-05
-1.56891e-05
0.000129236
0.000164902
0.239859
-0.206278
-2.48575e-05
-6.06898e-05
2.01582e-05
0.000795772
-9.06439e-05
-7.65613e-06
0.000121262
0.00144494
3.58383e-05
0.000160643
2.97277e-05
0.00473204
0.00357362
-4.97388e-06
0.00384961
0.000207619
0.582091
-5.84542e-05
-8.27003e-06
-0.245971
0.00196132
0.000135076
0.00391606
0.00193346
-0.574073
0.000463695
0.0568805
0.000154132
2.97664e-05
0.129646
0.000168092
-0.0125501
0.000246424
0.00597201
0.758715
-6.5291e-09
4.05328e-05
1.20133e-05
0.00800729
-1.55435e-06
-0.373046
0.000831781
-1.25739
5.19394e-05
0.00216618
0.0128959
-2.14526e-05
4.8783e-05
0.000766377
0.000284193
-1.31099e-05
-0.000134092
0.00105095
0.00289681
0.00293191
0.00376231
-0.959706
0.00634924
7.71182e-06
-1.06984e-05
0.227301
0.000627795
4.48027e-05
0.000526086
-0.0265742
2.98138e-05
-9.25209e-06
1.32674e-05
0.000161582
1.75924e-05
6.09415e-06
0.000201776
2.32223e-05
-7.34985e-05
0.422707
-0.662856
-9.54307e-05
0.000125719
0.000204861
0.00827087
0.00139203
2.34472e-05
-1.7826e-06
0.0032791
1.93861
-1.40059e-05
2.88221e-05
2.6541e-05
-0.0780869
-5.10418e-05
0.000406863
0.00565753
0.00138331
4.11642e-05
0.0020891
0.00304476
0.00179721
0.000139772
-1.98833e-05
-0.343825
-3.1878e-05
0.000115312
3.57565e-05
0.000289767
-3.36982e-05
-2.36835e-05
1.49317e-05
0.00232166
-3.01889e-05
-4.5291e-05
-2.36543e-05
-3.1724e-05
-5.62913e-05
3.99017e-05
0.00333478
0.946751
0.0503666
0.000134068
-5.84656e-06
0.000156539
5.03213e-05
-0.972613
-2.29292e-05
0.0326717
-2.24903e-05
2.84445e-06
6.05386e-06
0.000554372
0.309457
-6.17854e-06
0.377803
-2.01537e-06
-5.43334e-05
7.09111e-05
0.741938
7.97714e-05
5.57263e-05
-0.876155
-2.92196e-05
3.37416e-05
0.376042
-5.10351e-06
1.73119
-2.49109e-05
0.000539473
2.33264
-4.7748e-05
2.78903e-05
-4.8824e-05
-0.788065
0.000184689
-5.4301e-05
0.183878
-6.47245e-06
-6.5688e-06
0.00349369
-0.901707
0.00391441
0.32052
0.900178
0.000989172
9.8955e-05
0.019533
0.0150224
-2.77112e-05
-7.54018e-07
6.98604e-05
9.97288e-05
0.000589006
9.03312e-06
0.000120146
1.97715e-05
5.8829e-06
-0.00112544
1.18456e-06
-0.763992
-1.72961e-05
0.00020989
0.00166508
-6.58031e-05
-5.42598e-05
0.409519
-0.701209
0.00210045
1.44663e-05
0.000166083
0.00108857
-2.64608e-05
0.000717792
0.00439904
0.00115532
-7.93993e-05
-0.542662
-0.795848
-8.70845e-05
1.6618e-05
-3.13455e-05
-1.12711e-05
-3.99569e-05
6.91019e-05
0.940276
9.41984e-06
-1.32391e-05
0.000865665
-1.44619
-1.3303e-05
0.027929
8.93536e-06
0.00701931
0.00177066
0.293135
0.00182175
0.000554634
0.000528939
4.93535e-06
-8.38469e-05
0.0172792
0.00021987
2.79287e-05
0.0879557
-4.71525e-05
8.44009e-06
-3.19543e-05
0.00130336
-0.0127012
0.137495
0.00985154
0.000286882
0.000342513
-3.08897e-05
-1.14158
-0.00196302
6.29642e-05
-1.35571e-05
-2.96983e-05
0.00233159
-0.178042
0.000192989
0.125924
2.23746e-05
-1.03834e-05
0.109327
7.84468e-06
0.0631845
1.6978
-2.95928e-06
0.000355466
-0.000663762
0.000134139
0.000658201
1.73138e-05
-0.175077
0.000163067
0.0073992
0.189449
0.927803
0.000240337
8.37449e-05
-2.151e-05
0.0068667
-1.21205
-3.81057e-05
5.49101e-05
-0.334601
0.000468896
0.00081214
-2.51115e-07
-0.163988
0.136968
0.00169415
1.43808e-05
0.000180646
1.26698e-05
0.452246
0.00275213
0.000781136
1.5081
0.488488
1.21607e-05
0.00869656
-1.16475e-05
0.56017
0.00140346
5.16286e-05
4.52017e-05
0.0653045
1.91725e-05
0.00192056
0.338593
0.159359
6.09138e-05
2.94492e-06
-3.5367e-05
0.00161029
0.107167
0.0102747
0.21052
0.00191791
0.000671609
-2.59817e-05
0.458768
0.00294149
0.000214779
-0.00219759
0.0366981
-0.143224
0.0561284
-0.83852
0.906565
-0.247688
2.35464e-05
0.000130092
0.000579541
-2.99856e-05
-1.084
0.0782453
-1.73421e-07
0.622314
-1.94754e-06
-5.59657e-06
-1.70965e-05
0.00054213
-2.37769e-05
0.677542
8.21875e-05
-0.00789515
-3.53285e-05
0.0578812
0.000456149
0.0402432
0.147292
-4.00974e-05
0.000268781
-5.4174e-05
0.000603572
-2.37773e-05
-1.80811e-05
1.91445e-05
0.398004
-2.35527e-05
-2.95443e-05
-0.00252687
-1.36006e-05
-1.10616
-3.34566e-05
-0.888076
-5.09416e-06
-3.21731e-05
6.57658e-06
1.67321e-05
0.000102369
0.000133602
-1.05014
0.000188995
0.00067747
0.204806
1.12656e-05
-0.45219
2.50772e-06
-0.159531
-0.178181
-0.673181
0.00229726
8.77252e-06
4.58827e-07
0.305831
-1.38951e-05
0.000110733
-1.34455e-05
0.000325059
-0.599425
-3.74372e-05
3.74137e-06
1.21815e-05
1.09527e-05
2.16673
0.789898
-9.29946e-06
-5.19948e-05
0.65293
-0.0475241
-5.63868e-05
-0.271861
-2.32044e-05
-0.306467
-0.198505
0.00234374
-0.00583414
0.0396781
0.000991774
0.274482
0.00224539
2.00629e-05
2.04337e-05
-3.16387e-05
-0.306887
0.394042
6.27908e-05
0.000123591
0.220575
-5.36736e-05
0.38945
-2.27016e-05
-2.99267e-05
-5.0698e-05
0.57953
0.00232769
-4.10502e-06
0.103541
-7.20195e-07
0.336027
0.294765
-6.01304e-06
-3.0398e-05
0.00553987
-1.23426e-05
-5.0847e-05
-2.98094e-05
0.229803
0.000224989
-1.00207e-05
2.23369e-05
0.190766
1.43952e-05
0.000622021
1.11514e-05
-0.682571
1.39279e-05
0.00351022
-7.80813e-05
-0.114216
0.576616
0.000417336
0.00238677
0.00174696
9.0021e-06
0.00194424
-0.443131
-3.69837e-06
0.00319001
-4.15327e-05
0.0459054
-4.10722e-05
-0.570561
0.190696
0.00169532
0.347981
0.00900801
0.000206204
-4.16849e-05
0.0248088
-4.41796e-05
-1.13706
0.000127924
0.0311977
-7.85048e-06
0.000290699
0.000808539
0.000170633
3.50573e-05
1.2288e-05
-2.10181e-05
0.00207961
0.00264076
0.293267
0.0288235
0.000102135
-6.03432e-05
0.000736798
1.90767
0.000268469
-2.34399e-05
-3.11783e-05
1.19538
0.394151
0.534511
0.472311
0.000499318
3.86397e-05
-3.66985e-05
0.00154628
0.00117198
0.0429791
8.87303e-06
1.16673e-05
-0.240705
0.00223436
9.4136e-07
0.00227552
0.0855979
0.00500962
-1.96248e-05
0.000546369
0.0419048
0.277668
0.205103
0.0102153
4.54681e-06
1.34126e-05
-5.30968e-05
-1.23717e-06
1.96729e-05
1.69717e-05
0.000121684
0.00976911
0.000593591
0.000157971
0.000285151
1.29127e-05
0.000136187
-4.42193e-05
5.89287e-05
0.000249891
1.19362e-05
0.00025695
1.8613e-05
-2.34747e-05
4.5577e-05
-3.88749e-05
0.0135669
-2.27908e-05
0.00101467
0.0705523
0.0258893
-0.982193
0.905952
5.83537e-06
-9.07869e-06
1.29317e-06
0.244546
-4.92636e-05
-3.6924e-05
3.31664e-05
0.308445
0.000198552
0.000774718
0.0276983
8.32326e-05
7.27767e-06
0.000324825
-7.52998e-07
0.000567712
-1.33495e-05
0.000259796
-1.77051e-05
4.00448e-06
6.50291e-05
8.43077e-05
5.24803e-05
0.0465139
0.00104593
0.00292342
0.00171755
0.00450212
0.000903875
0.0020814
-2.87662e-05
0.363609
3.72975e-05
0.00014228
8.57245e-06
-3.43626e-05
0.00366743
2.67915e-07
0.000960223
0.23466
9.9266e-05
-0.0471034
0.00464208
0.000793257
0.00175738
0.00104276
8.19e-06
0.000420045
1.03027e-05
0.0018883
0.000530739
0.219892
-2.28966e-05
0.000756077
8.24878e-05
-0.0970758
0.0217028
0.00112761
-7.3852e-06
0.00121055
-5.71163e-05
0.00235912
5.46794e-05
0.0555135
-3.31905e-05
7.24902e-05
-1.98906e-05
0.000800019
0.00421838
0.00033912
0.994763
6.91741e-06
0.000195532
0.00121244
9.8185e-06
0.0651391
-0.226403
0.00804743
0.00127639
0.00104732
-3.12635e-05
-2.79506e-05
0.807076
0.00402471
-3.52469e-05
-4.72603e-05
3.60483e-05
3.87769e-05
0.0384411
-1.04997e-05
-0.139946
0.00772143
0.00701178
0.000383987
4.30008e-05
-2.94882e-05
-2.95242e-06
0.00662234
0.00103629
7.23995e-05
0.366641
1.25647e-05
5.10483e-05
0.000110371
0.380541
2.9054e-05
0.0135113
-4.44965e-05
0.164452
1.06891e-05
-2.80069e-05
0.000158533
-2.10622e-05
3.99753e-05
0.00716155
4.23878e-05
4.1343e-05
-3.41311e-05
0.000883022
0.000204285
-0.052598
-4.12977e-06
3.91241e-05
-5.81383e-05
0.00582996
3.59119e-05
0.00011098
0.00136733
0.303875
1.82933
-0.130405
0.104555
0.0122913
0.000685085
0.000840129
8.90288e-05
-5.00171e-05
-3.02086e-05
-0.54299
0.000682053
-4.03198e-05
1.6961e-05
-1.2962e-05
0.000266951
0.00287612
1.09551e-05
0.000118434
0.0056149
0.00830082
0.00265868
-1.22278e-05
-2.26794e-06
0.126822
1.05763e-05
2.31395e-05
0.29234
0.637346
-4.49621e-05
-9.00176e-05
0.000171621
1.08409e-05
0.000150525
-2.0532e-05
-0.256406
-3.62484e-06
-0.0550377
1.13667e-05
0.0649384
0.000352889
1.22776e-05
0.00185026
-1.97319e-05
-8.97362e-06
-2.05801e-06
0.000700436
0.0440019
-7.19767e-06
0.00859212
1.18877e-05
-2.71952e-06
-0.00633646
-3.30571e-05
-2.2479e-05
1.96657e-05
-2.65772e-05
6.64493e-06
3.3777e-05
-4.47592e-06
0.0764608
1.40485e-05
-3.15534e-05
0.000805203
-3.6085e-05
-7.14448e-07
1.52861e-05
1.51669e-05
0.401315
0.0250537
1.07786e-05
-2.5362e-05
8.46612e-06
2.54218e-07
0.00550565
-2.8909e-05
-3.2422e-05
-0.0929223
-2.06541e-06
0.00118458
0.00148758
0.00111998
-5.16775e-06
0.00967189
2.54228e-06
0.0135162
0.000272603
8.24109e-06
0.863197
-0.197639
8.63559e-05
0.00235176
4.68829e-06
1.15434e-05
0.000454158
0.00948266
-2.33252e-05
-3.17353e-05
2.39726e-05
0.000701667
2.62191e-05
0.00075285
-3.38713e-05
0.00101757
0.0223976
0.000466218
0.00470006
-1.57047e-06
-7.3787e-05
-6.02166e-05
-0.000111744
1.63295e-05
8.81933e-06
6.74459e-05
-8.88278e-05
0.00096094
3.52849e-05
0.00187553
-2.79295e-05
0.110705
-4.27005e-05
-2.7697e-05
0.00205724
-2.65732e-05
0.0046405
0.00215857
0.000325659
-2.90716e-05
6.85987e-05
1.36822e-05
0.000712168
3.53932e-05
0.000457238
0.000139978
4.57857e-05
-4.60697e-05
0.000148775
0.413866
0.000346434
0.000682595
0.29896
-0.12636
0.000532239
-1.44738e-05
0.0966016
6.87429e-06
4.75899e-05
2.63465e-05
0.00383317
-1.91071e-05
0.000544065
0.000114252
8.91445e-05
1.62582e-05
0.000203532
4.778e-06
0.00200399
-2.93886e-05
3.32717e-05
1.43081e-05
0.000355458
0.0768054
3.38743e-05
-0.392998
0.00124867
-4.43118e-05
0.46631
0.0167052
-2.98205e-05
4.43146e-05
0.00217829
-1.86459e-05
1.42242e-05
0.196895
-4.1596e-05
0.0728591
5.60984e-05
0.000156849
2.91636e-05
-4.10844e-05
-5.74415e-06
-2.50514e-06
0.000213086
2.63482e-05
-2.23024e-05
5.50354e-07
-5.6373e-05
0.0683209
-2.033e-05
-2.88563e-05
0.000116291
0.00707351
0.000613576
-3.27943e-05