/*--------------------------------*- C++ -*----------------------------------*\
| =========                 |                                                 |
| \\      /  F ield         | OpenFOAM: The Open Source CFD Toolbox           |
|  \\    /   O peration     | Version:  v2012                                 |
|   \\  /    A nd           | Website:  www.openfoam.com                      |
|    \\/     M anipulation  |                                                 |
\*---------------------------------------------------------------------------*/
FoamFile
{
    version     2.0;
    format      ascii;
    class       volVectorField;
    location    "500";
    object      U_0;
}
// * * * * * * * * * * * * * * * * * * * * * * * * * * * * * * * * * * * * * //

dimensions      [0 1 -1 0 0 0 0];


internalField   nonuniform List<vector> 
10042
(
(0.997177 0.0120707 -5.723e-21)
(0.998973 0.00603053 -5.77041e-21)
(1.03526 0.0147057 -1.35886e-21)
(1.00949 6.78695e-05 -2.35954e-21)
(1.02134 0.0458972 -3.74618e-20)
(0.99959 0.0057909 1.50186e-20)
(1.12485 -0.154254 6.76047e-20)
(1.23468 -0.0985399 8.33049e-20)
(1.02962 0.014647 -4.94269e-21)
(1.00229 0.00533226 0)
(-0.329772 0.00339574 -1.50044e-19)
(1.01466 9.18203e-05 0)
(1.01691 0.00261245 2.96692e-21)
(1.01728 0.00110453 5.75445e-21)
(0.965273 0.0605505 1.71939e-20)
(1.00023 0.00673973 5.3363e-21)
(1.00019 0.00699712 -1.27758e-22)
(1.00006 0.000550156 0)
(0.997287 0.0116866 4.62239e-21)
(0.703432 0.331512 0)
(1.00479 0.00557282 3.27508e-21)
(1.18059 -0.119368 -4.56471e-20)
(1.01607 0.000573607 0)
(1.01516 0.00501062 -1.16726e-21)
(0.999026 0.00580318 1.31192e-20)
(1.08245 0.00827349 3.43641e-20)
(0.998984 0.0031494 1.31401e-21)
(1.00033 0.0572477 -4.17666e-21)
(1.02213 0.0225665 -4.70172e-21)
(1.00703 0.0502009 4.62397e-21)
(0.996848 0.00473963 9.12457e-21)
(-0.171138 0.0215939 -1.7622e-19)
(1.00223 0.00505777 0)
(1.0232 0.0435902 0)
(1.07012 0.0463469 0)
(1.01475 0.00514246 1.17249e-21)
(1.08008 0.0127597 -1.25376e-20)
(1.08159 -0.0152853 4.09451e-20)
(1.01444 0.00480653 9.44826e-22)
(1.02082 0.120513 1.09139e-21)
(0.673108 0.325201 7.15295e-20)
(0.973764 0.0589132 0)
(1.10275 -0.160042 -6.95458e-20)
(0.995492 0.0342144 1.13833e-20)
(1.01217 0.0489855 1.13911e-19)
(1.11771 -0.0443105 0)
(0.979925 0.0404534 1.16429e-20)
(1.10571 -0.102091 -1.04097e-20)
(1.0776 0.0249292 2.77684e-20)
(1.05714 -0.0575869 -2.92266e-20)
(1.00058 0.000641208 3.65552e-21)
(1.03701 -0.000133368 -5.4637e-21)
(0.962798 0.0488324 0)
(1.04124 -0.00155367 -1.41563e-20)
(1.08067 0.0151579 -1.46476e-20)
(0.9997 0.00594843 -1.19121e-20)
(1.02294 0.0225069 3.57583e-21)
(0.98033 0.0391148 -1.79363e-20)
(1.02366 0.0421098 2.41701e-21)
(0.965346 0.0487787 2.57154e-20)
(0.997934 0.00522724 7.3555e-21)
(0.997567 0.00671728 1.2193e-20)
(1.07158 0.0491108 1.43398e-20)
(1.03443 0.0150406 0)
(0.966693 0.0213093 1.38221e-20)
(1.02622 0.0410344 0)
(0.974289 0.0156497 2.10992e-20)
(0.749788 0.236365 -4.95987e-20)
(-0.109006 -0.0404149 1.55553e-19)
(1.00269 0.0280586 0)
(1.04051 -0.00176861 1.34287e-20)
(0.656878 0.338507 -7.67818e-22)
(0.994227 0.0341089 -8.09238e-21)
(0.86972 0.0880109 9.88782e-21)
(0.974915 0.0118498 0)
(1.01549 0.00529049 -1.39524e-21)
(0.891134 0.0289366 0)
(0.997089 0.0108206 -3.16103e-22)
(0.911623 0.104909 0)
(1.0246 -0.134751 0)
(1.07487 0.0247049 2.98248e-20)
(1.22788 0.0735671 -2.96281e-20)
(1.01017 0.036883 0)
(0.975684 0.0517329 3.04727e-21)
(0.973899 0.0145491 -1.87964e-20)
(1.00019 0.00218516 0)
(0.997841 0.0139101 0)
(1.22226 0.24195 0)
(0.987703 0.0229284 0)
(0.998295 0.0139414 4.28922e-21)
(1.03412 0.0309542 1.93461e-20)
(1.22667 0.0823888 3.50817e-20)
(1.00161 0.05913 -3.44022e-21)
(1.03673 0.000230879 2.51373e-21)
(1.00569 0.0488214 0)
(1.01741 0.0296018 2.53488e-21)
(1.00022 0.0101996 -6.27365e-21)
(1.01186 0.0288322 0)
(1.02018 0.116768 -3.23126e-22)
(1.02686 0.0202287 7.85486e-21)
(0.99999 0.000110829 0)
(1.2162 0.165305 -1.85104e-20)
(1.23207 -0.114233 7.97735e-20)
(1.00024 0.00234908 3.68227e-22)
(0.993572 0.0536332 5.83232e-21)
(1.07885 0.202565 -3.71232e-20)
(0.994647 0.0114086 -7.4934e-21)
(1.00033 0.0105696 -3.08554e-21)
(1.00464 0.00526253 -2.81848e-21)
(1.02352 0.00194374 -8.12014e-21)
(1.0106 0.00130823 2.24531e-22)
(1.00592 0.0219955 -2.19549e-21)
(1.04674 0.0757301 -1.32097e-20)
(-0.17299 -0.0348052 0)
(0.967555 0.0202486 -3.91119e-20)
(1.00313 0.020293 3.02956e-21)
(0.991511 0.00512013 1.19698e-20)
(0.996963 0.0112379 6.39947e-21)
(1.01792 0.0287767 1.07553e-21)
(-0.0339848 0.0555931 1.20445e-19)
(0.987756 0.0219372 0)
(1.22631 -0.102439 0)
(0.999191 0.0372447 -7.47575e-21)
(0.994049 0.00317216 -1.37187e-20)
(1.21294 0.155657 -6.64746e-20)
(1.00943 0.0376733 0)
(1.23187 -0.0942371 -7.79212e-20)
(1.08239 0.0400278 0)
(1.0699 0.199513 4.52433e-20)
(0.998919 0.0148292 0)
(0.909583 0.111229 2.23418e-21)
(0.981095 0.0228023 0)
(-0.228787 0.0250949 1.21882e-19)
(1.2249 -0.0478564 0)
(1.02607 0.0204994 -6.43707e-21)
(1.13919 0.15756 4.18933e-20)
(-0.157467 0.0424681 -3.47675e-19)
(1.03442 0.0323887 -1.12582e-20)
(1.11246 -0.104426 2.40161e-20)
(1.23348 0.250613 9.65035e-20)
(0.987584 0.0552326 0)
(0.990977 0.00508792 0)
(0.987883 0.0489212 -7.24127e-21)
(1.25341 0.107678 -8.42183e-20)
(1.03487 0.0023277 -5.55384e-21)
(1.00557 0.0214484 2.28822e-21)
(1.15434 0.116957 0)
(1.02728 0.00317254 0)
(1.01192 0.0298771 0)
(1.02202 0.0862301 -2.43834e-21)
(1.03149 0.0134328 1.28983e-20)
(1.00005 0.00021237 -3.92639e-21)
(0.521587 -0.0528434 -1.39431e-19)
(-0.0838419 0.0466594 -1.79716e-19)
(0.999641 0.00259537 0)
(1.01686 0.0022976 -4.40254e-21)
(0.953124 0.0171201 -1.84278e-20)
(0.997256 0.00677077 -1.0423e-20)
(1.13911 0.165439 -6.05144e-20)
(-0.111508 0.0177869 -8.36255e-20)
(-0.349037 -0.00502802 1.36053e-19)
(1.21071 -0.0183497 0)
(0.995911 0.00545102 -1.21026e-20)
(1.03115 0.0141359 -6.05301e-21)
(1.01413 0.0393195 -1.42321e-23)
(0.981747 0.0216191 -4.33978e-22)
(0.985197 0.269077 -8.876e-22)
(0.22795 0.162053 1.22676e-19)
(-0.195969 0.0283256 -1.72485e-19)
(-0.0319614 0.0468669 -1.09433e-19)
(1.04121 0.00131872 -3.36732e-21)
(1.006 0.0120612 -2.32037e-21)
(1.40394 0.113851 -9.68464e-21)
(0.710692 0.387558 0)
(0.927795 0.174639 0)
(1.01824 -0.21894 -1.11722e-19)
(-0.280722 0.135332 -5.90448e-20)
(0.997229 0.035866 0)
(0.736147 0.257483 9.18507e-20)
(1.07601 0.0950514 0)
(0.950727 0.0181156 -3.91975e-20)
(-0.150981 0.0226074 1.98198e-19)
(0.973395 0.0185603 0)
(1.08048 0.0417832 3.17837e-20)
(0.973394 0.056064 1.37631e-20)
(0.00116081 0.0584577 -2.17119e-19)
(1.24998 -0.0211522 4.23842e-20)
(1.02331 0.0368065 2.83188e-21)
(-0.304392 -0.0335227 -6.56465e-20)
(1.05603 0.0355596 2.93729e-20)
(0.793944 0.82702 0)
(0.985864 0.0486444 -8.57416e-21)
(0.513518 -0.0555653 1.22267e-19)
(1.47121 0.131459 7.77727e-21)
(1.17624 -0.0415024 8.64601e-20)
(1.42302 0.0429605 0)
(1.06778 0.018891 0)
(0.995483 0.0102992 -1.49606e-20)
(1.01652 0.00211824 -1.38117e-21)
(1.03507 0.0585176 4.08333e-22)
(0.902741 0.159373 3.57973e-20)
(1.02444 0.0371329 -4.60959e-22)
(1.00728 0.0221428 -1.79638e-21)
(0.737115 0.41021 -3.88613e-20)
(0.97294 0.0172507 0)
(1.01885 0.0132482 0)
(0.877449 0.868994 0)
(0.999437 0.0032733 1.11054e-20)
(1.00005 0.00064637 -4.59544e-21)
(0.999897 0.0015099 0)
(1.34947 0.0418438 1.77472e-19)
(1.01684 0.000366976 0)
(0.978296 0.257821 0)
(1.10556 0.462028 -1.38016e-19)
(0.955235 0.0187187 0)
(1.25598 -0.0196804 0)
(0.97826 0.0101773 1.57365e-20)
(1.00101 0.007636 -4.74695e-21)
(1.17544 0.0911336 1.54756e-21)
(1.01077 0.0145489 5.97837e-22)
(1.05006 0.075267 0)
(0.953361 0.0257525 -3.66026e-20)
(1.2118 0.400435 0)
(1.08306 -0.0180378 1.21919e-20)
(0.951362 0.0778993 8.67617e-21)
(1.08385 0.00344074 -5.78092e-22)
(1.23987 -0.0719735 -2.07575e-20)
(1.00435 0.0209061 -2.30761e-21)
(1.23755 -0.00154749 8.94447e-21)
(1.04068 -0.00284202 7.97491e-21)
(1.0302 0.0140426 1.15941e-20)
(0.857354 0.412344 4.02626e-20)
(1.00558 0.0116667 2.80758e-21)
(1.04007 -0.00298766 -2.86341e-20)
(1.03585 0.0153533 0)
(1.0251 0.0876869 -6.68456e-21)
(1.01734 0.0149925 -1.97776e-21)
(1.0178 0.000731946 2.67242e-21)
(1.05286 0.0176497 -1.2855e-20)
(1.04409 -0.012552 -1.50561e-20)
(0.9958 0.00515454 0)
(0.997851 0.0372975 7.83782e-21)
(1.01378 0.0378942 7.86749e-23)
(1.04628 0.0791496 1.4494e-20)
(1.00342 0.0196312 1.91776e-22)
(0.997117 0.00490698 0)
(1.01404 0.00113987 -1.75772e-21)
(0.994483 0.0557921 5.3879e-22)
(1.04107 -0.000184126 1.32433e-20)
(1.00004 0.00041101 -3.51282e-21)
(1.01645 0.0013617 0)
(1.00314 0.0271368 -3.49793e-21)
(1.00101 0.0802324 -2.23004e-21)
(1.2291 0.412302 0)
(1.21313 -0.0130697 -5.8705e-20)
(-0.323277 -0.0286368 7.18574e-20)
(0.920529 0.17998 0)
(0.944345 0.173721 -1.15573e-20)
(0.965098 0.0635723 -2.88472e-20)
(1.12699 -0.0489131 0)
(1.18514 -0.193839 0)
(1.05121 0.0178468 5.46986e-21)
(0.994742 0.0109709 -6.15855e-21)
(1.0176 0.000751725 5.54829e-21)
(1.03286 0.0582402 6.11425e-21)
(1.01695 0.0144371 4.24954e-21)
(1.1841 -0.126536 -1.0414e-20)
(1.04827 0.0027008 0)
(0.998405 0.0147149 -4.98711e-21)
(0.999939 0.00134359 0)
(0.892485 0.161313 0)
(1.04169 -0.000707012 0)
(1.11757 0.442851 9.48917e-20)
(0.937571 0.179332 2.27398e-20)
(1.2554 0.199699 0)
(1.05703 0.0372361 -1.98399e-20)
(1.04273 -0.0127171 -2.51873e-20)
(1.01594 0.0139873 -4.71103e-22)
(1.0605 0.00201432 0)
(1.03547 0.0024476 2.4539e-21)
(1.08 0.0974138 0)
(0.992035 0.0230683 0)
(1.08297 0.0109163 1.27264e-20)
(-0.175976 0.0289248 -3.18768e-19)
(1.01834 0.01297 -1.97955e-22)
(1.03253 0.0173453 -4.08979e-20)
(1.21001 -0.1863 0)
(1.12288 -0.0447345 1.96256e-20)
(1.02301 0.0357454 -4.09805e-21)
(0.997637 0.00489291 7.98587e-21)
(1.00144 0.0771289 5.45352e-21)
(1.01666 -0.228926 2.01622e-19)
(1.15102 0.0241162 -2.36747e-20)
(1.25872 0.102015 1.49282e-19)
(1.0005 0.000532446 -5.66115e-21)
(1.01658 0.00182387 5.80189e-21)
(1.00477 0.0215334 0)
(1.02988 0.0153018 3.59206e-22)
(1.23777 -0.0769765 1.66103e-20)
(0.995921 0.0187614 0)
(0.997981 0.00548645 2.62791e-22)
(1.00578 0.0133655 0)
(0.978086 0.00892139 0)
(1.07484 -0.0248994 5.44215e-20)
(0.974261 0.0695592 0)
(1.13901 0.22694 0)
(0.926977 -0.0634537 1.21121e-19)
(0.966497 0.0457799 -2.67623e-20)
(1.33545 -0.070591 -7.46047e-20)
(1.0032 0.0182156 6.02752e-21)
(1.05923 0.00263694 6.86966e-21)
(0.998813 0.00328964 -1.4054e-21)
(-0.328406 0.0199035 0)
(1.21708 0.138041 3.12004e-20)
(1.39788 0.138372 -1.57308e-19)
(-0.256711 0.18548 6.07966e-20)
(1.0163 0.00546428 -1.88445e-21)
(1.04835 0.00200212 1.45854e-20)
(1.00323 0.0289843 0)
(0.985561 0.0753557 2.07808e-20)
(1.08485 0.00623511 6.05803e-22)
(1.00006 0.001331 0)
(1.06981 0.112131 1.88865e-20)
(1.01098 0.00137134 0)
(1.01812 0.00048473 -2.81104e-21)
(0.995924 0.0358235 3.40712e-23)
(1.14613 0.234748 0)
(0.999988 0.000406826 0)
(1.05367 0.0354381 -9.42881e-21)
(0.981851 0.0192642 1.49654e-20)
(0.97634 0.0675849 4.83802e-22)
(-0.240226 0.018364 -6.06101e-20)
(1.00297 0.0189179 -6.54353e-21)
(0.999558 0.00280964 -5.7365e-21)
(1.00302 0.0017715 -8.4136e-23)
(1.03386 0.0141801 -1.01802e-21)
(1.09806 0.140203 0)
(1.17639 -0.045423 -9.52331e-20)
(0.954004 0.17704 -5.09443e-21)
(1.27252 -0.0521768 1.20097e-19)
(1.0775 -0.0235212 -4.38308e-20)
(1.07699 0.0413864 0)
(0.981092 0.0202535 1.61522e-20)
(1.01751 0.00106207 -1.57787e-21)
(1.03794 0.0290165 0)
(1.00004 0.000457055 -1.3372e-22)
(1.26758 -0.0484519 1.06771e-19)
(0.992535 0.0237663 0)
(1.02551 0.0422702 -2.80023e-21)
(1.07301 -0.123951 -5.67685e-20)
(1.00671 0.0224774 1.89945e-21)
(0.99057 0.082284 -4.68906e-21)
(0.975746 0.0544377 -1.61277e-20)
(1.07814 -0.130152 6.71686e-20)
(1.03621 0.00834441 -1.22383e-20)
(0.95254 0.0750098 1.27476e-20)
(1.06814 0.191087 -7.04435e-21)
(1.06491 0.112309 -1.39847e-20)
(1.03725 0.0549885 0)
(0.99443 0.00945469 -7.8503e-22)
(1.29658 -0.0568094 7.93252e-20)
(1.15987 0.114228 2.14314e-20)
(1.04279 0.0107745 0)
(1.09785 0.13334 -2.71928e-20)
(1.00197 0.00875261 0)
(1.00552 0.0111998 -2.76343e-21)
(1.00219 0.00866688 0)
(0.98758 0.082725 1.13283e-20)
(1.36899 0.157069 -1.38822e-19)
(1.04652 -0.0058537 -1.39081e-20)
(1.00006 0.00111355 0)
(0.968768 0.0459203 3.36678e-20)
(1 0.00011951 -8.70826e-21)
(0.999999 0.000799679 7.62595e-21)
(0.724087 0.350487 0)
(0.995225 0.00991149 1.95718e-20)
(1.02386 0.0094203 6.17717e-21)
(-0.131444 0.044307 2.54107e-19)
(1.0068 0.0077826 9.38693e-22)
(1.25924 -0.127988 0)
(1.26455 -0.0536306 0)
(0.870813 0.0957283 0)
(0.874166 -0.233426 6.77515e-20)
(-0.319301 -0.0301059 -1.28601e-19)
(1.01938 0.1066 1.47797e-21)
(0.832959 0.410688 -2.34404e-20)
(0.999369 0.00303925 -5.62316e-21)
(1.06112 -0.060767 3.63158e-20)
(0.999997 0.000251304 -1.07225e-22)
(0.979353 0.0358554 0)
(1.08887 -0.195282 -8.83366e-20)
(1.00086 0.00559575 7.05325e-21)
(0.983436 0.0775884 -1.1809e-20)
(0.620793 1.04862 0)
(1.01559 0.000506855 0)
(1.00468 0.00582022 0)
(0.787708 0.151296 -5.70433e-20)
(0.832206 0.761002 0)
(1.02553 0.039552 0)
(1.02671 0.00368868 0)
(-0.177148 0.0264361 -2.04874e-19)
(1.22111 0.147412 1.6402e-20)
(1.00606 0.0125836 1.08334e-21)
(0.742224 0.220859 5.29663e-20)
(-0.209625 -0.0191152 0)
(1.01128 0.0147892 -2.5141e-22)
(1.00003 0.00078654 0)
(1.02041 0.0105301 3.89972e-21)
(1.00028 0.016572 -5.43463e-21)
(1.01807 0.000587253 2.94719e-21)
(1.01824 0.0122421 0)
(1.31045 -0.063079 -6.64261e-20)
(1.23768 -0.108753 0)
(0.978879 0.0373599 1.04639e-20)
(1.10334 -0.0479765 -1.51078e-19)
(1.0171 0.000947438 -2.99247e-21)
(0.99596 0.0178698 5.61314e-21)
(1.34277 0.212117 4.3029e-20)
(1.03884 0.0113794 2.58036e-20)
(1.25881 -0.119583 0)
(1.15642 0.022403 0)
(0.9735 0.0506862 1.77904e-20)
(1.02469 0.00748054 5.47939e-21)
(1.02623 0.00374142 5.61883e-21)
(1.1149 0.351652 2.9957e-20)
(1.04168 0.000748482 8.1258e-21)
(1.01524 0.108814 -3.35443e-21)
(0.999748 0.0497688 5.07566e-22)
(-0.305161 0.00122763 1.47139e-19)
(0.957328 0.0175118 0)
(1.47015 0.149194 6.45578e-20)
(0.968285 0.0595036 0)
(1.00345 0.00733449 -2.26262e-21)
(1.00358 0.0209705 -3.04469e-21)
(1.29666 0.349683 -9.94831e-20)
(1.00301 0.00716963 -6.99782e-21)
(0.913187 0.0388859 0)
(0.999048 0.0222603 5.38418e-21)
(1.03552 0.00854811 9.80583e-21)
(-0.140124 0.0248648 2.25213e-19)
(1.06911 0.0229499 -2.28636e-20)
(0.991296 0.00662763 -2.02348e-20)
(1.0112 0.000839598 0)
(-0.232352 0.0335453 -7.88547e-20)
(0.999561 0.0157116 -8.22954e-21)
(1.07094 0.0238067 2.95298e-20)
(1.02893 0.0602733 0)
(1.01633 0.0144772 -1.31765e-21)
(1.27517 -0.0359504 0)
(0.873012 -0.222397 -7.46688e-20)
(1.0054 0.00679114 -1.18708e-21)
(0.969413 0.0201464 0)
(1.0477 -0.00621686 0)
(1.01634 0.00159306 -3.16178e-21)
(1.00037 0.00739612 -1.42806e-21)
(0.992925 0.002105 0)
(-0.231058 0.0326874 -7.57165e-23)
(0.994381 0.00200779 -1.15854e-20)
(1.01721 0.000472556 1.53001e-21)
(0.98513 0.117246 7.13548e-21)
(1.22436 -0.114497 -7.29911e-20)
(1.16516 0.0822323 -6.85469e-20)
(1.00003 0.000500165 8.97946e-21)
(1.07645 0.0895693 0)
(-0.159131 0.000953377 0)
(1.07546 -0.0286888 -4.9918e-20)
(0.989478 0.00274963 1.09946e-21)
(0.994738 0.00897261 7.84074e-22)
(1.22784 -0.0427708 7.1809e-20)
(1.04176 0.0107609 0)
(1.00338 0.00700212 3.72415e-21)
(0.908527 0.0931132 2.85997e-20)
(1.03092 0.0156099 1.14497e-20)
(1.01783 0.012034 0)
(0.951534 0.0276113 0)
(1.01861 0.00534805 -3.19769e-21)
(0.979532 0.1824 0)
(0.994201 0.0117889 3.99311e-21)
(1.00283 0.00726233 1.80051e-21)
(-0.366198 0.0029592 -8.06445e-20)
(1.00941 0.00572513 3.17761e-22)
(1.04026 0.00124528 1.33531e-20)
(1.00104 0.00539735 -7.8257e-21)
(1.00063 0.0479716 0)
(1.07194 0.105993 -1.66778e-20)
(1.00517 0.00662989 0)
(1.033 0.0142943 0)
(1.38519 0.154686 1.03404e-19)
(1.00427 0.0533514 0)
(0.894986 -0.0890578 1.01615e-19)
(1.05061 0.0195628 -6.1002e-21)
(1 0.000210947 0)
(1.00001 0.000183005 0)
(1.2308 0.178988 0)
(0.99088 0.0194739 9.64628e-21)
(0.991158 0.00625863 1.27185e-20)
(1.0026 0.00208054 1.56276e-21)
(1.04334 0.00936779 2.38391e-20)
(0.95995 0.105554 1.414e-20)
(1.16474 -0.139858 4.00996e-20)
(0.999031 0.0155774 -4.61526e-21)
(0.971658 0.179767 6.78665e-21)
(0.689832 0.844033 0)
(1.0731 -0.0302689 4.67348e-20)
(1.00004 0.000748793 0)
(0.992988 0.00477927 1.80402e-21)
(1.03799 0.00565389 -1.35201e-21)
(1.00021 0.00242348 -4.14761e-22)
(1.00195 0.0168534 -4.33116e-22)
(-0.0486173 0.161055 -1.29757e-19)
(-0.204344 0.0368218 3.70559e-19)
(1.0008 0.00536834 0)
(1.08183 0.0371717 0)
(1.06282 -0.0142996 -1.76076e-21)
(1.06138 -0.013334 -2.44208e-20)
(0.973642 0.0113968 0)
(1.01275 0.00130891 -9.32908e-22)
(1.2196 -0.107741 0)
(1.12368 0.339825 0)
(0.728302 0.821902 0)
(1.02408 0.00751274 4.63591e-22)
(1.03881 0.00589932 0)
(1.03795 0.011829 -2.49383e-20)
(1.00665 0.00801391 -1.79067e-21)
(-0.0305989 -0.0256978 1.09738e-19)
(1.08908 0.0967399 0)
(1.04344 0.0102496 -1.0755e-20)
(1.02261 0.0262195 3.28956e-21)
(1.00929 0.000598525 -1.28602e-22)
(0.975666 0.00913276 -7.67743e-21)
(1.22331 -0.107771 0)
(1.0696 0.0205239 0)
(0.99902 0.0029668 0)
(-0.270722 0.0243746 1.97101e-19)
(0.81527 0.713689 -3.77515e-21)
(1.07626 0.508057 0)
(1.0879 0.198941 -2.09295e-20)
(1.00036 0.00712193 1.27993e-21)
(1.02609 0.021554 -5.63398e-21)
(1.04328 -0.0683348 0)
(1.14641 0.106664 1.27545e-20)
(-0.0195504 0.048637 -9.28016e-20)
(0.337695 0.184183 -2.28946e-19)
(0.950601 0.0679416 5.34077e-20)
(0.908793 0.0371827 -3.76075e-22)
(1.00022 0.00201438 5.43814e-21)
(1.05287 0.0334671 0)
(0.970689 0.0206638 0)
(1.00025 0.00223493 -6.20154e-21)
(-0.346149 -0.00491582 1.35717e-19)
(1.01439 0.00122812 2.98394e-21)
(1.00283 0.017557 6.08093e-21)
(1.106 -0.0497792 3.0979e-20)
(1.00017 0.00225584 0)
(1.16338 -0.155624 7.97958e-20)
(1.04902 0.0194499 -5.61566e-21)
(1.17746 -0.0791654 1.34597e-19)
(1.03391 0.111367 6.04469e-21)
(0.999996 0.00142614 0)
(1.04963 0.00611974 -1.28187e-20)
(1.07179 0.0438165 2.61701e-20)
(1.03937 -0.0406622 -2.32038e-20)
(1.09102 0.192881 9.29806e-21)
(0.99012 0.323311 -9.06969e-21)
(0.99997 0.000447552 6.93247e-21)
(1.0526 -0.0583876 0)
(1.03505 0.0496052 1.27823e-20)
(1.01621 0.0293713 -6.26005e-22)
(1.00097 0.00321761 6.52847e-22)
(1.03822 0.0301829 -1.79353e-21)
(0.996187 0.0022911 0)
(0.9495 0.0713478 0)
(1.16449 0.0776602 9.01383e-20)
(0.854954 0.156074 -6.67211e-20)
(0.99896 0.00261355 9.60586e-21)
(1.00341 0.0551263 1.67271e-21)
(1.00266 0.00192428 0)
(0.991192 0.00967244 1.02542e-20)
(0.816556 0.391179 8.08675e-21)
(1.00416 0.00476617 -1.70268e-21)
(1.02496 0.0618143 5.33132e-22)
(1.17377 -0.117765 5.98456e-20)
(1.01824 0.00518527 0)
(1.14723 0.113531 -1.55261e-20)
(1.03797 -0.0937682 -3.39697e-20)
(0.997381 0.00473489 0)
(-0.01727 0.0597822 0)
(1.11059 -0.00637867 5.80817e-20)
(1.0001 0.00239359 0)
(1.26641 -0.0046546 7.20757e-20)
(1.0374 0.0145027 0)
(1.00003 0.00053825 4.81014e-21)
(0.980254 0.0143782 -1.50584e-20)
(0.994325 0.00424307 1.66504e-21)
(0.999992 0.000205879 -6.5299e-21)
(1.05545 0.042172 -9.80439e-21)
(0.97444 0.0089861 0)
(0.866505 0.661348 -2.40404e-20)
(0.989881 0.0555181 0)
(0.99346 0.0050598 1.68441e-21)
(1.02807 0.0379593 0)
(1.07655 0.10566 1.02262e-20)
(1.09723 0.0140942 0)
(0.993675 0.00282665 -1.64944e-21)
(1.05465 0.00159271 -1.77905e-20)
(1.02542 0.0217508 0)
(1.07842 -0.0152405 -3.77084e-20)
(0.981259 0.00808061 -3.45145e-21)
(1.03065 0.115277 -4.57635e-21)
(1.02447 0.00961208 -3.46188e-21)
(0.945574 0.0204828 -2.13598e-20)
(1.02551 0.00421177 5.07389e-21)
(1.00261 0.00898282 0)
(1.05477 -0.0675553 0)
(1.01997 0.0107896 0)
(0.81874 0.370938 0)
(0.992792 0.00255306 0)
(1.04622 0.00731025 -1.06172e-20)
(1.00997 0.0054963 -1.7319e-23)
(1.09143 -7.7336e-05 -1.59698e-20)
(1.00096 0.00520469 0)
(1.11461 -0.00607793 -5.3589e-20)
(1.02397 0.0347315 -5.99496e-22)
(1.26153 0.000212752 -6.33028e-20)
(1 0.00101514 4.07822e-21)
(1.18185 -0.170154 6.55129e-20)
(1.02735 0.00290858 0)
(0.975137 0.0647343 1.49964e-20)
(0.999967 0.000677801 0)
(0.977241 0.0111239 0)
(1.00179 0.00838954 0)
(1.0541 0.0431014 9.74162e-21)
(0.99632 0.00284657 1.02036e-20)
(0.66514 0.29064 7.0467e-20)
(0.649259 0.487119 1.40173e-19)
(1.15554 -0.16167 -6.64972e-20)
(1.05807 0.0145924 2.07982e-20)
(0.958934 0.170361 9.62896e-21)
(1.00864 0.0224086 0)
(1.00033 0.181009 0)
(1.11514 -0.0481274 -3.32698e-20)
(1.00235 0.00494729 -5.41739e-21)
(0.915227 0.0930142 0)
(0.985551 0.339965 0)
(0.0317297 0.0382579 0)
(1.03173 -0.0914504 1.67551e-20)
(1.46401 0.245238 -5.43187e-21)
(1.07508 0.0442962 -2.68272e-20)
(1.00162 0.0414243 8.07444e-22)
(1.00011 0.00163873 0)
(1.05775 0.0021706 0)
(1.05635 0.038956 0)
(1.04235 -0.0350271 -1.59398e-21)
(1.01597 0.00516243 3.17562e-21)
(1.04036 0.0520496 -1.1366e-21)
(1.21019 -0.00709156 -6.85363e-20)
(1.00004 0.000186471 3.97571e-21)
(0.991012 0.0091073 -1.53564e-20)
(1.05557 0.000340427 1.72661e-20)
(0.452797 -0.0470066 0)
(0.977254 0.0628743 -1.41349e-20)
(1.07286 0.0870845 3.56438e-21)
(1.03783 -0.0679711 -2.67916e-20)
(0.999989 0.00122591 0)
(1.00049 -0.14075 7.46146e-20)
(1.01582 0.00604498 -1.60202e-21)
(1.00662 0.0135484 0)
(1.00873 0.0501487 -3.45639e-21)
(1.03114 0.0162871 -1.1982e-20)
(-0.303996 0.0236505 0)
(1.11353 -0.0629573 0)
(0.29671 -0.0231966 -1.15258e-19)
(1.00194 0.000772419 -3.5092e-21)
(1.40383 0.36182 1.90121e-21)
(0.0281918 0.0684734 0)
(1.2615 -0.0542667 4.73671e-20)
(1.04438 -0.0343266 0)
(1.12641 -0.0531175 -3.65117e-20)
(1.23168 -0.00545904 0)
(1.03167 0.181081 1.12223e-20)
(0.981351 0.0180509 1.60785e-20)
(0.998632 0.0229601 -5.68998e-21)
(0.906078 0.0991746 -3.34724e-20)
(-0.357422 0.0164737 8.93277e-20)
(1.01005 0.0225246 -2.21078e-21)
(0.98335 0.122101 0)
(0.780734 -0.0638725 0)
(0.994061 0.0128607 -8.82744e-21)
(1.00336 0.00965589 -1.03317e-21)
(1.0158 0.0301275 0)
(0.994155 0.0602177 6.0462e-21)
(1.00161 0.00849931 -5.78218e-21)
(1.03705 0.0072904 1.30403e-20)
(1.22254 0.187149 7.34928e-20)
(1.42444 0.037282 1.412e-20)
(1.0363 0.0074319 1.0387e-20)
(1.00111 0.00736946 3.9713e-21)
(-0.252717 0.0219835 0)
(0.382067 -0.0421822 0)
(1.00807 0.0228151 0)
(0.990135 0.00258621 -1.08098e-21)
(1.0006 0.000766854 -1.98649e-21)
(0.999733 0.0164476 8.94726e-21)
(1.35087 0.223966 -5.75637e-20)
(1.10926 -0.06649 0)
(1.08049 0.460011 2.27791e-20)
(0.991346 0.0535229 0)
(1.00336 0.0100433 4.32493e-21)
(1.03133 0.0120576 -6.49017e-21)
(0.948576 0.0163193 2.06088e-20)
(0.998138 0.00506054 0)
(1.08593 -0.00674502 -8.42372e-20)
(0.970404 0.0430103 -1.89879e-20)
(0.774756 -0.0593172 -1.49843e-19)
(1 0.00742041 1.84278e-22)
(1.00149 0.0038453 -5.53146e-21)
(1.07179 0.16011 0)
(1.00982 0.0216109 1.05896e-21)
(1.05718 -0.0298334 2.82187e-20)
(0.909342 0.291317 2.50867e-20)
(1.04848 0.00680951 -1.02707e-20)
(0.773553 0.635535 -7.18476e-20)
(0.196042 -0.00121106 0)
(1.00012 0.0415876 -4.77723e-21)
(1.00224 0.0175484 4.47245e-22)
(1.30571 -0.0751584 -5.88539e-20)
(-0.359324 0.0163425 0)
(1.00862 0.161519 -1.04427e-21)
(1.03648 0.0144321 0)
(1.23853 -0.0916709 0)
(0.785875 0.442544 0)
(0.918235 0.0454452 0)
(0.982154 0.0170332 0)
(1.00287 0.00154733 -1.48e-21)
(1.00431 0.00513621 3.24587e-21)
(1.14133 0.444268 9.54814e-20)
(1.05715 0.0154528 -2.05953e-20)
(0.80247 0.329334 5.71225e-20)
(1.00003 0.00058584 -6.02173e-22)
(-0.228144 0.0029193 0)
(1.36197 0.144834 -4.51437e-20)
(0.993015 0.004327 1.27194e-20)
(0.998042 0.00754741 0)
(0.677248 0.276791 -6.78346e-20)
(0.999441 0.00344887 -1.1636e-20)
(1.01032 0.0055681 -6.78669e-23)
(1.0095 0.0867334 -2.19496e-21)
(-0.0738071 0.0092569 0)
(0.100276 0.0443117 0)
(1.17876 -0.0655981 -5.03856e-20)
(1.03986 0.00201971 -1.17389e-20)
(1.132 -0.0292986 5.19832e-20)
(1.03055 0.172563 -9.78147e-21)
(1.01399 0.00487268 -8.33366e-23)
(1.00877 0.000371554 4.96647e-23)
(0.999658 0.0023802 -1.08412e-20)
(1.15217 0.425653 -1.0234e-19)
(1.00025 0.00179531 -2.47195e-21)
(0.993488 0.00552897 0)
(1.12918 -0.0313341 2.35247e-20)
(0.975091 0.0131146 0)
(1.17069 0.0965458 -3.59661e-20)
(1.00109 0.00101654 2.21307e-21)
(0.998661 0.00369298 -7.39809e-21)
(1.01128 0.00113667 -8.90849e-22)
(0.999112 0.00253 -3.04245e-21)
(1.21821 -0.0477246 0)
(1.00027 0.00199378 -2.86683e-21)
(1.00254 0.0260754 0)
(1.11695 0.00893554 3.80343e-20)
(0.963207 0.258325 0)
(0.860875 0.564738 -3.23761e-21)
(1.00014 0.00233239 6.37106e-21)
(1.20428 0.0532301 0)
(0.281444 -0.0232021 0)
(0.931089 -0.0981236 -2.31251e-19)
(0.971156 0.0518472 7.197e-22)
(-0.28004 0.0249666 0)
(-0.120961 0.00887322 -3.45148e-19)
(0.994348 0.0125329 0)
(1.01664 0.00272466 -3.52688e-21)
(0.986895 0.0528732 0)
(0.950035 0.0404978 -3.00729e-20)
(0.107801 0.0600032 3.99166e-20)
(1.03118 0.0607115 0)
(1.00094 0.00301262 -5.23749e-21)
(1.00023 0.00191362 2.66952e-21)
(0.391742 -0.0381323 -9.98744e-20)
(1.00084 0.172645 0)
(1.03905 0.00195716 1.22524e-20)
(1.00075 0.00260806 0)
(0.989862 0.00379366 2.4423e-22)
(1.10498 0.130015 -1.41671e-21)
(1.00978 0.00584132 -4.9351e-23)
(1.00718 0.000560579 0)
(1.07688 -0.0129616 4.3299e-20)
(0.993066 0.0580361 -6.35901e-21)
(0.999732 0.00212274 -1.01886e-20)
(1.02725 0.0176863 0)
(0.754608 0.699004 3.84212e-22)
(1.03191 0.0179545 0)
(0.997883 0.0577022 -3.28785e-22)
(0.995939 0.00203663 0)
(1.00371 0.0493178 0)
(1.25168 0.12553 4.6168e-20)
(1.00018 0.0024917 -6.98678e-21)
(0.9815 0.0588787 -2.73234e-21)
(0.997657 0.00323446 -1.05383e-21)
(1.06571 0.0196731 0)
(0.670792 0.617758 0)
(0.999999 0.000146572 -4.65302e-21)
(0.873309 0.540515 3.57153e-21)
(1.05114 0.0724502 0)
(0.115907 0.0574782 -8.63681e-20)
(1.01564 0.000570948 1.40977e-21)
(1.03691 0.0569845 0)
(1.07401 -0.0129687 -3.89892e-20)
(1.2047 0.0577842 -6.4594e-20)
(0.790885 0.164805 5.98985e-20)
(0.96991 0.0415323 3.84026e-21)
(1.44479 0.230424 1.69463e-19)
(1.24664 -0.167481 1.1593e-19)
(0.962804 0.0290581 1.21678e-20)
(1.01117 0.000639029 -9.02362e-22)
(1.2592 -0.0594422 -4.53e-20)
(0.997618 0.00254902 -1.65382e-20)
(1.00005 0.00114779 0)
(1.01413 0.0139358 1.23995e-21)
(1.00008 0.00129224 0)
(1.14478 0.0328625 -3.46507e-20)
(1 2.10759e-05 0)
(0.999988 0.000201457 0)
(0.895571 0.287357 -4.34609e-20)
(1.03232 0.106504 -5.49068e-21)
(1.01374 8.79547e-05 4.34195e-21)
(0.935566 0.129058 3.60899e-20)
(0.952986 0.0231879 1.66193e-20)
(1.06984 -0.0534417 5.4234e-20)
(1.05191 0.0145105 0)
(0.850969 0.631521 1.82097e-20)
(1.00049 0.0173144 -3.10475e-21)
(1.10968 -0.0465279 6.74341e-20)
(1.00822 0.169685 -8.51916e-22)
(0.600099 -0.0468504 2.00618e-22)
(1.06032 0.0247412 0)
(-0.0945327 -0.020313 -2.22489e-19)
(1.00002 0.00060985 0)
(1.04711 -0.00964646 3.54871e-20)
(1.00208 0.00284037 1.9551e-21)
(1.00218 0.0398684 0)
(0.98998 0.0196269 -1.01845e-20)
(1.17166 -0.0791674 -9.95877e-20)
(0.87325 0.163659 3.04766e-20)
(1.04547 -0.0543299 0)
(-0.364533 -0.00373318 -2.00606e-19)
(1.0009 0.00340601 0)
(0.990027 1.00393 0)
(1.04458 -0.0109645 1.32653e-20)
(1.02259 0.0207397 3.05711e-21)
(0.875727 0.0833089 -5.08191e-20)
(1.08994 0.0304861 -4.73743e-20)
(0.187216 0.00629518 0)
(0.997751 0.00760948 -2.31273e-21)
(0.955376 0.105572 1.88601e-20)
(0.958188 0.245119 1.05252e-20)
(1.0273 0.062356 4.59858e-21)
(0.845011 0.159274 8.7614e-20)
(1.00001 0.000248727 4.44656e-21)
(1.01561 0.00302628 -1.73693e-21)
(1.00001 0.000225992 1.90443e-22)
(1.02678 0.502885 0)
(0.999353 0.00397816 -1.13386e-20)
(1.0022 0.00546399 0)
(1.01316 0.0133054 1.30182e-26)
(1.01036 0.00105717 -7.28457e-22)
(1.0024 0.00902875 0)
(1.00083 0.00762986 6.23946e-21)
(1.02889 0.0394706 0)
(1.00419 0.0146566 -6.90526e-22)
(0.999358 0.00326373 7.90871e-22)
(0.957501 0.0151236 1.71649e-20)
(1.01243 0.0888609 -5.76926e-22)
(0.941399 0.126309 -2.40224e-20)
(0.994245 0.00236109 0)
(0.165778 0.040839 7.74126e-20)
(1.00512 0.0355163 -8.86901e-22)
(1.38421 0.353422 6.87119e-20)
(0.910939 0.164761 -3.54076e-20)
(-0.107694 0.0567582 8.33581e-20)
(1.10704 0.0677151 -1.67213e-20)
(1.04673 -0.00875154 2.58824e-20)
(-0.200646 0.034604 -1.79656e-19)
(1.10022 0.0152856 3.5942e-20)
(1.06514 0.485718 -3.18702e-20)
(1.14488 -0.0978679 -4.44326e-20)
(1.10489 0.123668 -3.32132e-20)
(1.00024 0.00210163 1.79245e-22)
(1.0057 0.0128023 -2.11825e-21)
(1.0101 0.0601109 0)
(1.25749 0.119091 -1.03844e-19)
(1.01486 0.0302351 0)
(-0.0329645 0.0356996 1.22336e-19)
(1.00627 0.0285242 -3.11084e-21)
(1.01444 0.746389 -9.67637e-20)
(1.15736 -0.177544 -6.3176e-20)
(1.03516 -0.062885 5.3526e-20)
(1.04838 0.0208924 -5.18115e-21)
(-0.0571191 0.0520568 0)
(-0.210246 0.0505464 1.44692e-20)
(0.942781 0.021433 2.44915e-20)
(0.993975 0.00356018 2.71071e-20)
(0.999993 0.000893395 0)
(1.05514 0.0030543 0)
(1.01583 0.00290898 8.88001e-22)
(1.01246 0.00104577 1.54299e-21)
(1.1301 0.17124 -2.8392e-20)
(1.07784 -0.200247 -3.92184e-20)
(0.997728 0.00301291 7.7225e-21)
(1.01391 0.0297857 -9.47308e-23)
(0.959591 0.0142078 0)
(1.30311 0.339182 -9.32903e-20)
(1.04634 -0.0732212 0)
(0.999736 0.0037052 -4.90333e-21)
(1.04894 0.0692548 0)
(1.19292 0.0146046 -4.82083e-21)
(1.0009 0.0515078 -4.95151e-22)
(1.00077 0.0066876 4.82502e-21)
(-0.0896729 0.0349525 -1.2282e-19)
(0.989667 0.0438711 0)
(0.996418 0.0192636 0)
(0.883726 1.04178 0)
(1.00439 0.0758052 3.11406e-21)
(0.97918 0.00808607 0)
(-0.163697 0.0314523 -1.76438e-19)
(0.733215 -0.185509 0)
(0.0996333 0.0776159 0)
(0.991601 0.0109496 -9.89175e-21)
(0.982222 0.0616427 1.31987e-20)
(1.26879 -0.0366006 0)
(1.01353 0.0138655 1.23232e-23)
(1.02233 0.0273033 -3.17454e-21)
(0.999993 0.000410383 0)
(1.04859 -0.0200086 -1.96188e-20)
(0.99822 0.0055806 0)
(1.00116 0.000956057 2.48191e-21)
(1.04006 -0.00394555 1.95224e-20)
(0.799108 0.141387 -5.34942e-20)
(0.939951 0.460352 1.56299e-21)
(1.00984 0.0146887 1.09463e-21)
(0.982935 0.0129642 0)
(0.99752 0.00208224 0)
(1.02168 0.025489 -5.68355e-21)
(0.988407 0.0510426 0)
(1.01477 0.00332225 -1.37628e-21)
(1.2249 -0.001897 -6.95722e-20)
(1.01501 0.114089 1.95346e-21)
(0.995007 0.0310702 -8.28318e-21)
(0.996192 0.00657782 6.34806e-21)
(1.01094 0.0137344 1.05705e-21)
(1.00307 0.00506212 5.57827e-21)
(1.03546 0.0369194 -7.6496e-21)
(-0.0364888 0.0124814 0)
(1.07928 0.00724849 -3.18418e-20)
(1.02679 0.00323964 -3.10971e-21)
(0.99468 0.00988686 -6.10733e-21)
(0.86297 0.16588 0)
(0.478221 -0.0301214 0)
(0.996632 0.0028045 6.49578e-22)
(1.00297 0.00478838 -7.40269e-21)
(0.996075 0.00259106 -1.20925e-20)
(1.02606 0.00418746 0)
(1.48396 0.218871 3.83142e-20)
(1.04996 -0.0542348 0)