/*--------------------------------*- C++ -*----------------------------------*\
| =========                 |                                                 |
| \\      /  F ield         | OpenFOAM: The Open Source CFD Toolbox           |
|  \\    /   O peration     | Version:  v2012                                 |
|   \\  /    A nd           | Website:  www.openfoam.com                      |
|    \\/     M anipulation  |                                                 |
\*---------------------------------------------------------------------------*/
FoamFile
{
    version     2.0;
    format      ascii;
    class       volScalarField;
    location    "300";
    object      nut;
}
// * * * * * * * * * * * * * * * * * * * * * * * * * * * * * * * * * * * * * //

dimensions      [0 2 -1 0 0 0 0];


internalField   nonuniform List<scalar> 
10042
(
0.0102049
0.0169694
0.00451253
0.00670812
0.00674473
0.0121284
0.00234406
0.0184989
0.00669167
0.00159177
0.00816163
0.0172415
0.0015926
0.00678352
0.00677518
0.00678272
0.015496
0.0063072
0.00308669
0.00349078
0.00150995
0.00899897
0.00670742
0.0142359
0.00672205
0.00702964
0.00168622
0.0066826
0.012423
0.0159122
0.00696958
0.00435329
0.00668809
0.00668709
0.0180591
0.0172953
0.00681448
0.00668827
0.00687285
0.00680687
0.0148209
0.0066879
0.00396065
0.0127966
0.00671195
0.00672378
0.00667813
0.00676873
0.00139145
0.032969
0.00518884
0.00670584
0.0146539
0.00338291
0.0145113
0.00115083
0.00158731
0.00678995
0.00679803
0.00667204
0.00140784
0.00316301
0.0011823
0.0217016
0.00718013
0.00681367
0.00426474
0.00996646
0.00667795
0.0101856
0.0155701
0.00681768
0.00671762
0.00679238
0.00680329
0.0103479
0.00692764
0.00667816
0.00680854
0.00312559
0.0104714
0.0142565
0.00707581
0.00670571
0.0016348
0.00198296
0.0050001
0.00457807
0.00675184
0.00723307
0.00206271
0.00677584
0.00137094
0.00195499
0.00729005
0.0067545
0.0227002
0.00384258
0.0105192
0.00678537
0.00239651
0.00199593
0.00681034
0.00493117
0.00280207
0.00678736
0.0273498
0.00679173
0.00226699
0.00679464
0.00678427
0.00226105
0.00193512
0.0200056
0.00732161
0.00667978
0.00624367
0.00693542
0.00649445
0.0066812
0.00667124
0.0227055
0.0238174
0.00671415
0.00712676
0.00676522
0.00676996
0.0125363
0.00015134
0.00614398
0.00669384
0.00677393
0.00679197
0.00677131
0.00219594
0.00980566
0.00510767
0.0264172
0.00416068
0.0120217
0.00101962
0.0067502
0.0275613
0.006683
0.00210494
0.00668876
0.00188272
0.00667766
0.00678808
0.0123487
0.00678098
0.00685889
0.00390018
0.00137088
0.00705585
0.00213221
0.000221014
0.00180862
0.00678947
0.0070455
0.00688848
0.0069419
0.00755655
0.00675828
0.00513768
0.0111124
0.00671665
0.00475427
0.017184
0.00668506
0.00336404
0.0169444
0.0268622
0.00668576
0.00322764
0.0262202
0.00672316
0.00668872
0.00676119
0.00667779
0.00446459
0.00248699
0.00679115
0.00667775
0.018689
0.00229786
0.0068164
0.0066815
0.0405574
0.00683986
0.0153843
0.00149793
0.00669649
0.00269361
0.0142589
0.00677377
0.0256632
0.00446254
0.0330947
0.00670761
0.00474217
0.000968962
0.00221501
0.00674976
0.0117348
0.00678774
0.0181681
0.00146189
0.0067778
0.00677621
0.00453169
0.0067279
0.0018954
0.00530139
0.0068353
0.00878365
0.00674681
0.0128365
0.0067471
0.00418773
0.0425085
0.00396847
0.0441274
0.00924695
0.00670863
0.000723267
0.00679568
0.00598957
0.00150306
0.00681245
0.0066893
0.00677797
0.00248743
0.00702111
0.00672346
0.0178817
0.00669297
0.0238439
0.00229151
0.014003
0.00789823
0.0183571
0.00667086
0.00698982
0.0187893
0.00675454
0.0176574
0.00253377
0.00364973
0.00681063
0.00274286
0.00670045
0.0109924
0.0164211
0.00678841
0.00671215
0.00688956
0.00677933
0.0212647
0.00671567
0.00720349
0.00669212
0.00670459
0.00667848
0.00149606
0.0183149
0.00713569
0.0115741
0.00701057
0.0067787
0.00672196
0.0256327
0.00675602
0.0275346
0.00678352
0.00546895
0.00446922
0.00671402
0.0070165
0.0156884
0.0066822
0.0181987
0.0207907
0.00511301
0.00688813
0.0285925
0.00437355
0.00668192
0.00495177
0.00691419
0.00152947
0.00695226
0.0069142
0.0199226
0.00691914
0.00677911
0.0168735
0.00622688
0.0067226
0.00675624
0.00402039
0.00165573
0.00668303
0.00898834
0.00579227
0.00468923
0.00677648
0.00724254
0.0160679
0.0194067
0.0068652
0.0067571
0.00674945
0.00677903
0.00696929
0.00340868
0.00667847
0.0169369
0.0139135
0.00668022
0.00700357
0.0314599
0.00586502
0.0128898
0.0185293
0.00686456
0.00653237
0.00675918
0.00668176
0.00160539
0.00679059
0.00674963
0.00955093
0.006871
0.0161918
0.00360801
0.0287195
0.0109754
0.00670323
0.0100642
0.000979029
0.0013491
0.00667108
0.00711617
0.00695282
0.00668933
0.00673428
0.0067572
0.00687729
0.0300719
0.00664842
0.00812863
0.00683996
0.00677662
0.00322532
0.00583405
0.00679575
0.00706565
0.0317124
0.00701942
0.00677993
0.00682249
0.00521987
0.0147376
0.00973722
0.0046596
0.00672008
0.00681027
0.00683105
0.0052026
0.00667407
0.00709189
0.00676472
0.00702229
0.00179155
0.00679945
0.00575524
0.00247145
0.0162585
0.00178593
0.00676167
0.00678856
0.0015543
0.00675237
0.00122981
0.00668134
0.00678915
0.00667894
0.00678972
0.00668134
0.00678396
0.00316549
0.00672789
0.00533719
0.00954079
0.0126038
0.0067117
0.0182992
0.00683163
0.00355996
0.00670679
0.0407289
0.00699843
0.00961258
0.0170443
0.00678071
0.000985576
0.0068515
0.00602258
0.00678874
0.0207162
0.00193569
0.0189912
0.00679737
0.0228559
0.00687771
0.00179316
0.00670598
0.00667953
0.00686398
0.00684671
0.00975666
0.0066909
0.00667751
0.000986479
0.00686717
0.0016787
0.0204349
0.00671368
0.00141665
0.00687636
0.00667852
0.00183205
0.016904
0.00682899
0.00564319
0.00703485
0.00559814
0.00702563
0.00102066
0.0066838
0.00694045
0.00342156
0.039584
0.0155653
0.0260558
0.0223423
0.00510095
0.0204834
0.00667786
0.00611015
0.0181067
0.0186637
0.00139401
0.00670714
0.00673962
0.00764537
0.00268335
0.00667841
0.00675827
0.00699122
0.00671152
0.00685669
0.00687501
0.00678533
0.0043394
0.0055577
0.00463922
0.00694561
0.0044201
0.00429507
0.00670946
0.032894
0.00843803
0.0125185
0.00684279
0.00289435
0.00701647
0.0120908
0.00672674
0.00472654
0.00680101
0.00981097
0.00677948
0.00276808
0.00675911
0.00659172
0.0221932
0.00700318
0.00671582
0.00676271
0.0147022
0.00669146
0.00434578
0.00456273
0.000995485
0.00676034
0.00359087
0.0211692
0.00341092
0.00676354
0.00696059
0.0184112
0.0156044
0.00122952
0.00951405
0.00685394
0.00960377
0.00173818
0.00181117
0.00296492
0.0197538
0.00675569
0.00670674
0.00680335
0.0212218
0.00671311
0.00532097
0.00671098
0.00675188
0.00670965
0.00184007
0.00994592
0.00681112
0.00573645
0.012015
0.00543742
0.0019381
0.00680843
0.00678782
0.00956098
0.00379797
0.0067671
0.00669278
0.00395853
0.00676015
0.00674185
0.00677906
0.00669062
0.0185279
0.00671519
0.00149591
0.00738275
0.0437077
0.00671348
0.00283439
0.00676529
0.00670843
0.0115135
0.00667128
0.0112927
0.0011573
0.00668798
0.00711392
0.0297979
0.0100363
0.00615146
0.00687119
0.00669252
0.00667738
0.00677896
0.00715269
0.00679535
0.0216107
0.00674424
0.00676496
0.00241263
0.00260119
0.0068878
0.00703081
0.00670344
0.0021258
0.0147658
0.00728105
0.0213763
0.00671901
0.00275338
0.00670956
0.0066909
0.00677593
0.00675961
0.00677382
0.00685117
0.0358845
0.00679951
0.00204566
0.00670959
0.00710289
0.00667863
0.00209872
0.0114476
0.00668705
0.00671207
0.0165419
0.00325499
0.00667897
0.0174157
0.00672713
0.00770956
0.00668846
0.00685705
0.00670592
0.0291844
0.00667886
0.00676991
0.00681138
0.0181042
0.0070728
0.00677166
0.00686185
0.00580562
0.00671232
0.00672499
0.00674043
0.00672507
0.00268831
0.00672531
0.00702659
0.0067142
0.0192239
0.0128901
0.0176361
0.0067918
0.00303193
0.00674115
0.00522048
0.00681545
0.0139963
0.00855023
0.0152604
0.00653417
0.0171327
0.00671835
0.00675592
0.0236778
0.00545242
0.0067569
0.000869322
0.0067865
0.0154783
0.00671904
0.00676925
0.0067131
0.00668982
0.00687978
0.0234142
0.0049407
0.00700189
0.00794333
0.00673681
0.00722476
0.00680852
0.00502457
0.0070103
0.0068304
0.0149182
0.00676763
0.00674988
0.00223331
0.00675779
0.00671977
0.00697905
0.00672852
0.00670278
0.013209
0.00817008
0.0174001
0.00676156
0.00674511
0.00672481
0.0155121
0.00680666
0.00679991
0.00678998
0.00672301
0.0166963
0.0349835
0.00839248
0.00678856
0.00688263
0.0190523
0.00284475
0.00689563
0.00172831
0.0244321
0.00413676
0.0160202
0.00671809
0.00686044
0.00677548
0.0222662
0.00671643
0.00296098
0.00678619
0.00667212
0.00732195
0.0067973
0.0380008
0.0344784
0.00668234
0.00671189
0.00667672
0.0243274
0.00668973
0.0190976
0.00681494
0.0396744
0.00673846
0.00677228
0.00668744
0.00670662
0.00674592
0.00670606
0.0067278
0.00680539
0.00512396
0.003003
0.0183336
0.00671521
0.004477
0.026719
0.00684691
0.00142841
0.00670825
0.00680125
0.00705875
0.00690505
0.022687
0.00678472
0.00679482
0.00671482
0.0183718
0.00676522
0.0225857
0.00130677
0.00674481
0.00190662
0.0210319
0.00678638
0.00672043
0.000856315
0.00708795
0.00290624
0.00600779
0.00674459
0.00549807
0.00675684
0.00676907
0.0068087
0.00229491
0.00698012
0.0107456
0.00194076
0.00667262
0.00683099
0.00680647
0.00342781
0.00708484
0.017794
0.00678549
0.00677379
0.00784712
0.0067328
0.000953135
0.00165206
0.00690007
0.0220251
0.00698928
0.00676156
0.00680673
0.00160477
0.00678612
0.00732945
0.00680233
0.00160762
0.00292298
0.0273003
0.00680673
0.00191628
0.00708134
0.00680411
0.00128682
0.00668329
0.00158352
0.00677919
0.00679257
0.00677593
0.0067511
0.00402943
0.00138467
0.00693353
0.00677306
0.0264415
0.00668586
0.0067386
0.00670842
0.00667792
0.00859843
0.00693528
0.00676117
0.00865465
0.0266298
0.00674461
0.00839991
0.00528814
0.00672002
0.0067856
0.00667726
0.0101156
0.0262548
0.00269648
0.00672712
0.00138726
0.00278076
0.0146136
0.00680435
0.0108643
0.00297791
0.0198614
0.00694418
0.00671151
0.00690362
0.0126172
0.00197258
0.00679718
0.0241724
0.00619008
0.0207555
0.0236019
0.00681441
0.0071346
0.00654306
0.0041526
0.0185237
0.00210431
0.0268872
0.00676896
0.0153002
0.00675657
0.00817907
0.00694081
0.00676379
0.00668126
0.0067771
0.00671276
0.0131681
0.00677904
0.0066741
0.00234661
0.00674327
0.00217716
0.00680341
0.0101229
0.00692694
0.00545556
0.00679938
0.00679686
0.00673299
0.00297906
0.00670489
0.00749555
0.0063381
0.00482954
0.00678276
0.018662
0.00670174
0.000933747
0.0225949
0.00675833
0.00673957
0.00667951
0.00680005
0.0068314
0.0126896
0.00232074
0.00672922
0.0267518
0.00685351
0.00678056
0.0153065
0.00667809
0.00677228
0.0252445
0.00670412
0.0142443
0.0040904
0.00209398
0.00247258
0.00247529
0.00708023
0.00675095
0.0108495
0.0146859
0.0067117
0.00173903
0.0388136
0.00919818
0.00223653
0.00707656
0.00673921
0.00716028
0.0067809
0.00689631
0.013658
0.0030065
0.00667762
0.00263085
0.0126277
0.0270005
0.00667778
0.00667685
0.00702328
0.00679374
0.0148517
0.0139509
0.00673438
0.00284105
0.00793072
0.00681244
0.00691126
0.0319368
0.00587112
0.0101343
0.00681541
0.00684343
0.00676723
0.00689978
0.000312157
0.00417725
0.0067929
0.0243531
0.0159812
0.0239741
0.00282754
0.00621691
0.0310705
0.00263727
0.0243483
0.00320834
0.00675521
0.0067575
0.0258405
0.00900679
0.00686491
0.00291209
0.00319786
0.00678955
0.00440367
0.00686699
0.00677766
0.00700146
0.00282096
0.00676148
0.00671454
0.0425236
0.00674626
0.00673572
0.0016206
0.00262077
0.022837
0.00695222
0.0067986
0.0238883
0.00136261
0.00691606
0.00133099
0.015145
0.00672232
0.00669495
0.00280525
0.0048507
0.00672118
0.0067987
0.00675708
0.00678711
0.00677588
0.0157974
0.00681824
0.0110185
0.00676235
0.00235833
0.00675218
0.00679258
0.00658634
0.0191512
0.00190868
0.0067413
0.00686311
0.00864571
0.00422655
0.00691299
0.005332
0.0156649
0.00672543
0.00747171
0.00372309
0.00682969
0.00378267
0.00670788
0.00415208
0.0282287
0.0110793
0.00678711
0.00682056
0.0024656
0.00650608
0.00672752
0.00671585
0.00131145
0.00668359
0.00671534
0.0115714
0.0068091
0.0147478
0.00670122
0.00672013
0.0067179
0.0024165
0.00680589
0.00683396
0.0050126
0.00671811
0.00680158
0.0116444
0.00678275
0.00445333
0.00693902
0.0142914
0.0210076
0.00686771
0.0137589
0.00351982
0.00676757
0.036825
0.00548548
0.0067686
0.00667825
0.0067105
0.00708781
0.0261974
0.00170722
0.0289513
0.0241758
0.0214974
0.00193835
0.0195036
0.0031179
0.0104326
0.00668486
0.00275806
0.006767
0.00683082
0.00681675
0.00187862
0.029574
0.00674493
0.0155321
0.00673038
0.00216897
0.00683744
0.00318951
0.00691188
0.00698208
0.0148009
0.00672532
0.00668103
0.0238621
0.000827385
0.00735322
0.0074125
0.0150128
0.00682308
0.020865
0.0100563
0.00670177
0.00671147
0.00673331
0.00252349
0.00691545
0.00559637
0.0068509
0.00682259
0.00681947
0.00679919
0.00680474
0.0104786
0.0280922
0.0067001
0.00299233
0.0038029
0.00225628
0.00173787
0.00243731
0.00670382
0.00303971
0.00194324
0.00674395
0.0012191
0.0133334
0.00678298
0.00671384
0.00705463
0.0271002
0.0243813
0.00672606
0.0159866
0.00681494
0.00678864
0.0173115
0.00676009
0.0067847
0.00673363
0.00679751
0.00685642
0.022004
0.00702977
0.00678979
0.00671095
0.00681203
0.00671457
0.0277375
0.00668175
0.00273355
0.00436007
0.0106136
0.00669514
0.0206232
0.006794
0.000620509
0.00687554
0.00423735
0.00668303
0.0215959
0.0325461
0.027085
0.00674636
0.00900492
0.0238916
0.0156149
0.00679817
0.0225005
0.00677969
0.0182216
0.0260883
0.00691536
0.0195587
0.0202566
0.0130421
0.033967
0.00151844
0.0239272
0.00671249
0.00707666
0.0219585
0.00108921
0.00671095
0.0113446
0.00519172
0.00671531
0.00676187
0.00883758
0.00108708
0.00247493
0.0101863
0.0017716
0.0146359
0.00430768
0.00672083
0.00683361
0.0137983
0.0166255
0.00169697
0.0264685
0.00681038
0.00677993
0.00147011
0.0147215
0.00137378
0.0067207
0.00740384
0.0185293
0.00683431
0.00407469
0.00676201
0.00241448
0.00729883
0.00675056
0.00994619
0.0134647
0.00671635
0.00473138
0.00670691
0.0212466
0.00695088
0.0105181
0.0065166
0.00672096
0.00679538
0.00668206
0.00135184
0.00678599
0.00742447
0.00703042
0.00702322
0.0114982
0.00682377
0.00218714
0.0225133
0.00681257
0.00444702
0.00686957
0.00674792
0.0250833
0.0284815
0.00679707
0.0199299
0.00732076
0.0142415
0.00674799
0.0067931
0.00694284
0.00688169
0.00213177
0.0105036
0.00684063
0.00698034
0.00917455
0.00490483
0.00334199
0.0296402
0.00187213
0.0237979
0.00670926
0.00667857
0.00255484
0.0068255
0.0105671
0.0199225
0.00168734
0.0165909
0.00681903
0.00679145
0.0103998
0.0208867
0.00677046
0.0194826
0.00708376
0.00676042
0.0009262
0.00469105
0.00679659
0.00115621
0.00305378
0.00677545
0.0033684
0.00670588
0.0068745
0.0154552
0.00332576
0.0190808
0.00674066
0.00227215
0.00672156
0.00671783
0.0233524
0.00675623
0.0211361
0.012136
0.00614969
0.0132003
0.00430377
0.00749968
0.00667719
0.0199811
0.000605078
0.0056187
0.00357105
0.0070479
0.00672964
0.00212034
0.00340941
0.0115245
0.00359321
0.00670769
0.00861924
0.00667625
0.0383383
0.0067048
0.013289
0.00679337
0.00670455
0.00669547
0.0210682
0.00670389
0.00673509
0.00668994
0.00672224
0.0067162
0.00364272
0.00981448
0.00675861
0.0024774
0.00677316
0.00670433
0.00670074
0.0177364
0.0164171
0.00294951
0.00676212
0.0067027
0.0067134
0.00280403
0.00284217
0.0066909
0.0184472
0.00960024
0.00913726
0.00674633
0.00672562
0.00671153
0.00356435
0.00671379
0.00682148
0.0067213
0.00671843
0.00720193
0.00684251
0.00773469
0.0239494
0.0195521
0.00694868
0.00670653
0.00678918
0.0388798
0.00681376
0.00176782
0.00701315
0.00671185
0.00675897
0.00671312
0.019268
0.0068007
0.0119965
0.0198652
0.00218981
0.00673814
0.00276202
0.0216085
0.00320198
0.00136377
0.00692855
0.00437765
0.00671351
0.00266718
0.00238863
0.0188912
0.00673548
0.00675491
0.0116142
0.00297745
0.00283415
0.00705744
0.0181537
0.0067317
0.00273506
0.00665342
0.00847701
0.00103963
0.0067617
0.00678653
0.00682548
0.00677376
0.00264902
0.0129275
0.00825816
0.00671011
0.0419228
0.00690068
0.0097786
0.0175819
0.00672164
0.0249499
0.00329954
0.0067171
0.00206844
0.00140742
0.00679612
0.0153708
0.00670375
0.008053
0.00733685
0.00217874
0.00994236
0.00119368
0.00676428
0.00286393
0.00682755
0.00671936
0.00669784
0.00672732
0.00294566
0.00562959
0.00135574
0.0150534
0.0163103
0.00134429
0.00742786
0.00675233
0.0167634
0.00671116
0.0144146
0.0308689
0.0149598
0.0137301
0.0242031
0.00246012
0.00668631
0.00679571
0.0066926
0.00164888
0.00691984
0.0176345
0.00299508
0.0433919
0.00227005
0.00674574
0.00674566
0.00676075
0.00668445
0.0191887
0.012748
0.0227401
0.00674358
0.00707286
0.00308416
0.00684452
0.00109756
0.00673009
0.012111
0.0205363
0.00682766
0.00696829
0.0154588
0.00244008
0.00549374
0.0186101
0.00683958
0.0152857
0.00692032
0.0407815
0.0067039
0.00493505
0.0068565
0.00751625
0.00726826
0.0184867
0.0282626
0.038377
0.000992326
0.00450154
0.00689623
0.00683313
0.0241041
0.0237768
0.000881387
0.0026424
0.0369777
0.00752327
0.0277347
0.00201813
0.0224853
0.00669948
0.0014193
0.00828121
0.00683602
0.00673575
0.00708222
0.00672024
0.00670563
0.00671883
0.00678469
0.0299583
0.00522748
0.0242929
0.00109454
0.00279145
0.0252055
0.0191832
0.00673553
0.0068011
0.015818
0.00840759
0.00266297
0.0203013
0.0106819
0.0207267
0.00671884
0.00158358
0.0031616
0.0011604
0.000574484
0.0278259
0.0245606
0.00150472
0.00679155
0.00684851
0.00240507
0.0061578
0.00126546
0.0136943
0.00670477
0.00658556
0.00370208
0.0208019
0.00348231
0.00670769
0.00670462
0.00394737
0.0178605
0.027101
0.0067964
0.0010975
0.0211038
0.00687759
0.00476098
0.00703205
0.00151089
0.00697361
0.00143585
0.00540756
0.00670781
0.0067508
0.00704511
0.00181883
0.000941538
0.00133238
0.00516401
0.00412169
0.00679288
0.0166207
0.00142015
0.0034047
0.00678706
0.00458823
0.0069346
0.028033
0.00455943
0.0015957
0.00672487
0.00693361
0.00377283
0.00186422
0.0283552
0.00677858
0.00692899
0.0121575
0.00697153
0.0204987
0.00800024
0.00677963
0.00388545
0.0202998
0.00671898
0.0184301
0.00678522
0.0180973
0.0226689
0.00602606
0.00389388
0.00670939
0.00670957
0.00673388
0.00290828
0.00668304
0.00679389
0.00670439
0.0067145
0.00331062
0.00686876
0.00687205
0.00684312
0.0192654
0.00675185
0.0257016
0.00561606
0.00674727
0.00577216
0.00670762
0.0270439
0.0219683
0.00678661
0.00634254
0.00173587
0.0157715
0.00709191
0.0312
0.00175937
0.00686331
0.015925
0.00672979
0.0426724
0.00677188
0.00673348
0.00673615
0.00183837
0.0234795
0.0232152
0.00679601
0.00343222
0.00670297
0.00353731
0.00341668
0.00675405
0.0067209
0.00164683
0.00696239
0.0210571
0.00789613
0.00548281
0.00134941
0.00673167
0.00275213
0.00459616
0.00671684
0.00557892
0.0298943
0.00325833
0.00665768
0.00356221
0.00598769
0.00415476
0.000405003
0.0220634
0.00143711
0.00868985
0.0166921
0.00390048
0.00327637
0.000901002
0.00671349
0.00333651
0.00719773
0.00413506
0.0251903
0.00382268
0.0190992
0.0068387
0.00682581
0.000894668
0.0037457
0.00332664
0.00688988
0.00220442
0.0142837
0.00685705
0.00697765
0.00679406
0.0300832
0.0108601
0.00295826
0.00679438
0.00669943
0.00702747
0.00679394
0.0047433
0.00670675
0.0068732
0.00675592
0.00712038
0.00332549
0.00679318
0.0306369
0.00585648
0.00614055
0.00218803
0.00347837
0.0029194
0.00813484
0.00682754
0.0200713
0.00671775
0.0067009
0.00551932
0.00720761
0.00670332
0.018193
0.0058658
0.00672952
0.00729796
0.0254727
0.00229958
0.0226453
0.0163288
0.00234451
0.00670674
0.00394334
0.0211206
0.00188943
0.0140247
0.00540765
0.00293542
0.00772279
0.00437199
0.00669819
0.0432695
0.0127183
0.00670718
0.00235636
0.00682285
0.00478432
0.00337846
0.00638357
0.00676086
0.00671719
0.00668327
0.0204731
0.00679133
0.0092405
0.00199819
0.00678681
0.00670344
0.00673194
0.0213687
0.00275032
0.00670332
0.0047888
0.00751576
0.00682027
0.02834
0.00678015
0.00671031
0.0066984
0.00678147
0.00673486
0.00680549
0.00681356
0.00463449
0.00679782
0.00093669
0.00398901
0.0123484
0.00151288
0.00673071
0.00244291
0.00668966
0.00684661
0.00145717
0.00670529
0.011625
0.00670877
0.0011818
0.0304618
0.00669658
0.00268964
0.0194304
0.00676861
0.00680018
0.00678626
0.0024376
0.00677292
0.0153437
0.01898
0.00702466
0.00207225
0.00126201
0.00150761
0.00684886
0.00614322
0.0067932
0.00515176
0.00227123
0.00241676
0.0159574
0.00683588
0.000929175
0.0134864
0.00197535
0.00675952
0.00138054
0.00416001
0.00162209
0.00670948
0.00690496
0.0232135
0.00222933
0.00809657
0.0050197
0.00708076
0.0243796
0.00669526
0.00775337
0.00676172
0.00234868
0.00040644
0.0195956
0.044556
0.00226182
0.00260998
0.0197159
0.007044
0.00670464
0.00682771
0.00683077
0.00683455
0.00278943
0.00672252
0.0182774
0.00269255
0.00679889
0.00672584
0.00671179
0.00670951
0.00236611
0.00674317
0.0115093
0.00681125
0.018397
0.0068529
0.00676909
0.00669623
0.000923573
0.0068409
0.032413
0.019228
0.018779
0.00258874
0.00531758
0.00671623
0.00670385
0.00674002
0.0179126
0.00681486
0.00682482
0.00739661
0.00675581
0.0052767
0.0420678
0.00232247
0.0185616
0.0069286
0.0199648
0.00592559
0.00671073
0.00673646
0.00274243
0.0176451
0.00517677
0.0197095
0.00256634
0.00675793
0.00670936
0.00719629
0.00212793
0.00682253
0.00683802
0.00681363
0.00366363
0.0281429
0.00519948
0.00713037
0.00264528
0.00674209
0.00616307
0.0197178
0.00676578
0.00670375
0.00673094
0.00638078
0.00670298
0.00291082
0.0219936
0.0421216
0.00671237
0.00674622
0.00670146
0.00678321
0.00685258
0.00190772
0.00477834
0.00491136
0.00469003
0.0133269
0.00169008
0.00698685
0.00681722
0.00677323
0.0067097
0.00671507
0.00671792
0.00678637
0.00745883
0.0145517
0.00677371
0.00669678
0.00680702
0.00679602
0.00483548
0.00195052
0.0241623
0.0149096
0.00402885
0.00111884
0.00670998
0.00676216
0.00671244
0.00679228
0.0149785
0.00675288
0.00300657
0.00242479
0.0148884
0.0295974
0.00251194
0.00787961
0.0201043
0.00671664
0.00212175
0.0183182
0.0103327
0.00676665
0.00684214
0.0068603
0.00677232
0.00677931
0.00516754
0.00674287
0.00676156
0.0151436
0.00306878
0.0198039
0.00671624
0.00669694
0.00217826
0.00232519
0.00736226
0.0219371
0.00691375
0.0160194
0.00134481
0.0067071
0.0120857
0.00671102
0.00324546
0.0067905
0.00671962
0.0399569
0.0116636
0.042074
0.00143073
0.0138935
0.00731589
0.0150625
0.00672197
0.00680044
0.00228895
0.00671725
0.00680851
0.00356884
0.00676054
0.0173651
0.00677853
0.012468
0.00456075
0.00668455
0.0253488
0.00681957
0.00670972
0.00328311
0.00379362
0.00433381
0.00474347
0.00610119
0.00846733
0.00679553
0.00671548
0.00682419
0.00264296
0.00710709
0.00670309
0.00678911
0.00444353
0.0118876
0.00671089
0.00704556
0.00706634
0.00674592
0.00674948
0.0067746
0.0147495
0.0155613
0.00708067
0.00437551
0.00671479
0.00236891
0.00931692
0.00679183
0.00804258
0.00974355
0.00676603
0.00244352
0.0266819
0.0227443
0.00141026
0.00668595
0.00672487
0.0155247
0.00188852
0.0208577
0.00210065
0.00920508
0.00557136
0.0195288
0.0129503
0.0438178
0.00633053
0.0220905
0.0275642
0.012808
0.00678938
0.0296193
0.00683108
0.0138511
0.00394183
0.00597638
0.00709259
0.01338
0.0197033
0.00686424
0.00678751
0.00695659
0.0155993
0.00810583
0.00670137
0.0067774
0.00674021
0.00264237
0.00682348
0.00303402
0.0231599
0.0252813
0.00280277
0.00688614
0.000776686
0.00680873
0.00674533
0.00870579
0.00679106
0.00313911
0.00672461
0.0129389
0.00103124
0.0269514
0.00685926
0.00574912
0.00614714
0.00326563
0.012536
0.0158
0.00483202
0.0173425
0.00670714
0.00677447
0.00108084
0.00675709
0.00679934
0.00675614
0.00680818
0.00274039
0.00707504
0.00670541
0.00810059
0.0068045
0.0077445
0.00678632
0.00817982
0.0161222
0.00716837
0.0241367
0.0243891
0.00685601
0.00359313
0.00673442
0.0068259
0.00677914
0.00696377
0.00282349
0.0171316
0.00670632
0.00683915
0.0187639
0.00671096
0.00671156
0.00679266
0.00675862
0.0108158
0.0067891
0.00143914
0.00680429
0.0258474
0.00671398
0.000526455
0.0112932
0.0087874
0.027581
0.00670059
0.00708847
0.00680094
0.00675296
0.0158383
0.00502835
0.00538978
0.0152119
0.00671097
0.0068058
0.0031749
0.00676207
0.0150238
0.00671591
0.00165435
0.0207442
0.0201189
0.00487821
0.006715
0.00679869
0.0264221
0.00696925
0.00430298
0.0121947
0.0108176
0.0186496
0.00702796
0.00676775
0.00671422
0.00679559
0.0104788
0.00685042
0.00548697
0.00672915
0.00679509
0.00937457
0.00677965
0.00763771
0.00450321
0.00679026
0.00708997
0.0146996
0.00669921
0.00692103
0.0162061
0.00677215
0.0067795
0.00171169
0.0403345
0.00272459
0.0072456
0.0067085
0.0180776
0.01574
0.0016868
0.00678217
0.00669945
0.00448154
0.00678593
0.00820739
0.0130518
0.0189303
0.0244479
0.00673347
0.00395724
0.00671842
0.00212214
0.00676706
0.0216898
0.0177507
0.00676576
0.0130044
0.0067179
0.0309381
0.00174468
0.00670258
0.00802649
0.00672817
0.00670598
0.00672299
0.00667859
0.00743029
0.0273896
0.00678777
0.00669551
0.000704191
0.00668519
0.00679103
0.0050125
0.00670874
0.00675094
0.0108239
0.0037486
0.006701
0.00398583
0.00474777
0.00675524
0.0239181
0.0177945
0.00676083
0.0067236
0.00683082
0.00456003
0.00678239
0.00681168
0.00510009
0.00155961
0.00670637
0.00547268
0.0186816
0.00679365
0.00776156
0.00671412
0.00674815
0.00670758
0.00670793
0.00671287
0.00674571
0.0173187
0.0205052
0.00669701
0.00689383
0.00689636
0.00539755
0.00513439
0.00140274
0.00674311
0.00628873
0.00547077
0.00676431
0.0274118
0.00692464
0.00671116
0.00680886
0.0043772
0.00569264
0.0206904
0.00225986
0.0067086
0.00987843
0.0252574
0.0199388
0.00623068
0.00396672
0.00523943
0.00670857
0.0424155
0.00678167
0.00674301
0.00303014
0.00671872
0.00671984
0.0101089
0.00670039
0.00376265
0.0131405
0.00606016
0.00676693
0.00308598
0.00670983
0.00524485
0.00669599
0.00711986
0.00294636
0.0211502
0.00671137
0.00671611
0.00541027
0.0151062
0.0121223
0.0144294
0.0139255
0.00717986
0.00674147
0.0058617
0.0278865
0.00671261
0.00676262
0.00708648
0.00670713
0.0273791
0.00231349
0.00672234
0.0102003
0.00671446
0.00672484
0.00669371
0.0067471
0.00671095
0.00224698
0.00672482
0.011417
0.00675419
0.00649292
0.00679918
0.0067941
0.00670828
0.00673758
0.00801897
0.00670933
0.00482677
0.0150581
0.00460737
0.00525323
0.00514908
0.00496941
0.0067727
0.00668429
0.00670945
0.00668569
0.0265593
0.0112856
0.00690427
0.00435966
0.00818311
0.00681272
0.0161134
0.00683327
0.00670661
0.00679163
0.00460299
0.00284109
0.0182684
0.00159481
0.00706608
0.00463235
0.00450891
0.00679215
0.00671044
0.00670197
0.00160913
0.00149317
0.0236544
0.00209881
0.00144768
0.00670414
0.00377596
0.00670892
0.00442245
0.00680096
0.00577103
0.00509985
0.00784265
0.00364826
0.00583668
0.00705665
0.00532396
0.00311417
0.0249656
0.00670628
0.00670829
0.00675508
0.00674853
0.0116164
0.00671832
0.00679522
0.00324013
0.0067045
0.0227503
0.00895031
0.00349612
0.00679772
0.00678959
0.0105308
0.00577568
0.00670923
0.00670991
0.00530496
0.00671019
0.00674446
0.00788152
0.00699928
0.0121775
0.0185124
0.0182436
0.00141903
0.00673486
0.00679716
0.00178551
0.00670674
0.00672658
0.0142406
0.0109333
0.00688435
0.00675371
0.00670349
0.00501927
0.00858857
0.00674739
0.00480852
0.00678976
0.00669989
0.00672172
0.00535782
0.00694295
0.00671982
0.00678105
0.00600835
0.00669901
0.0031386
0.0168766
0.00731821
0.00674664
0.00676429
0.00678902
0.0067406
0.0168597
0.00671519
0.0185899
0.00965047
0.00670621
0.0067085
0.0235557
0.00669869
0.00673858
0.00670802
0.00917176
0.00707669
0.00759206
0.00671869
0.00669773
0.00675585
0.0162744
0.00674077
0.00680122
0.00133024
0.0139655
0.00657174
0.00668308
0.0251074
0.00667678
0.0115882
0.00670511
0.00672435
0.00671092
0.00676472
0.00676877
0.00662019
0.000712956
0.0182513
0.00118538
0.00672957
0.0220879
0.00675541
0.0128802
0.0112295
0.006854
0.0135149
0.00337079
0.00598098
0.00671113
0.0154621
0.00677281
0.00671978
0.00687724
0.00152744
0.0152881
0.00301761
0.0110418
0.0122736
0.00499589
0.00671169
0.00321242
0.00129645
0.00936419
0.00640231
0.00691867
0.00677165
0.00225498
0.00978765
0.00671836
0.0241831
0.00557315
0.00256741
0.00670697
0.00670921
0.00184596
0.00196824
0.0324436
0.0201079
0.00195944
0.0067057
0.00677426
0.00595493
0.0122322
0.0126226
0.00670162
0.00688095
0.00670039
0.00670443
0.0067054
0.01323
0.00289153
0.00108287
0.00317504
0.00972273
0.00757972
0.00671496
0.00677719
0.0068106
0.00672871
0.00314834
0.00671988
0.0068064
0.00676663
0.00670272
0.00262213
0.00939377
0.00677002
0.00672547
0.00671974
0.0103361
0.0066796
0.0031331
0.00676685
0.0203803
0.00665047
0.00674931
0.0020323
0.00807425
0.00671566
0.0100723
0.0067802
0.00676629
0.0067532
0.0140396
0.00670317
0.00670013
0.00685617
0.00679585
0.00675276
0.00673294
0.000748509
0.0234951
0.011851
0.00680285
0.0067462
0.0122696
0.00672187
0.00672412
0.00670231
0.00988344
0.00671043
0.0106756
0.00668441
0.00672321
0.00222099
0.00471661
0.00672413
0.00461961
0.0206284
0.0103792
0.00671419
0.00667694
0.00670114
0.00974098
0.00687846
0.00567998
0.00937451
0.00674762
0.0066945
0.00680901
0.00677217
0.0179912
0.00672371
0.00674117
0.0067181
0.00371183
0.0252782
0.00675599
0.00671617
0.00673237
0.00856705
0.000962513
0.01469
0.00691618
0.0105094
0.00676264
0.00673133
0.015716
0.0215425
0.00670981
0.00676283
0.0145752
0.00224233
0.0067028
0.00673941
0.00670101
0.00675591
0.00672506
0.0116596
0.00684103
0.00708886
0.0238687
0.00840976
0.00678289
0.00708649
0.00682745
0.0056061
0.00704862
0.00614976
0.00671928
0.00293346
0.00671093
0.00684475
0.024725
0.00685815
0.00127374
0.017728
0.00677421
0.00686695
0.0127353
0.019783
0.00627269
0.00671473
0.00670136
0.0143142
0.00671781
0.00670014
0.00700811
0.00295289
0.00670354
0.0179638
0.0205902
0.00671307
0.00691731
0.00685101
0.00674616
0.00675009
0.00670294
0.00674201
0.0256758
0.0059458
0.0068862
0.00669935
0.0067122
0.00671996
0.0067258
0.00686844
0.00583746
0.006768
0.0125103
0.00676853
0.00671335
0.00225078
0.00670137
0.00668598
0.00686232
0.0093052
0.00671358
0.00768689
0.00698133
0.00998068
0.00681202
0.011866
0.00855183
0.0225604
0.00683229
0.00673665
0.00833431
0.00675616
0.0165119
0.00670859
0.00698196
0.00687685
0.00674275
0.0163419
0.0095858
0.0174743
0.0202055
0.00696327
0.00670045
0.00670153
0.0161163
0.00913123
0.00670493
0.0067237
0.00673156
0.00674826
0.00669993
0.0144632
0.0067104
0.00669897
0.00678276
0.00683491
0.00552845
0.00180683
0.00698229
0.00669966
0.00669432
0.0237621
0.00694904
0.00668953
0.0107148
0.00640571
0.00698045
0.00699331
0.00670408
0.00672722
0.00679538
0.0128321
0.0078805
0.00327085
0.00672006
0.00671149
0.013499
0.0243901
0.00694566
0.00677498
0.00694845
0.00673818
0.00622767
0.00699462
0.00692743
0.00669351
0.00676214
0.00669669
0.00675123
0.00674501
0.00687563
0.00670891
0.00119348
0.0142892
0.00669604