/*--------------------------------*- C++ -*----------------------------------*\
| =========                 |                                                 |
| \\      /  F ield         | OpenFOAM: The Open Source CFD Toolbox           |
|  \\    /   O peration     | Version:  v2012                                 |
|   \\  /    A nd           | Website:  www.openfoam.com                      |
|    \\/     M anipulation  |                                                 |
\*---------------------------------------------------------------------------*/
FoamFile
{
    version     2.0;
    format      ascii;
    class       surfaceScalarField;
    location    "300";
    object      phi;
}
// * * * * * * * * * * * * * * * * * * * * * * * * * * * * * * * * * * * * * //

dimensions      [0 3 -1 0 0 0 0];
oriented        oriented;


internalField   nonuniform List<scalar> 
14885
(
0.75477
-0.503798
-0.251
0.196968
-0.378069
0.1812
0.513278
-0.328054
-0.185135
0.423145
0.0478769
-0.471574
-0.67688
0.377447
0.299335
0.137578
-0.491364
0.353759
0.477101
-0.258551
-0.218395
-0.168896
-0.362943
0.531846
0.261726
0.34465
-0.606387
0.135633
-0.312248
0.176658
-0.575351
0.388783
0.186499
0.369816
-0.172764
0.379742
-0.203657
-0.175994
0.727172
-0.256443
-0.470751
0.172719
-0.431829
0.25887
0.227493
0.499642
-0.147327
-0.357199
0.50448
-0.384219
-0.191204
0.202706
-0.442735
0.240103
0.212364
-0.450846
0.238392
0.16573
0.214095
0.445242
0.30951
-0.0651802
0.487965
-0.5329
0.38544
0.147443
0.220282
-0.583295
0.362765
0.30895
-0.647615
0.338658
-0.21714
0.352913
-0.447094
-0.178673
0.625722
0.49227
-0.354732
0.557399
-0.359899
-0.197475
-0.106061
0.522827
-0.417049
-0.179233
0.301668
-0.122388
0.257802
-0.556272
0.298533
0.542429
-0.284517
0.355231
-0.524133
0.442765
0.056551
-0.499343
0.372741
-0.675161
0.301955
0.302943
-0.611952
0.308862
0.376539
-0.482784
0.440378
0.174806
-0.615191
0.177725
0.379706
-0.294495
0.311269
-0.00138884
-0.309844
-0.435572
-0.0378336
0.473564
-0.276844
0.566633
-0.290103
0.462219
-0.242239
0.565854
-0.639756
0.0738539
-0.308321
0.480677
0.393405
-0.174373
-0.218918
0.234743
0.0311557
-0.265799
-0.0529783
0.364294
0.659732
-0.414291
-0.245857
0.344918
0.390307
-0.187556
-0.00704693
-0.274377
0.281539
-0.204074
0.0153306
0.188851
0.363082
-0.197312
0.182478
-0.571401
0.389056
-0.210492
-0.206181
0.41656
-0.334246
-0.358447
0.692691
0.182522
0.211015
-0.0282098
0.316322
-0.287935
0.302999
-0.304333
-0.212151
-0.33687
0.549013
0.264042
-0.588389
0.324314
0.28535
-0.567816
0.282377
0.180389
-0.424093
0.243609
0.482728
0.0486507
-0.531365
0.612008
-0.546588
-0.065445
-0.0553735
0.53812
-0.23352
-0.0739082
0.30749
-0.53913
0.316094
0.22277
0.695314
-0.410424
-0.284927
-0.438034
0.227405
-0.261673
0.546988
-0.286453
-0.579438
0.0977526
0.481682
-0.0611914
0.627006
-0.508937
-0.0705075
-0.290854
-0.151803
-0.0158821
-0.419607
-0.355189
0.571639
-0.0531382
-0.518896
-0.365165
0.641034
-0.276367
-0.0962156
0.338366
-0.242054
0.345251
-0.0211112
-0.324052
-0.251497
0.431833
0.26632
0.247047
-0.294347
-0.242172
0.536206
-0.587817
0.393283
0.194451
0.11159
0.188376
-0.299896
-0.412032
-0.0199869
-0.0285648
0.331628
0.349175
-0.00381215
0.254251
-0.565543
0.311178
-0.365498
-0.128232
0.493411
0.00883959
-0.00232093
-0.211823
-0.401317
-0.0727417
0.474117
0.232114
-0.447027
0.214691
-0.208534
0.320218
0.254138
0.0619093
-0.315901
-0.460457
0.334584
0.125948
0.240967
0.0297489
-0.234136
0.39612
-0.161915
-0.241049
-0.227387
0.468272
0.209397
-0.128537
-0.0807536
0.331199
-0.592926
0.206859
0.270378
-0.457324
0.216208
0.323663
0.140115
-0.464065
0.437753
-0.23076
-0.131106
0.385353
0.32021
-0.532369
0.584685
-0.320719
0.66545
-0.409737
-0.255774
0.620157
-0.239972
-0.380148
-0.320172
0.649823
-0.329863
0.539014
-0.356347
-0.669048
0.324716
0.34427
0.265032
-0.599281
0.117515
-0.332519
0.215113
-0.189906
0.307503
-0.584922
0.30765
-0.47088
-0.117004
-0.377646
-0.249803
0.627239
0.0790949
-0.456706
-0.28061
0.273681
0.194318
0.0424007
-0.236678
0.203629
0.416562
-0.313052
-0.271641
0.584646
0.187624
0.292559
-0.480366
-0.668316
0.338034
0.330097
-0.445849
0.0176005
0.428033
0.221395
0.216466
0.40558
-0.219757
-0.185722
0.187895
-0.432835
0.244885
-0.0908974
0.146264
0.27109
0.127738
-0.398751
0.107061
-0.508349
0.372373
-0.226461
-0.145862
-0.36134
0.65875
-0.297443
0.16324
0.0462867
-0.653609
0.206456
0.374067
-0.0631307
-0.310932
0.601126
-0.298334
-0.340073
0.243971
0.200824
0.411151
0.288722
-0.433088
0.144407
0.431819
-0.0822466
-0.349516
-0.232316
0.563328
-0.310867
-0.310278
0.621035
0.0797216
0.263526
-0.343368
0.241682
0.0257282
-0.267366
0.579788
-0.325662
0.369201
0.00486125
-0.0868284
0.281185
0.0182425
-0.222221
-0.21354
-0.45494
0.486335
-0.177392
0.0191667
-0.532252
0.512685
-0.161682
0.602048
0.17092
0.234765
-0.544265
0.448473
-0.252909
-0.195443
0.35824
0.0736574
0.404272
0.291004
-0.104976
0.346008
0.575208
-0.132437
-0.165689
0.47956
-0.313778
0.277203
-0.579406
0.302083
-0.340598
-0.0192853
-0.370421
0.407572
-0.0370491
0.376862
0.216031
0.174309
-0.0135963
-0.356726
0.567275
-0.483877
-0.0835709
0.318541
0.282403
0.529832
-0.342369
-0.342899
-0.2037
-0.146086
0.417314
-0.0824903
0.28954
-0.206989
-0.206056
0.669898
-0.326654
-0.343348
0.149398
-0.535072
0.385702
0.359798
-0.28941
-0.0703111
-0.3488
-0.190574
0.588345
-0.168596
-0.419752
-0.0872086
0.222308
-0.135016
-0.303416
-0.288716
0.591927
-0.326811
0.184676
0.178446
0.269583
-0.582617
-0.313054
0.230577
0.276519
0.00590426
-0.282289
-0.0727981
-0.33941
-0.135535
0.0195497
0.116021
0.321357
-0.59012
0.268758
0.0099519
-0.013687
0.00375369
0.141855
-0.507435
0.244033
-0.0305675
-0.213407
-0.274624
-0.0680921
0.342784
0.223634
-0.423228
0.199583
0.324636
0.191174
-0.515928
0.414123
-0.486797
0.583864
-0.246049
-0.549627
0.200543
0.349022
-0.0957281
0.337489
-0.19983
0.523065
-0.018887
-0.427111
-0.284148
-0.190122
0.514659
-0.165882
0.389489
0.264297
0.166234
-0.430508
-0.567871
0.0571299
0.510395
0.548431
-0.574479
0.0260634
-0.648724
0.41397
0.234689
0.565413
-0.291488
-0.273779
-0.409146
0.621599
-0.213096
0.286489
0.0631262
-0.0741424
0.0110443
0.57947
-0.302336
-0.0303401
0.0935092
0.493061
-0.352783
0.400236
-0.30312
-0.493398
0.266947
0.226374
0.421285
-0.233378
0.424543
-0.204251
-0.220066
-0.370899
-0.0895328
0.58984
-0.271427
0.501052
-0.421996
0.0858093
0.274081
-0.483407
0.163002
0.453337
0.113793
0.212276
0.152466
-0.399878
0.247451
-0.00696786
0.015835
0.271382
-0.334518
-0.161702
0.547099
-0.52506
0.173337
0.351825
0.256507
-0.459162
0.202781
-0.349313
0.614342
0.395742
-0.55743
-0.284017
0.304301
-0.0201473
-0.471692
-0.205287
0.497569
-0.240961
-0.183609
0.454965
-0.211594
0.291214
-0.150811
0.528146
-0.381804
0.147736
-0.305609
0.575222
0.0490522
0.319839
-0.368825
0.2618
-0.283659
0.0220014
-0.250164
0.538995
0.40897
-0.256525
-0.478433
0.174794
0.210011
0.258894
-0.468843
0.0162393
-0.0185369
0.630726
-0.245831
-0.385515
0.611625
-0.21841
0.636102
-0.331854
-0.304309
0.27414
0.385202
-0.518231
-0.121572
-0.299284
0.256063
0.00594315
0.37976
0.231793
-0.321622
0.370709
0.741043
-0.443641
-0.297939
0.497538
0.00339777
-0.511491
0.184965
0.326008
-0.0918892
0.326767
-0.311259
-0.252597
0.563834
0.16301
-0.236838
0.492136
-0.282138
0.239664
-0.556516
0.317009
0.144717
-0.398107
0.253254
0.269629
-0.553198
0.283412
0.291031
0.449502
0.306343
0.339294
-0.517961
0.487208
-0.24359
-0.243474
-0.0270793
-0.108427
0.407848
-0.263151
-0.0741212
0.563202
-0.488725
0.00845679
0.0440866
-0.0525227
-0.543027
0.342398
0.200672
-0.366757
0.53958
-0.172836
0.636873
-0.258916
-0.37795
-0.488445
0.177459
0.163713
0.19113
-0.354797
0.578908
-0.257281
-0.321521
-0.572973
0.0410537
0.531541
-0.496714
0.0868091
0.41002
-0.208663
-0.581341
0.155757
0.425475
0.121414
-0.32244
0.201213
0.150387
0.270927
-0.300405
-0.211559
-0.423869
-0.22492
0.391226
-0.158946
0.0929834
0.495358
-0.19138
-0.333585
-0.399277
-0.143719
0.207376
-0.235448
-0.227843
-0.353201
0.581014
0.60434
-0.208603
-0.201684
0.323212
-0.128087
-0.368554
-0.138432
0.510541
-0.457737
0.500946
-0.0434803
-0.566907
0.201148
-0.460447
-0.120987
0.310486
0.26853
0.304213
0.332663
-0.483686
-0.0345752
-0.325376
0.474785
-0.417819
0.551607
-0.133764
0.393679
0.27171
-0.543653
0.572782
-0.0292061
-0.0977286
0.260826
0.542434
-0.302615
0.175099
-0.530918
0.355809
0.217437
0.318004
-0.535428
-0.554095
-0.0141117
-0.279007
0.581557
-0.302488
0.245606
0.284057
-0.249462
0.344122
-0.180346
0.288184
0.295454
0.251223
0.242806
-0.494459
-0.529208
0.0253962
-0.563118
0.000784563
0.56223
-0.156326
-0.393368
-0.632866
0.373975
0.115713
0.051338
-0.166863
-0.348582
0.523673
0.290562
-0.596043
0.49354
-0.135188
0.167857
0.204562
-0.359789
0.165718
0.194103
0.26126
-0.61058
-0.310374
0.596358
-0.285975
-0.0104573
0.5459
-0.536008
0.291498
0.298206
-0.296919
-0.256944
0.553722
0.478458
0.0377816
-0.516626
0.542127
-0.279237
-0.262858
0.432917
-0.249686
-0.183421
-0.305839
-0.259818
0.272922
0.269242
-0.530506
-0.0271366
0.557651
0.339747
-0.0232632
-0.600474
0.321491
-0.225573
-0.267887
0.571253
-0.177361
0.0777186
0.0997201
0.0148903
-0.488217
0.47325
0.257477
-0.485134
-0.265537
-0.410036
0.201296
0.247283
0.384864
-0.52355
0.138737
0.376489
0.117151
-0.398921
-0.516449
-0.0130471
0.529019
-0.557972
0.283796
0.274105
-0.285122
0.0139838
0.268087
-0.281958
-0.527046
-0.542325
0.531196
-0.539118
-0.379013
-0.224981
-0.364858
0.343893
0.245399
0.26943
-0.514917
-0.219229
-0.337127
-0.460948
0.112179
0.348914
-0.28058
0.0966237
0.184187
-0.079462
-0.285292
-0.270139
-0.239819
0.509626
-0.356198
-0.104617
0.176191
0.248579
-0.287427
0.532891
0.0592945
-0.226085
0.166839
-0.275423
0.497271
-0.313467
0.638081
0.224584
0.259615
-0.484305
0.175064
-0.541853
0.234525
0.257606
-0.191485
0.0462149
0.145311
0.186266
0.246461
-0.599044
0.29984
0.29924
0.499913
-0.123406
-0.156735
-0.126794
0.30766
-0.529667
0.221612
0.535381
-0.18015
-0.423956
0.350251
0.200859
0.100845
0.103623
-0.518354
-0.0162775
-0.0369215
0.0532393
-0.259888
-0.313531
0.573416
0.0655313
-0.0754403
0.00469439
0.0707952
-0.529812
-0.000683337
0.346057
-0.17814
-0.424523
0.58346
-0.159004
0.52797
-0.354552
0.497582
-0.263145
-0.0663632
-0.36085
0.427216
0.410232
-0.0865203
-0.323639
-0.274034
-0.185003
0.448548
-0.262566
0.271573
-0.54962
0.278046
-0.135963
0.399526
-0.263585
0.471349
-0.145694
-0.325581
-0.266507
0.597194
-0.36389
-0.233336
-0.393986
0.257976
0.321268
0.274962
-0.596274
0.383069
0.11687
0.570454
-0.278998
0.346292
0.323507
-0.294512
0.484366
-0.426804
-0.057543
-0.280534
0.45128
-0.170606
0.353914
-0.420245
0.353706
0.276492
-0.175086
0.452809
0.0315652
0.512613
-0.573821
0.289943
0.120349
0.376402
-0.319853
-0.552612
0.12804
0.436201
-0.23488
-0.301373
0.333399
-0.0319632
0.319959
0.556033
-0.611739
0.0556797
0.193253
-0.177828
0.306873
0.291783
-0.598721
0.528357
-0.21771
0.500604
-0.245854
-0.254668
-0.184842
-0.311538
-0.323529
0.564846
-0.241315
0.553493
-0.281893
0.380963
-0.209965
0.198515
-0.651503
0.311883
0.339534
0.229217
0.313356
0.415204
-0.0990568
-0.316042
0.360682
0.0545962
-0.196681
0.25604
-0.389817
0.324446
0.260342
-0.557423
0.278766
-0.0564236
-0.135015
-0.640236
0.597215
-0.311644
-0.285551
-0.453854
0.400607
-0.0692788
0.420284
-0.351305
-0.322448
-0.256024
0.578377
-0.593304
0.270774
0.451537
-0.227031
-0.573633
-0.187597
0.253468
0.126372
0.401944
0.126537
-0.307263
-0.272266
0.154342
0.226703
0.290226
0.253401
-0.543655
-0.0265495
-0.0645136
0.0910938
0.0245862
-0.325878
0.0970193
-0.448943
0.351999
-0.450712
-0.112499
0.145691
0.173789
-0.438805
-0.104914
-0.253083
0.0964911
-0.507532
0.204611
0.302471
-0.223803
0.545208
0.221784
0.226478
-0.37964
0.486749
0.156835
-0.518222
-0.258103
-0.123639
0.310176
0.287056
0.539238
-0.309891
0.605957
-0.18651
-0.419428
0.511726
0.0442946
-0.3106
-0.240333
0.550615
-0.440357
0.526897
-0.302019
-0.224839
0.364778
0.271267
-0.350644
-0.222135
0.572793
0.227702
-0.513812
0.286205
0.192267
0.153851
-0.537333
0.510224
-0.574443
-0.300577
0.387436
-0.357386
0.388923
-0.0314299
-0.262703
-0.234695
0.497069
-0.530793
-0.00198556
0.213308
0.315513
0.211444
-0.352872
0.285049
0.0679512
-0.511521
0.204144
0.307342
0.535531
-0.58895
0.0531472
-0.356701
0.596087
-0.239382
-0.169819
0.395962
-0.225992
-0.167722
-0.230801
0.398593
-0.230155
-0.194457
0.424605
0.563015
-0.362596
0.0715322
-0.608843
0.143906
0.335205
-0.479406
0.233381
-0.46955
0.236073
-0.468439
0.16789
-0.591172
0.344547
0.246034
0.171856
0.367028
-0.436937
0.250605
0.230194
-0.481113
0.30618
0.243558
-0.549778
0.286967
0.184459
-0.314031
-0.197521
-0.150799
-0.220073
0.237401
0.198821
0.0784864
0.230805
-0.309097
-0.304725
-0.285401
-0.187782
0.434709
-0.246687
-0.455245
0.30443
-0.246858
0.528217
-0.281367
0.117307
-0.474007
-0.0687166
-0.288573
0.224436
-0.494924
0.632523
-0.44104
-0.191449
0.517185
-0.289475
-0.423366
0.294877
-0.249291
0.50451
-0.255339
-0.207571
0.375407
-0.167639
0.298766
0.0120787
-0.295962
-0.414501
-0.102349
-0.42119
0.22407
-0.542127
0.31813
-0.0465789
-0.328581
-0.263224
0.170848
0.13632
-0.307087
0.136189
-0.546145
0.347378
0.2041
-0.551544
0.336241
-0.257656
-0.363046
0.624304
-0.405051
0.347949
0.0572603
-0.0490743
-0.303678
0.0552946
-0.459846
0.404547
-0.278543
-0.274759
0.55334
0.163707
-0.0478992
-0.202948
0.535982
-0.332903
0.272396
-0.565467
0.562768
0.0026463
0.451014
0.181536
0.362024
-0.643346
0.281265
0.362051
-0.606162
0.244094
-0.236763
0.561168
-0.324256
-0.224005
-0.294994
0.471607
-0.176473
0.280548
0.229225
-0.509923
-0.00535508
0.541221
-0.535869
0.0561043
0.199529
-0.255529
0.2252
0.170988
0.302599
0.427227
-0.412389
0.293691
0.284122
-0.577983
0.282623
-0.226393
-0.127855
0.512756
0.550071
-0.325996
0.211224
0.351671
-0.103649
0.409295
-0.306114
-0.307912
0.118355
0.189616
-0.0672896
0.453442
-0.386136
0.450475
-0.3952
0.502999
-0.0751506
-0.00755108
0.508258
0.229242
0.252143
-0.4817
0.552865
0.00580797
-0.558845
-0.0284352
0.253963
-0.460149
0.205826
-0.22535
-0.129534
0.355048
-0.278483
0.55316
-0.275016
0.227686
-0.536946
0.309254
-0.342693
-0.141024
0.228287
-0.415854
0.37418
-0.601775
0.141898
0.552126
-0.282703
-0.317611
0.274676
0.259439
0.337726
-0.0626812
-0.217679
0.385741
-0.348374
0.657779
-0.348285
-0.31713
-0.294969
0.0152841
-0.530388
0.514696
0.586054
-0.238682
-0.0944843
-0.0828106
-0.550373
0.207644
0.295565
-0.573353
0.27764
-0.240515
0.485807
0.241756
0.161331
-0.540347
0.495252
-0.554071
0.0182699
0.535625
0.341654
0.0712956
-0.412848
0.556984
-0.249595
-0.473675
0.0878573
0.385707
0.412582
0.246128
-0.076287
-0.397522
-0.413778
-0.353992
-0.130008
0.531633
-0.303949
0.354973
-0.422283
-0.0591697
0.314509
-0.352125
0.516953
-0.427933
-0.088994
0.224071
0.27342
0.343549
0.387185
0.233855
-0.422594
0.236293
0.186506
0.172991
-0.579494
-0.428398
0.0720542
0.35637
0.108017
0.408962
0.27981
0.243346
0.254324
-0.392108
0.28795
0.495841
-0.24496
-0.427122
0.0870055
0.34008
-0.181674
0.523394
0.29812
0.283501
0.313292
-0.0777791
-0.235497
0.231317
0.223038
-0.454655
-0.362327
-0.153586
0.515931
0.569903
-0.291402
-0.278769
-0.232802
-0.255216
0.487639
0.533324
-0.243122
0.629634
-0.264954
0.0145637
-0.0897901
-0.337354
0.180859
0.22696
-0.21249
-0.435133
0.158015
-0.111791
-0.328049
-0.188506
0.516571
-0.185654
-0.236733
0.504278
-0.329469
0.454818
-0.201312
-0.532516
0.0866347
0.448665
0.395301
-0.258085
0.508155
-0.250215
-0.348008
0.304437
-0.348844
0.12363
0.485351
-0.235075
-0.524601
0.51924
0.558103
-0.0355095
-0.545199
0.248919
0.296014
-0.280333
0.578415
-0.298402
0.303388
0.244515
-0.54785
-0.355796
0.148445
-0.114075
0.42881
0.212369
-0.521049
-0.517606
0.275282
0.265528
0.282517
-0.54835
-0.490138
-0.130225
0.44608
0.300114
-0.116141
0.530056
0.32415
0.247395
-0.571847
0.517743
-0.274333
0.197736
-0.166499
-0.302046
0.598177
-0.296135
0.490475
-0.223525
0.698526
-0.436191
-0.263236
0.024673
0.0686505
-0.0932759
-0.13701
0.296311
-0.575376
0.399865
-0.061408
-0.523176
0.257722
0.265453
0.32538
-0.117875
0.20553
0.312283
0.306233
0.26339
0.557907
8.56623e-05
-0.558097
-0.498329
0.240102
0.301587
-0.540701
0.2391
0.58218
-0.276044
-0.163401
0.337313
-0.542327
0.409456
0.132716
0.239339
-0.602397
0.320302
0.276058
0.554728
-0.270361
-0.284484
0.169383
-0.0915732
-0.0559166
0.0754903
-0.392542
-0.175421
0.567955
0.297976
0.268373
0.283592
0.31827
-0.601931
-0.527256
0.203748
0.312403
-0.536086
0.175232
-0.246291
0.530011
0.175599
0.0467927
0.235045
-0.510784
0.275652
0.0438374
-0.437992
0.394038
-0.470944
-0.130868
0.385898
-0.242278
0.5011
-0.258579
-0.324337
0.609353
-0.285013
-0.211708
-0.296255
0.190916
0.236003
-0.42713
-0.30089
0.152137
-0.410154
0.153079
-0.532104
0.379085
0.21537
0.291126
-0.50717
-0.509654
-0.0663921
-0.338972
0.405358
-0.487085
0.551043
-0.0637527
0.185499
-0.266081
-0.295658
0.561473
0.270251
-0.531149
0.260833
0.326443
-0.586332
-0.17024
0.49144
0.551767
-0.340654
-0.126699
-0.415737
0.488996
-0.265046
0.532569
-0.226429
0.0569952
-0.366654
0.410429
-0.248036
0.216173
-0.344388
0.128351
-0.282723
0.274738
-0.212674
-0.220507
0.144558
0.359731
0.00341745
-0.413922
0.145207
0.168106
-0.543005
-0.350976
0.430108
-0.078857
-0.273409
0.573297
-0.284522
-0.224391
-0.280144
-0.257937
0.469982
-0.462869
-0.553189
0.179917
0.373228
-0.392024
0.0596073
0.332485
0.324509
0.244247
-0.568738
0.143448
0.365707
-0.509147
-0.152662
0.380022
-0.22731
-0.344553
0.583884
0.331938
-0.590333
0.258376
-0.446945
-0.0397216
0.242712
0.257975
0.544442
-0.545158
-0.227008
-0.309077
-0.0615911
-0.369542
0.430935
0.481528
-0.376529
-0.0518454
0.233096
-0.533155
0.299895
0.297214
-0.152008
-0.402
0.234379
0.439601
0.258019
0.216154
0.337362
0.655856
-0.334388
-0.321448
0.568601
-0.29542
-0.273424
0.260114
-0.557786
0.297604
0.420849
-0.244449
-0.505365
0.152077
0.198727
0.444619
0.140559
0.16366
0.257584
-0.508921
0.251526
0.571366
-0.311319
0.174305
-0.405086
0.320231
0.202821
-0.523011
0.433528
-0.197649
0.389901
-0.17358
-0.346789
-0.414086
0.286102
-0.553933
0.267732
-0.309845
0.475609
-0.166034
-0.596191
0.158104
0.483303
0.0984455
-0.582446
0.195657
-0.369546
0.173819
0.0582914
0.226906
0.215256
0.434344
0.228403
-0.478629
0.249962
0.267847
0.296999
-0.299995
0.591672
-0.27779
-0.27575
-0.282823
0.558143
-0.305297
0.250677
-0.552728
0.209228
0.305372
-0.514639
0.223116
-0.481566
0.258446
0.298702
0.305165
-0.603906
-0.295801
0.251522
-0.289911
0.592231
-0.302223
0.0904254
-0.441152
0.589682
-0.265779
0.310322
-0.571302
0.260749
0.595411
-0.437304
0.123336
-0.271686
-0.251491
-0.0878271
-0.540384
0.229506
0.369403
-0.205746
-0.163509
-0.327169
0.112853
0.0451826
-0.281076
-0.268688
0.549682
-0.101003
-0.21181
0.3662
0.178041
0.327
0.328876
0.270616
-0.594934
0.583029
-0.251114
-0.254293
-0.310899
0.565297
0.417445
-0.220378
-0.196876
-0.238715
-0.107249
0.0807153
0.549869
-0.234591
-0.315233
0.562207
-0.34602
0.25664
0.295014
-0.25041
0.520593
-0.152493
-0.318442
-0.358675
-0.0462191
0.216068
-0.505779
0.289707
0.268347
-0.340504
-0.0514621
0.0689736
-0.0248668
0.482012
-0.317971
0.250323
-0.284515
0.583176
0.63539
-0.270319
-0.365355
-0.00766433
-0.341562
0.349311
-0.579683
0.168849
0.410829
0.289815
0.29465
-0.563451
0.268587
-0.27077
0.151913
0.119056
-0.100952
-0.321069
0.27916
-0.623741
-0.0993984
0.299022
-0.235731
-0.253592
0.489041
-0.134468
-0.20222
0.336789
-0.527454
0.510302
-0.366848
0.566015
-0.519919
-0.0461232
0.429092
-0.191698
0.281497
-0.500782
0.219096
0.589376
-0.301376
-0.525778
0.197739
0.309386
-0.571261
0.290737
-0.300826
0.00999572
0.290932
0.265383
-0.26794
-0.24579
0.308419
-0.408898
-0.280982
-0.294124
0.574839
0.150758
0.146455
-0.20923
0.56136
-0.236834
-0.50428
0.315658
-0.613734
0.203956
0.289734
0.299452
-0.438672
-0.115789
-0.494264
0.205621
-0.426408
0.221088
-0.279931
0.509913
-0.252162
-0.61861
0.275975
0.342588
0.498098
0.153684
0.304685
-0.577628
0.272909
0.399156
-0.342538
0.232729
0.277352
0.270236
0.370366
-0.415309
0.0964884
0.318925
-0.203029
-0.265079
0.387589
-0.122373
-0.370511
0.162032
-0.229079
0.434985
-0.55186
-0.286624
-0.060466
0.175917
0.0697223
-0.130155
0.27344
0.139592
0.256511
0.121152
0.0483269
-0.278853
-0.0218688
-0.0177787
0.239267
0.371185
-0.42435
0.053162
0.151017
0.271737
-0.422624
0.531055
-0.210792
-0.256166
0.651603
-0.324594
-0.3032
-0.22149
0.524701
0.196794
0.146784
0.608274
-0.246332
-0.138498
0.310977
-0.1724
0.432978
-0.335846
-0.382583
0.316206
-0.442585
-0.298082
0.616299
0.567084
-0.195898
0.445663
-0.214574
0.106415
-0.463614
-0.308459
0.54314
-0.234595
-0.323459
0.550066
-0.226626
0.14686
0.185417
-0.332213
-0.563303
0.238281
0.325086
-0.334076
-0.219151
0.53131
-0.00652123
-0.525522
-0.107394
-0.0217518
0.12919
-0.249706
0.396178
-0.146624
-0.275901
0.534297
-0.258386
-0.63345
0.285237
0.348209
0.442585
0.110168
0.269217
0.211159
0.518799
-0.309645
0.231981
-0.271359
0.487389
-0.413071
-0.330898
0.441235
-0.110349
0.100312
-0.373963
0.207623
0.264129
-0.245015
0.157165
-0.380162
0.0185631
-0.125914
-0.145929
0.309246
-0.163266
-0.511486
0.227166
0.284227
0.302343
-0.14875
-0.153525
0.255679
0.512618
-0.256695
-0.256036
-0.504717
0.235264
0.269641
0.20252
-0.470137
0.0761211
0.344284
-0.19734
0.298278
-0.0684669
-0.229784
0.54301
-0.256986
0.516218
-0.249792
-0.0898629
-0.380304
-0.267119
0.577259
-0.184542
-0.284367
0.280855
0.287506
-0.258723
0.0251412
-0.00736817
-0.556691
0.304016
0.448341
-0.297208
0.209338
-0.152169
0.348177
-0.195943
-0.347221
0.491191
-0.144021
0.28342
0.35168
0.21346
0.27543
-0.296913
0.157612
0.211924
-0.530167
-0.000776096
0.356491
-0.1525
-0.203888
-0.318063
-0.192979
0.511057
-0.271583
0.557086
-0.285626
-0.60374
0.283945
0.319779
0.342049
-0.156548
-0.210069
0.446564
-0.551836
0.259972
0.293904
0.26071
0.258475
0.254032
0.47376
-0.329201
-0.157802
-0.438482
0.279702
-0.194663
0.504065
-0.262401
-0.241687
0.241517
0.207929
-0.436832
-0.26761
0.596789
-0.329204
-0.371632
0.300306
-0.307886
-0.397
0.0563916
-0.371001
-0.275159
0.192959
0.260899
-0.453855
-0.229266
0.550319
-0.32101
-0.27604
0.580235
0.321007
0.217537
-0.538509
0.191703
-0.471599
0.284444
-0.556077
0.228855
-0.549374
0.320658
0.300608
0.216583
-0.228302
0.372252
-0.168486
-0.20392
0.284036
-0.560115
0.214701
-0.486085
0.214744
0.182454
-0.612417
0.280103
0.332276
-0.339976
0.404384
-0.0645445
0.181857
-0.333972
0.306052
-0.582119
-0.539997
0.282809
-0.293151
-0.277327
0.570326
0.259966
-0.234191
-0.0678809
-0.511805
-0.299932
0.580646
-0.28089
0.295479
-0.54258
0.2471
0.313313
0.257977
-0.173949
-0.310948
0.557353
-0.246422
-0.576671
0.283437
-0.255973
-0.227426
0.483379
0.440047
-0.231997
-0.263947
-0.304332
-0.329122
-0.32369
0.348314
0.289523
-0.218568
0.500022
0.274076
-0.122042
-0.276083
-0.272803
0.487447
0.506782
0.0137513
-0.520862
-0.330509
-0.0847041
-0.349962
-0.0914924
0.441374
-0.233823
-0.0512596
-0.400226
0.451525
-0.188495
-0.262417
-0.24312
0.0540346
-0.148472
-0.215505
0.40727
-0.562819
0.169706
-0.554292
0.288046
0.000743691
-0.273477
0.145439
0.254533
0.362888
-0.505619
0.142725
-0.254935
-0.56946
0.255946
0.313588
-0.230971
0.44559
-0.214379
-0.488607
0.138551
0.368184
0.557581
-0.262107
-0.246058
0.582677
-0.336519
-0.170974
-0.241922
0.470072
0.593552
-0.307602
-0.286096
-0.119706
-0.34832
0.468005
-0.203659
0.172051
0.52032
-0.157415
0.516628
0.375324
-0.629483
-0.152038
0.438561
-0.286474
-0.270617
0.252915
-0.1149
-0.439322
0.209241
-0.403708
0.280633
0.264985
-0.545697
0.611182
0.528495
0.45155
0.228273
-0.573967
0.345642
0.329084
-0.17861
-0.150355
-0.156418
0.27306
-0.116596
0.237584
0.323723
-0.313201
0.549876
-0.246442
-0.557865
0.311311
0.246484
-0.216345
0.519514
-0.10832
0.573765
-0.28024
-0.295116
0.587468
-0.292532
-0.284394
0.199796
0.255139
0.129468
0.436523
0.188891
0.240199
0.000484566
0.247455
-0.58807
0.340573
-0.244615
-0.279428
0.492787
0.601854
-0.354417
0.295488
0.262089
0.529817
-0.289998
-0.239878
0.317177
-0.603238
0.286048
0.342921
-0.111197
-0.231579
0.160904
0.211196
0.257021
0.0412785
0.288272
-0.349601
0.23853
-0.464335
0.226055
-0.571253
0.29
0.26394
-0.126514
-0.0936215
0.382042
0.0669403
0.377774
-0.444771
-0.210026
0.268477
0.241462
-0.389666
0.285354
0.515711
0.0137651
-0.529494
0.206998
0.322759
0.5219
-0.294827
-0.551973
0.22848
-0.260375
0.440434
-0.179916
0.323079
0.375602
-0.235661
0.136076
0.193123
0.281343
-0.588746
0.307371
-0.254744
0.5976
-0.342875
0.296415
0.34709
0.347279
0.589474
-0.52928
0.52211
0.31724
0.253939
-0.571246
0.298588
0.248271
-0.54712
0.289821
-0.559193
0.269273
-0.240805
-0.112157
-0.393465
0.147028
-0.211791
0.449309
-0.237474
-0.0902663
-0.162689
-0.298996
0.543493
-0.590726
0.282855
0.30796
-0.0338868
-0.363133
-0.38525
0.452136
0.13421
0.208855
0.0744336
0.325063
0.510505
-0.209874
0.238991
0.292007
-0.531078
-0.446542
-0.0855097
0.14024
0.101697
-0.241834
0.152905
0.0619974
-0.479622
0.243565
-0.646084
-0.60825
0.332721
0.275542
-0.537887
0.354637
0.183287
-0.539151
-0.601207
0.320637
0.2806
-0.258466
-0.370967
0.566043
-0.195017
0.557647
-0.350694
-0.124007
0.420451
0.255014
-0.155208
-0.552451
0.143749
0.408663
-0.191729
-0.275186
0.467025
0.00448819
-0.148227
0.350146
-0.201896
0.162831
0.394769
-0.591983
0.306862
0.284855
0.287312
-0.474231
0.186899
-0.327507
-0.273666
-0.354048
0.19888
0.155241
-0.540326
0.28466
0.255426
0.464106
-0.0499128
-0.222002
0.402958
0.303467
0.278617
-0.322957
0.55095
-0.228014
0.2552
-0.161711
0.228379
-0.39869
0.470049
0.425351
-0.138311
0.56618
-0.339441
-0.226716
-0.302744
-0.0954449
-0.195444
-0.388021
0.542191
-0.252488
-0.451973
0.174274
0.368289
-0.542545
0.186368
0.239063
-0.504724
0.264537
0.240156
-0.129656
0.464306
-0.315561
-0.153199
0.361082
-0.1695
-0.191462
-0.496147
-0.223602
0.381398
0.282769
-0.571653
0.288847
0.138885
-0.279921
0.512775
0.257671
0.196152
-0.453789
0.302952
0.207569
0.311668
0.261624
-0.573289
0.175921
0.13514
-0.373915
0.568233
0.558465
-0.277283
0.322557
-0.551814
0.567431
-0.216242
-0.351094
-0.254035
0.530676
-0.276986
-0.400096
0.182038
0.218003
-0.270983
0.55969
-0.288901
0.312323
-0.565953
0.253611
0.00058931
0.604799
-0.605549
0.140653
0.166893
-0.291247
0.580779
-0.289586
0.274868
0.282089
0.304799
0.2604
-0.56526
0.239403
0.299337
-0.538792
0.200984
0.155602
0.139072
-0.563023
-0.311654
0.548875
-0.268293
-0.218001
0.539047
-0.515301
0.239421
-0.459765
0.18583
-0.389656
0.261431
0.19189
-0.453351
0.214005
-0.486826
-0.0172806
0.523666
-0.249762
-0.145841
0.124151
0.219098
-0.511752
0.292663
-0.475697
0.0866531
0.168458
-0.593048
0.364905
0.22815
-0.356657
-0.296426
-0.295053
-0.310754
0.605794
0.278076
-0.397904
0.224536
0.210421
0.249266
0.285041
-0.561816
0.307589
0.254125
-0.00255401
0.548153
-0.545722
-0.39334
0.556617
-0.163302
-0.271458
0.485503
-0.205101
0.416488
-0.211388
0.341763
0.178572
-0.359997
-0.2876
0.285907
-0.557064
-0.442069
-0.131768
0.503855
-0.218604
-0.285158
0.541605
-0.229935
0.195047
0.0791508
-0.329317
-0.240071
0.172118
-0.303164
-0.545935
0.127717
0.418192
-0.478036
-0.354436
-0.258017
0.383166
-0.148284
-0.331829
0.554903
-0.223005
-0.292643
-0.170786
-0.51892
0.519201
0.297107
-0.563447
0.266118
-0.148119
0.298888
-0.173191
-0.218084
-0.282906
-0.342653
0.154302
0.18842
0.219497
0.262601
-0.20888
0.383091
-0.280885
0.564237
-0.0518195
0.561964
0.172753
0.343193
0.168065
0.134348
-0.193935
0.54292
0.248074
0.256308
-0.18859
0.276887
0.273955
-0.551065
-0.521631
0.267141
0.526444
-0.259854
-0.266565
0.468679
-0.218551
-0.250338
0.238438
0.262181
-0.500657
0.531208
-0.142478
0.201815
-0.429469
0.22759
0.399799
-0.451035
0.22359
0.284056
-0.583482
0.299379
-0.278491
0.516365
-0.277927
-0.243213
-0.440837
0.414064
-0.204821
0.536882
-0.249592
-0.292838
0.0513182
0.238284
-0.289475
0.217087
0.199403
-0.293316
-0.139023
-0.145272
-0.278623
0.569312
-0.207047
-0.283385
0.490552
-0.607232
0.274464
0.332727
-0.0139084
0.574972
-0.274888
-0.300692
-0.3739
0.309958
0.55035
-0.294829
0.578754
-0.284093
-0.25911
-0.531457
0.296376
0.235066
-0.570823
0.276845
0.293663
0.400051
-0.579416
0.179352
-0.286418
-0.259852
0.546188
-0.269775
0.405165
-0.190365
0.248389
-0.482126
0.258624
-0.59557
0.336903
0.193488
0.154753
0.321997
0.111274
0.299104
0.275262
-0.283048
0.573761
-0.290776
-0.278914
0.550689
-0.271773
-0.0379467
-0.0692938
-0.144265
-0.18789
-0.505432
0.0818078
0.28846
-0.571645
0.277321
0.419253
0.190053
0.154316
0.582524
-0.314562
0.598462
-0.283879
-0.2766
0.572062
0.597057
-0.33844
0.555548
-0.241978
-0.377462
-0.301832
-0.290416
0.432102
-0.230398
0.521393
-0.280875
-0.241098
0.572503
-0.289684
-0.249536
-0.319326
0.56876
0.226918
-0.456766
0.22986
0.300127
-0.584641
0.326956
-0.228423
-0.098402
-0.0344696
-0.587787
0.274232
0.273617
0.296136
-0.570336
0.277076
0.265849
0.0885495
0.0025852
0.30634
0.261439
-0.567797
0.156082
0.190105
-0.346097
-0.530029
0.529992
-0.000781376
0.301691
-0.57915
-0.218416
0.50855
-0.29048
-0.265697
0.0184184
0.351468
0.150213
-0.484332
0.0639582
-0.417687
0.572425
-0.154735
-0.136835
0.269107
-0.132236
-0.269707
0.517635
-0.344068
0.148213
0.29836
0.228113
0.376819
-0.200006
-0.176881
0.23754
-0.003289
0.517749
0.207049
0.608434
0.153927
0.188207
0.0642959
0.262284
-0.326484
-0.402212
0.274633
0.295241
-0.57003
0.248106
0.220361
0.323944
-0.227288
-0.346279
0.148978
0.127135
0.515877
-0.519696
0.587711
-0.331701
-0.246423
0.516771
-0.270573
0.585626
-0.301608
0.124246
-0.214407
0.34079
-0.186872
0.312654
-0.580298
-0.236012
0.603837
-0.356231
-0.247634
-0.209697
-0.22178
0.460523
0.408353
-0.558393
0.15006
-0.349609
-0.213629
0.285456
-0.107156
0.117874
-0.0106519
0.461896
0.0176765
-0.480139
-0.0718555
-0.564857
0.113532
0.339707
0.137303
0.189791
-0.222543
-0.241546
0.286893
0.280667
-0.567793
-0.358537
0.157315
-0.269903
0.497704
-0.228
-0.581195
0.321837
0.259394
-0.291612
-0.279518
-0.149729
-0.227213
-0.365827
0.0314285
0.161896
-0.231609
0.367803
-0.0826201
0.288503
-0.507262
0.165158
0.207646
0.224344
-0.275432
0.551955
-0.542087
0.231103
-0.472768
0.533833
-0.0610818
0.300688
0.088348
-0.398763
0.183266
0.367
-0.165924
-0.365095
0.138427