/*--------------------------------*- C++ -*----------------------------------*\
| =========                 |                                                 |
| \\      /  F ield         | OpenFOAM: The Open Source CFD Toolbox           |
|  \\    /   O peration     | Version:  v2012                                 |
|   \\  /    A nd           | Website:  www.openfoam.com                      |
|    \\/     M anipulation  |                                                 |
\*---------------------------------------------------------------------------*/
FoamFile
{
    version     2.0;
    format      ascii;
    class       volVectorField;
    location    "300";
    object      U;
}
// * * * * * * * * * * * * * * * * * * * * * * * * * * * * * * * * * * * * * //

dimensions      [0 1 -1 0 0 0 0];


internalField   nonuniform List<vector> 
10042
(
(0.993904 0.00955344 1.99135e-21)
(0.822002 -0.2236 2.19744e-21)
(1.06202 -0.0204654 0)
(1.0155 0.00143807 -1.40299e-22)
(1.01211 0.0004519 0)
(0.967648 -0.252156 0)
(1.10926 0.230729 1.80567e-20)
(0.910805 -0.277287 4.88647e-22)
(1.01327 -0.00122736 0)
(0.972367 0.0636617 -2.36936e-21)
(0.940428 0.0177642 -2.89875e-21)
(0.859151 -0.223772 -3.98969e-20)
(1.06845 0.0261058 5.24972e-21)
(1.01246 -0.00106187 0)
(1.02728 0.00200753 2.02904e-21)
(1.01262 -0.00134544 0)
(0.982009 -0.253702 -2.4611e-20)
(0.944216 0.0288592 -1.57253e-21)
(1.04621 0.0108556 0)
(1.00877 -0.00494769 3.29866e-21)
(1.06768 0.0292576 -4.86682e-21)
(0.993493 0.00336262 -1.82947e-21)
(1.01534 0.00138005 1.20191e-22)
(0.912052 -0.316598 -6.67492e-21)
(1.01382 0.00255275 0)
(1.01081 -5.70743e-05 -6.23384e-22)
(0.974257 0.0576181 2.90203e-21)
(1.01302 -0.000736068 2.49508e-21)
(0.968002 -0.271359 -4.35786e-21)
(0.904939 -0.289407 -2.55107e-20)
(1.0087 0.000133117 8.04493e-22)
(1.07018 0.00759338 1.55976e-20)
(1.01327 -0.00114066 -1.46856e-21)
(1.01317 -0.00107686 -3.09288e-21)
(0.909107 -0.273261 1.12335e-20)
(0.912209 -0.268791 -2.09901e-20)
(1.01655 0.000441415 -6.64678e-22)
(1.01184 -0.000319607 1.83112e-21)
(1.01011 0.000262091 -8.49075e-22)
(1.01619 -0.00380077 -1.51406e-23)
(0.903999 -0.30568 -1.67752e-20)
(1.01316 -0.00115527 0)
(1.19318 -0.0251953 5.91833e-21)
(0.969135 -0.263923 -2.76903e-21)
(1.01481 0.00216176 1.91829e-22)
(1.01384 0.00260876 6.79074e-22)
(1.01409 -0.000701992 2.30902e-21)
(1.02657 0.00194249 5.42821e-21)
(1.03253 0.100455 0)
(0.949075 -0.10338 3.20144e-20)
(1.19548 -0.0252534 -6.33498e-21)
(1.01365 0.00107818 0)
(0.994815 -0.246873 3.12667e-20)
(1.04467 0.0107839 0)
(0.817136 0.343427 2.31369e-20)
(0.709128 -0.42405 -1.4755e-20)
(1.06445 0.0295673 9.04565e-21)
(0.985099 0.00520047 1.1857e-21)
(1.02399 0.00770447 2.47546e-21)
(1.01611 -0.000689592 8.94508e-23)
(1.02302 0.100531 0)
(0.848561 0.307886 1.91239e-21)
(1.16436 -0.014383 9.15983e-22)
(0.948866 -0.231995 2.78419e-21)
(0.99263 0.0293182 7.0336e-22)
(1.01375 0.0040967 2.80772e-21)
(1.01307 -0.00461786 2.26687e-21)
(1.00231 0.0412244 -1.2246e-22)
(1.01442 -0.000899998 1.20871e-21)
(0.997624 0.0343048 0)
(1.10183 -0.0701259 0)
(1.01456 0.00909099 -4.48483e-22)
(1.0129 -0.000399767 0)
(1.02395 0.00712253 0)
(1.0137 0.00375755 -8.54072e-22)
(1.1384 -0.0584818 0)
(1.02977 0.0245256 0)
(1.01417 -0.000753085 -2.28653e-21)
(1.03376 0.0238645 1.48942e-21)
(1.04715 0.00964028 0)
(0.946978 -0.283162 -3.83502e-21)
(0.913695 -0.314945 -2.38985e-21)
(1.00558 9.7907e-05 7.63e-22)
(1.0126 0.00081109 -6.56167e-22)
(0.977522 0.0156577 0)
(1.01834 0.155816 2.92059e-21)
(1.01424 -0.00333667 -2.14655e-21)
(1.06542 -0.0123798 1.26623e-21)
(1.01357 0.000897747 -2.0203e-21)
(1.01415 0.0278103 0)
(1.0575 0.0210031 0)
(1.02774 0.0014874 -2.18936e-21)
(1.16337 -0.00247512 -7.70378e-22)
(1.0067 0.165639 -2.49741e-21)
(0.98154 0.0104114 3.61641e-21)
(1.01685 0.00413195 4.4645e-23)
(0.0640234 0.0225965 1.97794e-19)
(1.01078 -0.00381177 -2.43495e-21)
(0.957927 0.269774 -6.91404e-21)
(1.02438 0.00640542 6.98058e-23)
(1.05586 0.0207545 -2.80995e-21)
(0.952911 0.0933654 0)
(1.01813 0.00803391 -2.12525e-22)
(1.06844 0.00813226 -2.45277e-20)
(1.04659 0.0182852 -1.33079e-20)
(1.01899 0.00683401 7.22488e-26)
(0.578281 -0.360622 -1.53631e-20)
(1.01392 0.00376742 1.66567e-21)
(1.08754 0.238549 6.67569e-21)
(1.01923 0.00730745 0)
(1.02269 0.00701017 0)
(1.06764 0.214582 -1.23544e-20)
(0.949947 0.0824875 6.05565e-22)
(0.948389 -0.230241 4.01159e-21)
(0.994456 0.0227577 2.84017e-21)
(1.01487 -0.00113816 7.82002e-22)
(0.988746 -0.00325271 2.58095e-21)
(1.00936 0.000197897 0)
(0.989186 0.00228059 0)
(1.01521 -0.00121065 -1.157e-21)
(1.01608 -0.000749911 -1.00905e-22)
(0.94339 -0.0952061 -1.99931e-20)
(0.978033 -0.0833724 -4.49244e-20)
(1.01494 0.0023085 0)
(1.01856 0.0295619 -6.75768e-22)
(1.01395 0.000819347 -1.59828e-21)
(1.01406 0.000727282 0)
(0.826542 0.349621 -2.67362e-20)
(1.08554 -0.0678375 -1.40119e-20)
(0.989639 -0.00765063 -9.08453e-23)
(1.01236 -0.000638191 -1.65946e-21)
(1.01342 0.0026534 0)
(1.01515 0.000745674 -2.00153e-21)
(1.01447 0.00379946 2.5355e-21)
(1.05122 0.217315 0)
(1.2126 0.0438906 -1.51784e-20)
(1.01954 -0.00478652 -2.14008e-21)
(0.550337 -0.272298 3.41074e-21)
(1.03478 0.012889 1.19717e-21)
(0.981527 0.252612 1.18177e-20)
(1.11685 0.0195455 -7.97268e-22)
(1.01192 -0.000238759 3.06705e-21)
(0.572552 -0.338002 2.02587e-22)
(1.01292 -0.000681008 -2.54035e-21)
(1.02766 0.0328874 0)
(1.01196 -0.000345492 -1.94181e-21)
(0.982388 0.0152479 -4.08703e-21)
(1.01446 -0.000891384 0)
(1.01516 0.00501655 0)
(0.847879 -0.301707 2.67128e-20)
(1.01381 0.00347203 -1.76842e-21)
(1.01061 -0.000119029 -1.58263e-21)
(1.03652 0.0145259 -2.94833e-21)
(1.07624 0.0247246 9.07183e-22)
(0.986236 0.00618002 -8.60828e-22)
(1.02561 0.0340016 0)
(1.09055 -0.0583378 1.35938e-20)
(0.731983 -0.429934 -1.50177e-20)
(1.0151 0.000481205 -2.06361e-21)
(1.00877 -0.000219162 4.4448e-22)
(1.01118 0.000329469 -8.78923e-22)
(1.01612 -0.00470712 -1.59383e-23)
(1.24057 0.090598 1.38697e-20)
(1.01371 0.000842546 2.05467e-21)
(1.03224 0.0108149 0)
(0.86103 -0.320778 4.39405e-21)
(1.01292 -0.000361042 0)
(1.06905 0.00848889 1.92693e-20)
(0.90691 -0.277472 3.47264e-20)
(1.01315 -0.000978832 -9.30529e-22)
(0.981678 -0.0116624 0)
(0.89441 -0.266325 2.69831e-20)
(1.03844 0.0651856 0)
(1.01325 -0.00104587 3.95133e-21)
(1.04388 0.0119802 -4.84326e-21)
(1.01793 0.0082515 0)
(1.01437 0.00275475 0)
(1.01198 -0.000380318 -1.64067e-21)
(1.01337 0.00249872 0)
(1.01431 -0.000851729 -1.50027e-21)
(1.03365 0.0125681 2.37754e-21)
(1.04293 0.0228141 0)
(1.02452 0.00694034 -5.57306e-21)
(1.01483 -0.000959066 0)
(0.954061 -0.0214824 -5.62955e-22)
(1.06049 0.0137199 0)
(1.01477 0.0101335 2.33161e-22)
(1.01602 -0.000558654 6.99679e-23)
(0.730018 -0.222084 -8.10629e-21)
(1.01008 8.68574e-05 -1.75278e-21)
(0.814459 -0.269135 4.78091e-20)
(1.06308 0.0325746 -3.12086e-21)
(1.01242 -0.00062848 -8.774e-24)
(1.04217 0.0216184 0)
(0.841075 0.357223 2.32958e-20)
(1.02757 0.000952572 0)
(0.645646 -0.0196 2.28287e-20)
(0.993483 -0.0306484 3.05185e-21)
(0.00544735 0.0675535 -5.77638e-21)
(1.01271 0.000751416 1.04596e-21)
(1.04996 -0.0981913 0)
(1.13469 0.0109116 0)
(0.941212 0.0472242 -1.44335e-21)
(1.01297 -0.000267476 0)
(0.952201 0.290431 2.29133e-20)
(1.01484 0.000913695 0)
(0.944806 -0.263062 9.52122e-21)
(1.07463 0.0267965 0)
(1.02207 0.00667309 -1.44264e-21)
(1.0147 0.00397559 -1.78384e-21)
(1.06968 0.0080018 -1.46859e-20)
(1.01325 -0.000296688 -1.94105e-22)
(0.924289 0.0508286 -7.29213e-22)
(0.96234 0.0556985 2.85852e-21)
(1.01569 0.000379212 -6.32721e-22)
(1.00732 0.0261353 -2.45211e-21)
(1.01331 -0.000281365 0)
(1.097 0.2146 0)
(1.01489 0.000755858 0)
(1.07929 -0.0906276 2.49069e-21)
(0.38022 -0.042103 7.22119e-22)
(0.988283 -0.0128047 0)
(0.33242 -0.0661497 3.79655e-21)
(1.00164 0.0270324 2.43558e-21)
(1.01557 0.00152417 1.71187e-22)
(1.13632 0.00120725 0)
(1.01625 0.0047678 -6.8657e-22)
(1.01977 -0.00333085 3.35738e-21)
(0.985249 0.0485382 -3.05563e-21)
(1.01848 0.0085324 4.40256e-22)
(1.01208 -0.000412082 3.38813e-21)
(1.01431 0.000611508 -1.23887e-21)
(1.0597 0.0151083 0)
(1.00767 0.000181313 6.44399e-22)
(1.01427 0.00276575 6.12442e-22)
(0.906908 -0.280446 1.61377e-22)
(1.02219 0.00019316 3.84224e-21)
(0.043192 0.0140236 -1.65571e-19)
(1.02788 0.0303057 -1.92152e-21)
(0.914749 -0.313324 8.68317e-21)
(1.03619 0.209706 5.29287e-21)
(0.8099 -0.0535338 0)
(1.01617 -0.000841863 9.86619e-23)
(1.01514 -0.00467416 -2.53835e-22)
(0.770463 0.313623 -3.70817e-20)
(1.01211 0.000472799 0)
(0.817674 -0.0656598 4.8646e-21)
(1.02605 0.0286869 1.57693e-21)
(1.03704 0.0154217 -1.37309e-22)
(1.01146 0.000297896 0)
(1.04582 0.0167634 5.22184e-21)
(1.01253 -0.000701419 1.911e-21)
(0.958192 -0.096495 9.45229e-23)
(0.770636 0.291048 -5.75081e-21)
(1.0156 0.00487872 0)
(1.02171 0.00108618 -1.68694e-21)
(1.00921 8.13561e-05 -2.6475e-22)
(1.01625 0.00344962 0)
(0.158518 -0.027618 -6.08731e-20)
(1.01458 0.000926869 1.51177e-23)
(1.00938 0.0328932 0)
(1.01197 -0.000309497 0)
(1.01353 0.00105888 0)
(1.01404 -0.000718859 4.16755e-22)
(1.07101 0.0250738 -6.3664e-21)
(0.7418 0.277086 8.04059e-21)
(1.00465 0.0299921 0)
(0.971317 -0.0883813 -9.68737e-23)
(1.00468 -0.000108209 0)
(1.01448 0.000664552 0)
(1.01986 0.00134716 -3.39168e-21)
(1.0627 -0.0357524 -3.30258e-20)
(1.01227 0.000441181 0)
(0.957953 -0.115506 0)
(1.0165 0.00362348 0)
(0.996288 -0.0113552 2.62684e-21)
(1.03762 0.00414033 0)
(1.01435 0.00232294 -8.46246e-22)
(1.00465 -3.33871e-05 0)
(0.852925 0.360296 -2.81432e-20)
(1.01307 -0.000812244 -1.48261e-23)
(0.81736 0.0753535 0)
(0.690647 -0.00694157 -1.56272e-20)
(1.03652 0.00407448 8.86255e-21)
(1.01362 0.000103798 0)
(0.159234 -0.171377 7.70653e-21)
(1.00097 -0.0201466 -4.33792e-21)
(1.01429 -0.000953891 1.6518e-22)
(0.993763 -0.0087392 0)
(1.00969 -6.65843e-05 -1.20957e-22)
(1.05812 0.0352165 -1.0547e-21)
(1.00842 -0.012281 -2.05331e-21)
(1.01232 0.000209167 1.11163e-21)
(0.808914 0.0757278 -7.07152e-21)
(0.997689 0.0341047 -2.13523e-21)
(1.0135 -0.00188393 0)
(0.900049 -0.126032 -2.00463e-21)
(1.02137 -0.00224182 -9.23241e-22)
(1.02004 0.00117498 1.90714e-21)
(1.01321 -0.000273438 1.28454e-21)
(1.03518 0.0144291 2.89664e-21)
(0.950428 0.0592622 -1.28474e-21)
(1.01606 -0.000572869 -3.36202e-23)
(1.06187 0.214629 -1.42251e-21)
(0.997937 -0.0165989 2.50054e-21)
(0.845466 0.293168 -8.10972e-21)
(1.01221 0.000490689 -3.05644e-21)
(1.01492 -0.00594617 2.60767e-22)
(0.894325 -0.144446 1.20843e-22)
(0.808089 0.11004 2.45337e-21)
(1.01516 0.000185568 1.43222e-21)
(1.01413 0.00334965 0)
(1.01691 0.00410367 -8.2406e-23)
(1.01326 -0.00172422 6.99857e-22)
(1.01096 -0.0132592 2.29524e-22)
(0.996006 -0.0142373 0)
(1.01396 -0.000662139 0)
(0.96447 -0.0234155 9.45026e-22)
(0.921233 -0.295275 1.29633e-20)
(1.01494 -0.00113264 1.28838e-21)
(1.00798 -0.00011913 0)
(0.913707 -0.13643 0)
(0.99975 -0.0114114 2.55003e-21)
(1.05917 0.057567 0)
(0.93997 0.000914453 -4.71594e-22)
(1.01482 0.000268322 9.86236e-22)
(1.01681 -0.0156342 3.00585e-21)
(1.01328 0.00223987 1.98504e-21)
(1.02113 -0.00103782 -1.89848e-21)
(1.05506 0.0346485 0)
(1.01487 0.00114166 0)
(1.01947 0.00504846 8.98146e-22)
(0.999691 0.01107 -6.75708e-22)
(1.00979 -6.08196e-05 -1.78027e-21)
(0.933085 -0.289108 0)
(0.987234 -0.0064646 5.86451e-22)
(0.596479 -0.342535 0)
(1.05501 0.0572385 1.33481e-21)
(1.0126 -0.000684825 1.84937e-21)
(0.868742 -0.30302 -1.06934e-20)
(1.11998 0.0292585 8.22567e-22)
(1.0635 0.0392391 9.82067e-22)
(1.01617 -0.000892059 -1.01637e-22)
(1.00769 -0.0133953 -2.79033e-21)
(1.01043 0.000290258 0)
(1.01211 -0.000467264 -1.64577e-21)
(1.01224 0.000638471 0)
(1.01265 0.00053748 -8.41683e-22)
(1.01613 -0.00616994 0)
(-0.0050748 0.0753883 3.66443e-20)
(1.03166 0.00332377 5.83882e-21)
(0.983504 0.0174046 0)
(1.01762 -0.00571725 -1.41946e-21)
(1.01667 -0.000838945 0)
(0.838855 0.318722 0)
(1.01601 -0.0186509 -1.93247e-21)
(1.01617 0.00516463 0)
(1.00329 7.02837e-05 -1.11422e-21)
(0.719497 -0.103856 -2.52528e-20)
(1.00475 1.95563e-05 0)
(1.01923 0.00657825 0)
(1.01648 0.000419459 2.16165e-21)
(1.03134 0.0114011 5.25996e-23)
(0.883429 -0.241832 2.46554e-21)
(0.886291 -0.306141 -9.68246e-21)
(1.03337 0.0111148 -2.56029e-21)
(1.01297 0.000715357 0)
(1.01871 -0.00369443 9.62677e-22)
(1.01765 -0.00441504 3.31829e-22)
(0.840153 0.340518 -3.71661e-20)
(1.01603 -0.000619063 0)
(1.00662 0.000159573 0)
(1.01229 0.000612881 1.12971e-21)
(1.01178 -0.00023042 1.77275e-23)
(1.01276 0.139613 0)
(1.01235 0.00132509 2.44632e-21)
(0.993952 -0.00595164 0)
(0.96331 0.17108 -2.74716e-21)
(0.718857 0.123768 2.06933e-20)
(1.02184 0.132546 0)
(1.01891 0.00551609 6.87016e-22)
(0.983958 0.184666 6.56685e-22)
(0.980927 0.0425145 3.23659e-21)
(1.01324 0.00209565 -1.85108e-21)
(1.08341 0.0131376 0)
(1.01513 -0.00122144 -7.52798e-22)
(1.0122 0.000464164 0)
(1.0151 -0.00112321 0)
(1.01352 0.000381298 0)
(1.01416 -0.000892946 -7.39947e-22)
(1.01685 0.00347459 8.72239e-22)
(0.583416 -0.476762 -7.47171e-21)
(1.0312 0.00397729 2.70365e-21)
(1.02659 -0.0153436 -2.19654e-21)
(0.902902 -0.281157 2.1458e-21)
(0.790216 0.276696 -4.86598e-21)
(1.01653 0.00178906 1.00184e-21)
(0.918826 -0.265499 0)
(1.01611 0.000115847 -9.90212e-22)
(1.07065 0.00770342 -8.54299e-21)
(1.01378 0.000982722 0)
(0.203783 -0.105816 -3.97472e-22)
(1.02277 -0.00200922 6.96859e-23)
(0.820384 0.32463 0)
(0.305945 -0.18849 0)
(1.01691 -0.000859178 0)
(1.11215 0.0349258 0)
(1.01852 -0.000342371 0)
(1.02495 0.177826 -6.27417e-21)
(1.01694 0.00365278 -8.62064e-22)
(1.06782 -0.0392161 2.91492e-20)
(1.03642 0.035372 0)
(0.805789 0.0020451 -6.65071e-21)
(1.03024 0.00394239 -3.1923e-21)
(1.02518 -0.119602 -7.95805e-21)
(1.0111 0.00345258 -1.69129e-21)
(1.02478 0.0399003 -1.098e-21)
(0.838441 0.339242 3.49293e-21)
(1.01375 -0.00066963 7.17294e-22)
(1.01165 0.00350903 3.70394e-21)
(1.01049 -5.71234e-05 3.56365e-21)
(0.920498 -0.282826 1.09103e-20)
(1.01221 -0.000509073 1.73325e-21)
(1.01491 -0.000949156 0)
(1.12074 0.0128811 0)
(1.0128 0.00936827 -3.97591e-21)
(0.974194 0.0286536 0)
(1.08265 -0.0335543 0)
(1.01447 0.000924468 9.16199e-23)
(1.06545 0.0358731 7.55563e-21)
(1.01219 0.00851868 3.5606e-21)
(1.01423 -0.000868935 1.31438e-21)
(1.0345 0.0367783 1.62924e-21)
(0.917717 -0.272798 -9.79667e-21)
(1.01828 -0.000852634 -2.37626e-22)
(1.03029 0.0108537 4.3111e-21)
(1.06559 0.42106 -3.94757e-20)
(0.989914 -0.00451055 0)
(1.00819 -6.34942e-05 1.32677e-21)
(0.694739 -0.457399 2.47332e-20)
(1.01277 -0.000626302 -1.52923e-21)
(1.01309 -0.0114188 0)
(1.03744 -0.00819874 0)
(0.769155 -0.191498 5.11462e-21)
(1.14285 -0.00558242 3.10942e-20)
(0.928639 -0.0430057 0)
(1.04008 -0.0950065 3.94461e-21)
(1.23902 0.108418 -1.80192e-20)
(0.931945 -0.25033 -1.1969e-20)
(1.01515 -0.00100331 -8.182e-22)
(1.00306 -0.0151319 0)
(0.947468 -0.149096 -1.06084e-22)
(0.966424 -0.14067 2.88617e-22)
(1.08156 0.0151198 1.16589e-20)
(1.01532 0.00124587 1.82647e-22)
(1.01234 0.000778374 0)
(0.990941 0.0176644 0)
(0.631077 -0.503836 6.10019e-21)
(1.0149 -0.00104095 0)
(1.0172 -0.00250302 4.99138e-23)
(1.00929 0.000265278 -9.0516e-22)
(1.01622 0.00181401 8.7545e-22)
(1.01207 -0.0018134 2.01477e-21)
(1.01169 -0.00145802 -2.01427e-21)
(1.01359 0.000460444 0)
(1.00792 0.000112424 -1.13957e-21)
(0.9864 0.000471578 2.91305e-21)
(1.03733 0.00204645 -4.51857e-21)
(1.01511 -0.0121107 3.07657e-21)
(0.979644 -0.00433651 0)
(1.23086 0.137943 1.47792e-20)
(1.01473 -0.00127073 -2.72899e-21)
(0.275884 -0.257679 0)
(1.10204 0.38397 4.08037e-20)
(0.905321 0.221797 2.23688e-21)
(1.01029 -7.13056e-05 1.10331e-21)
(1.05762 0.00610695 1.23355e-20)
(1.00908 -0.000139531 8.74156e-22)
(0.798308 0.257493 -4.00513e-21)
(1.02045 0.00215054 0)
(1.00041 -0.0284163 0)
(1.02979 0.00453843 -4.12441e-21)
(0.981964 0.229392 3.31057e-21)
(1.0115 -0.000177118 -1.81658e-21)
(1.04716 0.015274 -1.14861e-20)
(1.01741 -0.0027918 -5.58981e-23)
(1.00564 -0.0141533 1.24476e-21)
(1.04748 0.168571 0)
(1.00956 -6.54868e-05 -1.31085e-21)
(1.01171 0.000374175 0)
(1.01437 0.00359798 0)
(0.96123 -0.302105 5.6719e-20)
(1.01199 -0.000313465 1.95995e-21)
(1.00547 -0.0196883 2.90044e-21)
(1.06622 0.0132878 0)
(1.11164 0.0441729 -4.44161e-23)
(1.0163 -0.00101058 0)
(1.0016 -0.0212785 -2.88447e-21)
(0.817859 0.0734558 2.49276e-20)
(1.13186 0.311474 0)
(1.02156 0.00575288 0)
(1.01011 0.000268494 0)
(0.809516 0.0311686 0)
(0.984911 -0.274839 -3.22038e-20)
(1.0432 0.0678395 9.97094e-22)
(0.903691 -0.139635 0)
(1.00977 0.000170975 -2.08173e-22)
(0.987415 -0.0244186 -8.5076e-22)
(0.992716 0.0313085 0)
(1.0081 0.0364162 3.16663e-22)
(1.02581 0.0245077 -2.06887e-23)
(0.934462 -0.253853 -5.38075e-21)
(1.01622 -0.00114708 0)
(1.0151 0.00119254 -1.05106e-22)
(1.02008 0.00816268 1.87311e-21)
(0.83243 0.112809 -2.34514e-20)
(1.01509 0.00220654 2.31744e-23)
(1.0024 0.168543 0)
(1.0161 0.0017371 -9.28883e-22)
(1.02189 0.00475141 -1.46177e-21)
(1.01457 -0.00150219 0)
(1.02172 0.0389198 0)
(0.885089 -0.131289 -1.68638e-22)
(1.019 0.00858288 -8.33395e-22)
(1.02935 0.0112592 0)
(0.793223 -0.117393 4.10553e-21)
(0.987666 -0.025437 0)
(0.980871 -0.00826909 -4.55863e-21)
(1.01927 0.00829805 6.10919e-22)
(1.01342 0.00310293 0)
(0.979656 -0.0238334 8.48241e-22)
(1.15318 0.28182 2.96333e-22)
(1.01918 0.00588844 -8.12461e-22)
(1.01444 -0.00100429 7.68194e-22)
(1.05704 0.0151535 -3.58814e-22)
(1.01694 0.00430569 0)
(1.01856 0.00440105 1.70704e-22)
(0.929758 -0.0649257 -7.25088e-21)
(1.01226 -0.000574279 0)
(0.756875 0.318518 -1.05792e-20)
(1.01309 0.000771866 0)
(0.983245 0.0560537 3.0446e-21)
(1.0195 -0.0109176 -2.18602e-21)
(0.229286 -0.0621157 -4.60021e-21)
(1.01524 0.0022235 4.23739e-23)
(1.05826 0.00877099 1.05491e-20)
(1.01477 0.000658988 -9.22171e-23)
(1.01258 -0.000367832 2.21094e-21)
(0.812939 -0.110032 -2.89182e-22)
(1.0163 -0.000994761 -1.07911e-22)
(0.877601 0.265045 -2.37718e-21)
(1.04789 0.0677881 7.21112e-22)
(1.01289 -0.00109057 -4.36325e-22)
(1.02167 -0.00893598 2.40849e-21)
(0.618061 -0.326327 5.16829e-20)
(1.10283 0.172528 1.23975e-21)
(0.986312 -1.18157e-05 8.42236e-22)
(1.00987 -4.58948e-05 1.67791e-21)
(1.0145 -0.00102081 -1.5808e-21)
(1.01449 -0.000811003 -2.00082e-21)
(1.01856 -0.00383546 -2.42605e-21)
(1.01078 -0.0146823 0)
(1.01976 0.00759723 -9.38602e-22)
(1.00327 -0.171888 -5.49873e-21)
(1.0172 0.00409893 0)
(1.01519 -0.000354771 7.52339e-23)
(0.853567 0.382992 -2.86638e-20)
(1.04543 0.0197079 4.02501e-21)
(1.00907 -0.0162596 1.28547e-21)
(1.0075 -9.51643e-05 -1.52317e-21)
(1.01194 0.000503185 -1.56454e-21)
(0.865544 0.365628 1.63924e-20)
(0.898946 -0.229452 7.94743e-21)
(1.01947 -0.0092997 -2.70576e-21)
(0.943584 -0.209922 5.36278e-21)
(1.01943 0.00068932 -9.00855e-22)
(1.05901 0.011309 -2.55117e-21)
(1.01491 -0.00111643 1.27165e-21)
(1.01302 -0.00115284 -2.31829e-21)
(1.01429 0.00375319 -1.24494e-21)
(1.014 0.00331419 -9.74316e-22)
(1.01991 0.00642718 0)
(1.00962 2.79671e-05 1.69486e-21)
(0.149029 -0.111795 -7.12531e-21)
(1.02843 0.00497019 -4.1163e-21)
(0.907552 0.0314731 0)
(1.01394 0.00203206 -1.40969e-21)
(1.02118 -0.00581013 -3.82062e-21)
(1.01392 -0.000685485 -1.63594e-21)
(0.973372 -0.00835445 0)
(1.07387 0.236935 0)
(1.01273 -0.000999689 -1.83105e-21)
(1.01421 0.00219377 0)
(0.950171 -0.00625957 0)
(0.991924 -0.0181591 -3.40061e-21)
(1.0138 -0.000672382 -1.51741e-21)
(0.725152 0.217613 0)
(1.01278 0.000617313 0)
(0.997796 0.000286989 -1.92943e-21)
(1.01183 -0.000298121 0)
(1.01304 0.000428611 2.0875e-22)
(1.01247 -0.000355463 -2.08258e-21)
(0.702486 -0.0881495 0)
(1.01385 -0.00062641 1.48484e-21)
(1.01366 0.00161229 4.4543e-21)
(1.01217 0.00131168 0)
(0.760149 0.254958 -4.73247e-20)
(1.01009 -0.000113471 -2.29484e-23)
(1.01409 0.00357134 5.2026e-22)
(1.00967 -2.78154e-05 1.96691e-21)
(1.08759 -0.039151 2.25486e-22)
(1.01657 0.00191419 -1.01161e-21)
(1.01499 0.00289475 0)
(1.01204 -0.000258839 3.0369e-21)
(1.01512 0.00292736 0)
(1.02698 0.0262485 2.02828e-21)
(1.01452 0.00286297 0)
(1.02059 -0.00487041 1.99487e-21)
(1.01507 -0.00112084 1.39377e-21)
(0.271469 -0.123302 -6.16099e-20)
(0.964796 -0.239088 0)
(1.01051 0.240933 0)
(1.01718 0.00365059 0)
(1.05135 0.00468922 9.45052e-21)
(1.01483 0.000756306 0)
(0.975177 -0.0808043 4.79484e-21)
(1.01651 -8.1649e-05 1.07739e-21)
(0.911386 -0.307486 1.88292e-21)
(0.916778 -0.00500338 0)
(0.996066 0.262397 9.65446e-21)
(0.998644 -0.00482463 0)
(0.829923 -0.10665 0)
(1.01918 0.000667937 9.50128e-22)
(1.0194 0.00534139 0)
(0.892487 -0.0612615 1.9957e-20)
(1.08442 -0.0288816 1.15449e-21)
(1.01968 -0.0148784 -2.78135e-21)
(1.07542 -0.0145962 0)
(1.02594 0.00546635 3.19162e-21)
(0.911511 -0.183884 -4.22338e-22)
(1.01264 0.00101078 -2.27893e-22)
(1.02104 0.00622678 1.29829e-21)
(1.01492 -0.00126872 1.62073e-21)
(1.01189 -0.000299144 0)
(1.01147 0.000350026 0)
(0.877757 -0.00275981 -1.89869e-20)
(1.03598 0.00497028 -1.97047e-21)
(1.0108 -8.51617e-05 -3.45716e-22)
(0.466412 -0.439762 -2.27329e-21)
(1.01665 0.00358113 1.89177e-23)
(0.960736 -0.0734629 5.78686e-21)
(1.01678 -0.00383465 -3.17414e-22)
(1.03622 0.00227757 0)
(1.00509 -0.0145681 2.9915e-21)
(1.01028 0.000153556 5.25606e-22)
(0.936113 -0.285478 0)
(1.01328 0.00110215 -3.33432e-22)
(1.01405 0.0031882 -1.18487e-21)
(0.921971 0.0357982 0)
(1.02197 0.00519388 0)
(1.01565 -0.000411213 -7.06608e-23)
(1.00748 6.35707e-06 2.21982e-22)
(1.01292 0.00106385 1.92558e-21)
(1.01216 0.000891923 1.36452e-21)
(1.09 0.0142344 -1.61291e-21)
(0.907186 -0.064251 0)
(0.987193 -0.21691 -5.96419e-22)
(1.02613 0.00139191 -8.73955e-21)
(1.01339 0.000907506 2.41537e-23)
(1.01284 0.00118145 0)
(0.891491 -0.196499 0)
(1.01367 0.00874962 2.44873e-23)
(1.01345 0.00341586 -1.05364e-21)
(1.01292 -0.000272441 0)
(1.01221 0.0007857 0)
(0.835526 -0.147811 0)
(0.892505 -0.131593 -3.1778e-20)
(1.00682 -0.00733479 -5.32884e-22)
(1.01617 0.00435942 1.0488e-21)
(1.01224 -1.3628e-05 1.25326e-21)
(0.451057 -0.188066 -2.69368e-20)
(1.05928 0.00958957 2.86388e-21)
(1.01566 -0.00771742 -3.30349e-22)
(0.97378 0.0102354 -5.06677e-21)
(0.877424 -0.0872318 -1.40313e-21)
(0.835212 0.28212 1.74504e-21)
(0.852589 -0.181079 6.14081e-21)
(1.01262 0.000967712 -1.57363e-21)
(1.00971 -2.05722e-05 -1.7548e-21)
(1.01326 0.00112276 3.44516e-22)
(0.986692 -0.184322 2.14507e-21)
(1.01252 0.000931069 -2.17255e-22)
(1.05384 0.00562341 -2.4736e-21)
(1.01434 0.000171415 -1.32229e-21)
(1.01633 -0.00104048 1.04887e-22)
(1.01054 -0.0145673 0)
(1.01601 -0.000638555 0)
(0.625582 -0.128391 1.21672e-20)
(0.531949 -0.006471 2.90478e-20)
(1.01448 -0.00103987 0)
(1.01466 0.00214349 -3.31947e-22)
(1.01494 -0.000856222 9.23387e-22)
(0.934001 -0.0288001 -8.34602e-22)
(1.01192 -0.000310957 0)
(1.04604 -0.103451 0)
(1.01846 -0.00259642 0)
(0.787202 -0.20146 8.02696e-22)
(1.01321 0.000912091 -2.10701e-21)
(1.01442 -0.00149807 0)
(1.0127 -0.000996193 -1.06042e-21)
(1.01505 0.001271 0)
(1.01916 0.00474986 2.13047e-22)
(1.01735 -0.00197514 -1.32638e-22)
(1.02068 0.00198576 0)
(1.02967 0.0058794 9.09645e-21)
(1.02351 -0.0174279 5.73456e-24)
(1.04634 0.0137029 9.52941e-21)
(1.06618 0.156828 0)
(1.01859 0.000132343 1.27968e-21)
(1.06821 -0.0283791 -1.62626e-21)
(0.892521 -0.0268502 0)
(1.01551 -2.83438e-05 0)
(0.74146 -0.392769 8.00064e-21)
(1.01352 0.00190694 1.21662e-22)
(1.01307 0.00205698 3.80393e-23)
(1.02369 -0.00263569 1.4589e-22)
(1.00953 -0.000141126 -2.06228e-21)
(0.925855 -0.186529 -6.09604e-21)
(1.01414 0.000217603 1.501e-21)
(1.01715 0.00380346 0)
(1.0148 -0.00152949 1.13253e-21)
(0.861991 0.35429 -5.09609e-20)
(1.01425 -0.00136183 2.51078e-21)
(1.00614 -0.159611 -2.14619e-21)
(1.0516 0.0573692 3.27834e-21)
(1.01336 0.000882526 2.10632e-21)
(0.94389 0.101826 -5.76053e-21)
(0.96649 -0.210839 -6.35044e-21)
(1.01731 -0.00432503 7.89115e-23)
(1.01304 -0.000428193 -4.23191e-23)
(1.08153 -0.0132869 1.25156e-21)
(1.00394 9.04042e-05 0)
(0.919548 0.228479 -1.30486e-21)
(1.02551 -0.0122201 2.25852e-21)
(1.03531 0.0184045 -1.33721e-21)
(1.0123 -0.0186269 -6.67629e-22)
(1.02541 0.00145941 4.08425e-21)
(1.02206 0.00606795 1.65884e-21)
(1.01423 0.00434704 1.23482e-21)
(0.994611 0.0102164 0)
(1.02453 -0.000496613 0)
(1.02164 0.0827334 0)
(1.09386 0.18286 -3.75922e-22)
(1.0165 -0.00114616 0)
(1.01964 -0.00376876 1.24462e-21)
(1.01661 2.21821e-05 0)
(1.03931 -0.00433507 0)
(1.00414 7.67648e-05 6.26613e-22)
(1.03575 -0.158531 1.38199e-20)
(1.02889 0.00202272 0)
(1.019 0.00615403 0)
(0.913929 0.00808018 0)
(1.01305 0.000969184 1.70627e-21)
(1.08334 -0.0080624 1.08025e-21)
(1.00808 0.0405932 2.22799e-22)
(1.01278 0.000187114 -1.71764e-21)
(1.05266 -0.0563741 -4.1722e-21)
(1.01401 -0.00420882 -1.6504e-21)
(1.01372 0.00130992 0)
(1.01727 0.000318856 0)
(0.984022 0.0365404 -3.4295e-22)
(1.01221 0.000694573 3.38027e-21)
(0.816645 0.290726 1.87042e-20)
(1.02877 0.00571196 -4.25727e-21)
(0.98152 0.0295346 0)
(1.05523 0.00529155 0)
(1.08951 -0.0748437 1.37603e-20)
(1.01673 0.00070303 -2.73725e-21)
(1.01158 0.0346335 -5.9777e-22)
(1.01667 0.00372557 -9.46427e-22)
(1.03002 0.00666681 -4.66905e-21)
(1.04724 0.055215 -1.41984e-21)
(1.01285 -0.000703493 8.70865e-23)
(0.99068 0.0361144 -3.00211e-21)
(1.01357 0.00182341 -2.30109e-21)
(1.03018 0.00259366 -2.38833e-21)
(1.0144 -0.00179813 -1.19595e-21)
(1.01429 0.000699578 -2.47705e-22)
(1.03707 0.0122051 0)
(1.03755 0.0735553 -1.29703e-21)
(1.00961 0.000194807 -6.95928e-22)
(1.02622 0.00347921 0)
(0.938298 -0.0653595 -9.35048e-22)
(1.01282 -0.000557738 1.57121e-21)
(1.01317 0.000927555 -1.04159e-21)
(1.01409 0.00195215 5.67304e-22)
(1.01508 -0.00102423 0)
(1.00401 -0.00658973 0)
(1.02065 -0.000927378 -1.00293e-21)
(1.01603 0.00244858 -1.04283e-22)
(1.00824 -0.00709169 0)
(0.942888 -0.093019 0)
(1.01882 0.0046906 5.48962e-22)
(0.996689 0.0023057 5.23938e-21)
(0.942287 0.212393 -3.34919e-21)
(1.0121 0.000689099 2.4041e-22)
(1.01449 0.00142944 0)
(1.01508 -0.000920666 8.69586e-22)
(0.857111 -0.143855 1.5587e-22)
(0.875215 -0.0484964 1.50058e-21)
(1.04347 0.0197293 -6.21567e-23)
(1.0117 0.000334761 8.92395e-22)
(1.02088 0.0770628 0)
(1.13865 0.250804 -2.66651e-20)
(0.429221 -0.410184 1.67695e-21)
(1.01708 -0.0014622 9.56244e-22)
(0.839308 -0.120205 3.088e-22)
(1.19632 0.136348 -2.45869e-20)
(1.03497 0.202871 0)
(1.01463 -0.00505331 -1.61176e-21)
(1.01735 -0.00203211 1.3515e-22)
(1.02043 -0.00394588 0)
(1.0745 0.124657 1.75003e-22)
(0.95579 -0.0482308 0)
(1.02893 0.00445495 2.62386e-22)
(0.305296 -0.319833 -2.41455e-21)
(1.04555 0.0139176 -1.1175e-21)
(1.06277 -0.037724 4.58183e-21)
(0.932908 -0.124968 6.03538e-21)
(1.01295 0.0022356 1.61673e-22)
(1.02195 0.0258456 -1.3296e-21)
(0.901512 0.271884 2.35518e-21)
(1.04481 0.05009 1.03135e-21)
(0.733014 0.286356 1.46432e-20)
(0.993974 0.0128317 0)
(0.20316 -0.230127 5.36869e-21)
(1.01644 0.00280878 -1.1697e-21)
(0.863813 -0.219476 6.27788e-21)
(1.02152 0.00530003 0)
(1.01014 -0.00722125 -4.8312e-22)
(1.00958 0.000173885 0)
(0.998637 0.00462457 2.47533e-21)
(1.01592 -0.000519023 -1.89871e-22)
(1.02151 0.00667911 -1.18116e-21)
(1.01449 0.00223938 0)
(0.68828 -0.0345986 4.20744e-20)
(1.0143 0.000459952 3.81561e-21)
(1.01655 -0.00119387 0)
(0.837366 0.367997 1.4448e-20)
(1.02061 0.00437212 0)
(1.05279 0.0224862 0)
(1.01729 -0.00220397 0)
(1.01843 0.0728492 -4.49574e-22)
(1.01272 -0.000164223 5.7707e-22)
(1.02937 0.012363 3.4867e-21)
(1.01681 0.00413655 5.37121e-23)
(1.01525 0.00130452 0)
(1.01669 0.00347225 0)
(1.05624 0.00645596 -1.47164e-21)
(1.01225 0.000959406 1.98468e-22)
(0.976587 0.460956 2.70231e-21)
(1.04289 0.0184301 0)
(1.06839 0.00490509 1.20867e-21)
(1.01441 0.000346199 0)
(0.981121 -0.196745 5.84034e-21)
(1.01202 0.000772544 -1.54281e-21)
(1.08905 -0.0059218 -2.89401e-21)
(0.929013 -0.00795523 1.02751e-21)
(1.02557 0.000771354 0)
(1.01682 0.00378335 1.83196e-22)
(1.0147 -0.00105361 -1.13292e-21)
(1.01516 0.00158404 0)
(1.01588 0.000352413 -1.26712e-21)
(1.11223 0.176097 -1.31262e-21)
(0.98771 -0.0261092 4.87478e-21)
(1.01292 0.00113931 0)
(1.106 -0.0355858 -1.39541e-20)
(1.01131 -0.000156656 1.6789e-21)
(1.01389 0.000610137 1.60757e-22)
(0.919101 -0.302881 0)
(1.01469 -0.000656896 0)
(1.01633 0.000508599 -3.2428e-22)
(1.11923 0.0205602 0)
(1.01251 0.000773206 -1.33767e-21)
(1.04408 -0.0895947 3.58041e-22)
(1.03574 0.0118808 7.90972e-21)
(0.942873 0.00735992 0)
(1.05499 0.0187751 1.55975e-21)
(0.994144 -0.0234111 4.24055e-21)
(1.02202 -0.0110629 0)
(1.01714 0.00423126 4.16551e-23)
(0.809241 -0.416789 0)
(0.69356 -0.336856 -3.48648e-20)
(1.01407 0.00216436 -3.53928e-23)
(0.99085 0.0268849 0)
(0.653707 -0.148953 8.31102e-21)
(0.968254 0.408032 -2.65369e-21)
(1.03241 0.203363 0)
(1.00891 9.90036e-06 0)
(1.01363 -0.000737171 2.74993e-21)
(1.01554 0.00432953 9.46593e-22)
(1.01971 0.00676966 0)
(1.01538 -0.00483988 1.65112e-21)
(0.946524 -0.102052 -1.26654e-21)
(1.05086 0.00599568 1.80381e-20)
(1.01461 -0.000885951 1.06279e-21)
(1.06803 0.0125685 0)
(0.902442 0.195839 -1.57311e-21)
(0.883872 -0.0202962 -1.81242e-21)
(1.01443 -0.000812661 0)
(1.01493 -0.000785826 -8.66757e-22)
(1.01019 -7.65261e-05 -4.43974e-22)
(1.02618 0.00609225 0)
(0.951495 -0.282784 -1.35719e-20)
(1.09276 0.0717763 1.91181e-22)
(1.01538 -0.00194996 -1.01101e-21)
(1.05377 0.00953982 -9.10883e-21)
(1.02725 0.0940693 -3.98419e-22)
(1.01449 0.00456091 -1.06921e-21)
(1.01242 0.000367695 0)
(0.41494 -0.347277 -1.89838e-21)
(1.01198 0.00928154 3.08182e-22)
(0.965646 -0.054254 -5.05753e-21)
(1.01724 -0.0051025 1.50544e-21)
(1.01008 1.95784e-05 -3.22699e-21)
(1.02621 0.00242382 -2.56545e-21)
(1.0198 -0.000775372 1.01853e-21)
(0.967381 -0.0577843 0)
(1.03727 0.0452021 1.38826e-21)
(1.01414 0.00401012 -2.03994e-21)
(0.849515 0.103553 5.43296e-21)
(1.09754 0.202051 4.99292e-21)
(1.03014 -0.152934 7.82432e-21)
(1.04252 0.0187992 1.2213e-22)
(1.01294 0.00962152 0)
(0.373268 -0.328464 4.57868e-21)
(1.07086 0.0119506 -1.21592e-20)
(0.920094 -0.0202333 -3.97102e-20)
(1.06552 0.00882615 -2.85242e-20)
(1.01902 0.00523875 7.42766e-22)
(1.01318 0.00177606 1.21389e-21)
(1.06225 -0.129712 1.1763e-20)
(1.0785 0.182497 -1.36701e-21)
(1.01202 0.00421778 -1.62636e-21)
(1.05222 0.00977459 6.46934e-21)
(1.07295 0.0102718 -7.60798e-21)
(1.01363 0.00202814 0)
(1.05789 -0.00662539 1.45836e-21)
(1.01216 0.00476685 0)
(1.01419 0.00144921 0)
(1.00903 -9.6956e-05 1.48404e-21)
(1.06919 0.011595 1.3003e-20)