/*--------------------------------*- C++ -*----------------------------------*\
| =========                 |                                                 |
| \\      /  F ield         | OpenFOAM: The Open Source CFD Toolbox           |
|  \\    /   O peration     | Version:  v2012                                 |
|   \\  /    A nd           | Website:  www.openfoam.com                      |
|    \\/     M anipulation  |                                                 |
\*---------------------------------------------------------------------------*/
FoamFile
{
    version     2.0;
    format      ascii;
    class       volScalarField;
    location    "500";
    object      ddt0(omega);
}
// * * * * * * * * * * * * * * * * * * * * * * * * * * * * * * * * * * * * * //

dimensions      [0 0 -2 0 0 0 0];


internalField   nonuniform List<scalar> 
10042
(
-0.00282057
-0.15569
0.041921
-2.14935e-05
3.08019e-05
-0.136411
0.0914228
-0.0418628
5.94164e-06
-0.00232375
-0.117867
-0.157358
-0.00123014
1.81821e-05
-1.4803e-05
1.52943e-05
-0.104021
-0.158687
-3.35972e-05
0.000121189
-0.00124423
-0.00928833
7.1038e-06
-0.00388382
8.22704e-06
1.40738e-06
-0.000772767
2.90513e-06
-0.1426
0.0976675
-1.97176e-06
-0.0023292
1.52567e-05
2.1921e-05
-0.0150303
0.0109944
3.27553e-05
-5.98182e-06
8.70909e-06
-0.000189667
0.0635635
1.38318e-05
0.698976
-0.283081
2.55529e-06
-1.6667e-05
-1.69054e-06
-3.05121e-05
0.000586241
-0.214747
1.2624
-4.10854e-06
-0.109969
-7.44715e-06
-0.538728
-1.49149
-0.000900224
-0.0223165
2.34491e-05
-2.45228e-07
0.000549638
-1.26985
0.0902117
-0.0365062
-2.88934e-05
2.37295e-05
2.84101e-05
0.0526623
-2.26721e-07
0.0436738
1.11065
9.17625e-06
7.1896e-06
1.9287e-05
3.28566e-05
1.67318
0.012598
-7.22118e-07
0.016483
-4.83407e-05
-0.310205
0.0308837
1.20951e-06
-2.04327e-05
0.00131341
0.000380499
-5.92802e-06
0.0259041
-3.10473e-05
0.0042027
-0.000476072
-8.73497e-06
0.0682321
0.00683247
0.00455089
-3.13414e-05
-0.352301
7.1658e-05
0.136591
-6.07946e-06
-0.000310253
0.00248999
5.60102e-05
-0.00179903
-4.68007e-05
-3.99333e-06
-0.263862
2.5845e-05
0.0615398
1.86235e-05
-7.74681e-06
0.0248924
0.000570696
-0.0255276
0.000225216
-4.72502e-06
0.00415733
1.11566e-05
-0.0213317
-5.18027e-06
-1.82359e-07
-0.108706
-0.112038
-1.9033e-05
0.00556504
-1.79554e-05
1.45081e-05
-0.568907
0.0656552
0.00885319
5.45171e-06
2.57882e-06
-3.19007e-05
-2.58916e-06
0.0148801
2.26674
-0.000133924
-0.299861
8.9567e-05
0.351783
-0.00199502
5.72373e-06
-0.433691
2.52078e-06
0.00025619
-8.56474e-06
0.000741717
-1.32762e-07
3.24679e-05
0.328823
3.37636e-06
-3.24972e-06
2.192e-05
-0.00205003
-0.0040434
0.00028142
0.0392047
0.195298
-2.92984e-05
8.9645e-07
2.00574e-06
6.02981e-06
1.89301
-3.07707e-06
9.27432e-05
0.278144
8.31122e-06
-0.00189953
-0.00107326
2.19371e-05
-0.103093
0.101175
-0.0826114
2.40143e-05
-7.33331e-06
-0.10486
7.59058e-06
-8.71876e-06
9.56183e-06
2.11939e-06
0.000103975
3.63832e-05
1.83922e-05
-9.54328e-06
-0.0322466
-0.000634015
2.61297e-05
8.0188e-09
-0.457644
-3.36609e-06
-0.215572
-0.000910042
1.44014e-05
3.31847e-05
-0.462809
-1.3455e-05
-0.0920953
-0.0877799
0.0329592
-1.69249e-05
0.41049
-0.00760587
-0.245183
-1.09487e-05
0.181591
-3.45986e-05
-0.0663723
-0.00174412
-3.6569e-05
-5.6015e-08
-0.00214837
-7.85268e-06
-0.468783
0.0600572
3.55809e-05
0.0209162
-2.08989e-06
0.734599
-2.71283e-05
0.601524
-0.00546862
-0.0584087
-0.0145368
0.0294329
-3.03719e-05
-0.0115127
-8.56724e-06
-0.000120061
0.00058031
5.35066e-05
-3.46703e-06
-1.0697e-06
-0.000619861
6.2013e-07
1.33776e-05
-0.0239504
-0.00013235
-0.215411
0.000216146
-0.0271416
0.352884
0.0441838
-6.10305e-07
6.81118e-05
-0.375017
3.05629e-05
0.0480811
0.000215891
8.45052e-06
2.52352e-05
-2.22685e-05
1.54012e-05
0.00943713
-0.497154
3.7329e-05
-0.000125679
-1.18513e-05
-4.16705e-06
-0.391728
-2.80879e-05
0.00450883
5.56737e-06
-4.98912e-06
-1.4355e-06
-0.00157066
-0.377226
-0.00129833
-0.00591872
-4.19194e-05
-1.79062e-05
-5.48779e-05
0.372034
1.87366e-05
-0.0485671
-1.5233e-05
-0.0189138
-1.80262e-05
1.98645e-05
-4.20058e-05
-0.423602
8.63974e-06
-0.0133396
-0.12798
2.64842e-05
0.000150244
0.0862479
0.000940746
4.08769e-06
-0.0652765
-7.48559e-06
-0.000621267
0.0012279
4.93488e-05
-0.013862
-0.00333285
-1.07583e-05
-0.00807604
-0.000139558
-5.01182e-05
-1.96959e-06
5.6261e-05
0.0264003
-3.44213e-07
0.508627
0.0014098
-1.13214
2.19825e-05
0.000299895
0.0142899
-0.0202553
4.07338e-06
-1.26326e-05
-1.01298e-05
-6.84327e-06
0.00132005
-0.0853283
-5.96046e-07
-0.0377205
-0.0177146
-5.21155e-06
-6.9846e-07
-0.0477492
-0.0123304
0.0578025
-0.0439209
3.79353e-05
-0.00301562
1.96302e-06
-0.000119579
-0.000341286
-3.43679e-05
-4.34169e-05
0.0111698
3.27851e-06
-0.0812826
-0.111697
-0.606815
0.0778439
2.92744e-05
0.145805
-0.0020578
-0.000938975
-7.4935e-07
-0.00110229
-1.53647e-05
-4.06185e-06
9.74592e-08
-1.08725e-06
5.63611e-05
-0.0609571
-1.46713e-05
0.0111841
0.000178127
1.03572e-05
-1.10558
-0.0063154
1.04244e-06
-6.39019e-06
-0.140682
8.61833e-07
-1.84196e-05
4.08593e-05
9.39021e-05
0.0266652
0.0527413
7.99512e-05
-1.86051e-05
-6.61192e-05
3.2732e-05
-0.909147
4.45962e-08
-3.24093e-05
2.06892e-05
-2.55268e-07
-0.00050476
1.01786e-05
-0.0189244
0.107245
-0.193652
0.00073905
-2.72255e-05
0.183697
9.16326e-05
5.87736e-06
-0.00351384
-4.38635e-06
2.97284e-06
-1.01585e-05
-1.15407e-06
1.88155e-06
-2.05541e-05
-0.172527
-1.19076e-05
-0.00467673
0.0128331
-0.658915
-4.79245e-06
-0.0281757
0.00016183
-0.00245871
-1.07823e-05
0.0424511
-2.86268e-05
-0.773259
-0.260635
8.06087e-06
-0.00335687
-4.12098e-05
0.131988
-2.98927e-05
-0.0487984
0.000193603
0.0300328
-3.60539e-05
-0.0103296
8.05802e-05
0.000350457
-0.837275
1.77053e-06
5.44468e-05
8.52262e-06
-0.104443
6.40849e-06
-9.32695e-06
0.00416466
2.68229e-05
0.000559707
-0.0504888
-2.92764e-05
-0.000936366
8.32964e-05
2.43177e-06
0.000202116
0.0103275
-2.42403e-05
7.03669e-05
2.17946
-0.0239252
8.27568e-06
-1.45597
6.28356e-07
0.000911516
-0.000221654
-0.283938
1.37059
-0.00730759
-0.00630894
1.08169
-0.0369482
-7.60245e-06
-0.0103397
-0.0326319
-0.0455158
-0.00322455
2.40601e-05
-2.58424e-06
0.00620203
-0.728396
-1.12778e-05
-2.19743e-05
2.95643e-05
5.53206e-06
3.85335e-05
7.361e-05
7.48546e-07
7.66816e-06
-0.0802379
1.87311e-05
0.00101311
-0.06662
0.73678
2.88057e-06
0.0856631
2.18878
-0.193899
1.50397e-06
-0.000366527
1.31274e-07
-0.784284
-4.48256e-05
-0.0689934
-3.29681e-05
0.26281
2.84663e-06
-5.86605e-05
-2.41826e-05
-0.0057627
-0.0258746
9.68328e-06
-1.6222e-05
-1.22385e-06
-0.241749
5.9658e-06
-0.0180084
0.0180989
-0.00390296
9.03431e-06
-0.0319584
-0.012158
0.556878
-2.66822e-05
-1.59243e-05
0.00556771
-0.263065
0.000176197
0.0550946
-5.44852e-06
-0.0526567
0.000948587
0.000532561
0.000190175
-0.058271
-3.70015e-06
1.48428e-05
1.80985e-05
-0.0239314
-5.89809e-05
0.106509
-5.60444e-05
-2.1627e-05
-1.15939e-06
0.000413521
0.0733544
5.3442e-05
7.27694e-05
0.113805
-0.0968927
-0.000831393
4.05506e-05
3.1528e-05
-0.0512139
0.599045
-3.09927e-05
1.25142e-05
0.00684037
-3.62442e-05
1.69561e-05
-0.344581
5.32106e-06
-0.375513
-1.81795e-05
0.000492938
-0.00010452
0.0352534
-6.33687e-05
-0.000416884
-4.63735e-05
4.29532e-06
0.11494
-7.70254e-07
-0.426825
2.79896e-05
7.69808e-06
-0.000360146
-0.73107
0.650681
-0.00577861
9.35833e-06
1.14253e-05
-3.62574e-06
-2.52236e-05
-0.00245953
2.21158e-05
-0.153775
7.9861e-06
1.18516e-06
0.268129
-1.15635e-05
-0.0045419
3.5006e-06
1.17896e-05
0.146842
0.0081926
4.23921e-05
-0.0449193
-4.66063e-05
-0.000506531
1.13461e-05
4.648e-06
5.03918e-06
-1.17238e-05
-2.45554e-05
-1.42912e-06
0.0746988
-4.81821e-05
-0.0173333
-9.27236e-06
8.42446e-05
-2.55543e-07
-0.00144791
0.666802
4.02637e-06
1.30573e-05
-0.0472817
-0.0634268
1.71e-06
-0.277
-2.37083e-05
-0.0170354
-6.37721e-06
8.82093e-06
1.30721e-05
-0.103316
-2.70499e-08
-5.52748e-06
1.15527e-05
-0.328318
9.95419e-07
-4.27643e-06
-6.01131e-06
0.273646
1.04669e-05
1.682e-05
4.87671e-06
7.80605e-06
0.000196558
1.03603e-05
7.99728e-05
5.6524e-06
-0.334755
-0.273153
0.0552639
-3.41418e-05
-0.000147533
-2.86228e-05
-0.198426
0.000108446
-0.00760868
-0.197794
0.323175
-0.0190129
0.0463607
-5.80688e-05
-2.97259e-05
0.00101432
0.207748
-0.00259477
-0.00423382
-3.13502e-05
0.00632621
-1.61982e-05
-3.35972e-05
3.78577e-06
-5.74793e-09
-1.56986e-05
-0.00397829
2.76664e-05
8.69373e-07
0.467459
3.79753e-05
-0.24443
-0.000126958
4.02661e-05
-0.00195612
-9.93486e-06
-0.0595986
-6.75445e-06
1.38703e-05
0.0208319
-2.64496e-05
3.24622e-07
-1.51693e-06
-1.75213e-05
-1.72466e-05
0.00530366
-0.307137
-0.235621
-2.55739e-05
-8.1978e-06
-2.08788e-05
0.0186981
1.23396e-05
3.57189e-05
-1.11938e-06
-2.02881e-05
0.0565281
-0.291501
-0.00569342
1.46066e-06
-4.7374e-05
-0.262194
-0.000521866
0.0001553
-2.64968e-05
0.0388444
-1.34023
0.0483327
-1.63745e-05
3.78696e-06
-5.36968e-06
-0.0234362
1.12076e-05
-0.000219321
-2.43406e-05
-1.48185e-06
-0.000462795
-3.87521e-05
-0.150089
-0.0272983
4.18714e-06
5.624e-06
-5.77349e-06
-0.0174192
4.05006e-07
-0.0587608
-5.63798e-05
-0.410453
5.57773e-06
-1.44992e-05
3.02955e-06
5.66787e-06
-1.56647e-05
1.09415e-06
-4.5864e-05
-9.48545e-06
-0.00600485
-3.39771e-05
0.0209358
-4.59739e-05
0.072212
0.021261
0.000131455
0.140481
-3.84263e-06
1.72795e-05
-8.81039e-05
3.43635e-06
-0.0344666
-1.44894e-05
-3.37314e-05
-1.66044e-06
-0.414417
-7.70842e-06
-0.0151192
-0.000315468
-9.36445e-06
0.00548488
-0.0272019
-2.61282e-05
-2.81746e-06
-0.00755366
-3.58293e-05
-0.612509
-0.00266146
0.0154012
-0.00815254
-2.74457e-05
-3.41401e-05
2.34567e-05
0.000503876
-0.00056363
0.126062
0.00745467
-1.46227e-06
3.51795e-05
0.000170081
-0.000207032
-3.79849e-05
-0.0653069
-1.66915e-05
-4.10961e-05
-0.252703
-4.13039e-06
-0.00524347
0.000550147
-4.20454e-05
0.00588484
-0.000108905
-2.34122e-05
-4.75004e-05
0.000358389
1.34307e-05
-1.04931
-2.31465e-05
0.00029868
-0.000296608
-0.150654
-3.88655e-05
0.000485927
0.000768588
1.3925e-05
-4.68963e-05
2.0806e-06
0.000728706
3.84912e-06
-3.42737e-05
-1.28735e-05
-2.88194e-05
2.52012e-05
0.000285879
4.95391e-06
-1.61985e-05
-0.000959022
-5.42775e-06
2.51699e-06
-2.24129e-05
-7.96342e-06
-0.00579783
-6.41054e-05
-2.29017e-05
0.00270764
0.0113833
-1.70449e-05
0.00668981
-0.1717
-1.32304e-05
-2.79205e-05
-5.39173e-06
0.0854113
0.0347287
3.67517e-06
-1.1191e-05
0.000363811
0.20581
0.422168
-6.8748e-05
0.106256
0.264949
-0.00749237
-3.35872e-05
4.57439e-06
6.96656e-05
0.272636
-0.168868
-4.94281e-05
0.204951
0.0435448
0.00908549
-0.0219067
1.10832e-05
0.00417981
-0.561254
0.00709531
-0.352728
0.000454892
0.114879
-2.0952e-05
0.0462811
-2.7223e-05
0.00163225
4.15805e-06
-0.00172786
2.81828e-07
-3.72498e-05
1.20896e-05
0.197698
8.4315e-08
-3.51847e-06
0.347129
-1.60573e-05
-0.000174663
-0.000100867
0.119106
3.96454e-08
6.81021e-05
-2.92572e-05
-3.437e-05
3.87063e-05
-0.000302846
7.04078e-07
1.93773
0.0348162
0.0295785
-1.28368e-05
-0.199977
-1.07245e-05
-0.00595134
-0.028204
-0.000739841
1.56888e-05
-2.41957e-06
-3.12881e-05
2.05605e-05
0.701594
0.00170692
-1.77937e-05
-0.137277
1.89397e-06
-7.32516e-06
-0.0705818
-1.18527e-06
-1.14184e-05
-0.114786
-1.91763e-05
0.052235
8.40242e-05
0.00146733
-0.000370189
0.00254352
-0.000961087
-8.67273e-06
0.445966
-0.0142798
1.332e-05
0.000626969
-0.166329
2.38308
0.00276015
1.33296e-06
3.30552e-05
0.00086182
-1.67178e-05
-7.0253e-05
0.00345547
-0.000129148
-7.78029e-06
-0.00152111
-0.208967
0.0223896
-3.46248e-06
-4.06142e-06
1.52899e-06
-1.07976e-05
-0.126173
0.125012
-1.78512e-06
-0.000239413
0.154897
2.38735e-05
-3.33949e-05
-0.121411
8.07427e-05
-0.0228425
1.20994e-05
1.24761e-06
-2.71108e-05
-5.32872e-05
-0.156078
0.00249188
2.21895e-05
-0.0121301
0.609028
-0.144502
1.6065e-05
3.07675e-05
-0.00141905
-0.00204132
-0.00240389
-0.00110441
-3.05483e-05
3.82534e-06
-0.147307
0.533238
5.75361e-05
-0.000147074
-0.00253397
4.92508e-06
0.0121045
4.89006e-05
-1.74456e-05
6.77363e-06
-0.00173383
-2.12712e-05
1.62113e-05
0.198918
1.0078e-05
2.83067e-05
0.00171661
-0.000182242
-0.00415885
2.45934e-06
-3.22554e-05
-0.167741
0.000375596
-1.30184e-05
4.76689e-05
0.0119135
1.09199e-05
4.29419e-06
-0.000252342
-0.102362
-4.69037e-05
-4.65869e-05
3.0313e-06
-1.00549e-05
-1.21608e-05
-0.44175
2.12868e-05
-0.00739
-2.78552e-05
-0.00138109
7.26661e-06
-2.10976e-05
-0.00435114
0.10185
0.0155666
1.71043e-05
6.12228e-05
0.239858
-0.0464452
0.000725183
4.25723e-05
0.015595
2.27935e-05
-0.000561016
0.00371398
4.21588e-05
-4.01444e-05
-3.57159e-06
0.00234253
-0.669305
-0.00538101
9.55864e-06
1.99844e-05
-0.000276346
-0.0128005
-1.73022e-05
-1.09472e-05
-0.00233552
6.29067e-07
-5.82386e-06
-0.00110153
-3.32416e-05
-0.12455
5.92392e-06
-1.71165e-06
5.36471e-06
1.65215e-05
-5.46542e-05
-2.36901e-05
1.42906
-1.31605e-05
-4.42469e-06
0.382845
-3.11935e-05
0.00119722
1.5986e-05
0.0142666
-0.0175838
3.41056e-05
-0.161768
0.000133058
-2.81196e-05
-0.118747
5.63597e-05
-3.16293e-05
2.71328e-06
1.41029e-05
-3.35007e-05
-0.165979
0.00146744
-0.0218518
-0.0122527
-0.0170875
-0.0315372
-0.0332941
-2.0783e-05
-0.00762202
1.96013e-05
-0.000588486
-1.17026e-05
1.86599e-05
4.54411e-05
0.765441
-0.0132898
1.33237e-06
0.0676011
1.71573e-05
0.00198387
-6.57866e-06
0.000166024
-0.000131755
-0.00818892
0.127908
-4.11076e-05
-6.39503e-07
0.191091
-0.000298138
-0.00173326
-0.000188094
-0.0236434
-3.70896e-05
0.0438953
-0.161218
1.06897e-05
-7.2186e-06
-4.71379e-06
0.00024015
7.79527e-07
7.19124e-05
-2.54933e-05
4.2789e-05
-3.87802e-05
-2.49862e-05
3.16506e-05
-0.00552766
0.0110644
2.04088e-06
-0.375269
-2.73266e-05
-0.00259136
-0.00318985
-0.00922744
-1.11452e-05
-0.00283762
-0.00415962
-4.76982e-06
0.000292397
0.110924
-3.26587e-06
-6.38921e-06
-1.31494e-07
0.0229905
0.00431237
-3.26749e-06
-0.0748265
1.8345e-05
-1.75527e-06
1.77799
1.36171e-05
5.48644e-06
2.88762e-05
9.41495e-06
-1.18746e-05
-0.0202333
-1.61329e-05
1.70071e-05
2.84043e-05
-1.21379e-05
-3.00084e-05
-0.0309121
4.0358e-06
-0.000296096
-1.14993
0.174468
3.91025e-05
0.0568223
-4.76165e-06
-0.771223
7.37044e-05
0.00721341
-2.42797e-06
-0.0334831
-0.51228
-0.721386
-2.64619e-05
0.00843245
0.00545665
-0.0316732
-5.55889e-05
0.00014737
1.72444e-06
-0.0420393
0.0240731
0.000893265
0.0386088
0.0399618
-0.124785
0.0703894
0.0251509
0.0318078
-2.13341e-05
1.75445e-06
-0.00243659
-0.00147929
2.80916e-05
0.0392024
7.24573e-05
1.06072e-05
-7.63096e-07
0.00684632
-0.00210673
-0.000699404
0.274584
0.000434334
-0.0129118
-1.96847e-05
4.52908e-06
-3.90199e-06
-0.137279
0.00760695
0.000480947
0.0385205
5.9991e-05
1.5074e-05
-2.81549e-05
0.0105116
0.000513726
1.7743e-05
-0.234051
0.146475
1.50508e-05
0.00307934
3.95829e-06
-0.00150539
0.00208415
-1.01844e-05
0.270297
-0.060394
-9.09885e-06
1.99415e-05
7.12332e-06
-0.0172262
2.73453e-05
2.30052
-0.000186181
1.05809e-05
4.34098e-06
5.50609e-07
0.000221875
-3.42014e-06
-0.000845249
-5.56178e-05
0.00138526
-0.0115461
3.53747e-05
-0.000310984
0.0311233
-2.71732e-05
-0.000162346
4.149e-06
-2.59217e-05
-0.0223245
0.0217805
2.47525e-05
0.0151573
0.000256466
0.0212895
1.06652e-05
2.83448e-05
0.000978939
4.13594e-05
-0.00458923
-0.0139281
-2.98708e-05
-2.75844e-06
-0.0065124
-0.000157045
0.000189759
-0.00484019
0.0709834
0.00442156
1.1217e-05
3.08674e-06
-0.30791
3.01093e-06
0.470686
-0.026826
0.000231481
0.0406649
3.39288e-05
-4.33893e-05
2.61695
-0.0330643
-7.7934e-06
1.07101
7.58168e-06
-7.26346e-07
-0.00268081
1.5951e-05
-3.4658e-05
-0.00255464
0.000204738
2.13506e-05
-4.53572e-05
-6.02173e-05
4.23368e-05
0.00249922
-0.00111154
-0.0518604
1.43299e-05
-0.000410613
-7.85386e-06
-3.45327e-05
0.0453196
-1.59509e-06
-0.00382612
-0.076971
5.79302e-05
-0.112622
-0.00148062
0.0283732
-5.98391e-06
-0.00956522
-0.0120098
-0.0654251
0.000156903
1.43634e-06
-1.51965e-05
0.0165173
0.000198377
-0.00475359
-0.00176652
3.03988e-05
-0.201813
-2.2812e-06
0.125888
-4.64949e-05
-0.415523
-1.82113e-05
-7.34587e-06
3.72601e-06
0.00667983
-1.71897e-05
-3.22403e-06
-3.10473e-06
-4.67346e-05
-6.79582e-05
0.00661974
-0.205265
5.39986e-06
-0.000170387
-2.8369e-05
-4.51793e-05
1.95127e-05
-0.0034562
0.35126
-0.000232857
-3.39767e-05
8.13822e-06
4.55554e-06
0.000218922
-0.000145848
1.25839e-05
-0.00557169
-0.634494
0.000747512
7.49289e-06
-4.65351e-05
2.82433e-05
-2.73156e-05
-2.08992e-05
3.98321e-05
-5.94176e-05
3.16411e-05
-0.000151322
2.47751e-05
0.000925396
-0.308522
-0.355748
4.16628e-05
-5.01965e-05
7.41279e-06
-0.0751184
2.61091e-05
-0.00013022
-4.16533e-05
-6.87047e-06
-4.02628e-05
1.09396e-05
-0.121717
2.10822e-05
-0.0755886
0.0120237
-0.00306537
1.11701e-05
-0.000152545
0.0411954
3.02367e-05
1.3169e-05
3.26519e-05
-0.00195612
2.24274e-05
-0.00025248
0.0193995
0.048514
-1.08085e-05
-2.12447e-06
-0.760896
-0.0001434
-0.00270911
-3.58076e-06
-0.0233788
-1.21935e-06
-0.000162623
0.0280143
-1.26126
-0.00301539
9.27457e-07
1.28013e-05
-4.00862e-07
-2.25464e-05
-0.006527
0.0553143
0.188108
-7.81128e-06
-0.199287
-1.10835e-05
-0.589375
-0.0596798
1.57722e-05
-0.218183
-0.0382974
-1.34771e-05
-0.00408895
8.7384e-05
-3.97463e-05
-0.00844085
-1.70464e-05
0.31549
0.000270971
-1.12732
2.6218
-0.0025948
-4.33682e-05
-0.000311854
3.92309e-05
-3.14386e-05
3.44972e-06
4.69439e-06
0.308178
4.05781e-05
0.000225215
-0.00736699
-0.206183
0.000324111
0.000506458
2.36117e-06
0.158048
5.25704e-07
-0.0102973
-0.0628945
-0.0736498
0.436292
0.0157245
0.39137
-2.52033e-06
-3.07617e-05
4.95807e-06
0.00193307
2.0327e-05
0.182231
-0.000152174
-0.0413167
-0.000167077
1.80864e-06
6.38101e-06
-2.37205e-05
2.22312e-05
-0.0143697
0.572198
-0.0829183
-1.50892e-05
-1.09469e-05
4.92541e-05
2.49433e-05
-0.00432685
-3.0711e-05
0.00773551
-0.00954917
2.1874e-05
5.55759e-05
-0.0141286
-0.000270999
-0.0335325
-0.0191505
3.52086e-06
0.0910059
2.51617e-05
0.149442
-3.35493e-05
-0.00787014
1.51446e-06
-0.106392
1.98693e-05
-0.137881
0.0208251
-0.11816
0.0223805
0.0123263
6.30103e-05
4.97274e-05
0.00491634
-0.0067595
-0.0119806
-0.000440646
0.191197
-0.00530177
-0.00884537
-0.00228187
-0.164319
-0.000158065
-0.000584154
0.482452
-4.09272e-05
-0.000113449
7.82955e-06
1.14555e-06
2.20204e-06
1.0651e-05
9.32596e-06
-0.313188
6.0404e-05
-0.00145805
-0.00685909
0.369884
0.00194257
-0.0306348
6.62591e-06
-1.19464e-05
-0.0271376
0.0219491
0.000380381
-0.0107648
0.0410774
-0.0281726
1.32231e-05
-0.00061717
0.000216347
-0.00215942
-0.0275257
-0.000510713
0.0462229
-0.00349627
-2.93019e-05
-1.06062e-05
-0.00278855
0.0172848
-0.00382254
-0.00497316
-5.39819e-05
-6.38963e-05
-2.2893e-05
-0.0385601
-2.94253e-05
1.08136e-06
5.83116e-06
-4.09248e-05
-0.345159
0.0145588
-3.28483e-05
-0.00166952
0.00660914
7.45864e-05
-0.225778
-2.89878e-05
0.000161006
-6.65322e-05
0.000279856
1.3369
4.3946e-05
-9.61802e-06
2.03409e-06
0.00356096
-0.00755565
-0.000123387
7.61318e-05
6.52626e-05
-4.59735e-05
-0.023998
0.000405839
-1.59984e-05
-4.97587e-05
-0.170807
4.01901e-05
0.0230538
6.39575e-05
8.84753e-05
-5.16226e-06
1.90759
-0.0258366
-0.00314119
-0.682004
-1.21206e-05
9.03998e-05
-0.0320253
1.30027e-05
0.0204924
2.39815
-3.02112e-05
-2.14605e-05
1.28238
-3.88422e-05
-0.211677
-4.08557e-06
-0.0381388
0.0408842
0.0188852
7.15403e-05
-1.05794e-05
-4.42728e-05
1.47266e-05
7.19942e-05
-7.72511e-07
-2.61235e-05
-6.56647e-05
-1.556e-05
8.10855e-05
2.1998e-05
2.56122e-05
-4.32499e-05
0.748821
4.5882e-07
-0.742087
3.61263e-05
7.7008e-06
1.48723
4.42347e-05
-0.278831
-0.0139223
-1.10994e-05
4.99361e-05
-0.00219936
-0.0431661
-1.30313e-05
-0.549485
-8.33903e-06
-3.46309e-05
-0.553165
-9.10666e-07
0.185985
-2.01507e-05
-0.0672907
2.39646e-06
0.579246
0.138502
-0.0227418
-2.24052e-05
0.000135511
-1.55612e-05
-7.3391e-06
-0.048921
-1.1289e-05
-5.52533e-05
-0.0030005
-5.87285e-06
-0.21936
0.00630279
6.10513e-05
0.000468271
7.19152e-06
-0.000405933
1.50658e-05
-1.94707e-05
8.97673e-05
-0.301857
-0.0785081
0.00799847
0.000114388
4.98089e-05
-3.85139e-06
-0.0269753
-0.277277
0.000497864
0.439264
-0.052828
-5.05464e-05
-3.90553e-05
-0.00655444
1.98278e-05
5.72001e-05
0.000286516
-1.22776e-05
0.00144574
-2.19597e-05
-0.0126911
2.19161e-05
2.84594e-05
-0.00231897
-2.45202e-05
-3.05689e-05
-4.7122e-05
0.000307746
-0.00555157
-3.36024e-05
-3.99877e-05
-4.05545e-05
-0.00763805
-0.0929039
4.85403e-05
-2.05647e-05
2.63119e-05
2.34125e-06
3.26214e-05
-0.00980992
6.63991e-06
-4.60858e-06
-2.45496e-05
0.000393859
-0.00106743
-3.02878e-05
-0.666685
2.07562e-05
4.69658e-05
0.0380491
0.000100632
7.26884e-05
-0.0138079
1.14055e-05
-0.0606137
1.31097e-05
1.93708e-05
8.47836e-05
0.000312882
-4.07686e-06
0.00406114
4.91122e-05
1.99634e-05
0.402676
0.042418
-0.665951
-0.0218111
0.0254703
0.000277351
-7.23345e-06
0.000103752
0.0352292
-5.16888e-05
-0.325814
5.78859e-05
-0.00129092
0.00191689
-0.069344
5.89535e-06
-0.0948561
0.0247866
-2.78726e-05
0.00029427
-3.25429e-06
-2.18831e-05
-0.288902
0.0144422
1.03537e-05
3.21783e-05
1.30367e-05
-0.00295263
-4.83535e-05
-0.1418
-0.00175111
-5.14466e-05
-3.48174e-05
2.97226e-05
-0.579605
-0.153016
9.53115e-06
1.41509
0.381173
2.85329e-05
-0.0267517
-2.98482e-05
-1.55778e-05
2.69762e-05
-2.54123e-05
5.36356e-06
3.68376e-05
4.11475e-07
6.79836e-05
-2.19574e-06
0.00522786
0.000110346
0.249413
-8.41137e-05
-1.14603e-06
0.00426193
-1.22816e-06
1.75956e-05
0.000497944
-3.67129e-05
-0.119006
-2.66161e-05
-0.00129268
0.174596
8.14523e-06
0.275569
0.0175843
-3.34357e-05
3.19345e-05
1.85777e-05
0.265855
-1.95669e-05
-0.014688
-0.00623216
3.90418e-07
-8.07951e-05
0.000367421
-0.345084
8.81479e-06
0.0383841
-4.37008e-05
-0.149342
0.0580618
-0.00281707
0.02316
8.07161e-06
-0.00540209
-0.0194619
0.18354
9.13754e-06
-0.00352975
8.80904e-05
-0.00346989
-7.07788e-06
-3.29698e-05
-0.159494
-0.000112437
0.0438546
-0.115833
-2.77055e-05
0.00633261
3.28004e-05
0.00381482
-2.6745e-05
-0.000111086
0.53206
-0.00073087
-0.0581022
-0.00174467
-0.000116796
-0.393264
-5.01467e-06
-6.58384e-05
-6.48043e-07
1.94518e-05
5.73926e-06
-0.000116438
2.50844e-06
-0.397315
-0.000354289
1.42764e-05
1.54135e-06
3.42094e-05
-2.80356e-05
-0.0113854
-1.29349e-06
0.569362
-3.40639e-05
-0.244042
-1.09202e-05
-4.69268e-05
4.32948e-06
-0.00363537
2.80045e-05
-0.170768
0.000882708
0.00718161
0.000276954
7.6192e-05
4.82443e-05
-3.14576e-05
-2.80767e-06
-0.0236382
4.03928e-05
1.38718e-05
0.529558
-2.85617e-05
5.49582e-05
-0.296943
-0.0540369
-0.393726
-9.722e-06
-0.288422
0.371691
9.30488e-06
-9.97715e-06
-0.000444362
-0.115729
1.55415
-0.0176643
0.14537
-3.93493e-05
2.06228e-05
0.00374845
0.000447037
1.62537e-06
-0.000741648
3.49874e-06
-3.04417e-05
0.0120954
0.0145503
-0.000128426
-0.000305176
-0.000105639
-0.000521831
-0.10508
3.54945e-06
-3.10001e-05
-4.07528e-05
0.0148358
5.35736e-06
-9.09799e-05
-0.0756317
-0.236306
-7.14026e-06
-1.91453e-05
5.80447e-06
-2.59421e-05
8.80666e-06
0.00106358
-0.00479923
4.90929e-05
0.890075
-0.00604839
-0.0524192
-8.52159e-05
9.90476e-06
-4.28867e-05
-6.04953e-05
3.02719e-05
-2.16813e-07
-5.91849e-06
-0.0879081
-0.118305
1.26033e-05
1.5045e-05
4.94636e-05
-2.93087e-05
-1.08275
0.000943296
-0.102133
-0.00486526
-0.0268337
-0.00139671
8.32771e-05
-1.06589e-05
3.21958e-05
-3.59287e-05
0.226215
-2.70729e-05
-0.000108661
0.0259074
-0.0749113
0.00428618
-0.000818073
2.3287
-0.00748579
-5.9408e-05
0.000758107
-0.269617
1.09823
-3.68158e-05
-2.31085e-05
-2.04278e-05
-2.32363e-05
-3.9117e-05
-1.064
1.21932e-05
1.30469e-05
-0.192279
-9.97639e-05
-0.417093
-8.98095e-06
1.17475e-05
0.0010443
0.0286606
0.00191506
0.0441933
0.000235721
-0.523358
-0.00130858
-2.67603e-05
-0.0977129
-1.92453e-05
-8.27699e-05
-8.91221e-06
1.14726e-05
0.228442
0.358623
-0.271645
0.0116319
-0.0042283
0.0671839
-0.223914
1.71928e-05
8.8807e-06
-0.0473395
-1.78125e-05
-4.38789e-06
0.000167173
-1.90718e-05
-0.134359
-1.88901e-05
-0.0641202
-0.000340942
2.2689e-05
-0.0632275
-4.27747e-05
-4.60618e-05
0.000127544
-0.00015587
8.73312e-05
3.40615e-05
-9.25106e-05
-0.100793
-4.56606e-05
-2.29699e-05
-1.88558e-05
-0.00228001
0.0297498
-1.22161e-05
-7.29471e-06
-0.0162274
0.269394
5.59583e-06
-8.81781e-06
-3.9382e-06
7.83835e-06
4.40335e-06
2.14636e-05
0.0702898
2.02452
-2.46389e-05
4.44571e-05
-1.65204e-05
0.000399533
-0.0750969
-5.67525e-05
0.0304639
0.465119
-1.2027e-05
0.00043075
-0.172912
-0.10911
0.000484188
3.8608e-06
-1.9908e-05
-0.0974101
-0.0104123
-0.3462
0.000173869
0.528293
-0.000900729
-0.0127937
-0.0426918
-0.148535
0.0232601
-0.105543
0.0349194
0.834119
0.000157924
-0.0038664
2.1586e-05
0.166188
2.09078e-05
5.69323e-05
-2.84317e-05
-0.530064
0.00633387
3.3586e-05
-5.09264e-05
0.0131743
0.0462157
0.525624
-2.29769e-05
2.04009e-05
1.08624e-05
0.00028142
-3.50072e-05
-0.00199979
-0.086028
0.00723517
0.000236916
1.72317e-07
0.00512778
7.05586e-08
-2.24144e-05
0.0977092
1.95303e-06
8.24531e-05
7.09293e-07
-0.100284
-0.00332921
0.0332278
2.12661e-05
0.129175
0.413365
-0.00128119
0.00153589
-0.0218415
0.256419
-0.126858
7.93463e-06
-2.28097e-05
-0.00194403
-2.8868e-05
-3.69501e-05
-2.04215e-06
5.23113e-05
0.000373659
-0.0001855
-3.96514e-05
0.213708
-4.85368e-06
-0.0934514
2.17713e-05
-0.216684
-0.348167
0.000243857
0.0136246
-0.202125
0.00173521
-0.120929
-0.632319
2.80959e-06
-1.78994e-05
0.000646862
0.000366841
0.107811
-5.0234e-05
5.87457e-05
0.0277778
2.90086e-05
2.41087e-05
-2.1177e-05
5.2323e-07
0.00596434
-1.09756e-06
-0.000211324
2.08382e-05
-0.283517
2.26952e-05
-2.84732
-0.0664686
-0.019511
-0.152813
-4.71905e-06
4.09813e-06
1.51432e-05
-2.66894e-05
0.620558
0.0636775
0.0695404
-0.0712211
2.90954e-06
-3.00559e-06
0.000224824
-2.78699e-05
0.0412321
-2.37537e-06
-7.77368e-05
-0.209502
-0.0533623
0.0106487
3.10632e-05
-9.50021e-06
-0.176259
-0.000314849
-0.0148712
-0.0163811
0.570298
-0.379192
8.47885e-07
2.25461e-05
4.63918e-06
-2.701e-05
0.0235923
-4.07835e-05
0.0331388
-2.73548e-05
-4.07174e-05
0.13287
-3.75526e-05
0.0509112
9.43179e-05
-5.32686e-05
-3.4873e-05
-0.365389
-1.38392e-05
-5.60321e-06
-0.259295
-2.25157e-05
-3.79332e-05
-0.00258513
0.0186342
8.83456e-05
0.000458993
-2.28945e-06
-0.184044
0.0318581
7.3628e-05
-3.21359e-05
-2.0302e-07
-5.86967e-05
-4.72065e-05
0.197381
0.204285
-0.0183553
-0.0361331
2.75761e-07
-0.0169503
6.3404e-06
-0.0132439
-3.61141e-05
-0.0495435
0.00248543
-1.69065e-05
1.12335
-9.21134e-06
-0.466132
-0.00193759
-3.79858e-06
0.00881082
-5.59865e-06
-8.29022e-06
-8.19086e-06
1.75873e-06
-6.9114e-05
-0.121427
-1.19415e-05
3.89219e-05
-0.00670691
6.75264e-06
-1.76712e-05
5.56184e-05
-9.01527e-05
-4.27284e-05
0.561381
-0.000171721
2.51599e-06
-4.77721e-05
6.5058e-05
-1.35115e-05
-0.0556182
-0.00747616
-1.76663e-05
1.33578e-05
5.36919e-05
-0.00310559
3.10976e-05
3.2763e-05
6.65364e-05
0.00073434
2.42499e-06
8.27712e-05
0.00253533
-2.10821e-05
0.448878
2.37715e-05
-5.51262e-06
-5.05324e-06
-4.55116e-05
3.79838e-06
9.71664e-06
-0.415474
0.00390685
1.07004e-05
1.04186e-05
0.000161962
-0.21635
-0.00013154
0.000399781
5.97536e-06
3.39869e-05
-0.00297424
-1.21527e-05
0.0174275
-0.0027835
-1.70789e-05
-1.05275e-06
1.88493
7.81061e-05
-0.233081
-0.00601994
2.1156e-05
0.507499
-0.0992929
0.0339254
0.203515
-0.0225869
-0.000118152
-2.1458e-05
-0.148555
-2.81886e-05
-0.000108475
0.00262228
4.35178e-06
-5.13272e-05
1.5456
-2.59439e-05
0.904441
0.474327
5.25403e-05
-1.67691e-05
-2.03592
-5.14426e-05
0.0500686
-2.45961e-06
0.351222
-0.357302
-0.0528093
-5.23085e-05
-1.18708e-05
7.11506e-05
0.609395
-0.408145
-0.0842086
-0.349266
0.000756751
1.17155e-05
0.131975
-0.350331
-3.47232e-05
1.45056e-05
-3.07122e-06
8.27126e-06
-0.132716
0.00204996
4.09987e-05
0.335848
2.76506e-07
1.66456e-06
2.75887e-06
-1.6066e-05
8.176e-05
-0.0263572
-2.06466e-05
0.682827
1.80297e-05
1.41062e-05
-1.94011e-06
-3.25444e-05
-4.69438e-05
1.47203e-05
0.00568976
2.43954e-06
0.119919
0.0841758
0.00507053
-5.25414e-05
0.0260031
-0.00011794
-8.05049e-06
5.57634e-06
3.60696e-05
8.2857e-06
-0.464613
0.0460357
1.72609e-05
9.02e-05
0.45005
1.23067e-05
0.0027311
-1.27639e-05
2.05364e-05
-2.31913e-05
0.00547363
-0.208015
-0.361659
0.502169
-2.73498e-06
0.0023884
0.0085715
1.98008e-05
-2.01291e-05
-1.03389e-05
0.000180414
0.000297191
-0.576098
0.833396
0.00041474
-4.68616e-06
-0.000318254
-9.05556e-05
0.000251192
1.26487e-05
0.0339924
7.08719e-05
0.029232
-0.00140693
4.4573e-05
-5.40191e-06
-0.00834394
-0.000148604
-0.0992265
3.83213e-05
2.0825e-05
-5.08888e-06
-1.70529e-05
0.360815
1.11072e-05
-3.72356e-05
0.000235772
2.33379e-06
-0.0417211
0.151363
0.00128931
-7.49834e-06
-2.58115e-05
-0.0430491
-0.0647032
1.68729e-05
3.59633e-05
-1.24479
7.86772e-05
1.70794e-05
0.080018
-6.89361e-05
-0.0279034
0.0137834
0.0387219
0.000471966
-6.40029e-06
-8.99806e-06
0.000110267
2.08773e-05
4.07622e-06
-0.298168
-0.755163
3.00536e-05
-2.61207e-06
-3.99074e-05
0.000100386
0.692548
1.00423e-06
7.70114e-05
3.80618e-05
2.59528e-06
-2.46699e-06
-0.00158276
-2.3858e-05
2.6184e-05
-5.60711e-05
8.9099e-06
-1.18401e-05
0.000863019
0.0098205
0.00129783
9.44319e-06
-1.05918e-05
-8.58574e-06
3.47832e-06
-0.0131414
-1.63082e-05
-0.0667274
-0.0280527
3.77649e-05
-8.79447e-06
0.0250737
5.86375e-06
-2.00511e-06
-4.88479e-06
0.0356388
4.66622e-06
-0.000332823
-2.66884e-06
4.57263e-06
-4.84674e-06
-0.0574886
2.8426e-05
5.1942e-05
0.000392079
-0.0122504
0.00146775
6.86443e-06
0.00616808
-1.92078e-06
-0.0185187
-3.62764e-05
9.15943e-06
-1.57007e-05
-1.68811e-05
-6.94975e-06
0.0686112
-0.0135158
0.0356998
-0.00397132
-3.28465e-05
-0.668545
1.56338e-06
0.207724
0.033902
-3.51268e-05
-0.00428526
0.000311339
0.187049
-4.5227e-06
-0.198982
2.25934e-05
-1.55074e-05
-8.49179e-05
0.052278
-0.000248484
-0.000212346
0.14511
0.125786
0.0246694
8.98791e-05
0.00014823
-0.0018175
-0.00176189
-0.153219
9.11202e-05
-8.15334e-06
-0.00210248
0.0441755
-3.14831e-05
-0.17249
8.11849e-05
0.0760798
1.17591e-05
-2.3991e-06
0.000441383
0.000346317
-0.651816
0.0924152
-0.254227
-9.45935e-06
-3.41339e-06
-0.153121
0.0440175
0.314583
-6.1071e-05
7.61744e-05
-4.72993e-06
-2.24169e-05
1.6901e-05
-0.0110209
0.0102695
-0.330438
-0.156778
-0.0856576
0.383275
2.17902e-05
-1.73956e-05
2.91612e-05
-1.53231e-06
-1.62585e-05
-7.49187e-06
1.67557e-05
1.89787e-05
-1.27777e-05
0.000374422
0.00595039
0.00125239
9.93916e-06
-4.44881e-06
0.0186533
-0.000335677
2.0018e-05
-0.00031669
0.00514999
0.0833652
1.43147e-05
0.000385978
-0.064857
-8.67297e-06
0.624417
-2.24798e-05