/*--------------------------------*- C++ -*----------------------------------*\
| =========                 |                                                 |
| \\      /  F ield         | OpenFOAM: The Open Source CFD Toolbox           |
|  \\    /   O peration     | Version:  v2012                                 |
|   \\  /    A nd           | Website:  www.openfoam.com                      |
|    \\/     M anipulation  |                                                 |
\*---------------------------------------------------------------------------*/
FoamFile
{
    version     2.0;
    format      ascii;
    class       volScalarField;
    location    "500";
    object      nut;
}
// * * * * * * * * * * * * * * * * * * * * * * * * * * * * * * * * * * * * * //

dimensions      [0 2 -1 0 0 0 0];


internalField   nonuniform List<scalar> 
10042
(
0.010055
0.0168953
0.0044842
0.00670802
0.00674487
0.0120704
0.0022261
0.0187282
0.0066918
0.00159427
0.00770096
0.0172025
0.00156319
0.00678248
0.00677465
0.00678179
0.0153152
0.00613514
0.00298277
0.00344534
0.00148521
0.00864983
0.00670734
0.0146526
0.00672168
0.00700932
0.00168348
0.00668262
0.012268
0.0163272
0.00697299
0.00434346
0.00668816
0.0066871
0.0179571
0.0169362
0.00681481
0.00668852
0.00687381
0.00680515
0.0152351
0.00668797
0.00356857
0.0125846
0.00671177
0.00672335
0.00667776
0.00676826
0.00138959
0.0298921
0.00438008
0.00670583
0.0145695
0.00328009
0.0154079
0.000893796
0.00155819
0.00703224
0.00679707
0.00667208
0.00140536
0.00285463
0.00121999
0.021785
0.00713981
0.00681377
0.00420263
0.0103103
0.00667747
0.0104205
0.0125144
0.00681693
0.00671823
0.00679137
0.00680304
0.00861474
0.00687645
0.00667774
0.00673784
0.00301314
0.0100638
0.0146689
0.00707819
0.00670569
0.00162223
0.00200241
0.00492294
0.00456239
0.00675118
0.00719441
0.00199552
0.00677543
0.00129471
0.00195757
0.00749772
0.00675394
0.0225385
0.00379338
0.0113549
0.00678443
0.00230341
0.00199332
0.00680921
0.00491855
0.00272307
0.00678635
0.0278878
0.00679114
0.0022108
0.00679356
0.00678324
0.00224529
0.00191676
0.0200984
0.00727876
0.00667903
0.00616461
0.00693815
0.00648457
0.00668037
0.00667127
0.0226912
0.0237963
0.00671396
0.00710333
0.00676453
0.00676926
0.0136122
0.000288536
0.00580219
0.00669434
0.00677288
0.00679175
0.00677058
0.00218001
0.00784302
0.00502767
0.0258972
0.00407318
0.0129836
0.00102633
0.00674996
0.0275877
0.00668303
0.00206797
0.00668905
0.00186764
0.00667711
0.00678734
0.0129465
0.00678012
0.00685817
0.0038197
0.00136514
0.00745314
0.00210845
0.000778674
0.0018166
0.00678943
0.00702253
0.00688939
0.00699075
0.00639316
0.00675757
0.00504683
0.0115527
0.00671729
0.00415723
0.0168985
0.00668501
0.00338804
0.0173696
0.0267624
0.00668581
0.00313002
0.0261584
0.00672284
0.00668903
0.00676023
0.00667729
0.00437586
0.00242783
0.00679022
0.00667718
0.019966
0.00216992
0.00681623
0.00668146
0.0396096
0.00684194
0.0151635
0.00147435
0.00669704
0.00263478
0.0148134
0.0067733
0.0248604
0.00419864
0.0334801
0.00670762
0.00410664
0.00100244
0.00266718
0.0067491
0.0126057
0.00678736
0.0188379
0.00144999
0.00677678
0.00677553
0.00451977
0.00672726
0.00206599
0.00507594
0.00683511
0.00907545
0.00674534
0.0125761
0.00674702
0.00362153
0.0423237
0.00385985
0.0441017
0.0096457
0.00670852
0.000808398
0.00679501
0.00588825
0.00149246
0.00681128
0.00668968
0.00677727
0.00236306
0.00702438
0.00672313
0.0178555
0.0066949
0.0238523
0.00226066
0.0144585
0.00775878
0.0189189
0.00667097
0.00708267
0.0186113
0.00675477
0.0182139
0.002505
0.00356976
0.00681109
0.00265967
0.00670099
0.0105081
0.0169932
0.0067877
0.00671435
0.00689284
0.00677885
0.0209124
0.00671565
0.00722155
0.00669254
0.00670457
0.00667812
0.00147257
0.0183174
0.00720129
0.0113325
0.00701785
0.00677809
0.00672173
0.0218092
0.00675633
0.0241033
0.00678326
0.00600872
0.00436413
0.00671381
0.0070246
0.0161474
0.00668221
0.0186151
0.0201295
0.00499565
0.00688919
0.0299752
0.00394779
0.0066815
0.00491214
0.00691323
0.00150874
0.00692901
0.0069158
0.0203214
0.00688482
0.00677852
0.0166952
0.00611161
0.00672238
0.00675451
0.00393693
0.0014346
0.00668294
0.00883487
0.00535456
0.00495357
0.00677623
0.0074046
0.0158197
0.0198078
0.00686564
0.00675634
0.00674889
0.0067784
0.00697276
0.00345059
0.00667817
0.0182656
0.0143966
0.00667948
0.00698701
0.0288021
0.00631327
0.0123717
0.01954
0.00686458
0.00660388
0.00675814
0.00668314
0.00158332
0.00679011
0.00674889
0.00972493
0.00687181
0.0168218
0.0036419
0.0287998
0.0105982
0.00670382
0.0103475
0.000971019
0.0013363
0.00667115
0.00721007
0.00695431
0.00668965
0.00673469
0.00675757
0.0069037
0.0302889
0.00653122
0.00819789
0.00688105
0.00677809
0.00501144
0.00593941
0.00679512
0.007068
0.0301588
0.00699639
0.00677896
0.00682278
0.00513113
0.0152331
0.00990088
0.00457066
0.00672019
0.00683936
0.00686324
0.00652043
0.00667408
0.0070917
0.0067649
0.00702377
0.00181196
0.0067993
0.00609373
0.00249339
0.016178
0.00178618
0.00676087
0.00680404
0.00154682
0.00675145
0.00124544
0.0066803
0.00678963
0.0066783
0.00679012
0.00668091
0.00678393
0.00446246
0.00661631
0.00535706
0.00962493
0.0136738
0.0067115
0.018392
0.00683186
0.0034619
0.00670679
0.0415042
0.00697425
0.0110074
0.0164998
0.00678024
0.000995582
0.00685132
0.00593969
0.00678908
0.0203064
0.00190028
0.0195035
0.00679709
0.0225351
0.0068871
0.00178086
0.00851751
0.0066793
0.00687038
0.00684646
0.00970613
0.00669136
0.00667692
0.00096639
0.00687362
0.00166906
0.0197465
0.00671366
0.0013988
0.00688372
0.00667805
0.00181154
0.0165977
0.00682448
0.00555491
0.00589289
0.00574089
0.00700603
0.000857723
0.00668382
0.00693301
0.00341772
0.038437
0.0121243
0.0269759
0.0219935
0.00429923
0.0205935
0.00667725
0.00658935
0.0179927
0.0185532
0.00141042
0.00670706
0.00674007
0.00749652
0.00242393
0.00667777
0.00676086
0.00699272
0.00671135
0.00684813
0.00686688
0.00678524
0.00437901
0.00548719
0.00454153
0.00695423
0.00432312
0.00360805
0.00670914
0.0347202
0.00707933
0.011979
0.00684352
0.00272285
0.00700318
0.012876
0.00672643
0.00454633
0.00680082
0.0109227
0.00677908
0.00268164
0.00676046
0.00694035
0.023063
0.00698616
0.00671569
0.00676198
0.0144697
0.00669183
0.00437341
0.00452567
0.00100331
0.00675853
0.0036535
0.0215415
0.00296765
0.00676272
0.0069621
0.0188665
0.0154277
0.00122373
0.00959939
0.00685542
0.010719
0.00172202
0.00179521
0.00292062
0.0204196
0.00675456
0.00670667
0.00680216
0.021514
0.00671294
0.00519139
0.00671082
0.00675119
0.00670963
0.00182219
0.0100399
0.00680989
0.0056477
0.012313
0.00519361
0.00193717
0.00680717
0.00678715
0.0114383
0.00322845
0.00676626
0.0066923
0.00395412
0.00675957
0.00674126
0.00720385
0.00669104
0.0183247
0.00671526
0.00148675
0.00735118
0.0441257
0.00671329
0.00265461
0.00676518
0.00670903
0.011767
0.00667134
0.0108174
0.00115739
0.00668812
0.00712851
0.0298767
0.00985531
0.00671155
0.00687156
0.00669199
0.00667688
0.00678561
0.00733668
0.00679423
0.0215658
0.00674367
0.00676386
0.0022993
0.00253178
0.00718045
0.00700986
0.00670334
0.00213664
0.0152859
0.00723825
0.0220243
0.00671883
0.00259107
0.0067093
0.00669108
0.00677511
0.0067588
0.00677287
0.00685332
0.0369431
0.00679918
0.00203138
0.00670942
0.00705505
0.00667831
0.00210894
0.0112263
0.0066872
0.00671187
0.0176679
0.00322828
0.00667874
0.0172263
0.0067273
0.0074685
0.0066887
0.00685751
0.00670651
0.0278045
0.00667863
0.00676974
0.00681047
0.0181529
0.00707368
0.00677084
0.00686367
0.00568978
0.00671212
0.00672467
0.00674024
0.00672475
0.00265107
0.00672496
0.00698572
0.00671352
0.0187147
0.0127678
0.0193172
0.00679205
0.00290031
0.00674106
0.00548267
0.00681558
0.0144635
0.00893568
0.0163578
0.00647102
0.017696
0.00671818
0.00675515
0.0240107
0.00536812
0.00682831
0.00092781
0.0067857
0.0160376
0.00671852
0.00676833
0.00671303
0.00669015
0.00688071
0.0237364
0.00483354
0.0069816
0.0107338
0.00673633
0.00750553
0.00680577
0.00490789
0.00716871
0.00683148
0.0154949
0.00676677
0.00674909
0.0021978
0.00675705
0.00671946
0.00698352
0.00672783
0.00670257
0.0146846
0.00867637
0.0173847
0.00676109
0.00674447
0.00672417
0.0160751
0.0068059
0.00679959
0.00678667
0.00672325
0.0172583
0.032675
0.00778788
0.00678815
0.00688432
0.0186434
0.00265223
0.00691969
0.00171797
0.0260408
0.00491152
0.0165715
0.00671759
0.00686172
0.00677454
0.0221735
0.00671596
0.00281769
0.00678594
0.00667212
0.00737071
0.00680035
0.0368141
0.0339184
0.00668163
0.00671175
0.00667621
0.0252727
0.00669001
0.0188188
0.00683364
0.0385305
0.00673776
0.00677253
0.00668761
0.00670656
0.00674527
0.00670695
0.00672747
0.00680527
0.00514443
0.00290659
0.0199979
0.00671507
0.00443933
0.028379
0.00684747
0.00154293
0.00670807
0.00680037
0.00703297
0.00690523
0.0232806
0.00678463
0.00679523
0.00671456
0.0188523
0.00676545
0.022378
0.00130082
0.00674409
0.00188648
0.0211668
0.00678872
0.00672107
0.000901793
0.007087
0.00120978
0.00605364
0.00663872
0.00559421
0.00675643
0.00676816
0.006809
0.00227204
0.00694112
0.0106673
0.00193803
0.00667264
0.00683113
0.00680666
0.00342497
0.00708464
0.0176533
0.00678519
0.00677288
0.00818525
0.00673209
0.00100446
0.00163795
0.00690175
0.0216363
0.00701126
0.00676119
0.00681116
0.00159291
0.00678595
0.00824575
0.0068021
0.00159667
0.00275401
0.027181
0.00680866
0.00189974
0.00704585
0.00680397
0.00127657
0.00668331
0.00156896
0.00677908
0.00679228
0.00677557
0.00675112
0.00394515
0.00138196
0.0069349
0.00677241
0.0273243
0.0066859
0.00673786
0.00670831
0.00667735
0.00768858
0.00691623
0.00676044
0.00879129
0.0274782
0.00674397
0.00824998
0.00154933
0.0067203
0.00678506
0.0066767
0.0102996
0.0279008
0.00263245
0.00672698
0.00137911
0.0024745
0.0179435
0.00681317
0.0111215
0.0025858
0.0212964
0.00697269
0.00671093
0.00689674
0.0135472
0.00270749
0.00679689
0.0265753
0.00606699
0.0204196
0.024119
0.00681345
0.00711876
0.0058266
0.0041432
0.0182295
0.00207896
0.0285848
0.00676832
0.0158029
0.00675579
0.00826628
0.00694235
0.00676211
0.0066811
0.00677609
0.00671258
0.0128753
0.00677839
0.00667401
0.00235038
0.00674269
0.00210966
0.00681709
0.010168
0.0069174
0.00536815
0.00679945
0.00679664
0.00673254
0.0027965
0.00670465
0.00626075
0.00620317
0.00483939
0.00678225
0.0186388
0.00670153
0.000974112
0.0235278
0.00670312
0.00673906
0.00667884
0.00679976
0.00683132
0.0124253
0.00229966
0.00672854
0.026541
0.00685177
0.00678071
0.0158231
0.00667777
0.00677211
0.0247728
0.00670409
0.0141765
0.00400652
0.00209061
0.00237613
0.00245179
0.00710925
0.00675037
0.0107882
0.0145501
0.00671153
0.0017231
0.0377201
0.00760011
0.00226286
0.00704752
0.0067398
0.00711863
0.00677988
0.00691182
0.0143163
0.00288364
0.00667709
0.00245706
0.0120981
0.0287422
0.00667725
0.00667635
0.0070003
0.00679303
0.0146661
0.0152242
0.00673346
0.00270463
0.0081933
0.00681293
0.00691175
0.034158
0.00576825
0.0102692
0.00683328
0.00684558
0.00676668
0.00688554
0.000999961
0.00417064
0.00679266
0.0243886
0.0156286
0.0239041
0.00276795
0.00611092
0.0333194
0.00248994
0.0247189
0.00288407
0.00675443
0.00675653
0.0257619
0.00882396
0.006871
0.00277765
0.00298908
0.00678929
0.00438312
0.00687235
0.00677718
0.00698516
0.00262232
0.00676125
0.0067143
0.0428646
0.00674665
0.00673631
0.00160365
0.0025204
0.0228013
0.00695354
0.00679895
0.0238587
0.00135666
0.00691675
0.00132352
0.0157984
0.00672184
0.00669504
0.00266386
0.00468519
0.00672061
0.00680162
0.00675609
0.00679002
0.00677568
0.0163393
0.00681898
0.0110338
0.0067615
0.00239384
0.00675132
0.00679233
0.00653475
0.0196029
0.00186626
0.00674077
0.00687031
0.00903672
0.00423655
0.00689002
0.00521648
0.0162647
0.00672493
0.00748103
0.00372957
0.00683716
0.00368099
0.0067078
0.00415203
0.0279119
0.0110772
0.00679699
0.00681968
0.002357
0.0065612
0.00672787
0.00671643
0.00131159
0.00668337
0.00671568
0.0120298
0.00681084
0.0144002
0.00670158
0.00672078
0.006718
0.00241392
0.00681095
0.00684761
0.00432095
0.00671843
0.00680183
0.0112954
0.00678222
0.00443956
0.00694022
0.0142478
0.0210537
0.00687494
0.0137071
0.00347493
0.00676669
0.0360391
0.0053705
0.00676817
0.00667777
0.00671031
0.00708769
0.0261541
0.00168944
0.0274865
0.0246143
0.0204105
0.00138411
0.0195841
0.00301906
0.0107372
0.00668485
0.00256885
0.0067664
0.00683124
0.00681564
0.00188683
0.0282898
0.00674441
0.017028
0.00673105
0.00220809
0.00683912
0.00314444
0.00690098
0.00701021
0.0161859
0.00672533
0.00668075
0.0197096
0.000867318
0.0074681
0.00739226
0.0165036
0.00682589
0.0199721
0.00981662
0.00670165
0.00671183
0.00673259
0.00249229
0.00690644
0.00551308
0.00685119
0.00682388
0.00682222
0.00679947
0.00680785
0.0107569
0.0272572
0.00669934
0.00428911
0.00370975
0.00223212
0.00174021
0.00266131
0.00670359
0.0037622
0.00195124
0.00674214
0.0012132
0.0144639
0.00678261
0.0067142
0.00702733
0.0261376
0.0248247
0.00672545
0.0160165
0.00681514
0.00678758
0.0138241
0.00675999
0.0067848
0.00673427
0.00679679
0.00687959
0.023209
0.00703129
0.00678715
0.00671081
0.00680399
0.00671435
0.0261703
0.00668119
0.00272067
0.005665
0.011561
0.00669517
0.0210661
0.00679045
0.00110116
0.00688748
0.00422289
0.00668306
0.0224037
0.0309872
0.0265552
0.00674572
0.00880356
0.0228417
0.0161954
0.00680375
0.0213801
0.0067794
0.0189702
0.0251297
0.00695054
0.0177792
0.0194767
0.0126775
0.035463
0.00148793
0.0230103
0.00671292
0.00706013
0.0208657
0.00108895
0.0067108
0.0118916
0.0050872
0.00671488
0.00675851
0.0087314
0.00108872
0.00248084
0.0100128
0.00175561
0.0153497
0.00419579
0.00672049
0.00682481
0.0135007
0.015973
0.00168012
0.0256803
0.00680923
0.00677973
0.00146033
0.0154122
0.00136453
0.00672027
0.00790621
0.0179885
0.00683707
0.00408058
0.00675958
0.00227806
0.00728123
0.00675065
0.0105944
0.0129955
0.00671607
0.00462874
0.00670671
0.0218981
0.00695221
0.00851058
0.00648537
0.00672049
0.00679609
0.00668208
0.00134366
0.00678345
0.00746806
0.00701606
0.00696448
0.0117924
0.00682283
0.0021218
0.0216731
0.00681472
0.00442861
0.00687042
0.00674729
0.0279477
0.0278539
0.00679608
0.01744
0.00731124
0.0134981
0.00674837
0.00679926
0.0069463
0.00688182
0.0021761
0.0107178
0.00684406
0.00697989
0.00830785
0.00486742
0.00329671
0.0284795
0.00162027
0.0227403
0.00670907
0.00667814
0.00161736
0.00681903
0.0101944
0.01893
0.00168608
0.0158937
0.00681783
0.0067926
0.00831638
0.0198788
0.00677014
0.0164795
0.00708538
0.00676038
0.000949649
0.00458332
0.00679658
0.00115721
0.00301354
0.00677848
0.00327801
0.00670584
0.00687442
0.0160412
0.00297196
0.0197873
0.00674008
0.00218114
0.00672098
0.00671755
0.0233124
0.00675574
0.0211067
0.0119151
0.00606826
0.0132216
0.0037123
0.00751045
0.00667666
0.0199297
0.000658739
0.000207258
0.00352196
0.0070325
0.00672997
0.00221509
0.00336607
0.0119794
0.00325431
0.00670828
0.00765519
0.00667583
0.03871
0.00670478
0.0129745
0.00679294
0.00670495
0.00669559
0.0209487
0.0067037
0.00673624
0.00668997
0.00672164
0.00671601
0.00365255
0.00897125
0.0067661
0.00239161
0.00677282
0.0067043
0.00670055
0.017505
0.0188626
0.00279513
0.00676151
0.00670249
0.00671365
0.00277148
0.00271867
0.00669092
0.019098
0.0107616
0.0092918
0.00675074
0.006725
0.0067114
0.003465
0.00671421
0.00674855
0.00672104
0.00671805
0.0072029
0.00684598
0.00778486
0.0244168
0.0190696
0.00692659
0.00670645
0.00678895
0.0400849
0.0068113
0.00173593
0.00701477
0.0067124
0.00675842
0.00671291
0.0192669
0.00680036
0.0120934
0.020108
0.00256405
0.00673759
0.00265271
0.0214026
0.00312245
0.00135531
0.00692943
0.00391473
0.00671411
0.00254001
0.00244194
0.0181168
0.00673594
0.00675436
0.012798
0.00284135
0.00349802
0.00705767
0.0172364
0.00673121
0.0026167
0.00663863
0.00744587
0.0010519
0.00676051
0.00678636
0.00682136
0.00677319
0.00283051
0.012341
0.00876601
0.0067105
0.0425766
0.00690058
0.00938043
0.0182846
0.00672132
0.0250162
0.00349438
0.00671719
0.00208331
0.00139857
0.00679616
0.0161194
0.00670354
0.0103964
0.00734431
0.0043101
0.00819435
0.00118816
0.00676373
0.00271112
0.00682784
0.00671882
0.00669822
0.00672637
0.00259263
0.00551992
0.00134806
0.0156047
0.0160065
0.0013377
0.00747317
0.00675018
0.0202033
0.00671084
0.0151665
0.0290706
0.0145584
0.0122919
0.0251991
0.00229571
0.00668635
0.00679558
0.00669273
0.00164037
0.00692062
0.0171506
0.00285343
0.0438344
0.00220044
0.00674532
0.00674916
0.00676018
0.00668444
0.0181233
0.0124674
0.0231822
0.00674382
0.007074
0.00302408
0.00684926
0.00112655
0.00672986
0.0116229
0.0211563
0.00682762
0.00694969
0.0160967
0.0023552
0.00544257
0.0190032
0.00684015
0.014596
0.00692133
0.0411861
0.00670386
0.00495219
0.00685394
0.00746522
0.0072659
0.0185515
0.0272559
0.0397425
0.000847727
0.00447619
0.00688227
0.00683744
0.024411
0.0225671
0.000958279
0.00250352
0.0370788
0.00750857
0.0270183
0.00198557
0.0224534
0.00670028
0.00140202
0.00815373
0.00683907
0.00673782
0.00708342
0.00671979
0.00670612
0.0067184
0.00678407
0.0266528
0.00511559
0.0231018
0.00113501
0.00236654
0.0241757
0.0199645
0.00673776
0.00680089
0.016464
0.00820173
0.00263078
0.0206605
0.0144715
0.0214471
0.00671836
0.00155787
0.00312227
0.00116568
0.00076051
0.0270538
0.0240796
0.00166778
0.00679128
0.00684837
0.00239971
0.007132
0.00129606
0.0141016
0.00670471
0.00668513
0.00359261
0.0208918
0.0033904
0.00670776
0.00670451
0.00384591
0.0179306
0.0279849
0.00679618
0.00110451
0.0209962
0.00689035
0.00357923
0.00703337
0.00149858
0.00697514
0.001425
0.0046572
0.00670774
0.00675083
0.0070239
0.00185112
0.000995395
0.00132313
0.00506262
0.00404456
0.00679248
0.0163938
0.00141023
0.00331887
0.00678644
0.00482613
0.00693565
0.0276936
0.00448858
0.00157792
0.00672443
0.00576821
0.00367443
0.00210062
0.0277396
0.00677664
0.00693047
0.0117826
0.00697305
0.0197109
0.00689051
0.00677892
0.00377452
0.0166524
0.00671871
0.0181355
0.00678434
0.0177911
0.0218083
0.00597319
0.00381511
0.00670925
0.00670943
0.00673337
0.00285129
0.00668265
0.00679368
0.00670434
0.00671462
0.00324876
0.00686949
0.00686868
0.00684325
0.0152428
0.00675147
0.0248854
0.00550762
0.00674695
0.00494357
0.00670755
0.0272909
0.0220224
0.00678632
0.00625638
0.00169991
0.0150987
0.00709236
0.0298879
0.00173455
0.00686643
0.01658
0.00673029
0.0429543
0.00677112
0.00754564
0.00673553
0.0019054
0.0261866
0.0233971
0.00678832
0.0033818
0.00670278
0.00343363
0.00370389
0.00675384
0.00672065
0.00165227
0.00696395
0.021075
0.0079272
0.00537403
0.00134298
0.00673144
0.00262373
0.00449621
0.00671664
0.00547589
0.0265622
0.00637057
0.0064785
0.00350791
0.00589627
0.00406028
0.000418963
0.0240798
0.00143321
0.00823628
0.0160195
0.00380085
0.00319694
0.000957367
0.0067131
0.00327578
0.00719744
0.00404065
0.0242621
0.00372108
0.0198349
0.006822
0.00682598
0.000936004
0.00363611
0.0032166
0.00689011
0.00218083
0.0146159
0.00686005
0.0069525
0.0067937
0.0305917
0.0105933
0.0028978
0.006794
0.00669926
0.007012
0.00679349
0.00476293
0.0067066
0.00685275
0.00675546
0.00711214
0.00297957
0.00679302
0.0300641
0.00574882
0.00605405
0.00221555
0.0034196
0.00286384
0.00827259
0.00682718
0.0201465
0.00671731
0.00670071
0.00541585
0.00720553
0.0067038
0.0182229
0.00576773
0.00672902
0.00693134
0.025225
0.00237165
0.0215254
0.0169297
0.00231968
0.00670715
0.00388372
0.0206065
0.00185444
0.0137071
0.00532992
0.00270084
0.00792746
0.00471848
0.00669805
0.0438779
0.0120913
0.0067071
0.00232724
0.00682189
0.00466745
0.00166961
0.00615363
0.00676027
0.00671685
0.00668328
0.0203948
0.00679101
0.00863593
0.00193152
0.00678631
0.00670339
0.00673141
0.0198231
0.0030483
0.00670322
0.00418834
0.00742237
0.00682046
0.0268434
0.00677952
0.00671074
0.00669825
0.00678041
0.006736
0.00680569
0.00681237
0.00456711
0.00679667
0.000936282
0.00393151
0.0133997
0.00149922
0.00673024
0.00246651
0.00668966
0.00683048
0.00145331
0.0067052
0.011799
0.00670877
0.00118852
0.0305151
0.00669652
0.00243255
0.0187907
0.00676771
0.00679997
0.00678546
0.00269001
0.00677221
0.0160771
0.0195093
0.00700391
0.00202796
0.00125276
0.00249396
0.00684933
0.00611592
0.00679272
0.00504899
0.00219394
0.00247268
0.0165842
0.00682739
0.000977695
0.0137378
0.00179482
0.00675886
0.00150046
0.00409384
0.00166231
0.00670999
0.00690498
0.0232211
0.00217681
0.00775471
0.0045016
0.00708106
0.0234184
0.00669541
0.00773227
0.00676122
0.00228232
0.00725295
0.0194521
0.044502
0.00215933
0.00251792
0.0201618
0.00704534
0.0067046
0.00682447
0.00683057
0.00683797
0.00268717
0.0067222
0.0182809
0.00254688
0.00679776
0.00672659
0.00671165
0.00670935
0.00242271
0.00674351
0.00946683
0.00681388
0.0180725
0.00684871
0.00676912
0.00669412
0.000936734
0.00683872
0.0301028
0.0181344
0.0186398
0.00255646
0.00521281
0.00671611
0.00670378
0.00673979
0.0182801
0.00681371
0.00682468
0.00703257
0.00675501
0.00519827
0.0414622
0.00225362
0.0186039
0.00690558
0.0202935
0.00564556
0.00671059
0.00673689
0.00273454
0.0170043
0.00431514
0.0200669
0.00230893
0.00675742
0.00670913
0.00692162
0.00210633
0.00682185
0.00675632
0.00681256
0.00354376
0.0271079
0.00494267
0.00713392
0.00251543
0.00674453
0.00606287
0.0196491
0.00676509
0.00670367
0.00673066
0.00620379
0.00670288
0.00279026
0.0218892
0.041541
0.00671291
0.00674604
0.00669926
0.00678215
0.00685286
0.00189058
0.00478665
0.00481075
0.00403386
0.0135568
0.00130382
0.00698838
0.00681609
0.00677236
0.00670954
0.00671478
0.00671752
0.0067854
0.00720538
0.0144711
0.00678001
0.00669692
0.00680591
0.00679577
0.00651453
0.00193382
0.0240396
0.0155466
0.00390956
0.00112579
0.00670983
0.00676126
0.00671223
0.00679189
0.0144889
0.00675238
0.00288991
0.00246483
0.0149529
0.0286193
0.00250054
0.00668514
0.0205553
0.00671639
0.0020971
0.0179617
0.00940078
0.00676589
0.00683909
0.00683852
0.00677158
0.00677848
0.0068149
0.00674215
0.00676068
0.0149819
0.00294795
0.0203501
0.00671598
0.00669687
0.00215444
0.00237599
0.00734511
0.0218359
0.00693278
0.016626
0.00132881
0.00670698
0.0122676
0.00671086
0.00311225
0.00678941
0.00672014
0.0401854
0.0110451
0.0427779
0.0014166
0.0145034
0.00740804
0.0149101
0.00672148
0.00679959
0.0022047
0.00671701
0.00680731
0.00352139
0.00675985
0.0166312
0.00677766
0.012633
0.00433319
0.00668447
0.0252978
0.00681984
0.00670959
0.00330004
0.00382205
0.00437707
0.00480409
0.00619097
0.00856139
0.00679484
0.00671524
0.0068103
0.002531
0.00672687
0.00670303
0.00678881
0.00450354
0.0113794
0.00671073
0.00704669
0.00706709
0.00674645
0.00674885
0.00677391
0.0137524
0.0129297
0.00708083
0.0042791
0.00671467
0.00234701
0.00943977
0.00679132
0.00820043
0.00919978
0.00676536
0.0024195
0.0265689
0.0220251
0.00140245
0.00668609
0.00672506
0.0154924
0.00201592
0.0214093
0.00207517
0.00881746
0.0055006
0.0193158
0.0129835
0.0438337
0.00607111
0.0220129
0.0271863
0.011999
0.00678951
0.0284392
0.00682904
0.0133394
0.00384954
0.00589332
0.00709256
0.0140168
0.0187904
0.00686485
0.00678709
0.00709924
0.0146513
0.00772835
0.00670119
0.00677742
0.00673966
0.00261007
0.00682365
0.0028432
0.0230135
0.0257042
0.00277057
0.00687926
0.000753932
0.00680769
0.00674467
0.00872026
0.0067907
0.00308278
0.00672418
0.0130664
0.00104286
0.0268782
0.00685643
0.00587441
0.00582918
0.00291924
0.0131351
0.0191882
0.00458719
0.0172766
0.00670708
0.00677349
0.0010824
0.00675631
0.00679945
0.00675521
0.00680707
0.00271378
0.00707587
0.00670537
0.0086041
0.00681634
0.00778772
0.00678576
0.00801196
0.0163609
0.00716175
0.0204084
0.024414
0.00673317
0.0032922
0.0102945
0.00682532
0.00677835
0.00689703
0.00278765
0.017181
0.00670627
0.00684414
0.0188669
0.00671085
0.00671128
0.00679254
0.00675669
0.010872
0.006788
0.00142623
0.00680307
0.0274365
0.00671376
0.00200966
0.011069
0.0089062
0.0274553
0.00670049
0.00708943
0.00680004
0.00675244
0.0148217
0.00514194
0.00531688
0.0147278
0.00671004
0.00680489
0.00313623
0.00676124
0.0143095
0.00671554
0.00163396
0.020949
0.0191532
0.00485942
0.00671475
0.00679795
0.0264004
0.00696509
0.00426336
0.0119843
0.0102742
0.0186052
0.00700342
0.00676792
0.00671384
0.00679516
0.00998246
0.00685035
0.00547031
0.00672891
0.00679438
0.00941589
0.00677628
0.00768957
0.00455223
0.00678972
0.00708969
0.0151623
0.00669905
0.00691364
0.0161384
0.00677139
0.00677867
0.00168462
0.0412439
0.00267511
0.00723582
0.00670902
0.0178424
0.0163084
0.00169254
0.00678174
0.00669928
0.00444732
0.00678548
0.00855274
0.0127125
0.0192965
0.0243395
0.00673298
0.00353086
0.00671807
0.00215454
0.00676627
0.0212787
0.0172173
0.00676509
0.0117855
0.00671768
0.0323802
0.00170767
0.00670309
0.00791809
0.00672785
0.00670588
0.00672352
0.00667822
0.00741682
0.0271975
0.0067875
0.00669551
0.000787778
0.00668526
0.00679083
0.00491549
0.0067086
0.00675021
0.0106024
0.00374457
0.00670009
0.003885
0.00467145
0.00675458
0.0239104
0.0173988
0.00676013
0.00672305
0.00683538
0.00445795
0.00678263
0.00681058
0.00502758
0.00155519
0.00670573
0.00540278
0.017972
0.00679353
0.00766531
0.00671389
0.00674757
0.00670752
0.00670781
0.00671314
0.00674512
0.0176232
0.0206429
0.00669698
0.00689024
0.00691389
0.00546658
0.00507728
0.00139953
0.0067426
0.00619795
0.00511804
0.00676361
0.0287875
0.00689998
0.00671104
0.00680239
0.00443324
0.00558788
0.0207004
0.00229585
0.00670852
0.00969183
0.024746
0.0196333
0.00615988
0.00391645
0.00517678
0.00670849
0.042027
0.00678125
0.00674586
0.00299857
0.00671902
0.00671964
0.00857411
0.00670021
0.00315173
0.0125686
0.00595445
0.00676629
0.00350284
0.00670968
0.00520778
0.00669644
0.00704891
0.00400497
0.0201881
0.00671122
0.00671564
0.0053116
0.014762
0.0118412
0.0140414
0.0135787
0.00717418
0.0067409
0.00579852
0.0254073
0.00671254
0.00675409
0.00708708
0.00670708
0.0299785
0.00255695
0.00672325
0.0111148
0.00671402
0.00672452
0.0066941
0.00674661
0.00671083
0.0021915
0.00672485
0.0111805
0.00675447
0.00639208
0.00679841
0.00679398
0.00670815
0.00673705
0.00798761
0.00670954
0.00486005
0.0152517
0.0045704
0.00532402
0.00511835
0.00492413
0.0067718
0.00668433
0.00670928
0.00668582
0.0251947
0.0107696
0.00690521
0.0042966
0.00774415
0.00681155
0.0154654
0.00683222
0.00670655
0.00679148
0.00458661
0.00247505
0.0183125
0.0016294
0.00706651
0.00461581
0.00449617
0.00679184
0.00671032
0.00670178
0.00159765
0.00147946
0.0225855
0.00212152
0.00143711
0.00670405
0.00377125
0.00670878
0.00438514
0.0068001
0.00559593
0.00499603
0.007897
0.00321067
0.0057276
0.00705746
0.00529004
0.00309001
0.0247921
0.00670623
0.00670809
0.00675437
0.00674801
0.012634
0.00671887
0.00679466
0.0031937
0.00670372
0.0227942
0.00854102
0.00350529
0.00679759
0.00678928
0.0107212
0.00530435
0.00670913
0.00670976
0.000185001
0.00671005
0.00674383
0.00793953
0.00700079
0.0122776
0.0180624
0.0175175
0.00141029
0.00673414
0.00679708
0.00176544
0.0067067
0.00672593
0.014071
0.0121365
0.00686393
0.00675278
0.00670343
0.00493861
0.00847282
0.00674656
0.00470884
0.00679022
0.00670039
0.00672184
0.00530058
0.00693602
0.00671934
0.00677372
0.00589804
0.00669885
0.00310954
0.0161932
0.00730922
0.00674702
0.00676341
0.00678877
0.00673984
0.0171309
0.0067151
0.0178525
0.00976223
0.00670617
0.0067086
0.0235376
0.00669853
0.00673852
0.00670787
0.00874212
0.00707863
0.00757344
0.00671829
0.00669676
0.00675513
0.0156448
0.00674014
0.00680015
0.00132342
0.0143001
0.00655199
0.00668279
0.0240619
0.00667686
0.0115022
0.00670505
0.00672517
0.00671099
0.00676435
0.00676814
0.00625485
0.000767602
0.0190217
0.00128019
0.00673157
0.0208353
0.0067555
0.0132646
0.0106583
0.00685504
0.0142391
0.00346796
0.00593276
0.00671094
0.0153822
0.00677261
0.00671997
0.0068602
0.00137867
0.0159068
0.00286219
0.0113557
0.0118736
0.00469038
0.00671158
0.00316375
0.00129248
0.0089057
0.00679848
0.00693573
0.00677084
0.00217811
0.0099393
0.00671784
0.0241772
0.00550331
0.00255952
0.0067072
0.0067097
0.00183131
0.00194328
0.0333671
0.019589
0.00200304
0.00670557
0.00677352
0.00590682
0.0122365
0.0118763
0.00670149
0.00689658
0.00670022
0.0067044
0.00670537
0.0135012
0.00248679
0.000930169
0.00289468
0.00904577
0.0074714
0.00671456
0.00677627
0.00681823
0.00672928
0.00312199
0.00671993
0.0068066
0.00676701
0.00670265
0.0025914
0.00951938
0.00676921
0.006725
0.00671985
0.00996847
0.00667349
0.00306884
0.00676427
0.0202385
0.00670456
0.00674839
0.00201473
0.00818561
0.00671519
0.00988475
0.00677949
0.00676566
0.00675314
0.014498
0.00670311
0.00669996
0.00685129
0.00679532
0.00675219
0.00673272
0.000825691
0.0232527
0.0122035
0.00680191
0.00674575
0.0128599
0.00672176
0.00672467
0.00670213
0.0110851
0.00671031
0.0103744
0.00668445
0.00672299
0.00220447
0.00466747
0.00672372
0.00460444
0.0204979
0.0106283
0.00671376
0.00667653
0.00670101
0.00977717
0.00687415
0.00576012
0.00886133
0.00674676
0.0066949
0.00680779
0.00677175
0.0176624
0.00672312
0.00674057
0.00671775
0.00366964
0.0245014
0.00675614
0.00671598
0.00673216
0.00818257
0.000972827
0.0148838
0.00693477
0.0110967
0.00676147
0.00673064
0.0155951
0.0215063
0.00670965
0.0067619
0.0144257
0.00225637
0.00670272
0.00673908
0.00670083
0.00675496
0.00672451
0.0120148
0.00684062
0.00708869
0.0225657
0.00826779
0.00678214
0.00703488
0.00682967
0.00607827
0.00705248
0.00605482
0.00671917
0.00305003
0.00671075
0.0068994
0.0234188
0.00685838
0.00128192
0.0170687
0.00677353
0.00687967
0.013332
0.0193811
0.00619411
0.00671437
0.0067018
0.0141707
0.00671735
0.00669997
0.00702208
0.00291693
0.00670351
0.0176442
0.0213022
0.00671323
0.00693515
0.00686428
0.00674607
0.00675081
0.00670289
0.00674279
0.0247687
0.00587135
0.00690611
0.00669919
0.00671166
0.00671968
0.00672515
0.00689415
0.00575539
0.00677092
0.012497
0.00676774
0.006713
0.00222741
0.00670119
0.00668568
0.00686723
0.0094799
0.00671315
0.00859348
0.00699878
0.0107494
0.00681083
0.0112416
0.00868794
0.0225831
0.00681342
0.00673593
0.00916943
0.00675521
0.0158667
0.00670853
0.0069976
0.00688517
0.006742
0.0169257
0.0102904
0.0175876
0.0189041
0.00704729
0.00670027
0.00670141
0.0160953
0.00924162
0.0067048
0.00672356
0.00672994
0.00674794
0.00670043
0.0150373
0.00671024
0.00669906
0.00678176
0.00683522
0.00548468
0.0017809
0.00697845
0.0066995
0.00669449
0.0237828
0.00700289
0.00668728
0.0100401
0.00615483
0.00701086
0.00703419
0.00670458
0.00672823
0.0068077
0.0124166
0.00839019
0.00353568
0.00671966
0.00671178
0.0144282
0.0235638
0.00696012
0.0067748
0.00696444
0.00673866
0.00611691
0.0069613
0.00692921
0.00669248
0.00676212
0.00669713
0.00675141
0.00674541
0.00688507
0.00670891
0.00119892
0.0143058
0.00669601