/*--------------------------------*- C++ -*----------------------------------*\
| =========                 |                                                 |
| \\      /  F ield         | OpenFOAM: The Open Source CFD Toolbox           |
|  \\    /   O peration     | Version:  v2012                                 |
|   \\  /    A nd           | Website:  www.openfoam.com                      |
|    \\/     M anipulation  |                                                 |
\*---------------------------------------------------------------------------*/
FoamFile
{
    version     2.0;
    format      ascii;
    class       surfaceScalarField;
    location    "200";
    object      meshPhi;
}
// * * * * * * * * * * * * * * * * * * * * * * * * * * * * * * * * * * * * * //

dimensions      [0 3 -1 0 0 0 0];
oriented        oriented;


internalField   nonuniform List<scalar> 
14470
(
-0.0133123
0.00418218
0.0091357
-0.00178833
-0.001178
0.0165334
-0.0164623
-5.05639e-05
-0.000876733
-0.00117073
0.00204747
-0.00291876
0.00308918
-0.000149519
-0.00553868
0.00555491
-1.51934e-05
0.0038888
-0.00768973
0.00380193
-0.000776387
-0.0021073
0.00288371
-0.0148324
0.00251702
0.012381
0.000473038
0.0047004
-0.00512202
0.00513565
-0.00461859
-0.000109744
-0.0131032
0.0134378
0.00563819
-0.00259557
-0.00304267
0.0204252
-0.0146951
-0.00561088
-0.0107662
0.0131233
-0.00233902
-0.00831021
0.00829765
1.62945e-05
0.016304
-0.00519903
-0.0110324
-0.00316064
0.00265934
0.000501317
0.00596573
-0.0126091
0.00702691
0.00797923
0.00899825
-0.0167499
0.000986721
-0.000986721
-0.000499567
0.00247817
-0.00197861
-0.0025234
0.00174703
0.0036436
0.00199454
0.00255179
-0.0102267
0.00767903
0.0130981
-0.00407268
-0.00892793
-0.00115399
0.00168937
-0.000409941
-0.00464722
0.010932
-0.00665583
0.00166265
0.00499484
-0.00160314
-0.000662925
0.00226606
0.00539727
-0.00486898
-0.000527494
-0.0145051
0.0143352
0.000186494
0.00282534
0.0117276
-0.0144752
0.00108578
0.000963263
-0.00136425
-0.00520549
-0.00407785
0.00929534
0.0100602
0.0013584
-0.0113791
0.00126929
0.00687559
-0.00814793
0.00163109
0.00212824
-0.00375928
0.0111123
-0.00777034
-0.00333167
-6.64195e-05
-0.00658702
-0.00273763
-0.00149677
0.00423465
0.000979428
-0.0025806
0.0016012
3.24636e-05
-0.00113398
-0.00180058
-0.0115756
0.0133787
-0.00191961
-0.0109493
0.0128782
0.00141013
0.00117057
-0.0025807
-0.000166282
0.000957136
-0.000812799
0.00376187
-0.0140524
0.0104476
0.000904632
0.0154774
0.00679554
-0.0119872
0.00284796
-0.00109493
-0.0114017
0.00794294
0.00346626
-0.00277132
0.00258631
0.00965099
-0.00658123
-0.00306771
-0.00312176
0.00224503
0.0135467
0.000319839
-0.0136017
0.000548592
0.00647278
-0.00701751
-0.00888337
0.0127826
0.000957136
-0.00939169
0.00173365
0.00765712
0.00268267
-0.00515983
0.00247748
-0.0156388
0.015786
-0.000119926
0.0124048
-0.00219424
-0.0101967
0.000669313
-0.0035683
0.00348443
-0.000420342
-0.0143368
-0.00116971
-0.00118629
0.000152279
-0.0104005
0.0102694
0.000901221
0.0104637
-0.0113313
0.00412535
-0.00123453
-0.00289071
-0.0169886
0.00745768
0.00953813
0.000509291
0.00340905
-0.00391833
0.00172687
-0.00309423
0.00136737
-0.00914302
0.00881062
0.000332983
-0.00330955
0.00508362
-0.00177375
-0.00197454
0.0024567
-0.000453807
0.00587416
-0.00712357
0.00124984
-0.00463936
0.00187222
0.00276727
0.0156167
-0.0040444
-0.0115877
0.00243514
-0.00250856
6.98713e-05
0.000392341
0.00548219
-0.00245146
-0.000709177
-0.00736982
-0.000936186
0.0109904
-0.002435
-0.00854404
0.0109932
0.00432756
0.000428231
-0.0047553
0.00279673
-0.000408445
0.00946925
-0.00788399
-0.00158396
-0.00204634
0.00367749
-0.00154684
0.00422982
0.00216707
0.000692326
-0.0028594
0.000173358
-0.00309265
0.00291945
0.00390786
-0.0037343
-0.0048801
0.00824827
-0.00336372
0.00301856
-0.0020391
0.0161717
-0.00308788
-0.0130055
0.00141592
-0.0047252
0.00733788
-0.000189016
-0.00714578
-0.0113306
0.00199143
0.00935572
-0.000211011
-0.00266804
-0.00201142
-0.00185122
0.00386264
-0.00234138
-0.00905255
-0.00759688
0.00851235
-0.000916637
0.0124794
-0.0142777
-0.00601689
0.00467455
0.00134252
-0.00371493
0.00175541
0.00195959
-0.00847872
-0.000663107
-0.0127036
0.011981
0.0010262
0.0128685
0.00275587
0.000822782
0.00292056
-0.00286565
4.94383e-05
-0.00259729
0.00209772
-0.000771751
-0.00202779
0.00279954
-0.00184274
-0.000485942
0.00232868
-0.0042423
-0.0127301
0.00321005
-0.0101712
0.00697249
0.004921
-0.0138011
0.00891446
0.0113503
-0.000208412
-0.0110956
0.000839636
0.0020661
-0.00290574
0.0106545
-0.0126523
0.00200286
-0.00222274
-0.00286321
0.00508608
0.00918248
0.000288339
-0.00498041
0.00458595
0.000394628
0.000978694
0.00749901
-0.00847068
-0.0118558
0.0132605
0.0122662
-0.00159914
-0.00837513
0.00288644
0.00549123
0.00125424
-0.00285738
0.00551126
-0.00784687
0.00233837
0.00852164
-0.00300718
0.0117042
2.49304e-05
-0.0116901
0.0192508
-0.0062272
-0.0128416
-0.00103658
-0.0122702
0.0110117
0.000842058
-0.0118256
0.0119713
-0.0104234
-0.00152967
-0.00237645
-0.00245144
0.00482842
-0.000128028
0.00477374
-0.00464482
0.0111666
-0.00621762
-0.0020746
0.000132333
-0.00788281
0.00296279
0.0049221
-0.00370199
0.00269664
0.00100537
0.00790545
0.0175566
-0.00536311
-0.0121477
0.00111936
0.00778327
-0.0088992
0.00110022
0.00157407
-0.00267429
-0.00142255
-0.00221773
0.00364037
-0.0127257
0.000481386
-0.00118553
0.00260157
0.00970419
0.00969975
-0.000471822
0.0033749
-0.0136929
0.0104234
0.00275813
-0.00361314
0.000855026
0.00042287
-0.0117306
0.00623904
0.00696891
0.0141148
-0.0132522
-0.000860337
0.00301978
-0.00436189
0.00134226
0.000352586
0.00794822
-0.0152461
-0.00034654
0.00112803
0.00426988
0.0110527
0.00248102
-0.0135193
-0.00870861
0.000826823
0.0104245
0.00131035
0.0133712
-0.00521113
0.000541876
-0.00272292
0.00218107
-0.00362078
0.0156083
-0.0118867
-0.00201819
-0.00262099
-0.00815017
0.00721414
0.000933256
-0.00160627
0.0143068
-0.0126143
0.0117726
-0.0130843
0.00167727
0.000389903
-0.0045428
0.00425822
0.00947077
0.00811681
0.00195217
-0.00304041
0.00108825
-0.00335306
0.00209895
0.00125413
-0.00189178
0.00534288
-0.00345135
0.0123382
-0.0122445
-0.00526939
-0.00026815
0.00548781
-0.00241727
-0.00307014
-0.00388618
0.000919264
0.00296693
0.0177224
-0.0132762
-0.00442388
0.00264784
0.00876012
-0.0113842
-0.00417008
-0.00184657
0.00251035
0.00180355
0.00738034
-0.0116016
0.00969206
5.7635e-05
0.0101521
-0.0101768
-0.000600103
-0.00351037
-0.00146972
-0.00113512
0.00286201
-0.00170243
-0.0016506
-0.00803421
0.000435652
0.0145725
-0.00308895
-0.011412
0.000535253
-0.00198292
0.00144766
0.00328447
-0.000546986
-0.00273748
-0.00968951
0.0094045
0.00028518
0.0119191
0.00200892
-0.0137899
0.000954428
-0.0114847
0.0105402
0.00245882
0.000291317
-0.00275014
-0.0130669
0.00557464
0.00788825
0.00694431
-0.0120859
0.00656564
-0.00699064
0.00047252
0.00563631
0.00831325
-0.0139408
0.00463594
0.00651274
-0.0110089
-0.00978854
0.00210327
0.00769626
-0.0127696
0.00992659
0.0028693
-0.0010632
0.00318344
-0.00212024
0.0150513
-0.00323998
-0.0118052
0.00884973
-0.00984674
0.00100809
-0.0132909
0.0117635
0.0030629
0.0103259
-0.0133744
-0.00440383
0.00325946
0.00114443
-0.0075272
-0.00279788
-0.000904099
0.010852
-0.0110313
0.000582599
0.00320017
0.000925261
0.00233702
0.0086633
-0.00988833
0.0112513
-0.00135017
0.0103715
0.010146
0.00321844
-0.00559432
-0.00696403
0.0101875
-0.00649392
0.00127646
0.00521759
0.00103338
0.00630687
-0.00922712
0.0140372
-0.00249118
-0.000180408
0.00267159
0.00266664
-0.00646976
0.00380209
0.0028112
-0.00768775
-0.017008
0.00404748
0.0130359
0.00148213
-0.00883194
0.00735511
0.00688304
1.696e-05
-0.00690068
-0.00545023
0.00561096
-0.000160287
-4.97719e-05
-0.00540025
-0.00198362
-0.00123387
0.00321749
-0.00491358
-0.00247444
0.00739098
0.000925467
-0.0107996
0.00464145
0.00777388
0.000626979
0.00265751
0.000904284
0.0128324
-0.0135374
-0.0017707
-0.0029131
0.00107036
-0.00394462
-0.0086987
-0.00583851
0.00577591
9.74585e-05
0.00232028
-0.0050576
0.0179363
-0.0157813
-0.00211499
0.000837647
0.00212217
0.00133972
0.00535284
-0.00668988
0.000484695
-0.00660397
0.00612167
0.0142266
-0.00646258
0.0091302
0.00931885
-0.000458495
-0.00773673
-0.000150583
0.00788917
0.0108302
-0.00936154
-0.00144425
0.0136654
0.00859338
-0.0049304
-0.00366019
0.0024282
0.000234012
-0.00266222
0.00485499
-0.0138852
-0.00288375
-0.00352414
0.00640732
-0.000685667
-0.00215391
-0.00765817
0.000656819
0.00709952
-0.00394142
0.00240056
0.002189
-0.00228213
0.0128802
-0.000247232
-0.0126413
-0.000707988
0.0037279
0.00302937
-0.00457894
0.00154969
-0.00909182
0.00758173
0.00171233
0.00265876
-0.00958156
0.00448395
-0.00193941
-0.00254429
-0.00159716
-0.00142432
0.00402784
-0.00404816
1.81221e-05
0.00137599
0.00134773
-0.00180771
8.10307e-05
0.00294843
-0.00298138
0.00352329
0.00956623
0.000655348
-0.0102148
0.00429638
-0.0023377
-0.00195854
0.00598885
0.000828225
-0.0068135
0.00036042
0.002477
-0.00208944
-0.000387566
0.00346643
0.0109133
-0.000772062
0.00204036
-0.00126829
-0.00266399
0.000295514
0.00248827
0.0072739
-0.000391657
-0.000731661
0.0019697
-0.00123804
0.00232619
-0.00515669
0.00283062
0.00245196
-0.00743925
0.00252857
-0.0116508
0.0117147
-0.00785523
0.00048947
-0.00126871
-0.0114718
0.00125635
0.0128008
-0.0139213
-0.00897476
0.0140999
-0.00505516
-0.00229186
-0.00211185
-0.00497422
0.0075291
0.0078359
-0.00512993
3.24053e-05
-0.000230899
0.000247393
0.0029959
0.00820219
0.000359623
-0.00215672
0.00252596
0.0140474
0.00283719
-0.00112119
-0.00171601
0.015558
-0.00414212
-0.0111053
-0.000953693
-0.0141519
0.0152198
-0.00143613
-0.000520512
0.00252227
0.0142024
-0.000395231
-0.00249221
0.00259648
-0.000104274
-0.00357245
0.00214998
0.00567143
-0.00320639
-0.00246507
-0.00164185
-0.00796971
0.00960976
0.00822499
-0.0071025
-0.00146563
0.00855476
-0.00762845
-0.000925027
0.00306389
-0.000305746
0.0125347
-5.85429e-05
-0.00241113
-0.00216759
0.0113091
-0.000753797
-0.010541
-0.0154261
0.00384599
0.000567673
7.67787e-05
-0.0137099
-0.000774063
0.00349155
0.00510421
-0.001178
-0.00199287
0.0125279
-0.0142935
0.00178089
0.00566778
0.000983688
-0.00665134
-0.0155307
-0.000539484
-0.0113149
0.0118641
-0.000723597
-0.00564214
0.00636539
0.000598025
-0.00666371
0.00606723
-0.0127408
0.0156497
0.0115586
8.96916e-05
-0.0116327
0.00889613
-0.0105401
0.00281263
0.00222478
-0.00503706
0.00212638
-3.68543e-05
-0.00208953
0.0124771
0.00407079
-0.000779375
0.0130514
-0.00184354
-0.00969642
0.0116502
0.00239318
-0.000441009
0.00177063
-0.00254269
0.00278292
-0.00347342
0.000690521
0.0124864
0.000522991
-0.0128025
-0.00537687
0.00597626
0.00687172
-0.0012037
-0.00378903
0.00217136
0.00161769
-0.00830423
0.00349391
0.00481388
0.00105409
0.0118541
-0.012734
-0.000583319
-0.0126469
0.0134106
0.0112563
-0.0129758
-0.00737232
-0.00047775
0.00208553
-0.0140748
0.0120319
-0.00254875
0.000337655
0.00221111
-0.00784488
0.0107674
-0.00292208
-0.0149758
0.0184215
-0.00322424
-0.00651388
0.00175681
0.00475665
0.00135359
0.00148359
0.00152134
0.00167889
-0.00203918
0.00321375
-0.00383619
0.00182477
0.00813731
0.00256198
-0.0106864
-0.00243908
0.000828828
0.00161025
0.00340173
-0.00198951
-0.00141219
0.00116351
-0.00314712
-0.000616784
-0.00970318
0.0103314
0.00557631
0.00554345
-0.00457807
0.00445091
-0.000860977
0.00302803
-0.00190497
-0.00135759
-0.00493386
0.00629029
-0.000777933
0.00224056
-0.00137165
0.000701798
0.00887048
0.00250175
0.0114153
-0.0137576
0.0148875
-0.0131164
-0.00148714
0.013891
-0.0117644
0.0127238
-0.0107558
-0.00177944
0.000209175
-0.000209175
0.000780005
-0.00332874
0.00518523
0.000106343
-0.00649609
0.00639224
0.0103248
-0.00924887
-0.0010652
-0.00159654
-0.00437945
0.00597678
-0.00971452
0.0109162
0.00747563
-0.00990061
-0.00248925
-7.65607e-05
0.00256581
0.00376445
-0.00138891
-0.00237555
0.00432462
0.000674118
-0.00499862
-0.00100645
-0.00729328
-0.0158781
0.00114617
-0.00952621
0.00892001
-0.00189566
-0.0145314
-0.00286654
-0.00171517
0.00458194
-0.00417425
0.00653757
-0.0016181
-0.0019976
0.00351903
0.00375463
-0.00575158
0.00199731
0.00523326
-0.00134364
0.000462206
0.00232072
0.00592347
-0.00664744
0.00723418
-0.000719213
-0.00637901
-0.0165576
0.0155466
0.00109189
0.00505214
-0.000277611
-0.00482808
0.00196176
0.0126444
0.00241028
0.00195516
0.00144658
0.000680868
0.00669174
0.00828286
-0.00621138
-0.00198474
-0.0025728
0.00184114
-0.00279249
-0.00780444
0.00654098
0.013586
0.00702812
0.000183775
-0.010667
0.00283999
-0.013071
0.00953667
-0.00355504
0.00563862
-0.0020837
0.00381158
-0.00330229
-0.00209997
0.00894141
-0.00683102
-0.00783609
-0.00185429
-0.0115848
0.00568532
0.00612507
-0.0144794
0.000384734
0.0141925
0.00186205
0.00272411
-0.00726523
0.00707927
-0.0152981
0.0156209
-2.81239e-05
0.00700854
-0.00693525
-5.64022e-05
0.00515501
0.0044975
-0.00612575
-9.94342e-05
0.0062248
0.0078157
-0.00990432
-0.000739502
0.00231358
0.00696614
-0.000323598
0.015243
-0.00346675
-0.00234625
0.00422496
-0.00187865
-0.00548265
-0.00586634
-0.000289839
0.00271804
-0.00150207
-0.00238409
-0.0100871
0.0101758
0.0140015
-0.000654469
-0.0133237
0.00417649
-0.0130843
-0.00825527
0.00528489
-0.0148404
-0.00451718
0.00266595
-0.000882835
0.00100688
0.00347724
-0.0087762
-0.0134907
0.0137117
-0.000182247
-0.00688146
0.0078667
-0.00673364
0.00799996
-0.00104017
0.00310627
-0.0010934
-0.00829843
0.00230828
0.00077025
0.00893058
0.000108147
-0.00368042
-0.00165091
-0.0115378
0.0132069
0.0146032
-0.00353965
0.0131026
-0.00523989
0.00181295
-0.015825
0.00381735
0.0121353
0.0135325
0.000648623
-0.0140726
0.0113789
3.66058e-06
0.00635143
-0.00625133
4.30994e-05
0.00142276
0.0103123
-0.0117182
-0.0113137
0.0100709
-0.00445203
0.00579409
0.00166004
-0.00160006
0.000781281
0.0031671
-0.000708281
-0.000435434
-0.0083643
0.00880281
0.00435885
-0.000603993
0.00267294
-0.000195941
0.0133016
-0.000645138
-0.00587023
-0.00231061
-0.00537792
0.0135085
-0.011366
-0.00580322
0.00745126
-0.0010622
0.0149592
-0.0113176
-0.00359394
-0.0023932
0.00620135
-0.00380795
-0.00524339
0.00607469
0.00137485
-0.00951371
0.00059639
0.00889838
-0.000786412
-0.00612573
0.00364998
-0.00532666
0.00167657
0.00279674
0.00269146
-0.0018426
-0.00281907
0.00407427
0.00638956
0.00772598
-0.00113859
0.00742323
-0.00628461
0.00239355
-0.00122297
0.00426051
-0.00193427
-0.00237601
-0.0049449
0.00732352
-0.000426386
-0.010721
0.0111754
0.00331314
-0.00619734
-0.00454031
0.00252229
-0.00270999
-0.00333755
0.00604875
-0.0105594
0.0145725
-0.00398956
0.0184272
-0.00625123
-0.0120092
0.00211694
-0.00318013
-0.0158481
0.0151128
0.000818602
0.00304439
-0.00546127
-0.00538177
0.00163483
0.00374741
-0.0128879
-0.00210943
0.00152987
-0.0045112
0.00892057
-0.00984506
0.000936375
0.00204127
0.00105316
-0.00309444
-0.0146365
0.000261784
-0.00150862
-0.00147195
0.00298058
-0.00240274
0.00459558
-0.00219226
-0.0117322
0.000986423
0.00252528
-0.00446443
0.0144151
0.00184881
-0.00177308
-0.00201592
-0.00168211
0.0105321
-0.00882883
0.0146594
-0.0137088
-0.000857709
2.5425e-05
-0.00455086
0.0147522
-0.0137755
0.00267271
0.0112025
-0.0142216
-0.00528308
0.0143369
-0.00888854
0.00170812
0.00881897
-0.0105256
0.0137908
-0.01305
0.0123614
-0.00817406
0.00497917
0.00319667
-0.0160042
0.0063659
0.0096576
0.0091274
-0.00322483
-0.00425962
0.00766194
0.0056047
-0.00860992
-0.00051698
-0.00197227
0.00375415
-0.00493513
0.001181
0.00742552
-0.00979804
-0.00541617
0.000191427
-0.0114753
0.00043886
-0.0131382
0.012731
0.000872782
-0.00737026
0.0127795
-0.00135169
-0.00212172
-0.0140108
0.00110788
0.000867268
-0.00152555
-0.00142727
-0.000928729
0.002356
0.00212458
-0.00362118
-0.00791583
0.000181742
0.00135511
-0.000108176
-0.000913631
0.00433509
-0.0154945
0.0112257
0.00418179
-0.0041614
4.42995e-05
0.0030913
0.00331547
0.0125681
-2.20711e-05
0.00687576
-0.00880775
0.00193088
0.000478242
0.010193
-0.0106315
1.97862e-05
-0.00251097
-8.56221e-05
-0.00242904
-0.00235833
0.00118863
-0.000484619
0.00178085
-0.000407196
0.00483037
-0.00201742
-0.00319706
-0.0096064
0.012867
0.00342932
0.00583029
-0.0092569
0.00239884
-0.00216483
0.00883366
-0.0104956
0.00211806
-0.00454403
0.0024262
0.0152624
-0.0149774
-0.000263803
-0.000397792
0.000550842
2.16382e-05
-0.0138499
-0.00265168
-0.00369492
0.0058465
-0.00215097
0.000139007
0.00304443
0.00962994
-0.000915002
-0.0113933
0.00597897
-0.000723943
0.0031196
0.0014495
-0.00637743
0.00190933
-0.00341794
-0.00154919
0.00842284
0.00208676
-0.00268971
0.0011082
-0.00570504
-0.00141808
0.00127985
0.000298073
-0.00150427
-0.00718177
0.0115765
-0.000125769
-0.0128981
0.0131507
0.00288117
-0.00733056
0.00771654
0.000318439
-0.00763777
-0.00440603
-0.0020644
0.0120634
-0.00620033
0.00190208
0.0115569
-0.0134212
-0.00250981
-0.00599524
0.00851185
-0.00507782
0.004913
0.000165009
0.00214717
0.00373731
-0.00588349
-0.0151532
0.00111059
0.00120726
-0.0018341
0.00538971
-0.00259267
0.000872356
-0.0140445
0.0131778
-0.013778
0.00058226
-0.00133489
0.00566848
0.00667406
0.0026588
0.00340808
0.0019818
-0.0101816
0.0111215
-0.0022862
0.00440446
-0.0057626
0.000464881
0.00529891
-0.00628628
-0.00158682
0.00787324
0.00905587
-0.00793933
-0.00111455
-0.000895981
-0.00167682
0.0112293
-0.000190239
-0.00194744
0.00503831
0.00277251
-0.00171963
-0.00105288
0.00301293
0.00181767
0.00268372
2.53902e-05
-0.00270905
-0.00172724
-0.00365385
0.00526952
-0.0138008
0.00667979
0.00250488
-0.000378496
-0.0099242
0.00742183
0.00193861
-0.000782792
0.00379591
0.00161492
-0.000290117
0.00200462
-0.00735766
-0.000554866
-0.00547605
0.00511113
0.000365867
0.00412099
0.00267816
-0.00679991
-0.000992072
0.00234566
0.00194989
-0.00339595
0.00144607
0.0043457
-0.0103319
-0.00565394
0.000178696
-0.00052108
-0.00529581
-0.00453933
0.00131148
0.00322796
-0.00904857
-0.0122514
0.009115
0.00216518
0.0117701
0.0135662
-0.00174427
-0.0117777
0.000277088
-0.00753837
0.00213078
-0.00336464
-0.00444652
0.00210899
-0.0027743
0.000951018
0.00182329
0.0112835
-0.0104148
-0.00733064
0.00829221
-0.00112615
0.0031674
-0.00239555
0.0042354
-0.00183986
-0.0116183
0.011673
-2.97512e-05
0.0070162
-4.86962e-05
-0.0069636
-0.00672458
0.00979717
-0.00245884
1.97633e-05
0.00415182
-0.00770756
-0.0102511
0.00407912
0.00159229
0.00210862
-0.00445478
-0.000702672
0.00265258
-0.00286891
-0.000240772
-0.00951834
-0.00417362
0.0020799
0.00209386
-0.00163088
-0.00814492
-0.00488033
0.00137022
0.00816049
-0.00472937
-0.00591604
0.00432037
0.00250133
0.00744526
-0.00993981
0.000853203
0.0167732
-0.0120771
-0.0046065
0.000376177
-0.0136362
0.00828124
-0.00177554
-0.00650248
0.000144902
0.000861463
0.00464898
0.0036351
-0.00633389
0.00417674
0.00215844
-0.00115772
0.00505564
-0.00389712
0.000609966
0.000140098
-0.000666253
0.000359844
0.00283488
-0.00307857
0.0145206
-0.00246661
-0.0120164
-0.0125642
0.000634761
0.0119988
0.00267447
0.000767976
0.0115143
0.0064559
-0.00635181
0.00059038
-0.00615745
0.00376458
0.000301923
-0.000976565
0.000243168
-0.00563714
0.00392225
0.000103495
0.0117232
-0.0115535
0.00184981
0.000922714
-0.000243433
0.00819684
-0.00794885
-0.00614738
0.00623186
-8.3995e-05
0.000745803
-0.00517636
0.00277425
-0.0123381
0.00378378
0.00894571
0.0110566
-0.00759316
0.00108505
-0.00678973
0.00558201
-0.0147404
-0.000660774
0.00846406
-0.00736761
-0.00109258
-0.000830872
-0.00284784
0.00367868
-0.00515555
0.0117754
0.00674973
-0.0048065
0.00332625
0.0014804
0.00846664
0.002383
0.00163155
-0.00169453
-0.00311181
-0.00046134
0.0141034
-0.007339
0.00501949
0.00811792
-0.0112156
0.00818297
-0.0146264
0.00103093
-0.00427538
-5.36996e-05
0.0043292
-0.00183035
0.00184147
-0.00315062
0.00130918
0.0110716
-0.0127055
-0.000307014
0.0118765
-0.0148477
0.00132798
0.0136986
-0.0125421
0.00241389
0.0101587
-0.0115423
-0.00444287
0.0111075
-0.00876042
-0.0017781
-0.00143778
0.00321586
0.00851558
-0.00875403
0.00576707
-0.00191195
-0.00262819
0.00890891
-0.00729256
0.00100656
-0.0136246
-0.00101558
-0.00275731
0.00120497
0.00155234
-0.000741536
-0.0108701
-0.000214153
-0.00490291
0.00556646
0.00311505
-0.00427215
0.00225515
-0.00196384
0.00395226
0.0119297
0.000455717
0.0139272
-0.00124022
-0.0041243
-0.0078469
0.00899561
-0.00476264
-0.000189603
0.00495291
-0.00022086
-0.0120602
0.0123132
-0.00330511
0.00618884
0.000517787
-0.0121097
-0.0142715
0.000741908
0.00559692
-0.00344881
0.00261947
0.000692871
-0.00331233
0.00667164
-0.00591371
-0.000756035
-0.0017775
-0.0117997
0.00991231
-0.0120351
0.00230201
-0.00414325
0.00638745
-0.00224355
0.00831098
-0.00491626
-0.00126581
0.00618296
-0.0028599
0.0157218
-0.0126136
0.000616217
0.014687
0.00224338
-0.00272932
-0.00115975
0.00155962
0.00669148
-0.00021494
0.000872759
-0.00582657
0.0049537
-0.00137954
0.00068809
-0.00303746
-0.00802535
0.0111221
-0.00204824
-0.0005963
0.00264456
-0.00115866
0.00275073
-0.000230899
0.00221572
-0.00307671
-0.00350014
0.00762011
0.00495143
-0.000623391
-0.00597845
0.00696228
0.011474
-0.01093
-0.000245193
0.00286467
-0.0019268
-0.000596969
0.0141512
-0.000637565
-0.013489
0.0113996
-0.01436
0.00775465
-0.00877449
0.00102203
0.00241826
-0.00224164
-0.00017662
0.000283734
-0.00779563
-0.0126882
0.0124334
-0.00770851
0.0133497
0.0153125
0.0118443
0.00836734
0.00846916
-0.000437059
0.00312082
0.00862734
-0.000871092
0.0116909
-0.0102508
0.0103736
-0.0100114
-0.000162597
0.00204837
-0.0029681
0.00585641
-0.0117555
0.00943274
-0.00609901
8.68288e-06
-0.0139318
-0.000730258
-0.00464395
0.0140474
-0.00938775
0.00245007
-0.00273991
0.00363046
0.00212146
-0.0057523
-0.0116469
-0.00179662
-0.000932811
0.000348257
0.00550043
-0.00737295
0.00988136
-0.00422427
0.00211452
0.00210985
0.00285017
-0.000710224
-0.00213994
0.0177178
-0.00240182
-0.0151827
0.00586923
0.00190166
-0.00287081
0.000969154
-0.00507017
0.00655639
0.00547277
-0.0052385
0.00393789
-0.00694313
0.00253673
-0.000546858
5.12536e-06
0.000581171
-0.00624727
0.0061831
0.00031237
0.000597829
0.00316662
-0.000410503
-0.00359534
-0.000105863
-0.000530182
0.0015249
-0.000261374
-0.00924998
0.00970666
-0.00842469
-0.00127203
-0.000474308
-0.0120117
-0.0092103
0.00987221
0.00507533
-0.00643407
0.00213145
0.00192643
-0.00405788
0.00758109
0.00820669
-0.00171694
-0.0139641
-0.000899151
0.00112093
-0.0153318
0.00169786
-0.00829135
-0.00120312
0.00954734
0.0119782
-0.011895
6.64248e-06
0.00700253
0.00941168
0.0043636
-0.00821777
0.00385641
0.00584985
-0.00152526
0.000537674
-0.00790405
0.00571336
0.00275358
0.00646637
0.0112399
-0.00250233
0.00149369
0.00100864
-0.00242007
-0.00403123
0.00645123
-0.0131866
-0.0011773
-0.00787463
0.00344494
0.0044299
-0.00118084
0.00243508
-0.00215697
0.0122101
-0.000158842
-0.000757843
-0.0128468
0.0137222
-0.00432899
0.00582727
-0.00149753
0.00690472
-0.00253889
0.00207842
0.0110472
0.00888591
0.0022607
-0.0111372
0.0136094
-0.0103572
-0.00286187
0.00979487
0.00132631
-0.000577654
-0.00233871
-0.00302083
0.00536043
-0.0133897
0.00515593
-0.00380395
0.00423261
0.0123736
-0.0117759
-0.000485655
0.000328735
-0.00571942
0.00539163
0.0136322
0.00097183
-0.0142946
-0.0129021
0.00143093
-0.000749978
-0.0123717
0.0131375
-0.00040088
-0.00976871
0.000190464
0.00345933
-0.00277748
0.00135021
0.00815845
-0.00785746
-0.00479894
-0.00307643
-0.0094609
0.000635595
-0.0151244
-0.00280968
0.0019137
0.000477088
-0.000948608
-0.00702445
0.00797544
0.0114238
0.002605
-0.0139303
0.00875837
0.00187024
-0.00277639
0.000906149
0.0127471
-0.013391
0.00124753
0.0135336
-0.000513654
0.010315
-0.00105321
-0.00924411
0.0057892
0.00823264
-0.0139488
-0.00121184
-0.00100392
0.00219514
0.0122075
-0.00204852
-0.00249526
-0.00330873
0.00126052
0.00273631
-0.000688843
-0.000519509
0.00427365
-0.00118784
-0.00131448
-0.000439171
-0.00416237
0.00606949
-0.00190716
0.00338618
-0.00163069
0.00040298
-0.000396011
2.37528e-05
-0.0121341
0.0030008
-0.0119631
0.00928911
-0.00227025
-0.00364475
0.00103993
-0.013664
-0.00136041
-0.00179019
0.00620824
-0.00734685
0.00601454
-0.000772818
-0.00524053
0.0158599
-0.0134788
-0.00233145
-0.00205338
0.0042394
-0.00218588
-0.00184522
0.00228997
-0.000444749
0.000868348
-0.00293758
0.00206923
0.00768454
-0.0090983
0.00141611
-0.00955823
0.00890792
0.000659377
-0.000903767
0.00339675
-0.00149765
-0.00211546
0.0140899
-0.00186802
-0.0120014
-0.000707645
0.00285094
-0.0021433
0.00227519
0.00328049
0.00463041
0.000424283
-0.00505447
-0.000196819
-0.00296866
0.00316559
0.00295047
-0.00418486
-0.0117992
0.00246505
0.0139394
-0.0111535
-0.00276477
-0.00048537
0.00860739
0.00229229
-0.0093984
0.00710958
-0.00148417
-0.00161004
-0.00173658
-0.00130383
0.00329009
0.0081522
-0.0111396
-0.00230504
6.91701e-05
0.00223587
-0.00142266
-0.010308
0.00583962
-0.00196434
0.00409577
0.00337927
-0.00421017
-0.00150279
0.00488193
-0.0121933
0.0117764
0.00724624
0.00841881
0.00117817
-0.00958614
-0.0113334
0.0111367
0.00341603
-0.00133375
-0.000452505
0.0061876
-0.00565696
0.00230567
0.00119057
-0.00349616
-0.00226683
0.000335416
0.00274157
0.000278894
-0.0122969
0.00663865
-0.00483296
-0.00180444
9.02766e-05
0.00389095
-0.00616005
-1.12265e-05
0.00959331
-0.00954889
-0.00332939
0.00162698
0.00258372
-0.00387356
0.00128987
0.00206575
-0.00485051
0.00278492
-0.00843491
-0.00125123
-0.000130057
0.00146835
-0.0103137
0.0103383
-0.00120195
4.15174e-05
0.0151591
-0.0126633
-0.00215837
-0.00563961
0.000724401
-0.00700753
0.00956801
-0.0127447
0.0136229
0.000587227
0.0089834
-0.0095586
0.00202029
-0.00273051
-0.0109227
0.00962965
0.00130122
0.00118553
-0.0122473
0.0110623
0.0012017
-0.00359725
-0.0160467
0.0157466
-0.00157866
0.000363859
0.0114476
-0.000922916
-0.011496
-0.00361786
-0.00748029
0.0111293
-0.0020952
0.00210223
-7.02561e-06
0.00559972
0.000407206
-0.00234436
3.93181e-05
0.00462804
-0.00121897
-0.000509912
-0.0126606
0.00106003
0.0100035
-0.00137564
-0.00861979
-7.19533e-05
-0.000760076
0.0123544
-0.0113451
0.014265
0.00142415
-0.0155474
0.00187838
0.00161935
-0.00349766
-0.00851827
0.000892148
-0.0105764
0.010383
0.00766891
-0.00641717
0.00521374
-0.00168807
-0.00285115
-0.0157834
0.0115546
0.00317025
-0.0060332
-0.0135894
0.0105537
-0.00700367
0.00313111
-0.00351009
0.000378984
-0.00589292
0.000159567
0.00573449
0.00601346
-0.011442
0.0136501
0.0132333
-0.0129895
-0.000128567
0.00201467
-0.00275417
0.0013902
0.00277973
-0.00416995
-0.00329386
-0.00234287
-0.00134858
0.00217741
0.0104892
0.000119621
0.00247477
0.0111293
0.00313322
0.0111931
0.000152199
0.00209118
0.000938161
-0.0101419
-0.00428053
-0.00200326
0.00628608
-0.000723599
0.00961772
0.00316866
-0.0149074
0.0118255
0.0112797
-0.00228846
0.00307996
6.12173e-05
-0.00344407
-0.00929004
-0.00517859
0.00550825
-0.00237065
-0.0132875
0.00203921
-0.000960636
0.00306232
0.00126316
0.00787797
0.00804847
0.00967664
0.00378698
-0.00311279
0.0014225
0.00131381
-0.00120548
-0.00768887
-0.00274034
0.00120197
0.00153838
-0.0113503
-0.00103365
0.0125889
-0.00868495
0.00133024
0.00967716
-0.0100782
-0.00316562
-0.0017144
-0.00172827
0.0146356
0.00105847
0.00751263
0.00061961
-0.00813424
0.00598984
0.00113467
0.00622707
-0.00736164
0.00168678
-0.00671553
0.00400693
-0.00214244
0.00446296
0.00409128
-0.00352087
-0.000570303
0.00295936
-0.0134936
0.00030919
-0.00396688
0.00365769
0.00245507
-0.00263548
0.0109168
-0.00981236
-0.00108583
-0.00124438
-0.0031173
-0.00534409
-0.000988366
-0.01357
0.0158649
-0.0021546
-0.00995178
0.0092259
0.00727888
-0.000447135
0.00140662
-0.0125298
0.00812525
0.0114429
0.00758066
0.0116473
-0.0111806
-0.0012983
-0.0135564
0.0149779
-0.0150969
0.0117342
0.0033805
-0.012211
-0.00322807
0.00144996
-0.00183219
0.0107265
-0.010785
-0.000184071
0.0109977
-0.0046807
-0.0146488
0.00277842
0.0120434
-0.0139066
0.0135681
0.000330534
0.00773011
0.000644979
-0.0083706
0.00275385
-0.00472476
0.00197108
0.000595263
-0.0048705
-0.00642689
0.000182243
-0.00557783
0.00234094
-0.00187521
0.0020729
-0.00317779
0.00110491
0.00625606
0.00349212
-0.00974072
-0.0016529
-0.00116801
0.00282092
0.0074198
-0.00362129
-0.00379742
0.000595173
0.00641098
-0.00187357
0.0104257
-0.0116143
0.00121968
0.00156638
0.00164802
-0.00321439
0.00260084
-0.000730597
0.00710975
-0.00212914
-0.00305974
-0.0149101
0.00119656
0.0132003
-0.0137404
0.00058081
0.0034404
-0.00651892
-0.00155022
0.002356
-0.000805776
0.00148031
0.00861471
-0.0100802
-0.0133456
-0.000833088
0.000746178
0.00364345
-0.00174181
0.00540023
-0.00332624
-0.00207334
-0.0111563
0.000402272
0.00794655
-0.00442393
0.00529653
-0.00187339
0.00778092
-0.00590061
0.00947551
0.00145905
0.00225845
-0.0029661
0.00175547
-0.0050489
-0.00512332
0.0166717
-0.0115075
-0.00458311
0.00308027
0.00480381
0.000308259
0.00706918
-0.00241221
-0.00465686
0.00128858
0.0028028
-0.00195563
0.0109976
-0.000277633
-5.54176e-05
0.0134181
-0.00257325
0.00594754
-0.00421445
0.00312688
-0.00224336
-0.000883512
-0.00957123
0.00450435
-0.00103949
0.00265698
0.000309339
-0.00438064
0.00407212
-0.000843793
-0.00895343
0.00998204
-0.000494311
-0.0019979
0.0017922
0.000166956
-0.00195916
0.0111974
-0.000166778
0.00226574
0.00357176
-0.00138946
-0.015699
0.00228376
0.0124065
-0.000344876
-0.00202761
0.00417801
-0.00215048
0.00322776
-0.000644007
-1.69921e-05
0.00599739
0.0014261
-0.00218286
0.0137583
-0.00294167
-0.00190862
-0.00030004
2.55415e-05
-0.00255134
0.00988194
-0.00732231
-0.0104159
-0.00220364
0.0105602
-0.00834955
0.00127684
-0.0145277
-0.00366858
-0.00215541
0.00582465
0.00177852
0.0099256
0.00242352
0.0046459
-0.00306744
0.0093305
-0.003633
0.00349957
0.000255306
-0.00531854
0.00120858
0.00411053
-0.000703626
0.0103879
-0.00223807
-0.00134344
0.00319227
-0.00128292
0.00590825
0.00373176
0.0104554
-0.0141114
-0.0151438
0.0139698
-0.00618947
0.0099762
-0.0151521
0.00486598
0.0102991
-0.00235557
0.000501005
0.00185458
0.00342107
-0.00154263
-0.00462133
-0.000133351
0.00719471
0.00320541
0.0123424
0.00265001
-0.00404685
0.00139693
-0.0060872
0.00194458
0.00324069
-0.0137816
-0.0033024
0.00178826
0.00151416
0.00182329
0.0105149
-0.0121115
-0.00561545
-0.000730395
0.00634743
0.00205805
0.00106884
-0.00164595
-0.0124256
0.0142939
0.000492225
-0.00233744
0.00285292
-0.00468996
-0.000627767
0.00128515
-0.00246599
0.00214777
-0.00581551
0.010819
0.00179065
-0.0125567
-0.00973478
0.0115269
0.00172791
-0.00307648
-0.00115912
0.0032899
0.00231923