/*--------------------------------*- C++ -*----------------------------------*\
| =========                 |                                                 |
| \\      /  F ield         | OpenFOAM: The Open Source CFD Toolbox           |
|  \\    /   O peration     | Version:  v2012                                 |
|   \\  /    A nd           | Website:  www.openfoam.com                      |
|    \\/     M anipulation  |                                                 |
\*---------------------------------------------------------------------------*/
FoamFile
{
    version     2.0;
    format      ascii;
    class       volScalarField;
    location    "200";
    object      p;
}
// * * * * * * * * * * * * * * * * * * * * * * * * * * * * * * * * * * * * * //

dimensions      [0 2 -2 0 0 0 0];


internalField   nonuniform List<scalar> 
9793
(
0.0506103
-0.301167
0.0262165
-0.0820002
0.0206216
-0.283315
-0.193192
-0.612484
-0.00507373
-0.0453373
0.0173745
0.017372
0.0143195
-0.101918
-0.000943326
-0.0227553
-0.141796
0.0236122
-0.540549
0.00147674
-0.00177322
0.0203292
-0.0296445
-0.604886
-0.098873
0.0792414
0.0174769
0.0145509
0.00154755
-0.21285
-0.626715
-0.379176
0.0230503
0.0206467
0.00905072
-0.0523523
-0.0224384
0.0924825
-0.271942
-0.0721098
-0.19787
-0.549156
-0.562344
0.0144829
0.0274914
0.0240301
-0.612365
0.0188075
-0.00578653
0.0239955
-0.0503512
0.00887265
-0.0869032
0.0188479
0.0827578
-0.0860005
0.0137605
-0.083036
-0.00586843
0.0189822
0.103011
0.0658999
0.0247268
-0.040997
0.0111201
-0.00402323
-0.590907
-0.0351032
-0.0216844
-0.65571
0.037125
0.342722
-0.607805
-0.0436901
-0.528788
0.0170034
0.1684
-0.566829
0.0247906
0.0198754
0.179717
-0.561589
-0.131803
0.0232203
-0.0228024
-0.355297
0.0200309
-0.0241213
-0.254387
0.0883122
-0.0321975
-0.458575
-0.461675
-0.107645
-0.549946
0.0213302
-0.562008
-0.142712
-0.0324924
0.0205006
-0.0473716
-0.0837846
-0.235095
0.0270569
-0.211814
-0.582658
-0.0738229
0.0109495
0.0249217
0.0204879
0.0150206
-0.0233153
0.502497
-0.669361
0.0363507
0.0204275
-0.0137022
0.0235456
-0.10502
0.0245563
-0.136694
-0.0236929
-0.549975
-0.0818635
-0.0236082
0.0244432
-0.161571
-0.621223
0.0664362
0.0764524
-0.0283254
0.00986436
0.0489314
-0.0285191
-0.0499122
-0.300396
-0.32225
-0.0146665
0.0168822
-0.152365
-0.574821
-0.0525837
0.030669
-0.0349204
-0.624085
-0.354366
0.0245085
-0.594776
0.0101643
0.0246113
0.0194518
-0.747143
-0.029359
0.0176956
0.032701
-0.480662
-0.148469
0.0245598
-0.396051
0.0322121
-0.0300616
-0.0300585
-0.00167856
0.216876
-0.0127717
-0.541556
-0.253826
-0.0154415
0.0107551
0.0176175
0.0314867
-0.721893
-0.685756
-0.233262
0.0140604
-0.262462
-0.138231
0.185419
0.0249743
-0.0343133
-0.173651
-0.60226
-0.0163837
0.0242787
0.0231568
0.0106666
-0.5026
-0.612786
-0.669107
-0.211849
-0.00194841
-0.0723307
0.415702
0.0918017
-0.00621504
0.0452007
0.503003
0.00277991
0.0237657
0.0201816
0.0392266
-0.00283259
-0.0504704
-0.0323325
-0.288317
0.0355297
-0.0599515
-0.0158715
0.0421227
-0.0298725
-0.144993
-0.582985
0.00379856
-0.645582
0.0273317
-0.0146792
-0.00100077
-0.298837
0.0203856
0.228793
-0.151212
-0.00290436
0.361049
-0.353543
-0.0998855
0.0217499
-0.0917879
-0.48933
0.212354
0.212359
-0.178081
0.0344523
-0.0156009
-0.0411493
0.418717
-0.00311076
-0.0433131
-0.673781
0.00294189
0.0205567
-0.53284
0.0284586
0.0151405
-0.0579043
-0.0808
-0.00254781
-0.0355816
-0.064008
0.0247989
-0.0344306
0.0251235
-0.0981161
-0.281134
-0.00242631
-0.279398
0.0186867
0.0175879
0.00480873
-0.10207
0.0265821
-0.494794
-0.580093
0.0148804
0.0201239
-0.466029
0.00475232
0.0195878
0.00409119
-0.603273
0.236598
0.0686946
-0.0968713
-0.0982358
-0.249912
-0.0461609
-0.0165073
-0.739359
0.0183589
-0.51443
-0.290924
-0.174887
-0.178772
0.0246153
-0.0279592
-0.125375
-0.0312435
-0.00625168
-0.0160715
-0.0340265
0.0818412
0.0201382
0.0137758
0.00361488
0.00189334
-0.00234666
-0.0174639
0.0111034
0.000536871
0.00193322
0.0138722
-0.380823
-0.369646
0.273248
0.0635247
-0.040434
0.00190728
-0.0329406
-0.733596
0.0268822
-0.586064
-0.044898
0.0276581
-0.26503
-0.0199412
0.0227287
-0.102594
-0.373315
0.0380063
0.161979
-0.000318228
0.0426901
-0.547495
0.0709381
0.0206513
0.0244886
0.0613673
-0.220822
0.485806
0.0263884
0.0109088
-0.00573735
-0.71617
-0.608461
-0.702616
-0.00296685
0.0662798
0.166041
-0.215345
-0.109456
-0.00279354
-0.00404078
-0.00539594
-0.117186
0.0228701
-0.568584
0.0217945
0.00814523
-0.199632
-0.0085887
-0.643224
0.0019071
-0.0626339
0.0191654
0.208832
-0.573456
-0.19603
0.0126076
-0.0758004
-0.333028
-0.00611436
-0.0329313
0.104812
0.0150171
0.0728953
-0.00509332
0.0104924
0.0235973
0.0171414
0.0136048
-0.567775
0.0176075
-0.170839
-0.0690365
-0.0966728
-0.00261653
0.0207937
-0.160156
0.450801
-0.234937
-0.106395
0.00834341
0.0101139
0.0257142
-0.400891
0.00320583
-0.635726
-0.0993071
-0.185045
-0.686435
-0.52173
0.0147911
0.0205774
-0.335364
-0.407785
0.0353906
-0.584914
0.0148935
0.0199281
-0.0577188
0.00377963
-0.0955606
-0.0032391
-0.265894
0.0216228
-0.0127426
-0.161425
0.327681
-0.0119045
0.0915587
0.0145922
0.0150571
-0.551466
-0.14137
-0.00173642
0.0209476
0.0908704
0.162611
-0.0121361
-0.62223
0.0203776
0.0209983
0.146107
0.0144539
-0.265326
0.158894
0.0233381
0.0222552
-0.0156579
0.0147793
-0.00533348
-0.0582529
0.227352
-0.475987
0.119092
-0.0170254
-0.0855755
0.0890654
-0.0890257
0.099553
0.0207128
-0.0359749
-0.351653
0.034835
0.033029
0.0385128
0.00335567
0.0189127
0.0020989
0.0237732
0.0148012
0.0368127
-0.0320881
-0.0461265
0.00238577
0.494181
0.0802307
-0.128458
-0.065589
-0.0065314
-0.129054
-0.184791
-0.00642041
0.00326554
0.0297008
-0.00732467
-0.109424
0.00317521
0.0218181
0.0200443
0.254353
-0.143124
-0.57322
0.0112902
0.0326635
0.134354
-0.599666
-0.167908
0.0706734
-0.0234462
-0.289448
-0.53311
-0.0450653
0.0349727
0.0090183
-0.299425
0.0229267
-0.164737
-0.206799
-0.00142147
0.220067
-0.0533998
-0.0350794
0.0148342
-0.514746
-0.360261
-0.0230744
-0.461915
0.0218856
-0.193772
0.0220189
0.0194731
0.0174271
0.0237463
-0.550428
0.0213085
-0.00552787
0.0605025
-0.00302633
0.00929474
-0.0936146
0.0239488
-0.044975
0.0134291
0.0135307
-0.172734
0.301591
0.0686153
-0.242499
-0.0308422
0.0271116
0.0264237
-0.00567997
-0.701854
-0.00536205
0.0123089
-0.61099
-0.538887
0.0120551
0.0142628
0.0201784
-0.0128007
0.0185785
-0.312924
0.039636
-0.151995
-0.0237719
0.391073
0.0197201
-0.598349
0.00622678
-0.25208
0.024067
0.0115646
-0.27393
0.0218816
-0.573196
0.0267225
0.0132817
-0.00147131
-0.180624
-0.268546
0.0306386
-0.0571288
-0.0051897
-0.343075
0.00247039
-0.104314
-0.535032
0.0943632
0.011975
0.155555
0.0140694
-0.0137192
-0.00551738
-0.0403878
0.0115732
-0.294655
0.0137848
0.0199907
-0.033244
0.156684
-0.124564
0.00116345
-0.589569
0.0200432
-0.17339
0.0307293
-0.0149434
0.022479
0.0139257
0.0201819
-0.178038
-0.0159434
-0.581442
-0.25144
0.15035
0.0684797
-0.0909863
-0.0307685
-0.295244
-0.578828
-0.26492
-0.52756
-0.174118
-0.194294
-0.0138353
0.493326
-0.0306779
-0.01383
-0.296279
0.0141412
-0.0855654
0.010664
-0.179294
0.115827
0.0181975
-0.635206
-0.0347608
-0.159821
0.0204418
-0.277228
0.0654539
0.0239035
0.0253835
-0.0127076
-0.132411
-0.187697
-0.0621351
-0.644557
-0.0276002
0.0452742
-0.0211358
0.427428
-0.0226314
-0.111675
0.0430782
0.120037
-0.135707
0.0233434
0.269605
0.1505
-0.642265
0.0110382
0.0739101
-0.616755
-0.0472077
-0.507247
0.013668
-0.046072
0.0472542
-0.0324463
-0.00254611
0.0321473
0.0929842
0.0191838
0.108822
-0.263002
-0.155429
0.0136848
0.01471
-0.0164577
-0.00828389
0.00886636
0.028995
-0.238559
0.021574
-0.0796771
0.014958
-0.360653
0.0145669
-0.582706
-0.0506042
0.187124
0.160001
-0.351865
0.00688807
0.0194701
0.143906
0.0236277
-0.0116178
-0.136502
0.00835463
-0.00317346
0.0836384
-0.230476
-0.0363978
-0.554277
-0.261201
0.00156958
-0.151646
-0.0236162
-0.000762864
-0.00107747
0.299787
-0.203634
-0.573693
0.035583
0.0247235
0.00010397
-0.0131049
0.0215006
0.0293467
0.308166
-0.0451815
0.0148955
-0.515502
-0.0523111
0.142575
-0.0112266
-0.641452
-0.026169
0.0105592
-0.169376
0.508368
-0.00211668
0.0237752
0.0252787
-0.0217238
0.00680924
-0.0378544
-0.368844
0.017126
-0.0308033
-0.0215102
-0.00995419
-0.16607
-0.589065
0.0449273
0.0192117
-0.00254112
0.136087
0.0953115
0.12767
-0.00175129
0.0274761
-0.663178
-0.196681
-0.067651
-0.0781816
0.27035
0.0211301
0.0137598
0.00226937
-0.563802
0.0122342
0.0137166
-0.00931168
0.111426
-0.370229
0.154081
0.0139843
-0.577614
0.0181934
0.0290262
0.0033418
0.0639477
-0.102072
0.0174008
0.0269793
0.0238881
0.0218777
0.0143831
-0.00250334
-0.541635
0.0689829
0.0374417
0.0169371
0.0779804
-0.16431
-0.0212746
0.118898
0.0136498
0.000177993
0.00224101
-0.276583
-0.512955
-0.0157416
-0.588218
0.0207235
0.0487005
-0.500555
0.486083
-0.0017655
0.0176083
0.410926
-0.08629
0.0103715
0.0197402
-0.245277
0.0135373
-0.191946
0.0225889
0.454522
0.0194216
0.00571395
0.0216074
-0.0590601
-0.00766339
0.0677522
0.101493
0.367679
0.0113218
0.018635
0.0136731
0.019006
-0.0137787
-0.0099935
-0.0723791
0.0219506
-0.054182
-0.255713
-0.111489
-0.145581
0.0204968
-0.0058125
-0.692993
0.0917172
-0.000830555
-0.555205
-0.619514
-0.0027549
0.027142
0.0153109
-0.219382
-0.0500514
0.496652
0.0107372
-0.0192731
0.0100469
0.0432441
0.00542002
-0.147344
-0.0135651
-0.353373
0.0189542
0.0163022
0.0118061
0.0424352
0.0303848
-0.0171886
0.244827
-0.609248
-0.333193
-0.528716
-0.0904837
0.0276816
-0.0365145
0.501046
-0.0492638
-0.011824
0.0173633
0.489266
0.0150237
-0.0925774
-0.00335156
-0.0348514
-0.0151974
0.0212035
-0.00182052
-0.537651
-0.56247
-0.0747143
0.290901
-0.694247
0.0240184
-0.054504
-0.587214
0.0134634
0.0209254
0.0060873
-0.0450735
-0.00112398
-0.573604
0.140019
-0.233627
0.00617019
-0.464551
-0.794205
0.506015
0.0509651
-0.0753386
0.012119
-0.742498
-0.0014005
0.402605
-0.299772
0.12279
-0.579025
-0.64867
-0.0324894
-0.00284433
0.0115496
0.0147859
-0.606971
-0.724781
0.00657578
0.328778
-0.020124
-0.0657907
0.352383
-0.00897765
-0.0112797
-0.00385131
0.0819307
-0.0493999
-0.0231557
-0.0167332
-0.513625
0.019699
-0.556057
0.00257473
-0.00340024
-0.191313
-0.0863011
-0.0124422
-0.0194509
-0.66455
-0.616287
-0.461515
0.107677
0.0137129
-0.0187084
0.0136455
0.0316562
-0.464489
0.122366
-0.00658696
0.031359
-0.047512
0.477441
-0.0143391
0.0317084
0.442091
0.0249298
0.0211456
-0.00168156
-0.030227
0.0242369
-0.0266028
-0.0403047
-0.171036
0.00644462
0.362373
0.348523
0.0246503
-0.0155581
-0.0799583
0.0134855
0.015109
0.0015664
-0.511443
0.00441082
0.0158353
-0.0837485
0.174751
-0.278082
0.0352841
-0.0954012
0.0105719
0.00683338
0.447904
-0.225087
-0.114199
0.0259134
0.0158833
-0.666188
-0.0983911
-0.342483
0.266538
0.0171027
-0.013418
0.0231544
-0.657603
0.0639589
0.107435
0.0608534
-0.000802559
-0.0174041
0.00350085
0.0105395
-0.000376465
0.00797979
-0.0426321
0.00393268
0.0408778
-0.00204422
-0.0251001
-0.191408
-0.0657893
-0.0343495
-0.636686
0.0156296
0.00116629
-0.0231086
-0.447621
-0.00652684
-0.00379552
-0.155286
0.0778725
0.129002
0.0173408
-0.0292326
-0.546105
-0.550586
0.0334596
0.153286
0.372466
-0.0369757
-0.454824
-0.248784
-0.199009
-0.00256675
0.0587907
-0.0416161
0.133876
0.015468
0.0178009
0.00636902
0.0200992
0.0263495
0.00328113
0.0286303
0.0260578
0.318039
-0.021817
-0.0209408
-0.091195
0.00597408
0.0297132
-0.0833915
-0.517964
0.279784
-0.177814
-0.31602
0.014755
-0.581121
0.00452448
-0.718098
-0.0235417
0.021035
-0.0128759
-0.0289457
-0.656668
0.477262
-0.107375
-0.107903
0.00063357
0.0218852
0.0187006
0.0207845
-0.611394
-0.0460428
-0.00948311
-0.253048
0.394723
-0.177772
-0.0190827
-0.194601
0.256094
-0.0883891
-0.0388386
0.400476
-0.315237
0.00959759
-0.0328068
-0.176744
0.190161
-0.521126
-0.0830258
-0.0149984
0.0134255
0.0298119
0.0389816
0.10769
-0.676924
-0.0802697
0.00928049
-0.349824
0.014025
-0.402218
0.484145
0.014949
-0.673355
0.00433408
-0.00182434
-0.0105242
0.0154544
-0.631023
-0.0545625
0.135487
-0.00547019
-0.433192
0.0132947
-0.0547913
0.0169994
0.0459058
-0.00843659
0.00531745
0.0403369
0.192442
0.0107675
0.0153632
0.179215
-0.285578
-0.0378672
0.0198225
-0.0306811
-0.524567
-0.20118
-0.00767037
0.00250724
-0.00740756
0.0266249
-0.775734
-0.509538
-0.337555
0.0240558
0.00841841
-0.570342
0.138608
0.0138392
-0.692564
0.0044009
-0.216561
-0.678481
0.00587634
-0.754223
-0.577735
-0.27108
-0.615519
-0.0226924
0.0156778
0.0406058
0.243118
-0.166197
0.038322
-0.632594
-0.0353728
0.0280598
0.021046
-0.0240965
-0.0830506
-0.0403074
0.387142
-0.610926
0.322863
0.148055
0.012436
-0.134509
0.511282
0.00371561
0.402514
-0.130064
0.0152349
0.022141
0.0149301
0.0366844
0.125362
0.423892
-0.0168261
0.00835722
-0.700522
-0.0634576
-0.046677
0.0194003
-0.160837
0.0291372
0.0105152
0.0520791
-0.500049
0.0109423
0.00144372
-0.0935806
-0.359804
-0.132243
0.0400025
-0.584445
-0.0204693
0.0126363
-0.0107042
0.011155
0.000691273
0.00334888
-0.584081
0.0836139
0.0240996
0.325306
-0.0664539
-0.0850937
-0.606644
-0.421002
-0.14228
0.0344873
0.017442
-0.0165611
0.0121669
0.0880864
0.0118123
0.333784
-0.0649725
-0.105303
0.0217985
0.00773648
0.17044
-0.584183
0.0104334
0.388294
-0.0370558
-0.15976
-0.339159
-0.0601622
0.00321132
-0.587049
-0.13181
-0.51071
-0.000457292
0.0421612
0.0221015
-0.604089
-0.37508
0.17355
0.0282874
0.0231161
-0.2459
-0.697109
-0.0501513
-0.00227891
0.0898002
-0.161419
-0.0974296
-0.315496
0.173271
0.022674
0.037768
0.0299716
-0.0480723
-0.00339512
-0.510583
-0.0035594
-0.0117147
-0.354939
0.510212
0.0210672
-0.1879
-0.0254269
0.101403
0.0111526
-0.315972
0.0751925
-0.0193521
0.0275114
0.0121569
-0.261309
-0.0452863
-0.59473
0.0829739
-0.25547
0.0587526
-0.00371856
0.000995653
-0.0449548
-0.0760781
-0.0712283
-0.0433576
-0.028987
0.100895
0.0444146
0.0209752
0.00549685
-0.0381563
-0.321089
-0.641367
0.0292244
-0.0914088
0.0102294
-0.222071
0.491205
-0.0764193
0.0257444
-0.0010633
-0.121364
-0.490789
-0.0188038
0.0192151
-0.0141778
-0.0928377
-0.0145391
-0.250787
-0.522516
0.426243
0.0214664
-0.0492535
-0.56876
0.0197379
0.267268
0.000232214
-0.481542
0.0336788
0.0278204
0.0513883
0.238919
-0.00861219
-0.400988
0.0285572
-0.225106
-0.0760158
-0.334455
0.0626737
0.0199146
0.0458699
-0.6881
0.0257996
0.0290488
-0.0760247
-0.0275174
-0.00137279
-0.56962
0.08904
0.417842
-0.0108939
0.162927
0.0250249
0.323676
0.0757828
-0.036754
-0.279433
-0.0174052
0.0191867
0.0165311
-0.0508898
-0.394232
0.45765
-0.191618
-0.032827
0.0323114
0.00996344
-0.250783
0.0214954
-0.0771972
-0.228847
-0.502726
0.0126504
0.0047744
0.00859982
-0.112164
-0.0139953
0.400771
-0.0846794
-0.473356
-0.199855
0.00355245
0.48178
0.0063172
-0.0150336
-0.021631
-0.106212
0.249601
0.0296981
0.00173341
-0.0368441
0.00162554
-0.0901946
0.26077
-0.512969
-0.221393
-0.0210768
-0.306977
-0.00170519
-0.0033907
0.0142125
0.270973
0.130118
-0.130124
-0.262482
-0.478592
0.0490351
-0.0622412
-0.000652051
0.00177267
-0.729479
-0.00776951
0.0436589
0.000805239
0.0186364
-0.234784
0.367159
0.0133191
-0.218575
0.429009
-0.609215
-0.251491
-0.0120897
-0.00976568
-0.0428907
-0.484821
0.0100217
-0.104961
-0.679293
0.0779794
-0.0188742
0.000122739
0.0122394
-0.00561399
0.0263348
0.00242056
0.012746
-0.000764054
-0.332742
-0.0169554
-0.0892382
-0.0657998
0.45083
0.0350803
-0.00325099
0.0288859
0.015082
0.0198487
-0.514086
0.00558454
-0.0725473
0.00902248
-0.59517
0.0865774
0.0438925
0.00488372
0.0473872
0.054706
-0.0112568
-0.00109727
-0.291238
0.0117139
-0.0292771
0.0384719
-0.624955
0.0866503
0.0233084
-0.00837934
-0.12187
0.0118188
0.00718915
0.0196322
0.0209761
-0.0123853
0.0159224
-0.00119194
0.142425
0.0412443
-0.578078
-0.620714
-0.398648
0.00723316
0.0123533
0.0323244
0.000966171
0.0286266
0.00543895
0.0676351
0.0181721
0.0153795
0.0141225
0.0220965
-0.00195881
-0.577728
-0.013203
0.0154729
-0.725419
-0.0572314
0.0057489
-0.664659
-0.605673
0.0148116
-0.313358
-0.190902
0.0129011
0.218253
0.0787717
0.00214582
0.0135715
0.00244262
-0.019695
0.0123605
0.0184017
0.00578365
-0.620558
-0.0220305
0.116831
0.0125362
0.0166512
-0.558975
0.0978428
0.0152086
-0.016456
-0.0263461
0.0151685
0.179789
-0.716514
-0.482119
0.044819
0.34745
0.0687709
0.01468
-0.507146
-0.310859
0.00704407
-0.130945
0.0193417
0.0261601
0.018048
-0.465755
0.0481646
0.015629
0.0216404
-0.254591
0.00528078
-0.147033
0.0285329
0.286798
-0.319152
0.00926129
0.0231499
0.0662999
0.142753
0.0522208
0.00744706
0.0892969
0.318985
-0.122244
0.00334854
0.272409
-0.582341
-0.00105992
-0.340567
0.106735
0.35811
-0.253482
0.028754
-0.00170458
-0.0718585
0.00512285
-0.0418389
0.00180484
0.135549
-0.514554
0.0641534
0.00905537
-0.294937
0.300826
0.452602
0.0739906
0.00378171
-0.0423702
0.0282569
0.0275677
-0.0760668
0.12371
-0.704785
0.0112403
0.354141
0.00313179
-0.567626
-0.319573
-0.203004
0.00334962
0.0625389
0.49809
0.437804
0.164948
0.0109978
-0.0138901
0.114346
0.0118363
0.0173843
-0.146461
0.0724442
-0.0139312
0.0213075
0.0623979
0.396916
0.346496
0.100768
0.00747713
0.0160754
0.00593636
0.433079
-0.706941
0.0022902
-0.0609028
-0.298846
-0.205087
-0.305376
-0.0565867
-0.715285
-0.395208
0.00196609
-0.0129149
-0.274804
0.0161118
0.113409
0.356748
-0.684079
0.0735516
0.135857
-0.124423
0.436019
0.332318
-0.528806
-0.309109
-0.0499048
0.0165159
0.00338427
0.0259764
-0.0169236
-0.669235
0.247778
0.331756
0.0983614
0.1189
-0.00669692
0.0890451
-0.00385721
-0.0518575
0.0126607
0.109656
-0.699888
-0.484085
0.0129861
0.000285129
-0.0182349
0.105267
-0.319069
-0.640927
0.191221
0.0115188
0.306758
0.000672613
0.322758
0.149757
0.0301591
0.109389
0.304759
-0.43774
-0.13285
0.0109111
-0.00221949
-0.567939
0.0925696
0.00143712
0.0215705
0.0208772
0.00539483
-0.691305
-0.543668
-0.401732
0.479681
-0.666831
-0.0149518
0.0289897
-0.428441
-0.0314524
0.00509648
-0.0782304
0.0101363
-0.551689
-0.44434
-0.174822
0.137801
0.353304
0.0230285
0.503066
-0.0660495
0.0170393
0.0122475
0.016926
0.0409089
0.515559
-0.25241
0.182417
-0.655608
-0.428749
0.291059
-0.23274
0.382361
-0.029078
0.438617
-0.609877
-0.0187019
0.148981
-0.0400276
-0.0417365
0.0457829
0.0166592
-0.0753656
-0.0666982
-0.142263
0.0187217
-0.567255
0.279574
0.0269808
-0.657651
-0.416632
0.0627337
0.463546
-0.585619
0.00971262
-0.000681388
-0.13827
-0.525286
0.00276852
0.0835631
0.0389774
-0.519434
-0.000247395
0.381356
0.00722816
0.0135199
0.476162
0.0956734
-0.13261
-0.0478351
-0.566331
-0.525383
0.00352268
-0.0711388
0.0415115
0.00953709
0.337359
-0.121129
-0.0477157
0.512065
-0.122607
0.0184843
-0.0443357
0.40394
-0.0252993
-0.14938
0.225439
-0.15465
-0.139257
-0.379065
-0.591908
-0.646452
-0.0427814
-0.12969
-0.405492
-0.0138682
0.0873281
-0.082034
-0.0407671
-0.252801
-0.491435
0.015198
0.00362098
-0.62934
-0.0556909
-0.0268137
-0.635139
0.0335432
0.439085
-0.0154108
0.114467
0.012359
0.0340787
0.489606
-7.40477e-05
0.030527
-0.580248
-0.550045
-0.641325
-0.544989
0.0128082
-0.48172
-0.109362
0.152705
-0.272046
0.310886
0.00643928
-0.0508368
-0.126615
-0.409951
-0.0353838
0.0130768
0.0529314
0.308969
-0.421874
-0.193137
-0.136936
-0.124586
0.0258513
-0.553755
0.0135489
-0.0303172
0.032124
0.00265551
0.00595668
-0.0750474
-0.01692
0.00144332
-0.629906
0.00142174
-0.508346
-0.626958
-0.0576281
0.0115835
-0.0669758
0.501225
-0.138315
0.0195358
0.030226
-0.536261
-0.410012
-0.342129
0.236455
0.075194
0.00554563
-0.499141
-0.725819
0.0376368
-0.591113
0.142081
0.0227484
-0.0149441
0.24514
-0.685925
-0.00564311
-0.015724
-0.0425284
-0.613161
-0.174635
-0.0629384
-0.160689
-0.126722
-0.500792
0.0213365
-0.720981
0.025032
0.0145186
-0.000535226
0.0296949
-0.727906
0.234483
-0.147271
-0.216974
-0.0207741
0.306854
8.12699e-05
-0.366036
0.379229
-0.608829
-0.647653
0.480262
0.0494315
-0.00126099
0.0553005
0.152002
0.0121711
-0.0243974
-0.469882
0.449744
0.0229524
-0.0324506
0.192914
0.0154719
-0.00590584
-0.0481378
-0.138413
-0.0163745
-0.0127526
0.00866577
-0.00128617
-0.275483
-0.575819
-0.131305
-0.41006
-0.27247
-0.614394
-0.349284
0.182377
-0.0711284
0.0416131
0.4875
-0.247412
-0.313014
0.276197
0.264382
0.00193869
-0.279275
-0.00936738
-0.0174435
0.00346038
-0.0223581
-0.477128
0.0129183
0.0229896
-0.17109
-0.113372
-0.0211413
0.179239
0.0025834
0.12712
-0.0530086
0.0142223
0.0205485
-0.10363
-0.239319
0.0348594
-0.0553246
0.339548
-0.120394
0.0431505
-0.54752
0.00590253
-0.13949
0.0708795
0.0685994
0.00193639
-0.317709
-0.0277373
-0.704738
-0.721022
0.279896
0.0210094
-0.0102977
-0.527672
-0.468314
-0.00725682
-0.301638
-0.239516
-0.151105
0.29391
0.000861448
0.0166635
0.0276498
-0.0295101
-0.115343
0.0160033
-0.587996
0.0226023
0.235497
-0.280988
0.00650657
0.154273
-0.169931
-0.745639
0.0520285
0.101654
0.0738686
-0.158211
0.00118026
0.0202547
0.0509446
-0.383753
-0.203256
0.00211272
-0.391801
0.0364109
0.0246092
0.011304
-0.427306
-0.597722
-0.0260291
-0.586095
-0.453758
-0.177797
-0.112552
-0.491718
-0.627151
-0.523192
-0.0441607
-0.0194072
-0.337221
-0.140243
0.0112501
0.13512
-0.0439859
-0.565616
0.0196737
-0.512883
0.0264904
0.42327
-0.228762
-0.00212439
0.0021165
-0.504132
-0.696973
-0.0545436
-0.0231331
0.0090437
-0.00306468
-0.616673
-0.041738
-0.552918
0.167784
0.326913
-0.267495
-0.0144693
0.013879
-0.276601
-0.300099
0.0312156
-0.0954132
-0.447249
0.0054771
0.0178282
0.0127398
0.0146668
-0.620049
-0.00958464
-0.132834
0.0150804
-0.0145413
0.14934
0.0292423
-0.0257659
-0.216711
0.0114301
0.00132228
-0.237507
-0.0270494
0.248436
-0.693927
-0.623496
-0.108448
0.408386
0.143017
0.00186383
-0.249833
-0.604013
-0.0377014
-0.119699
0.0325003
0.269911
-0.0759432
-0.0155665
-0.191764
0.0810215
-0.602063
0.019972
0.00508222
-0.00705764
-0.465031
-0.529352
0.0634322
0.00656003
-0.00679404
-0.0186648
-0.00580338
-0.342497
0.0266083
-0.121995
-0.469907
0.314932
0.0256589
0.0318839
-0.723082
-0.645407
0.0280655
-0.438751
-0.0325555
-0.291316
0.0406945
0.0129882
-0.0308651
-0.0411981
0.0125302
-0.532374
-0.305503
0.0268118
0.0212842
-0.326293
0.00548081
0.0211611
0.0511756
0.183708
0.203501
-0.6103
-0.0421343
-0.0196663
-0.432383
0.0062299
-0.576055
-0.613393
-0.0403104
-0.0136639
-0.21114
0.0404624
-0.260197
0.00154623
-0.493468
0.427022
0.0159453
-0.435193
-0.601621
0.0336105
0.0363849
0.45065
-0.0229756
0.0460251
0.0218812
0.0227767
-0.117438
-0.614192
-0.0177858
-0.0596055
-0.017094
0.0482071
-0.476968
-0.1391
-0.0134521
-0.328311
-0.500325
0.217812
-0.280952
0.0120953
0.00220322
0.0163367
0.197579
0.0595221
0.0128398
-0.0267306
-0.659713
-0.514255
0.0201361
-0.0405453
0.466439
-0.105264
0.0202704
-0.581261
-0.0796268
-0.217732
-0.0770512
0.00331328
-0.045604
0.0365367
0.0267966
0.0291602
0.0108943
0.241169
0.0242574
-0.56374
-0.012681
-0.0115703
0.00168972
-0.0315199
0.018189
-0.111013
-0.72936
0.107848
-0.0831282
0.208543
0.0117755
0.129245
-0.129508
-0.332364
-0.64177
0.00922041
-0.446262
0.0231172
0.505878
0.00174248
-0.702265
0.00949929
-0.112187
-0.0917842
-0.59259
0.417721
0.0160966
-0.205479
0.309367
0.180219
0.117335
-0.0141165
0.0420119
0.101101
0.00211677
0.033622
-0.13508
0.162723
-0.526389
0.303881
0.0045342
-0.416279
-0.011739
0.0335139
-0.245591
0.00113753
0.409116
-0.569682
-0.124216
0.108844
0.32634
0.0351565
-0.241675
-0.122725
-0.544799
0.0417542
-0.00291961
-0.00442736
-0.042724
-0.0673277
-0.362986
-0.167599
0.173669
0.361124
0.0104971
-0.282863
-0.464432
-0.271982
0.0321694
0.0180315
-0.0109576
-0.42901
0.0439452
-0.0448982
-0.44577
-0.0641975
0.0397317
0.317669
-0.0900579
0.0238638
-0.0147318
-0.26448
0.494043
-0.150845
-0.113076
-0.320059
-0.0442061
0.0939518
0.00482499
0.0462409
-0.0137895
0.0873422
-0.285295
-0.135202
-0.0413853
-0.0800735
-0.562044
0.0812153
0.0255868
-0.645063
-0.00295713
0.0438098
-0.0966159
0.00202058
0.0774699
0.043113
0.00441522
0.0228941
-0.0724674
-0.000876762
0.0661542
0.00866544
0.011806
0.0185065
0.0276736
0.149288
-0.0243608
-0.01212
0.0286306
0.0150969
0.0627694
0.0539067
0.401019
0.0238499
0.0736293
0.473803
-0.00351084
0.0146214
0.0512369
-0.0464244
-0.624656
-0.614626
-0.164932
-0.0619892
-0.0895688
-0.215356
0.0173905
-0.165924
0.00873176
-0.374866
-0.0133187
0.0430439
0.0486878
-0.11742
0.0202711
-0.0668013
0.00819334
-0.552401
-0.303388
0.0154719
-0.589044
-0.144703
-0.0135463
0.00875006
0.0232444
8.89884e-05
-0.719889
-0.0133191
-0.180594
-0.319963
0.0226102
-0.000254324
-0.193824
-0.342132
0.0905147
-0.0273204
0.0364458
0.0213572
-0.586058
-0.117387
-0.507531
0.00321587
-0.0735871
0.0293973
0.0207217
-0.255137
-0.115445
-0.571597
-0.25271
-0.651479
-0.518399
0.0608388
-0.281934
0.0132156
0.0396754
-0.0109568
0.00939551
0.320025
0.0198294
0.025992
0.000622169
0.00360531
-0.0213046
0.0922217
-0.0399991
-0.364291
-0.549909
-0.0287285
0.129602
-0.02015
0.025931
-0.102169
0.0157825
-0.00534761
0.0106047
-0.0306784
0.0698461
0.36256
0.00630814
-0.125192
0.020915
0.251757
0.254237
-0.573761
-0.61155
-0.0345738
-0.0744549
0.0229679
-0.529133
0.0233348
0.0274515
0.0118786
-0.0222958
0.0212074
0.114367
-0.293462
-0.614865
0.0447449
-0.168195
0.0179264
-0.239082
-0.120538
0.00858344
-0.0386437
0.140285
0.104312
-0.0436379
-0.0462902
-0.205179
0.0438119
-0.00562559
0.01161
0.0437716
0.0170948
0.0167081
-0.365883
-0.227328
0.0378211
0.00107974
-0.723804
-0.00909971
0.0329053
-0.508365
-0.663267
-0.45876
-0.223943
-0.0458206
0.434069
0.0155914
-0.612274
-0.452833
-0.13323
-0.00713632
-0.0131483
-0.690349
-0.0003438
0.0130632
0.00185644
-0.0420185
0.00235419
-0.48146
-0.0126909
0.0237697
0.0652377
-0.1407
-0.0208764
0.000521266
0.012847
-0.578456
-0.0789783
-0.524622
-0.147107
-0.0257273
0.0343823
0.0823826
0.0793926
0.348521
0.0243838
-0.0378596
-0.00569633
0.101015
-0.00815512
-0.0367656
-0.609064
-0.0272986
0.0129928
-0.02358
0.0272409
-0.00370902
0.0281567
0.0222529
-0.00746766
0.329892
0.0193839
0.0266385
0.0595616
0.0140888
-0.683267
-0.00313568
-0.0100927
0.00495909
-0.171321
-0.00148044
0.00243681
-0.0110633
0.00873913
0.11361
-0.0417959
0.0094696
0.215265
0.00429513
-0.0536673
-0.00497747
-0.14432
0.0106462
0.026653
-0.0361551
-0.0142867
-0.117892
-0.0740148
0.0748996
-0.00896581
0.00126537
0.0212616
0.0186933
-0.594564
-0.0256173
0.0315216
0.496146
0.0140036
0.00176127
0.0104824
-0.446079
0.109365
0.0331513
0.156206
0.12467
0.235816
-0.0173388
-0.00987198
0.228728
-0.319721
0.0329957
-0.017125
0.00299761
-0.11659
-0.248011
0.0100867
-0.0174203
-0.50769
0.122377
-0.000604667
-0.566734
-0.00638314
0.0453113
-0.0456312
-0.0405701
0.0236415
-0.0529932
0.0308144
-0.0124697
0.0121043
0.0120631
-0.00282799
0.0115024
0.0127149
0.147499
0.0365667
-0.214539
-0.00467272
0.0778268
0.0313517
-0.0181935
-0.0573164
0.00858217
-0.00923025
0.320933
-0.0140782
0.00778244
0.0561076
-0.544003
-0.0474884
0.0433905
-0.0175695
-0.0301493
0.020905
0.0186811
-0.0687746
0.0619576
0.00211375
0.139493
0.0398654
0.015375
-0.00438562
0.00136697
-0.0198736
-0.117389
-0.0704625
-0.0415485
-0.426622
-0.0304637
0.0150312
-0.000959097
-0.34245
-0.0694667
-0.465394
0.0404819
-0.115336
-0.0436649
0.0307918
0.0208264
0.121705
-0.227422
-0.115766
-0.00924944
-0.0428662
-0.577924
0.0639003
-0.285861
-0.535218
-0.359485
-0.0390825
0.0406692
-0.099727
-0.0524296
0.0022613
-0.536755
-0.45118
-0.290283
-0.0185456
0.0146112
0.033019
-0.223086
-0.00366179
0.00361451
-0.0658311
0.0276367
-0.0060781
0.0104202
0.232885
-0.00759769
0.00769442
0.0206186
-0.204903
-0.00118123
0.0427773
0.0201949
-0.0143941
0.0110486
0.292039
-0.00605468
-0.390607
-0.00269902
-0.00781351
0.00987083
-0.732763
-0.466887
0.023225
0.0162091
0.182206
0.317168
0.00583917
0.38004
0.0291406
-0.118955
0.0172903
-0.102973
0.00244031
0.0314567
-0.0212784
0.0369173
-0.0093485
0.0118217
-0.23612
-0.0121208
0.0564697
0.0147831
0.0387363
-0.0626781
-0.00658954
0.0161583
-0.0472452
0.0537342
-0.0317695
-0.00587705
-0.127407
-0.22479
0.0154895
0.114618
0.0188556
-0.0145699
-0.201577
-0.261974
-0.00789218
0.014506
0.0449269
0.39352
-0.0385341
-0.0143533
0.0264453
0.0177497
-0.025068
-0.00732419
-0.0351877
-0.0203549
0.165447
0.225404
-0.0694441
-0.000791767
0.463919
0.00311039
0.015888
-0.696993
-0.32206
0.0104527
0.00166598
0.0237721
0.0399073
0.0299029
-0.0117502
0.0035465
0.0234198
-0.481191
-0.106724
-0.0275718
0.0360126
-0.0728708
-0.0236464
0.00580305
-0.735752
-0.0211769
-0.000862745
0.0230789
0.0229203
-0.0265391
0.014506
-0.0141326
0.0307869
0.00792751
0.0383379
-0.0676124
-0.0679164
0.0151938
-0.0252603
-0.0759872
0.0697225
0.0195724
0.266901
-0.000376893
0.0100577
0.0164461
-0.0393567
0.0155972
-0.614383
0.0366455
0.41294
0.498698
-0.157846
-0.0193442
-0.0151343
0.0174508
0.0276209
-0.0354295
-0.219824
-0.229502
0.0100277
0.0793829
-0.614935
-0.00274577
-0.0177504
0.0170755
-0.0117051
-0.0627591
0.0915122
0.0144246
-0.0247534
0.050586
0.166851
0.00215733
-0.60795
-0.00872572
0.0118628
0.152989
-0.0122431
0.0211307
-0.134259
-0.0186558
-0.00757737
0.00785476
0.281244
0.0125918
0.291627
-0.157835
-0.0994005
-0.722062
0.0159618
-0.0807266
-0.127783
-0.309794
-0.000256248
-0.00518074
-0.232004
0.0281753
-0.007362
0.00611433
0.000392259
0.0240475
-0.00167992
-0.719629
0.0144241
-0.0234869
0.0147546
0.00026335
-0.00338565
0.003166
0.0511368
0.0301951
0.047277
0.014355
-0.734482
0.00953178
0.0369386
0.0576208
0.0388618
0.131765
0.00917658
-0.34858
0.0201869
-0.0149391
-0.0162882
0.0206464
0.00143418
0.0181014
-0.588466
0.00788076
0.0375569
-0.334103
-0.00549042
0.0241747
0.0187043
0.0211984
-0.142326
0.0283851
0.0245409
0.435397
-0.0198278
0.0132374
0.0522496
-0.00159066
-0.24305
0.0672619
0.0455847
0.0275283
-0.0410581
0.0210108
-0.494616
0.008128
0.0215008
-0.559426
0.0115552
-0.171103
0.0496918
0.00108073
-0.00104281
0.138382
-0.0298478
0.0150392
0.018129
-0.0216498
0.0276513
0.022758
0.0429906
-0.00881726
-0.00530408
-0.00533224
0.0611426
0.0210757
0.0144825
-0.583117
0.0367659
-0.0507908
-0.245807
-0.127659
0.0117626
0.0408504
0.0237725
0.00198818
0.0674158
-0.104015
0.0628528
-0.0193005
0.00474823
-0.0202591
0.0113647
0.0012867
-0.0145579
-0.145745
0.0401502
-0.0141035
0.0143301
0.0230508
0.0129094
-0.303549
-0.0150332
0.0178813
-0.589835
-0.0116595
-0.153393
0.0236885
0.0216268
0.00195609
-0.0730042
0.0089149
-0.00747764
-0.0176535
0.023562
0.0267517
0.0232268
-0.00956209
-0.0283752
0.028212
0.156229
0.0176311
-0.0774679