/*--------------------------------*- C++ -*----------------------------------*\
| =========                 |                                                 |
| \\      /  F ield         | OpenFOAM: The Open Source CFD Toolbox           |
|  \\    /   O peration     | Version:  v2012                                 |
|   \\  /    A nd           | Website:  www.openfoam.com                      |
|    \\/     M anipulation  |                                                 |
\*---------------------------------------------------------------------------*/
FoamFile
{
    version     2.0;
    format      ascii;
    class       volVectorField;
    location    "900";
    object      U;
}
// * * * * * * * * * * * * * * * * * * * * * * * * * * * * * * * * * * * * * //

dimensions      [0 1 -1 0 0 0 0];


internalField   nonuniform List<vector> 
9793
(
(0.958621 -0.0147324 -4.384e-20)
(-0.2693 -0.00300989 0)
(0.991509 -0.00837004 2.36016e-20)
(-0.0354353 0.0824058 -1.36591e-19)
(0.999932 -1.27044e-05 7.8932e-21)
(1.24756 -0.155045 -4.8617e-20)
(1.06936 -0.272401 9.18256e-21)
(-0.17266 0.0604475 -7.7352e-20)
(1.02315 -0.0458098 1.65055e-21)
(-0.123144 -0.009433 1.20965e-19)
(0.999925 -0.00152069 -1.14208e-21)
(0.999903 -0.00173198 1.34225e-21)
(1.00242 -0.0110813 0)
(-0.0264561 -0.024208 -9.74671e-20)
(1.02293 -0.0267833 6.57801e-21)
(1.09668 0.00520181 -2.38222e-20)
(1.15087 -0.132436 6.47142e-20)
(0.99386 -0.0108673 3.43289e-20)
(-0.0877813 -0.108001 0)
(1.02035 -0.00549345 0)
(1.02736 -0.010853 -3.44936e-22)
(0.999998 -1.23447e-05 8.69598e-21)
(-0.0282536 0.120328 -6.68365e-20)
(-0.164913 0.0576807 -1.24168e-19)
(0.00896478 -0.0272468 -7.74325e-20)
(0.911853 -0.054423 -8.82719e-20)
(0.999775 -0.00419892 -1.07574e-20)
(1.00001 -0.000379822 -1.3943e-20)
(1.02019 -0.00582704 3.3382e-22)
(1.13843 -0.208623 0)
(-0.264003 0.00887082 -4.90322e-20)
(1.29158 -0.196301 7.48651e-20)
(0.99603 -0.00536177 0)
(0.996854 -0.0112458 4.37034e-21)
(1.00638 -0.000648148 1.15092e-20)
(1.10737 -0.0546785 0)
(1.08446 -0.0045272 1.54968e-20)
(0.911527 0.00888888 9.21242e-21)
(-0.149596 -0.0402152 1.10385e-19)
(1.08457 -0.105188 5.21456e-21)
(1.13043 -0.2025 0)
(0.376185 -0.0354381 3.68422e-20)
(-0.153146 -0.0633586 5.57662e-20)
(1.00001 -0.000269728 1.51764e-20)
(0.991701 -0.0018508 6.1361e-21)
(0.996306 -0.00120103 0)
(-0.17676 0.0578345 5.03368e-21)
(0.999997 -0.000129592 8.98383e-21)
(1.03764 -0.00731609 -3.08211e-21)
(0.993615 -0.0103546 -2.19129e-20)
(1.10887 -0.0504992 -1.39671e-20)
(1.00685 -0.000796612 -6.19125e-21)
(1.12834 -0.0877841 0)
(0.999976 -0.00028791 0)
(0.885187 -0.115114 2.81293e-20)
(-0.0421985 0.0743605 2.85636e-20)
(1.00279 -0.010104 4.97449e-21)
(1.23287 -0.0612812 -4.4559e-20)
(1.03755 -0.00829846 0)
(1 -6.70228e-05 0)
(0.894647 -0.00933417 4.92645e-20)
(0.792418 -0.310535 -2.57999e-20)
(0.993309 -0.00839866 1.08026e-20)
(1.14062 -0.0173445 0)
(1.00337 -0.00158318 1.31018e-20)
(1.0224 -0.0437967 2.15897e-22)
(-0.0859016 0.0292793 0)
(1.06274 -0.0629583 0)
(1.08723 0.000754065 -8.74854e-21)
(-0.0814409 -0.0906318 0)
(0.976785 -0.0107059 -7.83028e-21)
(0.582131 0.0624381 -1.40787e-19)
(-0.195318 0.063283 0)
(0.632237 0.0342015 2.43551e-20)
(-0.0454402 -0.0894534 0)
(0.999974 -0.000482964 0)
(0.783151 -0.115035 -6.90316e-20)
(0.28445 -0.0167565 0)
(0.994146 -0.00534432 0)
(0.999967 -0.000139985 6.04486e-22)
(0.7677 -0.116363 9.13802e-20)
(-0.0942755 -0.108714 4.41499e-20)
(1.14879 -0.124411 -1.76061e-20)
(0.972774 -0.075692 0)
(1.0879 -0.00254096 1.0089e-21)
(1.20171 -0.257121 -5.1105e-20)
(0.999943 -0.000154062 9.81982e-21)
(1.21138 -0.0022768 4.97136e-20)
(-0.154705 -0.0392363 -5.61794e-20)
(0.780586 -0.29123 1.01752e-19)
(-0.041912 0.0911723 5.5793e-20)
(1.2513 -0.30071 1.14814e-19)
(1.25618 -0.312902 -5.67982e-21)
(1.07702 -0.160704 -2.44094e-20)
(-0.143357 -0.0762291 -4.52531e-20)
(0.995503 -0.0144684 5.12903e-21)
(-0.0274366 -0.087265 0)
(1.13152 -0.147727 4.75834e-20)
(1.04279 -0.0844789 -3.90673e-22)
(0.999961 -3.40646e-05 0)
(-0.109379 0.0114287 0)
(1.12321 -0.086222 0)
(-0.0470257 -0.180332 6.94695e-20)
(0.992295 -0.00187948 0)
(-0.0939287 -0.0958204 -3.95554e-20)
(0.0855157 0.0169361 -1.54244e-19)
(0.793267 0.0733195 -8.09582e-21)
(1.00542 -0.0084409 0)
(0.994155 -0.00490185 -5.47947e-21)
(0.999987 -2.38601e-06 0)
(1.00006 -0.000797965 9.48639e-21)
(-0.0327583 0.109717 1.22699e-19)
(0.0933072 -0.0616824 -2.65603e-19)
(-0.246489 0.00302018 5.51328e-20)
(0.977614 -0.0113319 7.09706e-21)
(0.9988 -0.00286583 -1.24953e-20)
(1.07301 0.0157213 1.03858e-20)
(0.996621 -0.00205077 8.76408e-21)
(-0.056197 0.0551919 0)
(0.995702 -0.000863166 -2.66217e-21)
(-0.131613 -0.0966615 6.58237e-20)
(1.21965 -0.00642534 0)
(0.0552076 -0.0761999 1.12443e-19)
(1.15416 -0.0702357 2.67728e-20)
(1.08492 -0.0080507 0)
(0.995958 -0.000617092 -2.32406e-21)
(1.15138 -0.149913 0)
(-0.252136 0.00957738 9.48423e-20)
(1.30737 0.0322878 0)
(1.31036 0.0436667 0)
(1.07575 -0.0313552 1.3492e-20)
(1.0079 -0.0168266 2.98837e-21)
(0.960422 -0.0159302 5.39641e-20)
(1.05697 -0.0552823 0)
(1.09927 -0.0554419 1.23664e-20)
(1.13159 -0.295857 3.52024e-20)
(1.20286 -0.123731 1.15787e-19)
(1.07488 0.0133293 -2.48834e-20)
(0.999992 -0.000359364 -2.04353e-21)
(1.17049 -0.127646 2.11872e-20)
(-0.102352 -0.108365 0)
(1.10336 -0.0560425 -1.7562e-20)
(0.982481 -0.0207493 -5.72598e-21)
(1.19091 -0.00950626 1.16135e-20)
(-0.166367 0.0570347 8.69463e-20)
(1.03921 -0.457443 -4.32947e-20)
(0.996026 4.2127e-05 -1.85215e-20)
(-0.0346327 -0.0846164 -4.46398e-20)
(1.00756 -0.0172491 3.75483e-21)
(0.9958 -0.000213015 2.34148e-20)
(0.998863 -0.00493561 5.63314e-21)
(0.0580833 -0.044021 5.5769e-20)
(1.04089 -0.0807857 -5.62826e-23)
(0.999696 -0.00418393 6.58719e-21)
(0.984262 -0.00357708 -1.33752e-21)
(1.26104 -0.340209 1.05685e-19)
(1.15829 -0.133338 -5.66781e-20)
(0.993339 -0.00900821 -7.1391e-23)
(1.2968 -0.192973 -4.00899e-20)
(0.982893 -0.012094 -5.52664e-21)
(1.20475 -0.00864113 -7.68459e-20)
(1.0773 -0.0342039 8.24521e-22)
(1.02703 -0.0114538 4.46135e-22)
(0.549823 -0.376046 1.09214e-19)
(1.04808 -0.0203269 -5.77445e-21)
(0.469379 -0.0465234 0)
(-0.10093 -0.220443 9.52095e-21)
(1.05112 -0.0257296 -1.1017e-20)
(1.00548 -0.0077445 2.09865e-21)
(0.999919 -0.00111766 -1.75706e-20)
(0.981483 -0.0201101 6.94856e-21)
(-0.186221 -0.0039737 1.56383e-19)
(0.22997 -0.147621 2.00175e-19)
(-0.2169 -0.0830036 -7.14307e-20)
(1.00271 -0.0115078 -1.07867e-20)
(1.24443 -0.149084 -3.93022e-20)
(0.956411 -0.365349 0)
(0.513754 -0.466149 -4.9182e-20)
(0.993624 -0.00625096 -9.82706e-21)
(1.06602 -0.0573971 -4.91131e-21)
(-0.0666944 -0.0936915 6.47182e-20)
(-0.15088 0.0522968 -8.99581e-20)
(1.22709 -0.00197424 3.21286e-20)
(0.995958 -0.00140279 0)
(0.997309 -0.00124265 -8.29135e-21)
(1.00569 -0.00817686 5.39899e-22)
(0.112911 -0.0702301 0)
(-0.201074 0.0647505 -1.56342e-20)
(0.68732 -0.360993 -9.6368e-20)
(-0.0244259 -0.159943 -8.43355e-20)
(1.01995 -0.0411129 -3.65369e-21)
(-0.08265 0.259529 7.51909e-20)
(0.385921 -0.103232 9.19569e-20)
(0.907622 -0.0145788 -2.28637e-20)
(1.0399 -0.00384604 4.50793e-21)
(0.954618 -0.0518905 -3.73838e-20)
(0.178547 0.147284 0)
(1.01759 -0.00578887 1.94237e-21)
(0.993579 -0.0112936 -1.47837e-20)
(0.999665 -0.000718762 -1.06733e-20)
(0.97402 -0.0109368 -2.36209e-22)
(1.02994 -0.00957651 1.41501e-22)
(1.11572 -0.0453274 2.69752e-20)
(1.09036 -0.0264255 9.14672e-21)
(-0.0796128 -0.0278297 4.61167e-20)
(0.980742 -0.00195538 1.26657e-20)
(1.07573 -0.0945352 1.59009e-20)
(1.05269 -0.0241638 4.69365e-21)
(0.965553 -0.0290368 -3.33406e-20)
(0.739693 -0.515651 0)
(1.16402 -0.126489 -1.36831e-21)
(-0.106319 -0.106995 0)
(1.0156 -0.00548968 -6.54803e-21)
(-0.0900565 -0.0930217 0)
(0.968033 -0.0752387 0)
(1.13309 0.063946 2.05039e-20)
(1.02289 -0.0279588 -3.93865e-21)
(1.13881 -0.287677 -3.31328e-20)
(0.998928 -0.00253635 -1.77016e-20)
(0.731381 -0.0299527 -5.01027e-20)
(1.13772 -0.150814 -8.50199e-20)
(1.02983 -0.0101975 0)
(0.381202 0.508456 -6.24674e-20)
(-0.2274 -0.118425 1.02916e-21)
(1.0701 -0.157474 2.7536e-20)
(0.994593 -0.0163091 -5.41806e-21)
(1.1734 -0.0738671 0)
(-0.206512 -0.169232 -1.95148e-19)
(0.743929 -0.0591679 0)
(0.739973 -0.0695737 0)
(-0.0865511 0.00914461 0)
(1.26767 0.0167379 6.22971e-20)
(1.13117 0.0570881 -4.47741e-21)
(1.14568 -0.0161624 -2.73267e-20)
(0.394603 -0.0803826 8.15137e-20)
(1.03233 -0.00293143 2.00239e-21)
(-0.095154 0.150529 -6.14666e-20)
(-0.230674 0.00151134 -9.29311e-20)
(1.01721 -0.0056282 0)
(0.999762 -0.000276383 0)
(0.461019 -0.0377993 8.90751e-20)
(0.986602 -0.0155394 -1.99142e-20)
(1.00004 -0.000731095 -2.32885e-20)
(1.24979 -0.0481104 9.33872e-20)
(1.25465 -0.0627317 5.19445e-20)
(1.02027 -0.0432781 -2.17457e-22)
(1.06882 -0.0564574 1.84248e-20)
(1.0799 -0.097077 -1.25347e-20)
(0.922232 -0.175588 -2.42195e-20)
(1.07421 -0.0482822 7.44648e-21)
(0.993635 -0.00575016 2.09477e-20)
(1.04035 -0.196172 2.13307e-21)
(-0.0353574 -0.0195099 -3.01187e-20)
(1.02881 -0.0103051 0)
(-0.221427 -0.0939857 8.50601e-20)
(0.999973 -0.000357129 0)
(0.999835 -0.00214652 -1.06921e-20)
(1.01359 -0.00104281 -1.56889e-22)
(-0.046572 0.0640201 -2.80167e-20)
(0.993195 -0.000386656 1.2504e-20)
(1.2066 -0.319786 -8.89725e-20)
(-0.0984956 -0.0879979 4.6389e-20)
(1.00053 -0.00319755 4.18024e-21)
(0.999073 -0.00244217 0)
(1.08456 -0.209927 0)
(1.01362 -0.000652648 1.41927e-22)
(0.999886 -0.000440779 -2.00691e-20)
(1.01434 -0.000609787 -2.98601e-21)
(-0.104706 -0.0882074 -3.62628e-20)
(0.554514 -0.342897 1.79641e-19)
(0.925901 -0.0511832 0)
(0.831818 -0.485478 -1.12054e-20)
(1.22437 -0.0714638 1.28176e-20)
(-0.0949239 -0.200756 5.11993e-21)
(-0.0321117 0.152589 -8.97049e-20)
(1.05216 -0.0278862 3.30474e-21)
(-0.0910712 -0.213645 -1.03932e-19)
(0.999978 -0.00036383 0)
(-0.189667 -0.180222 1.46138e-19)
(0.347432 -1.05102 -8.71416e-21)
(-0.174332 -0.0401641 0)
(-0.122263 -0.095031 -7.93567e-20)
(1.26431 0.0100995 2.55217e-20)
(1.07735 -0.0282406 0)
(1.14162 -0.122646 -2.70403e-21)
(1.087 -0.0267974 -9.83239e-21)
(1.04079 -0.00192629 -5.10106e-21)
(1.05687 -0.0172176 -3.34592e-21)
(0.7678 -0.490797 0)
(0.907684 -0.0573623 2.36102e-20)
(0.999173 -0.00213976 0)
(1 -8.73625e-05 -9.64968e-22)
(1.01598 -0.00568597 2.85311e-21)
(1.01891 -0.000103962 0)
(1.02852 -0.0109296 -3.22504e-23)
(-0.0318728 0.126386 -1.12033e-19)
(1.00555 -0.00968142 -4.59367e-21)
(1.02056 -0.0261215 4.76514e-22)
(1.01868 -0.000191052 3.85181e-22)
(1.00277 -0.0105387 3.66238e-22)
(-0.0240329 -0.0601915 -8.1408e-20)
(1.05313 -0.450111 2.88802e-20)
(0.686434 0.0971805 -4.67247e-20)
(0.94319 -0.0112703 0)
(1.19183 -0.0171773 -6.06789e-20)
(1.01795 -0.000119002 0)
(1.10007 0.130557 -4.86402e-20)
(-0.0139773 -0.0254029 -1.10956e-19)
(0.992604 -0.00127999 -1.2967e-20)
(-0.0819344 -0.0895289 1.01268e-19)
(1.1345 -0.0260596 -6.18554e-20)
(0.99131 -0.0022795 -1.31654e-20)
(-0.190503 0.00538857 0)
(0.954452 0.101139 0)
(0.996345 -0.00540554 0)
(1.03792 -0.203591 -1.50795e-21)
(0.389516 1.11267 -3.87829e-20)
(0.971407 -0.0270749 1.8928e-20)
(0.830116 0.0338104 2.97398e-20)
(1.02188 -0.0258175 -5.55328e-21)
(0.966153 -0.0244473 1.02736e-20)
(-0.127908 -0.193318 0)
(0.872605 -0.169231 -4.46983e-20)
(0.996952 -0.0106587 1.22535e-20)
(0.995491 -0.00211641 9.9288e-21)
(0.945979 -0.010776 0)
(1.01131 -0.379143 0)
(0.0926072 -0.144465 0)
(0.991464 -0.00769277 -2.79101e-20)
(1.0056 -0.00887785 0)
(1.03408 -0.0174353 -6.1549e-23)
(-0.193447 -0.00307266 -2.31462e-19)
(-0.109733 -0.141267 0)
(-0.0579187 -0.0177899 0)
(1.03154 -0.00410585 -1.68952e-21)
(0.87207 -0.18175 9.46918e-21)
(0.826209 0.0432889 -2.91066e-20)
(0.766958 -0.673142 -8.01125e-21)
(1.20547 -0.0795455 4.42844e-20)
(1.03251 -7.2065e-05 2.14203e-21)
(1.03499 -0.00227018 1.7694e-22)
(1.03323 -0.0179561 1.84191e-22)
(1.13993 -0.115866 -2.68893e-21)
(0.987155 -0.0387572 0)
(-0.0556797 -0.0135984 0)
(0.998011 -0.0027697 -1.58793e-20)
(1.01016 -0.0164646 -1.26447e-20)
(-0.160139 -0.146904 -8.36911e-20)
(-0.0351643 0.124244 8.85088e-20)
(-0.0975678 -0.0927287 -6.96104e-20)
(1.01864 -9.61867e-05 0)
(-0.109431 0.012744 1.78208e-20)
(0.972853 -0.0872862 1.37279e-20)
(0.215601 -0.578892 0)
(-0.0906226 0.00424395 0)
(-0.0799572 0.00733046 4.63331e-20)
(0.986333 -0.0756968 1.99961e-20)
(1.08582 -0.109585 0)
(1.19609 -0.126275 -6.25972e-20)
(-0.0429699 0.0889627 2.86415e-20)
(-0.0368104 0.100655 6.53758e-20)
(0.899731 0.0274394 -5.27733e-20)
(1.00002 -0.000415438 0)
(0.920968 -0.0504776 0)
(1.03644 -0.0057065 -3.14127e-21)
(1.00628 -0.00955942 0)
(0.986786 -0.0366306 1.19805e-20)
(0.999907 -0.004793 -2.68348e-21)
(1 -3.50716e-05 0)
(-0.01775 -0.0214674 -5.58471e-20)
(0.999908 -0.00136617 -9.64283e-21)
(1.14483 -0.16365 -9.04955e-22)
(1.08915 -0.0964522 7.51685e-22)
(0.492783 -0.0524778 5.687e-20)
(1.03231 0.000535015 2.56086e-21)
(0.974264 -0.0794634 1.50743e-20)
(-0.020352 0.0460283 4.13224e-20)
(0.354896 0.0207745 2.94945e-19)
(-0.0503127 -0.053671 4.79498e-20)
(1.19869 -0.0794877 -6.92687e-20)
(1.00982 -0.0156482 1.4521e-20)
(0.988296 -0.0788022 1.44551e-21)
(0.992096 -0.00860237 -1.42602e-20)
(1.12566 -0.377995 -4.36919e-20)
(1.01619 -0.00171155 0)
(-0.100025 -0.0911357 6.71797e-20)
(0.901328 -0.396177 1.95466e-20)
(1.05801 -0.276147 -1.95936e-20)
(-0.0941158 -0.0124367 -7.60121e-20)
(-0.130078 -0.205221 0)
(1.00039 -0.00246363 0)
(0.99593 -0.0164391 0)
(1.08568 -0.101385 -1.23935e-19)
(1.13424 -0.368033 -1.50557e-20)
(0.981208 -0.00110293 -1.16707e-20)
(-0.129374 0.00959255 0)
(1.0004 -0.00264286 5.8648e-21)
(0.99952 -0.00130686 0)
(0.458341 -0.773132 0)
(1.01563 -0.00523166 5.09542e-21)
(1.23205 -0.0694404 -4.75794e-20)
(1.03243 -0.00375122 -2.20874e-22)
(-0.118417 -0.235325 -3.11604e-21)
(0.998173 -0.00262844 1.51464e-20)
(1.04886 -0.0188589 -3.59047e-21)
(-0.176165 -0.13475 -6.21277e-20)
(0.606192 0.0612178 0)
(1.1595 0.0652588 -3.2612e-20)
(0.906608 -0.0191118 -5.86058e-22)
(1.00077 -0.00373338 2.39949e-21)
(1.00124 -0.0222164 2.02182e-20)
(0.0247947 -0.0791568 -6.78847e-20)
(1.12484 -0.152867 -4.37288e-20)
(1.02794 -0.00617194 2.90846e-22)
(0.999522 -0.000371846 0)
(0.876153 -0.112436 -4.01335e-20)
(0.832679 0.0615125 -5.50591e-20)
(1.15457 0.0705888 -2.86531e-20)
(-0.134303 0.0488834 -3.25332e-21)
(0.999586 -0.000739382 1.11869e-20)
(0.996474 -0.011566 -4.70477e-23)
(0.61615 -0.422812 5.63615e-20)
(1.00081 -0.00367044 6.90552e-21)
(-0.0422959 -0.0125879 0)
(0.557082 -0.464286 1.65336e-19)
(0.99703 -0.00143452 0)
(0.996625 -0.00593716 -1.06512e-21)
(1.05536 -0.0183314 -1.82857e-22)
(1.00051 -0.00298043 -5.20152e-21)
(1.03369 -0.0159386 1.0613e-21)
(-0.118256 0.0041772 -5.68076e-20)
(0.727458 -0.0440443 0)
(0.905523 -0.174087 0)
(0.883624 0.0430884 0)
(1.07036 -0.00115126 -1.01043e-20)
(1.15152 -0.0759489 -9.63784e-21)
(0.915711 0.00930965 -9.59594e-21)
(-0.0606605 0.0565136 -2.69123e-20)
(0.898171 -0.0136019 -2.52349e-20)
(0.999947 3.37687e-05 -1.30281e-23)
(1.06577 -0.0617229 0)
(1.06205 -0.425613 -2.33009e-20)
(0.978861 -0.0142207 -1.35964e-20)
(0.981843 -0.0120398 -4.64781e-22)
(0.975181 -0.0101295 7.84602e-21)
(1.01589 -0.00166417 0)
(0.998727 -0.00875183 0)
(1.01766 -0.0282374 -3.9489e-22)
(0.996424 -0.00187374 -4.46403e-24)
(1.00029 -0.00201404 4.37126e-21)
(0.965182 -0.051558 -2.61338e-20)
(1.08567 -0.0307502 0)
(1.25201 -0.0416196 -1.06111e-19)
(1.01727 -0.000361461 0)
(0.216391 0.171202 -5.51437e-23)
(0.914153 -0.0434098 0)
(0.907309 -0.420805 0)
(-0.0394173 0.163105 0)
(1.04114 -0.00308596 -3.83985e-21)
(-0.126465 -0.137378 1.19873e-19)
(1.07103 -0.260445 1.03889e-20)
(1.04008 -0.00499168 0)
(1.01614 -0.00234911 9.51795e-22)
(0.983028 -0.0231889 6.14725e-21)
(-0.0974201 -0.0994461 -5.96416e-20)
(1.22328 -0.0791337 -3.71973e-20)
(1.01632 -0.00221283 0)
(0.998519 -0.00131823 6.19123e-21)
(0.999639 -0.000865354 4.23242e-21)
(0.71375 0.152461 5.5486e-20)
(0.944968 -0.385969 -7.68486e-21)
(0.196106 -0.00279582 -9.34582e-21)
(1.00309 -0.00154819 0)
(0.984432 -0.00277738 1.40074e-20)
(0.851802 -0.0295371 0)
(-0.171834 0.0512922 0)
(-0.1664 -0.0331671 2.86231e-20)
(0.931362 -0.0233966 0)
(1.07051 -0.0236947 -1.17597e-20)
(-0.225694 -0.103196 -6.04509e-20)
(0.518514 -0.0522584 6.00485e-20)
(1.31558 -0.0572411 0)
(0.973526 -0.0325966 0)
(1.00901 -0.0167029 5.99173e-21)
(-0.0904605 -0.0332479 -4.27676e-20)
(0.993866 -0.0137348 1.90442e-22)
(0.977654 -0.364899 -4.2071e-21)
(0.437887 -0.0548458 -3.99023e-20)
(1.02737 -0.00568911 -2.67953e-22)
(0.586996 -0.333764 -6.40851e-20)
(1.07239 -0.0871395 8.20856e-21)
(-0.0843737 0.0362136 1.49025e-21)
(1.0016 -0.0215778 -1.19647e-20)
(-0.0864946 -0.0933622 8.0468e-20)
(1.24357 -0.215661 0)
(1.09427 0.00220381 1.67588e-20)
(1.11647 -0.21097 0)
(0.995019 -0.0140801 -2.77575e-21)
(0.796068 -0.633133 0)
(0.998034 -0.00216526 -6.61833e-21)
(0.997129 -0.0164469 0)
(0.999942 -0.0010372 9.5264e-21)
(0.994037 -0.00969064 1.38171e-21)
(-0.0720326 -0.0908019 0)
(0.995376 -0.0151814 -5.80005e-21)
(1.03618 -0.00954651 -8.66898e-22)
(0.94549 -0.0178807 0)
(1.03152 -0.00488373 0)
(1.00866 -0.0171419 -6.385e-21)
(1.02158 -0.213273 -2.02833e-21)
(0.978341 -0.0591291 1.85171e-20)
(1.13972 -0.0245772 7.2423e-20)
(1.00166 -0.0044958 0)
(1.00151 -0.00428471 0)
(-0.0258863 0.0353852 -4.21671e-20)
(0.644252 0.0639581 1.23054e-19)
(0.934237 -0.0227984 -2.80954e-20)
(-0.220191 -0.0906508 3.20035e-20)
(1.08223 -0.030855 8.12451e-21)
(0.981065 -0.0406869 -2.79301e-20)
(0.993484 4.38031e-05 -1.12342e-20)
(1.03448 -0.0154522 1.2405e-21)
(-0.00885353 -0.0229094 -6.18942e-20)
(1.03621 -0.00861683 0)
(1.00146 -0.000620252 -1.78227e-21)
(-0.236827 0.0309259 0)
(0.436549 -0.0426257 -1.30402e-19)
(0.933845 -0.179424 0)
(1.00244 -0.0106478 0)
(0.999987 -3.24867e-05 -1.8298e-20)
(1.04058 -0.035121 -9.84045e-22)
(0.999927 -0.000638578 0)
(-0.212984 -0.0904009 -9.74967e-20)
(0.969305 -0.0270438 -2.08311e-20)
(0.0849133 -0.108363 1.13104e-20)
(1.08142 -0.0130577 1.499e-20)
(0.319522 0.495979 0)
(0.999951 -0.00020569 -9.50683e-21)
(-0.155746 0.0329901 0)
(1.00978 -0.000385164 3.29652e-21)
(1.025 -0.393019 6.65355e-22)
(0.992829 -0.01281 7.5991e-21)
(1.21969 0.0553628 0)
(-0.0248235 -0.0155399 0)
(0.998238 -0.00190501 -1.25867e-20)
(0.197055 -0.0375733 -7.14388e-20)
(0.989194 -0.0147036 0)
(1.00013 -0.000109014 7.99782e-21)
(1.02669 -0.0100603 0)
(0.00785971 -0.0879682 3.71315e-20)
(-0.0724346 -0.0161127 -6.27692e-21)
(0.981987 -0.022273 1.44468e-20)
(1.07619 -0.0896347 -4.83963e-21)
(1.03637 -0.00667027 0)
(-0.224332 -0.109415 -1.88354e-19)
(1.01779 -0.000441894 0)
(1.04774 -0.194637 3.83006e-21)
(-0.093703 -0.0924679 -5.94727e-20)
(0.909417 0.0126624 1.54626e-21)
(1.00202 -0.00110981 0)
(0.792244 -0.129583 6.98656e-20)
(1.00007 -0.000475969 -1.01007e-20)
(1.04257 -0.0351903 0)
(1.03273 -0.0200078 0)
(1.24579 -0.0336133 4.78548e-20)
(1.00347 -0.00433578 5.52062e-22)
(-0.227808 -0.119863 -1.15709e-19)
(1.00133 -0.00419968 0)
(0.989992 -0.0414055 -1.06603e-20)
(1.15225 -0.00182826 4.54284e-20)
(0.742536 -0.226279 1.22992e-19)
(0.902505 -0.0566488 0)
(1.01977 -0.0248058 5.61397e-22)
(-0.120629 0.0373064 0)
(0.996418 -0.0168442 0)
(0.958103 -0.405778 1.70919e-22)
(0.985756 -0.00843432 -2.37173e-21)
(1.05171 -0.0221581 4.78407e-22)
(0.994239 -0.0142468 1.0739e-20)
(1.00126 -0.00427578 0)
(0.999961 -9.91936e-05 0)
(0.950445 -0.422901 -2.73591e-22)
(1.13499 0.0518357 2.20259e-20)
(0.151284 -0.0342132 1.06982e-19)
(1.18744 -0.192646 2.55835e-20)
(0.826295 -0.0485694 0)
(0.89444 -0.131986 4.10027e-20)
(0.51983 -0.750407 0)
(1.05975 -0.0569852 0)
(-0.204824 -0.081229 1.52577e-19)
(-0.139495 -0.11299 7.63557e-20)
(1.01953 -0.411622 -2.72488e-20)
(0.737311 -0.172191 4.85623e-20)
(0.571605 -0.0538496 1.41569e-19)
(0.99005 -0.383405 4.50492e-21)
(1.04365 -0.0341563 -1.01856e-21)
(0.0618709 -0.118032 4.95855e-20)
(1.15114 0.00361356 2.72839e-20)
(1.0493 -0.021973 2.89567e-21)
(1.03419 -0.424303 3.47376e-20)
(1.00005 -0.000418438 9.50697e-21)
(0.805786 -0.505627 0)
(0.941397 -0.167685 4.39181e-21)
(1.29905 -0.105433 0)
(0.886838 0.0328172 4.87969e-20)
(-0.0324699 0.112204 0)
(-0.188489 -0.078875 6.47225e-20)
(1.14679 -0.0063262 -1.26278e-21)
(1.28464 -0.0986488 0)
(0.999725 -0.00040182 1.33732e-21)
(0.962637 -0.506897 0)
(0.945313 0.0142606 0)
(0.993184 -0.0123721 -8.00239e-21)
(0.984824 -0.0358931 -1.9182e-20)
(1.06593 0.0122867 -9.52466e-21)
(1.11834 -0.148826 -2.22834e-21)
(-0.0968126 0.000261314 2.10127e-20)
(0.82787 -0.448519 -2.23493e-21)
(-0.207377 0.0225273 8.04069e-20)
(1.05416 -0.0571237 2.44099e-21)
(0.953223 -0.0545761 -5.3157e-21)
(-0.0834325 0.0345316 -4.33199e-20)
(0.420555 0.151913 -3.60368e-19)
(1.06659 -0.0262863 0)
(1.18852 -0.0867842 0)
(0.963935 -0.0303272 -1.5107e-20)
(0.229831 -0.681104 6.40037e-20)
(-0.157677 -0.134989 0)
(0.996915 -0.00181226 0)
(0.692201 0.110834 -5.0007e-20)
(0.640176 -0.387403 -9.49829e-20)
(-0.172565 -0.107048 2.62136e-22)
(1.00351 -0.00139448 -8.14197e-21)
(0.917858 -0.0561914 3.45606e-20)
(-0.00812338 -0.0548056 5.32847e-20)
(1.11195 -0.0415978 0)
(0.164032 -0.0623762 2.4763e-20)
(1.22518 0.0486782 2.83554e-20)
(0.530607 -0.0483812 0)
(0.941971 -0.0800423 0)
(1.05977 -0.0608799 0)
(1.02298 -0.0358937 0)
(0.984923 -0.00422523 0)
(1.31578 0.062531 1.51925e-20)
(0.999993 -0.000113276 -9.23269e-21)
(1.27885 0.0723159 -1.71642e-20)
(1.21271 -0.179877 0)
(1.0284 -0.284336 5.18698e-21)
(1.00003 -0.000204478 2.50446e-23)
(1.0001 -0.000895893 0)
(1.07206 0.00356222 -5.62591e-21)
(1.0481 0.0026828 -3.0543e-22)
(1.00693 -0.00118861 0)
(0.98609 -0.0145507 9.2464e-21)
(1.17936 -0.190201 -6.47085e-20)
(-0.0820748 -0.100193 0)
(0.036462 -0.0245848 0)
(1.00001 -0.000248394 -6.1423e-21)
(1.1097 -0.378408 3.86593e-20)
(1.00196 -0.00941091 -1.63236e-20)
(-0.137958 -0.126304 0)
(1.17172 -0.0288643 -3.36575e-20)
(0.770789 -0.0800974 7.60263e-20)
(0.834604 0.0519094 6.7788e-20)
(1.24252 -0.207396 -5.77805e-20)
(1.01058 -0.00590237 1.87828e-21)
(0.998782 -0.00535535 -1.42849e-20)
(0.807567 -0.128511 -3.67278e-20)
(0.993115 -0.0136638 -1.34943e-20)
(1.03901 -0.03417 -1.29254e-21)
(1.17487 -0.113322 0)
(-0.0587097 0.0161355 -7.21775e-20)
(1.03056 -0.00930333 1.29575e-21)
(1.31915 0.0478714 0)
(-0.173619 -0.0493574 9.15388e-20)
(1.0754 -0.0514478 -1.24396e-20)
(-0.162219 -0.180107 4.39913e-20)
(-0.174829 -0.0575309 -4.98681e-20)
(1.01817 -0.0296069 0)
(1.14444 -0.145477 -2.57845e-20)
(1.10067 0.00502141 5.97277e-21)
(1.01845 -0.0404998 -5.52019e-21)
(1.02576 -0.0100554 8.29847e-23)
(0.609453 -0.10064 -3.6881e-21)
(-0.178561 -0.047488 -9.19137e-20)
(-0.201234 0.0339921 -3.05239e-20)
(0.977778 -0.0152053 1.47312e-20)
(0.99527 -0.00186753 -5.63846e-21)
(1.023 -0.0137806 0)
(1.07316 0.0217273 -6.34844e-21)
(0.981668 -0.0593359 0)
(0.967084 -0.0708284 0)
(0.529482 0.472926 0)
(1.17199 -0.0222482 -3.15799e-20)
(1.0003 -0.00218115 0)
(0.704736 -0.0836679 -1.65353e-19)
(1.11437 -0.0497206 -9.44235e-21)
(0.83627 -0.0514436 0)
(1.03925 -0.0322479 1.69437e-22)
(-0.283924 0.00823138 -2.46718e-19)
(1.07549 -0.0258236 -1.589e-21)
(1.00455 -0.00323977 5.08916e-21)
(1.03961 -0.284297 -1.02736e-20)
(0.150997 0.157742 0)
(1.0289 -0.00615647 2.63146e-22)
(0.996544 -0.00144733 0)
(0.99271 -0.00812314 2.81976e-21)
(1.08994 0.0034171 1.79771e-20)
(1.01064 -0.0055697 1.93286e-21)
(1.14841 -0.0113509 1.30856e-20)
(1.24217 -0.148239 4.21181e-21)
(0.992298 -0.0455113 0)
(1.24808 -0.0279432 -5.19553e-20)
(1.06393 -0.0262788 5.0621e-22)
(1.03736 -0.0308674 1.12007e-21)
(0.851298 -0.059637 -5.85526e-20)
(-0.111651 -0.121185 -1.20093e-19)
(1.25894 -0.0227639 -9.32273e-20)
(0.999025 -0.00487652 0)
(1.03031 -0.00581932 1.1848e-21)
(0.445363 -0.0364233 8.83801e-20)
(0.90387 -0.0114927 0)
(0.931591 0.0222589 -1.07411e-19)
(1.02833 -0.00472153 -1.8935e-22)
(0.98825 -0.014558 -1.05308e-21)
(-0.238739 0.00184489 9.72622e-24)
(0.0574926 -0.12897 1.83868e-20)
(1.07961 -0.103452 -1.1603e-20)
(1.24067 -0.0583752 0)
(0.689792 0.0493222 -3.50114e-20)
(0.99516 -0.0168511 0)
(1.00002 -0.000172631 -7.20905e-21)
(1.01438 -0.0393405 3.20289e-22)
(-0.130695 -0.0965181 1.46508e-19)
(1.00161 -0.000773636 -7.11884e-21)
(0.999997 -4.21664e-05 -1.51468e-20)
(-0.0489785 0.0785758 -1.09932e-19)
(0.891986 0.0330426 0)
(1.21148 -0.257162 -4.8227e-20)
(0.83982 0.0332268 -5.59363e-22)
(1.00252 -0.00973181 -5.92218e-21)
(-0.101473 -0.120999 1.01482e-19)
(0.999996 -0.000323429 0)
(0.987389 -0.0104971 0)
(1.01312 -0.0385301 0)
(0.909005 -0.111376 4.52297e-20)
(-0.0283296 0.0782616 4.87314e-20)
(0.999879 -0.0023497 1.605e-20)
(0.992659 -0.000346315 -4.00498e-22)
(0.992716 -0.0140865 -1.52761e-20)
(0.994682 -0.0154866 5.78255e-21)
(1.0022 -0.00978977 0)
(1.02262 -0.0371909 0)
(0.635458 -0.145759 -1.08321e-19)
(0.901453 -0.115294 -5.90637e-20)
(0.965398 -0.0480757 -2.49681e-20)
(0.999961 -0.00384486 1.59395e-20)
(0.893209 -0.109178 -1.34039e-20)
(1.15766 -0.147055 -2.04965e-20)
(1.09486 0.00902967 0)
(0.882928 0.038409 -7.53327e-20)
(1 -7.67723e-05 7.98663e-21)
(1.02298 -0.0130928 2.13662e-22)
(1.00073 -0.074249 6.72402e-21)
(-0.0537394 -0.0184426 2.84593e-20)
(0.0274959 -0.141423 -1.88596e-20)
(1.06771 -9.57768e-05 0)
(-0.205927 0.0189805 0)
(0.999697 -0.000259021 -1.23451e-20)
(0.942176 -0.0745578 0)
(1.22748 -0.393094 4.97358e-20)
(0.152162 -0.11117 0)
(1.02471 -0.0251535 0)
(0.999865 -0.00185379 -9.53065e-21)
(0.436231 0.25003 0)
(1.17596 -0.0691995 0)
(1.00484 -0.00330521 -9.45649e-21)
(0.99991 -0.00033082 1.95443e-20)
(-0.224525 -0.113894 1.71018e-19)
(1.00002 -0.000127716 7.68185e-21)
(1.12081 -0.207373 3.08681e-20)
(0.996321 -0.00589918 5.56034e-22)
(0.346249 0.0595103 -1.87848e-19)
(0.999917 -0.000417349 2.11541e-20)
(1.01075 -0.000227725 1.04092e-21)
(0.998643 -0.001387 -7.03925e-21)
(1.04978 -0.124862 1.22535e-21)
(1.04661 0.00302113 -2.81708e-22)
(0.928575 -0.0458969 2.93631e-20)
(0.903395 0.0248993 -3.44527e-20)
(0.540254 0.135762 1.32201e-19)
(1.00539 -0.0099597 7.26676e-21)
(0.998955 -0.00856938 -8.7882e-21)
(1.00005 -0.000290236 -4.30643e-21)
(0.997543 -0.0168127 3.36984e-21)
(1.04473 -0.0312471 3.18409e-21)
(1.04649 -0.0103482 3.67385e-24)
(1.08942 -0.101908 8.93297e-21)
(0.998318 -0.00153031 9.47288e-22)
(1.1843 -0.0326865 3.12671e-20)
(-0.013967 -0.0628202 0)
(1.13324 -0.11402 4.7611e-21)
(1.17854 -0.119463 0)
(0.999625 -0.000570711 -1.26483e-20)
(1.03365 -0.0193869 0)
(-0.226912 0.00168102 -1.13023e-19)
(0.257314 -0.0442457 6.92833e-20)
(1.02535 -0.00929323 -7.08084e-22)
(-0.172756 -0.157786 5.26901e-20)
(-0.266037 0.0115546 -9.38915e-23)
(1.0306 -0.00623537 -1.44216e-21)
(0.992361 -0.000798678 1.32989e-20)
(1.00164 -0.0151123 -1.05663e-21)
(1.0938 -0.267386 -1.72803e-20)
(1.18759 -0.028955 7.15606e-21)
(0.133991 -0.0721032 2.61311e-19)
(1.00603 -0.00987347 5.0795e-21)
(1.01687 -0.0963942 1.80106e-21)
(1.0063 -0.00730215 1.93623e-21)
(0.964789 -0.025992 2.51164e-20)
(1.00983 -0.000320164 -1.07296e-21)
(1.00876 -0.300545 -4.41874e-21)
(1.04527 -0.029819 -4.31262e-21)
(1.19565 -0.264244 -5.48163e-20)
(0.999232 -0.00421598 7.48649e-22)
(0.886952 -0.250319 -4.16652e-20)
(1.00462 -0.00922925 0)
(0.958411 -0.0510822 2.94947e-20)
(0.985666 -0.0104374 -1.22015e-21)
(1.13161 0.045414 -4.05205e-20)
(0.729261 0.15116 0)
(-0.240937 0.0306934 0)
(0.376389 -0.0408122 -3.83987e-21)
(-0.193936 -0.153116 0)
(1.16593 -0.0742395 0)
(0.987724 -0.0155752 2.62984e-20)
(0.536003 -0.698733 0)
(0.0729103 -0.0810389 3.55738e-19)
(1.20124 -0.0287827 3.67932e-20)
(1.04231 -0.0277768 -4.34262e-22)
(0.999812 -0.00466656 -6.29277e-21)
(0.172427 0.277109 1.37391e-19)
(1.00194 -0.0156357 1.08708e-21)
(-0.0297826 0.0834299 4.35326e-22)
(1.03312 -0.00243183 -1.06909e-21)
(1.11802 -0.0138621 -3.42789e-20)
(1.04865 -0.0291082 5.7759e-21)
(0.999959 0.000169652 1.34608e-20)
(1.02448 -0.0264512 0)
(0.328794 -0.0397918 1.07604e-19)
(-0.122356 -0.0932256 -9.79208e-20)
(-0.0310725 0.0924626 5.06935e-20)
(0.662162 0.0703134 -1.6149e-19)
(-0.195904 -0.00267902 9.90779e-20)
(0.993912 -0.00916502 -1.16802e-20)
(-0.152464 -0.103166 -6.93862e-20)
(0.0592495 0.0227429 1.82054e-19)
(1.00002 -8.98602e-05 -1.2833e-23)
(0.989338 -0.0393534 1.04728e-20)
(1.01212 -0.00774934 3.2138e-21)
(0.717415 -0.0444327 0)
(1.02652 -0.00581051 0)
(-0.186243 0.034023 1.40295e-19)
(0.843543 -0.0346857 0)
(1.23377 -0.14427 -7.04201e-20)
(1.00529 -0.0510441 0)
(1.17056 -0.408782 3.808e-20)
(-0.0994567 -0.00219333 2.98508e-20)
(0.163953 0.0711999 -2.5678e-19)
(0.924259 -0.111302 0)
(1.10406 -0.0915353 -2.02439e-20)
(1.00183 -0.00115096 -2.24428e-21)
(0.292254 -0.114131 -1.06504e-19)
(1.02767 -0.00369715 0)
(0.408878 0.347815 0)
(1.26061 -0.157307 6.64587e-20)
(0.781972 -0.232076 4.9043e-20)
(0.0959595 0.0105612 -9.60497e-20)
(-0.0764048 -0.0895892 1.34916e-19)
(1.07072 -0.0478158 -1.1614e-20)
(1.00735 -0.0748256 -5.8761e-21)
(1.00361 -0.00468858 0)
(1.22018 0.0731882 9.417e-20)
(-0.175772 0.0609858 -1.06466e-19)
(-0.154689 -0.00829842 0)
(1.01128 -0.00734391 3.60054e-21)
(0.218177 0.666198 7.88778e-20)
(1.09082 0.00977719 0)
(1.25598 -0.0551958 -5.45926e-20)
(0.566518 0.138388 -1.6313e-19)
(-0.0637326 0.0101653 -3.12804e-20)
(-0.0473451 0.00575118 -5.82676e-20)
(1.03481 -0.00139088 9.90846e-23)
(0.910508 -0.0467974 4.20909e-20)
(1.12213 -0.0396944 -5.17086e-21)
(1.08177 -0.00984587 5.76182e-21)
(1.07411 0.00518397 -6.78044e-21)
(0.0678237 -0.152632 1.88794e-20)
(0.999674 -0.000998301 0)
(0.223467 -0.014163 -9.42361e-20)
(1.01767 -0.000336514 -5.83405e-22)
(1.03377 -0.00110367 2.73639e-21)
(1.08594 -0.248441 -3.79267e-20)
(1.24831 -0.064592 -1.57775e-21)
(0.781639 -0.0404328 -1.01815e-19)
(1.04728 -0.0455441 1.56083e-21)
(0.705363 -0.350757 1.15614e-19)
(0.73383 -0.197485 1.07232e-20)
(1.20688 -0.36127 -8.45479e-20)
(0.895216 0.0262696 3.56706e-20)
(1.0001 -0.000450978 -5.30889e-21)
(1.04534 -0.0466149 5.02192e-24)
(1.00012 -0.000468754 1.2488e-20)
(0.983758 -0.0113569 5.00572e-21)
(1.19975 -0.373767 0)
(1.04121 0.0454382 1.43216e-19)
(1.02506 -0.046282 -1.12571e-22)
(0.984833 -0.00883624 1.25773e-20)
(1.1284 -0.0332809 0)
(0.190471 -0.117388 0)
(1.00733 -0.10233 -7.84944e-21)
(0.98611 -0.00111442 -2.78484e-21)
(0.384404 0.14479 3.7441e-19)
(0.992761 -0.00953515 1.05682e-20)
(0.99997 0.000124098 -1.25126e-20)
(1.02832 -0.00404778 -3.49468e-22)