/*--------------------------------*- C++ -*----------------------------------*\
| =========                 |                                                 |
| \\      /  F ield         | OpenFOAM: The Open Source CFD Toolbox           |
|  \\    /   O peration     | Version:  v2012                                 |
|   \\  /    A nd           | Website:  www.openfoam.com                      |
|    \\/     M anipulation  |                                                 |
\*---------------------------------------------------------------------------*/
FoamFile
{
    version     2.0;
    format      ascii;
    class       volVectorField;
    location    "450";
    object      ddt0(U);
}
// * * * * * * * * * * * * * * * * * * * * * * * * * * * * * * * * * * * * * //

dimensions      [0 1 -2 0 0 0 0];


internalField   nonuniform List<vector> 
10042
(
(0.00858503 0.0167915 3.73599e-19)
(0.0143784 -0.0163211 2.42254e-18)
(-0.0361507 0.00667394 1.53692e-18)
(0.00030279 5.80257e-05 -9.99754e-20)
(-0.00126394 -1.7905e-06 -6.3386e-19)
(0.0723926 0.0668045 5.96998e-19)
(0.0880481 -0.0229275 -4.80855e-18)
(-0.0118233 -0.12795 -1.73167e-18)
(-0.000151047 -0.000274732 -7.84124e-20)
(0.0252977 0.0115594 -1.99998e-19)
(-0.0347563 0.0220405 1.10166e-18)
(0.00803786 -0.0158709 2.84658e-18)
(-0.000601116 -0.0192355 -3.4497e-18)
(5.18703e-05 -0.00208521 -3.06207e-19)
(0.000379731 -0.000854974 -1.27844e-18)
(0.000357023 -0.00210555 -8.56649e-19)
(0.0391572 0.175019 -3.37579e-18)
(-0.0318501 0.0291354 -3.92993e-19)
(-0.0017609 -0.00543227 2.49886e-18)
(-0.00356725 0.0113427 -1.57916e-18)
(0.00128443 -0.0191963 1.4331e-18)
(0.00605991 0.0172295 -3.1297e-20)
(-0.000511977 6.16682e-05 2.18521e-19)
(0.0139334 -0.142713 2.50039e-18)
(-0.000598281 -0.000109587 1.2902e-19)
(-8.21645e-05 2.13208e-05 2.72909e-19)
(0.0226771 0.01144 6.2601e-20)
(0.000137313 -0.000113236 7.04653e-20)
(0.0658198 0.0926347 -3.6744e-21)
(0.00298825 -0.177794 3.88926e-18)
(-6.39024e-05 2.69294e-06 6.51187e-19)
(-0.0187127 -0.0135894 -4.75673e-19)
(-0.000347481 -0.000246813 -7.70128e-20)
(-0.000547941 -0.000223235 5.80115e-19)
(-0.0182836 -0.107977 3.3515e-18)
(0.0139485 -0.0618067 -4.2776e-18)
(-0.00109404 -1.58396e-05 2.73165e-19)
(0.000113939 7.15462e-05 5.84747e-19)
(-0.000505692 6.72012e-06 3.33006e-19)
(0.00225624 0.00137754 2.92922e-20)
(0.0094051 -0.16804 -4.90813e-18)
(-0.000375531 -0.000239616 5.69869e-19)
(-0.000753723 -0.0864951 2.83731e-19)
(-0.0692259 -0.0112119 2.42911e-20)
(-0.00039218 0.000160366 7.38387e-20)
(0.000142087 -0.000150354 -8.00414e-21)
(0.000248539 0.000101721 1.09253e-18)
(0.00085465 -0.000781051 -3.54546e-19)
(0.0328556 -0.0087636 2.71278e-20)
(-0.301496 -0.226192 -1.28784e-17)
(-0.013928 -0.0996543 -8.06781e-19)
(-0.000350576 4.61939e-05 6.37858e-20)
(0.0516058 0.141057 5.24589e-18)
(-0.00121227 -0.0050555 -1.2409e-18)
(0.0282307 0.035141 2.86146e-18)
(0.208843 -0.0192153 -1.77495e-17)
(0.0022754 -0.0174936 -1.47513e-18)
(-0.020066 0.0131173 -4.80147e-19)
(0.000662033 -0.00056573 8.48622e-19)
(-0.00021861 0.000114669 3.15361e-20)
(0.0330876 -0.00566598 5.9046e-19)
(0.0442931 0.0368767 6.87294e-19)
(-0.00277777 -0.0787397 -1.06931e-17)
(-0.0206403 -0.13911 -1.45639e-18)
(-0.0296345 -0.0135195 -2.27209e-19)
(0.000537007 -0.00157965 -1.48523e-18)
(-0.00532946 0.0095182 -1.29835e-18)
(0.0211701 0.0172527 1.29773e-19)
(0.000171118 0.000172833 -1.08007e-20)
(0.0180646 0.0171212 -1.34323e-19)
(-0.146037 -0.136755 2.40792e-18)
(0.00241153 0.00378544 -6.26065e-20)
(0.00036455 0.000273112 -4.43273e-19)
(0.000597199 -0.000568834 5.95377e-19)
(0.000139736 -0.00134092 -1.52049e-19)
(-0.0993886 -0.118368 6.86098e-19)
(-0.0208511 0.00910394 -3.35118e-19)
(0.000233649 0.000119031 -9.74074e-19)
(-0.0199723 0.0121487 4.95684e-19)
(-0.00229738 -0.00531115 -5.9038e-18)
(-0.0769323 -0.0130598 -5.42438e-19)
(0.00997737 -0.164633 -4.68227e-18)
(-0.000242004 1.75539e-06 4.0542e-19)
(0.000260762 -2.64845e-07 4.56655e-19)
(0.0109492 0.017088 7.11193e-19)
(0.0506624 -0.00264 -3.82133e-18)
(-0.00545426 0.00839105 8.92709e-19)
(-0.0372264 0.00175267 6.16931e-19)
(0.000660319 0.00088605 2.10311e-19)
(-0.0230754 -0.00173264 9.06458e-20)
(-0.00134165 -0.01224 4.05257e-18)
(0.000131011 -0.000866141 1.15344e-18)
(0.00164785 -0.076144 8.997e-18)
(0.052136 0.000838982 3.96352e-18)
(-0.0255133 -0.0261904 1.517e-19)
(0.000302909 0.000744274 -2.1972e-19)
(0.00877376 0.144899 -4.6778e-17)
(-0.00396146 0.0101575 1.2783e-18)
(-0.0432605 -0.0143335 -1.68465e-18)
(0.000905794 -0.000654995 -2.3027e-19)
(-0.000842074 -0.0114831 -1.4782e-18)
(0.033481 0.0143855 8.17638e-20)
(-0.000147153 0.00145597 -1.99106e-19)
(-0.014809 -0.0106535 -4.49421e-18)
(0.000534375 -0.00741155 5.75887e-18)
(0.0011148 0.000801394 -1.73678e-19)
(0.102681 -0.0811183 -1.11611e-18)
(4.51268e-05 -0.00119333 4.29909e-19)
(0.0859047 -0.0150679 8.40453e-19)
(0.000608017 0.000795614 4.05902e-19)
(0.00134538 -0.000300886 -8.85633e-19)
(0.0727951 -0.0129075 1.98199e-18)
(0.0314025 0.0152789 -1.30491e-19)
(-0.0273081 -0.122663 5.85299e-19)
(-0.0248728 -0.0146846 -9.0524e-20)
(0.000229895 0.000252324 1.92835e-20)
(0.0193966 -0.00339129 6.99582e-19)
(-0.000508646 2.2857e-06 7.86578e-19)
(-0.0191692 0.0100902 5.14427e-19)
(0.000124466 0.000261614 1.25333e-19)
(-0.000212978 0.00013158 -3.91104e-20)
(-0.00737367 -0.000213786 -4.48281e-18)
(-0.0121762 0.00186809 2.63908e-18)
(0.000186287 0.000181854 -5.89358e-20)
(-0.0231087 0.00172732 1.51334e-19)
(0.000185918 0.00119959 6.87577e-19)
(-0.000697855 0.0013187 -1.08009e-18)
(0.0205811 0.0379285 -3.82385e-19)
(-0.0545107 -0.0553934 -5.01402e-18)
(0.019759 -0.00135514 4.25291e-19)
(-0.000147187 0.000110713 6.0058e-20)
(0.000947472 -0.000628024 -7.20596e-19)
(-0.000205062 0.00221622 -7.73701e-19)
(1.27662e-05 -0.000806233 6.61561e-19)
(0.0714108 -0.00708192 3.23391e-19)
(-0.0350779 -0.134679 -1.75933e-18)
(-0.00866656 0.00673514 -1.52381e-19)
(0.13227 -0.0867072 2.73874e-18)
(0.000935675 -0.00321836 -4.51324e-18)
(-0.0483369 -0.0121626 2.44882e-18)
(-0.00173658 -0.0495677 8.55517e-19)
(-7.86408e-05 -1.66698e-05 -1.72163e-19)
(0.0654926 -0.111417 1.00839e-17)
(0.000110717 -9.76721e-05 -8.75016e-20)
(0.0092803 -0.0032431 -1.51936e-19)
(0.000230839 9.60881e-05 3.66315e-19)
(0.0100801 0.0159909 1.36272e-18)
(0.000148835 0.000172435 3.32007e-19)
(-0.00156936 0.00383715 7.91515e-21)
(0.0371401 -0.00559609 -1.87281e-18)
(0.000695321 -0.00100697 -5.83687e-19)
(0.000199797 -7.29422e-06 3.88715e-20)
(0.00239258 -0.00388301 6.13143e-18)
(-0.00265667 -0.0240393 1.46159e-19)
(-0.0164599 -0.0238748 4.11133e-19)
(0.00997681 -0.00271744 -1.70203e-19)
(-0.0470653 -0.0546414 -5.69841e-18)
(0.249429 -0.0246692 9.31284e-18)
(8.82076e-05 0.00225878 -2.30254e-19)
(-7.47091e-05 1.50383e-05 -2.46535e-19)
(-0.000324996 5.89632e-06 6.3041e-20)
(0.00248098 0.00183971 -7.61913e-20)
(0.0170305 -0.113969 -9.3743e-18)
(-0.000181624 0.000989868 -1.82835e-21)
(0.000732983 -0.00244123 3.22687e-18)
(0.0407512 -0.0125001 -3.66686e-18)
(0.000277341 0.000343524 -2.30991e-19)
(-0.0155673 -0.0122359 4.52442e-18)
(0.00201693 -0.0786694 6.58176e-18)
(-0.00048655 -0.000188564 3.43469e-20)
(-0.00820413 -0.0304138 1.76072e-21)
(-0.00215761 -0.174002 4.294e-18)
(-0.0212514 0.0282319 3.17189e-18)
(-0.000553534 -0.00021558 -9.63804e-19)
(-0.000653872 -0.0051392 -4.9326e-18)
(-0.0221975 0.0176254 -3.06621e-18)
(-0.000609636 1.34621e-05 -2.44796e-19)
(0.000230415 9.37986e-05 -1.29199e-18)
(0.000485874 -0.000521027 5.52474e-19)
(0.000119285 0.000155074 -7.45094e-19)
(0.000703121 -0.00292358 4.54891e-18)
(0.00287898 -0.00715563 7.24685e-19)
(0.000607102 -0.000686051 2.16019e-18)
(0.000331636 0.000194072 -3.71175e-19)
(0.0228458 0.0124056 -9.32969e-20)
(-0.00540081 -0.0108565 5.80762e-18)
(0.00294161 0.00354365 2.41505e-21)
(-0.000204761 9.18571e-05 -4.21055e-20)
(-0.259342 -0.135425 -1.37197e-17)
(-7.90747e-05 -1.95227e-05 5.32339e-19)
(0.0173954 -0.0240224 -2.32951e-18)
(0.00402379 -0.0173001 4.29466e-18)
(-0.000430829 0.000150354 7.52646e-19)
(0.0028248 -0.00667408 3.38717e-18)
(0.0307141 0.0181114 2.33645e-19)
(0.000163274 -0.00080493 -1.50522e-18)
(-0.0962116 0.0345302 -4.10211e-19)
(0.0118694 -0.0235321 -2.75601e-19)
(-0.000375081 0.142594 -1.15511e-17)
(0.000190841 3.50017e-06 1.05235e-21)
(-0.106634 -0.0589697 1.59581e-17)
(-0.00475415 -0.0608765 -2.22547e-18)
(0.0501761 -0.0245041 2.57764e-19)
(0.00063773 -4.57611e-06 1.29427e-18)
(-0.0450938 -0.0240942 -3.54018e-18)
(-8.61729e-05 0.00189662 2.21221e-19)
(0.0320964 -0.0295521 -1.13158e-18)
(-0.00109295 -0.0231426 -3.66664e-18)
(0.00190091 -0.000203717 7.47435e-19)
(-0.00023811 -0.00084955 -5.22294e-19)
(-0.0176959 -0.0121393 -1.7078e-18)
(0.00053003 -2.88745e-06 -6.03509e-19)
(0.0575237 -0.0214063 -2.03144e-19)
(0.0400156 -0.0338255 -2.26952e-19)
(-0.0016373 -7.38008e-06 3.28665e-20)
(0.0178355 0.0106377 -7.24085e-19)
(0.000313363 1.83851e-05 -3.49681e-19)
(-0.0592815 -0.0130862 8.96522e-20)
(0.000328102 3.10936e-05 4.54905e-20)
(-0.0848287 -0.0618576 -1.07467e-17)
(-0.0895994 0.0630908 -4.0525e-18)
(-0.000249535 -0.0246894 2.91157e-20)
(-0.0895187 0.0692737 1.68669e-18)
(0.0168079 0.0133268 5.30037e-19)
(0.000544975 6.34549e-05 2.14769e-19)
(-0.0096031 -0.0642965 2.44855e-18)
(-0.00126025 0.00261619 1.01155e-19)
(-0.00851327 0.00579394 -1.34669e-18)
(0.0187095 0.00943407 -5.10165e-19)
(0.000245511 0.00133968 -7.54453e-19)
(0.000140291 0.000116119 4.23823e-19)
(-0.000323806 0.00155416 1.40085e-18)
(-0.00480445 -0.0109711 -2.59336e-18)
(-0.000175117 1.30972e-06 -1.65822e-20)
(-0.000827861 -2.67108e-05 2.26517e-19)
(-0.00314406 -0.111913 1.16211e-17)
(-0.00889533 0.00244583 -3.03872e-19)
(0.00824736 0.144047 4.35901e-17)
(0.00825523 -0.00285878 -1.52176e-18)
(0.0183524 -0.128956 -6.03921e-19)
(-0.0822359 -0.093076 6.70799e-18)
(-0.0347859 -0.0876059 6.84081e-18)
(-0.000217166 0.000147274 -2.5539e-21)
(0.00309078 0.0017619 3.23648e-20)
(0.0706452 -0.0271096 -2.24989e-18)
(-0.00125657 -2.98934e-06 -1.21352e-19)
(-0.0329937 -0.0901204 2.74139e-18)
(0.00803021 -0.00218013 1.22936e-18)
(0.00285201 -0.00414651 -4.17883e-18)
(-0.00104887 1.71068e-06 2.94869e-19)
(0.000116099 -0.00678475 -4.57304e-18)
(-0.000462807 0.000158251 -4.66934e-19)
(0.0380719 0.0285906 3.88111e-20)
(0.0431822 0.0325426 -1.12361e-18)
(-0.00211276 0.00346334 -7.85461e-21)
(-0.00784044 0.00196338 -2.29329e-19)
(0.000158319 -1.37199e-05 -5.65106e-19)
(-0.00320544 0.00333367 -5.45197e-20)
(0.014748 0.1447 -1.06036e-17)
(0.000383 4.8272e-05 -3.42412e-20)
(-0.0256575 -0.00352161 -5.07714e-19)
(-6.01286e-05 6.20227e-05 1.09551e-18)
(-0.000332852 4.12721e-05 2.76895e-20)
(0.000265538 9.64802e-05 -3.96616e-19)
(-0.00195939 -0.0207283 3.63089e-18)
(0.0458977 0.0314798 1.35362e-18)
(-0.0260153 -0.007494 2.45239e-19)
(0.0348739 0.0278534 5.831e-19)
(0.0011953 -4.06435e-06 5.06535e-19)
(-3.62642e-05 0.00169169 -1.53877e-18)
(0.00115029 -0.000223547 5.91737e-19)
(-0.243378 -0.218973 1.6032e-17)
(-0.00112108 -0.0010937 -1.17138e-18)
(-0.256036 -0.144242 -1.49257e-17)
(-0.00274833 0.00290686 -2.15634e-19)
(-0.0192147 0.000182799 -9.58134e-20)
(-0.000113343 -0.00241337 -1.22651e-18)
(-0.000929907 0.000105709 5.15635e-19)
(0.00118147 -3.13363e-06 -6.44216e-19)
(0.0537009 -0.0126685 -4.7255e-19)
(-2.61299e-05 -0.000132283 3.15742e-19)
(-0.0434645 -0.0306068 -7.26741e-19)
(-0.0859613 0.0315869 3.20552e-18)
(-0.000741567 -0.00225126 -2.68182e-18)
(-0.00417439 -6.37862e-06 5.14367e-20)
(-0.0380276 0.105918 -8.24629e-18)
(0.0178047 0.00653826 -2.84877e-20)
(0.000277912 0.00014528 5.69814e-20)
(0.00185167 0.0170999 -1.14882e-18)
(0.000298912 -5.63537e-06 -6.04327e-19)
(0.00593926 -0.0153508 1.49522e-18)
(0.0110266 0.0056801 -7.77528e-19)
(-0.00166599 -1.82737e-06 -1.99891e-19)
(-0.0438553 -0.0384403 3.24895e-18)
(-0.0288469 -0.0089354 1.0364e-20)
(0.00170735 -0.00157148 -8.76282e-19)
(0.0214601 0.0575751 4.52543e-19)
(-0.00915862 0.00444433 2.618e-20)
(0.00101687 -0.000231962 -2.16343e-19)
(0.0003202 1.26797e-05 -2.14529e-20)
(0.00192597 -0.00354017 -6.39244e-18)
(0.0474591 -0.0339125 -7.45644e-20)
(-0.000212598 8.78424e-05 -2.16536e-21)
(-0.0784147 -0.0641056 1.58825e-18)
(0.0181089 0.00438134 -7.27837e-19)
(0.0473696 0.0349623 -3.26167e-19)
(-0.00126117 -0.00147377 4.63864e-19)
(0.00339897 0.00235359 8.63961e-21)
(0.0288831 0.0622505 6.50223e-19)
(-0.0450391 -0.0220047 -2.98848e-18)
(-9.01983e-05 -6.15981e-06 -3.10628e-19)
(0.000456035 -0.000630535 5.93792e-21)
(-0.000204696 0.000668702 3.23681e-19)
(0.00146204 -0.00164051 1.09553e-18)
(0.0102085 0.00709967 1.15134e-18)
(-0.00044442 0.0167478 -1.7015e-18)
(0.000235539 7.82955e-05 2.18196e-20)
(0.0202378 0.012326 -1.04993e-19)
(0.0211314 -0.125952 -2.27695e-18)
(0.000212411 0.000246575 1.02085e-19)
(0.000330253 -1.39431e-06 4.35412e-21)
(-0.271625 -0.152796 1.25728e-17)
(-0.0175586 -0.00100042 1.95884e-19)
(0.0391096 -0.0215332 -5.65617e-20)
(0.0267335 0.003976 4.0764e-20)
(-0.00164692 -4.57322e-06 -1.55366e-19)
(0.00947474 -0.00771893 -6.7835e-19)
(0.000728103 -0.000392634 -6.32905e-19)
(-0.00863221 0.00372804 9.23098e-19)
(0.00609208 -0.0139159 2.14969e-18)
(-0.000347264 0.00181838 -1.23718e-18)
(0.0015252 0.000178766 -1.01022e-18)
(0.00948937 0.0137323 -2.0294e-19)
(-0.00023178 -4.91251e-06 -4.39095e-19)
(0.027255 -0.0697034 -1.94377e-18)
(0.00441436 0.0191176 1.86256e-19)
(-0.0316875 -0.150678 2.64577e-19)
(0.0390143 -0.0120159 -4.72714e-19)
(-0.000811774 0.000211692 8.47203e-20)
(0.0523461 -0.0100747 1.10083e-18)
(0.00395012 -0.0494079 -2.66397e-18)
(0.00735389 -0.0183776 6.18956e-18)
(-0.000185743 0.00016428 -1.86277e-20)
(0.00580001 -0.011823 -2.2569e-19)
(0.00022851 7.74818e-06 -5.01597e-19)
(0.000131597 0.000104444 -8.27931e-19)
(-0.000588587 -0.00056783 5.78078e-20)
(-0.000268565 6.38307e-06 -1.70809e-19)
(0.00438056 0.00627387 -4.29146e-19)
(0.00360863 0.145509 5.15175e-18)
(0.000723275 -0.00149678 3.97852e-18)
(-0.0283977 -0.0222542 1.3373e-19)
(0.00332188 0.00692877 5.13402e-19)
(0.0020716 -0.000519131 -4.89557e-19)
(0.0393068 0.0356356 1.05394e-19)
(0.0107704 -0.0094835 1.63303e-19)
(-0.000996764 0.00269901 1.80618e-20)
(-4.8515e-05 4.73181e-06 -7.76712e-20)
(-0.183423 -0.0196062 3.94255e-18)
(0.000274615 9.80697e-07 1.97549e-19)
(0.0013958 0.000639185 2.59045e-19)
(-0.00113055 -2.09577e-05 -2.67482e-19)
(0.00105325 -0.00228885 1.27256e-18)
(0.00335134 -0.140658 -2.62114e-18)
(0.0575852 -0.00715489 -8.98393e-19)
(0.000760016 -0.00269131 -8.89468e-19)
(0.000199822 1.59207e-05 -5.62523e-20)
(0.00180771 0.00669901 8.2983e-19)
(0.00283296 0.00632612 -4.11644e-19)
(0.0214372 0.055677 2.93128e-19)
(-0.000202821 0.000105085 -8.38576e-21)
(0.000592828 4.70973e-06 7.24822e-20)
(-0.00131489 -0.00116604 -8.45729e-21)
(-0.000216146 1.879e-05 1.40862e-22)
(0.0447106 -0.00196305 1.22294e-18)
(-0.00167071 -0.00135492 -1.04398e-18)
(-0.0188127 0.00391644 1.66311e-19)
(-0.0723729 -0.165936 4.82211e-18)
(0.097997 -0.0404599 -5.34032e-19)
(0.0433293 -0.00511693 1.66991e-19)
(0.00110686 0.000469752 3.40832e-19)
(-0.0808214 -0.149051 -4.86434e-18)
(0.0176283 0.0115023 -4.35033e-21)
(0.000519144 -0.000306747 1.90379e-19)
(-0.0118249 -0.0291414 4.54898e-18)
(0.000126771 0.000272298 1.76695e-19)
(-0.000341408 6.19601e-06 -1.85099e-20)
(0.000308076 0.000235047 -3.25819e-19)
(0.00170885 0.00100686 2.88251e-19)
(0.000340859 0.000104783 4.94459e-20)
(-0.00315762 0.00257802 -2.4709e-19)
(0.0346154 0.0230761 -2.38313e-18)
(0.000859042 -0.00150525 -7.83437e-19)
(0.0130581 -0.00369784 -6.11346e-19)
(0.0666965 0.00272619 9.76334e-19)
(0.0479255 0.0294701 -1.02797e-18)
(-0.000148627 1.67108e-05 1.80248e-19)
(-0.0240748 -0.118795 -7.24386e-19)
(-0.00462569 -1.01646e-05 -1.41745e-19)
(-0.0180985 -0.0153176 8.43491e-19)
(-0.000197718 4.35011e-05 -8.19073e-20)
(-0.0633371 0.0918218 -8.77614e-18)
(-0.00286741 -0.00123157 -2.8496e-19)
(0.0362148 0.0353206 -5.67705e-19)
(0.027027 0.136744 -1.84866e-17)
(0.00211125 -0.000746871 4.70764e-19)
(0.0053481 -0.0446641 -8.83719e-19)
(0.00384864 -0.00144199 -1.01179e-19)
(-0.0882075 -0.105143 -3.0775e-18)
(-0.0025587 0.0022053 6.20474e-20)
(-0.0191328 0.158749 2.73577e-18)
(0.00893607 -0.00663195 1.06788e-18)
(-0.0403058 -0.066732 -1.29603e-18)
(0.00144905 -0.00137463 -9.59745e-19)
(0.00540663 -0.108246 -1.83628e-18)
(0.00340239 -0.00219543 7.60055e-20)
(0.0119149 -0.00294596 1.71448e-18)
(0.0228794 0.0441385 6.8803e-19)
(0.000293311 2.78819e-05 2.51826e-20)
(0.00291643 -0.00207034 1.18876e-18)
(-0.000238857 -1.88136e-06 4.95483e-19)
(0.0691849 0.0146983 -8.49905e-18)
(-8.6311e-05 0.000123235 3.09457e-19)
(0.000312163 0.000191444 2.04918e-19)
(-0.00574828 -0.053071 2.28432e-18)
(0.00128613 -0.00619556 -1.98944e-19)
(0.0150609 0.0154471 1.7436e-19)
(-0.0225514 0.150624 1.9134e-18)
(0.000397411 4.88825e-05 -1.14124e-20)
(0.00552471 -0.0189751 -6.62245e-18)
(0.00188328 -0.0056328 -1.62089e-19)
(0.000195181 0.000150462 2.44896e-19)
(0.00962707 -0.00614236 -3.22633e-18)
(0.020187 -0.0694479 -3.46394e-18)
(0.00325645 -0.00160935 -6.13856e-19)
(0.00144117 -0.00200123 1.29964e-18)
(-0.0830558 -0.201167 1.1352e-18)
(-0.0204473 0.00584756 5.92726e-19)
(8.56165e-05 1.402e-06 -4.97404e-19)
(0.139182 -0.00846587 -6.3502e-19)
(0.000115777 -8.03231e-05 -4.20051e-20)
(0.00794954 0.00715537 -2.55768e-19)
(-0.0203128 0.00371874 -9.29369e-19)
(-0.270505 -0.134248 1.44588e-17)
(-0.152137 -0.178314 -7.92407e-18)
(0.0331834 0.0136212 -1.23786e-19)
(0.0108728 -0.0965402 -7.36393e-19)
(0.0631407 -0.0860488 6.78403e-18)
(-0.0204497 -0.137911 -4.48545e-18)
(0.000203338 0.000199646 -1.03326e-19)
(-0.0170872 -0.00414894 -6.29006e-21)
(-0.00265997 0.065447 -2.55881e-18)
(-0.0112644 0.0579693 3.08746e-18)
(-0.010217 -0.02772 -2.22151e-18)
(-0.00107042 4.8969e-05 1.43272e-19)
(-0.000588737 -0.000583059 3.87029e-20)
(-0.0228904 -0.0184431 2.49236e-19)
(0.0677474 0.0251652 1.18234e-17)
(0.000405785 0.000215463 7.23772e-19)
(0.000807685 0.000789431 1.81721e-20)
(-0.00114719 8.30218e-07 5.30646e-19)
(-0.000580452 4.99125e-05 -1.05619e-19)
(-0.00326501 0.000775671 9.39534e-19)
(-0.00372493 0.00125115 -2.64272e-19)
(0.00133834 0.000997032 -7.5097e-20)
(-0.000688026 1.95749e-06 3.45641e-19)
(0.00687419 0.0192495 -1.21033e-19)
(-0.00118213 -0.00200379 -3.63479e-19)
(0.00730705 0.008443 -9.22416e-19)
(-0.0158151 -0.0309853 -2.0433e-19)
(0.0825618 -0.0708497 1.18252e-17)
(0.000655584 -0.000382651 7.17895e-19)
(-0.0780787 0.0613207 7.02791e-18)
(-0.0609072 -0.172867 1.08998e-17)
(-0.0343246 0.00986786 -1.96562e-18)
(-0.0002025 -7.12816e-06 5.43064e-19)
(-0.00648482 -0.00596014 7.23509e-18)
(0.000324046 -3.78132e-06 1.9838e-19)
(0.0487436 0.0290841 -1.29295e-21)
(0.000960173 -0.000267447 -8.66829e-19)
(0.0132554 -0.0188452 7.6148e-20)
(0.0015716 -0.0013695 -1.71432e-18)
(-0.0433666 -0.00451454 -7.01965e-19)
(-3.16381e-06 -1.24991e-05 1.76416e-19)
(-0.000637462 -0.00680413 -2.89477e-18)
(0.000716063 0.000955592 -1.46938e-20)
(-0.0150195 -0.00463964 5.73679e-19)
(-0.0647628 0.03635 2.12374e-19)
(4.7356e-05 2.13034e-06 6.58128e-19)
(0.000364077 1.91928e-05 9.62478e-20)
(3.78966e-05 -0.000683714 5.56417e-19)
(-0.0301845 -0.05551 -5.02476e-19)
(-8.7533e-05 8.07306e-05 3.89774e-20)
(0.00938798 -0.0148086 8.35852e-20)
(-0.0342175 -0.0127886 1.57416e-18)
(0.00999855 -0.0435573 -5.71003e-20)
(0.00162098 -0.000482757 -5.49451e-19)
(0.0100299 -0.0171747 7.79254e-21)
(-0.0386237 -0.0388679 -2.81895e-18)
(0.120896 -0.0121153 1.09561e-17)
(0.00131112 -0.000185354 -4.26654e-19)
(0.000264759 7.10346e-06 6.29954e-20)
(-0.0423239 -0.0503342 2.30268e-19)
(-0.0260621 -0.0444208 3.36343e-18)
(0.0202682 -0.0120144 -2.28189e-18)
(0.052589 0.0226744 1.68529e-20)
(0.00012054 -5.47128e-06 8.66816e-20)
(0.0132117 0.0106938 4.27592e-21)
(0.0126679 0.00943186 -1.78712e-19)
(0.0128123 0.00352394 6.28265e-19)
(0.00640793 -0.00173918 -4.89256e-19)
(0.0268491 -0.0084923 2.48341e-18)
(0.00145752 -0.000602287 -1.67305e-19)
(-0.000780308 5.51296e-05 -9.09154e-20)
(0.00100124 0.000587213 4.14765e-19)
(-0.0323972 -0.0221718 2.06953e-18)
(0.00124587 0.000182137 -2.11333e-20)
(-0.0864024 -0.129457 2.87524e-18)
(0.00134649 5.36114e-05 -2.08075e-19)
(0.00108636 -0.000320246 1.1435e-18)
(0.000472 -0.000577394 -7.40819e-19)
(0.0118622 -0.0016863 3.86271e-19)
(0.0496874 0.0232887 1.2316e-19)
(0.000279999 0.0010951 -1.23838e-19)
(0.00164365 -0.00182128 -7.83811e-19)
(0.0559558 0.0200265 -2.67552e-19)
(0.00547577 -0.0270917 -9.13663e-20)
(0.00292267 0.0218877 -6.00208e-19)
(0.000421604 0.000956216 -6.3519e-19)
(0.000364499 -0.000968391 3.5405e-19)
(0.0154538 0.0110341 -5.64889e-22)
(0.119809 -0.0230025 -1.2365e-17)
(0.0014182 0.000480725 -4.47753e-19)
(0.000214845 6.64846e-05 -1.25178e-18)
(-0.0277877 -0.0127622 -1.08834e-18)
(0.000458449 0.000832553 -8.17095e-20)
(-0.000213358 0.000238232 1.24325e-19)
(0.0050592 0.0486597 -1.39836e-18)
(-0.00011336 0.000100434 3.35502e-19)
(0.0542996 0.0047349 1.58088e-18)
(0.000180201 1.7882e-05 2.43637e-20)
(0.0211439 0.00918241 2.34352e-19)
(-0.00294543 -0.00832385 -1.34134e-19)
(-0.0660806 0.0898353 5.25152e-18)
(0.00135584 0.000186358 6.72103e-20)
(-0.00613242 -0.00737767 4.92256e-18)
(0.000902414 2.50052e-05 6.98396e-20)
(0.00021616 0.000215582 1.03787e-18)
(0.0552038 0.0171677 -8.63337e-19)
(-0.000186484 0.000185704 -1.91621e-20)
(-0.0191554 -0.250134 2.39169e-18)
(0.019698 -0.0139215 3.43652e-18)
(-0.000271811 -0.000182162 -4.69469e-20)
(0.00887664 -0.00211522 -4.86727e-20)
(-0.0857378 -0.172526 1.47291e-17)
(-0.0746971 -0.0326134 1.11729e-18)
(-0.0107341 -0.0246889 1.01627e-19)
(-0.00034447 -1.90056e-06 6.39167e-19)
(0.000231991 0.000111754 1.24023e-18)
(0.00020722 0.000153586 6.55512e-19)
(-0.00170987 0.00116567 1.68257e-19)
(-0.0115908 -0.00690762 -2.45361e-19)
(0.000715448 0.00062185 -1.25849e-20)
(-0.0605667 0.0430223 2.21522e-18)
(-0.000508691 0.000559846 -1.14655e-19)
(-0.000241117 5.38999e-05 -7.67948e-21)
(0.0198084 0.0555636 5.63418e-19)
(0.00122794 -0.00731942 -1.61266e-18)
(-0.0137732 -0.00702516 -1.08731e-19)
(0.000219676 -1.05717e-06 2.48261e-19)
(-0.000639173 2.13633e-06 -2.26161e-19)
(0.0645413 0.0959099 -1.29197e-18)
(0.00317625 -0.134502 -8.86756e-19)
(-0.0018248 -0.00743758 -2.44367e-19)
(0.0293343 0.0122956 -1.40325e-18)
(0.000931774 -0.000183455 -1.4807e-19)
(-0.00553191 -0.00896888 -2.07642e-18)
(0.000619017 -4.79582e-05 5.84059e-19)
(-0.000184392 -0.000209852 4.05875e-20)
(4.12956e-06 -0.000933345 3.17454e-19)
(0.000482968 -0.00068733 -1.20687e-19)
(0.00154743 0.000352059 -2.38951e-19)
(-0.000111995 -1.81795e-05 7.68846e-19)
(-0.0435901 0.106372 1.21252e-17)
(0.00183345 -0.0012178 1.995e-18)
(0.0262298 0.0293877 -2.14637e-19)
(4.48226e-05 7.25317e-05 -5.24372e-20)
(0.00118741 -0.00637134 -2.1817e-19)
(0.000243646 7.22144e-05 -7.63864e-19)
(0.00483469 0.023749 7.33487e-19)
(-0.0668116 -0.0424455 -3.90165e-19)
(-0.000167901 -0.000132893 -4.28603e-19)
(-0.000672498 9.70365e-05 -2.8997e-19)
(0.0244365 0.00720708 -2.08095e-19)
(0.00542982 -0.0226583 1.68422e-19)
(0.00028048 4.19747e-05 8.02308e-19)
(0.0868159 -0.036179 -5.32993e-19)
(0.000426857 6.11889e-06 2.54866e-19)
(0.0043212 0.015226 -3.91031e-19)
(0.000136484 6.57188e-05 -8.66177e-19)
(-0.000802508 1.34118e-05 -1.19172e-19)
(-0.000175287 0.000195406 -1.52373e-19)
(-0.161823 -0.00634002 5.23549e-18)
(0.000232552 5.50392e-05 6.04776e-19)
(-0.00125807 0.000642435 -7.08038e-19)
(-0.00161817 -0.00168258 2.94229e-19)
(0.0858446 -0.0433347 1.25754e-18)
(-0.000187655 1.54307e-05 -4.47409e-21)
(0.000407797 -0.000862563 -2.14832e-19)
(9.38544e-05 -1.70573e-05 -9.4129e-20)
(-0.0461935 0.0124479 -1.06415e-18)
(-0.00047509 2.69649e-05 4.05632e-19)
(-0.000973441 0.000186863 -5.58352e-20)
(-4.8382e-05 -1.90842e-05 -4.41606e-19)
(-0.000625463 0.000210032 2.38264e-19)
(0.00686915 -0.00231883 1.73246e-19)
(-0.000644662 3.19467e-05 3.72777e-19)
(0.00140507 -0.00552532 5.8041e-19)
(0.000888947 -6.06905e-05 -5.77098e-19)
(0.0238233 0.137038 -5.78122e-17)
(-0.0884998 0.0354149 9.76268e-20)
(-0.0625046 -0.0066843 -2.61772e-18)
(-0.00279097 0.00185118 2.40187e-19)
(-0.00406264 -0.00447749 -9.7836e-18)
(0.000334579 3.36521e-05 4.57969e-20)
(-0.0132634 0.0492299 -8.02511e-19)
(-0.00318518 -1.00518e-05 4.12816e-19)
(0.0192198 -0.139694 -1.71442e-19)
(0.0451733 -0.00277923 -1.9939e-19)
(-0.0588922 -0.0181693 -2.84056e-18)
(0.00193713 0.0152842 4.15335e-19)
(-0.0270914 -0.104273 -9.71026e-18)
(0.0012582 -0.000172294 2.30154e-20)
(0.00122196 0.000262462 -9.01755e-20)
(-0.0203017 -0.0989946 7.66624e-19)
(-0.0449309 0.00850376 1.11753e-18)
(0.010277 -0.00605972 -2.35042e-19)
(-0.0346599 -0.0327847 7.84031e-18)
(0.00129683 -0.000892768 1.315e-18)
(-0.00243836 -0.117203 1.19743e-18)
(0.000447771 0.000180325 1.76201e-18)
(0.0016737 -3.41717e-06 -4.87494e-19)
(0.000754414 -0.000394744 -2.85356e-19)
(1.72278e-05 6.85337e-05 -3.93279e-19)
(0.000209965 7.68431e-06 2.38332e-19)
(-0.0244304 -0.0682814 -6.13041e-18)
(-0.000416007 -0.00230705 3.9645e-18)
(-6.93072e-05 2.27089e-05 -3.71529e-19)
(-0.00554132 0.0379603 8.75874e-18)
(-0.00137673 0.000458342 3.95178e-19)
(-0.00559467 0.0482184 -7.21845e-19)
(0.00172454 0.00142607 4.0188e-20)
(-0.00140163 -0.00191481 1.45788e-18)
(0.00624906 -0.0136515 6.73631e-19)
(0.00020358 -9.15263e-06 -6.40533e-19)
(0.0279459 -0.0909286 1.42825e-18)
(0.00136716 0.00036643 4.29535e-20)
(-0.000467728 -0.000547754 -3.98648e-19)
(0.0249934 0.0263369 -9.01128e-20)
(0.00124372 -0.000303296 -1.26461e-18)
(-0.000224216 6.60502e-05 -3.35361e-20)
(-6.5118e-05 3.51453e-06 -1.073e-18)
(0.000629677 0.000269479 -2.49022e-19)
(0.000434419 1.88019e-05 7.08315e-19)
(-0.00989343 0.0488834 6.99276e-19)
(0.00951849 0.051942 7.14975e-21)
(-0.0756996 0.024125 -4.10707e-19)
(0.000651338 -0.000700339 8.64193e-19)
(7.84007e-06 0.000746293 -8.80649e-19)
(0.000722048 0.000142184 -8.76942e-19)
(-0.00481111 -0.126373 3.28247e-19)
(0.00249492 0.00437771 1.00511e-19)
(0.000322367 -0.00117798 -4.11224e-19)
(0.000289428 1.87375e-05 7.46325e-19)
(4.04739e-05 -0.000254754 5.4202e-19)
(-0.0199906 -0.120788 4.70303e-18)
(-0.299357 -0.231314 4.11769e-17)
(0.00824419 0.0022751 -1.12925e-19)
(-0.00206183 0.00289547 -2.07797e-19)
(0.000957655 -1.54063e-05 -9.61666e-19)
(0.0226571 0.128194 5.20964e-17)
(-0.00630162 -0.00812835 -6.70868e-18)
(0.00497618 0.00670044 2.78346e-19)
(0.0102148 0.0192834 -1.57007e-18)
(0.04135 0.010405 -7.41027e-20)
(0.0472469 0.0322215 2.1335e-19)
(-0.0128627 -0.128757 -1.07187e-18)
(0.00041342 0.00021616 -7.32284e-19)
(-0.000324435 -1.34008e-05 5.44947e-19)
(0.00149801 0.000335104 2.25904e-19)
(-0.0137896 -0.125156 2.72994e-18)
(-0.000458059 0.000195821 -2.21008e-19)
(-0.00467761 -0.00515078 2.57942e-18)
(0.0010997 0.00176829 -4.9591e-19)
(-0.000134052 0.000203242 7.76842e-21)
(0.00727465 -0.0106404 -4.35761e-19)
(0.000690053 0.00345657 -1.37947e-18)
(-0.181257 -0.0113816 -3.97967e-18)
(-0.0900577 0.0494981 -7.11452e-18)
(0.000207125 0.000209647 1.64208e-19)
(-0.000505419 0.000148818 -9.44456e-20)
(0.000175122 0.000172118 -3.86221e-19)
(0.0295586 0.0127429 2.20998e-19)
(-9.82701e-06 7.93983e-05 -2.48929e-19)
(-0.000152787 0.194912 -9.02004e-18)
(0.00107011 0.00605327 -1.67912e-18)
(-0.275381 -0.169064 5.98181e-19)
(-0.000123235 0.000584784 9.46108e-19)
(0.00212136 -0.000415776 -9.87896e-20)
(-0.000175944 -0.000123366 1.16089e-18)
(-0.000681655 6.38248e-05 1.99379e-19)
(0.000765715 0.000178878 1.48642e-18)
(0.000139856 0.000569087 -1.89587e-20)
(0.000974386 -0.000284189 -1.01128e-18)
(0.00144009 -0.00146901 2.22748e-18)
(0.0126076 -0.00566839 6.12442e-20)
(-0.00109022 -0.00618903 2.2861e-18)
(-0.0571262 0.0210257 1.1821e-18)
(0.00102236 -0.000119582 2.68527e-19)
(-0.0400018 0.0100509 -1.11955e-18)
(0.0252825 -0.0084286 -4.79306e-19)
(-0.00381411 -8.50536e-06 -3.68151e-19)
(0.260121 -0.0306303 -4.05393e-18)
(-0.000139347 2.01489e-05 -1.13595e-19)
(-0.00228742 -0.000439035 3.19245e-19)
(-0.00348259 -0.0012321 -2.24679e-19)
(-3.76673e-05 -2.29408e-06 -5.28918e-19)
(0.0207465 0.0180017 -1.5662e-18)
(0.00111678 0.00155608 9.22755e-19)
(-0.00241717 0.00154707 -1.2271e-19)
(0.000591389 -0.000633236 2.71804e-19)
(0.0695703 -0.0416586 -1.29762e-19)
(0.00165905 -0.000343689 1.39349e-18)
(-0.00797687 -0.115937 -7.76929e-18)
(0.0155203 -0.0147445 2.88875e-19)
(0.00017497 0.000706509 1.17532e-18)
(0.0353157 0.0157783 1.68893e-20)
(-0.025185 -0.121367 2.69908e-18)
(0.00138635 0.00173592 -2.76169e-21)
(0.000592348 0.000283252 4.1498e-19)
(-0.031336 -0.0357828 -1.3185e-17)
(0.000599904 1.69613e-06 -2.84302e-20)
(-0.0488311 -0.213839 6.15363e-18)
(0.0116036 -0.00249989 -1.9278e-19)
(-0.0184602 0.0135385 4.20885e-20)
(0.00972839 -0.011205 8.79033e-20)
(0.000795225 -0.000641041 -6.34561e-19)
(0.00161096 -0.000248556 3.07136e-19)
(8.17845e-06 -0.00151372 2.9689e-19)
(0.00570072 0.0127134 4.86392e-19)
(-0.00316633 -0.00249105 2.08479e-19)
(0.0380245 0.0189414 -8.68555e-20)
(0.0650142 -0.0257132 9.59288e-19)
(-0.000134091 0.000231106 3.2293e-20)
(-0.00211076 0.000710561 -3.47274e-19)
(-0.00495212 -1.51915e-05 5.08179e-20)
(-0.0206326 0.00108267 1.42585e-18)
(0.000683951 1.99476e-06 3.47412e-21)
(0.0144607 0.195346 -5.34119e-19)
(0.000326397 -0.00103085 -7.34374e-19)
(0.00172752 0.000629491 3.22992e-19)
(0.0480327 -0.00478842 -6.16366e-21)
(0.000235386 0.000422579 4.41888e-19)
(-0.0269676 -0.0345409 3.84139e-18)
(0.0139666 0.00306683 1.71635e-20)
(0.000897523 -7.9866e-06 -2.08017e-19)
(0.020696 -0.0867503 2.85103e-18)
(2.65006e-05 0.0046676 3.72313e-19)
(-0.000358483 0.000877604 -4.41887e-19)
(-0.001058 0.00405535 2.47939e-19)
(0.0154327 0.0114187 1.39272e-19)
(-0.00119494 -0.00156759 -9.41042e-19)
(0.0461075 0.0301384 1.08063e-18)
(0.00144092 -0.00132517 -2.02575e-18)
(0.0138441 0.0132393 -4.8719e-20)
(-0.0051285 -0.00524144 1.39752e-18)
(-0.0261633 0.00353512 1.21042e-18)
(-0.0012325 0.00350104 3.8479e-19)
(0.0120743 0.00246179 -2.95057e-19)
(0.00219428 -0.00301332 3.24222e-19)
(0.00098323 -0.00160125 -2.80363e-18)
(0.015213 -0.0128654 2.35276e-18)
(9.81978e-05 -0.000100362 2.47164e-19)
(0.0143142 0.00939328 -8.32068e-20)
(-0.0017464 0.000407475 6.49182e-19)
(0.00102971 -0.00123447 3.82657e-18)
(0.0021356 -0.000755646 -1.17976e-19)
(0.000329811 3.45444e-05 1.66867e-19)