/*--------------------------------*- C++ -*----------------------------------*\
| =========                 |                                                 |
| \\      /  F ield         | OpenFOAM: The Open Source CFD Toolbox           |
|  \\    /   O peration     | Version:  v2012                                 |
|   \\  /    A nd           | Website:  www.openfoam.com                      |
|    \\/     M anipulation  |                                                 |
\*---------------------------------------------------------------------------*/
FoamFile
{
    version     2.0;
    format      ascii;
    class       volScalarField;
    location    "450";
    object      ddt0(k);
}
// * * * * * * * * * * * * * * * * * * * * * * * * * * * * * * * * * * * * * //

dimensions      [0 2 -3 0 0 0 0];


internalField   nonuniform List<scalar> 
10042
(
8.75862e-05
0.000286772
-2.30275e-05
4.28636e-08
-2.02709e-07
-0.00101658
0.00022354
-0.00130101
-1.13941e-07
6.58942e-07
0.000288195
0.0003316
-7.87689e-07
-5.07499e-07
1.35643e-07
-4.77438e-07
0.000939195
0.00036525
-1.70624e-07
7.90462e-07
-7.62737e-07
7.35327e-05
-7.27742e-08
0.00515595
-1.30524e-07
1.16588e-08
1.13834e-07
-4.28391e-08
-0.000340131
-0.000820022
1.20313e-08
-2.23353e-06
-1.34675e-07
-1.53404e-07
-0.00149452
-0.0014234
-2.52774e-07
4.2656e-08
-4.77068e-08
-2.54057e-06
0.000466517
-1.33401e-07
0.000613644
0.00287386
-6.13817e-08
-3.24385e-08
5.56084e-08
1.89029e-07
1.60245e-06
0.0665443
0.0019748
-5.85123e-08
0.00167534
-8.31689e-08
0.000744354
-0.0422765
-5.12293e-07
-0.000354026
1.8399e-07
-1.90366e-08
1.84039e-06
4.38205e-05
-0.000121799
-0.000964743
0.00094707
-5.71864e-07
7.96999e-07
0.000373418
5.53184e-08
0.00028295
0.024013
6.90205e-07
2.01872e-07
1.74119e-07
-4.74549e-07
0.0125636
-0.000483234
5.75007e-08
-0.000483238
-1.86023e-07
0.00344203
0.00245798
5.90235e-09
2.38421e-08
1.03628e-06
2.0314e-06
8.42533e-07
-7.55121e-06
2.91958e-07
-0.000242493
-4.749e-07
8.44553e-08
-0.000110646
3.3167e-06
0.00145217
8.24662e-08
-0.00156203
8.23913e-07
0.000802686
2.27106e-07
-3.69466e-07
2.7534e-07
4.13781e-07
-1.59449e-06
-1.04711e-07
4.17607e-07
-0.00771956
-4.27624e-07
0.00013663
3.66874e-07
3.37764e-07
4.27217e-05
2.06467e-06
-0.00103801
0.000503214
7.47396e-08
4.23246e-07
-4.79791e-08
-0.000559443
5.26221e-08
-2.08809e-08
0.000202391
0.00045961
2.18133e-08
-0.000293021
3.05455e-07
2.05519e-07
0.000126581
-0.000111795
9.77184e-07
6.37205e-09
-4.09022e-08
5.94118e-07
-2.47996e-07
3.1733e-05
0.0132062
1.27567e-06
-0.00823045
5.68126e-08
0.00110862
-2.63088e-06
-4.17285e-08
-0.0025097
-4.17785e-08
4.44321e-07
6.51499e-08
5.38358e-07
4.88358e-08
8.24845e-07
-0.00527589
-1.97285e-07
-1.15522e-08
2.3138e-07
-1.29744e-06
0.000881697
4.99264e-07
-0.000122404
-0.0512407
5.43185e-07
4.2215e-08
-1.70387e-07
-2.20947e-07
0.00745397
1.88605e-07
6.98405e-08
-0.00752416
1.91453e-07
-1.79663e-06
-0.00149501
-1.36136e-07
0.00109892
-0.00182246
-0.00596279
-1.52246e-07
-6.0569e-08
-0.00188172
-1.23994e-07
6.14353e-08
-7.45746e-08
4.34082e-08
3.86407e-08
1.97605e-08
1.70089e-07
6.80188e-08
0.000612985
-6.54007e-07
7.06278e-07
-2.25938e-08
0.0307473
-7.29779e-08
0.000185771
-5.05469e-07
-1.48173e-08
7.29633e-08
-0.000716242
1.0673e-07
0.00456078
0.000590657
-0.000267803
1.27195e-08
0.00479672
-2.01897e-05
0.000777188
6.3951e-08
0.00127866
5.04229e-07
0.00488673
-1.14145e-06
4.03319e-07
-3.0929e-07
-2.0837e-06
5.26145e-08
0.0010692
0.000721074
-1.96145e-07
7.8588e-05
6.53497e-08
-0.0114466
6.99676e-08
0.00311561
0.0014582
0.000632046
0.00124223
0.00011414
7.51274e-08
-1.30276e-05
5.49336e-07
1.1785e-06
3.04912e-07
4.50981e-07
5.4655e-08
3.11218e-07
-6.85384e-07
3.17813e-08
-1.55433e-07
-0.00143878
1.10483e-07
-0.00195366
4.386e-07
0.00757146
-0.00615235
-0.00572997
-1.88237e-08
1.50649e-06
-0.019548
-2.03725e-07
-0.00445856
5.03716e-07
2.76902e-07
-1.8337e-07
-9.58157e-08
-6.45316e-09
0.000347383
3.63109e-05
7.77714e-07
3.04797e-08
-9.27755e-08
6.9912e-07
-0.000729791
5.72062e-08
-6.88323e-05
2.5662e-08
-5.73577e-08
5.56951e-08
-1.08987e-06
0.000662461
4.48979e-05
-5.23245e-05
1.86034e-07
4.00704e-07
1.59479e-07
0.061201
-3.88595e-07
0.0530176
6.09542e-07
-0.000255175
1.03996e-07
-1.44409e-07
1.80906e-07
-0.0150348
-6.6455e-08
-0.00578952
0.00239868
5.18392e-09
-6.53502e-07
-0.00427271
-3.91355e-06
5.69918e-08
-0.000200325
-1.53961e-08
-2.82982e-07
-2.94111e-06
-2.01672e-07
-0.00474328
1.43296e-05
-2.39874e-07
-0.0136491
9.16245e-07
1.42828e-07
6.32155e-08
1.52107e-07
0.00120587
-2.16066e-08
-0.0082727
-2.31047e-06
-7.46296e-07
-4.78828e-07
4.55581e-06
-0.0140689
-0.00336594
-1.19302e-07
-1.04837e-07
6.86679e-09
-2.8422e-07
-4.67937e-06
-0.000225932
4.65964e-08
0.000389509
0.00748245
6.46291e-08
1.75911e-07
0.0504415
-0.000227861
0.00225853
0.000742575
-1.80961e-07
9.94676e-06
3.29426e-08
6.81183e-07
-1.22303e-07
4.6575e-07
2.73456e-07
5.63142e-05
6.15232e-08
0.00614147
-0.000260016
-0.00616024
0.00173825
-3.79849e-08
-0.00940611
-2.14504e-06
-4.40905e-07
-1.80685e-08
2.93395e-05
-8.41e-08
4.94759e-08
-2.17552e-07
-7.81165e-08
-7.09559e-07
-0.000697258
1.62582e-07
0.00110443
-6.65562e-07
1.36873e-08
-7.26193e-05
1.89207e-05
6.62513e-07
4.28629e-08
0.0228716
3.27566e-07
3.71814e-07
-2.80149e-07
9.23224e-08
0.00254589
-0.00825233
5.39626e-08
6.34989e-09
-1.65217e-07
-3.98395e-07
0.00138533
-2.01353e-08
2.48635e-08
-4.13816e-07
-2.88566e-07
2.32521e-06
-4.06848e-07
-0.000362121
0.00703286
-0.0223158
3.0073e-06
2.62558e-07
-0.00201553
1.42933e-07
9.67412e-09
-2.79318e-06
5.58415e-08
-1.07458e-07
7.17776e-08
3.64502e-07
5.80593e-08
3.90576e-07
-0.0129801
1.70934e-07
3.82696e-06
-0.00681996
-1.80013e-05
-1.79625e-08
-0.0012977
-7.11592e-07
-2.2071e-06
-3.42111e-08
-0.00268371
1.85332e-06
7.6778e-05
-0.000489947
-3.66059e-07
-2.98258e-06
-2.23625e-07
-0.00289724
3.29179e-07
0.00213898
2.68433e-07
-0.00627964
2.47987e-07
-0.00112753
-7.80174e-07
4.78276e-07
0.000637052
3.53972e-08
-7.79313e-07
6.6753e-09
-0.00488046
1.80005e-08
5.83673e-08
-1.79646e-06
-1.44081e-06
7.32089e-07
0.00258145
6.02753e-08
-4.35717e-07
-1.39953e-06
5.6172e-08
2.48755e-07
-0.00113942
-9.41767e-07
1.47343e-07
0.0312825
-0.000585106
1.98548e-07
-0.0257614
-3.62905e-08
-1.47318e-06
-3.11603e-06
0.0396713
0.030115
0.000142368
-0.00101274
0.00232081
-0.00105838
3.94171e-08
-0.000149895
-0.00751902
-0.00651299
-2.33159e-06
-1.52494e-07
-2.08896e-07
0.000453366
-0.0164139
7.89955e-08
-4.53563e-07
-2.22714e-07
-7.88589e-08
-1.30648e-06
-2.74768e-06
3.6262e-07
-5.53126e-08
-0.000245298
-3.39346e-08
-7.79264e-07
0.00143208
0.00123718
-7.60621e-08
-0.00669743
0.0310054
4.98141e-06
5.89599e-08
-5.15219e-07
1.27591e-07
4.9258e-06
1.35974e-07
0.000338925
2.62219e-07
0.000744357
-3.80714e-08
-1.16565e-07
-5.53659e-07
-0.000106329
0.00247302
1.57062e-07
6.97399e-08
-2.22221e-07
0.00148362
2.13121e-08
0.000102093
-7.98806e-05
-3.7326e-06
5.85349e-09
0.000170373
-0.00366045
0.00226219
2.80844e-07
-8.19366e-08
-0.00571059
0.00147433
1.78947e-07
0.000876239
-5.53704e-08
0.000216023
5.97146e-07
6.79827e-07
4.49798e-07
0.0038665
2.2348e-08
-1.13654e-07
4.4025e-07
-0.00263369
1.71783e-07
8.73833e-05
1.90046e-07
2.08873e-07
-1.50883e-07
5.1237e-07
0.000117613
3.83402e-07
1.76939e-07
7.22356e-05
0.000813431
2.68181e-07
4.12973e-07
-3.11584e-07
0.000389517
0.00200938
3.21826e-07
4.3631e-08
-5.24402e-05
1.18061e-07
1.04422e-08
0.000132644
9.39687e-09
-0.00360101
1.14117e-08
5.58766e-07
-9.69658e-06
-0.00132926
1.87375e-07
-5.33543e-07
1.59277e-07
1.31349e-07
1.87012e-05
-1.56857e-08
-0.000255738
2.10208e-07
-9.51995e-08
1.49208e-06
-0.00938517
-0.00694186
0.0006609
3.65413e-08
5.81244e-08
5.26248e-08
-3.19043e-07
-4.14058e-05
3.64262e-07
0.000995217
-3.43922e-08
-5.81634e-08
0.00553028
-6.52026e-08
-5.76004e-05
2.54884e-07
-8.08286e-08
0.00263416
0.00650463
-5.09843e-06
0.00223901
1.2766e-07
-5.51496e-07
6.97851e-08
-8.9678e-08
-3.03681e-07
-1.36694e-07
3.732e-07
-6.06715e-08
-0.0032755
2.94762e-07
5.62018e-06
-1.25336e-08
3.56098e-07
4.65238e-08
-1.0718e-07
-0.0118669
-6.65541e-08
-1.10078e-07
0.000682483
0.00045099
3.65515e-08
-0.0238508
3.12895e-08
3.32096e-05
4.49244e-08
-8.46381e-08
6.29673e-08
0.0181468
3.66203e-08
-1.43622e-08
-4.67722e-07
-0.0218322
-3.52446e-07
-2.05062e-07
3.88645e-08
-0.00129605
-6.54648e-08
-1.50771e-07
-3.96664e-08
-1.04179e-07
4.08863e-07
-1.28081e-07
1.0309e-06
1.44982e-07
-8.0579e-05
0.00440783
0.00238368
1.15691e-07
-2.72957e-07
7.47377e-08
0.000245555
-4.92104e-07
0.00595904
9.14601e-05
0.00194574
1.37486e-06
-0.0029818
1.70129e-07
2.54538e-07
-0.00381432
-0.000625416
8.6357e-06
-6.17877e-06
2.46204e-07
0.00653071
1.20045e-07
3.74772e-07
-8.81471e-08
3.10651e-08
-9.08797e-08
-0.00337697
1.59819e-08
3.96496e-08
-0.0107928
-1.75745e-07
0.000123515
-2.0517e-06
-7.82087e-08
4.59457e-05
-2.53092e-08
0.00650618
2.95128e-07
-1.97172e-07
2.83893e-06
2.43863e-07
-4.0409e-08
-5.45379e-09
1.79468e-07
7.44031e-08
-6.43352e-05
0.000212448
0.00373267
1.6761e-07
1.70712e-07
1.6176e-07
0.00614452
7.87917e-07
-4.3967e-07
1.02685e-07
-5.44518e-08
-0.0025006
0.0576291
-2.13806e-05
6.28894e-07
7.64684e-08
0.00504542
-5.87376e-07
-1.10316e-06
-3.19488e-07
-0.00159862
-3.69805e-05
-0.00111207
1.17321e-07
2.00523e-08
2.84164e-07
-0.00113508
-4.27407e-09
-3.28128e-07
5.45226e-07
-1.41683e-08
1.22627e-05
4.30654e-07
0.018649
0.0030548
7.31637e-08
-7.77095e-08
3.34851e-08
0.000689372
2.72799e-08
0.00196933
5.03068e-08
0.033458
1.24844e-07
1.09736e-07
-6.54909e-08
-1.0052e-07
1.57495e-07
-4.65862e-08
1.41215e-07
2.25279e-07
1.33162e-05
-1.73151e-07
0.00177452
1.38334e-07
-4.64349e-05
-0.000422022
-6.19568e-07
-0.0406878
-4.13759e-08
-3.29339e-07
1.75313e-06
6.16674e-08
0.000762528
4.72172e-07
8.5244e-08
-1.73079e-07
-0.0218514
1.4089e-07
-0.00136439
3.31156e-09
1.9634e-07
2.85963e-06
-0.00104891
1.07164e-07
2.2891e-07
-5.55878e-06
6.38425e-08
-0.00224643
7.4723e-07
-0.000215712
3.14728e-05
1.72472e-07
3.39987e-07
-5.88887e-07
6.97359e-07
-2.90712e-07
0.00137507
2.03333e-05
-1.26826e-08
3.20529e-07
-7.65254e-07
-1.88005e-07
7.22809e-08
0.00170161
1.0914e-07
4.08179e-07
0.000146633
1.42568e-07
-5.33762e-06
6.19055e-07
6.56419e-08
-0.000456275
-3.27689e-06
1.34936e-07
1.49857e-07
3.57345e-07
-4.6614e-07
-0.000182586
2.28542e-07
-6.09774e-08
-3.7548e-07
-0.00443191
3.61242e-07
7.35317e-07
1.33993e-06
1.4761e-07
1.56023e-07
-4.42919e-08
5.20423e-07
-8.08911e-08
2.05961e-07
-8.12837e-08
7.40949e-08
1.56651e-07
4.0986e-07
-1.38305e-08
1.73504e-07
-0.00111052
-7.52392e-09
1.4714e-07
3.38314e-08
4.9601e-08
-2.18094e-05
-3.51496e-06
9.73224e-07
2.55125e-05
-0.00210678
1.49759e-07
-0.000404383
-0.00211903
-7.00857e-08
2.70456e-07
2.75699e-08
8.20524e-05
-0.00118006
2.22849e-08
4.49476e-08
7.40833e-07
0.00057412
-0.010754
-4.60431e-08
-1.58659e-05
0.000355113
0.00225924
-4.47632e-06
4.84467e-08
1.5359e-06
0.00151758
5.666e-06
2.82365e-07
-0.00839658
-0.000651293
-0.000367923
-0.000268925
-3.4291e-07
-0.000297399
-0.00336373
0.000309948
-0.00107054
6.91567e-07
-0.00661256
8.55756e-07
-0.000832415
2.51113e-07
1.47571e-05
-2.72187e-08
-1.18133e-07
-2.65951e-08
4.16682e-07
-1.02912e-07
-0.0181138
3.77368e-07
-6.66345e-09
0.00521572
1.53864e-07
-2.52486e-07
-4.22897e-07
0.00108528
-1.23945e-07
2.06211e-07
-1.57497e-07
4.7005e-07
-1.65055e-07
-4.08134e-07
4.84975e-09
0.0360491
-0.000629325
-8.56873e-05
4.54265e-07
0.0037277
3.86336e-08
-3.51359e-06
0.00102115
-2.28178e-06
-7.21603e-08
6.60233e-08
3.76318e-07
-1.53483e-07
-0.00902993
-2.21747e-07
1.75314e-07
-0.00644848
-7.98907e-08
-6.65683e-09
0.00698322
2.87223e-08
-1.00676e-08
-0.00870081
1.91169e-08
-0.00611369
3.85963e-08
2.99896e-06
-3.55599e-07
-1.57844e-06
5.72795e-06
2.09565e-08
0.0115561
0.00919471
-1.11535e-07
5.93669e-07
0.0214012
0.0520937
1.09926e-05
1.73735e-07
4.11509e-08
1.27815e-05
4.00661e-07
-2.49456e-06
0.00383546
-2.47971e-07
7.01817e-08
-1.29477e-06
0.000249587
-7.38687e-05
5.89244e-08
2.43133e-08
1.40772e-07
1.73573e-07
-0.000676494
0.0020126
-3.37445e-07
-3.59741e-07
-0.000839716
-6.11358e-07
1.01391e-07
-0.0099928
7.38172e-07
0.00227161
-2.3257e-06
-8.07841e-08
1.94038e-07
-2.4747e-06
6.8455e-05
0.000170822
-4.23738e-07
0.00130171
-0.0113127
0.000436007
8.65342e-08
7.91836e-07
-0.00895681
-1.72612e-06
-0.00356023
-1.12325e-06
2.40446e-07
8.09808e-08
-0.0018418
-0.00563925
-8.03351e-07
-3.0945e-07
-2.13153e-06
-6.18563e-08
2.65465e-06
-8.29907e-07
1.7274e-07
1.61998e-07
-1.43377e-06
8.2951e-08
-1.24876e-07
0.0010493
-3.17709e-07
5.33756e-08
1.31339e-06
-2.52954e-07
0.00025508
-1.45075e-08
-2.28101e-08
-0.000420127
7.00303e-07
2.69988e-09
3.4702e-07
0.00553182
-1.07976e-07
-1.33438e-07
-3.78646e-07
0.000129511
2.56004e-07
5.29658e-07
1.43996e-07
-2.52382e-07
-8.99355e-08
-0.00115737
-5.81487e-07
-4.2418e-05
2.72639e-07
2.01668e-06
5.82303e-07
1.47136e-07
-2.20445e-06
-0.00319229
4.22642e-05
-6.27997e-08
-1.49875e-06
4.56986e-05
-0.000214216
-2.88949e-06
-6.55132e-08
0.00618981
-1.61863e-07
-1.82183e-05
-6.08462e-05
9.78571e-08
1.74029e-07
-5.48107e-08
-2.58537e-05
-0.00351116
-2.22234e-05
4.51895e-07
5.11135e-07
-3.10892e-07
1.06166e-05
-1.08866e-07
1.30284e-07
-1.68252e-06
-2.9777e-08
-9.76402e-08
0.00157934
3.29271e-07
-0.0221685
-8.03111e-08
8.90384e-08
-5.72021e-09
1.0454e-06
2.10656e-07
-1.36492e-06
0.00990575
-8.34812e-08
-3.2873e-07
-0.0186459
3.51617e-07
-1.15005e-05
-1.893e-07
-0.00681691
0.000272532
-1.56297e-06
0.000177188
8.4999e-07
3.44557e-07
0.00787542
-8.69144e-08
1.89883e-07
5.07579e-08
-1.17404e-07
4.32786e-08
-0.00216091
-1.45036e-06
-0.0011663
-0.00234754
-1.50953e-05
2.82731e-05
0.000342562
-5.88253e-08
0.000892597
-1.18261e-07
-6.80717e-07
1.61666e-07
-1.38113e-07
5.70215e-07
0.00203966
-0.001192
-3.65777e-08
0.00168472
1.45325e-07
5.70285e-06
1.77722e-08
3.75613e-07
1.09017e-07
1.42406e-05
0.00172964
1.1553e-07
5.02107e-08
0.0675074
-1.81679e-05
-2.98425e-05
-1.13126e-05
0.00160246
8.14271e-07
-0.00244452
-0.00315968
-6.56875e-08
-8.49759e-08
1.53632e-07
5.33276e-07
-1.21218e-07
2.22635e-07
6.7617e-08
2.1445e-06
6.46187e-07
-9.52373e-08
1.63428e-06
0.000658462
0.00224408
3.6004e-08
-2.54056e-05
2.20702e-07
-2.07348e-06
-9.79117e-07
0.00010648
4.89147e-08
-3.00484e-06
-1.52259e-06
9.64886e-08
5.43116e-07
0.00177812
7.82144e-08
-1.03069e-07
2.03308e-07
0.0029309
-0.00374655
-2.54117e-07
-0.00527485
-1.32345e-07
3.01555e-07
0.0493489
-3.88849e-07
9.99441e-07
9.39304e-08
1.30871e-06
-3.43158e-06
0.000419216
9.98261e-08
4.59237e-07
-1.3333e-07
3.51056e-07
6.77119e-08
-0.00123836
6.33533e-08
1.1431e-06
-9.66074e-06
-0.000370602
-1.79605e-07
-0.00403842
1.35147e-07
-3.89159e-05
-7.65278e-07
-7.14591e-05
-1.54264e-08
0.00193088
0.0221474
-0.00330452
2.04154e-07
-0.000759124
0.000206807
0.00454249
2.43277e-07
0.000181373
-2.64095e-08
0.00343224
0.00321351
-1.77679e-06
0.0194659
0.00331132
-0.00459985
-0.00581496
1.72e-06
0.003503
-4.03355e-08
-8.13957e-08
0.000149374
1.2144e-06
-1.26632e-07
0.000842618
-8.86077e-08
-6.67924e-09
-5.4552e-07
-0.000443297
2.87033e-07
1.84745e-06
-0.003177
5.5166e-07
0.00222998
7.40629e-08
-1.16681e-07
-5.24945e-07
-0.00506929
0.00285191
6.00128e-07
0.000434531
5.01165e-07
8.14621e-07
1.68891e-07
0.00529216
7.22377e-07
-1.79264e-08
0.000168081
-0.00665294
-1.17673e-06
-6.92156e-05
5.31433e-08
-1.2018e-06
-0.000117225
-1.97679e-07
0.000531375
-0.000996558
-8.27278e-09
7.34802e-08
-8.76258e-08
0.000349971
-2.27809e-07
0.0151318
0.000117347
-9.66845e-08
3.06093e-07
-1.717e-08
3.79045e-07
8.55177e-08
-2.04337e-05
8.24971e-07
7.28626e-06
0.00339243
5.54395e-07
-3.44175e-07
0.00392446
-7.64578e-07
-1.86471e-05
-1.15698e-07
2.03352e-07
-0.0117921
-0.000504632
7.23897e-07
0.0340914
6.32201e-06
0.00273784
-3.10713e-07
5.44571e-07
6.11678e-08
-2.05325e-07
8.71826e-07
0.00169717
1.07447e-06
1.32413e-07
0.000972071
-7.72072e-06
4.36273e-07
-0.0010004
7.05819e-06
0.000233453
-9.67711e-08
5.53232e-08
-0.00160044
6.91412e-08
-0.0127155
-0.000225111
-3.95299e-07
0.0018303
5.68342e-07
-8.32758e-08
0.0188184
-0.000402552
4.57281e-08
0.0378709
-4.96271e-08
-6.48698e-09
-5.68702e-06
7.27803e-08
-8.30825e-08
-1.6266e-06
4.69209e-07
1.17084e-07
1.38696e-07
1.99551e-07
-1.81001e-07
0.00567765
-1.10817e-06
0.00380838
9.74487e-09
-3.47764e-07
7.09207e-08
9.58297e-08
0.000397869
1.18681e-07
-0.000458293
0.000263442
3.01104e-07
0.000383277
-1.42978e-06
8.94553e-05
4.13797e-08
-0.000293191
-7.01901e-05
5.42229e-05
3.87894e-07
-1.01613e-07
-9.70967e-08
0.000784433
4.78377e-07
0.0021402
-1.60977e-06
-3.95027e-08
-0.00290974
6.4287e-09
0.000448392
1.31556e-07
0.00247429
2.63258e-07
-6.38407e-08
-1.32123e-07
-0.000608147
5.81487e-08
-2.51558e-08
-1.2113e-08
2.58882e-07
2.22887e-07
1.11568e-05
-0.0036106
5.82795e-07
-2.27432e-07
1.15694e-07
1.22407e-07
-8.83513e-08
-0.00126962
-0.00856909
-3.57855e-07
1.43991e-07
-4.01267e-08
-2.51368e-08
5.64491e-07
-3.15732e-07
-1.47173e-07
0.000451249
0.00130958
0.000346276
5.44409e-07
2.88443e-07
-1.3089e-07
1.04086e-07
-5.03041e-08
2.98065e-07
1.7821e-07
-8.76629e-08
-1.85875e-05
-1.34387e-06
7.88574e-07
-0.0170837
0.00247403
2.19024e-06
1.62104e-07
-1.06706e-07
-0.00487803
6.83065e-08
-1.29076e-07
2.24769e-07
9.50309e-08
7.07731e-08
-9.83555e-08
0.000258152
-5.40101e-07
0.000397785
-0.000325661
-3.56941e-06
2.37197e-09
-3.10384e-07
0.00106771
2.06971e-07
1.4891e-07
-2.1314e-07
-1.7726e-06
1.23908e-07
-3.69727e-07
9.29407e-05
0.00318156
-1.33663e-07
1.31193e-07
-0.000114187
-2.55186e-07
-2.94385e-06
8.13208e-09
-0.000164659
3.50462e-08
-3.17749e-07
5.1334e-05
-2.29666e-05
-2.5262e-06
5.41173e-07
-4.15038e-07
-6.17761e-08
1.73396e-07
6.29086e-05
0.00134237
-3.68148e-05
-8.5907e-08
-0.000405435
3.65602e-08
0.00382004
0.0043435
-1.56437e-07
-0.0150608
7.26609e-05
-7.56573e-09
-1.69409e-06
2.07356e-07
5.65106e-08
0.00124099
5.65392e-08
-0.00983771
4.2986e-06
-0.0177278
0.022029
-1.66797e-06
1.10789e-07
-3.89465e-07
3.19545e-07
1.64749e-07
-3.4168e-08
1.04057e-07
0.00134541
-5.20256e-08
4.82712e-07
0.00589792
0.00650067
4.95485e-07
-1.84399e-06
-4.58953e-07
-0.011173
-3.81768e-08
0.00151652
0.0299184
0.00255986
0.0214197
-0.00106623
0.0108843
-1.55666e-08
-6.37525e-09
-1.14964e-07
1.95355e-06
-1.62322e-07
-0.00461654
-2.6607e-07
-0.00094668
-2.32786e-07
5.98767e-08
5.55984e-07
2.01152e-07
-1.32392e-07
-2.38065e-05
-0.00367738
-0.00328984
-1.36128e-07
1.56866e-08
2.1674e-07
-1.38675e-06
-1.06041e-05
7.84214e-08
2.70064e-05
-0.000288701
3.38457e-07
2.37757e-06
0.00343066
-2.33135e-07
-1.1688e-05
-0.00512036
-2.08264e-08
0.00253363
-2.09375e-07
0.000637234
7.84486e-08
-6.86772e-05
-6.90453e-08
-0.000762429
-3.43578e-05
-0.0176916
-0.000144823
-0.0058523
-0.000190078
0.000523763
1.68537e-06
1.84756e-06
-0.00304532
0.000205137
-3.38823e-05
-4.86748e-07
-0.000938409
0.000264004
-0.000151428
-1.67427e-06
0.000250407
-4.49234e-07
-2.1721e-07
-9.02531e-06
9.39428e-07
-7.43183e-07
-7.4696e-08
-4.68434e-08
-1.32478e-08
-8.79306e-08
-3.8654e-07
0.0539278
-1.50658e-07
0.000283252
-3.84545e-06
0.000178401
0.000219537
0.0028308
4.74519e-07
2.13222e-07
0.00306402
0.000362986
7.11078e-07
-0.00462804
-0.0116179
0.00164193
7.37508e-09
-2.95919e-07
5.30051e-07
-2.9044e-07
2.67065e-05
0.000745384
0.000640241
-4.01646e-06
4.64574e-08
1.37802e-08
5.07011e-07
0.00107781
-2.90608e-06
0.000139038
1.68667e-07
3.15802e-07
7.2842e-08
-0.00145226
1.55608e-07
3.64373e-09
-8.16708e-08
2.15004e-07
0.00027527
-0.00185277
2.15992e-07
-8.94578e-07
-0.000542384
-8.25752e-07
-0.00131781
1.48819e-07
2.59447e-07
3.84496e-07
3.45797e-07
0.00380529
-2.2034e-07
-1.86891e-07
-8.08983e-08
3.62616e-06
-1.52845e-05
-7.69499e-09
-3.93071e-08
1.76142e-07
2.60148e-07
-0.00558283
4.50082e-07
2.379e-07
2.48865e-07
5.77808e-05
-2.68292e-07
-0.000550458
3.23821e-07
2.19311e-07
-8.22142e-08
0.00559252
9.06761e-05
-3.34679e-06
-0.00250113
5.67036e-07
-3.22835e-07
-0.00276257
-2.03979e-07
0.00135237
0.0113582
2.25266e-07
4.01232e-08
0.067121
1.16002e-07
1.09753e-05
1.71953e-07
-0.0125289
-0.00242717
7.48444e-05
2.07293e-07
-3.94182e-09
1.35659e-07
-1.026e-08
1.80294e-07
3.12125e-08
2.16185e-07
2.15023e-07
1.8238e-08
2.52668e-07
-1.71242e-07
-2.75047e-07
1.47088e-07
0.046193
5.45756e-08
0.000126976
-5.424e-08
1.90659e-08
0.00991751
-2.25093e-07
-0.00982599
0.000358102
-5.95964e-08
2.55744e-07
-1.56131e-06
-0.000644395
-3.24237e-08
0.0147166
4.46983e-08
3.44909e-09
-0.000104873
-1.46679e-07
0.000482707
2.2315e-07
-0.00015534
-5.84513e-08
-0.0275396
-0.00974129
0.00142637
1.7467e-07
2.96097e-07
6.76033e-08
-8.79434e-08
0.000183111
2.91118e-08
1.62258e-07
-2.24546e-06
1.35672e-07
0.00271545
0.000121058
-8.16395e-08
5.69213e-07
-3.84046e-08
-4.5543e-07
1.41655e-07
4.32365e-08
-3.79691e-08
0.065764
-0.0128994
-1.31333e-05
2.53396e-07
1.74331e-07
1.84394e-07
-9.60471e-05
-0.0103065
1.29471e-06
-0.0153893
-0.000879051
1.87876e-07
1.25952e-07
-2.05571e-05
-5.04843e-08
2.61046e-07
3.50379e-06
1.74434e-07
0.000232684
5.34545e-08
0.000903433
5.44314e-07
2.93537e-07
-3.03153e-05
5.3555e-08
-1.95375e-07
1.68872e-07
5.34168e-07
0.000122625
-1.01838e-07
1.55541e-06
2.49806e-07
-0.00219767
-0.00116908
2.98447e-07
4.33162e-07
-1.11608e-07
1.57081e-07
-2.77128e-07
-8.75632e-05
-8.21332e-08
7.16285e-07
1.71462e-07
3.4692e-07
-1.04466e-06
5.32514e-08
-0.000572026
-1.48651e-08
2.3754e-07
0.000283884
2.31163e-07
2.94587e-07
-0.000536355
3.32572e-07
-1.41037e-05
8.1318e-10
-8.88605e-08
-3.81607e-08
1.0387e-06
1.88127e-08
-0.000303736
1.52371e-07
-1.97323e-07
-0.0101679
0.000110572
-0.0246974
-9.7509e-05
0.000548062
5.58402e-07
-7.41339e-08
2.61682e-07
0.00119164
-1.35436e-08
0.000347477
3.22017e-07
-1.22043e-06
1.06293e-05
0.00225359
-2.71488e-08
-0.00143958
-4.48113e-06
6.34874e-08
6.11282e-07
3.86356e-07
8.5583e-08
-0.00222705
6.08251e-07
9.80478e-08
-9.82216e-08
-8.66531e-08
-0.000460251
2.46483e-07
-0.00170811
-1.26432e-06
2.44649e-07
8.22433e-08
-2.26224e-07
0.00403323
0.00207308
-1.03598e-07
0.0176745
0.00187731
2.66363e-07
-0.00141687
1.90039e-07
-5.33288e-08
-1.13525e-07
4.238e-07
4.04341e-07
-4.04645e-07
4.8401e-07
3.59108e-07
4.29358e-07
-8.18461e-06
3.08915e-07
0.00182248
6.52427e-08
2.71941e-08
3.73613e-05
-3.56548e-09
8.13763e-07
1.20967e-06
9.24993e-08
-0.00063796
4.16529e-08
-3.73063e-08
-0.00281652
-3.3028e-08
0.00152317
0.00148847
3.47643e-07
-1.61387e-07
-4.19704e-07
0.000728776
1.9921e-07
0.00137032
-0.00208983
-2.51712e-08
-8.80125e-08
5.89958e-07
8.11392e-06
3.80401e-08
3.08699e-05
2.42326e-07
0.00189062
0.00026747
1.4822e-05
0.00552102
-6.11298e-07
-5.41725e-05
-0.000444505
-6.74145e-06
1.14434e-07
-3.9554e-06
2.66747e-07
-3.16784e-06
1.03102e-07
1.10617e-07
-0.0140441
-1.29793e-07
3.5293e-05
0.00142948
3.39667e-08
0.000235027
-1.72534e-07
0.000179836
1.99205e-07
-1.68783e-07
0.000602111
-0.000870859
0.00151638
-1.4085e-06
-2.16231e-07
-0.0214862
3.4766e-08
2.18326e-07
-7.8671e-08
3.54286e-07
-1.23775e-06
-2.36283e-07
-6.99712e-08
0.00025459
-4.7088e-07
-5.72448e-07
3.40669e-07
-1.47845e-07
6.23283e-08
5.24536e-06
-2.40783e-07
0.0179483
-9.71357e-07
0.000547919
-2.86045e-07
1.60999e-07
-1.32308e-07
-8.46182e-06
-3.93497e-07
0.0432819
-0.0104975
-0.000274645
5.84729e-07
-8.22288e-08
-2.17171e-07
7.03126e-08
-2.13617e-08
-0.0045174
6.33327e-07
3.10262e-07
-0.00747586
2.51797e-07
2.94996e-07
0.0153697
7.14668e-05
-0.00861305
1.32106e-06
-0.0204351
-0.0031769
-1.07075e-07
-1.73478e-07
1.71658e-06
-0.00471425
0.0025759
-0.00426041
0.000162621
4.8474e-08
-6.57026e-08
-9.54716e-05
6.74639e-07
3.12562e-07
-1.2598e-05
3.77458e-07
9.26254e-08
0.00254805
-0.00121201
7.77803e-07
-3.30326e-07
-7.73215e-07
-4.01045e-07
-0.000425717
1.49686e-07
6.8801e-08
1.21418e-07
-3.00502e-05
-8.50239e-08
-2.35568e-07
-0.00154241
0.0156622
7.17252e-08
5.61353e-08
-8.70811e-08
4.36228e-07
3.49013e-08
1.01124e-07
0.00969519
7.9465e-08
0.00219625
0.000107704
0.00194902
4.50265e-07
6.29739e-07
3.85509e-07
2.14559e-07
-9.845e-08
2.26373e-07
3.80766e-07
0.00116857
0.000418489
6.12229e-07
-1.01309e-07
5.41298e-07
1.32381e-07
-2.74633e-06
-1.56407e-07
-0.000982537
0.000750698
0.000127818
-1.1203e-06
-3.4328e-07
-6.28652e-08
-1.42335e-07
3.47989e-07
-0.0125698
9.2293e-09
-2.07654e-07
1.12328e-05
-0.000841817
-0.000846511
-2.08287e-07
0.013399
-0.00530879
1.91944e-07
8.83334e-08
-0.00249098
-0.00569862
2.74633e-07
-8.21514e-08
5.17791e-07
2.28594e-07
3.76786e-07
-3.71626e-05
-1.45318e-07
2.46333e-07
0.00704986
-2.05826e-07
-0.0197983
-8.75116e-09
-5.17261e-08
3.32314e-07
2.42778e-05
-9.07267e-05
-0.00248359
-9.6494e-07
9.04428e-05
-6.96203e-07
5.79241e-08
-0.00146832
1.25465e-08
-2.08059e-07
3.57298e-07
-1.57451e-07
-0.00024094
-0.0218826
0.000893777
-2.27441e-06
0.000496765
-9.02492e-05
0.010554
-6.01364e-09
4.93712e-07
0.00023568
3.75728e-08
4.41831e-07
4.01686e-07
1.39522e-07
-0.00482131
2.54688e-07
-0.0015611
0.000356605
-1.29573e-07
-0.00586721
6.33039e-07
1.44016e-07
-6.16685e-07
5.35967e-07
-3.43048e-07
-4.90997e-08
4.57333e-07
-0.00765224
5.02189e-07
5.47502e-08
9.86228e-08
-2.04917e-06
0.0011408
-1.14834e-08
4.99529e-07
6.81146e-05
-0.0222256
-8.84666e-08
4.62058e-08
-8.47913e-10
5.77134e-07
1.37768e-08
2.64157e-07
-0.0167593
0.0505519
4.14775e-08
9.76849e-08
2.92903e-08
4.73299e-07
-0.00135167
3.6697e-07
-0.0010364
-0.0195392
1.81421e-07
5.23745e-07
-0.0164117
-0.0120621
5.42983e-07
-4.79568e-08
-3.47679e-08
-0.000122903
1.71722e-05
-0.0195836
3.40347e-07
-0.0133017
-1.06124e-06
-0.00210216
-0.00148642
0.00340562
0.000875784
-0.000635225
-0.000244197
-0.00620088
-6.87372e-07
-0.000802433
-4.04411e-07
-0.0185956
1.27079e-07
2.70009e-07
6.60806e-09
-1.04715e-05
0.00163535
-2.02386e-07
2.14153e-07
-0.000552233
-0.0118823
-0.00702214
9.53028e-08
-3.04382e-07
-2.33954e-08
6.32964e-07
5.8096e-07
-1.91826e-06
-0.00150773
-0.000982916
5.7819e-07
-1.02023e-07
-0.000122986
3.56257e-07
1.8801e-07
-0.00242432
-4.13764e-07
3.10632e-07
2.80545e-07
0.00191992
-2.88999e-06
-0.000370952
-3.27009e-07
-0.000447437
-0.00270117
-1.22105e-06
0.00341353
-0.0116121
-0.000310854
0.000458062
-1.04416e-07
3.83454e-07
6.90066e-06
2.57647e-07
-2.12726e-08
-6.56366e-08
5.74202e-07
7.54477e-07
6.06382e-08
1.04405e-07
-0.000519231
-9.22165e-07
-0.00147186
7.17199e-07
0.0035724
0.000149769
-9.75851e-06
0.065203
0.000945127
7.3015e-05
0.003235
-0.0157551
3.663e-07
2.1052e-07
3.33321e-05
7.90604e-07
-0.0109286
1.62036e-07
-4.90823e-07
-0.00281135
-1.34482e-07
-7.56112e-08
2.4461e-07
-3.18652e-07
0.000639001
3.94481e-07
-5.03156e-08
4.02826e-07
-0.0101082
-1.09055e-07
-0.0366158
-0.00259835
-0.00519281
-0.00394219
1.24978e-08
-7.15221e-08
5.99226e-07
2.87417e-08
-0.00889054
-0.000216175
0.00630439
-0.00252647
1.25164e-07
7.59081e-07
5.74888e-07
3.03999e-07
0.00148421
-4.23828e-08
1.41883e-10
-0.0166693
-0.00198762
0.00232409
-1.37442e-07
5.81209e-07
-0.000416735
-2.09658e-05
4.80634e-05
0.000114887
-0.00700733
-0.0184057
1.51407e-07
-3.49568e-07
-6.4628e-08
3.38435e-07
-3.34945e-06
1.36749e-07
0.000445205
6.99492e-08
5.88904e-07
-0.00249946
-2.83442e-07
-0.00225373
-3.6109e-07
4.32018e-07
3.01122e-08
7.68001e-05
5.82346e-08
1.16947e-06
0.00230552
2.50609e-07
4.25459e-07
-1.95969e-06
-0.0036165
3.34975e-07
-2.1474e-05
3.49162e-08
0.000320031
0.00134294
1.80514e-06
4.73839e-08
-2.16897e-09
-1.28323e-06
2.644e-07
-0.000143145
-0.00164407
-0.00456014
-0.00887191
1.32e-08
6.29079e-06
-1.19068e-07
-1.72988e-06
3.0208e-07
0.00241783
0.00211841
1.41499e-07
-0.00542282
7.30623e-09
-0.0127946
-1.39103e-06
4.00487e-08
0.000331926
4.76583e-08
-2.24407e-08
-8.81663e-08
5.92865e-08
6.23941e-06
-0.00964985
-1.16657e-07
-1.75829e-07
-2.67635e-05
-6.68051e-08
3.84997e-07
8.14316e-08
2.93643e-07
2.85775e-07
-0.00273089
9.54669e-06
1.31187e-07
1.59678e-07
2.5366e-07
8.76591e-08
-0.00165266
-0.00203443
1.55836e-07
-7.29006e-08
-3.73361e-07
0.000411202
-1.75079e-07
6.59465e-07
3.30853e-07
1.55408e-06
1.41706e-07
5.50484e-07
0.00189148
-1.29405e-07
0.000176159
-1.11489e-07
1.33308e-07
-4.65816e-08
1.25513e-07
-1.08125e-07
-2.57326e-08
-0.000864525
-0.000242331
-5.08434e-08
-9.62779e-08
-6.75094e-07
1.78768e-06
-8.89143e-07
9.92848e-07
-7.27106e-08
2.28035e-07
-1.45367e-05
8.81171e-07
-0.00167824
-8.87606e-06
1.51138e-09
4.2006e-07
0.0102217
-6.20431e-08
0.00217777
4.09778e-06
-1.51968e-07
-0.00176319
-0.00936234
0.0012583
0.00222727
0.000106568
-1.53657e-06
2.81031e-08
0.00639803
8.34543e-08
-4.5381e-07
-7.20382e-07
3.32631e-07
1.46764e-07
0.0222774
1.08297e-07
0.00062216
-0.00772005
8.23126e-08
1.13289e-07
-0.0728938
1.31366e-07
0.00331556
2.92186e-08
0.00143145
-3.67823e-05
-0.00129917
1.29629e-07
6.87308e-08
8.99595e-08
-0.00665567
0.0107155
-0.00258552
0.00169009
-8.1098e-06
-1.35791e-08
0.00470102
0.0309811
8.27514e-08
-9.93791e-08
-6.12721e-08
-1.0253e-07
-0.012571
6.87915e-05
1.34676e-07
0.000749078
1.81894e-08
2.33189e-09
8.86896e-09
-2.22259e-08
-3.33222e-07
0.00113242
2.67299e-08
-0.0055872
-3.91711e-07
2.28142e-07
6.74509e-07
1.76301e-07
1.32667e-07
-4.07232e-08
0.000121278
-8.37718e-08
-0.000157029
-0.0019094
0.00136721
3.14353e-07
0.00253481
7.10126e-07
-1.7546e-07
-6.51394e-08
-1.51498e-07
-6.49973e-08
0.00613925
0.00083097
-2.18415e-07
3.3045e-07
-0.0150592
6.15622e-07
2.41589e-05
5.13043e-07
-1.6756e-07
-7.12865e-08
0.000711265
5.04215e-05
4.18651e-05
-0.0347725
-1.30224e-08
0.000899623
0.00152189
-4.80619e-07
1.05435e-08
3.7537e-08
2.48197e-07
3.01593e-07
0.00175075
-0.0202771
4.21959e-07
-3.96569e-08
9.46161e-06
2.96474e-07
0.000434155
-1.4392e-07
0.000685659
-4.3044e-08
-1.59561e-05
-1.36228e-06
-4.42779e-09
1.70635e-08
0.000244897
1.22665e-06
-0.00151241
-2.28012e-07
-7.26894e-08
9.73621e-08
8.11428e-09
0.000948656
-1.15441e-07
5.61253e-07
9.3055e-07
1.13858e-07
-0.00360034
-0.0111397
-2.33597e-06
-4.27535e-07
1.32626e-07
-1.06913e-06
-1.37488e-05
-1.35089e-07
-1.53391e-07
-1.89908e-05
-3.25268e-07
-1.40204e-08
-0.00307882
3.64383e-07
0.00326899
0.00142815
0.00200747
4.87288e-07
4.03117e-08
-4.0153e-07
1.371e-07
-1.63499e-07
-1.28549e-08
0.0154019
-2.11365e-05
1.27979e-06
-2.91636e-08
1.04579e-07
1.35049e-07
0.00755047
-5.69133e-08
5.65216e-08
-2.58786e-07
2.4512e-08
-5.13047e-08
0.000147581
3.78692e-06
-1.10655e-07
9.65528e-08
6.86682e-08
5.40743e-08
2.79477e-07
0.000172172
-5.06465e-05
-3.17809e-07
-1.01872e-07
-3.43476e-07
-2.90971e-08