/*--------------------------------*- C++ -*----------------------------------*\
| =========                 |                                                 |
| \\      /  F ield         | OpenFOAM: The Open Source CFD Toolbox           |
|  \\    /   O peration     | Version:  v2012                                 |
|   \\  /    A nd           | Website:  www.openfoam.com                      |
|    \\/     M anipulation  |                                                 |
\*---------------------------------------------------------------------------*/
FoamFile
{
    version     2.0;
    format      ascii;
    class       volScalarField;
    location    "450";
    object      omega_0;
}
// * * * * * * * * * * * * * * * * * * * * * * * * * * * * * * * * * * * * * //

dimensions      [0 0 -1 0 0 0 0];


internalField   nonuniform List<scalar> 
10042
(
0.0301691
0.131088
0.0561552
0.0211226
0.0210668
0.53874
0.155464
0.336926
0.0201117
0.0448401
0.291989
0.13341
0.0363549
0.0209858
0.0215846
0.0209814
0.574045
0.293353
0.0238947
0.0249552
0.0361987
0.0282977
0.0211069
0.472152
0.0209912
0.0215149
0.0423496
0.0200392
0.558977
0.477729
0.0225613
0.0435457
0.0200865
0.0200812
0.330833
0.33152
0.0220262
0.020257
0.0217952
0.0207227
0.477949
0.0201015
0.312784
0.486336
0.0210522
0.0209896
0.0198594
0.0215594
0.0561066
2.67794
0.461067
0.0209793
0.561515
0.0236212
0.181769
2.41753
0.0345037
0.275764
0.0215962
0.0195725
0.0556138
0.195116
0.128255
0.33109
0.381651
0.0213687
0.0242387
0.0394856
0.0198294
0.0352411
1.78419
0.0221575
0.0204226
0.0215678
0.021314
1.36895
0.142708
0.0198546
0.162194
0.0239487
0.503472
0.479983
0.0239697
0.0208885
0.0331892
0.0831255
0.0237971
0.0445358
0.020871
0.200977
0.028953
0.0215986
0.120996
0.0857774
0.324443
0.0212422
2.09389
0.0244214
0.133606
0.021551
0.0284215
0.0594632
0.0215965
0.0370389
0.0250774
0.0214606
1.7374
0.0212483
0.143549
0.0214937
0.0215193
0.121813
0.0567011
0.328047
0.276765
0.0198161
0.031844
0.0223764
0.232469
0.019788
0.0195714
0.127808
0.128717
0.0210605
0.222567
0.0209393
0.0209721
0.209168
0.282863
0.0317842
0.0202199
0.0211451
0.0211434
0.0211586
0.118243
1.10345
0.0242217
1.72498
0.0225815
0.156441
0.0767065
0.020449
1.6991
0.0200445
0.0262501
0.0202588
0.0320642
0.0198137
0.0219001
0.213653
0.021193
0.0210726
0.0229418
0.0417444
0.223039
0.026536
0.211257
2.53893
0.0211849
0.0217958
0.0222132
0.0209947
0.775448
0.0208995
0.0222175
0.301282
0.0204079
0.0388238
0.333779
0.0200532
0.206294
0.472922
0.32949
0.0200659
0.0235883
0.247176
0.0210272
0.0202432
0.0210988
0.0198308
0.0224794
0.0251443
0.021578
0.0197792
0.0653004
0.029139
0.0222388
0.019618
2.7311
0.0213587
0.143817
0.0344326
0.020236
0.0248875
0.426644
0.0215918
3.38089
0.111008
1.98682
0.0209036
1.58175
0.0938541
0.095108
0.0202767
0.146728
0.0210691
0.291782
0.040987
0.0214926
0.0211788
0.0414207
0.0201691
0.106065
0.095752
0.022144
0.0414272
0.020219
0.688024
0.0213309
1.15723
2.92501
0.133762
2.75769
0.0374153
0.0211181
0.0957793
0.021597
0.0237541
0.0370704
0.0216383
0.0202441
0.0210211
0.0292978
0.0230727
0.0210229
0.337712
0.023125
2.00928
0.0254433
0.468407
0.787246
0.424522
0.0195617
0.0213436
0.603311
0.0211462
0.443497
0.0250371
0.0230386
0.0215278
0.0246593
0.020242
0.0383284
0.155129
0.0218065
0.0228858
0.0217318
0.021816
2.27256
0.0210999
0.308197
0.0203156
0.0209662
0.0198744
0.0378101
0.122934
0.317101
0.0505862
0.0232703
0.0210306
0.0213586
2.3703
0.0207661
2.73036
0.0217286
0.219148
0.0222246
0.0210164
0.0233567
0.65531
0.0200373
0.368431
3.48239
0.0221433
0.0234945
2.04287
0.0315559
0.0199141
0.0511312
0.0214008
0.0329254
0.0272173
0.0239277
0.356859
0.370546
0.0209751
0.66016
0.0236215
0.0213685
0.0202727
0.0228236
0.122333
0.0196206
0.766851
0.0310564
0.172847
0.0208718
0.0217458
0.819728
0.337082
0.0226736
0.0211048
0.021238
0.0209714
0.0270881
0.0713768
0.0198793
0.0606114
0.471095
0.0198013
0.0220338
2.69499
0.168875
0.24231
0.10492
0.022504
0.0284559
0.0210699
0.0232538
0.0315964
0.0210416
0.0213455
0.030608
0.0213354
0.368867
0.0708829
1.76431
0.200224
0.0202568
0.360153
0.0760117
0.0364093
0.0195654
0.0308265
0.0226856
0.0202286
0.0206805
0.0212216
0.0237866
1.96371
0.0218066
0.339585
0.0237446
0.0205628
0.221964
0.030818
0.0216293
0.0238825
3.18838
0.0225093
0.0214311
0.0221605
0.0221941
0.481746
0.424644
0.0223118
0.0209986
0.0231432
0.0231992
0.326038
0.0195864
0.0241797
0.0208019
0.021421
0.0729965
0.0209746
0.202214
0.835462
0.839656
0.0724104
0.0213599
0.822143
0.0365999
0.0210408
0.0516654
0.0198017
0.0214068
0.0197813
0.0212754
0.0199135
0.0216999
2.01187
0.0217928
0.0286533
0.459225
0.156558
0.0211838
0.330991
0.0220516
0.0440435
0.0209924
2.34348
0.021085
0.192161
2.44685
0.0205906
0.069709
0.0213297
0.806287
0.0216273
0.457957
0.0277577
0.403209
0.0217449
0.330301
0.0221736
0.0284044
0.263111
0.0199233
0.0219785
0.0210633
0.494144
0.0202296
0.0197633
0.0817892
0.0229524
0.0358754
0.438686
0.0210828
0.0365302
0.0229753
0.0198534
0.0278128
0.33706
0.0210775
0.0220942
1.55364
0.247715
0.0219963
2.2772
0.020064
0.026346
0.032304
2.81251
1.91544
0.112066
0.331463
0.377844
0.332605
0.0197473
0.168887
0.87415
0.877365
0.049384
0.0211062
0.0207031
0.258658
2.19045
0.0197809
0.0199317
0.0228301
0.0211538
0.0213393
0.0216913
0.0212141
0.0239717
0.0558367
0.0221389
0.0263296
0.259492
0.2768
0.0201223
2.16398
1.53641
0.138308
0.021175
0.0263341
0.0219082
0.142157
0.0213605
0.0754052
0.0217323
0.147238
0.0205967
0.0246957
0.0199283
0.119191
0.321016
0.0217775
0.0207964
0.0211327
0.297132
0.0203039
0.0438286
0.0725669
0.0690819
0.0204209
0.0564451
0.364151
0.344329
0.0214384
0.0227132
0.393114
0.260402
0.0414256
0.0284224
0.0215161
0.0397625
0.0306467
0.0286466
0.0240592
0.236246
0.0203921
0.0210902
0.021559
0.347381
0.0210729
0.820296
0.0211549
0.0214162
0.0201487
0.0280704
0.0424066
0.021609
0.0220674
0.07867
0.141772
0.0338473
0.0215878
0.0212282
0.0426093
0.32032
0.021384
0.0199839
0.0521639
0.0212567
0.0212955
0.057546
0.0202169
0.343113
0.020981
0.0395901
0.0320781
2.50706
0.0210838
0.0270817
0.021452
0.0203738
0.0705467
0.0195596
0.813543
0.0416156
0.0201178
0.0251021
1.87825
0.774979
0.177119
0.0212879
0.0199779
0.0198013
0.0204077
0.0783231
0.021518
0.856656
0.021241
0.0199714
0.760813
0.0251206
0.110583
0.0223069
0.0207797
0.528045
0.487682
0.0277259
0.192862
0.0213583
0.0279557
0.0200872
0.020123
0.0211709
0.0211111
0.0214273
0.0213872
2.16304
0.0216783
0.0592066
0.0209853
0.0237639
0.0198909
0.0363977
0.716469
0.0201283
0.0210063
0.0829895
0.103937
0.0199118
0.73082
0.021023
0.0309625
0.0202726
0.0221455
0.0203579
3.22786
0.0198986
0.0208389
0.0210625
0.753629
0.0217745
0.0211587
0.0213892
0.387144
0.0211787
0.0210705
0.0203898
0.0210784
0.024398
0.0210391
0.0228359
0.0201058
2.44818
0.659873
0.249245
0.0216033
0.0243378
0.0212826
0.0445941
0.0220343
0.472253
0.053427
0.20783
0.0305305
0.45869
0.0213593
0.0213597
0.419954
0.293092
0.0276109
0.0808642
0.0215812
0.473231
0.020816
0.0214431
0.0201366
0.020294
0.0221757
0.405208
0.0221261
0.0214243
1.93354
0.0211942
0.0511498
0.0204894
0.0220713
0.0350331
0.0213558
0.412252
0.0210829
0.0210725
0.0553748
0.0214336
0.0197775
0.0226837
0.0208599
0.0207839
0.474481
0.0561941
0.696875
0.0215391
0.0208506
0.020865
0.485196
0.0223205
0.0212941
0.0204116
0.0206521
0.46483
2.64189
0.0298204
0.0216807
0.0235177
2.87733
0.0277155
0.0244724
0.03483
0.232588
0.166457
0.474616
0.0208017
0.0213276
0.0211261
0.328178
0.0207874
0.0251137
0.0211863
0.0195663
0.0291379
0.0215987
3.08246
3.2247
0.0198947
0.0210393
0.0197478
0.0887368
0.0202806
0.528336
0.0227504
2.72392
0.0208522
0.0208528
0.0201331
0.0210776
0.0213272
0.0196866
0.0213712
0.0217689
0.0290906
0.0243026
0.269362
0.0213699
0.0688455
0.237778
0.0224328
2.2959
0.0209522
0.0209677
0.021417
0.0214703
0.178552
0.0211879
0.0215416
0.0201705
0.782251
0.0207813
0.327347
0.038521
0.0208689
0.0636059
0.326547
0.0203854
0.0204426
0.0799174
0.0241831
0.823699
0.0273393
0.075647
0.0326691
0.0215193
0.0214617
0.0213308
0.0276734
0.0227012
0.113396
0.110406
0.0195641
0.0205535
0.0219178
0.0326527
0.0241942
0.530144
0.0216465
0.0214063
0.0562004
0.0208551
0.0729219
0.0297031
0.0236674
0.33415
0.0221663
0.0208403
0.0217328
0.0343786
0.0209178
0.169057
0.0217218
0.0337048
0.025413
0.593372
0.021548
0.0276061
0.0237841
0.0218242
0.0368219
0.0200584
0.0319566
0.0208651
0.0217159
0.0209557
0.0213171
0.0227406
0.042539
0.0222853
0.0215533
0.137992
0.0200712
0.0208703
0.0209974
0.0197627
0.0331519
0.0222073
0.0220606
0.024372
0.181304
0.0213121
0.134345
0.821001
0.0206375
0.0209563
0.0197456
0.0546866
0.228707
0.0246971
0.0208648
0.0433864
0.193772
1.92326
0.0220384
0.0662198
0.174418
0.282004
0.0222133
0.0197134
0.0207346
0.313232
0.055036
0.021693
2.02312
0.116901
0.335184
0.183868
0.0210523
0.127553
0.80346
0.120025
0.260396
0.0276262
2.0369
0.021939
0.479361
0.0214176
0.0243083
0.0224267
0.0279182
0.0196352
0.0214756
0.0210273
0.896926
0.0210742
0.0195747
0.822896
0.0213668
0.0276784
0.0222961
0.0888622
0.0208322
0.0221766
0.0213621
0.0211278
0.021192
0.0259787
0.0207936
1.80844
0.163593
0.0922018
0.0211138
0.86291
0.0207475
0.0725516
0.0966816
0.0266398
0.0212092
0.019816
0.0210991
0.0221237
0.733011
0.0358996
0.0208763
0.686199
0.0208917
0.0214994
0.414237
0.0197837
0.0215945
0.692535
0.0208728
0.636029
0.0225888
0.0462206
0.0278798
0.033837
0.0259857
0.0212511
3.39651
3.29279
0.0209949
0.0301945
3.05742
2.19831
0.106197
0.0219513
0.0205789
0.0254093
0.0214513
0.0216184
0.319876
0.0243192
0.0197969
0.035505
0.164913
0.238348
0.0198168
0.0197486
0.0215976
0.0216151
0.575976
0.397002
0.0202862
0.0255744
0.432309
0.0213524
0.0226634
2.15029
0.0227012
0.248264
0.0211378
0.0213596
0.0215443
0.0218244
0.0537103
0.0764377
0.021255
0.271946
0.638892
0.847664
0.0242716
0.0225109
2.15182
0.0392535
0.254759
0.0323153
0.0213443
0.0210536
0.747193
0.791312
0.02197
0.025176
0.0438176
0.020923
0.0396526
0.0219652
0.0209132
0.0218608
0.0371448
0.0208223
0.0210276
2.3802
0.0207259
0.0205512
0.0358454
0.0262209
0.265988
0.0224432
0.0215218
0.741064
0.0424771
0.022671
0.0346462
0.410054
0.020959
0.0201076
0.0261452
0.050675
0.0208321
0.0215328
0.0210339
0.0202459
0.0209374
0.320514
0.0213934
0.0493467
0.0214219
0.031233
0.0202834
0.0216835
0.0286046
0.467808
0.122124
0.0212241
0.0225578
0.450135
0.0552373
0.0255889
0.0220679
0.473755
0.0209753
0.0437418
0.0432276
0.0206209
0.0229231
0.0209976
0.0463448
1.73048
0.0471474
0.0205963
0.0219639
0.0267547
0.0308352
0.0206596
0.0204606
0.0450439
0.01965
0.0206109
0.174345
0.0215053
0.822685
0.0202037
0.0204886
0.020143
0.0298003
0.0217715
0.0211576
0.800153
0.0206249
0.0214076
0.891875
0.0209802
0.0391216
0.0227332
0.617298
0.272244
0.0228116
0.108966
0.0251498
0.0214013
3.17567
0.0219898
0.0208699
0.0198472
0.0209627
0.0241812
0.587803
0.0337388
0.290149
0.206444
0.231186
0.0436009
0.275916
0.0239464
0.113872
0.0200433
0.0285472
0.0215313
0.0215935
0.021787
2.90198
0.293665
0.0212164
0.308119
0.020506
0.0993799
0.0212716
0.0236737
0.0225561
0.0305094
0.26506
0.0211465
0.0199293
2.39993
0.105044
0.0674186
0.035043
0.462357
0.0216559
0.298174
0.51654
0.0207665
0.0205857
0.0208731
0.0249418
0.0207874
0.0221421
0.022128
0.0210126
0.0217126
0.0214689
0.0208305
0.0902601
0.336754
0.0199067
0.0675938
0.0229038
0.0442254
0.0377761
0.0384324
0.0207572
0.0520494
0.0396995
0.0201646
0.0440272
0.457586
0.0216317
0.0205992
0.0218358
0.326676
0.283621
0.0202398
0.345681
0.0214627
0.0215347
2.19719
0.0208137
0.0205981
0.0205252
0.0207315
0.0216436
0.0699565
0.0243139
0.0206606
0.0213248
0.0207008
0.0210723
0.283791
0.0198944
0.0282014
0.142793
0.463184
0.0205737
0.458981
0.0203975
0.0696093
0.0222536
0.0989535
0.0200347
0.311519
2.40336
1.78709
0.021383
0.189262
0.219194
0.327472
0.0217582
0.221996
0.0208824
0.202238
0.327538
0.0250516
2.96076
0.251414
0.391056
2.17636
0.111663
0.29736
0.0205735
0.0219272
0.223583
0.0761322
0.0213104
0.124912
0.0220549
0.0207733
0.0204963
0.157297
0.0768287
0.0293584
0.669568
0.0291392
0.191662
0.0222632
0.0209975
0.0208993
0.356675
0.31621
0.0287497
0.284577
0.0216466
0.0218597
0.033029
0.409503
0.0401472
0.0207549
0.044804
0.74578
0.0218787
0.0757984
0.0201697
0.0354354
0.119598
0.0207555
0.453541
0.206223
0.0212592
0.0222137
0.0209192
0.128914
0.0225396
1.37547
0.0440207
0.020946
0.0207375
0.0200032
0.0343595
0.0204159
0.0495744
0.02314
0.0293231
0.346098
0.0219019
0.0283434
0.290205
0.0218642
0.0321758
0.0221476
0.0213976
2.00107
0.299543
0.0216994
3.0068
0.0217174
0.283619
0.020733
0.0207186
0.0261653
0.0226826
0.0333059
0.200326
0.0217888
0.0222834
0.252289
0.0306642
0.0236417
0.297077
0.126997
0.221303
0.0209299
0.0198658
0.437839
0.0204646
0.941261
0.230145
0.0515749
0.206577
0.0217348
0.0206604
1.27669
0.239338
0.0208568
1.96256
0.024074
0.0210816
0.0806352
0.0222289
0.0213763
0.0466721
0.0239758
0.0205396
0.0233598
0.0209903
0.0225859
0.406449
0.0322694
0.222645
0.0212814
0.0277049
0.0208713
0.0212694
0.298617
0.0214928
0.28025
0.284831
0.0220817
0.108774
0.0350798
0.0379284
0.0197633
0.283436
0.111101
0.0454541
0.02337
0.021683
0.02067
0.29494
0.0235524
0.218391
0.0370357
0.0202648
0.424907
0.019726
2.08333
0.0209865
0.236553
0.0210288
0.020534
0.0201211
0.303685
0.0208057
0.020272
0.0200537
0.0208472
0.0213586
0.033326
0.405811
0.0202636
0.0261346
0.0216096
0.0209709
0.0207111
0.30082
1.95975
0.0255888
0.0212796
0.0207201
0.0201311
0.0244393
0.0251687
0.0200917
0.0679251
0.393801
0.0623671
0.0201936
0.0208405
0.0213241
0.0230918
0.0205853
0.0219888
0.0213369
0.0207398
0.0348381
0.0220356
0.0243285
0.919211
2.65972
0.0207197
0.0209639
0.02091
2.34495
0.0211182
0.0292073
0.024301
0.0204492
0.0212387
0.0210392
0.1165
0.0212857
0.120691
0.24995
0.0561225
0.0212662
0.02564
0.293117
0.0238578
0.0366937
0.0227394
0.0391387
0.0203878
0.0260939
0.158678
0.231663
0.0206556
0.0214794
0.136085
0.0247272
0.05183
0.0242994
0.220114
0.0212476
0.0256748
0.0340838
0.129295
0.0638067
0.0203555
0.0209073
0.0203245
0.0215671
0.0402369
0.156646
0.430537
0.0205737
2.53033
0.0227161
0.311885
0.272551
0.021012
0.945038
0.0468002
0.020654
0.0430955
0.0327308
0.0214335
0.106865
0.0208188
1.96002
0.0219567
2.05885
1.33175
0.0472369
0.0212576
0.025956
0.0219541
0.0208547
0.0201952
0.0201911
0.266202
0.021916
0.0363133
0.396821
3.02074
0.0358594
0.0235431
0.0204028
1.9022
0.0197469
0.152134
3.02102
2.7523
2.19244
0.248061
1.13665
0.0200461
0.0213884
0.0201254
0.0602238
0.0221846
0.801582
0.0247379
2.54878
0.0270037
0.0203195
0.0201505
0.0215115
0.020051
0.221731
0.812764
1.98134
0.0207021
0.0242331
0.0238401
0.0222665
0.0917927
0.0214296
0.177842
0.12409
0.0218743
0.0208197
0.263227
0.0269952
0.0377769
0.338262
0.0216008
0.172994
0.0223558
2.20219
0.0209537
0.0566339
0.0209566
0.133766
0.0441577
0.909097
0.290144
2.33633
0.13436
0.162341
0.0206412
0.0211222
0.318435
0.232752
0.0988246
0.0274244
2.98723
0.0568267
0.334684
0.0415759
0.149539
0.0236473
0.0346911
0.783316
0.0218712
0.0232725
0.0240916
0.0197943
0.0204554
0.020932
0.0212144
2.47639
0.0219786
0.229362
0.09059
0.182371
0.220631
0.146506
0.0200962
0.0217842
0.255094
0.409227
0.0269826
0.272372
1.879
0.12842
0.0207772
0.0330088
0.0239444
0.0833851
0.0410088
0.335307
0.289792
0.0606391
0.0213697
0.0222216
0.112283
0.416124
0.0534659
0.0716173
0.0209569
0.0243385
0.0228964
0.184058
0.0233189
0.0203063
0.0208977
0.0227418
0.0910449
0.174548
0.0217028
0.0698049
0.297616
0.0223209
0.443415
0.0243352
0.0313813
0.0242648
0.0326663
0.457135
0.0210822
0.0207478
0.0216015
0.103591
0.0937481
0.0345164
0.0221158
0.022812
0.0216523
0.483369
0.0340321
0.0233012
0.0216088
0.295292
0.0227451
0.298937
0.0225529
0.0300663
0.020992
0.68863
0.0396954
0.0559818
1.98564
0.0205178
0.0240314
0.20647
0.0227649
0.267969
0.903123
0.0215659
0.0227341
2.34245
0.0213142
0.060762
0.0215656
0.941462
0.280969
0.0402894
0.0229946
0.0209735
0.0211408
0.0212609
0.0245382
0.0198052
0.0214661
0.0209563
0.0206404
0.0234623
0.022176
0.0218902
0.0220814
2.26237
0.0215043
1.73132
0.0219257
0.0215018
0.785291
0.0210711
1.75463
0.270824
0.0213358
0.0220131
0.0413266
0.21784
0.0241453
2.3041
0.0293272
0.0220308
0.1351
0.0206257
2.55792
0.0215259
0.29235
0.0198703
2.66594
2.00883
0.280451
0.0217614
0.0233922
0.0207699
0.023284
0.0448264
0.0207967
0.0213261
0.0470046
0.0242476
0.676726
0.0419732
0.0219825
0.037754
0.0214396
0.0274698
0.0223167
0.0213387
0.0220241
2.5209
1.95092
0.0371616
0.0231443
0.0219962
0.022588
0.110951
1.78645
0.050951
0.897224
0.224345
0.0227507
0.0235951
0.0965211
0.0207595
0.0235168
0.0242466
0.0225952
0.220052
0.0227238
0.0853019
0.02029
0.0219003
0.0960887
0.0229047
0.0236699
0.0225038
0.0261567
0.0538466
0.022152
0.0209768
0.0214234
1.98479
0.450576
0.0241819
0.0215408
0.0206898
0.0219386
0.0212696
0.0613617
0.0209075
0.0204713
0.021507
0.0235603
0.0310553
0.0214054
2.10954
0.0218707
0.022045
0.224966
0.0232013
0.0241545
0.268993
0.0217975
0.114154
0.0207636
0.0206967
0.0220381
0.024461
0.0204379
0.245636
0.0220179
0.0210114
0.943646
0.29758
2.40651
0.2408
0.480752
0.0255302
0.020548
0.0229322
0.281839
0.0283924
0.814954
0.0222264
0.033524
0.0256272
0.378137
0.02067
2.53954
0.208214
0.0209521
0.0252973
0.0217036
0.0221794
0.43302
0.0399479
0.0214971
0.0207267
0.0200363
0.290235
0.021666
0.441805
0.0373875
0.0216222
0.020938
0.021016
1.66117
0.361489
0.0208769
1.157
0.796746
0.0219307
0.284031
0.02158
0.0205593
0.02067
0.0214734
0.0200626
0.0213437
0.0216292
0.0225108
0.0215375
0.0874817
0.0228765
0.384139
0.0315403
0.0212352
0.136885
0.0200165
0.0203497
0.0504617
0.0209304
0.542899
0.021034
0.0824142
3.22756
0.0206172
0.296386
0.28145
0.0214258
0.0218188
0.0212194
0.304352
0.0215408
0.147698
0.138236
0.0215571
0.0276383
0.0405903
0.0595537
0.0211702
0.0326256
0.0216416
0.272033
0.168281
0.0379566
0.486349
0.0208703
0.102571
0.46106
0.144912
0.0214829
0.0604777
0.0227189
0.0528631
0.0204294
0.0227262
0.944788
0.0269598
0.200298
0.219721
0.0241941
0.218678
0.0205403
0.0910835
0.021524
0.0262735
0.443742
0.29937
2.74454
0.0374055
0.0256575
0.798653
0.0243103
0.0209712
0.0203122
0.0218414
0.0220443
0.0252223
0.0210384
0.117765
0.0265972
0.0210305
0.0200221
0.0213085
0.0212594
0.0940984
0.0207031
2.2122
0.0220161
0.123344
0.021886
0.0214427
0.0196834
0.0804881
0.0216306
3.01463
0.977542
0.241949
0.0248242
0.0220434
0.0214018
0.0209238
0.0207541
0.232593
0.0217467
0.0218279
0.975651
0.021382
0.022264
2.89486
0.16905
0.455256
0.0207388
0.859228
0.991594
0.0210064
0.0206692
0.0278142
0.276261
0.459682
0.28519
0.147843
0.0212234
0.0206974
0.163928
0.0267533
0.0217341
0.0292717
0.0216523
0.0231171
0.320168
0.986497
0.0249496
0.0268187
0.0232351
0.0289627
0.914253
0.0215028
0.0209095
0.0214119
0.168761
0.0208762
0.0247489
0.87656
2.90238
0.0204648
0.0207742
0.0196987
0.0214962
0.0211663
0.0314271
0.658821
0.0222141
0.333652
0.0497674
0.685363
0.0242881
0.021897
0.0213874
0.0211783
0.020713
0.0199601
0.0214384
0.968025
0.941894
0.0204734
0.0205484
0.0216222
0.0214448
0.122403
0.0319613
0.84583
0.0731187
0.0452036
0.0689206
0.0212899
0.0211112
0.0212187
0.0214445
0.944822
0.0212061
0.0243469
0.120212
0.201875
0.297966
0.101504
0.947757
0.217596
0.0213387
0.0297839
0.174995
1.22357
0.0213466
0.0218269
0.0203985
0.0213488
0.0213911
0.112364
0.0210415
0.0210273
0.804688
0.0240243
0.825686
0.0212477
0.020619
0.0298962
0.133344
0.0959601
0.357798
0.023365
0.129019
0.0385491
0.0209641
0.137017
0.0210646
0.0237086
0.0215235
0.0205725
2.78136
0.760914
2.52896
0.105583
0.0893745
0.0386191
0.809299
0.0207689
0.0215363
0.204872
0.0213248
0.0216078
0.0233045
0.0213095
0.321918
0.0215383
0.218554
0.220756
0.0200383
0.305828
0.0214867
0.021137
0.0239464
0.0238663
0.0241018
0.0243742
0.0243519
0.334623
0.0214667
0.0212593
0.0202191
0.0422893
0.232954
0.0209057
0.0216543
0.0385619
0.781817
0.0210182
0.0243311
0.0242967
0.020236
0.0212744
0.0210602
0.532528
2.09559
0.0242276
0.0224487
0.0213829
0.0282777
0.139957
0.0214062
0.179602
0.846919
0.0215177
0.0283563
1.00633
0.975861
0.0355909
0.0201408
0.0206642
0.105682
0.0389831
0.866905
0.0260282
0.941714
0.0303771
0.84636
0.450801
2.7369
0.175339
0.896395
0.298149
1.02268
0.021781
0.298176
0.0215983
0.718578
0.022734
0.0221182
0.0241628
0.104525
0.265914
0.0221737
0.0213556
0.135434
0.487854
0.974336
0.0207467
0.0208521
0.0212462
0.0246622
0.0214521
0.0402543
0.865801
0.242653
0.0243372
0.0206197
0.110468
0.0216305
0.021349
0.266241
0.021245
0.0238143
0.0199941
0.545386
0.0632504
0.299641
0.0218478
0.147641
0.996381
0.0337015
0.311599
1.85133
1.00182
0.930451
0.021011
0.0214452
0.0844504
0.0213986
0.0214174
0.0210817
0.0216584
0.0270547
0.0251847
0.0209899
0.450616
0.0207733
0.17414
0.0217802
0.960291
0.0882773
0.0285742
2.4703
0.303853
0.024918
0.987749
1.96845
0.0217718
0.0215525
0.0259672
0.0268966
0.403771
0.0209767
0.0217496
0.253791
0.021341
0.0207104
0.0215566
0.0199408
0.374615
0.0215019
0.0329908
0.0215808
1.77496
0.0212387
2.27763
0.201763
0.231342
0.487605
0.0200658
0.0241124
0.0215675
0.0212268
1.01919
0.100463
0.796275
0.23037
0.01991
0.0222285
0.023841
0.0213991
0.189069
0.0209263
0.0301976
0.90746
0.257529
0.286303
0.021238
0.0215634
0.327094
0.0276482
0.0334667
0.0398243
0.981856
0.649129
0.0217057
0.0208123
0.0209133
0.0215138
0.204229
0.022209
0.102975
0.021419
0.0214926
0.281217
0.0200148
0.172711
0.0241884
0.0214287
0.0241737
0.0890777
0.0207056
0.0224055
0.37897
0.0213612
0.0214116
0.0440705
2.34804
0.0245354
0.0316944
0.0204525
0.0630513
0.484398
0.0637871
0.0213059
0.0207059
0.0280282
0.0213745
0.448217
0.800819
0.223956
0.408808
0.0212266
0.0308344
0.0209722
0.0666818
0.0213603
0.403032
0.287857
0.0213142
1.23169
0.0213131
1.96244
0.0392881
0.0204231
0.139769
0.0207419
0.0209188
0.0205966
0.0198742
0.0220808
0.531061
0.0213194
0.0205874
0.102171
0.0201027
0.0215783
0.0222019
0.0211583
0.0213616
0.822764
0.0312661
0.0199026
0.0226021
0.0224352
0.0212837
0.200067
0.845648
0.0213185
0.0209429
0.0216985
0.16938
0.0214902
0.0218062
0.0223657
0.0541997
0.019914
0.0224412
0.280732
0.0213378
0.711279
0.0212512
0.0214171
0.0210106
0.0211382
0.0206122
0.0212556
0.186529
0.246798
0.0206048
0.0221659
0.0229681
0.0423139
0.026439
0.0464171
0.0212014
0.021983
0.031967
0.0221138
0.24259
0.0276788
0.0210528
0.0207512
3.31303
0.0219752
0.453227
0.0868061
0.021046
0.817083
0.621133
0.293076
0.680496
0.204181
0.0262185
0.0209852
2.93602
0.0213247
0.0228525
0.0293101
0.0200185
0.0213361
2.0089
0.0207417
0.304982
0.974146
0.0219522
0.0213116
2.30658
0.0212426
0.488009
0.0204001
0.742753
0.0638464
0.256408
0.0212606
0.0208492
0.0220954
0.755475
0.829862
0.227486
0.21957
0.0272914
0.0212602
0.694377
2.35682
0.0213963
0.0199633
0.0241279
0.0210242
2.00843
0.0326345
0.0203764
0.178114
0.0208346
0.0207255
0.0203873
0.0211952
0.0213399
0.342924
0.0211271
0.790318
0.0207583
0.0219241
0.0215931
0.0214984
0.021151
0.0212306
0.0720185
0.0206047
0.104641
0.34487
0.231727
0.0243486
0.396941
0.0288403
0.0211562
0.0200856
0.0212725
0.0201343
2.09875
0.247436
0.0223056
0.0226911
0.915344
0.022015
0.21401
0.0214314
0.0210239
0.0213526
0.117098
0.0460995
0.0948605
2.63613
0.0242741
0.169224
0.204965
0.0212479
0.0210659
0.0207331
0.0298045
0.0309368
1.79357
2.70907
0.0321934
0.0209103
0.0312741
0.0211695
0.0872982
0.0209822
0.148638
0.0221294
0.0363998
0.0347176
0.0219168
0.0243143
0.0628753
0.0268659
0.83911
0.0210375
0.0206851
0.0213095
0.0212093
0.170515
0.0205581
0.0215125
0.0259716
0.0198958
0.263464
0.917949
0.0314758
0.0212745
0.0213872
0.0423408
0.0431724
0.0210443
0.0212884
0.101146
0.0213066
0.0212766
0.203421
0.0242902
0.461554
0.289814
0.223912
0.0334808
0.020976
0.0212824
0.0289413
0.0210383
0.0209409
0.82069
0.116248
0.0204837
0.0210656
0.0209232
0.0222862
3.20536
0.0210492
0.0223143
0.0213918
0.0204059
0.0209744
0.053683
0.0229037
0.0209132
0.0199864
0.0218663
0.020705
0.0280727
0.217235
0.0630507
0.0207252
0.0211225
0.0212436
0.0210118
0.280488
0.0213951
0.248187
0.0417052
0.0210509
0.0206219
0.337722
0.020687
0.0207397
0.0209409
0.198278
0.0240485
0.0223598
0.0209506
0.0198828
0.0213214
0.238486
0.0210466
0.0215517
0.0382282
0.0522526
0.0297099
0.0199665
0.220326
0.0195742
0.0378687
0.0209434
0.0200562
0.0206345
0.0215696
0.0211589
0.948839
0.104695
0.256382
0.0658067
0.0264051
1.65556
0.0213276
0.0438887
0.209663
0.021813
0.10933
0.0307464
0.558882
0.02121
0.819361
0.0215893
0.0206516
0.0206326
0.120225
0.329922
0.0251048
0.094159
2.75349
0.0458644
0.0213268
0.0237191
0.0439734
0.18553
0.0423346
0.0244592
0.0215112
0.0391423
0.257847
0.0208406
0.184115
0.0222989
0.823837
0.0205919
0.0204678
0.0278516
0.0270963
2.00628
0.64505
0.0406651
0.0209308
0.0210846
0.0401181
0.388714
0.681224
0.0208242
0.0225505
0.0207106
0.0209868
0.0210194
0.0289492
0.0433058
0.0446422
0.0404786
0.337949
0.809515
0.0208928
0.0215197
0.0208842
0.0206101
0.0265862
0.0210607
0.0213146
0.0212713
0.0209056
0.0253488
0.355274
0.028483
0.0207617
0.020969
0.926713
0.0275668
0.0236543
0.0262933
0.304855
0.0370515
0.0209834
0.0269264
0.0409612
0.0208117
0.799506
0.0209948
0.0209157
0.0207806
0.0625731
0.0209213
0.0207254
0.0220805
0.0214872
0.020851
0.0207391
0.53882
0.478193
0.0639609
0.0216544
0.0208092
0.138545
0.0212109
0.020583
0.0207832
0.27832
0.0213237
0.943944
0.020092
0.0207122
0.0362806
0.0587961
0.0207474
0.0991748
0.851746
0.222103
0.0208582
0.0197381
0.0208079
0.353629
0.0221566
0.0243472
1.01386
0.0210352
0.0204216
0.021766
0.0208824
0.141342
0.0209229
0.0213176
0.0209627
0.0257833
0.22371
0.0213127
0.0206917
0.0214665
0.191981
0.0882841
0.262678
0.0239154
0.0395931
0.0204956
0.0209551
0.81154
0.475361
0.0212736
0.021004
0.315399
0.03166
0.0208903
0.0207723
0.0207612
0.020991
0.0209568
0.360086
0.02157
0.0241515
0.27405
0.803852
0.0212011
0.0270731
0.0261401
0.0387123
0.023781
0.0252412
0.0212907
0.776474
0.0211983
0.0284394
0.268298
0.0213616
0.0898654
0.243712
0.0210412
0.0223172
0.257353
0.334921
0.022287
0.0207362
0.0205072
0.780039
0.0208981
0.0207414
0.0282495
0.0242609
0.0209547
0.304692
0.173876
0.0206289
0.0238143
0.0222409
0.0207583
0.0204382
0.0209231
0.0203976
1.05085
0.0221637
0.0228756
0.0207235
0.0199941
0.0207184
0.0208813
0.0220067
0.026413
0.0226018
0.0474805
0.0210176
0.0209012
0.026121
0.020762
0.019979
0.0221002
0.426529
0.0208216
0.0416152
0.0263618
0.0794944
0.0201977
0.1649
0.430576
0.335302
0.0202708
0.0209909
0.340817
0.0210135
0.21265
0.0210577
0.0266171
0.0229541
0.0210271
0.260441
0.0380648
0.277254
0.249678
0.0243022
0.0207259
0.0208234
0.56208
0.130809
0.0208848
0.0214344
0.0200363
0.0214887
0.0204626
0.389595
0.0206752
0.0202573
0.0215276
0.0216226
0.043733
0.0281995
0.0219827
0.0207225
0.0205216
0.436578
0.0244923
0.0196874
1.07341
0.0305095
0.026655
0.0271243
0.027347
0.0203999
0.0207147
0.296926
0.407081
0.0377594
0.020964
0.0206008
0.225882
0.222382
0.0256703
0.0208704
0.0257628
0.0206912
0.0218273
0.0224834
0.0250797
0.0198747
0.0208064
0.0204348
0.0207548
0.0207164
0.0228372
0.0206419
0.0757299
0.557238
0.020601
0.0207907
0.0199388
0.0210417
0.0214006
0.0209518
0.233848
0.555108
0.0208795
0.0218489
0.0411093
0.021131
0.436721
0.27861
0.257272
0.0206553
0.427324
0.0402726
0.434759
0.0236284
0.0206974
0.189405
0.324705
0.284049
0.0220361
0.0203746
0.217706
0.209578
0.0206104
0.0206885
0.0207219
0.0249239
0.0256311
0.0214901
0.0207084
0.0205762
0.380555
0.436045
0.173152
0.0207251
2.26599
0.0366059
0.0205511
0.251515
0.0210025
0.0208045
0.0208273
0.440076
0.0208251
0.0399348
0.0207441
0.0206784
0.0207738
0.0205189
0.0210041
0.0250538
0.0199369
0.020616
0.200375
0.0206194
0.0214534
0.0205537
0.0202287
0.370597
0.185797
0.0208134
0.0652831
0.0208909
0.020601
0.029431
0.0240992
0.273505
0.0199241
0.0205397
0.0214225
0.0207969
0.4363
0.0205217
0.020788
0.0296105
0.019647
0.0210312
0.0209384
0.0208752
0.110003
0.0210354
0.435971
0.233223
0.438523
0.863831
0.0199281
0.0205839
0.0282201
0.0207535
0.187435
0.0199643
0.438441
0.420861
0.0200895
0.0205213
0.0211908
0.371806
0.0208586
0.0209054
0.411586
0.439694
0.133848
0.0225239
0.0311277
0.0196592
0.334221
0.407226
0.297099
0.33639
0.445606
0.220992
0.0207276
0.0207671
0.0242534
0.0422418
0.0211877
0.0207043
0.02084
0.0391631
0.0201367
0.0201059
0.367494
0.0206635
0.289957
0.0207841
0.471243
0.192416
0.0226758
0.0212304
0.0207975
0.0208898
0.112826
0.255279
0.215851
0.0380609
0.478719
0.256975
0.0210843
0.0229282
0.462346
0.0214884
0.0205804
0.473498
0.110396
0.541114
0.377556
0.243277
0.027606
0.0215984
0.0209701
0.0598525
0.0336405
0.123016
0.426057
0.019701
0.0212791
0.0221727
0.0396216
0.476765
0.0206191
0.0229527
0.216416
0.0218244
0.0242776
1.64233
0.455784
0.0968119
0.0218628
0.0207771
0.266607
0.0210427
0.0196721
0.483149
0.0213258
0.0202129
0.0520445
0.0201526
0.0205364
0.445371
0.182927
0.039854
0.0202359
0.309734
0.0204914
0.158813
0.0155775
0.0331526
0.0209383
0.178355
0.0251326
0.260453
0.0202672
0.020376
0.142429
0.200679
0.316844
0.0207626
0.0208144
0.0203854
0.0206856
0.0317405
0.0208511
0.0738684
0.0223856
0.0764778
0.0202384
0.0625932
0.0210939
0.0204137
0.020699
0.137035
0.178314
0.0196481
0.0199004
0.0204475
0.0204339
0.0413482
0.0205368
0.0444291
0.0235781
0.0395345
0.0315084
0.245887
0.480382
0.0601362
0.0302614
0.030097
2.17784
0.597832
0.164729
0.0341966
0.0708602
0.0206092
0.0929831
0.314736
0.0205836
0.410072
0.477305
0.811612
0.261174
0.0205334
0.356533
0.392974
0.541258
0.0213399
0.0206644
1.23937
0.482054
0.034322
0.020758
0.331595
0.0210775
0.151631
0.284717
0.162709
0.0207402
0.0223943
0.27507
0.0142504
0.020413
0.109878
0.123488
0.332908
0.0210664
0.165222
0.0205028
0.0516269
0.242881
0.377281
0.282409
0.0687043
0.0256502
0.387759
0.0226638
0.0308524
0.0213311
0.0904591
0.0212808
0.0206759
0.0504461
1.99575
0.0213388
0.0183023
0.36547
0.274244
0.0773911
0.287126
0.0201526
0.14123
0.0253291
0.463112
0.0206638
0.0213047
0.0214642
0.0500478
0.0204098
0.0502044
0.0300441
0.0903038
0.0217393
0.022328
0.0198332
0.0580058
0.472742
0.0200876
0.435337
0.779616
0.794033
0.119573
0.0207655
0.0213084
0.0205879
0.0245409
0.0212133
0.0206302
0.0417976
0.0227183
0.0213365
0.0198929
0.0206362
0.0236159
0.261162
0.0212898
0.272747