/*--------------------------------*- C++ -*----------------------------------*\
| =========                 |                                                 |
| \\      /  F ield         | OpenFOAM: The Open Source CFD Toolbox           |
|  \\    /   O peration     | Version:  v2012                                 |
|   \\  /    A nd           | Website:  www.openfoam.com                      |
|    \\/     M anipulation  |                                                 |
\*---------------------------------------------------------------------------*/
FoamFile
{
    version     2.0;
    format      ascii;
    class       surfaceScalarField;
    location    "450";
    object      phi;
}
// * * * * * * * * * * * * * * * * * * * * * * * * * * * * * * * * * * * * * //

dimensions      [0 3 -1 0 0 0 0];
oriented        oriented;


internalField   nonuniform List<scalar> 
14885
(
0.743608
-0.505483
-0.23811
0.195811
-0.409907
0.214061
0.48757
-0.310205
-0.177386
0.414424
0.0618232
-0.475924
-0.677808
0.376332
0.301578
0.369255
-0.485766
0.11654
0.477093
-0.25269
-0.224469
-0.23242
-0.292712
0.525105
0.25884
0.34705
-0.605857
0.112817
-0.30869
0.195841
-0.585153
0.354597
0.230592
0.391987
-0.1962
0.385269
-0.193199
-0.192098
0.735452
-0.264857
-0.470566
0.15763
-0.429103
0.271565
0.236561
0.49893
-0.288724
-0.124716
0.413475
-0.344587
-0.240527
0.189813
-0.445447
0.255584
0.18134
-0.436972
0.255668
0.154378
0.230865
0.447781
0.295836
-0.0783171
0.492959
-0.547238
0.154717
0.392532
0.236986
-0.587919
0.351062
0.308401
-0.646473
0.338085
-0.242776
0.355522
-0.449897
-0.17565
0.625599
0.43214
-0.0628536
0.565038
-0.495069
-0.0699829
-0.104327
0.522639
-0.418089
-0.194725
0.314411
-0.119706
0.254904
-0.555819
0.300903
0.541637
-0.286775
0.302102
-0.534534
0.405866
0.0787856
-0.484649
0.3687
-0.675986
0.30755
0.306184
-0.612826
0.306735
0.37859
-0.482767
0.441304
0.173404
-0.614703
0.386711
0.178309
-0.296985
0.344071
-0.0325689
-0.311517
-0.367869
-0.0490407
0.416844
-0.264339
0.565733
-0.301216
0.46803
-0.230865
0.566064
-0.638551
0.0725282
-0.32365
0.481436
0.397702
-0.163649
-0.234098
0.198079
0.0793683
-0.277485
-0.0196592
0.363709
0.661048
-0.420063
-0.240733
0.143437
0.393502
-0.203721
-0.0401268
-0.261151
0.30125
-0.159364
0.0391555
0.120181
0.367757
-0.213395
0.210692
-0.578575
0.3678
-0.230414
-0.190554
0.420991
-0.334293
-0.357705
0.692001
0.169651
0.227998
-0.0160898
0.31678
-0.300743
0.281231
-0.313822
-0.301118
-0.262874
0.563979
0.303138
-0.612729
0.309613
0.267356
-0.5651
0.297828
0.153378
-0.409472
0.256117
0.468533
0.0581416
-0.526686
0.610395
-0.546168
-0.0641972
-0.0648859
0.533406
-0.286258
-0.036163
0.322391
-0.537498
0.335285
0.20231
0.696278
-0.406944
-0.289267
-0.443585
0.213206
-0.27774
0.545152
-0.305936
-0.569428
0.113383
0.456049
-0.0596911
0.625796
-0.480808
-0.0886134
-0.304886
-0.14061
0.00496885
-0.372867
-0.160519
0.571747
-0.051774
-0.519678
-0.3716
0.642805
-0.270881
-0.131108
0.352864
-0.221796
0.362022
-0.0330738
-0.328991
-0.266655
0.42004
0.259432
0.228116
-0.283352
-0.252491
0.536047
-0.597185
0.374754
0.222481
0.0967092
0.20348
-0.300221
-0.422643
-0.00639042
-0.0530171
0.334221
0.356111
0.00586987
0.28286
-0.608946
0.326154
-0.381183
-0.110702
0.492051
0.00317262
-0.0141348
-0.228111
-0.208219
-0.275521
0.48372
0.250636
-0.451192
0.200631
-0.224609
0.32128
0.241395
0.0850113
-0.326473
-0.455277
0.350541
0.104685
0.255487
0.0213997
-0.253239
0.403301
-0.1501
-0.222302
-0.246979
0.469365
0.15017
-0.101335
-0.048862
0.314017
-0.59168
0.203586
0.273449
-0.460386
0.238109
0.306515
0.163302
-0.469698
0.442963
-0.239436
-0.158086
0.399426
0.261024
-0.56215
0.620026
-0.316839
0.663661
-0.410105
-0.253502
0.651777
-0.275598
-0.37619
-0.321861
0.650947
-0.328907
0.550443
-0.339857
-0.667085
0.322319
0.344817
0.264261
-0.59855
0.163031
-0.345534
0.182464
-0.146462
0.309471
-0.582696
0.3186
-0.455296
-0.141848
-0.366287
-0.260628
0.627065
0.0908865
-0.457169
-0.289601
0.24945
0.186871
0.0696289
-0.256513
0.24616
0.40561
-0.310108
-0.27516
0.585346
0.170189
0.306535
-0.476594
-0.663887
0.326012
0.338006
-0.43603
-0.000720597
0.436897
0.220217
0.222697
0.402699
-0.192295
-0.210446
0.166565
-0.421401
0.25486
-0.0723815
0.119454
0.254631
0.145785
-0.40045
0.282766
-0.490989
0.377186
-0.211209
-0.166003
-0.362426
0.659055
-0.296577
0.121855
0.0282815
-0.653722
0.203886
0.391909
-0.0849717
-0.306945
0.602191
-0.295907
-0.355489
0.224341
0.199139
0.411294
0.26595
-0.431358
0.165374
0.520604
-0.294572
-0.226045
-0.246249
0.560403
-0.312029
-0.30934
0.621467
0.0987871
0.250911
-0.349661
0.233756
0.0414164
-0.275194
0.626823
-0.34389
0.368028
0.0238762
-0.112363
0.29922
0.0139233
-0.173312
-0.201366
-0.462403
0.485629
-0.177217
0.0226219
-0.534738
0.512387
-0.159203
0.600513
0.147224
0.255432
-0.543893
0.450185
-0.237509
-0.212703
0.149476
0.371109
0.400639
0.295713
-0.0991686
0.354627
0.564796
-0.158954
-0.162727
0.478307
-0.315617
0.287364
-0.633204
0.345914
-0.3069
-0.188177
-0.411455
0.342362
0.0690635
0.378861
0.232114
0.16136
-0.100202
-0.311286
0.572667
-0.477582
-0.0949772
0.322382
0.279933
0.526128
-0.355821
-0.341563
-0.204586
-0.164262
0.41884
-0.103711
0.301519
-0.197843
-0.192912
0.668245
-0.324719
-0.34345
0.113793
-0.554433
0.440624
0.359273
-0.299378
-0.059926
-0.365966
-0.171442
0.587893
-0.168741
-0.419146
-0.132278
0.224363
-0.0921107
-0.306419
-0.286807
0.593383
-0.381819
0.201096
0.166645
0.272999
-0.58307
-0.32146
0.217724
0.244853
0.0384444
-0.283323
-0.0872643
-0.335315
-0.140189
0.0241146
0.116063
0.307621
-0.635598
0.327997
0.00205146
0.00994281
-0.0119986
0.136917
-0.508247
0.244089
-0.00647205
-0.237636
-0.257152
-0.0906132
0.347736
0.291615
-0.493062
0.201458
0.325315
0.190196
-0.515417
0.207452
-0.482996
0.580873
-0.254708
-0.56296
0.442946
0.120051
-0.112223
0.345951
-0.218363
0.525061
-0.00492283
-0.431011
-0.29392
-0.188639
0.514034
-0.168716
0.460353
0.320501
0.170766
-0.491276
-0.569741
0.0584372
0.511484
0.550593
-0.566205
0.0156
-0.647882
0.413136
0.234807
0.484142
-0.122051
-0.362137
-0.415851
0.623113
-0.206891
0.313699
0.0634634
-0.0694385
0.00596945
0.62439
-0.336977
-0.0244911
0.0879446
0.485702
-0.346623
0.408688
-0.310196
-0.490722
0.285509
0.205244
0.410627
-0.244065
0.426703
-0.182477
-0.244324
-0.381262
-0.0740392
0.590942
-0.268455
0.506961
-0.416031
0.0748603
0.284376
-0.484163
0.162491
0.447394
0.125361
0.272057
0.13404
-0.389678
0.25562
0.0151347
-0.0119663
0.255333
-0.340312
-0.413307
0.56805
-0.520177
0.285974
0.234175
0.328968
-0.587989
0.258964
-0.349424
0.613686
0.397896
-0.557094
-0.281939
0.331628
-0.0497261
-0.473937
-0.203768
0.626204
-0.297301
-0.205089
0.460422
-0.203632
0.302455
-0.152596
0.529033
-0.385567
0.132284
-0.302874
0.57591
-0.0668733
0.369528
-0.302687
0.307506
-0.303651
-0.00389629
-0.269388
0.535268
0.401529
-0.267482
-0.479456
0.173198
0.187159
0.275394
-0.462592
-0.00849018
-0.00564982
0.631691
-0.238893
-0.392441
0.627915
-0.253119
0.636937
-0.329051
-0.307834
0.280351
0.380932
-0.518691
-0.119819
-0.305456
0.268027
0.0394168
0.363655
0.264305
-0.364003
0.297116
0.741633
-0.444404
-0.296847
0.493715
0.0133362
-0.511359
0.176979
0.334625
-0.134614
0.33264
-0.307363
-0.25942
0.566816
0.22194
-0.258136
0.485861
-0.298704
0.25771
-0.571255
0.313462
0.129938
-0.39644
0.266548
0.257649
-0.552685
0.295134
0.292865
0.44913
0.292545
0.341156
-0.516789
0.612704
-0.422265
-0.190507
-0.034958
-0.105241
0.409261
-0.279318
-0.0753447
0.564935
-0.489744
0.0153418
0.0149714
-0.0303202
-0.559265
0.317025
0.242232
-0.368431
0.53842
-0.169964
0.626206
-0.24564
-0.380571
-0.488725
0.176794
0.151369
0.207463
-0.358851
0.575265
-0.280913
-0.294398
-0.574826
0.0423765
0.532651
-0.513796
-0.0242776
0.538026
-0.249052
-0.588523
0.164667
0.42394
0.169423
-0.309487
0.139993
0.129698
0.280922
-0.307978
-0.203156
-0.423746
-0.224076
0.396702
-0.172547
0.0931457
0.494752
-0.310112
-0.210091
-0.384807
-0.174458
0.226445
-0.242578
-0.2347
-0.349664
0.584403
0.602671
-0.204771
-0.128425
0.297806
-0.0222247
-0.491599
-0.142778
0.511826
-0.452566
0.511641
-0.0588995
-0.565286
0.184229
-0.460389
-0.128063
0.284109
0.291109
0.290788
0.335414
-0.483026
-0.0356392
-0.356419
0.470205
-0.211236
0.584353
-0.373131
0.394101
0.269613
-0.542995
0.572601
-0.0295251
-0.0585701
0.280472
0.557677
-0.300054
0.143806
-0.520247
0.37645
0.196117
0.378571
-0.574696
-0.555269
-0.0142995
-0.258968
0.587353
-0.328405
0.229713
0.296536
-0.259996
0.347534
-0.196183
0.295626
0.285405
0.268459
0.226902
-0.495153
-0.520074
0.0145978
-0.563173
7.56634e-05
0.563157
-0.411737
-0.151182
-0.623227
0.377571
0.0824703
0.0309487
-0.113471
-0.367996
0.511811
0.29348
-0.596362
0.533335
-0.383905
0.152985
0.224178
-0.364094
0.153029
0.211051
0.260423
-0.609842
-0.301656
0.613552
-0.311882
-0.0126815
0.548638
-0.535602
0.295372
0.29568
-0.292659
-0.263434
0.556197
0.477104
0.0431446
-0.519989
0.531343
-0.252318
-0.27902
0.434574
-0.264487
-0.170001
-0.308986
-0.299892
0.249534
0.281809
-0.526677
-0.0317178
0.558396
0.357111
-0.0403748
-0.613181
0.354219
-0.203619
-0.287079
0.572036
-0.19243
0.10642
0.0859913
0.0152347
-0.488177
0.47303
0.23847
-0.485315
-0.260281
-0.415466
0.185628
0.264535
0.265821
-0.609614
0.343762
0.186262
0.347032
-0.401791
-0.513467
-0.0184123
0.53218
-0.547147
0.263059
0.284148
-0.297555
0.0327412
0.253068
-0.285828
-0.52644
-0.543599
0.531333
-0.542034
-0.378661
-0.224864
-0.380352
0.347211
0.252068
0.26612
-0.518113
-0.242043
-0.329297
-0.525019
0.192041
0.332928
-0.314144
0.0633446
0.250724
-0.0939794
-0.286423
-0.252291
-0.257618
0.510069
-0.304967
-0.220097
0.152157
0.274445
-0.301294
0.531117
0.045196
-0.227653
0.182433
-0.272937
0.49997
-0.313944
0.636338
0.2096
0.272065
-0.481586
0.172597
-0.540994
0.211814
0.274041
-0.0983733
0.0475588
0.0507995
0.172683
0.261977
-0.598013
0.273252
0.324755
0.505583
-0.319318
-0.152171
-0.151516
0.323864
-0.531981
0.20834
0.548491
-0.24641
-0.425581
0.350055
0.202168
0.112226
0.0988945
-0.518705
-0.0109584
-0.0266176
0.0375629
-0.260529
-0.310015
0.570547
0.0959152
-0.0229272
-0.0138005
0.0367164
-0.530962
0.00428423
0.350214
-0.197264
-0.43035
0.582992
-0.152598
0.564664
-0.278709
0.491909
-0.280052
-0.0340847
-0.25649
0.290584
0.423807
-0.104203
-0.319627
-0.282383
-0.305658
0.450491
-0.277679
0.197054
-0.566128
0.369076
-0.156104
0.40505
-0.248917
0.471532
-0.127419
-0.344143
-0.256885
0.596342
-0.365027
-0.231278
-0.403777
0.247705
0.320806
0.275892
-0.596652
0.206214
0.299367
0.571639
-0.276192
0.346305
0.322014
-0.301842
0.481255
-0.436309
-0.0449381
-0.310258
0.456787
-0.146596
0.268301
-0.302394
0.349522
0.282473
-0.163011
0.462911
0.0183534
0.512375
-0.572035
0.284599
0.139187
0.368404
-0.289637
-0.55304
0.122725
0.437799
-0.252159
-0.281796
0.330579
-0.0487932
0.308303
0.555703
-0.611118
0.055459
0.120727
-0.0815973
0.309178
0.289696
-0.598815
0.52659
-0.242556
0.487279
-0.246298
-0.241006
-0.19088
-0.326955
-0.398714
0.59388
-0.195167
0.551227
-0.354171
0.369972
-0.22278
0.285598
-0.649806
0.310394
0.339475
0.24128
0.316322
0.338446
-0.0459841
-0.292498
0.320135
0.0182882
-0.213925
0.25909
-0.396806
0.318597
0.266896
-0.559437
0.311091
-0.0558547
-0.0425342
-0.638578
0.596109
-0.311317
-0.284804
-0.45387
0.402205
-0.086442
0.430445
-0.343866
-0.323261
-0.25717
0.580503
-0.594471
0.271268
0.448943
-0.239282
-0.574474
-0.175463
0.241408
0.141348
0.380223
0.146312
-0.336371
-0.296758
0.135587
0.234352
0.293267
0.250806
-0.544047
-0.0202814
-0.0374246
0.0576957
0.0343547
-0.316168
0.290165
-0.48438
0.194183
-0.451471
-0.111649
0.137795
0.186264
-0.438758
-0.104168
-0.273353
0.121145
-0.508051
0.194578
0.313676
-0.267061
0.574672
0.208257
0.242364
-0.196496
0.479244
0.156037
-0.518408
-0.275092
-0.110515
0.309792
0.286307
0.553574
-0.312365
0.508936
-0.279897
-0.229039
0.51117
0.0445694
-0.313619
-0.23774
0.55159
-0.453134
0.464523
-0.28334
-0.181188
0.362209
0.274779
-0.340082
-0.254523
0.594618
0.236301
-0.501057
0.264729
0.210604
0.139577
-0.540551
0.508822
-0.607129
-0.480958
0.456669
-0.353237
0.387705
-0.0345023
-0.247239
-0.251817
0.499193
-0.530412
-0.00398582
0.330259
0.289097
0.175411
-0.345758
0.295704
0.0499911
-0.547679
0.337539
0.210165
0.538649
-0.588545
0.0501069
-0.33908
0.598581
-0.259502
-0.145819
0.395583
-0.249829
-0.146271
-0.253025
0.399272
-0.211345
-0.215819
0.427159
0.560466
-0.117446
0.0675977
-0.608156
0.156992
0.326167
-0.482985
0.215918
-0.471698
0.255814
-0.543168
0.0622057
-0.589261
0.354164
0.235419
0.259675
0.361344
-0.447438
0.267302
0.215344
-0.482505
0.30918
0.241296
-0.550445
0.305316
0.166185
-0.235612
-0.312045
-0.174536
-0.206753
0.254818
0.182994
-0.110714
0.399118
-0.288493
-0.351795
-0.283785
-0.155554
0.423692
-0.268222
-0.461231
0.286682
-0.23117
0.528755
-0.297549
0.144133
-0.483214
-0.0703146
-0.282954
0.243129
-0.495249
0.632982
-0.43895
-0.194043
0.513828
-0.277514
-0.414346
0.303776
-0.233529
0.504578
-0.270986
-0.158912
0.363935
-0.205087
0.296549
0.050148
-0.332125
-0.417367
-0.0958445
-0.425345
0.221905
-0.55058
0.328649
-0.03546
-0.338537
-0.250385
0.18528
0.12688
-0.312193
0.130669
-0.546062
0.344022
0.207864
-0.55182
0.303175
-0.413929
-0.363175
0.623601
-0.493106
0.326848
0.166198
-0.0325505
-0.313267
0.0584381
-0.461406
0.402991
-0.258311
-0.293393
0.551694
0.11654
-0.0340858
-0.304115
0.504698
-0.200634
0.290527
-0.56559
0.563629
0.00199892
0.448978
0.183997
0.362117
-0.641923
0.279854
0.360582
-0.602033
0.241469
-0.244039
0.574224
-0.330266
-0.244444
-0.23053
0.390486
-0.160001
0.297768
0.21233
-0.51003
-0.00558004
0.540782
-0.535199
0.0579487
0.208343
-0.266318
0.214481
0.188782
0.309467
0.427132
-0.411836
0.297552
0.281704
-0.579127
0.294839
-0.236924
-0.314726
0.580521
0.556437
-0.334514
0.42544
0.135098
-0.112109
0.414652
-0.302313
-0.315551
0.133536
0.181989
-0.0630799
0.451273
-0.388195
0.4521
-0.393629
0.493679
-0.0566541
0.00573524
0.506052
0.248547
0.234045
-0.482439
0.554984
0.00390928
-0.55875
-0.0112858
0.270539
-0.462339
0.191949
-0.259252
-0.103718
0.362905
-0.266223
0.552908
-0.286474
0.222502
-0.541642
0.319167
-0.343574
-0.139425
0.25306
-0.408705
0.173984
-0.600918
0.139552
0.551612
-0.293834
-0.358329
0.272644
0.257731
0.338646
-0.0708312
-0.243385
0.388937
-0.345523
0.648421
-0.352577
-0.314598
-0.298137
0.0184713
-0.532873
0.514643
0.586321
-0.242279
-0.0869036
-0.105542
-0.549792
0.20625
0.301515
-0.57335
0.271941
-0.237914
0.490062
0.26076
0.161243
-0.539903
0.499544
-0.554151
0.0173964
0.536889
0.318856
0.057834
-0.37673
0.562241
-0.238226
-0.465768
0.0756312
0.390199
0.411932
0.247179
-0.0640041
-0.401674
-0.416441
-0.36094
-0.116558
0.534314
-0.311793
0.356999
-0.420059
-0.0314244
0.255418
-0.304542
0.485699
-0.231686
-0.254017
0.203602
0.28835
0.347105
0.383783
0.239653
-0.398184
0.187196
0.210922
0.17287
-0.624559
-0.452023
0.0240439
0.427974
0.293799
0.191894
0.267859
0.356124
0.270016
-0.396911
0.285058
0.497163
-0.228539
-0.42745
0.0467119
0.380766
-0.166088
0.484927
0.324708
0.262624
0.325474
-0.0694896
-0.255993
0.247591
0.210238
-0.457723
-0.271219
-0.313598
0.584801
0.569741
-0.28124
-0.288326
-0.215074
-0.273036
0.48828
0.533534
-0.240244
0.630433
-0.268158
0.0185728
-0.0177704
-0.409661
0.167809
0.241461
-0.212034
-0.434426
0.0822086
-0.0346557
-0.343834
-0.171966
0.515791
-0.214028
-0.184221
0.502759
-0.329356
0.457725
-0.216339
-0.556158
0.0905567
0.448266
0.172605
-0.244838
0.506954
-0.262005
-0.356817
0.297978
-0.3564
0.0970899
0.48741
-0.219967
-0.524149
0.518574
0.559177
-0.0363528
-0.546275
0.261896
0.284547
-0.272026
0.578592
-0.306343
0.222256
0.220417
-0.442697
-0.353543
0.194554
-0.109515
0.364844
0.199659
-0.523158
-0.518692
0.266312
0.278308
0.270886
-0.549014
-0.585983
-0.110599
0.445975
0.314019
-0.116181
0.529371
0.319993
0.253619
-0.573409
0.632156
-0.276077
0.211503
-0.132162
-0.29569
0.599548
-0.303855
0.486197
-0.200699
0.70005
-0.437572
-0.261982
0.0241404
0.0307131
-0.0548649
-0.130294
0.313377
-0.565763
0.386936
-0.0341101
-0.560361
0.404166
0.156195
0.342589
-0.116182
0.362495
0.269615
0.296914
0.273011
0.559064
-0.000550675
-0.558446
-0.497287
0.25255
0.23082
-0.560845
0.330028
0.582047
-0.285057
-0.154659
0.341114
-0.546735
0.401913
0.144934
0.238467
-0.601632
0.350826
0.262743
0.549073
-0.254163
-0.294822
0.182147
-0.0757496
-0.053628
0.0777359
-0.393834
-0.172764
0.566619
0.308697
0.257194
0.283541
0.317051
-0.600541
-0.568728
0.170001
0.315906
-0.407951
0.15147
-0.257608
0.520728
0.140184
0.0841536
0.246973
-0.512538
0.265645
0.0351867
-0.43527
0.400181
-0.472206
-0.128672
0.391295
-0.234146
0.50044
-0.273397
-0.324282
0.608267
-0.283986
-0.201578
-0.306278
0.176248
0.252939
-0.429087
-0.273311
0.138977
-0.414121
0.250689
-0.454019
0.203309
0.221782
0.28785
-0.509283
-0.476311
-0.226803
-0.255999
0.482799
-0.488486
0.552678
-0.0642908
0.161048
-0.254218
-0.307077
0.561473
0.275892
-0.532815
0.256984
0.32166
-0.582185
-0.170863
0.491729
0.548048
-0.122543
-0.137428
-0.409223
0.484746
-0.281081
0.533063
-0.223851
0.0759004
-0.3725
0.407749
-0.335306
0.199769
-0.348032
0.148206
-0.271602
0.297256
-0.21231
-0.29982
0.143557
0.359197
0.00843473
-0.415313
0.137255
0.188209
-0.543182
-0.309983
0.521838
-0.211965
-0.295387
0.568623
-0.280578
-0.200239
-0.262352
-0.271247
0.471052
-0.465459
-0.550264
0.166916
0.3834
-0.374377
0.0338216
0.340524
0.318927
0.247001
-0.565936
0.126331
0.369614
-0.495948
-0.143882
0.380667
-0.23682
-0.344678
0.583151
0.329903
-0.586249
0.256364
-0.447898
-0.0407991
0.238915
0.248338
0.545775
-0.545339
-0.259962
-0.14798
-0.0481212
-0.384122
0.432315
0.48179
-0.445318
-0.00671275
0.246008
-0.534187
0.288306
0.309305
-0.172055
-0.403299
0.256984
0.438676
0.261872
0.1538
0.397428
0.649843
-0.335695
-0.314156
0.568369
-0.288116
-0.280091
0.247011
-0.551167
0.304215
0.421392
-0.269323
-0.50852
0.158931
0.191032
0.446893
0.111028
0.176065
0.2531
-0.426698
0.173527
0.565741
-0.31867
0.153063
-0.406091
0.320262
0.205612
-0.525897
0.436405
-0.183411
0.392263
-0.192555
-0.344488
-0.415226
0.291595
-0.554283
0.262766
-0.324094
0.47723
-0.153018
-0.602117
0.166928
0.481931
0.104445
-0.585973
0.181519
-0.372811
0.191312
0.0801715
0.215463
0.21688
0.434254
0.214963
-0.479057
0.264195
0.3518
0.24208
-0.301753
0.591534
-0.26644
-0.286331
-0.271568
0.558165
-0.30344
0.263037
-0.558725
0.202477
0.313526
-0.515973
0.201259
-0.475311
0.274049
0.288876
0.306625
-0.595475
-0.216548
0.267052
-0.308089
0.599482
-0.291443
0.196451
-0.506529
0.591076
-0.27091
0.302198
-0.569755
0.267713
0.593981
-0.53883
0.303192
-0.39093
-0.16943
-0.107005
-0.541454
0.228041
0.372748
-0.226947
-0.145872
-0.323042
0.0467201
0.0354799
-0.262802
-0.279355
0.542225
-0.235677
-0.222187
0.357751
0.277251
0.320658
0.329176
0.26962
-0.593912
0.579047
-0.249126
-0.298839
-0.171575
0.470364
0.400041
-0.173836
-0.226273
-0.253936
-0.0579502
0.0376636
0.512117
-0.212656
-0.299482
0.555981
-0.402185
0.430944
0.117171
-0.247427
0.523381
-0.130155
-0.325108
-0.291105
-0.202058
0.243778
-0.524253
0.280496
0.318108
-0.346744
-0.0276592
0.0405103
-0.0255456
0.47665
-0.247151
0.235736
-0.286136
0.575039
0.636301
-0.268513
-0.367558
0.0215568
-0.366189
0.344603
-0.57884
0.168371
0.410474
0.310178
0.305703
-0.56268
0.257111
-0.304714
0.0669647
0.237686
-0.086003
-0.329991
0.278247
-0.622908
-0.100102
0.308431
-0.221918
-0.267639
0.489693
-0.12087
-0.218874
0.339705
-0.520341
0.498905
-0.372577
0.565104
-0.518959
-0.0461234
0.430828
-0.175994
0.295964
-0.499009
0.203154
0.586435
-0.290679
-0.525885
0.182046
0.31384
-0.571427
0.299555
-0.284999
0.0337046
0.251273
0.231524
-0.251983
-0.249096
0.315981
-0.340106
-0.273755
-0.301251
0.575187
0.171373
0.137927
-0.190171
0.55983
-0.240912
-0.503126
0.331224
-0.612211
0.202149
0.28104
0.305528
-0.440271
-0.114804
-0.426237
0.171332
-0.413075
0.241624
-0.267804
0.422278
-0.169242
-0.618552
0.276822
0.341791
0.500689
0.416896
0.303671
-0.576388
0.272746
0.401132
-0.342426
0.259916
0.162298
0.275227
0.367858
-0.362419
0.0749791
0.287407
-0.218959
-0.297435
0.388871
-0.0915032
-0.375197
0.150565
-0.248429
0.419652
-0.553738
-0.26739
-0.0422704
0.119915
0.0449273
-0.0872041
0.28552
0.116234
0.279288
0.103403
0.0787199
-0.235697
-0.0493221
-0.0267807
0.246955
0.370613
-0.423672
0.0530682
0.145161
0.276157
-0.421373
0.534815
-0.214571
-0.236633
0.645783
-0.325124
-0.24795
-0.33824
0.586188
0.209942
0.137139
0.606859
-0.244679
-0.132216
0.31832
-0.186135
0.496087
-0.205985
-0.470777
0.243961
-0.44273
-0.297805
0.614896
0.566127
-0.195508
0.448734
-0.201066
0.289163
-0.413871
-0.194881
0.434234
-0.239399
-0.326985
0.550964
-0.223958
0.137134
0.199429
-0.336593
-0.506222
0.285025
0.221163
-0.345552
-0.204661
0.534112
-0.00861239
-0.525083
-0.0681366
-0.0136266
0.0817509
-0.270341
0.397844
-0.127449
-0.257352
0.592785
-0.335423
-0.62811
0.280913
0.347207
0.442647
0.11243
0.282666
0.198897
0.518823
-0.316296
0.185945
-0.26597
0.509782
-0.424696
-0.195795
0.468314
-0.272517
-0.0631267
-0.299059
0.172743
0.217696
-0.254918
0.147901
-0.380844
0.00498957
-0.0731383
-0.159259
0.317332
-0.158097
-0.514515
0.101175
0.413395
0.309105
-0.159962
-0.14917
0.239711
0.511818
-0.268351
-0.243389
-0.421232
0.182082
0.239083
0.29456
-0.464114
0.0603615
0.348219
-0.211121
0.31286
-0.0794469
-0.233426
0.544024
-0.252362
0.499027
-0.239626
-0.0769706
-0.387107
-0.274042
0.576365
-0.18394
-0.2915
0.28718
0.28135
-0.246872
0.000678289
0.00305984
-0.559137
0.299784
0.447514
-0.302403
0.234937
-0.141682
0.352881
-0.211229
-0.267999
0.530887
-0.262864
0.285935
0.350602
0.195586
0.289216
-0.248554
0.141
0.231684
-0.530028
-0.00252368
0.358808
-0.135872
-0.222977
-0.24597
-0.331836
0.577798
-0.2605
0.557352
-0.29677
-0.603898
0.28177
0.322156
0.346584
-0.147189
-0.228687
0.415817
-0.552076
0.271122
0.302605
0.246555
0.246182
0.265713
0.47207
-0.328514
-0.165274
-0.436766
0.287871
-0.181636
0.47553
-0.315494
-0.160021
0.226297
0.17608
-0.424571
-0.262664
0.594145
-0.331464
-0.372135
0.326283
-0.30476
-0.472878
0.165988
-0.368386
-0.290737
0.208382
0.250932
-0.459314
-0.251374
0.484055
-0.232706
-0.278795
0.569593
0.318095
0.221843
-0.539958
0.178386
-0.559599
0.296109
-0.556575
0.228726
-0.559961
0.331164
0.287322
0.22652
-0.225649
0.37526
-0.155535
-0.219676
0.274153
-0.560293
0.231085
-0.497025
0.152763
0.111526
-0.609347
0.274424
0.334948
-0.357367
0.40326
-0.0458462
0.197375
-0.339078
0.294361
-0.573141
-0.542427
0.279159
-0.288822
-0.282014
0.570939
0.276416
-0.235027
-0.0676236
-0.511211
-0.29651
0.582231
-0.285592
0.239011
-0.5928
0.353797
0.318877
0.24693
-0.241433
-0.31401
0.558068
-0.244021
-0.577562
0.288802
-0.259739
-0.224469
0.484229
0.42709
-0.251066
-0.248503
-0.299036
-0.329064
-0.314479
0.348827
0.294725
-0.202388
0.498383
0.2987
-0.231769
-0.28419
-0.271941
0.503072
0.509002
0.0119003
-0.520695
-0.305753
-0.0566969
-0.296729
-0.1929
0.489675
-0.227924
-0.297193
-0.194111
0.491297
-0.163586
-0.273363
-0.261038
0.0699064
-0.156822
-0.23046
0.408817
-0.561975
0.170831
-0.554304
0.300198
0.00301641
-0.244682
0.111404
0.275485
0.38173
-0.508215
0.126489
-0.0835198
-0.553289
0.232972
0.320271
-0.188876
0.420084
-0.2313
-0.516768
0.220093
0.371066
0.580803
-0.341781
-0.248862
0.582591
-0.333767
-0.165874
-0.256203
0.471273
0.594366
-0.309892
-0.284342
-0.10185
-0.364635
0.466481
-0.169943
0.122795
0.523579
-0.141858
0.515546
0.192067
-0.490969
-0.146258
0.437679
-0.291431
-0.281579
0.254775
-0.11361
-0.440424
0.191712
-0.407539
0.297257
0.256631
-0.553827
0.601008
0.442714
0.454313
0.225843
-0.573152
0.347354
0.325652
-0.2107
-0.114992
-0.14906
0.288563
-0.13952
0.240812
0.333337
-0.321878
0.435689
-0.213457
-0.552459
0.314818
0.237702
-0.174285
0.501004
-0.279527
0.574781
-0.277102
-0.291979
0.589027
-0.296918
-0.27217
0.180508
0.279914
0.129359
0.435764
0.172774
0.258067
0.0044608
0.241265
-0.586373
0.345135
-0.233524
-0.294799
0.490446
0.599578
-0.3583
0.236099
0.344714
0.514224
-0.371664
-0.142539
0.316276
-0.602052
0.285791
0.356429
-0.0858434
-0.270646
0.148183
0.227126
0.260999
0.0518498
0.314925
-0.349083
0.20225
-0.430136
0.227797
-0.571551
0.29798
0.275505
-0.126577
-0.0638358
0.378685
0.0666305
0.377487
-0.444072
-0.200383
0.280479
0.240785
-0.390463
0.290382
0.514986
0.0136803
-0.528644
0.131084
0.383161
0.504111
-0.402881
-0.552992
0.226036
-0.183489
0.520364
-0.336946
0.325991
0.386345
-0.222985
0.115484
0.210129
0.276249
-0.592235
0.316023
-0.248971
0.595201
-0.346216
0.301208
0.350622
0.346749
0.610612
-0.530757
0.522508
0.317833
0.253067
-0.570856
0.30113
0.247738
-0.548712
0.290545
-0.559407
0.268927
-0.228289
-0.109147
-0.399065
0.144609
-0.181749
0.436124
-0.254396
-0.0912497
-0.182137
-0.234775
0.455205
-0.591597
0.28043
0.311149
-0.0976026
-0.375261
-0.384701
0.451378
0.102824
0.253544
0.0953219
0.30976
0.516908
-0.229579
0.236624
0.293868
-0.530423
-0.295012
-0.159027
0.10915
0.0950526
-0.20423
0.115542
0.0371805
-0.480494
0.258727
-0.648044
-0.569327
0.319418
0.2499
-0.57773
0.19076
0.386945
-0.533442
-0.571836
0.317067
0.254748
-0.25269
-0.157028
0.548415
-0.391421
0.543652
-0.412559
-0.0931112
0.406443
0.279779
-0.193812
-0.539234
0.114367
0.424868
-0.312937
-0.214742
0.527634
0.00307631
-0.130975
0.346793
-0.215838
0.111289
0.432374
-0.593768
0.304332
0.289617
0.286963
-0.473614
0.186669
-0.328934
-0.242924
-0.356396
0.21604
0.140316
-0.541911
0.289491
0.252567
0.490664
-0.28324
-0.236861
0.404629
0.311547
0.270575
-0.327344
0.552675
-0.225305
0.270136
-0.145831
0.245286
-0.356949
0.414767
0.425271
-0.119986
0.573819
-0.206573
-0.367256
-0.311045
-0.0853678
-0.205944
-0.381881
0.543193
-0.252568
-0.496488
0.132037
0.397591
-0.529629
0.164945
0.260291
-0.489088
0.298443
0.190663
-0.112341
0.462844
-0.334507
-0.128134
0.3641
-0.154439
-0.209707
-0.579801
-0.244278
0.385197
0.27635
-0.571711
0.295414
0.179646
-0.169119
0.428985
0.271498
0.183854
-0.455363
0.291066
0.22585
0.310871
0.261356
-0.572223
0.190569
0.127718
-0.359185
0.581741
0.560971
-0.284605
0.210627
-0.462004
0.55723
-0.200843
-0.356444
-0.242757
0.532526
-0.289605
-0.402133
0.169493
0.232661
-0.260159
0.559846
-0.299553
0.147137
-0.529427
0.382301
-0.000501972
0.606345
-0.605699
0.18389
0.138474
-0.244803
0.578629
-0.333784
0.263825
0.293613
0.30554
0.258342
-0.563834
0.236975
0.301306
-0.538232
0.219808
0.138962
0.138562
-0.562235
-0.319218
0.556299
-0.258999
-0.223921
0.541994
-0.589549
0.3322
-0.459194
0.200378
-0.427944
0.273637
0.179761
-0.453386
0.222685
-0.494599
-0.0140272
0.523276
-0.264995
-0.0842672
0.070624
0.179534
-0.509394
0.329855
-0.473043
0.127063
0.152689
-0.586277
0.36195
0.224326
-0.388198
-0.292175
-0.299661
-0.304791
0.604464
0.287052
-0.397742
0.246957
0.176646
0.343544
0.249252
-0.556786
0.309154
0.247712
-0.00295135
0.548742
-0.545686
-0.393008
0.607752
-0.21473
-0.274348
0.497032
-0.18648
0.418502
-0.232033
0.373135
0.150437
-0.353182
-0.252269
0.297379
-0.557412
-0.442459
-0.129537
0.540574
-0.281894
-0.258731
0.540572
-0.229696
0.0655733
0.233094
-0.335704
-0.217629
0.159494
-0.317614
-0.534101
0.115013
0.419089
-0.476967
-0.357344
-0.251981
0.37728
-0.121891
-0.339523
0.542328
-0.202847
-0.286067
-0.143106
-0.519724
0.51945
0.296218
-0.564588
0.268546
-0.139125
0.31049
-0.160651
-0.200834
-0.298055
-0.345574
0.139535
0.206002
0.240674
0.258739
-0.224984
0.386374
-0.290169
0.564743
-0.0520259
0.563637
0.364332
0.220453
0.180773
0.128305
-0.415843
0.535917
0.232577
0.272067
-0.177846
0.265565
0.286365
-0.551795
-0.522481
0.279948
0.521923
-0.300539
-0.221401
0.469908
-0.206148
-0.263658
0.303312
0.249199
-0.552491
0.559329
-0.204704
0.184636
-0.431421
0.246808
0.188697
-0.485892
0.224067
0.234024
-0.569156
0.335165
-0.278478
0.572399
-0.269091
-0.261435
-0.417639
0.416599
-0.224902
0.536082
-0.249101
-0.288646
0.058612
0.243107
-0.301755
0.237972
0.180518
-0.249247
-0.132394
-0.159136
-0.276411
0.569875
-0.295546
-0.239869
0.535359
-0.605898
0.273737
0.332191
-0.00306013
0.57569
-0.267276
-0.308044
-0.409466
0.293231
0.548851
-0.292831
0.580237
-0.287288
-0.25682
-0.593526
0.325222
0.268311
-0.570887
0.268352
0.302754
0.403264
-0.579613
0.176364
-0.284172
-0.261506
0.545747
-0.280909
0.408142
-0.186067
0.247009
-0.510334
0.254263
-0.592483
0.338248
0.209626
0.143225
0.317119
0.122965
0.307115
0.268944
-0.276464
0.574089
-0.297571
-0.30503
0.596225
-0.291193
-0.0366494
-0.0213044
-0.135588
-0.201034
-0.510521
0.0963073
0.295664
-0.572032
0.273822
0.421191
0.204479
0.143702
0.582664
-0.165238
0.526479
-0.361252
-0.337034
0.573154
0.594012
-0.339744
0.555952
-0.240634
-0.380492
-0.30633
-0.287259
0.43396
-0.249293
0.522181
-0.28974
-0.232165
0.572686
-0.296333
-0.266267
-0.310967
0.577296
0.240494
-0.46009
0.2196
0.291731
-0.577868
0.282921
-0.243474
-0.0394722
-0.00729042
-0.584142
0.274145
0.263835
0.307174
-0.57064
0.282615
0.26148
0.0670207
-0.00933756
0.309634
0.255585
-0.565175
0.142643
0.206725
-0.349398
-0.531729
0.530362
0.00181846
0.298141
-0.580064
-0.201004
0.506781
-0.305594
-0.253845
0.0308082
0.361159
0.134441
-0.479947
0.296522
-0.33829
0.616097
-0.277811
-0.150182
0.281548
-0.131379
-0.285024
0.517676
-0.348203
0.136935
0.247762
0.274142
0.379575
-0.215685
-0.163875
0.256335
-0.00501721
0.519805
0.222205
0.608525
0.143764
0.202785
0.0683396
0.269624
-0.337994
-0.419732
0.280992
0.291418
-0.572298
0.262412
0.207597
0.368099
-0.246998
-0.349977
0.13883
0.12531
0.516221
-0.520925
0.568206
-0.335274
-0.231353
0.517043
-0.285569
0.562807
-0.328755
0.137997
-0.229284
0.34427
-0.20473
0.315193
-0.577834
-0.242334
0.602681
-0.355716
-0.246943
-0.196278
-0.22664
0.428812
0.404044
-0.54508
0.141024
-0.248099
-0.258157
0.282827
-0.0719972
0.10403
-0.0320507
0.465077
0.0145881
-0.479355
-0.103062
-0.572897
0.102333
0.34512
0.0339943
0.248899
-0.232683
-0.197542
0.282529
0.28642
-0.568787
-0.361354
0.141077
-0.285909
0.495527
-0.209508
-0.557273
0.188737
0.368516
-0.300659
-0.270015
-0.0713108
-0.222228
-0.36405
0.0487264
0.0719798
-0.244451
0.359896
-0.0691927
0.303187
-0.504008
0.178233
0.190544
0.243447
-0.28662
0.552404
-0.542838
0.22888
-0.469791
0.533993
-0.0641856
0.299346
0.0883217
-0.400604
0.170133