/*--------------------------------*- C++ -*----------------------------------*\
| =========                 |                                                 |
| \\      /  F ield         | OpenFOAM: The Open Source CFD Toolbox           |
|  \\    /   O peration     | Version:  v2012                                 |
|   \\  /    A nd           | Website:  www.openfoam.com                      |
|    \\/     M anipulation  |                                                 |
\*---------------------------------------------------------------------------*/
FoamFile
{
    version     2.0;
    format      ascii;
    class       volScalarField;
    location    "600";
    object      ddt0(omega);
}
// * * * * * * * * * * * * * * * * * * * * * * * * * * * * * * * * * * * * * //

dimensions      [0 0 -2 0 0 0 0];


internalField   nonuniform List<scalar> 
9793
(
5.61779e-06
-0.688722
-4.62818e-05
-0.109207
-2.661e-05
-0.0953509
0.00566223
0.489431
6.9951e-05
1.61305
-5.13087e-05
-5.18905e-05
7.08977e-05
2.40459
-7.99021e-05
-8.4184e-05
-0.000303478
9.409e-05
-3.01792
2.78605e-06
4.4579e-05
-1.6427e-07
0.175783
0.620523
2.64226
-1.57088e-06
-1.11265e-05
2.44182e-05
-5.13244e-08
0.000620683
-3.84997
-0.352901
-0.000104084
-1.50177e-05
-4.10168e-05
0.00017195
6.17327e-05
-2.64085e-05
-0.73549
0.000114307
-2.96909e-05
0.23566
5.3504
-2.72729e-05
1.21179e-05
2.94516e-05
-0.85446
-3.46708e-05
0.000103508
6.87182e-05
0.000152617
-1.93332e-05
0.000528637
-3.91911e-05
5.6669e-05
-0.159769
8.6348e-05
0.0140891
9.81166e-05
-1.26148e-07
-8.41118e-05
0.0136809
-2.23211e-05
0.000647635
0.000106079
7.09838e-05
-4.29966
8.94085e-06
5.05979e-05
2.4417
-2.75106e-05
-0.0118127
0.475921
-0.249625
2.42512
-5.36978e-05
0.000915774
0.576017
-3.70078e-05
1.26421e-06
0.00223118
-3.73459
0.000181898
-4.10244e-05
4.06015e-05
0.0289925
-2.51269e-05
0.0140484
-1.51322
0.0186757
0.283772
-0.915148
-0.889341
0.000232747
3.93043
2.52706e-05
2.61845
-0.000133854
3.04619e-05
-3.50547e-05
0.608751
0.000330473
1.04328
7.89439e-06
-0.259001
1.95007
-0.06547
8.60896e-06
-2.43759e-05
-3.12471e-05
-3.4665e-05
0.581063
-0.336135
-4.1391
-2.13582e-05
-9.89449e-05
6.60744e-05
8.27348e-05
-0.194794
1.2086e-05
-0.515046
0.0166664
2.86698
0.00120547
6.18601e-05
3.35666e-05
-0.0012555
-3.08957
0.0859582
0.083262
0.00012653
1.07615e-05
5.2673e-06
-5.11936e-06
0.000120073
0.049426
-0.146624
6.00588e-05
-1.97496e-05
-0.000857372
-0.184143
0.000114661
8.18803e-05
0.00571347
1.35726
-0.143456
1.93704e-05
3.37559
2.88399e-05
2.42032e-05
-3.72654e-05
-6.34791
4.26327e-05
-1.38127e-05
-2.46433e-05
1.10601
-0.000710899
1.755e-05
-0.379162
-3.98104e-05
0.0100261
7.47462e-05
5.20401e-05
0.022873
9.29049e-05
-6.18333
1.4462
9.59777e-05
7.40814e-05
4.27062e-06
3.66749e-05
-3.47731
-3.7713
0.219269
7.08238e-05
-0.0684632
0.0179813
-0.045293
-1.77605e-05
1.39711e-05
0.219636
-0.885744
0.02007
3.55643e-05
5.78891e-05
4.18402e-05
2.2083
-0.192559
6.34885
0.703448
4.81293e-05
-23.9163
-0.00950668
-3.65914e-05
7.168e-05
-1.85442e-05
0.148429
0.000108079
9.36358e-05
2.88595e-05
-6.7701e-06
4.70466e-05
0.00022997
5.36869e-05
-0.365678
2.43921e-05
4.61812e-05
9.10932e-05
1.44748e-08
0.310439
-0.000983432
0.292539
5.5877e-05
2.39832
-6.90911e-05
-0.00238788
-4.61401e-05
0.0101943
-7.64464e-05
-0.00022355
-0.000390499
4.27661e-05
0.148793
-0.136774
0.000317253
2.93352e-05
0.00270802
2.10601
5.28414e-05
-0.000176572
-0.0239374
0.0625554
-0.00151514
0.000762165
-0.0363263
0.000122516
-9.36956
-5.33472
0.000147646
3.10832e-05
-0.378591
-6.32398e-06
-3.97767e-05
0.0265381
0.0200536
6.01136e-05
1.09252e-05
6.6449e-05
0.000530608
5.47785e-05
-3.38841e-05
0.000608918
-0.423528
4.67649e-05
1.91742
-6.44303e-05
8.46172e-05
-2.59552e-05
-0.233886
-1.03631e-06
2.20442
2.3053
-8.04122e-05
-3.85266e-05
-4.14276
8.2112e-05
-7.98808e-05
0.000104974
2.19359
0.0122908
-2.06276e-05
0.193237
0.010092
1.31425
-5.92728
6.69796e-05
3.39515
8.89803e-05
2.46012
-0.881504
-0.794611
-0.588012
0.0610081
0.000125588
0.000300936
5.54919e-05
2.5152e-05
8.62993e-05
0.175066
1.92059e-06
-2.47599e-05
7.86578e-06
0.000111481
-2.23368e-05
3.83611e-05
-6.02424
6.099e-05
-8.09163e-05
-6.06035e-05
8.81133e-05
0.175913
1.45801
0.00174015
-4.21833e-05
0.00705349
-0.000133115
1.00569
-7.74712
5.30887e-06
2.42018
0.000553478
-1.42057e-05
-11.7495
0.171247
-0.000112424
0.000521683
-0.360108
9.27801e-06
-0.000146831
-8.20355e-05
2.08242e-06
1.66969
0.000461555
-1.20203e-05
2.03613e-05
-5.57229e-05
0.0250915
-0.16657
-3.77626e-05
-2.32005e-05
9.08181e-05
-3.43325
-5.68576
-4.57083
0.000117127
0.000751592
2.95276e-05
0.23525
0.00463442
0.000135993
0.000144656
9.04582e-05
0.000454064
6.2338e-05
1.26368
-0.000109505
5.59742e-05
0.36351
-7.53443
2.25641
-3.40049e-05
0.52647
1.79702e-05
-0.0471422
0.588851
0.105222
-5.89696e-05
6.99339e-05
-0.158336
0.697266
0.348148
-0.000108497
5.53093e-05
-5.45428e-05
0.000117162
-5.69381e-05
5.81568e-05
6.28623e-05
-4.3088e-09
3.50821
2.41953e-06
-0.00121856
9.95812e-05
-0.0585844
0.000136425
-3.32103e-05
0.063259
-0.163001
0.317192
0.00402211
0.000105456
-4.39135e-05
-1.87223e-05
0.181521
0.000100593
2.12178
0.0231753
0.00518639
-3.46686
4.26029
-0.000183299
6.85686e-06
-0.129525
-0.125259
4.85567e-05
0.0918687
-0.000218917
7.4646e-05
-0.446434
0.00013524
0.0114202
0.000122008
1.14468
-6.04081e-05
9.82487e-05
1.19215
0.00674473
-0.00156143
-3.77714e-05
2.86384e-05
9.87523e-05
2.83599
-0.000337233
0.000146862
-5.62233e-06
0.000136105
8.55869e-05
-0.00237545
1.5748
7.28152e-05
-4.07267e-05
-0.338026
3.57757e-05
-0.483564
0.0838996
5.77952e-05
-0.000105338
8.02035e-05
-0.000214645
0.000119051
0.438869
-0.000100452
0.890044
-0.000141769
2.99548e-05
0.00111742
-1.53827e-05
-0.0792215
-5.3049e-05
-1.34307e-05
9.08225e-06
0.184121
8.54419e-06
-2.60351e-05
-1.1068e-05
0.000110275
4.41868e-05
6.48988e-06
6.0284e-05
-0.00010065
-2.3037e-05
7.02064e-05
0.0275602
0.000169852
0.213241
-6.05836e-05
0.0763017
-8.20078
2.44615e-05
0.185321
0.00558428
7.61847e-05
1.28052e-05
0.000116764
-5.44501
0.00719561
2.07677e-05
-0.00013625
8.03035e-05
0.00324706
0.023316
0.92344
0.000111152
-5.26017e-06
1.17737e-05
-1.45361
-0.612668
-4.49551e-05
-1.43424e-06
1.10631
-6.91736
0.0259643
6.8316e-05
-5.30053e-06
-0.442215
8.88107e-05
0.017103
0.172016
0.000103312
-0.00172786
1.9142e-05
0.611658
9.21993e-05
-1.64617
-0.144718
-7.03724e-05
1.97298
7.08382e-05
0.282032
-4.09712e-05
2.43297e-05
-0.000105503
7.09265e-05
2.09731
3.08943e-05
9.99365e-05
-1.82439e-05
0.00011657
-1.46014e-05
0.000692623
-6.47927e-05
0.00066688
-6.02866e-05
-3.04743e-05
-0.0839599
-0.00147926
-5.50412e-05
0.848892
7.47295e-05
3.76785e-05
-3.70838e-05
0.000109081
-5.70656
0.00010257
7.05358e-05
-3.8529
-0.621387
0.00147008
0.000160269
-1.25534e-05
5.47249e-05
-8.09139e-06
1.06559
2.33167e-05
0.264091
8.85565e-05
-0.19823
-3.53432e-05
-6.37804
7.08055e-05
0.0421668
8.39656e-05
0.0266399
0.184543
-5.42974e-05
2.92201
-8.12723e-05
1.46962e-06
6.99581e-05
0.848813
0.435993
7.49476e-05
2.71678e-05
0.000110363
0.106272
0.000226572
0.00072713
-1.28583
-5.98834e-05
0.000155109
-0.000661367
2.59708e-06
7.0527e-05
8.83756e-05
0.0280363
0.000138481
0.255149
3.61401e-05
3.44882e-05
0.000833004
0.0013527
-0.00652528
-9.36707e-05
-7.75109
5.82163e-07
0.0416428
-5.31936e-05
9.72534e-05
6.36745e-05
7.2635e-05
-8.10223e-06
0.0616531
-0.00150528
3.06672
-0.011887
4.06682e-05
0.000398861
-0.183248
1.12524e-05
1.4543
0.379739
0.0514915
0.0553847
0.0382525
0.0291989
5.63967e-05
-0.329923
0.000855515
0.000106839
0.0592475
-1.68586e-05
0.286776
0.000368526
-0.0119732
-7.40687e-05
-5.86516
7.887
0.000714745
-0.00459008
4.48742e-05
-0.0176895
-2.04745e-05
9.46322e-05
8.83369e-05
6.703e-05
6.98282e-05
-0.0912429
0.02393
6.37442
-3.37174e-06
-1.68449e-05
0.673977
-0.00560929
-4.61209e-05
0.0027246
-1.1171e-05
-0.158883
0.954907
8.34011e-05
0.00206259
0.137447
5.02444
6.83125e-05
-2.99206e-05
2.85949
0.000152193
2.23504
0.0313406
0.000975551
-6.27913e-05
1.18489e-05
4.60772e-05
-5.39806e-05
0.0773324
-1.73358e-05
0.0950569
-0.0238217
0.00937456
-1.45501e-06
5.6677e-05
5.22506e-05
3.87324e-05
-4.98849e-05
1.43186e-05
-0.0110634
-2.91206
3.63332
2.68174e-05
0.193025
0.000161085
-1.09048
0.0028929
0.00265573
-0.000203463
-0.105159
3.42476e-05
-3.64935e-05
0.000732813
7.94263e-05
7.84032e-05
0.000351821
1.04151
3.57512e-05
0.065628
-1.95023
2.60541e-05
1.55388
-2.54639
3.12014e-05
-0.000505522
-8.6488e-05
4.64428e-05
7.22236e-05
-0.000160336
-1.50595
3.56214
7.34633e-06
1.89895e-05
-1.10845e-05
7.90596e-05
-7.99867e-05
-6.38981e-05
-0.218688
0.00293234
-0.000190212
-5.50218
0.000203099
7.74441e-05
4.79787e-05
-4.02364
0.000108802
0.000185439
0.00383405
0.0804985
0.000129091
7.52164e-05
-1.59401e-05
8.80194e-06
1.41927e-05
0.000911465
-0.309624
-1.48212e-05
0.0287606
-5.2641e-05
7.4449e-05
-0.0162223
-7.95353
0.0215412
-4.23767e-05
8.93079e-05
-2.72118
-8.27249e-05
-0.463007
6.7706e-05
-1.71643e-05
-5.26498
0.56245
5.79075e-05
0.0169457
-0.00079714
1.57353e-05
1.03321e-05
4.38406e-05
2.71999
8.76097e-05
-4.69836e-09
0.344622
-9.5078e-05
0.0270529
1.24221e-05
8.71262e-05
-4.61369
0.000149428
-1.10141e-05
4.45751e-05
0.000259747
-0.388363
9.61265e-05
5.19826e-07
6.38265e-05
2.40868e-05
0.000161746
3.25311e-05
2.71623
1.07217e-05
-1.84138e-06
6.79351e-05
0.000197503
-0.00127279
-7.46984e-05
-9.94349e-05
-1.97017e-05
1.03766e-05
-5.37985e-05
-0.210614
-3.08464
5.28446e-05
5.6928
3.83196e-05
-6.33459e-05
-0.709851
-0.25496
1.43755e-05
7.89938e-05
0.027455
0.00285614
0.000185205
-3.47169e-05
0.738596
-1.14893e-05
0.000869375
-9.00618e-05
-0.00524102
-5.82101e-05
0.000198699
-6.30575e-05
0.000178681
7.88206e-05
-1.75516e-05
-7.84832e-06
-0.0235778
0.000121528
6.23046e-05
3.97716e-06
3.34868e-05
6.306e-05
8.79657e-05
0.000130724
-0.000136145
0.00445326
-0.00242298
0.000315974
-0.000503687
4.25627e-05
8.77691e-05
-3.30499
-0.117551
0.000120467
-0.580381
-3.8668
6.81433e-05
2.08672e-05
-2.80852e-05
0.00805439
0.00549593
-0.485396
7.78611e-05
2.73596e-05
8.78268e-05
-1.28842e-06
0.000194901
0.00759256
7.25992e-05
0.0515327
8.43267e-06
0.00225503
6.54463e-05
-3.39229e-05
-4.07497e-05
-0.000951864
-0.00102141
-3.13492
-0.569562
-0.415153
0.00171804
-1.93839e-05
-0.169649
-0.401936
0.00867851
5.19246e-05
2.18787e-05
0.120746
-2.91752e-05
-0.100349
0.000128983
6.04616e-05
7.84394e-05
4.75782e-05
-5.55142e-05
1.89581
3.93278
-0.128572
-0.000527835
-4.50945
9.25464e-06
-1.17099
2.22051
-1.3473e-05
3.07187e-05
-4.54836e-05
-0.00698798
9.76548e-05
2.48229
2.5122e-07
-0.0305076
-3.5951e-06
0.44853
6.76244
0.0824257
0.000215597
0.000261786
0.000145759
-0.832097
1.68216e-05
-0.0781146
-0.12537
0.000831232
1.57888
2.75882
5.00642e-05
-5.27153e-06
0.000148028
0.0317713
0.739237
-5.48003
-3.67664e-05
0.0542471
-2.19653e-05
0.0238102
-0.0192149
0.960037
1.44804
0.000143862
-3.28932e-05
0.000278844
8.78656e-05
5.06642e-05
-3.52974
4.76713e-05
2.88096
0.000270256
0.000144407
0.0037826
0.0182037
0.0372999
2.40741e-05
3.21312
10.5029
1.52178
-7.77928e-05
2.88737e-05
2.44826e-05
1.87473e-05
-4.40072e-05
-1.03667
-0.241544
7.72104e-05
-5.44481e-05
0.000355803
0.0847198
9.1537e-05
1.99863e-05
0.00487077
1.74481e-05
2.14255e-05
6.36297e-05
0.00930841
2.04974e-05
3.26918e-05
-3.12296
-0.0012199
1.17492e-06
0.274305
0.0121006
4.22727e-05
3.22467e-05
0.000242725
-1.22875e-05
0.00014665
-1.65778e-05
-8.8664
2.38648
-1.88773e-05
0.000368878
1.04518e-08
0.00777226
-2.97223e-05
-4.42303
-2.1227e-05
-7.20714e-05
-0.0767067
-0.0438068
0.00252132
9.78593e-05
-1.29414e-05
3.58407
0.103153
0.0796425
-0.0624753
0.000103988
3.57807e-05
-0.00011612
-4.54069
-4.28648e-05
-0.0794117
-4.08556e-05
6.65239e-05
5.41096e-05
0.000132578
0.000121211
0.00283698
6.84658e-05
-2.73089
0.000113227
-1.29322e-05
0.000119345
2.52796e-05
0.810117
0.0846162
0.00470793
-3.42367
8.06388e-05
0.000135451
-1.19208e-06
1.12972
1.43461e-05
0.00010804
0.1133
0.000286084
0.000251347
8.72566e-06
0.030522
0.46569
1.65336
5.5606e-05
9.22853e-06
-0.247537
0.000197578
1.34273
-0.0236737
0.00501555
8.4677e-05
-3.64655e-05
0.00843383
0.00583914
0.000131217
0.0370718
-6.99573e-05
8.46592e-05
2.9403e-05
-4.28416e-05
2.03912e-05
-3.66682e-05
-0.112423
9.1022e-05
-1.04207e-05
0.000670177
-1.23947e-06
-6.3722e-05
0.000380388
1.27947
-0.000598722
0.000399734
-0.383179
5.66886e-05
5.82307
0.000293812
-4.02915
0.00222539
4.80621e-07
0.000109048
3.58279e-05
0.731208
-0.0397389
0.00118891
0.0244597
3.88272e-05
1.57169e-05
-5.82141e-05
3.92568e-05
-3.68274
1.32724e-05
3.1709e-05
-0.0428896
-0.0200726
0.771834
-2.01093e-06
0.458394
-0.000263248
0.000787874
0.000346463
0.0594746
0.0573232
-3.90289e-05
1.7919
-0.00744765
6.28506e-05
1.40673
0.00179748
6.75769e-05
-1.69558e-05
-4.07031e-05
-2.36041e-05
-9.93291e-05
-11.7778
0.00287701
-3.2359e-05
-0.207951
-4.10651e-05
-0.253717
-0.0201778
0.000146549
-4.37706
6.29078e-05
0.00012511
7.91196e-05
1.60771
11.3835
0.00350548
4.20827e-05
0.000135757
0.785721
8.71519e-06
0.000191383
0.000104496
2.97563e-05
3.66543e-05
-0.49093
-4.69723e-06
-2.91028e-05
0.000264578
2.26365e-05
-0.0232944
0.0149482
0.000445766
6.8598e-05
5.11862e-05
-0.578384
0.68099
-3.14828e-05
-4.56916e-05
-3.18164e-05
-6.55889e-05
9.15293
-7.17735
0.016199
0.000100951
8.98284e-06
2.02751
-2.66134
-3.00995e-05
-1.26834
8.86128e-05
-0.00479783
-3.17462
5.43303e-05
6.03179
3.19205
0.00977194
-2.93726
0.0855635
4.79076e-06
-1.51768e-05
-0.0536566
0.0730944
9.05931e-07
-2.62133
3.99064e-05
-9.192e-06
2.91316e-05
2.50839e-05
0.00104387
2.22872e-05
0.0376082
-2.88656
0.0638538
1.36354e-06
5.93718e-05
0.00299021
0.112831
-2.67942e-05
0.136718
0.000256456
-3.19412e-05
-9.34393e-06
2.46355e-05
5.41795e-05
7.67156e-05
0.0914636
4.12573e-05
7.8324e-05
-4.40565
0.641644
0.0117536
-5.59978e-05
-0.000297456
-6.43029e-05
5.0338e-05
-5.49332
-10.4913
9.5539e-05
4.71007e-05
-0.803687
0.111523
0.000215967
2.54049e-05
1.78493
-3.87847e-05
1.31214e-05
0.000103362
9.77529e-05
4.3111e-05
0.000130988
1.72887
0.123681
8.32335e-05
0.162748
0.00229798
0.245183
3.04115
0.255707
0.00518724
-4.14117e-05
-0.000106123
6.58366e-05
0.000103077
0.00473655
9.70929e-05
-0.00946536
5.12107e-05
-0.00099271
-7.4799e-05
0.662995
0.000203599
-0.365895
1.34686e-07
-0.183593
0.000188303
-0.00256432
-0.154649
0.00019729
0.000140143
2.11671
-6.2974e-05
2.34734
0.000140155
-0.415133
-0.00010295
0.55743
0.0685609
0.00030717
-7.41647e-06
0.000138791
0.993791
4.5317
0.000399329
0.000150397
-0.0718248
0.0071518
0.00115324
-0.641876
0.00539919
4.03531e-05
-0.0836743
-1.44619e-05
0.000583745
7.91351e-05
-7.66261
7.5684e-05
8.31507e-05
-0.232697
-0.354325
6.40182e-05
-0.000994959
9.09319e-05
0.00194508
7.16192e-05
0.0849297
-3.51624e-05
0.00272726
9.13454e-05
0.000101341
0.2928
0.000145585
1.54198
-0.218339
0.615623
-4.63873e-05
1.48269e-05
-5.27905e-06
1.18034e-05
0.000612335
0.000161726
-4.99161
1.0359e-05
0.0560297
0.000692819
8.53483e-06
5.2072e-05
0.0124114
-0.159466
-4.42022
-5.05566e-06
0.0463712
9.42533e-05
1.09594
0.181298
0.0023102
-6.41665e-06
9.8086e-05
0.000154201
-0.0895568
5.78586e-05
-1.40409e-05
2.98127e-05
0.00112166
7.7628e-05
0.104701
-1.81906
0.260879
-0.000125061
1.64642e-05
2.7876
4.78565e-05
-0.00114259
-5.44369e-05
-1.07371
0.000641443
-2.34909e-05
0.000786191
-0.0855281
-1.93055e-05
-0.709497
-1.21534e-05
-0.0298364
0.0569649
-0.152146
-0.0622148
7.09108e-05
-1.47477e-06
5.7802
6.27046e-05
0.000932388
0.0125651
1.34097e-05
2.02672e-05
0.839176
-5.59506e-05
-0.0197602
9.8437e-05
-0.00151742
-3.71283e-05
0.0967081
-6.09817e-05
1.66577e-05
-0.486979
0.333185
-2.42584e-05
-7.47416e-06
0.0163049
-0.257908
0.0845695
0.110572
2.6078e-05
2.33999e-05
3.31306e-05
-2.78173
-6.11788e-05
0.335058
0.00985617
4.82048
8.80354e-05
9.30341e-05
4.4627e-05
0.000267049
-0.00276716
0.140528
0.599358
-0.528314
-0.0162583
8.46097e-07
-0.211588
-6.16411e-05
0.00986993
-5.1879e-05
0.000226803
0.000548968
-4.96444e-05
-6.96008e-06
0.0115246
9.13701e-05
0.000472184
0.00471695
-1.84093
0.947592
-0.000257253
-0.728527
7.61741e-05
1.21945e-05
7.27882e-05
-0.0680896
0.00132809
3.0455e-05
0.0115244
-2.30884
0.000553688
0.0274772
-5.41682e-05
2.16041e-05
-3.89594
4.14759e-05
-0.164867
7.40147e-05
-2.19096e-05
0.538255
0.0419985
-5.5991e-06
-0.000831406
-0.0770744
2.81684
1.51494
1.94833e-05
0.0123171
0.00385125
-4.76839
-3.76047e-05
0.576362
-2.46081
-3.67291e-05
-1.02544e-05
0.000138463
0.121563
0.000154699
-3.76196e-05
1.58032
-2.96998e-05
0.000122893
0.0257963
0.00810215
0.16473
0.356688
-0.182074
-5.25666
0.000144568
-1.54618e-06
-4.10634e-05
1.19348e-05
1.92057
-1.05029e-05
-0.076213
-5.30758e-05
2.25034
-1.39195e-05
9.19413e-06
-1.85857e-05
1.1128e-05
8.41635e-05
4.61892e-05
1.00257e-05
-0.0938849
-9.65676e-06
0.00426889
1.7789e-05
-3.68634
-1.83875e-05
0.000138101
-1.73212e-05
0.000907961
1.4122e-05
2.63717e-05
-8.61259e-05
-3.13384e-06
0.000115259
-4.46982e-05
-3.62317e-05
-0.000134908
0.0879291
-0.332933
2.75466
-0.882939
5.59017e-05
9.86678e-05
-4.34852e-06
-8.98005e-05
-6.37036e-05
5.86162e-05
0.112513
5.76763e-06
-8.61783e-07
7.7472e-05
-0.000109199
6.6311e-05
0.666108
7.89105e-05
7.88322e-05
-2.11576
0.00192525
-9.23721e-05
-1.43343
-3.01809
-2.63933e-05
-0.24678
0.0436672
-3.79971e-05
2.7229e-05
-0.000116216
6.21226e-05
0.000160741
0.000228752
-0.000541663
9.98773e-05
9.29039e-05
-6.10475e-06
-2.27083
-8.88711e-05
0.000584877
0.000114169
3.18895e-06
8.05938
-1.43914e-05
3.25515e-05
4.56592e-05
6.09035e-05
-3.2454e-05
0.0869554
-3.19814
1.09968
2.2949
0.0326941
0.000256137
6.0008e-05
0.110641
0.0156111
-4.69618e-05
0.000213746
-1.03781e-07
-6.11641e-05
0.000150302
8.27632
0.000918403
0.000133472
-7.2367e-05
-0.0674663
8.56961e-05
0.211009
0.000148931
-0.0283961
-0.132809
-0.0175975
5.59217e-05
-3.11534e-05
-9.69218e-05
0.000248963
-3.75526e-05
0.000342106
0.00419832
0.0223703
0.000114693
-0.351402
1.85002
9.89316e-05
-0.290719
0.000566563
0.0445907
0.00701889
-7.3574e-06
0.000120187
0.00116521
-3.41641e-05
2.229e-06
0.000128344
-1.61064
2.81394
0.000370128
5.87606e-05
0.010308
0.00030363
0.241877
-0.084425
-3.82242e-05
7.84855e-05
-1.62523e-05
8.70707e-05
0.0011063
0.00143106
-2.71385
5.19576e-05
0.0229674
0.000288659
1.05945
0.0115007
0.779775
4.23536e-05
-6.83853e-06
-0.14129
0.147853
0.00145598
0.8097
7.59976e-05
0.115768
-3.99607e-05
-1.65992e-05
-0.371306
0.0208697
5.44825e-05
-4.19444e-05
0.00833813
0.0295064
-0.0161537
-0.000449152
7.66404e-05
6.23228e-05
-7.13492e-05
-0.0457176
10.2727
-2.44716e-05
0.00230591
-0.280259
-0.00266839
0.0669695
0.00692399
-3.37146
0.454025
-9.48087e-05
8.91742e-05
-0.271183
-2.63977e-06
0.000736498
-0.129987
-3.70402
-6.96127e-06
1.36898e-05
0.131685
-0.0552316
-0.088067
5.91559
-0.84129
0.538465
7.05637e-05
0.000135359
-3.76257e-05
3.38739e-05
3.70975
-7.17716e-05
0.0420977
0.397818
0.00214452
6.87407e-05
0.0906808
7.66687e-05
0.000273098
4.26919e-05
0.000676616
-1.1591
0.924464
7.26898e-05
0.000119405
-0.000935615
-0.4551
0.0348217
0.519303
0.000448159
-4.32064e-05
-0.00132722
0.000208535
0.00430867
-4.86328e-05
-2.9403e-05
-0.387205
-0.0478384
-0.154245
0.0019886
-3.50478e-05
0.000125742
11.9939
-2.68302e-05
9.74409e-05
-0.000126278
1.37416e-05
0.000129641
-0.963849
-3.41746
-1.13273
-0.191583
-1.42059
2.55608e-05
-4.78117e-05
2.66511
7.36658e-05
0.0172906
-0.0527906
8.53335e-05
3.16264
-0.970808
-0.000254233
8.26603e-05
-0.334481
-4.50925e-05
-0.00998241
0.000534158
2.61554
-1.31422e-05
-6.69026e-05
0.000658724
0.339059
-0.0142008
-0.00221183
-2.98391
0.233817
-0.000558641
-0.0356316
0.0897089
4.74431e-05
0.0487557
-9.64455
0.00040372
0.0017078
-0.54444
0.000365688
0.000994637
9.76644e-05
0.000508724
0.00102828
0.00139304
-1.25773e-05
3.17213
0.0196074
2.17668
-3.34302
-1.08072
0.000452495
0.0905369
3.63657
9.77083e-05
1.66307
0.15861
1.3689
0.00013345
-2.86481e-05
2.49226
-9.12859
0.000144104
-0.0308032
-4.35247e-05
8.93698e-05
-0.040843
-5.16247e-05
-0.394666
1.24731
-1.16937
2.12446
9.16226e-05
0.000558381
-2.39981e-05
6.2876e-05
0.00508315
0.00135268
6.0198e-05
-0.20401
-0.182637
-1.47594e-05
8.36865e-05
-0.116304
8.18972e-05
0.14309
5.13999e-05
0.0231378
0.0195236
-0.294813
2.3475
-4.12499
0.0434923
-0.0877656
-0.579778
-0.000439925
-3.09042e-05
0.0133833
0.0101494
0.0679207
1.57373
-9.67461e-05
0.000289459
-1.40095
0.085373
3.37173e-05
-2.52417
-3.41103e-05
-0.234263
0.040461
-0.258169
9.28907e-06
3.08272
-0.069324
0.00022574
0.00072982
1.74355
4.9734
4.72089
4.55792
-3.10467e-05
0.870977
0.0865593
0.000283634
0.041317
4.74894e-05
2.89751e-05
2.08418e-05
-0.395436
0.126159
5.17915e-06
6.10328e-05
3.11413
0.00129222
-0.951027
0.00224722
0.185636
-0.139264
2.88765e-06
0.0953091
-1.1004e-05
9.33555e-06
9.03725e-05
0.000259569
0.00031619
0.000278726
-0.0272933
0.00011079
22.6891
0.0124502
-3.53415
2.41432
0.0171668
-4.59445e-06
-0.216803
0.128432
-0.295156
0.00043566
-6.63503e-05
0.708752
0.592382
-0.384607
-4.98777e-05
-1.28936e-05
0.000226327
-1.01603
-5.60146
0.000527662
9.21919
-0.000309741
5.56214e-05
0.703309
-0.000168267
2.77812
5.31237e-05
-0.000207635
-0.00779492
1.67342
-0.233784
0.0367178
-0.215142
-0.0261645
-5.50069
-9.55388e-06
-2.25384
0.00149868
0.000102995
9.86066e-05
3.78975e-05
-1.81637
-0.000200594
-0.207131
-0.331624
-0.000549034
0.0449328
0.0106353
-0.71329
-0.0375698
0.560658
-2.71656
0.0109311
0.000109157
7.71962e-05
0.00784542
0.00474697
0.0378708
0.657333
0.741472
-0.0800686
0.000135643
2.85461e-05
-0.00346298
4.18556e-05
3.99749e-05
8.34541e-05
-0.322062
-8.91227e-05
5.10216e-05
0.760598
0.0148498
-0.107792
-15.873
-0.138496
-0.51867
-2.70713
-1.92969
-0.664845
0.000481576
0.000106269
1.42691e-05
-0.0290603
0.00783223
-0.135646
-0.000352937
0.000350916
3.8674e-06
-0.0614975
-0.216841
-1.57772e-05
0.000179974
-4.51263e-05
-2.08219
6.32172e-06
-0.000125194
0.00136895
0.280304
-9.27174e-05
-0.00268073
0.0231682
1.55191e-05
0.00838622
-5.62017e-05
8.1887e-05
0.000640672
-0.0533032
5.19244e-05
0.00026758
-0.0234736
0.255276
1.2731e-05
3.08243
0.000164168
-0.267434
-1.25957e-05
-4.18335e-05
0.000121258
0.0150054
0.000158815
-2.19352
-6.73003
0.000462951
8.97992e-06
9.84955e-05
2.52516
-4.43079
2.8039e-05
0.0520837
-0.273853
-0.00017213
-0.00603076
9.51107e-06
-5.20198e-05
-3.66315e-05
0.608237
0.000128847
9.43564e-05
0.739517
-8.1017e-07
-0.00202365
-0.0869671
5.73157e-05
0.0226548
-0.000299878
-1.06064
-3.33235e-06
-7.95797e-05
-2.44645e-05
-0.000291038
9.02043e-06
2.61162e-05
-0.370354
-0.0399552
-0.002409
-9.84499e-05
0.136264
4.05962e-05
-1.80354e-05
0.000170405
-0.597781
0.573692
7.68698e-05
1.87746
0.398198
0.00184054
-0.338383
-3.61004
-2.00049
-3.21938
0.00475207
0.010798
-0.00906108
0.000204813
0.000141948
3.74401e-05
0.000214121
1.94009
-8.96713e-05
1.58501
5.27577e-06
0.0373468
0.00461932
-7.8668e-06
-2.31384e-05
2.70801
-6.24995
-3.18382
0.12707
1.85442e-05
0.00926887
-0.454591
4.78362e-05
-3.2727
-0.000174334
0.00567992
-1.174
-0.000774495
-3.90493e-05
0.00768117
0.00774201
-7.60657e-05
0.355452
0.662599
1.06507e-05
0.000103166
8.7796e-05
-2.48243e-05
0.357844
3.81832e-05
0.00018017
3.39859e-05
6.6374e-05
0.000289595
-1.6956e-05
0.751407
-0.00465689
-4.22207e-05
0.000105212
-0.0156677
1.21252e-08
-0.000651477
-0.416166
-1.98338
0.0016449
0.0131544
0.000368788
8.72239e-05
-0.0308613
4.1561
0.000422279
0.297052
-0.201428
0.00145138
0.000568501
-7.4035e-05
-0.00119646
0.000321913
1.0855
-0.000160316
1.4703e-05
2.32037e-05
0.55849
-8.14616
0.000341443
0.0270414
2.20714e-05
-2.83985e-05
0.0369797
-0.15643
5.46241e-05
0.00373757
1.05511
-0.000689393
7.70873e-06
-1.20209e-05
0.870087
-3.54691
-7.56708e-05
0.727264
9.12903e-05
-0.104526
0.0387176
0.000123634
0.536709
0.000130883
9.49069e-05
-0.78337
-0.099369
-6.59162e-05
-5.39144e-05
-0.166878
2.84102e-05
-2.57292e-05
0.0795984
-0.000282549
0.000468367
-2.36823
1.57164e-05
-6.72191e-05
0.828261
0.000181588
2.36169
-0.0186823
2.72949e-06
0.00525288
-0.0391519
-2.36923e-05
-0.0469859
-4.09995e-06
2.03507
-0.00925382
5.88798e-05
0.133898
4.10628
-3.34282e-06
2.88902e-05
-0.0321585
-0.000214487
3.08047
1.55591
3.68397e-05
0.000168387
-2.21459
-9.06902e-07
0.0033096
0.0127307
-8.18645e-05
1.19698
0.00522835
6.73334e-05
-0.0977721
-5.3274
0.000147702
-0.400806
1.10643e-05
0.000117879
8.25987e-07
-4.31985e-05
-0.733353
0.000136043
-8.36579e-05
-7.17485
-2.37992
3.08914e-05
0.000161321
0.177795
0.339729
5.13553e-06
2.20482
0.000219958
0.00315334
0.000352802
-6.33824e-05
2.21709e-05
-2.96816e-06
-8.01051e-05
-0.235902
0.000157133
-1.22785e-05
-5.39817e-05
3.96001
7.97139e-05
9.06875e-05
8.96285e-05
3.34846e-06
7.12921e-06
0.000191794
-5.72475
0.034387
0.0003627
1.1226e-05
0.000141855
9.65485e-05
0.000215361
-0.856142
-1.99962
7.86053e-05
0.749126
-6.80877e-05
-0.162191
0.755762
-4.10148
-8.51995e-05
0.0111133
0.00720619
0.555999
0.015813
-3.9593e-06
-0.653355
0.0632026
1.69155e-05
-0.486362
0.000133772
-8.69506e-06
0.000158988
-1.04537
-4.10576e-05
-0.0810155
2.70672e-05
1.42175
0.000230072
0.000261378
-1.2952
0.000216754
6.48792e-05
-0.0486742
6.45211e-05
-0.0143934
1.07968
0.00531525
-3.03688e-05
0.0299861
-3.41571e-05
0.00381276
0.000228238
0.166827
2.42063e-05
4.62567e-05
0.000151904
0.00014719
0.0017167
-0.181057
-0.0475057
-7.15728e-05
-0.0492232
2.09933e-05
-0.194547
-0.0555264
0.0343398
-3.32405e-05
0.000150826
0.000117397
0.364006
-1.06287e-05
7.0894e-05
-0.792134
0.0151319
1.15404e-05
0.0685443
0.00896807
-8.02708e-05
3.45211e-05
0.00257462
-0.0912817
0.00332762
0.000497824
-0.396695
0.708007
0.0190745
0.000201223
-2.97618e-05
3.30342e-05
-1.60438e-05
0.000985334
1.46332e-05
4.95667e-05
0.0106902
4.22077
-3.9985e-05
2.90445e-05
-2.87124
-0.270778
-4.34477
0.0253473
0.00011448
-5.32771e-05
-3.37911e-05
-1.83677e-05
-2.0002e-05
0.00182691
7.79397e-05
-2.84483e-05
0.000142415
-5.35613e-05
-6.78195e-05
-7.57849e-05
0.000222706
-7.87782e-05
4.56726e-05
-7.63427e-05
-0.000102915
-1.46373e-05
-2.97941e-05
-0.0372505
4.73028e-05
-3.49215e-05
0.0755152
7.08261e-05
-0.000108633
-3.35475e-05
0.000106814
-2.12345
2.95368
-0.477082
-0.0810257
-0.360266
-0.0294986
7.21882e-05
-0.000580983
1.15584e-05
-0.272658
8.13281e-05
0.000233343
-2.48698e-05
0.000999193
6.08766e-05
0.000127831
0.000110222
-1.0875
-0.00435615
2.53575e-05
3.20946
-0.229641
0.000110211
0.0230297
4.87165e-05
0.000112029
-1.20121
5.67148e-05
-0.00150046
-0.00397403
3.54915e-05
0.000128433
-0.00287387
-0.320455
-6.77088e-06
3.47731e-05
2.39708
-8.37974e-06
-3.43165
0.000655666
-0.819481
6.32609e-05
0.19963
3.5237e-05
3.44436e-05
-0.0566845
0.00158213
-2.45502
0.400489
-4.11894
0.913261
0.0944663
0.0158502
-0.000154601
0.0669739
0.000107979
1.93149e-05
0.005085
2.20275e-05
8.83048e-06
8.24152e-05
3.89824e-05
0.00450981
-0.287209
0.265078
0.154009
1.90103
3.45698e-05
-9.066e-06
-6.86534e-05
-6.47741e-05
0.00571963
-9.60218e-06
0.000155995
7.53342e-05
2.11789e-05
-3.43484e-05
-0.00517127
0.0191704
8.16606e-05
4.44566e-05
-0.000108101
-0.000327127
-2.04583
-1.74154
2.6576e-05
0.000915534
5.57313e-05
-8.81402
2.084
-4.24484e-05
-3.7982e-05
5.34067e-05
7.19555e-05
0.047888
-0.0927471
-0.724702
2.91278e-05
-0.263758
2.64071e-06
-0.324941
0.000644568
8.60519e-05
0.000164508
-0.420131
-3.23745e-05
0.00010987
0.000236743
-0.00469439
-3.34334
0.000113489
-3.99559e-05
7.9065e-05
0.100155
-6.67748e-05
-0.72322
-0.05646
-2.50192e-05
-9.37885e-06
0.00197079
0.00855992
-4.00733e-05
4.193
7.40021
-0.414531
0.772657
9.47671e-05
-0.17634
3.53529e-05
-0.742358
3.9286
0.212019
0.00507077
4.49979e-05
-4.22725
-4.92379e-07
4.12177e-05
8.53303e-05
0.531395
0.000163536
-0.811701
0.000110924
6.05318e-05
-6.42693e-05
0.248096
6.25316e-05
-1.39745e-05
0.000117024
1.57862
-0.204638
-7.13519
-0.258867
0.000632283
-3.22575e-05
-5.05065e-05
0.100379
-0.0414507
-5.42072e-05
0.00351881
0.158574
-0.164011
6.01736e-05
-10.0161
-1.26331
0.000443898
3.42954e-06
7.62498e-05
-9.21019e-05
5.27502e-05
-7.64972e-05
-0.000111402
8.66649e-05
0.0047015
-7.03461e-05
0.0526355
-2.37676e-05
-5.64788e-05
-4.33862
0.00616592
0.000106989
-3.38104e-05
-0.388439
0.000102303
0.000227832
9.28273e-05
6.47521e-05
0.00854909
0.000306774
-5.62263e-05
-1.44513e-05
5.21569e-05
4.76604e-05
2.25639e-05
0.00154364
4.34566e-05
4.97169e-05
-0.0775137
3.23534e-05
0.0184279
0.000299088
-2.90484e-05
0.0206742
-2.32795e-05
-0.0001008
-4.63535e-05
1.38286
0.000109342
-3.24425e-05
0.168538
-2.77796e-05
0.000129937
1.00936e-05
-0.170023
4.44419e-05
0.064875
-0.000107238
2.14572e-05
-0.000337759
5.59744e-05
0.000237994
8.25767e-05
-0.336418
4.23339e-05
0.000153922
7.79293e-06
0.0671725
-0.0667461
-1.72435e-06
-9.52287e-05
-1.77034
-8.81122e-05
9.76232e-05
0.94191
9.4862e-05
0.0174552
0.269328
7.64393e-05
1.13755e-06
0.000105264
-1.42231e-05
9.96419e-05
6.64102e-05
-5.36049e-05
0.000144629
0.000178408
0.000196321
-3.42873e-05
5.35474e-05
-0.00751607
3.8753e-05
5.23846e-06
1.73421e-05
-0.000137967
0.127255
-4.03078e-05
7.61341e-05
0.00180567
7.22669e-05
6.80766e-05
0.0487677
3.73689
0.0667413
2.49508e-05
3.38458e-05
0.000222183
-2.05103e-06
4.14013e-05
0.000349454
0.0709505
7.2333e-05
0.000511805
-7.72355e-06
-3.71282e-05
9.35925e-05
0.000249199
-6.60722e-05
0.000132448
0.000368824
7.46789e-05
-0.380024
3.35308e-05
0.000282625
4.13603e-05
-0.689091
1.32006
0.412021
2.10215e-06
0.000457441
0.000160638
0.000121657
3.90912e-05
0.000539312
-0.39062
-0.33438
4.46475e-05
5.34848e-05
2.32552
-1.99946e-05
-0.0767367
2.14143
-0.217221
0.000119038
2.18856e-05
0.000196523
0.00191794
0.0962522
-2.98862
1.18504
-0.217486
1.4092e-05
-7.40738e-05
-3.2852e-06
-0.01296
3.8223e-05
3.4245e-05
0.000892796
5.1409e-05
2.83936e-05
9.53482e-05
4.90692e-06
6.78411e-05
-3.24988e-05
8.18604e-05
-0.434665
5.64645e-05
-1.17722e-05
-0.000186758
6.59519e-05
0.000132575
0.00070657
0.0103752
0.238529
0.00011565
0.000190087
0.0406793
-6.10287
-1.24458
2.96583e-05
-1.79881e-05
0.00241839
-0.00414196
0.000103953
0.0513544
-6.45906e-05
0.753593
-4.89019e-05
0.176183
-2.59708e-05
-1.48646e-05
0.000396062
-2.57112e-05
3.88323e-05
-5.12821e-05
-0.00899564
-4.48269e-06
-5.0528e-05
-7.71616e-05
7.61893e-06
0.00115208
7.31275e-05
-1.61626e-05
1.80818e-05
0.00780523
4.2741e-05
3.52757e-05
0.170978
0.875052
-2.10802e-06
-0.00888743
-4.10335e-05
-0.000241487
0.00193665