/*--------------------------------*- C++ -*----------------------------------*\
| =========                 |                                                 |
| \\      /  F ield         | OpenFOAM: The Open Source CFD Toolbox           |
|  \\    /   O peration     | Version:  v2012                                 |
|   \\  /    A nd           | Website:  www.openfoam.com                      |
|    \\/     M anipulation  |                                                 |
\*---------------------------------------------------------------------------*/
FoamFile
{
    version     2.0;
    format      ascii;
    class       surfaceScalarField;
    location    "600";
    object      phi;
}
// * * * * * * * * * * * * * * * * * * * * * * * * * * * * * * * * * * * * * //

dimensions      [0 3 -1 0 0 0 0];
oriented        oriented;


internalField   nonuniform List<scalar> 
14470
(
-0.110326
0.254645
-0.14433
-0.0255978
0.0271209
-0.211379
-0.194698
0.405874
-0.00165846
0.00244547
-0.000787014
-0.360095
-0.219242
0.579089
0.0835102
0.0657229
-0.149234
-0.176461
0.0852948
0.0911629
-0.00414285
0.00456744
-0.000424559
-0.193254
0.353588
-0.160317
0.702965
-0.375823
-0.327565
0.314349
0.388255
0.651701
-0.401638
-0.250091
0.0548622
-0.0628204
0.00795806
-0.0385016
-0.335923
0.373927
-0.221911
-0.0625357
0.284322
0.0920855
0.123915
-0.216014
-0.250735
0.472166
-0.221254
0.0108214
-0.0108281
6.78955e-06
-0.530856
0.0846309
0.445538
-0.524018
0.353982
0.169811
0.320753
0.276262
0.00356882
-0.00366299
9.41778e-05
-0.00405488
-8.79469e-05
-0.0110342
0.0658968
0.215723
-0.0837599
-0.131971
-0.0898489
0.481944
-0.392345
-0.565572
-0.0380012
0.603541
-0.464664
-0.0667732
-0.0716371
0.166188
-0.094553
-0.0260705
0.0287846
-0.00271414
0.084238
0.0687887
-0.153025
-0.245499
-0.198357
0.443409
-0.528016
0.338412
0.189399
0.571621
-0.587909
0.014752
0.272955
-0.198137
-0.0748465
0.181164
-0.338235
0.157072
-0.229392
0.154355
0.0750227
0.0059918
0.0312185
-0.0372102
-0.0352232
-0.175762
0.210969
-0.17949
0.107852
0.107777
-0.147623
0.0398455
0.000505813
-0.00527621
0.0047704
-0.612785
0.0469367
-0.458296
0.328764
0.129576
0.544604
-0.278477
-0.266011
-0.0302563
0.0336135
-0.00335727
0.597456
-0.355605
-0.242033
-0.490099
0.204656
0.28546
-0.456396
0.205769
0.177502
0.0954081
0.157876
0.412399
-0.107688
-0.0930555
0.200727
0.349239
0.24799
-0.046865
-0.1231
0.169964
0.00102825
-0.00268673
0.38379
-0.573966
0.190139
-0.177702
0.117668
0.0600377
-0.291909
-0.198186
0.24141
-0.0830978
0.178126
-0.095043
-0.137715
0.0976463
0.0400687
0.282657
0.147903
-0.430703
0.0847641
-0.233154
0.14837
-0.651728
0.333458
0.317892
-0.371786
0.178558
0.0305511
-0.0305511
0.308787
-0.180089
-0.128755
-0.328829
0.209652
0.119171
0.0151514
0.0434776
-0.0586289
-0.0405953
0.252289
-0.211754
-0.0675251
0.0406973
0.0268283
0.0116341
-0.00228482
-0.00934922
0.21874
-0.0322557
-0.186503
-0.118177
0.0669511
0.0512269
-0.50954
-0.0224588
0.531608
0.070135
0.0665395
-0.136678
-0.00463663
0.0953069
-0.0906704
-0.213574
0.424219
-0.210743
0.287463
0.291366
-0.578803
0.100795
-0.0306599
0.00683199
0.00398939
-0.105652
0.197728
-0.140699
0.299752
-0.159076
-0.147672
0.0944611
-0.159768
0.065306
-0.276169
0.563565
-0.0808754
-0.127699
0.208525
-0.0306816
0.0366737
-0.0993773
-0.038337
0.00213418
-0.00228271
0.00014851
-0.148277
0.0938083
0.0544681
-0.0571497
-0.0911274
-0.187859
-0.0240134
0.211862
-0.00211618
0.00262198
-0.249443
0.48768
-0.238286
-0.0616503
-0.056526
0.104325
-0.192369
0.0880359
-0.12523
0.266504
-0.141317
-0.633783
0.273344
-0.013533
-0.0116594
0.0251923
-0.202431
0.0947159
0.0457618
-0.184297
0.138519
-0.249996
-0.208268
-0.0329244
0.0708886
-0.0379656
-5.95719e-05
-0.0677088
0.0677682
-0.0317764
0.250499
0.201042
0.313774
-0.515347
0.199403
-0.413074
-0.313348
-0.247646
-0.275282
0.52252
0.00213433
0.00143448
-0.0043628
0.0135747
-0.00921194
0.0243142
-0.0237841
-0.00053009
-0.270077
0.229423
-0.642226
0.233496
0.40817
-0.39501
0.182449
0.212492
0.268883
-0.502318
0.233671
0.00411801
-0.00364543
-0.000472572
-0.424287
0.0377282
0.386592
-0.0793191
0.0240713
0.0552456
0.119421
-0.200332
-0.0338059
0.104489
-0.0706839
-0.229572
0.140192
0.0893677
-0.205754
-0.132479
0.0351271
-0.459309
-0.0618891
0.18825
-0.12637
-0.0257992
-0.000271277
0.135222
-0.0158666
-0.119352
0.00583899
0.129386
-0.145679
0.27474
-0.129015
-0.0914045
0.415558
-0.324462
-0.248509
0.138168
0.18574
-0.302331
0.116526
0.0825554
0.170772
-0.253352
0.163727
-0.130996
-0.0327331
-0.158933
0.130758
0.0281761
-0.130128
-0.264931
0.117438
-0.627168
-0.0691581
0.148227
-0.0790719
0.000505555
-0.00604527
0.0055397
-0.11561
-0.074885
0.316462
-0.241476
-0.212814
0.125479
0.0872938
0.0312067
-0.026198
-0.00500874
0.134416
-0.0891814
-0.045235
0.367427
-0.465239
-0.070078
0.00842802
-0.367478
0.275873
0.402662
0.603483
-0.297822
-0.306088
-0.00147709
0.0148063
-0.0133292
-0.29341
0.168141
-0.420058
0.329945
-0.127453
-0.207722
0.335126
0.0858543
0.0400212
-0.125876
0.172104
-0.0481973
-0.174335
0.456966
0.133612
-0.0493727
0.241483
-0.3872
0.145631
0.0831076
-0.210849
0.139592
-0.285288
-0.151623
-0.372556
-0.0620181
0.0601449
0.00187323
0.378199
-0.17906
-0.199125
0.119332
-0.123969
0.0795964
-0.170337
0.0907146
0.3492
-0.198937
-0.150246
0.319589
0.197124
-0.517022
0.671461
-0.342718
-0.328914
-0.281
0.206126
0.0179172
-0.00274057
-0.0151766
0.0207443
-0.0273343
0.00658991
-0.0120134
0.0420238
-0.0300143
0.263226
0.388449
-0.0862136
0.169721
-0.0532132
0.135554
-0.0823409
0.0345853
0.0228878
-0.0574731
-0.235981
-0.214652
0.450522
0.314637
-0.185753
-0.128932
-0.086676
0.0537498
0.000950479
0.197511
-0.0781203
0.219853
0.324872
0.511023
-0.263149
-0.247712
0.520221
-0.121399
0.0875926
0.0111938
0.000440348
0.0743469
-0.0536025
0.167762
-0.122018
0.167804
-0.382863
0.215063
0.00271313
0.00359975
-0.00631289
-0.0348444
0.0295136
0.00533078
0.0799993
0.104096
-0.184111
0.254912
-0.424345
0.169361
0.261205
-0.12756
-0.133644
-0.00912282
0.0115597
-0.0024369
-0.107149
0.430097
-0.323214
0.328269
0.144027
0.248071
0.310197
-0.558191
-0.355757
0.232694
0.123027
-0.460273
0.378803
0.0813347
0.116951
-0.275821
0.158823
-0.137294
-0.127753
0.265028
-0.0131859
0.00037098
0.0128149
-0.157923
0.314567
-0.156602
0.137424
0.0830492
-0.220497
0.182798
0.166411
0.304448
-0.178838
-0.125645
0.0477665
-0.0882583
0.0404919
0.102938
0.00309036
-0.00258486
0.173313
0.26197
-0.435755
0.0402293
-0.0250779
-0.275872
0.13515
-0.181661
-0.0730289
0.254648
-0.309632
0.27083
0.104678
0.0590475
-0.369003
-0.273678
0.0857481
-0.115385
0.0296388
0.176027
-0.071712
-0.357839
-0.102616
-0.00679496
-0.0288221
0.0356171
-0.00458456
0.016927
-0.0123547
-0.156719
-0.0311464
0.264027
-0.485588
0.221548
0.218476
-0.126367
-0.0921253
-0.0921689
-0.0318359
0.124001
0.110443
0.00437689
-0.114818
0.0862482
0.0241954
0.0110106
-0.0146096
0.00359907
-0.168642
0.150136
0.0185081
-0.289308
0.107583
0.210753
-0.126019
-0.0356606
0.000816266
-0.448879
0.267519
0.181378
0.00962685
0.00433681
0.0199774
-0.406088
0.298763
0.284321
0.271361
-0.555566
0.142887
-0.0351106
-0.156405
-0.214097
0.370458
-0.506679
0.258768
0.201324
-0.0964494
-0.104875
0.188229
-0.130188
-0.0580428
-0.203957
0.228892
0.0857047
-0.0733976
0.210805
0.129807
-0.172297
0.0424812
-0.102335
-0.160735
0.263048
0.188136
-0.0478198
0.174776
-0.12696
-0.0174622
0.00413716
0.0133251
-0.553916
0.195895
-0.011915
-0.0179198
0.0298272
0.529764
-0.180762
0.398115
-0.636369
0.238601
-0.0119408
-0.390857
0.401455
0.00514628
-0.238486
0.410644
-0.172143
0.121409
-0.0355546
0.012336
-0.071586
0.0592502
-0.329079
-0.26233
0.590438
-0.590441
0.221161
-0.0430982
0.144131
-0.101032
-0.488361
0.47525
-0.289789
-0.267622
0.556933
0.561927
-0.565702
0.0027944
-0.0366993
0.0490355
-0.020476
-0.0415422
0.122336
-0.216171
0.0938455
-0.0602031
-0.045611
0.105814
0.128476
-0.179481
0.0510086
-0.10472
-0.00752388
0.00507052
0.00245338
-0.379174
0.180218
-0.0078101
-0.0275728
0.0353829
-0.200825
0.563657
-0.362443
-0.149326
0.0571585
-0.00972946
-0.0441586
0.0538881
0.02954
-0.0616439
0.0321046
-0.00843179
-0.0350639
-0.133576
0.145428
0.129358
0.0911822
-0.196844
-0.254549
0.117231
-0.448824
0.294699
0.153923
-0.285723
0.0254252
0.260285
0.0964268
-0.0486602
0.163508
0.0522086
-0.196392
-0.394252
0.625852
-0.347397
-0.278491
0.399055
-0.225981
-0.633408
0.377235
0.254778
-0.200143
-0.00625089
0.00104658
0.00520431
-0.0906562
0.478833
-0.388449
0.459854
-0.26445
-0.195862
0.56287
-0.461123
-0.102987
-0.108314
0.492021
0.0205362
-0.0235873
0.00305113
0.0724446
0.0619712
0.0193569
-0.0754114
0.0560551
-0.291672
0.198086
0.0935472
-0.0583054
-0.154547
-0.0310608
-0.159064
-0.072241
0.231295
-0.00138551
-9.16056e-05
0.169041
-0.419012
0.0263051
-0.0978906
0.139303
-0.245087
0.105762
-0.0380489
0.366788
-0.0255978
-0.190851
0.197631
-0.443612
-0.166458
0.11863
0.00366297
-0.0543005
0.178245
0.116441
-0.29474
0.083835
-0.13592
0.0520877
0.123454
0.32054
-0.193443
-0.127145
0.082539
0.0694045
-0.151939
0.191203
-0.0666025
-0.1246
-0.280498
-0.247725
0.24632
-0.473007
0.226731
-0.179702
-0.112016
0.0848518
-0.13136
0.0465084
-0.00899595
-0.00725055
0.0162465
0.18252
-0.394036
0.498379
-0.185262
-0.478593
0.283077
0.19555
0.000762341
0.0171549
-0.0244709
0.0166608
-0.0062328
0.00444988
0.00178291
0.253432
-0.463661
0.210217
0.137019
0.054185
-0.046629
0.130468
0.0658468
-0.0858713
0.0200245
-0.080707
0.165595
-0.0848867
0.476728
-0.229027
-0.247596
0.437331
-0.254169
-0.183075
-0.251835
-0.226723
-0.107857
0.199034
-0.376515
0.191137
0.185416
-0.013809
0.0169394
-0.00313042
-0.507079
0.0397039
0.466918
-0.28182
-0.167872
0.449499
0.122953
-0.0804394
-0.0425218
0.00227626
-0.00852715
0.0499945
-0.00976512
-0.404098
-0.23094
-0.0248514
0.0113184
0.177132
-0.285052
0.107926
0.0504071
-0.0289229
-0.0214843
-0.00292908
-0.0149389
0.0178679
0.00829461
0.00271602
0.291072
-0.135329
-0.155795
-0.170745
0.135514
-0.10024
-0.0586916
0.00332373
-0.00118961
-0.000148399
-0.163401
0.138754
0.0246494
-0.580015
0.0533845
0.526868
0.203902
-0.0815643
-0.437255
0.245615
0.191669
-0.206252
-0.300556
0.505975
-0.164389
-0.212096
-0.19003
-0.317435
0.507447
0.311257
0.285758
-0.0214471
0.00763798
0.29547
0.208842
-0.122443
-0.0864057
-0.0964626
-0.122749
0.219193
0.102523
-0.0989544
-0.00356965
0.26286
0.213958
0.151873
0.147859
0.00597118
0.00182854
-0.00779971
0.00470638
-0.0282218
0.0235154
0.0700509
-0.0485341
-0.021513
-0.178389
0.0976819
0.195589
-0.47744
0.142603
0.148421
-0.438443
0.243603
0.144247
-0.0966171
-0.0476305
-0.588911
0.0531688
0.534991
0.0151786
0.034816
0.0470388
0.0721455
-0.119184
-0.0357194
-0.140743
-0.00681574
0.000582929
-0.0791627
0.161707
0.342937
-0.560376
0.216037
0.299963
0.127797
-0.427867
0.00629965
0.12446
0.0540715
0.0901756
0.172761
-0.33058
-0.00443196
0.00150287
0.557763
-0.216472
-0.203557
-0.334964
0.538764
0.0440393
-0.0537688
0.445064
-0.183323
-0.0492219
-0.195432
-0.0836111
-0.0867469
-0.01414
-0.493234
0.140769
0.237448
0.0793863
-0.061845
-0.0175461
-0.0396055
-0.0279192
0.256492
-0.087509
-0.168995
-0.105987
0.18597
-0.0387182
-0.380676
0.419102
-0.198106
0.3477
-0.149536
0.101015
0.00347453
-0.105735
-0.0866424
0.281586
0.169435
-0.450969
-0.269196
-0.261365
0.530494
-0.137727
0.0908595
-0.0913099
0.140333
-0.0490202
0.137842
0.118636
-0.0303012
0.00410324
-0.292038
0.54036
-0.021862
0.360055
-0.0403828
-0.0311904
0.0715733
0.396036
-0.434976
-0.00690675
-0.0105555
-0.0289544
0.0635397
0.292655
0.218521
0.262017
-0.47538
0.21289
-0.292145
0.0064097
0.226859
0.46167
-0.178494
-0.0375284
0.0258688
0.0901262
-0.125211
0.0821132
-0.042496
0.142877
0.160334
-0.303282
-0.138426
-0.0911575
-0.117296
-0.112109
-0.00517693
0.00153151
-0.170582
0.0874648
0.426886
-0.64621
0.122986
0.128877
-0.0564328
0.35872
-0.148772
-0.209956
-0.0231699
0.264614
-0.103503
-0.0718847
-0.517718
-0.235339
0.482159
-0.246861
0.219907
-0.416211
0.196151
-0.210324
0.479376
0.361835
0.213242
-0.576014
-0.300626
0.175056
0.125572
-0.12713
-0.127437
0.113504
0.0878199
-0.52381
-0.00980928
0.533148
0.0066374
-0.0157602
0.223306
-0.130405
-0.0929057
-0.0648131
0.111852
-0.00728026
-0.00024362
-0.194099
0.0787967
0.0441384
0.16292
-0.0776297
-0.17817
-0.246234
0.470648
0.0059188
-0.477589
-0.128791
-0.205013
0.333928
0.0471415
0.0174143
-0.0645589
-0.120971
-0.0585081
0.522762
-0.248096
0.539037
-0.291513
0.534885
-0.224401
-0.0479203
-0.00449731
0.0524175
0.0872391
-0.140452
0.0952471
-0.436441
-0.215633
-0.30188
0.17442
0.152557
-0.0700479
-0.0825117
0.0052213
0.0283922
0.0469378
-0.0173975
-0.228124
0.177321
0.0507977
0.298815
-0.145556
-0.153346
0.0024291
-0.0143511
0.0121104
0.107221
0.1336
-0.143114
0.00951023
-0.182982
-0.134661
0.317668
-0.171297
0.424363
-0.253415
-0.00995682
-0.00322908
0.287867
0.152159
-0.439873
0.0742441
0.0613092
-0.0120709
-0.0786539
0.0907236
-0.246254
0.527737
-0.0740485
0.0535724
0.147219
0.0961103
-0.24336
0.00929842
0.00297486
-0.0122734
0.181499
-0.379544
0.00171787
0.00725634
-0.00897419
0.159179
-0.0287829
-0.130397
0.0851778
-0.307204
0.124655
0.0194752
0.187877
-0.437244
-0.024949
0.0907958
-0.620264
0.236158
0.383864
0.116872
0.337672
-0.454621
-0.592099
0.248689
-0.261739
-0.194549
0.0932565
0.292179
0.195482
0.486318
-0.152534
-0.333792
-0.276333
0.187236
0.0890725
-0.234223
-0.229453
0.243891
0.0550103
0.112323
-0.167341
0.108496
-0.288387
0.179848
-0.0938678
-0.590841
0.417272
0.172981
-0.410285
-0.181127
-0.00261608
0.00858725
-0.0574985
0.00325772
0.0542413
-0.13777
-0.0903615
-0.0299378
-0.265496
0.13835
0.356069
-0.20152
-0.154558
-0.40019
0.340503
0.121224
0.0117526
-0.00730275
0.194416
0.58532
-0.647935
0.0622571
0.0325645
-0.0298666
-0.00269788
-0.0672869
-0.0803368
-0.0401117
0.169915
-0.509674
0.582425
-0.30618
0.295442
-0.136031
-0.15943
-0.283457
-0.256001
0.539278
0.0158662
0.0139544
-0.110548
0.288772
0.0168517
0.132063
-0.148937
0.329576
-0.182108
-0.147435
0.0178396
-0.0246345
0.563609
-0.272434
0.003253
0.0272981
-0.570728
0.0632443
0.506288
-0.0462047
0.131056
-0.440857
0.285613
0.155339
-0.24987
0.157915
0.0919215
-0.0121109
0.016248
-0.341679
-0.278901
-0.083709
-0.0312283
0.114937
0.214928
0.181636
-0.396811
-0.395064
-0.224364
0.619118
-0.267824
0.437454
-0.0964597
0.0450394
0.0514224
0.00968589
-0.00931491
0.187728
0.230237
-0.232584
-0.00216512
-0.437588
-0.086425
0.152448
0.0223277
0.000511549
0.00120637
0.160528
-0.00618253
-0.534257
-0.00585978
0.540126
-0.0605293
0.127066
-0.521564
0.53147
-0.0100171
0.334634
-0.0391959
0.442909
-0.26033
-0.182559
0.187691
-0.0741897
0.320306
-0.562769
0.242426
0.00671344
0.0102066
-0.00037151
-0.410194
-0.391829
0.244893
0.146937
0.263404
-0.172845
-0.0906004
0.08078
0.015675
-0.0964563
-0.106846
0.115347
-0.00850123
0.177702
-0.44263
-0.0253298
0.416745
-0.0454386
0.132677
0.377993
-0.158465
-0.219666
-0.196393
0.37921
0.475802
-0.408328
0.40784
0.306258
-0.0959939
0.0505551
-0.13639
-0.152982
-0.116345
0.0326351
-0.0715012
0.147772
-0.0762719
-0.0964093
0.125504
-0.0290984
-0.0930609
-0.082128
0.175183
-0.0190099
0.0630492
-0.111831
0.297516
-0.014147
0.0300079
-0.0114271
0.0159701
-0.00454307
0.0785697
-0.124775
-0.086672
0.117969
-0.0312971
0.0891796
-0.101251
-0.0571166
0.112801
0.221809
-0.0133623
0.00436634
0.119759
0.14359
-0.375401
0.110644
-0.0320743
-0.0211748
-0.500566
0.0362238
0.161614
-0.201731
0.0567302
0.0854637
-0.142198
-0.160821
0.132352
0.0284702
0.0112174
-0.00894112
-0.0321772
0.0107692
0.0214079
-0.265664
0.0927829
-0.092718
0.149442
0.550227
-0.265694
0.0908542
-0.0983587
0.00750459
0.113173
-0.190989
-0.249753
-0.356186
0.191862
-0.155358
0.323229
-0.167957
-0.198706
0.0929657
-0.00493449
-0.00967505
0.0563763
-0.101987
-0.00729864
0.0266224
-0.0193238
-0.119396
-0.182997
0.202529
0.0586772
-0.00252755
0.0118258
0.0312598
0.00197292
-0.0332325
-0.166466
-0.138247
0.304559
0.102317
-0.184931
0.0826112
0.227512
0.0769047
0.0389349
0.0114722
-0.0107189
0.0900934
-0.209437
-0.0392208
0.058578
-0.089124
0.0487412
-0.0163536
-0.0158236
-0.168095
0.501059
0.120145
-0.0264593
-0.0486071
0.0750663
0.265899
-0.148991
-0.037826
-0.0835732
-0.0774719
-0.172432
-0.0106109
0.113132
-0.221321
0.103154
0.118169
-0.291971
-0.0902254
-0.261188
0.351369
-0.397815
0.189968
-0.00461402
-0.128292
0.132908
0.574604
-0.333386
-0.11352
0.108904
0.0694438
0.0971117
-0.166556
0.173951
-0.0781283
-0.0958235
-0.337895
0.59854
-0.260805
-0.643947
0.360307
0.283779
0.140315
-0.294535
0.154177
0.196857
-0.331022
0.134066
-0.355135
0.511604
0.205899
-0.36229
0.0704011
-0.141906
-0.00675397
0.0538932
-0.063414
-0.0371546
-0.542808
0.0196926
-0.11631
0.616968
-0.311079
-0.305585
-0.024258
0.012831
0.263606
-0.138117
-0.125539
-0.0571923
-0.0686548
0.125847
-0.137935
0.0498816
0.109298
0.0816875
-0.390487
0.308225
0.199137
0.40401
-0.131744
0.0712104
0.437861
0.223703
-0.359721
-0.0681013
-0.127457
0.195553
0.0185174
-0.0298357
0.0113182
0.247518
0.131155
-0.12245
-0.0623247
0.0395299
0.0227954
0.142057
-0.244422
-0.0799175
-0.0198226
-0.0425013
0.411547
-0.191723
0.114125
-0.249084
0.186448
-0.128297
-0.254562
0.199268
-0.467281
-0.0217197
0.0708608
-0.0491407
-0.0221137
-0.00892564
-0.00668637
0.015612
0.197217
0.161488
0.419866
-0.173503
0.26554
-0.446154
0.180241
0.145262
-0.334493
0.189156
-0.18035
0.288793
-0.130611
-0.145282
0.0190915
-0.046678
0.0275865
0.166184
0.0973671
-0.199977
0.124096
-0.111986
-0.0983602
0.063594
-0.16001
-0.196859
0.420501
0.000668726
-0.0214425
0.0207738
0.304877
-0.159404
0.562707
-0.282918
-0.279759
0.0871049
0.0868454
0.00636579
0.00519394
0.456609
-0.287173
-0.488567
-0.290669
0.294783
0.384245
-0.303193
-0.054946
0.0428832
-0.142971
0.100087
0.364192
-0.217731
-0.146498
0.139669
0.0480205
-0.309329
0.142695
0.168207
-0.365072
0.011063
-0.117909
-0.0198846
0.0075972
0.0122874
0.0735627
0.0677186
-0.14128
-0.497612
0.199364
-0.359809
-0.0707273
0.430456
0.119744
-0.0222653
-0.0974836
-0.0665041
0.121829
-0.109492
-0.0123405
0.450513
-0.130555
-0.320154
0.382132
-0.167287
-0.0214221
-0.0023621
0.184595
-0.249174
-0.0463968
0.16407
-0.0868581
0.0378178
0.0490406
0.391751
0.287937
-0.400743
0.283451
0.117298
0.00199548
0.00249966
-0.00449514
0.510621
0.0743858
0.249618
0.00466857
-0.0013449
-0.105705
-0.0551139
-0.0403368
0.134798
-0.0835801
-0.0523378
-0.296061
-0.277931
-0.000786713
-0.0190979
0.246225
-0.446586
0.151224
-0.404367
0.253079
-0.229534
-0.1712
0.104235
0.0953259
-0.19957
-0.00322438
0.0015059
0.00171847
0.519473
-0.121093
0.239597
0.171064
0.339667
0.0982489
-0.193426
0.321206
-0.284467
0.194183
-0.0885498
0.00187767
-0.0696703
0.173893
-0.138286
-0.162333
0.355297
0.193796
-0.549082
-0.192776
0.140911
0.0473326
0.11952
0.164699
0.0898567
0.560696
-0.150469
0.415698
0.262164
-0.0581869
-0.20406
-0.0157745
0.00886777
0.0568584
-0.0990812
0.0422235
-0.165457
0.308273
-0.0162243
0.537693
-0.266262
-0.121572
-0.0997445
0.0381224
-0.13001
0.0918875
-0.011564
-0.00747111
0.0190351
-0.152758
0.386294
-0.233741
-0.321732
-0.023812
-0.00564227
0.0294543
0.134979
0.0834854
0.301851
0.260887
0.273625
0.00530899
0.0013985
0.303263
-0.582416
0.279007
-0.0875375
-0.0919527
0.459246
0.0192462
-0.0145398
-0.558017
0.289989
-0.724497
0.437682
0.286329
-0.534731
0.286356
-0.100822
-0.119237
0.220062
0.3287
-0.131878
-0.126341
-0.0898204
-0.108619
-0.0547809
-0.0503597
0.0416578
0.00870201
-0.337279
0.246575
-0.467996
0.232675
0.400863
0.197552
0.000932687
0.33671
0.299808
-0.319297
0.0194697
0.179646
0.171699
-0.351361
0.114499
0.196821
0.197363
-0.074368
-0.123019
0.008403
0.0616523
-0.199206
0.0913486
0.105383
-0.173488
0.25838
0.191091
0.00539936
-0.0237126
0.0183133
0.151112
-0.0745409
-0.0765843
-0.253582
0.452818
0.0993802
-0.0154047
-0.0839715
-0.0260719
0.000272629
-0.344165
-0.0157472
0.408714
0.482226
-0.255243
-0.227285
-0.070927
-0.0920505
0.162973
-0.0203771
0.217708
-0.0159268
0.272381
0.182977
-0.292355
0.109293
-0.183598
-0.32767
0.511004
0.14166
-0.286509
-0.438465
0.169399
-0.113704
-0.0556941
0.074424
0.225383
-0.0815102
-0.0782587
0.260085
0.254504
-0.514745
0.149639
-0.0512332
-0.0984055
0.271172
-0.524029
0.252626
0.140443
-0.268003
-0.390841
0.249956
0.140776
-0.260709
0.124264
-0.0820753
0.0341552
0.00636473
0.0261997
-0.160809
-0.0803445
0.0850659
0.0143099
0.0880651
-0.214447
0.167947
0.0465655
-0.0655754
0.000212453
0.200044
-0.148007
-0.0520745
0.273052
-0.431394
0.158293
0.291809
-0.00207923
-0.00952211
0.0116013
0.288197
0.193738
-0.000778912
-0.168778
0.436338
-0.130668
0.26403
-0.133389
-0.394066
0.245372
0.148703
-0.520191
0.417113
0.103325
0.220824
0.106375
-0.137604
-0.00432177
0.00631726
-0.00208457
0.00129755
-0.0619613
0.00446337
-0.0160632
0.0214625
-0.436148
-0.0459781
0.0181479
0.027827
-0.00349143
-0.0642174
0.254325
0.325054
-0.579518
-0.200698
-0.549765
0.265469
0.283478
0.104493
-0.115104
-0.455372
0.208988
-0.000761818
-0.00592459
0.0792711
0.0732833
-0.075602
0.171817
-0.09622
-0.118404
-0.194587
0.312971
0.15165
-0.0813201
-0.0703298
0.0211783
0.00655595
-0.0277343
0.00869513
0.00224676
-0.0109419
0.100268
0.103855
-0.204138
0.112866
0.103391
-0.216277
-0.453013
-0.0812337
0.0467566
-0.0319504
-0.214347
0.455039
-0.241039
-0.0370203
0.0301768
0.00684357
0.133407
-0.0676838
0.0331699
-0.112482
0.0793109
0.102928
-0.0918604
-0.0110675
0.0836936
-0.040216
0.120417
-0.281176
-0.114262
-0.166868
0.281062
0.563046
-0.242729
-0.247084
0.115653
0.131404
-0.00714395
0.00485915
0.0164596
-0.0192001
-0.532432
0.330725
0.200977
-0.019491
-0.0132853
0.0327763
0.297369
-0.177917
0.0917772
-0.0506076
0.000248158
0.0478145
-0.029297
0.018453
0.0293606
0.236059
0.201349
0.0913308
0.140018
-0.247783
0.107722
0.12386
-0.13243
0.272686
0.118959
0.603748
-0.333753
-0.269855
0.070503
-0.0742766
0.00377367
0.384421
-0.617086
0.232639
0.470352
-0.234179
-0.0919884
-0.07616
0.168145
-0.176585
0.109413
-0.00491984
-0.329529
0.168037
0.16145
0.0421464
0.0322005
0.0786102
0.019294
-0.0979044
-0.127996
0.0344218
0.0935735
0.0330505
0.379433
-0.539965
0.160509
-0.190901
-0.138674
-0.106985
0.486326
-0.206683
-0.180624
-0.0898739
-0.0250176
0.14684
0.260642
0.0929649
0.224884
0.152983
-0.242562
0.137313
0.105218
-0.0204266
0.0129555
-0.128449
-0.142286
0.270676
0.341203
-0.106255
-0.234907
0.0242595
0.00700039
0.296932
0.160007
0.0124411
-0.532524
0.235978
0.208547
-0.253108
0.318161
-0.24552
-0.0726687
0.00302698
-0.00362143
0.000594452
0.0824672
-0.57236
-0.0256131
0.00612201
-0.0103342
0.0510321
0.502754
0.145168
-0.310702
0.103032
-0.204746
0.101693
0.557385
0.587797
-0.285975
-0.301564
0.261003
-0.43844
0.17714
-0.11417
0.0833544
0.0308151
0.141733
-0.213978
0.217002
0.147158
-0.0994204
0.0450306
0.0854418
0.113333
-0.0224786
-0.0867242
-0.183409
0.0626768
-0.0386074
0.197141
-0.211402
-0.321816
-0.0100689
-0.0113417
0.0214106
0.0490716
-0.139231
0.0901582
-0.0760716
-0.197808
-0.158319
0.259306
0.189901
-0.44947
-0.0216482
-0.00865303
0.0135374
0.0276017
-0.0411393
-0.102195
0.121888
0.00172034
-0.0306432
-0.165952
0.521363
-0.299887
0.144401
-0.396266
0.197558
-0.0255944
0.00417233
-0.22786
0.101523
-0.107876
0.132456
-0.024575
-0.244637
0.0649027
0.399431
-0.187589
-0.21182
-0.134241
0.376805
0.201086
-0.578689
0.488192
-0.291152
0.134678
0.0149622
0.462601
-0.267171
-0.0285653
0.43362
0.127567
-0.304057
-0.385873
0.255292
0.185644
-0.00278643
-0.045745
-0.00117362
-0.000910967
0.227098
-0.139845
-0.00176499
0.0187987
-0.0170337
-0.308097
0.547644
-0.239548
0.0314304
0.130184
0.137165
0.161572
-0.124712
0.0868849
0.365374
-0.0708621
-0.422957
-0.0473188
-0.115415
0.162711
0.0769011
-0.152863
0.0793271
0.0735263
-0.558489
0.0297909
0.103806
0.113624
0.0292621
0.0771203
-0.0378401
-0.0392796
-0.317989
0.135022
-0.152464
0.0860524
0.0664133
-0.00587228
-0.0229498
-0.140418
-0.113229
0.25364
0.136045
-0.0960243
-0.0931182
0.16256
-0.23684
-0.160386
0.397201
-0.0894017
-0.15527
0.1417
0.113949
-0.53283
0.224931
-0.0891951
-0.219896
0.331646
0.104684
0.251375
0.440969
-0.248603
-0.192706
-0.229482
-0.0398174
0.269318
-0.17878
-0.0228773
0.0419688
0.233012
-0.0500913
-0.159915
0.308884
-0.149049
-0.111458
0.204248
-0.457991
0.253416
0.174444
0.175082
-0.349665
0.0821445
-0.186169
0.104018
0.0857019
-0.0642914
-0.0214103
-0.0778998
0.0561805
0.092304
-0.179841
0.00609525
-0.283545
-0.360281
0.0188379
0.00495248
-0.0237905
-0.231851
0.176558
0.055302
0.0124039
-0.0177634
0.00535947
-0.0290481
-0.112473
0.14152
-0.532627
0.263427
0.347526
0.159064
0.125206
-0.284309
-0.00923026
0.00720487
0.00202533
0.0142316
-0.0163108
-0.060837
0.173152
-0.0683069
0.302787
-0.453519
0.193004
0.184697
-0.377779
0.246086
0.276401
0.0282204
-0.000412032
-0.0278084
-0.247224
0.134752
0.112445
-0.219485
0.387598
-0.16182
0.0149387
-0.0387506
0.0428876
-0.10286
0.0599754
0.15159
-0.311586
-0.169355
-0.0507669
-0.0360912
0.238608
-0.0553045
-0.183312
0.0970784
-0.237495
-0.0187754
-0.0182448
-0.143348
0.0411527
0.299961
-0.0555197
-0.244506
-0.035964
0.0544167
-0.0645114
0.149972
0.0251471
-0.095177
0.0700331
0.0491896
0.027931
0.228234
-0.168693
-0.217202
0.542046
-0.239741
0.315495
0.0574414
0.120676
-0.00102772
0.0022925
-0.00126477
0.00805041
0.126912
-0.477659
-0.111662
-0.157984
0.050681
0.107305
0.537804
-0.271073
-0.267257
0.00025468
0.0202815
0.0126396
-0.00577461
-0.00686494
0.276959
-0.0221898
-0.00514449
-0.12567
-0.44118
0.157415
-0.394182
-0.164825
0.344445
0.0235898
0.0191135
-0.0427036
-0.0160863
0.0946963
-0.212519
0.0815453
-0.15159
0.428934
-0.183252
-0.0969514
0.131373
0.117018
-0.512254
0.211597
-0.0865268
-0.125072
0.204033
-0.322927
0.072997
0.249942
-0.380792
0.161217
-0.0868446
0.0643789
0.0224662
-0.297381
0.159086
0.0836025
-0.0584524
-0.176919
-0.0549254
-0.271837
-0.265558
0.537272
0.0759289
-0.162561
0.0866297
0.245447
-0.0570143
0.234168
0.27945
0.00142568
-0.00091408
-0.0911653
0.377644
-0.169774
-0.208104
0.180308
0.260308
0.248109
0.129365
-0.0645382
0.21672
-0.15224
0.0192175
-0.0285533
0.00933578
-0.0158109
-0.0983587
-0.0855583
0.150864
0.189848
-0.246845
0.256185
0.0633366
-0.014677
-0.0486598
0.0243105
0.0954287
0.36733
-0.150389
0.0294099
0.0183108
-0.0477206
-0.555936
0.272723
0.283144
-0.0872699
0.152035
-0.0647669
-0.00656678
0.00553907
0.470869
-0.256418
-0.214666
0.0285218
-0.00734347
-0.00260925
-0.0789168
0.154844
-0.0249855
-0.00108633
-0.0653795
-0.0214624
0.310058
-0.415295
0.105127
-0.169925
-0.12746
-0.0434158
0.0451362
-0.0163085
0.0113741
-0.31654
0.146607
0.0121292
-0.0138942
0.21043
0.0560396
-0.396826
-0.473016
0.485499
0.155642
-0.293958
0.100173
-0.157035
0.263031
-0.106031
0.0261134
-0.0511565
0.0250433
0.0263209
0.00189955
-0.0344313
-0.0288364
0.0632676
-0.0731904
-0.203718
-0.444607
0.0789258
-0.158655
0.0797236
0.00834674
0.000348393
-0.44934
0.200425
0.0233746
0.00446149
-0.0278361
0.176767
-0.136975
-0.0397947
0.264454
-0.536571
-0.133179
-0.558822
-0.306057
0.171409
-0.0720808
-0.0807922
-0.0242965
0.0250343
-0.000737815
0.234516
-0.209139
-0.177523
-0.291545
0.468878
0.00429523
-0.0131088
0.00881362
-0.00486633
-0.0340403
0.0389057
0.200393
-0.0755885
-0.12483
-0.258126
-0.300321
-0.194161
0.203307
-0.413886
0.210395
0.371355
-0.583068
0.211105
-0.0641932
0.0574337
-0.119512
0.0134534
0.106059
-0.550184
0.302398
0.247531
-0.466521
0.383374
0.082568
-0.0164628
0.0346091
-0.0105382
-0.013049
0.0189725
0.157792
0.163104
0.0628271
-0.066193
0.00336572
0.163928
0.142977
-0.307056
0.28888
0.225899
-0.515154
-0.324074
-0.229768
-0.320671
-0.167484
0.470013
0.481865
-0.0830277
0.043033
0.0598945
0.111571
0.0718469
-0.183423
0.173121
0.0167349
0.0193324
0.0162847
0.194665
-0.107122
-0.0875701
-0.0239911
0.0680276
-0.0944871
-0.0036357
0.0628653
-0.0592286
-0.0593996
0.153961
-0.0945717
-0.257094
0.170308
-0.285193
-0.307548
-0.133816
0.322471
-0.563248
0.240645
0.024522
0.0874489
-0.111971
-0.222689
0.493776
-0.0620023
0.0437493
0.0182534
0.0880395
0.00977603
0.105572
0.212158
0.261042
-0.47353
-3.57624e-05
0.00470425
0.0630737
0.0772608
-0.00110729
-0.00332468
-0.0749448
0.445466
0.0073668
0.0260324
-0.0333992
-0.243915
-0.152124
0.0891934
0.059147
-0.148339
0.110775
0.0755615
0.059406
-0.00324161
-0.0561646
0.0840006
-0.211465
-0.102769
-0.0272418
-0.458719
0.205148
-0.0104217
0.0748005
-0.24555
-0.230277
-0.0129361
0.00358692
0.0416994
0.0871779
0.0714128
-0.128609
0.409775
-0.190233
-0.219605
0.459739
-0.2101
-0.249198
0.0307464
0.0112773
0.00687366
-0.102574
-0.164175
-0.0220561
-0.0858146
0.0912703
0.222164
-0.0866653
-0.135506
-0.203168
0.042336
0.070639
-0.0549644
-0.181024
0.373995
-0.123191
0.0133649
0.109808
-0.398267
-0.107791
-0.493176
0.258861
-0.00709114
-0.112421
-0.174843
-0.318427
0.153251
0.169904
-0.00950255
0.000290612
0.241018
0.278913
-0.519696
-0.0946944
0.202546
0.0325494
-0.214637
-0.074855
-0.573933
0.054211
0.18908
-0.0732594
-0.11583
0.105629
0.210992
-0.3629
0.151984
-0.234257
0.556578
-0.00608863
0.118914
0.146942
-0.00846517
-0.00447092
0.108755
0.0423371
0.00199658
-0.0141075
-0.143606
-0.132752
0.328059
0.127859
-0.456094
0.438456
-0.142878
-0.104375
0.226764
-0.107731
-0.11906
0.228935
-0.116101
-0.000243666
0.00327065
-0.300555
0.181109
0.113307
0.0771134
-0.190429
-0.00664518
-0.109925
0.116569
0.0636754
-0.536642
0.392405
-0.200675
-0.191696
0.069188
0.131177
-0.146501
0.0462622
0.0211311
-0.0204624
0.291264
0.134582
-0.42587
-0.00361355
-0.00156339
0.304387
-0.0535701
-0.00652729
0.0131647
-0.157272
0.1653
0.180779
0.223844
-0.404632
0.243312
0.175911
-0.419225
0.103751
0.0959809
-0.199738
-0.093982
-0.0318942
-0.15514
0.272519
-0.117414
0.316317
-0.132171
-0.167849
0.130999
0.312768
-0.167617
-0.0367692
-0.0614703
0.0982395
-0.00357178
0.0134392
-0.0189838
0.00554459
0.537086
-0.263561
-0.274073
0.241344
-0.106623
-0.0112035
0.0817065
0.268913
-0.0883308
0.0129201
0.460014
-0.24814
-0.212205
0.0488807
-0.101844
-0.0704625
0.33784
-0.262684
-0.0752107
0.130376
-0.0403298
-0.033719
0.355867
-0.168701
-0.18734
-0.0907627
0.166913
-0.076151
-0.22385
-0.180591
0.10894
0.0628723
-0.0561935
0.11257
-0.103618
0.0687655
-0.0210418
-0.0477236
0.416046
0.122871
0.12902
0.101241
-0.230289
-0.0519813
0.0813911