/*--------------------------------*- C++ -*----------------------------------*\
| =========                 |                                                 |
| \\      /  F ield         | OpenFOAM: The Open Source CFD Toolbox           |
|  \\    /   O peration     | Version:  v2012                                 |
|   \\  /    A nd           | Website:  www.openfoam.com                      |
|    \\/     M anipulation  |                                                 |
\*---------------------------------------------------------------------------*/
FoamFile
{
    version     2.0;
    format      ascii;
    class       surfaceVectorField;
    location    "600";
    object      Uf;
}
// * * * * * * * * * * * * * * * * * * * * * * * * * * * * * * * * * * * * * //

dimensions      [0 1 -1 0 0 0 0];


internalField   nonuniform List<vector> 
14470
(
(0.971539 -0.0183829 0)
(0.969939 -0.0183968 1.33167e-20)
(0.970816 -0.0167357 5.49841e-21)
(-0.553032 -0.00260193 0)
(-0.600104 0.00170155 0)
(0.994724 -0.00709541 -5.64768e-21)
(0.99508 -0.00740643 5.4541e-21)
(0.994579 -0.00756517 7.02758e-21)
(-0.0349223 0.0171485 -1.42303e-20)
(-0.0352961 0.00318525 -5.73202e-21)
(-0.026713 0.0135782 -1.01318e-20)
(0.999979 -0.000915182 2.93358e-21)
(0.999973 -0.000917007 -4.7902e-22)
(0.999965 -0.00126283 -9.63542e-22)
(1.24492 0.129951 2.45476e-21)
(1.26082 0.138183 -5.10668e-20)
(1.259 0.119914 -3.33587e-20)
(1.18163 -0.197045 1.46285e-20)
(1.18452 -0.183893 1.43626e-20)
(1.19876 -0.19141 0)
(0.0558006 0.0465227 -5.78839e-20)
(0.0863487 0.0615598 -7.65855e-20)
(-0.0771579 0.0579072 6.92277e-20)
(1.02278 -0.0248902 0)
(1.02414 -0.0253991 -1.80038e-21)
(1.02299 -0.0263886 0)
(1.00018 -0.00222617 -9.61411e-23)
(1.00016 -0.00217099 -1.76067e-21)
(1.00017 -0.00214211 2.46329e-22)
(1.00017 -0.002303 2.22147e-21)
(1.00023 -0.00227669 -2.62401e-22)
(1.003 -0.00758032 2.42766e-21)
(1.00286 -0.00735338 -3.40005e-22)
(1.00277 -0.00761705 1.39772e-21)
(0.527225 0.477431 2.96944e-20)
(0.443367 0.49801 3.56648e-21)
(0.461447 0.490251 4.55178e-20)
(1.01799 -0.0142945 -2.99082e-22)
(1.01736 -0.0136922 -1.57178e-22)
(1.01826 -0.0135636 -2.05552e-21)
(1.04054 0.0176233 -1.27057e-21)
(1.0414 0.0188829 1.04456e-21)
(1.03963 0.0189553 -3.93145e-22)
(1.14069 0.00188296 2.72321e-20)
(1.14847 0.00323266 -1.9532e-20)
(1.14668 -0.0047397 2.73144e-20)
(0.996774 -0.00867945 2.43361e-21)
(0.996822 -0.00896302 -1.7546e-21)
(0.997157 -0.0087759 3.72777e-21)
(-0.00602669 -0.117904 3.67408e-20)
(-0.0311991 -0.13628 -7.95622e-20)
(-0.04577 -0.195545 -1.08328e-19)
(1.01227 -0.00302217 8.51664e-22)
(1.01218 -0.00283072 4.50385e-22)
(1.01245 -0.00293778 -1.6836e-21)
(1.01654 -0.00513098 -7.29035e-22)
(1.01687 -0.00490134 8.97622e-22)
(1.01631 -0.0048324 9.60072e-22)
(0.999988 -0.000288918 -3.09824e-21)
(0.999994 -0.000298291 -7.22575e-23)
(0.0412199 0.0167758 -3.35072e-21)
(0.0307953 -0.00344084 -1.58283e-21)
(0.0300971 0.0117787 1.60658e-21)
(0.142955 0.0328645 -1.57952e-19)
(-0.00423007 0.0401107 -7.07275e-20)
(0.607591 0.461387 -1.91815e-20)
(0.630758 0.452546 0)
(0.938348 -0.0626345 1.06289e-20)
(0.94264 -0.0609143 3.94238e-21)
(0.938413 -0.057325 5.34046e-21)
(1.00032 -0.0037972 1.62727e-21)
(1.00041 -0.00405969 1.50702e-21)
(1.00038 -0.00364313 0)
(1.00003 -0.000444474 -1.38945e-22)
(1.00003 -0.00051666 -6.37239e-22)
(1.00007 -0.000647279 -1.28421e-21)
(1.01214 -0.00308755 -1.32247e-21)
(1.01238 -0.00319412 4.40755e-22)
(1.20265 -0.0718174 2.27044e-20)
(1.2112 -0.0674362 1.68263e-20)
(1.21193 -0.0787453 -6.2875e-21)
(-0.517493 0.0367406 4.97903e-20)
(-0.520797 0.0384901 -3.44612e-20)
(-0.603498 0.0405816 2.938e-19)
(1.35495 0.100954 2.44707e-20)
(1.33532 0.100491 -5.97463e-20)
(1.34751 0.0829595 1.25787e-20)
(0.997925 -0.00546372 2.74672e-21)
(0.997762 -0.0052906 2.13124e-21)
(0.997682 -0.00554219 2.32168e-21)
(0.999124 -0.00852119 0)
(0.998992 -0.00881698 0)
(0.99931 -0.00879549 0)
(1.00457 -0.000409555 1.61689e-23)
(1.00439 -0.000416753 9.45064e-22)
(1.00428 -0.000237187 6.61847e-22)
(1.06784 0.00343938 5.67724e-21)
(1.0681 0.00111408 -9.58498e-21)
(1.06999 0.00332633 0)
(1.03955 0.012216 7.89217e-22)
(1.03981 0.0107767 -8.91046e-21)
(1.03837 0.0110454 -4.19783e-21)
(0.929197 -0.00534559 2.04099e-22)
(0.925935 -0.00415996 -2.7326e-21)
(0.926799 -0.00855529 -2.49094e-20)
(-0.112792 0.560035 -4.54556e-21)
(-0.140212 0.508822 -2.44602e-20)
(-0.102307 0.552433 1.40951e-20)
(1.08871 -0.0363196 -2.45353e-20)
(1.08402 -0.0357448 -6.08191e-21)
(1.08665 -0.031658 1.7674e-20)
(1.19313 -0.078663 3.20251e-20)
(1.19183 -0.0674693 2.4757e-20)
(1.45305 0.335501 -4.98171e-20)
(1.45996 0.301142 -4.20854e-20)
(1.39072 0.337553 -1.0366e-19)
(4.53197e-05 0.0712901 0)
(0.0681445 0.0995981 0)
(-0.122212 0.03497 1.19228e-19)
(1.00001 -0.000274763 -1.50305e-21)
(1.00003 -0.000415575 -6.19274e-22)
(0.994258 -0.00274956 -3.56326e-21)
(0.993934 -0.00292451 1.26681e-21)
(0.993904 -0.00248308 -5.64717e-21)
(0.997372 -0.0029841 2.67734e-21)
(0.9976 -0.00304992 1.12837e-21)
(0.997529 -0.0028027 4.08523e-21)
(-0.575717 0.0973972 -1.67098e-20)
(-0.574753 0.087472 -2.39442e-20)
(-0.494637 0.0942239 7.51072e-20)
(1 -0.000614945 2.28887e-21)
(1.00002 -0.000296913 2.32695e-21)
(1.00002 -0.000283223 -2.54424e-21)
(1.02077 -0.00256265 -2.81969e-21)
(1.02032 -0.00232982 -2.87797e-21)
(1.02094 -0.00210358 -1.76899e-22)
(0.99676 -0.00827045 2.42476e-21)
(0.996376 -0.00850169 2.63855e-21)
(1.06752 0.00654954 5.82679e-21)
(1.06529 0.00420496 1.31072e-20)
(1.00472 -0.000555231 0)
(1.00476 -0.000369303 -8.35294e-23)
(1.09648 0.000584422 1.92825e-21)
(1.10073 0.000526828 -4.18828e-21)
(1.09709 0.00363139 -1.16241e-20)
(1.00004 -0.00093144 7.42609e-22)
(1.00002 -0.000992166 2.68471e-21)
(0.926362 -0.122202 4.89148e-21)
(0.935347 -0.119352 -2.23297e-21)
(0.934053 -0.129892 3.80463e-21)
(-0.0524601 0.0209028 2.3919e-20)
(-0.038097 0.0306722 1.05492e-20)
(1.00304 -0.00694158 1.47462e-22)
(1.00289 -0.00670013 1.08749e-21)
(1.00313 -0.00672472 1.10065e-21)
(1.07908 0.10037 0)
(1.06997 0.102246 6.86344e-22)
(1.0729 0.0932681 0)
(1.02059 -0.00290427 2.29209e-23)
(1.02121 -0.00272989 1.35702e-21)
(1.00001 -0.000311137 0)
(0.917416 -0.0265326 -1.19718e-20)
(0.912407 -0.0256535 -6.24343e-21)
(0.916375 -0.0212709 -2.23398e-20)
(0.881385 -0.347213 -2.84418e-21)
(0.901776 -0.355117 -5.3085e-22)
(0.876725 -0.380387 3.72965e-21)
(0.996193 -0.00744198 -3.2831e-21)
(0.995925 -0.00721991 -5.03946e-21)
(0.996307 -0.0070772 -1.97912e-21)
(1.06016 0.0283551 -4.63386e-21)
(1.06119 0.0261708 1.45833e-20)
(1.05854 0.0267851 3.53582e-21)
(1.00253 -0.0010343 9.20541e-24)
(1.00267 -0.000953454 -6.15143e-22)
(1.00271 -0.00114989 3.89365e-22)
(1.02148 -0.0244473 0)
(1.02237 -0.0236429 4.05012e-22)
(-0.589013 0.0630888 9.6004e-20)
(-0.572592 0.0656575 9.69561e-20)
(1.0525 -0.0207684 4.1148e-21)
(1.05082 -0.0218363 8.44443e-21)
(1.05299 -0.0230054 -1.13217e-21)
(1.03924 0.013522 5.21742e-21)
(1.0387 0.0149855 2.60934e-21)
(1.03757 0.0136974 0)
(0.552727 0.500578 -2.50123e-21)
(0.633888 0.571563 -1.25374e-19)
(0.641425 0.523388 7.27572e-20)
(0.984505 -0.0109971 4.69769e-21)
(0.983444 -0.0109318 -1.79551e-21)
(0.984245 -0.010009 4.02005e-21)
(0.617493 0.000229299 2.7894e-20)
(0.597079 0.0129061 -5.6427e-20)
(0.596618 -0.0155774 1.26112e-19)
(-0.18515 0.079699 -5.6591e-20)
(-0.0495484 0.0821211 1.94009e-19)
(-0.188046 0.0920728 1.42085e-19)
(1.11819 -0.296163 -4.92075e-21)
(1.08211 -0.344578 -2.14644e-20)
(1.05619 -0.325033 4.4705e-21)
(0.83345 0.744962 1.92717e-20)
(0.750793 0.760083 -3.50678e-23)
(0.80155 0.736035 8.97928e-21)
(1.00001 -0.000799832 -8.28888e-22)
(1 -0.000877302 -3.08103e-21)
(1.00005 -0.00111951 -6.34073e-21)
(0.822865 -0.150877 -1.7617e-20)
(0.83871 -0.156715 6.2318e-21)
(0.834476 -0.140548 1.09418e-20)
(1.36332 0.066299 -1.32315e-19)
(1.24356 0.0826396 -2.02528e-19)
(1.24258 0.058121 1.05349e-19)
(0.996335 -0.00506723 -1.63789e-21)
(0.996207 -0.00534347 -2.86482e-21)
(0.996541 -0.00526692 2.4857e-21)
(0.999997 -0.000934301 -8.91971e-23)
(0.999998 -0.000914871 -5.58519e-21)
(0.999992 -0.000594001 -2.62681e-21)
(0.813209 -0.158003 -2.79845e-20)
(0.810471 -0.141067 -6.03471e-20)
(0.00820415 -0.0885812 -5.56402e-20)
(0.0397453 -0.0353417 1.16165e-19)
(1.13397 -0.000279748 1.90049e-21)
(1.13542 0.00675304 0)
(0.994742 -0.0628409 8.79722e-22)
(0.99792 -0.0635673 9.81024e-22)
(0.997496 -0.0602508 -1.38164e-21)
(1.04075 0.0133921 4.30417e-22)
(1.32673 -0.058029 -7.44225e-20)
(1.32079 -0.0688948 5.618e-20)
(1.31448 -0.0570048 5.11065e-20)
(0.99999 -0.000960817 2.81406e-21)
(0.999981 -0.00127603 2.88826e-21)
(1.04414 0.052809 4.06764e-21)
(1.0481 0.0510057 2.30972e-21)
(1.04428 0.0485059 -1.67712e-21)
(-0.0882553 0.597424 2.20466e-20)
(-0.112724 0.55669 1.91685e-20)
(0.874761 -0.324841 -1.6938e-20)
(0.850718 -0.349533 0)
(0.0406399 0.0457344 -9.24527e-23)
(0.030007 0.0388302 1.55952e-21)
(0.0160042 0.0494065 -8.12848e-21)
(1.39495 -0.0740877 5.26496e-20)
(1.38666 -0.066874 -8.00816e-20)
(1.40635 -0.0661575 1.30596e-19)
(1.41253 -0.0809348 -3.31695e-20)
(1.38893 -0.0830045 -3.55422e-20)
(1.11338 -0.0797143 -2.03338e-20)
(1.12172 -0.0833469 2.96323e-20)
(1.11901 -0.0745069 3.66987e-20)
(-0.0511182 0.0387317 -3.99887e-20)
(0.114709 0.110563 0)
(0.998365 -0.010605 1.83347e-21)
(0.998589 -0.0108871 -1.8127e-21)
(0.998802 -0.0105489 -3.15622e-21)
(0.86159 0.739208 4.30754e-20)
(0.907363 0.725799 -3.35233e-21)
(1.15215 -0.0258372 -2.68045e-20)
(1.14779 -0.0319776 -1.9293e-20)
(1.1443 -0.0243464 -2.14109e-20)
(1.04874 -0.0423787 -9.38749e-21)
(1.05161 -0.0425866 -1.24937e-20)
(1.05001 -0.0452326 -8.31765e-21)
(0.999994 -0.000590167 -3.52558e-24)
(0.999979 -0.000970051 5.63471e-22)
(0.00121554 0.36181 3.99419e-22)
(0.0231876 0.400977 -7.44727e-21)
(0.0483343 0.364175 -1.45896e-21)
(1.09534 -0.00376344 1.12617e-20)
(1.09213 0.00104533 1.93163e-21)
(0.684817 -0.707168 -3.01586e-20)
(0.624456 -0.739695 -4.62084e-21)
(0.700505 -0.675566 8.78476e-20)
(0.994565 -0.00251004 -2.45737e-21)
(0.994638 -0.00293436 -2.53853e-21)
(0.550782 0.568167 3.6241e-21)
(0.489581 0.572422 3.52428e-21)
(0.547287 0.623155 -2.00451e-21)
(1.10213 0.096386 1.11148e-19)
(0.966997 0.0865589 -2.46597e-20)
(0.958666 0.107547 7.23128e-20)
(1.15428 -0.238226 6.10578e-21)
(1.18553 -0.24043 -2.12165e-20)
(1.0045 -0.0049929 -1.08638e-21)
(1.00451 -0.00521391 -5.54361e-23)
(1.0043 -0.00509518 -1.06754e-21)
(0.996119 -0.0048549 5.67884e-21)
(0.996465 -0.00482219 6.02844e-22)
(0.999981 -0.000262502 -5.90577e-22)
(1.0001 -0.00107295 -1.27157e-21)
(1.00013 -0.00104137 1.85713e-21)
(1.00015 -0.00122406 0)
(0.037081 0.0286114 1.20603e-21)
(0.0562562 0.0177602 -2.00791e-22)
(0.119534 -0.160091 -5.29044e-20)
(0.0816149 -0.169939 6.75508e-20)
(0.0875691 -0.127114 -2.17925e-21)
(-0.487523 -0.00297893 1.81379e-20)
(-0.4998 0.00509449 1.50898e-20)
(-0.526525 0.00869059 -1.4087e-19)
(0.985497 -0.0108701 0)
(0.984901 -0.0116915 -1.2529e-21)
(0.999605 -0.00311913 2.71736e-21)
(0.999612 -0.00340366 8.28288e-22)
(0.999484 -0.0033825 2.21503e-21)
(1.0295 0.0154745 1.75534e-21)
(1.02815 0.015142 -2.25773e-21)
(1.02865 0.0169851 -1.99049e-21)
(0.997741 -0.00347422 -2.15126e-22)
(0.997941 -0.00345107 5.51682e-21)
(0.997813 -0.00369326 -2.02924e-22)
(-0.0697707 0.0279466 -3.8685e-21)
(-0.0725879 0.047914 5.78627e-21)
(-0.0863832 0.036266 -6.24834e-20)
(0.997056 -0.00249697 2.61092e-22)
(0.997009 -0.00270147 -1.88637e-21)
(0.99684 -0.0025021 -2.93297e-21)
(0.4383 0.553001 1.13657e-20)
(0.419917 0.48176 -3.68364e-21)
(0.366976 0.537404 8.00944e-21)
(1.03966 0.0549227 1.70974e-21)
(1.04385 0.0585753 -4.7797e-21)
(1.05431 0.676722 5.03654e-20)
(1.01907 0.692805 -2.96133e-20)
(1.05643 0.679726 3.31814e-20)
(1.09395 0.0251822 0)
(1.09188 0.0295625 -6.77303e-21)
(1.08957 0.0256737 0)
(1.0401 0.00923566 -4.39377e-21)
(1.04153 0.0102974 7.50225e-21)
(0.997045 -0.00226469 7.89546e-21)
(0.997258 -0.0024833 -2.89276e-21)
(1.1595 -0.0121254 0)
(1.1653 -0.00676921 0)
(1.16827 -0.0154426 -2.8406e-20)
(-0.524787 0.0356588 1.03383e-19)
(-0.430321 0.0339892 0)
(0.962445 0.00913536 -1.11886e-21)
(0.97026 0.018034 -2.79467e-21)
(0.95554 0.0253091 6.82123e-21)
(0.953851 -0.00336499 1.12438e-21)
(0.972407 -0.00839054 -1.09466e-21)
(1.04601 -0.00214174 0)
(1.04496 -0.000949979 -6.82e-21)
(1.04446 -0.00239522 0)
(1.00697 -0.0104762 -9.74679e-23)
(1.00732 -0.0104108 2.10028e-22)
(1.00691 -0.0100619 4.49232e-22)
(0.973277 -0.0178899 0)
(0.972565 -0.0196012 8.12451e-22)
(1.04683 -0.0198552 -7.52384e-22)
(1.04535 -0.0209665 3.18164e-21)
(1.04496 -0.0189939 6.23553e-21)
(1.0673 -0.00075519 -1.59239e-20)
(1.06432 -0.00104504 5.38807e-21)
(1.06608 -0.00351275 -5.03458e-21)
(1.27533 -0.161774 5.40041e-20)
(1.26607 -0.173208 7.30246e-20)
(1.28411 -0.177102 -5.50567e-20)
(1.23477 0.289033 0)
(1.21482 0.310666 4.21733e-21)
(1.20511 0.281163 3.09405e-20)
(1.03067 0.0161934 2.59907e-21)
(1.03021 0.0144211 2.77824e-22)
(1.00002 -0.000757541 1.57917e-21)
(1 -0.000489361 3.56146e-21)
(1.1509 0.0196031 -3.06302e-20)
(1.15256 0.0248488 -2.64711e-20)
(1.15755 0.0185635 -2.59072e-20)
(0.0802487 0.0203752 2.00593e-19)
(0.0345844 -0.0374882 -3.89328e-20)
(0.100607 0.0490029 6.07341e-20)
(1.06964 -0.00123113 -8.29535e-21)
(0.989668 -0.0173674 7.26197e-21)
(0.990143 -0.0185137 0)
(0.990717 -0.0173111 0)
(1.05625 0.0475155 1.49552e-22)
(1.05331 0.0467281 -5.69841e-21)
(1.0553 0.0445772 -3.71875e-21)
(-0.566928 0.110284 -9.3689e-21)
(-0.564408 0.123767 7.02605e-20)
(-0.498983 0.122268 1.55774e-19)
(1.27436 -0.442895 5.0112e-20)
(1.25318 -0.450575 2.7788e-20)
(1.26621 -0.472632 4.72839e-20)
(0.997033 -0.00203353 1.54778e-21)
(0.997236 -0.00199388 -5.80233e-21)
(0.881367 0.731172 5.2389e-20)
(0.820987 0.730755 5.83664e-20)
(1.00668 -0.010552 -6.25758e-22)
(1.00709 -0.0109092 1.16159e-22)
(0.996801 -0.00204741 6.5362e-21)
(0.999828 -0.00510493 -1.54873e-21)
(0.999885 -0.00484435 2.54459e-21)
(0.999781 -0.00475219 -1.26509e-21)
(0.0681721 -0.0473728 1.06297e-19)
(0.373472 -0.116769 5.68518e-20)
(0.169628 -0.0754502 -1.03995e-19)
(1.04564 -0.0423711 3.44298e-21)
(1.04698 -0.0399418 7.36905e-21)
(1.00027 -0.00363738 -1.06472e-21)
(1.00029 -0.00398818 -1.68009e-21)
(0.9887 -0.00368803 -2.94975e-21)
(0.989026 -0.00425525 -3.91216e-21)
(0.988339 -0.00418445 -6.88518e-21)
(1.42601 -0.10029 5.81401e-21)
(1.40229 -0.105727 -3.89649e-20)
(1.42143 -0.116304 5.33147e-20)
(1.14923 0.0121107 -3.59223e-20)
(1.15667 0.00388275 3.51671e-21)
(0.996482 -0.00769007 2.6298e-21)
(0.996082 -0.00785229 -5.12628e-23)
(1.35993 0.120018 2.97303e-20)
(1.37471 0.0991616 1.07963e-19)
(0.988607 -0.0106311 2.53261e-21)
(0.98929 -0.0102731 1.05225e-20)
(0.989335 -0.0110984 -7.38601e-22)
(1.05092 0.0487717 3.40136e-22)
(1.05147 0.0529183 3.45955e-21)
(1.04761 -0.00177113 0)
(1.04704 -0.00335572 0)
(1.01676 -0.00535846 -7.79684e-22)
(1.0163 -0.00529183 3.33521e-22)
(0.625477 -0.460786 3.53756e-20)
(0.638806 -0.49326 1.78409e-20)
(0.595702 -0.485708 -1.45674e-20)
(1.02874 -0.00496233 2.75432e-21)
(1.02935 -0.00556703 5.46679e-21)
(1.02827 -0.00574189 2.92154e-21)
(1.46063 0.0813075 0)
(1.46127 0.0502334 -1.10487e-20)
(0.56437 -0.763539 2.77664e-20)
(0.513716 -0.785549 4.23108e-20)
(0.558248 -0.733029 8.91929e-20)
(1.03212 -0.00645899 -1.16938e-20)
(1.03254 -0.00733072 -1.38158e-21)
(1.03135 -0.00727092 -5.3015e-21)
(1.00448 -0.00476464 -4.64414e-22)
(1.00444 -0.00455427 9.78199e-23)
(1.00425 -0.00466739 7.04466e-22)
(1.00011 -0.00206675 -4.23444e-21)
(1.00009 -0.00190301 2.2867e-21)
(1.00008 -0.00192606 -2.14384e-21)
(0.989219 -0.0166624 4.60847e-21)
(0.988673 -0.0176724 1.21648e-21)
(-0.305309 0.061488 6.36654e-20)
(-0.343034 0.059799 -8.10966e-20)
(-0.296349 0.0460901 -1.47811e-19)
(0.593724 -0.284654 1.6048e-19)
(0.342614 -0.186618 -1.66053e-19)
(0.215267 -0.143786 1.36132e-19)
(0.00533288 0.363609 1.20818e-20)
(-0.00804752 0.413505 4.41125e-20)
(0.0292105 0.425044 1.02237e-20)
(1.00307 -0.00790623 -3.50895e-22)
(1.00326 -0.00761619 1.12447e-21)
(1.23045 0.117718 2.87945e-21)
(1.22859 0.135031 3.83775e-22)
(1.1024 -0.378609 1.19843e-21)
(1.12002 -0.359844 4.04142e-20)
(1.09534 -0.354985 2.77818e-21)
(0.614582 -0.582051 5.38453e-21)
(0.573037 -0.622149 0)
(0.570335 -0.552531 0)
(0.996055 -0.00565099 -3.09758e-21)
(0.996318 -0.00586009 -3.33838e-21)
(0.995927 -0.00596131 0)
(1.05198 -0.0166845 9.45517e-21)
(1.0522 -0.0187918 3.84525e-21)
(1.05005 -0.0173916 4.32389e-21)
(0.616345 0.558978 0)
(0.559198 0.504436 3.10463e-21)
(-0.608028 0.0960453 2.59559e-20)
(1.03507 0.0510318 -3.1736e-21)
(1.03392 0.0586019 -3.42293e-21)
(0.99725 -0.00318573 1.38685e-21)
(0.997144 -0.00290862 -5.53702e-22)
(0.998169 -0.00298031 -3.05171e-22)
(0.998281 -0.00271427 -2.09522e-22)
(0.998333 -0.00289613 2.60865e-21)
(1.00471 -0.00486431 -9.20678e-22)
(1.09582 0.636102 -2.66665e-20)
(1.04214 0.640018 -1.06198e-20)
(-0.192034 0.06908 -8.18054e-20)
(-0.306822 0.0778956 -5.14409e-20)
(0.936385 -0.406627 0)
(1.09066 -0.499877 0)
(0.753822 -0.668436 -7.24901e-20)
(0.669076 -0.705047 -7.87091e-20)
(1.02033 -0.0240106 0)
(1.01915 -0.0233654 1.43872e-21)
(1.02013 -0.0226361 -6.18305e-23)
(0.0794673 -0.100712 -5.78183e-21)
(0.0549958 -0.0595264 -5.32353e-21)
(0.0578923 -0.0846373 -1.56858e-20)
(0.418259 -0.180402 -3.10477e-20)
(0.395819 -0.197761 3.21269e-20)
(0.429211 -0.207105 -4.05139e-20)
(0.928002 -0.0291943 1.34159e-20)
(0.925854 -0.0259578 4.26807e-21)
(0.930033 -0.0255172 7.42066e-21)
(1.02107 -0.000283221 3.45343e-22)
(1.02109 -0.000765627 -4.65723e-21)
(1.02059 -0.000592823 -2.5899e-22)
(0.975418 -0.0495328 4.92726e-22)
(0.976826 -0.0474217 1.70086e-21)
(0.974135 -0.0469241 6.16027e-21)
(0.201066 0.0722889 3.71887e-20)
(0.164527 0.0640903 1.18565e-19)
(0.190798 0.0309505 -5.3978e-20)
(1.01079 -0.00303444 -3.60377e-22)
(1.01105 -0.00308905 -7.13364e-22)
(1.01094 -0.00321069 9.70316e-23)
(0.996642 -0.00922317 -1.81947e-21)
(0.997005 -0.00922714 -1.71175e-21)
(0.999898 -0.00220989 3.22715e-21)
(0.99993 -0.00221748 -1.57984e-21)
(0.999928 -0.00213149 -3.11029e-21)
(0.982552 -0.0113288 -6.6951e-21)
(0.981513 -0.0118262 0)
(0.982509 -0.0124465 0)
(1.01757 -0.00430284 -6.73438e-22)
(1.01769 -0.00411701 1.4196e-21)
(1.01729 -0.00409962 -2.24402e-21)
(1.06503 0.00946865 0)
(1.06743 0.00877704 0)
(1.06715 0.0113989 0)
(1.04873 0.00456024 4.42824e-21)
(1.05042 0.0049473 -3.77588e-21)
(1.04881 0.00595098 -9.24504e-21)
(-0.1877 0.010729 8.0067e-20)
(-0.185949 -0.0308274 1.27563e-20)
(-0.1799 -0.0605268 6.51396e-20)
(0.986013 -0.00293243 3.21604e-21)
(0.985445 -0.0034334 1.56282e-21)
(0.986263 -0.00358123 -1.48852e-21)
(1.07719 -0.0330382 -2.56522e-21)
(1.07404 -0.0316605 -9.68701e-21)
(1.07453 -0.0354472 1.15737e-20)
(1.03168 -0.00565719 -7.90499e-21)
(1.03273 -0.00567479 5.00215e-22)
(0.978425 -0.0285549 4.15991e-21)
(0.978363 -0.0267114 6.77186e-21)
(0.979958 -0.027877 0)
(0.886821 -0.598517 3.70936e-21)
(0.842524 -0.606252 0)
(0.88 -0.651353 0)
(1.14367 0.0176492 1.64668e-20)
(0.138758 0.0771195 -6.21964e-20)
(0.0594114 0.0115445 6.39496e-20)
(1.00993 -0.00293597 -6.01343e-22)
(1.00978 -0.00279164 1.29671e-22)
(1.00967 -0.00288305 -4.41602e-22)
(0.465221 0.468972 0)
(0.471156 0.432899 0)
(0.991735 -0.0616655 -3.53861e-21)
(0.991956 -0.0651905 2.84798e-21)
(1.04341 0.0438706 4.37584e-22)
(1.04511 0.0455228 -2.73536e-21)
(1.04251 0.0461569 1.83524e-21)
(1.01786 -0.0148503 6.81323e-22)
(1.01869 -0.0146761 -1.18191e-21)
(1.28537 -0.149703 -4.69749e-20)
(1.2701 -0.14831 5.87833e-20)
(0.999671 -0.00290068 -1.16523e-21)
(0.999616 -0.0029099 -7.93787e-22)
(0.764183 -0.0826417 2.91755e-20)
(0.773448 -0.070987 -2.0143e-20)
(0.754179 -0.068295 -1.2861e-20)
(1.15478 -0.0191517 -2.58339e-20)
(1.15963 -0.0269711 -3.30658e-21)
(1.01741 -0.00451953 -8.47446e-22)
(1.01794 -0.00451136 2.34008e-22)
(0.342233 0.424948 -2.19262e-20)
(0.391281 0.405195 8.29596e-20)
(0.386396 0.459658 -3.37093e-21)
(0.00637045 -0.017981 -9.80211e-21)
(-0.00123138 -0.0745102 -1.13705e-20)
(0.0339849 -0.147122 6.9298e-20)
(1.11003 -0.0849082 -3.06221e-20)
(1.10785 -0.077308 -4.35353e-20)
(0.998483 -0.0119449 -8.52168e-22)
(0.998217 -0.0115683 -2.21112e-21)
(0.997916 -0.0120394 8.87516e-22)
(1.09552 0.0422145 -8.08432e-21)
(1.09813 0.0382231 -9.98644e-21)
(1.10186 0.0426903 2.97499e-21)
(0.256183 -0.791558 3.71144e-20)
(0.204383 -0.691352 3.7099e-20)
(0.222034 -0.744175 -4.81851e-20)
(0.781264 -0.10761 -7.63493e-21)
(0.771771 -0.0950461 3.31457e-21)
(0.789488 -0.0974847 -8.82804e-21)
(0.76963 -0.118141 -3.11117e-20)
(0.78752 -0.118492 -1.83319e-20)
(-0.173923 0.0729015 1.26219e-21)
(-0.17876 0.121956 -2.87076e-20)
(-0.157332 0.097023 -9.49787e-20)
(0.992349 0.046777 3.5681e-22)
(0.994739 0.034754 4.11276e-22)
(0.981224 0.0418715 -2.98825e-21)
(1.04401 0.0415847 1.86439e-21)
(1.04166 0.0422122 6.71948e-22)
(1.05906 0.0298892 -2.42474e-21)
(1.06155 0.029716 -1.64246e-22)
(0.436781 -0.160087 -3.30434e-20)
(0.403537 -0.15264 -3.38657e-20)
(1.01764 -0.00162101 2.27721e-21)
(1.01767 -0.00131001 -8.20666e-22)
(1.01732 -0.00144544 1.36312e-21)
(0.0930249 -0.117703 0)
(-0.429726 -0.0165902 -1.99228e-19)
(-0.474727 -0.0123601 -1.14406e-19)
(1.01054 -0.00297594 0)
(1.01067 -0.00288387 0)
(0.999921 -0.00197214 -3.06987e-21)
(0.999912 -0.00195308 -4.13679e-22)
(0.999939 -0.00178164 3.12503e-21)
(1.43471 0.37693 -9.41321e-21)
(1.43545 0.339855 -2.96422e-20)
(0.992017 -0.0120808 8.64185e-22)
(0.992777 -0.0123715 -1.89139e-21)
(0.992074 -0.0130341 3.55285e-21)
(1.00008 -0.000966234 -1.17203e-21)
(1.0001 -0.00115416 -1.63656e-22)
(1.04103 0.103808 -2.26637e-20)
(1.04608 0.114671 -7.5066e-21)
(1.0512 0.102408 3.92392e-22)
(1.05175 0.124402 -1.00911e-20)
(1.06335 0.122506 -1.09488e-20)
(1.06006 0.136545 4.57141e-21)
(1.02051 -0.0251881 0)
(1.05186 -0.0148264 -4.65699e-21)
(1.05364 -0.0160182 4.88355e-21)
(1.08043 -0.0342599 0)
(1.07946 -0.0303938 0)
(0.992893 -0.168883 -7.58008e-22)
(0.983085 -0.163087 -3.41864e-21)
(0.983874 -0.174699 -2.40062e-21)
(1.0523 -0.0102843 0)
(1.05042 -0.0102428 -5.81299e-21)
(1.05129 -0.00875504 1.3753e-20)
(0.995787 -0.00543576 9.09932e-22)
(1.1093 -0.135758 2.91872e-20)
(1.11084 -0.129156 1.58333e-20)
(1.10261 -0.130922 2.41029e-21)
(-0.112396 -0.183774 2.25235e-21)
(-0.086012 -0.22383 -1.91074e-20)
(-0.111098 -0.216736 -7.21159e-20)
(1.01714 -0.00474671 -6.01315e-23)
(1.01688 -0.00445994 -1.61314e-21)
(-0.0172844 0.204569 1.29356e-20)
(-0.00613008 0.295926 3.76606e-20)
(-0.0118195 0.264866 1.06721e-19)
(1.00001 -0.00122646 2.88575e-21)
(1.00004 -0.000896094 6.78244e-22)
(1.00023 -0.00244866 2.69163e-22)
(1.00019 -0.00238488 6.88199e-22)
(1.00018 -0.00248272 -1.99774e-21)
(1.00841 -0.000424294 3.19422e-22)
(1.00836 -0.000538746 1.62156e-22)
(1.00856 -0.000549283 1.73756e-22)
(-0.0639963 0.00747069 -7.95447e-21)
(0.995063 -0.00149616 4.05735e-21)
(0.994775 -0.00163201 -4.89745e-21)
(0.995101 -0.00183615 -1.3476e-22)
(1.42941 -0.0883465 8.70171e-20)
(1.45871 -0.0947196 7.82282e-20)
(0.520556 0.718283 3.77158e-20)
(0.603065 0.736509 6.13837e-21)
(0.539075 0.753521 9.20904e-21)
(1.00073 -0.00251538 0)
(1.00071 -0.0025694 -2.29335e-21)
(1.00081 -0.00273574 1.1722e-21)
(0.999741 -0.00271352 -2.11251e-21)
(0.999733 -0.00290559 -5.32761e-21)
(1.43904 -0.0390395 -1.866e-19)
(1.42368 -0.0278593 -7.63472e-21)
(1.40853 -0.0334695 1.37513e-20)
(1.00803 -0.000227598 1.29081e-22)
(1.0083 -0.00022853 -7.69761e-23)
(0.999994 -0.00154912 5.38968e-21)
(1 -0.00155319 -9.4308e-22)
(0.999994 -0.00181299 5.55336e-21)
(1.00888 -0.000304656 -1.68482e-22)
(1.00873 -0.000314752 -2.2934e-22)
(1.00791 -0.000172409 -2.30707e-22)
(0.478571 0.669976 2.7407e-20)
(0.434577 0.693734 -5.25071e-21)
(0.641149 -0.431078 -1.58887e-20)
(0.602442 -0.422354 1.6734e-22)
(0.949054 -0.0549219 0)
(0.952063 -0.0521732 3.96284e-21)
(0.953132 -0.0564497 -7.08001e-21)
(0.969345 -0.577584 -1.20727e-20)
(0.977853 -0.537331 3.91625e-22)
(1.01052 -0.562374 1.51359e-21)
(1.08719 0.097992 0)
(1.0953 0.0943216 -8.58677e-21)
(1.08831 0.088764 -2.43545e-20)
(0.560857 -0.768217 -9.75187e-20)
(0.0271469 -0.0765204 -5.48342e-22)
(-0.00415824 -0.0648619 -1.94225e-21)
(0.0243083 -0.0653113 -5.20275e-22)
(1.03305 -0.00825052 3.10219e-21)
(1.03388 -0.00729187 6.72138e-21)
(-0.272651 -0.586114 1.49144e-19)
(-0.0873463 -0.640071 -1.43784e-19)
(-0.359633 -0.710274 6.81537e-20)
(1.00004 -0.000828311 -1.56005e-21)
(1.00003 -0.0011718 2.00286e-21)
(1.00002 -0.000794402 1.88588e-21)
(0.311451 -0.83363 -8.19163e-20)
(0.306721 -0.845908 -3.78944e-20)
(0.487739 -1.15472 8.69346e-20)
(0.225243 -1.09479 7.12911e-20)
(0.471704 -1.24382 6.95526e-20)
(-0.0319109 0.586286 5.6436e-20)
(-0.0173402 0.607742 -3.83949e-20)
(-0.0102153 0.594219 -5.20938e-20)
(0.432193 0.617299 2.78498e-22)
(1.00029 0.0502272 7.85182e-22)
(0.990936 0.058486 3.08399e-22)
(1.04381 0.000163811 -7.07038e-21)
(1.04529 0.000559505 5.66257e-22)
(1.12786 -0.00167949 2.16485e-22)
(1.13233 -0.00689632 -4.55166e-20)
(1.04863 0.00288029 2.2203e-21)
(1.04713 0.00419122 8.83758e-21)
(1.02108 0.000198762 3.34109e-21)
(1.02095 0.000724997 -3.34847e-22)
(1.02048 0.00032765 2.3184e-21)
(1.03173 -0.00243781 1.01841e-21)
(1.03249 -0.00205169 3.69349e-21)
(1.03156 -0.00148231 2.32582e-21)
(0.932604 -0.586686 -8.45772e-21)
(0.896579 -0.557914 5.64596e-21)
(0.937935 -0.0676052 5.97165e-21)
(0.934286 -0.0636181 5.40562e-21)
(0.999749 -0.00259658 1.41258e-21)
(0.999769 -0.0025852 3.41825e-21)
(1.00001 -0.000170125 -2.65474e-22)
(1 -7.84814e-05 1.32353e-21)
(1 -8.49272e-05 -1.79755e-22)
(1.01016 -0.00300425 -4.95117e-23)
(1.01004 -0.00310617 -5.21687e-22)
(1.01149 -0.000112169 0)
(1.01127 -0.000178906 -1.45877e-22)
(1.01181 -0.000199468 9.23312e-23)
(1.0174 -0.00497476 -1.59724e-22)
(0.0848686 -0.0869177 1.55468e-21)
(0.0442645 -0.0718585 1.31588e-21)
(0.0644434 -0.0623882 1.50439e-21)
(1.0046 -0.00592062 2.87437e-22)
(1.0048 -0.00581139 3.10666e-22)
(1.00456 -0.00569608 -5.52227e-22)
(1.01668 -0.0136537 3.02052e-21)
(1.01597 -0.0135036 -2.64286e-22)
(1.01628 -0.0142212 -1.45927e-22)
(1.01125 -0.000176378 -2.96303e-22)
(1.01115 -0.000189145 -4.60098e-22)
(1.01175 -0.000181678 8.7351e-23)
(1.00294 -0.00715367 -3.55615e-21)
(1.00322 -0.00716892 7.4285e-23)
(-0.0629548 -0.374091 1.39447e-20)
(-0.0646978 -0.354048 -1.61032e-20)
(-0.0395588 -0.427656 -4.48766e-20)
(1.28389 -0.415932 -4.53505e-20)
(1.30108 -0.442098 -1.24969e-19)
(0.705033 0.0526047 1.60425e-20)
(0.709488 0.0379481 8.96776e-21)
(0.69054 0.0402216 4.65e-20)
(0.95872 -0.0173549 8.51107e-21)
(0.957647 -0.0191365 -8.06319e-21)
(0.956418 -0.0166086 3.29034e-21)
(1.05749 0.0508384 2.10111e-21)
(1.0593 0.0479912 -1.62417e-21)
(1.00952 -4.85364e-05 8.78135e-23)
(1.17013 -0.198759 6.20464e-21)
(1.17046 -0.157303 -2.0336e-22)
(1.21142 -0.153026 8.26493e-21)
(-0.123554 0.0131172 4.37667e-19)
(-0.00780513 -0.0183346 9.17593e-20)
(0.994524 -0.0021319 4.2537e-21)
(0.994865 -0.00232051 -7.70598e-21)
(0.680317 0.745558 -1.66829e-20)
(0.676856 0.721168 -6.23725e-21)
(1.06259 0.0244295 -8.16768e-22)
(1.06379 0.0222844 -1.06069e-20)
(1.06105 0.0227264 -1.16755e-20)
(0.993918 -0.00328333 -1.11822e-21)
(0.993571 -0.00308897 -4.12239e-21)
(-0.504898 0.00521449 -3.37577e-20)
(1.12065 -0.230749 3.88534e-21)
(0.998063 -0.00562207 1.61907e-22)
(0.998132 -0.00539441 2.6645e-21)
(1.10576 -0.144618 -6.89086e-21)
(1.11671 -0.142691 1.14824e-20)
(0.35877 0.522014 -7.3432e-20)
(0.374903 1.09891 7.85524e-20)
(0.982272 -0.0253824 -9.62846e-22)
(0.983784 -0.0257422 1.10465e-21)
(0.983302 -0.0242074 2.55017e-21)
(0.846579 0.00748436 3.37884e-20)
(0.853873 0.00387347 1.1386e-20)
(0.847354 -0.000890984 -2.52352e-20)
(1.01698 -0.0129909 2.15175e-21)
(0.97825 -0.0250642 1.15669e-20)
(0.979425 -0.0241922 -1.35987e-21)
(0.97792 -0.0234112 4.80783e-21)
(0.415625 -0.916796 -1.18826e-20)
(0.375668 -0.868753 -7.29052e-20)
(0.461191 -0.889375 5.84538e-20)
(0.93784 -0.186119 1.07577e-20)
(0.941895 -0.174942 6.76609e-21)
(0.928335 -0.178148 7.76295e-22)
(0.999276 -0.0082056 2.86166e-22)
(0.998979 -0.00823445 1.97465e-21)
(0.996862 -0.00325544 0)
(0.997102 -0.00335437 0)
(0.996949 -0.0035109 3.39363e-21)
(0.96003 -0.0154398 -8.14883e-21)
(0.960928 -0.0179915 9.08859e-21)
(1.19538 -0.362604 2.62305e-20)
(1.17126 -0.36475 9.19545e-21)
(1.18135 -0.342542 7.17581e-20)
(0.0796455 -0.229517 2.0458e-20)
(0.115148 -0.247386 -1.43628e-19)
(0.08443 -0.27893 0)
(0.994411 -0.00686242 -3.79474e-21)
(0.994858 -0.00674711 -1.69919e-21)
(1.00473 -0.00531074 1.14767e-21)
(1.00454 -0.00543049 8.56596e-22)
(1.0212 -0.00723396 1.48966e-21)
(1.02107 -0.00675402 1.07808e-21)
(1.02172 -0.0070702 -1.33747e-21)
(-0.229277 0.0620943 1.76528e-19)
(-0.306055 0.0692252 2.49638e-19)
(-0.157689 -0.411686 1.48558e-20)
(-0.283529 -0.371172 5.73063e-20)
(-0.0735759 -0.012434 0)
(0.0508676 0.0017853 -6.95084e-20)
(-0.0449421 -0.011162 -1.02206e-19)
(1.01755 -0.00190769 1.88316e-21)
(1.01745 -0.00217472 -1.41952e-21)
(1.01717 -0.00199422 -2.63623e-21)
(0.948908 -0.194102 6.61362e-23)
(0.93273 -0.199661 5.53493e-22)
(0.847308 0.016465 -7.06732e-21)
(0.839147 0.012616 9.04633e-21)
(0.945847 -0.785671 6.36873e-23)
(0.890122 -0.813862 -1.0923e-21)
(0.959106 -0.852568 -1.06221e-21)
(1.10627 0.0696157 2.49707e-20)
(1.10246 0.0743718 4.35473e-20)
(1.11035 0.0748034 3.47364e-21)
(1.01706 -0.000242049 -3.31514e-22)
(1.01739 -0.000295947 2.65146e-23)
(1.01705 -0.000488963 1.35129e-21)
(1.01842 -0.000636344 0)
(1.01841 -0.0009819 0)
(1.01882 -0.000784318 0)
(1.02135 -0.00776005 -5.11453e-22)
(1.02064 -0.00737714 -5.028e-22)
(1.12194 -0.00311091 -4.94883e-21)
(1.12338 0.00264464 -2.70883e-20)
(0.99708 -0.0296251 0)
(0.998385 -0.0303239 -1.26684e-21)
(0.997058 -0.0312346 9.36672e-22)
(0.29715 0.0297962 5.47219e-21)
(0.264461 0.0278943 -9.8018e-21)
(0.166505 0.0334525 -3.73637e-20)
(0.999028 -0.00353263 0)
(0.998928 -0.00352495 -1.4149e-21)
(0.998954 -0.00384625 0)
(1.00818 -0.00965092 5.54778e-23)
(1.00827 -0.0100846 1.46219e-22)
(1.00866 -0.00991317 4.93675e-22)
(0.418447 -0.562443 2.89641e-21)
(0.368828 -0.562967 -5.50845e-21)
(0.388973 -0.618861 -1.3654e-20)
(0.119777 -0.0971278 0)
(0.110292 -0.111069 0)
(0.414378 0.479694 0)
(0.366483 0.411345 2.5703e-20)
(1.01113 -2.81792e-05 2.35034e-22)