/*--------------------------------*- C++ -*----------------------------------*\
| =========                 |                                                 |
| \\      /  F ield         | OpenFOAM: The Open Source CFD Toolbox           |
|  \\    /   O peration     | Version:  v2012                                 |
|   \\  /    A nd           | Website:  www.openfoam.com                      |
|    \\/     M anipulation  |                                                 |
\*---------------------------------------------------------------------------*/
FoamFile
{
    version     2.0;
    format      ascii;
    class       volVectorField;
    location    "250";
    object      cellDisplacement;
}
// * * * * * * * * * * * * * * * * * * * * * * * * * * * * * * * * * * * * * //

dimensions      [0 1 0 0 0 0 0];


internalField   nonuniform List<vector> 
10042
(
(0 0.000706267 0)
(0 0.00154437 0)
(0 0.00134541 0)
(0 0.000367376 0)
(0 0.000214481 0)
(0 0.00178202 0)
(0 0.000657014 0)
(0 0.00113699 0)
(0 0.000499192 0)
(0 0.00087534 0)
(0 0.00122443 0)
(0 0.00153954 0)
(0 0.000437411 0)
(0 0.00116913 0)
(0 0.000457008 0)
(0 0.00116904 0)
(0 0.00179207 0)
(0 0.00124094 0)
(0 0.000433585 0)
(0 0.00110804 0)
(0 0.000455288 0)
(0 0.000686075 0)
(0 0.000350132 0)
(0 0.00162596 0)
(0 0.000833992 0)
(0 2.81185e-05 0)
(0 0.000879799 0)
(0 0.000319497 0)
(0 0.00178672 0)
(0 0.00165495 0)
(0 0.000114263 0)
(0 0.000277105 0)
(0 0.000461581 0)
(0 0.000437108 0)
(0 0.00114752 0)
(0 0.00117849 0)
(0 6.43433e-05 0)
(0 0.000505932 0)
(0 0.000157476 0)
(0 5.25642e-05 0)
(0 0.00164357 0)
(0 0.000473082 0)
(0 0.000405149 0)
(0 0.00142759 0)
(0 0.00058459 0)
(0 0.000865448 0)
(0 0.00020964 0)
(0 0.000457744 0)
(0 0.00070431 0)
(0 0.000479273 0)
(0 0.000418195 0)
(0 0.000336771 0)
(0 0.0017875 0)
(0 0.000443847 0)
(0 0.00100364 0)
(0 0.000394957 0)
(0 0.000465704 0)
(0 0.00119027 0)
(0 0.000630147 0)
(0 1.5305e-05 0)
(0 0.000726041 0)
(0 0.000934775 0)
(0 0.000405266 0)
(0 0.00110553 0)
(0 0.00159972 0)
(0 0.00122342 0)
(0 0.00112798 0)
(0 0.000789808 0)
(0 0.000223538 0)
(0 0.000773195 0)
(0 0.000419845 0)
(0 0.000914136 0)
(0 0.000808765 0)
(0 0.000618819 0)
(0 0.00120334 0)
(0 0.000407462 0)
(0 0.00160778 0)
(0 0.000217632 0)
(0 0.00161746 0)
(0 0.00041908 0)
(0 0.00142272 0)
(0 0.00163798 0)
(0 5.34999e-05 0)
(0 0.000335235 0)
(0 0.000985619 0)
(0 0.000746417 0)
(0 0.00112504 0)
(0 0.00136266 0)
(0 0.00112329 0)
(0 0.0015935 0)
(0 0.00043673 0)
(0 0.00044626 0)
(0 0.000418212 0)
(0 0.000761821 0)
(0 0.00157554 0)
(0 0.000834581 0)
(0 0.000194298 0)
(0 0.00110633 0)
(0 0.00175828 0)
(0 0.000591364 0)
(0 0.000445019 0)
(0 0.000880734 0)
(0 0.000834776 0)
(0 0.00028037 0)
(0 0.000483693 0)
(0 0.000779 0)
(0 0.000548027 0)
(0 0.00117285 0)
(0 0.000680052 0)
(0 0.000778488 0)
(0 0.000645802 0)
(0 0.000692603 0)
(0 0.000893712 0)
(0 0.00111423 0)
(0 0.00158131 0)
(0 0.000244005 0)
(0 0.00158827 0)
(0 0.000127592 0)
(0 0.0011708 0)
(0 0.000230934 0)
(0 2.05673e-05 0)
(0 0.00155114 0)
(0 0.00154806 0)
(0 0.000611908 0)
(0 0.00160219 0)
(0 0.00118141 0)
(0 0.00120483 0)
(0 0.000996547 0)
(0 0.00029845 0)
(0 0.00159602 0)
(0 0.000582313 0)
(0 0.00114455 0)
(0 0.00128984 0)
(0 0.00108995 0)
(0 0.000714004 0)
(0 0.00048701 0)
(0 0.00118616 0)
(0 0.000608814 0)
(0 0.000541449 0)
(0 0.00175597 0)
(0 0.000422816 0)
(0 0.000182885 0)
(0 0.000565998 0)
(0 0.000301909 0)
(0 0.000683529 0)
(0 0.000533324 0)
(0 0.000978604 0)
(0 0.000211972 0)
(0 0.0009927 0)
(0 0.00178283 0)
(0 0.00115177 0)
(0 0.000134268 0)
(0 0.000537866 0)
(0 0.000418602 0)
(0 0.00155663 0)
(0 0.0006975 0)
(0 0.000307463 0)
(0 0.000390385 0)
(0 0.00129423 0)
(0 1.9007e-05 0)
(0 0.000125555 0)
(0 4.14626e-05 0)
(0 0.000509524 0)
(0 0.0011495 0)
(0 0.000548561 0)
(0 0.0017856 0)
(0 0.000802945 0)
(0 0.000286152 0)
(0 0.00116856 0)
(0 0.000401338 0)
(0 0.00154731 0)
(0 0.00166159 0)
(0 0.00156288 0)
(0 0.000424699 0)
(0 0.000459391 0)
(0 0.00155531 0)
(0 0.000809829 0)
(0 0.000526049 0)
(0 0.00112101 0)
(0 0.000221965 0)
(0 0.000549914 0)
(0 0.000535875 0)
(0 0.000601969 0)
(0 0.000191983 0)
(0 6.80729e-05 0)
(0 0.000373578 0)
(0 0.000896138 0)
(0 1.44809e-05 0)
(0 0.000423818 0)
(0 0.000174935 0)
(0 0.00153315 0)
(0 0.000483759 0)
(0 0.000611863 0)
(0 0.00053403 0)
(0 0.00101125 0)
(0 0.000436337 0)
(0 0.000235905 0)
(0 0.00151694 0)
(0 0.000197743 0)
(0 0.00029984 0)
(0 0.000294138 0)
(0 0.000420471 0)
(0 0.00163975 0)
(0 0.000128584 0)
(0 0.0017648 0)
(0 0.00126252 0)
(0 0.00158262 0)
(0 0.00043145 0)
(0 0.000650863 0)
(0 0.00109549 0)
(0 0.000274377 0)
(0 0.000142254 0)
(0 0.00165159 0)
(0 0.00161664 0)
(0 9.3821e-05 0)
(0 0.00077141 0)
(0 0.000120348 0)
(0 0.00157529 0)
(0 0.000185086 0)
(0 0.000304698 0)
(0 0.000248776 0)
(0 0.00152816 0)
(0 0.000257909 0)
(0 0.000764553 0)
(0 0.000396898 0)
(0 0.000408627 0)
(0 0.000986105 0)
(0 0.00118293 0)
(0 0.000869119 0)
(0 0.000821011 0)
(0 0.000550869 0)
(0 0.00123366 0)
(0 0.000386426 0)
(0 8.79183e-05 0)
(0 0.000827641 0)
(0 0.00114764 0)
(0 0.00121683 0)
(0 0.00020043 0)
(0 0.000681331 0)
(0 0.00161794 0)
(0 0.00160232 0)
(0 0.0016739 0)
(0 1.7598e-05 0)
(0 5.3889e-05 0)
(0 0.00108213 0)
(0 0.000220154 0)
(0 0.00166271 0)
(0 0.000693929 0)
(0 0.000540048 0)
(0 0.000174871 0)
(0 0.000477954 0)
(0 0.000633165 0)
(0 0.00172039 0)
(0 0.00102054 0)
(0 0.000992595 0)
(0 0.00121101 0)
(0 0.00014233 0)
(0 0.00105071 0)
(0 0.000199042 0)
(0 0.000255277 0)
(0 0.00160428 0)
(0 0.000588448 0)
(0 0.000337437 0)
(0 0.00022371 0)
(0 0.000426009 0)
(0 0.00104296 0)
(0 0.00159619 0)
(0 0.00171068 0)
(0 5.5068e-05 0)
(0 0.0012465 0)
(0 0.000395034 0)
(0 0.00049069 0)
(0 0.00110767 0)
(0 0.000409159 0)
(0 0.00104506 0)
(0 0.001112 0)
(0 0.000433748 0)
(0 0.000673789 0)
(0 5.38616e-05 0)
(0 0.00103026 0)
(0 0.000346484 0)
(0 0.00169122 0)
(0 0.000224818 0)
(0 0.000440606 0)
(0 2.20267e-05 0)
(0 0.000264824 0)
(0 0.00160573 0)
(0 0.000316609 0)
(0 0.000645847 0)
(0 0.000109127 0)
(0 0.000512487 0)
(0 0.00156375 0)
(0 3.54022e-05 0)
(0 0.00170318 0)
(0 0.00160718 0)
(0 0.0011372 0)
(0 0.00124136 0)
(0 0.0012025 0)
(0 0.00038715 0)
(0 0.000123331 0)
(0 0.00054961 0)
(0 0.00162922 0)
(0 9.86185e-06 0)
(0 0.00158928 0)
(0 0.00159907 0)
(0 0.000935493 0)
(0 0.0011636 0)
(0 4.22092e-05 0)
(0 0.00125846 0)
(0 0.00170655 0)
(0 4.5439e-05 0)
(0 0.00105754 0)
(0 0.000809749 0)
(0 0.00113495 0)
(0 0.00156756 0)
(0 0.000626014 0)
(0 0.000216265 0)
(0 6.22671e-05 0)
(0 0.00161263 0)
(0 0.000233647 0)
(0 4.93862e-05 0)
(0 0.000421494 0)
(0 0.00109343 0)
(0 0.000920411 0)
(0 0.00010637 0)
(0 7.35656e-05 0)
(0 0.00140121 0)
(0 0.00111973 0)
(0 0.00119803 0)
(0 0.000522352 0)
(0 0.00126175 0)
(0 0.000678548 0)
(0 0.000713033 0)
(0 0.000138093 0)
(0 0.00159599 0)
(0 0.000661551 0)
(0 0.000544937 0)
(0 0.000906686 0)
(0 0.000662974 0)
(0 0.00178229 0)
(0 0.000442339 0)
(0 0.000510944 0)
(0 2.31708e-05 0)
(0 0.00143581 0)
(0 0.000101669 0)
(0 0.000542681 0)
(0 0.00102581 0)
(0 0.000195764 0)
(0 0.00150222 0)
(0 0.000191528 0)
(0 0.000460287 0)
(0 0.00158401 0)
(0 0.00150194 0)
(0 0.000628782 0)
(0 0.000954693 0)
(0 0.00142346 0)
(0 0.000970101 0)
(0 2.79218e-05 0)
(0 0.000296831 0)
(0 2.20901e-05 0)
(0 0.000760491 0)
(0 6.44949e-05 0)
(0 0.000565182 0)
(0 0.00162898 0)
(0 0.00178451 0)
(0 0.000540448 0)
(0 0.000244001 0)
(0 0.00148139 0)
(0 0.0014817 0)
(0 0.000961906 0)
(0 1.76302e-05 0)
(0 5.10369e-05 0)
(0 0.00113752 0)
(0 9.21838e-07 0)
(0 0.000749731 0)
(0 0.0012195 0)
(0 0.0011315 0)
(0 0.00163537 0)
(0 0.00113632 0)
(0 0.00073302 0)
(0 0.000736046 0)
(0 0.00162478 0)
(0 0.00089498 0)
(0 0.00109452 0)
(0 0.000368491 0)
(0 0.000240989 0)
(0 0.000173869 0)
(0 0.000215043 0)
(0 0.00128075 0)
(0 0.000308512 0)
(0 0.00106182 0)
(0 0.000353607 0)
(0 0.000472876 0)
(0 0.00138689 0)
(0 0.00178084 0)
(0 0.000996928 0)
(0 0.000411438 0)
(0 0.00113665 0)
(0 4.22414e-05 0)
(0 0.000289737 0)
(0 0.000302728 0)
(0 0.000260822 0)
(0 0.000345449 0)
(0 0.000982062 0)
(0 0.000223421 0)
(0 0.000647134 0)
(0 0.000452723 0)
(0 0.000705008 0)
(0 0.00159801 0)
(0 0.00105524 0)
(0 0.00178344 0)
(0 0.000626219 0)
(0 0.00168362 0)
(0 0.000478309 0)
(0 0.00105033 0)
(0 0.00138102 0)
(0 0.000705909 0)
(0 0.000967742 0)
(0 0.000253099 0)
(0 0.00136186 0)
(0 0.000142485 0)
(0 0.0017828 0)
(0 0.000566765 0)
(0 0.000183814 0)
(0 0.000411515 0)
(0 0.00139433 0)
(0 0.000947153 0)
(0 0.00177793 0)
(0 0.000256701 0)
(0 0.000491737 0)
(0 0.00139232 0)
(0 0.000238063 0)
(0 0.000640862 0)
(0 0.00117257 0)
(0 0.000701799 0)
(0 0.000571785 0)
(0 0.000682703 0)
(0 0.00115003 0)
(0 4.6491e-05 0)
(0 0.000379545 0)
(0 0.000289656 0)
(0 0.00155334 0)
(0 0.00130046 0)
(0 0.00041146 0)
(0 0.000476507 0)
(0 5.49849e-05 0)
(0 0.00103796 0)
(0 0.00051867 0)
(0 0.0011164 0)
(0 0.000181889 0)
(0 0.00107399 0)
(0 0.00130878 0)
(0 0.00131855 0)
(0 0.000375334 0)
(0 0.000319757 0)
(0 0.00105792 0)
(0 0.00157329 0)
(0 0.000346033 0)
(0 0.000207997 0)
(0 5.11543e-05 0)
(0 0.000101219 0)
(0 0.000438928 0)
(0 0.000948748 0)
(0 0.000974155 0)
(0 0.00125998 0)
(0 1.72861e-05 0)
(0 0.000681584 0)
(0 0.000412628 0)
(0 0.00155953 0)
(0 0.00155695 0)
(0 0.000541523 0)
(0 0.000514373 0)
(0 0.000304802 0)
(0 0.000666045 0)
(0 0.00173785 0)
(0 0.000156643 0)
(0 0.000329413 0)
(0 6.17452e-05 0)
(0 0.000988221 0)
(0 0.000447423 0)
(0 0.00149721 0)
(0 0.000491061 0)
(0 0.00174782 0)
(0 0.000158993 0)
(0 0.000459553 0)
(0 3.65621e-05 0)
(0 0.00105529 0)
(0 0.00177479 0)
(0 5.82674e-05 0)
(0 0.000292048 0)
(0 0.00106349 0)
(0 0.00146317 0)
(0 0.000583798 0)
(0 0.00146739 0)
(0 0.0014105 0)
(0 0.000472689 0)
(0 0.000610144 0)
(0 0.00148762 0)
(0 0.00170794 0)
(0 0.000662869 0)
(0 0.000635552 0)
(0 0.000100803 0)
(0 0.00168204 0)
(0 0.00147487 0)
(0 0.000649141 0)
(0 0.00173971 0)
(0 0.000154079 0)
(0 4.03104e-05 0)
(0 0.000891434 0)
(0 0.000809334 0)
(0 0.000693747 0)
(0 0.00157745 0)
(0 0.000608243 0)
(0 0.000312614 0)
(0 0.000756335 0)
(0 0.00171563 0)
(0 0.000575149 0)
(0 0.00160912 0)
(0 0.000415287 0)
(0 0.000583167 0)
(0 0.000550989 0)
(0 0.000725847 0)
(0 0.00173608 0)
(0 0.000802095 0)
(0 0.000588603 0)
(0 0.00174244 0)
(0 0.00152715 0)
(0 0.00107356 0)
(0 0.000790031 0)
(0 0.00118592 0)
(0 4.9969e-05 0)
(0 0.000646139 0)
(0 0.000739303 0)
(0 0.000390358 0)
(0 0.00140634 0)
(0 0.000848317 0)
(0 0.000678305 0)
(0 0.00115945 0)
(0 0.000559233 0)
(0 0.00106149 0)
(0 0.000263464 0)
(0 0.000861052 0)
(0 0.000924009 0)
(0 0.000250738 0)
(0 0.000573122 0)
(0 0.000345751 0)
(0 0.000152382 0)
(0 0.000742915 0)
(0 0.00173602 0)
(0 1.92578e-05 0)
(0 0.00169149 0)
(0 0.00063185 0)
(0 0.00048527 0)
(0 0.00133122 0)
(0 0.000542978 0)
(0 0.00155783 0)
(0 0.00154714 0)
(0 0.000132006 0)
(0 0.000387764 0)
(0 0.000184116 0)
(0 0.000400405 0)
(0 0.00101722 0)
(0 0.000758202 0)
(0 0.00139791 0)
(0 0.000769775 0)
(0 9.38495e-06 0)
(0 0.000842423 0)
(0 0.000500892 0)
(0 0.00103667 0)
(0 4.30498e-05 0)
(0 0.000339561 0)
(0 0.000847475 0)
(0 0.00161707 0)
(0 0.000903345 0)
(0 0.00156306 0)
(0 0.000347609 0)
(0 0.00036229 0)
(0 0.00048127 0)
(0 0.00050679 0)
(0 0.00111384 0)
(0 0.00107694 0)
(0 0.000723179 0)
(0 0.000153399 0)
(0 0.000254389 0)
(0 0.000509643 0)
(0 0.00101536 0)
(0 0.000619185 0)
(0 0.000848082 0)
(0 0.000229009 0)
(0 0.00107009 0)
(0 0.00159015 0)
(0 0.000478659 0)
(0 0.000644087 0)
(0 9.54392e-05 0)
(0 0.00151783 0)
(0 0.000245493 0)
(0 0.00111146 0)
(0 0.000236415 0)
(0 0.000669201 0)
(0 0.000511336 0)
(0 0.000120052 0)
(0 0.000712345 0)
(0 0.00028082 0)
(0 0.000218523 0)
(0 0.00117285 0)
(0 0.00123992 0)
(0 0.00110673 0)
(0 1.16706e-06 0)
(0 0.00110738 0)
(0 0.00014874 0)
(0 0.00136366 0)
(0 0.00043886 0)
(0 0.000769372 0)
(0 0.000181172 0)
(0 0.000772514 0)
(0 0.000683169 0)
(0 0.000818461 0)
(0 0.000827653 0)
(0 0.000497913 0)
(0 0.000209826 0)
(0 0.00140801 0)
(0 0.00177273 0)
(0 0.00107119 0)
(0 0.000356311 0)
(0 0.000187113 0)
(0 0.00121271 0)
(0 4.93339e-05 0)
(0 0.00162179 0)
(0 0.00167168 0)
(0 0.001768 0)
(0 0.000648962 0)
(0 0.00165217 0)
(0 0.000335171 0)
(0 0.000698851 0)
(0 0.00170134 0)
(0 0.00136543 0)
(0 0.00138889 0)
(0 0.000294183 0)
(0 0.000544221 0)
(0 0.00160334 0)
(0 0.000903888 0)
(0 0.000671176 0)
(0 0.000525963 0)
(0 0.000550012 0)
(0 0.00012584 0)
(0 0.00170738 0)
(0 0.000454533 0)
(0 3.12076e-05 0)
(0 0.000340482 0)
(0 0.000753246 0)
(0 0.00118914 0)
(0 4.32968e-05 0)
(0 0.000421121 0)
(0 0.00145692 0)
(0 0.000176066 0)
(0 0.0015993 0)
(0 0.00118553 0)
(0 0.00103268 0)
(0 0.000997623 0)
(0 0.000600928 0)
(0 1.09631e-05 0)
(0 9.15579e-05 0)
(0 0.000993371 0)
(0 0.000645622 0)
(0 0.00171672 0)
(0 0.0011532 0)
(0 0.00141365 0)
(0 0.000445857 0)
(0 0.00109396 0)
(0 0.000959373 0)
(0 0.00161639 0)
(0 0.000929551 0)
(0 0.00120696 0)
(0 0.00010379 0)
(0 0.000972421 0)
(0 0.00165213 0)
(0 0.000488658 0)
(0 7.42157e-05 0)
(0 0.00100665 0)
(0 2.35368e-05 0)
(0 0.000209952 0)
(0 0.000347736 0)
(0 0.00152096 0)
(0 0.00100872 0)
(0 6.08981e-05 0)
(0 0.000954927 0)
(0 0.00164114 0)
(0 0.000904086 0)
(0 0.000144132 0)
(0 0.00120867 0)
(0 0.0010832 0)
(0 0.000870932 0)
(0 0.000348086 0)
(0 0.00128064 0)
(0 2.5266e-05 0)
(0 0.00142442 0)
(0 0.00137264 0)
(0 0.000306429 0)
(0 0.000236618 0)
(0 0.000310294 0)
(0 0.000590893 0)
(0 0.000161298 0)
(0 6.68475e-05 0)
(0 0.000545534 0)
(0 0.00178781 0)
(0 0.00146042 0)
(0 0.000444895 0)
(0 0.00106137 0)
(0 0.00108025 0)
(0 0.00049394 0)
(0 0.00034225 0)
(0 0.000671807 0)
(0 2.71246e-05 0)
(0 0.000437162 0)
(0 0.000512849 0)
(0 0.00139905 0)
(0 0.000453906 0)
(0 0.00175999 0)
(0 0.000279593 0)
(0 0.00134437 0)
(0 9.92565e-05 0)
(0 4.05306e-05 0)
(0 0.000407493 0)
(0 0.000628802 0)
(0 0.00123334 0)
(0 0.000359947 0)
(0 0.000114961 0)
(0 0.00155705 0)
(0 0.00127034 0)
(0 0.00106263 0)
(0 0.000563184 0)
(0 0.00105809 0)
(0 0.00105585 0)
(0 0.00107119 0)
(0 0.000602384 0)
(0 0.00109034 0)
(0 0.000888662 0)
(0 0.00110277 0)
(0 2.20936e-05 0)
(0 0.000836445 0)
(0 0.000308312 0)
(0 2.57799e-05 0)
(0 0.00166663 0)
(0 0.00136446 0)
(0 0.00161365 0)
(0 0.0014352 0)
(0 0.000445802 0)
(0 0.000634004 0)
(0 0.00119281 0)
(0 0.000987001 0)
(0 0.000337225 0)
(0 0.000859533 0)
(0 0.00065508 0)
(0 2.09992e-05 0)
(0 0.000383748 0)
(0 5.31515e-05 0)
(0 0.00131689 0)
(0 2.58692e-05 0)
(0 0.00178808 0)
(0 0.000454208 0)
(0 0.000759136 0)
(0 0.00167021 0)
(0 0.00102729 0)
(0 0.000316595 0)
(0 0.000801194 0)
(0 2.32299e-05 0)
(0 0.00101805 0)
(0 0.000551429 0)
(0 0.00115165 0)
(0 0.00139072 0)
(0 0.000901972 0)
(0 0.00119041 0)
(0 0.000977585 0)
(0 0.000518401 0)
(0 0.000929009 0)
(0 0.000337674 0)
(0 0.00149171 0)
(0 0.00136609 0)
(0 0.000793845 0)
(0 0.000201836 0)
(0 0.000521197 0)
(0 0.000613582 0)
(0 0.000311896 0)
(0 0.000883718 0)
(0 0.00119447 0)
(0 0.000458772 0)
(0 0.00110516 0)
(0 0.000188474 0)
(0 0.000515162 0)
(0 0.000672882 0)
(0 0.000133388 0)
(0 0.000494718 0)
(0 2.73387e-05 0)
(0 0.000262562 0)
(0 0.00105697 0)
(0 0.000577453 0)
(0 0.000190774 0)
(0 8.4792e-05 0)
(0 0.000761656 0)
(0 0.00107686 0)
(0 0.000600561 0)
(0 1.41783e-05 0)
(0 0.000686565 0)
(0 0.00114656 0)
(0 0.0016529 0)
(0 0.000937828 0)
(0 0.00123463 0)
(0 0.000167557 0)
(0 0.00174099 0)
(0 8.3793e-05 0)
(0 0.000515129 0)
(0 0.000256857 0)
(0 0.000725241 0)
(0 0.00064328 0)
(0 0.0003472 0)
(0 0.00141803 0)
(0 0.00173547 0)
(0 0.000551297 0)
(0 0.00177065 0)
(0 0.000535665 0)
(0 3.46274e-05 0)
(0 0.000383465 0)
(0 0.0017345 0)
(0 0.00114554 0)
(0 0.000496008 0)
(0 0.00031577 0)
(0 0.00163095 0)
(0 0.00100621 0)
(0 0.00154249 0)
(0 0.00125529 0)
(0 0.00159724 0)
(0 0.00168158 0)
(0 0.00148988 0)
(0 0.00106575 0)
(0 0.000972847 0)
(0 0.000280978 0)
(0 0.0010726 0)
(0 0.00164061 0)
(0 0.000617546 0)
(0 0.000584609 0)
(0 0.000121369 0)
(0 0.0015391 0)
(0 2.3614e-05 0)
(0 0.000670176 0)
(0 0.000632352 0)
(0 0.00116538 0)
(0 0.00124552 0)
(0 2.74134e-05 0)
(0 0.000860567 0)
(0 0.000590605 0)
(0 0.000472421 0)
(0 0.00143962 0)
(0 0.000846705 0)
(0 2.52157e-05 0)
(0 0.000599032 0)
(0 0.0010452 0)
(0 0.00128745 0)
(0 0.000726192 0)
(0 0.000340048 0)
(0 0.000682603 0)
(0 0.000716353 0)
(0 0.00162945 0)
(0 0.00139481 0)
(0 0.0012681 0)
(0 0.00139522 0)
(0 0.000649071 0)
(0 0.000333309 0)
(0 9.32255e-05 0)
(0 0.000332359 0)
(0 0.000768755 0)
(0 0.000236527 0)
(0 0.001286 0)
(0 8.51437e-05 0)
(0 0.00155874 0)
(0 0.00113729 0)
(0 0.000990158 0)
(0 0.00149084 0)
(0 0.000112357 0)
(0 0.000165763 0)
(0 0.00160457 0)
(0 0.00013833 0)
(0 0.000126169 0)
(0 0.0015081 0)
(0 0.000339207 0)
(0 0.00132943 0)
(0 0.00052377 0)
(0 0.00103489 0)
(0 0.000436891 0)
(0 0.00114012 0)
(0 0.00135408 0)
(0 0.000796154 0)
(0 0.000234186 0)
(0 0.000223698 0)
(0 0.000649912 0)
(0 0.000915323 0)
(0 0.000324069 0)
(0 0.000692569 0)
(0 0.000731491 0)
(0 2.80017e-05 0)
(0 0.000949315 0)
(0 0.000194232 0)
(0 0.000741486 0)
(0 0.000517474 0)
(0 0.00156859 0)
(0 0.000369056 0)
(0 0.000192715 0)
(0 0.000339761 0)
(0 0.001729 0)
(0 0.000102588 0)
(0 0.000193565 0)
(0 0.000147193 0)
(0 3.59395e-05 0)
(0 0.000554618 0)
(0 0.00179459 0)
(0 0.00173066 0)
(0 0.000636375 0)
(0 0.000377694 0)
(0 0.00169186 0)
(0 0.00119118 0)
(0 9.30733e-05 0)
(0 0.000361364 0)
(0 0.000938969 0)
(0 0.00155219 0)
(0 0.00046856 0)
(0 0.0001718 0)
(0 0.000470153 0)
(0 0.000742441 0)
(0 0.00116894 0)
(0 0.00148614 0)
(0 0.00116664 0)
(0 0.00129543 0)
(0 0.00157096 0)
(0 0.00141737 0)
(0 0.000513889 0)
(0 0.000925807 0)
(0 0.000341974 0)
(0 0.000333207 0)
(0 0.00152144 0)
(0 0.000305933 0)
(0 0.000714834 0)
(0 0.00112519 0)
(0 0.00145514 0)
(0 0.00157212 0)
(0 0.00134767 0)
(0 0.000388324 0)
(0 0.00032368 0)
(0 0.00121848 0)
(0 0.00135952 0)
(0 0.00135069 0)
(0 0.00120705 0)
(0 5.571e-05 0)
(0 0.000328925 0)
(0 0.00114892 0)
(0 0.000667381 0)
(0 0.000186731 0)
(0 0.00108077 0)
(0 0.000923588 0)
(0 0.000970764 0)
(0 0.000426603 0)
(0 0.0012563 0)
(0 0.000120946 0)
(0 0.00107707 0)
(0 0.00143617 0)
(0 0.000750736 0)
(0 9.5201e-05 0)
(0 0.000646927 0)
(0 0.00158723 0)
(0 0.000876761 0)
(0 0.000502274 0)
(0 0.000380985 0)
(0 0.00121555 0)
(0 0.00093382 0)
(0 0.00137093 0)
(0 0.00112654 0)
(0 1.9882e-05 0)
(0 0.00110411 0)
(0 0.00101798 0)
(0 0.00122097 0)
(0 0.00170043 0)
(0 0.000652765 0)
(0 0.00112069 0)
(0 0.000510321 0)
(0 0.000451508 0)
(0 0.00155091 0)
(0 0.00167201 0)
(0 0.000644457 0)
(0 0.000756887 0)
(0 0.00136015 0)
(0 0.00169368 0)
(0 0.000610376 0)
(0 0.000259106 0)
(0 0.000434306 0)
(0 0.00160151 0)
(0 0.000906723 0)
(0 0.000962197 0)
(0 0.00142102 0)
(0 0.000400433 0)
(0 0.000474174 0)
(0 0.000541626 0)
(0 0.00146698 0)
(0 0.000566873 0)
(0 0.00170092 0)
(0 0.000554113 0)
(0 0.000882503 0)
(0 0.000415137 0)
(0 0.00061369 0)
(0 0.000997574 0)
(0 0.000829244 0)
(0 0.000417476 0)
(0 2.66687e-05 0)
(0 0.000897778 0)
(0 0.001535 0)
(0 0.0013631 0)
(0 0.00114027 0)
(0 0.000613685 0)
(0 0.000861465 0)
(0 0.000523641 0)
(0 0.00112325 0)
(0 0.00139299 0)
(0 0.000484081 0)
(0 0.000672487 0)
(0 0.000933684 0)
(0 0.00106897 0)
(0 0.0011699 0)
(0 0.00123495 0)
(0 0.00146359 0)
(0 0.000101376 0)
(0 0.00131855 0)
(0 0.00124638 0)
(0 0.00137838 0)
(0 0.00176033 0)
(0 0.00108822 0)
(0 0.000721344 0)
(0 0.000273414 0)
(0 0.000441854 0)
(0 0.00118024 0)
(0 0.000239035 0)
(0 0.000661801 0)
(0 5.19675e-05 0)
(0 0.00147348 0)
(0 0.00102845 0)
(0 0.000788954 0)
(0 0.00153567 0)
(0 0.000619192 0)
(0 0.00119877 0)
(0 0.00125049 0)
(0 0.000464719 0)
(0 0.00151697 0)
(0 0.000401906 0)
(0 0.000362097 0)
(0 0.000494676 0)
(0 0.000169804 0)
(0 0.000869261 0)
(0 0.000315957 0)
(0 0.000777512 0)
(0 0.000794249 0)
(0 0.00174542 0)
(0 0.000882239 0)
(0 0.00073188 0)
(0 0.000167169 0)
(0 0.000682487 0)
(0 0.0013148 0)
(0 0.000597965 0)
(0 0.00175093 0)
(0 0.000228705 0)
(0 0.000309251 0)
(0 0.000530394 0)
(0 0.00031037 0)
(0 0.00099924 0)
(0 0.000941406 0)
(0 0.00172551 0)
(0 0.00138191 0)
(0 0.00122234 0)
(0 0.00177913 0)
(0 0.000379416 0)
(0 0.000856319 0)
(0 0.00102371 0)
(0 0.000716364 0)
(0 2.61447e-05 0)
(0 0.00061656 0)
(0 0.000117104 0)
(0 0.0006382 0)
(0 0.00138482 0)
(0 0.001067 0)
(0 0.000617419 0)
(0 0.00150426 0)
(0 0.00101868 0)
(0 0.00011055 0)
(0 0.00102712 0)
(0 0.000489374 0)
(0 0.000331873 0)
(0 0.00100848 0)
(0 0.00126242 0)
(0 0.000686587 0)
(0 0.000242704 0)
(0 0.00102471 0)
(0 0.000112348 0)
(0 0.000676936 0)
(0 0.00172237 0)
(0 0.000446431 0)
(0 0.000892702 0)
(0 3.01165e-05 0)
(0 0.000999087 0)
(0 0.00151399 0)
(0 0.000625322 0)
(0 0.00169557 0)
(0 0.000167693 0)
(0 0.000656518 0)
(0 0.000553068 0)
(0 0.00110027 0)
(0 0.000580923 0)
(0 0.000909138 0)
(0 0.000601316 0)
(0 0.00050199 0)
(0 5.19846e-05 0)
(0 4.71844e-05 0)
(0 0.000939502 0)
(0 0.00022257 0)
(0 0.000938255 0)
(0 0.000608744 0)
(0 0.000809149 0)
(0 0.000303282 0)
(0 0.00114728 0)
(0 0.000958925 0)
(0 0.00170469 0)
(0 0.000424932 0)
(0 0.00167916 0)
(0 9.69872e-05 0)
(0 0.00105114 0)
(0 0.00139184 0)
(0 0.00144059 0)
(0 0.000265863 0)
(0 0.00176425 0)
(0 0.000569475 0)
(0 0.00058849 0)
(0 0.000596059 0)
(0 0.00116899 0)
(0 0.000530534 0)
(0 0.00157901 0)
(0 0.00139587 0)
(0 0.000558285 0)
(0 0.00119827 0)
(0 0.00156419 0)
(0 0.000989707 0)
(0 0.00153828 0)
(0 0.000303646 0)
(0 0.000940632 0)
(0 0.00167877 0)
(0 0.000287338 0)
(0 0.000548913 0)
(0 0.000970099 0)
(0 0.000876731 0)
(0 1.29769e-05 0)
(0 0.000578578 0)
(0 0.000503306 0)
(0 0.000248905 0)
(0 0.00176584 0)
(0 0.000461431 0)
(0 0.00087029 0)
(0 0.000709732 0)
(0 0.00112959 0)
(0 0.00048221 0)
(0 0.00114478 0)
(0 0.00138079 0)
(0 0.000740171 0)
(0 0.00154979 0)
(0 0.0004223 0)
(0 0.000823119 0)
(0 0.000950772 0)
(0 0.00169108 0)
(0 0.00095428 0)
(0 0.000761968 0)
(0 0.000698364 0)
(0 0.000852937 0)
(0 0.00103261 0)
(0 0.000612224 0)
(0 0.00158397 0)
(0 0.000759623 0)
(0 0.000936692 0)
(0 0.00118392 0)
(0 0.00150773 0)
(0 0.00125981 0)
(0 0.00145525 0)
(0 8.51039e-05 0)
(0 0.000354955 0)
(0 0.00157387 0)
(0 0.00106863 0)
(0 0.00170674 0)
(0 0.000665716 0)
(0 0.000431022 0)
(0 0.000474193 0)
(0 0.000631638 0)
(0 0.00153338 0)
(0 0.000106206 0)
(0 0.00044226 0)
(0 0.0014595 0)
(0 0.000878301 0)
(0 0.000978518 0)
(0 0.000246608 0)
(0 0.00066974 0)
(0 0.00010924 0)
(0 0.000979248 0)
(0 0.00132877 0)
(0 0.000253142 0)
(0 0.0015693 0)
(0 0.000868281 0)
(0 0.000463113 0)
(0 0.000960187 0)
(0 0.00122103 0)
(0 0.00144406 0)
(0 0.000125835 0)
(0 0.000580269 0)
(0 0.000373808 0)
(0 0.000728108 0)
(0 0.000972281 0)
(0 0.000321481 0)
(0 0.000465094 0)
(0 0.000940793 0)
(0 0.00108504 0)
(0 0.000627709 0)
(0 0.00155273 0)
(0 6.55247e-05 0)
(0 0.00109547 0)
(0 0.00154069 0)
(0 0.00140061 0)
(0 6.68019e-05 0)
(0 0.000236257 0)
(0 0.00144016 0)
(0 0.000724865 0)
(0 0.000757301 0)
(0 0.000538436 0)
(0 0.000551047 0)
(0 0.000666393 0)
(0 0.00025086 0)
(0 0.00163611 0)
(0 7.18185e-05 0)
(0 0.0011943 0)
(0 0.000639313 0)
(0 0.000882212 0)
(0 0.00091062 0)
(0 0.000853587 0)
(0 0.000569666 0)
(0 0.000523385 0)
(0 0.00067307 0)
(0 0.0011759 0)
(0 0.000453546 0)
(0 5.12888e-05 0)
(0 0.00021677 0)
(0 0.000339601 0)
(0 0.000460422 0)
(0 0.00103385 0)
(0 0.000447373 0)
(0 0.000715387 0)
(0 0.000619579 0)
(0 0.000469613 0)
(0 0.000511272 0)
(0 7.53422e-05 0)
(0 0.00159093 0)
(0 0.000318779 0)
(0 0.00157238 0)
(0 0.000692565 0)
(0 0.000419942 0)
(0 0.000924799 0)
(0 0.000444504 0)
(0 0.000686769 0)
(0 0.000480851 0)
(0 0.00119889 0)
(0 0.00122235 0)
(0 0.000670771 0)
(0 0.00176516 0)
(0 0.000286474 0)
(0 0.00144049 0)
(0 0.000168581 0)
(0 0.00118365 0)
(0 0.000300615 0)
(0 0.00119552 0)
(0 0.000692341 0)
(0 1.7988e-05 0)
(0 0.00100171 0)
(0 0.000857477 0)
(0 0.000745878 0)
(0 0.00154674 0)
(0 0.000313106 0)
(0 0.000683423 0)
(0 0.00165886 0)
(0 0.000119083 0)
(0 0.000188699 0)
(0 0.000445 0)
(0 0.00147602 0)
(0 0.0012594 0)
(0 0.000772419 0)
(0 0.000513684 0)
(0 0.0011455 0)
(0 0.000640411 0)
(0 0.000579541 0)
(0 0.000214338 0)
(0 0.000930648 0)
(0 0.000296443 0)
(0 0.00137533 0)
(0 0.00167284 0)
(0 0.000485549 0)
(0 0.000442667 0)
(0 0.000413178 0)
(0 0.000448066 0)
(0 0.000647332 0)
(0 0.00111655 0)
(0 0.000308995 0)
(0 0.000363922 0)
(0 0.000846177 0)
(0 0.00068587 0)
(0 0.000513002 0)
(0 0.000727422 0)
(0 0.000402406 0)
(0 0.000475603 0)
(0 0.00151135 0)
(0 0.00098306 0)
(0 0.00148562 0)
(0 0.000466684 0)
(0 0.00096533 0)
(0 0.000245511 0)
(0 0.000464306 0)
(0 0.00088171 0)
(0 0.000677354 0)
(0 0.00041286 0)
(0 0.000901541 0)
(0 0.00153952 0)
(0 0.00129373 0)
(0 0.000585991 0)
(0 0.001142 0)
(0 0.000205438 0)
(0 0.000347964 0)
(0 0.000555062 0)
(0 0.00121453 0)
(0 0.000312079 0)
(0 0.00109301 0)
(0 0.000542422 0)
(0 4.57434e-05 0)
(0 0.000804461 0)
(0 0.000865775 0)
(0 0.000625736 0)
(0 0.00155022 0)
(0 0.00116357 0)
(0 0.00176011 0)
(0 0.00036865 0)
(0 0.000258839 0)
(0 0.000681676 0)
(0 0.000421725 0)
(0 0.000665964 0)
(0 0.000551436 0)
(0 0.000637247 0)
(0 9.68607e-05 0)
(0 0.000302057 0)
(0 0.00076886 0)
(0 0.00039569 0)
(0 0.000829491 0)
(0 0.000930271 0)
(0 0.00100657 0)
(0 0.000492974 0)
(0 0.00100071 0)
(0 0.000385048 0)
(0 0.000255598 0)
(0 4.86473e-05 0)
(0 0.000605301 0)
(0 0.000645102 0)
(0 0.00040636 0)
(0 0.00142087 0)
(0 0.000950668 0)
(0 0.000483262 0)
(0 0.00052993 0)
(0 0.00119276 0)
(0 4.1684e-05 0)
(0 0.00048189 0)
(0 0.00126398 0)
(0 0.000876734 0)
(0 0.00169705 0)
(0 0.000850613 0)
(0 0.000337822 0)
(0 8.02151e-05 0)
(0 0.00145538 0)
(0 0.00157532 0)
(0 0.000816015 0)
(0 0.00116638 0)
(0 0.00124046 0)
(0 0.000914015 0)
(0 0.00101811 0)
(0 0.000634077 0)
(0 0.00103148 0)
(0 0.00152466 0)
(0 0.000639543 0)
(0 0.000321153 0)
(0 0.000482762 0)
(0 0.000387329 0)
(0 0.000560714 0)
(0 0.000428249 0)
(0 0.000878061 0)
(0 0.000353115 0)
(0 0.000695826 0)
(0 0.000894817 0)
(0 0.000596032 0)
(0 0.000531359 0)
(0 0.000685252 0)
(0 0.000435778 0)
(0 0.000683258 0)
(0 0.00159154 0)
(0 0.000222866 0)
(0 0.000706321 0)
(0 0.000569746 0)
(0 0.000699717 0)
(0 0.000367015 0)
(0 1.5944e-05 0)
(0 0.00153637 0)
(0 0.000332159 0)
(0 0.000236586 0)
(0 0.000330516 0)
(0 0.000399908 0)
(0 0.000851348 0)
(0 0.000242653 0)
(0 0.00100972 0)
(0 0.000513084 0)
(0 0.000764256 0)
(0 0.000127684 0)
(0 0.00148979 0)
(0 0.000371553 0)
(0 0.000284275 0)
(0 0.000465242 0)
(0 0.000585566 0)
(0 0.000452015 0)
(0 0.000481864 0)
(0 0.000386305 0)
(0 0.00058503 0)
(0 0.00148892 0)
(0 0.000222798 0)
(0 0.00103067 0)
(0 5.13594e-05 0)
(0 0.000568439 0)
(0 0.00131472 0)
(0 0.000482139 0)
(0 0.000378231 0)
(0 0.0008685 0)
(0 0.00152193 0)
(0 0.000702025 0)
(0 0.000365012 0)
(0 0.00156427 0)
(0 0.000447886 0)
(0 7.46468e-05 0)
(0 0.00170095 0)
(0 0.000179266 0)
(0 0.000896635 0)
(0 0.000127856 0)
(0 0.000194596 0)
(0 0.000451563 0)
(0 0.000466965 0)
(0 0.000114944 0)
(0 0.000656771 0)
(0 0.0015606 0)
(0 0.00115597 0)
(0 0.000718967 0)
(0 0.000330239 0)
(0 0.000333809 0)
(0 0.00147443 0)
(0 0.000366588 0)
(0 0.000654636 0)
(0 0.00149952 0)
(0 0.000612334 0)
(0 0.00047157 0)
(0 0.000374321 0)
(0 0.000191432 0)
(0 0.00147904 0)
(0 0.0010481 0)
(0 0.000353813 0)
(0 0.00153273 0)
(0 0.00129411 0)
(0 0.000520975 0)
(0 0.00147018 0)
(0 0.00140324 0)
(0 0.00128886 0)
(0 2.56815e-05 0)
(0 1.8894e-05 0)
(0 0.000762639 0)
(0 0.000846449 0)
(0 0.00111939 0)
(0 0.000575855 0)
(0 0.000416186 0)
(0 0.000591895 0)
(0 0.000503305 0)
(0 0.000450415 0)
(0 0.000526352 0)
(0 0.00155015 0)
(0 0.000433441 0)
(0 0.000498921 0)
(0 0.00156532 0)
(0 0.00160983 0)
(0 0.00104936 0)
(0 0.00148159 0)
(0 0.000380493 0)
(0 0.00154741 0)
(0 0.000904896 0)
(0 0.000493931 0)
(0 0.000758364 0)
(0 0.000513849 0)
(0 0.00122042 0)
(0 0.00102866 0)
(0 0.000687888 0)
(0 0.000276328 0)
(0 0.000975245 0)
(0 9.90753e-05 0)
(0 0.000806968 0)
(0 0.00160163 0)
(0 0.000350842 0)
(0 0.00149159 0)
(0 0.000521062 0)
(0 2.25008e-05 0)
(0 0.000445166 0)
(0 0.00159154 0)
(0 0.000484844 0)
(0 0.00023097 0)
(0 0.00059558 0)
(0 0.000468554 0)
(0 0.00106513 0)
(0 2.73419e-05 0)
(0 0.000470491 0)
(0 0.000513773 0)
(0 0.00116319 0)
(0 0.00140903 0)
(0 0.00162741 0)
(0 2.34979e-05 0)
(0 0.000644454 0)
(0 4.07663e-05 0)
(0 0.00067906 0)
(0 0.000555107 0)
(0 0.000421447 0)
(0 0.00106122 0)
(0 2.11284e-05 0)
(0 0.000679922 0)
(0 0.000441138 0)
(0 0.000601183 0)
(0 0.000495367 0)
(0 0.000567621 0)
(0 0.000487381 0)
(0 0.00121583 0)
(0 0.000715274 0)
(0 0.000514033 0)
(0 0.000503872 0)
(0 0.00122504 0)
(0 9.92737e-05 0)
(0 0.000725216 0)
(0 0.00063059 0)
(0 0.000612207 0)
(0 0.000880312 0)
(0 0.000452164 0)
(0 0.0014552 0)
(0 0.000272505 0)
(0 0.000592276 0)
(0 0.0005651 0)
(0 3.66949e-05 0)
(0 0.000848366 0)
(0 0.000100965 0)
(0 0.000635492 0)
(0 0.000546033 0)
(0 0.000519455 0)
(0 0.000415448 0)
(0 0.000567787 0)
(0 0.000413268 0)
(0 0.0010901 0)
(0 0.00057488 0)
(0 0.00118022 0)
(0 0.00123167 0)
(0 0.00144671 0)
(0 0.000576249 0)
(0 0.000623826 0)
(0 0.000402609 0)
(0 0.000656823 0)
(0 0.000566017 0)
(0 0.000124321 0)
(0 0.000990622 0)
(0 0.000485575 0)
(0 0.000879449 0)
(0 0.000596089 0)
(0 0.000124644 0)
(0 0.00128469 0)
(0 0.000117676 0)
(0 0.000514926 0)
(0 0.000432806 0)
(0 0.000607387 0)
(0 0.000423306 0)
(0 0.000408646 0)
(0 0.000656417 0)
(0 0.000423539 0)
(0 0.000586379 0)
(0 0.00126006 0)
(0 0.000965651 0)
(0 0.00064094 0)
(0 0.000369854 0)
(0 0.000645477 0)
(0 5.09564e-05 0)
(0 0.000584264 0)
(0 0.000581094 0)
(0 0.00141842 0)
(0 0.00102638 0)
(0 0.000973984 0)
(0 0.000192764 0)
(0 0.000535457 0)
(0 0.00122618 0)
(0 2.59296e-05 0)
(0 0.000349369 0)
(0 0.000334542 0)
(0 0.00130091 0)
(0 0.000453389 0)
(0 0.000652582 0)
(0 0.000646574 0)
(0 0.000439726 0)
(0 0.00123785 0)
(0 0.00111804 0)
(0 0.000422657 0)
(0 0.000366419 0)
(0 3.86146e-05 0)
(0 0.00143462 0)
(0 0.00145352 0)
(0 0.000454736 0)
(0 0.00074443 0)
(0 0.000382069 0)
(0 0.000388506 0)
(0 0.000494358 0)
(0 0.000355557 0)
(0 0.00051645 0)
(0 0.000560916 0)
(0 0.000373515 0)
(0 0.00159917 0)
(0 0.000623735 0)
(0 0.000562027 0)
(0 0.000492465 0)
(0 0.000351208 0)
(0 0.000468715 0)
(0 0.000734148 0)
(0 0.0012132 0)
(0 0.000679532 0)
(0 0.000454084 0)
(0 0.000490612 0)
(0 0.000353331 0)
(0 0.000833796 0)
(0 0.000577812 0)
(0 0.00132005 0)
(0 0.000477474 0)
(0 0.000505413 0)
(0 0.000427478 0)
(0 0.00152391 0)
(0 0.000285612 0)
(0 0.000665268 0)
(0 0.000336181 0)
(0 0.000431626 0)
(0 0.000413649 0)
(0 9.35582e-05 0)
(0 0.000719098 0)
(0 0.00147783 0)
(0 0.00142126 0)
(0 0.000327742 0)
(0 0.000969307 0)
(0 0.000212559 0)
(0 0.00162595 0)