/*--------------------------------*- C++ -*----------------------------------*\
| =========                 |                                                 |
| \\      /  F ield         | OpenFOAM: The Open Source CFD Toolbox           |
|  \\    /   O peration     | Version:  v2012                                 |
|   \\  /    A nd           | Website:  www.openfoam.com                      |
|    \\/     M anipulation  |                                                 |
\*---------------------------------------------------------------------------*/
FoamFile
{
    version     2.0;
    format      ascii;
    class       volScalarField;
    location    "250";
    object      ddt0(k);
}
// * * * * * * * * * * * * * * * * * * * * * * * * * * * * * * * * * * * * * //

dimensions      [0 2 -3 0 0 0 0];


internalField   nonuniform List<scalar> 
10042
(
-0.000209788
0.00711555
1.27971e-06
-5.78991e-08
-2.23264e-07
-0.00412712
-0.028722
-0.000742786
-4.17173e-09
6.66862e-06
0.00169069
0.00806437
8.51005e-07
6.60397e-07
-6.70401e-08
6.90558e-07
-0.00366913
0.00192536
1.15575e-07
-1.22011e-06
8.69148e-07
3.78444e-07
-1.60635e-07
0.00268237
-3.68495e-08
1.21093e-07
4.21573e-06
-3.68836e-10
-0.00414817
-0.00142413
-1.76185e-07
8.51813e-07
-5.11849e-08
-8.10649e-08
-0.00130551
-0.00179953
-2.04743e-07
-4.75441e-08
-2.05493e-07
2.04978e-06
-0.000602653
-4.5595e-08
-1.87113e-06
0.0106224
-1.02581e-07
6.53875e-08
-2.26117e-08
-9.87692e-09
-1.66907e-06
-0.000285686
-3.6285e-06
-1.27192e-07
-0.00369304
1.13979e-07
0.000527573
-0.0356978
8.40232e-07
0.000310261
-4.1356e-07
1.58002e-08
2.15481e-06
0.0039453
-3.47933e-06
-0.000258636
1.60812e-05
5.57301e-07
-1.08135e-06
-0.000258207
-2.9346e-08
-0.000363965
2.86112e-06
-1.13493e-06
-6.40923e-08
-3.81019e-07
4.09005e-07
-1.43088e-06
0.000161008
-2.51448e-08
0.000206622
1.2424e-07
0.0193024
-0.000124908
-2.44966e-07
-4.54949e-08
3.0066e-07
-0.00341043
-9.56235e-07
9.46633e-07
-2.74898e-07
3.86642e-05
5.02127e-07
-6.98133e-08
-5.38663e-06
-0.0118429
-1.12334e-05
-8.31855e-08
0.00827133
-1.09706e-06
0.00583479
-2.72328e-07
4.8461e-07
0.000144699
-8.48352e-07
8.30596e-07
2.32242e-07
-4.0455e-07
-0.0130392
3.34725e-07
-0.0422959
-5.47287e-07
-3.03749e-07
-0.0297332
0.000100566
-0.000881624
7.1919e-06
-1.53646e-08
3.13727e-05
-1.90106e-07
0.000148242
-2.11609e-09
1.41837e-08
0.00256575
0.0021006
-1.55686e-08
6.40972e-05
-4.37423e-07
-5.71516e-07
0.000585533
-2.52583e-07
4.95596e-05
-6.15621e-08
1.56737e-07
-6.99104e-07
3.1794e-07
-0.0325245
1.28827e-05
-8.0167e-07
-0.0171765
8.95244e-09
0.00793424
1.46002e-06
-6.37019e-08
-0.0110095
2.47181e-10
2.3536e-07
-3.38712e-08
-1.98587e-06
-2.76898e-08
-1.11367e-06
0.00208916
3.01349e-07
-1.09602e-07
1.81494e-07
8.7954e-07
-1.87098e-05
2.01372e-07
4.06341e-08
-0.020652
-6.84991e-07
9.60605e-08
-3.15753e-08
7.33886e-07
0.000225056
-4.10541e-07
-7.00168e-08
0.00116691
-8.22254e-08
8.60756e-07
-0.00161438
-8.36848e-08
-1.43086e-06
-0.00178486
0.000225053
-8.75624e-08
1.23592e-07
0.000700237
-4.66778e-08
-2.96439e-08
6.88545e-08
-3.70627e-08
-3.52917e-08
1.38742e-07
-3.63272e-07
1.33412e-08
0.000172141
5.64333e-07
-1.11949e-06
2.81567e-08
3.63892e-05
4.39839e-08
0.0122092
8.41462e-07
-1.05173e-07
1.77667e-07
0.000295924
-5.39269e-08
-2.42811e-06
7.85867e-05
0.0212044
-5.03748e-08
-6.23311e-07
-5.41184e-07
-0.00741889
5.29597e-08
0.00638581
-6.38943e-07
0.00309205
8.45584e-07
-2.01679e-07
3.24113e-07
9.14323e-07
3.42198e-08
-0.00538081
-0.000918657
-2.55976e-07
-0.000324601
-2.0541e-09
-1.33957e-05
-7.1311e-08
-1.46018e-06
0.000209903
3.08806e-06
0.00016301
-0.000423745
-1.10711e-08
2.1787e-06
-7.64203e-07
-7.11692e-07
-2.21869e-06
-8.31114e-07
-4.12004e-08
-6.01375e-07
5.68991e-07
-2.24369e-07
-7.08185e-08
-0.000999015
-5.98078e-07
0.0118477
2.76529e-07
0.00306984
0.000686593
-0.0022998
8.07296e-09
1.30436e-06
0.00079426
-2.15504e-07
-0.00213395
-1.91252e-08
2.30383e-07
-1.78722e-07
1.85133e-07
-1.04578e-07
-0.00383406
0.000239756
-1.02503e-06
-4.36523e-07
1.49e-07
-9.53622e-07
0.00567452
-5.44668e-08
5.2413e-05
-7.86245e-08
-1.23099e-07
-2.36058e-08
7.91545e-07
-0.000878979
2.58975e-05
-0.00281128
2.33346e-08
-5.78243e-07
7.01383e-08
6.43142e-05
2.89353e-07
1.69789e-06
-7.62112e-07
5.95733e-05
1.08288e-07
-1.28789e-07
4.60647e-08
0.000106667
-2.40438e-08
-0.00498577
5.07889e-06
-3.36636e-08
-7.77426e-07
0.00721311
-9.1751e-05
-5.95214e-08
0.000534302
-1.36701e-07
7.62051e-07
8.73328e-06
-4.06161e-07
-0.00513495
1.93175e-05
6.36589e-07
0.00487166
-6.89414e-07
5.51885e-08
-6.95883e-10
1.03221e-07
-0.00809044
2.95011e-08
6.86405e-05
-7.67345e-05
0.00367617
4.69582e-07
-5.52208e-06
0.00820688
-0.00521126
-1.4976e-07
2.48375e-07
-1.55757e-07
6.45694e-07
8.00435e-06
0.000593819
-2.63806e-08
7.87918e-05
0.00239846
-1.0508e-08
-1.70821e-07
-3.66825e-05
3.80637e-05
0.000727676
0.000221855
-2.90421e-07
2.50803e-05
2.00738e-08
-6.06955e-07
6.76969e-07
-6.5432e-07
-9.13772e-08
6.25662e-05
-1.41511e-07
0.00328421
0.000245637
-0.0190339
0.000520347
-1.51211e-07
0.000393971
2.00203e-06
9.71904e-07
1.0078e-08
-1.63062e-06
2.27449e-08
-3.47608e-08
1.57157e-07
-1.00711e-07
-2.24087e-07
0.0145953
1.26815e-07
1.651e-05
-2.02198e-07
-5.49137e-07
0.001927
4.86042e-05
-7.96304e-07
-2.22505e-07
-4.55206e-06
-3.15014e-07
-3.2226e-07
-2.58969e-07
-1.49292e-07
0.00129513
-0.000274678
-3.35748e-09
-5.78398e-08
6.35518e-07
-1.14609e-07
0.00112313
2.21592e-08
-2.33084e-08
3.1185e-07
1.49215e-07
-0.0013505
3.39283e-07
5.99424e-05
-0.0110294
-0.0101276
0.000547997
-2.25544e-07
-0.00871771
-3.96971e-06
-5.52631e-09
7.61e-07
-1.4316e-08
-9.8743e-08
2.49798e-08
-2.32594e-07
-3.61914e-08
-7.64304e-07
-0.00417894
1.00419e-07
2.40206e-06
-0.00293147
-0.000472486
-1.14255e-07
-0.00106567
-6.76248e-07
8.64823e-07
-1.1336e-07
0.00121655
-2.42995e-06
0.00120304
0.00612845
-4.49666e-07
1.91326e-06
-2.52014e-06
0.000644178
-5.68551e-07
-0.00599757
3.73081e-07
-0.00359642
1.4557e-07
0.000720522
5.41364e-07
2.59674e-07
0.00106345
-2.34239e-08
8.19687e-07
-1.71561e-07
-0.00551113
-6.26002e-08
2.04869e-08
2.43811e-06
-8.36853e-08
-7.03531e-07
-0.00603829
-5.00102e-08
9.46491e-07
7.69455e-08
-3.62834e-08
4.76652e-07
-0.0013922
-2.67778e-06
-1.33712e-07
0.00277426
9.9671e-05
-2.11189e-07
-0.0416047
4.68265e-09
4.74912e-06
-5.34878e-07
-0.000151258
7.71264e-05
0.000321405
0.000619358
0.000133393
-0.000423048
2.35235e-08
3.5499e-05
0.00214203
0.00156344
8.06518e-07
-2.37986e-07
1.88829e-07
1.34278e-05
-0.0250366
1.95158e-08
-1.18439e-06
-2.11228e-07
-1.81531e-07
-3.78237e-07
-6.22423e-07
-3.88884e-07
-2.55641e-07
-0.000203996
6.46473e-09
7.3717e-06
-2.61972e-05
0.000415488
1.9105e-08
0.000609386
-0.00886907
0.00253278
-1.05764e-07
3.56385e-07
-1.6408e-07
-0.00666689
2.43728e-08
4.18824e-05
1.22383e-07
0.00629598
-6.5787e-08
2.01482e-07
-1.34776e-06
2.39946e-05
0.00130265
-1.58836e-07
-2.63506e-08
2.76804e-07
0.0149976
-8.10171e-08
4.19815e-05
9.36183e-07
2.76688e-06
-1.35941e-07
7.32887e-05
-0.00422811
-0.0352441
-1.98552e-07
3.3016e-08
-0.00452579
0.00979726
2.9265e-07
-0.000744924
1.4766e-08
4.39567e-05
-1.59539e-06
-1.05744e-06
-2.23709e-07
0.00370012
-7.12978e-09
-1.96329e-07
-5.58421e-07
-0.00468972
1.02876e-07
-0.00013195
7.97152e-08
-1.32112e-07
4.11733e-08
2.65804e-07
0.000362628
-7.75729e-07
-2.24553e-07
0.00238847
0.000108614
1.77444e-07
-7.14588e-07
2.17232e-07
1.52619e-05
-0.0439007
-2.28266e-07
-1.18087e-07
6.13008e-07
-6.70011e-08
-2.64817e-07
0.000957828
-5.68342e-08
0.00119632
-5.83526e-08
1.33569e-07
-2.06613e-05
0.00146573
1.13146e-07
4.20743e-07
-1.03826e-09
-6.60819e-08
0.00213733
5.19628e-09
-0.0020412
4.61553e-07
-3.05742e-08
1.20376e-05
-0.0283148
-3.17541e-05
-4.3603e-05
-1.95305e-07
-1.16322e-07
-1.26503e-08
-5.49711e-07
1.48318e-05
-5.50274e-07
0.00149455
-2.1992e-07
4.27616e-08
0.0275457
2.32469e-07
1.81567e-05
-2.67537e-07
-1.52209e-07
0.0245442
0.00160458
-8.55357e-06
0.00293157
6.59737e-08
4.89004e-07
-1.93617e-07
-1.26277e-08
2.8718e-07
2.55753e-07
-2.68544e-07
5.67346e-08
0.00712687
7.21592e-08
0.00237127
-8.99749e-09
-1.85057e-05
-2.77009e-08
3.61345e-06
0.000102783
-2.07089e-08
-9.66377e-08
8.1019e-05
4.66314e-05
-2.36315e-08
-0.00509951
-3.00874e-08
6.56658e-05
-4.47677e-08
-2.03745e-07
-1.04909e-07
1.89572e-07
-2.65081e-08
-3.26246e-07
4.36649e-07
-0.000496001
2.27452e-07
2.96011e-07
3.42674e-08
3.33735e-06
-1.72536e-07
-1.2542e-07
-5.29837e-08
-7.5635e-08
4.96448e-08
-3.97341e-08
-9.17051e-06
-2.06332e-07
0.0046746
0.0106965
0.00925303
-5.44874e-07
2.61323e-07
-6.65136e-08
0.000119071
-5.45535e-07
0.00208515
-0.000685467
0.009895
0.000322826
-0.00117934
1.19731e-07
-1.84596e-07
-0.00238369
2.07177e-06
3.1338e-05
8.15255e-07
-1.16268e-07
0.00178158
-9.2932e-08
-2.05385e-07
-4.76176e-08
-6.75076e-08
3.95722e-08
-0.00258132
-2.19215e-08
6.47725e-08
-0.000613324
-2.81338e-07
0.000227112
6.47278e-07
-8.63531e-08
7.44329e-06
2.14604e-08
0.00259027
-3.59744e-08
6.8199e-08
0.000300866
-1.49316e-07
3.63088e-08
-1.51131e-07
-1.45809e-07
-1.37528e-08
0.0063171
0.00219237
0.00477979
-2.20949e-08
-3.09536e-07
-9.44831e-08
0.00165689
-1.16625e-06
3.40276e-07
-1.50682e-08
1.31025e-07
-0.000449628
-0.00811262
-0.000275827
-8.30448e-07
1.6425e-08
0.000364944
4.73735e-07
3.209e-06
-1.60949e-07
0.000235309
0.00173316
7.66273e-05
-1.00235e-07
-6.22404e-08
-1.94141e-08
-0.00012378
-1.88386e-07
3.26987e-07
-5.10652e-07
1.08318e-08
6.47392e-06
-7.72425e-07
-1.71559e-06
5.95371e-05
-7.08695e-08
-1.13208e-07
1.23888e-08
0.000382182
-6.8878e-08
-0.0067122
5.91773e-07
0.000329505
-3.13996e-07
2.90898e-07
-2.03748e-08
-1.90771e-07
-1.69278e-07
4.03581e-08
2.726e-08
3.02887e-08
1.19556e-05
1.31751e-07
0.00731734
1.0396e-07
2.04711e-06
0.00127845
-5.87587e-07
-0.0163424
-3.34352e-08
-1.10229e-07
-3.47864e-06
-2.03645e-07
0.00239533
-4.79842e-07
-4.15902e-07
5.23198e-08
8.33612e-05
1.97811e-07
-0.00013121
1.15191e-06
-3.03824e-07
0.000302034
-0.000677803
8.65078e-07
-5.80878e-08
5.10317e-07
-2.97441e-08
-0.00755608
4.31514e-06
0.000201051
3.62211e-05
-8.22531e-10
-1.92456e-07
5.16248e-07
-1.80547e-06
4.32198e-06
0.000552932
0.00441081
2.35585e-09
-2.47189e-06
-7.1335e-07
-2.80943e-07
-1.10478e-08
-0.00566934
-2.46447e-08
-2.16104e-07
-0.00144996
-2.16015e-07
9.37979e-07
-6.05915e-07
-2.73035e-09
0.0008342
-2.57084e-06
-3.00745e-07
-9.65573e-07
-2.26657e-06
4.78708e-07
0.00153964
-6.93584e-09
-2.25965e-06
3.85177e-07
0.000314293
-9.0552e-07
-7.33559e-07
-3.69767e-06
-4.72705e-08
8.59751e-07
5.3212e-10
-1.25714e-06
-3.20778e-07
1.24409e-07
4.52964e-07
-6.93761e-08
8.49698e-08
9.35243e-07
-1.95447e-07
-1.00484e-07
0.000244779
2.98046e-08
-2.90671e-07
1.9233e-08
1.38864e-08
-0.000459544
-4.23676e-06
-8.5192e-07
3.32256e-05
-1.44989e-05
-1.59011e-07
5.9577e-05
-0.010516
9.45409e-08
-5.6702e-07
1.0984e-08
0.001462
0.0006686
1.92543e-07
-5.17387e-08
-3.61415e-07
-0.0407461
-0.00178319
-9.26764e-07
0.0018205
0.00020677
0.0069866
-2.77624e-06
6.84493e-08
-9.91802e-07
0.0095004
7.01791e-05
1.0425e-07
0.000164879
0.000600183
0.000810735
0.00128383
-1.16337e-07
5.78079e-05
-0.00462693
1.31076e-07
-0.000843316
-1.7916e-06
0.00515984
-7.89047e-07
0.000636145
-1.57811e-07
1.72841e-05
-1.68074e-07
-2.94697e-06
3.16082e-08
-2.14521e-07
-1.12142e-07
-0.0149089
-6.02246e-07
1.33221e-08
0.0149731
-1.20341e-07
4.22586e-07
-1.32513e-06
0.000373583
1.45536e-07
-1.93234e-07
-3.52188e-08
-7.14904e-07
-2.74261e-07
3.81755e-07
-7.77886e-08
0.00898675
0.000469362
-6.9857e-07
-5.73295e-07
0.00384937
-6.35075e-08
1.00808e-06
0.000437058
9.34227e-06
-2.01137e-07
-2.24394e-08
-7.47037e-07
-1.90666e-07
-2.71772e-05
-5.09615e-07
-1.21134e-07
8.96082e-05
-8.93037e-09
-1.46609e-07
0.00345935
-1.80972e-08
-8.87168e-08
5.04193e-05
-5.26519e-08
4.07409e-05
3.60609e-10
-1.91853e-05
5.38426e-07
-8.5779e-07
1.61731e-05
-1.90638e-07
-0.000805885
-0.00055878
-9.62895e-08
-1.74161e-06
-1.9387e-06
0.00697001
-0.0306326
-3.69338e-08
-1.49152e-07
7.05281e-06
-3.2227e-07
-2.00729e-06
-0.000385344
2.49651e-07
4.2828e-09
7.27896e-07
0.00182137
0.00128537
-1.54838e-08
4.24315e-09
4.50047e-09
-1.90263e-07
-0.00344917
0.00965964
7.98129e-08
3.12333e-07
0.00255627
5.42118e-07
-6.62728e-08
-0.000375747
-1.35165e-06
-0.00204641
-2.47521e-06
4.92488e-08
-3.81647e-08
-3.65374e-06
2.41943e-05
1.11919e-06
3.70916e-07
0.00125951
-9.90022e-06
0.000869511
1.81995e-07
-1.27301e-06
-0.000163002
8.80483e-07
-9.76453e-05
6.3551e-07
-1.80662e-07
-3.43842e-08
0.000596644
-5.83405e-06
7.17216e-07
2.50342e-07
8.43943e-07
-3.28969e-07
6.46133e-07
7.49786e-07
-4.65898e-07
-1.72475e-07
7.87432e-07
-2.85691e-07
-1.11874e-07
0.0275005
2.57337e-07
-1.51456e-07
-1.09955e-07
3.70236e-07
0.00347619
-1.6963e-07
-3.88833e-07
0.00106617
-6.19011e-07
-1.11492e-07
7.19628e-07
0.000794201
-3.2786e-08
1.3378e-08
3.46132e-07
3.9498e-05
5.55422e-09
-8.40976e-07
-9.71425e-08
4.58749e-07
4.63405e-07
0.000266243
6.09052e-07
-0.00133794
-2.03436e-07
-1.19378e-06
-5.70938e-07
4.94341e-08
-3.20241e-06
-0.0025854
-0.018809
-2.23411e-07
2.36082e-07
0.00456806
0.000597667
-2.20586e-05
-9.55202e-08
0.000767812
-6.93511e-08
-7.88175e-06
2.05824e-06
-2.16714e-06
2.28774e-07
-8.97811e-08
-4.33298e-06
-0.0111079
-0.00172215
-2.60471e-07
-9.97121e-07
4.50668e-07
0.000333172
1.89122e-07
3.55659e-08
8.05865e-07
3.22872e-08
7.45189e-08
-0.000997988
-9.48443e-07
-0.0135157
-3.63008e-08
6.34051e-09
-1.68452e-07
-1.36672e-06
-9.07307e-07
-2.16036e-06
-0.0123715
1.15704e-07
-1.74576e-07
-0.015377
-5.53531e-07
-3.84649e-06
-1.21802e-07
6.69865e-05
0.0029501
1.90407e-07
0.00321824
-1.23791e-06
-2.32476e-07
4.64919e-06
-1.18551e-07
-3.8275e-07
-4.00321e-08
-1.02046e-07
-1.06723e-08
0.000573714
2.65616e-06
-0.0012894
0.00053552
7.48474e-05
4.70586e-07
0.00306125
1.2674e-07
-0.00143959
-7.47449e-08
5.00367e-07
-1.0625e-07
-1.61351e-07
-9.70359e-07
-0.00813138
-0.00184698
-1.70293e-07
0.00866106
-1.15041e-07
-0.021599
5.48102e-08
-8.34066e-08
2.80692e-06
0.000255542
0.0105678
-1.43668e-08
-2.09709e-08
-0.0119263
4.39314e-07
4.69717e-06
-2.14673e-06
0.00601112
-8.00245e-07
0.000122849
-0.00497068
-1.48462e-07
1.19787e-07
-1.91927e-07
-1.81149e-08
1.44154e-07
-2.53018e-07
-9.63814e-08
-9.45469e-07
-7.57699e-07
-3.07573e-07
-1.0412e-06
-0.000836325
9.5642e-05
-3.87973e-08
0.00864183
2.09729e-07
8.80652e-07
-2.3247e-06
2.67843e-06
-6.06e-08
9.13192e-07
-6.80297e-06
-4.99347e-09
2.59324e-06
0.00855813
-6.51842e-08
1.01247e-07
-5.04187e-08
0.000859279
-0.000762051
1.14767e-07
0.000343413
-1.71903e-07
-3.43879e-07
-0.0398444
4.4111e-07
-9.56734e-07
-1.67411e-07
-1.03525e-06
-2.65504e-06
0.000286414
-3.18114e-07
-3.1826e-07
-1.66444e-07
-4.59833e-07
2.54373e-08
-0.000116242
-5.47155e-08
-1.26015e-06
-0.00120148
0.00733971
-2.19998e-07
-0.00261155
-1.47294e-08
0.0085243
6.95008e-07
-2.2508e-06
2.09372e-08
0.000625925
-0.0411729
-0.0085895
-1.05454e-07
0.000127233
0.00167326
0.00170922
-8.63245e-07
0.0015754
-3.63291e-07
0.00186085
0.00113005
4.97102e-06
-3.02278e-06
0.00165852
0.000738321
0.00081534
-1.60397e-06
0.00146296
2.15222e-07
2.00808e-07
0.00145051
-4.43404e-06
-1.6333e-07
0.00474367
-1.25884e-07
-1.92112e-07
-2.24004e-08
2.2389e-05
-1.64253e-06
-1.4477e-06
6.73877e-06
-1.42583e-07
0.00155829
1.15684e-07
-2.69642e-08
-5.48944e-07
0.000685163
0.000850044
-3.33659e-07
-0.00156829
-9.02655e-07
-9.67877e-07
6.71627e-07
-0.000184437
-7.49403e-08
-2.679e-07
0.000585233
2.92918e-05
1.59876e-07
-6.61066e-06
-5.69654e-08
7.28425e-07
1.3458e-05
4.59887e-07
0.00707644
-0.000674293
-1.02296e-07
3.31462e-08
-7.347e-08
0.000845549
-1.82609e-07
-4.26765e-05
-0.000994455
-4.30745e-08
-4.82707e-07
5.26425e-09
7.00835e-07
3.3519e-09
6.23159e-06
8.03314e-07
-1.52459e-05
-0.00356743
-9.93329e-07
5.02799e-07
0.00157733
-1.96755e-08
-5.68332e-06
-1.10803e-07
-1.02077e-07
-0.000379149
-0.00184073
-9.95937e-07
-3.42701e-06
6.69848e-06
0.000793969
1.83199e-07
-1.12963e-06
8.59792e-06
-2.77306e-07
-1.89025e-07
-0.00297993
-4.83109e-07
-2.66257e-07
-0.00124667
-4.12753e-06
-5.22714e-07
-0.00175897
1.10115e-05
0.00186185
-7.85213e-08
-3.65503e-08
-7.51319e-05
-4.35054e-08
-0.0168199
-0.000402319
5.64052e-05
0.00149688
-8.76541e-07
-3.25478e-07
0.000351271
-0.00124321
-3.51026e-07
-2.31883e-05
-2.60031e-07
-1.00754e-07
3.96489e-07
2.00623e-08
-1.15568e-07
8.18649e-07
-2.50189e-07
-5.64622e-07
2.53296e-07
1.44106e-07
-3.14652e-07
0.00175872
6.40295e-07
0.00262567
-2.46034e-07
5.15003e-07
-9.01812e-08
-3.01166e-09
-0.00178885
-1.10452e-07
0.00162736
0.00171736
-4.42689e-07
0.00350918
8.27283e-07
-0.000551913
5.73752e-09
0.00119122
4.96774e-07
1.7672e-06
-3.39452e-07
1.97527e-07
1.40297e-07
0.0187593
-5.63475e-07
-0.0017907
7.84268e-07
-1.6033e-07
6.0395e-05
9.04109e-09
0.0246815
6.66265e-08
0.0145152
-6.28598e-07
1.03602e-07
1.17232e-08
0.00079285
-1.29616e-08
-1.69891e-07
2.30873e-08
2.82161e-08
1.74162e-07
-2.2752e-06
0.000113179
-4.80246e-07
3.64389e-07
1.68882e-08
6.41792e-08
-1.97463e-07
0.000642065
0.0025458
3.16153e-07
-1.17713e-07
-1.58247e-07
-1.24868e-07
-4.06655e-07
2.47174e-07
-2.97295e-08
0.000406151
0.000413709
-0.00114028
-4.69968e-07
-7.91545e-09
-1.60107e-07
1.9673e-07
2.26528e-07
-4.89264e-07
7.94184e-08
-2.98005e-07
3.07203e-06
1.97727e-07
-6.59638e-06
0.000365179
0.00266653
7.5266e-07
1.35402e-07
-2.15798e-07
-2.2618e-05
2.68415e-07
5.03402e-07
-2.48957e-07
3.18362e-08
-2.93668e-08
-1.11218e-07
0.00516561
4.44218e-07
0.00376263
-0.00311584
8.31385e-07
-2.20373e-07
2.83126e-07
-0.00150508
2.1687e-07
8.86043e-07
-2.5401e-07
8.82255e-07
-1.14888e-07
3.4171e-07
0.0154725
0.00161867
3.0588e-07
-1.23555e-07
-0.00759401
2.68764e-07
9.46548e-07
-2.60482e-07
0.000954131
-1.44423e-07
2.83864e-07
-0.000581028
-0.00454419
2.16533e-06
-7.26958e-07
3.26832e-07
8.15015e-08
-6.10562e-08
1.13543e-06
0.000784204
0.00353883
1.34342e-07
-5.09938e-05
-1.77341e-07
0.00163643
0.00220487
-7.13521e-08
0.000332154
7.6223e-06
-3.16346e-09
-1.56971e-05
7.04673e-07
-2.93136e-07
0.00107388
-1.00345e-08
-0.000308107
1.39693e-05
-0.0426385
-0.0210104
8.06671e-07
-3.52646e-08
3.81004e-07
-5.01163e-07
-4.31663e-09
-2.25127e-08
-1.80006e-07
-0.0260322
-5.50288e-08
6.01208e-07
0.00179395
-0.000582984
5.45095e-07
-5.80954e-06
-1.7544e-07
0.000218176
3.64016e-08
0.00139109
-6.28819e-06
0.00260918
3.96832e-06
-0.00273087
0.0191332
2.17211e-08
-2.61299e-07
-5.03407e-09
3.96575e-05
-1.83677e-07
1.27738e-05
2.805e-07
9.81975e-05
4.14922e-07
-1.54673e-07
-5.47118e-07
-4.98583e-08
-8.04665e-08
0.00119968
3.43137e-06
0.0197403
3.86704e-07
-1.40082e-07
2.26336e-07
1.81372e-07
2.97653e-06
7.12875e-09
0.000755896
0.000395614
-4.99854e-07
4.6097e-06
0.00169075
4.11136e-07
-0.00038565
-0.00473068
-1.44339e-07
0.000933061
-1.8154e-07
0.0291741
2.96632e-08
3.77956e-05
-3.46963e-08
-3.42425e-06
3.77539e-06
-0.00766834
-0.00161875
-4.59998e-06
-5.90663e-07
-3.63285e-06
4.04614e-06
-1.05181e-06
-0.00280225
-0.000130561
7.16626e-06
4.67569e-07
0.00190578
-0.00185399
-0.000245219
8.7355e-07
0.00337239
-2.17204e-07
8.61847e-07
-1.24127e-06
-4.47689e-07
-1.60849e-07
-2.65944e-07
4.081e-08
1.30052e-08
-4.48734e-08
3.53025e-07
-0.0476909
-1.67421e-07
0.00112345
8.89963e-06
6.58212e-06
0.00202832
0.00150982
-4.65152e-07
7.32903e-08
0.00169642
3.30892e-05
-1.70083e-06
-0.00102702
-0.00485742
0.00140883
-2.26001e-07
7.58257e-07
-7.3596e-07
3.62939e-06
-1.66113e-06
8.32761e-05
-0.00168899
9.03208e-07
-2.89053e-07
-1.78532e-07
-0.00522341
2.89888e-05
9.53021e-07
0.000762354
1.32359e-07
-1.77412e-07
1.58389e-07
0.00133741
2.29254e-07
-5.43336e-08
-8.44067e-08
2.18878e-07
-0.0106389
0.000104276
1.05162e-07
-4.1811e-06
0.00145902
5.23285e-07
-2.80144e-05
-2.94794e-07
6.05302e-07
-1.08979e-07
6.82046e-07
-0.00203453
-2.96039e-07
4.33048e-07
1.70979e-07
-0.010768
-3.2552e-06
7.16099e-07
-7.43039e-08
1.92992e-07
7.15083e-08
0.00753518
3.31824e-07
2.504e-07
4.09481e-09
0.000960227
-2.52752e-07
-0.00187691
-3.99422e-08
5.12318e-07
2.43731e-08
-4.71814e-05
7.29415e-06
7.73844e-07
-0.0100849
-9.46664e-07
-6.07129e-07
0.000549132
-7.8713e-08
-0.000967405
-0.00370888
-9.23421e-08
1.39629e-07
-0.0538113
2.18892e-08
-0.0101537
-2.67403e-07
-0.0144518
0.000849361
-0.0011977
1.48525e-07
-1.01244e-09
3.78558e-08
-2.09434e-07
2.26846e-07
-2.03433e-08
-4.58521e-07
1.63954e-07
1.3639e-08
1.76939e-07
-2.01709e-07
8.66802e-07
-4.45185e-08
0.000801719
-8.97742e-08
-0.00716156
-7.06337e-08
-8.92557e-08
-0.0259824
-2.96189e-07
-0.0172259
0.00337033
-2.81231e-07
-3.65629e-07
8.88092e-07
-0.000301303
-1.38301e-07
-0.0252411
4.73889e-07
1.55028e-08
-0.0113158
2.22074e-07
0.0129906
-1.35757e-07
0.00083277
4.31122e-08
-0.0252119
6.49229e-05
0.000350232
1.23722e-07
1.88211e-07
-2.25248e-08
9.513e-08
1.87812e-05
-2.57383e-07
6.47355e-08
8.49232e-07
-3.06261e-07
0.00312653
-0.000833226
-6.57469e-08
1.12468e-06
-1.06141e-07
4.76896e-07
8.43308e-08
-2.20953e-08
-1.73754e-07
-0.0603868
-0.00790239
0.000104227
6.89426e-08
-1.14687e-07
1.04216e-07
-2.65011e-06
-0.0484497
3.81728e-06
-0.00336124
-0.00103333
2.32015e-07
2.61657e-07
1.24628e-06
-2.16034e-07
1.80157e-07
4.81969e-06
1.18377e-07
0.00163851
1.36725e-07
0.000705138
-1.83064e-06
-4.07489e-07
7.59103e-07
1.49215e-07
1.05202e-07
-3.00367e-08
1.30166e-07
0.000483817
-6.63486e-09
-2.02961e-06
-3.96992e-07
0.0231837
0.000551627
2.63491e-07
-5.89483e-07
-2.14517e-07
-1.68882e-07
2.09668e-07
8.60857e-05
-7.51154e-08
-5.16696e-07
-2.3378e-08
-9.11843e-06
6.11588e-07
-3.54423e-07
-0.0196239
8.06526e-09
-2.67078e-07
0.0164041
8.73275e-08
3.01071e-07
0.000477214
-4.28081e-07
0.00239058
-2.37324e-07
-1.93667e-07
-1.12047e-07
-5.72435e-08
2.76958e-08
-0.00308691
-5.33449e-08
-4.69588e-08
-0.00112076
-0.00179936
-0.0323389
-0.000974156
-0.000161904
-3.38795e-07
1.0917e-07
5.91073e-08
-0.0013123
4.24408e-07
-0.00114317
-2.94955e-07
6.94432e-07
-4.01124e-05
-6.13867e-05
-1.23831e-07
6.88249e-05
0.000225335
5.50064e-08
-4.30042e-07
-4.58987e-07
1.15414e-07
-6.06979e-05
0.000190162
-1.8816e-07
-2.9323e-07
-4.26806e-08
0.00153856
9.64315e-08
0.000271171
8.30452e-07
2.86677e-08
3.65053e-08
-5.02064e-08
-0.00487783
-3.12126e-05
-1.24302e-07
0.0116534
-7.85533e-06
-3.99973e-07
-0.000209259
-7.96885e-08
1.75324e-07
-2.09285e-07
-2.84775e-07
-4.00028e-07
3.66798e-07
-5.00407e-07
-1.95802e-07
-4.26349e-07
8.9999e-07
-7.2287e-08
0.0092804
6.00441e-07
-1.38188e-07
0.0112014
1.13999e-08
-7.85151e-07
4.72715e-06
7.65578e-08
-0.00453246
-5.33905e-08
7.56994e-06
0.000795128
-1.12334e-07
-0.0115637
-0.000801386
-2.16861e-07
-2.53473e-07
3.09488e-07
0.0129143
-1.2363e-07
0.00139474
0.000168577
1.35465e-07
3.79089e-07
1.43821e-06
0.000189805
-1.68244e-07
-0.000584809
-8.22044e-09
0.000163527
-0.0309847
-1.65169e-07
-0.000221397
-5.50207e-07
-5.3457e-06
-0.00320563
6.93533e-06
-2.00515e-07
9.35984e-07
-1.96417e-08
9.40488e-07
2.26694e-08
-1.18993e-07
0.00132679
3.43856e-07
4.58862e-05
0.000155089
-5.72773e-08
0.0016956
-1.5124e-07
1.15591e-05
-2.29234e-08
2.99273e-07
2.96977e-06
0.000951912
0.000101031
7.59959e-07
2.83418e-07
0.000118713
-3.11561e-07
1.61158e-07
8.70902e-08
-5.24279e-07
1.49882e-07
2.28687e-07
-1.83455e-08
-0.00905648
4.26167e-07
6.02555e-07
-3.27984e-07
-1.82466e-07
-2.32509e-08
-0.0166592
3.48814e-07
-7.25764e-07
-4.03532e-08
-0.0139075
1.74759e-06
3.044e-09
1.04518e-07
1.67836e-06
9.57816e-07
-7.73435e-06
-0.0150258
-0.0016349
-7.56566e-07
-1.00573e-07
-2.26372e-07
4.4819e-08
-2.43802e-07
-0.00012355
-9.75443e-07
-4.20808e-07
-0.0119074
-1.78312e-07
-1.71705e-07
-2.21085e-05
0.0165803
4.40442e-05
-1.63014e-06
-0.000599876
-0.00243485
-1.13786e-07
3.27936e-07
-1.29223e-06
-0.0137583
-4.38575e-05
-0.00142747
0.000290256
8.74585e-09
-2.04654e-07
0.000233979
-1.02375e-06
-4.30818e-07
-2.29327e-05
-4.69129e-07
1.97963e-07
-0.000177252
0.0219236
2.54098e-06
4.41499e-07
-1.26136e-07
3.0405e-06
0.00178494
-1.99596e-07
4.34409e-08
3.2116e-08
0.000192275
-1.09705e-07
2.06545e-07
0.000316926
-1.23565e-05
2.96824e-08
-2.13718e-07
9.26434e-08
-2.74321e-07
-1.78723e-07
-6.55039e-07
0.000151895
1.2428e-08
-0.00700844
0.00020658
0.00341419
-7.041e-08
-9.98559e-07
-2.10454e-07
1.10996e-07
-2.64905e-07
-2.69281e-07
-3.93921e-07
0.0211506
0.00677132
-4.47969e-07
-7.32982e-08
-9.38241e-07
-4.43272e-07
-0.00644493
2.97118e-08
0.000238182
0.000972453
5.3103e-06
2.31586e-07
-3.81422e-07
2.42562e-07
-2.23019e-07
-4.14049e-07
-0.0151308
-1.24521e-08
2.21225e-07
-0.000201011
0.00112758
-0.00182386
-0.0103238
-0.0343668
0.000127133
1.33521e-07
-1.4114e-06
-0.0172578
-0.0148573
-2.07986e-07
1.87052e-06
1.61363e-06
-2.64292e-07
-2.48012e-07
-0.00549744
5.0311e-08
-2.49401e-07
-0.00393072
2.10255e-07
-1.66987e-05
-1.02134e-07
-1.27426e-07
-1.37954e-06
0.0042051
8.24633e-06
-0.00254587
-5.6173e-07
-0.0105215
9.36328e-07
4.98023e-08
0.000405943
-6.09122e-08
1.9236e-07
-3.60587e-07
1.04033e-07
0.00623402
-0.0159673
4.0978e-05
1.88893e-05
0.00107311
-0.00024719
7.35045e-05
-2.6949e-07
-7.31656e-07
0.0188957
-2.89867e-08
-4.19116e-07
-3.32644e-07
-2.1605e-07
-0.0146389
-1.77043e-07
0.00024135
0.000103378
-8.76119e-08
0.00049617
-6.6787e-07
4.89991e-08
-7.09087e-07
3.96688e-07
-5.99241e-07
-4.79849e-07
-6.90565e-08
-0.00585766
-4.34999e-07
-3.24805e-08
1.46707e-06
8.53103e-07
-0.000682766
-4.15911e-08
-8.29852e-07
6.73633e-05
-0.0160219
-9.67225e-08
-3.33361e-07
-2.37706e-07
-5.44529e-07
-2.5069e-07
-5.70593e-07
-0.0132158
-0.0512479
-8.30116e-08
-2.85562e-08
6.22137e-09
-1.62133e-06
7.55181e-05
-3.14926e-07
4.11521e-05
-0.0109721
-1.21617e-07
-1.53654e-06
0.000939508
-0.00938469
2.97525e-07
-3.56224e-08
8.70222e-08
0.00390425
-2.57548e-07
0.000303647
2.77961e-07
-0.0171924
5.57066e-06
4.79292e-05
-0.000267544
6.35331e-07
-0.00032466
0.00104804
-0.00186312
-0.0152358
-6.64608e-07
-0.00178149
1.26284e-06
0.0105821
7.72138e-08
-4.3045e-07
-5.79298e-08
-0.00344226
-0.000632887
-2.73278e-07
-2.10664e-07
1.05333e-05
-0.00917323
-0.0169674
1.79705e-09
-8.98432e-08
-2.25034e-07
-8.60914e-07
-6.87806e-07
8.96681e-07
0.000175727
-0.00112974
-4.49688e-07
1.00046e-07
-2.78606e-06
-3.97447e-07
-1.30405e-07
-0.00105084
4.47858e-07
2.26885e-07
-3.11033e-07
-0.00535085
7.68659e-07
-0.00195871
1.36315e-06
8.65815e-06
-0.00887567
6.92945e-07
-0.00151121
-0.00502331
0.000823445
0.00435368
-1.5681e-07
-2.64335e-07
-2.21906e-06
-1.72365e-07
-2.05266e-07
1.41866e-07
-9.29254e-07
-1.40755e-06
2.39641e-06
4.67765e-08
0.00497387
-7.33986e-07
-0.000566694
-1.05488e-06
0.015215
-0.00448329
2.96309e-06
-0.0362089
0.0015569
2.23786e-05
0.0257369
-0.0652311
-5.21921e-07
-1.66141e-07
9.81225e-06
-1.42426e-06
0.000760391
1.34162e-07
5.43315e-07
0.000949537
-1.6418e-07
-2.33222e-07
-6.42805e-07
5.30995e-08
-0.00193261
-3.98605e-07
7.55677e-07
-5.44104e-07
-0.0595915
-1.9087e-07
-0.0328423
0.000414494
-0.00475345
0.00024076
2.73097e-08
-2.21369e-07
-7.27185e-07
-6.79253e-08
-0.0158018
3.7708e-06
7.23645e-05
0.00023005
-1.4879e-07
-1.16823e-06
-7.93078e-07
-2.06365e-07
0.00130081
-4.21262e-09
5.65097e-07
-0.00161192
0.000167748
-4.42737e-05
-2.24315e-07
-7.20573e-07
0.000831531
-1.28282e-05
1.68394e-05
-0.00331485
-0.0156197
0.000141259
-2.05672e-08
-6.35321e-08
-4.32487e-08
-5.68278e-07
0.000295652
-7.60431e-08
-0.00035435
-3.70513e-09
-4.3936e-07
-0.00144414
7.40661e-07
9.7697e-05
-6.56728e-07
-3.2522e-07
-4.38717e-08
0.00206899
-3.83098e-08
8.14374e-07
0.00717934
-2.80501e-07
-2.61538e-07
8.5511e-07
0.000657046
2.83198e-07
3.11343e-06
6.58017e-09
-0.00664574
0.000537565
-0.000228535
-1.45369e-07
-9.84693e-08
8.9038e-08
-2.80252e-07
0.00344435
1.11425e-05
-7.36498e-05
0.000355884
-1.47128e-07
-0.000239332
-3.93367e-08
-2.08828e-05
-2.17446e-07
-0.00390136
-0.000413671
-2.53415e-07
-0.0177726
-7.08373e-08
-0.0623109
8.60617e-07
1.6496e-08
1.43263e-05
-1.9186e-07
-2.59849e-08
2.14638e-07
-2.87772e-08
4.77335e-06
0.000148814
-1.94844e-07
-2.23835e-07
9.67322e-07
-2.73723e-08
-6.21806e-07
2.96955e-08
1.75326e-07
-9.50532e-08
-1.0984e-06
1.49451e-07
-1.39679e-07
2.23073e-07
-6.99116e-08
-2.09402e-07
0.00133174
2.28365e-05
-2.37512e-07
-5.57129e-08
4.96519e-07
5.46371e-05
-2.87302e-07
-9.9299e-07
-3.78181e-07
3.23444e-05
-1.89707e-07
-9.51463e-07
-0.000480589
-1.17303e-07
4.73131e-06
-1.9344e-07
-1.53325e-07
-8.34506e-08
1.16207e-08
-2.4919e-09
-2.46892e-07
0.000334915
-0.0032688
-1.07719e-07
1.18709e-06
-9.17577e-10
-0.00274981
-5.32789e-07
8.65886e-07
-1.52222e-07
-1.97012e-07
-1.40319e-05
-8.87548e-07
2.95826e-05
3.85686e-05
-6.78319e-08
-2.93327e-07
-0.00322206
-1.13686e-07
0.00304215
-0.0149563
-2.26742e-07
9.19077e-06
4.44515e-05
-0.00121616
-2.23132e-06
-3.21257e-05
-8.19919e-07
1.69687e-08
2.88106e-06
-2.23061e-07
-2.31942e-07
-1.11512e-06
-2.96527e-07
6.20999e-08
0.00350355
1.77904e-08
8.32399e-06
-0.0150944
-9.1221e-08
-2.48508e-07
-0.0162754
3.04908e-08
-3.20793e-07
1.11513e-08
2.29934e-06
0.00483313
-0.000285795
3.58126e-08
-5.7504e-08
-6.6509e-08
1.51733e-05
-0.00154632
0.000152954
0.0263843
3.16896e-06
-2.38783e-07
7.13928e-07
-0.0138892
4.46184e-08
-3.14128e-07
-2.01577e-07
-1.61443e-07
0.000513556
8.82547e-07
-1.70604e-07
0.00545508
-1.02021e-07
-1.968e-07
-1.17784e-08
-4.52092e-08
-3.63088e-07
0.0252579
-9.45419e-08
7.63933e-06
3.48094e-07
-8.97393e-08
-7.30654e-07
-4.3883e-07
1.67673e-08
-2.12088e-07
-5.00134e-06
-8.79454e-09
1.00387e-06
-0.0014561
4.48426e-06
-1.65457e-07
4.72287e-06
1.2065e-06
3.01668e-07
-1.86835e-08
-2.1161e-07
-4.87953e-08
-0.0039263
-0.00173988
-9.1596e-08
-3.29872e-07
-0.00907153
-1.08257e-06
0.00224397
-4.23374e-07
-2.31383e-07
-2.00637e-07
-3.35093e-05
-0.00578712
-0.0122984
-0.0179619
-2.01457e-07
4.70969e-06
-4.43391e-05
3.78939e-07
-7.83501e-08
-6.40449e-08
5.43181e-07
6.61488e-07
-0.00688953
-0.0175801
6.25397e-07
-5.02642e-08
-1.44948e-06
1.76746e-07
-7.01347e-07
-2.51166e-07
-0.000556825
-9.42957e-08
-0.00025565
7.49389e-07
-1.92374e-08
-2.93396e-07
0.000146825
-1.05546e-06
0.000135487
-2.95449e-07
-2.00042e-07
-2.626e-07
-7.50854e-08
0.00746058
8.1342e-08
-5.03029e-07
-1.15017e-06
-1.69846e-07
0.000745846
0.0133703
-1.23466e-06
4.54452e-07
-3.73471e-07
-0.00111258
-0.000474009
-1.95339e-07
-2.07978e-07
-0.00387317
-3.74715e-07
-2.79637e-07
-0.000403216
-1.44472e-07
-0.00140427
-0.000687474
0.0020552
3.61571e-07
2.76555e-08
3.74569e-07
4.1718e-07
-2.36723e-07
-3.84318e-08
0.000854144
-0.00812738