/*--------------------------------*- C++ -*----------------------------------*\
| =========                 |                                                 |
| \\      /  F ield         | OpenFOAM: The Open Source CFD Toolbox           |
|  \\    /   O peration     | Version:  v2012                                 |
|   \\  /    A nd           | Website:  www.openfoam.com                      |
|    \\/     M anipulation  |                                                 |
\*---------------------------------------------------------------------------*/
FoamFile
{
    version     2.0;
    format      ascii;
    class       volScalarField;
    location    "250";
    object      p;
}
// * * * * * * * * * * * * * * * * * * * * * * * * * * * * * * * * * * * * * //

dimensions      [0 2 -2 0 0 0 0];


internalField   nonuniform List<scalar> 
10042
(
0.00256616
-0.0435681
0.00197535
-0.00202293
0.00219735
-0.0249358
0.0258003
-0.0219613
0.00427374
0.011876
0.000436912
-0.0466476
-0.0301632
0.00460603
-0.0119498
0.00460323
-0.037861
6.29499e-05
-0.0270315
0.00213075
-0.0266607
0.00251558
-0.001868
-0.0452387
0.00176827
0.00216046
0.0104193
0.00405441
-0.0289396
-0.049022
0.00332588
-0.0685429
0.00423574
0.00420735
-0.017592
-0.0254291
-0.00363423
0.00424104
0.0032789
0.00124648
-0.0464604
0.00424395
-0.0292367
-0.0359794
-0.0004366
0.00185635
0.00334907
-0.0113992
0.0117593
-0.00723126
-0.0247629
0.000397391
-0.0339211
-0.0256658
-0.00541081
-0.0268903
-0.0256926
0.00357499
-0.00852855
0.000304499
0.0132978
-0.00416816
-0.032666
-0.0112619
0.00222351
0.00404115
0.0021304
0.00226863
0.00324452
0.00227854
-0.0253378
-0.00148554
0.00432671
-0.00851896
0.00388383
-0.028779
0.00242453
0.00334423
0.00240983
-0.0284792
-0.0449687
-0.0472124
0.00228879
0.00166755
0.00636175
0.0266035
0.00208777
0.00198499
0.00395547
0.00284618
-0.030024
-0.0124298
-0.0280313
0.0252492
0.00370387
-0.00148332
-0.271565
0.00212304
-0.0337608
-0.00898156
-0.0288919
0.0171681
-0.00340148
-0.0634616
-0.0234342
-0.00408325
-0.0256506
0.00366826
0.0261515
-0.00432392
-0.00745557
0.025847
0.0139948
-0.00745599
0.002506
0.00323207
0.00900205
0.00269825
0.00352513
0.00308338
0.000408022
-0.0341894
-0.0297811
-0.000462726
0.00239395
0.0040833
0.00417458
-0.00815074
-0.0787264
0.00914998
0.00431005
0.00361689
0.00428716
0.00286212
0.0273134
-0.00601305
0.00249128
-0.0477404
-0.0163468
-0.0335541
-0.0290952
0.00405613
-0.0366415
0.00404945
-0.00613877
0.00425807
0.00554459
0.00318058
-0.000126194
-0.0315866
0.00351687
0.00405202
-0.0171448
-0.0335969
0.00392086
-0.00494344
-0.0722723
-0.0395794
0.00427186
0.00206373
0.00152607
0.000998646
-0.000356761
0.00399829
-0.0147584
-0.0306964
0.00434754
-0.0627788
-0.0224931
0.004164
0.00500504
-0.0450348
-0.0230588
0.00418147
-0.024385
-0.0261439
0.0011287
0.00426054
0.00353924
0.00328693
-0.0155544
-0.018563
-0.00903185
0.00293996
0.00455637
-0.0396802
-0.00184074
0.000344706
-0.0221845
0.00375103
-0.0526483
-0.0228428
0.00431988
-0.0185582
-0.0111104
-0.0123033
-0.140448
0.00581803
-0.281347
0.00156533
-0.0835072
-0.0286797
0.00936832
0.00368217
-0.0375612
0.00427928
-0.0272608
-0.0304851
-0.00697835
0.00279051
-0.0681332
0.00363256
0.00718058
0.0101307
-0.00300115
0.00432143
0.00342958
-0.00516474
-0.00118722
-0.0747774
-0.145907
0.00484404
-0.140045
0.00417677
-0.00203669
-0.03201
-0.000300468
0.00256114
0.00801685
-0.0037903
0.0042752
0.00410477
-0.0373703
0.00281116
0.00129685
-0.0244239
0.00286869
-0.275517
-0.00716628
-0.0407574
-0.00242857
-0.0132074
0.000330277
0.00140835
-0.00546085
0.00204723
-0.0093736
-0.00675445
-0.0173479
0.00215135
-0.0237681
0.00434183
-0.000999427
0.0037587
-0.000149222
0.00281877
0.00382179
0.000706179
-0.247628
-0.000655533
0.00170213
0.00424348
0.000538574
0.00343015
-0.0323728
0.00304012
0.0019756
0.00040805
0.0032891
0.0041038
-0.00603988
-0.00546978
0.00424426
-0.027924
0.000723919
0.00436286
-0.0210232
0.000454271
0.00363688
-0.0114486
0.00408441
-0.00784847
-0.148424
-0.0200593
-0.00357391
-0.173733
0.00733792
0.00370884
0.00261432
0.00412838
-0.0189114
0.00668284
-0.0035001
-0.0149029
0.0014141
0.00466003
-0.011049
0.0026463
-0.00619205
0.00343243
-0.0159905
0.00971629
0.000215447
-0.00278106
0.00685924
0.00291503
0.00431669
0.00113374
-0.0150546
-0.0131174
-0.00369532
0.00283761
-0.00170423
0.00465189
0.00638433
0.00225612
0.00344322
0.00449478
-0.0298584
0.00315831
0.00382847
-0.0236803
0.00439321
0.00412841
0.00671726
-0.00304436
0.00534905
0.0036458
0.00269524
-0.018234
0.00412384
-0.0048264
0.00387059
0.0041779
-0.0308174
0.00210509
-0.0295264
0.00415286
0.00434883
-0.0252329
-0.0230075
-0.0180821
0.000416119
0.00519452
0.00116497
0.00427919
0.00412619
0.00141907
0.0054518
-0.286664
-0.0157142
0.00288457
0.00514898
0.00451158
-0.00550668
0.00567692
-0.000570695
0.00234272
-0.0880028
0.00370272
-0.00433153
-0.00386758
-0.0138616
-0.0195108
-0.0260561
-0.0155305
0.00124268
0.00470443
0.00502966
-0.0154061
0.00040922
0.00114726
0.00425883
-6.82069e-05
0.022469
0.00425317
0.00397634
-0.00179026
-0.00873076
0.021081
-0.00411813
-0.00138642
0.0077974
0.00353009
-0.0455744
0.003156
0.00153137
0.00301015
0.00455208
0.00370659
0.000956111
-0.0588263
-0.0152011
0.00555744
-0.0237864
0.00789357
-0.00302081
-0.0140785
-0.00359639
-0.0649773
0.000283885
-0.157846
0.00432733
-0.00187906
-0.222078
0.00456398
-0.022377
0.00486047
0.000560162
0.000917095
-0.0447438
-0.00896991
-0.0129
-0.0143726
-0.00164544
0.00571066
-0.00342368
-0.0131877
0.00366394
0.005653
0.00422664
-0.0255389
0.00429398
0.00285209
-0.0323621
0.00570412
0.00676555
-0.0455254
-0.000498738
-0.0213014
0.00573035
0.00339589
-0.007488
-0.0280901
0.00485655
-0.0131777
-0.0217961
0.00349734
0.0036919
-0.0372521
0.00407218
0.00609222
0.00317798
-0.0269498
-0.00839752
0.00371003
-0.000533123
4.13113e-05
-0.014758
0.00275807
0.00475404
-0.00840101
-0.00851151
-0.0432476
-0.0019103
0.00413966
0.00326093
-0.0665569
0.00300985
0.000938326
0.00230784
-0.00262182
0.00459556
0.00453856
0.00443485
-0.00337837
0.00268273
-0.0212708
0.00584264
0.00425813
0.0047133
0.00427439
-0.103155
-0.0103594
-0.0198243
0.00417635
-0.0437732
0.00389971
0.0103002
-0.00639792
0.00557289
-0.0138847
-0.0288002
0.00410179
-0.0256805
0.000670793
0.00475621
-0.056113
0.00353081
0.00309504
0.00274208
-0.0435197
0.00425287
0.00528741
0.00353444
-0.017913
0.00455658
0.00560978
-0.0200578
0.0156809
-0.00668227
0.00142422
-0.00886107
-0.0378021
7.89203e-06
-0.00660548
0.0036195
0.00209265
0.00453718
0.00159529
-0.00744722
-0.0287444
0.00449657
-0.0015813
-0.00510757
-0.0210759
-0.000798173
0.00120146
-0.00257546
-0.00713944
0.00435813
-0.00258599
-0.00510845
-0.00423996
-0.0123227
-0.00850447
0.00522961
0.00391633
-0.00439674
0.00402625
0.0032972
0.0188722
-0.00434218
0.00389901
0.0040996
-0.00148337
-0.00403489
-0.00125908
0.00429645
-0.00312587
0.0011274
0.00899686
0.00550837
-0.1624
-0.00097767
-0.042597
-0.00122522
0.00431902
-0.00372719
0.000328777
-0.0289228
-0.00137228
0.00427293
0.00507563
-0.0254647
-0.00177291
0.00453346
0.00415922
0.00387234
0.00304425
0.00392294
0.00503645
-0.00483288
-0.0157931
-0.00225735
0.000346497
-0.0711654
-0.0217707
0.00509392
0.00370804
0.00265522
-0.0569442
-0.0142479
0.00533043
-0.0251815
-0.00576169
-0.0408449
0.00419174
0.00428895
0.00312417
0.00304153
-0.00502352
0.0039517
-0.181098
-0.0126355
0.00634475
0.00068284
0.00539926
0.00351786
0.0039508
-0.0050147
0.00426079
0.000484501
0.00513105
0.00549115
0.00361104
-0.00606515
0.00143745
0.00288681
0.00423663
-0.000337924
0.00430197
-0.0991656
0.00351659
0.00403892
0.0042905
-0.00654513
2.40789e-06
0.00317704
0.00408773
-0.000378542
-0.00297781
0.000284466
0.00408557
0.000187337
-0.0076831
0.0010116
0.00519755
0.00423273
-0.233577
-0.0377813
-0.050191
0.00116562
-0.0358356
-0.00103195
-0.00238684
-0.00375892
-0.0369191
0.00469868
-0.0462653
0.00301546
-0.00904878
-0.00558891
-0.00468473
-0.032152
0.000650484
0.00552874
-0.0703614
-0.0104215
-0.00617732
0.00335776
-0.0061464
0.00428946
0.00424202
0.00129845
-0.0289111
-0.0193457
0.00216351
-0.0718175
-0.00174328
-0.000691187
0.00097329
-0.0200575
0.00544851
0.00363376
-0.0276493
0.00410515
0.00268174
0.00981251
-0.00713636
0.000325838
0.00324585
0.00354754
0.00284291
-0.0162062
-0.00219123
-0.0246314
-0.011068
0.00388002
0.00339172
-0.00837273
-0.000983942
0.0041015
0.00337376
0.0040258
-0.014019
-0.00537246
0.00299831
8.12115e-05
-0.00394615
-0.195678
-0.0429931
0.00527392
0.00565399
-0.00404364
0.00252197
-0.0136193
0.00341109
0.00410321
0.00422492
-0.00455028
0.00337664
-0.0386066
0.00436436
0.000424398
0.00562783
0.0045777
-0.0862508
-0.14915
0.00362045
-0.000231806
0.00269696
0.00538743
0.0042435
-0.0479578
0.00474663
-0.0162685
0.00379704
0.00452306
0.00426863
-0.0015485
-0.00458539
0.000403441
-0.00659351
-0.0135734
0.00544307
-0.0257685
-0.0380097
-0.00513252
0.00122508
-0.011438
-0.00365868
-0.0231275
0.00117455
0.0041533
0.00444792
0.00417392
-0.0256998
0.00426966
0.00113354
0.0043728
-0.00908746
0.00452146
-0.0022632
-0.00572459
0.00387099
0.0198075
-0.00487332
0.000470674
0.00434725
-0.065564
0.00105988
-0.0139393
0.00524839
0.00107066
0.005481
-0.010466
-0.00706502
0.00376322
0.00306355
0.00464054
0.00337973
0.0196499
0.000343966
0.00398632
-0.00368282
0.00331743
0.000808652
-0.0441706
-0.01344
-0.00412439
0.00420488
0.00368579
-0.0628093
0.00239149
-0.00290804
0.000356822
0.00413112
0.00403162
0.00431354
0.0067623
0.00429426
-0.00105357
-0.012834
0.0063134
-0.0408077
-0.0128006
0.00437124
0.000365543
0.00454285
-0.0137335
-0.00551774
0.00407668
0.00553656
0.00407747
-0.0144746
0.00462671
-0.000467882
-0.0183426
0.00398828
0.00299466
-0.0109134
0.00180683
0.00404231
0.00376884
0.000364088
0.002847
0.00426062
0.00516791
0.00112296
0.00363769
0.00281474
-0.00422822
0.00387836
-0.0095182
0.00402775
0.00408852
0.00268599
-0.00900318
-0.00590097
-0.0204787
0.00306881
0.00733844
0.0164275
-0.0656844
0.00468426
-0.00774341
0.00560072
-0.0517885
0.00394145
0.000549803
0.00407889
-0.0264905
0.00177475
-0.0131425
-0.0971789
-2.23649e-05
0.0019933
-0.0238213
0.00419172
0.000884202
-0.0253223
0.00600157
-0.00172103
0.00335508
-0.147319
0.00107707
-0.0202903
-0.00671628
0.00388848
0.00240517
0.00870961
0.000566311
-0.00647008
0.00011851
-0.011834
0.00438278
0.000429695
-0.0534875
-0.00609585
-0.0255397
0.00473715
0.0036143
0.00140312
-0.0121509
0.001273
0.00419818
-0.00192158
-0.0414642
0.0028613
-0.0502145
-0.000449461
0.00305693
0.00446305
-0.0222221
0.00305994
-0.0573341
0.0056874
0.00481563
-0.001852
0.00323708
0.00412974
-0.00314409
-0.00467331
0.00241396
0.00349335
-0.0101925
0.00401215
-0.00034213
-0.0371686
0.00275817
-0.0030336
-0.00787588
0.00178937
-0.0016549
-0.0174092
0.00678096
-0.029498
0.00273885
0.00534869
-0.00202021
-0.137555
-0.157147
0.000662572
0.00433659
-0.072584
-0.0464114
0.0217566
0.00270421
0.00440978
0.00457849
-0.00480685
0.00411441
0.00287436
-0.0346161
0.00303449
-0.049544
-0.0166693
-0.00911651
0.0031227
0.00262128
0.00259423
-0.0105611
-0.0362035
-0.0237186
0.00451953
-0.0360255
-0.00859704
0.00363912
-0.000781507
-0.0512486
-0.000533444
0.00537524
0.00399052
0.0038941
-0.0110213
0.00501265
6.10187e-05
0.0062853
0.00360066
-0.024905
-0.00856099
-0.0139013
-0.0204071
-0.000913335
-0.0681825
-0.0522487
-0.0228553
-0.0546004
-0.00428547
0.00375499
-0.013333
-0.00109448
0.00509671
-0.0340241
-0.0545543
0.00412474
0.00281079
0.00504624
0.00410276
0.00380943
-0.0527666
0.004004
0.000270726
-0.273437
0.00421193
0.00439139
0.00629748
-0.0305372
-0.0106177
0.0027774
0.00137626
-0.0168546
0.00918102
-0.000450716
-0.00324153
-0.000480597
0.00233199
0.00428348
-0.0363646
-0.000651329
0.00340159
0.00441735
0.00381431
0.000527742
0.00458838
-0.00968551
0.00395104
0.000729607
-0.00624677
0.00268708
0.00417849
-0.0142156
0.00870131
-0.0412017
0.0202206
-0.00213469
0.00537077
-0.00970834
0.00274148
0.00489305
-0.0195579
-0.00189635
0.00238545
0.00545892
0.00467416
0.00400919
-0.0216827
0.000226356
0.00620997
-0.0303535
-0.000131956
0.00425448
-0.0023439
-0.0324311
0.00306724
0.00408767
0.00431841
-0.032997
0.000667404
0.0040341
0.00545232
0.00420167
-0.00943475
0.00436542
0.00434117
0.00428314
0.00276632
0.00448977
0.00408798
-0.0016966
0.00404973
0.00154741
-0.0127395
0.00411845
0.00645354
0.000424216
-0.00181007
-0.00522353
0.00564486
-0.0277525
0.00235791
-0.00477215
-0.106378
-0.0185382
0.00403733
0.00335796
0.00116511
0.000894602
-0.0164806
0.00496795
-0.0173424
-0.0238517
-0.00129248
0.0010712
-0.00476715
-0.0243651
0.00510248
0.00413144
-0.0417341
-0.0103498
0.00249843
-0.00272034
-0.0680258
-0.0185958
-0.00163396
-0.0360161
0.0043724
0.0231008
0.00406879
-0.00821476
0.00495363
0.00344023
-0.0371576
-0.000445244
0.00375711
0.00356465
-0.0686731
0.00535271
0.00531282
-0.0202826
0.00409358
-0.0264768
-0.0230572
0.00271503
0.00404854
0.00364114
-0.00517948
0.0012678
-0.0112641
-0.000579703
0.00460967
0.00424336
0.00133844
0.00453002
0.00557649
-0.0395976
0.00284808
0.00555936
-0.020564
-0.0529951
0.00575665
-0.000625647
0.00307371
-0.0830956
0.00579631
0.00325442
0.00543106
-0.0218709
-0.0132211
0.0040591
0.00278702
-0.037737
-0.0216654
0.00450295
-0.00691984
0.00258248
-0.0074941
0.00513271
0.00442055
0.00440372
0.0043769
0.00444261
0.00397745
0.00260144
-0.000797284
0.0044426
-0.00440414
0.00447781
-0.000645199
-0.0170619
0.00362717
0.00263999
0.0165196
-0.0114161
0.00364176
-0.0369903
0.00326916
0.00518448
0.00576878
0.00461107
0.00399535
-0.0410255
-0.00913646
-0.0368979
-0.00640688
0.00362331
-0.000814494
-0.00812125
0.00463097
-0.000726665
0.00409498
-0.0134934
-0.0322107
0.00575682
-0.0785276
-0.0210719
-0.00412442
-0.127472
0.00318765
-0.0297455
0.00413464
0.00164956
-0.000485307
-0.0101354
-0.00442546
-0.0350727
-0.0183025
0.0034198
0.00468492
0.00412501
-0.0151152
0.00246042
5.66994e-05
-0.000824128
-6.97479e-05
-0.0218091
0.00158558
0.00451891
-0.00623267
0.00348805
9.33445e-05
-0.0177131
-0.00305366
0.000495234
-0.00749023
0.00246057
0.00733599
0.00364324
-0.00256671
-0.00546711
0.00397921
0.00533019
0.00286023
-0.0462246
0.0021454
0.00438398
-0.0149257
0.000558311
-0.00432708
-0.0188637
0.00160377
-0.0141163
0.00203731
-0.0198069
0.00555586
0.00245382
0.00441234
0.0038917
-0.00158022
0.00348465
0.00522432
0.00494109
0.0050176
0.00527131
-0.00275349
-0.0266908
-0.0236432
0.00336167
0.00627641
0.000545702
-0.006779
-0.044093
-0.021013
-0.000581116
-0.069428
0.0040603
0.00422963
0.0041795
0.00463315
0.00608125
-0.00343389
0.00337061
0.00604489
0.00397917
0.00415175
0.0053923
0.00631796
-0.00614864
-0.0195276
0.00253851
-0.000842602
0.00160297
0.00346503
0.00060977
0.00277587
-0.0153536
-0.000584877
0.0152707
-0.0142328
-0.00309247
0.00434062
0.00185846
-0.000969914
0.00406484
-0.0153099
0.00203658
0.00299494
-0.0553753
-0.0196832
0.001042
-0.0267535
-0.00617131
0.00462188
-0.0230361
0.000274574
-0.00286936
-0.00492368
-0.0521096
-0.0214729
-0.00369816
-0.0320628
0.00321863
-0.00453564
-0.0247573
-0.00961092
-0.000533568
0.000192865
-0.00884696
-0.029675
-0.0611482
0.00500619
0.00278818
0.00135244
-0.0744079
6.3074e-05
-0.00793112
0.00141537
0.00407064
-0.0334326
-0.00519108
0.00465711
-0.0562053
0.00437233
-0.0014479
0.00235513
-0.288507
0.000210232
-0.0764984
0.00415991
0.00407141
0.00429294
0.00340447
0.00268438
0.00443709
0.00391106
0.00334185
-0.00529643
0.00315102
-0.00295207
0.00404418
-0.0285705
-0.0129433
0.000375593
0.00324375
0.00456932
-0.110744
-0.0376947
-0.00164566
0.00325446
0.00426431
-0.00528615
-0.0323589
0.00424436
-0.00579992
-0.0158016
0.0051478
0.00403019
0.00349604
-0.00448959
-0.0229181
0.00410805
-0.00845566
-0.00571569
0.00361985
0.0029351
0.00446303
0.00390794
-0.00882365
-0.220169
0.00420757
0.000746547
0.00410914
-0.0928386
0.00448363
-0.0165412
-0.00111658
0.00430464
-0.000985408
-7.38314e-05
-0.0361729
0.00342384
-0.0297782
-0.001066
-0.0802261
-0.0035125
-0.0306245
-0.0266209
-0.0168827
-0.00242525
-0.000158883
-0.0587071
0.00433525
-0.0344751
0.00501511
-0.0159871
0.00435555
-0.00930133
0.00619963
-0.0337079
-0.0794482
-0.000164623
0.000130823
-0.00346715
-0.0324923
0.00473374
0.0173156
-0.0165853
0.00421145
0.00426276
0.00171983
-0.0112885
0.000344198
-0.00445759
-0.0101925
0.00407405
-0.0675785
-0.0020187
-0.0771398
-0.0189762
0.00132309
-0.0105444
-0.000116599
0.00389626
0.00641455
-0.00519001
0.000813247
-0.00185452
0.00259719
-0.0969013
0.00410138
-0.0295292
0.00849422
-0.0299701
-0.00100065
-0.0398584
-0.00773153
0.00317121
0.00434656
0.00425914
0.0128078
-0.0180706
0.000195202
-0.00957952
-0.18101
0.00231988
0.00416953
0.00466764
-0.0461138
0.000456275
0.000316883
-0.0665869
-0.193735
-0.0645243
-0.00757103
-0.0610124
0.00397287
0.000518856
0.00428281
0.0179104
0.00260406
-0.00400938
-0.0352151
-0.118813
-0.0261696
0.00447766
0.00394717
-0.0101355
0.00413033
-0.000281092
-0.00197902
-0.253165
0.00437764
0.000420015
-0.0155586
0.00470995
-0.0130624
-0.00750524
-0.00624371
-0.0105968
-0.00739836
0.00418539
-0.0014929
-0.0283328
0.00369395
-0.0116197
0.00297762
-0.00486096
0.00203878
-0.275571
0.000694845
0.00411845
0.00395757
0.00162922
0.00270441
-0.0103459
-0.0160933
-0.0748014
-0.0592924
0.00524428
0.00407068
0.00468486
-0.0220479
-0.0017063
-0.0142674
-0.0382414
-0.220105
0.00613189
-0.0350759
-0.0480313
-0.028931
0.00398584
-0.0173198
0.000520076
0.00413109
0.00399573
0.00197335
0.000584594
0.00424099
0.00241606
0.00298489
-0.00451319
-0.019515
-0.00228762
-0.00784349
-0.0180246
-0.00325163
-0.0123563
0.0039233
-0.0141427
-0.00473922
0.00175451
0.00281909
-0.0089502
-0.0374904
-0.014643
0.00350602
-0.0217075
-0.00442133
-0.00708239
0.000324978
-0.0347589
-0.0205692
-0.0754309
-1.32487e-05
-0.00181997
0.0237403
0.00255445
-0.0489026
0.00204953
0.000774892
-0.00120769
-0.0237871
-0.0270425
-0.021697
0.00417415
0.00174052
-0.0215177
0.00257717
0.00102367
-0.0139558
-0.00948432
0.00190921
0.00606438
0.00165848
-0.000947378
-0.00552851
-0.00201295
-0.00199382
0.00695816
-0.00134754
0.00442784
0.00181717
0.0221718
-0.0212945
-0.00755584
-0.0171188
-0.0148156
-0.0128653
-0.00984615
0.0013901
-0.0194489
-0.0117447
0.00156696
0.000153728
-0.0226712
-0.0111654
-0.00905387
0.0020062
-0.0174216
0.00608693
-0.0755413
-0.0309426
0.00431945
-0.00309464
-0.00614894
0.00163967
-0.0257603
0.00604453
-0.0107136
-0.0251732
0.00497074
-0.00529426
-0.00219331
-0.00949479
-0.0132995
-0.0266297
0.00581796
-0.0146428
0.000856345
-0.00235445
-0.00364516
-0.0155397
0.00269609
4.42365e-06
0.000653958
0.0038901
-0.0135459
0.000275275
0.00471186
-0.00100963
0.00129667
-0.0101307
-0.0448335
-0.0185092
-0.00992205
0.00609614
-0.00117191
-0.0475059
-0.00976919
6.66847e-06
-0.00993443
-0.0439582
-0.000138845
0.00161819
-0.0162412
-0.0126091
0.00388473
0.00376398
0.00432051
-0.252168
-0.00972254
0.00132371
0.000847329
-0.0659859
-0.0754206
-0.0235264
-0.0153528
-0.010022
0.00291864
-0.0252694
-0.00161857
0.00400652
-0.00554895
-0.0445722
-0.00221849
-0.0229816
0.0050174
-0.017946
0.0054771
-0.00787836
-0.036297
-0.0182455
-0.00540085
-0.0154713
0.00121696
-0.0367396
0.00184404
-0.0117285
-0.0132244
-0.0193966
-0.0518741
-0.0160703
0.0115219
-0.0180032
-0.000382689
-0.0225237
-0.0216539
-0.0506074
0.00339342
-0.0148067
0.00514932
-0.0203933
-0.00249368
-0.0243996
-0.00855718
0.00389497
-0.00873768
-0.0574183
-0.0247582
-0.02865
-0.00111761
-0.00414125
0.00149669
0.00399483
0.00438309
-0.000307665
-0.264624
0.0022277
-0.015081
-0.000274091
0.00329014
0.00364994
0.00412749
0.00400543
0.00174021
0.0039711
-0.0101814
0.0051352
-0.0541973
0.000275398
-0.0188948
-0.0179676
-0.0107428
-0.0176187
-0.0129491
-0.0136827
0.00348521
-0.00767423
-0.0290884
0.00354174
0.00329586
-0.0162206
0.00506242
0.00422158
0.00225494
-0.0140042
0.00211209
-0.0225951
-0.0222494
-0.0544643
-0.00194315
-0.00502314
-0.00422616
0.00408424
-0.0112188
-0.02473
-0.0158924
-0.0377205
-0.0101069
-0.0496022
0.00400339
0.0034001
0.00328133
-0.0991764
0.00407455
0.00103963
-0.00317043
-0.00673783
-0.0220614
-0.000447205
0.000937873
-0.00946595
0.00364552
0.00407828
0.00256729
-0.0132036
0.000974215
-0.0423631
-0.0121807
0.000848653
0.00226106
-0.0755837
0.00418346
0.00187598
-0.0376396
0.00149238
-0.00948192
-0.0185573
-0.0111297
0.00411552
0.00334053
-0.005791
0.00384797
0.00430592
-0.00590743
-0.0101906
-0.00585811
-0.059227
-0.0101469
-0.0245967
-0.0112784
-0.00317996
0.0121348
0.00375565
0.00390548
0.0134529
0.00120873
-0.025436
-0.000249735
-0.00269807
-0.214038
0.00352878
0.00657504
-0.0293485
-0.00567154
-0.00242793
0.00334521
-0.0311823
-0.0101435
-0.00188166
-0.00627377
0.00175346
-0.0189987
0.00557087
0.000469459
0.00418601
0.00468557
-0.0119483
0.00465338
0.0161078
0.00168144
-0.00293096
0.0045245
-0.018782
0.00225334
-0.0122922
-0.00910128
-0.070269
-0.0116638
-0.0517542
0.00428495
-0.00167291
-0.0112289
-0.0220456
0.00550822
0.00543577
0.000667523
-0.000756468
0.00385391
0.00412789
-0.0104474
-0.0247015
-0.0529738
0.00428645
-0.119991
-0.0457307
-0.0268572
-0.00778303
-0.000451651
0.00049262
0.00160951
-0.00676411
0.00424767
-0.0290566
0.000854947
0.00176517
-0.0402257
0.00445681
0.00381281
-0.00450168
-0.00374457
0.0267835
0.00436579
-0.0545964
0.00359965
0.000102991
0.00476579
-0.000579451
0.00161301
-0.0489987
0.00469455
-0.0552956
-0.014644
0.00320848
-0.00340678
-0.0176024
-0.005116
0.00123089
0.00394
-0.00348085
-0.00234819
-0.0083501
-0.0211293
-0.00550136
-0.0109936
-0.055169
-0.000746037
-0.00662306
0.00417976
-0.00825596
-0.0260717
0.000334554
0.00432267
0.00234268
-0.00357381
-0.0101365
-0.00707801
0.0102027
-0.000710567
0.00354675
0.00399906
-0.000173149
-0.00734014
0.00349031
-0.00644444
-0.0240424
-0.0471264
-0.0297904
0.00307376
-0.0345413
0.00428295
0.0077008
-0.0163876
-0.00921018
0.00137322
-0.00748416
0.00432731
0.00176841
-0.0306043
-0.00921892
-0.0670781
0.00429185
0.00394699
0.00155788
-0.00629693
0.00410675
0.00377266
0.00596644
-0.0172931
0.0112784
0.00218931
-0.0388201
-0.00166632
-0.00193788
-0.00370505
-0.00292526
0.00362826
0.00369275
-0.00364995
-0.0274576
-0.0206961
0.00424069
0.00385855
-0.00197852
0.000262669
0.00452874
0.00427023
-0.0104013
-0.000190782
0.00580307
-0.0053897
-0.00419752
0.00337382
-0.0035957
-0.000580251
-0.0146461
-0.000651014
-0.0318416
0.02061
-0.0061835
-0.0209069
0.0252707
0.00999701
-0.00835558
-0.00527411
0.00325878
-0.000959633
-0.025126
-0.00315652
0.00484379
0.00396939
-0.00259552
-0.0030877
0.012563
0.00284099
0.00403254
-0.0567278
-0.0327603
-0.00850195
-0.00413331
0.00352579
0.00352669
0.0165467
0.00241985
-0.0251734
0.00646443
0.00698121
-0.0250921
0.000878744
-0.00360432
-0.000770498
-0.0332703
-0.00656672
0.00426948
-0.242937
-0.00996729
-0.05434
0.00736256
0.0012462
0.00369449
-0.0416276
0.0036213
-0.00159413
-0.0146098
-0.00528486
-0.00664807
-0.00687015
-0.00266257
-0.00397787
-0.00939357
-0.00450555
0.00625733
0.00412787
-0.0220748
0.00417152
-0.00218381
-0.00389773
-0.00387442
-0.00331087
-0.00234513
-0.0015087
-0.00996662
-0.00122775
-0.00431815
0.00365991
-0.0618613
0.00695903
0.00139662
0.000352423
0.00597561
-0.00956956
0.000153606
-0.000620306
-1.78113e-05
0.00408814
-0.00271845
0.00422244
-0.00737939
0.00534602
0.000543824
-0.018361
-0.00494924
0.00259479
-0.00295416
-0.000889611
-0.00371398
-0.0136134
-0.00998378
0.00304284
-0.011123
-0.01381
0.00436728
0.00425778
0.00400601
-0.00679824
0.000850437
-0.00779711
-0.00842679
-0.0166352
0.00801702
-0.00571006
0.00176015
-0.0889956
0.00645394
-0.0137032
-0.0203057
-0.0203753
-0.00383853
-0.0193855
0.00475462
-0.014281
-0.0194734
-0.00965751
0.00140723
0.00473098
-0.0272184
1.07903e-05
-0.00057098
-0.00127625
-0.00698158
-0.0196414
0.00297962
0.00413115
-0.00275236
-0.0025066
0.0040614
-0.0591535
-0.00863933
-0.00613806
-0.00434126
0.00185694
-0.0203765
-0.00722536
-0.00531946
-0.000379411
0.00288674
-0.0130172
0.00374139
-0.0286633
-0.0123397
-0.0231369
0.00482136
-0.00161594
-0.0254149
-0.0524679
0.00470536
-0.0244993
-0.0310789
-0.0203364
-8.58248e-05
-0.00550336
-0.0161619
-0.00591236
0.00105054
0.00325398
-0.00235313
0.00274088
0.00352396
0.000152939
-0.0083354
0.00405077
0.000780866
8.70716e-05
-0.0299905
-3.71507e-05
0.00358028
-0.00576535
-0.0217022
0.00208282
-0.0334312
-0.0213213
-0.00648442
-0.00984297
0.0028091
0.00242643
-0.0243304
0.000579609
0.00509157
-0.0244047
-0.00434794
0.00356062
0.000568963
0.00300415
-0.0210951
-0.0055955
-0.0115619
-0.00563002
-0.0152273
-0.0039432
-0.0281556
-0.00390082
-0.00877324
-0.0156899
0.00372416
0.00186506
-0.00192409
-0.00121282
-0.0181751
-0.00053603
0.00385764
-0.00425373
0.00356179
-0.000711324
-0.00354939
-0.00537803
-0.0102308
0.00227981
-0.0128812
-0.0102905
-0.00803983
0.00669264
-0.00393367
-0.000931562
-0.0175334
0.00383216
0.00555622
-0.00314652
-0.0193886
-0.00652041
0.00266022
0.0041502
0.00225382
-1.31956e-05
0.00399912
-0.00151468
0.00622677
-0.00739885
-0.00154679
-0.00142036
0.00301441
0.00103859
-0.00298052
-0.00118376
0.00128619
0.00018535
0.00310424
0.00431514
-0.0344244
-0.00293662
-0.0034698
-0.0427983
-0.133964
-0.0129969
0.00330138
0.004276
-0.00121096
-0.00901759
0.0201651
-0.000269022
0.00317003
0.00434398
-0.000844462
-0.00930026
-0.00271241
-0.00483731
-0.0214776
-0.00276001
0.005976
0.00176194
0.0144409
-0.0035256
-0.0492131
-0.030221
-0.00245052
-0.0213122
-0.00522265
-0.00971744
-0.0415867
0.00423716
0.00418473
0.00381227
0.00147916
0.00430147
0.00348233
0.00416596
-0.0127944
0.000253651
0.00361258
-0.0617322
0.0042078
0.000318092
-0.0164287
-0.0026199
-0.00522051
-0.00101497
0.00394077
0.00357843
-0.0231473
-0.0124922
-0.00253091
-0.026095
-0.00388757
-0.0030063
0.00271037
0.00515451
0.00592152
2.60723e-06
-0.00195257
-0.00975927
0.0156209
0.00360447
-0.00425157
-0.0299956
0.00076719
0.00020078
-0.00412184
-0.0075011
3.6961e-05
-0.00229588
0.00397254
-0.00257233
-0.00555755
0.000398914
0.00361141
0.0048386
0.00611842
0.00643889
0.00445928
0.01136
-0.00134145
-0.0117205
0.00252533
0.00100755
-0.0137274
0.00413516
-0.000579427
0.00447866
-0.101204
-0.0167009
-0.0248665
0.0246124
-0.000637847
-0.00151591
-0.00959188
-0.0283952
0.00264821
0.00556506
0.00476488
0.000543613
-0.0949205
-0.000535843
0.00376583
0.0022923
0.00384622
-0.00562098
-0.091284
0.00297421
-0.0204711
-0.0173757
-0.0146692
-0.00211234
-0.0245094
-0.00351332
0.0045312
0.00420398
0.00112459
0.00270003
-0.0025197
-0.00360673
0.00306665
-0.0147529
-0.00412274
-0.0229209
-0.00262013
-0.0749456
0.00377478
-0.00305744
0.00360656
-0.020628
-0.00393412
0.00309699
0.00173482
-0.00026864
-0.0321286
-1.74611e-05
0.00437162
-0.0224041
0.00303008
0.00379683
0.00418998
-0.000867834
-0.00421675
-0.0420528
-0.000123578
-0.00180806
0.00427683
-0.0125555
-0.00124024
0.000576074
-0.00249114
-0.00260538
0.0046123
0.00393048
0.000254556
-0.00700718
0.00599224
-0.00216696
0.00537812
0.00609572
0.00339857
0.00416779
-0.0039668
0.0042344
-0.0375432
0.00708021
0.00178968
-0.00975729
-0.017378
-0.00152383
-0.0218116
0.00410692
-0.000385583
0.000529691
0.00785036
0.0095483
0.00163569
-0.0438648
0.000146003
0.00679429
0.00751068
0.00322883
-0.000895439
0.00312341
-0.00723028
-0.00350354
-0.0531878
-0.0829572
-0.000448455
0.0014889
0.00425957
-0.00279527
0.00859852
0.00415098
0.00673769
-0.0178684
0.00396181
-0.0558167
-0.0169858
-0.000284007
0.00950242
0.00251932
-0.00835417
-0.000684452
0.00358025
-0.00320262
-0.00112929
-0.0285737
0.00429587
-0.000895281
0.00239874
0.00353317
-0.0275565
-0.0217131
0.00411115
0.00266509
-0.000276823
0.00187767
0.00463351
-0.000511832
-0.00404947
0.0114586
-0.00407709
-0.00321568
0.000322971
-0.00135148
0.00350321
-0.0304381
-0.0233239
0.00262415
0.00315542
0.00246663
-0.0104901
-0.00056697
0.00295178
-0.0246949
0.00664093
0.00408347
0.0033957
0.00111523
-0.0127547
-0.142698
0.00308306
-0.0164756
0.0017629
0.00422154
0.00170591
0.0104161
0.00428464
0.00276958
0.00290348
-0.0171047
0.00311037
0.0025909
-0.0258295
0.00311496
0.00425598
0.0032458
0.00224015
0.0031372
-0.00404163
-0.00493134
-0.00316696
0.00102333
-0.000963066
0.00383659
-0.0236913
0.00322911
0.00393998
0.00132361
0.00492311
0.00214176
0.00403811
0.00217564
0.00351992
-0.00354467
-0.00783911
0.00245831
-0.00332604
0.0042935
7.02212e-05
0.00824033
0.00389727
-0.00286542
0.000351291
-0.00172303
0.00105477
0.00388372
0.00384197
-0.0120125
0.00246729
-0.0242968
-0.0481489
-0.00518747
-0.0695589
0.00715734
-0.0694669
-0.000133819
-0.0207421
0.00465082
0.004033
0.00151032
0.00132275
0.00213826
-0.00343297
-0.0352454
-0.00243412
0.00396284
0.00403766
-0.0110288
-0.00241988
-0.0371873
-0.0167329
-0.183208
0.0103061
-0.00407941
-0.00939484
-0.025245
0.00328444
0.00664297
0.0070578
-0.00886449
-0.048434
-0.0136642
0.00324082
-0.0232629
-0.00734949
0.0015994
0.00392227
0.00426036
-0.000502089
-0.00294106
-0.0093904
-0.00772815
0.00808314
0.00133258
0.00423528
0.00608044
-0.024911
-0.01089
0.00222947
0.00574188
0.00317404
8.98114e-05
-0.000432201
0.0015321
0.01108
0.0110164
0.00944801
-0.00888545
0.00185049
0.00260544
-0.00846754
0.00463821
0.00435034
0.00242209
0.000439472
0.00328585
0.00167899
0.00128603
0.00108776
-0.0136836
0.00786595
0.00371771
0.00158862
-0.0211067
0.0077447
-0.0172688
0.00755748
0.00416017
0.00369366
0.00376728
-0.00176298
0.00339171
0.00326169
-0.000534276
0.00425049
0.00404241
0.00399583
-0.0276825
0.00114689
0.00304154
0.00486649
-0.000609128
0.00394563
0.00387929
-0.0292164
-0.0200125
-0.0206759
-0.00127667
0.00391405
-0.0372315
-0.00193443
0.004316
0.00275199
-0.00508276
-0.00419502
-0.0227633
0.0041926
0.0038091
0.00321682
0.00870452
0.00373406
0.00717449
-0.00673693
-0.0173404
0.00287769
0.00245505
0.00234045
-0.0156526
0.00481143
-0.00181694
-0.0218659
0.0032902
0.0041512
-0.00161662
0.00436464
-0.00550048
0.00289611
-0.00471258
0.00190807
0.00260461
-0.00166844
0.000144973
0.00373845
-0.00809268
0.00345913
-0.0469599
-0.00805964
0.00652989
-0.00206372
0.00449399
0.00308497
-0.0525445
-0.0237096
-0.0038306
0.00404322
-0.00698968
0.0035048
0.00153085
0.00389155
0.00282608
0.00392576
0.00259377
-0.0231815
0.00400525
0.00154319
-0.00994148
0.000787598
0.00399968
0.00404674
0.00758705
0.0055704
0.00273636
0.0047894
-0.00340053
-0.00145991
-0.00325455