/*--------------------------------*- C++ -*----------------------------------*\
| =========                 |                                                 |
| \\      /  F ield         | OpenFOAM: The Open Source CFD Toolbox           |
|  \\    /   O peration     | Version:  v2012                                 |
|   \\  /    A nd           | Website:  www.openfoam.com                      |
|    \\/     M anipulation  |                                                 |
\*---------------------------------------------------------------------------*/
FoamFile
{
    version     2.0;
    format      ascii;
    class       surfaceVectorField;
    location    "50";
    object      Uf_0;
}
// * * * * * * * * * * * * * * * * * * * * * * * * * * * * * * * * * * * * * //

dimensions      [0 1 -1 0 0 0 0];


internalField   nonuniform List<vector> 
14516
(
(0.978377 0.124288 -4.45698e-21)
(0.96199 0.118675 0)
(0.979739 0.10442 4.15641e-21)
(0.99817 -0.00224524 5.73071e-24)
(0.998199 -0.00210166 -9.63566e-25)
(0.998342 -0.00224454 -7.6758e-23)
(0.999823 0.127236 5.89055e-21)
(0.970554 0.141025 5.84216e-21)
(1.01347 -0.00188833 0)
(1.01355 -0.00209729 1.79172e-22)
(1.01376 -0.00191477 4.69209e-22)
(0.427667 0.0507997 -3.57167e-21)
(0.390402 0.0792867 -3.09276e-21)
(0.407235 -0.023076 -1.07047e-21)
(1.02705 -0.0168261 -1.89504e-22)
(1.02736 -0.0165118 -9.70707e-23)
(1.02674 -0.0162388 3.17991e-22)
(1.00443 -0.000159681 3.30269e-22)
(1.00511 -0.00031012 -4.28383e-22)
(1.00566 -0.000391133 -4.25207e-22)
(1.00529 -0.00416241 4.50156e-22)
(1.0055 -0.00388716 3.80186e-24)
(1.0057 -0.00428166 1.04821e-21)
(1.0309 0.000996145 5.39522e-23)
(1.03105 0.00141331 -4.93182e-23)
(1.03143 0.000878328 3.97051e-23)
(0.465282 0.0843527 -7.99272e-21)
(0.475049 0.0182016 -1.99745e-20)
(1.01069 -0.0941725 -5.37891e-22)
(1.01013 -0.10173 -4.39525e-22)
(1.01889 -0.0968944 1.89235e-23)
(0.972714 0.0304626 -8.38779e-22)
(0.959486 0.0239676 -1.71318e-21)
(0.956617 0.0387331 4.51604e-21)
(1.01335 -0.00163325 2.503e-22)
(1.01319 -0.00180727 4.79014e-22)
(1.01302 -0.00895915 -1.71274e-22)
(1.01355 -0.00912014 -1.11355e-22)
(1.01334 -0.00859432 -1.14157e-22)
(1.00145 1.81943e-05 3.22081e-22)
(1.00142 4.89184e-05 0)
(1.01251 -0.00880476 1.13952e-22)
(1.01202 -0.00857363 2.15195e-22)
(1.01235 -0.00826673 3.99069e-23)
(1.01286 0.0144491 1.35015e-21)
(1.01234 0.0142428 6.02487e-22)
(1.01306 0.0138283 -5.23222e-22)
(1.01332 0.014636 -1.66373e-21)
(1.01258 0.0151272 6.36164e-22)
(0.857499 0.25248 1.36889e-20)
(0.810479 0.293795 -2.0884e-20)
(0.802546 0.275677 -1.87398e-20)
(1.01263 -0.0093441 -8.39737e-23)
(1.00327 -0.103252 -3.07611e-21)
(1.01454 -0.11844 1.11467e-20)
(1.01959 -0.101746 -2.19381e-21)
(1.03353 -0.00462898 1.32775e-22)
(1.03325 -0.00410638 -1.75959e-22)
(1.03301 -0.00463056 -1.28983e-22)
(1.05462 0.0210382 2.90201e-21)
(1.05148 0.0279705 8.26765e-22)
(1.05536 0.0220982 -8.29621e-22)
(1.00218 -0.00189878 0)
(1.00224 -0.00183539 3.58368e-24)
(1.01186 -0.0204666 -2.60061e-22)
(1.01296 -0.0207622 -1.76383e-22)
(1.01204 -0.0217442 -1.55986e-22)
(1.01308 -0.00129852 1.48261e-22)
(1.01345 -0.0014229 3.58049e-22)
(1.01085 -0.00886895 1.44942e-22)
(1.01128 -0.00913857 2.01969e-22)
(1.01082 -0.00943262 3.45257e-25)
(1.01027 0.0120115 -3.00379e-22)
(1.00961 0.0123322 -8.01613e-23)
(1.00954 0.0114407 8.69749e-22)
(0.97736 -0.0307954 0)
(0.983928 -0.0332694 0)
(0.982353 -0.026449 0)
(1.03035 0.00108622 0)
(1.03074 0.000631476 0)
(1.02258 -0.0148845 4.91268e-22)
(1.02134 -0.0144456 4.58559e-22)
(1.02175 -0.0166226 5.0161e-22)
(1.05799 0.0130139 -9.53026e-23)
(1.05546 0.0195116 3.45997e-21)
(1.0345 0.0530495 3.2795e-21)
(1.03934 0.0423233 -2.13941e-21)
(1.04953 0.0519177 6.05935e-21)
(1.00954 3.82844e-05 2.39362e-22)
(1.0095 -1.78134e-05 -2.64756e-22)
(1.00712 2.13659e-05 5.76629e-22)
(0.97091 -0.0266767 0)
(0.964986 -0.0216383 0)
(0.971202 -0.0177956 -7.05335e-22)
(0.994506 -0.165865 -2.65359e-21)
(1.00963 -0.196633 -5.83753e-21)
(0.97611 -0.19127 -9.14623e-21)
(1.0037 -9.47873e-05 3.08858e-22)
(1.00256 -2.22213e-05 -6.89938e-23)
(1.03416 -0.004617 2.12028e-22)
(1.03366 -0.00515926 3.27424e-22)
(1.00396 -0.00569322 3.28981e-22)
(1.00354 -0.00596032 0)
(1.00411 -0.00634624 0)
(1.01035 0.000850158 0)
(1.00979 0.000774089 2.73324e-22)
(1.01051 0.00106402 0)
(1.02379 -0.0155205 -1.08291e-21)
(1.02378 -0.0135401 -9.52409e-22)
(1.00312 0.000110097 -1.62096e-22)
(1.00131 1.58237e-05 -4.8177e-23)
(1.01198 -0.000907924 3.77378e-22)
(1.01247 -0.00102472 3.08855e-22)
(1.01182 -0.000917253 9.10155e-22)
(1.00489 -0.000136452 4.4595e-22)
(1.00428 -0.000171869 5.05589e-22)
(1.00562 -0.000178263 -1.96622e-22)
(1.01005 -0.000530284 -5.31508e-22)
(1.01226 -0.00081343 -3.84595e-22)
(1.01273 -0.00121875 2.78362e-22)
(0.971629 -0.0359137 0)
(1.02877 -0.0353296 4.96616e-23)
(1.02556 -0.0373348 3.26869e-21)
(1.02575 -0.0330625 -7.19819e-22)
(1.07899 -0.0190362 0)
(1.08144 -0.00947026 4.3867e-22)
(1.07004 -0.0123063 5.20991e-23)
(1.01369 -0.00228753 7.25606e-22)
(1.01341 -0.00227475 4.30065e-22)
(0.957006 -0.0179994 0)
(0.957976 -0.0283695 2.03685e-21)
(0.985753 -0.0922198 -4.22539e-22)
(0.99033 -0.0998127 -7.71214e-24)
(0.994866 -0.0919886 -7.95827e-24)
(1.02915 -0.0164813 -4.86332e-23)
(1.0289 -0.0169573 9.72521e-23)
(1.02974 -0.0171421 4.55574e-23)
(1.03026 -0.00309257 -4.30394e-22)
(1.02992 -0.00295148 -2.7742e-22)
(1.02993 -0.00329257 8.30636e-23)
(0.819976 -0.0791912 -1.26242e-20)
(0.813022 -0.100458 7.66225e-22)
(0.838144 -0.0897663 -7.01979e-21)
(0.871024 -0.0817939 -5.70015e-22)
(0.844056 -0.0898967 4.82844e-22)
(0.846731 -0.0654492 -1.51398e-21)
(1.02456 0.00206306 1.12936e-22)
(1.02412 0.00201766 9.59052e-22)
(1.0468 -0.176874 0)
(1.05746 -0.168889 0)
(1.04396 -0.165546 4.42375e-21)
(1.03474 -0.0239803 -6.51131e-21)
(1.01467 0.0323768 -9.94409e-23)
(0.999349 -0.0173106 8.14646e-21)
(1.00436 -0.00554475 6.12789e-22)
(1.00388 -0.00525066 2.75363e-22)
(1.00933 0.000329284 0)
(1.00889 0.000339736 -3.01313e-24)
(1.01023 0.000359131 0)
(1.0313 -0.0153706 -1.74185e-23)
(1.03111 -0.0159962 1.0443e-23)
(1.03206 -0.0159891 -2.46454e-23)
(1.12017 0.00394601 -2.84887e-20)
(1.10907 0.0216715 -6.13442e-21)
(1.10577 0.0295793 -5.92034e-21)
(1.0171 -0.000532121 0)
(1.01758 -0.000750688 -1.1347e-21)
(1.01672 -0.000555179 2.54392e-23)
(0.459753 -0.230514 0)
(0.41617 -0.174885 0)
(1.01805 0.0644588 -4.94671e-22)
(1.02022 0.0534547 1.85186e-23)
(1.01982 0.0525419 -1.631e-21)
(1.12466 -0.0141291 5.70532e-21)
(1.13055 -0.0320576 4.5753e-21)
(1.12186 -0.0223539 -1.3389e-21)
(1.11391 -0.0266222 -8.32803e-22)
(1.12173 -0.0426533 -9.44245e-22)
(0.984029 0.0333917 7.21365e-22)
(0.983339 0.0210111 1.64408e-21)
(1.00364 -0.0893336 0)
(1.01273 -0.0849968 -3.47334e-22)
(0.798911 -0.0671592 5.41843e-21)
(0.826602 -0.055679 -5.70479e-21)
(1.00252 -0.000159198 0)
(1.00253 -0.000137384 -3.07536e-24)
(1.00272 -0.000190019 0)
(1.01865 -0.00781936 -2.93284e-22)
(1.01911 -0.00794734 1.86201e-22)
(1.01892 -0.00821123 8.55573e-23)
(0.999242 -0.00315307 -3.40336e-24)
(0.999378 -0.00318108 -3.23262e-25)
(0.999276 -0.00331108 1.2208e-23)
(0.952856 -0.00944089 3.88394e-21)
(0.945697 -0.0161547 0)
(1.05545 -0.075948 -1.5434e-20)
(1.06654 -0.0314191 -7.56326e-21)
(1.02482 0.00182293 5.90763e-22)
(1.0251 0.00155755 5.12638e-22)
(1.02459 0.00154647 1.29503e-21)
(1.0015 -0.00275727 6.51151e-25)
(1.00143 -0.00268394 -5.70826e-25)
(1.0014 -0.00280896 -3.74544e-23)
(1.0002 0.014433 -9.08709e-22)
(0.999576 0.0132681 -1.71126e-22)
(1.00073 0.0133298 8.44698e-23)
(1.00787 0.0132762 0)
(1.00704 0.0125843 1.09222e-21)
(1.00807 0.0124938 0)
(1.02057 0.0719945 3.64988e-22)
(1.01631 0.0739435 2.8389e-22)
(0.996437 0.0115136 0)
(0.996115 0.0101444 0)
(0.997403 0.0106353 0)
(0.99797 -0.00188664 4.87393e-23)
(0.998048 -0.0017981 -2.35931e-24)
(0.997895 -0.00179144 -1.69723e-23)
(1.04044 -0.0173313 -1.61041e-22)
(1.03962 -0.0212039 -1.37318e-22)
(1.03688 -0.0177576 -4.55041e-22)
(1.02477 -0.0160394 1.78057e-21)
(1.024 -0.0172056 -3.92377e-22)
(1.03445 -0.0304552 -3.0802e-22)
(1.03182 -0.0333084 -2.09432e-21)
(1.03102 -0.0289816 -1.18884e-22)
(1.0076 0.0141524 -1.18997e-22)
(1.0087 0.0139374 -9.07116e-22)
(1.02531 0.00131222 -6.25506e-22)
(1.02551 0.00103921 5.59034e-23)
(1.02505 0.0010417 -5.61437e-22)
(1.03066 -0.0148353 0)
(1.03001 -0.0142311 0)
(1.02978 -0.0147824 9.72386e-23)
(0.993717 0.00741641 0)
(0.993673 0.00890196 0)
(0.99226 0.00803963 0)
(0.998 -0.0022456 3.36753e-23)
(0.998154 -0.00238768 1.22136e-22)
(0.647683 -0.212561 3.29566e-21)
(0.603836 -0.208671 4.39085e-21)
(0.639789 -0.177379 -3.30679e-21)
(1.01847 0.00243106 -1.11459e-22)
(1.01895 0.00269371 -2.00521e-22)
(1.01893 0.00213625 -3.9103e-22)
(1.06033 0.0050414 0)
(1.05991 0.00564805 0)
(1.03154 -0.0147566 0)
(1.04494 -0.0171393 -5.32633e-24)
(1.04068 -0.0137105 -4.84234e-24)
(0.896039 -0.0751121 3.02814e-21)
(0.892473 -0.0968663 -8.33024e-22)
(0.998077 -0.00199845 -1.54069e-23)
(0.9979 -0.00199674 -6.25565e-24)
(1.01801 0.00262878 2.87068e-22)
(1.018 0.00214358 -3.78449e-22)
(1.01691 -0.000898325 2.33704e-22)
(1.01726 -0.000729324 3.03935e-22)
(1.01678 -0.000541182 -3.16699e-22)
(1.01702 -0.00131616 -1.06296e-22)
(1.0166 -0.00112272 -3.86601e-22)
(0.993243 2.7881e-05 6.70067e-22)
(0.992645 0.00123327 6.90184e-22)
(0.991861 -5.1536e-05 0)
(1.01349 0.0061857 5.78191e-22)
(1.01391 0.00614535 3.71538e-22)
(1.01367 0.00655677 -1.43069e-23)
(1.01331 0.00581157 -2.65646e-22)
(1.01306 0.00616328 -5.9857e-22)
(1.0016 -0.00269349 1.92856e-23)
(1.00157 -0.00283427 1.41536e-23)
(1.02532 -0.0165557 4.04916e-22)
(1.02543 -0.0154857 1.95056e-22)
(1.02966 -0.0138149 0)
(1.03042 -0.0137897 -9.83976e-23)
(1.00617 0.00054273 -1.11429e-22)
(1.00646 0.000517014 -2.20953e-22)
(1.00759 0.00075665 1.51465e-22)
(1.02862 -0.0158508 -5.08478e-23)
(1.0294 -0.0159273 -1.40062e-22)
(1.01283 -0.0399689 -9.87078e-24)
(1.01003 -0.0379406 -1.75561e-23)
(1.01243 -0.0356278 -1.7206e-23)
(1.00254 -0.000174543 1.40184e-23)
(1.00228 -0.000122421 7.25399e-24)
(0.965234 -0.0686458 -7.30141e-22)
(0.966371 -0.054961 5.16127e-21)
(0.952246 -0.0604304 -4.80564e-22)
(1.02259 0.00183964 0)
(1.02294 0.00183762 1.06404e-22)
(0.839942 -0.178554 1.17357e-20)
(0.841394 -0.145361 -8.29285e-22)
(0.812901 -0.153279 -7.9209e-22)
(0.982103 -0.0846988 -3.22693e-22)
(0.97643 -0.0927244 -1.12221e-21)
(1.02506 0.00207945 -8.09199e-25)
(1.0268 0.0247312 -3.63353e-23)
(1.02624 0.0119354 -4.64404e-21)
(1.02303 0.0127019 5.73105e-21)
(0.947627 -0.00104549 -1.43919e-21)
(0.958675 -0.00279703 8.02455e-21)
(0.996854 0.0128785 0)
(0.995366 0.0125536 0)
(1.06077 0.00484036 0)
(1.06201 -0.00243163 0)
(1.01586 -0.0412864 -3.31608e-22)
(1.01288 -0.0444424 -4.72723e-22)
(1.00167 -4.25748e-05 -3.47233e-24)
(1.00105 -2.48775e-05 7.33318e-24)
(1.00112 -3.14357e-05 5.51026e-24)
(1.02386 -0.00205875 1.41127e-23)
(1.0242 -0.00215693 5.22082e-22)
(1.0241 -0.00185442 1.6274e-21)
(1.02664 -0.0169531 -2.82341e-23)
(1.02726 -0.0173257 -2.20478e-22)
(1.03207 -0.00450856 -1.76196e-22)
(1.03195 -0.00474784 -1.35775e-22)
(1.03177 -0.00443839 1.81941e-22)
(0.986544 -0.103345 -2.13753e-22)
(0.997345 -0.09032 -2.69419e-22)
(1.06427 -0.0652246 -3.20499e-21)
(1.06738 -0.0611419 0)
(1.06216 -0.0609762 -3.03497e-21)
(1.03658 -0.0276253 0)
(1.03861 -0.0322346 0)
(1.00089 0.0155415 -9.81579e-22)
(0.999588 0.0156644 2.42164e-22)
(1.01989 -0.00601545 1.14811e-22)
(1.01995 -0.00573457 -1.58172e-22)
(1.01958 -0.00580777 -4.89691e-22)
(1.00265 -0.000259317 8.4493e-24)
(1.00245 -0.000183598 1.15043e-23)
(1.00279 -0.000317444 -8.24219e-23)
(1.02557 0.0015632 -9.14045e-22)
(1.01992 -0.0062241 -3.16061e-23)
(1.02025 -0.00614552 -3.58869e-22)
(0.992335 -0.00627869 3.06217e-22)
(0.992354 -0.00774937 0)
(0.993595 -0.00712155 0)
(1.02986 0.00115788 0)
(1.03005 0.00151556 0)
(1.0257 0.000772835 6.43785e-22)
(1.02591 0.000475279 0)
(1.02546 0.000512132 -7.32165e-23)
(1.01533 -0.000292974 0)
(1.01733 -0.000472244 0)
(1.00441 -4.84356e-05 0)
(1.00555 -0.000160466 -1.52939e-22)
(1.02247 0.00157107 -7.98442e-22)
(1.02222 0.0017853 0)
(1.00761 -0.00131041 1.1261e-22)
(1.00769 -0.00153328 3.24323e-23)
(1.00784 -0.00143647 -1.72925e-22)
(1.02362 -0.00223725 -5.10361e-22)
(1.02352 -0.0019349 -4.80893e-22)
(1.00966 -0.019811 -5.73893e-22)
(1.01077 -0.0201333 -5.624e-22)
(1.00971 -0.0209596 -4.60549e-22)
(1.00937 -0.00124617 -3.55149e-22)
(1.00972 -0.00137573 5.48782e-22)
(1.00937 -0.00114604 -5.29056e-22)
(1.01717 -0.00275396 2.39565e-22)
(1.01685 -0.00288168 3.26114e-23)
(1.01707 -0.00329969 -5.4543e-22)
(1.01371 -0.00973314 1.00725e-22)
(1.0141 -0.00928926 1.01647e-22)
(1.01448 -0.0105605 -8.98763e-23)
(1.01387 -0.0103703 -9.32327e-23)
(1.01393 -0.0110463 -8.03325e-23)
(0.999403 -0.00276724 -8.17895e-26)
(0.999483 -0.00262673 -8.9846e-25)
(0.999385 -0.00259263 -5.58001e-23)
(1.01718 -0.00226396 -2.05419e-22)
(1.01758 -0.00261449 -2.84225e-23)
(1.01654 0.00322272 -8.07712e-22)
(1.01704 0.0030051 -5.21281e-22)
(1.01689 0.00359884 -3.4919e-22)
(0.685577 -0.216506 -9.83472e-23)
(0.650919 -0.250365 -5.03949e-21)
(0.576283 0.345633 -3.78047e-21)
(0.591135 0.354801 -5.47897e-21)
(0.571764 0.363129 4.32343e-21)
(1.00298 -0.0003525 2.48551e-23)
(1.00254 -0.000214976 -9.86478e-25)
(0.584712 0.326985 -1.31018e-22)
(0.558043 0.335044 -3.48969e-21)
(0.483968 0.149229 1.76945e-20)
(0.511017 0.102524 7.87878e-22)
(1.01606 0.00344967 3.87804e-23)
(1.01617 0.00289961 -2.06331e-22)
(1.00212 -8.61797e-05 -1.56889e-23)
(1.00203 -6.14985e-05 -3.82713e-23)
(1.00597 -0.000499417 0)
(1.00591 -0.000440194 6.81302e-23)
(1.00624 -0.000587309 0)
(1.00864 -0.0193454 1.69671e-24)
(1.00962 -0.0187497 4.75636e-22)
(1.01713 -0.00175354 4.75335e-23)
(1.01681 -0.00196192 1.24004e-22)
(1.00936 -0.00136042 8.29684e-22)
(1.00905 -0.00104867 1.01388e-22)
(1.00513 -0.00449191 -1.51524e-22)
(1.00492 -0.00407966 0)
(1.01071 0.0116148 -8.38991e-22)
(1.01089 0.0123935 3.84462e-22)
(1.01035 -0.00769919 2.20021e-22)
(1.00997 -0.00751411 -6.19286e-23)
(1.00998 -0.00793475 9.13622e-23)
(0.903439 0.203579 4.78749e-20)
(0.951631 0.143619 -1.03625e-21)
(0.900839 0.156304 2.69159e-20)
(0.999192 -0.00285986 -2.06065e-23)
(0.999216 -0.00301486 7.33958e-24)
(0.999322 -0.00287571 -8.53391e-25)
(1.00511 -0.142446 1.81373e-21)
(1.02757 -0.137629 -7.54948e-22)
(1.03247 -0.0381797 2.74328e-21)
(1.02214 -0.00286465 -5.71713e-22)
(1.02389 -0.00366355 2.41964e-23)
(1.0236 -0.00190193 -2.74301e-23)
(1.0108 -0.00836452 -8.82315e-23)
(1.01041 -0.00860725 5.0565e-23)
(0.996003 -0.000907278 -1.24433e-21)
(0.995559 6.422e-05 -1.27082e-21)
(0.996585 0.000120132 2.08661e-22)
(1.01732 -0.0126474 2.2807e-22)
(1.01762 -0.01217 5.18036e-22)
(1.01693 -0.0122052 5.46284e-22)
(1.01221 0.0419748 0)
(1.04004 0.0697006 -1.34579e-21)
(1.02531 0.0599594 0)
(0.999045 -0.00285123 3.63118e-23)
(0.999156 -0.00273403 7.74212e-24)
(0.997688 0.0228159 -2.65307e-21)
(0.988978 0.0140116 -4.71474e-22)
(1.03231 -0.00396638 0)
(1.0322 -0.00426556 -3.88447e-23)
(1.03198 -0.00389541 0)
(0.907247 0.231487 1.14096e-20)
(1.02598 0.00102858 5.82871e-22)
(1.00248 -0.00180117 -1.26096e-23)
(1.00254 -0.00171255 0)
(1.00261 -0.00177505 0)
(1.02027 -0.00705954 3.50346e-22)
(1.02067 -0.00718041 1.67033e-22)
(1.02036 -0.00680242 1.46848e-22)
(1.02572 -0.0240424 -1.25039e-22)
(1.02304 -0.0244742 5.63688e-22)
(1.02531 -0.0265285 -9.75919e-23)
(1.12496 -0.421901 1.01627e-20)
(1.1266 -0.462024 4.01906e-20)
(1.16609 -0.446376 -2.3678e-20)
(1.03924 -0.00519786 -7.18538e-22)
(1.03877 -0.00453289 4.74474e-22)
(1.03837 -0.00523634 4.01299e-22)
(1.01752 -0.00159321 2.37765e-22)
(1.01162 -0.0193471 -5.09592e-22)
(1.0249 -0.201899 0)
(1.01511 -0.166767 -7.53283e-22)
(0.990961 -0.207629 3.87133e-22)
(1.01835 -0.007472 0)
(1.01817 -0.00770777 3.15925e-22)
(1.03584 -0.184428 0)
(1.05068 -0.19037 0)
(1.02016 -0.00729836 -2.14668e-22)
(1.0199 -0.00692977 1.72347e-22)
(1.02377 -0.00287164 4.96779e-22)
(1.0235 -0.00304418 2.89303e-23)
(1.02384 -0.00319502 2.19715e-23)
(1.01075 -0.00790443 -3.16911e-23)
(1.01066 -0.00747557 9.19525e-23)
(1.03272 -0.0040565 1.19066e-23)
(1.03244 -0.0036299 0)
(1.0202 0.000209919 2.42626e-23)
(1.02025 8.09634e-05 -5.61495e-24)
(1.02039 0.000234238 4.86307e-22)
(1.07372 -0.0275282 -2.10129e-22)
(1.08662 -0.0271735 1.32666e-21)
(0.966464 -0.082976 -3.89842e-23)
(0.97917 -0.074841 -2.34376e-21)
(1.11656 0.000243922 1.5217e-21)
(1.02832 -0.0240395 0)
(1.02641 -0.0221409 0)
(0.858088 0.199178 -1.80427e-21)
(0.873 0.176263 0)
(0.902879 0.188204 0)
(0.997898 0.00450582 4.22124e-22)
(0.997219 0.00382718 -1.44749e-23)
(0.99803 0.0035208 -1.05622e-22)
(0.468929 0.204569 -9.61746e-22)
(0.52867 0.195599 1.57553e-22)
(1.0074 -0.00119635 1.3427e-22)
(1.00752 -0.00111854 1.53414e-22)
(1.02946 0.00118203 5.74858e-22)
(1.02979 0.000848506 3.38484e-22)
(1.00359 0.0849601 -2.70884e-20)
(1.02166 0.0164209 0)
(1.05343 0.0271737 2.11709e-20)
(0.843231 -0.114587 -2.76207e-23)
(0.816441 -0.0987928 -4.25708e-23)
(1.02 -0.00551105 -5.73665e-22)
(1.0197 -0.00529856 -2.55216e-22)
(1.02006 -0.0052765 1.176e-23)
(1.02609 0.000196775 2.65874e-23)
(1.02635 0.000449675 0)
(1.0017 -0.00263792 8.74798e-23)
(1.00162 -0.00255657 2.14691e-23)
(0.980017 -0.139013 -7.60294e-22)
(1.01463 -0.00656169 -3.65186e-22)
(1.01418 -0.00654619 0)
(1.0144 -0.00700391 1.4507e-22)
(1.02575 -0.0167656 -4.47063e-23)
(1.02539 -0.0174762 5.69884e-22)
(1.0326 -0.00673692 9.82845e-23)
(1.03224 -0.00642959 -6.82568e-23)
(1.03267 -0.00629246 -4.42309e-23)
(1.00905 -0.0179618 4.1698e-22)
(1.01246 -0.0198542 8.94633e-22)
(1.00882 -0.02133 4.30211e-22)
(1.06828 -0.0337917 -5.65899e-22)
(1.06326 -0.0266494 -4.61934e-21)
(1.08245 0.000987207 4.31812e-22)
(1.09369 -0.00473174 -2.70448e-21)
(1.03055 -0.00338714 6.21891e-22)
(1.0306 -0.00300574 3.60747e-22)
(0.839951 0.218965 -1.41146e-20)
(0.811773 0.20391 2.85653e-21)
(1.00574 -0.000401889 4.08592e-23)
(1.006 -0.000573107 0)
(0.99525 -0.00299069 3.86044e-22)
(0.994995 -0.00412545 -7.06447e-22)
(0.996019 -0.00380497 -6.30567e-22)
(1.03047 -0.219876 -4.62007e-21)
(1.05469 -0.194843 0)
(1.00181 -0.00259227 -2.64633e-23)
(1.00177 -0.00271711 -1.9748e-23)
(1.00712 0.144643 1.03852e-21)
(0.994172 0.166928 -4.04367e-21)
(0.981735 0.158697 -1.33999e-21)
(0.931549 0.0309048 9.89996e-21)
(0.941439 0.0399613 6.17494e-21)
(0.926972 0.0457617 1.7509e-21)
(1.02443 -0.000723766 -1.72306e-21)
(1.02464 -0.000458965 -2.89087e-22)
(1.02423 -0.000486366 -6.11737e-22)
(1.0324 -0.00462141 2.1614e-23)
(1.02014 0.00032864 0)
(1.02004 0.000184797 0)
(1.03846 -0.0242793 0)
(1.04293 -0.0249389 0)
(0.994399 0.131316 -2.16303e-20)
(1.02809 -0.0167807 -1.19224e-22)
(1.02761 -0.0161154 -8.53577e-23)
(1.01568 0.00365992 3.32729e-23)
(1.0154 0.00333797 -2.21214e-22)
(1.0153 0.00387794 -4.89684e-22)
(0.936593 0.0193541 7.37673e-22)
(0.9222 0.0227435 5.30725e-21)
(1.00996 -0.0745482 1.65796e-21)
(1.00281 -0.0760677 -1.46792e-22)
(1.00589 -0.069687 -1.19814e-22)
(1.00225 -0.00201955 -5.31243e-24)
(1.00213 -0.00197637 -5.64101e-25)
(1.00237 -0.00183183 -3.24323e-23)
(1.0023 -0.00172762 3.19221e-24)
(1.0401 -0.00524945 -1.9393e-22)
(1.03954 -0.0061084 -7.59126e-22)
(1.00698 -0.000875077 2.86205e-23)
(1.00718 -0.00105518 4.68452e-23)
(1.00715 -0.000855597 -5.15064e-23)
(1.0485 -0.0804189 1.34591e-21)
(1.05337 -0.0767325 3.36684e-21)
(1.04719 -0.0749697 8.28607e-22)
(1.01857 0.122806 3.36257e-22)
(1.032 0.125882 -1.54399e-21)
(1.02236 0.00133372 -7.45908e-22)
(1.02203 0.00128595 2.34659e-23)
(1.02226 0.00109943 7.46411e-22)
(1.01608 -0.0107422 -2.40703e-23)
(1.01635 -0.0112395 1.78217e-22)
(1.0158 -0.0111177 -2.19587e-22)
(0.90031 -0.0550949 -4.69081e-22)
(0.91731 -0.0704132 -4.22764e-21)
(0.994267 0.00341037 -4.42647e-24)
(0.995185 0.00442197 1.52448e-21)
(0.993903 0.00472191 -1.5062e-21)
(1.02591 -0.0170069 0)
(1.02605 -0.0164689 0)
(1.01474 -0.00843036 3.97066e-22)
(1.01443 -0.00885818 3.34898e-22)
(1.01418 -0.00832193 1.38384e-23)
(1.01471 -0.0108173 -3.29163e-25)
(1.01416 -0.0106614 2.82454e-23)
(1.01439 -0.0112033 -3.65776e-24)
(1.02505 0.0526901 2.84306e-21)
(1.03082 0.0625762 1.23755e-21)
(1.01582 -0.0102834 -1.72538e-22)
(1.0153 -0.0101305 5.49453e-23)
(1.01557 -0.00980149 6.85941e-23)
(1.01751 0.00284225 3.21868e-22)
(1.01708 0.00251116 5.73752e-24)
(1.00535 -0.00346311 -4.76102e-23)
(1.00573 -0.00361339 1.37602e-22)
(1.0076 -0.0188476 -2.02651e-22)
(1.00746 -0.0199524 -1.04844e-22)
(1.01794 0.00319019 3.92176e-22)
(1.01063 -6.32537e-05 -3.56089e-22)
(1.00932 7.93733e-05 0)
(1.02965 -0.00673572 7.02062e-22)
(1.02954 -0.00644034 9.89525e-23)
(1.0299 -0.00654748 1.52041e-22)
(1.0293 -0.0119877 1.6519e-23)
(1.03056 -0.0122545 0)
(1.02999 -0.0111376 1.22782e-24)
(0.978752 -0.0760211 3.50071e-22)
(0.987273 -0.0767516 3.70209e-22)
(1.06119 -0.0693379 -3.79025e-22)
(1.05744 -0.0732384 4.74831e-21)
(1.05575 -0.0683314 -6.72663e-22)
(1.01376 -0.00968149 0)
(1.01356 -0.00922443 -4.69939e-22)
(1.01325 -0.00952541 -2.81029e-22)
(1.03663 -0.00508443 -4.23265e-22)
(1.03662 -0.00606764 2.49808e-24)
(1.0377 -0.00543344 1.12001e-24)
(1.01786 -0.0118074 -4.93675e-24)
(1.01745 -0.0113855 2.70113e-22)
(1.0181 -0.0114646 -2.94485e-22)
(1.02815 -0.0116162 1.64528e-22)
(1.02867 -0.0130188 1.51724e-23)
(1.02483 -0.0165337 0)
(1.02518 -0.016586 0)
(1.02481 -0.0163132 -4.93084e-23)
(1.01511 -0.00559244 1.07443e-22)
(1.01485 -0.00612696 -5.24107e-22)
(1.01467 -0.00561934 4.9703e-22)
(0.972519 -0.0826296 0)
(0.971127 -0.0743536 -7.26776e-22)
(0.957442 -0.0827381 0)
(1.01636 -0.0103938 5.18182e-22)
(0.969806 -0.0753564 -3.31064e-22)
(0.976211 -0.0679607 0)
(1.00782 -0.000113521 6.15036e-23)
(1.00894 -0.000359992 -5.00328e-24)
(1.00836 -0.000241163 2.24502e-22)
(1.02069 -0.00421448 -1.35386e-21)
(1.02025 -0.00175227 1.42635e-22)
(1.00202 -0.00233979 0)
(1.00192 -0.00238222 0)
(1.00195 -0.00227944 0)
(1.00211 -0.00239107 0)
(1.00211 -0.00226214 -1.22387e-24)
(1.00599 -0.0160228 -1.17378e-22)
(1.00998 -0.0148917 -1.23142e-22)
(1.0324 -0.0540981 1.41063e-20)
(0.986236 -0.00550628 9.72928e-21)
(1.02904 -0.0135091 -6.72847e-23)
(1.02847 -0.0137324 -2.11516e-22)
(1.02838 -0.0130769 1.68795e-22)
(1.01548 -0.00566575 -3.01015e-22)
(1.01532 -0.00515541 1.27194e-22)
(1.01008 -0.00559154 -1.93719e-22)
(1.01037 -0.00570587 -1.33918e-22)
(1.01036 -0.00538575 3.93501e-23)
(1.03723 0.005445 0)
(1.03515 0.00452498 5.39693e-22)
(1.03717 0.00351487 0)
(1.0248 -0.00022479 6.70595e-22)
(1.02501 1.19028e-05 7.62232e-23)
(1.0246 2.76468e-05 -8.20607e-23)
(0.998429 -0.00255201 1.0776e-24)
(0.998361 -0.00266383 0)
(0.998268 -0.00249116 -6.36617e-24)
(0.998492 -0.00246496 1.00801e-24)
(0.998582 -0.0026135 5.85326e-23)
(1.02031 -0.00568227 0)
(0.967437 -0.0996413 -1.05069e-22)
(0.950216 -0.0934392 -7.2921e-21)
(1.01971 -0.000278527 -1.93848e-21)
(1.01966 -0.000222035 0)
(1.01973 -0.00019302 0)
(1.06669 -0.0699539 6.46946e-22)
(1.00657 -0.0182411 0)
(1.00771 -0.0178252 4.74455e-22)
(1.00229 -0.00221559 -1.21553e-23)
(1.00226 -0.00211827 9.56109e-24)
(1.00218 -0.00219219 4.11378e-24)
(1.00504 0.000266249 1.50071e-22)
(1.00323 0.000108448 -5.43651e-22)
(1.00485 0.000231533 -6.92047e-22)
(1.01083 0.000848145 0)
(1.01021 0.000728142 0)
(1.02429 -0.000989804 -3.47765e-22)
(1.02462 -0.000920654 -6.73653e-22)
(1.02977 -0.00703749 3.50862e-22)
(1.02939 -0.00692023 -1.45473e-23)
(1.02271 -0.00710221 1.16753e-21)
(1.02412 -0.00800948 3.08539e-22)
(1.02402 -0.00642625 1.42705e-22)
(1.0068 -0.000662678 7.41978e-22)
(1.00648 -0.000504306 3.63646e-22)
(1.00694 -0.000713875 -3.1392e-22)
(1.02584 -4.90351e-05 -5.61834e-22)
(1.02626 -9.60159e-05 6.38098e-22)
(1.02271 0.00137047 2.03079e-22)
(1.03146 0.0333612 0)
(1.02428 0.0344033 0)
(1.02823 -0.0147755 1.31676e-22)
(1.02806 -0.0152611 0)
(1.02754 -0.014753 0)
(1.00256 -0.000132323 -5.14564e-22)
(1.00322 -0.000429705 -4.6624e-24)
(1.00282 -0.000205182 -3.52425e-24)
(1.00319 -0.000319655 -8.97817e-24)
(0.992599 -0.00488507 6.11734e-22)
(0.991187 -0.00538626 -3.41888e-22)
(1.03157 -0.00516955 -1.01991e-22)
(1.03149 -0.00524774 9.85248e-23)
(1.03143 -0.00511627 2.36296e-23)
(1.02111 -0.00597724 3.23105e-22)
(1.02117 -0.00804757 5.91811e-22)
(1.01925 -0.000733878 0)
(1.0193 -0.00085254 -1.04404e-21)
(1.01938 -0.000725514 7.2897e-22)
(0.651355 -0.0369352 -2.65012e-21)
(0.635487 0.0616063 4.5169e-21)
(0.700155 -0.00836788 8.37107e-20)
(1.01593 0.00401984 7.85216e-22)
(1.0726 0.135852 -2.36349e-22)
(1.07741 0.143276 7.05439e-22)
(1.06879 0.141375 -4.72213e-21)
(1.03901 -0.0578757 0)
(1.05894 -0.0485975 0)
(1.04205 -0.0781551 2.0453e-21)
(1.00418 0.000321863 1.2761e-22)
(1.00604 0.000517668 -1.6017e-22)
(1.00424 9.62471e-05 -7.56312e-23)
(1.00476 6.04894e-05 1.46162e-21)
(1.00546 4.84175e-05 4.91706e-22)
(1.01623 -0.0042824 1.55462e-22)
(1.01642 -0.0038847 -4.47647e-23)
(1.01669 -0.00434868 3.91911e-23)
(1.03943 0.00623734 0)
(1.0369 0.00775544 0)
(1.02869 -0.00193421 -3.1099e-24)
(1.02807 -0.0025781 -1.86026e-22)
(1.02895 -0.00279094 -3.10019e-22)
(1.00579 -0.0176554 7.77647e-24)
(1.00602 -0.0166847 8.16394e-24)
(1.005 -0.0169815 -5.02646e-25)
(1.07068 0.125639 4.02846e-22)
(1.07798 0.131068 8.62817e-22)
(1.0193 -0.000225344 2.36678e-23)
(1.01887 -0.000283925 -1.57128e-22)
(1.01942 -3.18112e-05 6.32035e-22)
(1.01603 -0.00466957 -8.28736e-22)
(1.01587 -0.00422114 1.77893e-22)
(1.02942 -0.00128761 -2.20727e-23)
(1.02833 -0.000796393 -4.10404e-22)
(1.03001 -0.00845437 0)
(1.0303 -0.00815464 0)
(1.0305 -0.00856842 0)
(1.02851 -0.00535651 5.97212e-22)
(1.02817 -0.0052993 4.01586e-23)
(1.02843 -0.00506024 5.85248e-22)
(0.994923 0.00695753 -5.73453e-22)
(0.993697 0.00607427 -7.36608e-22)
(1.03486 -0.023786 0)
(1.01152 -0.0121112 0)
(1.01166 -0.0127571 0)
(1.01099 -0.0124266 0)
(1.03371 0.00365106 5.29817e-22)
(1.03387 0.00211911 -3.56853e-22)
(1.03221 0.00267279 0)
(1.0325 -0.00714027 -1.76999e-23)
(1.03302 -0.00696384 2.20327e-22)
(1.01105 -0.00985164 -2.63997e-22)
(1.01117 -0.0103994 -5.18027e-22)
(1.01063 -0.0100781 3.21768e-24)
(0.999099 -0.00313028 3.78511e-24)
(0.830993 0.274621 -6.65595e-21)
(0.853585 0.255289 -1.48156e-20)
(0.882886 0.257735 -1.05734e-21)
(0.999471 -0.00306009 -4.12432e-24)
(0.999511 -0.00321446 -8.88871e-24)
(1.00187 -0.00249241 -4.08063e-24)
(1.00194 -0.00258907 -2.34232e-23)
(1.09959 -0.406834 -1.09301e-20)
(1.1279 -0.398253 1.28628e-20)
(1.03142 -0.00528081 2.05021e-22)
(1.0314 -0.00529358 9.76391e-23)
(1.03137 -0.00525568 3.15731e-23)
(0.989347 0.0892615 6.40741e-21)
(1.02247 0.0752085 -7.84069e-21)
(0.942622 0.00767782 -9.73631e-21)
(0.934508 0.00131836 3.20885e-21)
(1.00988 -0.00677807 -2.79456e-23)
(1.00984 -0.00644916 9.3087e-23)
(1.00956 -0.00663585 1.85354e-22)
(1.04535 -0.00879955 0)
(1.04607 -0.0102049 0)
(0.949993 0.0158698 -2.31735e-21)
(0.99447 0.000100529 -4.49282e-22)
(0.993797 -0.00110866 9.71602e-22)
(1.02597 -0.0170436 -8.61142e-23)
(1.02588 -0.0174534 0)
(0.995531 -0.107376 0)
(1.0028 -0.106435 0)
(0.998431 -0.115669 -4.35475e-22)
(1.0053 -0.00301075 -4.20272e-22)
(1.00554 -0.00287529 -5.18892e-22)
(1.00524 -0.00265402 5.74527e-22)
(1.0108 -0.000582596 5.17382e-24)
(1.01197 -0.00101352 -5.83789e-22)
(1.02905 0.0013761 -6.10745e-22)
(1.02897 0.000988788 5.78423e-22)
(1.01116 -0.000244883 -2.85928e-22)
(1.01129 -0.00020835 2.18865e-23)
(1.01021 -0.000135668 2.53127e-22)
(1.00961 0.013057 8.28427e-22)
(1.00886 0.0124156 1.94263e-22)
(0.891899 0.156847 0)
(0.935685 0.153308 2.67235e-21)
(0.913659 0.142236 2.72868e-21)
(1.02001 -0.00750831 -9.72523e-22)
(1.02044 -0.00766355 -3.63196e-22)
(1.01097 -0.00934382 0)
(1.01147 -0.00962559 0)
(0.664231 -0.134235 -2.64797e-20)
(0.99344 0.00235239 3.55209e-22)
(0.994773 0.00225098 -6.07235e-22)
(1.01167 -0.00886441 1.61542e-22)
(1.01159 -0.00833377 -2.04998e-22)
(1.0018 -0.00238205 0)
(1.032 -0.00564133 -2.54772e-23)
(1.03214 -0.00543239 2.65202e-22)
(1.03185 -0.00545627 3.05457e-22)
(1.005 -0.00323229 4.45894e-22)
(0.848388 0.163189 -7.3972e-22)
(1.03169 -0.00507251 -1.08843e-22)
(1.03181 -0.0049174 0)
(1.03158 -0.00484801 1.00116e-22)
(1.02579 -0.0027766 -1.50502e-22)
(1.02598 -0.00291982 -1.48229e-22)
(1.02567 -0.00307664 -1.90754e-23)
(1.02864 -0.00804149 3.13831e-22)
(1.02908 -0.00818524 0)
(1.02876 -0.00845918 -2.9442e-22)
(0.992057 0.0024712 1.57272e-21)
(0.999236 0.0497325 -7.05015e-22)
(1.00054 0.063539 -2.79721e-21)
(0.97428 0.0289082 -6.57126e-22)
(1.02992 -0.00261742 0)
(1.02958 -0.00282695 9.71834e-23)
(1.05587 -0.0256693 0)
(1.05238 -0.0233955 9.65857e-23)
(1.05253 -0.0275559 0)
(1.00245 -0.00190542 5.79849e-23)
(1.00578 -0.0453666 0)
(1.01058 -0.0446824 0)
(1.00685 -0.0418549 0)
(0.777364 -0.0557907 1.98732e-20)
(0.769618 -0.0801619 3.55286e-21)
(1.02427 -0.191893 -4.77485e-21)
(1.02316 -0.178516 0)
(1.00044 -0.0461367 0)
(1.00502 -0.0498026 0)
(1.03176 -0.00587232 1.18898e-22)
(1.03206 -0.00598212 -2.41206e-22)
(0.989816 -0.00939146 1.21258e-21)
(0.991073 -0.00838202 -5.3748e-22)
(0.989557 -0.00761492 -3.16487e-22)
(0.846091 0.239 5.61977e-21)
(0.801307 0.25063 -1.60674e-20)
(1.00853 0.000212058 -2.63088e-22)
(1.00985 0.00054518 0)
(0.975599 -0.0904211 0)
(0.986289 -0.0806731 0)
(0.995981 0.00645432 1.62135e-22)
(0.996088 0.00767535 1.80165e-22)
(1.00675 -0.000686509 5.36372e-23)
(1.00685 -0.000850576 -8.95296e-23)
(1.02039 -0.0625144 3.2138e-21)
(1.03087 -0.0409833 -3.21117e-22)
(1.02588 -0.017064 -1.33472e-22)
(1.02598 -0.0169065 -8.19031e-23)
(0.809426 0.291773 -7.81343e-21)
(0.783173 0.28841 -5.42996e-21)
(1.02554 -0.00261688 6.6858e-22)
(1.02591 -0.00251612 0)
(1.04365 -0.0835939 -2.25054e-21)
(1.05022 -0.086107 0)
(1.03467 -0.200181 1.75999e-21)
(1.01631 -0.228968 -5.0028e-21)
(1.02173 -0.0208105 1.79239e-22)
(1.02158 -0.0217655 0)
(1.02062 -0.0210304 -4.4917e-23)
(1.01806 -0.00712147 0)
(1.01764 -0.00701217 -2.99178e-22)
(1.01777 -0.00677944 8.18097e-23)
(1.04239 0.0312155 0)
(1.03442 -0.0229041 1.43047e-21)
(1.03633 -0.0222472 8.91663e-22)
(1.03466 -0.0210827 -4.09085e-22)
(0.99944 -0.00291269 -3.87985e-24)
(1.03576 -0.00483072 -3.28974e-22)
(1.03652 -0.00409242 -2.51505e-22)
(1.02987 -0.00226033 0)
(1.02981 -0.00190029 0)
(1.02948 -0.00214493 -2.59112e-22)
(0.982398 -0.241686 4.43031e-21)
(0.982316 -0.226647 0)
(1.01908 -0.000759155 9.44817e-22)