/*--------------------------------*- C++ -*----------------------------------*\
| =========                 |                                                 |
| \\      /  F ield         | OpenFOAM: The Open Source CFD Toolbox           |
|  \\    /   O peration     | Version:  v2012                                 |
|   \\  /    A nd           | Website:  www.openfoam.com                      |
|    \\/     M anipulation  |                                                 |
\*---------------------------------------------------------------------------*/
FoamFile
{
    version     2.0;
    format      ascii;
    class       volVectorField;
    location    "150";
    object      ddtCorrDdt0(U);
}
// * * * * * * * * * * * * * * * * * * * * * * * * * * * * * * * * * * * * * //

dimensions      [0 1 -2 0 0 0 0];


internalField   nonuniform List<vector> 
9793
(
(0.0577986 0.189184 -3.7752e-18)
(0.00493027 -0.0109328 -1.86396e-20)
(0.101869 0.164487 -1.19575e-17)
(-8.03655e-05 -2.01237e-05 -1.5041e-20)
(-0.00139818 0.248968 -1.08046e-17)
(0.0020413 -0.00324288 3.85811e-19)
(-9.92491e-05 4.21195e-06 -4.8139e-21)
(-0.000304597 0.000321311 1.50485e-19)
(-0.00145766 0.000598975 6.72879e-19)
(-0.0831161 0.341731 -2.26854e-17)
(-0.0115532 -0.039999 -4.11306e-18)
(0.00974965 0.0731354 4.24503e-20)
(-7.93207e-05 -1.95054e-05 -1.0289e-20)
(0.00236936 -0.00168345 -1.72271e-20)
(-0.000102013 -1.84802e-06 7.17019e-21)
(0.00184146 -0.00166506 -2.93497e-20)
(-6.47146e-05 -0.00909318 5.0545e-19)
(0.000145125 -0.0102826 -8.52104e-19)
(0.0918018 -0.18813 4.6624e-19)
(0.00208578 -0.00184036 7.06461e-20)
(-0.0153934 -0.0825279 8.91101e-19)
(0.00387022 0.00778871 -2.00197e-19)
(-0.0364646 0.22682 -1.96435e-17)
(0.000765664 -0.00127847 -3.57485e-23)
(-0.0022244 -0.0017359 1.40755e-19)
(-7.78709e-05 -3.05356e-05 -1.48663e-20)
(0.00126746 -0.00201861 2.26849e-20)
(0.00124966 -0.00470837 -5.63848e-20)
(-0.0535803 0.00414628 -8.83742e-19)
(-0.00136785 0.00060508 -3.95592e-19)
(-0.000798604 -0.000851478 -1.05388e-18)
(-0.0391616 0.218163 1.20066e-17)
(0.0394761 -0.0240983 -1.05745e-18)
(-4.21211e-05 6.35534e-05 2.22081e-19)
(-0.0671367 0.0143743 4.55404e-19)
(0.01268 -0.161934 -5.03245e-19)
(-0.000123575 5.9532e-06 2.11615e-19)
(0.00457204 0.00714508 -7.42338e-20)
(-0.000586323 0.000621641 4.46105e-20)
(-0.000573885 -2.35043e-05 2.75028e-20)
(4.77053e-05 -0.00101694 7.30261e-19)
(-0.00016144 -1.24028e-05 2.37221e-19)
(-5.12397e-05 -3.39544e-05 -9.46787e-20)
(-0.000105187 -2.48921e-06 -7.22527e-20)
(-2.57441e-05 -1.23475e-05 8.75315e-20)
(-7.25154e-05 -1.85262e-05 9.06847e-22)
(-0.0620337 0.00153066 7.90912e-19)
(0.00720698 -0.03156 3.99279e-19)
(0.00599415 -0.0178146 1.36072e-20)
(-7.14751e-05 -3.91701e-05 -4.94452e-20)
(-0.0758791 0.0131373 -1.56062e-19)
(-0.0250652 -0.0502415 -8.54341e-20)
(0.00315166 -0.00358518 -8.74943e-19)
(-0.000845607 0.00206948 1.82768e-19)
(-0.224851 -0.186078 -6.38323e-19)
(-0.224169 -0.0109574 -9.4091e-19)
(-0.000510488 0.000295743 -1.86825e-19)
(0.0512756 -0.0347019 1.40778e-18)
(-0.0404409 -0.126449 -1.25404e-20)
(-0.00050866 0.000580356 1.33597e-19)
(-0.000513454 2.2788e-05 7.70172e-21)
(0.00455452 -0.00276 4.25456e-19)
(0.00465909 -0.047982 7.67977e-19)
(7.43612e-05 1.40949e-05 -7.40423e-20)
(0.0243413 -0.0128402 1.66515e-17)
(0.0150996 -0.0292816 1.3166e-18)
(-0.00172774 -0.0422247 -1.63798e-19)
(-0.00215402 -0.0314684 2.74319e-19)
(0.0194271 0.0501517 1.38807e-19)
(-0.0167319 -0.0372859 3.26987e-18)
(-0.253578 -0.150109 4.82564e-19)
(-9.17212e-06 -0.000123266 3.87915e-20)
(0.000412159 -0.000492306 6.3611e-20)
(0.0312713 0.00643976 4.35444e-20)
(-0.0906667 0.023909 1.24804e-18)
(-0.0408479 -0.0961039 -4.54223e-20)
(-0.000525647 0.000290066 -4.76996e-19)
(0.00397391 -0.00113351 1.38238e-20)
(0.00627262 -0.000137082 -4.32257e-20)
(0.00312388 -0.00434616 -3.59373e-19)
(0.0181124 -0.0360538 -1.13976e-19)
(0.00517859 0.00220946 -1.25572e-20)
(-0.0175259 -0.0197869 -5.94896e-19)
(0.0401872 -0.0191223 7.77845e-19)
(-1.25871e-05 -0.002209 1.87415e-19)
(0.0184591 -0.0325874 -1.01585e-19)
(0.00357157 -0.00486921 2.33842e-19)
(-0.000538257 0.000312699 4.59912e-19)
(0.00385855 -0.00209322 7.3473e-20)
(0.00416483 0.00402009 -8.02962e-23)
(0.00622593 0.00266989 -5.68804e-19)
(-0.201307 -0.206377 1.53542e-17)
(-0.00220255 0.0038174 1.76334e-20)
(-0.021607 0.193532 3.3265e-18)
(0.00440938 -0.00222822 -2.97655e-19)
(0.0459482 -0.0129366 1.01945e-19)
(-0.197763 -0.0556717 7.20604e-19)
(-0.0134405 -0.0135491 9.57987e-19)
(-0.00208902 0.00326444 -1.76485e-20)
(0.000553436 0.00257432 1.82893e-19)
(0.000758181 0.00240096 7.25017e-20)
(0.000827484 0.0039739 -1.13211e-20)
(-0.00253254 -0.000510696 -6.90453e-19)
(-0.00224523 -0.000477481 2.31828e-19)
(0.00359881 -0.000948255 -1.61042e-20)
(0.000460624 -0.00227017 -2.35741e-19)
(0.00379988 -0.00167848 3.2366e-20)
(-0.000407561 -5.08044e-05 -1.25003e-19)
(0.00316114 -0.00309258 3.79087e-19)
(-0.00871188 -0.022874 5.15284e-20)
(2.12789e-05 -9.09362e-05 -4.48103e-20)
(-0.0934939 -0.0176649 5.54854e-19)
(-0.000386753 0.000234622 3.05378e-20)
(-0.146956 -0.327998 -1.55802e-17)
(-0.0350098 -0.051168 1.95946e-18)
(-0.000542836 0.000302729 2.70129e-19)
(0.027107 -0.0180442 2.11669e-18)
(-0.0849193 0.0378062 -2.27831e-18)
(0.00606877 0.00243779 4.59345e-21)
(-0.0138407 0.170505 -1.28961e-19)
(-0.00845264 -0.0281834 2.16987e-19)
(7.68059e-05 -1.50079e-05 -2.01433e-20)
(-6.99594e-05 0.000675706 1.56684e-19)
(0.00184311 -0.00344835 -7.79122e-20)
(-0.00186031 0.00336435 -7.48065e-19)
(-0.0381463 -0.0758466 5.44296e-19)
(-0.00499667 -0.0103638 -4.82926e-19)
(0.0244434 -0.0367042 1.24102e-19)
(0.00720962 -0.000295499 1.75528e-19)
(0.000392743 -0.000137538 4.51376e-20)
(0.00013713 -6.12495e-05 -1.32228e-20)
(-0.00056276 0.000308427 2.54781e-19)
(0.000428957 -0.00016281 -3.26902e-20)
(-0.00174144 0.00357495 3.13612e-20)
(-0.00125724 0.000544661 2.01389e-19)
(-0.000538421 0.000380041 -1.77834e-19)
(7.46112e-05 2.20353e-05 -2.52061e-20)
(-0.000101055 -3.18706e-06 -3.30991e-20)
(-0.000361641 0.000206178 5.6398e-19)
(0.000348782 -3.49688e-05 1.81614e-20)
(-3.43745e-05 0.000626971 -2.53352e-19)
(-0.00241611 -0.00125071 -2.34968e-19)
(-0.000161425 -9.60694e-06 -5.02625e-20)
(0.00193602 0.00213161 9.37344e-20)
(0.00267534 -0.00186265 2.39619e-20)
(0.00300967 -0.00255784 -8.31623e-20)
(0.0298532 -0.00505139 -5.47886e-20)
(0.00180522 0.0024326 9.66455e-21)
(-0.00268534 0.00217163 1.95103e-19)
(-0.218569 -0.30614 7.04122e-18)
(-0.20077 0.609219 7.15128e-17)
(0.000167501 -5.157e-05 -8.78005e-21)
(-0.166582 0.716781 -5.82487e-17)
(-0.153054 0.565585 3.91395e-17)
(-0.00244579 0.00185851 5.83981e-21)
(5.67695e-05 -3.57239e-05 7.29897e-21)
(0.000321092 -1.33695e-05 6.84974e-21)
(-0.00234977 -0.00102553 6.74127e-19)
(0.00133152 0.00236381 2.43797e-20)
(-0.000146314 -3.72761e-06 4.3314e-20)
(-0.000318991 0.000375941 -1.59477e-19)
(0.000733292 -0.00503806 -3.9575e-21)
(0.000853666 -0.00136547 3.47628e-20)
(0.087399 -0.108213 1.67045e-17)
(0.0347462 -0.00107313 -2.66846e-19)
(-0.00173831 -0.100925 -5.42668e-20)
(0.0120408 -0.0366734 2.09546e-19)
(-0.00717227 0.0171385 -1.11287e-18)
(0.00111197 -0.0017852 -1.27418e-20)
(0.000678701 0.00255153 4.64313e-20)
(-0.000118765 -0.00126919 4.66904e-19)
(-0.0103044 0.227055 4.43282e-19)
(0.0362878 -0.0029934 2.45661e-19)
(-0.0127354 0.191366 4.3964e-18)
(-0.00199106 0.00271527 6.39483e-21)
(0.104779 -0.147217 -3.77184e-18)
(-0.000573863 0.000347128 -2.85965e-19)
(0.00072742 -0.000824205 -2.1085e-21)
(0.000556984 -0.000273424 -2.1731e-20)
(-0.0166942 0.00157035 -4.40452e-20)
(0.38453 0.0929699 5.49702e-18)
(-0.00441875 0.000656695 -1.38076e-19)
(0.00112443 0.00261365 1.3436e-20)
(-0.00218877 -0.00148123 3.98196e-20)
(-0.098713 -0.0656236 3.5579e-19)
(0.000337401 -0.00043849 -9.34326e-20)
(0.0646048 -0.0381483 -4.18702e-19)
(0.000530334 -0.000323047 -8.10516e-21)
(0.000131616 0.000601285 1.37185e-19)
(0.0010504 -0.00138626 1.45409e-21)
(-0.00219804 0.00248351 2.10375e-20)
(-0.000177998 7.87881e-05 -1.22447e-19)
(0.00237346 -0.018729 7.50175e-19)
(-0.0820797 -0.0480325 -1.14658e-18)
(0.000943438 -0.0362403 -3.53577e-19)
(-0.0154413 0.00169753 6.11803e-19)
(0.129152 0.283621 1.76502e-18)
(0.00204946 0.00200439 -7.73811e-20)
(-0.143654 0.72231 -8.58691e-17)
(0.000345832 -3.2117e-05 -1.41701e-20)
(-0.00118349 0.000554655 -4.51964e-19)
(0.0906248 -0.0767553 -8.36645e-18)
(-0.225159 -0.0803612 2.23127e-18)
(0.00036047 -5.40839e-05 1.71701e-20)
(-0.000569023 0.000440448 2.53044e-19)
(0.00312031 -0.00128301 -7.34673e-22)
(-0.0101126 -0.132884 -6.34828e-19)
(0.00249137 -0.000316989 -1.42038e-22)
(0.000527105 -0.00283562 3.22298e-20)
(-0.0039085 0.00445896 -2.16457e-19)
(-0.0252555 0.00887842 -2.54869e-18)
(0.000505374 -0.0164583 3.57429e-19)
(0.00909701 -0.0196124 -2.43151e-20)
(-0.00099473 0.00215506 -2.88946e-19)
(0.139419 0.324753 -3.03065e-17)
(0.000318208 -1.01464e-05 -3.56695e-20)
(-0.000399146 0.00279125 4.44301e-20)
(-0.0882027 -0.0497729 1.6444e-19)
(0.00284996 -0.00108568 1.91906e-21)
(0.0697661 -0.0891645 -1.80826e-19)
(-0.103512 0.123694 -5.96487e-19)
(-0.000303133 0.000489254 3.01636e-19)
(-0.0021218 0.00312014 4.41666e-19)
(-0.000171847 7.52164e-05 1.28118e-19)
(0.0368487 -0.0295872 -1.17733e-19)
(0.0974375 -0.0873279 -1.1655e-17)
(0.0023404 -0.00330633 -9.2173e-20)
(-0.00242541 0.0012887 4.76038e-20)
(-0.124078 0.0973023 7.28108e-19)
(-0.025143 -0.028401 -3.94718e-18)
(0.00102576 -0.00118933 -4.34528e-22)
(0.000791775 -0.00105135 -3.24932e-22)
(-0.0046537 0.000520896 8.49474e-20)
(0.000337395 -2.68688e-05 9.83311e-22)
(-0.00493253 -0.0171118 2.20967e-19)
(0.054976 -0.0777672 -7.16568e-19)
(-0.000314005 0.000160513 -1.31015e-19)
(-0.000177138 -0.00102807 -2.92841e-19)
(-0.182975 -0.00898932 -3.09155e-19)
(0.00232302 0.00330536 4.93893e-21)
(0.000745124 -0.00278375 -1.94163e-19)
(0.00293047 -0.00126473 1.89315e-21)
(-0.000435797 -0.00101376 2.51381e-20)
(0.0302386 -0.0277172 -1.12962e-18)
(-0.000166387 -0.000853864 -7.03993e-20)
(-0.00234517 0.00252475 2.38025e-19)
(-0.000253279 0.000307059 -8.75041e-20)
(-0.00251879 -0.000819128 1.92612e-19)
(-0.00252657 0.00294264 1.36711e-20)
(-6.70517e-05 8.27682e-05 -1.06745e-19)
(0.00159748 0.00237725 -1.06775e-19)
(-0.00896131 0.0056517 -9.1682e-20)
(-0.0397401 -0.0424339 7.21746e-19)
(-0.00475419 -0.0132932 2.45464e-19)
(-0.000406295 -0.000783967 -1.43008e-19)
(0.00824082 0.00603024 7.12242e-20)
(7.05294e-05 -0.00102612 -3.05185e-19)
(-0.00979268 0.00616705 8.66368e-20)
(0.000944802 -0.00262823 6.23417e-19)
(0.0023597 0.000174366 -5.65593e-21)
(-0.0278061 -0.0429368 -1.34592e-19)
(-0.00011879 -0.000894699 1.26157e-19)
(-0.0496475 -0.0403705 -5.09797e-19)
(0.000362122 1.40882e-05 -1.47106e-20)
(-0.00921807 0.0179311 6.51629e-19)
(0.00193051 -0.00134225 2.48414e-21)
(0.00179413 -0.00116162 -5.58894e-22)
(-0.0253571 0.0121987 -1.06031e-18)
(0.0892257 -0.0753203 6.18054e-18)
(0.00316792 -0.00151678 1.61238e-19)
(0.00245846 0.000418813 -3.34074e-21)
(0.000798601 -0.00060557 2.29326e-20)
(0.0104142 0.0169959 -5.03164e-20)
(-0.000389633 0.000418055 1.02486e-19)
(0.0222335 0.0103945 -1.2917e-19)
(0.0253116 0.00084565 -5.19497e-19)
(0.000398827 -7.02508e-05 -6.25143e-20)
(-0.0908985 -0.0769782 1.34506e-18)
(-0.000105087 6.25956e-05 3.525e-20)
(-0.00381357 -0.0113121 -5.11918e-19)
(-0.0024178 -0.000603191 -2.31541e-19)
(0.00133945 -0.00105305 5.06337e-21)
(-0.000278299 -3.41788e-05 8.36742e-20)
(-0.000577876 -6.00758e-06 -8.56736e-20)
(-0.00473304 -0.00895086 2.16669e-19)
(-0.000267052 0.000539983 -1.78671e-19)
(0.00178966 0.00217513 1.02283e-19)
(-0.00973936 0.0134147 9.46281e-20)
(-9.33955e-05 1.97082e-05 -1.164e-19)
(-0.000526345 0.000499456 6.87545e-19)
(-0.0003428 0.000184729 -5.85941e-20)
(0.0300594 -0.019557 -8.31572e-19)
(0.00274218 -0.00246197 -2.65679e-19)
(-0.000125385 -9.29613e-07 -1.81617e-19)
(0.000223078 -3.69842e-05 -1.22888e-21)
(-0.00131225 0.00389765 5.68179e-20)
(-0.00121617 0.00476984 1.02189e-19)
(-0.0110514 0.0139877 6.14539e-19)
(-1.9406e-05 8.13382e-05 5.9876e-20)
(0.029794 0.0417448 1.6e-18)
(-0.00266697 0.00149625 -1.06664e-19)
(-0.00216348 -0.0636407 1.82268e-18)
(0.0305856 -0.0856484 2.74714e-18)
(-0.000394849 -3.33823e-05 7.3465e-21)
(-0.000128415 -1.92932e-05 1.97618e-19)
(0.00237084 0.00140178 -8.73894e-21)
(0.0124065 0.0185029 -5.19188e-20)
(-0.00173048 0.0138238 4.78416e-20)
(-0.00241431 -0.000259349 3.35195e-21)
(-0.00145149 -0.07343 9.85701e-19)
(-0.000146176 2.69214e-05 -2.5013e-19)
(0.00232161 0.001113 -2.03041e-20)
(-0.000793332 0.0146954 3.96125e-20)
(0.00288747 0.00168547 6.78829e-20)
(0.000636229 0.00189792 1.8517e-19)
(0.00349215 0.00351979 -2.06766e-21)
(0.0301962 -0.029496 -4.23194e-19)
(-0.00104572 -0.000718327 -2.8134e-19)
(0.00621371 0.0168363 -6.007e-20)
(-0.00437197 0.00438518 -2.53465e-19)
(-0.000784839 -0.000444552 -3.71434e-19)
(0.0344272 0.00541459 4.93211e-19)
(0.230092 -0.00206181 -1.40965e-17)
(0.0285144 0.00318603 -3.8123e-20)
(0.00240841 -0.0011453 2.26779e-21)
(0.327426 0.0829256 -2.41898e-18)
(-0.000673899 0.00543242 -2.95438e-20)
(-0.00924438 -0.137684 4.87691e-19)
(-0.107269 0.0570047 1.98414e-19)
(0.000709541 -0.000922216 -2.72229e-20)
(-0.00586718 -0.000891104 5.65211e-19)
(-0.0959533 0.0715406 1.58566e-18)
(0.000630034 0.00340776 -3.85889e-21)
(0.000817717 -0.00305345 -4.66304e-20)
(-0.0112016 -0.0541575 -3.60558e-18)
(-0.000158294 0.000282515 1.39419e-19)
(-5.42493e-05 -2.86563e-05 2.56038e-20)
(-0.00108477 0.00049422 6.9724e-19)
(0.000173566 0.000109089 1.42231e-19)
(0.00188147 -0.00496278 -6.62225e-20)
(0.0487361 0.296986 -6.18513e-18)
(0.000554765 -0.000396651 2.02093e-19)
(-0.000694943 -0.000449946 -1.16056e-19)
(0.0402221 0.0610238 -1.12189e-17)
(0.00174004 0.00338928 5.92324e-20)
(0.00159986 -0.00172709 -5.46614e-20)
(0.00229807 -0.00136107 -3.43102e-21)
(0.00204433 0.00575643 -1.1684e-19)
(-0.000196953 0.000319965 -1.37764e-19)
(0.0415949 0.372774 1.10864e-17)
(-0.00161341 0.00407312 1.67171e-19)
(5.96873e-06 0.00101268 -4.16471e-20)
(0.00223479 0.0012174 -3.25703e-22)
(0.00148245 0.0039811 -1.07205e-20)
(-0.0259566 0.26522 -1.07543e-17)
(-0.000844621 0.00185063 5.89313e-19)
(0.0182988 -0.0120779 -6.92756e-20)
(0.000841076 -0.000911081 -2.749e-21)
(-0.0300516 -0.00842762 1.37177e-18)
(-0.26941 -0.161769 -2.70176e-19)
(0.0630777 -0.0552506 -8.6647e-18)
(-0.0321882 -0.0104309 -2.28339e-18)
(0.0022938 0.00514635 1.2125e-19)
(-0.0026312 0.00437597 5.58206e-21)
(0.182352 0.248905 1.29952e-17)
(-0.00052108 1.34088e-05 1.51167e-19)
(-0.0287943 -0.0493434 -8.49062e-20)
(0.0034704 0.00286439 -9.09148e-20)
(0.000334734 -2.40347e-05 -4.01458e-21)
(0.0205761 -0.0756192 -4.68641e-18)
(0.000875671 -0.00293695 2.20766e-19)
(0.202001 0.00163538 -2.77523e-17)
(-4.46944e-05 0.00100473 2.22604e-19)
(-0.00342237 -0.0192809 1.21571e-19)
(0.0481768 -0.141517 -2.17141e-19)
(-0.00104609 -0.00359951 1.68842e-19)
(0.000263571 -0.00035614 -1.42058e-19)
(0.0389547 -0.0227019 1.2025e-18)
(-0.0116201 -0.000182273 4.73658e-20)
(0.0311499 -0.0028332 -5.99299e-20)
(0.00763854 0.00705333 -3.67022e-19)
(-0.000956387 0.00149026 2.03383e-19)
(-0.109221 -0.0276978 -1.69164e-18)
(-1.62007e-05 6.34938e-05 -2.4082e-20)
(6.91929e-05 0.006043 -6.0705e-20)
(0.000342362 4.63652e-06 2.08664e-20)
(-0.000549014 -2.13229e-05 -4.42724e-19)
(0.00152517 -0.00202122 5.84621e-20)
(-0.00100947 0.00168645 3.16105e-19)
(0.00632988 0.00677718 1.80548e-19)
(-0.0323858 0.276359 1.45043e-17)
(-0.00183711 0.00206297 -1.06599e-19)
(0.268151 -0.852441 2.88681e-18)
(0.00152027 0.0508357 5.58966e-19)
(0.221136 0.123136 1.46233e-17)
(-0.0199787 -0.0277333 2.31046e-18)
(0.0207691 0.0014073 -4.30168e-20)
(-0.000438809 9.34307e-05 -1.18006e-20)
(-0.0010498 0.00048518 -8.63466e-20)
(-0.301946 0.531317 6.51399e-18)
(0.00180439 0.00677696 -1.35748e-18)
(0.003196 -0.00103629 -5.26455e-20)
(-0.00270617 0.000635407 5.47443e-19)
(0.143027 -0.062068 -4.291e-18)
(0.000695037 -0.000597633 1.39971e-21)
(-0.0770185 -0.431196 3.4474e-18)
(-0.000127807 -0.0010702 2.30964e-19)
(0.0056502 0.00761182 1.99883e-19)
(0.000622375 -0.000508272 -1.67053e-20)
(-0.0287342 0.0184841 6.18365e-19)
(0.000528786 -0.000418977 -1.99744e-19)
(-0.0125518 -0.000437683 2.36441e-19)
(-0.0615396 -0.0996928 9.1159e-20)
(0.00261793 -8.77004e-05 1.0322e-21)
(-0.0425864 0.222275 1.08125e-17)
(-0.00527389 -0.00106169 -7.36212e-20)
(-0.0016348 0.00456553 -3.81537e-19)
(-0.00496023 -0.00139668 -4.34711e-20)
(0.00292385 0.00253565 1.03184e-19)
(0.00346162 -0.00144963 -2.87136e-19)
(0.00342334 -0.00236409 8.72018e-20)
(0.0985131 -0.0561058 -9.27491e-18)
(-8.25559e-05 7.05902e-05 -2.21598e-19)
(0.000733022 0.00199728 3.5917e-19)
(-0.0189471 -0.0572797 -7.39358e-19)
(-0.00101832 0.00116103 8.10241e-20)
(0.000813643 -0.0026244 -3.07425e-19)
(-0.00117849 0.00528954 -2.00695e-19)
(0.000743678 -0.00119537 -8.40661e-21)
(-0.0184608 0.00227997 -1.50887e-19)
(-0.000139927 1.12345e-05 -2.74944e-19)
(0.000952744 0.00190302 -1.55487e-19)
(0.000381848 -0.000338865 2.72852e-21)
(0.020357 -0.0547618 -5.99319e-21)
(0.00266005 -0.00229521 -4.14395e-20)
(0.0321561 -0.094432 -2.9387e-18)
(0.000277408 0.00256353 3.04484e-20)
(-0.00746389 -0.0169249 -1.34239e-18)
(-5.24464e-05 -1.63754e-05 1.4483e-20)
(0.000902738 0.00297495 -1.34809e-20)
(-0.000117255 -3.06461e-06 1.49798e-19)
(-0.00168472 0.00214814 6.30768e-19)
(-0.0604231 -0.0800679 9.73494e-20)
(0.00242574 0.00179567 5.67836e-20)
(-0.299359 -0.103546 -2.52009e-18)
(0.00119756 -0.00156112 -2.1329e-20)
(-0.000164838 -0.00138337 2.67673e-20)
(-0.000548448 0.00599944 6.06966e-20)
(0.140614 -0.139044 3.90173e-18)
(-0.000877287 0.000187959 3.68392e-19)
(-0.177363 -0.268161 8.72705e-18)
(-0.00214957 -0.0159844 2.54454e-18)
(0.0026675 -0.00366084 -4.25295e-21)
(-3.86177e-05 0.000261328 8.38198e-20)
(0.0202723 -0.0203853 -1.27593e-20)
(-0.018779 0.00429949 -4.92938e-19)
(-0.0247097 0.0194152 1.95108e-19)
(-0.00388079 -0.0198234 -5.45249e-19)
(-0.0564998 -0.0515344 -2.13766e-18)
(-0.000126179 3.56443e-05 1.62238e-20)
(-0.0043829 -0.000861399 1.87931e-19)
(-0.00562764 -0.0222949 -1.67055e-18)
(-3.32141e-05 0.000752165 -1.46735e-19)
(0.00483773 0.00359087 7.45767e-21)
(6.43444e-05 0.000653973 6.39022e-20)
(-0.00269627 -0.000157984 2.2163e-19)
(-0.000471074 1.40485e-05 1.93397e-19)
(-0.19885 -0.116419 -3.20472e-18)
(-0.013287 0.000537072 6.65839e-20)
(-0.0947373 -0.0385502 -1.92774e-20)
(-0.003066 -0.000135584 -4.57629e-19)
(0.0153203 0.0167006 1.77477e-19)
(0.000608324 -0.000836652 -6.70451e-22)
(9.78026e-06 8.31325e-05 -2.07334e-19)
(0.00030731 -8.74538e-06 -4.83539e-21)
(0.00469781 0.00279217 -5.37033e-23)
(0.0171354 -0.0207599 1.43384e-19)
(6.86565e-07 0.00288905 -4.51152e-20)
(-0.00397224 -0.000753545 -2.02664e-19)
(0.000403276 -0.000545262 2.21629e-20)
(2.21272e-05 1.86668e-05 7.84155e-21)
(0.000654823 -0.00282932 -5.61854e-20)
(-0.00553017 -0.0309006 -3.43751e-19)
(-0.000104431 1.78442e-05 -1.92798e-19)
(-4.66165e-05 0.000250867 -6.59602e-20)
(0.0481203 -0.0631206 -2.08875e-18)
(0.000966695 -0.0029992 1.02811e-19)
(-0.00193635 0.00384081 8.07483e-20)
(0.00620289 -0.0543006 -1.24816e-19)
(-0.0049255 -0.0186115 -1.02661e-18)
(0.000366905 2.73183e-06 -2.65912e-22)
(0.000321015 1.28044e-05 4.66555e-20)
(0.000291094 0.00663073 4.68932e-20)
(0.000781378 -0.00274142 -3.85616e-20)
(0.00104628 0.00200151 -5.28353e-20)
(1.09288e-05 -1.60266e-06 -5.58689e-20)
(3.72432e-05 2.60713e-05 6.81582e-20)
(0.00202176 0.00236319 6.25352e-20)
(4.68226e-05 -0.00114608 3.95679e-20)
(-0.000383256 -0.000851009 4.45153e-20)
(0.0247943 -0.00391848 3.90538e-20)
(-0.0564914 -0.0499211 2.72545e-18)
(0.000335728 -1.45137e-05 9.58383e-21)
(-0.0869292 -0.0871349 -6.47971e-19)
(0.0148983 0.0383715 1.07457e-19)
(-0.000846576 0.0029474 -1.32758e-19)
(0.003063 -0.00225367 6.4131e-20)
(0.00603597 0.00073224 1.46235e-21)
(-0.0743567 -0.00347519 -1.83098e-19)
(-0.00254978 -0.000415205 -4.62601e-20)
(-0.149059 0.250632 -9.73245e-19)
(0.000809574 -0.00105476 2.30227e-20)
(-0.000328161 -0.0010118 -9.65743e-21)
(-0.0276114 -0.0353328 1.64088e-18)
(0.000149046 0.000525896 3.28079e-20)
(-0.0195786 -0.00858529 1.25793e-18)
(-0.00363739 -0.0871118 -9.93861e-19)
(0.00785206 0.0183718 -1.71862e-20)
(-0.000491298 0.00299715 -1.33845e-19)
(0.342644 -0.541836 3.34056e-17)
(0.000935321 -0.0028526 2.82645e-21)
(0.000357012 -0.0012623 -1.30529e-19)
(-0.000814645 -0.00147222 -2.787e-19)
(0.00552969 -0.0101089 3.10886e-18)
(-0.000845927 0.000140752 1.60738e-19)
(0.000192877 -0.00121904 2.28562e-19)
(-5.95304e-05 0.000119684 -2.49675e-19)
(-0.000791274 0.000134079 -6.27961e-20)
(0.0220806 -0.0244738 -1.0368e-18)
(-0.00345729 -0.0146964 -4.39306e-19)
(0.0141429 0.0350692 1.64004e-19)
(0.00276931 -0.0028635 -1.29026e-19)
(-0.000835964 -0.00132575 5.66069e-20)
(-0.000907688 -0.000567418 3.21699e-19)
(-0.000669346 0.00128979 3.41563e-20)
(0.00022088 -6.3331e-05 -2.63652e-21)
(-5.75118e-05 9.13896e-05 1.49031e-19)
(-0.0387948 -0.00571595 -8.79904e-19)
(0.077727 -0.0640849 5.34246e-18)
(0.00089463 -0.000693345 -1.84423e-20)
(-0.00458104 0.00272553 -3.81443e-22)
(-0.331197 0.480034 -3.11481e-17)
(0.00138025 -0.000301333 -4.12013e-20)
(0.00464181 -0.0107099 2.59831e-20)
(0.021498 -0.0126068 -3.73291e-20)
(0.000193669 -7.45893e-05 -2.30747e-20)
(-0.00930422 -0.0453094 2.21634e-18)
(-0.108589 -0.0368359 -4.0483e-20)
(-0.000353533 0.000482935 -1.78082e-19)
(0.0707294 0.0538635 5.01236e-18)
(0.00142013 -0.00088769 -5.04472e-21)
(-0.188124 -0.237083 1.73667e-18)
(-0.00998785 0.0109123 9.45077e-19)
(-0.0795843 -0.0197667 -2.16545e-19)
(0.000327288 -0.000408625 6.91065e-20)
(-0.000460369 -0.000932372 8.22496e-20)
(0.00100795 -0.00806245 -5.85587e-19)
(-0.0010801 0.0254535 -5.06822e-19)
(-0.00315035 0.00431518 -1.41517e-20)
(0.00342638 -0.0596537 -7.20393e-19)
(0.0205768 -0.0421022 2.02829e-18)
(-0.119405 -0.0403819 1.33774e-18)
(-0.0209232 -0.00991855 -1.28906e-18)
(-0.105058 0.273488 6.23691e-18)
(-0.0230174 0.0233282 1.25731e-18)
(-0.000142632 -5.72907e-07 2.83573e-20)
(-0.0134006 -0.00661344 -1.09703e-18)
(-0.0041113 0.00296191 1.31845e-19)
(-0.0202715 -0.0207781 -1.35244e-19)
(-0.000264035 0.00221219 1.09365e-19)
(-0.0121752 -0.015174 -1.05239e-18)
(4.30394e-05 -0.000335271 -6.11123e-20)
(-0.00354806 -0.00869597 7.39827e-20)
(-0.000322348 -4.90795e-05 -8.28505e-20)
(-0.0031975 0.000362942 1.01242e-19)
(-0.000804673 -0.000571853 4.38738e-20)
(0.105123 0.0433032 2.63269e-19)
(0.000141489 -0.000448214 -8.14934e-20)
(0.000381246 4.87563e-06 3.4228e-20)
(-0.00453773 0.00157722 3.44552e-19)
(-0.00423547 0.00597672 -3.49334e-19)
(-0.0144173 0.000227597 2.48064e-19)
(0.0004614 -0.00051708 -2.41645e-20)
(0.00016855 0.000322785 1.73356e-19)
(0.00126852 -0.000200513 -9.20614e-21)
(0.00115648 -0.000260749 5.09792e-20)
(0.117807 -0.219194 1.96963e-17)
(-7.33593e-05 -1.7858e-05 -9.792e-20)
(-0.0782369 -0.0334611 1.99131e-18)
(0.0572752 -0.407756 -4.75253e-18)
(-6.83618e-05 -1.91074e-05 -4.1955e-20)
(-0.000380437 -4.99146e-05 1.97632e-19)
(0.0174852 0.0179389 1.85877e-20)
(-0.00273242 0.000769125 -4.28426e-19)
(2.38763e-05 0.000605805 -7.75119e-20)
(0.0023211 0.00197092 1.03015e-19)
(-0.000757288 -0.00361944 1.28375e-19)
(-0.0107721 0.0099167 -5.45546e-19)
(-0.00409586 0.00025431 1.66815e-19)
(-0.00463133 0.00563103 4.97231e-19)
(-0.000102809 -0.000842118 -1.33709e-19)
(0.00653071 0.00156777 -6.40386e-21)
(0.00182085 0.00467536 -3.9621e-20)
(-0.00961381 0.0077023 3.52297e-20)
(0.00270205 0.0014311 3.03308e-20)
(0.00233315 0.00624364 7.38479e-20)
(0.0915118 0.089844 2.88605e-19)
(0.0010891 0.000316176 -8.4643e-20)
(0.109312 -0.0646146 5.77081e-18)
(-0.0101597 -0.000755813 -1.35145e-19)
(-0.000105305 8.66273e-06 -1.16231e-19)
(0.000167237 0.000380547 -1.73703e-19)
(3.66214e-05 0.000295114 -8.40668e-20)
(-0.000807324 0.0057754 5.50204e-22)
(-0.00156999 0.00627668 -7.29709e-20)
(-0.000259088 -0.00089667 2.62655e-19)
(-0.00819485 0.00649639 3.4494e-19)
(0.000372764 -0.000969478 7.53246e-22)
(-0.000926044 -0.000715547 1.6486e-19)
(-0.00728389 0.00765411 2.29799e-20)
(3.74159e-05 3.60499e-05 5.38014e-21)
(0.00805446 0.00399425 -2.70989e-20)
(0.00032521 -6.28231e-05 -1.58085e-20)
(-0.00328978 0.000480051 -2.18453e-19)
(-0.000245459 4.55811e-05 -8.19693e-20)
(-0.00107982 0.00131054 1.91059e-19)
(0.00743354 0.00321324 -2.77957e-20)
(-0.00435707 0.000190727 4.59685e-19)
(-0.0142078 -0.00779975 1.02401e-18)
(-0.000149682 -9.15605e-06 -1.75232e-19)
(-0.00021198 -0.000630514 1.13353e-19)
(0.000119577 0.000437889 -1.38632e-19)
(0.000202603 -0.000857739 -9.69091e-20)
(-0.000423554 7.0627e-05 -8.82647e-20)
(0.000334383 -8.35241e-06 -1.78006e-20)
(-0.000532039 -2.24482e-05 7.65193e-20)
(-0.000670131 -0.000343701 1.20835e-19)
(0.00106194 0.00039048 3.66636e-20)
(7.99934e-05 -0.000429589 -4.01193e-20)
(-0.0324929 0.00764299 2.04439e-18)
(-0.000465046 8.10867e-05 2.20929e-19)
(-0.00018851 -2.68362e-05 1.31592e-19)
(-0.000157899 0.000693968 -4.89847e-19)
(-0.0112516 -0.0126169 1.55513e-18)
(1.00666e-05 -0.0001071 1.59154e-20)
(0.000535906 -0.000488537 -1.05888e-20)
(-0.00609591 -0.0332075 1.83386e-18)
(0.00128696 -0.000750774 4.71758e-20)
(0.000459433 -0.00174391 -1.84459e-19)
(0.12397 0.0488659 -4.93147e-18)
(-0.00203547 -0.00195346 -8.81479e-20)
(-7.79909e-05 -1.58433e-05 1.06572e-21)
(0.000312007 -1.07804e-05 -1.11617e-22)
(0.04894 -0.0222622 -3.52329e-18)
(-2.10542e-05 0.000321989 2.05123e-19)
(-0.00412984 -0.0255907 -5.05794e-19)
(-0.070065 -0.0327617 -1.70679e-18)
(-0.0467563 -0.115431 4.83236e-18)
(0.0203997 -0.0245151 -1.80347e-18)
(0.000495662 -0.00162357 -5.58139e-19)
(-0.000127134 0.000787402 5.19542e-20)
(-0.0134308 -0.0535917 8.52102e-19)
(-0.00933604 -0.00980869 -3.86098e-19)
(0.000412763 -0.000399341 -8.7861e-21)
(0.0242984 -0.00019266 8.72761e-22)
(-0.0105286 -0.0180216 7.57013e-19)
(-0.328187 0.21543 3.38772e-17)
(0.000107926 0.000502119 2.9876e-20)
(0.00907094 -0.0107088 -3.23502e-18)
(-0.000157031 0.000758852 -1.74902e-21)
(-0.000117623 0.000666051 3.04348e-19)
(-0.171192 -0.305704 1.61632e-18)
(3.26172e-05 4.24098e-05 7.11911e-21)
(-0.0395799 -0.0113933 -7.4405e-20)
(0.00830272 0.013576 -2.64187e-20)
(-0.0687115 -0.0445765 -1.96286e-18)
(-0.000238255 -0.000596255 -1.90797e-19)
(-0.00273694 0.010131 -1.48634e-19)
(0.001941 0.00415806 4.33624e-20)
(0.0885848 0.0610984 -2.17612e-18)
(0.0839465 0.0461596 -5.27269e-18)
(-0.000196155 -0.00123009 -3.61141e-19)
(0.00565695 0.0133528 6.74691e-21)
(-0.00909061 -0.00399715 -7.17933e-19)
(-0.000601403 -0.000350967 -3.85177e-20)
(0.00101309 -0.00280154 -7.74867e-19)
(-0.00763322 -0.0287862 -1.11453e-18)
(0.287669 -0.0269267 1.30504e-18)
(0.000224512 -0.00032753 -4.03242e-20)
(0.00324679 -0.0102019 -8.91774e-20)
(-0.00769704 -0.010419 -1.50426e-18)
(-0.0469434 -0.0500978 1.547e-18)
(0.00337983 -0.0089817 -2.99458e-20)
(0.0407671 -0.0299047 2.02046e-18)
(5.03173e-05 -0.00638802 6.82195e-20)
(0.00423192 -0.00300538 2.35782e-19)
(0.000455898 -0.00684092 -1.26286e-19)
(-0.0269613 -0.0241242 -1.0761e-17)
(1.71867e-05 -0.000108706 6.71265e-20)
(5.79501e-05 3.11067e-05 3.21675e-20)
(-0.000455495 -1.97741e-05 4.04294e-19)
(0.00647781 -0.00276301 1.27604e-19)
(0.000208163 -0.000389816 1.18326e-20)
(-0.225268 -0.0154757 1.51408e-19)
(0.000321282 -0.000335014 3.55124e-20)
(-0.0682786 -0.0268786 -3.64737e-19)
(-0.00570022 -0.000593708 -3.08601e-19)
(0.0318016 -0.0430545 -5.48706e-19)
(-0.0230555 -0.0406467 1.83654e-18)
(-0.000784144 0.00131075 -3.12978e-19)
(-0.143184 -0.230224 -4.18766e-18)
(-0.015256 -0.0714687 -1.16555e-18)
(-0.00155293 0.00322418 6.95288e-19)
(-0.102971 -0.0247279 -2.8977e-19)
(0.00122216 -0.00683959 -1.26675e-19)
(0.0237434 -0.0152453 2.4501e-19)
(0.000269759 -0.00039595 -3.11235e-20)
(0.00116711 -0.000758175 -1.86978e-20)
(-0.0104152 0.00126021 9.66712e-19)
(0.00123317 -0.00100464 1.68907e-19)
(0.0836137 0.137545 8.05885e-18)
(-0.000147596 1.05293e-05 -8.95271e-20)
(-0.00427517 -0.0156238 -6.89318e-21)
(-0.00106447 -0.00180144 -5.72574e-19)
(0.00164872 -0.0332984 -1.32815e-18)
(-0.00165815 0.0157916 2.68861e-19)
(0.0040954 -0.00355393 -7.82714e-20)
(0.420074 0.0305755 -2.87697e-18)
(-0.000111015 4.75938e-05 -9.586e-20)
(-0.00485234 0.00142251 -1.03261e-18)
(-0.0258967 -0.00899984 1.85678e-19)
(-0.0260366 -0.60505 -2.29276e-17)
(0.0120552 -0.579262 -3.54202e-17)
(-0.000482665 0.000507718 1.88332e-20)
(-0.0012059 -0.00205402 3.50924e-19)
(0.000496406 -0.000566041 1.45518e-20)
(-0.0213396 -0.11512 -4.4149e-18)
(0.0852505 0.0252045 1.25937e-17)
(1.37584e-05 2.29337e-05 -5.96127e-20)
(0.00232339 -0.00511869 5.47458e-19)
(0.00456506 -0.0123861 -6.84686e-20)
(0.000367406 -0.000464966 -1.12889e-20)
(-3.45496e-05 -0.000152496 -2.1166e-19)
(-0.00221339 0.00372458 -1.46994e-21)
(-0.0323963 -0.0150624 3.36737e-19)
(-0.00161079 -0.00446301 5.59828e-19)
(0.00145214 -0.00118261 1.6049e-19)
(0.000212578 0.000111538 -1.53465e-20)
(-0.000379983 0.000516895 -2.21507e-19)
(0.0247603 -0.0285062 1.54584e-18)
(-0.344153 0.303516 -1.14558e-17)
(0.000134595 -0.00567614 -8.66623e-20)
(0.000253577 -0.000982501 -5.88546e-20)
(-0.000150373 -6.45036e-05 -1.77071e-19)
(-0.0123429 -0.0102897 -1.20458e-20)
(5.55608e-05 3.4987e-05 5.09735e-20)
(-0.089565 -0.0240859 1.91353e-19)
(-0.0488096 -0.00231233 -5.5351e-19)
(-0.0664829 -0.0100387 -4.95248e-19)
(-0.0104659 -0.0187816 3.43492e-20)
(-0.000630766 -0.00846441 -1.31877e-20)
(-0.000595621 0.00014585 1.40037e-19)
(-0.00088251 0.00116513 -1.64263e-19)
(-0.00761557 0.00280336 -1.44214e-19)
(-0.00394432 0.00153032 -1.54919e-21)
(-0.0104255 0.00817002 6.80515e-19)
(-1.30797e-05 7.19514e-05 4.32772e-20)
(0.00952118 -0.0147963 -1.78589e-18)
(-0.030285 -0.0374543 -1.31689e-18)
(-0.00169106 -0.00110234 -4.72385e-19)
(-0.0164466 -0.00832759 -9.01389e-19)
(-0.000323915 0.000501989 3.26834e-19)
(-0.0944536 0.0308837 2.64598e-18)
(-0.00181732 0.000798138 2.3345e-19)
(-0.0122061 -0.00893264 2.28211e-19)
(0.0108326 0.00203502 2.15211e-20)
(0.00977056 -0.00638296 -1.35169e-19)
(0.000245732 -0.000415853 4.86103e-20)
(-0.00137538 0.0017167 -1.80073e-19)
(0.00172055 -0.00652403 4.4931e-20)
(-0.0961241 -0.0448278 4.80624e-19)
(-0.0233681 0.0135523 7.54161e-18)
(0.0016481 -4.84247e-06 -8.5579e-20)