/*--------------------------------*- C++ -*----------------------------------*\
| =========                 |                                                 |
| \\      /  F ield         | OpenFOAM: The Open Source CFD Toolbox           |
|  \\    /   O peration     | Version:  v2012                                 |
|   \\  /    A nd           | Website:  www.openfoam.com                      |
|    \\/     M anipulation  |                                                 |
\*---------------------------------------------------------------------------*/
FoamFile
{
    version     2.0;
    format      ascii;
    class       volScalarField;
    location    "150";
    object      p;
}
// * * * * * * * * * * * * * * * * * * * * * * * * * * * * * * * * * * * * * //

dimensions      [0 2 -2 0 0 0 0];


internalField   nonuniform List<scalar> 
9793
(
-0.0314733
-0.00581615
-0.0472313
0.000916406
-0.266234
0.00248214
0.00145985
0.00127313
-0.00357578
-0.285802
0.0256177
-0.00234833
0.000930175
-0.000288205
0.00156965
-0.000262675
0.00361062
0.00357074
-0.0835737
-0.000284946
0.00493353
0.00115334
-0.0439881
-4.20639e-05
0.00225354
0.000927618
-0.000321003
0.00249597
0.0210011
-0.00335153
0.00364832
-0.0428748
-0.00818261
0.000994251
0.0203234
-0.0024546
0.00132038
0.00109143
0.00122753
0.00151844
0.00358057
0.00140327
0.000810045
0.00115966
0.000900484
0.000914279
0.0214469
-0.00253624
0.00581527
0.000926466
0.0222672
0.0314407
0.0022098
-0.00136594
0.0209195
-0.0159148
-0.00181479
0.029784
0.00167576
0.001256
0.00157287
0.0019238
0.00729103
0.000236684
-0.192485
-0.0058751
0.00760109
0.00742178
0.00128816
0.025479
0.0137557
-0.000137836
0.00113789
-0.00272924
0.016121
0.00385743
-0.00183178
-0.000121444
0.000662694
0.002029
-0.00606216
0.00024864
-0.00324477
-0.00563656
0.00343428
-0.00383657
0.0020889
-0.00182415
0.00192155
5.98249e-06
-0.00839635
-0.094273
0.00179656
-0.0457428
0.00186034
-0.00835187
-0.00468643
-0.00575041
0.00176307
0.00106282
0.000940859
0.000152702
0.00237998
0.00232743
-1.93456e-05
0.00343071
0.00176206
0.00169031
0.00211118
-0.00237238
-0.000137635
0.00828987
-0.00128513
-0.047112
0.0332782
-0.00191459
-0.00708385
0.0128779
0.000173127
-0.0414314
-0.00204198
-8.90869e-05
-0.000716504
0.00243851
-0.00107443
0.00764885
0.00424328
-0.00646333
0.000616885
0.000632299
-2.2243e-05
-0.001924
0.000655388
0.000445138
-0.00329565
-0.0017704
0.000257184
0.00140004
-0.00118239
1.07771e-05
-0.000644253
0.00211927
0.00111176
0.000516348
-0.000283514
-0.000419445
0.00110909
0.000632342
0.00202714
-0.0821327
-0.282619
-0.00028499
-0.332082
-0.32921
0.00203199
-5.5012e-05
-0.000159053
0.0019819
0.000721975
0.00117501
0.00125988
0.00287397
-0.000254919
-0.0569601
-0.00167635
0.00665576
-0.00453776
0.00371693
-0.000330499
0.000499009
0.00184984
-0.0952019
-0.00180498
-0.0895306
-0.00152374
-0.0724012
-0.00189196
-4.00473e-05
0.000818155
0.00684813
-0.029313
-0.0045341
0.000860154
0.00217324
-0.000378024
0.00110813
0.0321866
0.000868294
-0.000410398
-0.000256667
-0.00179732
-0.000408239
0.00636339
0.0064696
0.00813623
0.00567813
-0.109078
0.000690586
-0.363929
1.44177e-06
-0.00307284
-0.0346345
-0.0189027
0.000536409
-0.00181656
-1.40872e-05
0.00131452
-2.04961e-05
0.00329227
-0.000476954
0.0101807
0.00575033
0.00623001
-0.00137346
-0.139707
-7.09058e-05
0.000575049
0.00240526
-2.13465e-05
0.0033299
-0.00109747
-0.00114916
-0.00127961
-0.000387163
-0.00861774
-0.0500147
0.00231006
0.00209291
0.00405251
0.0236455
-2.76969e-05
5.06474e-05
-0.00469613
2.06964e-05
0.0121882
0.00319084
-0.00104405
0.00168762
-0.00187314
0.000220737
0.0032528
-0.000230964
0.00166611
-0.00792316
0.00157869
0.00190425
0.00127732
0.00192795
0.00193687
0.00110979
0.000328924
0.00209245
0.0302032
0.00783225
0.00153156
0.00104
0.00175247
0.00264325
0.00271241
0.000194267
-0.000714135
0.00163429
0.0308799
0.000501312
0.00432625
-6.5333e-05
4.14829e-05
0.0101334
-0.0339103
0.00175493
0.00023383
-8.06625e-05
0.000712599
-0.00137183
-0.00868842
-0.00690875
0.000564887
0.00920628
-0.000205583
0.00576917
0.001841
-9.10785e-06
0.00158432
0.00162542
0.00189434
-0.00108215
0.000407975
0.00448642
0.00134304
-0.00169685
-0.00116048
-0.00838144
0.00196914
0.00138114
6.85395e-05
0.000224633
-0.000192121
0.00520663
-2.43706e-05
-0.0644601
0.0021177
-0.0298286
-0.0237046
0.00151259
0.00162231
0.000463797
0.000517992
0.00172175
0.00167605
-0.0266093
-0.000260084
0.000434531
0.00193558
0.000788219
-0.00022641
6.22694e-05
-0.00556106
0.00170703
0.00137064
-0.000415383
0.00154226
-0.00268793
-0.135361
-0.000919383
-2.31185e-05
-0.0223832
0.00018092
-0.000397966
0.0142008
-0.000205543
-0.00642825
0.0104596
0.000282412
0.00310518
0.0324654
0.00128022
0.00103346
-0.00300617
0.000790196
0.00230404
-0.0898384
0.000908926
0.00152726
-0.0654542
0.000329197
-0.000242986
2.66118e-05
0.000841063
0.00125795
-0.104621
-0.000622227
-0.00080142
0.000687057
0.00011273
-0.0999835
-0.00151334
0.00118798
3.36475e-06
0.0165404
0.000519835
0.0351024
0.018239
0.00075898
0.000129373
-0.132883
0.00146791
-0.000780337
0.000317669
1.93096e-05
-0.0186545
0.0030633
-0.154214
-0.000886489
0.0142412
-0.00443145
0.00292242
0.001043
-0.00873296
0.00216551
0.000361785
0.0011347
-0.00181017
-0.00536334
1.32516e-06
0.000509067
0.000161623
0.00160075
-0.00033061
-0.00174022
0.00111004
-0.0982545
-0.00197481
-0.243808
-0.0317356
-0.108612
0.0217374
-0.000297224
0.00141686
-0.00308496
-0.189894
-0.0233518
-0.000234072
-0.00474939
-0.0631348
-0.000102785
-0.0553693
0.00173166
0.00124595
-0.000101677
0.01072
0.000956499
0.0030799
0.00429619
3.86992e-05
-0.046407
0.00175048
-0.000360061
0.00188284
0.000383226
0.00165416
-0.000456033
-0.0276051
-0.000187033
-0.000162447
0.0337861
-0.002097
0.00282128
5.48758e-05
-0.000264606
0.00731887
0.00122976
-5.72396e-06
-0.000137283
-0.0257997
-0.000393227
-0.0246546
0.000614604
0.00639674
0.000926528
0.000466877
0.0014533
-0.00181244
0.00509994
0.000651502
-0.0165421
-0.000260833
0.00189969
0.00043069
-0.0762201
0.00375127
0.0351223
0.00613773
0.00232733
-0.000287719
0.00106894
0.00752109
0.00921374
-0.00414507
-0.00907946
-0.000254839
0.00174701
0.0165138
-0.000668921
2.83382e-05
-0.000507184
0.00241391
0.00137053
-0.0521278
0.00389917
0.0019967
0.00245744
0.000233292
-2.46458e-05
0.000821531
-0.000303121
0.000359742
0.00188197
0.000493337
0.00182047
-0.000182572
0.00023987
0.00293818
-0.00150417
0.00125915
-0.000271999
-0.0216653
0.00292231
-0.000819546
0.0132688
0.00615985
-6.10269e-06
0.000270218
0.000715775
0.00292958
3.21111e-05
0.000832001
5.17765e-05
0.0005402
0.00183126
0.00157816
-0.0010863
0.0333706
2.58171e-05
-0.00110886
-0.000683256
0.00141348
0.00185605
0.000592826
0.00595376
0.00176168
-0.024627
-0.000201358
0.00165443
0.0262606
-0.000346092
0.0111197
-0.0182972
0.00116742
0.00129676
-0.207925
0.0028666
0.00178413
0.00195215
0.00962016
0.001398
0.00180699
-0.000131179
0.00139124
-0.00741059
0.00986279
-0.000552756
0.00208595
0.00186888
0.00162037
-0.0016066
-7.80996e-05
-0.000124265
0.00579336
0.0371081
-8.05208e-05
0.000611249
-0.203827
0.00101685
-0.00146169
0.000289099
-0.000102058
0.0290439
-0.00303336
-0.0012852
0.0175172
-5.89621e-05
-0.0245485
0.00360897
0.00120982
0.00107085
0.00161351
0.00334023
-0.0148349
0.000287629
0.0106773
-0.007079
-0.177158
0.0128933
-0.0318036
0.00848419
0.00174377
0.00559279
0.00057312
-0.00213541
-0.000888451
0.00632944
-0.000266376
-0.000959377
0.0014837
-0.00582161
0.00160023
0.0207168
-0.000250367
0.000228082
-0.00292181
0.000434859
0.00483235
0.00110367
-0.000178094
0.00093602
0.000940463
-0.102994
0.000896701
-0.0059836
-0.0787085
0.000894476
0.00155452
-0.000349058
-0.00439707
-0.000542516
0.000602627
0.00293988
0.00385116
-0.00579207
0.000354738
0.00174754
0.00025179
0.000552064
0.00300624
0.000795645
0.00086525
-0.000426248
0.000548388
-0.0342136
0.000334101
0.00131968
-0.000238574
0.0012512
-0.000162153
-0.000343428
0.00160874
0.00224717
-1.90717e-05
0.00168571
0.00188339
0.000171883
0.0010279
-4.88452e-05
-0.00538919
0.00117886
-0.00204837
0.00114797
-0.00579956
0.00701823
0.00151692
0.00143853
-0.000318964
0.00168534
-0.000454652
-2.69701e-05
-0.000473762
0.00148042
0.000520929
-0.000260462
0.0126873
0.00132238
0.00148661
-0.000839735
0.00563
0.000815844
-0.000120885
0.023423
-0.000154217
0.00221102
0.020231
0.00225761
0.00109483
-6.56075e-05
0.027631
0.00125099
0.018546
-0.186066
-0.0231938
-0.005576
0.00214171
-0.000890852
-0.0127389
0.00499125
-0.000139158
-0.000177564
0.00639525
-0.163236
-0.000380593
0.0120359
-0.000942879
-0.000756992
-0.0600935
0.000134625
-0.00225563
-0.00145859
0.0341169
0.00140273
0.00179281
0.000545844
0.0185727
-0.0332643
0.00179326
-0.00138655
-0.00210106
0.00146449
0.00275972
0.0209371
0.00552935
0.00109166
-0.00108358
0.00455168
-0.00993399
-0.00113965
-0.010872
-0.000336974
0.00168161
0.00329712
-0.0354243
0.000836549
0.000244893
0.00160229
0.00113291
-0.000208418
-0.0316847
-0.000154394
-0.00712367
-0.00615216
-0.0103917
0.0290886
-0.00172886
0.0427095
-0.0271898
-0.0010552
-0.00301271
0.00331112
0.019538
-0.000195837
-0.000138088
-0.00251798
0.00139385
-0.0384154
0.00120278
-0.000132808
0.00230853
-0.00264933
-0.00365617
0.00182693
-0.127748
-0.000163687
-0.0030297
0.0138797
-0.128052
-0.130405
-0.000525723
0.00235155
-0.000168174
-0.0249281
-0.0723777
0.000274984
0.00276231
-0.00135666
-0.000183109
0.00110414
0.000460174
-0.0025796
0.00327772
0.001503
0.000709574
0.00124802
-0.00812808
-0.157127
-0.000640304
0.00171013
0.00112016
0.00539063
0.000200857
0.00173914
0.0191758
-0.00443854
-0.00100545
0.000223513
0.00134289
-0.00192934
-9.36273e-05
-0.00311295
0.00366271
3.07183e-05
0.0144993
-0.00837542
0.00229887
-0.0397277
0.00124705
-0.0199839
-0.00359601
-0.00159905
0.00105851
0.00121467
0.00126694
-0.000839695
-0.000802387
-0.00621684
-0.0459871
0.000945384
0.00878699
0.00440189
0.00108107
0.00218952
-0.0079041
0.000655175
0.0219664
0.00133845
-0.00222205
0.00169818
-3.71913e-05
0.00106714
0.0010914
-0.126846
0.000316729
0.000984738
0.00130215
-2.48483e-05
-0.000254252
0.00288705
0.000708076
-0.0061218
0.00134567
0.00111665
-0.000527979
0.000742855
0.0062656
0.00236184
-0.000886895
0.000866523
-0.00127683
0.000184654
0.000266534
0.000578203
0.00141844
0.00114425
-0.00812311
-0.000687369
-0.018917
0.026974
0.00486659
0.00146364
-0.000206129
-0.0165738
-0.000357188
-0.00198401
-0.00110225
-0.00178156
0.0283499
0.000883623
-0.00253665
0.00309913
-0.0166579
-0.0113586
0.000748757
-0.000779649
-0.00184848
-0.060809
-6.81943e-05
0.00106155
2.55405e-05
0.00135756
0.00255842
-4.54181e-05
-0.000469045
-0.0032592
-0.000805947
0.0137978
0.00201693
-0.0114691
0.00112644
-0.000466164
-0.00118391
-0.018778
0.000145278
-6.24206e-05
-0.000652767
0.00216106
-0.000365841
-0.00919787
-0.000304592
0.000768802
-0.00418157
-0.00524294
0.00133892
-0.0269623
0.0265408
0.00735239
-0.0084054
-0.0121941
0.000646074
0.00711192
0.00068672
0.00132121
-4.6225e-06
0.000604746
0.004446
-0.0738959
0.00197936
-0.0137004
-0.000750516
-0.00614507
0.000719819
0.00242648
0.000986488
0.000472298
0.0203834
-0.000727306
-0.00041957
0.0345218
0.00617179
0.00916978
0.00183676
-6.44732e-05
-0.000330911
-0.0584539
-0.00109423
1.04644e-05
6.29524e-06
-0.000371821
0.000697682
-0.0953863
0.0357274
-0.00752009
0.0111389
-0.00333188
0.00217727
0.000981388
0.00294446
0.000993957
0.0284992
0.0012146
0.0014941
0.00331563
0.0142438
-0.025302
0.00117103
-0.016157
-0.00328359
0.000240883
0.0100663
-0.00504876
-0.123965
0.00128917
0.000259057
-0.000808745
-0.000720791
0.00119158
-0.000693697
0.000770343
0.00174625
0.00136708
0.0292015
0.000966422
-0.00529991
-0.0138163
0.00978564
0.000868824
0.00753386
-0.0151725
-0.00928527
-0.0122658
-0.000412303
-0.000911779
-0.00336845
0.000761689
0.00137614
0.00518254
-0.000593643
-0.00588018
-0.0257071
-0.000966993
-0.00476621
-0.000812508
-0.000635225
-0.000105742
-0.00716391
0.0222378
0.00138741
-0.144789
-0.0102222
0.00117087
-0.0016663
0.00121749
0.0160565
-0.0297257
0.00240905
-0.00821546
-0.000769209
2.69801e-05
-0.0236702
-0.000655297
0.000493062
-0.000972499
-0.0912002
0.00359292
0.000991909
0.00143671
-0.000511229
0.000539012
0.000607093
-0.0013909
-0.0149291
0.000865421
0.00304304
0.00501007
-0.00319845
-2.97248e-05
0.00092976
0.00440433
-0.00164771
-0.000243364
-0.0101816
-0.000843037
-0.000151227
-0.000443038
0.00136545
0.000877941
-0.00279577
-0.00772912
0.00214664
-0.00654952
0.00326193
-0.000661217
-0.000906175
-0.000359403
0.000695863
0.000883185
0.000558278
0.000163318
0.00136195
0.00221666
0.00267111
-0.000811454
-0.00499448
6.0939e-05
0.043202
-0.000826839
0.000770947
9.05016e-05
0.00114035
0.00366767
0.0034865
0.00123036
-0.00262207
-5.74528e-05
0.00836528
-0.0107715
0.00117682
-0.0158696
0.00133865
-0.00101116
-0.0661758
0.00750671
0.0012079
-0.00142721
0.00126475
-0.00301173
0.0199416
0.000730792
0.00217673
0.00147206
0.00128026
-0.00317551
0.00101439
-5.16796e-06
0.00118115
0.000115486
-0.00441101
0.00105074
-2.9961e-05
0.00797215
0.000984185
0.00278356
-0.000795936
0.00104028
-0.00130498
-5.59981e-05
0.0249354
0.00115504
0.00123582
0.000976038
-0.00272605
0.0503656
-0.0010136
-0.00023136
0.0171239
-0.000493387
6.73059e-06
-0.0225489
0.0153294
0.00112589
-0.000437449
0.00668887
-0.0019119
0.000671226
-0.00394857
0.000928163
0.00441199
0.00782059
-0.00128296
-0.000269768
-0.000725592
-0.000138113
-0.000192105
0.0477615
0.00124456
0.00293466
-0.00767028
-0.000151472
-0.000618345
0.00390249
6.71245e-05
-0.00363256
-0.000510601
0.00192678
-0.0879721
-0.000180727
-0.00239052
-0.00317957
0.00264604
-0.00288046
0.000975246
0.0011555
-0.00310077
0.000335366
-0.00268316
-0.00104597
-0.000119061
0.0209669
0.00550724
-0.000260429
-0.00165252
-0.000221146
0.03201
0.00104637
0.00101793
0.000474746
0.000624206
0.00174287
0.00214181
0.00288157
-0.00151488
0.00220169
-0.000610528
-0.00898301
-0.00011056
-0.00017127
0.00115177
-0.00608931
-0.0328808
-0.000445766
-0.0501044
0.00149894
0.000469597
-0.000668647
-0.00342758
0.00188725
-0.00231114
0.00416244
-0.00141991
0.000232153
0.00301536
0.0441724
0.00218957
-0.000658214
-0.0403259
-0.000867042
-0.0670426
-0.109607
0.00122387
-0.00362953
-0.00034404
0.00512693
0.0153197
-0.000165115
0.000455546
-0.000379668
0.0137034
0.00134639
-0.000307488
0.00522717
0.00113577
-0.000155661
0.0105244
-0.00362419
0.0102531
-0.130076
-0.000115751
0.00161199
-0.0282072
0.00126659
-0.00432119
0.00130281
-0.00387795
0.00563329
-0.000471404
0.000977503
-0.00573316
-0.00658526
-0.0672912
0.00276157
-0.000298473
0.00133901
-0.130315
-0.0234744
-0.00539135
0.00104875
0.00107237
0.00119608
-5.97579e-05
0.00122866
0.000830219
0.00122341
0.00125016
0.000901511
-0.00879063
0.000191432
0.0011967
0.0285222
0.00104551
0.0028474
-0.0479867
-0.00592052
-0.00173751
-0.0169523
-0.00033517
0.019493
0.0181735
-0.0253024
-0.000688143
0.00086518
0.0234731
-0.00119632
0.0125924
0.00169806
-0.000604832
-0.000865244
0.000986615
-0.000625535
-0.00309248
2.86612e-05
0.0168991
6.23577e-06
-0.00012937
0.00136062
-0.000415485
0.0011532
-0.000541861
0.000979989
-0.00381797
-0.0113096
0.000317804
-0.000804925
0.00131287
-0.00314118
-0.00250436
-0.0509646
0.000206822
0.000267089
0.014104
0.0003813
0.00129851
-0.000143323
0.00065718
0.00128538
0.0368322
-0.00263954
-0.00193202
0.00237696
0.00114101
-0.00330023
0.00041948
-0.00551287
0.000421969
0.00100842
-0.0169181
0.0144281
-0.0141731
0.0243543
0.00399698
-0.00235743
-0.00514766
0.00102346
-0.00207811
0.00458245
0.0150231
-0.217747
0.00121559
0.00995987
-0.00264004
-0.00194485
-0.0454389
-0.00539992
-0.0615397
-0.324458
0.00122407
0.0083568
0.001331
0.0185328
0.00284016
0.0306839
0.0176667
-0.000371321
-0.0943775
-0.00720336
-0.00274367
-0.00652838
-0.00283147
0.0282687
0.00395854
-0.00282041
-0.06869
0.00130019
-0.129234
0.00344102
-0.000392106
-0.00407059
-0.00284466
0.00500387
0.000520668
-0.00365719
-0.00408624
1.96194e-05
0.00127193
0.00373326
0.00104747
-0.154198
0.00273278
0.000396967
0.00163888
0.0357548
-0.00529603
0.000460241
-0.000833176
-0.00480707
0.00200675
-0.000780618
-0.000705407
0.000688312
0.00176734
0.00269763
-0.077392
-0.00501497
0.00027041
-0.00127701
-0.000381054
0.0113284
-0.000657225
-0.00339385
0.00073659
0.040787
0.00128255
0.00128632
-0.00102971
0.024849
-0.149582
-0.00059132
4.34028e-05
-0.0051386
-0.00479066
-0.00250163
0.00386239
0.000272505
-0.00481439
0.00119123
0.00838868
-0.232767
-0.184258
1.70653e-05
0.0274053
0.00118447
0.000660405
-7.14628e-05
-0.00404236
0.0177012
-0.000870843
-0.000673057
-0.0391488
-0.0835322
-0.00296181
-0.00218318
-0.00232122
0.013978
0.00139365
0.00136221
-0.00224662
-0.00117088
5.36172e-05
0.000803965
-7.26527e-05
-3.23149e-05
-0.0402381
0.0121174
0.00117814
-0.00266283
-0.000608795
-0.00402167
-0.355409
-0.00110529
-0.000211616
-0.00221175
0.00121129
-0.00186869
0.00123938
0.0193148
0.039782
-0.00245346
-0.000160919
0.00133474
0.00117539
0.00107475
-0.0133744
-0.00210789
-0.00858555
-0.000561142
-0.000279854
0.00376238
0.0377076
-0.00252769
-0.0382134
-0.00273658
-0.00145688
-2.09475e-05
-0.0838148
0.000294401
-0.000711547
-0.154667
0.000387595
-0.00238163
0.000740825
-0.00154964
-0.000559345
-5.73462e-05
0.00112261
0.00843304
-0.00292088
-0.0214976
-0.0329443
0.000814412
0.0466387
0.000163393
-0.00348279
0.00142453
0.00208437
0.0012939
-0.000978163
-5.1319e-05
0.0424841
0.00131603
0.00173941
0.0032575
-0.000202526
-0.0193179
0.00199559
-0.00328975
0.000808732
0.0010099
-0.0465423
-0.000681333
0.00125464
0.0020798
-0.0182009
0.0280026
-7.74815e-05
0.00130693
0.000865293
-0.0920915
-0.0120215
0.00434997
-0.00457326
-0.00152571
-0.00160389
-0.0343698
0.00123514
0.00902951
-0.000632652
-0.0643065
-0.000919816
0.00789966
0.000306497
-0.00013776
-0.00190505
0.0091347
-0.000855384
-0.00457873
-0.00321122
0.00431765
-0.00377752
0.00500651
0.00209521
-0.00358358
0.0230446
0.00124065
0.0159745
-0.0025617
-0.00100258
-0.000848093
0.00756996
0.00459886
-0.0160855
-0.000261287
-0.0651613
0.00125216
0.00576016
-0.00257316
-0.000874924
-0.000874354
-0.000561562
-0.013633
-0.000527309
-0.000199408
-0.00250295
-0.000464698
-0.00114768
0.03
-0.00110946
-0.00140786
-0.00126603
0.0038731
-0.0377449
-0.00156516
0.00164935
-0.00263115
-0.000919791
0.000574328
-0.0089883
-0.0010725
-0.00995007
-0.00136463
0.00105719
0.00434107
-0.00135783
0.0118779
-0.00311384
-0.000191183
0.0020827
0.0010934
0.0292247
0.00105426
-0.00275498
0.00014635
0.000687352
0.000943696
-0.00383611
0.000341635
0.00165313
-0.000221
0.00275888
0.00128105
0.00130489
0.00111447
-0.0130339
0.00275854
-0.00945599
-0.00107698
0.00059034
0.00559936
-0.00103653
-0.0178111
-0.00296657
0.00104096
-0.00756627
-0.000585022
-0.0153297
0.00183603
0.0214999
0.00138819
-0.000789635
-0.0126008
-2.34597e-05
0.00167686
0.00558965
0.000947652
-0.000522867
-0.00491714
0.00132304
-0.0113684
-0.00264954
-0.00136215
-0.000631807
-0.000508759
-0.000268015
0.0511838
-0.000611931
0.000399941
0.000542754
0.000874007
-0.00116158
-0.00956683
0.00183323
-0.0115907
-0.000449779
-0.000311631
-0.00203984
-0.00253324
-0.000445989
0.0172616
0.0154884
0.00221968
-0.000494948
-0.0123364
0.000745125
-0.00288453
-0.00431564
0.00097165
0.00188486
-0.000294471
0.00283624
-0.00139685
0.00180884
0.000125634
0.00340355
0.0259886
0.0164477
0.00220413
-0.000274121
-5.79872e-05
-0.000140642
-0.000361457
-0.00268521
-0.00979828
-0.00659484
-0.00447985
-0.000284877
0.00416532
-0.00119896
0.000199791
0.000639181
-0.00381408
0.000857194
0.00393037
0.000129116
-0.00268532
0.000177159
0.00130301
-0.000120967
0.00161034
0.00317693
-0.000946612
-0.00388002
-2.47657e-05
-3.19951e-05
-0.00027168
-0.0026772
-0.000393149
-0.000729761
-0.00451731
-0.00527089
-0.00262145
-0.0132496
-0.000158811
0.00133536
0.00340182
-0.000553439
-0.000131572
-0.151644
0.00160908
-0.000922405
7.60527e-05
0.00267239
-0.00371335
0.00597595
-0.000817762
-0.0024648
-0.000320085
0.000692386
0.0020502
0.000131678
0.00403949
-0.000307108
-0.00448764
0.0193013
-0.00041999
-0.0228985
-0.000262197
0.00845554
-0.00331463
-0.00798377
-0.00213928
-0.00038039
0.000390953
0.000403228
-0.00273809
-0.000286882
-0.0183917
0.000979411
0.00454514
0.00043369
0.0019916
-0.123567
0.00107893
-0.0923477
0.0279795
-0.000147279
0.00177062
0.000566011
-0.000180366
-0.000182303
-0.00149021
0.00127769
-0.000215133
0.000609862
0.00100959
-0.00155156
-0.00134462
0.000981438
-0.00337743
0.00129445
0.000128243
0.000164926
-0.00157384
0.00169524
-0.000394599
0.000566997
-0.000849665
7.13688e-06
-8.35772e-05
-0.0920834
0.00103432
0.00025064
0.00445407
-0.0015949
-0.000603549
0.00121788
0.00113486
0.001469
-8.22758e-05
0.00151924
-0.0156025
-0.00157801
0.000495948
0.00115525
0.000528378
0.000277659
-0.00173965
0.00776129
-0.000314039
-0.0650045
-0.00183983
0.00321083
0.00161644
-0.000653326
-0.0345421
-0.0947046
0.00107008
0.000793868
-0.000561912
0.00133068
-0.0114305
0.00105072
0.00297758
-0.0487159
-0.000130316
-0.060251
0.00390627
-0.000904293
0.00195667
-0.00236953
-0.00214918
0.000323699
0.00122743
-0.00064416
-5.32686e-05
-0.000195007
0.000483146
-0.000117761
9.36876e-05
0.00365354
0.00133319
0.00122007
0.000422694
0.0112236
0.000660337
0.000840422
0.0338454
0.00444834
-0.000919633
0.00129452
0.00087432
0.000168663
0.00436492
-0.000777081
0.000136202
0.00390305
0.00262442
-0.0301563
-0.000405714
-0.0177228
0.00376605
0.0332014
-0.000460673
0.00482868
0.000831095
-0.000776698
-0.000752831
0.00320474
-0.00158723
0.00116456
-0.000818248
-0.000308743
-0.101273
-0.000700809
0.0011219
-0.00114684
0.00453292
0.0129731
-0.0217012
0.00349587
0.00416394
0.0116067
0.00503573
-0.0101106
0.000465503
0.000414111
0.000876724
0.00377686
-0.00121856
0.00430849
-8.53274e-05
0.000174839
0.00152611
0.0207819
0.000331004
0.00154225
0.00112466
0.0056887
0.00130427
0.000462579
0.00197202
0.00207939
-0.0246145
0.00124357
-0.000250927
-0.00270925
-0.0711325
0.00334183
-0.000547905
-0.000459778
-0.00158094
-0.000893629
0.000351065
0.000790775
0.0104848
0.00154953
0.00123962
0.00136014
0.00172922
0.00464316
0.0010042
-0.0011855
0.000693115
0.000381824
0.000936781
0.000779036
0.000671514
0.000655267
0.00126051
-0.00745663
-0.000182467
0.00139062
0.00477849
-0.00994256
0.00402399
0.0119333
0.00124764
-0.0100041
-0.000293817
0.00306654
0.000851153
0.00563049
0.00155383
-6.26506e-05
0.000691932
0.00513641
0.000354311
0.00027078
-0.0246795
0.00126873
0.000575197
0.00139787
1.53697e-05
0.00676599
0.00140634
0.00756604
-0.0017171
-0.000755495
0.00418218
0.00154536
-0.000721078
0.000917514
0.00152487
0.000231117
-0.104356
0.00100923
-0.00118899
0.00399583
-0.0508259
-0.00439518
0.00454182
0.000637444
0.00022498
-0.000327254
0.00668225
0.00536261
0.00103287
0.00372386
0.00130965
0.00130176
-0.00914317
0.00210343
0.000640189
-0.00748697
0.00434756
0.00644093
0.00131755
0.00114843
-0.00417649
0.00134978
-0.000593093
-0.0166572
0.00148923
-0.00138855
-0.0191877
-0.0924134
-0.000718487
0.000956315
0.000600326
-0.000442847
-0.000709879
-0.00315347
-0.000988376
0.00193187
0.00127212
-0.000838789
0.00118833
0.00108131
0.00138145
0.00283538
0.000192334
0.00141229
0.0223663
-0.00204144
0.00146693
0.00487876
0.00122946
0.000713404
0.00161931
0.00147365
0.00104251
0.00670289
0.00496342
0.00150295
0.00102613
0.00159519
-0.000259784
0.00137338
0.00163654
0.0030846
0.00123605
0.00184839
0.00177972
0.00165523
0.00929821
-0.000758048
0.0019507
-0.00518736
0.00215127
0.00139108
-0.0012111
0.0025311
0.00751815
-0.084167
0.0194707
0.00193141
0.000800271
0.00424318
-0.0618799
-0.00110538
-0.00313328
-0.00233429
-0.00204425
-0.00175695
0.00785483
0.000499662
0.0045151
3.75056e-05
0.00535486
0.00405944
-0.0877344
0.000610583
0.00154869
-0.0108479
0.00150365
0.00176253
-0.000898274
-0.00402268
-0.000552487
-0.0016491
0.00178047
-0.0811187
0.00154458
0.00145422
-3.83799e-05
0.00103702
0.00120813
0.00453029
-0.0037269
0.00125283
0.00169672
0.0015844
0.00339943
0.00440491
0.000786531
0.00151168
0.000945641
0.000491469
0.0012196
0.000387794
-0.270602
0.00120251
0.0131667
0.000504276
0.00188439
0.00185735
0.000681168
0.00999781
0.00392249
0.00161844
0.00207603
-0.0111316
0.00813392
0.00256376
0.00638446
0.00124507
0.00119078
0.000839862
-0.000266146
0.00141716
0.000562122
0.00103326
1.04944e-05
0.000453192
0.00984063
-0.000350431
-0.0028843
0.00503309
-0.000450237
0.00174766
-0.00603127
0.000390971
0.000641451
0.000122384
0.000945409
0.00163165
-0.00148101
-0.000348539
0.0017327
0.0031448
0.000941281
-0.000215531
0.00106214
0.0036982
-0.00119813
-0.00104803
0.00391602
0.00130368
0.00141184
0.00145605
-0.00331232
5.32336e-05
-0.000122083
0.000895535
-0.000401425
0.00360405
0.00101631
0.00126948
-0.000849158
-0.000301609
0.000583332
0.000710847
-0.000802822
-0.0198925
0.000187171
0.00299118
-0.000367019
0.000827048
0.00150926
0.000799018
-0.00417119
-0.000929863
0.00116794
0.000145143
-0.000679751
0.00105883
0.00137097
0.000303127
-0.000105059
0.00360316
0.00109525
0.00118593
-0.0571933
0.00088045
0.00116682
0.00314542
-0.0232478
-7.76927e-05
0.00137494
0.00195638
0.00165244
0.00122773
-0.0198657
0.00133949
-0.0698628
-0.00201686
-0.00549828
0.00111678
-0.0148954
-0.000714403
0.00296952
-0.0103505
-0.000692067
0.00184838
0.000370833
0.00100086
-0.0034848
0.00123813
-0.00125618
0.00133162
6.79516e-05
0.000616755
0.000721177
0.000778027
-0.00192217
0.00105911
-0.0101152
-0.00201708
0.0302909
0.00865983
-0.000282966
-0.000908832
-0.00610431
-0.00256768
0.000362223
0.00442578
0.00611679
0.000110505
0.00129945
-0.0224976
0.00135744
-0.00235059
-0.00222053
0.00110907
-0.00390271
0.00015574
0.00385443
-0.0185181
-0.00123542
0.0014422
0.00376715
-0.0260943
0.00165753
0.000888282
0.00117167
-0.000493896
0.00132851
-0.021817
0.00145589
-0.00052334
0.00440119
0.000495266
-0.00682639
-0.00143947
0.000194531
0.00177457
0.00440553
0.00143166
0.00134355
-0.0627701
-0.0167654
-0.00522721
0.00203521
0.000494255
0.00387018
0.00450848
-0.00140147
0.0351195
-8.52304e-05
-7.76997e-05
0.000881936
-7.62001e-05
0.0007468
-0.000120669
0.00171334
0.00193613
0.00191347
0.000913099
0.00133645
-0.000116826
0.000697822
0.00147569
0.00106057
0.00141727
0.0027036
-0.000485469
-0.00166111
-0.0616803
-0.00405781
0.00134464
0.00128115
0.000223788
0.00749487
6.06595e-06
0.00214618
0.00129319
0.00149928
0.000677661
0.0276136
0.00129264
0.000191116
-0.000247194
0.0012627
-0.00160322
-0.00466597
0.00197813
0.00133163
0.00132226
0.0037083
-0.00175629
0.000518365
0.00139208
-0.00102791
0.00132284
5.43167e-05
0.00127748
0.0483874
0.00100091
0.00131503
0.00476744
0.00188617
0.0351659
0.00120745
0.00134305
-9.06233e-05
-0.00321412
0.00153443
-0.011055
-0.029916
0.00118978
0.00111812
-0.0041941
5.89099e-05
-0.00278713
0.0012784
0.00645161
-0.011363
0.00120581
0.00441159
-0.0046873
0.00130874
-0.00558332
0.00142034
-0.24032
-0.00124693
0.0012846
0.00128238
-0.000599309
0.000942542
0.00229546
-0.00492011
0.00159873
0.00160896
0.00140482
0.00129892
0.00252816
0.00157783
-0.00318632
0.00131114
0.00161749
0.00140539
0.00157545
-0.00126625
0.00179134
0.00133046
0.00134101
-0.000241673
0.00187583
-0.00131563
-0.0656464
0.00131226
0.00141804
0.00127518
-0.0162302
0.000446448
-0.00449012
0.034863
0.00413137
-0.36909
0.00360505
0.00331053
-0.000126291
0.00709261
-0.00277429
0.00150141
-0.00500037
-0.000718414
0.00186647
0.00159895
0.0011762
0.0015962
-0.00045837
-0.00342234
-0.000510788
0.00166945
0.000950914
-0.00719243
-7.68582e-06
0.00125784
0.00161193
-0.0074907
0.00393735
0.00911605
-0.000664729
0.00338017
0.00102986
-0.000810044
0.00276851
-0.015651
-0.0438635
0.00694176
0.00319805
-0.000791567
0.0172925
0.00141837
0.00087268
0.000672473
0.00108077
-0.000645267
0.00128416
0.014311
-0.000584854
0.000807795
0.00170977
-0.0148171
-0.000412852
-4.67032e-05
0.00306096
-0.00182016
-0.00111275
-0.000683621
-0.00341561
-0.000208319
-0.00424901
0.00079585
-0.00554148
0.00183917
0.00409617
-0.0093863
0.00163059
0.0051026
0.00129029
-0.00330253
0.00126371
0.00204357
-0.000653125
0.00604893
0.00196395
0.00128628
0.000167036
-0.000897746
0.000334326
-0.00357487
-0.00282348
0.00313003
0.00522704
0.00121445
3.73367e-05
0.00674362
0.00382181
-0.00456771
-0.0388685
0.00129005
-0.00143602
-0.00454288
0.00877013
0.00126987
-0.000618975
-0.00126832
0.00128626
-0.000899733
-0.000217364
-0.000654388
-0.00617191
-0.000743685
-0.000348649
0.00129039
0.00130726
-0.000948581
0.00113407
0.00293067
0.00114062
-0.00201518
0.00222492
-0.0464505
0.000579885
0.00155168
-0.000638216
-0.0108718
-0.000860016
-0.000925912
-0.000856433
0.00591764
0.00297152
0.00127854
-0.0135214
-0.000332801
0.0158642
-0.118738
0.000637477
0.003532
0.00192368
-0.000381962
0.0012806
0.00129017
0.00132237
0.00125725
-0.000211844
0.00243851
0.00124492
0.00130604
-0.0443509
0.00136988
0.00152782
0.0013479
-0.00486399
0.000843607
0.00113931
-0.00233109
-0.00369373
0.00112474
-0.000226609
0.00362582
0.00136821
-0.00669893
-0.157529
0.00145222
-0.00128527
0.00385873
-0.00800561
-0.00542924
0.000523293
0.00134674
0.00138136
0.00373525
-0.00381501
-0.00315799
-0.00314262
0.00263612
-0.00448713
0.00117652
0.000315351
-0.00221335
-0.0373947
0.00157861
-0.00640038
-0.00168154
-0.000285604
0.0012781
0.0013386
0.0013324
0.0013374
0.00134226
0.00128501
-3.96824e-05
-0.00659386
0.00284092
0.000597906
-0.00482962
-0.00236959
0.00148344
0.00128996
-0.0150556
0.0023316
-0.00110889
0.00150337
0.00076034
0.00156159
1.0753e-05
-0.0419556
-0.000807813
0.000689784
-0.0227685
-0.0379292
-0.0124055
0.00132417
-0.0860993
6.55284e-06
-0.0186336
-0.0391808
0.00256449
-0.0526467
0.0013016
0.00178655
0.00844258
0.00119968
0.0125639
-0.110326
-0.0264653
0.00116626
-0.00171688
0.000780346
0.00129522
0.00170922
0.0013373
-0.020891
-0.0152165
0.00129382
-0.036003
0.00184978
-0.000229352
0.0013047
-0.00520902
-0.00644438
0.00483876
0.00166361
-0.0055441
-0.00889322
0.00106803
0.00559424
-0.00574752
-0.00652661
-0.0608505
-0.000577542
-0.0338603
-0.000181154
-0.00248301
-0.00528877
-0.000318619
-0.0554464
-0.0446821
0.00420271
-0.000110781
-0.0104209
0.00198931
0.00130639
-0.315058
0.00103201
0.00130348
0.000640588
-0.000645348
-0.000323681
0.00390554
0.00129206
0.00208838
-0.000890324
-0.00141154
-0.000608596
-0.000935577