/*--------------------------------*- C++ -*----------------------------------*\
| =========                 |                                                 |
| \\      /  F ield         | OpenFOAM: The Open Source CFD Toolbox           |
|  \\    /   O peration     | Version:  v2012                                 |
|   \\  /    A nd           | Website:  www.openfoam.com                      |
|    \\/     M anipulation  |                                                 |
\*---------------------------------------------------------------------------*/
FoamFile
{
    version     2.0;
    format      ascii;
    class       pointVectorField;
    location    "150";
    object      pointDisplacement;
}
// * * * * * * * * * * * * * * * * * * * * * * * * * * * * * * * * * * * * * //

dimensions      [0 1 0 0 0 0 0];


internalField   nonuniform List<vector> 
10142
(
(0 0 0)
(0 0 0)
(0 0 0)
(0 0 0)
(0 0 0)
(0 0 0)
(0 0 0)
(0 0 0)
(0 0 0)
(0 0 0)
(0 0 0)
(0 0 0)
(0 0 0)
(0 0 0)
(0 0 0)
(0 0 0)
(0 0 0)
(0 0 0)
(0 0 0)
(0 0 0)
(0 0 0)
(0 0 0)
(0 0 0)
(0 0 0)
(0 0 0)
(0 0 0)
(0 0 0)
(0 0 0)
(0 0 0)
(0 0 0)
(0 0 0)
(0 0 0)
(0 0 0)
(0 0 0)
(0 0 0)
(0 0 0)
(0 0 0)
(0 0 0)
(0 0 0)
(0 0 0)
(0 0 0)
(0 0 0)
(0 0 0)
(0 0 0)
(0 0 0)
(0 0 0)
(0 0 0)
(0 0 0)
(0 0 0)
(0 0 0)
(0 0 0)
(0 0 0)
(0 0 0)
(0 0 0)
(0 0 0)
(0 0 0)
(0 0 0)
(0 0 0)
(0 0 0)
(0 0 0)
(0 0 0)
(0 0 0)
(0 0 0)
(0 0 0)
(0 0 0)
(0 0 0)
(0 0 0)
(0 0 0)
(0 0 0)
(0 0 0)
(0 0 0)
(0 0 0)
(0 0 0)
(0 0 0)
(0 0 0)
(0 0 0)
(0 0 0)
(0 0 0)
(0 0 0)
(0 0 0)
(0 0 0)
(0 0 0)
(0 0 0)
(0 0 0)
(0 0 0)
(0 0 0)
(0 0 0)
(0 0 0)
(0 0 0)
(0 0 0)
(0 0 0)
(0 0 0)
(0 0 0)
(0 0 0)
(0 0 0)
(0 0 0)
(0 0 0)
(0 0 0)
(0 0 0)
(0 0 0)
(0 0 0)
(0 0 0)
(0 0 0)
(0 0 0)
(0 0 0)
(0 0 0)
(0 0 0)
(0 0 0)
(0 0 0)
(0 0 0)
(0 0 0)
(0 0 0)
(0 0 0)
(0 0 0)
(0 0 0)
(0 0 0)
(0 0 0)
(0 0 0)
(0 0 0)
(0 0 0)
(0 0 0)
(0 0 0)
(0 0 0)
(0 0 0)
(0 0 0)
(0 0 0)
(0 0 0)
(0 0 0)
(0 0 0)
(0 0 0)
(0 0 0)
(0 0 0)
(0 0 0)
(0 0 0)
(0 0 0)
(0 0 0)
(0 0 0)
(0 0 0)
(0 0 0)
(0 0 0)
(0 0 0)
(0 0 0)
(0 0 0)
(0 0 0)
(0 0 0)
(0 0 0)
(0 0 0)
(0 0 0)
(0 0 0)
(0 0 0)
(0 0 0)
(0 0 0)
(0 0 0)
(0 0 0)
(0 0 0)
(0 0 0)
(0 0 0)
(0 0 0)
(0 0 0)
(0 0 0)
(0 0 0)
(0 0 0)
(0 0 0)
(0 0 0)
(0 0 0)
(0 0 0)
(0 0 0)
(0 0 0)
(0 0 0)
(0 0 0)
(0 0 0)
(0 0 0)
(0 0 0)
(0 0 0)
(0 0 0)
(0 0 0)
(0 0 0)
(0 0 0)
(0 0 0)
(0 0 0)
(0 0 0)
(0 0 0)
(0 0 0)
(0 0 0)
(0 0 0)
(0 0 0)
(0 0 0)
(0 0 0)
(0 0 0)
(0 0 0)
(0 0 0)
(0 0 0)
(0 0 0)
(0 0 0)
(0 0 0)
(0 0 0)
(0 0 0)
(0 0 0)
(0 0 0)
(0 0 0)
(0 0 0)
(0 0 0)
(0 0 0)
(0 0 0)
(0 0 0)
(0 0 0)
(0 0 0)
(0 0 0)
(0 0 0)
(0 0 0)
(0 0 0)
(0 0 0)
(0 0 0)
(0 0 0)
(0 0 0)
(0 0 0)
(0 0 0)
(0 0 0)
(0 0 0)
(0 0 0)
(0 0 0)
(0 0 0)
(0 0 0)
(0 0 0)
(0 0 0)
(0 0 0)
(0 0 0)
(0 0 0)
(0 0 0)
(0 0 0)
(0 0 0)
(0 0 0)
(0 0 0)
(0 0 0)
(0 0 0)
(0 0 0)
(0 0 0)
(0 0 0)
(0 0 0)
(0 0 0)
(0 0 0)
(0 0 0)
(0 0 0)
(0 0 0)
(0 0 0)
(0 0 0)
(0 0 0)
(0 0 0)
(0 0 0)
(0 0 0)
(0 0 0)
(0 0 0)
(0 0 0)
(0 0 0)
(0 0 0)
(0 0 0)
(0 0.00031126 0)
(0 0.000349933 0)
(0 0.000236766 0)
(0 0.000275374 0)
(0 0.000185026 0)
(0 0.00028352 0)
(0 0.000158069 0)
(0 0.000305691 0)
(0 0.000121522 0)
(0 0.00021171 0)
(0 0.000136562 0)
(0 9.11965e-05 0)
(0 9.21873e-05 0)
(0 0.000286615 0)
(0 8.44735e-05 0)
(0 6.7395e-05 0)
(0 6.37283e-05 0)
(0 0.000341083 0)
(0 0.000209043 0)
(0 0.000173834 0)
(0 5.14265e-05 0)
(0 3.47656e-05 0)
(0 0.000291939 0)
(0 0.000354247 0)
(0 0.000303676 0)
(0 0.000306357 0)
(0 0.000235394 0)
(0 9.99263e-05 0)
(0 0.000130009 0)
(0 0.00011572 0)
(0 0.000103574 0)
(0 3.37836e-05 0)
(0 2.13294e-05 0)
(0 1.84046e-05 0)
(0 0.000312783 0)
(0 0.000355835 0)
(0 0.000300694 0)
(0 0.000269681 0)
(0 0.000298666 0)
(0 0.000213934 0)
(0 0.000147174 0)
(0 0.000175547 0)
(0 0.000246596 0)
(0 5.95733e-05 0)
(0 0.000166068 0)
(0 0.000111231 0)
(0 8.31188e-05 0)
(0 6.80993e-05 0)
(0 4.72137e-05 0)
(0 8.34526e-05 0)
(0 9.21671e-06 0)
(0 0.00203409 0)
(0 0.00194999 0)
(0 0.00206283 0)
(0 0.00197765 0)
(0 0.00209291 0)
(0 0.00200724 0)
(0 0.00212513 0)
(0 0.00203948 0)
(0 0.00216022 0)
(0 0.00207509 0)
(0 0.00219774 0)
(0 0.00211397 0)
(0 0.0022367 0)
(0 0.00215524 0)
(0 0.00228093 0)
(0 0.00219807 0)
(0 0.00232688 0)
(0 0.00224513 0)
(0 0.00237675 0)
(0 0.0023004 0)
(0 0.00243918 0)
(0 0.00235939 0)
(0 0.00250244 0)
(0 0.00242323 0)
(0 0.0025636 0)
(0 0.00249133 0)
(0 0.00263214 0)
(0 0.00256206 0)
(0 0.00270813 0)
(0 0.00263675 0)
(0 0.00278502 0)
(0 0.00271627 0)
(0 0.00286582 0)
(0 0.00279988 0)
(0 0.00295115 0)
(0 0.00288839 0)
(0 0.0030419 0)
(0 0.0029822 0)
(0 0.00313412 0)
(0 0.00307542 0)
(0 0.00322391 0)
(0 0.00316966 0)
(0 0.00332043 0)
(0 0.00326596 0)
(0 0.00341857 0)
(0 0.00336278 0)
(0 0.00351743 0)
(0 0.00346486 0)
(0 0.00362196 0)
(0 0.00356961 0)
(0 0.00372573 0)
(0 0.00367405 0)
(0 0.00383215 0)
(0 0.00351258 0)
(0 0.00362196 0)
(0 0.00387941 0)
(0 0.00398344 0)
(0 0.00320881 0)
(0 0.00265036 0)
(0 0.00228342 0)
(0 0.00403338 0)
(0 0.00413327 0)
(0 0.00418621 0)
(0 0.00428353 0)
(0 0.00433386 0)
(0 0.00442899 0)
(0 0.0044814 0)
(0 0.00457857 0)
(0 0.00462999 0)
(0 0.00472574 0)
(0 0.00476866 0)
(0 0.00486202 0)
(0 0.00489955 0)
(0 0.00499497 0)
(0 0.00502697 0)
(0 0.00512319 0)
(0 0.00514614 0)
(0 0.00523726 0)
(0 0.00525379 0)
(0 0.0053355 0)
(0 0.00534664 0)
(0 0.00542015 0)
(0 0.00541245 0)
(0 0.00549639 0)
(0 0.00548876 0)
(0 0.00557272 0)
(0 0.00556213 0)
(0 0.00564515 0)
(0 0.00563066 0)
(0 0.00571148 0)
(0 0.00569815 0)
(0 0.00577769 0)
(0 0.00576371 0)
(0 0.00584212 0)
(0 0.0058232 0)
(0 0.00589658 0)
(0 0.00587298 0)
(0 0.00594347 0)
(0 0.00591694 0)
(0 0.00598662 0)
(0 0.00602273 0)
(0 0.0060449 0)
(0 0.00607789 0)
(0 0.0061046 0)
(0 0.00571663 0)
(0 0.00612408 0)
(0 0.00615075 0)
(0 0.00619068 0)
(0 0.00621034 0)
(0 0.0062413 0)
(0 0.0062505 0)
(0 0.00626299 0)
(0 0.00627096 0)
(0 0.00627137 0)
(0 0.0062833 0)
(0 0.00628094 0)
(0 0.00628318 0)
(0 0.00626971 0)
(0 0.00626288 0)
(0 0.00624125 0)
(0 0.00624761 0)
(0 0.00622618 0)
(0 0.00620046 0)
(0 0.00620598 0)
(0 0.00617891 0)
(0 0.0061488 0)
(0 0.0061193 0)
(0 0.0060874 0)
(0 0.00605339 0)
(0 0.00526969 0)
(0 0.00604933 0)
(0 0.00601237 0)
(0 0.00596886 0)
(0 0.00595788 0)
(0 0.00591771 0)
(0 0.00586138 0)
(0 0.00581389 0)
(0 0.00575002 0)
(0 0.00569308 0)
(0 0.0056806 0)
(0 0.00562454 0)
(0 0.00556311 0)
(0 0.00555391 0)
(0 0.00549526 0)
(0 0.00543006 0)
(0 0.00542169 0)
(0 0.00535884 0)
(0 0.00273634 0)
(0 0.00527741 0)
(0 0.00520598 0)
(0 0.00511992 0)
(0 0.00504355 0)
(0 0.00503119 0)
(0 0.00495606 0)
(0 0.00487811 0)
(0 0.00486668 0)
(0 0.00479177 0)
(0 0.00470299 0)
(0 0.00462718 0)
(0 0.00453776 0)
(0 0.00445786 0)
(0 0.00444544 0)
(0 0.00436673 0)
(0 0.00428597 0)
(0 0.00427387 0)
(0 0.00419377 0)
(0 0.00409989 0)
(0 0.00234919 0)
(0 0.00206905 0)
(0 0.00536044 0)
(0 0.00528737 0)
(0 0.00537733 0)
(0 0.00530552 0)
(0 0.00539177 0)
(0 0.00531958 0)
(0 0.00541338 0)
(0 0.00532926 0)
(0 0.00540536 0)
(0 0.00533519 0)
(0 0.00540081 0)
(0 0.00533144 0)
(0 0.00539004 0)
(0 0.0053189 0)
(0 0.00537321 0)
(0 0.00530041 0)
(0 0.00534684 0)
(0 0.00526869 0)
(0 0.0053097 0)
(0 0.00522377 0)
(0 0.00525885 0)
(0 0.00534559 0)
(0 0.00528507 0)
(0 0.00537081 0)
(0 0.00530326 0)
(0 0.00538683 0)
(0 0.00516743 0)
(0 0.00513115 0)
(0 0.00531608 0)
(0 0.00539825 0)
(0 0.00507356 0)
(0 0.00503745 0)
(0 0.00532 0)
(0 0.00539825 0)
(0 0.00497931 0)
(0 0.00494173 0)
(0 0.00529334 0)
(0 0.00538684 0)
(0 0.0048812 0)
(0 0.00483781 0)
(0 0.0047783 0)
(0 0.00473146 0)
(0 0.00528495 0)
(0 0.00536673 0)
(0 0.00467419 0)
(0 0.00462959 0)
(0 0.00525485 0)
(0 0.00533741 0)
(0 0.00456871 0)
(0 0.00452987 0)
(0 0.005179 0)
(0 0.00446227 0)
(0 0.00443069 0)
(0 0.00521212 0)
(0 0.00529926 0)
(0 0.00448818 0)
(0 0.00435807 0)
(0 0.00433354 0)
(0 0.00516023 0)
(0 0.00525056 0)
(0 0.00425955 0)
(0 0.00423887 0)
(0 0.00510084 0)
(0 0.00518984 0)
(0 0.00416435 0)
(0 0.00414404 0)
(0 0.00579455 0)
(0 0.00503349 0)
(0 0.00512214 0)
(0 0.00406696 0)
(0 0.00404673 0)
(0 0.00411118 0)
(0 0.00401338 0)
(0 0.00394636 0)
(0 0.00391636 0)
(0 0.0045798 0)
(0 0.00495981 0)
(0 0.00504845 0)
(0 0.00384674 0)
(0 0.00381836 0)
(0 0.00387616 0)
(0 0.0037827 0)
(0 0.0037179 0)
(0 0.00368772 0)
(0 0.0036179 0)
(0 0.00359229 0)
(0 0.00487883 0)
(0 0.00496554 0)
(0 0.00513173 0)
(0 0.00504759 0)
(0 0.00487263 0)
(0 0.00495375 0)
(0 0.00494692 0)
(0 0.00374297 0)
(0 0.0019176 0)
(0 0.00351956 0)
(0 0.00349917 0)
(0 0.00512491 0)
(0 0.00503059 0)
(0 0.00485438 0)
(0 0.00493067 0)
(0 0.00474925 0)
(0 0.00482563 0)
(0 0.00500276 0)
(0 0.00490008 0)
(0 0.00471696 0)
(0 0.00479082 0)
(0 0.00407708 0)
(0 0.00497049 0)
(0 0.00486056 0)
(0 0.00467563 0)
(0 0.00474656 0)
(0 0.0045574 0)
(0 0.00462961 0)
(0 0.00482001 0)
(0 0.00470157 0)
(0 0.00451094 0)
(0 0.0045782 0)
(0 0.00475868 0)
(0 0.00463854 0)
(0 0.00445389 0)
(0 0.0045166 0)
(0 0.00342429 0)
(0 0.00340803 0)
(0 0.00343703 0)
(0 0.00432402 0)
(0 0.00438555 0)
(0 0.0045685 0)
(0 0.0044408 0)
(0 0.00425406 0)
(0 0.00431206 0)
(0 0.00525277 0)
(0 0.00540088 0)
(0 0.00448989 0)
(0 0.00436446 0)
(0 0.00418473 0)
(0 0.00424037 0)
(0 0.0040579 0)
(0 0.00411486 0)
(0 0.00428536 0)
(0 0.00416183 0)
(0 0.00398687 0)
(0 0.00403756 0)
(0 0.0042072 0)
(0 0.00408528 0)
(0 0.00390655 0)
(0 0.00395214 0)
(0 0.00376911 0)
(0 0.00381064 0)
(0 0.00397823 0)
(0 0.00384456 0)
(0 0.00367379 0)
(0 0.0037114 0)
(0 0.00387497 0)
(0 0.00374433 0)
(0 0.00357884 0)
(0 0.0036134 0)
(0 0.00344708 0)
(0 0.00348147 0)
(0 0.0036381 0)
(0 0.00351013 0)
(0 0.0033501 0)
(0 0.0033798 0)
(0 0.00333244 0)
(0 0.00331754 0)
(0 0.00338429 0)
(0 0.00329644 0)
(0 0.00335105 0)
(0 0.00326816 0)
(0 0.00320975 0)
(0 0.00318725 0)
(0 0.0031263 0)
(0 0.0031084 0)
(0 0.00353163 0)
(0 0.00340468 0)
(0 0.00325285 0)
(0 0.00328055 0)
(0 0.00312827 0)
(0 0.00315624 0)
(0 0.00329895 0)
(0 0.00317621 0)
(0 0.00303196 0)
(0 0.00305371 0)
(0 0.00320442 0)
(0 0.00306827 0)
(0 0.00293245 0)
(0 0.0029439 0)
(0 0.00307001 0)
(0 0.00295087 0)
(0 0.00281888 0)
(0 0.00282728 0)
(0 0.00295414 0)
(0 0.00283144 0)
(0 0.00295242 0)
(0 0.00283075 0)
(0 0.00294555 0)
(0 0.00282528 0)
(0 0.0027114 0)
(0 0.00270695 0)
(0 0.00281503 0)
(0 0.00269734 0)
(0 0.00258966 0)
(0 0.0025802 0)
(0 0.00268223 0)
(0 0.00256522 0)
(0 0.00266181 0)
(0 0.00254459 0)
(0 0.00263622 0)
(0 0.00251907 0)
(0 0.00260594 0)
(0 0.00248885 0)
(0 0.00240161 0)
(0 0.00237216 0)
(0 0.00245482 0)
(0 0.00233927 0)
(0 0.00241735 0)
(0 0.00230355 0)
(0 0.00237696 0)
(0 0.00226439 0)
(0 0.00233328 0)
(0 0.002192 0)
(0 0.0022218 0)
(0 0.00228608 0)
(0 0.00217594 0)
(0 0.00223576 0)
(0 0.00212677 0)
(0 0.00218257 0)
(0 0.0020741 0)
(0 0.00212579 0)
(0 0.00247337 0)
(0 0.00201834 0)
(0 0.00201761 0)
(0 0.00206525 0)
(0 0.00195713 0)
(0 0.00200111 0)
(0 0.0046823 0)
(0 0.00304431 0)
(0 0.00302941 0)
(0 0.00189297 0)
(0 0.00193345 0)
(0 0.00331145 0)
(0 0.00223425 0)
(0 0.00295984 0)
(0 0.00294453 0)
(0 0.00453151 0)
(0 0.00182545 0)
(0 0.0018625 0)
(0 0.00178491 0)
(0 0.00197005 0)
(0 0.00189589 0)
(0 0.00200292 0)
(0 0.00192568 0)
(0 0.00244724 0)
(0 0.00547407 0)
(0 0.00286899 0)
(0 0.00300596 0)
(0 0.00287272 0)
(0 0.00181903 0)
(0 0.00184593 0)
(0 0.00203177 0)
(0 0.0027226 0)
(0 0.00173966 0)
(0 0.001764 0)
(0 0.00165805 0)
(0 0.00168025 0)
(0 0.00157412 0)
(0 0.00159422 0)
(0 0.00169962 0)
(0 0.00161145 0)
(0 0.00171551 0)
(0 0.00547464 0)
(0 0.00148787 0)
(0 0.00146728 0)
(0 0.00490922 0)
(0 0.00487691 0)
(0 0.00138099 0)
(0 0.0013601 0)
(0 0.00302251 0)
(0 0.00591036 0)
(0 0.00306825 0)
(0 0.00269478 0)
(0 0.00228554 0)
(0 0.0056123 0)
(0 0.0034855 0)
(0 0.00285039 0)
(0 0.00241781 0)
(0 0.00214402 0)
(0 0.00127401 0)
(0 0.00125287 0)
(0 0.00423412 0)
(0 0.00116676 0)
(0 0.00114519 0)
(0 0.00524447 0)
(0 0.00219922 0)
(0 0.00172443 0)
(0 0.00162711 0)
(0 0.00520736 0)
(0 0.00267934 0)
(0 0.00276667 0)
(0 0.00286821 0)
(0 0.0028519 0)
(0 0.00295424 0)
(0 0.00293457 0)
(0 0.00303801 0)
(0 0.00301471 0)
(0 0.00311895 0)
(0 0.00309254 0)
(0 0.00319688 0)
(0 0.00316683 0)
(0 0.00327276 0)
(0 0.00324066 0)
(0 0.00334466 0)
(0 0.00330433 0)
(0 0.00340988 0)
(0 0.00335952 0)
(0 0.00346875 0)
(0 0.00340351 0)
(0 0.00352782 0)
(0 0.0034738 0)
(0 0.00358827 0)
(0 0.00353057 0)
(0 0.00364511 0)
(0 0.00122933 0)
(0 0.00112123 0)
(0 0.00120314 0)
(0 0.00109497 0)
(0 0.00117449 0)
(0 0.00106633 0)
(0 0.00114346 0)
(0 0.00103571 0)
(0 0.00111027 0)
(0 0.00100327 0)
(0 0.00107522 0)
(0 0.000969273 0)
(0 0.00103859 0)
(0 0.000933975 0)
(0 0.00100026 0)
(0 0.000897462 0)
(0 0.000960536 0)
(0 0.001063 0)
(0 0.0010201 0)
(0 0.000919614 0)
(0 0.000975296 0)
(0 0.00107569 0)
(0 0.00102714 0)
(0 0.000929243 0)
(0 0.000976608 0)
(0 0.00107443 0)
(0 0.00101947 0)
(0 0.000925125 0)
(0 0.00096391 0)
(0 0.00105823 0)
(0 0.000998794 0)
(0 0.000907299 0)
(0 0.00093717 0)
(0 0.00102842 0)
(0 0.000961763 0)
(0 0.00105152 0)
(0 0.000874605 0)
(0 0.000980684 0)
(0 0.00106916 0)
(0 0.000994305 0)
(0 0.00108215 0)
(0 0.00100311 0)
(0 0.00109184 0)
(0 0.00100701 0)
(0 0.00109571 0)
(0 0.000921968 0)
(0 0.00100529 0)
(0 0.00109287 0)
(0 0.00114352 0)
(0 0.000998225 0)
(0 0.00108576 0)
(0 0.00118774 0)
(0 0.000986595 0)
(0 0.00107414 0)
(0 0.000902646 0)
(0 0.000970171 0)
(0 0.0010574 0)
(0 0.00116478 0)
(0 0.00114767 0)
(0 0.0012581 0)
(0 0.00124125 0)
(0 0.00112569 0)
(0 0.0012195 0)
(0 0.0013382 0)
(0 0.00131627 0)
(0 0.00119182 0)
(0 0.00128816 0)
(0 0.00115764 0)
(0 0.00125371 0)
(0 0.00138767 0)
(0 0.0013531 0)
(0 0.00200939 0)
(0 0.00214379 0)
(0 0.0012132 0)
(0 0.0013127 0)
(0 0.00145584 0)
(0 0.00141553 0)
(0 0.00156169 0)
(0 0.00152143 0)
(0 0.00136919 0)
(0 0.0014751 0)
(0 0.0010588 0)
(0 0.00107866 0)
(0 0.00176416 0)
(0 0.00166562 0)
(0 0.00153208 0)
(0 0.0015715 0)
(0 0.00144172 0)
(0 0.00148117 0)
(0 0.00170174 0)
(0 0.00135601 0)
(0 0.00139631 0)
(0 0.00299103 0)
(0 0.00131673 0)
(0 0.00142286 0)
(0 0.00194218 0)
(0 0.00208297 0)
(0 0.000928095 0)
(0 0.0035847 0)
(0 0.00370018 0)
(0 0.00324136 0)
(0 0.0015843 0)
(0 0.00153238 0)
(0 0.00136449 0)
(0 0.00147319 0)
(0 0.0016441 0)
(0 0.00158416 0)
(0 0.00274759 0)
(0 0.00175754 0)
(0 0.00169762 0)
(0 0.00151767 0)
(0 0.00163077 0)
(0 0.00181333 0)
(0 0.00174608 0)
(0 0.00155715 0)
(0 0.00167241 0)
(0 0.00186323 0)
(0 0.00178956 0)
(0 0.0015923 0)
(0 0.0017094 0)
(0 0.00190869 0)
(0 0.00182911 0)
(0 0.0020306 0)
(0 0.00195263 0)
(0 0.00174478 0)
(0 0.00186928 0)
(0 0.00207956 0)
(0 0.0019955 0)
(0 0.00177768 0)
(0 0.00190219 0)
(0 0.00212235 0)
(0 0.00202884 0)
(0 0.00225098 0)
(0 0.0021587 0)
(0 0.00193053 0)
(0 0.00206051 0)
(0 0.00229012 0)
(0 0.00219025 0)
(0 0.00195365 0)
(0 0.00208202 0)
(0 0.00232119 0)
(0 0.0022151 0)
(0 0.002457 0)
(0 0.00235529 0)
(0 0.00210725 0)
(0 0.00225024 0)
(0 0.00249799 0)
(0 0.00239266 0)
(0 0.00213805 0)
(0 0.00228001 0)
(0 0.00253278 0)
(0 0.00241873 0)
(0 0.00215649 0)
(0 0.00229586 0)
(0 0.00255777 0)
(0 0.00243795 0)
(0 0.00269928 0)
(0 0.00258304 0)
(0 0.00231508 0)
(0 0.00246248 0)
(0 0.00272838 0)
(0 0.00260907 0)
(0 0.00233681 0)
(0 0.00248617 0)
(0 0.00275856 0)
(0 0.0026405 0)
(0 0.00291296 0)
(0 0.00279947 0)
(0 0.00252096 0)
(0 0.00268255 0)
(0 0.00295538 0)
(0 0.00283903 0)
(0 0.00255598 0)
(0 0.00271289 0)
(0 0.00299375 0)
(0 0.00286874 0)
(0 0.00257213 0)
(0 0.00272596 0)
(0 0.00302212 0)
(0 0.00287574 0)
(0 0.00316794 0)
(0 0.0030211 0)
(0 0.0027214 0)
(0 0.00286773 0)
(0 0.00316362 0)
(0 0.00301157 0)
(0 0.00270942 0)
(0 0.00285155 0)
(0 0.00315152 0)
(0 0.0029883 0)
(0 0.00328264 0)
(0 0.00311732 0)
(0 0.00281902 0)
(0 0.00294804 0)
(0 0.0032387 0)
(0 0.00307388 0)
(0 0.00335696 0)
(0 0.00319901 0)
(0 0.00347434 0)
(0 0.00331793 0)
(0 0.00303675 0)
(0 0.00315332 0)
(0 0.00342184 0)
(0 0.00326056 0)
(0 0.0035191 0)
(0 0.00336623 0)
(0 0.0036172 0)
(0 0.00346935 0)
(0 0.00321726 0)
(0 0.00332553 0)
(0 0.00356595 0)
(0 0.00342592 0)
(0 0.00318645 0)
(0 0.00328944 0)
(0 0.00304724 0)
(0 0.00315057 0)
(0 0.00365499 0)
(0 0.00290541 0)
(0 0.00300788 0)
(0 0.00324353 0)
(0 0.00310429 0)
(0 0.00286182 0)
(0 0.00296041 0)
(0 0.00279265 0)
(0 0.00333058 0)
(0 0.0028722 0)
(0 0.00271209 0)
(0 0.00280872 0)
(0 0.0025571 0)
(0 0.00264759 0)
(0 0.00288611 0)
(0 0.00272392 0)
(0 0.00295052 0)
(0 0.00279343 0)
(0 0.00256637 0)
(0 0.00264102 0)
(0 0.00285944 0)
(0 0.00271445 0)
(0 0.00249301 0)
(0 0.00257324 0)
(0 0.00245088 0)
(0 0.00234916 0)
(0 0.00243848 0)
(0 0.0029245 0)
(0 0.00265159 0)
(0 0.00509875 0)
(0 0.000830576 0)
(0 0.00186872 0)
(0 0.00201661 0)
(0 0.00376435 0)
(0 0.0054491 0)
(0 0.00363695 0)
(0 0.00375151 0)
(0 0.00221548 0)
(0 0.00368364 0)
(0 0.00379965 0)
(0 0.0038625 0)
(0 0.00391507 0)
(0 0.00384126 0)
(0 0.00395821 0)
(0 0.00403228 0)
(0 0.00407398 0)
(0 0.00399243 0)
(0 0.0041083 0)
(0 0.00418799 0)
(0 0.00422258 0)
(0 0.00430022 0)
(0 0.00433653 0)
(0 0.00425342 0)
(0 0.00436928 0)
(0 0.00445068 0)
(0 0.00448451 0)
(0 0.00439784 0)
(0 0.00451375 0)
(0 0.00459754 0)
(0 0.00462697 0)
(0 0.00470705 0)
(0 0.00473791 0)
(0 0.00465232 0)
(0 0.00476425 0)
(0 0.00484587 0)
(0 0.00487319 0)
(0 0.00478521 0)
(0 0.00489463 0)
(0 0.00497909 0)
(0 0.00500081 0)
(0 0.00490993 0)
(0 0.00501689 0)
(0 0.00510395 0)
(0 0.00512146 0)
(0 0.00520618 0)
(0 0.00522559 0)
(0 0.00513402 0)
(0 0.00523892 0)
(0 0.00532727 0)
(0 0.00534002 0)
(0 0.00542408 0)
(0 0.00543641 0)
(0 0.0053475 0)
(0 0.00544254 0)
(0 0.00552696 0)
(0 0.00553188 0)
(0 0.00544275 0)
(0 0.005532 0)
(0 0.00561589 0)
(0 0.0056169 0)
(0 0.00552771 0)
(0 0.00561331 0)
(0 0.00569826 0)
(0 0.00569548 0)
(0 0.00577826 0)
(0 0.00577734 0)
(0 0.00568957 0)
(0 0.00577388 0)
(0 0.00585675 0)
(0 0.00585536 0)
(0 0.00576873 0)
(0 0.00585171 0)
(0 0.00593225 0)
(0 0.00592803 0)
(0 0.00600046 0)
(0 0.00599578 0)
(0 0.00591704 0)
(0 0.0059854 0)
(0 0.00606618 0)
(0 0.00604546 0)
(0 0.00596704 0)
(0 0.0060229 0)
(0 0.00609138 0)
(0 0.00606565 0)
(0 0.00612439 0)
(0 0.00609482 0)
(0 0.0060331 0)
(0 0.00605913 0)
(0 0.00611359 0)
(0 0.00607449 0)
(0 0.00612207 0)
(0 0.00608129 0)
(0 0.00599557 0)
(0 0.00612454 0)
(0 0.00608294 0)
(0 0.00603573 0)
(0 0.00603696 0)
(0 0.00607923 0)
(0 0.00603279 0)
(0 0.00598933 0)
(0 0.00598344 0)
(0 0.00602049 0)
(0 0.00596815 0)
(0 0.0012756 0)
(0 0.00131905 0)
(0 0.00123467 0)
(0 0.00143922 0)
(0 0.00136356 0)
(0 0.00148695 0)
(0 0.00141163 0)
(0 0.00129044 0)
(0 0.00133857 0)
(0 0.00121202 0)
(0 0.00127321 0)
(0 0.00139447 0)
(0 0.00132859 0)
(0 0.00121444 0)
(0 0.00126492 0)
(0 0.00115823 0)
(0 0.00120441 0)
(0 0.00110387 0)
(0 0.00115429 0)
(0 0.00121764 0)
(0 0.000969736 0)
(0 0.000988407 0)
(0 0.00545432 0)
(0 0.00616071 0)
(0 0.00221685 0)
(0 0.00305624 0)
(0 0.00229416 0)
(0 0.00351737 0)
(0 0.00594145 0)
(0 0.00145938 0)
(0 0.002121 0)
(0 0.00362132 0)
(0 0.00215826 0)
(0 0.00234974 0)
(0 0.00196543 0)
(0 0.0060003 0)
(0 0.00594512 0)
(0 0.00338996 0)
(0 0.00333836 0)
(0 0.00341119 0)
(0 0.00335023 0)
(0 0.00341531 0)
(0 0.00334739 0)
(0 0.00340845 0)
(0 0.0033327 0)
(0 0.00338691 0)
(0 0.00330606 0)
(0 0.00335526 0)
(0 0.00325611 0)
(0 0.00326885 0)
(0 0.00331974 0)
(0 0.0032256 0)
(0 0.00327737 0)
(0 0.00337599 0)
(0 0.00333365 0)
(0 0.00343579 0)
(0 0.00339318 0)
(0 0.00349622 0)
(0 0.00345507 0)
(0 0.00355889 0)
(0 0.00352059 0)
(0 0.00362421 0)
(0 0.00358589 0)
(0 0.00369131 0)
(0 0.00365266 0)
(0 0.00376042 0)
(0 0.00371876 0)
(0 0.00382855 0)
(0 0.00378226 0)
(0 0.00389475 0)
(0 0.00385122 0)
(0 0.00396378 0)
(0 0.0039222 0)
(0 0.00403576 0)
(0 0.00399511 0)
(0 0.00410997 0)
(0 0.00406964 0)
(0 0.0041854 0)
(0 0.00414482 0)
(0 0.00322832 0)
(0 0.00340957 0)
(0 0.0036587 0)
(0 0.004264 0)
(0 0.00422238 0)
(0 0.00387316 0)
(0 0.00408005 0)
(0 0.00417602 0)
(0 0.00399712 0)
(0 0.00434336 0)
(0 0.00380275 0)
(0 0.00404972 0)
(0 0.00413035 0)
(0 0.00437669 0)
(0 0.00445883 0)
(0 0.0039992 0)
(0 0.0040801 0)
(0 0.00421459 0)
(0 0.00448551 0)
(0 0.0045701 0)
(0 0.00416481 0)
(0 0.00430142 0)
(0 0.00359691 0)
(0 0.00350981 0)
(0 0.00217785 0)
(0 0.00328327 0)
(0 0.00523845 0)
(0 0.00402593 0)
(0 0.00411125 0)
(0 0.00105327 0)
(0 0.000878413 0)
(0 0.000896163 0)
(0 0.000859662 0)
(0 0.0021092 0)
(0 0.00115842 0)
(0 0.00112038 0)
(0 0.00171571 0)
(0 0.0040888 0)
(0 0.0019869 0)
(0 0.00347003 0)
(0 0.00118175 0)
(0 0.00597354 0)
(0 0.00602932 0)
(0 0.0059151 0)
(0 0.00588787 0)
(0 0.00369312 0)
(0 0.00458793 0)
(0 0.00450471 0)
(0 0.00467431 0)
(0 0.00465723 0)
(0 0.00229932 0)
(0 0.00248686 0)
(0 0.00201625 0)
(0 0.00585574 0)
(0 0.00582822 0)
(0 0.00188321 0)
(0 0.000784814 0)
(0 0.000801623 0)
(0 0.00330332 0)
(0 0.00392545 0)
(0 0.00396868 0)
(0 0.00208529 0)
(0 0.00185054 0)
(0 0.00188901 0)
(0 0.00104805 0)
(0 0.00101899 0)
(0 0.00171755 0)
(0 0.00167708 0)
(0 0.00405699 0)
(0 0.00476115 0)
(0 0.00474422 0)
(0 0.00459952 0)
(0 0.00451603 0)
(0 0.00493445 0)
(0 0.00244253 0)
(0 0.00262644 0)
(0 0.00270844 0)
(0 0.00264287 0)
(0 0.00274057 0)
(0 0.00267832 0)
(0 0.00277842 0)
(0 0.00271504 0)
(0 0.00281854 0)
(0 0.00275382 0)
(0 0.00286163 0)
(0 0.00279535 0)
(0 0.00268361 0)
(0 0.00272382 0)
(0 0.00283934 0)
(0 0.00276724 0)
(0 0.00288434 0)
(0 0.00281298 0)
(0 0.00293167 0)
(0 0.00286014 0)
(0 0.00298182 0)
(0 0.00290958 0)
(0 0.00303092 0)
(0 0.00296292 0)
(0 0.003086 0)
(0 0.00301921 0)
(0 0.00314243 0)
(0 0.00307615 0)
(0 0.00319961 0)
(0 0.00313565 0)
(0 0.0032646 0)
(0 0.00319763 0)
(0 0.00593891 0)
(0 0.00213715 0)
(0 0.0022151 0)
(0 0.000688714 0)
(0 0.000704512 0)
(0 0.00333246 0)
(0 0.00326525 0)
(0 0.00108684 0)
(0 0.000989414 0)
(0 0.00265916 0)
(0 0.00279218 0)
(0 0.00276272 0)
(0 0.00194187 0)
(0 0.00170249 0)
(0 0.00310589 0)
(0 0.00269058 0)
(0 0.000955892 0)
(0 0.000978163 0)
(0 0.00579442 0)
(0 0.00576752 0)
(0 0.00579575 0)
(0 0.00232792 0)
(0 0.00257507 0)
(0 0.00317949 0)
(0 0.00430132 0)
(0 0.00171914 0)
(0 0.00333313 0)
(0 0.00186137 0)
(0 0.00460414 0)
(0 0.00451939 0)
(0 0.00388332 0)
(0 0.00382372 0)
(0 0.00374289 0)
(0 0.00581416 0)
(0 0.00306524 0)
(0 0.00311914 0)
(0 0.00325328 0)
(0 0.00329461 0)
(0 0.00316726 0)
(0 0.00341934 0)
(0 0.0033296 0)
(0 0.00320881 0)
(0 0.00335913 0)
(0 0.00324244 0)
(0 0.00224239 0)
(0 0.00232107 0)
(0 0.00216136 0)
(0 0.00615833 0)
(0 0.00619122 0)
(0 0.00618424 0)
(0 0.00621438 0)
(0 0.00622047 0)
(0 0.00620282 0)
(0 0.00385521 0)
(0 0.00399654 0)
(0 0.00407888 0)
(0 0.00421497 0)
(0 0.00428738 0)
(0 0.00442219 0)
(0 0.00447956 0)
(0 0.00434448 0)
(0 0.00434486 0)
(0 0.00452429 0)
(0 0.00439161 0)
(0 0.00455961 0)
(0 0.00443221 0)
(0 0.00459018 0)
(0 0.00446811 0)
(0 0.00430913 0)
(0 0.00434889 0)
(0 0.00418702 0)
(0 0.00422814 0)
(0 0.00438161 0)
(0 0.00426191 0)
(0 0.0041039 0)
(0 0.00413973 0)
(0 0.0039825 0)
(0 0.00401669 0)
(0 0.00386396 0)
(0 0.00576135 0)
(0 0.0019884 0)
(0 0.00551975 0)
(0 0.00215787 0)
(0 0.00242194 0)
(0 0.00343832 0)
(0 0.00514224 0)
(0 0.00347665 0)
(0 0.00330428 0)
(0 0.00344233 0)
(0 0.00356738 0)
(0 0.0036983 0)
(0 0.0038098 0)
(0 0.00393789 0)
(0 0.00302399 0)
(0 0.00220708 0)
(0 0.00594368 0)
(0 0.00406497 0)
(0 0.00281207 0)
(0 0.00442147 0)
(0 0.00317634 0)
(0 0.00328076 0)
(0 0.00342926 0)
(0 0.00202685 0)
(0 0.00614626 0)
(0 0.00402124 0)
(0 0.00153996 0)
(0 0.00161661 0)
(0 0.00167348 0)
(0 0.00175073 0)
(0 0.00295204 0)
(0 0.00305502 0)
(0 0.0031931 0)
(0 0.00577444 0)
(0 0.00585194 0)
(0 0.00584297 0)
(0 0.00591651 0)
(0 0.00590349 0)
(0 0.00597108 0)
(0 0.005984 0)
(0 0.00603291 0)
(0 0.00604611 0)
(0 0.00255494 0)
(0 0.00269283 0)
(0 0.00278136 0)
(0 0.00291907 0)
(0 0.00183857 0)
(0 0.00518112 0)
(0 0.00528179 0)
(0 0.00525057 0)
(0 0.00534972 0)
(0 0.00531347 0)
(0 0.00540927 0)
(0 0.00467213 0)
(0 0.00477741 0)
(0 0.00473756 0)
(0 0.00483991 0)
(0 0.00479442 0)
(0 0.00425915 0)
(0 0.00436958 0)
(0 0.0043199 0)
(0 0.0044329 0)
(0 0.0023367 0)
(0 0.00246646 0)
(0 0.00254228 0)
(0 0.00266987 0)
(0 0.00210319 0)
(0 0.00248729 0)
(0 0.00181102 0)
(0 0.00117428 0)
(0 0.00167806 0)
(0 0.00222728 0)
(0 0.00229263 0)
(0 0.00241806 0)
(0 0.00192629 0)
(0 0.00197287 0)
(0 0.00209002 0)
(0 0.0021291 0)
(0 0.00492026 0)
(0 0.00094861 0)
(0 0.00159564 0)
(0 0.00170371 0)
(0 0.00173107 0)
(0 0.00184142 0)
(0 0.00186245 0)
(0 0.00197608 0)
(0 0.00199167 0)
(0 0.00187797 0)
(0 0.00199991 0)
(0 0.00188801 0)
(0 0.00200319 0)
(0 0.00189226 0)
(0 0.00150579 0)
(0 0.00308726 0)
(0 0.00129903 0)
(0 0.00234612 0)
(0 0.00277884 0)
(0 0.0025332 0)
(0 0.00254486 0)
(0 0.00131103 0)
(0 0.00116702 0)
(0 0.00320393 0)
(0 0.00370147 0)
(0 0.00305469 0)
(0 0.00317819 0)
(0 0.00315777 0)
(0 0.000796169 0)
(0 0.00072851 0)
(0 0.000696348 0)
(0 0.000627612 0)
(0 0.000597591 0)
(0 0.000656952 0)
(0 0.000554709 0)
(0 0.000581438 0)
(0 0.00544105 0)
(0 0.00324015 0)
(0 0.00527478 0)
(0 0.000908955 0)
(0 0.00313146 0)
(0 0.00119375 0)
(0 0.0011222 0)
(0 0.00102034 0)
(0 0.000942984 0)
(0 0.000663319 0)
(0 0.000566819 0)
(0 0.000629357 0)
(0 0.000535369 0)
(0 0.000594621 0)
(0 0.000503526 0)
(0 0.000559328 0)
(0 0.000471341 0)
(0 0.000523616 0)
(0 0.000438976 0)
(0 0.000487614 0)
(0 0.000406535 0)
(0 0.000451441 0)
(0 0.000374131 0)
(0 0.000415173 0)
(0 0.000490887 0)
(0 0.00045068 0)
(0 0.000378948 0)
(0 0.000410365 0)
(0 0.000342817 0)
(0 0.00037 0)
(0 0.000436104 0)
(0 0.000391414 0)
(0 0.000456255 0)
(0 0.000407177 0)
(0 0.000346803 0)
(0 0.000358166 0)
(0 0.000417235 0)
(0 0.000302482 0)
(0 0.000363818 0)
(0 0.000421613 0)
(0 0.000363729 0)
(0 0.000420311 0)
(0 0.000357925 0)
(0 0.000413321 0)
(0 0.000306052 0)
(0 0.000480285 0)
(0 0.000472105 0)
(0 0.000400569 0)
(0 0.00045816 0)
(0 0.000382056 0)
(0 0.000438582 0)
(0 0.000519452 0)
(0 0.000498934 0)
(0 0.000413613 0)
(0 0.000473437 0)
(0 0.000479584 0)
(0 0.00050511 0)
(0 0.000543792 0)
(0 0.000306839 0)
(0 0.00247748 0)
(0 0.00106471 0)
(0 0.00067223 0)
(0 0.00102459 0)
(0 0.000935711 0)
(0 0.000889913 0)
(0 0.000805381 0)
(0 0.000754381 0)
(0 0.000673649 0)
(0 0.00390431 0)
(0 0.00392709 0)
(0 0.00380913 0)
(0 0.00382537 0)
(0 0.00370669 0)
(0 0.00394439 0)
(0 0.00383654 0)
(0 0.00395687 0)
(0 0.000986344 0)
(0 0.00190944 0)
(0 0.00268109 0)
(0 0.00139091 0)
(0 0.00129809 0)
(0 0.00118543 0)
(0 0.00108681 0)
(0 0.00211183 0)
(0 0.000570758 0)
(0 0.00452255 0)
(0 0.000865052 0)
(0 0.00155616 0)
(0 0.0014501 0)
(0 0.00341499 0)
(0 0.00171244 0)
(0 0.00159137 0)
(0 0.00146688 0)
(0 0.00134116 0)
(0 0.00481052 0)
(0 0.0048153 0)
(0 0.00470247 0)
(0 0.00470131 0)
(0 0.00458598 0)
(0 0.00425714 0)
(0 0.00146638 0)
(0 0.00510236 0)
(0 0.00389874 0)
(0 0.00542952 0)
(0 0.00541647 0)
(0 0.00532131 0)
(0 0.0053026 0)
(0 0.00520442 0)
(0 0.00518064 0)
(0 0.00528102 0)
(0 0.00521597 0)
(0 0.00527277 0)
(0 0.00188737 0)
(0 0.00175218 0)
(0 0.00161238 0)
(0 0.00147128 0)
(0 0.00291565 0)
(0 0.00573266 0)
(0 0.00205548 0)
(0 0.00191966 0)
(0 0.00588098 0)
(0 0.00585636 0)
(0 0.00578844 0)
(0 0.00576047 0)
(0 0.00568972 0)
(0 0.00565653 0)
(0 0.00572665 0)
(0 0.00448438 0)
(0 0.00442723 0)
(0 0.000838588 0)
(0 0.00121799 0)
(0 0.00129313 0)
(0 0.00626559 0)
(0 0.0022685 0)
(0 0.00211228 0)
(0 0.00195995 0)
(0 0.00179762 0)
(0 0.00164705 0)
(0 0.00369064 0)
(0 0.00583055 0)
(0 0.00300699 0)
(0 0.001304 0)
(0 0.00240082 0)
(0 0.00223159 0)
(0 0.00453435 0)
(0 0.00125126 0)
(0 0.00100559 0)
(0 0.00624499 0)
(0 0.00626054 0)
(0 0.00588752 0)
(0 0.00581517 0)
(0 0.00419979 0)
(0 0.00414831 0)
(0 0.00429218 0)
(0 0.00594108 0)
(0 0.00589299 0)
(0 0.00588646 0)
(0 0.00583668 0)
(0 0.00582438 0)
(0 0.00282467 0)
(0 0.00573485 0)
(0 0.00133101 0)
(0 0.00121847 0)
(0 0.001044 0)
(0 0.00503674 0)
(0 0.00458761 0)
(0 0.00478792 0)
(0 0.00180983 0)
(0 0.00188827 0)
(0 0.00469959 0)
(0 0.00460524 0)
(0 0.0045097 0)
(0 0.00507704 0)
(0 0.00547455 0)
(0 0.00544676 0)
(0 0.000295882 0)
(0 0.000248882 0)
(0 0.00163144 0)
(0 0.00146716 0)
(0 0.00137301 0)
(0 0.00522436 0)
(0 0.00176733 0)
(0 0.00162685 0)
(0 0.00147599 0)
(0 0.00309519 0)
(0 0.00180885 0)
(0 0.000758836 0)
(0 0.00072736 0)
(0 0.00623551 0)
(0 0.00624761 0)
(0 0.00627141 0)
(0 0.00242953 0)
(0 0.00394941 0)
(0 0.00208356 0)
(0 0.0019089 0)
(0 0.00176082 0)
(0 0.00521804 0)
(0 0.0047715 0)
(0 0.00161333 0)
(0 0.0029552 0)
(0 0.00277701 0)
(0 0.00557185 0)
(0 0.00575843 0)
(0 0.00158381 0)
(0 0.00176205 0)
(0 0.00301097 0)
(0 0.00470401 0)
(0 0.0034069 0)
(0 0.00436176 0)
(0 0.00427049 0)
(0 0.00412232 0)
(0 0.00065195 0)
(0 0.000615022 0)
(0 0.00054453 0)
(0 0.00414309 0)
(0 0.000844991 0)
(0 0.000921463 0)
(0 0.00281226 0)
(0 0.00372015 0)
(0 0.00399504 0)
(0 0.00386513 0)
(0 0.00220942 0)
(0 0.00624236 0)
(0 0.00283216 0)
(0 0.00110261 0)
(0 0.00133224 0)
(0 0.00484917 0)
(0 0.00483266 0)
(0 0.00260827 0)
(0 0.000502024 0)
(0 0.00458093 0)
(0 0.00469495 0)
(0 0.00440971 0)
(0 0.00451305 0)
(0 0.0039998 0)
(0 0.000977354 0)
(0 0.00184814 0)
(0 0.00154263 0)
(0 0.00468605 0)
(0 0.00299538 0)
(0 0.00149648 0)
(0 0.00508426 0)
(0 0.00389367 0)
(0 0.00374099 0)
(0 0.00273443 0)
(0 0.00179352 0)
(0 0.00154325 0)
(0 0.00467009 0)
(0 0.00348443 0)
(0 0.00461616 0)
(0 0.00561841 0)
(0 0.00568748 0)
(0 0.00247498 0)
(0 0.00235134 0)
(0 0.00331938 0)
(0 0.00624493 0)
(0 0.00049962 0)
(0 0.00358719 0)
(0 0.00327503 0)
(0 0.0057502 0)
(0 0.0036486 0)
(0 0.00576297 0)
(0 0.00121126 0)
(0 0.00131318 0)
(0 0.0023092 0)
(0 0.00219427 0)
(0 0.00340269 0)
(0 0.0033358 0)
(0 0.00431194 0)
(0 0.00384322 0)
(0 0.00396533 0)
(0 0.00250112 0)
(0 0.00186317 0)
(0 0.00190279 0)
(0 0.0032196 0)
(0 0.0062547 0)
(0 0.00622697 0)
(0 0.000413984 0)
(0 0.000859777 0)
(0 0.000309658 0)
(0 0.00157791 0)
(0 0.00173015 0)
(0 0.00510422 0)
(0 0.00512472 0)
(0 0.00121135 0)
(0 0.00554925 0)
(0 0.000574288 0)
(0 0.000558077 0)
(0 0.000750601 0)
(0 0.000826701 0)
(0 0.00319521 0)
(0 0.00326805 0)
(0 0.00473374 0)
(0 0.00577284 0)
(0 0.0057546 0)
(0 0.00580829 0)
(0 0.00573005 0)
(0 0.00217647 0)
(0 0.00353793 0)
(0 0.00586803 0)
(0 0.00579534 0)
(0 0.00305228 0)
(0 0.00608883 0)
(0 0.000617806 0)
(0 0.000697549 0)
(0 0.00617373 0)
(0 0.00618789 0)
(0 0.00446828 0)
(0 0.00446994 0)
(0 0.00405551 0)
(0 0.00038299 0)
(0 0.00517788 0)
(0 0.00570345 0)
(0 0.00372352 0)
(0 0.00229046 0)
(0 0.00239746 0)
(0 0.00578533 0)
(0 0.00569752 0)
(0 0.00565884 0)
(0 0.00567398 0)
(0 0.00566423 0)
(0 0.00522894 0)
(0 0.00391787 0)
(0 0.0038662 0)