/*--------------------------------*- C++ -*----------------------------------*\
| =========                 |                                                 |
| \\      /  F ield         | OpenFOAM: The Open Source CFD Toolbox           |
|  \\    /   O peration     | Version:  v2012                                 |
|   \\  /    A nd           | Website:  www.openfoam.com                      |
|    \\/     M anipulation  |                                                 |
\*---------------------------------------------------------------------------*/
FoamFile
{
    version     2.0;
    format      ascii;
    class       volScalarField;
    location    "850";
    object      ddt0(k);
}
// * * * * * * * * * * * * * * * * * * * * * * * * * * * * * * * * * * * * * //

dimensions      [0 2 -3 0 0 0 0];


internalField   nonuniform List<scalar> 
10042
(
5.55571e-07
8.14979e-07
1.29817e-06
-4.00046e-07
0.000628787
1.18883e-07
0.00225341
0.000114661
-1.8094e-07
1.66296e-07
0.0296341
-5.36911e-07
1.4609e-08
6.16137e-07
3.1383e-07
-9.79926e-07
-8.72241e-07
1.46956e-07
4.88408e-07
5.09658e-07
-1.31835e-06
2.37926e-06
3.0141e-07
1.24514e-06
8.9501e-07
1.86905e-07
-5.65109e-07
5.84108e-07
-1.67931e-07
6.6736e-07
-2.09679e-08
0.000527283
6.15201e-07
6.85941e-07
5.42205e-07
1.36052e-06
9.41833e-08
-3.07644e-08
2.98657e-08
9.51884e-07
8.74299e-09
5.04391e-07
0.00438745
1.26711e-06
0.00188159
2.29884e-06
1.16815e-06
1.05643e-05
3.06901e-07
-4.84661e-07
-3.20354e-07
1.29728e-06
8.05468e-07
7.28276e-07
1.05727e-07
-4.16479e-07
-1.77588e-07
1.23959e-06
7.83792e-07
1.17418e-06
3.47193e-08
-3.69131e-07
5.87635e-07
1.2625e-06
4.26466e-07
8.43198e-07
5.40632e-07
4.4004e-07
-0.0383291
4.03162e-07
6.42213e-07
-2.89716e-07
1.31634e-06
2.56367e-07
1.02563e-06
2.13757e-06
-0.000945635
4.51447e-07
5.90904e-07
0.0156152
8.00011e-08
8.44435e-05
9.87925e-07
4.14844e-07
6.72017e-07
1.33591e-07
9.77074e-07
8.94279e-07
1.13599e-06
5.47422e-07
4.83487e-07
9.51946e-05
6.25826e-07
8.51974e-07
6.66297e-07
3.53606e-08
1.43857e-07
1.12537e-07
9.96194e-07
-1.27798e-07
-3.832e-10
9.47555e-08
0.000188075
5.10068e-07
3.52196e-07
3.63705e-07
1.16996e-06
2.44395e-07
-1.13871e-06
1.2469e-07
-6.50384e-07
-6.71868e-08
1.05129e-06
-0.0372139
4.80706e-07
-1.41756e-07
3.15631e-07
4.46087e-07
2.61018e-08
0.0277611
1.22975e-06
-0.000277671
9.29235e-07
2.16918e-08
4.54091e-07
7.20962e-07
-0.000292727
4.86569e-07
3.49676e-07
6.56937e-08
6.30043e-07
5.41298e-07
0.0213968
-3.5833e-05
-2.86587e-08
2.93675e-07
0.0116166
9.86312e-07
1.11608e-05
1.38275e-06
9.00689e-07
3.08764e-07
7.70544e-07
2.88228e-06
1.34561e-06
6.88184e-08
4.45443e-07
1.91138e-07
-1.7053e-07
8.78199e-07
1.52609e-07
-5.94959e-08
0.0507098
0.0301954
-1.53868e-06
4.42515e-07
5.27141e-07
-4.70836e-07
1.31341e-07
0.0112003
0.0164474
-9.96289e-06
2.01316e-07
1.44628e-07
1.17372e-06
5.32015e-07
4.56763e-07
-0.0105361
0.00303484
0.0407368
7.60073e-07
1.14547e-06
-3.75717e-05
2.3287e-06
5.7871e-07
-0.0551939
0.0347416
1.20725e-06
6.17939e-07
4.02232e-07
5.28953e-07
-0.0063878
1.13423e-06
4.43597e-07
5.37867e-07
0.0291552
-3.24237e-05
6.43864e-07
-0.00305011
-5.4204e-08
-3.12545e-05
1.04385e-06
0.0533615
0.000114245
-3.15142e-06
-0.000272942
1.10089e-07
1.06167e-06
3.46766e-07
8.53683e-07
5.78595e-07
4.84042e-07
4.40745e-07
1.87474e-06
6.177e-07
1.65928e-08
-8.21073e-05
-1.7236e-06
3.75702e-07
1.80142e-06
3.2431e-05
-7.39894e-07
4.08782e-07
7.85124e-06
5.82236e-07
-2.65191e-05
9.75185e-07
7.83642e-07
-1.69329e-07
4.03912e-07
1.05937e-06
5.70816e-07
-3.66202e-06
-2.06373e-07
9.75932e-07
2.5269e-07
-8.55285e-05
-1.32196e-07
-1.5073e-05
6.4312e-07
-1.76022e-07
-1.8115e-08
1.17043e-06
6.75252e-07
1.6703e-06
8.58435e-07
-4.69986e-07
7.85639e-08
4.06398e-07
-5.84206e-07
-1.39568e-07
1.10193e-06
9.09379e-07
1.30293e-06
-8.23535e-07
2.94753e-07
3.17282e-07
3.53722e-07
9.05175e-07
1.08756e-07
-7.51667e-07
3.06151e-07
1.44258e-06
2.92703e-05
-1.08463e-05
-0.00735843
4.11987e-07
6.00062e-07
3.29487e-07
1.98545e-06
-0.0150592
4.70386e-07
1.12249e-06
1.08723e-07
8.87033e-07
-2.85621e-07
1.009e-05
1.0677e-06
5.40952e-07
2.0415e-06
4.83351e-07
6.47152e-07
-4.88713e-07
4.71523e-07
2.27373e-06
-1.77737e-07
-4.85754e-07
-7.9178e-08
1.88858e-06
1.25186e-06
4.267e-07
9.62919e-07
1.88214e-07
0.00895767
6.05052e-07
7.73487e-07
-0.0335885
1.88896e-06
1.11595e-06
4.19122e-07
1.1351e-06
-0.0186721
-1.8305e-07
2.56164e-06
-1.39956e-07
3.05519e-07
-7.28124e-08
-1.78942e-07
-7.51598e-05
9.1765e-08
-5.52383e-07
2.1812e-07
8.35093e-07
-1.96651e-07
5.3005e-07
-9.53109e-08
-0.0942134
1.39544e-06
-0.0290255
-1.40577e-06
6.36899e-07
-5.56239e-07
0.0209485
1.07085e-06
0.000114568
0.0187599
1.45149e-06
1.06727e-06
3.90394e-07
9.82528e-07
2.19035e-07
6.38684e-08
4.37766e-07
-8.6379e-07
4.24611e-07
1.15371e-06
6.22544e-08
-4.86134e-07
5.84653e-07
7.67453e-07
7.6643e-07
-0.00348867
-8.72116e-07
-1.53981e-06
-3.34077e-09
1.25866e-06
7.14876e-07
-2.14377e-06
4.48429e-07
-0.000668864
-2.49017e-07
4.47434e-07
8.10866e-07
5.6558e-07
2.12669e-07
2.3269e-07
-5.04457e-05
8.9217e-07
6.81093e-07
-2.82675e-06
4.93518e-07
1.12938e-06
3.64171e-07
7.15873e-07
1.05213e-06
9.54351e-07
3.14087e-07
5.21909e-07
1.09517e-06
7.37239e-07
-0.00482153
5.40558e-07
7.20156e-07
5.67868e-07
1.35835e-06
7.43765e-07
9.87558e-07
9.45948e-07
2.03053e-05
4.10609e-07
3.82064e-07
9.32862e-07
-2.02853e-10
-4.96901e-07
-1.12661e-07
8.66453e-07
-5.20401e-07
0.0111565
4.48967e-07
0.00121606
-0.000291038
3.50866e-07
0.0986979
-0.0161179
1.0951e-06
2.26851e-06
-1.24594e-06
7.62881e-07
-6.34086e-10
1.16952e-06
-0.0525014
-1.09997e-07
8.26822e-07
-8.13517e-06
-1.34878e-07
-2.08531e-06
4.95421e-07
4.21202e-05
3.92704e-07
5.12574e-07
0.00318391
5.6017e-07
1.62759e-06
3.47354e-07
-0.00765256
1.52821e-07
4.13295e-07
2.79901e-07
-7.47347e-07
-8.1069e-08
8.44634e-07
-0.0201572
0.000252217
1.1371e-06
-0.185523
-3.05898e-07
6.03762e-08
2.69055e-05
1.63215e-06
0.00263636
-2.54706e-07
2.60969e-07
9.74546e-07
7.95477e-07
9.22976e-07
8.76576e-07
9.95175e-07
6.09968e-07
0.0309633
6.11914e-07
0.000156097
4.35686e-07
5.60947e-07
-1.2458e-07
1.03543e-05
3.80067e-07
3.50604e-08
8.22218e-08
6.51514e-07
-0.000350408
-3.30263e-07
-1.94876e-07
-5.01196e-07
0.00872771
-5.90528e-07
-2.33781e-07
6.27033e-07
-3.02051e-07
-0.0455554
0.0665177
-6.54698e-07
4.54406e-07
3.83743e-07
-9.86174e-07
-1.16919e-06
3.91546e-08
0.00977002
1.21476e-07
-8.11672e-07
3.79039e-07
-4.18489e-06
-1.25296e-07
3.13839e-07
4.58285e-07
0.000141756
-2.47869e-07
2.23143e-08
7.51119e-07
-3.23318e-05
9.48312e-07
6.49702e-10
6.68432e-07
1.91849e-07
1.20034e-06
5.5647e-07
2.3658e-07
7.9755e-07
1.10372e-06
3.63184e-07
0.0280838
9.57968e-07
1.14704e-06
2.40661e-07
9.26249e-07
3.2101e-07
-8.56832e-07
7.52863e-07
0.00012287
5.8518e-07
0.0493769
4.83139e-07
6.46808e-08
-6.75376e-08
2.72997e-07
1.47537e-06
1.18447e-07
-7.91782e-07
3.24501e-07
5.13646e-07
0.0148716
9.26591e-09
7.79761e-07
2.5742e-05
-6.42378e-07
4.433e-07
3.13037e-08
1.6121e-06
-6.98266e-08
-1.17892e-06
-0.00273368
0.0109308
-9.88154e-08
4.03879e-07
-2.52602e-07
-6.34341e-07
6.59013e-07
-2.78516e-07
-0.00013798
9.92633e-07
3.84212e-05
3.08047e-07
1.54193e-06
1.74962e-06
8.65619e-07
0.00914664
3.48621e-07
3.6334e-07
-7.40121e-08
-7.28162e-07
9.63978e-07
-0.00023404
-2.02427e-07
1.7824e-07
0.00395137
6.34321e-06
1.05375e-06
3.40127e-07
-1.15552e-06
7.22114e-08
-1.44999e-06
5.45845e-07
-0.0725957
0.00160432
7.65371e-07
-3.31316e-08
4.30486e-07
2.32848e-07
9.1872e-07
5.25258e-07
0.0244961
4.69531e-07
-1.39255e-06
2.80269e-06
-4.42543e-07
-1.59706e-05
4.81421e-07
-1.85645e-06
1.00013e-06
-2.26122e-07
6.86271e-07
5.55582e-07
-2.99408e-06
4.65124e-07
4.71666e-07
1.06806e-06
-1.50506e-06
1.26607e-06
1.31683e-07
6.72708e-07
5.51331e-07
-1.55727e-07
8.03064e-07
-3.34841e-07
4.83233e-07
5.17769e-07
7.47634e-07
-5.50799e-07
5.4342e-07
2.3743e-06
-6.82139e-07
6.22477e-07
-6.48267e-07
1.4511e-08
4.61807e-07
4.57976e-06
2.38551e-07
0.00960132
4.55537e-07
-1.05853e-06
-3.25727e-05
1.34253e-06
4.40878e-07
4.19015e-07
-3.76553e-07
-8.2816e-10
2.60608e-07
8.92649e-07
2.91374e-05
7.38943e-07
-3.26424e-07
3.24632e-07
4.03769e-07
3.51697e-07
-1.72728e-07
1.27032e-07
5.28517e-08
-3.62213e-07
2.76407e-07
1.08477e-06
-5.98856e-07
4.71616e-07
6.94658e-07
8.95435e-07
-0.051329
2.38252e-07
-1.70697e-07
6.94764e-08
1.79048e-07
2.83014e-07
2.4023e-07
2.03667e-07
3.17509e-07
8.42404e-07
-2.46248e-05
-2.02138e-07
0.00445884
1.31287e-07
7.62155e-07
-1.13224e-06
9.8176e-07
1.18291e-06
3.54524e-07
-1.0518e-07
-9.35284e-08
0.00336438
0.000445979
1.6739e-07
7.40516e-07
7.24677e-07
4.99778e-07
2.46758e-06
2.14228e-08
6.21301e-07
4.53402e-07
-0.079296
4.5623e-06
-0.000441994
4.51016e-07
6.23888e-07
3.16809e-08
5.55603e-07
6.87731e-08
-3.40354e-06
1.82994e-06
1.20482e-06
-7.34089e-06
-3.48147e-08
3.06758e-07
8.4758e-08
-0.0333728
8.76367e-07
1.6301e-07
-2.14471e-06
2.93783e-07
0.0151563
8.22362e-07
8.67913e-07
4.01901e-07
3.49766e-07
0.0198881
3.93071e-06
-0.0367741
-7.11623e-07
0.000392346
-0.0146222
0.000266698
-3.32117e-06
2.4935e-06
-1.73118e-05
3.76136e-07
1.0372e-06
-2.44966e-07
6.95303e-07
0.0308683
7.52226e-07
6.15513e-07
0.00566565
1.23995e-06
8.07516e-07
2.90473e-07
7.72923e-07
1.15724e-06
1.24933e-06
2.6609e-07
0.000192703
9.10383e-07
7.97302e-07
0.0320716
0.0492901
6.0288e-07
1.64062e-08
-2.3817e-07
-6.4292e-07
4.42546e-05
4.14475e-06
4.25151e-06
4.84361e-07
1.21729e-06
-1.72197e-07
4.20217e-07
5.77858e-08
8.5573e-08
8.96687e-07
-0.0842897
-4.81611e-07
9.15718e-07
3.52928e-07
-1.22448e-07
-1.84241e-06
2.94722e-07
6.61317e-07
0.00771942
-0.0783829
8.30014e-07
-1.18889e-06
-0.00372286
0.0285756
2.64962e-07
1.50349e-06
-0.000508898
-2.01574e-07
3.0738e-07
9.98761e-07
1.13318e-07
-1.14287e-06
1.11522e-05
1.47743e-07
2.02013e-06
2.74082e-07
-0.0132233
2.69788e-05
-1.89588e-07
3.10403e-07
-5.87642e-08
-1.55344e-06
2.8719e-07
1.10084e-06
-0.0252047
-0.0579419
-0.0678334
1.16441e-06
1.29257e-06
2.25723e-07
-2.0813e-08
-1.2129e-06
-1.01759e-06
5.45192e-06
2.51116e-07
-5.46251e-08
1.23758e-06
6.67152e-07
1.62636e-08
-7.50249e-07
-1.69007e-06
-7.44298e-07
5.31409e-07
-2.46086e-05
-1.50339e-07
2.85022e-07
2.21514e-07
4.03349e-07
8.08301e-07
-1.01262e-06
-2.30331e-06
0.0453431
0.0538708
4.68109e-07
0.008354
-0.00364013
1.32037e-06
-4.53404e-08
8.66704e-07
2.96086e-07
-0.0387589
6.33744e-07
2.82632e-07
4.55692e-07
0.055581
3.88014e-07
1.13548e-06
-2.82479e-07
-1.23221e-07
6.29846e-07
9.66643e-07
1.24041e-07
-6.40209e-07
7.66368e-07
-1.01299e-06
-1.18101e-07
1.41807e-05
7.84557e-07
4.59795e-07
2.37249e-07
7.93249e-07
3.02015e-06
-7.10964e-07
1.17878e-06
1.52947e-07
-3.90054e-07
6.09957e-06
-2.98439e-10
1.01956e-05
7.06477e-07
-0.0219937
2.67775e-07
1.14546e-06
-8.36531e-07
-2.3054e-06
5.1761e-07
8.13352e-07
-0.000200424
0.00122883
3.01767e-07
-1.77748e-07
0.00010552
-5.59312e-07
4.82476e-07
-7.82322e-08
3.31945e-07
-1.58985e-07
-2.82322e-11
-7.00319e-10
3.67865e-07
7.07207e-07
1.30182e-07
7.36961e-07
5.56116e-07
-0.149785
2.66037e-07
2.12836e-05
-7.84847e-07
2.61861e-06
2.4081e-07
-0.00581562
-3.80344e-07
0.0192074
9.28995e-08
-3.83709e-07
-2.52041e-07
6.92715e-07
1.06561e-06
-7.71121e-08
5.1557e-07
-2.5481e-06
0.00786523
2.34829e-07
0.000571677
-4.58864e-07
6.54749e-09
2.41432e-07
-8.23177e-08
-0.0802247
1.13316e-07
6.29299e-07
4.05627e-07
6.21655e-07
5.51638e-07
3.11931e-07
-3.14215e-07
2.22627e-07
9.02609e-07
1.49526e-06
8.2855e-08
-4.81303e-07
1.65318e-07
1.10404e-06
-2.02081e-07
8.4998e-07
-1.04646e-06
-2.17194e-06
6.73574e-07
1.07163e-06
6.94084e-07
6.77573e-08
-0.0389123
5.42113e-07
-0.000630983
4.62458e-07
0.0136557
8.88804e-08
6.73809e-08
0.00371781
3.72101e-07
9.02291e-06
0.0505104
2.65161e-07
3.88202e-07
7.79217e-07
9.92174e-07
3.47456e-06
2.15303e-08
-0.0345714
2.46217e-07
-0.0648122
0.00277477
-2.87881e-06
4.78526e-07
0.00919115
0.0343192
4.65455e-07
-2.55173e-07
-1.61289e-06
1.08149e-07
-3.95924e-07
-7.82431e-07
1.86936e-07
-0.0426487
4.0221e-09
1.40674e-07
6.82156e-07
7.55893e-06
3.00928e-07
1.9144e-07
6.52757e-07
-3.94712e-06
5.94293e-07
1.84982e-08
-0.0117838
8.67152e-07
3.10989e-07
0.000312667
1.18335e-06
8.34534e-07
-0.001804
0.0107546
0.0268085
8.95083e-07
1.18562e-06
-2.65554e-05
-7.04207e-08
-1.37094e-07
-6.00951e-07
-9.75703e-07
-7.6001e-07
-9.57168e-07
6.6049e-07
4.81403e-07
1.11175e-06
6.24631e-07
6.46072e-07
-2.60084e-07
-3.32538e-07
7.56016e-07
-6.31809e-07
-1.19762e-05
1.00054e-06
8.07936e-07
-7.58533e-07
1.65064e-08
-7.2894e-07
4.67245e-07
-0.0493211
-5.47151e-08
4.3344e-07
9.59788e-07
4.39782e-07
-0.0182105
-1.17169e-07
-7.07965e-07
2.09502e-07
8.01551e-07
0.000124519
-1.92194e-06
8.31095e-07
-7.25669e-07
2.05083e-07
6.47558e-07
3.51961e-07
3.63918e-07
1.4074e-06
-4.93875e-07
6.63763e-07
9.32667e-07
6.55376e-05
4.35023e-07
3.16378e-07
4.2286e-07
-0.000202659
4.94325e-07
-5.16009e-06
1.33717e-06
-8.84946e-05
1.31829e-07
1.53697e-06
-3.59793e-07
4.08944e-06
1.38504e-06
7.05503e-07
-1.37224e-06
1.7851e-07
-1.51543e-06
5.38635e-07
-0.0312061
3.05702e-07
-6.2929e-07
6.70793e-07
9.52816e-07
1.39786e-06
0.00197952
1.17263e-06
9.19493e-07
-1.15844e-07
1.077e-06
5.78482e-05
-7.53074e-07
1.31091e-06
-1.97809e-06
-2.18951e-08
-8.24593e-07
-1.1618e-07
-1.40509e-06
1.37391e-06
7.05539e-07
-0.0106634
9.43734e-07
-1.26974e-06
0.0413815
8.98602e-07
9.04998e-08
-8.78142e-07
1.04537e-06
3.49666e-07
1.22073e-06
3.43021e-07
1.21344e-06
3.35881e-07
0.000339116
1.04925e-06
6.4367e-07
2.6414e-06
1.02826e-06
-0.000114118
-0.0164313
4.26653e-07
1.89637e-07
1.7211e-05
4.17585e-07
-0.000141036
-1.75196e-06
1.02526e-06
-6.26652e-07
0.00764052
2.47001e-07
1.14582e-06
3.61073e-07
1.88768e-07
0.0573317
8.6012e-07
2.94328e-07
6.57364e-07
4.11496e-07
4.31283e-08
7.7753e-07
2.20633e-07
3.38292e-07
7.77532e-08
0.0497952
0.00370326
1.88732e-06
3.66546e-07
-1.05243e-06
-0.0402687
3.12358e-07
-0.00495894
2.34523e-08
4.95993e-07
1.01259e-06
6.04046e-07
-6.21641e-08
-3.47929e-07
-9.22922e-07
5.60773e-07
0.000144429
-9.28541e-07
-7.94176e-08
-6.31028e-07
8.28495e-08
2.97731e-07
9.02636e-07
1.09391e-07
1.28546e-06
5.61314e-07
4.99873e-07
-8.02085e-07
-2.59622e-07
-3.51087e-07
5.22353e-07
-1.80945e-07
5.26656e-08
9.03306e-07
1.02232e-06
4.94044e-07
-2.88805e-08
1.11062e-06
2.91892e-06
3.91632e-07
-2.49356e-07
-6.21661e-07
-4.83547e-07
9.14685e-07
2.57743e-07
2.90184e-07
-8.81652e-08
0.00405065
1.30101e-06
9.3628e-07
0.0291181
1.67675e-07
1.63801e-07
-4.10311e-06
2.51298e-07
-2.02101e-06
0.00383737
-7.59497e-07
6.49804e-07
-6.21714e-07
1.20798e-06
3.85101e-07
2.87455e-07
-4.60189e-08
6.38378e-07
2.15175e-06
4.1464e-07
1.23128e-06
3.2199e-08
6.25449e-07
2.12821e-06
-3.61248e-07
1.0111e-06
2.52217e-07
3.77554e-07
-0.0199779
8.37761e-07
1.96066e-07
-0.00518373
5.50563e-07
-1.72335e-07
-8.47774e-07
-6.35955e-07
1.37119e-07
0.000107756
2.97615e-07
8.36366e-07
6.46842e-09
7.57383e-07
2.07797e-07
4.48555e-07
-5.05209e-07
-0.0420789
-1.27882e-07
9.24745e-07
5.30607e-07
6.67451e-07
-6.09233e-08
-1.03812e-07
9.45353e-05
1.12444e-06
9.3899e-07
5.67434e-07
2.79808e-06
3.30182e-07
1.20344e-06
-6.42187e-08
2.64922e-07
4.95569e-07
1.2491e-06
7.46035e-07
-1.16925e-06
1.49901e-06
6.364e-07
1.18605e-07
8.52002e-07
2.87347e-07
2.7771e-07
-8.15585e-07
6.16835e-07
5.96309e-07
7.51015e-07
0.0232461
3.96095e-08
1.27599e-06
-9.05287e-07
-4.84214e-08
6.22943e-07
-9.50374e-07
0.00324778
0.0388379
-0.0090628
2.19229e-07
3.58204e-07
2.71736e-07
9.31982e-07
6.1814e-07
2.73984e-07
2.79444e-05
4.49672e-06
-0.0483674
-1.16458e-06
-1.06312e-05
-0.023961
7.56399e-07
5.41279e-07
1.79096e-06
1.56622e-07
-0.0643402
5.17409e-07
4.49341e-07
6.2575e-07
1.4451e-06
-1.01596e-06
0.0147441
-0.0750076
-3.84265e-07
0.00791666
2.89404e-05
3.43556e-05
-1.49678e-08
-1.75947e-07
1.05629e-06
-0.080183
1.03977e-06
0.00191234
0.0384468
-3.10608e-07
8.93529e-07
1.39964e-08
5.16822e-07
5.39907e-07
3.91258e-08
-2.14082e-05
1.57275e-07
-7.6225e-07
2.29412e-07
2.6067e-07
-5.18104e-07
1.13673e-06
3.34382e-07
4.37477e-07
-0.0308426
-5.25275e-07
7.0372e-07
0.0493064
6.43049e-07
-7.16487e-07
4.93927e-07
-2.36159e-05
2.40259e-07
-1.40414e-07
-7.02181e-06
7.29073e-07
5.99219e-08
3.66177e-07
3.38087e-05
-1.6667e-07
0.015955
5.89357e-07
3.28053e-06
-0.0494904
-0.0621013
-6.71949e-07
1.03507e-06
3.06732e-06
5.93968e-07
4.97469e-07
8.72692e-07
-0.111191
-1.92796e-07
-1.2989e-05
9.10715e-07
-8.038e-07
0.0108261
-0.0115654
-4.66494e-07
-4.69966e-07
0.0259744
2.41403e-07
3.95691e-07
7.23856e-07
3.50168e-07
-6.74238e-07
5.70529e-07
1.30826e-06
-1.27073e-07
-2.2579e-08
1.38769e-07
-0.0331994
1.54732e-07
8.27566e-08
0.00100319
-1.8427e-06
5.0172e-07
1.18158e-07
-9.52889e-09
-7.16823e-08
8.72894e-07
5.24019e-07
1.06553e-06
9.67513e-07
-3.26243e-07
-9.9301e-07
6.10784e-07
7.73952e-07
3.6651e-07
-9.22641e-08
-2.49462e-07
-0.0679252
0.00593419
-3.08695e-07
0.0180582
4.55593e-07
3.25403e-07
-1.51763e-06
-5.35694e-07
-0.0297685
-2.3191e-06
7.84946e-07
-6.75143e-09
-2.32479e-07
6.24662e-07
2.50071e-07
8.23551e-06
-1.27281e-06
3.59307e-07
1.25722e-06
0.0321386
0.0209811
9.45055e-07
8.024e-07
1.10562e-06
2.13226e-05
7.84357e-07
0.00442091
-0.0970899
3.76737e-07
2.33911e-07
7.78918e-07
8.24783e-07
-0.045398
-1.03225e-06
2.93811e-07
1.12378e-06
-3.60223e-06
-1.03691e-07
3.09973e-07
3.26733e-07
4.37349e-07
5.68704e-07
6.53763e-07
-9.11268e-07
0.0303819
-4.83377e-07
5.34174e-06
4.42626e-07
1.92843e-06
3.4818e-07
9.3099e-07
-3.77609e-08
-1.03762e-06
9.10587e-07
1.24245e-06
2.29296e-07
1.32879e-06
0.0305824
1.48151e-06
-2.71828e-07
1.54607e-06
2.15868e-07
7.05057e-07
1.03021e-06
5.27577e-07
-8.49171e-08
4.18035e-05
-0.14484
1.08951e-06
0.000109746
-0.00175878
-0.0205063
3.02533e-07
6.544e-07
1.61098e-06
3.27132e-07
-1.72984e-06
-9.14204e-09
1.59751e-06
9.5624e-07
5.95494e-07
7.66749e-07
-0.0140502
2.11358e-07
-0.00824393
-7.7837e-07
6.09711e-07
8.81695e-07
7.28071e-07
1.09134e-06
-1.60163e-06
2.86105e-07
9.52583e-07
2.66744e-05
4.31517e-07
1.70909e-06
-0.000508153
9.52036e-07
6.22206e-07
-1.48203e-07
-0.000124616
2.24587e-07
5.48835e-07
1.38186e-06
-5.06573e-07
-3.34493e-07
7.76153e-07
9.60053e-07
-4.88219e-07
0.0151278
-3.1469e-07
-1.18424e-06
3.03543e-05
4.23548e-07
1.01027e-06
-1.06414e-05
7.80293e-07
1.65e-07
-5.55362e-05
-7.03981e-07
0.00315095
3.95535e-07
5.71943e-07
4.02262e-07
-1.38329e-07
-8.15456e-07
9.84713e-07
2.88943e-07
-2.4012e-06
0.00702856
-5.48815e-07
0.018837
-0.00132224
4.46691e-07
0.000121766
8.78217e-07
-4.07363e-06
-0.00914234
6.28757e-07
-3.76237e-06
3.34471e-07
1.34872e-05
-5.31843e-07
-2.68068e-05
-1.14042e-06
5.00784e-05
-2.97155e-07
0.0172963
3.37765e-07
-1.80294e-05
-5.41345e-08
7.76932e-07
-0.000108112
4.16633e-07
0.00292525
0.00101667
-0.00111323
-0.00267172
-5.26039e-07
-0.04643
4.10477e-07
2.60488e-08
3.64612e-07
-3.85783e-08
-0.181131
-3.04735e-07
-1.1803e-06
5.52364e-07
2.22648e-07
4.23821e-07
1.07122e-06
1.15375e-06
-0.011835
0.0456888
1.12696e-06
-0.0292519
1.98618e-07
1.59229e-06
8.34805e-07
6.09883e-07
-0.0483729
3.32529e-07
4.35236e-07
-4.98321e-06
-4.01261e-07
4.70173e-07
7.74175e-07
1.61313e-06
-2.8618e-07
9.69616e-08
4.10814e-07
-7.94697e-07
5.8238e-07
8.43444e-07
0.0709691
1.02331e-06
-1.23914e-06
-0.000191784
-3.85865e-05
-4.46918e-07
-2.02846e-08
-0.0120007
4.85848e-07
1.09004e-06
7.09585e-07
3.43619e-07
7.59688e-07
-1.67663e-07
9.82607e-07
0.0142374
3.37439e-07
-2.81663e-07
1.70212e-06
-1.86497e-06
-1.28036e-06
-2.80601e-07
1.2575e-06
-0.0367651
-6.19973e-08
7.34038e-06
-6.98674e-07
-2.01544e-06
-1.53823e-06
-2.63397e-05
2.6352e-07
-4.92805e-07
-3.04923e-07
7.33951e-07
-3.28214e-07
8.32384e-06
7.80307e-07
-1.2181e-10
-6.67679e-07
6.54685e-07
8.82337e-06
3.83682e-07
3.70389e-07
7.11562e-08
-1.45072e-07
0.0238754
4.44874e-07
0.0237831
5.35758e-07
6.34383e-07
3.46847e-06
9.03575e-07
-2.34892e-07
1.97182e-05
-6.46442e-06
4.39853e-08
8.85099e-06
3.61099e-07
-1.2145e-06
8.9384e-07
0.0123216
0.0409688
7.32037e-07
1.05291e-07
6.80681e-08
5.88788e-07
-3.26999e-06
0.0531725
3.05902e-07
1.34737e-05
-4.21918e-07
5.86543e-07
4.58411e-07
-0.000115487
7.45872e-07
1.23553e-06
6.45303e-07
2.35174e-07
1.01693e-06
1.65271e-08
2.103e-07
1.04944e-07
0.0529859
3.87687e-07
6.73859e-07
5.40917e-07
-1.29379e-06
1.6411e-06
0.00656889
1.47044e-07
4.08329e-07
-1.92676e-07
1.21736e-06
6.15793e-07
6.03625e-07
6.71148e-06
3.00547e-07
1.13191e-06
-6.10808e-08
1.32057e-07
-1.11359e-06
8.85261e-07
5.23577e-07
1.30619e-06
-0.000354147
-0.00822588
4.31526e-07
-5.07926e-07
0.00802009
-8.23068e-06
-5.83776e-07
3.04453e-07
6.58372e-06
5.52597e-07
-0.0382834
2.60736e-06
4.04485e-07
0.00503711
0.0940116
1.18197e-06
2.31529e-07
-1.69184e-07
8.98678e-07
-0.214146
1.15834e-06
1.14373e-07
2.91652e-07
8.93407e-07
-5.71007e-07
3.55195e-07
-7.86285e-07
-7.14442e-07
3.02552e-07
0.239813
2.93002e-07
-3.42652e-07
7.3211e-07
-4.10583e-07
6.12614e-08
-1.39983e-06
2.10088e-06
4.27821e-07
-1.93731e-07
-1.20727e-06
9.71974e-05
1.1362e-06
-2.97695e-07
8.81366e-07
4.52279e-07
5.51365e-07
-1.39018e-07
-6.28375e-08
5.1582e-07
-1.0488e-07
1.70312e-08
4.3063e-07
5.94862e-07
6.675e-07
-0.0791503
1.7053e-06
-4.11885e-07
3.06585e-07
2.97172e-07
-9.6419e-07
-2.5055e-07
9.62619e-07
1.33101e-06
-0.0102733
-0.0023924
2.0611e-08
-1.01498e-06
8.93959e-07
3.12246e-07
-6.57504e-07
3.76501e-07
4.37378e-07
4.1832e-07
1.1328e-06
7.8251e-07
7.87166e-07
-2.69991e-07
1.6467e-06
5.02068e-07
7.74291e-07
1.04924e-06
0.0127564
-2.01558e-06
2.39518e-07
-0.0267215
8.38073e-07
9.34269e-07
4.18057e-06
2.22747e-06
-0.00261956
3.88068e-07
-2.41521e-06
-2.88274e-07
2.33769e-07
0.00805038
7.42337e-07
-0.00930869
-8.23898e-07
1.94516e-06
-0.00519232
-1.80794e-10
1.39142e-06
7.51078e-07
1.21641e-06
8.48244e-07
-0.00726249
5.48986e-07
-0.00671139
8.21566e-07
5.88431e-07
-1.34154e-05
-2.96727e-07
1.33069e-06
1.59734e-07
7.40565e-07
-2.56166e-07
-1.0435e-07
4.25435e-07
-1.53227e-06
-1.67063e-06
1.95785e-06
-0.0245968
8.4857e-07
4.87354e-07
-1.12507e-07
-0.00901535
5.91606e-07
6.39614e-07
2.24291e-07
0.0511435
6.90954e-07
-6.49221e-08
7.11268e-07
6.76518e-07
7.88187e-07
5.53031e-07
4.58623e-07
9.3195e-07
-6.22463e-07
0.0348233
-0.00499651
-1.94478e-06
9.18477e-07
3.9957e-08
1.158e-06
4.85469e-07
6.15603e-07
3.57537e-07
8.11066e-07
0.0709118
2.89754e-07
7.30902e-09
7.69634e-07
0.00392927
-9.58285e-07
2.1732e-07
-0.000112383
-7.90787e-05
1.08901e-06
8.68588e-07
-2.64115e-07
-4.57032e-07
5.63534e-07
-1.80572e-07
-0.121126
-3.16055e-07
2.88447e-07
1.04221e-06
-7.61731e-07
-1.73817e-08
3.22979e-07
5.33739e-07
-1.01092e-06
-2.25833e-07
-8.28763e-07
-5.23291e-08
1.14259e-06
-1.2499e-06
1.24667e-06
-4.22408e-06
0.000657046
0.050414
-4.63523e-07
-1.41189e-07
6.85101e-07
-8.95531e-08
0.0620585
-7.56066e-07
3.33066e-06
3.85743e-07
1.75472e-07
2.81149e-07
3.2407e-07
0.0424313
6.68577e-08
0.0284775
-8.72606e-08
-7.55403e-07
8.6094e-07
0.0107168
9.32055e-07
6.36227e-07
-0.000316586
-1.0691e-06
1.09194e-06
0.00468259
2.00174e-07
0.000596445
-5.5812e-07
3.09693e-07
0.00597806
1.7386e-07
4.51624e-07
-6.79876e-07
-0.0143568
9.67614e-08
-1.28842e-06
-1.34891e-06
2.96479e-07
5.04344e-07
-2.86509e-06
0.0163456
1.13496e-07
-0.0237173
9.90791e-05
4.09331e-07
1.13938e-06
1.15961e-06
-2.05258e-05
3.11952e-07
5.22613e-07
1.08293e-06
-8.03288e-08
-5.15667e-07
6.3399e-07
7.88301e-07
1.07546e-06
4.22329e-07
0.027236
1.43777e-07
-0.0231104
4.20379e-07
-1.98583e-06
3.77325e-06
-1.19134e-06
-7.51183e-07
0.0138479
-0.11407
1.3837e-07
1.82609e-07
7.49315e-07
-1.89897e-06
1.67241e-08
2.49206e-07
-5.49207e-06
3.5517e-07
-5.22481e-07
-0.0141463
0.0110702
-1.48244e-06
7.32385e-07
1.07202e-09
-1.17067e-07
5.28233e-07
-2.15098e-07
-0.0328202
5.17e-07
-1.66684e-07
-1.59002e-06
-0.00622464
5.76428e-07
2.8873e-05
1.17832e-06
-1.23429e-05
-8.88255e-08
-0.0129007
4.51726e-06
3.05116e-07
3.18869e-07
9.45936e-07
-1.45227e-06
-1.05074e-05
1.52638e-06
4.27989e-07
2.42553e-05
-8.8568e-07
3.74357e-07
2.54377e-07
-2.54469e-07
1.57428e-06
2.71079e-05
1.41778e-06
-2.52219e-07
5.66971e-07
1.14158e-06
-0.000368665
9.38748e-05
6.5848e-07
-4.40951e-08
-1.7033e-07
1.2474e-05
-0.170046
6.10467e-07
-0.037932
5.26247e-07
1.10164e-07
0.0203522
7.9106e-07
0.00489991
-0.00848307
8.78515e-07
3.61621e-07
-0.0581291
1.27191e-06
7.73461e-07
8.97609e-07
-0.0392914
2.23184e-07
1.75911e-06
0.00543288
0.000470866
-5.3097e-07
-5.62928e-07
-5.23879e-07
9.23688e-07
0.063437
7.72243e-07
-8.99589e-08
0.00241392
3.29315e-07
3.91625e-07
-3.29315e-08
-0.00493149
0.00739281
1.48968e-06
7.88895e-07
1.82732e-07
8.75159e-07
0.000186912
-1.39977e-06
5.57735e-08
-0.0805224
0.0227624
1.22023e-06
-1.37215e-05
-1.25214e-07
9.237e-06
5.16804e-07
-2.83857e-07
4.41856e-07
2.543e-05
1.438e-06
5.35795e-06
0.00648752
-0.0431497
6.10474e-07
3.99923e-07
-4.1033e-07
4.71743e-07
5.60714e-05
1.96108e-07
0.0122114
1.67463e-05
3.1749e-07
2.37918e-07
0.017486
-1.39732e-06
7.94162e-07
2.73651e-06
-0.0021994
0.0199334
0.00656768
-0.0191253
-0.0202308
-0.00278698
7.93617e-07
5.66106e-07
3.06917e-07
1.36547e-06
-0.0121863
2.90352e-05
3.10095e-07
0.0254058
7.02321e-08
-1.41981e-07
5.9942e-07
-1.17398e-07
-3.4416e-07
0.00173514
4.78731e-07
0.000314023
6.30637e-07
1.96148e-05
2.55729e-07
-0.000109629
0.00959753
5.07871e-07
8.54446e-08
2.56072e-07
6.14263e-07
-5.08416e-09
4.91958e-07
1.15969e-06
0.0275548
5.35838e-08
-1.94635e-07
-0.013319
2.299e-07
0.0227497
-5.65721e-07
-0.00833425
1.36456e-07
-5.5047e-07
6.3077e-07
9.73419e-07
-5.26533e-08
5.98083e-07
0.0617376
6.27617e-07
-1.32534e-06
-0.0425456
7.14931e-07
-0.127453
6.3098e-07
-0.0108128
0.0021102
-0.0911832
-6.67756e-07
5.77561e-07
1.50097e-07
0.00241804
1.6074e-06
1.48924e-07
-1.70658e-07
-7.82143e-07
-0.117717
-7.46157e-07
4.41025e-07
6.41891e-07
5.89103e-07
0.000569263
-0.00818412
-1.3259e-07
-5.18744e-07
-0.00318079
-0.0331013
-1.28271e-06
-0.121746
-8.95683e-07
-0.167906
-0.0174142
5.15631e-06
-2.16613e-06
9.63443e-06
5.16089e-07
0.0321443
9.00188e-06
1.0011e-06
1.46413e-06
-3.20147e-07
-0.0854753
-0.0361977
6.36185e-07
4.40119e-07
0.027999
-1.07667e-06
0.029586
4.35672e-07
9.12675e-07
-5.36003e-07
8.1406e-05
6.95653e-06
5.8249e-07
0.00628707
-4.7266e-08
0.0179336
0.0516658
6.64592e-07
-6.21168e-07
-7.42154e-06
-5.65723e-08
-3.55279e-07
-9.37909e-08
0.0338307
4.92799e-07
5.15823e-08
1.17346e-07
0.0997796
7.52101e-07
3.46674e-07
7.05761e-07
-0.00282259
7.59708e-07
6.72405e-07
-5.31886e-07
0.0151598
0.0342902
3.88209e-07
8.85182e-06
-9.61517e-08
3.95841e-07
5.49571e-08
-0.0598571
6.25541e-07
-2.15344e-06
-4.10127e-07
2.48388e-05
-6.77778e-07
-0.0998982
0.0186733
5.72549e-07
0.0344435
-0.00696763
7.28338e-07
4.08342e-07
6.61077e-05
-6.88459e-07
0.0781861
1.1344e-06
1.63786e-05
2.24828e-07
4.62352e-07
3.39481e-07
6.60552e-07
1.32065e-06
5.38602e-07
-3.47286e-07
-0.00299148
-1.71785e-06
0.0309788
-0.0482437
4.1436e-07
-5.16309e-07
2.38354e-07
0.000298125
6.76347e-07
-6.10581e-08
-7.69352e-07
1.40147e-05
0.000118127
0.000267567
0.0297675
2.25998e-07
1.06525e-06
-2.74402e-07
-3.81223e-07
3.65057e-07
2.34923e-05
6.24104e-07
4.27557e-07
0.0014381
-1.27573e-06
1.47925e-07
2.95337e-06
1.74343e-05
-6.07248e-06
3.92227e-07
3.97948e-07
2.69789e-05
2.89417e-05
0.0498537
-2.41987e-05
4.09454e-07
2.75074e-07
-6.67041e-07
9.73072e-08
9.57139e-07
4.60398e-07
3.98483e-07
1.78522e-06
3.62948e-07
-3.26814e-07
1.22984e-06
5.38316e-07
9.2977e-07
4.09536e-07
2.26661e-07
4.86211e-07
6.96256e-07
5.08933e-07
8.39425e-07
1.33997e-07
6.68029e-07
-8.1548e-07
1.90528e-05
3.36264e-07
4.05372e-07
2.98962e-05
1.35393e-05
0.00018978
-0.0166648
6.1612e-07
-1.65712e-07
4.97597e-07
-0.0297912
8.38873e-07
-2.42466e-07
7.77556e-07
0.0459512
6.56495e-07
3.18305e-08
-4.802e-05
1.10466e-06
1.50194e-07
4.68241e-07
3.52951e-07
3.61082e-07
-4.71474e-07
4.03699e-07
-1.64742e-07
5.80625e-07
7.88759e-07
9.67972e-07
4.87473e-07
1.53148e-05
7.76343e-07
8.2193e-07
-6.01534e-07
1.99059e-06
2.3929e-07
-1.44357e-06
1.1283e-06
0.0324458
1.08993e-07
7.72552e-07
9.1892e-07
1.66157e-07
9.90592e-07
8.94551e-08
1.97226e-07
0.00268311
4.00323e-07
-5.22931e-06
9.68081e-07
2.04256e-07
3.44012e-07
2.23878e-07
6.28097e-07
7.8196e-07
4.86195e-07
2.04961e-08
5.68803e-07
-0.0426745
3.12779e-08
4.72906e-07
5.32309e-07
0.0750741
-0.000101108
-1.13885e-07
-3.52072e-07
4.76122e-07
-6.73665e-07
-7.44531e-07
6.19156e-07
-0.0664733
3.66251e-07
5.17902e-07
-4.65496e-07
4.2787e-07
8.26314e-06
5.09887e-07
-0.00572014
1.52802e-07
-1.2902e-06
2.19042e-07
5.32559e-07
0.0104345
-0.0894111
-1.50584e-05
1.77899e-06
1.69693e-07
9.29766e-08
-1.56133e-07
-0.0212893
3.64169e-07
1.04273e-07
-4.38059e-08
2.06009e-07
1.44913e-06
4.93755e-06
7.06238e-08
-0.0211172
1.62073e-06
-1.31066e-05
8.64956e-07
1.25882e-06
4.8783e-07
5.51349e-07
1.48241e-06
4.8067e-07
4.96714e-07
0.0314521
1.45343e-07
5.92339e-07
3.7161e-07
-0.0185415
1.59432e-06
-8.69814e-05
-1.79299e-07
-0.0156548
7.39711e-07
-2.54943e-07
5.10069e-07
-2.03437e-07
1.09643e-06
-1.21662e-05
1.58564e-06
8.78809e-07
-3.13617e-07
3.6008e-07
9.95736e-07
-0.0394882
7.95882e-09
1.41371e-06
-8.61865e-07
-8.76936e-06
1.62959e-06
4.93483e-07
5.61243e-08
0.0248214
-0.072837
2.27561e-05
1.96908e-05
1.4527e-05
2.70549e-07
5.18118e-07
5.12938e-07
-1.39959e-06
-6.13532e-07
-0.150306
4.12447e-07
-3.66498e-07
9.31219e-07
-7.86663e-09
6.31494e-08
-5.17218e-08
5.91923e-07
6.52428e-07
-8.48155e-06
-1.60141e-05
7.93832e-07
-1.59959e-07
-5.17032e-08
0.0381879
6.27047e-08
1.63892e-06
0.0272932
0.023013
-4.25303e-07
-1.56495e-06
4.97473e-07
4.01308e-07
5.50296e-07
-4.68643e-07
-0.0027859
-1.14706e-07
-0.0351686
5.11493e-07
0.00233335
1.96352e-07
9.3612e-07
4.24575e-06
4.24484e-07
1.40324e-06
-1.1744e-07
1.56926e-07
2.37152e-05
3.10437e-07
-1.54845e-05
4.15845e-07
1.04582e-07
-3.97465e-07
3.30142e-07
-2.75231e-07
7.73324e-07
2.12139e-07
7.03233e-07
1.71054e-06
-8.89701e-09
-0.00166616
6.68489e-07
-2.46363e-07
1.92109e-07
-6.37545e-08
6.8143e-07
1.4391e-07
4.52164e-07
-0.069634
-2.25555e-06
5.03577e-07
6.42412e-07
1.43213e-06
1.43099e-07
1.48078e-06
-4.53583e-07
-5.76855e-07
0.00375881
3.33195e-07
-2.51434e-07
3.2419e-06
7.64985e-07
9.32265e-07
-2.42018e-05
6.71223e-07
-6.97737e-05
4.55293e-07
1.28362e-06
-0.012786
-0.0108285
4.13542e-07
6.87617e-07
4.63404e-07
6.5964e-07
3.58467e-07
-1.97822e-05
1.41591e-08
-1.25474e-07
7.2875e-07
2.21034e-07
5.99865e-07
3.01012e-07
-7.27583e-07
6.1626e-08