/*--------------------------------*- C++ -*----------------------------------*\
| =========                 |                                                 |
| \\      /  F ield         | OpenFOAM: The Open Source CFD Toolbox           |
|  \\    /   O peration     | Version:  v2012                                 |
|   \\  /    A nd           | Website:  www.openfoam.com                      |
|    \\/     M anipulation  |                                                 |
\*---------------------------------------------------------------------------*/
FoamFile
{
    version     2.0;
    format      ascii;
    class       surfaceScalarField;
    location    "700";
    object      phi;
}
// * * * * * * * * * * * * * * * * * * * * * * * * * * * * * * * * * * * * * //

dimensions      [0 3 -1 0 0 0 0];
oriented        oriented;


internalField   nonuniform List<scalar> 
14907
(
-0.448363
0.311587
0.136786
-0.58091
0.365737
0.215191
-0.22478
-0.0230461
0.247778
0.588753
-0.588323
-0.0464977
0.0216576
0.0248398
0.422936
-0.529941
0.106951
0.0513891
-0.0308369
-0.0205508
0.140254
-0.134847
-0.00540843
0.400657
-0.227268
-0.173334
-0.376707
-0.101481
0.478206
-0.00884407
-0.000681056
0.00952511
0.0659963
0.523256
0.351498
-0.612193
0.260849
0.644593
-0.34362
-0.300934
0.229437
-0.121744
-0.107704
0.542723
-0.358894
-0.183694
0.304922
0.23793
-0.29182
-0.299537
0.591341
-0.253614
-0.194727
-0.00933509
0.0671568
-0.0578225
-0.393147
-0.13644
0.530037
0.10173
0.0634053
-0.165136
0.3949
-0.62372
0.229026
-0.546602
0.289022
0.257506
-0.340356
-0.240547
-0.261673
0.13673
0.124941
0.630231
-0.364419
-0.265725
0.26449
-0.148048
-0.11646
0.395978
-0.198938
-0.196988
-0.299233
0.196394
0.102815
-0.177243
0.410628
-0.233385
0.000115179
0.00656413
-0.00667933
0.207889
-0.584676
0.123531
0.12772
-0.251267
-0.104976
0.232501
-0.127548
-0.310577
-0.236118
-0.297091
0.154683
0.142406
0.0833824
0.128617
-0.211992
-0.580324
0.26996
-0.0928032
0.145981
-0.0531925
0.0364133
-0.0457487
-0.228408
0.129687
0.0987061
0.0436919
0.00769842
-0.14177
0.284949
-0.143223
-0.0264993
-0.0199986
-0.158449
0.238081
-0.0796342
-0.278364
0.205074
0.0732617
-0.121088
-0.0750627
0.196155
-0.0551433
-0.152079
0.207208
-0.178976
0.281261
-0.102281
-0.583064
0.116333
0.466866
-0.080338
-0.19528
-0.0323178
0.162732
-0.130437
0.375215
-0.267337
-0.107898
-0.115774
-0.18132
0.434153
-0.0111796
0.305274
0.090755
-0.166978
-0.111424
0.27455
-0.151045
-0.177898
0.145547
0.292622
-0.49418
0.201579
0.309055
0.136564
-0.445537
-0.222781
0.117782
0.0859022
-0.310731
-0.267952
0.212273
0.055674
-0.140013
-0.115187
0.255175
-0.0820892
0.232024
-0.149949
0.0851689
-0.0755399
-0.00963003
-4.0978e-05
-0.0059302
0.00597108
-0.1676
0.349115
-0.181506
0.223547
0.151653
0.0591545
0.141057
-0.282865
0.129371
-0.155416
0.0260419
0.184713
0.0798613
-0.264618
0.495802
-0.207033
-0.00449985
0.0261573
0.415386
-0.213589
-0.201774
0.16481
-0.0927616
-0.0720561
-0.0134649
0.0371255
-0.0236593
-0.182051
0.126903
-0.0711401
0.0446404
-0.128193
-0.143954
0.272102
0.241219
-0.123754
-0.117474
-0.254747
0.172634
0.519662
0.0851367
-0.604804
0.0864597
-0.288941
0.202446
-0.00519831
-0.0981409
0.103338
-0.325868
0.107773
0.21805
0.351867
-0.265412
-0.149207
0.276404
-0.127207
-0.0379461
-0.0331944
0.184814
0.0796595
-0.287903
-0.161606
-0.137653
0.133732
-0.284223
0.150497
0.486888
-0.192099
-0.294774
0.166697
0.153359
-0.320047
-0.192242
0.0994199
-0.399463
0.130245
0.269271
0.395982
0.201033
0.108605
-0.123893
0.0152846
-0.118033
0.0411419
0.0768896
0.546878
-0.0273265
0.25752
-0.144284
-0.113247
-0.122925
0.129314
-0.00639146
-0.390533
0.312357
0.0781253
0.152218
0.334679
-0.589588
0.196878
-0.237939
-0.270504
0.572968
-0.302885
-0.269791
-0.466948
0.321999
0.145007
0.221449
-0.131329
-0.0901446
-0.00659056
0.00654953
-0.205789
-0.0621698
-0.24605
0.438383
-0.192282
0.266596
-0.351434
0.0848331
0.161792
0.29688
-0.163135
0.00201531
-0.00202549
1.00819e-05
-0.126229
-0.199699
0.0665119
0.0737412
-0.141478
0.284329
-0.142873
0.196216
0.18234
-0.378545
0.136295
-0.0276953
-0.267159
0.13894
-0.10953
-0.0253178
-0.22304
0.182025
0.0409969
-0.0139336
-0.108995
-0.15731
0.370726
-0.213387
0.0490515
0.115751
-0.366271
0.211997
0.154259
0.00209248
-0.00862099
0.00652849
-0.17407
0.0983282
0.0757373
-0.220552
-0.178858
-0.093376
-0.061363
0.154733
-0.0047194
-0.00133648
0.00605583
0.130125
-0.279362
0.0586169
-0.179704
0.0882118
-0.0934113
0.142571
-0.252
0.109401
0.0151701
0.251416
-0.130178
0.247905
-0.117752
0.113861
-0.107496
-0.00636861
-0.234462
0.354
-0.119574
-0.275632
-0.19127
0.134866
-0.0148293
-0.120045
0.446274
-0.226369
-0.219849
0.313351
-0.146635
0.233309
-0.128241
-0.105083
-0.364491
0.158266
0.206251
-0.00863152
0.529191
-0.520593
0.00408455
-0.000733039
-0.0033508
-0.000616796
-0.00265632
0.00327304
0.581981
-0.301613
-0.280085
-0.19768
0.54926
0.245028
-0.119047
-0.125995
-0.0448387
0.353972
-0.134098
0.040717
0.00356434
-0.0061062
0.00254181
0.0108141
-0.0030874
-0.00772671
-0.181464
0.0949975
0.0864617
-0.132247
-0.21977
0.352013
-0.195718
-0.168749
-0.144713
-0.130924
0.275591
-0.186809
-0.179479
-0.106868
0.000345111
0.106521
0.0226917
-0.0191275
0.00740732
-0.00651552
-0.00238254
0.00176565
0.13214
0.157918
-0.290078
-0.463463
0.28982
0.173525
0.0170179
-0.0549643
0.0656339
-0.0634587
-0.00217593
0.0270463
0.0888647
-0.115915
0.0495157
-0.0197099
-0.0298002
-0.00859804
0.00802053
0.000577503
0.280302
-0.147354
-0.132983
0.0602099
0.024958
0.1051
0.0830938
-0.188208
0.113568
0.131445
0.00463992
-0.00452476
-0.095387
-0.155926
0.251271
-0.0906311
-0.13243
-0.12322
-0.105202
0.000292313
0.0017229
-0.108241
0.130056
-0.0218178
0.261477
-0.109093
-0.152399
-0.000205598
0.00816617
-0.00796059
-0.109678
-0.131297
0.240972
0.0548692
0.0149378
-0.0698071
-0.261695
0.131483
-0.00437731
0.00846245
-0.069191
0.0862083
0.162089
-0.0191575
-0.142933
0.009879
0.0632153
-0.0730949
-0.131119
-0.100398
0.231516
-0.21359
0.390158
-0.176613
0.363471
-0.561045
-0.2892
0.210765
0.078418
0.0152719
0.102248
-0.117525
0.253818
0.00765168
-0.0944393
0.324439
-0.229989
0.00675508
0.0588782
0.13662
-0.407139
0.450117
-0.0428641
0.00384851
0.0510206
0.409669
0.145062
-0.554411
-0.29932
-0.291144
0.590389
-0.530657
-0.00691839
0.53714
-0.0948576
0.104736
-0.615471
0.605044
0.0109971
-0.107418
0.000548246
0.0845034
-0.0906939
0.00619015
-0.255368
0.136304
0.0223374
-0.13058
-0.115194
0.300105
-0.184964
-0.313756
-0.149341
0.462987
-0.174185
0.145879
0.0282998
0.47935
-0.21015
-0.269169
0.141383
0.0800421
0.236698
-0.11212
-0.124591
0.0120519
-0.0968746
0.0848222
-0.114096
0.197488
-0.19291
0.152107
0.0407855
-0.224752
0.113617
0.111134
0.174799
-0.0838653
-0.0909344
0.457968
-0.249799
-0.2081
0.140414
-0.0204102
-0.120007
0.368823
-0.14529
0.204989
-0.0565797
-0.00611216
0.0626913
-0.269596
-0.193977
0.210509
0.158298
0.191149
-0.214247
0.174629
0.0586668
-0.183217
-0.202791
0.386141
-0.731991
0.479023
0.253216
-0.0959132
0.242434
-0.146525
0.291157
-0.164377
-0.126767
0.230206
-0.362445
0.138797
0.138357
-0.283107
-0.228646
0.0972885
-0.389418
0.143474
-0.416686
0.239424
0.556419
-0.00223165
-0.554044
0.10685
0.150659
0.0885409
-0.27264
0.184064
-0.69299
0.401156
-0.325474
-0.215839
0.54169
-0.343115
0.17553
-0.132678
-0.0587576
0.191408
-0.0673497
0.0794011
-0.0912049
-0.0902636
-0.00742045
0.00721485
0.111906
-0.0848617
0.0251501
0.0908597
-0.116015
0.0772464
0.152181
-0.0162713
0.197767
-0.181496
-0.0705161
0.0665408
0.00397771
-0.276467
0.180542
-0.231684
-0.158907
-0.395752
-0.336023
-0.159778
-0.129442
-0.379473
0.196362
-0.0975328
0.199265
0.259898
-0.0563322
-0.203585
0.194549
-0.521339
-0.00978523
-0.0899144
0.105182
-0.17881
0.0868931
-0.00239007
0.114012
-0.0114878
-0.0926891
0.104175
-0.21858
0.108904
0.169315
0.121855
0.201952
0.193905
-0.395758
-0.00294363
0.13791
-0.134992
0.0535393
-0.288035
0.175152
-0.0700672
0.25666
0.00655106
-0.263249
-0.106991
0.00709374
-0.00500131
-0.00068126
-0.406404
-0.377745
0.241714
0.136004
-0.0526052
-0.0179079
-0.174725
0.192826
-0.301964
0.185671
0.265811
-0.451537
0.0987453
-0.231452
0.0151288
0.0343928
0.0378873
-0.159372
0.121473
0.122385
-0.00852752
0.00771127
-0.590694
-0.178033
0.541627
0.18239
0.107829
-0.335048
0.102111
0.0726864
-0.36389
0.240592
0.123301
-0.122671
0.415405
-0.32778
0.400575
-0.072789
-0.315182
0.199941
-0.242351
0.140687
0.101674
-0.12621
0.186033
-0.0598346
0.0171201
-0.106551
0.0894292
-0.0084525
-0.0116761
0.0201282
-0.0634864
-0.114447
0.0222476
0.0339879
-0.0562362
0.228208
-0.40628
0.178231
0.163337
-0.166288
0.255299
0.375007
0.0112839
-0.0114404
-0.111075
0.130121
-0.0190491
0.00168665
-0.0905892
0.0889018
-0.00526375
-0.179348
-0.289984
0.469216
0.225185
0.034694
0.126999
0.222124
0.0974455
0.102204
-0.199671
-0.0880213
0.644568
-0.344776
-0.299744
-0.207304
0.138771
0.0685234
0.393466
0.179793
-0.585096
0.601591
-0.0163273
0.137564
-0.082035
0.0991536
0.587813
-0.346563
-0.241139
0.152382
-0.283703
0.304507
-0.16175
-0.142789
-0.208082
0.0818548
0.00703546
-0.00810868
0.0010732
-0.161107
0.261189
0.321056
-0.343891
-0.228617
0.572612
-0.221917
0.307772
0.0973583
0.0596523
-0.157022
0.143538
0.0185484
-0.0223104
0.113167
-0.00981055
0.103696
-0.0938865
-0.182963
-0.0593792
-0.232928
0.142275
0.117667
0.248891
-0.144509
0.276974
-0.132465
-0.59601
0.296418
0.130021
-0.0192077
-0.110815
-0.0029013
0.259532
0.134519
-0.0954249
-0.111302
0.206721
0.227567
-0.0330666
-0.120411
0.153457
0.11799
0.113297
-0.208721
-0.132849
0.254608
-0.12179
-0.127083
-0.0658487
0.118465
-0.132402
-0.124806
-0.0825102
-0.0708409
0.22875
-0.157939
-0.387261
0.220212
0.167023
0.0556365
-0.065448
0.128241
0.00661757
0.00930413
0.192114
-0.20143
0.164482
-0.0671352
0.13836
-0.364816
0.226321
0.1772
-0.446823
0.39534
-0.257082
-0.153974
0.120891
0.00477609
0.092695
-0.0974719
-0.153406
0.247505
-0.0941136
-0.601957
0.341117
0.260796
-0.185587
0.122077
0.300958
0.296057
0.337058
0.25086
0.0036974
0.169087
-0.382706
0.190322
-0.414658
0.224479
0.00186491
-0.00658436
-0.19485
-0.265709
0.460585
-0.0999698
0.0304618
0.0695072
0.106513
0.0235069
0.111471
0.0178971
-0.0353544
0.00552199
0.0298381
-0.00761541
-0.106057
0.184751
-0.0787088
-0.0744241
0.0178436
0.331102
-0.57251
0.241642
0.032494
-0.211463
0.325008
0.272006
0.290328
-0.166004
-0.124357
0.248322
-0.0801232
-0.168194
-0.638315
0.229121
0.409228
0.204988
-0.107559
-0.0232428
0.0743132
-0.151857
0.547041
0.368178
-0.504103
0.0716981
-0.0865549
0.0148547
-0.0345947
0.0495325
0.148145
-0.263339
-0.215071
0.415505
-0.200418
0.00135118
0.00605612
0.0252164
-0.139992
0.429633
-0.00981273
-0.065728
0.00284365
0.346193
0.133208
-0.318129
-0.283881
-0.449039
0.238204
0.210937
-0.171872
0.365369
-0.193405
-0.563206
-0.0215963
-0.364968
0.364318
0.0778833
-0.0515221
0.123318
-0.00802721
0.0358355
-0.0278088
-0.582132
0.23882
-0.184021
-0.179862
-0.0793161
-0.0219342
0.101249
-0.249458
0.29763
-0.0482445
-0.0588286
-0.106067
0.143943
0.0973662
-0.221128
-0.222823
-0.162596
0.3854
-0.423947
0.208855
0.0912477
-0.0958112
0.00456277
-0.140526
0.0775546
-0.183627
-0.120433
0.254402
-0.133989
0.000440213
-0.00928429
-0.128899
-0.126485
-0.0675051
0.101109
-0.222868
-0.27232
-0.199585
0.471884
0.188627
0.115702
-0.0423303
-0.0733724
-0.18643
0.463292
-0.276864
0.136391
0.054047
-0.19044
0.191838
-0.31233
0.12051
0.159512
-0.292368
-0.00616856
6.23246e-05
-0.0978521
0.230243
-0.132382
-0.0964749
-0.186518
0.283027
0.00753121
0.544212
-0.551397
-0.0104031
0.00348079
0.00692232
-0.170042
0.373466
-0.203334
-0.195537
0.0976897
0.257414
-0.150776
-0.106647
-0.177411
-0.050997
0.0429695
-0.0202204
-0.514891
0.414918
0.100151
-0.0302607
-0.175533
0.0866335
-0.240051
-0.503097
-0.499735
0.204266
0.295633
0.176259
-0.387403
-0.0034552
0.00856737
-0.00511218
0.187599
-0.395622
-0.468737
-0.146275
0.0758999
-0.156704
0.0807999
-0.0623395
0.139228
0.162556
-0.0154054
-0.147158
-0.59318
0.293782
-0.10055
0.183629
0.000476949
0.248521
-0.107825
-0.35848
0.180888
0.177603
-0.191815
-0.195474
-0.0937176
-0.0803556
0.211421
-0.202137
0.197696
-0.469954
-0.0760515
0.165719
-0.0896778
-0.255163
0.363011
0.0633826
-0.428366
0.171968
0.0647182
-0.229007
0.432885
-0.203787
-0.121062
0.0344516
0.0866056
0.227524
0.0847837
0.263813
-0.450256
0.00910594
-0.009787
0.538459
-0.260715
-0.277724
-0.1397
0.297584
-0.585817
0.194983
0.39079
-0.274964
0.154498
0.194235
-0.0554755
-0.357303
-0.157373
0.142633
-0.364565
-0.085814
0.0824695
0.182058
-0.264549
0.0291147
-0.0226019
-0.00651266
-0.11583
-0.160649
-0.297009
-0.398424
0.599512
-0.126242
0.0223679
0.103872
0.165015
-0.309538
0.144434
-0.310711
0.214248
0.228885
-0.585294
0.35676
-0.311358
0.148238
0.163123
-0.00586552
0.120502
-0.114645
0.0362548
-0.0497189
0.200714
-0.129026
0.00795708
0.0245651
0.129661
0.11887
-0.329819
-0.262977
0.592726
-0.199433
-0.167401
0.36686
-0.166216
0.326535
-0.160376
-0.444033
0.529177
0.38267
-0.190842
-0.191696
-0.00635462
0.00568318
-0.00712111
0.0057846
-0.374026
-0.264256
0.0551379
0.126872
0.00661044
-0.16471
0.158104
-0.166158
0.172782
0.253424
-0.0687352
-0.312701
-0.280743
0.593711
-0.0996183
-0.0554271
0.155044
-0.00395179
0.0951985
-0.045242
0.217872
-0.440616
-0.328456
0.162188
-0.339827
0.0902853
0.249672
-0.444561
0.00594832
-0.000940071
-0.00500834
-0.0912557
-0.0827521
0.173995
-0.119242
-0.149542
-0.190772
0.340348
-0.301588
-0.262436
0.56432
0.256038
0.0677261
-0.323817
-0.161959
0.0991318
0.132773
-0.497274
-0.0100818
0.00662654
0.0254098
-0.0600045
-0.0178942
-0.0578591
0.0757531
0.0830287
0.0462815
-0.194646
-0.358753
0.138238
0.257336
-0.132727
-0.124602
-0.115422
-0.0560475
0.17146
-0.00266107
0.00552912
-0.00286815
0.00557464
0.017117
0.204774
-0.119749
-0.085044
0.171089
0.440673
0.135606
-0.576287
-0.100703
0.253073
-0.194232
0.16395
0.53666
-0.0960473
0.00102808
0.00978601
0.441921
0.114579
-0.191854
-0.214269
-0.226804
0.117987
0.108815
0.128073
-0.571999
0.225293
-0.0805188
-0.14477
-0.269019
0.153175
0.09709
0.0454019
-0.142497
-0.091012
-0.0851198
0.176118
-0.507885
0.500979
-0.0995992
-0.151705
0.251298
0.103319
0.129161
-0.158249
-0.030325
0.126816
-0.0437916
0.000493804
-0.0835149
0.08302
-0.282014
0.606706
0.141039
0.140226
-0.262428
0.14438
0.118014
-0.0666632
-0.217558
-0.280532
-0.285893
0.56636
-0.269633
0.125109
0.284911
0.151781
-0.436667
0.0776739
0.0443354
0.118215
0.0502949
0.0638317
-0.114131
-0.579138
0.350327
0.228709
-0.131892
0.214343
0.53467
-0.305532
-0.136768
-0.176961
0.313708
-0.057133
-0.0172919
0.306273
0.227699
-0.533703
0.253296
-0.124617
-0.128689
0.149146
-0.0857395
0.192958
-0.42186
-0.13026
0.259349
-0.205582
-0.0537604
-0.231023
-0.00215714
0.0018251
0.000331962
-0.0786257
0.199615
-0.120997
-0.563373
0.318894
0.244658
-0.0250554
-0.0854382
0.110492
0.0108957
-0.20827
0.197331
-0.596851
0.3056
0.156852
-0.309663
0.152794
-0.186433
0.375889
-0.189411
0.336865
0.26015
-0.242418
0.112493
0.129916
0.0325426
0.223461
-0.0318522
0.0572618
-0.0980507
0.240601
0.184311
-0.383693
0.147517
-0.297152
0.149631
0.158734
0.0354898
-0.110067
-0.0880435
0.198102
-0.185379
0.381621
0.108821
-0.240997
0.132181
-0.175479
-0.18324
-0.0935022
0.222132
0.32146
-0.152499
-0.168975
-0.177691
0.0866627
0.403455
-0.212986
0.239964
-0.108186
0.190195
0.239612
-0.429816
-0.178961
-0.222229
0.401119
-0.00314397
0.0198351
-0.0166914
-0.260917
-0.188022
-0.0721408
0.0150067
0.387055
-0.21079
0.139628
0.137803
-0.277417
0.549534
-0.30779
-0.241598
0.234845
-0.128192
-0.106652
-0.297146
-0.288714
-0.186943
0.10831
-0.136026
0.328826
0.0778455
-0.102902
-0.215784
0.552847
0.0597583
-0.0160645
0.283683
0.162637
-0.133669
-0.0744304
0.470089
0.172513
-0.642362
0.196941
0.103112
-0.039818
-0.325125
-0.162681
-0.0797471
-0.415696
0.231551
0.184157
-0.0583298
0.0182267
0.0256342
-0.043861
0.129594
0.0957029
-0.230214
0.194406
0.035813
0.0968361
-0.119153
-0.142458
0.343689
-0.201245
-0.0529373
-0.0755678
0.128502
0.117046
0.121033
0.508833
-0.300884
-0.154275
0.0782151
-0.0803834
0.080876
0.00283418
-0.00549537
0.0690847
0.0834393
-0.0103769
-0.0730628
-0.129629
-0.138843
-0.129026
0.267855
0.351162
0.293457
0.249908
-0.0865816
-0.198064
-0.0205191
-0.202275
-0.000928825
0.203243
0.316262
-0.113488
-0.117581
0.231034
0.0274711
-0.118679
0.511675
-0.520333
-0.293118
0.156347
-0.140997
0.249821
-0.00297246
0.005706
-0.00273388
-0.221465
0.0877742
0.101527
-0.202092
0.130051
0.127292
-0.0324676
-0.475517
0.00629009
0.512737
-0.274419
-0.238328
-0.176796
-0.237447
0.41417
0.214782
-0.0183975
0.0626694
-0.317821
0.00212204
0.00916189
0.196214
-0.092823
-0.103389
-0.00174951
-0.00122326
-0.630727
0.259453
0.371527
0.0549799
-0.0859156
0.0309353
0.000767155
-0.00149751
0.000730294
0.140267
-0.0337546
-0.0157812
-0.186456
0.170976
0.02679
0.0017462
0.138663
-0.0524669
0.130245
-0.0777816
-0.300274
0.138476
0.297717
-0.105841
0.0729485
0.0122832
-0.0113137
-0.19751
-0.153668
0.351162
-0.0763007
0.152194
0.0162665
-0.00134037
-0.0149262
-0.351627
0.273634
0.0779389
0.254456
0.179108
-0.433616
-0.257939
0.19127
-0.24826
0.131017
0.117221
-0.327315
0.2874
-0.0353975
0.223379
-0.188017
-0.0871393
-0.0391055
-0.0330742
0.096289
0.219182
-0.547016
0.233126
-0.00944531
0.000824292
-0.00647648
0.00452429
0.00195229
0.181975
-0.181986
-0.176482
-0.396106
0.512553
0.201677
-0.106449
0.0271325
0.100416
0.0957989
-0.0496077
-0.0410864
-0.242348
-0.179394
0.433749
0.186238
-0.361004
0.174817
-0.26765
-0.226516
0.100693
-0.220524
0.119835
-0.222043
0.0364324
-0.0137086
0.00525571
0.264651
-0.506421
0.241854
-0.593874
0.259828
0.333907
-0.164046
0.152738
0.0113025
0.154724
-0.352174
0.140562
-0.22002
0.0794705
-0.0609938
0.0838917
-0.0228989
0.170699
-0.270304
-0.0128161
-0.0269568
0.0397729
-0.00147023
-0.000279462
-0.27219
0.133326
0.190945
0.0513941
0.013408
-0.0648029
-0.00864723
0.0137599
-0.00511266
0.0535064
-0.146185
0.0926762
0.202
-0.134595
0.0250646
-0.00580541
0.0563693
-0.0505646
0.0939114
0.0729062
-0.166823
-0.159239
-0.141084
-0.557676
0.21386
-0.2829
0.0877779
-0.000885154
-0.215284
-0.014926
0.0662053
0.00254639
-0.068753
-0.59157
0.261702
0.000663441
0.006372
-0.00938856
0.102083
0.196358
-0.363719
0.247782
0.163371
-0.411157
-0.00305181
0.0362893
0.373593
0.193472
0.356173
0.20528
-0.109776
-0.0955214
0.00430951
0.000661191
-0.00497076
0.000393868
0.00421005
-0.00460401
0.0318439
-0.0349882
0.162335
-0.302067
0.20588
-0.138153
-0.0677338
-0.146171
0.0937018
-0.436818
-0.143324
0.167999
-0.469236
-0.584382
0.282906
0.0857631
0.00201437
0.385179
0.240116
-0.625281
0.370599
-0.186262
0.140989
0.0648855
-0.17491
-0.127098
-0.0470916
0.284179
0.258931
-0.542891
0.265695
-0.491813
0.226352
0.401322
-0.325677
-0.253572
0.155196
-0.0568724
-0.155008
0.540313
-0.185747
-0.157355
0.0664121
0.117173
-0.183594
-0.10254
-0.00487932
0.0039401
-0.0491363
0.045196
0.406518
0.199324
-0.605598
-0.158224
0.102317
0.0559048
-0.0112639
0.0047878
0.0119301
0.0171849
-0.128845
0.226198
0.00649346
-0.0113042
0.00481076
-0.00152867
-0.124169
-0.193023
-0.419037
-0.126397
-0.125628
0.219768
-0.106534
-0.11324
0.00145903
-0.00635336
0.00489403
0.0976265
-0.56368
0.28318
0.429769
-0.584814
0.000147162
0.0861277
-0.139068
-0.14894
0.311245
0.292586
0.270483
-0.562903
0.170785
0.174218
-0.344983
0.101383
0.0630892
0.230686
-0.551723
0.00571075
0.5461
0.123582
-0.217067
-0.141433
-0.297387
-0.286854
-0.172887
0.375731
-0.202784
-0.0367674
-0.0232372
-0.209957
-0.167812
-0.258262
0.1102
0.395359
-0.278706
0.117071
0.118045
-0.0150932
-0.102955
0.534725
0.227814
-0.115141
-0.112704
-0.32645
0.438166
-0.111731
-0.227968
0.127581
-0.056618
0.0400797
0.0165382
0.304768
0.292247
-0.0570029
0.0609425
-0.0713455
0.212712
-0.00107616
0.00460342
-0.0035273
-0.261303
-0.362248
0.139899
-0.0948977
0.218501
-0.085888
-0.0723383
0.0831819
-0.0114857
-0.197118
-0.0249458
0.0772245
0.00621428
-0.0592717
-0.0407628
0.100037
-0.2549
0.0998184
0.155079
-0.0103639
0.554788
0.0315799
0.108685
0.172683
0.29203
-0.464605
0.273682
-0.618531
-0.408445
0.212635
0.195892
0.614798
0.0566436
0.115439
-0.172092
0.383645
0.21337
0.250452
0.018498
-0.079493
0.104148
-0.18928
-0.154171
-0.43392
-0.0476594
0.136345
-0.0886933
0.143367
-0.255504
0.024159
-0.151984
0.252954
-0.100968
-0.0558966
0.0240443
0.177708
0.187754
-0.10976
0.139632
-0.00284207
-0.00667825
0.00952003
0.107026
-0.241311
0.134295
0.000123835
0.00582442
0.336414
-0.599381
-0.052959
0.199346
-0.146379
0.49849
-0.567748
0.0694108
0.157593
-0.286633
-0.149734
0.314693
0.14114
-0.0440581
0.0268343
-0.106184
0.0793465
-0.24819
0.12485
0.123344
-0.00699872
-0.281534
-0.326682
0.608261
-0.0592521
0.0464359
-0.27913
0.114766
0.167013
0.192396
-0.359355
-0.0897227
-0.0656955
-0.0211642
0.158761
-0.137602
-0.00341731
0.00194686
-0.150624
0.398423
-0.105292
0.0994189
-0.0972542
-0.00528775
0.102511
-0.0314413
0.0817329
-0.292302
0.548781
-0.406294
-0.142298
-0.300006
-0.0888653
0.0620978
0.026767
-0.406155
0.498757
-0.0928588
-0.402229
0.300769
0.229912
0.193129
-0.422903
0.158385
-0.461191
0.216269
-0.407183
0.257867
0.275121
-0.12763
0.20799
0.188221
-0.396088
0.476522
-0.25028
0.121362
0.081339
0.123923
0.095908
-0.143576
0.399933
-0.212339
-0.0048233
0.00374694
0.314527
-0.134384
-0.180152
-0.0382595
0.093239
0.128971
-0.0267273
-0.00684172
0.0034621
0.00337957
-0.0416729
-0.106687
0.148346
0.181641
-0.234603
0.00901513
-0.00423434
-0.0047808
0.0795226
-0.189599
-0.0675022
0.0435623
-0.00196504
-0.0415976
0.166143
-0.0647672
0.565367
-0.467847
-0.126906
-0.0991057
0.225989
0.010546
-0.346435
0.0885056
0.00180107
0.00134149
-0.00314261
0.286599
-0.291249
0.00465982
0.0704367
-0.0522101
0.00715526
-0.133519
-0.11668
-0.152354
-0.0060193
-0.00208941
0.142757
-0.19069
0.373069
0.507699
-0.0373183
-0.102522
-0.138471
0.432018
0.116966
0.162412
-0.474802
-0.0771738
-0.0569293
0.148666
0.0996607
0.169145
-0.495586
-0.184381
-0.162049
-0.117785
-0.132513
0.048223
0.0674783
0.113586
-0.246307
0.171063
0.396979
-0.568136
0.163796
-0.235156
-0.118538
-0.0499142
0.168449
0.106884
0.147498
-0.210666
0.471094
-0.260425
-0.00221799
0.00401901
0.180825
-0.297931
0.117074
-0.00678994
0.24737
-0.0554036
-0.108969
0.20769
-0.175868
-0.139362
-0.00669024
0.00760993
0.0153336
-0.0148114
-0.00051831
0.00676094
-0.00493595
0.169664
-0.316727
0.147017
0.124882
0.102903
0.126953
-0.108473
-0.0184807
-0.178449
-0.300078
0.150567
0.587447
-0.140427
-0.1052
0.245631
0.353642
-0.476143
0.454114
-0.1697
-0.138409
-0.0741506
-0.0124066
0.0112929
-0.0628416
0.0515482
0.493982
-0.262595
-0.231397
0.308978
-0.133693
-0.175319
0.269199
-0.485928
0.0739283
-0.264655
0.121484
-0.256169
-0.232138
0.488596
0.124254
-0.122512
-0.114702
0.0499517
-0.258286
0.208327
-0.391612
0.217003
0.174696
-0.229586
-0.184202
0.413878
-0.290641
-0.222396
0.513248
-0.148596
-0.0920574
0.240646
0.000222329
0.00408712
0.240257
-0.115312
0.189161
0.389257
0.0906633
-0.00448251
0.00164032
-0.228882
-0.1868
0.221358
-0.511791
0.383309
-0.233778
0.0680921
0.00913181
-0.107147
0.559166
-0.552077
-0.00704958
-0.358845
-0.271668
-0.138407
0.117232
0.0874221
-0.00273568
-0.0846872
0.563831
-0.308341
-0.255558
0.627739
-0.355876
0.19826
-0.107578
-0.090707
-0.155514
-0.136009
0.291561
-0.238539
0.128339
0.11019
-0.217519
0.156829
0.0606679
-0.0753345
0.0703167
-0.161584
0.468692
-0.226949
-0.241796
-0.0340607
-0.141391
0.175434
-0.0122828
0.0590929
-0.0468105
0.149091
-0.028595
0.00376037
-0.136149
0.132385
0.0975818
-0.205669
0.108059
0.107744
0.288291
-0.606423
0.16584
0.154506
-0.320392
-0.0983383
-0.129618
0.21599
-0.115572
0.153339
0.164124
-0.317543
-0.192457
0.337713
-0.145262
0.583307
-0.282583
-0.300427
0.284254
-0.144616
-0.00593664
-0.0953302
0.0779362
0.0173933
-0.161415
0.0951036
0.0663172
0.150615
-0.267309
0.306313
0.100557
-0.170868
0.0703038
0.158577
-0.301823
-0.155592
0.205515
0.0293353
-0.0829922
0.0536569
0.103337
-0.212332
0.158362
-0.29442
-0.377102
-0.0429983
-0.0458674
-0.00543739
-0.089421
0.0243876
0.443567
-0.467686
0.139307
-0.27028
0.130244
-0.149403
0.350131
-0.163852
0.501991
-0.267846
-0.233975
0.351698
-0.0662656
0.196507
-0.0574125
0.193037
-0.135659
-0.156314
-0.0822338
0.00369385
-0.000803641
-0.00289022
-0.141503
-0.133494
-0.311089
-0.00821321
-0.00305046
-0.256688
-0.219819
0.476436
-0.0639913
0.0752837
-0.532757
-0.0183428
0.55144
0.115236
0.0882603
0.0419823
0.290335
-0.275938
-0.014441
0.397121
0.159432
-0.556564
-0.314056
0.165085
0.257592
-0.119563
-0.138041
0.0772652
-0.00917368
0.158435
-0.275894
0.568401
0.00752094
-0.0619715
0.0544501
0.0559221
0.0961706
0.0994152
-0.154843
0.00186679
-0.00280698
-0.0315247
0.149985
0.663328
-0.312128
0.0952034
-0.117139
0.167456
-0.319919
0.152477
0.008947
0.0612233
-0.0701706
-0.233012
-0.141672
0.279985
0.521699
0.0838366
-0.00491783
-0.00548531
0.314449
0.348887
0.0474391
-0.264986
0.238086
0.131378
0.103468
0.0782903
0.106445
-0.155098
0.0990432
-0.262547
0.0468055
0.21573
-0.293193
0.10293
-0.144615
-0.193021
0.0876628
0.105336
-0.182462
0.42855
-0.246059
0.161431
-0.219908
0.0584659
-0.346146
0.162131
0.00960785
-0.0103402
0.00487571
-0.0137951
-0.39265
0.169405
0.00255804
-0.262137
-0.30106
-0.0651618
-0.096248
0.319797
-0.562051
0.242166
0.000834549
0.00285929
-0.214547
-0.34997
0.140011
0.125638
0.433516
0.097626
-0.246233
0.108962
-0.246146
0.137185
-0.501184
-0.151656
0.652928
-0.135965
-0.255557
0.181408
-0.306486
-0.0911571
-0.0434387
-0.0659052
0.159351
-0.0934489
-0.141647
0.292697
-0.151031
0.232177
-0.125135
-0.249488
0.146973
-0.14773
0.0699457
0.304367
0.147957
-0.129445
-0.133017
-0.14075
0.297578
0.205215
-0.0624689
0.141788
-0.232457
0.0906734
0.00445689
-0.505583
-0.504382
0.247849
0.0911501
-0.168842
0.0776829
-0.349362
0.176541
0.0860326
-0.0975221
-0.0859818
0.230341
-0.00501786
0.0951398
-0.0901226
0.139341
0.122852
-0.262201
0.467409
0.139081
-0.331567
0.0804629
-0.214468
0.134011
-0.112141
-0.0519093
0.19103
-0.420492
0.133856
-0.107762
-0.0693767
0.177135
-0.104885
-0.394292
0.12736
-0.556354
-0.0307746
0.587159
0.0102311
-0.0740146
0.0686096
0.00540465
-0.214545
0.0980008
0.116528
0.00178708
0.0104961
-0.101272
-0.0797251
0.180996
-0.111887
0.212586
-0.153095
0.0345528
-0.0574095
-0.0887635
-0.0762223
0.216802
0.00249959
-0.238345
0.0979186
-0.051371
0.172498
-0.121134
0.131706
-0.287178
0.163859
-0.221306
-0.190087
0.343441
0.145579
0.0157306
-0.197784
-0.17861
0.376364
-0.197765
-0.045923
0.0401171
0.237596
0.0769245
0.0310244
0.259266
-0.0561119
0.0951384
-0.0390272
-0.372059
0.180229
-0.116264
0.211173
-0.0949155
-0.0797782
-0.214166
0.0859099
0.0330056
0.253598
-0.0212828
-0.0776155
0.0988967
-0.271643
0.138953
0.132699
-0.267979
-0.259657
0.527671
-0.0904769
0.204096
0.00256505
-0.00122364
-0.0848913
0.094229
-0.00934085
-0.202687
-0.146196
-0.0921466
-0.213031
0.507022
-0.293799
-0.371938
0.325604
0.0463508
-0.008962
0.0951696
0.223776
0.238141
-0.507766
0.269665
-0.186271
0.0747556
0.111507
0.141519
0.149744
-0.291271
0.00121521
-0.173412
0.172193
-0.187754
0.35479
0.469007
-0.0293266
0.0283436
0.000984941
-0.142376
-0.157671
-0.29755
0.360973
0.195399
-0.0384442
-0.156965
-0.145545
0.315178
0.398782
-0.115026
0.437244
0.0919427
-0.0797886
-0.142776
0.260909
-0.118167
-0.264765
-0.329247
0.423636
-0.205728
0.101985
0.0745817
-0.176567
-0.126608
-0.128294
0.10174
0.112739
-0.214502
-0.14984
-0.15675
0.306606
-0.0906102
-0.0555768
-0.107618
0.310895
-0.15763
-0.250089
0.127793
0.122281
0.440126
-0.174281
-0.249003
0.487092
-0.00790872
-0.0638578
-0.101589
0.165441
-0.107103
-0.0859396
0.0683138
0.151448
0.0593108
0.103928
-0.163245
-0.163963
0.0561974
0.157007
-0.0736983
-0.0833185
-0.083591
-0.0706928
0.0684546
-0.197318
0.0183296
-0.00206299
0.165108
-0.317604
0.139967
0.15232
-0.292345
-0.292829
0.520839
-0.516277
-0.040075
-0.0490849
0.152555
-0.103476
-0.120054
-0.412373
-0.0420503
0.00353329
0.00588096
-0.00941427
0.0968696
-0.0735142
-0.0233564
0.00118389
0.395937
0.0456282
0.149762
0.152466
-0.0550783
-0.0973908
-0.210258
-0.238656
0.448892
0.0743268
-0.0717816
-0.0264155
0.117876
-0.0914624
0.0395228
-0.0818535
0.113334
0.102658
0.000810762
0.00396633
-0.00477714
-0.0610583
-0.102908
0.105028
-0.101267
0.00622155
-0.00476269
0.184278
-0.0801395
0.147235
-0.29923
0.14577
-0.0482122
-0.1842
0.366715
-0.182491
0.0030544
-0.00266064
0.0919158
-0.233702
0.141777
0.0689676
-0.149261
0.0802883
0.391899
-0.218325
-0.17359
0.0884605
0.39621
0.0993299
-0.495299
-0.000402509
-0.00832748
0.00872996
0.00340853
-0.000354311
0.319325
0.264099
-0.583271
-0.00407613
0.00755689
-0.105629
0.0877543
0.0178738
-0.0897205
-0.110015
0.199737
-0.110269
0.180995
-0.0707367
0.130469
-0.44893
0.151391
-0.000240852
0.00105154
0.289761
-0.131208
-0.0145677
0.0659609
-0.00507938
0.00861265
0.23218
0.341176
-0.573213
-0.0365797
-0.225992
0.29586
0.23078
0.108901
0.0677343
-0.143383
0.0756375
0.0936271
0.0615646
-0.567348
0.0324747
0.363889
-0.0655074
-0.15441
-0.147286
-0.12925
0.276519
0.00706167
0.491596
-0.198048
0.0786792
0.11935
-0.316957
0.244158
-0.467527
0.199825
-0.122969
0.00567679
0.127757
-0.133441
0.465083
0.04986
-0.00629779
0.308497
0.384098
0.20983
-0.593786
0.0910872
0.114117
-0.0331976
0.0984106
-0.0652145
-0.246365
0.26153
-0.228527
0.421763
-0.103352
0.13082
0.10621
-0.0735125
-0.032699
-0.328251
0.181063
0.147223
-0.012204
0.175993
0.0939761
-0.0994144
-0.10274
-0.00682647
-0.000222658
0.00704909
0.224809
0.112193
-0.173095
0.0608979
-0.00611496
0.000184649
0.00445577
-0.0290557
0.0245995
0.328328
-0.542448
0.214268
-0.229357
0.235871
-0.0984896
0.216478
0.078078
-0.175486
0.0973993
0.0361617
0.116572
0.241468
0.00120977
-0.00221803
0.00100815
-0.0718317
-0.114448
0.0750629
-0.095475
0.153843
0.130465
-0.296856
0.518453
0.00364952
-0.128737
0.232384
-0.103639
0.490904
0.327154
-0.582007
0.254943
2.62245e-05
-0.00121747
0.00119118
-0.221407
-0.0717061
-0.301541
0.138986
0.209196
0.12851
0.116081
0.1415
0.551737
-0.078431
0.147392
0.120677
-0.263496
0.0959504
0.145122
-0.241059
0.222779
0.235174
-0.457802
-0.0891421
-0.0511003
0.0566748
-0.115648
0.0384715
0.16246
-0.0947403
0.00957065