/*--------------------------------*- C++ -*----------------------------------*\
| =========                 |                                                 |
| \\      /  F ield         | OpenFOAM: The Open Source CFD Toolbox           |
|  \\    /   O peration     | Version:  v2012                                 |
|   \\  /    A nd           | Website:  www.openfoam.com                      |
|    \\/     M anipulation  |                                                 |
\*---------------------------------------------------------------------------*/
FoamFile
{
    version     2.0;
    format      ascii;
    class       surfaceVectorField;
    location    "700";
    object      Uf;
}
// * * * * * * * * * * * * * * * * * * * * * * * * * * * * * * * * * * * * * //

dimensions      [0 1 -1 0 0 0 0];


internalField   nonuniform List<vector> 
14907
(
(0.995759 0.0128054 2.98358e-21)
(0.995838 0.013258 -6.62351e-21)
(0.995417 0.0130361 -1.5256e-21)
(0.998202 0.00479695 -9.07612e-22)
(0.998031 0.00506688 -1.96852e-21)
(0.998216 0.00516663 7.24963e-21)
(1.03979 0.018968 -1.18025e-23)
(1.04076 0.0194712 2.09952e-22)
(1.04064 0.0181971 -1.31264e-22)
(1.01257 8.03168e-05 -8.21427e-22)
(1.01248 0.000112997 -6.81454e-22)
(0.557409 0.0817624 4.89389e-20)
(0.493034 0.0712663 0)
(0.619477 0.0938505 3.66715e-20)
(0.998874 0.00468743 -5.76521e-21)
(0.998926 0.00431946 6.87132e-21)
(0.998757 0.00455158 3.93839e-21)
(0.365716 0.0220074 5.37617e-20)
(0.323838 0.0231811 2.42351e-20)
(0.438043 0.021204 3.81466e-20)
(1.1343 0.0478878 6.43517e-20)
(1.14804 0.0525521 7.24704e-21)
(1.01148 0.0360274 4.08039e-20)
(1.03326 0.0170244 9.52114e-22)
(1.03296 0.017869 -3.06176e-22)
(1.03217 0.0170875 -5.57428e-22)
(1.00159 0.00536001 -2.21459e-21)
(1.00156 0.00556657 0)
(1.00174 0.00569168 2.50885e-23)
(-0.20158 -0.00990846 -4.91144e-20)
(-0.213723 -0.00722269 -7.16587e-20)
(-0.205476 -0.00679669 -4.99234e-20)
(1.01621 0.000225493 0)
(1.01233 3.5032e-05 0)
(1.01733 0.00245577 1.35321e-22)
(1.01718 0.00267542 5.57647e-22)
(1.01758 0.00276027 -1.6982e-21)
(1.01778 0.0010723 -3.63852e-22)
(1.01755 0.00101354 -7.8771e-22)
(1.01764 0.00126572 2.9076e-22)
(0.954893 0.0546545 2.20983e-20)
(0.956897 0.052837 1.29614e-20)
(0.95405 0.0515682 7.01955e-21)
(0.999243 0.00648207 3.95208e-21)
(0.999219 0.00610331 1.66203e-21)
(0.999368 0.00622755 2.49942e-21)
(0.999323 0.00686051 -1.70438e-21)
(0.999139 0.00677974 1.80945e-21)
(1.00003 0.000306898 -8.94221e-22)
(1.00003 0.00031656 -4.77044e-22)
(1.00004 0.000418734 1.21602e-22)
(0.995672 0.0122922 3.27184e-21)
(0.99611 0.0125502 9.08678e-21)
(0.655866 0.267949 -1.25448e-20)
(0.678755 0.28075 -4.06834e-20)
(0.681303 0.259811 -2.91653e-20)
(1.00438 0.00624334 0)
(1.00437 0.00652847 0)
(1.00466 0.00649249 5.5083e-21)
(1.26074 0.0187968 5.20795e-21)
(1.24794 0.0167497 1.00967e-21)
(1.25381 0.0224827 2.17581e-20)
(1.01621 0.000535009 -2.87271e-22)
(1.01613 0.000559657 6.1579e-23)
(1.01653 0.000759384 8.35059e-22)
(1.01548 0.00508775 4.95858e-24)
(1.01587 0.00518803 -8.3654e-23)
(1.01574 0.00481553 -2.79431e-22)
(0.998359 0.0045693 2.54174e-21)
(0.998195 0.00447236 -5.36709e-21)
(1.10082 0.0406865 3.33778e-21)
(1.10347 0.0389593 1.31101e-20)
(1.10017 0.0375368 1.03137e-20)
(0.998615 0.00083549 -5.87219e-21)
(0.998752 0.000603509 1.95579e-21)
(0.998786 0.00080093 -9.55138e-21)
(0.991615 0.0582083 5.53054e-21)
(0.989834 0.0570613 -7.0265e-21)
(0.991908 0.0560537 5.17989e-21)
(1.02264 0.0251369 -4.86084e-22)
(1.02189 0.0256453 -4.22419e-22)
(1.02189 0.0245664 4.65261e-22)
(0.999102 0.0506027 -7.20821e-21)
(1.00067 0.0515446 0)
(0.999053 0.0527751 -2.38313e-22)
(0.996366 0.00379411 5.00812e-21)
(0.996075 0.0038547 -6.92838e-21)
(0.996318 0.00346111 -7.15452e-21)
(-0.134674 0.014127 5.31222e-20)
(-0.146601 0.0145923 -2.71441e-20)
(-0.146773 0.0138378 4.33024e-20)
(1.00163 0.00514263 -5.0446e-21)
(1.00146 0.00502004 -2.45518e-21)
(1.01887 0.0477138 4.90607e-21)
(1.01889 0.0495292 8.0757e-22)
(1.01715 0.0480039 -2.50177e-21)
(1.06786 0.0712981 0)
(1.06912 0.0687159 6.44826e-21)
(1.06617 0.0688082 3.94674e-21)
(1.01509 0.00500657 7.41478e-22)
(1.01522 0.00538332 -2.14352e-21)
(1.09563 0.0431992 8.16636e-21)
(1.09849 0.0419545 -1.0982e-20)
(1.09513 0.0402497 8.22572e-21)
(1.12061 0.0166945 -2.53881e-21)
(1.11749 0.0158808 1.24987e-20)
(1.11839 0.0189745 2.3173e-20)
(1.01466 0.00484862 3.81474e-21)
(1.01497 0.0045745 3.88249e-22)
(0.995541 0.123206 0)
(0.997656 0.12621 -2.03305e-21)
(0.992511 0.125038 -1.04051e-20)
(0.635692 0.270574 -4.74495e-20)
(0.642085 0.249775 0)
(0.964141 0.0516937 -3.7307e-22)
(0.962693 0.0537789 0)
(0.965378 0.0540129 1.04046e-20)
(0.397437 0.0205869 -2.5699e-20)
(0.292221 0.0288988 2.47189e-20)
(0.99015 0.0329724 0)
(0.990915 0.0341156 -9.02585e-21)
(0.991405 0.0325497 0)
(0.639168 0.0959756 1.78319e-20)
(0.478967 0.0727956 7.91454e-20)
(1.17 0.0253318 0)
(1.1688 0.0211609 -1.36816e-20)
(1.16507 0.0247525 -1.6074e-20)
(0.973992 0.0358677 1.44961e-20)
(0.974159 0.0372964 1.11519e-20)
(0.97268 0.0364025 8.24457e-21)
(1.20526 -0.0161612 2.22035e-20)
(1.2001 -0.0160647 3.94325e-21)
(1.20282 -0.0211761 1.93756e-20)
(1.08466 0.0517012 -8.44626e-21)
(1.08619 0.0542407 7.74221e-22)
(1.08749 0.0513227 9.88673e-21)
(1.14425 -0.0338256 -6.02022e-21)
(1.14121 -0.0372797 -6.66471e-21)
(1.1391 -0.0323225 2.69272e-21)
(1.00036 0.000435123 -2.1276e-21)
(1.00041 0.000521634 3.8819e-21)
(1.00045 0.000471229 1.67338e-21)
(1.04761 -0.00701579 0)
(1.04891 -0.00726613 1.07309e-21)
(0.956458 0.0410391 -5.51262e-21)
(0.954055 0.0415075 8.49293e-21)
(0.954997 0.0390172 -9.53691e-21)
(1.05857 -0.00672056 -3.76606e-21)
(1.05861 -0.00507851 -7.65542e-21)
(1.06028 -0.00648194 -2.34103e-21)
(1.09666 0.0461484 -7.25585e-21)
(1.0933 0.0446183 7.62111e-21)
(0.998782 0.00505496 -2.73537e-21)
(0.998935 0.00482448 -8.35611e-21)
(1.0233 0.0248452 3.26906e-23)
(1.02343 0.0259242 6.41594e-22)
(0.973764 0.0341195 -7.91127e-21)
(0.975468 0.0351614 -6.00322e-21)
(1.02045 0.047407 2.96169e-21)
(1.01887 0.04606 -2.21182e-21)
(0.958553 0.040165 1.34119e-20)
(0.957948 0.0423754 5.45589e-21)
(0.997253 0.00423157 3.42896e-22)
(0.997386 0.00384548 -4.82955e-21)
(0.997109 0.00401625 5.51143e-22)
(0.99646 0.00648918 1.19662e-21)
(0.996683 0.00663034 7.62173e-21)
(0.996718 0.00618176 1.0463e-20)
(1.0664 0.0737365 0)
(1.06966 0.0739636 0)
(1.03887 0.0183316 -4.68124e-22)
(1.03878 0.0195441 2.55655e-21)
(0.964172 0.0148429 -1.39652e-21)
(0.962771 0.0153845 -1.8513e-20)
(0.963983 0.0165023 -7.7318e-21)
(1.02184 0.0470552 3.67347e-21)
(1.02226 0.0456135 -3.57124e-22)
(1.02379 0.0468386 7.86057e-22)
(0.97206 0.0110167 0)
(0.971431 0.0120729 -1.09311e-20)
(0.972871 0.0118058 0)
(0.715171 0.197596 3.28728e-20)
(0.719835 0.178584 -4.89592e-20)
(0.734043 0.191239 2.11888e-20)
(-0.120313 -0.00156656 -1.38581e-19)
(-0.101194 -0.0022425 -2.72124e-20)
(-0.107444 -0.00993491 2.11849e-20)
(0.999857 0.0280491 -2.37676e-21)
(0.999745 0.0289842 6.32853e-21)
(0.998938 0.0283653 2.55349e-21)
(1.05887 -0.0086304 7.67682e-21)
(1.05699 -0.00733852 4.69433e-21)
(0.626727 0.287047 3.5131e-21)
(0.988879 0.0335492 -5.2615e-21)
(0.989334 0.032015 0)
(0.85743 0.0671783 -2.53692e-20)
(0.861062 0.0609037 7.12761e-20)
(0.85247 0.0601389 2.69104e-20)
(0.972721 0.00769368 6.61718e-21)
(0.973326 0.00868367 -5.04381e-21)
(0.97393 0.00769989 -1.19375e-20)
(1.01631 0.00526238 -2.34881e-21)
(1.01601 0.00557996 -7.92325e-22)
(0.370295 0.0429251 -3.47845e-20)
(0.449316 0.0580787 -7.80558e-20)
(0.99563 0.0118745 8.22268e-23)
(0.995576 0.0114122 -2.15251e-22)
(0.995955 0.0115865 6.17051e-21)
(0.89353 0.0892315 4.34676e-20)
(0.892659 0.0829122 0)
(0.898333 0.0866136 1.81625e-20)
(0.350576 0.02499 -4.62484e-20)
(0.28732 0.0263171 -2.1578e-21)
(0.252076 0.0285698 -3.439e-20)
(1.08169 0.0520876 -3.70485e-21)
(1.08313 0.0493136 -4.13776e-21)
(0.747433 0.120393 7.24105e-20)
(0.818751 0.131133 -7.8172e-20)
(1.00535 0.0385099 3.09564e-21)
(1.00597 0.0376874 4.54514e-21)
(1.00644 0.0389619 -5.21054e-21)
(0.967122 0.0478133 -2.06989e-22)
(0.966354 0.0456973 -1.04817e-20)
(0.968685 0.0459816 -1.1996e-20)
(0.972662 0.00983268 1.2252e-20)
(0.97122 0.0100786 0)
(1.00004 0.00130214 -3.02555e-22)
(1.00002 0.00133119 0)
(1.00001 0.00112076 -5.39411e-21)
(0.996449 0.0147891 -1.04856e-20)
(0.996177 0.014467 2.60149e-22)
(0.995992 0.0150283 -1.01009e-20)
(1.13175 0.279635 -2.84394e-20)
(1.12249 0.276234 0)
(1.13078 0.270847 -1.077e-20)
(0.984689 0.0208912 1.01402e-20)
(0.985013 0.0217409 1.89219e-20)
(0.984039 0.0214847 4.43464e-22)
(0.996736 0.0153192 0)
(0.996932 0.0147017 2.60695e-21)
(1.03417 0.0387163 -6.90448e-23)
(1.03522 0.0377882 -3.70995e-22)
(1.0335 0.0374461 -6.62942e-23)
(0.845621 0.145609 -8.0194e-21)
(0.672115 0.105014 -4.0471e-21)
(0.993113 0.0594479 4.70105e-22)
(0.991028 0.0605816 -6.31824e-22)
(1.0473 -0.00562266 1.58164e-21)
(0.997486 0.0498065 -6.9721e-21)
(0.999109 0.048747 -3.02082e-21)
(1.01576 0.0316176 -2.26641e-22)
(1.01484 0.0318148 -1.646e-21)
(1.01576 0.0325633 3.07849e-21)
(0.999059 0.0114159 4.85214e-21)
(0.998848 0.0111449 -5.35685e-21)
(0.999171 0.0109818 -7.76196e-22)
(1.0093 0.0309005 9.73427e-22)
(1.00987 0.0301454 3.05243e-21)
(1.0089 0.0300284 0)
(0.993452 0.118485 -1.50685e-20)
(0.999013 0.119983 7.56064e-21)
(1.02775 0.0234602 0)
(1.02863 0.0240308 0)
(1.02829 0.0229484 0)
(0.999999 9.44236e-05 3.37903e-21)
(1 9.49669e-05 0)
(1.14306 0.216154 1.79364e-21)
(1.13835 0.221367 5.21117e-21)
(1.14664 0.221824 2.64862e-20)
(1.00839 0.0361924 -4.93851e-20)
(0.923159 0.0293143 0)
(1.05549 0.0361352 -2.66993e-20)
(1.00002 0.00150622 2.89758e-21)
(1.00004 0.00131907 -5.0214e-21)
(0.985262 0.0531905 -5.94525e-21)
(0.983912 0.0517065 -1.31611e-20)
(0.985927 0.0511072 1.48903e-21)
(1.02294 0.209644 -3.11171e-22)
(1.02997 0.211151 -2.44953e-21)
(1.02463 0.217762 -8.10032e-22)
(0.993226 0.0117606 9.38287e-21)
(0.992928 0.0121129 -9.58996e-22)
(0.993364 0.0122883 5.02888e-21)
(0.999299 0.0116973 -5.99551e-21)
(0.998962 0.0118686 0)
(1.0041 0.0059573 4.13324e-21)
(1.00441 0.0059187 5.39565e-21)
(1.02474 0.0012718 0)
(1.02423 0.00131717 0)
(1.01119 0.00140132 -4.04945e-21)
(1.01089 0.00123417 2.70155e-21)
(1.01087 0.00160438 -1.85529e-21)
(1.0038 0.0226907 2.85174e-21)
(1.00438 0.0232312 -2.20131e-22)
(1.00368 0.0235929 2.32932e-21)
(1.03484 0.0895263 3.66548e-24)
(1.03226 0.0904485 -2.6874e-23)
(1.03231 0.0875502 -4.84515e-22)
(-0.129441 0.00647509 6.89852e-20)
(-0.136094 -0.00471078 -5.51736e-20)
(0.965646 0.0145663 4.60751e-21)
(0.964504 0.0133525 1.42491e-20)
(1.00141 0.0208714 2.32477e-21)
(1.00138 0.0215479 3.16464e-21)
(1.00074 0.0211905 -2.17817e-21)
(0.990545 0.00510332 0)
(0.991034 0.004983 4.13699e-21)
(0.990807 0.00549895 0)
(0.995292 0.0121241 2.54719e-22)
(1.01693 0.0314255 4.701e-23)
(1.01589 0.0306103 -1.82428e-21)
(-0.0164045 0.0369133 -1.10236e-20)
(-0.0556306 0.030427 1.16965e-19)
(-0.0136761 0.0377307 9.19038e-20)
(0.984378 0.0200127 2.00808e-21)
(0.985444 0.0202294 1.72767e-21)
(1.07016 0.0422248 -2.35417e-20)
(1.18894 0.0527409 2.38579e-20)
(0.993463 0.0367148 -4.70748e-21)
(0.994438 0.0375817 1.58549e-20)
(0.994645 0.0361688 5.98108e-21)
(0.993477 0.00268585 -2.36706e-22)
(0.993565 0.00305704 -8.0202e-21)
(0.993867 0.00272587 -2.76897e-23)
(1.14786 0.209845 -8.12318e-21)
(1.13965 0.209503 1.98352e-21)
(1.00405 0.0382562 2.07034e-21)
(1.00476 0.0400005 -6.3796e-21)
(1.13932 0.0544804 -1.44265e-20)
(1.22915 0.0653021 -8.01171e-20)
(1.08161 0.0696917 4.23803e-21)
(1.08316 0.0677145 -2.68641e-21)
(1.08441 0.0708512 -1.42467e-20)
(1.01981 0.203605 -7.86783e-22)
(1.01461 0.20945 0)
(0.997032 0.0157232 -6.88293e-21)
(0.997291 0.0161806 -7.00305e-21)
(0.997512 0.0156 -1.84918e-21)
(0.887457 0.091321 3.91962e-20)
(0.89402 0.0952902 -1.50132e-20)
(0.978327 0.019355 -1.56044e-20)
(0.978247 0.0205798 0)
(0.977082 0.0195379 -6.27526e-21)
(-0.143682 0.014158 -2.43521e-20)
(-0.166319 0.0106125 1.80739e-20)
(-0.168228 0.0120566 1.69165e-20)
(1.23712 0.0888611 -3.9197e-20)
(1.23528 0.084382 -1.62389e-21)
(1.24217 0.0852684 -2.21684e-20)
(1.02711 0.0242185 6.08356e-22)
(1.02675 0.0230469 -8.60022e-22)
(1.08655 0.194712 1.94991e-21)
(1.08465 0.187989 8.89895e-21)
(1.09173 0.190115 7.9058e-21)
(-0.103523 0.0277778 0)
(-0.132376 0.0256494 6.3748e-20)
(-0.102318 0.0287066 -2.51893e-20)
(1.03498 0.0402002 0)
(1.03315 0.0396402 9.18654e-23)
(1.2103 -0.0160721 -2.70391e-20)
(1.20731 -0.0111586 0)
(1.14004 0.283034 -8.76809e-21)
(1.13173 0.289375 7.50536e-21)
(0.979789 0.0526764 1.46049e-20)
(0.9785 0.0510788 8.00062e-23)
(0.977502 0.0532426 -1.31106e-20)
(0.99021 0.00479729 0)
(0.990069 0.00531663 3.70136e-23)
(0.979184 0.0456965 1.195e-21)
(0.980224 0.0473369 9.54367e-21)
(0.981171 0.0454148 -7.27158e-21)
(1.18799 0.190775 -3.48844e-20)
(1.18442 0.196792 3.64794e-20)
(1.18176 0.18977 2.00162e-20)
(1.04311 -0.00109001 -2.09781e-21)
(1.04239 -0.00195734 2.23851e-21)
(1.04193 -0.000859967 2.41707e-21)
(1.00324 0.0224673 -3.58808e-21)
(1.00394 0.0221147 7.15114e-21)
(1.11472 0.164113 1.58607e-20)
(1.10989 0.161949 -1.93959e-20)
(1.11049 0.168071 -6.8776e-21)
(1.02955 0.00160852 1.47577e-21)
(1.02922 0.00201204 9.37053e-24)
(1.02994 0.00210223 8.42752e-22)
(1.00972 0.0318039 7.59732e-21)
(1.00868 0.0316641 9.29474e-22)
(1.00714 0.0929587 -1.66532e-22)
(1.00372 0.0926605 5.56909e-22)
(1.00611 0.0897476 5.01283e-22)
(1.03521 0.0166512 -1.43904e-21)
(1.03523 0.0157142 -7.64646e-24)
(1.03615 0.0163519 7.86287e-22)
(1.00003 0.000125359 3.71339e-24)
(1.00004 0.000171431 3.38585e-21)
(1.00002 0.000121464 -2.09641e-21)
(0.0358624 0.0462934 -2.24559e-20)
(0.0667915 0.0453143 -2.57265e-20)
(0.0096523 0.0460004 -2.31675e-20)
(-0.0458762 0.0308428 -6.52691e-20)
(-0.0843926 0.0292532 1.54712e-20)
(-0.0554324 0.030502 -1.05304e-19)
(0.99942 0.000584626 0)
(0.999496 0.000435163 0)
(0.999511 0.000545585 0)
(1.01712 0.00224202 2.83649e-21)
(1.01747 0.00226159 3.33319e-21)
(0.949709 0.00855615 0)
(0.951849 0.00929217 9.54087e-21)
(0.9513 0.007003 0)
(0.996248 0.00636137 -4.07691e-21)
(0.996238 0.00681219 -3.09751e-21)
(1.08103 0.198659 -6.72345e-21)
(1.0881 0.200534 -1.42843e-20)
(0.0589079 0.0776923 4.29885e-20)
(-0.112023 0.022105 -1.61741e-20)
(-0.104885 0.042699 4.84049e-20)
(-0.196141 -0.0131529 4.69251e-20)
(-0.189863 -0.0087978 -4.40548e-20)
(-0.189957 -0.0161479 6.96091e-20)
(1.21201 0.0987658 5.90775e-20)
(1.21089 0.0941027 2.62522e-20)
(1.2159 0.09523 -1.03753e-20)
(0.995129 0.00489905 -5.11821e-22)
(0.995337 0.00505522 -1.09252e-20)
(0.995001 0.00523684 1.21679e-21)
(1.03432 0.0169091 -1.3486e-21)
(1.03517 0.0175335 -2.47552e-21)
(1.00964 0.040939 -6.29633e-22)
(1.00897 0.0420222 1.2431e-22)
(1.01027 0.0421836 -5.12084e-23)
(0.978483 0.0180649 -2.50718e-21)
(0.979493 0.0191525 -6.45233e-21)
(0.930684 0.245427 9.7359e-21)
(0.927053 0.256504 1.31906e-20)
(0.939979 0.252366 4.12814e-21)
(0.297884 0.177308 -1.98578e-20)
(0.358252 0.235746 -3.82084e-20)
(-0.147197 0.0174793 -6.21133e-21)
(-0.150072 0.0217472 -6.8158e-21)
(-0.037341 0.0307225 -1.0243e-19)
(0.0017762 0.0357703 6.87224e-20)
(1.05671 -0.000849174 -9.58979e-21)
(1.05499 -0.000847886 3.97577e-21)
(1.05602 0.000666599 -1.09957e-20)
(1.0051 0.0131564 -7.52185e-21)
(1.00536 0.0136225 2.42313e-21)
(1.0056 0.0132576 0)
(1.01402 0.1858 -1.12754e-19)
(0.902364 0.163241 -2.88306e-20)
(0.686741 0.338435 1.33952e-20)
(0.681298 0.307366 6.76468e-20)
(0.65599 0.324753 -1.16028e-20)
(0.893996 0.157117 0)
(0.901883 0.158086 9.44185e-21)
(0.898595 0.149951 -2.76955e-20)
(0.299083 0.0365998 -2.20627e-22)
(0.358715 0.0301031 -2.23513e-21)
(0.253457 0.0394696 -2.28249e-21)
(-0.143735 0.0848172 0)
(-0.150729 0.0640705 0)
(-0.134491 0.0688145 7.35146e-20)
(0.992557 0.0358811 -9.02422e-22)
(0.99175 0.034966 1.35145e-21)
(0.992912 0.0344963 2.54558e-21)
(0.716691 0.21868 2.58472e-20)
(0.696738 0.205232 -2.96352e-20)
(1.0556 0.11986 0)
(1.05545 0.115489 0)
(1.0515 0.118211 -1.34938e-23)
(0.947465 0.00770944 0)
(0.947989 0.0101877 0)
(-0.117466 0.0093785 5.15087e-20)
(-0.11263 0.0116595 3.38776e-20)
(0.970714 0.0132966 -1.72134e-20)
(0.971768 0.0142003 8.52923e-21)
(0.969996 0.0145047 4.96769e-21)
(1.07849 0.06928 8.74061e-21)
(1.07995 0.0723928 -7.50337e-21)
(0.965558 0.0496827 1.69408e-21)
(0.963124 0.0494571 2.11684e-20)
(-0.0239345 0.035414 -8.84479e-20)
(0.0439416 0.0465893 -9.78568e-20)
(1.23797 0.118179 -2.1004e-20)
(1.23827 0.113339 0)
(1.23343 0.115853 0)
(1.02091 0.0416147 -1.19916e-21)
(1.02026 0.0408039 -2.34589e-21)
(1.01959 0.0418028 -1.36062e-21)
(-0.170457 -0.0184734 -4.89515e-20)
(-0.17438 -0.0222215 -2.3042e-20)
(-0.170524 -0.0217091 1.76616e-20)
(1.05794 0.0533878 -2.43824e-21)
(1.05648 0.0515395 0)
(1.05896 0.0513838 -4.19638e-21)
(0.751021 0.745134 4.18087e-21)
(0.75087 0.683396 4.18932e-21)
(0.69739 0.71926 -2.94899e-21)
(0.978127 0.0443015 1.1951e-20)
(0.976981 0.0463029 1.37565e-21)
(0.000305393 0.0498774 1.45686e-21)
(0.0595862 0.0432515 -1.23902e-20)
(1.17724 0.220445 2.22363e-20)
(1.14097 0.203799 3.28626e-20)
(1.20587 0.0607833 -2.33256e-20)
(1.20134 0.0610012 4.87602e-20)
(1.20483 0.0651582 8.46586e-20)
(1.24567 0.190016 0)
(1.16147 0.1671 5.10504e-21)
(1.18403 0.177594 -2.5586e-20)
(1.07988 0.0419261 1.33708e-21)
(1.07787 0.0403494 -6.12051e-21)
(1.08052 0.0392489 -1.36185e-20)
(0.994025 0.0106902 -4.05432e-21)
(0.993981 0.0111793 2.66069e-21)
(0.994403 0.0109013 8.06331e-21)
(1.01695 0.00196326 -1.42187e-21)
(1.01674 0.00216895 -1.49756e-22)
(1.02558 0.0673334 -3.51535e-21)
(1.0277 0.0672903 1.48209e-21)
(1.02651 0.0699362 2.31677e-22)
(0.872203 0.136616 -1.23234e-20)
(0.880676 0.139539 -1.30759e-20)
(0.879615 0.130975 2.96482e-21)
(1.02195 0.0418827 -1.71228e-21)
(1.02107 0.0430198 3.78949e-23)
(1.00517 0.0232682 -5.64788e-21)
(1.00598 0.0235226 -5.83601e-21)
(1.00555 0.0226086 -2.6362e-21)
(0.710222 0.339994 -7.53866e-20)
(0.692854 0.361715 -5.15207e-20)
(0.969645 0.0125213 -1.15895e-20)
(1.01931 0.0139074 0)
(1.01995 0.0139304 0)
(1.01976 0.0145947 0)
(0.808217 0.838049 0)
(0.830266 0.733264 0)
(0.999145 0.00114193 -8.38478e-21)
(0.999129 0.000979975 5.91924e-21)
(0.999243 0.000949199 3.81194e-21)
(1.00002 0.000351065 0)
(1.00002 0.000361086 4.23036e-21)
(1.00003 0.000478247 -9.23783e-21)
(0.99991 0.000417783 1.82223e-22)
(0.999891 0.000396829 0)
(0.999876 0.000527652 -3.67388e-21)
(1.29007 0.200925 -1.56286e-20)
(1.28468 0.194226 2.58407e-20)
(1.01742 0.000425846 -6.08875e-22)
(1.01764 0.000346249 5.01795e-23)
(1.01613 0.000197394 5.669e-22)
(0.921976 0.238149 3.96855e-21)
(0.933236 0.235179 3.63454e-22)
(1.01349 0.4186 6.51641e-22)
(0.99571 0.423782 1.48392e-20)
(1.01169 0.43943 2.87361e-20)
(0.953983 0.00995065 5.68174e-22)
(0.952557 0.0115114 2.32837e-22)
(1.24301 0.119521 2.38162e-20)
(1.23799 0.121772 -3.77712e-20)
(0.976941 0.00675534 -4.82827e-21)
(0.976366 0.0076537 -1.78135e-23)
(0.977474 0.00771891 -6.86896e-21)
(1.00009 0.00777054 3.66129e-21)
(0.999916 0.00786949 -8.46519e-21)
(1.0001 0.00818347 3.58445e-21)
(1.13478 0.154042 -2.809e-20)
(1.13783 0.149652 4.99226e-21)
(1.1408 0.155674 -2.19893e-20)
(1.01072 0.0155956 -4.46355e-21)
(1.01039 0.0151741 -2.86924e-21)
(1.01017 0.0157167 -2.60609e-21)
(1.03758 0.0888026 -5.0352e-22)
(1.03734 0.0920759 -3.87159e-22)
(0.948525 0.0175143 1.7928e-20)
(0.949758 0.0154755 8.49721e-21)
(0.950921 0.0174914 -5.09539e-21)
(1.10307 0.396622 6.56074e-21)
(1.08843 0.389976 -3.70093e-20)
(1.10022 0.381007 6.98729e-21)
(1.12364 0.0175673 1.86571e-22)
(1.12271 0.0145045 -1.8026e-20)
(0.939002 0.0663157 -1.20204e-20)
(0.939036 0.0694989 -3.25281e-20)
(0.935916 0.0673252 -8.11319e-21)
(1.10561 0.0372627 -6.28522e-21)
(1.10799 0.0353099 7.26013e-21)
(1.10506 0.0341729 -1.11202e-20)
(1.26684 0.0809841 0)
(1.24989 0.0823196 0)
(1.28056 0.0857642 1.14606e-20)
(1.00258 0.0221864 -9.2135e-21)
(1.00197 0.021856 -4.55862e-21)
(1.00267 0.0215295 1.03468e-21)
(1.21907 0.117954 -2.58253e-20)
(1.22255 0.121332 2.60278e-20)
(1.21703 0.122434 1.14152e-20)
(1.05912 -0.0102305 8.50137e-21)
(1.06084 -0.0098304 3.12545e-21)
(1.03338 0.0161608 1.71681e-21)
(0.791212 0.357081 0)
(0.810554 0.351979 0)
(0.807402 0.372535 0)
(1.0049 0.0127395 -4.27468e-21)
(1.00469 0.0130737 -3.00986e-21)
(1.05937 -0.0119974 -8.55619e-22)
(1.05755 -0.0108407 5.35814e-21)
(1.04177 0.0193784 -2.58424e-21)
(1.04102 0.0202311 0)
(1.00985 0.0938262 -5.21139e-22)
(1.0076 0.0968184 -8.41828e-21)
(1.01756 0.0156023 7.50924e-23)
(1.01761 0.0162352 2.54798e-21)
(1.01818 0.0159559 1.81202e-21)
(1.01804 0.000709289 0)
(1.01819 0.000604446 0)
(1.01824 0.000852709 0)
(1.06159 0.0301452 -4.9071e-21)
(1.06342 0.0297623 -1.15948e-21)
(1.06277 0.0317423 5.91583e-21)
(1.07909 -0.0203444 6.88807e-21)
(1.07884 -0.017987 1.74353e-21)
(1.0812 -0.0194319 -9.56909e-22)
(0.994912 0.00468426 3.48337e-21)
(0.995291 0.00450391 -5.58754e-21)
(0.99225 0.0372646 -1.00554e-20)
(1.01023 0.0398223 -2.55805e-22)
(1.00899 0.039665 4.43768e-21)
(1.02927 0.0915679 2.95964e-21)
(1.03215 0.0945936 -3.8161e-22)
(1.00139 0.0202491 0)
(1.00201 0.0205715 6.77083e-21)
(0.996626 0.0037018 1.0674e-20)
(0.996425 0.00407109 5.14031e-21)
(1.01456 0.00119451 -5.10512e-22)
(1.01429 0.000889008 -4.93389e-25)
(1.0142 0.00124125 -1.08335e-21)
(0.984575 0.0552829 0)
(0.986709 0.0545456 -3.70725e-22)
(1.05781 -0.00385035 0)
(1.05713 -0.00228042 -8.58289e-21)
(1.05612 -0.00396235 -5.78809e-22)
(1.00001 0.000197049 3.08982e-21)
(1.00003 0.00029453 1.56171e-21)
(1.01676 0.00147618 1.35143e-21)
(1.01669 0.0012364 0)
(1.01696 0.00131818 9.59931e-22)
(0.999926 0.0270596 0)
(1.00076 0.027617 4.069e-21)
(0.987024 0.0788371 4.55097e-21)
(0.984713 0.0803616 -1.70998e-20)
(0.987664 0.0817076 1.3779e-20)
(1.10752 0.409565 1.54584e-20)
(1.11858 0.397249 2.93265e-20)
(1.20863 0.101437 3.07278e-21)
(1.21325 0.102683 -2.5693e-20)
(-0.16306 -0.0140501 -2.74771e-20)
(-0.167436 -0.0142553 7.08428e-21)
(0.890174 0.164767 0)
(0.886423 0.156195 0)
(0.909765 0.158904 1.94144e-20)
(0.917916 0.160332 -1.64748e-20)
(0.9135 0.151794 -2.87026e-21)
(0.952518 0.0563182 0)
(0.955604 0.0573017 -7.18119e-22)
(1.17439 0.0267468 -1.4254e-20)
(1.1792 0.0248535 9.33999e-21)
(1.17884 0.0300646 4.13098e-21)
(0.486158 0.018036 0)
(0.498091 0.0179435 0)
(0.396574 0.0213187 1.51817e-20)
(1.05958 0.0306476 3.76735e-21)
(1.06011 0.0287366 -1.25632e-21)
(0.993616 0.011452 -8.2807e-22)
(0.993172 0.0113041 7.77772e-21)
(1.01793 0.00090048 3.95004e-22)
(1.01782 0.000629928 3.82351e-22)
(1.02326 0.068015 -3.40859e-21)
(1.02443 0.0656 -7.24072e-22)
(1.01703 0.0152889 -1.06302e-21)
(1.01755 0.015023 -2.3361e-21)
(1.28102 0.0208723 3.88213e-21)
(1.27165 0.0146723 -4.53375e-22)
(1.06683 0.00708976 0)
(1.06535 0.0075977 2.66212e-22)
(1.06694 0.00876222 0)
(0.996518 0.0158866 -1.19507e-21)
(0.999941 0.000323056 -1.0008e-20)
(0.999939 0.000437681 -5.29299e-21)
(0.865208 0.1315 0)
(0.864941 0.140362 1.38095e-20)
(1.0596 -0.00344912 -5.06479e-21)
(1.02965 0.414031 1.08827e-20)
(1.01774 0.403398 -1.40958e-20)
(0.906842 0.166991 8.82484e-21)
(1.15688 0.250764 0)
(1.16035 0.258026 0)
(1.16651 0.250563 -1.85336e-20)
(1.05708 0.0549231 -4.96136e-21)
(1.05953 0.0548994 8.31008e-22)
(1.07709 -0.0215818 5.33361e-21)
(1.07951 -0.0231839 0)
(1.0165 0.0150286 -7.055e-22)
(1.01643 0.0144714 -2.04579e-22)
(1.01594 0.0147312 -2.10753e-21)
(1.08167 0.016571 0)
(1.08323 0.016221 9.52605e-23)
(1.08284 0.0180681 -7.56524e-22)
(1.04422 -0.00125578 2.30691e-21)
(1.04357 -0.000203642 -8.5011e-21)
(1.06003 0.120894 0)
(1.05605 0.123881 4.38105e-21)
(0.989204 0.0225442 5.04849e-21)
(0.988544 0.022192 1.00232e-21)
(0.989331 0.0217605 -7.47322e-21)
(1.1014 0.0436084 -7.98865e-21)
(-0.117723 0.0171899 -4.43215e-20)
(-0.113722 0.0153207 -4.80971e-20)
(1.01904 0.0133368 -1.85572e-21)
(1.0188 0.013922 1.12147e-21)
(1.03548 0.0217274 -7.71021e-22)
(1.03595 0.0207804 2.32178e-22)
(1.03685 0.0217703 -1.02642e-21)
(0.454244 0.0168443 0)
(0.586899 0.014226 0)
(1.16974 0.0300497 1.22414e-20)
(1.02095 0.0395607 -5.93438e-22)
(1.01947 0.0395808 1.1412e-22)
(0.996878 0.00358426 1.94132e-21)
(0.996992 0.00381241 -4.25045e-21)
(0.99716 0.00344777 -9.67113e-21)
(0.989379 0.0769657 7.19578e-21)
(0.986637 0.0758761 7.83107e-21)
(0.25082 0.04468 -6.31789e-21)
(0.361314 0.0302377 -3.74545e-20)
(1.15194 0.0935538 7.3081e-21)
(1.14708 0.0952951 -2.21871e-21)
(1.14858 0.0903472 8.25118e-21)
(1.19077 0.186828 -8.24956e-20)
(1.19351 0.193235 3.51389e-20)
(1.00034 0.000344606 -3.55791e-21)
(1.00029 0.00038072 -8.53874e-21)
(1.01683 0.00171268 -4.98243e-22)
(1.01716 0.00179576 -2.04838e-21)
(1.00248 0.022969 1.73783e-21)
(1.03369 0.018545 1.03765e-21)
(1.03253 0.0185582 -6.63743e-24)
(1.26358 0.07544 0)
(1.27555 0.077831 -4.75477e-20)
(0.993758 0.0186831 1.05989e-20)
(0.993936 0.0193482 -7.46068e-21)
(0.993228 0.0192148 1.57971e-20)
(0.99736 0.00442372 -8.02796e-21)
(0.997088 0.00459264 5.85155e-21)
(1.00495 0.0143913 -8.50468e-22)
(1.00526 0.0148455 0)
(1.00478 0.0147987 6.68386e-21)
(0.977558 0.0058391 0)
(0.976356 0.00563484 7.5812e-21)
(1.12222 0.00549009 -1.32595e-20)
(1.12379 0.00219151 6.71723e-21)
(1.12003 0.0031629 -4.42826e-21)
(0.963593 0.0629032 -4.73688e-21)
(0.96275 0.0653431 -1.61442e-20)
(0.960858 0.0627241 8.37094e-22)
(1.07166 0.249766 4.32635e-21)
(1.06395 0.245244 8.92115e-21)
(1.07272 0.241252 1.16616e-20)
(0.264862 0.00283061 7.65872e-21)
(0.378115 0.0183296 6.44238e-21)
(0.302472 0.0111665 1.47442e-20)
(0.96054 0.0389245 1.88131e-20)
(0.958867 0.0373943 6.44065e-21)
(0.835516 0.0652639 -3.04584e-20)
(0.717919 0.0548649 -5.26134e-21)
(0.764699 0.0571359 -2.50451e-20)
(1.00137 0.0195946 3.38792e-21)
(1.00137 0.0189642 3.08606e-21)
(1.00191 0.0192774 1.79413e-22)
(1.08032 0.0161018 -4.74848e-21)
(1.08004 0.0178421 0)
(0.998508 0.00110958 0)
(0.998448 0.000910182 -2.40099e-21)
(-0.219084 0.0153608 -4.94023e-20)
(-0.221911 0.015152 3.89616e-20)
(1.15122 0.204556 1.75063e-20)
(1.15505 0.199053 7.96489e-20)
(1.14795 0.198361 3.44145e-21)
(1.24553 0.247344 -2.18814e-20)
(1.27458 0.257428 1.7142e-20)
(1.27655 0.249469 -6.72736e-20)
(-0.120131 0.0901453 -6.23491e-20)
(1.01673 0.00538953 -5.98017e-22)
(1.01687 0.0057723 -1.31143e-21)
(1.01715 0.00549581 1.596e-21)
(1.06665 0.00543774 0)
(1.06826 0.00647338 -8.2287e-22)
(0.999505 0.0299706 1.38886e-20)
(1.00046 0.0296003 -1.92993e-21)
(0.971085 0.0728292 7.82931e-21)
(0.97413 0.0724114 2.05227e-20)
(0.971997 0.0698909 3.23507e-20)
(1.10632 0.0402776 -1.35187e-20)
(1.00001 0.000823496 0)
(1.00001 0.000677025 2.85478e-22)
(1 0.000676069 5.03465e-21)
(1.04084 0.130234 1.51503e-21)
(1.04475 0.128708 6.14306e-22)
(1.0432 0.134328 1.75357e-21)
(1.01149 0.00129136 -2.3759e-21)
(1.01142 0.00166927 -7.83654e-22)
(1.01846 0.00050717 -2.14477e-23)
(1.01859 0.000429912 -4.83544e-22)
(1.01832 0.00033755 -1.10549e-21)
(0.990476 0.0355184 -2.28669e-21)
(1.07067 0.256746 -1.17854e-20)
(1.07936 0.252983 1.54914e-20)
(0.999989 0.000236116 4.6172e-21)
(0.999992 0.000117519 -4.67833e-21)
(0.999992 0.000116098 1.63613e-22)
(1.05504 0.0493791 0)
(1.05396 0.051263 0)
(0.978779 0.0170758 2.02016e-20)
(0.979044 0.0160736 9.74118e-21)
(0.979856 0.0168976 9.80317e-21)
(0.964607 0.060639 -6.15134e-21)
(0.966347 0.0629313 -3.21542e-22)
(-0.135762 0.0271445 7.55167e-20)
(-0.131956 0.0418144 -7.65466e-20)
(-0.145297 0.0356242 -9.16222e-20)
(1.00082 0.0199095 4.63146e-22)
(0.99932 0.000613809 0)
(0.99933 0.000748512 -3.09871e-21)
(1.00259 0.0017882 3.26507e-21)
(1.0026 0.00203272 9.30127e-22)
(1.00286 0.00196981 3.0465e-21)
(1.03799 0.0177454 -1.71009e-22)
(1.0389 0.017216 -1.65818e-21)
(1.06004 0.16149 -7.72042e-21)
(1.06151 0.167428 -4.98072e-21)
(1.05484 0.164348 -2.3779e-21)
(1.20622 0.0565378 -7.27896e-20)
(1.20973 0.060222 -3.38078e-20)
(0.924436 0.159422 -2.66889e-20)
(0.922501 0.167171 -3.24479e-20)
(1.07296 0.0920654 2.30637e-20)
(1.18087 0.100986 -5.00188e-21)
(1.19685 0.109029 2.63643e-20)
(1.12141 0.00830783 8.53153e-21)
(1.12468 0.00729721 -1.32441e-20)
(1.07508 0.069107 -1.36415e-20)
(1.0766 0.0666266 -5.59573e-21)
(0.977589 0.0171969 9.89984e-21)
(1.018 0.00115748 -3.01538e-23)
(1.03929 0.0377608 4.1888e-22)
(1.0401 0.036745 1.90811e-21)
(1.03866 0.0364764 1.18612e-21)
(1.00001 0.000212816 0)
(1.00003 0.000328021 -2.5024e-22)
(1.28374 0.115332 0)
(1.2665 0.113925 1.98516e-20)
(1.28443 0.118361 6.50159e-21)
(0.989878 0.0228815 6.95917e-21)
(0.989103 0.0234942 8.08401e-21)
(1.02181 0.0487121 -1.53899e-22)
(1.20826 -0.0490214 -1.71518e-20)
(1.20231 -0.0475147 0)
(1.20399 -0.0544857 1.63477e-20)
(1.00485 0.0240226 -9.3721e-23)
(0.974389 0.0792371 5.73331e-21)
(0.976636 0.0773593 5.54624e-21)
(0.977325 0.0805717 -4.85728e-21)
(0.968156 0.0499039 -5.41064e-21)
(1.21347 -0.0526472 -3.5519e-20)
(1.21249 -0.0449622 2.26996e-20)
(1.04304 0.0101882 -2.09358e-21)
(1.04369 0.00953003 -1.59356e-21)
(1.04389 0.0106849 -4.79929e-23)
(0.938734 0.0626538 2.45722e-20)
(0.942203 0.0648035 9.87527e-21)
(1.02414 0.197749 -3.35747e-22)
(1.01612 0.196871 -2.6537e-21)
(1.03624 0.132047 6.36258e-22)
(1.03802 0.126739 -5.69598e-22)
(1.02963 0.0661875 2.04542e-21)
(1.03194 0.0651382 5.07285e-22)
(1.02945 0.0639418 0)
(0.993361 0.00967719 8.11375e-21)
(0.993264 0.0101632 4.56859e-21)
(0.99289 0.00986823 0)
(0.960947 0.0746736 -3.63015e-20)
(0.983742 0.0847529 -3.02073e-20)
(1.11881 0.161385 2.88693e-20)
(1.11854 0.167951 2.07448e-20)
(1.05185 0.01629 0)
(1.05337 0.0159713 3.1239e-21)
(1.05275 0.0171227 0)
(1.06495 0.158327 1.03262e-21)
(1.05875 0.156125 1.42987e-21)
(1.00114 0.00964705 -4.15891e-24)
(1.00094 0.00945755 1.00676e-21)
(1.00101 0.00987192 -3.86823e-21)
(1.00508 0.0124069 3.00542e-21)
(1.00467 0.0123242 3.49039e-21)
(1.00138 0.00986789 1.12305e-22)
(1.00127 0.00937603 -4.97069e-21)
(0.971408 0.0779214 0)
(0.97206 0.0813734 -2.01316e-21)
(1.26303 0.258579 4.29916e-20)
(1.24346 0.249505 -2.99204e-20)
(1.24077 0.257796 -2.81469e-20)
(1.07399 -0.00655996 4.75909e-21)
(1.07278 -0.0082285 1.82895e-21)
(1.07199 -0.00624721 6.06931e-21)
(1.00001 0.000535904 4.45761e-21)
(1.00002 0.000680949 4.45965e-21)
(1.00002 0.000680401 -5.05792e-21)
(0.96247 0.0381415 2.48309e-21)
(0.962146 0.0403619 8.21504e-21)
(1 0.000111812 0)
(1 0.000108145 0)
(0.999974 0.000343311 2.0977e-21)