/*--------------------------------*- C++ -*----------------------------------*\
| =========                 |                                                 |
| \\      /  F ield         | OpenFOAM: The Open Source CFD Toolbox           |
|  \\    /   O peration     | Version:  v2012                                 |
|   \\  /    A nd           | Website:  www.openfoam.com                      |
|    \\/     M anipulation  |                                                 |
\*---------------------------------------------------------------------------*/
FoamFile
{
    version     2.0;
    format      ascii;
    class       volVectorField;
    location    "150";
    object      cellDisplacement;
}
// * * * * * * * * * * * * * * * * * * * * * * * * * * * * * * * * * * * * * //

dimensions      [0 1 0 0 0 0 0];


internalField   nonuniform List<vector> 
9793
(
(0 0.000718846 0)
(0 -1.65267e-05 0)
(0 0.00145577 0)
(0 -1.63344e-05 0)
(0 0.000305559 0)
(0 2.48065e-05 0)
(0 1.15465e-05 0)
(0 -1.61177e-05 0)
(0 0.000591431 0)
(0 -1.65294e-05 0)
(0 0.000515091 0)
(0 0.000566611 0)
(0 0.00105791 0)
(0 4.26526e-05 0)
(0 0.000799888 0)
(0 0.000803089 0)
(0 0.000105714 0)
(0 0.00137524 0)
(0 -1.58613e-05 0)
(0 0.000736344 0)
(0 0.000978942 0)
(0 5.7766e-05 0)
(0 -1.62752e-05 0)
(0 -1.6097e-05 0)
(0 4.60949e-05 0)
(0 0.000229513 0)
(0 0.000877527 0)
(0 0.000101719 0)
(0 0.000727751 0)
(0 3.27856e-05 0)
(0 -1.65157e-05 0)
(0 3.85723e-06 0)
(0 0.00150478 0)
(0 0.00132865 0)
(0 5.64077e-05 0)
(0 0.000375373 0)
(0 0.000814058 0)
(0 0.000350935 0)
(0 -3.68924e-06 0)
(0 0.000203875 0)
(0 3.82165e-05 0)
(0 -6.43608e-06 0)
(0 -1.57338e-05 0)
(0 7.17638e-05 0)
(0 0.0017217 0)
(0 0.0016506 0)
(0 -1.64626e-05 0)
(0 9.91574e-05 0)
(0 0.0011581 0)
(0 0.00139299 0)
(0 0.000392679 0)
(0 6.53904e-05 0)
(0 0.000216632 0)
(0 0.000196032 0)
(0 8.84876e-05 0)
(0 -1.61731e-05 0)
(0 0.00102827 0)
(0 0.000150053 0)
(0 0.00113075 0)
(0 5.28554e-05 0)
(0 0.000255332 0)
(0 -5.41028e-06 0)
(0 0.0014589 0)
(0 0.000451357 0)
(0 0.000163467 0)
(0 0.000615272 0)
(0 -1.65294e-05 0)
(0 0.000401806 0)
(0 0.000843063 0)
(0 -8.64168e-06 0)
(0 0.0010931 0)
(0 -3.69398e-06 0)
(0 -1.62248e-05 0)
(0 0.000480191 0)
(0 7.51045e-06 0)
(0 0.000201496 0)
(0 2.99622e-05 0)
(0 -1.23969e-05 0)
(0 0.00157524 0)
(0 0.000188822 0)
(0 2.50825e-05 0)
(0 -1.56016e-05 0)
(0 0.000119734 0)
(0 0.000310692 0)
(0 0.000807904 0)
(0 5.52574e-07 0)
(0 0.000250871 0)
(0 0.000309771 0)
(0 -9.65827e-07 0)
(0 -4.37462e-06 0)
(0 -1.56351e-05 0)
(0 -1.044e-05 0)
(0 -1.06235e-05 0)
(0 9.06978e-05 0)
(0 -1.56222e-05 0)
(0 0.00126569 0)
(0 5.31732e-06 0)
(0 9.31724e-05 0)
(0 0.000300333 0)
(0 0.000231567 0)
(0 -2.36643e-06 0)
(0 0.000227041 0)
(0 0.00053099 0)
(0 0.00172941 0)
(0 3.48883e-05 0)
(0 -1.36204e-05 0)
(0 0.000505333 0)
(0 0.000831407 0)
(0 0.00159594 0)
(0 0.000116538 0)
(0 0.000204106 0)
(0 -1.60481e-05 0)
(0 -1.65063e-05 0)
(0 -1.6526e-05 0)
(0 0.00109174 0)
(0 0.00108937 0)
(0 0.00111881 0)
(0 0.00157776 0)
(0 -1.57851e-05 0)
(0 0.00173147 0)
(0 4.3362e-05 0)
(0 0.000283424 0)
(0 4.9454e-06 0)
(0 0.000234338 0)
(0 0.000779086 0)
(0 0.00172638 0)
(0 8.102e-05 0)
(0 -1.65086e-05 0)
(0 0.000255886 0)
(0 0.000270877 0)
(0 0.000614585 0)
(0 0.000988605 0)
(0 0.000728496 0)
(0 0.000460481 0)
(0 0.000387303 0)
(0 8.71535e-07 0)
(0 1.8879e-05 0)
(0 0.00107813 0)
(0 0.000150403 0)
(0 9.80733e-05 0)
(0 -1.52423e-05 0)
(0 0.000372695 0)
(0 0.000969783 0)
(0 0.000337659 0)
(0 -1.64661e-05 0)
(0 -1.28928e-05 0)
(0 0.00176164 0)
(0 2.03027e-06 0)
(0 0.000995208 0)
(0 0.00175962 0)
(0 0.00112336 0)
(0 -1.62212e-05 0)
(0 0.000319831 0)
(0 0.000890826 0)
(0 0.00144862 0)
(0 -1.14134e-05 0)
(0 9.89373e-05 0)
(0 0.00143553 0)
(0 1.71448e-06 0)
(0 0.00118443 0)
(0 0.000310183 0)
(0 0.000584959 0)
(0 0.000959632 0)
(0 -1.4566e-05 0)
(0 0.000863524 0)
(0 -1.11925e-05 0)
(0 0.000540271 0)
(0 0.000773601 0)
(0 0.000760279 0)
(0 0.000436376 0)
(0 0.000975566 0)
(0 -1.652e-05 0)
(0 -1.63019e-05 0)
(0 6.90043e-05 0)
(0 0.00106408 0)
(0 3.10234e-05 0)
(0 -5.59331e-06 0)
(0 -1.55965e-05 0)
(0 0.00153784 0)
(0 0.000432451 0)
(0 3.92453e-05 0)
(0 -1.64739e-05 0)
(0 0.000281282 0)
(0 0.00167887 0)
(0 0.00149832 0)
(0 0.000793493 0)
(0 8.37254e-06 0)
(0 -1.63113e-05 0)
(0 -1.61443e-05 0)
(0 0.00050114 0)
(0 0.00064951 0)
(0 -1.64981e-05 0)
(0 -1.45937e-05 0)
(0 0.000301071 0)
(0 0.00124511 0)
(0 0.000391568 0)
(0 -1.63149e-05 0)
(0 0.00059233 0)
(0 0.0013582 0)
(0 0.000608318 0)
(0 0.00102186 0)
(0 0.00106025 0)
(0 0.00040136 0)
(0 0.000595142 0)
(0 -1.53921e-05 0)
(0 0.00135694 0)
(0 0.000241956 0)
(0 0.000790711 0)
(0 0.000650723 0)
(0 -1.47707e-05 0)
(0 0.00010509 0)
(0 -1.51616e-05 0)
(0 0.00051752 0)
(0 -9.94099e-06 0)
(0 0.000303366 0)
(0 0.000849181 0)
(0 0.000790297 0)
(0 2.01445e-06 0)
(0 0.00104252 0)
(0 2.52837e-05 0)
(0 8.60072e-05 0)
(0 0.00104095 0)
(0 -1.59002e-05 0)
(0 0.000137086 0)
(0 9.60992e-05 0)
(0 0.0012127 0)
(0 0.000197084 0)
(0 0.000246346 0)
(0 2.63729e-05 0)
(0 2.30246e-05 0)
(0 -1.45702e-05 0)
(0 0.000254926 0)
(0 0.000836327 0)
(0 0.000438875 0)
(0 -1.43487e-05 0)
(0 0.0013174 0)
(0 -1.6408e-05 0)
(0 -1.65217e-05 0)
(0 0.000569383 0)
(0 0.000534168 0)
(0 -4.19112e-06 0)
(0 0.0011609 0)
(0 0.000199821 0)
(0 0.000155817 0)
(0 0.000125918 0)
(0 0.000624485 0)
(0 0.000434868 0)
(0 0.000231388 0)
(0 5.48497e-05 0)
(0 0.000482586 0)
(0 0.0015599 0)
(0 5.68031e-05 0)
(0 -1.64155e-05 0)
(0 0.00102255 0)
(0 9.30084e-05 0)
(0 0.000233125 0)
(0 0.000652854 0)
(0 0.000104092 0)
(0 -1.61148e-05 0)
(0 0.00179585 0)
(0 -1.20919e-05 0)
(0 8.13379e-08 0)
(0 0.000566535 0)
(0 0.000988098 0)
(0 -1.0138e-05 0)
(0 6.82459e-05 0)
(0 0.000367202 0)
(0 6.80726e-05 0)
(0 -2.51459e-06 0)
(0 -1.39664e-05 0)
(0 0.000281519 0)
(0 -1.35955e-05 0)
(0 0.000140674 0)
(0 0.000512302 0)
(0 -1.64146e-05 0)
(0 0.000744166 0)
(0 -1.65238e-05 0)
(0 0.000216493 0)
(0 0.000266014 0)
(0 -1.65252e-05 0)
(0 1.41237e-05 0)
(0 3.66702e-05 0)
(0 0.000243975 0)
(0 0.000634802 0)
(0 0.000127436 0)
(0 0.000605937 0)
(0 0.00129536 0)
(0 0.000866172 0)
(0 -1.41735e-05 0)
(0 0.000209583 0)
(0 0.000940007 0)
(0 2.23925e-05 0)
(0 0.000541051 0)
(0 0.00016013 0)
(0 0.00100193 0)
(0 -1.60557e-05 0)
(0 0.00092171 0)
(0 0.000809815 0)
(0 0.000162363 0)
(0 0.00104275 0)
(0 -1.64864e-05 0)
(0 -1.27137e-05 0)
(0 1.23085e-05 0)
(0 0.000555269 0)
(0 0.000313178 0)
(0 0.000138711 0)
(0 0.000509115 0)
(0 -1.63055e-05 0)
(0 0.00175332 0)
(0 8.8407e-07 0)
(0 0.00043486 0)
(0 0.00169702 0)
(0 -1.65294e-05 0)
(0 0.000483854 0)
(0 0.00147753 0)
(0 4.93256e-05 0)
(0 -1.6517e-05 0)
(0 0.000730673 0)
(0 0.000108572 0)
(0 0.00080734 0)
(0 0.000705665 0)
(0 0.000281624 0)
(0 4.08736e-05 0)
(0 0.00133464 0)
(0 0.00168469 0)
(0 0.000587642 0)
(0 -7.1069e-06 0)
(0 -1.65115e-05 0)
(0 0.00147971 0)
(0 0.00086185 0)
(0 0.000930011 0)
(0 -1.65277e-05 0)
(0 -1.64872e-05 0)
(0 -1.62887e-05 0)
(0 0.0012633 0)
(0 3.46407e-05 0)
(0 0.000102437 0)
(0 -1.59985e-05 0)
(0 0.000144946 0)
(0 0.00144913 0)
(0 0.00133747 0)
(0 0.000916063 0)
(0 0.000141615 0)
(0 0.000676564 0)
(0 -1.60768e-05 0)
(0 0.00129981 0)
(0 0.000927606 0)
(0 0.000280855 0)
(0 -1.59434e-05 0)
(0 -1.00271e-05 0)
(0 0.000161157 0)
(0 -5.19065e-06 0)
(0 0.000256808 0)
(0 -1.65194e-05 0)
(0 -1.60467e-05 0)
(0 -1.51175e-05 0)
(0 0.000335369 0)
(0 0.000188909 0)
(0 1.53409e-05 0)
(0 -1.51769e-05 0)
(0 -1.59944e-05 0)
(0 0.000289554 0)
(0 0.000111532 0)
(0 0.000266143 0)
(0 0.00120878 0)
(0 0.00088395 0)
(0 0.000706115 0)
(0 0.000892669 0)
(0 7.77669e-06 0)
(0 -1.59489e-05 0)
(0 0.000500945 0)
(0 6.81052e-05 0)
(0 0.000227917 0)
(0 5.23925e-05 0)
(0 0.00148456 0)
(0 0.000294479 0)
(0 -1.64891e-05 0)
(0 -1.48173e-05 0)
(0 7.26248e-05 0)
(0 0.000153267 0)
(0 0.000932102 0)
(0 0.00031994 0)
(0 0.00144879 0)
(0 -1.03778e-05 0)
(0 0.000225574 0)
(0 -8.8886e-06 0)
(0 -9.23057e-06 0)
(0 1.06805e-05 0)
(0 -1.63627e-05 0)
(0 0.000310615 0)
(0 0.000465263 0)
(0 0.00120579 0)
(0 1.72214e-05 0)
(0 -9.97058e-06 0)
(0 0.00138578 0)
(0 -1.62035e-05 0)
(0 0.000502214 0)
(0 0.00074013 0)
(0 -1.65054e-05 0)
(0 0.000493048 0)
(0 0.000136897 0)
(0 0.00128174 0)
(0 0.000520146 0)
(0 0.00125572 0)
(0 0.000886063 0)
(0 0.000214786 0)
(0 -1.02042e-06 0)
(0 0.000702055 0)
(0 0.000286773 0)
(0 0.000597956 0)
(0 0.00101708 0)
(0 4.69659e-06 0)
(0 8.93917e-05 0)
(0 0.00112374 0)
(0 0.00072694 0)
(0 8.57588e-05 0)
(0 0.000107346 0)
(0 0.000744257 0)
(0 -1.64827e-05 0)
(0 0.000664019 0)
(0 0.00133285 0)
(0 -1.43598e-05 0)
(0 0.000574747 0)
(0 -1.63375e-05 0)
(0 -1.53285e-05 0)
(0 0.00154035 0)
(0 0.00143934 0)
(0 0.000860153 0)
(0 0.000529618 0)
(0 0.000951178 0)
(0 6.88912e-07 0)
(0 2.23559e-05 0)
(0 -1.14774e-05 0)
(0 0.00022221 0)
(0 0.000975736 0)
(0 0.000221512 0)
(0 0.000377559 0)
(0 -1.54186e-05 0)
(0 0.000262612 0)
(0 0.000270712 0)
(0 0.000407478 0)
(0 -1.17186e-05 0)
(0 0.00105254 0)
(0 0.00116624 0)
(0 0.00106035 0)
(0 0.000206205 0)
(0 0.0012319 0)
(0 0.000799224 0)
(0 0.00160879 0)
(0 0.000403503 0)
(0 0.000437818 0)
(0 0.000583287 0)
(0 0.000166659 0)
(0 8.98061e-05 0)
(0 -1.61967e-05 0)
(0 0.000261921 0)
(0 -1.07356e-05 0)
(0 -1.6454e-05 0)
(0 0.00125642 0)
(0 0.000290394 0)
(0 1.55538e-05 0)
(0 0.00121002 0)
(0 0.00029427 0)
(0 0.000921444 0)
(0 7.63611e-05 0)
(0 0.000129325 0)
(0 0.000272763 0)
(0 0.00117389 0)
(0 0.000638152 0)
(0 1.47569e-05 0)
(0 -7.65384e-06 0)
(0 -1.26755e-05 0)
(0 0.000158814 0)
(0 0.00147341 0)
(0 0.000126391 0)
(0 -1.64725e-05 0)
(0 9.35315e-06 0)
(0 0.000408078 0)
(0 0.000712718 0)
(0 0.000106705 0)
(0 -1.01545e-05 0)
(0 0.00010098 0)
(0 0.00067288 0)
(0 0.000957742 0)
(0 -1.48018e-05 0)
(0 0.00129251 0)
(0 -5.52196e-06 0)
(0 3.545e-05 0)
(0 0.00112726 0)
(0 -1.30659e-05 0)
(0 0.000271905 0)
(0 -1.00556e-05 0)
(0 0.00102762 0)
(0 -1.55234e-05 0)
(0 3.80574e-06 0)
(0 0.000800301 0)
(0 -9.32356e-06 0)
(0 0.00128117 0)
(0 -1.57569e-05 0)
(0 0.00130917 0)
(0 0.0011933 0)
(0 0.000394926 0)
(0 0.00141049 0)
(0 5.23624e-06 0)
(0 0.00124462 0)
(0 0.00109755 0)
(0 0.000543145 0)
(0 0.00122947 0)
(0 0.000967447 0)
(0 4.22542e-05 0)
(0 0.000429128 0)
(0 0.00042609 0)
(0 0.000622502 0)
(0 0.000596303 0)
(0 -1.64788e-05 0)
(0 4.81006e-06 0)
(0 0.000431963 0)
(0 8.05674e-05 0)
(0 0.000593652 0)
(0 0.000619977 0)
(0 0.0018157 0)
(0 0.000964673 0)
(0 -1.61684e-05 0)
(0 0.00112282 0)
(0 5.3602e-05 0)
(0 -1.65231e-05 0)
(0 -6.67945e-06 0)
(0 5.63237e-05 0)
(0 0.00104479 0)
(0 0.000110405 0)
(0 0.000682578 0)
(0 0.000353051 0)
(0 9.26142e-05 0)
(0 0.000707926 0)
(0 0.000488282 0)
(0 0.000756628 0)
(0 -1.61128e-05 0)
(0 0.000234386 0)
(0 -1.64885e-05 0)
(0 9.34823e-06 0)
(0 -8.52004e-06 0)
(0 0.00131178 0)
(0 0.000442927 0)
(0 -1.64902e-05 0)
(0 0.00125163 0)
(0 -4.10339e-06 0)
(0 0.00122623 0)
(0 1.97827e-05 0)
(0 0.000976903 0)
(0 3.82224e-05 0)
(0 -1.55816e-05 0)
(0 0.00092988 0)
(0 0.000259815 0)
(0 0.00117741 0)
(0 0.000121526 0)
(0 0.000103979 0)
(0 5.90391e-05 0)
(0 -1.49436e-05 0)
(0 0.00033922 0)
(0 9.83461e-05 0)
(0 2.87209e-05 0)
(0 0.00011117 0)
(0 0.000680408 0)
(0 0.000884572 0)
(0 0.000187251 0)
(0 0.000452185 0)
(0 0.000138946 0)
(0 0.000592135 0)
(0 0.000649077 0)
(0 0.000478844 0)
(0 6.70698e-07 0)
(0 5.38679e-05 0)
(0 0.000816695 0)
(0 -1.64779e-05 0)
(0 0.00118946 0)
(0 -9.29664e-06 0)
(0 0.00135538 0)
(0 0.00082325 0)
(0 0.00127523 0)
(0 0.000617126 0)
(0 0.000214665 0)
(0 -1.06488e-05 0)
(0 0.000786476 0)
(0 -6.34062e-06 0)
(0 2.89239e-05 0)
(0 8.25765e-05 0)
(0 7.86917e-05 0)
(0 -1.6447e-05 0)
(0 0.000444109 0)
(0 8.1689e-05 0)
(0 -1.62234e-05 0)
(0 -1.00279e-05 0)
(0 -1.38651e-05 0)
(0 4.08978e-05 0)
(0 -7.35298e-06 0)
(0 0.000693408 0)
(0 -1.65222e-05 0)
(0 0.000504382 0)
(0 0.000834159 0)
(0 -1.09441e-05 0)
(0 9.79285e-05 0)
(0 -1.42833e-05 0)
(0 6.68657e-05 0)
(0 5.43746e-05 0)
(0 0.000238711 0)
(0 -1.55435e-05 0)
(0 -1.63023e-05 0)
(0 0.000476747 0)
(0 6.3971e-05 0)
(0 0.000558735 0)
(0 -1.40084e-05 0)
(0 0.000650088 0)
(0 0.00132688 0)
(0 0.000707289 0)
(0 0.00118548 0)
(0 9.72131e-05 0)
(0 -1.37506e-05 0)
(0 -1.26116e-05 0)
(0 -1.63875e-05 0)
(0 0.000451863 0)
(0 0.000366014 0)
(0 -8.55689e-06 0)
(0 -1.34445e-05 0)
(0 0.000703472 0)
(0 0.000151384 0)
(0 0.000618384 0)
(0 -1.6529e-05 0)
(0 0.000234881 0)
(0 0.00154331 0)
(0 1.28338e-05 0)
(0 -1.34399e-05 0)
(0 -1.63219e-05 0)
(0 0.000137272 0)
(0 0.000241469 0)
(0 -9.28973e-06 0)
(0 0.000429041 0)
(0 7.3453e-06 0)
(0 0.000410478 0)
(0 6.30793e-05 0)
(0 0.000228754 0)
(0 0.000418562 0)
(0 0.000707663 0)
(0 0.00145145 0)
(0 0.000288587 0)
(0 0.0001035 0)
(0 0.000285454 0)
(0 2.74287e-05 0)
(0 9.34015e-06 0)
(0 4.82357e-05 0)
(0 0.000215284 0)
(0 0.00101316 0)
(0 0.00131071 0)
(0 9.52944e-05 0)
(0 0.0011798 0)
(0 3.26594e-05 0)
(0 8.98613e-05 0)
(0 4.21882e-05 0)
(0 7.37147e-05 0)
(0 -9.54604e-06 0)
(0 0.00101101 0)
(0 -1.63764e-05 0)
(0 0.000323409 0)
(0 3.46027e-05 0)
(0 0.000111707 0)
(0 5.61509e-06 0)
(0 0.000480491 0)
(0 0.00115702 0)
(0 3.53107e-05 0)
(0 0.00129077 0)
(0 0.000700701 0)
(0 0.000118123 0)
(0 4.40991e-06 0)
(0 0.00107674 0)
(0 0.000263858 0)
(0 9.75757e-06 0)
(0 0.000458349 0)
(0 0.00025869 0)
(0 1.08546e-05 0)
(0 0.000785367 0)
(0 8.93366e-05 0)
(0 0.000768592 0)
(0 0.000660557 0)
(0 0.000953059 0)
(0 -3.88422e-06 0)
(0 1.45333e-05 0)
(0 -1.61788e-05 0)
(0 0.00101334 0)
(0 0.00170995 0)
(0 0.000839704 0)
(0 0.00117192 0)
(0 0.000436437 0)
(0 0.000322481 0)
(0 -1.43225e-05 0)
(0 0.000344608 0)
(0 0.000439883 0)
(0 -8.5626e-06 0)
(0 0.00038434 0)
(0 9.14209e-05 0)
(0 0.000725974 0)
(0 -1.65292e-05 0)
(0 0.000667495 0)
(0 0.000330454 0)
(0 9.2242e-06 0)
(0 -1.64131e-05 0)
(0 0.00114453 0)
(0 0.00161147 0)
(0 0.00146722 0)
(0 0.000843594 0)
(0 0.000446556 0)
(0 0.000450551 0)
(0 1.00312e-05 0)
(0 0.000601237 0)
(0 0.000196665 0)
(0 0.00071457 0)
(0 0.00074332 0)
(0 4.48699e-05 0)
(0 -1.61613e-05 0)
(0 0.000139379 0)
(0 0.001084 0)
(0 0.00118559 0)
(0 0.000192652 0)
(0 0.000289821 0)
(0 0.000244196 0)
(0 0.00119027 0)
(0 0.00121584 0)
(0 -1.65234e-05 0)
(0 0.000518133 0)
(0 0.00021329 0)
(0 0.000146925 0)
(0 1.46552e-05 0)
(0 0.00119728 0)
(0 4.18357e-05 0)
(0 0.00067393 0)
(0 -1.57378e-05 0)
(0 6.93206e-05 0)
(0 1.02414e-05 0)
(0 -1.45239e-05 0)
(0 0.000256642 0)
(0 -1.3139e-06 0)
(0 0.000123816 0)
(0 0.00101786 0)
(0 -1.60897e-05 0)
(0 0.000180744 0)
(0 0.00132778 0)
(0 0.000687527 0)
(0 0.000115229 0)
(0 -1.64424e-05 0)
(0 0.000665937 0)
(0 0.00178985 0)
(0 0.00127357 0)
(0 0.00123537 0)
(0 0.00102335 0)
(0 0.000690854 0)
(0 -1.42812e-05 0)
(0 0.000102564 0)
(0 0.000465314 0)
(0 0.000795541 0)
(0 0.000101378 0)
(0 8.07929e-05 0)
(0 0.000845755 0)
(0 0.000221928 0)
(0 1.90994e-05 0)
(0 0.00084074 0)
(0 0.000359886 0)
(0 -1.61402e-05 0)
(0 0.000185541 0)
(0 0.00101556 0)
(0 -1.62546e-05 0)
(0 0.000594173 0)
(0 0.000246792 0)
(0 -1.24196e-05 0)
(0 -1.64409e-05 0)
(0 0.000809655 0)
(0 0.000598098 0)
(0 -1.37306e-05 0)
(0 0.000206686 0)
(0 0.000334321 0)
(0 0.00032373 0)
(0 0.000123764 0)
(0 2.66863e-05 0)
(0 3.74142e-05 0)
(0 0.001463 0)
(0 -1.49588e-05 0)
(0 0.000325623 0)
(0 2.72353e-05 0)
(0 0.00112642 0)
(0 0.000163807 0)
(0 0.0013405 0)
(0 0.00030754 0)
(0 0.000306333 0)
(0 -8.1856e-06 0)
(0 0.00094306 0)
(0 0.00120286 0)
(0 6.49953e-05 0)
(0 0.00117611 0)
(0 0.000723508 0)
(0 0.00104397 0)
(0 0.000211695 0)
(0 0.00123769 0)
(0 0.00028509 0)
(0 8.42041e-05 0)
(0 0.00014999 0)
(0 0.00010517 0)
(0 0.000639622 0)
(0 0.00089654 0)
(0 -1.65221e-05 0)
(0 0.000284692 0)
(0 0.000953337 0)
(0 0.00021402 0)
(0 -1.65124e-05 0)
(0 0.00117084 0)
(0 0.00176776 0)
(0 0.00111395 0)
(0 1.19256e-05 0)
(0 0.000290046 0)
(0 -1.64597e-05 0)
(0 0.000911269 0)
(0 0.000254505 0)
(0 0.000682736 0)
(0 0.000670293 0)
(0 2.32011e-05 0)
(0 5.49848e-06 0)
(0 0.000739271 0)
(0 -1.31684e-07 0)
(0 0.000999973 0)
(0 1.18037e-05 0)
(0 0.000930259 0)
(0 0.000413919 0)
(0 0.00129381 0)
(0 0.000782892 0)
(0 1.88107e-05 0)
(0 -1.65182e-05 0)
(0 0.000665139 0)
(0 0.000207793 0)
(0 0.000205399 0)
(0 0.00117693 0)
(0 -1.63387e-05 0)
(0 -1.65219e-05 0)
(0 0.000265197 0)
(0 0.000775345 0)
(0 0.000902675 0)
(0 -1.63848e-05 0)
(0 0.00110287 0)
(0 -1.64201e-05 0)
(0 0.00133773 0)
(0 0.000558316 0)
(0 0.000741995 0)
(0 0.000277413 0)
(0 0.000800942 0)
(0 -1.68806e-06 0)
(0 -1.5347e-05 0)
(0 -1.63846e-05 0)
(0 7.73567e-06 0)
(0 -1.65075e-05 0)
(0 0.0014302 0)
(0 8.18775e-05 0)
(0 -1.41129e-05 0)
(0 1.79515e-05 0)
(0 0.000675481 0)
(0 0.000632743 0)
(0 7.11327e-05 0)
(0 0.00109435 0)
(0 -1.59479e-05 0)
(0 0.000110948 0)
(0 4.24007e-05 0)
(0 0.000548954 0)
(0 -1.23813e-05 0)
(0 -1.65121e-05 0)
(0 -1.63737e-05 0)
(0 0.000130489 0)
(0 0.000231135 0)
(0 9.9505e-05 0)
(0 -1.60433e-05 0)
(0 0.00121605 0)
(0 -1.49146e-05 0)
(0 2.1232e-05 0)
(0 3.89348e-06 0)
(0 -1.20133e-05 0)
(0 -6.33145e-06 0)
(0 0.000493478 0)
(0 0.00035968 0)
(0 0.000492934 0)
(0 0.000489474 0)
(0 -1.60286e-05 0)
(0 -1.64974e-05 0)
(0 0.000605733 0)
(0 -1.64572e-05 0)
(0 0.000883915 0)
(0 0.000137477 0)
(0 -6.2334e-06 0)
(0 8.68848e-06 0)
(0 1.37872e-05 0)
(0 0.00137366 0)
(0 0.000239991 0)
(0 0.000410136 0)
(0 0.000786069 0)
(0 0.00100664 0)
(0 0.000202984 0)
(0 0.00061782 0)
(0 -1.39215e-05 0)
(0 9.81683e-05 0)
(0 0.00139291 0)
(0 2.01123e-05 0)
(0 0.000129987 0)
(0 8.34027e-05 0)
(0 0.000559228 0)
(0 -1.60683e-05 0)
(0 -1.46979e-05 0)
(0 -1.0934e-05 0)
(0 0.000270918 0)
(0 9.53912e-05 0)
(0 0.000553925 0)
(0 9.70885e-05 0)
(0 0.00122239 0)
(0 -1.13738e-05 0)
(0 0.000262189 0)
(0 0.000582423 0)
(0 0.00132166 0)
(0 0.000421237 0)
(0 -1.63418e-05 0)
(0 0.00022916 0)
(0 0.00156958 0)
(0 -1.42389e-05 0)
(0 0.00141709 0)
(0 0.000202873 0)
(0 0.0012188 0)
(0 0.000336402 0)
(0 0.00166495 0)
(0 0.00070789 0)
(0 -1.64398e-05 0)
(0 7.05976e-05 0)
(0 5.56578e-06 0)
(0 -1.64838e-05 0)
(0 -5.11555e-06 0)
(0 0.00139331 0)
(0 0.00101375 0)
(0 0.000228077 0)
(0 2.8555e-05 0)
(0 0.00100138 0)
(0 0.000824987 0)
(0 -1.40362e-05 0)
(0 0.000488784 0)
(0 0.000578313 0)
(0 0.000217248 0)
(0 8.87837e-05 0)
(0 -1.34454e-05 0)
(0 0.00113584 0)
(0 5.27875e-05 0)
(0 0.000856653 0)
(0 0.000608492 0)
(0 -1.50075e-05 0)
(0 4.00858e-05 0)
(0 0.00014413 0)
(0 0.000738112 0)
(0 0.00113319 0)
(0 -1.64852e-05 0)
(0 4.87944e-06 0)
(0 -8.04638e-06 0)
(0 -1.64757e-05 0)
(0 0.000830583 0)
(0 0.00114739 0)
(0 0.00151793 0)
(0 -1.65277e-05 0)
(0 0.000324944 0)
(0 0.000161517 0)
(0 0.00061414 0)
(0 0.000695548 0)
(0 0.000971604 0)
(0 0.000105319 0)
(0 0.000726401 0)
(0 8.42482e-06 0)
(0 0.000917565 0)
(0 7.24548e-05 0)
(0 9.26928e-05 0)
(0 0.00072548 0)
(0 0.00119349 0)
(0 0.000740347 0)
(0 6.24553e-05 0)
(0 -1.63619e-05 0)
(0 0.000364248 0)
(0 -1.65029e-05 0)
(0 0.000995937 0)
(0 6.74333e-05 0)
(0 0.000732966 0)
(0 1.09337e-05 0)
(0 0.00131114 0)
(0 0.00131878 0)
(0 0.000430389 0)
(0 7.76552e-05 0)
(0 9.62055e-05 0)
(0 0.000837231 0)
(0 0.000114352 0)
(0 -4.20973e-06 0)
(0 7.06867e-07 0)
(0 0.000701484 0)
(0 9.23412e-05 0)
(0 -1.55434e-05 0)
(0 0.000520074 0)
(0 -1.01521e-05 0)
(0 3.35552e-05 0)
(0 1.59903e-05 0)
(0 0.000823818 0)
(0 0.000647672 0)
(0 0.000287705 0)
(0 5.52499e-07 0)
(0 0.000975853 0)
(0 0.00045333 0)
(0 0.000635576 0)
(0 0.000718291 0)
(0 0.000589679 0)
(0 0.000831669 0)
(0 0.00123572 0)
(0 0.00181736 0)
(0 -1.5028e-05 0)
(0 0.000236416 0)
(0 0.000479335 0)
(0 4.85839e-05 0)
(0 0.00086077 0)
(0 0.00151252 0)
(0 8.74724e-05 0)
(0 6.36985e-06 0)
(0 -2.01834e-06 0)
(0 4.30992e-05 0)
(0 0.000112343 0)
(0 0.000185261 0)
(0 -1.58977e-05 0)
(0 0.000139329 0)
(0 -1.64919e-05 0)
(0 1.29487e-05 0)
(0 0.000704477 0)
(0 0.000763543 0)
(0 0.000531991 0)
(0 -1.61293e-05 0)
(0 -1.6282e-05 0)
(0 3.61277e-05 0)
(0 -7.67006e-06 0)
(0 0.000824812 0)
(0 0.000892459 0)
(0 0.000315952 0)
(0 0.00067135 0)
(0 -1.65227e-05 0)
(0 0.00033129 0)
(0 0.000766991 0)
(0 3.49869e-05 0)
(0 -1.28956e-05 0)
(0 3.77616e-05 0)
(0 0.000499796 0)
(0 0.000455957 0)
(0 2.09701e-05 0)
(0 0.000218016 0)
(0 0.000490111 0)
(0 -1.43503e-05 0)
(0 -6.91879e-06 0)
(0 0.00055766 0)
(0 1.94428e-05 0)
(0 5.10227e-05 0)
(0 6.45773e-05 0)
(0 1.25239e-06 0)
(0 0.000226685 0)
(0 0.000728746 0)
(0 1.72946e-05 0)
(0 0.001325 0)
(0 0.000410576 0)
(0 0.000234975 0)
(0 -1.645e-05 0)
(0 0.000225317 0)
(0 7.68756e-05 0)
(0 9.68302e-06 0)
(0 0.000805151 0)
(0 -1.64696e-05 0)
(0 -1.65087e-05 0)
(0 0.00101628 0)
(0 -1.63532e-05 0)
(0 7.99154e-05 0)
(0 0.000827218 0)
(0 0.00104304 0)
(0 1.0072e-05 0)
(0 -1.49518e-05 0)
(0 0.000297216 0)
(0 0.000133059 0)
(0 0.00122076 0)
(0 -9.60074e-06 0)
(0 1.22576e-05 0)
(0 0.000152369 0)
(0 0.000857489 0)
(0 0.000857899 0)
(0 0.00078023 0)
(0 6.97771e-05 0)
(0 0.000468425 0)
(0 6.39256e-05 0)
(0 0.000142811 0)
(0 0.00031705 0)
(0 -1.47304e-05 0)
(0 6.32686e-06 0)
(0 0.000484136 0)
(0 0.00023591 0)
(0 0.000519688 0)
(0 -1.44167e-05 0)
(0 0.000256411 0)
(0 0.00122932 0)
(0 0.00082661 0)
(0 0.00125661 0)
(0 0.000478569 0)
(0 -1.64295e-05 0)
(0 -1.43428e-05 0)
(0 3.75889e-06 0)
(0 0.000226914 0)
(0 0.000938714 0)
(0 -1.28235e-05 0)
(0 0.000210577 0)
(0 0.000577248 0)
(0 -1.61298e-05 0)
(0 0.00081295 0)
(0 4.01422e-05 0)
(0 -1.64884e-05 0)
(0 0.000843309 0)
(0 -1.64944e-05 0)
(0 -1.60265e-05 0)
(0 9.95613e-06 0)
(0 -1.65086e-05 0)
(0 6.3265e-05 0)
(0 0.00096139 0)
(0 0.000497397 0)
(0 -1.63956e-05 0)
(0 -1.2855e-05 0)
(0 0.000523243 0)
(0 -1.6476e-05 0)
(0 0.000295263 0)
(0 0.00124249 0)
(0 0.000228509 0)
(0 0.000670083 0)
(0 0.000230658 0)
(0 0.000309969 0)
(0 -1.37732e-05 0)
(0 -1.6514e-05 0)
(0 -1.28085e-05 0)
(0 0.000103095 0)
(0 5.58069e-05 0)
(0 2.52998e-05 0)
(0 -1.64493e-05 0)
(0 0.000838961 0)
(0 -1.65137e-05 0)
(0 6.2115e-05 0)
(0 0.000276617 0)
(0 0.000270379 0)
(0 0.000177613 0)
(0 0.000679817 0)
(0 0.000109958 0)
(0 -1.64325e-05 0)
(0 0.000846311 0)
(0 0.000869301 0)
(0 -1.64344e-05 0)
(0 1.35549e-05 0)
(0 0.000240125 0)
(0 0.000241127 0)
(0 7.51121e-05 0)
(0 0.00147777 0)
(0 0.000118457 0)
(0 9.43859e-05 0)
(0 -1.09573e-05 0)
(0 0.000481881 0)
(0 0.000791209 0)
(0 7.83328e-05 0)
(0 -1.64787e-05 0)
(0 6.57455e-05 0)
(0 0.000667774 0)
(0 -1.33415e-05 0)
(0 0.000705408 0)
(0 0.000911657 0)
(0 0.00128843 0)
(0 0.000474596 0)
(0 0.000820794 0)
(0 0.000554243 0)
(0 -1.14484e-05 0)
(0 0.000338792 0)
(0 0.000209531 0)
(0 -1.59826e-05 0)
(0 0.000275258 0)
(0 8.60605e-07 0)
(0 -7.84646e-06 0)
(0 5.53793e-06 0)
(0 7.81094e-05 0)
(0 0.00113711 0)
(0 0.000329331 0)
(0 0.000728367 0)
(0 0.000416274 0)
(0 8.86061e-07 0)
(0 0.000953651 0)
(0 -6.76118e-06 0)
(0 0.000238202 0)
(0 5.65826e-05 0)
(0 0.00138369 0)
(0 -1.37304e-05 0)
(0 9.47728e-05 0)
(0 -1.62903e-05 0)
(0 0.000101896 0)
(0 -1.62955e-05 0)
(0 0.000526337 0)
(0 6.72996e-05 0)
(0 1.03805e-05 0)
(0 0.000151928 0)
(0 0.000549216 0)
(0 -1.22949e-05 0)
(0 0.00012491 0)
(0 -1.28107e-05 0)
(0 0.000925124 0)
(0 8.25119e-05 0)
(0 0.0014261 0)
(0 -1.62813e-05 0)
(0 -1.18123e-05 0)
(0 4.03717e-05 0)
(0 0.00141303 0)
(0 0.00146856 0)
(0 6.67645e-05 0)
(0 -1.65106e-05 0)
(0 0.000401207 0)
(0 0.00150261 0)
(0 0.000152369 0)
(0 5.64086e-06 0)
(0 0.000190556 0)
(0 0.00064091 0)
(0 -1.65476e-06 0)
(0 0.00086955 0)
(0 0.00031883 0)
(0 0.00135509 0)
(0 0.000411705 0)
(0 0.00121539 0)
(0 -1.17318e-05 0)
(0 0.00118671 0)
(0 0.00123199 0)
(0 7.85047e-06 0)
(0 -1.65119e-05 0)
(0 0.00060082 0)
(0 4.53162e-05 0)
(0 0.000722392 0)
(0 -1.89199e-06 0)
(0 0.000896978 0)
(0 -1.07795e-05 0)
(0 0.000507639 0)
(0 8.89302e-06 0)
(0 0.000901767 0)
(0 0.000459754 0)
(0 -1.59842e-05 0)
(0 0.00044739 0)
(0 -1.61966e-05 0)
(0 0.000313015 0)
(0 -1.65106e-05 0)
(0 0.000578301 0)
(0 0.00110241 0)
(0 0.000820593 0)
(0 0.000324306 0)
(0 0.000249023 0)
(0 0.000249337 0)
(0 -1.64642e-05 0)
(0 0.000427343 0)
(0 0.000327697 0)
(0 3.89294e-05 0)
(0 0.000164101 0)
(0 0.000693283 0)
(0 0.000260624 0)
(0 1.80231e-05 0)
(0 -1.65265e-05 0)
(0 0.0012708 0)
(0 -1.48558e-05 0)
(0 0.000719283 0)
(0 3.34698e-05 0)
(0 -1.62345e-05 0)
(0 0.000240602 0)
(0 0.0017692 0)
(0 0.000834751 0)
(0 0.000102583 0)
(0 -1.18344e-05 0)
(0 0.000302294 0)
(0 0.000197182 0)
(0 0.00110215 0)
(0 0.000201136 0)
(0 0.00105036 0)
(0 -1.5407e-05 0)
(0 -1.58274e-05 0)
(0 -1.65109e-05 0)
(0 0.000970877 0)
(0 0.000318314 0)
(0 -1.42325e-05 0)
(0 0.000690266 0)
(0 1.55708e-05 0)
(0 0.000791622 0)
(0 -1.21544e-05 0)
(0 6.30049e-05 0)
(0 0.00165297 0)
(0 3.42282e-05 0)
(0 -1.21259e-05 0)
(0 0.00116505 0)
(0 0.000334965 0)
(0 0.00135612 0)
(0 4.64972e-05 0)
(0 -1.16298e-05 0)
(0 1.50048e-05 0)
(0 -1.43556e-05 0)
(0 0.00079601 0)
(0 0.000782816 0)
(0 -1.59206e-05 0)
(0 0.000646804 0)
(0 4.72679e-05 0)
(0 0.000167619 0)
(0 0.000422103 0)
(0 0.00124222 0)
(0 -1.31171e-05 0)
(0 0.000389534 0)
(0 -1.33091e-05 0)
(0 0.00127162 0)
(0 4.09354e-06 0)
(0 0.000498793 0)
(0 -1.37695e-05 0)
(0 0.000276055 0)
(0 0.000325671 0)
(0 0.000325186 0)
(0 -1.56714e-05 0)
(0 0.00104316 0)
(0 0.000130808 0)
(0 -1.02211e-05 0)
(0 1.02571e-05 0)
(0 -1.63883e-05 0)
(0 -1.49662e-05 0)
(0 0.000584513 0)
(0 0.00154378 0)
(0 0.000944352 0)
(0 1.65246e-05 0)
(0 0.00105759 0)
(0 5.22944e-05 0)
(0 8.42361e-06 0)
(0 0.0003345 0)
(0 2.9744e-05 0)
(0 0.000816608 0)
(0 0.000889663 0)
(0 0.000144037 0)
(0 0.000820181 0)
(0 -1.64775e-05 0)
(0 1.88213e-05 0)
(0 -1.11615e-05 0)
(0 4.83449e-05 0)
(0 0.000373864 0)
(0 -1.64779e-05 0)
(0 0.000399061 0)
(0 0.000392654 0)
(0 0.000693504 0)
(0 0.00015289 0)
(0 2.21091e-05 0)
(0 0.00148038 0)
(0 0.00069813 0)
(0 0.000285743 0)
(0 0.000760492 0)
(0 7.92148e-05 0)
(0 1.38644e-05 0)
(0 -1.6408e-05 0)
(0 3.41485e-05 0)
(0 0.000664421 0)
(0 6.97784e-06 0)
(0 0.000834753 0)
(0 0.00111537 0)
(0 0.000579647 0)
(0 -1.23751e-05 0)
(0 7.46912e-06 0)
(0 9.40952e-05 0)
(0 8.55302e-06 0)
(0 -9.97284e-06 0)
(0 5.12616e-05 0)
(0 -8.85206e-06 0)
(0 0.000785518 0)
(0 0.000118951 0)
(0 -1.62724e-05 0)
(0 0.000771507 0)
(0 -1.28237e-05 0)
(0 0.000967051 0)
(0 0.0010418 0)
(0 8.51203e-05 0)
(0 -1.37811e-05 0)
(0 0.000868019 0)
(0 3.24181e-05 0)
(0 -1.50702e-05 0)
(0 -1.42685e-06 0)
(0 0.000548597 0)
(0 0.000249394 0)
(0 0.000396512 0)
(0 0.000340023 0)
(0 -9.53502e-06 0)
(0 0.000638025 0)
(0 4.77423e-05 0)
(0 -1.63764e-05 0)
(0 0.000477742 0)
(0 0.000924606 0)
(0 0.000869442 0)
(0 -1.48017e-05 0)
(0 0.00126888 0)
(0 0.0017802 0)
(0 1.44605e-05 0)
(0 0.000554246 0)
(0 0.00103378 0)
(0 2.11737e-06 0)
(0 0.000419037 0)
(0 8.93971e-06 0)
(0 8.77983e-06 0)
(0 -1.6502e-05 0)
(0 -1.51317e-05 0)
(0 0.00142953 0)
(0 0.00124776 0)
(0 0.000897044 0)
(0 0.00058732 0)
(0 1.27259e-06 0)
(0 0.000608566 0)
(0 -1.54808e-05 0)
(0 0.000390413 0)
(0 -1.62695e-05 0)
(0 0.000387488 0)
(0 0.000839133 0)
(0 0.000477897 0)
(0 0.000768589 0)
(0 0.000116196 0)
(0 0.000761929 0)
(0 0.00123404 0)
(0 2.38604e-05 0)
(0 0.0010135 0)
(0 0.000390235 0)
(0 0.000553147 0)
(0 -1.65162e-05 0)
(0 0.000410225 0)
(0 0.00152315 0)
(0 0.001195 0)
(0 0.000140427 0)
(0 0.000866385 0)
(0 0.00049069 0)
(0 0.0010852 0)
(0 0.000626482 0)
(0 0.00121003 0)
(0 0.000943494 0)
(0 0.000348134 0)
(0 0.000130575 0)
(0 0.000291464 0)
(0 -1.62715e-05 0)
(0 -1.63866e-05 0)
(0 -1.62891e-05 0)
(0 0.00088742 0)
(0 0.000404596 0)
(0 0.00150508 0)
(0 0.000955663 0)
(0 0.00150372 0)
(0 0.000836154 0)
(0 0.000362505 0)
(0 0.00105596 0)
(0 0.000181111 0)
(0 0.000609948 0)
(0 0.00141458 0)
(0 0.000685458 0)
(0 -1.60803e-05 0)
(0 0.00115474 0)
(0 0.00101026 0)
(0 -1.61768e-05 0)
(0 0.000313086 0)
(0 0.000466632 0)
(0 -1.62037e-05 0)
(0 -1.64829e-05 0)
(0 0.000851253 0)
(0 -1.21291e-05 0)
(0 -1.44172e-05 0)
(0 0.000657504 0)
(0 3.26262e-05 0)
(0 0.000413193 0)
(0 0.00061415 0)
(0 0.000172368 0)
(0 7.77505e-05 0)
(0 0.000663198 0)
(0 0.000361892 0)
(0 0.000304866 0)
(0 0.000851926 0)
(0 -1.65294e-05 0)
(0 0.000799332 0)
(0 2.73691e-05 0)
(0 0.000301867 0)
(0 0.000178434 0)
(0 -1.61419e-05 0)
(0 0.000295251 0)
(0 0.000840173 0)
(0 0.000322361 0)
(0 0.000323293 0)
(0 0.00012343 0)
(0 -1.27241e-05 0)
(0 -1.63529e-05 0)
(0 -1.16326e-05 0)
(0 3.21562e-06 0)
(0 -1.29049e-05 0)
(0 5.80004e-05 0)
(0 0.000101959 0)
(0 -1.38561e-05 0)
(0 4.25326e-06 0)
(0 0.000425703 0)
(0 0.000126389 0)
(0 4.79981e-05 0)
(0 0.00120313 0)
(0 0.000309978 0)
(0 0.000352637 0)
(0 2.90181e-05 0)
(0 0.000963403 0)
(0 0.00137578 0)
(0 3.45465e-05 0)
(0 0.000829182 0)
(0 -1.36957e-05 0)
(0 0.000876604 0)
(0 -1.62982e-05 0)
(0 1.49014e-05 0)
(0 8.87661e-05 0)
(0 0.0014924 0)
(0 0.000481274 0)
(0 0.000123548 0)
(0 6.95784e-05 0)
(0 0.000539649 0)
(0 4.86669e-05 0)
(0 -4.95725e-07 0)
(0 4.96699e-05 0)
(0 7.34978e-05 0)
(0 -1.39857e-05 0)
(0 -1.36652e-05 0)
(0 0.00106508 0)
(0 8.03985e-06 0)
(0 3.38299e-05 0)
(0 -1.33654e-05 0)
(0 1.32495e-05 0)
(0 0.0013849 0)
(0 0.000172676 0)
(0 0.000270506 0)
(0 0.000463271 0)
(0 0.000338863 0)
(0 0.000682957 0)
(0 0.000249147 0)
(0 -1.26368e-05 0)
(0 9.03276e-05 0)
(0 0.000585039 0)
(0 7.39806e-06 0)
(0 4.47466e-06 0)
(0 -1.64482e-05 0)
(0 -1.34897e-05 0)
(0 0.00034622 0)
(0 0.000476053 0)
(0 0.00164439 0)
(0 0.000937196 0)
(0 0.000256209 0)
(0 1.63011e-05 0)
(0 -1.62329e-05 0)
(0 0.00100661 0)
(0 -1.40735e-05 0)
(0 3.64286e-05 0)
(0 -1.00064e-05 0)
(0 6.29533e-06 0)
(0 0.000125721 0)
(0 0.000390446 0)
(0 0.000525723 0)
(0 -1.64e-05 0)
(0 -1.63618e-05 0)
(0 3.81069e-05 0)
(0 -1.54017e-05 0)
(0 0.00108926 0)
(0 -1.28499e-05 0)
(0 0.000830016 0)
(0 0.00100684 0)
(0 -1.63571e-05 0)
(0 0.000173005 0)
(0 0.00112647 0)
(0 0.00123132 0)
(0 1.48593e-06 0)
(0 -1.6415e-05 0)
(0 -1.18119e-05 0)
(0 4.08589e-06 0)
(0 0.000900973 0)
(0 0.000958703 0)
(0 0.000454053 0)
(0 -1.63696e-05 0)
(0 -1.63779e-05 0)
(0 0.000828416 0)
(0 0.000290461 0)
(0 8.39719e-05 0)
(0 4.45507e-05 0)
(0 -9.46422e-06 0)
(0 -1.49958e-05 0)
(0 -1.64658e-05 0)
(0 0.000279834 0)
(0 0.00081971 0)
(0 0.00112578 0)
(0 -1.42035e-05 0)
(0 0.00114176 0)
(0 2.1491e-05 0)
(0 -1.62446e-05 0)
(0 -1.6115e-05 0)
(0 0.000496801 0)
(0 0.00014765 0)
(0 -1.64992e-05 0)
(0 -1.46354e-05 0)
(0 -1.63429e-05 0)
(0 -1.56487e-05 0)
(0 2.6446e-06 0)
(0 4.58057e-06 0)
(0 0.000750513 0)
(0 0.00013926 0)
(0 0.00178363 0)
(0 0.000863246 0)
(0 -1.623e-05 0)
(0 2.41031e-05 0)
(0 -1.43986e-05 0)
(0 -1.46781e-05 0)
(0 1.16329e-05 0)
(0 0.000721839 0)
(0 0.000348564 0)
(0 0.00092828 0)
(0 0.000391564 0)
(0 0.000940023 0)
(0 4.10318e-05 0)
(0 -1.64565e-05 0)
(0 -1.18117e-05 0)
(0 0.000274632 0)
(0 0.000863564 0)
(0 0.000740494 0)
(0 0.000283808 0)