/*--------------------------------*- C++ -*----------------------------------*\
| =========                 |                                                 |
| \\      /  F ield         | OpenFOAM: The Open Source CFD Toolbox           |
|  \\    /   O peration     | Version:  v2012                                 |
|   \\  /    A nd           | Website:  www.openfoam.com                      |
|    \\/     M anipulation  |                                                 |
\*---------------------------------------------------------------------------*/
FoamFile
{
    version     2.0;
    format      ascii;
    class       volVectorField;
    location    "150";
    object      ddt0(U);
}
// * * * * * * * * * * * * * * * * * * * * * * * * * * * * * * * * * * * * * //

dimensions      [0 1 -2 0 0 0 0];


internalField   nonuniform List<vector> 
9793
(
(-0.00137994 0.00235183 1.19795e-19)
(0.490823 -0.0462689 4.37741e-17)
(0.00191101 0.000413378 3.23032e-18)
(-0.00449254 0.407969 -3.78785e-17)
(0.0046986 -1.04079e-05 -1.45219e-18)
(0.0603476 -0.0519276 -1.06395e-17)
(-0.0384127 -0.00292064 3.66345e-18)
(-0.0411981 -0.216678 -8.89905e-17)
(-0.00250672 -0.00166946 2.2855e-18)
(0.392984 -0.110916 -1.24925e-16)
(0.000621535 0.000786572 2.89661e-19)
(0.000662904 0.000841692 2.97662e-18)
(-0.00447037 1.30874e-05 1.58569e-18)
(-0.00728834 -0.746695 3.7224e-18)
(0.00429124 -0.00116758 -7.45272e-18)
(0.00868953 0.00132437 7.53538e-20)
(0.00638272 -0.0252874 8.60743e-18)
(-0.00672657 0.00036101 -3.09476e-18)
(-0.346003 0.13271 3.77819e-17)
(0.00118454 -6.88288e-07 7.77802e-19)
(-0.00178524 -0.00015462 1.12019e-18)
(-2.15862e-06 -5.5244e-05 -4.82742e-18)
(0.11041 0.357091 -1.00131e-17)
(-0.0164501 -0.212363 -6.78585e-17)
(0.00397299 -0.724758 2.35616e-18)
(-0.00284744 0.00428939 -1.72504e-17)
(-0.00120153 -1.25114e-05 -2.12753e-18)
(-0.00246913 -2.62284e-05 8.6448e-18)
(0.000994893 1.12852e-05 1.06869e-18)
(-0.0236707 -0.0342305 1.04607e-17)
(0.1635 -0.0110387 4.87808e-17)
(0.0743141 -0.118481 -1.54269e-17)
(0.00437661 0.00132207 3.64902e-18)
(-0.000426401 0.000244404 2.99175e-18)
(-0.0019824 -6.07216e-06 5.02316e-19)
(0.00780238 -0.0056081 1.2824e-18)
(0.00180639 -2.2382e-05 1.32378e-18)
(0.00105415 0.00451269 -2.93388e-18)
(-0.109044 -0.115778 -4.49982e-17)
(-0.00062244 -0.00977338 -2.26701e-18)
(-0.0217312 -0.0310476 -1.91483e-17)
(0.202245 0.00755514 -3.91555e-17)
(-0.353507 -0.21264 2.68127e-18)
(0.000589264 -4.60227e-05 -8.84085e-18)
(-0.000788346 0.000563311 4.994e-18)
(-0.00180689 0.00111816 -2.59842e-18)
(-0.20407 -0.0668943 1.99388e-17)
(0.00155093 -0.000108236 -4.53403e-20)
(-0.0037992 -0.00022685 3.29291e-19)
(-0.00481638 0.000369401 -5.48547e-18)
(0.00875401 -0.00507669 -3.29869e-18)
(-0.00387148 -6.98218e-06 6.0641e-19)
(0.00771278 -0.0124173 -1.56807e-17)
(0.0014455 -6.19672e-05 3.20029e-18)
(-0.00500393 0.00684395 -2.63399e-18)
(-0.00140396 0.408464 -9.40227e-18)
(-0.00590891 5.62201e-06 -2.00335e-18)
(0.0336361 -0.0124018 1.37161e-17)
(-0.00346074 -0.000291258 -1.99702e-19)
(3.7548e-06 -5.12995e-05 1.89559e-18)
(-0.000303091 0.00488892 1.81855e-17)
(-0.00484421 0.0207073 -4.75027e-18)
(0.000584773 0.000390136 -4.76327e-18)
(0.0118185 0.00130888 -5.89197e-19)
(-0.0096508 5.01153e-05 -3.86461e-18)
(-0.00259428 -0.00160617 -3.46484e-18)
(-0.0673494 -0.0234436 7.91382e-17)
(0.00279351 -0.00398928 1.51952e-18)
(0.00275452 0.000413557 1.89364e-18)
(-0.378398 0.30452 -1.10313e-17)
(-0.000640402 0.000582526 -2.11526e-18)
(-0.000351191 0.0113406 2.98561e-17)
(-0.12988 -0.18032 1.23261e-16)
(0.21414 0.303386 3.45033e-18)
(-0.276181 0.0965043 -9.83236e-19)
(0.000119028 -4.08862e-05 -4.94043e-18)
(-0.00252398 0.0106471 -2.19554e-17)
(-0.306582 -0.380221 -1.79155e-17)
(0.000475219 0.000936972 -2.97953e-18)
(0.00106439 -8.50375e-05 3.88478e-18)
(-0.00238712 0.0110037 2.57964e-17)
(-0.374838 0.140825 -4.20635e-17)
(0.00710055 -0.0232393 -9.48732e-18)
(-0.00248181 0.000769091 -4.91267e-18)
(0.0030387 0.000260532 5.13404e-19)
(-0.0613966 -0.0837666 -1.6531e-17)
(0.00468619 -2.42572e-05 3.94438e-18)
(0.0366635 0.00978264 5.46257e-18)
(-0.0940824 -0.186858 1.15951e-16)
(-0.00449642 0.0190964 2.2052e-17)
(0.10239 0.383934 4.06919e-17)
(-0.159123 -0.104369 -6.17661e-17)
(-0.156626 -0.0851096 -3.59077e-17)
(-0.0107967 -0.0127577 -4.54808e-18)
(-0.333118 -0.192896 1.70379e-17)
(-0.00269268 0.000394761 -5.35998e-18)
(-0.2637 0.171084 6.16915e-18)
(-0.00170708 -0.0240702 1.23939e-17)
(-0.000432916 -0.00405861 -1.59291e-19)
(0.00231262 -7.14317e-05 3.54732e-19)
(-0.0819027 -0.208685 -3.17509e-17)
(0.00801334 -0.0115851 1.13577e-17)
(0.349889 0.769229 -6.84194e-18)
(-0.000573102 0.000652511 7.93326e-20)
(-0.039869 -0.509318 -6.34458e-17)
(-0.300458 -0.383793 8.7693e-17)
(0.161474 0.294674 -5.26235e-18)
(-0.00206465 -4.06013e-05 4.60148e-18)
(9.00809e-05 0.000998778 3.69346e-18)
(0.00181238 -0.000122986 1.46399e-19)
(-0.000139975 0.000165873 1.27234e-18)
(0.109069 0.364932 -2.69707e-17)
(0.000703142 0.00558806 -1.10564e-16)
(0.177179 0.00630275 4.57917e-18)
(-0.000808473 0.00057307 1.00731e-17)
(0.00400577 9.70848e-05 5.43647e-18)
(0.0042532 0.000172852 1.24432e-19)
(-0.00481428 0.00099435 3.96442e-18)
(-0.0325016 0.368343 -3.07303e-17)
(-0.000515697 0.00138674 9.2947e-18)
(0.0906089 -0.657632 -1.01719e-16)
(0.039175 0.00782898 1.62383e-18)
(-0.24013 0.207825 -2.38473e-18)
(0.0144627 -0.0105713 4.26003e-18)
(0.00191176 -0.000240269 2.58766e-18)
(-0.00122186 0.00131947 -6.29946e-18)
(0.00196317 -0.0297513 2.17364e-17)
(0.139396 -0.0189305 -7.74387e-17)
(0.0948184 0.017002 5.03779e-18)
(0.102038 0.0270138 2.29999e-18)
(-0.000985991 -0.00226323 -2.3379e-19)
(-0.000561423 -0.000520065 -1.54963e-18)
(-0.00188289 0.00223871 -6.22863e-18)
(0.00246937 -0.00312688 -4.17464e-19)
(0.00525517 -0.00535686 -9.1275e-19)
(-0.0640106 -0.0156051 1.76073e-17)
(0.0716654 0.0267521 2.0067e-17)
(0.00410451 0.000311503 -1.94364e-20)
(-0.000274728 -7.40189e-05 3.2212e-18)
(0.012634 -0.0276199 -1.10801e-17)
(-0.458634 0.143944 1.04166e-18)
(0.00729082 -0.00549343 -3.56122e-18)
(-0.00619784 0.000484039 -2.68902e-18)
(0.0278159 0.00644408 -3.63355e-18)
(-0.261935 -0.0543396 -1.77621e-18)
(-0.0375812 0.0553077 7.77386e-18)
(-0.000516397 0.00129172 -6.75476e-18)
(-0.261327 0.234453 3.84004e-17)
(-0.00184507 -0.000493616 6.49927e-19)
(-0.000943495 0.00137926 4.52723e-18)
(0.000581391 0.000289215 6.49773e-18)
(0.161871 0.0314085 8.92619e-17)
(-0.00135317 -0.00374823 -6.14488e-19)
(-0.0015402 -3.21818e-07 -4.94769e-18)
(0.00037503 0.000909922 2.65891e-18)
(-0.17102 -0.0508456 1.09063e-16)
(0.00790382 -0.0271666 7.68429e-18)
(-0.00188439 0.000371757 -1.22244e-18)
(0.100896 -0.127932 -3.4587e-17)
(-0.000613378 0.000565763 -3.85962e-18)
(0.0332902 0.0073713 -9.04092e-18)
(0.00202327 -0.00252177 -1.20381e-18)
(-0.00234712 -0.000142173 -3.66345e-19)
(0.00645876 0.015191 -4.88539e-17)
(-0.00256117 -0.000977833 3.81011e-19)
(-0.262069 -0.366925 -3.29442e-17)
(0.147454 0.996797 9.83796e-17)
(-0.00266049 -0.00123861 -4.70675e-20)
(-0.0056165 -1.16401e-05 -2.32709e-18)
(-0.00244076 0.000589948 5.55954e-19)
(-0.00407046 0.00040289 -6.99479e-18)
(0.0794925 0.0458068 -6.86373e-17)
(0.328577 -0.122106 -1.58414e-17)
(0.0913072 -0.991139 9.29068e-17)
(-0.00447775 4.13528e-05 -3.18941e-18)
(0.055113 -0.0452184 1.4288e-17)
(-0.0241829 0.0281524 2.56849e-18)
(0.0115772 0.0144443 -4.03865e-18)
(-0.000170488 0.000663155 -4.85338e-18)
(0.00264822 -0.00371769 -1.78648e-19)
(-0.0673923 -0.475811 2.62163e-17)
(-0.231182 -0.0418338 -5.77773e-18)
(0.0428236 0.00953058 -1.3362e-18)
(-0.00224027 0.00132172 4.84208e-18)
(-0.00281424 0.00042201 -3.65953e-18)
(-0.0038574 -2.08435e-05 1.48575e-18)
(-0.167939 0.189521 2.13473e-17)
(-0.103114 -0.158466 -3.90547e-17)
(0.183453 -0.0295134 5.70761e-17)
(0.414848 0.561088 -2.75311e-18)
(-0.00204397 -0.00141864 -3.9537e-18)
(0.118098 0.0891723 8.93771e-17)
(0.00191429 0.00920289 1.77218e-17)
(-0.000923843 0.00452768 -3.48028e-17)
(-0.00178176 -2.83168e-05 6.62024e-19)
(-0.00185982 0.00231966 1.32246e-18)
(-0.00553485 0.00846308 -7.0518e-17)
(-0.00535477 -7.76619e-05 -1.5616e-18)
(-0.00663535 0.000421268 -8.73406e-19)
(-0.0014298 0.00106968 -4.77736e-18)
(-0.00184242 0.000790583 -4.01849e-18)
(-0.00118541 -0.000241787 -1.32232e-18)
(0.0103403 -0.00442016 1.402e-18)
(0.00425125 -0.00194454 -3.45928e-18)
(-0.135629 0.249798 -1.07785e-16)
(-0.00268595 0.00078163 4.69606e-19)
(0.000262201 -0.00772752 -1.33239e-18)
(-0.00215343 -0.00124914 -5.96179e-20)
(-0.00156558 0.00213812 1.02342e-17)
(0.00929164 0.0324322 8.30808e-18)
(0.0117921 -0.0263301 -1.24846e-17)
(-0.489154 0.145616 1.66773e-17)
(-0.00342717 -0.000187497 1.10195e-18)
(-0.43394 0.300972 9.77286e-18)
(-0.00198662 0.00106119 2.01261e-19)
(-0.00634064 0.0115908 5.57859e-19)
(0.00303758 -0.00118608 3.04254e-19)
(-0.06286 -0.0225344 -6.53905e-18)
(0.00276434 0.000239377 7.2066e-18)
(-0.00129827 0.0104405 2.43027e-17)
(-0.000760495 -0.0262777 -1.59858e-17)
(-0.00109547 -0.000235055 1.11055e-18)
(-0.00748338 0.004956 -4.04939e-17)
(0.134845 -0.665227 2.56889e-17)
(-0.0105806 -0.0113298 7.39659e-19)
(-0.0031558 0.000385737 8.89037e-18)
(0.0194077 -0.012613 -5.80942e-18)
(0.00373387 0.304365 -4.18784e-17)
(-0.00186665 0.0105366 -1.64916e-17)
(-0.00212387 0.0108683 3.99083e-18)
(-0.0800423 0.249043 -7.21335e-17)
(0.0698406 0.0122351 -2.47067e-18)
(-0.00274487 0.0104176 -3.47692e-19)
(0.0130935 0.00187887 -6.20554e-18)
(0.00187159 0.00947926 -3.09792e-17)
(-0.00470615 0.000154828 1.65182e-18)
(0.190085 0.25641 5.82051e-18)
(0.165554 0.0174552 -3.34878e-17)
(-0.00760851 -8.28682e-05 5.27657e-20)
(0.00286169 0.000748152 -1.21173e-19)
(0.247632 0.0716759 3.32434e-17)
(-0.00222393 0.000444297 5.62597e-18)
(0.000430691 0.000123166 -2.05557e-19)
(0.0397496 -0.0118864 3.81532e-18)
(0.0381791 -0.0151075 1.30019e-17)
(-0.00255575 -0.00149854 2.54233e-18)
(0.00297745 -0.00383015 2.84047e-18)
(-0.000391863 -0.00832401 1.58226e-18)
(-0.00889334 0.00696806 1.50676e-17)
(0.00211356 -0.00347636 -1.19907e-18)
(0.000174985 0.00072719 1.0805e-18)
(-0.0176593 -0.00552479 1.8757e-18)
(-0.0737418 0.286136 -4.12222e-18)
(-0.00183807 -0.000205738 -1.7093e-18)
(0.126677 -1.00513 9.00512e-17)
(0.00245458 -4.45263e-05 9.54979e-19)
(-0.00634638 0.000817974 -2.09902e-18)
(-0.00241166 -4.01891e-05 3.23355e-19)
(-0.0158888 0.391434 5.8976e-17)
(-0.000689398 0.000910026 -1.52008e-18)
(-0.160559 -0.0632421 -9.01436e-17)
(-0.3139 0.129491 2.40342e-17)
(-6.85108e-07 -5.21223e-06 -1.93694e-18)
(-0.000364336 0.0003845 -5.76118e-18)
(-0.143991 -0.238475 -5.11776e-17)
(-0.0086236 -2.63985e-05 -2.11429e-19)
(0.001216 0.000314836 -5.60103e-18)
(-0.00992253 -2.62273e-05 2.13831e-18)
(-0.33608 0.154656 -2.26129e-17)
(0.00521154 0.0153023 -7.35612e-17)
(-0.00416203 0.0037655 1.60337e-17)
(-0.00102664 0.0383564 3.07328e-18)
(0.0311312 -0.0143064 -4.94348e-18)
(0.296367 0.729678 -6.71373e-17)
(0.111849 0.26181 3.39049e-17)
(-0.00081565 -0.0013964 -5.00642e-20)
(-0.369261 -0.56826 -4.70155e-17)
(-0.00641758 -6.94168e-05 4.07011e-18)
(-0.0347364 0.215728 4.73969e-17)
(0.0151562 -0.015235 -1.02163e-17)
(-0.0931558 -0.588017 -7.79413e-17)
(0.0487861 -0.592171 1.06371e-16)
(0.064302 0.0075546 2.43707e-18)
(-0.000818853 -0.0020273 7.97139e-20)
(0.00583414 -0.0212491 -6.49136e-18)
(0.00328955 -0.00187272 7.34456e-18)
(0.000994113 4.78659e-05 4.60974e-19)
(-0.00114212 -0.00107061 -1.33237e-19)
(0.00513393 0.0333122 9.39541e-18)
(-0.00310517 0.00459252 -4.77107e-18)
(-0.00133159 0.000599135 2.54755e-19)
(-0.00101998 -2.6984e-05 -1.7911e-18)
(-0.00568564 -0.000175086 -1.07339e-18)
(-0.00250623 2.20059e-05 -1.39427e-18)
(-0.00142889 -0.000195579 -9.71722e-19)
(0.116169 0.284194 -1.47857e-16)
(-0.00509708 -2.24176e-05 -2.44353e-18)
(0.00455689 -0.00105939 -6.02694e-19)
(-0.000188363 2.9045e-05 -1.0973e-19)
(-0.00496498 -3.7404e-06 2.78852e-18)
(-0.0810006 0.190124 4.94615e-17)
(-0.0428057 0.0545807 5.76167e-17)
(-0.000232878 0.0110494 -4.31926e-17)
(0.000389718 0.00341286 -1.88105e-18)
(0.0281465 0.0036619 5.31623e-18)
(0.00387273 2.07068e-05 1.79738e-18)
(0.0967184 0.224733 -1.68858e-18)
(0.110061 0.0690397 -1.11603e-16)
(-0.000522767 0.000735524 -2.10373e-18)
(-0.345097 0.157273 1.33709e-18)
(0.0109149 -0.000898085 2.76155e-18)
(0.000278752 0.000510215 -7.18228e-18)
(0.379621 -0.0478975 -4.81673e-17)
(0.144546 0.249865 6.21257e-18)
(0.0043135 0.00130053 -1.03584e-19)
(-0.0188236 -0.00471041 3.56595e-18)
(-0.05117 -0.0306235 5.98143e-17)
(-0.00126176 0.00166432 -5.38594e-18)
(-0.000980049 0.00755504 3.50482e-18)
(0.00469822 -0.00109981 7.98621e-18)
(-0.00140997 0.00202975 3.76321e-18)
(-0.175653 0.0870311 2.17674e-18)
(-0.00718879 0.00946873 1.83825e-18)
(-0.000541789 0.000311834 -6.0461e-20)
(-0.00202905 0.00143185 -2.75193e-18)
(0.00050102 0.00324319 -1.13276e-17)
(-0.0364113 0.0310282 2.55131e-18)
(0.00166325 0.0070987 1.31803e-16)
(0.00104708 0.000405624 -4.45101e-18)
(-0.000495634 -5.13374e-05 -4.21601e-18)
(-0.00386442 -0.000430762 -3.36144e-19)
(0.0526886 0.0447404 8.33141e-17)
(-0.662878 -0.0292215 1.16895e-17)
(0.0942259 0.0486718 7.24613e-18)
(-0.00500776 8.62839e-05 -2.0185e-19)
(-0.00779839 0.0103598 -1.08199e-17)
(-0.000949921 0.00776611 2.81464e-17)
(0.02571 0.0455167 -1.16871e-18)
(0.0256704 -0.015819 2.51233e-18)
(-0.00534401 0.000194483 1.65925e-18)
(-0.00601105 0.000150646 8.49974e-19)
(-0.00388376 -0.000419066 -2.2783e-18)
(0.00583134 -0.0196311 1.65744e-17)
(-0.00406929 0.00107409 -6.08489e-18)
(0.110272 -0.0433307 9.88495e-19)
(0.00271184 0.000135487 -1.24527e-18)
(-0.00327135 -0.00027239 4.07121e-18)
(0.416853 0.172398 -7.88225e-18)
(0.111436 0.280605 1.3284e-16)
(-0.41987 0.264836 1.56837e-18)
(-0.00199057 1.70265e-05 -2.4439e-18)
(-0.0891737 -0.121869 2.41578e-17)
(-0.00465685 0.000740419 -1.30425e-18)
(0.0102761 -0.00331243 5.7259e-17)
(0.101924 -0.123966 -1.72346e-16)
(-0.0838896 0.272281 6.02411e-17)
(-0.00086127 -0.000260909 -7.47841e-19)
(-0.0014887 -0.0103654 -3.66025e-18)
(0.0856411 0.0225719 1.12504e-17)
(0.141169 0.355717 -6.19804e-18)
(0.109251 0.390565 -3.70069e-17)
(0.00131421 0.00508548 -7.88255e-20)
(-0.00394683 -3.85846e-05 -1.44229e-18)
(-0.0038308 0.00394936 -1.16712e-17)
(-0.0042144 -9.03775e-05 9.20633e-19)
(0.00117114 -0.000141644 -2.56212e-18)
(-0.00369524 0.00104173 -1.80667e-18)
(-0.0058335 9.55835e-05 -5.32795e-18)
(1.31773e-07 -1.00536e-05 1.14355e-18)
(0.0840773 -0.0338129 -1.37115e-18)
(-0.00232141 0.000752328 -1.62842e-18)
(-0.0037933 -0.0308661 9.38457e-18)
(0.000930456 -0.00942618 -7.77708e-18)
(-0.0666508 -0.110575 -2.22691e-17)
(-0.00542459 0.000163091 1.32689e-18)
(-0.00265614 0.000606568 1.17237e-17)
(-0.0153934 0.38557 -7.18661e-18)
(0.000890921 0.00945763 -7.20674e-18)
(-0.127294 -0.806059 2.3757e-18)
(0.0242066 -0.0156137 -6.09018e-18)
(-0.00615606 -0.000296467 -4.77751e-18)
(-0.00108902 -0.000473101 -3.84485e-18)
(0.000806407 0.00039361 -5.64867e-18)
(-0.0826357 0.0292624 -3.26554e-18)
(-0.00787893 2.28968e-05 -2.28425e-18)
(-0.413459 0.260217 -3.65125e-18)
(-0.0147589 0.0321567 1.42744e-18)
(-0.0370331 0.00089847 4.66012e-18)
(0.113114 0.0397139 -9.40434e-17)
(-0.109258 0.0228124 1.21351e-18)
(0.00509507 0.000206604 -2.07719e-18)
(-0.0017455 0.000327238 -4.67683e-18)
(0.0618929 0.042552 8.06826e-18)
(-0.0867046 0.0208829 2.7764e-17)
(-0.00445485 0.000811367 -4.16792e-18)
(0.125876 -0.112416 9.91447e-17)
(0.0065802 0.000143969 -1.01682e-18)
(-0.00772589 0.00114629 -5.27456e-19)
(0.0473123 0.00719899 1.78804e-18)
(-0.00757873 -0.000166208 2.56663e-18)
(0.032761 -0.0142778 -5.48241e-18)
(-0.00471275 0.000105887 1.65659e-18)
(0.063172 0.88232 -8.87731e-17)
(1.28588e-05 7.60222e-05 7.90218e-19)
(-0.00255704 -0.000977626 -5.18843e-19)
(0.484056 0.383146 -4.4934e-18)
(-0.000267135 0.0108449 -4.84715e-17)
(-0.00528121 0.0249244 -5.00892e-19)
(-0.00109969 0.00456709 -9.82835e-18)
(-0.00458067 -1.00652e-05 -4.86334e-18)
(-0.00582312 -0.000386631 -9.72259e-19)
(-0.271554 0.202895 1.66236e-17)
(-0.00400735 -0.0232442 1.72583e-17)
(-0.00817474 -5.56843e-05 1.14093e-18)
(0.00403986 0.00127015 1.75777e-18)
(-0.00418848 0.00688981 1.13367e-17)
(1.02688e-05 0.00792676 2.27582e-17)
(-0.0091305 0.0232597 -1.4223e-20)
(-0.284619 -0.0311926 6.67423e-18)
(-0.00247229 0.00119168 4.12887e-19)
(0.00133091 0.000217378 -4.0301e-18)
(0.00687944 0.0195333 1.82157e-17)
(-0.00384637 -2.92306e-07 -1.67614e-18)
(-0.0837683 0.294391 -8.25839e-18)
(0.0113437 0.0165989 8.72042e-17)
(-0.0028306 0.000642162 5.48431e-18)
(0.00407637 0.00126428 -5.98271e-18)
(-0.00125437 -0.00108318 -8.44265e-20)
(0.00648532 2.41816e-05 -3.24177e-18)
(-0.0054748 -0.000360092 7.03151e-21)
(-0.0620464 -0.281997 1.58153e-18)
(-0.00130333 0.0106837 2.1995e-17)
(-0.218164 -0.233668 5.18625e-17)
(0.000129781 0.00573546 5.43938e-18)
(0.00388509 -0.000104866 -3.235e-19)
(0.0134773 -0.0118519 -1.01118e-17)
(0.00100904 0.00436411 7.3999e-18)
(-0.0381403 0.359292 4.76274e-17)
(9.0674e-05 0.00480116 -1.18971e-17)
(0.00427945 -6.55787e-05 3.17835e-18)
(0.00311697 -0.00407934 -1.10312e-18)
(-0.0480699 0.0475225 -1.26662e-17)
(-0.00263866 0.000562238 -4.19109e-18)
(-0.00116622 0.000547838 5.39889e-18)
(-0.00156214 0.000659285 3.8297e-18)
(-0.00822339 9.36586e-06 7.9939e-19)
(-0.0039056 0.000882706 -7.88133e-18)
(-0.00073986 -0.000818485 -4.93168e-18)
(-0.00389789 0.00111547 -5.94931e-18)
(0.00198638 0.000370011 -1.73263e-18)
(-0.00281221 0.00187929 -7.45126e-18)
(0.00296714 -0.00223977 2.35263e-18)
(0.0419156 -0.0106158 -1.97099e-18)
(-0.0147275 -7.27517e-06 8.24269e-19)
(-0.00443485 0.0093836 5.29355e-17)
(-0.00298702 0.00421491 2.66512e-17)
(-0.0142171 0.0357757 -1.1252e-18)
(0.0927002 0.219729 -4.96244e-17)
(0.000987458 1.00092e-05 -5.23648e-19)
(0.420042 0.154099 1.22966e-17)
(-0.0357277 -0.00545048 -1.76089e-17)
(-0.00206655 -0.000104983 1.54982e-18)
(-0.00244162 1.00254e-05 1.24736e-18)
(-0.00771641 0.0005518 -1.25239e-18)
(0.180877 -0.669742 3.87107e-17)
(0.0307446 -0.0162586 2.20793e-17)
(-0.00274979 7.62147e-06 -5.87368e-19)
(0.00512583 0.000241504 2.66846e-18)
(-0.00668125 0.0011459 4.30369e-18)
(0.000464588 0.0115591 -2.51506e-17)
(-0.0220949 0.0313066 -1.20438e-18)
(-0.317994 -0.39004 3.17435e-17)
(-0.00991495 7.96749e-05 -3.06003e-19)
(-0.00112013 0.000909982 8.04473e-19)
(-0.000933133 0.00683567 2.32779e-17)
(-0.182018 -0.0553981 -8.26191e-17)
(-0.0408597 -0.461456 6.27909e-17)
(-0.0025278 0.0037813 -3.27092e-18)
(0.00600761 -0.00162359 -3.7405e-18)
(0.143438 -0.973659 -3.80909e-17)
(-0.15306 -0.332267 -2.53134e-17)
(0.0374879 -0.0356911 -4.72949e-19)
(-0.00373495 0.00177729 -5.85678e-18)
(-0.000772127 -0.000427105 2.48197e-18)
(-0.142213 0.241661 1.99967e-17)
(-0.0061845 0.000503142 -7.61479e-20)
(-0.0284111 0.0278397 1.29126e-18)
(-0.118196 -0.0388097 -1.40006e-17)
(-0.00563715 -3.9937e-05 4.69852e-19)
(0.0041417 0.016218 4.32631e-17)
(0.00130143 -0.0067175 -5.99992e-18)
(-0.0345932 0.107232 -8.2141e-17)
(-0.00564293 -0.000397331 1.72024e-18)
(-0.299931 0.169425 -1.49266e-17)
(0.00648606 -0.123647 2.75658e-17)
(0.0085219 0.000922012 -7.80327e-20)
(-0.0903946 -0.242048 1.16039e-16)
(-0.00492082 0.000417623 1.07464e-17)
(0.0190535 0.0465047 -2.86816e-18)
(-0.000498724 0.000111991 7.30135e-18)
(-0.00338183 0.000309988 6.71265e-19)
(0.00266032 0.000454913 2.31099e-19)
(-0.00492011 0.000371521 4.55496e-18)
(-0.327295 0.0973429 8.52225e-17)
(-0.00327314 0.000406572 -7.64558e-18)
(-0.00351122 -0.000328475 1.51847e-18)
(-0.000395263 0.00324826 -1.0577e-17)
(-0.00498109 3.19024e-05 -2.09332e-18)
(0.000551027 -0.000439697 2.31562e-18)
(-0.0193604 -0.00144895 8.29968e-20)
(-0.000938159 0.000733821 -6.47805e-18)
(0.0118698 -0.000510326 4.61802e-18)
(0.00107914 0.000373499 -4.58939e-18)
(-0.000439539 0.000301771 4.0628e-18)
(-0.0321043 0.370218 1.34614e-17)
(-0.000481138 0.0111527 -1.34891e-17)
(-0.00231308 0.00359326 4.715e-18)
(0.132588 -0.999472 -1.30486e-16)
(0.0023759 -0.00235283 -3.60877e-18)
(-0.00245844 0.00135161 1.05661e-17)
(0.00105974 0.000976572 3.73043e-18)
(-0.00481178 -0.000402473 -8.75043e-20)
(0.0747709 0.0533016 1.25598e-16)
(-0.00359819 -0.000286294 -5.73896e-19)
(-0.00937756 1.13518e-05 2.59442e-18)
(-0.0118869 -0.0442441 6.20491e-17)
(0.18217 -0.0567518 -1.36177e-17)
(-0.010398 0.00646207 -1.53099e-17)
(-0.00979576 4.28706e-05 -8.42539e-19)
(0.00284415 -0.000116722 7.15729e-18)
(-0.00209963 -0.0012696 4.27707e-19)
(-0.00242003 0.000251212 7.77853e-19)
(0.0312885 -1.03051 -6.97038e-17)
(-0.00257349 0.00186994 1.80791e-18)
(0.377268 0.511849 -2.3412e-17)
(0.000317503 -0.000784623 5.21675e-22)
(-0.00575658 0.00348807 2.56438e-17)
(0.00100868 -5.19476e-05 -1.67872e-19)
(-0.0877424 -0.0333951 -3.14153e-16)
(-0.0101615 -1.74529e-06 5.33289e-18)
(-0.0399392 0.0353043 -1.34585e-17)
(-0.00531866 0.000506626 3.64521e-19)
(0.0330601 0.0460418 1.90983e-18)
(-0.0541498 0.297857 8.22539e-18)
(0.00027152 6.67203e-05 -1.72765e-18)
(0.113183 0.21247 -2.90189e-17)
(0.00282677 0.000497209 2.10301e-18)
(-0.00239686 2.14574e-05 -1.76983e-18)
(-0.00342496 -0.000108319 7.13571e-19)
(-0.162503 -0.329476 1.12231e-18)
(-0.113551 0.261743 9.75491e-18)
(-0.00581889 0.00053833 -1.93383e-18)
(0.00125607 -0.00738652 2.77607e-18)
(-0.00383857 -0.000157478 -7.05683e-19)
(0.106409 -0.837455 -2.1013e-17)
(-0.0176652 -1.45815e-06 -6.72634e-19)
(-0.0183568 -0.00673192 7.6793e-19)
(-0.322777 0.188773 2.49421e-17)
(0.00100795 0.00457903 -2.65751e-18)
(-0.0137371 8.08202e-05 -6.0925e-19)
(-0.00322783 0.0108821 3.68528e-18)
(-0.00124608 4.43965e-05 6.02145e-18)
(-0.00243509 -0.00130296 -1.52333e-19)
(-0.00365371 -0.000502981 1.59622e-18)
(0.0417011 -0.0064788 3.45034e-18)
(-0.0110691 0.000100574 4.62452e-18)
(0.242714 -0.60771 -1.10512e-17)
(-0.00398892 0.000238567 -1.21547e-17)
(-0.00271147 0.000843639 -3.47993e-18)
(0.014518 0.00572003 -2.92188e-18)
(-0.00155913 0.0150439 -1.61661e-18)
(-0.0186219 -0.0390038 -3.00731e-17)
(0.0049692 -0.000949118 3.70776e-20)
(-0.141829 -0.030806 9.30511e-17)
(-0.00197733 0.000277081 3.5112e-18)
(-0.0235869 0.0360742 -4.28572e-19)
(0.000801426 0.000816777 -9.65149e-18)
(-0.00280248 -0.00113184 3.67225e-19)
(-0.00428895 0.000491502 -5.42596e-18)
(-0.00612165 0.000233034 5.65628e-19)
(0.0024867 -6.11185e-05 -7.19771e-18)
(-0.0207024 0.038732 3.98968e-18)
(-0.0007354 0.0118277 -3.35636e-20)
(0.0663377 0.163667 1.30069e-19)
(-0.0052621 -0.0579955 2.42657e-18)
(-0.00157559 0.00801013 -2.33507e-17)
(-0.00553547 0.00684053 6.36939e-18)
(0.0466421 0.0106846 -8.53665e-18)
(0.00242922 -0.00338846 1.77432e-20)
(0.00252307 -1.06652 1.03607e-16)
(-0.323251 -0.140623 4.22902e-17)
(-0.0375286 0.03986 5.84476e-19)
(-0.10372 -0.069383 -5.25826e-17)
(-0.0766425 -0.0434199 -1.70634e-17)
(-0.0312405 0.0323305 -4.78579e-18)
(-0.00135752 -0.00134194 -1.34876e-19)
(-0.00139012 0.00752722 -1.30304e-16)
(0.0142506 0.00683197 2.23159e-18)
(-0.00371012 -0.00105965 -2.14721e-19)
(-0.0407546 0.045009 4.00655e-18)
(0.000130904 2.7634e-06 -6.44061e-18)
(0.00346642 0.0383605 -8.22652e-18)
(-0.00993413 0.00536043 1.62168e-17)
(0.0362931 -0.00799593 -4.10193e-17)
(0.000145627 0.0055426 -4.75354e-18)
(0.149731 0.266332 2.73014e-18)
(-0.418206 -0.292267 8.54398e-18)
(0.0130996 0.00410274 5.22389e-18)
(0.0370281 -0.0114111 7.06114e-17)
(0.00205704 0.000905371 -1.65638e-18)
(-0.0155463 0.0560408 -1.17086e-17)
(-0.00193884 0.00335739 -1.15675e-17)
(-0.00605328 0.000469484 -9.05912e-19)
(-0.00530152 0.00119019 6.90075e-18)
(0.00413905 -3.58661e-05 -3.1245e-20)
(-0.00456016 -0.0209866 -1.06862e-17)
(-0.0882113 0.204777 4.58115e-17)
(-0.00312895 0.0343575 -1.81896e-18)
(-0.347671 -0.128691 1.14998e-16)
(0.00224726 -0.00311609 6.57413e-19)
(-0.00204917 0.00239373 -5.06922e-19)
(-0.0172892 0.0576193 5.62033e-17)
(-0.000437614 0.0100373 5.42556e-18)
(0.00874074 -0.00177628 -3.99407e-19)
(0.0214298 -0.0171176 -1.70943e-17)
(-0.00135314 0.00230971 -9.03734e-18)
(0.0162267 -0.00538857 -1.11809e-17)
(0.453358 0.324829 4.43233e-18)
(-0.00481342 0.000757373 -3.23989e-18)
(6.30133e-05 0.0112568 3.03783e-17)
(0.00519659 0.0201557 -3.33458e-17)
(-0.374207 -0.293891 -2.3128e-17)
(-0.00741106 2.27522e-05 2.63658e-18)
(-0.00408824 0.00415681 -8.9849e-18)
(-0.216727 0.176427 9.75326e-18)
(0.00953423 -0.00379734 8.77971e-19)
(-0.0886816 0.201293 -2.85816e-17)
(0.0402309 0.0416966 -9.64203e-19)
(-0.0378773 -0.12316 3.24825e-17)
(-0.00348887 0.00272592 -5.84532e-18)
(0.00218136 -0.00365539 -6.73437e-19)
(-0.00205201 -0.0013946 -2.74466e-19)
(0.00130934 0.000891882 -4.82341e-19)
(0.121277 0.0455169 -1.24971e-18)
(-0.00161191 -0.000111534 -3.68011e-18)
(0.13695 0.0513616 -2.53637e-18)
(0.0158984 -0.0654948 -4.38664e-17)
(-0.0331214 0.00752279 1.36504e-17)
(-0.00123881 -2.01011e-05 6.98194e-18)
(-0.0043862 0.000248078 -4.08293e-18)
(0.0033354 8.09395e-05 -1.74136e-19)
(0.00203413 5.11872e-06 2.53743e-19)
(-0.00195775 -2.3305e-05 6.49426e-20)
(-0.00342803 0.00049091 -3.01404e-18)
(-0.00632854 -0.0526511 -1.9811e-17)
(0.259792 -0.629322 4.12256e-17)
(0.00333484 -0.708801 -3.04124e-18)
(-0.002671 -6.24708e-05 2.87947e-18)
(-0.0725803 0.0288655 -2.50051e-17)
(-0.0102978 0.000169168 -1.83429e-18)
(-0.487926 -0.123965 1.9807e-17)
(0.0228493 -0.000276949 3.51558e-18)
(-0.00203157 0.0100637 -1.12311e-17)
(-0.000430781 0.00779146 -3.46407e-17)
(0.0191037 -0.117868 1.93761e-17)
(-0.00344191 -8.11259e-05 2.23631e-18)
(0.00061129 0.00049334 2.89595e-18)
(-0.00343481 0.010387 -9.33417e-18)
(-0.00472441 0.000504966 2.50641e-18)
(-0.00299694 -0.00125817 -5.92254e-19)
(0.0152388 -0.0238275 1.34191e-17)
(0.0367096 -0.302067 -3.00359e-17)
(-0.000702819 -0.000255346 8.5809e-19)
(0.11464 0.0254042 -1.12489e-17)
(-0.133459 -0.52984 -2.17706e-17)
(0.00318048 -0.00379839 -3.45318e-19)
(-0.161341 0.195041 -1.22341e-17)
(-0.142633 -0.542898 -4.79684e-17)
(-0.00227035 -0.00089687 6.26225e-18)
(0.00204933 -0.0271175 -1.18584e-17)
(0.00883086 0.00167705 2.39127e-18)
(-0.00199098 -0.00129093 -4.81861e-18)
(-0.00341251 -0.0001003 1.49904e-18)
(-0.000889387 0.0120736 -4.73144e-18)
(-0.111296 -0.608042 2.81368e-18)
(-0.275634 -0.187242 4.24166e-17)
(-0.00238272 0.000609185 6.96314e-20)
(-0.00190194 0.00145425 3.59882e-18)
(0.00231948 -0.000420012 -6.53153e-19)
(0.00440216 -3.36575e-05 -2.65356e-20)
(-0.00107453 0.000605528 -3.65564e-18)
(-0.00182103 0.00119581 3.52594e-18)
(-0.00684237 0.0114306 -1.61132e-17)
(0.0226597 0.00174525 7.15548e-18)
(0.00527803 0.000333339 2.1726e-18)
(0.0263091 -0.285487 -7.6997e-17)
(0.00999519 -0.0051041 -3.15325e-18)
(-0.00159958 0.00753895 1.0005e-17)
(-0.00138585 -0.001173 -2.05123e-19)
(0.236901 -0.000224895 -7.89874e-17)
(-0.00033452 -0.00182541 -1.94808e-18)
(-0.014515 -3.04177e-06 -8.57753e-19)
(-0.0351374 0.00581004 -1.16294e-17)
(-0.00399798 0.00615599 8.15521e-18)
(-0.00603203 -6.17479e-05 -1.28785e-18)
(-0.00408089 0.000980045 3.15571e-18)
(0.000562535 0.000375399 9.57755e-18)
(0.00448639 0.000741554 -2.37442e-18)
(-0.00240931 -7.19159e-05 -2.01033e-19)
(0.0139981 0.00323985 1.19221e-17)
(0.117149 -0.0119137 2.49693e-17)
(-0.00123889 0.00051897 -2.81913e-18)
(0.0441665 -0.00489641 2.67997e-18)
(0.00894456 -0.00171177 -6.99287e-19)
(-0.00271866 -0.00105899 -1.98667e-19)
(-0.0310894 -0.0214163 2.47004e-17)
(-0.493138 0.0615225 5.07727e-17)
(0.0797899 -0.0533094 3.73221e-18)
(0.00121172 0.000216407 -7.84336e-18)
(-0.00345123 -5.79222e-05 2.52256e-19)
(0.264108 -0.0295974 -9.45362e-18)
(0.000130311 0.00461238 3.78389e-17)
(0.18646 0.0287818 3.95212e-18)
(-0.00266894 3.44239e-05 6.60159e-19)
(-0.000894808 0.000514472 -6.03476e-19)
(0.171949 0.0110515 2.82555e-17)
(0.387071 0.623842 1.72896e-17)
(-0.00126118 -0.0088918 7.08338e-18)
(0.0353264 -0.012641 -1.32366e-17)
(-0.000218266 0.0105416 7.06526e-17)
(-0.00186003 0.000317148 -5.55607e-18)
(-0.00113793 -2.84048e-05 -4.61025e-20)
(-0.00235097 -0.000908477 -3.22847e-18)
(-0.302939 -0.14142 1.79717e-17)
(-0.0103402 3.25299e-05 -4.76051e-18)
(-9.4931e-07 -1.21985e-05 -1.07061e-18)
(0.134326 0.346817 -3.04924e-17)
(0.000412886 0.00529345 1.01702e-18)
(-0.0654291 -0.096385 -1.2659e-17)
(-0.00108411 0.00720043 -2.48975e-17)
(-0.00595289 2.76104e-05 2.57186e-19)
(-0.466238 0.0582341 -4.82063e-17)
(-0.0106072 -8.03689e-05 -6.6094e-18)
(-0.00126413 0.000757444 3.86682e-18)
(-0.0024476 -0.000765236 8.97917e-20)
(-0.00434046 0.0052265 4.19602e-18)
(-0.00530451 0.410764 -3.47261e-17)
(-0.00707024 0.000719471 2.77994e-18)
(-0.000778609 0.000751152 -3.47654e-18)
(-0.00401016 0.000540808 1.71343e-19)
(-0.00283578 0.000429653 -3.67471e-18)
(-0.0103266 0.000105023 3.60519e-19)
(-0.000630855 -0.00143023 -3.17389e-19)
(-0.0685307 -0.0505447 5.58929e-17)
(-0.00414275 0.00572903 -1.16062e-18)
(-0.00289907 0.00199105 -4.89271e-18)
(-0.00576987 5.46288e-05 -1.83865e-18)
(-0.00448427 0.0061195 8.35592e-18)
(0.00458485 -0.0304774 6.93728e-19)
(0.00808663 0.00145372 2.8937e-19)
(8.06323e-05 0.00559999 -2.90391e-18)
(0.000538389 -2.38487e-05 1.48557e-18)
(0.000630947 -0.000347128 -1.23068e-18)
(-3.85627e-05 -0.00124533 -8.344e-19)
(-0.104564 0.27657 -3.52335e-17)
(-0.53189 -0.222265 -9.0555e-18)
(0.00311797 -8.15402e-05 3.93986e-19)
(-0.316245 -0.170767 2.31443e-17)
(0.00197232 0.000939545 -9.05105e-19)
(-0.00340274 0.00274143 6.07287e-18)
(-0.156551 0.0287519 -1.13728e-17)
(0.000767345 0.0060637 -9.68818e-17)
(-0.000377569 -0.00101854 -8.41927e-20)
(-0.00586187 0.000888747 -2.86485e-18)
(-0.00198302 0.0101347 -4.54166e-17)
(0.0202598 -0.0112282 4.39829e-18)
(-0.01449 -2.07786e-06 -6.44507e-18)
(0.000918512 0.000171012 4.56294e-18)
(0.271565 -0.810205 -1.85075e-17)
(9.70857e-05 -1.77807e-05 3.0921e-18)
(-0.0239155 -0.0271238 -5.51612e-17)
(0.00337953 0.00128518 5.82483e-18)
(-0.00140384 0.00856668 -1.15608e-17)
(-0.00108186 0.00017799 -2.9011e-18)
(-0.0150856 -6.79145e-06 -3.68744e-19)
(0.0024359 0.000351445 3.84191e-19)
(-0.00731885 -0.00661079 -7.63073e-19)
(-0.000305839 2.3365e-05 3.49497e-19)
(-0.0039689 0.00365135 3.60246e-18)
(0.00147861 0.00492544 -2.13139e-17)
(-0.000831905 0.0111142 5.01311e-17)
(-0.00788329 1.41498e-05 -1.12312e-18)
(-0.00491568 0.000921123 1.19342e-18)
(-0.00144331 1.04914e-05 4.12311e-19)
(-0.00418692 0.00024945 -1.02316e-18)
(-0.00164604 -0.00122086 3.12133e-19)