/*--------------------------------*- C++ -*----------------------------------*\
| =========                 |                                                 |
| \\      /  F ield         | OpenFOAM: The Open Source CFD Toolbox           |
|  \\    /   O peration     | Version:  v2012                                 |
|   \\  /    A nd           | Website:  www.openfoam.com                      |
|    \\/     M anipulation  |                                                 |
\*---------------------------------------------------------------------------*/
FoamFile
{
    version     2.0;
    format      ascii;
    class       volScalarField;
    location    "150";
    object      ddt0(k);
}
// * * * * * * * * * * * * * * * * * * * * * * * * * * * * * * * * * * * * * //

dimensions      [0 2 -3 0 0 0 0];


internalField   nonuniform List<scalar> 
9793
(
-1.73287e-07
0.0063878
3.13138e-07
-0.00325264
7.00345e-07
8.4949e-06
8.72047e-08
0.00502858
-3.36006e-07
-0.017269
9.54919e-08
1.07701e-07
-6.00422e-07
-0.109205
6.50734e-07
8.12256e-07
3.44904e-07
-9.41868e-07
0.00500615
1.18115e-07
-3.12139e-07
-1.00032e-09
0.00317685
0.00403572
-0.116129
-8.29212e-08
-1.33515e-07
-3.70934e-07
9.03289e-08
1.52662e-07
-0.0187394
2.06332e-05
7.33991e-07
2.9145e-08
-2.52101e-07
4.06817e-07
-3.03755e-07
1.18131e-07
0.0248808
1.21951e-07
1.11895e-07
0.00855618
-0.00666036
8.78541e-08
-1.15497e-07
-2.95772e-07
-0.0311977
2.31728e-07
-7.0143e-07
-6.64491e-07
4.43874e-07
-5.32177e-07
1.72174e-07
2.17125e-07
-1.48812e-07
-0.00617661
-8.04065e-07
-9.77357e-07
-6.47943e-07
2.81642e-11
1.33784e-08
-1.25261e-06
1.45175e-07
1.22955e-07
-1.39258e-06
-2.78197e-07
-0.00842102
4.53907e-07
-8.28091e-08
0.00826813
-6.9732e-08
-2.69122e-07
0.00427329
-0.0379364
-0.0472772
1.92119e-08
-1.28814e-07
0.0686884
1.61566e-07
1.59545e-07
-7.39381e-07
0.00637985
2.26971e-07
2.20602e-07
-1.05396e-07
-1.16677e-05
7.03251e-07
-5.2442e-08
0.0259093
-1.54641e-06
0.00528214
-0.00946743
-0.00702767
1.80231e-07
-0.0264567
-3.21705e-07
-0.0704779
2.3817e-07
1.31604e-07
3.50115e-07
-0.0509209
2.6966e-07
0.0586212
-7.60545e-08
-0.0340118
0.0666114
-0.0374745
-2.47436e-07
1.02371e-07
2.72307e-07
-2.32173e-08
0.00310339
-5.08793e-05
-0.0113182
-7.25704e-08
6.27475e-07
3.74649e-07
-7.53009e-07
-0.0114258
-8.7222e-08
-0.0528632
-4.0391e-07
0.000936889
-5.9186e-08
-3.18881e-07
-2.05319e-07
4.01967e-07
-0.0204956
-2.46915e-05
-4.01221e-05
-5.35768e-07
-4.66382e-08
-2.84312e-07
3.39769e-07
2.75393e-07
-8.50769e-07
6.35081e-05
3.48326e-07
-4.23858e-08
2.26998e-07
0.00859177
4.51926e-07
-8.85246e-07
2.01101e-07
-0.0333893
-4.77859e-05
-1.04821e-07
-0.0721327
-2.52053e-07
-1.5604e-07
6.71719e-08
0.0112588
-1.12078e-07
-2.07516e-07
6.04116e-08
0.00284673
3.06545e-07
-2.2588e-07
9.9467e-05
2.16489e-08
-1.19593e-07
-1.01858e-07
-3.91962e-07
-2.46074e-06
-4.76232e-07
0.0611158
0.0210562
-4.75054e-07
-7.71139e-07
-3.77625e-07
-5.51601e-07
-0.00243798
-0.0164502
0.0100895
-6.00852e-07
6.0198e-06
-1.06792e-06
-3.83642e-06
4.91869e-08
3.84853e-07
-0.0301918
-0.03651
-1.28281e-06
-3.59147e-07
-4.31503e-07
-5.14325e-07
0.000534352
-0.00227265
-0.0455209
0.0426356
-1.07099e-07
-0.00750122
-6.37149e-06
-3.18785e-08
-4.64305e-07
2.84224e-07
8.46203e-06
-8.06586e-07
-9.36472e-07
-2.23788e-07
-2.62286e-07
-2.6684e-07
4.42009e-07
-8.78469e-08
0.00349012
-4.27326e-07
3.45532e-07
-4.26407e-07
-9.33372e-08
1.48493e-05
2.77069e-07
0.0193676
-5.0427e-07
0.0666202
3.72559e-07
2.80798e-06
4.71258e-07
-9.21297e-07
4.53075e-07
-5.06727e-07
4.32414e-07
-2.3993e-07
1.40349e-05
0.0629401
5.26112e-08
-3.24461e-07
-2.39029e-07
0.00291877
-5.04743e-08
4.99722e-08
-0.00877961
-1.34433e-05
2.29379e-06
1.55154e-07
-4.97095e-07
-8.05804e-07
-0.0168083
-0.0127491
-1.12456e-06
4.13006e-07
0.00467705
-1.84429e-07
5.85976e-08
-2.58201e-06
-1.22527e-06
-2.09383e-07
3.84804e-07
2.20083e-07
-1.39704e-07
1.40461e-07
1.04915e-07
2.06127e-08
0.00320981
-3.32194e-07
0.0346292
3.68705e-07
-9.13455e-07
-3.08826e-07
-0.008184
-1.07556e-07
0.00773
0.0276997
3.24211e-08
-9.98845e-09
0.00549306
-1.13367e-06
1.71921e-07
-1.3399e-06
0.0217216
5.51432e-06
-2.30842e-07
1.4237e-06
-5.41047e-07
0.0482872
-0.000429925
-2.01413e-07
0.013289
-9.61416e-07
-0.0137843
5.22535e-05
0.0106593
-0.0517378
-1.16714e-05
-5.82809e-07
2.35588e-07
-1.60689e-07
-8.00915e-08
-5.07141e-07
3.51591e-06
-7.98466e-08
-1.47058e-07
-1.53035e-07
-8.29702e-07
-4.52862e-07
-2.6867e-07
-0.0015152
-6.73679e-07
7.62078e-07
-2.04755e-07
-6.71206e-07
0.00307901
-6.05587e-06
1.51377e-08
1.30667e-07
3.76943e-07
3.46353e-07
-0.00804851
0.00971804
-7.21111e-08
0.0183645
-3.11731e-08
4.49921e-08
-0.000366473
-9.15392e-05
6.93342e-07
1.34917e-07
0.000218815
-1.98936e-07
-3.63565e-07
7.4633e-07
-1.80432e-07
-0.0792633
-2.51876e-07
2.06488e-08
-2.86275e-07
1.81576e-07
-5.3366e-07
1.78227e-06
1.86389e-07
-1.89357e-08
-5.85469e-07
-0.00184235
0.0268705
-0.0136272
-8.43182e-07
7.95964e-09
-3.37737e-07
3.93494e-05
-2.87859e-07
-8.83101e-07
-1.02233e-06
-6.14926e-07
1.10965e-07
-3.97399e-07
-0.0114454
4.20824e-07
-4.80185e-07
0.00775454
-0.00642369
0.0365282
-3.93603e-07
-0.048661
-9.58031e-08
1.63855e-06
-0.00758664
-0.00640363
4.6697e-07
4.90973e-08
5.90509e-05
0.00821095
0.00472666
5.33011e-08
-5.90706e-07
-1.79261e-07
-7.67128e-07
2.43813e-07
-4.2364e-07
-8.56256e-07
3.5708e-11
-0.0132906
-3.55224e-07
3.83933e-07
1.58001e-07
3.01765e-05
-8.95326e-07
2.8666e-07
0.00454803
-2.97305e-06
0.0440548
-3.61785e-07
-8.9314e-07
3.88062e-07
1.55036e-07
-5.60085e-05
-1.16993e-06
0.0273104
-1.17763e-06
4.69455e-07
-0.0143401
-0.0803308
7.89987e-07
-1.26669e-07
6.57684e-05
-1.95109e-06
-7.03864e-07
-0.00665633
1.01252e-06
-1.12399e-06
3.89188e-05
-1.10278e-06
-1.03851e-06
-8.10232e-07
0.0182842
2.44948e-08
-5.06091e-07
0.00714682
-3.33229e-07
2.62732e-06
1.10446e-08
-6.6844e-07
-8.0515e-07
-0.00675241
2.61085e-07
-1.26844e-06
6.07169e-07
-1.62292e-08
-2.01162e-07
3.02086e-06
-0.0423575
-3.62784e-07
2.71378e-07
-7.00073e-06
-5.44428e-07
0.00255435
-3.97429e-07
-4.45476e-07
6.59545e-07
-4.6304e-07
9.98012e-07
-8.37961e-07
-0.0514543
2.06816e-07
0.0108055
-2.22565e-07
1.62943e-07
-6.33455e-08
1.11357e-07
-0.0138955
1.51641e-07
6.38657e-07
4.66134e-07
2.40906e-05
-3.18649e-07
-6.25494e-08
-1.93525e-07
-1.21624e-06
-4.55986e-07
1.0095e-07
-6.17943e-07
3.23005e-07
1.2214e-07
-1.1446e-07
-2.48168e-06
-2.14129e-06
5.11911e-06
-1.15452e-07
-2.1004e-06
-0.000368885
-8.16647e-08
0.00664918
-1.42608e-07
-5.00199e-07
-3.90433e-07
-1.19741e-06
-0.011825
-6.47044e-07
-4.34855e-07
7.81864e-07
-9.91701e-07
-3.67372e-07
-7.50525e-07
0.0793393
-1.43538e-06
-1.69036e-07
-4.6503e-08
-0.0300284
0.0317177
-1.30782e-07
4.45543e-07
0.051559
0.0455541
-2.63456e-06
-4.43925e-07
-1.05184e-07
0.00618648
-8.60108e-07
-6.19317e-07
5.50091e-05
-9.05032e-07
2.31418e-06
3.22012e-07
-0.0048907
-7.49648e-07
0.00298531
-2.472e-05
7.569e-07
-0.00463935
-6.64229e-07
-3.70293e-05
-5.02019e-08
-3.74735e-07
3.85852e-07
-6.66047e-07
0.00195817
-3.88312e-07
-6.44145e-07
1.34103e-07
-8.41514e-07
9.05998e-08
4.25954e-08
5.03127e-07
-1.94925e-09
1.7333e-07
-5.27133e-08
0.00335017
-1.94845e-07
-1.14666e-07
0.00977843
-1.80056e-07
-3.81036e-08
1.49297e-07
-7.56633e-07
-0.0117875
-6.60086e-07
-1.37652e-06
-0.0198821
0.0122316
-3.125e-07
-1.37689e-06
4.27252e-07
-3.67039e-07
-3.71503e-07
0.0374054
-3.5584e-07
-0.032127
-5.69379e-07
1.85935e-05
1.53687e-07
-0.0092032
-1.43672e-06
-1.89532e-06
-7.4079e-07
-2.89028e-06
0.00410467
6.04011e-08
0.00815071
5.56742e-07
-3.57595e-07
-5.42207e-07
-0.0399537
0.000370692
-8.65382e-07
4.06421e-07
-7.04111e-07
0.0559991
-2.49306e-06
-9.27523e-08
0.00577019
7.05523e-08
-2.01671e-06
-4.07948e-07
-1.89792e-07
-4.33038e-07
-6.20388e-07
-2.71715e-06
-1.58615e-06
0.0604146
-5.81196e-07
-6.93163e-08
5.83144e-07
8.84137e-08
2.90882e-05
8.66066e-07
-0.0148337
-1.40448e-07
-1.34433e-06
1.83803e-07
-5.48595e-07
-5.52034e-07
-8.97095e-07
3.73887e-07
-4.24889e-07
2.01733e-06
0.01282
7.28102e-07
-7.98528e-08
-7.78721e-08
-0.000149816
3.80783e-07
0.0320289
0.0666194
-3.15187e-06
-0.0167388
4.95959e-05
-5.48004e-07
-2.45607e-07
4.48843e-05
7.4079e-07
-6.25261e-07
-1.16503e-05
1.86768e-08
3.9544e-06
-2.28037e-07
8.98231e-06
-1.90618e-07
-0.00577253
-0.0200431
3.03338e-07
7.29158e-06
2.93069e-07
-2.17494e-06
-3.91217e-07
-8.47401e-07
-6.83609e-07
3.52656e-07
3.63603e-08
-0.0061532
-3.82202e-06
-0.0128994
3.22176e-07
2.78705e-07
-0.00397204
-2.07478e-06
9.47821e-07
-4.0208e-07
-1.48918e-08
-2.12389e-06
0.00106057
-7.52098e-07
2.80692e-08
-8.04764e-06
-0.012533
-1.05981e-06
-2.22414e-07
0.0357249
3.87648e-07
0.00121799
-2.82069e-06
-2.06203e-05
7.91112e-08
3.28563e-07
-2.53481e-07
2.05839e-07
-4.90255e-05
-2.42336e-07
-7.21441e-05
1.51981e-06
-5.89255e-07
-1.86033e-07
-6.57465e-07
1.49091e-07
9.84615e-08
-2.52332e-07
-3.74769e-07
-5.13734e-08
0.0235039
-0.0120096
-4.00792e-07
-2.73548e-05
-1.43297e-06
0.0286726
7.04327e-07
1.03502e-07
-3.03698e-07
-7.19501e-06
-4.9096e-07
6.18929e-08
-6.66799e-08
-6.40915e-07
-5.42931e-07
7.71042e-08
-0.00261247
-2.04819e-07
-4.05625e-05
0.00176778
3.54759e-07
-0.0235657
-0.00888646
-1.20527e-07
4.26121e-07
7.66148e-07
-5.57003e-08
-5.40313e-07
1.35545e-08
0.00233797
0.0090065
-3.11453e-07
-2.47043e-07
2.80952e-07
3.9542e-07
5.09539e-07
3.61048e-07
-8.40472e-07
5.98482e-07
8.17057e-07
0.015178
4.47353e-07
-5.85399e-08
-3.1567e-07
-0.00675787
-5.27664e-07
-2.09706e-06
-7.21132e-07
8.39253e-06
-9.68312e-07
-6.42734e-07
1.25971e-07
2.01083e-07
-3.46648e-07
3.2832e-07
7.50003e-05
2.99887e-07
-2.74543e-06
1.04476e-06
-5.0721e-07
2.97834e-05
0.0204204
-3.28451e-05
1.7288e-07
-6.10161e-07
-0.000191074
1.73406e-07
-9.76495e-05
-4.91217e-07
2.87695e-08
-0.013378
0.0129258
1.65767e-07
-1.72455e-06
-7.44144e-08
-1.11723e-07
-1.71034e-07
-6.93041e-09
-0.0064956
-1.5161e-06
1.35152e-11
0.00905739
-1.3303e-07
3.73519e-06
-3.20218e-07
-8.0688e-07
0.0102253
-1.58934e-06
-1.16571e-07
-1.08482e-08
-4.01088e-08
0.0024456
-1.0128e-06
-1.26112e-07
-5.09591e-07
-3.0239e-07
-1.43978e-06
-4.24572e-08
-0.0227559
-1.58848e-08
8.08074e-08
-8.17241e-07
-1.07048e-07
4.22569e-07
7.93897e-07
-2.42686e-07
8.06672e-08
3.69047e-08
4.15286e-07
0.00158126
0.00220216
1.17799e-07
0.0039462
2.76066e-07
8.98816e-08
0.00498854
8.38265e-06
-8.32171e-08
-8.53763e-07
9.06539e-07
-2.67145e-07
-2.09135e-06
1.36514e-07
0.0664569
1.40978e-08
1.0683e-07
5.83944e-07
-2.28344e-07
-1.65365e-07
-2.14084e-06
3.88212e-07
-2.79e-07
-2.23041e-07
-1.91657e-07
8.19926e-08
-1.39226e-06
-1.09118e-06
-6.05566e-07
-2.17787e-07
-4.69396e-07
-2.91835e-07
-6.42241e-07
1.95214e-07
7.94688e-07
2.44809e-07
0.0205393
-1.94856e-08
1.95349e-07
2.90567e-07
-5.81579e-07
-0.0106715
-0.000756749
-9.90277e-07
0.00495067
-0.0208681
-4.61569e-07
-2.77398e-07
6.21994e-08
-6.76735e-07
3.40878e-07
-2.70234e-05
-8.19114e-07
3.43873e-07
-8.65189e-07
-1.53338e-07
-2.09017e-06
-5.39447e-07
-3.72195e-07
9.55458e-06
-3.03397e-07
-5.10929e-07
-6.13382e-07
1.87186e-07
5.35634e-08
1.78968e-06
-8.32763e-08
-0.0218129
0.0540813
0.00914475
-1.62225e-07
4.71339e-08
1.18349e-05
-2.94648e-05
1.05892e-08
-2.39115e-07
-4.40617e-07
-6.28331e-06
7.18538e-08
0.00129303
-8.38054e-07
4.676e-08
-3.79714e-07
-3.86192e-07
4.62101e-07
0.00171851
-0.0185824
0.00158328
-1.06628e-07
-0.0131008
-1.19604e-07
-0.0198744
0.0513534
2.84574e-08
-8.30534e-08
1.20593e-07
-4.43919e-07
-1.11554e-06
0.0303146
-3.19215e-08
2.70916e-06
-7.74372e-09
-0.000362169
-0.0471281
-3.11382e-05
1.15776e-07
2.6651e-07
-1.93741e-06
-0.0158457
-3.1513e-07
5.31643e-06
8.48703e-06
-1.74552e-07
0.0871679
0.00215698
1.85026e-07
9.55005e-08
-1.65146e-06
-3.35801e-06
0.0132101
-0.00354005
1.22929e-07
-5.77595e-05
4.24828e-07
-1.65519e-06
5.00317e-07
-0.00740038
-0.00659659
-9.86737e-07
-1.14349e-07
2.79182e-07
-6.02016e-07
4.15101e-07
-0.0338231
-9.49965e-07
0.0287049
-2.74707e-06
-9.40663e-07
-5.63921e-07
-7.11938e-07
-8.51895e-06
2.03729e-07
-0.0245891
-0.0306027
-0.000156101
-2.46891e-08
-4.47009e-07
1.84772e-07
-4.25163e-07
8.64381e-08
0.000710592
-7.28127e-05
-3.99527e-07
1.68159e-07
5.36858e-08
-8.26372e-06
2.67987e-07
-3.49139e-07
-2.08015e-06
-2.40551e-07
-2.32255e-08
-4.63003e-07
6.64336e-07
-3.04351e-07
-1.24744e-07
0.00341345
3.65374e-07
-9.96488e-07
-5.17761e-05
-4.54983e-07
-5.03595e-07
1.38708e-07
3.34184e-07
-5.57706e-08
-1.36514e-06
1.99637e-07
-0.00487914
0.000384779
3.19158e-07
2.78297e-07
-4.01011e-07
-2.06532e-05
1.48623e-08
-0.0417332
-2.54512e-08
4.4944e-07
-1.746e-06
1.73842e-05
-3.63255e-07
-7.39893e-07
-1.42907e-07
-0.0400163
-0.00675053
-6.01252e-06
-5.40189e-07
-1.09179e-06
7.68945e-07
7.6094e-07
-0.0116875
-1.03543e-07
-6.06699e-05
1.57631e-07
-2.56735e-07
1.16859e-07
-1.61452e-06
-1.22552e-06
-6.11761e-07
-5.88617e-07
-0.0242891
-1.43412e-06
-1.72946e-07
-8.30526e-07
-6.77738e-08
0.00649595
0.00174396
5.69791e-07
-0.0170276
-8.31749e-07
-3.31674e-07
4.00175e-07
0.000176103
8.75838e-08
-6.78295e-07
-0.0744122
-1.26736e-07
-4.76251e-08
-3.18759e-07
-4.08329e-06
0.00373745
0.00785247
-4.37159e-07
-1.12382e-07
8.5899e-06
-1.0795e-07
0.00333986
1.23184e-06
-3.90111e-07
-6.65373e-07
1.69334e-07
6.7252e-08
-1.27314e-06
-1.30726e-06
-4.53026e-06
3.78619e-07
-1.04979e-06
9.21372e-09
5.23224e-07
-3.74572e-07
1.58532e-07
7.9826e-06
1.91686e-07
2.52272e-07
8.51012e-08
7.04808e-08
2.91988e-07
-5.19015e-08
0.0124411
6.27232e-08
9.26375e-08
0.00570396
-6.62681e-07
-0.0149148
-3.61509e-07
-0.000982792
-1.24393e-07
4.13445e-07
-6.63165e-07
2.3688e-07
-0.01481
-8.88729e-06
-3.75766e-08
-8.94777e-07
-1.58352e-07
-1.24631e-07
2.54366e-07
2.88662e-07
-0.0236077
4.20547e-07
-1.28286e-07
2.88856e-06
1.82832e-06
-0.000844747
1.95905e-07
-0.0254196
-1.15729e-07
-2.08148e-08
-2.63457e-07
2.35432e-06
-2.17807e-06
2.16615e-07
-0.0932895
1.8747e-05
-2.54788e-07
0.00645119
-2.79612e-08
-3.28105e-07
-1.50099e-08
5.92639e-08
1.75785e-07
3.71671e-08
0.00191973
-8.97413e-08
-2.95718e-07
2.22487e-06
3.05517e-08
0.00259541
-6.14694e-05
-1.36727e-06
-0.0120159
-1.00934e-06
-1.00308e-06
-4.94276e-07
0.00632956
-0.019348
3.10838e-07
-4.59729e-08
-9.26964e-07
-0.000121426
-3.25554e-07
-2.60986e-07
-1.09687e-06
-3.099e-07
-2.13407e-07
-0.000799637
1.43592e-07
-2.64552e-07
-3.39629e-07
-3.41919e-07
-2.54735e-06
2.19504e-08
1.83324e-08
-3.4344e-07
1.28878e-07
0.0080219
0.000966203
4.6909e-07
5.51444e-07
4.90508e-07
6.4972e-07
-0.0292283
-0.00773898
1.17392e-05
-2.91629e-07
-2.2431e-07
0.0851139
-0.000192441
4.22227e-07
-0.0422938
-7.17265e-07
4.3606e-07
0.000850453
-3.91045e-07
-0.0388431
-0.0133751
2.07174e-07
-0.0210826
-0.000617592
1.83197e-08
1.18771e-07
-7.06545e-06
-0.0101172
4.0772e-08
-0.0152615
1.97414e-07
-4.42196e-08
2.93936e-07
3.43887e-07
-7.93082e-08
3.28639e-07
-9.38129e-07
-0.0225044
-3.54121e-08
-1.1329e-07
-1.257e-06
-1.46898e-07
1.61505e-05
4.21791e-07
-8.0809e-06
6.61014e-08
1.54101e-07
-4.06589e-08
-3.70321e-07
-4.48121e-07
-3.10349e-10
7.01233e-06
2.81712e-08
-7.24065e-07
-0.0135951
-0.0495226
-3.71737e-07
-2.32706e-07
3.73792e-07
3.58353e-07
-1.10559e-06
0.0240677
0.0322336
-1.3859e-06
-5.62563e-07
-0.0232613
0.00326177
1.3092e-07
-3.10793e-07
0.0764667
9.0681e-07
-2.32287e-07
2.0616e-07
-1.40408e-06
-2.79218e-07
-1.03716e-06
0.0837067
-8.28518e-05
-2.38858e-07
1.9426e-05
2.18045e-07
-0.0260299
0.026152
-0.0060118
2.88498e-06
3.2224e-08
3.91359e-07
-2.2115e-07
-1.19969e-06
-9.14357e-09
-8.96039e-07
-1.23202e-07
2.53623e-07
1.74858e-05
3.10477e-07
0.0114055
-2.17703e-07
-0.00675294
-5.61181e-07
2.31361e-08
-1.65959e-07
5.76541e-06
1.48338e-05
-2.29907e-07
-1.07827e-06
0.0737815
2.92099e-07
-0.00484108
-1.12263e-06
-0.0232283
6.12739e-07
0.00129782
4.9197e-05
-4.41059e-07
-1.27544e-07
-1.05704e-06
0.0155943
-0.0454917
8.889e-08
-1.12045e-06
-4.73489e-05
-5.16758e-07
-2.72e-07
0.05461
8.42344e-08
-2.84258e-07
0.000615884
-1.36273e-07
-3.6069e-08
-5.00881e-07
0.0380121
-4.78085e-07
3.076e-07
8.98584e-06
8.14529e-05
-2.1499e-07
1.51172e-07
-5.89737e-07
-1.512e-06
-7.00692e-07
-2.24437e-05
-5.41626e-08
-3.39644e-07
-1.02409e-06
-1.18121e-06
0.000735785
3.50892e-07
0.0109605
-0.000255588
0.00415975
1.07829e-07
1.51012e-08
1.33482e-07
4.5398e-07
2.7803e-07
5.48145e-07
0.00347934
2.14257e-07
-8.87315e-05
-1.77445e-07
4.33463e-07
-1.204e-07
-2.5189e-07
3.37208e-05
-0.0149616
-2.53577e-07
-0.0195684
-9.83365e-07
-0.0384816
2.10909e-06
-2.13481e-07
1.12971e-07
-7.80054e-07
8.64307e-08
-0.00397217
-1.88452e-07
-2.27615e-07
7.57849e-07
-2.11404e-07
-2.30453e-07
-2.77667e-07
0.00305171
-6.49239e-05
1.1455e-06
4.36188e-07
0.0289903
-9.57337e-07
-2.28265e-08
4.90666e-07
0.00098221
-1.88766e-07
9.51836e-08
-4.13311e-07
-1.37041e-06
3.11084e-07
-0.0941292
-1.0879e-07
2.38048e-06
-2.27164e-06
4.64516e-05
-6.02847e-06
-1.18266e-06
-1.7878e-07
-0.0175136
-3.6846e-07
-1.1005e-07
-1.16508e-06
1.96555e-07
-3.14086e-07
0.0591928
-2.13402e-08
-1.31809e-06
1.7392e-07
5.16251e-07
4.48581e-07
3.96716e-06
-1.75913e-07
2.90831e-07
-0.122702
-1.44574e-05
6.21524e-08
-1.00516e-08
-9.12937e-07
-0.00898638
-2.82424e-06
-1.40183e-05
1.31492e-08
-3.75571e-07
-1.64266e-07
-0.00813371
3.80369e-07
-0.000750001
-7.11739e-07
-0.0666721
-1.46975e-06
-7.62787e-07
-4.66344e-07
2.0523e-08
2.97362e-06
-5.79255e-05
-0.01808
0.00146107
1.32391e-05
-8.71823e-08
-2.31909e-05
3.89678e-07
1.54443e-07
1.06104e-06
-1.22695e-07
-2.70348e-07
1.30392e-07
1.47508e-07
5.81425e-08
-7.98889e-07
-1.44815e-07
-5.74552e-07
0.00366179
-0.0239452
1.09992e-06
-0.00452148
-6.07648e-07
5.25884e-08
-8.83956e-07
1.26952e-06
1.01053e-07
1.08664e-07
5.36711e-08
0.0124536
-1.17209e-07
-1.00565e-06
4.72721e-07
-9.09101e-07
-4.62641e-05
-2.5332e-07
-6.78885e-06
-7.04496e-07
1.37864e-07
-0.0199758
-7.24007e-07
1.53574e-07
1.58269e-07
-2.56486e-07
-0.00687913
0.00636203
5.39996e-07
2.41301e-07
6.39615e-07
0.0138746
2.77821e-07
-0.0302816
-0.0146028
-4.18681e-08
4.5938e-07
-1.0971e-06
1.13324e-05
-1.10874e-06
2.83331e-07
0.00247267
3.88532e-07
-1.30623e-06
-1.06372e-05
5.9183e-07
-0.000764708
-0.0330239
-6.49489e-05
-0.00104717
-9.38169e-07
-2.73652e-07
4.32354e-07
-5.78539e-07
0.00107383
1.31514e-07
-0.00758943
4.48649e-07
0.00351333
-3.45664e-08
-4.22366e-07
1.25499e-07
-3.05656e-07
1.17793e-07
-2.48915e-07
-2.37227e-07
2.55772e-05
5.43823e-08
5.81221e-07
-1.42057e-08
-0.0189146
-1.49819e-07
-1.0565e-06
2.97686e-07
-7.21121e-08
-2.15779e-07
-3.76386e-07
4.60994e-07
4.71101e-07
4.71949e-08
5.06194e-07
3.75609e-07
-2.51487e-08
-0.000992599
-0.00682898
-0.0146857
0.00175412
-4.80385e-07
-1.16613e-06
-1.11067e-07
5.52172e-07
3.46837e-07
-4.21386e-07
-4.66917e-05
-1.68092e-07
-1.75994e-07
-9.02613e-07
5.9235e-07
-3.06548e-07
-0.0104915
4.20758e-07
-8.26063e-07
-0.0125835
7.86788e-07
6.88696e-07
-0.0143034
-0.0222128
-2.20621e-07
-6.47222e-06
-6.47152e-06
3.22164e-07
8.19128e-08
-8.90096e-08
-5.08391e-07
-2.98598e-07
-2.56132e-06
1.44157e-06
-1.13717e-06
-9.6817e-07
1.36503e-07
-0.0210648
3.00727e-07
-7.0188e-07
-1.25887e-06
-2.18378e-07
0.0125158
-2.38224e-08
-7.73697e-07
-1.63321e-07
-1.10572e-07
-1.19505e-07
1.07791e-05
0.0317009
-0.00279808
0.0232379
6.01194e-07
-1.29025e-07
-6.34096e-07
-0.0158324
-2.6545e-07
3.65893e-07
1.02777e-07
-1.48208e-10
3.92014e-07
-1.29778e-06
-0.047182
-3.64736e-07
-1.32303e-06
3.14592e-07
5.55563e-06
-6.49686e-07
2.81011e-06
-1.45415e-06
-1.6168e-05
2.49468e-06
-1.00026e-05
-3.43722e-07
-2.97327e-08
-1.20585e-07
-1.60805e-07
2.03577e-07
-1.79846e-07
-5.68463e-07
2.90773e-05
-1.52773e-06
-1.12216e-06
0.0784273
-1.14193e-06
-0.00874557
9.58061e-08
2.47419e-06
3.24844e-07
-1.19188e-07
-4.41631e-07
2.43782e-07
3.64869e-07
5.02429e-07
-9.88922e-07
-0.000235104
-0.0136459
-6.12966e-08
-5.83163e-07
1.86265e-07
-3.06576e-07
-2.6596e-05
-1.35512e-05
5.35557e-07
3.44666e-07
6.46075e-08
-1.00653e-06
-7.6386e-08
8.59709e-08
-0.00853727
-3.66821e-07
3.08435e-06
-3.04853e-06
0.0541041
-3.00865e-06
0.0628362
-4.42034e-07
1.25698e-07
-7.72931e-06
1.76609e-06
-2.29239e-07
-0.0109371
-1.53308e-07
1.59186e-06
1.55402e-07
2.40606e-07
-0.00198548
-5.20372e-05
4.62209e-07
1.01319e-07
7.23889e-08
4.12539e-06
-1.54877e-06
-4.98741e-07
-6.43859e-07
-7.12405e-07
4.4808e-07
-1.79464e-05
-0.0156703
2.66263e-07
4.78884e-07
0.0365016
2.52941e-07
-1.06672e-05
-0.00104257
0.00240754
-0.0178819
8.87357e-07
-3.63622e-07
0.00583067
-2.29886e-07
2.65658e-08
-5.01408e-06
-0.0125067
-2.45905e-07
-1.8416e-07
0.00469533
-6.6252e-08
-5.24597e-07
0.0399651
0.00508847
-0.0687819
-7.57341e-07
-1.56006e-06
2.93028e-07
7.96392e-08
-0.0105126
-1.89058e-07
-2.6578e-06
1.14398e-05
-7.41953e-07
-4.95484e-07
-7.42123e-05
-5.84199e-07
3.33374e-07
-4.55022e-07
2.23925e-07
0.0183413
-0.000215983
-9.63197e-07
-9.72592e-07
1.58311e-06
-0.000285164
1.28728e-06
-0.0150681
-2.39139e-07
3.34051e-07
-4.06823e-07
-1.62939e-06
1.43818e-07
-2.60613e-07
-7.38827e-08
-0.000186302
-2.4462e-06
-2.40463e-05
-3.53755e-08
3.69131e-07
-9.28282e-07
-0.0173193
-1.3017e-07
-8.13441e-07
1.15532e-06
5.23547e-07
-1.20849e-06
0.0028001
0.0486556
0.00279652
1.20821e-05
-0.0147403
7.4613e-07
1.35719e-07
-0.0257558
-1.20145e-07
2.08435e-07
0.000288544
-8.5784e-07
0.040286
0.00161049
1.33703e-07
-6.85867e-09
4.59158e-06
3.1029e-07
-1.25639e-05
-5.67193e-08
0.00120023
1.0933e-07
5.28316e-07
-8.07736e-08
4.8856e-05
8.21228e-07
-4.53301e-07
-0.0155204
-0.0983747
-3.05408e-08
4.17451e-06
-6.54139e-06
-2.53036e-08
1.23802e-06
-0.0269964
-1.68945e-07
-4.76277e-07
0.0134237
-2.12788e-07
-2.54108e-07
-9.83252e-07
2.62356e-07
5.16306e-07
4.17238e-08
-1.30402e-07
0.00481198
-3.46353e-06
0.00201476
-0.0158219
0.00197128
-4.08156e-08
-3.20231e-06
0.00665777
-9.331e-07
-5.58663e-05
-0.0528468
0.00227907
-3.72481e-07
-1.68788e-07
0.0211877
0.0459747
-1.1596e-06
-3.89232e-07
1.42158e-07
-6.83618e-07
-6.39149e-05
-1.68468e-08
-0.0050552
-0.0978294
0.00756086
0.00079947
-7.35936e-07
3.86321e-07
-6.7064e-08
-6.23509e-07
-2.42128e-08
-2.93468e-07
2.23532e-07
1.98268e-05
-0.0121991
1.36511e-07
2.37387e-07
-4.15381e-06
-2.46179e-07
1.31193e-05
-2.00999e-07
-0.00697891
-0.00111237
3.46961e-05
0.0513545
-0.0162643
0.00427583
0.0149781
0.00750311
5.57811e-07
3.1063e-09
-8.80654e-07
-7.12297e-07
0.0678379
0.000508047
1.7146e-07
-3.09569e-06
-0.0141505
-0.00022261
-1.81099e-07
-0.0146954
5.4023e-08
1.66959e-06
-0.0141038
-0.000428611
-1.35226e-07
0.0063384
7.42198e-06
-4.54967e-07
-5.35022e-08
0.0333772
0.0281692
-0.0252146
-0.0199456
2.83756e-07
0.00109066
-0.0204115
-2.13978e-07
6.16395e-07
-1.26146e-07
-3.30378e-07
3.84177e-07
0.000789674
-0.0116136
3.28191e-07
-1.06535e-06
0.0292244
2.54243e-07
0.00439881
-3.04903e-07
-3.1762e-05
0.0247841
2.51631e-08
0.0519737
1.14405e-08
7.74103e-08
-8.40697e-07
-2.63584e-06
-2.77603e-06
-1.26584e-07
-2.48537e-06
-1.07738e-06
-0.0422086
8.00367e-07
0.00869195
-0.0151447
0.000930237
-1.57593e-07
-0.0227292
-6.97841e-06
-0.0088715
-2.16225e-07
3.46545e-07
-0.00575606
7.16978e-05
-0.00977665
-1.64612e-07
-2.33484e-07
-1.98554e-06
-0.00837947
-0.00201781
-3.86178e-08
0.0403352
-2.81451e-07
-2.45393e-07
-0.0348599
-1.26169e-07
-0.0366671
-3.70524e-07
3.1689e-07
0.00404109
-0.0213645
-0.00444128
3.83872e-06
-0.000173932
-0.0170148
0.0116495
-1.71538e-07
0.00774923
-2.01334e-07
-8.32368e-07
-9.32796e-07
-5.3212e-07
-0.00797385
-1.36618e-07
0.0131641
-0.000684313
1.11938e-06
-5.99074e-07
1.86852e-06
0.00240145
1.67123e-06
0.0121403
-0.0152264
-2.8914e-06
-8.18222e-07
-5.87588e-07
-3.31541e-05
-5.88383e-07
-9.90601e-06
-0.0460556
0.00533996
-8.62944e-06
-9.83698e-07
1.56847e-07
6.43956e-07
-7.66375e-07
-2.26749e-07
7.40925e-08
0.0357587
1.77079e-07
5.88262e-07
0.0105568
5.24986e-07
2.58707e-05
-0.0105585
0.0504584
9.59744e-05
-0.00971224
-0.0144542
0.00240671
-1.27243e-07
6.09798e-07
-5.19383e-07
2.96832e-06
2.21531e-07
8.2327e-06
-5.13847e-08
-2.26958e-08
-4.28782e-07
4.34159e-06
0.000428656
4.76315e-07
-1.87168e-06
9.01568e-07
0.0066674
-1.43296e-08
8.66013e-07
-5.18137e-08
-0.0245419
3.14383e-07
-4.06808e-07
-2.08694e-06
-2.11703e-08
1.19677e-08
5.97035e-07
-7.96014e-07
-1.08332e-07
1.21781e-05
-3.93942e-07
-1.47216e-07
-4.57271e-07
9.56502e-05
-5.45773e-07
0.0126929
-1.96066e-06
0.0491042
-2.39918e-07
-2.08782e-08
-9.37737e-07
-2.44124e-06
3.43636e-07
0.00266414
-0.00728657
-3.01284e-07
4.06874e-07
-6.89387e-07
-0.0280702
0.00268314
-1.29946e-07
-4.33653e-06
0.000200787
1.16824e-07
-1.91597e-07
-2.43864e-07
3.92253e-07
1.52687e-07
-0.0815983
8.04381e-08
-9.85286e-07
-0.0053265
1.90624e-07
-3.15067e-07
1.79741e-05
-6.44775e-07
-1.75135e-06
1.51353e-07
-0.0102206
-9.56737e-08
-6.77316e-09
-1.96967e-07
1.61527e-07
-5.30424e-07
-3.59455e-07
-3.46759e-05
-2.14711e-05
2.24371e-07
-1.09303e-07
-0.00635799
-2.70028e-07
2.40106e-07
-2.03043e-06
-0.000145724
-0.00205664
-3.05699e-07
0.0676609
0.00102764
-1.06161e-07
-0.00161292
0.0105218
-0.0137152
0.0120456
4.18022e-07
2.39088e-07
1.089e-05
8.97915e-08
-1.82294e-06
-1.35858e-07
4.84747e-08
-0.0116836
4.65728e-07
0.0160602
-6.83245e-08
-9.94974e-07
-1.13103e-07
-5.3375e-08
-1.01526e-06
-0.0110997
0.0200734
0.00257827
0.00653076
-2.53351e-07
1.33597e-06
-0.0068064
3.02567e-07
0.0599399
-1.48759e-07
1.93961e-07
0.0120819
8.04929e-07
1.4873e-08
1.48606e-07
3.72917e-07
2.92616e-07
-0.0268487
0.00015991
-5.44264e-07
-9.67009e-07
-1.47014e-06
-2.28662e-07
-0.0144909
-1.83684e-07
4.20844e-08
-7.76749e-07
-3.8675e-07
-2.83332e-07
-1.59953e-07
-0.0662881
4.18063e-07
3.53651e-07
-9.05015e-07
9.22874e-07
4.1022e-07
-8.52495e-08
0.0113488
-0.0142145
1.75633e-08
1.25904e-06
-1.37035e-07
-6.53519e-07
1.74149e-06
-0.0155149
-3.55425e-08
-0.0235973
-5.22039e-05
-1.65005e-07
-6.0232e-08
3.9391e-07
1.52277e-07
-1.6753e-08
0.0223665
8.71101e-07
-1.1367e-07
-9.32238e-08
-0.00337887
0.0478439
-2.08879e-07
-1.80531e-06
-1.26856e-07
4.68256e-07
-4.89358e-06
5.77997e-05
-6.9359e-07
-1.16154e-06
0.00267719
-3.66502e-07
-9.06078e-08
-1.84508e-07
-0.0376265
-0.0168838
4.82381e-07
0.000675089
4.40594e-08
6.12963e-06
-2.80771e-05
-9.91927e-07
0.0031311
5.06127e-08
-1.10226e-06
-0.0538616
9.89424e-06
4.57746e-07
8.69958e-07
5.10603e-06
-3.46378e-09
-2.29786e-08
-1.82088e-05
-2.39366e-07
-4.57051e-07
-0.0193883
4.10993e-07
1.76504e-06
0.00572733
-2.1832e-06
0.0148599
-0.00128457
4.6693e-07
5.03455e-07
6.43023e-06
-9.14126e-08
3.1023e-06
-1.19957e-07
-0.0872699
2.83331e-06
-6.86451e-07
0.000211409
0.0108594
-2.21925e-07
-4.93798e-07
-4.89096e-06
1.08585e-06
0.00952817
0.0104753
-2.59425e-07
9.79868e-08
-0.0158312
5.21187e-07
4.74144e-07
-2.96884e-07
-7.47596e-08
-0.0583365
7.1774e-06
1.45582e-07
1.90069e-06
0.0138829
-1.48787e-08
0.00345292
-1.61654e-07
-8.93887e-07
-4.18248e-08
2.95843e-08
-0.0259733
-1.48719e-06
2.4266e-07
-0.00175544
0.0036371
-2.17808e-07
-1.05092e-07
-8.90132e-06
0.0320284
3.52915e-07
0.0267665
4.14644e-07
4.63854e-08
6.13176e-07
3.87794e-07
3.31243e-07
-4.07357e-07
5.61029e-07
0.000442918
-1.89941e-06
6.60381e-08
4.34094e-07
0.0454604
1.64985e-07
2.37478e-07
-6.59844e-07
3.70592e-07
-3.14269e-07
1.03229e-07
-0.00512643
-8.6976e-05
-4.91243e-09
-1.68988e-08
-1.61182e-06
-2.21542e-08
1.81791e-07
-0.1076
-0.0146716
-7.33426e-07
0.00361387
4.38924e-07
-4.10098e-06
0.00288083
-0.0135193
4.99521e-07
-1.31125e-06
-5.66479e-07
-0.00376273
-2.34136e-07
9.97059e-08
-0.124174
1.01211e-06
-3.65972e-07
-5.63716e-05
-8.1637e-07
-3.37294e-07
-1.80548e-07
0.0433372
1.33537e-07
6.51435e-05
-1.07429e-07
0.00394618
-1.2998e-07
-2.57208e-06
-0.0657044
-3.01399e-07
-5.02466e-07
2.07429e-05
-2.41673e-07
-1.77136e-05
0.075882
2.33381e-06
-4.68686e-08
-1.26661e-06
6.54098e-08
1.9085e-07
1.22564e-07
0.031063
-2.59323e-07
-2.57273e-07
-2.66542e-07
-4.34708e-08
1.56388e-07
0.0416871
-0.0680241
-2.83363e-07
5.34772e-07
-1.5114e-07
-0.00360497
0.000295863
-1.21012e-06
6.16022e-08
-1.36346e-06
-1.07372e-07
-0.0202229
5.77493e-08
2.45557e-07
-0.0399356
-1.27523e-06
-2.60093e-07
2.52358e-06
-7.0998e-07
6.48488e-07
3.22677e-07
-2.7753e-08
7.57396e-06
-7.38432e-08
2.45437e-08
-0.0100379
-0.0864013
-4.99719e-05
-4.20864e-07
2.50269e-07
-3.06021e-08
-2.30761e-07
-1.92735e-07
1.38463e-07
4.46757e-07
-8.69101e-07
0.055942
-2.35422e-07
-2.37888e-07
-0.0154013
-5.97723e-06
0.00415731
1.95103e-06
-2.41488e-07
-9.0763e-08
2.33679e-07
3.51321e-07
2.76706e-07
2.60542e-07
-9.02054e-07
-1.37259e-07
-2.01342e-06
5.1541e-07
3.80781e-07
3.7918e-07
-1.2143e-07
7.0299e-07
-2.46876e-07
4.11423e-07
2.00827e-07
-2.96098e-07
6.50813e-08
7.45922e-07
-3.11105e-07
-1.29808e-07
-5.25661e-06
-4.98775e-07
5.25647e-07
2.65073e-07
3.18069e-07
-0.0150893
-0.0150307
-0.00112845
0.0373861
-0.0193599
9.27419e-06
-7.6842e-07
1.44409e-07
8.82247e-09
5.8432e-05
-3.26234e-08
6.12715e-08
2.1382e-07
-5.4177e-08
-6.1552e-07
6.54234e-07
-1.00416e-06
-0.0427297
-4.45876e-07
-5.88579e-07
0.012813
0.220857
-6.18832e-07
-2.53624e-07
-4.53963e-07
-9.0571e-07
-0.00300836
-2.83818e-07
1.96664e-07
4.74064e-06
-2.58486e-07
-1.04761e-06
2.75912e-07
0.00788266
-1.87957e-07
2.12576e-07
0.0134193
-4.40666e-08
0.0089705
-2.94973e-08
-0.00680274
-6.35764e-07
-0.0179645
-4.89628e-07
-2.48213e-08
1.37931e-05
-2.54245e-07
0.00997884
-0.000663083
-0.0155836
-0.068357
-2.38607e-05
-1.7131e-07
9.80747e-07
-1.4618e-05
-7.48089e-07
-2.67768e-07
1.78254e-07
-2.87523e-07
-1.06139e-07
-6.55968e-07
-4.85712e-07
5.05847e-07
-0.000549633
0.00153401
3.81298e-05
0.0161869
2.29196e-07
-1.68857e-08
1.16975e-06
4.52337e-07
-4.96163e-07
1.55463e-07
-1.12442e-06
-6.28632e-07
3.15055e-07
-1.79293e-07
-1.23493e-06
1.40707e-07
2.10352e-07
-3.1048e-07
1.57281e-08
8.09988e-08
0.0075723
-0.0189433
2.1673e-07
3.26232e-07
-3.37973e-07
0.0196582
0.0164024
1.93372e-07
2.76588e-08
-1.42945e-07
-3.62633e-07
-8.98701e-05
1.88586e-05
-0.00952933
-3.44624e-07
-0.0686435
1.84084e-07
0.00256886
5.899e-08
-8.33602e-07
6.82155e-08
-0.000108674
-1.81009e-08
3.13434e-08
1.03124e-07
4.29691e-07
0.0193679
-7.87294e-07
7.40081e-08
8.04862e-08
1.16608e-05
5.71395e-07
0.00302447
-0.0438946
-7.92272e-08
-1.20169e-07
-0.00443148
8.13395e-07
1.33223e-07
0.113068
-0.0461733
-0.0644349
-0.0555735
4.36472e-07
-5.88245e-06
-7.08366e-07
-0.0157239
-0.0453439
-1.09641e-05
8.86083e-07
-1.64602e-07
-0.0141787
4.3024e-07
-2.68536e-07
-1.07731e-06
-0.000285822
-1.4293e-06
0.000548812
-5.42749e-07
-2.73877e-07
-4.05762e-08
-0.0185474
-3.94261e-07
-1.89857e-09