/*--------------------------------*- C++ -*----------------------------------*\
| =========                 |                                                 |
| \\      /  F ield         | OpenFOAM: The Open Source CFD Toolbox           |
|  \\    /   O peration     | Version:  v2012                                 |
|   \\  /    A nd           | Website:  www.openfoam.com                      |
|    \\/     M anipulation  |                                                 |
\*---------------------------------------------------------------------------*/
FoamFile
{
    version     2.0;
    format      ascii;
    class       volScalarField;
    location    "150";
    object      omega_0;
}
// * * * * * * * * * * * * * * * * * * * * * * * * * * * * * * * * * * * * * //

dimensions      [0 0 -1 0 0 0 0];


internalField   nonuniform List<scalar> 
9793
(
0.022184
27.3189
0.0219222
5.8855
0.0222596
0.256819
0.0815451
11.9751
0.0219339
24.2307
0.0221975
0.0221883
0.0219115
6.13909
0.0217056
0.0246103
0.0538996
0.0219182
4.22644
0.021532
0.0215644
0.0222916
5.93438
11.8696
5.85332
0.0255518
0.0220988
0.022262
0.0215425
0.0822848
15.9253
0.45539
0.0220126
0.0219346
0.0218634
0.0273451
0.0233204
0.0241396
4.09234
0.0300242
0.0706833
3.58274
14.2422
0.0222715
0.021953
0.0220422
11.8488
0.0222842
0.0215692
0.0219253
0.0269944
0.0218466
0.0370129
0.0222684
0.0313366
5.44446
0.0219214
0.0980879
0.0215777
0.0222913
0.025906
0.0883025
0.0219395
0.0333952
0.0219624
0.0218873
42.372
0.0235136
0.0235875
11.5029
0.0219006
0.0927169
12.098
1.43878
9.67497
0.0222624
0.0425167
10.1727
0.0219766
0.0222704
0.0456567
4.3474
0.0517495
0.0233604
0.0236476
0.295029
0.022261
0.0751887
4.16446
0.0835938
5.24649
1.94204
2.063
0.0401085
14.3917
0.02189
9.83674
0.0500942
0.0240954
0.0222683
5.41827
0.0351552
3.50615
0.021959
7.31141
10.6939
1.48574
0.0218736
0.0219815
0.0222835
0.0222334
5.43801
3.00796
14.3287
0.0218874
0.0221116
0.0229753
0.02205
5.23313
0.0220279
6.17173
0.0807203
3.98845
0.0426132
0.0233647
0.0220333
0.0619479
13.2914
0.209271
0.21788
0.0230057
0.0217848
0.0221162
0.0228408
0.0262929
0.164301
0.472881
0.0230132
0.0222734
0.0624332
5.66124
0.0265158
0.0218677
0.0572985
11.3992
0.51696
0.0220336
10.0057
0.02178
0.0220281
0.0220692
15.716
0.0236624
0.0220911
0.0218939
1.69052
0.0577799
0.0219337
0.581564
0.0218741
0.0696059
0.0231067
0.0215735
0.297635
0.0218012
9.22715
3.18205
0.0219268
0.021875
0.0222176
0.0218777
10.5733
27.2286
4.93882
0.0219046
0.226561
0.126488
0.602275
0.0219595
0.02343
7.81842
12.7053
0.0892828
0.0220348
0.0220715
0.0218682
2.66398
11.667
18.5848
3.6247
0.0218456
26.1022
0.404382
0.0245079
0.0215728
0.0228857
1.98319
0.0215737
0.0219156
0.0222052
0.0219134
0.0215492
0.0280192
0.0239593
4.20943
0.0218921
0.027309
0.0219214
0.0221685
0.38801
0.0598437
7.2816
0.0216167
10.8357
0.0233839
0.0379512
0.0217142
0.160116
0.0221208
0.0469968
0.0542293
0.0215546
1.52705
4.7081
0.0382152
0.0218714
0.0524514
2.36022
0.0462531
0.0468693
4.70333
0.153106
0.0358797
0.0341775
0.338478
0.0214921
9.5176
12.6768
0.021582
0.0222226
2.52235
0.0218648
0.0222312
0.116728
0.127526
0.021884
0.0234446
0.0283995
0.0361945
0.0234427
0.0219659
0.042894
4.53042
0.0215565
4.94023
0.0222617
0.0221711
0.0216386
5.37838
0.0219726
4.41837
6.64364
0.022103
0.0221308
4.82056
0.0217518
0.0222395
0.0217148
5.40685
0.238918
0.0241578
0.368932
0.0920893
3.38441
6.84885
0.0219558
18.4642
0.0222641
2.38476
9.64958
4.29509
6.24194
0.146291
0.0230055
0.0469131
0.0237009
0.0215797
0.0219574
0.389274
0.0257079
0.0221398
0.0222838
0.0216135
0.0215648
0.0215634
6.14352
0.0218638
0.0217082
0.0216862
0.0219137
6.77596
0.502604
0.0594697
0.0225475
0.0587457
0.0217592
0.450433
11.6651
0.0219653
9.28337
0.0315965
0.0219461
39.0413
0.456232
0.022021
0.0452949
14.965
0.0220153
0.032028
0.0217034
0.0220828
2.71663
0.0388546
0.0219456
0.0220217
0.0224471
0.159518
3.30461
0.0219267
0.0218666
0.0216332
10.9428
9.92674
8.69707
0.0214977
0.0409746
0.0325636
1.80475
0.0735521
0.0214695
0.0215109
0.0216374
0.0454552
0.0219705
9.84222
0.0220868
0.0217619
1.25428
6.29559
7.22289
0.0216141
5.32741
0.0239671
4.3253
10.5382
4.6356
0.0230837
0.0309099
0.473066
5.2549
5.45026
0.0254205
0.0222632
0.0245169
0.0215462
0.0218467
0.0219555
0.0220805
0.022292
9.85809
0.022207
0.0623776
0.029635
0.487626
0.021465
0.0234314
6.44753
0.448559
5.86908
0.0711555
0.0217659
0.0231484
0.0219263
0.419337
0.0215522
6.28862
0.1415
0.0814667
8.78886
2.91492
0.0221375
0.0218732
0.469758
0.394529
0.0218921
10.3927
0.0221312
0.0221772
6.86859
0.0216146
0.0997638
0.0215014
3.11227
0.022092
0.0218039
2.23881
0.0868222
0.0510264
0.0245295
0.0220739
0.0218036
4.93329
0.0499535
0.0215077
0.0221961
0.0327076
0.0325339
0.0495395
11.995
0.0221972
0.0219308
0.358647
0.0220808
4.41251
0.591658
0.0220635
0.0220181
0.0219417
0.0221161
0.0216198
5.5149
0.047373
8.77126
0.027569
0.0224718
0.04278
0.0238877
5.19844
0.0252495
0.0222677
0.0235151
0.446678
0.02188
0.0218745
0.0219028
0.0215555
0.0219856
0.021732
0.0220441
0.0221579
0.0225498
0.023687
0.1164
0.0217547
1.53169
0.0247303
0.189331
7.16983
0.0215889
1.11607
0.0806375
0.0215836
0.0215549
0.0218694
6.78262
0.0935483
0.0215509
0.0221202
0.0221987
0.0612525
0.140183
10.3377
0.0219758
0.021895
0.0299354
11.9368
4.47784
0.0231608
0.0225679
5.09563
7.77988
0.207741
0.0220567
0.0217735
4.22016
0.0218931
0.124923
0.597933
0.0215005
0.214128
0.0261732
5.1189
0.021807
3.86687
0.372489
0.0242661
4.28416
0.0218927
1.56204
0.0220935
0.0218712
0.0222232
0.0219342
9.42757
0.0218837
0.0215766
0.0225285
0.0215062
0.0217731
0.0449585
0.0224657
0.0329129
0.0220343
0.0220382
5.75584
0.0683246
0.0231165
5.05748
0.0233806
0.0220629
0.0219774
0.0216172
9.06076
0.0215669
0.0220689
16.3862
3.78767
0.0373493
0.0219195
0.022284
0.0218928
0.0222407
4.83915
0.0220572
3.54438
0.0231382
1.95425
0.0222619
35.5582
0.022013
0.206339
0.0219003
0.102574
5.66547
0.0221023
3.15756
0.021874
0.0222182
0.0215588
7.2191
4.31605
0.0218744
0.0269658
0.0215556
4.79068
0.0216855
0.0436751
3.93335
0.0243543
0.022026
0.0425942
0.022245
0.0219164
0.0216551
0.10933
0.0219548
4.81933
0.0220517
0.0219781
0.0375762
0.0693129
0.362318
0.0217047
35.3951
0.0218672
0.181239
0.0218909
0.0218865
0.0218891
0.0220496
0.022268
0.188926
0.0366225
4.34986
0.122217
0.0331755
0.0323719
5.26501
0.0230728
4.77337
14.8625
0.232524
12.7055
0.498451
0.16387
0.0219163
3.38838
0.0368826
0.021837
0.313137
0.0222508
0.381173
0.0341954
0.229308
0.0264089
6.56021
14.7821
0.0349744
0.202221
0.0222168
0.540117
0.0224999
0.0219042
0.0219617
0.0224897
0.0457291
4.65952
0.240696
12.3531
0.0228517
0.0229728
5.1581
0.291864
0.0224205
0.0643976
0.0221886
4.99989
1.46047
0.0220581
0.0594184
0.221529
15.6122
0.0219572
0.0248749
7.10675
0.0272784
1.91005
0.106675
0.476851
0.0247949
0.0231818
0.021783
0.0218966
0.271907
0.0222841
0.286012
0.151932
0.0784227
0.0222595
0.0222238
0.0226067
0.0217218
0.0218277
0.0218691
0.10981
6.24396
5.26407
0.0222796
0.318558
0.0219463
13.1119
0.0471745
0.0439582
0.0322324
0.350717
0.0217388
0.0220603
0.0402858
0.0218916
0.0218601
0.0623359
5.5179
0.0215466
0.245184
4.22234
0.0236545
2.5444
4.25627
0.0217376
0.0549525
0.025133
0.0218438
0.0215607
0.091858
4.27423
12.5136
0.0218875
0.0220155
0.0216152
0.0231801
0.0224876
0.0232371
0.538934
0.0469656
0.0221516
4.70494
0.0281808
0.0316335
0.0218298
31.5526
0.0228662
0.0219163
0.0812388
2.09613
0.0215068
0.0220494
0.0219343
0.0238819
0.0217341
0.0360893
0.54276
0.0220283
0.109559
0.0222998
0.0217976
0.378569
8.13724
0.248905
0.022074
0.0215094
0.492477
0.024941
0.373289
0.0214896
0.0218716
13.8328
3.65047
0.029022
0.106937
0.057782
0.0218671
0.0222717
0.0218284
15.3614
0.0220568
0.0222928
5.20294
0.0262807
0.356373
0.0308948
0.021931
5.96278
0.0222678
0.0218885
0.0218261
0.029146
5.94033
0.0221628
0.0219649
0.0218888
0.0218775
0.0219373
0.021794
13.2835
0.0300422
0.0224975
0.0221095
0.0300796
0.0625082
0.0244773
0.0271474
0.0222839
0.0216103
0.0228225
4.24756
4.01859
0.0223616
12.5929
0.022216
0.0244496
1.11406
2.13241
0.0216924
0.0221816
0.324561
0.0525213
0.0219051
0.0222482
5.211
0.0222681
0.0700852
0.0220126
0.478632
0.0222472
0.022022
0.0221264
0.0298279
0.0216917
0.023802
0.0250522
0.153916
0.0218574
0.0219977
0.0222497
0.021865
0.0218854
0.021696
0.0299613
0.0221106
0.0526385
5.76014
0.0421015
0.0651328
0.022203
0.0216501
12.6414
0.664766
0.0215536
2.99141
15.6656
0.0215142
0.0219603
0.0218672
0.0973059
0.0556506
2.26607
0.021851
0.0243648
0.0218546
0.0221198
0.0220568
0.0823432
0.02186
0.295627
0.022092
0.0542612
0.0218894
0.022724
0.0218836
0.0340383
0.0555046
14.5471
3.52803
3.12914
0.0484331
0.0218669
2.79164
3.33464
0.065615
0.0218115
0.0220841
2.07979
0.0218585
5.9616
0.0214954
0.0275034
0.0219009
0.0222698
0.021699
1.8979
14.8654
5.96144
0.0660924
10.6753
0.0219397
6.25618
11.0556
0.0222705
0.0219705
0.0217161
0.354627
0.021501
12.3948
0.0306222
0.165522
0.0220463
0.849551
13.0163
1.74447
0.028214
0.0311884
0.0220403
18.3338
0.0214741
0.599307
0.279482
0.0628318
9.17944
11.3477
0.0231491
0.022895
0.0219476
0.116087
12.2604
8.94508
0.0217317
3.91547
0.0241358
0.126588
0.115377
5.59193
5.57773
0.021503
0.0250602
0.029014
0.0231154
0.0227579
3.97236
0.0221983
11.2736
0.0216534
0.0214912
0.0784394
0.117005
0.351272
0.0222249
19.9572
14.474
0.627591
0.0256689
0.0222329
0.0222305
0.0222269
0.0218757
0.83256
0.3679
0.0219476
0.0218876
0.0301435
1.67265
0.0250615
0.0219038
0.37601
0.0219254
0.0222749
0.0214791
0.0631855
0.0220298
0.0236986
6.65186
0.0624354
0.0221653
4.42937
0.11435
0.0219199
0.0222522
0.0331033
0.0222624
0.0219625
0.0216943
12.1185
0.426818
0.0220419
0.0347151
0.0340259
0.543223
0.0218869
6.49222
0.0218558
0.0217401
0.588071
0.272749
0.068883
0.0219392
0.0218853
11.6431
5.30387
0.278004
2.829
0.0221015
0.0226145
0.0220165
15.9282
0.0235814
0.329601
0.0224163
0.021799
0.0226054
0.0216158
0.0218714
0.0597599
0.0217614
6.4826
0.0217076
0.0220463
0.0214934
0.0236391
6.03138
5.86106
0.0532776
12.1552
0.0219796
0.0342211
0.0225614
1.19318
0.0215908
0.0215069
3.4051
0.0327147
0.0310184
0.0221109
0.202918
2.40822
4.51189
0.0220126
0.0324193
0.917229
0.0293416
1.24828
0.142137
0.0809123
0.0216794
0.0223108
0.0652445
0.0721828
0.0219875
0.119019
0.0217245
0.0221844
0.0221025
0.0217174
0.0218743
0.0219856
0.749931
0.0249373
0.0224942
0.044857
0.0217283
0.0219094
0.036772
5.73967
0.0770091
0.0618786
5.44068
0.0222338
9.67512
0.0280603
8.27423
0.0580312
0.022203
0.0218331
0.0228183
9.05972
1.71373
0.0491241
0.142305
0.0216101
0.021841
0.0222477
0.0222022
16.0329
0.0247814
0.0217747
0.182339
0.278574
2.51424
0.0223407
3.54058
0.0515141
0.0401025
0.0301273
0.405662
0.232842
0.0220452
5.97452
0.257836
0.0363143
4.4315
0.0456856
0.0219123
0.0222638
0.021887
0.0227391
0.0260221
23.6317
0.0508042
0.0218671
0.389734
0.0220044
5.83592
3.4568
0.0219531
27.6516
0.021714
0.0216729
0.0217237
5.56412
14.3181
0.049642
0.029608
0.0215568
0.550968
0.0222313
0.0298476
0.0220895
0.022005
0.0217498
2.39636
0.0224873
0.0389526
0.027736
0.0222116
0.319076
0.140878
0.0321126
0.0244762
0.0230316
3.98372
1.43816
0.0216277
0.0217097
0.0216243
0.0223097
13.4854
12.2055
0.244975
0.024731
0.021763
9.67285
0.48666
0.0220331
22.7407
0.0216874
0.0894189
15.8616
0.0217219
12.4248
9.60166
0.134488
13.637
2.10691
0.0218052
0.0223973
2.43124
4.72849
0.0223117
10.4466
0.0242381
0.0218767
0.0222738
0.0225054
0.0398911
0.0244562
0.270259
13.9907
0.223737
0.0322236
0.0220787
0.058153
2.26291
0.0217169
3.64568
0.0468117
0.0222198
0.02387
0.0222414
0.0220554
0.0298629
2.3317
0.0220155
0.021777
8.83076
5.89738
0.0762507
0.0222611
0.0564006
0.0219101
0.02193
5.4086
8.70407
0.0219191
0.0214672
5.93442
5.85508
0.0477017
0.0220959
10.3506
0.0221995
0.021924
0.0226349
0.0219303
0.0216056
0.0216009
9.0603
0.261964
0.0249772
1.7129
0.0457759
5.30988
5.90336
4.33471
0.165734
0.0218796
0.0222382
0.0219632
0.0219922
0.0692805
0.0218767
0.0992217
0.0283503
0.365413
0.0220474
5.29687
0.0339446
10.1005
0.0219233
1.73929
0.0281886
0.183932
0.333409
0.0299857
0.0215977
9.28375
0.0573699
1.528
0.0215549
2.02679
0.0220288
11.9235
0.441795
0.040071
0.0219032
0.0220874
4.92845
12.0318
0.0302991
0.0214505
0.303715
0.0821961
0.0451956
3.53801
0.0756328
0.0218541
0.812343
0.0218918
0.0316174
0.0215171
9.76823
0.0215242
0.0224774
0.399173
3.76456
0.0222221
0.069359
0.0232666
0.0714701
0.0218745
0.301708
0.0229224
0.0596809
0.0218638
0.0219849
4.30847
0.0272052
12.2617
0.709011
6.70638
0.022441
0.0215465
0.0216963
0.0248103
0.0364352
0.0304968
6.81915
0.022937
0.324346
0.0394791
0.022281
0.0218377
0.0753441
0.422255
17.6704
0.0218799
5.10693
0.0218575
6.38029
1.53392
0.0475603
0.0219922
0.0216625
0.0420205
2.30632
0.0236806
0.0222685
0.0226267
0.0451428
0.0221668
1.22301
3.9269
4.05187
0.0221567
0.0253996
11.2816
0.0221881
0.0573604
0.021723
0.722393
0.0346417
0.0219378
0.0408102
0.169119
0.02166
2.97196
0.021894
0.159361
0.220462
0.437074
0.298248
0.0221676
0.0220503
17.2628
0.0220293
0.0375331
0.0896298
0.0229521
0.0214638
10.8037
0.0240141
0.371599
0.0223609
0.061494
0.0222897
0.372269
0.0243803
0.0239618
2.57081
0.970604
0.0220876
0.022273
0.148691
4.38549
1.90965
0.648934
0.0274258
0.0219006
0.0217759
4.41487
0.0221381
2.50391
0.0985803
3.04041
0.0221069
0.0216946
0.0217798
0.0421991
0.0409531
3.69126
5.86136
1.06733
0.241066
0.0215871
2.4656
0.0225994
0.0676463
0.0223048
0.0394219
0.05548
0.0219061
0.0215456
0.0695535
0.0216012
0.0379887
0.0634565
5.28132
8.28665
0.0344276
4.23667
0.0216659
0.021542
0.0220737
0.180945
0.0570412
0.0457591
0.11712
5.08379
0.0371234
0.136992
0.0217231
0.0218447
16.7804
0.0217511
0.253343
0.021439
0.0218211
5.7604
0.286929
0.02181
0.0832017
0.488606
10.1776
2.94459
0.0243363
0.0735348
0.0500901
5.10356
0.021929
6.38011
8.89551
0.0231474
0.0240757
0.0215662
0.413771
0.0215573
0.0219779
5.45757
0.0220493
0.0215119
0.227457
0.0619032
5.47931
5.73443
3.51315
6.31162
0.0214842
0.0218786
0.0218139
0.0222061
1.60094
0.0219249
5.22215
0.0225878
12.2061
0.0237531
0.0219936
0.0216659
0.0220747
0.0289629
0.02181
0.0214585
0.356478
0.021795
0.0522358
0.0222543
14.907
0.0237529
0.0220769
0.0216539
0.0539148
0.0219027
0.021751
0.0220873
0.0222153
0.0230014
0.021807
0.0228899
0.0300143
0.829503
10.014
11.8336
4.00187
0.0217489
0.0220047
0.0218984
0.021408
0.0219149
0.0217128
0.235897
0.0218233
0.0222515
0.0220683
0.022044
0.0218036
9.9258
0.0228164
0.0219693
20.8256
0.0437176
0.0216985
8.94419
14.2645
0.0220208
0.388693
0.586863
0.0219335
0.0428599
0.0233428
0.0215354
0.0263923
0.021817
0.0367605
0.0220122
0.022247
0.0217235
45.8554
0.026005
0.042821
0.0220321
0.0222649
12.9555
0.0248211
0.0220368
0.0232846
0.0235986
0.0222518
0.211469
16.2869
1.34867
5.81579
0.205392
0.0353718
0.0222596
12.7804
0.174224
0.022405
0.0620114
0.0222931
0.0218695
0.0222461
3.17041
0.0435862
0.0219991
0.0220432
0.220441
0.0217081
0.363923
0.0218744
1.79449
0.295765
0.356929
0.0220777
0.0227886
0.0301523
0.0336751
0.0220544
0.0368576
0.0789144
0.460967
0.0218122
0.467284
10.4659
0.021511
4.31531
0.0408037
0.316681
0.111503
0.0218981
0.0267904
0.0407143
0.0216702
0.0242914
0.0215195
0.447318
1.9914
0.0309816
0.0218206
0.166248
0.0686192
2.86038
0.252088
0.0228583
0.0266593
0.0219354
0.0218556
0.040756
0.0482595
21.5392
0.0217913
0.420255
0.0221872
7.25586
0.203884
5.27116
0.0215829
0.0225927
1.933
1.74868
0.0403034
7.72922
0.0221569
0.192818
0.0219096
0.0218124
5.18995
0.263235
0.0232209
0.0220924
0.0690609
2.1793
0.174388
0.0608972
0.0217534
0.0220157
0.0217039
2.37786
13.1705
0.021702
0.0458285
5.1097
0.0779394
0.254692
5.12166
8.13108
1.99978
0.0217115
0.0220835
4.32409
0.0218808
0.0462627
1.51535
9.11304
0.022915
0.0288083
6.47002
0.608499
2.00117
12.5244
4.19183
5.68387
0.0221101
0.0215814
0.0219862
0.0220638
19.1722
0.050337
0.338554
0.380169
0.052556
0.0217856
0.302028
0.0216142
0.0291569
0.0219173
0.0383157
11.956
3.80118
0.0220706
0.0215616
0.0345445
0.529452
0.198744
9.03652
0.0417571
0.0219364
0.0740025
0.0214325
0.0859358
0.0303372
0.0218798
0.523994
0.154178
0.498646
0.056213
0.0220518
0.021504
8.83734
0.0243798
0.021587
0.0221451
0.0222558
0.0216703
7.4194
7.03591
3.85832
1.35879
8.90504
0.0227593
0.0219321
3.19981
0.0233932
0.100522
0.789782
0.021862
12.2412
4.33128
0.0607875
0.0318861
0.765118
0.0226963
1.74513
0.0362765
5.57606
0.0217941
0.0225159
0.0385765
3.46213
0.12974
0.0628093
10.0079
2.52061
0.0656686
0.188171
3.31854
0.0235885
0.318878
33.4476
0.0343754
0.0580014
6.1139
0.0302704
0.0348866
0.0221026
0.0365845
0.0388956
0.0555444
0.0220873
2.58583
0.14726
5.85364
11.1365
3.8582
0.0374142
1.54414
3.47318
0.0218405
0.387011
3.44892
1.95907
0.0268199
0.0235184
5.78947
8.65829
0.0215651
0.208228
0.0217414
0.0219032
4.35719
0.0244931
5.19606
6.05934
4.10337
1.57523
0.0216015
0.034601
0.0219193
0.0218377
0.102177
0.0589192
0.0254885
2.55319
5.10588
0.0222729
0.0250598
1.31637
0.0226776
0.335497
0.0440774
4.75839
4.80659
0.478621
7.03781
14.9856
5.23113
4.89681
3.98103
0.0272321
0.0243947
0.108623
0.108182
5.63858
1.36786
0.0221318
0.0222178
9.30012
5.79585
0.0235094
9.98832
0.021879
0.781956
5.80018
0.610184
0.0219191
5.83794
1.50589
0.0258585
0.0329939
12.1982
12.6222
11.771
14.8145
0.0218971
8.54687
5.03874
0.0380396
0.206507
0.0973198
0.021723
0.0257214
5.66435
4.43464
0.0238536
0.0221716
6.07717
0.0790486
3.8835
0.07489
1.86888
4.98475
0.0219868
10.7776
0.0222852
0.0281376
0.0219533
0.0216943
0.0216931
0.0358796
0.242172
0.0214708
11.7383
0.0801359
3.38231
9.13764
5.36874
0.0219055
6.9251
1.52923
5.07665
0.0329261
0.0219061
5.10891
0.404584
4.43899
0.050785
0.0229366
0.0216754
7.51152
8.36232
0.0319743
10.8392
0.0293684
0.0220435
5.49373
0.049873
18.3179
0.0217612
0.0262762
5.10955
11.3493
4.68973
0.202805
4.71716
5.01134
3.97806
0.0220482
9.58223
0.0450836
0.0218
0.0215069
0.0218584
9.19981
0.0456312
4.7737
4.51908
0.0328788
0.140721
0.0896375
4.12958
0.250324
12.3204
9.76561
1.26094
0.0775389
0.0215912
0.263966
0.0520227
0.134865
5.43588
5.12658
1.64455
0.0220933
0.0234626
0.0449339
0.022059
0.0217985
0.0269504
4.8063
0.0257313
0.0234366
5.33049
0.0815947
0.338075
3.51546
4.98582
0.429372
4.4779
10.5238
3.98423
0.0575813
0.030395
0.0219815
1.25224
0.11192
0.294207
0.0578777
0.055253
0.0214389
0.21673
0.656798
0.0243832
0.0215652
0.0224135
4.35181
0.0218675
0.0220271
0.0626863
5.0092
0.0259789
0.0508706
0.155614
0.0289217
0.0623299
0.0218138
0.0219787
0.0399853
0.25398
0.0220902
0.0300948
0.242647
0.819159
0.0219925
11.4181
0.0218022
4.78166
0.0227848
0.0229362
0.021528
0.205178
0.0315591
8.04723
10.0351
0.0616684
0.0221628
0.0217023
6.44538
4.23126
0.0216069
0.231621
4.42935
0.0524354
0.0702767
0.0214031
0.0223548
0.0219053
5.71513
0.0413496
0.0220509
11.2053
0.0221652
0.0527082
0.306036
0.0217245
0.0887906
0.0609259
17.9397
0.0221977
0.02524
0.022908
0.0542363
0.021386
0.021892
0.520435
0.329684
0.0783265
0.0217103
4.3121
0.0221864
0.0221668
0.0219566
0.500884
11.7707
0.0231741
10.765
2.53913
0.0639646
5.63375
4.35155
9.5047
4.21027
0.0536578
0.0678263
0.263329
0.0474596
0.0219495
0.0286078
0.0280681
10.3758
0.0220774
8.20785
0.0219724
0.378214
0.093168
0.0224183
0.0224139
11.1187
17.9947
6.8818
5.09523
0.021801
0.0732411
11.1479
0.0247775
8.57731
0.0381525
0.0970219
4.17907
0.0291384
0.0219933
0.133717
0.164159
0.0218842
5.02003
0.843879
0.0216934
0.0222392
0.0221211
0.0220103
9.19852
0.0216914
0.0469865
0.0220261
0.0219098
0.0305486
0.0219285
5.78945
0.0888537
0.02199
0.0215905
0.124306
0.0227353
0.051451
10.2253
10.1166
0.0510987
0.230605
0.0379459
0.0215657
0.160568
9.68293
0.0363465
4.92235
0.457009
0.0692808
0.0373001
0.0252266
0.0690239
0.0357716
12.2614
0.0221125
0.0219706
0.0215973
4.4729
9.69588
0.0338272
0.118456
0.0217307
0.0244533
0.118256
0.345138
0.0218489
0.0579819
4.15392
0.0797418
0.0219865
0.0218685
19.4866
12.3511
0.0219181
0.603301
0.028305
0.249995
0.229384
0.0218496
6.03357
0.027394
0.0220247
3.24728
0.258099
0.0219033
0.0221632
0.335648
0.0217386
0.0220427
0.174077
0.0390614
0.0425435
12.6912
0.0244419
0.0389797
4.15083
0.0217839
4.19154
11.7574
0.0243081
0.0609188
0.196859
0.0219086
0.188369
0.0214488
2.83194
1.48551
0.0220046
0.829737
4.20706
0.0218742
0.0218935
0.508081
0.0347729
6.14517
5.52475
0.022094
0.0420379
11.135
0.0220868
0.0489196
0.0760047
0.03203
3.27867
0.198606
0.0223607
0.292404
5.02916
0.0422584
3.51551
0.0219078
0.0215286
0.0222673
0.0394187
2.08264
0.0220653
0.0303078
11.7168
4.64844
0.0222183
0.0286444
1.91812
5.54536
0.0222249
5.58996
0.0327306
0.0890155
0.0338771
0.0226299
0.0250389
0.0218867
0.0219523
0.605545
0.021932
0.0477738
0.0219771
11.3229
0.0223492
0.0226463
0.021561
0.0230692
0.0219807
0.0401519
8.76712
0.299195
0.0365691
0.0394146
0.0219665
0.029841
0.0514246
2.94772
9.30853
0.0218242
1.12916
0.0220235
2.3276
5.32016
9.35268
0.0218192
0.098951
0.0760614
11.35
0.207161
0.0218061
2.46682
0.290011
0.0351084
0.427096
0.0218691
0.0219216
0.0370931
6.20256
0.0218872
0.605995
0.0320554
2.85603
0.0814861
0.0221243
3.12886
0.0269424
0.0219885
0.29042
0.0218063
2.85749
9.64605
0.161735
0.0263183
0.142165
0.0218871
0.106623
0.0430036
6.36198
0.0219254
0.0215363
0.0258235
0.0284379
0.0431423
4.58223
3.01099
0.0335429
0.205419
0.0217786
3.3892
0.914274
0.170931
0.0218895
0.0222599
0.022237
3.18792
0.0219501
0.025117
3.14922
0.0889347
0.0219071
0.229569
0.0834384
0.0219843
0.024315
0.127851
1.34251
0.0673165
0.0418112
4.42408
5.96585
0.279536
0.0256431
0.0219838
0.0236894
0.0238286
0.154282
0.0572479
0.0259686
0.081999
11.3677
0.0233776
0.0219922
10.2039
0.259666
6.81113
0.177916
0.0248079
0.0231103
0.0230681
0.0217243
0.0218317
0.0431804
0.0214955
0.0225385
0.0219848
0.0225191
0.0229898
0.0219355
0.0359657
0.0329142
0.0218434
0.0219193
0.0221188
0.0223968
0.0221258
0.246961
0.0220562
0.0228887
1.33745
0.0216056
0.0227364
0.0220693
0.0258675
10.5923
9.52589
5.02706
5.96416
1.44315
0.222984
0.0218568
0.0584646
0.0218872
0.551895
0.0222479
0.0280378
0.0220214
0.0536549
0.0219513
0.0296819
0.0217663
3.18503
0.187749
0.0220778
11.8984
1.58873
0.0218382
0.102876
0.0219392
0.0215506
11.7952
0.0218614
0.0657303
0.227595
0.0221043
0.0215084
0.0743779
4.13976
0.0241306
0.0227141
5.73054
0.0219319
7.58862
0.0489342
11.2253
0.0216434
5.06574
0.0218583
0.0220245
0.268957
0.0589751
5.474
4.39571
13.9443
3.17486
0.197122
0.142369
0.022046
0.155338
0.021732
0.0218112
0.0853419
0.0218958
0.0219783
0.0215633
0.0215939
0.0560385
0.60767
5.03282
0.357222
5.52317
0.0228265
0.0286972
0.0222271
0.0224072
0.0785367
0.0219288
0.0215462
0.0217925
0.0229444
0.0226987
0.167837
0.0908654
0.0448458
0.0221081
0.0497238
0.051276
4.25055
11.6748
0.0239728
0.0385347
0.0220872
11.6368
5.5524
0.0219013
0.0219311
0.023726
0.0222137
0.319672
0.3269
10.8066
0.0219848
3.22345
0.0219742
4.59891
0.049336
0.0218033
0.0270464
0.381
0.0257722
0.026881
0.0281428
0.0848077
4.88616
0.0215589
0.0219122
0.0267141
0.214851
0.0218143
3.9315
3.19732
0.0218937
0.0214019
10.7024
0.0673593
0.0218882
3.43121
12.1344
3.08068
2.99813
0.0264125
1.90711
0.0220708
10.846
3.2409
0.66753
0.0663447
0.0232498
9.0147
0.0241685
0.0218589
0.0214362
0.318731
0.0216054
1.04246
0.022007
0.0220229
0.0241636
4.86834
0.0232154
0.0223923
0.0220732
7.36171
6.18625
11.0182
4.62401
0.0392313
0.0218869
0.0234157
0.258482
0.100479
0.0219835
0.0491621
0.263101
0.471342
0.0217689
7.54032
10.8593
0.0347822
0.0220627
0.0231683
0.0219403
0.0216453
0.0219248
0.0220335
0.0217234
0.088407
0.0220943
0.135498
0.0222915
0.0223481
10.2021
0.071729
0.0223431
0.0223948
4.88404
0.0214914
0.0222924
0.0251204
0.0218079
0.324081
0.0290389
0.0223802
0.0408945
0.0218386
0.0260391
0.0215556
0.147954
0.0218056
0.0218476
0.705025
0.0224734
0.177083
0.0319816
0.0231306
0.0895128
0.0213914
0.0220868
0.0223266
12.2697
0.0228688
0.0218919
2.00476
0.0218947
0.0215905
0.0218806
0.711394
0.0303175
0.147386
0.0315123
0.0290599
0.0458665
0.0232333
0.0260352
0.0436319
4.09121
0.0220917
0.0272277
0.0217375
0.218037
0.233561
0.0219027
0.0257895
3.4864
0.0282796
0.0214964
10.5433
0.0249253
0.0750693
5.68978
0.0266211
0.0218366
0.0281938
0.0218945
0.0228082
0.0219007
0.0228057
0.0249742
0.0219695
0.0220678
0.0300057
0.0220104
0.0968473
0.0217617
0.0231247
0.0218668
0.0263166
5.05741
0.0219302
0.0217967
0.0889468
0.0222584
0.0218496
0.237328
11.5403
6.12427
0.0219467
0.0237297
0.0317722
0.0222445
0.0221248
0.0323432
0.157618
0.0215136
0.0485712
0.0219088
0.0218805
0.0216539
0.0214981
0.0222267
0.0413033
0.0325579
0.0253729
4.03145
0.0234714
0.0267766
0.0216558
5.43342
0.620659
3.14213
0.0219303
0.0452475
0.0271043
0.0219098
0.0221193
0.0387299
4.47691
5.34866
0.0216715
0.0259922
9.33244
0.0224154
0.218702
7.61209
4.1479
0.0273457
0.0219107
0.0370934
0.0433675
0.213967
10.7968
1.19776
4.29574
0.0222941
0.022174
0.0218729
0.11304
0.0217737
0.0216586
0.0366532
0.0218517
0.0217317
0.0218736
0.0475707
0.0217852
0.0217654
0.0219665
4.70574
0.0214848
0.0219302
0.0221056
0.0220151
0.0219375
0.0650907
0.073093
0.753225
0.0214816
0.0270813
0.122228
8.56492
4.03102
0.0220685
0.022275
0.0484898
0.0873299
0.0248533
0.34199
0.0219149
1.97534
0.022278
5.15409
0.0224116
0.0218673
0.0417317
0.0218903
0.0216844
0.0223807
0.569925
0.0237091
0.0222038
0.0221785
0.021897
0.0388798
0.0216315
0.0219093
0.0250022
0.093366
0.0235889
0.0215854
4.91726
1.75689
0.0219003
0.321876
0.0221435
0.0263274
0.0746701
0.248106
0.0228922
0.0225443
0.0219553
0.23293
0.0273095
0.021866
0.0218795
0.0227463
0.254944
0.0216877
0.0320515
0.0232609
0.0326614
0.0462189
0.0366913
0.0813028
3.84367
0.0241491
0.0220399
7.84565
0.38124
0.0219292
0.0214693
0.0220617
0.021907
0.0218621
0.0232804
0.021649
0.022077
7.34958
5.37157
0.0290382
0.0218878
6.39362
0.0232346
0.0216886
8.2967
0.0227387
0.0215933
0.0220933
0.0220377
0.0331795
0.0219399
0.0511219
0.0219019
0.0217685
0.0218999
0.0309804
0.0345119
0.0218851
0.0572685
5.05185
0.0227063
0.0218778
0.0551535
0.0216542
0.0218931
0.0218435
0.0282292
0.0220526
10.7752
0.0221454
0.219619
3.13024
0.0549724
0.0224747
0.021954
0.021934
0.0219239
0.0282971
0.179949
0.128969
0.0217914
0.0231712
9.67834
0.0215025
0.15157
0.0219615
0.0222499
0.0297083
0.0572915
0.0219533
0.0300767
0.0268593
0.0532493
5.44576
8.38707
0.0216476
0.0219242
0.0306701
0.0220715
0.0223375
0.0486768
0.0221541
0.10871
0.0217711
0.0631604
0.0221059
0.0723387
0.0556328
5.04033
8.98838
0.0219137
0.0378573
0.713129
0.258702
0.0215493
0.0215508
0.14573
0.0219295
0.02177
0.0217253
0.0214777
0.065919
0.077863
19.7546
0.0220209
0.0420238
0.0222548
0.0215464
0.0226015
5.4282
0.184764
0.0218618
0.0219865
0.0218161
8.28513
0.0219905
0.0218952
0.0222087
0.0219007
0.0398066
0.0218281
4.00437
0.0219834
0.0220222
0.0220184
0.0218411
0.0216868
0.0220089
8.55404
0.0217702
0.0218926
0.298646
0.0217477
0.0220422
0.0221109
0.0221564
0.0532784
0.0218548
0.0219681
2.45745
0.022607
0.0220382
0.0220728
0.021436
4.28957
0.0225657
0.0220511
0.0218513
0.0247177
0.0219619
1.20714
0.0217863
0.0220123
11.6236
0.0219765
0.0616158
0.0220256
0.0213923
0.0214481
0.0289294
0.0356314
0.0218069
0.0222859
0.0229171
0.0218817
0.02211
0.0219665
0.0216562
0.0215485
0.0215672
0.432211
0.0219498
0.0218119
4.25125
0.021891
0.0257259
0.140287
5.277
0.0217916
0.0219497
0.0219489
0.021604
0.0225445
0.0374611
0.0232945
0.0324818
0.0217317
0.0238034
0.0218915
0.0214518
0.0251443
0.0564202
0.0230244
0.0256879
0.0220269
0.0219484
0.0221201
4.55359
0.0224832
0.0220136
15.7887
0.022148
2.25792
0.0220618
0.0219201
0.0216868
6.11958
0.0218581
0.0242021
0.0222531
0.0220709
0.0219585
0.022087
0.0218181
0.023235
0.0218564
0.0359999
0.0222476
0.0385683
0.021428
0.0216007
0.0229049
2.94153
0.022149
0.0220477
0.0222961
0.02189
0.0230789
5.78596
0.0224079
0.0259336
5.42864
0.277794
0.0223949
0.0220811
0.17933
0.0988201
0.0223642
0.0221141
0.0216426
2.30279
0.0220158
12.3185
0.0215937
0.0215184
0.0221039
0.0216079
0.0227229
0.0215599
0.0219873
0.0222649
0.060566
0.0231311
0.0220606
0.0215805
0.328992
0.0653265
0.0214746
0.0221036
0.0228948
0.0222389
0.0220584
0.0215377
5.52848
0.0215422
0.0218718
0.062072
0.0215339
4.75359
0.0218137
0.0369443
0.0247337
0.0219604
0.0214852
0.0219009
0.0217193
0.0220422
0.0215385
0.0215769
0.354355
5.53083
4.09424
0.0215742
1.5125
0.0218956
0.056034
0.0218981
0.0219056
0.022108
0.507643
0.0219351
0.021884
0.0221259
0.0218926
0.379038
0.0218892
3.94134
0.0214256
0.0219482
4.58736
9.8948
0.0219824
0.0219469
0.0257681
0.0220184
0.143409
0.0217397
0.576079
0.0217387
0.0341448
0.0221393
0.0218015
0.021929
0.021889
0.0227033
0.0218265
0.0291168
0.031501
0.109348
0.0215239
7.49427
0.0218804
11.9129
0.0218861
6.98429
1.92209
0.0217367
0.0218892
0.0215437
0.0218156
0.0220434
0.0216607
0.0215387
0.0219572
0.02142
0.088779
0.02211
5.07154
0.021536
0.0214745
0.0219081
0.0218998
0.0220846
1.6563
0.0222586
3.58376
0.0214537
0.0221184
0.0312223
0.0215609
0.160354
0.0226285
0.0219134
0.0382746
0.0214857
0.0219713
0.0221313
0.0215459
0.0274616
0.0387793
0.0215865
0.0221123
0.0220455
11.7339
0.0229179
0.0214749
11.1342
0.0522047
0.0215819
0.0219042
0.181416
0.0221624
0.0214174
2.52469
0.191089
0.022169
0.0214195
0.0222397
0.0340189
0.0215433
0.166732
0.021578
0.0215835
0.0410463
0.0524243
0.0215766
0.0215403
0.0214281
0.0216685
0.0216816
0.0382391
0.0219627
0.021679
0.0221104
0.0218364
5.49862
0.0222722
1.76376
0.0249573
0.0264883
0.022142
4.38745
0.0217731
5.23974
0.0214375
0.0219485
0.445461
0.0219653
0.0224128
0.0216296
0.0240227
0.0216221
0.025496
0.0214725
3.64285
0.0220262
0.0214884
0.0214919
0.0215494
0.106118
0.0217517
6.96413
0.0219022
0.024074
0.0214806
0.0220185
0.204317
0.0219976
0.099909
0.0217997
0.0226253
0.0220116
0.022133
0.0221414
0.0218713
0.0219783
0.211527
0.0215497
0.0219343
0.022291
0.0220571
0.0220545
0.0320576
0.0215967
0.0219015
0.0218172
0.0215698
0.0217509
0.0219953
11.6038
0.177207
0.350751
0.0214175
0.0227447
0.0221256
0.025391
0.126797
0.216632
0.0310438
0.0215312
0.0219721
0.0216392
0.0221442
0.0221142
0.0218973
1.89172
0.0498204
0.0219259
0.293018
0.0221369
7.34322
0.0219531
0.0218785
0.0217917
0.0214798
0.0214651
0.0216311
0.0216326
0.0217541
0.0391079
0.0223741
0.021886
4.1132
0.0215444
0.022088
0.0219841
0.0214865