/*--------------------------------*- C++ -*----------------------------------*\
| =========                 |                                                 |
| \\      /  F ield         | OpenFOAM: The Open Source CFD Toolbox           |
|  \\    /   O peration     | Version:  v2012                                 |
|   \\  /    A nd           | Website:  www.openfoam.com                      |
|    \\/     M anipulation  |                                                 |
\*---------------------------------------------------------------------------*/
FoamFile
{
    version     2.0;
    format      ascii;
    class       volScalarField;
    location    "150";
    object      omega;
}
// * * * * * * * * * * * * * * * * * * * * * * * * * * * * * * * * * * * * * //

dimensions      [0 0 -1 0 0 0 0];


internalField   nonuniform List<scalar> 
9793
(
0.0221837
27.251
0.0219222
5.88843
0.0222596
0.257551
0.0814559
11.9468
0.0219337
23.9651
0.0221975
0.0221883
0.0219114
6.11954
0.0217055
0.0246095
0.0539051
0.0219182
4.21213
0.0215319
0.0215644
0.0222916
5.91761
11.8392
5.80833
0.0255507
0.0220988
0.022262
0.0215424
0.082242
15.9207
0.456718
0.0220126
0.0219346
0.0218634
0.0273462
0.0233199
0.0241396
4.10602
0.030024
0.0706507
3.67925
14.2002
0.0222715
0.021953
0.0220421
11.8504
0.0222842
0.0215692
0.0219253
0.0269952
0.0218466
0.0370152
0.0222684
0.0313306
5.44691
0.0219214
0.0980801
0.0215776
0.0222913
0.0259056
0.0880437
0.0219396
0.0333987
0.0219624
0.0218872
42.2757
0.0235135
0.0235869
11.5104
0.0219005
0.0927165
12.0767
1.34806
9.63863
0.0222624
0.0425123
10.1861
0.0219767
0.0222704
0.0455845
4.34181
0.0517534
0.0233603
0.0236471
0.294678
0.022261
0.0751413
4.17955
0.0835111
5.23523
1.9015
2.08369
0.0401013
14.3398
0.02189
9.77523
0.0500906
0.0240942
0.0222683
5.40158
0.0351532
3.51528
0.021959
7.30153
10.6797
1.40194
0.0218736
0.0219816
0.0222835
0.0222334
5.42507
3.0082
14.297
0.0218874
0.0221116
0.0229738
0.0220499
5.23944
0.0220279
6.12674
0.0806578
3.99529
0.0426152
0.0233644
0.0220333
0.0619568
13.3082
0.207965
0.216589
0.0230055
0.0217848
0.0221158
0.0228407
0.0262937
0.163905
0.476297
0.0230119
0.0222734
0.0624519
5.66962
0.0265167
0.0218676
0.0572909
11.3922
0.514052
0.0220335
9.92927
0.0217799
0.0220281
0.0220692
15.793
0.0236614
0.0220911
0.0218939
1.64112
0.0577902
0.0219337
0.583991
0.0218741
0.0695732
0.0231063
0.0215734
0.297137
0.0218011
9.27774
3.1979
0.0219267
0.021875
0.0222176
0.0218776
10.5241
27.2188
4.92612
0.0219046
0.227155
0.126203
0.600431
0.0219595
0.02343
7.82113
12.6883
0.0891699
0.0220347
0.0220715
0.0218682
2.6619
11.6577
18.5075
3.60998
0.0218456
26.105
0.403772
0.0245078
0.0215727
0.0228862
1.9835
0.0215737
0.0219155
0.0222052
0.0219132
0.0215491
0.0280207
0.0239593
4.21951
0.0218921
0.0273094
0.0219213
0.0221683
0.392554
0.0598597
7.32022
0.0216167
10.9211
0.0233835
0.0379748
0.0217141
0.159732
0.0221208
0.0469977
0.0542303
0.0215545
1.52839
4.75208
0.0382076
0.0218714
0.0524546
2.37204
0.0462646
0.0468747
4.7161
0.152453
0.0358908
0.0341811
0.338132
0.021492
9.49249
12.6559
0.021582
0.0222226
2.5869
0.0218649
0.0222311
0.116652
0.127579
0.021884
0.0234447
0.0284003
0.0361827
0.0234426
0.021966
0.04288
4.53825
0.0215565
4.93565
0.0222617
0.0221711
0.0216386
5.38615
0.0219726
4.23155
6.71416
0.022103
0.0221309
4.83487
0.0217519
0.0222395
0.0217149
5.46756
0.239894
0.0241578
0.368638
0.0921059
3.39836
6.82976
0.0219557
18.4916
0.0222641
2.37832
9.6928
4.30002
6.1961
0.145718
0.0230053
0.0469142
0.0237009
0.0215797
0.0219572
0.390468
0.0257068
0.0221398
0.0222838
0.0216135
0.0215648
0.0215633
6.12502
0.0218638
0.0217082
0.0216861
0.0219137
6.7503
0.499351
0.059479
0.0225473
0.0587384
0.021759
0.443788
11.7307
0.0219653
9.33392
0.0315979
0.0219461
39.0352
0.440044
0.022021
0.045283
14.9825
0.0220148
0.0320279
0.0217035
0.0220823
2.6739
0.0388428
0.0219457
0.0220217
0.0224471
0.159139
3.30533
0.0219267
0.0218666
0.0216332
10.8938
9.76708
8.6862
0.0214976
0.0409758
0.0325627
1.79914
0.0735808
0.0214695
0.0215109
0.0216374
0.0454581
0.0219702
9.82468
0.0220868
0.0217619
1.21362
6.27204
7.34728
0.0216141
5.31746
0.0239661
4.32546
10.5155
4.64971
0.0230836
0.0309059
0.476043
5.24425
5.43982
0.0254203
0.0222632
0.024517
0.0215461
0.0218467
0.0219552
0.0220805
0.022292
9.83233
0.022207
0.0623796
0.029637
0.490295
0.0214649
0.0234312
6.45637
0.447804
5.88348
0.071177
0.0217659
0.0231481
0.0219263
0.416938
0.0215522
6.38042
0.141139
0.0814055
8.77863
2.87582
0.0221375
0.0218733
0.473191
0.390001
0.0218921
10.3839
0.0221312
0.0221772
6.88086
0.0216146
0.0997958
0.0215013
3.12605
0.022092
0.0218038
2.30695
0.086788
0.0510659
0.0245301
0.0220739
0.0218036
4.91069
0.0499489
0.0215076
0.0221961
0.0327044
0.0325345
0.049579
11.9788
0.0221972
0.0219308
0.356088
0.0220808
4.42315
0.591924
0.0220634
0.0220181
0.0219415
0.0221161
0.0216198
5.50727
0.0473796
8.78332
0.0275689
0.0224713
0.0427831
0.0238875
5.20052
0.0252494
0.0222677
0.0235151
0.44453
0.02188
0.0218746
0.0219027
0.0215555
0.0219856
0.0217321
0.0220441
0.0221579
0.02255
0.023687
0.116333
0.0217548
1.53171
0.0247299
0.189284
7.15136
0.0215888
1.10533
0.0805211
0.0215835
0.0215549
0.0218691
6.7871
0.0935972
0.0215509
0.0221202
0.0221987
0.0612474
0.139889
10.3402
0.0219758
0.021895
0.0299323
11.939
4.49394
0.023161
0.0225676
5.09656
7.87088
0.20766
0.0220563
0.0217734
4.23109
0.0218931
0.124666
0.600213
0.0215004
0.214983
0.0261736
5.10421
0.021807
3.86197
0.372292
0.0242653
4.31068
0.0218927
1.55436
0.0220935
0.0218712
0.0222231
0.0219342
9.44577
0.0218838
0.0215765
0.0225289
0.0215062
0.021773
0.0449378
0.0224663
0.0329147
0.0220343
0.0220382
5.76616
0.0683216
0.0231168
5.0408
0.0233804
0.0220629
0.0219774
0.0216172
9.05446
0.0215668
0.0220689
16.3935
3.86797
0.0373321
0.0219195
0.022284
0.0218928
0.0222407
4.84054
0.0220568
3.51762
0.0231379
1.95357
0.0222619
35.5432
0.022013
0.205749
0.0219003
0.102445
5.66946
0.0221023
3.22956
0.021874
0.0222182
0.0215588
7.174
4.3275
0.0218742
0.0269665
0.0215555
4.81722
0.0216855
0.0436582
3.92986
0.0243539
0.022026
0.0425563
0.022245
0.0219162
0.021655
0.109225
0.0219548
4.86792
0.0220517
0.0219782
0.0375807
0.0693553
0.36421
0.0217048
35.389
0.0218673
0.180756
0.0218909
0.0218864
0.0218891
0.0220496
0.022268
0.188557
0.036637
4.43936
0.12224
0.0331713
0.0323644
5.28041
0.0230727
4.77798
14.8072
0.231555
12.6881
0.501442
0.163469
0.0219163
3.38816
0.0368869
0.0218369
0.31118
0.0222508
0.382268
0.0341829
0.230585
0.0264086
6.52681
14.7857
0.0349769
0.203072
0.0222168
0.536719
0.0224999
0.0219041
0.0219614
0.0224886
0.0457236
4.67265
0.240081
12.3665
0.0228516
0.0229735
5.14265
0.291297
0.0224202
0.0644126
0.0221884
5.00292
1.4799
0.022058
0.0594265
0.219364
15.6214
0.0219572
0.0248747
7.1679
0.0272796
1.92699
0.106465
0.478219
0.0247949
0.0231816
0.0217829
0.0218966
0.270155
0.0222841
0.284296
0.152032
0.078253
0.0222595
0.0222238
0.0226061
0.0217216
0.0218277
0.0218691
0.109776
6.27917
5.2023
0.0222796
0.317591
0.0219464
12.9764
0.0471803
0.043937
0.0322323
0.349967
0.0217388
0.0220602
0.0402868
0.0218915
0.0218599
0.0623544
5.50278
0.0215466
0.243365
4.2199
0.0236546
2.53405
4.25053
0.0217377
0.0549566
0.0251317
0.0218439
0.0215607
0.0918337
4.27173
12.4973
0.0218874
0.0220156
0.0216152
0.0231781
0.022488
0.0232373
0.539288
0.0469736
0.0221516
4.81351
0.0281825
0.0316286
0.0218296
31.4277
0.0228659
0.0219163
0.0810826
2.09473
0.0215067
0.0220493
0.0219343
0.0238812
0.0217341
0.0360938
0.546068
0.0220287
0.109427
0.0222997
0.0217975
0.380726
8.0322
0.24778
0.022074
0.0215093
0.488118
0.024941
0.369944
0.0214895
0.0218716
13.811
3.63664
0.0290221
0.106926
0.0577865
0.0218672
0.0222717
0.0218287
15.2874
0.0220568
0.0222928
5.19516
0.0262798
0.355906
0.0308914
0.021931
5.91448
0.0222678
0.0218885
0.0218263
0.0291396
5.95195
0.0221628
0.0219649
0.0218888
0.0218775
0.0219373
0.0217939
13.266
0.0300393
0.0224978
0.0221096
0.0300725
0.0625204
0.0244759
0.027146
0.0222839
0.0216102
0.0228221
4.25782
4.04456
0.022361
12.5901
0.022216
0.024448
1.08658
2.13203
0.0216924
0.0221816
0.324631
0.0525241
0.0219051
0.0222482
5.2417
0.0222681
0.0700492
0.0220126
0.478978
0.0222472
0.022022
0.0221264
0.0298237
0.0216916
0.0238024
0.0250517
0.153737
0.0218574
0.0219978
0.0222497
0.021865
0.0218854
0.0216959
0.0299618
0.0221106
0.0526394
5.77241
0.0421036
0.0651573
0.022203
0.02165
12.611
0.656053
0.0215536
3.03571
15.672
0.0215141
0.0219603
0.0218672
0.0971455
0.0556481
2.26327
0.021851
0.0243627
0.0218546
0.0221195
0.0220568
0.0822245
0.02186
0.295047
0.022092
0.0542259
0.0218894
0.0227244
0.0218836
0.0340447
0.0555077
14.562
3.53144
3.17532
0.0484365
0.021867
2.78949
3.32793
0.0655957
0.0218115
0.0220841
2.08185
0.0218586
5.96945
0.0214953
0.0275045
0.0219008
0.0222698
0.021699
1.93848
14.7791
5.9687
0.0660982
10.6592
0.0219397
6.24926
11.0282
0.0222705
0.0219704
0.0217161
0.355521
0.0215009
12.3648
0.0306189
0.165842
0.0220467
0.842656
13.023
1.74364
0.0282088
0.0311906
0.0220403
18.3524
0.021474
0.600062
0.280309
0.0627677
9.22529
11.339
0.0231489
0.0228941
0.0219476
0.11589
12.2272
8.91084
0.0217317
3.90927
0.0241346
0.126595
0.115476
5.55148
5.55262
0.0215029
0.0250595
0.0290159
0.023115
0.0227569
4.00072
0.0221983
11.2452
0.0216534
0.0214912
0.0783448
0.117016
0.351427
0.0222247
19.8807
14.44
0.651324
0.0256681
0.0222329
0.0222303
0.0222269
0.0218757
0.823051
0.365109
0.0219473
0.0218876
0.0301451
1.67197
0.0250586
0.0219038
0.37543
0.0219253
0.0222749
0.0214791
0.0631706
0.0220298
0.0236984
6.63817
0.0624396
0.0221653
4.42047
0.114286
0.0219199
0.0222518
0.0331021
0.0222624
0.0219625
0.0216943
12.0948
0.427439
0.0220422
0.0347159
0.0340249
0.539978
0.0218869
6.45514
0.0218558
0.0217401
0.588715
0.27421
0.0689043
0.0219388
0.0218853
11.6412
5.31195
0.27697
2.82947
0.0221015
0.0226134
0.0220165
15.893
0.0235814
0.327297
0.0224161
0.0217991
0.0226047
0.0216158
0.0218715
0.0596877
0.0217614
6.46835
0.0217077
0.0220458
0.0214933
0.0236388
6.03852
5.85989
0.0532768
12.1659
0.0219797
0.0342069
0.0225611
1.2082
0.0215908
0.0215069
3.36616
0.0327052
0.0310122
0.0221109
0.202722
2.47057
4.53689
0.0220122
0.0324155
0.918051
0.0293434
1.19509
0.142253
0.0807901
0.0216793
0.0223106
0.0652291
0.0721528
0.0219876
0.118755
0.0217245
0.0221844
0.0221026
0.0217175
0.0218744
0.0219857
0.75483
0.0249346
0.022494
0.0448386
0.0217283
0.0219094
0.0367636
5.7786
0.0770197
0.0618595
5.45774
0.0222338
9.64948
0.0280558
8.2409
0.057997
0.0222029
0.0218331
0.0228182
9.04816
1.71345
0.0490978
0.14199
0.02161
0.0218406
0.0222477
0.0222022
16.051
0.0247819
0.0217746
0.18271
0.278986
2.48162
0.0223404
3.51549
0.0515095
0.0401057
0.0301291
0.406425
0.232072
0.0220457
5.93813
0.258951
0.036314
4.45013
0.0456887
0.0219122
0.0222638
0.021887
0.0227396
0.0260217
23.7111
0.0508097
0.0218671
0.390164
0.0220044
5.81556
3.45274
0.0219532
27.6192
0.0217141
0.0216729
0.0217235
5.55994
14.3018
0.049646
0.0296066
0.0215568
0.53831
0.0222313
0.0298432
0.0220895
0.0220048
0.0217496
2.37542
0.0224876
0.0389502
0.0277302
0.0222116
0.317954
0.140659
0.0321155
0.0244737
0.0230314
3.98179
1.44788
0.0216276
0.0217098
0.0216242
0.0223104
13.5222
12.1829
0.244724
0.0247281
0.021763
9.69582
0.481679
0.0220335
22.7293
0.0216874
0.0894119
15.8996
0.0217219
12.4462
9.58246
0.134308
13.6585
2.07643
0.021805
0.0223977
2.43071
4.73977
0.0223119
10.4614
0.0242375
0.0218768
0.0222738
0.0225052
0.0398948
0.0244562
0.270022
14.0162
0.224485
0.0322198
0.0220787
0.0580955
2.26592
0.021717
3.64621
0.0467999
0.0222197
0.0238693
0.0222414
0.0220549
0.0298619
2.33233
0.0220153
0.021777
8.82026
5.88892
0.0762191
0.0222611
0.0564004
0.02191
0.02193
5.44317
8.75561
0.0219191
0.0214672
5.89919
5.84365
0.0476902
0.0220955
10.3469
0.0221994
0.021924
0.0226334
0.0219303
0.0216055
0.0216009
9.10754
0.260467
0.0249747
1.71565
0.0457826
5.31182
5.98311
4.33865
0.166075
0.0218796
0.0222382
0.0219632
0.0219922
0.0692179
0.0218767
0.0992098
0.0283511
0.367073
0.0220473
5.2899
0.0339485
10.1027
0.0219233
1.73955
0.0281898
0.184415
0.334512
0.0299817
0.0215977
9.31777
0.0573835
1.51562
0.0215549
2.01943
0.0220288
11.9093
0.439506
0.0400366
0.0219031
0.0220874
4.91874
12.0339
0.0303011
0.0214505
0.301854
0.0820746
0.0451975
3.5473
0.0754137
0.0218537
0.816124
0.0218918
0.0316189
0.021517
9.78289
0.0215241
0.0224763
0.400434
3.77189
0.0222221
0.0693412
0.0232664
0.0714788
0.0218745
0.299617
0.0229221
0.0596212
0.0218635
0.0219849
4.31997
0.0272065
12.2397
0.701621
6.70893
0.0224408
0.0215465
0.0216963
0.0248108
0.0364353
0.0304995
6.8217
0.0229367
0.321899
0.0394707
0.022281
0.0218379
0.0753067
0.423902
17.6415
0.0218799
5.1068
0.0218575
6.30149
1.53365
0.047563
0.0219922
0.0216624
0.0420142
2.37426
0.0236792
0.0222685
0.0226256
0.0451447
0.0221664
1.21681
3.91939
4.0423
0.0221567
0.0254001
11.2494
0.0221882
0.0573663
0.0217231
0.716983
0.034631
0.0219378
0.0408112
0.16869
0.0216599
2.92355
0.021894
0.15967
0.220036
0.439413
0.296501
0.0221677
0.02205
17.183
0.0220292
0.0375241
0.0896234
0.0229518
0.0214637
10.7873
0.0240137
0.371233
0.0223599
0.0615414
0.0222903
0.372817
0.0243801
0.0239615
2.48977
0.966693
0.0220875
0.022273
0.148384
4.38316
1.90958
0.644681
0.0274269
0.0219006
0.0217757
4.40589
0.0221381
2.46786
0.098399
3.01269
0.0221069
0.0216946
0.0217798
0.0422008
0.0409816
3.684
5.86414
1.0645
0.242193
0.0215871
2.46427
0.0225995
0.0676048
0.0223046
0.0394231
0.0554785
0.0219061
0.0215455
0.069524
0.0216011
0.0379771
0.0634454
5.2443
8.29247
0.0344335
4.23223
0.0216658
0.0215419
0.0220737
0.180478
0.0570281
0.0457521
0.116942
5.14584
0.0371083
0.136778
0.0217231
0.0218445
16.854
0.021751
0.251132
0.0214389
0.0218211
5.76332
0.286489
0.0218098
0.0831554
0.488078
10.2137
2.95598
0.0243339
0.0734978
0.0500938
5.17662
0.0219293
6.36083
8.88714
0.0231472
0.0240739
0.0215661
0.41757
0.0215572
0.021978
5.45207
0.0220497
0.0215118
0.226977
0.0618817
5.48464
5.73252
3.50542
6.28849
0.0214842
0.0218787
0.0218136
0.0222061
1.62898
0.0219252
5.2163
0.0225879
12.1955
0.0237529
0.0219932
0.0216659
0.0220743
0.028955
0.02181
0.0214585
0.358257
0.0217949
0.0522433
0.0222543
14.9082
0.0237525
0.0220769
0.0216538
0.0539213
0.0219027
0.021751
0.0220873
0.0222152
0.0229994
0.0218068
0.0228892
0.0300154
0.818293
10.0141
11.8365
4.00057
0.0217488
0.0220047
0.0218984
0.0214079
0.0219149
0.0217128
0.234637
0.0218234
0.0222515
0.0220683
0.022044
0.0218036
9.90907
0.0228149
0.0219694
20.8514
0.0437251
0.0216985
8.93343
14.2754
0.0220208
0.386253
0.584566
0.0219338
0.0428609
0.0233427
0.0215353
0.0263892
0.021817
0.0367685
0.0220122
0.022247
0.0217235
45.5852
0.026004
0.0427692
0.022032
0.0222649
12.9475
0.0248202
0.0220368
0.0232833
0.0235975
0.0222518
0.214956
16.4302
1.26944
5.82358
0.205886
0.0353658
0.0222596
12.7662
0.173852
0.0224053
0.0620281
0.0222931
0.0218696
0.0222461
3.15198
0.0435545
0.0219991
0.0220431
0.221072
0.0217081
0.363666
0.021874
1.79284
0.296466
0.356547
0.0220777
0.0227888
0.0301515
0.033662
0.0220548
0.036851
0.0788586
0.463512
0.0218123
0.466551
10.4571
0.021511
4.30947
0.0407995
0.317387
0.111367
0.0218981
0.0267868
0.0407204
0.0216702
0.0242916
0.0215195
0.442943
2.02586
0.0309775
0.0218206
0.165988
0.0686041
2.85393
0.247918
0.0228579
0.0266603
0.0219354
0.0218554
0.0407618
0.0482549
21.5686
0.0217913
0.421053
0.0221873
7.35494
0.203607
5.29943
0.0215829
0.022593
1.93359
1.74914
0.0402987
7.69455
0.0221565
0.1923
0.0219096
0.0218123
5.20079
0.261261
0.023219
0.0220924
0.0690146
2.17988
0.174019
0.0608526
0.0217533
0.0220157
0.0217039
2.3735
13.199
0.021702
0.0458364
5.13257
0.0779282
0.253341
5.11385
8.11991
1.93642
0.0217116
0.0220831
4.3369
0.0218808
0.0462537
1.51473
9.10593
0.0229149
0.0288085
6.47896
0.608511
2.00066
12.5029
4.19301
5.67042
0.0221101
0.0215814
0.0219862
0.0220636
19.0156
0.0503289
0.338876
0.384152
0.0525099
0.0217854
0.299868
0.0216142
0.029159
0.0219173
0.0383268
12.0724
3.88575
0.0220706
0.0215615
0.0345522
0.524838
0.198265
9.02574
0.0417381
0.0219367
0.0739436
0.0214325
0.0859499
0.0303376
0.0218798
0.519258
0.152947
0.495922
0.0561694
0.0220522
0.021504
8.75509
0.0243807
0.021587
0.0221451
0.0222558
0.0216703
7.42562
7.12316
3.85916
1.35954
8.89567
0.0227583
0.0219321
3.1855
0.0233929
0.100476
0.794963
0.021862
12.2147
4.31842
0.0607767
0.0318844
0.765867
0.0226968
1.7433
0.0362664
5.55728
0.021794
0.0225167
0.0385676
3.47259
0.129786
0.0627648
10.0109
2.44938
0.0656789
0.188668
3.31925
0.0235877
0.318971
33.3594
0.0343658
0.0579358
6.13503
0.0302722
0.0348702
0.0221026
0.0365863
0.038901
0.0555122
0.0220872
2.63921
0.146372
5.83325
11.1378
3.85689
0.0374035
1.54409
3.53827
0.0218405
0.385496
3.42059
2.00238
0.0268134
0.023518
5.80049
8.72419
0.0215651
0.208235
0.0217414
0.0219032
4.35178
0.0244925
5.20761
6.03703
4.10094
1.60128
0.0216015
0.0346051
0.0219193
0.0218377
0.10224
0.0589277
0.0254893
2.5552
5.11586
0.0222729
0.0250601
1.316
0.0226773
0.334721
0.0440714
4.76845
4.81687
0.480435
7.12302
14.9744
5.22009
4.9082
3.98491
0.0272276
0.0243942
0.10841
0.107961
5.65949
1.38701
0.0221318
0.0222179
9.29828
5.78741
0.0235091
9.99846
0.021879
0.780847
5.80905
0.603395
0.0219191
5.82367
1.50487
0.0258565
0.0329915
12.1669
12.5957
11.7795
14.763
0.0218973
8.55981
5.04412
0.0380158
0.205868
0.097285
0.021723
0.0257215
5.67408
4.43415
0.0238534
0.0221716
6.08532
0.0790878
3.88472
0.0748287
1.86133
5.00088
0.0219869
10.7653
0.0222852
0.0281392
0.0219529
0.0216943
0.0216931
0.0358712
0.241418
0.0214708
11.5742
0.0801097
3.45191
9.12531
5.36367
0.0219055
6.92014
1.52868
5.08791
0.0329172
0.0219061
5.00652
0.40333
4.43216
0.0507905
0.0229364
0.0216754
7.5484
8.33127
0.0319716
10.7131
0.0293678
0.0220436
5.46719
0.0498748
18.206
0.021761
0.0262723
5.10104
11.3514
4.70195
0.203027
4.72904
5.0195
4.04235
0.0220481
9.65202
0.0450633
0.0217999
0.0215069
0.0218583
9.17514
0.0456261
4.78711
4.5332
0.0328835
0.140765
0.0896353
4.12975
0.250707
12.2858
9.77025
1.26264
0.0775082
0.0215911
0.262743
0.0519812
0.134619
5.41136
5.14547
1.6421
0.0220934
0.0234621
0.0450337
0.022059
0.0217983
0.0269485
4.82428
0.0257284
0.023434
5.32324
0.0815499
0.339929
3.42432
5.00338
0.425374
4.46755
10.5451
3.98872
0.0575399
0.0303985
0.0219812
1.25265
0.111774
0.294603
0.0578283
0.0552548
0.0214389
0.217208
0.664028
0.0243808
0.0215652
0.0224132
4.39561
0.0218676
0.0220271
0.0626591
5.01344
0.0259779
0.0508623
0.155123
0.0289186
0.0623187
0.0218135
0.0219787
0.0399733
0.255153
0.0220899
0.0300874
0.242506
0.821405
0.0219921
11.3796
0.0218023
4.80846
0.0227846
0.0229364
0.021528
0.204873
0.0315622
8.04404
10.047
0.0616303
0.0221629
0.0217022
6.33348
4.2661
0.0216068
0.230621
4.44313
0.0524242
0.0702472
0.021403
0.0223553
0.0219052
5.69152
0.0413461
0.0220509
11.1724
0.0221656
0.0527112
0.307076
0.0217245
0.0884406
0.0609133
17.949
0.0221975
0.0252394
0.0229079
0.0542255
0.021386
0.021892
0.530082
0.328482
0.0783115
0.0217103
4.3102
0.0221864
0.0221671
0.0219566
0.502788
11.7344
0.0231732
10.7448
2.45588
0.0639279
5.64311
4.41111
9.50877
4.31681
0.0536578
0.0678018
0.26304
0.0474484
0.0219495
0.0286081
0.0280693
10.3482
0.0220773
8.25953
0.0219725
0.377926
0.093056
0.0224181
0.0224136
11.0919
18.0888
6.87536
5.08709
0.021801
0.0732236
11.1477
0.024778
8.62513
0.0381518
0.097062
4.18534
0.0291352
0.0219934
0.133553
0.16393
0.0218842
5.01856
0.917274
0.0216934
0.0222391
0.0221211
0.0220103
9.18987
0.0216913
0.0469766
0.0220261
0.0219097
0.030549
0.0219285
5.75617
0.0888538
0.0219905
0.0215905
0.124354
0.0227353
0.0514526
10.287
10.132
0.0510709
0.231021
0.0379403
0.0215657
0.160795
9.66036
0.0363351
4.92644
0.456632
0.0692341
0.0372887
0.0252233
0.0690073
0.0357641
12.2261
0.0221125
0.021971
0.0215972
4.47816
9.72259
0.0338158
0.118322
0.0217305
0.0244514
0.117993
0.346194
0.0218488
0.05792
4.16041
0.0797335
0.0219866
0.0218685
19.4787
12.3579
0.0219181
0.568474
0.0283065
0.250449
0.228152
0.0218497
6.01665
0.0273951
0.0220247
3.24397
0.25865
0.0219033
0.0221633
0.336372
0.0217387
0.0220427
0.173193
0.0390627
0.042518
12.7039
0.0244419
0.038989
4.15708
0.021784
4.279
11.7442
0.0243083
0.0609017
0.197574
0.0219086
0.188749
0.0214488
2.7849
1.48626
0.0220047
0.836451
4.25549
0.0218742
0.0218934
0.507464
0.0347787
6.13495
5.51632
0.022094
0.0420309
11.1598
0.0220866
0.0489236
0.075976
0.0320194
3.2668
0.199202
0.0223601
0.292691
5.11118
0.0422583
3.50925
0.0219078
0.0215286
0.0222673
0.0394171
2.09752
0.0220653
0.0303102
11.5809
4.62209
0.0222183
0.0286398
1.91486
5.55784
0.0222249
5.69915
0.0327319
0.0889285
0.0338777
0.0226297
0.025039
0.0218867
0.0219523
0.610779
0.021932
0.0477662
0.0219772
11.2877
0.0223484
0.0226449
0.021561
0.0230691
0.0219808
0.0401488
8.73986
0.296751
0.0365621
0.0394142
0.0219665
0.0298378
0.0514279
2.89274
9.30764
0.0218242
1.06718
0.0220234
2.33275
5.30603
9.34021
0.0218192
0.0987319
0.0760798
11.3225
0.207117
0.0218059
2.36643
0.290461
0.0351048
0.424899
0.0218691
0.0219216
0.0370782
6.23588
0.0218872
0.607021
0.0320552
2.83883
0.0814349
0.0221245
3.09508
0.0269378
0.0219879
0.291944
0.0218064
2.85183
9.67206
0.162073
0.0263174
0.141856
0.0218871
0.10651
0.0429951
6.48604
0.0219253
0.0215362
0.0258211
0.0284341
0.0431477
4.59919
2.97868
0.0335432
0.205558
0.0217784
3.38127
0.923689
0.170418
0.0218895
0.0222599
0.0222362
3.17356
0.02195
0.0251175
3.12645
0.0889114
0.0219071
0.230447
0.0834516
0.0219843
0.0243128
0.127715
1.34408
0.0672586
0.0417987
4.41541
5.94815
0.277386
0.0256412
0.0219837
0.023688
0.0238281
0.154124
0.0572583
0.0259692
0.082007
11.357
0.0233774
0.0219922
10.2131
0.25797
6.79533
0.17819
0.0248049
0.02311
0.0230689
0.0217244
0.0218316
0.0431861
0.0214955
0.0225385
0.0219848
0.0225195
0.0229898
0.0219355
0.0359555
0.0329185
0.0218433
0.0219193
0.0221188
0.0223967
0.0221257
0.247157
0.0220561
0.0228884
1.33561
0.0216056
0.0227363
0.0220692
0.0258687
10.613
9.51055
5.03945
5.98664
1.31134
0.223899
0.0218568
0.0584555
0.0218874
0.555023
0.0222473
0.0280347
0.0220213
0.0536598
0.0219514
0.0296848
0.0217662
3.18723
0.187599
0.0220778
11.8107
1.47249
0.0218381
0.102756
0.0219392
0.0215505
11.7441
0.0218613
0.0657232
0.227484
0.0221043
0.0215083
0.074377
4.14839
0.0241304
0.022714
5.72444
0.0219319
7.52031
0.0489379
11.2073
0.0216434
5.05904
0.0218583
0.0220248
0.269868
0.058989
5.46132
4.40821
13.9326
3.16338
0.196103
0.142125
0.022046
0.154726
0.0217319
0.0218112
0.0853974
0.0218958
0.0219784
0.0215633
0.0215939
0.0560361
0.600529
5.02351
0.3555
5.57081
0.0228264
0.0286973
0.0222269
0.022408
0.0785649
0.021929
0.0215462
0.0217925
0.0229443
0.0226986
0.167582
0.0907917
0.0448443
0.0221081
0.0497134
0.0512781
4.24944
11.6958
0.0239724
0.0385418
0.0220872
11.6153
5.5541
0.0219013
0.0219311
0.0237248
0.0222137
0.317699
0.328524
10.8081
0.0219845
3.19442
0.0219744
4.61013
0.0493404
0.0218033
0.0270432
0.37768
0.0257714
0.0268787
0.0281442
0.0848212
4.91665
0.0215589
0.0219122
0.0267111
0.214143
0.021814
3.93542
3.17891
0.0218937
0.0214018
10.6595
0.0673378
0.0218882
3.40069
12.0793
3.0495
2.97822
0.0264133
1.90459
0.0220707
10.8526
3.22627
0.663814
0.0663357
0.0232484
9.00498
0.024167
0.021859
0.0214361
0.316456
0.0216054
1.05731
0.0220067
0.0220229
0.0241637
4.87649
0.0232143
0.0223922
0.0220732
7.47154
6.19801
11.0063
4.64629
0.0392388
0.0218869
0.0234153
0.256907
0.100483
0.0219836
0.0491693
0.262224
0.468338
0.0217687
7.48842
10.8707
0.0347863
0.0220627
0.0231672
0.0219403
0.0216452
0.0219248
0.0220335
0.0217232
0.0884394
0.0220943
0.13505
0.0222914
0.0223486
10.1936
0.0717339
0.022342
0.0223948
4.8969
0.0214913
0.0222924
0.0251186
0.0218079
0.321318
0.02904
0.0223806
0.0408931
0.0218389
0.0260397
0.0215555
0.148375
0.0218056
0.0218475
0.709209
0.0224726
0.177395
0.0319837
0.0231305
0.0893973
0.0213914
0.0220868
0.0223273
12.2383
0.0228684
0.0218919
2.00741
0.0218948
0.0215905
0.0218806
0.736207
0.0303142
0.14672
0.0315103
0.0290584
0.0458661
0.0232322
0.0260321
0.0436287
4.09773
0.0220914
0.0272221
0.0217377
0.217671
0.23445
0.0219027
0.0257871
3.49022
0.0282769
0.0214964
10.5157
0.0249219
0.0750757
5.68168
0.0266222
0.0218364
0.0281914
0.0218945
0.0228067
0.0219007
0.0228059
0.0249709
0.0219695
0.0220678
0.0300041
0.0220099
0.0968859
0.0217615
0.0231246
0.0218667
0.026315
5.04843
0.0219306
0.0217966
0.08888
0.0222579
0.0218499
0.235854
11.5238
6.11257
0.0219465
0.0237284
0.0317746
0.0222444
0.0221248
0.0323457
0.157735
0.0215135
0.048565
0.0219088
0.0218805
0.0216538
0.0214981
0.0222265
0.0413003
0.0325607
0.0253732
4.03616
0.0234709
0.0267737
0.0216557
5.45582
0.583506
3.12118
0.02193
0.0452506
0.0271014
0.0219092
0.0221194
0.0387294
4.49166
5.35646
0.0216714
0.0259928
9.36505
0.0224153
0.219117
7.6095
4.15769
0.0273469
0.0219106
0.0370944
0.0433743
0.212896
10.7867
1.21195
4.30962
0.0222938
0.022174
0.0218729
0.113116
0.0217735
0.0216586
0.0366576
0.0218516
0.0217315
0.0218736
0.0475724
0.021785
0.0217654
0.0219666
4.71918
0.0214847
0.0219302
0.0221056
0.0220148
0.0219375
0.0651293
0.0730661
0.757804
0.0214816
0.0270759
0.121899
8.54527
4.02048
0.0220687
0.022275
0.0484497
0.0873491
0.0248494
0.342807
0.0219149
1.9077
0.022278
5.15956
0.0224116
0.0218674
0.0417434
0.0218903
0.0216843
0.0223811
0.567454
0.0237075
0.0222037
0.0221785
0.021897
0.0388852
0.0216314
0.0219093
0.0250024
0.0930618
0.0235881
0.0215853
4.92333
1.73848
0.0219003
0.318682
0.0221435
0.0263237
0.074614
0.24906
0.0228912
0.0225449
0.0219552
0.23307
0.0273066
0.021866
0.0218796
0.0227464
0.254619
0.0216875
0.0320546
0.0232597
0.0326615
0.0462278
0.0366961
0.0812223
3.8334
0.0241474
0.0220399
7.83213
0.382952
0.0219292
0.0214693
0.0220617
0.021907
0.0218621
0.0232791
0.021649
0.022077
7.40919
5.385
0.0290398
0.0218878
6.35897
0.0232335
0.0216886
8.28322
0.0227383
0.0215933
0.0220933
0.0220376
0.0331833
0.02194
0.0511015
0.0219019
0.0217685
0.0218999
0.0309836
0.0345161
0.0218851
0.0572565
5.04426
0.0227062
0.0218779
0.0551546
0.0216541
0.0218933
0.0218436
0.0282305
0.0220526
10.7823
0.0221451
0.220083
3.12949
0.0549573
0.0224743
0.0219539
0.021934
0.0219239
0.028293
0.180459
0.129099
0.0217914
0.023171
9.68743
0.0215024
0.151268
0.0219616
0.0222492
0.0297053
0.057257
0.0219533
0.0300792
0.0268566
0.0532001
5.4272
8.43257
0.0216475
0.0219242
0.0306704
0.0220712
0.0223381
0.0486765
0.0221539
0.108491
0.0217711
0.0631626
0.0221059
0.0722994
0.0556122
5.03894
8.97021
0.0219136
0.0378612
0.707931
0.259154
0.0215493
0.0215507
0.145951
0.0219295
0.0217698
0.0217253
0.0214776
0.0657846
0.0778901
19.73
0.0220209
0.0420345
0.0222548
0.0215463
0.022601
5.41487
0.183741
0.0218618
0.0219864
0.0218162
8.27321
0.0219904
0.0218952
0.0222085
0.0219006
0.0398216
0.0218282
4.01032
0.0219834
0.0220219
0.0220183
0.0218407
0.0216868
0.0220089
8.51239
0.0217702
0.0218926
0.298337
0.0217475
0.0220421
0.0221109
0.0221564
0.0532829
0.0218548
0.0219681
2.45746
0.0226066
0.0220382
0.0220727
0.0214359
4.30645
0.0225655
0.0220507
0.0218513
0.0247182
0.021962
1.23128
0.0217863
0.0220123
11.6019
0.0219765
0.0615929
0.0220255
0.0213923
0.021448
0.0289295
0.0356206
0.0218066
0.0222859
0.0229167
0.0218818
0.02211
0.0219663
0.0216561
0.0215484
0.0215671
0.431091
0.0219499
0.0218119
4.2533
0.021891
0.0257265
0.140388
5.30236
0.0217915
0.0219493
0.0219489
0.021604
0.0225445
0.0374596
0.0232953
0.032486
0.0217318
0.0238025
0.0218917
0.0214518
0.02514
0.056382
0.0230252
0.0256837
0.0220269
0.0219484
0.0221201
4.53497
0.0224825
0.0220136
15.7542
0.0221474
2.25741
0.0220618
0.0219201
0.0216868
6.10627
0.0218583
0.0241998
0.0222528
0.0220709
0.0219585
0.0220871
0.0218179
0.0232347
0.0218564
0.0359961
0.0222476
0.0385735
0.021428
0.0216007
0.0229044
2.98166
0.022149
0.0220476
0.022296
0.02189
0.0230786
5.77875
0.0224079
0.0259324
5.41411
0.276214
0.0223948
0.0220808
0.178574
0.0986979
0.0223638
0.0221141
0.0216425
2.24542
0.0220155
12.2795
0.0215937
0.0215183
0.0221039
0.0216077
0.0227228
0.0215598
0.0219873
0.0222649
0.0605683
0.0231307
0.0220604
0.0215804
0.328792
0.0653372
0.0214745
0.0221036
0.0228944
0.0222389
0.0220584
0.0215377
5.52139
0.0215422
0.0218718
0.0620663
0.0215339
4.7773
0.0218137
0.0369645
0.0247304
0.0219605
0.0214852
0.0219009
0.0217192
0.0220422
0.0215384
0.0215769
0.355915
5.51933
4.10237
0.0215741
1.5496
0.0218954
0.0560333
0.0218981
0.0219055
0.0221081
0.510502
0.0219351
0.0218841
0.022126
0.0218924
0.376503
0.0218892
3.94172
0.0214256
0.021948
4.56456
9.90829
0.0219824
0.0219469
0.025769
0.0220184
0.143096
0.0217397
0.577906
0.0217387
0.0341383
0.0221393
0.0218016
0.021929
0.0218888
0.0227031
0.0218262
0.0291181
0.0315045
0.109136
0.0215238
7.48418
0.0218804
11.8855
0.0218861
6.97582
1.98568
0.0217367
0.0218892
0.0215437
0.0218155
0.0220434
0.0216606
0.0215386
0.021957
0.02142
0.0886975
0.02211
5.06387
0.021536
0.0214745
0.0219081
0.0218998
0.0220843
1.69461
0.0222582
3.56752
0.0214536
0.0221184
0.0312256
0.0215608
0.160735
0.0226285
0.0219134
0.0382722
0.0214857
0.0219713
0.0221311
0.0215458
0.0274576
0.038775
0.0215864
0.0221123
0.0220455
11.7058
0.022918
0.0214749
11.1373
0.0522092
0.0215819
0.0219041
0.181637
0.022162
0.0214174
2.4838
0.191173
0.0221687
0.0214195
0.0222397
0.0340125
0.0215433
0.167605
0.021578
0.0215834
0.0410545
0.0524141
0.0215766
0.0215402
0.0214281
0.0216684
0.0216816
0.038231
0.0219628
0.0216789
0.0221104
0.0218365
5.49529
0.0222722
1.80535
0.0249576
0.0264891
0.022142
4.37789
0.0217729
5.26796
0.0214374
0.0219485
0.44476
0.0219653
0.0224124
0.0216296
0.0240209
0.0216221
0.0254964
0.0214725
3.64144
0.022026
0.0214884
0.0214918
0.0215493
0.106015
0.0217517
6.97775
0.0219022
0.0240716
0.0214805
0.0220186
0.203416
0.0219977
0.0996817
0.0217997
0.0226247
0.022011
0.022133
0.0221412
0.0218713
0.0219783
0.21146
0.0215497
0.0219343
0.0222907
0.0220571
0.0220544
0.0320593
0.0215966
0.0219015
0.0218172
0.0215698
0.0217509
0.0219954
11.593
0.176663
0.350529
0.0214174
0.0227443
0.0221257
0.0253916
0.126674
0.216855
0.0310466
0.0215311
0.0219721
0.0216391
0.0221443
0.0221142
0.0218973
1.92994
0.0497989
0.0219259
0.291027
0.022137
7.32567
0.0219532
0.0218785
0.0217917
0.0214797
0.0214651
0.021631
0.0216326
0.0217542
0.0391062
0.0223741
0.021886
4.11715
0.0215444
0.0220877
0.0219842
0.0214865