/*--------------------------------*- C++ -*----------------------------------*\
| =========                 |                                                 |
| \\      /  F ield         | OpenFOAM: The Open Source CFD Toolbox           |
|  \\    /   O peration     | Version:  v2012                                 |
|   \\  /    A nd           | Website:  www.openfoam.com                      |
|    \\/     M anipulation  |                                                 |
\*---------------------------------------------------------------------------*/
FoamFile
{
    version     2.0;
    format      ascii;
    class       volVectorField;
    location    "100";
    object      cellDisplacement;
}
// * * * * * * * * * * * * * * * * * * * * * * * * * * * * * * * * * * * * * //

dimensions      [0 1 0 0 0 0 0];


internalField   nonuniform List<vector> 
10042
(
(0 -0.00205906 0)
(0 -0.00564992 0)
(0 -0.00495977 0)
(0 -0.00141943 0)
(0 -0.000774012 0)
(0 -0.00610014 0)
(0 -0.00260244 0)
(0 -0.00338553 0)
(0 -0.00151324 0)
(0 -0.00336895 0)
(0 -0.00371958 0)
(0 -0.00563243 0)
(0 -0.00173478 0)
(0 -0.00381624 0)
(0 -0.00179413 0)
(0 -0.00380812 0)
(0 -0.00610382 0)
(0 -0.0037759 0)
(0 -0.00170896 0)
(0 -0.00416251 0)
(0 -0.00180288 0)
(0 -0.00199867 0)
(0 -0.00135317 0)
(0 -0.00515816 0)
(0 -0.00304752 0)
(0 -8.33358e-05 0)
(0 -0.00338411 0)
(0 -0.000968064 0)
(0 -0.00610896 0)
(0 -0.00528143 0)
(0 -0.000405127 0)
(0 -0.00111421 0)
(0 -0.00139688 0)
(0 -0.00132358 0)
(0 -0.00342202 0)
(0 -0.00352138 0)
(0 -0.00027147 0)
(0 -0.00159326 0)
(0 -0.000556967 0)
(0 -0.00014949 0)
(0 -0.00523472 0)
(0 -0.00143445 0)
(0 -0.00165302 0)
(0 -0.00526116 0)
(0 -0.00220666 0)
(0 -0.00315845 0)
(0 -0.000617984 0)
(0 -0.00179574 0)
(0 -0.00275876 0)
(0 -0.0019499 0)
(0 -0.00170403 0)
(0 -0.00125018 0)
(0 -0.0060951 0)
(0 -0.00174864 0)
(0 -0.00384094 0)
(0 -0.00162035 0)
(0 -0.00184063 0)
(0 -0.00362631 0)
(0 -0.0024587 0)
(0 -4.52373e-05 0)
(0 -0.00283763 0)
(0 -0.00359762 0)
(0 -0.00165004 0)
(0 -0.00328695 0)
(0 -0.00528369 0)
(0 -0.00439923 0)
(0 -0.00422776 0)
(0 -0.00230976 0)
(0 -0.00065661 0)
(0 -0.00225989 0)
(0 -0.00171594 0)
(0 -0.00348875 0)
(0 -0.00256393 0)
(0 -0.00241588 0)
(0 -0.00432393 0)
(0 -0.00166681 0)
(0 -0.00540414 0)
(0 -0.000640999 0)
(0 -0.00544567 0)
(0 -0.00165368 0)
(0 -0.00524774 0)
(0 -0.00520803 0)
(0 -0.000194404 0)
(0 -0.00122797 0)
(0 -0.00375397 0)
(0 -0.00291755 0)
(0 -0.00421613 0)
(0 -0.0050134 0)
(0 -0.00389164 0)
(0 -0.00531048 0)
(0 -0.00172275 0)
(0 -0.0017537 0)
(0 -0.00169711 0)
(0 -0.00297253 0)
(0 -0.00516223 0)
(0 -0.00315586 0)
(0 -0.000816235 0)
(0 -0.00415512 0)
(0 -0.00581594 0)
(0 -0.00231186 0)
(0 -0.00175251 0)
(0 -0.00339004 0)
(0 -0.00320392 0)
(0 -0.00112623 0)
(0 -0.00189511 0)
(0 -0.00300394 0)
(0 -0.00221407 0)
(0 -0.00422013 0)
(0 -0.00268607 0)
(0 -0.00300251 0)
(0 -0.00251643 0)
(0 -0.00272894 0)
(0 -0.00343497 0)
(0 -0.00331746 0)
(0 -0.00521874 0)
(0 -0.000717005 0)
(0 -0.00559308 0)
(0 -0.000454544 0)
(0 -0.00356897 0)
(0 -0.000678058 0)
(0 -6.05952e-05 0)
(0 -0.00565955 0)
(0 -0.00564704 0)
(0 -0.00230932 0)
(0 -0.00535018 0)
(0 -0.00409164 0)
(0 -0.00417863 0)
(0 -0.00381834 0)
(0 -0.00123258 0)
(0 -0.00560992 0)
(0 -0.00180863 0)
(0 -0.00409104 0)
(0 -0.00444403 0)
(0 -0.00395618 0)
(0 -0.00280575 0)
(0 -0.00197255 0)
(0 -0.00441949 0)
(0 -0.00243912 0)
(0 -0.00212048 0)
(0 -0.00582023 0)
(0 -0.00170227 0)
(0 -0.000562913 0)
(0 -0.00228011 0)
(0 -0.000916349 0)
(0 -0.00264956 0)
(0 -0.00167797 0)
(0 -0.00372788 0)
(0 -0.000622125 0)
(0 -0.00375835 0)
(0 -0.00617593 0)
(0 -0.00414166 0)
(0 -0.000416647 0)
(0 -0.00210656 0)
(0 -0.00166917 0)
(0 -0.00509616 0)
(0 -0.00270206 0)
(0 -0.00126689 0)
(0 -0.00160189 0)
(0 -0.0044705 0)
(0 -5.64603e-05 0)
(0 -0.000464144 0)
(0 -0.000118043 0)
(0 -0.00205729 0)
(0 -0.0039889 0)
(0 -0.00214532 0)
(0 -0.00617388 0)
(0 -0.00253914 0)
(0 -0.00114858 0)
(0 -0.00348935 0)
(0 -0.00121506 0)
(0 -0.0050301 0)
(0 -0.00531262 0)
(0 -0.00568282 0)
(0 -0.00128441 0)
(0 -0.00180694 0)
(0 -0.00566268 0)
(0 -0.00298486 0)
(0 -0.00165018 0)
(0 -0.00400309 0)
(0 -0.000652618 0)
(0 -0.00215163 0)
(0 -0.00209047 0)
(0 -0.00235203 0)
(0 -0.000562315 0)
(0 -0.000191227 0)
(0 -0.00148132 0)
(0 -0.0034271 0)
(0 -4.29126e-05 0)
(0 -0.00173624 0)
(0 -0.000601414 0)
(0 -0.00561746 0)
(0 -0.00190959 0)
(0 -0.00190287 0)
(0 -0.00208431 0)
(0 -0.0038729 0)
(0 -0.00171509 0)
(0 -0.000982102 0)
(0 -0.00489376 0)
(0 -0.000830049 0)
(0 -0.0011004 0)
(0 -0.00121822 0)
(0 -0.00170048 0)
(0 -0.00581019 0)
(0 -0.000388433 0)
(0 -0.00584184 0)
(0 -0.00434432 0)
(0 -0.00499031 0)
(0 -0.00171629 0)
(0 -0.00253203 0)
(0 -0.00398309 0)
(0 -0.00110351 0)
(0 -0.000428593 0)
(0 -0.00584513 0)
(0 -0.00574839 0)
(0 -0.000366706 0)
(0 -0.00225757 0)
(0 -0.000357575 0)
(0 -0.00570189 0)
(0 -0.000714951 0)
(0 -0.00125949 0)
(0 -0.00103911 0)
(0 -0.00496403 0)
(0 -0.00107607 0)
(0 -0.00223543 0)
(0 -0.00153043 0)
(0 -0.00165735 0)
(0 -0.00372726 0)
(0 -0.00440553 0)
(0 -0.0033447 0)
(0 -0.00315674 0)
(0 -0.00172624 0)
(0 -0.00427435 0)
(0 -0.00153035 0)
(0 -0.000315539 0)
(0 -0.00304433 0)
(0 -0.00341946 0)
(0 -0.00450603 0)
(0 -0.000840809 0)
(0 -0.00264101 0)
(0 -0.005129 0)
(0 -0.0057674 0)
(0 -0.00540029 0)
(0 -5.17723e-05 0)
(0 -0.000153317 0)
(0 -0.00411031 0)
(0 -0.000794724 0)
(0 -0.00536036 0)
(0 -0.00268915 0)
(0 -0.00211322 0)
(0 -0.000631449 0)
(0 -0.00187464 0)
(0 -0.00196575 0)
(0 -0.00594965 0)
(0 -0.00389275 0)
(0 -0.00375577 0)
(0 -0.00448265 0)
(0 -0.000491821 0)
(0 -0.0039505 0)
(0 -0.000835556 0)
(0 -0.0009723 0)
(0 -0.0053356 0)
(0 -0.00187008 0)
(0 -0.00125287 0)
(0 -0.000660605 0)
(0 -0.00169291 0)
(0 -0.00396889 0)
(0 -0.00529591 0)
(0 -0.00591906 0)
(0 -0.000197819 0)
(0 -0.00430999 0)
(0 -0.00154166 0)
(0 -0.00199119 0)
(0 -0.0036649 0)
(0 -0.00167776 0)
(0 -0.00392789 0)
(0 -0.00337528 0)
(0 -0.00170805 0)
(0 -0.00250806 0)
(0 -0.000193506 0)
(0 -0.0039402 0)
(0 -0.00104931 0)
(0 -0.00549478 0)
(0 -0.000935388 0)
(0 -0.00173387 0)
(0 -8.61137e-05 0)
(0 -0.00110246 0)
(0 -0.00560703 0)
(0 -0.000939201 0)
(0 -0.00187842 0)
(0 -0.000339538 0)
(0 -0.00201669 0)
(0 -0.0054573 0)
(0 -0.000140872 0)
(0 -0.00552335 0)
(0 -0.00532198 0)
(0 -0.00367823 0)
(0 -0.00464562 0)
(0 -0.00446738 0)
(0 -0.00151218 0)
(0 -0.000367444 0)
(0 -0.00215039 0)
(0 -0.00578557 0)
(0 -2.92417e-05 0)
(0 -0.00573317 0)
(0 -0.005594 0)
(0 -0.00359851 0)
(0 -0.00384339 0)
(0 -0.00012026 0)
(0 -0.00470233 0)
(0 -0.00554475 0)
(0 -0.000192342 0)
(0 -0.0038288 0)
(0 -0.00306754 0)
(0 -0.00367743 0)
(0 -0.00545964 0)
(0 -0.00181936 0)
(0 -0.000639291 0)
(0 -0.000175109 0)
(0 -0.00511648 0)
(0 -0.000686321 0)
(0 -0.000151737 0)
(0 -0.00172574 0)
(0 -0.00331901 0)
(0 -0.00270863 0)
(0 -0.0002994 0)
(0 -0.000288818 0)
(0 -0.00449632 0)
(0 -0.00399294 0)
(0 -0.00444855 0)
(0 -0.0020515 0)
(0 -0.00433263 0)
(0 -0.00262089 0)
(0 -0.00208086 0)
(0 -0.000443182 0)
(0 -0.00504391 0)
(0 -0.00192402 0)
(0 -0.00220088 0)
(0 -0.00266761 0)
(0 -0.00205926 0)
(0 -0.00615529 0)
(0 -0.0017778 0)
(0 -0.00201698 0)
(0 -6.80696e-05 0)
(0 -0.00463936 0)
(0 -0.000379817 0)
(0 -0.001695 0)
(0 -0.00341646 0)
(0 -0.000725493 0)
(0 -0.0052159 0)
(0 -0.000804717 0)
(0 -0.00180625 0)
(0 -0.0052037 0)
(0 -0.00520685 0)
(0 -0.00186392 0)
(0 -0.00366869 0)
(0 -0.00456989 0)
(0 -0.0036738 0)
(0 -0.000101648 0)
(0 -0.0012321 0)
(0 -6.77539e-05 0)
(0 -0.002935 0)
(0 -0.000272162 0)
(0 -0.00220819 0)
(0 -0.00519846 0)
(0 -0.00615068 0)
(0 -0.00211536 0)
(0 -0.000907663 0)
(0 -0.00512081 0)
(0 -0.0051339 0)
(0 -0.00369908 0)
(0 -5.21318e-05 0)
(0 -0.000191131 0)
(0 -0.0037659 0)
(0 -2.76464e-06 0)
(0 -0.00292711 0)
(0 -0.00404636 0)
(0 -0.00344247 0)
(0 -0.00584648 0)
(0 -0.00429307 0)
(0 -0.00286656 0)
(0 -0.0028354 0)
(0 -0.00582173 0)
(0 -0.00343616 0)
(0 -0.00390044 0)
(0 -0.00147953 0)
(0 -0.000707825 0)
(0 -0.000639885 0)
(0 -0.000630901 0)
(0 -0.00450299 0)
(0 -0.000916555 0)
(0 -0.0039811 0)
(0 -0.00145554 0)
(0 -0.0018538 0)
(0 -0.004422 0)
(0 -0.00613203 0)
(0 -0.00381006 0)
(0 -0.0016033 0)
(0 -0.00338779 0)
(0 -0.000164023 0)
(0 -0.00116369 0)
(0 -0.00112625 0)
(0 -0.0010874 0)
(0 -0.000997047 0)
(0 -0.00376441 0)
(0 -0.000934422 0)
(0 -0.00192015 0)
(0 -0.00181433 0)
(0 -0.00209057 0)
(0 -0.00574681 0)
(0 -0.00395471 0)
(0 -0.006024 0)
(0 -0.00243624 0)
(0 -0.00544594 0)
(0 -0.00187464 0)
(0 -0.00311294 0)
(0 -0.00491292 0)
(0 -0.00273808 0)
(0 -0.00371754 0)
(0 -0.000755189 0)
(0 -0.00484958 0)
(0 -0.000449631 0)
(0 -0.00612708 0)
(0 -0.0017679 0)
(0 -0.000538217 0)
(0 -0.00166174 0)
(0 -0.00500802 0)
(0 -0.0036201 0)
(0 -0.00600641 0)
(0 -0.000973148 0)
(0 -0.00194323 0)
(0 -0.0049946 0)
(0 -0.000701763 0)
(0 -0.00249194 0)
(0 -0.0035005 0)
(0 -0.00208373 0)
(0 -0.00223262 0)
(0 -0.00270184 0)
(0 -0.0034994 0)
(0 -0.000141127 0)
(0 -0.00155858 0)
(0 -0.000881784 0)
(0 -0.00540486 0)
(0 -0.00480177 0)
(0 -0.0016882 0)
(0 -0.00193513 0)
(0 -0.000154243 0)
(0 -0.00307516 0)
(0 -0.00208812 0)
(0 -0.00332097 0)
(0 -0.00053274 0)
(0 -0.00325298 0)
(0 -0.0048661 0)
(0 -0.00489692 0)
(0 -0.0015048 0)
(0 -0.00123879 0)
(0 -0.00352549 0)
(0 -0.0051783 0)
(0 -0.00142438 0)
(0 -0.000609928 0)
(0 -0.00014639 0)
(0 -0.000365852 0)
(0 -0.00170004 0)
(0 -0.00290324 0)
(0 -0.00298299 0)
(0 -0.00442557 0)
(0 -7.00005e-05 0)
(0 -0.0019838 0)
(0 -0.00162466 0)
(0 -0.00541541 0)
(0 -0.00507465 0)
(0 -0.00217409 0)
(0 -0.00153506 0)
(0 -0.00126372 0)
(0 -0.00264201 0)
(0 -0.00571176 0)
(0 -0.000502973 0)
(0 -0.00130436 0)
(0 -0.00018951 0)
(0 -0.0037776 0)
(0 -0.00174963 0)
(0 -0.00482704 0)
(0 -0.00192302 0)
(0 -0.00578933 0)
(0 -0.000490595 0)
(0 -0.00180585 0)
(0 -0.000104616 0)
(0 -0.00319656 0)
(0 -0.00593906 0)
(0 -0.000175882 0)
(0 -0.0010274 0)
(0 -0.00386092 0)
(0 -0.00538041 0)
(0 -0.00185159 0)
(0 -0.00473633 0)
(0 -0.00515762 0)
(0 -0.00189036 0)
(0 -0.00180889 0)
(0 -0.00480495 0)
(0 -0.00553573 0)
(0 -0.00263001 0)
(0 -0.00247244 0)
(0 -0.000374742 0)
(0 -0.00545041 0)
(0 -0.0054155 0)
(0 -0.00254722 0)
(0 -0.00602407 0)
(0 -0.00054459 0)
(0 -0.000113672 0)
(0 -0.00341955 0)
(0 -0.00312059 0)
(0 -0.00268917 0)
(0 -0.00496733 0)
(0 -0.00180876 0)
(0 -0.00120851 0)
(0 -0.00292678 0)
(0 -0.00556751 0)
(0 -0.00218066 0)
(0 -0.00577367 0)
(0 -0.00161035 0)
(0 -0.00227367 0)
(0 -0.00165115 0)
(0 -0.0028116 0)
(0 -0.00602355 0)
(0 -0.00309094 0)
(0 -0.00229638 0)
(0 -0.00607237 0)
(0 -0.00493928 0)
(0 -0.00405497 0)
(0 -0.00304767 0)
(0 -0.00424715 0)
(0 -0.000140784 0)
(0 -0.00256756 0)
(0 -0.00285173 0)
(0 -0.0011611 0)
(0 -0.00513764 0)
(0 -0.00320936 0)
(0 -0.00261084 0)
(0 -0.00436016 0)
(0 -0.00173918 0)
(0 -0.0040381 0)
(0 -0.000980241 0)
(0 -0.00331659 0)
(0 -0.00277483 0)
(0 -0.00104721 0)
(0 -0.00217756 0)
(0 -0.00137133 0)
(0 -0.000591919 0)
(0 -0.00235337 0)
(0 -0.00605157 0)
(0 -5.65522e-05 0)
(0 -0.00601821 0)
(0 -0.00248443 0)
(0 -0.00147728 0)
(0 -0.00424781 0)
(0 -0.00219306 0)
(0 -0.00564024 0)
(0 -0.00505209 0)
(0 -0.000420445 0)
(0 -0.00115194 0)
(0 -0.00053922 0)
(0 -0.00116277 0)
(0 -0.00307468 0)
(0 -0.00293093 0)
(0 -0.00515749 0)
(0 -0.00293023 0)
(0 -2.78206e-05 0)
(0 -0.00327506 0)
(0 -0.00195922 0)
(0 -0.00313343 0)
(0 -0.000131491 0)
(0 -0.0012098 0)
(0 -0.00329138 0)
(0 -0.00515665 0)
(0 -0.00271205 0)
(0 -0.00491176 0)
(0 -0.00135371 0)
(0 -0.00143696 0)
(0 -0.00143027 0)
(0 -0.00154188 0)
(0 -0.00403191 0)
(0 -0.0038908 0)
(0 -0.002798 0)
(0 -0.000520094 0)
(0 -0.00106128 0)
(0 -0.00199424 0)
(0 -0.00385864 0)
(0 -0.0022977 0)
(0 -0.00253671 0)
(0 -0.000678229 0)
(0 -0.00404469 0)
(0 -0.00574229 0)
(0 -0.00145992 0)
(0 -0.00239804 0)
(0 -0.000268761 0)
(0 -0.00491823 0)
(0 -0.000730829 0)
(0 -0.00420802 0)
(0 -0.000873229 0)
(0 -0.00194947 0)
(0 -0.00161461 0)
(0 -0.000452311 0)
(0 -0.00225657 0)
(0 -0.00116727 0)
(0 -0.00064817 0)
(0 -0.00397625 0)
(0 -0.00410759 0)
(0 -0.00419401 0)
(0 -3.52427e-06 0)
(0 -0.00399983 0)
(0 -0.000492222 0)
(0 -0.00503314 0)
(0 -0.00170557 0)
(0 -0.00287171 0)
(0 -0.00055679 0)
(0 -0.00288785 0)
(0 -0.00264848 0)
(0 -0.00302326 0)
(0 -0.00247553 0)
(0 -0.00147893 0)
(0 -0.000879952 0)
(0 -0.00519645 0)
(0 -0.00590986 0)
(0 -0.00400464 0)
(0 -0.00140848 0)
(0 -0.000722275 0)
(0 -0.00454108 0)
(0 -0.000195363 0)
(0 -0.00514954 0)
(0 -0.00587562 0)
(0 -0.00587968 0)
(0 -0.00188906 0)
(0 -0.00531312 0)
(0 -0.00130401 0)
(0 -0.00269796 0)
(0 -0.00548825 0)
(0 -0.00503326 0)
(0 -0.0044469 0)
(0 -0.00120452 0)
(0 -0.00212933 0)
(0 -0.00511905 0)
(0 -0.00317807 0)
(0 -0.00260567 0)
(0 -0.00156796 0)
(0 -0.00174303 0)
(0 -0.000468871 0)
(0 -0.00551781 0)
(0 -0.00178696 0)
(0 -9.23266e-05 0)
(0 -0.00140369 0)
(0 -0.00285592 0)
(0 -0.00446063 0)
(0 -0.000123267 0)
(0 -0.00165771 0)
(0 -0.00471096 0)
(0 -0.000618298 0)
(0 -0.00506243 0)
(0 -0.00418376 0)
(0 -0.00373897 0)
(0 -0.00379769 0)
(0 -0.00234142 0)
(0 -3.24901e-05 0)
(0 -0.000325624 0)
(0 -0.00350085 0)
(0 -0.00229704 0)
(0 -0.00580756 0)
(0 -0.00433968 0)
(0 -0.005212 0)
(0 -0.00174923 0)
(0 -0.00379815 0)
(0 -0.00339393 0)
(0 -0.00516486 0)
(0 -0.00354276 0)
(0 -0.00432495 0)
(0 -0.000307963 0)
(0 -0.00325961 0)
(0 -0.00530667 0)
(0 -0.00198612 0)
(0 -0.000211002 0)
(0 -0.00379884 0)
(0 -0.000100659 0)
(0 -0.000881514 0)
(0 -0.00137967 0)
(0 -0.00528345 0)
(0 -0.00383455 0)
(0 -0.00017218 0)
(0 -0.00366548 0)
(0 -0.00525867 0)
(0 -0.00317344 0)
(0 -0.000470898 0)
(0 -0.00426766 0)
(0 -0.00321775 0)
(0 -0.00305327 0)
(0 -0.00137601 0)
(0 -0.00446148 0)
(0 -7.40299e-05 0)
(0 -0.00459201 0)
(0 -0.00475354 0)
(0 -0.00127119 0)
(0 -0.000985842 0)
(0 -0.000917572 0)
(0 -0.00221975 0)
(0 -0.000472114 0)
(0 -0.00018764 0)
(0 -0.00172502 0)
(0 -0.0060508 0)
(0 -0.00504545 0)
(0 -0.00181781 0)
(0 -0.00370707 0)
(0 -0.00346095 0)
(0 -0.00150839 0)
(0 -0.00131855 0)
(0 -0.002592 0)
(0 -7.83229e-05 0)
(0 -0.00171125 0)
(0 -0.00200584 0)
(0 -0.00447118 0)
(0 -0.00178499 0)
(0 -0.00588617 0)
(0 -0.00108798 0)
(0 -0.00496426 0)
(0 -0.000280894 0)
(0 -0.000165028 0)
(0 -0.00167031 0)
(0 -0.00231758 0)
(0 -0.00412615 0)
(0 -0.00103908 0)
(0 -0.000363045 0)
(0 -0.00488636 0)
(0 -0.00443553 0)
(0 -0.00397089 0)
(0 -0.00168565 0)
(0 -0.00403619 0)
(0 -0.00338285 0)
(0 -0.00318082 0)
(0 -0.00237021 0)
(0 -0.00379885 0)
(0 -0.00341791 0)
(0 -0.00328203 0)
(0 -6.2854e-05 0)
(0 -0.00265449 0)
(0 -0.00125906 0)
(0 -9.69363e-05 0)
(0 -0.00594684 0)
(0 -0.0043485 0)
(0 -0.00544445 0)
(0 -0.00461837 0)
(0 -0.00174807 0)
(0 -0.00246729 0)
(0 -0.00430607 0)
(0 -0.00375319 0)
(0 -0.000971106 0)
(0 -0.00251972 0)
(0 -0.00258905 0)
(0 -6.15625e-05 0)
(0 -0.00111285 0)
(0 -0.000210442 0)
(0 -0.00485135 0)
(0 -9.75091e-05 0)
(0 -0.00606584 0)
(0 -0.00178289 0)
(0 -0.00292578 0)
(0 -0.00587906 0)
(0 -0.00360256 0)
(0 -0.0012885 0)
(0 -0.00309272 0)
(0 -0.000100273 0)
(0 -0.00301132 0)
(0 -0.00160739 0)
(0 -0.00393097 0)
(0 -0.00478381 0)
(0 -0.00345977 0)
(0 -0.00393515 0)
(0 -0.00374514 0)
(0 -0.00202758 0)
(0 -0.00355503 0)
(0 -0.00133542 0)
(0 -0.0054562 0)
(0 -0.00469536 0)
(0 -0.00306254 0)
(0 -0.000575946 0)
(0 -0.00203822 0)
(0 -0.00240921 0)
(0 -0.000947576 0)
(0 -0.00339336 0)
(0 -0.00403137 0)
(0 -0.0018012 0)
(0 -0.00354816 0)
(0 -0.00071319 0)
(0 -0.0020216 0)
(0 -0.00263692 0)
(0 -0.000473462 0)
(0 -0.00193829 0)
(0 -7.66613e-05 0)
(0 -0.000799798 0)
(0 -0.00369807 0)
(0 -0.00215302 0)
(0 -0.000558946 0)
(0 -0.000240773 0)
(0 -0.00226377 0)
(0 -0.00404271 0)
(0 -0.00174826 0)
(0 -3.97671e-05 0)
(0 -0.00264484 0)
(0 -0.00349865 0)
(0 -0.00590621 0)
(0 -0.00314186 0)
(0 -0.00421937 0)
(0 -0.000490609 0)
(0 -0.00604682 0)
(0 -0.000236725 0)
(0 -0.00201352 0)
(0 -0.000905307 0)
(0 -0.00282975 0)
(0 -0.00255399 0)
(0 -0.00143103 0)
(0 -0.00490487 0)
(0 -0.00603976 0)
(0 -0.00220701 0)
(0 -0.00591264 0)
(0 -0.00156047 0)
(0 -9.98173e-05 0)
(0 -0.00111121 0)
(0 -0.00580377 0)
(0 -0.00430833 0)
(0 -0.00194226 0)
(0 -0.00130689 0)
(0 -0.00552239 0)
(0 -0.00297556 0)
(0 -0.00483059 0)
(0 -0.0041926 0)
(0 -0.0053483 0)
(0 -0.005997 0)
(0 -0.0053931 0)
(0 -0.00404941 0)
(0 -0.00370439 0)
(0 -0.00116745 0)
(0 -0.00402517 0)
(0 -0.00524834 0)
(0 -0.0024031 0)
(0 -0.00170189 0)
(0 -0.000439679 0)
(0 -0.00544904 0)
(0 -6.98657e-05 0)
(0 -0.00260373 0)
(0 -0.00236385 0)
(0 -0.00439082 0)
(0 -0.00432739 0)
(0 -8.0184e-05 0)
(0 -0.00334177 0)
(0 -0.00229584 0)
(0 -0.00185403 0)
(0 -0.00498244 0)
(0 -0.00248168 0)
(0 -7.52701e-05 0)
(0 -0.00233635 0)
(0 -0.00389175 0)
(0 -0.00441231 0)
(0 -0.00276051 0)
(0 -0.00134581 0)
(0 -0.00243151 0)
(0 -0.00282268 0)
(0 -0.00550616 0)
(0 -0.00511123 0)
(0 -0.00440635 0)
(0 -0.00515071 0)
(0 -0.00228999 0)
(0 -0.0013534 0)
(0 -0.000262219 0)
(0 -0.000955961 0)
(0 -0.00291638 0)
(0 -0.000694942 0)
(0 -0.00439355 0)
(0 -0.000336536 0)
(0 -0.00564861 0)
(0 -0.00427338 0)
(0 -0.00349759 0)
(0 -0.00544961 0)
(0 -0.000345162 0)
(0 -0.000623176 0)
(0 -0.00507519 0)
(0 -0.000404677 0)
(0 -0.000492013 0)
(0 -0.00550111 0)
(0 -0.00124106 0)
(0 -0.00492652 0)
(0 -0.00205344 0)
(0 -0.0039261 0)
(0 -0.00172108 0)
(0 -0.00428141 0)
(0 -0.00432325 0)
(0 -0.00302456 0)
(0 -0.000980379 0)
(0 -0.000937723 0)
(0 -0.00240924 0)
(0 -0.00350399 0)
(0 -0.00134158 0)
(0 -0.00273707 0)
(0 -0.00286738 0)
(0 -8.24698e-05 0)
(0 -0.00302565 0)
(0 -0.000553811 0)
(0 -0.00286666 0)
(0 -0.00150749 0)
(0 -0.005017 0)
(0 -0.0014583 0)
(0 -0.000564539 0)
(0 -0.00135557 0)
(0 -0.00567941 0)
(0 -0.000290122 0)
(0 -0.000567521 0)
(0 -0.000430819 0)
(0 -0.000105803 0)
(0 -0.0021693 0)
(0 -0.0061205 0)
(0 -0.00581808 0)
(0 -0.00190599 0)
(0 -0.00149329 0)
(0 -0.00563476 0)
(0 -0.00430634 0)
(0 -0.000356956 0)
(0 -0.00148831 0)
(0 -0.00357816 0)
(0 -0.00499131 0)
(0 -0.0013629 0)
(0 -0.000579423 0)
(0 -0.00184332 0)
(0 -0.00220624 0)
(0 -0.00438886 0)
(0 -0.00537463 0)
(0 -0.00421438 0)
(0 -0.00392961 0)
(0 -0.00569343 0)
(0 -0.00521946 0)
(0 -0.00201 0)
(0 -0.00353236 0)
(0 -0.00141147 0)
(0 -0.00133188 0)
(0 -0.00474809 0)
(0 -0.00122113 0)
(0 -0.0027551 0)
(0 -0.00399669 0)
(0 -0.0053405 0)
(0 -0.00567884 0)
(0 -0.00480901 0)
(0 -0.00153387 0)
(0 -0.00129676 0)
(0 -0.00410588 0)
(0 -0.00499887 0)
(0 -0.00482773 0)
(0 -0.00411955 0)
(0 -0.00016945 0)
(0 -0.00131421 0)
(0 -0.00391153 0)
(0 -0.00248975 0)
(0 -0.000784259 0)
(0 -0.00358405 0)
(0 -0.00294353 0)
(0 -0.00370277 0)
(0 -0.00168146 0)
(0 -0.00380312 0)
(0 -0.000435758 0)
(0 -0.00401568 0)
(0 -0.00528164 0)
(0 -0.00292168 0)
(0 -0.000361275 0)
(0 -0.00253038 0)
(0 -0.00507288 0)
(0 -0.00317162 0)
(0 -0.00151718 0)
(0 -0.00150732 0)
(0 -0.00454872 0)
(0 -0.0032892 0)
(0 -0.00473596 0)
(0 -0.00399685 0)
(0 -5.65871e-05 0)
(0 -0.00355284 0)
(0 -0.00389369 0)
(0 -0.00439765 0)
(0 -0.00590532 0)
(0 -0.0025354 0)
(0 -0.0042132 0)
(0 -0.00150097 0)
(0 -0.00177356 0)
(0 -0.00548932 0)
(0 -0.00535514 0)
(0 -0.00255224 0)
(0 -0.0028792 0)
(0 -0.00489917 0)
(0 -0.00568068 0)
(0 -0.00177394 0)
(0 -0.00074145 0)
(0 -0.00170865 0)
(0 -0.0051222 0)
(0 -0.00328059 0)
(0 -0.00289539 0)
(0 -0.00517979 0)
(0 -0.00116235 0)
(0 -0.00186496 0)
(0 -0.00202248 0)
(0 -0.00531195 0)
(0 -0.00228153 0)
(0 -0.00589732 0)
(0 -0.00162711 0)
(0 -0.00337799 0)
(0 -0.00163847 0)
(0 -0.00178496 0)
(0 -0.00332873 0)
(0 -0.00264794 0)
(0 -0.00166604 0)
(0 -7.89473e-05 0)
(0 -0.00299846 0)
(0 -0.00490351 0)
(0 -0.00467241 0)
(0 -0.00430421 0)
(0 -0.00188378 0)
(0 -0.0027529 0)
(0 -0.00155764 0)
(0 -0.00422012 0)
(0 -0.00480355 0)
(0 -0.00140897 0)
(0 -0.00266581 0)
(0 -0.00311978 0)
(0 -0.00397392 0)
(0 -0.00440461 0)
(0 -0.0042339 0)
(0 -0.00529471 0)
(0 -0.000376569 0)
(0 -0.00489228 0)
(0 -0.00377544 0)
(0 -0.00496005 0)
(0 -0.00578861 0)
(0 -0.00409488 0)
(0 -0.00278725 0)
(0 -0.00113718 0)
(0 -0.0017371 0)
(0 -0.00403412 0)
(0 -0.000703859 0)
(0 -0.00243799 0)
(0 -0.000194661 0)
(0 -0.00540006 0)
(0 -0.00390158 0)
(0 -0.00229201 0)
(0 -0.00480291 0)
(0 -0.00179218 0)
(0 -0.00448739 0)
(0 -0.00379285 0)
(0 -0.00182624 0)
(0 -0.00484316 0)
(0 -0.00121297 0)
(0 -0.00143651 0)
(0 -0.00193766 0)
(0 -0.000613724 0)
(0 -0.00332961 0)
(0 -0.00130671 0)
(0 -0.00225698 0)
(0 -0.00300677 0)
(0 -0.00584566 0)
(0 -0.00280422 0)
(0 -0.002867 0)
(0 -0.000554408 0)
(0 -0.00264675 0)
(0 -0.00425361 0)
(0 -0.00173926 0)
(0 -0.00585277 0)
(0 -0.000864138 0)
(0 -0.000921882 0)
(0 -0.00214292 0)
(0 -0.00127389 0)
(0 -0.00301408 0)
(0 -0.00283271 0)
(0 -0.00582676 0)
(0 -0.00471423 0)
(0 -0.00367051 0)
(0 -0.00610832 0)
(0 -0.00135041 0)
(0 -0.00285101 0)
(0 -0.00360148 0)
(0 -0.00277413 0)
(0 -7.80609e-05 0)
(0 -0.00240236 0)
(0 -0.000446634 0)
(0 -0.00188207 0)
(0 -0.004738 0)
(0 -0.00397643 0)
(0 -0.00182107 0)
(0 -0.00479169 0)
(0 -0.00300183 0)
(0 -0.000323765 0)
(0 -0.00389817 0)
(0 -0.00192297 0)
(0 -0.00133007 0)
(0 -0.0038345 0)
(0 -0.00470188 0)
(0 -0.00242469 0)
(0 -0.000983236 0)
(0 -0.00389046 0)
(0 -0.000331692 0)
(0 -0.0026535 0)
(0 -0.00580061 0)
(0 -0.00175294 0)
(0 -0.00297377 0)
(0 -8.8846e-05 0)
(0 -0.00294019 0)
(0 -0.00472052 0)
(0 -0.0018751 0)
(0 -0.00553402 0)
(0 -0.000605026 0)
(0 -0.00255708 0)
(0 -0.00222796 0)
(0 -0.00358499 0)
(0 -0.00171182 0)
(0 -0.00288975 0)
(0 -0.00177162 0)
(0 -0.00146135 0)
(0 -0.000145985 0)
(0 -0.000180922 0)
(0 -0.0028955 0)
(0 -0.000866713 0)
(0 -0.00288202 0)
(0 -0.00230428 0)
(0 -0.00235323 0)
(0 -0.000898061 0)
(0 -0.00430087 0)
(0 -0.00367479 0)
(0 -0.0057627 0)
(0 -0.00145915 0)
(0 -0.00538785 0)
(0 -0.000286266 0)
(0 -0.00398168 0)
(0 -0.00493924 0)
(0 -0.00524408 0)
(0 -0.00080667 0)
(0 -0.00591349 0)
(0 -0.00229079 0)
(0 -0.00236063 0)
(0 -0.00231873 0)
(0 -0.00356779 0)
(0 -0.00153002 0)
(0 -0.00500784 0)
(0 -0.00483695 0)
(0 -0.00161251 0)
(0 -0.00405564 0)
(0 -0.00493289 0)
(0 -0.00291144 0)
(0 -0.00533152 0)
(0 -0.0012588 0)
(0 -0.00275879 0)
(0 -0.00548595 0)
(0 -0.00119377 0)
(0 -0.00219169 0)
(0 -0.00285005 0)
(0 -0.00289652 0)
(0 -3.87244e-05 0)
(0 -0.00167232 0)
(0 -0.00200863 0)
(0 -0.000973743 0)
(0 -0.00583423 0)
(0 -0.00181245 0)
(0 -0.00304395 0)
(0 -0.00212864 0)
(0 -0.00343997 0)
(0 -0.00192974 0)
(0 -0.0042939 0)
(0 -0.00508916 0)
(0 -0.00286704 0)
(0 -0.00491733 0)
(0 -0.00166342 0)
(0 -0.00301407 0)
(0 -0.00291764 0)
(0 -0.00552968 0)
(0 -0.00281304 0)
(0 -0.00294697 0)
(0 -0.00202061 0)
(0 -0.00326822 0)
(0 -0.00389165 0)
(0 -0.00239715 0)
(0 -0.00506971 0)
(0 -0.00295199 0)
(0 -0.00324396 0)
(0 -0.00444467 0)
(0 -0.00549553 0)
(0 -0.00458775 0)
(0 -0.00528597 0)
(0 -0.000249828 0)
(0 -0.00141443 0)
(0 -0.00524229 0)
(0 -0.0034792 0)
(0 -0.00572831 0)
(0 -0.00193209 0)
(0 -0.00168638 0)
(0 -0.00186234 0)
(0 -0.00231907 0)
(0 -0.00480687 0)
(0 -0.000385275 0)
(0 -0.0018016 0)
(0 -0.00465194 0)
(0 -0.00317299 0)
(0 -0.00303613 0)
(0 -0.000746807 0)
(0 -0.00261484 0)
(0 -0.000326161 0)
(0 -0.0029529 0)
(0 -0.00429173 0)
(0 -0.00072359 0)
(0 -0.00505003 0)
(0 -0.00332694 0)
(0 -0.0018208 0)
(0 -0.00281982 0)
(0 -0.0044763 0)
(0 -0.00523065 0)
(0 -0.000468265 0)
(0 -0.00226058 0)
(0 -0.00153746 0)
(0 -0.00210833 0)
(0 -0.00368407 0)
(0 -0.00132963 0)
(0 -0.00135034 0)
(0 -0.00277264 0)
(0 -0.00360803 0)
(0 -0.00185589 0)
(0 -0.00538275 0)
(0 -0.000261089 0)
(0 -0.00412902 0)
(0 -0.00494244 0)
(0 -0.00475425 0)
(0 -0.000210973 0)
(0 -0.000671846 0)
(0 -0.00521173 0)
(0 -0.00280737 0)
(0 -0.00219591 0)
(0 -0.00215576 0)
(0 -0.00159035 0)
(0 -0.00244565 0)
(0 -0.000740719 0)
(0 -0.00536165 0)
(0 -0.000211132 0)
(0 -0.00448937 0)
(0 -0.00185192 0)
(0 -0.00339406 0)
(0 -0.0026663 0)
(0 -0.00327257 0)
(0 -0.00167467 0)
(0 -0.00211229 0)
(0 -0.00195136 0)
(0 -0.00399742 0)
(0 -0.00184697 0)
(0 -0.000186547 0)
(0 -0.000767072 0)
(0 -0.00138061 0)
(0 -0.00180996 0)
(0 -0.00385689 0)
(0 -0.00178197 0)
(0 -0.00277119 0)
(0 -0.0018341 0)
(0 -0.00184628 0)
(0 -0.00190728 0)
(0 -0.000292888 0)
(0 -0.00506687 0)
(0 -0.00127119 0)
(0 -0.00495461 0)
(0 -0.0026615 0)
(0 -0.00165699 0)
(0 -0.00328548 0)
(0 -0.00173792 0)
(0 -0.00198444 0)
(0 -0.00188299 0)
(0 -0.00361831 0)
(0 -0.0037103 0)
(0 -0.00260835 0)
(0 -0.00581036 0)
(0 -0.00114912 0)
(0 -0.00456251 0)
(0 -0.000493352 0)
(0 -0.00357071 0)
(0 -0.00123706 0)
(0 -0.00447804 0)
(0 -0.00268464 0)
(0 -5.36629e-05 0)
(0 -0.00335124 0)
(0 -0.0033232 0)
(0 -0.00288622 0)
(0 -0.00495299 0)
(0 -0.00125255 0)
(0 -0.0021183 0)
(0 -0.00542832 0)
(0 -0.000349097 0)
(0 -0.000793082 0)
(0 -0.00166035 0)
(0 -0.0054396 0)
(0 -0.00429724 0)
(0 -0.002555 0)
(0 -0.00155424 0)
(0 -0.00343824 0)
(0 -0.00229794 0)
(0 -0.00172413 0)
(0 -0.000651369 0)
(0 -0.00328737 0)
(0 -0.00115314 0)
(0 -0.00504605 0)
(0 -0.00547751 0)
(0 -0.00142281 0)
(0 -0.00174178 0)
(0 -0.00162584 0)
(0 -0.0016662 0)
(0 -0.00226541 0)
(0 -0.003353 0)
(0 -0.001279 0)
(0 -0.00143925 0)
(0 -0.00320707 0)
(0 -0.00240074 0)
(0 -0.0015275 0)
(0 -0.00281593 0)
(0 -0.00158874 0)
(0 -0.00143689 0)
(0 -0.00473809 0)
(0 -0.00377485 0)
(0 -0.00472969 0)
(0 -0.00136768 0)
(0 -0.00339597 0)
(0 -0.000956504 0)
(0 -0.00182713 0)
(0 -0.00292138 0)
(0 -0.00263458 0)
(0 -0.00160981 0)
(0 -0.00312084 0)
(0 -0.0051326 0)
(0 -0.0046935 0)
(0 -0.00170742 0)
(0 -0.0043212 0)
(0 -0.000862445 0)
(0 -0.00100539 0)
(0 -0.00205709 0)
(0 -0.00408139 0)
(0 -0.00129328 0)
(0 -0.00344088 0)
(0 -0.00212216 0)
(0 -0.000177737 0)
(0 -0.00257297 0)
(0 -0.00326353 0)
(0 -0.0023463 0)
(0 -0.00566209 0)
(0 -0.0042171 0)
(0 -0.00579899 0)
(0 -0.00105239 0)
(0 -0.00104966 0)
(0 -0.00261829 0)
(0 -0.00166303 0)
(0 -0.00192238 0)
(0 -0.00215254 0)
(0 -0.00249782 0)
(0 -0.000363858 0)
(0 -0.00121036 0)
(0 -0.0024307 0)
(0 -0.00156393 0)
(0 -0.00321982 0)
(0 -0.00272738 0)
(0 -0.00327142 0)
(0 -0.00193044 0)
(0 -0.00381705 0)
(0 -0.00152052 0)
(0 -0.00103424 0)
(0 -0.00018344 0)
(0 -0.0017524 0)
(0 -0.00247988 0)
(0 -0.00160429 0)
(0 -0.00449754 0)
(0 -0.00364417 0)
(0 -0.00192771 0)
(0 -0.0015584 0)
(0 -0.0039541 0)
(0 -0.000124049 0)
(0 -0.0018891 0)
(0 -0.00470509 0)
(0 -0.0025649 0)
(0 -0.00566651 0)
(0 -0.00282437 0)
(0 -0.00139641 0)
(0 -0.000314648 0)
(0 -0.0053737 0)
(0 -0.0049716 0)
(0 -0.00299685 0)
(0 -0.00440518 0)
(0 -0.00462987 0)
(0 -0.00309918 0)
(0 -0.00386826 0)
(0 -0.00247907 0)
(0 -0.00385851 0)
(0 -0.00480697 0)
(0 -0.00230009 0)
(0 -0.00132623 0)
(0 -0.00140277 0)
(0 -0.00158949 0)
(0 -0.00225407 0)
(0 -0.00170892 0)
(0 -0.00331275 0)
(0 -0.00139804 0)
(0 -0.00270474 0)
(0 -0.00317546 0)
(0 -0.00183219 0)
(0 -0.00157794 0)
(0 -0.00271019 0)
(0 -0.00171332 0)
(0 -0.0026679 0)
(0 -0.00505983 0)
(0 -0.000933503 0)
(0 -0.00275271 0)
(0 -0.00166019 0)
(0 -0.00210085 0)
(0 -0.00150966 0)
(0 -4.72528e-05 0)
(0 -0.00486354 0)
(0 -0.00137345 0)
(0 -0.000986992 0)
(0 -0.00136484 0)
(0 -0.00114194 0)
(0 -0.00330927 0)
(0 -0.000736994 0)
(0 -0.00378276 0)
(0 -0.00155813 0)
(0 -0.00297643 0)
(0 -0.00046192 0)
(0 -0.00543735 0)
(0 -0.00146782 0)
(0 -0.00118234 0)
(0 -0.00182646 0)
(0 -0.00174065 0)
(0 -0.00132326 0)
(0 -0.00188759 0)
(0 -0.00116905 0)
(0 -0.00169262 0)
(0 -0.00542958 0)
(0 -0.000931687 0)
(0 -0.00334391 0)
(0 -0.000191212 0)
(0 -0.00221603 0)
(0 -0.00476263 0)
(0 -0.00193571 0)
(0 -0.00148511 0)
(0 -0.00253843 0)
(0 -0.00476741 0)
(0 -0.00272898 0)
(0 -0.00105581 0)
(0 -0.00496675 0)
(0 -0.0017617 0)
(0 -0.00021168 0)
(0 -0.0055313 0)
(0 -0.000634123 0)
(0 -0.0026263 0)
(0 -0.000462477 0)
(0 -0.0008171 0)
(0 -0.00167336 0)
(0 -0.00135066 0)
(0 -0.000353254 0)
(0 -0.00190829 0)
(0 -0.00520835 0)
(0 -0.0043627 0)
(0 -0.00208237 0)
(0 -0.00136549 0)
(0 -0.00136983 0)
(0 -0.00534885 0)
(0 -0.00106126 0)
(0 -0.00193294 0)
(0 -0.00466503 0)
(0 -0.00177089 0)
(0 -0.00189859 0)
(0 -0.00148281 0)
(0 -0.00080152 0)
(0 -0.00471694 0)
(0 -0.00309614 0)
(0 -0.00141455 0)
(0 -0.00559917 0)
(0 -0.00474316 0)
(0 -0.0020527 0)
(0 -0.00536359 0)
(0 -0.00477757 0)
(0 -0.0047204 0)
(0 -9.38271e-05 0)
(0 -5.60504e-05 0)
(0 -0.00246317 0)
(0 -0.00305845 0)
(0 -0.00406629 0)
(0 -0.00231401 0)
(0 -0.0016377 0)
(0 -0.00171067 0)
(0 -0.0020145 0)
(0 -0.00182353 0)
(0 -0.00151549 0)
(0 -0.00487767 0)
(0 -0.00126919 0)
(0 -0.00195281 0)
(0 -0.00496129 0)
(0 -0.0053067 0)
(0 -0.00396669 0)
(0 -0.00461626 0)
(0 -0.00156261 0)
(0 -0.00486179 0)
(0 -0.00315818 0)
(0 -0.0019459 0)
(0 -0.00293197 0)
(0 -0.00205095 0)
(0 -0.00456004 0)
(0 -0.00303436 0)
(0 -0.00198886 0)
(0 -0.00112312 0)
(0 -0.00366686 0)
(0 -0.000389263 0)
(0 -0.00313703 0)
(0 -0.00526582 0)
(0 -0.00141146 0)
(0 -0.00470491 0)
(0 -0.00193046 0)
(0 -8.81623e-05 0)
(0 -0.00175432 0)
(0 -0.00578746 0)
(0 -0.00190403 0)
(0 -0.000722782 0)
(0 -0.00218498 0)
(0 -0.00184328 0)
(0 -0.00403099 0)
(0 -7.67899e-05 0)
(0 -0.00184522 0)
(0 -0.00204556 0)
(0 -0.00349792 0)
(0 -0.00499553 0)
(0 -0.00531935 0)
(0 -9.07305e-05 0)
(0 -0.00251412 0)
(0 -0.000160652 0)
(0 -0.00264626 0)
(0 -0.00222756 0)
(0 -0.00161337 0)
(0 -0.00344588 0)
(0 -6.296e-05 0)
(0 -0.00267979 0)
(0 -0.00178028 0)
(0 -0.00235894 0)
(0 -0.00194176 0)
(0 -0.0022176 0)
(0 -0.00190978 0)
(0 -0.00455879 0)
(0 -0.00278288 0)
(0 -0.00201502 0)
(0 -0.00197296 0)
(0 -0.00372999 0)
(0 -0.000369793 0)
(0 -0.00209872 0)
(0 -0.00245389 0)
(0 -0.00238994 0)
(0 -0.00320468 0)
(0 -0.00183636 0)
(0 -0.00466538 0)
(0 -0.00110426 0)
(0 -0.00237421 0)
(0 -0.00166342 0)
(0 -0.000144083 0)
(0 -0.00247681 0)
(0 -0.000371589 0)
(0 -0.00183229 0)
(0 -0.00219648 0)
(0 -0.00203358 0)
(0 -0.00163873 0)
(0 -0.00228346 0)
(0 -0.00161063 0)
(0 -0.00411843 0)
(0 -0.00224864 0)
(0 -0.00444629 0)
(0 -0.00370345 0)
(0 -0.00460067 0)
(0 -0.00224857 0)
(0 -0.00230612 0)
(0 -0.00155769 0)
(0 -0.00252576 0)
(0 -0.00220503 0)
(0 -0.000363984 0)
(0 -0.00373029 0)
(0 -0.00180079 0)
(0 -0.00297852 0)
(0 -0.00232061 0)
(0 -0.000462986 0)
(0 -0.00417027 0)
(0 -0.000453576 0)
(0 -0.00208251 0)
(0 -0.00169805 0)
(0 -0.00243029 0)
(0 -0.00166512 0)
(0 -0.00160646 0)
(0 -0.00260718 0)
(0 -0.00161213 0)
(0 -0.00235671 0)
(0 -0.00381889 0)
(0 -0.00362805 0)
(0 -0.00249538 0)
(0 -0.00147778 0)
(0 -0.00187176 0)
(0 -0.000187928 0)
(0 -0.00234491 0)
(0 -0.00226969 0)
(0 -0.00479065 0)
(0 -0.00390473 0)
(0 -0.00316327 0)
(0 -0.000808797 0)
(0 -0.00209627 0)
(0 -0.00373621 0)
(0 -7.7101e-05 0)
(0 -0.00143722 0)
(0 -0.00138148 0)
(0 -0.00395064 0)
(0 -0.00178019 0)
(0 -0.00253398 0)
(0 -0.00229551 0)
(0 -0.0017338 0)
(0 -0.00462321 0)
(0 -0.00380335 0)