/*--------------------------------*- C++ -*----------------------------------*\
| =========                 |                                                 |
| \\      /  F ield         | OpenFOAM: The Open Source CFD Toolbox           |
|  \\    /   O peration     | Version:  v2012                                 |
|   \\  /    A nd           | Website:  www.openfoam.com                      |
|    \\/     M anipulation  |                                                 |
\*---------------------------------------------------------------------------*/
FoamFile
{
    version     2.0;
    format      ascii;
    class       surfaceScalarField;
    location    "100";
    object      meshPhiCN_0;
}
// * * * * * * * * * * * * * * * * * * * * * * * * * * * * * * * * * * * * * //

dimensions      [0 3 -1 0 0 0 0];
oriented        oriented;


internalField   nonuniform List<scalar> 
14885
(
-0.000443324
-0.00132653
0.00177484
-0.0144481
0.00787063
0.00676975
-0.000595764
0.00555412
-0.00463596
0.00346544
-0.0047487
0.000982179
0.000278415
-0.00213303
0.00258948
0.00866973
-0.00184158
-0.00691272
0.00176278
0.00688572
-0.00826179
-0.00337713
0.00401636
-0.000625498
-0.00170794
0.00123246
0.00057495
-0.00448233
0.00179357
0.00284219
0.000822121
0.00346056
-0.00433563
-0.00690623
-0.00734698
-0.00102762
0.00694149
-0.00563898
0.000961087
-0.00228284
0.00139217
-0.00603586
0.00176827
0.00406695
0.00235932
-0.00135289
-0.00692809
0.00625335
0.000546227
-0.00334908
0.00410894
-0.00376356
0.000875587
0.00320919
0.00144179
-0.000473194
-0.00100741
-0.006167
0.00539344
0.0011974
-0.00162092
0.00533287
-0.00173259
0.000514617
-0.00513099
0.00459574
-0.000154005
-4.66267e-06
0.000161173
-6.80633e-05
2.15756e-05
8.03519e-05
-0.00355481
-0.000553069
1.53954e-05
2.73806e-05
4.76207e-07
0.00122481
0.00732961
-0.00138714
-0.00314145
0.00460286
0.000363049
-2.8657e-05
-0.000321798
-0.00867661
0.00139042
0.00742238
-0.00149127
0.0004481
0.00125325
-0.000424164
-0.000788248
-0.00391904
0.000525505
-0.00370288
0.00328398
0.000370941
0.00343149
-0.00071366
-0.0020751
0.000364665
-3.42467e-05
-0.000412266
0.000182896
0.000352216
0.000279009
-0.00029668
1.06689e-05
0.00457821
-0.00587314
-0.00106557
0.00767482
-0.00914074
0.00155618
0.0130983
-0.0113728
-0.00134083
-0.00107667
0.000135169
0.00100389
-0.000181798
-0.000272124
0.000331851
2.1425e-05
-0.000347544
-0.00570926
-0.000733532
-0.000647983
0.00567516
-0.00477137
-0.0101257
0.0108621
-0.000512033
0.00852836
-0.00073951
5.31344e-05
-0.0016059
0.00158739
-0.00579043
-0.000368973
-0.00315023
0.0120937
-0.0110438
-0.000814502
0.0118942
-0.0108327
-0.000851805
-0.000866682
-0.00515475
-0.00519752
0.00175453
0.0036893
-0.00118181
0.00117299
0.000120397
-2.43729e-05
2.35623e-05
1.51189e-06
-0.00566485
0.00531272
-0.011331
0.0109106
0.000848993
-0.0080192
-0.000976321
-0.00319637
0.00371007
-0.000522822
-0.00208539
0.000304772
0.00182063
-0.00236436
0.000663405
0.00188354
0.000701748
-0.000358374
-0.000429266
-0.00172052
0.00219063
-0.000425263
-0.000108604
-0.000231295
0.000364107
-0.00198935
0.000320097
-0.00842763
0.00888226
-0.000309999
3.56901e-05
-7.45571e-05
-0.000373385
0.000237635
0.00126381
-0.00143356
-0.000264922
-0.000873018
-0.00151685
-0.00047376
0.000205282
0.00120601
-0.00251196
0.00138761
0.000358983
-8.64139e-06
-0.00135023
0.00262612
-0.00298195
0.00417109
0.0118515
0.00144413
0.00508335
-6.25425e-05
0.000429902
-0.000137776
-0.000853164
0.000203842
0.000396719
-0.00185267
0.000729575
0.001415
0.00697975
-0.0070191
0.000272059
0.000622471
0.000114669
-0.00566873
0.00539492
0.00240588
-0.00292005
0.000132288
0.000803362
0.00175172
-0.00261031
-0.0065052
0.00457664
0.00215947
-0.00294478
0.00459402
-0.00798022
0.000135366
-0.000769351
0.00801118
-0.002252
0.000229378
0.00187118
0.000187832
-0.000468823
2.10794e-05
-0.00823072
0.00809532
0.00100658
-0.00521761
0.00629355
-0.000928765
0.00171773
-0.000249068
-0.00157784
-0.00454393
-0.00165717
-0.00470262
0.00545549
-0.000390985
0.000103404
0.000197034
0.000216199
0.00642838
-0.00860655
-0.00396428
0.000422296
0.00382507
-0.000906469
0.000823628
6.0629e-08
-0.00390362
0.0107464
-0.0066454
-0.00153525
0.000324719
-0.00631602
0.00842095
4.01391e-05
-0.000766017
-0.00104892
0.000981946
-0.000191507
0.00216738
-0.00811518
-0.00488229
0.000497003
-0.00378963
0.000584434
-0.000285407
-0.0018604
-2.11554e-05
-0.000306025
0.000305997
0.00246171
-0.00628368
0.00404448
-0.000492334
0.000184201
0.00057361
-0.00125047
-0.00366205
4.14961e-06
-3.00072e-05
-6.16889e-06
-2.42676e-05
-1.74434e-07
-0.0122552
0.00662746
0.00591857
-0.00857143
-0.00350467
-0.000375153
-0.000977768
-0.00123491
0.00198654
0.00213267
-0.00253142
0.000255064
0.00273775
-0.000281894
0.000840316
0.0114954
-0.00805101
0.00758929
0.000572013
0.00672012
-0.00404834
0.000930122
-0.000916512
5.48077e-05
-0.00113386
0.00073529
0.000371162
0.0002265
-0.00196663
0.00163445
0.000420064
-0.000852646
0.000342888
-0.00487297
0.00734592
-0.000617382
0.00866024
-0.00780106
-0.00120416
0.000166111
0.00105096
-0.00652318
-0.0076469
-0.00442121
0.00431776
0.000526149
-0.00631474
0.00123997
-0.000912741
0.00779066
-0.00673924
-0.000322495
5.17557e-05
0.000365273
-0.0124851
0.00881274
-7.57324e-07
5.7246e-05
0.0012694
-0.00189621
0.000759463
6.97605e-05
0.000184525
-0.000772159
-0.000746862
-0.000400982
0.000325912
0.0022634
-6.01699e-05
-0.00183651
0.00188455
-0.00712784
0.00537583
-0.00111737
-0.000456895
6.76639e-05
-8.58282e-05
-1.06531e-06
0.00466908
-0.00401534
-0.000758367
-0.00656686
0.0073274
-0.000624055
-0.000322327
-0.00210786
-0.000382471
0.00179089
-0.0073716
-0.00057809
0.0096095
0.00246413
0.00207436
-0.00193181
-6.76217e-06
-4.31759e-05
0.000330652
0.000142797
-0.000190722
0.000244602
1.46514e-05
-0.00824642
0.00787947
-5.50572e-05
-0.000268755
0.00311577
-0.00232202
-0.00706256
0.00913376
-0.00148881
0.00181373
0.00889787
-0.00227631
-0.000336143
-0.00336023
0.000868044
-0.000273269
-0.000369633
-0.00291049
0.000342943
0.00239298
0.00304247
-0.0061275
0.00859122
0.00187455
-0.0102289
0.000737742
0.00297491
-0.00313272
0.0107069
-0.00185741
5.69753e-05
6.01021e-05
-0.000103792
0.000472122
-0.000534803
-0.000253639
-0.000836298
0.000196618
-0.00038752
-0.00339925
-0.00042886
-0.00450814
0.00185606
0.0028835
0.00147866
-2.65669e-05
0.000228649
-0.000297367
-0.000364514
0.000112186
0.000296675
-0.00397027
-0.00208972
0.00630815
-0.000639145
0.000290872
1.18073e-05
-2.52524e-05
1.26511e-05
-0.00858034
0.000345599
0.00841762
0.000928325
-0.000770065
-0.000133545
-0.00225044
0.00536845
-0.00609019
0.00110166
1.08664e-05
-0.0010062
-0.00335808
0.012274
-0.0126291
0.000652987
-0.00513171
0.00206788
-0.0053269
0.00937809
-0.00397127
-0.00333316
0.000395426
0.00301537
0.00850043
-0.00789817
-0.000569399
-0.000950143
-4.48608e-07
-0.00708048
0.00838937
-0.00117897
0.00806941
-0.00771906
-0.00017604
0.00798594
-0.00139702
-0.00661439
-2.07107e-05
-8.16164e-05
-5.38433e-06
0.0055412
0.000921599
-0.000162618
-0.0019808
0.000403711
0.00475192
-0.00527411
-0.00684646
0.000505452
-0.0015666
-9.54474e-06
0.000455488
-8.99171e-05
0.000394776
-8.89206e-05
-1.10264e-05
0.00720429
0.000759776
0.00823635
-0.007578
-0.000518879
-0.00180082
0.00491264
-0.00225031
0.0015363
0.000420139
-0.00190153
3.27187e-05
-0.000491411
0.000438674
0.00132732
-0.00808614
0.00712335
0.00339101
-0.000104159
-0.00376401
0.000637592
0.0083089
0.000644755
-0.00889333
-0.000345427
-0.0026238
0.00902171
-0.000623871
-0.000425723
-0.00225747
-0.00280535
0.000268289
-0.000322024
-0.00301302
0.00345499
-0.000439567
-0.000604795
-0.000404508
0.00342344
-0.00240788
-0.000153279
0.000610708
9.91345e-05
0.000314411
0.00175964
0.00114327
-0.00587485
0.00218342
-1.78189e-05
-0.000366286
-0.000179772
0.000288455
0.00369353
-0.00215317
0.000734664
0.00174783
-0.00869221
0.000508511
-0.001564
-0.00023748
-0.00474169
-0.000457145
0.000713538
-0.00752759
0.00707572
-0.00500239
0.000635282
0.00471235
-2.66809e-05
1.01987e-06
0.000204783
3.65548e-05
-0.0100767
-0.000655377
0.0110365
-0.00222698
0.00323694
-0.000710799
-0.00401811
-0.00158939
9.74504e-05
0.0025618
0.00198571
-0.00164507
4.81173e-05
0.000385958
-0.00405196
0.00122694
5.55365e-05
-0.00866173
0.00413337
0.00466425
-0.00292247
-0.0057318
0.00901702
0.00253514
0.000304975
-0.000646889
-0.00130383
0.000114246
0.000734078
0.00214469
-0.00128741
-0.000453543
0.00482304
0.0033177
8.95426e-05
-0.00312018
0.00258859
-0.000426367
0.00213707
2.86646e-05
0.000554313
-0.000508402
0.000949092
-0.000875157
-0.000356939
0.00038496
0.000377609
0.00896805
-0.0113653
0.00169521
-0.0021647
-0.00374382
-0.00484535
6.14788e-05
0.000159995
-0.000813064
-0.000488988
0.00223571
0.00152798
-0.00770078
0.00558687
-0.00915334
-0.000661752
0.0024811
-0.00234694
-1.37739e-05
0.00861108
0.000461497
0.000421776
0.00200838
-0.00440191
0.00118636
0.00339926
-0.00511458
0.00166316
0.00332795
0.00120405
-7.45231e-05
-0.000805793
-0.00109166
0.000591852
0.00126706
6.48327e-05
5.79807e-05
-0.000518102
0.00509921
-0.00417667
-0.00863635
0.00337194
-0.000608849
-0.00431453
0.00598791
-0.00186919
-0.00111239
-0.00834639
-0.000229217
0.0086085
-0.00219575
-0.00375278
0.00613418
-0.000335768
-3.84697e-05
0.000409064
-0.000151795
0.00126603
-0.00106678
5.18769e-06
7.5317e-06
-0.0057523
0.00513815
0.000789533
0.000231469
-0.00425457
0.00438668
-9.77125e-05
0.00167245
-0.000712551
-0.00379215
0.00575431
-0.00167178
0.00203278
-0.00115657
0.00211529
-0.00108779
0.00765148
0.000412966
-0.00757401
-0.00200352
0.0017953
-0.005992
0.00701227
-0.000352638
0.000364475
0.000416645
0.00680493
1.65364e-05
-7.54032e-06
0.00740711
-0.00645088
0.00309489
-0.00515279
-0.00439397
-0.00658334
-0.00264864
0.00299485
-0.000214095
-4.48988e-06
0.000203223
0.00758778
0.000339947
-0.00526785
0.00164141
0.00331431
7.98842e-05
0.000359129
0.000828962
-0.00139892
-7.44623e-05
0.00023632
0.000866636
-0.00213815
-0.00388895
0.00448627
-0.00111029
0.00100117
-3.0324e-05
-0.000316325
-0.000215938
-0.000133821
0.00517804
-0.00044146
-0.00466007
0.00010682
-0.000151732
-5.15008e-05
-2.94004e-05
5.5947e-05
0.00873202
7.68061e-05
-0.00113834
-0.00304935
-0.00261216
0.000318052
0.00229442
-0.0005417
0.000503648
5.7238e-05
0.00194065
-0.00290305
0.00311728
-0.000343134
-0.00255541
-0.000827305
0.000562655
-0.000978281
-0.000722816
-0.00481048
0.00181104
-0.00216809
0.00145792
-0.00210972
0.000119367
0.000732229
-0.0020377
0.000111491
-0.000124533
5.66236e-05
-0.00492984
0.00520643
0.000216795
0.00112154
-0.0130222
0.00879221
0.00458989
-0.00222533
-0.000381733
0.00149128
8.52809e-05
0.000961077
-0.00775581
-0.00714109
0.00635528
0.000794336
-0.00611008
0.00543546
-2.92225e-05
-2.35622e-06
0.00273781
-0.00029239
-0.00230735
0.000365293
-0.000213365
-0.000163624
0.000643048
-0.000610697
0.00226075
-0.00253698
0.000172451
-0.00013241
0.000100937
0.000247377
-0.00034072
0.00311359
-0.00245409
-0.000275763
-0.00303411
0.00312462
-0.0019019
0.0019884
-0.00247773
0.00245905
0.00109138
-0.00131314
0.000274035
-4.64501e-05
0.0113251
0.000355764
0.00289963
-0.00317096
0.00300965
3.19808e-05
0.00102202
0.00760765
-0.00844551
-2.47042e-05
1.84312e-05
-7.69708e-06
0.000623824
-2.60783e-05
-0.00337635
0.00327695
-0.00196711
0.00218106
-0.00502242
0.000665551
0.0045451
-0.00529929
0.00649575
0.000125689
-0.000381373
0.000534619
-0.000242707
0.000247508
-0.0023574
0.00217475
-0.00217076
-0.0124165
0.0112072
0.00144743
-7.7144e-07
0.000109799
7.45345e-05
-2.91679e-05
8.7457e-06
-8.7457e-06
-0.00475616
-0.00186902
0.00265706
-0.00250109
-9.86307e-05
0.00451331
-0.00312618
0.0009616
-0.00758416
0.00698541
0.000908535
-0.00991503
0.00957555
-0.00634524
0.00186065
0.000292959
-0.00062276
-1.54679e-05
-0.00656742
0.00786379
-0.0026355
0.00284838
-0.000633804
-0.000123319
-0.00886752
0.00343656
0.00555927
8.84914e-05
0.0004661
-0.000114057
-9.68065e-06
-0.00148115
0.00128315
0.000169612
-0.000330349
3.79479e-06
0.00182913
-0.00108763
0.00905129
-0.00898764
1.73845e-06
-0.00299658
0.00253911
0.000422632
-0.00394706
0.00369183
0.000958746
-0.00622786
-0.0112858
0.00588895
-0.00534334
0.000331384
0.00496348
-0.000609331
-0.00331006
0.00324163
0.00527352
-0.00502075
0.00651723
-0.0019074
0.000220911
-0.0084449
0.00908402
-0.000561298
0.000500849
-0.000458732
-2.67868e-05
-0.0107234
0.00230931
0.00776358
-0.00997602
-0.000253169
0.00141318
-0.000483961
-0.00649761
-0.00133212
-0.000182272
0.00146765
-0.000788417
-0.00653701
0.00030987
0.00168402
-0.00833948
0.00405461
0.00429562
0.00136573
-0.00248886
0.00139988
-0.00437325
0.00535496
-0.00020252
-0.00316972
-0.00366564
0.000492817
0.00318433
-0.00350707
0.00041893
0.00321669
-0.00047483
0.00241938
-0.00160157
-0.0113303
-9.02624e-06
-0.000144068
0.000170988
-0.00131688
-0.00214385
-0.000251217
0.000304864
5.4368e-05
-0.0042836
0.00529131
0.000167363
0.00055116
0.000201222
-0.000318423
0.000182431
-0.00283754
-0.0011418
0.00423279
-0.00240657
0.000183508
0.00262839
-0.0035056
-0.00470864
0.00147421
-0.00176973
0.00627253
0.000872024
-0.0035297
0.000219959
0.000189776
-0.00119493
0.00280287
0.00132114
0.00194207
0.000149362
-0.00150218
-0.000166914
-0.00151494
-0.0083562
-0.000442459
0.00892907
0.00351773
8.19235e-05
3.80004e-05
-6.91568e-05
-0.00958157
-0.00107539
0.0001029
-8.48575e-05
-2.17658e-06
0.00113493
-0.00449119
-0.000289374
-0.00338718
0.00399081
0.000366364
-0.000244119
-0.000396424
1.51796e-05
0.000383173
-0.000776748
-0.00282823
-0.000366644
-0.00769033
0.00310698
2.65836e-05
-0.000236153
0.000128886
-0.0041781
0.00322402
-0.00559522
0.00746859
-0.00161791
0.00173459
-0.00713106
-0.00637231
-0.00231635
0.00243369
0.00320366
0.00212523
-1.08857e-05
-0.00225844
0.00976573
-0.000637305
1.64575e-05
-1.64077e-05
0.000185009
-0.000139648
0.000501625
0.00054098
0.00567058
-0.00284586
-0.00262472
0.00297603
-0.0030346
-4.71917e-06
0.000156713
0.00277876
-0.000252141
-0.00119447
7.85388e-05
0.0014883
-0.00485283
0.00488592
-0.00243082
0.00398436
-0.00229562
0.0024544
-0.00788917
0.00771981
0.00114907
-0.00101269
-0.000119511
0.00893329
-7.02492e-05
-0.00880889
-0.00886138
0.000683219
-0.00667799
0.00110666
0.00577838
-5.45512e-05
0.000185378
-0.00576658
0.00540527
2.36488e-05
-9.17725e-05
-0.0031747
-0.00775043
0.000630126
-0.00539599
0.00427384
-0.00297586
-0.000163402
-0.00305353
0.00247569
-0.00527626
-0.000858894
-0.0002747
2.07079e-06
-0.00344628
0.0040987
-9.1027e-05
0.000101256
-0.001063
-0.0028766
-0.000993501
0.00562408
-0.00451834
-0.000116433
0.000270876
-0.0010277
0.000795473
4.47575e-05
-0.000556181
-0.0079117
-0.00340098
0.0113931
-0.000230174
0.000333372
0.00314307
-0.00275744
-0.00025198
-0.00626534
0.00058369
0.00601016
0.0065968
-0.00692232
-0.000901131
-0.000320308
0.000291001
0.00509442
0.000807865
-0.00725684
-0.0010466
0.00853645
0.00193319
-0.00230888
2.62052e-05
-0.000138857
0.000253327
-0.00450864
0.00381303
-0.0115986
0.00379962
0.00207562
-0.00553221
-0.000396553
0.00605155
-0.00572598
-0.00137047
-0.000829321
0.00208682
0.000189843
-1.96335e-05
-0.000158825
0.00141175
-0.000131866
-0.000828194
0.00104981
-0.000680038
-8.74308e-05
0.00156304
-0.00136729
-5.70026e-05
-0.000468411
0.00497245
-0.00106968
0.00025631
-0.00634154
0.00515481
0.00133178
6.19021e-05
-6.4222e-06
4.7517e-05
-9.23118e-05
0.00528942
-0.000527382
-0.00150384
0.00127089
-0.00714987
0.00200984
0.0029316
0.00248127
-0.00284047
0.00010092
0.00130669
-0.00122004
-7.73447e-05
0.00134858
-0.00146931
0.0051267
-0.00558859
-0.000199843
0.000426606
0.0017343
-0.00162464
-0.0106917
0.00574571
0.00545334
-0.00260838
0.00307822
0.000896258
-6.05167e-05
-0.000191979
-2.61582e-05
0.000168858
0.00165282
-0.000103265
-0.00119698
0.000172352
2.28669e-05
-0.0086981
0.00166145
-9.85222e-05
1.23744e-05
0.000124518
0.000120986
-0.000161292
-0.000846358
-0.00531115
-0.000384151
-0.000332683
0.00127355
-3.40605e-05
-0.00100487
0.00487893
-0.000149805
-0.00415843
-0.000689977
-0.0106915
0.000909703
0.000187436
-0.000633321
0.000382818
-0.00264071
0.000300381
0.00251534
0.000653239
0.00187813
-0.00323918
0.00620427
-0.00636048
0.000429065
0.00345557
-0.000810419
-0.00119666
0.00118364
4.41815e-05
-0.00462619
-0.00581388
-3.21498e-05
1.31541e-06
0.00110225
0.00968471
-0.0103912
0.00597638
-0.00184561
0.00132631
-0.000432198
-0.000796012
0.00335355
-0.00308461
-0.00011407
-0.00633072
-0.00648772
0.00799292
-0.00103772
-0.00661716
-0.00280488
0.000132722
0.00017591
-0.000191269
-0.000129579
0.000329876
0.000332961
2.75736e-05
-0.000376346
0.000503551
3.11016e-06
-0.000512113
0.00386679
-0.000660479
-0.00287876
0.000277923
0.00879945
-0.00096275
-0.00747342
-0.000676732
0.000880131
-5.09187e-05
-2.07329e-05
1.13463e-05
1.05384e-05
-0.0103762
0.00981826
0.00077764
-0.00323723
0.00393349
0.00303364
4.57957e-06
-2.31308e-05
0.00175144
-0.00137013
-0.000156113
-0.00107499
-0.00901398
-0.004552
-0.000335893
-0.000374174
-0.00220031
0.00432757
-0.00503699
-0.0115277
0.00507519
0.00599733
-0.000818839
0.00678863
-0.00575698
0.000884483
-0.00029776
-0.000509124
0.00056441
0.000820533
-0.000699816
0.00103428
0.00105401
-0.000418182
2.72452e-05
-0.000357114
2.50786e-05
-0.000273601
0.0006072
-0.000262335
0.000792508
0.00252187
0.000132967
-0.00319247
-0.00406247
0.00487357
-0.00039405
-0.00211735
0.000210731
0.00175942
-0.00232868
0.00025831
0.00211138
-0.000345485
0.000328151
0.00123406
0.000178799
0.00909931
0.000510904
-0.000890581
0.000192541
0.00120943
-0.000393056
-0.00300954
-0.000238591
0.000246825
0.0105573
-0.00910384
0.000187143
-0.000191525
-0.000147888
-0.00145228
0.000186897
-0.000307047
0.000459181
9.15002e-05
-0.000298791
-3.39313e-05
-0.00102865
0.00781599
-0.00663799
-4.65971e-05
-0.00028914
0.00322083
-7.33977e-05
-0.00321073
0.00233237
0.000293986
0.0102055
4.46541e-06
2.94586e-06
0.000241073
5.19014e-05
-0.000133993
3.61261e-05
-0.006323
0.00624013
0.00043969
-0.00123493
-0.00398574
0.000930947
-0.00116103
0.000433778
-0.000365038
0.000500666
0.00133363
-0.00031581
0.000103621
-6.89143e-05
0.000197458
-0.000360644
-0.00193345
0.000475091
0.0004371
0.00719266
-0.00982059
-0.00105265
-0.00136247
-0.00425433
0.00574532
0.00101348
-0.000566608
-0.000630276
0.0020578
-0.00257982
0.000486521
-0.00502048
0.00514754
0.00652876
0.000524258
0.00419132
-0.00689066
0.00276575
-0.00640131
0.00517483
-0.00120243
0.00398038
-0.00442251
-0.00572839
-0.00632934
-6.53944e-06
0.00109666
-0.00330805
0.0056838
-0.00244492
-0.00538789
-0.000659846
0.00318189
-0.00330429
-0.00300068
0.00734862
-0.00429533
0.00254277
-0.0028227
-0.000118146
0.00461857
-0.00420621
-0.000303099
-6.75189e-05
0.000856581
-0.000956476
0.00166534
-0.00198451
-0.000108054
9.33072e-05
0.00107744
1.4229e-05
-0.000245033
-0.000363093
-0.00559055
0.00224305
-0.00422817
0.0037603
0.000143546
-9.00186e-05
-0.00935762
0.000367377
0.00131493
-0.0007359
0.000104012
-0.00402345
0.00512639
-7.33197e-05
-0.000212475
-0.000249207
-0.00428462
9.19654e-05
-0.00217434
0.000690997
-0.00530607
0.00093508
-0.000103325
-0.0008861
-0.000522332
-0.000726881
0.000440163
-0.0041342
1.32758e-05
0.00214088
-1.23323e-05
-1.16346e-05
-8.34508e-05
5.67693e-05
3.92827e-05
-0.000551845
0.000317966
1.69015e-05
-4.34833e-05
-0.000167947
0.00414291
-0.00409716
0.000144903
0.000250035
0.00520877
-0.00885169
-0.000421355
-0.00626204
0.00019923
-0.000279955
-0.00266534
-0.000677753
0.000418583
6.74687e-06
0.000237572
-0.000398896
-1.00696e-05
0.00152087
-0.000624296
0.000125363
-0.0031572
0.00278174
-6.07028e-05
-0.000729806
0.00493828
0.00445947
0.00659093
0.000285805
-2.81651e-05
-0.000257479
0.000437813
-0.00312624
8.21452e-05
-0.000298984
-0.000421423
-0.00957709
0.00503553
0.0046249
0.00557779
0.00340282
0.000340744
-0.000549819
0.00154568
-1.47152e-06
0.000129276
-0.000129538
0.00462904
-0.00869868
0.00415613
-0.00464568
-0.00150837
0.00126226
0.000201526
-0.000270545
0.000146052
8.81394e-05
0.000767013
-0.00370962
0.000761639
0.00293874
-9.17035e-05
-0.00119798
0.00586556
-0.000753288
-0.00139277
-0.00158056
0.00288937
-4.02007e-05
-2.83165e-06
0.00242457
-0.00259902
-0.000178665
0.00221508
-0.00204602
-0.000781914
0.00860376
0.0067264
0.00270378
-0.000495022
0.000590772
-4.7287e-05
-0.000680254
0.00091036
0.000280213
-0.000347291
8.30993e-06
-4.66476e-05
-0.000329205
0.00020471
-0.00165623
0.00570152
-0.00218912
-0.00013676
-0.00791083
0.00844014
0.00160645
-0.000117207
-0.00136086
-0.00359529
0.00129507
0.0021903
-0.000305404
0.000855859
-0.00216387
-0.00408493
-0.000211733
-0.00207535
-1.21064e-05
3.28585e-07
1.78963e-05
0.00475243
-0.00459519
-0.00230018
0.00195627
0.000134422
0.00376549
-0.00354532
0.000431205
-0.00606355
0.00209211
0.00420509
0.0129589
-0.0123477
-0.00120455
0.000458704
-0.000315508
0.000223668
8.64778e-05
0.00336271
0.000557388
-0.0019972
-0.00036397
-0.00220369
0.00191831
0.000155011
0.00266877
-3.774e-05
-0.0025517
0.000491459
2.68527e-05
-0.000210375
-6.33783e-06
-0.000409219
0.00450947
-0.00250735
0.001093
9.27183e-05
0.00101072
4.69356e-05
0.00126509
-0.0118427
-0.002104
-0.00148476
-0.00320828
-0.00616613
0.000411487
0.00613187
0.00129075
0.00349414
0.00234468
-0.00303942
-0.000126002
7.6083e-05
0.00155074
-0.000337598
-0.0083266
0.00539452
-8.48744e-05
-0.0081593
-0.000913404
0.0098109
-0.00347897
-0.000286961
0.00190163
-0.00312901
0.00292886
-0.00597794
-0.000604374
-5.84963e-05
0.000503436
-0.00126429
0.000950587
-3.81871e-06
0.000344236
-6.31015e-05
0.000633151
-0.000647792
6.11151e-05
-0.0024152
0.00200144
0.000441232
0.00786832
-0.000283473
-0.00743937
-4.78371e-05
-5.44841e-08
0.000437458
-1.60109e-05
-0.000432025
-0.00139855
0.00701066
0.00403974
-0.00401484
-0.000157803
-0.000124201
-0.00772894
0.0060764
0.0042431
-0.00405619
-0.000349527
2.56214e-05
-0.00238747
0.00668963
0.000270523
1.4996e-05
-0.000267119
-0.000933039
-0.0073759
0.000177337
0.00124895
0.00186315
-0.00238953
-0.00321575
0.00249178
-6.5294e-06
-0.000889733
0.000944326
5.70423e-05
0.00303451
-0.0033439
-0.00177149
0.000156177
0.00170248
-0.000280081
-0.00177315
1.92752e-05
0.00301583
0.0108746
-7.21774e-05
-0.0020086
0.00510614
-0.00839578
0.000935711
0.00795556
-0.000155135
-0.00150952
-0.000593185
0.000101591
0.00049599
-0.000465188
3.49026e-05
-9.19811e-06
0.0019604
-0.000839294
-0.004932
0.000135905
0.000206301
0.0032385
-5.82953e-05
-0.00317056
-0.00352939
-0.000355765
0.00355284
-0.00127577
0.00250195
-1.15033e-05
-0.00112106
0.000664218
-0.00450636
0.000129624
0.00440093
0.00664651
-0.00417582
0.00111563
-0.000724063
-0.00548356
0.000827385
0.00442216
0.00014698
-0.000132949
-0.000139447
-2.27164e-06
0.000241098
0.001113
-0.00151409
0.000124323
0.000147427
0.000270734
1.48092e-05
-0.00143752
0.00129112
0.000121577
0.00119362
-0.000227719
-0.000712483
-0.00114588
0.000970233
0.000164585
0.00014698
0.000877928
0.00384177
-0.000413069
-0.00324575
-0.00847528
0.000981539
-0.000169903
-0.00324306
-0.00261242
2.50112e-05
0.0023738
-1.69852e-05
-0.00209471
0.00739386
-0.000152454
0.000149315
-0.00407429
-0.000147553
-0.000974867
-0.000617505
-0.0049505
0.00599416
-0.00157466
-0.000447399
-0.00888258
0.00228437
-0.00206269
-0.000176042
-0.00654857
-0.00742583
-0.000339306
-0.00514245
-0.0008281
0.000868428
1.52261e-05
1.59761e-07
-8.94005e-06
0.000435901
0.00494506
-0.00449483
-0.000139396
-0.000390683
0.00402746
-0.00309044
-0.00344516
0.00914323
-0.000190922
0.000822038
-0.00261005
0.00192726
-0.000533584
-0.00261991
0.00385474
-0.00449305
0.00259223
0.000150226
-0.00241373
0.00113984
-0.00963792
0.0111331
-0.00761201
0.00094463
0.006759
-0.00121351
-3.62483e-05
0.000279051
-0.00826675
0.00806984
0.000167499
0.00500263
-0.00262632
-0.00102608
-0.000139605
-5.3695e-07
-1.37482e-06
0.000180433
0.007467
-0.00376457
-0.00336175
8.48669e-06
-2.03089e-05
1.15345e-05
0.00110377
-0.000573776
-9.07604e-05
0.000895563
0.000862584
-0.00936443
0.00898122
0.00371726
-0.00239572
-7.44215e-05
-5.3454e-06
0.00938908
0.000622465
0.00326442
-0.00320392
-0.000263306
0.00558291
-0.00442733
-0.000835713
0.000126647
-0.000465059
-0.00192528
-3.47457e-05
-2.46456e-05
3.41362e-05
-0.000162683
0.00210832
0.000109924
1.3034e-05
-0.000179098
-0.000128782
0.00181401
-9.61407e-05
0.00201856
-0.000489856
-1.98891e-05
0.000100479
0.000367226
-0.00906905
0.00891846
0.00286158
-0.00533309
0.00620425
0.00218381
0.000398891
0.000837513
-0.000919278
-4.03039e-05
0.00652803
-0.00744558
0.000480451
-1.46021e-05
0.000689391
-0.000101391
-0.000379792
3.35742e-05
-0.000329434
-0.00237913
0.00211656
-0.00111973
0.00347954
0.000366742
-0.000769898
0.000116052
0.00147123
-0.000834927
-0.000680315
-0.0072689
1.91955e-06
-2.17704e-05
5.4726e-05
0.000373481
0.00467375
-0.00044872
3.61935e-05
0.000411511
0.00227856
0.00260587
-0.00745548
0.00722358
0.00194301
-0.00194065
0.00488898
-0.00673641
0.00214192
-0.00361568
-0.00262032
-7.38142e-05
0.0031433
0.000702249
-0.00502692
8.57797e-05
-6.77533e-05
0.000147645
-0.00075913
-0.00687005
-0.000889702
-0.00823208
0.00140877
-0.00172536
-0.000802393
0.00109643
-0.0084503
0.00789273
-0.00905068
0.00964054
-0.00932652
0.00474816
0.000126237
3.58196e-05
-0.000120313
-0.00271864
0.00222264
0.000863909
7.2387e-06
0.000535605
-0.000227212
-7.58457e-06
-0.000786796
0.00409621
-0.00379001
-0.000243577
0.00450547
-0.00496715
-2.30012e-05
0.000295635
0.00753166
-0.000766853
-0.00653314
-0.00130515
-0.00504108
-0.000157408
-0.000138427
-0.000388612
-0.000368592
-2.47155e-05
1.42344e-05
0.000153292
9.93888e-05
0.00224184
0.00646543
-0.00023409
-0.00437304
9.05338e-05
0.00452531
-0.00139393
-1.28766e-05
0.00143691
-0.00516044
0.00487467
0.000531037
0.000206542
-0.00358695
0.0036028
-0.00074743
0.0014567
-0.000434325
0.000430537
-0.000496505
0.000250536
0.00872363
-0.00888567
0.000772984
-0.000104991
-0.000816012
0.003555
-0.000193388
-0.00326567
8.53398e-06
-0.000614284
0.000622208
0.00011588
-0.000313122
0.00491483
-0.00596876
-0.00021372
-0.0012858
-0.00386966
-0.00696771
-0.000629898
-0.000747584
-0.0032216
-0.000194878
0.00342084
0.00888681
-0.00143473
0.00764728
-0.00823062
-0.00154911
-0.00248737
1.40727e-05
-0.00871691
0.0090545
-0.00672841
-0.000834361
0.0077178
0.000319489
-0.0040481
0.00353139
-0.000825383
-0.00612451
0.00716148
-0.000997797
-0.000103157
-0.000609997
0.000748839
0.00108746
0.00783764
-0.00845124
-0.00716717
0.00199763
-0.0031824
-0.000569379
-0.00429788
0.00325829
-0.00655955
0.00338628
0.000121701
0.00314557
-0.000653024
-0.00465555
0.00292211
-0.000774325
-0.00269593
-3.62516e-05
7.95399e-05
0.000982883
0.00302101
-0.00321296
-0.00036642
0.00790474
-0.00816442
6.70791e-06
-0.00234209
-0.000420604
-0.00195184
0.00192671
0.00485783
-0.000338645
-0.00427791
-0.00332072
5.38569e-05
0.00318954
0.000118259
6.43646e-05
0.000121704
6.80212e-05
0.00918691
-0.00466242
0.00443143
-9.82496e-05
5.38221e-05
-0.000554616
0.00484697
-0.00396746
0.00427338
-0.00396735
-0.00025011
2.76805e-05
-1.04598e-05
0.000105196
0.000230408
-0.00152451
0.0013593
-0.000592532
0.00575461
-0.00394772
-0.000423636
2.8294e-06
0.000237487
0.00180627
-0.0019868
-0.000919621
0.000852716
-3.94578e-05
-8.5024e-05
-0.00234621
0.000982806
-0.000879813
0.00174612
-0.00260847
-0.00439503
0.00696764
-0.00231515
0.000690215
-6.62334e-05
0.000768965
-8.34016e-05
-0.000668873
0.000523766
0.00393594
0.00384069
-0.00219066
0.00522175
-0.000240905
0.00103395
0.00410594
-0.00369874
-0.000118427
0.00392249
-0.000226038
-0.00352561
-0.000996405
-0.000106581
0.000613619
-0.000598594
4.66084e-05
-0.0042442
0.000194711
0.000289988
2.31126e-06
-0.00289151
0.000523778
0.0026696
0.00553178
-0.00627178
0.00047561
-0.00024868
0.0033282
-0.00328817
0.00121429
-8.87658e-05
-0.00735742
0.000434801
-0.00337735
-0.00632206
9.1523e-05
-0.000787908
0.000706315
-0.00110938
-7.39144e-05
0.00102385
0.00475814
0.000308985
-0.0011149
0.00011422
-0.000365385
-0.00249441
0.00182477
-0.0019935
2.68394e-05
0.00490266
0.00256185
1.86255e-05
-7.85761e-06
0.00314731
-5.28357e-05
-0.00320237
-0.00395073
0.000236922
0.00378898
0.00161821
-0.00168193
-0.00857712
-0.000815741
-4.34643e-06
0.00088313
-7.25054e-05
0.00189378
-0.00111906
0.000864424
0.000285286
8.8106e-05
0.00100289
0.00205361
0.000712331
-0.000687589
-0.00820106
-0.000589375
0.00274413
0.00040047
-4.78992e-05
-0.000744358
-0.00833299
-0.00236177
-0.00673411
-0.0006234
9.54525e-05
0.000131571
0.0001711
-0.0016169
0.00679789
-0.00302073
0.0035217
-0.000649492
0.00321527
0.00711168
-0.00634204
-0.000657674
-0.00142126
0.000931909
-0.000705662
0.00805653
-0.000133584
-0.00343032
-0.00042214
1.79765e-06
0.000458784
-0.000166487
-0.00189473
-0.00047456
0.00924107
-0.00107628
0.000830657
0.00153896
0.000211076
-0.00176268
0.00398623
0.000213177
-0.00150488
0.00142453
0.00372674
-0.00033754
-0.00270034
0.000512731
-0.00372054
-0.000405664
-0.000248681
-0.00364543
-0.000536505
-1.73908e-05
0.000806366
0.00495074
-0.00525262
-0.000408229
-1.91091e-05
-0.000495319
0.000917513
0.0011584
-0.00084645
-0.000106563
0.000708892
-0.0100034
-0.000225224
0.00179094
1.27057e-05
0.00530867
3.57088e-05
0.00194127
-0.000311981
-0.0014385
-0.00655148
-0.0025954
4.93041e-05
-3.62002e-05
-0.00121166
-2.65083e-05
0.00184482
-0.00196618
7.18042e-05
-0.00016098
-0.000447072
-0.000213395
-0.000150671
1.89017e-06
0.000128174
-0.000874872
-0.00846667
0.00962209
0.00738853
-0.000305498
-0.00696472
-0.00314086
0.00277548
-0.00241531
0.000230529
0.00406996
0.000149411
0.00201682
-0.0020812
-0.00262923
-0.000285326
-0.00622027
8.76918e-05
0.00188289
0.00316312
-8.57068e-05
-0.00318897
-0.000526595
-0.00120572
0.00138108
-7.67714e-05
2.13634e-05
-0.00169914
0.00176549
-0.000885054
-0.0011885
0.000142995
0.00104372
0.00186364
0.000274401
-3.00358e-05
-0.000151382
-0.00100703
-0.00393595
0.00374473
-0.000332704
-0.00256505
0.0027932
-0.000391921
4.19914e-05
0.000386096
-0.000500339
0.00566962
-0.00478362
-0.00393119
0.00347514
-0.00309969
0.00642909
0.00160528
0.000173591
-0.00470807
0.000487294
0.00497586
4.09565e-05
0.000672458
-0.000706984
0.00754519
0.00221912
-0.000212849
-0.000563274
0.000450257
8.27401e-05
0.00434132
0.00271697
-0.00398119
0.000467469
0.00299983
7.55063e-05
-7.63936e-05
3.18492e-05
-0.00274282
0.00230542
-0.000316519
-0.00393083