/*--------------------------------*- C++ -*----------------------------------*\
| =========                 |                                                 |
| \\      /  F ield         | OpenFOAM: The Open Source CFD Toolbox           |
|  \\    /   O peration     | Version:  v2012                                 |
|   \\  /    A nd           | Website:  www.openfoam.com                      |
|    \\/     M anipulation  |                                                 |
\*---------------------------------------------------------------------------*/
FoamFile
{
    version     2.0;
    format      ascii;
    class       surfaceVectorField;
    location    "100";
    object      Uf_0;
}
// * * * * * * * * * * * * * * * * * * * * * * * * * * * * * * * * * * * * * //

dimensions      [0 1 -1 0 0 0 0];


internalField   nonuniform List<vector> 
14885
(
(1.01013 -7.38036e-05 -1.06238e-22)
(1.00666 0.00205783 2.19971e-22)
(1.00965 -0.00187844 -5.30076e-23)
(0.871368 0.327251 1.50878e-20)
(0.835939 0.340237 -3.46482e-20)
(0.838334 0.294643 1.53746e-20)
(1.02151 -0.00206239 -2.9103e-22)
(1.0227 -0.00286705 -1.09753e-22)
(1.02076 -0.00356158 4.42992e-22)
(1.01107 0.000393148 5.78762e-23)
(1.0111 0.000423117 -2.33517e-22)
(1.01111 0.000417918 1.19636e-21)
(1.012 -0.000239575 4.19714e-22)
(1.01185 -0.000266109 0)
(1.01222 -0.000288774 -3.41388e-23)
(0.786447 -0.0919111 -1.73119e-22)
(0.776131 -0.0642246 4.72467e-21)
(0.813124 -0.0736231 -3.6096e-21)
(1.11942 0.16555 -3.29206e-21)
(1.15743 0.159428 -5.80043e-22)
(1.12379 0.123428 -1.52462e-20)
(0.903245 -0.140162 -1.27913e-22)
(0.893174 -0.158553 -1.3798e-22)
(0.919948 -0.137994 -1.86959e-21)
(1.00771 -0.000524199 0)
(1.00739 -0.000659131 -1.16516e-22)
(1.00758 -0.000149816 -3.01109e-22)
(0.984926 0.0136364 -2.12909e-21)
(0.984575 0.0166465 2.10994e-22)
(0.981365 0.0137965 -1.59708e-21)
(0.97859 0.0231402 -3.59387e-22)
(0.975901 0.0188693 0)
(0.980391 0.0181692 8.04108e-22)
(0.898967 0.30272 -2.37196e-21)
(0.920737 0.337179 1.72899e-21)
(1.00845 0.0174045 7.53494e-22)
(1.00736 0.0180756 -7.75652e-23)
(1.00877 0.0188119 5.8338e-22)
(1.02743 0.00390073 5.13181e-22)
(1.02669 0.00296587 6.75783e-22)
(1.02819 0.00287487 0)
(1.01654 0.00299103 -5.02294e-22)
(1.01691 0.00311486 2.28854e-23)
(1.01669 0.00330368 1.03428e-21)
(1.02806 0.0050096 4.59357e-22)
(1.02664 0.00494153 9.87214e-22)
(0.811038 -0.117634 6.11612e-22)
(0.795662 -0.14324 2.22332e-22)
(0.825091 -0.115904 1.46964e-21)
(0.982829 0.0255728 -3.2064e-22)
(0.977532 0.0281823 -3.22668e-21)
(1.01957 0.0139974 9.16787e-23)
(1.0202 0.0147526 -8.23873e-23)
(1.01933 0.0149755 -1.33457e-22)
(1.00943 -0.0040209 0)
(1.00868 -0.0042049 0)
(1.00952 -0.00490011 -8.53278e-22)
(1.00947 0.0167652 4.59083e-22)
(1.00862 0.0158636 -1.81974e-21)
(1.01538 -0.00551602 6.34219e-23)
(1.00975 -0.000338687 -9.32692e-23)
(1.01106 0.000360658 -1.19698e-21)
(1.01104 0.00036606 9.94542e-22)
(0.866664 0.167633 -2.69297e-21)
(0.866295 0.176561 4.23949e-21)
(0.883987 0.16533 -7.39552e-22)
(1.01156 -0.00100605 -3.86199e-22)
(1.01149 -0.000885139 -1.22215e-21)
(1.01152 -0.000984025 -3.59326e-22)
(1.02107 -0.000746108 3.15234e-22)
(1.02328 -0.000804547 -8.23714e-22)
(1.02553 -0.000887556 1.64155e-22)
(0.988275 0.0128724 -5.89025e-22)
(0.985658 0.0101394 2.236e-21)
(1.00951 -0.00206008 -1.70297e-22)
(1.00926 -0.00223559 2.42956e-24)
(1.00962 -0.00247425 -9.41466e-25)
(0.799361 -0.106261 9.37596e-22)
(0.7634 -0.112223 -4.20758e-21)
(0.82766 0.15924 3.3321e-22)
(0.813078 0.146191 -3.38301e-22)
(0.829725 0.133026 3.06753e-22)
(1.01192 -0.000149498 2.99084e-22)
(1.01059 -0.000212084 1.24499e-21)
(1.01031 -0.000157878 1.08363e-21)
(1.00597 0.0507458 -5.95128e-22)
(1.00181 0.0490302 0)
(1.00253 0.0545486 1.46166e-22)
(1.00797 -0.00127391 1.23242e-21)
(1.00783 -0.000883848 3.93137e-22)
(1.00768 -0.00140611 5.17272e-22)
(1.00813 -0.00156586 5.42857e-22)
(1.0082 -0.00108693 5.38563e-22)
(0.913782 -0.121086 0)
(0.887933 -0.133012 -4.59714e-22)
(0.842148 -0.183594 -2.10991e-21)
(0.837585 -0.201509 1.38177e-20)
(0.823375 -0.17977 -2.89291e-21)
(1.01036 0.000211328 0)
(1.01092 0.00033735 -1.04844e-21)
(1.01131 0.000372924 -1.22817e-21)
(1.01126 0.00310998 6.4922e-22)
(1.01149 0.00300056 -2.07317e-23)
(1.01125 0.002835 6.97664e-22)
(1.01299 -0.000176474 -9.64871e-22)
(1.01268 -0.000245639 1.40919e-22)
(1.04064 0.0430843 -3.30866e-21)
(1.04301 0.0395376 -1.19798e-22)
(1.04535 0.0444857 -2.61919e-22)
(0.847725 0.166912 -1.11538e-20)
(0.835124 0.180971 4.67291e-22)
(1.00796 -0.000402663 2.95113e-23)
(0.947079 -0.125706 -2.05768e-22)
(0.949015 -0.0994515 -3.80219e-22)
(0.920143 -0.10904 2.75187e-22)
(1.17613 0.0378144 -1.97524e-21)
(1.15285 0.0207919 -1.86448e-20)
(1.15485 0.0661565 -8.21191e-21)
(1.01112 9.51078e-05 5.24665e-22)
(1.01111 4.2876e-05 -2.21916e-21)
(1.01109 0.000105444 0)
(1.01162 -0.00109749 0)
(1.01159 -0.00101821 0)
(1.01939 -0.00945172 0)
(1.0186 -0.00907462 1.64821e-22)
(1.01946 -0.00848715 6.16843e-22)
(1.01629 0.00271293 -3.99254e-22)
(1.01612 0.00290305 -3.65977e-22)
(1.00781 0.0377585 2.41139e-21)
(1.01215 0.039838 -1.44499e-21)
(1.01071 0.0345085 -6.81271e-22)
(1.01751 -0.330455 -6.52956e-21)
(0.991241 -0.385619 8.17881e-22)
(0.952284 -0.360042 -6.28102e-21)
(0.927676 -0.159364 -3.10469e-22)
(0.974324 -0.140379 3.3482e-23)
(1.01117 -0.000129273 8.58389e-22)
(1.01117 -8.30527e-05 -2.65929e-22)
(1.01111 -0.000111697 7.59884e-22)
(0.829126 -0.0926022 2.34007e-22)
(1.01897 0.0134176 0)
(1.01971 0.0132517 -1.26682e-22)
(0.617374 -0.160672 2.69978e-21)
(0.634923 -0.126763 -3.38797e-21)
(0.658077 -0.185805 -8.21947e-21)
(0.975487 -0.583251 7.26105e-20)
(0.880465 -0.588429 -4.74576e-20)
(0.909829 -0.682509 -3.10233e-20)
(1.01035 0.0164725 1.20527e-22)
(1.01037 0.0173481 6.9433e-22)
(0.991703 0.0150853 1.01011e-21)
(0.991285 0.0174072 4.15381e-22)
(0.989466 0.0154714 -1.81046e-21)
(1.01353 0.00432048 -2.95913e-22)
(1.01357 0.00457334 0)
(1.0133 0.00436989 8.26481e-22)
(1.03541 0.00328403 7.85711e-25)
(1.03503 0.0027671 0)
(1.0348 0.00332681 -1.06202e-23)
(1.00387 0.0355931 -1.15961e-21)
(1.00289 0.041321 4.77939e-21)
(0.655648 0.0509355 -3.68741e-21)
(0.61773 0.0366595 -2.3939e-20)
(0.618013 0.112297 -2.20739e-21)
(0.966125 -0.0826756 -1.43665e-21)
(0.945389 -0.0727904 -2.74277e-22)
(0.96532 -0.0732178 2.70473e-22)
(0.958919 -0.0865762 1.55107e-22)
(0.977572 -0.0668494 0)
(1.0838 -0.0900688 7.17467e-23)
(1.07102 -0.105756 -4.32373e-22)
(1.08965 -0.109546 -2.14661e-21)
(1.01221 -0.0014744 -5.39345e-22)
(1.0123 -0.00142267 9.01393e-22)
(1.01225 -0.0014057 1.69881e-21)
(1.01062 -0.00360143 4.45761e-22)
(1.01011 -0.0038296 7.85456e-22)
(1.01081 -0.00428612 2.70206e-23)
(1.00125 -0.0069284 -6.5956e-22)
(1.00014 -0.00813498 3.64387e-22)
(0.999756 -0.00606594 9.651e-22)
(1.02217 -0.0118229 -5.58853e-22)
(1.0214 -0.0115236 -4.94176e-22)
(1.02148 -0.0126682 -3.0134e-22)
(1.00213 -0.00511891 -7.27753e-22)
(1.0031 -0.00702996 -3.72508e-22)
(0.91036 -0.191066 1.35625e-21)
(0.882404 -0.229499 6.20128e-21)
(0.94448 -0.212756 1.14767e-21)
(1.00931 0.00202406 0)
(1.00922 0.00159428 0)
(1.00958 0.0016958 2.10623e-22)
(1.01359 0.00629413 9.26645e-22)
(1.01405 0.0065078 -6.34875e-22)
(1.01386 0.00594517 4.96947e-22)
(1.01375 0.00422748 -1.25242e-21)
(1.01349 0.00405948 5.64753e-22)
(1.01215 -0.00152546 -1.64757e-21)
(1.01212 -0.00153869 5.41233e-22)
(0.879756 -0.165591 -4.77443e-21)
(0.992607 -0.0537553 8.05961e-22)
(1.00024 -0.0527415 0)
(0.995994 -0.0613403 -1.54828e-21)
(1.01929 -0.0104908 4.47864e-22)
(1.02025 -0.00996298 1.61697e-22)
(0.991072 -0.0483249 4.19599e-21)
(0.984561 -0.0541423 -1.01638e-21)
(1.02104 0.014612 -3.51602e-22)
(1.02072 0.0156539 -9.50982e-23)
(1.19 0.0563771 -3.49862e-21)
(1.19393 -0.00360825 0)
(0.866223 0.152939 -7.19247e-22)
(1.0048 -2.56335e-05 0)
(1.0081 -3.96905e-05 1.0779e-21)
(1.00445 -2.91013e-05 0)
(1.01173 -0.000381038 3.68224e-22)
(1.01177 -0.000437298 6.64356e-22)
(1.01167 -0.000463035 4.04791e-22)
(0.996269 -0.00243285 -2.24532e-21)
(0.995347 -0.00419709 -7.66624e-22)
(0.993868 -0.00221102 -5.61262e-22)
(0.995871 0.0818134 -1.12641e-23)
(0.999197 0.0709332 -8.66514e-23)
(1.00679 0.0803395 2.00103e-22)
(1.01051 -0.00304022 -7.56961e-22)
(1.0111 -0.00337495 1.12822e-22)
(1.02009 -0.00136109 -3.02366e-22)
(1.02139 -0.000205031 -2.72062e-24)
(1.01373 -0.00538387 -2.33379e-21)
(1.01386 -0.00506536 3.47351e-22)
(1.01412 -0.00541812 -1.11571e-21)
(1.01841 -0.073746 9.74064e-22)
(1.02973 -0.0835207 0)
(1.02893 -0.0685265 0)
(1.01372 0.019072 3.24903e-22)
(1.01285 0.0191455 2.27828e-22)
(1.01364 0.020043 2.91964e-22)
(1.01714 0.00297286 -2.617e-22)
(1.01732 0.00328707 4.68794e-22)
(0.973535 -0.0632729 -1.13197e-20)
(0.985324 -0.081295 -5.87447e-21)
(0.981776 0.0808663 3.92994e-21)
(0.989065 0.0954308 1.62949e-22)
(1.12845 -0.038561 0)
(1.12872 -0.0593866 0)
(1.1414 -0.0451371 5.27032e-21)
(1.01142 0.000871011 7.68476e-24)
(1.01142 0.000860498 2.38398e-22)
(1.01142 0.000774554 -1.43699e-22)
(0.714328 0.476718 -6.0005e-21)
(0.718064 0.483742 -8.74247e-21)
(1.00944 -0.00330201 1.50981e-21)
(0.808613 -0.139951 -8.11794e-21)
(0.824613 -0.11979 -2.44184e-21)
(0.791236 -0.180775 2.80399e-21)
(1.01394 0.00414066 -4.13716e-22)
(1.01413 0.00402128 5.91319e-22)
(1.01387 0.00388678 4.12956e-25)
(1.01463 0.0188919 -4.98705e-23)
(1.01389 0.0182158 1.72198e-22)
(0.968377 0.0210591 1.49576e-22)
(0.963819 0.0239454 -2.12719e-21)
(0.970602 0.0269348 -7.86167e-22)
(1.01103 0.00260597 -1.05254e-21)
(1.0109 0.00232909 -4.33987e-22)
(1.01107 0.00232589 0)
(1.01289 0.0451231 1.04339e-21)
(1.01585 0.0431056 0)
(1.01623 0.0147958 0)
(1.01555 0.0147245 -1.93061e-22)
(1.01588 0.0154802 -1.15469e-22)
(1.01158 0.00249286 -6.3219e-22)
(1.01165 0.00239596 0)
(1.01152 0.00224235 -6.83035e-22)
(0.713729 -0.559406 5.42534e-20)
(0.708098 -0.580443 4.73863e-22)
(0.732102 -0.619779 -7.66137e-20)
(1.0121 -0.00156143 7.74133e-24)
(1.01216 -0.00150885 0)
(1.08393 0.159782 -2.36109e-21)
(1.0959 0.205455 -5.60678e-21)
(1.01164 0.00278519 -6.19124e-22)
(1.01148 0.0026257 1.58366e-22)
(1.01299 0.00370401 3.27373e-22)
(1.01303 0.00394124 -1.04716e-21)
(1.01325 0.00387888 -9.73203e-23)
(1.05116 0.145982 0)
(1.06383 0.12413 -2.47972e-24)
(0.973867 0.0180457 -2.52647e-22)
(0.967772 0.014258 2.06259e-21)
(0.970226 -0.0606337 2.70334e-21)
(0.953595 -0.0743036 2.6542e-22)
(1.09406 -0.0726135 1.27313e-21)
(1.07664 -0.0735047 -5.13021e-21)
(1.02485 -0.0156131 -3.39222e-22)
(1.02368 -0.0148997 4.58795e-24)
(1.02362 -0.0164573 5.43172e-22)
(1.01286 0.0156381 -1.19127e-21)
(1.01381 0.0126435 -9.20407e-22)
(1.0156 0.0158496 -1.63959e-21)
(1.01004 -1.9734e-05 0)
(1.01117 -0.000160626 0)
(1.01183 -0.000291839 0)
(0.99208 0.0132604 2.4505e-22)
(0.993398 0.0148709 2.55347e-22)
(1.02756 -0.0170833 3.3125e-22)
(1.02867 -0.0161058 2.44519e-22)
(1.02925 -0.0178694 3.48463e-22)
(1.03577 0.00374177 -3.75793e-23)
(1.03601 0.00312253 -6.50399e-23)
(0.953209 0.214019 -4.46467e-21)
(0.947449 0.247215 1.31031e-20)
(0.929735 0.195783 -6.5464e-21)
(0.982649 0.219404 3.89319e-22)
(0.961328 0.168126 7.55502e-22)
(1.01113 0.000150224 -1.39577e-22)
(1.01114 7.92786e-05 5.0351e-22)
(1.01231 -0.0674724 5.73345e-21)
(1.00877 -0.079804 9.74116e-22)
(1.01331 -0.00607947 4.9076e-22)
(1.01357 -0.00569473 3.98525e-23)
(1.01375 -0.00618287 -8.35756e-22)
(1.01305 -0.00632083 -1.47046e-21)
(1.01294 -0.00583272 -3.4702e-22)
(0.580856 -0.103143 -5.60943e-21)
(0.619278 -0.20268 1.03763e-20)
(0.861106 0.0191621 -1.03486e-21)
(0.839384 0.017584 8.5876e-21)
(0.855033 0.036918 6.9812e-21)
(1.01087 0.0189917 1.47402e-21)
(1.01008 0.0150844 -1.04844e-21)
(1.00959 0.00354972 -5.28561e-22)
(1.00967 0.003279 7.40597e-22)
(1.00936 0.00322319 -5.0841e-22)
(1.01197 -0.00182595 -6.84544e-22)
(1.01195 -0.0018192 9.60658e-22)
(1.01199 -0.00174742 -1.70664e-21)
(1.01274 -0.00820879 -1.13836e-21)
(1.01344 -0.00829085 -9.25898e-22)
(1.01301 -0.00902593 5.69495e-22)
(1.01203 -0.00128415 0)
(1.01198 -0.00132314 0)
(1.01203 -0.00138059 -2.65715e-22)
(1.03025 0.136471 0)
(1.03341 0.169103 0)
(1.09584 -0.184345 -1.92937e-21)
(1.05221 -0.22986 7.56954e-21)
(1.06245 -0.181294 -4.09715e-22)
(1.01253 -0.00351821 1.01381e-21)
(1.01226 -0.00384774 -1.4583e-22)
(1.01287 -0.00396673 -3.43907e-22)
(0.614269 -0.33932 1.0155e-20)
(0.590595 -0.213431 -1.35244e-20)
(1.01569 0.0090743 4.38687e-22)
(1.01556 0.00958265 1.41929e-22)
(1.01618 0.00937854 -1.8729e-22)
(0.803508 -0.153629 2.07317e-21)
(0.82762 -0.0950759 2.20449e-21)
(0.995075 -0.0217989 6.18728e-21)
(0.985544 -0.0246653 1.25835e-21)
(0.989347 -0.0141744 6.11292e-21)
(1.00947 0.000237288 8.86553e-24)
(1.00959 0.00014579 0)
(1.0097 0.000230654 0)
(0.727996 -0.505934 7.41579e-22)
(0.677266 -0.453662 1.75537e-21)
(1.00942 -0.00168053 -1.61153e-22)
(1.00979 -0.00188629 2.27131e-22)
(1.00848 0.0124249 -2.33545e-23)
(1.00907 0.0120127 0)
(1.00907 0.0128527 -7.78674e-22)
(1.01105 0.00318881 4.69109e-23)
(1.01129 0.00339755 -5.30181e-24)
(0.997041 -0.00107078 2.60932e-21)
(0.998235 -0.00267999 -7.51629e-22)
(1.02318 -0.0110774 1.31041e-22)
(1.02333 -0.0123344 -4.01796e-23)
(1.01045 0.000258355 -6.24015e-22)
(1.01024 0.000428743 9.67641e-24)
(1.0103 0.00010364 -3.89901e-23)
(0.702874 0.200467 4.4965e-21)
(0.719584 0.226123 -1.02862e-20)
(0.710158 0.259167 -7.68282e-21)
(1.01205 -0.00156727 -4.72683e-22)
(1.01206 -0.00160495 -3.20536e-21)
(1.00863 0.000335372 3.06192e-22)
(1.0093 0.000372106 1.30799e-22)
(1.00894 0.000313408 6.07707e-22)
(1.01555 0.0106053 -9.95919e-22)
(1.01552 0.0101215 -1.27501e-22)
(1.01606 0.0103829 -4.0236e-23)
(1.00413 0.0161998 0)
(1.00214 0.0152611 2.63397e-21)
(1.00267 0.0180048 0)
(1.12534 -0.0213146 -2.16154e-21)
(1.11279 -0.0332423 -7.97824e-22)
(1.00793 0.0120147 -2.46707e-23)
(1.00805 0.0129238 -1.90221e-21)
(0.880554 0.0221129 -6.07191e-21)
(0.869729 0.00283907 -6.45973e-21)
(1.03986 -0.581528 -2.92384e-20)
(1.04086 -0.4548 5.15991e-20)
(1.01201 -0.00815171 1.7486e-21)
(1.01252 -0.00753077 3.34792e-23)
(1.01905 -0.000613832 3.98535e-24)
(1.01533 -0.000696346 -9.71947e-22)
(1.01086 -0.000114728 -8.469e-22)
(1.00977 -6.73185e-05 9.57482e-23)
(1.00978 -7.79423e-05 -1.79894e-21)
(1.03811 0.0464545 -6.51317e-22)
(1.03661 0.0416768 -1.44834e-22)
(1.12631 -0.138455 7.82275e-21)
(1.12933 -0.177909 5.39181e-21)
(1.01334 -0.00529225 -1.144e-21)
(1.01545 0.00777114 -3.6397e-22)
(1.01586 0.00808277 -4.7226e-22)
(1.0159 0.00758165 2.27334e-22)
(0.701656 0.130171 9.59957e-21)
(0.700126 0.146449 1.27997e-20)
(1.01311 0.00606926 6.33943e-22)
(1.01314 0.00664683 -2.3697e-22)
(1.00939 0.0478194 3.43566e-22)
(1.00909 0.0433823 1.40441e-21)
(0.866142 -0.174873 1.63898e-21)
(0.851202 -0.161256 1.95828e-21)
(1.00833 -0.00183709 -9.33832e-22)
(1.00851 -0.00201212 3.06733e-22)
(1.0085 -0.00161838 -5.03993e-22)
(1.12733 0.0261931 4.36877e-22)
(1.14048 0.0136926 2.1786e-21)
(1.14042 0.036232 0)
(0.79924 0.118518 1.19885e-20)
(0.798701 0.145524 -3.87937e-21)
(0.988261 0.101096 9.98847e-23)
(0.979349 0.0248848 0)
(0.993138 0.0790193 -9.85654e-22)
(1.0081 -0.00203771 -4.22269e-22)
(1.01827 0.0135467 -5.71866e-23)
(1.01845 0.0128232 -3.65057e-23)
(0.976702 0.122597 -5.87459e-22)
(1.00301 0.155317 -1.71237e-21)
(1.0114 -0.000587294 -3.93835e-22)
(1.01139 -0.000511535 1.34262e-21)
(1.01136 -0.000514069 7.87578e-22)
(1.01078 0.00324752 1.24202e-22)
(1.0108 0.00296327 -4.82279e-23)
(1.01196 -0.00191277 0)
(1.01196 -0.00180092 0)
(1.02042 -0.0115808 -7.79236e-22)
(1.02094 -0.0107624 -5.68777e-23)
(1.01578 0.00856353 3.19706e-22)
(1.01521 0.00874331 4.78274e-22)
(1.01404 0.0137033 0)
(1.01351 0.0137953 -5.1334e-22)
(1.01398 0.0141994 0)
(1.01401 0.00440184 -2.60099e-22)
(1.02867 -0.0122179 3.02638e-22)
(1.02773 -0.0131379 -3.27101e-22)
(1.02739 -0.0117565 -4.49406e-23)
(0.957276 0.0421574 1.39625e-21)
(0.946553 0.0448862 -2.03756e-23)
(0.952464 0.0337329 -2.52683e-23)
(1.01611 0.0240644 3.50599e-22)
(1.01729 0.0249324 8.97798e-22)
(1.01571 0.025396 5.6028e-23)
(1.00944 0.00239583 0)
(1.00902 0.0023411 0)
(1.03444 0.0023264 -1.21879e-22)
(1.03482 0.00244213 -4.47111e-23)
(1.03468 0.0020068 -4.0355e-23)
(0.792795 -0.364558 1.82503e-21)
(0.831374 -0.406557 9.89552e-22)
(0.759794 -0.425146 8.97082e-21)
(1.01351 0.000167335 -1.93044e-22)
(1.01439 0.000133524 3.3758e-22)
(1.01396 0.000185665 5.03813e-22)
(0.830038 0.35828 -7.13302e-21)
(1.01061 0.0155817 -2.37097e-22)
(1.01093 0.0161844 0)
(1.00946 0.0038303 5.64231e-22)
(1.00981 0.00386611 -4.39838e-22)
(1.01462 0.0136024 2.20752e-22)
(1.01413 0.0132519 0)
(0.671845 -0.283601 1.91996e-20)
(0.63717 -0.242775 2.05407e-21)
(0.617411 -0.178808 2.13622e-20)
(1.01706 0.00272112 -2.46879e-22)
(1.01742 0.00286855 2.02109e-22)
(0.74974 0.186732 -7.37908e-22)
(0.725612 0.188297 -6.69614e-22)
(0.735204 0.15439 1.18269e-20)
(1.08919 0.064721 3.51422e-21)
(1.10473 0.0647125 1.46595e-21)
(1.0947 0.0813603 1.44167e-21)
(0.702778 0.451554 -6.42738e-21)
(0.705453 0.432139 -6.86836e-21)
(0.685856 0.448205 -1.34144e-20)
(1.01175 -0.000323367 -2.15864e-21)
(1.01167 -0.000343532 -1.01775e-21)
(0.813795 0.0189058 0)
(0.790083 0.0240244 9.96309e-21)
(0.816129 0.0420154 2.32751e-21)
(0.978099 -0.0482214 9.00174e-21)
(0.982483 -0.0345233 3.46225e-21)
(0.991464 -0.0455769 3.11581e-21)
(1.1101 0.0253225 7.1273e-22)
(1.10496 0.00670273 -3.35798e-21)
(1.08645 0.0215007 1.06843e-20)
(1.01417 -0.00261672 -5.84558e-23)
(1.01378 -0.0021841 7.45702e-22)
(1.0136 -0.00233773 9.87946e-22)
(0.846688 -0.0979305 0)
(0.862559 -0.0598417 0)
(1.01405 -0.00831827 -1.21201e-21)
(1.01375 -0.00768154 -2.11248e-22)
(0.859166 0.156143 0)
(0.864242 0.136268 5.82167e-22)
(0.854243 0.13893 1.77368e-21)
(1.00602 0.0172571 -8.82041e-22)
(1.00571 0.015101 9.80446e-22)
(1.01297 0.00346153 7.95091e-22)
(1.01277 0.0034869 1.55359e-21)
(1.01208 -0.0012668 0)
(1.01203 -0.00120201 0)
(1.0104 0.0526214 8.04584e-22)
(1.01431 -0.00312904 -5.48691e-23)
(1.01473 -0.00297042 -2.87479e-22)
(1.13759 0.0327574 2.81281e-22)
(1.11335 0.048091 -1.59942e-21)
(1.09237 -0.00839596 -1.04064e-20)
(1.06913 -0.00342063 9.52359e-21)
(1.0783 -0.0178458 7.95356e-22)
(1.01013 0.000199806 2.09471e-22)
(1.01097 0.000264505 -2.31187e-22)
(1.00994 0.000190019 1.99831e-22)
(1.00178 -0.00374755 2.14589e-23)
(1.00088 -0.00363973 1.94391e-22)
(1.00145 -0.00276014 -1.20719e-22)
(1.01675 -0.00323234 -7.73463e-22)
(1.01717 -0.00308964 -1.41324e-22)
(1.01749 -0.00381105 1.56225e-22)
(1.04934 -0.113844 -2.78529e-21)
(1.0294 -0.0508927 1.97297e-21)
(1.03186 -0.0656811 0)
(1.01102 0.000224448 2.34507e-22)
(1.0111 0.000190176 0)
(1.01117 0.000183007 3.96732e-23)
(0.820095 -0.00670529 -3.62342e-21)
(0.626831 0.209589 2.47639e-22)
(0.651692 0.228194 -5.29557e-21)
(0.661692 0.185776 -1.03429e-21)
(1.11342 0.0329272 2.71247e-23)
(1.11129 0.0182671 4.32453e-22)
(0.593214 0.24668 3.37516e-22)
(0.588833 0.181564 -7.44523e-22)
(1.00339 -0.0029771 5.51383e-22)
(1.01114 0.000451591 -8.70941e-23)
(1.01111 0.000427615 -6.60643e-22)
(0.962625 -0.0434536 -7.05907e-21)
(1.01088 0.000475651 -3.82618e-24)
(1.01095 0.000235091 1.73754e-22)
(1.01102 0.000368864 8.44336e-22)
(1.01276 -0.00324657 4.49309e-23)
(1.01226 -0.00316002 3.55624e-22)
(0.991759 0.00906387 -1.74108e-21)
(0.991408 0.0117016 -1.73352e-21)
(0.993931 0.010913 1.29414e-21)
(1.01112 0.00284317 -1.30556e-22)
(1.01094 0.00282214 -8.22097e-22)
(1.0105 0.00327443 2.60054e-23)
(1.01077 0.00354049 -3.11579e-22)
(1.01308 -0.00673683 1.41222e-21)
(1.01271 -0.00639592 -1.07612e-21)
(1.01618 0.0226509 8.91153e-23)
(1.0149 0.0230387 3.49383e-22)
(1.00916 -9.57871e-05 -9.77172e-22)
(1.00752 1.9176e-05 5.6312e-22)
(1.01142 -0.000671892 -8.65162e-22)
(1.01146 -0.000675687 1.24149e-21)
(0.883777 -0.180204 1.12228e-21)
(1.01318 -0.0024947 -5.03338e-22)
(1.01308 -0.00271623 -1.0244e-22)
(1.01348 -0.00269962 -1.27044e-21)
(0.707606 0.464686 -2.17525e-22)
(0.700761 0.485389 -6.18021e-21)
(1.00923 0.0114995 8.28783e-22)
(1.00974 0.0119302 0)
(0.853449 0.184942 -1.4539e-20)
(0.865342 0.175803 6.41736e-22)
(1.09429 -0.162655 0)
(1.11278 -0.170092 -7.49885e-22)
(1.13625 -0.214391 5.52187e-21)
(0.831117 0.0927358 2.01785e-21)
(0.795822 0.032439 -5.73144e-21)
(0.791525 0.0820265 1.76389e-20)
(1.03621 0.00427566 1.08567e-22)
(1.03551 0.00437011 -4.86894e-23)
(1.0354 0.0493825 -1.10298e-21)
(1.03978 0.0519512 -1.58243e-22)
(0.773125 -0.209837 -7.23793e-22)
(0.800898 -0.224508 4.03502e-21)
(0.765559 -0.247699 8.491e-21)
(1.01183 -0.000181267 4.24409e-22)
(1.01205 -0.000319305 -1.3034e-21)
(0.866906 0.14285 8.84541e-21)
(0.881288 0.0963056 1.5609e-20)
(1.00953 0.0108434 -3.00578e-22)
(1.00886 0.0107767 9.91119e-22)
(1.01564 0.011057 -2.25001e-22)
(1.01513 0.0108036 -3.76894e-22)
(1.0111 -0.000218255 -9.48027e-22)
(1.01169 -0.000273386 0)
(1.01701 0.0149414 -5.12689e-23)
(1.01656 0.014161 -1.18923e-22)
(1.00931 0.00411203 5.76576e-22)
(1.00912 0.00375893 1.95267e-21)
(0.95514 0.0294372 2.05331e-21)
(0.942182 0.0264747 1.93426e-21)
(0.946336 0.0376251 4.66282e-21)
(0.785342 -0.115815 -2.56742e-22)
(0.771268 -0.0901048 7.30858e-23)
(0.745757 -0.123509 -3.6729e-21)
(1.01061 0.000448064 -7.18645e-23)
(1.01066 0.000157868 -6.44721e-22)
(1.01326 -0.00230169 4.58183e-22)
(1.01291 -0.00230373 8.94435e-22)
(1.01312 5.67168e-05 -7.04702e-23)
(1.0123 0.000135991 -1.16552e-21)
(1.01114 -0.000453143 -3.13742e-22)
(1.01113 -0.000680565 -6.7915e-22)
(1.01095 -0.000402356 -6.05545e-22)
(0.724524 0.488568 1.02235e-20)
(0.725638 0.476587 -6.1438e-21)
(1.01116 0.000103532 1.34758e-21)
(1.01112 0.000121661 6.88981e-22)
(1.01117 0.000132631 -2.16517e-23)
(1.04054 -0.0915 -1.57975e-22)
(1.02745 -0.100383 0)
(1.0125 0.00361686 -4.25123e-23)
(1.01279 0.00376685 6.94217e-23)
(1.01271 0.0034378 6.12822e-22)
(1.01117 -0.000181613 2.13981e-23)
(1.01122 -0.000144099 5.22778e-23)
(1.01779 -0.00861115 1.35319e-22)
(1.01763 -0.00958787 4.46389e-23)
(1.00617 0.0193966 -6.45863e-22)
(0.804494 -0.143649 4.05071e-22)
(0.8244 -0.111898 -9.57345e-21)
(1.05552 -0.100319 4.29273e-21)
(1.0518 -0.081676 -1.59104e-22)
(0.965077 0.0313956 0)
(0.961307 0.0237619 0)
(1.00676 -0.000160496 -2.21039e-21)
(1.00505 -0.000104253 -1.08683e-21)
(1.00906 -0.000300268 -7.80981e-22)
(1.01339 -0.00712837 1.84435e-21)
(1.01281 -0.00717056 1.89676e-21)
(1.01311 0.0010088 0)
(1.01297 0.000995866 6.6474e-22)
(1.01307 0.00110217 6.20694e-22)
(1.03905 -0.275722 4.91167e-21)
(1.07808 -0.278295 7.97465e-21)
(1.02412 -0.00186772 3.74517e-22)
(1.02326 -0.00164235 7.7176e-22)
(1.02395 -0.00105975 -7.41382e-22)
(0.855595 -0.269504 -5.10096e-22)
(0.818928 -0.23405 1.71255e-21)
(1.01131 -0.000487133 -3.11977e-23)
(1.01116 -0.000243395 3.91347e-22)
(0.994329 0.00867691 0)
(0.993511 0.0101087 0)
(0.992876 0.00820319 -7.04394e-22)
(1.02049 0.00788666 1.44444e-22)
(1.02116 0.00822883 9.56884e-23)
(1.02059 0.00858831 2.83885e-22)
(1.01119 -0.000262572 9.34427e-24)
(1.01119 -0.000217764 -1.10538e-21)
(1.01123 -0.000291079 -2.2463e-21)
(1.00893 -1.4371e-05 5.7489e-23)
(1.00527 -0.000122607 5.79969e-22)
(0.723142 -0.349129 8.13224e-21)
(1.00905 -0.00250198 3.96978e-22)
(1.009 -0.00208915 -1.02528e-21)
(0.816046 -0.0831628 1.57173e-20)
(0.782416 -0.151606 -1.08157e-21)
(0.833182 -0.143473 0)
(0.772971 0.182164 6.89611e-23)
(0.761422 0.212076 -1.43401e-21)
(1.01987 0.00762152 4.37313e-23)
(1.02032 0.00734817 -1.8436e-22)
(1.00992 0.00015124 -6.19809e-23)
(1.00724 7.06096e-05 6.26521e-22)
(1.00691 0.000111517 -9.35036e-22)
(0.537469 0.344764 1.87618e-21)
(0.50183 0.31962 2.60469e-20)
(0.539807 0.387273 2.85178e-20)
(1.00216 0.0133619 0)
(1.0002 0.0109875 0)
(0.999034 0.0147221 1.62384e-22)
(1.01382 -0.0111467 1.84342e-22)
(1.01452 -0.0120027 1.86981e-22)
(1.01349 -0.0119336 -8.08024e-24)
(1.01976 -0.0290488 2.39619e-22)
(1.0202 -0.0197338 2.32631e-22)
(1.01441 -0.014244 -1.99619e-21)
(1.00839 0.000291309 2.82701e-22)
(1.00778 0.00027347 1.61107e-22)
(1.01163 0.015908 6.34978e-22)
(1.01155 0.0156428 -1.692e-21)
(1.01139 0.016046 -7.61871e-22)
(1.00133 0.004176 1.22454e-21)
(1.00333 0.00428123 -1.34549e-21)
(1.00205 0.0062747 -1.3453e-22)
(1.00614 0.000129573 0)
(1.00883 0.000167606 6.61052e-22)
(1.00589 0.000141687 0)
(0.724255 -0.146536 0)
(0.710244 -0.126206 2.22906e-21)
(0.726093 -0.080408 -7.90723e-21)
(1.0544 -0.121524 -4.0879e-21)
(1.02534 0.00765863 -2.80985e-22)
(1.02549 0.00873922 -4.4444e-22)
(1.02445 0.00841259 -2.53895e-22)
(1.02705 -0.0607926 0)
(1.01661 -0.0587052 8.84377e-22)
(1.02417 -0.0523812 -3.69801e-23)
(1.01294 -0.00293938 1.0903e-21)
(1.01328 -0.0032503 -2.98022e-22)
(1.01313 0.000913697 0)
(1.01326 0.00102256 0)
(1.01605 -0.00277516 -5.03817e-22)
(1.01642 -0.0035664 -8.40939e-22)
(1.01504 0.00975392 2.07275e-22)
(1.12041 -0.0123851 -1.24176e-20)
(1.03407 0.00213309 4.39962e-23)
(1.03421 0.00257359 4.857e-23)
(1.07644 -0.149379 -2.66202e-21)
(1.06166 -0.11036 -5.9859e-22)
(1.00423 0.0151455 0)
(1.00386 0.0115782 0)
(0.686486 0.0228648 1.66651e-21)
(0.695965 0.0732418 -2.23281e-21)
(1.02507 -0.00216738 1.97376e-22)
(1.0261 -0.00243131 -7.89435e-22)
(1.02601 -0.00140342 -1.67209e-21)
(1.03153 0.0472604 1.27817e-23)
(1.03167 0.052092 5.76224e-22)
(1.02929 -0.0700561 1.32813e-22)
(1.03725 -0.0605208 4.27509e-23)
(0.746116 -0.166639 -1.00998e-21)
(0.722898 -0.20416 0)
(1.0086 0.00011283 0)
(1.00976 0.000210882 0)
(1.01194 -0.00137591 1.51078e-22)
(1.01195 -0.00146299 1.37577e-22)
(1.01191 -0.00141502 -1.21747e-22)
(1.01144 0.000965403 3.16526e-22)
(1.01143 0.000863945 -1.04042e-21)
(1.02607 0.00691873 -6.12499e-22)
(1.02488 0.00672352 6.11129e-22)
(1.00072 0.00218728 7.36275e-22)
(0.999313 0.00418858 1.29544e-21)
(1.01922 -0.0412484 0)
(1.02569 -0.0469989 2.66494e-22)
(1.01713 -0.00833251 -5.36502e-23)
(1.01786 -0.00799431 1.62656e-22)
(0.960928 0.050226 -5.57947e-21)
(0.965615 0.0413259 -4.8274e-21)
(0.846791 0.194788 1.54925e-21)
(0.851414 0.18774 0)
(0.848121 0.200513 2.72862e-21)
(1.02615 -0.0163567 4.67848e-23)
(1.02584 -0.0147679 -6.82459e-22)
(1.00792 -0.000399298 0)
(1.008 -0.000384709 -2.28388e-22)
(1.00565 -0.000185626 -5.29e-22)
(0.822411 -0.316366 -4.59471e-21)
(0.892849 -0.299625 -3.80144e-21)
(0.995086 0.00759619 -6.0212e-22)
(0.995564 0.00912751 0)
(0.99836 0.00528259 0)
(1.00006 0.0071807 0)
(0.99735 0.00749659 -2.37887e-22)
(0.935549 0.0480995 0)
(0.928597 0.0395188 -1.3857e-23)
(0.923108 0.0534858 0)
(1.01023 0.000187567 6.63367e-22)
(1.00834 0.000147026 0)
(1.04325 0.0392268 -1.47363e-21)
(1.03822 0.0374934 3.71096e-22)
(1.04176 0.0340528 -8.91564e-22)
(1.01196 -0.00199777 0)
(1.01193 -0.00202141 0)
(1.01266 -0.00269576 3.69424e-22)
(1.0118 0.0158207 1.53689e-21)
(1.01188 0.0159798 6.6221e-22)
(1.01447 -0.00903051 -1.56961e-21)
(1.01473 -0.00833716 1.32024e-22)
(1.01209 0.00219955 -5.82853e-22)
(1.0121 0.00208558 6.58026e-22)
(1.01221 0.00227929 -5.6104e-22)
(1.00437 0.0011506 2.44706e-22)
(1.00339 0.00355976 4.04272e-22)
(1.01103 0.000582874 6.14024e-22)
(1.00999 0.000420061 -5.24766e-22)
(1.01086 0.000595416 -5.02586e-22)
(0.854304 0.173133 0)
(0.861994 0.170322 1.77321e-21)
(1.02009 -0.0141111 -1.69608e-22)
(1.02581 -0.0256284 1.20073e-21)
(0.800694 -0.574128 -3.18178e-20)
(0.769933 -0.545424 -1.6415e-20)
(0.772728 -0.626822 1.47021e-20)
(0.999045 0.00366416 0)
(0.996974 0.00313331 0)
(1.00914 0.00441627 -4.13524e-22)
(1.00951 0.00445243 -1.01168e-21)
(0.704086 0.0648569 -4.30424e-21)
(0.718847 0.112793 -2.65616e-21)
(1.00253 -0.01816 5.36292e-21)
(1.00337 -0.0289937 4.66785e-23)
(1.01101 0.0150458 1.95716e-21)
(1.01146 0.0152637 1.45716e-21)
(1.01168 0.0145667 1.17887e-21)
(1.03667 0.00486446 3.76025e-23)
(1.03693 0.00408355 3.02825e-23)
(1.06184 0.0287401 0)
(1.05531 0.0295852 -2.08659e-22)
(1.05661 0.0235946 0)
(1.00737 -1.68353e-05 8.9439e-22)
(1.00974 -5.66491e-05 8.95871e-22)
(1.00975 -4.19088e-05 -2.76981e-23)
(1.01022 0.00329469 -4.66991e-22)
(1.01027 0.00301496 -2.18819e-22)
(1.02128 -0.00218931 2.70511e-22)
(1.0207 -0.001914 -7.81471e-22)
(1.02124 -0.00157582 -8.01597e-22)
(1.01143 -0.00016331 -9.23693e-22)
(1.01162 -0.00020673 -6.80377e-23)
(1.01138 -0.000148984 6.05609e-23)
(1.00347 -0.00550402 -9.94876e-22)
(1.00328 -0.00401398 -9.76813e-22)
(1.00455 -0.00435692 -1.62453e-21)
(1.01815 0.00523923 1.16276e-22)
(1.0184 0.00499435 -1.88624e-22)
(1.01864 0.00542084 2.98362e-22)
(1.11133 -0.0688763 -7.31321e-22)
(1.12021 -0.0832345 0)
(1.00396 -0.00686953 -2.25224e-22)
(1.00239 -0.0066624 0)
(1.00133 -0.00648986 -3.78175e-22)
(1.00174 -0.00699032 7.8472e-22)
(1.00105 -0.00743788 1.2088e-22)
(0.619787 -0.0432436 6.74994e-21)
(0.579234 0.0167646 2.95241e-21)
(1.04876 0.0407919 -7.34838e-22)
(1.04407 0.0457891 -7.49593e-22)
(1.01073 0.000581948 3.78241e-22)
(1.01085 0.000694518 -1.69037e-22)
(1.00482 -4.10931e-06 5.97673e-22)
(0.694576 0.0507088 -3.1525e-21)
(0.672614 0.0185104 -4.70029e-22)
(0.716922 0.0160279 -5.08575e-21)
(1.00594 -0.000166072 4.88171e-22)
(1.00326 -3.35721e-05 0)
(1.00331 -0.000112707 0)
(1.01173 0.00229723 0)
(1.0118 0.00254525 -5.82672e-22)
(1.01144 0.000252823 2.15826e-22)
(1.01048 0.000350322 9.7763e-22)
(1.01511 0.00744106 -1.03332e-22)
(1.015 0.00793001 -5.85969e-22)
(0.863389 0.22738 1.23897e-20)
(0.84781 0.221936 -2.30802e-21)
(0.846311 0.219108 -2.16904e-21)
(0.715884 0.0181598 2.46696e-21)
(0.70474 0.015239 4.81437e-21)
(1.0163 0.00834524 1.67912e-22)
(1.01153 -0.000225014 -2.84763e-22)
(1.01149 -0.000177953 9.91702e-22)
(1.01159 -0.000239947 3.8927e-22)
(1.00454 -0.00814558 -1.84824e-21)
(1.00532 -0.00940724 1.99236e-21)
(1.00379 -0.00955589 -1.52169e-21)
(1.0053 -0.0068878 -1.13515e-21)
(0.55809 -0.032184 -1.17295e-20)
(0.579126 -0.0703996 2.53531e-20)
(0.545479 0.0596798 2.54815e-20)
(1.0353 0.00234634 0)
(1.00436 5.93911e-06 0)
(1.00431 6.3952e-07 0)
(1.02424 -0.0027219 1.20401e-21)
(1.02271 0.00036551 0)
(1.02704 0.000408169 -1.11449e-23)
(1.00175 0.0616114 2.94756e-22)
(0.993126 0.0610467 -1.99133e-22)
(1.02702 -0.00513849 1.14148e-22)
(1.02597 -0.00452416 3.19551e-22)
(1.02589 -0.00564457 8.21581e-22)
(0.992797 0.0114956 0)
(0.99437 0.0117147 1.42847e-22)
(1.20863 -0.199335 4.24584e-21)
(1.21304 -0.165368 7.86923e-21)
(1.23655 -0.186308 -1.62525e-20)
(0.856134 -0.189132 -2.42304e-21)
(0.880406 -0.177597 -2.58308e-21)
(0.872169 -0.201389 1.1212e-20)