/*--------------------------------*- C++ -*----------------------------------*\
| =========                 |                                                 |
| \\      /  F ield         | OpenFOAM: The Open Source CFD Toolbox           |
|  \\    /   O peration     | Version:  v2012                                 |
|   \\  /    A nd           | Website:  www.openfoam.com                      |
|    \\/     M anipulation  |                                                 |
\*---------------------------------------------------------------------------*/
FoamFile
{
    version     2.0;
    format      ascii;
    class       surfaceScalarField;
    location    "850";
    object      meshPhi;
}
// * * * * * * * * * * * * * * * * * * * * * * * * * * * * * * * * * * * * * //

dimensions      [0 3 -1 0 0 0 0];
oriented        oriented;


internalField   nonuniform List<scalar> 
14516
(
0.00360749
0.0107826
-0.014395
4.34277e-06
0.000168379
-0.000166968
-0.0121683
0.0157704
-0.00598467
0.00815337
-0.00137706
-0.0204974
0.0142953
0.00616023
0.0206545
-0.00257283
-0.0179195
-0.00178553
0.000152965
0.00232998
0.0130941
-0.0115331
-0.00115711
-0.0166995
-0.00165178
0.0184775
-0.00854109
-0.0119975
-0.0117049
0.0145758
-0.00289474
-0.0174584
0.00129467
0.0161841
-0.00603707
0.000993877
0.000173426
0.00267729
-0.00279408
0.000488011
0.000340436
0.00259061
5.56224e-05
-0.00258084
0.0118749
-0.00403121
-0.00770978
0.00411325
0.0079133
-0.0189236
0.00188992
0.0170297
0.0028224
0.00155194
0.0176221
-0.0191533
-0.00192572
0.0160475
-0.0140806
-0.00732436
0.00249292
0.00486621
5.5414e-05
-5.5414e-05
-0.0185069
0.00250498
0.0162008
-0.00386692
-0.0011746
-0.00239077
-2.06141e-05
0.00247185
0.000268111
0.00854067
-0.00866037
0.0176575
-0.0059013
-0.0117657
-0.0178977
0.00133504
-0.0177072
0.0211307
-0.00334906
-0.00141999
-0.00583369
-0.0129119
0.00272014
0.0102229
0.00029105
0.000279615
-0.000377353
-0.00652122
0.0200755
-0.0135619
-0.0201826
0.00223917
0.0179443
-2.53328e-05
-0.00117689
0.0145056
-0.016388
-0.015232
0.01168
0.00391429
0.000300654
-0.00150836
0.00151646
-0.022696
0.00507914
0.00165341
-0.000344828
-0.00240239
0.00412124
-0.000765227
0.000210108
-0.00180378
0.00227202
-0.00243313
0.00121612
0.00103286
0.0111287
-0.00042028
0.00448944
-0.00403111
0.00267668
0.0176343
-0.0202895
0.00221008
0.00665689
0.00923481
0.010837
-0.000226513
0.0118776
-0.0116723
-0.0206531
0.00496213
0.0158082
0.0203363
-0.0209851
0.000813237
-0.00174308
0.0108931
-0.00915203
-0.0193648
0.0199582
-0.000593086
0.0138454
-0.0146083
0.0129144
-0.00329773
-0.0096334
-0.01777
-0.000627645
0.0184157
-0.0100602
-0.00488664
-2.70174e-05
-0.000772514
0.00109214
-0.0194931
0.003113
0.0164875
-0.0167457
0.0191082
-0.00234192
-0.00235116
0.00581768
-0.00209087
-0.0111562
-0.00595815
0.00158854
0.0117229
-0.0132727
-0.0209394
0.00422534
0.0181931
-0.0202599
0.00209368
-0.00235511
-0.0150763
0.000939524
-0.012669
0.0109675
-0.0127124
-1.70158e-05
9.307e-14
1.89688e-05
-0.0189327
0.0034623
0.0157933
0.000305272
-0.000260806
-4.15658e-05
-0.00423542
0.0134705
0.000385865
-0.0181349
0.00195598
0.0147002
-0.0163358
-0.000140689
8.32334e-09
0.000142412
0.0111474
-0.00271744
-0.0083088
0.0132011
-0.00410483
-0.00891908
0.0109544
-0.00932906
0.0127104
-0.00293775
-0.00961056
-0.000189831
-1.66408e-06
0.000192887
5.64431e-05
0.00460417
-0.00459841
-0.0208888
-0.00170972
-0.000331448
0.00441899
-0.00404304
0.00930393
0.00405937
-3.59927e-05
0.0157836
-0.0154595
0.0176255
-0.0182813
0.00080562
-0.0139372
0.00317876
0.0109376
0.00024578
-0.000236293
0.00148831
0.0127611
-0.0142645
-0.0047509
0.00387217
0.000978663
-0.00726783
0.00591214
-0.00175951
0.0048054
-0.00468695
-0.0197926
0.000423241
-0.000173174
-1.14076e-05
-0.00135943
-0.00328783
-0.000679474
0.003029
-0.0022499
0.0025459
-0.00311507
-0.0139586
0.00254114
0.0116218
-0.00592406
0.00125361
0.00482431
-0.00450382
-0.00126305
-0.000126247
-7.1054e-06
-0.0223233
0.00152881
-0.0210761
0.00291484
-0.0011913
2.08155e-05
0.00161774
-0.0171391
-0.00336661
0.000748699
0.00341586
-0.00414317
-7.146e-08
-1.18863e-05
-0.000717401
-0.0182446
0.0189752
-0.0186365
0.0154912
0.00456643
-0.0227325
0.0181524
-0.0115575
0.0113104
0.0161129
-0.00182056
0.0112946
-0.00943057
0.00911283
-0.0133487
0.00223533
0.0106406
-0.00601852
-0.00116493
-0.0029753
0.00374286
9.26103e-06
-1.96806e-06
-2.37283e-06
-0.0159172
0.0168734
-0.000529396
0.000716903
0.0200705
0.000816449
0.0151745
-0.0159113
0.0191038
-0.0175316
0.0121389
-0.00287918
-0.00927508
-0.00447856
0.00419116
0.00179328
0.00948322
0.0196872
-0.00484839
-0.0144248
-4.43069e-06
-2.0809e-05
3.81877e-05
0.0149366
0.009785
0.0102033
0.00141677
0.0124895
-0.0137339
-0.0140212
-0.00372637
-0.000666301
0.0163445
-0.0154026
-0.00274215
0.00171564
-0.00160756
0.00247902
-0.00190303
-0.0160969
-0.000542747
0.000596539
8.61894e-06
-9.47328e-05
-0.015426
-0.0189244
0.00185619
0.0172664
-0.000194591
0.00424905
-0.00328789
0.00063125
-0.00278931
0.00223554
0.00284283
-0.000111287
-0.000213183
-0.00277024
0.00303879
-2.85835e-06
-4.64441e-05
5.44577e-05
-0.00270864
0.00343102
-0.00585508
0.00167147
0.00430966
-0.0112226
0.0126966
-0.012822
-0.00295462
0.0157534
4.57129e-05
-3.63261e-05
-0.0166226
0.00377339
0.00632101
-0.0148987
-0.00156928
-0.00415081
7.50374e-06
5.21914e-06
2.38055e-05
-0.000219629
0.00025746
-0.00256593
-0.0161651
0.000726096
-0.00331783
0.00343205
-0.00297587
0.00969827
0.00374115
-0.00729378
0.00769514
-0.000165258
-0.00216355
0.00238644
0.00362512
-0.0222091
0.0185778
0.000229406
-7.27397e-05
-0.000154738
0.0209903
-0.00334279
0.00403481
0.0176983
-0.0162452
-0.00142771
-0.00250333
0.000166894
-0.00218056
0.0136831
-0.011309
0.0244036
-0.00700195
-0.0171255
-0.00816171
0.016149
-0.00799358
0.00016601
7.1631e-05
0.00637193
-0.0145144
0.00168683
0.0135207
-0.0151276
-0.0153041
0.0153871
0.000117282
-9.26862e-05
-1.7249e-05
-0.00320748
0.015379
-0.011852
-0.0187705
0.00861354
0.0101691
-0.0114245
0.0086056
0.00281655
0.0163434
-0.0151839
-0.00113107
0.00338294
-0.0164635
-0.0176934
-0.000374605
0.018082
-0.0185399
-1.1691e-05
0.00284421
0.010051
0.0113436
-0.0142441
0.000387375
-0.0163935
0.0164183
0.00223892
-0.00234828
0.0157304
-0.0139591
-0.0107943
0.0001634
0.0112421
-0.0178777
0.0205759
0.0179231
-0.0186271
-0.00273251
-0.00456495
-0.0141936
0.0219192
-0.00549056
-0.016429
0.00121662
0.0109398
-0.0119771
0.0163445
-0.0100607
-3.84439e-05
-0.000451883
-0.0165594
0.0026636
0.00688977
0.0128014
-0.0196934
3.36507e-05
0.0199217
0.0167667
-0.0127217
-0.00367391
0.00114052
0.0154555
-0.000121119
-2.2497e-06
0.000816155
-9.36016e-05
-0.00245003
0.00260609
-0.0201015
-0.00213473
0.0157853
0.000377357
-0.0161178
-0.000807955
-0.0125199
0.0133344
0.00129233
-0.0191446
-0.00199976
0.0196621
0.0151326
0.00530323
0.00982045
0.0121011
-0.000186817
0.000273856
0.00171859
0.0116041
-0.0131477
0.0010385
-0.0187194
-0.000125413
7.91654e-06
-0.0191052
0.0180893
0.00102908
0.00090687
-0.0142884
0.0133858
0.00656046
0.0128205
-0.0190169
0.014409
-3.80909e-05
-0.00993828
0.000181506
0.00447065
-0.0153261
0.0185867
-0.0209919
0.00548176
-0.003972
-0.00137853
-0.0117216
0.0126319
-0.00125148
0.0120379
-0.010805
2.78414e-05
3.22844e-05
-1.97898e-05
-3.31885e-05
0.00422542
0.0121424
-0.000221036
0.000469307
-0.000190278
0.012914
-0.00248743
-0.010441
-0.0174643
-0.00162971
0.0153066
-0.0146075
-0.000155182
-0.0177629
0.0176273
0.000425218
-0.000615319
-0.0191739
-0.00308392
-0.0104252
0.0137211
-0.0216264
0.00160884
-0.000165791
0.00280485
-0.00258019
-0.00010669
-0.0160734
0.0164653
-0.0118714
-0.00101226
0.0167595
3.43865e-05
-0.0165002
0.00525305
-0.00346829
-2.63504e-05
-0.011093
-0.0191537
0.0167961
0.00400863
0.000695876
-0.000243202
-0.00214446
-0.0132763
0.0155308
0.0172701
-0.00200494
-0.0152424
0.00101589
-0.0125895
-0.00190372
0.0119251
-0.0100366
0.0150235
-0.0162191
0.00153187
0.000760887
-0.0169962
0.0162885
0.022374
-0.0185345
-0.00355763
0.00477869
0.0125166
0.0013509
0.0180387
-0.0192203
0.000454615
0.0024769
-0.0028649
-0.00308332
-0.000997336
0.00408921
-0.000720687
0.012119
-0.0111188
-0.000284699
0.000368576
1.91117e-05
0.00396819
0.0137547
-7.7806e-05
8.87553e-05
-9.44687e-06
1.12477e-05
-8.81352e-05
0.0117664
-0.0125681
-0.00653897
0.0193346
0.0175062
0.00376756
-0.0210721
0.00241873
-0.00191045
0.000237031
0.00182201
-0.00199094
0.020898
-0.00571429
-0.0151526
0.0022683
0.0146519
-0.0166038
-0.000158058
-0.00010635
0.000266238
6.60724e-05
-0.000222504
0.012234
-0.000821022
0.0187525
0.000324197
-0.00485923
0.00551479
0.0102183
-0.00146522
-0.0174778
3.72555e-05
-0.000115967
8.18648e-05
0.000956438
-0.00110566
0.000669407
0.00170561
-0.00111203
-0.00805449
0.0149011
0.0143085
-0.0163338
0.0209821
-0.00885328
-0.0121037
-0.000138123
-0.00280596
0.00362814
-0.0151311
0.0165222
0.013932
0.00811022
-0.00989786
-0.00267915
0.0204204
-0.0175518
-0.00123306
5.89901e-05
-4.24589e-05
3.80209e-06
-0.0119261
0.0135135
-0.00111598
0.0169749
-0.0157856
0.00984635
0.011158
-0.00641731
0.00752713
-0.000256217
0.0126112
0.00631359
-0.0189369
0.00402985
0.00631039
0.00777817
-0.0141203
-0.0100052
-0.000730835
0.010713
-0.000955978
0.000172515
-0.00160806
7.21491e-05
0.00212243
-0.00086915
-0.00175996
0.00268432
0.00678669
0.0141392
0.00942819
0.00527904
-0.014687
0.0155917
-0.0151883
-0.000226362
-0.00509929
0.0113899
7.79405e-05
-0.00308517
0.00419804
0.00176444
-0.00257879
-0.00473259
0.0141814
-0.0178831
0.000860789
0.0171412
0.0198869
-0.0159195
-0.00383411
-0.0116577
-0.00206461
-0.00424905
-0.0171729
0.0159215
0.00151574
0.0189112
-0.0161401
-0.00274306
0.0175057
-0.00168088
-0.015177
0.0143226
0.00113007
0.00023329
0.0229379
-0.0103073
-0.0126357
7.04682e-06
-0.000264172
-7.12969e-05
-5.03635e-05
-0.00446559
-0.00696019
-0.00170526
0.0175276
-0.0157578
0.0175508
-0.0181608
-0.0030263
0.0121421
0.00193048
-0.00214805
0.000277812
-0.0133383
0.011606
-0.0147429
-0.0123702
-0.00138491
-0.0198187
-0.00171444
-0.00196189
-0.00705781
0.00900415
0.0116773
-0.0096397
-0.0016675
-0.00262906
0.00265478
-0.0114369
-0.00495974
0.000285642
0.000369173
-0.000511757
0.00971767
-0.0010084
0.0195348
-0.0120067
-0.00753153
-0.00479657
0.0164371
-0.0139727
-0.000908727
-0.00742733
0.0104899
-0.0133687
0.0024085
-0.00229115
2.01665e-05
-0.0157802
0.018223
-0.00238741
0.0120915
0.0140456
0.0162711
-0.000535689
-0.0156521
-0.0133789
0.0171543
-0.003546
-0.0182693
0.0182442
0.00017382
0.0132264
0.0176729
-0.00365943
-0.0140044
-0.00464668
-0.0161729
0.0182353
-0.0192084
0.00101612
0.00010017
0.01635
-0.0070664
-0.00928822
-0.0013372
0.0122976
0.0120105
-0.0091831
0.00764207
0.0087014
-0.018685
0.0029833
0.0105367
-0.0141164
0.0037643
-0.00677355
0.0165928
-0.000655636
0.000867535
0.00127284
-0.00434485
-0.0133816
0.00192145
-0.000309716
0.000143086
0.00076957
-0.0108034
-0.021115
0.00139884
0.0107323
0.0122003
-0.01602
0.0028665
0.00326169
0.00964009
-0.0128671
0.0151075
-0.000829369
0.0175523
-0.0165773
0.015523
0.00100735
-0.0161734
0.0108574
0.0146711
-0.00193791
-0.0127209
-0.000152264
-0.0145746
0.015383
0.0203271
-0.00374187
-0.0164455
-0.000958495
-0.0174568
0.000884845
-0.00643577
-0.00197245
0.0179799
-0.0159537
0.000146244
0.00011922
-0.000169521
-0.00116101
-8.63428e-05
0.00244584
0.0158445
0.00200505
-0.0165319
0.00743155
0.0102604
-0.00968449
0.0156013
-0.00585127
-0.000773521
-0.0108919
-0.000166775
-0.0047957
0.00499639
-0.0170817
-0.0116339
0.0103648
0.000141802
-0.000130775
-1.20128e-05
-5.93211e-05
-0.001127
0.00143531
-0.0146022
0.00329754
0.0136455
-0.0143094
0.000665098
0.00457115
-0.00470464
-0.00276651
0.00265778
0.00200327
-0.014581
0.0126171
0.009553
0.00771595
-0.0172938
-0.00169466
0.002
0.0200382
-0.0154869
0.0178138
0.00010393
0.0165565
0.000179285
-0.00180553
-0.0130153
-0.000672435
0.0136919
0.00888595
-0.0134339
0.00392077
0.0107641
0.018292
0.00244156
0.00534802
-0.00281803
-0.00127427
-0.0148735
0.0162962
0.0152258
0.0158173
-0.0169388
-0.00231887
-0.010853
-0.00343295
0.00281332
-0.00297377
0.0158415
-0.0184115
0.00257424
-0.00392264
0.0051119
0.00653573
0.0134756
0.00989529
0.019357
-0.0175975
-0.00162068
0.0191492
-0.0176314
0.0153316
-0.00229486
0.00019016
-0.00371885
0.0123439
-0.00227685
0.00496388
-0.00193123
0.0220058
-0.0153243
0.00140791
0.000123405
-0.00147641
0.00333781
-0.00682863
0.0035347
0.000124857
-0.00318296
0.00655759
0.0109092
-0.0129092
-0.00106524
0.0185728
-0.0174741
-0.000165037
-0.00167293
0.00152717
0.00106705
-0.00124518
0.000819408
0.00502486
-0.0146419
0.0178245
-0.0174178
-0.0106643
0.0120626
-0.0132278
0.0118835
-0.000202948
0.0142794
0.0103237
0.0156071
0.0219239
-0.0124055
0.0148761
0.00630558
-0.0133975
0.00140103
0.0119953
0.0188093
-0.0174915
0.0236875
-0.0163508
0.00880567
0.00813265
-0.0110777
0.019271
-0.00815795
0.0110365
-0.0147424
0.000526587
-0.0135301
-4.58661e-07
0.00808578
-0.00939185
0.00134195
-0.00271302
0.00387171
-0.0162291
0.0147725
0.00161804
0.0129764
-0.00972766
0.0182279
-0.000938949
-0.00921886
0.0125539
-0.0159805
0.0167807
0.00645422
-0.0050275
-0.000679374
0.000187687
-4.32398e-05
-0.0187062
0.0187426
0.0158875
-0.0119539
0.0185046
-0.017454
0.00490516
0.00170365
0.0208582
-0.0140426
1.66316e-06
-8.9889e-05
0.000775638
-0.000304101
1.60469e-05
-9.64809e-05
0.000117859
-0.0120097
-0.0195426
0.00849723
0.0127961
-0.00149408
-0.0145659
-0.000162791
-0.00152357
0.00175086
0.00474963
0.00217751
-0.00197449
0.0187147
-0.0165965
-0.00453147
0.00157237
0.00324571
-0.00274999
-0.00698758
-0.00869498
0.0101685
-0.010922
-0.019059
-0.0019234
0.0147171
0.0157178
0.00340995
0.0177772
-0.00011694
0.000352311
4.56801e-05
-0.000231389
0.0156075
0.00241577
0.0173235
0.0109657
0.0111678
-0.00223475
0.00172221
0.00164527
-0.00322182
0.00360078
0.000667523
0.0125463
-0.00140704
0.0155988
0.0164533
-0.00111332
-4.64441e-05
0.00101308
0.0110902
-0.000239211
5.79035e-05
0.00023542
0.0174635
-0.0208524
0.0109622
0.00990924
0.00102243
-0.00381125
0.00288393
0.0190112
-0.0214909
0.00976414
-0.0123455
-0.0191246
0.000896427
0.0143041
-3.17305e-05
-0.016734
0.0167586
-0.000304723
-0.01588
0.0160499
0.0107551
0.00126588
-0.0156763
-0.000308997
0.01472
-0.0122714
-0.00244794
0.0104092
-0.00966762
0.0132254
-0.00271786
0.00383926
-0.011088
-0.0204635
0.00155098
-0.00672659
-0.00142535
0.00834232
-0.0164143
-0.000480768
0.0170855
0.00983746
-0.00912151
-0.0161017
0.00665959
0.00970179
-0.0078734
0.00133151
-0.00838819
0.00264926
0.00646417
-0.00340597
-0.012354
-0.000103539
0.00942415
-0.00864464
-0.0121867
0.00345294
-0.0162286
2.05422e-06
-0.016333
0.0155255
0.00109323
0.0171551
-0.0177546
0.000757719
4.02096e-06
6.99923e-05
-0.00459028
-0.0029986
0.0182972
0.00158379
-0.0198493
0.0100928
0.00189688
-0.000174932
0.0020664
-0.0136738
0.0141747
-0.000369926
-0.000677001
0.0143217
-0.0186079
0.018259
0.000550497
0.000551833
0.00355437
-0.00406145
-0.00304274
0.0213224
6.62809e-05
0.00750241
0.017543
0.0153746
0.0107989
-0.00985735
-9.73215e-05
0.000137025
-0.022702
0.00733608
-0.0161633
0.0172727
0.00133619
-0.0186119
-0.00263435
0.000690291
0.00482245
-0.00874746
-0.00037035
3.45061e-05
0.000340958
0.0148451
-0.00417012
-0.00213192
0.0178794
-0.000969028
0.0119284
-0.00212426
-0.0123149
0.014411
0.00625259
0.00846638
-0.0165123
0.0164735
0.0142529
-0.0137138
0.00127054
-0.00028316
0.0123723
-0.0111197
-0.00125053
-0.014692
0.00114557
0.00419344
-0.000207645
-0.00397919
0.0176687
-0.0158134
-0.00171529
-0.017121
-0.00138776
0.018542
-0.000163278
0.00130998
-0.00110739
0.00348985
-0.00410694
0.00064526
-0.00052394
0.00190921
0.00124547
-0.00172029
0.0108542
-0.00194807
-0.00890914
0.000136985
-0.00136784
0.00127619
-0.000389778
0.000467684
1.23158e-05
0.0138661
-0.013553
-0.000273705
0.0100591
0.00734497
-0.0173656
0.0113338
0.0144792
-0.0107711
0.0156592
-0.000229054
-0.0150266
-0.0172652
-0.00114897
-0.0179922
0.000930197
-0.0143211
0.0162081
-0.00914411
0.00535547
0.00434429
0.00948023
-0.00136922
-0.0210512
0.012907
0.00811966
-0.00629912
-0.00105048
0.00144946
0.0118728
0.00900849
-0.0126701
0.014714
-0.0156746
0.0166945
0.00242196
-0.0189764
0.0165771
-0.0172636
-0.00782887
0.015188
0.0176179
-0.0130309
0.0162293
-0.00613744
0.00650544
-0.00690399
0.000627378
0.0121594
-0.0169494
-0.00164651
0.0184717
-0.0136682
-0.0173335
-0.000422294
0.0109255
0.00732188
-0.0181756
0.00250595
0.0156853
0.00159594
-0.0154902
0.0140892
0.0181899
-0.00234836
-0.0123056
0.014592
-0.0022734
-0.00129318
0.00198549
-0.000123208
0.0161883
5.1171e-05
0.00938271
-0.00915606
0.012325
0.00114448
-0.0132767
-0.00158679
0.0141159
-0.015564
0.00314534
0.00225726
-0.00532621
2.72155e-05
-2.72155e-05
-0.00138678
0.0059678
-0.00274108
0.00173438
0.00778624
-0.00878884
-0.017846
-0.000197822
0.0181066
-0.000641255
9.86051e-05
0.000590615
0.013681
-0.0124227
0.000452697
-0.0004608
0.000227025
0.0157531
0.000714989
-0.0184883
0.00829287
0.0093403
0.00207427
0.0103038
-0.00116648
9.54232e-05
-0.0140026
-0.0018425
0.0161444
0.0155092
-0.0152391
0.00796324
-0.00684842
-0.000877996
0.0010921
0.000128868
-0.00119204
-9.14648e-07
-0.000190937
-0.000131027
0.00125404
-0.0146868
0.0010002
-0.0107099
0.0124578
-0.00117561
0.00135871
0.0119889
-0.0128662
0.000876267
0.00123181
-0.00106775
0.00159606
0.000652523
0.0153935
-0.0145227
-0.000599416
0.00152463
-0.0186021
0.011937
-0.00286603
-0.00853724
0.00176008
-0.00151464
-0.0130339
0.0101219
-0.00021395
0.000121613
-0.0199961
0.0164226
0.00372612
0.00294188
0.00790651
-0.0117575
0.0144166
-0.00210937
0.00161856
0.00147757
0.000136361
-8.33076e-05
0.0052533
-0.0085622
-0.00890143
0.00921932
0.002991
0.00997028
-0.0133059
-0.000865623
-0.00922825
0.00980878
0.00265388
-0.0124107
-0.0167057
-0.00312816
-0.0108914
-0.00373187
0.0149006
0.00841236
-0.00943941
0.00106874
-0.00166372
0.0067662
-0.00502209
0.00163639
-0.000164378
0.000141713
1.27731e-06
0.017218
-0.0137994
0.0131034
0.000690545
0.000223975
0.0006356
0.00918559
0.00478662
-0.0146718
0.0181025
-0.00762478
0.0101526
0.000830217
-0.013493
0.0127222
-0.00432903
0.000347665
0.00403237
0.0125436
-0.0115467
-0.015363
0.00168751
0.0204069
-0.00888245
-0.0114882
-0.0182406
0.00139143
-0.0124943
-0.00413047
0.000996973
-0.00450687
0.000230438
0.0107174
-0.0111032
0.000390598
-0.00115365
-0.0132416
-0.00226172
-0.0100608
-0.00848462
0.00923643
-0.000752461
0.0163638
-0.0150021
-0.00343447
0.00403151
0.00386043
-0.00545951
0.00944396
0.000702013
-0.0101501
0.000418453
-0.00380765
-0.00985488
0.0107437
-0.00086213
-0.000255648
0.00321388
-0.00293952
0.00331344
0.00689677
-0.0100819
-0.015794
0.0167882
-0.000938672
-0.00722995
0.0149846
0.0109173
0.00161667
0.00127644
0.00905375
-0.00961069
0.000535873
-0.000680434
0.000485386
-0.00211475
0.00985299
-0.00762494
-0.000113696
-0.00120451
0.00121329
0.00141059
-0.00123444
0.00899856
-0.00101057
-0.00796016
-0.0133628
4.72943e-05
-0.0050078
0.000533388
0.00451621
-0.000154316
0.0174577
8.77841e-05
-0.0134902
-0.000530151
0.0134885
-0.0129346
0.000331407
-0.0161538
-0.0187753
0.00131267
0.00125888
-0.0169782
0.000345636
0.00934564
-0.00970339
0.00134733
-6.82131e-05
-0.000139046
0.00049403
-0.00429343
0.00380287
0.0170982
0.00123144
-0.0181144
0.00377099
-0.0162769
0.0015317
0.00298305
-0.0039343
-0.00331415
0.000421589
0.0029025
0.00706978
-0.00531568
-0.00161425
0.00364743
0.000861738
0.00436165
-0.00386279
-0.00538946
0.00880644
0.000255942
-0.0108301
4.51735e-05
-0.0040235
0.0135705
0.000337156
0.00650071
-0.0135696
-0.00143329
0.0185347
-0.0171195
0.0170508
-0.0185017
-0.000144246
0.00113187
-0.000960527
0.00105783
0.00615986
0.00166154
-0.0233551
0.0159088
-4.20812e-05
-0.0021983
0.0224563
-0.010388
-0.0119903
-0.000527099
0.00413313
0.000173376
0.0128902
0.000456772
-0.0128645
-0.00146289
-0.0106723
0.0115527
-0.00126477
-0.0168945
0.0182792
-0.0182621
0.0166594
0.00179635
0.000829205
-0.000395832
-0.0068953
-0.0025597
0.00965022
0.0131878
-0.00332761
-0.0144769
-0.00037532
0.00308479
-0.00267467
0.000883122
0.00728981
0.000180586
0.00542183
-0.00497084
0.0187815
-0.0172125
0.00971703
-0.00149794
0.00572766
-0.0116359
0.00779082
0.00123511
0.00471287
-0.00127555
-0.00275502
-0.000544577
-0.0115245
0.0112148
0.000630812
-0.0176013
-0.0130947
-0.0015546
0.0146722
0.0142646
-0.0155372
0.00131771
0.0106642
0.0103607
-0.0075995
-0.00187484
0.0099931
-0.00937364
0.00998217
-0.00153556
0.00621559
-0.00109346
-0.00495522
0.0126704
-0.0131773
-0.0088068
0.00208673
0.0139904
0.0015625
-0.0155234
0.0192909
-0.011106
-0.00811071
0.00218873
0.00196094
-0.00413306
0.0167169
-0.0177792
0.00111923
-0.000930362
-0.00923916
0.0102778
-0.000736925
-0.0153386
0.0163747
-0.000140468
0.0011553
-0.000995313
0.00312383
0.000264246
-0.00334386
-0.000797391
-0.00857991
0.00938746
0.00399129
-0.0112404
0.00103307
0.0169457
-0.0178031
0.000959289
0.0133043
0.00849641
-0.00296466
-0.00543875
-0.00431211
0.0152752
0.0105012
0.00993038
0.00369554
-0.00816046
0.0021408
-0.00046994
-0.000601703
-0.00950121
0.00983475
-0.0113864
0.000181685
0.0111863
-0.000468978
-0.0181344
-6.13789e-05
-0.000527489
-0.000196914
0.000828923
0.00591653
-0.00506821
-0.000102982
0.0128418
0.000168588
-0.00978485
0.0103285
-0.0182412
0.0156426
0.00263939
-0.00150111
0.000515789
7.41874e-07
-2.99019e-05
-0.00130045
0.00127851
-0.0152454
0.0139776
-3.92091e-05
-0.000296578
0.000463344
0.000829802
0.0131295
-0.00158306
-0.000621502
0.013942
-0.000356074
0.00334198
-0.00298033
0.0129837
-0.0104648
-0.00182717
0.00111632
-0.0186223
0.00493861
0.00142075
0.00368686
-0.00322358
-0.0002706
0.00075872
0.00550792
-0.0161088
1.10638e-05
-0.000327349
0.0177581
-0.0164436
-0.0174998
-0.000609656
-0.00095218
0.00032005
-0.00592027
0.0062485
-0.000372279
-0.00263685
0.00306128
-0.00341232
0.0147408
-0.000711972
-0.000618496
-0.0111006
0.0117097
-0.00169608
-0.0169512
0.0186936
-0.0168535
0.0183015
0.00174724
-0.0148195
-4.61515e-05
-0.000320778
0.000109504
-0.00136894
0.00129593
0.00367211
0.00052568
0.0043807
-0.00458195
-0.0139763
0.0152652
0.00157321
-0.0131883
0.0116074
-0.0190048
0.0136507
0.00538827
-0.000396995
0.00323712
-0.00283527
-0.00166219
0.0184461
-0.0166604
-0.00745597
0.00121362
0.00628706
0.000285705
-0.00259517
0.0155206
0.00227865
0.00294906
-0.0138833
0.003154
-0.000710386
-0.000870504
-0.0171347
0.00516058
0.00587442
-0.0142723
0.014328
9.25282e-05
0.0102891
-0.0114599
0.00115927
-0.000172141
0.00114634
-0.000988421
0.00074149
-0.000431751
-0.00311589
0.00359182
0.0127494
0.0199821
-0.0167566
0.0104385
-0.00101678
0.00636175
-0.00128427
0.00118358
-0.000467922
0.0039848
-0.0204069
0.0196621
0.000735255
0.000507583
0.00170539
0.00268088
-0.000351751
0.00312979
-0.00273828
-0.00759928
0.0063071
0.00143796
0.00129745
-0.00115219
0.00146242
0.00120565
0.00013991
-0.0165423
0.000392877
0.00284804
0.00312332
-0.00272686
0.00234431
-0.010304
0.00809071
-0.0132002
0.0148571
-0.00162611
0.012293
-0.0007985
0.00848556
-0.0095187
0.00107813
0.0105565
-0.00685934
0.00185658
0.00137991
-0.0184984
-0.00173641
0.00105535
0.0010052
-0.0120715
0.0101581
-0.018435
0.0084726
-0.000298449
0.000371837
0.00543879
0.00314831
0.000528067
-0.0104191
0.00988656
-0.0104678
0.00864
0.00196697
0.000826538
0.00990805
-0.000133554
0.00119813
-0.00104022
0.016889
-0.0150293
-0.00183899
0.0176718
0.01078
-0.000914608
0.0103054
-0.00927583
0.0134173
-0.00165074
0.0143081
-0.00858764
0.00113387
-0.00124294
-0.000113256
-0.0011377
-0.00148804
0.0135216
-0.0120391
-0.000844015
-0.00645248
0.00739312
0.000796242
-0.0133042
-0.000978015
0.0022625
-0.00192943
-0.000270245
-0.00338372
0.00299441
0.000396646
-0.00529865
-0.0157696
-0.000143449
0.00115559
-0.00099404
3.31885e-05
-2.08426e-06
-2.29641e-05
-0.000261989
-0.00203789
0.00234541
-0.00890886
0.0108321
0.00419034
-0.0185172
-0.0129568
0.0114639
0.00985308
-0.00132276
0.0110975
0.00338875
0.0102165
0.00685684
-0.0169185
0.0165636
0.00215305
-0.0186696
0.015216
0.00731976
0.0164657
-0.0137254
-0.00271668
-0.0124825
0.0140475
-0.0164968
0.0160649
-0.0147753
-0.00110039
-0.0192812
0.0159609
0.0130112
-0.0010267
0.0011347
0.00942337
0.0152159
0.000613485
-0.0155161
0.00120026
-0.000581631
0.00414017
-0.00354531
-0.000681057
-0.000689989
-0.0104031
-0.00143151
0.0118202
5.93701e-06
0.0120861
-0.0120792
0.014918
-0.00257694
0.00034465
0.00165975
-0.0139511
0.00174948
0.00135812
-0.00310209
-0.00127247
-0.0122026
0.0136619
-0.00052751
0.0160697
-0.00313466
0.00282123
0.0179346
-0.0176153
-0.000384393
0.00713244
-0.0136399
-0.00139967
-0.0111289
0.0105015
-0.000600054
-0.0170635
0.0177935
-0.0110825
0.0107338
0.0141077
0.00153095
-0.0156059
-0.0114435
0.00103133
0.0177931
-0.00102634
0.0148466
-0.0138759
0.000321629
0.00475084
-0.00502693
0.00808729
-0.00905263
0.00517545
0.00121679
0.0180951
-0.0168157
-0.00112602
-0.0144344
-0.00107315
0.00972785
-0.0105269
-0.00117995
0.000314209
0.0171301
-0.00316039
0.00292243
0.0116244
-0.0140819
0.0156749
0.0032982
0.0110093
-0.0121606
0.00119117
0.00242474
0.00047519
-0.0153409
0.015517
0.000737336
-0.0102566
0.00878809
-0.00921055
0.000657862
0.00115889
-0.00780419
-0.00155191
-0.0065468
-4.35426e-05
0.00722858
-0.0165294
-0.00104863
0.00142971
-0.00295914
-0.00878886
0.000300414
0.0015774
0.00810423
0.00590272
-0.0139827
-0.0016896
-0.0155843
0.0172873
0.00358941
-0.000419759
-1.49491e-06
-3.90354e-05
4.05573e-05
0.0100277
-0.00889155
-0.0043694
0.00192068
0.00245792
-0.0142206
0.000199436
0.0106921
-0.0101683
-0.0168044
0.0158356
0.00101507
-0.0146294
-0.00117816
-0.0178126
0.00116313
0.00102831
0.016855
0.00139682
-0.0187372
0.0131747
-0.00139293
-0.0117685
-0.00624563
-0.014167
-0.0166402
-0.00113338
0.0171776
-0.0177473
0.00321129
0.0145529
-0.0173515
0.0157656
0.001672
-1.94686e-05
6.96064e-06
-8.86611e-05
-0.0172624
0.0174072
0.00180927
-0.0187051
0.00116101
-0.0148708
0.000532217
0.0145669
-0.000495547
0.016462
-0.0160407
-0.00184558
-0.00023673
-0.0161932
-0.000897861
0.0171822
-0.0119764
-0.00166245
0.0139552
-0.0206551
0.000883808
0.0198468
0.000508642
0.00385682
0.00392037
0.00630096
-0.0178963
0.00476536
0.0170074
-0.0181545
0.00278861
0.0146109
-0.0150496
0.000889364
0.0135861
-0.0122444
-0.0175862
0.017466
-0.0029518
0.0118702
-0.000629334
0.00221123
0.0174443
-0.00931294
0.0185985
-0.00370493
-0.0147596
0.00107702
-0.0118597
0.000788509
-0.0147895
0.0145474
0.00067668
-0.000157415
-0.00922856
0.00936543
0.00108406
-0.0177358
0.0107355
-0.0169906
0.0183235
0.0161733
-0.0178838
0.0162972
0.00161038
-0.00156257
-0.0171913
0.018844
0.00184273
0.00368535
0.000311935
0.0129531
-0.0132289
-0.0162209
0.0132352
-0.0111551
-0.000584881
-0.0171362
0.0177215
0.00296239
-0.00337047
0.00050643
0.0155614
-0.00142761
-0.0145882
0.0012979
-0.0141251
0.0144862
-0.0156633
0.000771426
-0.0176773
0.0169243
-0.000490474
0.00355338
-0.0167247
0.0176398
-0.00941266
0.00942421
0.000205414
-0.0180448
0.000785759
0.00987991
-0.000543693
0.00110678
-0.0185957
0.0161049
-0.00574661
-0.00124865
0.00181493
-0.0147496
0.000613121
-0.0152703
0.000871817
-0.0167534
0.0178866
8.72713e-05
-0.000375545
0.000348002
-0.0127646
0.0123419
0.000838108
0.00241199
-0.00922288
0.00174453
0.0105047
-0.0121929
-0.000909182
-0.0168061
0.000485813
-0.0114824
-0.0108993
-0.000752387
-0.0159915
0.0005141
-0.00151038
-0.0099603
0.000953593
-0.0175022
0.000304393
-0.0152081
0.0104448
-0.00972555
-0.017208
0.0179938
-0.00328284
0.00204495
0.00146711
-0.0183867
-0.00421365
0.00364565
-0.000448415
-0.0104439
0.0108742
0.0157968
-0.000764223
0.00097708
-8.21967e-05
-0.000857676
0.00924904
0.000728737
0.00137626
-0.0153389
-8.34713e-05
-0.000844109
-0.00655979
0.00356616
0.00944004
-0.0172995
0.000507395
0.0169644
0.0009327
-0.0170406
0.00663471
0.000821222
-0.00738385
-0.0027361
0.018687
0.0187393
-0.00213189
0.0137246
-0.0150165
0.0014702
0.0136922
0.00204361
-0.0168476
0.0148312
-0.000806875
0.00751609
0.0035072
-0.00391127
0.000449079
-8.74629e-05
0.000959201
-0.000836385
0.0147933
8.70821e-05
0.000966537
-0.00101318
-8.16436e-05
0.000987255
-0.000866952
0.0102512
-0.0107174
0.00104336
-0.0168944
0.0182042
-0.00126657
0.0152127
0.000998613
-0.000871163
-0.00128635
-0.017229
0.0186113
-9.23565e-05
0.000125002
3.50263e-06
0.00915423
0.0102109
-0.0112394
0.0113546
0.000402844
0.0199824
0.0148117
-0.0139652
-0.000851015
0.000955468
0.000802443
-0.0172653
0.0166314
-0.000620053
0.0169209
0.00216408
-0.0189161
0.0152127
0.000890682
-0.0160157
0.00948286
-0.002738
-0.00179076
-0.0136388
0.0157867
-0.0170569
0.00196009
0.0153185
-0.00120527
0.00107974
-5.72488e-05
4.75076e-05
3.9135e-05
0.0013901
-0.0138744
-0.0180051
-0.00224522
0.000924932
-0.0157776
-0.000198329
0.000942054
0.012068
0.00145054
-9.06426e-05
-0.0128199
0.0133863
0.0162523
-0.00507016
0.00528905
0.000725008
-0.00310599
0.00034348
0.00284906
-0.0172966
0.00216226
0.0152428
0.00502209
-0.00586541
0.00101063
-0.0109722
0.0122199
-0.00124841
-0.00127263
0.0162178
-0.000887879
0.00608605
-0.000366046
0.00307332
-0.00268147
-0.00934032
0.00855098
-0.00255475
0.0061923
-0.00474414
0.00556817
0.000152961
-0.0116084
-0.000658552
-0.00822923
-0.0012313
0.00300825
-0.0151768
-0.0104912
0.0036903
0.00170025
-0.00205374
-0.0158079
-0.000245974
0.000206046
0.000158559
-0.00282743
-0.00364802
-0.000446893
0.00139638
-0.017544
0.0161893
0.000555236
-0.00440692
0.00272228
0.0155728
-0.0182484
-0.00727433
0.012839
-0.0140882
-0.000964549
0.015454
0.00870983
0.00814662
0.0106674
-0.0108484
-0.00452208
0.00558104
-0.000892931
0.00283499
-0.00317515
0.000519213
0.00950736
0.000190592
-0.0137954
0.000549213
0.00913282
-0.0096866
-7.75242e-05
-0.00772297
0.00779255
0.00172462
-0.000462868
-0.000400444
-0.00364822
-8.84032e-05
0.00091829
-0.000796879
-0.015216
0.00103501
0.00154329
-0.0151114
0.0140998
-0.0139225
0.000579695
-0.000334082
0.00333093
-9.27478e-05
0.00091028
-0.000786428
0.000999646
-0.0114564
0.0104473
-5.15775e-05
-0.0142356
-8.81583e-05
0.000936509
-0.000814195
0.00135277
-0.0193172
-0.017114
-0.00111514
0.0183525
-0.00209905
-0.00156035
-0.013372
0.00110441
0.0128422
-0.0125309
-0.000298169
-0.00149775
-0.00636984
0.00786194
0.00053964
0.0101452
0.00197567
0.00034541
0.0144832
0.00990085
-0.0103148
0.000412213