/*--------------------------------*- C++ -*----------------------------------*\
| =========                 |                                                 |
| \\      /  F ield         | OpenFOAM: The Open Source CFD Toolbox           |
|  \\    /   O peration     | Version:  v2012                                 |
|   \\  /    A nd           | Website:  www.openfoam.com                      |
|    \\/     M anipulation  |                                                 |
\*---------------------------------------------------------------------------*/
FoamFile
{
    version     2.0;
    format      ascii;
    class       pointVectorField;
    location    "850";
    object      pointDisplacement;
}
// * * * * * * * * * * * * * * * * * * * * * * * * * * * * * * * * * * * * * //

dimensions      [0 1 0 0 0 0 0];


internalField   nonuniform List<vector> 
10142
(
(0 0 0)
(0 0 0)
(0 0 0)
(0 0 0)
(0 0 0)
(0 0 0)
(0 0 0)
(0 0 0)
(0 0 0)
(0 0 0)
(0 0 0)
(0 0 0)
(0 0 0)
(0 0 0)
(0 0 0)
(0 0 0)
(0 0 0)
(0 0 0)
(0 0 0)
(0 0 0)
(0 0 0)
(0 0 0)
(0 0 0)
(0 0 0)
(0 0 0)
(0 0 0)
(0 0 0)
(0 0 0)
(0 0 0)
(0 0 0)
(0 0 0)
(0 0 0)
(0 0 0)
(0 0 0)
(0 0 0)
(0 0 0)
(0 0 0)
(0 0 0)
(0 0 0)
(0 0 0)
(0 0 0)
(0 0 0)
(0 0 0)
(0 0 0)
(0 0 0)
(0 0 0)
(0 0 0)
(0 0 0)
(0 0 0)
(0 0 0)
(0 0 0)
(0 0 0)
(0 0 0)
(0 0 0)
(0 0 0)
(0 0 0)
(0 0 0)
(0 0 0)
(0 0 0)
(0 0 0)
(0 0 0)
(0 0 0)
(0 0 0)
(0 0 0)
(0 0 0)
(0 0 0)
(0 0 0)
(0 0 0)
(0 0 0)
(0 0 0)
(0 0 0)
(0 0 0)
(0 0 0)
(0 0 0)
(0 0 0)
(0 0 0)
(0 0 0)
(0 0 0)
(0 0 0)
(0 0 0)
(0 0 0)
(0 0 0)
(0 0 0)
(0 0 0)
(0 0 0)
(0 0 0)
(0 0 0)
(0 0 0)
(0 0 0)
(0 0 0)
(0 0 0)
(0 0 0)
(0 0 0)
(0 0 0)
(0 0 0)
(0 0 0)
(0 0 0)
(0 0 0)
(0 0 0)
(0 0 0)
(0 0 0)
(0 0 0)
(0 0 0)
(0 0 0)
(0 0 0)
(0 0 0)
(0 0 0)
(0 0 0)
(0 0 0)
(0 0 0)
(0 0 0)
(0 0 0)
(0 0 0)
(0 0 0)
(0 0 0)
(0 0 0)
(0 0 0)
(0 0 0)
(0 0 0)
(0 0 0)
(0 0 0)
(0 0 0)
(0 0 0)
(0 0 0)
(0 0 0)
(0 0 0)
(0 0 0)
(0 0 0)
(0 0 0)
(0 0 0)
(0 0 0)
(0 0 0)
(0 0 0)
(0 0 0)
(0 0 0)
(0 0 0)
(0 0 0)
(0 0 0)
(0 0 0)
(0 0 0)
(0 0 0)
(0 0 0)
(0 0 0)
(0 0 0)
(0 0 0)
(0 0 0)
(0 0 0)
(0 0 0)
(0 0 0)
(0 0 0)
(0 0 0)
(0 0 0)
(0 0 0)
(0 0 0)
(0 0 0)
(0 0 0)
(0 0 0)
(0 0 0)
(0 0 0)
(0 0 0)
(0 0 0)
(0 0 0)
(0 0 0)
(0 0 0)
(0 0 0)
(0 0 0)
(0 0 0)
(0 0 0)
(0 0 0)
(0 0 0)
(0 0 0)
(0 0 0)
(0 0 0)
(0 0 0)
(0 0 0)
(0 0 0)
(0 0 0)
(0 0 0)
(0 0 0)
(0 0 0)
(0 0 0)
(0 0 0)
(0 0 0)
(0 0 0)
(0 0 0)
(0 0 0)
(0 0 0)
(0 0 0)
(0 0 0)
(0 0 0)
(0 0 0)
(0 0 0)
(0 0 0)
(0 0 0)
(0 0 0)
(0 0 0)
(0 0 0)
(0 0 0)
(0 0 0)
(0 0 0)
(0 0 0)
(0 0 0)
(0 0 0)
(0 0 0)
(0 0 0)
(0 0 0)
(0 0 0)
(0 0 0)
(0 0 0)
(0 0 0)
(0 0 0)
(0 0 0)
(0 0 0)
(0 0 0)
(0 0 0)
(0 0 0)
(0 0 0)
(0 0 0)
(0 0 0)
(0 0 0)
(0 0 0)
(0 0 0)
(0 0 0)
(0 0 0)
(0 0 0)
(0 0 0)
(0 0 0)
(0 0 0)
(0 0 0)
(0 0 0)
(0 0 0)
(0 0 0)
(0 0 0)
(0 0 0)
(0 0 0)
(0 0 0)
(0 0 0)
(0 0 0)
(0 0 0)
(0 0 0)
(0 0 0)
(0 0 0)
(0 0 0)
(0 0 0)
(0 0 0)
(0 0 0)
(0 0 0)
(0 0 0)
(0 0 0)
(0 0 0)
(0 0 0)
(0 0 0)
(0 0 0)
(0 0 0)
(0 0 0)
(0 0 0)
(0 0.000306142 0)
(0 0.000343377 0)
(0 0.000232734 0)
(0 0.000270784 0)
(0 0.000182492 0)
(0 0.00027878 0)
(0 0.000155809 0)
(0 0.000296788 0)
(0 0.000120384 0)
(0 0.000203872 0)
(0 0.000134596 0)
(0 9.04222e-05 0)
(0 9.07307e-05 0)
(0 0.000282107 0)
(0 8.37393e-05 0)
(0 6.63585e-05 0)
(0 6.32058e-05 0)
(0 0.000334402 0)
(0 0.000205365 0)
(0 0.00017161 0)
(0 5.07658e-05 0)
(0 3.44693e-05 0)
(0 0.00028278 0)
(0 0.000346651 0)
(0 0.000297602 0)
(0 0.000301456 0)
(0 0.000232316 0)
(0 9.85042e-05 0)
(0 0.000127992 0)
(0 0.000114647 0)
(0 0.000102638 0)
(0 3.34459e-05 0)
(0 2.11068e-05 0)
(0 1.82127e-05 0)
(0 0.000306663 0)
(0 0.000349532 0)
(0 0.000295384 0)
(0 0.000264791 0)
(0 0.000293113 0)
(0 0.000210272 0)
(0 0.000144864 0)
(0 0.000173289 0)
(0 0.000242554 0)
(0 5.87049e-05 0)
(0 0.000163932 0)
(0 0.000110199 0)
(0 8.24256e-05 0)
(0 6.75439e-05 0)
(0 4.68187e-05 0)
(0 8.21838e-05 0)
(0 9.11006e-06 0)
(0 0.00192485 0)
(0 0.00184185 0)
(0 0.00195223 0)
(0 0.00186827 0)
(0 0.00198092 0)
(0 0.0018966 0)
(0 0.00201168 0)
(0 0.00192743 0)
(0 0.00204523 0)
(0 0.00196146 0)
(0 0.00208118 0)
(0 0.00199867 0)
(0 0.00211867 0)
(0 0.0020384 0)
(0 0.00216152 0)
(0 0.00207991 0)
(0 0.00220625 0)
(0 0.00212587 0)
(0 0.00225508 0)
(0 0.00217989 0)
(0 0.00231612 0)
(0 0.00223762 0)
(0 0.00237803 0)
(0 0.00230027 0)
(0 0.00243803 0)
(0 0.00236715 0)
(0 0.00250541 0)
(0 0.00243672 0)
(0 0.00258045 0)
(0 0.00251044 0)
(0 0.00265611 0)
(0 0.00258883 0)
(0 0.00273591 0)
(0 0.00267136 0)
(0 0.00282057 0)
(0 0.00275874 0)
(0 0.00291041 0)
(0 0.00285131 0)
(0 0.00300151 0)
(0 0.00294331 0)
(0 0.00309017 0)
(0 0.00303642 0)
(0 0.00318553 0)
(0 0.00313169 0)
(0 0.00328249 0)
(0 0.00322755 0)
(0 0.00338013 0)
(0 0.00332857 0)
(0 0.00348336 0)
(0 0.0034321 0)
(0 0.0035859 0)
(0 0.00353535 0)
(0 0.0036911 0)
(0 0.00337612 0)
(0 0.00348437 0)
(0 0.00373737 0)
(0 0.00384021 0)
(0 0.00307534 0)
(0 0.00252315 0)
(0 0.00216544 0)
(0 0.00388939 0)
(0 0.00398804 0)
(0 0.00404043 0)
(0 0.00413645 0)
(0 0.00418645 0)
(0 0.00428029 0)
(0 0.00433245 0)
(0 0.00442826 0)
(0 0.00447945 0)
(0 0.00457393 0)
(0 0.00461669 0)
(0 0.00470906 0)
(0 0.0047467 0)
(0 0.00484134 0)
(0 0.00487373 0)
(0 0.00496907 0)
(0 0.00499273 0)
(0 0.00508285 0)
(0 0.00510027 0)
(0 0.00518113 0)
(0 0.00519319 0)
(0 0.00526595 0)
(0 0.00525745 0)
(0 0.0053414 0)
(0 0.00533309 0)
(0 0.00541693 0)
(0 0.00540583 0)
(0 0.00548871 0)
(0 0.00547385 0)
(0 0.0055546 0)
(0 0.00554103 0)
(0 0.00562057 0)
(0 0.00560665 0)
(0 0.00568509 0)
(0 0.00566656 0)
(0 0.00574015 0)
(0 0.00571729 0)
(0 0.005788 0)
(0 0.00576231 0)
(0 0.00583218 0)
(0 0.00586911 0)
(0 0.00589081 0)
(0 0.00592462 0)
(0 0.00595207 0)
(0 0.0055602 0)
(0 0.00597135 0)
(0 0.00599882 0)
(0 0.00603964 0)
(0 0.00606052 0)
(0 0.0060932 0)
(0 0.00610437 0)
(0 0.00611727 0)
(0 0.00612715 0)
(0 0.0061296 0)
(0 0.00614185 0)
(0 0.00614131 0)
(0 0.00614552 0)
(0 0.00613392 0)
(0 0.00612903 0)
(0 0.00610969 0)
(0 0.00611592 0)
(0 0.00609674 0)
(0 0.00607332 0)
(0 0.00607864 0)
(0 0.00605391 0)
(0 0.0060261 0)
(0 0.00599833 0)
(0 0.00596811 0)
(0 0.0059352 0)
(0 0.00511704 0)
(0 0.00593162 0)
(0 0.00589582 0)
(0 0.00585377 0)
(0 0.0058435 0)
(0 0.0058047 0)
(0 0.00575074 0)
(0 0.00570523 0)
(0 0.00564438 0)
(0 0.00558966 0)
(0 0.00557802 0)
(0 0.00552391 0)
(0 0.00546437 0)
(0 0.00545589 0)
(0 0.00539901 0)
(0 0.00533575 0)
(0 0.00532804 0)
(0 0.0052671 0)
(0 0.00260869 0)
(0 0.0051885 0)
(0 0.00511928 0)
(0 0.00503602 0)
(0 0.00496191 0)
(0 0.00495011 0)
(0 0.00487724 0)
(0 0.00480148 0)
(0 0.00479054 0)
(0 0.0047176 0)
(0 0.00463117 0)
(0 0.00455724 0)
(0 0.00447027 0)
(0 0.00439232 0)
(0 0.00438041 0)
(0 0.00430364 0)
(0 0.0042248 0)
(0 0.00421322 0)
(0 0.00413513 0)
(0 0.00404379 0)
(0 0.00222774 0)
(0 0.00195343 0)
(0 0.00520774 0)
(0 0.00513528 0)
(0 0.005225 0)
(0 0.00515366 0)
(0 0.00523965 0)
(0 0.00516779 0)
(0 0.00526144 0)
(0 0.00517749 0)
(0 0.00525364 0)
(0 0.00518354 0)
(0 0.00524962 0)
(0 0.00518051 0)
(0 0.00524009 0)
(0 0.00516957 0)
(0 0.00522511 0)
(0 0.00515313 0)
(0 0.00520074 0)
(0 0.00512339 0)
(0 0.00516563 0)
(0 0.00508064 0)
(0 0.00511694 0)
(0 0.00520312 0)
(0 0.00514499 0)
(0 0.00523055 0)
(0 0.00516548 0)
(0 0.00524891 0)
(0 0.00502639 0)
(0 0.00498916 0)
(0 0.00518065 0)
(0 0.00526249 0)
(0 0.00493339 0)
(0 0.00489637 0)
(0 0.00518699 0)
(0 0.00526497 0)
(0 0.00484003 0)
(0 0.00480167 0)
(0 0.00516368 0)
(0 0.00525659 0)
(0 0.00474317 0)
(0 0.00469941 0)
(0 0.00464214 0)
(0 0.00459547 0)
(0 0.00515851 0)
(0 0.00523963 0)
(0 0.00454036 0)
(0 0.00449613 0)
(0 0.0051316 0)
(0 0.00521339 0)
(0 0.00443777 0)
(0 0.00439929 0)
(0 0.00505657 0)
(0 0.00433496 0)
(0 0.00430342 0)
(0 0.00509216 0)
(0 0.00517801 0)
(0 0.00436086 0)
(0 0.00423466 0)
(0 0.00420949 0)
(0 0.00504318 0)
(0 0.005132 0)
(0 0.00413954 0)
(0 0.0041175 0)
(0 0.00498645 0)
(0 0.00507388 0)
(0 0.00404699 0)
(0 0.00402504 0)
(0 0.00563824 0)
(0 0.00492145 0)
(0 0.00500839 0)
(0 0.00395198 0)
(0 0.0039303 0)
(0 0.0039912 0)
(0 0.00389634 0)
(0 0.00383286 0)
(0 0.00380223 0)
(0 0.00444674 0)
(0 0.00485005 0)
(0 0.00493722 0)
(0 0.00373602 0)
(0 0.00370698 0)
(0 0.00376198 0)
(0 0.00367093 0)
(0 0.00360924 0)
(0 0.00357854 0)
(0 0.00351203 0)
(0 0.0034859 0)
(0 0.00477196 0)
(0 0.00485751 0)
(0 0.00501939 0)
(0 0.00493851 0)
(0 0.00476816 0)
(0 0.0048482 0)
(0 0.00483658 0)
(0 0.00363075 0)
(0 0.00180847 0)
(0 0.00341656 0)
(0 0.00339577 0)
(0 0.00501486 0)
(0 0.00492421 0)
(0 0.0047527 0)
(0 0.00482828 0)
(0 0.00465161 0)
(0 0.00472721 0)
(0 0.00489973 0)
(0 0.00480063 0)
(0 0.00462214 0)
(0 0.00469483 0)
(0 0.00396404 0)
(0 0.00486993 0)
(0 0.00476346 0)
(0 0.00458307 0)
(0 0.00465298 0)
(0 0.00446821 0)
(0 0.00453945 0)
(0 0.0047253 0)
(0 0.00461032 0)
(0 0.00442408 0)
(0 0.00449044 0)
(0 0.00466679 0)
(0 0.00455017 0)
(0 0.00436979 0)
(0 0.00443196 0)
(0 0.00332424 0)
(0 0.00330784 0)
(0 0.00333754 0)
(0 0.00424407 0)
(0 0.00430513 0)
(0 0.00448374 0)
(0 0.00436002 0)
(0 0.00417773 0)
(0 0.00423499 0)
(0 0.00510118 0)
(0 0.00527782 0)
(0 0.00440866 0)
(0 0.00428657 0)
(0 0.00411081 0)
(0 0.00416538 0)
(0 0.00398673 0)
(0 0.00404252 0)
(0 0.00420939 0)
(0 0.00408848 0)
(0 0.00391716 0)
(0 0.00396686 0)
(0 0.00413299 0)
(0 0.0040138 0)
(0 0.00383871 0)
(0 0.00388367 0)
(0 0.0037043 0)
(0 0.00374531 0)
(0 0.00390963 0)
(0 0.00377898 0)
(0 0.00361143 0)
(0 0.00364878 0)
(0 0.00380934 0)
(0 0.00368167 0)
(0 0.00351916 0)
(0 0.00355375 0)
(0 0.00339035 0)
(0 0.00342494 0)
(0 0.00357868 0)
(0 0.00345399 0)
(0 0.00329664 0)
(0 0.00332671 0)
(0 0.00323546 0)
(0 0.00322063 0)
(0 0.00328457 0)
(0 0.00319983 0)
(0 0.00325179 0)
(0 0.00317161 0)
(0 0.00311565 0)
(0 0.00309274 0)
(0 0.00303433 0)
(0 0.00301559 0)
(0 0.00347609 0)
(0 0.00335196 0)
(0 0.00320244 0)
(0 0.00323036 0)
(0 0.00308029 0)
(0 0.00310845 0)
(0 0.00324903 0)
(0 0.00312866 0)
(0 0.00298654 0)
(0 0.00300858 0)
(0 0.00315707 0)
(0 0.00302359 0)
(0 0.00288972 0)
(0 0.00290161 0)
(0 0.00302605 0)
(0 0.00290908 0)
(0 0.002779 0)
(0 0.00278783 0)
(0 0.00291298 0)
(0 0.00279252 0)
(0 0.00291203 0)
(0 0.00279246 0)
(0 0.002906 0)
(0 0.00278771 0)
(0 0.00267508 0)
(0 0.00267124 0)
(0 0.00277821 0)
(0 0.00266229 0)
(0 0.00255577 0)
(0 0.00254688 0)
(0 0.00264786 0)
(0 0.00253251 0)
(0 0.00262818 0)
(0 0.0025126 0)
(0 0.00260342 0)
(0 0.00248788 0)
(0 0.002574 0)
(0 0.0024585 0)
(0 0.00237212 0)
(0 0.00234351 0)
(0 0.00242535 0)
(0 0.00231146 0)
(0 0.00238877 0)
(0 0.00227658 0)
(0 0.00234927 0)
(0 0.00223824 0)
(0 0.00230649 0)
(0 0.00216657 0)
(0 0.00219647 0)
(0 0.00226019 0)
(0 0.00215144 0)
(0 0.00221076 0)
(0 0.00210312 0)
(0 0.00215847 0)
(0 0.00205132 0)
(0 0.00210262 0)
(0 0.0024413 0)
(0 0.00199601 0)
(0 0.00199574 0)
(0 0.00204309 0)
(0 0.00193628 0)
(0 0.00198001 0)
(0 0.00453072 0)
(0 0.00295451 0)
(0 0.00293874 0)
(0 0.00187316 0)
(0 0.00191337 0)
(0 0.0032122 0)
(0 0.00220975 0)
(0 0.00287297 0)
(0 0.00285715 0)
(0 0.00438236 0)
(0 0.00180664 0)
(0 0.00184339 0)
(0 0.0017664 0)
(0 0.00194968 0)
(0 0.00187647 0)
(0 0.00198221 0)
(0 0.00190593 0)
(0 0.00241891 0)
(0 0.00534034 0)
(0 0.00278607 0)
(0 0.00291478 0)
(0 0.00279035 0)
(0 0.00180056 0)
(0 0.00182716 0)
(0 0.00201071 0)
(0 0.00268911 0)
(0 0.00172215 0)
(0 0.0017462 0)
(0 0.00164149 0)
(0 0.0016634 0)
(0 0.00155851 0)
(0 0.00157836 0)
(0 0.00168249 0)
(0 0.00159537 0)
(0 0.00169819 0)
(0 0.00532334 0)
(0 0.00147324 0)
(0 0.00145287 0)
(0 0.00477211 0)
(0 0.00473655 0)
(0 0.00136755 0)
(0 0.00134686 0)
(0 0.00289096 0)
(0 0.00575344 0)
(0 0.0030265 0)
(0 0.00265732 0)
(0 0.00225782 0)
(0 0.00545522 0)
(0 0.00334861 0)
(0 0.00272039 0)
(0 0.00229562 0)
(0 0.00203243 0)
(0 0.00126174 0)
(0 0.00124079 0)
(0 0.00408763 0)
(0 0.00115564 0)
(0 0.00113426 0)
(0 0.00511167 0)
(0 0.00213444 0)
(0 0.00161159 0)
(0 0.00151642 0)
(0 0.00505581 0)
(0 0.0026492 0)
(0 0.00273515 0)
(0 0.00283521 0)
(0 0.00281906 0)
(0 0.00291992 0)
(0 0.0029004 0)
(0 0.00300233 0)
(0 0.00297917 0)
(0 0.00308188 0)
(0 0.0030557 0)
(0 0.00315843 0)
(0 0.00312876 0)
(0 0.00323298 0)
(0 0.00320134 0)
(0 0.00330356 0)
(0 0.0032638 0)
(0 0.00336746 0)
(0 0.0033178 0)
(0 0.00342498 0)
(0 0.00336069 0)
(0 0.00348257 0)
(0 0.00342923 0)
(0 0.00354142 0)
(0 0.00348469 0)
(0 0.00359668 0)
(0 0.00121746 0)
(0 0.00111053 0)
(0 0.00119152 0)
(0 0.00108453 0)
(0 0.00116316 0)
(0 0.00105616 0)
(0 0.00113242 0)
(0 0.00102582 0)
(0 0.00109956 0)
(0 0.000993706 0)
(0 0.00106486 0)
(0 0.00096006 0)
(0 0.00102859 0)
(0 0.000925117 0)
(0 0.000990624 0)
(0 0.000888961 0)
(0 0.000951268 0)
(0 0.00105256 0)
(0 0.00101004 0)
(0 0.000910722 0)
(0 0.000965651 0)
(0 0.00106485 0)
(0 0.00101676 0)
(0 0.000920063 0)
(0 0.000966745 0)
(0 0.00106332 0)
(0 0.0010089 0)
(0 0.000915769 0)
(0 0.000953877 0)
(0 0.00104694 0)
(0 0.00098808 0)
(0 0.000897838 0)
(0 0.000927097 0)
(0 0.00101706 0)
(0 0.000951132 0)
(0 0.00103962 0)
(0 0.000865191 0)
(0 0.000969587 0)
(0 0.00105683 0)
(0 0.000982832 0)
(0 0.00106945 0)
(0 0.000991315 0)
(0 0.0010788 0)
(0 0.00099496 0)
(0 0.00108243 0)
(0 0.000911079 0)
(0 0.00099309 0)
(0 0.00107947 0)
(0 0.00113036 0)
(0 0.000985983 0)
(0 0.00107232 0)
(0 0.00117322 0)
(0 0.000974357 0)
(0 0.00106069 0)
(0 0.00089154 0)
(0 0.000957946 0)
(0 0.00104398 0)
(0 0.00115015 0)
(0 0.0011331 0)
(0 0.0012424 0)
(0 0.00122557 0)
(0 0.00111121 0)
(0 0.00120385 0)
(0 0.00132138 0)
(0 0.00129947 0)
(0 0.00117628 0)
(0 0.0012715 0)
(0 0.00114231 0)
(0 0.00123732 0)
(0 0.00136999 0)
(0 0.00133572 0)
(0 0.00195 0)
(0 0.00207965 0)
(0 0.00119722 0)
(0 0.00129568 0)
(0 0.00143738 0)
(0 0.00139736 0)
(0 0.00154199 0)
(0 0.00150192 0)
(0 0.00135135 0)
(0 0.00145581 0)
(0 0.00104882 0)
(0 0.00106849 0)
(0 0.00165023 0)
(0 0.00155402 0)
(0 0.00142373 0)
(0 0.00146234 0)
(0 0.00133564 0)
(0 0.00137438 0)
(0 0.00158952 0)
(0 0.00125203 0)
(0 0.00129169 0)
(0 0.00295572 0)
(0 0.0012993 0)
(0 0.00140389 0)
(0 0.0018839 0)
(0 0.00202071 0)
(0 0.000919341 0)
(0 0.00353716 0)
(0 0.0036502 0)
(0 0.00320185 0)
(0 0.00156335 0)
(0 0.00151173 0)
(0 0.00134603 0)
(0 0.00145314 0)
(0 0.00162173 0)
(0 0.00156245 0)
(0 0.00271633 0)
(0 0.00173338 0)
(0 0.0016741 0)
(0 0.0014968 0)
(0 0.00160802 0)
(0 0.00178774 0)
(0 0.00172122 0)
(0 0.00153528 0)
(0 0.00164839 0)
(0 0.00183609 0)
(0 0.00176323 0)
(0 0.00156917 0)
(0 0.0016839 0)
(0 0.00187994 0)
(0 0.00180107 0)
(0 0.00199929 0)
(0 0.00192186 0)
(0 0.00171734 0)
(0 0.00183901 0)
(0 0.00204593 0)
(0 0.00196246 0)
(0 0.00174814 0)
(0 0.00187006 0)
(0 0.00208673 0)
(0 0.00199424 0)
(0 0.00221289 0)
(0 0.00212163 0)
(0 0.00189695 0)
(0 0.00202452 0)
(0 0.00225067 0)
(0 0.00215206 0)
(0 0.00191909 0)
(0 0.00204551 0)
(0 0.002281 0)
(0 0.00217664 0)
(0 0.00241472 0)
(0 0.00231458 0)
(0 0.00207052 0)
(0 0.00221111 0)
(0 0.00245482 0)
(0 0.00235109 0)
(0 0.00210071 0)
(0 0.0022404 0)
(0 0.00248903 0)
(0 0.00237707 0)
(0 0.00211926 0)
(0 0.00225654 0)
(0 0.00251395 0)
(0 0.00239624 0)
(0 0.00265291 0)
(0 0.00253856 0)
(0 0.00227555 0)
(0 0.00242007 0)
(0 0.00268086 0)
(0 0.00256363 0)
(0 0.00229672 0)
(0 0.002443 0)
(0 0.00270978 0)
(0 0.00259385 0)
(0 0.00286049 0)
(0 0.00274917 0)
(0 0.00247626 0)
(0 0.00263411 0)
(0 0.0029013 0)
(0 0.00278668 0)
(0 0.00250967 0)
(0 0.00266291 0)
(0 0.00293718 0)
(0 0.00281486 0)
(0 0.00252511 0)
(0 0.0026752 0)
(0 0.00296429 0)
(0 0.00282069 0)
(0 0.00310606 0)
(0 0.00296139 0)
(0 0.00266898 0)
(0 0.0028107 0)
(0 0.0030995 0)
(0 0.00295028 0)
(0 0.00265507 0)
(0 0.00279321 0)
(0 0.00308636 0)
(0 0.00292643 0)
(0 0.00321407 0)
(0 0.00305219 0)
(0 0.00276062 0)
(0 0.00288644 0)
(0 0.00317005 0)
(0 0.00300861 0)
(0 0.00328445 0)
(0 0.00312951 0)
(0 0.00339751 0)
(0 0.00324427 0)
(0 0.00297042 0)
(0 0.00308352 0)
(0 0.00334515 0)
(0 0.00318831 0)
(0 0.00344003 0)
(0 0.00329184 0)
(0 0.00353552 0)
(0 0.00339242 0)
(0 0.00314771 0)
(0 0.00325299 0)
(0 0.0034862 0)
(0 0.00335013 0)
(0 0.00311751 0)
(0 0.00321703 0)
(0 0.00298155 0)
(0 0.00308129 0)
(0 0.00357215 0)
(0 0.00284284 0)
(0 0.00294139 0)
(0 0.00317017 0)
(0 0.00303332 0)
(0 0.00279767 0)
(0 0.00289163 0)
(0 0.0027334 0)
(0 0.00325272 0)
(0 0.0028091 0)
(0 0.00265014 0)
(0 0.00274253 0)
(0 0.00249759 0)
(0 0.00258494 0)
(0 0.00281718 0)
(0 0.00265911 0)
(0 0.00287933 0)
(0 0.00272614 0)
(0 0.00250551 0)
(0 0.00257719 0)
(0 0.00278882 0)
(0 0.00264676 0)
(0 0.00243213 0)
(0 0.00250843 0)
(0 0.00239597 0)
(0 0.00229063 0)
(0 0.00237621 0)
(0 0.00285008 0)
(0 0.00259647 0)
(0 0.00494444 0)
(0 0.000822823 0)
(0 0.00181288 0)
(0 0.00195718 0)
(0 0.00367835 0)
(0 0.00530874 0)
(0 0.00358782 0)
(0 0.00370026 0)
(0 0.00215848 0)
(0 0.00363308 0)
(0 0.00374671 0)
(0 0.00380896 0)
(0 0.00385957 0)
(0 0.00378683 0)
(0 0.00390123 0)
(0 0.0039742 0)
(0 0.0040145 0)
(0 0.00393425 0)
(0 0.00404766 0)
(0 0.00412606 0)
(0 0.00415945 0)
(0 0.00423579 0)
(0 0.00427077 0)
(0 0.00418902 0)
(0 0.00430211 0)
(0 0.00438212 0)
(0 0.00441448 0)
(0 0.00432926 0)
(0 0.00444228 0)
(0 0.00452469 0)
(0 0.00455263 0)
(0 0.0046315 0)
(0 0.00466081 0)
(0 0.00457655 0)
(0 0.00468568 0)
(0 0.00476617 0)
(0 0.004792 0)
(0 0.00470526 0)
(0 0.00481208 0)
(0 0.00489546 0)
(0 0.00491584 0)
(0 0.00482608 0)
(0 0.00493057 0)
(0 0.00501657 0)
(0 0.00503263 0)
(0 0.00511618 0)
(0 0.00513403 0)
(0 0.00504379 0)
(0 0.00514593 0)
(0 0.0052328 0)
(0 0.00524427 0)
(0 0.00532685 0)
(0 0.00533807 0)
(0 0.00525074 0)
(0 0.00534332 0)
(0 0.00542627 0)
(0 0.0054304 0)
(0 0.00534279 0)
(0 0.00542976 0)
(0 0.00551215 0)
(0 0.00551238 0)
(0 0.00542475 0)
(0 0.00550805 0)
(0 0.00559124 0)
(0 0.00558767 0)
(0 0.00566838 0)
(0 0.00566665 0)
(0 0.00558097 0)
(0 0.00566232 0)
(0 0.00574294 0)
(0 0.00574063 0)
(0 0.00565615 0)
(0 0.00573596 0)
(0 0.00581428 0)
(0 0.00580902 0)
(0 0.00587927 0)
(0 0.00587347 0)
(0 0.00579708 0)
(0 0.00586215 0)
(0 0.00594003 0)
(0 0.00591877 0)
(0 0.00584321 0)
(0 0.00589596 0)
(0 0.00596163 0)
(0 0.00593582 0)
(0 0.00599207 0)
(0 0.00596238 0)
(0 0.00590317 0)
(0 0.00592649 0)
(0 0.00597874 0)
(0 0.0059393 0)
(0 0.00598482 0)
(0 0.00594357 0)
(0 0.00586531 0)
(0 0.00598473 0)
(0 0.00594253 0)
(0 0.00589769 0)
(0 0.00589621 0)
(0 0.00593608 0)
(0 0.00588938 0)
(0 0.00584832 0)
(0 0.00583988 0)
(0 0.00587473 0)
(0 0.00582235 0)
(0 0.00117346 0)
(0 0.00121633 0)
(0 0.0011332 0)
(0 0.00133397 0)
(0 0.00126026 0)
(0 0.00138103 0)
(0 0.0013077 0)
(0 0.00118883 0)
(0 0.00123635 0)
(0 0.001112 0)
(0 0.00117239 0)
(0 0.00129146 0)
(0 0.0012271 0)
(0 0.00111494 0)
(0 0.00116498 0)
(0 0.00106019 0)
(0 0.00110611 0)
(0 0.00100732 0)
(0 0.00105705 0)
(0 0.00111959 0)
(0 0.000960667 0)
(0 0.000979143 0)
(0 0.00530176 0)
(0 0.00602172 0)
(0 0.00215259 0)
(0 0.00302042 0)
(0 0.00224141 0)
(0 0.00347041 0)
(0 0.00580011 0)
(0 0.00135535 0)
(0 0.00206738 0)
(0 0.0035421 0)
(0 0.00209643 0)
(0 0.00228391 0)
(0 0.0019084 0)
(0 0.00585237 0)
(0 0.0057973 0)
(0 0.00328749 0)
(0 0.00323581 0)
(0 0.00330526 0)
(0 0.00324462 0)
(0 0.00330665 0)
(0 0.00323926 0)
(0 0.00329736 0)
(0 0.00322263 0)
(0 0.00327399 0)
(0 0.00319468 0)
(0 0.00324107 0)
(0 0.0031474 0)
(0 0.00315642 0)
(0 0.00320431 0)
(0 0.00311189 0)
(0 0.00316078 0)
(0 0.0032576 0)
(0 0.00321419 0)
(0 0.00331462 0)
(0 0.00327054 0)
(0 0.0033724 0)
(0 0.00332918 0)
(0 0.00343272 0)
(0 0.00339243 0)
(0 0.00349569 0)
(0 0.00345503 0)
(0 0.00356012 0)
(0 0.00351929 0)
(0 0.00362667 0)
(0 0.00358303 0)
(0 0.00369248 0)
(0 0.00364437 0)
(0 0.00375682 0)
(0 0.00371146 0)
(0 0.00382411 0)
(0 0.00378087 0)
(0 0.00389452 0)
(0 0.00385236 0)
(0 0.00396719 0)
(0 0.00392557 0)
(0 0.00404116 0)
(0 0.00399967 0)
(0 0.0031108 0)
(0 0.00328157 0)
(0 0.00352154 0)
(0 0.00411854 0)
(0 0.00407644 0)
(0 0.00373091 0)
(0 0.00393472 0)
(0 0.00403014 0)
(0 0.00385966 0)
(0 0.00419693 0)
(0 0.00367114 0)
(0 0.00390462 0)
(0 0.00398496 0)
(0 0.00423091 0)
(0 0.00431191 0)
(0 0.00385477 0)
(0 0.00393539 0)
(0 0.00406877 0)
(0 0.00433945 0)
(0 0.00442277 0)
(0 0.00401958 0)
(0 0.00415476 0)
(0 0.00347266 0)
(0 0.0034656 0)
(0 0.00213004 0)
(0 0.00318075 0)
(0 0.00509023 0)
(0 0.00388195 0)
(0 0.00396655 0)
(0 0.000957304 0)
(0 0.000870222 0)
(0 0.000887775 0)
(0 0.000851674 0)
(0 0.00208717 0)
(0 0.00105856 0)
(0 0.00102118 0)
(0 0.00166533 0)
(0 0.00394434 0)
(0 0.00193414 0)
(0 0.00335572 0)
(0 0.00117021 0)
(0 0.00582361 0)
(0 0.00587918 0)
(0 0.0057654 0)
(0 0.00574005 0)
(0 0.0036441 0)
(0 0.00444166 0)
(0 0.0043599 0)
(0 0.00452676 0)
(0 0.00450877 0)
(0 0.00223537 0)
(0 0.00241888 0)
(0 0.00197068 0)
(0 0.00570606 0)
(0 0.00568031 0)
(0 0.00183454 0)
(0 0.000777482 0)
(0 0.000794112 0)
(0 0.00326308 0)
(0 0.0037817 0)
(0 0.00382526 0)
(0 0.00202976 0)
(0 0.00179918 0)
(0 0.00184852 0)
(0 0.000950393 0)
(0 0.000921833 0)
(0 0.00169998 0)
(0 0.00165984 0)
(0 0.00391291 0)
(0 0.00461261 0)
(0 0.00459505 0)
(0 0.00445459 0)
(0 0.00437285 0)
(0 0.00478203 0)
(0 0.00237598 0)
(0 0.00255479 0)
(0 0.0026007 0)
(0 0.00253399 0)
(0 0.00263021 0)
(0 0.00256674 0)
(0 0.00266563 0)
(0 0.0026009 0)
(0 0.00270309 0)
(0 0.00263705 0)
(0 0.00274327 0)
(0 0.00267601 0)
(0 0.00256599 0)
(0 0.00260408 0)
(0 0.00271748 0)
(0 0.00264537 0)
(0 0.00275992 0)
(0 0.00268887 0)
(0 0.00280498 0)
(0 0.00273377 0)
(0 0.00285303 0)
(0 0.00278084 0)
(0 0.00289986 0)
(0 0.00283202 0)
(0 0.0029529 0)
(0 0.00288657 0)
(0 0.00300779 0)
(0 0.00294219 0)
(0 0.00306394 0)
(0 0.0030006 0)
(0 0.00312813 0)
(0 0.00306202 0)
(0 0.00578729 0)
(0 0.00211477 0)
(0 0.00219172 0)
(0 0.000682265 0)
(0 0.000697922 0)
(0 0.00319539 0)
(0 0.00312885 0)
(0 0.000988307 0)
(0 0.000892855 0)
(0 0.00258662 0)
(0 0.00271523 0)
(0 0.00268637 0)
(0 0.00188829 0)
(0 0.00165371 0)
(0 0.00297458 0)
(0 0.00256912 0)
(0 0.000860108 0)
(0 0.000882097 0)
(0 0.00564468 0)
(0 0.00561954 0)
(0 0.00564975 0)
(0 0.00225962 0)
(0 0.00246491 0)
(0 0.00306877 0)
(0 0.0041763 0)
(0 0.00168142 0)
(0 0.003199 0)
(0 0.00175456 0)
(0 0.00446091 0)
(0 0.00437825 0)
(0 0.00374043 0)
(0 0.0036815 0)
(0 0.00360121 0)
(0 0.00566294 0)
(0 0.00298807 0)
(0 0.00303865 0)
(0 0.0031702 0)
(0 0.00320883 0)
(0 0.00308372 0)
(0 0.00333113 0)
(0 0.00324143 0)
(0 0.00312243 0)
(0 0.00326856 0)
(0 0.00315331 0)
(0 0.00221869 0)
(0 0.0022963 0)
(0 0.00213867 0)
(0 0.00601682 0)
(0 0.00605083 0)
(0 0.00604134 0)
(0 0.00607273 0)
(0 0.00608109 0)
(0 0.00605855 0)
(0 0.00376643 0)
(0 0.00390399 0)
(0 0.00398371 0)
(0 0.00411655 0)
(0 0.00418646 0)
(0 0.00431832 0)
(0 0.00437333 0)
(0 0.00424379 0)
(0 0.00424161 0)
(0 0.00441544 0)
(0 0.00428546 0)
(0 0.0044475 0)
(0 0.00432212 0)
(0 0.00447382 0)
(0 0.00435323 0)
(0 0.00420094 0)
(0 0.00423576 0)
(0 0.00408114 0)
(0 0.00411773 0)
(0 0.00426427 0)
(0 0.00414786 0)
(0 0.00399711 0)
(0 0.00402973 0)
(0 0.00387954 0)
(0 0.00391121 0)
(0 0.00376476 0)
(0 0.00564769 0)
(0 0.00187602 0)
(0 0.00541613 0)
(0 0.00203975 0)
(0 0.00237791 0)
(0 0.00336639 0)
(0 0.00505079 0)
(0 0.00338423 0)
(0 0.00323957 0)
(0 0.0033738 0)
(0 0.00349638 0)
(0 0.00362326 0)
(0 0.00373294 0)
(0 0.00385724 0)
(0 0.00296954 0)
(0 0.00216936 0)
(0 0.00581951 0)
(0 0.00394459 0)
(0 0.00276384 0)
(0 0.00435156 0)
(0 0.003118 0)
(0 0.00322077 0)
(0 0.00336534 0)
(0 0.00199218 0)
(0 0.00601419 0)
(0 0.00396198 0)
(0 0.00143329 0)
(0 0.00150777 0)
(0 0.00156386 0)
(0 0.00163895 0)
(0 0.00290111 0)
(0 0.00300247 0)
(0 0.00313773 0)
(0 0.00566542 0)
(0 0.00573985 0)
(0 0.00573195 0)
(0 0.00580242 0)
(0 0.00579069 0)
(0 0.00585546 0)
(0 0.0058669 0)
(0 0.0059144 0)
(0 0.00592588 0)
(0 0.00251115 0)
(0 0.00264673 0)
(0 0.00273396 0)
(0 0.00286921 0)
(0 0.00180585 0)
(0 0.00509263 0)
(0 0.00519047 0)
(0 0.00516081 0)
(0 0.00525691 0)
(0 0.00522235 0)
(0 0.00531516 0)
(0 0.00459813 0)
(0 0.00470091 0)
(0 0.0046626 0)
(0 0.0047625 0)
(0 0.00471864 0)
(0 0.00419604 0)
(0 0.00430393 0)
(0 0.00425583 0)
(0 0.00436619 0)
(0 0.00229767 0)
(0 0.00242492 0)
(0 0.00249995 0)
(0 0.00262507 0)
(0 0.00207116 0)
(0 0.00236342 0)
(0 0.00178644 0)
(0 0.00116029 0)
(0 0.00164948 0)
(0 0.00219264 0)
(0 0.0022573 0)
(0 0.00238014 0)
(0 0.00189976 0)
(0 0.00194614 0)
(0 0.00206119 0)
(0 0.00210027 0)
(0 0.00483512 0)
(0 0.000936441 0)
(0 0.00157575 0)
(0 0.00168248 0)
(0 0.0017097 0)
(0 0.00181853 0)
(0 0.00183943 0)
(0 0.00195134 0)
(0 0.00196682 0)
(0 0.00185486 0)
(0 0.00197507 0)
(0 0.00186492 0)
(0 0.00197848 0)
(0 0.00186929 0)
(0 0.00148357 0)
(0 0.00300276 0)
(0 0.00128132 0)
(0 0.00231971 0)
(0 0.00274357 0)
(0 0.00250302 0)
(0 0.00249325 0)
(0 0.00129823 0)
(0 0.00115155 0)
(0 0.00307061 0)
(0 0.00362796 0)
(0 0.00301386 0)
(0 0.00313502 0)
(0 0.00311562 0)
(0 0.000788759 0)
(0 0.000721821 0)
(0 0.000689982 0)
(0 0.000621951 0)
(0 0.000592233 0)
(0 0.000650986 0)
(0 0.00054977 0)
(0 0.000576195 0)
(0 0.00531331 0)
(0 0.00314643 0)
(0 0.00515713 0)
(0 0.000898642 0)
(0 0.00309391 0)
(0 0.00117748 0)
(0 0.0011068 0)
(0 0.00100622 0)
(0 0.000929908 0)
(0 0.000657276 0)
(0 0.00056176 0)
(0 0.000623639 0)
(0 0.000530609 0)
(0 0.000589232 0)
(0 0.000499064 0)
(0 0.000554269 0)
(0 0.000467169 0)
(0 0.000518886 0)
(0 0.00043509 0)
(0 0.000483211 0)
(0 0.000402936 0)
(0 0.000447361 0)
(0 0.000370816 0)
(0 0.000411412 0)
(0 0.000486349 0)
(0 0.000446498 0)
(0 0.00037551 0)
(0 0.000406541 0)
(0 0.000339707 0)
(0 0.000366541 0)
(0 0.000431907 0)
(0 0.000387617 0)
(0 0.000451696 0)
(0 0.000403062 0)
(0 0.000343419 0)
(0 0.000354506 0)
(0 0.00041282 0)
(0 0.000299517 0)
(0 0.000359908 0)
(0 0.000416946 0)
(0 0.000359622 0)
(0 0.000415465 0)
(0 0.000353695 0)
(0 0.00040839 0)
(0 0.000302517 0)
(0 0.000474678 0)
(0 0.000466445 0)
(0 0.000395659 0)
(0 0.000452551 0)
(0 0.000377268 0)
(0 0.000433117 0)
(0 0.000513075 0)
(0 0.000492713 0)
(0 0.000408363 0)
(0 0.000467432 0)
(0 0.000474375 0)
(0 0.000500118 0)
(0 0.000537375 0)
(0 0.000304057 0)
(0 0.00244499 0)
(0 0.00105054 0)
(0 0.000665938 0)
(0 0.00101077 0)
(0 0.00092308 0)
(0 0.000877764 0)
(0 0.000794425 0)
(0 0.000744017 0)
(0 0.000664452 0)
(0 0.00384748 0)
(0 0.00386924 0)
(0 0.0037537 0)
(0 0.00376896 0)
(0 0.00365271 0)
(0 0.00388551 0)
(0 0.00377916 0)
(0 0.00389694 0)
(0 0.000977059 0)
(0 0.00188888 0)
(0 0.00264335 0)
(0 0.00137098 0)
(0 0.00127915 0)
(0 0.00116869 0)
(0 0.00107119 0)
(0 0.00208788 0)
(0 0.00056549 0)
(0 0.00445551 0)
(0 0.000854054 0)
(0 0.00153021 0)
(0 0.00142521 0)
(0 0.00337146 0)
(0 0.00168164 0)
(0 0.00156256 0)
(0 0.00143999 0)
(0 0.00131659 0)
(0 0.00472802 0)
(0 0.00473162 0)
(0 0.00462155 0)
(0 0.00461928 0)
(0 0.00450674 0)
(0 0.00417774 0)
(0 0.00143984 0)
(0 0.00501903 0)
(0 0.00383319 0)
(0 0.00532826 0)
(0 0.00531471 0)
(0 0.00522208 0)
(0 0.00520304 0)
(0 0.00510745 0)
(0 0.00508345 0)
(0 0.00518098 0)
(0 0.00512774 0)
(0 0.00518331 0)
(0 0.00185474 0)
(0 0.00172225 0)
(0 0.00158448 0)
(0 0.00144628 0)
(0 0.00283399 0)
(0 0.00562809 0)
(0 0.00202074 0)
(0 0.00188732 0)
(0 0.00575972 0)
(0 0.00573472 0)
(0 0.00566942 0)
(0 0.0056411 0)
(0 0.00557264 0)
(0 0.00553921 0)
(0 0.00560688 0)
(0 0.00439614 0)
(0 0.00436267 0)
(0 0.000827718 0)
(0 0.00119534 0)
(0 0.00128069 0)
(0 0.0061319 0)
(0 0.00222773 0)
(0 0.00207439 0)
(0 0.00192501 0)
(0 0.00176555 0)
(0 0.00161779 0)
(0 0.0036376 0)
(0 0.00572066 0)
(0 0.00287383 0)
(0 0.00120385 0)
(0 0.00235342 0)
(0 0.00218698 0)
(0 0.0044525 0)
(0 0.00123905 0)
(0 0.000996133 0)
(0 0.0061135 0)
(0 0.00612729 0)
(0 0.00577592 0)
(0 0.00570642 0)
(0 0.00405432 0)
(0 0.00400357 0)
(0 0.00414594 0)
(0 0.00580243 0)
(0 0.00575392 0)
(0 0.00575006 0)
(0 0.00569992 0)
(0 0.0056902 0)
(0 0.0026962 0)
(0 0.00558882 0)
(0 0.00130876 0)
(0 0.00119748 0)
(0 0.00102968 0)
(0 0.00493517 0)
(0 0.00450952 0)
(0 0.00468241 0)
(0 0.0016974 0)
(0 0.00177383 0)
(0 0.00459733 0)
(0 0.00450457 0)
(0 0.00441236 0)
(0 0.00496135 0)
(0 0.00531836 0)
(0 0.0052982 0)
(0 0.000292281 0)
(0 0.000245943 0)
(0 0.00158368 0)
(0 0.0014254 0)
(0 0.001333 0)
(0 0.0051276 0)
(0 0.0017379 0)
(0 0.00159987 0)
(0 0.00145169 0)
(0 0.00304704 0)
(0 0.0017768 0)
(0 0.000749074 0)
(0 0.000717826 0)
(0 0.0061044 0)
(0 0.00611497 0)
(0 0.00613657 0)
(0 0.00230545 0)
(0 0.00380705 0)
(0 0.00204327 0)
(0 0.0018719 0)
(0 0.00172775 0)
(0 0.00508037 0)
(0 0.00462389 0)
(0 0.00156682 0)
(0 0.00283091 0)
(0 0.00267002 0)
(0 0.00541671 0)
(0 0.00561447 0)
(0 0.00155044 0)
(0 0.00172573 0)
(0 0.0028791 0)
(0 0.00457057 0)
(0 0.00335017 0)
(0 0.00427673 0)
(0 0.00415159 0)
(0 0.0040473 0)
(0 0.00064344 0)
(0 0.000606841 0)
(0 0.000537306 0)
(0 0.00400214 0)
(0 0.000833114 0)
(0 0.00090864 0)
(0 0.00273476 0)
(0 0.00365608 0)
(0 0.00392509 0)
(0 0.0037978 0)
(0 0.00209474 0)
(0 0.00610174 0)
(0 0.00272066 0)
(0 0.00108428 0)
(0 0.00130932 0)
(0 0.00469996 0)
(0 0.00468309 0)
(0 0.00249046 0)
(0 0.000495231 0)
(0 0.00450065 0)
(0 0.00461208 0)
(0 0.00431427 0)
(0 0.00441422 0)
(0 0.00385648 0)
(0 0.000963766 0)
(0 0.00180583 0)
(0 0.00150866 0)
(0 0.00457185 0)
(0 0.00294448 0)
(0 0.00147015 0)
(0 0.00493151 0)
(0 0.00379262 0)
(0 0.0036456 0)
(0 0.00268903 0)
(0 0.00174229 0)
(0 0.00149787 0)
(0 0.00457323 0)
(0 0.0033752 0)
(0 0.00449504 0)
(0 0.00550073 0)
(0 0.00556704 0)
(0 0.00243657 0)
(0 0.00231548 0)
(0 0.0031824 0)
(0 0.00610645 0)
(0 0.00049524 0)
(0 0.00353562 0)
(0 0.00323057 0)
(0 0.00559902 0)
(0 0.00354305 0)
(0 0.00561056 0)
(0 0.0011764 0)
(0 0.00127726 0)
(0 0.00228072 0)
(0 0.00216761 0)
(0 0.0032649 0)
(0 0.00319861 0)
(0 0.00421959 0)
(0 0.00378489 0)
(0 0.00390434 0)
(0 0.002377 0)
(0 0.0017473 0)
(0 0.00178602 0)
(0 0.00308455 0)
(0 0.00612071 0)
(0 0.00609509 0)
(0 0.000410396 0)
(0 0.000847947 0)
(0 0.00030692 0)
(0 0.00154857 0)
(0 0.00169706 0)
(0 0.00500968 0)
(0 0.00503034 0)
(0 0.00118925 0)
(0 0.00543401 0)
(0 0.000568894 0)
(0 0.000552829 0)
(0 0.000739952 0)
(0 0.000815113 0)
(0 0.00305956 0)
(0 0.00313137 0)
(0 0.00461147 0)
(0 0.0056384 0)
(0 0.00562267 0)
(0 0.00567645 0)
(0 0.00560044 0)
(0 0.00211816 0)
(0 0.00340469 0)
(0 0.00575753 0)
(0 0.00568781 0)
(0 0.00296361 0)
(0 0.00596732 0)
(0 0.000609281 0)
(0 0.000687921 0)
(0 0.00602801 0)
(0 0.00604082 0)
(0 0.00439188 0)
(0 0.00439469 0)
(0 0.00397333 0)
(0 0.000378013 0)
(0 0.00509117 0)
(0 0.00555551 0)
(0 0.00366769 0)
(0 0.00226602 0)
(0 0.00237156 0)
(0 0.00565571 0)
(0 0.00557019 0)
(0 0.00555738 0)
(0 0.00556336 0)
(0 0.00555242 0)
(0 0.0051411 0)
(0 0.00381935 0)