/*--------------------------------*- C++ -*----------------------------------*\
| =========                 |                                                 |
| \\      /  F ield         | OpenFOAM: The Open Source CFD Toolbox           |
|  \\    /   O peration     | Version:  v2012                                 |
|   \\  /    A nd           | Website:  www.openfoam.com                      |
|    \\/     M anipulation  |                                                 |
\*---------------------------------------------------------------------------*/
FoamFile
{
    version     2.0;
    format      ascii;
    class       volVectorField;
    location    "850";
    object      U;
}
// * * * * * * * * * * * * * * * * * * * * * * * * * * * * * * * * * * * * * //

dimensions      [0 1 -1 0 0 0 0];


internalField   nonuniform List<vector> 
9793
(
(0.961857 -0.0687255 0)
(0.882231 -0.0598437 5.17074e-23)
(0.953035 -0.0607706 -2.67756e-22)
(1.01485 0.000475121 0)
(0.960057 -0.338039 -1.46899e-20)
(1.00811 0.00314328 6.08918e-22)
(1.0149 -0.000238244 2.09121e-22)
(1.0189 0.000166142 1.61107e-21)
(1.02088 -0.000517954 -3.21599e-22)
(0.955207 -0.321635 2.79672e-20)
(1.09176 -0.0220768 -2.54716e-22)
(0.962317 0.0214539 -7.23287e-22)
(1.01491 0.000397959 0)
(1.01722 0.00753208 1.77006e-22)
(1.00547 -4.73321e-05 0)
(1.01843 0.00739862 -5.28014e-22)
(1.01504 -0.00150411 -1.21913e-21)
(1.01474 -0.00130242 0)
(0.826907 0.259776 0)
(1.01802 0.00790325 4.23242e-22)
(1.0044 -0.0319257 -5.07613e-21)
(1.01427 -0.0109329 -2.1854e-21)
(1.03904 -0.0350787 2.24511e-22)
(1.01612 -0.000424109 0)
(1.02155 0.0119224 0)
(1.01476 0.000265658 0)
(1.02057 0.00851366 -1.36105e-22)
(1.01576 -0.00250245 1.16618e-21)
(1.04882 -0.0529232 0)
(1.02051 -0.000645011 -3.05333e-22)
(0.998236 0.00936736 7.3288e-21)
(1.03267 -0.0319667 -1.7479e-22)
(0.863273 -0.118249 -6.94499e-21)
(1.01062 4.70343e-05 0)
(1.04386 -0.0614647 9.99362e-22)
(1.02077 -0.0694566 -6.40879e-21)
(1.01282 5.39735e-05 0)
(1.01358 -0.0103056 0)
(1.021 0.000321897 0)
(1.01408 -0.000251224 0)
(0.99931 0.0104056 -6.71948e-21)
(1.00871 -0.000114483 0)
(1.01354 6.42023e-05 1.21089e-21)
(1.01456 -0.000246596 3.04558e-21)
(1.01274 1.22438e-05 2.00809e-21)
(1.01449 0.00028747 0)
(1.0506 -0.0570631 1.18672e-21)
(0.976561 -0.00598852 -1.07645e-21)
(1.01278 0.0289471 0)
(1.01483 0.000548652 -7.78117e-22)
(1.04395 -0.0660092 1.72038e-21)
(1.09529 -0.0388624 1.67724e-21)
(1.0078 0.000823032 0)
(1.01911 -0.00341043 -5.10074e-21)
(1.08305 -0.164592 0)
(0.913274 -0.0461506 0)
(1.01586 0.000864129 0)
(1.13771 0.0366219 0)
(1.10656 0.0756606 0)
(1.02064 0.00021467 1.16466e-21)
(1.01257 -0.000181152 0)
(1.00832 -0.00126145 0)
(1.03861 0.0558198 1.90704e-22)
(1.01269 -3.63251e-05 2.49569e-21)
(1.02443 -0.366531 0)
(0.969734 -0.0732657 2.4028e-21)
(1.0392 0.043687 3.32351e-22)
(1.02556 0.0311863 1.06804e-21)
(0.96851 0.0219064 0)
(1.08801 -0.0258152 0)
(1.06962 -0.165478 0)
(1.01341 -0.000177697 0)
(1.01402 0.00201239 -3.36993e-21)
(0.994734 -0.0168813 3.08182e-22)
(1.03883 -0.0733204 0)
(1.11624 0.040719 0)
(1.01611 0.000561416 0)
(1.01405 -0.00176688 1.75218e-23)
(1.01717 -0.0060965 9.03566e-22)
(1.0159 -0.00320751 -1.22447e-21)
(0.981368 -0.0487167 2.63165e-21)
(1.01872 -0.00709547 8.76041e-22)
(0.855522 -0.0737785 -4.93142e-22)
(1.00271 -0.0119745 -2.6626e-23)
(1.00091 0.00909575 -6.18741e-21)
(0.987385 -0.0095418 -1.10299e-21)
(1.01563 -0.00331378 0)
(1.01635 0.000263969 -2.10293e-23)
(1.00924 -0.00078131 0)
(1.02042 -0.00856361 8.65961e-22)
(0.889235 -0.0692584 -9.12687e-22)
(1.08561 -0.285248 1.54812e-20)
(1.01536 -0.0007475 2.55902e-22)
(1.02641 -0.0352454 1.0007e-22)
(1.00883 -0.00129578 -4.17039e-22)
(1.00514 -0.0143413 2.67045e-23)
(0.936263 -0.0478369 -2.03142e-22)
(0.861651 -0.0744361 4.6175e-22)
(1.0153 -0.000672251 5.26713e-22)
(1.01479 0.000740233 0)
(1.0148 0.000956747 2.65709e-24)
(1.0246 -0.00785298 4.61203e-22)
(1.01557 -0.000999884 -1.28238e-21)
(1.01551 -0.00100174 0)
(1.01438 -0.00206921 -3.76572e-24)
(1.00196 0.00975883 5.3381e-21)
(1.00968 -0.000914897 0)
(1.01329 -0.000251341 3.93326e-23)
(1.0084 0.000701649 0)
(0.972087 0.0239101 0)
(1.01241 -0.000235525 2.62398e-25)
(0.972925 -0.0221394 3.47447e-22)
(1.01478 0.000873136 0)
(0.909628 -0.118987 -2.76727e-21)
(1.09239 -0.0462268 -1.208e-21)
(1.01616 0.000736466 0)
(0.874959 -0.0926147 1.5938e-21)
(1.03248 -0.072214 0)
(1.01826 -0.00753327 1.77285e-21)
(1.0228 -0.0323811 -2.9576e-22)
(0.969685 0.0154228 -9.27783e-22)
(1.00524 -1.43643e-05 0)
(1.01508 -0.000397892 0)
(1.00755 0.00363652 2.82343e-21)
(1.02146 -0.00629727 3.02579e-21)
(0.995842 -0.0316744 0)
(1.0604 0.000773086 0)
(0.99083 -0.0132454 -1.12561e-21)
(1.0168 -0.00635928 -4.39686e-22)
(1.01387 0.000736899 9.57085e-22)
(1.01179 -0.000174903 1.40703e-23)
(1.01643 0.000413767 -2.27759e-21)
(1.01386 0.000758124 -1.11682e-21)
(1.02926 -0.00522556 -1.98925e-21)
(1.02003 -0.000287947 0)
(1.01653 -2.38675e-05 0)
(1.01191 -2.71518e-05 -2.54144e-21)
(1.01483 -0.000233305 -7.77997e-22)
(1.01457 0.000796656 4.47004e-22)
(1.01796 0.000158815 1.0352e-22)
(1.01488 -0.000324015 -2.18681e-21)
(1.02316 0.010825 3.22557e-22)
(1.01582 8.9153e-05 -2.40557e-21)
(1.01464 0.0019166 -7.32117e-22)
(1.01671 0.00799252 0)
(1.01609 0.00952608 -3.90575e-22)
(0.987828 -0.000495476 -2.46369e-23)
(1.0146 0.001624 0)
(1.01542 -0.000791824 -9.80484e-22)
(1.11163 -0.290779 1.95814e-20)
(0.779737 -0.295719 -4.85008e-20)
(1.01148 -0.000176958 -5.97775e-23)
(0.773041 -0.330069 7.87295e-20)
(0.937902 -0.303669 -5.60473e-21)
(1.01535 -0.000745716 0)
(1.00869 5.33944e-05 -1.8998e-23)
(1.016 -0.000197687 4.32995e-24)
(1.02338 0.00992518 -1.3249e-21)
(1.01472 0.00140085 0)
(1.01594 8.06357e-05 3.0838e-22)
(1.01922 9.45584e-05 2.19258e-21)
(1.0157 -0.00231067 1.44834e-21)
(1.02109 0.00639799 1.02707e-22)
(0.938452 0.240533 8.40265e-23)
(0.985753 -0.0106586 -4.59324e-22)
(1.0125 -0.0392058 4.30595e-21)
(0.979409 -0.0121783 0)
(1.0215 -0.0234238 2.50486e-21)
(1.0208 0.007782 1.37063e-22)
(1.02343 -0.00547745 1.3511e-21)
(1.01532 0.0056931 0)
(0.843594 -0.249286 0)
(0.976845 -0.0129341 -5.98791e-22)
(0.843029 -0.278472 -6.83973e-21)
(1.02184 -0.00543002 0)
(0.869544 0.233139 -1.01256e-22)
(1.01662 0.000115228 -2.29576e-23)
(1.01632 -0.000940825 -2.58069e-23)
(1.01379 0.000901261 -2.00094e-21)
(1.04108 -0.0212905 2.99011e-21)
(0.553838 0.376658 -1.32338e-21)
(1.02933 -0.00427175 -3.19201e-21)
(1.01471 0.00112336 6.77757e-22)
(1.02191 0.0109858 -3.41527e-22)
(1.07571 -0.120785 -9.7679e-21)
(1.01412 0.00202181 3.03676e-21)
(1.15616 0.042041 0)
(1.01381 0.00102237 0)
(1.01475 -0.000426572 0)
(1.02036 0.00646037 1.40999e-22)
(1.02233 -0.00526155 0)
(1.01318 0.000249126 6.30286e-23)
(1.01512 0.0261526 1.53225e-21)
(0.979474 -0.0275382 -3.10627e-21)
(1.0253 0.0383747 -1.5455e-21)
(1.04029 -0.0201286 -2.63154e-21)
(0.904018 -0.0719946 7.59048e-22)
(1.0208 -0.00542328 0)
(0.912967 -0.315383 0)
(1.01779 0.000109148 -1.10923e-22)
(1.01972 -0.00038564 0)
(1.03008 0.16097 7.69762e-23)
(0.901834 -0.0639452 0)
(1.01387 0.000616809 0)
(1.0168 -0.000189537 0)
(1.01473 -0.00153335 6.51321e-23)
(1.00891 -0.0536569 0)
(1.0159 0.00489563 0)
(1.00323 0.00863844 -4.62692e-21)
(1.02462 -0.00950794 0)
(1.03825 -0.0323407 0)
(1.01351 0.0240261 -1.44803e-21)
(1.01252 0.0325351 0)
(1.01957 -0.00368509 1.45252e-21)
(0.886741 -0.0769849 -1.18793e-22)
(1.01619 -0.000226718 1.45815e-23)
(1.02557 -0.00484764 2.03299e-21)
(1.07075 -0.127472 4.12416e-21)
(1.015 -0.00179984 -7.39374e-23)
(0.977806 0.0910945 -2.5761e-22)
(1.00776 -0.0869248 0)
(1.01552 -0.000163939 -4.0951e-21)
(1.022 -0.00614109 0)
(1.01309 0.000247392 -1.65352e-21)
(0.999367 -0.0138522 0)
(0.978487 0.202701 0)
(1.00811 0.00228513 -5.92264e-22)
(1.01535 -0.000773554 -1.03804e-21)
(1.01633 -0.0887422 1.90899e-21)
(1.07659 -0.0308365 5.51723e-22)
(1.01609 -0.000755395 -2.26662e-23)
(1.01616 -0.000681207 3.42458e-24)
(1.03009 -0.00429635 2.60996e-21)
(1.01741 -5.14699e-06 4.95576e-23)
(1.07106 -0.00329301 0)
(0.987026 0.0813149 0)
(1.01439 0.000586305 -2.05591e-21)
(1.01578 0.00485544 -3.04273e-21)
(0.943059 -0.03476 -5.90324e-21)
(1.02194 -0.00732711 8.23374e-22)
(1.00416 0.00918639 6.6421e-21)
(1.01595 0.00674321 -8.76229e-22)
(1.01677 0.00481912 -2.32026e-23)
(0.904258 -0.0982059 6.89521e-22)
(1.01585 0.00425632 -1.19132e-23)
(1.01534 -0.000710717 0)
(1.01866 4.51192e-05 -1.73287e-21)
(1.02456 0.00952823 -1.20291e-21)
(1.0154 -0.000769031 -5.18811e-22)
(1.01174 4.3121e-05 4.12857e-22)
(1.01524 -0.00427715 -1.90161e-21)
(1.03049 -0.0155735 0)
(1.08398 -0.0467225 3.11759e-22)
(1.06531 -0.000569551 -3.10076e-21)
(1.01684 0.00392781 2.69768e-21)
(1.01062 -0.00949866 0)
(1.01486 0.00498219 7.73319e-22)
(1.03082 -0.0167854 0)
(1.00887 0.00748196 0)
(1.0156 0.00410746 4.61905e-22)
(0.980595 -0.0106572 2.13833e-21)
(1.01565 0.00445953 0)
(1.07993 -0.0529223 -3.21987e-22)
(1.0128 4.68804e-05 4.29909e-22)
(1.0226 -0.0250659 -5.18458e-21)
(1.0156 -0.00109246 0)
(1.01573 -0.00130673 -1.35848e-23)
(1.0358 -0.033615 3.05075e-21)
(1.06193 0.152738 -8.46848e-22)
(1.0103 -0.000352422 6.14807e-21)
(1.01532 0.00383999 0)
(1.01924 0.00380251 9.34047e-23)
(1.00896 -0.0171021 0)
(1.01583 -9.68619e-05 0)
(0.923836 -0.0549111 0)
(0.922501 -0.0466625 -2.22706e-22)
(1.01386 0.000630683 2.41038e-21)
(0.979124 -0.0369451 3.47402e-22)
(1.01297 -3.35742e-05 1.66589e-21)
(1.06312 0.0020239 0)
(1.02463 0.00855639 0)
(1.01604 -0.00120007 -5.72521e-23)
(1.01183 -0.000149844 2.6592e-21)
(1.01417 -0.000249029 0)
(1.05866 0.00211124 4.68796e-21)
(1.01547 -0.000223261 -1.34994e-21)
(1.01489 -0.00402344 0)
(1.02585 -0.0224312 2.23274e-21)
(1.01616 -0.000177285 8.24123e-22)
(1.01669 -0.000311824 -2.49584e-21)
(1.01458 0.000656568 3.7042e-21)
(0.88201 -0.108956 0)
(1.00939 0.00103704 -4.30525e-23)
(1.01288 -0.000171095 -8.01605e-22)
(1.01168 -0.000224964 0)
(1.0286 -0.00633396 9.86965e-22)
(1.02018 -0.00791989 1.36793e-21)
(1.02617 -0.0235297 -2.41489e-21)
(1.01325 3.07099e-05 2.88803e-21)
(1.05242 0.278096 5.16132e-20)
(1.01541 -0.000808242 -5.78518e-22)
(0.867692 0.160426 -3.70977e-21)
(0.736814 -0.0604945 3.20646e-21)
(1.01157 -4.72345e-05 0)
(1.01388 -0.000277788 1.6051e-21)
(1.01479 0.00277429 -7.73939e-22)
(1.00759 -0.0175918 2.85597e-21)
(1.01844 -0.0179339 -1.39483e-21)
(1.02548 0.00713 -1.30363e-21)
(0.860734 0.133121 0)
(1.01241 -0.000141732 0)
(1.01495 0.00300704 0)
(1.01742 -0.0183749 1.72784e-22)
(1.01339 -0.00375561 0)
(1.01609 -0.00307587 -3.97979e-21)
(1.02084 -0.00788746 0)
(0.996714 -0.0106421 9.73477e-22)
(1.01927 0.00544171 0)
(1.01166 -0.0177945 2.52297e-21)
(1.02546 -0.00982873 0)
(1.01861 0.00394035 0)
(0.989712 -0.0176619 -1.77463e-22)
(0.826538 0.00151682 1.59761e-21)
(0.995646 -0.0119637 -1.40324e-23)
(1.01536 -0.00161074 0)
(0.598146 0.360379 0)
(1.01931 -0.00865328 -1.11813e-23)
(1.09219 0.134239 -2.0808e-20)
(1.02936 -0.0811545 2.3979e-22)
(1.02063 0.00486431 0)
(1.03546 -0.00356435 -1.4789e-21)
(1.02248 -0.0801312 -2.5002e-21)
(1.02448 -0.00681858 1.92185e-21)
(1.00513 0.00819223 -1.31396e-21)
(1.10513 -0.0297162 1.09509e-21)
(1.01837 -0.000268089 -1.42996e-21)
(1.01361 2.93154e-05 -2.82992e-21)
(1.01924 -0.000222893 -4.36231e-21)
(1.01334 0.000143521 6.0771e-22)
(1.01573 -0.00268849 -1.45834e-21)
(0.9361 -0.0821137 0)
(1.01378 0.00116959 0)
(1.01826 0.0036934 -1.43636e-21)
(1.03943 0.168141 -5.3976e-20)
(1.02274 -0.00726269 2.62535e-21)
(1.01919 0.0075489 -2.25231e-22)
(1.01534 -0.00121691 -7.81606e-24)
(1.01587 -0.0088047 -3.95725e-21)
(1.01866 -0.000190814 6.27468e-24)
(0.920651 -0.090294 1.2613e-21)
(1.02091 -0.00713895 0)
(1.01578 -0.001106 7.84886e-22)
(1.01369 -0.00270941 0)
(1.02362 -0.00807772 -4.77416e-22)
(0.845172 -0.165609 0)
(1.01901 -0.00305047 5.34001e-21)
(1.00467 -0.00534645 -5.59109e-22)
(1.01623 -0.0009417 0)
(1.05547 -0.0333709 -2.07669e-21)
(1.06392 -0.187717 0)
(1.1636 0.0227962 0)
(1.05812 -0.0347665 1.20782e-22)
(1.0155 -0.00808127 4.05728e-21)
(1.03196 -0.00667 3.22941e-21)
(0.851977 -0.0663843 0)
(1.0123 -0.000196497 6.12505e-22)
(0.980064 -0.019401 -2.08673e-21)
(1.02033 -0.00706893 1.88225e-21)
(1.0172 -1.27552e-05 0)
(0.761973 -0.0416235 0)
(1.00595 0.00859817 0)
(0.785842 0.000107111 0)
(1.01585 -0.00104679 -7.63122e-22)
(1.07513 -0.00270274 0)
(1.04058 -0.0684561 1.65107e-21)
(1.01482 0.0138346 0)
(1.01421 0.0018385 1.71441e-21)
(0.852847 -0.118939 1.98168e-21)
(1.04012 -0.0140453 -1.40933e-21)
(0.988866 -0.00535834 2.91217e-22)
(1.01118 -0.0102703 2.17257e-21)
(1.01915 -0.00248783 2.7003e-21)
(0.964003 -0.202571 3.33616e-21)
(1.01322 1.19551e-05 -5.53456e-21)
(1.01828 -0.0092876 -1.92612e-21)
(1.01152 5.92405e-06 2.11147e-22)
(1.01339 -0.000218458 0)
(1.01968 0.00844035 0)
(1.01937 -0.00288012 0)
(1.0121 -0.0100007 -5.06765e-21)
(0.840533 -0.174798 -5.84153e-21)
(1.02164 -0.00427286 3.56492e-21)
(0.773987 0.265429 2.53145e-20)
(1.0085 -0.0465737 0)
(0.849539 -0.0371962 -1.59843e-21)
(1.07733 -0.0254565 -2.98792e-21)
(0.9986 -0.00520329 -1.42663e-22)
(1.01373 -0.000142681 0)
(1.01916 -2.45944e-05 3.4643e-21)
(0.947538 -0.183674 -2.93895e-21)
(1.00163 -0.0468894 0)
(1.01539 0.00635377 0)
(1.02523 -0.00180955 4.204e-22)
(1.09349 -0.103005 -5.0247e-20)
(1.01968 0.00372095 -6.31726e-23)
(0.929352 -0.156791 -2.98352e-21)
(1.01556 0.00505956 1.74981e-21)
(1.01274 -0.0107179 -3.00449e-21)
(1.01966 0.0033668 -1.37639e-22)
(1.03282 -0.0382892 -3.47043e-22)
(1.01381 0.00130255 1.19862e-21)
(1.04121 -0.0151288 1.56183e-21)
(0.988995 -0.0411598 -3.42274e-22)
(1.01555 0.00461769 0)
(1.04725 -0.0332451 -4.30868e-22)
(1.0374 0.0158143 0)
(1.02087 -0.00783381 4.65127e-22)
(1.03493 0.0173527 0)
(1.02061 -0.00651868 -1.70177e-21)
(1.01017 -0.0007597 -6.47258e-21)
(1.01521 0.00890521 4.79813e-22)
(1.00288 0.0765701 7.27074e-21)
(1.01304 -3.03851e-05 -5.56985e-21)
(1.01605 -0.00329658 3.84125e-21)
(1.10346 -0.0374146 -8.59392e-22)
(1.01921 -0.00195764 3.24552e-22)
(1.0092 0.00829327 -2.21184e-21)
(1.02006 -0.00862921 -3.72044e-21)
(1.02117 0.00581986 -8.86696e-23)
(1.04099 -0.0237003 1.52751e-21)
(1.01599 6.39534e-05 -2.51208e-22)
(1.01567 -0.00323917 -5.50479e-21)
(1.02013 0.00229258 -5.55288e-23)
(1.09704 -0.00537713 -9.31807e-22)
(1.01683 0.00900329 0)
(1.09836 0.00551726 0)
(1.02406 -0.00514653 4.81695e-22)
(1.01369 0.0165301 0)
(1.01162 0.000200904 2.85585e-21)
(1.02353 -0.00629353 -1.90869e-21)
(1.01261 -0.00015905 -1.54276e-21)
(1.02126 -0.00425631 -2.30748e-21)
(1.1147 -0.0146118 0)
(1.02023 -0.00538428 1.88318e-21)
(1.04706 -0.18843 0)
(1.02018 0.00702039 -1.5509e-22)
(1.01537 0.00601698 1.95285e-21)
(1.0191 -0.00936482 1.9158e-21)
(1.06589 -0.182649 1.3436e-20)
(0.996703 0.00977622 0)
(1.11568 -0.174904 -6.01952e-21)
(1.01336 0.021937 -1.25333e-21)
(1.00762 0.00171287 0)
(1.0137 0.000118051 -5.32598e-22)
(1.00499 -0.00536304 -2.55224e-21)
(1.03919 -0.0248796 0)
(1.03038 -0.0358225 0)
(0.868432 -0.0611655 0)
(0.953519 0.143594 -2.08709e-22)
(1.01263 -0.000127667 0)
(1.03291 0.0132767 -8.95535e-22)
(1.07743 -0.00724909 0)
(1.01517 -0.000540091 0)
(1.01963 -0.00825204 -1.20463e-23)
(1.01486 -0.0004485 0)
(1.01556 -0.000949211 -5.59192e-22)
(1.01084 -8.87474e-06 -4.76152e-22)
(0.84754 -0.0888033 -6.60991e-21)
(1.04037 -0.0167493 -1.49213e-21)
(1.03774 -0.160466 4.35939e-21)
(1.01563 -0.000954568 8.82989e-24)
(1.00625 -0.0160081 -1.29151e-21)
(1.01628 -0.000765273 2.45935e-23)
(1.01186 4.43339e-05 5.85226e-22)
(1.01214 -0.000226848 -1.06657e-23)
(1.01931 -0.0073878 -9.28575e-22)
(1.00492 -0.00581279 0)
(1.02498 -0.00544125 0)
(1.03105 0.0120864 1.53113e-21)
(1.02089 0.00319501 1.98075e-23)
(1.01329 1.43962e-05 -1.3922e-21)
(1.0092 0.00984062 0)
(0.968777 0.00675267 6.78603e-22)
(1.01605 -0.000155994 0)
(1.0136 0.000121228 -1.63525e-21)
(0.740275 -0.0961062 0)
(1.00677 0.00772495 0)
(1.02153 -0.00700672 0)
(1.05686 0.0686374 1.35823e-22)
(1.01624 0.0194481 1.1878e-21)
(1.01307 -8.38859e-06 0)
(1.01086 0.000133728 -4.53655e-22)
(1.01799 -0.00997285 1.97588e-21)
(1.0087 0.0090811 2.42531e-21)
(1.01563 -0.00344784 9.21549e-22)
(1.0122 6.69191e-05 2.56471e-21)
(1.01229 -0.000149816 -6.24405e-21)
(1.02133 -0.00591223 0)
(1.01485 0.005325 0)
(1.0167 0.00417157 -3.14084e-21)
(0.992653 0.00534071 7.37822e-23)
(1.08437 -0.0605405 0)
(1.01603 -0.00014834 -4.34132e-23)
(1.0956 -0.0596396 0)
(1.00182 -0.027534 3.84327e-22)
(1.01499 -0.000148019 0)
(1.00952 0.000341787 0)
(1.0176 -0.00641124 -8.31553e-22)
(0.974812 -0.0152743 2.76932e-21)
(1.02567 0.00804223 1.9111e-23)
(0.900637 0.00766929 0)
(1.02057 0.0053274 3.46479e-23)
(1.01638 0.00473395 2.38896e-23)
(1.082 -0.035054 0)
(1.01459 -0.000321911 -1.324e-22)
(1.05489 -0.0216907 9.74045e-22)
(0.76492 -0.00432145 -8.24687e-22)
(1.01029 -0.0185145 0)
(1.01492 2.76982e-05 4.70026e-22)
(0.721295 0.330653 -2.332e-20)
(1.00749 0.00804823 3.06994e-22)
(1.0165 -0.00175694 -7.79982e-22)
(1.01758 0.00693724 6.72427e-25)
(1.07011 0.0170396 4.90151e-22)
(1.02018 0.00220505 2.35527e-21)
(1.01637 -0.00163887 1.94028e-21)
(1.01316 4.78998e-05 9.68017e-22)
(1.01985 0.00210544 2.07998e-21)
(0.933593 -0.0980385 -2.86889e-21)
(1.06879 0.000353965 0)
(1.00351 -0.0261643 -4.02821e-22)
(1.00883 0.00122896 2.71422e-21)
(1.01784 0.00653382 5.36336e-26)
(1.01894 0.00464192 0)
(1.01809 -0.00187987 -1.68918e-22)
(1.01356 -0.00032338 1.78214e-23)
(1.01315 1.66744e-05 -4.73357e-21)
(0.982775 -0.00890043 -1.96799e-21)
(1.19356 0.0207527 1.16796e-21)
(1.0192 0.0041482 0)
(1.0371 -0.000921497 0)
(0.954483 -0.203439 -2.88e-21)
(1.01308 0.000325073 -2.3294e-21)
(0.99809 0.0158525 -2.29098e-22)
(1.00437 -0.00529254 1.21163e-21)
(1.01385 -0.000247615 0)
(1.09889 -0.023617 3.59347e-22)
(1.00101 -0.21225 -4.03439e-21)
(1.01577 -0.000182004 1.26702e-23)
(1.09522 0.169787 0)
(1.01611 -0.00150867 3.02388e-23)
(0.918798 -0.0895801 1.14042e-20)
(1.02741 -0.0207043 5.10646e-23)
(0.97434 -0.100361 -5.4156e-22)
(1.01411 0.00182163 -3.12244e-21)
(1.01693 0.00452639 0)
(1.01501 -0.00197356 1.50959e-21)
(0.888573 -0.0849911 0)
(1.03332 -0.00621143 -2.69263e-21)
(1.07666 0.0703425 -3.6631e-22)
(0.957451 -0.0433679 0)
(1.07107 -0.361781 5.40751e-21)
(1.05677 -0.0229626 1.23718e-21)
(0.903003 0.0225977 0)
(1.02729 -0.0363269 0)
(1.00837 -7.52995e-05 -8.34107e-22)
(1.05148 -0.0136018 1.50918e-21)
(1.03558 -0.00190019 -1.35932e-21)
(0.969217 0.0229068 0)
(1.01787 -0.00340702 1.58831e-21)
(1.00979 0.0081159 1.18109e-22)
(1.02156 0.000710541 -1.93447e-23)
(0.991911 0.0381708 0)
(1.01278 -0.000185256 -1.86805e-21)
(1.02723 -0.0014024 -4.11882e-23)
(1.01857 0.00435483 3.52387e-22)
(1.10326 0.183782 -1.88522e-21)
(1.02159 0.00181885 1.67518e-23)
(1.01533 0.000114059 4.81469e-22)
(1.02814 -0.00625888 -2.06654e-21)
(1.02436 -0.0115706 -4.38888e-21)
(1.04147 -0.0179785 1.54511e-21)
(1.01393 0.00179904 2.24823e-21)
(1.01418 -3.51148e-05 2.05972e-21)
(1.01326 0.000285675 2.36203e-21)
(1.01332 0.000459777 2.71565e-22)
(0.772103 0.200677 0)
(1.01464 0.000649421 -1.70465e-21)
(0.924021 0.151847 2.06191e-22)
(0.992762 -0.221983 -9.50818e-22)
(1.01469 0.000590524 4.25544e-22)
(1.01305 -0.00026193 7.07445e-22)
(1.00486 -0.0164337 1.67413e-21)
(1.02506 -0.00229444 -3.83389e-21)
(1.01479 -0.000334092 -3.43394e-23)
(1.01419 -0.00392768 0)
(1.01394 0.0133597 1.91859e-21)
(1.02875 -0.0206688 -1.45224e-21)
(1.02967 -0.00265083 0)
(1.02512 -0.011521 5.8366e-21)
(1.01611 -0.00126106 0)
(1.01771 -0.00712082 0)
(1.01594 -0.00749073 -1.82383e-21)
(1.02944 -0.0178899 1.22516e-21)
(1.01338 -0.00328446 0)
(1.0156 -0.0093701 -5.18506e-21)
(0.814978 0.297242 0)
(1.01386 -0.000397144 0)
(0.980737 0.096276 -4.72658e-21)
(1.03981 -0.0114574 0)
(1.01466 -0.000201482 -1.34752e-21)
(1.0143 -0.000114157 3.26905e-23)
(1.01871 -0.00107483 0)
(1.0285 -0.010505 0)
(1.03023 -0.0113355 0)
(1.0162 0.00435066 1.24109e-23)
(1.01683 -0.00164415 0)
(1.01623 -0.000336218 0)
(1.01886 0.00509775 0)
(1.0167 -0.00179046 -5.7957e-22)
(1.01345 0.000217703 -1.70332e-21)
(1.0103 -0.00784809 1.95564e-21)
(1.01827 9.09384e-05 3.81859e-24)
(1.02713 -0.00200935 -8.67075e-22)
(1.0103 -6.51665e-05 0)
(1.01945 -0.00228798 0)
(1.01047 -0.00705581 0)
(1.03025 -0.00293156 -1.09856e-22)
(1.05346 -0.0146433 -3.28775e-21)
(1.012 -2.27975e-06 -1.65372e-21)
(1.01612 0.00330607 0)
(1.01438 -0.000158391 2.12261e-21)
(1.01646 -0.00145284 3.9785e-22)
(1.02359 -0.00178783 -2.8547e-22)
(1.01482 -2.6746e-05 0)
(1.02426 -0.0016038 0)
(1.01826 0.00333427 1.38339e-21)
(1.01397 -0.000525443 0)
(1.02177 0.00143436 1.89552e-23)
(1.0414 -0.0379366 3.70076e-22)
(1.01363 -0.000154962 0)
(1.01229 -0.000106601 -1.37012e-21)
(1.01532 -0.000407777 -5.39427e-21)
(1.0058 0.0117535 -9.73773e-22)
(1.01426 0.000896911 7.04423e-24)
(1.02004 0.00320445 0)
(1.08895 -0.0138364 8.74189e-23)
(1.01629 -0.00164095 9.44892e-23)
(1.01266 0.00667488 2.57155e-21)
(1.05123 0.199208 4.72357e-21)
(1.02057 0.0119469 0)
(1.01302 6.90231e-05 0)
(1.01247 -0.000217813 1.08855e-23)
(1.12672 0.0473022 0)
(1.01878 -0.000914604 -2.11806e-21)
(1.08213 -0.00727696 3.68793e-21)
(1.04586 -0.352241 -5.76457e-21)
(0.75243 0.0619303 -3.11792e-21)
(1.02202 -0.0326277 9.31746e-22)
(1.01278 0.00624222 2.3644e-21)
(1.0155 -0.000625501 -7.46754e-22)
(0.974381 0.0829268 0)
(1.01656 0.000232881 8.25399e-22)
(1.02026 0.00262812 5.68979e-23)
(0.995988 -0.00374267 3.22431e-22)
(1.01569 0.0110227 -1.19457e-22)
(0.985619 -0.224151 -5.18629e-22)
(1.01452 -0.000239657 -2.08826e-21)
(1.07462 0.0210311 -5.22948e-21)
(1.01552 -0.000555051 2.6425e-21)
(1.01515 -0.000355893 3.41279e-21)
(0.867174 -0.120463 -2.46729e-23)
(1.01342 0.000198691 -2.70921e-24)
(1.14262 -0.0925994 0)
(1.01375 -0.00329266 1.24785e-22)
(1.07892 -0.0665136 1.84323e-21)
(1.01623 0.00311226 -1.14884e-21)
(1.02091 -0.0150497 2.67466e-21)
(1.01567 -0.0068346 0)
(1.07301 0.1907 -3.18912e-21)
(0.870669 0.163463 -2.38141e-22)
(1.01567 0.00554628 1.60503e-21)
(1.01421 -0.00289048 6.94863e-23)
(1.04552 -0.00680974 0)
(1.01793 0.0031346 -3.60692e-22)
(1.00813 0.00730527 0)
(1.08377 -0.0130757 6.4601e-21)
(0.769593 0.286184 3.03439e-20)
(1.01434 0.00201294 0)
(0.999441 0.0194288 2.24771e-22)
(1.01626 0.000147553 0)
(0.829466 0.0504395 -2.02781e-21)
(1.00325 0.0195923 0)
(0.816952 -0.100246 -1.87853e-21)
(1.01762 0.072515 3.2294e-22)
(1.01637 -0.00399165 -8.21759e-22)
(1.00231 0.00174812 0)
(0.861469 0.170896 4.15565e-21)
(1.01431 0.00100474 1.68244e-21)
(1.01352 0.000282472 -1.6152e-21)
(1.01108 -0.000122304 -1.20944e-21)
(1.01609 -0.00515366 0)
(1.02107 0.0017933 7.33605e-23)
(0.866564 -0.0613028 7.15023e-21)
(1.02038 0.00203092 0)
(0.920238 0.178191 -2.24224e-21)
(1.03453 -0.00375255 1.27978e-23)
(0.994381 -0.0217532 -1.00758e-21)
(1.08839 -0.0330043 -1.57564e-21)
(1.01849 -0.00202176 4.33458e-23)
(1.11841 -0.156638 -6.37348e-23)
(0.867589 -0.362878 0)
(1.02085 -0.00582932 -3.14919e-21)
(0.957169 -0.157933 0)
(1.00303 0.00136866 4.96665e-22)
(1.0944 0.0327188 -7.71843e-21)
(1.02086 0.00211999 0)
(1.01632 -0.00153793 0)
(0.955852 0.000267191 0)
(1.0127 0.00176575 -2.32152e-21)
(0.863556 0.140854 2.87617e-22)
(1.01614 0.000130113 1.56863e-21)
(0.978784 0.0772016 0)
(1.01583 -0.00160196 8.15294e-24)
(0.971274 -0.00424901 1.43155e-21)
(0.943335 0.00912652 2.28454e-21)
(1.01614 -0.00380922 8.97412e-24)
(0.623714 0.424656 0)
(1.01285 -6.20688e-05 -1.03096e-21)
(1.02898 -0.00635406 6.50326e-23)
(1.0558 -0.0286582 3.71332e-21)
(0.847705 -0.25927 0)
(0.88456 -0.300746 0)
(1.02359 -0.0034137 0)
(1.01583 -0.00162388 3.76676e-22)
(1.02051 0.00344509 -6.32215e-24)
(0.742995 0.0208747 5.03516e-22)
(1.0474 0.0147689 -2.13358e-20)
(1.01122 -0.000129692 3.52348e-21)
(1.00548 0.00171211 2.06935e-22)
(0.994144 0.0145414 0)
(1.02075 0.00278833 -3.37616e-23)
(1.01509 0.00173547 0)
(1.03054 -0.00515289 2.58016e-21)
(1.15974 -0.0780532 0)
(1.01466 0.0172229 0)
(1.01228 0.00176228 -2.50469e-21)
(1.01389 0.000157609 -5.79839e-22)
(1.01999 -1.88696e-05 2.45111e-21)
(1.01739 -0.0189485 0)
(0.976812 -0.205766 -3.55871e-22)
(1.02471 0.0304421 1.39358e-23)
(1.01648 -0.0015503 -3.94066e-22)
(1.01569 0.000408455 2.56702e-21)
(0.998977 0.0108806 7.95111e-22)
(1.01349 0.000264912 0)
(0.986388 -0.137911 8.18203e-23)
(1.05229 -0.0486516 0)
(0.899041 0.19106 -2.82957e-21)
(0.974136 0.0333807 2.72375e-22)
(0.996795 0.0799255 0)
(1.01911 0.00148315 -3.80313e-21)
(1.01875 -0.00185382 -4.27867e-23)
(1.03162 -0.0114985 -1.08169e-23)
(1.02698 -0.00548209 -1.87396e-21)
(1.02968 -0.0189924 -4.51804e-21)
(1.01329 8.17879e-05 7.82539e-22)
(1.07964 0.0175201 -7.44985e-22)
(0.954542 0.0895602 1.09521e-21)
(1.0156 -0.00124018 1.34821e-21)
(0.861604 -0.353419 -5.23503e-23)
(1.01979 -0.000160303 -2.35755e-21)
(1.03367 -0.199009 -1.52674e-21)
(1.02205 -0.00161466 0)
(0.976889 0.0479312 -1.18566e-21)
(1.00829 -0.00716117 0)
(1.01412 -0.00558348 1.42665e-21)
(1.01443 0.00265687 -2.22193e-22)
(1.02607 -0.00823558 1.72347e-22)
(1.01386 0.0221727 -4.22752e-22)
(0.840024 0.125481 -3.22839e-22)
(0.862854 0.167162 4.28086e-21)
(1.01306 -0.000305652 0)
(1.02608 -0.0398169 -3.68155e-22)
(1.01644 -0.000429051 4.04743e-22)
(1.01497 -0.00958323 2.0674e-21)
(1.02101 -0.0157266 2.74397e-21)
(0.649788 0.341882 0)
(1.00876 -3.6781e-05 -2.84318e-21)
(1.10171 0.0265891 7.03692e-21)
(1.01874 0.00142666 3.67588e-21)
(1.04667 -0.00613918 1.43908e-21)
(1.01517 0.00484308 -2.66811e-23)
(1.01819 9.11357e-05 -7.35339e-23)
(1.01125 -4.59617e-05 5.00774e-22)
(1.01559 0.000421958 -2.46923e-21)
(1.07353 -0.307417 0)
(1.0136 0.000345173 1.6377e-21)
(1.01818 -0.011568 2.01851e-21)
(1.01303 -5.78274e-05 0)
(1.00921 4.9895e-05 9.38581e-25)
(1.02145 0.00110201 8.2719e-23)
(1.00848 -0.0651427 -3.33864e-22)
(1.01252 8.33389e-06 -6.56525e-22)
(1.02842 -0.00165958 0)
(1.01931 0.00172945 3.20753e-21)
(1.01503 0.00184771 -1.75773e-21)
(0.878416 0.0434833 0)
(1.01411 0.000728009 2.14489e-21)
(0.992859 -0.0251808 -2.65934e-21)
(1.01563 -0.00124408 0)
(1.00542 0.0222034 -2.85508e-23)
(1.01382 0.000143737 0)
(1.14594 -0.0461532 0)
(1.01429 0.000146417 -4.33141e-22)
(0.960264 0.0144087 7.18386e-22)
(1.01396 -0.00256831 1.8322e-22)
(1.01251 0.00156852 4.56547e-21)
(1.01581 0.000455801 2.21767e-21)
(0.824927 0.0428246 5.45527e-23)
(0.890063 0.0550274 0)
(1.04034 -0.238105 -4.13792e-21)
(1.22621 -0.204632 -1.23833e-20)
(0.985884 0.00535465 1.7424e-22)
(1.01274 0.00217804 -2.26349e-21)
(1.03043 -0.0112862 -2.96319e-21)
(0.904469 -0.0795119 0)
(1.02304 0.000774806 3.36182e-22)
(0.964094 0.0208493 0)
(0.973764 0.0119878 0)
(1.00164 -0.0628086 5.8481e-21)
(1.0759 -0.130144 0)
(1.01671 -0.0104174 1.80905e-23)
(0.84672 0.0262515 2.2659e-22)
(1.00935 0.0114324 4.82784e-21)
(1.09937 0.0533823 5.66443e-21)
(0.879542 -0.0810024 9.92224e-22)
(1.01856 -0.0107872 0)
(1.01791 -0.00377148 -8.22745e-22)
(0.854349 0.0312352 -2.27611e-22)
(1.01308 0.410342 2.70903e-20)
(1.00969 -7.50523e-05 -2.65713e-21)
(1.01086 -0.00855994 0)
(1.01331 0.000102013 1.93155e-21)
(1.03266 0.00660373 -1.40468e-21)
(1.05661 -0.00373123 0)
(1.01478 -0.000167526 -4.81696e-23)
(1.02341 -0.00235002 -3.14383e-22)
(1.02775 -0.00555585 4.01306e-21)
(1.00699 0.028631 0)
(1.05742 -0.0266671 -2.01607e-21)
(1.00815 -0.000588365 3.06396e-21)
(0.800461 0.0437081 7.93433e-22)
(1.01572 0.000484067 -2.34634e-21)
(1.02436 -0.000949748 2.93556e-22)
(0.987849 0.0389117 -2.18913e-22)
(1.10257 0.00842245 9.3178e-22)
(1.05606 -0.000258541 2.50897e-21)
(1.01194 -9.21868e-05 -2.74727e-21)
(1.02005 0.02709 -1.13836e-22)
(1.01603 -0.00180939 -7.96919e-22)
(1.0231 0.000243645 1.94476e-22)
(0.845318 -0.0851615 -4.13281e-22)
(1.02205 0.000593041 1.26594e-22)
(1.01711 -0.00974115 -1.88394e-21)
(0.83273 0.0225598 1.04686e-21)
(0.830456 0.0275261 -1.13385e-21)
(1.0167 -0.00468643 8.13024e-22)
(0.99323 -0.30121 0)
(1.09665 -0.182409 5.81613e-21)
(0.981806 -0.013542 -2.91843e-21)
(0.988183 0.0411231 5.06191e-21)
(0.659256 0.344351 1.0511e-20)
(1.01174 -3.87282e-05 2.6219e-21)
(1.02014 0.0302245 -2.7458e-21)
(1.01374 -0.00313983 3.84023e-22)
(1.01857 0.00122228 -2.64242e-21)
(1.01479 -0.000968593 0)
(1.01216 -1.07486e-05 1.54586e-22)
(1.01643 -0.000327676 -4.31631e-22)
(0.639754 0.373345 -2.36038e-21)
(1.01525 -0.00378916 4.14439e-22)
(0.788823 -0.0894809 1.63031e-21)
(1.0263 -0.00655891 0)
(0.992751 -0.0196156 -3.79523e-21)
(1.01379 -0.00409689 0)
(1.05752 -0.00201942 0)
(1.015 -0.00569648 2.15096e-22)
(1.02664 -0.00498599 -2.06962e-21)
(1.05551 -0.0472906 3.69779e-21)
(1.02694 -0.00578312 0)
(1.02371 -0.000590961 -5.38309e-22)
(1.06678 -0.0968991 5.79515e-22)
(1.01762 0.0016528 0)
(1.03796 -0.0291116 0)
(1.01562 -0.00371668 0)
(1.01866 0.00448755 2.39537e-22)
(0.944471 0.0570432 1.23645e-21)
(0.996706 -0.193056 9.33581e-22)
(1.02543 -0.0125149 8.43962e-22)
(1.01623 -0.000567048 -4.97206e-24)
(1.01626 -0.000493419 0)
(1.02338 0.00817883 -2.70017e-23)
(1.01643 -0.00600643 4.48595e-22)
(0.782749 0.118504 -1.07943e-22)
(1.07587 -0.0916027 2.02574e-22)
(0.976017 0.0436275 -1.46233e-21)
(1.03582 -0.0373348 3.54141e-21)
(0.976445 0.00306188 0)
(1.01415 0.00767515 2.25816e-21)
(1.00548 -0.00592942 -2.99682e-21)
(1.00469 0.00149213 -2.08365e-22)
(1.03129 -0.0133947 0)
(1.06329 -0.135847 0)
(1.01426 0.00246661 1.98921e-21)
(1.01662 0.0036287 2.6001e-21)
(1.0226 -0.0349784 0)
(1.04426 -0.0393052 0)
(0.612057 0.37066 0)
(1.01463 0.00232061 0)
(0.78035 0.0708712 2.87899e-21)
(0.908715 0.047625 5.55148e-22)
(1.00929 -9.75989e-06 -2.7952e-21)
(1.06558 -0.00640455 -2.8192e-21)
(1.03607 -0.00515333 -1.72833e-24)
(0.758237 0.0561831 -4.86953e-21)
(1.01555 -0.000109182 -2.47404e-21)
(1.03836 -0.0117405 0)
(0.984767 0.081835 3.95984e-23)
(1.0251 -0.0128908 0)
(1.01452 0.00238079 0)
(1.01688 0.0265263 -6.22424e-23)
(1.01336 -0.00241768 3.11776e-21)
(1.01622 -0.00134389 1.84241e-22)
(1.01607 0.00287352 1.50605e-21)
(1.23625 -0.176797 1.3955e-20)
(1.01272 -0.00223145 1.97299e-22)
(1.04312 -0.00436445 1.26943e-21)
(1.01438 -0.105096 3.09539e-22)
(1.06377 -0.00880939 2.85274e-21)
(1.0079 -0.00788666 0)
(1.02249 -0.0397205 3.54579e-22)
(1.00936 -0.0195375 -1.16909e-22)
(0.964099 -0.00921556 0)
(1.00572 -0.0182975 1.11167e-22)
(1.02373 2.98528e-06 0)
(1.01745 -0.00281666 2.91659e-21)
(1.02657 -0.00486757 0)
(1.01538 -0.00604059 -2.13499e-22)
(1.01292 -7.07664e-05 -4.17246e-22)