/*--------------------------------*- C++ -*----------------------------------*\
| =========                 |                                                 |
| \\      /  F ield         | OpenFOAM: The Open Source CFD Toolbox           |
|  \\    /   O peration     | Version:  v2012                                 |
|   \\  /    A nd           | Website:  www.openfoam.com                      |
|    \\/     M anipulation  |                                                 |
\*---------------------------------------------------------------------------*/
FoamFile
{
    version     2.0;
    format      ascii;
    class       surfaceVectorField;
    location    "850";
    object      Uf;
}
// * * * * * * * * * * * * * * * * * * * * * * * * * * * * * * * * * * * * * //

dimensions      [0 1 -1 0 0 0 0];


internalField   nonuniform List<vector> 
14516
(
(0.957656 -0.0649159 -1.28421e-22)
(0.960946 -0.0748764 -7.80735e-24)
(0.967544 -0.0657824 1.72494e-21)
(0.886335 -0.0647906 -2.26022e-22)
(0.874366 -0.0605595 2.23398e-23)
(0.887748 -0.0522393 3.7667e-23)
(0.955318 -0.0552442 2.33318e-21)
(0.945736 -0.0640225 -2.99366e-21)
(1.01488 0.000443182 0)
(1.01484 0.000511211 -4.04133e-22)
(1.01478 0.000443543 -1.04604e-21)
(0.958136 -0.327841 -2.28655e-21)
(0.955304 -0.347058 3.07152e-21)
(0.98006 -0.339724 -4.72318e-21)
(1.00782 0.00339231 1.7938e-21)
(1.00807 0.00272407 -4.23338e-23)
(1.00846 0.00341019 -1.095e-21)
(1.01384 -3.66278e-05 9.9795e-23)
(1.01468 -0.000222546 -7.80488e-22)
(1.01536 -0.000318538 1.15438e-21)
(1.01907 0.000124004 1.92732e-21)
(1.01878 0.000102379 5.89865e-23)
(1.01885 0.000290957 2.02905e-21)
(1.02071 -0.000570407 -3.13789e-22)
(1.02085 -0.000255677 -7.35363e-22)
(1.02118 -0.000677675 1.14267e-21)
(0.945006 -0.313643 1.13312e-20)
(0.970718 -0.310872 -6.62423e-21)
(1.08988 -0.0239499 -1.2925e-22)
(1.09593 -0.0230768 1.43524e-22)
(1.09015 -0.0175243 -6.62397e-23)
(0.965633 0.0219035 -3.52581e-22)
(0.960973 0.0179236 3.37323e-22)
(0.960126 0.0250428 -3.76449e-22)
(1.01484 0.000320406 0)
(1.01498 0.000410805 1.06644e-21)
(1.0176 0.00771613 2.98447e-22)
(1.01698 0.00776604 9.02953e-23)
(1.01714 0.00712432 6.70172e-23)
(1.00712 -0.000104838 0)
(1.00719 -2.28992e-05 -4.66264e-22)
(1.01824 0.00767529 -3.12028e-22)
(1.01881 0.00747615 -3.68662e-22)
(1.01826 0.00696393 -2.84819e-22)
(1.0149 -0.0014389 -6.25362e-22)
(1.01501 -0.00175674 5.19513e-22)
(1.0152 -0.00139774 -3.66726e-22)
(1.01482 -0.00100419 -5.05641e-22)
(1.01453 -0.00144763 -1.72952e-22)
(0.849699 0.246024 -5.36203e-23)
(0.796253 0.227801 0)
(0.840874 0.305386 0)
(1.01819 0.00837666 3.55861e-23)
(1.00011 -0.031799 -2.53686e-21)
(1.00808 -0.0353159 -2.36484e-22)
(1.00475 -0.0272391 -2.14158e-21)
(1.01393 -0.010625 -1.1125e-21)
(1.01433 -0.0114213 -1.08313e-21)
(1.01465 -0.0107021 2.22707e-21)
(1.03614 -0.0337818 4.54376e-23)
(1.04338 -0.0341296 -1.31e-22)
(1.0402 -0.0403754 -3.90799e-22)
(1.0161 -0.000594071 -1.14703e-23)
(1.01615 -0.000578615 1.78397e-24)
(1.02174 0.0114411 -1.76054e-22)
(1.02096 0.0119324 0)
(1.022 0.012504 -8.88987e-23)
(1.01461 0.000273741 0)
(1.01462 0.000262951 1.18731e-21)
(1.02069 0.00814619 -7.07613e-24)
(1.02011 0.0084763 -6.66095e-23)
(1.02093 0.00900987 -7.1356e-23)
(1.01571 -0.0024009 1.30451e-21)
(1.01574 -0.00260317 -2.54546e-22)
(1.01587 -0.00249903 -2.65443e-22)
(1.04956 -0.0544147 5.52783e-22)
(1.05104 -0.0506339 0)
(1.04605 -0.0523219 0)
(1.02026 -0.000444882 -1.45373e-22)
(1.02054 -0.000826908 1.47608e-21)
(0.998639 0.00975587 2.51337e-21)
(0.997374 0.00976031 3.19124e-21)
(0.998364 0.00817721 7.41698e-22)
(1.02976 -0.0335533 1.17097e-21)
(1.03255 -0.0285179 1.66508e-21)
(0.884367 -0.108028 -3.02389e-21)
(0.85774 -0.118634 -2.5494e-21)
(0.847379 -0.118005 -5.00988e-21)
(1.01126 5.9292e-05 2.27266e-22)
(1.01125 3.63998e-05 2.8857e-22)
(1.00866 2.80441e-05 0)
(1.04751 -0.0591374 1.26387e-21)
(1.04396 -0.0640469 1.36572e-21)
(1.04052 -0.0603371 4.88528e-22)
(1.0157 -0.0614491 -3.44247e-21)
(1.03314 -0.0687769 -4.12368e-21)
(1.01514 -0.0826068 2.79552e-21)
(1.0128 -5.81936e-05 -3.96524e-22)
(1.01082 6.01906e-05 -2.00523e-21)
(1.01319 -0.0105125 -1.43082e-21)
(1.01362 -0.00980886 -1.24174e-22)
(1.02081 0.00025216 6.26974e-22)
(1.02127 0.000187479 0)
(1.02106 0.000548613 0)
(1.01407 -0.000241165 0)
(1.01371 -0.000246132 0)
(1.01448 -0.000251491 -1.62228e-22)
(1.0001 0.00968219 -6.30143e-21)
(0.999333 0.0114568 -1.485e-21)
(1.0106 -6.54742e-05 -7.24574e-22)
(1.00665 -0.000120645 0)
(1.01326 -1.45154e-05 1.56762e-21)
(1.01404 0.000238572 5.77929e-22)
(1.01348 1.65072e-05 -2.88328e-22)
(1.01456 -0.000228611 1.11222e-21)
(1.01373 -0.000283735 1.9878e-21)
(1.01534 -0.000159192 5.81292e-22)
(1.01091 -1.15433e-05 9.76893e-22)
(1.0131 5.93688e-05 -1.62883e-21)
(1.01462 0.000304684 -7.79832e-22)
(1.05378 -0.057957 -5.46805e-22)
(0.977718 -0.00913839 -5.24947e-22)
(0.973658 -0.00518261 2.97033e-21)
(0.978887 -0.00283938 -1.09677e-21)
(1.01412 0.0275448 7.55918e-22)
(1.01257 0.0306555 0)
(1.01095 0.0280583 -2.50389e-22)
(1.01476 0.000573575 -1.80268e-22)
(1.01486 0.000574192 -1.72027e-22)
(1.04088 -0.0692933 8.64435e-22)
(1.04906 -0.0681766 9.92714e-22)
(1.09415 -0.0425973 1.45848e-22)
(1.09938 -0.0382634 3.73807e-22)
(1.09165 -0.0355411 -1.53483e-21)
(1.00809 0.000762805 0)
(1.00773 0.00122563 0)
(1.00757 0.00050986 0)
(1.01937 -0.00352825 -1.85316e-21)
(1.01906 -0.00323696 1.5954e-22)
(1.0189 -0.00348341 -2.37091e-21)
(1.07752 -0.164944 0)
(1.08984 -0.174315 3.04573e-21)
(1.08589 -0.15366 0)
(0.925389 -0.0478181 -1.03918e-22)
(0.907975 -0.0544313 0)
(0.908425 -0.0361807 0)
(1.01599 0.000808405 0)
(1.0157 0.000821827 1.23799e-21)
(1.14601 0.0406215 0)
(1.13029 0.0432001 0)
(1.13526 0.0290911 2.3515e-21)
(1.11046 0.0577401 0)
(1.10031 0.1053 -1.05389e-20)
(1.09633 0.0637546 0)
(1.02042 0.00032188 4.52763e-22)
(1.0206 9.15338e-05 7.14803e-22)
(1.01235 -0.000187901 3.36694e-22)
(1.01174 -4.39157e-05 -2.40581e-22)
(1.01316 -0.000217862 -6.28926e-22)
(1.00858 -0.0012841 -2.12558e-22)
(1.00824 -0.000931895 1.5019e-21)
(1.00812 -0.00154621 1.87966e-21)
(1.03953 0.0511478 2.51976e-22)
(1.04846 0.0616911 1.61031e-22)
(1.02977 0.0587411 -6.96278e-22)
(1.0123 -3.48087e-05 1.63295e-23)
(1.01301 -9.96354e-06 4.48676e-22)
(1.0122 -4.71619e-05 2.7756e-21)
(1.03638 -0.36042 -2.92203e-21)
(1.01058 -0.36151 -1.35618e-20)
(0.975409 -0.059578 2.53123e-21)
(0.950691 -0.0874794 1.10999e-20)
(0.978398 -0.0720241 1.18006e-21)
(1.03144 0.0409031 -1.36961e-21)
(1.04456 0.0365317 2.26509e-22)
(1.02535 0.0347731 -1.20252e-21)
(1.02283 0.0308761 -8.22205e-22)
(1.02767 0.0265983 8.49578e-22)
(0.969624 0.0246063 -2.29797e-21)
(0.970786 0.0191339 -9.36667e-23)
(1.08868 -0.029624 -8.28435e-22)
(1.084 -0.0239712 0)
(1.06703 -0.177577 0)
(1.06461 -0.157317 0)
(1.01287 -0.000196169 1.38859e-25)
(1.01324 -0.00014085 1.10669e-23)
(1.01436 -0.000100465 0)
(1.01407 0.00201246 -3.98714e-22)
(1.01396 0.00188932 -1.6591e-22)
(1.01402 0.00214373 -1.58819e-21)
(0.992155 -0.0173314 -4.51942e-22)
(0.995262 -0.0143049 1.46875e-22)
(0.996557 -0.0201021 8.24934e-22)
(1.0358 -0.0727066 0)
(1.04171 -0.0783259 4.96529e-22)
(1.11671 0.0129686 0)
(1.11396 0.0509538 0)
(1.01614 0.000650891 0)
(1.01628 0.000483122 -1.22834e-21)
(1.01595 0.000532092 0)
(1.01422 -0.00192212 7.0822e-24)
(1.01408 -0.00140554 -4.06801e-24)
(1.01381 -0.00199877 1.10387e-22)
(1.01699 -0.00624066 2.32714e-22)
(1.01736 -0.00624412 -1.30542e-23)
(1.01714 -0.00580012 3.11509e-23)
(1.01577 -0.00326696 -6.18647e-22)
(1.01603 -0.00335613 -4.97451e-22)
(1.01591 -0.00303148 4.16642e-22)
(0.969546 -0.0467435 1.37572e-21)
(0.996431 -0.0319654 1.26954e-22)
(1.0185 -0.00734095 1.32924e-21)
(1.01901 -0.00724281 -1.45634e-22)
(1.01861 -0.00671718 4.35478e-22)
(0.858075 -0.0735433 6.86207e-21)
(0.85259 -0.0670599 5.73863e-23)
(0.855765 -0.0783582 -1.98203e-22)
(1.00392 -0.0131597 3.34671e-24)
(1.00099 -0.0130541 -1.24192e-23)
(1.00293 -0.0101303 2.37277e-22)
(1.00145 0.00944773 -9.88256e-23)
(1.00092 0.0081051 -2.75598e-21)
(0.989012 -0.0113966 -1.11435e-21)
(0.983455 -0.0110591 -5.42234e-22)
(0.989006 -0.00679167 1.7871e-21)
(1.01563 -0.00353445 0)
(1.0155 -0.00315641 -8.2817e-22)
(1.01639 0.000340955 -1.18082e-21)
(1.01649 0.000189389 -1.02544e-23)
(1.01617 0.000253112 1.11815e-21)
(1.00902 -0.00105875 -2.22024e-22)
(1.0095 -0.00087847 0)
(1.00922 -0.000477019 0)
(1.02064 -0.00821483 4.14357e-22)
(1.01998 -0.00839676 5.47273e-22)
(1.0207 -0.00915194 6.68905e-22)
(0.883766 -0.0759224 5.25352e-21)
(0.899315 -0.0663775 -3.86224e-22)
(1.09971 -0.288114 1.76344e-20)
(1.07987 -0.297563 7.42535e-21)
(1.07931 -0.273419 7.52659e-21)
(1.01533 -0.000705383 3.94024e-22)
(1.01544 -0.000833304 3.93147e-22)
(1.0153 -0.000681492 2.41798e-22)
(1.02456 -0.0339324 -9.65124e-23)
(1.02629 -0.0391917 9.08295e-22)
(1.00892 -0.00160338 -8.90915e-22)
(1.00544 -0.0164994 7.24093e-23)
(1.00657 -0.0132628 -1.40453e-22)
(0.940071 -0.0406625 -3.01903e-21)
(0.940997 -0.0557307 3.00654e-22)
(0.865072 -0.0677613 2.27439e-22)
(0.864909 -0.0795786 2.29306e-22)
(1.01535 -0.000719093 9.30597e-24)
(1.01524 -0.000591421 7.6357e-23)
(1.01479 0.000841856 1.26015e-24)
(1.01477 0.000694053 1.87541e-22)
(1.01481 0.000666544 0)
(1.01476 0.00103649 3.63915e-22)
(1.0148 0.0010098 -3.25546e-22)
(1.02453 -0.00730787 1.20886e-21)
(1.0241 -0.00796768 -2.22468e-23)
(1.0252 -0.00827561 2.20635e-22)
(1.01554 -0.00100248 -6.43122e-22)
(1.01556 -0.000975724 -9.39977e-22)
(1.0156 -0.0010321 -3.59365e-23)
(1.01548 -0.000966965 0)
(1.01552 -0.00103524 1.33466e-21)
(1.01456 -0.00177711 3.19457e-23)
(1.0144 -0.00243783 -2.10559e-23)
(1.00261 0.00914899 2.7678e-22)
(1.00202 0.0106275 4.07336e-21)
(1.00993 -0.000800969 -3.19722e-21)
(1.0097 -0.00128517 1.34252e-21)
(1.01246 -9.06182e-05 1.92389e-23)
(1.01308 -0.000258026 3.7512e-22)
(1.01385 -0.000308852 1.7907e-23)
(1.00861 0.000966324 1.35173e-21)
(1.00848 0.000332401 -1.52023e-21)
(0.970574 0.0193393 -4.96344e-22)
(0.972877 0.0290704 1.41213e-22)
(0.973575 0.0239822 7.76788e-22)
(1.01269 -0.000175726 9.85442e-24)
(1.01113 -0.000231998 1.69841e-23)
(0.975895 -0.0248633 -1.57555e-21)
(0.974082 -0.0183798 1.58659e-21)
(0.967694 -0.0236443 -2.9705e-21)
(1.01469 0.000849702 2.02267e-22)
(1.01491 0.000820248 1.53092e-22)
(0.921238 -0.138535 2.38834e-21)
(0.914428 -0.103903 9.26817e-21)
(0.888027 -0.120165 -1.35474e-21)
(1.08825 -0.0466913 -4.87107e-22)
(1.09543 -0.0499586 -8.52541e-22)
(1.01634 0.000766993 0)
(0.877921 -0.101278 7.38156e-22)
(0.860121 -0.0893083 -6.43717e-21)
(0.889065 -0.0831482 -1.11219e-20)
(1.03106 -0.0770773 1.25996e-22)
(1.03113 -0.0685765 1.25529e-21)
(1.01796 -0.00732016 8.73633e-22)
(1.01835 -0.00794417 7.58234e-22)
(1.02393 -0.0290491 1.10674e-21)
(1.01976 -0.033138 -1.26388e-22)
(0.969452 0.0104302 -3.90467e-21)
(0.968573 0.0143337 -1.86283e-21)
(1.00711 1.73134e-05 -1.02857e-23)
(1.00399 -3.59287e-05 0)
(1.0042 -3.68099e-05 0)
(1.01497 -0.000362391 -1.13728e-21)
(1.01513 -0.000466221 0)
(1.01513 -0.000376092 1.79961e-21)
(1.00762 0.00410691 1.36835e-21)
(1.00717 0.00341676 -1.43921e-21)
(1.02175 -0.0062149 1.4347e-21)
(1.02149 -0.00667076 1.41848e-21)
(1.02115 -0.00604732 -2.5675e-22)
(0.992567 -0.0362345 -1.64052e-22)
(0.994357 -0.0284042 -1.33347e-21)
(1.0617 0.0013981 0)
(1.05926 0.00157325 2.67645e-21)
(1.06011 -0.000402126 0)
(0.993785 -0.0119652 -7.65145e-23)
(0.989881 -0.0162111 5.90833e-22)
(1.0166 -0.00617956 -2.25221e-23)
(1.01682 -0.00664937 -2.21956e-22)
(1.01387 0.00074752 -1.67716e-22)
(1.01387 0.000677635 1.76811e-21)
(1.01388 0.000760791 5.13859e-22)
(1.01152 -0.000163756 -2.18077e-23)
(1.01077 -0.000102525 2.86016e-22)
(1.01291 -0.00021941 8.9103e-24)
(1.01661 0.00043188 2.59359e-22)
(1.01387 0.000796149 7.53579e-22)
(1.01386 0.000709303 -3.50954e-21)
(1.029 -0.00579205 -4.8396e-22)
(1.02991 -0.00522269 1.04753e-21)
(1.02873 -0.0045786 -8.27662e-22)
(1.01985 -0.000352827 0)
(1.02003 -0.000103991 0)
(1.01657 4.65039e-05 -1.16121e-23)
(1.01667 -0.000111998 0)
(1.01636 -1.90954e-05 1.35824e-22)
(1.01054 -2.8422e-05 -2.67399e-21)
(1.0123 -2.01222e-05 -1.12881e-21)
(1.01396 -9.39009e-05 -3.82682e-22)
(1.01531 -0.000274227 6.37165e-22)
(1.01458 0.00072068 2.21606e-21)
(1.01444 0.000838636 -1.52219e-21)
(1.01786 0.000124391 7.86872e-23)
(1.01805 0.000156864 4.82761e-23)
(1.0179 0.000198035 1.14449e-23)
(1.01483 -0.000329028 -1.11643e-21)
(1.01482 -0.0002696 -1.06911e-21)
(1.02328 0.0103726 -5.16784e-22)
(1.02252 0.0109085 -6.71898e-24)
(1.02367 0.0113106 1.58438e-22)
(1.01586 8.34399e-05 -9.8004e-22)
(1.01595 0.000195024 -2.40775e-21)
(1.0156 4.40674e-05 -3.70572e-22)
(1.01461 0.0017785 -3.91742e-22)
(1.01472 0.00196501 1.75085e-22)
(1.01461 0.00211338 -3.82698e-22)
(1.01678 0.0084877 0)
(1.01632 0.00777564 2.10954e-22)
(1.01561 0.00921154 5.33364e-23)
(1.01648 0.00929563 -1.98523e-22)
(1.01611 0.0101054 2.10821e-22)
(0.987957 -0.00288802 1.31345e-22)
(0.990549 0.00286386 2.7171e-23)
(0.982575 0.00111364 5.68992e-21)
(1.01466 0.00151155 0)
(1.01454 0.00156034 0)
(1.01538 -0.000763371 -4.85631e-22)
(1.01538 -0.000750151 -4.60156e-22)
(1.01548 -0.000844588 3.79179e-22)
(1.11928 -0.28093 -7.49798e-21)
(1.12026 -0.307382 -7.98477e-21)
(0.77555 -0.312442 6.1665e-21)
(0.768962 -0.230981 -2.92703e-20)
(0.807487 -0.306206 -2.45538e-20)
(1.01281 -0.000138093 -2.7619e-23)
(1.01015 -0.000181674 3.7569e-22)
(0.76104 -0.307752 3.12298e-20)
(0.791031 -0.351601 3.64298e-20)
(0.926452 -0.309601 -2.87068e-21)
(0.941136 -0.28755 -6.73685e-22)
(1.01538 -0.000779777 -3.06153e-22)
(1.01529 -0.000694841 -1.28474e-22)
(1.00962 -1.2864e-05 -1.00063e-22)
(1.00933 6.10955e-06 2.99047e-22)
(1.01603 -0.000207047 1.69956e-22)
(1.01532 -0.000197416 -2.54275e-23)
(1.0166 -0.000138142 2.05108e-24)
(1.02395 0.00973037 -1.26543e-21)
(1.02293 0.00955912 -1.34773e-21)
(1.01471 0.00125675 3.48667e-22)
(1.01476 0.00145372 0)
(1.01603 0.000125155 7.89054e-22)
(1.01576 9.36535e-05 -5.12536e-22)
(1.01936 0.000196962 -2.24148e-23)
(1.01929 -1.51031e-05 9.07404e-22)
(1.01574 -0.00221568 6.77735e-22)
(1.01562 -0.00226876 -2.58447e-22)
(1.02072 0.00642987 1.16791e-22)
(1.02113 0.00610571 3.94186e-23)
(1.02146 0.00670502 4.80937e-23)
(0.901556 0.236654 2.29693e-21)
(0.958437 0.218598 4.008e-23)
(0.954683 0.270242 4.08462e-23)
(0.981206 -0.0115792 -5.29541e-22)
(0.987896 -0.0144424 -3.34555e-22)
(0.987431 -0.0078207 9.58003e-22)
(1.01082 -0.0466544 2.15144e-21)
(1.0185 -0.0371186 2.07667e-21)
(0.977719 -0.0157455 -7.21911e-22)
(1.02209 -0.0242003 -1.0955e-21)
(1.02206 -0.0226581 2.18446e-21)
(1.02052 -0.0232455 -1.01954e-21)
(1.02049 0.00739061 -1.17924e-23)
(1.02125 0.00774195 6.83094e-23)
(1.02377 -0.00530947 8.55376e-22)
(1.02348 -0.00589259 -3.24348e-22)
(1.02299 -0.00526707 -3.95549e-23)
(1.01534 0.00590427 1.11586e-21)
(1.01506 0.00549262 0)
(1.01552 0.00562952 8.51575e-22)
(0.843501 -0.264461 -3.53478e-21)
(0.849986 -0.24564 -1.64456e-21)
(0.843937 -0.231347 -2.25839e-21)
(0.974375 -0.0180815 1.59976e-21)
(0.972116 -0.0111011 -2.52572e-22)
(0.841297 -0.29156 4.00135e-21)
(0.848177 -0.277557 -3.0967e-21)
(1.02209 -0.00534665 0)
(1.02192 -0.00580213 0)
(1.02154 -0.00520016 0)
(0.870455 0.194885 -4.88483e-23)
(1.01681 0.000117081 -3.06591e-21)
(1.01627 -0.000940927 -1.31197e-23)
(1.0163 -0.000850255 -4.2221e-23)
(1.01636 -0.00105837 1.68656e-23)
(1.0138 0.000962364 -9.81581e-22)
(1.01377 0.000881022 -9.63249e-22)
(1.01381 0.000848746 2.85688e-22)
(1.04073 -0.0208726 3.53713e-22)
(1.04092 -0.0224236 2.25232e-21)
(1.04265 -0.0211077 -8.35594e-22)
(0.57876 0.366544 -5.71996e-22)
(0.548964 0.387922 -3.44325e-22)
(0.538296 0.3731 -1.17319e-21)
(1.02974 -0.00425093 -3.28707e-22)
(1.02907 -0.0039373 -8.36074e-22)
(1.02915 -0.00464047 -1.5319e-21)
(1.01467 0.00106891 3.24836e-22)
(1.02156 0.0105254 -1.61113e-22)
(1.07272 -0.12483 -2.77118e-21)
(1.08693 -0.0898037 -4.81573e-21)
(1.05442 -0.152122 7.10168e-21)
(1.01412 0.00191294 -9.85725e-23)
(1.01419 0.00213534 3.22277e-21)
(1.16183 0.0314975 0)
(1.16031 0.0512984 1.70571e-21)
(1.0138 0.00109429 0)
(1.01383 0.0010414 2.6162e-22)
(1.0148 -0.00043754 0)
(1.01467 -0.000373637 -6.62343e-23)
(1.01478 -0.000476284 1.14347e-21)
(1.02028 0.00674789 1.08725e-22)
(1.02009 0.00615359 6.97147e-23)
(1.0227 -0.00548395 1.43339e-23)
(1.02223 -0.00489515 0)
(1.01314 0.000249957 -7.06579e-22)
(1.01318 0.000234644 2.45013e-21)
(1.01325 0.000280236 6.99162e-22)
(1.01419 0.0249174 1.88615e-21)
(1.017 0.0263262 2.0165e-21)
(0.979562 -0.0318109 -1.41456e-21)
(0.983254 -0.0252878 -1.06744e-21)
(1.02086 0.0417362 4.56152e-23)
(1.04095 -0.018938 -3.16401e-22)
(1.03924 -0.0202212 -1.19758e-21)
(0.894748 -0.0736453 2.40519e-21)
(0.912739 -0.0817131 1.02732e-21)
(0.906696 -0.0622624 3.73976e-22)
(1.02052 -0.00540404 9.35027e-22)
(1.02107 -0.00568131 0)
(1.02083 -0.00516285 0)
(0.910579 -0.332928 0)
(0.900758 -0.302669 -8.15338e-22)
(1.01782 6.05389e-05 -1.4257e-22)
(1.01758 8.73017e-05 -5.69933e-23)
(1.01949 -0.000285003 -2.09e-21)
(1.01974 -0.000557037 0)
(1.00822 0.184892 3.64735e-23)
(1.04308 0.158863 -4.02887e-22)
(1.02639 0.133139 3.12826e-21)
(0.908627 -0.0759757 5.35116e-21)
(0.884431 -0.0634193 3.58572e-21)
(1.01387 0.000623146 1.29373e-21)
(1.01387 0.000633996 0)
(1.01387 0.000580443 0)
(1.01675 -0.000250792 -1.24793e-21)
(1.01698 -0.00019725 1.33782e-21)
(1.0149 -0.00170618 -8.59315e-22)
(1.01475 -0.0012351 2.83979e-23)
(1.00062 -0.0529037 -1.3018e-21)
(1.01571 0.00475245 0)
(1.01606 0.00479722 0)
(1.0159 0.00516417 2.81054e-23)
(1.00372 0.00893568 1.3985e-21)
(1.0032 0.00782197 -2.5327e-21)
(1.02505 -0.00969604 0)
(1.02426 -0.00972297 -9.58026e-22)
(1.02451 -0.00898194 0)
(1.03707 -0.0329925 1.56931e-21)
(1.03806 -0.0306077 0)
(1.03952 -0.0332077 0)
(1.01373 0.0229611 -1.35032e-21)
(1.01186 0.0241743 -8.19661e-22)
(1.01032 0.0334732 1.08264e-21)
(1.01421 0.0340341 0)
(1.01962 -0.00395498 7.16564e-22)
(1.01984 -0.0036165 1.6487e-21)
(0.870768 -0.0723849 -6.14847e-23)
(0.883125 -0.0939398 -3.16934e-21)
(1.01558 -0.00016602 -2.37356e-22)
(1.01666 -0.000251112 6.85269e-24)
(1.02529 -0.00515001 1.00626e-21)
(1.02609 -0.0049429 -4.58341e-22)
(1.02528 -0.00439955 7.69776e-22)
(1.05433 -0.143974 4.16198e-21)
(1.08008 -0.100792 5.58737e-21)
(1.01518 -0.00166532 -3.88486e-23)
(1.015 -0.00213017 2.66594e-23)
(0.982969 0.0867731 -1.2571e-22)
(0.982298 0.103444 1.38731e-22)
(0.968151 0.0869229 -4.53138e-22)
(1.0123 -0.0878877 1.01119e-21)
(1.00652 -0.0824067 -8.9156e-24)
(1.0033 -0.0915939 7.05517e-22)
(1.01549 -0.000199327 -2.52338e-21)
(1.01566 -0.000175599 -1.82818e-21)
(1.01541 -0.000107335 -1.15343e-21)
(1.02236 -0.00639498 -2.64734e-22)
(1.01309 0.000268679 -8.2053e-22)
(1.01305 0.000216778 2.88879e-21)
(0.997959 -0.0122434 4.87185e-22)
(0.999125 -0.0162017 6.45082e-23)
(0.964013 0.176616 -1.63568e-21)
(1.00786 0.00199038 -2.88586e-22)
(1.00846 0.00211535 1.10791e-21)
(1.01538 -0.000788986 -7.973e-22)
(1.01529 -0.000733623 -1.1851e-22)
(1.01537 -0.000795902 -4.91799e-22)
(1.01919 -0.0847815 3.76261e-23)
(1.01763 -0.0937495 8.97531e-22)
(1.07719 -0.0281262 -1.04831e-21)
(1.07902 -0.0325739 2.9267e-22)
(1.07397 -0.0316984 2.76948e-22)
(1.01612 -0.00091155 1.24014e-22)
(1.01602 -0.000553217 -4.20538e-24)
(1.01619 -0.000814917 1.6393e-24)
(1.01618 -0.00049463 1.88005e-22)
(1.03033 -0.00392245 1.75865e-21)
(1.03039 -0.00472781 2.2768e-21)
(1.0173 -1.23106e-05 2.42039e-23)
(1.01762 -9.61463e-06 -1.14702e-22)
(1.0172 2.31592e-05 2.81928e-23)
(1.07316 -0.00297249 0)
(1.06988 -0.00138936 0)
(1.07007 -0.00500241 0)
(0.985516 0.0737386 0)
(0.995532 0.0831474 -6.83901e-22)
(1.01449 0.000619281 8.98093e-22)
(1.01428 0.000617616 -1.03685e-21)
(1.01439 0.000535682 -1.00132e-21)
(1.01572 0.00464775 -1.48917e-21)
(1.01567 0.00497179 -6.15322e-22)
(1.01598 0.00493242 -1.47232e-21)
(0.939517 -0.0278461 -2.61961e-21)
(0.950965 -0.0352376 -2.70546e-21)
(1.02235 -0.00729444 1.73714e-21)
(1.0216 -0.00695294 -5.8353e-22)
(1.02185 -0.00781728 1.41857e-21)
(1.00465 0.00865331 2.79162e-21)
(1.00424 0.00989722 1.53581e-21)
(1.01564 0.00654729 -4.32829e-22)
(1.01598 0.00712029 4.8328e-23)
(1.0162 0.00657799 -3.63882e-23)
(1.01657 0.00477593 1.33363e-24)
(1.01685 0.00467361 -1.15096e-23)
(1.01689 0.00503355 -1.10915e-23)
(0.91955 -0.0979193 -1.15328e-21)
(0.909825 -0.0844092 -1.59442e-22)
(1.01576 0.00436538 -5.89651e-24)
(1.01602 0.0043045 2.90073e-25)
(1.01578 0.00407071 -5.82061e-24)
(1.01537 -0.00073528 -2.52626e-22)
(1.01528 -0.000643769 -2.72205e-22)
(1.01867 -6.91363e-05 -8.89973e-22)
(1.01848 9.98834e-05 -8.07057e-22)
(1.02459 0.00904344 -6.0658e-22)
(1.02517 0.00989579 1.72262e-22)
(1.01547 -0.000839869 3.25203e-22)
(1.01242 -4.97695e-05 -2.3266e-22)
(1.01102 7.65428e-05 2.04728e-22)
(1.01507 -0.00415437 -9.81178e-22)
(1.01537 -0.00415873 3.83045e-22)
(1.01531 -0.00450899 -1.95487e-21)
(1.03066 -0.0161935 0)
(1.03113 -0.0150867 0)
(1.0298 -0.0153801 -1.2206e-21)
(1.08211 -0.0498889 -1.52569e-22)
(1.08155 -0.043563 1.52642e-22)
(1.06429 0.000692995 -1.58153e-21)
(1.06711 -0.000103725 -1.50208e-21)
(1.06469 -0.00201477 -1.18173e-23)
(1.01677 0.00405451 -1.9639e-22)
(1.01673 0.00377728 2.64963e-21)
(1.01701 0.00393491 2.93872e-23)
(1.0109 -0.00990505 1.14312e-21)
(1.01075 -0.0090106 0)
(1.01013 -0.00956393 0)
(1.01485 0.00516208 3.59692e-22)
(1.01503 0.00491795 3.46757e-22)
(1.01465 0.00483128 -2.01312e-22)
(1.03019 -0.0173043 5.7307e-22)
(1.03165 -0.0170042 -1.49499e-21)
(1.009 0.00789174 -1.11218e-21)
(1.00849 0.00740481 0)
(1.00916 0.00710788 0)
(1.01542 0.00395559 2.04865e-22)
(1.01558 0.0043823 2.14446e-22)
(1.01571 0.00403745 -3.35693e-23)
(0.980735 -0.0151668 5.04313e-21)
(0.979075 -0.00360907 1.05765e-21)
(0.982191 -0.0143303 1.98795e-21)
(1.01547 0.00437312 1.69326e-21)
(1.08213 -0.0566912 -1.55563e-22)
(1.07625 -0.0527083 -7.2979e-22)
(1.0119 0.000153598 -8.68336e-22)
(1.01366 5.88563e-05 2.0079e-22)
(1.0125 4.29095e-05 4.60583e-23)
(1.02383 -0.0251045 -6.08971e-22)
(1.02193 -0.0262796 -8.53517e-22)
(1.01566 -0.00119074 -6.12159e-24)
(1.01548 -0.00116041 -3.52072e-24)
(1.01563 -0.000896384 9.06394e-24)
(1.01576 -0.00149485 -6.85568e-24)
(1.01582 -0.00115233 -8.50928e-23)
(1.03579 -0.0354929 3.30336e-21)
(1.03463 -0.0326755 1.80406e-21)
(1.07302 0.11948 -3.95177e-22)
(1.06334 0.175839 6.23827e-21)
(1.0102 -0.000612547 -1.57621e-21)
(1.01015 -5.76922e-05 3.04178e-21)
(1.01057 -0.000376371 2.24981e-21)
(1.01517 0.00394088 9.5412e-23)
(1.01531 0.00362224 0)
(1.01946 0.00376192 1.53016e-23)
(1.01922 0.00397892 4.5973e-23)
(1.01906 0.00363762 1.05359e-22)
(1.00826 -0.0174122 1.497e-21)
(1.00966 -0.0178502 0)
(1.00905 -0.0162386 -1.42407e-21)
(1.0158 -0.000141561 6.62798e-24)
(1.01598 -0.000111593 -1.41405e-22)
(1.01572 -3.32252e-05 -1.43837e-22)
(0.923197 -0.050773 -1.11315e-22)
(0.931889 -0.0551741 0)
(0.914847 -0.0595682 0)
(0.915361 -0.043919 -1.04127e-22)
(0.931208 -0.0410394 5.32294e-22)
(1.01387 0.000603724 1.21071e-21)
(0.983753 -0.0390269 -1.23682e-22)
(0.973107 -0.0408097 -2.8676e-23)
(1.013 -3.1355e-05 -2.17494e-21)
(1.01291 -5.21568e-05 1.8082e-22)
(1.01299 2.43815e-05 -2.04291e-22)
(1.06321 0.00339317 0)
(1.02521 0.00827724 1.04068e-23)
(1.0241 0.00829136 1.33809e-21)
(1.01607 -0.0013758 -4.05134e-23)
(1.01608 -0.0011237 -1.3683e-24)
(1.01597 -0.00112916 -1.52461e-22)
(1.01239 -0.000199152 -3.75886e-22)
(1.00986 -0.000113119 1.28788e-21)
(1.0124 -0.000137363 5.35638e-22)
(1.01444 -0.000303887 1.46048e-22)
(1.01372 -0.000176677 0)
(1.01538 -0.000231332 -6.19598e-22)
(1.01557 -0.000291138 -1.11962e-22)
(1.01474 -0.00412889 1.7516e-21)
(1.01486 -0.00379118 0)
(1.02602 -0.0229967 -1.61022e-22)
(1.02679 -0.0216513 1.12001e-21)
(1.02496 -0.0220682 6.85213e-22)
(1.01606 -0.000164798 3.96353e-22)
(1.01584 -0.000121315 -1.23114e-21)
(1.01629 -0.00019655 2.17508e-21)
(1.01653 -0.000294965 -1.11354e-21)
(1.01681 -0.00039859 4.68369e-23)
(1.01471 0.000615941 5.37984e-22)
(0.868529 -0.113469 9.27379e-22)
(0.902812 -0.105802 7.91125e-22)
(1.00944 0.000700667 -2.2151e-23)
(1.00911 0.00112687 1.3757e-21)
(1.00961 0.00126002 -1.48158e-21)
(1.01088 -0.000201715 -1.37984e-21)
(1.01268 -0.00033472 9.1675e-24)
(1.01038 -6.63612e-05 4.98229e-25)
(1.01163 -0.000203494 -1.84953e-23)
(1.02789 -0.00627749 4.92514e-22)
(1.02897 -0.00709467 -8.06432e-22)
(1.02054 -0.00787619 9.0089e-22)
(1.02012 -0.00827307 -1.17604e-21)
(1.0199 -0.00764249 -1.21136e-21)
(1.02531 -0.0243258 -1.86592e-22)
(1.02739 -0.024061 -1.09829e-21)
(1.01324 2.65923e-05 -1.44944e-21)
(1.01325 5.04493e-05 1.82725e-21)
(1.01322 2.40426e-05 2.57951e-21)
(1.04399 0.224919 -1.79449e-20)
(1.03546 0.351008 3.83777e-20)
(1.05545 0.261495 2.29173e-20)
(1.01547 -0.000844591 3.75223e-22)
(0.863725 0.145908 -1.72292e-21)
(0.86471 0.165828 1.89801e-21)
(0.872736 0.161091 -1.12843e-21)
(0.749386 -0.0508658 1.6376e-21)
(0.738231 -0.0784379 1.58908e-21)
(0.728152 -0.0509293 7.70705e-21)
(1.0099 -4.38903e-05 5.44593e-22)
(1.01192 -4.76275e-05 1.10845e-21)
(1.01293 -0.000101601 -5.2048e-22)
(1.01374 -0.000257573 1.11239e-21)
(1.01445 -0.00036596 8.67172e-22)
(1.01486 0.00288671 -3.9124e-22)
(1.01481 0.00258955 -9.05617e-23)
(1.01465 0.00280349 -4.85551e-22)
(1.00693 -0.0168264 9.69669e-22)
(1.00751 -0.0186795 1.38538e-21)
(1.01797 -0.0181687 -6.24465e-22)
(1.01898 -0.0184777 -1.28275e-21)
(1.01871 -0.0170581 -6.72122e-22)
(1.02558 0.00759098 -5.8428e-22)
(1.02496 0.00692742 -6.68657e-22)
(1.02592 0.00684045 -6.63481e-22)
(0.861139 0.114154 -1.33949e-21)
(0.853856 0.126174 -3.07322e-21)
(1.01247 -0.000133478 0)
(1.01212 -0.000199081 0)
(1.0126 -2.8355e-06 0)
(1.01494 0.00320701 -1.2299e-22)
(1.01505 0.00296356 0)
(1.01704 -0.0179228 1.4781e-21)
(1.0172 -0.019313 -3.98263e-23)
(1.01339 -0.00352077 0)
(1.01359 -0.00392843 0)
(1.01318 -0.00383024 0)
(1.01607 -0.00320153 3.39015e-22)
(1.01594 -0.00291966 -2.03456e-21)
(1.01627 -0.00311649 1.0654e-21)
(1.02059 -0.00746745 9.45461e-22)
(1.02129 -0.0080445 9.72171e-22)
(0.997415 -0.00858989 -7.45791e-22)
(1.01906 0.00526376 0)
(1.01921 0.00571438 -2.4649e-23)
(1.01954 0.00534084 0)
(1.01094 -0.0181695 1.20147e-21)
(1.01161 -0.016989 1.08906e-21)
(1.01239 -0.0183901 -3.25636e-22)
(1.02556 -0.0102656 -2.17247e-21)
(1.02582 -0.00947601 1.19331e-21)
(1.01843 0.00381447 -7.24869e-22)
(1.01859 0.00414527 1.75351e-22)
(1.01879 0.00384177 6.8202e-22)
(0.988734 -0.021355 -5.79103e-22)
(0.805708 0.000957427 7.79908e-22)
(0.838115 -0.0179632 2.9924e-23)
(0.838193 0.0164291 7.31124e-22)
(0.994616 -0.00935272 -2.32487e-22)
(0.99755 -0.0123925 -6.79641e-24)
(1.01535 -0.00141306 -3.91827e-24)
(1.01548 -0.00182626 -4.9464e-23)
(0.62585 0.351595 0)
(0.616389 0.347898 -4.54342e-22)
(1.0197 -0.00864144 -1.89498e-21)
(1.0192 -0.00901271 9.57496e-22)
(1.01904 -0.00833767 -1.55625e-21)
(1.07795 0.154224 -8.03509e-21)
(1.09208 0.133481 -1.21921e-20)
(1.02607 -0.0807147 -6.1556e-22)
(1.03122 -0.0859742 1.3176e-21)
(1.02061 0.00509634 1.72075e-23)
(1.02038 0.00466936 0)
(1.02091 0.00476714 -3.78945e-23)
(1.03499 -0.00365223 -7.14421e-22)
(1.03593 -0.00393874 2.1896e-22)
(1.02082 -0.076038 -2.27421e-21)
(1.02401 -0.00656697 1.61596e-22)
(1.02496 -0.00664319 9.20291e-22)
(1.00555 0.00840959 -6.63659e-22)
(1.00507 0.0075036 -2.32714e-21)
(1.10451 -0.0330408 8.35204e-23)
(1.10197 -0.0266517 7.37812e-22)
(1.10963 -0.0291268 4.72439e-22)
(1.0185 -0.00024293 -7.75865e-22)
(1.01824 -0.000191447 1.52601e-21)
(1.01835 -0.000360393 2.63082e-22)
(1.01264 0.000183787 8.32491e-22)
(1.01403 4.14252e-05 -1.69305e-21)
(1.01918 -0.000107199 1.9114e-23)
(1.01908 -0.00033884 2.48094e-22)
(1.01361 0.000151347 5.63052e-23)
(1.01362 0.000149314 2.71728e-22)
(1.01245 0.000103704 4.7075e-22)
(1.01561 -0.00271977 1.02554e-22)
(1.01582 -0.00279811 6.16017e-23)
(0.92856 -0.0863522 6.19772e-22)
(0.937726 -0.073842 -1.62512e-21)
(0.944261 -0.0868668 6.83029e-24)
(1.0138 0.00124089 6.46399e-22)
(1.01374 0.00115934 0)
(1.01826 0.00351855 -4.28075e-23)
(1.01809 0.00376679 -7.18524e-22)
(1.03656 0.0882266 -7.69919e-20)
(1.0232 -0.00768766 1.01308e-21)
(1.02272 -0.00679972 -8.85935e-22)
(1.01944 0.00798485 -1.13507e-22)
(1.01931 0.00724696 9.23771e-23)
(1.01523 -0.000986015 2.59605e-22)
(1.01569 -0.00849677 -5.52975e-22)
(1.01572 -0.00913639 -4.64891e-21)
(1.01627 -0.00887505 -7.73216e-23)
(1.0188 -0.00026625 6.33121e-23)
(0.921038 -0.100069 2.80971e-21)
(1.02089 -0.0075021 2.44097e-22)
(1.02123 -0.00707074 0)
(1.02061 -0.00687123 0)
(1.01582 -0.00108259 1.9614e-23)
(1.01587 -0.00120379 -1.19645e-21)
(1.01568 -0.00110098 -1.1515e-22)
(1.01383 -0.0026479 9.04836e-23)
(1.01372 -0.00291806 1.92641e-22)
(1.01352 -0.00256191 1.57594e-21)
(1.02358 -0.00867578 -1.54252e-21)
(0.842402 -0.171642 -3.11366e-21)
(0.843613 -0.131582 2.32884e-21)
(0.851563 -0.177614 -1.08495e-22)
(1.0192 -0.00296727 2.65809e-21)
(1.01876 -0.00294723 1.0288e-21)
(1.0045 -0.00533833 3.5087e-22)
(1.00468 -0.00543749 -2.67796e-22)
(1.00465 -0.00534674 5.94697e-23)
(1.01626 -0.00107376 0)
(1.05682 -0.0339766 -9.77643e-22)
(1.05585 -0.0312122 -2.54961e-22)
(1.0538 -0.0337379 -4.94568e-22)
(1.05518 -0.188103 0)
(1.0697 -0.198235 1.9235e-22)
(1.17801 0.0235173 5.92599e-22)
(1.15773 0.0144255 0)
(1.0581 -0.0370637 1.12325e-21)
(1.06051 -0.0341091 -5.62344e-22)
(1.01573 -0.00775392 8.72737e-22)
(1.01516 -0.00790482 3.93527e-21)
(1.03274 -0.00639492 3.72349e-22)
(1.03121 -0.00580585 2.89374e-21)
(1.03175 -0.00746051 1.59439e-21)
(0.849907 -0.0521428 -7.94491e-22)
(0.835688 -0.077621 0)
(1.01169 -0.000250106 -2.46014e-23)
(1.01299 -0.000119284 1.87331e-22)
(0.981284 -0.0283355 -9.82393e-22)
(0.978387 -0.0184101 -2.86421e-22)
(1.02048 -0.00682756 4.34386e-22)
(1.01996 -0.00693578 1.94695e-21)
(1.01666 -1.28338e-05 -1.76039e-23)
(1.01738 -3.79904e-05 3.53567e-23)
(0.763019 -0.0229802 -4.1159e-22)
(0.775453 -0.0503648 0)
(1.00637 0.00813012 0)
(1.00604 0.0092001 0)
(0.771763 0.0294845 -2.59445e-21)
(0.773402 -0.0261341 1.83472e-21)
(1.01575 -0.000948763 -2.35427e-21)
(1.01596 -0.00105957 1.48398e-21)
(1.07631 -0.00496259 0)
(1.07584 -0.000419312 -1.70865e-21)
(1.04272 -0.0582414 8.25201e-22)
(1.05208 -0.0780874 3.66815e-22)
(1.01436 0.0135948 9.70728e-22)
(1.01481 0.0143599 9.77538e-22)
(1.01523 0.013563 -2.12744e-22)
(1.01417 0.0018365 -4.98267e-22)