/*--------------------------------*- C++ -*----------------------------------*\
| =========                 |                                                 |
| \\      /  F ield         | OpenFOAM: The Open Source CFD Toolbox           |
|  \\    /   O peration     | Version:  v2012                                 |
|   \\  /    A nd           | Website:  www.openfoam.com                      |
|    \\/     M anipulation  |                                                 |
\*---------------------------------------------------------------------------*/
FoamFile
{
    version     2.0;
    format      ascii;
    class       volScalarField::Internal;
    location    "850";
    object      V0;
}
// * * * * * * * * * * * * * * * * * * * * * * * * * * * * * * * * * * * * * //

dimensions      [0 3 0 0 0 0 0];


value           nonuniform List<scalar> 
9793
(
0.0430545
0.212594
0.0467139
0.133047
0.0460595
0.104321
0.168138
0.160293
0.0694586
0.0457614
0.0326792
0.0675294
0.166062
0.157162
0.182323
0.167577
0.171319
0.180436
0.0595887
0.161501
0.0738202
0.0567368
0.129757
0.210928
0.121348
0.170338
0.16752
0.170458
0.0324179
0.0752049
0.0756934
0.159576
0.15348
0.171396
0.0425908
0.0749817
0.15348
0.0588306
0.14715
0.181702
0.0933983
0.185162
0.154211
0.174252
0.190408
0.140804
0.0371768
0.156055
0.0922494
0.123122
0.0412304
0.0301605
0.0849692
0.0801963
0.0352497
0.0789279
0.0870539
0.0239087
0.089726
0.126195
0.166205
0.0819075
0.0828484
0.170119
0.0384977
0.159568
0.108678
0.0915835
0.0642275
0.0336651
0.041391
0.177519
0.122045
0.177804
0.0416393
0.0969478
0.106401
0.172175
0.131154
0.178222
0.124755
0.142468
0.157925
0.17459
0.0981131
0.153613
0.181995
0.0961108
0.0897068
0.148288
0.191555
0.038635
0.132815
0.161743
0.0787949
0.174073
0.0753623
0.166606
0.12759
0.140902
0.156198
0.143173
0.136672
0.137497
0.178909
0.100871
0.0750029
0.162733
0.0920023
0.154947
0.157934
0.0777572
0.104029
0.0818906
0.0292278
0.102297
0.134438
0.0396703
0.139453
0.163935
0.134685
0.138894
0.104886
0.090651
0.0665722
0.0737499
0.023573
0.152212
0.131457
0.110779
0.182503
0.0908883
0.0939636
0.134988
0.0683461
0.0945718
0.166908
0.170362
0.125872
0.165359
0.096793
0.121019
0.154695
0.138932
0.163659
0.154564
0.175497
0.159899
0.152021
0.0349339
0.0437578
0.193144
0.0426855
0.0465862
0.149188
0.117649
0.174263
0.116516
0.173018
0.131821
0.134454
0.152705
0.164061
0.0643729
0.195115
0.0871417
0.14854
0.0496234
0.166557
0.14543
0.135139
0.112981
0.192426
0.105634
0.0664852
0.0529381
0.0924014
0.172245
0.105082
0.0357392
0.0213846
0.0457462
0.163304
0.114054
0.0986969
0.135969
0.0262906
0.101188
0.101808
0.159404
0.0690354
0.11343
0.0947408
0.0757441
0.0867783
0.0404685
0.0554436
0.131687
0.0489143
0.13722
0.0597457
0.0651949
0.0749118
0.101641
0.0825775
0.16626
0.0870174
0.150392
0.0977293
0.0539348
0.0384447
0.100015
0.0913713
0.0704919
0.0498398
0.17847
0.130859
0.0972666
0.150855
0.0809536
0.0416992
0.10447
0.0600286
0.139566
0.152621
0.0587094
0.10738
0.146042
0.0370229
0.0266956
0.205882
0.193977
0.0413219
0.143066
0.0252852
0.0771543
0.108999
0.126411
0.0771906
0.155657
0.0972465
0.149559
0.124543
0.145351
0.123641
0.134441
0.170861
0.122483
0.141657
0.139967
0.0593931
0.0426842
0.0323889
0.0245811
0.118635
0.0663528
0.130089
0.0389562
0.105094
0.162456
0.119404
0.121171
0.0312789
0.147396
0.0476627
0.136184
0.166029
0.0362923
0.0603171
0.101391
0.12948
0.158115
0.0554485
0.0948775
0.156004
0.15611
0.0877297
0.0788891
0.136118
0.0255889
0.124588
0.159158
0.161602
0.172533
0.0177164
0.0779969
0.063313
0.0457297
0.17249
0.0825755
0.105136
0.115979
0.0918849
0.156792
0.160305
0.131906
0.0594264
0.0430635
0.142384
0.0621366
0.132723
0.108321
0.125405
0.15581
0.160174
0.121721
0.0503362
0.0437996
0.109076
0.0939317
0.148233
0.124438
0.0453283
0.0700649
0.0689575
0.136057
0.152341
0.123392
0.0533206
0.0475617
0.121375
0.166148
0.054778
0.177362
0.16702
0.0162793
0.0599178
0.0874289
0.0358286
0.152336
0.0396123
0.0430494
0.136532
0.0968689
0.0218513
0.152109
0.131302
0.0649568
0.152734
0.145621
0.0467177
0.100975
0.119134
0.0635612
0.149434
0.158039
0.166147
0.0603942
0.181888
0.0483577
0.0628133
0.0676265
0.0767858
0.138148
0.108289
0.0763224
0.0727462
0.178116
0.0289235
0.0373609
0.0237145
0.0279448
0.0733392
0.125295
0.0534722
0.136151
0.124811
0.134809
0.136578
0.1309
0.0988591
0.0522462
0.0691699
0.023465
0.0569653
0.0998109
0.119675
0.131852
0.0338286
0.179875
0.0597547
0.0743542
0.103879
0.139027
0.0596137
0.173138
0.146858
0.160563
0.0756446
0.064918
0.0948714
0.0539558
0.0259828
0.129403
0.0541079
0.0258832
0.154323
0.178392
0.0539232
0.0379315
0.127082
0.145994
0.0461622
0.05391
0.158866
0.0743705
0.111658
0.0647045
0.160452
0.0399317
0.086263
0.0304137
0.0801206
0.140783
0.109447
0.110955
0.0568773
0.114675
0.149097
0.0768358
0.148494
0.0545437
0.120314
0.0571448
0.0285352
0.0752926
0.103911
0.0580621
0.163163
0.0351104
0.158515
0.0711413
0.163258
0.119902
0.159772
0.111676
0.137151
0.104476
0.130813
0.137521
0.167039
0.0518929
0.0964969
0.133536
0.0397216
0.160338
0.101366
0.0580691
0.0670292
0.0583814
0.0347627
0.0992878
0.102044
0.103732
0.0663702
0.040578
0.0388288
0.16172
0.127347
0.134206
0.108186
0.0239686
0.108518
0.137119
0.101795
0.151992
0.162744
0.0801387
0.0337221
0.0972638
0.14256
0.054811
0.174424
0.176199
0.172279
0.134121
0.06675
0.128249
0.104951
0.161166
0.15299
0.0928369
0.108517
0.159822
0.10182
0.12321
0.0960084
0.0587509
0.0703809
0.104826
0.17204
0.152303
0.0580965
0.0946853
0.0607067
0.153947
0.139863
0.125707
0.113126
0.116193
0.157893
0.0292376
0.139686
0.0959777
0.046424
0.128658
0.0973778
0.142937
0.0742175
0.104204
0.0658755
0.154398
0.120827
0.0301598
0.101702
0.0298928
0.131379
0.0484773
0.133178
0.0247598
0.0971226
0.140709
0.105095
0.0214035
0.100698
0.14197
0.115463
0.113834
0.135319
0.0230957
0.0442805
0.092734
0.103875
0.116919
0.0754173
0.151324
0.118194
0.0728429
0.0230249
0.153252
0.0979533
0.036508
0.09665
0.144924
0.0688112
0.165879
0.0231471
0.102397
0.086492
0.0186729
0.122567
0.0847382
0.0439303
0.0967723
0.131135
0.122589
0.137446
0.162409
0.10097
0.0910357
0.136655
0.0400834
0.0242291
0.065351
0.0408896
0.143837
0.0260354
0.0935773
0.138634
0.0662824
0.0994693
0.159327
0.141342
0.139665
0.0440683
0.122541
0.0174176
0.150565
0.16541
0.0384278
0.0476024
0.0325391
0.0919578
0.10476
0.0939744
0.0961122
0.0509158
0.0840814
0.129078
0.0534356
0.111396
0.137475
0.0449239
0.0463378
0.0978633
0.074548
0.0974603
0.041202
0.0435641
0.0445004
0.147234
0.135486
0.0651752
0.044328
0.0734688
0.0468153
0.106973
0.0818412
0.0538397
0.0337741
0.129407
0.103214
0.135877
0.122839
0.124793
0.118509
0.1149
0.163372
0.11808
0.121716
0.12479
0.0697419
0.154436
0.0407487
0.141893
0.0703771
0.0704985
0.0328237
0.0253737
0.146517
0.11968
0.100037
0.142434
0.158681
0.130343
0.15757
0.123712
0.0643863
0.152582
0.0365002
0.159978
0.164968
0.0768556
0.0980293
0.11532
0.156412
0.0266423
0.135885
0.0829627
0.0159596
0.0917531
0.156876
0.168703
0.0166622
0.130412
0.0233562
0.0374505
0.131161
0.134115
0.0888354
0.0705236
0.133553
0.11015
0.159397
0.162711
0.0983511
0.034897
0.10002
0.0206351
0.080251
0.0940206
0.0771103
0.133915
0.105107
0.124278
0.0302759
0.120732
0.0429006
0.0658039
0.0170174
0.0674383
0.119567
0.112923
0.02534
0.119768
0.0912485
0.0229928
0.0197226
0.119053
0.147799
0.0894684
0.133051
0.150941
0.12227
0.142915
0.136483
0.0621354
0.106897
0.117734
0.130763
0.153401
0.121526
0.1576
0.0744685
0.156648
0.125517
0.0376817
0.148322
0.0303642
0.0720603
0.0313647
0.101455
0.0620716
0.097969
0.0738016
0.019494
0.160449
0.12746
0.139321
0.0961283
0.0559419
0.129043
0.140721
0.126656
0.116983
0.147058
0.119624
0.0258987
0.111068
0.0380296
0.03001
0.0653389
0.0650891
0.155658
0.132023
0.160039
0.130965
0.0634356
0.124691
0.0843993
0.144775
0.157402
0.123862
0.117049
0.0883078
0.0974124
0.0897772
0.160326
0.103129
0.100504
0.0369144
0.146607
0.140759
0.135637
0.10048
0.12207
0.0928794
0.0248424
0.123538
0.143919
0.140754
0.123986
0.0730475
0.038669
0.0439756
0.0367989
0.140613
0.0209059
0.134237
0.13651
0.10153
0.0920017
0.114754
0.0495204
0.140716
0.0639323
0.132251
0.1138
0.152663
0.155066
0.127993
0.0853765
0.0883421
0.0397742
0.114501
0.057544
0.0422846
0.0155503
0.136087
0.0196926
0.128857
0.0251028
0.113887
0.145971
0.12586
0.143458
0.0356112
0.128255
0.05814
0.164919
0.141684
0.156056
0.0414612
0.150841
0.0422593
0.122751
0.12238
0.149676
0.140065
0.0733301
0.130757
0.150282
0.123524
0.100059
0.140908
0.0680058
0.0786972
0.0919937
0.145186
0.147298
0.147396
0.111255
0.026049
0.101434
0.0968598
0.0392199
0.147176
0.164191
0.132317
0.144973
0.0414688
0.0337102
0.0576063
0.15289
0.089358
0.120272
0.165411
0.058536
0.0634012
0.152199
0.0529906
0.168591
0.0659168
0.112785
0.0934258
0.0242159
0.133181
0.156853
0.0408971
0.150846
0.0284222
0.0851883
0.131247
0.139257
0.155482
0.133889
0.061274
0.0250454
0.161472
0.151596
0.129502
0.159958
0.129034
0.151248
0.0617446
0.148537
0.148623
0.140154
0.107682
0.032063
0.0703797
0.133602
0.0190474
0.145036
0.0931996
0.0762838
0.134667
0.0742256
0.133152
0.107335
0.0229676
0.131486
0.124806
0.153282
0.0535989
0.0685054
0.0234086
0.127463
0.12851
0.0266579
0.153874
0.160255
0.0327545
0.12887
0.0360191
0.143915
0.151374
0.147159
0.0544934
0.151676
0.170326
0.158501
0.15154
0.128752
0.0552944
0.0314707
0.13292
0.0342013
0.116859
0.0871654
0.0635575
0.0838891
0.0414958
0.0353453
0.115377
0.122268
0.0811761
0.0300364
0.0224951
0.117928
0.128857
0.147226
0.152645
0.0248015
0.0348557
0.045815
0.144522
0.033418
0.118411
0.125499
0.116762
0.147842
0.0751237
0.150107
0.122515
0.0247524
0.0754084
0.0268432
0.119294
0.0244642
0.0631148
0.0413959
0.140136
0.0978041
0.147615
0.156582
0.0722214
0.0469492
0.128448
0.174611
0.100924
0.136432
0.0336022
0.118112
0.149861
0.132682
0.0684179
0.136773
0.10513
0.146569
0.0217651
0.135885
0.0690274
0.12679
0.146348
0.0743306
0.155773
0.0191699
0.106411
0.0393906
0.0542023
0.151661
0.14414
0.0210399
0.128688
0.142
0.1109
0.0234783
0.103055
0.11586
0.100045
0.153345
0.0653691
0.0827617
0.0313311
0.0479441
0.0966502
0.0902772
0.105237
0.0631677
0.177488
0.0647672
0.100147
0.0710641
0.144954
0.139809
0.0628552
0.158694
0.0637227
0.124218
0.0763106
0.146537
0.0854775
0.0968984
0.144389
0.0959141
0.144211
0.101052
0.126184
0.0797863
0.076215
0.149538
0.134397
0.136461
0.0433637
0.0905587
0.15121
0.0280429
0.108413
0.0238169
0.0739854
0.129757
0.0967202
0.119992
0.104277
0.0882374
0.12919
0.0961672
0.144821
0.0272363
0.0709228
0.140922
0.11779
0.123358
0.103493
0.0598432
0.0861014
0.144094
0.0745151
0.129648
0.0652627
0.0197257
0.0683956
0.074667
0.134428
0.0948662
0.0478073
0.0956969
0.137148
0.126867
0.133296
0.126045
0.0646215
0.14359
0.0240906
0.133389
0.105926
0.148239
0.0238876
0.0761797
0.108928
0.0220841
0.0685298
0.14165
0.0801274
0.144384
0.0230809
0.099396
0.158528
0.0211238
0.0430897
0.178344
0.115021
0.0331929
0.0887944
0.0610822
0.135828
0.0670085
0.0624511
0.149294
0.107591
0.0636504
0.13271
0.147983
0.158446
0.0733118
0.156553
0.157991
0.0228418
0.115709
0.0771778
0.0527396
0.155863
0.0613359
0.0976644
0.149606
0.0430247
0.11512
0.0990912
0.0998039
0.157598
0.0730566
0.135799
0.0972939
0.0591966
0.129726
0.119607
0.0625948
0.103103
0.0818465
0.150684
0.168134
0.0355086
0.0924132
0.157618
0.101235
0.157391
0.034098
0.123703
0.0605607
0.138929
0.150936
0.109448
0.138529
0.0261469
0.0934327
0.140116
0.145219
0.123176
0.144176
0.112246
0.128598
0.131125
0.0455005
0.118484
0.102419
0.097263
0.163276
0.14848
0.142229
0.059714
0.147474
0.06234
0.0809785
0.106178
0.067165
0.0273721
0.141326
0.145322
0.0217146
0.112934
0.0201456
0.0162706
0.148527
0.146369
0.157644
0.040136
0.0407311
0.130256
0.144808
0.157636
0.0245993
0.0408284
0.157357
0.0973107
0.0737618
0.115569
0.0321975
0.0344801
0.0154573
0.0243515
0.147072
0.0406477
0.0228561
0.136107
0.0302935
0.135225
0.144617
0.100021
0.146334
0.121806
0.0279164
0.0203421
0.0242115
0.0256265
0.156958
0.122924
0.0257821
0.117534
0.131483
0.0619122
0.067836
0.0336749
0.149891
0.143794
0.1471
0.0685963
0.105809
0.173458
0.125312
0.066851
0.125864
0.0213898
0.0659057
0.0693453
0.0201276
0.0542615
0.102573
0.0696886
0.156808
0.0165092
0.0152518
0.0999891
0.149665
0.0982152
0.0182503
0.145705
0.0382166
0.0510057
0.149901
0.150237
0.11619
0.0303227
0.0323687
0.109429
0.0194693
0.0934395
0.138664
0.141301
0.15366
0.0802615
0.0950323
0.0657455
0.0286344
0.128945
0.153815
0.14601
0.134681
0.0268805
0.0656701
0.0241262
0.0984266
0.108039
0.0395888
0.131389
0.148411
0.109222
0.148262
0.114782
0.030022
0.0609636
0.153411
0.144325
0.130383
0.129659
0.149087
0.0479379
0.119003
0.0986416
0.118475
0.0191199
0.129584
0.0195802
0.100736
0.0707498
0.0519114
0.11255
0.0343391
0.0670364
0.0187735
0.0274431
0.130661
0.038985
0.0446017
0.153394
0.022511
0.0298222
0.0208947
0.0530534
0.148258
0.0400678
0.103595
0.0246224
0.0933905
0.0219977
0.0252975
0.155139
0.018983
0.0887176
0.0583519
0.0362223
0.050515
0.0215927
0.127887
0.0533886
0.113965
0.135606
0.0701734
0.0883418
0.169085
0.0429472
0.0507061
0.0971709
0.113845
0.128379
0.0313672
0.0851769
0.121932
0.077321
0.0664982
0.0251239
0.0984524
0.142906
0.0509763
0.0294522
0.0357994
0.0771791
0.146039
0.0543239
0.146852
0.149917
0.146557
0.163513
0.140698
0.0947319
0.053846
0.0420387
0.118744
0.144842
0.156107
0.035878
0.150398
0.0485106
0.115411
0.0183943
0.125543
0.149141
0.103082
0.0207709
0.0246875
0.150856
0.172568
0.0505759
0.0422287
0.145312
0.0962787
0.138684
0.052539
0.117557
0.0736577
0.0570252
0.0509014
0.106479
0.0190876
0.148195
0.148541
0.137016
0.0461102
0.03444
0.104398
0.149603
0.117411
0.0159311
0.0335238
0.0708559
0.0684629
0.0355902
0.139995
0.100388
0.0551506
0.0729743
0.0939761
0.0664752
0.153623
0.153535
0.0227175
0.0242045
0.169671
0.0352038
0.150458
0.0354012
0.0383295
0.111406
0.103559
0.0716518
0.116618
0.074659
0.0784794
0.0366141
0.0283403
0.0633299
0.154058
0.101001
0.153411
0.0674155
0.0531018
0.0476366
0.0226682
0.101478
0.0615788
0.127071
0.0236263
0.0784982
0.0235675
0.0818097
0.0734925
0.156475
0.0250971
0.041279
0.150969
0.0265223
0.0653089
0.0735705
0.131353
0.0957528
0.148368
0.170369
0.0345552
0.106943
0.0586047
0.0519351
0.0368549
0.0403058
0.024668
0.0879702
0.0351572
0.126287
0.142895
0.14812
0.0986583
0.169577
0.0265408
0.136345
0.104216
0.0745287
0.123955
0.0542854
0.148168
0.048967
0.122341
0.119315
0.0470482
0.0737163
0.159034
0.0551195
0.0507341
0.0219851
0.0632688
0.124114
0.0669625
0.0219094
0.114927
0.0233755
0.026457
0.0760742
0.0959466
0.13626
0.0799206
0.0322388
0.149576
0.111209
0.0746876
0.0241803
0.0796666
0.0631554
0.0475912
0.0284395
0.0386462
0.0431762
0.0497668
0.0351861
0.128185
0.0729673
0.145487
0.029728
0.0179218
0.0412208
0.0367425
0.0598876
0.0609942
0.102931
0.137592
0.100273
0.0527573
0.0778121
0.0493987
0.144631
0.0365824
0.0694201
0.100227
0.106116
0.154158
0.0537984
0.124098
0.0536995
0.0480369
0.0901332
0.0753865
0.0211201
0.128861
0.0939884
0.0595702
0.10197
0.0365369
0.0771692
0.11121
0.0762303
0.147417
0.0668494
0.0381318
0.0742449
0.0550855
0.0760767
0.0815969
0.0743897
0.0553094
0.031337
0.054956
0.12296
0.144364
0.0733177
0.0212652
0.0713397
0.048545
0.14719
0.0817088
0.067115
0.0456181
0.07954
0.1007
0.0617739
0.0777626
0.148945
0.134941
0.130702
0.135284
0.0456962
0.134891
0.0709668
0.0784611
0.0988759
0.150832
0.151266
0.028423
0.0668737
0.150235
0.0699489
0.117337
0.0992851
0.0170781
0.126607
0.148206
0.118467
0.164617
0.0562511
0.128386
0.0671233
0.151749
0.119278
0.130286
0.150567
0.0556767
0.0918939
0.061943
0.151484
0.062722
0.0245708
0.0934605
0.116595
0.112601
0.081112
0.095764
0.117474
0.100132
0.0684599
0.0740993
0.165481
0.0345832
0.0856752
0.0955818
0.0161303
0.0247233
0.0952589
0.0905508
0.116344
0.0528595
0.0970444
0.127539
0.0631958
0.147168
0.12572
0.103151
0.105312
0.0921546
0.105614
0.0816736
0.0190885
0.0233007
0.0976147
0.0978673
0.145579
0.143542
0.154601
0.0518077
0.135755
0.126032
0.0569191
0.101219
0.0995952
0.0573056
0.077924
0.165778
0.0467264
0.149296
0.0880573
0.101616
0.0866749
0.0932827
0.13039
0.155317
0.109842
0.0480141
0.146612
0.131509
0.1511
0.154731
0.125863
0.050599
0.0908248
0.149187
0.0457246
0.0404973
0.049975
0.151057
0.10983
0.0523566
0.0816446
0.10231
0.0966229
0.0507767
0.10212
0.103491
0.153723
0.0256207
0.140228
0.0409801
0.061291
0.0724152
0.158461
0.148515
0.143845
0.0950386
0.0625765
0.100493
0.0539856
0.0254175
0.07352
0.141729
0.123486
0.039819
0.0531245
0.117948
0.0228205
0.0757428
0.123188
0.151961
0.0632619
0.0918855
0.132607
0.122372
0.0705352
0.11235
0.081543
0.0349485
0.117988
0.0479921
0.0218075
0.0926572
0.0705253
0.105977
0.164029
0.108573
0.0598021
0.141948
0.0973528
0.0880416
0.0827591
0.0356963
0.0735173
0.134091
0.0502464
0.136259
0.109606
0.108083
0.0949844
0.146636
0.118856
0.0908688
0.107548
0.0993836
0.0605238
0.0698016
0.122213
0.133372
0.0959077
0.147251
0.153284
0.109954
0.127388
0.129615
0.0938375
0.0826621
0.0955519
0.146982
0.122536
0.0683924
0.143791
0.0871762
0.15008
0.108035
0.154199
0.0663997
0.0737879
0.0618103
0.0522499
0.144912
0.0513963
0.0860353
0.126997
0.112931
0.147987
0.0555741
0.0405932
0.0679755
0.0622369
0.117768
0.106746
0.0241217
0.0841511
0.152253
0.146336
0.0535933
0.0451048
0.0963838
0.117461
0.155931
0.157747
0.150126
0.141293
0.135808
0.154228
0.102526
0.112514
0.0982025
0.112177
0.0179706
0.165077
0.150414
0.0277168
0.0986777
0.146841
0.115591
0.162053
0.10342
0.0237027
0.107254
0.0614344
0.0834628
0.0595627
0.0493986
0.152647
0.151722
0.0740094
0.0212046
0.149634
0.100137
0.110231
0.106149
0.104678
0.0796201
0.0988541
0.136438
0.0949797
0.0597424
0.069496
0.123449
0.146074
0.142954
0.097988
0.0378166
0.151952
0.0769317
0.0853089
0.0243835
0.0976667
0.154077
0.123738
0.121523
0.104297
0.0811674
0.142452
0.0864881
0.149972
0.096928
0.101522
0.0203902
0.111494
0.103493
0.116994
0.0418063
0.125898
0.10943
0.146795
0.0694564
0.0560794
0.0663312
0.171637
0.0604578
0.0364006
0.0997065
0.153138
0.0972485
0.149433
0.143413
0.078915
0.0824059
0.0280907
0.106559
0.119742
0.124864
0.0918608
0.0931143
0.116653
0.0722247
0.114426
0.0685012
0.0982726
0.117923
0.126968
0.0969505
0.0906842
0.120392
0.125281
0.142974
0.0939384
0.0558241
0.0969982
0.0193333
0.123803
0.118289
0.118992
0.102538
0.11459
0.0972992
0.109596
0.110653
0.148756
0.0964005
0.151516
0.102339
0.0525628
0.10009
0.148544
0.100766
0.140593
0.039587
0.121727
0.0913546
0.0761474
0.149916
0.0759915
0.0996647
0.0226724
0.111179
0.132111
0.110212
0.0711537
0.110607
0.14886
0.0620171
0.0489141
0.0260965
0.0889921
0.144059
0.0955346
0.153478
0.0245939
0.0956983
0.122009
0.08482
0.0962105
0.117666
0.129036
0.13094
0.0918371
0.119366
0.0879369
0.0931
0.0988803
0.116983
0.139124
0.126029
0.148839
0.0562513
0.102614
0.153283
0.0587741
0.0666141
0.0960794
0.0680594
0.112282
0.153456
0.148709
0.0622963
0.113024
0.0717515
0.132589
0.147549
0.0905695
0.0688286
0.166571
0.0972573
0.15606
0.0792798
0.017314
0.146391
0.100598
0.0946803
0.0792913
0.0952615
0.098089
0.119514
0.165272
0.136557
0.0958281
0.105053
0.151035
0.0862659
0.153477
0.115151
0.099204
0.100912
0.138734
0.112576
0.090167
0.0903375
0.0905838
0.109316
0.090328
0.044192
0.0916569
0.148411
0.146991
0.10727
0.0900639
0.0498056
0.0216068
0.131767
0.0673979
0.100222
0.0739438
0.144402
0.147211
0.147979
0.0737416
0.14967
0.0920406
0.0795931
0.0968466
0.0610613
0.0953023
0.0994554
0.0738303
0.0661904
0.118714
0.0517525
0.0997278
0.0975733
0.149883
0.0696816
0.0930922
0.0932725
0.11336
0.0640216
0.115194
0.112928
0.110692
0.127038
0.1186
0.0976504
0.0440199
0.126311
0.0968547
0.0677221
0.102898
0.099466
0.0963064
0.10786
0.0644592
0.09001
0.121106
0.124412
0.057463
0.0991225
0.0357946
0.114094
0.0929254
0.147286
0.084297
0.115065
0.100534
0.141654
0.0786189
0.153707
0.0893812
0.105689
0.0940998
0.096517
0.0686574
0.111626
0.153075
0.109243
0.148796
0.11569
0.102922
0.0827145
0.0358424
0.154522
0.127359
0.0968014
0.15334
0.107615
0.0561651
0.0653726
0.112039
0.144568
0.122744
0.123065
0.147911
0.154689
0.115438
0.103452
0.114497
0.0971436
0.128662
0.082993
0.0968929
0.0971907
0.100562
0.135493
0.14154
0.110403
0.142228
0.100881
0.154054
0.113555
0.157218
0.101992
0.135498
0.116059
0.149321
0.15363
0.0960365
0.107045
0.156559
0.0854741
0.149916
0.100958
0.0965528
0.100211
0.110963
0.114148
0.151819
0.146275
0.0963908
0.0635378
0.148424
0.130428
0.113314
0.155007
0.0659277
0.100534
0.0981796
0.0658331
0.117473
0.101535
0.155343
0.082414
0.0557335
0.139975
0.12407
0.123917
0.116056
0.125221
0.151696
0.114013
0.116512
0.126417
0.0475332
0.172419
0.149759
0.151939
0.104681
0.134524
0.142261
0.0693263
0.106686
0.126048
0.150616
0.137227
0.149673
0.126433
0.148648
0.150597
0.148689
0.13027
0.104238
0.082178
0.129823
0.117716
0.0213068
0.0977545
0.153315
0.106816
0.0349503
0.126273
0.111525
0.0809217
0.137428
0.149228
0.127852
0.151905
0.121828
0.122812
0.147542
0.11647
0.150221
0.0632137
0.0771786
0.0541696
0.0936955
0.139978
0.0811612
0.0447345
0.103193
0.0465123
0.150215
0.145983
0.12849
0.127786
0.126015
0.152945
0.0949066
0.148409
0.150468
0.0917892
0.115594
0.111942
0.0995862
0.12054
0.125202
0.0684992
0.0554229
0.121461
0.11091
0.148075
0.08758
0.079996
0.129835
0.0214345
0.149712
0.152349
0.0822789
0.0982163
0.151111
0.0641243
0.114058
0.147238
0.108856
0.152043
0.128038
0.154343
0.0794817
0.142382
0.119195
0.131902
0.105975
0.0684371
0.12334
0.0374256
0.134418
0.133994
0.127308
0.060659
0.0409135
0.145014
0.123079
0.129872
0.12194
0.128433
0.0310707
0.100044
0.118103
0.105533
0.148871
0.131542
0.0552647
0.109233
0.124491
0.135239
0.101088
0.148812
0.0782365
0.147526
0.1425
0.127062
0.104411
0.118719
0.0238727
0.119627
0.13327
0.0914672
0.141306
0.0305365
0.154021
0.116596
0.088687
0.150379
0.109542
0.132751
0.0685112
0.168946
0.159502
0.0536829
0.13484
0.120484
0.131688
0.101052
0.0954821
0.0694063
0.0892034
0.151596
0.125914
0.123196
0.113311
0.0281027
0.142229
0.14319
0.138776
0.0622342
0.11519
0.107663
0.123848
0.110509
0.105205
0.111756
0.132884
0.107114
0.112637
0.130914
0.131057
0.119958
0.110629
0.124504
0.139007
0.108178
0.146342
0.0904133
0.153161
0.109518
0.146022
0.0539344
0.132007
0.114021
0.133532
0.151185
0.113284
0.0325181
0.0211976
0.0981722
0.0420789
0.100759
0.101952
0.110269
0.0358149
0.0640156
0.116481
0.0362385
0.14896
0.141577
0.117336
0.110774
0.100577
0.148977
0.145705
0.154068
0.113934
0.112924
0.121113
0.149314
0.147777
0.0421732
0.134798
0.0705992
0.0906067
0.148572
0.101432
0.126028
0.147201
0.105303
0.057879
0.117668
0.136195
0.100958
0.148437
0.0223305
0.141753
0.120479
0.15787
0.097465
0.136073
0.13722
0.0380943
0.15286
0.110295
0.0982953
0.127633
0.105266
0.152463
0.103237
0.122656
0.144145
0.146288
0.146933
0.153183
0.0517621
0.0972443
0.145117
0.0968869
0.0971417
0.119206
0.130558
0.0991293
0.135387
0.127448
0.141411
0.13124
0.0689862
0.0794416
0.0898123
0.131247
0.11071
0.148727
0.0805969
0.121997
0.111567
0.100361
0.0701391
0.135891
0.149975
0.0670521
0.0776137
0.146229
0.115971
0.133935
0.149218
0.128581
0.039544
0.134182
0.124736
0.14618
0.140473
0.142907
0.152814
0.129746
0.124977
0.148331
0.127997
0.135948
0.139714
0.0615396
0.148489
0.131546
0.152669
0.0475999
0.14056
0.115764
0.103689
0.114206
0.148375
0.132728
0.149109
0.151824
0.126135
0.136532
0.0918632
0.140405
0.132364
0.116657
0.0323529
0.0506297
0.123337
0.102312
0.146265
0.153339
0.13514
0.134245
0.13596
0.147206
0.152691
0.103853
0.152073
0.121128
0.115775
0.103539
0.113564
0.1405
0.0963651
0.128938
0.0691489
0.110805
0.11689
0.135926
0.152546
0.0969112
0.101865
0.12805
0.0564442
0.11216
0.0581878
0.0890807
0.120119
0.106844
0.149933
0.140855
0.161314
0.0978795
0.0356639
0.110102
0.116132
0.137608
0.0487514
0.113512
0.0637686
0.11667
0.116648
0.140927
0.127466
0.115764
0.10854
0.128787
0.128839
0.121399
0.141358
0.120831
0.13996
0.125544
0.118761
0.101717
0.135911
0.0343195
0.0308742
0.138755
0.132483
0.0368259
0.093594
0.12496
0.142465
0.124178
0.142993
0.15069
0.115767
0.0994573
0.127621
0.118369
0.105796
0.119079
0.126689
0.0723082
0.0770414
0.0705615
0.115928
0.0942593
0.10922
0.13937
0.147837
0.0911206
0.140264
0.0387185
0.0582093
0.117985
0.152068
0.127374
0.123185
0.1313
0.125869
0.140704
0.118051
0.11829
0.132412
0.117175
0.101592
0.15318
0.140077
0.118168
0.121305
0.0877361
0.109462
0.152067
0.131441
0.0986308
0.10315
0.125106
0.119751
0.0996641
0.153126
0.116587
0.152807
0.125391
0.122661
0.152671
0.0745645
0.11722
0.0838004
0.154035
0.119063
0.146319
0.135024
0.0396132
0.101471
0.139871
0.146026
0.147983
0.153132
0.133259
0.135582
0.108128
0.128087
0.0459944
0.076049
0.167454
0.107033
0.100013
0.123455
0.1318
0.148604
0.131686
0.143066
0.0906486
0.149639
0.116854
0.11544
0.120792
0.148948
0.0413879
0.110958
0.135919
0.147873
0.0821901
0.135975
0.0975338
0.0286623
0.100194
0.142467
0.0453113
0.12987
0.147169
0.14372
0.129907
0.148752
0.0218779
0.123334
0.106916
0.143172
0.101074
0.127198
0.124757
0.126462
0.0981838
0.142202
0.0982105
0.132721
0.152324
0.132257
0.0495744
0.139404
0.145575
0.130634
0.106365
0.0488967
0.152636
0.0555637
0.100653
0.12564
0.136459
0.127914
0.09909
0.15401
0.147867
0.121398
0.134479
0.128857
0.105768
0.0554413
0.139516
0.131508
0.10949
0.105403
0.126921
0.147561
0.124017
0.0682044
0.139606
0.0348083
0.119231
0.108635
0.153911
0.153858
0.126776
0.135444
0.124961
0.152308
0.102863
0.0927201
0.120018
0.117954
0.122333
0.149282
0.129294
0.03579
0.131672
0.093545
0.144716
0.148681
0.0629763
0.11775
0.154
0.130705
0.129843
0.0285843
0.142519
0.131858
0.119682
0.143669
0.130341
0.131068
0.0991684
0.145949
0.0533054
0.154076
0.114702
0.133114
0.124049
0.0772269
0.136771
0.124278
0.151857
0.141927
0.126217
0.13041
0.169465
0.0904058
0.125345
0.142932
0.116331
0.142553
0.105293
0.133822
0.120624
0.130215
0.0759714
0.112748
0.0577916
0.142853
0.139559
0.132486
0.131262
0.146218
0.111888
0.13454
0.108806
0.107233
0.123365
0.123034
0.130403
0.137048
0.135722
0.141015
0.125118
0.133327
0.140824
0.101496
0.12855
0.127831
0.139021
0.127737
0.0838418
0.131794
0.130812
0.156449
0.136842
0.0560405
0.0392351
0.0697618
0.142287
0.126445
0.123914
0.157276
0.111765
0.147185
0.138179
0.147234
0.15509
0.141163
0.0662725
0.13394
0.142066
0.14053
0.149017
0.14905
0.128664
0.128615
0.143338
0.0829291
0.147155
0.0348232
0.131113
0.145361
0.0978329
0.141271
0.148121
0.13316
0.152252
0.103198
0.143689
0.125372
0.142616
0.159913
0.112351
0.144212
0.106389
0.151032
0.135293
0.128754
0.148397
0.134908
0.138534
0.132936
0.153214
0.124007
0.119749
0.136591
0.130044
0.130031
0.0797469
0.0260729
0.133129
0.144303
0.0771017
0.138867
0.145918
0.133989
0.0364677
0.145763
0.0971481
0.0274872
0.148414
0.117774
0.147441
0.11281
0.140963
0.113872
0.148655
0.115912
0.134542
0.107835
0.132124
0.14306
0.156105
0.132113
0.0840434
0.0828705
0.113564
0.147361
0.13608
0.137857
0.129745
0.133362
0.137701
0.118592
0.129257
0.0987224
0.153092
0.151861
0.0256961
0.135267
0.145752
0.125586
0.148854
0.153147
0.130281
0.141521
0.136146
0.146075
0.147083
0.117647
0.152434
0.136991
0.103039
0.152825
0.148594
0.164984
0.0427948
0.0801315
0.0336456
0.12768
0.133773
0.179825
0.132434
0.147582
0.0980719
0.11733
0.141847
0.152537
0.0990318
0.130244
0.0252368
0.132226
0.146011
0.12138
0.15202
0.152774
0.147316
0.14504
0.14736
0.140483
0.111903
0.145982
0.148452
0.134435
0.131479
0.0903761
0.146375
0.135929
0.146937
0.16175
0.0922265
0.140732
0.151569
0.161569
0.152346
0.104605
0.141711
0.133225
0.126958
0.102008
0.0934153
0.129508
0.142649
0.143315
0.041771
0.0664495
0.145365
0.143693
0.105151
0.126214
0.155442
0.0884403
0.115262
0.148545
0.129023
0.130732
0.132664
0.148787
0.132948
0.117388
0.129542
0.147723
0.0908565
0.0615578
0.135911
0.0911607
0.110729
0.128899
0.0278614
0.147284
0.152228
0.14635
0.145998
0.134619
0.148665
0.15476
0.0263999
0.147304
0.145981
0.144628
0.14854
0.146462
0.0978163
0.135176
0.0496247
0.152941
0.149043
0.098824
0.131666
0.13266
0.128452
0.0717288
0.113853
0.147402
0.148346
0.143634
0.125005
0.135269
0.134431
0.159927
0.11918
0.132171
0.0867968
0.136454
0.136048
0.126494
0.133078
0.131918
0.185749
0.146029
0.142493
0.138145
0.137566
0.144864
0.14704
0.13431
0.129612
0.129966
0.154632
0.0902413
0.147284
0.145818
0.144354
0.135791
0.139915
0.147818
0.131444
0.114898
0.14645
0.110999
0.143436
0.125371
0.0555584
0.143047
0.101837
0.152361
0.146788
0.145804
0.133804
0.0989531
0.115137
0.13504
0.130417
0.153755
0.147877
0.144913
0.137219
0.132391
0.131779
0.115431
0.132063
0.137749
0.14744
0.12835
0.147457
0.146407
0.144842
0.148135
0.141018
0.132162
0.15125
0.138749
0.150875
0.136731
0.146945
0.101196
0.0684004
0.0640436
0.148601
0.104381
0.122709
0.134404
0.148225
0.0876135
0.13148
0.146734
0.100368
0.129016
0.102179
0.148505
0.127314
0.146838
0.132589
0.134918
0.146356
0.135598
0.135643
0.137168
0.146855
0.148156
0.12694
0.152895
0.132134
0.144392
0.147194
0.151607
0.14565
0.149293
0.148642
0.0542737
0.0763425
0.0402016
0.131549
0.153105
0.124598
0.132385
0.144309
0.129278
0.147591
0.112017
0.133162
0.15216
0.118247
0.151087
0.121804
0.148478
0.148613
0.127867
0.0723766
0.146133
0.124257
0.14145
0.146023
0.167173
0.145271
0.143099
0.137848
0.133851
0.143004
0.146114
0.130614
0.0942663
0.142709
0.161479
0.150765
0.171088
0.155776
0.143069
0.103776
0.122476
0.146064
0.131009
0.143084
0.117278
0.123873
0.160136
0.146973
0.146151
0.138611
0.135303
0.0970539
0.148098
0.132259
0.116784
0.142963
0.131698
0.149334
0.148812
0.166022
0.136713
0.143231
0.131219
0.15332
0.134188
0.10186
0.149676
0.147824
0.137319
0.0719488
0.148406
0.144461
0.134477
0.141492
0.132261
0.14877
0.147236
0.10291
0.152462
0.123466
0.150461
0.142547
0.148447
0.146497
0.138487
0.143594
0.151746
0.143532
0.147351
0.148547
0.148218
0.148845
0.147692
0.142342
0.148573
0.143694
0.133159
0.14438
0.132738
0.1366
0.134099
0.147666
0.141959
0.147427
0.115394
0.130939
0.0947913
0.141939
0.146063
0.148839
0.0530143
0.147306
0.149064
0.145649
0.148315
0.115494
0.148433
0.14849
0.148714
0.134379
0.144157
0.135133
0.0791297
0.145256
0.136656
0.14898