/*--------------------------------*- C++ -*----------------------------------*\
| =========                 |                                                 |
| \\      /  F ield         | OpenFOAM: The Open Source CFD Toolbox           |
|  \\    /   O peration     | Version:  v2012                                 |
|   \\  /    A nd           | Website:  www.openfoam.com                      |
|    \\/     M anipulation  |                                                 |
\*---------------------------------------------------------------------------*/
FoamFile
{
    version     2.0;
    format      ascii;
    class       volVectorField;
    location    "650";
    object      ddt0(U);
}
// * * * * * * * * * * * * * * * * * * * * * * * * * * * * * * * * * * * * * //

dimensions      [0 1 -2 0 0 0 0];


internalField   nonuniform List<vector> 
9793
(
(3.65981e-05 -0.000115984 -4.03364e-18)
(-0.0274924 0.00129887 3.74628e-17)
(0.000586816 -0.000838867 -1.29775e-17)
(-0.00141958 -0.0163046 1.58089e-17)
(0.00118027 0.000114731 -3.67309e-18)
(0.0183216 -0.0137233 -5.14209e-18)
(-0.00517308 -0.0108195 6.26667e-18)
(-0.0556228 -0.0105548 7.20378e-17)
(0.00127376 -0.000497975 -3.50574e-19)
(-0.0104242 -0.00478277 -3.01191e-17)
(0.00010933 6.72182e-05 5.2145e-19)
(0.00012784 4.61959e-05 2.47209e-18)
(-0.00053983 -0.000443947 -1.27221e-18)
(0.0085823 -0.054981 -9.14285e-18)
(0.00222438 5.27917e-05 -4.04153e-18)
(0.00716537 0.00527941 7.33751e-18)
(0.00833148 -0.00883386 -3.86649e-17)
(-0.00113917 -0.000772275 -6.75056e-18)
(-0.0224766 -0.0277831 2.1107e-17)
(9.86107e-05 0.000240143 5.17464e-19)
(0.000202352 0.000484376 1.94155e-18)
(8.44143e-07 2.84151e-05 -1.99363e-18)
(0.000237077 -0.015837 -2.73109e-17)
(-0.0524136 -0.0122356 1.05441e-16)
(0.00973097 -0.055629 4.30383e-18)
(-0.000677618 -2.40709e-05 8.36436e-18)
(-0.00035319 -0.00023096 -5.43945e-20)
(-0.000615622 3.05495e-05 2.98147e-18)
(0.000135142 0.000246187 -2.22145e-19)
(0.00241087 -0.0136827 -3.27178e-17)
(-0.00770758 -0.00223774 -3.86015e-17)
(0.0209062 -0.0225542 7.83707e-17)
(0.00134512 -0.000795877 3.44789e-19)
(0.000304836 -0.000747192 4.93381e-18)
(-0.000345443 -1.11047e-05 5.20499e-20)
(0.00763823 -0.00134554 -3.87221e-18)
(0.00450248 0.00375805 -4.05833e-18)
(0.000327128 0.00029393 -1.46562e-18)
(-0.00413664 -0.0307636 -1.89944e-17)
(0.00450637 -0.00448042 -3.96721e-18)
(0.00228699 -0.0127578 -5.74244e-18)
(-0.10281 -0.0108646 7.59407e-18)
(-0.0692763 -0.0288888 9.4079e-18)
(0.000131942 2.28224e-05 -4.16054e-18)
(-0.000163948 -0.000924801 -3.67937e-19)
(-0.00019901 -0.000680479 -6.94756e-19)
(-0.03375 0.00486328 -5.26862e-17)
(0.000367057 4.43827e-05 2.99774e-18)
(-0.000675022 0.00113825 -9.54816e-19)
(-0.000774741 -0.000798714 2.6457e-18)
(0.00787909 -0.00096463 -6.84017e-18)
(-0.000791928 -9.77378e-06 -5.08203e-20)
(0.00822367 -0.00461894 2.17039e-17)
(0.00034038 7.69761e-05 -4.42714e-18)
(-0.00196946 -0.000219434 6.26315e-19)
(-0.00148155 -0.0172628 8.3047e-19)
(-0.000924865 -0.000407268 -8.00633e-19)
(0.0166054 -0.00732051 2.07868e-17)
(-0.000511928 0.00109181 1.33319e-18)
(-1.70242e-06 2.40482e-05 -1.70498e-18)
(-1.58898e-05 0.000420082 1.12023e-17)
(-0.00775435 0.00196811 -1.46011e-17)
(0.000420496 -0.00086262 -5.036e-19)
(0.0113608 0.00139552 4.10296e-19)
(-0.00230324 -6.61013e-05 -1.78035e-19)
(0.00114824 -0.000421366 -1.11178e-18)
(0.00724163 0.00344736 -2.69783e-17)
(0.00414376 -0.00148908 -3.58918e-18)
(0.00490581 0.00450693 -1.78298e-19)
(-0.0515606 -0.0181864 -4.85366e-17)
(0.000240435 -0.000339314 1.32204e-18)
(0.00044361 0.00568593 -8.4272e-17)
(-0.0613721 -0.00536597 3.3101e-17)
(0.067657 -0.000701798 -3.50399e-18)
(-0.0575228 -0.0228395 -1.8696e-17)
(0.000113356 6.7021e-05 1.61672e-18)
(-0.00246574 0.00198896 1.39579e-17)
(-0.139194 -0.0359711 -9.23297e-17)
(0.000333094 -0.000889499 6.67981e-18)
(0.000271105 8.7483e-05 -2.92184e-18)
(-0.00244833 0.00213604 -2.69334e-17)
(-0.0255606 -0.0269333 -2.60216e-17)
(0.00847676 -0.00815321 5.28319e-19)
(0.000292543 -0.00110338 -3.01709e-18)
(0.0051127 0.004092 -1.1187e-17)
(0.00148635 -0.0238631 4.69374e-18)
(0.00116943 0.000107051 1.81869e-18)
(0.0211694 -0.00149074 3.80855e-18)
(-0.00409173 -0.032199 3.6003e-17)
(-0.00711668 0.00222574 1.40015e-17)
(-0.000499632 -0.0193263 -8.11492e-18)
(0.00216861 -0.0366863 6.25902e-17)
(0.000122966 -0.0357936 2.65305e-17)
(0.00195243 -0.00739317 -1.22107e-17)
(-0.0665081 -0.0267706 -4.57612e-17)
(-0.000114298 -0.000639289 -5.57567e-18)
(-0.0677356 -0.0198781 1.53344e-17)
(0.00605531 -0.00911858 -1.18751e-18)
(0.00275327 -0.00240539 4.82001e-18)
(0.000594146 9.45147e-05 1.27697e-18)
(0.00105056 -0.0339119 2.29617e-17)
(0.00804843 -0.00433318 -2.265e-17)
(0.108242 -0.0920703 1.58511e-17)
(-0.000113488 -0.000921033 -7.10215e-18)
(-0.0372004 -0.0427885 -1.42961e-17)
(-0.129936 -0.0355619 -9.54977e-17)
(0.0656325 0.00181387 1.28574e-18)
(-0.000126916 -0.000175117 2.09124e-18)
(0.000218006 -0.000888719 -4.74429e-18)
(0.000468853 5.61832e-05 6.04672e-19)
(-7.99882e-06 4.89311e-05 5.60923e-18)
(6.06251e-05 -0.0174354 5.46757e-17)
(0.00128635 0.0100402 -8.03439e-18)
(0.000197263 -0.000286978 5.24907e-17)
(0.000146227 -0.000302324 -2.63539e-18)
(0.00133754 -0.000244088 8.67507e-19)
(0.00290875 0.00612185 8.15852e-18)
(-0.000987382 -0.000639862 -3.00008e-18)
(-0.00162613 -0.0188148 -1.29327e-17)
(-0.000101349 -0.000763809 -1.44441e-18)
(-0.0246288 -0.0473129 1.18919e-17)
(0.0212943 -0.00258466 -2.72497e-17)
(-0.0954342 -0.00809397 -1.17826e-17)
(0.010927 -0.0040223 -3.35868e-17)
(0.00461195 0.00333962 1.33004e-18)
(-0.000230952 -0.00073597 -8.40935e-20)
(0.00742001 -0.0102801 -2.06047e-17)
(-0.0104086 -0.00313012 1.04123e-16)
(0.0329863 -0.00949375 2.4979e-17)
(0.0345355 -0.00882055 2.09864e-17)
(0.00378358 0.000822957 6.99083e-18)
(0.000638863 7.14289e-06 4.36269e-19)
(-9.54433e-05 -0.000158909 1.84493e-18)
(0.00379948 -0.0010056 8.06403e-19)
(0.00663909 -0.00130881 4.81303e-18)
(-0.0061256 -0.0166211 -1.6047e-17)
(0.0225566 -0.00198963 6.17142e-17)
(0.00324654 0.00585031 -1.21584e-17)
(-1.22055e-05 5.09757e-05 -1.22005e-18)
(0.00993869 -0.00931184 -1.00977e-17)
(-0.0348373 -0.0261689 -1.83435e-17)
(0.00725597 -0.00141651 -1.23316e-17)
(-0.000727692 -0.000307707 -3.40899e-19)
(0.018351 -0.000229034 7.28785e-17)
(-0.0381276 0.00549934 -2.20617e-17)
(-0.0181833 -0.0067816 9.91452e-17)
(-3.15571e-05 -0.000735407 1.27436e-17)
(-0.0662494 -0.0183202 -1.63272e-17)
(0.00033459 -1.02844e-06 3.44082e-20)
(-0.000165406 -0.000762847 -1.37061e-17)
(0.000384805 -0.000428092 3.21873e-18)
(-0.0266007 0.00536731 1.10505e-16)
(0.00247782 -0.00218237 2.08536e-19)
(-0.000368687 -0.000236572 2.03321e-18)
(0.000302371 -0.000643468 -5.03144e-18)
(-0.00269576 -0.0343977 -8.0586e-17)
(0.00881954 -0.00925551 3.14702e-17)
(-0.000101142 -0.000844772 -4.25971e-18)
(0.0273693 -0.0240528 -4.92649e-17)
(0.000186795 -0.000464807 1.27285e-18)
(0.0199074 -0.00130618 8.3358e-20)
(0.00448087 0.000595621 4.0698e-19)
(0.000127301 0.000475056 -2.76611e-18)
(-0.00687533 0.00831615 1.70705e-17)
(0.00124826 0.000942736 7.53291e-19)
(-0.13188 -0.0362216 -1.26034e-17)
(0.0877623 -0.113134 9.37722e-17)
(0.00178637 0.000722881 4.37953e-18)
(-0.00102849 -0.000152948 8.97908e-20)
(-0.000690767 9.25555e-05 -3.14043e-18)
(-0.000292533 -0.000310918 2.24627e-18)
(0.00152911 0.000418389 -1.30336e-16)
(-0.0433344 0.0131747 -1.63073e-16)
(0.00678532 -0.0620622 1.20134e-17)
(-0.000527544 -0.000418818 -2.03228e-18)
(0.0176323 -0.0127656 -9.80462e-18)
(-0.0112428 -0.0039922 -3.86421e-18)
(-0.00775121 0.0101694 -5.6024e-17)
(0.000153788 -0.000886567 7.65766e-19)
(0.00423887 -0.00116189 3.26896e-18)
(-0.0436852 -0.0437528 1.76151e-17)
(-0.0253046 0.00589095 -1.53183e-17)
(0.0224637 -0.00290649 9.0399e-18)
(-0.000300273 -0.000733612 5.72374e-18)
(-0.000538559 -0.000495538 -2.15472e-18)
(-0.000550222 -0.000146698 -2.07748e-19)
(-0.09545 -0.00452291 -4.87559e-17)
(-0.0544344 -0.00260964 2.66857e-17)
(-0.0413925 0.00932079 1.41027e-17)
(0.099656 -0.0843635 -5.73426e-17)
(0.00111906 -0.000324851 -7.0407e-19)
(0.000950245 -0.0153086 -5.50118e-18)
(-0.00169431 0.00881121 8.98675e-17)
(-0.000152584 0.000278677 -1.99654e-17)
(-0.000254631 0.00146948 -9.67615e-18)
(9.95275e-05 -0.000456448 7.77643e-18)
(0.000726606 0.0101082 -1.726e-16)
(-0.00140413 0.000222703 -5.14236e-19)
(-0.00110537 -0.000753838 1.21088e-17)
(-0.000329952 0.000116094 -3.63574e-18)
(-3.75782e-05 -0.000276253 -9.11446e-19)
(0.000328669 0.000610586 -6.19274e-19)
(0.00877817 -0.000616316 -2.14852e-17)
(0.00585238 0.0013821 -1.56388e-17)
(-0.00612272 -0.0224082 2.51399e-17)
(-0.000468239 -0.000512816 2.23223e-18)
(0.00428934 -0.00362468 9.71071e-18)
(0.00189611 0.000868135 5.15065e-18)
(0.000113615 -0.000218624 -6.65318e-18)
(-0.0128177 0.00636665 -2.1456e-18)
(0.00962139 -0.00903169 2.08651e-17)
(-0.039567 -0.0254714 -1.92771e-17)
(-0.00080678 0.0001962 1.56247e-19)
(-0.0450927 -0.0191437 3.92199e-17)
(0.000311885 -0.00105649 4.58212e-18)
(0.0139617 0.0153463 -2.71608e-17)
(0.0019035 4.52285e-05 1.57724e-18)
(-0.00501411 -0.0172206 3.73269e-17)
(0.00105069 -0.000184117 9.34562e-18)
(-0.00118423 0.0036088 -4.04192e-17)
(0.00643544 -0.00964066 1.51542e-17)
(0.000344795 0.000592804 2.16551e-18)
(0.00510995 0.0115274 1.58662e-17)
(0.0140322 -0.0836596 -3.76115e-17)
(0.00167096 -0.00702065 1.55035e-17)
(-0.000151067 -0.000541839 -2.34328e-19)
(0.0124222 -0.00519473 2.53455e-17)
(0.0257694 -0.109962 4.86137e-17)
(-0.00170703 0.00265021 -8.01858e-17)
(-0.0017343 0.00236276 9.63415e-17)
(-0.00321576 -0.0223506 -2.6804e-17)
(0.0283814 -0.00713071 2.18226e-17)
(0.0135061 0.0140408 2.04229e-17)
(0.0122136 0.00174107 -4.03898e-18)
(-0.00119793 0.00856609 -5.51477e-17)
(-0.00103443 0.00094214 -2.76256e-18)
(0.00490393 -0.0129776 1.79776e-19)
(-0.00018852 -0.000255762 -3.03357e-17)
(-0.00203781 0.000211308 -2.51105e-19)
(0.000689385 0.000140595 1.27682e-18)
(-0.073216 -0.00310646 3.43499e-17)
(-1.76534e-06 -0.000481879 -4.60333e-18)
(0.000113302 4.82327e-05 -3.20765e-19)
(0.0182861 -0.00811927 -7.20519e-18)
(0.0171423 -0.00886906 1.62315e-18)
(0.00108457 -0.000392734 -2.05097e-19)
(0.00441421 -0.00108591 1.20744e-17)
(0.00436099 -0.00384943 -9.10921e-18)
(-0.0028528 -0.0019506 -6.32216e-18)
(0.00445206 -0.000540915 1.66309e-17)
(0.000288777 -0.000895177 -3.72367e-18)
(-0.00115776 -0.00709189 3.15747e-18)
(-0.00322106 -0.0204504 -9.39169e-18)
(0.000187989 0.000548014 -9.92124e-19)
(0.00996778 -0.0704271 -1.61387e-17)
(0.000599823 8.82657e-05 -2.07872e-19)
(-0.00159832 1.4252e-05 -6.04626e-18)
(-0.000764751 4.66478e-05 1.66909e-19)
(-0.00148765 -0.0175789 1.28221e-18)
(-7.95377e-05 -0.000921047 -1.83785e-18)
(-0.0173944 -0.0328996 4.38162e-17)
(-0.0347026 -0.0234685 -5.66442e-17)
(0.000249045 -0.000123208 5.60947e-19)
(0.000152398 -0.000140809 -4.5719e-18)
(-0.0145011 -0.0407334 -2.0955e-17)
(-0.0023429 3.50418e-05 -2.00688e-19)
(0.000341372 0.000124945 4.46217e-18)
(-0.00273855 3.13013e-05 1.05333e-18)
(-0.0323238 -0.0231947 2.77391e-17)
(-0.00633035 0.00773741 3.34397e-18)
(-0.000846092 -0.000120153 8.29779e-19)
(-0.0139444 0.003106 4.70101e-18)
(0.0156929 -0.00730803 1.75586e-17)
(0.0933028 -0.105885 -3.76347e-17)
(0.00278284 -0.0137404 5.31585e-17)
(0.00227787 0.000622814 2.72244e-18)
(-0.022743 -0.0624634 1.40003e-16)
(-0.00164543 8.10414e-05 3.59663e-18)
(0.0267457 -0.113806 -1.48806e-17)
(-0.00927938 0.0249871 2.57246e-17)
(0.000733352 -0.0403421 2.77497e-17)
(-0.0279263 -0.0448525 2.20947e-17)
(0.0268171 -0.00725578 -1.23813e-17)
(0.00386773 0.00111516 7.73323e-19)
(0.00799678 -0.00770411 7.59539e-18)
(0.00530932 0.00131945 7.22239e-18)
(0.000331641 0.00170175 -8.84128e-19)
(0.00184594 0.00150832 3.28857e-18)
(-0.0127709 0.00504292 5.53239e-18)
(-0.000809411 -4.87988e-05 4.29552e-18)
(-0.00011068 -9.18607e-05 -4.18031e-18)
(-0.000268451 7.75128e-06 8.34292e-19)
(-0.001514 0.000208847 -7.34398e-19)
(-0.00139815 3.5492e-05 -2.6762e-19)
(0.000320808 0.000526184 6.84614e-20)
(0.00376687 -0.0163488 -8.96747e-18)
(-0.000825624 -0.00017138 -2.80425e-19)
(0.00221041 8.96138e-05 -4.12673e-19)
(-0.000982885 3.22836e-05 6.78232e-19)
(-0.000684843 -0.000407225 9.8797e-19)
(-0.00467523 -0.025139 -2.44236e-17)
(-0.0183371 -0.0079973 -1.74952e-17)
(0.00115988 0.00410353 -3.88059e-17)
(0.000150665 -2.62349e-05 1.36489e-17)
(0.0177424 -0.00112368 -2.49493e-17)
(7.54491e-05 2.38561e-05 -2.50069e-19)
(0.0573718 0.0055495 8.72177e-18)
(-0.0174055 0.00200183 -1.42417e-16)
(-0.000112099 -0.000925716 1.45105e-17)
(-0.0422322 -0.0224508 -1.54207e-17)
(0.0110432 0.000974788 2.35426e-18)
(8.51355e-05 -0.000913116 -1.39332e-18)
(-0.0259847 0.00137673 -5.37878e-17)
(0.0587774 0.00261556 -5.96336e-18)
(0.00143782 -0.000770307 4.01205e-19)
(-0.00167946 -0.00731318 7.34673e-18)
(0.0102122 0.0246238 4.84849e-18)
(0.000223092 -0.000228482 1.81561e-18)
(0.000133523 0.00145929 -1.85889e-18)
(0.00226031 0.000156632 4.04794e-18)
(9.42948e-05 -0.000188975 1.02716e-17)
(0.0184661 -0.11792 1.74114e-17)
(-0.0034323 -0.000475323 -1.7363e-17)
(0.000253008 -0.000759363 2.44848e-18)
(-0.000177953 -0.000789821 1.82876e-18)
(0.000165542 -2.71328e-05 -2.48489e-18)
(-0.0122236 -0.0069494 -1.98576e-17)
(1.58414e-05 0.0105087 3.66489e-17)
(0.000395528 -0.000856287 1.43798e-17)
(0.000319545 -0.000170757 -1.6968e-18)
(0.000412163 0.000583074 -3.69124e-18)
(0.0017281 0.000447429 1.66335e-16)
(-0.0363579 -0.0479836 3.0343e-17)
(-0.00950548 0.00152029 4.03035e-17)
(-0.00100407 0.000844643 2.29064e-19)
(-0.00380681 -0.000582142 -1.37448e-17)
(0.000304335 0.00150049 1.31832e-17)
(-0.0172829 0.00993182 -4.12532e-18)
(0.014154 -0.00684819 -1.76506e-17)
(-0.00142219 0.0010753 3.89677e-18)
(-0.00152339 0.00119377 -9.39544e-19)
(0.00040678 0.000537935 3.45399e-19)
(0.00797308 -0.00713442 1.43757e-17)
(2.72694e-05 -0.000332813 1.80782e-18)
(-0.0271641 -0.0124366 9.91029e-17)
(0.000900254 -0.000402117 -4.08153e-18)
(2.64467e-05 0.000123139 -2.18738e-18)
(0.0280271 -0.0930166 -3.16701e-17)
(0.00438586 -0.016679 2.69699e-17)
(-0.0367302 -0.0213761 6.85829e-17)
(-0.00126037 3.69907e-05 -1.25868e-19)
(0.000378096 -0.0319233 -5.57175e-17)
(-0.000126861 -0.0013981 -5.78982e-18)
(-0.00406576 0.0156909 4.80902e-18)
(-0.0308579 -0.0168915 -5.51975e-17)
(-0.00339008 -0.0213654 7.97579e-17)
(0.000935741 -0.00129177 -2.57394e-18)
(0.00437041 -0.00476665 1.34247e-17)
(0.0255058 -0.00253847 1.60935e-17)
(0.000441321 -0.0209539 -7.38277e-18)
(-0.000777356 -0.0177628 -9.65778e-18)
(0.000384876 0.000351257 -1.73617e-17)
(-0.000947845 3.75193e-05 -2.07716e-18)
(-0.00078588 -0.000100384 4.88771e-18)
(-0.000831368 0.00112898 4.95364e-19)
(0.000773962 -0.00012542 5.34659e-19)
(6.98545e-05 -0.000302592 -1.89453e-18)
(-0.00141082 -0.000287536 1.76824e-19)
(-5.27726e-08 2.96098e-06 8.41765e-19)
(-0.0350161 -0.0108816 -2.65625e-17)
(-0.000656985 7.97665e-05 -1.03315e-18)
(0.00605478 -0.0109461 3.5786e-17)
(0.00501161 -0.0040712 -9.04323e-18)
(-0.0244613 -0.0262739 -2.48579e-17)
(-0.00151395 0.00108417 -2.30633e-18)
(0.000295082 -0.00122583 3.5486e-18)
(-0.000624087 -0.0152614 1.56062e-18)
(-9.68452e-05 0.00851137 -1.42725e-16)
(0.00965139 -0.0664283 4.91659e-18)
(0.0138364 -0.00661702 1.12669e-17)
(-0.000707538 0.000116966 2.44726e-18)
(0.000947207 -0.0014123 6.72946e-19)
(0.000409794 -0.000844125 2.1889e-18)
(-0.0156081 -0.0160117 -1.35862e-17)
(-0.0023184 8.66791e-05 -8.27788e-19)
(-0.0342508 -0.0210132 -6.32241e-17)
(-0.0119318 -0.00132474 4.72583e-18)
(-0.00569012 -0.0100643 1.1335e-17)
(-0.00261797 1.64037e-05 -4.19391e-17)
(0.0194003 -0.122245 1.06134e-17)
(0.00156636 -6.16567e-05 3.62492e-19)
(0.000299117 -0.000543536 6.96339e-19)
(0.023437 0.00092598 -1.24564e-17)
(-0.0151969 -0.0168576 -4.66984e-17)
(-0.000917384 -0.000523682 1.18756e-17)
(-0.0238552 -0.0146605 -2.02845e-17)
(0.00191541 -7.75695e-05 1.81596e-18)
(-0.00185555 6.21987e-05 -1.22718e-18)
(-0.013113 0.0168845 1.22552e-17)
(-0.00180028 0.000193008 3.56432e-19)
(0.0160774 -0.00759253 6.55347e-18)
(-0.000965753 0.000918714 -2.27386e-18)
(0.0635549 -0.123088 -3.56728e-17)
(0.000223354 -0.00034731 3.50705e-18)
(0.00121764 0.00107568 -1.10518e-17)
(0.0138288 -0.0819458 -5.10332e-17)
(0.000442429 0.005417 3.62379e-17)
(0.019298 0.0136791 3.5816e-18)
(-0.000209821 0.000214566 3.10401e-18)
(-0.000912696 -0.000172906 -1.91066e-18)
(-0.000522337 -0.000171731 -1.33075e-18)
(-0.0889038 -0.0123179 -1.78835e-17)
(0.00535536 -0.00913433 -4.95336e-18)
(-0.00152257 0.000567977 4.87623e-19)
(0.00100809 0.00010863 2.27194e-19)
(-0.00182825 -8.58915e-05 -9.29383e-18)
(0.000737119 0.00137837 2.58364e-17)
(0.0187493 0.0152856 -1.21087e-17)
(-0.0281235 0.00627243 1.98413e-17)
(-0.000568493 0.000105774 3.90356e-18)
(0.000736241 -0.000758821 -6.86674e-18)
(-0.0084458 0.00755677 -2.70537e-17)
(-0.000732716 -0.000161941 1.2819e-18)
(-0.00338867 -0.0201208 1.38758e-17)
(-0.00841603 0.00940943 4.95214e-17)
(-0.000546072 -0.000561902 -9.64792e-18)
(0.00117256 -0.000757302 -1.81885e-18)
(0.00186101 0.00135325 -3.06536e-18)
(0.00189835 -0.000109711 -2.40157e-18)
(-7.48612e-05 0.00061377 -4.83681e-19)
(0.00126553 -0.035599 -1.11003e-17)
(-0.00195388 0.00412772 1.34364e-17)
(-0.0603869 -0.0377628 4.44729e-18)
(0.000383855 0.000644231 1.46872e-17)
(0.003359 0.00367828 3.13525e-18)
(0.0104578 -0.00443183 1.44355e-17)
(0.000314687 0.000254505 -5.71893e-18)
(-0.0014632 -0.0198413 -1.37926e-18)
(6.50104e-05 0.000404612 -1.02667e-17)
(0.00110419 0.000102462 1.50517e-18)
(0.00434821 -0.0014189 -1.25006e-17)
(-0.0170948 -0.00905505 -2.16899e-20)
(-0.000217694 -0.000334815 3.36045e-20)
(3.52038e-05 -0.000465916 -2.81525e-18)
(-8.94594e-07 -0.000304979 3.83747e-18)
(-0.00240214 8.11784e-05 4.55559e-20)
(-0.000543109 -0.000666513 8.5165e-18)
(0.00107186 5.4477e-05 8.12758e-19)
(-0.000677334 -0.000666727 -3.16516e-18)
(0.000688361 -1.94214e-05 1.48958e-18)
(7.94833e-05 -0.000537852 -7.68986e-18)
(0.00524747 0.000962366 -6.11858e-18)
(0.0190601 -0.00808757 5.89667e-17)
(-0.00430016 3.01942e-05 1.37681e-18)
(0.000891202 0.0102551 1.67821e-16)
(-0.000635382 5.59391e-05 1.07137e-17)
(-0.0130076 -0.00109041 -4.30033e-18)
(0.003637 -0.0132468 -6.96972e-17)
(0.000469957 0.00163141 8.41903e-18)
(0.0273191 -0.0855757 2.07649e-17)
(-0.00422094 -0.0107161 2.8151e-17)
(-0.000213699 0.00142809 -2.548e-18)
(-0.000901263 0.000101016 6.56368e-19)
(-0.00105299 -0.000211452 -2.95657e-19)
(-0.0333449 -0.0588541 -7.33469e-18)
(0.015328 -0.00761743 -3.54375e-17)
(-0.000987105 9.37791e-05 -6.40838e-19)
(0.00149461 -0.000208672 -1.69524e-18)
(-0.00162135 0.000108719 9.96122e-19)
(0.00242275 0.00385027 3.41206e-17)
(-0.011902 -0.00316467 -5.27867e-18)
(-0.137053 -0.0338686 1.92638e-17)
(-0.00239386 -6.78218e-05 3.98751e-19)
(-9.24425e-05 -0.00066324 6.46523e-18)
(-0.000582617 0.00109071 -7.03885e-18)
(-0.0257549 0.004817 2.20389e-17)
(0.000349603 -0.0384543 -9.67335e-18)
(-0.000451579 -3.98236e-05 8.78593e-19)
(0.00462409 0.00137234 -4.78384e-18)
(0.0103416 -0.074409 -1.7471e-17)
(-0.120184 -0.0343345 4.61068e-19)
(0.0160191 -0.0148102 -1.0059e-17)
(-0.000191665 -0.00020905 1.36818e-18)
(0.000607852 6.41223e-05 -5.53974e-19)
(-0.00658226 -0.0228489 -3.07287e-17)
(-0.000934363 -0.000659158 1.18431e-18)
(-0.0113419 -0.00544846 -3.0939e-18)
(-0.0392532 -0.0144293 -1.53469e-17)
(-0.000955015 0.000537875 -1.54621e-18)
(-0.00628887 0.00705126 8.21527e-18)
(0.00433136 -0.00309158 1.37103e-17)
(0.000251151 -0.0280869 1.33358e-17)
(-0.000430639 -0.000178479 -5.91463e-19)
(-0.0193447 -0.0256467 2.46566e-17)
(0.0118994 -0.0247863 -1.51474e-17)
(0.00690905 0.00483593 -5.38443e-18)
(0.00151978 -0.0399953 1.57612e-17)
(-0.000635227 -0.000635873 1.338e-18)
(-0.017981 0.00733429 1.22328e-17)
(0.000110127 -0.000365239 2.1625e-18)
(-0.000225549 -0.000500229 1.91217e-18)
(0.000614464 8.89549e-05 8.92575e-19)
(-0.000819401 -0.000819729 -9.19266e-19)
(-0.046512 -0.0238352 4.03932e-17)
(-0.000209826 -0.000612225 -2.18683e-18)
(-0.00032437 0.000943627 -6.63126e-18)
(1.5849e-05 -5.92754e-05 6.25025e-18)
(-0.000928536 0.000826928 -9.25415e-19)
(0.000926653 4.05663e-05 1.26232e-18)
(-0.00268579 -0.00659008 -7.87558e-18)
(0.000654862 -0.000735818 -1.25903e-18)
(0.0112701 0.000701539 7.3416e-18)
(0.00042158 -0.000250175 -2.67318e-18)
(4.56333e-05 -0.000225629 -3.78214e-18)
(-0.000978605 -0.0163678 9.53796e-18)
(0.000637618 0.00495834 4.77654e-18)
(-0.000392516 -1.30004e-05 -2.06049e-17)
(0.00732129 -0.0658538 9.9653e-19)
(0.00487899 0.00094403 3.02826e-18)
(0.000238868 -0.000375753 7.18086e-18)
(0.000488248 -0.000915217 -3.28425e-18)
(7.24867e-05 0.000664135 -6.16581e-19)
(-0.0239479 -0.00041642 -8.20032e-17)
(-0.000452576 0.00098395 1.49046e-18)
(-0.00243731 -2.44017e-05 -9.30149e-20)
(-0.0202234 0.000745434 1.92228e-17)
(-0.0910784 -0.0141767 3.56408e-17)
(-0.00301471 -0.00229919 -2.42869e-18)
(-0.00181542 -0.000424826 1.29892e-18)
(0.000703963 5.4556e-05 -9.71479e-19)
(0.00165577 2.25318e-05 -2.09189e-18)
(-0.000597546 0.00010744 2.28883e-19)
(0.0109605 -0.0717112 -7.9023e-18)
(-5.29008e-05 -0.000223159 -8.1038e-18)
(0.0882767 -0.055384 -3.00077e-18)
(0.00414891 0.00266429 -8.05462e-19)
(0.00404471 0.011477 -6.9668e-17)
(0.000278329 0.000102714 8.51894e-18)
(-3.39369e-05 0.00323235 9.77452e-18)
(-0.00261673 6.67551e-06 6.71299e-20)
(-0.0134002 -0.00759518 4.71001e-18)
(-0.000766106 -0.000696186 -2.19e-18)
(0.0289278 0.00453812 -1.50905e-17)
(-0.00236521 -0.0194667 -1.31443e-17)
(0.000305234 -0.000302113 -8.65064e-18)
(-0.112145 0.00301048 3.34669e-17)
(0.00110017 -0.000572041 3.17592e-18)
(-0.000677503 4.57671e-06 3.24251e-18)
(-0.000153691 0.000470543 -5.22608e-19)
(-0.0591032 -0.0394209 -2.91607e-18)
(-0.00519028 -0.0218734 -2.60746e-17)
(-0.000588253 -0.000284787 5.21826e-18)
(0.00448857 -0.00333165 -2.55558e-17)
(-0.000638342 0.00108386 -1.54826e-18)
(0.0132199 -0.0799017 1.51503e-17)
(-0.00500175 3.89953e-05 -1.7723e-18)
(-0.000863351 -0.00723978 5.05773e-18)
(-0.0206696 -0.0246937 1.03924e-17)
(0.00037288 0.000346877 4.12106e-17)
(-0.0034548 -4.64246e-05 1.31911e-18)
(-0.00280342 0.00173802 1.65011e-17)
(-0.000336469 2.90161e-05 -1.70027e-18)
(0.00169341 6.56991e-05 1.03122e-18)
(0.000430508 0.000464054 -3.01141e-18)
(0.0196088 -0.00706337 -3.93417e-17)
(-0.00257052 -0.000173657 -1.18137e-18)
(0.0126112 -0.082178 -3.83059e-18)
(-0.000817447 -0.000211185 1.83084e-18)
(0.000395967 -0.000387757 9.94825e-18)
(0.0140135 0.00309138 1.31982e-19)
(-0.00502713 0.00292227 -1.76349e-17)
(0.0083767 -0.014264 1.92861e-17)
(0.00225818 0.000142239 -3.20334e-19)
(0.00375455 0.00485739 1.24048e-16)
(0.000141937 -0.000497442 -2.05468e-18)
(-0.0128592 -0.00331437 3.52497e-18)
(0.000441494 -0.000648549 6.99119e-18)
(0.00150664 0.000963525 -7.86916e-18)
(-0.00041772 -0.000618555 -5.95307e-19)
(-0.00131294 -0.000226073 1.12873e-18)
(0.000613046 9.16156e-05 2.17586e-18)
(-0.0134898 -0.00301315 1.30698e-17)
(0.0139779 0.0127115 1.05008e-17)
(-0.120794 -0.00234563 -4.50755e-17)
(0.00769902 -0.0162679 -7.36911e-18)
(-0.000833442 0.00134579 -2.3546e-17)
(-0.002106 -0.000634342 -6.08841e-18)
(-0.0130658 0.0149221 8.11615e-18)
(0.00390289 -0.00110361 1.06318e-18)
(0.0106485 -0.0685418 3.25413e-17)
(-0.0576114 -0.0386604 1.16126e-16)
(-0.0146026 -0.00668127 -1.09054e-17)
(-0.110507 -0.0154437 -1.21048e-16)
(-0.0113526 -0.0147957 -8.62711e-18)
(-0.0122265 -0.00577841 1.70485e-17)
(0.0019352 0.000135401 5.48136e-18)
(-4.18974e-05 0.0103206 -6.95677e-17)
(0.0142438 0.00392033 -8.51198e-18)
(0.00117467 0.000894857 7.22425e-18)
(-0.0156802 -0.00725272 2.10181e-17)
(2.90313e-05 2.81112e-05 1.31721e-18)
(-0.0139775 0.00424842 7.25969e-19)
(-0.00259663 -0.00249992 -2.51664e-18)
(0.0144757 -0.00814492 -2.70884e-17)
(0.000130264 0.000457305 -2.24612e-18)
(0.00498206 -0.0184184 3.48589e-18)
(-0.0796296 -0.0383393 2.59397e-17)
(0.0129924 0.0028573 6.35508e-18)
(0.015104 -0.00861418 9.52625e-17)
(0.000508462 0.00013617 -1.09763e-18)
(-0.0177572 -0.00168105 -5.80886e-18)
(-0.000406277 -6.35829e-06 1.73098e-17)
(-0.000934226 -0.00071625 -2.6824e-18)
(-0.000339714 -0.000290617 8.84674e-19)
(0.00221029 0.00519753 -3.33495e-19)
(0.00500378 -0.00853562 3.5207e-18)
(-0.0036956 -0.0237276 -8.27433e-18)
(-0.0127039 0.00242534 2.54891e-18)
(-0.0669352 -0.00658407 -4.96063e-18)
(0.00365625 -0.00110144 -6.23501e-18)
(-1.42484e-05 -0.000472223 1.08148e-17)
(0.000750286 -0.0294866 -5.77561e-18)
(0.00121253 0.00810226 -1.84943e-18)
(0.00498195 0.00105209 -2.9061e-18)
(0.0128989 -0.00665529 -4.72703e-17)
(0.000144488 -0.0002424 -5.29942e-18)
(-0.00498352 0.0174866 5.159e-18)
(0.018845 -0.0861748 6.3823e-17)
(-0.00100062 -0.000584206 9.60825e-18)
(0.00153978 0.00423092 -3.91388e-18)
(-0.00815853 0.00665232 3.96129e-17)
(-0.0725821 -0.0455654 -8.63934e-18)
(-0.00176087 -5.52048e-05 -6.59392e-19)
(-0.000887702 -6.87952e-05 -1.24012e-18)
(-0.125164 -0.00895151 -7.49957e-19)
(0.00848022 -0.00023611 -1.42651e-18)
(-0.0988552 5.29608e-05 2.95956e-17)
(0.0286968 0.00283802 -1.17814e-17)
(-0.0123421 -0.0298539 4.59686e-17)
(-0.000494314 -0.000787461 -7.7244e-18)
(0.00386346 -0.00133751 2.73657e-18)
(0.00109887 -0.000137382 5.3757e-19)
(0.000491949 -0.000676328 9.44984e-19)
(0.0383482 -0.00868771 -1.15144e-17)
(-0.000398092 4.71936e-05 -5.37329e-18)
(0.0404219 -0.00911448 4.79783e-18)
(0.0116183 -0.0165216 1.32615e-17)
(-0.00669027 -0.00809856 2.4325e-17)
(-0.000343613 1.43951e-05 2.8601e-19)
(-0.00107515 4.17718e-05 6.27329e-19)
(0.00320927 0.00432998 -5.57317e-18)
(0.000536012 0.00267614 4.45715e-19)
(-0.000261294 -1.07198e-05 3.51507e-19)
(-0.00033202 -0.000488866 2.27138e-18)
(0.00718893 -0.0154519 4.30715e-17)
(-0.0355557 -0.0614817 -2.8943e-18)
(0.0107216 -0.0540881 -1.26339e-17)
(-0.000649103 2.5142e-05 1.21999e-18)
(-0.0149917 -0.0140158 -7.81296e-18)
(-0.00202426 -0.000459163 8.02167e-19)
(-0.0558841 -0.0414096 3.63877e-18)
(0.0152461 -0.00093147 1.86557e-17)
(-0.00190831 0.00228678 4.22093e-17)
(0.000505094 0.00138816 -1.56505e-17)
(0.0132111 -0.0236027 4.12793e-17)
(-0.000467557 0.00013672 1.01082e-19)
(0.00037931 -0.000479593 -2.91875e-19)
(-0.00265672 0.0013924 1.34797e-18)
(-0.000610914 -0.000662793 1.48881e-18)
(0.00134047 3.93453e-05 -1.23063e-17)
(0.0109807 -0.00830084 3.79679e-17)
(0.00421133 -0.03827 -1.88586e-17)
(0.000306234 0.00064812 -4.4382e-18)
(0.0361025 -0.0105528 6.87361e-17)
(-0.00219011 -0.0370053 -2.80158e-18)
(0.00484807 -0.000764758 -1.22508e-18)
(0.0207704 -0.113529 -2.99765e-17)
(-0.00370223 -0.0365568 -6.12174e-17)
(0.00076133 2.96437e-05 -5.82434e-19)
(0.00725451 -0.00964186 2.97055e-18)
(0.00770496 0.00529646 6.15591e-18)
(0.00109345 -0.000272103 5.92033e-19)
(-0.00024108 0.000440852 9.22243e-19)
(-0.0021379 0.00531125 4.60186e-17)
(-0.000359798 -0.0397784 -1.54736e-17)
(-0.0741676 -0.0111424 -3.44361e-17)
(-0.000146177 -0.000314287 -4.64528e-18)
(-0.000162076 -0.000803843 -4.06265e-18)
(0.0013572 0.000363429 6.54405e-19)
(0.00264409 0.00707602 9.98448e-18)
(0.000704992 -0.000777602 -5.86267e-19)
(0.000317856 -0.000929748 -3.5209e-18)
(0.0058433 0.00949456 5.73027e-17)
(0.0154654 -0.000312399 1.20269e-17)
(0.00160815 -3.43907e-05 -2.81813e-18)
(-0.0508349 -0.0338238 -1.12161e-16)
(0.00851445 -0.00101566 7.42411e-18)
(-0.000902752 0.00103611 1.98951e-17)
(0.00166763 0.000123286 9.64083e-18)
(0.00199567 -0.000548394 -6.7963e-18)
(0.00375528 0.00130333 6.54691e-18)
(-0.00324957 -9.32061e-05 -4.92323e-19)
(-0.0063682 -0.00865293 4.9512e-17)
(0.00119004 0.010603 4.31338e-17)
(-0.00117919 0.000621927 2.57707e-19)
(-0.000746075 -0.000638051 4.5814e-18)
(0.000332821 -0.000858278 -3.87521e-18)
(0.00553013 0.00490653 6.64688e-18)
(-0.00025235 0.000132939 4.24019e-19)
(0.0131234 0.00216572 -2.81132e-18)
(0.0307 -0.00754561 2.77604e-17)
(0.000743671 -0.000478212 6.01958e-18)
(0.0204291 -0.00696068 2.89423e-17)
(0.0048619 0.000992154 1.34151e-18)
(0.00119046 0.000177879 1.02713e-18)
(0.00702296 -0.0111964 1.54357e-18)
(-0.0385209 -0.0393551 -2.41691e-18)
(0.0237233 -0.0203594 -4.84709e-19)
(0.000409476 -0.000394523 9.53136e-19)
(-0.000613447 0.000708703 -1.25936e-19)
(0.00640477 -0.0340938 -1.06548e-16)
(0.000104925 0.000330166 1.72045e-17)
(0.0474573 -0.0159518 -7.83606e-18)
(-0.000471539 0.000601628 1.46369e-18)
(0.000379411 -0.00053817 1.76273e-18)
(-0.000865889 -0.000571147 8.73805e-17)
(0.104287 -0.0639208 1.78824e-17)
(0.00417317 -0.00418058 7.79005e-18)
(0.0170304 -0.00773143 -1.95785e-17)
(0.000515627 0.00414119 2.56648e-17)
(0.000247189 -0.000532649 2.62997e-18)
(-0.000299622 1.30949e-05 -1.82985e-18)
(0.000865057 -0.000270463 -1.30566e-19)
(-0.0566004 -0.0283253 -1.02595e-16)
(-0.00266029 -3.25545e-05 -5.21641e-20)
(2.31454e-07 3.62799e-06 -1.13428e-18)
(0.000501345 -0.0225448 3.42787e-18)
(0.000147253 0.000516208 1.74162e-17)
(0.00122464 -0.02611 1.03552e-17)
(0.000101494 0.00127469 5.19848e-18)
(-0.000955993 -0.00043126 1.70542e-19)
(-0.033105 -0.036485 2.0068e-17)
(-0.0027042 7.14813e-05 -5.34818e-18)
(-8.94934e-05 -0.000643195 2.20624e-18)
(0.000815021 -0.000247421 -1.10145e-19)
(-0.00144919 -0.000704252 -1.17141e-18)
(-0.00123049 -0.0151924 2.93307e-18)
(-0.00179042 -3.93268e-06 3.49766e-18)
(-0.000101445 -0.00092577 3.80038e-19)
(-0.000434001 -0.000644116 -5.87461e-19)
(-6.78364e-05 -0.000588083 -3.05422e-18)
(-0.00201221 -0.000446538 7.21643e-19)
(0.0014888 -0.000192239 -1.28488e-19)
(-0.12307 -0.00850897 1.05872e-16)
(-0.00155722 -0.000634468 1.08103e-17)
(-2.43889e-05 -0.000467434 -2.61909e-18)
(-0.00140284 -0.000175049 -3.51459e-18)
(-0.0017619 -0.000366238 9.88856e-19)
(0.00805814 -0.010265 2.35086e-17)
(0.00680641 0.00583468 7.95511e-18)
(0.000249467 0.000614587 -7.05611e-18)
(0.000120807 6.66774e-06 6.09692e-19)
(0.000978892 0.000368571 9.26077e-19)
(0.00144686 -0.00142545 6.7311e-19)
(-0.00444849 -0.02108 -3.57859e-18)
(0.0108886 -0.0965242 -4.40535e-17)
(0.00290684 0.00367271 -6.22342e-18)
(-0.07383 -0.0123632 4.04173e-17)
(0.000478799 0.000140591 -4.11925e-18)
(-0.000418203 -0.000708389 1.50315e-17)
(-0.0104239 -0.024985 5.12538e-17)
(-0.000698845 0.0101593 -1.05867e-16)
(0.00109938 0.000198002 5.19368e-19)
(-0.00148271 4.54619e-05 -1.41906e-18)
(0.00235678 0.00816459 -1.1715e-17)