/*--------------------------------*- C++ -*----------------------------------*\
| =========                 |                                                 |
| \\      /  F ield         | OpenFOAM: The Open Source CFD Toolbox           |
|  \\    /   O peration     | Version:  v2012                                 |
|   \\  /    A nd           | Website:  www.openfoam.com                      |
|    \\/     M anipulation  |                                                 |
\*---------------------------------------------------------------------------*/
FoamFile
{
    version     2.0;
    format      ascii;
    class       volScalarField;
    location    "650";
    object      ddt0(k);
}
// * * * * * * * * * * * * * * * * * * * * * * * * * * * * * * * * * * * * * //

dimensions      [0 2 -3 0 0 0 0];


internalField   nonuniform List<scalar> 
9793
(
9.12818e-09
0.00123642
5.27332e-08
-9.9216e-05
1.76381e-07
3.85889e-06
4.16901e-07
0.00192858
1.18984e-07
0.00195314
2.16629e-08
2.52784e-08
-1.21769e-07
0.00120465
2.22817e-07
5.10708e-07
3.11001e-07
-2.16164e-07
-7.32755e-05
-5.54409e-09
-5.51853e-08
-2.8341e-10
0.000246786
0.00170497
0.00156153
7.82331e-08
-3.75246e-08
-9.19493e-08
-3.65355e-09
3.65472e-07
0.000711574
-2.61393e-05
1.92717e-07
6.14778e-09
-6.42742e-08
5.36217e-07
2.00638e-07
4.08887e-08
-0.000635546
3.84716e-07
3.16082e-07
0.0205966
-0.000752557
1.98639e-08
-2.90587e-08
-3.47798e-08
0.000258591
5.52495e-08
-1.9939e-07
-1.60915e-07
5.45505e-07
-1.40276e-07
3.65262e-07
5.13176e-08
8.66344e-08
-0.00012444
-1.71364e-07
4.06121e-07
-1.86048e-07
-2.56315e-10
4.95824e-08
3.73723e-08
3.20464e-08
7.46329e-07
-3.50601e-07
9.44506e-08
0.000723826
3.69281e-07
2.55492e-07
-0.00204385
-5.3192e-09
-1.3917e-07
0.00211969
-5.16621e-05
-0.00164488
1.72088e-08
2.44824e-07
0.0219504
3.59447e-08
4.00417e-08
-6.39967e-07
-0.000242279
2.62644e-07
1.94327e-07
2.61069e-07
-5.88227e-06
1.74985e-07
5.07573e-07
-0.000619461
1.12558e-06
0.000108484
0.00544735
-0.0015796
2.24719e-07
-0.0010514
-8.54777e-08
-0.000331168
2.78928e-07
3.55471e-07
8.82043e-08
-2.79551e-05
4.71399e-07
0.00347286
-2.22572e-08
-0.00314673
0.0122238
-0.000244063
-6.14529e-08
1.88783e-08
6.96955e-08
7.09019e-10
0.000224113
-1.85238e-06
-5.14519e-05
-3.05135e-08
2.12091e-07
2.39404e-07
-1.48685e-07
-0.000231637
-2.05771e-08
-0.00266673
4.70795e-07
0.00517038
3.07774e-07
2.03317e-07
-4.14115e-08
2.9419e-07
0.000987059
1.62851e-06
1.28393e-06
1.45988e-07
-1.01555e-08
-1.9044e-08
3.16097e-07
4.59062e-07
8.8054e-07
6.1256e-05
2.40028e-07
-1.84045e-09
3.51135e-07
-0.0010327
5.07579e-07
-1.84464e-07
4.50546e-07
-0.000653196
0.000125135
-1.18656e-08
-0.000783982
-5.6593e-08
-3.09788e-08
6.66957e-08
-0.00235884
3.16426e-07
-4.51213e-08
2.62759e-08
0.000931631
3.46032e-07
-4.93019e-08
0.000119351
-3.22108e-08
4.51585e-07
2.30504e-07
-6.47662e-08
3.17075e-07
-3.04354e-08
0.0228934
-0.000728262
3.24547e-08
-1.90556e-07
-1.00325e-07
-1.05962e-07
2.3453e-05
0.00079559
-0.000961261
-1.24947e-07
3.50354e-06
2.8997e-08
-7.93858e-07
5.02795e-09
3.44293e-07
-0.00213875
-0.000137115
4.58551e-07
-4.92394e-08
-7.8337e-08
-1.24133e-07
0.0084951
0.00194819
0.0170652
0.00381449
9.35116e-08
0.00147094
2.25592e-06
4.26495e-08
-1.46924e-07
1.24152e-07
9.07404e-07
-2.30175e-07
-2.15408e-07
-4.49092e-08
-4.15829e-08
-5.29471e-08
6.18061e-07
3.37749e-07
-0.000373654
-7.42072e-08
4.93207e-07
2.99024e-08
2.50222e-08
-7.5682e-06
4.27615e-07
-0.00140777
-1.54398e-07
-0.0019036
2.3484e-07
9.972e-07
1.77626e-07
3.61943e-07
1.69098e-07
-6.7763e-08
3.43523e-07
-5.36051e-08
3.98652e-06
-0.00110447
1.89323e-07
-1.15306e-07
2.88506e-07
-0.00125763
-6.62202e-08
7.6158e-07
-0.000385431
6.10763e-07
1.02557e-06
7.82201e-07
4.98488e-06
-2.54434e-07
0.000840572
4.8212e-05
-3.21073e-07
1.05003e-07
0.013021
-7.4799e-08
1.78305e-08
3.76227e-07
6.03143e-07
8.83044e-08
3.50219e-07
3.93481e-07
1.68118e-07
2.85232e-07
2.51522e-08
2.02222e-07
-0.000256358
-6.30631e-08
-0.000975468
9.04469e-08
-2.2993e-07
-1.37974e-07
-0.000187026
-1.36822e-08
0.00413558
-0.00242003
4.40479e-08
3.50301e-08
-0.00185889
-3.93045e-07
5.19791e-08
-5.0593e-07
-0.00210873
-9.81026e-06
3.48403e-08
-1.08987e-05
3.8559e-07
0.0018009
0.000490699
9.09232e-08
0.000633164
-2.46247e-07
-0.00137904
-2.09802e-05
-0.000478386
-0.00300576
4.71949e-07
1.41602e-07
1.37165e-07
2.87401e-07
-4.75382e-08
-3.42435e-09
-4.85114e-06
7.95847e-08
-4.85972e-09
-4.02298e-08
-2.5643e-07
-1.29312e-07
-4.93603e-08
0.000591203
-1.70684e-07
2.20452e-07
-5.08564e-08
-1.405e-07
9.14603e-07
0.000122178
-3.7638e-08
4.17352e-08
5.73417e-07
1.11717e-07
1.94662e-05
-0.00171018
-2.01788e-08
-0.0026338
6.81857e-07
7.83607e-09
0.00164582
4.99616e-05
2.08937e-07
2.12637e-07
-0.000100971
9.58006e-09
-7.19194e-08
2.32169e-07
5.81936e-09
-0.00144903
6.67954e-08
4.04431e-09
-3.15452e-08
4.97043e-08
3.54232e-07
-1.74378e-06
2.9156e-08
-1.07037e-09
-6.42881e-08
1.78373e-05
-0.000228855
-0.000762566
-2.43773e-07
-8.06695e-08
-1.19616e-07
4.08232e-05
3.84649e-07
-2.99748e-07
-3.23974e-07
-6.39101e-08
1.90345e-07
-2.75249e-08
-0.00146495
1.42605e-07
-9.7167e-08
0.000719517
0.000697746
-0.00170917
-1.26718e-07
-0.000125018
1.84982e-07
1.42418e-05
-0.000373678
-0.000373953
2.75073e-07
2.32097e-07
5.39801e-05
0.00014963
0.000171002
-3.61833e-09
-1.41438e-07
4.15222e-08
-2.17729e-07
5.77389e-08
-3.08402e-08
-1.9844e-07
4.27133e-12
-0.00231765
-9.36556e-08
3.17092e-07
4.65015e-07
0.00434754
-3.18692e-07
2.13808e-07
-0.000297371
2.83181e-06
0.00103533
3.52617e-07
-1.99782e-07
2.77552e-07
2.63581e-08
1.39969e-05
-3.33866e-07
-0.00165825
4.31135e-07
1.4731e-07
-8.77266e-05
-0.00179368
2.39326e-07
-5.00246e-08
0.000151204
3.50375e-05
-1.44932e-07
0.000607529
2.91731e-07
-2.68677e-07
5.01559e-05
-2.95535e-07
3.68496e-07
-2.381e-07
-0.00220886
4.47372e-08
-2.79243e-08
-0.000634959
-5.05789e-08
1.06112e-06
4.53912e-08
-1.3133e-07
-1.98812e-07
0.0038985
2.7656e-07
-2.75149e-07
1.55747e-07
1.13581e-07
-2.54715e-08
1.05666e-06
-0.00147705
-7.9181e-08
6.5817e-08
-8.80595e-06
-1.0153e-07
-0.000275479
-1.78142e-06
-7.99463e-08
1.68764e-07
1.48737e-08
2.89283e-07
-1.3153e-07
-3.82843e-05
1.40117e-07
0.000117222
-6.42467e-08
1.81788e-07
3.55796e-07
3.93802e-08
-0.00021301
7.44591e-08
1.65355e-07
3.70397e-07
5.76701e-05
-8.74766e-08
-5.1437e-08
-3.35381e-08
-3.47715e-07
-9.34056e-08
5.80101e-08
-1.03374e-07
1.08012e-07
8.00317e-08
2.82236e-07
3.56436e-07
-6.42962e-07
-7.39628e-07
4.6232e-08
1.26207e-06
0.000607561
-5.07507e-08
0.00139379
3.08244e-07
-1.50853e-07
-1.3519e-07
-2.36658e-07
-0.00210599
4.76108e-07
-1.45128e-07
2.31654e-07
-2.36296e-07
-1.26213e-07
5.0982e-07
0.0204536
-3.62317e-07
-2.4884e-08
3.28489e-08
0.000482617
-0.000427055
-2.76196e-09
2.9629e-07
-0.0011309
0.0229624
4.73094e-06
-3.97149e-08
-1.36989e-08
-0.000427891
-2.09578e-07
6.69823e-08
0.00462834
-1.85388e-07
1.72387e-06
4.4635e-07
-8.8636e-05
-1.81569e-07
-0.000131876
-2.52643e-05
4.92929e-07
-0.00200571
-1.62475e-07
2.52542e-05
2.44762e-08
-1.2456e-07
9.39944e-08
-1.58129e-07
-0.00268939
-1.12084e-07
-1.63655e-07
4.09248e-08
-2.28276e-07
3.07937e-08
2.11039e-07
1.8093e-07
6.94226e-07
6.08358e-08
6.53547e-09
-0.000305949
9.81088e-09
-2.70969e-09
-0.00110665
2.54779e-07
3.32602e-08
7.05414e-08
-1.11374e-07
-0.00177797
-1.7336e-07
-3.61659e-07
0.00110823
0.0168204
2.33136e-07
-3.05378e-07
1.05019e-07
8.26351e-08
-8.83601e-08
-0.000730036
-1.96227e-08
0.00339132
1.52101e-07
-1.40081e-06
4.13727e-08
0.000918608
-3.01726e-07
2.60623e-07
-1.78817e-07
7.09195e-07
-0.000286374
5.41103e-08
0.0164982
8.09367e-08
-1.0014e-07
-9.59694e-08
0.0024497
-0.000356554
-1.61048e-07
4.95582e-07
-1.96813e-07
-0.000996771
-7.44445e-07
1.96262e-07
-0.000304044
2.75477e-08
-5.1401e-07
-1.4562e-07
-4.9349e-08
7.75743e-08
-5.99602e-08
3.29024e-07
-3.92804e-07
-0.00124206
-1.20539e-07
3.48819e-08
8.8879e-07
-2.49608e-06
7.64942e-05
2.31647e-07
0.000850103
-7.514e-08
1.68674e-07
2.16955e-08
-1.07459e-08
-1.40855e-07
-1.93939e-07
9.11426e-08
-7.21888e-07
1.04416e-06
0.0167616
6.56166e-07
5.42349e-08
1.33177e-07
6.47964e-05
3.23105e-07
-0.000653498
-0.00288472
5.20479e-06
0.0083303
0.00179813
1.26158e-07
1.06262e-07
1.22311e-06
9.13967e-07
-4.39677e-08
-2.52168e-05
4.86265e-09
-1.11889e-05
1.84112e-07
3.22965e-06
-5.30025e-08
0.000769625
-0.00379864
8.38613e-07
2.11435e-06
7.8834e-08
1.26161e-06
-8.46099e-08
-1.9784e-07
-8.88284e-08
1.44103e-07
2.11739e-07
-0.000417843
1.73915e-06
-0.00108769
3.0993e-07
1.25191e-07
-2.45364e-05
-2.71228e-07
3.75336e-07
2.63999e-07
4.10396e-08
-2.04294e-05
-0.000126878
-1.47834e-07
-6.98964e-08
1.77793e-05
-0.00379159
-2.71468e-07
4.03035e-08
0.00529861
5.90235e-07
0.0101331
7.60073e-07
0.00270587
1.78013e-07
3.31086e-07
7.60421e-08
5.21709e-08
3.0829e-06
-5.99464e-08
1.55508e-07
1.07155e-06
6.85e-07
-5.11208e-08
-1.58678e-07
1.61684e-07
-6.17794e-08
-6.91603e-08
-1.24451e-07
8.81586e-07
-0.00134554
0.00169503
-9.71318e-08
-2.75388e-05
-3.23348e-07
-0.00152095
6.96801e-07
5.13532e-08
-2.08276e-07
-2.96953e-05
-1.20614e-07
6.40048e-08
2.15648e-07
-1.61724e-07
4.21126e-08
4.43513e-07
0.00058713
-5.93725e-08
1.36106e-06
-0.000672402
3.50356e-07
-0.00137492
-0.000808347
2.23572e-08
3.2114e-07
5.7831e-07
9.23199e-08
-1.02521e-07
-2.25716e-07
-0.000604414
0.00181739
-7.58513e-08
-3.19851e-08
1.16281e-07
2.69106e-07
1.87762e-07
2.00376e-07
-5.5641e-06
6.21283e-07
2.45611e-07
0.00983021
6.12509e-07
6.17094e-08
8.50076e-08
0.000143324
1.46533e-07
-4.9696e-07
-1.65742e-07
-6.80585e-07
-2.43557e-07
-1.15274e-07
2.0241e-08
3.3792e-07
-8.94624e-08
8.375e-07
4.15494e-06
1.01383e-07
3.42914e-07
3.79185e-07
3.01754e-08
0.000120731
-0.000986114
-2.83733e-06
7.07342e-08
-1.75836e-07
0.00554291
7.45212e-08
8.93946e-05
-1.27064e-07
-2.36538e-08
0.000112633
0.00315873
4.20236e-07
3.98868e-07
4.28581e-08
-5.67847e-08
-4.47007e-08
6.04191e-08
-0.00180793
-3.94932e-07
-8.54266e-12
0.000100798
-3.53618e-08
2.20747e-05
2.23257e-08
-1.71295e-07
-0.000409248
-4.05017e-07
-7.08243e-08
5.07933e-08
1.55494e-07
-0.000159748
-2.56848e-07
-1.54788e-08
-1.38216e-07
-9.47657e-08
-3.24221e-07
1.30365e-07
0.0170763
1.42783e-07
6.84899e-08
-1.96552e-07
1.30294e-07
3.11671e-07
5.17595e-07
-5.7774e-08
1.81313e-08
6.53755e-08
2.93931e-07
-0.000279186
0.00107852
1.29851e-07
0.000955597
7.4543e-08
1.48915e-07
0.00174295
-1.11574e-05
6.4325e-08
-2.14365e-07
1.18093e-07
2.84442e-07
-4.96479e-07
3.83014e-08
-0.00141944
1.22916e-09
2.74749e-07
1.6532e-07
1.78423e-08
-3.45392e-08
-6.37212e-07
1.25357e-07
2.49953e-07
-1.22084e-07
2.51069e-08
-1.49903e-09
1.01209e-08
-2.80301e-07
-1.25238e-07
-5.85651e-08
-1.57889e-07
8.01229e-08
-5.55715e-08
4.2217e-07
2.32469e-07
4.55382e-07
0.00135348
1.18284e-07
3.66948e-07
7.77425e-08
-5.67429e-08
5.02494e-07
0.00792096
-2.04777e-07
-0.00101222
0.000809199
-1.45415e-07
-5.89097e-08
-1.03068e-09
3.25458e-07
5.37974e-07
-1.04957e-05
-2.08033e-07
4.18137e-07
-2.14321e-07
1.21881e-08
-6.01385e-07
3.03438e-07
5.26413e-08
-1.84294e-06
-6.19913e-08
3.89025e-07
-1.54635e-07
8.83801e-08
-2.49995e-08
9.58776e-07
-1.57617e-07
0.00120262
-0.00295248
-0.00104905
2.29488e-07
-2.35354e-08
3.61614e-05
-1.23288e-06
4.29362e-07
6.10174e-08
-1.12797e-07
-9.04139e-07
-4.10785e-09
-0.000124275
-2.61312e-07
5.58678e-07
4.40709e-08
-9.52968e-08
1.86617e-07
0.0170001
-0.00166446
-3.73795e-05
2.10732e-08
0.000279413
-2.74814e-08
-0.00254257
0.00804702
4.89909e-09
2.44947e-08
3.76817e-08
0.000451543
-1.89077e-07
0.00257966
3.52722e-08
1.68544e-06
8.89741e-08
0.000275416
-0.00546815
1.70261e-06
1.79225e-07
4.87619e-07
-4.95429e-07
0.000208879
-4.33159e-08
2.28078e-07
3.31474e-06
9.88761e-07
0.018846
-0.00224546
2.75959e-07
2.56745e-07
-4.06906e-07
9.02648e-07
0.00231899
9.94408e-05
2.18033e-08
1.69813e-06
4.01234e-07
5.55912e-07
1.63992e-09
0.000592702
0.000809374
-3.25386e-07
5.02801e-08
6.70864e-07
1.53768e-07
2.30451e-07
0.00124215
-2.25013e-07
0.0099129
-8.17837e-07
-3.13641e-07
3.98118e-07
6.14865e-07
0.000252203
2.56729e-07
0.0023182
0.00879037
-0.000301766
-1.47375e-08
-1.15207e-07
2.59221e-07
-1.10934e-07
-1.27758e-08
0.000413186
6.38568e-05
1.12347e-07
1.45371e-08
6.60354e-07
1.8959e-05
4.176e-07
-5.64817e-08
-2.8898e-07
-5.31685e-08
-4.14698e-09
-1.19805e-07
4.98127e-07
-3.21937e-08
2.95197e-07
0.000303365
2.89462e-07
-1.86913e-07
2.05035e-06
2.52598e-07
-1.20666e-07
1.39477e-07
3.86791e-07
-1.84014e-08
-3.08055e-07
7.8572e-08
0.0141376
5.44628e-06
1.05284e-07
4.10812e-07
-7.45609e-08
7.38926e-05
-1.42784e-08
-0.00287033
-4.08116e-09
8.74831e-08
2.4437e-07
-1.08047e-05
3.26848e-07
-9.64075e-08
-2.7519e-08
-0.00238731
-0.000165809
-8.15528e-06
1.32021e-06
-2.62947e-07
2.69001e-07
1.98879e-07
-2.98524e-05
3.97886e-08
0.000123388
4.87414e-08
4.47809e-08
1.667e-07
-5.38034e-07
-2.9973e-07
2.90311e-07
-1.26529e-07
-0.00270182
-5.21816e-07
1.24013e-08
-2.05474e-07
3.02152e-07
0.001023
4.50298e-06
6.3593e-07
0.000828094
-1.8235e-07
1.55714e-07
3.02819e-07
0.0108593
-4.23381e-08
-2.35175e-07
0.00365255
9.0999e-08
6.07875e-08
-9.01075e-08
1.38169e-06
0.0189838
-0.00191504
-2.09602e-08
2.63665e-08
-5.37047e-06
6.09656e-07
0.000467834
1.04422e-06
3.65842e-07
-5.93198e-08
5.31575e-08
3.78648e-07
-1.18022e-07
-2.98781e-07
9.42261e-07
8.79493e-08
-2.52689e-07
3.94623e-08
1.33572e-07
-1.40076e-07
6.91273e-08
2.82464e-05
3.9722e-07
3.18052e-07
2.26769e-07
2.8251e-08
8.50564e-08
1.91375e-07
-0.00249171
-1.14841e-07
2.50301e-07
0.00202082
-1.60741e-07
-0.00298362
1.90765e-07
0.000134222
2.49478e-07
1.07767e-07
-3.69266e-08
2.56053e-07
-0.0021421
2.17078e-06
3.13355e-07
3.51666e-07
4.25035e-09
1.93066e-08
6.22861e-08
7.81071e-08
0.00103739
4.00046e-07
8.77632e-08
1.90354e-06
-9.28163e-09
0.00788329
2.93671e-07
0.00345056
-9.89259e-09
3.03393e-07
6.40179e-07
2.86424e-07
2.80372e-06
1.08615e-07
0.000776533
-8.34181e-07
-1.38414e-08
-0.00169472
2.93809e-07
6.89209e-08
-8.15794e-09
-2.0854e-08
1.05649e-07
5.44001e-08
-0.00214237
2.91107e-07
-8.32622e-08
3.10013e-05
4.46541e-08
8.79881e-05
4.06249e-06
-3.09198e-07
0.000191222
-3.95557e-07
-1.42794e-07
-3.53227e-08
0.0011438
0.0125772
5.07615e-07
4.73076e-08
-2.69345e-07
-5.8117e-05
-8.95169e-08
2.3047e-07
-2.59352e-07
-3.46577e-08
7.86983e-08
0.00742017
8.10445e-08
4.64331e-09
1.8534e-07
-7.48084e-08
-1.03933e-06
4.60177e-07
6.7478e-07
1.91484e-07
2.59197e-07
-0.000407642
-8.36615e-06
7.03754e-08
1.43874e-07
6.69542e-08
1.94492e-07
-0.00443774
0.0136784
3.86438e-07
1.50184e-07
-3.54036e-08
0.0113095
0.00446058
1.35214e-07
-2.06546e-05
-1.58604e-07
7.63563e-07
-0.000901731
-8.19166e-08
-0.00524345
-0.00209452
2.21169e-07
0.00111073
0.0107496
3.15991e-08
6.88192e-08
7.79277e-06
-0.000414213
5.04747e-08
0.000967223
3.64944e-07
-4.35802e-08
7.93836e-08
2.60428e-07
3.3232e-07
3.94632e-07
-1.18483e-06
0.00120007
-3.82935e-07
2.15831e-08
-3.32061e-07
4.93067e-07
-6.45822e-07
1.06409e-07
-3.36016e-06
1.98217e-07
4.53981e-08
2.07306e-07
-8.61364e-08
-4.15641e-08
6.93676e-08
-4.57217e-06
1.31993e-07
-1.71844e-07
0.000208673
0.000195723
2.80382e-07
-5.3073e-08
2.71396e-07
7.18198e-08
-2.92658e-07
0.000978909
0.0161087
-3.2976e-07
-1.09705e-07
-0.00237566
-8.74431e-05
2.10606e-07
-1.53947e-08
0.0129004
3.41642e-07
-4.6496e-08
1.42079e-07
-3.3356e-07
-2.86758e-08
-2.91504e-07
0.0180317
2.98591e-06
1.64109e-07
-3.23527e-06
5.25456e-07
-0.00015593
0.0101183
-0.00130388
1.35674e-06
-2.39315e-08
9.36076e-08
8.49267e-08
-2.93597e-07
-9.01374e-07
-2.26737e-07
1.71992e-07
4.42088e-07
0.000234897
1.1417e-07
0.000189358
1.32289e-07
0.00114983
-1.59608e-07
1.30795e-06
5.61871e-07
1.93081e-06
-3.26012e-06
1.48037e-07
-3.07486e-07
0.00951429
2.9213e-07
-0.00162938
-2.44549e-07
0.0102552
1.66353e-07
0.00202283
-1.64174e-05
-2.13304e-07
-4.85474e-08
-2.39541e-07
-0.000778373
-0.00386997
6.94758e-07
-3.92269e-07
2.84984e-05
2.84628e-07
2.77142e-07
-0.00283063
-1.39367e-07
-9.98845e-09
0.00546078
-5.65372e-08
6.69385e-07
-1.6205e-07
0.0194536
-1.52942e-07
1.32026e-07
-1.85596e-05
1.25315e-06
-4.76108e-08
3.56079e-07
1.79864e-07
4.54497e-07
-1.76575e-07
1.54157e-05
7.65792e-10
3.00023e-07
-1.90408e-07
-2.92418e-07
-0.000307094
5.81528e-07
0.00221336
0.00568024
-0.000316345
2.92602e-08
1.54858e-08
5.44696e-08
4.00593e-07
4.54943e-07
5.7792e-07
0.000144583
2.95848e-07
2.62392e-06
1.33425e-07
1.11164e-07
7.70162e-09
3.09651e-07
4.08389e-05
0.000252054
-9.89193e-08
-0.000246361
-2.41179e-07
0.00390235
2.13742e-07
3.50319e-07
1.2923e-08
-1.22392e-07
2.70312e-07
-0.00325024
2.85473e-07
-5.64184e-08
2.71754e-07
2.17008e-07
1.05296e-08
7.88341e-06
-9.77367e-06
2.90935e-06
2.99363e-07
4.31472e-07
0.00846906
-2.28749e-07
3.06586e-09
1.84412e-07
0.000258057
1.9249e-07
3.4048e-08
2.34222e-07
1.90979e-06
7.42706e-08
-0.000623135
-5.8101e-08
1.63381e-06
2.03511e-06
-1.63321e-05
-1.31331e-05
-2.82476e-07
7.70653e-09
-0.0120986
-3.06797e-08
6.67266e-08
2.33483e-07
2.98414e-07
-5.2377e-08
0.0182757
-3.79081e-09
8.83385e-08
5.34536e-08
8.32129e-07
1.48209e-07
8.91801e-07
3.30381e-08
3.85265e-07
0.00107036
1.03724e-05
3.32417e-08
9.76502e-09
2.89694e-07
-0.00149372
3.42541e-06
1.21469e-05
5.52985e-07
-6.02702e-08
-1.99956e-08
-0.00089447
1.20738e-07
0.00780537
1.0248e-07
-0.00177804
-3.87494e-07
-1.67614e-07
-1.1637e-07
1.81846e-07
1.11061e-06
4.314e-07
0.000167688
0.00104565
2.11075e-06
-5.94873e-08
-6.53896e-06
2.47468e-07
5.66232e-07
3.85598e-07
2.61353e-07
-8.73069e-08
2.93555e-08
9.53694e-09
3.64287e-07
-1.52152e-07
1.64503e-07
-1.21946e-07
0.000349963
-0.000803716
9.33345e-07
-0.000869426
-6.97126e-08
-6.52449e-10
-1.89231e-07
1.34796e-06
4.2841e-07
2.97301e-07
7.79723e-07
0.00257542
1.34694e-07
1.40352e-07
1.75624e-07
-2.26102e-07
-0.00169586
7.33331e-08
1.97352e-06
-1.60738e-07
6.54784e-09
0.00181144
-2.5015e-07
8.75164e-08
3.77568e-07
2.52907e-06
-0.00267029
-0.00396868
4.39673e-07
6.53081e-07
6.42504e-07
0.00579488
9.41438e-08
0.00332896
0.000101027
4.02474e-09
4.05839e-07
-2.34006e-07
-1.02513e-05
-2.97312e-07
6.34119e-08
0.0010901
1.34223e-07
-2.32634e-07
-1.961e-06
7.06247e-07
-6.73359e-05
6.81729e-05
8.76237e-07
0.000717128
-3.15782e-07
-1.02442e-07
1.48571e-07
-1.31293e-07
0.012104
8.2962e-08
-0.000150654
2.47617e-07
0.00175442
2.41811e-08
-5.14731e-08
-2.57051e-09
-2.47432e-08
2.07722e-07
7.42856e-08
-3.35811e-08
8.19032e-08
1.2535e-08
6.19014e-07
3.88947e-08
0.000732144
-2.81602e-08
-2.37914e-07
6.22568e-08
2.85817e-07
-5.48496e-08
-1.03606e-07
1.57194e-07
1.23574e-07
1.80445e-07
1.53449e-07
3.09168e-07
-2.20761e-08
0.00516867
0.00100335
0.000378475
-1.87926e-05
-1.01575e-07
-2.84645e-07
-1.24176e-08
1.5311e-07
7.56672e-08
-9.13736e-08
2.39138e-06
-8.2597e-08
-4.04872e-08
-1.95088e-07
1.88071e-07
4.86037e-08
-0.000539496
2.32462e-07
-1.82395e-07
-0.00163743
7.02177e-07
1.33668e-07
-0.00141755
0.000812918
-9.58211e-09
-0.000128958
3.97062e-06
1.00991e-07
-7.6121e-08
9.08462e-09
-1.48843e-07
1.56602e-07
-7.78725e-07
9.77444e-07
-2.7511e-07
-2.47312e-07
5.13251e-08
-0.00034383
5.15113e-07
-2.96838e-08
-3.04906e-07
-3.41333e-08
0.0010477
2.96612e-08
-1.40278e-07
2.72965e-07
3.05263e-07
-2.88235e-08
-1.05067e-05
-0.000351147
0.000727158
0.00129164
-1.22387e-06
1.62686e-07
-1.59836e-07
0.0196888
2.40056e-06
2.156e-07
2.76943e-07
-2.26286e-10
2.95445e-08
-3.36311e-07
-0.000947478
3.87747e-07
-2.99717e-07
1.0747e-07
3.13361e-06
-1.42966e-07
-6.59301e-06
-2.71313e-07
5.99192e-06
3.26202e-06
0.000627123
-6.34514e-08
4.34811e-09
-1.24884e-08
1.53439e-07
1.12012e-07
1.42703e-07
5.30104e-08
0.000699879
-5.80063e-07
-5.96804e-06
0.0103785
-1.91424e-07
-0.00102488
9.6019e-08
5.27711e-08
5.9885e-07
-5.72236e-08
1.81318e-07
4.25556e-07
3.67523e-08
4.10439e-07
-2.75505e-07
0.000647837
-0.00869902
1.98511e-07
-1.59123e-07
1.37455e-06
7.43283e-08
-1.86102e-06
5.5623e-06
3.18345e-07
5.62141e-07
3.29981e-08
-1.98347e-07
4.47497e-07
1.63982e-07
-0.00229257
-7.70754e-08
-3.03416e-07
-1.01553e-06
0.0233325
3.74117e-07
-0.00154648
-1.51404e-07
1.86756e-08
-2.7687e-06
3.34149e-06
1.48106e-07
0.000965277
2.02183e-08
9.80718e-06
4.47398e-08
4.75431e-08
-0.000261912
7.38898e-06
2.86003e-07
5.8396e-08
-4.97896e-07
-5.38049e-06
1.63437e-07
1.15294e-06
-1.39379e-07
-1.51815e-07
7.61968e-08
6.62655e-07
-0.00259346
8.66825e-08
5.44467e-07
0.00056919
4.91292e-07
8.86453e-06
-0.000130337
0.000101534
-0.000565303
2.24836e-07
-6.54551e-08
-0.000461052
-5.96202e-08
2.56794e-07
6.59204e-06
-0.00204402
-1.13519e-08
4.75151e-08
-0.00025577
3.96997e-07
2.25647e-06
0.00175811
-0.000789478
8.50968e-05
-1.72475e-07
-4.72633e-07
6.29373e-08
1.42211e-07
0.00950892
-3.92714e-08
-7.06235e-06
-3.78198e-05
-4.50761e-07
4.9931e-08
4.51591e-06
-9.10304e-08
6.67125e-07
-1.05972e-07
5.93056e-08
-0.000404288
-0.0016582
-2.33134e-07
-2.06013e-07
9.63499e-07
0.00143907
-1.38514e-07
-0.00117247
-2.08702e-07
1.06207e-07
3.48334e-07
-4.2658e-07
-2.69133e-07
-7.54897e-08
-4.64478e-08
0.000897892
4.18384e-06
9.05309e-05
2.94797e-07
1.36361e-07
-2.31695e-07
-0.0112235
-3.69201e-08
-1.72906e-07
3.04271e-07
1.35845e-07
-3.51237e-07
-1.1188e-08
0.0240335
-0.000196983
9.83594e-06
-0.000348483
2.76542e-07
5.45245e-08
-0.00151791
2.57349e-07
9.03634e-07
0.013108
-2.09121e-07
0.00247935
0.00038758
2.67639e-07
7.74836e-08
-1.55903e-05
1.79896e-07
3.02941e-06
2.52297e-07
0.000443634
1.98609e-08
2.11566e-07
4.98497e-08
-5.342e-06
1.39331e-06
1.88215e-07
0.000612817
-0.000840389
2.71718e-07
1.93017e-06
3.24061e-06
3.19824e-07
1.6094e-06
2.33752e-05
1.95284e-07
1.81107e-07
-0.00237007
6.49935e-07
1.36224e-07
-2.26355e-07
5.50428e-07
5.80622e-07
1.78524e-07
-1.14669e-08
0.0134746
2.13436e-06
0.000550242
0.000529051
-7.69516e-05
1.56819e-07
7.69844e-06
0.0139085
-2.3082e-07
7.31906e-06
0.00213093
0.0114906
1.78861e-07
-3.33477e-08
0.001552
0.0175089
-2.50772e-07
-2.42868e-06
2.10131e-08
-1.4519e-07
3.9231e-06
-1.58922e-08
-0.000243036
0.000540221
-0.000437939
0.0146054
-2.11941e-07
5.70439e-07
-1.36731e-08
-1.62228e-07
-1.22742e-07
3.20997e-07
4.06622e-07
7.14223e-06
-0.000256781
2.98045e-08
4.26291e-07
3.41641e-06
1.55193e-07
-1.48837e-05
-2.2609e-08
-0.00041824
-0.000387421
8.53903e-06
0.014582
0.000363852
9.17777e-06
-0.00033219
-0.000374239
7.01233e-07
3.72749e-08
2.45409e-07
3.84737e-07
0.000670151
0.010021
6.40679e-08
-1.04033e-06
3.31417e-05
3.26641e-05
2.71776e-07
0.00078202
-2.52535e-08
7.58e-08
0.00270676
0.00754963
-3.54746e-08
0.00050735
7.01583e-06
1.87994e-07
1.78515e-07
0.00279175
0.00199121
-0.00097787
-0.00174391
8.91352e-08
0.0127369
-0.000283005
3.39561e-08
-1.39086e-06
-1.50452e-07
-1.12809e-07
4.39316e-07
-0.000226764
-0.00185756
3.73317e-07
-2.82843e-07
0.00134475
-1.74352e-07
-0.000278839
5.07865e-07
-2.77392e-05
-0.000278274
-7.54992e-09
0.0194356
6.57919e-10
5.93186e-07
-1.14582e-07
-7.91701e-07
-7.15317e-07
2.32338e-07
1.10625e-06
-2.44305e-07
0.0340359
6.98036e-07
0.00671834
-0.00180121
-1.98007e-05
-3.59895e-08
0.00162071
4.24266e-07
-0.000266607
1.77587e-07
9.2788e-08
0.00656531
5.81037e-07
-0.00139003
-9.31516e-08
-1.02502e-08
-5.41579e-07
-0.00474558
0.000146399
1.40631e-07
-0.0280431
-1.3557e-07
2.97402e-09
0.000239201
-2.78022e-08
0.00341821
6.55156e-08
5.97575e-07
-5.05373e-05
0.000354334
-0.000441594
3.61529e-06
-0.000434154
-0.000290106
0.00590244
-7.27326e-09
0.000195906
1.9967e-07
-1.92425e-07
-1.83402e-07
-1.11975e-07
8.29474e-05
-4.80704e-08
-0.000395092
-0.000448141
8.89685e-07
2.46784e-06
1.05569e-06
-0.000116017
-9.60796e-08
0.00180042
0.000622131
1.34434e-06
-4.27071e-07
-1.01348e-07
9.87247e-06
-8.7274e-07
1.1237e-06
0.00010757
-0.00235214
1.58521e-06
-2.2409e-07
3.39754e-07
1.00693e-06
-1.47789e-07
1.15622e-07
4.07965e-07
-0.000349927
4.79605e-07
3.21567e-07
0.000260135
7.2148e-07
9.78128e-05
0.0295497
-0.000226551
2.42883e-05
-0.00107498
0.00130408
-0.000191168
3.14871e-07
6.10508e-07
-7.68926e-08
-5.63138e-06
8.16044e-07
5.33614e-06
-9.08374e-08
-8.36378e-10
-9.83956e-08
2.54634e-06
0.0145757
4.46717e-07
-5.14326e-07
3.72424e-07
0.00402678
-5.03689e-09
2.30564e-07
2.7228e-07
-0.000310125
5.10714e-07
9.71203e-07
9.85652e-07
6.88502e-08
4.4843e-07
1.81746e-07
-1.91522e-07
1.3915e-07
2.52949e-05
-2.00378e-08
2.00813e-07
-7.08777e-08
0.01332
-6.84315e-08
0.00628965
-5.5076e-07
-0.000308022
-1.70829e-08
8.07262e-09
-2.63566e-07
3.37562e-07
7.29491e-07
2.17472e-05
-0.00271965
5.51711e-07
1.05224e-07
-5.85621e-08
0.00265453
0.00116267
-1.55973e-08
2.21498e-06
-0.000439433
2.00945e-07
5.94614e-08
-5.37465e-08
1.73317e-07
1.50831e-08
0.000235775
2.63503e-07
-2.16258e-07
-6.34718e-05
9.22442e-08
-2.101e-07
-1.5136e-05
-1.66276e-07
2.44288e-06
2.73258e-07
-0.000100091
2.66244e-08
3.45114e-08
-1.54506e-08
2.31349e-07
-5.2501e-08
-9.3411e-08
0.0154931
9.00272e-06
5.32895e-07
-2.99625e-08
-0.00109561
-9.93972e-10
9.93053e-08
-4.9561e-07
5.93304e-05
0.000524937
2.42765e-07
0.00970378
0.00405158
2.88435e-07
-0.00019431
0.00441386
0.000479542
0.0112114
4.91351e-07
6.41747e-07
3.17282e-06
2.28537e-07
-4.37777e-07
4.26886e-10
5.88997e-07
-0.0018166
1.65497e-07
-0.00275467
-2.13395e-08
1.70826e-07
8.59655e-07
1.86728e-07
-3.44146e-07
0.0263298
-0.00137709
0.000333059
-7.84232e-06
-6.70764e-08
8.15512e-07
0.00170138
4.21288e-07
0.022546
1.63005e-07
-2.56895e-08
-0.000688527
8.10239e-07
3.83467e-08
2.30205e-08
1.41521e-06
3.75044e-08
-0.00029028
-0.00115634
-9.66278e-08
-2.53992e-07
-3.8784e-07
-1.51088e-08
-0.000836602
8.0283e-09
2.94701e-07
-1.44556e-07
-1.55049e-09
-3.2837e-09
-9.64904e-09
0.000386542
7.5977e-07
1.21207e-07
-1.7805e-07
6.77505e-07
3.11684e-07
-1.10774e-08
-0.000129693
0.00105511
3.26998e-07
2.01593e-06
5.73029e-08
-1.71693e-07
1.49036e-06
-0.00363278
2.22418e-07
-0.000349682
0.00813022
3.808e-07
2.2454e-07
4.91755e-07
3.56038e-07
1.33444e-07
0.00247324
2.66476e-07
5.3886e-08
-1.87594e-08
-0.00192598
0.0195617
1.3267e-07
1.1538e-06
1.02794e-07
4.43732e-07
4.61238e-07
5.01162e-06
-1.51751e-07
8.01607e-07
-0.00110272
-9.59912e-08
-2.06251e-08
-5.77568e-08
0.00151918
0.000688002
1.07789e-07
-0.000112464
5.94379e-07
5.26156e-06
2.26433e-07
-2.45832e-07
0.000338853
5.52665e-07
-2.65965e-07
0.000441891
3.562e-06
7.7219e-08
2.23385e-07
1.65118e-05
6.72859e-09
2.5513e-08
1.07891e-06
6.2004e-08
-4.03695e-07
0.000909918
4.03054e-07
1.02307e-06
-0.00099467
-6.26751e-07
0.0192693
0.00191273
4.15004e-07
7.09994e-07
3.40942e-06
-1.43112e-08
2.16753e-06
-5.48437e-09
-0.00189379
2.13115e-06
-1.50455e-07
0.00290044
0.00776996
-6.17317e-08
-8.88248e-08
6.99336e-07
9.29933e-07
0.000642854
0.000326873
-4.46339e-08
2.22194e-07
0.00136286
2.40087e-07
5.48747e-07
5.51872e-07
1.64548e-07
0.000287063
1.01463e-06
8.69217e-08
1.51576e-05
0.00779456
2.32486e-08
-0.00159541
-4.23666e-08
-2.53984e-07
4.41388e-09
2.72497e-07
0.00679815
-3.64029e-07
6.79169e-07
-0.0284195
0.000388729
-4.27265e-08
2.68786e-07
1.52766e-06
1.18101e-05
9.32621e-08
0.0196643
3.92343e-07
6.84713e-07
6.42215e-07
2.56641e-07
3.95809e-07
-1.14612e-07
1.39692e-07
0.0176476
-4.48523e-07
-4.01636e-07
9.72137e-08
-0.000431416
8.56107e-08
1.50134e-07
-1.78684e-07
3.24529e-07
-7.34882e-08
1.91884e-07
4.9052e-05
2.99972e-05
2.15099e-07
4.91274e-08
-3.98683e-07
6.04784e-08
1.76169e-07
0.000514671
0.000295592
-1.90272e-07
0.00181177
1.36503e-07
3.83609e-06
0.000232928
0.000286961
1.21337e-07
3.4582e-07
3.43626e-07
0.000680934
2.46997e-07
3.543e-08
0.00178363
-2.98806e-07
-1.00386e-07
7.40672e-05
-5.40105e-08
-6.94932e-08
1.17033e-07
-0.00177177
1.95442e-08
0.00918455
2.55336e-08
0.00368179
-3.4611e-07
-8.41176e-07
-0.001538
2.34641e-07
-4.97001e-08
2.71958e-05
1.2817e-08
2.44198e-07
0.0220023
1.32898e-06
5.77708e-08
9.40924e-07
1.36348e-08
3.06563e-07
2.71141e-07
0.0286763
-4.57795e-08
-8.62144e-08
2.37444e-07
3.13688e-07
5.00094e-07
-0.00057451
-0.000558241
-1.06756e-07
-2.05702e-07
-2.83221e-08
-0.00120975
0.00375281
2.57676e-07
3.32108e-09
-3.52679e-07
-2.17017e-08
-0.00222018
2.51845e-08
4.21571e-07
-0.00256816
2.23696e-07
-5.87025e-08
-1.19157e-06
2.80891e-07
1.48185e-07
4.10759e-07
-4.73014e-09
1.10703e-06
7.70393e-08
2.15705e-07
-0.0011498
0.000367664
6.79947e-06
2.17269e-07
6.73889e-08
3.12874e-07
-4.61629e-08
5.82395e-07
3.68001e-07
5.2989e-07
2.75841e-07
0.000635496
-5.19416e-08
-5.40538e-08
0.000779575
2.21445e-06
0.000869906
2.46826e-06
2.20016e-07
-2.92823e-08
1.41544e-07
8.71239e-08
5.36799e-08
4.56348e-07
-1.50462e-07
-1.29386e-08
-2.55729e-07
2.34142e-07
2.40107e-07
1.0712e-07
9.24476e-08
8.19406e-07
8.71939e-08
1.00133e-07
7.27134e-08
-5.1718e-08
1.84602e-08
1.18719e-08
-6.00015e-08
-1.66626e-08
1.23046e-06
-1.01236e-07
2.55066e-07
6.32087e-08
4.7663e-07
0.00123594
-0.0033852
-0.000277416
-0.00222737
0.00262245
6.56929e-06
-2.16202e-07
2.221e-07
3.74569e-08
0.000119445
3.75863e-08
1.80238e-07
6.08736e-08
3.10686e-07
-1.50029e-07
6.37994e-07
-2.298e-07
0.000153502
9.08109e-07
-1.15354e-07
-0.000918603
0.00185052
-3.4301e-08
9.34487e-07
-1.06886e-07
-1.89538e-07
-3.78433e-05
8.88418e-08
3.27801e-07
4.57863e-06
-4.37967e-08
-2.31942e-07
4.39769e-07
-0.000438596
-4.52573e-08
2.58289e-07
0.000451326
-2.20785e-09
-4.94337e-05
2.08336e-07
0.00529711
-1.38828e-07
-0.000223152
-1.18217e-07
3.96935e-08
-4.8164e-06
2.86461e-07
-0.000480678
-0.000377443
0.000180619
4.23119e-05
1.40475e-06
8.71391e-07
2.56884e-07
9.47436e-07
-6.92182e-08
-6.95994e-08
-1.64621e-08
-8.12277e-08
-2.23543e-08
-1.32226e-07
-1.15529e-07
6.85741e-07
0.00153347
-0.000131225
1.68303e-06
-0.00226829
2.6185e-07
5.36954e-08
3.86342e-07
1.5693e-07
3.95203e-07
6.98119e-08
-2.96912e-07
-1.50637e-07
2.98906e-07
-1.68756e-08
6.94185e-07
8.00485e-07
2.83669e-07
-4.60224e-08
-5.59163e-08
1.58809e-08
-0.000462473
0.00145217
3.80762e-07
5.11056e-07
-6.366e-08
0.0174095
0.00148546
1.89049e-08
1.35301e-08
2.95693e-07
-8.14124e-08
-3.8319e-06
2.63434e-06
0.00161948
-4.93685e-08
-0.000578098
7.70323e-08
-0.000304243
2.59114e-07
-2.22859e-07
3.79203e-07
0.000273413
5.52e-08
4.37858e-07
5.94016e-07
6.16395e-07
0.00225442
-2.04833e-07
2.69556e-08
1.98567e-07
1.04734e-06
1.75757e-07
-0.00022965
-0.000339938
-1.72147e-08
7.87239e-09
1.13952e-06
7.3391e-07
1.97707e-08
-0.101419
0.0190355
-0.00209365
-0.000173805
5.39528e-07
2.23401e-06
-1.35763e-07
0.00118619
-0.000211629
1.05729e-05
7.28209e-07
2.58266e-07
0.00027289
3.72192e-07
-6.35956e-08
-2.58971e-07
-1.45275e-06
-3.36503e-07
0.00278243
-9.7902e-08