/*--------------------------------*- C++ -*----------------------------------*\
| =========                 |                                                 |
| \\      /  F ield         | OpenFOAM: The Open Source CFD Toolbox           |
|  \\    /   O peration     | Version:  v2012                                 |
|   \\  /    A nd           | Website:  www.openfoam.com                      |
|    \\/     M anipulation  |                                                 |
\*---------------------------------------------------------------------------*/
FoamFile
{
    version     2.0;
    format      ascii;
    class       volVectorField;
    location    "650";
    object      ddtCorrDdt0(U);
}
// * * * * * * * * * * * * * * * * * * * * * * * * * * * * * * * * * * * * * //

dimensions      [0 1 -2 0 0 0 0];


internalField   nonuniform List<vector> 
9793
(
(1.33365e-05 -0.00011548 -4.03364e-18)
(-0.0274927 0.00129884 3.74628e-17)
(0.000103682 -0.000834996 -1.29774e-17)
(-0.00141961 -0.0163046 1.58089e-17)
(-3.27007e-06 0.000115717 -3.67307e-18)
(0.0180891 -0.0137196 -5.14217e-18)
(-0.005413 -0.0107664 6.26659e-18)
(-0.0556223 -0.0105549 7.20378e-17)
(0.00115594 -0.000493368 -3.50515e-19)
(-0.0104245 -0.00478279 -3.01191e-17)
(-2.15461e-05 6.75736e-05 5.21443e-19)
(-2.16574e-05 4.66406e-05 2.47208e-18)
(0.000244703 -0.000451604 -1.27211e-18)
(0.0085521 -0.0549948 -9.14286e-18)
(0.000864549 8.41846e-05 -4.04149e-18)
(0.00569705 0.00525799 7.3373e-18)
(0.00759599 -0.00879134 -3.86648e-17)
(0.000148973 -0.000785528 -6.75047e-18)
(-0.0224763 -0.0277822 2.1107e-17)
(4.4313e-05 0.000240466 5.17282e-19)
(0.000336877 0.000483113 1.94155e-18)
(8.44143e-07 2.84151e-05 -1.99363e-18)
(0.000237159 -0.0158369 -2.73109e-17)
(-0.0524133 -0.0122357 1.05441e-16)
(0.00969542 -0.055645 4.30383e-18)
(-0.000708902 -2.17304e-05 8.36437e-18)
(-9.11081e-06 -0.000232821 -5.4396e-20)
(-2.48444e-06 3.0175e-05 2.98146e-18)
(6.11452e-05 0.000246636 -2.22162e-19)
(0.00214617 -0.013649 -3.27179e-17)
(-0.00770724 -0.00223772 -3.86015e-17)
(0.0208347 -0.0225518 7.83706e-17)
(4.30673e-05 -0.000788112 3.4479e-19)
(0.000165306 -0.000745768 4.93378e-18)
(0.000203854 -1.14114e-05 5.23142e-20)
(0.00659949 -0.00132538 -3.87205e-18)
(0.00432283 0.00375714 -4.05832e-18)
(8.95357e-05 0.000295633 -1.46562e-18)
(-0.00414047 -0.0307699 -1.89944e-17)
(0.00393048 -0.00444205 -3.96722e-18)
(0.00209103 -0.0127331 -5.74235e-18)
(-0.102883 -0.010868 7.5941e-18)
(-0.0692741 -0.0288884 9.40791e-18)
(-1.60452e-06 2.28808e-05 -4.16052e-18)
(1.72107e-05 -0.000925164 -3.67925e-19)
(9.684e-06 -0.000681024 -6.94753e-19)
(-0.0337501 0.00486329 -5.26862e-17)
(-5.67245e-06 4.45302e-05 2.99774e-18)
(0.000376339 0.00113142 -9.54645e-19)
(0.000141727 -0.000807742 2.64569e-18)
(0.00674683 -0.000946466 -6.84024e-18)
(0.000210939 -1.04553e-05 -5.09735e-20)
(0.00749418 -0.00459361 2.17039e-17)
(-8.02501e-06 7.72628e-05 -4.42714e-18)
(-0.00210702 -0.000198987 6.26289e-19)
(-0.00148147 -0.0172626 8.3047e-19)
(0.000227489 -0.000417482 -8.00669e-19)
(0.0162352 -0.00733256 2.07869e-17)
(0.000443909 0.00108499 1.33312e-18)
(-1.70242e-06 2.40482e-05 -1.70498e-18)
(-0.000141159 0.000423937 1.12023e-17)
(-0.00779029 0.0019834 -1.46011e-17)
(0.000103466 -0.000860092 -5.03577e-19)
(0.0107341 0.00138333 4.1043e-19)
(0.000118199 -6.95346e-05 -1.77915e-19)
(0.00111338 -0.000420055 -1.11178e-18)
(0.00724161 0.00344736 -2.69783e-17)
(0.00319117 -0.00144936 -3.5891e-18)
(0.00450929 0.00450347 -1.78475e-19)
(-0.0515625 -0.0181839 -4.85366e-17)
(8.25095e-05 -0.000337228 1.32201e-18)
(0.000473166 0.00568608 -8.4272e-17)
(-0.0613718 -0.00536599 3.3101e-17)
(0.0669597 -0.00089419 -3.50401e-18)
(-0.0575237 -0.0228391 -1.8696e-17)
(-2.01335e-06 6.71339e-05 1.61671e-18)
(-0.00251816 0.0019989 1.39579e-17)
(-0.139227 -0.0359714 -9.23297e-17)
(5.10245e-05 -0.000887959 6.6798e-18)
(-1.98654e-06 8.76799e-05 -2.92184e-18)
(-0.00248705 0.00214368 -2.69334e-17)
(-0.0255603 -0.0269323 -2.60216e-17)
(0.00778989 -0.00811715 5.28155e-19)
(-0.000229945 -0.00106196 -3.01708e-18)
(0.00469042 0.00408893 -1.1187e-17)
(0.00128342 -0.0238358 4.69379e-18)
(-6.59841e-06 0.000108126 1.81868e-18)
(0.0197536 -0.00157911 3.80845e-18)
(-0.00409634 -0.032206 3.6003e-17)
(-0.00715654 0.00224207 1.40015e-17)
(-0.000499427 -0.0193261 -8.11492e-18)
(0.00207486 -0.0366719 6.25902e-17)
(2.91586e-05 -0.0357782 2.65305e-17)
(0.00142949 -0.00733254 -1.22107e-17)
(-0.0665059 -0.0267699 -4.57612e-17)
(0.000221124 -0.000643821 -5.57564e-18)
(-0.0677421 -0.0198774 1.53344e-17)
(0.00542618 -0.00906865 -1.1875e-18)
(0.00197441 -0.00235439 4.81985e-18)
(-5.36345e-07 9.49169e-05 1.27696e-18)
(0.00104274 -0.033918 2.29617e-17)
(0.00713707 -0.00430066 -2.26499e-17)
(0.108152 -0.0921508 1.5851e-17)
(2.17906e-05 -0.000921328 -7.10214e-18)
(-0.0372156 -0.0427849 -1.42962e-17)
(-0.129954 -0.0355626 -9.54977e-17)
(0.0650045 0.00164363 1.28575e-18)
(0.000264824 -0.00017797 2.0911e-18)
(4.78086e-05 -0.000887863 -4.7443e-18)
(3.00566e-07 5.63399e-05 6.04632e-19)
(-9.85912e-06 4.8935e-05 5.60916e-18)
(6.08703e-05 -0.0174352 5.46757e-17)
(0.00128651 0.0100399 -8.03439e-18)
(0.000197519 -0.00028696 5.24907e-17)
(0.000101828 -0.00030172 -2.63546e-18)
(-2.0378e-05 -0.000237623 8.67483e-19)
(0.00203293 0.00611193 8.15859e-18)
(1.21593e-05 -0.000643382 -3.00008e-18)
(-0.00162621 -0.018815 -1.29327e-17)
(1.33093e-06 -0.000764022 -1.4444e-18)
(-0.0246304 -0.0473123 1.18919e-17)
(0.0200393 -0.00266368 -2.72494e-17)
(-0.0954775 -0.00809512 -1.17825e-17)
(0.0102724 -0.00401545 -3.35866e-17)
(0.00443965 0.00333907 1.3301e-18)
(1.1879e-05 -0.000736428 -8.40954e-20)
(0.00680465 -0.0102363 -2.06047e-17)
(-0.0104083 -0.0031301 1.04123e-16)
(0.0325 -0.0095512 2.4979e-17)
(0.0339593 -0.00889241 2.09862e-17)
(0.00398664 0.000819975 6.99073e-18)
(0.000432977 1.0256e-05 4.36263e-19)
(5.93395e-06 -0.000161216 1.84492e-18)
(0.002855 -0.000970121 8.06374e-19)
(0.00592819 -0.0012925 4.81301e-18)
(-0.00633913 -0.016576 -1.60469e-17)
(0.0224192 -0.00199338 6.17141e-17)
(0.00238696 0.00584099 -1.21585e-17)
(-2.91377e-06 5.09697e-05 -1.22004e-18)
(0.00927172 -0.00928206 -1.00976e-17)
(-0.0348359 -0.0261652 -1.83435e-17)
(0.00617814 -0.00139274 -1.23316e-17)
(0.000175534 -0.000327954 -3.40948e-19)
(0.0170315 -0.00029199 7.28782e-17)
(-0.0381277 0.00549935 -2.20617e-17)
(-0.0182794 -0.00674101 9.91452e-17)
(3.70386e-06 -0.000735447 1.27436e-17)
(-0.0662523 -0.0183197 -1.63272e-17)
(0.000438739 -2.64484e-06 3.43686e-20)
(-3.20312e-07 -0.000763069 -1.37061e-17)
(1.36354e-05 -0.000425827 3.2187e-18)
(-0.0266017 0.00536819 1.10505e-16)
(0.00190866 -0.0021465 2.08512e-19)
(-7.37504e-06 -0.000238547 2.03321e-18)
(5.71645e-05 -0.000642446 -5.0314e-18)
(-0.00279068 -0.0343794 -8.0586e-17)
(0.00809064 -0.00921548 3.14702e-17)
(0.000113081 -0.000846642 -4.25971e-18)
(0.0273299 -0.0240516 -4.92649e-17)
(0.000117013 -0.000463901 1.27289e-18)
(0.0185545 -0.00138012 8.34716e-20)
(0.00413577 0.000601176 4.06946e-19)
(0.000369032 0.000472647 -2.76606e-18)
(-0.00689001 0.00832754 1.70705e-17)
(0.00163176 0.000937368 7.53213e-19)
(-0.131936 -0.0362213 -1.26034e-17)
(0.0877443 -0.1132 9.37721e-17)
(0.00201387 0.000718936 4.37953e-18)
(0.000253623 -0.00016146 8.97545e-20)
(-1.61826e-05 9.10907e-05 -3.14044e-18)
(0.000162788 -0.00032091 2.24626e-18)
(0.00152915 0.000418394 -1.30336e-16)
(-0.0433357 0.0131755 -1.63073e-16)
(0.00678932 -0.0620596 1.20134e-17)
(0.000257763 -0.000426738 -2.03219e-18)
(0.0173183 -0.0127611 -9.80453e-18)
(-0.0113834 -0.00393911 -3.8642e-18)
(-0.00776365 0.0101819 -5.6024e-17)
(6.61712e-05 -0.000886046 7.65745e-19)
(0.00341126 -0.00113183 3.26902e-18)
(-0.0437011 -0.0437515 1.76151e-17)
(-0.0253047 0.00589096 -1.53183e-17)
(0.0212397 -0.00299111 9.03968e-18)
(8.41682e-06 -0.000734423 5.72371e-18)
(7.25296e-07 -0.00049722 -2.15471e-18)
(0.000265968 -0.000152432 -2.07723e-19)
(-0.0955177 -0.00452573 -4.87559e-17)
(-0.0544343 -0.00260964 2.66857e-17)
(-0.0414011 0.00932532 1.41028e-17)
(0.0995651 -0.0844271 -5.73426e-17)
(0.00100444 -0.000320746 -7.04052e-19)
(0.000949736 -0.0153083 -5.50118e-18)
(-0.00168719 0.00880797 8.98675e-17)
(-0.000184603 0.000279754 -1.99653e-17)
(0.000189098 0.00146764 -9.67592e-18)
(-0.000232465 -0.000436297 7.77647e-18)
(0.000726237 0.010108 -1.726e-16)
(8.27984e-05 0.00021456 -5.14138e-19)
(0.000149465 -0.000767197 1.21087e-17)
(-1.41689e-05 0.000115336 -3.63572e-18)
(6.88592e-05 -0.000277765 -9.1146e-19)
(0.000305395 0.00061081 -6.19167e-19)
(0.00756757 -0.000604577 -2.14851e-17)
(0.00518678 0.00138645 -1.56384e-17)
(-0.00612293 -0.0224089 2.51399e-17)
(8.75542e-06 -0.000514439 2.23223e-18)
(0.00361864 -0.00358322 9.71055e-18)
(0.00204071 0.000865807 5.15049e-18)
(1.73926e-05 -0.000215272 -6.65309e-18)
(-0.0128483 0.00638917 -2.1456e-18)
(0.00889207 -0.00899795 2.08651e-17)
(-0.039566 -0.025469 -1.92771e-17)
(0.000112406 0.000191438 1.56151e-19)
(-0.0450939 -0.0191399 3.92199e-17)
(-0.000308827 -0.00100675 4.5821e-18)
(0.0131985 0.015297 -2.71608e-17)
(0.000851554 7.05558e-05 1.57717e-18)
(-0.00522267 -0.0171791 3.73268e-17)
(-1.83615e-05 -0.000179295 9.34558e-18)
(-0.00112042 0.0036025 -4.04192e-17)
(0.00567738 -0.00958082 1.51542e-17)
(0.000336526 0.000592907 2.16554e-18)
(0.00511981 0.0115388 1.58662e-17)
(0.0140458 -0.083654 -3.76115e-17)
(0.00118966 -0.00696477 1.55034e-17)
(0.000240333 -0.000547881 -2.34355e-19)
(0.0116218 -0.00519146 2.53456e-17)
(0.0257609 -0.109963 4.86136e-17)
(-0.00164982 0.00264256 -8.01858e-17)
(-0.00167746 0.00235431 9.63415e-17)
(-0.00321665 -0.0223524 -2.6804e-17)
(0.0278595 -0.00718247 2.18225e-17)
(0.0124665 0.0139788 2.04229e-17)
(0.0114432 0.00172397 -4.03925e-18)
(-0.0011917 0.00856368 -5.51477e-17)
(-0.000129659 0.00093881 -2.76263e-18)
(0.00490333 -0.0129774 1.79775e-19)
(-0.000188244 -0.000255739 -3.03357e-17)
(8.12437e-05 0.000200012 -2.51087e-19)
(-9.22765e-06 0.000141828 1.27683e-18)
(-0.0732998 -0.00311014 3.43499e-17)
(0.000158329 -0.000484455 -4.60331e-18)
(-8.00436e-06 4.83777e-05 -3.20768e-19)
(0.0179035 -0.00813784 -7.20518e-18)
(0.0167046 -0.00888751 1.62294e-18)
(0.00103837 -0.000390993 -2.05068e-19)
(0.00357684 -0.00105673 1.20743e-17)
(0.00382828 -0.00381635 -9.10904e-18)
(-0.00325137 -0.00187178 -6.32214e-18)
(0.00398405 -0.000528281 1.66307e-17)
(6.21229e-05 -0.000893878 -3.72366e-18)
(-0.00153375 -0.00703005 3.15746e-18)
(-0.00322105 -0.0204504 -9.39169e-18)
(0.000334047 0.000546714 -9.92149e-19)
(0.00997715 -0.0704215 -1.61387e-17)
(-1.06345e-05 8.88708e-05 -2.07886e-19)
(-2.28133e-05 8.68379e-06 -6.04621e-18)
(5.53522e-05 4.58692e-05 1.6682e-19)
(-0.00148791 -0.0175795 1.28221e-18)
(1.25428e-06 -0.00092111 -1.83784e-18)
(-0.0174899 -0.0328817 4.38162e-17)
(-0.0347074 -0.0234632 -5.66443e-17)
(-6.65076e-06 -0.000122217 5.60878e-19)
(-1.9594e-05 -0.000140056 -4.57187e-18)
(-0.014567 -0.0407271 -2.0955e-17)
(8.55051e-05 3.36205e-05 -2.00641e-19)
(-9.21652e-06 0.00012548 4.46215e-18)
(4.47182e-05 2.97433e-05 1.05313e-18)
(-0.0323247 -0.0231927 2.77391e-17)
(-0.00634628 0.00774873 3.34397e-18)
(-0.000569342 -0.000138889 8.29785e-19)
(-0.0139708 0.00312193 4.70101e-18)
(0.0152678 -0.00731739 1.75587e-17)
(0.0932674 -0.105941 -3.76347e-17)
(0.00278269 -0.0137405 5.31585e-17)
(0.00212708 0.00062558 2.72232e-18)
(-0.0227429 -0.0624632 1.40003e-16)
(-6.63231e-06 7.9533e-05 3.5966e-18)
(0.0267232 -0.113806 -1.48806e-17)
(-0.00928015 0.0249895 2.57246e-17)
(0.000723197 -0.0403523 2.77497e-17)
(-0.0279275 -0.044852 2.20947e-17)
(0.026328 -0.00730156 -1.23812e-17)
(0.00407086 0.00111269 7.73184e-19)
(0.00729969 -0.00766583 7.59552e-18)
(0.00488597 0.00132279 7.222e-18)
(5.83206e-05 0.00170265 -8.84222e-19)
(0.00205762 0.00150614 3.28843e-18)
(-0.0127911 0.00505647 5.53239e-18)
(-0.000821639 -4.78366e-05 4.29551e-18)
(-1.90875e-05 -9.22393e-05 -4.18027e-18)
(-2.97038e-07 7.71469e-06 8.34289e-19)
(0.000111035 0.000200099 -7.34327e-19)
(-0.000182267 3.53005e-05 -2.67631e-19)
(0.000362195 0.000525816 6.84205e-20)
(0.00376622 -0.016349 -8.96746e-18)
(0.000289363 -0.000180688 -2.8038e-19)
(0.00078838 0.000122148 -4.12647e-19)
(-0.000207914 3.20993e-05 6.78306e-19)
(0.000242366 -0.000415806 9.88007e-19)
(-0.00467523 -0.025139 -2.44236e-17)
(-0.0184365 -0.00795689 -1.74951e-17)
(0.00124096 0.00410919 -3.88059e-17)
(-3.85956e-05 -2.213e-05 1.36489e-17)
(0.0164176 -0.0011808 -2.4949e-17)
(-0.000211543 2.39091e-05 -2.50078e-19)
(0.0566335 0.00537364 8.72182e-18)
(-0.0174056 0.00200246 -1.42417e-16)
(1.04419e-05 -0.000925914 1.45105e-17)
(-0.0422338 -0.0224495 -1.54207e-17)
(0.0104301 0.00096803 2.35435e-18)
(2.0067e-05 -0.000913 -1.39334e-18)
(-0.0259849 0.0013767 -5.37878e-17)
(0.0580499 0.00243829 -5.96342e-18)
(3.8173e-05 -0.00076179 4.01181e-19)
(-0.00209641 -0.00724137 7.34671e-18)
(0.0102173 0.0246377 4.8485e-18)
(6.87275e-05 -0.000223623 1.81558e-18)
(0.00045532 0.00146102 -1.85887e-18)
(0.0008302 0.000188791 4.04792e-18)
(2.7457e-05 -0.000186975 1.02715e-17)
(0.0184329 -0.11792 1.74115e-17)
(-0.00359933 -0.000439755 -1.7363e-17)
(0.000147047 -0.000758337 2.44846e-18)
(1.38866e-05 -0.000790418 1.82876e-18)
(-5.49799e-05 -2.25987e-05 -2.48485e-18)
(-0.0123329 -0.00691011 -1.98575e-17)
(1.59693e-05 0.0105084 3.66489e-17)
(9.14256e-05 -0.000854054 1.43796e-17)
(0.000276048 -0.000170442 -1.69669e-18)
(0.000842315 0.000577007 -3.6911e-18)
(0.00172812 0.000447431 1.66335e-16)
(-0.0363576 -0.0479832 3.0343e-17)
(-0.00950501 0.00152079 4.03035e-17)
(-4.90928e-05 0.000840429 2.28887e-19)
(-0.00397308 -0.000544408 -1.37448e-17)
(0.000641216 0.00150593 1.31832e-17)
(-0.0173057 0.00995256 -4.12532e-18)
(0.0136629 -0.00685158 -1.76508e-17)
(-0.000425298 0.00107329 3.89656e-18)
(-0.000137569 0.00118911 -9.39542e-19)
(0.000839515 0.000531616 3.45378e-19)
(0.00745223 -0.00710816 1.43756e-17)
(0.000260353 -0.000342098 1.80783e-18)
(-0.0271638 -0.0124357 9.91029e-17)
(-9.88232e-07 -0.00039796 -4.08146e-18)
(0.000445957 0.000116924 -2.18724e-18)
(0.0279999 -0.0930299 -3.16701e-17)
(0.00438515 -0.0166792 2.69699e-17)
(-0.0367306 -0.0213734 6.85829e-17)
(-0.00017108 3.68325e-05 -1.25736e-19)
(0.000372821 -0.0319279 -5.57175e-17)
(-0.000379454 -0.00137527 -5.78981e-18)
(-0.00406623 0.0156922 4.80902e-18)
(-0.0308575 -0.0168911 -5.51975e-17)
(-0.00339052 -0.0213665 7.97579e-17)
(6.91836e-05 -0.00122648 -2.57394e-18)
(0.00386195 -0.00473123 1.34246e-17)
(0.0253675 -0.00254183 1.60934e-17)
(0.000441199 -0.020954 -7.38277e-18)
(-0.000777381 -0.0177629 -9.65778e-18)
(0.000394747 0.000351365 -1.73617e-17)
(-3.03528e-06 3.68666e-05 -2.07716e-18)
(-0.000602751 -0.000112854 4.88769e-18)
(0.000206382 0.00112329 4.95347e-19)
(0.000300299 -0.000121529 5.34592e-19)
(0.000254892 -0.000309592 -1.89445e-18)
(2.9338e-06 -0.00029569 1.7682e-19)
(-5.27736e-08 2.96098e-06 8.41765e-19)
(-0.0350172 -0.0108804 -2.65625e-17)
(-1.98435e-05 7.81487e-05 -1.03311e-18)
(0.0055838 -0.0109057 3.57859e-17)
(0.0044595 -0.00403933 -9.04312e-18)
(-0.0246124 -0.0262837 -2.48578e-17)
(-0.00049773 0.00108244 -2.30626e-18)
(-0.00024528 -0.0011813 3.54859e-18)
(-0.000624094 -0.0152614 1.56062e-18)
(-9.45271e-05 0.00851101 -1.42725e-16)
(0.0096078 -0.0664455 4.91659e-18)
(0.0132584 -0.00661956 1.1267e-17)
(0.000428889 0.000101 2.44714e-18)
(8.53637e-05 -0.00134547 6.72942e-19)
(0.000104993 -0.000841635 2.18889e-18)
(-0.0156652 -0.0159949 -1.35863e-17)
(-2.25868e-05 8.28668e-05 -8.27719e-19)
(-0.0342512 -0.0210109 -6.32241e-17)
(-0.0120033 -0.00129279 4.72583e-18)
(-0.00592587 -0.0100098 1.1335e-17)
(-0.00261717 1.67713e-05 -4.19391e-17)
(0.0193701 -0.122242 1.06134e-17)
(-1.76808e-05 -5.66074e-05 3.62564e-19)
(0.000276295 -0.000543203 6.96397e-19)
(0.0233102 0.000921946 -1.24564e-17)
(-0.0152691 -0.0168374 -4.66984e-17)
(2.58236e-05 -0.000525973 1.18756e-17)
(-0.0238545 -0.0146602 -2.02845e-17)
(-1.71836e-05 -7.10126e-05 1.81588e-18)
(-2.11215e-05 5.63489e-05 -1.22718e-18)
(-0.0131154 0.0168888 1.22552e-17)
(0.000104423 0.000183542 3.56463e-19)
(0.0156961 -0.00760282 6.55329e-18)
(-6.06094e-05 0.000914914 -2.2735e-18)
(0.0635613 -0.123134 -3.56728e-17)
(-1.41618e-05 -0.000346231 3.507e-18)
(0.00162589 0.00107042 -1.10516e-17)
(0.0138181 -0.0819494 -5.10332e-17)
(0.000473909 0.00541721 3.62379e-17)
(0.0189745 0.0136526 3.58144e-18)
(-0.000250718 0.000216146 3.10401e-18)
(1.23193e-05 -0.000176862 -1.9106e-18)
(0.000412887 -0.000191128 -1.33067e-18)
(-0.0889464 -0.0123182 -1.78835e-17)
(0.00472865 -0.00907982 -4.95338e-18)
(6.33437e-05 0.000558726 4.87562e-19)
(-1.37677e-05 0.000110975 2.27202e-19)
(-0.00205644 -5.19197e-05 -9.29378e-18)
(0.00100827 0.00138895 2.58364e-17)
(0.0184498 0.0152609 -1.21087e-17)
(-0.0281236 0.00627244 1.98413e-17)
(-1.55278e-05 0.000104364 3.90352e-18)
(0.000175327 -0.000752856 -6.86665e-18)
(-0.00846074 0.00756807 -2.70537e-17)
(9.41139e-06 -0.000165059 1.28202e-18)
(-0.00338876 -0.0201213 1.38758e-17)
(-0.00843297 0.00942499 4.95214e-17)
(-4.4723e-06 -0.000563618 -9.64787e-18)
(4.54901e-05 -0.000749952 -1.81877e-18)
(0.00200966 0.00135155 -3.06522e-18)
(-1.08912e-05 -0.000102702 -2.40155e-18)
(0.000761249 0.000602913 -4.8371e-19)
(0.00125917 -0.035604 -1.11003e-17)
(-0.00188967 0.00412006 1.34364e-17)
(-0.0604468 -0.0377571 4.44726e-18)
(0.000665316 0.000651274 1.46871e-17)
(0.00258495 0.00367651 3.13534e-18)
(0.00981493 -0.00442197 1.44353e-17)
(9.1027e-05 0.000255819 -5.71893e-18)
(-0.00146366 -0.0198421 -1.37926e-18)
(-0.000177787 0.000413028 -1.02667e-17)
(-5.80934e-06 0.00010321 1.50518e-18)
(0.00339863 -0.00138112 -1.25006e-17)
(-0.017166 -0.00902819 -2.17137e-20)
(9.64541e-05 -0.000339986 3.3599e-20)
(0.000111514 -0.000466955 -2.81531e-18)
(6.61837e-05 -0.000305862 3.8375e-18)
(-1.7248e-05 7.7356e-05 4.55231e-20)
(9.72969e-05 -0.000672024 8.51628e-18)
(0.000749743 6.25482e-05 8.12719e-19)
(1.19925e-05 -0.000668984 -3.16514e-18)
(-1.86149e-05 -1.7488e-05 1.48957e-18)
(-9.03511e-05 -0.000528056 -7.68979e-18)
(0.00484406 0.000966806 -6.11854e-18)
(0.0186907 -0.00810726 5.89666e-17)
(-0.000122399 2.87146e-05 1.37661e-18)
(0.00089121 0.0102551 1.67821e-16)
(-0.000541748 5.00815e-05 1.07137e-17)
(-0.0130931 -0.00105018 -4.30032e-18)
(0.0036369 -0.0132468 -6.96972e-17)
(0.00020367 0.00163245 8.41883e-18)
(0.0271872 -0.0856251 2.07649e-17)
(-0.00452857 -0.0106518 2.81509e-17)
(0.000299835 0.00142562 -2.54791e-18)
(-5.35234e-06 9.90055e-05 6.56225e-19)
(0.000180966 -0.000242099 -2.95784e-19)
(-0.0333629 -0.0588538 -7.33467e-18)
(0.0148733 -0.00762501 -3.54374e-17)
(-1.52513e-05 9.17223e-05 -6.40735e-19)
(-9.42892e-06 -0.00020333 -1.69524e-18)
(-1.97081e-05 0.000104551 9.96114e-19)
(0.00252384 0.00386527 3.41206e-17)
(-0.0120017 -0.00312405 -5.27865e-18)
(-0.137086 -0.0338693 1.92638e-17)
(0.000105687 -7.13391e-05 3.98818e-19)
(2.61225e-05 -0.000663661 6.46522e-18)
(-0.000650507 0.00109503 -7.03882e-18)
(-0.0257549 0.004817 2.20389e-17)
(0.000340705 -0.0384633 -9.67335e-18)
(-0.000208412 -4.8815e-05 8.78558e-19)
(0.00339496 0.00138595 -4.78358e-18)
(0.0103488 -0.0744045 -1.74709e-17)
(-0.120249 -0.0343347 4.61095e-19)
(0.0154949 -0.0148442 -1.00591e-17)
(8.54792e-05 -0.000219226 1.36813e-18)
(0.000442634 6.66074e-05 -5.53959e-19)
(-0.00658237 -0.0228492 -3.07287e-17)
(0.000195528 -0.000673829 1.18433e-18)
(-0.0114804 -0.00539799 -3.09391e-18)
(-0.0394118 -0.0144385 -1.53469e-17)
(2.78308e-05 0.000532529 -1.54621e-18)
(-0.00631332 0.00706721 8.21526e-18)
(0.00354924 -0.0030469 1.37103e-17)
(0.000247372 -0.0280903 1.33358e-17)
(0.000413428 -0.000195406 -5.91547e-19)
(-0.0193447 -0.0256467 2.46566e-17)
(0.0117402 -0.0247749 -1.51474e-17)
(0.00542315 0.00481816 -5.38418e-18)
(0.00145473 -0.0399898 1.57613e-17)
(0.000188652 -0.000646699 1.33801e-18)
(-0.0180107 0.00735873 1.22328e-17)
(-2.82166e-06 -0.000364776 2.16251e-18)
(0.000277746 -0.000507885 1.91215e-18)
(-1.3037e-05 9.02125e-05 8.92587e-19)
(0.000122949 -0.000828431 -9.19298e-19)
(-0.0465184 -0.0238327 4.03932e-17)
(0.000255702 -0.000618829 -2.18683e-18)
(0.000482307 0.000937127 -6.63089e-18)
(-0.000103463 -5.59233e-05 6.25025e-18)
(2.34299e-05 0.000822239 -9.25285e-19)
(0.000447657 4.79685e-05 1.26231e-18)
(-0.00309943 -0.00651189 -7.87553e-18)
(4.12738e-05 -0.000697895 -1.25891e-18)
(0.010701 0.000693603 7.34162e-18)
(5.64921e-05 -0.000248566 -2.67306e-18)
(4.90237e-05 -0.000225665 -3.78207e-18)
(-0.000978641 -0.0163681 9.53796e-18)
(0.000699672 0.00495937 4.77655e-18)
(-0.000165244 -2.1145e-05 -2.06048e-17)
(0.00732482 -0.0658515 9.96534e-19)
(0.00453702 0.000948197 3.02824e-18)
(0.000173078 -0.00037292 7.18075e-18)
(-2.48266e-06 -0.000915091 -3.28427e-18)
(0.000764631 0.00065544 -6.16489e-19)
(-0.0239483 -0.00041536 -8.20032e-17)
(0.000415056 0.000977498 1.49032e-18)
(2.24336e-05 -2.604e-05 -9.29553e-20)
(-0.0202232 0.000745435 1.92228e-17)
(-0.0911556 -0.0141797 3.56407e-17)
(-0.0032481 -0.00225325 -2.4287e-18)
(0.000234709 -0.000444074 1.29881e-18)
(-9.79102e-07 5.48065e-05 -9.71479e-19)
(0.00165215 2.26211e-05 -2.09191e-18)
(-9.31478e-06 0.000106527 2.28874e-19)
(0.0109616 -0.071712 -7.9023e-18)
(3.86246e-05 -0.000226083 -8.10378e-18)
(0.0880436 -0.05549 -3.00073e-18)
(0.00422077 0.00266417 -8.05384e-19)
(0.00404833 0.0114819 -6.9668e-17)
(-4.41871e-06 0.000102973 8.51892e-18)
(-3.39538e-05 0.00323235 9.77452e-18)
(0.000190735 5.76811e-06 6.71106e-20)
(-0.0134859 -0.00756384 4.71e-18)
(0.000177511 -0.000707648 -2.18996e-18)
(0.0279485 0.00443226 -1.50907e-17)
(-0.00236522 -0.0194668 -1.31443e-17)
(-6.90553e-06 -0.00030087 -8.65054e-18)
(-0.112209 0.00300657 3.34669e-17)
(0.000185416 -0.000558679 3.17591e-18)
(-7.32281e-06 4.4711e-06 3.24243e-18)
(0.000289376 0.000466614 -5.22585e-19)
(-0.0591026 -0.0394203 -2.91607e-18)
(-0.00519051 -0.0218742 -2.60746e-17)
(0.000197576 -0.000303773 5.2183e-18)
(0.00374549 -0.00328875 -2.55557e-17)
(0.000281513 0.00107825 -1.54826e-18)
(0.013233 -0.0798959 1.51503e-17)
(-0.000112425 3.68316e-05 -1.77211e-18)
(-0.00114429 -0.00719473 5.05771e-18)
(-0.0206694 -0.0246929 1.03924e-17)
(0.000176399 0.000347594 4.12106e-17)
(5.19672e-05 -5.033e-05 1.31907e-18)
(-0.00287515 0.00175262 1.65011e-17)
(-7.75589e-06 2.87754e-05 -1.70022e-18)
(0.00177517 6.3561e-05 1.0312e-18)
(0.000901904 0.000456395 -3.01129e-18)
(0.0190857 -0.00709247 -3.93416e-17)
(0.000142065 -0.000184091 -1.1813e-18)
(0.012614 -0.0821782 -3.83058e-18)
(4.07575e-05 -0.000214973 1.83085e-18)
(0.000309759 -0.000384153 9.94812e-18)
(0.0129446 0.00305418 1.31806e-19)
(-0.0051126 0.00295243 -1.76349e-17)
(0.00820885 -0.0142736 1.9286e-17)
(0.000734235 0.000175553 -3.20341e-19)
(0.00375451 0.00485739 1.24048e-16)
(0.000252951 -0.000499203 -2.05472e-18)
(-0.0129622 -0.00327115 3.52496e-18)
(9.6601e-05 -0.000645521 6.99116e-18)
(0.00189547 0.000957813 -7.86924e-18)
(0.000198349 -0.000626829 -5.9529e-19)
(3.95328e-05 -0.000232118 1.12881e-18)
(-1.36955e-06 9.20704e-05 2.17586e-18)
(-0.0136076 -0.00296105 1.30698e-17)
(0.0129317 0.0126496 1.05009e-17)
(-0.120854 -0.00234947 -4.50755e-17)
(0.00747353 -0.0162485 -7.36913e-18)
(-0.0009153 0.00135339 -2.3546e-17)
(-0.00238197 -0.000589268 -6.08842e-18)
(-0.0130717 0.014931 8.11615e-18)
(0.00301517 -0.00106982 1.06313e-18)
(0.010651 -0.0685418 3.25412e-17)
(-0.0576098 -0.0386592 1.16126e-16)
(-0.0147043 -0.00664186 -1.09054e-17)
(-0.110567 -0.0154337 -1.21048e-16)
(-0.0115146 -0.0148048 -8.62708e-18)
(-0.012354 -0.00573045 1.70485e-17)
(0.00182959 0.000138054 5.4813e-18)
(-4.18649e-05 0.0103205 -6.95677e-17)
(0.0130808 0.00387653 -8.51193e-18)
(0.00175152 0.000886204 7.22426e-18)
(-0.0157787 -0.00721411 2.10181e-17)
(-4.46124e-06 2.81336e-05 1.31717e-18)
(-0.0140106 0.00427 7.25968e-19)
(-0.00286006 -0.00245225 -2.51664e-18)
(0.0140741 -0.00815798 -2.70883e-17)
(0.000375926 0.000460944 -2.24607e-18)
(0.0049806 -0.0184187 3.48589e-18)
(-0.079628 -0.038339 2.59397e-17)
(0.0120883 0.00283071 6.35523e-18)
(0.0145529 -0.00863236 9.52624e-17)
(-1.03837e-05 0.000137195 -1.09764e-18)
(-0.0178104 -0.00165319 -5.80887e-18)
(0.00011212 -3.61473e-06 1.73098e-17)
(0.000177763 -0.000729253 -2.68232e-18)
(0.000226251 -0.000311828 8.8462e-19)
(0.0012454 0.00519005 -3.33586e-19)
(0.00449696 -0.00849159 3.52074e-18)
(-0.00369619 -0.0237287 -8.27433e-18)
(-0.0127366 0.00244376 2.54891e-18)
(-0.0669352 -0.00658406 -4.96063e-18)
(0.00270446 -0.00106345 -6.23489e-18)
(-0.000341931 -0.000451352 1.08148e-17)
(0.000745024 -0.029491 -5.77561e-18)
(0.00122435 0.00810451 -1.84942e-18)
(0.00313072 0.00107779 -2.90577e-18)
(0.0122361 -0.00665144 -4.72701e-17)
(-2.49526e-05 -0.000236232 -5.29933e-18)
(-0.00498336 0.0174861 5.159e-18)
(0.0188068 -0.0861864 6.38229e-17)
(3.70053e-07 -0.000587653 9.6082e-18)
(0.00161201 0.00423734 -3.91389e-18)
(-0.00817942 0.00666635 3.96129e-17)
(-0.07258 -0.0455645 -8.63935e-18)
(0.000126118 -5.75691e-05 -6.59444e-19)
(-0.000695462 -8.32594e-05 -1.24017e-18)
(-0.12518 -0.00895275 -7.4996e-19)
(0.00729501 -0.000225889 -1.4264e-18)
(-0.098944 4.84378e-05 2.95955e-17)
(0.0276075 0.00272325 -1.17812e-17)
(-0.0125098 -0.0298658 4.59686e-17)
(-0.000791986 -0.000759864 -7.72443e-18)
(0.003013 -0.00130257 2.73655e-18)
(0.00103323 -0.000135364 5.37494e-19)
(6.18437e-05 -0.000674305 9.44973e-19)
(0.03797 -0.00874265 -1.15143e-17)
(-3.03158e-06 4.70381e-05 -5.37323e-18)
(0.0398447 -0.00920171 4.79774e-18)
(0.0114047 -0.0165086 1.32615e-17)
(-0.00685986 -0.00805534 2.4325e-17)
(-2.35002e-06 1.42884e-05 2.86016e-19)
(-1.12896e-05 4.03069e-05 6.27318e-19)
(0.00254381 0.00432657 -5.57302e-18)
(9.84823e-05 0.00267627 4.45668e-19)
(0.000208905 -1.11995e-05 3.51462e-19)
(0.00015809 -0.00049628 2.27132e-18)
(0.00685435 -0.0154224 4.30714e-17)
(-0.0355715 -0.0614821 -2.89431e-18)
(0.0106914 -0.054102 -1.26339e-17)
(-2.08755e-06 2.48734e-05 1.21999e-18)
(-0.0150491 -0.0139984 -7.81294e-18)
(0.000183821 -0.000477767 8.02185e-19)
(-0.0558828 -0.0414085 3.63877e-18)
(0.0139019 -0.000966554 1.86556e-17)
(-0.00191395 0.00228763 4.22093e-17)
(0.000797448 0.00139622 -1.56505e-17)
(0.0130837 -0.0235946 4.12793e-17)
(0.000223636 0.000133039 1.01072e-19)
(2.28821e-05 -0.000477334 -2.91872e-19)
(-0.00277161 0.00141482 1.34797e-18)
(0.000195281 -0.000673239 1.48881e-18)
(0.00158151 3.30544e-05 -1.2306e-17)
(0.010296 -0.00827927 3.79678e-17)
(0.0041932 -0.0382804 -1.88586e-17)
(0.000299593 0.000648216 -4.4382e-18)
(0.0356986 -0.0106057 6.8736e-17)
(-0.00219456 -0.0370113 -2.80159e-18)
(0.00408231 -0.000742592 -1.22515e-18)
(0.0207359 -0.113531 -2.99765e-17)
(-0.003708 -0.0365665 -6.12174e-17)
(0.00078766 2.89535e-05 -5.82407e-19)
(0.00649118 -0.00958787 2.97056e-18)
(0.0062588 0.00527326 6.15578e-18)
(0.000951444 -0.000267037 5.92013e-19)
(0.000279547 0.000436202 9.22257e-19)
(-0.00210897 0.00530386 4.60186e-17)
(-0.000366144 -0.0397858 -1.54736e-17)
(-0.0741672 -0.0111424 -3.44361e-17)
(0.000110807 -0.000318846 -4.64525e-18)
(1.92378e-05 -0.000804349 -4.06263e-18)
(0.000417919 0.000374967 6.54279e-19)
(0.0017145 0.00706309 9.98456e-18)
(0.000102073 -0.000740761 -5.8623e-19)
(-0.000283333 -0.000883944 -3.52088e-18)
(0.00586769 0.00951365 5.73027e-17)
(0.0141339 -0.000352901 1.20268e-17)
(-2.06148e-05 -2.96071e-05 -2.81811e-18)
(-0.0509443 -0.0338235 -1.12161e-16)
(0.00731583 -0.000999802 7.4239e-18)
(-0.00101922 0.00104701 1.9895e-17)
(0.00157182 0.000125641 9.64062e-18)
(0.00199576 -0.000548391 -6.7963e-18)
(0.00386872 0.00130206 6.5468e-18)
(0.000173531 -0.000102743 -4.92328e-19)
(-0.00654165 -0.00860965 4.95119e-17)
(0.00118997 0.010603 4.31338e-17)
(6.44398e-05 0.000614688 2.57719e-19)
(1.60663e-05 -0.000640293 4.58138e-18)
(9.29988e-05 -0.00085643 -3.87516e-18)
(0.00479316 0.00489837 6.64693e-18)
(0.00021729 0.000130582 4.23996e-19)
(0.0122157 0.00214122 -2.81112e-18)
(0.0305751 -0.00754742 2.77604e-17)
(0.000353915 -0.000460538 6.01961e-18)
(0.0198607 -0.00699483 2.89422e-17)
(0.00291482 0.00102057 1.34138e-18)
(0.00144685 0.000171749 1.0271e-18)
(0.00687428 -0.0112043 1.54358e-18)
(-0.0385202 -0.039354 -2.41692e-18)
(0.0233991 -0.0203896 -4.84751e-19)
(1.53677e-05 -0.000392134 9.53133e-19)
(6.61223e-05 0.000704928 -1.25917e-19)
(0.00607041 -0.0341452 -1.06547e-16)
(-0.000142446 0.000337796 1.72045e-17)
(0.0471921 -0.0159939 -7.83608e-18)
(-4.63101e-05 0.000599636 1.46369e-18)
(0.000170367 -0.000535112 1.76272e-18)
(-0.000865624 -0.000571126 8.73805e-17)
(0.104152 -0.0639945 1.78824e-17)
(0.00368842 -0.00414787 7.78999e-18)
(0.0166877 -0.00774434 -1.95785e-17)
(0.000548921 0.00414121 2.56648e-17)
(0.000251965 -0.000532738 2.62993e-18)
(-1.5268e-06 1.30155e-05 -1.82984e-18)
(0.000830853 -0.000269255 -1.30559e-19)
(-0.0565988 -0.0283243 -1.02595e-16)
(3.11746e-05 -3.47249e-05 -5.21489e-20)
(2.31453e-07 3.62799e-06 -1.13428e-18)
(0.000501771 -0.0225444 3.42787e-18)
(0.000336436 0.000519147 1.74162e-17)
(0.00107196 -0.0260903 1.03552e-17)
(0.000439194 0.0012769 5.19849e-18)
(0.000209332 -0.000441283 1.7046e-19)
(-0.0331042 -0.0364831 2.0068e-17)
(-5.41348e-06 6.93462e-05 -5.34809e-18)
(0.000121318 -0.00064547 2.2062e-18)
(0.000798562 -0.000246848 -1.10142e-19)
(-0.00182324 -0.000653476 -1.17145e-18)
(-0.0012305 -0.0151925 2.93307e-18)
(-2.84868e-05 -1.04864e-05 3.49758e-18)
(-2.0032e-07 -0.000925833 3.8004e-19)
(0.00019173 -0.000652489 -5.874e-19)
(0.000252582 -0.000592755 -3.05419e-18)
(0.000200669 -0.000465751 7.21622e-19)
(0.00105257 -0.000178335 -1.28478e-19)
(-0.123123 -0.00849977 1.05872e-16)
(-0.00197865 -0.000574338 1.08104e-17)
(-0.000129396 -0.000461734 -2.6191e-18)
(-1.60491e-05 -0.000181959 -3.51449e-18)
(-0.00198442 -0.000335262 9.88847e-19)
(0.00738567 -0.0102204 2.35086e-17)
(0.00536406 0.00581166 7.95514e-18)
(0.000509211 0.000619725 -7.0561e-18)
(-3.9498e-07 6.68231e-06 6.09697e-19)
(0.00039421 0.00037542 9.2622e-19)
(0.000470412 -0.00135728 6.73107e-19)
(-0.00444856 -0.0210804 -3.57859e-18)
(0.0108425 -0.0965359 -4.40535e-17)
(0.00224011 0.00367119 -6.22332e-18)
(-0.0738295 -0.0123633 4.04173e-17)
(-1.17382e-05 0.000141516 -4.11921e-18)
(-0.0006663 -0.000686783 1.50315e-17)
(-0.0105305 -0.024957 5.12537e-17)
(-0.00069828 0.0101586 -1.05867e-16)
(0.000818392 0.000204051 5.19362e-19)
(-2.09338e-05 4.07941e-05 -1.41906e-18)
(0.0023737 0.00817159 -1.1715e-17)