/*--------------------------------*- C++ -*----------------------------------*\
| =========                 |                                                 |
| \\      /  F ield         | OpenFOAM: The Open Source CFD Toolbox           |
|  \\    /   O peration     | Version:  v2012                                 |
|   \\  /    A nd           | Website:  www.openfoam.com                      |
|    \\/     M anipulation  |                                                 |
\*---------------------------------------------------------------------------*/
FoamFile
{
    version     2.0;
    format      ascii;
    class       volScalarField;
    location    "650";
    object      omega;
}
// * * * * * * * * * * * * * * * * * * * * * * * * * * * * * * * * * * * * * //

dimensions      [0 0 -1 0 0 0 0];


internalField   nonuniform List<scalar> 
9793
(
0.0224612
12.5962
0.0219346
2.54692
0.02226
0.223504
0.0875864
6.92465
0.0221664
20.82
0.0221974
0.0221883
0.0219139
1.56587
0.0217993
0.025903
0.0553717
0.021928
2.04243
0.0215678
0.0216325
0.0222917
2.49778
6.96385
1.63399
0.0269037
0.0221002
0.0222621
0.0215782
0.084379
9.1536
0.416143
0.0220097
0.0219401
0.0218676
0.0288158
0.0241673
0.0251645
1.35011
0.0315208
0.0723921
8.63155
5.59856
0.0222717
0.0219634
0.0220427
7.00393
0.0222844
0.021702
0.0219348
0.0284531
0.0218503
0.0388681
0.0222688
0.0335905
2.11498
0.0219233
0.0951269
0.0217089
0.0222914
0.0273516
0.100584
0.0219485
0.0356276
0.0219632
0.0220931
29.6871
0.024251
0.024536
4.22817
0.0220034
0.104844
6.59733
1.27114
5.58848
0.0222627
0.0472007
11.1017
0.0219803
0.0222707
0.0498941
1.97808
0.0534831
0.0241802
0.0246101
0.268949
0.0222614
0.0726028
1.36231
0.0966425
1.74951
1.62592
1.70567
0.0421059
5.09329
0.0219026
6.46599
0.0518247
0.0249027
0.0222687
1.31193
0.0369178
3.40848
0.0219684
3.81612
11.0875
0.854403
0.0218764
0.0219845
0.0222835
0.0222338
2.06028
3.28278
8.55905
0.0219764
0.0221134
0.0237537
0.0220503
1.76264
0.0220289
2.99389
0.0777422
8.6125
0.0441772
0.0242132
0.0220347
0.0633608
7.32114
0.17392
0.177189
0.0236822
0.0218079
0.022354
0.0234059
0.0276107
0.173298
0.523592
0.0238029
0.0222737
0.064067
2.15204
0.0278844
0.0219644
0.0588456
7.02896
0.645612
0.0220357
6.26904
0.0218059
0.0220297
0.0220698
14.2877
0.0244092
0.0220928
0.0219273
1.41644
0.0592419
0.021943
0.589944
0.0219285
0.0684242
0.0238018
0.021639
0.372706
0.0220338
9.95226
2.87126
0.022215
0.0218777
0.0222179
0.0219803
6.68545
26.8138
1.75769
0.0219074
0.201678
0.145276
0.764848
0.0219647
0.0241715
4.55233
7.96423
0.0835066
0.0220355
0.0220731
0.021871
8.75957
6.25824
22.4047
3.60051
0.0220229
14.1279
0.444808
0.0256879
0.0217356
0.0234809
2.025
0.0216045
0.0219252
0.0222049
0.0220271
0.02163
0.0296551
0.0249446
1.59966
0.0219373
0.028595
0.0222107
0.0224223
0.514372
0.0611242
2.37125
0.0216411
3.45536
0.0242091
0.042533
0.0218149
0.167251
0.0221223
0.0515089
0.0557685
0.0216336
1.40352
1.98308
0.0402448
0.0218916
0.0538848
2.08695
0.0507201
0.0515503
1.45689
0.134686
0.0400039
0.0364151
0.388405
0.021596
4.39844
7.34934
0.0216102
0.022223
7.39201
0.0219144
0.0222315
0.112852
0.125008
0.0220886
0.0241946
0.029793
0.0389743
0.0242152
0.0219711
0.0453028
2.94378
0.0216318
1.81215
0.0222623
0.0221711
0.0216667
2.01546
0.0219806
3.64029
3.06442
0.0221041
0.0221321
3.8117
0.0218437
0.0222402
0.0218161
2.62294
0.278179
0.0252288
0.471602
0.0893895
3.09698
3.53483
0.0222443
22.7624
0.0222645
2.0045
7.73692
1.41775
3.17197
0.129916
0.0236899
0.048867
0.0246013
0.0217626
0.0222796
0.487411
0.0270784
0.0221407
0.0222838
0.0216389
0.0217099
0.0216351
2.26456
0.0218669
0.0217926
0.0219313
0.0219162
5.37113
0.623355
0.0653925
0.0229938
0.0595283
0.0220565
0.319587
10.4398
0.0219738
3.83557
0.0336861
0.0219573
19.6698
0.40126
0.0220176
0.0476907
13.1274
0.0222034
0.0344574
0.0217902
0.0222961
1.84514
0.0419273
0.0219493
0.0220218
0.0228565
0.185242
3.31193
0.0219387
0.0218703
0.0217422
7.37526
5.23933
7.15585
0.0215919
0.0444255
0.0353274
2.21949
0.0728877
0.0215926
0.0216405
0.021743
0.0474463
0.022128
7.44864
0.0220884
0.0217857
3.10016
2.16791
2.66971
0.0217911
1.30482
0.0249731
4.10665
7.28705
1.53275
0.0238071
0.0327816
0.601902
1.61585
1.98083
0.0267601
0.0222635
0.0256189
0.021674
0.0218516
0.0221052
0.0220822
0.022292
8.43732
0.0222073
0.0637299
0.0311215
4.3247
0.0215894
0.0242705
5.44964
0.50797
1.60202
0.0708652
0.0217878
0.0238868
0.0219379
0.503924
0.021575
2.45639
0.167934
0.0881044
6.09033
1.89005
0.0221381
0.0218899
0.71234
0.437204
0.021936
6.54684
0.0221321
0.0221767
6.75666
0.0216395
0.0969854
0.0216053
2.57335
0.0220939
0.0220418
2.98841
0.0986277
0.0544611
0.0256821
0.0220752
0.0218476
8.07692
0.051667
0.0215783
0.0221955
0.0348925
0.0354179
0.0536532
8.02987
0.0221966
0.0219367
0.34765
0.0220818
2.48326
0.750235
0.0220649
0.0220145
0.0222564
0.0221172
0.0217271
1.32027
0.0520041
6.92653
0.0293064
0.0230535
0.0443837
0.0248702
1.62717
0.0265779
0.0222679
0.0242595
0.544933
0.0219654
0.0219332
0.0220013
0.0215778
0.0219833
0.0218156
0.0220441
0.0221583
0.0230129
0.0245633
0.111983
0.0220132
1.5036
0.025937
0.227253
4.37226
0.0217678
3.39756
0.0855908
0.0217437
0.0215779
0.0219757
3.94259
0.0912792
0.0215748
0.0221211
0.0221982
0.0688288
0.162343
11.0297
0.0219767
0.0219287
0.0321112
7.28831
1.38413
0.0238831
0.0231298
1.91725
9.71789
0.237003
0.0222593
0.0217969
1.49252
0.0219073
0.143058
5.51912
0.0215676
0.241673
0.0273634
1.31991
0.0218465
1.77973
0.322214
0.0254725
2.98837
0.0219052
2.00057
0.022095
0.0218859
0.0222237
0.021942
4.38421
0.0218979
0.0216964
0.0229582
0.0216006
0.0217974
0.0475602
0.0229254
0.0350016
0.0220343
0.0220386
4.32589
0.0764093
0.0238307
1.83964
0.024164
0.0222652
0.0219851
0.0217256
8.94209
0.0216867
0.0220696
9.49963
7.97772
0.0397769
0.0219218
0.0222842
0.0221178
0.0222414
1.71199
0.0222521
4.15983
0.0239086
1.83106
0.0222623
22.5844
0.0222343
0.24259
0.0219134
0.0894886
4.44996
0.0221036
9.48375
0.0219057
0.0222182
0.0216228
6.10128
1.65137
0.0219828
0.0282314
0.0216814
1.88221
0.0218808
0.0460444
1.67536
0.0254794
0.022027
0.0465196
0.0222452
0.0221579
0.021761
0.104562
0.0219556
2.1434
0.0220523
0.0221454
0.0399962
0.0787841
0.689987
0.0217803
20.6467
0.0218857
0.214468
0.0219215
0.0221633
0.0219029
0.0220502
0.0222683
0.231475
0.0405118
9.71367
0.119545
0.0358476
0.0348396
5.33295
0.0237089
1.64554
4.23154
0.281244
12.5715
3.02093
0.190535
0.0221633
3.42247
0.039498
0.0220833
0.381487
0.022251
0.484301
0.036573
0.223456
0.02795
1.89133
7.72771
0.0373861
0.204071
0.0222168
0.684877
0.0229602
0.0219161
0.0221112
0.0230986
0.0476188
1.3958
0.293506
7.06891
0.0234164
0.0236163
1.31486
0.365164
0.0229225
0.0650233
0.0224502
4.92619
3.1924
0.0220587
0.0656518
0.307606
8.17151
0.0219581
0.0261119
10.1383
0.0288331
8.94396
0.0922353
3.20433
0.0259949
0.0238382
0.0219302
0.0219262
0.211558
0.0222843
0.221428
0.143271
0.0844833
0.0222596
0.0222241
0.0232476
0.0220063
0.0218321
0.0219157
0.108426
4.17503
1.67395
0.0222797
0.365774
0.0219474
4.38955
0.048695
0.0480898
0.0346732
0.303499
0.0217497
0.0220603
0.0442553
0.0219069
0.022064
0.0633187
1.38056
0.0216292
0.198955
1.44139
0.0244684
1.87244
1.49058
0.021831
0.0564578
0.0265736
0.022018
0.0216207
0.106146
1.44986
6.89311
0.0219853
0.0220165
0.0216691
0.0240207
0.022958
0.0240199
0.586026
0.0483534
0.0221522
6.36722
0.0297697
0.0341242
0.0220208
21.3751
0.0235127
0.0219176
0.08719
2.12742
0.0215827
0.0220502
0.0219442
0.0249478
0.0217454
0.0384273
0.580084
0.0222391
0.103975
0.0227532
0.0219728
0.902981
3.01253
0.277451
0.0220753
0.0215939
3.54897
0.0261609
0.478342
0.0215622
0.0219091
7.79908
3.96125
0.030445
0.103382
0.0642926
0.0218883
0.0222717
0.0219768
3.99268
0.0220577
0.0222928
1.50095
0.0277627
0.33605
0.0333347
0.0219328
2.65714
0.0222682
0.0219148
0.0219671
0.031067
3.32529
0.0221631
0.0219739
0.0219051
0.0218947
0.0219389
0.0219479
14.0078
0.0321143
0.0229284
0.0221109
0.0321413
0.0637568
0.02578
0.0288274
0.0222839
0.0216625
0.0234474
2.03552
1.84612
0.0228982
6.78966
0.022216
0.02556
1.35681
2.16657
0.0217845
0.0221814
0.348867
0.0538104
0.0219066
0.022249
2.19024
0.0222682
0.0722162
0.0220092
0.634822
0.0222479
0.0222675
0.0221276
0.0312843
0.0219693
0.0247551
0.0263788
0.166714
0.0218615
0.0219945
0.0222498
0.0218814
0.0221173
0.0219061
0.0314492
0.0221117
0.0545131
1.67164
0.0439975
0.0665517
0.0222028
0.0217598
7.58115
4.95308
0.0216112
1.81198
8.81874
0.0215993
0.0219695
0.0218758
0.101794
0.0567643
2.38974
0.0218555
0.0253337
0.0218581
0.0223479
0.0222595
0.0899361
0.0220943
0.274677
0.022094
0.0598537
0.0218917
0.0232693
0.0219178
0.0376584
0.0614439
8.21049
2.90893
1.87502
0.0500293
0.0219112
3.01317
3.74484
0.0651833
0.0220093
0.0220858
2.01564
0.0218688
3.09384
0.0216092
0.0293012
0.022154
0.0222699
0.0217934
8.1125
4.02921
2.78223
0.0739074
6.08091
0.0219474
3.05268
11.1597
0.0222705
0.0221286
0.0217311
1.30996
0.021563
7.42183
0.0329297
0.15338
0.0223183
1.08572
11.3433
1.70071
0.0299104
0.0327624
0.0220413
18.5361
0.0215435
0.608652
0.239642
0.0710349
10.6989
4.43648
0.0238266
0.0235168
0.0219486
0.0955715
7.26665
5.62966
0.021745
3.90839
0.0253115
0.123578
0.125302
1.39367
1.43691
0.0216358
0.0263126
0.0307797
0.0238832
0.0234473
1.91335
0.0221979
11.8407
0.0218051
0.0216176
0.0826643
0.113735
0.975731
0.0225801
23.3383
15.074
0.704136
0.0271604
0.0222331
0.0225868
0.022227
0.0219231
0.946307
0.412692
0.0221905
0.0219232
0.0320791
1.71107
0.0261929
0.021929
0.450823
0.0219362
0.022275
0.0215528
0.0632938
0.0220297
0.0246373
3.89964
0.0636643
0.0222929
4.23429
0.133583
0.0219314
0.0227281
0.0348341
0.0222624
0.0219625
0.0217598
13.1426
0.244686
0.0222703
0.0364865
0.0368074
0.677986
0.0219621
3.40285
0.0218601
0.0217525
0.658508
0.267098
0.0689733
0.02208
0.0218913
7.72275
1.33709
0.311314
2.86218
0.0221037
0.0232782
0.022014
9.57489
0.0244602
0.604089
0.0227955
0.0219485
0.0232285
0.0216851
0.0218741
0.0663308
0.0217829
3.3265
0.0218167
0.0222423
0.0215707
0.024568
1.58078
2.69888
0.054826
6.61412
0.0219784
0.0366786
0.0231236
8.29119
0.0217858
0.0216264
3.68612
0.0352236
0.0333157
0.0221128
0.217568
8.1361
2.21175
0.0221894
0.034996
0.914995
0.0313805
1.15698
0.133471
0.0854588
0.0217702
0.022653
0.0650019
0.0791482
0.0219859
0.0979922
0.0217386
0.022184
0.0223273
0.021778
0.021912
0.0219923
0.808944
0.026006
0.0229344
0.047322
0.0217549
0.0219287
0.0388364
2.99842
0.0866237
0.0638751
1.86636
0.0222341
9.27302
0.0296745
5.5949
0.0636493
0.0222026
0.0220505
0.0234054
8.41635
1.76532
0.0522922
0.165303
0.0216599
0.0219291
0.0222484
0.0222019
9.13235
0.0257613
0.021945
0.169474
0.292936
7.40253
0.0227316
3.47629
0.0569605
0.0418712
0.0321946
0.43284
0.265832
0.0223012
1.44789
0.273842
0.0394092
1.97397
0.0472225
0.0221655
0.0222638
0.0219168
0.0232861
0.0274782
18.4555
0.0528905
0.02187
0.352362
0.0220033
4.34894
3.37014
0.0219538
27.8276
0.0218081
0.0217578
0.0219517
1.48395
15.1938
0.0510818
0.0316982
0.0216959
0.586859
0.0222313
0.0313102
0.0220915
0.0221808
0.0218997
6.55917
0.0229146
0.0428418
0.0293405
0.0222119
0.372208
0.143286
0.0343716
0.0256299
0.0236873
1.56753
3.01159
0.0218339
0.0217738
0.0218318
0.022668
9.06506
13.2251
0.229424
0.0259032
0.0217882
10.7626
3.13906
0.0222614
22.5896
0.0217155
0.0895573
11.7497
0.0217458
9.38723
8.05671
0.135116
7.55381
6.98018
0.0218621
0.0227737
2.49797
1.35878
0.022646
5.80056
0.025095
0.021912
0.0222739
0.023028
0.0416301
0.0253643
0.32452
7.78269
0.238533
0.0347937
0.0220794
0.0625147
2.18986
0.0217698
3.63472
0.0490626
0.0222202
0.0248544
0.0222418
0.0222584
0.031955
2.29122
0.0223578
0.0217908
5.61679
1.37229
0.0742645
0.0222616
0.057913
0.0219289
0.0219312
4.92048
8.98688
0.0219204
0.021496
2.69389
4.5417
0.0498197
0.0223198
10.8875
0.022601
0.0219257
0.0233031
0.0219315
0.0216535
0.0216279
10.5046
0.189403
0.0262138
1.58792
0.0473154
1.32059
10.1116
1.6722
0.164279
0.0219501
0.022239
0.0222495
0.0219927
0.0774616
0.0218794
0.112897
0.0297434
1.11461
0.0220459
1.44053
0.0367703
6.11742
0.0219247
1.75181
0.0300284
0.183214
0.280891
0.0314378
0.0216248
10.817
0.0586489
1.81104
0.0216091
6.61523
0.0220248
6.47308
0.534731
0.0440798
0.0219219
0.0220887
1.67554
9.04743
0.0321728
0.0215709
0.445032
0.0895144
0.0467707
3.87225
0.0817723
0.0219518
4.7368
0.0219195
0.0335958
0.0216156
9.45458
0.0216221
0.0230848
0.359505
3.54301
0.0222224
0.0706391
0.0240786
0.0813528
0.0218777
0.363296
0.0235544
0.0660045
0.0219648
0.0219853
1.87027
0.028758
6.7789
4.87626
5.7346
0.0228235
0.0216393
0.0217698
0.02579
0.038105
0.0320467
5.31451
0.0235196
0.243241
0.0428369
0.0222811
0.0219718
0.0734458
0.409925
10.4748
0.0219127
1.51212
0.0218612
6.72429
1.49917
0.0490017
0.0219969
0.0217359
0.0439792
1.9104
0.0244704
0.0222688
0.023289
0.0466773
0.0226165
1.5897
1.94484
3.909
0.0221569
0.0265011
11.6289
0.0221877
0.0632096
0.0218193
0.858665
0.0371479
0.0219503
0.0443053
0.191593
0.0218715
2.42114
0.0219163
0.148891
0.267364
0.459841
0.329223
0.0221674
0.022254
19.943
0.0222152
0.0407197
0.0869893
0.0235357
0.0215346
11.3725
0.0250979
0.408735
0.0229175
0.0681436
0.0226307
0.412694
0.0255169
0.0247545
2.88041
1.25952
0.0220895
0.0222731
0.174324
1.80127
1.92512
0.844991
0.0292496
0.0219271
0.0218126
1.55374
0.0221389
6.97538
0.104561
1.86457
0.0221072
0.0217218
0.0217941
0.0441045
0.0460901
3.70225
1.38857
1.1653
0.235614
0.0216105
2.50094
0.0231382
0.0669644
0.0227546
0.041193
0.0620821
0.0219272
0.0215804
0.0683935
0.0216416
0.0400187
0.0721368
3.27308
5.27359
0.0375712
1.48863
0.0217461
0.0216335
0.0220746
0.203365
0.0635348
0.0476538
0.120768
4.49875
0.0402354
0.163557
0.0218234
0.0222036
14.901
0.0219014
0.301566
0.0214744
0.0218708
1.76265
0.350397
0.0218782
0.0846714
0.526086
4.34494
2.38352
0.0253319
0.0709063
0.0517198
5.16118
0.0221033
6.24602
5.95925
0.0238568
0.0252404
0.0216161
0.530932
0.0217108
0.021985
1.48342
0.0222931
0.0215694
0.221914
0.0623121
1.35097
1.35113
3.32103
1.71454
0.0216132
0.0219131
0.0218838
0.022206
7.6969
0.0221192
1.65507
0.0231205
6.63891
0.0246811
0.022165
0.0216845
0.0222899
0.0307475
0.0220023
0.0215249
0.337996
0.0218253
0.0540503
0.0225571
8.41781
0.0247114
0.0220787
0.0218699
0.0556266
0.0219044
0.0217613
0.022089
0.0222153
0.023782
0.0218687
0.0235204
0.032032
4.72156
6.15784
6.5601
2.40146
0.0217708
0.022005
0.0219283
0.0214365
0.021932
0.0217384
0.169667
0.021867
0.0222519
0.0220691
0.0220415
0.0219604
7.38095
0.0235392
0.0219688
19.5987
0.0454166
0.0217133
7.76658
8.54323
0.022019
0.487249
0.758296
0.0220925
0.0469005
0.0241438
0.0215646
0.0277695
0.0221057
0.0400255
0.0220126
0.0222477
0.0217499
30.1833
0.0277231
0.0467525
0.0220327
0.0222655
6.89311
0.0260327
0.0220355
0.0239783
0.0243284
0.022252
0.236468
11.5505
1.33057
1.4955
0.232911
0.0381766
0.0222598
12.9781
0.17538
0.0228555
0.0630111
0.0222932
0.021903
0.0222467
1.9108
0.0474808
0.0219967
0.0220404
0.200316
0.0217335
0.470835
0.0219856
1.89647
0.256673
1.40069
0.0220794
0.0233547
0.0322806
0.0362121
0.0223248
0.0396683
0.0885594
2.06043
0.022018
0.491153
10.7942
0.021572
1.55517
0.0444535
0.340359
0.113689
0.0219199
0.0281846
0.0424038
0.0216876
0.0251697
0.0215507
1.23538
1.91528
0.0332675
0.021826
0.163994
0.0765493
2.85319
0.295368
0.0234886
0.0281644
0.0219487
0.0219493
0.0424395
0.0532049
19.9383
0.021821
0.458463
0.0226502
10.3273
0.195955
2.36895
0.0216068
0.0230688
1.97516
1.79195
0.0439927
1.89821
0.0226059
0.26602
0.0219115
0.0218665
2.58866
0.296708
0.0240807
0.0220942
0.0776977
2.15817
0.196418
0.0685213
0.0217757
0.0220127
0.0217178
2.37212
7.84575
0.0217652
0.0472548
1.57559
0.0787385
0.301694
1.54494
5.84224
2.44006
0.0217833
0.0225111
1.42932
0.0218876
0.050677
1.58706
9.26502
0.02353
0.0306728
5.10052
0.634368
2.03262
7.43826
1.43318
1.33737
0.0221117
0.0216266
0.0219919
0.0224317
25.7089
0.0560058
0.392048
0.409673
0.0580743
0.0219437
0.218182
0.0217015
0.0308844
0.0219192
0.0416082
6.86775
2.77468
0.0220716
0.0216086
0.0379131
2.1912
0.203991
7.17823
0.0456091
0.0221064
0.0850313
0.0214722
0.0977741
0.0325337
0.0219159
1.67475
0.179691
0.600807
0.0600224
0.022306
0.021582
7.646
0.0254274
0.0216274
0.0221458
0.0222562
0.0216858
5.87287
9.77052
1.81267
1.39721
6.34547
0.0234553
0.0219464
1.91835
0.0241782
0.0869658
7.38474
0.0218648
7.76535
2.75654
0.062661
0.0342577
0.802861
0.0232619
1.78256
0.0383456
1.86893
0.0218277
0.0229936
0.0417698
3.26329
0.125055
0.069782
5.68386
2.31944
0.0733081
0.173738
3.28154
0.0243135
0.371804
19.8375
0.0365912
0.0652098
3.26353
0.0323231
0.0375496
0.0221043
0.0381992
0.0407113
0.0584949
0.0220889
9.37299
0.170768
1.69127
6.15882
2.02418
0.0405025
1.58417
9.54758
0.0218448
0.217009
4.34823
7.50372
0.0282303
0.0244047
1.55974
9.70814
0.021617
0.247443
0.0217526
0.0219059
4.18221
0.0256301
2.18895
1.41725
1.70887
8.2252
0.0216265
0.036378
0.022006
0.0218419
0.113514
0.0601022
0.0266617
2.76536
1.72731
0.0222732
0.0262001
1.36307
0.0232619
0.425286
0.0488017
1.31509
1.30648
0.437243
10.3217
8.51021
1.71215
1.31809
1.54701
0.0297445
0.0254292
0.123536
0.126376
1.56109
7.91553
0.0221327
0.0227144
5.98471
2.21709
0.0243847
5.70014
0.0219389
0.816142
5.79104
4.99707
0.0219208
1.56044
1.57051
0.0271361
0.0353939
7.86416
7.24563
6.85449
4.45509
0.0220314
7.32666
1.49697
0.0415449
0.240656
0.111908
0.0217351
0.0268753
3.42015
2.06689
0.0246335
0.0221717
1.4989
0.0859356
1.65171
0.0782579
2.27942
1.34498
0.0219921
11.5112
0.0222852
0.0301614
0.0221076
0.0218725
0.0217056
0.0378656
0.295336
0.0215003
17.0581
0.0754611
6.13767
7.65305
1.90287
0.0219071
5.59434
1.53595
1.90143
0.0350526
0.0219274
4.45345
0.431133
1.76065
0.056175
0.0235917
0.0216895
5.73615
5.64419
0.0339907
16.6885
0.031517
0.0222466
1.33599
0.0551678
20.476
0.0219035
0.0282545
1.5667
6.39187
1.33083
0.219578
1.30891
1.58419
5.45464
0.0220468
7.75765
0.0488701
0.0218481
0.0215608
0.021945
5.69825
0.0503293
1.31301
1.38868
0.0358974
0.168684
0.0807293
2.54436
0.268792
7.60054
5.66172
1.32632
0.0921369
0.0216533
0.342803
0.0581941
0.102785
1.31914
2.67938
1.68588
0.0220946
0.0241635
0.0499328
0.0220596
0.0219603
0.028208
1.33445
0.0274611
0.0243598
1.32832
0.0763257
0.310893
4.54162
1.3805
0.490303
1.63008
5.81984
2.11421
0.0646818
0.0319595
0.0221491
1.30436
0.114449
0.252688
0.0643843
0.0621234
0.0214569
0.196127
7.04986
0.0256551
0.0215927
0.0229161
3.91187
0.0218725
0.0220241
0.0653114
1.42328
0.0276932
0.0563734
0.190146
0.0309322
0.0627769
0.0218838
0.0219778
0.0420782
0.235526
0.0223066
0.0316265
0.276741
7.41322
0.0221647
11.9542
0.0218772
1.36852
0.0233675
0.0235506
0.0215595
0.197176
0.0340919
5.83596
11.2685
0.0699764
0.0221629
0.0218962
7.50653
3.20731
0.0217731
0.26316
1.44048
0.0544337
0.0792125
0.0214349
0.0227605
0.0219228
1.34611
0.0432287
0.0220502
7.62966
0.0224384
0.0586939
0.279343
0.0217366
0.102367
0.0627265
18.3255
0.0224788
0.0264485
0.0235204
0.0564103
0.0214107
0.0219017
6.77384
0.356193
0.0791926
0.0219663
1.55917
0.0224464
0.0224405
0.0219575
0.547403
7.69407
0.0238077
10.9418
1.87926
0.0669972
2.89091
4.60208
5.77372
6.58148
0.055617
0.0668923
0.240347
0.049446
0.0219504
0.0304764
0.0297738
8.31427
0.0220793
3.78103
0.0219798
0.413271
0.096776
0.0228745
0.0231653
10.1691
10.9147
4.7858
1.48218
0.0218109
0.0705818
5.99702
0.0258862
10.1308
0.041428
0.109638
1.39803
0.0322935
0.0219922
0.133859
0.161197
0.0219212
1.3785
0.80374
0.0217114
0.0222398
0.0221216
0.0220088
6.73559
0.0219104
0.0488299
0.0220246
0.0222267
0.0328073
0.0219435
1.37161
0.0890009
0.0221988
0.0216325
0.119551
0.0232718
0.0564513
6.20928
5.72486
0.0549972
0.249505
0.041345
0.0215998
0.148362
10.1836
0.03862
1.33442
4.80411
0.0769225
0.0394398
0.0267987
0.0702112
0.0385319
7.7951
0.0221142
0.0222
0.0217682
2.19599
9.90548
0.0365142
0.095069
0.0218632
0.0257451
0.108458
0.292863
0.021935
0.062198
1.52509
0.0895386
0.0219911
0.0219433
20.0105
6.73666
0.0219335
0.618789
0.0302657
0.220212
0.242889
0.0218596
2.7238
0.0290563
0.0220251
1.89738
0.222746
0.0219202
0.0221631
0.295305
0.0217859
0.0220399
0.14023
0.0427202
0.0463818
7.37852
0.0253469
0.0421483
1.47617
0.0218398
9.66083
6.31069
0.0251854
0.0616912
0.187045
0.0219825
0.172431
0.0214745
2.00553
1.49778
0.022002
4.73577
9.57707
0.0219554
0.0219466
0.588522
0.0377331
1.49669
1.4577
0.0220953
0.0440149
6.06329
0.0224737
0.05046
0.0731103
0.0342441
2.00379
0.20416
0.022906
0.25075
5.8506
0.0462244
2.58809
0.0219096
0.0215574
0.0222676
0.042944
6.15753
0.0220661
0.0327234
15.5152
2.58687
0.0222184
0.0300926
2.02217
1.38735
0.0222253
9.95088
0.0344454
0.0920561
0.0354913
0.0231813
0.0260678
0.0219756
0.0219617
6.89041
0.0219331
0.0530433
0.02198
6.76209
0.0228879
0.0233137
0.0215964
0.0237083
0.0219792
0.0420595
5.63516
0.348576
0.038477
0.043062
0.0219672
0.031999
0.0532314
2.68009
5.81554
0.0218294
1.12526
0.0220219
2.25371
1.32701
5.6282
0.0218264
0.111949
0.0746923
7.19772
0.241763
0.0218616
3.19882
0.329488
0.0384009
0.444424
0.0221199
0.0220084
0.0400171
3.79917
0.0219308
6.60508
0.0344179
2.74522
0.0928132
0.0224158
2.26305
0.028365
0.0221578
0.278226
0.02195
2.7569
10.874
0.162345
0.0278364
0.15989
0.021941
0.108367
0.0449705
10.0084
0.0220365
0.0216193
0.0270913
0.0298248
0.0448062
1.70558
1.11322
0.0362664
0.23087
0.0218169
1.36126
4.37974
0.194569
0.0219253
0.0222605
0.0227402
1.8927
0.0220822
0.0262545
1.98344
0.0861821
0.0219981
0.281204
0.0814713
0.0219856
0.0252897
0.127314
1.55601
0.0721435
0.0439721
1.63639
1.3842
0.273623
0.0269003
0.0221399
0.0245014
0.0248038
0.149784
0.0586213
0.0273259
0.0801596
7.70411
0.0241992
0.0219963
5.71755
0.299337
1.60808
0.182847
0.025961
0.0238216
0.0237303
0.0217747
0.0219037
0.0448367
0.0215536
0.0229939
0.0220451
0.0230233
0.0236751
0.0219474
0.0391679
0.0357308
0.0220455
0.0219355
0.0221199
0.0227896
0.0223699
0.250302
0.0220578
0.023513
1.48254
0.0216906
0.0233182
0.0222781
0.0271393
5.84571
9.63832
2.48048
3.06113
3.77096
0.212525
0.0218731
0.0603157
0.0220353
0.627082
0.0227439
0.029709
0.0222009
0.0555176
0.0219543
0.0312558
0.0217865
1.82266
0.177648
0.0220793
6.12601
3.44007
0.0220786
0.0881314
0.0219459
0.0216002
7.86273
0.022078
0.0671684
0.210642
0.0221052
0.0215604
0.0751989
1.47922
0.0251528
0.0232768
1.41914
0.0219382
4.40539
0.0510433
10.4128
0.0216757
1.44275
0.0219362
0.0222184
0.243925
0.0601959
2.21909
1.59692
7.89287
1.90501
0.148726
0.145754
0.0220466
0.125057
0.0219455
0.02182
0.0945717
0.021905
0.021984
0.0216087
0.0216183
0.0576076
2.65929
1.40225
0.421125
2.71482
0.0234142
0.0306493
0.0226485
0.0228312
0.0772897
0.0220771
0.0217031
0.0218164
0.0235533
0.0232351
0.203969
0.0819928
0.0466939
0.0221096
0.0552767
0.0564078
1.82759
6.37397
0.0247693
0.0402618
0.0220886
12.3582
1.5551
0.021919
0.0219325
0.0245141
0.0222135
0.262063
0.296536
5.83612
0.0221505
2.1547
0.0221434
2.70833
0.0513092
0.0218099
0.0283503
0.734991
0.0271668
0.0281399
0.02985
0.084865
5.42926
0.0217295
0.0219139
0.0282152
0.139055
0.0218818
1.85136
0.835541
0.0219713
0.0214293
6.77797
0.0664177
0.0219263
5.34225
16.2953
2.07481
0.504676
0.0277882
1.86369
0.0220717
5.96656
2.00142
0.872944
0.0658191
0.023944
5.6379
0.0251584
0.0218654
0.0214552
0.162302
0.02164
4.07827
0.022406
0.0222101
0.0252265
1.36515
0.0238739
0.0228387
0.0220741
10.3361
4.03495
11.6859
1.4083
0.0419331
0.0219326
0.0242455
0.193816
0.111752
0.0219855
0.0508103
0.150645
0.820529
0.021925
3.38152
5.90135
0.0375366
0.0220635
0.023804
0.0219514
0.0217338
0.0219394
0.0220306
0.0220318
0.0978234
0.0220963
0.115646
0.0226271
0.0227599
5.81411
0.06986
0.0228953
0.0228432
2.08006
0.0215594
0.0228924
0.0262875
0.0218143
0.463194
0.0308854
0.0228142
0.0448111
0.0219802
0.0272874
0.0217727
0.144319
0.0218221
0.021925
7.1174
0.0230664
0.182082
0.0336386
0.0238715
0.0832557
0.0214143
0.0220884
0.0227093
7.40611
0.0235205
0.0219235
1.95155
0.0220201
0.0216284
0.0218828
0.729627
0.0324154
0.124479
0.0338396
0.0310071
0.0503634
0.023902
0.0273166
0.0480669
2.18234
0.0223066
0.0286089
0.0218158
0.265821
0.2155
0.0219044
0.0275246
2.00097
0.0301363
0.0215524
7.92726
0.0260551
0.0843397
2.25978
0.0281229
0.0219169
0.0295447
0.0219233
0.023528
0.0219029
0.0234258
0.0261364
0.0219702
0.0220686
0.0321419
0.0221944
0.0957407
0.021904
0.0238107
0.0219498
0.0281885
1.45431
0.0221141
0.0219649
0.100542
0.0227545
0.0219778
0.231102
8.40254
2.78553
0.022086
0.024542
0.0341869
0.022245
0.0221263
0.0340639
0.196028
0.0215412
0.0542275
0.02198
0.0218867
0.0217497
0.0215325
0.0226463
0.0432007
0.0342633
0.026629
1.47223
0.0241718
0.0282508
0.0217273
1.75429
0.276099
1.89916
0.0220634
0.0472811
0.0284059
0.022045
0.022121
0.041939
1.35159
2.2901
0.0218688
0.0273544
10.6303
0.0228151
0.195417
6.27168
1.41835
0.0290116
0.0220055
0.038759
0.0451144
0.135729
11.5409
8.06906
1.38022
0.0226675
0.0221743
0.0219419
0.109444
0.0219194
0.0216914
0.0384827
0.0219299
0.021865
0.0218761
0.0526519
0.0219442
0.0217775
0.0219676
2.33245
0.0215481
0.0220443
0.0221075
0.022396
0.0219387
0.072931
0.0706947
5.04166
0.021582
0.0284998
0.108862
5.71446
2.28078
0.0222809
0.0222753
0.0531464
0.0965965
0.0260403
0.367879
0.0219325
0.413367
0.0222782
1.31224
0.0228677
0.0219328
0.0445326
0.0219559
0.0219087
0.0228108
0.735431
0.0245412
0.0224913
0.0221787
0.0219757
0.0407102
0.0218799
0.0219131
0.0260266
0.105267
0.0243168
0.0218085
1.31526
7.84775
0.0220255
0.314584
0.0221444
0.0283179
0.0778835
0.223463
0.0235027
0.0230632
0.0220892
0.269227
0.0286512
0.0221171
0.0219068
0.0233389
0.147559
0.0219687
0.0343679
0.0239323
0.0352887
0.0510489
0.0385053
0.091608
3.59602
0.0251494
0.0220387
7.17568
0.349352
0.0219311
0.021496
0.0220639
0.0219812
0.0219259
0.0239942
0.0216783
0.0220789
5.6628
1.37078
0.0313106
0.0219517
3.10572
0.0238961
0.0217022
6.05421
0.0233874
0.0216523
0.0220944
0.0220365
0.0358411
0.0220995
0.0557949
0.0219258
0.0217819
0.0219606
0.032669
0.036304
0.0218901
0.0584148
1.38586
0.0232365
0.0218903
0.0616405
0.02172
0.0220398
0.0218637
0.0300588
0.0220523
5.88579
0.0223881
0.240506
3.17644
0.0570803
0.023031
0.0222108
0.0220821
0.0219379
0.0296969
0.170053
0.122072
0.0218117
0.0239317
5.75005
0.0215876
0.17779
0.0219614
0.0227548
0.0311353
0.0633763
0.021954
0.032616
0.0283269
0.0590383
1.34997
10.1156
0.0218294
0.0219255
0.0329122
0.0225031
0.0227304
0.0504516
0.022555
0.100084
0.0217821
0.0698069
0.0221066
0.0827657
0.0580769
1.33893
5.63875
0.0219173
0.0396853
0.974877
0.224007
0.0216007
0.0217449
0.13556
0.0219428
0.0219234
0.0217471
0.0215205
0.0727015
0.0742155
20.4192
0.0220198
0.0446667
0.0222551
0.0215934
0.0231231
1.64331
0.157283
0.0219368
0.0221424
0.021845
6.7525
0.0220274
0.0219458
0.0225002
0.021961
0.0437764
0.0218328
1.68976
0.0219818
0.0224006
0.0222993
0.0219291
0.0217517
0.022005
12.781
0.0217823
0.021958
0.261015
0.0218862
0.0220433
0.0221127
0.0221568
0.0549631
0.0219259
0.0219724
2.454
0.0232206
0.0220385
0.0222841
0.021531
1.32793
0.0230467
0.0222525
0.0219209
0.025827
0.0219638
3.89912
0.0217942
0.0220083
8.68553
0.0219772
0.0638352
0.0222064
0.0214187
0.0215159
0.0308691
0.0379051
0.021868
0.0222862
0.0236274
0.0219104
0.0221107
0.0221259
0.0218332
0.021723
0.0217769
3.52064
0.0219536
0.0218449
1.68894
0.0219562
0.0268904
0.131514
1.40925
0.0218245
0.0220965
0.0219549
0.0216422
0.0230096
0.0392608
0.0240659
0.0357143
0.0217823
0.024853
0.0220303
0.0214814
0.0266729
0.0600405
0.0236821
0.0274557
0.0220261
0.0219538
0.0221205
1.89712
0.0230778
0.0220097
4.44998
0.0226154
2.62389
0.0220637
0.0219278
0.0217451
1.43029
0.0219832
0.0251907
0.0227147
0.0220727
0.0219664
0.0220883
0.0219967
0.0239959
0.021917
0.0394157
0.0222482
0.0402623
0.0215103
0.0216379
0.0235957
9.39642
0.0221496
0.0220489
0.0226381
0.0219365
0.0238076
1.77715
0.0227993
0.0274059
1.83075
0.339142
0.0227702
0.0224936
0.135012
0.0932606
0.022879
0.0221158
0.0218332
0.651349
0.0224102
7.68341
0.0216891
0.0215468
0.0221045
0.0218456
0.0232706
0.0215915
0.0219882
0.0222653
0.0612884
0.0238768
0.0224198
0.021633
0.355956
0.0650848
0.0215201
0.0221042
0.023533
0.0222394
0.0220591
0.0215944
1.40107
0.0216059
0.0219542
0.0687103
0.0215849
1.82765
0.0218214
0.0419646
0.0261435
0.0219685
0.0215453
0.0219235
0.0220335
0.022044
0.0217424
0.021624
0.807069
1.54028
1.72687
0.0216178
3.84428
0.0220159
0.0574919
0.0219231
0.0219248
0.0221098
6.65363
0.0219472
0.0219096
0.0221269
0.0220121
0.32059
0.0219427
1.55118
0.0214557
0.0223156
2.30146
5.74521
0.0219832
0.0219567
0.0269808
0.0220142
0.150213
0.0217534
0.581617
0.0217805
0.0359479
0.0221399
0.0218184
0.0219425
0.022004
0.0232492
0.021904
0.0309791
0.0341942
0.124519
0.0217127
5.32836
0.0218936
12.97
0.0219135
5.94326
1.2576
0.0217504
0.0219107
0.0216033
0.0218981
0.0220442
0.021932
0.0215927
0.0223194
0.0214487
0.0916454
0.0221106
1.41339
0.0215847
0.0215393
0.021926
0.021926
0.0224778
3.34212
0.0227378
3.99938
0.0215525
0.0221196
0.0340763
0.0215912
0.151451
0.0231454
0.0219294
0.0401388
0.021514
0.0219721
0.0224579
0.021688
0.0290857
0.0407224
0.0216411
0.0221128
0.0220463
8.75713
0.0235419
0.0215854
6.16279
0.0540071
0.0216316
0.0219131
0.167282
0.0225935
0.0214477
0.337228
0.216888
0.0226021
0.0214544
0.0222402
0.0357782
0.0215759
0.183032
0.0216238
0.0216775
0.0429147
0.0543491
0.0216181
0.021615
0.021519
0.0217415
0.0217554
0.0416821
0.0219655
0.0217614
0.0221113
0.0218479
3.0216
0.0222722
2.81313
0.0261567
0.0278833
0.0221423
1.50274
0.021919
1.62045
0.0215404
0.0219559
0.477356
0.0219726
0.0228633
0.0216629
0.0250106
0.0217068
0.0268196
0.0215736
3.94925
0.0222102
0.0215803
0.0215441
0.0215821
0.107966
0.021796
4.42585
0.0219124
0.0250876
0.0215079
0.0220147
0.203763
0.0219979
0.113514
0.0218188
0.0231633
0.0221904
0.022134
0.0224731
0.0219358
0.0219784
0.265488
0.0215802
0.0219417
0.0226126
0.0220574
0.0220545
0.0336875
0.021812
0.021913
0.0218617
0.0216277
0.0217639
0.0219928
11.5794
0.203084
1.00256
0.0214439
0.0233712
0.0221269
0.0265378
0.126503
0.22697
0.032707
0.0215778
0.0219784
0.0218821
0.0221449
0.0221156
0.0219073
2.49465
0.0523224
0.0219273
0.15913
0.0221379
6.14917
0.0219576
0.0218893
0.0218046
0.0215715
0.0214905
0.0218026
0.0216663
0.0218136
0.0423976
0.0230541
0.0219247
1.5328
0.021574
0.0225
0.0219827
0.0216015