/*--------------------------------*- C++ -*----------------------------------*\
| =========                 |                                                 |
| \\      /  F ield         | OpenFOAM: The Open Source CFD Toolbox           |
|  \\    /   O peration     | Version:  v2012                                 |
|   \\  /    A nd           | Website:  www.openfoam.com                      |
|    \\/     M anipulation  |                                                 |
\*---------------------------------------------------------------------------*/
FoamFile
{
    version     2.0;
    format      ascii;
    class       volVectorField;
    location    "300";
    object      cellDisplacement;
}
// * * * * * * * * * * * * * * * * * * * * * * * * * * * * * * * * * * * * * //

dimensions      [0 1 0 0 0 0 0];


internalField   nonuniform List<vector> 
10042
(
(0 -0.000631825 0)
(0 -0.000567152 0)
(0 -0.000684399 0)
(0 -3.16432e-05 0)
(0 4.47982e-06 0)
(0 -0.000534272 0)
(0 -5.50454e-05 0)
(0 -3.89208e-05 0)
(0 -0.000716205 0)
(0 -0.000523624 0)
(0 6.607e-06 0)
(0 -6.02546e-05 0)
(0 -0.000444514 0)
(0 -0.000277556 0)
(0 -0.000186374 0)
(0 -0.000578813 0)
(0 -0.000590756 0)
(0 -6.30876e-05 0)
(0 -0.00063466 0)
(0 2.80613e-06 0)
(0 -0.000518447 0)
(0 -9.96776e-05 0)
(0 -0.000146473 0)
(0 -0.000534789 0)
(0 -0.000554094 0)
(0 -0.000323418 0)
(0 -0.000417491 0)
(0 -0.000282969 0)
(0 -0.000632495 0)
(0 -0.000339114 0)
(0 -0.000568881 0)
(0 6.60325e-06 0)
(0 -0.000507472 0)
(0 -0.000402499 0)
(0 -0.000265638 0)
(0 -0.000526694 0)
(0 -0.000327598 0)
(0 -0.000341804 0)
(0 -0.000501272 0)
(0 -9.82386e-05 0)
(0 3.25882e-06 0)
(0 -0.00021221 0)
(0 -5.96934e-05 0)
(0 -0.00043253 0)
(0 4.5976e-06 0)
(0 -0.000202028 0)
(0 -0.000307767 0)
(0 -0.000213189 0)
(0 -0.000310874 0)
(0 -0.00038708 0)
(0 -7.70974e-05 0)
(0 -0.000859359 0)
(0 -0.000211992 0)
(0 -0.000750563 0)
(0 -0.000320194 0)
(0 -0.000544099 0)
(0 -0.000631618 0)
(0 -0.000317924 0)
(0 -0.000413373 0)
(0 -0.000219054 0)
(0 -0.000563983 0)
(0 -0.000611744 0)
(0 -0.000251573 0)
(0 -0.000686673 0)
(0 -0.000294739 0)
(0 -0.000424443 0)
(0 -0.00036043 0)
(0 -1.59159e-06 0)
(0 6.09254e-06 0)
(0 -0.000529061 0)
(0 -0.000763787 0)
(0 3.89303e-06 0)
(0 -0.00042688 0)
(0 -4.32008e-05 0)
(0 -0.000369272 0)
(0 -0.000557865 0)
(0 4.7985e-06 0)
(0 -0.000634328 0)
(0 -6.07568e-05 0)
(0 -4.40204e-05 0)
(0 -0.000322345 0)
(0 4.11049e-06 0)
(0 -0.000460869 0)
(0 -0.000243042 0)
(0 -0.000358876 0)
(0 -0.000228693 0)
(0 -0.000630019 0)
(0 -6.29605e-06 0)
(0 -0.000464083 0)
(0 -0.000632959 0)
(0 -0.000500287 0)
(0 4.20072e-06 0)
(0 -0.000274316 0)
(0 -0.000864551 0)
(0 -0.000347932 0)
(0 -0.00054928 0)
(0 -0.000659523 0)
(0 -0.000550945 0)
(0 -0.000105559 0)
(0 -0.000654338 0)
(0 -1.18664e-05 0)
(0 -1.75855e-05 0)
(0 -4.65501e-05 0)
(0 -0.000244493 0)
(0 -0.00028907 0)
(0 -2.92665e-05 0)
(0 -0.000602745 0)
(0 -0.000661236 0)
(0 -0.00050018 0)
(0 -0.000851604 0)
(0 -0.000165981 0)
(0 -0.000603726 0)
(0 -0.000199192 0)
(0 6.25743e-06 0)
(0 -0.000301869 0)
(0 -0.000607345 0)
(0 -0.000554136 0)
(0 -0.000631771 0)
(0 -0.000557628 0)
(0 6.44036e-06 0)
(0 -0.000471213 0)
(0 -4.30034e-05 0)
(0 -0.0004237 0)
(0 -0.000557792 0)
(0 -2.00894e-05 0)
(0 -0.000452548 0)
(0 -3.7463e-05 0)
(0 -0.000248074 0)
(0 -3.14069e-05 0)
(0 -0.00063137 0)
(0 -5.58799e-05 0)
(0 -0.000404086 0)
(0 6.56655e-06 0)
(0 -4.53181e-05 0)
(0 -0.000653448 0)
(0 -3.91936e-05 0)
(0 6.5562e-06 0)
(0 -0.000487507 0)
(0 -0.00019993 0)
(0 -4.60703e-06 0)
(0 -0.000264753 0)
(0 -0.000548303 0)
(0 -0.0002985 0)
(0 -1.76298e-05 0)
(0 -0.000880268 0)
(0 -0.00060865 0)
(0 -5.24663e-05 0)
(0 -0.00091682 0)
(0 -0.000539377 0)
(0 -0.000174136 0)
(0 -0.000725308 0)
(0 -2.68941e-05 0)
(0 -2.10841e-05 0)
(0 6.45736e-06 0)
(0 -0.000306765 0)
(0 -0.000413389 0)
(0 -0.000222747 0)
(0 -0.000612823 0)
(0 -3.5179e-05 0)
(0 6.57457e-06 0)
(0 6.60198e-06 0)
(0 -5.46397e-05 0)
(0 -0.000588304 0)
(0 -0.000716997 0)
(0 -0.000441186 0)
(0 -0.000415018 0)
(0 -1.1714e-05 0)
(0 6.53608e-06 0)
(0 6.60617e-06 0)
(0 6.39803e-06 0)
(0 -0.000750077 0)
(0 -0.000658826 0)
(0 3.83042e-06 0)
(0 3.80393e-06 0)
(0 -3.25403e-05 0)
(0 -0.000101187 0)
(0 6.49286e-06 0)
(0 -0.000427274 0)
(0 -2.3842e-07 0)
(0 -0.000125902 0)
(0 -0.000211656 0)
(0 6.59144e-06 0)
(0 -0.000349217 0)
(0 -0.000247706 0)
(0 -0.000220686 0)
(0 6.40957e-06 0)
(0 -2.74281e-05 0)
(0 -0.000464302 0)
(0 6.57676e-06 0)
(0 -0.000366766 0)
(0 6.44855e-06 0)
(0 -0.000292672 0)
(0 -2.40741e-05 0)
(0 3.26529e-06 0)
(0 -9.54567e-05 0)
(0 7.68863e-07 0)
(0 -0.000382395 0)
(0 -0.00061579 0)
(0 -0.000374355 0)
(0 -0.000285491 0)
(0 -3.26812e-05 0)
(0 -0.000458551 0)
(0 -0.000610978 0)
(0 3.87808e-06 0)
(0 -0.000347137 0)
(0 -0.000714428 0)
(0 6.49017e-06 0)
(0 -0.000382225 0)
(0 -7.36675e-05 0)
(0 -0.000169408 0)
(0 -2.75825e-07 0)
(0 -0.00011741 0)
(0 -1.36755e-05 0)
(0 3.34484e-06 0)
(0 -0.000232091 0)
(0 -2.41395e-05 0)
(0 -0.000402792 0)
(0 -0.000616142 0)
(0 -5.3338e-05 0)
(0 -0.000667087 0)
(0 -0.000196695 0)
(0 -0.000218099 0)
(0 2.71633e-06 0)
(0 -0.00033281 0)
(0 -0.0001255 0)
(0 -0.000321703 0)
(0 -3.684e-05 0)
(0 -0.00060801 0)
(0 -3.39585e-05 0)
(0 -0.000762444 0)
(0 -0.00072259 0)
(0 2.58461e-06 0)
(0 -0.000657361 0)
(0 -0.000774354 0)
(0 -0.000672889 0)
(0 -0.000169171 0)
(0 -0.000694996 0)
(0 -0.000241989 0)
(0 -0.000499852 0)
(0 -0.000644917 0)
(0 -0.000583561 0)
(0 -0.000417254 0)
(0 -0.000455621 0)
(0 -0.000188911 0)
(0 -0.000615681 0)
(0 -0.000569211 0)
(0 -0.000168255 0)
(0 -0.000279522 0)
(0 -0.000755882 0)
(0 -4.85541e-05 0)
(0 -0.000271091 0)
(0 -0.000541504 0)
(0 -0.000184658 0)
(0 3.39005e-06 0)
(0 -5.19833e-05 0)
(0 6.59778e-06 0)
(0 -2.88608e-05 0)
(0 -3.66762e-05 0)
(0 -0.000177794 0)
(0 -0.000180104 0)
(0 -8.44825e-05 0)
(0 -0.000512175 0)
(0 -0.000604989 0)
(0 -0.000234173 0)
(0 -0.000289865 0)
(0 -0.000694193 0)
(0 -9.82978e-05 0)
(0 -0.000630916 0)
(0 -0.00062824 0)
(0 -0.00014645 0)
(0 -2.9389e-05 0)
(0 -0.000746594 0)
(0 2.83949e-06 0)
(0 -3.29262e-05 0)
(0 -7.1768e-06 0)
(0 -0.000352728 0)
(0 -0.00065723 0)
(0 -0.000688271 0)
(0 -0.000491175 0)
(0 -0.000865395 0)
(0 -0.000118508 0)
(0 -0.000503894 0)
(0 -0.000315627 0)
(0 6.52005e-06 0)
(0 -0.000711319 0)
(0 -0.000666257 0)
(0 -7.99015e-05 0)
(0 -0.000189173 0)
(0 -0.000477706 0)
(0 -0.000559066 0)
(0 -0.0001961 0)
(0 -0.000108969 0)
(0 -0.000111651 0)
(0 -1.67982e-05 0)
(0 -6.52335e-05 0)
(0 -0.000342509 0)
(0 -0.000603283 0)
(0 -0.000704639 0)
(0 -3.95491e-05 0)
(0 -0.000571003 0)
(0 -0.000571352 0)
(0 -0.00066312 0)
(0 -0.000400543 0)
(0 -0.000370814 0)
(0 -0.000181372 0)
(0 -1.69333e-05 0)
(0 2.98658e-06 0)
(0 -0.00023186 0)
(0 -7.0213e-06 0)
(0 -0.00062707 0)
(0 -0.000501269 0)
(0 -0.000440302 0)
(0 6.60503e-06 0)
(0 -2.26183e-05 0)
(0 2.44447e-06 0)
(0 6.52922e-06 0)
(0 -0.000588683 0)
(0 -0.00063281 0)
(0 -0.000521026 0)
(0 -0.000183808 0)
(0 -0.000313365 0)
(0 -0.00014592 0)
(0 -0.000102415 0)
(0 -0.000172318 0)
(0 -0.000195924 0)
(0 -0.000421179 0)
(0 -1.45645e-05 0)
(0 -4.43622e-05 0)
(0 -0.000379146 0)
(0 -0.000425589 0)
(0 -0.000190881 0)
(0 6.40808e-06 0)
(0 -0.000619322 0)
(0 -0.000335808 0)
(0 -0.000209229 0)
(0 -0.000701243 0)
(0 -6.1619e-05 0)
(0 -9.59589e-05 0)
(0 -3.72115e-05 0)
(0 -1.02555e-05 0)
(0 -0.000358608 0)
(0 -0.000259514 0)
(0 -0.00041454 0)
(0 -0.000281073 0)
(0 -0.000504664 0)
(0 -5.24368e-05 0)
(0 -1.69538e-05 0)
(0 -0.000501181 0)
(0 -0.000413687 0)
(0 -0.000261393 0)
(0 -0.0006044 0)
(0 -0.00017107 0)
(0 -0.000233357 0)
(0 -0.000248383 0)
(0 -0.000766322 0)
(0 -0.00013279 0)
(0 -3.57628e-05 0)
(0 -0.000104078 0)
(0 -0.000304212 0)
(0 -0.000601777 0)
(0 -8.68106e-06 0)
(0 -5.10671e-05 0)
(0 -0.000654262 0)
(0 -6.68334e-05 0)
(0 -0.000643374 0)
(0 -0.000653743 0)
(0 -0.000640873 0)
(0 -0.000164758 0)
(0 1.48752e-06 0)
(0 -0.000653553 0)
(0 -0.000124676 0)
(0 -0.000239737 0)
(0 -1.36172e-05 0)
(0 -8.5229e-05 0)
(0 3.02166e-06 0)
(0 -0.000612266 0)
(0 -0.00077851 0)
(0 6.53057e-06 0)
(0 -0.000581074 0)
(0 -4.95241e-05 0)
(0 -1.76082e-05 0)
(0 -4.15522e-05 0)
(0 -0.000118582 0)
(0 6.60091e-06 0)
(0 -0.000123992 0)
(0 2.88875e-06 0)
(0 -0.000373625 0)
(0 -0.000368235 0)
(0 -2.66714e-05 0)
(0 -0.000327999 0)
(0 -0.000206986 0)
(0 -0.000516786 0)
(0 -0.00017343 0)
(0 6.59369e-06 0)
(0 -0.000106238 0)
(0 -0.000531436 0)
(0 -1.062e-05 0)
(0 6.32519e-06 0)
(0 -0.000437307 0)
(0 -0.000895631 0)
(0 6.60247e-06 0)
(0 -1.98492e-05 0)
(0 -0.000661018 0)
(0 -2.12731e-06 0)
(0 6.56314e-06 0)
(0 -0.000668406 0)
(0 -8.93281e-05 0)
(0 -0.000739298 0)
(0 -0.000626185 0)
(0 -0.000226824 0)
(0 -0.000712382 0)
(0 -8.60441e-06 0)
(0 -4.30847e-05 0)
(0 -0.000318004 0)
(0 2.51865e-06 0)
(0 -0.000234765 0)
(0 -0.000578707 0)
(0 9.20709e-07 0)
(0 -0.000694586 0)
(0 -4.54626e-05 0)
(0 -0.000105476 0)
(0 -0.00024022 0)
(0 -0.000810858 0)
(0 -0.000885733 0)
(0 -1.47748e-06 0)
(0 -0.000743038 0)
(0 -0.000118569 0)
(0 -0.000328364 0)
(0 6.59077e-06 0)
(0 -0.000243385 0)
(0 3.11107e-06 0)
(0 -0.00019703 0)
(0 -0.000601649 0)
(0 -0.000602857 0)
(0 3.20519e-06 0)
(0 -0.000598923 0)
(0 -0.000102365 0)
(0 -0.000565161 0)
(0 -0.000770736 0)
(0 6.5862e-06 0)
(0 -0.000359839 0)
(0 -0.000556985 0)
(0 -0.00011292 0)
(0 6.60432e-06 0)
(0 -0.000628804 0)
(0 -0.000345423 0)
(0 -0.000281968 0)
(0 -0.000690312 0)
(0 1.70147e-06 0)
(0 -0.00010979 0)
(0 -0.000567049 0)
(0 -0.000316928 0)
(0 -0.00063562 0)
(0 -0.000303611 0)
(0 -0.000607512 0)
(0 -0.000541881 0)
(0 6.60016e-06 0)
(0 -0.000544142 0)
(0 -0.000141346 0)
(0 -9.51555e-05 0)
(0 -5.15947e-05 0)
(0 -6.3983e-05 0)
(0 -5.68813e-05 0)
(0 -0.00013511 0)
(0 6.51214e-06 0)
(0 -0.000364265 0)
(0 -0.000518774 0)
(0 -0.000605186 0)
(0 -4.25244e-05 0)
(0 -0.000664611 0)
(0 -0.000591178 0)
(0 -6.61377e-05 0)
(0 -0.000697562 0)
(0 -0.000708757 0)
(0 -0.000208477 0)
(0 -0.000658961 0)
(0 -3.83458e-05 0)
(0 -0.000596141 0)
(0 -0.000601713 0)
(0 6.61786e-06 0)
(0 -0.000478539 0)
(0 -0.000768537 0)
(0 -0.0005054 0)
(0 -0.000342906 0)
(0 -0.000109702 0)
(0 -0.000560032 0)
(0 -0.00070567 0)
(0 2.31486e-06 0)
(0 -0.000315421 0)
(0 -2.01091e-05 0)
(0 -0.000506579 0)
(0 -2.48532e-05 0)
(0 -1.89353e-05 0)
(0 -1.28228e-05 0)
(0 -0.000518257 0)
(0 -0.000553568 0)
(0 -0.000246026 0)
(0 -0.00066135 0)
(0 -9.75541e-05 0)
(0 -4.55589e-05 0)
(0 -0.000625986 0)
(0 -3.81487e-05 0)
(0 6.5577e-06 0)
(0 -0.000374916 0)
(0 -8.46153e-05 0)
(0 -0.000566423 0)
(0 -0.000774518 0)
(0 -0.000247999 0)
(0 -0.000633054 0)
(0 6.07827e-06 0)
(0 6.58322e-06 0)
(0 -0.000498533 0)
(0 -0.000257087 0)
(0 -0.000466169 0)
(0 -0.00047785 0)
(0 -0.0003573 0)
(0 -0.000179165 0)
(0 -5.81453e-05 0)
(0 -2.31852e-06 0)
(0 6.48945e-06 0)
(0 -0.00080343 0)
(0 -0.000759007 0)
(0 -0.000699035 0)
(0 -0.000590382 0)
(0 6.15856e-06 0)
(0 -0.000112511 0)
(0 -0.000652038 0)
(0 -0.000584073 0)
(0 -9.30618e-05 0)
(0 -0.000376957 0)
(0 -5.2355e-05 0)
(0 -0.00036643 0)
(0 -0.000402374 0)
(0 6.60851e-06 0)
(0 6.22059e-06 0)
(0 4.25091e-06 0)
(0 -2.98781e-05 0)
(0 -0.00059666 0)
(0 -0.000641347 0)
(0 -0.000404302 0)
(0 -6.27582e-05 0)
(0 5.43165e-06 0)
(0 6.48994e-06 0)
(0 -0.000140752 0)
(0 -9.65143e-05 0)
(0 -0.000218502 0)
(0 -0.000394927 0)
(0 -0.000323903 0)
(0 -0.000237125 0)
(0 6.60015e-06 0)
(0 -0.000192454 0)
(0 -0.000630977 0)
(0 -0.000233436 0)
(0 -0.000231183 0)
(0 -0.000126003 0)
(0 -0.000518897 0)
(0 -9.7794e-05 0)
(0 -0.000114487 0)
(0 -0.000166125 0)
(0 -0.000600655 0)
(0 -0.000268868 0)
(0 -0.000509254 0)
(0 -3.2892e-05 0)
(0 -4.66707e-06 0)
(0 -5.00658e-05 0)
(0 -0.000399975 0)
(0 -0.000342442 0)
(0 -0.000549757 0)
(0 -0.000349866 0)
(0 -0.000490942 0)
(0 -0.00053261 0)
(0 -0.000133309 0)
(0 -6.77726e-05 0)
(0 -2.15854e-05 0)
(0 -0.000390668 0)
(0 -0.000301286 0)
(0 -0.00022576 0)
(0 -0.000560827 0)
(0 2.6041e-06 0)
(0 -0.000474811 0)
(0 -0.000275043 0)
(0 -0.00010665 0)
(0 -0.000641269 0)
(0 -5.74955e-05 0)
(0 -0.000364721 0)
(0 -0.000560334 0)
(0 6.44254e-06 0)
(0 -0.000218131 0)
(0 -0.000237899 0)
(0 -1.98893e-05 0)
(0 -0.000665697 0)
(0 -6.1561e-05 0)
(0 -0.000421093 0)
(0 -0.000570492 0)
(0 -2.18003e-05 0)
(0 -0.00033615 0)
(0 -0.000365312 0)
(0 6.04478e-06 0)
(0 -0.000269475 0)
(0 -0.000572209 0)
(0 -0.000447421 0)
(0 -0.00010689 0)
(0 -0.000247644 0)
(0 -0.000552765 0)
(0 -0.000553307 0)
(0 -0.000640351 0)
(0 -0.000359827 0)
(0 -0.000434258 0)
(0 -0.000108257 0)
(0 -0.000781235 0)
(0 -0.000190206 0)
(0 -0.000863653 0)
(0 -0.00064384 0)
(0 9.90515e-07 0)
(0 -0.000734288 0)
(0 1.76567e-06 0)
(0 -0.000545491 0)
(0 -0.000637507 0)
(0 -0.000471892 0)
(0 -0.000287328 0)
(0 -0.000489027 0)
(0 -0.000204955 0)
(0 -0.000489039 0)
(0 -2.20203e-05 0)
(0 -0.000106693 0)
(0 -6.67406e-05 0)
(0 -0.000926964 0)
(0 -0.000197396 0)
(0 -8.54666e-05 0)
(0 -0.000392199 0)
(0 -0.000637142 0)
(0 -0.000332252 0)
(0 -0.000539726 0)
(0 2.93499e-06 0)
(0 6.54946e-06 0)
(0 -0.0001344 0)
(0 -0.000475648 0)
(0 -4.15036e-05 0)
(0 -0.000612663 0)
(0 -4.12916e-05 0)
(0 -0.000209218 0)
(0 -0.000501093 0)
(0 -7.16925e-05 0)
(0 -3.0809e-06 0)
(0 5.00387e-06 0)
(0 -0.000380498 0)
(0 4.23851e-06 0)
(0 -0.000257107 0)
(0 -0.000396414 0)
(0 -0.00017877 0)
(0 -0.000516522 0)
(0 -0.000346985 0)
(0 -0.000517065 0)
(0 -0.000565793 0)
(0 -0.000317029 0)
(0 -5.41322e-05 0)
(0 -2.26219e-05 0)
(0 -0.000558478 0)
(0 -0.000544234 0)
(0 3.12769e-06 0)
(0 -0.000208103 0)
(0 -0.000143354 0)
(0 -0.000419157 0)
(0 -0.000141577 0)
(0 -4.83835e-05 0)
(0 -0.000593185 0)
(0 -0.000662828 0)
(0 -0.000344281 0)
(0 -0.00068626 0)
(0 6.60287e-06 0)
(0 -0.000209823 0)
(0 3.76048e-06 0)
(0 -9.72332e-05 0)
(0 4.95019e-06 0)
(0 6.47033e-06 0)
(0 -2.1028e-05 0)
(0 -0.000513805 0)
(0 -0.000182007 0)
(0 -3.7711e-05 0)
(0 -4.25638e-05 0)
(0 -0.000424088 0)
(0 -0.000555793 0)
(0 -6.11212e-05 0)
(0 6.61907e-06 0)
(0 -0.000614846 0)
(0 -8.801e-05 0)
(0 -6.95329e-06 0)
(0 -0.000590328 0)
(0 -0.000648014 0)
(0 -0.000540091 0)
(0 -0.000256177 0)
(0 -0.00063947 0)
(0 -0.000767613 0)
(0 -1.30126e-05 0)
(0 1.21683e-06 0)
(0 -0.000774747 0)
(0 -0.000607125 0)
(0 6.58229e-06 0)
(0 -2.66165e-05 0)
(0 -0.000606991 0)
(0 -0.000524881 0)
(0 -9.09598e-05 0)
(0 -0.000623312 0)
(0 1.70302e-06 0)
(0 -0.000219344 0)
(0 3.21824e-06 0)
(0 -0.000284014 0)
(0 -0.000651673 0)
(0 -0.00074757 0)
(0 -0.000203142 0)
(0 -0.00055212 0)
(0 -0.000317956 0)
(0 -0.000253017 0)
(0 3.61932e-06 0)
(0 -0.000608209 0)
(0 -0.000413231 0)
(0 -5.26613e-05 0)
(0 -0.0006232 0)
(0 -0.000463259 0)
(0 -6.41743e-06 0)
(0 -0.000610231 0)
(0 6.58863e-06 0)
(0 4.02716e-06 0)
(0 -0.000389866 0)
(0 -0.000628039 0)
(0 -7.58484e-06 0)
(0 6.62524e-06 0)
(0 -5.4338e-05 0)
(0 -0.000674893 0)
(0 -3.25197e-05 0)
(0 3.89195e-06 0)
(0 -0.000107531 0)
(0 -0.000434852 0)
(0 -0.000185893 0)
(0 -0.000495315 0)
(0 3.13653e-06 0)
(0 -0.00047739 0)
(0 5.96255e-07 0)
(0 -6.63562e-05 0)
(0 6.36553e-06 0)
(0 6.94934e-07 0)
(0 -0.000562656 0)
(0 -0.000624487 0)
(0 2.23644e-06 0)
(0 -0.000399442 0)
(0 -0.000480706 0)
(0 -0.000169405 0)
(0 6.34712e-06 0)
(0 3.85215e-06 0)
(0 2.39202e-07 0)
(0 -0.000773777 0)
(0 -0.000167516 0)
(0 -4.74207e-05 0)
(0 -0.000491504 0)
(0 -6.35171e-05 0)
(0 -0.000287686 0)
(0 2.64329e-06 0)
(0 -0.000200476 0)
(0 -0.000575861 0)
(0 -0.000174537 0)
(0 -0.000370665 0)
(0 -5.38904e-05 0)
(0 -0.000119062 0)
(0 -0.00047252 0)
(0 -0.000151655 0)
(0 -0.000367427 0)
(0 -5.08679e-05 0)
(0 -0.000219126 0)
(0 -0.000548333 0)
(0 -0.000190436 0)
(0 -1.31884e-05 0)
(0 5.37433e-06 0)
(0 -0.000235018 0)
(0 -4.8193e-05 0)
(0 -2.58909e-05 0)
(0 -2.31878e-05 0)
(0 -0.000227557 0)
(0 6.60337e-06 0)
(0 6.57836e-06 0)
(0 -0.000595762 0)
(0 -0.000445824 0)
(0 -0.000274128 0)
(0 -0.000186206 0)
(0 8.52118e-07 0)
(0 -0.000277895 0)
(0 -0.000331791 0)
(0 -0.000209798 0)
(0 -2.32419e-05 0)
(0 -4.61246e-05 0)
(0 -0.000791516 0)
(0 -0.000291799 0)
(0 -0.000529777 0)
(0 -6.71599e-05 0)
(0 -0.000485776 0)
(0 -7.22987e-05 0)
(0 -0.000369349 0)
(0 -0.000264611 0)
(0 -0.000255605 0)
(0 -0.000686209 0)
(0 6.20147e-06 0)
(0 -0.00066136 0)
(0 -0.000276451 0)
(0 -0.00053237 0)
(0 -0.000340413 0)
(0 -1.57886e-05 0)
(0 -0.000250255 0)
(0 -0.00023263 0)
(0 -0.000510177 0)
(0 -0.000393014 0)
(0 6.07899e-06 0)
(0 -1.64854e-05 0)
(0 5.01265e-06 0)
(0 -0.000206493 0)
(0 2.37396e-06 0)
(0 -0.000147294 0)
(0 -0.000291637 0)
(0 -0.000387451 0)
(0 -4.62256e-05 0)
(0 -9.74647e-06 0)
(0 -0.000257738 0)
(0 4.35375e-06 0)
(0 -7.57837e-05 0)
(0 -0.000257132 0)
(0 -8.97528e-05 0)
(0 -2.21513e-05 0)
(0 -0.000489152 0)
(0 -0.000127485 0)
(0 -0.000676443 0)
(0 -0.000143594 0)
(0 -0.000115649 0)
(0 -2.24995e-06 0)
(0 -2.16857e-05 0)
(0 -5.74505e-06 0)
(0 -0.00012338 0)
(0 -5.45263e-05 0)
(0 -5.87891e-05 0)
(0 -0.000218881 0)
(0 2.40018e-06 0)
(0 -0.000528597 0)
(0 5.87081e-06 0)
(0 -0.000620395 0)
(0 -0.00022433 0)
(0 -4.88194e-05 0)
(0 -7.24373e-06 0)
(0 -0.000404209 0)
(0 6.28643e-06 0)
(0 -6.92473e-05 0)
(0 -0.000630625 0)
(0 -0.000323208 0)
(0 -0.000411794 0)
(0 -0.000508192 0)
(0 -0.00010509 0)
(0 -2.40097e-05 0)
(0 -0.000434872 0)
(0 6.60781e-06 0)
(0 -0.000363969 0)
(0 6.54956e-06 0)
(0 -0.000648795 0)
(0 -0.00065661 0)
(0 -4.82773e-05 0)
(0 -0.000245225 0)
(0 3.72783e-06 0)
(0 -0.000625631 0)
(0 -9.40275e-05 0)
(0 -1.5408e-05 0)
(0 -0.000271196 0)
(0 -1.90326e-05 0)
(0 -2.89281e-05 0)
(0 -0.000424846 0)
(0 -2.66421e-05 0)
(0 4.0662e-06 0)
(0 -0.000430392 0)
(0 -0.000529613 0)
(0 -0.000668677 0)
(0 -0.000134959 0)
(0 -0.000645297 0)
(0 -0.000615437 0)
(0 -0.000433725 0)
(0 -0.0006575 0)
(0 -0.000389372 0)
(0 -0.000244887 0)
(0 -0.000164366 0)
(0 -6.42901e-05 0)
(0 -0.000548753 0)
(0 1.2828e-06 0)
(0 -0.000462406 0)
(0 4.59584e-06 0)
(0 -3.23528e-05 0)
(0 6.02311e-06 0)
(0 -0.000135799 0)
(0 -0.000639335 0)
(0 6.60394e-06 0)
(0 -0.00023517 0)
(0 3.75504e-06 0)
(0 -2.05318e-05 0)
(0 -7.28011e-05 0)
(0 -0.000228943 0)
(0 -0.000661885 0)
(0 -0.000279757 0)
(0 -1.53146e-05 0)
(0 -0.000537333 0)
(0 6.35758e-06 0)
(0 -0.000540126 0)
(0 6.47853e-06 0)
(0 -7.14698e-05 0)
(0 -0.00043964 0)
(0 -0.000512925 0)
(0 6.46778e-06 0)
(0 6.36172e-06 0)
(0 -0.000179939 0)
(0 -0.000561811 0)
(0 -0.000110322 0)
(0 -0.000543964 0)
(0 -0.000417582 0)
(0 -0.000145694 0)
(0 -3.5117e-05 0)
(0 -0.000218264 0)
(0 -0.000498644 0)
(0 -0.000542702 0)
(0 -0.000256287 0)
(0 2.94731e-06 0)
(0 -0.000385106 0)
(0 -0.000383046 0)
(0 -0.000219735 0)
(0 -6.57152e-05 0)
(0 -0.000319392 0)
(0 -0.000577055 0)
(0 6.43079e-06 0)
(0 -0.000334854 0)
(0 -0.000571284 0)
(0 6.55565e-06 0)
(0 -0.000203043 0)
(0 -0.000411146 0)
(0 6.6068e-06 0)
(0 -9.26802e-05 0)
(0 6.35159e-06 0)
(0 -0.000564728 0)
(0 -0.000224061 0)
(0 -1.90851e-05 0)
(0 -0.000673152 0)
(0 -0.00057306 0)
(0 -4.36071e-05 0)
(0 -0.000559794 0)
(0 -0.000568307 0)
(0 -0.000109978 0)
(0 -0.000771449 0)
(0 -1.31226e-05 0)
(0 3.28377e-06 0)
(0 -0.000665305 0)
(0 -0.000452486 0)
(0 -0.000478722 0)
(0 -0.000593852 0)
(0 -0.000288522 0)
(0 -0.000418128 0)
(0 -4.20624e-05 0)
(0 -0.000109401 0)
(0 -0.000459624 0)
(0 -0.00060642 0)
(0 -0.000664227 0)
(0 -0.000506753 0)
(0 -0.000440624 0)
(0 6.30342e-06 0)
(0 -0.000341593 0)
(0 -0.000907821 0)
(0 -0.000604783 0)
(0 -2.14014e-05 0)
(0 -6.33915e-06 0)
(0 -0.000531932 0)
(0 -0.000490125 0)
(0 -0.00053963 0)
(0 -0.000874269 0)
(0 3.97625e-06 0)
(0 -0.000420608 0)
(0 -0.000108389 0)
(0 -9.30498e-05 0)
(0 -0.000254302 0)
(0 -2.49283e-06 0)
(0 -0.000324938 0)
(0 -4.91308e-05 0)
(0 -0.000168657 0)
(0 -0.000579228 0)
(0 -0.00047332 0)
(0 -0.00031356 0)
(0 -6.8615e-05 0)
(0 -0.000105196 0)
(0 -0.000528656 0)
(0 -0.000244881 0)
(0 4.10814e-06 0)
(0 -9.49831e-05 0)
(0 -0.000100424 0)
(0 -0.000203297 0)
(0 -1.9504e-05 0)
(0 -7.0822e-05 0)
(0 -0.000790674 0)
(0 -0.0003871 0)
(0 -0.000233687 0)
(0 -0.000542627 0)
(0 -0.000884871 0)
(0 -0.000150874 0)
(0 -0.000654921 0)
(0 1.613e-06 0)
(0 -2.30505e-06 0)
(0 -0.000178896 0)
(0 -0.00052407 0)
(0 -0.000229648 0)
(0 -0.000105695 0)
(0 -0.000448994 0)
(0 -0.000449009 0)
(0 -5.28635e-05 0)
(0 -0.000215028 0)
(0 -0.000503185 0)
(0 -0.000566027 0)
(0 4.01096e-06 0)
(0 -4.77457e-07 0)
(0 -0.000106559 0)
(0 -0.000432237 0)
(0 -0.0001015 0)
(0 -0.000743505 0)
(0 -0.000444437 0)
(0 -0.000520919 0)
(0 -0.00010975 0)
(0 -0.000377394 0)
(0 -0.000463787 0)
(0 6.62713e-06 0)
(0 -0.000351569 0)
(0 -0.000345981 0)
(0 -2.95269e-05 0)
(0 -0.000583497 0)
(0 2.58743e-06 0)
(0 -6.42209e-05 0)
(0 -0.000305082 0)
(0 -4.09288e-05 0)
(0 -0.000424591 0)
(0 -0.000419028 0)
(0 -0.000796623 0)
(0 -0.000413926 0)
(0 4.18793e-06 0)
(0 -0.000612457 0)
(0 -0.000291705 0)
(0 4.02077e-06 0)
(0 -0.000123418 0)
(0 -5.9656e-05 0)
(0 5.97401e-06 0)
(0 -3.86579e-05 0)
(0 -0.000193367 0)
(0 -1.09987e-07 0)
(0 -0.000765081 0)
(0 7.62346e-07 0)
(0 -0.000354495 0)
(0 -0.000464447 0)
(0 -0.000145057 0)
(0 6.60695e-06 0)
(0 -0.000217191 0)
(0 -0.000314887 0)
(0 -0.00034998 0)
(0 -0.000294464 0)
(0 -2.91541e-05 0)
(0 -0.000120205 0)
(0 -6.83794e-05 0)
(0 -0.000505438 0)
(0 -0.000310596 0)
(0 -0.000127794 0)
(0 -0.000162173 0)
(0 -0.000649615 0)
(0 -0.000260714 0)
(0 -0.000576261 0)
(0 -2.09893e-05 0)
(0 6.5029e-06 0)
(0 -0.000417122 0)
(0 -0.000199447 0)
(0 -0.000204262 0)
(0 -0.000166481 0)
(0 -0.000379214 0)
(0 6.63569e-06 0)
(0 -0.000543336 0)
(0 -0.000669518 0)
(0 -0.000132956 0)
(0 -0.000428827 0)
(0 -0.000410894 0)
(0 -2.7389e-05 0)
(0 -0.000603629 0)
(0 -0.000363273 0)
(0 -3.04285e-05 0)
(0 -0.000112739 0)
(0 -0.000563581 0)
(0 -0.000392667 0)
(0 -0.000553489 0)
(0 -3.93842e-05 0)
(0 -0.000678544 0)
(0 -0.000101268 0)
(0 -0.000343105 0)
(0 -0.000422187 0)
(0 -0.000177589 0)
(0 -0.000482828 0)
(0 -2.08952e-05 0)
(0 -0.000571161 0)
(0 -0.000113214 0)
(0 -0.000693005 0)
(0 -8.85233e-06 0)
(0 -0.000329896 0)
(0 -2.70062e-06 0)
(0 -0.000360461 0)
(0 -0.000566826 0)
(0 -0.000872034 0)
(0 -0.000361723 0)
(0 -5.50369e-05 0)
(0 -0.000659717 0)
(0 -0.000398217 0)
(0 -0.000124928 0)
(0 -0.000299329 0)
(0 -0.000664639 0)
(0 -0.000255242 0)
(0 -4.19608e-05 0)
(0 6.60827e-06 0)
(0 2.96623e-06 0)
(0 -0.00019157 0)
(0 6.61345e-06 0)
(0 -0.00019027 0)
(0 -0.0003086 0)
(0 -5.96135e-05 0)
(0 -4.9462e-05 0)
(0 -0.000480402 0)
(0 6.60083e-06 0)
(0 -0.000540021 0)
(0 -0.000117304 0)
(0 -0.000565936 0)
(0 -0.000389446 0)
(0 -0.000558491 0)
(0 -0.000423451 0)
(0 -0.000323062 0)
(0 -0.000653864 0)
(0 4.36075e-06 0)
(0 -0.000452924 0)
(0 -0.000412866 0)
(0 -1.37086e-05 0)
(0 -0.000601767 0)
(0 -0.000222265 0)
(0 -0.000633974 0)
(0 -0.000166278 0)
(0 -0.000540882 0)
(0 -2.2457e-05 0)
(0 -0.000245946 0)
(0 -0.000495402 0)
(0 -0.000313047 0)
(0 6.23727e-06 0)
(0 -1.77709e-05 0)
(0 -0.000738309 0)
(0 -0.000528107 0)
(0 -0.000505772 0)
(0 -0.000635032 0)
(0 2.73088e-06 0)
(0 -0.000662722 0)
(0 -0.00050068 0)
(0 -0.000139883 0)
(0 -0.000463293 0)
(0 -0.000476822 0)
(0 -0.000666507 0)
(0 -0.000612497 0)
(0 -6.23773e-05 0)
(0 -0.000572812 0)
(0 -0.000709266 0)
(0 -0.000254378 0)
(0 -0.000555943 0)
(0 -0.000930705 0)
(0 -3.76096e-05 0)
(0 3.62474e-06 0)
(0 -0.000352377 0)
(0 -0.000398259 0)
(0 -0.000803835 0)
(0 -0.000164955 0)
(0 -0.000267575 0)
(0 -0.000217356 0)
(0 -0.000525392 0)
(0 -5.72209e-05 0)
(0 -0.000285143 0)
(0 -0.000533051 0)
(0 -0.000312606 0)
(0 -0.000479141 0)
(0 -0.000518086 0)
(0 -1.71595e-06 0)
(0 -7.90419e-05 0)
(0 -0.000162323 0)
(0 -0.000176546 0)
(0 -7.35996e-05 0)
(0 -0.00011599 0)
(0 -8.39137e-05 0)
(0 -7.75272e-05 0)
(0 -0.000226903 0)
(0 -9.43282e-06 0)
(0 -0.000433002 0)
(0 -0.000488126 0)
(0 -0.00045963 0)
(0 -3.86004e-05 0)
(0 -4.92411e-05 0)
(0 -7.51569e-05 0)
(0 1.67363e-06 0)
(0 6.59446e-06 0)
(0 -1.4446e-05 0)
(0 -0.000434974 0)
(0 -0.000258842 0)
(0 -5.27744e-05 0)
(0 -0.000777816 0)
(0 -4.21589e-07 0)
(0 -3.12046e-05 0)
(0 3.79938e-06 0)
(0 -0.000244462 0)
(0 6.36384e-06 0)
(0 -0.000112282 0)
(0 -9.6896e-05 0)
(0 1.89243e-06 0)
(0 -0.000130125 0)
(0 -0.000538134 0)
(0 -0.00019397 0)
(0 -0.000636145 0)
(0 2.983e-06 0)
(0 -0.000416217 0)
(0 -7.29481e-05 0)
(0 -0.000661977 0)
(0 -0.000163182 0)
(0 -0.000570496 0)
(0 6.53774e-06 0)
(0 2.46098e-06 0)
(0 -0.000178983 0)
(0 6.59028e-06 0)
(0 2.0631e-06 0)
(0 -0.000155686 0)
(0 -0.000141118 0)
(0 -5.78956e-05 0)
(0 -0.000703791 0)
(0 6.24003e-06 0)
(0 -0.000453359 0)
(0 -9.96563e-06 0)
(0 6.6119e-06 0)
(0 -0.00019037 0)
(0 -0.000508788 0)
(0 -0.000511522 0)
(0 -0.000199956 0)
(0 -0.00052477 0)
(0 -0.000155293 0)
(0 -5.38952e-05 0)
(0 -0.000346432 0)
(0 -0.00057771 0)
(0 -0.000255985 0)
(0 -0.000512597 0)
(0 -0.000319313 0)
(0 -0.000148403 0)
(0 -0.000662849 0)
(0 -0.000544556 0)
(0 -0.000233537 0)
(0 -7.13309e-05 0)
(0 -0.000574674 0)
(0 -2.43381e-05 0)
(0 -0.000628416 0)
(0 -7.96945e-05 0)
(0 -0.000167982 0)
(0 -1.66136e-05 0)
(0 -0.000543654 0)
(0 -0.00066669 0)
(0 -5.8691e-05 0)
(0 -5.79965e-06 0)
(0 -0.000671749 0)
(0 -0.000228122 0)
(0 -1.657e-06 0)
(0 -0.000109242 0)
(0 6.49638e-06 0)
(0 -0.000666219 0)
(0 -0.000132815 0)
(0 5.88472e-06 0)
(0 3.80622e-06 0)
(0 -0.000494459 0)
(0 -0.000496176 0)
(0 -0.000227943 0)
(0 -0.00012411 0)
(0 -5.52763e-05 0)
(0 -0.000320952 0)
(0 5.8807e-06 0)
(0 -0.000136853 0)
(0 -3.03905e-05 0)
(0 -0.000414316 0)
(0 -0.000480134 0)
(0 6.59783e-06 0)
(0 -0.000222289 0)
(0 -0.000392894 0)
(0 -7.64425e-05 0)
(0 6.34628e-06 0)
(0 -0.000563651 0)
(0 -0.000809583 0)
(0 -0.000897663 0)
(0 -0.000418066 0)
(0 -0.000197767 0)
(0 -6.69399e-05 0)
(0 -0.000365545 0)
(0 -0.000530847 0)
(0 -0.000660055 0)
(0 -0.000311104 0)
(0 6.40057e-06 0)
(0 -3.18308e-05 0)
(0 -0.000163802 0)
(0 6.49207e-06 0)
(0 -6.42919e-05 0)
(0 -0.000727914 0)
(0 -0.000638687 0)
(0 -0.000554462 0)
(0 -2.86317e-06 0)
(0 -2.07961e-05 0)
(0 -6.62419e-05 0)
(0 -0.000807184 0)
(0 -0.000448447 0)
(0 -0.000569725 0)
(0 -0.000389006 0)
(0 -5.90074e-05 0)
(0 -0.000600312 0)
(0 -1.73204e-05 0)
(0 -0.000521048 0)
(0 -0.000398547 0)
(0 1.38307e-06 0)
(0 6.57303e-06 0)
(0 -0.000428401 0)
(0 -6.94497e-06 0)
(0 -5.53387e-05 0)
(0 -0.000119657 0)
(0 -0.000101858 0)
(0 -0.00072765 0)
(0 6.5062e-06 0)
(0 -7.0481e-05 0)
(0 -0.000585234 0)
(0 -0.00067949 0)
(0 -0.000531164 0)
(0 -0.00024742 0)
(0 -8.78927e-05 0)
(0 -0.000142838 0)
(0 -0.000597436 0)
(0 -0.000540015 0)
(0 -0.000474375 0)
(0 -1.37311e-05 0)
(0 6.28304e-06 0)
(0 -0.000862672 0)
(0 -0.000359534 0)
(0 -3.10206e-06 0)
(0 4.58322e-06 0)
(0 -0.000141024 0)
(0 -5.75405e-05 0)
(0 5.71452e-06 0)
(0 -0.000910007 0)
(0 -0.000271583 0)
(0 -0.000347798 0)
(0 -0.000228354 0)
(0 -1.50442e-07 0)
(0 -0.000576534 0)
(0 -3.37512e-05 0)
(0 -5.83055e-06 0)
(0 -5.03363e-05 0)
(0 -0.000235824 0)
(0 -0.000521933 0)
(0 -1.37925e-06 0)
(0 -3.16542e-05 0)
(0 -0.00052405 0)
(0 -2.21548e-05 0)
(0 -0.00011507 0)
(0 6.41928e-06 0)
(0 -0.000461809 0)
(0 -0.000355954 0)
(0 -2.55222e-05 0)
(0 -0.000208808 0)
(0 -0.000190709 0)
(0 -0.000118279 0)
(0 -0.000654395 0)
(0 -0.00011231 0)
(0 1.67727e-06 0)
(0 -0.000153121 0)
(0 -0.000616133 0)
(0 -0.000205741 0)
(0 6.59785e-06 0)
(0 -0.000740866 0)
(0 -0.000631723 0)
(0 -0.000763563 0)
(0 -1.20492e-05 0)
(0 -0.000654523 0)
(0 -0.000354255 0)
(0 -0.000356387 0)
(0 -0.000652281 0)
(0 1.86402e-06 0)
(0 4.35644e-06 0)
(0 -0.000327642 0)
(0 -1.56423e-05 0)
(0 6.21577e-06 0)
(0 6.47052e-06 0)
(0 -0.000633113 0)
(0 -0.000443077 0)
(0 -0.000661188 0)
(0 -0.000596249 0)
(0 -0.000452437 0)
(0 -0.000398351 0)
(0 -0.000571813 0)
(0 -0.000344338 0)
(0 -0.000545405 0)
(0 -0.00014866 0)
(0 6.52549e-06 0)
(0 -5.50043e-05 0)
(0 -0.000153186 0)
(0 -0.000396359 0)
(0 -0.000568325 0)
(0 -0.000215749 0)
(0 -9.91239e-05 0)
(0 -0.000338091 0)
(0 -0.000653929 0)
(0 -5.096e-05 0)
(0 -9.49531e-05 0)
(0 -3.5502e-07 0)
(0 -0.000225819 0)
(0 -0.000870589 0)
(0 2.69788e-06 0)
(0 -0.000293394 0)
(0 -0.000725979 0)
(0 -0.000563437 0)
(0 -3.7605e-05 0)
(0 -0.00018268 0)
(0 -0.000209273 0)
(0 -0.000188382 0)
(0 -0.000490746 0)
(0 -0.000478591 0)
(0 -5.39486e-05 0)
(0 -0.000239512 0)
(0 -0.000566926 0)
(0 -1.52468e-05 0)
(0 -0.000498168 0)
(0 -6.84596e-05 0)
(0 2.08646e-06 0)
(0 -5.84627e-05 0)
(0 -0.000170959 0)
(0 -6.03012e-05 0)
(0 -0.000422898 0)
(0 -1.5164e-05 0)
(0 -4.06083e-05 0)
(0 -6.59661e-05 0)
(0 6.60884e-06 0)
(0 -0.00056963 0)
(0 -0.000935303 0)
(0 -0.000605128 0)
(0 -0.000531405 0)
(0 -0.00046134 0)
(0 -0.00031613 0)
(0 -0.000202376 0)
(0 -0.000429264 0)
(0 6.3927e-06 0)
(0 -0.000455747 0)
(0 -7.19314e-06 0)
(0 -1.41744e-06 0)
(0 -0.000664847 0)
(0 4.17957e-06 0)
(0 -0.00034441 0)
(0 -4.94454e-05 0)
(0 6.51764e-06 0)
(0 -0.000590039 0)
(0 -8.75487e-05 0)
(0 -0.000901014 0)
(0 6.41538e-06 0)
(0 -0.000209124 0)
(0 -5.45143e-05 0)
(0 -0.000630746 0)
(0 -1.17984e-05 0)
(0 -0.000378387 0)
(0 6.58895e-06 0)
(0 -0.000651282 0)
(0 -5.99317e-05 0)
(0 -0.00089215 0)
(0 -0.000426136 0)
(0 -6.63938e-05 0)
(0 -0.000652523 0)
(0 6.60857e-06 0)
(0 6.04069e-06 0)
(0 -0.000143057 0)
(0 -2.64458e-07 0)
(0 -0.000116181 0)
(0 6.38008e-06 0)
(0 -8.52661e-05 0)
(0 -0.000573511 0)
(0 -3.51093e-05 0)
(0 -0.000131489 0)
(0 -9.25009e-05 0)
(0 -0.000501928 0)
(0 -6.96184e-05 0)
(0 -0.000403781 0)
(0 -6.80365e-05 0)
(0 -0.000431178 0)
(0 -0.000334583 0)
(0 -0.000354769 0)
(0 6.43648e-06 0)
(0 -2.20992e-05 0)
(0 -0.000502427 0)
(0 7.32779e-07 0)
(0 -1.54337e-05 0)
(0 -0.000575538 0)
(0 -6.49439e-05 0)
(0 -0.000110868 0)
(0 -3.77493e-05 0)
(0 -0.000129548 0)
(0 -0.000639885 0)
(0 5.94321e-06 0)
(0 -0.000500467 0)
(0 -0.000585999 0)
(0 -0.000401415 0)
(0 -2.38231e-05 0)
(0 -0.000118866 0)
(0 -0.000666533 0)
(0 -0.000115469 0)
(0 -0.000429186 0)
(0 -8.03698e-05 0)
(0 -0.000496645 0)
(0 6.21701e-06 0)
(0 -4.52925e-05 0)
(0 -0.000225693 0)
(0 -8.437e-05 0)
(0 -5.21895e-05 0)
(0 -0.000398953 0)
(0 -0.000603771 0)
(0 2.61578e-06 0)
(0 -8.91634e-05 0)
(0 -0.000212135 0)
(0 -0.000468139 0)
(0 -1.49406e-05 0)
(0 -0.000407498 0)
(0 -0.000464637 0)
(0 -0.000194355 0)
(0 -1.85035e-05 0)
(0 -4.38354e-05 0)
(0 -0.000127947 0)
(0 -0.000855757 0)
(0 -0.000553092 0)
(0 -0.000394485 0)
(0 -0.00047727 0)
(0 -0.000300553 0)
(0 9.17538e-07 0)
(0 -2.80214e-05 0)
(0 -0.000125789 0)
(0 -0.000638553 0)
(0 -0.000293172 0)
(0 -0.000572967 0)
(0 -6.05959e-05 0)
(0 -0.000397841 0)
(0 -0.0003488 0)
(0 -0.000420116 0)
(0 -4.13502e-05 0)
(0 -0.000130287 0)
(0 -0.000216227 0)
(0 -0.000109555 0)
(0 -1.80206e-05 0)
(0 -0.000326128 0)
(0 -7.76905e-05 0)
(0 -0.000241772 0)
(0 -0.00065751 0)
(0 -0.000196507 0)
(0 -0.000590908 0)
(0 -0.000637413 0)