/*--------------------------------*- C++ -*----------------------------------*\
| =========                 |                                                 |
| \\      /  F ield         | OpenFOAM: The Open Source CFD Toolbox           |
|  \\    /   O peration     | Version:  v2012                                 |
|   \\  /    A nd           | Website:  www.openfoam.com                      |
|    \\/     M anipulation  |                                                 |
\*---------------------------------------------------------------------------*/
FoamFile
{
    version     2.0;
    format      ascii;
    class       surfaceScalarField;
    location    "300";
    object      meshPhiCN_0;
}
// * * * * * * * * * * * * * * * * * * * * * * * * * * * * * * * * * * * * * //

dimensions      [0 3 -1 0 0 0 0];
oriented        oriented;


internalField   nonuniform List<scalar> 
14907
(
3.90714e-05
6.58964e-05
-0.000116698
-0.000190073
-0.000942936
0.0011182
0.00109724
-0.00129622
0.000128092
7.19631e-06
5.20188e-06
6.23122e-05
-0.000563925
0.00050137
0.000966245
0.000179974
-0.00123406
-0.000394647
-0.000792262
0.00118802
0.000490485
0.000363953
-0.000855715
5.4281e-05
-0.000915317
0.000875427
-0.000329486
0.000350732
-9.65427e-05
0.000357472
-0.000542332
0.000184851
0.000120733
-4.96736e-05
0.000955381
-0.000244719
-0.000824077
1.96737e-05
-0.000421537
0.000116138
-0.000162587
0.0013835
-0.00123443
-0.000122093
-0.000422138
0.000632937
0.000484289
-0.000526989
-0.000260264
0.000199505
1.04843e-05
-0.000177609
0.000210863
-0.000849662
0.00065546
0.000193438
-0.00126689
0.00160386
-4.50002e-05
-0.00121775
0.00123445
-1.76242e-05
0.000779278
-6.19774e-05
-0.000896803
0.000230157
-0.00128215
0.000759403
0.000842708
-0.00105403
-8.94979e-05
-0.0011873
0.00127209
0.000115878
-0.00103154
0.000989204
-3.48872e-05
-0.00105785
0.00106936
-0.000161159
-0.000692265
0.000874049
2.44979e-05
0.00103647
-0.00109463
0.00060116
-0.0001659
-0.000448316
0.000568834
-0.000308933
-0.000259913
-0.000571043
5.95859e-05
0.00137166
-0.000881731
-0.000518166
-0.00125515
8.50455e-05
0.00114253
0.000516337
-0.000597683
-0.000232152
-0.00106589
0.00129235
-0.00153324
0.00131998
0.000217696
9.20793e-05
0.000401478
0.00163879
-0.000399263
-0.00125527
-0.00039459
-0.000455441
-0.000137743
-0.00120446
0.00132517
0.00071247
-0.00110608
-0.000770937
0.000164819
0.00055014
0.000569019
-0.00050696
-0.00134476
3.21381e-05
0.00130841
0.000342301
0.000627166
-0.00100086
-0.00144127
0.00159591
-0.000152126
0.00154871
-0.00096439
-0.000601514
-0.00180385
-0.000116356
0.00192074
-9.99577e-05
0.00022906
-0.000103116
0.00300833
-0.00222417
0.00175505
-0.000822663
-0.000957322
0.000882784
0.00142801
-0.00234739
-0.001118
0.000880264
-0.000148408
0.00111899
0.000672109
-0.000812361
-0.000898126
0.001198
0.000395189
0.000935615
0.000507322
0.00121163
0.000422827
-2.27287e-05
-0.000394155
-0.00118506
0.00151606
-0.000272961
-0.00034348
-0.000937445
0.00115041
-0.000131725
-0.000620638
-0.000538003
0.00115192
-0.00116451
0.00113527
-9.97276e-06
-0.00119917
0.000410098
0.000775686
-8.23312e-05
-0.000853543
0.000934786
-0.000685296
0.000449064
0.000236128
0.000360619
-6.17842e-05
-0.000309489
-0.00176023
0.00261053
0.000243791
-0.000601808
-0.000220602
0.00105079
0.000178554
-0.00123195
-0.000850281
0.00100984
-0.000206616
-0.000405083
-0.00133506
-0.000585297
2.11891e-05
-4.20818e-06
-0.000335903
0.00033991
-0.000234562
-0.000996291
0.0012228
0.00111684
-0.000374676
-0.000741085
0.000534389
0.00100599
-5.96921e-05
0.000628318
-0.000947634
0.000741937
0.000145389
0.000160446
-0.00135324
0.00117993
-0.000179942
-0.00104706
0.000294721
-0.000321264
-2.01713e-06
-0.000268031
6.85817e-05
0.000142941
-0.00104242
0.000304934
0.00073598
-9.99678e-05
0.00029177
-0.000242812
-9.84557e-05
-0.000202084
-0.00100212
0.000125342
0.000849795
0.000438215
-0.000498225
0.000931667
-0.000987567
0.000414622
-0.0010603
0.0010508
0.000686637
-0.000197604
-0.00050364
0.000411777
-0.0012586
0.000829746
-0.000677778
0.000616337
4.90234e-05
0.000151751
0.00146629
0.000165759
-0.000928315
0.000786201
0.000175931
-0.000175931
0.000992787
-9.46268e-05
-0.00090244
-3.84403e-05
-0.000921241
0.000958028
-5.89198e-06
0.000157848
6.93123e-05
-0.00118344
0.00109864
0.000610513
0.000419578
-0.00103309
-0.000140722
-0.00027899
0.000354681
0.00110733
-0.000720533
7.92239e-06
-0.00100545
-0.00156369
0.00141904
-0.0001261
0.000398527
-0.000272071
5.55676e-05
0.000169309
-0.000197023
0.000153506
-0.00141252
0.0012311
-0.000390384
-0.000294967
0.000604855
-0.00123396
-0.000401504
2.75242e-05
0.000392805
-0.000687754
-0.000212318
0.000889449
-0.000182205
5.93352e-05
0.000615485
0.000280951
-0.000550894
0.00026985
-0.00037448
0.000206895
-0.000633184
0.00112253
-0.000694521
8.54264e-05
0.000576238
-0.000631813
0.000651304
-1.54821e-05
-9.1718e-05
0.00107986
-0.000375555
-0.000610428
-0.000650629
0.00101341
0.000241564
0.000701559
-0.000962456
0.0013628
-0.000756194
0.000486728
-0.000137612
-0.000345238
-0.00111365
0.000871483
9.39168e-05
0.000684448
-0.000799769
0.000692154
-0.000295153
-0.000397031
-0.000249418
0.00107027
-0.000825404
-0.00091749
0.00110292
-0.00121041
0.000997016
0.000206624
0.000449369
-0.000577203
0.000127784
-0.000648362
-0.000397547
-0.00162229
0.000180776
-0.000504461
-0.000539254
0.00124188
-0.000180346
-0.00109262
-0.000921994
0.000220305
-0.00131415
0.000167885
0.00111593
-0.000563903
-0.000483411
0.00104342
-0.00206336
-0.000341955
0.00233957
-2.85101e-05
9.88788e-05
-0.000624134
0.00120896
-0.000593645
-0.000703822
0.00265335
-0.00195832
-7.31861e-05
-0.000603943
-8.50148e-05
-0.00114118
0.00120858
-1.62601e-05
0.000882752
-0.000876042
2.64901e-05
-2.45081e-05
-6.85878e-05
-0.000235221
0.000901498
-0.000665666
0.000621842
-0.00054543
-7.6488e-05
-3.1083e-05
-0.000486293
0.000782666
0.000740941
4.98196e-06
-4.46554e-05
0.00140344
-0.00137375
-0.00132955
0.000202052
-5.92034e-05
-0.00115663
0.00061054
-0.000224537
-0.000386048
0.000137765
-0.000509246
0.00037147
-0.000222988
0.00107161
-0.000854129
-0.000782104
0.000497308
0.000264446
0.000814419
-0.000839761
0.000763421
-0.000874573
5.29749e-05
-0.000631006
0.000701131
0.000499708
-0.000983381
0.000481716
0.000493025
0.000117431
0.000224132
0.00032834
-2.12584e-05
0.000643011
-0.00277887
0.0023336
0.00040614
-7.30063e-06
6.52082e-05
-0.000252049
0.00082531
-0.000387479
0.000756253
0.00016369
-0.000920717
-0.00126027
0.00109816
0.000157777
-5.27011e-05
0.00112368
-0.00106581
-0.000366145
-0.000108399
0.000474535
0.00011962
-0.00067571
0.000510691
0.000767926
-0.000851265
-0.00133877
0.00128701
3.55955e-05
-0.00144381
0.00138471
0.000288126
0.000280687
-0.00147057
0.000952421
0.000471875
0.00121524
-0.000997717
0.00116116
-0.00131621
-0.000364148
0.000644998
-0.00079198
-0.000171753
0.000960459
-0.000487747
0.00103359
-0.000573573
-0.000538466
0.000180586
0.000357866
-0.00132183
0.00119265
0.000119064
2.67636e-05
0.000551119
-0.000577945
-0.000477928
-0.000873079
-0.0010139
0.000779173
0.000332802
0.000491873
-0.000617669
0.0011093
-0.000494626
0.000851457
-0.000530583
-0.000321498
-0.00142748
0.00144335
-2.2601e-05
-0.000481998
5.19161e-05
0.000366702
0.000506785
3.00494e-05
0.00042983
0.0007101
-0.00116202
-0.00129574
0.00103813
0.000252103
0.000217166
-0.000722403
-0.00037195
0.000112221
0.000235004
0.00075155
4.08678e-06
-0.0010774
0.00136737
0.000221338
-0.00154774
-0.000401669
0.000428385
0.00160625
-0.00168434
0.000373282
3.41779e-05
-0.000138745
-3.4602e-06
0.00076107
-0.00136797
0.00013223
0.000345171
0.000505391
0.000148233
0.00012052
-0.000139915
-0.000672719
0.00117025
0.000732719
-8.38954e-05
-0.000649192
1.68063e-05
0.00136902
-0.000756686
-3.68258e-05
-0.000941083
0.000189867
0.000695617
0.000818137
-0.00106763
8.39086e-05
0.00026946
0.000790055
-0.00106574
-9.49114e-05
0.000177756
-0.000121969
0.00128334
-0.00115638
0.00020157
-0.00153443
0.0013178
-0.000788878
0.000107645
0.000680671
-0.00126676
-0.000259288
0.000364105
0.000721355
-0.00110367
-1.59282e-05
-0.00129334
0.00130598
0.00012294
0.00061859
-0.000742852
2.2366e-05
0.000177241
-0.00016335
0.000647644
-0.00107386
0.000422063
0.000446973
-0.00223707
0.000880823
-0.000794972
0.000786301
8.01226e-06
-0.000471592
0.0002836
-0.00200845
0.00242209
-0.000563562
-0.000805226
0.00100264
-0.00110321
0.00110119
-0.000874537
-0.000155656
-3.25405e-05
-0.000162815
6.84058e-05
0.00179491
-0.000606893
-0.00120259
0.000251861
0.0018969
-0.00214295
-0.000612439
-0.000170137
-0.000613668
0.000813653
-0.000100427
-0.000473121
-0.000970416
7.38781e-06
-0.000335054
0.000116296
0.00043838
-0.000427486
0.00052845
-0.000325893
-0.00107572
0.00113
-0.00321073
0.000875149
0.00228359
-2.18815e-05
-0.000275252
-0.00038484
0.000456053
-8.36625e-07
-2.16112e-06
0.000355397
0.00112389
-0.00131759
0.000163377
-0.000717175
-7.22208e-05
0.000667608
-0.000895098
-0.000220994
-0.000317478
-0.00021801
-0.00104502
-0.00145229
0.00105986
0.000386953
-0.00119143
0.0010174
0.00162463
-0.000808529
-0.000817754
0.000637845
0.000448279
-0.00108401
0.000362149
0.00140848
0.000353536
-0.000567864
0.000204913
-0.000364348
-0.000921708
0.00132559
0.000254265
0.000892194
-0.0010981
-0.000118311
-0.00103812
0.00186114
-0.000851503
0.000356439
-5.81276e-05
0.0003252
-0.000853013
-0.000446835
-0.00181146
-5.71985e-05
0.000789516
-0.000357722
0.00102695
-0.000876372
-0.000152287
-0.000573927
-0.000751764
0.00251453
-0.00225758
-0.00105809
0.000984127
0.000106459
0.00168045
-0.0011607
-0.000550969
-0.00233151
0.000210707
7.39106e-05
-0.00142977
1.4997e-05
-6.49396e-05
5.63576e-07
-0.00116011
0.000219242
0.000472866
0.00141324
-6.9647e-05
-4.52498e-05
0.00091473
-0.000925457
-0.000739601
0.00138008
0.000273899
0.000801433
0.000170312
-0.000514154
0.000425978
1.58382e-05
0.00125184
-0.000159682
-0.00118052
0.00113336
-0.00153874
0.000368927
0.00115673
0.000221648
-0.000788687
-0.000180451
6.55409e-05
0.000333055
-4.20854e-06
1.95544e-05
-0.000928371
2.27325e-05
0.000971459
-0.000850192
-2.80867e-05
-0.0003019
0.00031464
0.000506246
9.03441e-06
0.000296908
0.000103012
-0.000451613
-0.000142
-0.000848002
-0.000511615
-0.0013025
0.00182034
0.00120734
-3.67276e-05
-0.00118378
-0.001131
0.000327758
0.000801479
-0.000714891
0.00074786
-3.34759e-05
0.00165865
-0.00118991
0.00103629
-0.000656935
-0.000380161
0.00044924
1.52373e-05
-0.000338999
0.00144809
0.000220408
0.00118488
-0.00100655
0.000297405
0.000164277
-0.000787184
-0.000179135
0.000962827
-0.000864799
0.000283086
0.000580882
0.000108716
0.00198366
-0.00151023
-0.000756294
0.00070519
-0.00177089
-0.000392411
0.000321504
-0.0013833
0.00133326
2.58194e-05
-0.00120635
-4.87721e-05
0.000871996
-0.000810097
0.000280979
0.000757465
-0.00104943
0.000534626
-0.000621007
-0.000153744
-0.00010141
4.81539e-05
-0.000551779
-0.000971854
-0.00016081
-1.13678e-05
-0.000321457
0.000432567
0.00126044
-0.000100107
-1.66071e-07
-0.000588592
0.00055204
-1.86654e-05
0.00120605
0.000463797
3.02823e-05
-0.00049411
0.000528619
-0.000866434
0.00108267
-0.000336743
0.000222908
2.14195e-07
0.00101062
6.34377e-05
0.00147301
-0.00102111
-0.000463544
0.000379757
-0.0010005
0.00123814
-0.000181942
-0.000990545
0.000710185
0.000279401
0.00089327
-0.00139784
-2.66524e-05
0.00121694
-0.000665918
-2.43321e-05
-0.000788953
7.8206e-05
0.000697038
-3.51428e-06
0.000130793
-0.000233435
0.000867792
-0.000635593
-1.33925e-05
-1.13775e-05
-0.00079844
-0.00204406
0.00194364
9.3227e-05
-0.000226807
-0.00170981
0.000995988
0.000691497
0.00130907
-0.00146832
-0.000576545
0.00173044
-0.000490823
-0.00129416
-0.00105216
0.0013934
0.00110915
0.000249284
-0.000981452
0.00124899
-0.00158272
0.000356082
0.00118946
-1.84924e-05
0.000573333
-0.000597086
-0.000499333
-0.000492181
0.000332196
-0.000963941
0.00212002
-0.000922678
-0.00122441
0.000237533
0.00122366
-0.000113628
-4.98607e-05
-2.39444e-05
-0.000608308
3.84512e-05
-0.000107183
-0.000160464
-0.000780588
-0.000947266
-0.000862045
0.000654896
0.000206236
-0.00208582
-0.000244699
0.00230701
3.17899e-05
-0.000743594
0.000645125
0.000535846
0.00109732
5.384e-05
-5.384e-05
0.000897077
-0.000814613
0.000818395
-0.000491708
-3.74064e-05
-0.000972446
8.72012e-05
0.0009606
0.000550301
-0.000100989
0.00111081
-0.000989858
-0.000190247
6.58968e-05
-0.00101904
0.00095211
0.000622706
-0.000857278
-0.000245127
0.0012927
0.000135532
-0.00128909
0.00115885
0.000372301
-0.00125033
3.65233e-05
0.00119744
-0.000316584
-0.000479108
0.00125849
-3.53022e-05
-0.000996728
-0.00206613
0.000265307
0.000383891
-0.000383891
-0.000120006
-0.0008958
0.000979023
-0.000451028
0.00160133
-0.00114694
0.000125119
-0.000743866
0.000584938
-0.000353229
-0.00104846
0.00019609
0.000438062
0.00072498
1.0539e-05
0.00131281
0.000685323
0.000782221
0.000256506
-0.00104083
0.000235884
0.000315182
0.000686978
0.000429016
0.00247626
-0.000511369
-0.00202094
0.000473936
-0.000249816
-0.00088268
-0.000173284
-1.19665e-05
-0.00108664
0.000232261
0.000491864
9.13039e-05
-0.000191325
0.000586491
-0.00063119
-0.00025909
0.00144288
-0.00116484
0.000628522
-7.54182e-05
-0.000489205
-1.0006e-05
-0.000205797
0.0013499
3.0566e-05
0.000536009
-0.00067278
-0.00105395
0.00080703
-0.000211039
-0.000596498
-1.12723e-05
-0.000440554
0.000320766
-0.000362949
-0.0006947
0.000804394
-0.000110898
0.00161255
-6.01286e-05
-0.00164502
-0.000856229
-0.000990163
-0.000561139
-0.00123738
-0.000126682
0.00129677
-0.00147445
7.80023e-05
0.000535639
0.00184281
0.00101793
-0.000271447
-0.000747244
-0.00194591
-0.00130863
4.11948e-05
0.00107247
-3.8887e-05
-0.00106034
0.000528172
-0.000170712
-0.00131683
0.00131579
-0.000532729
0.00141297
-4.69496e-05
-0.00147212
0.00155083
-0.000185589
0.000220599
0.000523564
-0.000807912
0.00028361
0.00115916
-0.000157199
-0.0010805
-0.00146589
0.00146134
3.00295e-06
0.000235853
2.20149e-05
-0.000257965
0.00147213
0.000224309
0.000236728
-0.000461301
-0.00142314
0.000264335
0.00116262
-0.000992317
0.000607349
0.000415578
-0.00117521
0.000565797
0.000528748
-0.000109182
0.000515199
-0.000406033
0.000638763
-0.000108665
-0.000469556
-0.000464732
-0.000957923
-0.000172045
-0.000979848
0.00113704
-0.000755957
0.000281082
0.000525636
-0.00104006
-0.000869954
-0.000850623
0.00180959
0.00150203
-0.000904843
-0.00231097
0.000206841
6.91639e-05
6.71814e-05
-0.000598339
0.000656672
0.000605668
-7.12932e-06
-0.000493186
0.000103827
0.000389339
0.000758688
-9.82755e-06
-0.000144928
0.000409626
-0.00115364
-4.68512e-05
0.00119507
0.000954877
1.61663e-06
0.000725148
-0.00107726
0.0003442
-1.65647e-07
-6.04108e-05
0.00132752
-5.72463e-05
0.000521516
0.000184272
-0.00147981
-4.96269e-05
0.00081346
-0.00075606
-0.000605021
0.00054334
0.000609825
-0.00086303
0.00123028
0.000853144
-0.00168412
0.000187768
0.00123021
-7.34414e-05
-0.00116729
-0.000947679
3.12975e-06
0.00125078
1.4987e-05
-0.00108808
0.00127713
0.0011221
2.70273e-06
-0.00115665
-0.000875107
0.00122237
-0.000352534
0.000238354
-0.000578602
0.000908999
0.000169202
-0.00039091
-0.000151427
0.000102305
-0.00119065
0.000955561
0.00231044
-2.99231e-05
-0.000135813
0.00051174
-0.000474998
4.49689e-06
0.00102673
-0.000591155
0.00133602
0.00114102
-0.00188811
0.000915509
4.75091e-05
-0.000579814
-0.00124492
0.00114958
6.61063e-05
0.000351739
0.000556418
-0.000908135
0.00144376
-0.00110456
0.000127939
-6.15664e-05
-7.61255e-05
0.000219855
-0.00094685
0.000724249
-0.000208653
1.28738e-05
9.50192e-05
-0.000157177
-0.000830764
-0.000919844
0.000409555
0.000683689
-0.000460902
0.0019605
-0.00151216
-0.00167078
0.00060773
0.00105451
0.000816018
0.000301496
0.000505693
0.000294077
-0.00117615
0.000613561
-0.00146201
0.00165272
0.00049058
-0.000560611
-3.02919e-05
0.000706119
-0.000758131
6.92623e-05
-0.00191846
0.000110565
0.00172683
-0.00034219
-1.80363e-05
-2.79118e-05
0.000457545
-0.000329903
-0.000192192
0.000627194
-0.000283935
-0.000293291
-0.000856191
0.000945354
0.00127646
-0.000592443
0.0025822
-0.00135238
-0.00122999
0.00111028
0.00148052
0.000148816
-0.00102503
0.000534947
-0.000520188
-7.40132e-05
-0.00115083
0.00116447
-1.52061e-05
0.00101228
4.56866e-06
3.55434e-05
0.00118094
0.000102631
-0.000292357
-0.00169983
7.2085e-05
0.00143026
0.000779494
0.00019966
-0.000430708
0.000585474
-0.000154854
-0.00121699
0.00119567
7.10722e-06
-0.00139345
-0.000770844
0.00070336
7.25164e-05
-0.000884769
0.000750691
0.000127665
-0.000821984
0.0010377
-0.000270995
-0.000197288
-0.00116081
-0.00115281
2.84036e-05
-0.000146464
-0.000346731
0.000480577
-0.000244783
0.000527285
-0.000564312
3.67411e-05
0.00133976
-0.000923854
0.000677372
-6.32739e-05
-0.000843135
-9.6566e-05
-0.00180909
0.00191002
-0.00101672
0.00118245
-0.000176527
0.000425288
0.000240052
-0.000665449
0.000574029
-8.10986e-05
-0.000185461
-0.00112973
0.00129501
8.19226e-06
0.000161954
-0.000223441
4.20022e-07
0.00118125
5.94688e-05
0.000560668
0.000917663
3.72723e-06
4.63933e-05
0.00050024
-0.000362486
0.000194159
-0.000808403
0.000462655
-0.000324061
9.98068e-06
-0.00139808
0.00138411
-0.000269794
-7.55846e-07
0.000164386
-0.00109985
0.000938456
0.000200603
0.0012188
0.00125513
-0.00132476
6.37841e-05
-0.00127955
0.00118741
7.73371e-05
-0.00090251
-0.000462533
0.00189103
-0.00142151
-0.000486745
-0.00108265
0.00114224
0.000861354
-0.00211618
0.000284241
0.00105064
-0.000916829
0.000197394
0.00071823
-9.86927e-07
5.67216e-05
0.00179184
-0.00190792
2.30106e-05
-0.00121365
0.00114766
-0.000843923
0.000623772
0.00115894
-0.00118221
-0.000122502
-7.37727e-05
-0.000743781
-0.000657374
0.000653363
2.40775e-05
-0.00125671
0.00113756
-0.00041852
-0.00104924
0.000967618
7.7437e-05
0.00015539
0.000996398
-0.00126574
-0.000957291
-0.000312752
-0.000144885
-0.000706016
-0.000911866
0.000823615
5.78414e-05
0.000355035
-0.000672414
0.000673599
-0.000556122
9.52627e-06
-7.23531e-05
0.00112934
-0.00107258
0.000536632
0.000698237
0.00110315
9.54476e-06
0.000182865
0.00117612
0.000768571
-0.0019403
-0.000430806
-0.000186072
0.000575133
-0.000389139
-0.00137624
7.79013e-05
0.00128927
9.16491e-06
-0.00015285
0.000293685
0.000846925
-0.000757524
-9.09086e-05
0.00154661
-0.000751994
-0.000855198
-3.42132e-06
-0.000253228
0.000724287
-6.91536e-05
-0.0006755
-0.000711364
6.05099e-05
0.000690365
0.000213883
-0.000213883
-0.000364118
0.00103421
-0.000683216
-0.00110985
0.000251913
0.000361634
0.000118811
0.00112498
9.15148e-05
0.000809523
-5.94888e-05
-0.000920945
0.000128878
0.000774899
0.000573606
-0.00117699
-0.00121347
0.00106682
0.000136105
-0.000654936
4.54944e-05
-0.00183123
0.000112638
0.00171605
0.000712932
-0.0007659
0.00167751
-0.000348116
0.000106375
-0.000888658
0.000765726
-0.000118277
-0.00117935
-0.000132764
-0.0007543
-0.000141885
0.00147142
-0.00189519
0.00161856
0.000178896
0.000576446
-0.000585371
-0.000126595
0.000770903
-0.000220655
-0.000550592
0.00124273
-0.00147786
-0.000582704
0.000936524
4.7061e-05
0.000562316
0.00166601
-0.00171102
4.55253e-05
0.000357838
0.0010439
-0.00142632
-8.46652e-05
0.0012854
-0.00120226
-0.000843249
0.000604955
-0.00034505
-0.00103945
0.000813678
-5.63014e-05
0.000618132
0.000227389
0.000950037
-6.16867e-05
-0.000466886
0.00118102
0.00143635
-0.00214271
0.00116534
-0.0012038
0.000379477
-0.00020028
5.02071e-05
-0.000780392
0.000915689
-0.000382059
0.000152197
0.000632507
-0.0010109
1.72288e-05
-0.000605251
0.000595449
0.000234436
0.000614791
-5.29501e-05
-0.000561911
0.0013844
-0.00121653
0.000909944
0.000452631
-0.00136454
0.0010377
0.000193683
-0.000302604
4.11585e-05
0.000210489
0.00111248
-0.00108299
-3.32877e-05
0.00129442
-0.00126614
-5.60643e-05
-0.000555061
1.76278e-05
0.00120367
-0.000725981
-0.000192043
0.000611542
-0.000186387
0.00214249
-0.000281793
0.000694642
-0.000413372
-0.00113191
-0.000859764
0.000773345
6.24671e-05
0.000379694
-0.00040966
-0.000336856
0.00176677
0.000298523
-0.000879901
0.00177682
-0.00217005
0.000427891
0.00119197
-0.00134725
0.00122119
8.41477e-05
0.00115869
-0.000494955
-2.55617e-05
-6.88429e-06
-0.000161478
-0.000761642
-0.00169552
-0.000140079
-0.000832332
0.000341079
0.000490889
-8.4485e-05
0.0012257
0.00123269
7.85506e-05
0.00187498
-0.00196748
-0.00128316
0.00027864
-0.00116563
-0.000200561
0.00167075
-0.00163769
-0.000505198
0.00034702
2.2724e-05
-4.17508e-05
0.00106277
-0.000895082
-7.33486e-05
0.000564759
-0.000267363
2.55138e-05
-0.00132975
0.00130422
-0.000550205
-0.000282451
-4.6863e-05
0.000823257
-0.000685528
0.00078293
-0.000303571
-0.000479734
0.00057137
-0.000515853
-5.55827e-05
-0.000285193
0.000906423
0.00233456
-0.000523681
0.000452936
-0.00126418
0.00103903
-0.000396258
0.00116711
-8.60578e-05
-0.00108453
-3.94162e-06
-0.000637013
-8.22977e-06
0.000267007
-0.00107886
0.00029534
0.000175877
0.000126661
-0.000194037
1.72854e-05
-0.00119761
3.67802e-05
0.000580391
-0.000946133
0.000365565
0.00018896
0.000123164
-0.000380206
0.000784239
-0.00105198
0.000155656
-0.000388953
-0.000480199
-7.61584e-05
0.00112149
-0.00107138
-0.000303712
-0.000222942
0.00203446
-0.00101063
-0.00107947
-0.000696119
0.000913464
-0.000557474
2.63363e-05
0.00148969
-3.25994e-05
0.000655283
0.000245486
-0.000540666
-0.00104522
0.000315554
0.000729685
-0.000227334
-0.000888303
0.000848331
0.000157864
8.20408e-05
0.00057635
-0.000217594
-0.000477934
0.00142702
-0.00140149
-0.000547627
0.000463446
-7.67676e-05
0.000707568
-8.21063e-05
-0.000929968
-1.9686e-05
0.000963471
-0.000423395
0.000400702
-0.00134613
0.000120861
0.00122631
-0.000883321
0.00139294
-0.000177425
-0.000537876
0.000521454
8.25097e-06
-0.000488419
-2.69059e-05
7.78164e-06
-0.000197915
0.000180477
0.000921579
-0.00110731
0.000171002
-1.9602e-05
0.00201993
-4.93224e-05
-0.00196147
-0.0011641
0.000268676
0.000894347
0.00173401
0.000139486
0.000350792
-0.000516704
0.000165864
-9.63624e-05
-0.000454037
-7.28436e-05
-0.000818399
0.000532277
0.000750528
-0.000822579
7.12397e-05
0.000442417
3.84226e-05
-0.000480849
-0.00117393
4.62266e-07
0.00117058
0.000917383
0.000298011
-0.000949651
-0.000755444
0.000683965
7.08003e-05
-0.00134486
0.00138557
-4.61646e-05
-0.000609171
0.000549633
-4.06739e-05
-0.000415476
0.000937417
0.000631974
-0.00068952
-0.000374737
0.00128313
-0.000232988
0.000897715
-0.000666001
2.06572e-05
0.000401646
0.000397629
6.61482e-05
0.000811745
-0.000157814
-0.000680317
-4.42662e-05
-0.00122499
0.00137397
-0.000177185
0.000715237
0.00226393
-0.000460654
0.000969818
-0.000635156
6.10256e-05
-0.0012047
0.00112341
0.000314648
-0.000513283
0.000198579
0.000478941
0.000203568
-0.000682621
0.000527842
0.000242606
0.00212671
0.000132385
0.000786525
0.000445427
-0.00123984
3.22573e-05
0.00113213
-0.000159245
0.000239272
-0.00077435
-2.14432e-05
3.45404e-06
-0.00036743
-0.000134009
0.000765551
0.000304451
-0.000321224
-2.11794e-05
5.51518e-05
0.000771511
-0.000550944
0.00133017
0.000803497
-0.000730877
0.000994751
-0.000658844
0.000680211
9.06627e-05
-0.00121542
-7.30726e-05
0.00150927
-0.000615089
-0.000928799
0.000959553
2.10778e-05
0.00104412
0.000368142
1.11042e-05
0.000225979
-0.000234908
-0.00113596
0.00103112
9.52967e-05
0.000314586
-0.000989001
0.000672156
-0.000586719
-8.56999e-05
0.000175302
3.25161e-05
3.52018e-06
-0.000172444
-0.000621278
0.000790963
-0.000341192
-0.000703719
-0.000524451
0.000876341
-0.00132931
7.58897e-05
-0.000442717
3.97877e-05
0.000402919
0.000524821
0.000347449
-0.00106245
0.000741552
0.0010169
-0.00122674
-0.000157467
0.00138904
-0.00123919
-0.000615751
-0.000192929
0.000808365
-0.00110757
0.000164751
0.000946228
0.000291001
5.70719e-07
-0.000698258
0.00116751
-5.90038e-05
0.00219144
-0.000114781
0.00110193
-0.00107851
6.54271e-05
-0.000763869
0.000777498
4.3259e-06
0.00126384
-0.00103686
0.00101909
-0.000104898
-0.000128562
4.49565e-06
0.00151873
0.000173279
-0.00117961
5.86355e-05
7.17772e-05
0.00108906
8.01153e-06
-0.00107616
-0.000584065
0.000339178
0.000724109
-0.000819174
-3.38908e-05
-0.00104293
3.20892e-06
3.40468e-05
-0.00113261
-0.000301954
0.000898157
-0.000599947
4.03755e-06
0.000128527
-0.00131913
0.00115653
-0.0010388
-8.34616e-05
0.00109878
0.000233677
0.00121524
-0.000279259
0.000674714
-0.000395586
-0.000166591
0.000166591
0.000136885
0.000534834
0.00120578
5.84431e-05
0.000512664
0.000246832
-0.000759558
-0.00109094
0.000894869
-0.000903028
0.00167333
-0.000137906
0.000576346
-0.000751274
-0.000215948
0.000996231
0.000403108
-0.00130977
0.000260945
-0.000543184
-0.000992627
0.0012121
-0.000217508
0.000104275
-0.0012149
0.00110644
0.000800702
-0.000395435
-0.000949927
0.000663078
-0.000919211
0.000991931
2.87108e-05
0.000736334
3.96727e-05
-1.15604e-06
-0.000625922
0.000643567
-4.42899e-05
-0.00137658
0.00118546
0.000179928
-4.17247e-05
4.17247e-05
-0.000321457
-0.000826783
-0.000338612
0.00131526
-0.00014144
-0.000225473
0.000127917
0.00129966
-0.000307595
-0.00100024
-0.00157491
2.33829e-05
0.000536381
0.00162055
-2.95847e-05
-0.00160036
-0.000237478
0.000598954
-0.000619684
0.00060881
0.00130061
-8.85084e-06
-0.000940666
0.000417622
0.000522707
-0.00146209
0.000166595
0.00129865
-0.000551718
0.000120939
-0.000567945
7.23e-06
0.00284955
-0.00134148
-0.00150666
-0.00107469
-0.000541799
0.00163106
0.000814173
-6.52649e-05
-0.000220981
-5.35266e-05
0.000144468
0.00110226
-0.00105234
0.000231164
0.000818007
0.00011445
-0.00194022
0.00182596
-0.000107237
0.00130088
-0.00113585
-0.000206332
-0.000238632
0.00058938
-0.000845086
0.00274639
0.00106925
-0.00108782
2.89977e-05
-0.00104452
0.00122046
0.00133649
-0.000197789
-0.0011466
-0.00063886
0.000542258
-0.00141746
0.000186867
-0.000738006
-0.000941236
-0.00077542
0.00108802
-0.00106632
-0.0010821
2.94855e-05
-4.15341e-05
0.000458267
0.000380637
-0.000846618
-0.000127939
-0.000193941
0.000701711
-0.000508311
0.00168291
0.00028884
-0.00225274
0.000124125
0.000178814
-0.000448612
0.000523527
-7.74115e-06
0.000215513
5.72202e-06
0.000310877
-0.000475504
-0.000602746
-6.57757e-05
-0.000893297
-0.000335965
0.000388329
3.05676e-05
-8.16172e-05
4.60593e-06
-0.00134029
-0.00114062
0.00118184
0.00123507
5.57231e-05
5.5983e-05
0.000697465
-0.000279201
0.000791646
-0.000121778
0.000689642
-0.000592303
0.000423566
0.000358967
-0.0001387
0.00117211
-0.000253184
0.000577679
-0.000324546
-0.00146607
0.000907683
0.000543753
0.00251037
0.000326776
0.00013964
-0.000468485
0.00032883
-0.00108933
-0.000135784
-2.05657e-05
0.000779333
-0.00110605
0.000326215
0.000125163
0.00113026
1.03841e-05
-1.77467e-05
0.000934389
-0.00113653
0.000173886
-0.000788697
0.000237001
-0.000633063
-0.000437855
0.000599502
-0.000161706
0.000346728
0.000113945
-0.000469084
0.000476573
0.000138118
-0.00120455
0.00203492
0.00134784
-0.00117399
-0.000376818
0.000407074
0.00123203
0.000655032
2.90562e-05
-6.08851e-05
0.000720607
0.00171267
-0.00160244
-0.000478794
0.000943581
0.000549813
2.06954e-05
-0.00120683
0.00114226
0.00128258
-0.00172956
-0.00108011
4.79434e-05
0.00085249
-0.000633255
0.00125952
-0.00127423
0.000744921
-0.000222003
-0.0018798
7.38223e-05
0.00116657
-0.00109766
-0.000187999
0.00112578
6.15764e-05
-0.00119339
0.00113204
5.67759e-05
-0.00115972
0.00109418
0.000899414
-9.63031e-05
-0.000853929
-0.000595287
0.000157376
-0.000978845
-0.000150224
0.00109055
-0.000373573
4.59982e-05
-0.00064034
0.0011369
8.74996e-05
0.000759255
-0.000951026
0.000313692
0.000178295
-0.00042977
-0.000843459
0.00127688
0.000410085
0.000164935
-0.00064268
-2.61751e-05
0.00061308
-0.00118481
0.00128066
-0.000268743
-0.000579879
0.000847082
-0.000432695
-0.000118062
-0.000644961
8.38769e-06
-0.00199294
0.00221894
-0.000227276
0.000581277
6.9886e-05
-3.04989e-05
-0.000496528
-0.00241167
-0.000819455
0.00107364
0.000797434
-0.000581289
-0.000216636
-1.60808e-05
4.73755e-05
-0.000102501
3.30252e-05
-0.000692975
0.000620992
0.000810769
-3.83795e-06
0.000867224
-0.00014679
0.00115752
0.00103978
-0.000765835
-0.000188279
0.000710386
0.000324052
-0.00117384
-0.000543724
7.06632e-05
0.000451694
-0.000256206
-0.000628042
0.000965354
0.00015278
-0.000153509
1.42623e-05
-0.000365138
0.000515971
-4.38476e-05
-0.000802044
0.0008286
-4.26738e-05
0.000635823
-0.000321244
-5.08327e-06
0.00127748
0.00210041
2.24712e-05
-8.74188e-05
-0.000577123
-0.000363712
0.000722422
-0.000696018
-0.000285793
2.30914e-05
2.26913e-05
-0.00146031
-0.000475394
0.00073572
0.00190712
-0.000426704
-0.000251014
0.000313467
-0.000516265
0.000547721
0.000476103
0.000848347
-0.000342188
0.00094133
-0.000600027
-0.000111577
-0.000733717
0.000763285
-0.000103598
-0.000432567
7.90427e-05
-0.00125775
0.00115186
-0.000860858
0.000891077
-1.11077e-05
-0.000608353
-0.00120623
0.00179959
-0.000707268
-0.00039303
0.00107627
0.000189761
-0.00113054
-9.94263e-05
-4.15549e-05
0.000897458
-0.000924559
0.00134459
-0.00110035
-0.000264623
0.000755809
-0.000196842
-0.000559395
-0.00077425
0.00137485
-0.00132385
0.00025461
0.00106558
-0.00136566
8.91288e-05
0.00124576
0.0005978
0.000541485
2.61347e-05
0.00186411
-0.00194655
1.39704e-05
0.0014869
-0.00124835
-3.16319e-08
0.00142729
-0.000154329
5.66923e-05
5.98055e-06
-0.00189689
-0.000105575
0.00196306
-1.63016e-05
0.000379851
-9.1634e-05
4.97986e-05
0.00161241
-0.000816827
-0.000461333
-0.000513223
0.000973755
-4.24405e-05
-0.00141342
0.00146084
0.00121249
0.000110151
0.000169315
0.00119366
6.98687e-07
-0.00120347
0.000554181
-4.0818e-05
-0.000305995
-0.000275716
-0.00108639
0.00014719
0.000938882
0.0011814
-7.40741e-05
0.000774104
-9.51164e-06
-4.12397e-05
0.000379977
-0.000574322
0.000883867
-0.000539546
0.000528285
-0.000136239
-0.000310969
-0.000847195
-8.84703e-05
0.00104571
6.13518e-05
-5.77307e-06
-0.000918299
-1.98778e-05
-0.00084244
0.00102647
7.33618e-05
0.00117135
-0.000129028
0.00120358
-0.000494506
-0.000749718
0.000759269
-0.0013802
-0.000152274
0.000447504
-0.000295243
-0.000991458
0.000954596
-0.000678041
-0.00110441
0.000763369
-0.00240326
0.00229037
-6.09124e-05
0.000223979
0.000572947
0.000251511
-0.000376898
0.000174453
-0.00102262
0.00106348
-0.00115293
-0.000479627
-0.000213597
0.000641248
-0.000842344
0.000867656
-0.000105815
6.22901e-05
0.00207529
-2.78875e-05
0.0012305
-0.00122233
0.000117053
-0.000593063
0.00035011
0.000922886
1.72496e-05
0.000732073
-0.000611612
-0.000120929
0.00128479
-0.000578601
0.00100703
0.000156059