/*--------------------------------*- C++ -*----------------------------------*\
| =========                 |                                                 |
| \\      /  F ield         | OpenFOAM: The Open Source CFD Toolbox           |
|  \\    /   O peration     | Version:  v2012                                 |
|   \\  /    A nd           | Website:  www.openfoam.com                      |
|    \\/     M anipulation  |                                                 |
\*---------------------------------------------------------------------------*/
FoamFile
{
    version     2.0;
    format      ascii;
    class       surfaceScalarField;
    location    "300";
    object      meshPhi;
}
// * * * * * * * * * * * * * * * * * * * * * * * * * * * * * * * * * * * * * //

dimensions      [0 3 -1 0 0 0 0];
oriented        oriented;


internalField   nonuniform List<scalar> 
14907
(
0.00069011
0.00149525
-0.00219598
-0.000383288
-0.00192473
0.00229154
0.00244746
-0.00272625
0.000270689
-0.000134112
-9.69429e-05
6.24478e-05
-0.000565074
0.000502626
0.00207989
0.000330174
-0.00242335
-0.000390133
-0.000785262
0.00117515
0.000496314
0.000368823
-0.000865223
0.000151715
-0.00264622
0.00247178
0.00189043
-0.0023814
0.000445898
0.000357488
-0.000542347
0.000184859
-0.000480272
0.000106732
0.00182224
-0.000374725
-0.00157657
-0.000151657
0.00108697
-0.00108164
-0.000216806
0.00187437
-0.00165845
-0.000529621
-0.00168727
0.00218757
0.00198104
-0.00254091
0.000294241
-0.000290309
-1.9736e-05
-0.00205987
0.00273562
-0.000854968
0.000660004
0.000194978
0.00244693
-0.00261717
7.23837e-05
-0.00119427
0.00121139
-1.74267e-05
0.00050361
-3.00175e-05
-0.000664585
0.000647489
-0.00267994
0.00193622
0.00160611
-0.00200283
-0.000114827
-0.00149557
0.00160783
0.000201421
-0.00199356
0.00178114
-6.09981e-05
-0.00183767
0.00189654
-0.000445044
-0.00203018
0.00245721
4.79187e-05
0.00206896
-0.00212057
0.00299671
-0.000814062
-0.00218929
0.000568876
-0.000308949
-0.000259927
0.00215702
-0.000310954
0.00305751
-0.00193475
-0.00112884
-0.00183972
0.000126004
0.00171201
0.00259223
-0.00203963
-0.000306731
-0.00138622
0.00169021
-0.00165204
0.00140917
0.000240417
0.000606687
0.00186547
0.00191097
-0.000459795
-0.00145137
-0.000396663
-0.000458301
-0.000195644
-0.00167909
0.00187365
0.000702586
-0.00109293
-0.00308911
0.000650885
0.00243423
0.000570413
-0.000507965
-0.00141368
3.35284e-05
0.001379
0.000602487
0.00108177
-0.001685
-0.00134817
0.00148753
-0.000140418
0.00222845
-0.00138685
-0.000843736
-0.00159286
-0.000102442
0.00169287
0.000226981
-0.000489719
0.000203925
0.00270034
-0.00197693
0.00239519
-0.00110592
-0.00128935
0.000770374
0.00128306
-0.00206022
-0.00148562
0.00117649
-0.000342638
0.00240488
0.00178847
-0.00225044
-0.00162891
0.00223044
0.00091071
0.00214009
0.000707853
0.00168719
0.00251544
-0.000145646
-0.00237858
-0.0022221
0.00272424
-0.000517816
-0.000497611
-0.00134339
0.00274909
-0.00031294
-0.00113145
-0.000947169
0.00207773
-0.00272405
0.00274157
-2.37925e-05
-0.00283611
0.000936101
0.00190037
-8.3502e-05
-0.000866462
0.000949982
-0.00068552
0.000449282
0.000236237
0.00267739
-0.000401176
-0.00228667
-0.00147633
0.00223914
0.000244917
-0.00219894
-0.000894723
0.00111816
0.000190535
-0.00130872
-0.00201713
0.00253716
-0.000519289
-0.000612211
-0.00214792
-0.000586306
2.12326e-05
-3.92257e-05
-0.00241211
0.00243867
-0.000260187
-0.00110491
0.00136506
0.0011112
-0.000372422
-0.000738991
0.000785137
0.00144089
-5.98672e-05
0.000630284
-0.00288938
0.00243278
0.000450818
0.00023483
-0.00198948
0.00175313
-0.000441884
-0.00239509
0.001093
-0.00109572
-8.09962e-06
0.00339091
-0.00163293
-0.00176658
-0.00106083
0.000310469
0.000750332
-0.000719277
0.00215833
-0.00144047
0.000834314
0.00254315
-0.00269153
0.000342945
0.00234023
0.000439622
-0.000499487
0.00162608
-0.00168895
0.000384705
-0.0020645
0.00210876
0.00299891
-0.000812877
-0.00219718
0.000940961
-0.00279316
0.00183543
-0.00243965
0.00224097
0.000187634
0.000179845
0.00173065
0.000367875
-0.00213962
0.00175496
-0.000105115
0.000105115
0.0010337
-9.82115e-05
-0.000935468
-3.86804e-05
-0.000923885
0.000962505
-3.05469e-05
0.00111401
0.000118762
-0.00202975
0.00190867
0.000630719
0.000432747
-0.00106361
-0.000753311
-0.00148397
0.0022333
0.00265593
-0.00173243
-1.89933e-05
0.00236358
-0.00230512
0.00209076
-0.000136515
0.000702268
-0.00071684
0.000850421
0.00171124
-0.00257965
0.000207456
-0.00189548
0.00168689
-0.000390484
-0.000295036
0.00114555
-0.00227806
0.00267603
-0.000228912
-0.00246539
-0.00210096
-0.000665018
0.00276317
-0.00210979
0.000278048
0.00270822
0.000281103
-0.000551097
0.000269996
-0.00250972
0.00178927
-0.000638783
0.00113499
-0.00242597
0.000278065
0.0021433
-0.00250385
0.00255934
-5.91402e-05
-9.58177e-05
0.00112953
-0.00113776
-0.00175665
-0.00065986
0.00102858
0.000344101
0.00100537
-0.00135052
0.00141342
-0.000782868
-0.00312636
0.000752992
0.00235958
-0.00122545
0.000965244
0.00028244
0.00191751
-0.00220247
0.000692276
-0.000295193
-0.000397082
-0.000257896
0.00110895
-0.000851108
-0.00212956
0.00247857
-0.00126848
0.0010506
0.000217801
0.000449477
-0.000577291
0.000127815
-0.00166796
-0.00102881
-0.00152
0.000171058
-0.000513092
-0.000547756
0.00205359
-0.000295925
-0.00175895
-0.00275609
0.000653683
-0.00227215
0.00028887
0.00198158
-0.000587351
-0.000503034
0.00109043
-0.00222307
-0.000361175
0.00257091
-0.00169548
0.00252879
-0.000679282
0.0013229
-0.000643606
-0.000747411
0.0029195
-0.00220444
-0.0002536
-0.00219667
-0.000113082
-0.00153031
0.00164224
-4.55282e-05
0.00245735
-0.00243079
0.000130581
-6.64689e-05
-7.79972e-05
-0.000237696
0.000910768
-0.00067319
0.000622101
-0.000545582
-7.65176e-05
-5.09506e-05
-0.00131917
0.00134729
0.00166979
1.60356e-05
-6.10583e-05
0.00197228
-0.00191102
-0.00261237
0.000375769
-6.17523e-05
-0.00120682
0.000610685
-0.000224574
-0.000386111
0.00013777
-0.000509258
0.000371487
-0.000235626
0.00113612
-0.000900579
-0.00289034
0.00194691
0.00093604
0.00230896
-0.00237264
0.00213121
-0.0022698
0.000134449
-0.00207884
0.0023585
0.000514511
-0.00100985
0.000495276
0.000493212
0.000117475
0.000224144
0.000328358
-2.1268e-05
0.000643371
-0.00271558
0.00229853
0.000408688
8.52061e-05
-0.00303549
0.00292073
0.000828401
-0.000388774
0.000760292
0.000164667
-0.000924946
-0.00135595
0.00118482
0.000171068
-5.11588e-05
0.00108854
-0.00103798
-0.000366161
-0.000108403
0.000474563
0.000442249
-0.00258469
0.0021386
0.000778006
-0.00086149
-0.00158667
0.00154356
4.24593e-05
-0.00192993
0.00186906
0.000288158
0.000280719
-0.00322862
0.0022094
0.0010192
0.00174741
-0.00140464
0.00167756
-0.00187425
-0.000364333
0.000645438
-0.000811085
-0.000175989
0.000987073
-0.00121586
0.00262202
-0.00141196
-0.000538487
0.000180597
0.00035789
-0.00209403
0.00190316
0.000186695
2.67713e-05
0.000551379
-0.00057815
-0.000819882
-0.00145291
-0.00102383
0.000786012
0.000334336
0.000494074
-0.000655613
0.00118178
-0.00052648
0.00085822
-0.000534416
-0.0003238
-0.00198818
0.00201563
-3.10939e-05
-0.00265166
0.000311171
0.00233375
0.00147298
5.09485e-05
0.000670383
0.0011062
-0.00177907
-0.00139508
0.00112182
0.000273257
0.00054773
-0.00176856
-0.00376525
0.00111976
0.00262784
0.000756197
4.10642e-06
-0.00229225
0.00242331
0.000383504
-0.00284634
-0.000401755
0.000428527
0.00135662
-0.00175333
0.000368628
0.000306031
-0.000302358
-1.50436e-05
0.000666002
-0.000759942
9.86528e-05
0.000348267
0.000509958
-0.000331272
-0.000340674
0.000435262
-0.000693606
0.00120804
0.00073712
-8.43896e-05
-0.000652742
2.43497e-05
0.00194809
-0.000773386
-3.77501e-05
-0.0025921
0.000531187
0.00206218
0.00241376
-0.0026754
0.000240575
0.000293595
0.000861875
-0.00115555
-0.00119707
0.00316756
-0.00200468
0.00175676
-0.0015503
0.000274705
-0.00211427
0.00183921
-0.000793848
0.000108373
0.000685465
-0.00138106
-0.000273379
0.000443703
0.00087592
-0.00131952
-1.97453e-05
-0.00157757
0.0015949
0.000125302
0.000631021
-0.000756415
-0.00064319
-0.00208744
0.00271071
0.000672828
-0.00111131
0.00043849
0.000362826
-0.00184622
0.00243963
-0.000802092
0.000794017
8.07802e-06
0.00274149
-0.00268348
-0.00158277
0.00193821
-0.00109315
-0.00164073
0.00132153
-0.00143562
0.00281721
-0.00245894
-0.000394318
0.000149199
0.000749348
-0.00108309
0.00250624
-0.000832059
-0.00167968
0.000188269
0.00144537
-0.00163805
-0.00221314
-0.000682031
-0.00198751
0.00243464
-0.000308541
-0.00062702
-0.00126905
-4.51163e-05
0.00269965
0.000624153
0.00236038
-0.000524793
0.000729564
-0.000382853
-0.00182571
0.00194229
-0.00294999
0.00083243
0.00211024
1.49826e-05
0.00026884
-0.00111009
0.00101015
-5.58662e-05
-1.9034e-05
0.00268467
0.00161057
-0.00184099
0.00022988
-0.000721203
-7.26467e-05
0.000706939
-0.000942636
-0.000221001
-0.000317486
-0.000233126
-0.00112295
-0.0015679
0.00114629
0.000421487
-0.00156438
0.00134685
0.00170494
-0.000844591
-0.00086148
0.000622439
0.000436115
-0.00105891
0.000519148
0.00198094
0.00202981
-0.00278774
-0.000850455
0.000831293
-0.00143893
0.00210649
0.000666477
0.00211622
-0.00107936
-0.000115417
-0.00107292
0.00196416
-0.000895321
-0.00230346
-7.15949e-05
0.000750047
-0.000916466
-0.000478631
-0.001674
-5.75464e-05
0.000794652
-0.000383247
0.00105085
-0.000895134
-0.000155724
-0.000916881
-0.00118017
0.00184585
-0.0016625
-0.00283383
0.00249728
0.000300002
0.00188935
-0.00126403
-0.000627138
-0.00246553
0.000231747
8.70033e-05
-0.00167408
0.00190676
-0.00265514
0.000744602
-0.00150341
0.000219294
0.000472982
0.00251719
-0.000132005
-0.000124282
0.00250365
-0.00239219
-0.000724662
0.00134669
0.000290397
0.00216208
0.000453238
-0.00271258
0.00261954
8.73684e-05
0.00184321
-0.0002334
-0.00114986
0.00109807
-0.00171756
0.000414314
0.00130306
0.000230942
-0.00081826
0.000296756
-0.000119273
0.00137231
-4.07889e-05
-0.00235562
-0.00273521
6.77053e-05
0.00099028
-0.000865102
0.000211814
0.0023316
-0.00255263
0.00245786
4.21553e-05
0.002454
0.000624976
-0.0031068
-0.000389032
-0.00220212
-0.000493256
-0.00123013
0.00172066
0.00163156
-4.92994e-05
-0.00158299
-0.00115377
0.00033449
0.000819186
-0.000717449
0.000751059
-3.36081e-05
0.00238003
-0.00167231
0.00104486
-0.000661871
-0.000383005
-0.00257391
-9.20793e-05
0.00264135
0.00162754
0.000259294
0.00196328
-0.00177213
0.000297416
0.000164283
-0.000824709
-0.000188097
0.00101278
-0.000869719
0.000285041
0.000584689
0.000108723
0.00257192
-0.00174358
-0.000898367
0.000716568
-0.00179329
-0.0023017
0.00189153
-0.00189603
0.0018592
3.60406e-05
-0.00151761
-4.67157e-05
0.000548057
-0.000520398
0.000325749
0.00088145
-0.0012075
0.00047478
-0.000743628
-0.00060674
-0.000330884
0.000754628
-0.00193723
-0.000989813
-0.000164031
5.81178e-06
0.00018408
-0.000201114
0.002065
-0.000165768
-5.83035e-07
-0.00218681
0.00218682
-2.55369e-05
0.00165643
0.000463852
3.02856e-05
-0.000494138
-0.00263998
-0.00143206
0.00135985
0.00106905
-0.0011934
1.57481e-05
0.00258569
0.000151592
0.00159047
-0.00109341
-0.000497115
0.000401813
-0.00105769
0.00134157
-0.000195405
-0.00100062
0.000718061
0.000282529
0.000879656
-0.00137525
-3.86075e-05
0.00178428
-0.00207997
-0.00113673
-0.00214396
0.00021071
0.00192634
3.97814e-06
-0.000299223
-0.000236576
0.00088015
-0.000643621
0.00252338
-0.00062044
-0.00181906
-0.00183016
0.00174627
8.31987e-05
-0.00206959
-0.00229933
0.00136683
0.000931921
0.00191093
-0.00131234
-0.000518775
0.00272051
-0.000732368
-0.00199791
-0.00128458
0.00172838
0.0011534
0.000259779
-0.00113337
0.00145877
-0.00250915
0.000576805
0.00192955
-8.2247e-05
0.00257371
-0.00249798
-0.000503903
-0.000496737
0.00036226
-0.00104152
0.00269921
-0.00114078
-0.00156551
0.000258189
0.00133212
0.00321636
-0.00109442
-0.00213956
0.002875
-0.000165714
0.00101727
0.00218029
-0.0010492
-0.00125085
-0.000869127
0.000660914
0.000208223
-0.00175692
-0.000202862
0.00195586
1.76659e-05
-0.000549977
0.000523861
0.000784831
0.00159503
-0.000103069
0.000103069
-0.000502406
0.000497704
0.000824684
-0.00246224
-0.00019654
-0.00252924
0.000230304
0.00226004
0.000550494
-0.000101015
-0.00247801
0.00194732
0.000485094
6.59346e-05
-0.0010161
0.000950056
0.000631823
-0.000868447
-0.000260208
0.00137839
0.000132401
-0.00126156
0.00112857
0.000372312
-0.00152318
4.44001e-05
0.00147832
-0.000319432
-0.000482651
0.00168994
-5.59036e-05
-0.00164975
-0.00183036
0.000235284
-0.000254791
0.000254791
-0.000223101
-0.00170215
0.00192478
-0.000415757
0.00147647
-0.00106153
0.0002944
-0.00201408
0.00168617
-0.000477663
-0.00141915
0.000196116
0.000438108
0.000320924
9.42605e-06
-0.00169455
-0.0010066
0.000803185
0.000264078
-0.00106722
0.000236027
0.000315352
0.00169718
0.00103841
0.00313422
-0.00059364
-0.0025739
0.000473974
-0.000249829
-0.000920518
-0.00286027
-0.000199804
-0.0011026
0.000236144
0.000491871
0.00125944
-0.0024851
0.000323804
-0.000314366
-0.00045423
0.00269828
-0.00228694
-0.0028334
0.000334535
0.00248039
0.000338446
-0.00112579
0.00243522
5.16551e-05
0.000540931
-0.000677506
-0.00185243
0.000811092
-0.000212009
-0.000599086
2.60167e-05
0.000895255
-0.0026807
0.00288184
-0.00070263
0.000814881
-0.000112232
0.0025407
-9.00751e-05
-0.00245691
-0.000858057
-0.00109513
-0.000622513
-0.00180347
-0.000187422
0.00290819
-0.00312106
0.000176755
0.000755006
0.00234443
0.00102775
-0.000274
-0.000753772
-0.00188971
-0.00157391
5.0307e-05
0.00202945
-7.10178e-05
-0.00196121
0.000528211
-0.000170722
-0.00195747
0.00198197
-0.00053537
0.00193843
-6.49089e-05
0.00237525
-0.00270289
0.000288835
-0.0023321
0.000527218
-0.000812787
0.000285572
-0.00252403
0.000306859
0.00218134
-0.00162
0.00161645
3.34199e-06
-0.00239922
-0.000157717
0.0025472
0.00233813
0.000369392
0.000236765
-0.000461338
-0.00205883
0.000373993
0.00168099
-0.00296669
0.0017602
0.00120234
-0.000805528
0.000286943
0.000302402
-0.000109188
0.000515237
-0.000406049
-0.00307608
0.000499933
0.00255756
-0.000683467
-0.00137817
-0.000270976
-0.0015588
0.00182701
-0.00220266
0.000282554
0.000528525
-0.00101801
0.000999959
0.00104152
-0.00209261
0.00293854
-0.00179448
-0.00193818
0.000177424
0.000109706
0.00023615
-0.00228957
0.00202575
0.00264558
-3.20089e-05
-0.00049321
0.000103836
0.000389375
0.00278187
-3.40156e-05
0.000249806
-0.000765907
-0.00136125
-5.56342e-05
0.00141638
0.000960788
1.62117e-06
0.000799938
-0.00118002
0.000380003
2.94788e-06
0.00029947
0.00161209
-6.90628e-05
0.000521525
0.000171452
-0.00140397
-0.00015149
0.00264214
-0.00249264
-0.00252901
0.00244032
0.000631576
-0.000889504
0.00156701
0.00112505
0.00266704
-0.000335692
0.00136883
-8.12512e-05
-0.00128747
-0.0027636
8.86723e-06
0.00237463
3.01882e-05
-0.00145644
0.00173086
0.00204758
6.46347e-06
-0.00211469
-0.000939424
0.00131437
-0.000375
0.00135555
-0.00284309
-0.00213883
-0.000416798
-0.000390917
-0.00015143
-0.000175413
0.00194361
-0.0018405
0.00232005
-2.91752e-05
-0.000375393
0.00183067
-0.00147914
8.96046e-06
0.00201798
-0.000689719
0.00157077
-0.00126272
0.00220807
0.00244415
0.000126782
-0.000584073
-0.00229066
0.00216464
0.000122667
0.000355053
0.000561811
-0.000916964
0.0021352
-0.00162096
-0.000101879
4.52693e-05
4.89465e-05
0.000226407
-0.00097373
0.000747332
-0.00267514
0.000230182
0.00244341
-0.00047367
-0.00249807
0.00137818
-0.000453147
-0.00102827
-0.000563323
0.00236914
-0.00181438
-0.00197964
0.000721394
0.00125796
0.000810569
0.000300444
-0.00233666
0.000317776
-0.00125724
0.000613708
-0.0013473
0.00151623
0.00032879
-0.000317245
-2.20408e-05
0.00243106
-0.00267436
0.000238126
-0.00236682
0.000136923
0.00222085
-0.00106394
-5.40935e-05
0.000159188
-0.00272164
0.00253977
-0.00019226
0.000627408
-0.000283966
-0.000293324
-0.00168228
0.00194205
0.00184986
-0.000845513
0.00230102
-0.00121606
-0.0010879
0.000993824
0.00130356
0.000342573
-0.00235981
0.000754828
-0.000809655
-0.00011009
-0.00115982
0.00117494
-1.52897e-05
0.0010231
4.61445e-06
3.55585e-05
0.00264664
0.00021472
-0.000359336
-0.00201562
0.000121046
0.00241107
-0.00210525
-0.000413301
-0.000430926
0.000585866
-0.000154939
-0.0014065
0.00139794
8.25698e-06
-0.00171022
-0.00261993
0.00237756
0.000226797
0.000464615
-0.000536836
-8.4515e-05
-0.00191654
0.00257922
-0.0006614
-0.000199199
-0.00161776
-0.00204671
5.24155e-05
-0.000146469
-0.000346741
0.000481019
-0.000244992
0.000529995
-0.000566916
3.69184e-05
0.00138303
-0.000950411
0.00218894
-0.000151571
-0.00199265
-8.32824e-05
-0.00157449
0.00165547
-0.00112186
0.00131763
-0.000195827
0.000425594
0.000240203
-0.0006658
0.000574346
-8.11324e-05
-0.000227013
-0.00138508
0.0016121
8.99891e-06
-0.00100364
0.000943799
3.52652e-05
0.00196558
9.53294e-05
0.00114751
0.00179081
-1.43332e-05
-0.00101072
0.000500268
-0.000362498
0.000239537
-0.000892851
-0.00264796
0.00253133
1.01701e-05
-0.00140033
0.0013891
-0.00108228
-3.87351e-06
0.000156156
-0.00104983
0.000893151
0.000307379
0.00182245
0.00128249
-0.00134803
6.54208e-05
-0.00151097
0.00141935
9.11883e-05
-0.000515567
-0.000249044
0.00221253
-0.00166307
-0.000554904
-0.00158428
0.00170871
0.000714824
-0.00175838
0.000293864
0.00108902
-0.000932205
0.000201159
0.00073102
-0.000175273
-6.82556e-05
0.00156892
-0.00167372
3.94698e-05
-0.00205543
0.00201307
-0.00316492
0.00233994
0.00137192
-0.00125908
-0.000148042
-0.000198381
-0.00195156
-0.00256749
0.00246951
9.41934e-05
-0.00151159
0.00125966
-0.000459811
-0.00110615
0.00102418
8.2032e-05
0.000236352
0.00153389
-0.00177095
-0.00172257
-0.00057081
0.000308347
0.000969554
-0.0026568
0.00246808
0.000185117
0.000358495
-0.000677917
-0.00214823
0.00210344
-3.64619e-05
-0.000116105
0.00185065
-0.00173729
0.000523874
0.00068723
0.00197609
1.37881e-05
0.000200987
0.00103068
0.000676567
-0.00170897
-0.00210057
-0.000186163
0.000575474
-0.000389309
-0.00161574
9.11743e-05
0.00152354
-2.17766e-05
0.00109751
-0.00109866
0.000869704
-0.000776514
-9.32246e-05
0.00282257
-0.00134515
-0.001484
-3.4867e-06
-0.000298759
0.00241141
-0.000230117
-0.00218279
-0.00259075
0.000209902
0.00237534
-0.000176606
0.000176606
-0.000580577
0.00166027
-0.0010819
-0.00249087
0.000575029
0.00036209
0.000118931
0.00190031
0.000151571
0.00262181
-0.000197352
-0.00230453
0.000323338
0.00197454
0.00066925
-0.00135932
-0.00154133
0.00136747
0.000172663
-0.00270007
0.000193079
-0.00188668
0.000120794
0.00176134
0.00174222
-0.00190692
0.00176375
-0.000357463
0.000309316
-0.00256316
0.00225295
-0.000139449
-0.00137183
-0.000345116
-0.00222056
-0.000182412
0.00192417
-0.00304423
0.00266359
0.000339563
-0.00315323
0.00263672
0.000489722
0.000774854
-0.000221696
-0.000553167
0.00202714
-0.00252144
-0.00058917
0.000947683
0.00020192
0.00244217
0.00196466
-0.00202715
5.49437e-05
-0.00059809
-0.0016711
0.00218198
-0.000102147
0.00156717
-0.00146711
-0.00194551
0.0015444
-0.000405782
-0.00121076
0.00230592
-0.000151586
0.000635855
0.000233815
-0.000549194
4.00515e-05
-0.000458814
0.00116112
0.00146936
-0.00224119
0.00161904
-0.00164524
0.000441918
-0.00050689
4.75633e-05
-0.0020609
0.00259316
-0.0031667
0.00205372
0.00101072
-0.00159354
6.4385e-05
-0.00238044
0.0023128
0.000236101
0.000615009
-5.2966e-05
-0.000562041
0.00131035
-0.00115484
0.00121038
0.000595349
-0.00180963
0.00112926
0.000212273
-0.00344731
0.000580475
0.00284976
0.00119252
-0.00115731
-3.53959e-05
0.00133483
-0.0013024
0.000206881
0.00189975
1.96972e-05
0.00134915
-0.000737399
-0.000194822
0.000612141
-0.000186551
0.00186485
-0.000283188
0.000698498
-0.000415298
-0.00162447
-0.00220816
0.00204971
0.000154183
0.000661975
-0.000726874
-0.00036256
0.0019863
0.000478617
-0.00139781
0.00144926
-0.00179805
0.00034449
0.00188115
-0.00222268
0.00207808
0.000142421
0.00123086
-0.000523999
6.43831e-05
5.24779e-05
-0.000442389
-0.00221824
-0.00175228
-0.000138764
-0.000834036
0.000341904
0.000492129
-0.000119665
0.00173795
0.00151547
9.5992e-05
0.00159562
-0.00168121
-0.000658548
0.000147453
-0.00115791
-0.000239048
0.00226167
-0.00209419
-0.00296221
0.00278944
0.000147107
-8.35957e-05
0.00214949
-0.0025621
-0.000218346
0.000564788
-0.000267371
2.5201e-05
-0.001331
0.00130478
-0.000551098
-0.000282939
2.9416e-05
-0.00052782
0.000407862
0.000786211
-0.000304724
-0.00048148
0.00057166
-0.000516052
-5.56064e-05
-0.000289853
0.000921625
0.00187876
-0.000433725
0.000469185
-0.00131453
0.00108501
-0.000412172
0.00123358
-9.06178e-05
-0.0011432
-1.51126e-05
-0.00217214
0.000121941
-0.0025312
-0.00118607
0.000295353
0.000175884
0.00253138
-0.00282618
0.000279551
-0.00140465
4.30571e-05
0.000586176
-0.000954977
0.000368761
0.00127958
0.00099742
-0.00228048
-0.00240535
0.00280872
-0.000428535
-0.00135398
-0.00182022
-0.000126523
0.00186199
-0.00173689
-0.00168898
-0.00149479
0.00291158
-0.00139433
-0.00152529
-0.000714992
0.000941404
-0.000560936
2.65204e-05
0.00216753
-0.000104047
0.0024958
0.000245517
-0.000540709
-0.00105298
0.00031832
0.000734582
-0.00234178
-0.00264042
0.00248687
-0.000372493
-0.000172182
-0.00235033
-0.000219961
-0.000482653
0.00138848
-0.00136434
-0.000550666
0.000466267
-0.000131452
-0.00273061
0.000303422
-0.0023866
-5.30948e-05
0.00241942
-0.00229986
0.00214636
-0.00157424
0.000142776
0.00142919
-0.00131153
0.00209605
-0.000178
-0.000539444
0.00220099
4.1339e-05
-0.00226707
-0.000148298
0.00150482
-0.0013859
0.000190752
0.000974709
-0.00116571
0.00279969
-0.000288263
0.00172057
-4.24326e-05
-0.00168123
-0.0011926
0.000274744
0.000917823
0.00203771
0.00016835
0.000350863
-0.000516757
0.000165895
-9.65109e-05
-0.000454592
-0.000192941
-0.00201904
-0.0025108
0.000756597
-0.000828382
7.17571e-05
0.000442434
3.8424e-05
-0.000480858
-0.00126521
5.02779e-07
0.00126434
0.00172172
0.000302495
-0.000962436
-0.000759487
0.000688236
7.12634e-05
-0.00149005
0.00154167
-5.16436e-05
-0.00229954
0.00228397
6.09608e-05
0.00091166
-0.00226434
0.000635882
-0.00069344
-0.000503625
0.00171016
-0.000235816
0.000910742
-0.000674907
1.11476e-05
0.00031076
0.000397696
6.61558e-05
0.000820149
-0.000159223
-0.00251577
-0.000164099
-0.00228194
0.00259831
-0.000328123
0.000721188
0.00170216
-0.000364119
-0.00178196
0.00111584
8.26706e-05
-0.0016343
0.00155084
0.000314773
-0.000513435
0.000198661
0.000479722
0.00020384
-0.000683569
0.000530863
0.000243985
0.00217533
0.000136841
0.000851708
0.000486273
-0.00133843
3.42002e-05
0.00119904
-0.00139221
0.00189989
0.000313247
1.0272e-05
1.60163e-05
-0.00134864
-0.000134863
0.000770734
-0.000924666
0.000832928
6.6895e-05
0.000180439
0.00243564
-0.000590499
0.00144166
0.00209478
-0.000794614
0.00108813
0.000578713
-0.000553597
-8.72839e-05
-0.0019077
-0.000101561
0.00199013
-0.000487199
-0.00145702
0.00169254
2.18833e-05
0.00108704
-0.000931483
-2.47009e-05
0.00243728
-0.00246713
-0.00135167
0.00123675
0.000114249
0.0003248
-0.00101847
0.000674155
-0.000588256
-8.58955e-05
0.00112145
-0.00110943
-3.98142e-05
-0.000184052
-0.000661787
0.000845738
-0.000343383
-0.000709682
-0.000529058
0.000884013
-0.00191303
0.000108549
-0.00044273
3.97894e-05
0.000402941
0.000524924
0.00263149
-0.00149682
0.00102054
0.00171007
-0.00200728
-0.000197009
0.00177163
-0.00157511
-0.000618494
-0.000194059
0.000812547
-0.0017125
0.000175401
0.00115666
-0.000944596
-3.54917e-06
-0.000705597
0.00125608
-6.37995e-05
0.00228309
-0.000116116
0.0011354
-0.00125243
7.1365e-05
-0.00239167
0.00237646
1.27196e-05
0.00138498
-0.00112689
-0.00191382
-0.000233315
0.000321622
-0.000241164
0.00157366
0.000186739
-0.00195371
-0.00120503
0.00120696
0.00252068
2.05052e-05
-0.00256321
-0.000584567
0.000339577
0.00208196
-0.00221752
-5.86879e-05
-0.00178114
1.1637e-05
6.57229e-05
-0.00213331
-0.00031371
0.000935771
-0.000622008
1.49177e-05
0.000190979
-0.00194281
0.00175107
-0.00221266
-0.000193227
0.00240207
0.000327797
0.00168372
-0.000279667
0.000675714
-0.000396046
-0.000107246
0.000107246
0.000137419
0.000536741
0.0016749
8.05121e-05
0.000514353
0.000247446
-0.000761812
-0.00053066
0.000350518
-0.00140486
0.00170759
-0.000137454
0.000616748
-0.000800892
-0.000221152
0.00102438
0.000606683
-0.00191856
0.00026226
-0.000545439
-0.000973971
0.00118612
-0.000212532
0.000162122
-0.00184021
0.00167685
0.000317597
-0.000214723
-0.00096472
0.000674819
-0.00233231
0.00225871
6.44472e-05
0.000522701
1.82266e-05
-5.47203e-06
-0.00253129
0.00250173
-4.37276e-05
-0.00155975
0.00135402
0.000205442
1.93333e-05
-1.93333e-05
0.00018408
-0.000845215
-0.0003474
0.00159001
-0.000171247
-0.000352883
7.67312e-05
0.00146698
-0.000344682
-0.00112236
-0.00214695
3.26452e-05
0.000539047
0.00218741
-3.92285e-05
-0.00215416
-0.000237846
0.000599937
0.00278693
-0.00247061
0.00134399
-9.45693e-06
-0.000950035
0.000421798
0.000528211
-0.00209325
0.000241352
0.00184721
-0.000551925
0.000120999
-0.00032634
3.44002e-06
0.00229441
-0.00106901
-0.00122933
0.00104189
0.00050152
-0.00161601
0.00223204
-0.000187052
-0.00207752
-0.000600281
0.000147568
0.00113491
-0.00111649
0.000246476
0.000870028
9.96407e-05
-0.00167309
0.00157126
-0.000107239
0.0014321
-0.00124977
-0.000225027
-0.000238676
0.00058954
-0.000661674
0.00210188
0.00269207
-0.00279075
7.54539e-05
-0.00111773
0.00130823
0.00183833
-0.000267947
-0.00157183
-0.000639728
0.000543212
-0.0026504
0.000356652
-0.000872501
-0.00110732
-0.000802093
0.00112682
-0.00167739
-0.00113705
3.0957e-05
-0.000103832
0.000753541
0.000678775
-0.00153242
0.000101879
-0.000194884
0.000705458
-0.000510573
0.00140925
0.000254381
-0.00166138
-0.00119979
-0.00121511
-0.00258012
0.00258877
-4.99637e-05
0.000601537
-2.26563e-05
-0.0021531
-0.00120209
-0.00149193
-0.000160595
-0.002149
-0.00248476
0.00224098
0.000218633
-8.9015e-05
7.02147e-06
-0.00196423
-0.00151695
0.00159885
0.0014035
6.34092e-05
0.00021482
0.00256681
-0.000280441
0.000794782
-0.000401487
0.00252395
-0.00212937
0.00042559
0.000360626
-0.000149422
0.00127122
-0.000253265
0.000577889
-0.000324626
-0.00176929
0.00110504
0.000663928
0.00202028
0.000269332
0.000139648
-0.0004685
0.000328852
-0.00136985
-0.000172513
-2.06754e-05
0.000787375
-0.0011173
0.000329836
0.000138041
0.0012467
-2.38068e-05
-0.000433238
0.00170271
-0.00201363
0.000309122
-0.000816696
0.000802591
-0.00216566
-0.000438027
0.000599801
-0.000161774
0.00177392
0.000640682
-0.00242415
0.000476829
0.000138182
-0.00118378
0.00172191
0.00216682
-0.00186479
-0.000376848
0.000407133
0.00156917
0.00244171
0.000112265
-7.03911e-05
0.000492024
0.0019126
-0.00179642
-0.000711764
0.00136477
0.000586005
2.39547e-05
-0.00125264
0.0011908
0.00117814
-0.00159476
-0.00231196
9.69616e-05
0.00293073
-0.00213977
0.00200769
-0.0020004
0.000750776
-0.000223551
-0.00164138
6.47821e-05
0.00167776
-0.00144904
-0.000235266
0.00158694
8.6237e-05
-0.00127619
0.00121504
6.08707e-05
-0.00208763
0.00201372
0.00238176
-0.000266396
-0.00214127
-0.000595461
0.000157435
-0.00185321
-0.000296073
0.00214709
0.00267942
-0.000353674
-0.000640431
0.00171314
0.000129186
0.00218948
-0.00257742
0.00031371
0.000178306
-0.000421052
-0.000828063
0.0012487
0.000410417
0.00016506
-0.00242637
-9.29616e-05
0.00251678
-0.00171867
0.00190886
-0.000272793
-0.000588874
0.000861633
-0.00262187
-0.000437156
-0.00219503
-5.64326e-06
-0.0016239
0.00180221
-0.00018162
0.00212792
0.000308462
2.49294e-05
0.000492244
-0.00187489
-0.000846397
0.00111052
0.000803099
-0.00058514
-0.00021796
-0.000256272
0.00256633
-0.00233832
0.000113378
-0.0023
0.0021857
0.00226315
-1.02925e-05
0.00289852
-0.000536613
0.00199753
0.0017333
-0.00148114
-0.000361487
0.000745394
0.000339602
-0.00139447
-0.00284305
0.000447595
0.00238882
-0.000691104
-0.00177836
0.00246132
0.00268479
-0.00290583
0.000180261
0.00187021
-0.00210424
0.000173355
-0.00183369
0.00192823
-9.88442e-05
0.000636139
-0.000321365
-6.29622e-06
0.00161129
0.00229459
0.000104964
-9.23006e-05
-0.00058267
-0.000367401
0.00236054
-0.00229965
0.00198038
-0.000170403
8.90909e-05
-0.00232245
-0.000477871
0.000740145
0.00166634
-0.000297763
-0.000287751
0.000395555
0.000338747
-0.000384843
0.000665593
0.00117175
-0.000345975
0.000953148
-0.000607203
-0.000190664
-0.0013627
0.00155044
5.72048e-05
0.000201114
0.000106835
-0.00169399
0.00158667
-0.00219203
0.00220856
-2.78578e-05
-0.000656814
-0.00125379
0.0019081
-0.00128527
-0.000693679
0.00197834
0.000186841
-0.00129236
-0.000114369
-0.000132161
0.00222952
-0.0021028
0.00195011
-0.00157187
-0.000379584
0.000758888
-0.000197501
-0.00056138
-0.000915281
0.00163632
-0.00132925
0.000257775
0.00107132
-0.0018534
0.000123405
0.0017291
0.000607307
0.000303483
1.24768e-05
0.00213012
-0.00215462
1.60839e-05
0.00210523
-0.00178171
-3.03073e-08
0.00138729
-0.00238939
0.00225751
0.000130339
-0.0023136
-0.000124373
0.00242197
3.53329e-05
-0.000670294
0.000607739
5.76111e-05
0.00189959
-0.000824967
-0.000466196
-0.000518289
0.000984453
-3.97623e-05
-0.00131886
0.00135781
0.00197463
0.000186381
-0.000979019
0.00142828
8.37543e-07
-0.00142962
0.00262545
-0.000196859
-0.00160349
-0.0012427
-0.00107781
0.000146401
0.000931245
0.00182643
-0.000114191
0.00232741
-2.86591e-05
-0.000152537
0.000382029
-0.000576913
0.000892492
-0.000544222
-0.000676352
0.000256378
0.000316599
-0.00204032
-0.000233104
0.00111578
6.56473e-05
-1.40344e-05
-0.00239071
-4.66936e-05
-0.00196909
0.0020037
0.000248369
0.00125271
-0.000137387
0.00230534
-0.000902252
-0.00140486
0.000843981
-0.00150262
-0.000152283
0.000447539
-0.000295255
-0.00202185
0.00202831
-0.00150318
-0.00110967
0.00076621
0.00249585
-0.00260725
6.7237e-05
0.000225795
0.000577298
-0.000245057
0.000305063
-0.000214638
-0.00164812
0.00111891
-0.00120977
-0.00147501
-0.000731711
0.00220518
-0.00132707
0.00144194
-0.000147152
6.70007e-05
0.00220683
-4.28082e-05
0.00195719
-0.00191849
0.000117648
-0.000595504
0.00233521
0.00107909
2.1439e-05
0.000736553
-0.000615009
-0.000121542
0.00156945
-0.000693413
0.00101683
0.000157942
0.000127556
0.000458311
0.00116015
-6.93164e-06
-0.00012946
0.000763451
0.000668626
0.000146266
0.00237385
0.000220782
-0.00260973
-0.000781717
0.000557241
0.000224467
0.00169684
0.00232823
0.000100985
0.000328942
-0.00089515
0.000395151
-0.000504338
-0.000573976
0.000430886
-0.00160808
0.000321764
-0.00165007
0.00142886
-0.00153306
-0.00159085
0.00163476
0.000139459
0.00117802
-0.00183007
0.00267023
-0.000845769
-0.00111724
-0.000953648
-0.000816006
-4.74555e-06
-0.00151179
0.00151619
-0.00289812
0.000367165
0.0024958