/*--------------------------------*- C++ -*----------------------------------*\
| =========                 |                                                 |
| \\      /  F ield         | OpenFOAM: The Open Source CFD Toolbox           |
|  \\    /   O peration     | Version:  v2012                                 |
|   \\  /    A nd           | Website:  www.openfoam.com                      |
|    \\/     M anipulation  |                                                 |
\*---------------------------------------------------------------------------*/
FoamFile
{
    version     2.0;
    format      ascii;
    class       volVectorField;
    location    "800";
    object      ddt0(U);
}
// * * * * * * * * * * * * * * * * * * * * * * * * * * * * * * * * * * * * * //

dimensions      [0 1 -2 0 0 0 0];


internalField   nonuniform List<vector> 
10042
(
(0.00911444 0.0151385 -9.60227e-20)
(0.0160055 -0.0436426 -2.06343e-18)
(-0.0418872 0.0111101 -1.73105e-18)
(0.00254516 5.99133e-05 -1.09196e-21)
(0.000197192 -2.51358e-05 -2.88331e-19)
(0.0637167 0.0147663 -3.34347e-18)
(0.0832618 -0.0515785 -6.47519e-18)
(-0.0317956 -0.0612217 -8.84356e-19)
(-6.32855e-05 -4.61549e-05 1.28567e-18)
(0.0282309 0.00979304 5.24277e-20)
(-0.0195557 0.0102401 4.10274e-19)
(0.00799803 -0.0444003 -1.26251e-18)
(-0.000635043 -0.0177389 -1.19665e-18)
(0.000267714 -0.00175663 -4.21312e-19)
(0.00186696 -0.000914652 1.3442e-18)
(0.000564048 -0.00181318 1.79568e-20)
(0.0478419 0.089329 1.75894e-18)
(-0.0189924 0.0144467 -2.96935e-19)
(-0.001107 -0.00544534 -3.726e-18)
(-0.00264001 0.0128896 -2.90438e-19)
(0.00101941 -0.0178546 5.68419e-18)
(0.00706111 0.0156456 1.2804e-19)
(0.00148894 6.16147e-05 -5.13993e-20)
(0.00163361 -0.0815347 -5.91769e-18)
(0.000711446 -0.000295736 4.59199e-19)
(-6.18027e-05 -1.10505e-05 9.1463e-20)
(0.025236 0.00989442 -5.22969e-20)
(0.000110878 9.39916e-06 -4.49613e-19)
(0.0615191 0.0233625 -7.80089e-19)
(0.00710512 -0.162712 3.58882e-18)
(0.00123905 5.49742e-06 1.32278e-19)
(-0.0157874 -0.0137077 7.92755e-18)
(-0.000309716 -3.94391e-05 -1.15028e-20)
(-0.000528991 -2.4168e-05 -3.21746e-19)
(-0.0374596 -0.0414487 1.91008e-18)
(-0.0130112 -0.0112364 3.82843e-18)
(0.00156234 -1.75218e-05 2.68562e-19)
(0.000676958 0.00012167 8.848e-19)
(0.000787503 1.11931e-05 -3.05127e-19)
(0.00418005 0.000350506 -2.01351e-20)
(0.0113119 -0.138297 2.7321e-19)
(-0.000291661 -2.94544e-05 -5.17424e-20)
(0.00141113 -0.056213 2.16188e-19)
(-0.0833392 0.0199141 4.99182e-19)
(0.00124046 0.000122188 9.45979e-20)
(0.00143549 -0.000349338 5.21315e-19)
(2.79571e-05 4.00532e-05 2.53665e-18)
(0.00234855 -0.000834749 -2.22873e-19)
(0.0319245 -0.0130766 -1.77079e-18)
(-0.314285 -0.157658 -4.33437e-18)
(-0.0106052 -0.063234 -1.02911e-18)
(0.00141495 9.06121e-06 2.5414e-19)
(0.0591672 0.0627156 -4.28567e-18)
(-0.000434842 -0.00507743 4.08736e-18)
(0.0306829 0.041244 -1.78363e-18)
(0.243986 -0.00543574 -5.51465e-18)
(0.00207095 -0.0164302 -2.26668e-19)
(-0.0145089 0.0078377 -1.39386e-19)
(0.00237014 -0.000516169 1.27062e-18)
(0.000129738 -4.46102e-05 4.92504e-20)
(0.0329008 -0.00999891 2.98998e-18)
(0.0507907 0.052342 -2.02228e-18)
(-0.00586803 -0.0554009 6.73103e-18)
(-0.0358959 -0.0792496 8.94831e-20)
(-0.0291933 -0.00749727 1.10693e-20)
(0.0012205 -0.00223449 -8.21672e-19)
(-0.00462982 0.0109944 -2.76885e-18)
(0.0196492 0.0128316 -4.95383e-19)
(-5.8542e-05 5.05335e-05 9.35622e-21)
(0.0170093 0.0136965 4.29457e-19)
(-0.124969 -0.0855886 5.03652e-18)
(0.00352751 0.00413401 1.4533e-20)
(0.000571099 0.000297865 2.72891e-19)
(0.00225826 -0.00052309 -1.27184e-18)
(0.00105428 -0.00195039 1.96672e-18)
(-0.0753631 -0.073512 -4.76589e-18)
(-0.018127 0.0144522 -2.13972e-19)
(1.76135e-05 4.58995e-05 -2.72093e-18)
(-0.0168597 0.0175881 -4.08019e-19)
(-0.00166149 -0.00535459 5.71314e-18)
(-0.0892953 0.0424186 -4.24023e-19)
(0.0017812 -0.117898 4.13178e-19)
(0.00122085 1.76933e-07 5.5885e-19)
(0.00189975 -5.06724e-05 -4.89785e-19)
(0.0133939 0.0174404 -9.45175e-19)
(0.0527289 -0.011855 -9.6768e-19)
(-0.00492297 0.00972751 1.80512e-19)
(-0.0441421 0.004932 -1.18302e-19)
(0.00200228 0.000903578 5.07708e-19)
(-0.0221754 0.00391962 -2.93339e-20)
(-0.000977079 -0.011883 4.13937e-19)
(0.00152511 -0.000937826 1.01583e-18)
(-0.00549581 -0.0554102 -7.7173e-18)
(0.0558345 -0.00857631 5.58403e-19)
(-0.0269718 -0.0224632 3.58282e-19)
(0.00153919 0.000818316 -1.60046e-19)
(0.0144639 0.123701 -7.70719e-17)
(-0.00303755 0.0115848 1.43634e-18)
(-0.0530914 -0.0117401 4.25059e-19)
(0.00242585 -0.000624407 -1.13942e-18)
(-0.000576743 -0.0109385 -4.64943e-18)
(0.0373569 0.0118284 -5.00331e-20)
(0.000783407 0.00164358 1.12915e-20)
(-0.0128618 -0.0108738 -1.52721e-18)
(0.000979502 -0.00729939 -3.91951e-18)
(0.00235918 0.000934144 -5.43419e-20)
(0.1302 -0.00808985 -1.59932e-17)
(0.000778551 -0.00173568 -1.1055e-18)
(0.0864107 -0.0429926 2.84712e-18)
(0.00180827 0.000930443 1.35588e-19)
(0.00272626 -0.000244018 4.79882e-19)
(0.0728853 -0.0339846 1.78011e-19)
(0.0353605 0.012901 3.41416e-20)
(-0.0400791 -0.0597201 1.22155e-18)
(-0.0256688 -0.00926347 -9.54442e-19)
(-3.48076e-05 6.07983e-05 9.93123e-20)
(0.0204877 -0.00590827 -5.74349e-19)
(0.00080649 9.31311e-07 -3.89167e-19)
(-0.0147168 0.00607532 -1.63619e-19)
(-0.000109257 -9.74388e-06 6.91022e-19)
(0.000153824 -5.58345e-05 -1.98464e-20)
(-0.00625547 -0.0232195 -7.66079e-18)
(-0.0118143 -0.0218097 2.722e-18)
(0.00182029 0.000144773 8.73172e-20)
(-0.0218057 0.00746783 -8.93154e-19)
(0.00151009 0.00121326 -1.96103e-18)
(0.000563104 0.00129501 7.54559e-19)
(0.0213974 0.0454477 -1.11017e-18)
(-0.0260577 -0.0432629 -5.397e-19)
(0.0209528 -0.00384448 1.7297e-19)
(4.19044e-05 0.000203777 1.79323e-19)
(0.00199741 -0.00110584 1.07335e-18)
(0.00124318 0.00235258 -1.45467e-18)
(0.000904407 -0.00119517 -6.56623e-19)
(0.0739582 -0.02681 -2.81593e-18)
(-0.0559258 -0.0964588 3.18984e-18)
(-0.00885607 0.00814196 -4.93621e-19)
(0.165864 -0.0285522 6.98001e-19)
(0.00161266 -0.00323106 1.60849e-18)
(-0.0613631 -0.00336937 -3.76714e-19)
(-0.00370366 -0.0399641 3.00997e-18)
(8.58041e-05 2.81368e-05 -2.45187e-19)
(0.092197 -0.0409698 1.43708e-17)
(0.000146046 1.46951e-05 4.54467e-19)
(0.00979226 -0.00355713 -9.81189e-19)
(0.000736544 0.000146335 -2.3501e-19)
(0.0122326 0.0163508 -7.39977e-19)
(-6.24985e-05 3.50117e-05 6.41943e-19)
(-0.000726855 0.00429585 -7.94869e-21)
(0.0224791 0.0150562 1.68335e-18)
(0.00158195 -0.00150966 -4.4341e-19)
(0.000450059 1.91184e-05 1.42101e-18)
(0.00336024 -0.00387562 -4.05178e-18)
(-0.00229196 -0.0217037 -3.8419e-18)
(-0.0201045 -0.0216624 -5.88142e-19)
(0.0105753 -0.00309826 -7.66348e-19)
(-0.0224229 -0.0419354 1.06125e-18)
(0.249136 -0.0239433 2.05761e-18)
(0.00154666 0.00230121 1.44179e-19)
(-3.75974e-05 -4.62653e-06 -2.77868e-19)
(0.00138988 -5.92884e-06 -2.63119e-19)
(0.00462215 0.0009079 5.40282e-20)
(-0.0154519 -0.0927984 -6.5273e-18)
(0.00114477 0.000975278 1.60016e-18)
(0.00116653 -0.00246369 8.07023e-19)
(0.0243168 0.00183967 4.38119e-18)
(0.000489173 0.000362008 1.36487e-19)
(-0.0133346 -0.0122997 2.48265e-18)
(-0.0229316 -0.0195984 -3.29942e-18)
(-0.000528392 -1.23462e-05 -1.55261e-20)
(-0.0124115 -0.0328968 -1.16762e-19)
(0.00814584 -0.174355 4.98921e-19)
(-0.0141987 0.00435585 7.19629e-19)
(-0.000573648 -2.32498e-05 -1.08881e-18)
(0.000118006 -0.00514119 -3.21628e-18)
(-0.018449 -0.00806167 -1.18969e-18)
(0.000654162 -0.000124995 -1.5407e-19)
(0.000718515 0.000150517 -3.02432e-19)
(0.00161758 -0.000959269 -4.13909e-19)
(-0.000115686 5.03078e-05 2.11015e-21)
(0.0013828 -0.00294693 -2.0232e-18)
(0.00323948 -0.00706911 -2.65562e-18)
(0.00229288 -0.000648463 5.79756e-19)
(0.000174073 -2.19753e-05 -4.56069e-20)
(0.0291054 0.00978744 -8.73024e-21)
(-0.0046468 -0.0105472 1.1166e-18)
(0.00409466 0.00386491 -3.80703e-20)
(0.000100975 -3.81715e-05 -8.00943e-20)
(-0.276163 -0.0879853 4.89412e-19)
(0.000897841 9.967e-06 -3.81363e-20)
(0.020199 -0.0584151 6.90295e-19)
(0.0036031 -0.0163595 -2.04416e-18)
(-0.000271424 0.000237753 -9.98276e-19)
(0.00342541 -0.00659822 4.79727e-18)
(0.0029404 0.0432921 1.47249e-18)
(0.00143293 -0.000882745 -8.85439e-19)
(-0.136849 0.0152252 6.22432e-19)
(0.0101462 -0.029142 -3.45936e-20)
(-0.0108136 0.119658 1.4039e-17)
(0.00182354 -4.00599e-05 1.87691e-19)
(-0.0880556 -0.0564881 6.17375e-18)
(-0.0080465 -0.0470215 2.47434e-21)
(0.0524464 -0.0273934 -6.3182e-19)
(0.000581671 1.05138e-05 1.98944e-19)
(-0.0488409 -0.0148262 3.60331e-18)
(0.0013619 0.00205918 3.58894e-19)
(0.0236866 0.0162422 4.26074e-18)
(-0.00108246 -0.0208336 1.71529e-18)
(0.00328726 -0.000138867 -4.77465e-19)
(0.000640972 -0.00123615 1.74948e-18)
(-0.0151548 -0.0124191 -8.70662e-18)
(0.000453189 1.18753e-05 8.40431e-20)
(0.0571107 -0.0259366 2.01268e-18)
(0.0407052 -0.038409 6.43538e-19)
(0.000963265 -6.99624e-06 -5.89789e-20)
(0.0164992 0.00767327 3.16667e-19)
(0.000215247 9.22391e-06 -3.86501e-19)
(-0.0369891 0.00361458 -9.88515e-19)
(0.0025725 2.81055e-05 3.38426e-20)
(-0.0598538 -0.0511733 -5.76204e-18)
(-0.114181 0.0412018 -4.88998e-18)
(-0.00479556 -0.0276437 3.85257e-20)
(-0.110965 0.047935 3.36089e-18)
(0.0158009 0.0106404 -1.82472e-19)
(0.00239083 6.48244e-05 -7.02189e-21)
(-0.0117708 -0.0485076 1.48606e-18)
(-0.000415438 0.00294988 -7.45851e-20)
(-0.00883063 0.00705636 9.77905e-19)
(0.0205529 0.00828259 1.05842e-19)
(0.00113984 0.00152025 1.87421e-19)
(0.000503008 0.000176077 9.40235e-20)
(0.000987206 0.00152826 -2.81412e-20)
(-0.00415792 -0.0106018 1.8702e-18)
(0.00113137 3.66258e-06 1.68385e-21)
(0.000476782 -0.000178567 -3.27068e-19)
(-0.0249909 -0.0480416 1.01147e-18)
(-0.00944925 0.00313977 -8.07089e-19)
(0.00846696 0.120889 4.32653e-17)
(0.00896773 -0.00309853 3.95133e-19)
(0.0114247 -0.066432 -5.52021e-18)
(-0.078314 -0.0716456 -3.70862e-18)
(-0.020296 -0.141179 2.07138e-18)
(0.000178153 -4.95601e-05 -7.53134e-20)
(0.00545349 0.000583456 -2.80654e-20)
(0.0516534 0.00125543 -6.89278e-18)
(0.000196834 -2.81741e-05 1.82066e-19)
(-0.0146429 -0.132476 9.65212e-19)
(0.00885763 -0.00239169 -6.15932e-19)
(0.00379326 -0.00413588 6.40371e-18)
(0.000326909 -1.65316e-05 7.79792e-19)
(0.000654995 -0.00669176 8.66051e-19)
(-0.000369987 0.000256223 1.67243e-18)
(0.037335 0.0213573 -8.78291e-20)
(0.0492109 0.033447 -1.61781e-18)
(-0.00133762 0.00388638 -2.9466e-19)
(-0.00830859 0.00257819 1.05915e-18)
(0.00119327 9.27891e-06 4.50194e-19)
(-0.00257293 0.00380553 6.66769e-19)
(0.0250102 0.121197 2.81401e-17)
(0.00243935 3.54624e-05 2.29192e-19)
(-0.0250087 0.002404 2.12193e-20)
(0.000371693 0.000110746 -7.98377e-19)
(0.00144411 1.22378e-06 -2.51661e-19)
(3.2649e-05 4.96506e-05 1.1003e-18)
(-0.00197319 -0.0188371 4.9581e-19)
(0.0488155 0.0353184 -2.45413e-18)
(-0.0256334 -0.00145796 5.42047e-20)
(0.0358617 0.0197857 1.20506e-19)
(0.00240515 -1.66943e-06 1.04007e-19)
(0.00138152 0.00171782 9.81554e-19)
(0.00323811 -0.000227278 -2.01353e-19)
(-0.254946 -0.152371 5.62449e-18)
(-0.000613583 -0.000675744 -1.04298e-18)
(-0.25389 -0.0969314 -1.90257e-18)
(-0.00208997 0.00332211 -5.31872e-19)
(-0.0147972 -0.000915769 1.52979e-18)
(0.000894886 -0.00253548 -2.53523e-18)
(0.00046336 2.1262e-05 -5.08184e-20)
(0.00239531 1.29602e-06 -5.34388e-20)
(0.00589859 0.0238828 -4.85474e-19)
(-6.65071e-05 5.35449e-06 1.29628e-18)
(-0.0533866 -0.0731475 3.35122e-18)
(-0.131653 0.0142617 8.12451e-18)
(9.18907e-05 -0.00236375 1.69121e-18)
(-0.00164202 -1.05529e-05 1.95307e-19)
(-0.0513853 0.0807731 1.96732e-19)
(0.0194367 0.00399501 -7.97685e-19)
(-7.933e-06 0.00014313 4.05723e-19)
(0.00391358 0.0164014 8.49549e-19)
(0.000608127 1.43821e-05 -1.52796e-18)
(0.00540542 -0.0147602 3.37564e-18)
(0.0128039 0.00373623 -3.51426e-19)
(0.0010203 -2.11089e-06 -1.63904e-19)
(-0.044888 -0.0997039 6.9914e-19)
(-0.028448 -0.00293413 -3.85974e-20)
(0.00194916 -0.00139755 2.64055e-19)
(0.0359849 0.0599552 7.93919e-19)
(-0.00977145 0.00555449 3.10732e-19)
(0.00310553 -0.000240171 1.0748e-19)
(0.000219912 9.30013e-06 2.64455e-19)
(0.00278901 -0.00353954 6.43699e-19)
(0.0442894 -0.0412798 -2.52386e-18)
(0.000107391 -3.0671e-05 -1.31246e-21)
(-0.0674367 -0.0432023 -8.49213e-19)
(0.0195593 0.0019422 5.8772e-20)
(0.0553549 0.0452941 -1.73963e-19)
(-0.00082826 -0.000994234 1.81313e-18)
(0.0059819 0.00135017 8.13309e-21)
(0.0444259 0.0658274 -2.44174e-19)
(-0.0532159 -0.0695299 2.95233e-18)
(0.00265272 -7.50443e-06 1.81212e-19)
(0.00150322 -0.000993089 1.11519e-19)
(0.00108351 0.000738966 1.41675e-19)
(0.00169411 -0.00144143 2.34923e-19)
(0.0121968 0.00520742 -1.87197e-21)
(0.00168985 0.016646 7.12385e-20)
(2.82889e-05 4.10974e-05 -1.60836e-18)
(0.0272463 0.0106369 1.35711e-19)
(0.0290602 -0.0744613 1.06669e-17)
(-3.23039e-05 3.30227e-05 1.79236e-21)
(0.00032718 6.20186e-06 -2.5303e-20)
(-0.278059 -0.100703 1.97918e-18)
(-0.0135618 -0.00154437 -8.96417e-19)
(0.0237919 -0.0332056 7.79017e-20)
(0.0311578 -0.00553139 2.21208e-20)
(0.000981748 -5.01606e-06 -7.74364e-20)
(0.00975084 -0.00831786 -6.87671e-19)
(0.00187748 -0.000816435 1.94158e-18)
(-0.00902698 0.00460086 1.10653e-18)
(0.00564349 -0.0134937 2.9926e-18)
(0.00108026 0.00206425 -5.31078e-19)
(0.00301989 0.000249706 1.67454e-19)
(0.00902056 0.0126686 4.45864e-19)
(0.000481053 1.19401e-05 1.78036e-20)
(0.0214416 -0.0104758 1.0416e-18)
(0.00733475 0.0178009 3.31235e-19)
(-0.0126183 -0.0807468 2.4159e-18)
(0.026727 -0.0224813 1.55402e-19)
(-0.000851268 0.000303312 -1.38613e-18)
(0.0343687 -0.00296285 -1.45193e-18)
(3.13229e-05 -0.0406242 3.96409e-19)
(0.00646574 -0.0175236 1.17337e-19)
(0.000220658 -6.15394e-05 2.6983e-20)
(0.00528017 -0.0127758 8.16097e-19)
(0.00207916 1.17111e-08 -6.36994e-19)
(0.000487011 0.000172759 -9.09911e-20)
(0.000119528 -0.000213911 -3.94082e-19)
(0.00144514 -1.81095e-05 7.31894e-20)
(0.00652626 0.00534803 1.68766e-19)
(-0.00372399 0.122892 1.89995e-17)
(0.00186289 -0.00157952 2.01589e-18)
(-0.028859 -0.0173229 5.54413e-20)
(0.00560219 0.00618972 -1.88831e-19)
(0.00145739 -9.80125e-05 2.04802e-19)
(0.0429138 0.0482864 3.81024e-18)
(0.0112424 -0.0103812 1.27079e-19)
(-0.000118632 0.0030386 -2.4975e-19)
(0.00130295 2.02627e-06 -2.70243e-19)
(-0.219271 -0.0264695 -1.10911e-18)
(0.000307681 1.30281e-06 -7.39467e-20)
(0.00268422 0.0007588 -1.88819e-19)
(0.00149663 -2.36102e-05 -4.24715e-20)
(0.00146513 -0.00232618 9.34495e-19)
(0.0310869 -0.130728 -5.38646e-18)
(0.0392512 -0.0106585 1.08198e-18)
(0.00135993 -0.00272096 -1.45306e-18)
(0.00200904 -1.83682e-05 -1.16053e-19)
(0.00415616 0.00634027 1.11472e-18)
(0.00509719 0.00576293 8.82401e-19)
(0.0219017 0.0769153 -1.44992e-18)
(0.00011657 -4.5811e-05 3.52505e-20)
(0.00251532 2.00199e-06 5.34789e-19)
(-0.000829205 -0.000708014 -3.42234e-19)
(2.05945e-05 -4.66181e-07 5.14066e-21)
(0.0463229 -0.00935422 1.7641e-19)
(-0.00121337 -0.000737711 2.58152e-20)
(-0.0146877 0.00178232 -4.84647e-20)
(-0.0948528 -0.156504 2.51946e-18)
(0.0822922 -0.0343304 -2.76427e-18)
(0.0438207 -0.0122086 -2.47858e-19)
(0.00244705 0.000566548 -4.02493e-20)
(-0.0937002 -0.131108 3.27487e-18)
(0.0196828 0.0105917 -1.2457e-19)
(0.00160757 -0.000694586 -1.05397e-18)
(-0.00971824 -0.0254796 -2.80754e-18)
(-0.000132379 2.66542e-05 -3.27919e-20)
(0.00133394 -1.40832e-05 -4.68197e-19)
(0.000113009 -2.64614e-05 -6.59669e-19)
(0.00310143 0.000550839 -1.16743e-19)
(9.2292e-05 0.00011443 -8.85538e-20)
(-0.00257052 0.00295973 -5.56056e-19)
(0.0524545 0.0156811 6.10608e-18)
(0.00200007 -0.00157347 -1.31319e-18)
(0.0136754 -0.00366004 3.40935e-19)
(0.0479131 -0.00815082 -1.12077e-18)
(0.0525518 0.0331342 2.26098e-19)
(0.00175746 3.00505e-05 -1.61844e-19)
(-0.0406617 -0.0499834 -2.92671e-19)
(-0.00226856 -1.74172e-05 1.52642e-19)
(-0.0151557 -0.0150616 -1.03609e-18)
(0.00175446 1.32931e-05 -2.82667e-19)
(-0.0807448 0.068332 2.91712e-18)
(-0.00421803 -0.00256558 -1.53098e-19)
(0.0409951 0.0407616 1.94503e-18)
(0.0414588 0.109197 -7.12578e-17)
(0.00149262 -0.000271577 -1.1633e-19)
(0.00170323 -0.0378251 -1.54371e-18)
(0.00294295 -0.000816815 3.63151e-19)
(-0.0927333 -0.0908612 2.94285e-18)
(-0.0019374 0.00252493 6.66609e-20)
(0.00662956 0.192133 8.56175e-18)
(0.00897065 -0.00688178 1.21494e-18)
(-0.0343859 -0.126151 1.00301e-17)
(0.00260868 -0.00143483 5.69609e-19)
(-0.0111579 -0.0773171 1.94236e-18)
(0.00424767 -0.00331209 -8.59186e-19)
(0.0122802 -0.00354354 -2.06116e-18)
(0.0255519 0.0550606 -1.11383e-18)
(9.21865e-05 4.80878e-05 -3.7197e-19)
(0.0037887 -0.00311558 4.0322e-19)
(0.000198998 1.96476e-05 8.63626e-19)
(0.0519969 -0.00881199 1.23152e-18)
(9.18296e-05 0.000195936 6.29499e-19)
(0.000177233 -4.25541e-05 9.19921e-20)
(-0.00659234 -0.0420894 1.57237e-18)
(0.00141309 -0.00757334 5.69492e-19)
(0.0176302 0.0151941 3.27634e-19)
(0.00785065 0.183015 -7.29525e-18)
(0.00245935 3.42351e-05 3.34373e-20)
(0.00482828 -0.0178792 1.7834e-18)
(0.00216916 -0.00698707 -3.26991e-19)
(-5.26264e-05 7.23574e-05 -7.67407e-19)
(0.00978767 -0.00646384 -1.0296e-18)
(-0.00506156 -0.0167203 -2.88038e-18)
(0.0024547 -0.000934497 2.14799e-19)
(0.0019172 -0.00199868 4.75831e-19)
(-0.176754 -0.348593 -1.19798e-17)
(-0.0154768 0.00294203 3.96514e-19)
(5.02924e-05 4.23731e-06 7.30899e-19)
(0.178925 -0.00244483 1.05222e-17)
(0.00020397 2.25606e-05 6.06376e-19)
(0.0100495 0.00552072 6.30141e-19)
(-0.0228131 0.00579768 -1.00046e-18)
(-0.290884 -0.0900996 -8.08922e-19)
(-0.156275 -0.122709 -1.83031e-18)
(0.0331444 0.0166465 -1.4474e-20)
(-0.00756632 -0.071917 -9.36202e-19)
(0.0277388 -0.0784425 5.77873e-18)
(-0.0367812 -0.074334 -7.20396e-19)
(9.04625e-05 -8.90206e-05 3.62893e-20)
(-0.0128533 -0.00372719 1.57224e-18)
(0.0103838 0.0774886 4.8343e-19)
(0.000641853 0.0710214 4.07898e-19)
(-0.0086208 -0.0243378 -3.81717e-18)
(0.000926405 4.87803e-05 1.53838e-20)
(0.00011061 -0.000198059 9.16893e-19)
(-0.0247389 -0.0137239 7.58782e-20)
(0.0941431 0.0102045 -3.62719e-18)
(0.000221015 -1.13583e-05 1.6554e-19)
(0.0020116 1.79993e-05 2.27258e-20)
(0.00027953 -4.05806e-06 -8.16929e-19)
(0.00140223 6.00022e-05 -1.03991e-19)
(-0.0022964 0.000857458 -3.36694e-19)
(-0.00265224 0.00122363 2.45898e-19)
(0.0026997 0.000596996 9.04319e-19)
(0.0020618 1.84266e-06 -2.55174e-21)
(0.00944433 0.0171025 3.41999e-19)
(-0.00029679 -0.00215722 -3.65101e-19)
(0.00960837 0.00684447 8.863e-19)
(-0.0192188 -0.031166 1.40427e-19)
(0.0469188 -0.0729584 -1.31032e-17)
(0.000439164 -9.42605e-05 1.71628e-18)
(-0.0902528 0.0464557 -1.79135e-18)
(-0.161093 -0.294564 5.20341e-18)
(-0.0515125 0.0108666 -8.35604e-18)
(0.00054243 1.2298e-05 6.55955e-19)
(-0.00587559 -0.00619669 -4.30736e-18)
(0.000311317 7.07956e-06 1.16921e-20)
(0.0533412 0.0329777 -2.31023e-20)
(0.00292517 -0.000260609 -1.55939e-19)
(0.0126591 -0.0229525 3.8486e-20)
(0.00272688 -0.001416 -3.79495e-19)
(-0.0602579 -0.00291116 -2.32948e-18)
(0.000193918 2.42009e-05 -2.19844e-19)
(-5.98347e-05 -0.00671369 3.7091e-18)
(0.00196689 0.000291859 6.39437e-20)
(-0.01112 -0.00379935 1.73551e-19)
(-0.0484654 0.117618 6.3612e-19)
(-1.77965e-05 4.60196e-06 -6.30861e-19)
(0.00166815 1.98809e-05 -7.12857e-20)
(0.00099949 -0.00104323 4.82978e-19)
(-0.0477914 -0.060384 -8.72481e-18)
(0.000339741 0.000128097 4.03601e-19)
(0.0089982 -0.0168471 -5.79154e-20)
(-0.0432181 -0.0134638 1.16e-18)
(0.00517276 -0.0378636 5.41197e-19)
(0.00105898 -8.37896e-05 1.12525e-18)
(0.00887788 -0.0200369 -1.46773e-19)
(-0.0338963 -0.111211 -2.45972e-18)
(0.0978633 -0.077688 -2.87426e-20)
(0.00277719 -0.000131674 7.96619e-19)
(0.00203525 -1.22119e-06 1.26527e-19)
(-0.0445004 -0.0983965 -1.41605e-17)
(-0.0406755 -0.060665 5.64934e-18)
(0.0191279 -0.0136097 -2.98726e-18)
(0.0440873 0.0192333 -2.50601e-19)
(0.00118493 1.72637e-05 -1.36987e-19)
(0.0207937 0.00937521 6.79319e-20)
(0.0144881 0.00908778 1.26627e-19)
(0.0140016 0.00296022 3.71387e-19)
(0.0072902 -0.00185588 -1.47173e-19)
(0.0148999 0.0249715 -2.55074e-18)
(0.000965498 -0.000184336 -3.42463e-19)
(0.00119738 5.0891e-05 -1.01425e-20)
(0.0021956 0.000708948 8.13544e-19)
(-0.0293535 -0.088564 -5.43952e-18)
(0.00297543 0.000156559 -1.0384e-19)
(-0.0973875 -0.1165 -1.31201e-18)
(0.00345675 6.34209e-05 7.42548e-21)
(0.00259534 -0.000286059 9.86852e-19)
(0.000378346 -0.000229443 1.67706e-19)
(0.0123319 -0.00227254 2.4236e-18)
(0.044721 0.0156439 6.81211e-19)
(0.00114258 0.0012494 -3.38216e-19)
(0.00212442 -0.00181753 1.20355e-18)
(0.0515417 0.0258153 1.03593e-18)
(0.00240171 -0.0326509 2.41574e-20)
(0.00507348 0.0234744 -7.1238e-19)
(0.00151914 0.00110502 3.6891e-19)
(0.00121755 -0.00153417 8.27172e-20)
(0.023339 0.00962759 -7.21484e-20)
(0.0965126 -0.0728828 -2.04531e-18)
(0.00277707 0.000582577 1.50698e-20)
(-0.000105582 0.000158014 1.62028e-19)
(-0.0346466 -0.01399 -4.38103e-19)
(0.00176568 0.000920295 8.61984e-21)
(0.00108849 0.000304296 1.26196e-19)
(0.0112281 0.0508727 -5.68487e-19)
(9.02743e-05 0.000185379 -6.79376e-19)
(0.0427672 0.0265675 7.05476e-18)
(0.001985 -1.93597e-05 9.35474e-20)
(0.023125 0.00768015 -9.59361e-20)
(-0.00244633 -0.0057888 -3.26593e-19)
(-0.0852252 0.0658183 9.80488e-19)
(0.00313151 0.000166432 8.91407e-20)
(-0.00544362 -0.00744268 5.79468e-18)
(0.00321137 2.33285e-05 9.53728e-21)
(0.000581231 0.000250572 -4.00194e-19)
(0.0510123 0.0208716 -2.39326e-20)
(0.000238811 -4.72207e-05 7.41672e-20)
(-0.058935 -0.220924 -2.40319e-18)
(0.0182457 -0.0154501 3.64037e-18)
(-0.000114826 8.5803e-06 -5.718e-19)
(0.00903931 -0.00210998 1.65418e-19)
(-0.0725762 -0.103257 2.71341e-18)
(-0.0627075 -0.0201569 -5.83488e-19)
(-0.0153789 -0.0242959 6.7462e-20)
(0.000234979 1.53564e-05 -2.13727e-19)
(-9.69715e-05 0.00018673 -7.46354e-19)
(4.78635e-05 8.63175e-06 -5.14815e-19)
(-0.00265864 0.00072066 6.48544e-19)
(-0.00831406 -0.00501413 1.20162e-19)
(0.00192785 0.000744492 -2.3025e-19)
(-0.0637207 0.0647916 5.27713e-19)
(0.000714791 0.00062825 3.8045e-20)
(6.29448e-05 -1.87261e-05 3.89078e-22)
(0.0108931 0.0189452 1.03123e-17)
(0.00165982 -0.00719799 -2.44188e-18)
(-0.00985049 -0.00531797 -5.49682e-19)
(0.000208585 3.42594e-06 -8.1013e-19)
(0.000839904 -2.43243e-05 2.49188e-19)
(0.0820155 0.112812 -8.4053e-18)
(0.0338649 -0.118805 6.7827e-18)
(-0.00155515 -0.00516708 -3.09049e-19)
(0.0191174 0.0266565 -4.22918e-18)
(0.00307915 -0.000197464 4.15581e-19)
(-0.00470798 -0.0088717 -4.5113e-18)
(0.000252185 0.000148293 2.64701e-19)
(-4.72937e-05 -5.11233e-06 2.32128e-19)
(0.000920878 -0.00136355 -2.41088e-19)
(0.00155826 -0.00106879 -7.42408e-19)
(0.00292613 0.000449869 5.75871e-19)
(0.000722345 6.97352e-06 -8.52829e-19)
(-0.0597173 0.0810041 -2.73956e-18)
(0.00315059 -0.0012445 -2.02693e-19)
(0.0308633 0.0286947 9.42467e-19)
(0.00151434 -1.81549e-05 -8.81578e-20)
(0.000691997 -0.00441753 1.5928e-18)
(2.84315e-05 4.9442e-05 3.95282e-19)
(0.00777438 0.0252813 -1.24684e-18)
(-0.0479688 -0.0189677 3.5369e-19)
(1.42617e-05 3.73801e-05 3.71224e-19)
(0.000766766 1.23509e-05 -1.27817e-19)
(0.030245 0.000361772 -1.86485e-20)
(0.0017846 -0.026474 -8.58983e-20)
(7.87047e-05 4.89183e-05 3.41154e-19)
(0.0696807 -0.0197291 2.79073e-18)
(0.00221878 -2.49882e-05 3.37072e-19)
(0.00481882 0.0143432 -1.259e-18)
(0.000712869 0.000114277 1.94001e-19)
(0.00132131 7.9607e-06 2.71471e-20)
(0.000201239 0.000232993 4.08086e-19)
(-0.198322 -0.018037 2.19465e-19)
(4.83992e-05 3.9129e-05 -3.08185e-19)
(-0.000169414 0.00105292 7.02124e-19)
(-0.00121198 -0.00103107 -3.72349e-19)
(0.0657074 -0.0220663 3.99501e-18)
(1.81969e-05 1.36595e-06 -4.95946e-21)
(0.00139641 -0.00129218 -4.39951e-20)
(0.000827559 5.02438e-06 5.74306e-19)
(-0.0463139 0.0207846 -3.07117e-18)
(0.0014896 4.17681e-05 1.12448e-19)
(0.000365397 0.000112078 -1.54229e-19)
(0.000107944 2.69863e-05 -5.73972e-19)
(0.000501251 0.000141808 7.39467e-20)
(0.00764447 -0.00246355 1.54266e-18)
(0.000480544 -0.000103624 3.50768e-19)
(0.000914699 -0.00380437 -7.62051e-19)
(0.000533964 0.000145795 -1.33072e-19)
(0.0374546 0.112121 2.34475e-17)
(-0.0981728 0.0741021 -2.65975e-19)
(-0.0544107 0.0577691 4.43879e-18)
(-0.00221782 0.00212332 -3.49554e-20)
(-0.00337319 -0.00469293 -4.07487e-18)
(0.00258214 2.90431e-05 -2.61858e-20)
(-0.00770836 0.0563344 -2.19568e-18)
(-0.000738562 -2.04907e-05 -2.34253e-19)
(0.0226002 -0.091358 -3.6711e-18)
(0.0468352 -0.00288142 6.44004e-19)
(-0.0588572 0.0216685 -8.29321e-19)
(0.00281215 0.0146424 -9.57127e-19)
(-0.00130661 -0.135796 -2.94899e-18)
(0.00346982 -0.000184447 -6.65661e-19)
(0.00264061 0.000343076 -7.30856e-20)
(-0.00288094 -0.182293 -2.75358e-17)
(-0.0476809 0.0151208 -3.8899e-19)
(0.0106343 -0.00644004 1.32896e-18)
(-0.0248681 -0.0291954 -5.44263e-18)
(0.00296912 -0.000887664 -8.03414e-19)
(0.0308094 -0.107633 4.21683e-19)
(0.00177593 8.10875e-05 -2.34642e-19)
(0.00314215 6.81175e-05 -1.35193e-19)
(0.000497572 -9.43538e-05 -1.35866e-18)
(0.000522519 0.000115754 -6.14839e-19)
(0.00200462 -4.35507e-06 3.38498e-19)
(-0.00731715 -0.159152 2.10553e-17)
(0.000440106 -0.00240205 9.00787e-19)
(-6.55177e-05 -1.13742e-05 1.14721e-19)
(-0.000200897 0.0279286 -2.21292e-18)
(-0.000313899 0.0004978 3.39696e-21)
(2.77122e-05 0.052863 -2.69451e-19)
(0.00350866 0.00056494 -8.26445e-20)
(-0.000628738 -0.00205332 1.43117e-18)
(0.00548554 -0.0149482 -1.0167e-19)
(0.00126913 1.88757e-05 2.9152e-19)
(0.0306159 -0.0343401 1.77539e-18)
(0.0025253 -1.23363e-05 -1.99853e-19)
(0.000752474 -0.000885161 4.94437e-20)
(0.0293517 0.0256198 1.38359e-19)
(0.002788 -0.000265728 -8.13845e-19)
(8.78513e-05 -2.45825e-05 2.83362e-20)
(0.00116685 4.6886e-06 -6.34897e-19)
(0.00196819 0.000126525 1.6683e-19)
(0.00185752 -5.20792e-05 4.99697e-19)
(-0.000554627 0.0624753 -1.69801e-18)
(0.0161149 0.0534299 -5.09626e-18)
(-0.0864965 0.0510764 3.25958e-19)
(0.00213869 -0.000757956 -5.64969e-19)
(0.00127969 0.000741379 1.98513e-20)
(0.0021314 -2.38396e-05 9.12842e-19)
(0.0291822 -0.12023 -3.82017e-18)
(0.00367324 0.00477492 3.63027e-20)
(0.00128628 -0.00178633 -4.75894e-19)
(0.0001748 7.57826e-06 3.39124e-19)
(0.00089092 4.98988e-05 6.25884e-19)
(0.00793102 -0.148844 4.5367e-18)
(-0.309514 -0.161313 9.86788e-19)
(0.0124281 0.000850065 -2.36485e-19)
(-0.0013064 0.00328124 -1.24462e-19)
(0.0038529 -1.91265e-05 1.29416e-19)
(0.0382605 0.104257 6.99126e-18)
(-0.00544627 -0.00812409 -1.05178e-18)
(0.0070798 0.00556061 -9.95621e-19)
(0.012865 0.0198319 7.96309e-19)
(0.0244329 0.00438302 1.87533e-20)
(0.0528609 0.0409307 8.27546e-19)
(0.0183593 -0.143184 -1.38873e-17)
(0.00175502 0.000141039 -1.87834e-19)
(0.000468115 6.08536e-06 7.77436e-19)
(0.00275832 -9.0473e-05 2.95164e-19)
(-0.0279463 -0.0748224 2.25673e-18)
(0.000786394 0.000136041 2.35054e-19)
(-0.0039855 -0.00536181 -4.38293e-18)
(0.00253102 0.00155646 -6.07014e-19)
(0.000311144 -6.1836e-05 -7.12894e-20)
(0.00707975 -0.0115472 3.46341e-19)
(0.002488 0.00333766 2.18199e-18)
(-0.212447 -0.0184145 1.26532e-18)
(-0.124384 0.0276437 -4.77926e-18)
(-9.93946e-05 0.000167268 1.31835e-19)
(0.00112426 0.00010103 4.75037e-19)
(9.12465e-05 -6.63827e-05 -6.41413e-19)
(0.0317973 0.0123602 -1.17389e-20)
(0.00049131 0.000127839 -6.30291e-19)
(0.0245022 0.192497 -8.15687e-18)
(0.00331755 0.00584554 -1.22318e-18)
(-0.292425 -0.11256 2.69132e-18)
(0.00106115 0.000521378 -1.81926e-19)
(0.00234603 -0.000352063 -6.78374e-19)
(4.97467e-05 4.6261e-05 -8.98157e-19)
(0.00154412 5.90416e-05 -6.15977e-20)
(0.00219761 0.000246216 3.37097e-20)
(0.000976271 0.000108406 -3.93432e-20)
(0.00295904 -0.000282066 3.90507e-19)
(0.00256153 -0.00149719 2.53301e-19)
(0.013316 -0.00590986 -1.37662e-18)
(-0.000518513 -0.00614481 -1.08093e-18)
(-0.0572109 0.0775566 3.12581e-18)
(0.003111 -0.000135885 -3.33828e-19)
(-0.0450552 0.0155615 5.6142e-19)
(0.0028836 -0.0207373 -5.77445e-20)
(-0.00141474 -1.49109e-05 -1.5254e-19)
(0.193977 -0.0381291 -8.55338e-18)
(0.00120621 -9.049e-05 1.50109e-19)
(-0.00161281 0.000230654 -2.93607e-19)
(-0.00508227 -0.00252082 -1.07341e-19)
(0.00036654 1.55357e-05 -2.02508e-19)
(0.0116375 0.017499 2.59936e-19)
(0.00250479 0.00130037 -1.20846e-19)
(-0.00176895 0.00176242 -4.66607e-19)
(0.000462044 -0.000264663 2.5661e-19)
(0.0241456 -0.00825707 -1.51627e-18)
(0.00188526 -0.000278055 -8.18186e-19)
(-0.0225358 -0.0717661 -3.40983e-18)
(0.0140766 -0.0154183 2.99954e-18)
(0.00145281 0.000653623 7.05623e-19)
(0.0394689 0.0130041 5.40173e-20)
(-0.0368905 -0.0620724 -3.88902e-18)
(0.00318186 0.00110012 5.09275e-21)
(0.00102199 0.000306813 -2.25932e-19)
(-0.022423 -0.0308205 -4.72902e-19)
(0.0025145 7.30759e-07 -3.71446e-19)
(-0.0754546 -0.182436 -1.78268e-18)
(0.0119859 -0.00239653 6.30625e-19)
(-0.0146175 0.0181949 1.56831e-18)
(0.00997135 -0.0123791 -8.6166e-19)
(0.00230816 -0.00068946 -6.64352e-19)
(0.00296434 -0.000190065 -4.53779e-19)
(0.000530497 -0.00208886 -1.73983e-20)
(0.00748229 0.0133536 1.30034e-19)
(-0.00480577 -0.00433436 6.03605e-19)
(0.034481 0.0059472 5.97673e-19)
(0.0566331 -0.0430024 -5.3953e-18)
(0.00034009 -3.94403e-05 -1.76e-20)
(-0.00316886 0.000105606 1.06734e-18)
(-0.00268576 -2.31378e-05 1.22863e-19)
(-0.0234177 0.00275566 -8.1981e-19)
(0.0026623 7.51886e-07 2.63417e-19)
(0.0366616 0.159871 -4.4745e-18)
(0.00164669 -0.00110577 7.93734e-19)
(0.00308809 0.000745106 2.93657e-19)
(0.0507772 -0.00399789 -9.44913e-20)
(0.00146255 0.000313509 -1.45959e-18)
(-0.0193852 -0.0296002 4.88716e-18)
(0.0150658 0.00232344 3.42137e-19)
(0.00378257 -9.85746e-06 -1.27789e-19)
(0.000758551 -0.0730501 -1.90589e-18)
(-0.000767554 0.00470071 2.90149e-19)
(0.000880554 0.00114815 2.98914e-19)
(0.000780731 0.00429141 1.24058e-18)
(0.017489 0.0107816 7.97841e-19)
(-0.000765983 -0.00103927 -1.18171e-18)
(0.0506378 0.0378938 6.77211e-20)
(0.00263629 -0.00134702 -1.28194e-18)
(0.0159914 0.0129061 -3.42438e-19)
(-0.00446767 -0.00548135 4.08068e-18)
(-0.019625 -0.000395573 6.54214e-19)
(0.000481797 0.00377756 -7.49818e-20)
(0.0130903 0.00198283 2.88034e-19)
(0.00305659 -0.00617947 -6.36738e-20)
(0.00200166 -0.00162492 1.3995e-18)
(0.0141146 -0.0135906 -4.19697e-18)
(0.000148624 1.70898e-05 -1.54497e-19)
(0.016174 0.00882525 -5.88349e-19)
(-0.000783031 0.000913347 5.38322e-19)
(0.00217705 -0.00131319 1.90305e-18)
(0.00235391 -0.000671447 1.04008e-18)
(0.00249441 2.45204e-05 1.40989e-19)
(0.00223054 -0.00364144 -1.07403e-18)
(0.0211798 -0.0122437 2.57267e-18)
(0.000903621 2.88933e-06 3.49996e-20)
(0.00215366 -0.000866728 -7.42314e-19)