/*--------------------------------*- C++ -*----------------------------------*\
| =========                 |                                                 |
| \\      /  F ield         | OpenFOAM: The Open Source CFD Toolbox           |
|  \\    /   O peration     | Version:  v2012                                 |
|   \\  /    A nd           | Website:  www.openfoam.com                      |
|    \\/     M anipulation  |                                                 |
\*---------------------------------------------------------------------------*/
FoamFile
{
    version     2.0;
    format      ascii;
    class       volScalarField;
    location    "800";
    object      ddt0(k);
}
// * * * * * * * * * * * * * * * * * * * * * * * * * * * * * * * * * * * * * //

dimensions      [0 2 -3 0 0 0 0];


internalField   nonuniform List<scalar> 
10042
(
0.000123253
0.000439974
-0.000173201
3.44634e-07
-1.22115e-08
-0.00567597
0.000346051
-0.00169057
-4.71334e-08
1.17413e-06
0.000248945
0.000310765
-3.26168e-07
-5.33671e-07
3.71289e-07
-4.87218e-07
-0.00153761
0.00030664
-1.08813e-08
8.24264e-07
-3.06682e-07
6.47686e-05
1.96149e-07
0.00544079
2.98788e-08
-1.19822e-07
4.30004e-07
-4.71874e-10
-0.00354653
0.000823263
3.01785e-07
-1.58339e-06
-7.45107e-08
-9.81341e-08
-0.00160756
-0.00204071
5.61592e-08
1.24263e-07
1.63622e-07
-1.52369e-06
0.0034089
-7.4514e-08
0.000485724
0.00377624
1.57069e-07
1.23944e-07
4.17924e-08
4.23263e-07
7.39207e-07
0.0618782
0.00122361
1.79764e-07
-0.00177629
8.40955e-08
0.000257473
-0.0430908
-1.28419e-07
-0.000348591
4.47444e-07
4.86371e-10
1.19142e-06
8.31456e-05
-3.51131e-05
-0.00136114
1.78521e-05
-4.97883e-07
9.83141e-07
0.000438477
3.30698e-08
0.000407824
0.0149859
8.7682e-07
2.00811e-07
4.32526e-07
-3.56896e-07
0.00809768
-0.000345128
4.21168e-08
-0.000321843
-3.36994e-08
0.00457666
0.00492902
4.75795e-07
2.36992e-07
1.0687e-06
2.49292e-06
9.67198e-07
-0.000113029
5.36799e-07
-0.000295203
-2.11259e-07
3.04034e-07
-3.2699e-05
1.51257e-06
0.000815613
2.34708e-07
0.000148853
9.86876e-07
0.000553398
4.72634e-07
-1.46681e-07
-2.84567e-07
5.72436e-07
-1.14545e-06
6.66089e-08
5.97439e-07
-0.0149913
-3.64192e-07
0.000182424
5.67973e-07
5.54882e-07
6.15095e-05
1.05257e-06
-0.00105707
2.57134e-05
3.53802e-08
1.1759e-06
2.37622e-07
-0.000355395
2.08334e-08
1.96924e-09
0.000440194
0.000570141
2.3978e-07
-0.000348613
5.63291e-07
4.55189e-07
0.000246569
0.000110218
1.0111e-06
3.97911e-08
5.70457e-08
8.73827e-07
-1.64412e-07
4.06957e-05
0.00978323
1.19919e-06
-0.0125844
1.86e-07
0.00118846
4.32456e-07
1.07281e-08
-0.00997947
6.03682e-09
5.86123e-07
1.37906e-07
7.38243e-08
2.82369e-08
8.81716e-07
0.000639642
-1.92076e-07
5.15997e-08
4.06621e-07
-5.73309e-07
0.000523876
6.18376e-07
5.79018e-05
-0.0405664
8.82134e-07
-1.3048e-07
5.21763e-08
-7.99711e-07
0.0050137
4.41257e-07
1.47389e-07
0.000324199
1.93343e-07
-1.29298e-06
-0.00188408
-8.85027e-08
0.00126926
-0.000343777
-0.000550502
-1.01762e-07
1.11968e-07
0.00039361
3.40085e-08
1.33769e-07
3.40863e-08
2.33251e-08
1.64162e-07
1.84621e-07
4.24194e-07
5.33822e-08
0.000649204
-3.87188e-07
8.62429e-07
-9.68143e-09
0.0285585
6.50203e-09
0.000765221
-1.17431e-07
9.40616e-09
2.56167e-07
0.000698423
3.1093e-07
0.0152884
0.000900837
-0.00419696
2.25426e-07
0.00642991
-1.25352e-05
0.00163901
7.85811e-08
0.00132479
8.11621e-07
0.00419939
-5.26764e-07
6.21738e-07
-2.18764e-07
-1.51482e-06
6.55539e-08
0.00207902
0.00160146
7.7865e-08
3.62056e-05
5.27485e-08
-0.0113207
3.37485e-07
0.0043027
0.000747635
0.000806491
-0.00150742
0.000113544
3.217e-07
-1.0863e-05
7.91324e-07
1.01235e-06
5.35831e-07
5.90226e-07
1.08681e-07
5.96937e-07
-4.39101e-07
3.81482e-07
7.59715e-09
-0.00186104
3.17211e-07
-0.00166215
6.0054e-07
0.00636017
-0.00822179
-0.00466962
9.03036e-09
4.41966e-07
-0.00601305
-1.12532e-08
-0.00493116
6.62224e-07
4.55717e-07
2.00406e-08
6.70437e-08
8.61147e-09
-5.16406e-05
-0.000101501
8.63082e-07
1.69597e-07
-1.3047e-08
9.0621e-07
0.00244971
3.25208e-07
-0.0003717
8.22252e-08
1.82767e-07
4.23104e-08
-5.00713e-07
0.000108151
-0.000173676
-2.55781e-05
5.99287e-07
7.02342e-07
4.4372e-07
0.0539303
-2.94537e-07
0.0383054
8.21161e-07
-0.000145976
2.68846e-07
3.94267e-08
6.03497e-07
-0.00452792
-2.53589e-08
-0.00321281
0.0143675
1.32956e-07
-2.22795e-07
-0.00907531
4.22904e-07
4.16807e-08
-0.00026823
6.5271e-08
1.31839e-08
6.75956e-07
1.50489e-07
-0.00241472
-0.000272863
-2.65926e-07
-0.0146508
6.65132e-07
4.28072e-07
4.94539e-08
3.13287e-07
0.00242619
-1.05289e-08
-0.0095634
5.08719e-07
-3.73044e-06
-3.71019e-07
6.43298e-06
-0.0151602
-0.00215712
2.21887e-07
-5.62674e-09
1.7505e-07
-3.15752e-07
1.06775e-06
-0.000681023
3.87531e-08
0.000531578
0.00724499
3.53345e-08
-9.96632e-08
0.0504614
-9.98069e-05
0.00153293
0.000929342
1.04425e-07
1.95351e-05
1.38409e-07
3.87005e-07
1.18135e-07
7.83566e-07
4.8612e-07
0.000118868
1.21809e-07
0.00564789
-0.00065202
-0.0121013
0.000980191
-4.60329e-08
0.000189642
8.40251e-07
-4.65526e-08
1.09638e-08
2.83763e-05
1.78816e-07
1.05279e-07
-7.64263e-08
1.4571e-07
-5.48961e-07
-0.00303134
3.37096e-07
0.000346462
-4.22733e-07
-7.17014e-08
4.86255e-05
3.68414e-05
8.93362e-07
5.12644e-07
0.0367763
-1.29893e-07
5.7523e-07
4.51712e-08
1.72325e-07
0.00192976
-0.00420959
1.61215e-07
2.43039e-07
-4.54857e-08
6.70369e-08
0.000582772
-4.88228e-09
3.88242e-07
-3.08292e-07
2.10956e-07
2.11427e-06
-2.69489e-07
-0.000226637
-0.000189003
-0.0239336
2.16035e-06
4.54006e-07
-0.00290943
1.3601e-07
1.12783e-07
-1.70441e-06
1.92687e-08
1.15626e-07
4.52575e-08
5.45398e-07
4.83191e-08
6.15763e-07
-0.014688
3.46963e-07
3.48041e-06
-0.00726613
-0.000120738
2.34459e-07
-0.00131468
-3.67862e-07
-1.5743e-06
2.28242e-07
-0.00828714
-5.1983e-07
-4.07751e-05
0.0033581
-5.30586e-07
-7.93554e-07
-2.26718e-07
-0.00461113
5.3931e-07
0.00151206
3.95088e-07
-0.00461291
4.28916e-07
-0.00228661
-3.3595e-07
5.59096e-07
0.000123912
3.70981e-08
-4.0916e-07
7.52147e-08
-0.00826412
4.8826e-08
4.70779e-08
1.52083e-06
-7.46875e-07
-4.69558e-07
0.00228305
3.30764e-07
-3.45535e-08
-7.09121e-07
3.50681e-08
3.90512e-07
-0.00192107
-8.75919e-07
2.34723e-07
0.0626503
-0.000260051
-1.28837e-07
-0.029979
1.47538e-08
-1.49214e-06
3.75963e-06
0.0409442
0.0213206
0.00134936
-0.00174545
0.00165082
-0.00130541
3.0246e-08
-5.78665e-05
-0.00800884
-0.00630715
-1.48152e-06
1.15017e-07
-6.76072e-08
0.000270416
-0.0179467
6.02506e-08
-7.55163e-07
6.62421e-08
1.85737e-07
-3.46004e-07
-7.62315e-07
5.35824e-07
3.18816e-07
-0.000342414
1.05706e-07
-2.07823e-06
0.00148186
0.000698865
-4.70633e-08
-0.012504
0.0560804
-0.0026288
1.27881e-07
-3.59197e-07
-1.06333e-07
6.95693e-06
4.03794e-07
0.000539017
4.42354e-07
0.000567669
1.90927e-08
4.77172e-08
-6.64088e-07
-4.41467e-05
0.00353001
-1.02535e-07
2.23302e-07
-1.37856e-07
0.00244917
7.8647e-08
0.000150238
-0.000116388
-9.09091e-07
-2.87223e-07
0.000239241
-0.00306404
0.00485225
5.03487e-07
1.78158e-07
-0.00412195
0.00199972
3.29246e-07
-8.4713e-05
6.55846e-08
0.000275452
6.26521e-07
7.91783e-07
6.07374e-07
0.0022342
-1.71786e-07
1.51694e-07
6.55582e-07
-0.00247119
4.03216e-07
-0.00326562
4.7174e-07
4.29482e-07
-7.02672e-08
5.91632e-07
-5.6004e-05
5.22771e-07
2.61693e-07
0.000347721
0.00119168
7.18957e-07
5.9727e-07
-2.23663e-07
0.000310375
0.00333324
5.22173e-07
2.86426e-08
-5.4017e-05
2.75131e-07
1.84848e-07
9.47739e-05
4.55897e-08
0.000858032
2.48732e-07
6.21549e-07
-3.35644e-06
-0.00623317
4.24305e-07
-3.42411e-07
4.20753e-07
1.62519e-07
0.000237357
1.13512e-08
-0.00258995
3.6283e-07
-3.4497e-08
1.92373e-06
-0.0159949
-0.00821804
0.000609763
9.63647e-08
4.19808e-08
3.89242e-08
-2.20329e-06
-2.49498e-05
5.76915e-07
0.0030085
1.24944e-07
-3.33614e-09
0.0124561
9.11774e-08
-3.81996e-05
-1.37872e-07
9.66322e-08
0.00631795
0.00593774
-1.45852e-06
0.000631061
4.19518e-07
-3.28674e-07
4.74071e-08
-2.91973e-08
-2.09186e-07
-3.74948e-08
5.84139e-07
-1.08848e-08
-0.00872465
4.99292e-07
-5.10774e-07
1.82501e-07
9.92901e-07
3.83397e-08
2.74962e-07
-0.0118416
-6.08348e-09
8.03484e-08
0.000741258
0.000593635
3.78303e-08
-0.0199841
2.65105e-07
-1.19286e-05
1.275e-07
1.33207e-07
1.0012e-07
0.0279078
3.68167e-08
2.28988e-07
-3.18041e-07
-0.0196101
2.08971e-07
-1.46875e-07
7.28956e-08
-0.00318199
1.94451e-07
1.18976e-08
1.37245e-08
4.02644e-08
5.67323e-07
1.0621e-08
1.1393e-06
1.0148e-07
0.00374269
0.0055251
0.00376789
3.30798e-07
-1.18401e-07
3.47659e-07
0.000261726
-1.25971e-07
0.00600242
0.000229727
0.00290473
-1.33461e-05
-0.00357177
4.71187e-07
4.60495e-07
-0.0029121
-0.00150188
1.23867e-05
-5.33122e-06
5.12745e-07
0.00648568
2.8875e-07
5.9865e-07
-2.13133e-08
1.01047e-07
1.33505e-07
-0.00287526
1.5324e-07
-1.12349e-07
-0.0122719
-4.22311e-08
0.000403554
-1.93056e-06
4.56191e-08
4.99511e-05
9.35821e-08
0.00656472
4.23778e-07
-6.00772e-08
-6.2395e-06
4.71207e-07
-1.42557e-08
2.90444e-07
3.54113e-07
2.466e-07
-0.00106862
0.000187031
0.00486741
4.01261e-07
3.84391e-07
3.36224e-07
0.004422
9.65353e-07
-3.26122e-07
5.94878e-08
7.54638e-08
-0.00239708
0.0482896
6.71784e-05
8.56826e-07
5.05651e-07
0.00937732
-3.6261e-07
-2.631e-06
2.33687e-06
-2.93972e-05
1.94569e-05
-0.00102145
2.8754e-07
7.32761e-08
4.32666e-07
-0.00174919
1.53321e-07
-1.68841e-07
8.20597e-07
1.5076e-08
2.22743e-05
9.50233e-07
0.0276971
0.00894156
3.9103e-08
1.40964e-07
2.83551e-08
0.00114032
9.78726e-08
7.77449e-05
2.56365e-07
0.0281072
3.01435e-07
7.48261e-08
-9.8314e-10
2.01091e-07
3.5629e-07
-2.65416e-07
4.13204e-07
3.96595e-07
1.68082e-05
-2.45583e-08
0.00247021
4.22958e-07
-0.000347038
0.000276852
-2.8473e-07
-0.0186478
1.34886e-07
1.13203e-07
-2.7417e-06
9.38759e-08
-0.001091
7.18012e-07
3.08881e-07
-7.31951e-08
-0.00803374
1.09109e-07
-0.00250006
1.81148e-07
3.98859e-07
3.95736e-07
-0.00138793
1.8847e-06
2.54658e-07
-5.83889e-06
4.17787e-07
-0.00313215
4.12267e-07
-2.46996e-05
5.35986e-05
4.04464e-07
5.50305e-07
-5.45863e-07
7.62743e-07
-9.2777e-06
0.000911452
9.55841e-06
4.18165e-08
-5.63562e-07
-4.63655e-07
3.66809e-06
4.33496e-07
-0.000173459
3.15407e-07
6.15008e-07
0.000372631
3.17565e-07
-2.42313e-06
6.79819e-07
4.94496e-07
-0.000965988
-1.06688e-05
4.0631e-07
7.48902e-07
2.33371e-07
-3.43385e-07
-2.3528e-05
4.17596e-07
9.36184e-08
-2.15316e-07
-0.00371634
9.02785e-07
8.16202e-07
6.6328e-06
3.0513e-07
2.55591e-07
5.04305e-09
6.04881e-07
1.57517e-07
3.81287e-07
-1.12598e-07
3.3626e-07
3.16712e-07
3.37328e-07
2.40396e-07
4.06751e-07
0.000820386
4.38196e-08
3.22753e-07
2.42708e-07
3.73437e-08
8.65293e-05
-2.14042e-06
9.20661e-07
4.59526e-05
-0.000582824
3.45187e-07
-0.000201631
-0.00380493
5.87991e-08
6.09177e-07
2.23527e-08
-1.03732e-05
0.000458838
1.9797e-07
2.01669e-07
5.76072e-07
0.00082831
-0.0137857
6.03334e-07
7.62993e-05
0.000215961
0.00338693
-9.78958e-06
-3.08984e-07
6.68909e-07
0.00229776
7.54375e-06
4.86607e-07
-0.0125994
-0.000129761
-0.000504438
-0.00377334
2.14749e-07
-0.000187801
-0.00634269
0.00117309
0.00130945
7.6741e-07
-0.0101128
9.18987e-07
-0.000750786
4.75337e-07
3.01877e-05
2.51205e-07
9.4762e-07
-1.54386e-08
6.2461e-07
9.1911e-08
-0.0222446
6.34718e-07
5.79991e-08
0.0088266
3.6501e-07
-5.73097e-08
3.06042e-07
0.000696175
-5.82571e-08
3.17509e-07
-5.81244e-08
8.76612e-07
-1.26203e-08
-2.30284e-07
1.59883e-07
0.0580524
-0.000133633
-0.00015006
7.28668e-07
0.00693296
2.09844e-07
1.6985e-06
0.00105044
-1.69254e-05
7.38667e-08
3.10261e-08
8.19084e-07
1.34438e-07
-0.0108948
-1.02673e-05
3.34752e-07
-0.00605121
-3.56704e-08
2.33502e-07
0.00577269
2.21838e-08
3.16135e-07
-0.010944
2.32114e-07
-0.00860446
1.68028e-07
-1.15496e-06
-1.12212e-07
-3.16539e-08
3.09001e-06
1.95431e-07
0.0111069
0.0116458
7.9482e-08
7.36973e-07
0.0307172
0.0633406
1.58645e-05
-1.61246e-07
4.21253e-08
3.41664e-05
6.06771e-07
-7.81381e-06
0.00506311
-1.04899e-07
5.45924e-08
-8.29473e-07
-0.0034033
0.000729855
4.15063e-08
1.94151e-08
-1.20508e-07
4.30227e-07
-0.00250085
0.00266357
-1.76651e-07
-1.91856e-07
0.000481523
-5.63544e-07
3.20504e-07
-0.0152093
9.79263e-07
0.00320305
-3.54699e-06
-2.76204e-08
4.26827e-07
-1.66964e-06
9.48441e-06
0.000646181
-4.2852e-07
0.00158024
-0.0107851
0.00104211
3.13384e-07
1.00988e-06
-0.01405
-1.02657e-06
-0.00257375
-7.78221e-07
4.40511e-07
1.90899e-07
-0.0023452
-0.00732637
-4.79857e-07
-1.63691e-07
-1.35346e-06
1.90421e-07
-7.13006e-05
-5.1306e-07
4.89836e-07
-1.04055e-07
-9.87577e-07
3.52799e-07
5.6834e-08
-0.00336238
-2.07004e-07
5.60172e-08
7.56067e-07
-6.02865e-08
0.000658239
2.51804e-07
1.72433e-07
0.00144065
5.46036e-07
2.09436e-07
4.39625e-07
0.00622453
1.94164e-08
-5.86804e-08
-1.98493e-07
-0.000198411
4.40086e-07
1.07379e-06
2.63297e-07
2.1738e-06
-9.50549e-08
0.000658498
-4.98054e-07
3.70033e-07
4.9279e-07
2.12467e-06
-1.64051e-07
3.55641e-07
1.45609e-06
-0.000987988
2.48106e-05
8.59709e-08
-9.27465e-07
0.000288594
-0.00033381
-6.75382e-06
6.18125e-08
0.00583317
-4.98136e-08
-8.49762e-06
-0.000121303
-1.22256e-06
3.79666e-07
1.65822e-07
6.09885e-05
-0.00797742
-2.24636e-05
-5.31785e-07
7.46796e-07
-1.1136e-07
-3.43417e-05
3.83498e-08
1.75897e-07
-8.40428e-07
-1.91685e-08
1.56072e-08
0.00258882
8.17931e-07
-0.0235562
-3.02628e-08
1.28744e-07
4.13098e-08
1.17257e-06
7.86672e-07
-4.98981e-06
0.0260595
3.12533e-08
-2.94874e-07
-0.0223815
6.77676e-07
1.70555e-05
1.67274e-08
-0.00931707
0.000627584
-9.27546e-07
-0.00298885
9.32272e-07
5.50239e-07
0.0140326
3.38393e-08
4.92876e-07
2.72028e-08
5.70577e-08
3.39837e-07
-0.001159
-3.71218e-07
-0.00130639
-0.00326735
4.2181e-06
4.64821e-05
0.00064709
1.08835e-07
0.00153751
-7.7983e-08
-4.4729e-07
3.91268e-07
6.12432e-08
6.60633e-07
0.000250233
-0.00134732
1.07967e-07
0.002522
1.37581e-07
6.969e-06
5.34572e-08
5.37931e-07
-2.43755e-07
-4.29068e-05
0.00232015
3.7526e-07
5.45871e-08
0.0625627
-4.46505e-05
-1.8359e-05
-4.72814e-06
0.000141366
8.86265e-07
-0.00179491
-0.00783138
9.24194e-08
2.24171e-08
3.19703e-07
6.84797e-07
-7.14894e-08
3.32134e-07
2.99677e-07
-5.09243e-07
7.90644e-07
5.27961e-08
-9.60769e-08
0.00116951
-0.000337998
2.21617e-08
1.55182e-05
4.23527e-07
-1.37551e-06
1.08274e-06
-0.000198072
2.21698e-07
-2.34038e-06
-1.28308e-06
6.90344e-08
5.01895e-07
0.00125684
2.63343e-07
5.74716e-09
-1.22801e-07
-0.00013325
-0.00235351
-1.5308e-07
-0.00281749
5.79386e-08
5.29809e-07
0.053567
-3.46437e-07
-4.91287e-07
9.4896e-08
-1.22835e-06
-6.8281e-06
0.00106589
4.18756e-07
4.77344e-07
1.50527e-07
5.32302e-07
2.80163e-07
-0.001505
3.89516e-08
1.08095e-06
-2.23199e-05
-0.00176897
-8.45249e-08
-0.00152133
8.20658e-08
-2.518e-05
-2.80046e-07
0.000377381
3.36021e-08
0.00280146
0.00322047
-0.0080029
4.22792e-07
-0.000398797
0.000290467
0.00508821
9.77002e-07
0.00025784
2.34003e-07
0.0039938
-0.000240787
-1.38642e-06
0.0330443
0.00408115
-0.00433438
-0.0101905
2.7127e-07
0.00136737
5.51194e-08
-6.71244e-08
0.000228192
-8.16891e-07
1.46939e-07
0.000551896
2.33708e-08
1.51881e-07
-3.4907e-07
-0.000188997
-4.708e-07
1.53492e-06
-0.0037624
6.17907e-07
0.00299419
2.41938e-07
4.0399e-08
1.94066e-07
-0.00385283
0.00238172
6.64684e-07
0.000173901
6.54297e-07
8.81233e-07
3.12713e-07
0.00604143
2.33591e-07
1.33311e-07
0.000160355
-0.00908826
-9.88711e-07
0.000173578
1.47883e-08
-8.15998e-07
-0.000165036
-1.56945e-07
0.000644273
-0.00109273
2.48316e-07
2.11142e-07
8.92724e-08
-0.00221202
4.32189e-08
0.00879483
0.000234
3.49006e-08
4.22544e-07
2.15304e-08
4.70929e-07
5.94598e-08
-1.04621e-05
-5.7405e-08
-3.61697e-06
0.00406223
6.76524e-07
-1.26429e-07
0.00294598
-5.51293e-07
-3.9539e-05
1.05827e-07
4.25232e-07
-0.0161853
-0.000720882
9.42234e-07
0.0332747
5.25919e-06
0.00201862
-1.9848e-07
5.96213e-07
-2.14253e-06
7.56986e-08
3.17216e-06
0.00264873
1.77103e-06
7.10217e-08
-0.000305738
-2.11774e-05
6.25108e-07
-0.00122757
-6.07188e-06
0.000312463
6.45455e-08
3.63804e-08
-0.00255921
1.47433e-09
-0.0175398
-0.000251222
-5.1633e-07
0.00364746
7.10766e-07
-8.96014e-07
0.0182618
-0.000511548
3.22546e-07
0.0263044
4.06713e-07
1.64037e-07
-8.82348e-06
2.09543e-07
6.26788e-08
-7.95267e-07
6.19154e-07
7.61886e-08
3.18901e-07
4.21374e-07
8.7416e-08
0.00621632
-7.68499e-07
0.00331093
1.82307e-07
-1.16157e-07
2.44967e-07
3.56405e-07
4.981e-05
3.34464e-07
0.000244028
0.000326073
4.49764e-07
-0.000820116
-9.55787e-07
0.00014161
3.28561e-08
-1.40137e-05
-7.80796e-05
0.000153153
5.55806e-07
-6.96579e-08
5.40953e-08
0.00228564
6.34655e-07
0.00324056
-9.10969e-07
-4.81578e-08
-0.00365646
1.00356e-08
-0.00391126
3.60664e-07
0.005588
6.52525e-07
2.90734e-08
-5.75475e-08
-0.00180297
2.28944e-07
3.78787e-08
3.18004e-08
4.40508e-07
5.21528e-07
-7.01285e-05
-0.00414339
3.68804e-07
-2.14569e-08
3.27194e-07
3.52448e-07
6.54947e-08
-0.00124331
-0.0110173
-1.92659e-07
3.09845e-07
1.24082e-07
2.4216e-08
7.32605e-07
-1.48672e-07
-8.46902e-08
-0.00179918
0.000816886
0.000648384
1.03926e-07
4.65455e-07
1.43248e-07
2.70028e-07
5.57377e-08
4.63067e-07
4.60711e-07
5.52952e-08
-1.72772e-05
-1.04089e-06
1.13213e-05
-0.0198717
0.00711238
1.94779e-06
3.65466e-07
1.16002e-07
-0.0102467
2.60548e-07
8.59299e-08
5.56856e-07
1.51769e-07
2.34248e-07
9.86254e-08
0.000230263
-5.02398e-07
-0.000347692
-0.000717952
-2.71295e-06
1.69798e-07
-1.30311e-07
0.00101964
3.96622e-07
2.73789e-07
-2.11108e-08
-1.23815e-06
1.08156e-07
-1.94341e-07
0.000227103
0.00458734
-8.62128e-08
3.46516e-07
-1.72279e-05
-8.94285e-08
-2.26772e-06
3.13869e-07
-0.00011856
2.1712e-07
-1.4264e-07
6.70035e-05
-1.26452e-05
-1.0174e-06
-5.32521e-07
-2.79589e-07
-4.65058e-08
4.08385e-07
-0.000280852
0.00191172
0.000628294
1.6665e-08
-0.0051229
2.85169e-07
0.00860717
0.00497869
-3.70789e-09
-0.0167336
0.000287966
1.50839e-07
-4.57601e-06
3.52299e-07
2.52347e-07
0.00238169
2.27436e-07
-0.0111078
6.89804e-06
-0.0222227
0.0271471
-8.50695e-07
2.70108e-07
-2.19447e-07
4.84133e-07
3.40405e-07
8.42807e-09
5.3274e-08
0.00283119
8.17614e-08
4.8816e-07
0.00633171
0.0101316
5.02234e-07
2.44704e-06
-3.45936e-07
-0.0144759
-1.90983e-08
0.00205212
0.0376395
0.00647057
0.0196
-0.0014012
0.0150225
3.02297e-08
1.7415e-07
-4.53879e-08
1.98213e-06
7.25235e-08
-0.00591211
-1.10757e-07
-0.00548081
-3.9888e-08
-2.57797e-08
3.5695e-07
4.32748e-07
-9.12684e-08
4.19622e-05
-0.00462345
-0.00427257
-9.29802e-08
3.29244e-07
4.14201e-07
-9.75747e-07
-5.30293e-06
3.50758e-07
0.00053036
-0.00416953
5.11049e-07
1.14019e-06
0.00429405
-6.92301e-08
9.57037e-05
-0.00193462
1.87096e-07
0.00305554
5.22422e-08
-0.00447273
3.07229e-07
-0.000241746
-4.73935e-08
-0.0013662
-4.9693e-05
-0.0219012
-0.000169895
-0.0114174
-5.27644e-05
0.00168167
1.48809e-06
1.05442e-06
-0.00168543
0.000225694
-1.76246e-05
-2.61884e-07
-4.58403e-05
0.000480257
-0.00100958
-1.08308e-06
0.000744084
-1.75681e-07
6.84941e-08
-0.00152637
1.51039e-06
-4.86362e-07
3.80856e-07
-2.5375e-08
4.62495e-08
4.51619e-08
-3.34083e-07
0.0318656
-2.53859e-08
0.000331184
-2.75459e-06
0.000108512
0.000354906
0.00231413
2.23404e-07
3.85326e-07
0.00377465
-0.000604778
8.36492e-07
-0.00331777
-0.0148407
0.000645166
1.54693e-07
8.12423e-09
6.9983e-07
-2.81058e-07
9.85856e-05
-0.000652499
0.000456637
-2.89064e-06
2.00492e-07
2.76153e-07
7.24268e-06
0.000243372
-1.95379e-06
0.000469979
3.86461e-07
6.71804e-07
2.38327e-07
0.000249221
3.29397e-07
7.40686e-08
1.02723e-07
3.95874e-07
0.000121931
0.000210396
3.98494e-07
-8.20046e-07
-0.000490651
-2.91579e-07
-0.00222076
4.92328e-07
4.06255e-07
7.36969e-07
4.77963e-07
0.00367968
5.89761e-09
-1.52889e-07
-1.13456e-07
2.09114e-06
-4.81534e-06
1.8288e-07
6.65753e-08
3.39736e-07
4.76564e-07
-0.00934937
5.19487e-07
4.1159e-07
5.07396e-07
-1.40035e-05
-7.71142e-08
-0.000791399
4.98665e-07
3.45015e-07
6.92281e-08
0.0033601
0.000149603
-2.56892e-06
-0.0106999
-7.99184e-07
9.89517e-09
-0.00160432
6.04859e-08
0.00144364
0.010678
4.78896e-07
1.89867e-07
0.0662036
3.84784e-07
0.000314905
4.11002e-07
-0.0171495
-0.000352924
0.000157983
3.58835e-07
1.88538e-07
3.97205e-07
1.59856e-07
3.80498e-07
2.37103e-08
4.23262e-07
4.40338e-07
1.55404e-07
4.35713e-07
3.95494e-08
-3.99905e-07
3.90952e-07
0.0434908
2.73299e-07
-0.00261105
7.94172e-08
2.36999e-07
0.0198367
2.15403e-09
-0.0169745
0.000707066
7.13297e-08
3.94249e-07
-9.5036e-07
-0.000677963
3.58409e-07
-0.00266969
2.00964e-07
1.40304e-06
-0.000125266
-1.05022e-07
-0.00278162
4.64088e-07
-0.000189579
-3.88355e-08
-0.032146
-0.0138866
0.00149475
3.54449e-07
4.61884e-07
2.39274e-07
6.02136e-08
-4.89112e-05
2.68308e-07
4.41749e-07
-1.37196e-06
4.7848e-07
0.0037547
0.000211475
4.12993e-08
5.52093e-07
2.0186e-07
-2.34954e-07
2.82816e-07
3.16095e-07
5.34124e-08
0.047194
-0.01546
9.37734e-05
4.15524e-07
2.82179e-07
3.47591e-07
-5.86439e-05
-0.0173812
1.14283e-06
-0.0185935
-0.00102177
3.75372e-07
3.35061e-07
-1.52956e-05
1.01192e-07
4.44705e-07
4.33066e-06
3.3818e-07
0.000280534
2.06391e-07
-0.000572514
1.02464e-06
4.47907e-07
-1.94335e-05
2.1681e-07
-4.47516e-08
4.00858e-07
6.74031e-07
0.000588319
1.42626e-06
-5.17714e-07
4.23216e-07
-0.00477967
-0.00233805
5.00899e-07
6.66599e-07
2.65521e-08
-1.07581e-07
-2.20169e-07
-0.000243204
9.36215e-08
6.33023e-07
4.00989e-07
3.41703e-07
-7.37408e-07
2.43342e-07
-0.0127217
1.28902e-07
3.75187e-07
0.000636526
3.94832e-07
4.958e-07
-0.000490266
5.06183e-07
0.000194776
1.49038e-07
6.40838e-08
5.4399e-08
2.24404e-06
8.1872e-08
-0.000518491
2.51126e-07
-7.72667e-08
-0.0132335
-0.000102104
-0.0303153
-0.000162619
-0.000512312
7.28639e-07
2.03023e-08
4.29957e-07
0.00121566
1.43288e-07
-0.00196066
4.6838e-07
-7.8417e-07
3.80555e-05
0.000462864
1.20109e-07
-0.00572865
-1.38786e-05
2.57535e-07
7.7502e-07
5.68312e-07
2.52509e-07
-0.00310085
9.65392e-05
3.11258e-07
4.19904e-08
-4.67878e-08
-0.000550814
4.63182e-07
-0.00281063
-7.57641e-07
4.98628e-07
3.11801e-07
-1.28445e-07
0.00351208
0.00132184
8.67072e-08
0.0447571
-0.00137171
4.23683e-07
-0.00155872
4.43967e-07
3.97419e-08
1.67007e-08
6.54259e-07
2.00622e-07
-3.40126e-07
6.80141e-07
5.32029e-07
6.34457e-07
-1.04662e-05
4.73516e-07
0.00245138
2.32756e-07
2.08052e-07
5.37274e-05
2.83162e-08
1.07328e-06
1.0236e-06
3.02138e-07
-0.00442187
3.01882e-07
-1.04776e-07
0.000824517
8.09753e-08
0.00429204
0.00154071
5.66777e-07
9.59884e-08
-3.52119e-07
0.00157376
4.39133e-07
0.0023974
-0.00494123
-1.05272e-07
7.40738e-08
4.89721e-07
1.17774e-05
1.0105e-07
2.85954e-05
4.79472e-07
0.00237135
0.000618885
2.09892e-05
0.00371552
-6.48977e-09
-1.79954e-05
-0.00225786
1.10178e-05
3.28223e-07
-2.9827e-06
4.3788e-07
-2.00255e-06
1.54516e-07
3.60476e-07
-0.0170976
3.94518e-08
-0.00057535
0.00193507
3.89225e-07
0.000286497
-9.15327e-08
4.24316e-05
4.30714e-07
1.73486e-08
0.000412994
-0.0013537
-0.00102171
-8.52866e-07
-2.18245e-08
-0.0205776
3.42334e-07
4.43658e-07
-3.73628e-08
5.2562e-07
-9.36439e-07
-6.80744e-08
6.77782e-08
0.000178656
-2.73192e-07
-4.72621e-07
8.82153e-08
1.11317e-07
3.78877e-07
5.60788e-06
-1.77147e-07
0.0140963
-7.18385e-07
-6.64603e-05
-3.32276e-07
4.15339e-07
-5.38479e-08
-4.72516e-06
-4.26442e-07
0.0526956
-0.0125637
-0.000408075
7.77354e-07
3.13376e-08
3.81485e-08
2.82758e-07
1.9121e-07
-0.00366854
8.2872e-07
4.81523e-07
-0.0113243
4.6389e-07
4.40531e-07
0.0180146
0.000175568
0.000765259
4.18137e-07
-0.0221367
-0.00528109
9.64268e-08
-1.13545e-07
1.42476e-06
0.00117491
0.00124443
-0.00301238
6.86994e-05
2.02988e-07
6.86263e-08
-0.000221635
8.00703e-07
5.10011e-07
-1.36663e-05
5.63554e-07
2.58557e-07
-0.000249976
-0.0020157
1.4011e-05
-1.2692e-07
-5.34995e-07
2.28866e-07
0.000816324
3.68034e-07
2.80659e-07
3.94207e-07
-0.000179402
1.12157e-07
-9.1752e-08
-0.00108522
0.0188821
1.22965e-07
2.83979e-07
-6.73815e-08
6.39094e-07
9.73704e-08
-8.51573e-07
0.0135496
1.90886e-07
0.00186881
0.000298804
0.00379149
8.02192e-07
7.99513e-07
5.81021e-07
4.93487e-07
3.96589e-08
-1.81219e-08
5.70432e-07
0.000834341
0.00121472
-4.03712e-07
-8.04441e-09
7.57577e-07
3.21911e-07
2.52573e-06
-8.70912e-08
-0.000390228
0.00152344
0.000212688
-1.14464e-06
-9.29233e-08
4.15165e-09
1.00018e-07
5.36484e-07
-0.0172085
1.54388e-07
-5.91489e-08
1.27155e-05
-0.000314891
-0.00113732
2.78407e-06
0.0168277
-0.00434455
4.81381e-07
-4.08932e-07
-0.000452313
-0.00993734
4.55178e-07
-1.18175e-07
6.92249e-07
4.2193e-07
5.6711e-07
-3.13729e-06
-2.44916e-08
3.8014e-07
0.000353063
-6.69797e-08
-0.0194715
2.47106e-07
6.68616e-08
5.12745e-10
3.35052e-05
-0.000118286
-0.00162577
2.46319e-07
9.02236e-06
-1.92452e-07
2.51954e-07
-0.00257755
2.50493e-07
-7.51456e-08
5.98585e-07
-1.10384e-07
-0.00140422
-0.0232356
-0.00375694
-4.06164e-06
0.0010017
-6.40951e-05
0.00236566
1.46254e-07
7.10419e-07
0.000730726
3.08163e-07
6.64856e-07
5.70771e-07
3.15515e-07
-0.00376706
4.95067e-07
-0.00304867
0.000335672
-8.81205e-08
0.000259001
9.23113e-07
3.87643e-07
-1.97923e-07
9.98229e-07
-7.11877e-12
2.96909e-07
8.24197e-07
-0.0020908
7.04372e-07
3.16177e-07
4.49187e-07
-1.31846e-06
0.000608468
1.98138e-07
7.21008e-07
0.000104366
-0.0230015
1.12617e-07
3.75905e-07
3.27106e-07
-4.0312e-07
1.71718e-07
4.75908e-07
-0.0123388
0.065565
3.9788e-07
2.25356e-07
3.11899e-07
8.0766e-07
-0.00158913
5.61211e-07
-0.00195124
-0.0225314
4.11454e-07
5.92464e-07
-0.0150174
-0.0129228
4.97091e-07
9.98746e-09
1.04617e-07
-0.0032775
6.66997e-05
-0.0217903
5.03302e-07
-0.0179455
-8.29597e-07
-0.00200989
-0.00285496
0.00105791
0.000402658
0.000360668
-0.000334992
-0.00726195
-3.61792e-07
-0.000960094
-4.38563e-07
-0.0197342
2.9312e-07
4.22341e-07
3.36088e-07
-3.76433e-05
0.0017225
4.84005e-09
3.88134e-07
-0.00224417
-0.00944335
-0.0110057
2.69073e-07
-4.42489e-09
1.40065e-07
7.96027e-07
9.3571e-07
-1.34665e-06
-0.00146885
-0.00136368
7.47916e-07
-6.18665e-08
-3.87059e-05
5.49404e-07
3.98264e-07
-0.00187594
-3.43805e-07
4.9634e-07
7.42628e-09
-0.0022297
-1.0121e-06
-0.000571159
-4.1309e-07
-0.00205207
-0.00482753
-8.19342e-07
0.00462966
-0.0153966
-0.00162795
0.00273941
1.21142e-07
6.01829e-07
1.33017e-06
4.7507e-07
1.41988e-07
1.01598e-08
7.7413e-07
9.63935e-07
8.70509e-06
3.3999e-07
-0.00144486
-3.14302e-06
-0.00154197
8.83773e-07
0.00620706
0.000107949
-2.96878e-06
0.0497727
0.00144597
2.29771e-05
0.00325193
-0.0211275
5.61992e-07
4.51003e-07
1.64143e-05
1.22363e-06
3.32192e-05
3.66293e-07
-2.62785e-07
0.000274749
1.59414e-07
6.16602e-08
4.35367e-07
-6.67806e-08
0.000956604
6.03669e-07
1.73959e-07
5.95393e-07
-0.0162587
1.33523e-07
-0.0494866
-0.00274912
0.000590784
-0.00416456
4.14896e-08
3.55199e-07
7.80474e-07
1.83865e-07
-0.00838138
-0.00067494
0.00270497
-0.0032051
-1.03874e-07
9.1955e-07
7.46155e-07
5.21083e-07
0.00270828
1.00731e-07
1.9095e-07
-0.0207377
-0.00284929
0.00537239
8.67664e-08
8.12288e-07
0.000805722
-6.78136e-06
7.54874e-05
-5.64878e-05
-0.0108192
-0.00610872
-1.1323e-07
-2.2316e-08
8.53553e-08
5.74145e-07
-5.3607e-05
4.02877e-07
0.00019106
3.3653e-07
8.10933e-07
-0.00177421
5.36684e-08
-0.00147626
-1.9889e-08
6.36879e-07
3.39182e-07
0.000120765
2.21771e-07
-1.75095e-07
0.00276334
4.45096e-07
6.2263e-07
-9.5338e-07
-0.00906122
5.17679e-07
-1.10566e-05
9.06471e-08
0.000455327
-0.000253945
1.77194e-06
1.87885e-07
1.5443e-07
2.46331e-06
4.56981e-07
0.000119039
-0.00188914
-0.00405587
-0.00144542
1.85902e-07
1.74808e-06
3.3905e-08
-3.41984e-07
4.89497e-07
0.00261058
0.00149532
3.19031e-07
-0.012437
2.71215e-07
-0.0191118
-8.19605e-07
1.04261e-07
0.000115919
2.26506e-07
1.64427e-07
-3.52682e-08
4.43056e-08
-3.21788e-06
-0.00857266
1.12063e-08
-7.90147e-08
-3.18282e-05
-1.3677e-08
6.02429e-07
1.93353e-07
5.9983e-07
5.03023e-07
-0.00305788
1.18939e-05
4.86128e-08
3.30699e-07
4.04772e-07
2.57376e-07
0.000266558
-0.00203655
3.2298e-07
4.48922e-08
-1.39517e-07
0.000214987
4.78182e-08
7.55049e-07
4.91969e-07
1.22869e-06
1.4756e-08
7.41138e-07
0.00171832
1.39848e-08
-0.00143197
1.31564e-07
3.47891e-07
1.72258e-07
4.17467e-07
2.32244e-08
1.37184e-07
0.000528996
-0.00063297
6.30126e-08
-4.29935e-07
1.00681e-07
1.03359e-05
5.83906e-07
6.94105e-07
6.50485e-08
3.54211e-07
-1.00549e-05
1.02078e-06
-0.001595
-5.60245e-05
2.42081e-07
5.87774e-07
0.00601307
4.11726e-08
0.00263395
2.19892e-06
8.58008e-08
-0.00207795
-0.00916352
0.00118975
0.00203674
0.000128915
7.02497e-07
2.37748e-07
0.00744514
2.41052e-07
-3.02396e-07
-3.50897e-06
8.05842e-08
4.30741e-07
0.013855
2.79571e-07
0.000354061
-0.0111928
1.91763e-07
2.85726e-07
-0.0430364
4.5781e-07
0.00635332
9.43172e-08
0.000758931
-3.26332e-05
-0.00173517
4.55678e-07
2.31377e-07
1.85187e-07
-0.00865516
-0.000434535
-0.00318798
0.0041556
-2.055e-06
1.4999e-07
0.00509536
0.00902824
4.37346e-07
3.00476e-08
3.64245e-07
1.21513e-07
-0.0175298
3.09959e-05
3.40966e-08
0.000682307
1.71263e-07
1.72625e-07
6.93638e-08
1.11622e-07
-5.77365e-08
0.00378363
2.83677e-07
-0.00641516
-2.97151e-07
3.71134e-07
8.65524e-07
3.83004e-07
4.24101e-07
1.25789e-07
2.66088e-05
4.84894e-08
-0.000679851
-0.000692984
0.00364261
6.79793e-07
0.00591138
-5.88603e-06
-9.98466e-08
-1.17778e-08
1.19002e-07
-9.26481e-09
-0.00787235
-0.000332735
1.80776e-08
5.03021e-07
-0.0188624
7.90427e-07
0.00119072
9.70027e-07
7.73601e-08
8.23821e-08
0.00188645
0.000125254
1.33872e-05
-0.020561
2.93907e-07
0.00255741
0.00374477
-4.23069e-07
2.59716e-07
2.07203e-07
3.57089e-07
4.03188e-07
-0.00128825
-0.0199866
4.73666e-07
1.55566e-07
1.18758e-05
6.02192e-07
0.00120217
1.34702e-07
0.000311758
6.22724e-08
-4.09743e-05
-9.75571e-07
1.26843e-07
3.41755e-07
0.000669643
1.16542e-06
-0.0012892
1.32406e-08
6.11706e-08
2.6689e-07
1.47114e-07
0.00116304
-7.50175e-08
7.89741e-07
1.16388e-06
-2.85255e-08
0.00036237
-0.0137673
-1.96566e-05
-3.50627e-07
2.89204e-07
9.64387e-06
0.00015726
8.59667e-08
1.17836e-07
-4.48258e-06
-4.68851e-08
1.52463e-07
-0.00256844
7.07182e-07
-0.000254793
0.00140714
0.00463268
5.40159e-07
1.60748e-07
-3.17042e-07
2.70583e-07
8.05388e-08
1.13294e-07
0.0108134
-1.86642e-05
1.72158e-06
7.13756e-08
3.27021e-07
2.42098e-07
0.00874276
4.4594e-08
1.62095e-07
-4.67945e-08
8.26941e-08
1.58666e-07
0.000411573
7.52057e-07
8.93999e-09
2.01845e-07
2.19992e-07
2.07946e-07
-7.32384e-07
0.00195475
-5.5378e-05
-2.34742e-07
-9.45228e-09
-2.57746e-07
8.34487e-08
-0.00274703
3.11616e-07
-0.0026137
-1.70067e-05
2.1966e-08
1.2248e-07
-0.0015578
1.21636e-07
1.40425e-07
1.41581e-07
-0.000270109
4.54732e-07
-6.82841e-06
8.10857e-08
2.1848e-08
2.92285e-07
-0.00325117
-1.49992e-07
6.02956e-07
5.10087e-07
-0.000599543
6.47257e-07
2.11972e-08