/*--------------------------------*- C++ -*----------------------------------*\
| =========                 |                                                 |
| \\      /  F ield         | OpenFOAM: The Open Source CFD Toolbox           |
|  \\    /   O peration     | Version:  v2012                                 |
|   \\  /    A nd           | Website:  www.openfoam.com                      |
|    \\/     M anipulation  |                                                 |
\*---------------------------------------------------------------------------*/
FoamFile
{
    version     2.0;
    format      ascii;
    class       volVectorField;
    location    "800";
    object      ddtCorrDdt0(U);
}
// * * * * * * * * * * * * * * * * * * * * * * * * * * * * * * * * * * * * * //

dimensions      [0 1 -2 0 0 0 0];


internalField   nonuniform List<vector> 
10042
(
(0.00901179 0.015137 -9.60254e-20)
(0.0167082 -0.043828 -2.06344e-18)
(-0.0412999 0.0110693 -1.73106e-18)
(0.00014314 5.54345e-05 -1.08754e-21)
(0.000154464 -2.51609e-05 -2.88331e-19)
(0.0635859 0.0147376 -3.34347e-18)
(0.085202 -0.0512333 -6.4752e-18)
(-0.0317338 -0.0612325 -8.84355e-19)
(-0.000128346 -4.61028e-05 1.28568e-18)
(0.0289606 0.0098588 5.24301e-20)
(-0.0198873 0.0102607 4.10272e-19)
(0.00853393 -0.0445439 -1.26251e-18)
(0.000402799 -0.0177 -1.19664e-18)
(0.000198207 -0.00175665 -4.21308e-19)
(0.000279931 -0.000917494 1.34425e-18)
(0.000429252 -0.00181333 1.79522e-20)
(0.0476354 0.0892853 1.75895e-18)
(-0.0193639 0.0144693 -2.96936e-19)
(-0.000229499 -0.00543459 -3.72604e-18)
(-0.00296112 0.0128884 -2.90448e-19)
(0.00198259 -0.0178154 5.68423e-18)
(0.00699496 0.015645 1.28041e-19)
(0.000137463 5.92188e-05 -5.14034e-20)
(0.00153887 -0.0815608 -5.91769e-18)
(-2.83823e-05 -0.000297576 4.59229e-19)
(-7.8401e-05 -1.10484e-05 9.14618e-20)
(0.0266397 0.0100128 -5.22977e-20)
(-6.34187e-05 9.50195e-06 -4.49621e-19)
(0.0613645 0.0233261 -7.80093e-19)
(0.00724676 -0.162687 3.58882e-18)
(0.000174223 5.25836e-06 1.32283e-19)
(-0.0147992 -0.0136958 7.9276e-18)
(-8.2252e-05 -3.9607e-05 -1.14907e-20)
(-7.59888e-05 -2.44885e-05 -3.21759e-19)
(-0.0374857 -0.0414442 1.91008e-18)
(-0.0131337 -0.0112083 3.82844e-18)
(0.000136234 -1.82152e-05 2.6857e-19)
(2.99253e-05 0.000121602 8.84814e-19)
(0.00017676 1.0949e-05 -3.05177e-19)
(0.00415532 0.000350397 -2.01351e-20)
(0.0114556 -0.138266 2.73209e-19)
(-0.000110634 -2.95876e-05 -5.17393e-20)
(0.00218505 -0.0561706 2.16183e-19)
(-0.0825525 0.0196833 4.99186e-19)
(-2.43278e-05 0.000119111 9.46085e-20)
(-1.33059e-05 -0.000353047 5.21327e-19)
(-0.000161948 4.02538e-05 2.53666e-18)
(0.00031233 -0.000838333 -2.22846e-19)
(0.0332277 -0.0129386 -1.77079e-18)
(-0.312728 -0.157623 -4.3344e-18)
(-0.0095679 -0.063175 -1.0291e-18)
(4.95167e-05 7.4689e-06 2.5416e-19)
(0.0590395 0.0626884 -4.28566e-18)
(8.82451e-05 -0.00507093 4.08736e-18)
(0.0315991 0.0415203 -1.78363e-18)
(0.244873 -0.00605581 -5.51463e-18)
(0.00271443 -0.0164045 -2.26652e-19)
(-0.0139809 0.00781706 -1.39386e-19)
(0.00153549 -0.000524409 1.27071e-18)
(0.000122742 -4.46047e-05 4.92505e-20)
(0.034216 -0.00985741 2.99e-18)
(0.0522098 0.052781 -2.02228e-18)
(-0.00488499 -0.0553473 6.73107e-18)
(-0.0359197 -0.0792473 8.94821e-20)
(-0.0293716 -0.00748784 1.10701e-20)
(0.000869001 -0.00223621 -8.21703e-19)
(-0.00501705 0.0109945 -2.76889e-18)
(0.019726 0.0128348 -4.95385e-19)
(-0.000226704 5.07705e-05 9.3535e-21)
(0.017103 0.0136999 4.2946e-19)
(-0.12343 -0.0855117 5.03653e-18)
(0.00225781 0.00411364 1.4535e-20)
(0.000413523 0.00029771 2.72894e-19)
(0.00138652 -0.00053097 -1.27188e-18)
(0.00089023 -0.00195115 1.96676e-18)
(-0.0742062 -0.0734502 -4.76591e-18)
(-0.0181309 0.0144522 -2.13972e-19)
(-0.000175406 4.612e-05 -2.72095e-18)
(-0.0168721 0.0175883 -4.08023e-19)
(-0.000691255 -0.00534439 5.71326e-18)
(-0.0888718 0.042284 -4.24027e-19)
(0.00170436 -0.117917 4.13177e-19)
(0.000128647 2.14268e-08 5.58917e-19)
(0.000111217 -5.24574e-05 -4.89785e-19)
(0.0142561 0.0174808 -9.45192e-19)
(0.0540476 -0.0116562 -9.6769e-19)
(-0.00505342 0.0097274 1.80509e-19)
(-0.0435474 0.00489023 -1.18306e-19)
(0.000500895 0.000899034 5.07717e-19)
(-0.022598 0.00393811 -2.93393e-20)
(5.24451e-05 -0.0118549 4.13857e-19)
(0.000198457 -0.000939317 1.0159e-18)
(-0.00424432 -0.0553378 -7.71736e-18)
(0.05701 -0.00838786 5.58418e-19)
(-0.027625 -0.0224408 3.58286e-19)
(-0.000118066 0.000809521 -1.60061e-19)
(0.0144401 0.123596 -7.70719e-17)
(-0.00339331 0.0115836 1.43637e-18)
(-0.0528261 -0.0118072 4.25063e-19)
(0.00119995 -0.000634136 -1.13947e-18)
(0.000549225 -0.0109084 -4.64949e-18)
(0.0388357 0.0120056 -5.00347e-20)
(0.00147632 0.0016519 1.12899e-20)
(-0.0118456 -0.0108651 -1.52718e-18)
(0.00184249 -0.00727996 -3.91956e-18)
(0.00116185 0.000922313 -5.4342e-20)
(0.13099 -0.00865128 -1.59932e-17)
(0.00056323 -0.00173657 -1.10551e-18)
(0.0882452 -0.0426458 2.84714e-18)
(0.00133576 0.000925404 1.35591e-19)
(0.00135553 -0.000256576 4.79903e-19)
(0.0747139 -0.0336564 1.78005e-19)
(0.0363076 0.013007 3.41436e-20)
(-0.0401197 -0.0597156 1.22155e-18)
(-0.026072 -0.00924609 -9.54446e-19)
(-0.000328794 6.13522e-05 9.93105e-20)
(0.0207446 -0.00589643 -5.74364e-19)
(0.000184443 7.32883e-07 -3.89191e-19)
(-0.0139912 0.00605002 -1.63617e-19)
(-0.000388135 -9.15021e-06 6.91027e-19)
(0.000139538 -5.58222e-05 -1.98465e-20)
(-0.00540888 -0.0234379 -7.66081e-18)
(-0.0111786 -0.0219725 2.72201e-18)
(-4.10415e-05 0.000139939 8.73271e-20)
(-0.0222432 0.00748758 -8.93155e-19)
(0.000634004 0.0012103 -1.96108e-18)
(0.000824181 0.00129593 7.54599e-19)
(0.0222797 0.045727 -1.11017e-18)
(-0.0249839 -0.043231 -5.39816e-19)
(0.0211688 -0.00383408 1.72969e-19)
(-0.000164482 0.000203846 1.79325e-19)
(0.0010573 -0.00111044 1.0734e-18)
(0.000445449 0.00235008 -1.45467e-18)
(-0.000120972 -0.00119838 -6.56689e-19)
(0.0757092 -0.0264843 -2.81596e-18)
(-0.0540488 -0.0963018 3.18987e-18)
(-0.00907558 0.00814399 -4.93619e-19)
(0.166182 -0.0287398 6.97998e-19)
(0.00218591 -0.00322194 1.60857e-18)
(-0.0612557 -0.00339519 -3.76717e-19)
(-0.0028519 -0.0399169 3.01e-18)
(-6.40983e-05 2.8154e-05 -2.45207e-19)
(0.0930232 -0.0415385 1.43708e-17)
(-7.35599e-05 1.48131e-05 4.54473e-19)
(0.0100669 -0.00354536 -9.81222e-19)
(1.85301e-05 0.000146275 -2.35003e-19)
(0.0131215 0.0163903 -7.39974e-19)
(-0.000229852 3.52465e-05 6.41948e-19)
(-0.000407496 0.00429841 -7.95503e-21)
(0.0228038 0.0151338 1.68335e-18)
(0.000628576 -0.00151379 -4.43425e-19)
(-3.53267e-05 1.91374e-05 1.42103e-18)
(0.00243508 -0.00389181 -4.05192e-18)
(-0.00141682 -0.0216687 -3.84195e-18)
(-0.0208026 -0.0216445 -5.88146e-19)
(0.0108235 -0.00308718 -7.66362e-19)
(-0.0215114 -0.0419074 1.06135e-18)
(0.250105 -0.024491 2.05759e-18)
(0.000799352 0.00229825 1.44187e-19)
(-6.68357e-05 -4.61896e-06 -2.77868e-19)
(9.95702e-05 -6.45143e-06 -2.63145e-19)
(0.00457385 0.00090765 5.40282e-20)
(-0.0135134 -0.0926094 -6.52735e-18)
(0.000641261 0.000973542 1.60018e-18)
(0.00194832 -0.00245334 8.07011e-19)
(0.0246569 0.00192206 4.3812e-18)
(0.000354213 0.000361889 1.36504e-19)
(-0.0122543 -0.0122877 2.48271e-18)
(-0.0228842 -0.0196089 -3.29942e-18)
(-5.73238e-05 -1.26672e-05 -1.55276e-20)
(-0.0130816 -0.0328922 -1.16763e-19)
(0.0082365 -0.174343 4.9892e-19)
(-0.0135492 0.00419634 7.1962e-19)
(-5.6031e-05 -2.36176e-05 -1.08882e-18)
(0.000559247 -0.00513494 -3.21638e-18)
(-0.0177497 -0.0082347 -1.18968e-18)
(-0.000186059 -0.000127116 -1.54071e-19)
(-8.26193e-06 0.000150507 -3.0244e-19)
(0.000960698 -0.000962289 -4.13932e-19)
(-0.000205636 5.04259e-05 2.11157e-21)
(0.00225216 -0.00293343 -2.02328e-18)
(0.0041261 -0.00704377 -2.65559e-18)
(0.00133415 -0.000656768 5.7978e-19)
(-0.000270804 -2.1264e-05 -4.56081e-20)
(0.0292142 0.00979497 -8.7303e-21)
(-0.00354185 -0.0105281 1.11667e-18)
(0.00280062 0.00384229 -3.80726e-20)
(8.72195e-05 -3.81622e-05 -8.00944e-20)
(-0.275096 -0.0880617 4.89408e-19)
(5.68944e-05 9.80252e-06 -3.81088e-20)
(0.0209329 -0.0586128 6.90297e-19)
(0.00423629 -0.0163323 -2.04416e-18)
(-0.000172143 0.00023771 -9.983e-19)
(0.00383114 -0.00658716 4.79732e-18)
(0.00382128 0.0435738 1.47249e-18)
(0.000143242 -0.000883369 -8.8549e-19)
(-0.136199 0.0152276 6.22428e-19)
(0.0100799 -0.0291428 -3.45932e-20)
(-0.0108635 0.119608 1.4039e-17)
(0.000106399 -4.16169e-05 1.87656e-19)
(-0.0864222 -0.0564485 6.1738e-18)
(-0.00693503 -0.0469581 2.47089e-21)
(0.0524455 -0.0273932 -6.31826e-19)
(-0.000107483 1.07553e-05 1.98949e-19)
(-0.0485343 -0.0149098 3.60331e-18)
(0.000268813 0.00205623 3.58897e-19)
(0.0233543 0.0161523 4.26074e-18)
(-5.49965e-05 -0.0207915 1.71528e-18)
(0.00127276 -0.000156501 -4.77502e-19)
(-0.000295678 -0.00123892 1.74957e-18)
(-0.0140228 -0.0124075 -8.70672e-18)
(-0.000106659 1.20985e-05 8.40413e-20)
(0.056834 -0.0259636 2.0127e-18)
(0.0410247 -0.0383883 6.43553e-19)
(0.00016694 -7.35223e-06 -5.89709e-20)
(0.0165739 0.0076755 3.16668e-19)
(-0.00011794 9.36331e-06 -3.86505e-19)
(-0.0362384 0.00344501 -9.88527e-19)
(0.000100132 2.58453e-05 3.3845e-20)
(-0.0585099 -0.0511361 -5.76209e-18)
(-0.113988 0.0411804 -4.88999e-18)
(-0.00519027 -0.0276428 3.85251e-20)
(-0.110736 0.0478929 3.36089e-18)
(0.0158185 0.0106409 -1.82472e-19)
(0.000141822 6.03394e-05 -7.0238e-21)
(-0.0105401 -0.0484403 1.48608e-18)
(-0.000816843 0.00294707 -7.45878e-20)
(-0.00862578 0.0070543 9.77901e-19)
(0.0223912 0.00841591 1.05847e-19)
(0.00171711 0.00152757 1.87422e-19)
(-3.172e-05 0.000176091 9.40192e-20)
(0.000836618 0.0015276 -2.81197e-20)
(-0.00290579 -0.010578 1.87017e-18)
(0.000169912 3.42029e-06 1.70841e-21)
(-0.000173547 -0.000180198 -3.27085e-19)
(-0.0249306 -0.0480535 1.01147e-18)
(-0.00901296 0.00313508 -8.07102e-19)
(0.00843635 0.120811 4.32653e-17)
(0.00906357 -0.00309466 3.95164e-19)
(0.0112047 -0.0664922 -5.52022e-18)
(-0.0776924 -0.071744 -3.70862e-18)
(-0.0196691 -0.14121 2.07139e-18)
(0.000167188 -4.95501e-05 -7.53134e-20)
(0.00542435 0.000583256 -2.80654e-20)
(0.0525934 0.00152704 -6.89278e-18)
(0.000145471 -2.82052e-05 1.8207e-19)
(-0.0140581 -0.132496 9.65216e-19)
(0.00873034 -0.00239646 -6.15953e-19)
(0.00265451 -0.0041572 6.40382e-18)
(0.000155191 -1.66071e-05 7.79806e-19)
(0.00149009 -0.00667471 8.66104e-19)
(-0.000231377 0.000256147 1.67246e-18)
(0.0378019 0.0214046 -8.78297e-20)
(0.0505824 0.033802 -1.61782e-18)
(-0.000639233 0.00389169 -2.9467e-19)
(-0.00826576 0.00257772 1.05919e-18)
(7.10913e-05 9.09019e-06 4.50198e-19)
(-0.00216844 0.00380697 6.66806e-19)
(0.0250618 0.121024 2.81401e-17)
(7.95371e-05 3.28813e-05 2.29199e-19)
(-0.0253861 0.00242335 2.12228e-20)
(0.000134963 0.00011066 -7.98389e-19)
(5.04553e-05 -3.64895e-07 -2.51669e-19)
(-0.000152932 4.98482e-05 1.1003e-18)
(-0.000571638 -0.0187847 4.95821e-19)
(0.050299 0.0356883 -2.45413e-18)
(-0.0260157 -0.00143923 5.4206e-20)
(0.036122 0.0198101 1.20505e-19)
(0.000115498 -1.48472e-06 1.04019e-19)
(0.000693966 0.00171524 9.81553e-19)
(0.000226076 -0.000231357 -2.01377e-19)
(-0.252656 -0.152236 5.62453e-18)
(-0.000679644 -0.000675693 -1.04299e-18)
(-0.252152 -0.0968698 -1.90258e-18)
(-0.00210161 0.00332188 -5.31888e-19)
(-0.0142393 -0.000932343 1.52979e-18)
(-0.000165529 -0.00253927 -2.53525e-18)
(-8.86125e-05 1.99697e-05 -5.08473e-20)
(0.000116462 1.30425e-06 -5.34404e-20)
(0.00700312 0.0242317 -4.85479e-19)
(-5.83405e-05 5.34925e-06 1.29629e-18)
(-0.0526906 -0.0732463 3.35125e-18)
(-0.131057 0.0142721 8.12452e-18)
(-2.09994e-05 -0.00236404 1.69125e-18)
(5.45953e-06 -1.03765e-05 1.95326e-19)
(-0.0513506 0.0806701 1.96733e-19)
(0.0196967 0.00400675 -7.9768e-19)
(-0.000101179 0.000143253 4.0573e-19)
(0.00393188 0.0164012 8.49549e-19)
(-2.77061e-05 1.43865e-05 -1.52797e-18)
(0.00618124 -0.0147254 3.37571e-18)
(0.0134518 0.0037566 -3.51424e-19)
(0.000128057 -2.31845e-06 -1.63916e-19)
(-0.0443577 -0.0997897 6.99141e-19)
(-0.0286387 -0.00292338 -3.85992e-20)
(0.0013066 -0.00139947 2.64076e-19)
(0.0372394 0.0599422 7.93957e-19)
(-0.00948396 0.00555123 3.10778e-19)
(0.000209833 -0.000243431 1.07503e-19)
(-0.000115005 9.43458e-06 2.64457e-19)
(0.00258508 -0.00354299 6.4375e-19)
(0.0442943 -0.041279 -2.52386e-18)
(8.76868e-05 -3.06578e-05 -1.31246e-21)
(-0.0668348 -0.043313 -8.4923e-19)
(0.0197698 0.00195163 5.87723e-20)
(0.0568129 0.0457204 -1.73967e-19)
(-0.000913688 -0.000994129 1.81316e-18)
(0.00595626 0.00134997 8.13308e-21)
(0.0452256 0.0658213 -2.44195e-19)
(-0.052875 -0.0695915 2.95233e-18)
(0.000144883 -7.99704e-06 1.81256e-19)
(8.73623e-05 -0.000997719 1.11526e-19)
(-2.13591e-05 0.000733046 1.41689e-19)
(0.00110379 -0.00144294 2.34915e-19)
(0.0128556 0.0052272 -1.87818e-21)
(0.00169686 0.0166458 7.12415e-20)
(-0.00013958 4.1261e-05 -1.60837e-18)
(0.0272987 0.0106401 1.35711e-19)
(0.0291795 -0.0744318 1.0667e-17)
(-0.000336125 3.36001e-05 1.79136e-21)
(-8.10404e-05 6.2516e-06 -2.53011e-20)
(-0.276247 -0.100665 1.9792e-18)
(-0.0129444 -0.00156039 -8.9642e-19)
(0.0237221 -0.0332107 7.79022e-20)
(0.0312045 -0.00552747 2.21208e-20)
(0.000160408 -5.26296e-06 -7.74517e-20)
(0.0100878 -0.00831097 -6.87674e-19)
(0.00107193 -0.000820254 1.94164e-18)
(-0.00866184 0.00459722 1.1065e-18)
(0.00641484 -0.0134599 2.99265e-18)
(-5.48483e-05 0.002062 -5.31113e-19)
(0.000765383 0.000234292 1.67449e-19)
(0.00895229 0.0126675 4.45863e-19)
(4.20514e-05 1.19231e-05 1.78052e-20)
(0.0210916 -0.0105717 1.0416e-18)
(0.0074324 0.0178007 3.31242e-19)
(-0.011259 -0.0815966 2.41589e-18)
(0.0266734 -0.0224851 1.55403e-19)
(-0.000248813 0.000302993 -1.38616e-18)
(0.0348798 -0.00284371 -1.45193e-18)
(0.000824857 -0.0405759 3.96414e-19)
(0.0069962 -0.0174969 1.17348e-19)
(0.000190065 -6.15099e-05 2.69829e-20)
(0.00532702 -0.012775 8.16109e-19)
(9.12047e-05 -6.78273e-07 -6.37005e-19)
(-6.34891e-05 0.000172821 -9.09912e-20)
(-0.000533373 -0.000213845 -3.94105e-19)
(9.26276e-05 -1.89715e-05 7.32109e-20)
(0.00663647 0.00534962 1.68772e-19)
(-0.00379968 0.122816 1.89995e-17)
(0.000304873 -0.0015844 2.01604e-18)
(-0.0294876 -0.0172964 5.54426e-20)
(0.00574333 0.0061915 -1.88823e-19)
(0.00146857 -9.80011e-05 2.04798e-19)
(0.0440443 0.0486397 3.81024e-18)
(0.0113452 -0.0103787 1.2707e-19)
(-0.000429669 0.00303606 -2.49761e-19)
(8.03069e-05 1.91463e-06 -2.70284e-19)
(-0.218137 -0.0264634 -1.10911e-18)
(-6.15899e-05 1.30093e-06 -7.39456e-20)
(0.00110472 0.000743993 -1.88822e-19)
(0.000121908 -2.42576e-05 -4.2481e-20)
(0.0021638 -0.00231629 9.34549e-19)
(0.0313781 -0.130684 -5.38649e-18)
(0.0397428 -0.0105403 1.08198e-18)
(0.00188612 -0.00271376 -1.45308e-18)
(8.11742e-05 -1.99257e-05 -1.16076e-19)
(0.00375828 0.00633619 1.11471e-18)
(0.00469197 0.00575794 8.82417e-19)
(0.0226869 0.0771879 -1.44992e-18)
(0.000102884 -4.58008e-05 3.52505e-20)
(0.000124292 1.52659e-06 5.3482e-19)
(-0.00086475 -0.000707961 -3.42253e-19)
(2.05945e-05 -4.66181e-07 5.14066e-21)
(0.0481072 -0.00910491 1.76424e-19)
(-0.00165031 -0.000736819 2.58394e-20)
(-0.0140925 0.00176385 -4.84556e-20)
(-0.0938299 -0.156547 2.51944e-18)
(0.0838743 -0.0338511 -2.76427e-18)
(0.045375 -0.0120027 -2.47868e-19)
(0.00079375 0.000553787 -4.02562e-20)
(-0.0927483 -0.131192 3.27489e-18)
(0.0215052 0.0107175 -1.24576e-19)
(0.000989845 -0.000697357 -1.05402e-18)
(-0.00846505 -0.0254354 -2.80757e-18)
(-0.000386031 2.71897e-05 -3.27926e-20)
(0.00010069 -1.47725e-05 -4.68248e-19)
(-0.000345877 -2.55658e-05 -6.59673e-19)
(0.00244269 0.000545855 -1.16745e-19)
(-8.56487e-05 0.000114647 -8.85575e-20)
(-0.00253979 0.00295966 -5.56065e-19)
(0.0527394 0.0153205 6.10608e-18)
(0.000457321 -0.00157966 -1.31324e-18)
(0.0138568 -0.00365498 3.40936e-19)
(0.0479579 -0.00814062 -1.12077e-18)
(0.0538038 0.0334562 2.261e-19)
(0.000200717 2.64294e-05 -1.6185e-19)
(-0.0406485 -0.0499855 -2.9267e-19)
(4.77665e-05 -1.71925e-05 1.52649e-19)
(-0.0141417 -0.0150469 -1.03604e-18)
(5.49081e-05 1.14683e-05 -2.82697e-19)
(-0.080613 0.0682272 2.91712e-18)
(-0.00425265 -0.00256516 -1.53098e-19)
(0.0421148 0.0410983 1.94503e-18)
(0.0416113 0.10896 -7.12578e-17)
(0.00152961 -0.000271527 -1.16326e-19)
(0.00278469 -0.0377586 -1.54371e-18)
(0.00259823 -0.000817927 3.63152e-19)
(-0.0922224 -0.090922 2.94285e-18)
(-0.00240302 0.00252355 6.66539e-20)
(0.00661654 0.192133 8.56177e-18)
(0.00971265 -0.00684885 1.21495e-18)
(-0.0337929 -0.126207 1.00301e-17)
(0.000504351 -0.00144337 5.69615e-19)
(-0.0111673 -0.0773167 1.94236e-18)
(0.00414417 -0.00331317 -8.5921e-19)
(0.0129682 -0.0035083 -2.06119e-18)
(0.0264659 0.0553637 -1.11383e-18)
(-9.00616e-05 4.82516e-05 -3.71973e-19)
(0.00353933 -0.00311812 4.03236e-19)
(4.24174e-06 1.96404e-05 8.63648e-19)
(0.0520934 -0.00878928 1.23152e-18)
(-9.52005e-05 0.000195965 6.295e-19)
(-0.000266371 -4.18427e-05 9.19914e-20)
(-0.00579772 -0.0420464 1.57237e-18)
(0.00159228 -0.00757182 5.69495e-19)
(0.0187295 0.0152598 3.27644e-19)
(0.00797583 0.18301 -7.29526e-18)
(7.14218e-05 3.16716e-05 3.34217e-20)
(0.00531316 -0.0178563 1.78349e-18)
(0.00220529 -0.00698656 -3.27003e-19)
(-0.000186363 7.25319e-05 -7.67412e-19)
(0.0104232 -0.00643451 -1.02957e-18)
(-0.00502627 -0.0167287 -2.88038e-18)
(0.00217853 -0.000935181 2.14802e-19)
(0.00210652 -0.00199605 4.758e-19)
(-0.175906 -0.34837 -1.19798e-17)
(-0.0147869 0.00291805 3.96514e-19)
(-9.18431e-05 4.24966e-06 7.30906e-19)
(0.179602 -0.00303313 1.05222e-17)
(-8.29899e-05 2.26931e-05 6.06379e-19)
(0.0109937 0.00554514 6.30151e-19)
(-0.0222272 0.00577623 -1.00049e-18)
(-0.289373 -0.090142 -8.08923e-19)
(-0.153936 -0.122535 -1.83031e-18)
(0.0331537 0.0166473 -1.4474e-20)
(-0.00743356 -0.0719176 -9.36206e-19)
(0.0292832 -0.078288 5.77876e-18)
(-0.0367514 -0.0743377 -7.20403e-19)
(-0.000283953 -8.83563e-05 3.62886e-20)
(-0.0123052 -0.0037402 1.57225e-18)
(0.0111074 0.0774359 4.83437e-19)
(0.00109029 0.0709829 4.07903e-19)
(-0.00723335 -0.0242886 -3.81717e-18)
(0.000139598 4.75154e-05 1.53861e-20)
(-0.000660314 -0.000197846 9.16929e-19)
(-0.0251604 -0.0137079 7.58806e-20)
(0.0944979 0.00978915 -3.62719e-18)
(-0.000302725 -1.04399e-05 1.65545e-19)
(0.00211165 1.8106e-05 2.27258e-20)
(0.000146381 -4.10463e-06 -8.16972e-19)
(0.00017542 5.70565e-05 -1.03995e-19)
(-0.00272895 0.000859838 -3.36687e-19)
(-0.0030197 0.00122586 2.45892e-19)
(0.00216 0.000593238 9.0434e-19)
(7.14229e-05 1.60972e-06 -2.56418e-21)
(0.00954879 0.0171031 3.42e-19)
(-0.000467486 -0.00215728 -3.65144e-19)
(0.0105204 0.00686696 8.863e-19)
(-0.0199103 -0.0311543 1.40427e-19)
(0.0484781 -0.0727834 -1.31032e-17)
(0.000282279 -9.41534e-05 1.7163e-18)
(-0.0901188 0.0463279 -1.79135e-18)
(-0.159909 -0.294281 5.20342e-18)
(-0.0511532 0.0107844 -8.35606e-18)
(4.64457e-05 1.22743e-05 6.55974e-19)
(-0.00471225 -0.00619187 -4.30741e-18)
(-8.64308e-05 7.13558e-06 1.16892e-20)
(0.0547246 0.0333202 -2.31024e-20)
(0.000344841 -0.000266726 -1.55959e-19)
(0.0128788 -0.0229469 3.84863e-20)
(0.000641146 -0.00142618 -3.79537e-19)
(-0.0600566 -0.00295519 -2.32948e-18)
(-5.65744e-05 2.42194e-05 -2.19829e-19)
(0.000792476 -0.00669803 3.70923e-18)
(0.00207034 0.00029196 6.39438e-20)
(-0.0105416 -0.00381114 1.73558e-19)
(-0.0484135 0.117606 6.36125e-19)
(-0.000101737 4.61075e-06 -6.30865e-19)
(0.000187094 1.88804e-05 -7.1303e-20)
(-7.80527e-05 -0.00104657 4.82989e-19)
(-0.0475176 -0.06047 -8.72483e-18)
(0.000111074 0.000128026 4.03599e-19)
(0.00904208 -0.0168461 -5.7917e-20)
(-0.042579 -0.0135047 1.16001e-18)
(0.00622717 -0.0377932 5.41155e-19)
(0.00118433 -8.37236e-05 1.12525e-18)
(0.00888301 -0.0200364 -1.46774e-19)
(-0.03367 -0.11125 -2.45972e-18)
(0.0994392 -0.0773474 -2.87479e-20)
(0.00104543 -0.000144617 7.96625e-19)
(0.00010002 -1.85513e-06 1.26581e-19)
(-0.0438393 -0.0984683 -1.41605e-17)
(-0.0402649 -0.0607842 5.64935e-18)
(0.0207187 -0.0134874 -2.98729e-18)
(0.0439175 0.0192095 -2.50603e-19)
(9.57798e-05 1.69833e-05 -1.3699e-19)
(0.0208154 0.00937606 6.7932e-20)
(0.0156494 0.00914986 1.26633e-19)
(0.0145223 0.00298739 3.71391e-19)
(0.00724114 -0.00185744 -1.47207e-19)
(0.0142857 0.0248031 -2.55074e-18)
(0.00105476 -0.000184302 -3.42461e-19)
(0.000120941 4.92552e-05 -1.01442e-20)
(0.00165144 0.000702574 8.13588e-19)
(-0.0292512 -0.0885848 -5.43953e-18)
(8.14722e-07 0.000148844 -1.0384e-19)
(-0.0968468 -0.116545 -1.31201e-18)
(0.000172027 5.59211e-05 7.43629e-21)
(0.000833994 -0.000296464 9.86906e-19)
(0.000156008 -0.000229277 1.67707e-19)
(0.013075 -0.00223472 2.42364e-18)
(0.0445513 0.0156195 6.81214e-19)
(0.00175884 0.00125716 -3.38228e-19)
(0.00228646 -0.00181516 1.2035e-18)
(0.0526846 0.0260238 1.03593e-18)
(0.00233633 -0.0326511 2.41574e-20)
(0.00684473 0.0235187 -7.12357e-19)
(0.00166668 0.00110674 3.68914e-19)
(0.00113217 -0.00153456 8.26975e-20)
(0.0233466 0.00962793 -7.21485e-20)
(0.0982029 -0.0725548 -2.04533e-18)
(0.000915294 0.000567204 1.50781e-20)
(6.63205e-05 0.000157814 1.62028e-19)
(-0.0345343 -0.0139958 -4.38102e-19)
(-0.000115639 0.000909823 8.62339e-21)
(0.000551561 0.000301059 1.26203e-19)
(0.0125906 0.050902 -5.68486e-19)
(-0.000125122 0.000185432 -6.79381e-19)
(0.0437728 0.0268439 7.05477e-18)
(7.8239e-05 -2.10057e-05 9.35592e-20)
(0.024832 0.00781652 -9.59391e-20)
(-0.00209432 -0.00579033 -3.26597e-19)
(-0.0850767 0.0657516 9.80492e-19)
(1.70043e-05 0.00015813 8.91369e-20)
(-0.00436068 -0.00743342 5.79474e-18)
(0.000108131 2.08675e-05 9.53841e-21)
(0.000262401 0.000250366 -4.00205e-19)
(0.0515917 0.0209716 -2.39284e-20)
(0.000226765 -4.72087e-05 7.41673e-20)
(-0.057983 -0.220953 -2.4032e-18)
(0.0198376 -0.0153283 3.64039e-18)
(-0.00015551 8.60867e-06 -5.71807e-19)
(0.00925781 -0.00210589 1.65426e-19)
(-0.0718379 -0.103652 2.71341e-18)
(-0.0618756 -0.0203101 -5.83488e-19)
(-0.0160835 -0.0242834 6.7463e-20)
(2.59359e-05 1.53472e-05 -2.13727e-19)
(4.43872e-05 0.000186554 -7.46358e-19)
(-0.000216141 8.96918e-06 -5.14818e-19)
(-0.00276644 0.000721586 6.48548e-19)
(-0.0076284 -0.00502447 1.20168e-19)
(0.00146374 0.000739415 -2.30271e-19)
(-0.0630443 0.0646613 5.27719e-19)
(0.000154482 0.00062513 3.80449e-20)
(5.26516e-05 -1.87215e-05 3.89074e-22)
(0.0120715 0.0195112 1.03123e-17)
(0.00253043 -0.0071768 -2.44192e-18)
(-0.00927192 -0.00532833 -5.49683e-19)
(-8.15665e-05 3.45711e-06 -8.10142e-19)
(0.00019749 -2.49028e-05 2.49153e-19)
(0.0833524 0.113404 -8.4053e-18)
(0.0340965 -0.118769 6.78272e-18)
(-0.00157065 -0.00516693 -3.09048e-19)
(0.0185254 0.0264977 -4.22919e-18)
(0.00015162 -0.000199111 4.15566e-19)
(-0.0038415 -0.00886041 -4.51147e-18)
(0.000328876 0.000148226 2.64704e-19)
(-0.000169136 -5.02109e-06 2.32121e-19)
(9.96275e-05 -0.0013664 -2.41082e-19)
(0.000213699 -0.00107346 -7.42431e-19)
(0.00113199 0.000433827 5.75889e-19)
(5.36831e-05 6.882e-06 -8.52842e-19)
(-0.0596637 0.0808928 -2.73956e-18)
(0.000796507 -0.0012576 -2.0275e-19)
(0.032233 0.0288218 9.42475e-19)
(-2.99518e-05 -2.13281e-05 -8.81581e-20)
(0.000603623 -0.00441751 1.59281e-18)
(-0.000130079 4.95985e-05 3.95288e-19)
(0.00929212 0.0253261 -1.24686e-18)
(-0.0472304 -0.0191269 3.53691e-19)
(-0.000162272 3.74918e-05 3.71227e-19)
(-6.17203e-05 1.05101e-05 -1.27827e-19)
(0.030344 0.00036926 -1.86485e-20)
(0.00139774 -0.0264762 -8.5899e-20)
(-0.000102482 4.9086e-05 3.41153e-19)
(0.0712805 -0.0192718 2.79073e-18)
(9.6592e-05 -2.65409e-05 3.37071e-19)
(0.00474896 0.0143428 -1.25901e-18)
(5.24142e-05 0.000114172 1.94012e-19)
(7.98224e-05 7.33866e-06 2.71513e-20)
(0.000215284 0.000232994 4.08094e-19)
(-0.19723 -0.018032 2.19469e-19)
(-0.000121404 3.92813e-05 -3.08188e-19)
(-0.000845755 0.00105288 7.02157e-19)
(-0.00181349 -0.00102966 -3.72364e-19)
(0.0666435 -0.0217848 3.99501e-18)
(4.82338e-06 1.36771e-06 -4.95946e-21)
(0.000240677 -0.00129643 -4.39976e-20)
(5.14935e-05 4.95076e-06 5.74319e-19)
(-0.045486 0.0207013 -3.07117e-18)
(0.000209836 3.85535e-05 1.12449e-19)
(-0.000233032 0.00011036 -1.54255e-19)
(-7.06136e-05 2.70111e-05 -5.73971e-19)
(-0.000236798 0.000139636 7.39692e-20)
(0.00766898 -0.00246264 1.5427e-18)
(-0.000217784 -0.000105433 3.50805e-19)
(0.000853437 -0.00380437 -7.62055e-19)
(0.000409095 0.000145889 -1.33074e-19)
(0.0375842 0.111917 2.34475e-17)
(-0.0968937 0.0737632 -2.65977e-19)
(-0.0543098 0.0577415 4.4388e-18)
(-0.00271554 0.00212231 -3.49542e-20)
(-0.00278102 -0.00469115 -4.07483e-18)
(9.15552e-05 2.67885e-05 -2.61839e-20)
(-0.00642543 0.0563064 -2.1957e-18)
(3.4205e-05 -2.05868e-05 -2.34254e-19)
(0.0227233 -0.0913272 -3.67111e-18)
(0.0470028 -0.00286433 6.44008e-19)
(-0.0587664 0.021644 -8.29323e-19)
(0.00272588 0.0146425 -9.5713e-19)
(-0.000692267 -0.135793 -2.94902e-18)
(0.000135327 -0.000186236 -6.65684e-19)
(0.000822289 0.000329759 -7.30914e-20)
(-0.00316833 -0.182262 -2.75358e-17)
(-0.0472431 0.0150805 -3.8901e-19)
(0.0109685 -0.00643265 1.32897e-18)
(-0.0243915 -0.0291831 -5.4427e-18)
(0.000961149 -0.000900581 -8.03485e-19)
(0.0309214 -0.107618 4.21694e-19)
(0.000504818 7.75877e-05 -2.34683e-19)
(0.00114889 5.15211e-05 -1.35191e-19)
(0.000360347 -9.42701e-05 -1.35867e-18)
(9.08071e-05 0.000115644 -6.14841e-19)
(8.70478e-05 -5.15775e-06 3.38488e-19)
(-0.0075073 -0.159123 2.10553e-17)
(0.000222808 -0.002403 9.00821e-19)
(-8.52907e-05 -1.1371e-05 1.1472e-19)
(-9.7917e-05 0.0277799 -2.21292e-18)
(1.26063e-05 0.000499257 3.39971e-21)
(0.001314 0.052857 -2.69464e-19)
(0.00352082 0.000564979 -8.26446e-20)
(-0.000302506 -0.00205274 1.43122e-18)
(0.00544152 -0.0149483 -1.0167e-19)
(8.1218e-05 1.8577e-05 2.91526e-19)
(0.03071 -0.0343157 1.77539e-18)
(0.00164424 -1.74492e-05 -1.99863e-19)
(0.000115839 -0.000887184 4.94555e-20)
(0.0306089 0.0257321 1.38362e-19)
(0.000934201 -0.000277871 -8.13878e-19)
(6.42708e-05 -2.45704e-05 2.83362e-20)
(0.000156563 4.62212e-06 -6.34912e-19)
(0.000700248 0.000122257 1.6683e-19)
(0.000292498 -5.49305e-05 4.9968e-19)
(-0.000289608 0.0624664 -1.69803e-18)
(0.0176358 0.0534799 -5.09629e-18)
(-0.0852112 0.0507601 3.25961e-19)
(0.000251811 -0.000760036 -5.65017e-19)
(0.000523219 0.000739065 1.98618e-20)
(0.00066389 -2.86449e-05 9.12886e-19)
(0.0294604 -0.120196 -3.82018e-18)
(0.00227037 0.00475216 3.63034e-20)
(0.00118567 -0.00178681 -4.75877e-19)
(-0.000118027 7.69387e-06 3.39128e-19)
(-0.000429187 4.96639e-05 6.25938e-19)
(0.00833881 -0.148829 4.53675e-18)
(-0.308048 -0.161327 9.86784e-19)
(0.0124077 0.000849653 -2.36485e-19)
(-0.00120229 0.00328167 -1.2446e-19)
(6.73402e-05 -1.91483e-05 1.29399e-19)
(0.0387095 0.103936 6.99125e-18)
(-0.00455906 -0.00811513 -1.05177e-18)
(0.00787288 0.00557541 -9.95663e-19)
(0.0137465 0.0198713 7.96322e-19)
(0.0244242 0.00438121 1.87533e-20)
(0.0541933 0.0413007 8.27545e-19)
(0.0187767 -0.143153 -1.38873e-17)
(0.000470415 0.00013763 -1.87831e-19)
(5.09735e-05 6.04451e-06 7.77463e-19)
(0.00183008 -9.62904e-05 2.95169e-19)
(-0.0280236 -0.0748172 2.25673e-18)
(0.000417333 0.000135127 2.35046e-19)
(-0.00339101 -0.00535941 -4.38308e-18)
(0.00169317 0.0015515 -6.07039e-19)
(0.000259611 -6.17831e-05 -7.12895e-20)
(0.00708806 -0.0115469 3.46348e-19)
(0.00186595 0.00333374 2.18205e-18)
(-0.211332 -0.0184433 1.26531e-18)
(-0.123965 0.0276432 -4.77928e-18)
(-0.000164262 0.000167365 1.31833e-19)
(-3.36362e-05 9.83007e-05 4.75094e-19)
(-0.000228979 -6.5915e-05 -6.41415e-19)
(0.0318841 0.0123678 -1.17389e-20)
(6.80299e-05 0.000127754 -6.30312e-19)
(0.024469 0.192495 -8.15688e-18)
(0.00289995 0.00584201 -1.22317e-18)
(-0.291255 -0.112621 2.69132e-18)
(0.000641379 0.000519987 -1.81937e-19)
(0.00170944 -0.00035437 -6.78388e-19)
(-0.000171845 4.64008e-05 -8.98165e-19)
(0.000120767 5.6737e-05 -6.16067e-20)
(0.000678178 0.000236447 3.36938e-20)
(0.000992037 0.000108397 -3.93432e-20)
(0.0003265 -0.000287666 3.90521e-19)
(0.00092359 -0.00150806 2.53322e-19)
(0.0134867 -0.00590522 -1.37663e-18)
(0.000492614 -0.00612846 -1.08096e-18)
(-0.056926 0.0775004 3.12582e-18)
(7.43409e-05 -0.000135698 -3.33851e-19)
(-0.0445365 0.015521 5.61423e-19)
(0.00285346 -0.0207444 -5.77445e-20)
(7.35896e-05 -1.50137e-05 -1.52532e-19)
(0.195253 -0.0387203 -8.55336e-18)
(1.67329e-05 -9.28127e-05 1.50133e-19)
(-0.00190479 0.000231316 -2.93619e-19)
(-0.0051153 -0.00252036 -1.07341e-19)
(9.93444e-07 1.55626e-05 -2.02518e-19)
(0.0110955 0.0173523 2.59938e-19)
(0.00181442 0.00129612 -1.20848e-19)
(-0.00250488 0.00176091 -4.66623e-19)
(0.000229291 -0.000264506 2.56614e-19)
(0.0252566 -0.00790176 -1.51627e-18)
(0.00153312 -0.000279221 -8.18185e-19)
(-0.0225559 -0.0717649 -3.40984e-18)
(0.0156048 -0.0153161 2.9996e-18)
(0.000660935 0.000650957 7.0563e-19)
(0.0414663 0.0132611 5.40211e-20)
(-0.0369739 -0.0620646 -3.88903e-18)
(0.00323014 0.00110025 5.09274e-21)
(0.000495677 0.000306227 -2.25933e-19)
(-0.0219112 -0.0308055 -4.7289e-19)
(8.15121e-05 4.51372e-07 -3.71488e-19)
(-0.0737643 -0.182549 -1.78266e-18)
(0.0122402 -0.00239027 6.30634e-19)
(-0.0144267 0.018189 1.56833e-18)
(0.010104 -0.0123763 -8.61671e-19)
(0.000273759 -0.000691957 -6.64388e-19)
(0.00112865 -0.000204494 -4.53785e-19)
(0.000294037 -0.00208974 -1.73887e-20)
(0.00809276 0.0133727 1.30037e-19)
(-0.0047513 -0.00433502 6.03606e-19)
(0.0345278 0.005951 5.97674e-19)
(0.0578154 -0.0428207 -5.39535e-18)
(0.000306709 -3.94058e-05 -1.75999e-20)
(-0.00329109 0.000106793 1.06734e-18)
(7.93746e-05 -2.31802e-05 1.22852e-19)
(-0.0228041 0.00273281 -8.19826e-19)
(8.55952e-05 4.9409e-07 2.63457e-19)
(0.0366551 0.15987 -4.47452e-18)
(0.000253585 -0.00110815 7.93756e-19)
(0.000963188 0.000726534 2.9366e-19)
(0.0509809 -0.00397637 -9.44955e-20)
(0.000696478 0.000310919 -1.45965e-18)
(-0.0191615 -0.0295933 4.8872e-18)
(0.0159531 0.00237373 3.42149e-19)
(9.60713e-05 -1.06985e-05 -1.27785e-19)
(0.000876308 -0.0730478 -1.90589e-18)
(-0.000716877 0.00470037 2.90148e-19)
(-0.000320888 0.00114672 2.98966e-19)
(0.000422528 0.00429019 1.24061e-18)
(0.0190796 0.0108807 7.97857e-19)
(-0.00115752 -0.00103877 -1.18173e-18)
(0.0519644 0.0382585 6.77249e-20)
(0.000935586 -0.00135808 -1.28206e-18)
(0.017594 0.0129977 -3.42443e-19)
(-0.00392948 -0.00547954 4.08082e-18)
(-0.0186027 -0.000624394 6.54213e-19)
(0.000134873 0.00377659 -7.49744e-20)
(0.0133074 0.00199348 2.8803e-19)
(0.00325331 -0.00617891 -6.3674e-20)
(0.00107665 -0.00163194 1.39959e-18)
(0.0155695 -0.0134963 -4.19706e-18)
(-7.72853e-05 1.72078e-05 -1.54494e-19)
(0.0176298 0.00891113 -5.88358e-19)
(-0.00122141 0.00091367 5.38339e-19)
(0.000282616 -0.00131762 1.90315e-18)
(0.00183886 -0.000673455 1.0401e-18)