/*--------------------------------*- C++ -*----------------------------------*\
| =========                 |                                                 |
| \\      /  F ield         | OpenFOAM: The Open Source CFD Toolbox           |
|  \\    /   O peration     | Version:  v2012                                 |
|   \\  /    A nd           | Website:  www.openfoam.com                      |
|    \\/     M anipulation  |                                                 |
\*---------------------------------------------------------------------------*/
FoamFile
{
    version     2.0;
    format      ascii;
    class       volScalarField;
    location    "800";
    object      nut;
}
// * * * * * * * * * * * * * * * * * * * * * * * * * * * * * * * * * * * * * //

dimensions      [0 2 -1 0 0 0 0];


internalField   nonuniform List<scalar> 
10042
(
0.0092728
0.00401507
0.00196169
0.00671126
0.00675038
0.014274
0.00224587
0.0161698
0.00670004
0.00168073
0.0105345
0.00380963
0.00133077
0.00684727
0.00679434
0.00684931
0.0159853
0.0105696
0.0021617
0.00251814
0.00131989
0.00855631
0.00671076
0.0165844
0.00673494
0.00702817
0.00174819
0.00668824
0.015764
0.0230898
0.00697292
0.00144755
0.00669593
0.00669438
0.0150198
0.0138946
0.00681963
0.00669492
0.00687642
0.00730394
0.0220614
0.00669686
0.00165624
0.0060844
0.00671726
0.00673858
0.00668448
0.00678576
0.0015287
0.020416
0.00191141
0.00671051
0.0158117
0.00237226
0.00240737
0.0124904
0.0013424
0.0092408
0.00682024
0.00668172
0.00152226
0.00255848
0.00155876
0.0156051
0.0096192
0.00685763
0.00284977
0.012536
0.00668393
0.0118476
0.00488375
0.00478599
0.00673812
0.00681694
0.00685219
0.0039166
0.00382783
0.0066845
0.00264742
0.00218754
0.00652882
0.0188896
0.00709168
0.00671099
0.00173924
0.0020726
0.0031143
0.000680135
0.00677815
0.00332403
0.00145999
0.00679199
0.00170581
0.00205594
0.0091541
0.00676181
0.0290085
0.00267596
0.00742225
0.0068098
0.00165874
0.00204627
0.00683989
0.00136875
0.0020375
0.00680877
0.0324095
0.00683753
0.00219253
0.00681861
0.00680854
0.00229987
0.00202992
0.0142646
0.00781183
0.006687
0.00606555
0.00694619
0.00773263
0.00668835
0.00668124
0.00393006
0.00355129
0.00671922
0.00483558
0.00680328
0.00681495
0.00282786
0.000967316
0.00634619
0.00670188
0.0068294
0.00687212
0.00680556
0.00232541
0.00402918
0.0031816
0.0331588
0.00304578
0.00809754
0.00182372
0.0067552
0.0336194
0.00668826
0.00181729
0.00669557
0.0018844
0.00668348
0.00684694
0.00556037
0.00683041
0.00686851
0.00286252
0.00126469
0.00783876
0.0018238
0.00112413
0.00570171
0.00688151
0.00703243
0.00689187
0.00740726
0.00293297
0.00678824
0.00375564
0.00437586
0.00673522
0.00130492
0.0143048
0.00669161
0.00816752
0.0236775
0.0011766
0.00669192
0.0022912
0.00226267
0.00673375
0.00669533
0.006812
0.00668382
0.00327636
0.0019076
0.00681331
0.00668316
0.0123861
0.00143268
0.00460808
0.00669133
0.0317817
0.00685364
0.00436146
0.00132362
0.00670471
0.00201979
0.0020502
0.00679138
0.0256162
0.00776191
0.0363981
0.00671275
0.00322334
0.00219752
0.00696389
0.00676272
0.00801192
0.00684852
0.0116596
0.00133278
0.00680048
0.00680552
0.00129482
0.00673891
0.00718635
0.00691546
0.00684421
0.00993446
0.00675832
0.0203066
0.00675098
0.00302612
0.0374817
0.00732818
0.039242
0.0108258
0.00671189
0.00211148
0.00682731
0.00346318
0.00157757
0.00684545
0.00669644
0.00683166
0.00159874
0.0070308
0.00673463
0.0158544
0.00437987
0.0308979
0.00189231
0.0160367
0.0284857
0.0199745
0.00668133
0.00759104
0.00085788
0.00676032
0.0220281
0.00205558
0.00268518
0.00681824
0.00196728
0.00670963
0.00571941
0.00277644
0.00684348
0.00479167
0.00690997
0.00683314
0.0266934
0.00671953
0.00827162
0.00670122
0.00670943
0.00668514
0.00127623
0.00319134
0.00604008
0.00589884
0.00701442
0.0068353
0.00672867
0.0146675
0.00678373
0.00998606
0.00682683
0.00557939
0.00331696
0.00672104
0.00701969
0.00135318
0.00668819
0.0140854
0.0239172
0.00374276
0.00686598
0.0396581
0.00656529
0.00669057
0.00476913
0.00692685
0.00136675
0.00694081
0.00689534
0.0156563
0.0103719
0.00686477
0.00985468
0.00368682
0.0067296
0.0067684
0.00293168
0.0074073
0.00669228
0.0270239
0.00650725
0.0025113
0.0068065
0.00783494
0.0171697
0.015307
0.00686484
0.00679369
0.00675659
0.00685773
0.00698577
0.00378925
0.00668513
0.011913
0.0170756
0.00668656
0.00697525
0.0162046
0.00536143
0.0109105
0.012122
0.00687049
0.00769077
0.0068106
0.00400386
0.00140028
0.00684161
0.00676305
0.0111418
0.00688463
0.0131441
0.00361033
0.0352576
0.00982678
0.00671274
0.00196017
0.00174767
0.00129471
0.00668177
0.0074523
0.0069583
0.00669577
0.00675039
0.00676163
0.00712463
0.0341725
0.00500427
0.0106453
0.00714564
0.00687246
0.00240642
0.00765547
0.00683392
0.00708236
0.0214651
0.00696099
0.00679892
0.00682524
0.00376883
0.0239828
0.00367414
0.00338336
0.00672468
0.00713732
0.007124
0.0024839
0.00668336
0.00708637
0.00679138
0.00704091
0.00186582
0.0068194
0.00620961
0.028864
0.0110639
0.00196734
0.00677568
0.0293968
0.0016346
0.00679778
0.0013519
0.00668954
0.00679421
0.00668556
0.00689516
0.00668983
0.00681832
0.0281499
0.00502128
0.00791459
0.00530773
0.00256475
0.00671592
0.0150881
0.0068299
0.00129117
0.00671131
0.0419066
0.00734829
0.00249834
0.0238441
0.00687863
0.00160231
0.00702098
0.0289674
0.00681442
0.0142235
0.00170209
0.0177115
0.00536988
0.0177358
0.0069304
0.0016053
0.00243946
0.00668685
0.00691995
0.00685318
0.00905988
0.00669857
0.00668304
0.00198238
0.00687632
0.00170267
0.0138919
0.00671761
0.00131078
0.00688219
0.00668507
0.00161629
0.0150721
0.00697114
0.00403961
0.0137161
0.0071737
0.00698939
0.0188368
0.00668851
0.00704247
0.00319541
0.0276485
0.00524897
0.0127534
0.0188935
0.00231204
0.0160437
0.00668375
0.00484464
0.0216822
0.0224488
0.00137986
0.00671039
0.0067569
0.0065591
0.0231706
0.00668427
0.00692156
0.00700416
0.00671542
0.00693988
0.00698011
0.00687945
0.00368988
0.00506758
0.00348073
0.00707862
0.00952347
0.00188807
0.00673088
0.0424419
0.0133006
0.00830815
0.00685855
0.0016945
0.00699487
0.00268061
0.00673543
0.00744651
0.00555779
0.00753624
0.0067854
0.00197434
0.00692631
0.00505426
0.012067
0.00699845
0.00672085
0.00679506
0.00508978
0.00669993
0.00720672
0.00280559
0.0015643
0.00683064
0.00697934
0.0164682
0.00374795
0.00678241
0.00696816
0.0161328
0.00458907
0.00130298
0.00552928
0.00686218
0.0116967
0.00168493
0.00168078
0.00233154
0.00978843
0.0068207
0.00671006
0.00683139
0.0160737
0.00671757
0.0292102
0.00671476
0.00676789
0.00673076
0.00166822
0.00527864
0.00684071
0.0041121
0.00561287
0.00805319
0.00191649
0.00683817
0.00684354
0.0122917
0.00344288
0.00678289
0.00670748
0.00291363
0.0067687
0.00675224
0.00262667
0.00669769
0.00287586
0.00671973
0.00158809
0.00694907
0.0414961
0.00671815
0.0016301
0.00676922
0.00672305
0.00551069
0.0066822
0.0271621
0.00124267
0.00669529
0.00762963
0.0366971
0.0264752
0.0068981
0.00688111
0.00670762
0.00668282
0.00702372
0.00553694
0.00682089
0.0168526
0.00675187
0.00678389
0.00521483
0.0019386
0.00510693
0.0069835
0.0067087
0.00404558
0.021909
0.00709379
0.00877902
0.00672501
0.0016181
0.00673341
0.00669804
0.00681077
0.00679596
0.00679279
0.00686942
0.0411808
0.00615438
0.00248498
0.006717
0.00717058
0.00668557
0.00196499
0.0231708
0.00669345
0.00671937
0.0117316
0.00710999
0.00668611
0.00453847
0.00673189
0.00838942
0.0066954
0.00685628
0.00671943
0.0220163
0.00668574
0.00678239
0.00683405
0.00590906
0.00708761
0.00681341
0.00688226
0.0079986
0.00671672
0.00673194
0.00674509
0.00673217
0.00214722
0.00673559
0.00713723
0.00674092
0.0243968
0.00803218
0.01082
0.00680881
0.00200046
0.00674501
0.00102805
0.00681257
0.0186279
0.00559348
0.0097365
0.0077524
0.0235641
0.00672395
0.00677027
0.019607
0.00790503
0.00778751
0.00220664
0.00680873
0.0191845
0.00673449
0.00678908
0.00673935
0.00669767
0.00688095
0.018624
0.00364789
0.00699946
0.0332146
0.00674295
0.00164213
0.00720851
0.00381547
0.00721025
0.00683737
0.0151147
0.00683424
0.00678431
0.00226509
0.00677524
0.00673428
0.0069874
0.00675149
0.00671072
0.0136758
0.00226845
0.00947855
0.00677834
0.00676761
0.00674668
0.0228907
0.0044972
0.00685671
0.00680339
0.0067339
0.0242837
0.0277004
0.00885685
0.00683022
0.00685726
0.0215736
0.00159109
0.00710925
0.00179672
0.0136137
0.00253839
0.0246077
0.00673219
0.00688009
0.00684829
0.0150566
0.00672899
0.00188259
0.00688202
0.0066836
0.00754178
0.00697513
0.0270491
0.0315843
0.00669164
0.00671694
0.00668227
0.0135554
0.00669712
0.015557
0.00711524
0.0322558
0.00676187
0.00685863
0.00669411
0.00671003
0.00675808
0.00676338
0.0067367
0.00532059
0.00786798
0.00212198
0.0106053
0.00672001
0.00143259
0.0144289
0.00684284
0.00385322
0.00671664
0.00681189
0.00731914
0.00691061
0.00836131
0.00687966
0.00680694
0.00674024
0.00406736
0.00684161
0.0158717
0.00136012
0.00677197
0.00213697
0.0137583
0.00714924
0.00674343
0.002247
0.00708131
0.0286082
0.00784876
0.00277436
0.00757305
0.0067717
0.00678991
0.006843
0.00200191
0.00666369
0.0115259
0.00231101
0.00668662
0.00721746
0.00680873
0.00321038
0.00707421
0.015609
0.00647707
0.00679083
0.00573056
0.00675604
0.00195588
0.00158736
0.00687712
0.019374
0.00752114
0.00677749
0.00700306
0.00165355
0.00681401
0.00249607
0.00570713
0.00165742
0.00180525
0.00534087
0.00696672
0.00172884
0.00719659
0.0050579
0.00130376
0.00668837
0.00159914
0.00679279
0.00565814
0.00687397
0.00675409
0.00289791
0.00148464
0.00693971
0.00679334
0.0102129
0.00669046
0.00676567
0.00671461
0.00668346
0.00879373
0.00713335
0.0059508
0.00907981
0.00899788
0.0067559
0.00483546
0.0289971
0.00672923
0.00681504
0.0066828
0.00522733
0.0137119
0.0019915
0.00673239
0.00149526
0.0023824
0.0371909
0.00704095
0.00534355
0.00189922
0.0112311
0.00771575
0.0067771
0.00739701
0.0100176
0.00293037
0.00603093
0.0405073
0.00308533
0.0189879
0.0104159
0.00682647
0.00228665
0.0271795
0.00590914
0.00249463
0.00201846
0.0400946
0.00683218
0.0247008
0.00677382
0.00875615
0.00695137
0.0065397
0.0066904
0.00679932
0.00671868
0.0166514
0.00684728
0.00669025
0.0044938
0.00675642
0.00161167
0.00707167
0.0118475
0.00694324
0.0039239
0.00679957
0.006865
0.00673905
0.00178894
0.00671405
0.0158755
0.0016562
0.00374176
0.00686082
0.0125793
0.00670866
0.00183685
0.0131777
0.0058529
0.00674612
0.006686
0.00685605
0.00683996
0.0235921
0.00203507
0.00675429
0.0120634
0.00686639
0.00678237
0.0142215
0.00668322
0.00677951
0.0146002
0.00670949
0.0124198
0.00298302
0.00211608
0.00172239
0.00208647
0.00775643
0.00675865
0.0124633
0.0163252
0.00671864
0.00166581
0.0274686
0.0218986
0.00233541
0.00704618
0.00678131
0.00736877
0.00680155
0.00744198
0.0135076
0.00200798
0.00668315
0.00135507
0.00885207
0.0145911
0.00668348
0.00668229
0.00701329
0.00681167
0.0157814
0.0126934
0.00677188
0.00181119
0.0117032
0.00683892
0.00690878
0.0428751
0.00366179
0.0114696
0.00736322
0.00686078
0.00678597
0.00708475
0.00296915
0.00537697
0.00683348
0.0119454
0.0160606
0.0167023
0.0020326
0.00383996
0.0425127
0.00134335
0.0137063
0.00141786
0.00676853
0.00681059
0.00926427
0.0278567
0.00691185
0.00189734
0.00143896
0.00680562
0.00168847
0.00690915
0.00680146
0.00698869
0.00133658
0.0067744
0.00672178
0.0403157
0.00676888
0.00677429
0.00169162
0.00179038
0.00987102
0.006962
0.006804
0.0104787
0.00144731
0.00691293
0.00133332
0.0161178
0.00674064
0.00670539
0.00178412
0.00237095
0.00673869
0.00696965
0.00681003
0.007075
0.00686685
0.00222589
0.0068526
0.00579012
0.00678054
0.0020379
0.00682733
0.00603346
0.00596311
0.022971
0.00216676
0.00674824
0.00686769
0.012894
0.00531305
0.00620822
0.00394131
0.0198232
0.00674601
0.00645741
0.00248206
0.00721552
0.00272322
0.00671256
0.00435948
0.0345573
0.00573694
0.00695319
0.00561384
0.00166602
0.00710624
0.00674331
0.00673963
0.0013367
0.00669264
0.00672544
0.0104599
0.00695271
0.0112688
0.00671045
0.00674719
0.00674676
0.00211217
0.00700949
0.00732332
0.00734598
0.00672942
0.00680156
0.0167309
0.00682162
0.00472874
0.00693709
0.0123305
0.00946319
0.00686195
0.00748336
0.00250593
0.00678451
0.030172
0.00407838
0.00678737
0.00668461
0.00671881
0.00707739
0.00621196
0.00177848
0.0194058
0.0120566
0.0134644
0.00244335
0.0097077
0.0022158
0.00929833
0.00669314
0.001543
0.00678598
0.00683924
0.00660379
0.00331635
0.0202745
0.00675145
0.0102844
0.00676328
0.00223454
0.00685729
0.00244484
0.007147
0.00684895
0.00972626
0.00672901
0.00668903
0.018249
0.00166508
0.0057654
0.00678926
0.014266
0.00698544
0.00950916
0.0118531
0.00670709
0.00672189
0.00675952
0.00207239
0.00693207
0.00400829
0.00685075
0.00694927
0.00699813
0.0068021
0.00691608
0.0090551
0.0229587
0.00670625
0.00274459
0.00274787
0.00136751
0.00181424
0.000751371
0.00671175
0.00143777
0.00188292
0.00675413
0.00135213
0.0138706
0.00679747
0.0067254
0.00702814
0.0229114
0.0145031
0.00675937
0.0112208
0.00682274
0.00681293
0.0125112
0.00681357
0.00688879
0.00676879
0.00692347
0.00756942
0.0134626
0.00700317
0.00685313
0.00671554
0.0068684
0.00671978
0.0184707
0.00669029
0.0022492
0.00259804
0.0127306
0.00669939
0.0226
0.00680699
0.00271652
0.00694078
0.00496635
0.00668847
0.0113694
0.0371127
0.0343005
0.00676081
0.00497184
0.0132123
0.0140839
0.00700277
0.0128749
0.00679502
0.0110855
0.0226512
0.00713644
0.0120828
0.0183354
0.0129386
0.0421252
0.00215715
0.0218244
0.00672795
0.00707127
0.0131816
0.00165563
0.00671573
0.00746598
0.00387533
0.00672674
0.00681556
0.00442517
0.0017157
0.00210801
0.0160617
0.00164622
0.0110624
0.00328514
0.00673394
0.00689476
0.0103311
0.013312
0.00159677
0.020553
0.0068456
0.0068393
0.00141247
0.01632
0.00144917
0.00673088
0.00121384
0.0203807
0.00682713
0.00437808
0.00677086
0.00136001
0.0040633
0.00680098
0.0131172
0.0111521
0.00672279
0.00348304
0.00671614
0.00685349
0.00696311
0.00340418
0.00794167
0.00673934
0.00686711
0.00668826
0.00135543
0.00680023
0.00623724
0.00724481
0.00623799
0.0139837
0.00582574
0.00161455
0.0208405
0.00681014
0.00365816
0.0068697
0.00676258
0.0410571
0.0220396
0.00684318
0.00897506
0.00803343
0.0115418
0.00676719
0.00689878
0.00714167
0.00688732
0.00192773
0.01046
0.00702186
0.00696871
0.0189781
0.00401369
0.00255704
0.0212599
0.00193702
0.0136076
0.00671858
0.00668529
0.0172429
0.00683539
0.0208383
0.0133491
0.00178029
0.0139893
0.00685256
0.00695028
0.00579685
0.0141072
0.00678549
0.00772515
0.00709888
0.0067664
0.00219679
0.00344421
0.00679858
0.00129451
0.00238671
0.00686899
0.00242317
0.00671047
0.0068801
0.0167093
0.00143327
0.0104123
0.00675023
0.00156057
0.0067422
0.00672435
0.0226082
0.00677196
0.00825213
0.00997642
0.00429386
0.00747188
0.00136553
0.00819228
0.00668258
0.00827578
0.00143494
0.00241512
0.00268759
0.00704774
0.00674159
0.00307015
0.00259149
0.0111342
0.00139563
0.00671805
0.0158744
0.00668191
0.0385747
0.00670935
0.00700463
0.0068356
0.00671606
0.00670611
0.00841188
0.00671175
0.00677871
0.00669522
0.00674146
0.00672196
0.00103075
0.0133916
0.00686464
0.00173691
0.00678796
0.00670916
0.00670666
0.0119226
0.0370768
0.00183879
0.0067707
0.00670945
0.00673885
0.0022273
0.00189069
0.00670174
0.00278081
0.00255643
0.00845782
0.00683256
0.00674556
0.00671606
0.0025576
0.00672763
0.00469991
0.00672855
0.00672738
0.00651603
0.00684207
0.00872616
0.0166559
0.0232578
0.00745371
0.00671193
0.00680284
0.042824
0.00695823
0.00149386
0.00698764
0.00673277
0.0067666
0.0067193
0.00376629
0.00682981
0.00746906
0.017832
0.00148281
0.00674689
0.00186338
0.0221028
0.00240266
0.00140294
0.00692488
0.00146601
0.00672991
0.00172096
0.00231597
0.0158568
0.00677617
0.00677123
0.00268244
0.00196556
0.00141338
0.00703379
0.0123781
0.00673942
0.00181009
0.00813665
0.0026773
0.0015079
0.00685678
0.00680667
0.00684279
0.0067926
0.00300299
0.010668
0.0116637
0.00672174
0.0412455
0.00690334
0.00788457
0.0122227
0.00673288
0.0201621
0.00222684
0.00672374
0.00194222
0.00137067
0.0068027
0.0111836
0.00671269
0.0329185
0.00808493
0.0246572
0.00736755
0.00127975
0.00677308
0.00176788
0.00480387
0.00673768
0.00670638
0.00676152
0.00334231
0.00424207
0.00137982
0.0155664
0.0189056
0.00137746
0.00832603
0.00679747
0.0378102
0.00672397
0.0104049
0.0181939
0.0203462
0.00664197
0.0177642
0.00582346
0.00669149
0.00680104
0.00670183
0.00177213
0.00693011
0.0231932
0.00195508
0.0415094
0.00165406
0.00679748
0.00682613
0.00677836
0.00669058
0.0123539
0.0245353
0.0329546
0.00679046
0.00705919
0.0023248
0.00685029
0.00214253
0.00673775
0.00941032
0.00692228
0.00530538
0.00747672
0.0128107
0.00172613
0.00934393
0.0141123
0.00684534
0.0127433
0.00693011
0.039935
0.00670906
0.00475026
0.0068656
0.00669156
0.00622779
0.0167416
0.0204798
0.0431094
0.00131209
0.00661984
0.00739696
0.00696306
0.0152914
0.0143576
0.00216725
0.0016386
0.0373826
0.00806643
0.0221356
0.00134721
0.00405174
0.0045113
0.00131846
0.0231607
0.0070353
0.00521173
0.00709729
0.00673426
0.00672264
0.00673552
0.00681526
0.0333528
0.00396845
0.0141613
0.0020071
0.00162092
0.0149684
0.00869104
0.0067995
0.00523219
0.0122119
0.0134059
0.00222519
0.0136254
0.0339997
0.00705379
0.00673094
0.00137118
0.00244824
0.00181132
0.00194327
0.0225168
0.0211314
0.00160419
0.00679838
0.00685235
0.00253756
0.0133286
0.001396
0.00915404
0.00670999
0.00562876
0.0026378
0.00368343
0.00251468
0.00671328
0.00671278
0.00284716
0.00307213
0.00968951
0.00561731
0.00157373
0.00743526
0.0069636
0.0186175
0.00602709
0.00142532
0.00695004
0.00140494
0.00316427
0.00671108
0.00680281
0.0070425
0.00201098
0.00224943
0.00131579
0.00379319
0.00301437
0.00657197
0.00472423
0.00142564
0.00247807
0.00680568
0.0106317
0.00693142
0.0231004
0.00330891
0.0014555
0.00674197
0.00265568
0.00761678
0.00148058
0.035288
0.00689286
0.00691165
0.00900125
0.00698156
0.0198775
0.00453783
0.00680093
0.00278648
0.0208154
0.00672614
0.0018354
0.00680748
0.0205176
0.00985807
0.00794799
0.00288808
0.00671635
0.00671302
0.00674222
0.00222123
0.00668813
0.00680881
0.00670959
0.00672126
0.00248302
0.00686804
0.00701931
0.00684413
0.00971101
0.00676546
0.0334379
0.00425896
0.00675935
0.00671926
0.00671096
0.0319688
0.010101
0.00679247
0.00444839
0.00130046
0.0119505
0.00710147
0.0369305
0.00152981
0.00705098
0.00288977
0.00676669
0.0403478
0.00679324
0.0104224
0.00675165
0.0122699
0.0406471
0.0124745
0.00521626
0.00259069
0.00671006
0.00248831
0.00204741
0.00676525
0.00672767
0.00139483
0.00693941
0.00659443
0.00815497
0.0041064
0.00141216
0.00673979
0.00170677
0.00335894
0.00672337
0.00410446
0.0309074
0.0293605
0.00580972
0.00265732
0.00431916
0.00302103
0.00147652
0.0317321
0.00153419
0.019142
0.0125312
0.00280683
0.00236463
0.00202915
0.00672364
0.00246195
0.00748083
0.00300573
0.0148363
0.00277628
0.00457563
0.0071666
0.00497943
0.00196728
0.00270393
0.00226583
0.00688935
0.00187776
0.0117513
0.00707075
0.00735537
0.00680516
0.0362931
0.020504
0.00225599
0.00681941
0.00670455
0.00700402
0.00685967
0.00558699
0.00671534
0.00723136
0.00677139
0.00734347
0.00145849
0.00680147
0.0371975
0.00446375
0.00434426
0.00247796
0.00258829
0.00223741
0.00906171
0.00561431
0.00378372
0.00672869
0.00670648
0.00405693
0.00747726
0.00671911
0.0162796
0.00426558
0.00674882
0.0222822
0.0216903
0.0167558
0.014417
0.0244117
0.00194497
0.00671869
0.00290413
0.0208497
0.00156944
0.0263984
0.00385027
0.00140475
0.00806923
0.0130152
0.00670287
0.0418544
0.0112033
0.00671356
0.00198132
0.00648748
0.00342781
0.0163804
0.00546637
0.00677864
0.00672532
0.00668929
0.00795111
0.00631079
0.0192553
0.00134725
0.00680262
0.00670881
0.00675262
0.0331839
0.0117374
0.00670981
0.00996835
0.0241333
0.00484894
0.0185031
0.00679962
0.00672378
0.00670311
0.00680372
0.00679264
0.00687319
0.00684155
0.00334949
0.00682402
0.00217195
0.00294191
0.0112614
0.00139153
0.00673796
0.00236943
0.00669595
0.00719218
0.00156641
0.00671129
0.0151522
0.00671297
0.00175042
0.034706
0.00670081
0.00357618
0.0213168
0.00678742
0.00680712
0.00682361
0.00284182
0.00679349
0.0110927
0.00734704
0.00702047
0.00164998
0.00135561
0.00305489
0.00686012
0.00806048
0.00676628
0.0105669
0.00245529
0.00225839
0.0233313
0.00688696
0.00206116
0.0222442
0.00171998
0.0067778
0.0015435
0.00305393
0.00163389
0.00672805
0.00690591
0.020524
0.0017043
0.011345
0.00924434
0.00706528
0.0138802
0.00670044
0.00539723
0.00677865
0.00172816
0.000992886
0.0109167
0.0394085
0.00135929
0.00184212
0.00622068
0.00701783
0.00670955
0.00684769
0.00544682
0.0068391
0.00192225
0.00673141
0.00291135
0.00165809
0.00683636
0.00677098
0.00671654
0.00671398
0.00251327
0.00678471
0.00434903
0.00681753
0.00362458
0.00703478
0.00677158
0.00672771
0.00217447
0.0069836
0.0157528
0.0235454
0.0152254
0.00211414
0.00394311
0.00672022
0.00670954
0.00674865
0.010994
0.00685398
0.00546005
0.0232613
0.00677162
0.00377505
0.0326928
0.00241966
0.00120742
0.00732097
0.01181
0.0240072
0.00671658
0.0067745
0.00226457
0.00073134
0.00175854
0.0137476
0.00190438
0.00676581
0.00671605
0.00914884
0.00185493
0.00618866
0.00712716
0.00683671
0.0025772
0.0232567
0.0238003
0.00710626
0.00168802
0.00535577
0.00491947
0.0223667
0.00678549
0.0067098
0.00673965
0.00935568
0.00670927
0.00197546
0.0227594
0.0325802
0.00673433
0.00675614
0.00674133
0.00680672
0.00686166
0.00187599
0.0177514
0.00358391
0.00261017
0.0110774
0.00350863
0.00696242
0.00583645
0.00678905
0.00671347
0.00672232
0.00675142
0.00680593
0.0234074
0.022854
0.00690876
0.00670231
0.00684153
0.00680681
0.0027933
0.00193746
0.0205531
0.0112203
0.00751042
0.00153944
0.00671474
0.00680693
0.00671718
0.00680729
0.0210587
0.00676
0.00203048
0.00248055
0.000404644
0.0222595
0.00259753
0.00594561
0.0114307
0.006723
0.0020427
0.00454272
0.0268781
0.00677973
0.00703577
0.0072056
0.00678489
0.00679463
0.00287351
0.00677455
0.00681928
0.0245039
0.00207652
0.00731441
0.00672222
0.00670123
0.00197927
0.00236571
0.00394134
0.0163502
0.00696775
0.00275277
0.0012596
0.00671421
0.0036176
0.00671557
0.00220548
0.0068149
0.00674795
0.0391583
0.00985502
0.0411979
0.00215367
0.0098566
0.00782355
0.025617
0.0067334
0.00682633
0.00259289
0.00672361
0.00683529
0.00268621
0.00677151
0.00452344
0.00680155
0.00141819
0.00648963
0.00669144
0.00314337
0.00694527
0.00671314
0.00279679
0.00322906
0.00368432
0.00402133
0.0052031
0.00498511
0.00681392
0.00672131
0.00710774
0.00117109
0.0075726
0.00670879
0.00682329
0.00735611
0.010424
0.00671706
0.00642636
0.00704732
0.00682708
0.00675842
0.0068388
0.00185308
0.0153987
0.00706598
0.00318911
0.00671908
0.0021012
0.00341573
0.00680431
0.00228644
0.0152424
0.00678575
0.00208581
0.0232722
0.0230044
0.00144144
0.00669108
0.00673332
0.0032263
0.00187548
0.0115605
0.00174677
0.0207713
0.00458507
0.0233128
0.0212555
0.0385177
0.00718756
0.0226642
0.0216309
0.0248693
0.00678975
0.0213826
0.00698318
0.0109377
0.00284795
0.0042144
0.00709607
0.002964
0.0198651
0.00686313
0.00679608
0.00466115
0.00230797
0.0234023
0.00670767
0.00679065
0.00674819
0.00215444
0.00693106
0.00125582
0.0233027
0.0166734
0.00223009
0.00690416
0.00182409
0.00683196
0.00675851
0.00959518
0.00681528
0.00238479
0.00676769
0.0157854
0.00146731
0.0230027
0.00702135
0.00299012
0.0242474
0.0013762
0.0133481
0.0349396
0.0239688
0.022264
0.00671155
0.0067947
0.0018873
0.00677367
0.00680169
0.00679846
0.00684639
0.00222625
0.00726732
0.00671005
0.0125032
0.00717793
0.00863346
0.00683884
0.0221861
0.00312279
0.00696091
0.0307616
0.00325743
0.00743123
0.0233238
0.0266977
0.00608703
0.00680089
0.0073612
0.00233887
0.00334827
0.006712
0.00692482
0.00378175
0.00671529
0.00671891
0.00681237
0.00690548
0.0151653
0.00681318
0.00135808
0.00683226
0.0349491
0.00671933
0.0160953
0.00859816
0.00223216
0.00396037
0.00670758
0.00710162
0.00683236
0.00675999
0.0245677
0.00393803
0.026186
0.0117495
0.00673704
0.0045467
0.0024547
0.00677886
0.0124546
0.00673034
0.00147181
0.016409
0.0147455
0.00917051
0.00672055
0.00682716
0.00152078
0.00720011
0.00774886
0.00619154
0.0236847
0.000650745
0.00701707
0.00678123
0.00672811
0.00681525
0.0108487
0.0068531
0.00726113
0.00673684
0.00681783
0.0107369
0.00696391
0.00437055
0.00382578
0.00680585
0.00709064
0.00321256
0.00670435
0.00706607
0.00510396
0.00678542
0.00679632
0.00134878
0.0426045
0.00212614
0.00683322
0.00672764
0.00194717
0.0246022
0.00184019
0.00678942
0.00670468
0.00400867
0.00679619
0.0129437
0.0223301
0.0110792
0.00206594
0.00674054
0.00664284
0.00673188
0.00233507
0.00678078
0.0130408
0.0228678
0.00677611
0.028255
0.00672445
0.0399512
0.00129662
0.00671802
0.00548699
0.00673664
0.00671287
0.00675615
0.00668545
0.0075001
0.00549861
0.00679348
0.00669972
0.00180814
0.0066899
0.00681629
0.00366982
0.00671217
0.00676529
0.0244894
0.00306115
0.00671798
0.00292153
0.0034382
0.00676466
0.00387577
0.0236194
0.006772
0.00674606
0.00693515
0.00630062
0.00678408
0.00668562
0.00364249
0.00163269
0.00672705
0.00373675
0.021297
0.00679689
0.0197704
0.00671957
0.00676304
0.00671257
0.00671113
0.00672084
0.00675398
0.00335756
0.0167743
0.00670139
0.00706466
0.00697666
0.00575469
0.00397552
0.00148319
0.00674943
0.00448879
0.00692264
0.00564868
0.0162699
0.00523748
0.00671544
0.006878
0.00626211
0.00422257
0.00552678
0.00242813
0.00671227
0.0233249
0.0121228
0.0225202
0.0196087
0.00638571
0.00409542
0.00671428
0.034884
0.00678883
0.0057161
0.002361
0.00675712
0.00672607
0.0228804
0.00670616
0.0015119
0.0234151
0.00443678
0.00677681
0.00376729
0.00671422
0.0138904
0.00670835
0.0206742
0.00258505
0.015187
0.0067159
0.00673227
0.00393995
0.0232186
0.0275147
0.0116309
0.00631781
0.00714618
0.00675017
0.0187558
0.035097
0.0067155
0.00691368
0.00709907
0.00671112
0.041473
0.00216074
0.00673795
0.00748994
0.00672903
0.00673222
0.00670461
0.00675353
0.00671519
0.0034862
0.00672858
0.0254556
0.00678477
0.00466845
0.00683389
0.00680882
0.00671177
0.00674488
0.00544492
0.00671683
0.00275533
0.0150717
0.00810006
0.004464
0.0104519
0.00382808
0.00681513
0.00668928
0.00671412
0.00669034
0.0338276
0.0183669
0.00691047
0.00317532
0.0198284
0.00527468
0.0133184
0.00692309
0.00671058
0.00679617
0.00683939
0.00553225
0.00311753
0.00513578
0.00704842
0.0072431
0.00823649
0.00682303
0.00671428
0.00670829
0.0014684
0.00142928
0.0319541
0.0132462
0.0014238
0.00671056
0.00290758
0.00671257
0.00638826
0.00681576
0.00718506
0.00374427
0.00760722
0.00134914
0.0043692
0.00688471
0.00599588
0.00248675
0.021219
0.00671004
0.0067148
0.00676608
0.0067551
0.0082015
0.00674832
0.00681913
0.00252264
0.00672352
0.00345346
0.0213579
0.00236196
0.00681236
0.00679847
0.00585322
0.00947604
0.00671353
0.00671458
0.0028672
0.00671483
0.00675389
0.00598963
0.00697431
0.0212085
0.0229221
0.0160899
0.00142566
0.00676664
0.0068084
0.00157668
0.00671046
0.00675211
0.0252643
0.00285391
0.00730414
0.00679714
0.00670915
0.00361552
0.0135413
0.00678677
0.00347211
0.00679559
0.00671406
0.00672672
0.00579103
0.00718935
0.00673926
0.0069522
0.00454877
0.00670405
0.00253009
0.0144648
0.00481135
0.00677615
0.00680632
0.00680339
0.00677608
0.0128814
0.00671892
0.0140583
0.00610357
0.00670982
0.00671478
0.0155687
0.00670357
0.00674632
0.00671594
0.0107285
0.00709275
0.00719392
0.00673393
0.00671254
0.00676747
0.0121657
0.00676676
0.00683061
0.00139462
0.000670814
0.00562394
0.00669267
0.0148294
0.00669868
0.0062637
0.00671128
0.00677473
0.00671724
0.00678101
0.00679596
0.0233481
0.00173009
0.0199365
0.00168558
0.00533411
0.0324869
0.00675811
0.00565087
0.0112364
0.00700558
0.00933335
0.00143807
0.0155252
0.00671551
0.0241224
0.00677907
0.00672718
0.00719507
0.00194927
0.0141021
0.00190478
0.0066535
0.0192645
0.00558387
0.00671598
0.00245894
0.00134598
0.00998035
0.005777
0.00694788
0.006793
0.0013584
0.0054021
0.00673536
0.00281072
0.00389829
0.0249632
0.00671464
0.00672876
0.00166309
0.00175398
0.0402161
0.0147782
0.00577155
0.00671352
0.00684349
0.00593428
0.0157498
0.00790711
0.00670768
0.00698171
0.00670598
0.00670903
0.00670944
0.00469096
0.00558462
0.00552604
0.00570306
0.000591999
0.0261514
0.00673019
0.0068002
0.00692957
0.00676748
0.00247468
0.00672399
0.0068266
0.00677099
0.00670848
0.00213871
0.00050303
0.00663569
0.00673615
0.0067246
0.0226428
0.00538605
0.00231017
0.00546753
0.010443
0.00803765
0.0067941
0.00177639
0.00618692
0.00672973
0.0268287
0.00682468
0.00679809
0.00676334
0.00591242
0.00670872
0.00670573
0.00709942
0.00681431
0.00677337
0.0067407
0.00291191
0.0035512
0.00629912
0.00684297
0.00676031
0.00823215
0.00672623
0.00675829
0.00670908
0.00214693
0.00671482
0.0235981
0.00668943
0.00672997
0.00197916
0.00575798
0.00673342
0.00619115
0.0225402
0.00612765
0.00672923
0.00668239
0.00670704
0.0015576
0.00710285
0.00483665
0.0243514
0.00678677
0.00670596
0.00685537
0.00682079
0.0023821
0.00674622
0.00675231
0.00673106
0.00271519
0.0146653
0.00675863
0.0067225
0.00673969
0.0102123
0.00221153
0.0215074
0.00696285
0.0069171
0.00680362
0.00675958
0.0250205
0.00149148
0.00671445
0.00681513
0.000620509
0.00204786
0.00670872
0.00674965
0.00670716
0.00680519
0.00674669
0.0148833
0.00696097
0.00709558
0.0169447
0.025187
0.0068431
0.00780719
0.00686294
0.00594209
0.00706274
0.0042859
0.00672418
0.0202568
0.00671508
0.00667742
0.0169831
0.0070024
0.001942
0.0135872
0.00683491
0.0069694
0.00315863
0.017976
0.00414982
0.00672354
0.00671343
0.0202446
0.00673551
0.00670573
0.00720974
0.00233115
0.00670864
0.0132251
0.00856608
0.0067201
0.006999
0.00698343
0.00675483
0.00678328
0.00670838
0.00676773
0.0250492
0.00412189
0.00700135
0.00670462
0.00674002
0.00672736
0.00674933
0.00723012
0.00430537
0.00658203
0.0057095
0.00682362
0.00672696
0.00191811
0.00670771
0.00669706
0.00687435
0.00491957
0.00672724
0.00607574
0.00746888
0.00331638
0.00683195
0.00346444
0.00540548
0.0174693
0.00712894
0.00676777
0.00157148
0.00680801
0.0141666
0.00671236
0.00742026
0.00711285
0.00677681
0.0210455
0.00612807
0.0220032
0.0186341
0.00721243
0.00670618
0.00670747
0.00923506
0.00910742
0.00671206
0.00672899
0.006739
0.00676034
0.0067141
0.0158161
0.00671648
0.00670412
0.00680652
0.00697578
0.00554224
0.00153503
0.00698411
0.00670504
0.00669949
0.00339992
0.00719563
0.00671083
0.0244075
0.00697917
0.00724982
0.00726238
0.00550467
0.00674533
0.00717483
0.0120124
0.00794289
0.00595399
0.00673527
0.00672006
0.00884898
0.0140958
0.00740247
0.00681074
0.00734
0.00676408
0.0047596
0.00711216
0.00730923
0.00670679
0.0068031
0.00670956
0.00676269
0.00677748
0.00709624