/*--------------------------------*- C++ -*----------------------------------*\
| =========                 |                                                 |
| \\      /  F ield         | OpenFOAM: The Open Source CFD Toolbox           |
|  \\    /   O peration     | Version:  v2012                                 |
|   \\  /    A nd           | Website:  www.openfoam.com                      |
|    \\/     M anipulation  |                                                 |
\*---------------------------------------------------------------------------*/
FoamFile
{
    version     2.0;
    format      ascii;
    class       volScalarField;
    location    "300";
    object      nut;
}
// * * * * * * * * * * * * * * * * * * * * * * * * * * * * * * * * * * * * * //

dimensions      [0 2 -1 0 0 0 0];


internalField   nonuniform List<scalar> 
9793
(
0.00957285
0.00618348
0.0111278
0.00670432
0.0143975
0.00684995
0.00687612
0.00669604
0.00675435
0.0117197
0.00209894
0.0233866
0.0067136
0.00687723
0.00703039
0.00682643
0.00692184
0.00698095
0.0192413
0.00685487
0.00236846
0.00370955
0.0258102
0.00668021
0.00678421
0.00672957
0.006818
0.00680037
0.000905865
0.00675358
0.00328121
0.0265048
0.0192954
0.00718152
0.00091591
0.00319795
0.00692572
0.00354338
0.00670539
0.00684224
0.0036249
0.00704387
0.00687151
0.0068825
0.00687082
0.00676106
0.000838544
0.0129691
0.00662274
0.00670043
0.000761012
0.00122626
0.00572
0.00676998
0.00138598
0.0179433
0.00671908
0.00102795
0.0120396
0.00670432
0.00700463
0.00499303
0.0144528
0.0067985
0.0170716
0.0151753
0.0118082
0.00892025
0.0211323
0.00153959
0.000206912
0.00693041
0.00671562
0.00965105
0.000821889
0.0115722
0.00672018
0.00681302
0.0068311
0.00681013
0.0168209
0.00681394
0.0130538
0.0148023
0.00322045
0.0134302
0.0068266
0.00672165
0.00623741
0.00681287
0.00361551
0.0135681
0.0068555
0.025854
0.00529544
0.016952
0.0134294
0.00857851
0.00681194
0.00677039
0.00676424
0.00678294
0.00673529
0.00672402
0.00680707
0.00417253
0.00684636
0.0069449
0.00626691
0.00784756
0.0069568
0.00676648
0.00671477
0.00929583
0.00105234
0.00672088
0.0117964
0.000784679
0.00683682
0.0264183
0.0107588
0.00709643
0.00671604
0.00684092
0.00678306
0.00286906
0.00278417
0.0146671
0.0068434
0.00670936
0.00702411
0.00672257
0.00671062
0.00677258
0.00674689
0.00672341
0.00683623
0.00685946
0.00671321
0.00670113
0.00671503
0.00677944
0.00675656
0.00681871
0.00692204
0.00704153
0.00280677
0.0068198
0.0067854
0.010781
0.0116945
0.00701102
0.01036
0.00951283
0.00676569
0.00709782
0.00688794
0.00677364
0.00678981
0.00674962
0.0066972
0.00681278
0.00674829
0.0175005
0.00248471
0.00240486
0.0136907
0.00228177
0.00679341
0.0067547
0.00674082
0.00911969
0.00220614
0.0101236
0.00678205
0.0189103
0.00672422
0.00666889
0.00671451
0.00280008
0.0118501
0.00675234
0.00679365
0.00677913
0.0117552
0.00671425
0.000951031
0.00671483
0.00671679
0.00675713
0.00677978
0.00670515
0.00620148
0.000495836
0.0110815
0.00348218
0.0126969
0.0067553
0.00766249
0.00671998
0.006746
0.0122392
0.016564
0.0067081
0.00672616
0.006778
0.00310916
0.00682336
0.00450138
0.00674649
0.00170323
0.00559793
0.00785127
0.00677484
0.0107293
0.00685975
0.0067581
0.0101184
0.00676056
0.0274506
0.000700639
0.00671757
0.00678101
0.006705
0.0161426
0.0159732
0.00684372
0.00674882
0.000725157
0.0014999
0.00667993
0.00667495
0.00674933
0.00676063
0.00351117
0.027232
0.00671204
0.00672816
0.013727
0.00678249
0.00577101
0.00691156
0.00672292
0.0190779
0.00672189
0.00678619
0.00669487
0.00677263
0.00681268
0.00710389
0.00680151
0.00580108
0.0010889
0.00343571
0.00671505
0.00266405
0.00673502
0.00462393
0.00682778
0.00680348
0.026741
0.00672397
0.000982997
0.00712615
0.00187572
0.00671651
0.00670398
0.00154322
0.0113607
0.00684558
0.00681974
0.00670434
0.00151973
0.00671958
0.00309303
0.00287218
0.00670895
0.000707589
0.00671803
0.00339888
0.00676688
0.0066843
0.00700419
0.00681644
0.00225304
0.00671661
0.00680369
0.00273142
0.00675337
0.00672559
0.00671333
0.0138897
0.0068529
0.00694968
0.00704297
0.00677272
0.0067843
0.00245321
0.00670432
0.00980767
0.00676252
0.0212687
0.0182513
0.0070415
0.00692111
0.00682229
0.00133603
0.00280089
0.00676029
0.0228637
0.00677219
0.00681769
0.00257223
0.00681679
0.00677245
0.00679843
0.014295
0.00672729
0.00171571
0.00674259
0.0067142
0.00492713
0.014613
0.0110333
0.00673588
0.0117188
0.00678068
0.0146258
0.00108847
0.00671939
0.00670151
0.00111983
0.0067709
0.00631058
0.00113028
0.00669304
0.0068586
0.00674174
0.00693481
0.00681089
0.013859
0.00671629
0.00671193
0.00913216
0.0067811
0.00680846
0.00674014
0.00570955
0.00669447
0.0124351
0.00678425
0.0067274
0.00680296
0.00678441
0.00551693
0.00676538
0.00150088
0.00667463
0.00172518
0.006297
0.000837275
0.0013871
0.00585238
0.00677787
0.0116667
0.00703698
0.024399
0.00679385
0.00677321
0.0174955
0.00679233
0.0155754
0.0067273
0.00344763
0.00284762
0.00676384
0.00671044
0.0165477
0.00510676
0.00268304
0.00267928
0.00675875
0.0124213
0.00671086
0.00669204
0.00719231
0.00689781
0.00683441
0.00676369
0.00305885
0.00643676
0.00677863
0.0129539
0.0248708
0.0123682
0.00180907
0.00963489
0.00684911
0.00674062
0.00823339
0.025091
0.00694796
0.00677283
0.00563431
0.00670135
0.00267011
0.00673047
0.0031231
0.00669711
0.00122992
0.00671619
0.00435298
0.000915139
0.00684213
0.0271794
0.00675808
0.00678052
0.00676227
0.00678085
0.00684858
0.00708904
0.00958948
0.00671477
0.00677671
0.0011005
0.00675366
0.00681966
0.00677592
0.00673696
0.00272766
0.00675467
0.0067809
0.00668629
0.0304198
0.00697093
0.0295661
0.00675283
0.00580268
0.00697535
0.00676393
0.00695174
0.00677967
0.00936435
0.00675738
0.0100435
0.00677364
0.00674326
0.0067741
0.00470673
0.00298092
0.000316375
0.00547822
0.00591484
0.00670555
0.00134963
0.00245054
0.0013358
0.00998442
0.0122677
0.00676017
0.00677312
0.0031521
0.00671858
0.0068157
0.00671714
0.0067367
0.00714078
0.0161757
0.0042109
0.0109055
0.00675342
0.0014082
0.00666829
0.00710751
0.00705899
0.00681116
0.00162521
0.00675961
0.00677778
0.00669619
0.0067395
0.00679977
0.0113752
0.00676828
0.00670478
0.0192996
0.00682153
0.00678161
0.0158541
0.00593211
0.00713374
0.007234
0.0058841
0.00680798
0.00678505
0.0068897
0.00681997
0.00676176
0.00673939
0.00671703
0.00345409
0.000908744
0.00688359
0.0105597
0.000833069
0.0067813
0.00684957
0.00682952
0.00386183
0.00676582
0.0225696
0.00672731
0.00672437
0.00133852
0.0067158
0.00238254
0.0171164
0.00154118
0.00677999
0.0141959
0.00682379
0.00670062
0.00674386
0.00369623
0.00670855
0.00669938
0.00670406
0.0067078
0.0159074
0.00321572
0.0010222
0.00684998
0.00673942
0.00672006
0.00674588
0.0069319
0.00670707
0.000458664
0.000865066
0.00670954
0.00676818
0.0083665
0.00674755
0.00956383
0.00144753
0.00691267
0.00144501
0.012389
0.00671851
0.000980417
0.00668844
0.0115826
0.00297376
0.0081932
0.00671223
0.00672048
0.00688304
0.00467586
0.00677424
0.0136628
0.0207529
0.0159856
0.00205578
0.0222272
0.00122096
0.00703183
0.0031729
0.00676993
0.029033
0.00676892
0.00563505
0.00668261
0.00778802
0.00696834
0.00676938
0.00671678
0.00133788
0.0066884
0.00689263
0.00674998
0.00672741
0.00345167
0.00671683
0.00671092
0.00674155
0.00673745
0.0192284
0.00669856
0.0144531
0.004091
0.00669964
0.00696072
0.00117296
0.00677361
0.00671469
0.00680998
0.00676088
0.00334536
0.00675842
0.00672718
0.00669312
0.00683916
0.0062824
0.00446804
0.00681402
0.00487318
0.0096078
0.00673906
0.0125946
0.00646204
0.00687817
0.00671237
0.00669452
0.00679472
0.00679249
0.00672048
0.00718622
0.00666782
0.00672311
0.00717838
0.00670067
0.00291822
0.00668033
0.00677013
0.00719976
0.00675772
0.00328135
0.00675446
0.00296769
0.00695735
0.00671125
0.00671248
0.00669412
0.00668968
0.00696915
0.00669218
0.00670939
0.00674091
0.00668662
0.00142463
0.00687609
0.00698204
0.0067169
0.00526658
0.00670024
0.00669484
0.00199948
0.0066813
0.00678413
0.00121777
0.00678251
0.00692788
0.00705131
0.00120867
0.00669469
0.00281698
0.0164711
0.0170607
0.01114
0.00678088
0.00671973
0.00746818
0.00708043
0.00668935
0.00423121
0.00593069
0.0104708
0.00671355
0.00385746
0.00671955
0.00671647
0.0128847
0.00670113
0.00458771
0.00704376
0.000809144
0.00670948
0.00434387
0.00679715
0.00128686
0.0272713
0.006737
0.00812148
0.0045878
0.00670787
0.00683199
0.00245665
0.0104495
0.00671011
0.00848422
0.0070384
0.0164518
0.00791905
0.0157857
0.023658
0.00680928
0.00280627
0.0193779
0.00670048
0.00670058
0.00708386
0.00683679
0.00668583
0.0185322
0.00668487
0.0151852
0.00670779
0.0203302
0.00138503
0.00674969
0.001434
0.0135826
0.00678468
0.0111133
0.00299616
0.0027884
0.00668756
0.00667951
0.0306828
0.0067539
0.0243232
0.0067229
0.0257645
0.00671646
0.0136978
0.0301594
0.0068109
0.0129095
0.00672638
0.00674467
0.00182071
0.00386822
0.00135372
0.0066916
0.00672388
0.00669878
0.0166041
0.00722159
0.00689164
0.0042298
0.00980231
0.00669288
0.00670239
0.00677243
0.00419444
0.00671326
0.00676935
0.00688032
0.00669975
0.0125973
0.00994964
0.00242055
0.00669619
0.00670326
0.00540181
0.00670105
0.00967767
0.000986959
0.0163118
0.0125519
0.0261974
0.00670187
0.00674944
0.00667143
0.00676009
0.0036709
0.00670171
0.00387892
0.00941204
0.0067152
0.0135985
0.00669968
0.00274326
0.00676856
0.0243519
0.00239005
0.00694885
0.0067148
0.00675259
0.00693558
0.0187878
0.0166693
0.00676053
0.00108285
0.00696354
0.00445484
0.00443916
0.0115229
0.00701132
0.00265118
0.00670037
0.00423716
0.00673114
0.00668502
0.00713998
0.00670621
0.0150706
0.00670074
0.00519103
0.00694223
0.00706643
0.00668395
0.000925501
0.00709685
0.00676504
0.00670354
0.00670349
0.0233272
0.00670002
0.00281207
0.006723
0.00720606
0.00687187
0.00600682
0.00699028
0.0217094
0.00679655
0.0067608
0.0066981
0.0226134
0.0238981
0.00247034
0.00127759
0.00548109
0.0067527
0.0066797
0.00396951
0.00669035
0.0303179
0.0274701
0.000605297
0.00145322
0.00498202
0.0228427
0.00677159
0.0305863
0.00431304
0.00568665
0.00677489
0.0228187
0.0109898
0.00693232
0.00298031
0.00670158
0.00676911
0.00293032
0.00696252
0.00668837
0.00675792
0.00197968
0.00230086
0.00520489
0.0169194
0.00670013
0.00669407
0.00860726
0.00585244
0.00320154
0.00680223
0.00265198
0.00671594
0.0066885
0.0131952
0.00668489
0.00536916
0.0228669
0.0233415
0.00681595
0.00449616
0.00032666
0.000273764
0.00253566
0.0124646
0.00687268
0.00818678
0.00680881
0.00669909
0.00673459
0.00712405
0.00698074
0.0142007
0.0068823
0.0169634
0.00673155
0.000977932
0.00681363
0.00282316
0.00689732
0.00676291
0.00116716
0.00672929
0.0066901
0.00081423
0.00721966
0.00191416
0.00684174
0.00672036
0.0226688
0.00300711
0.00678635
0.00666903
0.00666539
0.00677616
0.00684203
0.0183137
0.000875162
0.00296305
0.00130309
0.0285625
0.00677488
0.00171352
0.00369345
0.00664455
0.000830831
0.00671588
0.0067125
0.00205388
0.00133826
0.0129863
0.0067097
0.0172444
0.0275106
0.00694809
0.00286523
0.00668092
0.0175308
0.0068064
0.00655973
0.0283489
0.00681086
0.00671103
0.00277023
0.00680546
0.00669371
0.00670758
0.00169353
0.00681528
0.005246
0.00508682
0.00280725
0.00211759
0.000994025
0.0231695
0.0217391
0.0219565
0.00669181
0.00675812
0.0067656
0.00688322
0.00694375
0.0054107
0.0241535
0.00668031
0.00306899
0.00439532
0.00937449
0.00676427
0.0244862
0.00671072
0.022691
0.00337518
0.00669568
0.00480216
0.011081
0.00669543
0.00674154
0.00678747
0.00750302
0.00379618
0.00177384
0.000764913
0.00690586
0.00777444
0.0135127
0.022062
0.00677859
0.00671161
0.0143158
0.00247784
0.00670897
0.00674705
0.00669214
0.00680785
0.00678905
0.006577
0.00437462
0.00673251
0.00677934
0.00356122
0.00677332
0.00705168
0.00234984
0.00532102
0.00675437
0.0067847
0.020428
0.00678681
0.00671225
0.00678915
0.006702
0.00497125
0.0285237
0.0144907
0.0067789
0.0177316
0.00671005
0.00273732
0.00671104
0.00679628
0.00546434
0.00681189
0.0240468
0.00679801
0.00691569
0.00169961
0.00678226
0.0067512
0.00597184
0.00670799
0.000815603
0.00675338
0.00670029
0.00832805
0.00671179
0.00527374
0.0066976
0.00672494
0.00259906
0.00679068
0.00269992
0.0212445
0.00672449
0.00422685
0.00670598
0.00671196
0.00702509
0.0147489
0.00673307
0.00674583
0.00669627
0.00677086
0.00214073
0.0057957
0.00677718
0.0069101
0.00676733
0.00676796
0.00673647
0.00677726
0.00670122
0.00670108
0.00686523
0.00261597
0.00671732
0.00307683
0.00683236
0.0023846
0.00246989
0.00312715
0.00674226
0.0067094
0.00288204
0.00324936
0.00678852
0.00680702
0.0282826
0.000716928
0.00671256
0.00667269
0.00359996
0.000717524
0.00668232
0.0274699
0.00115752
0.0067684
0.00678888
0.00686494
0.00676807
0.00152512
0.0110237
0.00676397
0.00721334
0.00665236
0.00818036
0.0066735
0.00671978
0.00667321
0.00667259
0.000804033
0.00671325
0.00291551
0.00075174
0.00667266
0.0067865
0.00657407
0.00710093
0.0067709
0.00670808
0.00667209
0.00358558
0.00667296
0.00674191
0.0305605
0.00679911
0.00676465
0.00690888
0.00671321
0.00676826
0.00670877
0.00673573
0.00679169
0.00708359
0.000707468
0.00518157
0.00667441
0.00671912
0.00667331
0.00131167
0.00670297
0.00236863
0.00672914
0.00675686
0.00673713
0.00670794
0.00356831
0.00672082
0.00671005
0.00961069
0.0182079
0.00676982
0.0067471
0.00670065
0.00177179
0.00967648
0.00670765
0.0252633
0.00412497
0.00721416
0.00654454
0.0270916
0.00371924
0.0303353
0.00187582
0.0052957
0.00670823
0.00248754
0.000790404
0.0067148
0.00984132
0.0137777
0.00671061
0.0126223
0.010885
0.00704849
0.029372
0.00667667
0.00374098
0.000883218
0.00670452
0.0234327
0.00667861
0.00253634
0.000930246
0.0066749
0.00495807
0.00682549
0.00679316
0.0023917
0.00665651
0.00685431
0.0144274
0.00672886
0.00640325
0.0134112
0.00669352
0.00659197
0.0066975
0.0279162
0.00564121
0.00692842
0.00675621
0.00650673
0.0123657
0.0139184
0.00375935
0.00667571
0.00670076
0.0131642
0.00362484
0.00197861
0.00393982
0.00362188
0.00547283
0.0067133
0.00689709
0.0070571
0.00365955
0.0067095
0.00708084
0.0280844
0.00187882
0.00670257
0.00136662
0.00264633
0.00192034
0.0119004
0.000962509
0.00739735
0.0226481
0.00667721
0.000860523
0.000798118
0.0250554
0.012701
0.00672951
0.000905933
0.0248374
0.00081232
0.00210353
0.0119892
0.018337
0.00670757
0.00646034
0.00660841
0.00670736
0.00338824
0.00671948
0.00715238
0.00669251
0.00668112
0.00681745
0.00672639
0.00411048
0.00609887
0.00512717
0.00476231
0.0239001
0.00669878
0.00494673
0.00675732
0.00637965
0.00680974
0.00670691
0.000787501
0.00677185
0.00670934
0.00670827
0.00674014
0.00671242
0.00126124
0.00676585
0.00570506
0.00685532
0.00669941
0.0287452
0.00685676
0.00677314
0.00670172
0.00673286
0.00542659
0.00330362
0.0164337
0.00125377
0.00522041
0.00674886
0.00677189
0.00676075
0.00662645
0.00174029
0.00128326
0.00945854
0.00672223
0.000768179
0.00676217
0.00637771
0.0140225
0.00659094
0.0134386
0.0118534
0.00693894
0.000819546
0.0067103
0.00244148
0.00679379
0.00128735
0.00218722
0.00667929
0.0114315
0.0241231
0.00677233
0.00672309
0.00677513
0.00248998
0.00727985
0.00677615
0.00294197
0.00669652
0.00995543
0.00670648
0.00691063
0.00676195
0.00677674
0.00583754
0.0067061
0.00700847
0.0066087
0.00672469
0.00669382
0.00284073
0.00451529
0.0142583
0.00680557
0.0069847
0.00237007
0.000887406
0.00670816
0.00673578
0.0132603
0.00676862
0.00670058
0.00590069
0.0121503
0.00701194
0.00669689
0.0067948
0.0136311
0.000904691
0.00670113
0.00841763
0.00679221
0.00372457
0.00559053
0.00677193
0.00670695
0.000953852
0.00670351
0.00669266
0.00671211
0.00198274
0.013694
0.00700427
0.00693329
0.0067726
0.00676661
0.0272288
0.00656387
0.0071457
0.00677034
0.00670781
0.00154577
0.0155955
0.0177391
0.00670929
0.00112283
0.00671635
0.00673081
0.00677798
0.00676908
0.000997283
0.00671055
0.00542311
0.025238
0.0105687
0.00662619
0.00674555
0.00675296
0.000931041
0.00669149
0.00674058
0.000961366
0.00675146
0.00671778
0.0057277
0.00401364
0.00669917
0.0128299
0.00299922
0.00707357
0.00666942
0.00619911
0.00669079
0.00661099
0.00671542
0.00670967
0.0067415
0.00670921
0.00673825
0.00670956
0.00171928
0.00104907
0.00676164
0.00681032
0.00673677
0.00705102
0.00373573
0.00199421
0.00676748
0.0125481
0.00670871
0.00679219
0.00719628
0.00106859
0.0067389
0.0134179
0.00673265
0.006755
0.0066644
0.0130135
0.00668386
0.0048632
0.010102
0.00680218
0.00673831
0.00670838
0.00671927
0.00681753
0.00679705
0.00655575
0.0120209
0.00676052
0.00425728
0.0126534
0.00665549
0.000799682
0.00677827
0.00666846
0.00670865
0.00671154
0.00671694
0.00671312
0.00466113
0.000911812
0.00669809
0.0152229
0.00951254
0.00670577
0.0061044
0.00671017
0.000916697
0.00684302
0.00670301
0.0132346
0.00675513
0.00693241
0.002667
0.00411943
0.00199171
0.00679088
0.00670491
0.00465454
0.0135325
0.00296463
0.00289343
0.00445277
0.00673844
0.00672188
0.0253442
0.00681976
0.00210065
0.00605999
0.0013829
0.00674796
0.00291156
0.00677265
0.00679468
0.00100265
0.00270172
0.000939076
0.00676111
0.00677373
0.00400881
0.00773843
0.00228017
0.00670509
0.00655593
0.00118687
0.00665976
0.000862571
0.0067694
0.00678517
0.00671079
0.0069492
0.00594723
0.00385607
0.00676001
0.0140088
0.00706406
0.00316347
0.00674449
0.0067116
0.00671041
0.00670036
0.000962415
0.0068088
0.00675152
0.00676483
0.00672722
0.0067423
0.000828938
0.00671295
0.00671804
0.00678431
0.0058895
0.0124486
0.00673509
0.0067309
0.00673279
0.0100332
0.00649382
0.0104999
0.00674703
0.000937352
0.00673823
0.00680833
0.00227291
0.00678083
0.00213976
0.00677461
0.00673106
0.00671342
0.00440186
0.000996936
0.00682111
0.00676976
0.0204894
0.00678918
0.00498627
0.00676426
0.00679233
0.0067426
0.00678693
0.00805337
0.00669389
0.00669691
0.00669888
0.00304143
0.00420638
0.0192433
0.00675668
0.0068063
0.0055883
0.0265028
0.0214196
0.00531474
0.00150172
0.0221587
0.00676146
0.0239167
0.00684876
0.000837974
0.00670697
0.00554707
0.00582344
0.00666504
0.00323752
0.00719078
0.00509392
0.00669421
0.0077433
0.00670007
0.0222541
0.00677477
0.00671668
0.00678893
0.00669258
0.00679094
0.000731406
0.00672254
0.00670222
0.00670494
0.00679809
0.00671498
0.00555303
0.00310514
0.0239392
0.00676383
0.00678044
0.00664216
0.00673546
0.00672066
0.000812311
0.00236846
0.00685531
0.00670552
0.00357616
0.00637694
0.00271275
0.0087674
0.00388019
0.00670842
0.00670388
0.00672045
0.0161338
0.00678469
0.00670998
0.00190096
0.000881891
0.00279708
0.00430748
0.00671912
0.00691289
0.00692015
0.00668466
0.00677676
0.00120597
0.0170389
0.00256152
0.00670952
0.00607488
0.00678272
0.00677151
0.00703969
0.00677073
0.00707236
0.00616428
0.00671301
0.00672982
0.00673453
0.00669875
0.00669119
0.00672811
0.00248399
0.0107674
0.00563852
0.00666341
0.00669492
0.00670336
0.00677646
0.00672462
0.0048735
0.00676811
0.00676598
0.00677212
0.0218682
0.00670861
0.0039388
0.0199669
0.00670841
0.00671748
0.0175885
0.00673819
0.00671068
0.00670432
0.00133586
0.0056636
0.00074394
0.00678593
0.00227555
0.00676234
0.00672045
0.00670365
0.00671687
0.00203451
0.00670881
0.00676601
0.00192002
0.00672937
0.0230057
0.00678163
0.0015302
0.0067756
0.00615335
0.00307242
0.00675852
0.0067011
0.00681011
0.00675649
0.00672444
0.0104704
0.00669817
0.00200653
0.00670735
0.00680068
0.0128347
0.00670858
0.000976364
0.00168998
0.00672203
0.0128533
0.00670712
0.00678057
0.00670793
0.00678199
0.00669253
0.00672848
0.00673383
0.00675325
0.00443602
0.00675064
0.00669807
0.00677496
0.00669531
0.00670782
0.00670856
0.00671732
0.00669332
0.00670423
0.00672665
0.00671018
0.00671539
0.00679113
0.00401993
0.00674578
0.00679782
0.0063692
0.0117443
0.00671273
0.00675471
0.00670222
0.00681645
0.0067204
0.00677826
0.0106425
0.0132829
0.00670118
0.00400608
0.0251785
0.00678558
0.00737447
0.0100611
0.00668764
0.0199117
0.00674207
0.0123999
0.00262024
0.0049521
0.0108976
0.00538141
0.00670184
0.00670699
0.00669762
0.00225781
0.00124445
0.00445817
0.00539866
0.00026306
0.00672076
0.00848082
0.00152691
0.006771
0.00669909
0.000966077
0.000920759
0.00672974
0.00670749
0.00670998
0.00418897
0.00378463
0.00496528
0.00344569
0.00458609
0.00614573
0.00671496
0.00673604
0.00670543
0.00571369
0.0064718
0.00690421
0.00105493
0.00614814
0.00740809
0.0067104
0.00708101
0.00671136
0.00297355
0.0067092
0.00678414
0.00231535
0.00404367
0.00565427
0.0066814
0.0219418
0.00220615
0.00108987
0.022523
0.00548207
0.00670929
0.00670916
0.00670939
0.0156458
0.00671832
0.0066952
0.00671223
0.00113222
0.00619376
0.00639286
0.0070822
0.00815251
0.00612115
0.000833566
0.0219417
0.00170128
0.00234327
0.00270986
0.00598847
0.00550252
0.00670056
0.00670086
0.00671261
0.00683975
0.00815228
0.00228127
0.0069212
0.00671495
0.0067389
0.00307889
0.00670673
0.00673267
0.00670836
0.000843497
0.00670316
0.00670623
0.0067119
0.00274179
0.00810011
0.0017142
0.00407417
0.00674141
0.013543
0.00669961
0.00669962
0.00670537
0.00733285
0.00334831
0.00678796
0.00679761
0.000788312
0.00672816
0.00670587
0.00670548
0.00677644
0.00590843
0.00670137
0.00676164
0.0067059
0.00679834
0.00672837
0.00671069
0.00669987
0.00672292
0.00675383
0.00225733
0.00670402
0.00669764
0.00597998
0.000740404
0.00652804
0.00332901
0.00670442
0.00650451
0.00670346
0.0066963
0.00670573
0.0049415
0.00672453
0.00670683
0.00671369
0.00525346
0.00494344
0.00670934
0.00752738
0.00673191
0.00672253
0.0067354
0.00680811
0.00266083
0.0067061
0.00821952
0.00673582
0.00604229
0.0018107
0.0067608
0.00298738
0.00669968
0.00670255
0.00670624
0.0126353
0.0067568
0.00684205
0.00243572
0.013892
0.00489327
0.00394573
0.0056047
0.0067309
0.00667458
0.00181923
0.00546468
0.00670005
0.00224457
0.0067096
0.00670853
0.014192
0.006711
0.00673083
0.00668417
0.00369152
0.00652616
0.00674676
0.00670672
0.00831593
0.00670346
0.00670289
0.00556421
0.00673489
0.00702121
0.00654351
0.00534758
0.00671337
0.00551858
0.00670506
0.00669304
0.00659655
0.00675923
0.00671188
0.00159063
0.00669338
0.00875362
0.00675434
0.0049671
0.00703019
0.0052831
0.00447335
0.00681947
0.00107042
0.0218809
0.00674081
0.00586648
0.00680911
0.00672935
0.00675915
0.00670964
0.00707352
0.0123356
0.00602247
0.00672972
0.00708505
0.00683049
0.00666927
0.00671195
0.00675044
0.00674148
0.00669303
0.00673657
0.00684011
0.0067779
0.00946376
0.00670916
0.006846
0.000521577
0.00684929
0.00670403
0.0114622
0.0149772
0.0117167
0.0146757
0.00360261
0.00670863
0.00620207
0.00582532
0.0181642
0.00932191
0.0194493
0.0155537
0.00673895
0.0219224
0.00733789
0.0067809
0.00623219
0.00679513
0.00508095
0.0062284
0.0109833
0.00680455
0.00671383
0.000475253
0.00674542
0.00676559
0.00715292
0.0183453
0.00672111
0.00672027
0.00673154
0.00410886
0.00672131
0.00671613
0.00670746
0.00670192
0.00670607
0.00628454
0.00677415
0.00670285
0.00676771
0.00164139
0.00609472
0.00394401
0.00673392
0.00672564
0.00422892
0.00672817
0.00670459
0.00670032
0.0148367
0.00673292
0.00101359
0.00670441
0.00678299
0.00670439
0.00673877
0.0105563
0.00620773
0.0066925
0.00680876
0.00518673
0.0133137
0.00641751
0.00540915
0.00674777
0.00168976
0.00670797
0.0066688
0.0067199
0.00673039
0.0067075
0.0067119
0.00679453
0.00475567
0.00668597
0.00659274
0.00351229
0.00669277
0.00657888
0.00103221
0.00680182
0.00670588
0.00670271
0.00674675
0.00671904
0.0215846
0.00667709
0.00672611
0.00619184
0.00670915
0.00671812
0.00670061
0.00563628
0.00671596
0.00671347
0.0027777
0.00669234
0.00669161
0.00671894
0.00799496
0.00671377
0.00666659
0.00670799
0.0066876
0.00616796
0.00140464
0.00670903
0.00680013
0.00667297
0.00672412
0.00676865
0.0226008
0.0252841
0.00669141
0.00675061
0.00671951
0.00671226
0.00672226
0.00670574
0.0060407
0.0199054
0.00674116
0.00679851
0.00645613
0.0066988
0.00671411
0.00696385
0.0013594
0.00350262
0.00674206
0.00294709
0.00897531
0.006711
0.00705619
0.0147492
0.00851278
0.00689133
0.00670457
0.00680176
0.00672718
0.00670316
0.0223947
0.00671269
0.00300158
0.00451297
0.00677188
0.00707155
0.00642124
0.00673653
0.00623236
0.00684358
0.00163369
0.0026648
0.00670757
0.00690485
0.00681812
0.00669311
0.00684811
0.00670404
0.00669934
0.00668058
0.00670622
0.00670936
0.0161323
0.00679871
0.015531
0.0149697
0.00155154
0.0085382
0.00667057
0.00671069
0.00672783
0.0041356
0.00670542
0.0189241
0.00708587
0.00669434
0.00670141
0.0226816
0.0067026
0.00690441
0.0144078
0.00670686
0.0227855
0.00679813
0.00280119
0.00520344
0.00671524
0.00669298
0.00219561
0.00667897
0.00673601
0.00653372
0.00668329
0.00691057
0.00669888
0.0162016
0.00671076
0.00670696
0.0063344
0.0067153
0.0225838
0.00671715
0.00670188
0.00673283
0.00555035
0.00670765
0.00670038
0.0190033
0.00457527
0.00165123
0.00676137
0.00672162
0.00546027
0.0218428
0.00594297
0.00102727
0.0036519
0.0039013
0.00678909
0.00671625
0.00650158
0.00679291
0.00672775
0.00669846
0.00658661
0.00708773
0.00670167
0.00666254
0.00678111
0.00669208
0.00675129
0.0069052
0.00619621
0.0250558
0.00688929
0.0132791
0.0192473
0.00669655
0.00670174
0.00679137
0.000911916
0.00676303
0.00676891
0.00669972
0.0067121
0.00670824
0.0011724
0.00674171
0.0066754
0.00670794
0.00670498
0.00358447
0.00105143
0.00676797
0.00670576
0.00669843
0.0050763
0.00590103
0.00677339
0.00671019
0.007537
0.00670215
0.00671032
0.00670704
0.000748455
0.00670023
0.00669753
0.0050168
0.00669692
0.000918117
0.00705927
0.00671054
0.00672563
0.00793462
0.00658663
0.00224978
0.0209699
0.00702821
0.00689091
0.00676978
0.00670699
0.0068917
0.00670089
0.00694216
0.0112737
0.00451415
0.00495667
0.00638103
0.00670321
0.00835607
0.00675999
0.00716532
0.00735022
0.00669547
0.00669781
0.00678696
0.00670665
0.00625567
0.0175087
0.0064734
0.00673255
0.00670666
0.00669723
0.00629055
0.00676325
0.0030995
0.00669858
0.00674944
0.00646464
0.00671703
0.00640987
0.00650303
0.00670002
0.00676187
0.00666759
0.00674149
0.0155372
0.0167611
0.00669784
0.00671451
0.00669796
0.00769064
0.00670417
0.00665603
0.000880562
0.00636717
0.00901511
0.00633699
0.00627726
0.00670689
0.0024845
0.00675206
0.00671931
0.0067147
0.00558218
0.00669614
0.00672498
0.00657272
0.00674497
0.00671249
0.0232295
0.00669661
0.00672325
0.00663949
0.00595351
0.00670173
0.00670399
0.000886345
0.00796346
0.00195302
0.010281
0.0067124
0.00509682
0.00669924
0.00905074
0.006482
0.00601575
0.00946232
0.00722737
0.00290073
0.00587667
0.00571131
0.00669299
0.00669936
0.0067708
0.00673199
0.0012243
0.00669347
0.000809361
0.00671126
0.00676669
0.00675817
0.00915767
0.00670477
0.00788633
0.00674509
0.00683048
0.00784343
0.00906452
0.0107793
0.00666617
0.00101402
0.00672539
0.0120787
0.00677316
0.00644651
0.00671566
0.00687026
0.00835127
0.00669493
0.00649938
0.00704154
0.0069429
0.00673168
0.0193088
0.00679009
0.00669823
0.0067064
0.00703504
0.00676587
0.00695812
0.0068549
0.00672989
0.00186179
0.00669346
0.00669691
0.0238876
0.00210077
0.0239744
0.00355896
0.00670426
0.00708285
0.0153472
0.000850586
0.00669446
0.00680184
0.0140157
0.00669416
0.00779884
0.00666978
0.00624697
0.0139461
0.0235886
0.00672568
0.00669463
0.00669227
0.00678296
0.00669836
0.00793222
0.00708375
0.00677009
0.00672147
0.003689
0.0067715
0.00674956
0.00668225
0.0020754
0.00675318
0.0067739
0.00680645
0.00705452
0.00926229
0.0066964
0.0250521
0.00670405
0.00141602
0.0183307
0.00676591
0.0151202
0.0066961
0.00668972
0.00669913
0.00669586
0.00669685
0.00670247
0.0066686
0.00644468
0.00704322
0.00670666
0.00550874
0.00670192
0.00675468
0.00669246
0.0078723
0.00676478
0.00406958
0.00675865
0.00697323
0.00669563
0.0066695
0.0027827
0.0067317
0.00826705
0.0154364
0.0067548
0.00677802
0.0065856
0.0068053
0.00354526
0.00675553
0.00669127
0.00693527
0.00657753
0.00669913
0.0055496
0.00690355
0.00799401
0.00677164
0.00676125
0.00679711
0.00692819
0.00346007
0.00669253
0.0151707
0.00689146
0.00670444
0.00669994
0.00670508
0.00670317
0.0066904
0.00670824
0.00669211
0.00678113
0.00698995
0.00676899
0.00678903
0.00669042
0.00657616
0.00669439
0.00669133
0.00863539
0.00684779
0.00683033
0.00669214
0.00676379
0.00669129
0.00669087
0.00152026
0.00671141
0.00670015
0.00433731
0.00727402
0.00574594
0.00669927
0.0153952
0.00676283
0.0205653
0.00419843
0.0067848
0.00594999
0.00669131
0.0067013
0.00791992
0.00669401
0.000853934
0.00351224
0.00513267
0.00706831
0.00480207
0.00675455
0.00670108
0.00701802
0.00669122
0.00768977
0.00560146
0.00669736
0.00317092
0.00656865
0.00666705
0.00669348
0.00687739
0.00707117
0.00371802
0.00675659
0.00604298
0.0131248
0.00672931
0.0133174
0.0113144
0.00678216
0.0106993
0.00687573
0.00672391
0.00666834
0.00342176
0.0048275
0.00667497
0.0195966
0.0155934
0.0049335
0.00666281
0.0058243
0.00670008
0.00669131
0.00678444
0.003055
0.00669075
0.00680925
0.00304216
0.00668339
0.00682561
0.00669583
0.00636944
0.00556936
0.0067678
0.00675039
0.0167318
0.00653137
0.00660342
0.00334019
0.00683006
0.0213924
0.00669944
0.0261489
0.00670295
0.00670762
0.0112966
0.0067618
0.00689851
0.00671993
0.00831543
0.00671678
0.00676516
0.00669916
0.00674297
0.00670566
0.00677631
0.00112418
0.00562326
0.00669064
0.0115425
0.00330431
0.00669979
0.00668997
0.0169369
0.00687695
0.00180596
0.00907185
0.0134453
0.00669115
0.00672874
0.00601411
0.00685087
0.00753113
0.00662551
0.00668968
0.00672613
0.00720478
0.00667104
0.00669631
0.000864257
0.00669353
0.0249345
0.00669832
0.00671366
0.00510227
0.00666848
0.00103606
0.00255011
0.00670558
0.00669371
0.00670145
0.00666719
0.00666266
0.00674327
0.00762376
0.0127902
0.00681264
0.00675868
0.00109907
0.00669167
0.00678075
0.00670866
0.0159039
0.00450066
0.013308
0.00387563
0.001593
0.00940812
0.00129184
0.00670352
0.00676272
0.00666562
0.00666784
0.00673343
0.00669487
0.011596
0.00597811
0.00676348
0.00803709
0.00688996
0.00470258
0.00311279
0.00669662
0.00594077
0.00668009
0.0036521
0.00672267
0.0066969
0.00670103
0.00222857
0.0139035
0.0126401
0.0122137
0.00669933
0.000865151
0.00669073
0.00179873
0.00147009
0.00670072
0.00686926
0.00676692
0.00358268
0.0215253
0.00676254
0.00666318
0.00664289
0.00692654
0.00339964
0.00675483
0.00685548
0.0108467
0.00526986
0.00670051
0.00695817
0.00669471
0.00702418
0.00678876
0.00986052
0.00668899
0.00677037
0.00957001
0.00670915
0.00669599
0.0172517
0.00665499
0.00674392
0.00675585
0.00676737
0.00668982
0.00670065
0.00491439
0.00749631
0.00670786
0.00675985
0.0066961
0.00670881
0.00670893
0.00671256
0.00609061
0.00455841
0.00531424
0.0190122
0.00669055
0.00690341
0.00669371
0.00680671
0.00652276
0.00676343
0.00518205
0.00669131
0.00614567
0.00676198
0.00223339
0.00240773
0.0067996
0.00669404