/*--------------------------------*- C++ -*----------------------------------*\
| =========                 |                                                 |
| \\      /  F ield         | OpenFOAM: The Open Source CFD Toolbox           |
|  \\    /   O peration     | Version:  v2012                                 |
|   \\  /    A nd           | Website:  www.openfoam.com                      |
|    \\/     M anipulation  |                                                 |
\*---------------------------------------------------------------------------*/
FoamFile
{
    version     2.0;
    format      ascii;
    class       volScalarField;
    location    "300";
    object      p;
}
// * * * * * * * * * * * * * * * * * * * * * * * * * * * * * * * * * * * * * //

dimensions      [0 2 -2 0 0 0 0];


internalField   nonuniform List<scalar> 
9793
(
0.0104252
-7.58241e-05
0.00920763
-2.40787e-06
-0.167326
0.00171956
0.000705006
0.000851385
-0.00653397
-0.117375
0.0125535
-0.00195899
2.15161e-05
0.000203825
0.000586522
0.000282839
0.000670445
0.000603834
-0.298637
0.000263779
-0.0131165
0.0011879
-0.0269024
9.07804e-07
0.00170984
1.00316e-05
0.000437414
0.0006835
0.0192305
-0.00620668
0.00361266
-0.0238407
0.00688402
0.000157731
0.0224734
-0.0274114
0.000590264
0.00114675
0.00099892
0.00027628
0.00338207
0.000442527
-0.000101465
0.000444606
-1.84015e-05
-2.54822e-06
0.0210654
-0.00240493
-0.00248821
1.13013e-05
0.0248531
0.0177537
0.00138481
-0.00357114
0.0464715
-0.0508419
-0.00378357
0.0173545
-0.0407792
0.000974454
0.000349984
0.00108287
-0.0292048
-0.000988948
-0.168433
0.00228924
-0.0192494
-0.00950584
-0.000515557
0.0128869
0.045409
-0.00010161
0.000183595
-1.49163e-05
0.026327
-0.030147
-0.00383804
6.51661e-05
0.00125071
0.000943789
0.00224152
0.00124966
-4.45068e-05
-0.00494855
0.00353082
-0.00390162
0.000953739
-0.0038566
0.00107306
0.00127338
-6.91195e-05
-0.0130642
-0.000359894
-0.0299599
0.000988392
-0.0068617
-0.0360905
7.94764e-05
-0.000317337
-0.000161147
-0.000170145
0.00122205
0.000148111
0.000184337
0.000159858
0.00318553
0.000874402
0.000533096
0.00126687
0.00103223
-8.37504e-05
-0.00548022
-0.00305358
-0.0509187
0.0191423
-0.00393694
0.00800059
0.0269449
0.00124861
-0.0244663
0.00139878
-3.60387e-05
-0.00238143
0.00162683
-0.00339889
-0.0108417
-0.00864229
-0.00650878
0.00124641
-0.000493278
4.33439e-05
-0.00398296
-0.000464996
0.00129135
-0.00607664
-0.00381693
-0.0009691
0.000632135
-0.00291211
0.000199194
-0.00227255
0.00166218
0.000376736
-0.000235019
0.000222286
0.000216566
0.000931702
-0.000214831
-0.000190389
-0.00531311
-0.185032
-0.000167974
-0.178713
-0.0925418
-0.000126312
-5.46001e-06
8.07371e-05
0.00158837
-0.000215641
0.000446122
0.000872193
0.000703997
0.000415203
-0.227563
0.000128997
-0.0161616
-0.0057223
0.00513916
0.000400008
0.00114376
0.00106897
-0.029253
0.000238216
-0.0325569
-0.00407322
-0.256481
-0.00396934
3.57857e-05
-0.000265665
0.00208456
0.0103202
-0.00930809
-0.000192762
0.00164205
-0.0152529
0.000144218
0.0197576
-0.000196775
-0.00195624
0.000364039
-0.00451373
-0.00187414
-0.00379671
-0.00590964
-0.0189953
0.000996954
-0.0262926
0.00111161
-0.101226
0.000189484
-0.00576278
-0.145092
-0.0573317
-0.000627028
-0.00390029
0.000101817
-0.0217266
3.07008e-05
0.00306624
-0.00303425
0.00882212
-0.000378958
-0.00728977
-0.00366735
-0.0429101
0.000162338
0.00119957
-0.00667365
0.000152956
-0.0775651
0.0332332
-0.00296731
-0.00378809
-0.00184492
-0.00657147
-0.195371
0.00153972
-4.99374e-05
0.0329337
0.0121208
-3.42643e-05
6.62518e-05
-0.00968006
0.000217499
-0.000386965
-0.0641331
-0.00272668
0.00092095
-0.0278606
0.00119184
0.00273941
9.53489e-05
0.00095736
0.00417683
0.000815892
-0.00022747
0.000833493
0.00158874
-0.000273006
0.000239772
-0.000875184
-0.000835948
0.0188565
-0.00472859
0.000831701
0.00135207
0.000939938
-7.30626e-05
0.00193528
7.09666e-05
-0.00544381
0.000850962
0.0204035
0.000330167
0.00589647
5.26073e-05
0.000109096
0.00996878
-0.135154
0.000941044
2.4673e-05
0.000278215
0.00385508
-0.0032669
0.000849422
0.000885103
-0.000589235
-0.0116524
-0.00159279
-0.0070809
0.00153266
5.66395e-05
0.000495362
0.000383406
-0.011335
-0.00288081
-0.000742066
0.00425311
0.00063378
-0.00374418
-0.0028828
0.00663362
0.00112698
0.00062423
0.00018585
0.00121575
-0.00193846
0.00514366
-0.0013688
-0.119742
-9.70945e-05
-0.0072283
0.0149923
0.000372174
0.000687326
-5.67646e-05
0.00408451
0.0028351
0.00147397
-0.00639539
-0.00165269
-5.30384e-06
0.00336327
-0.0001289
-0.00174093
0.00118441
-0.0056482
0.0011555
0.00411726
-0.00315349
0.000978273
0.000253265
-0.155678
0.000386976
-7.06145e-06
0.0162273
-0.00123284
-0.0554572
0.0298695
0.000356561
-0.0132168
0.0303375
0.00117185
0.00267187
0.0174941
0.000807144
0.000117875
-0.00561922
0.000136298
0.000731377
0.0116354
-0.000127673
0.000930609
-0.0908319
0.00121781
0.000351178
1.00303e-05
0.000191873
0.000838557
-0.00676907
-0.00266849
-0.00252068
-0.000351281
0.00120774
-0.0134309
-0.00372957
-0.00158329
3.98859e-05
0.00989797
0.0400553
0.0200149
0.0112731
-2.68097e-05
0.00134964
-0.112006
0.000242623
-0.00663287
0.00116971
0.00022377
0.0103757
0.002438
-0.182476
-0.0026268
0.00146749
-0.0302375
0.00190807
7.10987e-05
0.00760948
-0.0037632
0.000920333
0.00156004
-0.00413572
-0.0069123
-0.00132826
-0.000554392
0.000211009
0.000371647
0.000372375
-0.00407169
0.00133084
-0.0161918
-0.00469416
-0.22799
-0.0442877
-0.137155
0.010368
0.000264816
0.000240892
-0.00568286
0.0149634
-0.0405931
4.89882e-05
-0.00867346
-0.067903
0.000302904
-0.0438771
0.000956812
0.00151581
0.000296757
0.0123489
-7.30982e-05
-0.00281514
-0.0136668
3.06859e-05
-0.0250018
0.00194498
-0.0023077
0.00196938
0.00117127
0.000864389
0.00013095
-0.0849129
-0.00157175
-0.00164001
0.0186866
-0.00450921
0.00205388
-0.00157036
0.000390394
0.00353112
0.00050934
-0.00140315
0.000308274
-0.00743988
0.00023296
-0.00792442
0.00117076
0.00150007
2.43773e-05
0.00116549
0.000608155
-0.0044126
-0.019025
0.00110184
0.0398438
0.000369141
0.00111826
-0.000842471
-0.0545793
0.00508831
0.0396844
-0.000141381
0.00155266
-0.00174381
-0.00218722
0.00443843
0.010966
-0.000536404
-0.00401527
-0.00165388
0.00181413
0.00372773
-0.00232409
0.00127432
-0.00209107
0.000113899
0.000169418
-0.0731809
-0.00150005
-0.00262604
5.81251e-05
0.00353585
2.63836e-05
1.986e-05
-5.87007e-05
0.0012474
-0.001458
0.00117537
0.00179089
0.000357457
-0.000983642
0.0021388
-6.44037e-05
0.000557194
-0.00171704
0.0130038
0.00233522
-0.00305525
-0.0417012
-0.000348293
6.8183e-05
0.000117256
-0.000184838
0.00213805
-0.00131448
-0.000139376
-0.00122815
0.00111489
0.00101337
0.000859885
-0.000232541
0.0230939
0.000228172
-0.0202808
0.00888182
-0.000259535
0.00102099
0.00123006
-0.000753108
0.00152954
-0.0689592
0.000368503
0.000923658
0.0145769
-0.00186376
0.00334892
0.00951671
0.00425035
-0.000264027
-0.24226
0.00215262
0.000678135
0.00125974
-0.00338784
0.00099516
0.000640337
-0.00150901
0.000964539
0.00442781
-0.00284181
0.00791145
0.00126798
0.00121132
0.00106185
-0.00377194
5.47537e-05
-0.00149489
0.00214356
0.021842
0.000285421
0.00142441
0.0150309
-1.5151e-05
-6.28056e-06
-0.00276101
2.81873e-05
0.0144572
-0.00974411
-0.00315651
0.0307604
4.98928e-05
-0.0479741
0.00284648
0.0046763
8.11661e-05
0.000918063
0.000603375
-0.000470123
0.00138099
-0.0367332
0.00137616
-0.102114
0.00485763
-0.0671373
0.011705
0.000762326
-0.00317999
0.00140289
-0.00269058
-0.00278785
0.0032452
0.000351087
0.000645191
0.000397851
-0.0103367
0.00101941
0.0320742
0.000361913
0.000206825
-0.00702635
-0.00169256
-0.000530188
0.000131531
-0.00161874
-0.000125225
-0.000116349
-0.306157
-5.57245e-05
-0.00695626
-0.0515442
-5.72599e-05
0.000427895
0.00367673
-0.00822341
-0.0021313
-0.000418841
0.00193824
0.00251147
-0.0109113
-0.00203692
0.000593612
0.00127782
-0.00031819
0.000856496
-0.00015409
0.000416437
-0.00524361
-0.000654604
-0.119318
-0.00607403
0.000600704
-0.00170313
0.000855239
0.00128356
0.00122185
0.000859241
-0.000946458
1.18531e-05
0.00110465
-0.00103412
-0.00109462
0.00102101
0.000199699
-0.0098158
0.00013853
-0.00447221
0.000990282
-0.0110309
-0.00179111
0.000602258
0.000678088
-0.00181653
0.000665746
0.000390496
0.000179301
0.000419841
0.000898335
-0.000707686
0.000370215
0.0118181
0.000121816
0.000507584
-0.00257756
0.00254894
-0.000187804
0.000316683
0.00995426
2.50662e-05
0.00138019
0.0337045
0.00169084
0.000298913
0.000146847
0.0155402
0.000856232
0.00560638
-0.11321
0.00485797
0.00105603
0.00131197
-0.00263546
-0.000559639
-2.67629e-06
0.000320831
0.000427429
0.000520799
0.0163926
-0.00190579
-0.000638071
-0.0026998
-0.00246421
-0.0623879
-0.00114931
-0.00028682
-0.00181091
0.0247497
0.000656808
0.00129239
-0.000393025
0.0335415
-0.0685244
0.00104328
-0.0017966
-0.011172
0.000853805
0.00208122
0.00793194
-0.0101109
0.000144401
0.000531728
3.87085e-05
0.0025379
0.00019107
0.0113245
-0.00183899
0.00103317
0.00246244
-0.00501945
-0.000155044
-0.000997831
0.00039406
0.00120593
0.00034777
-0.0717543
0.000320243
-0.00624513
-0.0125896
-0.0127831
0.0151569
-0.00396784
0.0380706
-0.0409795
-0.00332655
-0.00213745
0.00277334
0.0080198
0.000336366
3.94945e-05
-0.00500439
0.000452761
-0.0770839
0.000485011
-0.00291131
0.000446259
-0.00428515
-0.004656
0.00102583
-0.221068
-0.00154212
-0.00735574
0.00781261
-0.0519452
-0.0487325
0.000362184
0.000421307
0.000335319
0.00674768
-0.0809998
-0.000980817
0.00203152
0.000512202
0.000337147
0.000235892
0.00130879
-3.99985e-06
0.00204554
0.000578473
9.40899e-05
0.000932562
0.00132125
0.0201442
0.000768008
0.000658929
0.00032377
0.0043371
-0.00105965
0.00379524
0.0173859
-0.00651832
0.00110704
-0.00297955
0.000879873
-0.00425277
-0.00418376
-0.00702567
0.0016559
-0.00128698
0.00171001
-0.00194512
0.000311222
-0.04029
0.000918756
-0.00239575
-0.00674658
-0.000500223
0.000974865
0.00140392
0.000360864
0.000332537
0.000440153
-0.00537721
-0.00549325
-9.96066e-05
0.013185
0.000128994
0.000662804
0.00182847
-0.0026534
-0.000439294
0.00979451
0.000843359
-0.0118167
0.000905971
0.000190618
4.51875e-05
0.000284113
-0.041368
-0.000899721
0.00037574
0.000546093
8.27182e-05
0.0003467
0.0244399
0.000235853
-0.0109926
0.000909794
0.000239843
-0.00572885
-0.000291554
-0.00645602
0.000284918
0.000578754
0.000178284
0.000637168
0.000175118
-0.0065018
-0.000529108
0.00047585
0.000372003
-0.013553
-0.00591181
-0.0048458
0.0175314
0.00595158
0.000533871
-0.00399524
-0.000742467
0.000406321
-0.00226139
-0.00256852
0.0243559
0.0408023
0.00033955
-0.00629097
0.00221352
0.000355042
-0.000304069
-5.53134e-05
-0.00264589
-0.00626948
-0.145595
-0.00141025
0.00121474
-0.00129492
0.0015828
-0.00922242
0.000180089
0.000374102
-0.00737308
0.000707085
0.00684708
0.00115191
0.0054562
0.000342038
0.000430063
0.000852149
-0.0609737
-0.012292
-0.00140215
0.000713102
0.000545337
0.00040722
0.00861735
0.000362408
5.59572e-05
-0.00809788
-0.00896844
0.00110739
-0.0107404
0.0413209
-0.00035904
0.000891269
-0.00914355
-0.000442814
-0.00877828
-0.000333066
0.000823402
-0.0014503
8.26182e-05
0.000125081
-0.138823
0.00103886
0.0107652
0.000387079
0.0025285
-0.000220069
-0.00980386
0.0013902
0.0012013
0.0165886
0.000438493
0.000416069
0.0342091
-0.000278309
0.00710661
0.00100719
0.000252588
-0.00281799
-0.0472999
0.000226174
3.16201e-05
2.51657e-05
0.00055861
0.00128806
-0.270436
0.0321534
0.000850713
0.0116826
-0.00860094
0.00138135
-0.000127884
0.00228251
-0.00262311
0.0429226
0.000290288
0.00077507
-0.0183724
0.0123191
-0.0253688
0.000265083
0.00249418
-0.0053686
-0.000991747
-0.00188796
-0.0117198
-0.255452
0.000576799
-0.00561251
-0.00379557
0.00122635
0.000277714
0.000602332
-0.000243816
0.000613741
0.000602623
0.0167242
1.23467e-05
-0.0144246
-0.000648165
-0.00160241
0.000883818
0.013591
-0.0109484
-0.000131186
-0.0122078
0.00042101
-0.0027893
-0.00726348
0.00134123
0.00022298
0.00421679
-0.00159277
-0.0127969
-0.00398076
0.000404183
0.00305841
-0.00266117
-0.00206286
-0.0015169
-0.0119282
0.0091281
0.000802057
-0.051234
-0.00366314
0.000423094
-0.00382645
0.000505578
0.00178218
-0.00527184
0.00538139
-0.00241164
0.000570909
0.000175009
-0.0427218
0.000155947
0.00118144
-0.00262008
-0.157211
0.000202199
3.52986e-06
0.000509192
0.000385697
-0.000526309
-0.000511119
-0.00813281
-0.0564024
-0.000217413
0.00221397
-0.00113136
-0.00630168
2.67589e-06
0.00120767
0.00493345
-0.00388662
0.00129997
-0.0115098
-0.00293677
0.000334864
-0.00227562
0.000725836
0.000421737
-0.00455077
0.00171827
0.00160702
-0.00958196
0.00207799
0.000649471
-0.00258428
0.0012299
4.56795e-05
-7.36063e-05
-0.00304322
0.00119536
0.000524886
0.00598007
0.00175998
0.000394499
-0.0136334
-0.00127849
0.02268
-0.00265972
-0.000252517
0.00687694
0.000212922
-0.0015671
0.00234427
0.000512424
-0.000528913
0.00130072
-4.68607e-05
-0.0467399
-8.59345e-05
-0.00184866
0.000585786
-0.00269583
-0.0759207
-0.0487742
-0.000132182
-0.00351043
0.000859722
-0.00599418
0.00888021
1.41397e-05
0.00140022
0.000582979
0.00152992
-0.00686593
-2.39877e-05
0.00015322
0.000372764
-0.00118235
0.00215677
0.000903646
0.000176057
-0.00417871
0.0011981
0.00127805
0.000475505
-0.0106247
-0.00332684
-0.00144392
0.0108119
0.000832173
0.000510472
1.05877e-05
-0.00360264
0.0238969
-0.00273137
0.00028188
0.00448934
0.0202919
2.25568e-05
0.000384491
0.0145802
0.000123431
-0.00224172
-0.000790447
-0.00434753
-0.000656213
0.00211912
0.00139168
0.00523371
-0.000638701
1.67731e-05
0.000285895
-0.00241431
0.00026638
0.000275359
0.0238026
0.000348121
0.00812928
0.00120041
0.000266947
-0.00263306
0.00205349
0.000290831
-0.00686119
-0.00199129
0.00111035
-0.00737001
0.000276736
-0.00480994
-0.00502271
0.00179805
-0.00570482
0.00139314
0.000215021
-0.00604461
-0.000905247
-0.00512377
0.000333558
5.77577e-05
0.0420998
-0.00239759
0.000292002
-0.00359193
0.000285623
0.0372406
0.000135863
0.00151305
-0.000677423
-9.35762e-05
0.00210463
0.000345603
-0.00622475
-0.0034679
0.000364116
0.000626088
-0.00212427
-0.00145744
-0.00154137
0.00032634
0.000931191
0.00314149
-0.00190061
-0.035887
0.00232431
0.00015924
0.000612036
-0.0056356
0.00194522
-0.0024218
0.000941385
0.000871415
-0.0010452
0.00255611
0.023708
0.000204787
0.000509415
-0.0757557
-0.00248557
-0.0619778
-0.0411071
0.000487556
-0.00371923
0.000283036
0.00119201
0.0214121
-0.00157891
-0.00433195
0.000275802
0.00234225
0.0290995
0.000286047
0.000473053
0.000232036
-0.00152428
0.00348779
-0.0101135
0.020807
-0.203719
0.000273575
-0.00190329
-0.0731322
0.000832779
-0.0120672
0.000813864
-0.00533842
0.00127513
0.000744996
0.00133294
-0.0142192
-0.0311176
-0.115167
-0.00576036
0.000295163
0.000706754
-0.15019
-0.00183429
0.000913555
0.000908691
0.000810749
-0.00520847
0.000255598
0.000506069
-0.000160788
0.000836421
0.0010402
-2.99373e-05
0.000950559
-0.0185463
0.000379573
0.0256864
0.00115882
-0.0163902
-0.0159119
-0.0013315
-0.000272784
-0.0489322
0.000295252
0.020315
0.023187
-0.0059052
0.000811286
-0.000210725
0.0238173
-0.00620765
0.0203326
0.00368639
0.00110878
0.00030079
1.24163e-05
-0.00741557
-0.010083
-0.00131969
0.00514854
-0.00138141
0.000130297
0.000790767
0.000263312
0.000241737
-0.00217983
0.000664987
-0.0121717
-0.000436897
-0.000893032
-0.00743025
0.000834711
-0.0121075
-0.00510404
0.00517886
0.00654565
-0.000992434
0.0230097
0.00124163
-3.16671e-05
-0.00151347
-9.88003e-05
0.000403588
0.0374946
-0.00537024
-0.00155162
0.00088092
0.000323012
-0.00092965
-0.000740958
-0.00960606
-0.000756734
-2.54978e-05
-0.00108117
0.00275466
0.00692142
0.0238717
0.00582305
-0.00483477
-0.00896399
0.00136703
-0.00830907
0.00197136
0.00741728
-0.162336
0.000479276
0.0207603
-0.00634221
-0.00098972
-0.0983355
-0.0134213
-0.0870188
-0.2073
0.000507393
0.0184798
0.00102527
0.00629858
0.00199849
0.0167548
0.00632936
0.000291135
-0.0636319
0.00086405
-0.00561236
-0.0128333
-0.00616288
0.0184481
-0.000650174
-0.00583894
-0.00343587
0.000783455
-0.0576503
0.00250819
-0.00178987
-0.00836708
-0.00601712
0.00198334
-0.000639997
0.0025801
-0.0113763
-0.00136757
0.000834925
0.00580464
0.000600521
-0.208356
0.00191335
-0.000772972
0.00309717
0.0274447
-0.011503
-0.000759617
0.00142629
-0.00836675
0.000411217
0.0018444
0.00208737
-0.000381216
0.000644122
0.00182983
-0.0400955
0.0245964
-0.000965826
0.000141756
0.000498505
0.0433959
0.00134504
-0.00706961
-0.000339596
0.0202089
0.000520284
0.000784773
-0.00273584
0.0126253
-0.257568
0.000870878
-0.00124888
-0.00905079
-0.00919879
-0.00458012
0.00210822
0.000295618
-0.00846256
0.00031203
-0.00413145
-0.246488
-0.283344
-0.00134326
0.0260439
-7.12836e-05
-4.90757e-05
0.00121557
-0.00808224
0.0184957
-0.00252684
0.00123795
-0.0366695
-0.0148291
-0.00950356
-0.00456825
-0.00482082
0.0175368
0.000766642
0.000415088
0.00454756
-0.00316006
-0.00131221
0.000125724
-0.0014208
0.000261768
-0.0324569
0.00011744
0.000362387
-0.00846756
0.00113363
-0.0100639
-0.0716648
-0.00289111
-0.00165861
-0.00456972
0.000322834
-0.00408488
0.00102577
0.0438228
0.035355
-0.00507692
-0.00152292
0.000391949
0.000442066
0.000905971
-0.00111592
-0.00538733
-0.0432258
-0.00212809
-0.0019239
-0.000579866
0.0200714
-0.00497077
-0.08219
-0.00514655
-0.0036015
2.71056e-05
-0.116595
-0.00313138
0.00158944
-0.137134
-0.000674715
-0.00476423
-0.00035538
-0.00348933
0.000959535
-0.00142124
-0.00435081
-0.0247023
-0.00570542
-0.0156569
0.0412083
-0.00247697
0.025325
-0.00117148
-0.00958798
0.000696558
0.00017985
-5.04164e-05
-0.00269824
0.000425287
0.0235419
0.000790353
-0.0217552
0.00549995
-0.00163778
-0.0375197
0.000147401
0.003178
-0.000186648
8.23429e-05
-0.0158225
-0.00242903
0.000511643
0.00297578
-0.00285069
0.0133757
-0.00162531
0.000533884
0.000464235
-0.164372
-0.00249805
-0.00804673
-0.0143544
-0.0036175
-0.00358329
-0.0368609
0.000311188
0.0062323
0.00103892
-0.0031649
-0.00277322
-0.00334661
-0.000948111
-0.00163311
0.00274623
0.00190791
0.00535419
-0.00904599
-0.0067077
8.77907e-05
0.00305508
0.00343455
0.000367724
-0.0114357
0.0128766
-0.00160177
0.0193226
-0.0053084
-0.00310174
-0.00250952
-0.000973104
0.00490509
-0.010419
-0.00179276
-0.0159748
0.000484298
0.00255343
-0.00508431
-0.00255361
-0.00251704
0.000236307
-0.00664263
0.00127386
-0.00242294
-0.00599859
-0.00205584
-0.003094
0.0209683
-0.00279952
-0.00329195
-0.00358457
0.00360738
0.0410287
-0.00364746
0.000813109
-0.00500849
0.00290027
-0.000260192
0.0397528
-0.00300712
-0.00417599
-0.0033875
9.61851e-05
0.00366303
-0.00363983
0.00528162
-0.00624942
-0.00156632
0.000151215
0.0006903
0.0250912
0.000158373
-0.00625906
-0.000341953
-0.00040188
0.000389978
-0.00791396
-0.00092154
0.000776636
-0.00195056
0.00513078
0.000801743
0.000769404
0.000280261
-0.000642793
0.00156439
-0.0391751
-0.00304863
-0.000454823
0.00145173
0.00147625
-0.00609507
-0.0114425
-0.00132619
-0.00654367
-0.00230291
0.000752459
0.000939043
0.0210671
0.000676696
0.00168176
-4.45395e-05
4.34041e-05
0.00225474
-0.000101238
0.000392966
0.00025967
0.00156754
0.000667409
-0.00643229
-0.00553902
-0.00321444
-0.00251522
0.00028923
-0.0018997
0.0263099
-0.00226605
-0.000792419
-0.000604674
-0.000145495
-0.00294677
-0.000606943
0.0058787
-0.00127883
-0.0020817
0.000469397
-0.00786731
-0.00493537
-0.0020162
0.0166008
0.00427929
0.00142077
-0.00199286
-0.00105621
-0.000422559
-0.00156769
0.0028036
0.000848003
0.000116129
-0.0017362
0.00233002
-0.0431329
0.000936726
-0.00119645
0.00576755
0.0233162
0.00428704
0.00731367
-0.00177481
-0.00141979
-0.00149011
0.00037351
-0.00571684
-0.00105049
0.000478995
-0.0328007
-0.00176065
0.00414575
-0.00344481
-0.00110554
-0.000407773
-0.00765352
-0.000103852
0.00249304
-0.00119892
-0.00503642
-0.00117471
0.000651179
0.000303006
0.000784219
0.00426995
0.0021558
-0.00301898
3.65014e-05
0.000261241
-0.00170661
-0.00585797
-0.0019503
0.0014514
-0.00870665
-0.00981753
-0.00595146
-0.0065948
-0.00158112
0.00131516
-0.00811046
-0.00210932
-0.00156733
-0.262831
0.000738498
-0.00259037
-0.00122628
0.0134423
-0.00137508
0.0187226
-0.0028589
-0.0273841
0.000444539
-5.00642e-05
0.00039173
-0.00120247
0.00248853
-0.00178398
-0.00789755
0.00817458
-0.00200106
-0.00189484
0.00131701
0.00941016
-0.00659295
0.000199554
-0.0139263
-0.00198724
-0.000798289
-0.000774634
-0.00541786
-0.00180038
-0.000876647
7.77016e-05
0.00184854
-0.000766249
0.00114449
0.00754513
0.000140183
-0.0493254
0.0140429
-0.00159408
0.00730401
-0.00058296
-0.00155238
-0.00160868
-0.00396369
0.000790963
-0.00171787
-0.000551264
-2.05854e-05
0.0443103
-0.00342238
8.70278e-05
-0.00684862
0.000765832
-0.00118605
-0.00113763
-0.00346558
0.000629991
-0.00186466
-0.000614139
-0.00246931
-0.00137194
-0.00163236
-0.0579972
0.00126902
-0.000991271
0.00209692
0.00503399
0.000208208
0.0018386
0.000284345
0.00110181
-0.0015049
0.000594114
-0.00538676
0.00351776
-0.000649239
0.000686275
-0.00603056
-0.000988952
-0.000102683
-0.0175614
0.000389093
-0.113732
-0.00407192
0.00534661
0.00274799
0.000760409
-0.121247
-0.00876338
0.000187411
-0.000258601
0.000371582
0.00299639
0.0234608
0.000573525
0.00829983
-0.00127293
-0.00149199
-0.0670021
0.00331278
0.000340801
0.00038482
0.00120645
0.00407637
-0.0009557
0.00036581
0.000402884
-0.00139389
-0.0015722
-0.000660603
-0.00147014
-0.00117407
0.00409434
0.000467732
0.000239402
-0.000774098
0.0150887
-0.000407105
-0.000131428
0.0254964
0.00328447
0.000309645
0.000439757
-4.7718e-05
-0.00114058
-0.00702722
-0.00238497
-0.0012908
0.0046613
0.00181374
-0.0114629
0.000283264
-0.00446822
0.00279415
0.0175364
-0.00166285
0.00376361
-0.000217762
-0.00239789
-0.00237827
0.000166475
-0.00351112
0.000395267
-0.00248556
0.00208844
-0.0548347
0.00105375
0.000299374
-0.000213101
0.00266858
0.0185709
-0.00396164
0.00648501
0.00335878
0.000416621
0.00270282
-0.00159828
-0.000690252
-0.000762025
-0.00017186
0.00383041
-0.000324638
0.00183614
0.00013938
-0.00113923
0.000623956
0.0142104
-0.000904555
0.000658149
0.000202159
0.0150211
0.0005583
-0.000721186
0.000117379
0.000911263
-0.0707719
-0.000420812
-0.00164083
-0.00523504
0.0320192
0.00212903
0.000269371
-0.00194186
5.23422e-05
0.00120278
-0.000843624
-0.000240727
0.0240887
0.000686121
0.000404351
0.000624456
0.000840256
0.001603
8.85009e-05
-0.00321507
-0.000398371
-0.000786361
-0.000120327
-0.000294727
-0.000392293
-0.00049043
0.000282681
0.00146836
-0.00159418
0.000653324
0.00152281
-0.00888745
0.00218677
-0.00027418
0.000439261
-0.000119845
-0.00172783
0.00248648
-0.000174129
-0.000588381
0.000713715
-0.00144273
-9.70272e-06
0.000859285
-0.000835052
-0.000994485
-0.0541815
0.000304819
-3.53832e-06
0.000466586
-0.00135626
0.00379923
0.000711424
-0.00312016
-0.00385972
0.00125818
0.00350622
0.000637475
-0.0127215
-3.09237e-05
0.000791208
-0.0010399
-0.0664057
0.0017363
0.000240421
0.00470105
-0.0273016
-0.0136748
0.00120768
-0.000432916
-0.0010897
0.000254837
0.0126579
0.000765445
0.000142839
0.00303809
0.0010123
0.000473686
0.00541894
0.000555648
-0.000515642
0.00055818
0.00247418
0.00220467
0.000354201
0.000252794
-0.00276763
0.000641764
0.000393238
-0.0412048
0.000593231
0.000170793
-0.0497326
-0.0627102
-0.00236749
0.000321712
-0.000525355
0.000208778
0.00105098
-0.00602606
-0.00263287
-0.00204307
0.000832032
0.000314553
0.00019839
0.000529022
0.000637401
0.00875894
-0.00108659
0.00051848
0.0314832
-0.000392427
0.00055353
0.00160926
0.000300788
-0.000416464
0.000716407
0.000786203
0.000261284
-0.00152424
0.00189344
0.000626668
0.000185005
0.000721884
0.000225384
0.000551013
0.000746087
0.00203582
0.000552385
0.00108833
0.000904995
0.000760695
-0.00563543
-0.00234617
0.0011234
0.0194224
0.00133524
8.04311e-06
0.00303192
-0.0291776
-0.0235308
-0.059829
0.00644976
0.000654139
4.02318e-05
0.0041233
-0.082071
0.000871166
-0.00673318
0.00527918
-0.00432036
-0.0055097
0.00335774
-0.000667917
0.00218206
-0.00135528
0.00486185
0.00303918
-0.0622147
-0.000305372
0.000866629
0.000820027
0.000584804
0.000885965
0.00211574
-0.0305676
-0.00216919
-0.00361298
0.0010666
-0.0519875
0.000731744
0.0006372
-0.00141185
0.000136362
0.000355382
0.00257876
-0.00731678
0.000470816
0.000811594
-0.000910494
0.00353653
0.00587295
-0.000314909
0.000657626
0.000677611
-0.000711413
0.000394193
-0.000798099
-0.242958
0.000226454
0.0157215
-0.000656219
0.00101993
0.000144673
-0.00044749
-0.0133834
0.0035187
0.000678741
0.00123852
-0.00152048
-0.0335615
0.00296071
0.00612976
0.000269603
-0.000693572
-0.000195402
0.000213839
0.000557357
-5.27405e-05
7.66081e-05
-0.00135998
-0.000679256
0.0431224
0.000377583
0.00256205
0.00718425
0.000181901
0.00227497
-0.00405324
-0.00071204
-0.000470028
-0.00117283
0.00124485
0.000955012
-0.00208168
0.000262005
0.00105576
0.00382256
-5.97017e-05
-0.00168917
0.000186695
0.00227906
-0.00300939
-0.00278868
0.00705769
0.000812458
0.000761167
0.0006126
-0.00229773
-0.00130465
8.53877e-05
-0.000122975
0.000386182
0.00410807
-0.00209409
0.000424238
0.00206887
0.000243233
-0.000588049
0.00138443
-0.000934071
-0.0820391
0.000162792
0.00198382
-0.00190796
-0.00023972
0.000680082
-0.000244562
-0.000576729
-0.000319245
0.000168221
-0.00113459
0.00123056
0.000193351
0.000522146
-0.000899414
0.00156286
0.00586632
8.2659e-05
0.000947273
-0.00467855
-0.000151878
0.00041915
-0.00261476
-0.0788784
0.000125641
0.000690371
0.00093915
0.000839976
0.000428818
-0.00241211
0.000500628
-0.00438202
0.00229249
-0.0096985
0.000324417
-0.00275075
0.0002038
0.00328842
-0.00125399
0.000685615
0.000807874
-0.000853019
0.000199726
-0.00238446
0.000557793
0.000176554
0.000607602
0.000205474
0.00011261
-9.79416e-06
-0.000297
-0.0319336
9.01622e-05
0.00883255
-0.0016334
0.0146914
-0.00801175
0.000237063
-0.00255831
-0.0120617
0.00245171
-0.00085704
-0.0144899
-0.0010868
0.000191255
0.000579185
-0.00224981
0.000699361
0.00126664
0.00439748
0.000195751
-0.00760458
-0.00114382
0.00511598
-0.0232155
-0.00304012
0.000761255
0.00496034
-0.00449284
0.000798806
-0.000826447
9.7654e-05
0.000668127
0.000736391
-0.00126797
0.000750659
0.00021614
0.00195532
3.44576e-05
-0.00795508
-0.00330941
-0.00107315
0.00103308
0.00338228
0.000761593
0.000731523
-0.111182
-0.0297406
0.00221757
0.00145936
-4.26912e-07
0.00297205
-0.020393
0.00176066
0.0234885
-0.00142231
-0.00143097
-0.000145726
-0.00148849
-0.000269979
-0.00161682
0.0010229
0.000343023
0.00232016
-2.64089e-05
0.000655168
9.0763e-05
-0.000394289
0.000733743
0.00130092
0.00144003
0.0034305
-0.00953591
0.00133586
0.0403311
-0.0309368
0.000830405
0.000544786
-0.00105619
0.0149283
0.000179026
0.00153413
0.000597442
0.000838767
-0.000435321
0.0163065
0.000334502
0.00136731
-0.00169868
0.000971539
0.000744552
0.000174922
0.00154591
0.000953631
0.000772796
0.00487366
-0.000231902
-0.000650433
-1.15361e-05
-0.000573371
0.000624403
-0.00129477
0.000459142
0.0246027
9.29136e-05
0.00073758
0.00134912
0.000546114
0.02922
0.000458468
0.000531084
-0.00151843
-0.00207742
0.00229723
0.000227077
-0.060971
0.000482735
0.000377249
-0.00760516
-0.001248
0.00115274
0.000910612
-0.00385915
-0.00660665
0.000678832
0.0019987
-0.000642361
0.000932018
0.00449301
0.00177608
-0.136437
-0.000849804
0.000813714
0.000859566
-0.00244563
-4.87937e-05
0.00298056
-0.00539012
0.00221338
0.000759261
0.000939034
0.00068478
0.00293044
0.00182342
0.000817865
0.00067691
0.00137845
0.00208678
0.000921918
0.000571904
0.00241729
0.000778104
0.000390113
0.000203802
0.00113834
0.00241622
-0.203776
0.000718443
0.000612181
0.000861518
-0.00354684
-0.000735973
-0.0112605
0.0230942
0.00257077
-0.135442
0.00314464
0.00450068
-0.00153026
0.00481239
-0.00542102
0.000701268
-0.0108498
0.00149146
0.000515789
0.000800636
0.00198358
0.00070973
0.000560641
-0.00210807
0.000206377
0.00101386
0.00178549
0.00127858
0.000238091
-3.66947e-06
0.0196128
-0.00238
0.00236407
-0.0105962
0.000891947
0.00537484
0.000148657
0.000435315
0.00287972
-0.0487483
-0.00421531
-0.000580307
0.00649087
0.00152959
-0.00489884
0.000768494
-9.223e-05
-0.00017372
6.26379e-05
-0.00278232
0.000770918
0.0251067
0.000246174
0.00135465
0.000833543
-0.00120751
-0.00188091
0.000212771
0.00203713
0.00121933
1.55315e-05
0.000511856
-0.00274136
0.000189862
0.0026632
-0.00030455
-0.00434086
0.000975907
0.00226544
0.0003706
0.0014347
-0.00536714
0.00077741
0.00260475
0.000531696
0.00126398
-0.00233021
-0.0261126
0.00111087
0.000613204
-0.00112739
0.00196005
-0.000920503
0.00119757
0.000342112
0.00211126
-0.0106508
0.000505522
0.000223979
-0.0468436
0.00302731
-0.0013205
-0.00741774
0.000966931
-0.000315171
-0.00718022
0.0224316
0.000843951
0.000745134
0.0040997
0.000794274
-0.000187854
0.000249515
0.0019048
-0.00292578
-0.00360823
0.00116667
0.000737386
0.000808933
-0.00298993
7.805e-06
-0.00125826
0.000336463
-0.00513535
0.000162661
-0.00482555
0.00134773
0.00137702
0.00102827
0.000600648
0.00184909
0.000144692
0.00146699
-0.000688749
0.00148332
0.000841536
-0.0313781
-0.00177823
0.0119198
-0.272232
0.00129186
-0.022785
0.000405152
0.000183226
0.000886145
0.000690159
0.000837216
0.000948573
0.000231127
0.0034196
0.000518438
0.000505248
-0.00306816
0.000844875
0.00141524
0.000795463
0.00430252
0.00109513
0.000768489
0.000821476
0.000449218
0.000326047
0.000242968
0.00833355
0.000443491
0.00693753
-0.216636
0.00140674
-0.00350752
0.00251505
0.000844416
-0.00139093
-8.97533e-05
0.000782556
0.000664675
0.0022557
-0.00949161
-0.000239769
0.000744413
-0.00125531
-0.00805917
0.00173891
-0.000815189
0.000753418
-0.00383139
0.000690261
0.00484615
0.00105194
-0.00174882
0.000565853
0.00094407
0.000922944
0.000773688
0.000559888
0.000764704
0.00123569
0.000458082
0.00192701
0.00115064
-0.0111328
-0.00944035
0.000759518
0.00078008
0.0439966
0.00152892
0.00124645
0.000726236
0.00132851
0.000689805
0.0002456
-0.00155133
-0.00246327
-0.000361963
-0.00102705
-0.0135433
0.000488421
0.000713692
-0.0785267
-0.00140203
-0.0591933
-0.00250694
0.00168996
-0.0141219
0.00079481
0.000145475
-0.00119939
0.000476603
0.0256982
-0.0529247
-0.00137332
0.000394258
0.00239859
0.00124749
0.00090707
0.000511946
0.000786406
-0.000225363
-0.00027992
0.000661329
-0.00143051
0.00252599
0.000199435
0.00082305
0.00068668
0.00119341
-0.000180341
0.00196618
-0.00062107
0.00973833
5.65066e-05
-0.0128913
0.00352604
0.000889461
-0.027133
0.000116517
-0.00146523
0.000215256
0.00236081
0.00156612
0.00026734
-0.0741369