/*--------------------------------*- C++ -*----------------------------------*\
| =========                 |                                                 |
| \\      /  F ield         | OpenFOAM: The Open Source CFD Toolbox           |
|  \\    /   O peration     | Version:  v2012                                 |
|   \\  /    A nd           | Website:  www.openfoam.com                      |
|    \\/     M anipulation  |                                                 |
\*---------------------------------------------------------------------------*/
FoamFile
{
    version     2.0;
    format      ascii;
    class       surfaceScalarField;
    location    "300";
    object      phi;
}
// * * * * * * * * * * * * * * * * * * * * * * * * * * * * * * * * * * * * * //

dimensions      [0 3 -1 0 0 0 0];
oriented        oriented;


internalField   nonuniform List<scalar> 
14516
(
0.364081
-0.301236
-0.0626025
-0.796984
0.458968
0.338036
0.292222
0.0721236
0.430239
0.0138967
-0.443745
0.147842
0.0256696
-0.173371
0.286962
-0.527458
0.240739
0.386792
-0.644555
0.258587
0.159959
0.401037
-0.560951
0.36989
-0.377723
0.00785536
0.214032
-0.0660361
0.234941
0.00578563
-0.240625
0.229478
-0.342984
0.113559
-0.167095
0.597683
0.622124
-0.375522
-0.246613
0.615049
-0.613828
-0.404673
0.663102
-0.258408
0.142956
-0.529102
0.386067
0.556097
-0.412956
0.169602
-0.390114
0.220631
0.21744
0.40804
-0.183581
-0.224417
0.409369
-0.193011
-0.216515
0.377991
-0.603029
0.225066
-0.303332
-0.301486
0.315852
-0.547616
0.231985
0.456938
-0.623791
0.408127
-0.668705
0.260619
0.673782
-0.439013
-0.234806
0.0705706
-0.222231
0.151811
-0.0492009
0.419024
0.349169
0.0039521
-0.3529
0.67384
-0.295781
-0.317715
0.629957
-0.31205
-0.595951
0.603538
-0.00749653
-0.251405
0.0704426
0.181056
0.127763
-0.394823
0.267172
0.568011
-0.180638
0.250447
0.158762
0.202967
0.340614
-0.543156
0.687587
-0.360715
-0.326938
-0.0678113
0.417179
0.083421
0.532815
-0.56176
0.0383576
0.52364
0.675086
-0.368739
-0.30564
0.0328949
-0.594461
0.495536
-0.180772
-0.688632
0.378834
0.309807
0.474261
-0.289616
-0.184742
-0.40476
0.419076
0.250299
-0.179756
0.272454
-0.151956
-0.120453
-0.223981
0.463185
-0.239117
-0.191443
-0.20151
0.393176
0.322615
-0.125224
-0.197367
-0.224707
-0.101583
0.326455
0.320708
0.184303
0.101213
-0.220301
0.119129
0.0895344
-0.36326
0.273935
-0.285961
0.488966
-0.670567
0.444416
0.22627
-0.274701
0.469924
-0.195184
0.367772
0.0705512
-0.438297
-0.575301
0.0990927
0.477191
-0.203991
0.143081
-0.6053
0.297103
0.308224
-0.16219
0.530058
-0.276328
-0.179782
0.456079
0.366929
-0.137389
0.287934
-0.0529385
0.18828
0.134358
-0.494913
0.604287
-0.109373
0.276831
-0.532392
0.255337
0.257398
0.333038
-0.590447
0.365696
-0.115278
0.405267
-0.315538
-0.578075
0.307702
0.270598
-0.509495
0.602472
-0.0929722
0.240533
-0.59194
0.351321
0.227803
-0.573215
0.345434
-0.308805
-0.296457
0.261672
-0.602723
0.341134
-0.476634
0.561096
-0.0844474
-0.810568
0.416198
0.3944
0.360869
-0.428556
-0.722187
0.408532
0.313692
-0.355835
0.583576
-0.530066
0.304083
0.226129
-0.160763
-0.34431
0.50527
-0.295487
0.615964
-0.320308
-0.331041
-0.465924
-0.226287
0.206483
0.0198432
-0.192449
-0.349542
0.54206
0.445641
0.228254
-0.435428
-0.367716
-0.442823
0.107249
-0.331891
0.149758
-0.626365
-0.536586
0.344246
0.730911
-0.290615
-0.440223
0.407697
0.323299
-0.298107
0.613259
-0.315001
-0.197138
0.537028
-0.339706
0.342842
-0.5398
0.136825
-0.646291
-0.0847967
0.445704
0.0115148
-0.355784
0.434801
-0.64273
0.208171
0.256975
-0.480731
-0.641149
0.463863
0.177259
-0.538984
0.0440746
-0.388593
0.194611
0.193936
0.22657
0.228693
-0.339714
0.0309097
0.309045
0.13245
0.140048
-0.257113
-0.572083
0.271519
0.300746
0.209219
0.156601
0.576692
-0.314929
-0.228658
0.674432
-0.514135
-0.127041
0.0425649
0.440643
-0.483213
0.277625
0.236247
-0.513313
0.436398
-0.149279
-0.450507
0.243493
0.207103
0.224447
0.183634
0.0912469
-0.22708
0.135926
-0.391024
-0.331125
0.573093
-0.332603
0.106477
-0.429534
0.323239
-0.702015
0.48394
0.218086
-0.222226
0.394406
-0.287864
0.597376
-0.412888
-0.184467
0.338508
-0.387604
-0.521869
0.250191
0.271851
-0.00369024
-0.570791
0.439331
0.23644
0.519473
-0.291622
0.390614
0.229948
-0.620524
0.483665
-0.205636
0.284442
-0.507327
0.223052
0.681102
-0.298153
-0.382406
-0.707603
0.291517
0.416062
0.284111
-0.659654
-0.61411
0.360866
0.25326
-0.645561
0.316066
0.329516
-0.391428
-0.316198
-0.172037
0.521956
-0.349775
-0.241974
0.0157189
-0.0367639
0.218091
-0.181186
-0.352717
-0.349285
0.184121
-0.220713
0.178402
0.0357955
-0.50892
0.337034
-0.374112
0.416674
0.680861
-0.323747
-0.357039
0.501262
-0.216663
-0.760931
0.369553
0.290776
0.390777
-0.343798
0.503652
0.309806
0.363942
-0.618905
0.404669
0.214235
-0.378202
0.0668195
0.311429
0.223157
-0.593729
0.370598
0.296594
-0.479975
-0.280089
-0.175865
-0.15021
0.326131
-0.230167
0.638319
-0.606585
0.297346
0.30928
0.113328
-0.473896
0.361067
-0.648759
0.279469
0.369366
-0.389924
0.613127
-0.461585
-0.187022
-0.483306
0.262548
0.220794
-0.208563
-0.217618
0.214342
0.361349
-0.575675
0.580781
-0.250032
-0.330564
-0.0637328
0.237451
-0.173714
0.105428
0.115391
-0.22079
-0.15337
-0.153949
0.307306
-0.353187
-0.191322
0.150956
-0.371314
0.220547
-0.260467
0.537292
0.238313
-0.137035
0.353347
0.227615
-0.499324
0.273131
0.22673
-0.388525
-0.230381
-0.21087
-0.272388
-0.423237
0.481849
-0.0584113
0.27643
0.197725
-0.180489
-0.208143
-0.438597
-0.251954
0.188188
-0.0501777
-0.280871
0.331157
0.554725
-0.317647
-0.236968
-0.0622282
0.240811
0.539044
-0.148385
-0.0145012
0.353105
-0.354322
0.545328
-0.190916
-0.325088
0.223735
0.211503
0.262619
-0.473901
0.464238
-0.213836
-0.472617
0.609454
0.424377
-0.648274
0.332459
0.315786
0.350156
-0.435008
-0.238433
0.363179
-0.124939
0.329167
-0.135037
-0.194025
0.511409
-0.235133
-0.492782
0.203145
0.210701
-0.402184
0.249938
-0.300033
0.436434
0.244503
0.580547
-0.344689
-0.235897
0.371345
-0.220248
0.0694524
-0.54206
0.305585
0.130958
-0.436445
-0.321156
0.20495
0.116554
0.513884
-0.318236
-0.195429
-0.187874
-0.586439
0.16339
0.723797
-0.30757
-0.28745
-0.296558
-0.230646
0.219718
0.324998
-0.54462
-0.160598
-0.160253
-0.25019
0.112341
0.137875
-0.67447
0.371137
-0.617808
0.316333
-0.307633
0.154166
0.610892
-0.160169
-0.450653
0.105197
-0.22863
0.123481
-0.133729
0.439356
-0.272744
-0.233199
0.506826
-0.217781
-0.318115
0.536388
0.32502
-0.217703
-0.646536
0.396989
0.249753
-0.0922373
0.442278
-0.629717
0.319624
0.310086
-0.552564
0.31431
0.238734
0.246937
-0.564606
-0.300579
0.540954
-0.240113
0.190441
0.331657
0.641008
-0.23999
0.273129
0.228331
-0.346028
-0.148661
-0.447226
0.416843
-0.238051
-0.178664
0.118121
-0.284443
0.166358
0.286129
-0.153639
-0.236769
0.113869
0.122943
-0.293854
-0.218131
0.512596
-0.436349
0.221083
0.215159
0.230004
0.269173
-0.498799
0.279709
-0.161563
0.524626
-0.317704
-0.206645
-0.673649
0.331238
0.342358
-0.519469
0.452784
0.0666408
-0.518159
0.131977
0.154187
0.428124
0.178124
-0.60622
-0.3379
0.162115
-0.477976
-0.0354192
0.513391
-0.694185
0.216195
0.153873
0.175392
0.296655
0.248757
-0.372501
0.490313
-0.117406
-0.254312
-0.419377
0.603461
-0.381033
-0.22234
0.133373
-0.335012
0.201757
0.506629
-0.286328
-0.220164
0.629248
-0.557801
-0.0714575
0.579862
0.0493785
-0.218036
-0.413928
0.233384
0.621439
-0.354596
-0.266611
-0.145476
0.494794
-0.221436
-0.592422
0.193343
0.399066
0.55648
0.0102953
-0.566355
0.246649
0.440897
0.34088
0.173164
0.226844
0.190146
-0.00886401
-0.237431
0.246332
-0.674229
0.431693
0.24325
0.241272
0.223171
0.247761
-0.350006
-0.221924
-0.469963
0.22433
0.246147
0.199864
0.274725
0.343686
-0.618383
0.357207
0.240201
-0.387286
0.195231
0.192074
0.222713
-0.231569
0.332498
0.244736
-0.577126
0.427963
-0.193899
-0.233805
-0.289074
0.544456
-0.301634
-0.242922
0.269854
-0.471555
0.201554
-0.104148
0.539176
0.380237
-0.627274
0.247648
0.615756
-0.495965
-0.119838
0.31642
-0.182947
0.364582
-0.31035
-0.0542122
-0.269817
-0.225938
0.49596
0.400398
0.143993
0.636856
-0.360456
-0.276202
0.48904
0.126672
0.349816
0.0147795
0.225747
-0.408924
0.183262
0.17175
0.205454
-0.377116
0.251881
-0.54716
0.332803
-0.287301
-0.236753
0.524253
0.153867
0.183973
-0.337768
0.0611515
-0.299722
-0.28766
-0.247686
0.535474
-0.336308
-0.109684
-0.255949
0.3657
0.616656
-0.283621
0.643059
-0.573606
0.198758
-0.0932906
-0.385782
0.190914
0.19484
-0.0755325
-0.287523
0.347735
-0.138316
-0.383264
-0.195777
0.579076
0.161366
0.176124
0.187379
0.264623
-0.562682
0.349291
-0.441635
0.281532
-0.172231
-0.109227
-0.303605
-0.276395
0.579936
0.27093
0.252832
-0.391062
0.376947
0.600332
-0.573742
-0.0264816
0.0978194
-0.536834
-0.00317503
0.271002
-0.267633
0.530544
-0.177194
0.234249
-0.521653
0.188472
-0.372652
-0.273685
0.296074
0.367047
0.60764
0.274823
0.0949368
-0.369867
0.337383
-0.283956
0.218937
-0.418037
0.199206
-0.397815
0.0538629
0.344197
-0.182833
-0.235095
0.418058
0.240771
-0.0632308
0.426173
-0.363055
-0.411338
0.209996
-0.249961
-0.175477
0.425534
-0.403455
0.00233807
-0.193583
0.191406
0.271843
-0.0835112
0.120789
0.117576
0.186297
-0.18379
-0.17284
0.44759
-0.464386
-0.0991279
0.563683
0.504706
-0.254691
-0.372151
-0.298322
-0.427287
-0.0922111
-0.290187
0.542209
0.0746021
0.536358
0.501297
-0.231597
-0.107781
0.457
0.236086
-0.345709
-0.0226127
-0.375022
0.219425
-0.114157
-0.355632
-0.0390911
-0.505398
0.271435
0.234039
-0.29522
0.532646
-0.237442
0.280121
0.116115
-0.266688
0.150613
-0.27494
-0.249178
-0.187271
0.17085
-0.397499
0.226617
-0.367172
0.228007
0.527378
-0.194963
-0.377735
0.184853
0.19278
0.574764
-0.599054
0.02437
0.162781
-0.523552
-0.372592
-0.240357
-0.453015
0.203689
-0.398789
0.33563
0.393154
-0.054671
-0.338547
-0.283492
0.0477703
0.63867
-0.253956
-0.384674
0.248843
-0.10368
-0.14649
0.254216
0.327943
-0.582184
-0.689532
0.457438
0.232268
-0.0498403
-0.340939
-0.193097
-0.0354488
0.228584
0.303079
0.335629
-0.289942
-0.339782
0.351466
-0.151812
-0.199584
0.42115
-0.197734
-0.22335
0.383371
0.220178
0.0216587
-0.361162
0.165127
-0.482632
-0.202733
0.618948
-0.235487
0.178384
-0.328716
0.150481
0.394834
0.135659
0.25663
-0.14052
-0.18953
-0.317065
-0.0825819
-0.52041
-0.530484
0.246095
0.284503
-0.168328
-0.261451
-0.268913
-0.603932
0.313939
-0.360813
-0.352691
-0.261408
-0.199022
-0.232043
0.431167
0.37424
0.247368
0.341479
-0.169654
0.129663
0.18728
0.214887
-0.402264
0.247697
0.277196
-0.190587
-0.203468
0.608161
0.344496
-0.107002
0.546054
-0.0325729
-0.512835
0.0632143
0.278347
-0.394858
0.637129
-0.242252
-0.60533
0.229544
0.375845
0.644976
-0.400761
-0.204554
-0.355003
-0.251552
-0.527633
0.268936
0.25862
0.47251
-0.201341
0.562074
0.555413
0.0188441
-0.573445
0.35043
0.0426478
0.263683
0.141779
0.317573
0.237267
0.126741
0.145161
-0.618678
-0.265498
0.378952
-0.186929
0.285631
0.135573
0.272671
-0.268585
-0.17988
0.265099
-0.08519
0.252367
0.258892
0.1667
0.0226483
-0.367167
0.345326
0.427786
-0.0805704
-0.347138
0.176352
0.168193
0.32304
-0.144471
0.608743
-0.313918
-0.204342
0.518302
0.39909
0.237955
-0.25849
-0.25828
0.517073
0.088337
0.131154
-0.273685
0.510449
0.378311
0.237779
-0.219587
-0.279195
0.169798
0.367437
-0.110643
0.55521
-0.387176
0.108684
0.27882
0.098889
0.157715
0.198507
0.172977
-0.348174
0.518193
0.0578295
0.258717
0.62158
-0.260221
0.0879831
0.515651
0.642188
-0.31671
-0.325455
-0.224341
0.093866
0.333941
0.225497
-0.499938
0.241771
-0.630386
0.388615
0.241846
-0.404148
0.503912
-0.487412
0.233879
0.253714
-0.153334
-0.360826
-0.312962
-0.360601
-0.338686
0.362269
-0.234989
-0.236709
0.339684
-0.447308
-0.174443
0.409249
-0.338566
-0.275347
0.497239
0.0775723
0.524569
-0.0964198
-0.18895
0.373644
-0.239518
0.306926
-0.243597
-0.0035885
-0.533637
0.537763
-0.294339
-0.285203
0.579759
0.206747
-0.524251
-0.243502
0.21724
-0.510591
-0.270505
0.265675
-0.133618
0.323214
-0.596282
0.273129
-0.107448
0.0184434
0.247869
-0.266266
0.61572
-0.322617
-0.293037
-0.252733
-0.216694
-0.324949
-0.26706
-0.166822
0.361395
0.225171
0.309467
-0.144916
-0.164532
-0.586723
-0.260391
-0.291708
-0.167536
0.279909
-0.223859
0.497485
0.0563531
0.174347
-0.230597
0.173825
0.327322
-0.181048
0.344266
0.271525
-0.201511
-0.119385
0.459282
0.352612
-0.559192
0.206687
0.237967
-0.480409
0.242511
0.115932
0.119196
-0.107794
0.401091
-0.293081
-0.212426
0.565197
-0.0692659
0.425347
-0.355688
-0.426198
0.318775
0.544133
-0.114712
0.252035
-0.233515
0.481737
-0.243528
0.481551
-0.284766
-0.213355
0.498346
-0.221456
-0.197105
0.418555
0.621103
-0.346356
-0.456003
0.386875
-0.194177
0.361965
-0.167714
-0.103922
0.224781
-0.5999
0.218966
0.268076
0.192867
-0.460863
-0.199242
0.00618857
-0.200759
-0.262249
0.462973
0.584747
-0.351615
-0.233075
-0.379003
0.129232
0.268409
-0.166377
-0.168613
0.188497
0.0836557
0.0976233
-0.412743
-0.179691
-0.293917
-0.350626
0.113214
-0.225209
0.392436
-0.167318
-0.555777
0.532128
-0.525589
-0.00352953
-0.327323
0.650451
-0.323104
-0.0560402
-0.408249
0.46513
-0.0556904
-0.586795
0.277936
0.199824
-0.219714
0.0199248
0.202619
-0.146189
0.217201
0.0922847
0.144388
0.178848
-0.18099
-0.431927
0.0985015
0.139607
-0.238056
-0.156042
0.424161
0.254031
-0.51919
0.265078
0.182711
0.212695
-0.395201
0.239756
-0.49116
0.251341
-0.630168
0.277934
0.352212
-0.329692
-0.211478
0.541168
0.471207
0.0855966
0.324197
-0.532086
0.0646027
-0.17635
0.111789
0.627421
-0.283551
-0.343861
0.37763
0.243014
-0.620615
-0.145791
-0.152638
0.298435
-0.362697
0.249342
0.113206
-0.153108
-0.181614
-0.350935
-0.270816
0.497479
-0.226535
0.256052
-0.456957
-0.214319
0.47019
-0.189862
-0.200147
0.0388607
0.276466
-0.315
0.209192
-0.523099
-0.074003
0.29065
-0.216591
-0.365521
-0.384012
-0.258512
0.279013
-0.221115
0.191367
0.16018
0.264486
0.197776
-0.427251
0.229627
-0.216239
-0.289084
-0.24481
-0.105765
0.0386487
0.232972
-0.104189
-0.258628
-0.36215
-0.203807
0.566271
0.251823
0.215131
-0.387947
0.0611065
0.218641
-0.19654
0.422356
0.33445
-0.239647
-0.170225
0.48889
-0.318642
-0.497348
0.275727
0.22173
0.247613
-0.446551
0.146606
0.124057
-0.270621
-0.376454
-0.267458
-0.484218
0.213627
-0.594386
0.226367
0.367957
-0.309084
0.562803
-0.253425
-0.563035
0.254352
0.280815
0.571704
-0.413812
-0.157839
-0.332879
-0.272365
-0.500429
0.224996
0.346803
-0.602162
0.333594
0.269152
0.229608
-0.420168
0.19048
-0.278136
0.614315
-0.336168
0.116067
0.20808
0.511579
0.00687506
-0.518227
-0.210218
0.41704
-0.187467
0.215202
-0.176676
0.238313
-0.139717
-0.154377
0.535141
0.293553
-0.521532
0.228085
-0.266608
-0.217392
0.222995
0.331251
-0.554017
-0.374533
0.628
-0.253463
0.4941
-0.17085
-0.626684
0.252167
-0.305443
0.539741
-0.264893
-0.23239
0.368028
0.259406
-0.2146
-0.103085
0.31781
-0.332035
-0.35734
-0.452469
0.536463
0.0293348
0.386405
-0.415435
0.478685
-0.238946
0.217903
-0.523546
0.306082
0.250356
0.368677
-0.101815
-0.13874
0.0360291
-0.448778
-0.197744
-0.198503
0.396421
0.17172
-0.107095
-0.301018
-0.246427
0.00312727
0.551525
-0.553863
0.211992
0.430221
-0.178434
-0.0418438
-0.274113
-0.320331
0.211996
-0.123586
-0.00413286
-0.490764
0.344368
-0.389566
0.554066
-0.164436
0.218417
-0.416018
-0.453328
0.390769
0.0628291
-0.353716
-0.199832
0.553567
-0.548156
0.272396
0.275896
0.219006
-0.613786
-0.341713
0.595928
-0.222284
0.144968
0.0445495
-0.189486
-0.490203
0.2256
-0.109622
-0.423718
-0.126415
-0.0778145
-0.318167
-0.283394
-0.584498
0.320859
0.263529
-0.415151
0.596693
-0.181531
0.13007
0.135683
-0.234102
0.527853
-0.0437969
-0.211969
0.255763
-0.179683
0.394908
-0.224777
0.398857
0.526925
0.0737465
-0.488886
-0.128489
-0.120945
0.249491
-0.526234
0.220904
-0.436713
0.110257
0.143492
0.122848
-0.266293
0.245852
0.286775
0.353377
0.231422
-0.350535
-0.197505
-0.357471
0.534262
-0.17682
0.607495
-0.254058
0.259233
0.258386
-0.517541
-0.579909
0.249967
0.329928
0.616253
-0.38067
-0.235551
-0.356808
-0.017898
0.37476
-0.522721
0.221095
-0.290069
0.508907
-0.612856
0.315834
0.297417
-0.547546
0.0148833
0.532889
-0.581572
0.252637
0.328875
-0.650265
0.366724
0.332718
0.278468
0.35868
0.228758
-0.503462
0.274702
-0.138996
0.300284
-0.349507
0.684544
-0.335007
-0.407428
0.185985
-0.233017
0.0531138
0.649808
-0.368867
-0.280862
0.405837
-0.198656
-0.133551
0.361538
-0.443494
0.0867957
0.212701
-0.112886
-0.099739
-0.371788
0.417764
-0.381737
0.516981
-0.250131
-0.266936
-0.255267
0.472474
-0.217059
-0.340563
0.115815
-0.570944
0.513298
0.0579106
-0.25937
0.549683
-0.290323
0.201869
0.32657
-0.528353
-0.169907
0.548728
0.224536
0.292359
0.400185
0.216085
0.287025
-0.077239
-0.48571
0.131519
0.150182
-0.296006
-0.283782
0.0903418
-0.362102
0.304375
0.0579849
-0.0721535
-0.289693
-0.619185
0.276528
0.342668
0.533496
-0.331522
-0.379955
-0.154829
0.343488
-0.473549
0.179639
0.0102137
-0.382942
0.372518
-0.59292
0.241388
0.607686
-0.285768
0.550209
-0.2638
-0.511947
-0.311184
-0.273409
-0.482501
0.235424
0.247097
-0.201214
-0.253035
0.454481
0.151898
0.448545
0.472504
-0.533066
0.0604686
-0.0261923
-0.363248
-0.0542301
-0.596497
0.256879
0.339623
0.548189
-0.325015
-0.624341
0.334318
0.290189
0.216999
0.261666
-0.279013
-0.358731
-0.238455
0.0163332
-0.261397
0.490195
-0.0440402
0.507866
0.314556
-0.57393
-0.259988
-0.302368
0.562466
-0.192527
0.166595
-0.300546
0.13397
-0.159813
-0.152435
0.312265
-0.183653
0.111441
0.366766
-0.478017
0.115278
0.11037
0.182594
-0.536299
0.236485
-0.552953
0.316668
0.339085
0.3108
-0.013137
0.485528
-0.320578
0.55822
-0.237745
-0.00761886
0.266951
-0.25934
0.511398
-0.509508
-0.00191014
-0.20419
-0.199368
0.403529
-0.567613
0.32318
0.244527
-0.529636
0.286457
0.243228
-0.610036
0.26249
0.347547
-0.368462
0.618406
-0.249891
-0.520434
0.346957
0.173545
-0.401159
-0.121568
-0.466232
0.22059
0.245589
0.319272
-0.174748
-0.059132
0.40553
-0.346322
0.437618
-0.10332
-0.250363
0.206588
0.232304
-0.0335054
-0.0250934
0.486948
-0.461469
0.115946
0.0968314
0.305815
-0.565779
0.117858
-0.246276
-0.212838
-0.56812
0.290003
0.438453
0.0732888
-0.321464
-0.302709
0.200962
0.00556379
-0.592468
0.336839
0.256201
-0.185302
-0.187921
0.373073
-0.111236
0.55123
0.518298
-0.174599
-0.262161
0.310181
-0.115922
-0.194009
-0.622022
0.416349
0.205713
0.297269
0.230427
-0.532493
-0.540681
0.255212
-0.514482
0.265026
0.249426
0.253963
0.289163
-0.542492
0.401406
-0.217707
-0.308049
0.544683
0.26055
0.347001
-0.437334
-0.136313
-0.526529
0.215226
0.5076
-0.129932
-0.201754
-0.141182
0.250091
-0.432727
-0.456222
-0.634229
0.32232
0.312019
-0.463117
0.239195
-0.262075
-0.252438
0.248404
-0.569067
-0.252339
0.105409
0.146978
-0.475229
0.259445
0.215808
0.265029
0.207592
0.302822
-0.136246
-0.595646
0.26833
0.652098
-0.298277
-0.353834
-0.259645
0.513608
-0.188866
-0.330409
0.204934
0.105495
0.260111
-0.0902652
-0.169808
-0.174757
-0.203377
0.377982
-0.506973
0.258896
0.248062
-0.47076
0.233159
0.237677
-0.235182
0.505351
-0.270073
0.319436
-0.374445
-0.201857
0.384696
-0.241966
-0.253823
-0.0115372
-0.520763
0.533509
-0.199161
0.419125
-0.307331
0.248439
0.20397
-0.452128
-0.126967
-0.109115
0.236159
0.170388
0.266513
0.361491
-0.312417
-0.605354
0.360816
0.244606
-0.0810391
0.242229
0.227753
0.141269
-0.498835
-0.299807
-0.275583
-0.351085
-0.527523
0.197807
-0.00605945
0.353515
-0.347396
0.235991
-0.511526
0.50005
-0.623329
0.271673
0.351693
-0.21166
-0.321051
0.532831
0.291981
0.360104
0.530853
-0.317678
0.595582
0.198727
0.480294
-0.221394
0.244832
0.235464
0.637103
-0.29572
-0.341413
0.320222
0.271466
-0.591624
0.139906
-0.360938
-0.35079
-0.203144
0.553939
0.0730968
0.159273
0.494921
-0.519629
0.294552
-0.474405
-0.431485
0.558585
-0.252821
-0.416143
0.106279
0.309839
-0.377995
-0.243993
0.322227
-0.381249
0.287511
-0.119965
-0.167499
-0.195854
-0.32824
0.524141
0.510646
-0.252327
-0.614865
0.268539
0.346341
0.184548
0.211784
-0.396095
-0.211061
0.10912
-0.557999
0.263169
0.29491
0.228496
-0.573261
-0.0927798
-0.145553
-0.354311
-0.260538
-0.640354
0.364771
-0.26273
0.117229
0.145696
-0.553786
0.307697
0.24625
-0.308186
0.173223
-0.551595
0.235662
0.356461
-0.592093
-0.25279
-0.265628
0.518402
0.231596
-0.305493
-0.603886
0.26553
0.338362
0.28871
-0.598333
0.325972
-0.612694
0.359529
0.253199
0.315116
0.257936
-0.429126
0.239328
-0.117185
-0.145354
0.189797
-0.540588
-0.174716
0.263862
-0.450985
0.417724
0.0332725
-0.208556
0.39399
-0.185368
0.381684
-0.371562
0.124488
0.171092
-0.295549
0.142493
0.117673
-0.253875
-0.275702
0.304374
-0.522054
-0.232782
-0.247026
0.0411284
-0.255605
0.261959
-0.188796
-0.283573
0.53247
-0.249008
0.485633
-0.515496
0.213109
0.302392
0.520069
-0.522649
0.130129
-0.237264
0.107179
-0.308711
0.160359
0.148255
-0.192985
-0.0926348
0.525046
0.274882
-0.12825
-0.487792
0.525053
-0.0373035
-0.556034
0.300729
0.255608
-0.529254
0.245664
-0.27669
-0.346606
0.178606
0.239578
-0.593239
0.231415
0.297056
-0.531051
-0.156499
-0.0957955
-0.428345
0.237445
0.190949
0.144017
0.120392
-0.306134
0.544522
-0.238581
-0.108509
0.238651
0.196769
-0.400971
0.146931
0.172486
0.67433
-0.386023
-0.288316
-0.235661
-0.35117
0.306608
-0.348371
0.185991
0.220337
-0.406186
0.177647
-0.330093
-0.303688
-0.254228
-0.10196
0.559666
-0.258219
-0.241546
-0.338376
-0.13268
0.308351
0.249768
-0.344739
-0.324029
-0.203356
0.527308
0.398841
0.564528
0.259746
0.237863
0.230881
-0.114863
-0.317202
-0.236968
0.554376
0.385251
0.32325
-0.527552
0.329291
-0.614221
0.284954
0.218766
-0.415793
0.592406
-0.0455962
-0.127235
0.270753
0.568679
0.33741
-0.297217
-0.0400581
-0.395614
0.211906
0.18386
0.220424
-0.588812
-0.591789
0.323037
0.26875
0.104057
0.157966
-0.0881675
0.458264
-0.370166
0.282503
-0.514707
0.15361
0.133948
-0.292141
-0.215039
0.50715
0.281598
-0.519007
-0.224004
0.489002
-0.352662
-0.20026
0.443724
-0.19354
0.127919
-0.270629
0.142772
0.262549
-0.268553
0.260918
-0.475335
-0.236802
-0.251608
0.528894
-0.277399
0.211402
0.182002
-0.393236
-0.0647106
0.548651
-0.409364
0.214674
0.19466
0.469289
-0.209787
0.412676
0.338852
-0.613047
0.274632
-0.65706
0.204116
0.201799
0.402869
-0.598588
0.196945
-0.403412
0.206556
0.278087
-0.531461
0.253563
-0.228881
0.406807
-0.178017
0.51777
-0.293309
-0.322505
-0.486203
0.185291
0.353452
-0.232963
-0.24952
-0.324818
-0.256887
-0.23797
0.495479
0.252252
0.310846
0.218633
-0.249688
0.296878
-0.297179
0.455763
0.100257
0.127502
0.210048
0.264393
-0.468684
0.204301
-0.341495
-0.116865
0.260975
-0.244272
-0.263763
0.508202
0.27113
-0.188484
-0.0825054
0.416802
-0.196326
-0.269002
0.244645
0.147699
-0.28341
-0.206602
-0.28353
0.490058
-0.456866
0.221495
0.235347
-0.44108
0.408819
0.551994
-0.286375
-0.265727
-0.223716
0.0926049
0.145804
0.317369
-0.196214
-0.1211
-0.328954
-0.240277
0.569264
0.23922
-0.545609
-0.238154
0.535438
0.270027
0.237636
-0.352452
0.411178
-0.326085
-0.0849046
-0.589217
0.260285
0.225032
0.193529
-0.247642
-0.305828
0.553566
-0.164266
0.375682
0.099571
-0.212385
0.401331
-0.182596
-0.085402
-0.365544
-0.393201
-0.233549
-0.198143
0.446791
-0.1612
0.338835
0.259325
0.210692
0.613959
-0.259714
-0.354186
-0.252488
-0.29573
0.548542
-0.562193
0.244402
0.517538
-0.318305
-0.199213
-0.405149
0.205779
0.378925
-0.114275
-0.266526
-0.505789
0.213693
0.581301
-0.236938
0.127874
0.425257
-0.20018
0.5061
-0.246082
0.113711
0.11724
0.2156
0.201407
-0.00736945
-0.504828
0.442845
-0.205346
-0.207868
-0.307617
-0.236894
0.0916966
0.14523
0.233412
-0.489829
0.284353
-0.640146
0.355816
-0.113662
0.228998
0.329144
-0.124015
-0.481131
-0.485853
0.250777
0.288719
-0.247477
0.281333
-0.474776
0.193457
0.385753
-0.188834
-0.330915
0.572029
-0.241006
-0.385823
0.14545
0.181692
-0.390137
0.230107
-0.184206
0.477741
-0.293412
0.367159
-0.169026
-0.198025
-0.558936
0.228103
-0.352442
-0.247143
0.599625
-0.638564
0.280028
0.358555
0.117342
0.636597
-0.354497
-0.282092
-0.642058
0.28656
0.355516
-0.0979944
-0.138868
0.532242
0.244989
0.17452
-0.419342
-0.210911
0.288192
0.348414
-0.486695
0.250363
0.236389
0.328602
0.242381
-0.570987
0.224471
-0.232013
-0.255062
-0.272353
0.526801
0.252756
-0.182065
-0.258861
0.440817
-0.353848
0.415094
-0.204754
-0.210145
-0.509862
-0.271031
0.486722
-0.215509
-0.21395
0.381511
-0.167673
-0.30434
-0.37833
-0.500364
0.265699
0.234764
-0.208053
0.470817
-0.262285
-0.261485
-0.342394
0.0292162
0.555805
-0.584979
0.260919
-0.118259
0.284131
-0.468866
-0.35419
-0.251941
0.522889
-0.353562
-0.148125
0.265553
-0.550254
0.287446
0.263462
-0.194233
0.280946
0.277599
-0.558303
-0.240961
0.600591
-0.359639
-0.256071
0.513333
-0.257286
-0.324358
-0.235552
0.560086
0.134844
0.107408
-0.242251
-0.518507
0.232334
-0.580003
0.255871
-0.586663
0.261174
0.325463
-0.195558
-0.324817
0.493097
-0.0221275
-0.18982
-0.247529
0.437996
0.300619
-0.552517
0.340059
-0.543112
0.389646
-0.0971737
0.280706
-0.572837
0.490314
-0.450812
0.244138
0.0287082
0.539467
-0.568164
0.341772
0.286288
-0.493432
0.385816
-0.139623
-0.246223
0.523677
-0.231341
0.377696
-0.18498
-0.192506
-0.389008
-0.137621
0.264391
-0.505559
0.241357
-0.411194
0.393506
0.160537
0.110753
0.333052
0.207546
-0.540444
-0.332168
-0.254521
0.274349
-0.170247
0.516323
-0.232666
0.240281
-0.17037
-0.0698786
0.214151
-0.0572393
-0.156891
0.00662882
-0.517736
0.512122
0.315779
-0.632228
0.273821
0.358438
-0.108131
0.296359
0.303681
-0.122556
-0.286532
-0.23352
0.520829
-0.516086
0.250405
-0.624485
0.260199
0.364314
0.239775
-0.105928
-0.133847
0.311418
-0.106123
-0.633624
0.277891
0.355756
0.501197
-0.21712
0.233701
-0.411028
0.177403
-0.545428
0.356456
-0.0956004
0.270035
0.14142
0.150388
-0.291888
0.249685
-0.113834
-0.135843
0.296116
-0.142449
-0.348232
0.583911
-0.15993
-0.15443
-0.139138
0.293639
-0.608123
0.333917
-0.27093
0.140723
0.130195
-0.311873
-0.249756
0.561579
0.210078
-0.234203
0.492772
-0.593476
0.334274
0.259206
-0.313222
-0.223578
0.536968
0.1394
0.280882
-0.171746
0.305752
0.23994
-0.105129
-0.353574
-0.248705
0.527039
-0.0946621
-0.210976
0.305703
0.54751
-0.207794
0.548001
-0.259402
0.417982
-0.403213
0.21561
-0.142583
-0.243348
0.512409
-0.519041
0.507841
-0.510885
-0.195321
0.410944
0.520534
-0.143256
-0.376922
0.547153
-0.513827
-0.272567
-0.228535
0.501105
0.419155
-0.226674
-0.19229
0.250183
-0.545441
-0.127103
0.238428
-0.11136
0.186588
-0.143208
0.258634
0.397952
-0.185871
-0.453827
0.172506
-0.35431
-0.0983102
0.192326
-0.0940256
0.0742825
0.0644901
0.335793
0.60067
-0.339504
0.48256
-0.221896
-0.101279
0.212215
-0.110945
0.505921
-0.232581
-0.273313
-0.169585
0.299592
-0.129956
0.202913
0.157007
-0.35987
0.257672
0.34299
0.425522
-0.513754
0.524133
-0.24234
-0.142662
-0.278025
0.14779
0.130234
-0.51028
0.266014
-0.213345
0.238711
-0.473383
0.235172
-0.496164
0.179462
0.322726
-0.575435
0.252755
-0.609035
0.355776
0.253272
0.438868
-0.204966
0.467746
-0.218509
-0.249032
0.210752
0.187532
-0.39842
0.138825
0.122248
0.339515
-0.539392
0.521172
0.243875
0.246654
0.136562
-0.257411
0.206934
0.187987
-0.395049
-0.158045
-0.0839238
-0.170381
0.414837
0.50895
-0.244316
0.13416
0.585673
0.241012
-0.590697
0.349703
0.00562753
-0.461656
0.35116
-0.592018
0.251245
0.281103
-0.238263
0.200726
0.180676
-0.630402
0.266644
0.363738
0.436021
0.147507
-0.251045
0.552137
-0.259723
0.498828
-0.239101
-0.0367745
-0.497043
0.534732
0.182103
0.162909
-0.273413
-0.262588
0.536509
-0.223824
0.482856
0.294359
0.249973
-0.104568
-0.108722
-0.171608
0.114911
-0.242032
0.200757
0.268596
0.212643
0.195411
-0.408075
0.175019
0.180623
-0.497233
-0.289196
0.150179
0.139003
0.176427
0.201501
0.0181853
0.14464
-0.246837
0.294716
-0.279965
0.174178
0.125466
0.180611
0.131672
-0.373813
-0.256609
-0.131544
0.0700675
0.224761
0.0964981
-0.321047
0.519895
0.3106
-0.136426
0.549428
-0.14812
0.139058
-0.228101
0.0890947
-0.23343
0.487397
-0.112167
0.231369
-0.107234
0.246298
-0.350639
0.0438045
-0.437821
0.20201
0.198706
0.176991
0.156705
-0.351872
0.183391
0.168462
-0.123036
-0.13036
0.253367
0.0354405
-0.41559
0.380183
-0.368286
0.193489
0.17495
0.509743
-0.267398
-0.242319
-0.562817
0.313191
0.0805221
-0.222735
-0.234156
0.508064
-0.581306
0.0734364
-0.32031
0.17108
0.149237
0.188819
0.173041
-0.36173
-0.259373
0.477549
-0.218267
0.268825
0.242882
-0.511252
0.314208
-0.137304
-0.443966
0.222932
0.221194
-0.305125
-0.303085
0.433594
-0.18856
-0.193557
0.404288
-0.504227
0.47748
-0.513258
-0.168354
0.371217
0.257858
-0.127666
0.153055
0.147155
-0.442202
0.17728
0.580359
-0.322695
0.173301
0.189833
0.23943
0.343283
-0.582348
-0.597118
0.356104
0.241039
0.3301
0.25025
0.558077
-0.487232
-0.0705762
0.335949
0.263908
0.222988
-0.0567773
0.388116
0.316818
-0.210973
-0.27611
-0.585481
-0.251166
-0.361492
0.108799
0.152294
-0.611369
0.261047
0.350348
0.181644
-0.342918
-0.274753
0.517214
-0.24216
0.00821224
-0.196619
-0.298666
0.543294
-0.244308
-0.326981
0.58216
-0.255191
0.258056
-0.510806
0.253302
0.229757
-0.132862
0.61137
-0.348483
-0.262858
0.521509
-0.529053
0.0087715
0.35722
0.143847
0.171858
-0.315762
0.499434
-0.245514
-0.241125
-0.197082
-0.401933
0.35404
-0.284752
0.530466
-0.245911
0.193319
0.214901
0.061208
-0.275933
-0.0143985
0.229456
0.242602
-0.109664
0.214541
-0.104888
-0.590738
0.350486
-0.242505
0.593744
0.34019
0.159024
0.175082
-0.334153
0.284606
-0.132712
-0.504475
0.267309
-0.268865
-0.342478
0.696366
-0.37056
-0.325692
-0.200443
-0.198159
0.410833
-0.162137
0.295339
-0.133124
0.568383
-0.245454
0.265569
-0.489425
0.378766
-0.166638
-0.211856
0.220128
0.195222
-0.415313
0.472826
-0.233748
0.190599
0.210819
-0.519797
0.368574
-0.590786
0.230706
0.581273
-0.515599
-0.0646554
-0.293022
0.139921
0.152999
-0.612885
0.344044
0.142735
0.15241
-0.295279
0.0382742
0.222779
-0.260994
-0.494686
0.299348
-0.490315
0.263609
0.217125
0.247601
0.197378
0.224974
-0.422099
0.161114
0.359696
0.252094
-0.143844
-0.0942998
0.38866
-0.0506892
-0.224559
0.490053
-0.516547
-0.215817
-0.227202
0.401305
-0.174032
-0.338918
0.172848
0.166068
0.141819
-0.222466
-0.274802
0.497092
0.203048
0.182676
-0.378298
-0.195519
-0.0757442
0.271348
0.419728
-0.25362
-0.165749
0.121967
0.426912
-0.24752
-0.179086
0.221761
0.191004
-0.346179
-0.25215
0.0948368
0.125838
0.176967
0.254793
-0.605032
0.350262
0.0589303
0.211623
-0.391257
0.215311
0.274845
-0.549325