/*--------------------------------*- C++ -*----------------------------------*\
| =========                 |                                                 |
| \\      /  F ield         | OpenFOAM: The Open Source CFD Toolbox           |
|  \\    /   O peration     | Version:  v2012                                 |
|   \\  /    A nd           | Website:  www.openfoam.com                      |
|    \\/     M anipulation  |                                                 |
\*---------------------------------------------------------------------------*/
FoamFile
{
    version     2.0;
    format      ascii;
    class       surfaceVectorField;
    location    "300";
    object      Uf_0;
}
// * * * * * * * * * * * * * * * * * * * * * * * * * * * * * * * * * * * * * //

dimensions      [0 1 -1 0 0 0 0];


internalField   nonuniform List<vector> 
14516
(
(1.07474 0.186283 1.6398e-21)
(1.04724 0.192223 7.70011e-21)
(1.06567 0.160597 -7.5536e-22)
(1.00633 -0.0638077 -5.00059e-23)
(1.00463 -0.0618007 -2.29548e-23)
(1.00115 -0.0569919 -5.49358e-25)
(1.1092 0.176011 -1.24018e-20)
(1.09366 0.213882 1.64418e-20)
(1.01321 -0.000719693 2.39423e-24)
(1.01324 -0.000785341 3.42574e-24)
(1.0133 -0.000729885 -2.655e-23)
(0.580565 0.294629 -1.08696e-20)
(0.594269 0.348719 6.88525e-21)
(0.593557 0.159008 4.784e-22)
(1.01353 -0.0128174 -5.67695e-22)
(1.01452 -0.0130055 6.89678e-24)
(1.01421 -0.0118773 8.54159e-22)
(1.00888 -1.92645e-05 -3.94659e-24)
(1.00954 -0.000153625 8.13528e-23)
(1.01016 -0.000196278 1.40772e-22)
(1.01165 -0.00104923 3.80108e-23)
(1.01161 -0.000985669 -4.77013e-23)
(1.01168 -0.00108057 3.34895e-22)
(1.0223 0.00333196 -2.12263e-23)
(1.02222 0.00360355 2.57478e-21)
(1.02261 0.00343222 2.4513e-23)
(0.584827 0.367384 1.56146e-20)
(0.578796 0.23599 7.53402e-21)
(1.00688 -0.00944681 1.852e-22)
(1.00713 -0.0112474 -2.72728e-21)
(1.00893 -0.00962545 1.63921e-22)
(0.872629 0.126741 1.92297e-22)
(0.839476 0.105929 -4.1866e-21)
(0.855503 0.160909 -1.10956e-22)
(1.01309 -0.000658057 0)
(1.01312 -0.000697108 2.1707e-23)
(1.02161 -0.00783337 3.15072e-23)
(1.02229 -0.00828636 2.16584e-22)
(1.02212 -0.00755736 1.61176e-23)
(1.00479 4.97229e-06 0)
(1.00477 5.09794e-05 -7.78008e-23)
(1.02102 -0.00741727 7.06638e-23)
(1.02047 -0.00694424 1.1922e-22)
(1.02093 -0.00676115 9.95475e-23)
(1.01033 0.0132965 -1.1443e-22)
(1.01011 0.0123057 8.50895e-22)
(1.01108 0.0129601 -1.0221e-22)
(1.01052 0.0143573 -6.44747e-23)
(1.00947 0.0137032 3.49078e-23)
(1.12755 -0.167175 0)
(1.08574 -0.0483587 4.16706e-20)
(1.04055 -0.173947 0)
(1.02104 -0.00809873 -1.10429e-22)
(0.953198 -0.146119 0)
(0.965385 -0.161608 0)
(0.971795 -0.143197 2.90562e-22)
(1.0366 -0.00193117 -1.30467e-22)
(1.037 -0.000790056 -1.2689e-22)
(1.03565 -0.00105306 3.37125e-22)
(1.11716 0.148389 4.60799e-21)
(1.10069 0.166145 1.46259e-21)
(1.10485 0.152907 9.92212e-22)
(1.01296 0.00159932 3.29533e-24)
(1.01315 0.00158364 -6.01944e-24)
(1.01217 -0.0026467 5.62367e-22)
(1.01208 -0.00288342 1.09965e-22)
(1.012 -0.00257552 -1.23411e-23)
(1.01282 -0.000523341 -5.38816e-24)
(1.01301 -0.000580236 -2.56955e-24)
(1.01915 -0.00663577 -5.48271e-23)
(1.01953 -0.00715046 -2.18946e-22)
(1.01901 -0.00718477 1.94697e-22)
(1.01058 0.00860018 9.79127e-24)
(1.01006 0.00823584 -1.39561e-23)
(1.01056 0.00779528 6.94152e-24)
(0.997278 0.0203978 -2.71962e-22)
(1.00065 0.0177449 4.52223e-21)
(1.00132 0.0222723 2.22552e-21)
(1.02197 0.00322451 -1.23083e-21)
(1.02235 0.0030403 -6.24274e-22)
(0.9946 -0.00238649 0)
(0.991374 -0.00118393 -6.81601e-22)
(0.992503 -0.00618459 0)
(1.13286 0.122601 -2.50006e-23)
(1.12141 0.13864 1.39515e-20)
(0.980618 0.0196419 0)
(0.971301 0.00858777 8.21213e-22)
(0.978336 0.00995617 1.68208e-22)
(1.01372 9.79982e-05 -4.44627e-22)
(1.0137 3.6879e-05 -3.8801e-22)
(1.01027 4.43368e-05 -1.78782e-23)
(0.994075 0.0246464 -3.83094e-21)
(0.991187 0.0296855 -4.29846e-21)
(0.996522 0.0311216 -1.9068e-21)
(0.949506 -0.205412 0)
(0.962928 -0.223771 -8.63184e-21)
(0.940644 -0.224862 9.61533e-22)
(1.0081 -1.74645e-05 -7.81183e-23)
(1.00666 5.63904e-05 -3.60189e-24)
(1.03748 -0.00285391 3.40547e-22)
(1.03593 -0.00305166 0)
(1.01191 -0.00136727 -1.2178e-22)
(1.01198 -0.00141781 -1.43455e-23)
(1.01202 -0.00146385 0)
(1.01438 0.000620776 0)
(1.01373 0.000470857 4.71558e-23)
(1.0146 0.000771706 0)
(0.997971 -0.00398945 -9.53511e-22)
(0.997536 0.000491315 6.96652e-22)
(1.00759 0.000115731 -1.05275e-22)
(1.00451 -9.55736e-06 0)
(1.01166 -0.00044751 5.33692e-24)
(1.01225 -0.000404017 -7.02054e-23)
(1.01166 -0.00044084 -2.30434e-23)
(1.00956 -7.18536e-05 1.43323e-22)
(1.00884 -0.000140445 1.99438e-23)
(1.01023 -2.6768e-05 9.50728e-22)
(1.0098 -0.000270576 1.14443e-23)
(1.01172 -0.000375395 1.04004e-22)
(1.01265 -0.000474837 -6.64457e-24)
(0.99281 0.0180296 -1.81733e-21)
(1.04554 -0.101194 -5.92097e-22)
(1.03047 -0.102408 -1.29836e-20)
(1.03828 -0.0866554 -9.57041e-22)
(1.05059 -0.0346928 -3.71129e-22)
(1.06412 -0.0307078 -3.64493e-22)
(1.05058 -0.0220838 -7.57212e-21)
(1.01328 -0.000844924 -2.41063e-23)
(1.01319 -0.000840009 1.24786e-23)
(0.985997 0.0337399 -2.11765e-21)
(0.984793 0.025562 1.62675e-21)
(0.998872 -0.0105448 -4.70857e-21)
(1.00121 -0.0130377 0)
(1.00195 -0.00980284 0)
(1.01735 -0.0151576 -5.25069e-22)
(1.01626 -0.0153801 -2.50994e-22)
(1.0173 -0.0165836 2.08169e-22)
(1.02419 0.000859309 0)
(1.02382 0.000756378 -6.55137e-22)
(1.02411 0.000566233 0)
(0.865252 -0.0528781 2.69338e-21)
(0.870306 -0.0801109 1.24767e-20)
(0.888777 -0.0520367 -6.74276e-21)
(0.80173 -0.215035 6.15251e-21)
(0.803063 -0.237954 6.31249e-21)
(0.780946 -0.187215 -1.11479e-20)
(1.018 0.0025472 0)
(1.01771 0.00244214 0)
(1.02564 -0.00806874 -1.33344e-21)
(1.02153 -0.00667017 -3.23873e-21)
(1.02165 -0.0105264 -2.16024e-21)
(0.786924 -0.258204 4.85244e-22)
(0.776481 -0.276814 6.37436e-23)
(0.746522 -0.268016 8.03494e-22)
(1.01187 -0.0013266 9.56353e-23)
(1.01182 -0.00127491 -1.01932e-22)
(1.01305 0.000255239 0)
(1.01249 0.000317163 0)
(1.01425 0.000361962 0)
(1.02177 -0.0161574 5.0292e-23)
(1.02077 -0.0166985 -1.97517e-22)
(1.02219 -0.0176984 -1.72809e-22)
(1.03969 -0.15115 -1.56607e-21)
(1.02321 -0.166398 -9.50652e-21)
(1.05797 -0.128595 2.61567e-21)
(1.01367 -0.000243528 -3.63521e-23)
(1.01417 -0.000338383 9.87236e-23)
(1.01345 -0.000258989 1.18946e-22)
(0.653882 -0.291907 9.60197e-21)
(0.630575 -0.150886 1.77872e-20)
(0.981545 0.0299169 -9.38402e-22)
(0.982605 0.0268707 -1.11069e-22)
(0.981788 0.0264983 -1.01668e-22)
(1.05137 -0.125146 -3.38502e-21)
(1.01878 -0.150506 0)
(1.05654 -0.104886 6.26391e-21)
(1.05439 -0.0841945 2.16337e-21)
(1.03573 -0.0997582 2.15784e-21)
(0.903004 0.132994 3.02075e-22)
(0.893664 0.0972262 5.38779e-21)
(1.00481 -0.00840994 0)
(1.00734 -0.00679619 0)
(0.831715 -0.0568557 5.4143e-22)
(0.861865 -0.0251145 -9.89984e-21)
(1.01178 8.26389e-05 0)
(1.01218 0.000169973 5.79076e-24)
(1.01298 0.000264238 1.8929e-24)
(1.01529 -0.00324371 3.55137e-23)
(1.01552 -0.00336919 5.21946e-24)
(1.01536 -0.00346285 3.02832e-23)
(0.997506 -0.0312223 -2.15452e-21)
(0.997979 -0.0279848 -1.64521e-23)
(1.00102 -0.0300992 -3.70781e-22)
(0.983897 0.0417651 1.47596e-21)
(0.976347 0.0376928 -1.53753e-21)
(0.800206 -0.224139 2.81956e-21)
(0.832789 -0.245157 0)
(1.01824 0.00240756 0)
(1.01849 0.00225599 0)
(1.01814 0.00216106 -4.80801e-22)
(1.00972 -0.000945587 -4.63493e-25)
(1.00928 -0.00043619 -1.58368e-24)
(1.0092 -0.00132446 -2.53741e-22)
(1.00595 0.00188253 2.85216e-22)
(1.00652 0.00151492 2.36867e-22)
(1.0066 0.00227929 0)
(1.00846 0.00721868 0)
(1.00857 0.00648201 1.26664e-22)
(1.00916 0.00718187 2.2309e-23)
(0.981701 0.0322313 -3.92085e-22)
(0.975494 0.0277538 6.90631e-24)
(1.00735 -0.000594599 8.14136e-23)
(1.00797 -0.00075956 6.22837e-22)
(1.00777 3.18179e-06 2.50694e-22)
(1.00893 -0.0713942 -3.06916e-23)
(1.0038 -0.0682981 -1.5213e-22)
(1.00944 -0.0765342 -3.23065e-21)
(1.1095 -0.0323867 -2.83378e-22)
(1.10564 -0.0492649 -5.72671e-22)
(1.09582 -0.0354926 -1.62414e-21)
(1.00081 -0.00533328 3.03484e-21)
(0.998784 -0.00807148 -1.52092e-21)
(1.07682 -0.0873891 -1.10477e-21)
(1.06206 -0.0971883 0)
(1.06552 -0.0783215 0)
(1.00778 0.00723442 1.44943e-22)
(1.00837 0.008033 1.87612e-22)
(1.0187 0.00210671 5.08244e-22)
(1.01891 0.00193955 5.84899e-22)
(1.01858 0.00185346 -8.34602e-23)
(1.02152 -0.0148607 2.29105e-22)
(1.0213 -0.0135519 6.86749e-23)
(1.02042 -0.0139321 1.60813e-22)
(1.0092 -0.00222252 1.19233e-22)
(1.00862 -0.0022137 -4.45516e-23)
(1.00912 -0.00299685 4.56431e-23)
(1.01163 -0.0690482 -1.16351e-23)
(1.00729 -0.0642878 -2.28471e-21)
(0.767308 -0.314523 3.36236e-21)
(0.716776 -0.317224 1.16888e-20)
(0.72803 -0.264605 6.40347e-21)
(1.02485 0.00600507 -1.20592e-22)
(1.02531 0.00660996 -1.34026e-22)
(1.0256 0.00584672 -8.26717e-23)
(1.14303 0.0952582 3.49017e-21)
(1.1334 0.0958976 2.15539e-21)
(1.02281 -0.0155812 1.10526e-22)
(1.12318 -0.0268009 7.82455e-21)
(1.10866 -0.0175928 -1.34487e-20)
(0.806253 -0.190924 5.59279e-21)
(0.827176 -0.218223 -2.80238e-21)
(1.00756 -0.0659302 1.65477e-21)
(1.01316 -0.0733358 -1.64092e-23)
(1.02414 0.00605808 -3.46974e-23)
(1.02439 0.00542778 -3.20843e-24)
(1.02457 0.00105769 -2.52448e-23)
(1.02496 0.0014048 -3.55043e-23)
(1.02425 0.00143421 2.13624e-23)
(1.02492 0.000630958 1.03239e-22)
(1.02419 0.000673876 -1.99012e-23)
(1.0117 -0.00264018 -2.87451e-22)
(1.01145 -0.00284635 -2.58949e-22)
(1.01194 -0.00313663 -1.41389e-22)
(1.01724 0.00673964 -2.46147e-23)
(1.01768 0.00700463 7.61958e-24)
(1.01723 0.00719709 -1.12322e-22)
(1.01724 0.0063119 0)
(1.01682 0.00647827 -1.04036e-25)
(1.0102 -0.000524053 0)
(1.01017 -0.0014271 3.57851e-23)
(1.00298 -0.00657749 7.33304e-23)
(1.00255 -0.00378528 8.73367e-22)
(1.02147 -0.0127236 6.11834e-23)
(1.02231 -0.0133777 -1.46451e-22)
(1.01064 0.00029109 4.68161e-23)
(1.01108 0.000213271 -1.29821e-22)
(1.0121 0.000332169 -2.28792e-22)
(1.01749 -0.0138626 -7.27177e-23)
(1.01846 -0.0147778 -3.61435e-22)
(0.980762 -0.0837138 0)
(0.974207 -0.0678592 0)
(0.985846 -0.0670105 0)
(1.01155 7.2349e-05 0)
(1.01036 -2.11803e-05 2.39532e-23)
(0.889702 -0.112704 -6.22273e-22)
(0.881158 -0.0924162 1.02176e-22)
(0.85769 -0.113857 2.64551e-21)
(1.01665 0.0020821 7.0149e-23)
(1.01689 0.00212647 5.92734e-23)
(0.878529 -0.297476 -9.42148e-21)
(0.85423 -0.289767 -2.94967e-21)
(0.868292 -0.308399 -1.19029e-20)
(0.996511 -0.00803654 -3.12185e-21)
(0.994938 -0.0119878 3.41408e-22)
(1.01834 0.00264894 0)
(0.965815 0.0136954 -4.51184e-21)
(0.95539 0.013684 1.15585e-20)
(0.966592 0.0202552 -1.70336e-21)
(0.980889 0.0505362 -1.03091e-21)
(0.990796 0.0460354 -2.20957e-21)
(1.00669 -0.000281653 -2.12541e-22)
(1.00695 -0.00123953 -3.36435e-22)
(1.1437 0.0922654 5.41167e-22)
(1.15099 0.0670828 3.04847e-21)
(0.989849 -0.0965482 2.78618e-22)
(0.970067 -0.0997098 -5.58358e-22)
(1.0069 7.64671e-05 -1.00522e-23)
(1.00408 6.53434e-06 -7.80506e-23)
(1.00424 3.41631e-06 7.053e-24)
(1.01839 -0.00025565 4.33215e-22)
(1.01868 -0.000261339 -2.81519e-22)
(1.01853 -0.000135517 4.63678e-22)
(1.01249 -0.0123025 2.79335e-22)
(1.01269 -0.0135845 -1.08597e-21)
(1.02647 0.00187494 1.91678e-22)
(1.02683 0.00182642 6.73761e-22)
(1.02643 0.0015856 -1.84026e-23)
(0.933436 -0.148571 1.31609e-22)
(0.943346 -0.131222 5.35812e-22)
(1.01795 -0.00783245 1.10952e-21)
(1.01906 -0.00790598 -3.27373e-22)
(1.01846 -0.00684528 1.79979e-21)
(1.0893 -0.076763 2.46029e-21)
(1.08874 -0.0944629 -5.22894e-22)
(1.00533 0.0024068 7.12992e-22)
(1.00528 0.00147912 3.43506e-22)
(1.01614 -0.00257178 2.72e-23)
(1.01617 -0.00245308 8.87031e-23)
(1.01595 -0.00243684 4.7872e-23)
(1.01038 -1.48545e-05 3.05276e-24)
(1.00984 3.27453e-05 1.34282e-24)
(1.01153 6.53788e-06 -1.63544e-22)
(1.01882 0.00235297 -1.00863e-22)
(1.01616 -0.00266572 2.12178e-23)
(1.01636 -0.00268447 0)
(1.01345 -0.00281947 -1.37703e-22)
(1.01374 -0.00277015 1.26715e-22)
(1.01337 -0.00255738 -1.17648e-22)
(1.02169 0.00312923 3.39051e-23)
(1.02168 0.00339415 2.20024e-22)
(1.01911 0.00177944 5.4616e-22)
(1.01934 0.00160537 -2.27237e-22)
(1.019 0.00153759 4.23285e-22)
(1.01213 -0.000126699 -1.64955e-22)
(1.01378 -0.000207313 5.23098e-25)
(1.0091 1.52829e-05 -6.10385e-22)
(1.01028 -5.8699e-05 2.8843e-22)
(1.01662 0.00184552 -4.13171e-22)
(1.0164 0.0019893 6.05096e-23)
(1.01621 -0.000715224 3.10767e-23)
(1.01633 -0.000832289 -3.44859e-23)
(1.01636 -0.000752121 -8.52495e-24)
(1.01825 -0.000369218 6.37396e-22)
(1.01811 -0.000221877 3.7192e-23)
(1.01238 -0.00221167 -1.4876e-22)
(1.01226 -0.00243595 2.32281e-22)
(1.01226 -0.00211276 -5.51866e-23)
(1.01168 -0.000469533 0)
(1.0119 -0.000479903 1.0197e-22)
(1.01152 -0.000458597 8.33686e-23)
(1.02598 -0.000958904 -4.25844e-24)
(1.02546 -0.00124071 1.84293e-23)
(1.02608 -0.00163168 5.01586e-23)
(1.02237 -0.00915041 -4.17095e-23)
(1.023 -0.00877168 -4.93117e-23)
(1.0233 -0.0106597 2.66369e-23)
(1.02247 -0.0100512 -3.21696e-24)
(1.02245 -0.0110321 -5.25651e-23)
(0.98623 -0.027106 -6.72576e-23)
(0.983953 -0.0213692 2.08487e-23)
(0.982441 -0.0251588 -5.55094e-21)
(1.02567 -0.00039029 1.72432e-22)
(1.02657 -0.000628525 -3.6161e-23)
(1.02209 0.00617904 1.60599e-23)
(1.02277 0.00614072 -3.15694e-23)
(1.02232 0.00677061 1.5815e-23)
(0.814031 -0.305168 4.76705e-22)
(0.801653 -0.361245 1.0154e-20)
(0.628984 0.641795 -1.57757e-20)
(0.614992 0.606443 -3.05651e-20)
(0.608914 0.621971 4.79448e-20)
(1.01134 3.69983e-05 -5.38351e-24)
(1.00923 -7.9466e-05 -3.69647e-25)
(0.65835 0.658573 0)
(0.641975 0.660985 1.70651e-20)
(0.600035 0.478767 -1.64137e-20)
(0.603622 0.4004 -2.62071e-20)
(1.02142 0.0061906 0)
(1.02181 0.00567728 0)
(1.00902 9.87512e-05 -4.49242e-24)
(1.00885 0.000117382 -2.3922e-22)
(1.01401 -0.000371467 0)
(1.0135 -0.00033975 3.12166e-23)
(1.01455 -0.000387094 3.79565e-23)
(1.01248 -0.00204642 -4.03141e-23)
(1.01247 -0.00231672 -9.53231e-23)
(1.02533 0.000170296 -2.67742e-24)
(1.02489 -0.000215303 -3.00406e-23)
(1.01179 -0.000480356 0)
(1.01148 -0.000374665 1.26934e-23)
(1.01171 -0.00111749 -2.00833e-22)
(1.01164 -0.0010245 6.61386e-23)
(1.01116 0.00886115 -7.90137e-24)
(1.01078 0.00937775 -4.9106e-23)
(1.01891 -0.00531948 -8.46921e-23)
(1.01861 -0.00497017 1.82451e-23)
(1.01855 -0.00533692 8.68709e-24)
(1.15554 -0.251018 0)
(1.17178 -0.326123 0)
(1.10781 -0.354541 -5.97446e-21)
(0.989675 -0.0349039 -6.99008e-23)
(0.994074 -0.0330553 5.41339e-23)
(0.989504 -0.0305885 -1.10723e-22)
(0.95791 -0.184103 0)
(0.978323 -0.178854 0)
(1.05329 -0.115316 0)
(1.03375 0.014994 -9.78336e-22)
(1.03377 0.0132707 -1.48021e-22)
(1.03548 0.0141721 -1.34032e-21)
(1.01921 -0.00614767 1.18453e-22)
(1.01878 -0.00614994 9.84141e-23)
(1.01163 -0.00182685 2.46746e-22)
(1.01142 -0.00191501 3.63218e-22)
(1.01133 -0.00158206 2.77201e-22)
(1.01353 -0.00408955 2.50501e-24)
(1.01371 -0.0041104 1.40429e-22)
(1.01357 -0.00392111 -1.14073e-22)
(1.10982 -0.198808 -6.83338e-21)
(1.07911 -0.220158 -1.5773e-20)
(1.09364 -0.197385 -9.28719e-21)
(0.990938 -0.0394665 -2.18353e-22)
(0.986544 -0.0363902 -1.46327e-21)
(1.12516 -0.18869 8.0671e-21)
(1.13013 -0.174558 1.30032e-21)
(1.02584 0.00200693 8.7505e-22)
(1.02615 0.00194156 -4.46156e-22)
(1.02576 0.00174302 0)
(1.20102 -0.146947 0)
(1.01924 0.00202971 7.62663e-22)
(1.01333 0.000910363 -1.79947e-23)
(1.01349 0.000964805 6.15581e-24)
(1.01345 0.000671569 -5.17118e-24)
(1.01634 -0.00313104 -3.18229e-23)
(1.01659 -0.00326244 -5.52289e-23)
(1.01641 -0.00302019 -3.78124e-23)
(1.02117 0.00770277 -2.37864e-22)
(1.02041 0.00847098 -3.85318e-22)
(1.02004 0.00717728 6.04698e-22)
(1.07446 0.221124 8.87552e-22)
(1.06144 0.257146 3.92371e-21)
(1.02649 0.2539 -1.28727e-20)
(1.02613 0.00407375 1.02334e-21)
(1.02602 0.00405609 1.52791e-21)
(1.0261 0.00397596 1.3525e-21)
(1.02581 0.000520678 2.44088e-23)
(1.0123 -0.00271975 5.12289e-22)
(0.750415 -0.123735 1.55786e-22)
(0.737872 -0.165454 -6.65895e-21)
(0.709175 -0.131618 4.33943e-21)
(1.01518 -0.00305111 3.21606e-23)
(1.01505 -0.00312175 -1.10887e-22)
(1.02992 -0.0116096 0)
(1.02964 -0.00498229 3.09327e-21)
(1.01624 -0.00323033 7.27691e-24)
(1.01612 -0.00299573 -4.57284e-24)
(1.01852 -0.000698677 2.47096e-22)
(1.01835 -0.000828651 -2.44426e-24)
(1.01864 -0.000886901 2.58163e-22)
(1.01925 -0.00568951 -1.47194e-22)
(1.01924 -0.00527583 -7.70308e-23)
(1.02591 0.00228222 -3.85592e-22)
(1.02555 0.00211172 1.3947e-22)
(1.0152 0.00046716 2.44305e-24)
(1.01526 0.000397014 2.54879e-22)
(1.01534 0.000514313 0)
(1.03647 -0.0366765 -5.62196e-23)
(1.04287 -0.0483986 0)
(0.899269 -0.132898 -6.62996e-22)
(0.913785 -0.113472 -1.34408e-21)
(1.07966 -0.0941133 6.62941e-21)
(1.02153 0.00673928 5.24041e-22)
(1.02203 0.00772377 3.48213e-22)
(1.09779 0.355056 -4.03849e-21)
(1.05885 0.323214 2.12979e-21)
(1.12546 0.307307 -3.12694e-21)
(1.01006 -0.000486773 -1.17607e-23)
(1.01028 -0.000917575 1.75693e-22)
(1.01034 -0.000608919 -2.50367e-22)
(0.611614 0.558247 5.67353e-21)
(0.638475 0.550852 0)
(1.01606 -0.000683345 3.87482e-23)
(1.01598 -0.000624922 4.95822e-23)
(1.02145 0.00301716 1.05997e-21)
(1.02176 0.00286605 5.67559e-22)
(1.17655 -0.356108 0)
(1.14934 -0.386614 0)
(1.19329 -0.345067 -3.13965e-20)
(0.827573 -0.267771 1.3314e-20)
(0.817658 -0.257918 -1.41129e-20)
(1.01619 -0.00236416 8.78342e-23)
(1.016 -0.00223122 4.14308e-23)
(1.01621 -0.00226526 -9.35673e-23)
(1.01954 0.00144003 -1.24473e-21)
(1.01965 0.00168031 1.2777e-22)
(1.01063 -0.000257482 0)
(1.01027 0.000261975 0)
(0.935505 -0.187066 0)
(1.0239 -0.00550688 -1.36082e-23)
(1.02325 -0.00538906 -1.40561e-23)
(1.02365 -0.00599242 -8.5207e-23)
(1.00488 -0.00722766 1.71836e-21)
(1.00368 -0.00921912 3.68022e-22)
(1.02778 0.00378965 0)
(1.02805 0.0035758 2.95642e-22)
(1.02763 0.00341608 0)
(1.01851 0.0168895 0)
(1.01906 0.0146341 -1.33096e-21)
(1.01703 0.0156546 0)
(1.02498 -0.0336328 -3.95117e-23)
(1.0286 -0.0266164 -3.44693e-21)
(1.07858 -0.0193879 1.285e-21)
(1.07629 -0.0406035 0)
(1.02454 0.00086271 4.4956e-22)
(1.0243 0.00109596 6.87482e-22)
(1.1204 0.381449 1.69783e-20)
(1.0503 0.40685 -8.17284e-21)
(1.01358 -0.00028362 0)
(1.01446 -0.000438456 0)
(1.01221 -0.00216731 1.26991e-22)
(1.0125 -0.00228581 -1.33252e-22)
(1.01228 -0.00203245 3.3196e-22)
(0.763687 -0.08577 0)
(0.792178 -0.116696 0)
(1.01106 -7.60733e-05 -2.25457e-24)
(1.0109 -0.000712474 0)
(1.03681 0.134119 3.12566e-20)
(1.00436 0.137771 -8.58861e-21)
(1.01633 0.217799 -6.46848e-21)
(0.971566 0.0876296 0)
(0.9861 0.0956428 0)
(0.97049 0.106973 -6.63673e-21)
(1.01854 0.000528465 1.34837e-21)
(1.01863 0.000717862 -1.30246e-22)
(1.01833 0.000632534 1.42817e-22)
(1.02653 0.00218336 1.99953e-22)
(1.01511 0.000538043 -6.87497e-25)
(1.01507 0.000406175 2.37701e-24)
(1.10004 -0.0623452 1.1278e-21)
(1.11363 -0.0620901 2.57408e-21)
(1.22512 -0.28817 2.64294e-20)
(1.01526 -0.0142122 0)
(1.01562 -0.0130168 2.23118e-22)
(1.02087 0.00617288 -4.48832e-26)
(1.02065 0.00567836 1.77713e-24)
(1.0203 0.00611183 -3.41996e-23)
(0.974283 0.0732112 0)
(0.959697 0.0802458 0)
(1.0066 -0.00381466 8.64644e-23)
(1.00417 -0.00413284 3.84649e-22)
(1.00543 -0.00209356 1.33537e-21)
(1.01286 0.00113627 3.02261e-24)
(1.01269 0.00171835 -1.03061e-22)
(1.0132 0.00116143 -1.19944e-23)
(1.01334 0.00163655 2.03121e-22)
(1.0262 0.00410693 -2.94191e-21)
(1.02616 0.00399401 7.71486e-22)
(1.01547 -0.000525141 -2.22478e-23)
(1.0158 -0.000633798 -4.87224e-24)
(1.01551 -0.000495795 0)
(1.01445 -0.00737877 0)
(1.0153 -0.00739975 0)
(1.01471 -0.00659311 9.37859e-23)
(1.06045 0.12882 1.86961e-21)
(1.05648 0.061807 1.01245e-20)
(1.01659 0.00164773 2.30389e-22)
(1.01636 0.00156822 1.01487e-21)
(1.01656 0.00144942 6.55487e-22)
(1.01365 -0.00350578 -2.10475e-22)
(1.01363 -0.00364509 1.95751e-22)
(1.01351 -0.00350556 -4.59485e-22)
(0.787257 -0.148541 -9.66588e-21)
(0.818974 -0.164756 -8.35435e-21)
(1.01059 -0.00214378 5.9712e-24)
(1.0102 -0.00172945 -6.29858e-23)
(1.01018 -0.00229975 0)
(1.00634 -0.0078807 8.4998e-22)
(1.00589 -0.0059836 2.73372e-22)
(1.02408 -0.0079147 6.1727e-23)
(1.02356 -0.00836742 3.78119e-23)
(1.02331 -0.00756035 -4.65967e-23)
(1.01333 -0.00326755 3.40494e-22)
(1.01324 -0.00315941 -1.52996e-22)
(1.01323 -0.00327273 2.51458e-22)
(0.98356 0.0250718 -1.53846e-23)
(0.987239 0.0295269 5.97662e-22)
(1.01366 -0.00336653 9.45848e-23)
(1.01354 -0.00324595 9.35252e-23)
(1.01366 -0.00322766 1.08588e-23)
(1.02343 0.00612792 2.89825e-23)
(1.02308 0.0055723 -5.64239e-23)
(1.01153 -0.000868606 -2.2572e-22)
(1.01157 -0.000918479 -1.09039e-22)
(1.0126 -0.00188121 9.46703e-23)
(1.01255 -0.00175465 9.10576e-23)
(1.02375 0.00675176 4.66014e-23)
(1.01527 -1.96551e-05 4.88006e-23)
(1.01338 0.000142263 2.54302e-24)
(1.02594 -0.00355765 -2.52608e-22)
(1.02572 -0.00308756 -6.88209e-23)
(1.02635 -0.00323551 -1.03312e-22)
(1.0268 0.00720686 4.48516e-23)
(1.02652 0.0066083 6.72728e-22)
(1.02717 0.00679908 1.83603e-22)
(0.994636 -0.0042512 -5.78088e-22)
(0.998229 -0.00439589 2.48821e-21)
(1.01706 -0.00757598 -9.69429e-22)
(1.01622 -0.00745716 3.75463e-22)
(1.01669 -0.00673724 1.06391e-21)
(1.01323 -0.0029446 -3.3618e-23)
(1.01322 -0.00283845 1.89986e-22)
(1.01313 -0.0028524 2.10816e-22)
(1.04067 -0.00676047 2.61663e-22)
(1.03948 -0.00824865 4.62643e-22)
(1.04168 -0.00854006 2.63509e-22)
(1.01387 -0.0041392 -1.3587e-22)
(1.01389 -0.00395356 -1.19023e-22)
(1.01406 -0.00417997 -2.91706e-22)
(1.02706 0.00803116 -1.15923e-23)
(1.02625 0.00757942 4.11954e-23)
(1.01126 -0.00763019 -5.13858e-22)
(1.01109 -0.0083166 -1.4527e-22)
(1.01176 -0.00817184 -8.45977e-22)
(1.02422 -0.004461 0)
(1.02405 -0.00505165 0)
(1.02359 -0.00445253 6.81722e-24)
(0.845983 -0.140217 6.11195e-23)
(0.855221 -0.115561 2.26625e-21)
(0.83977 -0.1227 -3.58482e-21)
(1.01379 -0.00350054 0)
(0.990039 -0.00441938 -1.19477e-21)
(0.993145 -0.000520676 -6.98082e-22)
(1.01264 -4.46867e-05 0)
(1.01455 -0.000329829 0)
(1.01344 -0.000220288 2.05584e-23)
(1.03182 0.0155176 9.01328e-22)
(1.03378 0.0173454 -3.21419e-22)
(1.01183 0.000764445 0)
(1.01149 0.000754641 2.67923e-25)
(1.01172 0.00116908 1.73741e-24)
(1.01202 0.000373542 0)
(1.01216 0.000845053 -3.12244e-25)
(1.01811 0.019256 0)
(1.02043 0.0179148 0)
(1.11559 -0.388662 0)
(1.09665 -0.427682 0)
(1.02097 -0.0119817 -2.40703e-23)
(1.02003 -0.011632 1.39832e-22)
(1.02058 -0.0109905 -3.63252e-23)
(1.02487 -0.00456597 0)
(1.02433 -0.00398732 0)
(1.01859 -0.00341724 -2.82442e-23)
(1.01887 -0.00360156 -2.43558e-23)
(1.01874 -0.00333362 -4.96161e-23)
(1.05433 0.0048526 -3.0238e-23)
(1.05127 0.00605163 -4.64664e-22)
(1.05184 0.00272713 -4.76061e-22)
(1.0187 0.000896542 -4.96299e-22)
(1.01879 0.00109356 5.7177e-22)
(1.01849 0.00102726 0)
(1.0001 -0.0570832 3.44449e-22)
(1.00322 -0.0571916 1.45281e-22)
(1.00459 -0.0611615 2.00163e-22)
(0.997309 -0.0542393 -1.16805e-21)
(0.996117 -0.0524669 -1.06437e-22)
(1.01639 -0.00248354 -5.18864e-23)
(0.91032 -0.151225 1.4501e-22)
(0.882116 -0.156653 -1.36632e-22)
(1.01498 -1.76781e-05 1.77821e-22)
(1.01492 -6.82191e-06 -6.24859e-24)
(1.01496 5.29095e-05 2.41946e-23)
(1.0173 -0.00841511 -1.45736e-21)
(1.01272 -0.00176903 -2.33042e-22)
(1.01264 -0.00198803 3.47653e-22)
(1.0126 0.00052226 1.02707e-23)
(1.01271 0.000856531 0)
(1.01244 0.000877472 -3.06067e-25)
(1.00984 0.000146087 5.38405e-22)
(1.0075 5.82923e-05 -9.14712e-23)
(1.00969 0.000177422 2.25905e-22)
(1.01502 0.000710242 1.66599e-23)
(1.01419 0.00057443 -2.11074e-23)
(1.01848 0.000348772 -1.36894e-22)
(1.01871 0.000446405 9.39424e-22)
(1.02612 -0.0040786 -2.39038e-22)
(1.02551 -0.00387293 1.27646e-22)
(1.03012 0.0129712 4.11741e-23)
(1.02947 0.0116401 -5.31788e-22)
(1.03101 0.0123213 9.31083e-23)
(1.0109 -0.000240809 -1.90797e-22)
(1.01067 -0.000162074 3.76146e-22)
(1.01113 -0.000247108 -3.71023e-22)
(1.01942 0.00121601 -1.17024e-21)
(1.01975 0.00127222 7.05425e-22)
(1.01683 0.00172378 -8.92039e-22)
(0.968066 0.00914095 -2.48178e-21)
(0.97437 0.016563 -2.4097e-21)
(1.01842 -0.0124212 0)
(1.01754 -0.0127193 1.98541e-22)
(1.01766 -0.0117548 1.7603e-22)
(1.00672 -0.0001217 -5.16542e-22)
(1.01116 -0.00015004 -4.07392e-23)
(1.00933 3.25227e-05 1.95724e-22)
(1.0103 -7.81247e-05 -2.10751e-23)
(1.01307 -0.00283642 -3.385e-22)
(1.01347 -0.0031244 -2.65259e-22)
(1.02805 0.00164812 8.56166e-23)
(1.02856 0.00158548 -6.1572e-23)
(1.02808 0.00126431 -2.55783e-22)
(1.03056 0.0144602 2.39758e-21)
(1.02872 0.0136493 -1.78137e-21)
(1.01497 -0.000213285 4.28392e-23)
(1.01501 -0.000238797 8.00038e-23)
(1.01501 -0.000191226 -8.18232e-23)
(0.795692 -0.421684 -1.16232e-20)
(0.762912 -0.424556 -4.47628e-20)
(0.824911 -0.446752 3.14995e-20)
(1.02102 0.00670298 0)
(1.02456 -0.030618 -7.24879e-22)
(1.02567 -0.0602781 6.11959e-21)
(1.01296 -0.0508879 7.60214e-22)
(0.883143 0.0336135 0)
(0.872499 0.0019279 -1.58377e-21)
(0.86101 0.0322357 -6.23628e-23)
(1.00819 0.000167209 6.80863e-23)
(1.01031 0.00028018 7.46332e-23)
(1.00901 0.000115902 -7.10476e-24)
(1.0096 4.06853e-05 4.14147e-23)
(1.01038 5.23329e-05 -2.33474e-23)
(1.02532 -0.00294195 0)
(1.02542 -0.00242694 -3.24989e-23)
(1.02615 -0.00294402 -1.80947e-23)
(1.05738 0.00333933 3.52368e-22)
(1.05648 0.00755318 1.24654e-21)
(1.03736 0.00850311 1.25707e-23)
(1.03638 0.00901483 -1.30346e-22)
(1.03609 0.00739864 -2.35327e-22)
(1.0128 -0.00169189 -2.47723e-23)
(1.0128 -0.0017878 3.89051e-22)
(1.01289 -0.00165659 5.92605e-22)
(1.02551 -0.00544754 -5.10323e-22)
(1.03707 -0.0146014 1.27405e-21)
(1.01454 -6.22456e-05 4.31951e-22)
(1.01416 -0.000129775 -1.00012e-21)
(1.01462 0.00010684 5.73707e-22)
(1.02516 -0.00343888 8.81508e-24)
(1.02468 -0.00292309 2.88014e-23)
(1.03845 0.0080043 -2.74298e-22)
(1.0387 0.00977879 2.47144e-22)
(1.02609 -0.0064667 1.38208e-22)
(1.02667 -0.00607298 -9.3618e-24)
(1.02675 -0.00683699 7.7767e-23)
(1.02389 -0.00184726 -1.91494e-22)
(1.02343 -0.00186951 -6.88474e-23)
(1.02367 -0.00154617 -2.09971e-22)
(1.00934 -0.00165874 -2.5401e-22)
(1.00974 -0.0022771 0)
(1.08651 -0.0598196 9.18667e-22)
(1.01279 -0.00282607 0)
(1.01278 -0.0028869 0)
(1.01274 -0.00272573 1.50292e-22)
(1.04875 0.00694587 0)
(1.04674 0.005111 -3.67341e-22)
(1.046 0.0076255 0)
(1.02785 0.00409687 0)
(1.02745 0.00388007 -6.57744e-22)
(1.01276 -0.00254115 1.02762e-23)
(1.01278 -0.00261678 -1.53181e-23)
(1.01271 -0.00247815 3.51936e-22)
(0.997544 -0.0349889 -9.74955e-22)
(1.173 0.294166 -2.50345e-20)
(1.18947 0.310662 -2.06651e-20)
(1.23544 0.229448 -9.21241e-21)
(0.995246 -0.0251266 3.57873e-23)
(0.998772 -0.0246128 4.10642e-23)
(1.01127 0.000336795 -1.24667e-22)
(1.01154 -0.00017902 -1.12329e-22)
(1.10785 0.193611 0)
(1.07369 0.197338 -2.96332e-21)
(1.02909 0.00148923 3.06532e-22)
(1.02969 0.00138873 -9.49134e-23)
(1.02911 0.00101106 2.90911e-22)
(0.768824 -0.284244 7.81909e-21)
(0.81121 -0.269691 -1.26188e-20)
(0.977629 0.0600739 -3.32657e-21)
(0.968549 0.0553877 -1.69191e-21)
(1.01861 -0.00432558 0)
(1.01856 -0.00404243 0)
(1.01835 -0.00406948 0)
(1.02666 0.00356494 6.82196e-23)
(1.02657 0.00328404 -1.99651e-21)
(0.987184 0.0662521 4.68528e-21)
(1.01155 -0.00226966 -4.36947e-22)
(1.01195 -0.00249221 -1.18853e-22)
(1.0076 -0.00817791 0)
(1.00696 -0.00964492 0)
(1.00406 -0.014593 0)
(1.00583 -0.0130365 -2.30226e-21)
(1.00616 -0.0165493 0)
(1.01147 -0.000738306 4.27566e-23)
(1.01145 -0.000705064 3.83352e-23)
(1.01142 -0.000623884 -3.28575e-22)
(1.01084 -0.000220258 -2.09102e-23)
(1.01197 -0.000478648 1.72996e-22)
(1.02114 0.00302745 5.78773e-22)
(1.0212 0.00278026 0)
(1.01651 -7.95848e-05 1.21461e-23)
(1.01661 -3.94891e-05 1.57003e-24)
(1.01507 -2.29071e-05 -4.57745e-23)
(1.00952 0.00851476 -2.8505e-22)
(1.00961 0.0077438 1.49817e-23)
(1.03548 0.289948 -4.32782e-22)
(1.06976 0.25618 2.47754e-20)
(1.01734 0.253292 -1.85509e-21)
(1.01613 -0.00331372 9.27107e-24)
(1.01638 -0.0034558 2.34534e-23)
(1.01274 -0.00246321 -2.42159e-22)
(1.01282 -0.00259216 -1.2177e-22)
(0.825149 -0.39387 1.50157e-20)
(1.01099 -0.00255122 -4.53931e-22)
(1.01088 -0.00201638 5.05165e-22)
(1.02001 -0.00708392 -2.37353e-22)
(1.02005 -0.00649244 1.48083e-23)
(1.01104 0.000922871 2.67079e-25)
(1.03168 -0.00160846 9.018e-24)
(1.0325 -0.00125746 0)
(1.03161 -0.000885588 0)
(1.0115 -0.000791697 -1.84647e-22)
(0.999972 0.332512 0)
(1.02762 0.00172194 3.07819e-22)
(1.0272 0.00176783 6.19952e-24)
(1.02719 0.00144131 -3.74313e-23)
(1.02016 -0.000402471 -2.46115e-22)
(1.02038 -0.000443772 -1.16447e-22)
(1.02013 -0.000571105 8.98371e-23)
(1.02426 -0.00547108 -6.3607e-24)
(1.02484 -0.00577428 -7.89061e-24)
(1.02432 -0.00606639 6.53094e-24)
(1.01111 -0.00310982 1.07486e-22)
(1.0698 -0.145473 -6.56951e-22)
(1.05092 -0.138475 5.78845e-21)
(1.07126 -0.128117 -7.40492e-22)
(1.02356 0.000914897 1.01317e-22)
(1.02343 0.000645647 1.87535e-22)
(1.04753 -0.0527577 -9.25088e-23)
(1.0443 -0.0468681 4.07343e-23)
(1.04116 -0.0523774 1.45245e-22)
(1.01319 0.000786231 -5.50757e-24)
(1.00859 0.00685728 -2.44817e-21)
(1.01047 0.00607391 -9.98295e-22)
(1.00993 0.00800119 -1.12065e-21)
(0.796165 -0.0533873 -3.49592e-21)
(0.802728 -0.091998 1.18196e-20)
(1.03385 -0.0154851 0)
(1.02728 -0.017131 -4.2717e-22)
(1.00622 0.00748085 -3.24177e-21)
(1.00722 0.00524321 -2.35032e-22)
(1.03074 -0.00191305 3.33977e-23)
(1.03147 -0.00251545 -4.06485e-23)
(1.01467 -0.00307279 -4.24307e-23)
(1.01418 -0.00293207 1.60721e-22)
(1.01441 -0.00333157 6.05427e-22)
(1.15973 0.370364 1.41343e-20)
(1.09206 0.439996 -6.75243e-21)
(1.01208 8.43949e-05 -2.51069e-23)
(1.01371 0.000476848 -1.84572e-23)
(0.836801 -0.1627 1.98489e-21)
(0.858725 -0.15688 -1.4181e-21)
(1.00945 -0.00117496 -8.58467e-23)
(1.00901 -0.000990846 -3.89127e-22)
(1.0149 -0.000403065 -3.01157e-24)
(1.01545 -0.000515197 1.35573e-22)
(0.894163 0.0590331 0)
(0.903686 0.0339426 -2.28393e-21)
(1.00868 -0.00842715 8.58296e-23)
(1.00813 -0.00716117 0)
(1.14075 0.264623 -9.35781e-23)
(1.09475 0.370866 -1.42845e-20)
(1.01989 -0.000359162 -4.87031e-22)
(1.02019 -0.000251607 5.68533e-22)
(1.01353 -0.00738768 6.82961e-22)
(1.01407 -0.0081898 4.31984e-22)
(0.97912 -0.224536 -1.68726e-20)
(0.968252 -0.24381 -6.79771e-21)
(1.01182 -0.00445392 -1.50013e-23)
(1.01171 -0.00441996 5.63747e-23)
(1.01181 -0.00433359 6.00971e-22)
(1.01507 -0.00285415 -4.57547e-23)
(1.01486 -0.00276041 -6.37975e-23)
(1.01495 -0.00267547 -3.53635e-23)
(0.956748 -0.00262037 7.27734e-22)
(1.02283 0.0047234 4.69792e-22)
(1.02325 0.00424591 8.04789e-22)
(1.02347 0.00484459 -4.67877e-22)