/*--------------------------------*- C++ -*----------------------------------*\
| =========                 |                                                 |
| \\      /  F ield         | OpenFOAM: The Open Source CFD Toolbox           |
|  \\    /   O peration     | Version:  v2012                                 |
|   \\  /    A nd           | Website:  www.openfoam.com                      |
|    \\/     M anipulation  |                                                 |
\*---------------------------------------------------------------------------*/
FoamFile
{
    version     2.0;
    format      ascii;
    class       volScalarField::Internal;
    location    "300";
    object      V0;
}
// * * * * * * * * * * * * * * * * * * * * * * * * * * * * * * * * * * * * * //

dimensions      [0 3 0 0 0 0 0];


value           nonuniform List<scalar> 
9793
(
0.0430412
0.212594
0.0466994
0.133229
0.0460444
0.104346
0.168347
0.160451
0.0694619
0.0457483
0.03266
0.0675277
0.16629
0.157213
0.182514
0.167629
0.171409
0.180519
0.0595743
0.161554
0.0738119
0.0567283
0.129778
0.210928
0.121403
0.170573
0.16757
0.170552
0.0323973
0.0752111
0.0756988
0.159611
0.153491
0.17151
0.0425716
0.0749704
0.153656
0.0588218
0.14727
0.181858
0.0934092
0.185353
0.154433
0.174462
0.190682
0.140995
0.0371619
0.15608
0.0922586
0.123283
0.0412119
0.030142
0.0849859
0.0802078
0.0352372
0.0789184
0.0871014
0.0238935
0.0897202
0.126304
0.166343
0.081921
0.0828494
0.170362
0.0384845
0.159594
0.108682
0.0915888
0.064226
0.0336434
0.0413769
0.177522
0.122142
0.177808
0.0416227
0.0969445
0.106452
0.172175
0.13122
0.178318
0.124776
0.142541
0.157923
0.174627
0.0981224
0.153641
0.182085
0.0961579
0.0897275
0.14836
0.191555
0.0386227
0.132884
0.161778
0.0788076
0.17411
0.0753521
0.166605
0.127657
0.140969
0.156271
0.143249
0.13676
0.137589
0.178913
0.100883
0.075018
0.162889
0.0920213
0.154969
0.15794
0.0777511
0.104114
0.0818759
0.0292099
0.102345
0.134452
0.0396529
0.139524
0.163972
0.134704
0.138901
0.104955
0.0906735
0.0665635
0.0737415
0.023555
0.152239
0.131522
0.110884
0.182517
0.0909329
0.0940413
0.135063
0.0683572
0.0946155
0.167145
0.170567
0.125971
0.165415
0.0968622
0.121081
0.154893
0.138993
0.163711
0.154612
0.175499
0.159968
0.152105
0.0349227
0.0437463
0.193159
0.042674
0.046575
0.149276
0.117654
0.174312
0.11658
0.173097
0.131989
0.13459
0.152789
0.164111
0.0643539
0.195111
0.0871292
0.148564
0.0496062
0.166605
0.145518
0.13523
0.112982
0.192428
0.105637
0.0664769
0.052922
0.0924441
0.172252
0.105156
0.0357227
0.0213781
0.045729
0.163378
0.114114
0.0986922
0.136083
0.0262782
0.101259
0.101878
0.159453
0.0690271
0.11355
0.0947499
0.0757382
0.0867824
0.0404487
0.0554262
0.131771
0.0489049
0.137264
0.0597553
0.0651813
0.0749016
0.101736
0.0826163
0.166261
0.087006
0.150449
0.0977415
0.0539222
0.0384267
0.100025
0.0913777
0.0704955
0.0498261
0.17852
0.13094
0.0972642
0.150859
0.0809509
0.0416828
0.104532
0.0600208
0.139728
0.152653
0.0586975
0.107406
0.14613
0.0370083
0.0266786
0.205888
0.193979
0.0413049
0.143111
0.025268
0.0771528
0.109091
0.126505
0.0771834
0.155737
0.0972612
0.149611
0.124639
0.145368
0.123742
0.134515
0.171031
0.122551
0.141732
0.140061
0.0594043
0.0426665
0.0323716
0.0245634
0.118739
0.0663444
0.130179
0.0389428
0.105122
0.162521
0.119413
0.121267
0.0312624
0.147469
0.0476451
0.136186
0.166033
0.0362752
0.0603038
0.101418
0.129532
0.15817
0.0554371
0.0949302
0.156007
0.156112
0.0878139
0.0788804
0.136294
0.0255706
0.124662
0.159163
0.161763
0.17268
0.0177031
0.0780454
0.063325
0.0457126
0.172702
0.0826143
0.105217
0.11599
0.0919106
0.156972
0.160324
0.13198
0.0594188
0.0430471
0.142568
0.0621239
0.132802
0.108327
0.12541
0.155955
0.160351
0.121773
0.050325
0.0437872
0.109143
0.0939371
0.148424
0.12449
0.0453159
0.0700768
0.0689797
0.136135
0.152373
0.123481
0.0533059
0.0475488
0.121473
0.166145
0.0547636
0.177367
0.167025
0.0162738
0.05991
0.0874233
0.035812
0.152384
0.0395929
0.0430302
0.136615
0.0968839
0.0218389
0.152263
0.131491
0.0649722
0.152826
0.145709
0.0467014
0.10105
0.119237
0.0635473
0.149511
0.158089
0.166151
0.0603874
0.182068
0.0483435
0.0628058
0.0676657
0.0768078
0.138221
0.108302
0.0763365
0.0727395
0.178118
0.0289066
0.0373467
0.0237033
0.0279291
0.0733368
0.125362
0.0534597
0.136264
0.124821
0.134888
0.136621
0.130908
0.098877
0.0522328
0.0692075
0.0234501
0.0569565
0.0998423
0.119782
0.13186
0.033811
0.179878
0.059747
0.0743675
0.103874
0.13922
0.0596057
0.173206
0.146985
0.16061
0.0756582
0.0649084
0.0948791
0.0539519
0.0259758
0.129422
0.0540954
0.0258668
0.154325
0.178529
0.0539358
0.0379195
0.127102
0.146044
0.0461515
0.0538999
0.158921
0.0743569
0.111742
0.0646949
0.160506
0.0399137
0.0863275
0.0303996
0.0801118
0.140837
0.109467
0.110997
0.05687
0.11472
0.14918
0.0768532
0.14854
0.054532
0.12047
0.0571652
0.0285187
0.075306
0.103939
0.0580546
0.163212
0.0350954
0.15872
0.0711655
0.16331
0.119919
0.15982
0.111693
0.137234
0.104486
0.130996
0.137607
0.167227
0.0518895
0.0964936
0.133621
0.0397064
0.160388
0.101431
0.0580613
0.0670169
0.0583855
0.0347527
0.0992986
0.102064
0.10384
0.0663622
0.0405599
0.0388121
0.161721
0.127357
0.134379
0.108234
0.0239537
0.108583
0.137185
0.101866
0.15209
0.162876
0.080127
0.0337064
0.0972614
0.142647
0.0547999
0.174428
0.176314
0.172313
0.134188
0.0667428
0.128328
0.105
0.161216
0.153203
0.0928604
0.108534
0.160018
0.101935
0.123215
0.0960275
0.0587439
0.0703811
0.104835
0.172106
0.152372
0.0580885
0.0947094
0.0607234
0.154169
0.140064
0.125789
0.113205
0.116293
0.157893
0.0292221
0.139728
0.0959732
0.0464091
0.128723
0.0974054
0.14301
0.0742136
0.104266
0.0658697
0.154447
0.12092
0.0301429
0.101777
0.0298745
0.131387
0.0484679
0.133244
0.0247531
0.0971444
0.140819
0.105165
0.021389
0.100784
0.142081
0.115611
0.113941
0.135341
0.02308
0.0442673
0.0927589
0.103947
0.117012
0.0754406
0.151339
0.118351
0.0728399
0.0230133
0.153307
0.0980008
0.0364974
0.0967035
0.144955
0.0688033
0.165895
0.0231333
0.102392
0.0865401
0.0186638
0.122571
0.0847267
0.0439139
0.0967722
0.131247
0.122688
0.137515
0.162408
0.101019
0.0910354
0.136669
0.0400704
0.0242147
0.0653453
0.0408721
0.14399
0.026019
0.0936246
0.138646
0.0662958
0.0994775
0.15937
0.141366
0.139801
0.0440535
0.122637
0.0174102
0.150607
0.165482
0.0384153
0.0475888
0.0325238
0.0920303
0.10485
0.094028
0.0961706
0.0509032
0.0842081
0.129087
0.0534262
0.11154
0.137607
0.0449143
0.046327
0.0979333
0.0745608
0.097491
0.0411863
0.0435477
0.0444872
0.147361
0.135555
0.0651728
0.0443132
0.0734843
0.0468135
0.106973
0.0818848
0.0538279
0.0337573
0.129568
0.103298
0.136001
0.122902
0.124854
0.118606
0.114952
0.163372
0.118171
0.121769
0.124934
0.0697368
0.154483
0.0407351
0.141999
0.0703895
0.0704968
0.0328103
0.0253587
0.14667
0.11979
0.100118
0.142557
0.158713
0.130382
0.157604
0.123817
0.0644203
0.152625
0.0364829
0.160101
0.165139
0.0768988
0.0980402
0.115457
0.156465
0.0266264
0.135891
0.0830028
0.015953
0.0917944
0.157092
0.168736
0.0166523
0.130531
0.0233412
0.0374383
0.131166
0.134143
0.0888799
0.0705668
0.133572
0.110195
0.15945
0.162713
0.0983593
0.0348848
0.100095
0.0206211
0.0802947
0.0940821
0.0770991
0.134072
0.105129
0.12432
0.0302599
0.120844
0.0428884
0.0658055
0.0170102
0.0674307
0.119655
0.112963
0.0253242
0.119876
0.0912724
0.0229775
0.0197161
0.11916
0.14783
0.0895053
0.133063
0.150974
0.122282
0.142933
0.136551
0.0621404
0.1069
0.117873
0.130911
0.15354
0.121587
0.157646
0.0744595
0.156697
0.125525
0.0376645
0.148349
0.0303446
0.0720769
0.031352
0.10146
0.0620675
0.0979663
0.0738074
0.0194813
0.160496
0.127467
0.139327
0.0961842
0.055937
0.129206
0.140733
0.126745
0.117001
0.147065
0.119681
0.0258913
0.111215
0.0380166
0.0299923
0.0653266
0.0650768
0.155687
0.132113
0.160089
0.13097
0.0634218
0.124863
0.0844095
0.144805
0.157451
0.123998
0.117116
0.0883261
0.0974388
0.0898248
0.160421
0.10321
0.100524
0.0369036
0.146635
0.140878
0.135809
0.100491
0.122208
0.0928782
0.0248284
0.123542
0.143941
0.140767
0.1241
0.0730643
0.0386543
0.0439633
0.036784
0.140804
0.0208917
0.134254
0.136606
0.101535
0.0920774
0.114773
0.0495182
0.140732
0.0639284
0.132308
0.113895
0.152685
0.1551
0.128001
0.0853791
0.088383
0.0397578
0.114561
0.0575385
0.0422733
0.0155455
0.136289
0.0196798
0.12898
0.0250866
0.113973
0.14602
0.12595
0.14364
0.0356006
0.128402
0.0581301
0.165111
0.141697
0.156098
0.0414461
0.150927
0.0422424
0.122858
0.122511
0.149683
0.140235
0.0733244
0.130844
0.150315
0.123599
0.100083
0.140966
0.0680041
0.0787208
0.0920432
0.145364
0.1473
0.147403
0.111272
0.026039
0.101443
0.0969161
0.0392062
0.147176
0.164231
0.132326
0.144985
0.0414538
0.0336934
0.0576005
0.152895
0.0893796
0.120283
0.165409
0.0585271
0.0634137
0.152203
0.0529795
0.168832
0.065912
0.112923
0.0934764
0.0241986
0.133221
0.156885
0.0408828
0.150876
0.0284054
0.0852021
0.131256
0.139427
0.155515
0.133911
0.0612622
0.0250268
0.161697
0.151626
0.129594
0.159997
0.129047
0.151287
0.0617358
0.148541
0.148626
0.140225
0.107693
0.0320543
0.0703749
0.133628
0.0190422
0.145244
0.093205
0.0763016
0.1348
0.0742702
0.133228
0.10739
0.022961
0.131552
0.124815
0.153306
0.0535852
0.0685171
0.0233912
0.127521
0.128589
0.0266442
0.153898
0.160292
0.0327402
0.128924
0.0360025
0.143995
0.151428
0.14717
0.0544832
0.151695
0.170331
0.158504
0.151581
0.128817
0.0552807
0.031457
0.132944
0.034186
0.116867
0.0872083
0.0635535
0.0838958
0.0414806
0.0353278
0.115473
0.122376
0.0811647
0.0300197
0.0224881
0.118038
0.128863
0.147231
0.152867
0.0247841
0.0348384
0.0458039
0.144697
0.0334019
0.11842
0.125559
0.116866
0.147871
0.0751453
0.150232
0.122634
0.0247429
0.0754283
0.0268266
0.119321
0.0244476
0.0631081
0.0413789
0.140166
0.0978142
0.147646
0.156618
0.0722413
0.0469358
0.128507
0.174744
0.100933
0.136449
0.0335856
0.118131
0.14989
0.132711
0.0684362
0.136786
0.10522
0.146571
0.0217514
0.136005
0.0690136
0.126803
0.146527
0.0743553
0.155976
0.0191629
0.106425
0.0393788
0.0541881
0.151695
0.144141
0.0210333
0.128706
0.142078
0.110999
0.0234715
0.103067
0.115967
0.100106
0.153373
0.0653803
0.0827904
0.0313145
0.0479349
0.0967095
0.090299
0.105245
0.0631632
0.177498
0.0647592
0.100158
0.0710795
0.14502
0.139838
0.0628511
0.158746
0.0637185
0.124343
0.0763082
0.146541
0.0854976
0.0969469
0.144415
0.0959401
0.144238
0.101138
0.126249
0.0797835
0.076235
0.149551
0.134474
0.136612
0.0433521
0.0905935
0.151232
0.0280268
0.108516
0.0238049
0.0740108
0.129913
0.0967201
0.120099
0.10428
0.0882555
0.129354
0.0961836
0.144892
0.0272202
0.0709166
0.141001
0.117814
0.123479
0.10358
0.0598316
0.0860991
0.144173
0.0745382
0.129766
0.0652607
0.0197126
0.0683968
0.0747044
0.134576
0.0949188
0.0477952
0.0957551
0.137195
0.127009
0.133462
0.126075
0.0646174
0.143637
0.0240736
0.133457
0.10594
0.148269
0.023871
0.0762085
0.109027
0.0220703
0.0685281
0.141833
0.0801533
0.144389
0.0230692
0.0994746
0.158569
0.0211103
0.0430749
0.17835
0.115035
0.0331791
0.0888346
0.0610813
0.135877
0.0670136
0.0624447
0.149325
0.107654
0.0636497
0.132759
0.148018
0.158484
0.0733597
0.156599
0.158034
0.0228303
0.115811
0.0771787
0.0527258
0.155908
0.0613318
0.0976847
0.149642
0.04302
0.115246
0.0991142
0.0998167
0.157641
0.0730775
0.135806
0.0973265
0.0591987
0.129782
0.119707
0.0625946
0.103196
0.0818726
0.150703
0.168158
0.035494
0.092422
0.157656
0.101295
0.157431
0.0340834
0.123834
0.0605532
0.139122
0.151008
0.109485
0.13863
0.0261309
0.0934805
0.140217
0.145242
0.123184
0.144355
0.112387
0.128742
0.131152
0.0454872
0.118615
0.102435
0.0972669
0.163359
0.148513
0.142232
0.0596987
0.147481
0.0623383
0.080998
0.106277
0.0671686
0.0273582
0.141426
0.145344
0.0217078
0.113039
0.0201394
0.0162657
0.148726
0.146376
0.157676
0.0401146
0.0407092
0.130394
0.144818
0.157666
0.0245829
0.0408124
0.157392
0.0973221
0.0737805
0.115711
0.0321789
0.0344627
0.0154501
0.0243451
0.147122
0.0406309
0.0228491
0.136232
0.0302768
0.135361
0.144621
0.100033
0.14637
0.121881
0.0279002
0.020335
0.0242045
0.025611
0.156993
0.123052
0.025775
0.117557
0.131512
0.0619066
0.0678338
0.0336573
0.149945
0.143984
0.147316
0.0685981
0.105894
0.173715
0.125319
0.0668411
0.126001
0.0213809
0.0659015
0.069335
0.020122
0.0542486
0.102574
0.0696826
0.15684
0.0165006
0.0152428
0.0999953
0.149686
0.0982794
0.0182412
0.14571
0.0381999
0.0509939
0.149922
0.150258
0.116302
0.0303077
0.0323518
0.109534
0.0194568
0.093509
0.138693
0.141432
0.153687
0.0802857
0.0950839
0.0657436
0.028618
0.128965
0.15404
0.146016
0.134815
0.0268634
0.0656777
0.0241189
0.098428
0.108144
0.0395677
0.131465
0.1485
0.109367
0.148336
0.114882
0.0300076
0.0609658
0.153422
0.144392
0.130533
0.129661
0.149302
0.0479255
0.119139
0.0987053
0.118502
0.0191077
0.129593
0.019573
0.100747
0.0707637
0.0519018
0.112619
0.0343221
0.0670343
0.0187618
0.0274362
0.130825
0.038968
0.0445893
0.153405
0.0225039
0.0298058
0.0208883
0.0530406
0.148455
0.040052
0.103681
0.0246062
0.0934171
0.0219837
0.0252814
0.155169
0.0189774
0.0887284
0.0583501
0.0362065
0.0505042
0.021584
0.127945
0.0533833
0.113982
0.135749
0.0701592
0.08836
0.169319
0.0429327
0.0506978
0.0971855
0.113958
0.12841
0.0313507
0.0852352
0.122044
0.0773237
0.0664997
0.0251173
0.0984822
0.143115
0.0509648
0.029438
0.035783
0.0772197
0.146058
0.0543177
0.146968
0.14994
0.146575
0.163756
0.140817
0.0947636
0.0538277
0.0420232
0.11888
0.144876
0.15615
0.0358632
0.150426
0.0484978
0.115525
0.0183845
0.125674
0.149296
0.103163
0.0207584
0.0246805
0.150889
0.172819
0.0505656
0.0422137
0.145315
0.0962987
0.138739
0.0525309
0.117671
0.0736519
0.0570113
0.050889
0.106576
0.019077
0.148281
0.148615
0.137091
0.0460964
0.0344222
0.104489
0.14963
0.117431
0.0159263
0.0335072
0.0708742
0.0684751
0.0355733
0.140127
0.100451
0.0551367
0.0729957
0.0940496
0.0664764
0.153842
0.153592
0.0227112
0.0241873
0.16991
0.0351877
0.150488
0.0353852
0.0383187
0.11148
0.103649
0.0716724
0.116726
0.0746854
0.0785428
0.0366009
0.0283268
0.0633355
0.154246
0.101068
0.153618
0.0674134
0.0530869
0.0476252
0.0226603
0.101567
0.0615779
0.127128
0.0236138
0.0785231
0.0235602
0.0818374
0.0735085
0.156478
0.0250899
0.0412646
0.150995
0.026515
0.0653107
0.0735939
0.131477
0.095807
0.1484
0.170597
0.0345385
0.106943
0.0586085
0.0519201
0.036842
0.0402916
0.0246552
0.0880007
0.0351411
0.126405
0.142994
0.148206
0.0987342
0.169582
0.0265271
0.136486
0.104215
0.0745307
0.12408
0.0542738
0.148269
0.0489547
0.122518
0.119442
0.0470332
0.0737417
0.159249
0.0551062
0.0507176
0.0219715
0.0632643
0.124241
0.0669604
0.0219036
0.114948
0.023359
0.0264396
0.0761041
0.0959955
0.136283
0.0799451
0.0322239
0.149606
0.111225
0.0747155
0.0241637
0.0796965
0.0631581
0.0475808
0.0284238
0.0386355
0.0431616
0.0497561
0.0351699
0.128214
0.0729653
0.145597
0.0297115
0.0179116
0.0412062
0.0367242
0.0598887
0.0609944
0.103018
0.137642
0.100285
0.0527434
0.0778404
0.0493824
0.144831
0.0365631
0.0694345
0.100309
0.106211
0.154179
0.0537834
0.124157
0.0536868
0.0480253
0.0901823
0.0754152
0.0211113
0.128967
0.094047
0.0595668
0.101988
0.0365248
0.0772005
0.111289
0.0762562
0.147436
0.066851
0.0381185
0.0742724
0.0550714
0.0761067
0.0816233
0.0743887
0.0553096
0.0313189
0.0549504
0.123122
0.144464
0.0733104
0.0212549
0.0713579
0.0485327
0.147203
0.0817372
0.0671163
0.045605
0.0795608
0.100765
0.0617695
0.0777646
0.149101
0.135083
0.130853
0.135313
0.0456798
0.134897
0.0709864
0.0784795
0.0988888
0.15085
0.151268
0.0284068
0.0668666
0.150237
0.0699714
0.117347
0.0993124
0.0170692
0.126727
0.148229
0.118497
0.164623
0.0562368
0.12844
0.0671247
0.151773
0.119306
0.130425
0.150569
0.0556738
0.0919565
0.0619427
0.151508
0.0627246
0.0245586
0.0935161
0.116725
0.112719
0.0811391
0.0958324
0.117502
0.100138
0.0684685
0.0741232
0.165529
0.0345675
0.0857027
0.0956424
0.0161212
0.0247068
0.0952844
0.0906484
0.116368
0.0528479
0.097061
0.127567
0.0631901
0.147268
0.125866
0.103182
0.105308
0.0922012
0.105709
0.0816764
0.0190791
0.0232855
0.0976185
0.0979353
0.145788
0.143719
0.154637
0.0518015
0.135786
0.126043
0.0569098
0.101308
0.0996095
0.0573057
0.0779533
0.166024
0.046714
0.149516
0.0880705
0.1017
0.0867061
0.0933379
0.130532
0.155368
0.109925
0.0479969
0.146631
0.131549
0.151105
0.154787
0.126009
0.0505906
0.0908826
0.149212
0.0457109
0.0404829
0.0499647
0.151059
0.109931
0.0523434
0.0816488
0.102404
0.096696
0.0507636
0.102189
0.103581
0.153933
0.0256117
0.14027
0.0409639
0.0612907
0.072404
0.158507
0.148593
0.143954
0.095113
0.0625755
0.100582
0.0539815
0.0254013
0.0735634
0.141754
0.123543
0.0398025
0.0531162
0.117979
0.0228041
0.0757703
0.123332
0.152182
0.0632692
0.091944
0.132633
0.122524
0.0705335
0.112457
0.0815803
0.0349361
0.118098
0.0479828
0.0217943
0.0927217
0.0705263
0.10608
0.164249
0.108674
0.0597987
0.142096
0.0974142
0.0880941
0.0828039
0.035683
0.0735387
0.13425
0.0502356
0.136404
0.10971
0.108184
0.0950455
0.146759
0.118987
0.0909296
0.107648
0.099462
0.0605222
0.0697884
0.122294
0.133565
0.0959252
0.147265
0.153303
0.109994
0.127527
0.12968
0.0939072
0.0827038
0.0955476
0.146996
0.122681
0.0683942
0.143801
0.0872052
0.150094
0.108037
0.154241
0.0663917
0.0738125
0.0618114
0.0522373
0.144936
0.0513846
0.0860465
0.127135
0.113042
0.148013
0.0555615
0.0405782
0.0679771
0.0622361
0.117787
0.106889
0.0241141
0.0841564
0.152273
0.146451
0.0535814
0.0450923
0.0964467
0.117575
0.155957
0.157975
0.150341
0.141499
0.135978
0.154451
0.102544
0.112613
0.098266
0.11229
0.0179621
0.165324
0.150635
0.027706
0.0986941
0.146874
0.115698
0.162293
0.103509
0.0236859
0.107356
0.0614298
0.0834681
0.0595703
0.0493841
0.152673
0.151724
0.0740108
0.0211912
0.149647
0.100149
0.11033
0.106248
0.104772
0.0796239
0.0989124
0.136601
0.0950549
0.05973
0.0694855
0.123449
0.146281
0.142993
0.0980043
0.0377986
0.151953
0.0769356
0.0853169
0.024367
0.0976812
0.154083
0.123888
0.121671
0.104383
0.0811708
0.14249
0.0864961
0.149999
0.0970059
0.101589
0.0203814
0.111603
0.103564
0.117104
0.0417899
0.12603
0.109538
0.146895
0.0694588
0.0560658
0.0663269
0.171867
0.0604721
0.0363875
0.0997323
0.153159
0.097356
0.149447
0.143438
0.0789414
0.0824334
0.0280805
0.106637
0.119863
0.124987
0.0919101
0.0931297
0.116784
0.0722411
0.114542
0.0685185
0.0983368
0.118025
0.127127
0.0970174
0.0907345
0.120424
0.125419
0.143139
0.0939538
0.0558097
0.0970181
0.0193199
0.123932
0.118321
0.119128
0.102566
0.114706
0.0973104
0.109681
0.110761
0.148832
0.0964136
0.151736
0.102431
0.0525498
0.100158
0.148617
0.100833
0.14077
0.0395684
0.121843
0.0913568
0.0761782
0.149941
0.0759898
0.0997199
0.0226568
0.111309
0.132216
0.11032
0.0711413
0.110649
0.148877
0.0620184
0.0488983
0.02608
0.0890028
0.144272
0.0955969
0.153509
0.0245853
0.0957112
0.122148
0.0848213
0.0962888
0.11778
0.12905
0.131037
0.0918951
0.1194
0.0879476
0.0931038
0.0989381
0.117098
0.139161
0.126156
0.148867
0.0562391
0.102685
0.153298
0.0587617
0.0665995
0.0961499
0.0680648
0.1124
0.153474
0.148736
0.0623004
0.113124
0.0717449
0.132713
0.147584
0.0906197
0.0688336
0.166791
0.0972597
0.156289
0.0793091
0.0173075
0.1464
0.100664
0.0946952
0.0793213
0.0953219
0.0981435
0.119622
0.165504
0.136604
0.0958431
0.10513
0.15125
0.0862962
0.153506
0.115257
0.0992637
0.100942
0.138901
0.112659
0.0901976
0.0903857
0.0905852
0.109423
0.0903577
0.0441766
0.0916863
0.148505
0.147008
0.107272
0.0900635
0.0497888
0.0215931
0.131865
0.0674035
0.100237
0.0739337
0.144429
0.147226
0.147991
0.0737676
0.149672
0.0920427
0.0796222
0.0968637
0.0610598
0.0953077
0.0994741
0.0738191
0.0661962
0.118817
0.0517383
0.099789
0.0976264
0.149902
0.0696751
0.0931512
0.0933253
0.113444
0.0640095
0.115287
0.113026
0.110798
0.127176
0.11872
0.0976676
0.0440104
0.126446
0.0969074
0.0677183
0.102918
0.0994734
0.0963654
0.107943
0.0644574
0.0900701
0.121232
0.124566
0.057449
0.0991901
0.0357767
0.114214
0.0929724
0.14739
0.084346
0.115068
0.100553
0.141778
0.0786538
0.153714
0.0893788
0.105715
0.0941035
0.0965736
0.0686535
0.111732
0.153104
0.109334
0.14887
0.115801
0.103009
0.0827393
0.0358292
0.154559
0.12739
0.0968069
0.153358
0.107647
0.0561518
0.0653788
0.112152
0.144766
0.122825
0.123164
0.147919
0.154716
0.115526
0.103472
0.114602
0.0972169
0.128806
0.0829963
0.0969576
0.0972655
0.10057
0.135622
0.141673
0.110494
0.142267
0.100964
0.154064
0.113662
0.157253
0.102008
0.135538
0.116171
0.149343
0.153658
0.0961027
0.107105
0.156575
0.0854683
0.14998
0.100989
0.0966198
0.100294
0.111054
0.114264
0.151827
0.146286
0.096448
0.0635398
0.148451
0.130579
0.113414
0.155233
0.0659147
0.100544
0.0982377
0.0658323
0.117487
0.101626
0.155555
0.0824178
0.0557213
0.140018
0.12419
0.123977
0.116144
0.125355
0.151697
0.114118
0.116526
0.126453
0.0475205
0.172661
0.149765
0.151957
0.104703
0.134556
0.142289
0.0693287
0.106786
0.126221
0.150626
0.137392
0.149691
0.12656
0.148706
0.150682
0.148769
0.130387
0.104234
0.0822095
0.129835
0.117736
0.0212936
0.0977586
0.153346
0.106912
0.0349355
0.126307
0.111637
0.0809258
0.137479
0.149289
0.127989
0.151906
0.121949
0.122862
0.147554
0.116584
0.150224
0.0632196
0.0771844
0.0541567
0.0937623
0.140105
0.0811659
0.0447217
0.103263
0.0465002
0.150316
0.146019
0.128629
0.127809
0.126129
0.152962
0.094924
0.148481
0.150471
0.0918516
0.115725
0.112025
0.0996015
0.12065
0.125333
0.06849
0.0554097
0.121494
0.110978
0.148147
0.0875932
0.0799994
0.129868
0.0214245
0.149894
0.152568
0.0823113
0.0982937
0.151334
0.0641308
0.114145
0.147352
0.108888
0.152269
0.12817
0.154356
0.0795138
0.142512
0.119272
0.131957
0.105998
0.0684374
0.123392
0.0374131
0.134422
0.134113
0.127444
0.0606572
0.0408975
0.145064
0.123149
0.130014
0.122046
0.128555
0.0310531
0.100106
0.118132
0.105631
0.149
0.131576
0.0552505
0.109296
0.124603
0.135379
0.1011
0.148824
0.0782688
0.147616
0.142545
0.127193
0.104505
0.118837
0.0238601
0.119764
0.133415
0.0914805
0.141422
0.0305218
0.154232
0.116707
0.0887476
0.150388
0.109568
0.132776
0.0685074
0.169167
0.159716
0.0536768
0.135027
0.120532
0.131809
0.101061
0.0954778
0.0694115
0.0892168
0.151605
0.126029
0.123217
0.113358
0.0280956
0.142274
0.143337
0.138911
0.0622377
0.115304
0.107688
0.123857
0.11054
0.10528
0.111859
0.133032
0.107139
0.112684
0.130946
0.131201
0.120036
0.11066
0.124606
0.139031
0.108204
0.146491
0.090462
0.153188
0.109594
0.146035
0.0539197
0.13215
0.114124
0.133649
0.151191
0.113403
0.0325016
0.0211869
0.0981918
0.0420672
0.10078
0.101968
0.110377
0.0357982
0.0640247
0.116579
0.0362238
0.148985
0.141693
0.117429
0.110804
0.100641
0.149012
0.145711
0.154087
0.114024
0.112954
0.121148
0.149369
0.147866
0.0421577
0.13483
0.0705978
0.0906061
0.1486
0.101445
0.126173
0.147236
0.105329
0.0578668
0.117685
0.136248
0.100967
0.148459
0.0223224
0.141883
0.120626
0.157947
0.097528
0.136114
0.137367
0.03808
0.152879
0.11036
0.0983525
0.127647
0.105382
0.152464
0.103268
0.122708
0.144182
0.146323
0.146966
0.153211
0.0517488
0.0973094
0.14515
0.0969375
0.0971613
0.11924
0.13061
0.0991333
0.135531
0.127479
0.141598
0.131292
0.069017
0.0794449
0.0898556
0.131394
0.110818
0.148746
0.0806309
0.122042
0.111599
0.100391
0.0701309
0.136056
0.150033
0.0670523
0.077615
0.146235
0.115986
0.134051
0.149232
0.128588
0.0395283
0.134306
0.124771
0.146193
0.14062
0.142948
0.15285
0.129783
0.124989
0.148335
0.128034
0.136097
0.139847
0.0615437
0.148577
0.131599
0.152885
0.0475906
0.140652
0.115782
0.103747
0.11428
0.148404
0.132754
0.14913
0.151839
0.126188
0.136586
0.0918622
0.140544
0.132385
0.11679
0.0323349
0.0506166
0.123409
0.102313
0.146384
0.153355
0.135264
0.134397
0.13608
0.147334
0.152726
0.103873
0.152276
0.121249
0.115796
0.103634
0.113635
0.14063
0.0963656
0.129018
0.0691507
0.110837
0.116925
0.136091
0.152582
0.0969157
0.101937
0.128067
0.0564294
0.112231
0.0581916
0.0890965
0.120155
0.106865
0.150004
0.14099
0.16152
0.0979019
0.0356493
0.110128
0.116167
0.137663
0.048744
0.113558
0.0637668
0.116707
0.116666
0.14105
0.127479
0.115801
0.108663
0.128928
0.128955
0.121509
0.141497
0.120947
0.14011
0.125611
0.118797
0.101752
0.135988
0.0343039
0.0308578
0.138875
0.132623
0.0368121
0.0936227
0.125017
0.142594
0.12425
0.143123
0.150748
0.115788
0.0995386
0.127784
0.118394
0.105806
0.11911
0.126826
0.0722955
0.0770716
0.0705532
0.115949
0.0942974
0.10923
0.139507
0.14794
0.0911243
0.140437
0.0387035
0.058198
0.11801
0.15228
0.12741
0.123265
0.131421
0.125985
0.140839
0.118078
0.11832
0.13256
0.117198
0.101612
0.15321
0.140207
0.118203
0.121344
0.0877438
0.109503
0.152074
0.131454
0.0986995
0.103152
0.12513
0.119787
0.0996711
0.153133
0.11661
0.152842
0.125428
0.122699
0.152701
0.0745544
0.117231
0.0838056
0.15405
0.119094
0.146434
0.135157
0.0396023
0.101477
0.14001
0.146103
0.14801
0.153149
0.133311
0.13572
0.108156
0.128125
0.0459858
0.0760787
0.167478
0.107063
0.10002
0.123493
0.131874
0.148606
0.131851
0.143067
0.0906694
0.149673
0.116866
0.115509
0.12083
0.149149
0.0413761
0.11105
0.136003
0.14797
0.0822332
0.136081
0.0975811
0.028651
0.100201
0.1426
0.0452986
0.1299
0.147277
0.143855
0.129917
0.148773
0.0218691
0.123358
0.106919
0.143303
0.101146
0.12723
0.124812
0.126491
0.098207
0.142342
0.0982798
0.132777
0.152362
0.132371
0.0495578
0.139526
0.14558
0.13078
0.106441
0.0488826
0.152672
0.0555518
0.100661
0.125745
0.136605
0.128055
0.0991158
0.154028
0.147938
0.121436
0.134507
0.128908
0.105833
0.0554301
0.139641
0.131586
0.10959
0.105402
0.126961
0.147573
0.124049
0.0682003
0.139641
0.0347935
0.119358
0.108684
0.153927
0.15387
0.12683
0.135593
0.124976
0.152315
0.102897
0.0927252
0.120065
0.117973
0.12237
0.149344
0.129334
0.0357753
0.131705
0.0936101
0.144835
0.14876
0.0629785
0.117767
0.154029
0.130716
0.129992
0.0285738
0.142653
0.131888
0.119713
0.143783
0.130404
0.131149
0.0991734
0.145959
0.0533028
0.154091
0.114737
0.133173
0.124086
0.0772584
0.136841
0.124293
0.151865
0.142038
0.126268
0.130531
0.169688
0.0904493
0.12537
0.143096
0.116399
0.142586
0.105391
0.133973
0.120641
0.130253
0.0760028
0.11282
0.0577872
0.14299
0.139669
0.132521
0.13128
0.146337
0.111933
0.134687
0.108913
0.107335
0.12347
0.123056
0.130424
0.13709
0.13575
0.141183
0.125167
0.133488
0.140898
0.101519
0.128628
0.127868
0.139168
0.127769
0.0838806
0.131824
0.130838
0.156502
0.137002
0.0560274
0.0392186
0.0697532
0.142294
0.126484
0.123932
0.157502
0.111888
0.1472
0.138327
0.147251
0.155143
0.141191
0.0662609
0.134067
0.14214
0.140665
0.149039
0.149053
0.128741
0.128654
0.14338
0.0829352
0.14728
0.0348076
0.131149
0.14548
0.0978458
0.141272
0.14821
0.133169
0.152263
0.103215
0.143811
0.125391
0.142691
0.160002
0.112386
0.144326
0.106395
0.151088
0.13543
0.128854
0.14859
0.13494
0.138692
0.13294
0.153231
0.124062
0.119782
0.13666
0.130066
0.130069
0.0797505
0.0260593
0.133204
0.144439
0.0770949
0.138973
0.146026
0.13406
0.0364568
0.145768
0.0971658
0.0274785
0.148489
0.117894
0.147478
0.112839
0.141101
0.113885
0.148674
0.116035
0.134571
0.107858
0.132145
0.143164
0.156157
0.132169
0.0840989
0.0828751
0.113582
0.147465
0.136126
0.137994
0.12976
0.133398
0.137773
0.118621
0.129402
0.0987817
0.153111
0.151879
0.0256828
0.135301
0.145876
0.12562
0.148881
0.153165
0.130293
0.141644
0.136311
0.146105
0.147131
0.117673
0.15247
0.137038
0.103058
0.152862
0.148664
0.165028
0.0427823
0.080142
0.0336334
0.127714
0.133826
0.180054
0.132465
0.147727
0.0980783
0.117368
0.141987
0.152543
0.0990456
0.13028
0.0252278
0.132261
0.146115
0.121391
0.15203
0.15278
0.147331
0.145166
0.147453
0.140647
0.111914
0.146076
0.148532
0.13447
0.131527
0.0904388
0.146484
0.136057
0.147036
0.161805
0.0922398
0.140904
0.151581
0.161592
0.152353
0.104637
0.141859
0.133319
0.126987
0.102029
0.0934182
0.129519
0.142779
0.143472
0.0417557
0.0664351
0.145369
0.143798
0.105161
0.12624
0.155492
0.0884534
0.115304
0.148629
0.129125
0.130786
0.132733
0.148861
0.132984
0.117403
0.129615
0.147727
0.0909082
0.0615543
0.136078
0.0912329
0.110767
0.128942
0.0278454
0.147392
0.152266
0.146444
0.146088
0.134626
0.148688
0.154788
0.0263857
0.147318
0.146016
0.144719
0.148566
0.146484
0.0978852
0.13519
0.0496155
0.152976
0.14907
0.098833
0.131723
0.132709
0.128494
0.0717269
0.113892
0.1475
0.148542
0.143797
0.125022
0.135393
0.13446
0.159962
0.119218
0.132203
0.0868074
0.136498
0.136082
0.12659
0.133152
0.131982
0.18581
0.146036
0.14263
0.138271
0.137621
0.144939
0.147121
0.134345
0.12963
0.129987
0.154718
0.0902418
0.147294
0.14584
0.144419
0.135861
0.139973
0.147902
0.131472
0.114946
0.146544
0.111034
0.143571
0.125388
0.0555452
0.143184
0.101852
0.15237
0.146901
0.145813
0.133815
0.0989728
0.115194
0.135073
0.130441
0.153773
0.148021
0.144922
0.137267
0.132471
0.131798
0.115552
0.132147
0.137858
0.147544
0.128369
0.147538
0.146498
0.144852
0.148155
0.141129
0.132264
0.151261
0.138781
0.150933
0.136772
0.147063
0.101207
0.0683925
0.0640526
0.148694
0.104384
0.122717
0.134459
0.148297
0.0876288
0.131536
0.146812
0.100373
0.129153
0.102203
0.148644
0.127321
0.146854
0.132621
0.134947
0.14648
0.135632
0.135714
0.137214
0.146869
0.148239
0.126985
0.152911
0.132143
0.144555
0.147303
0.15167
0.145774
0.149369
0.148721
0.0542594
0.0763752
0.0401884
0.131617
0.153124
0.124661
0.132411
0.144445
0.129307
0.147693
0.112115
0.133173
0.152174
0.118249
0.151284
0.121844
0.148548
0.14869
0.127936
0.0723954
0.146216
0.124317
0.141501
0.146045
0.167244
0.145321
0.143229
0.137858
0.133861
0.143049
0.14614
0.130668
0.0942719
0.142753
0.161532
0.150772
0.171147
0.155821
0.143071
0.103774
0.122516
0.146071
0.131053
0.143089
0.117322
0.123952
0.160157
0.146976
0.14627
0.138619
0.135333
0.0971167
0.14819
0.132307
0.116793
0.142987
0.131713
0.14934
0.148838
0.166095
0.136744
0.14326
0.131317
0.153347
0.134335
0.101895
0.149781
0.147892
0.137349
0.0719472
0.148471
0.144464
0.134488
0.141522
0.132291
0.148846
0.147301
0.102933
0.152471
0.123506
0.150657
0.142553
0.148516
0.146505
0.138505
0.143631
0.151761
0.143593
0.147464
0.148561
0.148362
0.148922
0.147713
0.142375
0.148716
0.143723
0.133177
0.144417
0.132759
0.136602
0.134198
0.147773
0.142014
0.147454
0.115512
0.130967
0.0948608
0.142005
0.14607
0.148908
0.0530001
0.14731
0.149136
0.145652
0.148321
0.115524
0.148511
0.148577
0.148788
0.134389
0.144243
0.135138
0.0791325
0.145267
0.136701
0.149002
0.143038