/*--------------------------------*- C++ -*----------------------------------*\
| =========                 |                                                 |
| \\      /  F ield         | OpenFOAM: The Open Source CFD Toolbox           |
|  \\    /   O peration     | Version:  v2012                                 |
|   \\  /    A nd           | Website:  www.openfoam.com                      |
|    \\/     M anipulation  |                                                 |
\*---------------------------------------------------------------------------*/
FoamFile
{
    version     2.0;
    format      ascii;
    class       volVectorField;
    location    "550";
    object      ddt0(U);
}
// * * * * * * * * * * * * * * * * * * * * * * * * * * * * * * * * * * * * * //

dimensions      [0 1 -2 0 0 0 0];


internalField   nonuniform List<vector> 
10042
(
(0.000665 0.000145416 -4.23912e-18)
(0.00115382 0.000685156 1.19094e-18)
(0.000606938 -0.00159488 -1.46355e-19)
(0.00148722 -4.42207e-06 -7.04912e-19)
(0.012027 -0.00224809 -1.08592e-17)
(0.000903607 0.000653573 6.88115e-18)
(0.165754 0.00573527 -3.40895e-17)
(0.00728951 -0.0157876 8.31685e-18)
(-0.000855436 -0.00105203 1.19128e-18)
(0.00110899 0.000186016 -2.10003e-18)
(-0.0434414 0.0024073 -2.3051e-17)
(0.00122079 -6.572e-06 -4.16111e-19)
(0.00138274 -4.05613e-05 1.82616e-19)
(0.0025816 -2.25356e-05 -1.41948e-18)
(0.00226439 0.00231147 -2.52364e-18)
(-0.000588993 0.000496997 -1.84339e-18)
(-0.000435507 0.000471852 -1.03263e-18)
(0.00040424 3.20915e-05 -4.22939e-18)
(0.000544918 0.000160921 -2.3524e-18)
(0.0030196 0.0108395 1.43278e-17)
(-0.000942512 -0.000115248 -4.00134e-20)
(0.0178937 -0.0277021 1.80865e-17)
(0.00216068 -1.25395e-05 -4.30899e-19)
(0.00260667 -6.87112e-05 -2.51998e-19)
(0.00123175 0.000697916 7.61036e-19)
(0.0004009 -0.00865538 -2.06234e-17)
(-0.000810694 0.000743058 6.65345e-18)
(0.00277042 0.000780293 1.41275e-18)
(-0.000736685 -0.000703666 2.09966e-19)
(0.00246526 0.000308738 4.26163e-19)
(-0.000115173 0.000776029 -1.54463e-18)
(-0.00156041 0.000969534 1.35484e-17)
(0.00164443 0.000198067 8.93132e-19)
(0.00177907 -0.000647739 1.0179e-19)
(0.00420912 -0.00416241 -8.97979e-18)
(0.00274704 -7.61469e-05 7.33945e-20)
(0.000731921 -0.00788736 -9.49136e-18)
(-0.00293707 -0.0119957 -1.32094e-17)
(0.000898846 -7.92687e-05 -4.22306e-19)
(0.00657381 0.00170739 -1.80408e-19)
(0.00330135 0.0111089 1.26538e-17)
(0.00238965 0.00193861 -2.79759e-18)
(0.170486 0.00549344 2.8098e-17)
(0.00197807 0.000438623 1.31592e-18)
(0.0108816 0.000503521 -8.1506e-17)
(0.00233835 -0.0192112 -2.93873e-17)
(0.00214888 0.00127919 -3.95359e-18)
(0.000160128 -0.0313936 1.28475e-17)
(0.0023625 -0.00640415 -6.05525e-18)
(-0.0120315 -0.0198651 -5.8877e-18)
(0.000387185 4.44713e-05 2.07621e-18)
(-0.00266161 -0.000584602 8.8926e-18)
(0.00243955 0.00219399 -1.73419e-18)
(-0.00394996 -0.00220953 2.24291e-19)
(0.00105292 -0.00767737 -7.85199e-18)
(0.000169313 0.000638266 -4.88457e-18)
(-0.000758657 -0.000754415 -1.09116e-18)
(0.00214555 0.00122416 -6.59993e-18)
(0.00192596 -0.000680528 3.3273e-20)
(0.0026348 0.00212227 -3.0417e-18)
(-8.93878e-05 0.000767573 -1.1951e-18)
(-0.000347451 0.000600523 -4.12774e-18)
(0.00451204 -0.00411652 2.96803e-18)
(0.000502682 -0.00152069 7.17756e-19)
(0.000482049 0.00150999 1.85039e-17)
(0.0018263 -0.000859431 -2.72876e-18)
(0.000500211 0.00108011 -1.54501e-17)
(0.00330415 0.00952943 -2.04746e-17)
(-0.0398131 -0.00334373 1.18459e-19)
(0.000822355 -3.07956e-05 3.33328e-19)
(-0.00428099 -0.00193463 -2.25261e-18)
(0.00321026 0.011295 -3.25249e-17)
(0.0018845 0.000490226 6.55433e-19)
(0.00202692 0.00578372 -2.02705e-17)
(0.00111185 0.000990278 1.50045e-18)
(0.00399062 -7.48232e-05 6.17154e-19)
(0.0112415 -0.00091981 3.39198e-17)
(0.000449935 0.00021647 -4.72636e-18)
(0.00315865 0.00488314 -3.01868e-18)
(0.146952 0.0139539 5.35102e-17)
(0.00172728 -0.00621916 -1.97364e-18)
(0.0164224 -4.81911e-05 -2.07101e-17)
(0.00218485 -8.88058e-05 -1.07287e-18)
(0.00194487 0.00169189 -3.63038e-18)
(0.000610398 0.00108489 -2.19769e-18)
(0.000359301 0.000196792 -1.25633e-18)
(0.00151709 6.07607e-05 -3.113e-18)
(0.0185228 0.00437943 1.29634e-17)
(0.00186786 0.000533981 9.31469e-19)
(0.000915793 3.11165e-05 1.8307e-18)
(0.000935293 -0.00155114 -6.07755e-18)
(0.0102172 -0.00380054 1.81958e-18)
(0.00288457 0.000770204 -1.19642e-18)
(-0.00306226 -0.000585713 -4.63826e-18)
(0.00239162 0.000359315 3.84445e-19)
(0.000612111 -0.00050932 5.35408e-20)
(0.000668586 0.000142387 -8.52831e-19)
(0.00078926 -0.000297499 -5.54991e-19)
(0.00627144 0.00160197 2.67357e-19)
(-0.000798359 -0.000944674 1.05175e-18)
(-4.74411e-07 5.16721e-06 5.67989e-19)
(0.0184116 -0.000780019 4.79521e-18)
(0.0257877 -0.0172194 1.642e-17)
(0.000962569 0.000213548 1.42616e-18)
(0.00215557 0.000968902 1.18239e-19)
(0.0105029 0.00340816 1.90346e-18)
(0.0014694 0.000253052 2.64329e-18)
(0.000794812 0.000106078 1.82223e-18)
(-0.000718171 -9.57289e-05 1.178e-18)
(0.000130513 -6.55035e-05 3.64725e-19)
(0.00138412 -4.23756e-05 1.66129e-19)
(9.90624e-05 -0.000269092 2.66418e-18)
(0.00506727 -0.00110587 -1.59866e-18)
(-0.0459648 -0.00284659 2.76985e-17)
(0.000419969 0.00145005 -5.50971e-18)
(0.000291933 -0.00020202 -2.21391e-18)
(0.000105588 0.000489514 1.68252e-18)
(0.000470705 0.000189475 8.82808e-19)
(0.000412071 -0.000539388 -9.46614e-20)
(-0.0135217 0.00479962 5.91769e-17)
(0.00198075 0.000514371 -5.52597e-18)
(-0.00227855 -0.0172435 -3.46583e-17)
(0.00159761 0.000340379 -4.69053e-18)
(-0.000192233 0.000671523 -3.81342e-19)
(0.0180146 -0.00147514 1.95636e-17)
(0.00204017 -1.632e-05 2.49604e-18)
(-0.00394678 -0.0210499 -3.68323e-18)
(0.0044522 -0.00559316 1.08919e-17)
(0.0101206 0.00338603 6.16484e-18)
(0.000448584 -1.90004e-05 1.33663e-18)
(0.00328642 0.00504219 1.28816e-17)
(0.000775418 0.000820768 -1.49708e-17)
(-0.026783 0.0079709 5.90386e-17)
(0.0144936 -0.0192514 4.46312e-17)
(-0.000629989 -0.000892017 1.06474e-18)
(0.0130771 -0.000199349 -1.0796e-17)
(-0.00967792 0.00439701 2.9002e-17)
(0.00184202 -0.00151586 5.85802e-19)
(0.00213254 -0.0316877 -2.01641e-17)
(0.0191215 0.00495388 -9.33987e-17)
(0.0027558 0.00129423 5.74175e-18)
(0.000177344 0.000479131 2.99973e-18)
(0.00223732 0.00112108 1.39327e-18)
(0.0211211 -0.00579511 -1.456e-17)
(-0.00149209 -0.000662076 -6.29586e-18)
(0.000268446 -0.000265172 -2.74514e-18)
(0.0134492 -0.00326367 -7.70372e-18)
(-0.000728892 -0.000175132 -3.38148e-18)
(0.000466126 -0.000302957 3.21562e-19)
(0.0045522 0.000516777 5.87199e-19)
(-0.000603604 -0.00118877 1.26356e-18)
(0.000204674 1.121e-05 -3.03257e-18)
(0.0908232 0.0304028 -3.00668e-17)
(-0.0126803 0.0082504 -6.22275e-17)
(-0.00193689 0.000477503 4.01645e-18)
(0.00195013 -3.55737e-05 -2.45902e-19)
(0.000565592 0.00214047 9.14293e-18)
(-0.00055074 0.00058792 3.78544e-18)
(0.0131276 0.000267308 -6.80974e-18)
(-3.66115e-05 -0.00578101 -6.59866e-17)
(-0.0489528 -0.000796495 1.78341e-17)
(0.0141412 -0.0170093 -1.05522e-17)
(0.000166371 0.00066566 -9.52823e-21)
(-0.000516419 -0.00117159 -2.58932e-18)
(0.00241784 -0.000203773 -2.38978e-19)
(0.00076126 0.000770358 -7.83096e-18)
(0.00813422 0.00718068 2.99873e-19)
(-0.019323 -0.0107497 -3.69194e-17)
(-0.00385755 0.00167121 -2.2212e-18)
(-0.0126541 0.00897897 6.0787e-17)
(-0.00300826 -0.0021782 6.06366e-19)
(0.00216753 -0.00027575 1.90211e-18)
(0.0153514 -0.00351889 -3.57293e-17)
(0.00384923 0.0114048 -1.33335e-17)
(0.0052458 0.00574756 -2.68969e-18)
(0.208766 -0.00669526 6.41658e-17)
(-0.0515063 0.03197 3.75919e-17)
(0.00195214 0.00040506 1.32652e-18)
(0.00342349 0.00960056 -5.07116e-17)
(0.00744423 -0.00178918 1.97278e-17)
(0.000591446 0.00225236 6.18166e-18)
(-5.36519e-05 0.00222564 1.98198e-17)
(0.00113287 0.00116743 -6.31507e-18)
(0.0044696 -0.00530302 -2.5247e-17)
(0.00228046 0.00189716 -1.07924e-17)
(-0.0130519 0.00474536 -6.71902e-17)
(0.0171635 -0.0187988 1.48589e-18)
(0.00130971 -0.000750811 1.63473e-18)
(-0.0489759 -0.00533252 -5.2455e-17)
(0.00169227 -0.00351427 -4.53164e-18)
(0.00408454 0.0153303 -6.66334e-18)
(0.00269603 0.00123602 1.09549e-18)
(0.0929073 0.0325251 2.10087e-17)
(0.0308775 -0.00463881 8.50394e-18)
(0.0105437 -0.0189119 4.59515e-17)
(0.0262888 -0.016774 4.30903e-17)
(0.000478306 -0.00588034 -6.22012e-18)
(0.00122326 0.000289552 6.45421e-18)
(0.0020627 -3.84897e-05 -1.20742e-19)
(0.00319657 -0.00100489 -4.05616e-18)
(0.00433182 0.00608325 -2.916e-18)
(0.00117225 -0.000823476 3.27737e-20)
(0.000760074 -0.00030894 -6.99962e-19)
(0.00430616 0.0115413 -3.0694e-17)
(0.000564212 0.00117002 9.51801e-19)
(-0.000351561 -0.000368009 -2.04514e-18)
(0.00372089 0.0166354 -1.43051e-18)
(-0.00225245 0.000610915 1.28911e-18)
(0.000682958 3.93075e-05 4.99743e-19)
(0.00255639 0.000185295 -4.19981e-18)
(0.0378116 -0.0134173 -9.41953e-18)
(0.000675863 -1.12846e-05 7.94797e-19)
(0.00777386 0.00694418 -1.24674e-18)
(0.0117254 0.0129477 -1.06136e-17)
(0.00063197 0.00206787 -1.54632e-19)
(0.0174744 -0.0189658 7.01979e-18)
(0.00104898 0.000815269 -1.09011e-18)
(0.00179001 0.000320346 4.82067e-18)
(0.0139051 -0.00594424 2.44381e-17)
(0.000636612 -0.000358324 -4.89994e-19)
(0.005248 -0.00133531 8.53043e-19)
(0.000871759 0.00225017 7.52215e-18)
(0.0163513 0.012255 1.41052e-17)
(-0.00324756 -0.0126139 2.68068e-18)
(0.00339626 0.00319565 -2.64904e-18)
(-9.80268e-05 -0.00941104 -8.85664e-18)
(0.016036 -0.0190714 1.64393e-17)
(-6.99361e-06 -0.00023971 3.47783e-18)
(0.0171486 -0.0163378 3.67275e-17)
(-0.00457102 -0.00201123 -1.8332e-18)
(-0.000914519 -0.00108242 -3.74198e-19)
(0.00620165 0.0112454 -3.60087e-18)
(0.00218114 -0.000258523 3.85338e-19)
(-0.00467615 -0.00172731 -7.72871e-19)
(0.00114998 -0.0016702 3.52119e-18)
(0.00470749 0.00042371 4.00484e-18)
(-0.000827155 -0.000401025 -3.69436e-19)
(0.00163241 -1.80372e-05 -3.0279e-18)
(-0.00028561 -0.00397578 1.01509e-17)
(-0.00897335 -0.00493695 -1.82897e-20)
(-0.000192698 0.00068081 -1.11467e-18)
(0.00192381 0.000410251 6.13187e-18)
(0.00208197 -0.000225897 5.9815e-20)
(0.0055915 -0.000903181 -3.72953e-18)
(-0.000531644 -0.000237789 1.42332e-18)
(0.000293184 0.000773329 1.99515e-18)
(0.00229018 -2.19537e-05 -6.60267e-19)
(0.00227939 0.000974898 -1.11002e-19)
(-0.0031606 -0.00211942 1.69125e-19)
(0.000292617 2.29218e-05 2.28546e-18)
(0.000557524 -2.14476e-05 -4.75496e-19)
(0.000779347 -6.85378e-05 9.91103e-19)
(0.00444477 0.00133814 -1.84084e-18)
(0.0167834 0.0129705 9.76069e-18)
(0.0144502 -0.0165487 1.90121e-17)
(-0.0481499 -0.00533075 -3.21138e-17)
(0.00511649 0.00604234 9.53431e-18)
(0.00554459 0.00537855 -5.05979e-18)
(0.0023859 0.00238221 1.44916e-18)
(0.00360492 -0.0201099 1.26194e-17)
(0.200953 -0.0119185 2.88419e-17)
(-9.58142e-05 -0.00375276 8.22764e-18)
(0.00136875 0.000274366 -4.58834e-18)
(0.00165648 -1.71778e-05 5.56104e-19)
(0.00314455 -0.000899753 5.78198e-18)
(-0.000534271 -0.000378428 8.46539e-19)
(0.0197893 -0.02812 -1.19385e-17)
(-0.00238068 -0.00394351 1.63781e-20)
(0.00100683 1.21013e-05 1.03463e-18)
(0.00278932 0.000156538 4.7619e-18)
(0.00417907 0.00624932 2.10739e-19)
(-0.00382107 -0.0022271 -3.48106e-18)
(0.0122346 0.0124361 3.76147e-17)
(0.00540059 0.00561943 -2.01786e-18)
(0.0209845 0.00178721 2.70107e-17)
(0.00169733 -0.00354518 1.12609e-18)
(-0.00935645 -0.00457601 9.82204e-19)
(-9.57562e-05 -0.000349143 -3.62415e-19)
(-0.000531382 -0.00637912 -1.10455e-18)
(-0.00151141 -0.000795041 8.10413e-18)
(0.00797987 -0.00182203 -1.40792e-17)
(0.00173988 0.000328609 2.83353e-19)
(0.000765485 -0.00840971 5.33954e-18)
(-0.0231624 0.00935965 -1.62437e-17)
(0.000364671 -0.000337178 2.23783e-18)
(0.000232834 -0.001364 4.00604e-18)
(0.191619 -0.0118865 -8.63704e-17)
(0.00332276 -0.0194078 3.37206e-17)
(0.00193907 -0.000715951 -1.18713e-18)
(0.00045812 0.000793172 -3.73263e-18)
(0.00420422 0.00123922 5.72131e-19)
(0.210702 -0.00822876 2.94936e-18)
(0.0099867 -0.0111778 1.24656e-17)
(0.0215156 -0.00638844 3.00243e-17)
(0.000508479 3.66055e-05 -1.78597e-18)
(0.00193209 -3.43956e-05 -2.25104e-19)
(0.000101816 -0.000240856 1.11812e-18)
(-0.00082651 -0.00109951 -1.48959e-18)
(0.0172073 -0.01878 -3.37454e-17)
(0.00079333 8.86137e-05 -6.70388e-19)
(-0.000917029 0.000743467 -1.44193e-18)
(0.000885778 -0.000292833 -7.57546e-20)
(0.000754597 0.000813244 -2.09888e-18)
(-0.00519236 -0.0131039 -7.5789e-18)
(0.00298539 0.00215033 -5.84107e-18)
(0.013723 0.00369713 -2.24621e-17)
(0.0532943 -0.0107607 -2.0019e-17)
(0.00268035 0.00200279 -3.26105e-18)
(0.0750706 -0.0249538 7.07975e-18)
(-0.00122993 -0.000254469 1.62817e-20)
(-0.00200582 -0.00616244 3.59946e-18)
(-0.000786263 0.000775622 1.13795e-18)
(-0.0223112 0.00279113 -1.36335e-17)
(0.0180781 -0.00289757 -1.7896e-17)
(0.0411007 0.00119009 -4.48993e-17)
(-0.0441127 0.0425512 -2.33814e-17)
(0.00289143 -8.27258e-05 -1.03137e-18)
(-0.00255663 -0.00398877 2.77272e-18)
(0.00084912 -3.02684e-05 -1.44215e-18)
(0.00366944 0.00184356 7.45474e-18)
(0.000305714 -0.00913981 6.57603e-18)
(0.000204765 0.000103714 -3.45948e-20)
(0.00794779 -0.000594367 -1.23611e-17)
(0.00107523 -4.03942e-05 -1.81882e-20)
(0.00218352 -1.31745e-05 -1.19322e-18)
(0.00195892 0.000455369 -1.44842e-18)
(0.014185 0.00403311 2.0322e-17)
(-0.000652706 3.22996e-05 -1.5993e-18)
(0.0022872 -0.00326703 1.52333e-18)
(0.00108782 0.000737762 5.621e-18)
(0.00314953 0.00204171 -2.0031e-18)
(-0.0512783 0.00555481 -6.28216e-17)
(-0.0005482 -0.000227173 -3.5227e-19)
(-0.00193807 0.000531967 3.29773e-20)
(0.00121329 2.87817e-05 -1.52672e-18)
(0.000664901 -0.00143434 -2.33781e-18)
(0.0105102 -0.000158969 3.97459e-18)
(0.0106707 -0.0194375 -3.32715e-17)
(0.00575711 0.00523459 1.20095e-17)
(0.0063151 -0.0269243 4.22042e-18)
(-0.00467349 -0.0131071 6.37601e-19)
(0.00412826 -0.0050661 1.44424e-17)
(0.00112393 0.000794519 6.83088e-18)
(0.00244007 -2.24033e-05 -7.20447e-19)
(0.000599515 -0.00190896 1.12238e-18)
(0.000425611 2.6002e-05 2.86583e-18)
(0.0179078 -0.021851 6.73491e-18)
(0.00163661 0.00033082 3.66074e-19)
(0.0017758 -0.000797264 1.01712e-18)
(-0.00634525 -0.038956 7.99689e-19)
(0.000869837 -0.000254061 3.85716e-19)
(0.00414633 0.001822 1.40397e-18)
(0.00207323 0.00174338 9.73231e-18)
(-0.00493394 -0.0403305 -8.57145e-18)
(-0.000466654 -0.00153512 4.9646e-19)
(0.00325566 0.0030963 5.45813e-18)
(0.0098196 0.0030326 -8.12438e-18)
(0.00774174 -0.000403429 -1.74056e-18)
(0.00335657 -0.00126182 -4.61008e-18)
(0.000849832 0.000344341 -3.02335e-18)
(0.0125556 -0.0279132 2.23967e-18)
(0.0137295 -0.00360503 2.19392e-17)
(-0.00112904 -0.00261664 5.72887e-19)
(0.0102106 -0.00053809 2.8512e-18)
(0.00231682 0.000113629 -2.52711e-18)
(0.00154228 -0.000254793 1.97906e-18)
(0.00179028 9.17691e-05 -2.20887e-19)
(0.00392877 0.00191504 -7.01326e-18)
(0.0326059 0.000861288 -5.02495e-18)
(-0.00503444 -0.00431181 1.89463e-17)
(0.000518008 8.07404e-05 -3.99286e-18)
(0.0022777 0.00191829 5.3967e-18)
(5.52287e-08 5.83898e-06 -3.29631e-18)
(-0.00066193 7.02891e-05 -8.79292e-19)
(0.00359686 0.0109144 1.11707e-18)
(0.00097953 0.000314032 -6.12153e-18)
(-0.00122699 -0.000455048 8.28174e-19)
(-0.00991598 0.0050963 -3.68565e-17)
(0.00130941 -0.00023877 -1.01317e-18)
(0.0914526 -0.0112593 -6.21609e-17)
(0.0165167 -0.0213282 2.17453e-17)
(0.00228183 0.0058512 2.75355e-17)
(0.192207 -0.00639723 -3.14642e-17)
(-0.0464648 -0.00633386 3.47476e-17)
(0.00579984 0.00127612 2.80924e-19)
(0.005773 0.0113697 -1.17925e-17)
(-0.00149912 0.000623734 -9.82626e-18)
(-0.0113632 -0.020932 6.74327e-18)
(8.53584e-08 2.19853e-05 -1.57372e-18)
(0.00189214 0.00120374 1.59611e-18)
(-0.00905608 -0.0622447 -4.17704e-18)
(0.000439137 0.000440892 1.54464e-19)
(0.00362912 0.00196883 -6.68233e-18)
(0.000519865 0.0180847 -8.62098e-17)
(0.00138783 -1.01341e-05 6.07275e-19)
(-0.0019749 -0.000114993 1.87784e-18)
(0.0026021 0.00809696 2.7289e-18)
(0.00437237 0.0161286 2.05962e-18)
(0.0013077 -0.000862971 2.33056e-18)
(-0.000121422 -0.000237006 -1.34521e-18)
(-0.00377383 0.00221501 -6.51232e-17)
(0.0185872 -0.00219011 6.14724e-18)
(0.00286672 -0.000268295 -1.84006e-18)
(0.00292332 0.00940634 9.46798e-18)
(-0.0197567 -0.00508457 5.5554e-17)
(0.000293311 -0.000366655 5.69334e-19)
(0.000566648 5.27768e-05 -4.01273e-18)
(-0.000159263 -0.000325467 -4.86359e-19)
(-0.000425404 -0.00011916 2.20414e-18)
(0.00142561 -1.699e-05 7.03144e-19)
(0.000671827 -0.000314076 1.78234e-18)
(0.0373849 -0.0252666 2.35545e-17)
(0.0248749 -0.0163221 2.32978e-17)
(0.00196523 0.00125316 -9.5429e-18)
(0.0560149 -0.0109924 2.08684e-17)
(0.00131004 -1.81169e-05 -1.0183e-18)
(0.000711333 8.21386e-05 -3.92677e-18)
(0.0266458 0.00460905 -3.38368e-17)
(0.000383394 -0.00201187 3.68485e-18)
(0.0757766 -0.0099513 -7.89663e-18)
(0.0105304 -0.0115349 -1.92786e-18)
(0.00168185 0.00175941 1.65484e-17)
(0.000742875 -0.000412189 1.97822e-18)
(0.000442179 -0.000225272 -1.00036e-19)
(0.0129998 0.00941001 -1.81482e-18)
(-0.00297035 -0.00229679 1.21403e-18)
(0.00584732 0.00150658 -5.24784e-20)
(0.00238054 0.000626769 2.46699e-19)
(-0.0426249 0.00273895 6.65263e-17)
(0.000618851 0.00194364 -1.05937e-17)
(0.0350271 0.000650979 9.79954e-18)
(0.00227511 0.00218156 -1.02402e-17)
(0.00139065 -5.07796e-06 1.30321e-18)
(0.000322309 -0.000205788 -4.68573e-19)
(0.0213432 0.0112745 -2.09922e-17)
(0.00121939 5.336e-05 -1.09818e-18)
(0.000881581 0.0039856 -7.54194e-18)
(0.000668563 -1.38559e-05 -1.52978e-18)
(-0.001062 -0.00146517 -1.56037e-18)
(-0.00259611 -0.00214824 4.51664e-17)
(0.000490695 -0.00572368 3.62918e-18)
(-0.000499997 0.000445851 -9.59654e-18)
(0.00174062 -2.76543e-05 2.44052e-20)
(-0.00874233 0.00246771 -1.76025e-17)
(-0.000293419 -7.51998e-05 6.93263e-19)
(0.000820018 -0.0058438 -5.38914e-18)
(0.00278379 -0.000635331 -7.41114e-19)
(-0.000536695 -0.000370659 -6.1485e-19)
(0.0602132 -0.0144204 -1.3559e-17)
(0.191382 -0.00231129 5.41751e-17)
(-9.63191e-05 -0.000175731 -5.30489e-19)
(0.000344426 0.00134812 -1.73284e-17)
(-0.00525615 -0.00470172 -6.3182e-18)
(9.00624e-05 -2.445e-05 1.00431e-18)
(-0.000944285 0.000400969 -4.71478e-19)
(-0.000287662 0.000646434 -4.86932e-18)
(-0.0104576 0.00295309 4.08274e-17)
(-0.000170477 0.000745865 -3.792e-18)
(0.000524954 -1.42496e-05 -6.63668e-19)
(0.00488295 0.00283424 1.46689e-18)
(0.0127265 -0.0194352 -1.56828e-17)
(0.0129498 -0.00636092 8.86002e-18)
(0.000540047 2.91337e-05 7.15349e-19)
(0.007312 -0.00211373 -4.28485e-18)
(-0.00891679 -0.00286985 -4.28804e-18)
(-0.00549327 -0.0139406 -1.18698e-17)
(-0.00047143 0.000506312 -4.93851e-18)
(0.000844255 0.000367092 -4.45685e-18)
(0.0147193 -0.0190327 -5.80192e-18)
(-0.000776629 -0.00252531 2.81541e-20)
(0.000775622 8.05155e-06 1.35639e-19)
(0.00289884 0.00480653 2.67388e-17)
(-0.000271214 -0.00119241 7.92999e-19)
(0.00136344 -0.000291541 -1.42115e-18)
(0.000935428 0.00234667 -3.61687e-18)
(0.000840398 -0.000122506 1.16238e-18)
(0.00676456 0.00483391 3.93317e-18)
(0.00148542 0.000253395 -1.97849e-18)
(0.00127264 7.49516e-05 -2.61887e-19)
(-0.0465134 0.00129527 3.72924e-17)
(0.00192361 -0.000177561 5.72983e-20)
(-0.00270811 -0.00193076 -1.93046e-18)
(0.00108031 0.000405098 1.85676e-18)
(0.00277704 0.00056686 -6.13978e-19)
(0.0078051 -0.0010237 1.60175e-17)
(-0.0003973 -0.000157536 2.31357e-18)
(0.000138589 -0.00134438 -1.81584e-19)
(0.0393439 0.00304972 -7.02174e-17)
(0.00247946 0.000501576 -1.55094e-18)
(0.108977 0.0122438 2.67753e-17)
(0.000205103 -0.00358073 -4.18955e-18)
(0.000245191 1.04122e-05 -1.70681e-18)
(-1.96791e-05 8.93308e-06 4.21085e-19)
(0.0193121 0.000173147 -5.69749e-18)
(0.0024773 0.000345367 6.86918e-18)
(-4.07374e-05 0.000462357 -1.69867e-19)
(-0.000183695 5.58625e-05 -4.57738e-19)
(-0.00187462 -0.00275181 7.0655e-18)
(0.00407749 0.00345117 1.21855e-17)
(0.153271 0.00768091 -4.41256e-17)
(0.00048212 -3.6226e-05 2.07308e-18)
(0.0065519 0.00494037 -5.86664e-19)
(0.00346977 0.014928 -3.62828e-18)
(-0.00610866 -0.0140298 -5.85766e-18)
(0.000659263 4.79001e-05 -8.44108e-19)
(-0.000265225 0.000549857 -3.80755e-18)
(-0.000729427 -0.00167806 2.6679e-18)
(0.000464067 0.000228191 -1.28631e-18)
(-0.000924157 -0.000200235 2.32162e-19)
(-0.00318486 0.0392118 2.52671e-17)
(-0.0107778 0.00386506 7.99825e-17)
(0.000432748 0.000449351 -5.8044e-18)
(0.00414967 -0.00578573 -3.25809e-17)
(-0.00543866 -0.00926883 1.24669e-17)
(-0.00586333 -0.00894496 -1.29631e-17)
(0.000651082 0.00104714 -8.37648e-19)
(0.00148941 -3.06269e-05 2.39481e-19)
(0.0123467 -0.0205119 6.15687e-17)
(0.0133466 0.00893742 -1.58997e-17)
(0.00372463 0.0151694 8.79361e-18)
(-0.000209057 -0.000385083 -2.12188e-18)
(-0.000888199 -0.00183992 -3.99536e-18)
(0.000563695 -0.00189374 -3.92503e-18)
(0.00195586 -0.000235428 5.78766e-19)
(-0.0261205 0.00200767 2.00067e-17)
(0.00845378 -0.00227618 -4.1825e-18)
(-0.00168835 -0.00277232 -2.07002e-18)
(-0.000216243 -0.000759997 6.85682e-19)
(0.001451 -3.10962e-05 1.91735e-19)
(0.000914258 0.000922959 -4.19621e-18)
(0.0047362 -0.0200182 -3.63395e-17)
(0.000307183 -0.00597185 1.58404e-17)
(0.000242143 0.000732716 -2.88302e-18)
(-0.0120251 0.00205784 2.14659e-17)
(0.00491474 0.0153458 -1.88119e-18)
(0.0106208 0.0138589 -1.27827e-17)
(0.0109359 0.00302885 -8.57868e-19)
(-0.00094235 0.000435312 4.04229e-18)
(-0.000590877 -0.00090823 2.46158e-18)
(-0.0172274 -0.0226433 -1.93224e-18)
(0.0125237 -0.00385966 1.70756e-17)
(-0.0173398 0.0146221 -7.46205e-18)
(-0.0318234 -0.014512 6.03935e-17)
(0.00279698 0.00304046 -8.47412e-18)
(0.000774855 0.00408511 1.18379e-17)
(0.000728472 0.000167981 -1.90864e-18)
(0.00175607 -0.00328678 -2.87329e-18)
(0.000889376 0.00133178 -1.02923e-17)
(0.000993385 0.000192378 2.52902e-18)
(-0.0482755 0.000145511 -1.59366e-18)
(0.00237518 -2.08903e-05 1.33895e-18)
(-0.00121226 -0.000240384 3.05597e-18)
(0.000184006 -0.0200471 1.79198e-17)
(-0.000139923 0.00020989 2.8125e-18)
(0.012937 -0.0379538 4.26578e-18)
(6.13866e-05 -0.00338593 -4.49361e-18)
(0.0123767 -0.0230368 2.03593e-18)
(0.00640653 0.000852597 1.1912e-18)
(-0.000329846 0.000179832 5.43471e-19)
(-0.00210785 -0.00401681 -3.72891e-18)
(0.00411164 -0.00447019 9.14759e-18)
(-0.0172213 -0.0129659 8.73025e-18)
(0.0110464 0.00267103 5.23614e-18)
(0.00884822 0.00889493 -1.05183e-18)
(0.00135931 4.13739e-05 -4.22669e-18)
(-0.0135103 -0.019827 2.16582e-18)
(0.00315466 -0.00124245 -2.42799e-18)
(0.000719807 -0.000456014 1.99766e-20)
(0.00127869 0.000249138 -4.28966e-18)
(0.00110152 -0.00191687 -4.23963e-19)
(-0.000581705 0.000855944 -8.15347e-19)
(0.00291634 0.00314905 1.16876e-17)
(0.0126397 -0.00679062 -3.11993e-18)
(0.00358294 0.00700128 4.71127e-18)
(0.000599255 0.000727545 -4.41257e-18)
(0.00255999 0.000565908 1.52223e-18)
(0.000286431 4.87656e-05 1.38488e-19)
(0.000698943 0.000356761 -5.8942e-18)
(0.00548875 0.0110916 1.47468e-17)
(-8.35731e-05 -4.89278e-05 -1.28581e-18)
(0.00279018 -0.000370461 -7.41986e-20)
(0.0149772 -0.0281365 -1.84301e-18)
(0.000452379 -0.000112719 -1.67317e-18)
(0.0128467 -0.00336775 -3.33382e-18)
(-0.019168 -0.0310961 -3.41294e-18)
(0.00022293 0.00079448 -1.04813e-18)
(-0.0127375 0.00486479 -7.12823e-17)
(0.0032986 -0.0129236 -1.50571e-17)
(-0.00088186 0.000241286 2.15545e-18)
(0.0194199 -0.0180239 5.01627e-17)
(0.000622129 -0.00186514 -1.49872e-18)
(0.000661184 3.21101e-05 1.44151e-18)
(0.000496196 0.000749511 -2.83559e-18)
(-0.000606486 0.000646533 5.36778e-18)
(-3.71726e-07 1.48266e-05 -3.19199e-18)
(0.00255617 -0.00310401 2.37774e-19)
(0.000805134 0.000976512 9.54076e-18)
(0.00568818 0.0150275 3.68793e-18)
(0.00256652 0.00118977 -3.45142e-18)
(-0.000549367 0.000557562 4.18449e-18)
(0.00107154 -0.00104292 3.62452e-19)
(0.00806704 -0.00120801 -5.03079e-18)
(0.00315709 -0.00933198 1.65193e-18)
(-0.000436674 0.000661779 3.56108e-19)
(-0.00328289 -0.00538858 1.29714e-18)
(-0.000571206 -0.000862907 -2.62454e-18)
(-0.00363984 -0.0116298 -1.29218e-17)
(0.000115342 0.000652159 -4.2623e-18)
(0.0066999 0.00116906 3.26115e-18)
(-0.00145662 -0.0004999 -3.31914e-19)
(0.000628354 0.00252862 -7.52515e-18)
(0.000377455 -0.000253198 -3.97814e-20)
(0.00168593 2.70019e-05 3.61521e-18)
(0.0693008 -0.0151783 6.09334e-18)
(-0.000201581 -0.000318078 -1.74246e-19)
(0.00546241 0.0107091 1.77985e-17)
(-0.000219703 0.000626997 5.52161e-19)
(-0.00266091 -0.00334183 4.61715e-18)
(0.000972478 -0.000168807 -6.24761e-20)
(0.000451631 -0.0106166 -4.3132e-18)
(0.00103238 0.000416489 1.84824e-19)
(0.00390736 -0.0131368 2.57775e-18)
(0.00138716 -0.000777351 7.24183e-19)
(0.0192352 -0.0171768 -3.31706e-17)
(-0.000251534 9.54903e-05 -2.72956e-18)
(0.18023 -0.00285572 -2.22167e-19)
(-0.000800257 -0.000132684 5.37584e-19)
(0.00301083 0.00202258 -1.01647e-17)
(-0.00116935 8.45137e-05 4.74753e-18)
(0.0010723 0.000870763 3.63413e-19)
(0.00204555 0.000159601 3.65318e-19)
(0.00266438 -0.002966 4.06045e-20)
(-0.000418231 0.000841117 9.21285e-18)
(0.0029546 0.0109583 -2.10964e-17)
(-0.0172685 -0.00241131 -2.88155e-17)
(0.0118023 -0.0403083 -7.05558e-18)
(-0.000947112 -0.00487546 1.79331e-17)
(0.00596342 0.0049854 -1.0948e-17)
(0.00111163 -0.000326231 4.08404e-20)
(0.00707021 0.00424903 -3.81725e-20)
(0.0017647 -0.0198949 -1.03407e-17)
(0.000846821 0.000170328 1.80796e-18)
(0.00286545 0.0046052 -2.03549e-17)
(0.00877424 0.00916962 -3.24072e-19)
(-0.012108 0.0121361 -1.91396e-17)
(-0.0211608 -0.030163 7.82818e-19)
(0.0204372 0.00814954 -2.28679e-17)
(0.00422475 -0.0047066 -1.18535e-17)
(0.00163947 0.000332382 -7.38354e-19)
(0.000169357 0.000134222 -2.29149e-18)
(-0.00221497 -0.00597052 -7.5759e-18)
(0.00208562 -0.00337929 6.43394e-18)
(-0.0165045 -0.011631 5.90136e-19)
(0.00350888 -7.29119e-05 -7.47101e-19)
(0.00352566 -0.00154382 -3.33579e-18)
(0.0142718 -0.0159369 1.36405e-18)
(0.000174617 9.77169e-06 -1.17277e-18)
(0.000392333 0.000368245 4.72123e-18)
(-0.00334654 -0.00572886 -1.48829e-17)
(0.026391 -0.0051815 2.91477e-17)
(0.00305574 0.00190089 3.10484e-18)
(0.00686673 -0.00206426 -2.37309e-18)
(-0.0190796 -0.022363 -4.33174e-19)
(0.000380905 0.000149786 -3.84377e-19)
(0.149916 0.0142978 -3.53812e-20)
(0.00189755 -9.36261e-05 3.29088e-19)
(0.00175419 -0.000302744 7.61476e-19)
(0.00215169 0.000228617 -1.42119e-18)
(-0.000210164 -0.00122761 -7.22507e-19)
(-0.020342 0.00325429 7.75828e-17)
(0.00105977 -0.0226541 1.51834e-17)
(0.00623067 -0.000845639 3.67682e-17)
(0.000454012 3.55024e-05 1.69124e-18)
(0.0286736 0.0135394 3.56923e-17)
(-0.012649 0.00452929 4.62047e-17)
(0.0171171 -0.020821 2.40407e-17)
(-0.0156598 -0.0115898 3.76607e-18)
(0.00363465 -0.02092 -4.26531e-17)
(0.0165103 -0.0165458 -5.07094e-17)
(0.00811174 0.00346168 -2.08505e-18)
(0.00150282 0.000755104 5.08978e-18)
(0.000173286 2.84115e-06 8.89907e-19)
(0.00303682 0.0049664 -8.38654e-18)
(-0.0304969 0.00300425 -3.20811e-17)
(0.00113819 -0.000334608 -7.44984e-19)
(0.00513113 0.00303932 2.31307e-18)
(0.0821885 0.000762247 -3.97207e-18)
(0.00177736 0.000214615 -4.53338e-18)
(0.00158038 -7.71554e-05 -2.75541e-18)
(0.000973021 -0.000433312 -1.4957e-19)
(0.00300272 0.00111869 8.22407e-19)
(0.00193149 0.000166756 -1.2968e-18)
(-0.0006696 -0.00159278 1.09617e-17)
(0.0187116 0.000776924 -5.80383e-18)
(0.0354568 -0.0106433 -1.41764e-18)
(-0.000831902 -0.00154089 -1.76094e-18)
(0.00175121 0.000329785 -2.1065e-18)
(-0.0295371 0.00689473 -5.21501e-17)
(0.0858366 0.0403316 -2.54144e-17)
(0.00104566 -0.000281025 8.13395e-19)
(-0.000500998 0.000519544 9.77764e-18)
(0.000427932 5.33191e-05 1.76358e-18)
(-0.000282234 -9.26346e-05 -8.74487e-19)
(0.0265617 0.00572634 2.71185e-17)
(0.000186575 -0.0234307 -6.19546e-18)
(0.0110302 0.0126637 1.58853e-17)
(0.00216115 0.00105975 -7.68984e-19)
(0.00210565 -8.83886e-05 5.39973e-18)
(-0.00125029 -0.00113566 -2.16501e-18)
(0.000465589 0.00236383 -7.82334e-18)
(-6.32715e-05 0.00078313 4.74366e-19)
(-0.00116182 -0.011053 7.74553e-18)
(0.00211758 0.0017801 -2.20243e-18)
(0.0452039 -0.00799111 -5.56763e-17)
(3.5501e-05 0.000447928 1.13042e-18)
(0.00175674 0.000245578 3.67002e-18)
(0.00927723 0.00159782 -1.08989e-17)
(-2.59571e-05 -0.000354551 1.11702e-18)
(-0.0098737 -0.0120537 9.04342e-19)
(0.0064261 0.00855909 -3.93528e-18)
(-0.00205532 -0.00379546 6.7404e-18)
(-0.0124816 0.000914611 -2.5134e-19)
(-0.000962553 0.00476657 -6.81305e-17)
(0.00191996 0.000406671 8.38784e-19)
(-0.000919134 -0.000214934 4.87972e-19)
(0.0999033 -0.0173694 5.59369e-17)
(-0.0416103 0.00324359 1.90672e-17)
(0.00674628 0.00337207 -3.39564e-20)
(0.000887753 -0.00178218 -6.54885e-18)
(0.00304077 -0.0206671 3.18022e-17)
(0.00506196 0.011827 -1.4577e-17)
(0.00127766 0.00387935 -3.48519e-18)
(0.00147332 0.00070192 -7.74323e-18)
(0.00144965 3.10284e-05 3.57822e-20)
(-0.000716237 -6.63849e-05 2.08566e-19)
(0.0127415 0.0128999 6.92146e-18)
(-0.000844553 -0.00471902 -2.03553e-17)
(0.00489817 0.010254 7.99115e-19)
(0.000434868 3.57959e-05 -5.5863e-19)
(-0.050798 0.00255158 7.08751e-17)
(0.03175 -0.00115906 3.74294e-17)
(-0.000536308 0.000572667 8.84224e-18)
(0.000685886 0.000512205 -1.31074e-18)
(0.00238288 0.0110747 1.07368e-17)
(-0.00217708 0.000636683 -4.64011e-18)
(0.00102698 -0.000162965 3.06507e-19)
(0.00454796 0.00108203 -3.66824e-19)
(-0.0244405 0.0080843 -3.365e-17)
(0.0008142 0.0177712 3.92618e-18)
(0.0741363 -0.0173811 4.49237e-18)
(-0.00245585 -0.00183856 2.84169e-18)
(0.00545767 -0.01709 3.76929e-17)
(0.0077856 0.00316768 4.40945e-19)
(0.000839732 -8.34079e-05 -2.75421e-19)
(0.000929785 -2.05138e-05 -2.88682e-19)
(-0.00108788 0.000452794 -4.84383e-18)
(0.0133657 0.0118363 -1.72394e-17)
(0.000513254 0.00014048 1.08656e-18)
(-0.000156969 0.000536212 -1.93e-18)
(0.00494464 -0.0173455 -3.68441e-17)
(0.000615572 0.000988161 1.19658e-17)
(0.0136703 -0.00536673 -1.56937e-17)
(-4.57877e-05 6.57883e-05 4.60415e-19)
(-0.00241575 0.000801279 -3.13936e-18)
(0.00107117 -3.4977e-05 -4.19263e-20)
(0.000617856 0.000685149 8.99693e-19)
(0.014301 -0.0191595 -7.09654e-17)
(-5.62056e-05 0.000159435 3.40303e-19)
(0.000739861 -6.71521e-05 1.06841e-18)
(0.00521086 -0.0112985 4.60934e-18)
(0.00735467 0.00713589 -5.18096e-20)
(0.00613247 0.0138878 3.36583e-18)
(-0.000940222 0.000224833 -1.93421e-18)
(0.0150754 -0.0101506 6.89914e-18)
(0.0772668 0.0452583 -1.41989e-17)
(0.113653 0.0124684 -1.52569e-17)
(0.00194639 0.00189879 -7.11717e-18)
(-0.0153759 0.00281579 -2.0411e-17)
(-0.00193476 0.000318608 -1.06597e-16)
(0.00186216 0.000225456 9.64713e-18)
(0.00131057 -3.82428e-05 -5.8392e-19)