/*--------------------------------*- C++ -*----------------------------------*\
| =========                 |                                                 |
| \\      /  F ield         | OpenFOAM: The Open Source CFD Toolbox           |
|  \\    /   O peration     | Version:  v2012                                 |
|   \\  /    A nd           | Website:  www.openfoam.com                      |
|    \\/     M anipulation  |                                                 |
\*---------------------------------------------------------------------------*/
FoamFile
{
    version     2.0;
    format      ascii;
    class       volScalarField;
    location    "550";
    object      ddt0(k);
}
// * * * * * * * * * * * * * * * * * * * * * * * * * * * * * * * * * * * * * //

dimensions      [0 2 -3 0 0 0 0];


internalField   nonuniform List<scalar> 
10042
(
-9.75135e-09
1.31339e-07
4.55627e-08
4.10336e-07
0.00672525
1.01557e-07
-0.011373
0.0039453
-1.35991e-07
1.23319e-07
0.00207041
3.83948e-07
2.40571e-07
4.07107e-07
6.39352e-08
-1.37535e-07
-1.18685e-07
6.02911e-08
-2.86631e-08
-2.14871e-07
-1.83915e-07
5.00568e-06
3.70815e-07
4.09781e-07
1.45924e-07
-3.90695e-07
-1.29861e-07
9.51177e-08
-1.73607e-07
9.57503e-08
-5.00677e-08
6.9521e-05
2.05441e-07
-2.0377e-08
-7.89287e-08
4.27111e-07
-3.52606e-07
-5.26082e-07
1.61527e-07
6.48475e-08
-1.37933e-07
8.49563e-08
-0.00984617
1.7098e-07
-2.79657e-05
4.33657e-07
1.65308e-07
1.11417e-06
-2.24801e-07
2.4085e-07
5.24988e-08
-2.06011e-07
1.67783e-07
-3.83932e-07
-3.47599e-07
-1.15315e-08
-1.78595e-07
1.71106e-07
1.67389e-08
2.01075e-07
-4.78047e-08
-1.10863e-07
-6.62658e-08
3.24473e-08
4.14934e-09
-4.20173e-09
2.28767e-08
-1.13503e-07
0.00635189
2.4539e-08
-3.98984e-07
-1.07929e-06
1.53498e-07
1.34242e-09
1.35876e-07
6.09114e-07
0.00527279
-3.92103e-08
3.73639e-08
-0.00589282
-3.09975e-07
-0.00244725
1.6304e-07
6.36835e-08
5.38385e-08
5.20829e-08
1.0451e-07
2.47095e-07
1.89471e-07
2.24098e-08
-7.86457e-08
0.00684395
9.07629e-08
-2.59444e-07
1.0592e-07
-2.76085e-08
1.89463e-09
2.17433e-08
5.95496e-08
-1.73723e-07
1.823e-11
4.4543e-09
-0.00239591
1.41698e-07
6.17326e-08
-8.39727e-08
1.1392e-07
1.80306e-08
-1.49289e-07
8.23763e-08
2.04292e-07
-6.41399e-08
3.05061e-08
0.00560829
5.15951e-10
-4.79431e-08
-3.78494e-08
-3.91736e-08
-4.96375e-08
0.00116375
2.0926e-07
0.00130367
9.3946e-08
-5.46624e-08
-1.47339e-09
1.40791e-07
-0.00335083
-1.15314e-07
5.69933e-08
-4.58802e-08
3.20719e-08
3.5767e-08
0.00206141
-2.707e-07
-1.49547e-07
-1.46959e-07
0.00103049
3.65475e-08
1.62565e-06
4.64885e-07
1.41112e-07
-2.58157e-08
1.23401e-07
4.79259e-07
-8.19724e-08
-4.33911e-08
-1.67174e-07
-3.01275e-08
-3.71591e-08
3.17915e-08
-9.06637e-08
3.03684e-08
0.000737927
0.00155819
-2.9116e-07
3.22274e-07
4.25846e-08
-1.42934e-07
-1.45441e-07
-0.000101953
0.002183
5.29869e-07
-2.37e-08
-8.82801e-08
1.57794e-07
3.4678e-08
-2.43677e-08
-0.000219074
0.00016518
0.001588
-3.04816e-07
2.44049e-07
0.00366488
-3.79591e-07
2.19185e-08
-0.0167451
-0.000876739
1.53136e-07
-3.77416e-07
-2.21317e-08
3.89097e-08
7.3375e-05
1.15112e-07
-1.04613e-07
9.31568e-08
0.000871389
3.0131e-07
-1.91328e-08
0.00295773
-2.19683e-07
-7.33732e-06
1.88385e-07
0.000304856
0.000939988
4.51236e-07
-0.0339821
-3.35097e-07
8.04091e-08
3.36951e-07
-3.41218e-08
2.00392e-08
-4.86607e-08
3.60107e-08
-2.72695e-06
3.04932e-08
-5.14477e-08
0.00015682
-3.42165e-07
1.02173e-07
3.84525e-07
0.000419267
2.1901e-07
-2.83672e-08
1.6713e-06
5.14768e-08
2.47089e-06
1.17141e-07
1.9832e-07
-1.67246e-07
5.32475e-08
3.30005e-08
4.62872e-08
-6.93823e-06
-5.88944e-07
1.54407e-07
-4.24177e-07
2.34325e-05
-8.72463e-08
3.84609e-07
-4.47254e-07
-1.38302e-07
1.70059e-06
2.42054e-07
-4.23839e-07
1.09933e-07
2.8484e-08
-1.38906e-07
2.71095e-07
-2.90902e-07
-9.52227e-07
-7.16668e-08
1.4085e-07
1.27032e-07
8.85798e-08
-1.66325e-07
8.87828e-09
3.63421e-07
4.4867e-08
-3.00451e-07
4.36673e-08
1.22833e-07
2.05552e-08
1.6576e-07
-2.91655e-05
5.55825e-07
0.00252381
-6.56892e-09
6.47476e-09
6.4927e-08
5.1052e-07
-0.0191686
-2.34538e-07
1.02475e-07
2.78892e-07
-1.83853e-08
-9.35212e-08
-2.78922e-05
-3.1669e-07
3.72078e-08
4.19831e-07
1.13479e-09
-3.77471e-07
8.68139e-07
-1.21342e-08
4.36686e-07
-2.40733e-07
-9.30767e-07
-2.8479e-08
-1.96342e-07
-7.71179e-08
-3.79457e-08
1.64543e-07
-3.81199e-07
0.00236077
4.68226e-08
-2.17165e-08
-0.0180699
4.6218e-07
9.09253e-08
3.54523e-08
1.43324e-07
-0.0167981
2.26463e-07
5.58349e-07
7.16227e-08
3.19532e-07
-6.96762e-08
-1.36945e-07
1.85768e-05
1.54919e-08
-1.74681e-07
5.34341e-08
8.70596e-08
-5.88101e-07
1.12984e-07
-6.73199e-08
-0.000374091
2.19923e-07
-0.00633624
-2.73232e-07
-3.88235e-07
-1.2725e-07
0.000501813
-8.29113e-09
-0.000154902
-0.00274342
4.54413e-07
-3.31393e-07
2.34505e-08
1.43893e-07
-4.17736e-07
3.0699e-08
-4.20036e-08
1.63213e-07
3.49839e-07
1.54687e-07
-8.74048e-08
-9.73171e-08
-1.13041e-07
9.00315e-08
1.43584e-07
0.00349669
-1.7223e-07
-2.92538e-07
1.55012e-07
7.25079e-08
-5.40449e-08
4.74872e-07
-8.38493e-09
-4.01343e-05
-5.83265e-07
-1.252e-07
9.59421e-08
3.82484e-07
-1.39831e-07
6.35855e-08
6.47667e-05
1.4946e-07
-1.85314e-08
2.66163e-06
4.53971e-08
1.49941e-07
5.97944e-08
2.64826e-06
-2.56897e-08
1.4999e-07
-8.02747e-08
7.10423e-09
3.957e-09
3.29318e-08
-0.000501215
-1.64831e-07
-1.95993e-07
-5.91745e-08
2.62826e-07
1.50304e-07
1.86013e-07
1.18173e-07
2.71697e-05
-5.41124e-07
7.74859e-08
1.64345e-07
4.07915e-11
-9.83886e-08
6.35365e-07
4.83383e-08
-1.5073e-07
0.00108429
1.42891e-07
-0.00793524
0.000267892
6.28602e-09
-0.0147798
0.0022986
1.04648e-07
1.02047e-06
-2.29014e-07
2.61359e-07
4.74796e-10
1.49429e-07
0.000837842
3.19901e-08
1.19916e-07
1.40208e-05
2.53861e-07
-3.36966e-07
3.90331e-08
7.00628e-05
-6.12148e-08
4.94277e-08
0.000142562
2.59816e-08
3.4573e-07
4.64353e-07
-0.000634278
3.59982e-09
8.50862e-08
-2.10532e-09
-1.7215e-07
2.40074e-07
9.91541e-08
-0.00198092
-0.00217924
1.51587e-07
-0.00141817
2.27745e-07
3.84231e-09
2.0597e-05
3.38693e-08
-0.00718015
2.67342e-07
3.16615e-08
1.4463e-07
1.30847e-07
1.21873e-07
-2.85339e-07
9.87091e-08
1.09019e-07
0.00235593
4.54749e-08
0.000307741
7.75423e-08
1.41124e-07
-4.20208e-08
1.56915e-05
1.17146e-07
-8.11064e-09
5.82169e-09
-1.07856e-07
-0.000186543
-3.95404e-07
-1.39013e-07
2.23953e-07
0.00033547
-1.56212e-07
-3.88777e-07
-6.24284e-08
-9.45713e-08
-0.00392546
-0.0141179
-6.6594e-08
-7.62271e-09
-5.65308e-07
5.61403e-08
-1.98651e-07
-5.95655e-08
0.000562394
-3.70039e-08
1.70804e-07
1.88677e-08
-0.00061901
-1.96394e-07
8.08193e-08
8.76086e-09
-0.00239464
-5.53651e-07
-9.76538e-08
3.62044e-08
-9.84259e-07
-1.409e-07
5.41863e-08
6.07414e-08
-6.67232e-08
2.00794e-07
4.53456e-08
1.69235e-07
-1.10181e-08
1.17003e-07
1.24358e-07
0.00173692
2.62402e-07
-2.56821e-07
1.2833e-07
1.75496e-07
-5.31299e-08
-1.10262e-07
-1.93428e-09
-0.000170964
7.65098e-08
-0.00127245
-2.11436e-07
3.68324e-08
-2.93787e-09
1.18024e-07
2.78883e-07
-6.30819e-08
-4.97055e-08
-2.84895e-07
6.27066e-08
-0.00919744
-3.95008e-08
8.38775e-09
8.40838e-06
-5.55145e-07
9.88096e-08
-8.77624e-08
-3.14553e-08
6.7169e-08
-2.36432e-07
-0.000143911
0.000899694
3.44092e-08
-1.2642e-07
-6.42453e-07
-7.07937e-07
6.5767e-08
2.39025e-07
-0.000109238
-1.55229e-07
-1.15119e-05
1.41952e-08
-5.51113e-08
6.00442e-08
2.34745e-07
0.00560169
-1.25772e-08
-2.8249e-07
-1.3446e-07
1.71097e-07
1.09618e-07
-0.000194268
-4.01626e-07
2.84554e-08
0.000261653
1.4412e-05
-3.73882e-06
-1.65849e-07
-1.95589e-07
-1.52688e-07
7.14155e-07
-1.80308e-07
0.00396828
0.00168466
1.25525e-07
-1.58194e-08
1.06819e-07
-1.603e-07
7.27652e-08
1.45839e-07
0.002245
3.78322e-07
-2.73978e-07
4.8604e-07
-2.22673e-08
1.20251e-05
-2.05279e-07
-4.56682e-07
3.5264e-08
-4.87156e-08
-3.59747e-07
-8.74265e-08
-7.58996e-07
-1.58098e-07
-1.58527e-08
2.04553e-07
2.27568e-07
5.14914e-08
-2.06265e-09
1.76515e-07
-7.60149e-08
-9.55693e-08
1.25379e-07
-2.23224e-07
1.41778e-08
8.30315e-08
7.44474e-08
1.97339e-08
1.95044e-08
-9.92511e-07
-5.30773e-08
-4.9228e-08
5.69011e-06
1.12374e-07
-1.56894e-07
1.71366e-06
1.67251e-09
0.000748245
-1.67264e-08
-1.32519e-07
9.21556e-07
4.01568e-08
9.89992e-08
1.93772e-08
-1.28084e-07
1.70349e-10
-1.48354e-07
9.4261e-08
-5.87062e-05
1.23181e-07
-1.31345e-07
-9.69307e-08
-4.90412e-08
-1.8243e-07
-8.85225e-08
-5.06705e-07
-1.51593e-07
-5.89873e-07
-1.70255e-08
4.47107e-08
-1.86457e-07
4.11697e-08
1.18283e-07
1.67502e-07
-0.00465385
-8.76274e-09
-8.02352e-07
-5.31537e-08
-4.09842e-07
1.31278e-07
-4.12151e-07
1.24725e-07
-4.50625e-08
1.16471e-08
2.39965e-06
-3.68478e-08
-0.0160227
-3.72204e-08
1.36026e-07
-1.74034e-07
1.2607e-07
2.2558e-07
-1.28722e-07
-7.51467e-08
-4.91347e-08
0.000781195
0.000138076
-3.89085e-07
2.69694e-08
9.17902e-08
-6.41319e-08
4.70058e-07
8.77385e-08
4.42962e-08
-7.3157e-09
0.00439317
1.83788e-06
0.000877529
-1.00419e-07
6.76265e-08
2.51776e-08
-3.90317e-07
-1.94153e-07
-1.01793e-06
5.40895e-07
3.82674e-08
4.52695e-07
2.58775e-08
-2.10593e-08
-5.11432e-07
0.00739325
1.53993e-07
5.69247e-08
6.86131e-07
5.78396e-08
-0.00503703
3.06954e-07
1.82376e-07
5.22473e-08
-6.28846e-08
0.00063533
6.68858e-07
0.00796817
5.09798e-08
8.38824e-05
-0.000176773
8.95303e-05
-1.01689e-06
6.26124e-07
9.78691e-07
-4.18604e-08
1.5864e-07
-6.79244e-08
6.02651e-08
0.000625852
9.80381e-08
3.35674e-08
0.00201221
1.55038e-07
1.49606e-07
2.40667e-08
1.33142e-07
2.07745e-07
-3.76021e-08
5.73892e-08
0.0101195
-6.51818e-08
1.97165e-07
0.00202252
-0.000709591
7.84371e-08
-1.02186e-07
5.84308e-08
-1.52793e-07
0.00013985
7.49761e-07
-6.9183e-07
5.76725e-08
2.24034e-07
-1.66598e-07
2.59457e-08
-4.06539e-08
-4.85928e-07
1.47782e-07
0.00256211
-5.6487e-08
2.38116e-07
-1.10772e-07
-6.87724e-08
-7.63807e-07
-1.24554e-08
-3.34688e-07
0.000288155
0.00661606
1.06329e-07
-2.33566e-07
-0.0180624
0.00133657
-9.04226e-08
7.39351e-08
-0.0162598
5.094e-07
2.77979e-08
1.52274e-07
1.91197e-07
-1.48756e-07
1.94183e-06
-3.84827e-07
1.3249e-06
6.52007e-08
0.00416619
4.32046e-05
-1.22674e-07
3.25052e-08
-1.52363e-07
-3.32656e-07
1.40414e-07
9.45438e-08
0.003856
0.00308471
-0.00666699
-2.18622e-07
4.22908e-07
-8.60511e-08
1.49908e-07
6.97911e-08
-1.63618e-07
1.7937e-06
7.44425e-08
-7.79845e-08
4.5008e-07
5.62273e-08
-1.70384e-07
-1.6689e-08
-3.73728e-07
1.61652e-07
8.67863e-08
3.68076e-07
-1.08583e-08
1.66474e-08
-4.02176e-08
-2.76007e-08
5.69113e-06
-1.41549e-07
1.13641e-07
-0.00115643
-0.00142252
6.72761e-08
0.000589726
-0.000285346
1.68942e-07
2.30242e-07
1.47758e-07
6.12591e-08
0.000202671
-6.37964e-08
8.35082e-08
1.08687e-07
-0.00032804
-3.18722e-08
-2.22236e-07
-3.85971e-08
-1.20025e-07
-7.30567e-08
2.66105e-07
3.53092e-07
-6.41301e-07
1.35809e-07
-1.62917e-07
-1.37862e-07
5.35835e-06
-1.20312e-08
6.71412e-08
-2.96314e-08
1.37274e-07
4.61531e-07
-6.32856e-08
2.14507e-07
-9.74223e-09
-4.07586e-07
-2.51405e-06
7.13072e-11
4.25037e-07
-3.35998e-08
0.00123806
3.65174e-07
2.17027e-08
-6.44921e-07
9.66064e-08
2.66077e-08
1.40408e-07
0.00101482
-0.0132771
1.14447e-08
2.55149e-07
-4.21587e-06
-1.55334e-07
1.10754e-07
-8.56765e-09
7.26644e-08
1.51683e-07
4.68271e-12
2.11543e-10
-1.95201e-08
4.62474e-08
4.92135e-07
5.71223e-08
5.40847e-08
-0.00130892
-3.21354e-07
5.09755e-06
-1.66306e-07
4.00933e-07
-6.17091e-08
0.00339616
-3.60299e-07
0.00489489
8.18822e-09
-7.82239e-07
3.87662e-08
5.80445e-08
1.88911e-07
5.59591e-08
1.55541e-08
7.83014e-08
0.00187958
8.13315e-08
0.000390663
-8.15642e-07
-1.18352e-07
-7.15042e-10
-2.31202e-07
0.00571897
-1.77677e-08
6.21317e-08
-2.63141e-08
-5.80763e-08
2.64055e-08
8.09629e-08
1.82833e-07
6.23561e-08
3.32758e-06
3.27772e-07
1.042e-07
-9.45936e-08
3.64407e-07
2.09317e-07
-4.04865e-09
2.31518e-09
-2.03393e-07
-4.40234e-07
3.70619e-08
7.97303e-08
6.70431e-08
-3.66133e-08
0.00159892
7.00944e-08
0.000194282
1.43894e-08
0.00375717
8.31112e-08
-6.98542e-07
0.000247185
-1.86575e-07
3.4108e-06
-0.00689417
-1.40229e-07
1.00971e-07
1.73621e-07
1.0087e-07
4.82301e-07
-1.66235e-08
0.00278281
2.68795e-08
-0.0562199
-0.0144899
5.87422e-07
-1.90293e-07
0.000998026
0.00359163
3.2288e-08
-1.10494e-07
-2.6932e-07
-4.88188e-07
1.5458e-07
1.54113e-07
-7.50535e-08
-0.000547482
-3.5759e-08
7.38826e-09
3.71081e-08
1.08256e-05
9.18358e-07
7.13871e-08
-5.97676e-08
2.88477e-07
9.90764e-08
4.21659e-08
0.00253952
1.67961e-07
7.54343e-08
2.74255e-05
1.25675e-07
8.61858e-08
7.92366e-05
-0.00891952
0.000433246
1.0146e-07
1.99217e-07
-3.43251e-07
-8.81919e-09
-1.28997e-07
-9.75515e-08
-8.00378e-07
-2.1967e-07
-3.70626e-08
-4.9882e-07
4.83493e-08
-9.09376e-07
1.03805e-07
8.40203e-08
-1.05765e-07
-1.83189e-07
1.29383e-07
6.09097e-08
6.91414e-07
7.543e-08
6.6158e-08
-2.21725e-07
-1.92321e-08
-5.71332e-08
-9.53965e-08
0.00397301
-4.36874e-07
3.73893e-08
6.96798e-08
2.30173e-09
0.00277064
-7.75587e-08
-5.70215e-08
-2.87637e-08
1.32914e-07
0.000480608
1.4854e-07
4.9238e-07
4.82063e-08
-1.85403e-07
-2.11972e-08
2.82744e-08
6.71051e-08
1.54596e-07
-2.73463e-07
-4.08983e-07
1.82513e-07
-0.0211598
-1.1467e-07
2.57518e-08
-7.76911e-08
0.00419622
4.18403e-08
2.43419e-07
8.27485e-08
-9.56951e-06
2.35876e-08
-9.71321e-08
-3.89888e-07
6.87534e-07
2.49752e-07
-5.08878e-08
-2.17825e-07
-3.73383e-07
-1.24437e-07
3.1509e-08
-0.00925646
-2.12962e-07
-4.35275e-09
5.19638e-08
1.13973e-07
1.55351e-07
-0.0194275
1.52349e-07
6.64849e-08
-8.01151e-08
-3.42842e-07
6.48451e-06
8.57526e-08
2.10368e-07
4.52668e-07
-1.52281e-07
-2.10507e-07
-1.33541e-07
4.89416e-07
6.7157e-08
-3.94398e-07
0.000207854
1.88686e-07
-2.33012e-07
-0.0013744
2.36491e-07
-1.04479e-06
1.55501e-07
5.45296e-09
-1.00397e-07
1.82848e-07
1.40904e-07
-1.78057e-07
-1.76675e-07
0.00142033
8.14994e-08
1.75076e-07
-1.02645e-07
1.72264e-07
5.4121e-05
0.00604808
-5.45714e-08
6.44449e-08
2.32178e-07
-1.3538e-07
-0.00145897
-3.47666e-07
1.29342e-07
2.42105e-07
0.0003153
7.25972e-08
1.8618e-07
2.76283e-08
-4.25892e-07
-0.00151925
7.92542e-08
-2.09739e-07
9.18396e-08
1.10959e-07
2.15513e-08
9.81096e-08
5.71026e-08
-9.43888e-08
-4.51753e-09
0.00119978
0.00232409
4.25557e-07
2.14855e-08
-1.31865e-07
-0.0236336
1.02705e-07
-1.94932e-05
-5.62943e-08
-5.7289e-08
5.56332e-07
-6.84749e-08
-2.90803e-07
-3.84676e-08
-2.5456e-07
2.16275e-08
-0.000634999
4.64929e-07
-8.33255e-08
-4.17571e-07
-4.70945e-07
-1.99035e-08
-4.10356e-09
-5.02322e-09
6.21913e-08
5.08995e-08
3.80624e-08
-6.92228e-07
-3.86648e-08
6.80107e-09
6.44051e-08
-1.42132e-07
3.19209e-07
-4.23688e-08
2.01462e-07
3.47843e-08
-5.75954e-08
-1.63293e-08
1.26912e-06
-1.03152e-07
-7.82568e-08
-4.24765e-07
4.23607e-07
1.82263e-07
2.0761e-08
-9.73067e-08
4.53506e-08
0.000321277
2.27308e-06
2.52968e-08
0.000711111
4.16063e-10
-4.99506e-07
2.64242e-07
-9.25104e-08
-7.97262e-07
0.00025691
-7.72033e-07
9.43709e-07
-2.92874e-07
2.44088e-08
5.93175e-08
-1.13393e-08
-2.9467e-07
7.2197e-08
-4.95415e-07
5.79294e-08
1.85005e-07
-8.30165e-08
7.11039e-09
3.05822e-07
-8.14757e-07
6.11634e-08
3.52687e-08
-1.39554e-08
-0.000329492
2.83498e-07
-4.55137e-07
0.00299631
2.78916e-08
-1.59615e-07
-7.14958e-07
-4.12753e-08
-3.45986e-08
-0.0285039
7.44036e-08
2.22245e-07
2.01193e-07
7.42858e-08
-5.09051e-07
-8.28497e-09
-7.04391e-08
-0.00612469
-1.15702e-07
1.35991e-07
-9.85814e-08
5.21677e-08
-6.7865e-08
2.7947e-08
0.00086913
1.70559e-07
2.43311e-07
8.12903e-08
7.89993e-07
1.00909e-08
6.0101e-08
-1.05954e-07
-5.30198e-08
8.17191e-08
2.31653e-07
-1.59352e-08
-2.73832e-07
3.4771e-07
7.48903e-09
-1.71312e-07
1.08401e-07
6.02617e-08
-1.68128e-07
4.19792e-07
6.3989e-08
5.07584e-08
1.14643e-07
0.000487951
-6.02504e-08
1.83208e-07
-1.10877e-07
4.40081e-08
1.08178e-09
1.50895e-07
-0.0014451
0.0020367
-0.00159221
1.22295e-07
-1.29124e-07
-7.40302e-08
2.19391e-07
7.6077e-08
-3.22116e-08
0.000216674
6.67912e-07
0.00355067
3.98371e-07
2.84704e-06
-9.6073e-05
-2.72643e-08
-2.49095e-07
1.48321e-07
-1.87586e-08
0.00377228
-8.49459e-08
2.77308e-08
1.09994e-07
1.56178e-07
-2.75504e-07
0.00340773
0.00542982
-5.65127e-08
0.00054304
2.27329e-05
1.64155e-05
9.11558e-08
-2.04981e-07
1.80467e-07
0.00396545
1.16971e-07
-0.0079641
0.00171267
-4.53264e-08
1.44302e-07
8.62991e-08
9.92854e-08
-4.25114e-07
1.14635e-08
3.19568e-06
3.94584e-08
-2.12557e-07
-1.11235e-07
-1.44323e-07
-5.30706e-09
1.0266e-07
8.24891e-08
3.98063e-08
-0.000830882
7.58178e-09
1.04327e-07
-0.0113157
-3.27647e-07
-1.20407e-07
4.04259e-08
2.09776e-06
-3.54308e-08
-2.7247e-08
3.91779e-07
3.6369e-07
-1.25787e-07
-9.61543e-08
-1.37684e-06
1.98333e-07
0.0030866
9.36758e-08
9.55641e-07
0.00700374
0.00264466
-9.46391e-08
1.74448e-07
4.91855e-07
9.04267e-08
-1.11853e-07
1.2866e-07
0.00578928
1.19949e-07
6.13229e-07
9.5972e-08
-7.12739e-08
0.00058965
5.65441e-06
-4.1262e-08
-7.5549e-08
0.00202091
-4.50985e-08
1.14505e-09
-4.97828e-08
-1.92331e-07
-1.16867e-07
3.0861e-08
2.14785e-07
-4.68028e-07
6.80066e-08
-4.76301e-07
0.0102349
-4.50674e-08
6.57853e-08
0.00112397
1.21408e-07
4.41798e-08
-3.35817e-08
-7.21291e-08
1.06117e-08
3.08775e-07
1.46227e-08
-1.70548e-07
9.96967e-08
-1.26501e-07
-2.48574e-08
2.31372e-08
3.00126e-07
-2.35696e-08
-4.78101e-07
3.74925e-08
0.00584414
0.00300553
1.78417e-08
-0.00128387
-2.36271e-08
-3.01422e-08
-2.46972e-07
-1.52702e-07
0.000431702
1.8086e-07
2.08518e-07
-1.88114e-09
-1.51388e-07
-3.16424e-08
5.13322e-08
1.36525e-06
-1.39178e-07
3.20201e-08
1.50647e-07
-0.00123005
0.00237739
1.88488e-07
7.00171e-08
1.09751e-07
-3.33826e-06
1.29448e-07
-0.00662337
0.00620615
-1.1179e-07
1.02323e-07
9.07576e-08
1.42712e-07
5.45072e-05
-2.6633e-07
7.16747e-08
4.06253e-07
1.5534e-07
2.96461e-08
-2.47646e-08
2.75663e-07
9.74473e-08
7.92646e-08
3.78218e-08
4.5064e-07
0.00200705
-1.28956e-08
1.57027e-06
4.36044e-09
3.89018e-07
1.47e-08
1.05183e-07
-6.77552e-08
1.26805e-07
1.74535e-07
1.20199e-07
1.45146e-08
8.35395e-08
0.00145632
3.60785e-07
-9.85721e-08
3.59352e-07
-5.08064e-08
1.30279e-07
2.60232e-07
3.35782e-07
-7.21127e-08
-5.04219e-05
0.00389774
1.47651e-07
-0.00202749
0.00580373
0.00266169
-6.21e-08
8.70434e-08
3.44856e-07
-9.09093e-09
-3.81547e-07
2.73267e-08
5.08745e-07
2.52613e-07
1.53768e-07
1.26288e-07
0.00145692
-2.87174e-08
0.000442533
-6.44288e-07
1.68183e-07
1.53367e-07
-1.76886e-10
1.44121e-07
-3.2151e-07
-8.38259e-08
2.88141e-08
7.05621e-06
-1.20549e-07
3.69196e-07
0.0131071
9.29929e-08
2.14975e-07
-1.20976e-07
2.79881e-06
1.11944e-08
4.22461e-08
9.82079e-08
-1.5359e-07
-2.7708e-08
5.46163e-08
-3.31214e-08
-8.0325e-07
-0.00742338
-2.604e-08
2.26762e-09
1.27207e-05
-1.07105e-07
6.64852e-08
5.06713e-07
-7.65084e-08
-6.79612e-08
-4.12386e-06
-1.40163e-07
0.000249264
7.39718e-08
-6.2986e-08
1.19717e-07
-7.06662e-08
-2.08766e-07
-5.30663e-08
-2.78278e-08
2.88181e-07
-0.000432507
-3.95886e-08
-0.00886879
-0.000273112
-5.56536e-07
7.74413e-05
1.61544e-07
2.17168e-07
0.00047863
1.76372e-07
4.21911e-07
-9.21464e-09
9.2513e-06
-8.99402e-08
-1.26136e-06
-2.28476e-07
5.90015e-05
-4.79388e-07
0.0026771
7.36152e-08
2.31691e-06
-1.4593e-07
-8.38084e-08
3.61089e-05
9.42532e-08
0.000247297
0.00637115
-0.000487968
-0.000639207
6.19237e-07
0.00288096
-1.35864e-07
-4.22734e-08
-1.19731e-07
1.00897e-07
-0.0210114
-6.55098e-09
1.99655e-09
-9.62458e-08
-1.73638e-07
1.94138e-08
1.8185e-07
2.2607e-07
0.000449799
-0.00132218
1.97355e-07
-0.000765693
-6.20482e-08
3.3779e-07
-2.53623e-08
3.7536e-08
-0.00171483
-8.62076e-08
5.01367e-08
7.45845e-06
-1.20582e-07
1.43388e-07
2.00011e-07
3.2638e-07
3.83957e-07
-1.1504e-07
4.52173e-08
-2.1243e-07
1.32423e-07
2.23654e-07
0.000963497
2.17735e-07
-1.20169e-08
-0.00191847
2.28041e-07
-3.57413e-07
-1.17973e-07
5.42671e-05
3.775e-08
1.83422e-07
4.20498e-08
-2.77153e-08
-6.07926e-08
-6.11683e-07
4.25933e-08
-0.0152694
-8.84528e-08
3.24568e-07
3.70296e-07
-9.76988e-07
-4.58582e-08
-5.91536e-07
1.89277e-07
-0.00262047
3.04906e-08
1.45221e-06
-1.9796e-07
-3.773e-07
-9.45159e-07
-3.07894e-06
-1.77094e-07
-3.56133e-07
2.48686e-08
2.84046e-08
4.67963e-07
1.27426e-06
6.08266e-08
1.04968e-10
-2.09754e-08
6.25058e-08
1.01948e-06
4.66484e-08
5.76227e-09
5.23881e-08
-1.29463e-07
0.00298224
2.47952e-08
0.00235616
2.36689e-08
6.29554e-08
6.74329e-07
1.00769e-07
-4.9324e-07
1.4738e-06
3.08549e-07
-5.09807e-09
9.45983e-07
-1.98743e-07
-2.07745e-07
1.80324e-07
0.00115844
-0.00070601
3.61175e-08
-7.4892e-08
-8.6962e-08
8.02374e-08
4.1283e-07
-0.00049006
4.97294e-09
3.19728e-06
-8.73331e-08
1.84425e-07
4.85557e-08
0.000184981
-3.93272e-09
1.66832e-07
1.5685e-08
1.53306e-08
1.76286e-07
3.61426e-08
6.98827e-08
-7.11905e-08
0.0395707
-1.82855e-08
7.21857e-08
2.49287e-08
-4.59866e-08
3.19487e-07
-0.00937957
-1.37653e-07
4.45742e-08
-9.55691e-08
-1.78827e-07
2.51601e-07
5.34237e-08
1.04774e-06
2.82147e-08
-3.47439e-07
-4.6928e-08
1.43357e-07
-1.20182e-07
6.53704e-07
3.91392e-08
1.97832e-07
-0.00811967
0.000416491
2.25445e-07
-1.11843e-07
0.000550768
4.87108e-07
4.86798e-07
-5.8692e-07
1.04499e-06
4.92713e-08
0.00594457
1.06175e-06
-1.09876e-07
-0.00033967
-0.00923154
1.96017e-07
-1.96414e-07
2.16616e-07
1.33281e-07
0.00099645
2.09231e-07
-4.2653e-07
3.932e-08
1.6613e-07
-3.424e-10
-4.28682e-08
-1.78181e-07
-8.45237e-08
5.40273e-08
0.17432
5.24266e-08
2.03248e-07
1.02799e-07
-1.40538e-07
2.33663e-09
-2.22594e-07
3.53069e-07
6.52063e-08
-4.87265e-07
-2.03548e-07
0.00012854
2.29474e-07
2.73094e-07
7.45214e-08
-2.5312e-09
7.83153e-08
8.88626e-08
-4.51962e-07
6.76176e-07
2.8867e-08
-2.34982e-07
-6.16213e-09
4.34026e-08
4.30315e-08
0.0038932
1.49828e-07
2.29599e-07
1.41254e-07
7.16062e-07
-1.0147e-07
-1.77223e-08
5.00486e-08
1.69906e-07
-0.00409346
0.000181229
5.08321e-08
-6.9826e-08
1.74764e-07
-1.54713e-08
3.8425e-07
3.19273e-08
2.42592e-08
-3.57695e-08
1.89676e-07
9.63258e-08
1.39726e-07
1.10913e-07
-2.20797e-05
-2.73322e-07
2.48679e-09
5.2946e-08
0.00388819
-3.77555e-07
7.88072e-10
0.00648568
2.38508e-07
-1.71165e-08
-6.84536e-06
-9.93575e-07
-0.000265199
-2.93814e-08
3.0897e-06
-3.68531e-07
-4.98911e-07
0.000698202
9.42186e-08
-7.06984e-05
-6.72358e-07
2.92534e-07
0.00330773
2.67119e-10
2.47506e-07
1.37088e-07
6.80618e-07
4.5578e-07
3.89052e-05
-3.38037e-07
0.00105096
1.35673e-07
1.51354e-07
1.19733e-06
2.11381e-07
2.59911e-07
2.32324e-06
-1.04089e-08
-1.06156e-07
-8.14243e-07
-2.81941e-09
3.13649e-07
-2.67225e-08
5.94834e-07
-0.000139164
4.40288e-07
1.66142e-07
9.83105e-09
0.00338997
1.63407e-08
-1.00113e-08
-9.86402e-08
0.00546913
-1.71077e-08
-4.84159e-07
1.24542e-07
3.63712e-08
2.2937e-07
1.50517e-07
3.52127e-08
1.2426e-07
2.19057e-07
0.00184035
-0.000782555
-1.25228e-07
1.44878e-07
-4.00943e-07
3.30869e-07
-2.64622e-10
-8.39689e-08
1.20817e-07
9.57147e-08
-8.61412e-05
-6.50905e-08
-7.6997e-09
3.11736e-08
-0.0143391
-2.3812e-07
2.50088e-08
-2.38982e-05
4.38324e-05
2.33681e-07
1.02786e-07
-9.29749e-08
2.77515e-07
1.00711e-07
8.04444e-08
0.00606941
-1.07654e-07
-5.04227e-07
1.6998e-07
-6.32145e-07
-7.46281e-08
-4.33472e-08
-7.40334e-08
1.04096e-07
-1.00228e-07
-8.26001e-08
-1.38681e-07
-1.10266e-07
-2.71666e-07
1.4461e-07
2.04812e-07
-0.00110079
-0.00117382
-4.02062e-07
-7.11898e-08
4.29749e-08
-2.8234e-07
0.00158588
-1.35487e-07
5.60006e-07
3.61461e-07
-1.72275e-08
-1.96273e-07
9.5896e-08
-0.000559233
-7.68359e-08
0.00258764
-2.02492e-07
-7.10122e-08
-5.4538e-08
-0.0121548
1.50518e-07
3.77442e-08
0.00326698
-1.5463e-07
1.662e-07
0.000358842
1.40841e-09
-0.0337667
-1.55094e-07
-3.968e-07
-0.00148015
-3.85924e-07
1.99625e-07
-3.65941e-09
-0.000131261
-4.00953e-07
-2.70356e-07
1.58585e-05
2.46814e-08
-2.46779e-07
1.01231e-07
0.00206441
9.49973e-07
0.00649235
0.0157526
-1.27452e-08
1.72572e-07
-7.68328e-07
1.57801e-06
-1.45072e-07
7.01688e-08
1.16273e-07
-6.21573e-07
-7.7888e-07
1.14833e-07
1.55978e-07
2.09772e-07
8.72528e-08
-0.00105238
5.31384e-08
0.000311816
6.28468e-08
-9.03992e-07
9.37539e-07
-9.85403e-10
-6.77054e-08
0.00509983
0.0044157
-2.07786e-07
1.27425e-07
-4.65268e-08
3.87509e-07
-5.26127e-09
-4.27735e-07
2.16039e-07
-1.25495e-07
4.33813e-07
0.0006453
0.00284252
-5.15409e-08
2.11789e-07
1.70188e-07
1.6265e-08
-3.51366e-07
-7.32753e-07
-0.0190335
1.55409e-07
-1.1791e-07
-5.81527e-08
0.00188754
7.95911e-08
0.000393043
1.68722e-07
5.31859e-07
3.20044e-07
0.00275932
1.29547e-06
-2.55062e-08
-2.71999e-08
1.87863e-07
-1.7684e-07
1.25601e-06
1.04866e-07
1.95248e-07
1.66772e-05
-2.02003e-07
2.91117e-08
9.18343e-08
1.30769e-07
-7.36595e-07
5.41665e-06
-1.18818e-07
-5.12013e-07
-3.49743e-08
-1.1142e-07
-4.00748e-05
-5.04842e-05
-7.1195e-08
-9.73795e-08
-1.37565e-07
1.89502e-06
0.0046259
3.29202e-09
0.00189949
4.84257e-08
-8.35577e-09
0.00202429
7.25121e-08
0.00637246
9.71627e-05
5.31335e-07
-3.49312e-08
-4.52752e-05
1.58075e-07
3.6869e-08
1.52451e-07
0.00311647
-4.04645e-07
-2.7331e-07
0.000363562
-0.00293324
-5.8596e-07
-7.58128e-07
-7.39867e-08
2.28781e-07
0.000386616
-3.19037e-07
-3.41692e-07
0.00247114
-2.43669e-08
-1.04878e-08
2.68e-08
-0.0150321
0.000558618
-2.20614e-07
9.40014e-08
-4.13465e-07
1.79681e-07
7.21174e-05
3.9729e-07
1.68136e-08
-0.00665646
0.00338962
2.40407e-07
9.40254e-07
2.85198e-09
0.00248683
5.60858e-08
-6.71304e-07
-4.74037e-07
2.9938e-06
4.46554e-07
9.03772e-07
0.0004461
0.0068293
-5.72675e-08
1.53804e-07
-2.81103e-08
-3.30134e-08
-0.00149503
7.11036e-07
0.00567723
1.96343e-06
-1.51054e-07
4.00246e-07
0.00441934
4.3934e-07
4.99327e-08
-3.23987e-07
2.63786e-05
0.00121161
0.000863818
0.000331808
0.00366487
0.000676188
6.46829e-08
6.32636e-08
1.24935e-07
-7.1693e-08
-0.000144009
4.37994e-05
1.35645e-07
-0.0112763
3.97886e-08
-8.16724e-08
1.55239e-07
-2.32109e-07
-7.372e-08
0.00386955
-2.108e-07
-0.000113866
-2.73814e-08
6.80591e-06
-3.66019e-08
7.13996e-07
0.000729906
-3.1989e-07
-4.1558e-07
-8.20371e-08
4.96794e-08
-1.12185e-07
-1.29451e-08
2.28431e-07
0.00295946
-1.22063e-09
-1.54505e-07
0.000138588
-3.95637e-07
0.000376259
-4.23873e-09
0.00281719
-5.86715e-08
-3.47932e-08
4.93129e-08
1.10544e-07
-5.82006e-07
-9.2211e-08
0.00177714
3.42027e-08
-5.52676e-07
0.00686283
1.15595e-07
0.0058544
1.05988e-07
0.00669002
-0.0361933
0.00380553
3.85188e-07
5.34429e-08
-7.24387e-09
0.00199295
-3.4883e-08
-5.15012e-07
-4.07797e-09
-6.42932e-07
0.00501267
1.46173e-07
9.73538e-08
1.30226e-07
3.66811e-08
-0.00906607
-0.000247592
-4.93301e-08
4.74804e-08
0.00444083
0.00375761
-2.68606e-07
-0.0190687
-1.21405e-07
0.00512238
0.00526787
9.12178e-07
6.76234e-07
-9.36131e-06
7.18623e-08
0.0017934
1.18206e-06
1.28251e-07
3.42062e-07
-1.64921e-08
0.00635996
0.000149539
-6.61961e-08
1.49283e-08
0.00176664
-2.53779e-07
0.00124461
-1.24813e-07
-1.16591e-07
-1.49173e-07
-0.000628808
8.99863e-07
4.64264e-08
0.00283345
3.38799e-08
-0.0166155
-0.00103228
6.2099e-08
-1.5996e-07
4.68489e-07
-8.3308e-08
3.25924e-07
3.85346e-08
-0.00103004
8.00412e-09
8.13521e-08
1.78567e-07
-0.00422982
9.30405e-08
-1.31346e-07
1.31465e-07
0.0026183
1.99208e-07
-1.6612e-08
4.62913e-07
0.00221532
-0.0177059
-4.79659e-08
1.36757e-06
3.11997e-07
3.15179e-08
-6.34722e-08
0.00337846
3.05917e-08
3.62888e-07
-1.0245e-07
8.28359e-06
-2.04125e-07
0.00450761
-0.00573725
8.95875e-08
0.00211893
0.00272391
6.19541e-08
-3.10879e-07
-0.000632275
-5.31863e-08
0.00105053
1.7547e-07
1.12981e-05
9.21465e-09
-9.66317e-09
-1.18181e-07
4.77326e-08
2.23311e-07
2.04932e-08
-3.49679e-08
0.00031436
1.20641e-07
0.00245179
0.000992414
1.3363e-08
-1.49767e-07
-5.68446e-08
0.00872773
2.36537e-08
-1.34699e-07
-7.04032e-08
-0.0356508
-0.000659337
0.0198635
0.00179827
2.6293e-09
1.85766e-07
-8.46476e-08
1.7754e-07
-1.97972e-07
-0.000135602
1.12403e-07
3.93459e-08
0.000310574
1.45407e-07
2.81904e-08
5.67211e-07
0.000135809
4.2586e-07
-1.68062e-08
-3.73041e-08
7.96168e-06
3.68831e-06
-0.00907143
8.7297e-07
9.11572e-08
5.25404e-08
2.84608e-07
9.58469e-09
1.25128e-07
5.80272e-08
-3.90187e-08
1.59235e-07
4.39383e-08
-6.22293e-07
8.83972e-08
2.97123e-08
1.28592e-07
-3.20621e-07
-7.53677e-08
-4.10098e-09
1.15681e-07
1.59984e-08
1.75078e-07
9.88003e-08
7.66655e-08
-2.16169e-07
5.23021e-06
2.38734e-08
2.89967e-09
1.55623e-05
-0.000196471
0.00227721
0.00318434
3.69676e-07
3.06268e-08
5.17753e-08
0.00514065
-1.57094e-07
4.09502e-08
1.87933e-07
-0.00210308
3.6458e-08
-3.22978e-08
8.44639e-06
1.81562e-07
-2.22921e-08
1.04778e-08
5.56924e-08
-4.95956e-08
-7.57199e-08
-3.64448e-08
-7.18673e-08
6.10097e-08
2.17619e-08
1.47258e-07
-4.38115e-07
1.5222e-06
-9.20132e-08
-1.27082e-08
1.0657e-07
1.47469e-06
-1.24726e-07
2.87234e-08
-5.39505e-08
0.00212483
-1.28001e-09
1.01354e-07
7.96996e-08
-3.96352e-07
5.66676e-08
-3.54563e-08
-7.13914e-08
9.94651e-05
3.22989e-08
-2.23664e-06
3.24403e-08
-6.78994e-08
-9.04718e-08
-6.60809e-08
2.87975e-08
1.2135e-07
5.77537e-08
-7.2547e-08
-6.67819e-08
0.00594858
-7.81378e-09
-9.37026e-08
6.17289e-08
0.00594364
-0.00565058
4.14352e-08
2.47925e-09
-2.29832e-07
-3.37733e-09
4.01561e-07
2.86822e-09
0.00493683
1.01002e-08
6.70845e-08
-5.55895e-08
-9.53661e-08
9.74474e-07
-6.315e-08
-0.00030295
-2.18659e-08
-7.70729e-07
-5.45156e-08
1.37109e-07
-0.00256259
0.00576673
1.49792e-07
4.28452e-07
-2.58515e-07
-1.70754e-07
-1.46631e-07
-0.003942
-5.72329e-08
-1.02937e-07
-3.9115e-07
1.27176e-08
2.77149e-07
2.09494e-07
-3.15244e-08
0.00679301
5.14937e-07
6.64156e-07
1.78156e-09
1.8448e-07
6.53592e-08
-3.77889e-08
9.48862e-08
4.14161e-08
5.66998e-08
0.00147408
5.34574e-08
1.4108e-07
1.22584e-08
-0.00226421
3.38415e-07
-0.00233298
1.03405e-07
0.00706256
1.49746e-07
-1.33192e-07
2.57369e-08
4.89088e-08
1.97363e-07
5.97949e-07
2.80336e-07
1.6633e-07
-1.9333e-07
-1.40102e-07
5.11374e-08
-0.000471834
-5.2923e-08
2.48721e-07
-1.04331e-07
4.94658e-07
3.17118e-07
2.23297e-08
-2.16641e-08
0.000568269
-0.00488935
2.41917e-05
6.95089e-06
5.01159e-06
-2.32667e-07
-8.60447e-09
5.13405e-08
-2.42865e-07
-1.59565e-07
0.00550035
-1.62918e-08
1.03969e-07
1.76984e-07
5.41998e-08
-3.98124e-07
-7.88874e-08
3.67567e-08
6.09882e-08
4.72592e-07
-1.39327e-06
7.20158e-09
-1.91471e-08
4.23812e-08
-0.000572462
-4.13885e-07
2.57755e-07
-0.00133523
-0.0111793
-1.42676e-07
-2.64262e-07
4.00087e-08
3.37322e-08
4.24529e-08
-2.23349e-08
-0.0255267
-2.88373e-08
-0.000624279
-2.51617e-08
0.000394863
-1.83105e-08
1.11532e-07
7.77595e-07
4.47013e-08
-3.30281e-08
-1.10847e-08
5.9109e-08
5.45698e-06
2.53943e-08
7.88847e-07
8.83057e-08
5.65402e-08
-1.74345e-07
-8.03732e-08
-1.7107e-08
2.18408e-07
3.15226e-07
5.13001e-08
3.73895e-07
3.38601e-09
0.171655
1.46199e-07
-1.58391e-07